/*--------------------------------*- C++ -*----------------------------------*\
| =========                 |                                                 |
| \\      /  F ield         | OpenFOAM: The Open Source CFD Toolbox           |
|  \\    /   O peration     | Version:  2012                                  |
|   \\  /    A nd           | Website:  www.openfoam.com                      |
|    \\/     M anipulation  |                                                 |
\*---------------------------------------------------------------------------*/
FoamFile
{
    version     2.0;
    format      ascii;
    class       surfaceScalarField;
    location    "0.105/fluid";
    object      meshPhi;
}
// * * * * * * * * * * * * * * * * * * * * * * * * * * * * * * * * * * * * * //

dimensions      [0 3 -1 0 0 0 0];
oriented        oriented;


internalField   nonuniform List<scalar> 
46515
(
-6.36375e-08
-2.33958e-06
2.79947e-07
6.4478e-07
-5.04499e-08
-7.70685e-08
-6.10685e-08
-5.2672e-07
4.54962e-06
8.99552e-07
-5.64721e-06
7.74723e-07
-1.40284e-06
8.9245e-06
6.40975e-07
-9.81157e-06
1.5182e-06
-2.20632e-06
1.15688e-05
-1.18613e-05
2.22281e-06
4.04118e-07
-2.8309e-06
1.2005e-05
-1.18502e-05
2.78429e-06
2.27871e-07
-3.26367e-06
1.095e-05
-1.05438e-05
3.18216e-06
1.05142e-07
-3.52537e-06
9.12063e-06
-8.60309e-06
3.42387e-06
2.74433e-08
-3.64625e-06
7.031e-06
-6.51744e-06
3.53837e-06
-1.67094e-08
-3.66969e-06
5.03564e-06
-4.55873e-06
3.56412e-06
-4.33327e-08
-3.46153e-06
3.20794e-06
-2.79137e-06
3.37504e-06
-5.46785e-08
-3.08156e-06
1.68747e-06
-1.38492e-06
3.02218e-06
-5.176e-08
-2.74939e-06
7.14315e-07
-5.69442e-07
2.6948e-06
-4.21481e-08
-2.40689e-06
3.0623e-07
-2.60512e-07
2.34416e-06
-3.09419e-08
-1.81431e-06
1.93039e-07
-1.8189e-07
1.76681e-06
-2.14579e-08
-9.21465e-07
1.40156e-07
-1.18915e-07
9.05672e-07
-1.12502e-08
-1.64156e-06
-9.88278e-06
1.15848e-07
1.85421e-06
-1.54774e-06
1.09693e-05
4.28554e-07
-1.15062e-05
1.70948e-06
-1.83376e-06
1.31545e-05
-1.36055e-05
1.868e-06
4.15901e-07
-2.17671e-06
1.439e-05
-1.44454e-05
2.09604e-06
2.95248e-07
-2.49691e-06
1.40711e-05
-1.37864e-05
2.33168e-06
1.70082e-07
-2.7525e-06
1.25572e-05
-1.20465e-05
2.53763e-06
6.82359e-08
-2.91574e-06
1.0314e-05
-9.69683e-06
2.67772e-06
-2.86525e-10
-2.99727e-06
7.82934e-06
-7.21557e-06
2.74803e-06
-4.02792e-08
-2.99192e-06
5.45022e-06
-4.89639e-06
2.73212e-06
-6.10727e-08
-2.85154e-06
3.37711e-06
-2.92521e-06
2.60212e-06
-6.66823e-08
-2.60329e-06
1.75556e-06
-1.43105e-06
2.38296e-06
-6.117e-08
-2.32201e-06
6.74545e-07
-4.95194e-07
2.12329e-06
-5.08211e-08
-1.95838e-06
1.24812e-07
-6.11238e-08
1.77663e-06
-3.83256e-08
-1.45141e-06
1.34783e-08
-3.1529e-08
1.3081e-06
-2.56953e-08
-7.68229e-07
1.11209e-07
-1.21374e-07
6.97033e-07
-1.23291e-08
-1.83432e-06
-1.62348e-05
1.56954e-06
3.73841e-08
-1.62409e-06
1.63823e-05
-1.65004e-05
1.37769e-06
1.912e-07
-1.54785e-06
1.68459e-05
-1.69037e-05
1.27962e-06
2.32195e-07
-1.53899e-06
1.67464e-05
-1.6562e-05
1.2384e-06
1.86836e-07
-1.58188e-06
1.56196e-05
-1.51846e-05
1.2473e-06
1.08684e-07
-1.66449e-06
1.35859e-05
-1.29726e-05
1.30012e-06
3.345e-08
-1.7449e-06
1.09875e-05
-1.02954e-05
1.36001e-06
-2.20668e-08
-1.78414e-06
8.20735e-06
-7.52234e-06
1.38825e-06
-5.6318e-08
-1.75642e-06
5.56996e-06
-4.96669e-06
1.36288e-06
-7.3814e-08
-1.66251e-06
3.34578e-06
-2.87413e-06
1.28681e-06
-7.7179e-08
-1.52023e-06
1.67056e-06
-1.339e-06
1.1737e-06
-6.96936e-08
-1.33897e-06
5.51539e-07
-3.58856e-07
1.02852e-06
-5.73759e-08
-1.10055e-06
-1.76596e-08
7.83689e-08
8.41305e-07
-4.35502e-08
-7.99355e-07
-1.25869e-07
1.03267e-07
6.08295e-07
-2.91849e-08
-4.29064e-07
2.57585e-08
-6.32981e-08
3.2508e-07
-1.37166e-08
-4.98497e-07
-1.04949e-06
-8.96514e-06
1.2689e-06
2.19936e-06
-4.37131e-07
-5.81257e-07
-5.13483e-07
-1.33063e-06
1.04475e-05
-3.33386e-06
3.98896e-06
-1.11234e-05
1.54038e-06
-2.43052e-06
-1.81899e-06
1.29622e-05
2.9366e-06
-1.33803e-05
1.90874e-06
-1.54953e-06
-2.35921e-06
1.39032e-05
-1.38459e-05
2.37552e-06
1.88268e-06
-8.84561e-07
-2.80139e-06
1.31311e-05
-1.27531e-05
2.77289e-06
1.07925e-06
-4.14804e-07
-3.11287e-06
1.1351e-05
-1.08248e-05
3.0542e-06
5.09755e-07
-1.16412e-07
-3.32848e-06
9.16555e-06
-8.60273e-06
3.24335e-06
1.47224e-07
5.57846e-08
-3.43432e-06
6.93324e-06
-6.39064e-06
3.3354e-06
-6.36298e-08
1.53171e-07
-3.41349e-06
4.83379e-06
-4.34342e-06
3.31365e-06
-1.81485e-07
1.94581e-07
-3.23905e-06
2.98699e-06
-2.57968e-06
3.15169e-06
-2.32261e-07
1.92272e-07
-2.95455e-06
1.52738e-06
-1.2417e-06
2.88704e-06
-2.32745e-07
1.65659e-07
-2.62844e-06
5.77152e-07
-4.22323e-07
2.5722e-06
-2.04105e-07
1.29202e-07
-2.24463e-06
1.37829e-07
-9.00897e-08
2.19142e-06
-1.61608e-07
8.97562e-08
-1.6595e-06
2.70726e-08
-2.62968e-08
1.6196e-06
-1.12838e-07
4.68996e-08
-8.11035e-07
3.11369e-09
-1.14378e-08
8.04736e-07
-5.8218e-08
-2.6071e-06
-4.44703e-07
-1.4304e-05
5.40575e-07
2.65339e-06
-1.61452e-06
-2.09907e-06
1.49243e-05
1.94595e-06
-1.52208e-05
2.17972e-06
-1.59202e-06
-2.1186e-06
1.60415e-05
-1.6213e-05
2.10573e-06
1.92433e-06
-1.15119e-06
-2.28212e-06
1.62003e-05
-1.59966e-05
2.16868e-06
1.40213e-06
-6.69216e-07
-2.48571e-06
1.49437e-05
-1.44775e-05
2.29753e-06
8.18927e-07
-2.80376e-07
-2.64548e-06
1.28298e-05
-1.22223e-05
2.4215e-06
3.48256e-07
-2.01264e-08
-2.77269e-06
1.03061e-05
-9.65322e-06
2.53834e-06
3.39398e-08
1.35105e-07
-2.8357e-06
7.69418e-06
-7.0542e-06
2.59977e-06
-1.55228e-07
2.19213e-07
-2.7991e-06
5.22232e-06
-4.65588e-06
2.563e-06
-2.59945e-07
2.46794e-07
-2.66562e-06
3.12245e-06
-2.67716e-06
2.43707e-06
-2.97139e-07
2.32634e-07
-2.46509e-06
1.5485e-06
-1.24284e-06
2.25392e-06
-2.83227e-07
1.9839e-07
-2.19708e-06
5.00855e-07
-3.19904e-07
2.00447e-06
-2.4426e-07
1.5473e-07
-1.83673e-06
-3.71464e-08
9.42344e-08
1.66589e-06
-1.92348e-07
1.05446e-07
-1.34685e-06
-1.29292e-07
1.03207e-07
1.21702e-06
-1.3154e-07
5.09296e-08
-7.04879e-07
2.45582e-08
-5.59249e-08
6.4143e-07
-6.35185e-08
-1.48797e-07
-2.24299e-06
-1.89763e-05
1.87299e-06
1.83041e-07
-7.29178e-07
-1.86877e-06
1.88509e-05
-1.88319e-05
1.55593e-06
8.83014e-07
-8.88007e-07
-1.6387e-06
1.86968e-05
-1.85813e-05
1.33368e-06
1.07542e-06
-7.21229e-07
-1.50696e-06
1.7902e-05
-1.75495e-05
1.19073e-06
8.76493e-07
-4.24926e-07
-1.47198e-06
1.61577e-05
-1.55969e-05
1.13809e-06
5.19036e-07
-1.40165e-07
-1.5275e-06
1.37035e-05
-1.30196e-05
1.17733e-06
1.74741e-07
7.11262e-08
-1.61999e-06
1.08821e-05
-1.01555e-05
1.25348e-06
-8.15918e-08
2.04512e-07
-1.67585e-06
7.98837e-06
-7.28486e-06
1.29997e-06
-2.44683e-07
2.75126e-07
-1.6524e-06
5.29189e-06
-4.68277e-06
1.28177e-06
-3.32181e-07
2.91989e-07
-1.56335e-06
3.06405e-06
-2.60102e-06
1.21044e-06
-3.54568e-07
2.67882e-07
-1.43512e-06
1.43183e-06
-1.11185e-06
1.10726e-06
-3.27356e-07
2.24198e-07
-1.26192e-06
3.48356e-07
-1.62644e-07
9.69745e-07
-2.75747e-07
1.7271e-07
-1.03361e-06
-1.86118e-07
2.35887e-07
7.91142e-07
-2.13281e-07
1.16414e-07
-7.44419e-07
-2.37134e-07
1.96756e-07
5.65621e-07
-1.43864e-07
5.55361e-08
-3.88396e-07
-3.94387e-08
-1.01158e-08
2.91117e-07
-6.89185e-08
-1.10621e-06
-1.78478e-06
-2.26748e-05
1.90006e-06
4.30358e-06
-9.98564e-07
-1.16256e-06
-1.04986e-06
-2.5756e-06
2.26345e-05
-5.39123e-06
5.6688e-06
-2.24169e-05
2.7265e-06
-4.04607e-06
-2.45613e-06
2.10883e-05
4.26539e-06
-2.04714e-05
2.50737e-06
-2.62486e-06
-2.51986e-06
1.83399e-05
-1.75692e-05
2.53317e-06
2.77476e-06
-1.52465e-06
-2.6164e-06
1.51786e-05
-1.43768e-05
2.60468e-06
1.61915e-06
-7.36913e-07
-2.71206e-06
1.20286e-05
-1.12786e-05
2.67746e-06
7.88235e-07
-2.24013e-07
-2.81079e-06
9.14993e-06
-8.48133e-06
2.7537e-06
2.41448e-07
8.30689e-08
-2.83733e-06
6.58125e-06
-5.98389e-06
2.76833e-06
-8.97016e-08
2.54535e-07
-2.77491e-06
4.3132e-06
-3.80209e-06
2.70449e-06
-2.75242e-07
3.31221e-07
-2.67536e-06
2.42902e-06
-2.03226e-06
2.60561e-06
-3.5871e-07
3.38732e-07
-2.50502e-06
1.04112e-06
-7.79022e-07
2.44054e-06
-3.67533e-07
3.04395e-07
-2.22578e-06
1.69724e-07
-2.59749e-08
2.17463e-06
-3.30784e-07
2.46856e-07
-1.84432e-06
-2.40103e-07
2.80392e-07
1.8073e-06
-2.68819e-07
1.74697e-07
-1.31215e-06
-3.11915e-07
2.96572e-07
1.29266e-06
-1.89991e-07
8.7313e-08
-6.58987e-07
-1.80436e-07
1.15132e-07
6.52653e-07
-9.47322e-08
-4.05458e-06
-7.64779e-07
-2.34607e-05
8.16061e-07
3.87909e-06
-2.67098e-06
-2.96285e-06
2.2993e-05
2.81648e-06
-2.27489e-05
2.91746e-06
-2.64985e-06
-2.52504e-06
2.16835e-05
-2.12089e-05
2.44105e-06
2.79528e-06
-1.94393e-06
-2.37215e-06
1.94631e-05
-1.87769e-05
2.22674e-06
2.05312e-06
-1.1554e-06
-2.32899e-06
1.65108e-05
-1.57164e-05
2.14043e-06
1.22839e-06
-5.08338e-07
-2.33435e-06
1.32979e-05
-1.2502e-05
2.13038e-06
5.4581e-07
-6.4284e-08
-2.37735e-06
1.01898e-05
-9.44734e-06
2.17318e-06
6.9417e-08
2.10695e-07
-2.3828e-06
7.29525e-06
-6.60975e-06
2.18661e-06
-2.28865e-07
3.67687e-07
-2.31188e-06
4.67716e-06
-4.08804e-06
2.12204e-06
-3.99069e-07
4.30998e-07
-2.20074e-06
2.52274e-06
-2.0822e-06
2.01182e-06
-4.68479e-07
4.18987e-07
-2.06082e-06
1.00863e-06
-7.25152e-07
1.87965e-06
-4.56843e-07
3.67357e-07
-1.83837e-06
3.81229e-08
1.26546e-07
1.67294e-06
-4.00548e-07
2.92107e-07
-1.52232e-06
-4.11939e-07
4.40542e-07
1.38132e-06
-3.18008e-07
2.00311e-07
-1.10458e-06
-4.06093e-07
3.5756e-07
1.004e-06
-2.18221e-07
9.69604e-08
-5.73467e-07
-1.51351e-07
8.56353e-08
5.23987e-07
-1.05843e-07
-2.65613e-07
-2.89391e-06
-2.44874e-05
2.36155e-06
2.85738e-07
-1.22865e-06
-2.2665e-06
2.37484e-05
-2.34388e-05
1.85645e-06
1.30239e-06
-1.49223e-06
-1.80149e-06
2.22863e-05
-2.1809e-05
1.45222e-06
1.57992e-06
-1.22303e-06
-1.49604e-06
2.00762e-05
-1.94017e-05
1.17249e-06
1.29731e-06
-7.36135e-07
-1.33793e-06
1.71639e-05
-1.63678e-05
1.02585e-06
7.86169e-07
-2.58098e-07
-1.31418e-06
1.39064e-05
-1.30774e-05
1.00445e-06
2.79594e-07
1.06957e-07
-1.36264e-06
1.06109e-05
-9.80578e-06
1.04764e-06
-1.12196e-07
3.44889e-07
-1.39919e-06
7.47079e-06
-6.73035e-06
1.08262e-06
-3.70053e-07
4.75613e-07
-1.36918e-06
4.66579e-06
-4.04562e-06
1.06223e-06
-5.12482e-07
5.13551e-07
-1.29083e-06
2.42701e-06
-1.97574e-06
1.00016e-06
-5.55049e-07
4.80708e-07
-1.1955e-06
8.65072e-07
-5.691e-07
9.24879e-07
-5.21115e-07
4.10272e-07
-1.06695e-06
-1.28417e-07
2.91928e-07
8.30674e-07
-4.45693e-07
3.19222e-07
-8.78069e-07
-5.60432e-07
5.80166e-07
6.84534e-07
-3.47041e-07
2.15962e-07
-6.25079e-07
-4.98556e-07
4.32712e-07
4.79341e-07
-2.35335e-07
1.04846e-07
-3.17334e-07
-2.09133e-07
1.30643e-07
2.38207e-07
-1.1468e-07
-3.27476e-08
-2.31396e-07
2.64185e-08
-3.36356e-06
3.57486e-07
-1.40242e-07
2.27304e-06
1.10932e-06
2.01511e-07
4.15815e-07
-1.78885e-07
-4.04805e-07
-1.49777e-06
4.02078e-06
-7.29259e-06
9.28525e-07
-3.14795e-06
-6.78844e-07
6.46816e-06
-4.91369e-07
-1.8283e-06
2.25003e-07
-9.66975e-06
1.2891e-06
-1.05618e-06
8.98268e-06
4.78146e-06
3.5725e-07
1.04182e-06
-3.43375e-07
-1.05983e-06
-4.83882e-06
6.38607e-06
-1.89967e-05
2.41497e-06
-5.96197e-06
-2.2116e-06
1.88529e-05
-1.12487e-06
-5.34146e-06
3.727e-07
-2.25884e-05
2.7153e-06
-2.50061e-06
2.26732e-05
6.70351e-06
-1.94744e-08
1.82824e-08
1.24098e-08
-1.7245e-08
-1.57417e-09
1.50674e-09
5.32711e-10
-3.38888e-07
1.02574e-06
-4.56199e-06
-8.08797e-06
1.17916e-06
-1.06054e-06
6.99947e-06
7.54422e-07
3.78738e-06
1.02383e-06
-2.94991e-06
-8.33479e-07
-8.18825e-06
2.8543e-06
-1.07133e-05
1.49531e-06
-2.20022e-06
-1.39188e-06
9.95692e-06
3.58768e-06
9.22582e-07
6.43208e-07
-1.34848e-06
-7.92358e-06
1.44053e-07
-9.29958e-06
1.51979e-06
-1.25959e-06
8.70124e-06
4.82913e-07
-3.37648e-07
-3.61082e-07
-2.89931e-07
-8.1042e-07
-6.45689e-06
1.64978e-06
3.38393e-06
-8.20833e-06
-2.63957e-06
7.46816e-06
1.20477e-06
5.52144e-07
2.25673e-06
-4.234e-07
-2.08474e-06
-1.09825e-05
1.80965e-06
-1.20367e-05
1.92811e-06
-1.39961e-06
-1.72822e-06
1.15813e-05
-1.17891e-07
4.35421e-08
-4.29697e-08
2.92241e-08
-3.28717e-08
-6.2324e-08
3.36427e-08
1.93154e-08
-1.15354e-06
4.52244e-06
-1.03986e-05
-1.23291e-05
1.67982e-06
-1.58516e-06
1.17749e-05
3.44246e-06
6.08359e-06
2.30666e-06
-5.6704e-06
-2.15745e-06
-1.90544e-05
4.72545e-06
-1.85571e-05
2.27963e-06
-4.38335e-06
-2.20908e-06
1.88324e-05
9.83295e-06
4.03784e-06
1.54093e-06
-2.49854e-06
-1.28849e-05
6.7109e-07
-1.3732e-05
2.16276e-06
-1.99859e-06
1.33661e-05
2.17708e-06
-9.73184e-07
-9.39598e-07
-8.76876e-07
-1.63991e-06
-1.8845e-05
3.8477e-06
5.43242e-06
-1.92537e-05
-5.06215e-06
1.91472e-05
2.60803e-06
9.49609e-07
3.72537e-06
-8.71569e-07
-3.79828e-06
-2.0378e-05
2.97876e-06
-2.03555e-05
2.93099e-06
-2.76431e-06
-2.87916e-06
2.03702e-05
-2.68053e-07
5.45457e-08
-5.43628e-08
8.41996e-08
-5.05434e-08
-1.94142e-07
5.08559e-08
5.25499e-08
-2.42196e-06
6.3917e-06
-2.23616e-05
-2.08655e-05
2.45741e-06
-2.39155e-06
2.14761e-05
4.97865e-06
2.27416e-05
5.70983e-06
2.90702e-06
-4.17354e-06
-2.32293e-05
1.01299e-06
-2.28509e-05
3.16339e-06
-3.14077e-06
2.30204e-05
3.14069e-06
3.85098e-08
6.57033e-09
-3.15628e-08
-3.63459e-08
1.14932e-06
5.05645e-08
2.27449e-07
2.89975e-07
-2.16023e-06
8.89856e-08
2.33303e-06
5.62322e-07
4.07741e-07
-2.96478e-06
3.96688e-09
5.73781e-10
-3.04489e-09
-1.94349e-08
1.81933e-08
6.86837e-09
-1.71654e-08
-3.84524e-07
4.01013e-08
3.1423e-07
1.13955e-07
-8.35694e-09
1.04436e-07
1.46399e-07
-7.89349e-08
-1.20451e-07
-5.22524e-07
-6.79759e-07
4.37223e-07
8.45782e-08
-4.7088e-08
-3.32952e-07
6.09495e-07
-1.57872e-09
1.55005e-09
4.47904e-11
3.8503e-08
-2.97055e-08
8.23833e-10
-3.63405e-08
1.23867e-06
3.78998e-07
2.54242e-07
3.12978e-07
3.244e-07
-2.56228e-06
1.12606e-06
-1.90461e-09
8.78936e-09
1.0195e-08
-2.06819e-09
2.43768e-07
4.35328e-07
2.49788e-07
3.06579e-07
-2.04757e-07
3.03807e-06
2.17058e-06
-4.06537e-06
4.46407e-07
2.41948e-06
4.87703e-07
5.75662e-07
4.25718e-07
6.33921e-07
-3.31451e-06
2.18103e-06
-5.68187e-09
-8.98087e-09
6.41449e-09
-1.87105e-08
3.47828e-07
5.63134e-07
5.34992e-07
4.13785e-07
4.01983e-09
-2.99678e-09
-2.21262e-10
-2.13299e-08
1.28772e-08
1.92832e-08
-5.9146e-08
-3.20633e-08
1.88646e-08
6.5145e-09
-3.42875e-08
4.06262e-08
-3.44141e-06
5.3068e-07
1.55274e-06
1.25713e-06
-6.4863e-06
2.46661e-07
7.59156e-07
9.87848e-07
-4.44868e-06
6.9144e-08
-6.74561e-08
1.89958e-09
-8.90645e-08
-2.12531e-08
8.30603e-09
1.91977e-08
2.00561e-07
1.30163e-07
-1.77381e-07
-7.09328e-07
-1.64087e-06
8.02717e-07
2.73308e-07
1.57805e-06
-7.17567e-07
-2.38333e-07
-8.6281e-07
1.20414e-07
-8.15019e-08
7.9523e-07
5.3527e-07
-5.90206e-08
3.26779e-08
-3.18727e-08
4.19072e-08
-3.26402e-08
1.58037e-09
4.06376e-08
-3.82558e-07
4.46368e-06
-5.40107e-06
6.3786e-07
-3.50555e-06
4.46809e-06
1.31168e-06
1.55187e-06
1.25894e-06
1.60196e-06
-6.70262e-06
-3.14326e-06
3.99821e-06
-1.1971e-07
-1.82291e-07
-1.25799e-07
-1.6844e-07
9.3661e-07
1.34488e-06
1.54652e-06
1.24658e-06
1.0466e-06
7.68081e-07
8.24587e-07
9.9299e-07
-4.72691e-06
-7.60735e-08
-3.69548e-08
-4.28045e-08
-7.62835e-08
5.81255e-07
7.52824e-07
1.08749e-06
9.81352e-07
6.91261e-08
-6.74381e-08
-9.45442e-08
2.09445e-08
9.16429e-08
-9.0455e-08
-4.75783e-09
-1.73886e-07
7.07738e-08
1.44882e-09
-9.3664e-08
-1.17341e-07
4.33824e-08
-4.28095e-08
9.2456e-08
-1.96348e-06
3.38091e-07
1.90572e-06
-3.02845e-07
8.78452e-07
2.8784e-07
7.43863e-07
-2.68464e-07
-7.50482e-07
-2.9868e-06
-6.21826e-08
3.34472e-08
4.48007e-08
-3.10929e-06
1.08214e-06
5.29729e-07
-5.00102e-07
-1.01763e-06
3.05749e-06
9.16872e-08
-9.05069e-08
-1.90049e-07
5.01816e-08
5.30116e-06
2.28311e-06
1.88356e-06
1.93315e-06
2.23609e-06
-9.16818e-06
4.74104e-06
-2.80699e-07
-2.44748e-07
-2.24296e-07
-3.09539e-07
1.3724e-06
1.87837e-06
2.32114e-06
2.24017e-06
-1.4652e-06
1.19349e-05
5.42822e-06
-1.24618e-05
1.67988e-06
7.07617e-08
-9.97847e-08
2.26749e-08
6.0059e-06
2.67105e-06
3.02616e-06
2.62396e-06
3.07103e-06
-1.20552e-05
5.37188e-06
-3.40689e-07
-4.40644e-07
-3.75922e-07
-3.97351e-07
1.83748e-06
3.043e-06
2.6995e-06
2.62895e-06
-1.21876e-07
3.02476e-08
4.41077e-08
-1.89362e-07
-5.01885e-08
5.07408e-08
-4.90978e-09
-1.79947e-07
9.28303e-08
1.06418e-07
-1.05692e-07
-4.86177e-09
-2.79775e-07
-1.21478e-07
9.58272e-08
4.39142e-08
8.23205e-07
3.0838e-07
-8.33184e-07
-3.42132e-06
-4.93446e-06
1.27463e-06
7.61318e-07
4.89646e-06
-1.23075e-06
-7.29512e-07
-3.53388e-06
5.9503e-07
-5.63615e-07
3.48874e-06
1.13503e-06
-1.88656e-07
5.04901e-08
-5.0128e-08
1.4534e-07
-1.96764e-07
5.20784e-08
9.28237e-08
-1.86097e-06
1.52493e-05
-1.55956e-05
2.0643e-06
-6.58452e-06
7.04292e-06
4.41824e-06
4.84878e-06
4.37342e-06
4.89153e-06
-1.87948e-05
-5.89176e-06
6.30441e-06
-5.55714e-07
-6.66957e-07
-6.17489e-07
-5.98326e-07
2.70175e-06
4.44832e-06
4.90033e-06
4.40988e-06
3.94613e-06
3.45981e-06
3.50556e-06
3.90229e-06
-1.52888e-05
-5.05773e-07
-5.03609e-07
-4.54559e-07
-5.6248e-07
2.29017e-06
3.47902e-06
3.98633e-06
3.93572e-06
1.06589e-07
-1.05858e-07
-3.04342e-07
7.79872e-08
1.14845e-07
-1.14493e-07
3.8446e-09
-3.99889e-07
1.07112e-07
-4.50648e-09
-2.87003e-07
-2.67798e-07
5.44658e-08
-5.42799e-08
1.94345e-07
-5.42428e-06
8.12426e-07
5.39426e-06
-7.75857e-07
1.30574e-06
4.02992e-07
1.25365e-06
-3.95877e-07
-1.27406e-06
-6.90716e-06
-1.93428e-07
5.08085e-08
1.48575e-07
-6.96952e-06
1.38558e-06
9.20564e-07
-8.77365e-07
-1.36088e-06
6.94874e-06
1.14905e-07
-1.14549e-07
-4.2861e-07
1.00109e-07
7.38509e-06
5.8899e-06
5.34884e-06
5.39266e-06
5.84816e-06
-2.25008e-05
6.6164e-06
-6.7144e-07
-7.11231e-07
-6.38732e-07
-7.49411e-07
3.05196e-06
5.40367e-06
5.93442e-06
5.91948e-06
-2.72612e-06
2.66333e-05
6.91693e-06
-2.62833e-05
2.96021e-06
1.07286e-07
-3.11942e-07
7.95945e-08
7.61726e-06
6.41139e-06
6.88447e-06
6.369e-06
6.92415e-06
-2.63251e-05
6.82964e-06
-7.01972e-07
-8.10706e-07
-7.82478e-07
-7.2589e-07
3.33156e-06
6.97709e-06
6.44356e-06
6.44417e-06
-2.7338e-07
8.6618e-08
5.45835e-08
4.63005e-09
-4.07772e-07
1.15022e-07
-2.72904e-07
1.97313e-07
5.46094e-08
1.29e-06
4.12214e-07
-1.31085e-06
-7.44183e-06
-7.48859e-06
9.51202e-07
-9.02059e-07
7.47818e-06
1.39643e-06
-4.36621e-07
1.014e-07
1.15231e-07
-2.90269e-06
3.06328e-05
-2.99631e-05
3.15684e-06
7.97094e-06
7.41731e-06
7.45656e-06
7.93588e-06
-3.01532e-05
-7.68588e-07
-8.35544e-07
-7.4934e-07
-8.57918e-07
3.55082e-06
7.515e-06
8.01784e-06
8.05514e-06
-9.68439e-09
-9.3557e-09
1.07854e-08
8.07765e-09
-8.26348e-09
-8.56772e-09
7.30814e-09
-3.86806e-08
-9.03753e-08
3.93275e-08
2.36177e-08
-8.66544e-08
-3.79964e-08
2.29471e-08
-5.29351e-08
-2.32762e-07
5.3165e-08
6.83847e-08
-2.28031e-07
-5.25815e-08
6.62147e-08
-5.08656e-07
-1.68476e-08
6.64526e-07
1.11946e-07
1.29539e-07
1.08831e-07
1.3315e-07
-2.05454e-08
2.28459e-08
5.10672e-09
-1.60676e-08
-3.40844e-07
-2.3641e-08
9.1294e-08
7.27709e-08
7.44387e-08
8.90394e-08
-1.82277e-08
4.67446e-09
-1.43026e-08
1.73488e-07
-1.14981e-08
3.43458e-08
2.86329e-08
3.43828e-08
2.86691e-08
-1.93716e-08
4.54849e-08
5.75194e-08
5.82572e-08
4.52246e-08
5.22858e-08
-5.09952e-08
-1.3166e-09
3.77129e-09
-5.66792e-08
6.34005e-08
-4.57206e-07
-4.97628e-07
5.94906e-07
1.13649e-08
4.18121e-09
6.80356e-09
9.30355e-09
7.52029e-09
9.26164e-08
1.20743e-07
9.79564e-08
1.14587e-07
-9.72047e-09
-9.35183e-09
1.08085e-08
5.43288e-10
-3.12673e-07
-3.42613e-07
1.26355e-08
9.57036e-09
1.29e-08
8.9855e-09
-1.1332e-08
7.34742e-08
6.239e-08
7.97251e-08
5.6651e-08
1.09737e-07
9.82953e-08
9.4255e-09
-8.71327e-08
-7.07873e-09
-1.1412e-07
4.06709e-08
-3.87164e-08
-1.41663e-09
4.20334e-09
3.33185e-08
-3.07934e-08
1.03908e-09
7.19269e-10
2.80128e-09
-7.65895e-09
1.08857e-08
6.59639e-09
-2.71158e-08
-8.1286e-09
-4.76118e-09
-1.60972e-08
-3.10623e-09
1.05989e-08
1.22107e-08
4.61897e-09
8.14884e-10
2.25792e-09
4.6563e-08
5.06254e-08
2.22266e-08
2.92823e-08
-2.87786e-08
-1.94657e-08
-9.72347e-08
1.0829e-08
-4.02121e-08
-9.22944e-09
1.3757e-08
7.88737e-08
1.30882e-08
-6.97952e-08
-9.22977e-09
1.03033e-07
-3.03298e-09
5.37295e-09
-4.29399e-08
-3.87075e-08
-8.26721e-09
-8.61874e-09
1.56458e-10
1.62056e-07
-1.54825e-07
8.21772e-09
4.7054e-09
6.22941e-09
6.3016e-09
-1.56208e-08
2.10613e-08
2.43221e-08
2.89661e-08
1.54709e-08
-2.26743e-07
1.06287e-08
9.49163e-09
1.22403e-08
8.14615e-09
-1.71521e-08
3.05177e-08
4.90362e-08
4.2486e-08
3.71849e-08
-3.7875e-09
1.32969e-08
5.10137e-09
-1.93041e-08
1.52234e-08
3.95207e-07
5.0466e-07
-3.40424e-07
-5.19268e-07
-5.43339e-09
6.73826e-07
1.14581e-07
1.30221e-07
1.09756e-07
1.35092e-07
-5.1907e-07
-5.46915e-07
6.73629e-07
5.04631e-09
2.64877e-09
5.03853e-09
3.13143e-09
-2.06219e-08
2.29169e-08
-1.39931e-08
-1.75676e-09
-3.52601e-07
9.4678e-08
7.41058e-08
9.01725e-08
7.86366e-08
-3.54362e-07
6.47744e-09
7.55018e-09
7.11803e-09
6.7105e-09
6.5318e-07
1.46051e-08
2.82554e-07
-1.76399e-07
-1.83135e-08
-1.23698e-08
-1.77623e-09
1.83841e-07
-9.81241e-09
4.17067e-08
3.0628e-08
3.63e-08
3.6553e-08
1.84864e-07
-2.19256e-07
3.98678e-09
3.48925e-09
4.68663e-09
3.07137e-09
5.18078e-08
5.90698e-08
4.69675e-08
6.3542e-08
5.33161e-09
7.49712e-09
6.2389e-09
6.42183e-09
2.60561e-08
-3.66025e-08
-2.5127e-08
1.57653e-08
-3.91382e-08
2.6954e-08
1.61679e-08
8.19866e-07
1.46539e-09
1.84705e-07
1.54486e-07
1.59007e-07
1.79787e-07
5.48202e-08
-5.28831e-08
5.14909e-09
-5.65835e-08
9.57925e-07
3.08823e-08
2.15305e-07
2.3911e-07
2.45269e-07
2.09489e-07
5.672e-08
4.86236e-09
-6.02728e-08
-1.09619e-06
1.14879e-07
1.21405e-06
3.54619e-07
3.84063e-07
3.46247e-07
3.92731e-07
6.92426e-08
3.14811e-07
2.73623e-07
2.80712e-07
3.07445e-07
2.22498e-07
1.4119e-07
3.49613e-08
-1.3129e-07
-3.32802e-08
-2.26262e-07
7.26659e-07
-6.93242e-07
2.77592e-09
-1.4827e-10
6.34487e-09
-4.58794e-09
3.96355e-08
1.65912e-07
1.43833e-07
1.38831e-07
1.71957e-07
2.58987e-08
-3.65174e-08
-2.49773e-08
2.14347e-08
1.34008e-07
1.47787e-08
1.09784e-07
-1.25295e-08
-1.38234e-07
8.50569e-07
-9.28028e-07
-1.54879e-09
-1.66755e-08
-6.28975e-09
-1.07521e-08
8.3207e-08
1.9511e-07
2.33002e-07
1.99772e-07
2.27075e-07
-1.13648e-07
-2.56474e-07
4.86404e-08
2.48236e-07
-4.30857e-08
1.22062e-07
4.36846e-08
1.08996e-07
-1.12759e-07
-4.11789e-08
-3.60877e-07
-3.31508e-08
7.5444e-08
-2.44736e-07
3.59008e-08
-7.73148e-08
-3.72441e-07
1.44819e-07
7.57354e-08
-1.37678e-07
3.62668e-07
-6.89003e-08
4.03359e-08
2.14473e-07
-1.0554e-07
-3.5196e-08
3.72143e-08
-3.70857e-08
2.50642e-08
-1.21738e-07
6.49542e-08
-2.10424e-07
-3.0535e-08
-6.6347e-08
1.88987e-08
8.81163e-08
-1.47331e-08
1.27142e-07
4.2909e-08
-4.14065e-08
-2.59988e-07
1.51637e-07
-3.90513e-08
2.67899e-08
2.37339e-08
-9.67811e-07
-1.50813e-06
1.07665e-06
-2.32925e-08
-4.80505e-08
-4.01652e-08
-2.94293e-08
1.96368e-07
3.35734e-07
3.82136e-07
3.39672e-07
3.76544e-07
-1.20064e-06
-1.7227e-08
-2.43205e-08
-1.16416e-08
-3.13867e-08
1.36416e-07
2.97496e-07
2.65251e-07
2.6095e-07
3.03249e-07
1.79418e-07
6.90118e-08
-1.70799e-07
-6.82721e-08
-3.75346e-07
-8.05877e-07
-4.90938e-08
9.67343e-07
9.37288e-07
1.63359e-08
8.28092e-07
1.85206e-07
1.54876e-07
1.60135e-07
1.79878e-07
-7.38663e-07
8.24915e-07
-3.74723e-09
-1.61303e-09
-1.95843e-10
-5.84944e-09
5.47972e-08
-5.28632e-08
-5.74841e-08
8.91057e-09
9.65857e-07
2.15154e-07
2.3857e-07
2.09265e-07
2.44579e-07
9.63294e-07
-8.72693e-09
-1.77779e-08
-1.2016e-08
-1.36537e-08
-9.15777e-08
1.23362e-06
1.07545e-06
5.66963e-08
-6.16656e-08
1.02602e-08
-1.10394e-06
1.41136e-07
1.22242e-06
3.52121e-07
3.81964e-07
3.44585e-07
3.89629e-07
-1.09847e-06
-1.53268e-06
1.21882e-06
-3.35134e-08
-4.93711e-08
-4.14946e-08
-4.03755e-08
3.12954e-07
2.72727e-07
3.0619e-07
2.79357e-07
-2.60521e-08
-2.55231e-08
-3.25023e-08
-2.00328e-08
1.18804e-06
-8.13742e-08
8.27587e-08
-2.31894e-09
-1.33862e-07
-1.53645e-06
3.25658e-07
1.6178e-06
7.25819e-07
7.62109e-07
7.11797e-07
7.7645e-07
-1.43333e-06
2.72951e-07
6.71312e-07
6.10772e-07
6.23289e-07
6.58541e-07
-7.99558e-08
-1.91555e-09
-1.28451e-07
1.33379e-06
1.65734e-07
4.78787e-07
4.27344e-07
4.37019e-07
4.68871e-07
2.19056e-07
5.26677e-07
5.60339e-07
5.71708e-07
5.15621e-07
-2.12911e-07
6.03948e-07
1.16275e-07
-1.16982e-07
-6.0551e-07
2.21176e-07
-3.85006e-08
-8.99056e-08
3.91495e-08
6.94418e-08
-1.35926e-06
-3.04109e-06
1.43795e-06
-7.40551e-08
-1.21692e-07
-1.13497e-07
-7.97283e-08
4.61601e-07
7.11531e-07
7.70955e-07
7.13959e-07
7.66212e-07
-1.2723e-06
-2.61776e-06
-6.79151e-08
-9.48713e-08
-6.17928e-08
-1.03364e-07
3.95919e-07
6.59013e-07
6.10141e-07
6.07341e-07
6.6397e-07
7.6335e-07
2.4173e-07
1.43918e-07
-2.35624e-07
-1.45671e-07
-7.64109e-07
-5.54396e-07
1.7237e-07
1.14456e-07
-1.05623e-07
-1.66184e-07
5.42486e-07
1.20833e-07
-1.2519e-07
-4.03677e-07
4.6375e-08
-4.14843e-07
8.53242e-08
1.52382e-07
4.04811e-07
-7.79791e-08
5.38837e-08
1.56508e-07
-5.43365e-07
-5.14864e-08
-1.63208e-07
1.06726e-07
-1.07166e-07
-2.05561e-07
-5.56293e-07
-8.62095e-08
-3.78127e-08
6.62038e-08
1.17869e-06
-1.84878e-06
-4.22989e-08
-5.76411e-08
-3.59139e-08
-6.60095e-08
2.61372e-07
4.63557e-07
4.22377e-07
4.18816e-07
4.68953e-07
7.83398e-08
1.88772e-07
-7.78196e-08
-4.17445e-07
-2.21922e-06
-4.89194e-08
-8.46328e-08
-5.52967e-08
-7.60632e-08
3.28337e-07
5.09557e-07
5.63134e-07
5.57928e-07
5.12753e-07
1.24175e-07
-1.14768e-07
5.91724e-07
1.79085e-07
6.36253e-08
2.03055e-07
-2.13285e-07
-6.13845e-08
-7.52853e-07
1.68528e-07
-5.93376e-07
-1.75943e-07
5.64966e-08
1.96332e-07
1.52349e-07
-1.9109e-07
-1.41234e-07
7.48975e-07
-3.13366e-07
2.61552e-06
1.51058e-06
-1.40431e-06
-8.14069e-08
8.27977e-08
-1.45373e-07
3.71249e-08
-1.54651e-06
3.71231e-07
1.62856e-06
7.18291e-07
7.56431e-07
7.06454e-07
7.68494e-07
-1.54016e-06
-3.0275e-06
1.62486e-06
-9.75057e-08
-1.25329e-07
-1.16945e-07
-1.04782e-07
-1.44294e-06
6.64385e-07
6.06288e-07
6.53631e-07
6.16849e-07
-1.43912e-06
-8.87023e-08
-9.75689e-08
-1.06254e-07
-8.11684e-08
1.58659e-06
-1.31023e-06
-2.54192e-07
2.226e-06
-7.99794e-08
-1.39282e-07
3.52222e-08
1.96399e-07
1.34276e-06
4.74289e-07
4.24737e-07
4.33129e-07
4.65773e-07
-1.86546e-06
1.33683e-06
-5.59869e-08
-5.92735e-08
-4.86289e-08
-6.77231e-08
5.21504e-07
5.56325e-07
5.12049e-07
5.65971e-07
-6.47065e-08
-8.68467e-08
-7.81828e-08
-7.22698e-08
4.75366e-08
-1.51965e-07
-4.70719e-08
3.83995e-08
-1.56463e-07
4.79487e-08
3.98026e-08
1.704e-06
3.75539e-07
8.86936e-07
8.183e-07
8.33904e-07
8.71118e-07
1.00042e-07
-9.90853e-08
-5.80483e-09
-2.24502e-07
1.76817e-06
4.21734e-07
9.46812e-07
9.84515e-07
1.00207e-06
9.2964e-07
1.00926e-07
-5.75025e-09
-2.31221e-07
-1.83838e-06
5.00224e-07
1.88644e-06
1.18607e-06
1.22428e-06
1.16548e-06
1.24525e-06
4.63296e-07
1.12177e-06
1.04554e-06
1.06445e-06
1.10263e-06
9.94493e-07
2.65812e-07
1.77593e-07
-2.60957e-07
-1.80593e-07
-9.93994e-07
1.51009e-06
-3.48749e-06
-9.03748e-08
-1.31522e-07
-8.5333e-08
-1.3921e-07
5.24732e-07
8.7892e-07
8.2356e-07
8.21531e-07
8.83372e-07
4.73622e-08
-1.51713e-07
-4.68979e-08
1.19184e-07
8.18847e-07
1.52839e-07
2.48882e-07
-1.54851e-07
-8.19227e-07
1.57408e-06
-3.95395e-06
-9.52822e-08
-1.55635e-07
-9.956e-08
-1.48561e-07
5.83415e-07
9.3677e-07
1.00077e-06
9.38391e-07
9.96564e-07
-2.16587e-07
-1.05476e-06
1.94348e-07
1.03733e-06
-1.79705e-07
2.21518e-07
8.05216e-08
2.84571e-07
-3.01279e-07
-7.88339e-08
-1.23419e-06
-7.26144e-08
2.56651e-07
-1.04551e-06
7.48663e-08
-2.70945e-07
-1.24329e-06
2.33108e-07
2.15694e-07
-2.29789e-07
1.22335e-06
-1.98342e-07
1.86525e-07
9.77415e-07
-2.12317e-07
-1.727e-07
2.14394e-07
-2.25395e-07
6.61001e-08
-8.08867e-07
2.46452e-07
-9.84664e-07
-7.06094e-08
-2.6005e-07
1.61396e-07
2.02165e-07
-1.49593e-07
8.04138e-07
1.85343e-07
-1.88548e-07
-1.05386e-06
2.7184e-07
-1.56209e-07
4.77839e-08
1.22535e-07
-1.63184e-06
-4.93994e-06
1.68206e-06
-1.10315e-07
-1.84254e-07
-1.78725e-07
-1.12863e-07
6.85795e-07
1.18068e-06
1.24802e-06
1.18144e-06
1.24448e-06
-4.43915e-06
-1.07092e-07
-1.64381e-07
-1.03667e-07
-1.70711e-07
6.375e-07
1.11862e-06
1.05787e-06
1.05666e-06
1.12246e-06
2.85224e-07
2.06363e-07
-2.81573e-07
-2.10121e-07
-1.24141e-06
-1.67703e-06
-4.78991e-07
3.91765e-06
1.73591e-06
4.27166e-07
1.71532e-06
8.7812e-07
8.12245e-07
8.25436e-07
8.64683e-07
-3.46378e-06
1.70919e-06
-1.20136e-07
-1.35767e-07
-1.1332e-07
-1.4372e-07
1.00044e-07
-9.90925e-08
-2.45447e-07
6.46766e-08
1.7802e-06
9.37492e-07
9.77505e-07
9.22851e-07
9.92422e-07
1.77667e-06
-1.28236e-07
-1.6113e-07
-1.53757e-07
-1.34524e-07
-5.26996e-07
4.39194e-06
1.81107e-06
1.00948e-07
-2.52699e-07
6.64699e-08
-1.85089e-06
5.69591e-07
1.89973e-06
1.17518e-06
1.21608e-06
1.15753e-06
1.23398e-06
-1.84476e-06
-4.87976e-06
1.89649e-06
-1.54645e-07
-1.92127e-07
-1.86199e-07
-1.59613e-07
1.11137e-06
1.03823e-06
1.09498e-06
1.05435e-06
-1.47738e-07
-1.70638e-07
-1.7736e-07
-1.42106e-07
1.85399e-06
-1.1144e-07
1.11962e-07
-7.73662e-10
-3.4602e-07
-2.01586e-06
5.95551e-07
2.0355e-06
1.70192e-06
1.7376e-06
1.67444e-06
1.76547e-06
-1.97486e-06
5.78282e-07
1.63215e-06
1.54355e-06
1.56942e-06
1.60613e-06
-1.10785e-07
-1.43828e-09
-3.38495e-07
1.9419e-06
5.31341e-07
1.37157e-06
1.289e-06
1.31134e-06
1.34899e-06
5.5749e-07
1.43887e-06
1.47616e-06
1.50062e-06
1.4148e-06
-3.00135e-07
1.57175e-06
2.32679e-07
-2.37444e-07
-1.56803e-06
3.04047e-07
-5.28307e-08
-2.32512e-07
5.30553e-08
1.73489e-07
-1.79592e-06
-7.06347e-06
1.82137e-06
-1.19454e-07
-2.23163e-07
-2.20588e-07
-1.18769e-07
8.18067e-07
1.70737e-06
1.7782e-06
1.70625e-06
1.77622e-06
-1.76383e-06
-6.51871e-06
-1.19587e-07
-2.12291e-07
-1.19612e-07
-2.15461e-07
7.93692e-07
1.63994e-06
1.57142e-06
1.57201e-06
1.6423e-06
1.77666e-06
3.1089e-07
2.43705e-07
-3.09438e-07
-2.4919e-07
-1.77187e-06
-1.50522e-06
2.45946e-07
2.37702e-07
-2.16691e-07
-2.43537e-07
1.48229e-06
2.93149e-07
-3.10499e-07
-1.29877e-06
8.24904e-08
-1.30719e-06
2.21919e-07
2.37129e-07
1.28692e-06
-2.03619e-07
8.71e-08
3.15277e-07
-1.497e-06
-8.57973e-08
-3.35258e-07
2.28243e-07
-2.32823e-07
-2.97619e-07
-1.50191e-06
-2.2754e-07
-5.25625e-08
1.70402e-07
1.72656e-06
-5.45506e-06
-1.16822e-07
-1.91509e-07
-1.15193e-07
-1.96175e-07
7.28181e-07
1.37362e-06
1.30854e-06
1.30821e-06
1.37679e-06
2.12559e-07
2.90163e-07
-2.16454e-07
-1.3049e-06
-5.98169e-06
-1.1826e-07
-2.06532e-07
-1.1901e-07
-2.02634e-07
7.6397e-07
1.43883e-06
1.50843e-06
1.5056e-06
1.43871e-06
2.42107e-07
-2.20165e-07
1.54849e-06
2.4908e-07
9.2123e-08
3.38722e-07
-3.62246e-07
-9.12684e-08
-1.7692e-06
3.21906e-07
-1.56425e-06
-3.42627e-07
8.87275e-08
2.55244e-07
2.53079e-07
-2.53727e-07
-2.28344e-07
1.75063e-06
-6.6713e-07
6.42192e-06
1.98891e-06
-1.94238e-06
-1.11489e-07
1.11989e-07