/*--------------------------------*- C++ -*----------------------------------*\
| =========                 |                                                 |
| \\      /  F ield         | OpenFOAM: The Open Source CFD Toolbox           |
|  \\    /   O peration     | Version:  2012                                  |
|   \\  /    A nd           | Website:  www.openfoam.com                      |
|    \\/     M anipulation  |                                                 |
\*---------------------------------------------------------------------------*/
FoamFile
{
    version     2.0;
    format      ascii;
    class       volVectorField;
    location    "0.105/fluid";
    object      U;
}
// * * * * * * * * * * * * * * * * * * * * * * * * * * * * * * * * * * * * * //

dimensions      [0 1 -1 0 0 0 0];


internalField   nonuniform List<vector> 
16422
(
(1.25386 -0.0460028 -0.00503491)
(1.20933 -0.0114394 0.00625615)
(1.20243 -0.0124455 0.00194506)
(1.19869 -0.00788909 0.000222052)
(1.1982 -0.0054318 -0.000205512)
(1.19839 -0.00360397 -0.000183418)
(1.19864 -0.00234631 -0.000118462)
(1.19886 -0.00150994 -7.69422e-05)
(1.19904 -0.000966159 -5.42417e-05)
(1.19919 -0.000613076 -4.17001e-05)
(1.19932 -0.000386718 -3.13153e-05)
(1.19942 -0.000243566 -2.73645e-05)
(1.19952 -0.000152115 -2.65223e-05)
(1.1996 -9.29406e-05 -2.51242e-05)
(1.19968 -5.06959e-05 -2.68234e-05)
(1.21892 -0.00657444 3.58527e-05)
(1.21233 -0.0131752 0.000874222)
(1.2056 -0.00876767 0.000228041)
(1.20164 -0.00564006 -0.000137745)
(1.20025 -0.00380726 -0.000184466)
(1.19975 -0.00256934 -0.000142467)
(1.19951 -0.00170626 -9.70531e-05)
(1.1994 -0.00111783 -6.99155e-05)
(1.19937 -0.000724772 -5.20739e-05)
(1.19939 -0.000463426 -4.0462e-05)
(1.19943 -0.000295488 -3.32778e-05)
(1.19948 -0.000186774 -3.0721e-05)
(1.19955 -0.000119729 -2.85948e-05)
(1.19962 -7.21027e-05 -2.82807e-05)
(1.1997 -3.82173e-05 -3.10085e-05)
(1.21255 -0.00188261 4.38127e-05)
(1.21021 -0.004446 0.000161702)
(1.20621 -0.00368751 6.95421e-06)
(1.20319 -0.00258926 -9.77551e-05)
(1.20155 -0.00182284 -0.000117846)
(1.20062 -0.0012516 -0.000102028)
(1.20007 -0.00084187 -7.85241e-05)
(1.19975 -0.00055688 -6.08018e-05)
(1.19959 -0.000360492 -4.98394e-05)
(1.19952 -0.000228436 -4.10263e-05)
(1.19952 -0.000144016 -3.37809e-05)
(1.19954 -8.76004e-05 -3.18567e-05)
(1.19958 -5.0281e-05 -2.85545e-05)
(1.19963 -2.25713e-05 -3.02256e-05)
(1.19971 -7.6815e-06 -3.33028e-05)
(1.25368 -0.0295695 -0.00131998)
(1.2096 -0.0314585 -0.00278712)
(1.20559 -0.00853074 -0.00265418)
(1.2016 -0.00695477 -0.0018249)
(1.20008 -0.00511857 -0.00122254)
(1.19973 -0.00345719 -0.000842606)
(1.19968 -0.00226326 -0.000587042)
(1.19972 -0.00146422 -0.000402371)
(1.19978 -0.0009426 -0.000273133)
(1.19984 -0.000601501 -0.00018365)
(1.19989 -0.000381939 -0.00012317)
(1.19993 -0.000241179 -8.2539e-05)
(1.19996 -0.000151061 -5.32882e-05)
(1.19998 -9.20428e-05 -3.03702e-05)
(1.19999 -5.09168e-05 -1.62166e-05)
(1.21952 -0.00654004 7.16968e-05)
(1.21381 -0.0138791 -0.000859303)
(1.20762 -0.00820752 -0.00114391)
(1.20357 -0.00526992 -0.00104515)
(1.20181 -0.00361664 -0.000826046)
(1.20101 -0.00245788 -0.000625979)
(1.20056 -0.00164287 -0.000462642)
(1.2003 -0.00108382 -0.000331206)
(1.20016 -0.000706022 -0.00023308)
(1.20009 -0.000454399 -0.000162516)
(1.20005 -0.000290485 -0.00011235)
(1.20004 -0.000185105 -7.56601e-05)
(1.20003 -0.000117765 -4.8447e-05)
(1.20003 -7.06449e-05 -2.74089e-05)
(1.20003 -3.83837e-05 -1.3319e-05)
(1.21309 -0.00193838 0.000111513)
(1.21113 -0.00443243 -0.000428113)
(1.20752 -0.00355895 -0.0006778)
(1.20459 -0.00246304 -0.000701285)
(1.20286 -0.0017338 -0.000617206)
(1.20178 -0.00119639 -0.000500494)
(1.20109 -0.000810183 -0.000386745)
(1.20067 -0.000538883 -0.000287414)
(1.20041 -0.000351632 -0.000207979)
(1.20025 -0.000225457 -0.000148717)
(1.20017 -0.000141597 -0.000104382)
(1.20011 -8.51835e-05 -7.15001e-05)
(1.20008 -4.85014e-05 -4.58507e-05)
(1.20006 -2.26259e-05 -2.55339e-05)
(1.20006 -7.65348e-06 -1.17347e-05)
(1.25128 -0.0269515 0.000775393)
(1.20879 -0.0336193 -0.00377805)
(1.20456 -0.00798199 -0.00430608)
(1.2018 -0.00625079 -0.00305373)
(1.20061 -0.00457837 -0.00206551)
(1.2002 -0.00311746 -0.00144266)
(1.20002 -0.00206886 -0.00100506)
(1.19996 -0.00135353 -0.000693276)
(1.19995 -0.00088131 -0.0004727)
(1.19996 -0.000568206 -0.000318889)
(1.19997 -0.000365408 -0.000213239)
(1.19999 -0.000232233 -0.000144662)
(1.2 -0.000146227 -9.48345e-05)
(1.2 -8.95836e-05 -5.94915e-05)
(1.20001 -4.83465e-05 -3.48194e-05)
(1.21812 -0.00629141 0.000457116)
(1.21288 -0.0134185 -0.00133596)
(1.20722 -0.00756923 -0.00199927)
(1.20373 -0.00470041 -0.00181538)
(1.20214 -0.00321819 -0.00143636)
(1.20132 -0.00221681 -0.00108493)
(1.20081 -0.00150099 -0.000797564)
(1.2005 -0.00100314 -0.000574737)
(1.20031 -0.000660138 -0.000405306)
(1.20019 -0.000429995 -0.000281325)
(1.20012 -0.000277755 -0.000194046)
(1.20008 -0.000178351 -0.000134117)
(1.20007 -0.000113223 -8.88069e-05)
(1.20005 -6.83047e-05 -5.6324e-05)
(1.20005 -3.60159e-05 -3.22693e-05)
(1.21231 -0.00187768 0.000201309)
(1.21053 -0.00408854 -0.000714489)
(1.2073 -0.00320382 -0.00118454)
(1.20467 -0.00218342 -0.00123116)
(1.20304 -0.0015473 -0.00107373)
(1.20198 -0.00108115 -0.000866143)
(1.20128 -0.000741247 -0.000668104)
(1.20082 -0.000499062 -0.000499456)
(1.20053 -0.000328875 -0.000362014)
(1.20035 -0.000212749 -0.000257106)
(1.20023 -0.000133204 -0.000180431)
(1.20016 -8.07969e-05 -0.000128158)
(1.20011 -4.69753e-05 -8.67906e-05)
(1.20009 -2.17005e-05 -5.54468e-05)
(1.20007 -6.26487e-06 -3.03716e-05)
(0.959881 -0.159888 -0.0384537)
(1.1968 0.00214239 0.00967117)
(1.31864 -0.0774497 -0.00804439)
(1.19268 -0.0170767 0.00664665)
(1.31959 -0.0764201 0.00853921)
(1.18216 -0.00757409 -0.00341916)
(1.31436 -0.0766874 -0.0100062)
(1.18758 -0.0123198 -0.00127839)
(1.31323 -0.0769407 0.00707689)
(1.18399 -0.00982147 -0.00529334)
(0.299304 0.0710166 -0.0320843)
(0.126226 0.0618365 -0.00892848)
(1.19668 -0.00229885 0.01774)
(1.19082 -0.0155787 0.004097)
(1.19594 -0.0240315 0.00535412)
(1.19089 -0.022408 -0.00176154)
(1.20683 -0.0188946 0.00368362)
(1.23091 -0.00463246 0.000188332)
(1.21009 -0.00588107 0.00176821)
(1.25577 -0.0288679 -0.00287335)
(1.2118 -0.0562863 0.00046655)
(1.23314 -0.00350982 0.000499341)
(1.21278 -0.00780203 0.000381716)
(0.30412 0.0730333 -0.00370303)
(0.296075 0.0702254 -0.00966892)
(1.19207 -0.00831156 -0.00407503)
(1.19548 -0.011993 -0.00448419)
(1.19291 -0.0163264 -0.00126774)
(1.19232 -0.0165205 -0.00249161)
(1.20701 -0.0491372 -0.00249051)
(1.23223 -0.0027933 0.00019139)
(1.2119 -0.00593517 -0.000755518)
(1.25241 -0.0277229 0.00125974)
(1.2089 -0.0526723 -0.000663212)
(1.2309 -0.00321401 -0.000476439)
(1.21169 -0.00665969 -0.00171535)
(0.300453 0.0748398 -0.00192906)
(0.297988 0.0729058 -0.00202007)
(1.19064 -0.0117846 -0.00604272)
(1.1936 -0.012618 -0.00609113)
(1.20654 -0.0503135 -0.00286453)
(1.22996 -0.00322629 -0.00108682)
(1.21125 -0.00602562 -0.00291982)
(0.568107 0.132877 -0.0477685)
(1.12423 0.0604711 -0.00419012)
(1.14987 -0.00990406 -0.0377146)
(0.399324 0.179187 -0.0258039)
(0.315002 -0.074282 0.00273147)
(1.07535 -0.083698 -0.106422)
(1.32892 -0.092809 -0.0115987)
(1.2247 -0.078443 -0.0218557)
(0.188822 -0.0494286 -0.0302013)
(0.60157 -0.1456 0.00553104)
(1.18357 -0.00887331 0.024419)
(1.22683 -0.0259725 -0.0311051)
(1.19612 -0.0174577 0.0280174)
(1.19947 -0.0463756 0.0170527)
(1.19837 -0.0302155 0.0251451)
(0.351486 -0.0913472 0.00458435)
(0.287238 0.0671042 -0.020339)
(0.304523 0.0722593 -0.011434)
(0.54717 0.12366 -0.0410479)
(1.1807 0.00244307 -0.00802296)
(1.13172 0.0678692 -0.0257277)
(0.580602 0.135731 -0.0196049)
(0.313314 -0.0736283 -0.000589867)
(1.32857 -0.0801586 0.00716353)
(1.23326 -0.0653368 -0.00132381)
(1.22672 -0.0693597 0.00119691)
(0.318239 -0.0750595 0.000392715)
(0.601104 -0.146732 -0.00540238)
(1.18003 -0.00390438 -0.00219901)
(1.1887 -0.0553082 0.00751875)
(1.19861 -0.0314035 0.004182)
(1.15856 -0.0354052 0.000253232)
(1.17949 -0.0357617 -0.00337408)
(0.608141 -0.147296 -0.000611955)
(0.582821 0.137033 -0.00718231)
(0.568295 0.132606 -0.0244984)
(0.318017 -0.075264 0.000770823)
(1.22922 -0.065825 -0.00546067)
(1.31685 -0.0757213 -0.00861875)
(0.317265 -0.0748004 -0.00284286)
(1.23234 -0.0650531 -2.76171e-05)
(0.609088 -0.147565 -0.000313972)
(1.16372 -0.0397481 -0.00500069)
(1.18708 -0.0342841 -0.00184488)
(1.19056 -0.0145622 0.0016105)
(0.606783 -0.147097 -0.0110172)
(1.18241 -0.050555 0.00236095)
(1.1962 -0.0318569 0.000323487)
(0.298904 0.0718744 -0.00448991)
(0.30193 0.0737306 -0.00131464)
(0.575398 0.135228 -0.0153718)
(0.581683 0.137528 -0.00316179)
(0.316688 -0.0750028 -0.00171857)
(1.31635 -0.0760677 0.00758141)
(1.23052 -0.0663698 -0.00138199)
(1.22955 -0.0657647 -0.00620715)
(0.316416 -0.075416 0.000972058)
(0.607184 -0.147124 -0.00944641)
(1.18358 -0.00943876 -0.0044418)
(1.17698 -0.0467576 -0.00120193)
(1.19312 -0.0322367 -0.00184655)
(1.16804 -0.0418334 -0.00600164)
(1.18931 -0.0334114 -0.00290405)
(0.608862 -0.148172 -0.000383673)
(0.581336 0.138307 -0.0041602)
(0.576209 0.136113 -0.011001)
(0.314311 -0.0757022 3.57015e-05)
(1.22904 -0.0666627 -0.00629691)
(1.31034 -0.0782275 -0.0119282)
(0.314504 -0.0750495 -0.000862341)
(1.22854 -0.0678179 -0.00511033)
(0.608583 -0.149215 -0.00251231)
(1.17029 -0.0424876 -0.00646001)
(1.18979 -0.0328056 -0.00431761)
(1.18542 -0.0105947 -0.00471262)
(0.606281 -0.147517 -0.00832405)
(1.17366 -0.0442998 -0.00492486)
(1.19067 -0.0323664 -0.00499309)
(0.295612 0.0737882 -0.00175873)
(0.574778 0.13642 -0.0107688)
(0.310599 -0.0749459 -0.00113728)
(1.30815 -0.0783261 0.00630036)
(1.22739 -0.067647 -0.00801759)
(0.603627 -0.147846 -0.00929958)
(1.18417 -0.00940739 -0.00796169)
(1.1717 -0.0422807 -0.00890368)
(1.18932 -0.0322136 -0.00811791)
(0.291196 0.06821 0.0463213)
(0.329032 0.0827985 0.0127487)
(0.297979 0.0710858 -0.000654257)
(0.304859 0.0727796 -0.000281999)
(0.296881 0.0733506 -0.000575466)
(0.300887 0.0741859 -0.00028757)
(1.07538 0.0866145 -0.11312)
(0.553872 0.120157 0.0717074)
(1.10802 -0.00857109 0.01128)
(0.625159 0.16679 0.0413358)
(1.0724 0.0618238 -0.10647)
(1.04745 0.251875 -0.038906)
(1.39972 -0.172075 -0.00497608)
(1.25612 -0.169657 -0.0117762)
(0.296183 -0.0700448 0.021107)
(1.26186 -0.15633 0.00788899)
(1.36171 -0.172981 -0.0351016)
(1.72832 -0.170878 -0.0541532)
(1.04806 -0.200516 0.0125125)
(1.84295 -0.134336 -0.0611594)
(0.949778 -0.164467 -0.0291272)
(1.44941 -0.185858 -0.0124289)
(1.57545 -0.15439 -0.0451918)
(1.58926 -0.175869 0.00649969)
(1.41783 -0.179833 -0.0381004)
(1.6785 -0.172503 -0.0500872)
(0.299844 -0.0704031 0.0200059)
(1.26925 -0.120837 -0.098605)
(1.44151 -0.190888 -0.022261)
(0.952545 -0.139235 -0.058061)
(1.18288 -0.061568 0.0555361)
(1.10478 -0.085651 -0.0154683)
(1.1998 -0.116152 -0.00361008)
(0.579828 -0.140901 0.0528258)
(1.13457 -0.113667 0.0601692)
(1.19775 -0.0960834 0.0349248)
(1.19189 -0.0504607 -0.00601944)
(1.25122 -0.0787743 0.0505154)
(0.570557 -0.134373 0.0546548)
(1.19611 -0.0770444 -0.039363)
(1.2183 -0.117389 -0.0666188)
(1.05593 -0.0348059 0.0515984)
(1.30459 -0.152889 0.0178172)
(1.2159 -0.0999591 -0.0336076)
(0.305528 0.0726413 -0.00413771)
(0.289529 0.0680184 -0.000200893)
(1.07957 0.0713879 -0.064408)
(0.582241 0.140091 -0.00325659)
(1.07273 0.101794 -0.00922935)
(0.556691 0.128038 -0.00494583)
(1.1106 0.0675037 -0.0410806)
(1.11363 0.0599503 0.0061279)
(1.3704 -0.166246 -0.0207446)
(1.27063 -0.160866 -0.00332938)
(0.314628 -0.074274 0.0056837)
(1.37738 -0.167055 0.0112677)
(1.26757 -0.164946 0.00173051)
(1.41846 -0.169885 0.0227923)
(1.55272 -0.142629 -0.0341953)
(1.55451 -0.144315 0.032596)
(1.41781 -0.169684 -0.0242289)
(1.42024 -0.171814 -0.0244941)
(1.57291 -0.150788 0.0283064)
(1.55999 -0.143445 -0.0360988)
(1.42852 -0.174199 0.0128271)
(1.37061 -0.163365 0.0214688)
(0.317092 -0.0745803 0.00247076)
(1.27485 -0.160964 -0.00116322)
(1.2749 -0.159712 0.00265835)
(1.37023 -0.163658 -0.021757)
(1.17184 -0.063656 0.0126376)
(1.10141 -0.0938829 -0.00550068)
(1.19877 -0.114178 0.00152061)
(0.599747 -0.144668 0.0141808)
(1.17117 -0.0670896 -0.00386888)
(1.09034 -0.0842879 0.01492)
(1.19788 -0.119241 0.00481877)
(1.19091 -0.0630503 0.0179245)
(0.606938 -0.14714 0.00436386)
(1.11967 -0.0926954 -0.00983211)
(1.21012 -0.112773 -0.00330966)
(1.1222 -0.0957118 0.0196023)
(1.20978 -0.110793 0.00843934)
(1.19198 -0.0622586 -0.00975971)
(0.573013 0.13391 -0.00664478)
(1.1113 0.0697923 -0.0198754)
(1.11123 0.0690506 0.00131284)
(0.582924 0.138127 0.000819342)
(1.09293 0.0784846 -0.0370251)
(1.09244 0.0814494 -0.00131154)
(1.36949 -0.16277 0.0205721)
(0.317507 -0.074964 0.000551163)
(1.2742 -0.159856 -0.000922884)
(1.27429 -0.15979 0.00020642)
(1.36905 -0.162909 -0.0211242)
(1.41733 -0.169155 -0.0219314)
(1.55445 -0.141661 0.0328158)
(1.41878 -0.16948 0.0213053)
(1.55195 -0.140653 -0.032141)
(1.36961 -0.163532 -0.0194115)
(0.316883 -0.0749132 0.00315828)
(1.27278 -0.160882 -0.00215314)
(1.37078 -0.163606 0.0187561)
(1.27229 -0.161033 0.0013568)
(1.41669 -0.168583 0.0229081)
(1.54933 -0.140279 -0.0331812)
(1.55012 -0.140637 0.0336066)
(1.41613 -0.168582 -0.0233477)
(1.18731 -0.0629527 0.00787458)
(0.607881 -0.14716 -0.00250416)
(1.11667 -0.0898798 -0.00666638)
(1.20788 -0.111908 -0.00354887)
(1.11691 -0.0904494 0.0069949)
(1.20792 -0.111565 0.0029111)
(1.18752 -0.0628994 -0.00820912)
(1.17681 -0.0635826 0.00389213)
(0.605593 -0.146378 0.00664016)
(1.10434 -0.0893714 -0.0108696)
(1.20375 -0.114336 -0.00202744)
(1.17774 -0.0639866 -0.00682097)
(1.10269 -0.0875502 0.00717124)
(1.20304 -0.114403 0.000816177)
(0.302853 0.0733383 0.000521247)
(0.298713 0.0724019 -0.000260439)
(1.09994 0.0767447 -0.0207507)
(0.582105 0.137877 0.000982025)
(1.09951 0.0776789 -0.00264791)
(0.576379 0.135683 -0.00690848)
(1.10805 0.0727405 -0.0113442)
(1.10797 0.072514 -0.0024055)
(1.36788 -0.163467 -0.0209988)
(1.2719 -0.160258 -0.00258339)
(0.31653 -0.0751866 0.00213872)
(1.36853 -0.163236 0.0187297)
(1.27146 -0.160256 -0.000356602)
(1.41466 -0.168853 0.0217969)
(1.54681 -0.14043 -0.03384)
(1.54754 -0.140345 0.0329549)
(1.41408 -0.169124 -0.0244044)
(1.41509 -0.168952 -0.0232927)
(1.54951 -0.140382 0.0325972)
(1.54849 -0.140254 -0.0330703)
(1.41583 -0.168832 0.0214142)
(1.36767 -0.163334 0.0191789)
(0.315909 -0.0750383 0.000129947)
(1.2714 -0.160017 -0.00169814)
(1.27174 -0.159908 -0.00175409)
(1.36718 -0.163721 -0.022273)
(1.17836 -0.0630685 -0.00150765)
(1.10706 -0.0875621 -0.00869703)
(1.20359 -0.113046 -0.00248743)
(0.6073 -0.14729 0.00315002)
(1.17935 -0.0632935 -0.00521962)
(1.10602 -0.0867936 0.00141693)
(1.2028 -0.112843 -0.00191839)
(1.18313 -0.0628563 0.00227973)
(0.607155 -0.147345 -0.00505923)
(1.11208 -0.0875544 -0.00514071)
(1.20425 -0.111825 -0.0041456)
(1.11233 -0.0878015 0.000564977)
(1.20458 -0.111686 -0.000171854)
(1.18298 -0.0628118 -0.00726164)
(0.575591 0.136257 -0.00819423)
(1.10535 0.0745068 -0.00987483)
(1.10532 0.0743861 -0.0066514)
(0.581075 0.138036 -0.00103675)
(1.10259 0.0759136 -0.0130863)
(1.10222 0.0763607 -0.00544532)
(1.36521 -0.164536 0.017918)
(0.312709 -0.0750091 -0.00033779)
(1.26738 -0.160523 -0.00376914)
(1.26821 -0.160319 -0.00402243)
(1.36389 -0.164988 -0.0246097)
(1.41256 -0.169642 -0.0251734)
(1.54624 -0.140705 0.0326969)
(1.41351 -0.169315 0.0210943)
(1.54513 -0.140822 -0.0341461)
(1.36574 -0.164441 -0.0231012)
(0.315027 -0.0754674 0.00113311)
(1.26972 -0.160258 -0.00344938)
(1.36663 -0.163957 0.0182517)
(1.26907 -0.16041 -0.00227935)
(1.41187 -0.169767 0.0208731)
(1.54243 -0.141145 -0.0345811)
(1.54413 -0.141182 0.032994)
(1.41039 -0.170003 -0.0264694)
(1.17979 -0.0625539 -0.00233766)
(0.605135 -0.147712 -0.00717785)
(1.10843 -0.0857072 -0.00651007)
(1.20037 -0.111793 -0.00630519)
(1.10872 -0.0859811 -0.00454944)
(1.20102 -0.111679 -0.00323488)
(1.17944 -0.0625154 -0.00861844)
(1.17835 -0.0626567 -0.00558051)
(0.607862 -0.148404 8.06095e-05)
(1.10751 -0.0862032 -0.00719413)
(1.20187 -0.11223 -0.00313378)
(1.17914 -0.0627636 -0.00427155)
(1.10675 -0.0857656 -0.00294873)
(1.20108 -0.112158 -0.00445655)
(0.300835 0.0757657 -0.00361863)
(0.294276 0.0742497 -0.0024454)
(1.10356 0.0756901 -0.0126653)
(0.582879 0.139269 -0.00681978)
(1.10348 0.0758934 -0.0110317)
(0.574073 0.136538 -0.01208)
(1.10489 0.0750553 -0.0143998)
(1.36077 -0.16531 -0.0272253)
(1.26584 -0.160371 -0.00607768)
(0.313698 -0.0759942 -0.00157041)
(1.36302 -0.165128 0.0167434)
(1.26449 -0.160543 -0.00616049)
(1.40518 -0.170234 0.0175172)
(1.5357 -0.141922 0.032604)
(1.40671 -0.170048 -0.0287767)
(1.54116 -0.141728 0.0331472)
(1.53771 -0.141111 -0.0353222)
(1.40938 -0.170198 0.0200002)
(1.35951 -0.165409 0.0138397)
(0.30817 -0.0747849 -0.0019476)
(1.2632 -0.159965 -0.00935197)
(1.17749 -0.0620495 -0.0104549)
(1.10689 -0.0847087 -0.00927961)
(1.19902 -0.11152 -0.0058807)
(0.609097 -0.149938 -0.00520272)
(1.17807 -0.0621427 -0.00628131)
(1.10648 -0.0841751 -0.00871927)
(1.19798 -0.111576 -0.00874404)
(1.17794 -0.0616408 -0.00850016)
(0.601906 -0.147886 -0.0108804)
(1.10726 -0.0835395 -0.0119179)
(1.19748 -0.110884 -0.00885333)
(1.11771 0.214929 -0.110535)
(1.12942 0.190938 -0.101906)
(0.272634 0.0663239 -0.0287492)
(1.09863 0.185902 -0.106905)
(1.15873 0.226854 -0.112611)
(0.565666 0.0154721 -0.132001)
(1.01445 0.182305 -0.143482)
(1.07454 0.190834 -0.132774)
(0.975955 0.0761028 -0.139047)
(0.228276 0.0464987 -0.115895)
(0.745643 0.358378 -0.264176)
(1.0332 0.0191289 -0.0511516)
(0.378766 0.120401 -0.0402655)
(1.18048 0.221361 -0.0135258)
(0.298335 0.0714271 -0.00336757)
(1.15464 0.176618 -0.0130593)
(1.15138 0.175505 -0.0163552)
(1.18539 0.222945 -0.0168005)
(1.05898 0.190242 -0.00576217)
(1.06379 0.190805 -0.0558361)
(1.1814 0.223705 -0.0224756)
(0.304419 0.0726006 -0.00697718)
(1.15211 0.180773 -0.0329465)
(1.18732 0.225438 -0.0301753)
(1.14899 0.180576 -0.0192476)
(1.03442 0.187207 -0.0374893)
(1.05074 0.190116 0.00417585)
(1.17679 0.224972 -0.0102)
(0.295899 0.0735301 -0.0012918)
(1.15038 0.176948 -0.00818353)
(1.14733 0.176436 -0.0133712)
(1.18144 0.226175 -0.0127362)
(1.03849 0.193429 0.0131457)
(1.04551 0.193441 -0.0342334)
(1.1778 0.224824 -0.00851284)
(0.30075 0.0738897 -0.000896137)
(1.15081 0.178272 -0.0119662)
(1.1826 0.226038 -0.00784435)
(1.14813 0.177593 -0.00509194)
(1.02881 0.193404 -0.033435)
(1.04389 0.196055 0.00680526)
(1.13741 0.128687 -0.115573)
(1.16005 0.152207 -0.0991003)
(0.863347 0.0993205 -0.05753)
(0.536351 0.126982 -0.0507456)
(1.14021 0.152488 -0.113638)
(0.865887 0.108643 -0.0844566)
(1.14666 0.124018 -0.0988297)
(1.1028 0.029284 -0.0588946)
(0.469644 0.0913077 -0.167656)
(0.942886 0.293231 -0.219634)
(0.882246 0.208449 -0.10336)
(1.10502 0.000708179 -0.0387446)
(0.815038 0.0675835 -0.120428)
(1.05923 0.151806 -0.183811)
(1.17544 -0.228591 -0.0212886)
(1.15261 -0.189661 -0.00159159)
(0.312676 -0.0735604 -0.00352082)
(1.14683 -0.188263 -0.0161411)
(1.18058 -0.230879 -0.0110269)
(0.882676 -0.118807 0.0907391)
(0.5587 -0.150743 0.0340827)
(1.03362 -0.190111 -0.0589432)
(1.04765 -0.187544 -0.0101599)
(1.13078 -0.155911 -0.0244831)
(0.265834 -0.0545278 -0.0366026)
(1.0073 -0.214485 0.00947261)
(1.15683 -0.123723 -0.0268561)
(1.06568 -0.232819 -0.00990076)
(1.16728 -0.116946 -0.0142082)
(0.904815 -0.126255 0.00614717)
(1.18125 -0.148466 0.00693115)
(0.60103 -0.147051 -0.0113282)
(0.900581 -0.125277 -0.0124081)
(1.17788 -0.148347 -0.0157538)
(1.16776 -0.119285 0.00902507)
(1.31118 -0.139449 -0.0396616)
(0.540924 -0.116154 -0.0562326)
(0.963857 -0.0501318 -0.0172555)
(0.991723 -0.197901 0.0102509)
(0.984617 -0.139082 -0.022337)
(1.26243 -0.100591 -0.0238011)
(1.03658 -0.125451 -0.0209687)
(1.18425 0.224876 -0.0563769)
(1.15705 0.187882 -0.0842711)
(0.302274 0.0713343 -0.0214619)
(1.20385 0.237251 -0.0888527)
(1.14512 0.183282 -0.0520116)
(1.02922 0.182517 -0.0513357)
(1.05308 0.186783 -0.024324)
(1.09611 0.195493 -0.0636208)
(1.11641 0.205271 -0.122677)
(1.17589 0.217253 -0.0297139)
(0.292838 0.0691835 -0.00818779)
(1.15259 0.175897 -0.0311462)
(1.1828 0.22007 -0.0355549)
(1.14731 0.173659 -0.0311817)
(1.15782 0.115268 -0.0509972)
(1.17936 0.136986 -0.0855219)
(0.864998 0.0923746 -0.059444)
(0.574115 0.135578 -0.0364462)
(1.15967 0.103937 -0.078358)
(1.17208 0.1408 -0.047218)
(0.871669 0.103377 -0.05324)
(1.1712 0.0989384 -0.0331228)
(0.56341 0.130142 -0.0202592)
(1.18339 0.129812 -0.0281015)
(0.88954 0.0978303 -0.0312628)
(1.18017 0.127722 -0.0357833)
(0.888227 0.0967902 -0.0275252)
(1.17304 0.100546 -0.0337112)
(1.17828 -0.224764 -0.00676374)
(1.14973 -0.181825 -0.00519787)
(0.312738 -0.0738962 0.000922813)
(1.17743 -0.223176 -0.00467547)
(1.1516 -0.183641 -0.00123719)
(1.03498 -0.182514 -0.0344636)
(1.04898 -0.184065 0.0223048)
(1.03053 -0.182882 0.00502308)
(1.03319 -0.183577 -0.0444258)
(1.1862 -0.224028 -0.00311169)
(0.318286 -0.0750024 -0.00150734)
(1.16346 -0.184197 -0.000824279)
(1.16048 -0.183194 -0.00531263)
(1.19152 -0.225567 -0.00442913)
(1.16744 -0.116673 0.00390986)
(0.904998 -0.125176 -0.00295199)
(1.17887 -0.142201 -0.00938604)
(0.597927 -0.144585 0.00166175)
(1.16705 -0.116146 -0.00731687)
(0.903102 -0.124285 -0.00524666)
(1.18005 -0.144135 0.00537272)
(1.18011 -0.11609 -0.00870953)
(0.610028 -0.148573 -0.00669416)
(0.914988 -0.125279 -0.00631921)
(1.19238 -0.143965 0.00379907)
(0.916713 -0.126483 -0.00414024)
(1.19113 -0.143413 -0.0101566)
(1.17978 -0.116219 0.000462215)
(1.17228 0.0999566 -0.0194645)
(0.574461 0.134234 -0.0123019)
(1.18367 0.129497 -0.0089027)
(0.896346 0.100191 -0.0154381)
(1.18176 0.128587 -0.0217051)
(0.895875 0.0997395 -0.0141364)
(1.17332 0.100703 -0.0132562)
(1.16411 0.112987 -0.0171245)
(0.581946 0.137961 -0.0118029)
(1.17858 0.13713 -0.0400112)
(0.886589 0.102542 -0.0343167)
(1.17649 0.138622 -0.0146096)
(1.16481 0.110227 -0.0412274)
(0.887711 0.105191 -0.0209828)
(1.18765 -0.223416 -0.00288339)
(0.317379 -0.0750916 -0.000916264)
(1.16366 -0.183423 -0.000922118)
(1.16113 -0.182844 -0.00561631)
(1.19237 -0.224412 -0.00415522)
(1.03827 -0.182399 0.0239446)
(1.04644 -0.18313 -0.0320188)
(1.18619 -0.224526 -0.00149685)
(0.31607 -0.0747111 0.00127251)
(1.16187 -0.184202 -0.00537854)
(1.19094 -0.225413 -0.00160558)
(1.15872 -0.183793 0.00146401)
(1.03742 -0.181386 -0.0317711)
(1.04971 -0.182695 0.0244616)
(1.1791 -0.115304 -0.00937405)
(0.609046 -0.147866 -0.00671721)
(0.912028 -0.123401 -0.00465393)
(1.19241 -0.143338 0.00380101)
(0.913231 -0.124085 -0.00435395)
(1.1912 -0.143063 -0.0107199)
(1.17915 -0.115229 0.00109961)
(1.17267 -0.11627 0.00450936)
(0.604246 -0.146162 0.00178602)
(0.908177 -0.123947 -0.0109429)
(1.18938 -0.144401 -0.0117628)
(1.17472 -0.116382 -0.013099)
(0.905885 -0.123053 -0.00279285)
(1.18691 -0.144165 0.00622358)
(1.1799 0.224292 -0.0112788)
(1.15235 0.17918 -0.0171028)
(0.302899 0.0731719 -0.00195133)
(1.185 0.225424 -0.013093)
(1.14946 0.178797 -0.00813585)
(1.03359 0.190795 -0.0334128)
(1.04812 0.193397 0.0114838)
(1.04601 0.191229 0.0108955)
(1.05236 0.191374 -0.0398264)
(1.17926 0.223671 -0.00894089)
(0.298059 0.0726138 -0.00143857)
(1.15272 0.177168 -0.00730249)
(1.18385 0.224935 -0.0112843)
(1.14986 0.176472 -0.0121427)
(1.16642 0.107666 -0.00582172)
(1.17932 0.133976 -0.0241724)
(0.893774 0.102933 -0.0194226)
(0.582111 0.13801 -0.00395882)
(1.16729 0.106621 -0.0247345)
(1.17741 0.134283 -0.00324158)
(0.893923 0.104009 -0.0106149)
(1.16927 0.101644 -0.0154597)
(0.576278 0.135801 -0.00942966)
(1.18054 0.129749 -0.00211838)
(0.897664 0.101214 -0.00875809)
(1.17884 0.129384 -0.0175811)
(0.897489 0.101192 -0.0101621)
(1.1702 0.101855 -0.00528029)
(1.18622 -0.223338 -0.00188282)
(1.1621 -0.183831 -0.00537032)
(0.316287 -0.0750628 0.00128007)
(1.19122 -0.224666 -0.0016178)
(1.15888 -0.183098 0.000747842)
(1.03534 -0.180193 -0.0315538)
(1.04799 -0.181678 0.0218565)
(1.03879 -0.181325 0.0248112)
(1.04763 -0.182208 -0.0311399)
(1.18594 -0.222714 -0.00421023)
(0.315089 -0.0750679 -0.000547181)
(1.16157 -0.183235 -0.00197931)
(1.15906 -0.182766 -0.00686855)
(1.19049 -0.223563 -0.0053033)
(1.17391 -0.115393 0.00363352)
(0.907592 -0.122797 -0.0088842)
(1.19008 -0.143988 -0.0113933)
(0.606666 -0.147133 0.000902707)
(1.17552 -0.115547 -0.0119186)
(0.906026 -0.122434 -0.00256958)
(1.18784 -0.143518 0.00537833)
(1.17611 -0.114956 -0.0105582)
(0.607306 -0.147789 -0.00702195)
(0.907617 -0.122777 -0.00347697)
(1.19049 -0.143354 0.00306734)
(0.908355 -0.123203 -0.00534337)
(1.18909 -0.143172 -0.0118333)
(1.17656 -0.114813 0.0012567)
(1.16604 0.102262 -0.0163471)
(0.575049 0.136369 -0.00963085)
(1.17743 0.129145 -0.00216365)
(0.898015 0.101589 -0.00840929)
(1.17545 0.129057 -0.0186354)
(0.897686 0.101673 -0.0110184)
(1.1673 0.102171 -0.00461078)
(1.16622 0.104787 -0.0023121)
(0.580911 0.138031 -0.00238034)
(1.17777 0.131717 -0.0183512)
(0.896357 0.102398 -0.0129315)
(1.17619 0.13144 0.00023476)
(1.16681 0.104475 -0.017605)
(0.896352 0.102901 -0.00731588)
(1.18283 -0.221417 -0.00754531)
(0.311369 -0.0749719 -0.000847899)
(1.15869 -0.18274 -0.00544833)
(1.15584 -0.182224 -0.00991408)
(1.18752 -0.222285 -0.00906396)
(1.03657 -0.180305 0.0211378)
(1.04479 -0.181069 -0.0312556)
(1.18428 -0.222189 -0.00366244)
(0.314942 -0.0753314 0.00103778)
(1.16025 -0.183431 -0.00614992)
(1.18927 -0.223695 -0.00271305)
(1.15723 -0.182608 -0.000982981)
(1.03065 -0.179012 -0.0327587)
(1.04482 -0.180835 0.0132608)
(1.17291 -0.11439 -0.01333)
(0.604449 -0.147978 -0.00837432)
(0.903653 -0.122556 -0.0053192)
(1.18809 -0.143044 -7.966e-05)
(0.903803 -0.122758 -0.00815346)
(1.18625 -0.142846 -0.014589)
(1.17394 -0.114231 -0.00123783)
(1.17341 -0.114709 0.00225418)
(0.607458 -0.148198 -0.000309432)
(0.905362 -0.122502 -0.007692)
(1.18888 -0.143629 -0.0116856)
(1.17442 -0.114908 -0.011397)
(0.904402 -0.122431 -0.0031363)
(1.18707 -0.143106 0.00379048)
(1.17568 0.225267 -0.0122808)
(1.14869 0.177135 -0.013528)
(0.299855 0.0751894 -0.00264453)
(1.17999 0.226551 -0.00965468)
(1.14664 0.176253 -0.00824689)
(1.03217 0.195517 0.00405674)
(1.03811 0.195329 -0.0343034)
(1.16529 0.102865 -0.00467227)
(1.17539 0.129626 -0.0192734)
(0.897485 0.101965 -0.0130615)
(0.581443 0.138851 -0.00537123)
(1.16516 0.102997 -0.0175103)
(1.17454 0.129001 -0.0023091)
(0.89784 0.102281 -0.00947214)
(1.18141 -0.220363 -0.00882953)
(1.15709 -0.182454 -0.00972558)
(0.313205 -0.0757412 -0.000642119)
(1.18595 -0.222008 -0.00676544)
(1.15472 -0.181582 -0.00580008)
(1.03308 -0.179409 0.00973045)
(1.03941 -0.179854 -0.0331405)
(1.17215 -0.113619 -0.00189392)
(0.902453 -0.122219 -0.009935)
(1.18649 -0.142772 -0.0147121)
(0.608082 -0.149536 -0.00374644)
(1.17231 -0.113921 -0.0138441)
(0.902283 -0.122322 -0.00667432)
(1.18543 -0.142189 -0.00071751)
(1.1078 0.220182 -0.112323)
(1.1922 0.233479 -0.120874)
(1.1181 0.215376 -0.11658)
(1.14805 0.234569 -0.122612)
(1.10568 0.164227 -0.0903831)
(0.269891 0.0627866 -0.0380816)
(1.13428 0.141034 -0.0354242)
(1.16606 0.215743 -0.072736)
(1.07983 0.111046 -0.0783084)
(1.09315 0.199906 -0.100093)
(1.22217 0.278777 -0.193853)
(1.13491 0.209838 -0.117256)
(1.15612 0.258111 -0.113599)
(0.851347 0.0689781 -0.1778)
(1.11003 0.188752 -0.274454)
(0.643979 0.0215028 -0.147591)
(0.817883 0.0732309 -0.210349)
(0.912567 0.0630966 -0.194461)
(1.18186 0.257509 -0.24137)
(1.17337 0.202249 -0.266655)
(0.927872 0.0975862 -0.228312)
(1.07674 0.186614 -0.140238)
(1.15212 0.213262 -0.121612)
(1.07821 0.199076 -0.124713)
(1.13999 0.196593 -0.127892)
(1.04366 0.177481 -0.154174)
(1.14407 0.217569 -0.245626)
(1.10384 0.180375 -0.145661)
(1.19132 0.257036 -0.213498)
(1.0976 0.19505 -0.127842)
(1.20561 0.228499 -0.246536)
(1.07828 0.310999 -0.237073)
(0.254867 0.0768866 -0.0815693)
(1.12585 0.329577 -0.053487)
(1.14298 0.327513 -0.101955)
(1.08589 0.369601 -0.232015)
(0.855968 0.0911487 -0.199162)
(0.891138 0.089536 -0.223984)
(1.06217 0.227629 -0.244609)
(1.2176 0.289464 -0.224876)
(1.14896 0.295699 -0.170745)
(0.99795 0.13355 -0.234582)
(1.18067 0.220329 -0.0112663)
(0.303227 0.0725679 -0.0018746)
(1.15279 0.175571 -0.00877383)
(1.18417 0.22143 -0.00630718)
(1.15194 0.174446 -0.00753017)
(1.16595 0.236327 -0.0114017)
(1.18321 0.225453 -0.00693188)
(1.16855 0.222138 -0.0231448)
(1.17175 0.23823 -0.0195421)
(1.16534 0.235651 -0.0138614)
(1.17975 0.224089 -0.0180509)
(1.17172 0.237003 -0.0046526)
(1.17265 0.222839 -0.00197165)
(1.12687 0.196149 -0.00757559)
(1.14861 0.209983 -0.0449131)
(1.14308 0.207917 -0.0119634)
(1.13265 0.197017 -0.0532946)
(1.05107 0.189745 -0.0439883)
(1.06543 0.191956 0.00977314)
(1.11918 0.195656 -0.0411619)
(1.15099 0.209847 0.00201879)
(1.13633 0.20797 -0.0330656)
(1.13434 0.198147 0.00741846)
(1.18133 0.225406 -0.0195324)
(0.29669 0.0707531 -0.00568308)
(1.15338 0.182407 -0.00658043)
(1.18774 0.226708 -0.0114843)
(1.1481 0.182001 -0.0218953)
(1.16993 0.23733 -0.0256862)
(1.19136 0.228222 -0.0410859)
(1.18528 0.225906 -0.0144187)
(1.1787 0.240379 -0.0276934)
(1.1711 0.238989 -0.0168478)
(1.19343 0.228078 -0.000916519)
(1.17714 0.240728 -0.0154392)
(1.17935 0.226056 -0.029072)
(1.10279 0.192768 -0.0347433)
(1.13993 0.207203 -0.00345715)
(1.12428 0.204204 -0.0271117)
(1.11965 0.195885 0.0016954)
(1.04018 0.188251 0.00895151)
(1.0471 0.188001 -0.0337852)
(1.10824 0.19391 0.00662313)
(1.136 0.205846 -0.022781)
(1.12907 0.204984 0.00119788)
(1.11605 0.193765 -0.0307769)
(1.17691 0.224578 -0.00860883)
(0.29994 0.074381 -0.000918121)
(1.14982 0.177272 -0.00971101)
(1.18119 0.225902 -0.00600246)
(1.14778 0.176253 -0.00476497)
(1.16051 0.241326 -0.00807775)
(1.17573 0.227142 -0.00246958)
(1.1625 0.224506 -0.0202072)
(1.16589 0.242915 -0.0157636)
(1.16022 0.240833 -0.0113405)
(1.174 0.226463 -0.0178069)
(1.16686 0.242534 -0.00369499)
(1.16634 0.225114 0.00129801)
(1.10653 0.198419 0.0106929)
(1.13409 0.208358 -0.0238748)
(1.12654 0.207322 0.00547519)
(1.11447 0.198707 -0.0312266)
(1.03389 0.192867 -0.0333437)
(1.04801 0.195269 0.0128012)
(1.1022 0.197801 -0.0305563)
(1.13627 0.209178 0.00519207)
(1.12284 0.206924 -0.0236821)
(1.11684 0.200331 0.0103178)
(1.17792 0.225349 -0.00917544)
(0.296957 0.0730902 -0.00142152)
(1.15097 0.178255 -0.00513575)
(1.1827 0.226456 -0.00963237)