/*--------------------------------*- C++ -*----------------------------------*\
| =========                 |                                                 |
| \\      /  F ield         | OpenFOAM: The Open Source CFD Toolbox           |
|  \\    /   O peration     | Version:  2012                                  |
|   \\  /    A nd           | Website:  www.openfoam.com                      |
|    \\/     M anipulation  |                                                 |
\*---------------------------------------------------------------------------*/
FoamFile
{
    version     2.0;
    format      ascii;
    class       volVectorField;
    location    "0.105/fluid";
    object      U_0;
}
// * * * * * * * * * * * * * * * * * * * * * * * * * * * * * * * * * * * * * //

dimensions      [0 1 -1 0 0 0 0];


internalField   nonuniform List<vector> 
16422
(
(1.25383 -0.0461352 -0.0050378)
(1.20936 -0.011492 0.00625531)
(1.20241 -0.0124586 0.00193617)
(1.19868 -0.00789105 0.000218855)
(1.19819 -0.00543043 -0.000206027)
(1.19839 -0.00360233 -0.000183329)
(1.19864 -0.00234503 -0.000118394)
(1.19886 -0.00150906 -7.69124e-05)
(1.19904 -0.000965589 -5.42318e-05)
(1.19919 -0.000612726 -4.16949e-05)
(1.19932 -0.000386511 -3.13064e-05)
(1.19942 -0.000243457 -2.7358e-05)
(1.19952 -0.000152055 -2.65113e-05)
(1.1996 -9.28994e-05 -2.51171e-05)
(1.19968 -5.06518e-05 -2.68086e-05)
(1.21896 -0.00660964 3.7675e-05)
(1.21236 -0.0132002 0.000872538)
(1.2056 -0.00877943 0.000226292)
(1.20164 -0.00564497 -0.00013828)
(1.20025 -0.00380881 -0.00018442)
(1.19975 -0.00256936 -0.000142391)
(1.19951 -0.00170585 -9.7015e-05)
(1.1994 -0.00111739 -6.99011e-05)
(1.19937 -0.000724434 -5.20661e-05)
(1.19939 -0.000463195 -4.04567e-05)
(1.19943 -0.000295349 -3.32709e-05)
(1.19948 -0.000186701 -3.0711e-05)
(1.19955 -0.000119689 -2.85816e-05)
(1.19962 -7.20759e-05 -2.82735e-05)
(1.1997 -3.81989e-05 -3.0992e-05)
(1.21258 -0.00188793 4.41228e-05)
(1.21023 -0.00445287 0.000161495)
(1.20622 -0.00369271 6.64084e-06)
(1.20319 -0.00259274 -9.77988e-05)
(1.20155 -0.00182441 -0.000117837)
(1.20061 -0.00125203 -0.000102009)
(1.20006 -0.000841863 -7.85164e-05)
(1.19975 -0.000556755 -6.08003e-05)
(1.19959 -0.000360369 -4.98443e-05)
(1.19952 -0.00022835 -4.10204e-05)
(1.19952 -0.000143969 -3.37729e-05)
(1.19954 -8.75763e-05 -3.18421e-05)
(1.19958 -5.02689e-05 -2.85436e-05)
(1.19963 -2.25691e-05 -3.02176e-05)
(1.19971 -7.6864e-06 -3.32838e-05)
(1.25378 -0.0298902 -0.00123528)
(1.20961 -0.0314435 -0.00272346)
(1.20554 -0.00856029 -0.00263709)
(1.20158 -0.00696065 -0.00182054)
(1.20007 -0.00511819 -0.00122175)
(1.19972 -0.00345569 -0.000842848)
(1.19968 -0.00226205 -0.000587414)
(1.19971 -0.00146338 -0.000402678)
(1.19978 -0.000942052 -0.000273362)
(1.19984 -0.000601162 -0.000183811)
(1.19989 -0.000381742 -0.000123277)
(1.19993 -0.000241074 -8.26141e-05)
(1.19996 -0.000151004 -5.33336e-05)
(1.19998 -9.20049e-05 -3.03951e-05)
(1.19999 -5.08764e-05 -1.62277e-05)
(1.21958 -0.00659008 7.9894e-05)
(1.21383 -0.0139158 -0.000845725)
(1.20761 -0.00822543 -0.00113778)
(1.20356 -0.00527709 -0.00104338)
(1.20181 -0.00361867 -0.000826053)
(1.20101 -0.00245803 -0.000626447)
(1.20055 -0.00164251 -0.000463106)
(1.2003 -0.00108342 -0.000331562)
(1.20016 -0.0007057 -0.000233338)
(1.20009 -0.000454178 -0.000162699)
(1.20005 -0.000290353 -0.000112469)
(1.20004 -0.00018503 -7.57414e-05)
(1.20003 -0.000117726 -4.84989e-05)
(1.20003 -7.06224e-05 -2.74421e-05)
(1.20003 -3.8366e-05 -1.33332e-05)
(1.21313 -0.00194575 0.000111993)
(1.21115 -0.00444237 -0.000426125)
(1.20752 -0.00356597 -0.000676627)
(1.20459 -0.00246717 -0.000701223)
(1.20286 -0.00173557 -0.0006177)
(1.20178 -0.00119689 -0.000501093)
(1.20109 -0.000810202 -0.000387258)
(1.20067 -0.000538773 -0.000287799)
(1.20041 -0.000351519 -0.000208252)
(1.20025 -0.000225377 -0.000148913)
(1.20016 -0.000141548 -0.000104509)
(1.20011 -8.51622e-05 -7.15856e-05)
(1.20008 -4.84956e-05 -4.59087e-05)
(1.20006 -2.26216e-05 -2.55703e-05)
(1.20006 -7.65199e-06 -1.1753e-05)
(1.25156 -0.0274838 0.000832603)
(1.20872 -0.0336787 -0.00372769)
(1.20449 -0.00801775 -0.0042932)
(1.20177 -0.00625756 -0.00305112)
(1.2006 -0.00457805 -0.00206607)
(1.2002 -0.0031162 -0.00144369)
(1.20002 -0.00206778 -0.00100588)
(1.19995 -0.00135277 -0.00069386)
(1.19995 -0.00088081 -0.000473097)
(1.19996 -0.000567895 -0.000319151)
(1.19997 -0.000365232 -0.000213421)
(1.19998 -0.000232135 -0.000144778)
(1.2 -0.00014618 -9.4909e-05)
(1.2 -8.95536e-05 -5.95321e-05)
(1.20001 -4.83121e-05 -3.48263e-05)
(1.2182 -0.00635425 0.000458403)
(1.2129 -0.0134766 -0.00133021)
(1.20721 -0.00759369 -0.00199757)
(1.20371 -0.00470905 -0.00181612)
(1.20213 -0.00322069 -0.00143775)
(1.20131 -0.00221715 -0.00108617)
(1.2008 -0.00150072 -0.000798498)
(1.20049 -0.00100279 -0.000575391)
(1.20031 -0.000659843 -0.000405749)
(1.20019 -0.000429799 -0.000281617)
(1.20012 -0.000277634 -0.000194251)
(1.20008 -0.000178287 -0.000134249)
(1.20006 -0.000113192 -8.88924e-05)
(1.20005 -6.82902e-05 -5.63746e-05)
(1.20005 -3.5997e-05 -3.22826e-05)
(1.21235 -0.00188653 0.000199801)
(1.21055 -0.0041023 -0.00071563)
(1.2073 -0.00321297 -0.00118615)
(1.20467 -0.00218834 -0.0012329)
(1.20304 -0.00154932 -0.00107535)
(1.20198 -0.00108173 -0.000867468)
(1.20128 -0.0007413 -0.000669089)
(1.20082 -0.000498972 -0.000500145)
(1.20053 -0.000328776 -0.00036248)
(1.20035 -0.000212676 -0.000257419)
(1.20023 -0.000133162 -0.000180645)
(1.20016 -8.07841e-05 -0.000128306)
(1.20011 -4.6974e-05 -8.6882e-05)
(1.20008 -2.16961e-05 -5.55026e-05)
(1.20007 -6.26531e-06 -3.03879e-05)
(0.960552 -0.159576 -0.0386667)
(1.19671 0.0019642 0.00978622)
(1.31895 -0.0774876 -0.00788877)
(1.19269 -0.0172422 0.00672076)
(1.31994 -0.0765177 0.00860408)
(1.18215 -0.00777949 -0.00329175)
(1.31503 -0.0771372 -0.00988332)
(1.18741 -0.012622 -0.00116426)
(1.31395 -0.0774392 0.00710772)
(1.18379 -0.0101675 -0.0051832)
(0.299866 0.0711881 -0.0317837)
(0.126593 0.0619139 -0.00892341)
(1.19666 -0.00246764 0.0177043)
(1.1908 -0.0156003 0.0040799)
(1.19592 -0.0241939 0.00539442)
(1.19086 -0.0223886 -0.00174439)
(1.20695 -0.0189521 0.00369788)
(1.23097 -0.00460378 0.000189523)
(1.2101 -0.00590031 0.00176372)
(1.25582 -0.0291375 -0.00279968)
(1.21191 -0.0563103 0.000533525)
(1.23321 -0.00349803 0.000512445)
(1.21277 -0.00783087 0.000399534)
(0.304429 0.0732716 -0.00331463)
(0.29654 0.0704251 -0.00935379)
(1.19203 -0.00852181 -0.00399037)
(1.19543 -0.0120094 -0.00445569)
(1.19275 -0.0165635 -0.0011944)
(1.19224 -0.0165234 -0.00247315)
(1.20711 -0.0492082 -0.00240664)
(1.2323 -0.00279104 0.000206205)
(1.2119 -0.00597956 -0.000731808)
(1.25264 -0.0282109 0.00132892)
(1.20893 -0.0528371 -0.00058889)
(1.231 -0.00323549 -0.000470987)
(1.21168 -0.00673255 -0.00169816)
(0.299812 0.0751789 -0.00146923)
(0.297923 0.0731946 -0.00153764)
(1.19045 -0.0120537 -0.00596744)
(1.19352 -0.0126391 -0.00606618)
(1.20655 -0.0505231 -0.00279632)
(1.23007 -0.00325487 -0.00108544)
(1.21124 -0.00611023 -0.00290558)
(0.568936 0.133137 -0.0473719)
(1.12412 0.0603138 -0.00412063)
(1.14978 -0.0100019 -0.0376222)
(0.400011 0.179321 -0.0257814)
(0.315455 -0.0744209 0.00286426)
(1.07612 -0.0834612 -0.10621)
(1.32901 -0.0927612 -0.0115488)
(1.22465 -0.078232 -0.0215942)
(0.189536 -0.04961 -0.0302132)
(0.602128 -0.145773 0.00569375)
(1.18344 -0.00873932 0.0244007)
(1.22667 -0.026024 -0.0308294)
(1.19623 -0.0175763 0.0279793)
(1.1994 -0.0463219 0.0170249)
(1.19842 -0.0301904 0.0252785)
(0.352522 -0.0915094 0.00453869)
(0.287702 0.0672492 -0.0200686)
(0.305007 0.072463 -0.011127)
(0.547808 0.123874 -0.0406887)
(1.18051 0.00243466 -0.00790589)
(1.13168 0.0677834 -0.025631)
(0.581047 0.136027 -0.0192349)
(0.313794 -0.0737763 -0.000414729)
(1.32878 -0.0801017 0.00717232)
(1.23316 -0.0653388 -0.00106053)
(1.22662 -0.0692702 0.00128232)
(0.31851 -0.0752414 0.000660969)
(0.601721 -0.146935 -0.00516578)
(1.18013 -0.00406041 -0.00209575)
(1.18851 -0.0552338 0.00762161)
(1.19854 -0.0314876 0.0043182)
(1.1585 -0.0353282 0.000335344)
(1.17952 -0.0357752 -0.00322515)
(0.608217 -0.147499 -0.000286367)
(0.582656 0.137379 -0.0067374)
(0.568681 0.132897 -0.0241013)
(0.31807 -0.0755212 0.00109786)
(1.22912 -0.065889 -0.0053957)
(1.31733 -0.0759644 -0.00845559)
(0.317535 -0.0749878 -0.00254455)
(1.23222 -0.0652625 0.000250674)
(0.608504 -0.147813 8.67604e-05)
(1.16353 -0.0396931 -0.00484996)
(1.187 -0.034423 -0.00166797)
(1.19047 -0.0147934 0.00172811)
(0.606835 -0.147306 -0.010618)
(1.18209 -0.0504979 0.00251614)
(1.19604 -0.0320789 0.000499983)
(0.299203 0.0721144 -0.00408335)
(0.301883 0.0740166 -0.000852779)
(0.575185 0.135577 -0.014876)
(0.580557 0.137892 -0.00265217)
(0.316738 -0.0752661 -0.00135897)
(1.31687 -0.0763704 0.00764605)
(1.23037 -0.0668077 -0.00112058)
(1.22942 -0.0660429 -0.00613834)
(0.316333 -0.0757688 0.00129631)
(0.606566 -0.147379 -0.00896792)
(1.18347 -0.00970957 -0.00431396)
(1.1765 -0.0467518 -0.00103963)
(1.19287 -0.0326278 -0.00167422)
(1.16767 -0.0418086 -0.00583223)
(1.18913 -0.0337103 -0.0027246)
(0.607702 -0.148529 2.71291e-05)
(0.578851 0.138635 -0.00365937)
(0.575017 0.136481 -0.0104345)
(0.314226 -0.0761676 0.000283523)
(1.2289 -0.0671671 -0.00625015)
(1.31122 -0.0788405 -0.0118722)
(0.314426 -0.0754122 -0.000503234)
(1.22839 -0.0684639 -0.00491987)
(0.60705 -0.149751 -0.00217282)
(1.16975 -0.0425193 -0.0063011)
(1.1895 -0.0332803 -0.00415852)
(1.18516 -0.0109722 -0.00464103)
(0.605093 -0.147885 -0.00783127)
(1.17302 -0.044361 -0.00480749)
(1.19034 -0.032928 -0.00487364)
(0.294941 0.0741291 -0.00128536)
(0.572209 0.13675 -0.0102231)
(0.310531 -0.075416 -0.000856913)
(1.30906 -0.0789701 0.00627407)
(1.22724 -0.0683474 -0.00805191)
(0.60209 -0.148398 -0.00888092)
(1.18389 -0.00981574 -0.00792968)
(1.171 -0.0423801 -0.00883681)
(1.18896 -0.0328495 -0.0080548)
(0.291844 0.0683686 0.0464799)
(0.329457 0.0828949 0.0128731)
(0.298392 0.0713071 -0.000317002)
(0.305261 0.0729985 4.13074e-05)
(0.296547 0.0736622 -7.74957e-05)
(0.300571 0.0745006 0.000170994)
(1.07568 0.0863918 -0.112813)
(0.554759 0.12036 0.0719276)
(1.10842 -0.00881045 0.011277)
(0.625719 0.166878 0.0415246)
(1.07308 0.0613707 -0.106273)
(1.04742 0.251518 -0.0387656)
(1.39955 -0.17191 -0.00452485)
(1.25577 -0.169584 -0.0114426)
(0.296886 -0.0702137 0.0213191)
(1.26146 -0.156091 0.00836403)
(1.36127 -0.173054 -0.0348591)
(1.72794 -0.171046 -0.0540583)
(1.04911 -0.200533 0.0123975)
(1.84312 -0.134504 -0.0611777)
(0.9511 -0.164359 -0.0293198)
(1.44928 -0.185746 -0.0121784)
(1.57535 -0.154481 -0.0451187)
(1.58923 -0.175908 0.00640972)
(1.41743 -0.179923 -0.0379134)
(1.67769 -0.172612 -0.0499216)
(0.300557 -0.0705912 0.0201743)
(1.26978 -0.120846 -0.0984566)
(1.4395 -0.190969 -0.0219363)
(0.954014 -0.139024 -0.0582126)
(1.18261 -0.0614683 0.0553281)
(1.10508 -0.0853027 -0.0152933)
(1.19945 -0.116003 -0.00336047)
(0.580818 -0.141157 0.0529032)
(1.13487 -0.113382 0.0600454)
(1.19723 -0.095948 0.0350292)
(1.19164 -0.0503479 -0.00583758)
(1.25045 -0.0784564 0.0507673)
(0.571499 -0.134595 0.0547111)
(1.19649 -0.0766671 -0.0391419)
(1.21806 -0.117577 -0.0660086)
(1.05634 -0.0343754 0.0517184)
(1.30281 -0.15274 0.0182579)
(1.21531 -0.0998813 -0.0330461)
(0.306045 0.0728282 -0.00391764)
(0.290068 0.0682093 3.32629e-05)
(1.07977 0.0711527 -0.0642282)
(0.582861 0.140356 -0.00299325)
(1.07292 0.101572 -0.00909554)
(0.557329 0.128317 -0.00464861)
(1.11067 0.067338 -0.0408465)
(1.11373 0.0597862 0.00626938)
(1.3701 -0.166453 -0.020468)
(1.27016 -0.160805 -0.0030701)
(0.315007 -0.0744278 0.00587765)
(1.37703 -0.167142 0.0114644)
(1.26711 -0.164964 0.00197229)
(1.41829 -0.17016 0.0229959)
(1.55301 -0.142965 -0.0339605)
(1.5547 -0.144536 0.0327498)
(1.41766 -0.170083 -0.02392)
(1.42003 -0.172049 -0.024224)
(1.57297 -0.150861 0.0283478)
(1.56014 -0.14364 -0.0358988)
(1.42825 -0.174313 0.0129808)
(1.37035 -0.163612 0.0216739)
(0.317472 -0.074744 0.00269875)
(1.27432 -0.161121 -0.00087294)
(1.2744 -0.159794 0.002912)
(1.36997 -0.164025 -0.021436)
(1.17148 -0.063547 0.0127614)
(1.10161 -0.0935605 -0.0053754)
(1.19822 -0.114054 0.0017072)
(0.600111 -0.144859 0.0143992)
(1.17084 -0.0669633 -0.00378258)
(1.09052 -0.0839614 0.0150573)
(1.19733 -0.119133 0.00499025)
(1.19044 -0.0629996 0.0180259)
(0.607281 -0.147338 0.00466114)
(1.1197 -0.0923802 -0.00961541)
(1.20943 -0.112761 -0.00309111)
(1.12226 -0.0953973 0.019739)
(1.20913 -0.110761 0.0086379)
(1.19148 -0.062229 -0.00956507)
(0.573145 0.134235 -0.00622247)
(1.11111 0.0697428 -0.0196121)
(1.11108 0.0689869 0.0015312)
(0.583077 0.138444 0.00118277)
(1.09294 0.0783486 -0.0367809)
(1.0924 0.0813315 -0.00111736)
(1.36924 -0.163417 0.0208396)
(0.317663 -0.0751887 0.000885811)
(1.27349 -0.160374 -0.000590374)
(1.27362 -0.160211 0.000518797)
(1.36881 -0.163704 -0.0207802)
(1.41721 -0.169771 -0.0216068)
(1.55475 -0.142065 0.0329928)
(1.41863 -0.169951 0.021545)
(1.55237 -0.141189 -0.0318879)
(1.36935 -0.164102 -0.0190786)
(0.317052 -0.0751285 0.00346028)
(1.27219 -0.161116 -0.00185844)
(1.3705 -0.164036 0.0190021)
(1.27167 -0.161354 0.00166791)
(1.41659 -0.169277 0.0231692)
(1.54993 -0.141015 -0.0329332)
(1.55059 -0.141231 0.0337995)
(1.41607 -0.169429 -0.0230152)
(1.18665 -0.0630072 0.00804974)
(0.607588 -0.147383 -0.00206759)
(1.11642 -0.0895786 -0.00641099)
(1.20696 -0.112089 -0.00329372)
(1.11671 -0.0901416 0.00721768)
(1.20705 -0.111712 0.00318171)
(1.18681 -0.0629823 -0.0079814)
(1.17623 -0.0635942 0.00408487)
(0.605352 -0.146598 0.00700467)
(1.1043 -0.0890593 -0.0106408)
(1.203 -0.114378 -0.0017711)
(1.17721 -0.063973 -0.00663839)
(1.1026 -0.0872411 0.00737926)
(1.20225 -0.114472 0.00105134)
(0.303011 0.0735986 0.000934339)
(0.298867 0.0726684 0.000180129)
(1.09967 0.0767164 -0.0204592)
(0.581506 0.138236 0.0014408)
(1.09918 0.0776634 -0.0024129)
(0.575735 0.13605 -0.00638885)
(1.10752 0.0727705 -0.0110762)
(1.1075 0.0725355 -0.00213277)
(1.36766 -0.164496 -0.0206664)
(1.27115 -0.160881 -0.00225544)
(0.316504 -0.0754887 0.00246337)
(1.3683 -0.164107 0.0190083)
(1.27068 -0.160982 -2.49191e-05)
(1.41468 -0.170024 0.0220544)
(1.54778 -0.141559 -0.0336541)
(1.54836 -0.141342 0.0331213)
(1.41415 -0.17045 -0.024116)
(1.41509 -0.170039 -0.0229766)
(1.55014 -0.141181 0.0327851)
(1.54926 -0.141194 -0.0328483)
(1.41578 -0.169761 0.0216839)
(1.36747 -0.164442 0.0194465)
(0.31588 -0.075351 0.000493065)
(1.27055 -0.160963 -0.00137355)
(1.27091 -0.160747 -0.0014341)
(1.36701 -0.164986 -0.0219621)
(1.17756 -0.0632296 -0.00129556)
(1.10673 -0.0872767 -0.00841998)
(1.20262 -0.11331 -0.00219559)
(0.606415 -0.147586 0.00354474)
(1.1786 -0.0634192 -0.00501215)
(1.10564 -0.0865197 0.0016558)
(1.20177 -0.113146 -0.00166592)
(1.18224 -0.0630755 0.00246546)
(0.606222 -0.147646 -0.00457749)
(1.11152 -0.0873205 -0.00488226)
(1.2031 -0.112268 -0.00389493)
(1.11182 -0.0875506 0.000826762)
(1.20348 -0.112087 0.000115194)
(1.18204 -0.063069 -0.00703344)
(0.573765 0.136613 -0.00762755)
(1.10441 0.0745739 -0.00966474)
(1.10446 0.0744538 -0.00637506)
(0.57931 0.138388 -0.000527592)
(1.10195 0.0759571 -0.012776)
(1.1015 0.0764092 -0.00521159)
(1.36511 -0.1661 0.01813)
(0.312622 -0.0754271 -7.4672e-06)
(1.26643 -0.161895 -0.00352564)
(1.26728 -0.161589 -0.00375995)
(1.36383 -0.166697 -0.0243972)
(1.41272 -0.171197 -0.0249292)
(1.54725 -0.141887 0.0328321)
(1.41361 -0.170721 0.0213316)
(1.54629 -0.142122 -0.0340066)
(1.36563 -0.165934 -0.0228314)
(0.314932 -0.0758748 0.00142834)
(1.26884 -0.161313 -0.00314529)
(1.36647 -0.165297 0.0185014)
(1.26817 -0.161571 -0.00198537)
(1.41206 -0.171395 0.0210719)
(1.5438 -0.14259 -0.0344918)
(1.54535 -0.142526 0.0330882)
(1.41063 -0.171771 -0.0262836)
(1.17869 -0.062967 -0.0021892)
(0.603745 -0.148165 -0.0067137)
(1.10756 -0.0855898 -0.00631793)
(1.19904 -0.112525 -0.00613218)
(1.1079 -0.085834 -0.00430433)
(1.19972 -0.112364 -0.00298731)
(1.17829 -0.0629728 -0.00845751)
(1.17732 -0.0630089 -0.0053855)
(0.606494 -0.148843 0.000462866)
(1.10687 -0.0859969 -0.00691096)
(1.20068 -0.112768 -0.00285003)
(1.17816 -0.0630738 -0.00407705)
(1.10605 -0.0855831 -0.00272343)
(1.19984 -0.112741 -0.00423569)
(0.299835 0.0761301 -0.00324117)
(0.293243 0.0746158 -0.00206511)
(1.10249 0.0757617 -0.0124172)
(0.579615 0.139561 -0.00639745)
(1.10233 0.0759608 -0.0109103)
(0.570722 0.136834 -0.011629)
(1.10361 0.0751294 -0.0142626)
(1.36076 -0.167217 -0.0271026)
(1.26487 -0.161846 -0.00588107)
(0.31364 -0.0765123 -0.00141402)
(1.36298 -0.166901 0.0169009)
(1.26351 -0.162113 -0.00600677)
(1.40552 -0.17225 0.0175763)
(1.53725 -0.143515 0.0325955)
(1.40703 -0.17201 -0.028678)
(1.54256 -0.14321 0.0331966)
(1.53924 -0.142675 -0.0352923)
(1.40965 -0.172032 0.0201461)
(1.35951 -0.16737 0.0139039)
(0.308134 -0.0753115 -0.00177022)
(1.26221 -0.161627 -0.00927737)
(1.17626 -0.0626064 -0.0103754)
(1.10592 -0.0846302 -0.00907511)
(1.19764 -0.112348 -0.00569019)
(0.607443 -0.15058 -0.00495638)
(1.17688 -0.062657 -0.00618112)
(1.10546 -0.0841294 -0.00861422)
(1.19656 -0.112452 -0.0086615)
(1.17667 -0.0622452 -0.00850943)
(0.600251 -0.148545 -0.0105671)
(1.10616 -0.0835302 -0.0118243)
(1.19603 -0.111843 -0.00877958)
(1.11863 0.215305 -0.11028)
(1.12994 0.191119 -0.101541)
(0.273353 0.066519 -0.0285662)
(1.09939 0.186143 -0.106684)
(1.15943 0.227183 -0.112317)
(0.568294 0.0161364 -0.132379)
(1.01554 0.182576 -0.143234)
(1.07568 0.191126 -0.132579)
(0.978384 0.0769824 -0.139247)
(0.229395 0.0467689 -0.115699)
(0.747338 0.357907 -0.264598)
(1.03512 0.0196294 -0.0511869)
(0.380007 0.120525 -0.0405172)
(1.18124 0.222373 -0.0131467)
(0.298713 0.0716606 -0.00298845)
(1.15483 0.177547 -0.0125654)
(1.15164 0.176403 -0.01602)
(1.18609 0.223978 -0.0163074)
(1.06066 0.190799 -0.00554437)
(1.06533 0.191325 -0.0556402)
(1.18215 0.224399 -0.0220833)
(0.304878 0.0728143 -0.00666084)
(1.15247 0.181276 -0.0326545)
(1.18802 0.226083 -0.0298424)
(1.14937 0.181134 -0.018848)
(1.03645 0.187968 -0.0372449)
(1.05287 0.19094 0.00446644)
(1.1771 0.2273 -0.00967145)
(0.295414 0.0738615 -0.000794311)
(1.14961 0.179223 -0.00759823)
(1.14668 0.178656 -0.0129324)
(1.18167 0.228553 -0.0121237)
(1.04126 0.194936 0.0135751)
(1.04817 0.194843 -0.0338192)
(1.17832 0.226614 -0.007911)
(0.300591 0.0741927 -0.000422743)
(1.15056 0.179924 -0.0115356)
(1.18309 0.227765 -0.00734171)
(1.14784 0.179316 -0.00451169)
(1.03186 0.195366 -0.032964)
(1.04702 0.198157 0.00729258)
(1.13765 0.128541 -0.115358)
(1.16025 0.15218 -0.0986899)
(0.864063 0.099326 -0.0571702)
(0.537379 0.127251 -0.0504893)
(1.14064 0.152537 -0.11344)
(0.866661 0.108629 -0.0841723)
(1.14673 0.123823 -0.0983975)
(1.10333 0.0286787 -0.0585686)
(0.471153 0.0917215 -0.16746)
(0.944554 0.292849 -0.220007)
(0.883712 0.208461 -0.103483)
(1.10631 0.000670388 -0.0386208)
(0.816081 0.0673838 -0.120236)
(1.06076 0.15157 -0.184053)
(1.17608 -0.228819 -0.0209221)
(1.15307 -0.189763 -0.00121721)
(0.313184 -0.0737003 -0.0033349)
(1.14734 -0.188325 -0.0158333)
(1.18119 -0.231145 -0.0106322)
(0.883347 -0.118961 0.0903849)
(0.559843 -0.150908 0.0339946)
(1.0347 -0.190438 -0.0587935)
(1.04875 -0.187922 -0.00987075)
(1.13236 -0.15632 -0.0248734)
(0.26673 -0.0547295 -0.0361578)
(1.00844 -0.214946 0.00962514)
(1.15836 -0.124021 -0.0266043)
(1.06693 -0.233352 -0.00983347)
(1.16743 -0.116576 -0.0140387)
(0.905424 -0.126036 0.00629663)
(1.18146 -0.148292 0.0072697)
(0.601715 -0.147244 -0.0110686)
(0.901234 -0.125045 -0.0121993)
(1.17814 -0.148139 -0.015527)
(1.16787 -0.118952 0.00927219)
(1.31213 -0.139773 -0.0387479)
(0.542305 -0.11654 -0.0555178)
(0.96501 -0.049883 -0.017472)
(0.992329 -0.198023 0.0103113)
(0.9857 -0.139261 -0.0218972)
(1.26378 -0.100938 -0.0230175)
(1.03697 -0.124958 -0.0211514)
(1.18496 0.225192 -0.0560857)
(1.15744 0.187906 -0.0839977)
(0.302836 0.0715203 -0.0212596)
(1.20441 0.237471 -0.0885948)
(1.14562 0.183415 -0.0517128)
(1.03079 0.183004 -0.0511693)
(1.05472 0.187299 -0.0241053)
(1.09736 0.195838 -0.0634143)
(1.11751 0.205593 -0.122493)
(1.17672 0.217863 -0.0294255)
(0.293365 0.0693838 -0.00790839)
(1.15304 0.176366 -0.0307404)
(1.18358 0.220692 -0.0351583)
(1.14782 0.17411 -0.0309278)
(1.15789 0.115021 -0.0507672)
(1.17948 0.136788 -0.0852731)
(0.865578 0.0923604 -0.0591732)
(0.574853 0.135843 -0.0361899)
(1.15968 0.103624 -0.0781556)
(1.17229 0.140703 -0.0469441)
(0.872269 0.10338 -0.0530321)
(1.17117 0.0988617 -0.0329546)
(0.563961 0.13043 -0.0199028)
(1.18345 0.129965 -0.0277253)
(0.889964 0.0979433 -0.0309756)
(1.1803 0.127868 -0.035578)
(0.888689 0.096888 -0.0272501)
(1.17296 0.100479 -0.0333735)
(1.17893 -0.225125 -0.00641885)
(1.15019 -0.181974 -0.00496614)
(0.313173 -0.0740471 0.00110813)
(1.17807 -0.223492 -0.00439216)
(1.15202 -0.183825 -0.000905047)
(1.03622 -0.183218 -0.0341239)
(1.05024 -0.184858 0.0226408)
(1.03171 -0.183335 0.00531188)
(1.03429 -0.183966 -0.0441553)
(1.18672 -0.224644 -0.00278448)
(0.318617 -0.0751778 -0.00123818)
(1.16364 -0.184642 -0.000425185)
(1.16074 -0.183612 -0.00503577)
(1.19197 -0.226205 -0.00401886)
(1.16746 -0.116386 0.00417102)
(0.905572 -0.125005 -0.002793)
(1.17904 -0.142084 -0.00922369)
(0.598435 -0.144781 0.00188862)
(1.1671 -0.115856 -0.00720862)
(0.903635 -0.124095 -0.00504653)
(1.18018 -0.144027 0.00568424)
(1.17992 -0.115874 -0.00854309)
(0.610249 -0.148773 -0.00635079)
(0.915231 -0.125076 -0.00604742)
(1.19224 -0.143992 0.00417513)
(0.916998 -0.126287 -0.00388118)
(1.19107 -0.143435 -0.00994938)
(1.17954 -0.116008 0.000788291)
(1.17194 0.1001 -0.0192411)
(0.574455 0.134577 -0.0118338)
(1.18339 0.129965 -0.00846088)
(0.896375 0.100453 -0.0151157)
(1.18155 0.129043 -0.0214249)
(0.895949 0.0999924 -0.0137931)
(1.17293 0.100863 -0.0128655)
(1.16397 0.11297 -0.0167952)
(0.58227 0.138272 -0.0114291)
(1.17858 0.137314 -0.0397754)
(0.88694 0.102669 -0.0340183)
(1.17648 0.138844 -0.0142408)
(1.16467 0.110182 -0.0410384)
(0.888042 0.105334 -0.020704)
(1.18794 -0.224552 -0.00247794)
(0.317495 -0.0753382 -0.000562285)
(1.16351 -0.184367 -0.000469276)
(1.16106 -0.183753 -0.00526195)
(1.19258 -0.22558 -0.00368828)
(1.03958 -0.183329 0.0243057)
(1.04773 -0.183974 -0.0316622)
(1.18662 -0.225296 -0.00106893)
(0.316304 -0.0749138 0.00156139)
(1.16202 -0.184719 -0.00508242)
(1.19136 -0.226134 -0.00125665)
(1.15885 -0.184358 0.00187422)
(1.03885 -0.182655 -0.0313729)
(1.05117 -0.184063 0.0248272)
(1.17853 -0.115237 -0.00915139)
(0.608604 -0.148107 -0.00625053)
(0.911812 -0.123217 -0.00432398)
(1.19189 -0.143638 0.00422937)
(0.913061 -0.123899 -0.00401823)
(1.19076 -0.143353 -0.0104419)
(1.17852 -0.115177 0.00148012)
(1.17235 -0.116093 0.00484502)
(0.604185 -0.146376 0.00213461)
(0.908357 -0.123747 -0.0106609)
(1.1892 -0.144472 -0.011538)
(1.17443 -0.116189 -0.0129186)
(0.906038 -0.122849 -0.00251355)
(1.18671 -0.144256 0.00660908)
(1.1806 0.225453 -0.0107705)
(1.1525 0.180191 -0.0167402)
(0.303151 0.0734242 -0.00154674)
(1.18566 0.226537 -0.0126765)
(1.14959 0.179868 -0.00763257)
(1.03615 0.192039 -0.0330422)
(1.05078 0.194745 0.0118881)
(1.04823 0.192148 0.0112033)
(1.05446 0.192226 -0.0395354)
(1.17987 0.225242 -0.00846184)
(0.298122 0.0728944 -0.000966351)
(1.15252 0.178709 -0.00672737)
(1.18439 0.22654 -0.0106942)
(1.14975 0.177967 -0.0117256)
(1.16595 0.107883 -0.00543034)
(1.17898 0.134502 -0.0238711)
(0.893722 0.103212 -0.019062)
(0.581757 0.138367 -0.00350313)
(1.16684 0.106808 -0.0244975)
(1.17704 0.134841 -0.0027959)
(0.89384 0.104295 -0.0102967)
(1.1685 0.102015 -0.015194)
(0.575387 0.136173 -0.00887693)
(1.17976 0.130578 -0.00162817)
(0.897176 0.101558 -0.00842292)
(1.17817 0.130201 -0.0172326)
(0.897056 0.101539 -0.00976742)
(1.16937 0.102245 -0.0048578)
(1.18642 -0.224655 -0.00141532)
(1.16192 -0.184866 -0.005011)
(0.31631 -0.0753452 0.00160915)
(1.19141 -0.225932 -0.00120549)
(1.15868 -0.184189 0.0011973)
(1.03705 -0.182038 -0.031198)
(1.04976 -0.183609 0.0221688)
(1.04032 -0.182838 0.025172)
(1.04911 -0.18363 -0.030747)
(1.18603 -0.224414 -0.00380077)
(0.315043 -0.0754074 -0.000179574)
(1.16112 -0.184752 -0.0015337)
(1.15868 -0.184244 -0.00649864)
(1.19051 -0.22529 -0.00484754)
(1.17321 -0.115397 0.00401468)
(0.907302 -0.122624 -0.00853642)
(1.18952 -0.144349 -0.0111113)
(0.605942 -0.147405 0.00130491)
(1.17485 -0.115524 -0.0116935)
(0.905705 -0.122267 -0.00224261)
(1.18726 -0.143908 0.0058051)
(1.17515 -0.115124 -0.0103232)
(0.606257 -0.148125 -0.00652638)
(0.906896 -0.122713 -0.00313543)
(1.1896 -0.14402 0.00349816)
(0.907681 -0.123123 -0.00497157)
(1.18828 -0.143817 -0.011535)
(1.17554 -0.115004 0.00164978)
(1.16473 0.102843 -0.0161008)
(0.572872 0.136716 -0.00906308)
(1.17598 0.13035 -0.00169614)
(0.896885 0.101907 -0.00813119)
(1.17413 0.130251 -0.0182835)
(0.896625 0.102007 -0.0106304)
(1.16591 0.102771 -0.00422655)
(1.16528 0.105234 -0.00189237)
(0.579499 0.138394 -0.00186476)
(1.17692 0.132617 -0.0179957)
(0.89577 0.10275 -0.0125315)
(1.1753 0.132371 0.000723011)
(1.1659 0.104892 -0.0173382)
(0.89572 0.103247 -0.00699027)
(1.18281 -0.223636 -0.00721277)
(0.311303 -0.0754184 -0.000531116)
(1.15803 -0.184843 -0.00508838)
(1.15524 -0.184287 -0.0096025)
(1.18745 -0.224527 -0.00869423)
(1.03843 -0.182358 0.0214296)
(1.04658 -0.183048 -0.0309192)
(1.18432 -0.224062 -0.00322307)
(0.314865 -0.0757147 0.00134989)
(1.15978 -0.185045 -0.00579182)
(1.18928 -0.225518 -0.00231584)
(1.15675 -0.184281 -0.000556679)
(1.03273 -0.181334 -0.0325067)
(1.04696 -0.183221 0.013473)
(1.17158 -0.114868 -0.0131534)
(0.602996 -0.148482 -0.00792293)
(0.902424 -0.122741 -0.00504331)
(1.18691 -0.144145 0.000273745)
(0.90262 -0.122911 -0.00781275)
(1.18513 -0.143921 -0.0143403)
(1.17255 -0.114738 -0.000906746)
(1.17231 -0.114978 0.00263798)
(0.606208 -0.148598 9.00419e-05)
(0.904558 -0.122466 -0.00732317)
(1.18796 -0.144369 -0.011398)
(1.17335 -0.115142 -0.0111749)
(0.903566 -0.122418 -0.00280733)
(1.18614 -0.143885 0.00420547)
(1.17585 0.227874 -0.0116977)
(1.14785 0.179539 -0.0131137)
(0.299052 0.0755446 -0.00221448)
(1.18017 0.229082 -0.00913894)
(1.14573 0.178735 -0.00769404)
(1.0354 0.19783 0.00454781)
(1.04124 0.197505 -0.0338184)
(1.16376 0.10352 -0.00431969)
(1.17385 0.130907 -0.0189506)
(0.896242 0.10228 -0.0126995)
(0.578591 0.139165 -0.00489964)
(1.16367 0.103623 -0.017296)
(1.17293 0.130313 -0.00187733)
(0.89654 0.102577 -0.00923122)
(1.18136 -0.22274 -0.00850268)
(1.15642 -0.184653 -0.00945192)
(0.313148 -0.0762378 -0.000432064)
(1.18587 -0.224336 -0.00647078)
(1.15405 -0.183842 -0.00548781)
(1.03533 -0.181887 0.00991635)
(1.04157 -0.182279 -0.0329196)
(1.17069 -0.11422 -0.00159849)
(0.901139 -0.122448 -0.00962805)
(1.18528 -0.143956 -0.0145013)
(0.606505 -0.150129 -0.00344545)
(1.17087 -0.114482 -0.013709)
(0.900937 -0.122588 -0.00643785)
(1.18422 -0.143418 -0.000408924)
(1.10879 0.220527 -0.112045)
(1.19304 0.233789 -0.120703)
(1.11904 0.215633 -0.116245)
(1.14887 0.234932 -0.122388)
(1.10671 0.164425 -0.0899609)
(0.270621 0.0629768 -0.0379231)
(1.13516 0.140913 -0.0348918)
(1.167 0.215867 -0.0721118)
(1.0808 0.111039 -0.0779482)
(1.09413 0.200169 -0.0996229)
(1.22294 0.279186 -0.193362)
(1.13583 0.210067 -0.116844)
(1.15702 0.258391 -0.112984)
(0.853091 0.0692933 -0.178217)
(1.11128 0.189206 -0.274545)
(0.646863 0.0222519 -0.147881)
(0.820859 0.0740267 -0.210405)
(0.914425 0.0634393 -0.19479)
(1.18281 0.257948 -0.240963)
(1.17456 0.202761 -0.266617)
(0.929686 0.0979518 -0.22839)
(1.07781 0.186909 -0.139959)
(1.15302 0.213564 -0.121423)
(1.07918 0.199331 -0.124375)
(1.14109 0.196919 -0.127693)
(1.04474 0.177759 -0.153923)
(1.14506 0.218003 -0.245554)
(1.1049 0.180685 -0.145372)
(1.19218 0.257486 -0.213073)
(1.09856 0.195292 -0.127443)
(1.20656 0.228999 -0.246374)
(1.07887 0.311357 -0.236889)
(0.255557 0.0770773 -0.0812974)
(1.1259 0.329625 -0.0529138)
(1.14322 0.327699 -0.101292)
(1.08606 0.36982 -0.231855)
(0.858785 0.0921675 -0.199333)
(0.894091 0.0903419 -0.224063)
(1.06322 0.228047 -0.244386)
(1.21841 0.289851 -0.224377)
(1.1495 0.295947 -0.17011)
(0.999714 0.133942 -0.234607)
(1.18145 0.221257 -0.010826)
(0.303609 0.0728002 -0.00151621)
(1.15309 0.176339 -0.00849747)
(1.1849 0.222322 -0.00598574)
(1.15224 0.175262 -0.00708716)
(1.1671 0.237507 -0.0109985)
(1.18462 0.226661 -0.00652472)
(1.16995 0.223251 -0.0227707)
(1.17288 0.239478 -0.0190859)
(1.16649 0.236761 -0.0134583)
(1.18106 0.225068 -0.0177304)
(1.1728 0.238039 -0.00430477)
(1.17405 0.223904 -0.001622)
(1.12848 0.196793 -0.00732323)
(1.1498 0.210658 -0.0446159)
(1.14438 0.208665 -0.0116524)
(1.13412 0.19761 -0.0530706)
(1.05276 0.190325 -0.0437897)
(1.06724 0.19259 0.00998124)
(1.12079 0.196321 -0.0409379)
(1.15235 0.210705 0.00231673)
(1.13763 0.208747 -0.0327713)
(1.13606 0.198876 0.00766359)
(1.18206 0.226164 -0.0192165)
(0.297144 0.0709663 -0.00535315)
(1.15367 0.183063 -0.00618181)
(1.18844 0.227489 -0.0110937)
(1.14845 0.182627 -0.0216166)
(1.17097 0.238166 -0.0253246)
(1.19245 0.228935 -0.0407672)
(1.18647 0.226703 -0.0141065)
(1.17965 0.241138 -0.0273421)
(1.17212 0.239874 -0.0165144)
(1.19466 0.228995 -0.000621576)
(1.17816 0.241678 -0.0150872)
(1.18054 0.226883 -0.0287593)
(1.10473 0.193634 -0.0344736)
(1.14149 0.20833 -0.00305046)
(1.12581 0.205244 -0.0267603)
(1.12167 0.196825 0.00203432)
(1.04219 0.188975 0.00919936)
(1.04899 0.188679 -0.0335769)
(1.11016 0.194741 0.00691367)
(1.13743 0.206763 -0.0224785)
(1.13058 0.205976 0.00154813)
(1.11786 0.194539 -0.0305452)
(1.17727 0.226759 -0.00799453)
(0.299487 0.074709 -0.000444082)
(1.14929 0.179293 -0.00927762)
(1.18155 0.228014 -0.00548254)
(1.1472 0.178349 -0.00417914)
(1.16161 0.244074 -0.00749615)
(1.17746 0.229962 -0.00190506)
(1.16425 0.227168 -0.0196321)
(1.16695 0.245784 -0.015159)
(1.16136 0.243458 -0.0107361)
(1.17569 0.228887 -0.0172418)
(1.16795 0.245033 -0.0031187)
(1.16809 0.227691 0.00185777)
(1.10912 0.200064 0.011181)
(1.13589 0.210214 -0.0233623)
(1.12842 0.209311 0.00601871)
(1.11696 0.200241 -0.0307991)
(1.03668 0.194438 -0.0329118)
(1.0509 0.196965 0.0132461)
(1.10481 0.199507 -0.030114)
(1.13817 0.211382 0.00574983)
(1.12472 0.208988 -0.0231554)
(1.11954 0.202164 0.0108233)
(1.17839 0.227271 -0.00865835)
(0.296773 0.0733967 -0.00092721)
(1.1505 0.180147 -0.00454753)
(1.1831 0.228421 -0.00902061)
(1.14746 0.179727 -0.0119636)