/*--------------------------------*- C++ -*----------------------------------*\
| =========                 |                                                 |
| \\      /  F ield         | OpenFOAM: The Open Source CFD Toolbox           |
|  \\    /   O peration     | Version:  2012                                  |
|   \\  /    A nd           | Website:  www.openfoam.com                      |
|    \\/     M anipulation  |                                                 |
\*---------------------------------------------------------------------------*/
FoamFile
{
    version     2.0;
    format      ascii;
    class       surfaceVectorField;
    location    "0.105/fluid";
    object      Uf;
}
// * * * * * * * * * * * * * * * * * * * * * * * * * * * * * * * * * * * * * //

dimensions      [0 1 -1 0 0 0 0];


internalField   nonuniform List<vector> 
46515
(
(0.878935 -0.118486 -0.0215303)
(1.23103 -0.0504792 -0.00575151)
(1.25812 -0.0384221 -0.00642226)
(1.25455 -0.0396566 -0.00278836)
(0.895334 -0.10197 -0.0376506)
(1.54065 -0.0500856 -0.0144623)
(1.51701 -0.0635237 -0.0198621)
(1.20301 -0.00626582 0.0120023)
(1.20953 -0.0151571 0.00497105)
(1.21227 -0.0255605 0.00333471)
(1.21046 -0.0110991 0.0060557)
(1.20323 -0.01062 0.00611391)
(1.19746 -0.0138741 0.00240184)
(1.20383 -0.0126968 0.00241813)
(1.20434 -0.013642 -0.000309634)
(1.20181 -0.0117505 0.00162488)
(1.1999 -0.0113976 0.00150757)
(1.19781 -0.00832976 0.000336982)
(1.19891 -0.00826397 0.000352894)
(1.19857 -0.0075605 0.000127477)
(1.19859 -0.00753584 0.000126789)
(1.20036 -0.00823488 -0.000430326)
(1.1979 -0.00560143 -0.000193157)
(1.1982 -0.00571296 -0.000187083)
(1.19821 -0.00517307 -0.000211185)
(1.19846 -0.00524248 -0.000210492)
(1.19958 -0.00546723 -0.000369603)
(1.19819 -0.00370084 -0.000185994)
(1.19836 -0.00380304 -0.000191439)
(1.19842 -0.00342295 -0.000174827)
(1.19858 -0.00349282 -0.00017943)
(1.19944 -0.00359858 -0.000277082)
(1.19852 -0.0024012 -0.000120383)
(1.19861 -0.00248095 -0.00012574)
(1.19867 -0.00222475 -0.00011208)
(1.19876 -0.00228054 -0.000116102)
(1.19945 -0.00234212 -0.000184683)
(1.19878 -0.0015408 -7.76183e-05)
(1.19884 -0.00159857 -8.10696e-05)
(1.19889 -0.00143054 -7.32871e-05)
(1.19894 -0.00147106 -7.61879e-05)
(1.19953 -0.00150899 -0.000122665)
(1.199 -0.000983748 -5.43396e-05)
(1.19902 -0.0010237 -5.63592e-05)
(1.19906 -0.000914348 -5.23487e-05)
(1.19908 -0.000942404 -5.42669e-05)
(1.19962 -0.000966717 -8.48396e-05)
(1.19917 -0.000623146 -4.13707e-05)
(1.19917 -0.000650236 -4.2915e-05)
(1.19921 -0.000580143 -4.04981e-05)
(1.19922 -0.00059958 -4.17459e-05)
(1.1997 -0.000614012 -6.15798e-05)
(1.1993 -0.000392964 -3.09404e-05)
(1.1993 -0.0004108 -3.24564e-05)
(1.19933 -0.000365624 -3.04874e-05)
(1.19933 -0.000378203 -3.16252e-05)
(1.19976 -0.000387951 -4.37314e-05)
(1.19941 -0.00024726 -2.70057e-05)
(1.19941 -0.000258575 -2.7521e-05)
(1.19943 -0.000230051 -2.73002e-05)
(1.19943 -0.000238399 -2.77943e-05)
(1.1998 -0.000244864 -3.47232e-05)
(1.19951 -0.000153741 -2.60186e-05)
(1.1995 -0.000161647 -2.67164e-05)
(1.19953 -0.000143404 -2.62013e-05)
(1.19952 -0.000149644 -2.68841e-05)
(1.19984 -0.000153474 -2.94627e-05)
(1.1996 -9.43093e-05 -2.46633e-05)
(1.19959 -9.90621e-05 -2.51013e-05)
(1.19961 -8.70596e-05 -2.53359e-05)
(1.1996 -9.11081e-05 -2.56235e-05)
(1.19987 -9.44118e-05 -2.36526e-05)
(1.19968 -5.07959e-05 -2.61512e-05)
(1.19967 -5.55488e-05 -2.67917e-05)
(1.19969 -4.59054e-05 -2.6277e-05)
(1.19968 -4.98949e-05 -2.73804e-05)
(1.19988 -5.25533e-05 -2.31008e-05)
(1.22491 -0.00521912 0.000112117)
(1.21768 -0.0088801 0.000198017)
(1.22026 -0.00660958 -0.000143404)
(1.21951 -0.00322468 7.58718e-05)
(1.20904 -0.00975635 0.00127039)
(1.21306 -0.0134969 0.000868811)
(1.21404 -0.0140117 0.000336738)
(1.21148 -0.0126219 0.000814169)
(1.21044 -0.00840824 0.000720042)
(1.20312 -0.00859944 0.000294285)
(1.20638 -0.00929223 0.000310691)
(1.20496 -0.00829098 0.000161313)
(1.20444 -0.00690864 0.000163299)
(1.20744 -0.00898501 -0.000164394)
(1.20092 -0.0060008 -0.000130156)
(1.20199 -0.00595228 -0.000111648)
(1.20138 -0.00536817 -0.000153469)
(1.20166 -0.00505469 -0.000139395)
(1.20328 -0.00566588 -0.000294129)
(1.20001 -0.00403769 -0.000192562)
(1.20035 -0.00400008 -0.000186079)
(1.20017 -0.00363142 -0.000180745)
(1.20045 -0.00356292 -0.000175329)
(1.20158 -0.00378753 -0.000276501)
(1.1996 -0.00271529 -0.000148318)
(1.1998 -0.00270418 -0.000148778)
(1.19972 -0.00244612 -0.000136092)
(1.19989 -0.0024142 -0.000136649)
(1.2008 -0.00255499 -0.000210741)
(1.19941 -0.00179954 -9.98411e-05)
(1.19953 -0.00179952 -0.000101935)
(1.19949 -0.00162155 -9.28202e-05)
(1.1996 -0.00160606 -9.44042e-05)
(1.20037 -0.00169983 -0.000148071)
(1.19934 -0.00117601 -7.09282e-05)
(1.19941 -0.00118077 -7.26374e-05)
(1.19939 -0.00106084 -6.73622e-05)
(1.19945 -0.00105435 -6.8721e-05)
(1.20014 -0.00111548 -0.000106362)
(1.19934 -0.000761683 -5.25007e-05)
(1.19938 -0.000766666 -5.40815e-05)
(1.19937 -0.000686925 -5.03168e-05)
(1.19941 -0.000683933 -5.16367e-05)
(1.20001 -0.000724022 -7.71298e-05)
(1.19936 -0.00048712 -4.06638e-05)
(1.19939 -0.000491188 -4.17726e-05)
(1.19939 -0.000438631 -3.93726e-05)
(1.19941 -0.000437259 -4.05375e-05)
(1.19995 -0.000463549 -5.71025e-05)
(1.19942 -0.00030968 -3.31451e-05)
(1.19942 -0.000313082 -3.39831e-05)
(1.19944 -0.000279374 -3.26609e-05)
(1.19944 -0.000279472 -3.33496e-05)
(1.19993 -0.000295972 -4.35789e-05)
(1.19948 -0.000195604 -3.03901e-05)
(1.19948 -0.000197846 -3.0793e-05)
(1.19949 -0.000176751 -3.07022e-05)
(1.19949 -0.000176743 -3.09169e-05)
(1.19992 -0.000187662 -3.64527e-05)
(1.19955 -0.000125266 -2.84143e-05)
(1.19955 -0.000126553 -2.89686e-05)
(1.19956 -0.000113423 -2.83999e-05)
(1.19956 -0.000113903 -2.87451e-05)
(1.19992 -0.000120278 -3.00392e-05)
(1.19962 -7.69955e-05 -2.80163e-05)
(1.19961 -7.743e-05 -2.80309e-05)
(1.19963 -6.71403e-05 -2.873e-05)
(1.19962 -6.95155e-05 -2.85145e-05)
(1.19992 -7.28771e-05 -2.51839e-05)
(1.1997 -4.31259e-05 -3.06655e-05)
(1.19969 -4.15217e-05 -3.08387e-05)
(1.19971 -3.50895e-05 -3.0714e-05)
(1.1997 -3.97507e-05 -3.14198e-05)
(1.19992 -3.93605e-05 -2.58061e-05)
(1.21373 -0.000574414 5.32256e-05)
(1.21246 -0.00243687 7.08458e-05)
(1.21247 -0.000537916 4.03659e-05)
(1.21335 -0.00189927 3.81099e-05)
(1.20971 -0.00355737 0.000195041)
(1.21064 -0.00435439 0.000163447)
(1.20971 -0.00443032 0.000149376)
(1.20973 -0.00260013 0.000136307)
(1.21124 -0.00453502 4.19073e-05)
(1.20556 -0.00381261 1.2394e-05)
(1.2067 -0.00383502 2.92854e-05)
(1.20576 -0.00353617 -1.22134e-05)
(1.206 -0.00270562 2.84226e-06)
(1.20748 -0.00370584 -0.00010295)
(1.20296 -0.00295526 -0.000105165)
(1.20349 -0.00270898 -9.01699e-05)
(1.20293 -0.00248179 -0.000102869)
(1.20328 -0.00216942 -9.15306e-05)
(1.20447 -0.00257252 -0.00018723)
(1.20143 -0.00207759 -0.000124682)
(1.20171 -0.00190851 -0.000117645)
(1.20141 -0.00174304 -0.000116892)
(1.20165 -0.00156305 -0.000112443)
(1.2027 -0.00180694 -0.000190182)
(1.20054 -0.00142428 -0.000106093)
(1.20071 -0.00131471 -0.000104845)
(1.20053 -0.00119359 -9.8947e-05)
(1.20068 -0.00107474 -9.88291e-05)
(1.20161 -0.00124215 -0.000158904)
(1.20001 -0.000956934 -8.04276e-05)
(1.20012 -0.000886505 -8.12423e-05)
(1.20002 -0.000801164 -7.60225e-05)
(1.20011 -0.000723714 -7.70048e-05)
(1.20093 -0.000837584 -0.000121953)
(1.19972 -0.000633666 -6.17765e-05)
(1.19978 -0.000587703 -6.27946e-05)
(1.19973 -0.000528903 -5.91127e-05)
(1.19978 -0.000480018 -6.00318e-05)
(1.20051 -0.000554761 -9.2202e-05)
(1.19957 -0.000411841 -4.99515e-05)
(1.1996 -0.000381574 -5.09374e-05)
(1.19958 -0.000341748 -4.87079e-05)
(1.19961 -0.0003126 -4.96975e-05)
(1.20026 -0.000360399 -7.16714e-05)
(1.19951 -0.000264812 -4.08586e-05)
(1.19953 -0.00024244 -4.2114e-05)
(1.19952 -0.00021599 -3.99663e-05)
(1.19954 -0.000200811 -4.1296e-05)
(1.20012 -0.000229256 -5.57192e-05)
(1.19951 -0.000170484 -3.37018e-05)
(1.19952 -0.000152896 -3.44772e-05)
(1.19952 -0.000136004 -3.34511e-05)
(1.19953 -0.000130061 -3.3783e-05)
(1.20004 -0.000144231 -4.26086e-05)
(1.19953 -0.000108616 -3.18265e-05)
(1.19954 -9.35566e-05 -3.21375e-05)
(1.19955 -8.29816e-05 -3.14607e-05)
(1.19955 -8.25822e-05 -3.18278e-05)
(1.19999 -8.76542e-05 -3.67523e-05)
(1.19958 -7.00748e-05 -2.85137e-05)
(1.19958 -5.47863e-05 -2.88236e-05)
(1.19959 -4.61918e-05 -2.85332e-05)
(1.19959 -5.22764e-05 -2.84862e-05)
(1.19997 -5.02683e-05 -2.90636e-05)
(1.19964 -4.1885e-05 -2.99586e-05)
(1.19963 -2.54894e-05 -2.97716e-05)
(1.19964 -2.0024e-05 -3.07928e-05)
(1.19964 -3.1349e-05 -3.04179e-05)
(1.19995 -2.32743e-05 -2.64604e-05)
(1.19971 -2.56165e-05 -3.31911e-05)
(1.1997 -8.9331e-06 -3.31466e-05)
(1.19972 -6.62567e-06 -3.29892e-05)
(1.19971 -2.23548e-05 -3.33489e-05)
(1.19994 -7.92347e-06 -2.75683e-05)
(1.30043 -0.0574365 0.00542346)
(1.25472 -0.0292193 -0.00225237)
(1.23314 -0.0398194 -0.00163781)
(1.25379 -0.0291625 -0.000459822)
(1.2563 -0.0275325 -0.000582064)
(1.27743 -0.0602169 0.00225791)
(1.29922 -0.0572913 -0.00543019)
(1.27645 -0.0600904 -0.0034149)
(1.20082 -0.0192397 -0.00343149)
(1.20942 -0.0402829 -0.00263861)
(1.21099 -0.0362076 -0.00119098)
(1.2108 -0.0351713 -0.00102072)
(1.21153 -0.0243608 -0.00283413)
(1.20359 -0.0217307 -0.00219273)
(1.20407 -0.0113643 -0.00225105)
(1.20129 -0.00972617 -0.00332889)
(1.20661 -0.00869792 -0.00272506)
(1.20427 -0.0104339 -0.00178308)
(1.20508 -0.00837093 -0.0025525)
(1.20279 -0.00855143 -0.00240639)
(1.20081 -0.00769846 -0.00173907)
(1.20092 -0.00735408 -0.00199539)
(1.20198 -0.00715776 -0.00192114)
(1.20131 -0.00673932 -0.00173719)
(1.20134 -0.00670104 -0.00170446)
(1.20101 -0.00740714 -0.00167324)
(1.1999 -0.00525229 -0.0011544)
(1.19982 -0.00527272 -0.00128872)
(1.20018 -0.0053526 -0.00128592)
(1.20001 -0.00489276 -0.00116626)
(1.20031 -0.00494638 -0.0011631)
(1.20003 -0.00512668 -0.00128927)
(1.19969 -0.00348819 -0.000773743)
(1.19953 -0.00355241 -0.000875874)
(1.19975 -0.00364446 -0.000882463)
(1.19972 -0.00328589 -0.000806414)
(1.19991 -0.00334893 -0.000811568)
(1.19977 -0.00342392 -0.000941087)
(1.19965 -0.00227946 -0.000536989)
(1.19955 -0.00231734 -0.000605492)
(1.19968 -0.00239142 -0.000615139)
(1.19968 -0.0021474 -0.000561037)
(1.1998 -0.00219891 -0.000569592)
(1.19971 -0.00224357 -0.000657297)
(1.1997 -0.00147371 -0.000366863)
(1.19963 -0.00149437 -0.000412971)
(1.19971 -0.00154899 -0.000422614)
(1.19972 -0.00138816 -0.000383855)
(1.1998 -0.00142656 -0.000392329)
(1.19974 -0.00145308 -0.000450417)
(1.19977 -0.000947989 -0.00024897)
(1.19973 -0.00095962 -0.000278992)
(1.19977 -0.000997789 -0.000287079)
(1.19979 -0.000892899 -0.00026033)
(1.19984 -0.000920051 -0.000267596)
(1.1998 -0.00093661 -0.000306269)
(1.19983 -0.000604484 -0.000168452)
(1.19981 -0.000611542 -0.000186843)
(1.19984 -0.000637492 -0.00019321)
(1.19985 -0.000569316 -0.000175037)
(1.19988 -0.000587797 -0.000180689)
(1.19985 -0.000598337 -0.000206695)
(1.19988 -0.000383587 -0.000113566)
(1.19987 -0.000387936 -0.000124769)
(1.19989 -0.000405052 -0.000129759)
(1.1999 -0.000361197 -0.000117204)
(1.19991 -0.000373547 -0.000121692)
(1.1999 -0.000380514 -0.000139707)
(1.19992 -0.000242402 -7.74903e-05)
(1.19991 -0.000244821 -8.34818e-05)
(1.19992 -0.000255844 -8.68288e-05)
(1.19993 -0.000228044 -7.85563e-05)
(1.19994 -0.000236103 -8.15882e-05)
(1.19993 -0.000240512 -9.45286e-05)
(1.19995 -0.00015205 -5.16454e-05)
(1.19995 -0.000153018 -5.38562e-05)
(1.19995 -0.000160579 -5.66432e-05)
(1.19996 -0.000142518 -5.01142e-05)
(1.19997 -0.000148203 -5.26923e-05)
(1.19996 -0.000150886 -6.28068e-05)
(1.19997 -9.30313e-05 -3.12256e-05)
(1.19997 -9.31223e-05 -3.08337e-05)
(1.19997 -9.83649e-05 -3.29161e-05)
(1.19998 -8.62594e-05 -2.81049e-05)
(1.19998 -9.03864e-05 -2.99528e-05)
(1.19998 -9.21498e-05 -3.8491e-05)
(1.19999 -5.19528e-05 -1.89883e-05)
(1.19998 -5.14795e-05 -1.66204e-05)
(1.19999 -5.54376e-05 -1.75531e-05)
(1.19999 -4.66808e-05 -1.49481e-05)
(1.2 -5.01588e-05 -1.57864e-05)
(1.19999 -5.11183e-05 -2.30153e-05)
(1.22588 -0.00432007 0.000131515)
(1.21988 -0.00670824 3.53934e-05)
(1.2185 -0.00902698 -8.01986e-05)
(1.21954 -0.00672259 0.00025685)
(1.22014 -0.00299889 0.000117565)
(1.21395 -0.0145642 -0.000651692)
(1.2104 -0.0101788 -0.000913312)
(1.21446 -0.0143479 -0.000779562)
(1.2138 -0.0144209 -0.000602501)
(1.21301 -0.0130791 -0.000917892)
(1.21177 -0.00867073 -0.000768235)
(1.20741 -0.0087157 -0.0010305)
(1.2052 -0.00788538 -0.00125676)
(1.20835 -0.00877471 -0.00112982)
(1.20699 -0.00773513 -0.00114535)
(1.20631 -0.0064252 -0.00105794)
(1.2074 -0.00851734 -0.00104002)
(1.20345 -0.0054369 -0.000979263)
(1.20293 -0.00557525 -0.00111503)
(1.20395 -0.00554865 -0.00106858)
(1.20326 -0.00502794 -0.00101849)
(1.20349 -0.00472599 -0.000983345)
(1.2035 -0.00530523 -0.0010873)
(1.20178 -0.00365452 -0.00075957)
(1.20161 -0.00383438 -0.000865832)
(1.20196 -0.0037942 -0.000853361)
(1.20169 -0.00345294 -0.000799361)
(1.20198 -0.00338467 -0.000791892)
(1.20184 -0.00358059 -0.000919894)
(1.20099 -0.00247591 -0.000574914)
(1.20087 -0.00259815 -0.000648934)
(1.20109 -0.00258472 -0.000649188)
(1.20094 -0.00234173 -0.000603964)
(1.20113 -0.00230903 -0.000605954)
(1.20104 -0.00243294 -0.000703986)
(1.20054 -0.0016537 -0.000423709)
(1.20046 -0.00173265 -0.000476173)
(1.2006 -0.00173117 -0.000481514)
(1.20052 -0.00156253 -0.000444736)
(1.20064 -0.00154639 -0.000450663)
(1.20058 -0.0016282 -0.000519303)
(1.20029 -0.00109017 -0.000302955)
(1.20024 -0.00114068 -0.00033889)
(1.20033 -0.00114386 -0.000346109)
(1.20028 -0.00102937 -0.000317409)
(1.20036 -0.00102173 -0.000324369)
(1.20032 -0.00107565 -0.000372091)
(1.20015 -0.000709771 -0.000213537)
(1.20012 -0.000742132 -0.00023751)
(1.20018 -0.000746452 -0.000243929)
(1.20015 -0.000669497 -0.000222998)
(1.2002 -0.000666276 -0.000229166)
(1.20018 -0.000701436 -0.000262818)
(1.20008 -0.000456532 -0.00014985)
(1.20006 -0.000477223 -0.000164834)
(1.2001 -0.000481127 -0.000170058)
(1.20008 -0.000430336 -0.000155642)
(1.20012 -0.000429121 -0.000160391)
(1.2001 -0.000452095 -0.000183768)
(1.20005 -0.000291749 -0.000104391)
(1.20004 -0.000304745 -0.000113604)
(1.20006 -0.000307617 -0.000118068)
(1.20005 -0.000275135 -0.000107093)
(1.20007 -0.000274647 -0.000111199)
(1.20006 -0.000289345 -0.000128348)
(1.20003 -0.000185974 -7.21099e-05)
(1.20003 -0.000193953 -7.63872e-05)
(1.20004 -0.000196216 -7.9668e-05)
(1.20004 -0.00017522 -7.19213e-05)
(1.20005 -0.000175152 -7.50277e-05)
(1.20004 -0.000184614 -8.77863e-05)
(1.20003 -0.000118604 -4.7795e-05)
(1.20002 -0.000123349 -4.90631e-05)
(1.20003 -0.000124916 -5.15754e-05)
(1.20003 -0.000111145 -4.54572e-05)
(1.20004 -0.000111639 -4.78464e-05)
(1.20003 -0.000117387 -5.84008e-05)
(1.20003 -7.14402e-05 -2.90504e-05)
(1.20002 -7.57551e-05 -2.77049e-05)
(1.20003 -7.58149e-05 -2.96836e-05)
(1.20003 -6.58997e-05 -2.52817e-05)
(1.20004 -6.8427e-05 -2.68959e-05)
(1.20003 -7.06308e-05 -3.61908e-05)
(1.20003 -3.91538e-05 -1.72781e-05)
(1.20002 -4.31695e-05 -1.34987e-05)
(1.20003 -4.16487e-05 -1.46621e-05)
(1.20003 -3.55016e-05 -1.21408e-05)
(1.20003 -4.04171e-05 -1.2846e-05)
(1.20003 -3.85009e-05 -2.06719e-05)
(1.21321 -0.00196084 0.00010025)
(1.21427 -0.000566319 0.00011423)
(1.21302 -0.00248313 3.46603e-05)
(1.21303 -0.000566874 0.000103107)
(1.21305 -0.00197161 0.000151728)
(1.21117 -0.00452393 -0.000357377)
(1.21066 -0.00350409 -0.000460579)
(1.2115 -0.00435451 -0.000372904)
(1.21068 -0.00439885 -0.000473244)
(1.21063 -0.00258174 -0.000403856)
(1.21106 -0.00446712 -0.00040509)
(1.2075 -0.00362304 -0.000604023)
(1.20692 -0.0036408 -0.000709968)
(1.20797 -0.00371514 -0.000659718)
(1.2071 -0.00340379 -0.000688657)
(1.20726 -0.00259775 -0.000645265)
(1.20748 -0.00355841 -0.000710732)
(1.20458 -0.00248754 -0.000632837)
(1.20441 -0.00280673 -0.000728014)
(1.2049 -0.00257948 -0.000705237)
(1.20433 -0.00235956 -0.000694004)
(1.20465 -0.00206024 -0.000679416)
(1.2046 -0.00243899 -0.000773975)
(1.20285 -0.00174665 -0.000561522)
(1.20277 -0.00197592 -0.000635571)
(1.20304 -0.00181456 -0.000630351)
(1.20271 -0.00165865 -0.000603138)
(1.20294 -0.00148657 -0.000603514)
(1.20288 -0.00171462 -0.000689998)
(1.20176 -0.00120415 -0.000457351)
(1.20171 -0.00136154 -0.000511821)
(1.20189 -0.00125579 -0.000515326)
(1.20168 -0.00114176 -0.000485812)
(1.20184 -0.0010273 -0.000491932)
(1.2018 -0.00118427 -0.000561073)
(1.20108 -0.0008151 -0.000353493)
(1.20104 -0.000920962 -0.000393691)
(1.20117 -0.000852413 -0.000400423)
(1.20103 -0.000771519 -0.000373503)
(1.20113 -0.000696319 -0.000381548)
(1.20111 -0.000802962 -0.00043373)
(1.20066 -0.000541817 -0.000262857)
(1.20063 -0.000613128 -0.000291485)
(1.20071 -0.000568281 -0.000298936)
(1.20063 -0.000512074 -0.000276523)
(1.2007 -0.000464412 -0.00028445)
(1.20068 -0.000534785 -0.000323172)
(1.2004 -0.000353454 -0.000191035)
(1.20039 -0.000401889 -0.000210319)
(1.20044 -0.000371764 -0.00021696)
(1.20039 -0.000333438 -0.000199564)
(1.20043 -0.000304627 -0.000206259)
(1.20042 -0.000349396 -0.000234993)
(1.20025 -0.000226523 -0.000138025)
(1.20024 -0.000260626 -0.000150067)
(1.20027 -0.000238952 -0.000155072)
(1.20024 -0.000213312 -0.00014285)
(1.20027 -0.000198175 -0.000147857)
(1.20026 -0.000224314 -0.000168709)
(1.20016 -0.000142317 -9.77817e-05)
(1.20016 -0.00016794 -0.000105255)
(1.20017 -0.000150577 -0.000109548)
(1.20016 -0.000133422 -9.97171e-05)
(1.20017 -0.000127864 -0.000103729)
(1.20017 -0.000140791 -0.000119698)
(1.20011 -8.57353e-05 -6.85804e-05)
(1.20011 -0.000106547 -7.1715e-05)
(1.20012 -9.11115e-05 -7.5207e-05)
(1.20011 -7.99398e-05 -6.79641e-05)
(1.20012 -8.04088e-05 -7.07456e-05)
(1.20011 -8.47654e-05 -8.36909e-05)
(1.20008 -4.8815e-05 -4.54927e-05)
(1.20008 -6.83347e-05 -4.55617e-05)
(1.20008 -5.25035e-05 -4.8745e-05)
(1.20008 -4.48768e-05 -4.30864e-05)
(1.20009 -5.12982e-05 -4.50737e-05)
(1.20008 -4.83271e-05 -5.6089e-05)
(1.20006 -2.30596e-05 -2.76896e-05)
(1.20006 -4.1933e-05 -2.52455e-05)
(1.20006 -2.55211e-05 -2.78044e-05)
(1.20006 -2.00898e-05 -2.34717e-05)
(1.20007 -3.19989e-05 -2.48082e-05)
(1.20006 -2.26228e-05 -3.47748e-05)
(1.20005 -7.90725e-06 -1.64339e-05)
(1.20005 -2.53043e-05 -1.16246e-05)
(1.20006 -8.95104e-06 -1.31037e-05)
(1.20006 -6.49173e-06 -1.05738e-05)
(1.20006 -2.22986e-05 -1.1461e-05)
(1.20006 -7.74396e-06 -1.91257e-05)
(1.2953 -0.0570259 0.005278)
(1.25184 -0.0273386 0.000952732)
(1.23097 -0.0367364 0.000271273)
(1.25089 -0.0263141 0.000850756)
(1.25332 -0.0263958 -0.000676449)
(1.27377 -0.059881 0.00220849)
(1.2946 -0.0574309 -0.00693269)
(1.27324 -0.0603728 -0.00554589)
(1.19971 -0.0219814 -0.00491116)
(1.2087 -0.0419525 -0.00332131)
(1.20965 -0.0350919 -0.00261414)
(1.20885 -0.0340945 -0.00294198)
(1.21006 -0.0262556 -0.00406276)
(1.20304 -0.0231589 -0.00431305)
(1.20405 -0.00917773 -0.00344024)
(1.20032 -0.00949932 -0.00495954)
(1.20538 -0.00834241 -0.0044111)
(1.20433 -0.00835234 -0.00357192)
(1.20423 -0.00774935 -0.00416046)
(1.20206 -0.00813787 -0.00412563)
(1.20142 -0.00665919 -0.00278811)
(1.20121 -0.00665297 -0.00328895)
(1.20207 -0.00644272 -0.00321008)
(1.20158 -0.00605155 -0.0029088)
(1.20161 -0.00604399 -0.00288351)
(1.20175 -0.00625353 -0.00286995)
(1.20049 -0.00468559 -0.00198079)
(1.20038 -0.00472273 -0.00216552)
(1.2007 -0.00478899 -0.00216754)
(1.20054 -0.00437677 -0.00197551)
(1.20081 -0.00442062 -0.00197456)
(1.2007 -0.00449479 -0.00211314)
(1.20013 -0.00316751 -0.00138159)
(1.20003 -0.00320393 -0.00149609)
(1.20024 -0.00328016 -0.00150997)
(1.20017 -0.00296809 -0.00138083)
(1.20036 -0.00301961 -0.00139236)
(1.20028 -0.00306388 -0.00149412)
(1.19997 -0.00209736 -0.000962491)
(1.1999 -0.00211864 -0.00103548)
(1.20004 -0.00218239 -0.00105304)
(1.20001 -0.00196572 -0.00096092)
(1.20013 -0.00200974 -0.000976178)
(1.20008 -0.00203811 -0.00104127)
(1.19992 -0.00136972 -0.000663431)
(1.19988 -0.00138132 -0.00071048)
(1.19996 -0.00142985 -0.000727343)
(1.19995 -0.0012849 -0.000662015)
(1.20003 -0.00131885 -0.000676893)
(1.2 -0.00133616 -0.000718245)
(1.19993 -0.000890505 -0.000452113)
(1.1999 -0.000896891 -0.000482598)
(1.19995 -0.000931491 -0.000496742)
(1.19995 -0.00083597 -0.000450789)
(1.2 -0.000860625 -0.000463298)
(1.19998 -0.000871214 -0.000490312)
(1.19994 -0.000573225 -0.000304974)
(1.19993 -0.000577429 -0.000324258)
(1.19996 -0.000601498 -0.000335668)
(1.19996 -0.000538381 -0.000303482)
(1.19999 -0.000555398 -0.000313761)
(1.19998 -0.000562736 -0.00033059)
(1.19996 -0.000367985 -0.000204346)
(1.19995 -0.000371048 -0.000216035)
(1.19997 -0.000386703 -0.000224229)
(1.19998 -0.000346143 -0.000203467)
(1.19999 -0.000357496 -0.000210586)
(1.19999 -0.00036254 -0.000220852)
(1.19998 -0.000233613 -0.000138422)
(1.19997 -0.000235803 -0.000146099)
(1.19998 -0.00024639 -0.000152218)
(1.19999 -0.000219542 -0.000137588)
(1.2 -0.000227255 -0.000143232)
(1.19999 -0.00023075 -0.000149864)
(1.19999 -0.000147033 -9.09086e-05)
(1.19999 -0.000148217 -9.56964e-05)
(1.19999 -0.000155211 -0.000100186)
(1.2 -0.000138086 -8.99147e-05)
(1.20001 -0.000143359 -9.39906e-05)
(1.2 -0.000145328 -9.8259e-05)
(1.2 -9.00586e-05 -5.70224e-05)
(1.2 -9.0491e-05 -5.99653e-05)
(1.2 -9.56786e-05 -6.33631e-05)
(1.20001 -8.38922e-05 -5.59995e-05)
(1.20001 -8.80324e-05 -5.90411e-05)
(1.20001 -8.91346e-05 -6.19069e-05)
(1.20001 -4.8865e-05 -3.39282e-05)
(1.20001 -4.91691e-05 -3.52212e-05)
(1.20001 -5.28365e-05 -3.75238e-05)
(1.20001 -4.43233e-05 -3.22383e-05)
(1.20002 -4.76669e-05 -3.43753e-05)
(1.20002 -4.80189e-05 -3.64402e-05)
(1.22404 -0.00440953 -0.000314904)
(1.21841 -0.00644766 0.000471398)
(1.21717 -0.00864097 0.000208868)
(1.2179 -0.00613232 0.00055659)
(1.2187 -0.00307178 -8.86112e-06)
(1.21307 -0.0138042 -0.00114409)
(1.20967 -0.00990935 -0.00220347)
(1.21349 -0.0138516 -0.00114702)
(1.21273 -0.013205 -0.00121306)
(1.21214 -0.0126169 -0.00147921)
(1.21101 -0.00839771 -0.00160307)
(1.20719 -0.00786703 -0.00183552)
(1.20491 -0.00729497 -0.00237978)
(1.20787 -0.00815578 -0.00197181)
(1.20668 -0.0070932 -0.00199995)
(1.20605 -0.00591281 -0.00197065)
(1.20717 -0.00745841 -0.00194289)
(1.20366 -0.0048279 -0.00173146)
(1.20314 -0.00498062 -0.0019527)
(1.20406 -0.00496159 -0.00185635)
(1.20346 -0.00447799 -0.00176966)
(1.20365 -0.00420935 -0.00172916)
(1.20376 -0.00460452 -0.00186064)
(1.20209 -0.00327833 -0.00137299)
(1.20197 -0.00341183 -0.00150265)
(1.20228 -0.00337263 -0.00148401)
(1.20202 -0.00307703 -0.00138988)
(1.20228 -0.00301197 -0.00137878)
(1.2022 -0.00315456 -0.00149031)
(1.20127 -0.00225204 -0.00103795)
(1.2012 -0.00234298 -0.00112374)
(1.2014 -0.00232696 -0.00112607)
(1.20124 -0.00211545 -0.00104587)
(1.20142 -0.00208301 -0.00105052)
(1.20137 -0.00217887 -0.00112486)
(1.20077 -0.00152172 -0.000763245)
(1.20072 -0.00158289 -0.000820334)
(1.20086 -0.00157906 -0.000830347)
(1.20076 -0.00142975 -0.000766834)
(1.20088 -0.00141309 -0.000777296)
(1.20085 -0.00147871 -0.000826727)
(1.20047 -0.00101508 -0.000549568)
(1.20044 -0.00105555 -0.000587847)
(1.20053 -0.00105689 -0.00059986)
(1.20047 -0.000954139 -0.000551181)
(1.20055 -0.000945822 -0.000562997)
(1.20053 -0.00099024 -0.000595866)
(1.20029 -0.000666908 -0.000388087)
(1.20027 -0.000694256 -0.000412717)
(1.20033 -0.000697184 -0.000424102)
(1.20029 -0.000626628 -0.000387956)
(1.20034 -0.000622802 -0.000398605)
(1.20033 -0.000652806 -0.000419958)
(1.20018 -0.000433738 -0.000269285)
(1.20017 -0.000451478 -0.000285505)
(1.20021 -0.000454361 -0.00029509)
(1.20018 -0.000407942 -0.000268608)
(1.20022 -0.000406082 -0.000277606)
(1.20021 -0.000425844 -0.000291597)
(1.20011 -0.000279698 -0.000186207)
(1.20011 -0.000291586 -0.000196174)
(1.20013 -0.000293901 -0.000203178)
(1.20012 -0.000263231 -0.000185719)
(1.20014 -0.000262293 -0.000192095)
(1.20014 -0.000275623 -0.000200753)
(1.20008 -0.000179405 -0.000128297)
(1.20007 -0.000186754 -0.000135295)
(1.20009 -0.000188794 -0.000140816)
(1.20008 -0.000168977 -0.000127811)
(1.20009 -0.000168834 -0.000133066)
(1.20009 -0.000177176 -0.000138975)
(1.20006 -0.000113833 -8.51225e-05)
(1.20006 -0.000118879 -8.94386e-05)
(1.20007 -0.00012025 -9.37364e-05)
(1.20006 -0.000106797 -8.43175e-05)
(1.20007 -0.000107568 -8.82012e-05)
(1.20007 -0.000112596 -9.21473e-05)
(1.20005 -6.86769e-05 -5.41682e-05)
(1.20005 -7.36972e-05 -5.66114e-05)
(1.20005 -7.31748e-05 -5.99366e-05)
(1.20005 -6.37486e-05 -5.3034e-05)
(1.20006 -6.6539e-05 -5.58869e-05)
(1.20006 -6.79524e-05 -5.87559e-05)
(1.20004 -3.64892e-05 -3.14345e-05)
(1.20004 -4.08526e-05 -3.23142e-05)
(1.20005 -3.94283e-05 -3.50247e-05)
(1.20005 -3.30302e-05 -2.95571e-05)
(1.20005 -3.85625e-05 -3.16046e-05)
(1.20005 -3.57794e-05 -3.42841e-05)
(1.21244 -0.00191269 0.000195206)
(1.21337 -0.000635214 1.50099e-05)
(1.21225 -0.00236588 7.42551e-05)
(1.21226 -0.000604574 9.19339e-05)
(1.21219 -0.00183499 0.000215881)
(1.21062 -0.00417665 -0.000673225)
(1.2101 -0.00324681 -0.000944446)
(1.21087 -0.00402689 -0.000616464)
(1.21013 -0.00404662 -0.000797146)
(1.21009 -0.00239681 -0.000757931)
(1.21043 -0.00399003 -0.000735349)
(1.20732 -0.00327375 -0.00112635)
(1.20673 -0.00327463 -0.001305)
(1.2077 -0.00335558 -0.0011491)
(1.20692 -0.00305569 -0.00120631)
(1.20706 -0.00233278 -0.0011587)
(1.20727 -0.0031276 -0.00123249)
(1.20465 -0.0022272 -0.00117349)
(1.2045 -0.00248654 -0.00128573)
(1.20494 -0.00228849 -0.0012393)
(1.20442 -0.00209184 -0.00121688)
(1.20471 -0.00182317 -0.00119378)
(1.20468 -0.00213536 -0.00128145)
(1.20302 -0.00157489 -0.00102567)
(1.20296 -0.00176233 -0.00110664)
(1.20321 -0.00161701 -0.00109763)
(1.20289 -0.00148239 -0.00104846)
(1.20311 -0.00132654 -0.00104898)
(1.20308 -0.00151728 -0.00111511)
(1.20195 -0.001098 -0.000828227)
(1.20192 -0.00122987 -0.000886305)
(1.2021 -0.00113295 -0.000892331)
(1.20188 -0.00103332 -0.000840324)
(1.20203 -0.00092833 -0.000851199)
(1.20202 -0.00106292 -0.000898569)
(1.20125 -0.000751324 -0.000639096)
(1.20124 -0.000842337 -0.000680104)
(1.20135 -0.00077862 -0.000691629)
(1.20121 -0.00070693 -0.000645535)
(1.20131 -0.000637196 -0.000659164)
(1.20131 -0.000730394 -0.000692796)
(1.2008 -0.000504953 -0.000477625)
(1.20079 -0.000567608 -0.000506482)
(1.20087 -0.000525504 -0.000519038)
(1.20078 -0.000474823 -0.00048082)
(1.20085 -0.00042993 -0.00049421)
(1.20085 -0.000492686 -0.00051788)
(1.20051 -0.000332289 -0.00034647)
(1.20051 -0.000375816 -0.000366041)
(1.20056 -0.000347255 -0.000377676)
(1.2005 -0.000312256 -0.00034743)
(1.20055 -0.000285063 -0.000358932)
(1.20055 -0.000325184 -0.000375245)
(1.20033 -0.000214687 -0.000246236)
(1.20033 -0.0002459 -0.000259444)
(1.20037 -0.000225323 -0.000268837)
(1.20033 -0.000201311 -0.000246209)
(1.20036 -0.000186474 -0.000255442)
(1.20036 -0.000210687 -0.000266443)
(1.20022 -0.000134396 -0.000173125)
(1.20022 -0.000158838 -0.00018179)
(1.20024 -0.000141716 -0.000188727)
(1.20022 -0.000125517 -0.000172867)
(1.20024 -0.000120176 -0.000179303)
(1.20024 -0.00013191 -0.000186852)
(1.20015 -8.1452e-05 -0.000122677)
(1.20015 -0.000102592 -0.000128332)
(1.20016 -8.62404e-05 -0.000133775)
(1.20015 -7.59482e-05 -0.000122747)
(1.20016 -7.7457e-05 -0.000126955)
(1.20016 -8.00758e-05 -0.000132683)
(1.20011 -4.7162e-05 -8.31025e-05)
(1.20011 -6.69516e-05 -8.62959e-05)
(1.20012 -5.06644e-05 -9.15768e-05)
(1.20011 -4.35235e-05 -8.24091e-05)
(1.20012 -5.08808e-05 -8.58882e-05)
(1.20012 -4.67549e-05 -9.01069e-05)
(1.20008 -2.18211e-05 -5.33905e-05)
(1.20008 -4.13703e-05 -5.50457e-05)
(1.20009 -2.45794e-05 -5.89743e-05)
(1.20008 -1.91161e-05 -5.20625e-05)
(1.20009 -3.14413e-05 -5.4908e-05)
(1.20009 -2.16836e-05 -5.77823e-05)
(1.20007 -6.62913e-06 -2.96846e-05)
(1.20007 -2.36603e-05 -2.99588e-05)
(1.20007 -7.53415e-06 -3.3181e-05)
(1.20007 -5.26319e-06 -2.7739e-05)
(1.20008 -2.12996e-05 -2.93007e-05)
(1.20008 -5.9713e-06 -3.26073e-05)
(1.006 -0.123809 -0.0196833)
(0.969755 -0.145884 -0.0480323)
(1.27885 -0.108313 -0.0315054)
(1.20169 -5.43324e-05 0.0137089)
(1.20182 -0.00739526 0.00666846)
(1.19018 -0.00411148 0.0170642)
(1.21798 -0.0117252 -0.0105608)
(1.19646 -0.00765773 0.0206901)
(1.31911 -0.0769363 0.000288317)
(1.30042 -0.0577921 -0.00630536)
(1.31911 -0.0777104 0.000694756)
(1.3298 -0.0737899 -0.00647628)
(1.30633 -0.0788193 -0.00734394)
(1.18742 -0.0123261 0.00118691)
(1.19621 -0.0205471 0.00599938)
(1.20223 -0.035422 0.00355942)
(1.18636 -0.0104912 0.00291849)
(1.19068 -0.0364425 0.00708392)
(1.19547 -0.0241768 0.00542162)
(1.33096 -0.0726579 0.00575547)
(1.30733 -0.0781733 0.00675675)
(1.31887 -0.0762998 0.000472361)
(1.19042 -0.00792696 -0.00374648)
(1.19456 -0.0271507 -0.00295467)
(1.1729 -0.0234232 -0.00421226)
(1.18513 -0.020812 -0.00263784)
(1.18636 -0.0110687 -0.000710654)
(1.31379 -0.0768156 -0.00148513)
(1.2962 -0.0570726 -0.0062866)
(1.31453 -0.0764353 -0.00116822)
(1.3258 -0.0716633 -0.00699537)
(1.30282 -0.0784986 -0.00898375)
(1.18579 -0.0110711 -0.00364317)
(1.19289 -0.0143116 -0.00127201)
(1.19822 -0.0312248 -0.000970932)
(1.18558 -0.0108799 -0.00252018)
(1.18226 -0.0297567 -0.00124026)
(1.19041 -0.0221915 -0.00155966)
(1.32485 -0.071642 0.00510364)
(1.30175 -0.0787495 0.00533441)
(1.31292 -0.0772432 -0.00185866)
(1.19008 -0.0107903 -0.00566668)
(1.19525 -0.0288529 -0.00407944)
(1.17711 -0.0263214 -0.00587854)
(1.18669 -0.0212175 -0.00480808)
(1.1847 -0.0102089 -0.00469252)
(0.438281 0.0995258 -0.039638)
(0.293317 0.0690706 -0.0244884)
(0.352583 0.120162 -0.0405186)
(0.285758 0.0676587 -0.0302904)
(0.25494 0.115236 -0.0175796)
(0.184207 0.0760308 0.0217742)
(0.109012 0.103404 -0.0159163)
(1.19753 0.00385853 0.0186391)
(1.20105 -0.01285 0.017418)
(1.19494 -0.00672697 0.0147506)
(1.19201 -0.0152079 0.00347787)
(1.19788 -0.0144016 0.00349412)
(1.19347 -0.014222 0.00476079)
(1.19149 -0.0152249 0.00530461)
(1.19351 -0.0193939 -0.000374046)
(1.19401 -0.0161721 0.000424498)
(1.20416 -0.0316917 0.00312099)
(1.19608 -0.0134507 0.00407272)
(1.19434 -0.0353137 0.00644074)
(1.19629 -0.0260835 0.00384227)
(1.19319 -0.0172007 -0.00348694)
(1.1915 -0.0204543 -0.00200192)
(1.19775 -0.0194826 -0.00136689)
(1.19427 -0.0170413 -0.000928548)
(1.19511 -0.0221022 -0.00136488)
(1.19156 -0.024386 -0.00102491)
(1.20535 -0.0279124 0.000991577)
(1.20916 -0.0386875 0.00269174)
(1.20371 -0.0145964 0.00530396)
(1.22911 -0.00991071 -5.1273e-05)