/*--------------------------------*- C++ -*----------------------------------*\
| =========                 |                                                 |
| \\      /  F ield         | OpenFOAM: The Open Source CFD Toolbox           |
|  \\    /   O peration     | Version:  2012                                  |
|   \\  /    A nd           | Website:  www.openfoam.com                      |
|    \\/     M anipulation  |                                                 |
\*---------------------------------------------------------------------------*/
FoamFile
{
    version     2.0;
    format      ascii;
    class       surfaceVectorField;
    location    "0.105/fluid";
    object      Uf_0;
}
// * * * * * * * * * * * * * * * * * * * * * * * * * * * * * * * * * * * * * //

dimensions      [0 1 -1 0 0 0 0];


internalField   nonuniform List<vector> 
46515
(
(0.879303 -0.118312 -0.021658)
(1.23109 -0.050553 -0.00575148)
(1.25809 -0.0385817 -0.00640348)
(1.25456 -0.0396812 -0.0027856)
(0.895765 -0.101733 -0.037772)
(1.5408 -0.0501697 -0.0144615)
(1.51708 -0.0635629 -0.0198394)
(1.20301 -0.00637498 0.0119841)
(1.2096 -0.0152122 0.00497774)
(1.21232 -0.0255489 0.00334733)
(1.21048 -0.0111503 0.00604917)
(1.20325 -0.0106858 0.00610249)
(1.19744 -0.0138833 0.00239202)
(1.2038 -0.0127197 0.00240755)
(1.20431 -0.0136508 -0.000306738)
(1.20178 -0.0117586 0.00161719)
(1.19988 -0.0114106 0.00150044)
(1.1978 -0.00832915 0.000333195)
(1.19889 -0.00826625 0.000349234)
(1.19855 -0.00756178 0.000124716)
(1.19858 -0.00753853 0.000124168)
(1.20035 -0.00823495 -0.000429288)
(1.19789 -0.00559931 -0.00019383)
(1.19819 -0.00571173 -0.000187821)
(1.1982 -0.0051716 -0.000211542)
(1.19846 -0.0052418 -0.000210874)
(1.19957 -0.0054654 -0.000369438)
(1.19819 -0.00369893 -0.000185914)
(1.19835 -0.00380138 -0.000191363)
(1.19842 -0.00342136 -0.000174734)
(1.19858 -0.00349146 -0.000179336)
(1.19943 -0.00359692 -0.000277057)
(1.19852 -0.0023998 -0.000120313)
(1.19861 -0.00247962 -0.000125665)
(1.19867 -0.00222352 -0.000112018)
(1.19876 -0.00227939 -0.000116037)
(1.19945 -0.00234084 -0.000184704)
(1.19878 -0.00153986 -7.75872e-05)
(1.19884 -0.00159764 -8.10368e-05)
(1.19889 -0.0014297 -7.32604e-05)
(1.19893 -0.00147024 -7.61599e-05)
(1.19953 -0.00150812 -0.000122706)
(1.199 -0.000983151 -5.43293e-05)
(1.19902 -0.0010231 -5.63481e-05)
(1.19906 -0.000913809 -5.23396e-05)
(1.19908 -0.000941866 -5.42573e-05)
(1.19962 -0.000966147 -8.48827e-05)
(1.19917 -0.000622782 -4.1366e-05)
(1.19917 -0.000649863 -4.29098e-05)
(1.19921 -0.000579814 -4.0492e-05)
(1.19922 -0.000599243 -4.17404e-05)
(1.1997 -0.00061366 -6.16182e-05)
(1.1993 -0.000392753 -3.09311e-05)
(1.1993 -0.000410579 -3.24471e-05)
(1.19933 -0.000365432 -3.04794e-05)
(1.19933 -0.000378004 -3.1617e-05)
(1.19976 -0.000387745 -4.37544e-05)
(1.19941 -0.000247146 -2.69994e-05)
(1.19941 -0.000258456 -2.75145e-05)
(1.19943 -0.000229948 -2.72934e-05)
(1.19943 -0.000238295 -2.77871e-05)
(1.1998 -0.000244752 -3.47402e-05)
(1.19951 -0.000153682 -2.6008e-05)
(1.1995 -0.000161582 -2.67061e-05)
(1.19953 -0.000143348 -2.619e-05)
(1.19952 -0.000149586 -2.68731e-05)
(1.19984 -0.000153413 -2.9467e-05)
(1.1996 -9.42674e-05 -2.46561e-05)
(1.19959 -9.90198e-05 -2.50936e-05)
(1.19961 -8.70181e-05 -2.53285e-05)
(1.1996 -9.10673e-05 -2.56159e-05)
(1.19987 -9.43698e-05 -2.36576e-05)
(1.19968 -5.07502e-05 -2.61366e-05)
(1.19967 -5.5505e-05 -2.67785e-05)
(1.19969 -4.58613e-05 -2.6261e-05)
(1.19968 -4.98515e-05 -2.73653e-05)
(1.19988 -5.25084e-05 -2.30939e-05)
(1.22496 -0.00522359 0.000113623)
(1.21772 -0.00891659 0.000199766)
(1.22031 -0.00664534 -0.000139617)
(1.21955 -0.00323765 7.70539e-05)
(1.20906 -0.00979134 0.00126691)
(1.21309 -0.0135255 0.000867676)
(1.21406 -0.0140338 0.000339739)
(1.2115 -0.0126444 0.000812316)
(1.21047 -0.00842982 0.000718532)
(1.20312 -0.00861552 0.000292163)
(1.20638 -0.0093053 0.000308815)
(1.20495 -0.00830163 0.000159726)
(1.20444 -0.00692268 0.000161897)
(1.20743 -0.00899567 -0.000163105)
(1.20091 -0.00600612 -0.000130829)
(1.20198 -0.00595783 -0.000112323)
(1.20137 -0.00537257 -0.000153881)
(1.20165 -0.00506116 -0.000139776)
(1.20327 -0.00567034 -0.000293713)
(1.20001 -0.00403899 -0.000192529)
(1.20035 -0.00400196 -0.000186054)
(1.20017 -0.00363271 -0.000180688)
(1.20045 -0.00356478 -0.000175281)
(1.20158 -0.00378905 -0.000276446)
(1.1996 -0.00271518 -0.000148235)
(1.1998 -0.00270432 -0.0001487)
(1.19971 -0.00244605 -0.00013602)
(1.19989 -0.00241436 -0.00013658)
(1.2008 -0.00255503 -0.000210765)
(1.19941 -0.00179905 -9.97986e-05)
(1.19953 -0.00179913 -0.000101892)
(1.19949 -0.00162113 -9.27869e-05)
(1.19959 -0.00160573 -9.43702e-05)
(1.20037 -0.00169942 -0.000148131)
(1.19934 -0.00117553 -7.0912e-05)
(1.19941 -0.00118033 -7.26221e-05)
(1.19939 -0.00106042 -6.73489e-05)
(1.19945 -0.00105397 -6.87081e-05)
(1.20013 -0.00111506 -0.000106424)
(1.19934 -0.00076132 -5.24921e-05)
(1.19937 -0.000766315 -5.40731e-05)
(1.19937 -0.000686601 -5.03103e-05)
(1.19941 -0.000683623 -5.16303e-05)
(1.20001 -0.000723687 -7.71847e-05)
(1.19936 -0.000486874 -4.06583e-05)
(1.19939 -0.000490943 -4.17683e-05)
(1.19939 -0.000438414 -3.93668e-05)
(1.19941 -0.000437046 -4.05323e-05)
(1.19995 -0.000463317 -5.71489e-05)
(1.19942 -0.000309532 -3.31385e-05)
(1.19942 -0.000312934 -3.39763e-05)
(1.19944 -0.000279242 -3.26538e-05)
(1.19944 -0.000279341 -3.33425e-05)
(1.19993 -0.000295831 -4.36048e-05)
(1.19948 -0.000195525 -3.03805e-05)
(1.19948 -0.000197764 -3.07837e-05)
(1.19949 -0.000176683 -3.06916e-05)
(1.19949 -0.000176676 -3.09063e-05)
(1.19992 -0.000187587 -3.64671e-05)
(1.19955 -0.000125222 -2.84018e-05)
(1.19955 -0.000126511 -2.89552e-05)
(1.19956 -0.000113384 -2.83877e-05)
(1.19956 -0.000113864 -2.87315e-05)
(1.19992 -0.000120236 -3.00432e-05)
(1.19962 -7.69577e-05 -2.8009e-05)
(1.19961 -7.74005e-05 -2.80231e-05)
(1.19963 -6.71151e-05 -2.87228e-05)
(1.19962 -6.94828e-05 -2.85075e-05)
(1.19992 -7.28507e-05 -2.51904e-05)
(1.1997 -4.30948e-05 -3.06491e-05)
(1.19969 -4.15017e-05 -3.08237e-05)
(1.19971 -3.50716e-05 -3.06963e-05)
(1.1997 -3.97216e-05 -3.1403e-05)
(1.19992 -3.93415e-05 -2.57991e-05)
(1.21376 -0.000578567 5.35599e-05)
(1.21249 -0.00244277 7.1141e-05)
(1.2125 -0.000541677 4.06376e-05)
(1.21338 -0.0019047 3.87876e-05)
(1.20973 -0.0035688 0.000194754)
(1.21066 -0.00436134 0.000163323)
(1.20973 -0.00443703 0.00014911)
(1.20975 -0.00260769 0.000136158)
(1.21126 -0.0045417 4.25386e-05)
(1.20556 -0.00382158 1.20271e-05)
(1.20671 -0.00384046 2.8943e-05)
(1.20577 -0.00354115 -1.24852e-05)
(1.20601 -0.00271205 2.59301e-06)
(1.20749 -0.00371087 -0.000102732)
(1.20296 -0.00295939 -0.000105214)
(1.20349 -0.00271267 -9.02306e-05)
(1.20293 -0.00248505 -0.000102903)
(1.20328 -0.00217313 -9.15779e-05)
(1.20447 -0.002576 -0.000187204)
(1.20143 -0.00207928 -0.000124667)
(1.20171 -0.00191031 -0.000117641)
(1.20141 -0.00174443 -0.000116881)
(1.20164 -0.00156444 -0.000112441)
(1.2027 -0.00180853 -0.000190252)
(1.20053 -0.00142471 -0.000106068)
(1.20071 -0.00131524 -0.000104827)
(1.20053 -0.00119394 -9.8929e-05)
(1.20068 -0.00107512 -9.88151e-05)
(1.2016 -0.0012426 -0.000158998)
(1.20001 -0.000956892 -8.04167e-05)
(1.20012 -0.000886531 -8.12333e-05)
(1.20002 -0.000801133 -7.60162e-05)
(1.20011 -0.00072371 -7.69993e-05)
(1.20092 -0.000837583 -0.000122044)
(1.19972 -0.0006335 -6.17732e-05)
(1.19978 -0.000587584 -6.27926e-05)
(1.19972 -0.000528775 -5.91126e-05)
(1.19978 -0.000479902 -6.00321e-05)
(1.20051 -0.00055464 -9.22798e-05)
(1.19957 -0.000411679 -4.99552e-05)
(1.1996 -0.000381448 -5.09423e-05)
(1.19958 -0.000341631 -4.87119e-05)
(1.19961 -0.000312484 -4.97027e-05)
(1.20026 -0.000360278 -7.17497e-05)
(1.19951 -0.000264694 -4.08525e-05)
(1.19953 -0.00024235 -4.21099e-05)
(1.19952 -0.00021591 -3.99593e-05)
(1.19954 -0.000200724 -4.12899e-05)
(1.20011 -0.00022917 -5.57656e-05)
(1.19951 -0.000170413 -3.3694e-05)
(1.19952 -0.000152845 -3.44692e-05)
(1.19952 -0.00013596 -3.34428e-05)
(1.19953 -0.000130006 -3.37751e-05)
(1.20004 -0.000144183 -4.26336e-05)
(1.19953 -0.000108572 -3.18121e-05)
(1.19954 -9.35293e-05 -3.2124e-05)
(1.19955 -8.29613e-05 -3.14456e-05)
(1.19955 -8.25469e-05 -3.18131e-05)
(1.19999 -8.76296e-05 -3.67604e-05)
(1.19958 -7.00432e-05 -2.8502e-05)
(1.19958 -5.47738e-05 -2.88114e-05)
(1.19959 -4.61811e-05 -2.85233e-05)
(1.19959 -5.22559e-05 -2.84757e-05)
(1.19997 -5.0258e-05 -2.90706e-05)
(1.19964 -4.18679e-05 -2.99508e-05)
(1.19963 -2.5487e-05 -2.97638e-05)
(1.19964 -2.00224e-05 -3.07841e-05)
(1.19964 -3.13368e-05 -3.04096e-05)
(1.19995 -2.32712e-05 -2.6467e-05)
(1.19971 -2.5611e-05 -3.31728e-05)
(1.1997 -8.93722e-06 -3.31298e-05)
(1.19972 -6.63513e-06 -3.29673e-05)
(1.19971 -2.23398e-05 -3.33292e-05)
(1.19994 -7.92619e-06 -2.7558e-05)
(1.30069 -0.0575875 0.00549165)
(1.2548 -0.0295144 -0.00217444)
(1.23327 -0.0401317 -0.00154012)
(1.2539 -0.0295124 -0.000380513)
(1.25642 -0.0276851 -0.00051771)
(1.27757 -0.0603553 0.0023382)
(1.29953 -0.0574674 -0.00529822)
(1.27662 -0.0602481 -0.00323512)
(1.20081 -0.019344 -0.00335731)
(1.20947 -0.0403108 -0.00256487)
(1.21101 -0.0361728 -0.00113262)
(1.21079 -0.0351549 -0.000957988)
(1.21153 -0.0243501 -0.00277944)
(1.20357 -0.0217746 -0.0021382)
(1.20404 -0.0113822 -0.00223547)
(1.20125 -0.00974717 -0.00330929)
(1.20657 -0.008732 -0.00270477)
(1.20423 -0.0104557 -0.0017674)
(1.20504 -0.00839498 -0.00253777)
(1.20276 -0.00857818 -0.00239064)
(1.2008 -0.00770037 -0.00173433)
(1.2009 -0.00735743 -0.00199052)
(1.20196 -0.00716506 -0.00191584)
(1.20129 -0.00674398 -0.00173351)
(1.20133 -0.00670756 -0.00170033)
(1.20099 -0.0074098 -0.00166973)
(1.1999 -0.00525092 -0.00115333)
(1.19981 -0.00527165 -0.00128782)
(1.20017 -0.00535263 -0.00128486)
(1.2 -0.00489212 -0.00116567)
(1.2003 -0.00494665 -0.0011624)
(1.20003 -0.0051255 -0.00128901)
(1.19968 -0.00348663 -0.000773858)
(1.19953 -0.00355064 -0.000876085)
(1.19974 -0.00364298 -0.000882643)
(1.19971 -0.00328441 -0.000806695)
(1.19991 -0.00334771 -0.000811842)
(1.19977 -0.00342242 -0.000941413)
(1.19965 -0.00227824 -0.000537283)
(1.19954 -0.00231601 -0.000605851)
(1.19968 -0.00239016 -0.000615513)
(1.19968 -0.00214623 -0.000561404)
(1.1998 -0.00219783 -0.000569977)
(1.19971 -0.00224237 -0.000657692)
(1.1997 -0.00147286 -0.000367117)
(1.19963 -0.00149346 -0.000413271)
(1.19971 -0.0015481 -0.000422931)
(1.19972 -0.00138736 -0.000384153)
(1.1998 -0.00142578 -0.000392643)
(1.19974 -0.00145224 -0.000450742)
(1.19977 -0.000947437 -0.000249163)
(1.19972 -0.000959047 -0.000279216)
(1.19977 -0.00099721 -0.000287318)
(1.19979 -0.00089238 -0.000260548)
(1.19983 -0.000919532 -0.000267829)
(1.1998 -0.000936066 -0.000306509)
(1.19983 -0.000604141 -0.000168587)
(1.19981 -0.000611191 -0.000187)
(1.19983 -0.00063713 -0.000193377)
(1.19985 -0.000568999 -0.00017519)
(1.19988 -0.000587473 -0.000180852)
(1.19985 -0.000598 -0.000206863)
(1.19988 -0.000383388 -0.000113656)
(1.19987 -0.000387734 -0.000124875)
(1.19989 -0.000404841 -0.000129872)
(1.1999 -0.000361013 -0.000117307)
(1.19991 -0.000373357 -0.0001218)
(1.1999 -0.000380319 -0.000139818)
(1.19992 -0.000242294 -7.75533e-05)
(1.19991 -0.000244713 -8.35558e-05)
(1.19992 -0.000255729 -8.69078e-05)
(1.19993 -0.000227945 -7.86273e-05)
(1.19994 -0.000236001 -8.16644e-05)
(1.19993 -0.000240406 -9.46042e-05)
(1.19995 -0.000151991 -5.16808e-05)
(1.19995 -0.000152958 -5.39008e-05)
(1.19995 -0.000160517 -5.66919e-05)
(1.19996 -0.000142464 -5.01567e-05)
(1.19997 -0.000148148 -5.27387e-05)
(1.19996 -0.000150829 -6.28526e-05)
(1.19997 -9.2992e-05 -3.12447e-05)
(1.19997 -9.30846e-05 -3.08578e-05)
(1.19997 -9.83259e-05 -3.29432e-05)
(1.19998 -8.62219e-05 -2.81283e-05)
(1.19998 -9.03489e-05 -2.99786e-05)
(1.19998 -9.21122e-05 -3.85138e-05)
(1.19999 -5.19106e-05 -1.89938e-05)
(1.19998 -5.1438e-05 -1.66306e-05)
(1.19999 -5.53978e-05 -1.7567e-05)
(1.19999 -4.66401e-05 -1.49557e-05)
(1.19999 -5.0119e-05 -1.57985e-05)
(1.19999 -5.10781e-05 -2.30225e-05)
(1.22594 -0.00434366 0.000143021)
(1.21993 -0.00675477 4.19527e-05)
(1.21856 -0.00908114 -6.99723e-05)
(1.21959 -0.00677408 0.000264575)
(1.22019 -0.00302381 0.000124155)
(1.21397 -0.0145951 -0.000638902)
(1.21041 -0.0102289 -0.000896034)
(1.2145 -0.01439 -0.000765594)
(1.21382 -0.0144577 -0.000589275)
(1.21303 -0.0131122 -0.000905168)
(1.21179 -0.00870299 -0.000756934)
(1.2074 -0.00873009 -0.00102441)
(1.20519 -0.00790857 -0.00124934)
(1.20834 -0.00879446 -0.00112282)
(1.20698 -0.00775138 -0.00113994)
(1.20631 -0.00644486 -0.00105255)
(1.20739 -0.00853375 -0.00103442)
(1.20344 -0.00544267 -0.000977295)
(1.20293 -0.00558313 -0.00111292)
(1.20394 -0.00555685 -0.00106643)
(1.20325 -0.00503428 -0.00101703)
(1.20348 -0.00473444 -0.000981852)
(1.20349 -0.00531162 -0.00108605)
(1.20177 -0.00365636 -0.000759388)
(1.2016 -0.00383622 -0.000865753)
(1.20195 -0.00379671 -0.000853234)
(1.20168 -0.00345463 -0.000799464)
(1.20197 -0.00338697 -0.000791979)
(1.20183 -0.0035826 -0.000920093)
(1.20099 -0.00247604 -0.000575272)
(1.20087 -0.00259818 -0.000649378)
(1.20109 -0.00258502 -0.000649631)
(1.20094 -0.00234178 -0.000604444)
(1.20113 -0.00230931 -0.000606443)
(1.20104 -0.00243312 -0.0007045)
(1.20054 -0.00165334 -0.000424092)
(1.20046 -0.00173222 -0.000476627)
(1.2006 -0.00173084 -0.000481987)
(1.20051 -0.00156216 -0.000445187)
(1.20064 -0.00154611 -0.000451134)
(1.20058 -0.00162785 -0.000519799)
(1.20029 -0.00108976 -0.000303256)
(1.20024 -0.00114023 -0.00033924)
(1.20033 -0.00114345 -0.000346478)
(1.20028 -0.00102897 -0.000317753)
(1.20036 -0.00102137 -0.00032473)
(1.20032 -0.00107525 -0.000372471)
(1.20015 -0.000709446 -0.000213756)
(1.20012 -0.000741783 -0.000237764)
(1.20018 -0.000746117 -0.000244198)
(1.20015 -0.000669188 -0.000223244)
(1.2002 -0.000665983 -0.000229426)
(1.20018 -0.000701117 -0.00026309)
(1.20008 -0.000456309 -0.000150006)
(1.20006 -0.000476988 -0.000165015)
(1.2001 -0.000480894 -0.000170249)
(1.20008 -0.000430127 -0.000155817)
(1.20012 -0.000428916 -0.000160576)
(1.2001 -0.000451876 -0.000183959)
(1.20005 -0.000291615 -0.000104491)
(1.20003 -0.000304603 -0.000113722)
(1.20006 -0.000307474 -0.000118194)
(1.20005 -0.000275011 -0.000107207)
(1.20007 -0.000274524 -0.000111319)
(1.20006 -0.000289214 -0.000128472)
(1.20003 -0.000185898 -7.21776e-05)
(1.20003 -0.000193874 -7.64681e-05)
(1.20004 -0.000196135 -7.97538e-05)
(1.20004 -0.000175151 -7.19987e-05)
(1.20005 -0.000175082 -7.51093e-05)
(1.20004 -0.000184539 -8.7868e-05)
(1.20003 -0.000118564 -4.78356e-05)
(1.20002 -0.000123306 -4.91143e-05)
(1.20003 -0.000124875 -5.16309e-05)
(1.20003 -0.000111109 -4.55061e-05)
(1.20004 -0.000111601 -4.78995e-05)
(1.20003 -0.000117349 -5.84534e-05)
(1.20003 -7.14167e-05 -2.90767e-05)
(1.20002 -7.57224e-05 -2.77373e-05)
(1.20003 -7.57908e-05 -2.97191e-05)
(1.20003 -6.5878e-05 -2.53121e-05)
(1.20003 -6.83978e-05 -2.69301e-05)
(1.20003 -7.06091e-05 -3.6222e-05)
(1.20003 -3.91358e-05 -1.7286e-05)
(1.20002 -4.31401e-05 -1.3513e-05)
(1.20003 -4.16306e-05 -1.46786e-05)
(1.20003 -3.54834e-05 -1.21518e-05)
(1.20003 -4.039e-05 -1.28599e-05)
(1.20003 -3.84826e-05 -2.06815e-05)
(1.21324 -0.00196767 0.000100814)
(1.2143 -0.000573165 0.000115171)
(1.21306 -0.00249138 3.5479e-05)
(1.21306 -0.000572173 0.000103445)
(1.21308 -0.00197905 0.000152049)
(1.21119 -0.00453283 -0.000355348)
(1.21068 -0.00351936 -0.000457756)
(1.21152 -0.00436461 -0.000370962)
(1.2107 -0.00440851 -0.00047129)
(1.21065 -0.00259171 -0.000402209)
(1.21108 -0.00447719 -0.000403379)
(1.20751 -0.00362934 -0.000602776)
(1.20692 -0.003652 -0.000708333)
(1.20797 -0.00372257 -0.000658398)
(1.2071 -0.00341041 -0.000687636)
(1.20727 -0.00260562 -0.000644318)
(1.20748 -0.00356539 -0.000709915)
(1.20458 -0.00249148 -0.000632618)
(1.20441 -0.00281169 -0.000727822)
(1.20489 -0.00258393 -0.000705058)
(1.20433 -0.00236338 -0.000694041)
(1.20465 -0.00206448 -0.000679468)
(1.20459 -0.00244318 -0.000774098)
(1.20285 -0.00174839 -0.0005619)
(1.20277 -0.00197785 -0.000636023)
(1.20304 -0.00181659 -0.000630803)
(1.2027 -0.00166021 -0.00060366)
(1.20294 -0.00148814 -0.000604039)
(1.20288 -0.00171643 -0.000690575)
(1.20176 -0.00120464 -0.000457849)
(1.20171 -0.00136205 -0.000512409)
(1.20189 -0.0012564 -0.000515925)
(1.20168 -0.00114218 -0.000486406)
(1.20183 -0.00102774 -0.000492541)
(1.2018 -0.00118478 -0.000561729)
(1.20108 -0.000815117 -0.000353929)
(1.20104 -0.000920951 -0.000394199)
(1.20116 -0.000852469 -0.000400951)
(1.20103 -0.00077151 -0.000374)
(1.20113 -0.000696338 -0.000382064)
(1.20111 -0.000802987 -0.000434284)
(1.20065 -0.000541706 -0.000263187)
(1.20063 -0.000612978 -0.000291867)
(1.20071 -0.000568178 -0.000299336)
(1.20063 -0.00051196 -0.000276893)
(1.20069 -0.000464309 -0.000284836)
(1.20068 -0.000534678 -0.000323585)
(1.2004 -0.00035334 -0.00019127)
(1.20039 -0.000401739 -0.000210591)
(1.20044 -0.000371648 -0.000217246)
(1.20039 -0.000333328 -0.000199826)
(1.20043 -0.000304517 -0.000206533)
(1.20042 -0.000349284 -0.000235284)
(1.20025 -0.000226441 -0.000138194)
(1.20024 -0.000260514 -0.000150262)
(1.20027 -0.000238867 -0.000155277)
(1.20024 -0.000213236 -0.000143038)
(1.20027 -0.000198094 -0.000148054)
(1.20026 -0.000224234 -0.000168914)
(1.20016 -0.000142268 -9.78895e-05)
(1.20016 -0.000167868 -0.000105381)
(1.20017 -0.000150525 -0.000109681)
(1.20016 -0.000133377 -9.9839e-05)
(1.20017 -0.000127807 -0.000103856)
(1.20017 -0.000140743 -0.000119829)
(1.20011 -8.57132e-05 -6.86503e-05)
(1.20011 -0.000106505 -7.18001e-05)
(1.20012 -9.10863e-05 -7.52978e-05)
(1.20011 -7.99218e-05 -6.80452e-05)
(1.20012 -8.0377e-05 -7.08321e-05)
(1.20011 -8.47447e-05 -8.37791e-05)
(1.20008 -4.88084e-05 -4.5539e-05)
(1.20008 -6.83109e-05 -4.56195e-05)
(1.20008 -5.24965e-05 -4.88059e-05)
(1.20008 -4.4872e-05 -4.31413e-05)
(1.20009 -5.12815e-05 -4.5133e-05)
(1.20008 -4.83219e-05 -5.61476e-05)
(1.20006 -2.30554e-05 -2.77186e-05)
(1.20006 -4.19149e-05 -2.52819e-05)
(1.20006 -2.55169e-05 -2.7843e-05)
(1.20006 -2.00864e-05 -2.35056e-05)
(1.20007 -3.19843e-05 -2.48442e-05)
(1.20006 -2.26183e-05 -3.48093e-05)
(1.20005 -7.90541e-06 -1.64458e-05)
(1.20005 -2.52901e-05 -1.16406e-05)
(1.20006 -8.95077e-06 -1.31242e-05)
(1.20006 -6.48872e-06 -1.0589e-05)
(1.20006 -2.22849e-05 -1.14777e-05)
(1.20006 -7.74276e-06 -1.91382e-05)
(1.2959 -0.0574777 0.00531571)
(1.2521 -0.0278488 0.0010146)
(1.23121 -0.0372861 0.000344539)
(1.2512 -0.0268652 0.000895294)
(1.25359 -0.0266923 -0.000640912)
(1.27411 -0.0603484 0.00227169)
(1.29525 -0.0579041 -0.00686325)
(1.27362 -0.0608536 -0.00542293)
(1.19957 -0.0221591 -0.00484833)
(1.20866 -0.042087 -0.00326206)
(1.20959 -0.035135 -0.00256042)
(1.20877 -0.0341604 -0.00290354)
(1.20998 -0.0263 -0.00401966)
(1.20296 -0.0232745 -0.00426964)
(1.20399 -0.00920708 -0.00342856)
(1.20026 -0.00952454 -0.00494404)
(1.20531 -0.00838429 -0.00439554)
(1.20427 -0.00838501 -0.00356621)
(1.20417 -0.00777863 -0.00414953)
(1.20201 -0.00817246 -0.00411361)
(1.20139 -0.00666342 -0.0027862)
(1.20118 -0.0066568 -0.0032856)
(1.20205 -0.00645124 -0.00320672)
(1.20156 -0.00605691 -0.00290676)
(1.20159 -0.00605152 -0.00288118)
(1.20172 -0.00625877 -0.00287062)
(1.20048 -0.00468479 -0.00198108)
(1.20037 -0.00472171 -0.00216588)
(1.20069 -0.00478911 -0.00216785)
(1.20053 -0.00437619 -0.00197621)
(1.2008 -0.00442097 -0.00197526)
(1.20069 -0.00449433 -0.00211457)
(1.20013 -0.00316621 -0.00138248)
(1.20003 -0.0032024 -0.00149708)
(1.20023 -0.00327892 -0.001511)
(1.20017 -0.00296683 -0.00138184)
(1.20036 -0.00301863 -0.00139342)
(1.20027 -0.00306265 -0.00149529)
(1.19997 -0.00209626 -0.000963245)
(1.1999 -0.00211744 -0.00103628)
(1.20003 -0.00218127 -0.00105389)
(1.20001 -0.00196468 -0.000961709)
(1.20013 -0.00200879 -0.000977016)
(1.20007 -0.00203705 -0.00104216)
(1.19992 -0.00136894 -0.000663978)
(1.19988 -0.0013805 -0.000711053)
(1.19996 -0.00142904 -0.000727955)
(1.19995 -0.00128417 -0.000662573)
(1.20003 -0.00131814 -0.000677487)
(1.19999 -0.0013354 -0.000718867)
(1.19992 -0.000889998 -0.000452491)
(1.1999 -0.000896367 -0.000482989)
(1.19995 -0.000930962 -0.000497159)
(1.19995 -0.000835497 -0.000451168)
(1.2 -0.000860152 -0.000463701)
(1.19998 -0.000870721 -0.00049073)
(1.19994 -0.00057291 -0.000305224)
(1.19993 -0.000577107 -0.000324515)
(1.19996 -0.000601165 -0.000335945)
(1.19996 -0.000538091 -0.000303731)
(1.19999 -0.0005551 -0.000314027)
(1.19998 -0.00056243 -0.000330864)
(1.19996 -0.000367806 -0.000204519)
(1.19995 -0.000370869 -0.000216213)
(1.19997 -0.000386515 -0.000224418)
(1.19998 -0.000345979 -0.000203641)
(1.19999 -0.000357326 -0.000210772)
(1.19999 -0.000362368 -0.000221043)
(1.19998 -0.000233514 -0.000138533)
(1.19997 -0.000235703 -0.000146214)
(1.19998 -0.000246284 -0.000152343)
(1.19999 -0.000219453 -0.000137698)
(1.2 -0.000227162 -0.000143351)
(1.19999 -0.000230654 -0.000149986)
(1.19999 -0.000146984 -9.09803e-05)
(1.19999 -0.000148169 -9.5769e-05)
(1.19999 -0.000155159 -0.000100265)
(1.2 -0.000138042 -8.99844e-05)
(1.2 -0.000143313 -9.40668e-05)
(1.2 -0.000145283 -9.83355e-05)
(1.2 -9.00272e-05 -5.70597e-05)
(1.2 -9.04606e-05 -6.00045e-05)
(1.2 -9.56478e-05 -6.34069e-05)
(1.20001 -8.38616e-05 -5.60366e-05)
(1.20001 -8.80034e-05 -5.9083e-05)
(1.20001 -8.91058e-05 -6.19486e-05)
(1.20001 -4.88298e-05 -3.39349e-05)
(1.20001 -4.91339e-05 -3.52275e-05)
(1.20001 -5.28019e-05 -3.75355e-05)
(1.20001 -4.42888e-05 -3.22401e-05)
(1.20002 -4.76314e-05 -3.4383e-05)
(1.20002 -4.79852e-05 -3.64448e-05)
(1.22413 -0.00445254 -0.000313569)
(1.21848 -0.00650927 0.000473677)
(1.21724 -0.00871255 0.000211769)
(1.21797 -0.00619509 0.000555973)
(1.21876 -0.00310721 -8.60083e-06)
(1.21309 -0.0138585 -0.00113684)
(1.20967 -0.00998521 -0.00219369)
(1.21352 -0.0139171 -0.00114106)
(1.21274 -0.013264 -0.00121088)
(1.21215 -0.012669 -0.00147391)
(1.21102 -0.00844683 -0.00159806)
(1.20718 -0.00788923 -0.0018333)
(1.20489 -0.00732508 -0.00237619)
(1.20786 -0.00818332 -0.00196962)
(1.20667 -0.00711504 -0.00199865)
(1.20604 -0.00593809 -0.00196894)
(1.20715 -0.00748249 -0.00194387)
(1.20365 -0.00483581 -0.00173172)
(1.20313 -0.00498997 -0.00195291)
(1.20404 -0.00497162 -0.00185689)
(1.20345 -0.00448554 -0.00177056)
(1.20365 -0.00421899 -0.00172996)
(1.20375 -0.00461303 -0.00186253)
(1.20208 -0.00328075 -0.00137412)
(1.20196 -0.00341414 -0.00150397)
(1.20227 -0.00337564 -0.00148538)
(1.20201 -0.00307914 -0.00139127)
(1.20227 -0.00301473 -0.00138021)
(1.20219 -0.00315709 -0.00149198)
(1.20127 -0.00225236 -0.00103907)
(1.20119 -0.00234321 -0.00112496)
(1.2014 -0.00232747 -0.00112734)
(1.20124 -0.00211567 -0.00104707)
(1.20142 -0.00208346 -0.00105177)
(1.20136 -0.00217923 -0.00112623)
(1.20077 -0.00152143 -0.000764114)
(1.20072 -0.00158255 -0.000821257)
(1.20086 -0.00157883 -0.00083132)
(1.20076 -0.00142946 -0.000767731)
(1.20088 -0.00141289 -0.000778239)
(1.20084 -0.00147844 -0.000827727)
(1.20047 -0.00101472 -0.000550185)
(1.20044 -0.00105515 -0.000588494)
(1.20053 -0.00105654 -0.000600547)
(1.20047 -0.00095379 -0.000551804)
(1.20055 -0.000945512 -0.000563657)
(1.20052 -0.000989893 -0.000596557)
(1.20029 -0.00066661 -0.000388509)
(1.20027 -0.000693938 -0.000413155)
(1.20033 -0.000696879 -0.000424567)
(1.20029 -0.000626346 -0.000388378)
(1.20034 -0.000622534 -0.000399051)
(1.20033 -0.000652516 -0.000420423)
(1.20018 -0.000433538 -0.000269565)
(1.20017 -0.000451268 -0.000285794)
(1.20021 -0.000454154 -0.000295399)
(1.20018 -0.000407756 -0.000268887)
(1.20022 -0.0004059 -0.000277903)
(1.20021 -0.000425652 -0.000291904)
(1.20011 -0.000279576 -0.000186402)
(1.20011 -0.000291457 -0.000196376)
(1.20013 -0.000293771 -0.000203391)
(1.20012 -0.000263118 -0.000185913)
(1.20014 -0.000262181 -0.000192301)
(1.20014 -0.000275504 -0.000200966)
(1.20008 -0.000179338 -0.000128422)
(1.20007 -0.000186685 -0.000135424)
(1.20009 -0.000188723 -0.000140955)
(1.20008 -0.000168919 -0.000127936)
(1.20009 -0.000168775 -0.0001332)
(1.20009 -0.000177115 -0.000139113)
(1.20006 -0.0001138 -8.52047e-05)
(1.20006 -0.000118842 -8.95231e-05)
(1.20007 -0.000120215 -9.3826e-05)
(1.20006 -0.000106769 -8.43986e-05)
(1.20007 -0.000107535 -8.82879e-05)
(1.20007 -0.000112566 -9.22345e-05)
(1.20005 -6.86611e-05 -5.42152e-05)
(1.20005 -7.36736e-05 -5.6661e-05)
(1.20005 -7.31595e-05 -5.9991e-05)
(1.20005 -6.37338e-05 -5.30807e-05)
(1.20006 -6.65167e-05 -5.59389e-05)
(1.20006 -6.7939e-05 -5.88075e-05)
(1.20004 -3.64701e-05 -3.1445e-05)
(1.20004 -4.08257e-05 -3.23254e-05)
(1.20005 -3.94097e-05 -3.50426e-05)
(1.20005 -3.30112e-05 -2.95632e-05)
(1.20005 -3.85317e-05 -3.1616e-05)
(1.20005 -3.57605e-05 -3.42974e-05)
(1.21248 -0.0019214 0.000193978)
(1.21341 -0.000644 1.36044e-05)
(1.21228 -0.00237627 7.2862e-05)
(1.21229 -0.000610912 9.04702e-05)
(1.21222 -0.00184376 0.000213944)
(1.21064 -0.00418985 -0.000673792)
(1.21011 -0.00326636 -0.000944755)
(1.21089 -0.0040408 -0.00061758)
(1.21015 -0.00405994 -0.000798338)
(1.2101 -0.00240944 -0.000758981)
(1.21045 -0.00400397 -0.000737373)
(1.20732 -0.00328256 -0.0011274)
(1.20674 -0.003288 -0.001306)
(1.2077 -0.00336539 -0.00115065)
(1.20692 -0.00306423 -0.00120796)
(1.20707 -0.00234214 -0.00116018)
(1.20727 -0.00313688 -0.00123475)
(1.20465 -0.00223202 -0.0011749)
(1.20449 -0.00249238 -0.00128734)
(1.20494 -0.00229385 -0.00124105)
(1.20442 -0.00209635 -0.00121862)
(1.20471 -0.00182801 -0.00119553)
(1.20468 -0.00214031 -0.00128354)
(1.20301 -0.00157689 -0.00102712)
(1.20296 -0.00176455 -0.00110825)
(1.20321 -0.00161933 -0.00109928)
(1.20289 -0.00148416 -0.00105006)
(1.20311 -0.00132833 -0.00105062)
(1.20307 -0.00151931 -0.00111692)
(1.20195 -0.00109858 -0.000829448)
(1.20192 -0.00123047 -0.000887624)
(1.20209 -0.00113365 -0.000893698)
(1.20188 -0.0010338 -0.000841606)
(1.20203 -0.00092884 -0.000852526)
(1.20201 -0.0010635 -0.000899999)
(1.20125 -0.000751374 -0.00064002)
(1.20123 -0.000842368 -0.000681085)
(1.20135 -0.000778714 -0.000692655)
(1.20121 -0.000706954 -0.00064648)
(1.20131 -0.000637245 -0.00066015)
(1.20131 -0.00073045 -0.000693841)
(1.2008 -0.00050486 -0.000478278)
(1.20079 -0.000567484 -0.000507169)
(1.20087 -0.000525422 -0.000519761)
(1.20078 -0.000474728 -0.000481478)
(1.20085 -0.000429847 -0.000494902)
(1.20085 -0.000492599 -0.000518606)
(1.20051 -0.000332188 -0.000346915)
(1.20051 -0.000375683 -0.000366505)
(1.20056 -0.000347154 -0.000378165)
(1.2005 -0.00031216 -0.000347874)
(1.20055 -0.000284966 -0.000359399)
(1.20055 -0.000325086 -0.000375733)
(1.20033 -0.000214613 -0.000246536)
(1.20033 -0.000245798 -0.000259756)
(1.20036 -0.000225246 -0.000269166)
(1.20033 -0.000201242 -0.000246507)
(1.20036 -0.000186399 -0.000255756)
(1.20036 -0.000210614 -0.000266771)
(1.20022 -0.000134353 -0.000173329)
(1.20022 -0.000158774 -0.000182002)
(1.20024 -0.000141671 -0.000188951)
(1.20022 -0.000125479 -0.000173072)
(1.20024 -0.000120126 -0.000179517)
(1.20024 -0.00013187 -0.000187074)
(1.20015 -8.14381e-05 -0.000122817)
(1.20015 -0.000102561 -0.000128478)
(1.20016 -8.62237e-05 -0.000133931)
(1.20015 -7.59381e-05 -0.000122886)
(1.20016 -7.74331e-05 -0.000127104)
(1.20016 -8.00641e-05 -0.000132837)
(1.20011 -4.716e-05 -8.319e-05)
(1.20011 -6.69336e-05 -8.6387e-05)
(1.20012 -5.06621e-05 -9.16726e-05)
(1.20011 -4.35224e-05 -8.24967e-05)
(1.20012 -5.08686e-05 -8.59808e-05)
(1.20012 -4.67544e-05 -9.02009e-05)
(1.20008 -2.18167e-05 -5.34427e-05)
(1.20008 -4.13531e-05 -5.51015e-05)
(1.20009 -2.45755e-05 -5.90351e-05)
(1.20008 -1.91117e-05 -5.21129e-05)
(1.20009 -3.14262e-05 -5.49635e-05)
(1.20009 -2.1679e-05 -5.78387e-05)
(1.20007 -6.6293e-06 -2.96984e-05)
(1.20007 -2.36467e-05 -2.99711e-05)
(1.20007 -7.53432e-06 -3.32008e-05)
(1.20007 -5.26234e-06 -2.77485e-05)
(1.20008 -2.12889e-05 -2.93138e-05)
(1.20008 -5.97222e-06 -3.26243e-05)
(1.00666 -0.123623 -0.0198881)
(0.97044 -0.145539 -0.0482415)
(1.27933 -0.108192 -0.0316113)
(1.20162 -0.000227901 0.0137485)
(1.20183 -0.00750873 0.00673323)
(1.19008 -0.00414091 0.0171124)
(1.21788 -0.0118404 -0.0103661)
(1.19647 -0.00780608 0.0207303)
(1.31944 -0.077004 0.000395521)
(1.30065 -0.0578903 -0.00618285)
(1.31941 -0.0777325 0.00079716)
(1.33007 -0.0739645 -0.00631632)
(1.30658 -0.0788478 -0.00716368)
(1.18742 -0.0125116 0.00127862)
(1.19621 -0.0207111 0.00605654)
(1.20228 -0.035514 0.00363)
(1.18641 -0.0106519 0.00300842)
(1.19059 -0.0365167 0.00717248)
(1.19545 -0.0243019 0.0055265)
(1.33127 -0.0728918 0.00587415)
(1.3076 -0.0782686 0.00682792)
(1.31924 -0.0764192 0.000592897)
(1.1904 -0.00813481 -0.00364051)
(1.19461 -0.0272933 -0.00284897)
(1.1728 -0.0235363 -0.00407313)
(1.18509 -0.0209845 -0.00248591)
(1.18631 -0.011287 -0.000604425)
(1.31449 -0.0772897 -0.0014108)
(1.29676 -0.0574817 -0.00619214)
(1.31518 -0.0768637 -0.00107844)
(1.3265 -0.0722789 -0.00686025)
(1.30337 -0.0789651 -0.00883194)
(1.1856 -0.0113952 -0.00352857)
(1.19272 -0.0145813 -0.00117834)
(1.19815 -0.0314713 -0.000876649)
(1.18544 -0.0111664 -0.00239514)
(1.18193 -0.0299622 -0.00110193)
(1.19019 -0.022538 -0.00141671)
(1.32562 -0.0723064 0.00518051)
(1.30235 -0.0792741 0.00537917)
(1.31367 -0.0777611 -0.00179377)
(1.18988 -0.0110979 -0.00557403)
(1.19515 -0.0291466 -0.00399022)
(1.17674 -0.0265763 -0.00574391)
(1.18643 -0.0216275 -0.00467371)
(1.18448 -0.0105706 -0.00459807)
(0.438948 0.0997396 -0.0393117)
(0.29383 0.0692289 -0.0242031)
(0.353001 0.120617 -0.0399102)
(0.286354 0.0678377 -0.0299997)
(0.255451 0.115337 -0.0175717)
(0.184814 0.076133 0.0216313)
(0.109473 0.103508 -0.0159298)
(1.19747 0.00373363 0.0185731)
(1.20105 -0.0130107 0.0173656)
(1.19491 -0.00686203 0.0147023)
(1.19199 -0.0152198 0.00346395)
(1.19785 -0.0144315 0.00347943)
(1.19344 -0.0142367 0.00474654)
(1.19146 -0.0152608 0.00527845)
(1.19347 -0.0193965 -0.000373762)
(1.19398 -0.0163584 0.000479025)
(1.20416 -0.0317491 0.00316564)
(1.19608 -0.0136273 0.00411121)
(1.19428 -0.0353952 0.00648826)
(1.19625 -0.0262037 0.00387445)
(1.19314 -0.0171991 -0.00346413)
(1.19147 -0.0204339 -0.00198512)
(1.19772 -0.019481 -0.00134938)
(1.19423 -0.0170422 -0.000918139)
(1.19507 -0.0220559 -0.00134868)
(1.19151 -0.02438 -0.00100721)
(1.20549 -0.0279557 0.00100858)
(1.20929 -0.0386901 0.00271418)
(1.20377 -0.0146614 0.00530125)
(1.22916 -0.00993091 -4.78831e-05)
(1.22708 -0.00554829 0.000485699)