/*--------------------------------*- C++ -*----------------------------------*\
| =========                 |                                                 |
| \\      /  F ield         | OpenFOAM: The Open Source CFD Toolbox           |
|  \\    /   O peration     | Version:  2012                                  |
|   \\  /    A nd           | Website:  www.openfoam.com                      |
|    \\/     M anipulation  |                                                 |
\*---------------------------------------------------------------------------*/
FoamFile
{
    version     2.0;
    format      ascii;
    class       volVectorField;
    location    "0.106/fluid";
    object      cellMotionU;
}
// * * * * * * * * * * * * * * * * * * * * * * * * * * * * * * * * * * * * * //

dimensions      [0 1 -1 0 0 0 0];


internalField   nonuniform List<vector> 
16422
(
(1.20493e-07 7.29187e-07 -2.63826e-07)
(-7.77024e-07 2.83821e-06 -5.73378e-07)
(-3.24262e-06 4.94163e-06 2.29592e-07)
(-5.30636e-06 7.57941e-06 1.42321e-06)
(-4.87345e-06 1.095e-05 1.92837e-06)
(-2.60747e-06 1.44339e-05 1.83663e-06)
(4.94344e-07 1.71517e-05 1.43471e-06)
(3.78179e-06 1.86196e-05 9.66084e-07)
(6.75726e-06 1.90738e-05 5.70534e-07)
(8.97395e-06 1.83042e-05 2.7217e-07)
(9.85427e-06 1.62702e-05 8.28936e-08)
(9.12564e-06 1.34377e-05 -7.56352e-09)
(6.67798e-06 9.50317e-06 -3.0588e-08)
(3.08309e-06 4.2446e-06 -2.22581e-08)
(3.48004e-06 2.86724e-06 8.26594e-08)
(6.95818e-07 1.13446e-05 -3.93963e-06)
(-1.26524e-05 2.53991e-05 -4.579e-06)
(-3.57236e-05 4.17461e-05 4.41853e-06)
(-4.8439e-05 6.5734e-05 1.37061e-05)
(-4.23144e-05 9.66026e-05 1.72189e-05)
(-2.15638e-05 0.000128168 1.59654e-05)
(6.09561e-06 0.000152319 1.23376e-05)
(3.47643e-05 0.000165982 8.41175e-06)
(6.09159e-05 0.000168544 4.96793e-06)
(8.03939e-05 0.000160114 2.33707e-06)
(8.77404e-05 0.00014248 7.57653e-07)
(8.09433e-05 0.000116877 -4.89489e-08)
(5.90228e-05 8.17329e-05 -2.89702e-07)
(2.75329e-05 3.74665e-05 -1.93631e-07)
(1.11102e-05 1.32413e-05 3.30927e-07)
(-1.79351e-06 2.68323e-05 -8.78262e-06)
(-3.92857e-05 3.62566e-05 -5.79127e-06)
(-8.07784e-05 6.0372e-05 1.35393e-05)
(-9.14941e-05 0.000106862 2.71307e-05)
(-6.9894e-05 0.000165189 3.01014e-05)
(-2.79462e-05 0.000221225 2.59952e-05)
(2.15433e-05 0.000263233 1.95741e-05)
(7.10503e-05 0.000285939 1.32871e-05)
(0.000115595 0.000288164 7.84317e-06)
(0.000148289 0.000272112 3.69319e-06)
(0.000160372 0.00024064 1.06359e-06)
(0.000146711 0.000195386 -3.17121e-07)
(0.000106525 0.000135709 -6.92617e-07)
(5.04345e-05 6.37536e-05 -4.00329e-07)
(1.56354e-06 6.17052e-06 4.24761e-07)
(-3.08478e-06 2.61428e-05 -5.87123e-06)
(-5.18018e-05 3.0835e-05 -8.54518e-06)
(-0.000109885 5.49007e-05 1.52405e-05)
(-0.000114853 0.000115667 3.18028e-05)
(-7.60638e-05 0.000194035 3.37786e-05)
(-1.6909e-05 0.000265565 2.81395e-05)
(4.88648e-05 0.000317063 2.06316e-05)
(0.000111896 0.000343217 1.38321e-05)
(0.000166455 0.000344366 8.20435e-06)
(0.000205117 0.000323465 3.87701e-06)
(0.000219515 0.000284781 8.17288e-07)
(0.000200405 0.000231527 -8.55832e-07)
(0.000145796 0.00016195 -1.17914e-06)
(6.88947e-05 7.54326e-05 -6.33803e-07)
(-3.7126e-07 7.17453e-07 -1.53585e-07)
(-2.37899e-06 2.8161e-06 -2.33578e-07)
(-5.53157e-06 5.14227e-06 5.04174e-07)
(-7.72503e-06 7.77484e-06 1.50286e-06)
(-7.11627e-06 1.06089e-05 1.91709e-06)
(-4.60893e-06 1.34156e-05 1.80386e-06)
(-1.26076e-06 1.56894e-05 1.43447e-06)
(2.30329e-06 1.70625e-05 1.00388e-06)
(5.64158e-06 1.74408e-05 6.09044e-07)
(8.21448e-06 1.66935e-05 3.01666e-07)
(9.39004e-06 1.48653e-05 1.05476e-07)
(8.78761e-06 1.21363e-05 6.29183e-09)
(6.37786e-06 8.52036e-06 -1.97924e-08)
(2.92366e-06 3.85669e-06 -1.52277e-08)
(3.54267e-07 3.11149e-06 3.27372e-07)
(-6.43061e-06 1.07418e-05 -2.25838e-06)
(-2.7541e-05 2.55102e-05 -1.63573e-06)
(-5.52923e-05 4.36401e-05 5.92738e-06)
(-6.97492e-05 6.65687e-05 1.39338e-05)
(-6.1886e-05 9.30096e-05 1.67977e-05)
(-3.8904e-05 0.000118598 1.54302e-05)
(-9.28824e-06 0.000138397 1.21532e-05)
(2.17551e-05 0.000149756 8.50263e-06)
(5.08057e-05 0.000151896 5.15787e-06)
(7.32609e-05 0.000144677 2.54446e-06)
(8.35624e-05 0.000129087 8.93875e-07)
(7.84255e-05 0.00010699 9.67017e-08)
(5.70621e-05 7.56307e-05 -1.32131e-07)
(2.60148e-05 3.38491e-05 -1.26668e-07)
(9.19392e-06 1.69382e-05 1.46107e-06)
(-1.77968e-05 2.80808e-05 -6.72214e-06)
(-7.12434e-05 4.06962e-05 -1.40313e-06)
(-0.00011946 6.7304e-05 1.49989e-05)
(-0.000129823 0.000109434 2.58306e-05)
(-0.00010529 0.000159837 2.83213e-05)
(-6.03101e-05 0.000206403 2.48939e-05)
(-6.93908e-06 0.000240088 1.92158e-05)
(4.67047e-05 0.000257474 1.34121e-05)
(9.62651e-05 0.000258751 8.19062e-06)
(0.000134409 0.000244772 4.07213e-06)
(0.000151579 0.000218075 1.4329e-06)
(0.000141625 0.000179538 4.23349e-08)
(0.000102644 0.000125558 -3.74339e-07)
(4.75734e-05 5.76411e-05 -2.5716e-07)
(8.79099e-06 2.06462e-05 3.47234e-07)
(-1.45167e-05 3.24641e-05 -8.33856e-06)
(-9.61029e-05 3.83387e-05 -2.65224e-06)
(-0.000164843 6.63089e-05 1.81126e-05)
(-0.000169078 0.00012217 3.0408e-05)
(-0.000126854 0.000189205 3.15774e-05)
(-6.35845e-05 0.000248526 2.69848e-05)
(8.74493e-06 0.000290193 2.03932e-05)
(7.77525e-05 0.000309497 1.42232e-05)
(0.000138468 0.00030887 8.90674e-06)
(0.000184169 0.000290513 4.61156e-06)
(0.000205615 0.000257448 1.49226e-06)
(0.000191632 0.000212115 -2.24767e-07)
(0.000139601 0.000148966 -7.19594e-07)
(6.56496e-05 6.9355e-05 -4.2384e-07)
(-9.93475e-07 4.60508e-07 6.81846e-08)
(-1.84638e-06 1.19398e-06 7.49865e-09)
(-4.09411e-06 3.1631e-06 1.25722e-07)
(-6.9139e-06 5.61244e-06 6.91635e-07)
(-8.44889e-06 8.07059e-06 1.2956e-06)
(-7.80556e-06 1.04351e-05 1.52987e-06)
(-5.52234e-06 1.26361e-05 1.42347e-06)
(-2.32025e-06 1.42868e-05 1.14025e-06)
(1.19926e-06 1.52537e-05 8.1333e-07)
(4.61004e-06 1.55206e-05 5.08276e-07)
(7.40902e-06 1.49127e-05 2.58238e-07)
(8.87258e-06 1.33801e-05 9.38884e-08)
(8.51407e-06 1.11222e-05 1.48371e-08)
(6.17347e-06 7.86389e-06 -6.2596e-09)
(2.77759e-06 3.48621e-06 -8.81541e-09)
(-1.53027e-05 7.0323e-06 1.25842e-06)
(-2.3827e-05 1.35076e-05 2.36953e-07)
(-4.39535e-05 2.87969e-05 1.74672e-06)
(-6.61483e-05 4.83798e-05 6.88661e-06)
(-7.64637e-05 6.99204e-05 1.16914e-05)
(-6.87213e-05 9.1765e-05 1.32687e-05)
(-4.73255e-05 0.00011147 1.21115e-05)
(-1.8748e-05 0.000125642 9.62073e-06)
(1.19929e-05 0.000133163 6.82993e-06)
(4.16623e-05 0.000134242 4.23339e-06)
(6.60327e-05 0.00012858 2.13404e-06)
(7.8789e-05 0.000116622 8.26557e-07)
(7.57021e-05 9.79207e-05 1.73165e-07)
(5.50085e-05 6.92776e-05 -2.87488e-08)
(2.47837e-05 3.08191e-05 -6.69045e-08)
(-4.40053e-05 2.09723e-05 4.68476e-06)
(-6.41717e-05 2.95111e-05 7.42656e-07)
(-0.000104445 4.94223e-05 5.13431e-06)
(-0.000138171 8.01155e-05 1.45212e-05)
(-0.000143839 0.000119337 2.10805e-05)
(-0.000120341 0.000160507 2.2244e-05)
(-7.71154e-05 0.000195909 1.95927e-05)
(-2.4897e-05 0.000219172 1.53191e-05)
(2.86994e-05 0.000229222 1.08571e-05)
(7.95509e-05 0.000228089 6.75441e-06)
(0.000120698 0.00021704 3.48036e-06)
(0.000142049 0.000196777 1.43094e-06)
(0.000136903 0.000165938 3.02487e-07)
(9.97676e-05 0.00011769 -9.06014e-08)
(4.52648e-05 5.31637e-05 -1.19946e-07)
(-5.82161e-05 3.04164e-05 6.77843e-06)
(-9.08797e-05 3.76506e-05 1.58731e-07)
(-0.000155154 5.38731e-05 6.47209e-06)
(-0.000198476 8.9636e-05 1.85459e-05)
(-0.00019333 0.000140955 2.50139e-05)
(-0.00015098 0.000195733 2.51052e-05)
(-8.76189e-05 0.000240944 2.15291e-05)
(-1.71939e-05 0.00026816 1.67138e-05)
(5.22449e-05 0.000276856 1.18661e-05)
(0.000114792 0.000272847 7.64788e-06)
(0.000164061 0.000257958 4.28509e-06)
(0.00019133 0.000232526 1.77491e-06)
(0.000184242 0.000196406 2.96945e-07)
(0.000135221 0.000140351 -2.43148e-07)
(6.25945e-05 6.4693e-05 -1.94944e-07)
(-4.82923e-06 1.48262e-06 1.69403e-07)
(-5.04384e-06 2.14463e-06 1.51973e-07)
(-6.17075e-06 3.83407e-06 2.50928e-07)
(-7.49955e-06 5.94949e-06 5.06293e-07)
(-8.19857e-06 8.2432e-06 7.55469e-07)
(-7.49877e-06 1.03271e-05 8.28308e-07)
(-5.62855e-06 1.22314e-05 7.5695e-07)
(-2.68386e-06 1.34172e-05 5.95554e-07)
(6.69422e-07 1.39375e-05 4.19141e-07)
(3.93192e-06 1.40116e-05 2.64835e-07)
(6.77669e-06 1.35837e-05 1.3612e-07)
(8.39934e-06 1.23561e-05 4.98175e-08)
(8.17388e-06 1.02808e-05 6.20309e-09)
(5.97906e-06 7.35059e-06 -4.13463e-09)
(2.70256e-06 3.30236e-06 -5.57397e-09)
(-4.90548e-05 1.40971e-05 1.81146e-06)
(-5.20241e-05 1.98657e-05 1.64666e-06)
(-6.13234e-05 3.38655e-05 2.60359e-06)
(-7.22247e-05 5.26875e-05 4.85015e-06)
(-7.61888e-05 7.27719e-05 6.71061e-06)
(-6.83567e-05 9.18123e-05 7.23147e-06)
(-4.8855e-05 0.000107453 6.45924e-06)
(-2.22729e-05 0.000117522 5.06619e-06)
(6.70922e-06 0.000121695 3.5789e-06)
(3.54226e-05 0.00012122 2.21437e-06)
(5.99343e-05 0.000116648 1.12138e-06)
(7.41164e-05 0.000107194 4.32815e-07)
(7.26642e-05 9.07798e-05 9.0092e-08)
(5.32643e-05 6.4821e-05 -1.59399e-08)
(2.40155e-05 2.90689e-05 -4.0813e-08)
(-0.000120016 2.9845e-05 4.90275e-06)
(-0.000122185 3.81389e-05 4.28656e-06)
(-0.0001356 6.00924e-05 6.1097e-06)
(-0.000148431 9.16608e-05 9.6243e-06)
(-0.000145407 0.000127628 1.1963e-05)
(-0.000121601 0.000161821 1.20512e-05)
(-8.11219e-05 0.000188903 1.04634e-05)
(-3.21055e-05 0.000204654 8.1391e-06)
(1.86229e-05 0.000208845 5.75012e-06)
(6.80637e-05 0.000205124 3.53015e-06)
(0.00010909 0.000195565 1.82788e-06)
(0.000132795 0.000179959 7.95333e-07)
(0.000130974 0.000154229 2.17366e-07)
(9.65982e-05 0.000110596 -2.75573e-08)
(4.39033e-05 5.01569e-05 -6.17775e-08)
(-0.000192595 4.45442e-05 8.35363e-06)
(-0.000193356 5.09228e-05 6.50753e-06)
(-0.000208606 7.37285e-05 8.64818e-06)
(-0.000215371 0.000111914 1.23357e-05)
(-0.000198092 0.000157921 1.42543e-05)
(-0.000155565 0.000202575 1.37183e-05)
(-9.51168e-05 0.000236383 1.16275e-05)
(-2.81439e-05 0.000253056 9.01792e-06)
(3.77679e-05 0.000253591 6.38641e-06)
(9.85314e-05 0.000245851 4.10235e-06)
(0.000149391 0.000232607 2.30422e-06)
(0.000178939 0.000212759 1.05229e-06)
(0.000175694 0.000182739 2.58956e-07)
(0.000130599 0.000132632 -7.2e-08)
(6.08566e-05 6.16786e-05 -9.03529e-08)
(1.20493e-07 3.40525e-07 -1.30014e-07)
(1.39412e-06 1.11516e-06 8.28983e-10)
(1.56523e-06 5.21895e-06 -1.83922e-06)
(1.21678e-06 5.85568e-06 6.12335e-07)
(-2.53359e-06 2.15892e-05 -6.8314e-07)
(8.59871e-08 3.29998e-07 -1.21806e-07)
(1.36096e-06 1.09412e-06 7.88369e-09)
(1.16772e-06 5.07627e-06 -1.73077e-06)
(-6.97001e-08 3.27847e-07 -9.0003e-08)
(6.12464e-07 1.10075e-06 6.99757e-08)
(-1.04327e-06 4.88827e-06 -1.26187e-06)
(-2.14495e-06 2.20189e-05 -1.47914e-06)
(6.57489e-06 1.7821e-05 -2.20956e-07)
(2.85309e-06 2.93416e-05 -6.01109e-06)
(-1.62152e-07 3.36232e-07 -7.23136e-08)
(-1.92316e-08 1.27005e-06 1.13483e-07)
(-2.36594e-06 4.87842e-06 -9.65665e-07)
(-3.82334e-07 2.18742e-07 2.82192e-08)
(-8.83569e-07 6.4223e-07 -1.4244e-08)
(-5.7253e-06 3.30481e-06 5.32706e-07)
(-9.61874e-06 6.50634e-06 -9.77891e-08)
(8.23167e-06 1.20029e-05 3.08196e-07)
(2.51982e-06 2.26044e-05 -6.30407e-06)
(1.32386e-06 7.18638e-06 9.90191e-07)
(-2.45821e-07 2.08291e-05 -2.1073e-06)
(-3.23454e-06 2.50689e-05 -5.05821e-06)
(-2.75128e-05 2.90935e-05 -1.21377e-05)
(8.91547e-08 2.26391e-07 -6.73911e-08)
(2.88391e-09 3.64542e-09 -1.56582e-09)
(4.29281e-08 1.50075e-08 1.85619e-09)
(1.33111e-07 2.41045e-07 -7.71651e-08)
(3.60282e-08 1.29968e-08 2.47943e-09)
(1.91074e-09 3.47873e-09 -1.3544e-09)
(2.73661e-06 2.33425e-05 -6.44503e-06)
(2.39891e-06 8.7108e-06 5.9459e-07)
(1.1266e-09 2.18997e-05 -2.90424e-06)
(1.29165e-05 1.63097e-05 9.52233e-07)
(-2.65994e-06 2.52792e-05 -6.36809e-06)
(9.43044e-06 1.82556e-05 1.13408e-07)
(4.23509e-07 2.81132e-05 -6.02623e-06)
(2.35832e-06 1.46983e-05 1.75793e-06)
(3.33791e-06 1.08871e-05 -4.47542e-07)
(7.89533e-06 2.0752e-05 -7.00184e-07)
(-3.38909e-05 2.99911e-05 -1.15817e-05)
(-6.73112e-06 3.10974e-05 -8.34822e-06)
(-6.02566e-05 3.39168e-05 -8.45936e-06)
(-3.82471e-07 4.36248e-07 -2.76435e-08)
(-1.58783e-11 4.13189e-09 -1.19047e-09)
(1.58543e-08 1.7956e-08 2.95613e-09)
(-2.22159e-11 1.71501e-10 -4.48415e-10)
(-7.51968e-08 2.47522e-07 -4.34164e-08)
(-1.37494e-07 1.4521e-07 1.869e-08)
(-1.17411e-08 1.41401e-08 -1.36224e-09)
(-3.00237e-06 3.07053e-05 -6.2899e-06)
(-3e-05 2.76248e-05 5.067e-06)
(-5.20858e-05 3.38461e-05 -1.92785e-06)
(2.85742e-09 3.58385e-09 -1.53465e-09)
(4.296e-08 1.50633e-08 1.83125e-09)
(1.41963e-07 2.49629e-07 -8.13955e-08)
(1.28643e-06 1.43575e-05 2.01503e-06)
(-2.2803e-06 1.87615e-05 1.80801e-06)
(-7.30151e-06 2.15501e-05 5.66494e-07)
(6.40743e-08 2.23855e-07 -6.2932e-08)
(2.79333e-10 3.86619e-09 -1.16908e-09)
(1.82884e-08 1.63183e-08 2.91702e-09)
(3.36797e-08 1.35256e-08 2.542e-09)
(-2.94936e-08 2.34231e-07 -4.87401e-08)
(1.63692e-09 3.38932e-09 -1.2909e-09)
(-1.81449e-06 1.8767e-05 1.11111e-06)
(-7.21876e-06 2.09462e-05 3.83753e-09)
(4.82033e-07 2.45225e-05 -2.96314e-06)
(1.49271e-06 2.17767e-05 -3.99246e-07)
(-3.14217e-06 2.40353e-05 -1.69002e-06)
(3.89184e-06 1.32997e-05 -5.08073e-07)
(6.51083e-06 2.25477e-05 -1.28709e-06)
(2.41864e-06 1.66443e-05 -9.48595e-08)
(4.06911e-06 2.12248e-05 -5.34224e-07)
(3.47255e-06 2.25004e-05 -9.36095e-07)
(3.4777e-06 2.77282e-05 -4.78804e-06)
(6.36743e-06 2.66114e-05 -3.45875e-06)
(3.72475e-06 3.04493e-05 -6.03867e-06)
(5.74515e-06 2.59253e-05 -2.52952e-06)
(4.09802e-06 2.92964e-05 -4.61531e-06)
(6.62397e-06 2.79277e-05 -3.55089e-06)
(1.84278e-07 7.33223e-07 -2.72383e-07)
(-4.94633e-08 2.3367e-06 -6.43549e-07)
(1.36576e-06 7.72662e-06 -2.79153e-06)
(-2.47584e-06 1.70184e-05 -4.52077e-06)
(3.41646e-06 2.906e-06 6.39929e-08)
(2.21583e-06 8.33473e-06 -2.81498e-06)
(9.33973e-06 1.09627e-05 3.99139e-07)
(3.02451e-06 2.04981e-05 -6.17378e-06)
(-3.54713e-07 2.29565e-06 -5.93608e-07)
(6.52774e-07 7.57526e-06 -2.63456e-06)
(-4.74635e-06 1.6754e-05 -4.17724e-06)
(-2.15688e-07 7.01427e-07 -1.85607e-07)
(-1.33239e-06 2.25308e-06 -3.85597e-07)
(-2.6207e-06 7.28958e-06 -1.90315e-06)
(-1.19292e-05 1.64281e-05 -2.7024e-06)
(1.7172e-06 8.1358e-06 -2.6539e-06)
(1.1015e-05 1.15058e-05 4.11324e-07)
(2.73447e-06 2.07298e-05 -6.12533e-06)
(1.68412e-06 2.88777e-06 2.19722e-07)
(-1.66052e-06 7.81064e-06 -1.94423e-06)
(9.65402e-06 1.28525e-05 8.82964e-07)
(-3.16443e-06 2.11915e-05 -5.28181e-06)
(-1.68998e-06 2.24315e-06 -2.88394e-07)
(-4.30942e-06 7.25518e-06 -1.48799e-06)
(-1.45004e-05 1.63714e-05 -1.98017e-06)
(-1.2627e-06 9.84292e-07 -3.86206e-08)
(-2.90687e-06 2.45202e-06 -2.2776e-08)
(-1.22027e-05 8.68213e-06 -2.86159e-07)
(-2.38274e-05 1.77752e-05 1.24754e-08)
(-3.71172e-06 7.79499e-06 -1.50179e-06)
(5.35965e-06 1.31602e-05 1.3122e-06)
(-8.1953e-06 2.08667e-05 -4.27773e-06)
(-9.30538e-06 5.54171e-06 9.45e-07)
(-1.44903e-05 9.56567e-06 -1.12315e-07)
(-2.27458e-05 1.54997e-05 3.05539e-06)
(-3.40268e-05 2.1249e-05 -3.6486e-07)
(-1.48847e-06 8.69948e-07 2.21978e-08)
(-1.01053e-05 4.62079e-06 7.8115e-07)
(-1.4143e-05 7.71241e-06 2.58214e-07)
(-3.87365e-06 1.25633e-06 1.67922e-07)
(-4.00092e-06 1.63585e-06 1.36979e-07)
(-2.95494e-05 9.26249e-06 1.3435e-06)
(-3.15824e-05 1.20835e-05 1.12569e-06)
(1.46656e-08 2.57119e-08 -1.01867e-08)
(3.99094e-07 1.24834e-06 -4.6349e-07)
(1.89927e-07 4.38077e-07 -1.56194e-07)
(1.6719e-07 8.31693e-08 5.76431e-09)
(1.33448e-06 1.86602e-06 -3.88679e-07)
(3.82477e-07 5.54307e-07 -1.38766e-07)
(1.08966e-07 4.18068e-07 -1.39013e-07)
(1.31984e-08 2.5014e-08 -9.76e-09)
(2.89026e-07 1.22075e-06 -4.39434e-07)
(4.67251e-08 3.27199e-07 -1.1426e-07)
(1.49536e-07 4.19415e-07 -1.44927e-07)
(1.33252e-07 1.19594e-06 -4.05706e-07)
(8.76231e-09 2.4574e-08 -8.86243e-09)
(2.9751e-07 5.1968e-07 -1.206e-07)
(1.63919e-07 8.33679e-08 5.82067e-09)
(1.2766e-06 1.80794e-06 -3.59401e-07)
(1.23712e-06 1.06351e-06 2.1116e-08)
(3.44997e-07 5.32282e-07 -1.28157e-07)
(1.41169e-07 7.66087e-08 7.98643e-09)
(1.09012e-06 1.75419e-06 -3.20487e-07)
(3.27111e-08 4.10182e-07 -1.23216e-07)
(-8.99049e-09 3.2068e-07 -1.01484e-07)
(-1.46325e-09 2.64562e-08 -7.26508e-09)
(-2.92182e-07 1.18855e-06 -3.17075e-07)
(-6.44187e-08 1.16424e-06 -3.5549e-07)
(-6.49686e-08 4.15467e-07 -1.04628e-07)
(6.22988e-09 2.39392e-08 -8.16159e-09)
(1.88709e-07 5.1247e-07 -1.03625e-07)
(9.62555e-07 1.06541e-06 4.0568e-08)
(6.84618e-08 8.79976e-08 1.23456e-08)
(3.1826e-07 1.78168e-06 -2.22747e-07)
(1.25635e-07 7.82613e-08 8.61946e-09)
(7.51186e-07 1.74099e-06 -2.72449e-07)
(3.57977e-08 5.26261e-07 -8.17816e-08)
(-4.36431e-07 5.46264e-07 -6.3193e-08)
(-6.01735e-09 2.71774e-08 -6.58916e-09)
(-6.08494e-07 1.21525e-06 -2.53243e-07)
(-2.85354e-07 3.64503e-07 -5.33083e-08)
(-2.04811e-07 4.43169e-07 -8.2761e-08)
(-1.05112e-06 1.3153e-06 -1.84665e-07)
(-3.70216e-08 4.28361e-08 -4.099e-09)
(-6.0709e-07 7.749e-07 -2.46489e-08)
(3.88448e-08 1.02551e-07 1.37721e-08)
(-4.39106e-07 1.91242e-06 -1.32334e-07)
(-1.03007e-06 1.59776e-06 1.93205e-07)
(-2.00459e-07 5.90638e-07 -5.55381e-08)
(-2.22569e-07 2.82611e-07 3.73594e-08)
(-1.55153e-06 2.21517e-06 -2.40044e-08)
(-6.53389e-07 6.10123e-07 -1.5538e-08)
(-9.47315e-09 7.4653e-09 3.89546e-10)
(-4.51689e-07 2.83393e-07 1.49136e-08)
(-1.33973e-06 7.64821e-07 1.04903e-07)
(-2.51618e-07 2.16799e-07 2.75814e-08)
(-1.61663e-06 9.88617e-07 6.06907e-08)
(-3.52575e-08 3.75723e-08 -2.00238e-09)
(1.40998e-10 -3.79756e-10 -7.91932e-11)
(3.06138e-08 5.25841e-08 -2.01698e-08)
(2.44174e-09 3.52032e-09 -1.4677e-09)
(1.91294e-10 -3.79897e-10 -4.58969e-11)
(2.49393e-08 5.03292e-08 -1.87093e-08)
(1.77024e-10 -4.24606e-10 -8.68193e-11)
(7.23397e-08 6.71562e-08 -1.36906e-08)
(4.0125e-08 1.46182e-08 2.1253e-09)
(2.29168e-10 -4.32583e-10 -5.02145e-11)
(6.48445e-08 6.38124e-08 -1.257e-08)
(1.76197e-10 -4.35668e-10 -9.21821e-11)
(5.25751e-08 5.9776e-08 -1.02212e-08)
(3.89263e-08 1.4524e-08 2.27204e-09)
(6.22185e-08 6.33136e-08 -1.21976e-08)
(1.39298e-10 -5.03858e-10 -9.03803e-11)
(1.40533e-10 -3.8137e-10 -8.46275e-11)
(1.91912e-08 5.04347e-08 -1.75559e-08)
(2.20472e-09 3.45756e-09 -1.4145e-09)
(2.25502e-08 4.91953e-08 -1.79814e-08)
(1.06083e-10 -4.04181e-10 -8.58922e-11)
(2.68047e-06 1.30923e-05 9.4739e-07)
(3.36309e-06 2.09036e-05 -7.5928e-08)
(3.61324e-06 2.05252e-05 2.06596e-07)
(1.70016e-06 1.70697e-05 8.19036e-08)
(1.68099e-06 1.23892e-05 6.71518e-07)
(5.38041e-06 7.63664e-06 2.64867e-07)
(2.01766e-06 1.3866e-05 8.96427e-07)
(5.35739e-06 7.48067e-06 -2.27911e-07)
(2.40827e-06 1.36046e-05 9.26774e-07)
(3.17206e-06 2.22555e-05 6.43419e-07)
(2.54766e-06 1.50284e-05 1.15247e-06)
(3.36617e-06 2.14809e-05 3.88413e-07)
(1.66674e-06 1.25055e-05 4.20991e-07)
(3.25285e-06 8.94274e-06 -6.73769e-07)
(5.40662e-06 7.23073e-06 -3.05219e-07)
(1.04162e-06 1.5004e-05 -9.68479e-08)
(5.91516e-12 -3.59662e-10 -5.49584e-10)
(-7.13267e-09 5.59884e-08 -1.32991e-08)
(-1.63193e-09 4.01545e-09 -9.36127e-10)
(7.27845e-11 -5.59181e-10 -3.0334e-10)
(-2.68544e-08 6.01414e-08 -1.05203e-08)
(3.91773e-11 -3.89371e-10 -6.4409e-10)
(-3.45942e-10 7.10843e-08 -5.61573e-09)
(5.01745e-10 2.97546e-08 3.87771e-09)
(1.21202e-10 -6.53494e-10 -3.43357e-10)
(-3.74598e-08 9.69152e-08 -3.88078e-09)
(-7.71076e-10 9.45194e-10 -1.49467e-09)
(-2.3301e-10 3.47868e-10 -4.02506e-10)
(-3.77482e-09 6.08863e-09 -1.26599e-09)
(4.01523e-11 -3.68018e-10 -6.96995e-10)
(-2.20639e-07 2.72864e-07 3.52405e-09)
(-9.96339e-09 3.87662e-08 4.82109e-09)
(-3.32036e-09 3.98903e-09 -8.13103e-10)
(-5.83713e-08 1.1133e-07 -2.53949e-09)
(-1.59043e-08 2.20854e-08 -7.97573e-10)
(5.82812e-12 -3.33359e-10 -5.98581e-10)
(-9.68725e-08 1.48322e-07 -1.44927e-08)
(-2.41345e-09 3.99201e-09 -8.06479e-10)
(-4.11452e-10 5.85975e-10 -3.43963e-10)
(-3.66754e-08 6.53124e-08 -9.82198e-09)
(-1.13494e-08 1.72954e-08 -1.18215e-09)
(2.54085e-10 -3.1089e-10 -3.72382e-11)
(3.11014e-08 5.27677e-08 -2.02933e-08)
(3.42063e-09 3.94491e-09 -1.70129e-09)
(1.99704e-10 -3.72756e-10 -4.53841e-11)
(3.79712e-08 5.87831e-08 -2.28924e-08)
(2.89378e-10 -3.49313e-10 -4.04654e-11)
(4.31635e-08 1.52101e-08 2.38348e-09)
(7.34567e-08 6.89501e-08 -1.44989e-08)
(2.37247e-10 -4.24399e-10 -4.96207e-11)
(7.95733e-08 7.60942e-08 -1.61356e-08)
(2.96787e-10 -3.41825e-10 -3.90953e-11)
(8.10671e-08 7.73527e-08 -1.55907e-08)
(2.61494e-10 -3.04937e-10 -3.5884e-11)
(4.07159e-08 6.33562e-08 -2.46277e-08)
(1.84415e-06 1.44806e-05 1.6786e-06)
(1.80597e-06 1.41911e-05 1.17695e-06)
(5.34283e-06 7.83889e-06 3.79726e-07)
(1.77004e-06 1.42628e-05 8.92708e-07)
(5.37874e-06 7.86296e-06 6.88308e-07)
(1.56302e-06 1.3692e-05 1.28251e-06)
(5.24697e-06 7.49313e-06 8.06556e-07)
(2.2883e-06 1.52559e-05 1.50067e-06)
(3.19298e-06 2.3196e-05 7.57584e-07)
(2.30992e-06 1.55395e-05 1.13409e-06)
(2.85106e-06 2.31514e-05 9.16025e-07)
(-6.21046e-06 2.18273e-05 2.05326e-06)
(-5.14512e-06 2.09916e-05 2.24681e-06)
(-4.59663e-06 2.14997e-05 2.3553e-06)
(-7.31414e-06 2.06672e-05 1.887e-06)
(9.2438e-11 -5.25675e-10 -1.5998e-10)
(-2.91362e-09 5.44718e-08 -1.37587e-08)
(9.86842e-10 3.5432e-09 -1.22264e-09)
(8.77329e-11 -5.70735e-10 -2.81382e-10)
(5.16816e-09 5.03978e-08 -1.48282e-08)
(1.4017e-10 -5.89563e-10 -1.8025e-10)
(2.48331e-08 1.45642e-08 3.02061e-09)
(7.56743e-09 6.77126e-08 -6.16381e-09)
(1.37786e-10 -6.77354e-10 -3.14358e-10)
(2.65167e-08 6.27221e-08 -8.05535e-09)
(1.25903e-10 -5.49158e-10 -1.62466e-10)
(4.76114e-08 6.02881e-08 -9.9695e-09)
(2.66937e-08 1.46427e-08 2.93424e-09)
(1.26273e-10 -4.884e-10 -8.91642e-11)
(3.23405e-08 6.20791e-08 -8.64259e-09)
(7.90786e-11 -5.00586e-10 -1.44173e-10)
(1.56659e-08 4.93096e-08 -1.66342e-08)
(1.11132e-09 3.39462e-09 -1.20274e-09)
(9.35155e-11 -4.01509e-10 -8.51062e-11)
(7.99354e-09 4.90839e-08 -1.49508e-08)
(-4.22503e-06 2.11924e-05 5.25917e-07)
(-1.32746e-09 2.3951e-05 -1.12502e-07)
(-4.10722e-06 1.96091e-05 1.34228e-06)
(5.76449e-07 2.56448e-05 -1.38041e-06)
(-6.62461e-06 2.02437e-05 1.16381e-06)
(-5.26583e-06 2.01303e-05 2.10222e-06)
(-5.3271e-06 1.92935e-05 1.81083e-06)
(-7.02124e-06 2.01304e-05 1.7296e-06)
(9.45128e-07 2.05058e-05 -4.01553e-07)
(9.43132e-08 2.26686e-05 -1.82628e-07)
(-4.5059e-06 1.73536e-05 4.64588e-07)
(3.62615e-06 2.41484e-05 -1.19344e-06)
(7.3725e-07 1.6538e-05 -2.18228e-07)
(9.66856e-08 1.07058e-05 -6.84112e-07)
(-1.02801e-06 1.50065e-05 6.70634e-08)
(7.30913e-07 1.37274e-05 -4.66522e-07)
(8.59969e-06 3.00385e-05 -4.50003e-06)
(3.58269e-06 2.72886e-05 -1.48121e-06)
(4.11886e-06 2.77227e-05 -2.4106e-06)
(5.68806e-06 2.78634e-05 -2.43226e-06)
(-1.01816e-06 8.7445e-07 -3.82755e-08)
(-5.03126e-07 4.6518e-07 -3.68767e-08)
(-6.23894e-07 4.1317e-07 3.75375e-09)
(-3.00274e-06 2.12074e-06 -4.22618e-08)
(-1.78768e-06 1.6102e-06 -1.20615e-07)
(-2.17348e-06 1.40714e-06 2.04525e-08)
(-2.53351e-07 2.20434e-07 -1.12238e-08)
(-1.58292e-06 1.27701e-06 3.42577e-08)
(-2.76992e-06 2.25806e-06 3.25637e-07)
(-3.03821e-06 1.71589e-06 2.57622e-07)
(-6.38367e-06 3.88049e-06 3.13123e-07)
(-1.15541e-06 8.71966e-07 1.11964e-07)
(-3.41084e-06 2.85242e-06 1.21976e-07)
(-3.51467e-06 2.10399e-06 1.56188e-07)
(-2.61133e-09 2.46183e-09 -5.13525e-10)
(1.01281e-07 2.29494e-07 -7.01473e-08)
(4.68401e-08 8.28526e-08 -1.99988e-08)
(2.51485e-08 7.10086e-08 -2.22786e-08)
(2.90898e-08 7.11566e-08 -2.30483e-08)
(5.29578e-08 8.47725e-08 -2.13342e-08)
(-2.69716e-09 2.45126e-09 -3.7474e-10)
(-2.637e-09 2.45125e-09 -5.17587e-10)
(1.11e-07 2.31567e-07 -7.19797e-08)
(3.85757e-08 7.43844e-08 -2.52895e-08)
(6.40912e-08 8.89945e-08 -2.35635e-08)
(-2.55036e-09 2.54242e-09 -5.6457e-10)
(3.24421e-08 7.13335e-08 -2.35607e-08)
(5.69907e-08 8.57331e-08 -2.20464e-08)
(-4.23296e-09 3.94531e-09 7.75539e-10)
(-2.27074e-07 3.1783e-07 -3.05964e-08)
(-1.95861e-07 2.28269e-07 -4.70697e-09)
(-1.39371e-07 1.70597e-07 -1.23983e-08)
(-7.03405e-08 1.06355e-07 -1.14491e-08)
(-9.47321e-08 1.41283e-07 -7.26332e-09)
(-3.34436e-08 4.20668e-08 -1.09838e-09)
(-4.50528e-11 3.78894e-10 -1.00321e-09)
(-8.25417e-11 2.05885e-10 -4.40286e-10)
(-1.32403e-10 4.45358e-10 -9.8684e-10)
(-3.92674e-09 3.51074e-09 6.25454e-10)
(-1.4034e-07 2.71458e-07 -3.63918e-08)
(-2.17712e-08 7.84804e-08 -1.49003e-08)
(-2.20038e-08 9.57658e-08 -1.18457e-08)
(-3.33839e-09 2.94423e-09 2.25967e-10)
(-4.09361e-08 8.57036e-08 -1.26745e-08)
(-4.89834e-08 1.09527e-07 -9.67811e-09)
(-2.17704e-09 3.00434e-09 -7.26831e-10)
(1.4689e-07 2.54281e-07 -8.2176e-08)
(4.11548e-08 7.57111e-08 -2.61019e-08)
(6.73389e-08 9.21113e-08 -2.49024e-08)
(-2.5528e-09 2.56428e-09 -5.7123e-10)
(4.50722e-08 7.92311e-08 -2.74433e-08)
(7.08412e-08 9.59043e-08 -2.58903e-08)
(-2.92053e-09 2.55755e-09 -2.05874e-10)
(3.61037e-08 8.22495e-08 -1.85127e-08)
(3.40444e-08 2.23797e-07 -5.79425e-08)
(1.73691e-08 7.03367e-08 -2.07766e-08)
(-2.79785e-09 2.44689e-09 -3.16731e-10)
(9.39605e-09 7.04837e-08 -1.93408e-08)
(2.50649e-08 8.29503e-08 -1.71084e-08)
(-2.9937e-09 2.55773e-09 -1.4024e-10)
(8.07491e-10 2.25903e-07 -5.27366e-08)
(-8.76957e-09 7.36959e-08 -1.63673e-08)
(-2.13848e-09 8.78966e-08 -1.3637e-08)
(-3.22054e-09 2.81871e-09 1.19015e-10)
(9.27379e-11 7.07488e-08 -1.75841e-08)
(1.12024e-08 8.44113e-08 -1.52463e-08)
(-3.16578e-08 2.53732e-08 1.7977e-09)
(-1.09389e-08 9.86908e-09 4.27515e-12)
(-4.09656e-08 3.6288e-08 4.54477e-10)
(-2.05157e-07 1.46057e-07 1.01898e-08)
(-5.98237e-08 3.92257e-08 5.15535e-09)
(-1.86618e-07 1.21653e-07 1.55121e-08)
(-6.40002e-08 4.47908e-08 3.46617e-09)
(-3.1364e-07 2.82814e-07 1.77128e-08)
(-8.48242e-08 7.12985e-08 7.59829e-09)
(-1.13052e-07 1.02597e-07 4.41604e-09)
(-4.05614e-07 2.93062e-07 2.3092e-08)
(-7.13502e-07 4.73143e-07 6.83955e-08)
(-3.64656e-07 2.42871e-07 3.40371e-08)
(-7.91796e-07 5.50985e-07 4.80714e-08)
(-1.34537e-07 1.3667e-07 -6.79261e-09)
(-1.76779e-08 1.75626e-08 -5.77803e-10)
(-6.64141e-08 6.52719e-08 -1.28307e-09)
(-2.49388e-07 1.89608e-07 4.37836e-09)
(-1.03648e-07 7.95453e-08 3.65541e-11)
(-3.49306e-07 2.72973e-07 -2.43978e-09)
(-7.70734e-08 5.68735e-08 1.9806e-09)
(6.3557e-10 -2.1781e-10 -1.1019e-10)
(1.54004e-10 -3.87732e-10 -5.84633e-11)
(-2.14065e-09 2.69173e-09 -6.97341e-10)
(-2.15385e-09 2.69248e-09 -7.07175e-10)
(5.94843e-10 -2.25485e-10 -1.10465e-10)
(3.28767e-11 -1.97088e-10 -3.29704e-11)
(-9.55865e-12 -3.35254e-11 -3.99241e-12)
(5.07595e-11 -1.98906e-10 -2.71305e-11)
(-1.51219e-11 -3.06119e-11 -5.32399e-12)
(6.39677e-10 -2.23027e-10 -1.06378e-10)
(1.6206e-10 -3.92556e-10 -5.29243e-11)
(-2.00813e-09 2.79482e-09 -7.62613e-10)
(-2.11735e-09 2.71449e-09 -7.22116e-10)
(6.56398e-10 -2.2905e-10 -9.65011e-11)
(2.97343e-11 -1.93394e-10 -3.51594e-11)
(-2.16673e-11 -2.48109e-11 -6.88474e-12)
(1.52766e-11 -1.84084e-10 -4.037e-11)
(-1.64602e-11 -2.90868e-11 -5.87617e-12)
(2.0374e-09 8.98285e-10 -3.16358e-10)
(1.9134e-10 -4.26427e-10 -6.4412e-11)
(2.59168e-09 3.05063e-09 -9.64044e-10)
(2.73357e-09 3.18752e-09 -1.00134e-09)
(1.88789e-09 7.50645e-10 -2.54329e-10)
(1.12517e-09 9.23677e-11 -1.46386e-10)
(4.68142e-10 -6.9685e-10 -6.96646e-11)
(1.19018e-09 6.6329e-11 -1.45058e-10)
(4.36968e-10 -7.80356e-10 -7.45544e-11)
(2.08339e-09 9.02251e-10 -3.2224e-10)
(2.00625e-10 -4.34788e-10 -5.8033e-11)
(3.03577e-09 3.20819e-09 -1.01141e-09)
(2.85505e-09 3.18658e-09 -9.94643e-10)
(2.14349e-09 8.21286e-10 -2.89342e-10)
(1.05837e-09 1.04165e-10 -1.39872e-10)
(4.85127e-10 -5.40376e-10 -1.38313e-11)
(9.89642e-10 2.56967e-11 -1.1159e-10)
(4.21285e-10 -8.95622e-10 -8.73744e-11)
(1.83657e-09 5.04591e-10 -2.7161e-10)
(2.46525e-09 2.95422e-09 -9.42871e-10)
(1.71185e-10 -4.9697e-10 -9.84332e-11)
(2.32564e-09 2.88135e-09 -9.25166e-10)
(1.84249e-09 6.93135e-10 -2.54595e-10)
(1.04509e-09 -3.23556e-10 -1.32454e-10)
(7.00481e-10 -1.14726e-09 -3.19867e-10)
(4.72455e-10 -1.31345e-09 -9.45333e-11)
(9.80182e-10 -2.43717e-10 -1.65241e-10)
(1.04526e-09 -2.81292e-10 -1.1998e-10)
(4.89563e-10 -6.41549e-10 1.56613e-11)
(9.81582e-10 -4.66286e-11 -1.09999e-10)
(5.44842e-10 -9.25081e-10 -3.29459e-11)
(1.78792e-09 4.57271e-10 -2.74941e-10)
(1.67273e-10 -5.15108e-10 -9.67172e-11)
(1.94729e-09 2.67169e-09 -8.24222e-10)
(2.14151e-09 2.7276e-09 -8.68581e-10)
(1.61371e-09 3.95141e-10 -2.42617e-10)
(5.58372e-10 -2.12478e-10 -1.20357e-10)
(-2.15894e-09 2.68155e-09 -6.77464e-10)
(1.37167e-10 -4.00419e-10 -9.41203e-11)
(-2.19388e-09 2.67415e-09 -6.44585e-10)
(5.79486e-10 -2.2498e-10 -1.11146e-10)
(-4.33829e-12 -1.80666e-10 -3.76447e-11)
(-3.86209e-11 -2.49911e-11 -4.60497e-12)
(-2.74604e-11 -1.95564e-10 -4.07066e-11)
(-3.10339e-11 -2.29496e-11 -4.41522e-12)
(5.40257e-10 -2.16195e-10 -1.21356e-10)
(1.34879e-10 -4.07384e-10 -9.30876e-11)
(-2.21133e-09 2.72894e-09 -5.79325e-10)
(-2.21034e-09 2.68898e-09 -6.10199e-10)
(4.90236e-10 -2.41687e-10 -1.23301e-10)
(-4.57476e-13 -1.79091e-10 -3.81861e-11)
(-2.26671e-11 -2.36079e-11 -6.82124e-12)
(1.43634e-11 -1.80412e-10 -4.09459e-11)
(-2.88977e-11 -2.25253e-11 -5.01093e-12)
(2.21672e-10 -3.0646e-10 -3.46614e-10)
(1.43528e-11 -4.59506e-10 -4.24744e-10)
(-3.40802e-09 3.65386e-09 2.7698e-10)
(-3.24558e-09 3.45063e-09 1.65463e-10)
(1.20006e-10 -2.37586e-10 -4.52298e-10)
(-1.01438e-10 -2.35412e-10 -1.34391e-10)
(-4.98613e-11 -2.73116e-11 -9.53202e-12)
(-5.94444e-11 -2.52088e-10 -1.03407e-10)
(-6.59561e-11 -2.14294e-11 -1.49022e-11)
(2.5491e-10 -3.30454e-10 -3.1518e-10)
(2.59683e-11 -4.90129e-10 -3.89937e-10)
(-2.81338e-09 3.21146e-09 -6.37757e-11)
(-3.04575e-09 3.30586e-09 5.55388e-11)
(3.21284e-10 -3.34884e-10 -2.61116e-10)
(-1.17145e-10 -2.26273e-10 -1.51063e-10)
(-8.60975e-11 -3.89395e-12 -3.07792e-11)
(-1.55813e-10 -1.70744e-10 -2.28519e-10)
(-7.13119e-11 -1.86201e-11 -1.80312e-11)
(-1.1424e-10 1.32017e-09 -6.53742e-10)
(5.31386e-11 -4.84527e-10 -4.95908e-10)
(-2.40507e-09 4.78053e-09 -9.299e-10)
(-1.64497e-09 4.1734e-09 -8.93346e-10)
(-6.6102e-10 1.83148e-09 -7.53796e-10)
(1.66582e-10 2.34957e-10 -5.43678e-10)
(3.06019e-10 -1.13667e-09 -7.55045e-10)
(2.83568e-10 -1.63906e-10 -4.64494e-10)
(9.02871e-10 2.45355e-11 -7.22062e-10)
(9.62543e-11 1.12654e-09 -5.96424e-10)
(7.01364e-11 -5.26248e-10 -4.53956e-10)
(-4.80763e-10 3.13271e-09 -7.78467e-10)
(-9.82172e-10 3.6275e-09 -8.31379e-10)
(4.11498e-10 5.59308e-10 -4.88595e-10)
(-1.05451e-11 4.04623e-10 -5.94305e-10)
(7.55203e-10 1.35552e-11 -9.55703e-10)
(-2.60239e-10 7.38586e-10 -7.49838e-10)
(7.30782e-10 -4.02374e-10 -6.90658e-10)
(-2.58001e-10 6.00839e-10 -1.36404e-09)
(-1.01731e-09 1.37408e-09 -1.53751e-09)
(-4.02222e-10 7.4074e-10 -1.3193e-09)
(-1.4513e-10 2.45741e-10 -4.13594e-10)
(-4.87963e-10 8.36408e-10 -8.71742e-10)