/*--------------------------------*- C++ -*----------------------------------*\
| =========                 |                                                 |
| \\      /  F ield         | OpenFOAM: The Open Source CFD Toolbox           |
|  \\    /   O peration     | Version:  2012                                  |
|   \\  /    A nd           | Website:  www.openfoam.com                      |
|    \\/     M anipulation  |                                                 |
\*---------------------------------------------------------------------------*/
FoamFile
{
    version     2.0;
    format      ascii;
    class       surfaceScalarField;
    location    "0.106/fluid";
    object      phi;
}
// * * * * * * * * * * * * * * * * * * * * * * * * * * * * * * * * * * * * * //

dimensions      [0 3 -1 0 0 0 0];
oriented        oriented;


internalField   nonuniform List<scalar> 
47129
(
-0.00113153
2.48894e-05
-0.000227651
-3.07648e-05
0.00136473
-0.00149157
1.84039e-05
1.03576e-06
-2.0321e-05
0.00149207
1.14389e-05
-0.00150684
0.00151077
-3.68465e-06
-1.1958e-05
6.92368e-06
-0.00151786
0.00151938
-1.59001e-06
-7.10923e-06
4.1937e-06
-0.00152252
0.00152323
-1.0821e-06
-4.27658e-06
2.55206e-06
-0.00152481
0.00152521
-1.00901e-06
-2.59783e-06
1.56493e-06
-0.00152616
0.00152641
-1.03659e-06
-1.59241e-06
9.67015e-07
-0.00152702
0.00152719
-1.06855e-06
-9.81745e-07
5.91891e-07
-0.00152761
0.00152773
-1.07445e-06
-6.0181e-07
3.57077e-07
-0.00152804
0.00152813
-1.0237e-06
-3.63364e-07
2.15846e-07
-0.00152842
0.00152852
-9.03174e-07
-2.19117e-07
1.28098e-07
-0.0015288
0.00152889
-7.35281e-07
-1.30466e-07
7.55681e-08
-0.00152917
0.00152927
-5.43041e-07
-8.10236e-08
4.51322e-08
-0.0015296
0.00152972
-3.09724e-07
-4.60841e-08
1.66431e-05
2.32683e-06
0.00167104
-2.28073e-06
-1.10987e-05
9.41888e-05
-0.00154648
1.58261e-05
-1.84798e-05
0.00151891
-6.59293e-05
1.284e-05
2.8754e-05
-0.00149673
-1.38292e-05
0.00149728
-2.94274e-05
8.04765e-06
1.13166e-05
-0.00150122
0.00150269
-1.27669e-05
-8.32935e-06
4.76627e-06
5.98493e-06
-0.00150693
0.00150819
-7.26978e-06
-4.86688e-06
2.80157e-06
4.44684e-06
-0.00151138
0.00151224
-5.56505e-06
-2.82822e-06
1.60224e-06
4.13904e-06
-0.00151431
0.00151486
-5.17153e-06
-1.60577e-06
8.70957e-07
4.17097e-06
-0.00151623
0.0015166
-5.17251e-06
-8.63595e-07
4.05387e-07
4.19666e-06
-0.00151761
0.0015179
-5.17105e-06
-3.98256e-07
1.11961e-07
4.12759e-06
-0.00151867
0.00151892
-5.05655e-06
-1.02309e-07
-6.28099e-08
3.86972e-06
-0.00151967
0.00151995
-4.72447e-06
7.40654e-08
-1.34255e-07
3.32825e-06
-0.00152099
0.00152141
-4.03308e-06
1.48129e-07
-1.39579e-07
2.63999e-06
-0.00152278
0.00152327
-3.16833e-06
1.46221e-07
-1.17669e-07
1.91883e-06
-0.00152477
0.00152532
-2.32109e-06
1.21524e-07
-5.48805e-08
1.02568e-06
-0.00152729
0.00152803
-1.22982e-06
5.60317e-08
1.88835e-06
2.76196e-06
0.00153456
-3.14257e-07
-2.33978e-06
-0.00150338
5.64075e-06
2.53474e-05
-1.48311e-05
-7.01088e-06
0.0014948
4.02293e-06
2.12641e-05
-0.00148467
0.00148437
-1.9252e-05
-4.50361e-06
2.38828e-06
1.45497e-05
-0.00148678
0.00148805
-1.47724e-05
-2.46078e-06
1.2568e-06
1.06491e-05
-0.00149216
0.00149359
-1.13817e-05
-1.26639e-06
5.63034e-07
8.80269e-06
-0.00149766
0.00149884
-9.66453e-06
-5.31073e-07
1.02071e-07
8.17764e-06
-0.00150178
0.00150259
-9.0254e-06
-6.23268e-08
-2.17758e-07
7.99244e-06
-0.00150467
0.00150527
-8.7891e-06
2.50993e-07
-4.29254e-07
7.78513e-06
-0.00150685
0.00150733
-8.50003e-06
4.57738e-07
-5.48885e-07
7.45057e-06
-0.00150865
0.00150907
-8.06695e-06
5.79413e-07
-6.00902e-07
6.82972e-06
-0.00151042
0.00151092
-7.34498e-06
6.27381e-07
-5.68826e-07
5.81383e-06
-0.00151278
0.00151353
-6.25524e-06
5.8729e-07
-4.67356e-07
4.60396e-06
-0.00151599
0.00151686
-5.00716e-06
4.79145e-07
-3.46934e-07
3.35909e-06
-0.00151971
0.00152081
-3.62715e-06
3.56924e-07
-1.67921e-07
1.72163e-06
-0.00152456
0.00152595
-1.85398e-06
1.73451e-07
1.11071e-06
-1.41574e-05
0.000389473
1.8398e-05
-6.42295e-07
-0.00143592
1.65638e-07
-3.10726e-06
4.67554e-06
-5.5157e-06
0.00144336
-0.00145679
-2.32197e-06
1.41997e-05
-1.60862e-05
1.78751e-06
0.00146261
-2.34897e-06
1.37367e-05
-0.00147384
0.00147597
-1.34975e-05
2.28461e-06
-1.99291e-06
1.21756e-05
-0.00148125
0.00148273
-1.21233e-05
2.00295e-06
-1.79085e-06
1.12848e-05
-0.00148664
0.00148777
-1.14824e-05
1.83546e-06
-1.64469e-06
1.08461e-05
-0.00149079
0.00149168
1.70112e-06
-1.5422e-06
1.0505e-05
-0.00149411
0.00149487
1.59557e-06
-1.46212e-06
9.99169e-06
-0.00149694
0.00149756
1.50694e-06
-1.36012e-06
9.26223e-06
-0.00149942
0.00150008
1.40135e-06
-1.22644e-06
8.31085e-06
-0.00150213
0.0015029
1.26045e-06
-1.04885e-06
7.06405e-06
-0.00150551
0.00150648
1.07486e-06
-8.40238e-07
5.7363e-06
-0.0015097
0.00151092
8.622e-07
-6.06417e-07
4.13408e-06
-0.00151507
0.00151665
6.21521e-07
-3.04961e-07
2.14149e-06
-0.00152198
0.00152397
3.13393e-07
-0.00120528
5.72558e-05
-0.000175569
-8.10816e-05
0.00140429
-0.001519
2.62102e-05
3.71695e-06
-2.26974e-05
0.00151133
1.29584e-05
-0.00151561
0.00151822
-2.88793e-06
-1.30901e-05
7.22939e-06
-0.00152236
0.00152319
-1.42927e-06
-7.0778e-06
4.24114e-06
-0.00152487
0.00152525
-1.05989e-06
-4.12014e-06
2.55282e-06
-0.00152613
0.00152635
-9.71796e-07
-2.4708e-06
1.5567e-06
-0.00152692
0.00152708
-9.60204e-07
-1.50691e-06
9.58742e-07
-0.00152748
0.00152759
-9.74391e-07
-9.25083e-07
5.87288e-07
-0.00152788
0.00152796
-9.87062e-07
-5.67311e-07
3.57523e-07
-0.00152818
0.00152825
-9.6242e-07
-3.45445e-07
2.16549e-07
-0.00152846
0.00152854
-8.70908e-07
-2.08976e-07
1.2963e-07
-0.00152879
0.00152888
-7.24923e-07
-1.27298e-07
7.53381e-08
-0.00152917
0.00152927
-5.33607e-07
-7.33564e-08
4.55208e-08
-0.00152962
0.00152974
-3.01548e-07
-4.4311e-08
1.57683e-05
2.15859e-06
0.00162502
-1.92632e-06
-1.04354e-05
6.25216e-05
-0.0015382
3.02996e-05
-3.20055e-05
0.00152027
-4.51144e-05
1.7007e-05
2.03601e-05
-0.00150429
-1.72536e-05
0.00150406
-2.13128e-05
9.02386e-06
8.97883e-06
-0.00150548
0.00150623
-1.03633e-05
-8.98855e-06
4.94544e-06
5.50921e-06
-0.00150857
0.00150934
-6.77942e-06
-4.86464e-06
2.75728e-06
4.38416e-06
-0.0015115
0.00151215
-5.50787e-06
-2.67865e-06
1.52213e-06
4.00848e-06
-0.00151389
0.0015144
-5.04012e-06
-1.46636e-06
7.97929e-07
3.88566e-06
-0.00151571
0.00151609
-4.85387e-06
-7.62655e-07
3.57239e-07
3.84566e-06
-0.00151707
0.00151735
-4.76344e-06
-3.36655e-07
7.23853e-08
3.80506e-06
-0.00151808
0.0015183
-4.67428e-06
-6.51245e-08
-9.40984e-08
3.63182e-06
-0.00151901
0.00151929
-4.42452e-06
9.57308e-08
-1.62987e-07
3.21385e-06
-0.00152034
0.00152075
-3.87248e-06
1.6197e-07
-1.62002e-07
2.62639e-06
-0.00152209
0.0015226
-3.16172e-06
1.61195e-07
-1.25439e-07
1.88248e-06
-0.00152434
0.00152499
-2.28105e-06
1.22823e-07
-5.582e-08
9.90093e-07
-0.00152712
0.00152791
-1.19505e-06
5.39506e-08
1.83814e-06
5.56538e-06
0.00151088
-6.14983e-06
-1.47692e-06
-0.00149584
8.02441e-06
2.15115e-05
-1.77538e-05
-7.7005e-06
0.0014913
5.48715e-06
1.78284e-05
-0.00148461
0.00148425
-1.69582e-05
-5.5286e-06
2.87837e-06
1.31145e-05
-0.00148597
0.00148702
-1.35512e-05
-2.93212e-06
1.33238e-06
1.03731e-05
-0.00149055
0.00149183
-1.11693e-05
-1.3369e-06
4.68561e-07
8.86175e-06
-0.00149561
0.00149678
-9.7323e-06
-4.52142e-07
-2.39396e-08
8.07615e-06
-0.00149982
0.0015007
-8.92105e-06
4.12383e-08
-3.22638e-07
7.63032e-06
-0.00150298
0.00150365
-8.40858e-06
3.30304e-07
-5.00511e-07
7.26954e-06
-0.00150543
0.00150595
-7.94686e-06
5.00079e-07
-6.12807e-07
6.89373e-06
-0.00150737
0.00150782
-7.46167e-06
6.04674e-07
-6.45146e-07
6.31048e-06
-0.00150929
0.00150987
-6.77472e-06
6.32068e-07
-5.86392e-07
5.41288e-06
-0.00151188
0.00151261
-5.8247e-06
5.74362e-07
-4.93937e-07
4.47548e-06
-0.001515
0.00151593
-4.80477e-06
4.84556e-07
-3.60146e-07
3.2667e-06
-0.00151904
0.0015202
-3.50917e-06
3.52346e-07
-1.77529e-07
1.69041e-06
-0.00152415
0.00152564
-1.81761e-06
1.73962e-07
8.63591e-06
5.48633e-06
0.00145692
-6.00252e-06
-4.09281e-06
1.4336e-06
-0.00145413
1.16855e-05
-1.1525e-05
0.00145588
-1.2935e-06
-6.63686e-07
1.37059e-05
-0.00146178
-1.35748e-05
0.00146418
8.59097e-07
-1.77715e-06
1.30874e-05
-0.00147094
0.00147287
-1.27954e-05
1.62301e-06
-1.85968e-06
1.20335e-05
-0.00147791
0.0014794
-1.19678e-05
1.77072e-06
-1.81123e-06
1.12573e-05
-0.00148344
0.00148465
-1.14363e-05
1.76117e-06
-1.73748e-06
1.06695e-05
-0.00148793
0.00148893
-1.09704e-05
1.70603e-06
-1.64245e-06
1.00885e-05
-0.00149169
0.00149255
-1.0387e-05
1.61364e-06
-1.53173e-06
9.37758e-06
-0.00149501
0.00149577
1.49668e-06
-1.41551e-06
8.58266e-06
-0.00149781
0.00149848
1.38118e-06
-1.26734e-06
7.67627e-06
-0.00150072
0.00150156
1.23781e-06
-1.07635e-06
6.58856e-06
-0.00150429
0.00150529
1.05109e-06
-8.6547e-07
5.43696e-06
-0.00150863
0.00150989
8.43535e-07
-6.22433e-07
3.95895e-06
-0.00151421
0.00151585
6.07794e-07
-3.15129e-07
2.05947e-06
-0.00152145
0.00152356
3.0792e-07
6.23766e-05
0.00159457
-2.79106e-05
-1.52782e-06
4.33055e-05
-0.00152185
-9.93739e-06
0.00152358
-3.54888e-05
2.3699e-05
-0.00152626
-3.68687e-06
0.0015259
-2.01228e-05
1.0944e-05
-0.00152651
0.00152667
-1.73275e-06
-9.86455e-06
5.9726e-06
-0.0015269
0.00152695
-1.17827e-06
-5.39507e-06
3.44025e-06
-0.00152708
0.00152713
-9.78528e-07
-3.11384e-06
2.0517e-06
-0.00152732
0.00152739
-9.39047e-07
-1.85812e-06
1.24646e-06
-0.00152762
0.00152769
-9.07101e-07
-1.12805e-06
7.63242e-07
-0.00152789
0.00152795
-8.8645e-07
-6.89419e-07
4.68415e-07
-0.00152809
0.00152814
-8.83834e-07
-4.22898e-07
2.80796e-07
-0.00152829
0.00152834
-8.6918e-07
-2.53483e-07
1.7398e-07
-0.00152853
0.0015286
-8.05164e-07
-1.57365e-07
1.03006e-07
-0.00152883
0.00152891
-6.85827e-07
-9.41358e-08
6.13445e-08
-0.00152919
0.0015293
-5.28589e-07
-5.62068e-08
3.73697e-08
-0.00152964
0.00152977
-3.03132e-07
-3.40201e-08
1.84785e-06
1.05978e-05
0.00156039
-6.99374e-06
-2.8789e-06
2.24642e-05
1.81149e-05
-0.00153528
0.00152867
-1.66856e-05
-1.89216e-05
1.4289e-05
1.019e-05
-0.00151716
0.00151518
-1.11943e-05
-1.263e-05
7.70423e-06
6.28038e-06
-0.00151223
0.00151191
-7.50357e-06
-6.92135e-06
4.14738e-06
4.77106e-06
-0.00151178
0.00151193
-5.9097e-06
-3.76092e-06
2.24285e-06
4.1467e-06
-0.00151271
0.00151305
-5.22187e-06
-2.03112e-06
1.20487e-06
3.85407e-06
-0.00151418
0.00151455
-4.82965e-06
-1.08598e-06
6.1261e-07
3.6349e-06
-0.00151564
0.00151596
-4.53613e-06
-5.46653e-07
2.64449e-07
3.49657e-06
-0.00151683
0.00151709
-4.33811e-06
-2.34048e-07
4.707e-08
3.42564e-06
-0.00151777
0.00151798
-4.21085e-06
-3.63848e-08
-8.86906e-08
3.28174e-06
-0.00151871
0.00151899
-3.99318e-06
8.34339e-08
-1.41925e-07
2.96709e-06
-0.00151999
0.00152038
-3.58274e-06
1.30257e-07
-1.37502e-07
2.519e-06
-0.00152171
0.00152222
-3.04567e-06
1.2443e-07
-1.01038e-07
1.87584e-06
-0.00152401
0.00152467
-2.27006e-06
9.00841e-08
-4.3036e-08
9.96882e-07
-0.00152691
0.00152775
-1.20554e-06
3.83227e-08
5.0158e-07
4.7908e-06
0.0015096
-5.30705e-06
-5.0694e-07
5.74023e-06
1.21366e-05
-0.00150251
-1.15172e-05
0.00149982
-5.06278e-06
4.80233e-06
1.22923e-05
-0.00149384
0.00149272
-1.2418e-05
-4.30941e-06
2.68558e-06
1.07364e-05
-0.00149156
0.00149175
-1.14799e-05
-2.46266e-06
1.22519e-06
9.37763e-06
-0.00149332
0.00149409
-1.02923e-05
-1.13678e-06
4.00301e-07
8.40949e-06
-0.00149655
0.00149736
-9.28533e-06
-3.71371e-07
-4.95332e-08
7.70346e-06
-0.00149969
0.00150042
-8.52012e-06
4.16494e-08
-3.07454e-07
7.13217e-06
-0.00150245
0.00150308
-7.86925e-06
2.82625e-07
-4.46871e-07
6.64557e-06
-0.00150478
0.0015053
-7.27047e-06
4.11039e-07
-5.2356e-07
6.25657e-06
-0.0015067
0.00150716
-6.78279e-06
4.85354e-07
-5.54371e-07
5.76668e-06
-0.00150869
0.00150925
-6.20961e-06
5.12929e-07
-5.03334e-07
5.05657e-06
-0.00151121
0.00151192
-5.44416e-06
4.62591e-07
-4.16601e-07
4.30762e-06
-0.00151431
0.00151524
-4.6178e-06
3.80105e-07
-3.0116e-07
3.22863e-06
-0.00151842
0.00151962
-3.45888e-06
2.75058e-07
-1.48642e-07
1.69767e-06
-0.00152376
0.00152534
-1.81929e-06
1.36324e-07
-5.73052e-07
6.49728e-06
0.0014712
-6.89222e-06
7.52146e-07
-2.32575e-07
1.00899e-05
-0.00147024
-1.0042e-05
0.00147036
3.13886e-07
-7.05945e-07
1.17245e-05
-0.00147181
0.00147257
-1.1513e-05
6.56339e-07
-1.18528e-06
1.2006e-05
-0.00147525
0.00147622
-1.18773e-05
1.06054e-06
-1.44198e-06
1.15771e-05
-0.00147928
0.00148032
-1.16583e-05
1.31372e-06
-1.49618e-06
1.09625e-05
-0.00148334
0.00148432
-1.12353e-05
1.3689e-06
-1.45673e-06
1.02806e-05
-0.00148711
0.00148802
-1.06291e-05
1.32449e-06
-1.37997e-06
9.49714e-06
-0.00149068
0.00149157
-9.82866e-06
1.25635e-06
-1.26844e-06
8.5601e-06
-0.00149421
0.00149507
-8.79e-06
1.15333e-06
-1.18208e-06
7.85474e-06
-0.00149713
0.00149777
-8.03135e-06
1.08304e-06
-1.05857e-06
7.05801e-06
-0.00150002
0.00150084
-7.18299e-06
9.72366e-07
-8.93322e-07
6.20072e-06
-0.00150351
0.0015045
8.15492e-07
-7.13424e-07
5.20842e-06
-0.0015078
0.00150905
6.49211e-07
-5.21227e-07
3.94374e-06
-0.00151337
0.00151505
4.76712e-07
-2.62747e-07
2.04598e-06
-0.00152093
0.00152317
2.4032e-07
3.83583e-06
0.0015557
-2.11974e-06
-1.69079e-07
1.29145e-05
-0.00154539
-2.29838e-06
0.00154263
-8.30587e-06
9.50858e-06
-0.00153687
0.00153544
-1.5291e-06
-7.06458e-06
5.69865e-06
-0.00153212
0.00153132
-1.16138e-06
-4.27639e-06
3.26841e-06
-0.00152965
0.00152927
-9.79376e-07
-2.47802e-06
1.90478e-06
-0.00152852
0.00152837
-8.73483e-07
-1.44977e-06
1.14076e-06
-0.00152814
0.00152811
-9.03253e-07
-8.67081e-07
6.92861e-07
-0.0015281
0.00152811
-8.8086e-07
-5.24612e-07
4.22233e-07
-0.00152815
0.00152816
-8.45094e-07
-3.16866e-07
2.59569e-07
-0.00152822
0.00152824
-8.20178e-07
-1.94007e-07
1.53453e-07
-0.00152835
0.0015284
-8.09216e-07
-1.15385e-07
9.43651e-08
-0.00152859
0.00152867
-7.42787e-07
-7.11358e-08
5.87735e-08
-0.00152889
0.00152897
-6.29701e-07
-4.43937e-08
3.56723e-08
-0.00152923
0.00152933
-4.94638e-07
-2.69359e-08
2.1119e-08
-0.00152966
0.00152979
-2.93596e-07
-1.57238e-08
7.67426e-07
2.79913e-06
0.00153737
-2.86041e-06
-3.66773e-07
7.3593e-06
5.65012e-06
-0.0015306
0.00152802
-6.17953e-06
-5.23301e-06
6.46325e-06
5.30584e-06
-0.00152143
0.00151969
-6.28086e-06
-4.79455e-06
4.0365e-06
4.68646e-06
-0.00151601
0.00151527
-5.72326e-06
-3.02208e-06
2.27591e-06
4.21712e-06
-0.00151395
0.00151376
-5.2269e-06
-1.71873e-06
1.23916e-06
3.85772e-06
-0.00151374
0.00151387
-4.8566e-06
-9.38326e-07
6.52956e-07
3.68272e-06
-0.00151453
0.0015148
-4.58804e-06
-4.91745e-07
3.23101e-07
3.48575e-06
-0.00151565
0.00151592
-4.31494e-06
-2.39078e-07
1.2989e-07
3.28849e-06
-0.00151668
0.0015169
-4.05187e-06
-9.27167e-08
5.99765e-09
3.16144e-06
-0.00151754
0.00151775
-3.87454e-06
-2.09684e-09
-6.52464e-08
3.03699e-06
-0.00151848
0.00151876
-3.69441e-06
5.1998e-08
-8.73924e-08
2.78683e-06
-0.00151977
0.00152018
-3.39741e-06
7.04595e-08
-7.97051e-08
2.3787e-06
-0.00152159
0.00152215
-2.90015e-06
6.36017e-08
-5.33863e-08
1.78102e-06
-0.00152397
0.00152462
-2.16812e-06
4.1488e-08
-2.27611e-08
9.86758e-07
-0.00152679
0.00152765
-1.19205e-06
1.74636e-08
3.21222e-08
3.50132e-06
0.00151095
-3.88317e-06
-2.113e-08
2.44952e-06
6.94238e-06
-0.00150726
0.00150565
-7.16431e-06
-1.7951e-06
2.46859e-06
8.30299e-06
-0.00150119
0.00150006
-8.75514e-06
-1.83646e-06
1.51602e-06
8.47627e-06
-0.00149769
0.00149726
-9.20959e-06
-1.13428e-06
7.06662e-07
8.13242e-06
-0.00149718
0.00149743
-8.97206e-06
-5.32209e-07
2.42812e-07
7.65006e-06
-0.00149854
0.00149899
-8.4547e-06
-1.82246e-07
-1.5067e-08
7.14406e-06
-0.0015005
0.00150103
-7.89004e-06
1.21891e-08
-1.85938e-07
6.59399e-06
-0.00150268
0.00150323
-7.24101e-06
1.4615e-07
-2.70593e-07
6.05658e-06
-0.00150482
0.00150531
-6.58015e-06
2.14363e-07
-3.23819e-07
5.64763e-06
-0.0015067
0.00150716
-6.07352e-06
2.52537e-07
-3.40151e-07
5.27705e-06
-0.0015086
0.00150914
-5.64034e-06
2.64967e-07
-2.98826e-07
4.75483e-06
-0.00151103
0.00151174
-5.06267e-06
2.3446e-07
-2.36043e-07
4.05591e-06
-0.00151417
0.00151512
-4.33315e-06
1.83293e-07
-1.7397e-07
3.07355e-06
-0.00151826
0.00151945
-3.3019e-06
1.34971e-07
-8.75002e-08
1.65831e-06
-0.00152361
0.00152523
-1.77463e-06
6.72345e-08
-7.26701e-07
5.25842e-06
0.00148465
-5.71301e-06
6.03799e-07
-4.20783e-07
7.93082e-06
-0.00148292
0.00148241
-8.19782e-06
3.94559e-07
-4.75422e-07
9.75659e-06
-0.00148132
0.00148117
-9.9325e-06
4.04817e-07
-7.00414e-07
1.05658e-05
-0.00148131
0.00148154
-1.07791e-05
5.7025e-07
-8.61401e-07
1.06204e-05
-0.00148278
0.00148333
-1.09296e-05
6.81532e-07
-8.66285e-07
1.0277e-05
-0.00148513
0.00148576
-1.06744e-05
6.78632e-07
-8.1031e-07
9.65065e-06
-0.00148782
0.00148856
-1.00641e-05
6.28593e-07
-7.91042e-07
8.73998e-06
-0.00149094
0.00149179
-9.09411e-06
6.10136e-07
-7.32204e-07
7.67834e-06
-0.00149438
0.00149522
-7.90944e-06
5.60692e-07
-6.81353e-07
6.87384e-06
-0.00149751
0.0014982
-7.02323e-06
5.18251e-07
-6.28437e-07
6.22536e-06
-0.00150033
0.00150105
-6.30248e-06
4.79082e-07
-5.19242e-07
5.60641e-06
-0.00150349
0.00150441
-5.666e-06
4.00692e-07
-4.06358e-07
4.89766e-06
-0.00150751
0.00150871
-4.98337e-06
3.1251e-07
-2.99709e-07
3.81879e-06
-0.00151292
0.00151461
2.29165e-07
-1.5388e-07
1.99097e-06
-0.00152067
0.00152301
1.17902e-07
-2.91945e-05
0.00112894
-0.000414035
-0.000235401
-0.000119646
-0.000235525
-0.000118966
-2.08515e-06
-1.41929e-05
0.00173825
2.035e-05
2.68029e-06
2.63907e-06
2.03369e-05
-1.66402e-05
0.00154143
-0.000119997
0.000162991
-0.001584
-1.42524e-05
9.38858e-07
0.000392319
1.92578e-05
-3.08202e-06
-1.42883e-05
0.00144088
-0.00143503
1.56722e-05
-0.000409409
-3.80181e-05
-0.00023584
-0.000120577
-0.000235681
-0.000121509
0.00173019
-1.78095e-06
2.08641e-05
3.15591e-06
2.08051e-05
3.28236e-06
0.00153951
-0.000119091
0.000161281
-0.00158007
-1.98987e-05
-9.55309e-05
0.00116865
7.92167e-05
-0.000378776
-0.000243815
-0.000144427
-0.000247238
-0.000138444
-2.95651e-06
-1.71855e-05
1.59537e-06
0.0016918
2.06463e-05
4.63705e-06
4.02391e-06
2.07556e-05
-3.84638e-05
0.00153516
-9.72449e-05
3.11468e-05
0.00013255
-0.00156498
-1.33257e-05
-0.00142929
1.74197e-05
-1.05077e-05
2.74629e-06
0.00145832
-6.50238e-06
4.62679e-06
6.15478e-06
5.87952e-06
4.77178e-06
7.74797e-06
0.00144951
-2.21373e-06
8.03007e-06
-0.00144939
-1.18217e-05
-0.000329449
-0.000127163
-0.000258786
-0.000157808
-0.000257558
-0.000170428
0.00166814
-6.89461e-06
1.94342e-05
4.3847e-06
2.00131e-05
5.21512e-06
0.00153527
-8.05194e-05
0.000109363
-0.00156036
-4.40765e-05
0.00158185
2.0264e-05
1.46633e-05
1.06653e-05
-1.96135e-06
1.77158e-05
0.00155911
-5.77745e-05
6.34748e-05
-0.00156125
-3.8971e-06
6.08782e-06
-2.45859e-06
1.53623e-05
-1.82658e-05
0.00158067
0.00154792
-1.73602e-05
-2.56277e-05
3.85983e-05
1.40403e-05
-0.00155908
2.37838e-06
0.00154434
-2.72409e-07
-5.54608e-06
2.37308e-05
0.00150808
-0.00152121
-1.03158e-05
-5.93964e-06
1.46345e-05
1.47915e-05
1.52122e-05
0.00150197
-1.78998e-05
3.94087e-06
0.00147014
-0.00146699
-1.48457e-05
-2.97138e-06
2.40281e-06
0.00144717
1.83539e-06
1.39207e-05
0.00145832
-0.00145331
-1.45869e-05
-2.4467e-06
0.000503973
-8.87758e-05
2.23181e-06
-0.00055627
0.000141227
2.42589e-06
-2.79567e-05
2.95954e-05
-1.23862e-06
-2.82615e-06
-4.24976e-07
-1.15436e-06
1.8021e-06
0.000154607
5.59174e-07
2.11666e-06
0.000508714
-9.06069e-05
-2.10006e-06
0.000144059
-0.000562238
1.26253e-06
-1.17191e-06
0.000152671
-1.07089e-06
1.79717e-06
-5.0317e-06
-2.68719e-05
-1.29857e-06
4.48272e-06
2.87193e-05
2.35601e-05
-0.00151458
-1.08602e-05
-6.92909e-06
1.45801e-05
1.22174e-05
1.24928e-05
0.00149054
-1.09031e-05
-1.66715e-05
0.00146415
-0.00146025
2.16258e-06
-1.27924e-05
5.51276e-06
2.19181e-06
0.00151401
-5.74918e-06
2.19224e-05
-7.82836e-06
0.00149564
8.05928e-06
-0.00150236
-1.59633e-05
-1.39675e-06
5.30204e-06
0.00146525
3.66976e-06
3.63195e-06
0.00146051
-4.02744e-06
-0.00146035
9.68061e-06
2.09176e-06
0.000369698
-1.29499e-05
-0.000374365
1.86274e-05
-2.95164e-06
-2.63489e-06
-2.50908e-06
-2.08905e-07
0.000382435
8.56401e-06
0.000368692
-5.48062e-06
-5.2823e-06
9.29816e-06
4.9152e-06
-0.000371996
1.32139e-05
-0.0014516
-1.34537e-05
5.18412e-07
9.94398e-06
5.56318e-06
-1.28574e-05
0.00145099
1.31198e-05
0.00145911
-3.0055e-07
7.79961e-07
-0.00145593
-1.35377e-05
0.000389692
-4.369e-05
-2.76937e-05
2.10263e-05
-0.000418438
7.90194e-05
1.22642e-05
-1.92742e-05
2.85355e-05
-8.24559e-06
-1.32801e-05
-3.31235e-06
-2.14937e-06
2.83186e-06
0.000146766
3.71459e-06
-1.99248e-05
7.50266e-06
4.50617e-05
3.82194e-06
2.53506e-06
3.98076e-06
2.59417e-06
2.95995e-06
0.000477146
-8.38784e-05
-5.51304e-06
0.000137338
-0.000528123
-4.816e-06
-1.26756e-07
0.000114615
-3.57729e-06
9.41661e-06
5.18042e-05
-1.16703e-05
-1.07698e-06
6.86168e-06
-4.59193e-05
9.94074e-06
-0.00145301
-9.66961e-06
-2.29481e-06
6.72463e-06
1.77457e-09
0.00146749
-7.27784e-06
9.62529e-06
0.00146608
1.56729e-07
3.30343e-07
-0.00146619
-9.73583e-06
-2.83623e-05
2.9977e-05
-1.3168e-06
2.1278e-06
-1.10735e-06
1.7809e-06
-3.28558e-07
0.000154873
0.000510739
-9.08358e-05
1.83303e-06
0.000144492
-0.000564165
0.00037159
-1.32096e-05
-0.000376647
1.18631e-06
1.93078e-05
-7.62734e-06
1.26389e-05
2.42347e-05
2.42581e-05
1.25455e-05
-3.74823e-05
-0.000372437
-0.000358444
-0.000359414
-3.3085e-07
-0.000354075
-0.000353157
0.0014116
0.000500064
-8.79148e-05
-0.000552498
-2.35317e-06
0.000140193
-2.34984e-05
2.92066e-05
-4.94524e-06
1.15011e-05
-1.63633e-06
2.31682e-06
-3.017e-06
0.000148174
-1.27817e-06
0.000152141
1.87019e-06
1.52055e-06
0.000487528
-8.5788e-05
2.30121e-06
0.000137123
-0.00053827
-2.60369e-05
-1.12278e-06
2.80137e-05
-5.88595e-06
-1.87884e-05
1.20168e-05
2.38994e-05
2.31742e-05
1.2546e-05
-3.42747e-05
-0.000357106
-0.000369196
-0.000356964
-2.35861e-06
-0.000352013
-0.000352491
0.00140841
-0.00143569
1.22945e-05
-1.53171e-05
0.00143782
-6.00357e-06
-2.1908e-05
9.72574e-06
1.18546e-05
1.92881e-05
5.81289e-06
-2.20777e-05
-0.000359881
-0.000368189
-0.000357487
1.13397e-06
-0.000352778
-0.000356203
0.00141123
-2.56145e-06
-5.80363e-06
0.000372682
8.05303e-06
1.93238e-05
-8.1878e-06
0.00145254
2.69069e-06
-8.35117e-06
0.00145549
1.02763e-05
9.65768e-06
-1.41676e-05
0.00144569
1.61745e-06
7.80583e-06
8.80815e-06
-1.89118e-07
-1.08978e-05
-0.000364119
-0.000370345
-0.000368429
-0.000362325
1.01788e-05
4.75104e-06
1.17181e-05
0.00144236
6.94459e-06
1.98368e-06
-1.2305e-05
-0.0014385
-1.55366e-05
5.64143e-06
0.00144399
1.33562e-05
-9.1295e-06
4.54614e-06
-5.07235e-06
3.23615e-06
-0.0014433
0.00144462
-1.55233e-06
-3.02234e-06
6.436e-06
1.7467e-06
-2.724e-06
-2.43018e-06
-0.000358111
-0.000356039
0.00142949
-8.86388e-08
-1.02231e-06
-6.61804e-06
-0.000230287
0.00136298
-2.01316e-05
0.0014894
-0.00148766
5.21745e-08
-1.74941e-05
-9.5028e-05
0.00011485
0.00152192
-1.58314e-05
0.00149535
-3.91491e-05
4.39956e-05
-0.00150006
0.00167841
-8.95714e-06
-1.46187e-05
0.00154884
-0.00159337
-7.58891e-05
6.15386e-07
0.00156177
3.62423e-06
-3.61718e-06
0.00152597
-0.00153864
3.43974e-05
-0.0014896
2.50966e-07
-2.27504e-05
0.000113602
-2.04208e-05
0.00152133
0.0014966
-3.86859e-05
4.33537e-05
-0.001501
-1.74242e-05
5.25271e-05
-0.000210957
0.00138397
-3.51079e-05
0.00150588
3.00271e-05
-0.00150521
3.96992e-06
-3.39347e-05
-7.5952e-05
2.92003e-05
9.21583e-05
0.00152178
-2.34006e-05
0.00150212
-3.08822e-05
2.15545e-05
3.48152e-05
-0.00150572
-0.00158901
-1.73254e-05
-7.5797e-05
0.00155376
-3.24499e-09
4.62128e-06
0.00152228
-0.00153356
-4.65555e-06
3.47359e-05
1.7897e-06
0.00164082
-1.09639e-05
-3.08253e-05
0.00153955
2.55941e-05
-0.00157272
-6.10461e-05
3.82644e-07
-4.43036e-07
0.0015371
5.62166e-06
-7.21889e-06
0.00151271
6.13454e-06
-0.00152154
3.01037e-05
-0.00152402
7.54252e-06
-3.80738e-05
7.37324e-05
-3.52668e-05
0.00152348
0.001506
-2.67683e-05
2.95005e-05
-0.00150958
-2.40884e-05
5.31164e-05
-2.53419e-06
0.00155144
0.00152606
-2.83708e-05
3.74651e-05
-0.00153169
-3.92309e-06
-1.84242e-05
-2.56992e-05
3.51063e-05
1.73519e-05
0.00153801
0.00151897
-1.40619e-05
-1.95604e-05
2.32489e-05
1.32279e-05
-0.0015232
-0.00156606
-3.33867e-05
-5.23056e-05
0.00153301
5.65231e-06
-2.14923e-08
-2.04654e-05
0.00151194
-0.00151965
2.70653e-05
-8.04303e-06
5.92586e-06
0.00157029
1.66121e-06
0.00154117
-2.22548e-05
3.10916e-05
-0.00155234
-1.68238e-05
-3.93052e-06
-3.57147e-07
7.75879e-07
2.65901e-06
0.00152476
-1.24284e-05
0.00151328
-6.93737e-06
8.20972e-06
1.38535e-05
-0.00151793
-0.00152755
-1.56869e-05
-3.67354e-05
1.81436e-05
0.00157013
-4.29572e-06
0.00153814
-2.04577e-05
2.49124e-05
-0.00154699
-2.25584e-05
1.5954e-08
0.00155783
1.14015e-06
0.00155192
-1.29703e-05
1.73713e-05
-0.00155573
-9.91235e-07
5.27794e-07
-1.15016e-06
1.36362e-06
-1.56027e-06
0.0015462
0.00153904
-3.99066e-06
-7.92542e-06
1.15862e-05
2.81728e-06
-0.00154243
-1.08846e-05
2.36369e-05
2.82517e-05
2.35625e-05
-0.000100376
9.51533e-06
-2.07622e-06
-0.00164735
-2.17561e-05
-0.000271774
0.00150811
-1.94198e-05
-0.000511411
-0.000409409
-0.000409977
0.000146491
0.000146711
0.000151241
0.000150963
-0.000398276
4.7864e-07
9.5002e-07
6.96422e-06
6.80575e-06
-3.91008e-07
0.000508083
-3.02791e-06
0.00016319
-8.71356e-06
0.00166104
-8.64034e-05
-1.03521e-05
9.11479e-05
6.8772e-05
6.90057e-05
-0.000485913
-0.000486517
-0.000472454
-0.00047187
0.0017607
2.492e-05
0.00163455
-3.4829e-05
-0.00050527
-0.000403961
-0.000405131
0.000142468
0.000143009
0.000147452
0.000146739
-0.000386665
2.32988e-05
2.79825e-05
2.30382e-05
-9.96527e-05
-1.27517e-05
-7.64592e-07
-0.00164137
-2.73614e-05
0.00150576
-0.000268937
-0.000401616
-5.32244e-05
-0.000236308
-0.000124451
-0.000236523
-0.000123073
0.00113685
-0.000507808
-0.000407907
-0.000407125
0.000145368
0.000145039
0.000149459
0.000149845
-0.000394676
-3.68533e-05
0.00150397
-0.000262325
-2.21385e-05
2.18297e-05
2.67321e-05
2.1857e-05
-9.7232e-05
1.81977e-05
3.87303e-06
1.20464e-05
-0.000159664
-1.52243e-05
8.93515e-05
6.73457e-05
6.77231e-05
-0.000479283
-0.000480363
-0.000466876
-0.000465844
0.0017411
6.99859e-06
9.94096e-07
6.82383e-06
0.000506185
8.57068e-07
-3.29719e-06
0.00016334
-1.02253e-05
-8.73911e-05
0.00165467
0.00172101
-1.2549e-06
2.04296e-05
3.24326e-06
3.03818e-06
2.05221e-05
-1.56e-05
9.02121e-05
6.86213e-05
6.8371e-05
-0.000483735
-0.000482917
-0.000469076
-0.000469849
0.00175194
2.37716e-06
6.92047e-06
9.97791e-07
6.75022e-06
0.000501072
-1.76262e-06
-3.49895e-06
-1.27138e-05
-8.43309e-05
0.00164702
0.00162611
-5.24932e-05
-0.000497973
-0.000401099
-0.000399494
0.000139479
0.000139155
0.000142485
0.000143621
-0.00037527
-0.000388605
-0.000238125
-0.000127094
-0.000237448
-0.000129559
0.00114648
-4.9559e-05
1.69959e-05
2.33591e-05
1.76646e-05
-0.00010244
4.34289e-05
2.70423e-05
4.98321e-05
-0.00161603
-8.46286e-05
-0.000234825
0.00150601
-0.000252913
0.00150257
-0.000104317
-0.00049077
-0.000392166
-0.000394803
0.000139194
0.000136015
0.000138945
0.000138796
-0.000352641
2.11407e-05
2.61425e-05
2.08556e-05
-9.53773e-05
-2.78468e-05
6.9008e-06
-0.000156328
-2.09315e-05
6.68243e-05
8.73092e-05
6.66144e-05
-0.000475411
-0.000473993
-0.0004611
-0.000462499
0.00172542
0.00170878
2.07254e-05
3.39138e-06
3.80821e-06
2.05086e-05
-1.64634e-05
5.73046e-06
1.39292e-06
7.3174e-06
7.05943e-06
-4.72917e-06
0.000487044
-5.31864e-06
1.70294e-05
0.000150335
-2.37433e-05
0.00162401
-7.7076e-05
7.0017e-06
1.13222e-06
6.83822e-06
0.00049745
3.07541e-06
-3.70061e-06
0.0016375
-8.19297e-05
-3.47972e-05
8.65471e-05
6.69393e-05
6.65858e-05
-0.000465984
-0.000467979
-0.000455972
-0.000453634
0.00170092
0.000200037
0.00153255
-0.000146899
-0.000432634
-0.00037212
-0.000365937
1.95544e-05
5.4388e-05
6.54708e-05
2.45809e-05
-0.000190158
1.12802e-05
1.85886e-05
5.94216e-06
-0.000125504
-3.3659e-05
5.45084e-05
-0.00159012
-0.000138024
0.0015016
-0.000188424
-0.000165525
-0.000127329
-0.000291631
-0.000286006
-0.000372473
-0.000178452
0.00129385
-0.000471062
-0.000387906
-0.000389596
0.000144224
0.000139638
0.000119898
0.000136582
-0.000309834
-0.000128122
0.00148823
-0.000131998
-5.95254e-05
-0.000101462
-3.57617e-05
-7.42576e-05
2.44847e-05
3.1774e-05
0.000266538
6.52338e-05
-0.000105606
-8.47158e-05
6.00718e-05
4.8968e-05
5.93645e-05
-0.000426313
-0.000435827
-0.000429571
-0.00042579
0.00162939
7.80885e-06
2.1705e-06
7.84526e-06
0.000478174
5.31744e-06
-6.04876e-06
0.000136235
-3.43077e-05
-6.71565e-05
0.00160837
0.00163163
-1.60099e-05
1.96974e-05
7.33767e-06
6.6242e-06
1.68121e-05
-1.59179e-05
7.90196e-05
6.83309e-05
6.81621e-05
-0.000456744
-0.000453511
-0.000442682
-0.000445976
0.00166515
-1.72157e-06
7.42464e-06
2.53734e-06
5.24345e-06
0.000436798
-2.71488e-06
-1.08482e-05
-4.22966e-05
-5.17164e-05
0.00158447
0.000395722
-1.87649e-05
-0.000405861
2.82434e-05
-2.71164e-05
3.5507e-06
2.01532e-05
7.84519e-06
-3.75779e-05
0.00046882
-3.27212e-05
1.86052e-05
0.00159446
1.99383e-05
7.95111e-07
2.78017e-05
8.98147e-06
-8.88956e-05
0.00167255
3.5505e-05
6.28196e-06
2.68641e-06
-4.74794e-06
1.36917e-05
-3.50913e-05
-3.13238e-06
0.000433549
1.32312e-05
3.42373e-07
2.0706e-06
-3.88096e-06
-2.53586e-06
0.00164596
2.98861e-05
1.21099e-05
2.71801e-05
1.99444e-05
2.20765e-05
-6.64035e-05
0.00043319
-2.09646e-05
-0.000460506
-3.1658e-05
2.59502e-05
1.80638e-05
2.4246e-05
-3.47686e-07
3.856e-06
3.93946e-07
-3.90226e-06
2.67736e-06
-3.11048e-05
5.37316e-05
2.06975e-05
-4.30754e-05
-2.92861e-06
-3.37739e-06
-2.775e-05
2.99258e-06
-1.32209e-06
2.94567e-05
2.56038e-07
3.62703e-06
-3.11017e-07
-3.57206e-06
-3.63409e-06
-3.09597e-05
5.36471e-05
-4.28871e-05
3.19665e-06
2.06348e-05
-3.23319e-07
1.16646e-06
3.38652e-07
-1.18179e-06
8.11016e-08
0.000143214
-1.43121e-05
-0.000145815
1.68541e-05
-2.63483e-08
7.52784e-07
-1.14829e-06
-6.04963e-07
1.78972e-06
0.000153946
2.38102e-07
1.29909e-06
-2.80034e-07
-1.25716e-06
7.02719e-08
0.000142695
-1.42053e-05
1.67214e-05
-5.277e-08
-0.000145232
1.28958e-06
-1.2344e-06
-3.78501e-07
2.81091e-07
0.000141502
-1.40233e-05
-0.000144
-2.6454e-07
1.65008e-05
-1.18322e-06
9.30866e-07
1.81041e-06
0.000153589
0.000142228
-1.41779e-05
1.66909e-05
1.43343e-07
-0.000144818
-4.47265e-07
1.1184e-06
4.70312e-07
-1.14145e-06
3.59919e-06
-3.52528e-06
-4.21593e-07
-5.13824e-06
-3.04493e-05
5.32009e-05
2.02102e-05
4.53929e-06
-4.23653e-05
-2.71838e-05
-3.9332e-06
-1.19607e-06
2.89355e-05
-3.06825e-05
5.34004e-05
-4.26961e-05
-3.98303e-06
2.03247e-05
-4.7743e-07
3.89771e-06
5.34429e-07