/*--------------------------------*- C++ -*----------------------------------*\
| =========                 |                                                 |
| \\      /  F ield         | OpenFOAM: The Open Source CFD Toolbox           |
|  \\    /   O peration     | Version:  2012                                  |
|   \\  /    A nd           | Website:  www.openfoam.com                      |
|    \\/     M anipulation  |                                                 |
\*---------------------------------------------------------------------------*/
FoamFile
{
    version     2.0;
    format      ascii;
    class       surfaceVectorField;
    location    "0.106/fluid";
    object      Uf_0;
}
// * * * * * * * * * * * * * * * * * * * * * * * * * * * * * * * * * * * * * //

dimensions      [0 1 -1 0 0 0 0];


internalField   nonuniform List<vector> 
47129
(
(0.891757 -0.2819 -0.025435)
(1.00815 -0.214429 -0.0211816)
(1.07191 -0.189231 -0.0219032)
(1.01086 -0.211254 -0.0261157)
(1.0733 -0.153319 -0.0221005)
(1.17116 0.00588377 -0.0172878)
(1.1696 0.00651445 -0.0156142)
(1.16609 0.00125005 -0.0162646)
(1.17173 0.00660691 -0.0172264)
(1.1715 0.00410555 -0.0155014)
(1.1841 -0.00162422 -0.00968081)
(1.18299 -0.00177735 -0.0105954)
(1.18604 -0.00135462 -0.00931532)
(1.1854 -0.002821 -0.00980187)
(1.18546 -0.001547 -0.0101263)
(1.19177 -0.000518199 -0.00587066)
(1.19152 -0.000565425 -0.00636666)
(1.19268 -0.000452124 -0.00561384)
(1.19248 -0.00107489 -0.0059181)
(1.19258 -0.000485489 -0.0060364)
(1.19512 -0.000211219 -0.00357057)
(1.19505 -0.000229688 -0.00385901)
(1.19559 -0.000185032 -0.00340981)
(1.19567 -0.000499215 -0.00360089)
(1.19558 -0.00019776 -0.00364895)
(1.19678 -9.64867e-05 -0.00218959)
(1.19676 -0.000103427 -0.00236172)
(1.19704 -8.75154e-05 -0.00209267)
(1.19736 -0.000259412 -0.00221365)
(1.19705 -9.24016e-05 -0.00223391)
(1.1977 -5.43581e-05 -0.00135808)
(1.19769 -5.7286e-05 -0.00146216)
(1.19786 -5.09596e-05 -0.00129927)
(1.19833 -0.000150818 -0.00137489)
(1.19786 -5.3228e-05 -0.0013845)
(1.19825 -3.71174e-05 -0.000850572)
(1.19825 -3.85399e-05 -0.000914725)
(1.19836 -3.56325e-05 -0.000814718)
(1.19891 -9.577e-05 -0.000861796)
(1.19836 -3.68218e-05 -0.000867065)
(1.19862 -2.92606e-05 -0.000537787)
(1.19861 -2.96735e-05 -0.000577669)
(1.19868 -2.84907e-05 -0.0005153)
(1.19927 -6.50749e-05 -0.000544366)
(1.19868 -2.88248e-05 -0.000547891)
(1.19887 -2.8399e-05 -0.000340449)
(1.19886 -2.81468e-05 -0.00036592)
(1.19891 -2.85856e-05 -0.000326239)
(1.19949 -4.965e-05 -0.000344884)
(1.1989 -2.81623e-05 -0.000347284)
(1.19906 -2.93562e-05 -0.000216063)
(1.19906 -2.91405e-05 -0.000232011)
(1.1991 -2.94417e-05 -0.000207102)
(1.19963 -4.00057e-05 -0.000218697)
(1.19909 -2.90907e-05 -0.000220217)
(1.19922 -3.13388e-05 -0.000135402)
(1.19921 -3.11882e-05 -0.000145865)
(1.19924 -3.19597e-05 -0.000129679)
(1.19972 -3.48687e-05 -0.000137848)
(1.19923 -3.16483e-05 -0.000138409)
(1.19936 -3.73267e-05 -8.3493e-05)
(1.19935 -3.64833e-05 -9.01369e-05)
(1.19938 -3.85794e-05 -7.94295e-05)
(1.19977 -3.39105e-05 -8.50593e-05)
(1.19937 -3.76727e-05 -8.49852e-05)
(1.19949 -4.56005e-05 -4.85739e-05)
(1.19948 -4.48816e-05 -5.30192e-05)
(1.19951 -4.5993e-05 -4.54992e-05)
(1.1998 -3.6099e-05 -4.97488e-05)
(1.1995 -4.596e-05 -4.94893e-05)
(1.35037 -0.0111179 -0.00294823)
(1.32265 -0.0121638 -0.00226408)
(1.31144 -0.0327912 -0.00591607)
(1.31714 -0.0125013 -0.00223407)
(1.30078 -0.00738192 -0.00329403)
(1.20307 -0.0758173 -0.017174)
(1.22053 -0.0572036 -0.0162346)
(1.20656 -0.0516602 -0.014466)
(1.20596 -0.0497962 -0.0166748)
(1.20055 -0.0473979 -0.0168022)
(1.2115 -0.0521859 -0.0153057)
(1.18545 -0.0232636 -0.0125222)
(1.1839 -0.0224691 -0.0139192)
(1.18632 -0.0264098 -0.0142052)
(1.18689 -0.0222454 -0.0133556)
(1.18727 -0.0203698 -0.0128727)
(1.19048 -0.0226465 -0.0129005)
(1.1906 -0.00886897 -0.00843327)
(1.19025 -0.00824678 -0.00885121)
(1.1907 -0.00976103 -0.00918138)
(1.19169 -0.00787443 -0.00816439)
(1.19227 -0.00903674 -0.0083961)
(1.1917 -0.00841429 -0.00870071)
(1.19416 -0.0041554 -0.00532455)
(1.19415 -0.00374463 -0.00550111)
(1.19415 -0.00444203 -0.00573969)
(1.19481 -0.00373707 -0.00510194)
(1.1949 -0.00431843 -0.00528516)
(1.19485 -0.0039398 -0.00545443)
(1.19636 -0.00219538 -0.00332219)
(1.19642 -0.00195291 -0.00341306)
(1.19636 -0.00231911 -0.00357823)
(1.19676 -0.00200003 -0.00317896)
(1.19675 -0.00231448 -0.0033107)
(1.19679 -0.00209319 -0.00339161)
(1.19771 -0.00125243 -0.00207392)
(1.19776 -0.00110892 -0.00212398)
(1.19771 -0.00131558 -0.00223187)
(1.19796 -0.00115171 -0.00198492)
(1.19793 -0.00133388 -0.00207315)
(1.19798 -0.00120168 -0.00211496)
(1.19855 -0.000746671 -0.00130188)
(1.19859 -0.000660651 -0.00133041)
(1.19855 -0.000783087 -0.00139968)
(1.1987 -0.000691065 -0.00124683)
(1.19868 -0.000801266 -0.00130461)
(1.19871 -0.000720909 -0.00132712)
(1.19907 -0.000456886 -0.000822326)
(1.1991 -0.000404624 -0.000839082)
(1.19907 -0.000478955 -0.000883402)
(1.19917 -0.00042495 -0.000788144)
(1.19916 -0.000493272 -0.000825609)
(1.19918 -0.000443422 -0.000838224)
(1.19941 -0.00028439 -0.000521858)
(1.19942 -0.000252264 -0.000531848)
(1.19941 -0.000298245 -0.000560315)
(1.19947 -0.000265295 -0.000500215)
(1.19946 -0.000308944 -0.000524527)
(1.19947 -0.000277072 -0.000531733)
(1.19962 -0.000177428 -0.000331911)
(1.19963 -0.000158603 -0.000338013)
(1.19962 -0.000186522 -0.000356268)
(1.19966 -0.000165506 -0.000318215)
(1.19965 -0.000194856 -0.000334014)
(1.19966 -0.000173433 -0.000338263)
(1.19975 -0.000108255 -0.000211124)
(1.19976 -9.87369e-05 -0.000214974)
(1.19975 -0.000114318 -0.000226761)
(1.19978 -0.000100924 -0.000202593)
(1.19977 -0.000121675 -0.000212907)
(1.19978 -0.000106189 -0.000215475)
(1.19984 -6.52813e-05 -0.000134243)
(1.19984 -6.20516e-05 -0.000136659)
(1.19984 -6.92593e-05 -0.000144291)
(1.19986 -6.06822e-05 -0.000128542)
(1.19985 -7.71033e-05 -0.000135649)
(1.19986 -6.42717e-05 -0.000136964)
(1.19989 -3.57504e-05 -8.25914e-05)
(1.19989 -3.81224e-05 -8.43392e-05)
(1.1999 -3.87255e-05 -8.91986e-05)
(1.19991 -3.24811e-05 -7.86596e-05)
(1.1999 -4.68612e-05 -8.3769e-05)
(1.19991 -3.51808e-05 -8.41067e-05)
(1.19992 -1.51943e-05 -4.86313e-05)
(1.19993 -2.16128e-05 -4.97969e-05)
(1.19993 -1.71572e-05 -5.30734e-05)
(1.19993 -1.32971e-05 -4.57189e-05)
(1.19993 -2.54241e-05 -4.96009e-05)
(1.19993 -1.49982e-05 -4.97119e-05)
(1.24981 0.000876387 -0.00380488)
(1.24844 0.0014066 -0.00478111)
(1.24496 -0.001939 -0.00762906)
(1.24375 0.00441219 -0.0055371)
(1.24597 0.000127556 -0.00426146)
(1.22035 -0.0158375 -0.0135065)
(1.21598 -0.0170369 -0.0111645)
(1.21843 -0.0177449 -0.0124068)
(1.21729 -0.00877218 -0.0116595)
(1.21592 -0.0163392 -0.0122521)
(1.213 -0.0168695 -0.0135804)
(1.19963 -0.0144505 -0.00935644)
(1.20121 -0.0144009 -0.0104694)
(1.20163 -0.0147832 -0.0111059)
(1.20001 -0.0133808 -0.0100428)
(1.20271 -0.0123103 -0.00968824)
(1.2008 -0.0136835 -0.0097155)
(1.19717 -0.00885058 -0.00655224)
(1.19728 -0.00869419 -0.00697848)
(1.19788 -0.00923872 -0.00719747)
(1.19765 -0.0080947 -0.00643039)
(1.19849 -0.0083549 -0.00650455)
(1.19801 -0.00837833 -0.00663941)
(1.19734 -0.00522924 -0.00433897)
(1.19724 -0.00506746 -0.00452464)
(1.19757 -0.00545399 -0.00463982)
(1.19766 -0.00479138 -0.00417092)
(1.19794 -0.00508848 -0.00425992)
(1.19786 -0.00496503 -0.00441776)
(1.19797 -0.0031359 -0.00281897)
(1.19794 -0.00299851 -0.00292497)
(1.19807 -0.00327026 -0.00301863)
(1.19822 -0.00288629 -0.00270642)
(1.19835 -0.00310471 -0.00278186)
(1.19832 -0.00299297 -0.00287225)
(1.19859 -0.00191616 -0.00181541)
(1.19858 -0.00182123 -0.00187558)
(1.19864 -0.00199893 -0.00194575)
(1.19876 -0.00177277 -0.00174241)
(1.19883 -0.00192004 -0.00179949)
(1.19882 -0.00184011 -0.00184984)
(1.19906 -0.00119037 -0.00116734)
(1.19906 -0.00112875 -0.00120202)
(1.19908 -0.00124308 -0.00125131)
(1.19917 -0.00110577 -0.00112031)
(1.19921 -0.00120209 -0.00116116)
(1.1992 -0.00114953 -0.00118961)
(1.19938 -0.000747326 -0.000751285)
(1.19938 -0.000708239 -0.000771201)
(1.1994 -0.000781446 -0.00080478)
(1.19946 -0.000697003 -0.000721177)
(1.19947 -0.000759512 -0.000749532)
(1.19947 -0.000725668 -0.000765152)
(1.1996 -0.000473733 -0.000483451)
(1.1996 -0.000449024 -0.000495079)
(1.19961 -0.000496038 -0.000518086)
(1.19965 -0.000442784 -0.000463743)
(1.19966 -0.000483334 -0.000483355)
(1.19966 -0.000462015 -0.000492128)
(1.19974 -0.000299074 -0.000311137)
(1.19974 -0.000283806 -0.000318211)
(1.19974 -0.0003139 -0.000333368)
(1.19977 -0.000279978 -0.000298787)
(1.19978 -0.000306091 -0.000311851)
(1.19978 -0.000292718 -0.000317107)
(1.19983 -0.000191677 -0.000200178)
(1.19983 -0.00018134 -0.00020466)
(1.19984 -0.000200972 -0.000214865)
(1.19986 -0.000180156 -0.000192546)
(1.19986 -0.000197501 -0.000201372)
(1.19986 -0.00018839 -0.000204608)
(1.1999 -0.000120725 -0.000129058)
(1.1999 -0.00011474 -0.000131451)
(1.1999 -0.000127608 -0.000138385)
(1.19991 -0.000112953 -0.000123533)
(1.19992 -0.000124253 -0.000129796)
(1.19992 -0.000119071 -0.000131344)
(1.19993 -7.15218e-05 -8.02767e-05)
(1.19993 -6.86352e-05 -8.18246e-05)
(1.19994 -7.6305e-05 -8.65468e-05)
(1.19994 -6.62182e-05 -7.65721e-05)
(1.19995 -7.41199e-05 -8.0836e-05)
(1.19995 -7.05336e-05 -8.17968e-05)
(1.19996 -3.88042e-05 -4.70473e-05)
(1.19996 -3.89556e-05 -4.83386e-05)
(1.19996 -4.18207e-05 -5.15028e-05)
(1.19996 -3.52955e-05 -4.42661e-05)
(1.19997 -4.13866e-05 -4.75882e-05)
(1.19997 -3.80537e-05 -4.82799e-05)
(1.30273 0.077483 -0.00722126)
(1.28553 0.0546024 -0.00247727)
(1.28895 0.0766504 -0.00166099)
(1.30421 0.0652674 -0.0041654)
(1.29699 0.0724458 -0.00564688)
(1.19448 -0.00210572 -0.0172651)
(1.19428 -0.00422213 -0.0134324)
(1.20306 0.00583187 -0.012629)
(1.19207 0.00741296 -0.0157025)
(1.19724 -0.00364747 -0.0177792)
(1.1971 -0.00207026 -0.0142895)
(1.19737 -0.00577785 -0.00933597)
(1.19707 -0.00669528 -0.00785165)
(1.2014 -0.00735721 -0.00809646)
(1.2022 -0.00878954 -0.0077338)
(1.19872 -0.00644947 -0.00815216)
(1.19899 -0.00659653 -0.00792425)
(1.20017 -0.00663765 -0.00494296)
(1.2006 -0.0066554 -0.00521264)
(1.20066 -0.00658555 -0.00537224)
(1.20044 -0.0062104 -0.00481268)
(1.20092 -0.00637702 -0.00482362)
(1.20079 -0.00624585 -0.00498539)
(1.19971 -0.00478789 -0.00332943)
(1.19966 -0.00474796 -0.00348967)
(1.19995 -0.00489296 -0.0035409)
(1.19985 -0.0044515 -0.00321069)
(1.20012 -0.00458445 -0.00324595)
(1.20008 -0.00454443 -0.00338099)
(1.19954 -0.00319133 -0.00224258)
(1.19949 -0.00314383 -0.00234293)
(1.19968 -0.00329118 -0.00238911)
(1.19966 -0.00296431 -0.0021621)
(1.19983 -0.00308229 -0.0021993)
(1.19979 -0.00304787 -0.00228328)
(1.19958 -0.00207649 -0.00149782)
(1.19955 -0.00203742 -0.00155755)
(1.19966 -0.00215221 -0.00159766)
(1.19968 -0.00193178 -0.00144333)
(1.19975 -0.00199541 -0.00152599)
(1.19968 -0.0013397 -0.000994094)
(1.19966 -0.00131224 -0.00102885)
(1.19973 -0.00139342 -0.00106098)
(1.19975 -0.00124932 -0.000956942)
(1.1998 -0.00129474 -0.00101212)
(1.19977 -0.000863859 -0.000658837)
(1.19976 -0.00084577 -0.000678836)
(1.1998 -0.000900823 -0.000702705)
(1.19982 -0.000807587 -0.000633898)
(1.19985 -0.000839329 -0.000669998)
(1.19984 -0.000555354 -0.000432816)
(1.19984 -0.000543775 -0.000444919)
(1.19986 -0.000580679 -0.000462894)
(1.19988 -0.000519922 -0.000415932)
(1.1999 -0.000541864 -0.000440677)
(1.1999 -0.000358745 -0.000282623)
(1.1999 -0.000350548 -0.000290447)
(1.19991 -0.000374943 -0.000302413)
(1.19993 -0.000337111 -0.000272409)
(1.19994 -0.000351084 -0.000288751)
(1.19995 -0.000231806 -0.000186383)
(1.19994 -0.000227523 -0.000190568)
(1.19995 -0.000243658 -0.000199005)
(1.19996 -0.000217486 -0.000179496)
(1.19997 -0.000228061 -0.000189815)
(1.19997 -0.000144187 -0.00012178)
(1.19997 -0.000141594 -0.000124215)
(1.19997 -0.000152317 -0.000130489)
(1.19998 -0.000134812 -0.000116385)
(1.19998 -0.000141994 -0.00012371)
(1.19999 -8.67417e-05 -7.59033e-05)
(1.19998 -8.49675e-05 -7.76318e-05)
(1.19999 -9.2229e-05 -8.18445e-05)
(1.19999 -8.07856e-05 -7.27129e-05)
(1.2 -8.56925e-05 -7.78024e-05)
(1.2 -4.89618e-05 -4.43e-05)
(1.2 -4.79749e-05 -4.52823e-05)
(1.2 -5.27247e-05 -4.84553e-05)
(1.2 -4.45515e-05 -4.15823e-05)
(1.20001 -4.82015e-05 -4.52044e-05)
(0.948908 -0.257544 -0.0500131)
(1.04155 -0.193704 -0.0486615)
(1.10073 -0.146112 -0.0461047)
(1.06453 -0.137969 -0.0689062)
(1.10419 -0.128648 -0.0399867)
(1.19291 0.00932539 -0.0259266)
(1.18508 0.00741767 -0.0220627)
(1.18383 0.00345501 -0.0217753)
(1.18657 0.00426136 -0.0190218)
(1.18684 0.00456381 -0.0192636)
(1.1904 -0.00123351 -0.010941)
(1.19012 -0.00135857 -0.0118751)
(1.19213 -0.000978794 -0.0101986)
(1.19184 -0.00206989 -0.0108169)
(1.19232 -0.00106113 -0.0110254)
(1.19517 -0.000374146 -0.00613945)
(1.19528 -0.00040034 -0.00655731)
(1.19589 -0.000318838 -0.00570964)
(1.19593 -0.000793178 -0.00604006)
(1.19607 -0.0003347 -0.00600481)
(1.19701 -0.000156249 -0.00362609)
(1.1971 -0.000166198 -0.00383545)
(1.19737 -0.000136414 -0.00337406)
(1.19764 -0.000384896 -0.00356969)
(1.19748 -0.00014272 -0.0035253)
(1.19787 -7.9406e-05 -0.00220218)
(1.19793 -8.30668e-05 -0.0023185)
(1.19807 -7.27894e-05 -0.00205131)
(1.19853 -0.000214443 -0.00217151)
(1.19814 -7.54183e-05 -0.00213566)
(1.19836 -5.00863e-05 -0.00136045)
(1.19839 -5.22858e-05 -0.00142866)
(1.19848 -4.74544e-05 -0.00126837)
(1.19904 -0.000132615 -0.00134324)
(1.19852 -4.92477e-05 -0.00131789)
(1.19866 -3.59102e-05 -0.000851845)
(1.19868 -3.7095e-05 -0.000892688)
(1.19874 -3.44179e-05 -0.000795097)
(1.19935 -8.70657e-05 -0.000840963)
(1.19876 -3.54278e-05 -0.000824559)
(1.19887 -2.7728e-05 -0.000536917)
(1.19888 -2.84418e-05 -0.000562178)
(1.19892 -2.71959e-05 -0.000501053)
(1.19954 -5.971e-05 -0.000529917)
(1.19893 -2.75628e-05 -0.000519241)
(1.19903 -2.74831e-05 -0.000339784)
(1.19903 -2.7359e-05 -0.000355782)
(1.19906 -2.75454e-05 -0.000317511)
(1.19966 -4.66233e-05 -0.000335618)
(1.19907 -2.73961e-05 -0.000328863)
(1.19916 -2.85132e-05 -0.000215728)
(1.19915 -2.82051e-05 -0.000225587)
(1.19918 -2.88936e-05 -0.000201564)
(1.19974 -3.81296e-05 -0.000212989)
(1.19918 -2.85488e-05 -0.000208718)
(1.19928 -3.19488e-05 -0.000136871)
(1.19927 -3.15665e-05 -0.000143474)
(1.1993 -3.25319e-05 -0.000127513)
(1.19979 -3.44913e-05 -0.000135358)
(1.19929 -3.20447e-05 -0.000132431)
(1.19939 -3.89906e-05 -8.37831e-05)
(1.19938 -3.80723e-05 -8.86445e-05)
(1.19941 -4.02303e-05 -7.79639e-05)
(1.19982 -3.46325e-05 -8.34885e-05)
(1.1994 -3.92532e-05 -8.14695e-05)
(1.19952 -4.70044e-05 -4.85311e-05)
(1.19951 -4.63053e-05 -5.16792e-05)
(1.19954 -4.73513e-05 -4.42421e-05)
(1.19984 -3.7132e-05 -4.83566e-05)
(1.19953 -4.72523e-05 -4.71254e-05)
(1.30756 -0.0107786 -0.00323172)
(1.29122 -0.0120395 -0.00209865)
(1.27862 -0.0255271 -0.00915957)
(1.27724 -0.0113404 -0.00183616)
(1.27198 -0.00698677 -0.0024652)
(1.20475 -0.0499536 -0.0289689)
(1.21623 -0.0380532 -0.0280553)
(1.20642 -0.0370265 -0.0262947)
(1.20866 -0.0307705 -0.0275365)
(1.20359 -0.0314245 -0.0261085)
(1.21054 -0.0351582 -0.0225795)
(1.19257 -0.0169471 -0.0157609)
(1.19206 -0.0154191 -0.0168794)
(1.19397 -0.018038 -0.0172149)
(1.19514 -0.0147306 -0.0158152)
(1.19428 -0.0140758 -0.0148143)
(1.19638 -0.0156936 -0.0146812)
(1.19527 -0.00664336 -0.0091326)
(1.19526 -0.00599297 -0.00941353)
(1.19571 -0.00704212 -0.00976622)
(1.19615 -0.00576572 -0.00854858)
(1.19664 -0.00659747 -0.0087561)
(1.19658 -0.00598627 -0.00899707)
(1.19703 -0.00322712 -0.00548233)
(1.19715 -0.00285957 -0.00554959)
(1.19725 -0.00338026 -0.00580266)
(1.19755 -0.0028773 -0.00511594)
(1.1977 -0.00331211 -0.00529979)
(1.19777 -0.00297745 -0.00534674)
(1.19812 -0.00177075 -0.00335603)
(1.19823 -0.00155989 -0.0033682)
(1.19825 -0.00184501 -0.00353335)
(1.19843 -0.00160743 -0.00313001)
(1.19848 -0.00185266 -0.00325948)
(1.19856 -0.00166213 -0.00325862)
(1.19879 -0.00104518 -0.00208214)
(1.19886 -0.000920257 -0.00208047)
(1.19886 -0.00108734 -0.00218649)
(1.19898 -0.000960056 -0.00194266)
(1.199 -0.00110803 -0.00202888)
(1.19906 -0.000993635 -0.00201844)
(1.19922 -0.000642357 -0.00130375)
(1.19927 -0.00056635 -0.00129918)
(1.19926 -0.000668802 -0.00136697)
(1.19934 -0.000594636 -0.00121712)
(1.19934 -0.000687655 -0.00127349)
(1.19938 -0.000616689 -0.0012629)
(1.19949 -0.000402545 -0.00082281)
(1.19952 -0.000355922 -0.00081841)
(1.19952 -0.000420005 -0.000861708)
(1.19957 -0.000374433 -0.000768635)
(1.19957 -0.000433927 -0.000805333)
(1.19959 -0.000389476 -0.000796783)
(1.19967 -0.000254463 -0.000521507)
(1.19969 -0.000225517 -0.000518229)
(1.19969 -0.000265856 -0.000546007)
(1.19972 -0.000237348 -0.000487407)
(1.19972 -0.000276224 -0.000511056)
(1.19973 -0.000247292 -0.000505173)
(1.19979 -0.000161182 -0.000331973)
(1.1998 -0.000144134 -0.000329505)
(1.1998 -0.000168804 -0.000347322)
(1.19982 -0.000150533 -0.000310313)
(1.19982 -0.000177147 -0.000325595)
(1.19983 -0.000157273 -0.000321398)
(1.19986 -0.00010057 -0.000211836)
(1.19987 -9.19746e-05 -0.000210003)
(1.19987 -0.000105961 -0.000221517)
(1.19988 -9.40297e-05 -0.000198037)
(1.19988 -0.000113474 -0.000208194)
(1.19989 -9.8762e-05 -0.000204999)
(1.19991 -6.10153e-05 -0.000134499)
(1.19991 -5.8465e-05 -0.000133467)
(1.19991 -6.47138e-05 -0.000140877)
(1.19992 -5.64896e-05 -0.000125345)
(1.19992 -7.24746e-05 -0.000132291)
(1.19993 -5.98394e-05 -0.000130101)
(1.19994 -3.32837e-05 -8.27844e-05)
(1.19994 -3.61892e-05 -8.24461e-05)
(1.19995 -3.58977e-05 -8.72627e-05)
(1.19995 -3.02791e-05 -7.70342e-05)
(1.19995 -4.45285e-05 -8.18182e-05)
(1.19995 -3.26557e-05 -8.04433e-05)
(1.19996 -1.46114e-05 -4.87071e-05)
(1.19996 -2.15733e-05 -4.83573e-05)
(1.19996 -1.65079e-05 -5.17968e-05)
(1.19996 -1.27551e-05 -4.47099e-05)
(1.19997 -2.44731e-05 -4.82528e-05)
(1.19997 -1.45066e-05 -4.73573e-05)
(1.23366 -0.00136486 -0.003612)
(1.23378 -0.000780042 -0.00235827)
(1.23056 -0.00351416 -0.00506666)
(1.2294 -0.000228537 -0.00231049)
(1.22995 -0.00131566 -0.00307634)
(1.21786 -0.0119554 -0.0112908)
(1.21566 -0.0129913 -0.011962)
(1.21622 -0.0138364 -0.01118)
(1.21571 -0.0101124 -0.00960716)
(1.21538 -0.0114375 -0.0110497)
(1.21353 -0.0124319 -0.0115696)
(1.2036 -0.0108069 -0.0097359)
(1.20387 -0.0107346 -0.00983206)
(1.205 -0.0107682 -0.00998998)
(1.20342 -0.0097681 -0.0091776)
(1.20494 -0.00944963 -0.00871146)
(1.20449 -0.0096921 -0.0093272)
(1.20022 -0.00676599 -0.00660499)
(1.20018 -0.00657705 -0.00679845)
(1.20085 -0.00690121 -0.00687283)
(1.20041 -0.00610797 -0.00620944)
(1.20102 -0.00631795 -0.00622427)
(1.20094 -0.00619261 -0.00639588)
(1.19941 -0.00412296 -0.00435073)
(1.1994 -0.00394739 -0.00444282)
(1.19973 -0.00423535 -0.00453934)
(1.19963 -0.00375377 -0.00407911)
(1.19991 -0.00397658 -0.00415561)
(1.19991 -0.0038361 -0.00421513)
(1.19935 -0.00255096 -0.00282033)
(1.19937 -0.00241971 -0.00285769)
(1.19952 -0.00263049 -0.00294608)
(1.19953 -0.0023419 -0.0026404)
(1.19967 -0.00251239 -0.0027113)
(1.19969 -0.00240471 -0.00273152)
(1.19949 -0.00160775 -0.00181532)
(1.1995 -0.00152019 -0.00182968)
(1.19958 -0.00166284 -0.00189725)
(1.19961 -0.0014863 -0.00169862)
(1.19969 -0.00160512 -0.00175367)
(1.1997 -0.0015318 -0.00175805)
(1.19963 -0.00102548 -0.00116739)
(1.19964 -0.000969615 -0.00117193)
(1.19969 -0.00106428 -0.00121958)
(1.19971 -0.00095248 -0.00109257)
(1.19976 -0.00103282 -0.00113197)
(1.19977 -0.000985549 -0.00113015)
(1.19975 -0.000658761 -0.000751141)
(1.19975 -0.000622682 -0.00075242)
(1.19978 -0.000684986 -0.000785441)
(1.1998 -0.000614536 -0.000703057)
(1.19983 -0.000668124 -0.000730916)
(1.19983 -0.000637266 -0.000728104)
(1.19983 -0.000425968 -0.00048201)
(1.19984 -0.000402752 -0.000481738)
(1.19986 -0.000444128 -0.000503864)
(1.19987 -0.000398292 -0.000451233)
(1.19989 -0.000434177 -0.00047002)
(1.19989 -0.000414256 -0.000467173)
(1.19989 -0.000274192 -0.000311083)
(1.1999 -0.000259868 -0.000310024)
(1.19991 -0.00028684 -0.000324769)
(1.19992 -0.000257219 -0.000291292)
(1.19993 -0.000280682 -0.00030401)
(1.19993 -0.000268181 -0.000301106)
(1.19994 -0.000177991 -0.000201511)
(1.19994 -0.000168275 -0.000200521)
(1.19995 -0.000186196 -0.000210327)
(1.19995 -0.000167222 -0.000188563)
(1.19996 -0.000182996 -0.000197053)
(1.19996 -0.000174524 -0.000194875)
(1.19997 -0.00011342 -0.000128592)
(1.19997 -0.000107475 -0.000127835)
(1.19997 -0.000119495 -0.000134661)
(1.19998 -0.000106065 -0.000120015)
(1.19998 -0.000116775 -0.000126047)
(1.19998 -0.000111633 -0.0001245)
(1.19998 -6.7958e-05 -8.0331e-05)
(1.19998 -6.54784e-05 -7.97968e-05)
(1.19999 -7.24499e-05 -8.43752e-05)
(1.19999 -6.30853e-05 -7.48494e-05)
(1.19999 -7.07905e-05 -7.90535e-05)
(1.19999 -6.7215e-05 -7.79504e-05)
(1.19999 -3.61286e-05 -4.79411e-05)
(1.19999 -3.66171e-05 -4.75157e-05)
(1.19999 -3.92264e-05 -5.08389e-05)
(1.2 -3.28664e-05 -4.39095e-05)
(1.2 -3.88027e-05 -4.70406e-05)
(1.2 -3.56535e-05 -4.63758e-05)
(1.23096 0.0054017 -0.0118484)
(1.22506 0.00235509 -0.00636503)
(1.22235 0.00400121 -0.0116045)
(1.2257 0.002214 -0.00835133)
(1.2241 0.00253123 -0.00735561)
(1.20992 -0.00185931 -0.011748)
(1.2123 -0.00108324 -0.0125425)
(1.21233 -0.00415151 -0.00959962)
(1.2103 -0.00383732 -0.010462)
(1.2105 -0.00293702 -0.0113486)
(1.21111 -0.00244455 -0.010141)
(1.20434 -0.00553796 -0.00768338)
(1.20571 -0.006013 -0.00694627)
(1.20569 -0.00539553 -0.0078371)
(1.20555 -0.00586644 -0.00670539)
(1.20475 -0.00554128 -0.00684919)
(1.20542 -0.00529103 -0.00682703)
(1.20242 -0.00518363 -0.00478899)
(1.20259 -0.00516119 -0.0048475)
(1.20293 -0.00513763 -0.00493306)
(1.20248 -0.00484081 -0.00448464)
(1.2029 -0.00490694 -0.00447538)
(1.20292 -0.00481267 -0.0045614)
(1.20116 -0.00380351 -0.00328001)
(1.20116 -0.00374555 -0.00335423)
(1.20147 -0.00384486 -0.00338928)
(1.20123 -0.00352407 -0.00308479)
(1.2015 -0.0036097 -0.00311123)
(1.20151 -0.00356078 -0.00315939)
(1.20054 -0.00261221 -0.00223004)
(1.20053 -0.00255801 -0.00227153)
(1.20073 -0.00266842 -0.00231232)
(1.20061 -0.00242263 -0.00209654)
(1.20079 -0.00251079 -0.00212995)
(1.20078 -0.00247075 -0.00215494)
(1.20026 -0.00175019 -0.00149487)
(1.20025 -0.00171003 -0.00151499)
(1.20038 -0.00180038 -0.00155357)
(1.20032 -0.00162755 -0.00140374)
(1.20043 -0.00169992 -0.00143563)
(1.20043 -0.00167088 -0.00144568)
(1.20013 -0.00115814 -0.000993679)
(1.20013 -0.00113062 -0.00100331)
(1.2002 -0.00119732 -0.00103406)
(1.20018 -0.00108027 -0.000933603)
(1.20025 -0.00113412 -0.000959484)
(1.20024 -0.00111434 -0.00096242)
(1.20008 -0.000764671 -0.000655847)
(1.20008 -0.000746713 -0.000660137)
(1.20013 -0.000793374 -0.000683867)
(1.20011 -0.000715179 -0.000615514)
(1.20015 -0.000740397 -0.000636205)
(1.20005 -0.000501545 -0.000430824)
(1.20005 -0.000490468 -0.000431858)
(1.20008 -0.000522392 -0.000448691)
(1.20008 -0.000470207 -0.000404475)
(1.20011 -0.000488516 -0.00041738)
(1.20004 -0.000328069 -0.000284196)
(1.20004 -0.000320619 -0.000284088)
(1.20006 -0.000342366 -0.000296162)
(1.20006 -0.000308289 -0.000266288)
(1.20008 -0.000320792 -0.000274862)
(1.20004 -0.000215726 -0.000185108)
(1.20004 -0.000211096 -0.000184656)
(1.20005 -0.000225564 -0.00019281)
(1.20005 -0.000202467 -0.000173279)
(1.20006 -0.000211449 -0.000178808)
(1.20003 -0.000135789 -0.000121173)
(1.20003 -0.00013353 -0.000120599)
(1.20004 -0.000143345 -0.000126311)
(1.20004 -0.000127208 -0.000113645)
(1.20005 -0.000133897 -0.000117398)
(1.20003 -8.30921e-05 -7.71452e-05)
(1.20003 -8.1367e-05 -7.67359e-05)
(1.20004 -8.82834e-05 -8.11774e-05)
(1.20004 -7.74455e-05 -7.18808e-05)
(1.20004 -8.22909e-05 -7.49779e-05)
(1.20003 -4.58875e-05 -4.53983e-05)
(1.20003 -4.48339e-05 -4.53971e-05)
(1.20004 -4.94727e-05 -4.85515e-05)
(1.20004 -4.19594e-05 -4.17123e-05)
(1.20004 -4.53007e-05 -4.44726e-05)
(1.2471 -0.00452115 -0.0485417)
(1.24564 -0.0138587 0.0318936)
(1.26985 -0.023345 0.0264386)
(1.24452 -0.00500832 0.00031056)
(1.20635 -0.00381899 -0.0349822)
(1.19489 -0.00618241 -0.0240923)
(1.19785 -0.0081043 -0.0260173)
(1.19639 -0.00404896 -0.0261782)
(1.2072 -0.0030851 -0.0284776)
(1.19737 -0.00133439 -0.0196227)
(1.19847 -0.00161442 -0.0192604)
(1.19879 -0.00273856 -0.0172499)
(1.19818 -0.00123847 -0.0161072)
(1.20065 -0.00108093 -0.0165796)
(1.19794 -0.000551905 -0.00915137)
(1.19867 -0.000565697 -0.00952905)
(1.19879 -0.000451302 -0.00811578)
(1.19903 -0.0010542 -0.00860661)
(1.19944 -0.000455013 -0.0082276)
(1.19856 -0.000226148 -0.00504656)
(1.19892 -0.000234454 -0.00518975)
(1.19894 -0.000190774 -0.00450717)
(1.19927 -0.000511518 -0.00477632)
(1.19926 -0.00019577 -0.00455526)
(1.19877 -0.000107918 -0.0029414)
(1.19896 -0.000111772 -0.00300804)
(1.19896 -9.66411e-05 -0.00264157)
(1.19945 -0.000282064 -0.00280009)
(1.19913 -9.92739e-05 -0.00266132)
(1.19887 -6.60542e-05 -0.00177605)
(1.19897 -6.825e-05 -0.00180936)
(1.19898 -6.19532e-05 -0.00159972)
(1.19957 -0.00017609 -0.00169541)
(1.19908 -6.38186e-05 -0.00160753)
(1.19895 -4.65543e-05 -0.00109467)
(1.19901 -4.80343e-05 -0.00111279)
(1.19902 -4.42875e-05 -0.000987559)
(1.19966 -0.00011652 -0.00104571)
(1.19908 -4.56473e-05 -0.000990767)
(1.19903 -3.38475e-05 -0.000683352)
(1.19906 -3.48406e-05 -0.000693376)
(1.19907 -3.24452e-05 -0.000616783)
(1.19973 -7.84845e-05 -0.000652523)
(1.1991 -3.33188e-05 -0.000617729)
(1.19909 -2.72531e-05 -0.000429318)
(1.19911 -2.78037e-05 -0.000435112)
(1.19913 -2.70551e-05 -0.000387583)
(1.19978 -5.66883e-05 -0.000410374)
(1.19914 -2.73389e-05 -0.000387871)
(1.19917 -2.74465e-05 -0.000271878)
(1.19917 -2.73721e-05 -0.000275438)
(1.19919 -2.74999e-05 -0.000245881)
(1.19981 -4.5205e-05 -0.000260036)
(1.1992 -2.74467e-05 -0.000245859)
(1.19925 -2.86143e-05 -0.000173571)
(1.19925 -2.82105e-05 -0.000175378)
(1.19927 -2.89877e-05 -0.000156828)
(1.19983 -3.69848e-05 -0.000165756)
(1.19926 -2.85753e-05 -0.000156679)
(1.19933 -3.21543e-05 -0.00011032)
(1.19933 -3.15359e-05 -0.000112133)
(1.19935 -3.28814e-05 -9.96142e-05)
(1.19985 -3.35312e-05 -0.000105461)
(1.19934 -3.19603e-05 -0.000100236)
(1.19943 -4.03464e-05 -6.72892e-05)
(1.19942 -3.93101e-05 -6.85128e-05)
(1.19945 -4.16019e-05 -6.06666e-05)
(1.19986 -3.54759e-05 -6.49501e-05)
(1.19944 -4.06725e-05 -6.12351e-05)
(1.19955 -4.76292e-05 -3.9133e-05)
(1.19954 -4.69429e-05 -4.03482e-05)
(1.19957 -4.77845e-05 -3.46042e-05)
(1.19987 -3.77204e-05 -3.74824e-05)
(1.19956 -4.76959e-05 -3.53705e-05)
(1.23837 -0.00103855 -0.00157033)
(1.23849 -0.00804121 -0.000929549)
(1.23314 -0.00854993 -0.00476531)
(1.23216 -0.00464089 -0.00149082)
(1.23108 -0.00160236 -0.00248041)
(1.21442 -0.0123104 -0.0189978)
(1.21219 -0.0137985 -0.0182019)
(1.21551 -0.0129079 -0.016822)
(1.21113 -0.0116611 -0.0168902)
(1.21353 -0.0121236 -0.0148783)
(1.21437 -0.00898653 -0.0159826)
(1.20262 -0.00792991 -0.0128577)
(1.20281 -0.00694104 -0.0129265)
(1.20408 -0.00770594 -0.0129311)
(1.20293 -0.00655387 -0.0113916)
(1.20406 -0.00723292 -0.011258)
(1.20427 -0.00626159 -0.0113337)
(1.2003 -0.00405305 -0.00753594)
(1.20055 -0.00351769 -0.00742597)
(1.20104 -0.00406916 -0.00767737)
(1.20072 -0.00350297 -0.00672897)
(1.20117 -0.0039632 -0.006875)
(1.20132 -0.00350203 -0.00674769)
(1.19983 -0.00225942 -0.00446947)
(1.2 -0.00196747 -0.00436494)
(1.2002 -0.0023021 -0.00455963)
(1.20011 -0.00201918 -0.00401517)
(1.20031 -0.00230383 -0.00415504)
(1.20042 -0.0020495 -0.00403622)
(1.19976 -0.0013559 -0.00271389)
(1.19986 -0.00118612 -0.00263481)
(1.19996 -0.00139197 -0.00276309)
(1.19993 -0.0012368 -0.00244524)
(1.20003 -0.00141678 -0.00254515)
(1.2001 -0.00126624 -0.00245564)
(1.19978 -0.00085067 -0.00167758)
(1.19984 -0.000747792 -0.00162222)
(1.19989 -0.000878036 -0.00170462)
(1.19989 -0.000785615 -0.00151387)
(1.19994 -0.000902643 -0.00158083)
(1.19999 -0.000809294 -0.0015183)
(1.19983 -0.000545896 -0.00104811)
(1.19986 -0.000481681 -0.00101087)
(1.19989 -0.000565853 -0.0010638)
(1.19989 -0.000507945 -0.000946636)
(1.19993 -0.000585401 -0.000990604)
(1.19995 -0.000525636 -0.000948638)
(1.19987 -0.000354183 -0.000660078)
(1.1999 -0.000313761 -0.000635166)
(1.19991 -0.000368584 -0.000668931)
(1.19992 -0.000331031 -0.000596458)
(1.19993 -0.000382799 -0.000624972)
(1.19995 -0.000343993 -0.000596834)
(1.19991 -0.000228566 -0.000418874)
(1.19992 -0.000203441 -0.000402398)
(1.19993 -0.000238859 -0.000424041)
(1.19994 -0.000214163 -0.000378716)
(1.19995 -0.000248756 -0.000397266)
(1.19996 -0.000223436 -0.000378618)
(1.19994 -0.000146849 -0.000266052)
(1.19994 -0.000131826 -0.000255412)
(1.19995 -0.000153852 -0.000269435)
(1.19995 -0.00013767 -0.000240525)
(1.19996 -0.000162003 -0.000252558)
(1.19997 -0.000143994 -0.000240522)
(1.19996 -9.35345e-05 -0.000169766)
(1.19996 -8.58039e-05 -0.000163045)
(1.19997 -9.8314e-05 -0.000171838)
(1.19997 -8.7573e-05 -0.000153683)
(1.19998 -0.000105961 -0.000161443)
(1.19998 -9.19319e-05 -0.000153778)
(1.19997 -5.63898e-05 -0.000107569)
(1.19997 -5.45563e-05 -0.000103347)
(1.19998 -5.99422e-05 -0.000109069)
(1.19998 -5.21924e-05 -9.70751e-05)
(1.19999 -6.78272e-05 -0.000102349)
(1.19999 -5.53922e-05 -9.72949e-05)
(1.19999 -3.11044e-05 -6.70673e-05)
(1.19998 -3.43568e-05 -6.44412e-05)
(1.19999 -3.35063e-05 -6.81285e-05)
(1.19999 -2.84603e-05 -6.01967e-05)
(1.19999 -4.24464e-05 -6.39697e-05)
(1.19999 -3.06324e-05 -6.05438e-05)
(1.19999 -1.40808e-05 -3.93369e-05)
(1.19999 -2.09537e-05 -3.72394e-05)
(1.19999 -1.58261e-05 -4.02879e-05)
(1.19999 -1.23504e-05 -3.4541e-05)
(1.2 -2.4329e-05 -3.68957e-05)
(1.19999 -1.37366e-05 -3.55278e-05)
(1.22104 -0.000722506 -0.00152943)
(1.22093 -0.00101492 -0.00130533)
(1.21946 -0.00188021 -0.0024164)
(1.21897 -0.000735229 -0.00114144)
(1.21889 -0.000556418 -0.00134188)
(1.2139 -0.00655974 -0.00753739)
(1.21382 -0.00655284 -0.00750292)
(1.21453 -0.00568802 -0.00663148)
(1.21336 -0.00544785 -0.00624115)
(1.2125 -0.00615183 -0.00716394)
(1.21332 -0.00529836 -0.00647213)
(1.20646 -0.00636286 -0.00723818)
(1.2065 -0.00609579 -0.00726703)
(1.20738 -0.00601769 -0.00698095)
(1.2061 -0.00568773 -0.00659576)
(1.20687 -0.00561106 -0.00633849)
(1.20687 -0.00543442 -0.00635587)
(1.20284 -0.00453519 -0.00521865)
(1.20287 -0.00431121 -0.0052114)
(1.20343 -0.00448347 -0.00519736)
(1.20284 -0.00408932 -0.00473473)
(1.2033 -0.00422047 -0.00472949)
(1.20334 -0.00405334 -0.00467333)
(1.20128 -0.0030228 -0.00347795)