/*--------------------------------*- C++ -*----------------------------------*\
| =========                 |                                                 |
| \\      /  F ield         | OpenFOAM: The Open Source CFD Toolbox           |
|  \\    /   O peration     | Version:  2012                                  |
|   \\  /    A nd           | Website:  www.openfoam.com                      |
|    \\/     M anipulation  |                                                 |
\*---------------------------------------------------------------------------*/
FoamFile
{
    version     2.0;
    format      ascii;
    class       surfaceScalarField;
    location    "0.104/fluid";
    object      meshPhi;
}
// * * * * * * * * * * * * * * * * * * * * * * * * * * * * * * * * * * * * * //

dimensions      [0 3 -1 0 0 0 0];
oriented        oriented;


internalField   nonuniform List<scalar> 
46886
(
-1.49906e-06
-4.56147e-06
-8.64008e-05
4.50321e-06
6.16286e-06
-1.68782e-06
-1.60627e-06
-1.78664e-06
-8.2422e-06
7.97541e-05
-1.34212e-05
1.30827e-05
-7.64813e-05
7.78164e-06
-1.06776e-05
-7.29543e-06
6.59899e-05
1.04927e-05
-6.26562e-05
7.24986e-06
-7.89958e-06
-7.27063e-06
5.3819e-05
-5.12674e-05
7.33375e-06
7.86135e-06
-5.85021e-06
-7.58697e-06
4.45997e-05
-4.26747e-05
7.63804e-06
5.88433e-06
-4.45206e-06
-7.80113e-06
3.76152e-05
-3.61332e-05
7.78062e-06
4.50688e-06
-3.47373e-06
-7.93395e-06
3.21416e-05
-3.09514e-05
7.82049e-06
3.53714e-06
-2.77022e-06
-8.03828e-06
2.77297e-05
-2.67348e-05
7.86762e-06
2.83208e-06
-2.21683e-06
-7.66545e-06
2.38312e-05
-2.28753e-05
7.47311e-06
2.27117e-06
-1.72751e-06
-6.96565e-06
2.00022e-05
-1.90409e-05
6.78128e-06
1.77272e-06
-1.28426e-06
-6.05332e-06
1.61564e-05
-1.52061e-05
5.89138e-06
1.31998e-06
-9.02719e-07
-4.98045e-06
1.24276e-05
-1.15359e-05
4.83681e-06
9.306e-07
-5.99553e-07
-3.87355e-06
8.9743e-06
-8.15647e-06
3.75286e-06
6.1958e-07
-3.63439e-07
-2.71871e-06
5.80467e-06
-5.04979e-06
2.63118e-06
3.75864e-07
-1.66921e-07
-1.37159e-06
2.8362e-06
-2.10243e-06
1.32706e-06
1.72569e-07
-5.55918e-06
-2.83711e-06
-7.31659e-05
2.82774e-06
5.34837e-06
-7.61944e-06
-6.62386e-06
6.97498e-05
7.48313e-06
-6.80851e-05
6.26417e-06
-8.00482e-06
-6.71625e-06
6.22627e-05
-6.02119e-05
6.40011e-06
7.92691e-06
-6.87713e-06
-6.88559e-06
5.42191e-05
-5.23116e-05
6.51845e-06
6.87652e-06
-5.64936e-06
-7.16975e-06
4.6953e-05
-4.53136e-05
6.77615e-06
5.68696e-06
-4.60018e-06
-7.22847e-06
4.07116e-05
-3.92722e-05
6.80638e-06
4.65628e-06
-3.70478e-06
-7.00739e-06
3.52288e-05
-3.39739e-05
6.53613e-06
3.77538e-06
-2.96898e-06
-6.77845e-06
3.04731e-05
-2.93774e-05
6.23543e-06
3.04476e-06
-2.36766e-06
-6.36025e-06
2.621e-05
-2.51789e-05
5.82496e-06
2.43736e-06
-1.84758e-06
-5.75576e-06
2.21125e-05
-2.1097e-05
5.26632e-06
1.90626e-06
-1.38705e-06
-4.97249e-06
1.80535e-05
-1.70444e-05
4.53165e-06
1.43223e-06
-9.87963e-07
-4.03503e-06
1.40477e-05
-1.30697e-05
3.65116e-06
1.02083e-06
-6.63699e-07
-3.08309e-06
1.02213e-05
-9.3041e-06
2.76479e-06
6.86242e-07
-4.0633e-07
-2.13482e-06
6.642e-06
-5.77262e-06
1.89425e-06
4.20907e-07
-1.87083e-07
-1.07499e-06
3.22272e-06
-2.38556e-06
9.53116e-07
1.94489e-07
-2.52714e-06
-4.16937e-06
-6.50534e-05
3.46154e-06
2.54475e-06
-5.04987e-06
-4.69896e-06
6.30587e-05
-6.20886e-05
3.86635e-06
5.03182e-06
-6.0305e-06
-4.77728e-06
5.852e-05
-5.71736e-05
3.91218e-06
6.03051e-06
-5.87563e-06
-4.7302e-06
5.29223e-05
-5.14818e-05
3.83668e-06
5.9082e-06
-5.26134e-06
-4.78206e-06
4.72046e-05
-4.58054e-05
3.82924e-06
5.31491e-06
-4.5051e-06
-4.70193e-06
4.17083e-05
-4.03839e-05
3.72984e-06
4.57207e-06
-3.73862e-06
-4.41179e-06
3.65563e-05
-3.53352e-05
3.4722e-06
3.81563e-06
-3.03505e-06
-4.08904e-06
3.18147e-05
-3.06819e-05
3.19541e-06
3.11503e-06
-2.41888e-06
-3.77024e-06
2.73669e-05
-2.62893e-05
2.93617e-06
2.49415e-06
-1.88716e-06
-3.38421e-06
2.31252e-05
-2.20913e-05
2.62377e-06
1.95216e-06
-1.42496e-06
-2.85896e-06
1.90103e-05
-1.79858e-05
2.19868e-06
1.47543e-06
-1.0266e-06
-2.24169e-06
1.49136e-05
-1.39e-05
1.71225e-06
1.06211e-06
-7.01301e-07
-1.63183e-06
1.09394e-05
-9.98995e-06
1.22699e-06
7.24962e-07
-4.40635e-07
-1.04712e-06
7.19939e-06
-6.27767e-06
7.62085e-07
4.58087e-07
-2.04926e-07
-5.43109e-07
3.52884e-06
-2.62654e-06
4.04703e-07
2.14217e-07
-3.65101e-06
-7.20419e-06
-9.20642e-05
6.97221e-06
3.32999e-06
8.52534e-05
-1.01689e-05
-8.1605e-06
-8.18507e-05
7.87032e-06
8.9643e-06
-9.0849e-06
-7.46531e-06
7.0636e-05
-6.69541e-05
7.39946e-06
8.43406e-06
-7.20707e-06
-7.18613e-06
5.68474e-05
-5.38491e-05
7.20168e-06
6.85263e-06
-5.59321e-06
-7.32224e-06
4.59571e-05
-4.36805e-05
7.34978e-06
5.38165e-06
-4.36831e-06
-7.56445e-06
3.77481e-05
-3.60433e-05
7.55291e-06
4.2269e-06
-3.47681e-06
-7.79196e-06
3.15734e-05
-3.02639e-05
7.7203e-06
3.3768e-06
-2.81352e-06
-7.81375e-06
2.66996e-05
-2.56068e-05
7.68508e-06
2.74041e-06
-2.27095e-06
-7.44926e-06
2.24828e-05
-2.1474e-05
7.27849e-06
2.21564e-06
-1.78084e-06
-6.82174e-06
1.84848e-05
-1.75034e-05
6.64654e-06
1.73982e-06
-1.33269e-06
-5.98527e-06
1.46137e-05
-1.36811e-05
5.82278e-06
1.30399e-06
-9.46187e-07
-4.95681e-06
1.10017e-05
-1.01594e-05
4.81113e-06
9.2725e-07
-6.33115e-07
-3.92328e-06
7.79933e-06
-7.06367e-06
3.791e-06
6.21505e-07
-3.85927e-07
-2.80241e-06
4.97957e-06
-4.31771e-06
2.70563e-06
3.79604e-07
-1.77445e-07
-1.4071e-06
2.37309e-06
-1.73526e-06
1.35889e-06
1.74467e-07
-6.21901e-06
-2.68945e-06
-7.99259e-05
2.62593e-06
5.89066e-06
-6.50703e-06
-6.84844e-06
7.57498e-05
6.06898e-06
-7.37688e-05
6.45115e-06
-7.1673e-06
-6.8243e-06
6.68709e-05
-6.44249e-05
6.4868e-06
6.78612e-06
-6.44644e-06
-6.78476e-06
5.71476e-05
-5.48168e-05
6.45652e-06
6.18338e-06
-5.45341e-06
-6.91145e-06
4.82988e-05
-4.63101e-05
6.54743e-06
5.26734e-06
-4.52282e-06
-6.99262e-06
4.08648e-05
-3.92178e-05
6.57973e-06
4.38296e-06
-3.72259e-06
-6.93783e-06
3.47063e-05
-3.33297e-05
6.46412e-06
3.61895e-06
-3.04593e-06
-6.71914e-06
2.9489e-05
-2.82881e-05
6.19744e-06
2.9704e-06
-2.46041e-06
-6.27109e-06
2.48483e-05
-2.37477e-05
5.76303e-06
2.40396e-06
-1.93708e-06
-5.68756e-06
2.05307e-05
-1.948e-05
5.22462e-06
1.89606e-06
-1.45985e-06
-4.93135e-06
1.63735e-05
-1.53621e-05
4.51111e-06
1.43183e-06
-1.04231e-06
-4.02615e-06
1.24215e-05
-1.14862e-05
3.65458e-06
1.02304e-06
-7.00925e-07
-3.08755e-06
8.83248e-06
-8.00081e-06
2.77084e-06
6.88044e-07
-4.30861e-07
-2.15115e-06
5.65338e-06
-4.90747e-06
1.90289e-06
4.22464e-07
-1.98897e-07
-1.07936e-06
2.70706e-06
-1.98058e-06
9.508e-07
1.94441e-07
-2.4962e-06
-4.37035e-06
-7.07991e-05
3.57934e-06
2.45278e-06
-4.69306e-06
-4.72013e-06
6.8188e-05
-6.69669e-05
3.84867e-06
4.5071e-06
-5.66828e-06
-4.76679e-06
6.256e-05
-6.09116e-05
3.86971e-06
5.44727e-06
-5.64205e-06
-4.68837e-06
5.56876e-05
-5.39115e-05
3.77596e-06
5.44517e-06
-5.13711e-06
-4.63798e-06
4.86519e-05
-4.69528e-05
3.69744e-06
4.97281e-06
-4.46485e-06
-4.54518e-06
4.2078e-05
-4.05383e-05
3.5906e-06
4.33109e-06
-3.77278e-06
-4.34916e-06
3.61718e-05
-3.47975e-05
3.40974e-06
3.66875e-06
-3.11961e-06
-4.06814e-06
3.08639e-05
-2.96067e-05
3.16929e-06
3.0417e-06
-2.52303e-06
-3.73985e-06
2.59649e-05
-2.47981e-05
2.90073e-06
2.46487e-06
-1.9918e-06
-3.39432e-06
2.14395e-05
-2.03719e-05
2.62322e-06
1.95045e-06
-1.51568e-06
-2.91773e-06
1.72595e-05
-1.62435e-05
2.25518e-06
1.49064e-06
-1.09082e-06
-2.30697e-06
1.32441e-05
-1.2279e-05
1.78002e-06
1.07416e-06
-7.41447e-07
-1.67355e-06
9.54174e-06
-8.68936e-06
1.27267e-06
7.29068e-07
-4.67379e-07
-1.07778e-06
6.25538e-06
-5.45413e-06
8.00022e-07
4.56599e-07
-2.18848e-07
-5.20281e-07
3.0131e-06
-2.20973e-06
3.78241e-07
2.12639e-07
-2.66214e-06
-6.51125e-06
-7.86476e-05
6.48188e-06
2.48356e-06
-5.98318e-06
-7.15698e-06
7.45404e-05
7.09874e-06
-7.24887e-05
5.21456e-06
-6.36421e-06
-7.19697e-06
6.51316e-05
-6.24826e-05
7.17986e-06
5.67717e-06
-5.52096e-06
-7.16836e-06
5.45444e-05
-5.20014e-05
7.1776e-06
5.00164e-06
-4.4579e-06
-7.27041e-06
4.49293e-05
-4.27985e-05
7.28176e-06
4.06056e-06
-3.54017e-06
-7.52259e-06
3.70863e-05
-3.54059e-05
7.49942e-06
3.22941e-06
-2.85247e-06
-7.78914e-06
3.09142e-05
-2.95736e-05
7.70331e-06
2.60614e-06
-2.3301e-06
-7.82461e-06
2.58796e-05
-2.47417e-05
7.6838e-06
2.13098e-06
-1.88863e-06
-7.51017e-06
2.14989e-05
-2.04589e-05
7.33978e-06
1.72713e-06
-1.48801e-06
-6.92434e-06
1.74085e-05
-1.64094e-05
6.74799e-06
1.36108e-06
-1.11904e-06
-6.09044e-06
1.34711e-05
-1.25299e-05
5.91796e-06
1.02435e-06
-7.9909e-07
-5.04743e-06
9.86712e-06
-9.05548e-06
4.87987e-06
7.3233e-07
-5.38911e-07
-3.95633e-06
6.87924e-06
-6.22657e-06
3.80282e-06
4.95422e-07
-3.31491e-07
-2.79246e-06
4.40748e-06
-3.83161e-06
2.68513e-06
3.05537e-07
-1.53536e-07
-1.39403e-06
2.13552e-06
-1.57771e-06
1.34705e-06
1.42125e-07
-2.38123e-06
-6.10991e-06
-7.50981e-05
5.83671e-06
2.25895e-06
-4.69914e-06
-6.56821e-06
7.18263e-05
-7.02691e-05
6.24506e-06
4.24043e-06
-5.42451e-06
-6.71098e-06
6.46541e-05
-6.25732e-05
6.38398e-06
4.9143e-06
-5.10697e-06
-6.75182e-06
5.60831e-05
-5.3922e-05
6.41589e-06
4.65859e-06
-4.4184e-06
-6.81663e-06
4.76796e-05
-4.57235e-05
6.44615e-06
4.04106e-06
-3.69685e-06
-6.8855e-06
4.02722e-05
-3.8603e-05
6.45925e-06
3.38129e-06
-3.06698e-06
-6.88871e-06
3.39922e-05
-3.25779e-05
6.40394e-06
2.80447e-06
-2.53024e-06
-6.71673e-06
2.86161e-05
-2.73745e-05
6.19712e-06
2.31403e-06
-2.05226e-06
-6.3319e-06
2.38078e-05
-2.26669e-05
5.82208e-06
1.87707e-06
-1.62454e-06
-5.78678e-06
1.93492e-05
-1.82789e-05
5.32202e-06
1.48664e-06
-1.23697e-06
-5.0259e-06
1.51123e-05
-1.40696e-05
4.61284e-06
1.13566e-06
-8.88188e-07
-4.05481e-06
1.10547e-05
-1.01297e-05
3.68943e-06
8.17783e-07
-5.98365e-07
-3.05883e-06
7.6513e-06
-6.91962e-06
2.7414e-06
5.51259e-07
-3.66078e-07
-2.11361e-06
4.93235e-06
-4.30714e-06
1.86735e-06
3.3706e-07
-1.69615e-07
-1.06518e-06
2.42578e-06
-1.79993e-06
9.36178e-07
1.56779e-07
-2.23016e-06
-4.32968e-06
-7.023e-05
3.52286e-06
2.1096e-06
-3.77224e-06
-4.56946e-06
6.76917e-05
-6.65314e-05
3.70064e-06
3.46615e-06
-4.53586e-06
-4.64441e-06
6.23156e-05
-6.07179e-05
3.74653e-06
4.15091e-06
-4.57016e-06
-4.60673e-06
5.55692e-05
-5.37929e-05
3.69002e-06
4.18447e-06
-4.19321e-06
-4.52725e-06
4.84517e-05
-4.67066e-05
3.59564e-06
3.83839e-06
-3.65874e-06
-4.42382e-06
4.16635e-05
-4.00645e-05
3.485e-06
3.3459e-06
-3.10718e-06
-4.27787e-06
3.55171e-05
-3.4085e-05
3.34626e-06
2.83928e-06
-2.58564e-06
-4.05733e-06
2.99861e-05
-2.86794e-05
3.15613e-06
2.3626e-06
-2.10154e-06
-3.77349e-06
2.48974e-05
-2.36885e-05
2.92431e-06
1.92137e-06
-1.67281e-06
-3.45345e-06
2.02478e-05
-1.91843e-05
2.67455e-06
1.53247e-06
-1.29967e-06
-3.02775e-06
1.60975e-05
-1.50594e-05
2.36154e-06
1.1968e-06
-9.41393e-07
-2.36531e-06
1.19969e-05
-1.10412e-05
1.83831e-06
8.67639e-07
-6.36066e-07
-1.66167e-06
8.45081e-06
-7.6703e-06
1.26775e-06
5.85372e-07
-3.91079e-07
-1.06857e-06
5.46262e-06
-4.73701e-06
7.99041e-07
3.58578e-07
-1.79722e-07
-5.09146e-07
2.56462e-06
-1.87537e-06
3.68897e-07
1.64637e-07
-1.79733e-06
-6.28516e-06
-6.68757e-05
6.24194e-06
1.46175e-06
-3.18386e-06
-6.8318e-06
6.44228e-05
-6.31932e-05
6.83817e-06
2.4918e-06
-3.55296e-06
-7.15178e-06
5.85621e-05
-5.67923e-05
7.15634e-06
2.77603e-06
-3.20183e-06
-7.34683e-06
5.11059e-05
-4.9155e-05
7.33359e-06
2.50273e-06
-2.61097e-06
-7.47236e-06
4.33698e-05
-4.15169e-05
7.44348e-06
2.03638e-06
-2.0722e-06
-7.64333e-06
3.6299e-05
-3.47019e-05
7.58037e-06
1.61114e-06
-1.66985e-06
-7.85423e-06
3.03323e-05
-2.90089e-05
7.73166e-06
1.29419e-06
-1.36219e-06
-7.88615e-06
2.53269e-05
-2.41861e-05
7.71278e-06
1.05303e-06
-1.10134e-06
-7.58712e-06
2.09364e-05
-1.98993e-05
7.39591e-06
8.50022e-07
-8.64255e-07
-6.99077e-06
1.68618e-05
-1.58567e-05
6.80003e-06
6.65179e-07
-6.46385e-07
-6.12249e-06
1.2822e-05
-1.18293e-05
5.92131e-06
4.94041e-07
-4.61546e-07
-5.07414e-06
9.05951e-06
-8.26042e-06
4.86626e-06
3.51425e-07
-3.17311e-07
-3.97533e-06
6.26236e-06
-5.69733e-06
3.79961e-06
2.43478e-07
-1.97627e-07
-2.77974e-06
4.14583e-06
-3.64465e-06
2.67057e-06
1.5242e-07
-9.27004e-08
-1.37508e-06
2.11105e-06
-1.58294e-06
1.33368e-06
7.1652e-08
-1.65806e-06
-5.89462e-06
-6.86343e-05
5.64231e-06
1.35164e-06
-2.75294e-06
-6.41069e-06
6.62407e-05
-6.50971e-05
6.09301e-06
2.17368e-06
-3.16918e-06
-6.68033e-06
6.08259e-05
-5.91836e-05
6.32909e-06
2.4871e-06
-3.02343e-06
-6.80177e-06
5.38516e-05
-5.20058e-05
6.42352e-06
2.36664e-06
-2.62278e-06
-6.8479e-06
4.64551e-05
-4.4653e-05
6.43675e-06
2.04831e-06
-2.18332e-06
-6.85638e-06
3.9481e-05
-3.78604e-05
6.40099e-06
1.69911e-06
-1.79891e-06
-6.83004e-06
3.33192e-05
-3.19165e-05
6.32793e-06
1.39431e-06
-1.47742e-06
-6.67783e-06
2.79691e-05
-2.6733e-05
6.14816e-06
1.1416e-06
-1.1965e-06
-6.33028e-06
2.319e-05
-2.20609e-05
5.80489e-06
9.23287e-07
-9.42937e-07
-5.77466e-06
1.87568e-05
-1.76717e-05
5.27099e-06
7.23835e-07
-7.1284e-07
-4.95564e-06
1.43837e-05
-1.32601e-05
4.52419e-06
5.36726e-07
-5.10697e-07
-3.95267e-06
1.00722e-05
-9.17466e-06
3.58226e-06
3.78817e-07
-3.51275e-07
-3.00528e-06
6.91667e-06
-6.28685e-06
2.6735e-06
2.65441e-07
-2.17922e-07
-2.10001e-06
4.62363e-06
-4.09848e-06
1.84628e-06
1.68011e-07
-1.01756e-07
-1.06466e-06
2.43015e-06
-1.83268e-06
9.33676e-07
7.85592e-08
-1.51657e-06
-4.17129e-06
-6.7585e-05
3.3713e-06
1.22121e-06
-2.31187e-06
-4.3931e-06
6.53018e-05
-6.42736e-05
3.52646e-06
1.8268e-06
-2.71944e-06
-4.51295e-06
6.05091e-05
-5.90646e-05
3.61072e-06
2.13469e-06
-2.72689e-06
-4.52353e-06
5.43389e-05
-5.26862e-05
3.59951e-06
2.1319e-06
-2.48695e-06
-4.4449e-06
4.76178e-05
-4.59344e-05
3.51254e-06
1.93722e-06
-2.15255e-06
-4.32925e-06
4.10046e-05
-3.94256e-05
3.39857e-06
1.67081e-06
-1.81516e-06
-4.19266e-06
3.48991e-05
-3.3467e-05
3.27234e-06
1.40446e-06
-1.50488e-06
-4.0074e-06
2.93664e-05
-2.80608e-05
3.11315e-06
1.16168e-06
-1.22265e-06
-3.7344e-06
2.42743e-05
-2.30544e-05
2.89013e-06
9.42287e-07
-9.67817e-07
-3.32887e-06
1.95108e-05
-1.84305e-05
2.57424e-06
7.39713e-07
-7.51986e-07
-2.92098e-06
1.53796e-05
-1.43306e-05
2.2693e-06
5.66851e-07
-5.48023e-07
-2.28398e-06
1.13505e-05
-1.0431e-05
1.76407e-06
4.14439e-07
-3.73225e-07
-1.57029e-06
7.8698e-06
-7.11822e-06
1.18317e-06
2.85119e-07
-2.28868e-07
-1.01408e-06
5.10504e-06
-4.4654e-06
7.43876e-07
1.76008e-07
-1.05142e-07
-4.97024e-07
2.50973e-06
-1.86167e-06
3.59014e-07
8.09838e-08
9.06638e-07
1.38243e-06
-1.45681e-06
-2.05719e-05
1.57413e-05
-7.50497e-05
7.85688e-06
-8.42474e-06
7.7396e-05
-1.58485e-06
-2.17587e-05
9.09606e-07
-8.19384e-05
8.5709e-06
-9.3158e-06
8.54414e-05
1.54444e-05
7.36957e-06
4.13144e-06
-7.74274e-06
-9.73294e-05
-1.61475e-06
-8.62212e-07
-1.44807e-06
-9.33037e-07
-8.87485e-05
8.63717e-06
1.09039e-05
-1.27549e-05
-9.0765e-06
9.26368e-05
1.5032e-05
7.64248e-06
-7.91923e-06
-7.22284e-05
1.20493e-05
-6.25424e-05
7.10877e-06
-7.09386e-06
6.57914e-05
-1.56993e-06
-7.83173e-05
5.43225e-06
1.34662e-05
-7.35852e-05
7.5701e-05
7.28679e-06
3.05412e-06
5.17308e-06
-5.2431e-06
-7.10536e-05
8.04495e-06
-6.78169e-05
6.19493e-06
-6.48195e-06
6.91894e-05
-1.08511e-06
3.31452e-07
-1.56044e-07
3.43004e-07
-1.24988e-07
-7.92677e-07
1.25036e-07
2.09796e-07
-8.61493e-06
1.46801e-05
-7.81245e-05
-6.62214e-05
7.43126e-06
-7.45086e-06
7.0096e-05
1.17945e-05
8.45613e-06
1.1072e-05
-1.25638e-05
-8.74968e-06
-8.44165e-05
-7.10453e-05
7.7048e-06
9.91465e-06
-1.06877e-05
-7.74802e-06
7.54069e-05
8.26444e-05
1.31426e-05
7.86807e-06
-5.73077e-06
-7.60485e-05
3.03368e-06
-7.20433e-05
6.485e-06
-6.8563e-06
7.37281e-05
7.86943e-06
-4.03963e-06
-9.41053e-05
7.03947e-06
9.7701e-06
-8.65636e-05
-1.11499e-05
8.9889e-05
8.1341e-06
2.82993e-06
6.17036e-06
-2.91401e-06
-6.46274e-06
-8.30746e-05
6.62043e-06
-7.81788e-05
6.80621e-06
-7.12779e-06
-7.21885e-06
8.02187e-05
-7.43103e-06
-9.43817e-05
3.6074e-06
8.24214e-06
-8.68222e-05
-8.52156e-06
9.01609e-05
9.21689e-06
6.63461e-06
2.71351e-06
-2.93733e-06
-6.64508e-06
-8.24601e-05
7.26429e-06
-7.75186e-05
5.68275e-06
-6.62832e-06
-7.29672e-06
7.96443e-05
-7.8108e-07
-1.24849e-07
2.06902e-07
2.62974e-07
-2.62759e-07
-3.66299e-08
-1.14714e-06
-2.03583e-05
3.15023e-06
1.88221e-06
2.04447e-05
-1.92285e-06
-7.81648e-07
1.24429e-07
-1.24289e-07
6.04679e-07
1.73618e-05
2.00177e-05
2.01091e-05
-7.56345e-05
1.55386e-05
-2.42438e-06
-2.31722e-06
7.91713e-06
2.05094e-05
2.62791e-07
-2.62569e-07
-1.26583e-06
3.39293e-07
2.17252e-07
-2.70535e-07
-7.44388e-08
-1.05997e-06
2.63143e-07
-3.72511e-08
-1.16421e-06
-1.08643e-06
2.86094e-07
-1.83116e-07
6.46216e-07
-2.14638e-05
2.00619e-06
2.15926e-05
-2.04973e-06
3.13485e-06
8.80805e-07
1.7657e-06
-8.95321e-07
-1.86138e-06
-2.45733e-05
-7.93251e-07
1.24481e-07
6.1402e-07
-2.39811e-05
2.90107e-06
2.20376e-06
-2.25359e-06
-3.03114e-06
2.42013e-05
1.11199e-07
-1.64056e-07
-1.26544e-06
1.9586e-07
1.71425e-05
2.22955e-05
2.11786e-05
2.12547e-05
2.22447e-05
-8.29785e-05
1.53048e-05
-2.57708e-06
-2.57508e-06
-2.46129e-06
-2.70079e-06
8.74581e-06
2.17037e-05
2.25022e-05
2.28539e-05
-9.82383e-06
9.15152e-05
1.44683e-05
-8.69289e-05
8.96375e-06
2.62965e-07
-1.28479e-06
3.44683e-07
1.61321e-05
2.32576e-05
2.3974e-05
2.32421e-05
2.3916e-05
-8.83245e-05
1.41707e-05
-2.66721e-06
-2.72597e-06
-2.77799e-06
-2.66122e-06
9.14993e-06
2.4576e-05
2.3401e-05
2.3907e-05
-1.93299e-06
8.14233e-08
1.34514e-07
1.85251e-06
1.99731e-07
1.13471e-07
-1.63899e-06
8.61926e-08
1.74802e-07
-1.31131e-07
-1.98558e-06
2.25644e-07
-2.02919e-06
1.70481e-06
4.84091e-07
2.08966e-07
1.79861e-06
8.69384e-07
-1.86152e-06
-2.47947e-05
-9.94802e-05
-1.84074e-06
-1.17933e-06
-1.05242e-06
-2.03849e-06
4.59585e-06
-9.36609e-06
-8.61396e-06
-9.55944e-05
8.10783e-06
7.63196e-06
-1.64337e-06
7.7797e-08
-9.73563e-05
-2.2065e-06
-2.31888e-06
-2.13995e-06
-2.29345e-06
8.28874e-06
2.50136e-05
2.46562e-05
2.45731e-05
2.51156e-05
-3.26865e-06
-2.31219e-06
-2.6221e-06
-9.74082e-05
-2.59638e-06
-3.20041e-06
-2.81741e-06
-3.02768e-06
8.44452e-06
-2.14853e-06
1.69689e-07
2.32949e-07
-9.61047e-06
9.37317e-05
-8.91233e-05
8.94169e-06
-1.39134e-05
9.4174e-05
-8.97285e-05
1.16256e-05
-1.20534e-05
-9.14464e-06
8.57733e-06
9.90544e-06
2.41033e-05
2.43386e-05
2.42163e-05
2.42155e-05
-9.05135e-05
-2.46369e-06
-2.57607e-06
-2.57864e-06
-2.44063e-06
8.96587e-06
-3.54111e-06
-3.53095e-06
-3.66741e-06
-3.40149e-06
1.07624e-05
-1.25318e-07
-8.84865e-07
1.25202e-07
2.33374e-07
-8.73557e-07
-1.25358e-07
2.30044e-07
2.20365e-06
4.66355e-06
4.98884e-06
5.06407e-06
4.92029e-06
5.13338e-06
2.02174e-07
3.91718e-07
-4.6761e-07
-2.02935e-07
-5.30816e-06
-5.2859e-06
5.77915e-07
3.99216e-07
-5.77098e-07
5.22579e-06
-3.39181e-07
-2.07928e-05
4.15263e-06
-2.92357e-07
-6.98378e-07
-6.77603e-07
-3.03861e-07
2.04543e-06
5.09361e-06
5.25422e-06
5.08739e-06
5.25231e-06
7.04599e-07
4.55449e-07
-7.05495e-07
-4.88946e-07
-5.25306e-06
2.4048e-06
4.69082e-06
4.96452e-06
5.03577e-06
4.89225e-06
5.10878e-06
-2.03273e-05
4.6753e-06
-6.60954e-07
-7.94905e-07
-7.72492e-07
-6.81018e-07
4.57047e-06
-2.63562e-07
2.6327e-07
-4.15767e-08
-1.30018e-06
-4.65585e-06
2.80083e-06
4.49835e-06
6.08105e-06
6.10243e-06
6.00817e-06
6.17258e-06
-4.65642e-06
2.60232e-06
5.97507e-06
5.78937e-06
5.86039e-06
5.90104e-06
-2.6373e-07
-4.17443e-08
-1.283e-06
4.68724e-06
2.33694e-06
5.43319e-06
5.21917e-06
5.29042e-06
5.36161e-06
2.46018e-06
5.58623e-06
5.65058e-06
5.72342e-06
5.51401e-06
-7.07516e-07
6.10536e-06
5.35893e-07
-5.80382e-07
-6.06368e-06
7.10721e-07
-1.24863e-07
-8.85724e-07
1.24755e-07
6.87236e-07
-4.04294e-06
-2.55735e-05
3.61828e-06
-3.35209e-07
-6.62986e-07
-7.89842e-07
-3.15304e-07
2.35465e-06
6.47518e-06
6.39745e-06
6.35953e-06
6.52547e-06
-4.14542e-06
-2.45627e-05
-3.50418e-07
-8.08025e-07
-3.51777e-07
-8.12887e-07
2.39033e-06
6.27636e-06
6.04703e-06
6.07674e-06
6.21538e-06
6.48759e-06
6.67771e-07
5.32297e-07
-6.97336e-07
-5.63742e-07
-6.43362e-06
-5.9348e-06
5.82401e-07
4.64419e-07
-3.97387e-07
-5.8149e-07
5.86806e-06
4.09766e-07
-4.87843e-07
-5.4667e-06
2.03339e-07
-5.44138e-06
4.15833e-07
5.79523e-07
5.38168e-06
-3.53828e-07
2.02305e-07
4.61692e-07
-5.962e-06
-2.03864e-07
-5.49667e-07
5.20816e-07
-5.62402e-07
-7.09981e-07
-5.89418e-06
-8.74283e-07
-1.24809e-07
6.78109e-07
4.16274e-06
-2.20444e-05
-3.26395e-07
-7.24062e-07
-3.15646e-07
-7.4425e-07
2.18673e-06
5.5687e-06
5.40032e-06
5.40836e-06
5.56874e-06
4.72935e-07
7.08115e-07
-5.0746e-07
-5.40819e-06
-2.32925e-05
-3.37003e-07
-7.87707e-07
-3.45597e-07
-7.69165e-07
2.31255e-06
5.72913e-06
5.8902e-06
5.89795e-06
5.71712e-06
4.79116e-07
-4.11406e-07
6.04217e-06
5.82921e-07
2.22678e-07
4.99128e-07
-5.57223e-07
-2.08958e-07
-6.62387e-06
4.79861e-07
-6.14276e-06
-5.71422e-07
2.05014e-07
5.54257e-07
4.85128e-07
-5.77891e-07
-4.23213e-07
6.44788e-06
-2.82541e-06
2.37735e-05
4.50445e-06
-4.54551e-06
-2.63315e-07
2.62595e-07
-1.43315e-06
3.85448e-07
-4.68479e-06
2.87573e-06
4.52933e-06
6.13135e-06
6.17124e-06
6.04007e-06
6.24258e-06
-4.56416e-06
-2.46352e-05
4.20494e-06
-8.05453e-07
-8.06192e-07
-8.97879e-07
-7.68863e-07
-4.68514e-06
5.98692e-06
5.76129e-06
5.8889e-06
5.84573e-06
-4.65506e-06
-7.99174e-07
-9.10255e-07
-9.13032e-07
-7.84038e-07
4.2557e-06
-4.60377e-06
-2.69312e-06
2.26762e-05
-2.63496e-07
-1.41544e-06
3.80506e-07
2.55479e-06
4.71589e-06
5.40792e-06
5.1902e-06
5.26527e-06
5.3318e-06
-2.15222e-05
4.69261e-06
-7.23598e-07
-8.23437e-07
-7.04682e-07
-8.44493e-07
5.56093e-06
5.62022e-06
5.4834e-06
5.70067e-06
-7.45918e-07
-8.89254e-07
-8.71594e-07
-7.63497e-07
1.81205e-06
1.66929e-07
-2.5981e-06
4.722e-07
4.01656e-07
2.54223e-05
-2.51074e-05
2.61949e-06
-8.89022e-07
-8.57327e-07
-8.62566e-07
-9.62543e-07
2.57753e-05
2.52992e-06
-8.10796e-07
-8.72025e-07
-7.78196e-07
-9.11877e-07
1.50808e-07
1.67578e-06
-1.11378e-07
2.66571e-07
-2.61682e-05
2.05271e-06
-4.03651e-07
-3.39607e-07
-3.17864e-07
-4.65887e-07
2.2675e-06
-5.28415e-07
-7.39056e-07
-6.55634e-07
-5.81667e-07
4.06439e-06
2.6925e-06
6.24454e-06
6.22881e-06
6.24503e-06
6.24128e-06
-2.4708e-05
2.49806e-06
-1.0105e-06
-9.51316e-07
-9.54375e-07
-1.02766e-06
2.53525e-06
-2.83256e-06
-2.28983e-06
-2.51998e-05
2.52838e-05
1.81219e-06
-2.62017e-06
8.5162e-07
3.74545e-07
2.53152e-05
3.36814e-06
-2.54329e-05
-5.28291e-07
-5.77057e-07
-4.11017e-07
-5.75637e-07
2.5418e-05
2.33382e-06
-2.50449e-05
-9.06155e-07
-8.60984e-07
-9.62851e-07
-8.7358e-07
6.41207e-06
-5.59845e-07
-5.74071e-07
-5.99525e-07
-6.00884e-07
6.33645e-06
6.39884e-06
6.36408e-06
-7.10275e-07
-7.79954e-07
-8.11608e-07
2.58815e-05
-8.20825e-07
-8.56969e-07
-9.05309e-07
-7.76535e-07
-2.4987e-05
2.53716e-05
-2.08399e-06
2.04238e-06
-4.62421e-07
-5.223e-07
-5.75146e-07
-4.36088e-07
1.67901e-06
2.04875e-07
2.47032e-07
4.80731e-07
-4.98564e-07
2.14293e-07
-6.42704e-06
2.11704e-06
-2.62967e-05
-3.71003e-07
-3.12254e-07
-2.75831e-07
-4.37776e-07
1.93663e-06
-3.28125e-07
-2.18588e-07
-2.37151e-07
-3.02156e-07
4.9326e-07
5.41435e-07
-4.52871e-07
6.37537e-06
-5.04744e-07
-7.16e-07
-5.55274e-07
-6.41741e-07
-3.91902e-06
-2.5512e-06
2.4672e-05
2.70712e-06
4.08822e-06
6.27986e-06
6.28642e-06
6.3068e-06
6.26764e-06
-2.48837e-05
3.76619e-06
-6.72824e-07
-7.01089e-07
-7.18143e-07
-6.45261e-07
-2.4791e-05
2.51788e-06
-1.01824e-06
-9.53783e-07
-1.03158e-06
-9.61263e-07
-6.77929e-06
1.02318e-06
-1.05057e-06
6.36018e-06
3.46266e-07
3.90346e-07
3.19265e-07
4.11819e-07
-9.3208e-07
-1.22645e-07
1.19221e-07
2.701e-07
-1.15973e-06
7.12609e-06
-6.63053e-06
7.92776e-07
2.67511e-07
4.80506e-09
-1.82172e-08
3.95196e-07
-6.44267e-06
-1.24818e-06
2.1305e-07
3.54263e-09
-1.00778e-08
1.86292e-07
8.79123e-07
6.57352e-06
3.95156e-07
4.8493e-07
4.76992e-07
4.46477e-07
-1.27001e-06
9.70819e-08
-9.7553e-08
1.24981e-06
4.75714e-08
-9.66648e-08
-1.21592e-06
9.73927e-08
1.19654e-06
4.38027e-08
-1.05233e-06
-5.75594e-06
1.05304e-06
5.3805e-06
2.66585e-07
3.31739e-07
2.7238e-07
3.27378e-07
-8.2711e-07
1.25158e-07
-1.25171e-07
2.18252e-07
5.59278e-06
1.28222e-06
-1.27677e-06
-5.44426e-06
1.54078e-07
2.2355e-08
1.49559e-07
2.4419e-08
-1.05052e-06
5.22711e-06
2.64317e-07
3.17493e-07
2.58429e-07
3.21821e-07
-5.6022e-06
1.28017e-06
1.54432e-07
2.51645e-08
2.38301e-08
1.58911e-07
-1.46824e-06
-1.00071e-07
1.44431e-06
5.67146e-08
9.89058e-08
4.97827e-08
-1.53942e-06
-8.72595e-08
4.87402e-08
1.56994e-06
-1.14409e-06
9.69871e-08
1.12595e-06
3.86947e-08
-1.19793e-06
-9.7198e-08
1.17888e-06
4.24268e-08
1.04896e-06
-5.26761e-06
4.92217e-06
2.48033e-07
2.97605e-07
2.42104e-07
3.01959e-07
-7.4636e-07
-1.24486e-07
1.24594e-07
1.98667e-07
5.43022e-06
-1.2778e-06
-5.28628e-06
1.44701e-07
2.31012e-08
1.49202e-07
2.16206e-08
5.07475e-06
2.5035e-07
3.11901e-07
2.56169e-07
3.07556e-07
-5.12888e-06
1.4427e-07
2.00617e-08
2.21482e-08
1.3971e-07
4.9986e-06
4.77348e-07
1.21907e-06
-2.61846e-07
2.62192e-07
-3.41546e-08
-1.09657e-06
-1.31414e-06
-5.15044e-06
1.31332e-06
1.00982e-07
5.06755e-08
4.83765e-08
1.02929e-07
-1.18495e-06
-4.93683e-07
5.56382e-07
1.18333e-06
1.26088e-06
1.25131e-06
1.23613e-06
1.27601e-06
9.95814e-08
4.64763e-08
4.83555e-08
9.73827e-08
5.38742e-07
1.23832e-06
1.19939e-06
1.21454e-06
1.22348e-06
1.2163e-06
-1.15968e-06
1.67994e-07
1.14158e-06
-1.50097e-07
8.80386e-08
8.77593e-08
-1.21368e-06
1.79154e-07
-8.8206e-08
1.19458e-06
-1.59345e-07
-5.32234e-06
1.03594e-06
4.96362e-06
-1.62332e-08
4.92926e-08
-1.73836e-08
4.90644e-08
-7.46931e-07
-1.23931e-07
1.24044e-07
5.76961e-07
-1.27087e-06
5.48631e-06
-5.29417e-06
1.27061e-06
-1.41119e-07
-3.08739e-07
-3.04779e-07
-1.41497e-07
-5.13662e-06
-1.36739e-07
-2.9539e-07
-2.98909e-07
-1.36337e-07
1.03814e-06
5.11688e-06
-1.85476e-08
4.98716e-08
-1.74082e-08
5.00937e-08
-6.49353e-07
4.95298e-06
1.22698e-06
-2.61689e-07
2.62034e-07
-1.20964e-06
3.23643e-07
-1.18763e-06
6.70467e-07
1.18626e-06
1.23911e-06
1.22755e-06
1.2126e-06
1.25386e-06
-1.3172e-06
-5.10333e-06
1.3169e-06
-2.04834e-07
-2.92769e-07
-2.89464e-07
-2.07824e-07
1.2169e-06
1.17676e-06
1.19143e-06
1.20235e-06
-2.01326e-07
-2.80168e-07
-2.8399e-07
-1.98309e-07
1.22473e-06
6.13889e-06
5.98211e-07
1.20631e-06
-1.21186e-06
-2.33875e-07
2.35825e-07
1.15991e-08
-1.32766e-06
-1.25648e-06
-6.24346e-06
1.15692e-06
1.09094e-07
4.12873e-08
1.22908e-08
1.2164e-07
-1.20853e-06
-6.33345e-07
8.06164e-07
1.23131e-06
1.50578e-06
1.47773e-06
1.46803e-06
1.52767e-06
-1.28064e-06
1.08052e-07
2.69523e-08
1.24696e-08
1.09941e-07
7.39499e-07
-1.19736e-06
1.50088e-06
1.46725e-06
1.46376e-06
1.49684e-06
1.16873e-06
5.45588e-06
-1.22328e-06
5.23835e-07
1.21914e-06
2.63407e-07
-2.634e-07
-3.95295e-08
-1.21489e-06
1.31873e-06
-5.30443e-06
1.06306e-07
5.03841e-08
5.21509e-08
1.04165e-07
-5.08585e-07
1.18922e-06
5.73452e-07
1.31378e-06
1.27321e-06
1.29887e-06
1.28854e-06
1.31593e-06
1.07571e-07
5.43817e-08
5.20822e-08
1.09449e-07
5.90399e-07
1.18625e-06
1.33629e-06
1.3253e-06
1.31011e-06
1.35154e-06
-6.85286e-06
1.02435e-06
-1.04073e-06
6.42254e-06
-7.864e-09
6.35113e-08
-1.9982e-08
7.29257e-08
-9.37255e-07
-1.2364e-07
1.26919e-07
7.21294e-07
-1.18947e-06
7.15858e-06
-6.60326e-06
7.8846e-07
-1.31905e-07
-2.74241e-07
-3.36176e-07
-8.13737e-08
-6.52606e-06
-1.25139e-06
-1.52107e-07
-3.65866e-07
-3.61078e-07
-1.6513e-07
9.46555e-07
6.63781e-06
1.68474e-08
1.03363e-07
6.09318e-08
9.17102e-08
-1.2859e-06
8.81171e-08
1.92534e-07
-1.71551e-07
-8.85203e-08
1.26559e-06
-1.23168e-06
1.81508e-07
8.8377e-08
1.21227e-06
-1.62286e-07
-1.03942e-06
-5.81452e-06
1.0407e-06
5.4238e-06
-2.08182e-08
5.16396e-08
-1.96422e-08
5.17781e-08
-8.28014e-07
1.24726e-07
-1.24628e-07
6.41586e-07
5.65022e-06
1.27536e-06
-5.45191e-06
-1.46225e-07
-3.14808e-07
-1.45911e-07
-3.1823e-07
5.26987e-06
-1.851e-08
5.09064e-08
-1.97335e-08
5.07059e-08
-5.6103e-06
1.27412e-06
-1.50561e-07
-3.28016e-07
-3.24079e-07
-1.50875e-07
-1.48541e-06
-8.90381e-08
2.32457e-07
-2.05396e-07
1.46096e-06
8.69617e-08
5.32877e-08
-1.55505e-06
2.45975e-07
-7.47605e-08
-2.55715e-07
1.58651e-06
-8.37747e-07
6.21017e-06
1.20874e-06
-1.21814e-06
-2.24773e-07
2.13246e-07
-1.53769e-06
3.78359e-07
-1.2144e-06
8.23102e-07
1.24159e-06
1.5506e-06
1.54078e-06
1.51273e-06
1.57692e-06
-1.22996e-06
-6.35697e-06
1.13582e-06
-2.33572e-07
-2.33256e-07
-2.84225e-07
-2.10338e-07
-1.19909e-06
1.52909e-06
1.46656e-06
1.48299e-06
1.50388e-06
-1.27772e-06
-2.47312e-07
-3.34655e-07
-3.21775e-07
-2.49393e-07
1.17114e-06
-1.23172e-06
-7.11991e-07
5.40534e-06
1.22778e-06
2.63385e-07
-2.63254e-07
-1.34106e-06
3.60164e-07
6.9182e-07
1.19201e-06
1.29094e-06
1.2491e-06
1.2763e-06
1.26393e-06
-5.25555e-06
1.32192e-06
-2.1438e-07
-2.98461e-07
-2.11446e-07
-3.02205e-07
1.18922e-06
1.31306e-06
1.30011e-06
1.28512e-06
1.32786e-06
1.31941e-06
-2.17787e-07
-3.10851e-07
-3.07635e-07
-2.20674e-07
-8.86114e-07
-6.41069e-06
9.50004e-07
6.26924e-06
6.47915e-06
8.58216e-07
-6.64398e-06
3.01592e-07
7.67785e-08
4.01362e-07
1.29708e-07
2.97601e-07
2.16192e-06
-1.99735e-06
-5.49251e-07
3.76372e-07
-7.80156e-07
6.38277e-06
-6.35535e-06
6.02148e-07
-1.6883e-07
-1.87344e-07
-2.19039e-07
-1.66765e-07
6.11882e-06
3.08628e-07
3.58343e-07
3.70559e-07
2.88856e-07
-6.45855e-06
8.06122e-07
6.56901e-06
-2.17608e-07
-3.1348e-07
-2.64286e-07
-2.64799e-07
6.21665e-06
3.99223e-07
-6.26773e-06
-9.94539e-08
-8.37765e-08
-1.06981e-07
-8.30586e-08
1.29175e-07
-1.81193e-06
1.84463e-06
-1.86804e-07
1.4318e-07
-2.78455e-07
-7.05843e-06
5.19967e-07
-1.33525e-07
-8.07016e-08
-9.51616e-08
-1.25334e-07
-1.41165e-06
7.2588e-08
4.64003e-08
1.40464e-06
-1.15491e-07
-8.37496e-08
-8.30405e-08
5.48643e-07
-7.14248e-06
-1.32781e-07
-1.43403e-07
-1.2502e-07
-1.39777e-07
-1.08732e-06
6.34133e-06
6.36695e-07
-6.36157e-06
1.02102e-06
1.37214e-07
8.52459e-08
1.31791e-07
1.22759e-07
-6.37217e-07
1.12106e-06
7.31673e-07
1.58935e-06
1.55873e-06
1.56722e-06
1.57756e-06
-5.92166e-07
-6.32545e-06
5.89373e-07
-2.71101e-07
-2.19869e-07
-2.38813e-07
-2.6562e-07
6.63709e-07
-9.20297e-07
-4.95705e-07
-6.33115e-06
6.26402e-06
2.08882e-06
-1.72574e-06
-1.15403e-07
3.37986e-07
6.41345e-06
8.61107e-07
-6.55578e-06
-1.01678e-07
-2.06876e-07
-6.11654e-08
-1.61791e-07
6.19113e-06
5.64585e-07
-6.30532e-06
-1.78835e-07
-1.86964e-07
-1.73758e-07
-2.15638e-07
6.13891e-06
-6.66918e-08
4.55222e-09
-2.34781e-09
-7.79079e-08
6.53129e-06
-2.24433e-07
-3.02363e-07
-2.59013e-07
-2.67634e-07
-6.38922e-06
6.27454e-06
-6.53426e-07
-6.32179e-06
6.47642e-07
-7.89598e-08
-7.65299e-08
-9.05819e-08
-7.47891e-08
-1.81859e-06