/*--------------------------------*- C++ -*----------------------------------*\
| =========                 |                                                 |
| \\      /  F ield         | OpenFOAM: The Open Source CFD Toolbox           |
|  \\    /   O peration     | Version:  2012                                  |
|   \\  /    A nd           | Website:  www.openfoam.com                      |
|    \\/     M anipulation  |                                                 |
\*---------------------------------------------------------------------------*/
FoamFile
{
    version     2.0;
    format      ascii;
    class       surfaceScalarField;
    location    "0.104/fluid";
    object      phi;
}
// * * * * * * * * * * * * * * * * * * * * * * * * * * * * * * * * * * * * * //

dimensions      [0 3 -1 0 0 0 0];
oriented        oriented;


internalField   nonuniform List<scalar> 
46886
(
1.76458e-05
1.28767e-05
0.00166711
-1.77628e-05
-3.1578e-05
1.8898e-05
1.59401e-05
1.70601e-05
3.36085e-05
-0.00162819
2.06297e-05
-2.14565e-05
0.00162545
-3.28673e-05
1.72461e-05
1.76374e-05
-0.00161046
-1.71014e-05
0.00160585
-1.67005e-05
1.32676e-05
1.58573e-05
-0.00159413
0.00159079
-1.54749e-05
-1.33298e-05
1.00366e-05
1.49289e-05
-0.00158225
0.00157976
-1.4787e-05
-1.01734e-05
7.66338e-06
1.38897e-05
-0.00157307
0.00157105
-1.37139e-05
-7.80973e-06
5.93065e-06
1.28667e-05
-0.00156555
0.00156387
-1.26492e-05
-6.06638e-06
4.59916e-06
1.19648e-05
-0.00155925
0.00155782
-1.1712e-05
-4.71816e-06
3.53945e-06
1.0588e-05
-0.00155365
0.0015523
-1.0331e-05
-3.63633e-06
2.65259e-06
9.01585e-06
-0.00154835
0.00154706
-8.7893e-06
-2.73077e-06
1.90294e-06
7.35627e-06
-0.00154333
0.00154214
-7.16194e-06
-1.96091e-06
1.29468e-06
5.61616e-06
-0.00153888
0.00153791
-5.46542e-06
-1.33877e-06
8.33777e-07
4.0616e-06
-0.00153537
0.00153466
-3.93872e-06
-8.64629e-07
4.90604e-07
2.65849e-06
-0.00153288
0.00153241
-2.57413e-06
-5.07042e-07
2.3079e-07
1.21892e-06
-0.00153133
0.00153107
-1.17852e-06
-2.37381e-07
1.06578e-05
2.59959e-06
0.0016348
-2.65222e-06
-9.19599e-06
1.04762e-05
1.76449e-05
-0.00162603
-1.03606e-05
0.00162248
-1.57521e-05
1.21023e-05
1.55663e-05
-0.00161134
0.00160778
-1.40121e-05
-1.20936e-05
1.08725e-05
1.41421e-05
-0.00159817
0.00159527
-1.30135e-05
-1.09673e-05
9.10045e-06
1.34117e-05
-0.00158742
0.00158503
-1.25174e-05
-9.22619e-06
7.45555e-06
1.2401e-05
-0.00157827
0.00157614
-1.16023e-05
-7.58903e-06
5.99419e-06
1.11919e-05
-0.00157002
0.0015681
-1.04003e-05
-6.13377e-06
4.74153e-06
1.00411e-05
-0.00156272
0.00156105
-9.22294e-06
-4.87724e-06
3.68936e-06
8.77607e-06
-0.00155628
0.00155477
-8.02837e-06
-3.80923e-06
2.79372e-06
7.47585e-06
-0.00155038
0.00154898
-6.83933e-06
-2.88967e-06
2.03238e-06
6.04844e-06
-0.00154491
0.00154364
-5.51686e-06
-2.10524e-06
1.41154e-06
4.58428e-06
-0.00154007
0.00153898
-4.15431e-06
-1.45851e-06
9.19869e-07
3.24265e-06
-0.00153612
0.00153532
-2.91352e-06
-9.52122e-07
5.48262e-07
2.0815e-06
-0.00153328
0.00153271
-1.84065e-06
-5.63074e-07
2.52365e-07
9.18439e-07
-0.00153142
0.00153112
-8.02435e-07
-2.62205e-07
2.87514e-06
5.97425e-06
0.00162315
-5.0528e-06
-2.93565e-06
7.14388e-06
9.25195e-06
-0.00161867
0.00161655
-7.37236e-06
-7.17899e-06
9.06303e-06
9.58123e-06
-0.00160925
0.00160666
-7.5438e-06
-9.13628e-06
9.07544e-06
9.00467e-06
-0.00159898
0.00159651
-7.13017e-06
-9.18668e-06
8.2285e-06
8.53355e-06
-0.00158937
0.00158706
-6.74494e-06
-8.35848e-06
7.08757e-06
7.87243e-06
-0.00158037
0.00157822
-6.20163e-06
-7.22531e-06
5.88219e-06
6.94612e-06
-0.00157202
0.00157006
-5.44389e-06
-6.02631e-06
4.75189e-06
6.00628e-06
-0.00156445
0.00156267
-4.68139e-06
-4.89151e-06
3.72551e-06
5.16975e-06
-0.00155756
0.00155594
-4.01142e-06
-3.85312e-06
2.83576e-06
4.37773e-06
-0.0015513
0.00154983
-3.38058e-06
-2.94055e-06
2.07731e-06
3.47899e-06
-0.00154564
0.00154432
-2.66949e-06
-2.15864e-06
1.46551e-06
2.53834e-06
-0.00154064
0.00153953
-1.93236e-06
-1.52043e-06
9.80987e-07
1.70448e-06
-0.0015366
0.00153579
-1.27231e-06
-1.01334e-06
6.07344e-07
9.86705e-07
-0.00153376
0.0015332
-7.08796e-07
-6.31364e-07
2.85948e-07
4.37116e-07
-0.00153176
0.00153139
-3.28178e-07
-2.99431e-07
8.34761e-06
1.14504e-05
0.0016515
-1.01981e-05
-5.868e-06
-0.00163879
1.64004e-05
1.53905e-05
0.0016339
-1.40514e-05
-1.51216e-05
1.56217e-05
1.47007e-05
-0.00161778
0.00161272
-1.41242e-05
-1.45596e-05
1.25857e-05
1.41956e-05
-0.00159924
0.00159529
-1.39161e-05
-1.20346e-05
9.85229e-06
1.37777e-05
-0.00158493
0.00158191
-1.36494e-05
-9.51862e-06
7.6931e-06
1.32428e-05
-0.0015739
0.00157154
-1.31091e-05
-7.46478e-06
6.02841e-06
1.25695e-05
-0.00156526
0.00156339
-1.24126e-05
-5.86829e-06
4.73054e-06
1.1647e-05
-0.00155823
0.00155665
-1.14477e-05
-4.61947e-06
3.67012e-06
1.03065e-05
-0.00155213
0.00155069
-1.00698e-05
-3.59183e-06
2.77101e-06
8.7992e-06
-0.0015465
0.00154516
-8.57777e-06
-2.71341e-06
1.99854e-06
7.20844e-06
-0.00154135
0.00154017
-7.01451e-06
-1.95762e-06
1.3686e-06
5.494e-06
-0.00153695
0.00153603
-5.33349e-06
-1.3402e-06
8.87174e-07
4.02511e-06
-0.0015337
0.00153307
-3.874e-06
-8.70609e-07
5.19337e-07
2.65545e-06
-0.00153164
0.0015313
-2.55024e-06
-5.11862e-07
2.42366e-07
1.16872e-06
-0.00153062
0.00153051
-1.1127e-06
-2.37659e-07
8.69883e-06
2.61441e-06
0.00163723
-2.73724e-06
-8.09058e-06
9.42243e-06
1.27891e-05
-0.00163
-8.91084e-06
0.00162677
-1.16199e-05
1.12962e-05
1.30654e-05
-0.00161606
0.00161239
-1.20244e-05
-1.07693e-05
1.05002e-05
1.26986e-05
-0.00160182
0.0015985
-1.18711e-05
-1.01203e-05
8.98522e-06
1.24302e-05
-0.00158929
0.00158644
-1.16468e-05
-8.70402e-06
7.46005e-06
1.18327e-05
-0.00157856
0.00157613
-1.1054e-05
-7.25036e-06
6.10347e-06
1.09978e-05
-0.00156939
0.0015673
-1.01971e-05
-5.94783e-06
4.91283e-06
9.94564e-06
-0.00156145
0.00155963
-9.14893e-06
-4.80205e-06
3.8735e-06
8.67793e-06
-0.00155449
0.00155289
-7.97772e-06
-3.79295e-06
2.96018e-06
7.36248e-06
-0.00154829
0.00154683
-6.76853e-06
-2.90535e-06
2.16286e-06
5.93753e-06
-0.00154262
0.00154132
-5.44502e-06
-2.12374e-06
1.4932e-06
4.48521e-06
-0.00153776
0.00153671
-4.07969e-06
-1.46673e-06
9.66855e-07
3.12957e-06
-0.00153403
0.00153332
-2.80797e-06
-9.52541e-07
5.79498e-07
1.96609e-06
-0.0015317
0.00153133
-1.71564e-06
-5.68555e-07
2.67249e-07
8.16936e-07
-0.0015306
0.00153049
-7.00141e-07
-2.59939e-07
3.03861e-06
6.01609e-06
0.00162715
-4.98245e-06
-3.05649e-06
6.87529e-06
8.0082e-06
-0.00162248
0.00162033
-6.40172e-06
-6.65426e-06
8.7634e-06
8.51489e-06
-0.00161285
0.00161014
-6.75545e-06
-8.46511e-06
8.90643e-06
8.33802e-06
-0.00160181
0.00159902
-6.62566e-06
-8.62307e-06
8.17708e-06
8.02226e-06
-0.00159085
0.0015882
-6.34264e-06
-7.9335e-06
7.12742e-06
7.50429e-06
-0.00158059
0.00157818
-5.89043e-06
-6.92939e-06
6.01037e-06
6.77653e-06
-0.00157133
0.00156918
-5.29467e-06
-5.85537e-06
4.93115e-06
5.97316e-06
-0.00156307
0.00156114
-4.64614e-06
-4.81792e-06
3.92617e-06
5.13915e-06
-0.00155561
0.00155388
-3.97741e-06
-3.84406e-06
3.02664e-06
4.3972e-06
-0.00154899
0.00154748
-3.40327e-06
-2.97302e-06
2.23777e-06
3.53458e-06
-0.00154324
0.00154192
-2.73969e-06
-2.20348e-06
1.56681e-06
2.59334e-06
-0.00153826
0.00153717
-2.00822e-06
-1.53866e-06
1.03283e-06
1.69693e-06
-0.00153443
0.00153372
-1.2957e-06
-1.01276e-06
6.43597e-07
9.37849e-07
-0.00153218
0.00153181
-6.97332e-07
-6.26542e-07
3.04628e-07
3.45044e-07
-0.00153094
0.00153075
-2.43601e-07
-2.95227e-07
3.73186e-06
8.05049e-06
0.0016335
-8.01628e-06
-3.47121e-06
1.01817e-05
1.12783e-05
-0.00162686
-1.10011e-05
0.00162373
-8.86512e-06
1.11535e-05
1.26584e-05
-0.00161296
0.00160918
-1.24002e-05
-9.93259e-06
9.78327e-06
1.307e-05
-0.00159813
0.00159461
-1.28932e-05
-8.85662e-06
7.93136e-06
1.3016e-05
-0.00158487
0.00158191
-1.28946e-05
-7.22335e-06
6.28777e-06
1.27944e-05
-0.00157389
0.00157149
-1.26599e-05
-5.73289e-06
4.9738e-06
1.23763e-05
-0.00156499
0.00156303
-1.21957e-05
-4.54049e-06
3.94375e-06
1.16468e-05
-0.00155757
0.00155589
-1.14138e-05
-3.60794e-06
3.08142e-06
1.04306e-05
-0.00155114
0.00154963
-1.01878e-05
-2.81511e-06
2.32994e-06
8.97013e-06
-0.00154528
0.00154389
-8.73987e-06
-2.13278e-06
1.68803e-06
7.34242e-06
-0.00153993
0.00153872
-7.13551e-06
-1.54765e-06
1.15893e-06
5.59427e-06
-0.00153548
0.00153457
-5.39877e-06
-1.06333e-06
7.52462e-07
3.98564e-06
-0.00153245
0.00153193
-3.80215e-06
-6.93707e-07
4.4724e-07
2.5546e-06
-0.00153086
0.00153064
-2.42137e-06
-4.12584e-07
2.05892e-07
1.07277e-06
-0.00153032
0.00153032
-1.01654e-06
-1.89791e-07
2.9733e-06
8.02579e-06
0.00162935
-7.70263e-06
-2.92022e-06
7.19849e-06
1.03477e-05
-0.00162422
0.00162181
-9.70313e-06
-6.52746e-06
8.75383e-06
1.14189e-05
-0.00161342
0.00161037
-1.07177e-05
-7.9421e-06
8.40141e-06
1.17508e-05
-0.00160099
0.00159788
-1.10542e-05
-7.66024e-06
7.32973e-06
1.17274e-05
-0.00158888
0.00158603
-1.09943e-05
-6.69974e-06
6.13857e-06
1.13629e-05
-0.00157803
0.00157555
-1.05947e-05
-5.61379e-06
5.05183e-06
1.07711e-05
-0.00156861
0.00156646
-9.96646e-06
-4.61506e-06
4.10439e-06
9.90659e-06
-0.00156042
0.00155854
-9.12197e-06
-3.75446e-06
3.25432e-06
8.79677e-06
-0.0015532
0.00155153
-8.09641e-06
-2.97885e-06
2.50191e-06
7.50732e-06
-0.00154677
0.00154528
-6.91955e-06
-2.29238e-06
1.84631e-06
6.05981e-06
-0.00154099
0.00153963
-5.58075e-06
-1.69448e-06
1.26884e-06
4.48914e-06
-0.00153588
0.00153481
-4.09551e-06
-1.17538e-06
8.27972e-07
2.99741e-06
-0.00153233
0.00153173
-2.67546e-06
-7.62146e-07
4.89253e-07
1.78625e-06
-0.00153058
0.00153038
-1.53285e-06
-4.49088e-07
2.20999e-07
7.21526e-07
-0.00153013
0.00153018
-5.98616e-07
-2.04861e-07
2.96195e-06
5.91051e-06
0.00162463
-4.84151e-06
-2.84436e-06
5.66914e-06
7.08331e-06
-0.00162038
0.00161848
-5.68281e-06
-5.22564e-06
7.09923e-06
7.66338e-06
-0.00161172
0.00160921
-6.11901e-06
-6.49969e-06
7.25841e-06
7.73819e-06
-0.00160124
0.00159852
-6.15523e-06
-6.64449e-06
6.71221e-06
7.55564e-06
-0.00159034
0.00158766
-5.9654e-06
-6.14406e-06
5.87439e-06
7.1503e-06
-0.00157989
0.00157742
-5.60927e-06
-5.37306e-06
4.97379e-06
6.58043e-06
-0.0015704
0.00156819
-5.13953e-06
-4.54383e-06
4.10267e-06
5.93853e-06
-0.00156189
0.00155989
-4.6137e-06
-3.7494e-06
3.28779e-06
5.22795e-06
-0.00155415
0.00155234
-4.04497e-06
-3.00308e-06
2.55945e-06
4.50838e-06
-0.00154731
0.0015458
-3.4961e-06
-2.34421e-06
1.93199e-06
3.72196e-06
-0.0015416
0.00154026
-2.92467e-06
-1.7824e-06
1.35326e-06
2.66241e-06
-0.00153647
0.00153536
-2.07923e-06
-1.2459e-06
8.8316e-07
1.61086e-06
-0.00153275
0.00153211
-1.22662e-06
-8.14537e-07
5.28197e-07
8.05917e-07
-0.00153076
0.0015305
-5.99507e-07
-4.83715e-07
2.47097e-07
2.53782e-07
-0.0015301
0.00153014
-1.65457e-07
-2.25648e-07
2.5448e-06
8.15304e-06
0.00161919
-8.13351e-06
-2.0678e-06
5.2985e-06
1.04184e-05
-0.00161522
0.00161326
-1.0336e-05
-4.09862e-06
6.13351e-06
1.19112e-05
-0.00160611
0.00160343
-1.17833e-05
-4.76059e-06
5.61146e-06
1.26426e-05
-0.00159499
0.00159213
-1.24896e-05
-4.36576e-06
4.6179e-06
1.27788e-05
-0.00158369
0.00158099
-1.26249e-05
-3.58802e-06
3.66209e-06
1.26154e-05
-0.00157338
0.00157104
-1.24407e-05
-2.84213e-06
2.90284e-06
1.23036e-05
-0.00156458
0.00156261
-1.20753e-05
-2.24582e-06
2.29064e-06
1.16818e-05
-0.00155709
0.0015554
-1.14087e-05
-1.76935e-06
1.78783e-06
1.05639e-05
-0.00155058
0.00154906
-1.02859e-05
-1.37873e-06
1.35447e-06
9.08176e-06
-0.00154467
0.00154326
-8.81861e-06
-1.04636e-06
9.77983e-07
7.4106e-06
-0.00153916
0.00153789
-7.16641e-06
-7.49701e-07
6.77117e-07
5.69195e-06
-0.00153451
0.00153361
-5.4508e-06
-5.17917e-07
4.49283e-07
4.00486e-06
-0.00153167
0.00153128
-3.79784e-06
-3.49083e-07
2.65996e-07
2.5231e-06
-0.00153058
0.00153046
-2.38468e-06
-2.02994e-07
1.23055e-07
1.03585e-06
-0.00153035
0.00153039
-9.82463e-07
-9.66646e-08
2.28162e-06
7.89995e-06
0.00162114
-7.60442e-06
-1.87041e-06
4.25591e-06
9.64371e-06
-0.00161731
0.00161553
-9.13264e-06
-3.34534e-06
5.08615e-06
1.07751e-05
-0.00160901
0.00160654
-1.0156e-05
-3.9751e-06
4.935e-06
1.13104e-05
-0.00159858
0.00159584
-1.06139e-05
-3.84781e-06
4.32776e-06
1.13618e-05
-0.0015876
0.00158492
-1.06146e-05
-3.37547e-06
3.6217e-06
1.10551e-05
-0.00157719
0.00157476
-1.02721e-05
-2.82057e-06
2.95038e-06
1.0548e-05
-0.00156788
0.00156574
-9.73502e-06
-2.2832e-06
2.39063e-06
9.83665e-06
-0.00155971
0.00155783
-9.04455e-06
-1.84496e-06
1.8868e-06
8.78432e-06
-0.00155249
0.00155082
-8.06183e-06
-1.45063e-06
1.45748e-06
7.46641e-06
-0.001546
0.00154448
-6.83302e-06
-1.11897e-06
1.07398e-06
6.007e-06
-0.00154003
0.00153858
-5.49818e-06
-8.11612e-07
7.49904e-07
4.42082e-06
-0.00153466
0.00153363
-4.01684e-06
-5.626e-07
4.95139e-07
2.93598e-06
-0.00153137
0.0015309
-2.59795e-06
-3.79436e-07
2.91075e-07
1.74588e-06
-0.00153017
0.0015301
-1.48925e-06
-2.26385e-07
1.34405e-07
6.98827e-07
-0.00153017
0.00153026
-5.75182e-07
-1.03769e-07
2.11927e-06
5.73054e-06
0.00162052
-4.64467e-06
-1.7178e-06
3.49461e-06
6.57379e-06
-0.00161669
0.00161503
-5.26328e-06
-2.75765e-06
4.23103e-06
7.1544e-06
-0.00160905
0.00160679
-5.70466e-06
-3.31002e-06
4.31184e-06
7.35156e-06
-0.00159946
0.00159691
-5.82503e-06
-3.36657e-06
3.9758e-06
7.21603e-06
-0.00158911
0.00158653
-5.68219e-06
-3.09504e-06
3.45349e-06
6.86583e-06
-0.00157894
0.00157652
-5.37288e-06
-2.68397e-06
2.90034e-06
6.37812e-06
-0.00156956
0.00156737
-4.97404e-06
-2.2438e-06
2.38282e-06
5.85752e-06
-0.00156108
0.00155908
-4.54226e-06
-1.8352e-06
1.89354e-06
5.17381e-06
-0.00155333
0.00155151
-3.99633e-06
-1.45579e-06
1.46694e-06
4.34593e-06
-0.00154633
0.00154479
-3.36094e-06
-1.11614e-06
1.11618e-06
3.61346e-06
-0.00154064
0.00153929
-2.83459e-06
-8.44745e-07
7.94255e-07
2.61252e-06
-0.00153562
0.00153458
-2.03712e-06
-6.06342e-07
5.28123e-07
1.48907e-06
-0.00153195
0.00153133
-1.11814e-06
-4.06756e-07
3.11385e-07
7.21231e-07
-0.00153018
0.00153002
-5.15176e-07
-2.40932e-07
1.42939e-07
2.23421e-07
-0.0015299
0.00153002
-1.44254e-07
-1.12352e-07
-2.32315e-06
-1.82591e-05
2.32473e-05
0.000436045
-3.33673e-05
0.00159906
-4.55224e-05
4.66552e-05
-0.00159757
2.22227e-05
0.00043588
-2.01471e-06
0.00160913
-4.28509e-05
4.76438e-05
-0.00160968
-4.0395e-05
-1.52842e-05
-1.68868e-05
1.2873e-05
0.00166503
7.91806e-06
7.75995e-06
8.80761e-06
6.53782e-06
0.00163817
-2.0122e-05
-2.5497e-05
3.60607e-05
1.60417e-05
-0.00164653
-2.94049e-05
-3.54567e-05
3.45216e-05
0.00159972
-2.22467e-05
0.00159356
-1.99804e-05
1.81699e-05
-0.00159428
1.96391e-05
0.00165924
-3.43247e-05
-2.12001e-05
0.00162133
-0.00162113
-4.61379e-05
-6.30257e-06
-1.05849e-05
1.40445e-05
0.00164359
-1.58811e-05
0.00161914
-1.81368e-05
2.58547e-05
-0.00162728
7.62665e-06
-2.23209e-06
1.74003e-07
-5.57113e-06
1.88387e-07
5.91325e-06
-2.06306e-07
-5.89549e-06
3.54238e-05
-3.40781e-05
0.00160853
0.00159981
-1.87627e-05
1.73194e-05
-0.00160167
-2.29663e-05
-1.92975e-05
-2.46822e-05
3.27796e-05
1.56781e-05
0.00163079
0.00161362
-1.64928e-05
-2.00399e-05
2.21192e-05
1.53229e-05
-0.00161853
-0.00162955
-2.24982e-05
-4.23901e-05
1.37385e-05
0.00164666
-6.50469e-06
0.00162375
-1.72879e-05
2.40535e-05
-0.00163148
-1.64363e-05
1.23192e-05
0.00165777
-1.31706e-05
-1.5221e-05
0.00164
1.7385e-05
-0.00164577
-1.8295e-05
-6.01965e-06
-8.92285e-06
6.54544e-06
9.76154e-06
0.00164482
-1.39334e-05
0.00163106
-1.36888e-05
1.56163e-05
1.54041e-05
-0.00163601
1.15667e-05
0.00165664
-1.13963e-05
-1.5543e-05
0.00163867
1.55127e-05
-0.00164433
-2.14505e-05
-8.31352e-06
-4.6962e-06
5.79713e-06
7.94845e-06
0.0016394
-1.14589e-05
0.0016299
-1.08072e-05
1.33775e-05
1.11443e-05
-0.0016336
6.04593e-06
1.98337e-07
-6.05604e-06
-4.98175e-07
4.9746e-07
-5.8391e-06
1.18831e-05
0.000413922
-7.97957e-06
-1.93385e-05
-0.000419715
2.57659e-05
6.44745e-06
-1.80809e-07
1.91053e-07
-6.45744e-06
-3.5062e-05
-0.000376436
-0.000394325
0.00157286
-3.72579e-05
3.19313e-05
2.05317e-05
-6.64676e-05
-0.000402273
-4.6529e-07
4.67121e-07
1.28953e-05
-6.44813e-06
-1.48368e-06
1.19208e-06
-1.8976e-06
9.81304e-06
-5.26195e-07
-5.69413e-06
1.16328e-05
8.65144e-06
-2.97591e-06
3.65947e-07
-6.04322e-06
0.000414707
-1.84665e-05
-0.000420112
2.48628e-05
-9.06004e-06
-4.24663e-06
-7.00149e-06
1.39282e-06
1.31591e-05
0.000434779
6.33532e-06
-1.96114e-07
-6.31976e-06
0.000419671
-1.16326e-05
-1.16475e-05
1.59699e-05
1.12484e-05
-0.000423672
-1.43277e-06
8.94424e-07
1.11862e-05
-1.99626e-06
-3.77575e-05
-0.000398031
-0.000378594
-0.000396145
-0.000380638
0.00158512
-4.84614e-05
2.01831e-05
3.14717e-05
2.03661e-05
3.09165e-05
-6.15555e-05
-0.000403774
-0.000416605
-0.000406313
4.94042e-05
-0.00163119
-4.626e-05
0.00162219
-3.76596e-05
-4.93322e-07
1.26934e-05
-6.32843e-06
-3.56137e-05
-0.000401091
-0.0003877
-0.000384556
-0.000406723
0.00160042
-5.20516e-05
1.83204e-05
2.08561e-05
2.75605e-05
1.58131e-05
-5.1356e-05
-0.000413605
-0.000417786
-0.000409583
3.11513e-05
1.47495e-07
-6.54882e-06
-2.52968e-05
-1.68909e-06
-3.51909e-07
1.64332e-05
-1.58086e-06
-6.90089e-07
2.47894e-07
3.13882e-05
-1.27762e-06
3.33719e-05
-3.00262e-05
-4.51561e-06
-1.65998e-06
-7.06343e-06
-7.4105e-06
1.24824e-05
0.000425593
0.00167157
1.44736e-05
1.08207e-05
1.22835e-05
1.53967e-05
-2.50288e-05
3.95032e-05
1.39381e-05
0.00165566
-1.92469e-05
-2.44553e-05
1.67581e-05
-1.61953e-06
0.00165383
7.82963e-06
1.33081e-05
1.4315e-05
5.79731e-06
-3.32907e-05
-0.000417838
-0.000422717
-0.000420431
-0.000416427
1.69312e-05
9.67115e-06
1.71488e-05
0.00165307
1.31816e-05
1.4614e-05
1.73493e-05
9.44676e-06
-3.19408e-05
3.20196e-05
5.06624e-07
-1.27428e-06
1.57133e-05
-0.00163846
0.00163315
-2.31561e-05
3.54951e-05
-0.00164723
0.00163888
-2.75782e-05
3.98408e-05
1.59771e-05
-2.08587e-05
-2.62648e-05
-0.000410013
-0.000405685
-0.000408322
-0.000407
0.00162531
4.58868e-06
1.28932e-05
9.78423e-06
4.13176e-06
-2.88873e-05
8.1471e-06
1.30714e-05
1.2549e-05
7.22209e-06
-3.13206e-05
2.60678e-07
6.02135e-06
-3.05547e-07
-5.97682e-06
6.25359e-06
2.72497e-07
-6.26552e-06
-3.34639e-06
-1.09766e-05
-9.60854e-05
-7.95983e-05
-7.93421e-05
-9.64263e-05
-4.43223e-07
-9.89949e-06
1.36505e-05
4.62827e-07
0.000127474
0.000116381
-1.50272e-06
-1.04495e-05
1.34801e-06
-0.000118677
1.28993e-05
0.000419344
-8.81545e-06
1.19138e-05
1.72831e-05
1.72232e-05
1.19565e-05
-3.71283e-05
-0.0001111
-0.000108523
-0.000108653
-0.00011127
-1.74022e-06
-1.09719e-05
1.56684e-06
1.52685e-05
0.000112259
-2.66348e-05
-9.93185e-06
-9.64031e-05
-7.97561e-05
-7.95174e-05
-9.67372e-05
0.000399978
-9.34733e-06
1.07753e-05
1.52706e-05
1.52398e-05
1.07804e-05
-9.10825e-06
6.97364e-07
-7.66842e-07
-5.72624e-06
1.1815e-05
1.22337e-05
-8.36243e-06
-1.15314e-05
-9.97229e-05
-7.97538e-05
-8.24957e-05
-0.000100451
1.4372e-05
-4.57051e-06
-9.91897e-05
-8.15556e-05
-9.83482e-05
-8.25794e-05
6.89108e-07
-5.97646e-06
1.22361e-05
-1.26097e-05
-3.26301e-06
-9.69786e-05
-7.98496e-05
-9.65797e-05
-8.01718e-05
-3.17938e-06
-9.71171e-05
-8.09187e-05
-9.77737e-05
-8.04478e-05
2.46447e-06
-0.000117256
-9.7365e-06
1.32615e-05
0.000113612
-2.34614e-06
2.21962e-07
6.45827e-06
-2.53473e-07
-6.42645e-06
1.63442e-05
0.000434382
-1.78851e-05
9.44278e-06
9.01409e-06
1.51291e-05
5.70291e-06
-2.30838e-05
-0.00011507
-0.000109486
-0.000111201
-0.000113321
1.22052e-05
0.000428832
1.04527e-05
1.60272e-05
1.01741e-05
1.64394e-05
-3.09352e-05
-0.000113108
-0.000110211
-0.000112347
-0.000111219
-0.000113641
-4.23908e-06
-4.07201e-06
2.54753e-06
8.00571e-06
0.000111405
0.000116979
-2.04988e-06
-9.76325e-06
1.17639e-05
1.93527e-06
-0.000118867
-9.81879e-06
1.34941e-05
0.000127344
-3.89751e-07
0.00011636
-1.03161e-05
-1.67368e-06
-0.000118626
1.27485e-05
1.34653e-07
-9.1913e-06
0.000126909
1.5615e-07
1.24453e-05
-1.03627e-05
1.43273e-05
2.31577e-06
0.000113166
6.66432e-06
2.39062e-07
-6.68111e-06
-1.03995e-05
0.000421024
1.1667e-05
1.71261e-05
1.17699e-05
1.71023e-05
-3.63699e-05
-0.000111482
-0.00010862
-0.000111358
-0.000109273
-1.08426e-05
-2.00219e-06
1.51347e-05
0.000112327
0.000423378
1.13239e-05
1.68587e-05
1.12436e-05
1.6839e-05
-3.53789e-05
-0.000111449
-0.000109683
-0.000111786
-0.000109549
-9.18323e-06
1.06389e-05
-0.00011905
-1.71733e-06
-1.85558e-06
-2.20061e-06
7.81472e-06
-1.48261e-06
0.000122711
-9.07057e-06
0.000127035
1.17109e-05
1.04337e-06
-3.92368e-06
-3.48751e-06
2.02645e-06
6.38724e-06
-0.000114643
2.81763e-05
-0.000408827
-1.27077e-05
1.02299e-05
5.51986e-07
-5.74643e-07
1.2891e-05
-6.4086e-06
1.13194e-05
-2.78388e-05
-1.30653e-05
-0.000100814
-8.13472e-05
-8.33086e-05
-0.00010159
1.40714e-05
0.000417402
-1.56321e-05
1.006e-05
8.65364e-06
1.34189e-05
7.21216e-06
1.19633e-05
-9.95781e-05
-8.15048e-05
-8.25936e-05
-9.84248e-05
1.09607e-05
1.10233e-05
1.44334e-05
1.47649e-05
1.03601e-05
-1.43489e-05
9.7963e-06
2.63023e-05
-0.000403953
5.72288e-07
1.32566e-05
-6.61104e-06
-2.64475e-05
-1.11622e-05
-9.7281e-05
-7.99939e-05
-9.68986e-05
-8.029e-05
0.000401774
-1.03055e-05
1.06715e-05
1.51555e-05
1.07012e-05
1.51174e-05
-9.74204e-05
-8.10114e-05
-8.05782e-05
-9.80577e-05
1.05567e-05
1.49126e-05
1.49326e-05
1.05679e-05
-2.55535e-05
-3.92433e-07
3.89782e-05
-8.22876e-06
-4.79851e-06
-0.000410451
0.000405987
-3.12858e-06
6.09449e-06
3.41749e-06
4.39441e-06
6.36316e-06
-0.000420499
-3.70697e-06
6.82839e-06
9.63531e-06
7.63273e-06
8.19007e-06
-3.88197e-07
-2.28343e-05
6.39032e-07
-2.96896e-06
0.000431614
-2.63365e-06
6.7538e-06
8.28719e-06
7.31685e-06
8.21797e-06
-3.07074e-06
7.12426e-06
9.40001e-06
7.37779e-06
8.83805e-06
-1.23105e-05
-4.6151e-06
-0.000100516
-0.000102437
-0.000100363
-9.96615e-05
0.000406282
-2.4783e-06
3.94433e-06
2.86176e-06
4.07505e-06
3.06499e-06
-3.73329e-06
1.77069e-05
6.81662e-06
0.000413538
-0.000416809
-2.57275e-05
3.92389e-05
-9.14549e-06
-4.75341e-06
-0.000408207
-1.24878e-05
0.000411069
2.37781e-06
5.10013e-07
-7.49391e-07
3.04522e-06
-0.000409971
-3.51797e-06
0.000405918
5.80952e-06
3.29484e-06
6.09872e-06
4.19705e-06
-0.000104378
3.21224e-06
2.44753e-06
2.86932e-06
4.12937e-06
-0.000102737
-0.000104557
-0.000103241
8.78044e-06
5.14569e-06
8.03911e-06
-0.00042027
6.50832e-06
9.35164e-06
7.88072e-06
7.36157e-06
0.000412946
-0.000420677
8.3543e-06
-9.61753e-06
4.52233e-06
4.74672e-06
5.12502e-06
5.31834e-06
-2.30009e-05
-1.85843e-07
-2.92813e-06
-1.9109e-06
5.89604e-06
-4.4507e-06
0.000109304
-1.37031e-05
0.000431286
6.49744e-06
8.25424e-06
7.06e-06
8.14598e-06
-1.09613e-05
3.27373e-06
4.58541e-06
2.96423e-06
4.47609e-06
-2.34724e-06
-5.40844e-06
4.82169e-06
-0.000105359
6.89555e-06
9.16519e-06
8.6546e-06
7.14178e-06
9.36768e-06
4.24645e-06
-0.000411016
-4.84824e-06
-1.26849e-05
-0.000101074
-0.000103748
-0.000101509
-9.99119e-05
0.0004086
-9.14399e-06
3.6682e-06
8.04936e-07
6.19905e-07
3.81536e-06
0.000406807
-4.26035e-06
3.92958e-06
2.92557e-06
3.26182e-06
4.01924e-06
0.000108261
-1.83005e-05
1.35145e-05
-0.000101282
1.90568e-06
1.06917e-06
1.9288e-06
1.07854e-06
6.4021e-06
2.71982e-07
-1.66591e-07
-6.50793e-06
1.40936e-05
-0.000114254
0.000107088
-7.18288e-06
1.56199e-06
3.21539e-06
4.62069e-06
-1.70733e-06
0.000104575
1.15924e-05
3.62838e-06
6.08945e-06
6.23497e-06
3.6262e-06
-1.55968e-05
-0.000106816
1.51492e-08
-3.09312e-06
-2.68695e-06
-7.14452e-07
2.03727e-05
-1.29868e-06
1.17505e-06
-1.86943e-05
3.60624e-06
7.94899e-07
2.04215e-05
-8.95526e-07
-1.86865e-05
3.58844e-06
3.62722e-06
0.000102352
-4.47313e-06
-9.54389e-05
1.59399e-06
8.3273e-07
1.65283e-06
7.91615e-07
6.13201e-06
-2.17028e-07
2.26123e-07
-6.14121e-06
-0.000102216
-3.84299e-06
3.4411e-06
0.000100968
3.20462e-06
5.45026e-06
3.10339e-06
5.54275e-06
3.20602e-06
-9.56207e-05
1.65865e-06
7.896e-07
1.59591e-06
8.56471e-07
0.00010132
-4.55121e-06
3.10527e-06
5.5761e-06
5.43791e-06
3.20339e-06
2.07462e-05
4.0154e-06
-1.90387e-05
3.74159e-06
-4.54738e-06
-4.18182e-06
2.63706e-05
5.35943e-06
3.47249e-06
-2.66575e-05
2.02838e-05
-6.10383e-07
-1.85697e-05
3.58886e-06
2.06816e-05
7.60198e-07
-1.89916e-05
3.66437e-06
-2.92297e-06
0.000101615
-9.4992e-05
1.65585e-06
8.08677e-07
1.60476e-06
8.65662e-07
5.87035e-06
1.70364e-07
-1.84049e-07
-5.85687e-06
-0.000102196
3.18493e-06
0.000100959
3.12188e-06
5.55997e-06
3.20101e-06
5.44382e-06
-9.55846e-05
1.61083e-06
8.46778e-07
1.65671e-06
8.1899e-07
0.000100449
3.19637e-06
5.44734e-06
5.51729e-06
3.11472e-06
-9.52806e-05
8.44373e-06
-2.80095e-06
4.423e-07
-4.62598e-07
-5.68703e-06
1.15751e-05
3.07258e-06
9.56997e-05
-3.2766e-06
3.47132e-06
5.87331e-06
5.78399e-06
3.5285e-06
2.56609e-06
-8.41563e-06
-1.3865e-06
-2.71205e-06
-1.97874e-05
-1.50381e-05
-1.47843e-05
-2.00628e-05
3.51058e-06
5.78684e-06
5.85127e-06
3.48822e-06
-1.37627e-06
-1.98917e-05
-1.479e-05
-1.49041e-05
-1.97972e-05
-2.94441e-06
2.0241e-05
-5.18815e-06
-1.85332e-05
3.54114e-06
-5.7868e-07
-7.52873e-07
2.06315e-05
-5.26477e-06
7.20904e-07
-1.89478e-05
3.61278e-06
0.000102382
-2.7678e-06
-9.55107e-05
1.7407e-06
9.22586e-07
1.69103e-06
9.82473e-07
6.28313e-06
1.67866e-07
-1.79903e-07
-6.27088e-06
2.98893e-06
-0.000102979
0.000102043
-3.1929e-06
3.36509e-06
5.86726e-06
5.75889e-06
3.43781e-06
0.000101524
3.42316e-06
5.75879e-06
5.81803e-06
3.35185e-06
-3.00515e-06
-9.61437e-05
1.70233e-06
9.69922e-07
1.74451e-06
9.40717e-07
1.068e-05
-9.6118e-05
-2.59253e-06
4.24709e-07
-4.47413e-07
1.26132e-05
-6.30582e-06
2.359e-06
-1.06808e-05
-2.47125e-06
-1.99165e-05
-1.52531e-05
-1.50199e-05
-2.01712e-05
2.86641e-06
9.6538e-05
-3.01701e-06
4.1026e-06
6.38302e-06
6.30221e-06
4.14724e-06
-2.00057e-05
-1.50338e-05
-1.5119e-05
-1.99296e-05
4.12504e-06
6.2974e-06
6.35181e-06
4.10346e-06
-2.69626e-06
-9.90815e-05
8.86725e-06
-9.91641e-06
8.05859e-06
7.24696e-07
-5.91139e-07
-6.15513e-06
1.24211e-05
1.33323e-05
0.000101525
-1.12045e-05
2.37645e-06
2.94501e-06
4.3919e-06
1.14126e-06
-4.08635e-07
-4.78867e-06
-2.95195e-06
-2.11167e-06
-1.94524e-05
-1.56569e-05
-1.42712e-05
-2.01902e-05
1.02767e-05
3.68221e-06
6.24226e-06
6.20676e-06
3.82939e-06
-3.72738e-06
2.33256e-06
-2.07535e-05
-1.55507e-05
-1.57052e-05
-2.07115e-05
-8.71414e-06
-9.61738e-05
3.2426e-06
8.38202e-06
-3.58202e-06
-5.80931e-07
5.74041e-07
-5.89643e-06
1.20333e-05
-3.62195e-06
9.5754e-05
3.50415e-06
5.77909e-06
5.86451e-06
3.47125e-06
-8.37617e-06
-2.95434e-06
-1.39e-06
-2.00422e-05
-1.48816e-05
-1.99002e-05
-1.50446e-05
-4.1368e-06
3.45775e-06
5.88504e-06
5.77784e-06
3.525e-06
-1.38187e-06
-3.15376e-06
-1.99102e-05
-1.5198e-05
-1.48966e-05
-2.02302e-05
0.000109621
-1.76666e-05
1.27476e-05
-0.000101935
2.06569e-06
1.24961e-06
2.07752e-06
1.28575e-06
6.95803e-06
1.84985e-07
-8.17241e-08
-7.0609e-06
1.40428e-05
-0.000115066
0.000108418
-6.95463e-06
2.05176e-06
2.85392e-06
4.64879e-06
-9.75738e-07
0.000107058
1.06882e-05
4.00391e-06
6.44457e-06
6.61645e-06
3.96879e-06
-1.49726e-05
-0.000107132
3.78286e-07
-2.69135e-06
-2.28546e-06
-3.16825e-07
2.03466e-05
-1.2405e-06
-5.11035e-06
3.56251e-06
1.12205e-06
-1.86806e-05
2.03909e-05
-5.16804e-06
-8.51733e-07
-1.86655e-05
3.54101e-06
3.38757e-06
0.000103157
-4.1659e-06
-9.60373e-05
1.68951e-06
9.67347e-07
1.74456e-06
9.24521e-07
6.5383e-06
-2.00104e-07
2.10374e-07
-6.54829e-06
-0.000103016
-3.54092e-06
0.000102077
3.44117e-06
5.76795e-06
3.35196e-06
5.84908e-06
-9.61936e-05
1.74683e-06
9.13233e-07
1.68525e-06
9.84213e-07
0.000102427
-4.16288e-06
3.36022e-06
5.889e-06
5.7601e-06
3.45035e-06
2.06887e-05
3.94609e-06
-4.89563e-06
3.74317e-06
-1.90359e-05
-4.44698e-06
-4.00692e-06
2.63694e-05
-4.49896e-06
5.21822e-06
3.68344e-06
-2.67655e-05
1.32967e-05
-0.000101251
-9.90267e-06
7.06055e-06
1.94431e-07
-2.04947e-07
1.37715e-05
-6.8025e-06
5.03976e-07
-8.5537e-06
-3.2806e-06
-2.03351e-05
-1.68488e-05
-1.45394e-05
-2.1305e-05
1.26446e-05
0.000103812
-1.11497e-05
3.0809e-06
2.67936e-06
4.30158e-06
1.70429e-06
1.5857e-06
-2.16038e-05
-1.58648e-05
-1.61672e-05
-2.12468e-05
9.05871e-06
4.77653e-06
6.71486e-06
6.60902e-06
4.69503e-06
-9.04913e-06
2.94758e-06
1.06663e-05
-9.70103e-05
-3.21971e-06
-5.17563e-07
5.18162e-07
1.30547e-05
-6.51539e-06
-1.06557e-05
-2.65833e-06
-2.01516e-05
-1.51222e-05
-2.00289e-05
-1.52541e-05
9.6614e-05
-3.31568e-06
4.13505e-06
6.30236e-06
4.10482e-06
6.37573e-06
-2.77906e-06
-2.0033e-05
-1.54074e-05
-1.51271e-05
-2.03319e-05
-3.74224e-06
4.10323e-06
6.40444e-06
6.30643e-06
4.15627e-06
1.01751e-05
0.000100212
-4.40737e-06
-9.94005e-05
-0.000103349
-6.42782e-06
0.000104638
-2.06276e-06
1.64991e-06
-2.93299e-06
3.85211e-07
-6.53311e-07
-3.49129e-05
3.18826e-05
7.21192e-06
-3.52551e-06
1.31198e-06
-0.000102445
0.000100339
-5.55554e-08
6.24593e-07
1.42211e-06
1.28449e-06
9.76016e-07
-9.91146e-05
-2.39053e-06
-4.13752e-06
-3.98325e-06
-2.20366e-06
0.000101329
-1.33591e-06
-0.000108798
1.82148e-06
2.78583e-06
1.98996e-06
3.10876e-06
-0.00010566
1.29622e-06
0.000105012
3.39684e-06
2.22502e-06
3.41422e-06
2.53614e-06
-3.81406e-07
2.19441e-05
-2.12803e-05
1.54437e-06
-1.82636e-06
-2.87887e-06
0.000128863
-6.94606e-07
3.30613e-06
1.89078e-06
2.79901e-06
2.4351e-06
2.31087e-05
-3.07218e-06
3.73154e-07
-2.2948e-05
3.77774e-06
3.05797e-06
2.87462e-06
-7.82464e-07
0.000128649
3.088e-06
2.2832e-06
2.1956e-06
2.95419e-06
5.71618e-06
-0.000100196
-2.46904e-07
0.000100808
-6.88698e-06
-2.71928e-07
4.384e-07
-8.86554e-07
1.99389e-07
3.94605e-06
-3.50307e-06
-1.35145e-06
-2.64566e-05
-2.50679e-05
-2.56271e-05
-2.65398e-05
-1.06912e-06
9.95362e-05
-2.2242e-08
1.31331e-06
1.18334e-06
1.02717e-06
1.25176e-06
-8.28659e-07
9.78174e-06
-2.00572e-06
9.9614e-05
-9.91509e-05
-3.48926e-05
3.16297e-05
6.0673e-06
-3.4558e-06
-0.000102758
-6.17718e-06
0.000104742
-1.26987e-06
7.82538e-07
-1.66345e-06
-7.66501e-08
-0.000101774
3.24998e-07
0.000100238
7.38372e-07
1.40948e-06
1.12575e-06
1.22734e-06
-9.89307e-05
-1.66374e-06
-3.38967e-06
-3.20472e-06
-1.47519e-06
-0.000108561
1.82594e-06
2.7374e-06
2.00407e-06
3.0423e-06
0.00010104
-0.000105415
2.84986e-06
0.000104748
-6.84692e-06
3.30939e-06
2.10805e-06
3.30717e-06
2.43914e-06
2.22174e-05
-2.15826e-05
7.77209e-07
-1.79331e-06
-4.30233e-06
0.000128796
3.31971e-06
1.93281e-06
2.79811e-06
2.46277e-06
-5.56322e-06
3.68847e-06
2.78765e-06
2.30882e-05
-1.92499e-06
-2.90766e-06
7.22036e-07
-2.29848e-05
0.000128513
3.09582e-06
2.26604e-06
2.19832e-06
2.94206e-06
5.85255e-06
1.36709e-06
-0.000100696
1.8249e-06
-3.86785e-06
-2.696e-05
-2.57048e-05
-2.69219e-05
-2.67865e-05
0.000102277
-6.83296e-06
-2.02249e-07
-6.35701e-08