/*--------------------------------*- C++ -*----------------------------------*\
| =========                 |                                                 |
| \\      /  F ield         | OpenFOAM: The Open Source CFD Toolbox           |
|  \\    /   O peration     | Version:  2012                                  |
|   \\  /    A nd           | Website:  www.openfoam.com                      |
|    \\/     M anipulation  |                                                 |
\*---------------------------------------------------------------------------*/
FoamFile
{
    version     2.0;
    format      ascii;
    class       volVectorField;
    location    "0.104/fluid";
    object      U;
}
// * * * * * * * * * * * * * * * * * * * * * * * * * * * * * * * * * * * * * //

dimensions      [0 1 -1 0 0 0 0];


internalField   nonuniform List<vector> 
16422
(
(1.24338 -0.0206477 -0.0106703)
(1.20744 -0.0276085 -0.00520673)
(1.20488 -0.00676682 -0.00449724)
(1.20257 -0.00516441 -0.00345551)
(1.20145 -0.00379768 -0.0024783)
(1.20085 -0.00264876 -0.00174378)
(1.20049 -0.00179737 -0.0012148)
(1.2003 -0.00119926 -0.000838203)
(1.20018 -0.000791574 -0.000572236)
(1.20012 -0.000519309 -0.00038553)
(1.20009 -0.000339718 -0.000258217)
(1.20006 -0.000218403 -0.000173688)
(1.20005 -0.000138527 -0.000114727)
(1.20004 -8.62778e-05 -7.33395e-05)
(1.20004 -4.60657e-05 -4.26948e-05)
(1.21579 -0.00463473 0.000455785)
(1.21143 -0.0100223 -0.00155397)
(1.20695 -0.00586148 -0.00241128)
(1.20409 -0.00376727 -0.00223927)
(1.20262 -0.00266646 -0.00176167)
(1.20173 -0.00188736 -0.00132056)
(1.20114 -0.00130572 -0.000968125)
(1.20075 -0.000889475 -0.000697213)
(1.2005 -0.000594846 -0.000490394)
(1.20033 -0.000393098 -0.00034095)
(1.20022 -0.000258363 -0.000233752)
(1.20016 -0.000167992 -0.000160237)
(1.20011 -0.000108318 -0.000107838)
(1.20009 -6.51322e-05 -7.02457e-05)
(1.20008 -3.39699e-05 -4.04728e-05)
(1.21122 -0.00139165 0.000215894)
(1.20973 -0.00304602 -0.000932432)
(1.20706 -0.00246972 -0.00150935)
(1.20481 -0.0017593 -0.00154102)
(1.20332 -0.00128804 -0.00132268)
(1.20227 -0.000923077 -0.00105915)
(1.20153 -0.000646513 -0.000813773)
(1.20103 -0.0004432 -0.000607373)
(1.20069 -0.000296715 -0.000440069)
(1.20047 -0.000194042 -0.000311946)
(1.20032 -0.000122092 -0.000218088)
(1.20023 -7.533e-05 -0.000152797)
(1.20016 -4.47252e-05 -0.000104893)
(1.20012 -2.08219e-05 -6.6959e-05)
(1.2001 -3.79503e-06 -3.87253e-05)
(1.21912 -0.00239747 -0.00261062)
(1.21052 -0.00406428 -0.00531595)
(1.20631 -0.00453728 -0.00442026)
(1.20381 -0.00386905 -0.00329869)
(1.20242 -0.00297915 -0.00238216)
(1.20155 -0.00216031 -0.00169241)
(1.20099 -0.00151195 -0.00118238)
(1.20065 -0.00103885 -0.000817354)
(1.20043 -0.000700906 -0.000557352)
(1.20029 -0.000467653 -0.000375754)
(1.20021 -0.000311589 -0.000252381)
(1.20015 -0.000203359 -0.000167691)
(1.20011 -0.000130346 -0.000111871)
(1.20009 -8.2492e-05 -7.30353e-05)
(1.20008 -4.4781e-05 -4.2888e-05)
(1.21233 -0.00172775 0.000356349)
(1.20994 -0.00417015 -0.00174669)
(1.20689 -0.00350214 -0.0023847)
(1.20462 -0.00271024 -0.00216534)
(1.20319 -0.00207923 -0.00170452)
(1.2022 -0.00153888 -0.00128551)
(1.2015 -0.00110155 -0.000943327)
(1.20102 -0.000771061 -0.000679383)
(1.2007 -0.000528044 -0.000480521)
(1.20048 -0.000355605 -0.00033232)
(1.20033 -0.000237819 -0.000228914)
(1.20024 -0.000157038 -0.000155954)
(1.20018 -0.000102532 -0.000104381)
(1.20013 -6.07725e-05 -6.94685e-05)
(1.20011 -3.1354e-05 -4.10065e-05)
(1.20992 -0.000660293 0.000119087)
(1.20884 -0.00163313 -0.000959185)
(1.20686 -0.00157098 -0.00148441)
(1.20504 -0.00128396 -0.0014976)
(1.20364 -0.0010065 -0.00128799)
(1.20258 -0.000753705 -0.00103409)
(1.20181 -0.000546084 -0.000794749)
(1.20125 -0.000384988 -0.000593146)
(1.20086 -0.000263754 -0.000432275)
(1.2006 -0.000175844 -0.000306291)
(1.20042 -0.000111462 -0.00021495)
(1.2003 -6.95633e-05 -0.000147408)
(1.20022 -4.13698e-05 -0.000100083)
(1.20016 -1.69693e-05 -6.73837e-05)
(1.20014 -1.21676e-06 -3.88125e-05)
(1.21232 -0.000394218 -0.000603721)
(1.20992 -0.00222948 -0.00283305)
(1.207 -0.00291969 -0.00290719)
(1.20477 -0.00276666 -0.00238018)
(1.20322 -0.00227853 -0.00179319)
(1.20216 -0.00173744 -0.00129783)
(1.20145 -0.00126458 -0.000916133)
(1.20097 -0.000896244 -0.000637217)
(1.20066 -0.000621351 -0.000435548)
(1.20045 -0.000423679 -0.000292782)
(1.20032 -0.00028842 -0.000196145)
(1.20023 -0.000191621 -0.000131016)
(1.20017 -0.000122923 -8.72704e-05)
(1.20013 -7.88759e-05 -5.56242e-05)
(1.20011 -4.34722e-05 -3.27053e-05)
(1.21007 -0.000472397 -3.03725e-05)
(1.20887 -0.0017132 -0.0013052)
(1.20687 -0.0020276 -0.00172869)
(1.20508 -0.00189521 -0.00159369)
(1.20368 -0.00158897 -0.00129035)
(1.20261 -0.00123967 -0.000989501)
(1.20183 -0.000923761 -0.000732715)
(1.20128 -0.000667735 -0.000529345)
(1.20089 -0.000469597 -0.000375342)
(1.20062 -0.000325077 -0.000260802)
(1.20044 -0.000220849 -0.000180208)
(1.20031 -0.000147598 -0.00012156)
(1.20023 -9.58677e-05 -8.10994e-05)
(1.20018 -5.72331e-05 -5.14474e-05)
(1.20015 -2.95834e-05 -3.03523e-05)
(1.20889 -0.000247323 -1.86763e-06)
(1.20815 -0.000788061 -0.00074139)
(1.20672 -0.000950492 -0.00110869)
(1.20524 -0.000907697 -0.00112522)
(1.20393 -0.000769652 -0.000986238)
(1.20288 -0.000607929 -0.000800407)
(1.20207 -0.00045914 -0.000619549)
(1.20147 -0.000334138 -0.000462456)
(1.20104 -0.000235092 -0.000336763)
(1.20072 -0.000159731 -0.000241642)
(1.20051 -0.000103682 -0.000169456)
(1.20036 -6.52197e-05 -0.00011486)
(1.20027 -3.90998e-05 -7.65709e-05)
(1.2002 -1.43348e-05 -4.97939e-05)
(1.20017 6.58142e-07 -2.8685e-05)
(1.21025 -0.000249794 -0.000225325)
(1.20913 -0.00142131 -0.00110896)
(1.20717 -0.0020251 -0.00131573)
(1.20527 -0.00208364 -0.00114805)
(1.20372 -0.00182844 -0.000883339)
(1.20257 -0.00146164 -0.000642894)
(1.20176 -0.00110245 -0.000454234)
(1.20119 -0.000801846 -0.000312572)
(1.20081 -0.000570399 -0.000208305)
(1.20056 -0.000396455 -0.00014002)
(1.2004 -0.000275075 -9.05517e-05)
(1.20028 -0.00018431 -5.9561e-05)
(1.20021 -0.000119422 -3.75355e-05)
(1.20016 -7.70156e-05 -2.22644e-05)
(1.20013 -4.3251e-05 -1.01842e-05)
(1.20904 -0.000213018 -8.86792e-05)
(1.20829 -0.00097617 -0.000637921)
(1.20687 -0.00136932 -0.000835847)
(1.20535 -0.00142894 -0.000782443)
(1.20399 -0.00128151 -0.000640445)
(1.2029 -0.00104744 -0.000492359)
(1.20207 -0.000806949 -0.000362654)
(1.20147 -0.000598754 -0.000256517)
(1.20103 -0.00043055 -0.00017745)
(1.20072 -0.000304825 -0.000122241)
(1.20051 -0.000210886 -8.04108e-05)
(1.20037 -0.000141748 -5.39372e-05)
(1.20027 -9.2443e-05 -3.49057e-05)
(1.2002 -5.44416e-05 -1.91331e-05)
(1.20017 -2.90562e-05 -9.14236e-06)
(1.20833 -0.000117935 -4.50736e-05)
(1.20778 -0.000471468 -0.000393223)
(1.20667 -0.000657794 -0.000557871)
(1.20538 -0.000687817 -0.000567289)
(1.20415 -0.000622106 -0.000498159)
(1.2031 -0.000513406 -0.000402325)
(1.20226 -0.000401967 -0.000306239)
(1.20163 -0.000300324 -0.00022257)
(1.20115 -0.000214168 -0.000157105)
(1.20082 -0.000147638 -0.000109676)
(1.20057 -0.000100371 -7.61357e-05)
(1.20041 -6.31599e-05 -5.10099e-05)
(1.2003 -3.60555e-05 -3.05637e-05)
(1.20023 -1.38067e-05 -1.84954e-05)
(1.20019 2.54528e-06 -7.99059e-06)
(1.30358 -0.0787793 -0.0137174)
(1.18498 -0.010689 -0.0109319)
(1.29712 -0.076376 0.00404064)
(1.18669 -0.0110892 -0.0148195)
(1.23457 -0.00998167 -0.0138933)
(1.20837 -0.00996895 -0.0126021)
(1.19134 -0.0114689 -0.00960562)
(1.19438 -0.0111198 -0.00670862)
(1.24726 -0.0238822 -0.00295398)
(1.20572 -0.046342 -0.00428288)
(1.2263 -0.00318946 -0.00222212)
(1.21064 -0.00557516 -0.00532544)
(0.392381 0.060063 -0.0800866)
(0.294099 0.0738548 -0.00593378)
(1.19265 -0.0117345 -0.0111548)
(1.19628 -0.00958664 -0.00785638)
(1.20639 -0.00946716 -0.0113072)
(1.20359 -0.0072145 -0.00823528)
(1.20565 -0.040969 -0.00606258)
(1.22424 -0.00319121 -0.00266008)
(1.21044 -0.00520501 -0.00615559)
(1.22484 -0.00650212 -0.00678491)
(1.2113 -0.0079893 -0.00416464)
(1.21686 -0.00107804 -0.00284907)
(1.21046 -0.00387608 -0.00620798)
(1.22334 -0.00624522 -0.00898309)
(1.21063 -0.00803615 -0.0127339)
(1.21476 -0.0011624 -0.00174853)
(1.21122 -0.00315551 -0.00426159)
(0.304294 0.0762958 -0.00906694)
(0.574283 0.140469 -0.0126231)
(1.2257 -0.0676899 -0.0134862)
(0.327003 -0.0785594 -0.00732369)
(1.17154 -0.0420412 -0.0102702)
(1.18895 -0.0330589 -0.0124467)
(0.614471 -0.154183 -0.0103103)
(0.612489 0.0563396 -0.122822)
(0.560799 0.136349 -0.0152548)
(0.446537 -0.0688371 -0.0935789)
(1.22265 -0.0653043 -0.0166326)
(1.27959 -0.0211777 -0.00798404)
(0.318102 -0.0765699 -0.00566477)
(1.22802 -0.0356373 -0.0315737)
(0.667419 -0.0754898 -0.167529)
(1.17484 -0.0416008 -0.0160517)
(1.19037 -0.030778 -0.0201323)
(1.19507 -0.00853183 -0.025013)
(0.602967 -0.150807 -0.0133224)
(1.17931 -0.0495087 -0.0133502)
(1.20029 -0.024588 -0.0334945)
(1.20533 0.0199223 -0.132415)
(0.699188 -0.0255877 -0.0646431)
(1.21335 -0.0153727 -0.100304)
(1.19052 0.00522576 -0.132709)
(1.25558 -0.0235407 -0.0153425)
(1.24002 -0.0030259 -0.0273863)
(1.22303 -0.0127094 -0.0189803)
(0.715707 -0.00157217 -0.066437)
(1.22171 -0.0215078 -0.037313)
(1.22339 -0.00410695 -0.031877)
(1.20586 0.0400967 -0.102014)
(1.20068 -0.00328417 -0.0269151)
(1.20775 -0.000787953 -0.0174848)
(1.21338 -0.0113977 -0.0166078)
(1.19712 -0.00178595 -0.0173447)
(1.20396 -0.00523214 -0.0335033)
(1.2111 -0.00218467 -0.026645)
(0.294514 0.0749332 -0.0146947)
(0.311969 0.0791416 -0.0205295)
(1.10263 0.0740691 -0.0167279)
(1.53141 -0.143749 -0.0368496)
(1.40064 -0.173368 -0.0335962)
(1.25865 -0.162593 -0.0108441)
(1.35545 -0.16867 -0.0324737)
(1.10612 -0.0820484 -0.0134932)
(1.19247 -0.112685 -0.012846)
(1.17459 -0.0626882 -0.0137113)
(0.562408 0.137356 -0.0265138)
(1.12136 0.074726 -0.0129041)
(1.12474 0.0844421 -0.0340468)
(0.585078 0.144248 -0.02796)
(1.10504 0.0736093 -0.022494)
(1.10958 0.0736829 -0.0268035)
(1.34721 -0.153092 -0.00761098)
(0.318848 -0.0772242 -0.00940288)
(1.26852 -0.105181 -0.0641465)
(1.26372 -0.139755 -0.0288692)
(1.30284 -0.0594186 -0.040992)
(1.38931 -0.163085 -0.0380002)
(1.52715 -0.144211 0.0301512)
(1.39772 -0.172634 0.0102502)
(1.50659 -0.132969 -0.0275969)
(1.34966 -0.160955 -0.0397909)
(0.334774 -0.0806518 -0.0151244)
(1.25842 -0.160112 -0.0163683)
(1.35334 -0.167976 0.00579289)
(1.25879 -0.156727 -0.0217228)
(1.38449 -0.154362 -0.000537101)
(1.41706 0.00541858 0.0110108)
(1.49939 -0.129384 0.0349911)
(1.32294 -0.0524763 -0.0319041)
(1.18479 -0.0543335 -0.0150391)
(0.605953 -0.153267 -0.0158293)
(1.12534 -0.100817 -0.019965)
(1.22469 -0.0701568 -0.046421)
(1.12293 -0.0973396 -0.0212178)
(1.20452 -0.0966577 -0.0186904)
(1.20403 -0.0456335 -0.0377922)
(1.17751 -0.0606444 -0.0183863)
(0.625883 -0.15856 -0.0192402)
(1.10838 -0.0807389 -0.0181576)
(1.19318 -0.111004 -0.0139643)
(1.17575 -0.0620721 -0.0127778)
(1.1124 -0.0802973 -0.0219697)
(1.19496 -0.108509 -0.0195154)
(1.1061 -0.0297386 -0.0851043)
(1.19916 0.00639757 -0.0566709)
(1.21323 0.0124605 -0.0577764)
(1.04789 -0.0162053 -0.0811797)
(1.25317 0.0251602 -0.0286671)
(1.23507 0.0165058 -0.0505573)
(1.18225 -0.0327583 -0.0221427)
(1.18983 -0.000535452 -0.0440497)
(1.19368 -0.00658826 -0.0332588)
(1.22717 -0.0280429 -0.0370036)
(1.11319 0.00731702 -0.085873)
(1.19371 -0.0635287 -0.0645882)
(1.19963 -0.0137336 -0.054419)
(1.21269 -0.0736569 -0.0750798)
(1.21281 -0.0190787 -0.0547664)
(1.21547 -0.0195383 -0.0275548)
(1.24194 -0.0369357 -0.0471096)
(1.05606 -0.00878187 -0.0819833)
(1.29676 -0.00187716 -0.0442686)
(1.25165 -0.0285725 -0.0277589)
(1.25615 -0.0389784 -0.0374754)
(1.23298 -0.0333632 -0.064618)
(1.23399 -0.0216249 -0.0482605)
(1.20073 -0.00673061 -0.0114186)
(1.18491 0.0264799 -0.0264292)
(1.18855 -0.0489728 -0.0400488)
(1.1905 -0.00712329 -0.0419928)
(1.19207 -0.0290479 -0.0277101)
(1.19358 -0.00123787 -0.031656)
(1.20596 -0.0090564 -0.0127835)
(1.18973 0.223923 -0.208124)
(0.306019 0.0889169 -0.00546863)
(1.17883 0.108097 -0.189834)
(1.16014 0.1814 -0.164526)
(1.228 0.151092 -0.250964)
(1.02596 0.197605 -0.058458)
(1.03202 0.198277 -0.0541871)
(1.17572 0.229249 -0.0367998)
(0.30679 0.0774109 -0.013632)
(1.14399 0.180506 -0.0296095)
(1.17834 0.230896 -0.0282003)
(1.14486 0.179451 -0.0288611)
(1.0074 0.191894 -0.238315)
(1.29648 0.161371 -0.339303)
(1.02932 0.198593 -0.0428225)
(1.04759 0.202105 -0.0272427)
(1.1751 0.231313 -0.0213482)
(0.294326 0.0735732 -0.00409958)
(1.14594 0.182232 -0.0192784)
(1.1804 0.232643 -0.0256735)
(1.14165 0.181719 -0.0235853)
(1.15853 0.101599 -0.0247673)
(0.561336 0.136361 -0.0124181)
(1.16979 0.129313 -0.0121456)
(0.898281 0.101575 -0.0171028)
(1.16635 0.129569 -0.0278437)
(0.896688 0.101572 -0.0184249)
(1.16145 0.101021 -0.0136156)
(1.02653 -0.18025 -0.0434589)
(1.04444 -0.18254 -0.0235966)
(1.18081 -0.221251 -0.0201844)
(0.31792 -0.0764705 -0.00452848)
(1.15761 -0.184639 -0.0177176)
(1.15318 -0.184053 -0.0206613)
(1.1864 -0.222184 -0.0231217)
(1.16753 -0.113481 -0.0218955)
(0.602692 -0.150556 -0.011459)
(0.901815 -0.122844 -0.013599)
(1.18601 -0.1433 -0.0108474)
(0.900559 -0.122938 -0.0158817)
(1.1824 -0.143236 -0.0239627)
(1.17038 -0.112982 -0.0106427)
(1.19231 0.107514 -0.109314)
(0.596722 0.156013 -0.0153735)
(1.21595 0.0664989 -0.163714)
(0.89077 0.0446648 0.0333107)
(1.19 0.128122 -0.148338)
(0.932854 0.101067 0.0144615)
(1.20693 0.0639409 -0.122749)
(1.16341 0.099273 -0.0204865)
(0.578202 0.142077 -0.018989)
(1.16789 0.127828 -0.0329349)
(0.898858 0.101584 -0.0231114)
(1.17039 0.126776 -0.0203534)
(1.15994 0.100054 -0.0290459)
(0.901473 0.102268 -0.0228163)
(1.19854 -0.217121 -0.197863)
(0.335801 -0.0916669 0.00900899)
(1.19612 -0.125101 -0.183273)
(1.17948 -0.192085 -0.1529)
(1.23429 -0.158818 -0.236777)
(1.02432 -0.176823 -0.0542826)
(1.02998 -0.178497 -0.0539014)
(1.182 -0.217742 -0.032888)
(0.329592 -0.079336 -0.0106999)
(1.15596 -0.182527 -0.0256002)
(1.18447 -0.219673 -0.0261336)
(1.15694 -0.181674 -0.0257957)
(1.0054 -0.168623 -0.234524)
(1.30015 -0.145386 -0.330989)
(1.20025 -0.119083 -0.103352)
(0.644132 -0.185473 0.0256099)
(0.907771 -0.0764236 0.00584678)
(1.22971 -0.0791147 -0.163803)
(0.939197 -0.168593 0.0151799)
(1.20967 -0.144189 -0.136517)
(1.209 -0.0753187 -0.129644)
(1.17252 -0.111206 -0.0162596)
(0.618653 -0.155897 -0.0147561)
(0.90232 -0.122615 -0.0195712)
(1.18458 -0.141647 -0.0279193)
(1.16923 -0.111886 -0.0251341)
(0.904588 -0.12289 -0.017774)
(1.18715 -0.140905 -0.0176588)
(1.18616 0.0384645 -0.101074)
(1.20159 -0.0136795 -0.146874)
(1.29099 -0.0402008 -0.110778)
(1.20287 -0.0260652 -0.0755278)
(1.21283 0.00946912 -0.186004)
(1.17715 0.0366336 -0.090625)
(1.23684 -0.0360242 -0.102069)
(1.28296 0.0250908 -0.100842)
(0.881304 0.00149642 -0.0668766)
(1.41378 -0.0387705 -0.110913)
(1.23723 -0.00435406 -0.236044)
(1.2999 0.0239731 -0.102351)
(1.39055 -0.0366309 -0.109439)
(1.17007 0.0208974 -0.0445817)
(1.18085 -0.0408119 -0.116783)
(1.24397 -0.0583255 -0.0296398)
(1.1703 -0.0245336 -0.0443698)
(1.17589 -0.053135 -0.0773201)
(1.17026 0.0349959 -0.0676129)
(1.16407 -0.0245448 -0.0252242)
(1.18637 -0.0479562 -0.0945454)
(1.29634 0.0175704 -0.109872)
(1.20649 -0.00143148 -0.141341)
(1.2006 0.0185207 -0.0730726)
(1.21289 -0.0250908 -0.177511)
(1.23546 0.0278859 -0.096671)
(1.17814 -0.0464962 -0.0869465)
(1.27918 -0.0316652 -0.0956269)
(0.893845 -0.0297873 -0.0681237)
(1.41299 0.0341083 -0.110539)
(1.29656 -0.0290608 -0.097249)
(1.23692 0.00570514 -0.22404)
(1.38933 0.030073 -0.108439)
(1.17192 -0.0319338 -0.0455278)
(1.25819 0.0587546 -0.0333212)
(1.18736 0.0289352 -0.116991)
(1.16889 0.0178887 -0.0475448)
(1.18065 0.0411133 -0.0815487)
(1.16455 0.0196909 -0.0308803)
(1.17222 -0.0453025 -0.0676438)
(1.16182 0.221746 -0.132011)
(0.319938 0.0875785 -0.0318528)
(1.1415 0.168672 -0.0781231)
(1.16531 0.213212 -0.0929425)
(1.14508 0.181129 -0.100657)
(1.17685 0.241401 -0.228731)
(1.28022 0.187995 -0.312738)
(1.15603 0.21717 -0.266889)
(1.22055 0.178776 -0.257481)
(1.13338 0.229917 -0.155508)
(1.1241 0.20308 -0.118419)
(1.14239 0.226805 -0.105115)
(1.12631 0.212782 -0.220863)
(1.09265 0.202228 -0.0555233)
(1.12132 0.212957 -0.0428271)
(1.11613 0.210041 -0.0488421)
(1.09992 0.203478 -0.0516346)
(1.00143 0.190475 -0.0823758)
(1.00698 0.189046 -0.123726)
(1.06863 0.194386 -0.0800941)
(1.10399 0.198049 -0.105327)
(1.09614 0.203568 -0.0682146)
(1.07419 0.191597 -0.119039)
(1.17084 0.225008 -0.0507985)
(0.293899 0.0742659 -0.00942918)
(1.14876 0.175764 -0.0520217)
(1.17683 0.224378 -0.0671868)
(1.14097 0.176176 -0.0469801)
(1.15774 0.247586 -0.0433265)
(1.16473 0.232224 -0.0374576)
(1.15929 0.228913 -0.0463094)
(1.1648 0.250604 -0.028123)
(1.15304 0.242942 -0.0544048)
(1.14933 0.216488 -0.0981529)
(1.15457 0.240252 -0.0789928)
(1.14123 0.222331 -0.0617183)
(1.07209 0.192892 -0.252258)
(1.28662 0.164262 -0.32148)
(1.10693 0.201384 -0.265835)
(1.31653 0.191344 -0.344021)
(0.993825 0.194838 -0.219571)
(0.978446 0.177962 -0.144798)
(1.05334 0.194536 -0.223853)
(1.07691 0.185575 -0.128274)
(1.07999 0.197781 -0.226053)
(1.0443 0.1787 -0.143476)
(1.09653 0.20392 -0.0404815)
(1.13398 0.216195 -0.024701)
(1.11491 0.207673 -0.0263415)
(1.1167 0.21323 -0.0334012)
(0.302242 0.0754659 -0.00592092)
(1.16138 0.250466 -0.0201259)
(1.17594 0.235475 -0.0250285)
(1.16643 0.252138 -0.030782)
(1.16003 0.232321 -0.0290312)
(0.572044 0.139632 -0.00815141)
(1.09272 -0.188265 -0.0406042)
(1.13404 -0.212334 -0.0243826)
(1.1168 -0.20927 -0.0304437)
(1.11065 -0.190758 -0.0226809)
(1.12583 -0.211494 -0.0115234)
(0.324559 -0.0779725 -0.00487639)
(1.16924 -0.233388 -0.0188683)
(1.17775 -0.229405 -0.0249258)
(1.16162 -0.225974 -0.0263518)
(1.17506 -0.234535 -0.0290224)
(1.16966 -0.228286 -0.0131368)
(0.611497 -0.153135 -0.00688161)
(1.18263 0.113639 -0.068396)
(0.612277 0.15861 -0.0453491)
(1.17194 0.12075 -0.0712424)
(0.912967 0.104938 -0.0388573)
(1.17948 0.133698 -0.0815277)
(1.17007 0.0978037 -0.0580067)
(0.934872 0.115162 -0.0379718)
(1.16098 0.0976951 -0.0396308)
(0.56118 0.136767 -0.0198718)
(1.17513 0.124001 -0.0389595)
(0.907247 0.103925 -0.0301338)
(1.16715 0.124423 -0.0465208)
(1.16855 0.0973855 -0.0346718)
(0.902124 0.102316 -0.0301826)
(1.16916 -0.210598 -0.120583)
(0.346991 -0.0890475 -0.0209579)
(1.15474 -0.172449 -0.0682131)
(1.17236 -0.201512 -0.0863194)
(1.15951 -0.186304 -0.0885554)
(1.18583 -0.224906 -0.214587)
(1.28648 -0.18807 -0.293087)
(1.15489 -0.207042 -0.2518)
(1.22829 -0.173979 -0.244989)
(1.14419 -0.210239 -0.144265)
(1.1295 -0.195953 -0.110479)
(1.15342 -0.206812 -0.0985043)
(1.1304 -0.20559 -0.206975)
(1.08957 -0.184602 -0.0510314)
(1.12189 -0.208479 -0.0388935)
(1.09671 -0.18654 -0.0508578)
(1.11707 -0.205824 -0.046766)
(1.00132 -0.169636 -0.0807147)
(1.00794 -0.16723 -0.118313)
(1.06693 -0.176993 -0.077766)
(1.10692 -0.194283 -0.0992708)
(1.09766 -0.198649 -0.0627691)
(1.07341 -0.173529 -0.112533)
(1.17727 -0.212981 -0.0471838)
(0.317996 -0.0767227 -0.00771015)
(1.16159 -0.178522 -0.0459222)
(1.18391 -0.212444 -0.0608394)
(1.15338 -0.178283 -0.041036)
(1.1671 -0.228598 -0.0404456)
(1.16684 -0.225343 -0.0339141)
(1.17358 -0.232193 -0.0259641)
(1.16187 -0.222163 -0.0446727)
(1.16262 -0.223285 -0.0508361)
(1.15365 -0.210088 -0.0930978)
(1.16541 -0.220539 -0.0741333)
(1.14412 -0.214654 -0.0569178)
(1.06696 -0.174331 -0.24808)
(1.2875 -0.168705 -0.301528)
(1.10494 -0.194293 -0.251431)
(1.31108 -0.183265 -0.336279)
(0.992538 -0.171341 -0.215738)
(0.981091 -0.156361 -0.141432)
(1.05005 -0.176128 -0.218526)
(1.08134 -0.181254 -0.119252)
(1.08291 -0.1936 -0.212718)
(1.04533 -0.161248 -0.138867)
(1.18877 -0.125671 -0.0522502)
(0.657046 -0.182242 -0.0122441)
(0.915198 -0.12683 -0.0276562)
(1.1888 -0.13727 -0.0591618)
(0.933632 -0.145295 -0.0200158)
(1.19622 -0.1494 -0.0670163)
(1.17728 -0.111367 -0.0482358)
(1.17038 -0.109949 -0.0338258)
(0.603748 -0.151488 -0.0157922)
(0.910146 -0.123616 -0.0218363)
(1.19224 -0.138861 -0.0331481)
(0.905583 -0.122594 -0.0243178)
(1.18425 -0.138684 -0.0394817)
(1.17751 -0.110006 -0.0280382)
(1.20401 0.0307082 -0.10665)
(1.23876 -0.0546999 -0.102314)
(1.25535 -0.00402146 -0.208609)
(1.32001 -0.0424219 -0.113199)
(1.23304 0.0147932 -0.195925)
(1.21935 0.0252948 -0.09954)
(1.28558 -0.0378014 -0.116817)
(1.26156 0.021505 -0.0961509)
(0.92584 0.00279776 -0.0693149)
(1.23493 0.0346426 -0.21599)
(1.35172 -0.038825 -0.111931)
(1.24065 0.0257595 -0.232813)
(1.24462 0.0191668 -0.0950848)
(1.37314 -0.0413549 -0.112842)
(1.20379 -0.0403815 -0.100525)
(1.24574 0.0218064 -0.102319)
(1.2554 -0.00784929 -0.192276)
(1.31682 0.0311292 -0.108272)
(1.2335 -0.0255162 -0.1863)
(1.28396 0.0280108 -0.111481)
(1.21841 -0.0345266 -0.0944513)
(1.25752 -0.0287525 -0.0915023)
(0.937271 -0.0298949 -0.0704748)
(1.23245 -0.0429033 -0.200346)
(1.34943 0.0279416 -0.108483)
(1.23658 -0.022667 -0.224398)
(1.37069 0.0326194 -0.110609)
(1.24211 -0.0267257 -0.0904666)
(1.21481 -0.0364472 -0.0110568)
(1.23824 -0.0175379 -0.0111761)
(1.21853 -0.0302402 -0.0130088)
(1.22953 -0.012572 -0.0107999)
(1.24391 -0.0192573 -0.00510029)
(1.23276 -0.0192398 -0.0095689)
(1.23843 -0.0112182 -0.00494599)
(1.21156 -0.00385345 -0.0053761)
(1.21484 -0.000928027 -0.00216206)
(1.21031 -0.00297228 -0.00505932)
(1.21357 -0.000630706 -0.000717824)
(1.21098 -0.00247511 -0.0027741)
(1.21139 -0.0005078 -0.000941304)
(1.20969 -0.00190255 -0.00248104)
(1.32542 -0.0587819 -0.0101187)
(1.28259 -0.0820979 -0.0150112)
(1.27621 -0.090938 -0.0135918)
(1.26617 -0.0794946 -0.0281412)
(1.31733 -0.0538663 -0.00803786)
(1.27711 -0.0792982 -0.00365625)
(1.29248 -0.0669474 -0.010816)
(1.27451 -0.070071 -0.0161017)
(1.26984 -0.0855506 -0.0139014)
(1.31 -0.0489222 -0.020679)
(1.21553 -0.0416036 -0.00432329)
(1.24872 -0.020905 -0.00418364)
(1.23609 -0.0208903 -0.00771538)
(0.669671 0.107989 -0.0271411)
(0.26246 0.0687506 0.0528962)
(0.78493 0.0659035 -0.0923897)
(0.704693 0.146966 -0.01701)
(0.746309 -0.0334917 -0.118571)
(0.747215 0.159567 -0.0282727)
(0.303646 0.0764021 -0.0107304)
(0.75052 0.186539 -0.0228321)
(0.719286 0.15105 -0.0318287)
(0.77013 0.192089 -0.0330702)
(1.22735 -0.0135024 -0.00837021)
(1.21857 -0.0094006 -0.00712988)
(1.2147 -0.0257632 -0.0102536)
(1.22377 -0.0100562 -0.0123865)
(1.22384 -0.00443892 -0.00634547)
(1.23012 -0.00939262 -0.00610451)
(1.21984 -0.00707969 -0.0111487)
(0.718754 0.151562 -0.0264052)
(0.292934 0.0733524 -0.00547094)
(0.771943 0.192042 -0.0262444)
(0.746343 0.158596 -0.020303)
(0.748062 0.185249 -0.0183558)
(0.974493 0.140125 -0.0138889)
(0.558168 0.134511 -0.013882)
(0.950866 0.206352 -0.0269774)
(0.567283 0.0906452 -0.032299)
(0.930589 0.199642 -0.0184426)
(0.54823 0.0834245 0.000113108)
(0.993256 0.145488 -0.0291203)
(0.741048 -0.155568 -0.0264239)
(0.317044 -0.0762865 -0.00564029)
(0.79535 -0.185033 -0.0212099)
(0.773486 -0.179033 -0.017733)
(0.766495 -0.161891 -0.0149959)
(0.994263 -0.159587 -0.0108044)
(0.600221 -0.148968 -0.0121807)
(0.599385 -0.1337 -0.0282759)
(0.974529 -0.208396 -0.0225186)
(0.582369 -0.127135 0.00120345)
(0.956053 -0.202838 -0.0161133)
(1.01136 -0.16389 -0.0249457)
(0.936084 0.0837609 -0.0478999)
(0.512844 0.0973299 0.0399489)
(0.934105 0.0618874 -0.0914208)
(0.612033 -0.0304355 -0.0583823)
(0.878425 0.132995 -0.056535)
(0.497188 0.0252097 0.105456)
(0.973381 0.00487152 -0.0773014)
(0.988921 0.142744 -0.036489)
(0.572282 0.139303 -0.0153656)
(0.934294 0.201418 -0.0248791)
(0.552361 0.0871389 0.00295356)
(0.947309 0.205219 -0.0351286)
(0.978664 0.142369 -0.019982)
(0.563752 0.0868894 -0.0312028)
(0.703917 -0.104786 -0.0296381)
(0.292508 -0.082633 0.070727)
(0.845657 -0.0804616 -0.118551)
(0.754787 -0.154883 -0.0239815)
(0.805032 0.0408136 -0.123915)
(1.25542 -0.0724865 -0.0412324)
(1.28119 -0.0567983 0.00474854)
(1.27869 -0.0558228 -0.0404151)
(1.26403 -0.0269888 -0.0186075)
(1.26419 -0.0608088 -0.00767042)
(1.2918 -0.0463519 -0.029975)
(1.25781 -0.0702157 -0.0529866)
(0.767336 -0.162517 -0.0221382)
(0.326698 -0.0786271 -0.00865335)
(0.776368 -0.179841 -0.0207315)
(0.74211 -0.155233 -0.0304326)
(0.793806 -0.184427 -0.0268394)
(0.949117 -0.123256 -0.0616047)
(0.552478 -0.12625 0.0262109)
(0.653145 0.00595395 -0.099989)
(0.973377 -0.095481 -0.122102)
(0.460839 -0.0840452 0.0865897)
(0.909941 -0.169724 -0.069401)
(1.00327 -0.0397479 -0.107333)
(1.00725 -0.161103 -0.0315958)
(0.613014 -0.153214 -0.0127737)
(0.587094 -0.131161 0.00408365)
(0.960029 -0.203986 -0.0211835)
(0.998683 -0.16161 -0.0162159)
(0.59557 -0.129896 -0.026979)
(0.971352 -0.206895 -0.0293568)
(1.30932 -0.00189428 -0.152443)
(1.20707 0.00298427 -0.110923)
(1.39793 0.0175222 -0.164034)
(1.30292 -0.0152425 -0.146663)
(1.25551 0.0321594 -0.157098)
(1.28353 -0.0118662 -0.112044)
(1.3205 -0.0183013 -0.186134)
(1.37565 0.00472566 -0.121618)
(0.767573 -0.0110811 -0.0644864)
(1.25918 -0.0119157 -0.0537734)
(0.932657 -0.0536411 -0.102285)
(1.37682 0.0167187 -0.115446)
(1.26675 -0.0143595 -0.0596759)
(1.26022 -0.03478 -0.0645542)
(1.23562 -0.0594008 -0.0840298)
(1.21282 -0.0284163 -0.0388715)
(1.2958 -0.014494 -0.10134)
(1.24341 -0.103611 -0.0534276)
(1.27821 -0.0210664 -0.0824058)
(1.2828 -0.0138249 -0.0575782)
(1.31003 -0.0106408 -0.153963)
(1.38629 -0.0109291 -0.160349)
(1.25065 -0.0112347 -0.120245)
(1.30119 0.00344448 -0.147823)
(1.28972 -0.0531413 -0.15209)
(1.31849 0.000259093 -0.19535)
(1.28698 0.00516681 -0.109604)
(1.23732 -0.0244654 -0.0261523)
(1.25177 -0.0314039 -0.0277375)
(1.24632 -0.0508561 -0.0300299)
(1.24487 -0.0259813 -0.0292209)
(1.24473 -0.0312508 -0.0338311)
(1.2505 -0.0230116 -0.0191499)
(1.22989 -0.0525904 -0.0388361)
(1.38548 -0.0147461 -0.124904)
(0.783235 -0.0170582 -0.0658737)
(1.2812 0.00306734 -0.0577863)
(1.38605 -0.0247238 -0.118)
(0.946247 0.0323096 -0.103931)
(1.28617 -0.000545323 -0.0625806)
(1.26448 0.0348014 -0.0475639)
(1.22137 0.0517761 -0.0444972)
(1.28253 0.0449887 -0.0964043)
(1.29534 0.00891951 -0.0992355)
(1.28315 0.0802961 -0.061079)
(1.28065 0.0181003 -0.0599674)
(1.28065 0.020956 -0.0708573)
(0.762947 0.166493 -0.0780907)
(0.310659 0.0795423 -0.0272396)
(0.750573 0.188362 -0.0483896)
(0.716223 0.150746 -0.0620721)
(0.784931 0.199016 -0.0737385)
(0.430059 0.0806887 -0.0565416)
(0.588018 0.0715082 -0.140762)
(0.354942 0.0884579 -0.0692634)
(0.35277 0.0847842 -0.053886)
(0.720506 0.152252 -0.0486188)
(0.294435 0.0746941 -0.0125037)
(0.787093 0.197841 -0.0562523)
(0.764146 0.163245 -0.0562756)
(0.751207 0.188233 -0.0378995)
(0.359912 0.0885922 -0.0194685)
(0.349837 0.0833494 -0.0209898)
(0.357782 0.087057 -0.0352918)
(0.355384 0.0865596 -0.0450046)
(0.354332 0.0861602 -0.0128081)
(0.353463 0.0844809 -0.00997797)
(1.41615 -0.182791 0.00397298)
(1.37874 -0.150906 -0.0216636)
(1.53828 -0.138205 0.0302577)
(1.48982 -0.150449 -0.0349408)
(1.49639 -0.145934 0.0230889)
(1.37374 -0.149748 0.000143293)
(1.42052 -0.184757 -0.0247547)
(1.43234 -0.207698 0.006366)
(1.40779 -0.170003 0.0144507)
(1.45411 -0.165592 -0.0358194)
(1.4084 -0.218856 -0.0290871)
(1.46163 -0.16149 0.0203641)
(1.40572 -0.216168 0.0066878)
(1.4358 -0.210215 -0.0275102)
(0.353987 -0.0806285 -0.0132618)
(0.353582 -0.0787144 -0.00930331)
(1.00525 0.146474 -0.0688253)
(0.582662 0.143191 -0.0360915)
(0.937613 0.202602 -0.0508671)
(0.554986 0.0884902 -0.00652205)
(0.961973 0.211187 -0.072439)
(0.98487 0.14262 -0.0436322)
(0.574923 0.091719 -0.0543651)
(0.980095 0.141131 -0.0327913)
(0.561152 0.135964 -0.0231618)
(0.964828 0.211053 -0.0549383)
(0.577959 0.094464 -0.0452458)
(0.935569 0.20191 -0.0385062)
(1.00657 0.147455 -0.0528528)
(0.55083 0.0853778 -0.00763529)
(0.787817 -0.170118 -0.0647328)
(0.334272 -0.0810599 -0.0193447)
(0.780085 -0.180901 -0.0372785)
(0.742891 -0.156009 -0.0522756)
(0.813242 -0.191128 -0.0579072)
(0.428257 -0.075042 -0.0407044)
(0.582707 -0.0695515 -0.114909)
(0.353721 -0.0812498 -0.0620909)
(0.351443 -0.0781034 -0.048636)
(1.40422 -0.18923 -0.00900975)
(1.379 -0.194591 -0.0443551)
(1.39885 -0.163528 0.00414625)
(1.43872 -0.154614 -0.0352878)
(1.45003 -0.15463 0.012922)
(1.38305 -0.198702 -0.00924588)
(1.39873 -0.185328 -0.043366)
(1.39794 -0.174461 -0.0255332)
(1.37221 -0.145574 -0.000625881)
(1.48578 -0.150226 0.0215414)
(1.52527 -0.134389 -0.0345863)
(1.48495 -0.1413 -0.034934)
(1.41445 -0.180072 0.00323299)
(1.35271 -0.140787 -0.0228281)
(1.41725 -0.199472 -0.0285393)
(1.40058 -0.165562 -0.0374034)
(1.45058 -0.165281 0.017273)
(1.40401 -0.214948 0.00510133)
(1.45254 -0.157017 -0.0378573)
(1.43045 -0.206024 0.00524027)
(1.39372 -0.208258 -0.0306266)
(1.38256 -0.163825 -0.0109334)
(1.46854 -0.138511 -0.0314593)
(1.52075 -0.13122 0.0294306)
(1.32796 -0.127088 -0.0406293)
(1.48097 -0.138191 0.0180946)
(1.33549 -0.1299 -0.0148164)
(1.37585 -0.160679 -0.0418741)
(0.745389 -0.156793 -0.0427191)
(0.318824 -0.0771082 -0.00958174)
(0.813066 -0.189345 -0.0446648)
(0.787372 -0.167025 -0.0455768)
(0.778834 -0.180315 -0.0314391)
(0.359446 -0.0823503 -0.0181478)
(0.349384 -0.077588 -0.020593)
(0.357228 -0.0806191 -0.0323569)
(0.355226 -0.0797471 -0.0404609)
(1.36847 -0.154482 -0.056739)
(1.37067 -0.170965 -0.0240219)
(1.43269 -0.14633 0.0121017)
(1.38148 -0.132047 -0.0270077)
(1.35304 -0.157728 -0.0573372)
(1.38912 -0.163192 -0.0238235)
(1.42572 -0.120309 -0.0165512)
(1.35993 -0.143787 -0.0931605)
(1.38194 -0.185976 -0.115211)
(1.45617 -0.0899618 0.0373888)
(1.38518 -0.00534886 -0.00816793)
(1.31319 -0.12565 -0.102389)
(1.42332 -0.0956756 0.0192154)
(1.41168 -0.182019 -0.110467)
(1.34256 -0.139572 -0.0591148)
(1.46169 -0.131785 0.019314)
(1.31886 -0.110556 -0.0309809)
(1.48475 -0.100509 0.000244812)
(1.29422 -0.115341 -0.0619171)
(1.36556 -0.141485 -0.0263612)
(1.44909 -0.104789 -0.0101424)
(1.38211 -0.15197 -0.0808048)
(1.35653 -0.121252 -0.00280396)
(1.38146 -0.159251 -0.12255)
(1.35726 -0.0245888 -0.0171387)
(1.36545 -0.151314 -0.0772316)
(1.39654 -0.109211 0.0138859)
(1.41611 -0.17324 -0.114232)
(1.02471 -0.166957 -0.0539866)
(0.6254 -0.159719 -0.0218221)
(0.590272 -0.130614 0.00422456)
(0.966125 -0.204899 -0.0376785)
(0.607387 -0.131754 -0.0396611)
(0.989304 -0.213501 -0.055262)
(1.00595 -0.162694 -0.031177)
(1.00019 -0.159795 -0.0244267)
(0.604025 -0.150942 -0.0166119)
(0.609988 -0.135615 -0.0357676)
(0.990185 -0.211451 -0.0430883)
(0.584894 -0.127812 -0.00183789)