/*--------------------------------*- C++ -*----------------------------------*\
| =========                 |                                                 |
| \\      /  F ield         | OpenFOAM: The Open Source CFD Toolbox           |
|  \\    /   O peration     | Version:  2012                                  |
|   \\  /    A nd           | Website:  www.openfoam.com                      |
|    \\/     M anipulation  |                                                 |
\*---------------------------------------------------------------------------*/
FoamFile
{
    version     2.0;
    format      ascii;
    class       volVectorField;
    location    "0.104/fluid";
    object      U_0;
}
// * * * * * * * * * * * * * * * * * * * * * * * * * * * * * * * * * * * * * //

dimensions      [0 1 -1 0 0 0 0];


internalField   nonuniform List<vector> 
16422
(
(1.24301 -0.0206011 -0.0106296)
(1.20751 -0.0274382 -0.00517946)
(1.20489 -0.00675066 -0.00448938)
(1.20258 -0.00515679 -0.00345127)
(1.20145 -0.00379297 -0.00247563)
(1.20085 -0.00264594 -0.00174207)
(1.20049 -0.00179563 -0.00121369)
(1.20029 -0.00119818 -0.000837468)
(1.20018 -0.000790877 -0.000571748)
(1.20012 -0.000518852 -0.000385207)
(1.20009 -0.000339405 -0.000258014)
(1.20006 -0.000218178 -0.000173567)
(1.20005 -0.000138377 -0.000114648)
(1.20004 -8.61734e-05 -7.32858e-05)
(1.20004 -4.59897e-05 -4.26515e-05)
(1.21573 -0.00464304 0.000456061)
(1.21142 -0.00999041 -0.00155191)
(1.20694 -0.00584243 -0.00240939)
(1.20408 -0.00375851 -0.00223719)
(1.20262 -0.00266211 -0.0017599)
(1.20173 -0.00188491 -0.00131931)
(1.20114 -0.00130427 -0.000967266)
(1.20075 -0.000888596 -0.000696623)
(1.2005 -0.00059429 -0.000489994)
(1.20033 -0.00039274 -0.000340688)
(1.20022 -0.000258111 -0.000233583)
(1.20015 -0.000167822 -0.000160141)
(1.20011 -0.000108199 -0.000107773)
(1.20009 -6.50597e-05 -7.01966e-05)
(1.20008 -3.39253e-05 -4.04228e-05)
(1.2112 -0.0013922 0.000213149)
(1.20971 -0.00303718 -0.000933128)
(1.20705 -0.00246168 -0.0015088)
(1.20481 -0.00175496 -0.00153977)
(1.20331 -0.00128573 -0.00132149)
(1.20226 -0.000921753 -0.00105821)
(1.20153 -0.00064574 -0.000813083)
(1.20103 -0.000442746 -0.000606882)
(1.20069 -0.000296443 -0.000439728)
(1.20047 -0.000193862 -0.000311722)
(1.20032 -0.000121976 -0.000217948)
(1.20023 -7.52531e-05 -0.000152715)
(1.20016 -4.46796e-05 -0.000104839)
(1.20012 -2.07851e-05 -6.69132e-05)
(1.2001 -3.78468e-06 -3.86768e-05)
(1.21904 -0.00236606 -0.00258151)
(1.21052 -0.00404115 -0.00528359)
(1.20631 -0.00452641 -0.00440637)
(1.20381 -0.00386316 -0.00329212)
(1.20242 -0.0029755 -0.00237854)
(1.20155 -0.00215804 -0.00169031)
(1.20099 -0.00151051 -0.0011811)
(1.20065 -0.00103793 -0.000816562)
(1.20043 -0.000700305 -0.000556851)
(1.20029 -0.000467257 -0.000375435)
(1.20021 -0.000311319 -0.000252181)
(1.20015 -0.000203159 -0.000167575)
(1.20011 -0.00013021 -0.000111798)
(1.20009 -8.23935e-05 -7.29846e-05)
(1.20008 -4.4702e-05 -4.28388e-05)
(1.2123 -0.00172451 0.000357269)
(1.20993 -0.00415422 -0.00173961)
(1.20688 -0.00349096 -0.0023794)
(1.20461 -0.00270415 -0.00216156)
(1.20319 -0.00207585 -0.00170202)
(1.20219 -0.00153688 -0.00128394)
(1.2015 -0.00110034 -0.000942322)
(1.20102 -0.000770312 -0.000678742)
(1.20069 -0.000527566 -0.000480104)
(1.20048 -0.000355294 -0.000332052)
(1.20033 -0.000237603 -0.000228753)
(1.20024 -0.000156888 -0.000155857)
(1.20018 -0.000102429 -0.000104321)
(1.20013 -6.07014e-05 -6.94205e-05)
(1.20011 -3.13085e-05 -4.09582e-05)
(1.2099 -0.000659389 0.000117124)
(1.20883 -0.00162749 -0.000958241)
(1.20684 -0.00156576 -0.0014824)
(1.20503 -0.00128085 -0.00149542)
(1.20364 -0.00100467 -0.00128631)
(1.20258 -0.000752616 -0.0010329)
(1.2018 -0.000545435 -0.000793938)
(1.20125 -0.000384604 -0.000592606)
(1.20086 -0.000263519 -0.00043192)
(1.2006 -0.000175693 -0.00030606)
(1.20042 -0.00011136 -0.000214813)
(1.2003 -6.94973e-05 -0.000147323)
(1.20022 -4.13251e-05 -0.000100033)
(1.20016 -1.69353e-05 -6.73357e-05)
(1.20014 -1.204e-06 -3.87631e-05)
(1.21229 -0.000389915 -0.00060114)
(1.20991 -0.00222312 -0.00282131)
(1.20699 -0.00291444 -0.00289841)
(1.20476 -0.00276278 -0.00237485)
(1.20322 -0.00227587 -0.0017901)
(1.20216 -0.00173565 -0.00129601)
(1.20144 -0.0012634 -0.000915053)
(1.20097 -0.000895474 -0.000636557)
(1.20066 -0.000620837 -0.000435136)
(1.20045 -0.000423337 -0.000292531)
(1.20031 -0.000288181 -0.000195993)
(1.20022 -0.000191442 -0.000130931)
(1.20017 -0.000122798 -8.72212e-05)
(1.20013 -7.87824e-05 -5.55817e-05)
(1.20011 -4.33947e-05 -3.26711e-05)
(1.21005 -0.000470258 -3.07007e-05)
(1.20886 -0.0017074 -0.00130103)
(1.20686 -0.00202228 -0.00172432)
(1.20507 -0.00189154 -0.00159029)
(1.20367 -0.00158657 -0.00128814)
(1.20261 -0.00123813 -0.000988114)
(1.20183 -0.000922779 -0.00073185)
(1.20127 -0.000667106 -0.000528805)
(1.20089 -0.000469191 -0.000375001)
(1.20062 -0.000324809 -0.000260596)
(1.20044 -0.00022066 -0.000180078)
(1.20031 -0.000147461 -0.000121488)
(1.20023 -9.57715e-05 -8.10551e-05)
(1.20018 -5.71678e-05 -5.14108e-05)
(1.20015 -2.95385e-05 -3.03205e-05)
(1.20887 -0.000246409 -3.09438e-06)
(1.20813 -0.000785329 -0.000740317)
(1.20671 -0.000947789 -0.00110659)
(1.20523 -0.00090573 -0.00112319)
(1.20393 -0.000768338 -0.000984702)
(1.20288 -0.00060709 -0.000799343)
(1.20207 -0.000458616 -0.00061884)
(1.20147 -0.000333817 -0.000461997)
(1.20103 -0.000234894 -0.000336472)
(1.20072 -0.000159606 -0.000241464)
(1.20051 -0.000103591 -0.000169344)
(1.20036 -6.51615e-05 -0.000114797)
(1.20027 -3.90588e-05 -7.65335e-05)
(1.2002 -1.43026e-05 -4.97711e-05)
(1.20017 6.67805e-07 -2.86515e-05)
(1.21024 -0.000247825 -0.00022495)
(1.20911 -0.0014183 -0.00110561)
(1.20716 -0.00202197 -0.00131219)
(1.20526 -0.00208099 -0.00114552)
(1.20371 -0.00182641 -0.000881775)
(1.20257 -0.00146018 -0.00064197)
(1.20176 -0.00110144 -0.000453691)
(1.20119 -0.000801175 -0.000312241)
(1.20081 -0.000569941 -0.00020811)
(1.20056 -0.000396147 -0.000139901)
(1.20039 -0.000274856 -9.04839e-05)
(1.20028 -0.000184143 -5.95256e-05)
(1.20021 -0.000119302 -3.75134e-05)
(1.20016 -7.69257e-05 -2.22449e-05)
(1.20013 -4.31726e-05 -1.01692e-05)
(1.20903 -0.000211603 -8.89573e-05)
(1.20828 -0.000973476 -0.000636342)
(1.20686 -0.00136647 -0.000833722)
(1.20535 -0.00142658 -0.000780723)
(1.20399 -0.00127976 -0.000639296)
(1.2029 -0.0010462 -0.000491638)
(1.20207 -0.00080612 -0.000362205)
(1.20147 -0.000598208 -0.00025624)
(1.20103 -0.000430191 -0.000177288)
(1.20072 -0.00030459 -0.000122139)
(1.20051 -0.000210709 -8.03548e-05)
(1.20037 -0.00014162 -5.39123e-05)
(1.20027 -9.23492e-05 -3.48858e-05)
(1.2002 -5.43803e-05 -1.91148e-05)
(1.20017 -2.90126e-05 -9.12892e-06)
(1.20832 -0.000117221 -4.55878e-05)
(1.20777 -0.000470076 -0.000392592)
(1.20666 -0.000656257 -0.000556716)
(1.20537 -0.000686524 -0.000566195)
(1.20414 -0.000621144 -0.000497332)
(1.20309 -0.000512745 -0.000401757)
(1.20226 -0.000401535 -0.000305864)
(1.20162 -0.000300043 -0.000222333)
(1.20115 -0.000213995 -0.00015696)
(1.20082 -0.000147528 -0.000109592)
(1.20057 -0.000100296 -7.60919e-05)
(1.20041 -6.30972e-05 -5.09836e-05)
(1.2003 -3.60201e-05 -3.05468e-05)
(1.20023 -1.37867e-05 -1.84976e-05)
(1.20019 2.55326e-06 -7.97511e-06)
(1.3031 -0.0783375 -0.0137399)
(1.18518 -0.0105851 -0.0109268)
(1.29666 -0.0759147 0.00394288)
(1.18688 -0.0109877 -0.0147561)
(1.23442 -0.00995838 -0.0138069)
(1.20836 -0.00993979 -0.0125222)
(1.19146 -0.0114829 -0.00960096)
(1.19442 -0.011087 -0.00670105)
(1.24686 -0.0238627 -0.00295932)
(1.20586 -0.0461627 -0.00427624)
(1.22623 -0.00314515 -0.00223785)
(1.21059 -0.00551865 -0.0053268)
(0.393207 0.0585206 -0.077953)
(0.297177 0.0729037 -0.00642105)
(1.19276 -0.0117392 -0.0111165)
(1.19631 -0.00955811 -0.0078374)
(1.2064 -0.00944321 -0.011262)
(1.2036 -0.00719452 -0.00820397)
(1.20578 -0.0408014 -0.00602079)
(1.22417 -0.00314891 -0.00267507)
(1.21039 -0.00515136 -0.00615257)
(1.22473 -0.00646016 -0.00671275)
(1.2113 -0.00793862 -0.00411235)
(1.21681 -0.00106281 -0.00285634)
(1.21043 -0.00384943 -0.00619403)
(1.22324 -0.00622083 -0.00895353)
(1.21063 -0.00799788 -0.0126748)
(1.21472 -0.00115848 -0.00174094)
(1.21119 -0.00314706 -0.00424145)
(0.307386 0.0753557 -0.00960336)
(0.576432 0.140167 -0.0124105)
(1.22552 -0.0669799 -0.013435)
(0.330956 -0.0786658 -0.00800298)
(1.17179 -0.041824 -0.0102736)
(1.18907 -0.0325776 -0.0124609)
(0.616585 -0.15411 -0.0101586)
(0.612341 0.0555431 -0.120035)
(0.56298 0.136042 -0.0149796)
(0.448383 -0.0689022 -0.0903553)
(1.2225 -0.064596 -0.0167119)
(1.27926 -0.0208425 -0.00792789)
(0.322076 -0.0766861 -0.00627211)
(1.22792 -0.0351266 -0.0313865)
(0.667867 -0.0746249 -0.164044)
(1.17509 -0.0413916 -0.0159943)
(1.19051 -0.0303074 -0.0200581)
(1.19521 -0.00845743 -0.0249022)
(0.605141 -0.150732 -0.0130767)
(1.17948 -0.0493486 -0.0132452)
(1.20039 -0.0242136 -0.0333143)
(1.20533 0.019328 -0.129682)
(0.700339 -0.0250401 -0.0646872)
(1.21269 -0.0164334 -0.0969879)
(1.19052 0.0054033 -0.128817)
(1.25529 -0.0233207 -0.0153436)
(1.23984 -0.00299469 -0.0272363)
(1.22294 -0.0126649 -0.0188296)
(0.716615 -0.00185596 -0.0664321)
(1.22159 -0.0212097 -0.0371062)
(1.22329 -0.00406209 -0.0316542)
(1.20595 0.0404107 -0.0986358)
(1.20076 -0.00325364 -0.0267977)
(1.20775 -0.000768594 -0.0173399)
(1.21334 -0.0113593 -0.0164732)
(1.19723 -0.0017336 -0.0172333)
(1.204 -0.00505948 -0.0333185)
(1.21108 -0.00214656 -0.0264412)
(0.297888 0.0738476 -0.0148882)
(0.31538 0.0780469 -0.0208603)
(1.10349 0.0737399 -0.0166991)
(1.53001 -0.142953 -0.0369312)
(1.39978 -0.172341 -0.033653)
(1.2584 -0.161246 -0.0109215)
(1.35477 -0.167508 -0.0325023)
(1.10705 -0.0814262 -0.0134626)
(1.19235 -0.111822 -0.0128977)
(1.17474 -0.0621738 -0.0137211)
(0.564599 0.13697 -0.0257908)
(1.12193 0.0745746 -0.0123421)
(1.12553 0.0841078 -0.0337487)
(0.587203 0.143843 -0.0273828)
(1.10592 0.0732696 -0.0224207)
(1.11045 0.0733352 -0.0266244)
(1.34663 -0.151959 -0.0074817)
(0.323228 -0.0773472 -0.00962834)
(1.26845 -0.10424 -0.0636776)
(1.26357 -0.138525 -0.0285848)
(1.30257 -0.0585839 -0.0403817)
(1.38854 -0.162031 -0.037891)
(1.52575 -0.14337 0.0300093)
(1.39687 -0.171575 0.010149)
(1.50528 -0.132057 -0.0275913)
(1.34905 -0.159765 -0.0396356)
(0.339176 -0.0807566 -0.0154951)
(1.25822 -0.158724 -0.0163732)
(1.35268 -0.166779 0.00569992)
(1.25861 -0.155352 -0.0215992)
(1.38377 -0.153357 -0.000417309)
(1.41618 0.0061342 0.011284)
(1.49814 -0.128443 0.0349653)
(1.32252 -0.0517976 -0.0313146)
(1.18487 -0.0539166 -0.0149089)
(0.608339 -0.153191 -0.0151546)
(1.12596 -0.100551 -0.0194509)
(1.22465 -0.0695965 -0.0461067)
(1.12381 -0.0967897 -0.0209618)
(1.20439 -0.0959449 -0.0184819)
(1.20408 -0.0453166 -0.0376001)
(1.17768 -0.0601561 -0.0183028)
(0.628169 -0.158478 -0.0187267)
(1.10934 -0.0801257 -0.0181228)
(1.1931 -0.110132 -0.0139574)
(1.17592 -0.0615632 -0.0127633)
(1.11336 -0.0796984 -0.0218023)
(1.19487 -0.107654 -0.0194203)
(1.10723 -0.0292859 -0.0855375)
(1.19907 0.00624261 -0.0563337)
(1.21297 0.0123772 -0.0574531)
(1.04919 -0.0157363 -0.0816046)
(1.25278 0.0251462 -0.028554)
(1.23474 0.0164899 -0.0503214)
(1.18234 -0.0327682 -0.0217296)
(1.18998 -0.000702425 -0.043786)
(1.19393 -0.00668206 -0.0330391)
(1.227 -0.0278431 -0.0366392)
(1.11423 0.00667632 -0.0863239)
(1.19369 -0.0629413 -0.0640175)
(1.19954 -0.0135306 -0.0540409)
(1.2125 -0.0731241 -0.0744484)
(1.21254 -0.0189385 -0.0544108)
(1.21542 -0.0192987 -0.0272097)
(1.24168 -0.0367821 -0.0468024)
(1.05732 -0.00927362 -0.0824421)
(1.29613 -0.00154685 -0.0441081)
(1.25126 -0.028455 -0.0276257)
(1.25579 -0.0388583 -0.0372733)
(1.23263 -0.0329603 -0.0639999)
(1.23365 -0.0215295 -0.047999)
(1.20085 -0.0065988 -0.0112315)
(1.18498 0.0265455 -0.0260547)
(1.18872 -0.0485635 -0.0396439)
(1.19063 -0.00691514 -0.0417142)
(1.19229 -0.0288071 -0.027531)
(1.19381 -0.00110412 -0.0314461)
(1.20601 -0.00885356 -0.012513)
(1.19064 0.221095 -0.206727)
(0.309545 0.0877958 -0.00521427)
(1.17938 0.106555 -0.188329)
(1.16108 0.179518 -0.163367)
(1.22821 0.148716 -0.249224)
(1.02698 0.195252 -0.05809)
(1.03289 0.195998 -0.0541234)
(1.17705 0.226325 -0.0363942)
(0.310037 0.076395 -0.0140989)
(1.14516 0.178464 -0.0296803)
(1.17961 0.228064 -0.0282793)
(1.14605 0.177364 -0.028528)
(1.00792 0.189189 -0.237677)
(1.29665 0.158879 -0.337591)
(1.03013 0.196413 -0.042857)
(1.04846 0.199848 -0.0270519)
(1.17639 0.228687 -0.0215169)
(0.297304 0.0727023 -0.0046344)
(1.14708 0.180242 -0.0190717)
(1.18164 0.2299 -0.0254219)
(1.14285 0.179802 -0.0237333)
(1.1596 0.100785 -0.0248289)
(0.563521 0.136105 -0.0122215)
(1.17084 0.128142 -0.01202)
(0.90024 0.10151 -0.0170725)
(1.16743 0.128435 -0.0279371)
(0.89864 0.101528 -0.0184246)
(1.1625 0.100183 -0.0135178)
(1.02658 -0.178651 -0.0436619)
(1.04453 -0.180851 -0.0236344)
(1.18179 -0.219332 -0.020422)
(0.321667 -0.0765795 -0.00519637)
(1.15887 -0.183027 -0.017715)
(1.15444 -0.182485 -0.0208246)
(1.18735 -0.220212 -0.0230997)
(1.16846 -0.112583 -0.0220071)
(0.604749 -0.150484 -0.0112872)
(0.903582 -0.122144 -0.013529)
(1.18725 -0.142114 -0.0107783)
(0.902307 -0.12224 -0.0159456)
(1.18364 -0.142072 -0.0241272)
(1.1713 -0.112067 -0.010567)
(1.19319 0.106966 -0.108504)
(0.598654 0.155543 -0.0137955)
(1.21665 0.0658279 -0.162681)
(0.891825 0.0450097 0.0346427)
(1.19088 0.127215 -0.147332)
(0.934674 0.101069 0.0152534)
(1.20757 0.0636323 -0.121998)
(1.1645 0.0984173 -0.0203081)
(0.580364 0.141724 -0.0186476)
(1.16897 0.126634 -0.0329574)
(0.900847 0.101509 -0.0230408)
(1.17148 0.125569 -0.0201258)
(1.16101 0.099208 -0.0290459)
(0.903469 0.102169 -0.0226989)
(1.19937 -0.215255 -0.196268)
(0.34032 -0.0917005 0.00911842)
(1.19695 -0.123518 -0.181782)
(1.18075 -0.190584 -0.151507)
(1.23456 -0.157056 -0.234871)
(1.02455 -0.175043 -0.054139)
(1.03008 -0.176785 -0.0540103)
(1.18309 -0.215703 -0.0327143)
(0.3338 -0.0794498 -0.0112745)
(1.15728 -0.180882 -0.0256755)
(1.18549 -0.217645 -0.0262702)
(1.15833 -0.180015 -0.025669)
(1.00511 -0.166479 -0.234013)
(1.29944 -0.143699 -0.329716)
(1.20107 -0.118503 -0.102615)
(0.646078 -0.185341 0.0267435)
(0.908633 -0.0765693 0.00722522)
(1.23057 -0.0782308 -0.162768)
(0.940973 -0.168259 0.0159661)
(1.21088 -0.143318 -0.135496)
(1.20953 -0.0749424 -0.128895)
(1.1735 -0.110299 -0.016108)
(0.620891 -0.155825 -0.0144752)
(0.904127 -0.121926 -0.0195755)
(1.18588 -0.140455 -0.0280132)
(1.1702 -0.110983 -0.0251902)
(0.906415 -0.122203 -0.0176213)
(1.1885 -0.139711 -0.0174927)
(1.18608 0.0382192 -0.100425)
(1.20161 -0.0146856 -0.145717)
(1.29176 -0.0393769 -0.110993)
(1.20235 -0.0260963 -0.0743916)
(1.2127 0.00857726 -0.184867)
(1.17718 0.0362543 -0.089812)
(1.23604 -0.0360406 -0.101055)
(1.28243 0.0251386 -0.100322)
(0.882433 0.00209662 -0.067036)
(1.41328 -0.0386364 -0.110754)
(1.23712 -0.00443887 -0.234543)
(1.29938 0.0240267 -0.101875)
(1.39005 -0.036511 -0.109313)
(1.17034 0.0205324 -0.0438394)
(1.181 -0.0415091 -0.115769)
(1.24318 -0.0586032 -0.0284699)
(1.17017 -0.0245484 -0.043434)
(1.17609 -0.053486 -0.0765939)
(1.17044 0.0345467 -0.0666431)
(1.16421 -0.0245471 -0.0245867)
(1.18629 -0.0476079 -0.0936742)
(1.29686 0.017018 -0.109867)
(1.2067 -0.000537988 -0.139938)
(1.20008 0.0185582 -0.0719368)
(1.21281 -0.0244479 -0.176064)
(1.23466 0.0278957 -0.095606)
(1.17824 -0.0460666 -0.0859559)
(1.27861 -0.0316076 -0.095174)
(0.894808 -0.0301018 -0.0682889)
(1.41249 0.0341388 -0.110411)
(1.29598 -0.0290211 -0.0968749)
(1.23624 0.00606821 -0.223014)
(1.38883 0.0300307 -0.108307)
(1.17221 -0.0315767 -0.0447657)
(1.2575 0.0589401 -0.0323334)
(1.18778 0.0296919 -0.115938)
(1.16881 0.0179346 -0.0466045)
(1.18093 0.041555 -0.0808547)
(1.16474 0.0197553 -0.0302237)
(1.17245 -0.0448554 -0.0666735)
(1.16314 0.218677 -0.130626)
(0.32355 0.0864237 -0.0318289)
(1.14277 0.166569 -0.0776295)
(1.1668 0.210121 -0.0923785)
(1.14625 0.179024 -0.0995106)
(1.17803 0.23881 -0.227036)
(1.27937 0.186031 -0.310823)
(1.15629 0.215168 -0.265529)
(1.22092 0.176332 -0.255876)
(1.13515 0.227207 -0.154205)
(1.12528 0.201264 -0.117694)
(1.14436 0.224148 -0.104253)
(1.1271 0.210792 -0.219518)
(1.09358 0.200215 -0.055146)
(1.12205 0.211028 -0.0427645)
(1.11698 0.20806 -0.0484513)
(1.10071 0.201527 -0.0515798)
(1.00246 0.188112 -0.082143)
(1.00825 0.186615 -0.123104)
(1.06957 0.192354 -0.0798579)
(1.10505 0.19605 -0.104567)
(1.09699 0.201583 -0.0679418)
(1.07537 0.189508 -0.118392)
(1.1722 0.22201 -0.0506699)
(0.297113 0.0732414 -0.00981536)
(1.14994 0.173608 -0.0514143)
(1.17821 0.221298 -0.0664567)
(1.14219 0.17406 -0.0468616)
(1.15942 0.245042 -0.0430954)
(1.16551 0.230423 -0.0373699)
(1.16018 0.227076 -0.0459618)
(1.16638 0.248114 -0.0280014)
(1.15476 0.240335 -0.0540507)
(1.15042 0.214674 -0.0974208)
(1.15639 0.23762 -0.0784281)
(1.14214 0.220491 -0.0614197)
(1.07247 0.190611 -0.25159)
(1.28574 0.162272 -0.319731)
(1.10716 0.199208 -0.264725)
(1.31646 0.189204 -0.3425)
(0.994664 0.19217 -0.218881)
(0.979676 0.175501 -0.144316)
(1.05408 0.19225 -0.223159)
(1.07801 0.183563 -0.127605)
(1.08071 0.195602 -0.224881)
(1.04546 0.176567 -0.142982)
(1.09727 0.202052 -0.0405267)
(1.13471 0.214283 -0.0245091)
(1.1157 0.205747 -0.0261389)
(1.11744 0.211388 -0.0334457)
(0.305224 0.0746095 -0.00649962)
(1.16293 0.248131 -0.0201243)
(1.1767 0.233693 -0.0248805)
(1.16797 0.249723 -0.030712)
(1.16081 0.230598 -0.0290517)
(0.574206 0.139384 -0.00802301)
(1.09282 -0.187079 -0.0407663)
(1.13443 -0.21083 -0.0244908)
(1.11715 -0.207813 -0.0306155)
(1.11079 -0.18952 -0.0227633)
(1.1262 -0.210084 -0.0117225)
(0.328274 -0.0780738 -0.00561503)
(1.17011 -0.231356 -0.0190415)
(1.17823 -0.227773 -0.0250206)
(1.16208 -0.224397 -0.0265389)
(1.17593 -0.232434 -0.0291107)
(1.17011 -0.226755 -0.0133178)
(0.613508 -0.153065 -0.00681196)
(1.18368 0.112925 -0.0677354)
(0.614281 0.158149 -0.0440912)
(1.17306 0.119632 -0.0707835)
(0.914955 0.10482 -0.0384289)
(1.18054 0.132606 -0.0806416)
(1.17116 0.0970441 -0.0576529)
(0.93684 0.115042 -0.0373644)
(1.16209 0.0968483 -0.0394968)
(0.563374 0.136412 -0.0194456)
(1.17618 0.122789 -0.0385138)
(0.909248 0.103797 -0.0298641)
(1.16825 0.123216 -0.0463736)
(1.16961 0.0965424 -0.0343414)
(0.904139 0.102212 -0.0299839)
(1.17037 -0.208597 -0.119315)
(0.351582 -0.0891046 -0.020927)
(1.15631 -0.170865 -0.0676405)
(1.17369 -0.199518 -0.0857071)
(1.16101 -0.18469 -0.0875228)
(1.1865 -0.2228 -0.212897)
(1.28596 -0.186311 -0.291397)
(1.15506 -0.205204 -0.250479)
(1.22811 -0.172243 -0.243085)
(1.14533 -0.20799 -0.143074)
(1.13043 -0.194203 -0.109943)
(1.15472 -0.204615 -0.0977871)
(1.13114 -0.203729 -0.205822)
(1.08985 -0.183295 -0.0509227)
(1.12228 -0.206929 -0.0389582)
(1.09685 -0.185269 -0.0509181)
(1.1176 -0.204228 -0.0466866)
(1.00156 -0.167849 -0.0806463)
(1.00841 -0.165381 -0.117885)
(1.06723 -0.175661 -0.0776338)
(1.1077 -0.192659 -0.0988325)
(1.0982 -0.197013 -0.0626298)
(1.07395 -0.172185 -0.112102)
(1.17843 -0.210917 -0.0470856)
(0.322198 -0.0768467 -0.00818869)
(1.16305 -0.176852 -0.0455056)
(1.18511 -0.210387 -0.0603205)
(1.15483 -0.176616 -0.0408991)
(1.16812 -0.226411 -0.0403704)
(1.16733 -0.223669 -0.0339975)
(1.1745 -0.230034 -0.0260202)
(1.16252 -0.220447 -0.0445912)
(1.16369 -0.221066 -0.050656)
(1.15454 -0.208367 -0.0926687)
(1.16659 -0.218324 -0.0737112)
(1.14478 -0.212907 -0.0567981)
(1.06669 -0.172834 -0.247404)
(1.2871 -0.166964 -0.299929)
(1.10501 -0.192451 -0.250228)
(1.31051 -0.182267 -0.334865)
(0.992638 -0.169288 -0.21518)
(0.981557 -0.154488 -0.141077)
(1.05025 -0.174667 -0.217901)
(1.08214 -0.179576 -0.118709)
(1.08352 -0.191794 -0.211666)
(1.04589 -0.15985 -0.138421)
(1.18979 -0.124951 -0.0516311)
(0.659121 -0.182117 -0.0111819)
(0.917056 -0.126229 -0.0273106)
(1.19028 -0.136205 -0.0587546)
(0.935517 -0.14471 -0.0193623)
(1.19766 -0.148347 -0.0661938)
(1.17831 -0.110579 -0.0479521)
(1.1714 -0.109067 -0.0337492)
(0.606049 -0.151411 -0.0154006)
(0.912003 -0.122957 -0.0215311)
(1.19363 -0.13768 -0.0327685)
(0.907442 -0.121929 -0.0242009)
(1.18565 -0.137504 -0.0394002)
(1.1785 -0.109127 -0.0277389)
(1.20376 0.0305124 -0.106098)
(1.23962 -0.0536788 -0.102768)
(1.25492 -0.00408324 -0.207055)
(1.31922 -0.0424277 -0.112838)
(1.23288 0.0141445 -0.194632)
(1.21898 0.0251934 -0.0989706)
(1.28472 -0.0378156 -0.116131)
(1.26104 0.021514 -0.0955765)
(0.926961 0.00339626 -0.069539)
(1.23446 0.0338728 -0.214791)
(1.35112 -0.0388191 -0.111834)
(1.24033 0.0254185 -0.231549)
(1.24409 0.0190976 -0.0945074)
(1.37258 -0.0413172 -0.112745)
(1.20353 -0.0400892 -0.0997334)
(1.24644 0.0209193 -0.102488)
(1.25492 -0.00779974 -0.190746)
(1.31607 0.0312215 -0.10786)
(1.23316 -0.0250781 -0.184946)
(1.28316 0.0281009 -0.110743)
(1.21801 -0.0343431 -0.0937289)
(1.25698 -0.0286424 -0.0909362)
(0.938258 -0.03021 -0.0707096)
(1.2319 -0.0425212 -0.198819)
(1.34883 0.0279463 -0.108312)
(1.23593 -0.0224055 -0.223341)
(1.37013 0.0325736 -0.110461)
(1.24165 -0.0265662 -0.089851)
(1.2147 -0.0362955 -0.0109797)
(1.23795 -0.0174872 -0.0110995)
(1.21844 -0.0301288 -0.0128689)
(1.22942 -0.0123954 -0.0108105)
(1.24377 -0.0191172 -0.00513248)
(1.23263 -0.0190134 -0.00958381)
(1.23831 -0.0111082 -0.00497585)
(1.21156 -0.00382058 -0.00533405)
(1.2148 -0.000915343 -0.00216597)
(1.21029 -0.00295198 -0.00504645)
(1.21354 -0.000625644 -0.000710712)
(1.21096 -0.00246586 -0.00275772)
(1.21136 -0.000504105 -0.000941617)
(1.20967 -0.00189446 -0.00247354)
(1.32455 -0.0583926 -0.0101976)
(1.28223 -0.0814984 -0.014997)
(1.27556 -0.0903554 -0.0136437)
(1.26558 -0.0789013 -0.0280714)
(1.31648 -0.0534523 -0.0080934)
(1.27676 -0.0786872 -0.00375899)
(1.29205 -0.0665011 -0.0108068)
(1.2742 -0.0694845 -0.0160422)
(1.26921 -0.0849505 -0.0139299)
(1.30919 -0.0485001 -0.0206851)
(1.21541 -0.041461 -0.00431474)
(1.24857 -0.020759 -0.00422167)
(1.23595 -0.0206504 -0.00774339)
(0.671932 0.108321 -0.0249312)
(0.265672 0.0677704 0.0531106)
(0.785498 0.0627279 -0.0904271)
(0.707422 0.144983 -0.0154613)
(0.746613 -0.0339927 -0.115754)
(0.749426 0.159613 -0.0282692)
(0.30679 0.0754219 -0.0112082)
(0.753275 0.184495 -0.0228191)
(0.721625 0.151106 -0.0315541)
(0.772874 0.190023 -0.0330134)
(1.22715 -0.0134596 -0.00827052)
(1.2185 -0.00933609 -0.00702086)
(1.21463 -0.0256629 -0.0101007)
(1.22367 -0.00994238 -0.0123873)
(1.22376 -0.00441075 -0.00635448)
(1.23001 -0.00931594 -0.00612634)
(1.21977 -0.00703208 -0.0111369)
(0.721033 0.151613 -0.0261981)
(0.295934 0.0724359 -0.00601487)
(0.774656 0.190048 -0.0262267)
(0.748562 0.158666 -0.0203407)
(0.750762 0.183271 -0.0183876)
(0.977143 0.139002 -0.0138804)
(0.560329 0.134219 -0.0136744)
(0.95353 0.204331 -0.0268629)
(0.570609 0.090119 -0.0322553)
(0.933256 0.197665 -0.0184643)
(0.551486 0.0829063 0.000120686)
(0.995915 0.144345 -0.0290203)
(0.742894 -0.155554 -0.0263546)
(0.320883 -0.0763924 -0.00629407)
(0.797578 -0.182855 -0.0212829)
(0.775702 -0.176886 -0.0178399)
(0.768268 -0.161879 -0.0150691)
(0.996472 -0.159022 -0.0107307)
(0.602296 -0.148861 -0.0119886)
(0.601956 -0.134124 -0.0282683)
(0.97695 -0.206775 -0.0225121)
(0.58485 -0.127512 0.00124065)
(0.958464 -0.201234 -0.016144)
(1.01358 -0.163354 -0.0249877)
(0.93857 0.0832333 -0.0466534)
(0.515301 0.0971684 0.0417318)
(0.934866 0.0597865 -0.0899431)
(0.612327 -0.030662 -0.055884)
(0.880927 0.131252 -0.0552461)
(0.500644 0.0249721 0.107049)
(0.97427 0.00461148 -0.0761424)
(0.991622 0.141563 -0.0363657)
(0.574435 0.138977 -0.0150774)
(0.936996 0.199374 -0.0248806)
(0.555675 0.0866029 0.00300148)
(0.950009 0.203125 -0.0349885)
(0.981353 0.141214 -0.0199613)
(0.56712 0.0863097 -0.0310866)
(0.705395 -0.105104 -0.0272339)
(0.296183 -0.0825877 0.0723056)
(0.845966 -0.0776682 -0.116434)
(0.756789 -0.151924 -0.0220123)
(0.804438 0.0410938 -0.121306)
(1.25492 -0.0719284 -0.0410856)
(1.28079 -0.0563907 0.00470127)
(1.27814 -0.0555242 -0.040259)
(1.2638 -0.0265831 -0.0185084)
(1.2639 -0.0602955 -0.00770808)
(1.29108 -0.0459527 -0.0299238)
(1.25743 -0.0697267 -0.0527196)
(0.769129 -0.162488 -0.0221366)
(0.330764 -0.0787352 -0.0092739)
(0.778655 -0.177641 -0.0207871)
(0.744023 -0.155237 -0.0302772)
(0.796095 -0.182172 -0.0268499)
(0.951459 -0.123051 -0.0599912)
(0.554335 -0.125647 0.0286651)
(0.653784 0.00529219 -0.0977254)
(0.973887 -0.0940171 -0.120201)
(0.464367 -0.085013 0.0881296)
(0.91236 -0.168011 -0.0676834)
(1.00389 -0.0395224 -0.105761)
(1.00955 -0.160557 -0.031622)
(0.615173 -0.15312 -0.0125528)
(0.589695 -0.13161 0.00417511)
(0.962507 -0.202363 -0.0212106)
(1.00095 -0.161088 -0.0161397)
(0.598203 -0.130335 -0.0268797)
(0.973854 -0.205232 -0.0293306)
(1.30903 -0.00203902 -0.150521)
(1.20709 0.00168836 -0.108754)
(1.39704 0.0183044 -0.163132)
(1.30264 -0.0153524 -0.145053)
(1.25523 0.0317456 -0.154255)
(1.28314 -0.0123168 -0.1104)
(1.32022 -0.0183244 -0.184899)
(1.37557 0.00501127 -0.12172)
(0.768782 -0.0105201 -0.0645619)
(1.25933 -0.0119047 -0.0537418)
(0.933608 -0.0527161 -0.102396)
(1.37681 0.0169986 -0.115501)
(1.26695 -0.0143445 -0.0597031)
(1.25967 -0.0355454 -0.0632577)
(1.23535 -0.0609197 -0.0823414)
(1.21168 -0.0291104 -0.0365126)
(1.29555 -0.0146538 -0.0996497)
(1.24296 -0.104736 -0.052096)
(1.27768 -0.0217297 -0.0808549)
(1.28239 -0.0140259 -0.0560902)
(1.30954 -0.0103292 -0.151892)
(1.38499 -0.0106915 -0.158504)
(1.25103 -0.0101898 -0.118057)
(1.30089 0.00381535 -0.145838)
(1.2903 -0.0526889 -0.149281)
(1.3179 0.000318409 -0.193799)
(1.2866 0.00588109 -0.107432)
(1.23706 -0.0242389 -0.0259419)
(1.25154 -0.0312596 -0.0276617)
(1.24589 -0.0506665 -0.0298528)
(1.24463 -0.0257032 -0.0291963)
(1.24452 -0.0310564 -0.0337132)
(1.25018 -0.0228525 -0.0190031)
(1.22955 -0.0522679 -0.0385458)
(1.38541 -0.0150278 -0.125113)
(0.784167 -0.0173532 -0.0659232)
(1.28135 0.00290289 -0.0577775)
(1.38612 -0.024868 -0.1182)
(0.946977 0.0314324 -0.103996)
(1.28621 -0.000801935 -0.0625835)
(1.26401 0.0354499 -0.0460708)
(1.22109 0.0517521 -0.0425219)
(1.28246 0.045847 -0.0944636)
(1.29507 0.00941973 -0.0974905)
(1.28272 0.0809191 -0.0596248)
(1.28024 0.0185505 -0.0586765)
(1.28015 0.0218162 -0.0687484)
(0.76534 0.166547 -0.0774096)
(0.314193 0.0784341 -0.0273901)
(0.75352 0.186082 -0.0478548)
(0.718765 0.150799 -0.0611957)
(0.78791 0.196748 -0.0730751)
(0.431605 0.078863 -0.0559208)
(0.589439 0.0700998 -0.138885)
(0.357401 0.0868639 -0.0690832)
(0.355075 0.083234 -0.0538417)
(0.722897 0.152259 -0.0479874)
(0.297685 0.073623 -0.0128499)
(0.789962 0.195575 -0.0558348)
(0.766465 0.163297 -0.0558764)
(0.754021 0.185966 -0.0375735)
(0.362173 0.0871934 -0.0197708)
(0.352003 0.0819946 -0.0213571)
(0.360098 0.0855553 -0.0354764)
(0.357802 0.0850268 -0.0450541)
(0.356496 0.0848533 -0.0132476)
(0.355675 0.0831498 -0.0103227)
(1.41532 -0.181827 0.00381639)
(1.37767 -0.150099 -0.0218156)
(1.5369 -0.137431 0.0300885)
(1.48861 -0.149565 -0.0350179)
(1.49519 -0.145073 0.022919)
(1.37267 -0.148965 -7.04301e-06)
(1.4197 -0.183765 -0.0249035)
(1.43165 -0.206527 0.00620842)
(1.40694 -0.168995 0.0142944)
(1.45304 -0.164658 -0.0358977)
(1.40774 -0.217476 -0.0292068)
(1.46057 -0.160573 0.0202053)
(1.40507 -0.214826 0.00652145)
(1.43511 -0.209012 -0.0276478)
(0.356068 -0.0802795 -0.0138931)
(0.355746 -0.0783722 -0.00984024)
(1.00803 0.145214 -0.0681523)
(0.584827 0.142799 -0.0352357)
(0.940424 0.200323 -0.050394)
(0.558382 0.0878395 -0.00611648)
(0.964811 0.208873 -0.0716998)
(0.987643 0.14138 -0.0431941)
(0.57839 0.0910484 -0.05376)
(0.982798 0.139849 -0.0325027)
(0.563283 0.135566 -0.0226454)
(0.967573 0.208738 -0.0544335)
(0.581407 0.0937926 -0.0449039)
(0.93828 0.199629 -0.0382119)
(1.0093 0.146162 -0.0524118)
(0.554182 0.0847055 -0.00737502)
(0.789776 -0.170121 -0.0639119)
(0.338791 -0.0811691 -0.0195005)
(0.782602 -0.178465 -0.0367787)
(0.744995 -0.15605 -0.0514403)
(0.815785 -0.188638 -0.0571971)
(0.430052 -0.0745659 -0.0385392)
(0.584874 -0.0695557 -0.111129)
(0.356267 -0.0808636 -0.0618598)
(0.353872 -0.0777406 -0.0485567)
(1.4037 -0.187956 -0.0089901)
(1.37854 -0.193156 -0.0442123)
(1.39806 -0.162464 0.00413805)
(1.43774 -0.15364 -0.0352233)
(1.44901 -0.153652 0.0128839)
(1.38254 -0.197263 -0.0092032)
(1.39827 -0.184043 -0.04328)
(1.39721 -0.173406 -0.0256108)
(1.37117 -0.144749 -0.000732821)
(1.48457 -0.149306 0.0214087)
(1.52389 -0.133525 -0.0346367)
(1.48377 -0.140364 -0.0349671)
(1.41365 -0.179054 0.00313578)
(1.35171 -0.139935 -0.0229267)
(1.41666 -0.198205 -0.0285913)
(1.39977 -0.1645 -0.0373998)
(1.44952 -0.164311 0.0171602)
(1.40337 -0.213535 0.00501498)
(1.4515 -0.156045 -0.0378854)
(1.42979 -0.204791 0.00515407)
(1.39316 -0.206821 -0.0306501)
(1.3819 -0.162753 -0.0109526)
(1.46742 -0.137551 -0.0314148)
(1.51939 -0.130328 0.0293218)
(1.32709 -0.126183 -0.0406548)
(1.47981 -0.137245 0.0180176)
(1.33456 -0.129028 -0.0148695)
(1.37524 -0.159581 -0.0418485)
(0.747358 -0.156764 -0.0421842)
(0.323082 -0.0772176 -0.0099732)
(0.81548 -0.186886 -0.0442674)
(0.789238 -0.167007 -0.0451107)
(0.781215 -0.177881 -0.0311753)
(0.361681 -0.0819761 -0.0186197)
(0.351516 -0.077242 -0.021129)
(0.359625 -0.0802515 -0.0325857)
(0.357748 -0.0793853 -0.0405396)
(1.36809 -0.153084 -0.0564387)
(1.37029 -0.169539 -0.0237746)
(1.43175 -0.145381 0.0121781)
(1.38087 -0.131084 -0.0267384)
(1.3527 -0.15626 -0.0569341)
(1.38872 -0.161875 -0.0236366)
(1.42489 -0.119391 -0.0163282)
(1.35939 -0.142616 -0.0926867)
(1.38129 -0.185173 -0.114672)
(1.45512 -0.0890964 0.0375901)
(1.38439 -0.00467335 -0.0077517)
(1.31238 -0.124603 -0.102023)
(1.42241 -0.0948186 0.0194857)
(1.41123 -0.18114 -0.109767)
(1.342 -0.138344 -0.0589081)
(1.46063 -0.130824 0.0193427)
(1.31801 -0.109573 -0.0309361)
(1.4836 -0.0995655 0.000394675)
(1.29338 -0.114295 -0.0617923)
(1.365 -0.140326 -0.0262511)
(1.44811 -0.10383 -0.00994266)
(1.38175 -0.150641 -0.0802457)
(1.35597 -0.120441 -0.00239982)
(1.38108 -0.158214 -0.12178)
(1.35665 -0.0240029 -0.0166186)
(1.36512 -0.149948 -0.0766209)
(1.39578 -0.108413 0.0142363)
(1.41576 -0.172241 -0.113505)
(1.02726 -0.16649 -0.0534816)
(0.627747 -0.159636 -0.0210554)
(0.593162 -0.131179 0.0046314)
(0.968834 -0.20317 -0.0372308)
(0.610328 -0.132292 -0.039127)
(0.992059 -0.21173 -0.0546031)
(1.00842 -0.162243 -0.0306971)
(1.00255 -0.159254 -0.0240799)
(0.606292 -0.150821 -0.0161162)
(0.612851 -0.136145 -0.035486)