/*--------------------------------*- C++ -*----------------------------------*\
| =========                 |                                                 |
| \\      /  F ield         | OpenFOAM: The Open Source CFD Toolbox           |
|  \\    /   O peration     | Version:  2012                                  |
|   \\  /    A nd           | Website:  www.openfoam.com                      |
|    \\/     M anipulation  |                                                 |
\*---------------------------------------------------------------------------*/
FoamFile
{
    version     2.0;
    format      ascii;
    class       volScalarField::Internal;
    location    "0.104/fluid";
    object      V0;
}
// * * * * * * * * * * * * * * * * * * * * * * * * * * * * * * * * * * * * * //

dimensions      [0 3 0 0 0 0 0];


value           nonuniform List<scalar> 
16422
(
4.28295e-05
4.24826e-05
4.24574e-05
4.24808e-05
4.24923e-05
4.24984e-05
4.2502e-05
4.25043e-05
4.25078e-05
4.25097e-05
4.25121e-05
4.2512e-05
4.25111e-05
4.25105e-05
4.25084e-05
4.25971e-05
4.25614e-05
4.25174e-05
4.25101e-05
4.25083e-05
4.25092e-05
4.25096e-05
4.25083e-05
4.2509e-05
4.25111e-05
4.25137e-05
4.2511e-05
4.25095e-05
4.25095e-05
4.25076e-05
4.25753e-05
4.25686e-05
4.25483e-05
4.25337e-05
4.25248e-05
4.252e-05
4.25168e-05
4.25135e-05
4.25131e-05
4.25154e-05
4.2514e-05
4.25108e-05
4.25095e-05
4.25083e-05
4.25068e-05
4.25452e-05
4.24775e-05
4.24755e-05
4.24899e-05
4.24981e-05
4.25005e-05
4.25047e-05
4.25067e-05
4.25101e-05
4.25113e-05
4.25133e-05
4.25117e-05
4.2511e-05
4.25112e-05
4.25093e-05
4.25452e-05
4.25333e-05
4.2515e-05
4.25115e-05
4.25105e-05
4.25109e-05
4.25104e-05
4.25082e-05
4.25097e-05
4.25122e-05
4.25137e-05
4.25118e-05
4.25088e-05
4.25098e-05
4.25078e-05
4.25542e-05
4.25515e-05
4.25398e-05
4.253e-05
4.2523e-05
4.25182e-05
4.25148e-05
4.25126e-05
4.25125e-05
4.25133e-05
4.2513e-05
4.25112e-05
4.25092e-05
4.25084e-05
4.25069e-05
4.25096e-05
4.25022e-05
4.24961e-05
4.24993e-05
4.25039e-05
4.25049e-05
4.25092e-05
4.25085e-05
4.25112e-05
4.25135e-05
4.25136e-05
4.25119e-05
4.25099e-05
4.25115e-05
4.25114e-05
4.25198e-05
4.25188e-05
4.25139e-05
4.25121e-05
4.25114e-05
4.2512e-05
4.25108e-05
4.25083e-05
4.25089e-05
4.25123e-05
4.25146e-05
4.25126e-05
4.25082e-05
4.25095e-05
4.2509e-05
4.25339e-05
4.25342e-05
4.25285e-05
4.25226e-05
4.25185e-05
4.25151e-05
4.25132e-05
4.25115e-05
4.25105e-05
4.25112e-05
4.25109e-05
4.25099e-05
4.25079e-05
4.25081e-05
4.25056e-05
4.25011e-05
4.25022e-05
4.25013e-05
4.2503e-05
4.2505e-05
4.25055e-05
4.25078e-05
4.25086e-05
4.25119e-05
4.25138e-05
4.25136e-05
4.25133e-05
4.25098e-05
4.2512e-05
4.25102e-05
4.2509e-05
4.25107e-05
4.25106e-05
4.25106e-05
4.25105e-05
4.25111e-05
4.25108e-05
4.25064e-05
4.25099e-05
4.25129e-05
4.25127e-05
4.25122e-05
4.2508e-05
4.2509e-05
4.25091e-05
4.25187e-05
4.25192e-05
4.2518e-05
4.25156e-05
4.25138e-05
4.25118e-05
4.25108e-05
4.25089e-05
4.25102e-05
4.2511e-05
4.25096e-05
4.25082e-05
4.25076e-05
4.25069e-05
4.25062e-05
5.33523e-06
4.24415e-05
5.34256e-06
4.2454e-05
4.25195e-05
4.24242e-05
4.23597e-05
4.24192e-05
4.27712e-05
4.26068e-05
4.26214e-05
4.25973e-05
3.2629e-08
3.3686e-08
4.23669e-05
4.24215e-05
4.24107e-05
4.2446e-05
4.26043e-05
4.26176e-05
4.25902e-05
4.2553e-05
4.25067e-05
4.25599e-05
4.25489e-05
4.25653e-05
4.24653e-05
4.25144e-05
4.25018e-05
3.36861e-08
6.80219e-08
5.38737e-06
3.37499e-08
4.19068e-05
4.31828e-05
6.81926e-08
3.47099e-08
6.80206e-08
3.72871e-08
5.39163e-06
5.35828e-06
3.375e-08
5.39961e-06
3.29384e-08
4.19277e-05
4.32098e-05
4.2443e-05
6.81923e-08
4.20006e-05
4.31352e-05
7.14261e-08
8.13811e-08
6.62276e-08
7.69672e-08
5.32756e-06
4.27657e-05
4.27487e-05
8.13972e-08
4.30599e-05
4.29611e-05
6.9177e-08
4.23966e-05
4.22768e-05
4.25582e-05
4.20607e-05
4.27437e-05
4.23967e-05
3.36768e-08
3.36865e-08
5.15723e-06
6.72986e-07
6.64562e-07
5.56556e-06
6.69386e-07
5.15771e-06
5.51124e-06
5.30207e-06
6.79116e-08
5.19625e-06
5.1732e-06
6.79778e-08
5.15712e-06
5.16032e-06
6.75744e-07
3.37256e-08
5.69325e-06
5.62585e-06
6.8004e-07
6.68232e-07
6.73116e-07
6.64733e-07
6.76466e-07
6.72977e-07
3.37426e-08
5.57025e-06
6.6955e-07
5.58292e-06
6.70999e-07
6.87442e-07
6.79406e-07
6.75215e-07
5.3112e-06
6.79729e-08
5.20935e-06
5.46097e-06
5.17493e-06
5.51114e-06
5.30711e-06
5.30683e-06
6.81131e-08
5.1576e-06
5.5131e-06
5.30271e-06
5.16018e-06
5.51573e-06
1.16919e-07
5.44676e-06
5.49338e-06
8.82546e-08
5.43004e-06
5.42914e-06
5.20039e-06
5.24924e-06
5.24064e-06
5.38993e-06
1.16996e-07
5.5012e-06
5.44306e-06
5.37872e-06
5.49242e-06
5.40309e-06
5.29912e-06
8.82674e-08
6.62637e-07
5.4307e-06
5.27738e-06
6.63766e-07
5.42924e-06
5.2828e-06
5.21249e-06
5.36236e-06
5.2501e-06
5.28911e-06
5.24342e-06
5.33411e-06
7.13602e-07
3.27624e-08
7.79244e-07
7.53965e-07
7.38803e-07
7.62829e-08
7.62614e-08
6.78922e-07
3.36872e-08
7.42794e-07
6.7876e-07
7.43034e-07
7.84401e-08
8.12157e-08
7.62542e-08
7.62641e-08
6.78649e-07
3.36853e-08
7.42807e-07
6.78711e-07
7.42681e-07
6.60636e-07
6.80211e-08
7.19293e-07
6.23287e-07
7.19182e-07
6.23341e-07
6.607e-07
7.62507e-08
7.62616e-08
6.78107e-07
3.37497e-08
7.41743e-07
7.41638e-07
6.78156e-07
6.60828e-07
6.81935e-08
6.23834e-07
7.19268e-07
6.23878e-07
7.19186e-07
6.60886e-07
6.58637e-07
5.75823e-08
6.71101e-07
6.38087e-07
6.95045e-07
6.30328e-07
6.55443e-07
6.60883e-07
6.8017e-08
7.19274e-07
6.23222e-07
7.19456e-07
6.60638e-07
6.23324e-07
7.18186e-07
3.36099e-08
7.87124e-07
7.66004e-07
7.41961e-07
7.62822e-08
7.62592e-08
6.78335e-07
3.37503e-08
7.41713e-07
6.7821e-07
7.41896e-07
7.84455e-08
8.12573e-08
6.60842e-07
5.51809e-08
6.45177e-07
6.73197e-07
6.33039e-07
6.95535e-07
6.5965e-07
6.60961e-07
6.81877e-08
6.23754e-07
7.19183e-07
6.60791e-07
6.23822e-07
7.1924e-07
6.98258e-07
7.24497e-07
1.24115e-07
6.48169e-07
6.80937e-07
6.81322e-07
7.4748e-07
6.44419e-07
9.33838e-08
7.16812e-07
7.30618e-08
6.50848e-07
7.30313e-07
6.51733e-07
6.56818e-07
6.38612e-07
6.25338e-07
6.52142e-07
6.58012e-07
6.41308e-07
6.9674e-07
1.24165e-07
7.19914e-07
6.47159e-07
6.79957e-07
7.47056e-07
6.78768e-07
6.44527e-07
9.33739e-08
7.16945e-07
6.50973e-07
7.31021e-08
7.30382e-07
6.53376e-07
6.44771e-07
6.59771e-07
6.2714e-07
6.55971e-07
6.4297e-07
6.58206e-07
6.90272e-07
3.32912e-08
7.43632e-07
6.82079e-07
7.45268e-07
6.55936e-07
9.09246e-08
8.80724e-08
6.71405e-07
6.36363e-07
8.54926e-08
6.28617e-07
8.69518e-08
7.77016e-08
8.51618e-08
8.51919e-08
7.76813e-08
7.62776e-08
7.63744e-08
7.76961e-08
8.53297e-08
8.51853e-08
7.77997e-08
6.7916e-07
3.36879e-08
7.43526e-07
6.79876e-07
7.43062e-07
6.25081e-07
8.52574e-08
8.5288e-08
6.24914e-07
6.25409e-07
8.54314e-08
6.2623e-07
8.52814e-08
7.98553e-08
8.93469e-08
8.79086e-08
8.11284e-08
7.74846e-08
7.63983e-08
7.89331e-08
8.53866e-08
8.68172e-08
7.78294e-08
7.76734e-08
8.51663e-08
7.76842e-08
8.51503e-08
3.36853e-08
6.24766e-07
8.52618e-08
6.24831e-07
8.52512e-08
6.80215e-08
7.76703e-08
8.51607e-08
8.51493e-08
7.76823e-08
8.51498e-08
3.37496e-08
6.24622e-07
8.52555e-08
8.5244e-08
6.24677e-07
8.52446e-08
6.81941e-08
6.61132e-07
6.095e-08
7.17285e-07
6.22017e-07
7.11119e-07
6.60375e-07
6.2809e-07
6.60663e-07
6.8014e-08
7.1923e-07
6.22447e-07
7.19311e-07
6.60769e-07
6.2301e-07
6.91839e-07
3.34233e-08
7.42639e-07
6.81946e-07
7.47132e-07
6.57203e-07
9.09428e-08
8.80829e-08
6.72533e-07
6.36923e-07
8.54919e-08
6.28679e-07
8.69591e-08
7.77004e-08
8.51577e-08
7.7679e-08
8.51897e-08
7.62772e-08
7.63739e-08
7.76961e-08
8.533e-08
8.5185e-08
7.77993e-08
6.78563e-07
3.37492e-08
7.42225e-07
6.79322e-07
7.41845e-07
6.24925e-07
8.52523e-08
6.24764e-07
8.52845e-08
6.25265e-07
8.5429e-08
6.26122e-07
8.52788e-08
7.98527e-08
8.93449e-08
8.79147e-08
8.11038e-08
7.74879e-08
7.63977e-08
7.89324e-08
8.53879e-08
8.68214e-08
7.78285e-08
6.61379e-07
5.96405e-08
6.21755e-07
7.15813e-07
6.27765e-07
7.09799e-07
6.59991e-07
6.60616e-07
6.81831e-08
6.22695e-07
7.18472e-07
6.2343e-07
7.18904e-07
6.60537e-07
6.74716e-07
1.22366e-07
6.74427e-07
7.10978e-07
6.30142e-07
6.65703e-07
7.28691e-07
6.50273e-07
9.02856e-08
8.0382e-08
7.11091e-07
7.39782e-08
6.58347e-07
7.2322e-07
6.74471e-07
1.22368e-07
6.74779e-07
7.11098e-07
6.30411e-07
7.28711e-07
6.65733e-07
6.50165e-07
9.02557e-08
8.03768e-08
7.11093e-07
7.39605e-08
7.23151e-07
6.58238e-07
4.29866e-05
4.28175e-05
4.29729e-05
4.27547e-05
4.27175e-05
4.27817e-05
4.26971e-05
4.25031e-05
4.25435e-05
4.2537e-05
4.25136e-05
4.25065e-05
4.25195e-05
4.25191e-05
5.35048e-06
5.34729e-06
5.32758e-06
5.35488e-06
5.36003e-06
5.35406e-06
5.35459e-06
5.36504e-06
5.33677e-06
5.37914e-06
4.29505e-05
4.27033e-05
4.2777e-05
9.70058e-08
3.15581e-08
8.90954e-08
9.88253e-08
1.06154e-07
8.75251e-08
3.36848e-08
1.10065e-07
8.7524e-08
1.10063e-07
4.26107e-05
4.26543e-05
4.28036e-05
4.26791e-05
4.25679e-05
4.26228e-05
4.26076e-05
8.75195e-08
3.36846e-08
1.10072e-07
8.75264e-08
1.10055e-07
8.265e-08
6.80211e-08
9.79788e-08
9.68885e-08
9.79594e-08
9.69096e-08
8.26474e-08
8.73597e-08
3.37483e-08
1.10032e-07
1.10015e-07
8.73659e-08
8.27714e-08
6.81913e-08
9.71151e-08
9.79413e-08
9.71328e-08
9.79238e-08
8.27676e-08
7.80681e-08
4.56746e-08
7.33646e-08
8.60733e-08
8.00327e-08
9.32577e-08
7.75853e-08
8.26586e-08
6.80181e-08
9.79716e-08
9.68798e-08
9.79616e-08
8.26407e-08
9.69034e-08
9.97577e-08
3.79619e-08
9.53715e-08
1.06584e-07
1.10383e-07
5.38313e-06
5.36629e-06
5.40741e-06
5.36904e-06
5.37591e-06
5.41042e-06
5.38113e-06
8.73645e-08
3.3749e-08
1.10025e-07
8.73635e-08
1.10022e-07
7.85562e-08
3.71312e-08
8.82851e-08
7.38525e-08
9.48581e-08
7.78916e-08
7.89081e-08
8.27731e-08
6.81902e-08
9.71077e-08
9.79333e-08
8.2758e-08
9.71296e-08
9.79224e-08
9.20313e-08
9.86916e-08
7.2915e-08
6.53908e-08
1.31344e-07
7.8048e-08
8.36706e-08
9.20288e-08
8.83984e-08
9.18761e-08
1.00781e-07
8.8459e-08
9.59748e-08
7.78569e-08
7.36615e-08
9.75302e-08
7.06857e-08
7.81576e-08
7.70321e-08
7.66591e-08
9.36997e-08
6.98635e-08
1.03137e-07
6.65663e-08
1.35801e-07
8.46905e-08
7.94285e-08
5.31539e-06
5.30888e-06
5.29998e-06
5.34267e-06
5.32065e-06
5.29155e-06
5.31013e-06
9.20888e-08
8.84295e-08
9.18899e-08
8.84878e-08
1.00916e-07
9.5997e-08
7.87728e-08
9.98391e-08
7.63186e-08
7.23519e-08
7.98992e-08
7.77265e-08
7.83667e-08
8.76095e-08
3.36425e-08
1.09969e-07
8.75444e-08
1.09798e-07
4.00669e-08
4.72769e-08
3.56811e-08
3.56465e-08
8.75249e-08
3.36859e-08
1.10058e-07
8.7541e-08
1.10048e-07
3.56259e-08
3.56259e-08
3.56304e-08
3.56348e-08
3.56249e-08
3.56253e-08
6.52241e-07
6.90086e-07
6.72698e-07
6.64925e-07
6.64613e-07
6.89971e-07
6.52376e-07
6.37431e-07
6.64232e-07
6.57381e-07
6.67317e-07
6.57082e-07
6.67165e-07
6.37565e-07
3.56229e-08
3.56234e-08
8.22124e-08
6.76965e-08
9.77441e-08
9.64801e-08
9.73422e-08
8.23964e-08
9.6041e-08
8.25939e-08
6.7997e-08
9.79001e-08
9.66895e-08
9.79126e-08
8.25499e-08
9.67997e-08
8.75742e-08
3.36806e-08
1.09919e-07
8.74197e-08
1.09769e-07
4.01022e-08
4.73562e-08
3.56809e-08
3.56453e-08
6.38842e-07
6.70333e-07
6.66206e-07
6.60928e-07
6.58942e-07
6.68698e-07
6.4036e-07
6.52908e-07
6.90238e-07
6.65074e-07
6.73796e-07
6.65786e-07
6.52549e-07
6.90566e-07
6.3816e-07
6.65472e-07
6.57536e-07
6.67524e-07
6.58251e-07
6.37757e-07
6.67959e-07
6.5354e-07
6.68505e-07
6.74444e-07
6.92474e-07
6.66466e-07
6.91134e-07
6.54978e-07
8.73629e-08
3.37458e-08
1.10009e-07
8.73863e-08
1.10002e-07
3.56242e-08
3.56236e-08
3.56292e-08
3.5634e-08
6.50799e-07
6.73813e-07
6.63677e-07
6.75641e-07
6.8129e-07
6.43617e-07
6.68586e-07
6.80788e-07
7.31193e-07
6.91669e-07
6.7989e-07
7.21689e-07
6.82654e-07
6.87745e-07
6.66056e-07
6.71378e-07
6.95669e-07
6.8536e-07
7.04256e-07
6.58179e-07
6.76901e-07
6.61573e-07
6.79496e-07
6.86646e-07
6.69667e-07
6.91771e-07
6.72951e-07
6.58789e-07
8.20843e-08
6.75409e-08
9.66408e-08
9.75584e-08
9.60926e-08
9.69797e-08
8.23852e-08
8.26698e-08
6.8157e-08
9.68948e-08
9.77911e-08
9.70152e-08
9.78411e-08
8.25929e-08
7.74538e-08
1.34934e-07
6.36246e-08
1.00554e-07
7.34013e-08
7.96584e-08
1.05148e-07
8.83259e-08
8.49211e-08
8.21194e-08
9.48004e-08
9.11326e-08
8.51984e-08
9.36731e-08
7.74957e-08
1.34965e-07
6.36717e-08
1.00582e-07
7.34721e-08
1.05161e-07
7.9684e-08
8.82956e-08
8.49093e-08
8.21062e-08
9.48081e-08
9.1068e-08
9.36649e-08
8.51958e-08
6.45569e-07
6.47766e-07
6.56808e-07
6.61024e-07
6.49953e-07
6.34271e-07
6.56849e-07
6.44903e-07
6.60007e-07
6.49198e-07
6.58258e-07
6.28824e-07
6.5498e-07
6.56124e-07
9.27463e-08
3.19051e-08
1.06624e-07
1.04169e-07
8.95017e-08
8.75123e-08
9.23702e-08
9.839e-08
8.07172e-08
8.28094e-08
7.40397e-08
7.96681e-08
7.6616e-08
3.50451e-08
7.62666e-08
9.72215e-08
5.53277e-08
9.72056e-08
5.53254e-08
3.50467e-08
8.39132e-08
8.3918e-08
3.50451e-08
7.62691e-08
9.72015e-08
5.53242e-08
3.50451e-08
9.72083e-08
5.53248e-08
8.39252e-08
8.39143e-08
8.75222e-08
3.36853e-08
1.10078e-07
1.10058e-07
8.75298e-08
7.7018e-08
7.17683e-08
7.70167e-08
7.177e-08
7.70165e-08
7.17724e-08
7.70217e-08
7.1768e-08
3.69305e-08
9.98971e-08
5.65497e-08
8.01786e-08
5.82345e-08
3.5868e-08
1.02332e-07
9.5171e-08
8.99178e-08
8.61365e-08
8.8081e-08
3.91829e-08
8.15533e-08
7.45417e-08
1.0971e-07
4.56963e-08
6.22428e-08
1.05295e-07
3.50452e-08
7.62587e-08
9.72016e-08
5.53223e-08
9.72019e-08
3.50452e-08
5.53229e-08
8.39162e-08
8.39107e-08
3.50446e-08
7.62572e-08
9.72041e-08
5.5324e-08
3.50451e-08
9.71991e-08
5.53224e-08
8.39121e-08
8.39141e-08
8.75226e-08
3.36843e-08
1.10061e-07
1.10059e-07
8.75224e-08
7.70139e-08
7.17691e-08
7.7018e-08
7.17661e-08
7.70163e-08
7.17668e-08
7.70154e-08
7.17682e-08
8.26567e-08
6.80207e-08
9.79695e-08
9.68883e-08
9.7964e-08
9.69128e-08
8.26395e-08
3.50448e-08
9.71988e-08
5.53229e-08
7.62575e-08
9.72003e-08
3.50455e-08
5.53233e-08
8.39155e-08
8.39096e-08
8.39116e-08
8.39136e-08
3.50443e-08
7.62551e-08
9.72022e-08
5.53249e-08
3.50455e-08
9.71971e-08
5.53226e-08
8.73631e-08
3.37488e-08
1.10023e-07
1.1002e-07
8.7362e-08
7.69115e-08
7.17344e-08
7.6915e-08
7.1732e-08
7.69135e-08
7.1733e-08
7.6913e-08
7.17337e-08
8.27773e-08
6.81924e-08
9.71151e-08
9.79379e-08
9.71382e-08
9.79286e-08
8.27623e-08
7.95904e-08
5.25409e-08
9.04531e-08
9.68493e-08
8.65098e-08
9.56537e-08
8.08939e-08
8.26484e-08
6.80166e-08
9.79767e-08
9.68698e-08
9.79544e-08
9.68933e-08
8.26496e-08
9.54058e-08
3.62582e-08
1.09143e-07
1.10929e-07
9.11731e-08
8.86621e-08
9.26411e-08
9.90416e-08
8.12375e-08
8.39777e-08
7.44118e-08
8.0465e-08
7.71288e-08
3.50462e-08
5.53284e-08
7.6266e-08
9.72206e-08
9.72048e-08
5.53264e-08
3.50471e-08
8.39129e-08
8.39173e-08
3.50461e-08
7.6268e-08
9.72e-08
5.53252e-08
3.50461e-08
9.72069e-08
5.53258e-08
8.39255e-08
8.39142e-08
8.73619e-08
3.37491e-08
1.10035e-07
1.10017e-07
8.73684e-08
7.69153e-08
7.17335e-08
7.6914e-08
7.17349e-08
7.69137e-08
7.17375e-08
7.6919e-08
7.17341e-08
3.6948e-08
5.65527e-08
9.99122e-08
8.01906e-08
5.82398e-08
3.58756e-08
1.02367e-07
9.521e-08
8.99526e-08
8.61466e-08
8.81004e-08
3.92242e-08
8.15744e-08
7.45679e-08
1.09861e-07
4.57926e-08
6.22504e-08
1.05368e-07
7.98207e-08
4.49944e-08
9.79078e-08
8.89807e-08
9.71309e-08
8.391e-08
8.10602e-08
8.27589e-08
6.81885e-08
9.70967e-08
9.79309e-08
9.71188e-08
9.7914e-08
8.27535e-08
8.7807e-08
1.1296e-07
1.01207e-07
1.11045e-07
1.02569e-07
9.94111e-08
8.85587e-08
9.53519e-08
9.38565e-08
1.09915e-07
9.95226e-08
1.14629e-07
9.92685e-08
9.57581e-08
7.4715e-08
9.56447e-08
7.81411e-08
5.73627e-08
7.74754e-08
7.21889e-08
7.62929e-08
8.16973e-08
9.58506e-08
6.69301e-08
7.50658e-08
7.6908e-08
8.84663e-08
1.1253e-07
1.01455e-07
1.11054e-07
1.03742e-07
9.91852e-08
8.86837e-08
9.53957e-08
9.38758e-08
1.0987e-07
9.95179e-08
1.14725e-07
9.92833e-08
9.57425e-08
7.47541e-08
9.56718e-08
5.74006e-08
7.75029e-08
7.22402e-08
7.63154e-08
8.17177e-08
9.59856e-08
6.70117e-08
7.50762e-08
7.69677e-08
8.77351e-08
3.353e-08
1.0829e-07
8.82486e-08
1.09217e-07
7.7191e-08
7.18142e-08
7.19293e-08
7.70691e-08
7.74377e-08
7.27894e-08
7.81613e-08
7.21496e-08
6.37082e-08
8.71739e-08
7.53746e-08
7.63679e-08
3.76613e-08
3.65292e-08
5.94346e-08
6.9191e-08
7.14026e-08
5.76006e-08
5.63182e-08
6.74087e-08
6.75092e-08
5.62642e-08
3.57745e-08
3.6007e-08
5.64574e-08
6.82027e-08
6.76823e-08
5.68104e-08
7.02871e-08
8.05862e-08
7.76867e-08
6.63098e-08
6.6308e-08
8.05668e-08
7.02894e-08
7.28932e-08
7.66054e-08
8.51716e-08
8.31085e-08
8.31184e-08
7.66073e-08
7.28916e-08
7.28942e-08
8.31331e-08
8.51671e-08
7.66122e-08
8.31133e-08
7.28976e-08
7.66077e-08
7.02857e-08
7.76897e-08
6.63057e-08
8.05605e-08
6.63067e-08
8.05708e-08
7.02843e-08
3.50481e-08
7.63073e-08
9.72159e-08
5.53286e-08
3.50468e-08
9.72386e-08
5.53323e-08
8.39789e-08
8.39315e-08
3.50492e-08
7.63061e-08
9.72903e-08
5.53463e-08
9.72328e-08
5.53355e-08
3.50527e-08
8.39199e-08
8.39383e-08
7.02968e-08
8.0582e-08
7.77285e-08
6.63112e-08
8.06181e-08
7.02909e-08
6.63164e-08
7.29119e-08
7.66551e-08
8.52295e-08
8.325e-08
8.31646e-08
7.66291e-08
7.29341e-08
7.29048e-08
8.3128e-08
8.52272e-08
7.66129e-08
8.31645e-08
7.28982e-08
7.66216e-08
7.03033e-08
7.77281e-08
8.07012e-08
6.6337e-08
8.06176e-08
6.63217e-08
7.03225e-08
8.7529e-08
3.36866e-08
1.10067e-07
8.75257e-08
1.10065e-07
7.70234e-08
7.17954e-08
7.70465e-08
7.17741e-08
7.70255e-08
7.17693e-08
7.70184e-08
7.17775e-08
5.62342e-08
6.73607e-08
6.73619e-08
5.62343e-08
3.56259e-08
3.56268e-08
5.62346e-08
6.73657e-08
6.73606e-08
5.62358e-08
5.62401e-08
6.73928e-08
5.62479e-08
6.73701e-08
3.56289e-08
3.56269e-08
5.62388e-08
6.73644e-08
6.73724e-08
5.62363e-08
7.39664e-08
8.29302e-08
6.78204e-08
8.14559e-08
6.96761e-08
7.20587e-08
8.44896e-08
7.98572e-08
9.37751e-08
9.05284e-08
8.65705e-08
8.30253e-08
8.80346e-08
9.133e-08
7.68053e-08
8.56318e-08
7.8801e-08
8.95009e-08
8.06415e-08
7.48962e-08
8.71914e-08
7.73164e-08
8.2453e-08
8.53161e-08
8.38468e-08
7.32939e-08
8.53729e-08
8.90861e-08
3.51751e-08
7.68075e-08
9.85999e-08
5.58476e-08
3.53858e-08
9.778e-08
5.55374e-08
8.40001e-08
8.41731e-08
3.50933e-08
7.65962e-08
9.73139e-08
5.53633e-08
3.50623e-08
9.75165e-08
5.54172e-08
8.50798e-08
8.43978e-08
7.06439e-08
8.19583e-08
7.82576e-08
6.69801e-08
8.12292e-08
7.11057e-08
6.6593e-08
7.30827e-08
7.67025e-08
8.56669e-08
8.32955e-08
7.6829e-08
7.29735e-08
8.35467e-08
7.33188e-08
8.4605e-08
8.59859e-08
7.76881e-08
7.70982e-08
8.38325e-08
7.38503e-08
7.04463e-08
7.80379e-08
8.07394e-08
6.63613e-08
7.03545e-08
8.09757e-08
6.64349e-08
7.02832e-08
7.76794e-08
8.05526e-08
6.63031e-08
6.63041e-08
8.05583e-08
7.02816e-08
7.28899e-08
7.66054e-08
8.31112e-08
8.51555e-08
7.28916e-08
8.31056e-08
7.66028e-08
7.02825e-08
7.76777e-08
6.63054e-08
8.05631e-08
6.63034e-08
7.02843e-08
8.05563e-08
7.28909e-08
8.31002e-08
8.51577e-08
7.66024e-08
8.31095e-08
7.28891e-08
7.66026e-08
1.10067e-07
8.75252e-08
7.17678e-08
7.70169e-08
5.62334e-08
6.73612e-08
6.73582e-08
5.6234e-08
3.56254e-08
3.56247e-08
5.62342e-08
6.73592e-08
6.73599e-08
5.62338e-08
6.736e-08
5.62337e-08
9.79758e-08
9.68939e-08
8.26463e-08
7.02833e-08
6.63024e-08
8.05522e-08
7.76775e-08
6.63037e-08
7.02823e-08
8.05556e-08
7.28897e-08
7.66025e-08
8.51508e-08
8.31077e-08
8.31011e-08
7.66002e-08
7.28916e-08
7.289e-08
8.30998e-08
7.65998e-08
8.5153e-08
7.28894e-08
8.31034e-08
7.66e-08
7.02831e-08
7.76752e-08
6.63057e-08
8.05619e-08
6.63033e-08
8.0554e-08
7.02849e-08
8.05525e-08
7.02822e-08
8.31003e-08
7.65997e-08
7.28893e-08
1.10026e-07
8.73634e-08
7.17335e-08
7.6914e-08
5.62321e-08
6.7354e-08
6.73515e-08
5.62326e-08
3.56233e-08
3.56234e-08
5.62326e-08
6.73522e-08
6.7353e-08
5.62327e-08
3.56232e-08
6.73525e-08
5.62326e-08
9.71199e-08
9.79426e-08
8.2769e-08
8.21753e-08
6.52749e-08
9.32351e-08
9.81553e-08
8.21133e-08
9.57576e-08
9.68712e-08
8.26367e-08
6.80076e-08
9.79594e-08
9.68482e-08
8.26285e-08
9.79455e-08
9.68492e-08
8.79351e-08
3.35683e-08
1.08942e-07
8.89825e-08
1.09312e-07
7.71814e-08
7.17973e-08
7.19417e-08
7.69992e-08
7.7565e-08
7.29951e-08
7.85545e-08
7.22314e-08
6.37689e-08
8.72934e-08
7.55658e-08
7.64013e-08
3.76797e-08
3.65385e-08
5.95044e-08
6.93573e-08
7.16139e-08
5.76567e-08
5.63267e-08
6.74124e-08
6.75283e-08
5.62663e-08
3.57758e-08
3.60111e-08
5.64758e-08
6.83056e-08
6.77327e-08
5.68458e-08
7.02871e-08
6.63092e-08
7.76854e-08
8.05861e-08
6.63075e-08
7.02901e-08
8.05664e-08
7.28935e-08
7.66027e-08
8.31059e-08
8.5169e-08
7.28921e-08
8.31161e-08
7.66051e-08
7.02861e-08
7.76881e-08
6.6305e-08
8.05596e-08
6.63061e-08
7.02851e-08
8.05695e-08
7.28943e-08
8.31312e-08
7.66103e-08
8.51654e-08
7.28983e-08
8.31121e-08
7.66059e-08
3.50493e-08
5.53293e-08
9.72141e-08
7.63068e-08
3.50473e-08
5.53339e-08
9.72375e-08
8.39789e-08
8.39311e-08
8.39184e-08
8.39381e-08
3.50506e-08
7.63043e-08
5.53484e-08
9.72892e-08
5.53371e-08
9.72313e-08
3.50541e-08
7.02986e-08
6.63108e-08
8.0582e-08
7.77279e-08
8.06182e-08
7.02922e-08
6.63168e-08
7.29142e-08
7.66537e-08
8.5231e-08
8.32472e-08
8.31641e-08
7.66286e-08
7.29357e-08
7.29065e-08
8.31264e-08
8.52254e-08
7.66112e-08
8.31623e-08
7.28996e-08
7.66203e-08
7.03044e-08
7.77266e-08
8.0702e-08
6.63378e-08
8.0618e-08
6.63211e-08
7.03247e-08
8.73675e-08
3.37474e-08
1.10022e-07
8.73633e-08
1.10021e-07
7.69222e-08
7.17654e-08
7.69534e-08
7.17406e-08
7.6923e-08
7.17353e-08
7.69158e-08
7.17421e-08
5.62335e-08
6.73538e-08
6.7355e-08
5.62332e-08
3.5625e-08
3.56259e-08
5.6234e-08
6.73588e-08
6.73544e-08
5.62351e-08
5.62396e-08
6.73906e-08
5.62482e-08
6.73649e-08
3.56275e-08
3.56261e-08
5.62374e-08
6.73577e-08
6.7365e-08
5.62353e-08
7.39521e-08
6.78157e-08
8.29269e-08
8.14502e-08
6.96648e-08
7.20533e-08
8.44803e-08
7.98294e-08
9.37628e-08
9.05302e-08
8.65393e-08
8.30157e-08
8.8014e-08
9.12717e-08
7.6794e-08
8.56264e-08
7.88021e-08
8.95069e-08
8.06386e-08
7.48923e-08
8.71822e-08
7.72849e-08
8.2438e-08
8.52375e-08
8.38159e-08
7.32621e-08
8.53523e-08
8.90345e-08
3.51768e-08
5.58504e-08
9.86071e-08
7.68086e-08
3.53901e-08
5.55387e-08
9.77835e-08
8.39997e-08
8.41736e-08
8.50851e-08
8.44004e-08
3.50943e-08
7.65968e-08
5.53649e-08
9.73126e-08
3.50637e-08
5.54181e-08
9.75174e-08
7.06439e-08
6.69781e-08
8.19597e-08
7.82577e-08
8.12311e-08
7.11049e-08
6.65921e-08
7.30848e-08
7.67022e-08
8.5669e-08
8.32951e-08
7.68298e-08
7.29755e-08
8.35459e-08
7.33189e-08
8.46031e-08
8.59915e-08
7.76882e-08
7.70986e-08
8.3832e-08
7.38498e-08
7.04478e-08
7.80378e-08
8.0742e-08
6.63618e-08
7.03564e-08
8.09785e-08
6.64341e-08
8.1882e-08
6.45268e-08
9.81857e-08
9.22409e-08
8.19418e-08
9.66272e-08
9.50646e-08
8.27263e-08
6.8174e-08
9.70742e-08
9.79102e-08
8.27279e-08
9.70719e-08
9.78881e-08
8.09689e-08
1.27755e-07
9.68497e-08
1.07353e-07
8.49861e-08
8.8643e-08
1.0598e-07
9.13111e-08
8.69029e-08
1.04395e-07
9.76884e-08
9.39227e-08
9.80037e-08
9.53301e-08
7.90086e-08
9.66075e-08
7.83074e-08
8.06277e-08
9.4252e-08
7.94892e-08
7.93372e-08
7.82634e-08
7.70362e-08
8.89739e-08
7.6171e-08
7.71395e-08
9.20459e-08
7.82896e-08
8.09916e-08
1.27704e-07
9.69416e-08
1.07364e-07
8.50453e-08
8.8657e-08
1.05972e-07
9.12699e-08
8.6882e-08
1.04259e-07
9.76703e-08
9.3871e-08
9.79261e-08
9.53144e-08
7.89801e-08
9.65881e-08
7.82779e-08
8.06279e-08
9.41881e-08
7.94782e-08
7.93165e-08
7.82332e-08
7.70247e-08
8.88911e-08
7.61446e-08
7.71114e-08
9.19934e-08
7.82696e-08
4.24396e-05
4.2469e-05
4.24738e-05
4.24848e-05
4.24874e-05
4.2495e-05
4.24962e-05
4.24992e-05
4.24994e-05
4.25019e-05
4.25026e-05
4.25071e-05
4.25071e-05
4.25088e-05
4.25097e-05
4.25112e-05
4.2512e-05
4.25116e-05
4.25122e-05
4.25107e-05
4.2511e-05
4.25114e-05
4.25113e-05
4.25081e-05
4.25084e-05
4.25075e-05
4.24838e-05
4.24466e-05
4.25634e-05
4.25106e-05
4.24567e-05
4.24758e-05
4.25051e-05
4.25012e-05
4.24794e-05
4.24885e-05
4.25007e-05
4.25027e-05
4.24908e-05
4.24973e-05
4.25028e-05
4.25055e-05
4.2498e-05
4.25007e-05
4.25057e-05
4.25068e-05
4.25008e-05
4.25029e-05
4.25066e-05
4.25069e-05
4.25033e-05
4.25068e-05
4.25066e-05
4.25074e-05
4.25068e-05
4.25085e-05
4.2508e-05
4.25098e-05
4.25088e-05
4.25112e-05
4.25099e-05
4.25126e-05
4.25116e-05
4.25117e-05
4.25124e-05
4.25114e-05
4.25118e-05
4.25104e-05
4.25109e-05
4.25091e-05
4.25106e-05
4.2511e-05
4.25102e-05
4.25098e-05
4.25108e-05
4.25076e-05
4.25092e-05
4.25076e-05
4.25081e-05
4.25075e-05
4.25079e-05
4.25061e-05
4.26015e-05
4.25882e-05
4.25793e-05
4.25759e-05
4.25668e-05
4.25248e-05
4.25695e-05
4.25491e-05
4.25184e-05
4.25109e-05
4.25434e-05
4.25316e-05
4.25094e-05
4.25081e-05
4.25287e-05
4.25225e-05
4.25073e-05
4.25083e-05
4.2521e-05
4.25184e-05
4.25086e-05
4.25096e-05
4.25177e-05
4.25162e-05
4.25093e-05
4.25088e-05
4.25155e-05
4.25135e-05
4.25082e-05
4.25084e-05
4.25125e-05
4.2512e-05
4.25088e-05
4.25108e-05
4.25129e-05
4.25137e-05
4.25115e-05
4.25133e-05
4.25143e-05
4.25143e-05
4.2513e-05
4.25113e-05
4.25143e-05
4.2512e-05
4.25113e-05
4.25088e-05
4.25114e-05
4.25092e-05
4.25098e-05
4.25094e-05
4.25095e-05
4.25089e-05
4.2509e-05
4.25075e-05
4.25085e-05
4.25078e-05
4.25074e-05
4.2506e-05
4.25074e-05
4.25058e-05
4.25795e-05
4.25768e-05
4.25872e-05
4.25863e-05
4.25719e-05
4.25551e-05
4.25835e-05
4.25702e-05
4.25497e-05
4.25371e-05
4.2565e-05
4.25504e-05
4.25339e-05
4.25265e-05
4.25462e-05
4.25359e-05
4.25247e-05
4.2521e-05
4.25333e-05
4.25269e-05
4.25201e-05
4.25178e-05
4.25254e-05
4.25212e-05
4.25169e-05
4.25145e-05
4.25201e-05
4.25167e-05
4.25134e-05
4.25133e-05
4.25158e-05
4.25148e-05
4.25131e-05
4.25144e-05
4.25149e-05
4.25157e-05
4.25149e-05
4.25142e-05
4.25156e-05
4.25144e-05
4.25141e-05
4.25117e-05
4.25135e-05
4.25113e-05
4.2511e-05
4.25093e-05
4.2511e-05
4.25094e-05
4.25096e-05
4.25088e-05
4.25097e-05
4.25086e-05
4.25081e-05
4.25078e-05
4.25083e-05
4.25082e-05
4.25072e-05
4.25057e-05
4.2508e-05
4.25052e-05
4.24406e-05
4.24703e-05
4.24568e-05
4.24779e-05
4.24748e-05
4.24862e-05
4.24814e-05
4.24911e-05
4.24885e-05
4.24952e-05
4.24931e-05
4.24961e-05
4.24964e-05
4.25003e-05
4.24971e-05
4.25022e-05
4.25007e-05
4.25028e-05
4.25036e-05
4.25055e-05
4.25036e-05
4.25069e-05
4.25067e-05
4.25092e-05
4.25081e-05
4.25089e-05
4.25099e-05
4.25096e-05
4.25102e-05
4.25116e-05
4.25108e-05
4.2513e-05
4.25123e-05
4.2512e-05
4.25125e-05
4.25128e-05
4.25125e-05
4.25106e-05
4.25127e-05
4.25109e-05
4.25113e-05
4.25116e-05
4.25111e-05
4.25125e-05
4.25109e-05
4.25092e-05
4.2511e-05
4.25104e-05
4.25088e-05
4.25081e-05
4.25094e-05
4.25089e-05
4.24477e-05
4.25572e-05
4.25088e-05
4.24682e-05
4.24626e-05
4.25321e-05
4.25066e-05
4.24776e-05
4.25045e-05
4.25021e-05
4.24694e-05
4.24848e-05
4.25051e-05
4.25047e-05
4.24902e-05
4.25018e-05
4.25037e-05
4.24873e-05
4.24947e-05
4.25053e-05
4.25059e-05
4.24978e-05
4.25038e-05
4.25061e-05
4.24966e-05
4.24989e-05
4.25061e-05
4.25075e-05
4.25017e-05
4.25064e-05
4.25075e-05
4.24994e-05
4.2503e-05
4.25079e-05
4.25081e-05
4.25037e-05
4.25072e-05
4.25071e-05
4.2504e-05
4.25053e-05
4.2508e-05
4.25072e-05
4.25072e-05
4.2507e-05
4.25073e-05
4.25064e-05
4.2509e-05
4.25072e-05
4.25085e-05
4.25087e-05
4.2508e-05
4.25097e-05
4.25097e-05
4.25096e-05
4.25088e-05
4.25107e-05
4.25118e-05
4.25101e-05
4.25127e-05
4.25108e-05
4.2513e-05
4.25119e-05
4.25136e-05
4.2512e-05
4.25131e-05
4.25118e-05
4.25126e-05
4.25127e-05
4.25142e-05
4.25127e-05
4.25102e-05
4.25108e-05
4.251e-05
4.25122e-05
4.25103e-05
4.25122e-05
4.251e-05
4.25113e-05
4.251e-05
4.25105e-05
4.25105e-05
4.25124e-05
4.25095e-05
4.25114e-05
4.25087e-05
4.25096e-05
4.25087e-05
4.2511e-05
4.25101e-05
4.25105e-05
4.25091e-05
4.25079e-05
4.25081e-05
4.25061e-05
4.2509e-05
4.25085e-05
4.2508e-05
4.25064e-05
4.2582e-05
4.2575e-05
4.2572e-05
4.25575e-05
4.2551e-05
4.25573e-05
4.25562e-05
4.25229e-05
4.2566e-05
4.25474e-05
4.25398e-05
4.25183e-05
4.25524e-05
4.25405e-05
4.25114e-05
4.25422e-05
4.25315e-05
4.25156e-05
4.25117e-05
4.25369e-05
4.25291e-05
4.25091e-05
4.25288e-05
4.25228e-05
4.25115e-05
4.25106e-05
4.2527e-05
4.25225e-05
4.25089e-05
4.25213e-05
4.25186e-05
4.25102e-05
4.25103e-05
4.25211e-05
4.25181e-05
4.25099e-05
4.25179e-05
4.25162e-05
4.25107e-05
4.25105e-05
4.25175e-05
4.25155e-05
4.25087e-05
4.25155e-05
4.25134e-05
4.25102e-05
4.25088e-05
4.25149e-05
4.25129e-05
4.25085e-05
4.25127e-05
4.2512e-05
4.25084e-05
4.25091e-05
4.25126e-05
4.25126e-05
4.25108e-05
4.25124e-05
4.25137e-05
4.25099e-05
4.25116e-05
4.25125e-05
4.25131e-05
4.25128e-05
4.25151e-05
4.25149e-05
4.25121e-05
4.25133e-05
4.25143e-05
4.25142e-05
4.2512e-05
4.25142e-05
4.2512e-05
4.25137e-05
4.25129e-05
4.25135e-05
4.25125e-05
4.25096e-05
4.25109e-05
4.25095e-05
4.25119e-05
4.2509e-05
4.2511e-05
4.25086e-05
4.25102e-05
4.25093e-05
4.25096e-05
4.2509e-05
4.25107e-05
4.25091e-05
4.25094e-05
4.25085e-05
4.25085e-05
4.25084e-05
4.25097e-05
4.25084e-05
4.2508e-05
4.25081e-05
4.25058e-05
4.25071e-05
4.2505e-05
4.25075e-05
4.25058e-05
4.2507e-05
4.25029e-05
4.25731e-05
4.25832e-05
4.25826e-05
4.25597e-05
4.25589e-05
4.2569e-05
4.25683e-05
4.25532e-05
4.258e-05
4.25678e-05
4.25561e-05
4.2546e-05
4.25665e-05
4.25583e-05
4.25368e-05
4.2563e-05
4.25493e-05
4.25424e-05
4.2534e-05
4.25548e-05
4.25448e-05
4.25266e-05
4.25454e-05
4.25356e-05
4.25315e-05
4.25256e-05
4.25416e-05
4.25333e-05
4.25209e-05
4.2533e-05
4.25265e-05
4.25241e-05
4.252e-05
4.25309e-05
4.25248e-05
4.25176e-05
4.25249e-05
4.25205e-05
4.25191e-05
4.25163e-05
4.25232e-05
4.25188e-05
4.25143e-05
4.25195e-05
4.25164e-05
4.25155e-05
4.25134e-05
4.25177e-05
4.25154e-05
4.25128e-05
4.25155e-05
4.25142e-05
4.25131e-05
4.25123e-05
4.25151e-05
4.25152e-05
4.25142e-05
4.25149e-05
4.25153e-05
4.25126e-05
4.25127e-05
4.25143e-05
4.25138e-05
4.25149e-05
4.2516e-05
4.25148e-05
4.25138e-05
4.2514e-05
4.25147e-05
4.25137e-05
4.25118e-05
4.25133e-05
4.25112e-05
4.25131e-05
4.2512e-05
4.2512e-05
4.25105e-05
4.25098e-05
4.25103e-05
4.25103e-05
4.25105e-05
4.25089e-05
4.25096e-05
4.25096e-05
4.25096e-05
4.25099e-05
4.25097e-05
4.25095e-05
4.25096e-05
4.25104e-05
4.25101e-05
4.25083e-05
4.25085e-05
4.25088e-05
4.25078e-05
4.25078e-05
4.2508e-05
4.2508e-05
4.25046e-05
4.25077e-05
4.25034e-05
4.25067e-05
4.25018e-05
4.25073e-05
4.25e-05
4.24446e-05
4.24581e-05
4.24937e-05
4.24864e-05
4.2465e-05
4.24816e-05
4.24872e-05
4.24929e-05
4.24843e-05
4.24927e-05
4.2494e-05
4.2498e-05
4.24947e-05
4.24971e-05
4.25e-05
4.25014e-05
4.24981e-05
4.25028e-05
4.25023e-05
4.2506e-05
4.25041e-05
4.25061e-05
4.25075e-05
4.25079e-05
4.25072e-05
4.25103e-05
4.2509e-05
4.25111e-05
4.25104e-05
4.25101e-05
4.25115e-05
4.25122e-05
4.25112e-05
4.25136e-05
4.25136e-05
4.25138e-05
4.25129e-05
4.25129e-05