/*--------------------------------*- C++ -*----------------------------------*\
| =========                 |                                                 |
| \\      /  F ield         | OpenFOAM: The Open Source CFD Toolbox           |
|  \\    /   O peration     | Version:  2012                                  |
|   \\  /    A nd           | Website:  www.openfoam.com                      |
|    \\/     M anipulation  |                                                 |
\*---------------------------------------------------------------------------*/
FoamFile
{
    version     2.0;
    format      ascii;
    class       volVectorField;
    location    "0.108/solid";
    object      D;
}
// * * * * * * * * * * * * * * * * * * * * * * * * * * * * * * * * * * * * * //

dimensions      [0 1 0 0 0 0 0];


internalField   nonuniform List<vector> 
3125
(
(-6.17971e-05 5.70136e-06 4.27959e-06)
(-5.77138e-05 7.16221e-06 -2.39724e-06)
(-2.49083e-05 -1.90194e-06 3.90956e-06)
(-2.30924e-05 -7.9791e-07 3.75056e-06)
(-1.22779e-05 3.36655e-06 1.29922e-06)
(-1.11746e-05 3.60282e-06 1.11759e-06)
(-6.1157e-06 4.47432e-06 1.66946e-06)
(-5.63255e-06 4.49108e-06 2.27354e-06)
(-3.60594e-05 -2.80967e-06 -1.61247e-06)
(-3.1963e-05 -3.96293e-06 9.90713e-07)
(-1.79178e-05 1.71327e-06 2.54227e-06)
(-1.63342e-05 2.26854e-06 2.15383e-06)
(-8.52583e-06 4.0898e-06 8.71384e-07)
(-7.82594e-06 4.20493e-06 9.12124e-07)
(-5.59756e-05 -5.66581e-07 1.07549e-05)
(-6.72846e-05 1.24288e-05 -2.70866e-06)
(-0.000148177 2.0957e-05 6.23008e-06)
(-0.00018024 5.59404e-05 -6.01342e-06)
(-7.08412e-05 7.0717e-06 4.15081e-06)
(-0.000128615 2.2186e-05 6.15567e-06)
(-5.4741e-05 1.15072e-05 -6.73281e-06)
(-0.000149785 2.51131e-05 3.79965e-07)
(-4.96484e-05 4.14054e-06 -5.19425e-06)
(-0.000128305 9.27529e-06 -6.76124e-06)
(-0.000178222 5.58356e-05 -3.44821e-06)
(-4.28853e-05 6.59992e-06 -6.19279e-06)
(-6.9805e-05 -1.55248e-06 8.58549e-06)
(-2.68387e-05 -3.00024e-06 3.67048e-06)
(-2.68109e-05 2.2349e-07 3.84992e-06)
(-6.40077e-05 3.55614e-06 8.0766e-06)
(-2.79724e-05 -7.37731e-07 3.86225e-06)
(-5.75665e-05 8.03562e-06 7.06228e-06)
(-2.54359e-05 1.12021e-06 3.57012e-06)
(-2.13208e-05 1.91153e-07 3.39369e-06)
(-6.31668e-05 4.12317e-06 7.97219e-06)
(-2.3901e-05 1.87182e-06 3.18273e-06)
(-4.3054e-05 1.22251e-05 4.48975e-06)
(-1.35055e-05 3.07575e-06 1.53139e-06)
(-1.49609e-05 3.93426e-06 1.28011e-06)
(-3.79252e-05 1.28996e-05 3.63809e-06)
(-1.62212e-05 3.77259e-06 1.48896e-06)
(-3.29929e-05 1.3329e-05 2.97085e-06)
(-1.38206e-05 4.05991e-06 1.11392e-06)
(-1.01897e-05 3.79639e-06 9.85086e-07)
(-3.72576e-05 1.29639e-05 3.53324e-06)
(-1.27949e-05 4.15879e-06 9.90169e-07)
(-2.51418e-05 1.36435e-05 3.50262e-06)
(-6.63129e-06 4.4004e-06 1.27934e-06)
(-8.42063e-06 4.50264e-06 1.64005e-06)
(-2.24433e-05 1.35542e-05 5.54252e-06)
(-9.00193e-06 4.45909e-06 1.25697e-06)
(-1.94243e-05 1.15829e-05 1.16193e-05)
(-7.87098e-06 4.49994e-06 2.23943e-06)
(-5.14417e-06 4.31599e-06 3.26766e-06)
(-2.20695e-05 1.34982e-05 6.01806e-06)
(-7.35671e-06 4.30476e-06 3.27245e-06)
(-3.24395e-05 1.14423e-06 -3.84925e-06)
(-0.000153431 3.39723e-05 4.15851e-06)
(-2.61205e-05 -4.40116e-08 -3.39747e-06)
(-1.50284e-05 -2.85727e-06 -1.01775e-06)
(-0.000155886 3.78779e-05 -1.76183e-07)
(-0.00013429 1.24272e-05 -3.3709e-06)
(-0.000122415 1.85177e-05 6.70387e-06)
(-4.19666e-05 6.85042e-08 -4.28496e-06)
(-3.16947e-05 -9.24878e-07 -2.52201e-07)
(-8.62714e-05 -2.02899e-06 8.52728e-06)
(-3.55017e-05 1.91461e-06 -3.4105e-06)
(-9.58822e-05 -1.88702e-05 2.40114e-06)
(-0.000123752 1.73072e-06 -2.24418e-06)
(-1.58099e-05 -3.36491e-06 1.32781e-06)
(-1.47836e-05 -3.21207e-06 -3.03635e-07)
(-7.08818e-05 -2.14314e-06 8.63367e-06)
(-2.90663e-05 -3.83634e-06 2.77266e-06)
(-2.99648e-05 -1.82917e-06 2.06588e-06)
(-8.35962e-05 -2.57565e-06 8.54917e-06)
(-2.89318e-05 -1.56742e-06 3.37093e-06)
(-1.6923e-05 -1.15057e-06 1.99848e-06)
(-1.73453e-05 -1.92802e-06 2.16191e-06)
(-6.15149e-05 -1.07176e-05 6.75541e-06)
(-7.02191e-05 -1.81225e-05 6.46849e-06)
(-8.89388e-05 -2.11944e-05 3.629e-06)
(-7.38279e-05 -2.01217e-05 6.08156e-06)
(-1.6302e-05 -3.10502e-06 1.70132e-06)
(-1.74658e-05 -2.25486e-06 2.10023e-06)
(-1.647e-05 -9.05343e-07 1.9435e-06)
(-1.52793e-05 -3.63954e-07 1.64652e-06)
(-5.90272e-05 -8.28381e-06 6.64222e-06)
(-5.20796e-05 -1.67829e-06 5.92881e-06)
(-5.66688e-05 8.38679e-06 6.91553e-06)
(-1.95888e-05 1.02712e-06 2.96682e-06)
(-2.06641e-05 2.93418e-06 2.38729e-06)
(-5.05913e-05 1.06666e-05 5.82863e-06)
(-2.22862e-05 2.46981e-06 2.77306e-06)
(-4.35733e-05 4.73449e-06 4.66826e-06)
(-4.98779e-05 1.3853e-07 5.63144e-06)
(-1.33747e-05 1.73775e-07 1.28714e-06)
(-1.47514e-05 -1.92915e-07 1.57112e-06)
(-4.38489e-05 1.21123e-05 4.6289e-06)
(-1.48592e-05 2.7157e-06 1.816e-06)
(-1.90893e-05 3.29027e-06 2.04137e-06)
(-4.97029e-05 1.08658e-05 5.67198e-06)
(-1.76011e-05 3.56329e-06 1.74243e-06)
(-1.00317e-05 8.22086e-07 7.52805e-07)
(-1.11516e-05 6.38992e-07 9.34781e-07)
(-2.96745e-05 1.16904e-05 2.62738e-06)
(-3.43247e-05 9.73287e-06 3.25188e-06)
(-4.15855e-05 5.94094e-06 4.35938e-06)
(-3.6029e-05 8.94943e-06 3.4997e-06)
(-1.28777e-05 2.95184e-07 1.22111e-06)
(-1.15768e-05 5.50691e-07 9.84724e-07)
(-9.68359e-06 8.87388e-07 7.20502e-07)
(-8.76396e-06 1.02258e-06 5.96265e-07)
(-2.82753e-05 1.22002e-05 2.46538e-06)
(-3.24479e-05 1.3365e-05 2.915e-06)
(-9.31021e-06 3.95591e-06 8.99862e-07)
(-1.10515e-05 4.30187e-06 8.80102e-07)
(-2.89453e-05 1.35456e-05 2.77098e-06)
(-1.18754e-05 4.23736e-06 9.09503e-07)
(-7.73664e-06 1.17762e-06 5.29567e-07)
(-8.4854e-06 1.07235e-06 5.83978e-07)
(-2.5535e-05 1.36402e-05 3.3467e-06)
(-7.19811e-06 4.30746e-06 1.03945e-06)
(-1.03073e-05 4.35724e-06 9.14228e-07)
(-2.84953e-05 1.3563e-05 2.7887e-06)
(-9.62855e-06 4.4087e-06 1.03035e-06)
(-6.12398e-06 1.45119e-06 8.9735e-07)
(-6.68437e-06 1.35148e-06 6.56167e-07)
(-7.50905e-06 1.21832e-06 5.44678e-07)
(-6.88093e-06 1.31234e-06 5.95206e-07)
(-5.94833e-06 1.4893e-06 1.0506e-06)
(-5.49682e-06 1.4956e-06 1.81249e-06)
(-1.90695e-05 1.09097e-05 1.27883e-05)
(-3.95132e-06 2.01901e-06 2.33395e-06)
(-5.55859e-06 1.35497e-06 2.42444e-06)
(-8.07278e-06 2.79818e-06 1.20045e-05)
(-1.27019e-06 -1.91148e-08 3.36836e-06)
(-0.000132895 8.24586e-06 8.51437e-06)
(-0.000160932 3.57051e-05 -1.53403e-05)
(-0.000151728 2.06314e-05 -2.17684e-06)
(-0.000141111 1.05881e-05 5.19527e-06)
(-0.00013897 2.04968e-05 3.59942e-06)
(-0.000168498 4.18983e-05 -1.29899e-05)
(-0.000147175 3.74582e-05 -7.45197e-06)
(-0.000162519 4.64283e-05 -1.40204e-06)
(-0.00013836 3.15705e-05 -2.27379e-06)
(-0.000153133 3.0189e-05 -4.82257e-06)
(-0.00015613 3.06373e-05 2.43499e-06)
(-0.000110554 2.78689e-05 -9.22132e-06)
(-0.000125696 3.0249e-05 -4.81716e-06)
(-0.000152469 3.90663e-05 3.38769e-06)
(-9.52234e-05 1.67925e-05 -4.8413e-06)
(-0.000108071 2.59764e-05 -7.27959e-06)
(-0.000138474 4.12014e-05 -6.48001e-06)
(-9.94421e-05 1.91026e-05 -7.96321e-06)
(-0.00012118 3.2252e-05 -8.72548e-06)
(-0.0001594 4.35152e-05 2.06166e-06)
(-0.000136146 3.79147e-05 -8.7237e-06)
(-0.000159905 5.26702e-05 -4.9053e-06)
(-0.000131871 3.53973e-05 -6.08919e-06)
(-0.000120848 3.17369e-05 -8.63045e-06)
(-0.000150643 4.92583e-05 -6.68946e-06)
(-5.62462e-05 -3.45731e-06 7.36812e-06)
(-6.74512e-05 -4.92798e-06 8.18141e-06)
(-6.71427e-05 6.66782e-07 8.42814e-06)
(-5.91669e-05 -2.57141e-06 7.36056e-06)
(-5.80473e-05 -4.80963e-06 7.06955e-06)
(-5.79474e-05 -1.25772e-06 7.56448e-06)
(-6.52666e-05 -3.49488e-06 8.29587e-06)
(-5.48264e-05 -2.63236e-06 7.33678e-06)
(-6.62515e-05 1.28928e-06 8.35048e-06)
(-5.548e-05 9.21147e-07 7.28001e-06)
(-6.13996e-05 -5.08516e-07 8.11195e-06)
(-5.31232e-05 -1.10937e-06 7.25511e-06)
(-5.67716e-05 -4.42775e-07 7.3334e-06)
(-6.32905e-05 -2.17128e-06 8.2648e-06)
(-4.84826e-05 1.91087e-06 6.3983e-06)
(-5.40252e-05 4.87871e-06 6.89344e-06)
(-6.00077e-05 6.50892e-06 7.48378e-06)
(-4.9695e-05 4.46973e-06 6.06597e-06)
(-5.12834e-05 3.50701e-06 6.31422e-06)
(-5.5885e-05 3.57873e-06 7.26125e-06)
(-4.67073e-05 3.09548e-06 6.04288e-06)
(-4.99666e-05 1.15377e-06 6.7346e-06)
(-6.08686e-05 6.04469e-06 7.61377e-06)
(-5.41782e-05 1.68689e-06 6.91767e-06)
(-5.95656e-05 8.5136e-07 7.8869e-06)
(-5.16999e-05 -2.50025e-07 7.01351e-06)
(-5.27225e-05 2.87439e-06 6.7239e-06)
(-5.77219e-05 2.3924e-06 7.58146e-06)
(-3.12995e-05 8.27841e-06 2.94963e-06)
(-3.81018e-05 1.10142e-05 3.85125e-06)
(-4.07629e-05 1.25623e-05 4.09935e-06)
(-3.58682e-05 8.11499e-06 3.31827e-06)
(-3.27361e-05 7.91166e-06 3.16828e-06)
(-3.44459e-05 8.37008e-06 3.14998e-06)
(-3.65674e-05 1.14005e-05 3.59879e-06)
(-3.01129e-05 8.46271e-06 2.73248e-06)
(-4.00333e-05 1.26507e-05 3.97552e-06)
(-3.19177e-05 8.69997e-06 2.75842e-06)
(-3.3715e-05 1.19777e-05 3.14953e-06)
(-2.88072e-05 8.75337e-06 2.55775e-06)
(-3.32184e-05 8.50219e-06 2.89431e-06)
(-3.51143e-05 1.16751e-05 3.35706e-06)
(-2.5588e-05 9.2471e-06 2.11058e-06)
(-2.88013e-05 1.27819e-05 2.53472e-06)
(-3.47332e-05 1.31957e-05 3.17371e-06)
(-2.75564e-05 9.15976e-06 2.20826e-06)
(-2.86174e-05 9.03652e-06 2.26825e-06)
(-2.99411e-05 1.25944e-05 2.64004e-06)
(-2.45341e-05 9.43981e-06 2.02924e-06)
(-2.65544e-05 9.13035e-06 2.24968e-06)
(-3.53349e-05 1.31449e-05 3.25661e-06)
(-3.08024e-05 8.8016e-06 2.54236e-06)
(-3.23947e-05 1.21898e-05 2.95051e-06)
(-2.77322e-05 8.89797e-06 2.37916e-06)
(-2.96229e-05 8.95552e-06 2.44275e-06)
(-3.11289e-05 1.24278e-05 2.79256e-06)
(-1.7009e-05 1.02819e-05 3.02884e-06)
(-2.08152e-05 1.35889e-05 3.35417e-06)
(-2.39686e-05 1.36426e-05 4.14869e-06)
(-2.04207e-05 9.67259e-06 2.65053e-06)
(-1.76653e-05 1.02055e-05 2.617e-06)
(-1.9733e-05 9.72828e-06 3.04587e-06)
(-2.00974e-05 1.36374e-05 3.83741e-06)
(-1.64578e-05 1.03062e-05 3.4236e-06)
(-2.35887e-05 1.36324e-05 4.42806e-06)
(-1.84744e-05 9.77044e-06 4.04845e-06)
(-1.87284e-05 1.3614e-05 5.20571e-06)
(-1.58473e-05 1.03351e-05 4.07608e-06)
(-1.91253e-05 9.74742e-06 3.41272e-06)
(-1.94056e-05 1.36333e-05 4.41726e-06)
(-1.42395e-05 9.86956e-06 6.8328e-06)
(-1.61665e-05 1.19189e-05 1.06904e-05)
(-2.05707e-05 1.29163e-05 8.66568e-06)
(-1.60268e-05 8.62599e-06 8.33769e-06)
(-1.67316e-05 9.36752e-06 6.78174e-06)
(-1.68043e-05 1.27879e-05 8.85779e-06)
(-1.3617e-05 9.13507e-06 8.34072e-06)
(-1.47557e-05 1.01334e-05 5.73504e-06)
(-2.0934e-05 1.31266e-05 7.8783e-06)
(-1.79008e-05 9.74081e-06 4.68998e-06)
(-1.80744e-05 1.34971e-05 6.15458e-06)
(-1.53291e-05 1.02958e-05 4.73071e-06)
(-1.72782e-05 9.59986e-06 5.69343e-06)
(-1.74316e-05 1.32522e-05 7.3843e-06)
(-0.00016856 2.84324e-05 -7.40843e-06)
(-0.000112573 2.06174e-05 -7.74504e-06)
(-4.25136e-05 2.1923e-06 -3.78731e-06)
(-0.000138289 2.45205e-05 -7.5914e-06)
(-0.000144551 3.0574e-05 -7.35807e-06)
(-0.000165342 3.09282e-05 -7.70405e-06)
(-5.07838e-05 3.17977e-06 -3.85329e-06)
(-0.000153467 2.453e-05 -7.22658e-06)
(-0.000140064 1.75706e-05 -3.90244e-06)
(-0.000143479 2.06972e-05 9.39388e-06)
(-0.000162681 5.39041e-05 -1.36645e-06)
(-0.000145447 2.70056e-05 2.22639e-06)
(-0.000126105 1.13159e-06 1.43411e-05)
(-0.000136389 1.66933e-05 3.28569e-06)
(-0.000168417 5.9875e-05 -3.76728e-06)
(-0.000149818 2.86187e-05 -3.88555e-06)
(-8.36538e-05 6.19872e-06 -1.23842e-06)
(-0.000103075 1.66114e-05 -4.31987e-06)
(-9.52708e-05 1.73607e-05 -7.49093e-06)
(-1.9791e-05 -1.24818e-06 -2.67559e-06)
(-7.30608e-05 9.89544e-06 -5.80695e-06)
(-0.000137268 3.00366e-05 -7.27698e-06)
(-0.000108807 1.87308e-05 -5.05652e-06)
(-5.29923e-05 1.06423e-06 -2.25902e-06)
(-1.72963e-05 -2.13101e-06 -1.86998e-06)
(-6.36986e-05 6.38752e-06 -4.57297e-06)
(-0.00013345 3.19982e-05 1.74681e-06)
(-0.00015318 5.21356e-05 -1.23113e-06)
(-0.000152104 3.33844e-05 -2.96683e-06)
(-0.000163388 5.65255e-05 -2.16123e-06)
(-0.000154885 5.02202e-05 -3.44946e-06)
(-0.000131708 2.61134e-05 -1.04293e-06)
(-0.000144224 2.37819e-05 -3.82433e-06)
(-0.00014983 4.56791e-05 -3.08786e-06)
(-0.000168927 6.28458e-05 -3.556e-06)
(-0.000158933 5.67523e-05 -2.04865e-06)
(-8.22123e-05 5.65633e-06 -3.51516e-06)
(-0.000113797 2.04051e-05 -2.93995e-06)
(-0.000102999 5.88614e-06 7.98525e-06)
(-8.64041e-05 1.14078e-05 -2.95134e-06)
(-9.06104e-05 1.33264e-05 -6.37636e-06)
(-0.000102941 1.0727e-05 -5.22863e-07)
(-7.79944e-05 4.35594e-06 -1.97738e-07)
(-7.62318e-05 1.48364e-06 -1.40268e-06)
(-9.8356e-05 3.58222e-06 8.11335e-06)
(-8.66882e-05 -1.32887e-06 3.7558e-06)
(-6.82642e-05 -2.33845e-06 3.80526e-06)
(-9.39791e-05 3.83406e-06 1.6089e-06)
(-7.28012e-05 9.68877e-07 1.50937e-06)
(-7.09002e-05 -2.59974e-06 1.38867e-06)
(-0.000127121 2.68523e-05 2.41566e-06)
(-0.000108679 9.17861e-06 4.74288e-06)
(-0.000104063 -1.43511e-05 8.62634e-07)
(-9.09905e-05 -8.29059e-06 5.08834e-06)
(-0.000103655 5.58072e-07 3.00201e-06)
(-0.000125847 2.09201e-05 -2.84675e-07)
(-0.000113435 -7.55177e-06 -7.15552e-07)
(-0.000108487 4.06615e-06 2.2651e-06)
(-9.05884e-05 -3.69951e-06 6.75849e-06)
(-0.000103604 5.60424e-06 5.20435e-06)
(-8.05382e-05 4.48729e-06 -4.62691e-07)
(-6.99221e-05 -1.97596e-06 2.20794e-06)
(-4.62876e-05 -5.16074e-06 3.38533e-06)
(-1.51635e-05 -3.44698e-06 9.12558e-07)
(-4.61906e-05 -4.54185e-06 2.1007e-06)
(-6.39406e-05 -5.10751e-06 4.86044e-06)
(-6.84201e-05 -2.94591e-06 2.83527e-06)
(-5.00192e-05 -9.7463e-07 -9.30601e-07)
(-1.4668e-05 -3.47145e-06 3.27561e-07)
(-4.65035e-05 -3.76749e-06 9.33452e-07)
(-6.18562e-05 -5.93672e-06 5.76186e-06)
(-7.48351e-05 -3.55323e-06 8.68682e-06)
(-6.98741e-05 -5.82844e-06 7.88971e-06)
(-6.02987e-05 -3.27191e-06 7.34542e-06)
(-5.9628e-05 -5.34521e-06 6.72544e-06)
(-7.28355e-05 -6.33756e-06 7.26782e-06)
(-6.17422e-05 -4.05542e-06 6.64378e-06)
(-6.40746e-05 -5.59872e-06 4.83866e-06)
(-7.65547e-05 -3.69682e-06 8.71489e-06)
(-8.10728e-05 -4.19872e-06 5.2024e-06)
(-6.56723e-05 -3.43271e-06 4.83611e-06)
(-6.73764e-05 -4.42925e-06 3.00215e-06)
(-7.64508e-05 -5.8466e-06 6.44936e-06)
(-6.32805e-05 -4.11538e-06 6.197e-06)
(-5.98508e-05 -2.84145e-06 6.89374e-06)
(-5.88136e-05 -1.07608e-06 6.98614e-06)
(-4.72211e-05 2.6019e-07 5.17088e-06)
(-1.70783e-05 -1.37626e-06 2.09168e-06)
(-4.76497e-05 -4.80163e-07 5.27713e-06)
(-5.67685e-05 9.1563e-07 6.68046e-06)
(-5.82303e-05 -6.94843e-07 6.81464e-06)
(-4.83466e-05 -2.08581e-06 5.40796e-06)
(-1.74123e-05 -1.66367e-06 2.10661e-06)
(-4.84868e-05 -1.20396e-06 5.41488e-06)
(-6.98713e-05 -6.9584e-06 8.12694e-06)
(-6.60975e-05 -4.37976e-06 8.0924e-06)
(-6.4161e-05 -1.32856e-05 6.78257e-06)
(-6.13362e-05 -3.72381e-06 7.65428e-06)
(-6.46626e-05 -6.97088e-06 7.84296e-06)
(-6.98942e-05 -1.06352e-05 7.75498e-06)
(-6.70322e-05 -1.57496e-05 6.69424e-06)
(-6.58453e-05 -7.79406e-06 7.85171e-06)
(-6.19344e-05 -6.92638e-07 7.79865e-06)
(-6.49983e-05 -3.69055e-06 8.0223e-06)
(-7.12829e-05 -7.44714e-06 8.13171e-06)
(-7.66684e-05 -8.36351e-06 7.82074e-06)
(-8.77194e-05 -9.67392e-06 5.58103e-06)
(-8.30228e-05 -2.20127e-05 4.6752e-06)
(-7.92218e-05 -1.22868e-05 6.77e-06)
(-8.72999e-05 -5.11794e-06 6.98478e-06)
(-7.88259e-05 -8.11066e-06 7.72008e-06)
(-7.1397e-05 -1.12387e-05 7.64546e-06)
(-7.8044e-05 -2.15358e-05 5.46946e-06)
(-7.70151e-05 -1.24176e-05 7.05592e-06)
(-6.02993e-05 -3.21455e-06 6.96424e-06)
(-6.11996e-05 -4.73522e-06 6.42659e-06)
(-4.68198e-05 -4.87317e-06 4.12294e-06)
(-1.69423e-05 -2.86258e-06 1.87293e-06)
(-4.78384e-05 -4.40088e-06 4.76306e-06)
(-6.33398e-05 -5.27671e-06 5.20542e-06)
(-6.1639e-05 -4.91362e-06 6.32363e-06)
(-4.87004e-05 -2.88152e-06 5.36338e-06)
(-1.71115e-05 -2.5363e-06 2.06366e-06)
(-4.79529e-05 -3.76074e-06 5.10304e-06)
(-5.12551e-05 3.87056e-06 5.62552e-06)
(-5.34445e-05 2.8626e-06 5.94543e-06)
(-4.61091e-05 8.9255e-07 4.93496e-06)
(-1.61717e-05 -7.19496e-07 1.83204e-06)
(-4.52581e-05 1.45066e-06 4.77195e-06)
(-5.60873e-05 1.26589e-06 6.45603e-06)
(-5.42002e-05 2.57019e-06 6.18942e-06)
(-4.28618e-05 2.37265e-06 4.31645e-06)
(-1.56596e-05 -5.14851e-07 1.76045e-06)
(-4.39804e-05 1.96989e-06 4.49403e-06)
(-5.43725e-05 5.79139e-06 6.72664e-06)
(-5.71798e-05 3.44221e-06 7.16534e-06)
(-5.66424e-05 -5.89585e-06 6.44853e-06)
(-6.02969e-05 -2.88131e-06 7.56617e-06)
(-5.72361e-05 1.54805e-07 7.18945e-06)
(-5.32595e-05 3.48251e-06 6.58232e-06)
(-5.43316e-05 -3.73788e-06 6.21305e-06)
(-5.62389e-05 8.95532e-07 7.05498e-06)
(-6.09662e-05 2.86446e-08 7.67851e-06)
(-5.81225e-05 2.8142e-06 7.31638e-06)
(-4.33982e-05 4.67296e-06 5.31299e-06)
(-5.21645e-05 5.84464e-06 6.53317e-06)
(-5.40944e-05 9.53371e-06 6.45514e-06)
(-4.81735e-05 4.9636e-06 5.64822e-06)
(-4.51841e-05 3.71814e-06 5.67787e-06)
(-5.02925e-05 6.88714e-06 6.15409e-06)
(-4.65092e-05 5.70915e-06 5.38901e-06)
(-4.18789e-05 5.1689e-06 4.95797e-06)
(-5.31963e-05 9.8076e-06 6.29874e-06)
(-4.66087e-05 8.47345e-06 5.42633e-06)
(-4.33016e-05 6.66493e-06 4.74174e-06)
(-4.84465e-05 7.65198e-06 5.79189e-06)
(-4.49692e-05 6.09134e-06 4.99125e-06)
(-4.01323e-05 5.92583e-06 4.61464e-06)
(-5.3431e-05 6.30897e-06 6.55798e-06)
(-5.06283e-05 8.19346e-06 6.08292e-06)
(-4.56212e-05 3.34004e-06 4.99306e-06)
(-4.55396e-05 8.3828e-06 5.23807e-06)
(-4.83887e-05 6.70186e-06 5.74833e-06)
(-5.22792e-05 4.09862e-06 6.42427e-06)
(-4.77243e-05 1.84904e-06 5.30981e-06)
(-4.93472e-05 6.20582e-06 5.91297e-06)
(-4.69459e-05 1.00856e-05 5.42938e-06)
(-4.96977e-05 8.60482e-06 5.90926e-06)
(-5.04684e-05 4.10927e-06 5.37928e-06)
(-4.81077e-05 4.86045e-06 5.04489e-06)
(-3.76118e-05 3.61689e-06 3.40993e-06)
(-1.38108e-05 7.33305e-08 1.38967e-06)
(-3.89319e-05 3.4285e-06 3.5732e-06)
(-4.49215e-05 5.61747e-06 4.48169e-06)
(-4.73227e-05 5.0557e-06 4.80811e-06)
(-4.15267e-05 2.79962e-06 4.02796e-06)
(-1.43295e-05 -7.03972e-08 1.46151e-06)
(-4.02591e-05 3.07619e-06 3.85308e-06)
(-3.55931e-05 7.20957e-06 3.68744e-06)
(-4.62945e-05 1.1648e-05 5.06016e-06)
(-3.96874e-05 1.06608e-05 4.13328e-06)
(-3.72064e-05 7.94575e-06 3.61363e-06)
(-3.40329e-05 7.67641e-06 3.42416e-06)
(-4.13463e-05 1.01631e-05 4.42951e-06)
(-3.87381e-05 7.61168e-06 3.81333e-06)
(-3.69887e-05 6.90683e-06 3.9806e-06)
(-4.71386e-05 1.14928e-05 5.21109e-06)
(-4.48135e-05 9.0652e-06 5.0798e-06)
(-4.17932e-05 6.95357e-06 4.37238e-06)
(-3.86577e-05 6.31332e-06 4.28591e-06)
(-4.3047e-05 9.70349e-06 4.74622e-06)
(-4.01725e-05 7.3888e-06 4.14591e-06)
(-3.81957e-05 6.74407e-06 3.29221e-06)
(-3.61113e-05 6.97669e-06 3.05508e-06)
(-2.82129e-05 4.82354e-06 2.02642e-06)
(-1.03828e-05 7.72851e-07 8.18557e-07)
(-2.92946e-05 4.79349e-06 2.11529e-06)
(-3.35959e-05 7.24564e-06 2.69284e-06)
(-3.55076e-05 7.06866e-06 2.89016e-06)
(-3.14721e-05 4.56689e-06 2.41451e-06)
(-1.07697e-05 6.97098e-07 8.59812e-07)
(-3.02968e-05 4.61679e-06 2.30526e-06)
(-3.92348e-05 1.28878e-05 4.07753e-06)
(-3.69198e-05 1.35734e-05 3.70689e-06)
(-3.11478e-05 1.1098e-05 2.81418e-06)
(-3.24327e-05 1.33679e-05 3.07497e-06)
(-3.45761e-05 1.27188e-05 3.38969e-06)
(-3.76684e-05 1.17032e-05 3.88051e-06)
(-3.2697e-05 1.04657e-05 3.02046e-06)
(-3.5316e-05 1.25247e-05 3.50176e-06)
(-3.40672e-05 1.42569e-05 3.27123e-06)
(-3.61837e-05 1.37247e-05 3.58289e-06)
(-4.00365e-05 1.26936e-05 4.2207e-06)
(-4.25327e-05 1.18045e-05 4.64215e-06)
(-4.46169e-05 8.77645e-06 5.07771e-06)
(-3.96623e-05 7.06742e-06 4.05481e-06)
(-4.18961e-05 1.0102e-05 4.59649e-06)
(-4.60411e-05 1.0407e-05 5.25955e-06)
(-4.33912e-05 1.15539e-05 4.80087e-06)
(-3.8477e-05 1.14578e-05 4.0123e-06)
(-3.78092e-05 8.04059e-06 3.77172e-06)
(-4.10255e-05 1.04132e-05 4.44823e-06)
(-3.88575e-05 6.6349e-06 3.47755e-06)
(-4.1094e-05 6.32316e-06 3.75124e-06)
(-3.63354e-05 3.90909e-06 3.14681e-06)
(-1.24488e-05 3.78082e-07 1.12747e-06)
(-3.50248e-05 4.03255e-06 3.00002e-06)
(-4.41626e-05 5.77639e-06 4.25914e-06)
(-4.18088e-05 6.19113e-06 3.95571e-06)
(-3.25744e-05 4.35934e-06 2.63073e-06)
(-1.19856e-05 4.81444e-07 1.06938e-06)
(-3.3829e-05 4.2785e-06 2.75955e-06)
(-2.92522e-05 7.62857e-06 2.17301e-06)
(-3.0821e-05 7.52302e-06 2.27459e-06)
(-2.73085e-05 4.97439e-06 1.86362e-06)
(-9.36419e-06 9.2942e-07 6.6469e-07)
(-2.63226e-05 4.99064e-06 1.79695e-06)
(-3.30497e-05 7.32266e-06 2.54876e-06)
(-3.13122e-05 7.45729e-06 2.39673e-06)
(-2.46187e-05 5.12921e-06 1.62054e-06)
(-9.05223e-06 9.86121e-07 6.41869e-07)
(-2.55109e-05 5.12089e-06 1.6631e-06)
(-2.91445e-05 1.52193e-05 2.68387e-06)
(-3.08735e-05 1.48825e-05 2.84779e-06)
(-2.69475e-05 1.26785e-05 2.32626e-06)
(-3.17617e-05 1.35215e-05 2.98476e-06)
(-2.98247e-05 1.40379e-05 2.7432e-06)
(-2.74996e-05 1.45848e-05 2.51671e-06)
(-2.56631e-05 1.30818e-05 2.20117e-06)
(-2.92182e-05 1.41623e-05 2.67834e-06)
(-3.33974e-05 1.43741e-05 3.16886e-06)
(-3.14783e-05 1.4789e-05 2.92624e-06)
(-2.27163e-05 9.68107e-06 1.90806e-06)
(-2.77343e-05 1.29095e-05 2.43594e-06)
(-3.0871e-05 1.34565e-05 2.8001e-06)
(-2.66509e-05 9.22216e-06 2.07975e-06)
(-2.36652e-05 9.53204e-06 1.93436e-06)
(-2.67104e-05 1.30566e-05 2.39375e-06)
(-2.5692e-05 9.31746e-06 2.06711e-06)
(-2.19362e-05 9.75086e-06 1.86301e-06)
(-3.03788e-05 1.34833e-05 2.77642e-06)
(-2.48254e-05 1.32673e-05 2.39375e-06)
(-2.40093e-05 9.4434e-06 2.03686e-06)
(-2.57489e-05 1.3153e-05 2.35996e-06)
(-2.48754e-05 9.36665e-06 1.99048e-06)
(-2.10839e-05 9.87025e-06 1.90195e-06)
(-2.86041e-05 1.52923e-05 2.63377e-06)
(-2.70484e-05 1.55346e-05 2.57104e-06)
(-2.34974e-05 1.53142e-05 2.47904e-06)
(-2.49097e-05 1.50729e-05 2.41825e-06)
(-2.69684e-05 1.46847e-05 2.48027e-06)
(-2.54015e-05 1.50022e-05 2.41908e-06)
(-2.5157e-05 1.57591e-05 2.61188e-06)
(-2.65631e-05 1.5584e-05 2.55633e-06)
(-2.88107e-05 7.68423e-06 2.07463e-06)
(-2.73928e-05 7.76522e-06 2.03358e-06)
(-2.16975e-05 5.34511e-06 1.45921e-06)
(-7.97325e-06 1.14866e-06 5.49955e-07)
(-2.24299e-05 5.34469e-06 1.43794e-06)
(-2.57096e-05 7.87929e-06 1.99574e-06)
(-2.69951e-05 7.81323e-06 1.96212e-06)
(-2.38907e-05 5.24236e-06 1.518e-06)
(-8.2241e-06 1.10429e-06 5.50048e-07)
(-2.30836e-05 5.24466e-06 1.50386e-06)
(-1.89646e-05 1.00752e-05 2.15025e-06)
(-2.67634e-05 1.36156e-05 3.00246e-06)
(-2.15523e-05 1.35563e-05 3.02182e-06)
(-2.10613e-05 9.64384e-06 2.45871e-06)
(-1.82571e-05 1.01658e-05 2.39422e-06)
(-2.2322e-05 1.34833e-05 2.74543e-06)
(-2.17925e-05 9.58235e-06 2.22345e-06)
(-1.9606e-05 1.00277e-05 2.04638e-06)
(-2.71787e-05 1.3604e-05 2.9282e-06)
(-2.39554e-05 1.33394e-05 2.44442e-06)
(-2.32666e-05 9.48242e-06 2.02499e-06)
(-2.03786e-05 9.9257e-06 1.92088e-06)
(-2.31169e-05 1.34305e-05 2.57936e-06)
(-2.2476e-05 9.54868e-06 2.15034e-06)
(-2.24209e-05 8.10994e-06 2.42118e-06)
(-2.13804e-05 8.16695e-06 2.88717e-06)
(-1.70816e-05 5.72451e-06 2.59904e-06)
(-6.30622e-06 1.42084e-06 8.03248e-07)
(-1.76495e-05 5.71104e-06 2.23593e-06)
(-2.00792e-05 8.23427e-06 3.80198e-06)
(-2.10759e-05 8.19866e-06 3.03063e-06)
(-1.87392e-05 5.61372e-06 1.78699e-06)
(-6.49327e-06 1.38055e-06 7.05734e-07)
(-1.81446e-05 5.62578e-06 2.00888e-06)
(-2.1481e-05 1.60459e-05 3.60857e-06)
(-2.03834e-05 1.60775e-05 4.41822e-06)
(-1.74588e-05 1.57613e-05 6.05857e-06)
(-1.84569e-05 1.58269e-05 4.70489e-06)
(-1.98662e-05 1.5758e-05 3.53515e-06)
(-1.87953e-05 1.58309e-05 4.35928e-06)
(-1.89886e-05 1.59611e-05 6.09636e-06)
(-2.00302e-05 1.60594e-05 4.75189e-06)
(-2.18567e-05 1.60384e-05 3.41719e-06)
(-2.30306e-05 1.59495e-05 2.9612e-06)
(-2.30643e-05 1.53689e-05 2.52482e-06)
(-2.17868e-05 1.55564e-05 2.75327e-06)
(-2.47136e-05 1.57949e-05 2.64459e-06)
(-2.34362e-05 1.59262e-05 2.86414e-06)
(-2.02309e-05 1.57349e-05 3.331e-06)
(-2.13922e-05 1.55969e-05 2.86298e-06)
(-2.27378e-05 8.07458e-06 2.3608e-06)
(-2.38345e-05 8.01751e-06 2.0925e-06)
(-2.11036e-05 5.43569e-06 1.43795e-06)
(-7.29205e-06 1.24577e-06 5.4148e-07)
(-2.04316e-05 5.43709e-06 1.50561e-06)
(-2.53474e-05 7.92117e-06 1.95693e-06)
(-2.41694e-05 7.97933e-06 2.08937e-06)
(-1.9257e-05 5.52889e-06 1.67268e-06)
(-7.08266e-06 1.28477e-06 5.76209e-07)
(-1.98833e-05 5.52309e-06 1.54193e-06)
(-1.7401e-05 7.12141e-06 8.0718e-06)
(-1.85638e-05 8.05285e-06 5.8698e-06)
(-1.66185e-05 5.79583e-06 3.00868e-06)
(-5.77892e-06 1.51256e-06 1.21467e-06)
(-1.60812e-05 5.75928e-06 3.61672e-06)
(-1.97892e-05 8.24822e-06 4.07699e-06)
(-1.8833e-05 8.12627e-06 5.3632e-06)
(-1.49624e-05 5.26302e-06 5.55972e-06)
(-5.64792e-06 1.52814e-06 1.4825e-06)
(-1.56829e-05 5.71006e-06 4.38378e-06)
(-1.63838e-05 1.36786e-05 1.26463e-05)
(-1.73364e-05 1.51213e-05 9.60731e-06)
(-1.71456e-05 1.56886e-05 6.61287e-06)
(-1.62035e-05 1.52302e-05 8.70971e-06)
(-1.5017e-05 1.35553e-05 1.25164e-05)
(-1.59086e-05 1.49651e-05 9.54788e-06)
(-1.86523e-05 1.58764e-05 6.64427e-06)
(-1.76582e-05 1.5393e-05 8.76035e-06)
(-1.24877e-05 6.30926e-06 1.26458e-05)
(-1.55255e-05 1.06013e-05 1.27698e-05)
(-1.81202e-05 7.84467e-06 1.66251e-05)
(-1.54317e-05 7.54207e-06 1.02308e-05)
(-1.31055e-05 8.12851e-06 1.0178e-05)
(-1.4954e-05 8.73644e-06 1.51988e-05)
(-1.47989e-05 5.70979e-06 1.26822e-05)
(-9.82832e-06 4.11312e-06 1.35653e-05)
(-1.32153e-05 7.94624e-06 1.72411e-05)
(-8.85754e-06 2.74448e-06 1.20374e-05)
(-1.95358e-06 -1.17486e-07 3.62804e-06)
(-1.19812e-05 1.9145e-06 1.21804e-05)
(-1.39015e-06 -2.09416e-08 3.41701e-06)
(-1.07918e-05 4.03833e-06 1.35874e-05)
(-1.78779e-05 6.73848e-06 1.77531e-05)
(-1.44482e-05 7.87501e-06 1.73653e-05)
(-1.42631e-05 3.05636e-06 1.37199e-05)
(-1.60798e-05 1.29717e-05 1.37947e-05)
(-1.5233e-05 1.01478e-05 1.74353e-05)
(-1.36689e-05 9.27012e-06 1.82045e-05)
(-1.47356e-05 1.28607e-05 1.36432e-05)
(-1.38989e-05 1.01619e-05 1.72001e-05)
(-1.5022e-05 9.23916e-06 1.84865e-05)
(-1.69847e-05 6.57591e-06 8.98042e-06)
(-1.59349e-05 3.62576e-06 1.26567e-05)
(-2.29245e-06 -2.5695e-07 3.8459e-06)
(-1.33427e-05 1.20586e-06 1.21608e-05)
(-1.56811e-05 2.28945e-06 1.38019e-05)
(-1.39631e-05 4.3959e-06 7.13087e-06)
(-5.35026e-06 7.43446e-07 4.09821e-06)
(-1.3185e-05 2.89007e-06 9.1773e-06)
(-0.000136681 1.50539e-06 -2.87336e-07)
(-0.000133228 1.48798e-05 -2.00462e-05)
(-0.000147537 1.39926e-05 -1.05548e-05)
(-0.00012913 3.19275e-06 -1.05396e-05)
(-0.000165992 4.41951e-05 -4.36912e-06)
(-0.000178917 5.31018e-05 -8.39041e-06)
(-0.000173364 4.91774e-05 -5.73049e-06)
(-0.000176544 5.85816e-05 -5.76625e-06)
(-0.000164662 4.81354e-05 -5.48947e-06)
(-0.000175147 4.70645e-05 -6.41799e-06)
(-0.000174859 5.32577e-05 -6.50391e-06)
(-0.000121984 2.86713e-05 -3.22968e-06)
(-0.000127986 2.84197e-05 2.66037e-06)
(-0.000136509 2.76375e-05 5.53384e-06)
(-0.000116277 1.77392e-05 1.94514e-06)
(-0.000123835 2.30392e-05 1.01844e-06)
(-0.000135923 3.44717e-05 1.63055e-06)
(-0.000115238 2.36204e-05 -2.06643e-06)
(-0.000155779 4.88502e-05 -6.51579e-06)
(-0.000173297 5.29877e-05 -1.27033e-06)
(-0.000168946 4.92078e-05 -4.87087e-06)
(-0.000174965 6.0242e-05 -4.91459e-06)
(-0.000161363 4.9928e-05 -5.94318e-06)
(-0.000162072 4.60165e-05 -4.12097e-06)
(-0.000170262 5.87701e-05 -3.88007e-06)
(-6.58846e-05 -2.49959e-06 8.23688e-06)
(-6.95465e-05 -2.35331e-06 8.56612e-06)
(-6.889e-05 -8.31766e-07 8.52578e-06)
(-6.79656e-05 -2.30498e-06 8.30751e-06)
(-6.67211e-05 -3.10113e-06 8.21651e-06)
(-6.72153e-05 -1.55599e-06 8.32378e-06)
(-6.86123e-05 -1.69633e-06 8.53318e-06)
(-5.27605e-05 -4.39142e-06 7.32313e-06)
(-5.96796e-05 -4.61739e-06 7.97741e-06)
(-5.08108e-05 -2.6992e-06 7.24843e-06)
(-6.18811e-05 -6.52019e-06 8.04641e-06)
(-5.4492e-05 -5.29193e-06 7.20741e-06)
(-6.67782e-05 -9.74422e-06 7.69667e-06)
(-5.66925e-05 -6.79488e-06 6.82455e-06)
(-6.41913e-05 -8.08815e-06 7.98933e-06)
(-6.18113e-05 7.84231e-07 8.03816e-06)
(-6.47174e-05 2.79633e-06 8.14993e-06)
(-6.29491e-05 2.56007e-06 7.93092e-06)
(-6.33001e-05 2.67033e-06 8.11556e-06)
(-6.10552e-05 1.48077e-06 7.91496e-06)
(-6.3629e-05 1.79889e-06 8.007e-06)
(-6.4008e-05 1.88519e-06 8.20015e-06)
(-5.52689e-05 5.42097e-06 6.87583e-06)
(-5.6491e-05 7.51322e-06 6.9899e-06)
(-5.83804e-05 7.55043e-06 7.18922e-06)
(-5.66495e-05 6.66577e-06 6.81792e-06)
(-5.74836e-05 6.18562e-06 6.95257e-06)
(-5.72962e-05 6.98518e-06 7.13214e-06)
(-5.44138e-05 5.90059e-06 6.6903e-06)
(-4.73156e-05 -2.02572e-07 6.78745e-06)
(-5.76088e-05 -3.014e-06 7.77757e-06)
(-4.91876e-05 -1.78305e-06 7.10755e-06)
(-5.55477e-05 -1.22245e-06 7.50149e-06)
(-4.57155e-05 6.06725e-07 6.51939e-06)
(-5.15412e-05 1.74338e-06 6.80327e-06)
(-5.35518e-05 2.03006e-07 7.17e-06)
(-4.3868e-05 1.95939e-06 6.09781e-06)
(-5.94581e-05 2.66036e-06 7.65474e-06)
(-6.24394e-05 4.79865e-06 7.83726e-06)
(-6.21496e-05 2.98716e-06 7.79613e-06)
(-6.23347e-05 3.2757e-06 7.99664e-06)
(-6.02205e-05 2.02126e-06 7.80501e-06)
(-6.14427e-05 3.66012e-06 7.68856e-06)
(-6.16103e-05 3.99166e-06 7.85671e-06)
(-3.91425e-05 1.05711e-05 3.82768e-06)
(-4.17039e-05 1.23649e-05 4.30602e-06)
(-4.2276e-05 1.23389e-05 4.35312e-06)
(-4.21855e-05 1.05439e-05 4.1934e-06)
(-3.99059e-05 1.04384e-05 3.96568e-06)
(-4.13999e-05 1.06576e-05 4.07349e-06)
(-4.09311e-05 1.24944e-05 4.17303e-06)
(-3.55591e-05 1.11597e-05 3.25913e-06)
(-3.86154e-05 1.28241e-05 3.74342e-06)
(-3.70739e-05 1.12087e-05 3.3828e-06)
(-3.6568e-05 1.31861e-05 3.46744e-06)
(-3.48793e-05 1.12512e-05 3.15312e-06)
(-3.77782e-05 1.1133e-05 3.47604e-06)
(-3.72527e-05 1.30996e-05 3.56651e-06)
(-3.06489e-05 1.17616e-05 2.6118e-06)
(-3.16381e-05 1.37377e-05 2.8284e-06)
(-3.35615e-05 1.32894e-05 3.03051e-06)
(-3.21955e-05 1.16476e-05 2.74906e-06)
(-3.27744e-05 1.16067e-05 2.79862e-06)
(-3.22016e-05 1.36914e-05 2.88054e-06)
(-3.00928e-05 1.18149e-05 2.55389e-06)
(-3.35977e-05 1.14088e-05 2.96652e-06)
(-3.65994e-05 1.30221e-05 3.43471e-06)
(-3.64333e-05 1.1271e-05 3.27519e-06)
(-3.58933e-05 1.32746e-05 3.36277e-06)
(-3.42366e-05 1.13334e-05 3.06312e-06)
(-3.5771e-05 1.13304e-05 3.19057e-06)
(-3.52391e-05 1.3341e-05 3.26966e-06)
(-2.22045e-05 1.23676e-05 3.33505e-06)
(-2.38504e-05 1.41885e-05 3.47845e-06)
(-2.47439e-05 1.36406e-05 3.68778e-06)
(-2.4475e-05 1.20494e-05 3.228e-06)
(-2.25777e-05 1.23572e-05 3.15607e-06)
(-2.40783e-05 1.20535e-05 3.4086e-06)
(-2.34597e-05 1.41824e-05 3.67613e-06)
(-2.04262e-05 1.23906e-05 4.70785e-06)
(-2.28246e-05 1.35897e-05 5.11917e-06)
(-2.18357e-05 1.20471e-05 5.11771e-06)
(-2.12254e-05 1.40998e-05 5.62913e-06)
(-2.0072e-05 1.23658e-05 5.10775e-06)
(-2.22124e-05 1.20679e-05 4.7179e-06)
(-2.15925e-05 1.41404e-05 5.18689e-06)
(-1.77214e-05 1.10966e-05 9.66028e-06)
(-1.83773e-05 1.20467e-05 1.17381e-05)
(-1.98038e-05 1.21468e-05 1.05442e-05)
(-1.89328e-05 1.03156e-05 1.07075e-05)
(-1.93172e-05 1.08537e-05 9.6988e-06)
(-1.87323e-05 1.26178e-05 1.06746e-05)
(-1.73743e-05 1.05606e-05 1.06333e-05)
(-1.93973e-05 1.22494e-05 6.0626e-06)