/*--------------------------------*- C++ -*----------------------------------*\
| =========                 |                                                 |
| \\      /  F ield         | OpenFOAM: The Open Source CFD Toolbox           |
|  \\    /   O peration     | Version:  2012                                  |
|   \\  /    A nd           | Website:  www.openfoam.com                      |
|    \\/     M anipulation  |                                                 |
\*---------------------------------------------------------------------------*/
FoamFile
{
    version     2.0;
    format      ascii;
    class       volScalarField;
    location    "0.108/solid";
    object      epsilonEq;
}
// * * * * * * * * * * * * * * * * * * * * * * * * * * * * * * * * * * * * * //

dimensions      [0 0 0 0 0 0 0];


internalField   nonuniform List<scalar> 
3125
(
0.00327045
0.00333505
0.00134251
0.00123595
0.000674103
0.000621961
0.00040747
0.000390962
0.00206221
0.00178916
0.000955431
0.000874223
0.000502868
0.000473056
0.00266929
0.00391675
0.00227543
0.00129504
0.00393085
0.000857337
0.00333258
0.00237999
0.00295914
0.00202641
0.00130136
0.00259957
0.000412897
0.00146102
0.00143385
0.000397905
0.00150219
0.000399762
0.00135717
0.00113665
0.000393422
0.00127436
0.000367691
0.000733392
0.000811451
0.000347043
0.000875311
0.000323029
0.000754197
0.000576543
0.000344254
0.000703302
0.000259899
0.000425634
0.00049399
0.000208881
0.000520056
0.000100358
0.000470902
0.000375693
0.000198771
0.000444537
0.00426562
0.00102539
0.00337934
0.00193318
0.00106657
0.000923262
0.000880048
0.00246371
0.00176453
0.000551837
0.00205771
0.000612254
0.000837999
0.00186999
0.00181809
0.000422638
0.00160234
0.00163483
0.00055058
0.00156377
0.00194444
0.00201581
0.000248325
0.000347594
0.00055049
0.000392733
0.00192044
0.00201298
0.0019063
0.00175472
0.000227303
0.000198233
0.000397041
0.00104311
0.00110403
0.000390432
0.0011889
0.000198959
0.000196552
0.0015335
0.00170229
0.000370583
0.000800099
0.00102238
0.000387641
0.000945778
0.00114646
0.00127872
0.000210174
0.000208124
0.000201501
0.000206327
0.00148109
0.00132495
0.0011083
0.00100091
0.000210941
0.000320232
0.000537176
0.000617762
0.000297771
0.000658076
0.000884129
0.00097022
0.00026491
0.000447412
0.000581734
0.000294536
0.000549314
0.000708102
0.000767939
0.000859468
0.00078852
0.000692473
0.000641676
8.45961e-05
0.00055942
0.000620866
0.000247831
0.000497725
0.00233915
0.00105695
0.00248934
0.00123677
0.00249279
0.00100864
0.00246733
0.00176252
0.00271729
0.0025211
0.00144207
0.00244185
0.00157493
0.00109785
0.00166034
0.00178661
0.00173641
0.00218883
0.002647
0.00110643
0.00229492
0.00191488
0.00274283
0.00211401
0.00189535
0.000979897
0.000609904
0.000401457
0.000847586
0.00101083
0.000827314
0.000575698
0.000940268
0.000393944
0.000795908
0.000529488
0.000916413
0.000814576
0.000552305
0.000822139
0.000472163
0.000396159
0.000725874
0.000746146
0.000486753
0.000799643
0.000857406
0.000398569
0.000782606
0.000515073
0.000879772
0.000762743
0.000497726
0.00054431
0.000374975
0.000358796
0.000543855
0.000563609
0.000527612
0.000364739
0.000522833
0.000356152
0.000494119
0.000347243
0.000505306
0.000508742
0.000356459
0.000453857
0.000316309
0.000332384
0.00043591
0.000447952
0.000323939
0.000439364
0.000470527
0.000335017
0.000476794
0.000339502
0.000486358
0.000463605
0.000331075
0.000317943
0.000244325
0.000241376
0.000330401
0.00032942
0.00031901
0.000232275
0.00030608
0.00023449
0.000292602
0.000203612
0.000293844
0.000305532
0.00021908
0.000250133
0.00012058
0.000147525
0.000217987
0.000238769
0.00014396
0.000225843
0.000266702
0.000162381
0.000276592
0.00018611
0.000281053
0.00026193
0.000166596
0.0027339
0.00206306
0.00527827
0.00188952
0.00252595
0.00270903
0.00614241
0.00202099
0.000675253
0.000967477
0.00113472
0.000885522
0.000956133
0.000821045
0.000963711
0.000697591
0.00148543
0.00171466
0.00162969
0.00264498
0.00174011
0.00229043
0.00194898
0.00136782
0.00218852
0.00131843
0.000988103
0.00110648
0.00105906
0.00118199
0.00118944
0.000975038
0.00100408
0.00108779
0.00104428
0.00114572
0.00171601
0.00138768
0.000673991
0.00138926
0.00194712
0.00122455
0.00129545
0.00152499
0.000669499
0.000944551
0.00105433
0.00106123
0.00111501
0.00137236
0.000911611
0.000764754
0.000680839
0.000575316
0.000663174
0.00086223
0.000757328
0.000751937
0.000579333
0.000690235
0.00133823
0.0011712
0.00100499
0.00181781
0.00104452
0.00100356
0.00109579
0.00113795
0.00179821
0.0011401
0.00110604
0.000455912
0.000647436
0.000864583
0.00105737
0.000699516
0.000889105
0.00117433
0.000470986
0.000845868
0.000968078
0.00126099
0.000765983
0.000928982
0.000884823
0.000849476
0.0007875
0.00197985
0.000829186
0.000818999
0.000853365
0.000871674
0.00200202
0.000823652
0.000338993
0.000318321
0.00027499
0.000291206
0.000300481
0.000347004
0.000309096
0.00031893
0.000295154
0.000297171
0.000368172
0.000413522
0.000523913
0.000494511
0.000457357
0.000529027
0.000453906
0.000372015
0.000441361
0.000420973
0.000879954
0.000918094
0.0009721
0.00196681
0.000918241
0.000979029
0.000922206
0.000864217
0.00199714
0.000918322
0.000745177
0.000781032
0.00078538
0.00185786
0.000749893
0.000820044
0.000784181
0.000709598
0.00181008
0.000740196
0.000291451
0.000281636
0.000212894
0.000279128
0.000281752
0.000280672
0.000203588
0.000273275
0.000282141
0.000289603
0.0007426
0.000462115
0.00039631
0.000706355
0.000765628
0.000448502
0.000685647
0.000710592
0.000394249
0.000426205
0.000644453
0.000438888
0.00066448
0.000687785
0.00028629
0.000294322
0.000197737
0.000281854
0.000276197
0.000274295
0.000196059
0.000281623
0.000295744
0.00029044
0.000738792
0.000703185
0.000624934
0.00159082
0.000647543
0.000660425
0.000694439
0.000693771
0.00164441
0.000667587
0.000608762
0.000378552
0.00038397
0.000564282
0.000587935
0.000395059
0.000581982
0.000635799
0.000381052
0.000416449
0.000622546
0.000657964
0.000404368
0.000603371
0.000567641
0.000540863
0.000473425
0.0011893
0.000485622
0.000506709
0.000530718
0.000521261
0.00123147
0.000507016
0.000289378
0.000288046
0.000209971
0.000268683
0.000269571
0.000273254
0.000208747
0.000273384
0.000283005
0.000285431
0.000292186
0.000291845
0.00027693
0.000202909
0.000280316
0.000292418
0.000294857
0.000277435
0.000205243
0.000275792
0.000578218
0.000607659
0.000602759
0.0014261
0.000583375
0.000650341
0.000618269
0.000543743
0.00137637
0.000560422
0.000447668
0.00046692
0.000453611
0.00106973
0.000443169
0.000497183
0.000475695
0.000416028
0.00103548
0.000425071
0.000270378
0.000274939
0.000210858
0.000265171
0.000263285
0.000257026
0.000211733
0.000260214
0.000280534
0.000277218
0.000411779
0.000309389
0.00031073
0.000421641
0.00042465
0.00030198
0.000410829
0.000398739
0.000307907
0.000287722
0.000387582
0.000295201
0.000397753
0.000386886
0.000267625
0.000262386
0.000241145
0.000246586
0.000253373
0.000249786
0.000252883
0.000259718
0.000439586
0.000422199
0.000369616
0.00091192
0.000376814
0.000398676
0.000414754
0.000399641
0.000939307
0.000391706
0.000352103
0.000279099
0.000254511
0.000342806
0.000340933
0.000264105
0.000353194
0.000363627
0.000282937
0.000280468
0.000375244
0.000374909
0.000272343
0.000365253
0.000347764
0.000331553
0.000294405
0.00072766
0.000301888
0.000307224
0.000324911
0.00031899
0.000746324
0.000311926
0.000216712
0.000196962
0.00015192
0.000178529
0.000205711
0.000187167
0.00015994
0.000188488
0.000222507
0.000235988
0.000237097
0.000229015
0.000249598
0.000240183
0.000211918
0.000224235
0.000354256
0.000369704
0.000356112
0.000834214
0.000349297
0.000391723
0.000376311
0.000330182
0.000811795
0.000336983
0.000234218
0.000268026
0.000285362
0.000676857
0.00027705
0.000299828
0.000278749
0.000258228
0.000665995
0.000263957
5.84868e-05
9.45633e-05
0.000139994
0.000105917
5.95092e-05
9.19291e-05
0.00014763
0.000109993
0.00018313
9.67111e-05
4.2425e-05
0.000193017
0.000211689
7.90156e-05
0.000159873
0.000206269
6.61923e-05
0.000258612
0.000620063
0.000251277
0.000534335
0.00020952
2.86426e-05
5.89027e-05
0.000175041
4.70475e-05
2.97857e-05
3.09869e-05
4.90251e-05
3.55262e-05
2.92679e-05
0.000226009
0.000156277
0.000695998
0.000227899
0.000138353
0.000270837
0.000607997
0.000229701
0.00162419
0.00100298
0.00118072
0.000865215
0.00201434
0.00120053
0.0012788
0.00104663
0.00210607
0.00124872
0.00104484
0.00152034
0.000857602
0.00096103
0.000937641
0.0009265
0.000846459
0.00142395
0.00203596
0.00124523
0.00123416
0.00108854
0.00209228
0.00124496
0.00108689
0.000641074
0.000382938
0.000411325
0.000447575
0.000653818
0.000442338
0.000371249
0.00101971
0.000616192
0.000975927
0.000646774
0.00106424
0.000728477
0.00111986
0.000684751
0.000599083
0.000392861
0.000425696
0.000349232
0.000590558
0.000428568
0.000359007
0.000549207
0.000355705
0.000397154
0.000426735
0.000427534
0.000361264
0.000542422
0.000900342
0.000588892
0.000937992
0.000565604
0.000865308
0.000524281
0.000543762
0.000831037
0.00058147
0.000399633
0.000433252
0.00036127
0.000585808
0.000433451
0.000355572
0.000426625
0.000340331
0.000364631
0.000383689
0.000432186
0.000381613
0.000337475
0.000397949
0.00035007
0.000360639
0.000322316
0.00039318
0.000362079
0.000325335
0.000358344
0.000302255
0.000326169
0.000333485
0.000335033
0.000305103
0.000354401
0.000382414
0.000340732
0.000355601
0.000320682
0.000387612
0.000353264
0.000318006
0.000270926
0.000243462
0.000253782
0.00026782
0.000277677
0.000262955
0.000237605
0.000237403
0.000218162
0.000222143
0.000191195
0.000230816
0.000228924
0.00020129
0.000156854
8.4784e-05
0.000116447
0.000121726
0.000134991
0.000100318
0.000144092
0.000211457
0.000187334
0.000211495
0.000181263
0.000221978
0.000202115
0.000169491
0.00145664
0.0011496
0.00119692
0.00080679
0.00108172
0.000983528
0.000616136
0.000719634
0.00110411
0.000967319
0.000699044
0.000803004
0.00104777
0.00100797
0.00124202
0.000733263
0.000760705
0.000772892
0.00132036
0.000754508
0.00078765
0.000910213
0.000585783
0.000540504
0.000592001
0.00054472
0.00059817
0.000867439
0.000715621
0.000601421
0.00041291
0.000444339
0.000630326
0.000546092
0.000474041
0.000491873
0.000679232
0.000427158
0.000384089
0.000448135
0.000661301
0.000399687
0.000458271
0.00134561
0.00102902
0.00146328
0.000930659
0.000794704
0.000511153
0.000496177
0.000545655
0.000834124
0.000488034
0.000533897
0.00125631
0.000782517
0.0011782
0.000847913
0.000423585
0.000430074
0.000440494
0.00043083
0.00029742
0.000299566
0.000300359
0.000291875
0.000304981
0.000306891
0.000410611
0.000376805
0.000427011
0.0004225
0.000474938
0.000453386
0.000450236
0.000446244
0.000439961
0.000447268
0.000325231
0.00031964
0.000299499
0.000310074
0.000531276
0.000363719
0.000399318
0.000428746
0.00053585
0.000360294
0.000428592
0.000734353
0.000455512
0.000471439
0.000704642
0.000765837
0.000505602
0.00079779
0.000488148
0.000496875
0.00039127
0.00035397
0.000413225
0.000358135
0.000414251
0.000490419
0.000326011
0.000331945
0.000335271
0.000334022
0.000448612
0.000448809
0.000436537
0.000437282
0.000444597
0.000373133
0.000340692
0.000388454
0.000438842
0.000344206
0.000389807
0.000647728
0.000440279
0.000675133
0.000425601
0.000477692
0.000386243
0.00035661
0.000410422
0.000483157
0.000353583
0.000409047
0.000405854
0.000399811
0.000378864
0.000382165
0.000328961
0.000327866
0.000316747
0.000318898
0.000329858
0.000331032
0.000335175
0.000336501
0.000409376
0.000412204
0.000433524
0.000429146
0.000349317
0.000352558
0.000375421
0.000369237
0.00030002
0.000302653
0.000315441
0.000313306
0.00034484
0.000300003
0.000316562
0.000328675
0.000349739
0.000297247
0.000326131
0.000323564
0.000301232
0.000279789
0.000306493
0.000282986
0.000308393
0.000320066
0.000298279
0.000295495
0.000279403
0.000282703
0.000346034
0.000340131
0.00032049
0.000323741
0.00028723
0.000269854
0.000248214
0.000273812
0.000283041
0.000253271
0.000277047
0.00031053
0.000290322
0.00027684
0.000301654
0.000315699
0.000273381
0.000298509
0.000282388
0.000275182
0.00023658
0.000243917
0.000243057
0.000236627
0.000186932
0.000197732
0.00024784
0.000253174
0.000276886
0.000273123
0.000287074
0.000291208
0.000317007
0.000311019
0.000131133
0.000148509
0.000227816
0.000216273
7.08834e-05
8.78873e-05
0.000176168
0.000163239
0.000113884
6.99402e-05
6.69433e-05
0.000101826
0.00013078
5.52788e-05
8.62164e-05
0.000294276
0.0004814
0.000331079
0.000477602
0.000185495
0.000112027
0.000211677
9.68812e-05
0.000314023
0.000365947
0.000517226
0.000556911
0.00034925
0.000324331
0.00051441
5.58687e-05
3.94931e-05
0.000113528
9.18231e-05
0.000239469
0.000309884
0.000296395
0.000458078
0.000308025
0.000224381
0.000275081
0.000349516
0.000489187
0.000337532
0.00164641
0.000965118
0.00109904
0.00076267
0.00167283
0.00113672
0.000837092
0.00191737
0.00112814
0.00118808
0.000929858
0.00173612
0.00121878
0.000939846
0.00159787
0.000952861
0.000973725
0.000918603
0.00170008
0.000994887
0.000932188
0.00196469
0.00122929
0.00117634
0.00104879
0.00183573
0.0011909
0.00106222
0.000631372
0.000399745
0.000428207
0.000355706
0.000618126
0.000434977
0.000369525
0.000606485
0.000399528
0.000434758
0.000364557
0.000612724
0.000433578
0.000356126
0.000557241
0.000401041
0.000432278
0.000362727
0.000560772
0.000432944
0.000358886
0.000573381
0.000394291
0.000427149
0.000351938
0.000566044
0.000428412
0.000358992
0.000420138
0.000361689
0.000374546
0.0003318
0.00041493
0.000375897
0.000334982
0.000403709
0.000352814
0.000369502
0.000330629
0.000408958
0.000367348
0.000327957
0.000363034
0.000328785
0.000342026
0.000310482
0.000368013
0.000339624
0.000307851
0.000377224
0.000338092
0.000346965
0.000312493
0.000372986
0.000348387
0.000315307
0.000264958
0.000247937
0.000251713
0.000224505
0.000259858
0.000256275
0.000231514
0.000244962
0.000226373
0.00024417
0.000217828
0.000253201
0.000237624
0.000209619
0.000167634
0.000131105
0.000163484
0.000129568
0.000181763
0.000149603
0.000113434
0.00020211
0.000175862
0.000180558
0.000144368
0.000193611
0.000190606
0.000158398
0.00125772
0.00131496
0.00198458
0.00255548
0.00145828
0.00165715
0.00191923
0.00161907
0.00133427
0.00264502
0.00133068
0.00184424
0.00161483
0.00232048
0.00165972
0.0015717
0.00254983
0.0026734
0.00359355
0.00241608
0.00403776
0.00235761
0.00152679
0.00164579
0.00202848
0.00302705
0.00498831
0.0032783
0.00448711
0.00118738
0.00123056
0.00173175
0.00125422
0.00255676
0.0014661
0.00124083
0.00153095
0.0015858
0.00175673
0.0015037
0.00133299
0.00252404
0.00127175
0.00180483
0.00148816
0.00292109
0.00181868
0.00198724
0.00264395
0.00283504
0.003857
0.00543368
0.00354599
0.00594077
0.000876574
0.000582749
0.000671832
0.000793005
0.000711076
0.000470986
0.000755157
0.000536383
0.00055867
0.000551422
0.000612628
0.000606917
0.00065662
0.000648246
0.000769724
0.000702511
0.000694966
0.000774895
0.00100815
0.000872407
0.000850426
0.000796918
0.000858548
0.00065847
0.000477091
0.000685766
0.000791913
0.000777109
0.000586076
0.000804537
0.000666008
0.000946005
0.000835885
0.00155665
0.00093276
0.000782575
0.000958244
0.000852583
0.000927941
0.000998233
0.000772613
0.00161099
0.000818942
0.00107285
0.000947258
0.0016452
0.00130292
0.00136333
0.00147202
0.00193412
0.00324391
0.0020768
0.00292472
0.00164928
0.00135894
0.00185351
0.00128577
0.00164801
0.00246404
0.00158879
0.00266834
0.000818376
0.00100062
0.00127396
0.00106378
0.00212298
0.00125695
0.00106274
0.00144903
0.0011857
0.00125479
0.00115395
0.00104633
0.00205944
0.00102311
0.00110208
0.00122041
0.00126471
0.00119831
0.00113019
0.00132417
0.00129486
0.00205912
0.00131732
0.00211245
0.0012593
0.00111283
0.00114619
0.0012284
0.00140511
0.00231509
0.00140904
0.00220148
0.000753664
0.00101949
0.000692645
0.00076071
0.000739733
0.000919794
0.000780422
0.000820325
0.00108212
0.000838005
0.000822386
0.000772781
0.000567654
0.000590559
0.000553691
0.00051651
0.000434705
0.000422811
0.000463171
0.000492208
0.000912425
0.00102295
0.000929264
0.00111373
0.000811437
0.000915141
0.000875605
0.000856787
0.000903834
0.00114357
0.000930843
0.000860452
0.00117144
0.000746333
0.000676005
0.0007321
0.00108835
0.000676538
0.000736515
0.00095063
0.000597568
0.00059195
0.000635158
0.00101021
0.000592444
0.00063006
0.000657803
0.000667359
0.000881702
0.00066204
0.000603172
0.000526237
0.000600306
0.000520321
0.000800606
0.000585517
0.000593096
0.000567687
0.000374823
0.000370144
0.000384349
0.000380708
0.000402504
0.000401378
0.000384857
0.000388802
0.000520766
0.000453242
0.000456979
0.000599292
0.000397818
0.000463528
0.000424352
0.000494086
0.000514172
0.000663233
0.000509
0.000451059
0.000522503
0.000569547
0.00077432
0.000661043
0.000861636
0.00126216
0.00086408
0.000693702
0.000816295
0.00076964
0.000780752
0.000708146
0.00121429
0.000678866
0.000723489
0.000802852
0.00107666
0.0008941
0.000848209
0.00108128
0.00126948
0.00208587
0.00128209
0.00206579
0.0010595
0.000787161
0.000811038
0.00105804
0.0012683
0.00202588
0.00125323
0.00204365
0.000529389
0.000485064
0.000666872
0.000623409
0.00101336
0.000670704
0.000618371
0.000688725
0.00064603
0.000678781
0.000746968
0.000622802
0.0010437
0.000626532
0.000725096
0.000711143
0.00112491
0.000940303
0.000969987
0.00112169
0.001274
0.00202567
0.00125346
0.00201134
0.00113395
0.00105342
0.00114768
0.000993758
0.00124116
0.00201271
0.00126614
0.00200458
0.000691858
0.000440545
0.00042498
0.000480472
0.000716265
0.000410852
0.00047022
0.000769193
0.000490969
0.000444362
0.00049824
0.000736014
0.000460454
0.000512843
0.00042981
0.000421006
0.000546351
0.000534293
0.000838636
0.000554437
0.000515257
0.000548905
0.000548116
0.000534445
0.000540037
0.000507151
0.000824866
0.00051366
0.000540131
0.000535314
0.000954814
0.000617548
0.000614855
0.000970734
0.00126055
0.00204582
0.00124023
0.00207676
0.000943784
0.000605325
0.000602734
0.000928246
0.00126737
0.00211633
0.00128785
0.00208769
0.000428299
0.000437756
0.000525102
0.000501124
0.00079361
0.000535066
0.000503797
0.000527889
0.00053198
0.000533514
0.000542417
0.000522666
0.000806115
0.000505767
0.000534443
0.000538283
0.00097523
0.000614876
0.000612271
0.000962915
0.00130508
0.00216823
0.00132024
0.00215087
0.000988483
0.000631665
0.000628836
0.000999186
0.00130555
0.0021264
0.00128883
0.00214895
0.000303226
0.000341145
0.000234464
0.000293608
0.000226712
0.000293664
0.00028889
0.000209926
0.000315014
0.000278554
0.000288477
0.000214609
0.00014108
0.000125489
0.000129669
0.00032048
0.00028848
0.000160029
0.000330547
0.000162364
0.000123337
0.000135314
0.000170938
0.000351205
0.00030281
0.000340252
0.000144086
0.000166275
0.000153752
0.000172349
0.000180347
0.000415624
0.00034293
0.000209677
0.000397305
0.000198923
0.000193758
0.000225282
0.000246549
0.000168404
0.000179021
0.000322365
0.00036449
0.000382248
0.000188866
0.000155305
0.000210266
0.000189007
0.000289234
0.000298736
0.000272043
0.000286945
0.000201185
0.000276991
0.000198104
0.000202813
0.000282009
0.000305088
0.000276824
0.000203875
0.000332002
0.000320062
0.000309065
0.000371069
0.00024699
0.000322081
0.000258787
0.000292423
0.000348995
0.000406295
0.00033555
0.000276488
0.000355858
0.000363704
0.00029705
0.000631356
0.000318532
0.000514394
0.000308368
0.000609028
0.000306892
0.000281133
0.000277181
0.000470912
0.000541167
0.000567692
0.000290275
0.00026753
0.000344035
0.000328876
0.00034408
0.000361233
0.000418134
0.000379982
0.000514379
0.000409651
0.000353848
0.00031091
0.000368341
0.000466824
0.000382816
0.000330301
0.000224251
0.000435853
0.000381456
0.000222706
0.000459867
0.000209054
0.000235754
0.000284487
0.000262806
0.000238892
0.000262312
0.000410708
0.000508102
0.00048477
0.000249703
0.000252344
0.000298536
0.000316127
0.000433922
0.000430386
0.000554904
0.000523561
0.000858821
0.00055421
0.000533427
0.000556435
0.00055519
0.000568871
0.000584995
0.000555481
0.000874012
0.00053648
0.000577682
0.000572887
0.00102244
0.000683237
0.000694715
0.00101784
0.00129681
0.00210883
0.00129215
0.0021241
0.00104023
0.000754246
0.00104283
0.000727453
0.00130857
0.00215419
0.00130899
0.00214624
0.000439689
0.000446632
0.000617522
0.000587303
0.000651701
0.000934915
0.000640163
0.000572795
0.000627499
0.000599679
0.00059298
0.000559935
0.000913657
0.000568913
0.000591135
0.000604659
0.00101493
0.000668922
0.000658782
0.00102088
0.0013231
0.00216733
0.00131331
0.00217606
0.000998756
0.000633353
0.000990945
0.000634676
0.00131489
0.00216757
0.00132157
0.0021658
0.00044732
0.000451144
0.000509597
0.000488302
0.000724207
0.000518368
0.000487021
0.000512699
0.000513146
0.00051531
0.000526909
0.000503964
0.000735785
0.000489801
0.000520719
0.000519665
0.00090428
0.000593776
0.000592739
0.000886436
0.00121056
0.00202898
0.00123339
0.00199418
0.000913112
0.000606894
0.000932393
0.000601917
0.00119868
0.00194214
0.00117692
0.00197749
0.00044797
0.000441125
0.000525981
0.000514115
0.000773275
0.000536027
0.000498651
0.000528571
0.000530674
0.000518837
0.000528985
0.000496395
0.000760983
0.000496488
0.000524081
0.00052226
0.000865621
0.00059255
0.000584924
0.000886931
0.00112741
0.0018261
0.00110538
0.00186339
0.000858278
0.000576895
0.0005775
0.000839243
0.00114258
0.00192147
0.00116607
0.00188372
0.000288801
0.000283217
0.000229575
0.000289562
0.000222703
0.000314075
0.000322947
0.000214455
0.000292075
0.000287082
0.000287719
0.000222697
0.000103687
0.000113348
0.000120921
0.000312088
0.000286265
0.000159546
0.000308397
0.000121474
0.000162117
0.000122959
0.000166601
0.000297378
0.000275902
0.000301527
0.000124063
0.000163206
9.68357e-05
9.28783e-05
0.00014
0.000286002
0.000273838
0.000185165
0.000286521
0.000179725
0.000144222
9.38198e-05
0.000100019
0.000134341
0.000170573
0.000281947
0.000291425
0.000292135
0.000176605
0.000129843
9.31507e-05
8.99947e-05
0.000313176
0.000305501
0.000279805
0.000293012
0.000200689
0.000278616
0.000207443
0.000212309
0.000278579
0.00028057
0.000280576
0.000205792
0.000522839
0.000395627
0.000356544
0.000421856
0.000516325
0.000361064
0.000422551
0.00050495
0.00039459
0.000361561
0.000421068
0.000509617
0.000358666
0.000420503
0.000295739
0.000232417
0.00029492
0.000296593
0.000239629
0.000332416
0.000329188
0.000245311
0.000287941
0.000296996
0.00029743
0.000239797
0.000142109
0.000149287
0.000183762
0.000275538
0.000276716
0.000220235
0.00027424
0.00021631
0.00018702
0.000138634
0.000130116
0.000179086
0.000208989
0.000275948
0.000283106
0.000278966
0.00017467
0.0002141
0.00015751
0.000281417
0.000190294
0.000282509
0.000152183
0.000284113
0.000196521
0.000112897
0.000104131
0.000116428
0.000124694
0.000163224
0.000204521
0.000275435
0.000279947
0.000279016
0.000199502
0.000167419
0.0003331
0.000336576
0.000301712
0.000291112
0.000256789
0.000302411
0.000252821
0.000247537
0.000301951
0.000296961
0.000302599
0.000253009
0.000445641
0.000444481
0.000501648
0.000490676
0.000513553
0.000695745
0.000509257
0.000477248
0.000504719
0.00049654
0.000503225
0.000476259
0.000684745
0.000474155
0.000498165
0.000498861
0.000762625
0.00054943
0.000538765
0.000784393
0.000977457
0.00158671
0.000957296
0.00162262
0.000757705
0.000531044
0.000533786
0.000738986
0.000994663
0.00168226
0.00101656
0.00164476
0.000443405
0.000440962
0.000480035
0.000460605
0.000643997
0.000484766
0.00045824
0.000481433
0.000480462
0.0004844
0.000496236
0.000474154
0.000654063
0.000461571
0.000493717
0.000486392
0.000808594
0.000555509
0.00055742
0.000789332
0.0010691
0.00180334
0.00109216
0.00176492
0.000814554
0.000572932
0.000836612
0.000563437
0.00105231
0.00170567
0.00103093
0.00174296
0.000451687
0.000376194
0.000349141
0.000397515
0.000457026
0.000346341
0.000395858
0.000469903
0.000382961
0.000348325
0.000401609
0.000463835
0.000352027
0.00040273
0.000394062
0.000397279
0.0004254
0.000416445
0.000535666
0.000434839
0.000405947
0.000424819
0.000435696
0.000422443
0.000423503
0.000405602
0.000528477
0.000402919
0.000421231
0.000421862
0.00057762
0.000447304
0.000437347
0.000593872
0.000718997
0.00117727
0.000705153
0.00120319
0.000575409
0.000432128
0.00043512
0.000561923
0.000732667
0.00124821
0.000747736
0.00122061
0.00039061
0.000384404
0.000403642
0.000387526
0.000495104
0.00040415
0.000384907
0.000402736
0.000402424
0.000406205
0.000414766
0.000397455
0.000501373
0.000387706
0.000416146
0.000405229
0.000615869
0.000455163
0.000458376
0.000600924
0.000790393
0.00134503
0.000807301
0.00131444
0.000618585
0.000471683
0.000461104
0.000636559
0.000775416
0.00126681
0.000760015
0.00129536
0.000301788
0.00029115
0.000267368
0.000300953
0.000268679
0.000323814
0.000325596
0.000268
0.000287019
0.000297666
0.000299021
0.000267402
0.000200653
0.000202794
0.000199933
0.000197154
0.000190893
0.000187028
0.000192145
0.000195178
0.00032276
0.000321077
0.000292775
0.000282624
0.000266723
0.00029429
0.00026672
0.000267619
0.000297471
0.000286333
0.000296399
0.000268168
0.000333453
0.000333401
0.000301246
0.000290266
0.000267299
0.000302461
0.000265863
0.000264497
0.000304432
0.000294853
0.000304048
0.000266871
0.000160918
0.000154041
0.000196045
0.00027193
0.000223619
0.000282288
0.000192868
0.000274489
0.000227363
0.000199503
0.000231424
0.000276345
0.000271178
0.000270084
0.000228685
0.00020171
0.000163621
0.000169216
0.000333856
0.000334051
0.000304773
0.000258222
0.000296949
0.000304787
0.00026197
0.000263839
0.000302828
0.000291777
0.000303748
0.000261319
0.000180086
0.000184264
0.000178175
0.000172929
0.0004205
0.000415053
0.000441907
0.000424216
0.000564805
0.000443807
0.000421612
0.000440961
0.000441814
0.000445269
0.000455655
0.000436007
0.000572943
0.000424846
0.000455744
0.000445343
0.00070781
0.000505394
0.00050858
0.000690077
0.000922369
0.00156379
0.00094277
0.00152809
0.00071185
0.000523732
0.000732727
0.000512656
0.000905416
0.00147247
0.000886708
0.00150637
0.000423754
0.000425869
0.000465336
0.000455627
0.000476517
0.00061274
0.000475462
0.000443671
0.000466213
0.00046144
0.000464558
0.000442934
0.00060357
0.000440334
0.000460909
0.000462028
0.00066355
0.000497422
0.000486406
0.000683051
0.000837785
0.00136545
0.00082067
0.00139685
0.0006602
0.000479742
0.000643754
0.000483043
0.000853914
0.00145064
0.000872563
0.00141743
0.000360602
0.000354538
0.000369034
0.000354045
0.00043724
0.000369143
0.000351628
0.000368014
0.000367876
0.000371134
0.000378332
0.000362719
0.00044209
0.000354151
0.000380002
0.000369935
0.000538841
0.000410946
0.000413666
0.000526789
0.00068055
0.00116037
0.00069398
0.0011355
0.00054061
0.000424708
0.000555262
0.000415479
0.000668224
0.00109646
0.000655872
0.00111977
0.000363902
0.000367187
0.00038812
0.000379543
0.000470209
0.000395888
0.000370399
0.000397503
0.000386915
0.00038584
0.000386055
0.000370412
0.000464726
0.000367816
0.000384631
0.000384785
0.000507493
0.000404046
0.000395541
0.000520618
0.000622899
0.00102385
0.000611812
0.00104488
0.000506065
0.000391552
0.000394017
0.000495268
0.000633932
0.00108132
0.000645849
0.00105901
0.000279946
0.000270696
0.000259206
0.000281678
0.000260051
0.000307375
0.000304901
0.000263133
0.000274308
0.00028586
0.0002842
0.000262061
0.000206118
0.000204126
0.000206571
0.000207868
0.000205002
0.000203946
0.000207638
0.000207871
0.000308806
0.000311187
0.000292074
0.000280704
0.000266007
0.000290719
0.000265943
0.000263968
0.000286909
0.000277247
0.000288469
0.000264294
0.000340516
0.000313934
0.000291567
0.000320199
0.000336957
0.000294407
0.000321796
0.000327752
0.000304083
0.000289027
0.000315455
0.000332622
0.000286107
0.000312733
0.000278346
0.000257565
0.00026644
0.000276386
0.000256144
0.000290383
0.000293238
0.000253118
0.000263266
0.000271825
0.00027386
0.000254112
0.000203858
0.000203042
0.000204917
0.00020453
0.000204696
0.000204389
0.000204358
0.000204358
0.000288424
0.000285296
0.000261971
0.000254534
0.000244837
0.000264579
0.000246757
0.000251261
0.000269858
0.000257919
0.000267503
0.000249207
0.000335012
0.00033818
0.000355108
0.000346795
0.000361958
0.000416601
0.000363419
0.000338668
0.000354094
0.000353117
0.00035332
0.000338581
0.000412287
0.000336328
0.000351961
0.000352331
0.000451294
0.000367911
0.000360605
0.000461957
0.000546525
0.000900269
0.000537445
0.000917514
0.000450407
0.000357272
0.000359425
0.000441626
0.00055517
0.000946792
0.000564703
0.000928726
0.000331744
0.000325888
0.000337656
0.000323261
0.000389305
0.000338068
0.000321405
0.000337299
0.000336396
0.000339731
0.000346556
0.000331676
0.000393316
0.000323846
0.00034767
0.000339113
0.000476723
0.000373803
0.000376072
0.000467072
0.000592224
0.0010102
0.000602848
0.000990153
0.000477823
0.000385197
0.000489626
0.000377361
0.000582482
0.000958769
0.000572558
0.000977686
0.00029215
0.000274178
0.000262227
0.000286242
0.00029788
0.000257877
0.000282451
0.000306163
0.000286934
0.000265868
0.000291458
0.000302497
0.000269719
0.00029384
0.000265312
0.000270541
0.000290321
0.000283602
0.000328844
0.000300602
0.000275082
0.000293562
0.00029833
0.000286486
0.000289658
0.000270041
0.000324143
0.000270838
0.000283473
0.000290245
0.00036502
0.000306207
0.000299384
0.000373855
0.000434313
0.00070886
0.000426434
0.000723704
0.000365477
0.000294639
0.00029785
0.000358045
0.000438198
0.000744716
0.000446182
0.000729772
0.000259251
0.000250559
0.000263451
0.000244656
0.000300452
0.000268905
0.000247542
0.000270691
0.000258612
0.000268846
0.00028272
0.000262851
0.000306052
0.000253246
0.000277686
0.000275314
0.000384248
0.000310909
0.00031343
0.000376659
0.000463558
0.000789532
0.000471632
0.000774395
0.000384382
0.000321394
0.000314804
0.000393344
0.000458066
0.000751692
0.000449971
0.000766749
0.000226503
0.000211101
0.000209901
0.000220439
0.000204004
0.000222914
0.000230351
0.000189376
0.000203464
0.000206261
0.00021351
0.000196706
0.000126126
0.000113528
0.000136741
0.000146819
0.000169223
0.000175469
0.000162573
0.000154694
0.000215817
0.000206787
0.000169343
0.000169453
0.00015048
0.000179989
0.000161396
0.000180961
0.000198722
0.000180234
0.000189891
0.000171923
0.000262411
0.000257625
0.000231526
0.000226741
0.000215475
0.000236469
0.000220273
0.000229169
0.000245647
0.00023225
0.000241434
0.000225233
0.000200455
0.000202324
0.000197869
0.000195151
0.000265766
0.000269833
0.000259396
0.000242169
0.00024713
0.000256362