/*--------------------------------*- C++ -*----------------------------------*\
| =========                 |                                                 |
| \\      /  F ield         | OpenFOAM: The Open Source CFD Toolbox           |
|  \\    /   O peration     | Version:  2012                                  |
|   \\  /    A nd           | Website:  www.openfoam.com                      |
|    \\/     M anipulation  |                                                 |
\*---------------------------------------------------------------------------*/
FoamFile
{
    version     2.0;
    format      ascii;
    class       volSymmTensorField;
    location    "0.108/solid";
    object      epsilon;
}
// * * * * * * * * * * * * * * * * * * * * * * * * * * * * * * * * * * * * * //

dimensions      [0 0 0 0 0 0 0];


internalField   nonuniform List<symmTensor> 
3125
(
(0.000327669 -0.0027797 2.50246e-05 0.000559368 0.000287077 -0.000328551)
(8.10972e-07 -0.00281886 0.000249145 0.000867225 -7.45506e-05 -0.000215629)
(5.74807e-05 -0.00113718 5.06044e-05 -0.000249722 0.000171411 -4.60368e-07)
(8.62677e-05 -0.00105079 5.04044e-05 -0.000132795 0.000164171 -1.41666e-05)
(0.0001318 -0.000556797 3.25799e-05 0.000312276 5.88567e-05 -1.11085e-05)
(0.000131845 -0.000506349 2.89809e-05 0.000337663 5.08822e-05 -8.45913e-06)
(0.000120384 -0.000274624 1.40182e-05 0.000424333 8.10005e-05 3.20378e-05)
(0.000117282 -0.00025289 1.27228e-05 0.000419239 0.000109541 5.10326e-05)
(-0.00021698 -0.00176389 0.000148669 -0.000286618 -7.73634e-05 0.000131294)
(-0.00013102 -0.00152151 9.45788e-05 -0.000443053 4.41798e-05 0.000102528)
(0.000123142 -0.000813767 4.70614e-05 0.000135071 0.00011246 -2.11161e-05)
(0.000127418 -0.000741728 4.39297e-05 0.00019448 9.5852e-05 -1.90287e-05)
(0.000129771 -0.000385205 2.04284e-05 0.000389619 4.05782e-05 8.71583e-07)
(0.000128273 -0.000353046 1.83481e-05 0.000401177 4.28448e-05 5.47825e-06)
(0.000559815 -0.00214512 -0.000391643 -0.000328441 0.000582093 -0.000282426)
(0.000887492 -0.00328247 0.000397321 0.00127127 6.01878e-05 -0.000184911)
(0.000378531 -0.00175687 -7.73276e-05 0.000973824 0.000365313 -0.000629869)
(0.00175466 -0.00079216 1.55153e-05 0.00193794 2.33402e-05 0.000481216)
(0.00181264 -0.00321641 8.15618e-05 0.000376457 0.000331962 -0.000259279)
(0.000575474 -0.000570872 0.000249088 0.000902037 0.000123278 0.000135085)
(0.000113761 -0.00274922 0.000380807 0.00135304 -0.000190835 -5.27298e-05)
(0.000232456 -0.00188694 0.000246853 0.00106847 3.98312e-05 -0.00051204)
(-0.000214398 -0.00250247 0.000284619 0.000561383 -0.000247038 -2.03725e-05)
(-0.000292229 -0.0015941 0.00057645 0.000367869 -0.000312055 3.71725e-05)
(0.00166686 -0.000805786 0.000126877 0.00192835 -1.93838e-05 0.000470253)
(-0.000228009 -0.00215849 0.000209425 0.00085121 -0.000237506 8.05378e-05)
(0.000220195 -0.000295861 0.000102944 0.000228536 0.000107117 -9.55804e-06)
(1.36451e-05 -0.00123406 5.37798e-05 -0.000364244 0.00016194 2.38287e-05)
(0.000254479 -0.00121691 4.5095e-05 -5.61469e-05 0.000176306 -7.95028e-06)
(0.000344113 -0.000248141 8.62313e-05 0.000325482 8.77931e-05 -1.99202e-05)
(0.000213524 -0.00127532 3.5193e-05 -0.000153204 0.000175954 8.9225e-06)
(0.000425736 -0.000204602 7.84647e-05 0.000402528 7.50146e-05 -3.1098e-05)
(0.000275333 -0.00115216 5.03592e-05 3.79513e-05 0.000165227 -1.67641e-05)
(0.000104601 -0.000968917 5.03599e-05 -2.74557e-05 0.000148755 -2.03787e-05)
(0.00035241 -0.000236555 8.50318e-05 0.000332903 8.49302e-05 -2.71608e-05)
(0.000283776 -0.00108161 5.19145e-05 0.000118572 0.000149173 -2.0171e-05)
(0.000459809 -0.000134209 5.64745e-05 0.000443459 5.09242e-05 -3.06612e-05)
(0.00013123 -0.000612849 3.63933e-05 0.000281036 6.89784e-05 -1.37824e-05)
(0.000254671 -0.000673578 3.20397e-05 0.000349238 6.50012e-05 -1.09907e-05)
(0.000452655 -0.00011313 4.68722e-05 0.000439964 4.21235e-05 -2.33249e-05)
(0.000262073 -0.000731204 3.59972e-05 0.000330208 7.48466e-05 -1.32556e-05)
(0.000440236 -9.3075e-05 3.79504e-05 0.000430683 3.41833e-05 -1.27576e-05)
(0.00024744 -0.00062142 2.84531e-05 0.000364292 5.6996e-05 -8.66098e-06)
(0.000131579 -0.000461269 2.57003e-05 0.00035852 4.50683e-05 -5.73738e-06)
(0.000451536 -0.000110432 4.55178e-05 0.000438868 4.08254e-05 -2.24804e-05)
(0.000240466 -0.00057456 2.52681e-05 0.000376424 5.09351e-05 -6.20827e-06)
(0.000404921 -6.28698e-05 3.5312e-05 0.000400293 3.39172e-05 3.803e-05)
(0.000123499 -0.000298243 1.52586e-05 0.000419235 6.14746e-05 2.00881e-05)
(0.000199801 -0.000373199 1.83769e-05 0.000412736 8.20962e-05 3.06098e-05)
(0.000378786 -5.22201e-05 4.51025e-05 0.000376275 4.71314e-05 9.96498e-05)
(0.000207633 -0.000400172 1.82223e-05 0.000409999 6.34146e-05 1.83934e-05)
(0.000326428 -4.56274e-05 4.01504e-05 0.000320036 4.45014e-05 0.000248346)
(0.000191925 -0.000348415 1.77768e-05 0.000407456 0.000111092 5.08082e-05)
(0.000111511 -0.000234257 1.50784e-05 0.000385465 0.000153158 8.84716e-05)
(0.000374093 -5.1133e-05 4.70394e-05 0.000371453 4.89343e-05 0.000113493)
(0.000178863 -0.000321991 2.12886e-05 0.000372438 0.000152681 9.07214e-05)
(0.00115542 -0.00362945 0.000256863 0.000195676 -0.000193796 2.77094e-05)
(0.000520812 -0.000666709 2.41655e-06 0.000858418 0.000156332 -0.000244933)
(0.000769473 -0.00287832 0.000217928 -3.85819e-05 -0.000158218 2.55913e-07)
(0.000326921 -0.00159268 -7.98066e-06 -0.00066275 -6.78427e-05 5.60531e-05)
(0.000446234 -0.000732534 0.00021489 0.000899185 7.70036e-06 -0.000137935)
(-0.00012281 -0.000636258 0.000425447 0.000288111 -0.000106062 7.55979e-05)
(0.000542167 -0.000616976 0.000254094 0.000843008 0.000126381 0.000153027)
(-0.000266933 -0.00210181 0.00022375 7.28317e-05 -0.00020628 0.000102625)
(-0.000109988 -0.00152288 2.38227e-05 -8.15864e-05 -7.06456e-06 0.000117818)
(0.000127738 -0.000405671 0.000169578 0.000248251 0.000149232 2.21645e-05)
(-0.000234858 -0.00175419 8.23013e-05 0.000288595 -0.000140494 0.000128389)
(-0.000448643 -0.000362658 0.000258917 -0.000343206 -1.39213e-07 9.33707e-05)
(-0.000270741 -0.000560921 0.000404011 5.75559e-05 -8.61755e-05 0.000101637)
(0.000345262 -0.00149859 -3.0384e-05 -0.000816243 0.000119555 3.49399e-05)
(0.000263187 -0.00147979 -1.53524e-05 -0.000755777 -6.95357e-06 5.08853e-05)
(0.000204091 -0.000307769 0.000107061 0.000217625 0.000111925 -2.75944e-06)
(-4.94284e-05 -0.00135465 6.5769e-05 -0.00044613 0.0001234 6.02501e-05)
(3.22118e-05 -0.00140293 1.27076e-05 -0.000227772 9.55766e-05 7.61472e-05)
(0.000142824 -0.000410617 0.00016084 0.000246761 0.000144325 2.73347e-05)
(0.000142068 -0.00133183 2.24433e-05 -0.000227478 0.000153187 3.77868e-05)
(0.000517168 -0.00161348 2.32243e-05 -0.000355008 0.000197356 -7.90736e-06)
(0.000502565 -0.0016531 2.36638e-05 -0.000531017 0.000217068 5.00478e-06)
(-0.000102263 -0.000167544 8.9414e-05 -0.000192421 3.90443e-05 -6.3481e-06)
(-0.000257168 -0.00020389 0.000110638 -0.00033135 4.08986e-05 2.3967e-05)
(-0.000436791 -0.000314702 0.000214011 -0.000391053 1.68833e-05 8.09507e-05)
(-0.000311363 -0.00022229 0.000126265 -0.000370733 3.84889e-05 3.82723e-05)
(0.000386837 -0.00154459 -1.05315e-05 -0.000774256 0.00016115 3.34049e-05)
(0.000471228 -0.00164735 6.62241e-06 -0.000594375 0.000199755 5.04995e-06)
(0.000527872 -0.00158244 3.52016e-05 -0.000305939 0.000204064 -7.26941e-06)
(0.000507227 -0.00146732 2.47226e-05 -0.000178457 0.00016697 -1.05795e-05)
(-5.72199e-05 -0.000159894 8.68969e-05 -0.000142678 3.73719e-05 -1.49145e-05)
(5.43875e-05 -0.00013977 8.29169e-05 -1.80433e-05 3.22993e-05 -2.78647e-05)
(0.000428644 -0.00019636 7.74619e-05 0.000405516 7.29429e-05 -3.5311e-05)
(0.000116067 -0.000889805 4.92984e-05 6.17588e-05 0.000130554 -2.19898e-05)
(0.000281746 -0.000933969 4.79856e-05 0.00023496 0.000115279 -1.94758e-05)
(0.000456595 -0.000168422 6.93949e-05 0.000436123 6.39821e-05 -3.41023e-05)
(0.000284902 -0.00100793 5.08013e-05 0.000183703 0.000131899 -2.0587e-05)
(0.000154729 -0.000118085 7.57923e-05 0.000105913 2.52682e-05 -3.18443e-05)
(8.39822e-05 -0.000134475 8.1663e-05 1.95874e-05 3.01031e-05 -3.09084e-05)
(0.000473112 -0.00128843 2.139e-05 -5.40681e-05 0.000133102 -9.76045e-06)
(0.000506141 -0.00142314 3.43044e-05 -0.000143831 0.00017044 -9.93629e-06)
(0.000460521 -0.00013802 5.80317e-05 0.000444086 5.25701e-05 -3.06574e-05)
(0.000129903 -0.000674565 4.02572e-05 0.000242394 8.13101e-05 -1.64689e-05)
(0.000276192 -0.000862169 4.42757e-05 0.00027488 0.000100033 -1.76225e-05)
(0.00045695 -0.000162866 6.79732e-05 0.000436634 6.21214e-05 -3.56732e-05)
(0.000269387 -0.000794229 4.01418e-05 0.000305954 8.65461e-05 -1.54969e-05)
(0.00039338 -0.000967786 1.30563e-05 0.000101848 7.94947e-05 -5.98734e-06)
(0.000424501 -0.00107699 2.4368e-05 5.40692e-05 0.000105961 -7.57221e-06)
(0.000255572 -8.21023e-05 5.21414e-05 0.00023781 1.44773e-05 -1.81586e-05)
(0.000228301 -9.45816e-05 6.13686e-05 0.000202474 1.76824e-05 -2.52082e-05)
(0.000173109 -0.000113349 7.32996e-05 0.000130846 2.33267e-05 -3.1655e-05)
(0.000216909 -9.88203e-05 6.44633e-05 0.000186491 1.92078e-05 -2.68191e-05)
(0.000466803 -0.00124382 2.96308e-05 -2.9149e-05 0.000135797 -9.24179e-06)
(0.000432352 -0.00111661 1.70568e-05 3.56825e-05 0.000103197 -8.01333e-06)
(0.000385795 -0.000934806 1.97094e-05 0.000115601 8.28283e-05 -5.55376e-06)
(0.000359351 -0.000845038 9.93822e-06 0.000151477 6.31529e-05 -3.70221e-06)
(0.000262806 -7.86017e-05 4.91881e-05 0.000248036 1.33962e-05 -1.59119e-05)
(0.000438901 -9.1102e-05 3.7045e-05 0.000429359 3.3333e-05 -1.11983e-05)
(0.000130883 -0.000421125 2.28401e-05 0.000375677 4.15305e-05 -2.71475e-06)
(0.000227492 -0.000494632 2.05409e-05 0.000393747 4.53261e-05 -6.77162e-08)
(0.000425521 -7.72839e-05 3.3055e-05 0.000418581 3.02753e-05 3.09973e-06)
(0.00023384 -0.000532489 2.26539e-05 0.000386128 4.6903e-05 -3.42939e-06)
(0.000330397 -0.000745285 7.98699e-06 0.000190002 5.60664e-05 -6.34566e-07)
(0.000352599 -0.000818213 1.6145e-05 0.000162001 6.75812e-05 -3.16067e-06)
(0.000407317 -6.41961e-05 3.44069e-05 0.000402727 3.30322e-05 3.26041e-05)
(0.000126192 -0.000324234 1.66651e-05 0.000411025 4.93332e-05 1.16352e-05)
(0.000221203 -0.00046042 1.91029e-05 0.000399979 4.68205e-05 4.27156e-06)
(0.000423927 -7.57929e-05 3.282e-05 0.00041696 3.00863e-05 5.74675e-06)
(0.000214698 -0.000429141 1.83429e-05 0.000405368 5.23516e-05 1.01249e-05)
(0.000279655 -0.000587697 9.2164e-06 0.000255077 9.53574e-05 1.4348e-05)
(0.000299325 -0.000642748 1.36927e-05 0.000230982 7.36472e-05 5.96237e-06)
(0.000324494 -0.000723309 1.39739e-05 0.000198576 6.25741e-05 2.12937e-07)
(0.000304874 -0.000661937 7.70751e-06 0.000222909 6.30008e-05 4.34448e-06)
(0.000273508 -0.00057037 1.49732e-05 0.000262347 0.000115455 1.85313e-05)
(0.00025106 -0.000508196 1.27725e-05 0.000250584 0.00019455 5.69024e-05)
(0.000320532 -4.61638e-05 3.39324e-05 0.000313045 3.61524e-05 0.000268918)
(0.000120574 -0.000393712 1.28813e-05 0.00034915 0.000246016 0.000101231)
(0.000222143 -0.000474032 1.51616e-05 0.000209983 0.000243809 9.74453e-05)
(0.000180362 -0.000204219 6.07491e-06 0.000273547 2.23128e-05 0.000297402)
(3.49373e-05 -0.000269231 -3.02051e-06 0.000107218 0.000309187 0.000292891)
(0.00186002 -0.00143685 -0.000175098 0.00034266 0.000746236 -0.000519841)
(0.00166199 -0.00060937 -0.000268957 0.00123702 -0.000115876 0.000446102)
(0.00271611 -0.00148864 0.000139475 0.000534922 0.000421288 -0.000145272)
(0.00135405 -0.000386559 -0.000355269 0.000368318 0.000498425 -0.000206822)
(0.00153326 -0.00180941 8.17277e-05 0.000930669 0.000596351 -0.000441461)
(0.00162376 -0.000558927 -0.000202081 0.00138876 -6.7193e-05 0.000422571)
(0.00167097 -0.00184696 0.00049122 0.00130942 0.000281681 -6.01661e-05)
(0.00118011 -0.00115225 0.000201568 0.00154104 0.00039743 -0.000160312)
(0.00109569 -0.00205422 0.000447514 0.00138788 0.000401612 -0.000433027)
(0.00223315 -0.00178441 0.000327669 0.0010597 0.000368474 -8.16603e-05)
(0.00133491 -0.000813412 -2.86065e-05 0.00101822 0.000519301 -0.000167826)
(-3.61521e-05 -0.00189939 0.00052437 0.00123248 -0.000280634 2.84134e-05)
(5.71022e-05 -0.00119114 0.000398818 0.000995837 -0.000151803 0.000184126)
(0.00103756 -0.000711992 0.000258715 0.0014063 5.12851e-05 0.000283638)
(7.55009e-05 -0.00135941 0.00027681 0.000749477 -0.000123465 0.000206684)
(0.000217764 -0.00143913 0.000360864 0.000923394 -0.000105392 0.000156785)
(0.000265191 -0.00127418 0.000460416 0.00129863 -0.000160422 0.00015007)
(-0.000217434 -0.0017112 0.000466101 0.000957922 -0.000302053 0.000187067)
(0.000238557 -0.00202635 0.000635212 0.00150926 -0.00017229 -9.36126e-05)
(0.00113346 -0.00067868 0.000236154 0.00151357 3.73429e-05 0.000278174)
(0.00105458 -0.00177112 0.000543041 0.0013608 4.98765e-05 -7.57792e-06)
(0.000899368 -0.00132677 0.000417766 0.00172563 9.31798e-05 -6.86738e-05)
(0.000662301 -0.00211828 0.000539398 0.00153626 5.50605e-05 -0.000318743)
(0.000592146 -0.00166336 0.000489688 0.00127627 -8.05733e-05 0.000118594)
(0.000557287 -0.00134732 0.000482302 0.00161481 -7.90291e-05 4.60426e-05)
(0.00020862 -0.000816975 9.70407e-05 -9.52433e-05 0.000138922 4.73136e-06)
(6.1506e-05 -0.000508227 0.000101612 -2.14177e-05 9.29005e-05 1.28122e-05)
(0.000278653 -0.000274359 9.41399e-05 0.000270716 9.67052e-05 -1.18791e-05)
(0.000359982 -0.000686637 5.90227e-05 -2.72946e-05 0.000135793 1.22767e-05)
(0.000159888 -0.000852657 5.59594e-05 -0.000118086 0.00012959 3.55648e-05)
(0.000407751 -0.000656779 8.91679e-05 -7.1866e-06 0.000129764 -5.71044e-06)
(0.00010937 -0.000475539 0.00010003 3.53212e-06 9.26164e-05 3.4142e-07)
(0.000246498 -0.000785025 6.14538e-05 -4.29167e-05 0.000136402 -5.49994e-07)
(0.000290113 -0.000261236 9.13995e-05 0.000279582 9.35777e-05 -2.01673e-05)
(0.000471927 -0.000616909 9.42382e-05 7.16477e-05 0.000128254 -2.38746e-05)
(0.000188359 -0.000426074 9.72127e-05 7.43728e-05 9.14246e-05 -2.03431e-05)
(0.000278436 -0.00075545 0.000100913 -1.35623e-05 0.000139767 -2.36501e-05)
(0.000440487 -0.000644031 6.92144e-05 5.1493e-05 0.000134789 -1.14262e-05)
(0.000150415 -0.000451459 9.78994e-05 4.44578e-05 9.2331e-05 -1.27857e-05)
(0.000336968 -0.000672966 7.21947e-05 0.000112668 0.000119762 -3.16055e-05)
(0.000289738 -0.000351356 9.50356e-05 0.000202146 7.77267e-05 -3.74006e-05)
(0.000397844 -0.00021526 8.08671e-05 0.000375279 7.87343e-05 -3.23785e-05)
(0.000530193 -0.000541402 9.49881e-05 0.000202368 0.000110048 -3.64107e-05)
(0.000519077 -0.000566309 7.7168e-05 0.000189497 0.000118323 -3.19799e-05)
(0.000269964 -0.000370457 9.61402e-05 0.000179609 8.05222e-05 -3.61139e-05)
(0.000347563 -0.000645915 0.000103816 0.000136296 0.000116499 -4.19237e-05)
(0.000322131 -0.00069959 0.000104053 6.68717e-05 0.00013 -3.73427e-05)
(0.000392077 -0.000224515 8.19771e-05 0.000369527 8.08662e-05 -2.66875e-05)
(0.000491508 -0.0006056 7.51735e-05 0.000126824 0.000127919 -2.5526e-05)
(0.000219735 -0.000407812 9.7191e-05 0.000116283 8.76195e-05 -2.84479e-05)
(0.000302966 -0.000727254 6.78949e-05 3.87656e-05 0.000131073 -2.16952e-05)
(0.00051059 -0.000579376 9.66405e-05 0.000143538 0.000120137 -3.29421e-05)
(0.000247493 -0.000386289 9.68293e-05 0.000143837 8.51069e-05 -3.19794e-05)
(0.000360276 -0.000411402 7.16134e-05 0.0003178 5.67499e-05 -2.49128e-05)
(0.000359306 -0.00022581 6.81628e-05 0.00033808 4.55254e-05 -2.93288e-05)
(0.000457277 -0.000124744 5.22019e-05 0.00044276 4.71987e-05 -2.74259e-05)
(0.000507914 -0.000374043 5.49116e-05 0.00033669 6.80517e-05 -2.58614e-05)
(0.000363351 -0.000432103 5.63679e-05 0.00031159 6.21201e-05 -2.51138e-05)
(0.000505562 -0.000357222 6.32223e-05 0.000338592 6.08717e-05 -2.45808e-05)
(0.000361244 -0.000214009 6.475e-05 0.000342649 4.29382e-05 -2.69484e-05)
(0.000358582 -0.000393657 5.04494e-05 0.000328845 5.42174e-05 -2.10218e-05)
(0.000456532 -0.000121774 5.06846e-05 0.000442117 4.57391e-05 -2.68835e-05)
(0.000493072 -0.000326976 5.64977e-05 0.00034827 5.35195e-05 -2.0589e-05)
(0.000362935 -0.000193599 5.7867e-05 0.00035254 3.77647e-05 -2.23322e-05)
(0.000355156 -0.000374935 6.40426e-05 0.000333483 4.89983e-05 -2.02538e-05)
(0.000495857 -0.000341987 4.88762e-05 0.000347122 6.02631e-05 -2.21562e-05)
(0.000362051 -0.000204079 6.09123e-05 0.00034946 4.01621e-05 -2.48462e-05)
(0.000347248 -0.000327798 3.98549e-05 0.000352179 4.27476e-05 -1.2016e-05)
(0.000361539 -0.00015898 4.60791e-05 0.000364527 3.02036e-05 -1.13715e-05)
(0.000445607 -0.000100268 4.08038e-05 0.000434588 3.67547e-05 -1.73723e-05)
(0.000468039 -0.000274646 4.52505e-05 0.000359782 4.26251e-05 -1.13706e-05)
(0.000471348 -0.00028668 3.85217e-05 0.000359784 4.80723e-05 -1.36316e-05)
(0.000362108 -0.000167177 4.83046e-05 0.000363123 3.18868e-05 -1.44938e-05)
(0.000343519 -0.000312543 5.1001e-05 0.000354314 3.8223e-05 -1.02755e-05)
(0.000349502 -0.000342119 5.71134e-05 0.000345495 4.28429e-05 -1.54059e-05)
(0.000446678 -0.000102439 4.19877e-05 0.000435633 3.7824e-05 -1.86026e-05)
(0.000483532 -0.000312889 4.34318e-05 0.000354554 5.34551e-05 -1.80964e-05)
(0.000362808 -0.000184614 5.43192e-05 0.00035746 3.54786e-05 -1.99216e-05)
(0.000353086 -0.000358966 4.49301e-05 0.000342093 4.7654e-05 -1.66828e-05)
(0.000480464 -0.000299481 5.04532e-05 0.000355087 4.74175e-05 -1.62212e-05)
(0.000362894 -0.000175239 5.16054e-05 0.000359409 3.35291e-05 -1.71708e-05)
(0.000305873 -0.000205678 3.60112e-05 0.000369845 5.17544e-05 4.53833e-05)
(0.000340457 -0.000104855 3.53693e-05 0.000361081 3.40857e-05 4.45466e-05)
(0.00039512 -5.80787e-05 3.86244e-05 0.00039169 3.85039e-05 5.86831e-05)
(0.000411536 -0.000189489 3.02819e-05 0.00036322 5.08424e-05 3.29132e-05)
(0.00031143 -0.000214844 2.77255e-05 0.000371836 4.93093e-05 3.60935e-05)
(0.000406027 -0.000181689 3.82818e-05 0.000360132 5.22692e-05 4.28266e-05)
(0.000335761 -9.97408e-05 3.6516e-05 0.000356893 3.75301e-05 5.82547e-05)
(0.000300873 -0.000198024 2.78723e-05 0.000368946 6.25437e-05 5.99376e-05)
(0.000391888 -5.68007e-05 4.02716e-05 0.000388433 4.01065e-05 6.71463e-05)
(0.00038967 -0.000166896 4.11529e-05 0.000353251 6.69114e-05 7.21839e-05)
(0.000323757 -9.05247e-05 3.81102e-05 0.000346144 4.77442e-05 9.59431e-05)
(0.000294568 -0.00018957 3.53417e-05 0.000364247 6.80668e-05 7.41093e-05)
(0.000396599 -0.000174123 3.28541e-05 0.000358389 6.27707e-05 5.66714e-05)
(0.000330044 -9.52867e-05 3.68099e-05 0.000352943 4.25036e-05 7.52701e-05)
(0.000276232 -0.000169762 2.70272e-05 0.000327685 9.48725e-05 0.000149848)
(0.000291689 -7.64309e-05 3.30569e-05 0.000295721 4.83175e-05 0.000223743)
(0.000349514 -4.74208e-05 4.94471e-05 0.000345613 5.44324e-05 0.000186359)
(0.000343735 -0.000144718 4.1329e-05 0.000297056 8.76832e-05 0.000200966)
(0.000357888 -0.000145258 3.62924e-05 0.000315196 9.43416e-05 0.000155007)
(0.000300161 -7.90918e-05 3.5819e-05 0.000311652 5.66792e-05 0.000186415)
(0.000267279 -0.000163141 3.43007e-05 0.00030031 8.8051e-05 0.0001983)
(0.000282409 -0.000175306 3.37473e-05 0.000346986 8.74856e-05 0.00011889)
(0.000355678 -4.74262e-05 4.95727e-05 0.000352552 5.52543e-05 0.000164271)
(0.000378807 -0.000159475 3.56579e-05 0.000346381 7.98069e-05 9.40333e-05)
(0.000316373 -8.63116e-05 3.79369e-05 0.000338242 5.30714e-05 0.000121255)
(0.000288933 -0.000182825 2.75465e-05 0.00035819 8.05995e-05 9.53233e-05)
(0.000371085 -0.000154293 4.24233e-05 0.000336756 8.55542e-05 0.000120027)
(0.000308631 -8.24803e-05 3.77737e-05 0.00032677 5.74793e-05 0.000151571)
(0.00286003 -0.0018787 0.00035731 0.00110375 3.23081e-05 0.000103357)
(0.00155161 -0.00158817 0.000330752 0.000805774 -1.52275e-05 5.46014e-05)
(0.00149027 -0.00448785 0.000351154 0.000396259 -0.000156584 -1.68499e-05)
(0.00142086 -0.00145906 0.000334848 0.00097257 1.02716e-05 0.000120069)
(0.0016238 -0.00197608 0.000457312 0.00141157 1.04256e-05 0.000110666)
(0.00273024 -0.00189864 0.000305039 0.00109358 9.67564e-05 7.29899e-05)
(0.0018765 -0.00521841 0.000314314 0.000522858 -0.000205129 1.72198e-05)
(0.00185966 -0.00149087 0.000288717 0.00112397 -9.66414e-05 0.000136165)
(0.0007185 5.56991e-05 -0.000367569 0.000557602 0.000215423 -3.47489e-05)
(0.000464308 -0.000543237 -0.000253678 0.000630952 0.00026258 -0.000346784)
(0.000955065 -0.00056323 0.000110761 0.00138549 0.000216814 -0.000105887)
(0.000788767 -0.000159155 -0.000318452 0.000866585 0.00039636 -0.000125352)
(0.000303292 -0.000353121 -0.00055 0.000242353 0.00029801 -0.000438608)
(0.000665362 -1.55437e-07 -0.000391904 0.000471867 0.000362296 -0.000227712)
(0.0013182 -0.000471859 8.73416e-05 0.00134205 0.00022144 0.000211517)
(0.000848879 -3.67446e-05 -0.00031154 0.00095041 0.000253115 0.000125196)
(0.000228066 -0.00127704 0.000121214 0.000344602 -8.71719e-06 0.000153646)
(0.000391822 -0.0014375 0.000234554 0.000704006 1.54612e-05 0.00012712)
(0.000950972 -0.00131172 0.000268446 0.000460974 4.3462e-05 6.40819e-05)
(0.000574919 -0.00223973 9.75128e-05 -0.000303848 -0.000159816 5.00885e-05)
(0.00110158 -0.00138427 0.000186049 0.000244302 -2.94654e-05 3.51996e-05)
(0.00133323 -0.0018037 0.000430096 0.00121956 4.34792e-05 6.2566e-05)
(0.000628811 -0.00161664 0.00028758 0.000924139 -6.38777e-05 0.000159781)
(0.000671536 -0.00109322 5.10046e-05 -0.000217666 9.51115e-06 7.488e-05)
(0.000362168 -0.00184097 5.4386e-05 -0.000500944 -0.000100368 3.69644e-05)
(0.000589372 -0.00108104 8.48963e-05 -8.79276e-05 6.33001e-05 8.51469e-05)
(0.000570407 -0.000680608 0.000403878 0.000849822 7.0446e-06 0.00020115)
(0.000962896 -0.000728162 0.000378639 0.00115456 -1.6516e-05 0.000218767)
(0.000272225 -0.000738329 0.00035152 0.000765803 -8.23122e-05 -4.17657e-05)
(0.000944887 -0.000640733 0.000166056 0.00148531 8.95644e-05 -4.42857e-05)
(0.00062806 -0.000713588 0.000444707 0.0012926 -9.19331e-05 0.000120251)
(0.000178595 -0.00064416 0.000434343 0.000733193 -9.26858e-05 0.000187891)
(6.5083e-05 -0.000699633 0.000416894 0.0005337 -0.000121216 3.52514e-05)
(0.000512968 -0.000685686 0.000394066 0.0011043 -0.000121667 0.000116251)
(0.00133738 -0.000577246 0.000161504 0.00148322 0.000103792 0.000258109)
(0.00107522 -0.000713388 0.000409654 0.00134871 1.23074e-05 0.000280977)
(-0.000296902 -0.00139696 0.000293157 0.000370771 -0.000205596 0.000265256)
(-7.52024e-05 -0.00108015 0.000343927 0.000671316 -0.00012924 0.000200002)
(0.000243889 -0.000477692 0.000226473 0.000460381 0.000140828 5.37971e-05)
(-4.84909e-05 -0.00116566 0.000182555 0.000402361 -6.76944e-05 0.000187494)
(-0.000282067 -0.0015688 0.000338899 0.000621176 -0.000251592 0.000195544)
(-0.000155781 -0.000972779 0.000291989 0.00042008 -9.42491e-05 0.000194762)
(-3.77149e-05 -0.00109733 0.000156657 0.000267877 -6.58586e-05 0.000197982)
(-0.000258313 -0.00127709 0.000185781 0.000143335 -0.00010794 0.000225753)
(0.000227686 -0.000487773 0.000215019 0.000414232 0.000144923 6.22302e-05)
(-0.000175251 -0.000778006 0.000186763 8.0438e-05 9.91372e-06 0.00014636)
(4.03308e-05 -0.000904859 8.83762e-05 -9.11716e-06 3.43983e-05 0.000142013)
(-0.000187236 -0.000861357 0.000231756 0.000205285 -3.20637e-05 0.000177466)
(-3.93716e-05 -0.000956072 8.58976e-05 5.08571e-05 1.79249e-05 0.000166643)
(-0.000193052 -0.00115757 0.000167473 9.2019e-07 -4.55473e-05 0.000218726)
(0.000485586 -0.000664631 0.000346858 0.000609428 9.62601e-06 0.000132885)
(0.000190281 -0.000557251 0.00033102 0.000373668 2.26687e-05 0.000112164)
(-0.000431294 -0.000419002 0.000310564 -0.000260618 -2.43743e-05 0.000104933)
(-0.000199319 -0.000409503 0.000239775 -4.46037e-05 2.86956e-05 9.88258e-05)
(-0.000150286 -0.000478891 0.000278419 9.41441e-05 -1.78182e-05 0.000124339)
(9.37888e-05 -0.000602455 0.000364402 0.000521167 -8.58569e-05 0.000144945)
(-0.000373492 -0.000487945 0.000362684 -0.000121867 -5.62536e-05 0.00010532)
(-0.00010636 -0.000518282 0.000348885 0.000236395 -3.8285e-05 0.000158045)
(2.30314e-05 -0.000441103 0.000229514 9.27482e-05 5.69238e-05 5.08116e-05)
(0.000140687 -0.000529547 0.000264169 0.000214283 4.05739e-05 6.63944e-05)
(9.76952e-05 -0.00115289 8.8895e-05 0.000213848 5.10215e-05 0.000137208)
(0.000171646 -0.00100474 6.2936e-05 -4.48133e-05 4.74221e-05 0.000127232)
(0.000378216 -0.000753184 1.26953e-05 -0.000454198 0.000112059 7.52548e-05)
(0.000304335 -0.00145409 -2.52052e-05 -0.0008321 8.82171e-05 4.91176e-05)
(0.000367963 -0.000783778 -2.53192e-06 -0.000482493 0.000124191 9.47715e-05)
(0.000274074 -0.000827606 4.63404e-05 -0.000198963 0.000108276 8.01729e-05)
(0.000120915 -0.000935413 3.03731e-05 -9.84124e-05 9.28542e-05 0.000120868)
(0.000400919 -0.000895237 7.9219e-06 -0.000394895 8.87487e-05 0.000105145)
(0.00029159 -0.00144289 -3.71463e-05 -0.00081854 3.2025e-05 4.99786e-05)
(0.000444467 -0.000881274 1.18257e-05 -0.000432614 5.85676e-05 8.9644e-05)
(3.60043e-05 -0.000942202 6.30541e-05 -0.000153983 9.47927e-05 9.36798e-05)
(0.000152339 -0.000338366 0.000127308 0.000194997 0.000122412 2.61537e-06)
(1.04253e-05 -0.000541377 0.000107808 -5.18357e-05 8.75249e-05 3.51099e-05)
(0.000309772 -0.000706703 7.96789e-05 -7.64737e-05 0.000122022 2.72542e-05)
(0.000103909 -0.000892259 9.63207e-05 -0.000155398 0.000118622 5.60926e-05)
(-4.43339e-05 -0.000585732 0.000118054 -5.70175e-05 7.84004e-05 5.59033e-05)
(0.000241359 -0.000740363 5.0456e-05 -8.85941e-05 0.000121651 5.30274e-05)
(-3.52863e-05 -0.000999188 0.000115335 -0.000145817 5.84553e-05 0.0001295)
(0.000139715 -0.000350454 0.000135801 0.000194297 0.000126032 7.48355e-06)
(-0.000139833 -0.000703816 0.000153961 -3.72167e-07 4.46804e-05 0.000109064)
(9.81029e-05 -0.000825442 4.92936e-05 -8.29999e-05 8.84745e-05 0.000103517)
(-0.000114997 -0.00107674 9.53491e-05 -9.26145e-05 2.24583e-05 0.000161511)
(-9.34695e-05 -0.000640017 0.00013697 -4.46303e-05 5.75828e-05 8.34647e-05)
(0.000182263 -0.000783342 7.83571e-05 -9.57826e-05 8.83781e-05 7.58131e-05)
(0.000545445 -0.000665141 4.24035e-05 -9.28989e-05 0.000157325 4.79257e-06)
(0.000602231 -0.000617944 9.00868e-05 -2.99473e-05 0.000143015 -1.81863e-05)
(0.000539563 -0.0005737 6.80701e-05 -3.82273e-05 0.00015728 -1.28928e-05)
(0.0005238 -0.00163493 3.19909e-05 -0.000410722 0.000215245 -2.83064e-06)
(0.000553658 -0.000599465 5.82715e-05 -8.33727e-05 0.00017735 -9.82222e-06)
(0.000646438 -0.000583131 9.36276e-05 5.78482e-05 0.00013733 -3.04523e-05)
(0.000617475 -0.000623311 5.39469e-05 -3.27664e-06 0.000153806 -1.58127e-05)
(0.00051678 -0.000634517 5.01274e-05 -0.00018821 0.000179523 6.9028e-06)
(0.000503901 -0.00165161 1.78191e-05 -0.000467476 0.000204602 -3.42464e-06)
(0.000501965 -0.000605138 6.36724e-05 -0.000134001 0.000161757 5.07883e-08)
(5.27989e-05 -0.000271421 9.23113e-05 1.22148e-05 5.65057e-05 -1.78329e-06)
(0.000104321 -0.000240059 0.000107766 3.38253e-05 5.68134e-05 -1.37082e-05)
(-0.000151217 -0.000177612 9.37489e-05 -0.000238703 4.00433e-05 1.47769e-06)
(7.843e-05 -0.000216007 0.000103982 -3.23717e-06 5.69902e-05 -2.27578e-05)
(1.46183e-05 -0.000236595 8.74703e-05 -4.68451e-05 5.56651e-05 -4.47075e-06)
(-7.54631e-05 -0.000268857 9.99573e-05 -0.000117569 5.83623e-05 1.55185e-05)
(-0.000203043 -0.000189107 0.000100549 -0.000288394 4.03615e-05 1.31263e-05)
(-4.40504e-06 -0.000240958 0.000113245 -8.07049e-05 5.94404e-05 -7.33123e-06)
(0.000170164 -0.0002079 9.78295e-05 0.000101597 5.40833e-05 -2.3277e-05)
(0.000118408 -0.000229808 7.98711e-05 7.50009e-05 5.06114e-05 -1.29643e-05)
(3.76358e-05 -0.000284723 0.00012627 -1.7968e-05 6.19499e-05 -1.2664e-06)
(1.22998e-06 -0.000330171 0.000124771 -1.86238e-05 5.86208e-05 1.13996e-05)
(-0.000202996 -0.000386531 0.000186737 -0.000102351 3.49097e-05 7.86411e-05)
(-0.000405792 -0.000277164 0.000178092 -0.000404892 2.5357e-05 6.65462e-05)
(-0.000172848 -0.000329787 0.000175048 -0.000148087 4.8686e-05 5.13614e-05)
(1.62662e-05 -0.000418376 0.000176196 2.72989e-05 6.12539e-05 3.21371e-05)
(-4.60754e-06 -0.000349466 0.000169352 -1.6425e-05 5.82462e-05 1.89134e-05)
(-9.51526e-05 -0.000275915 0.000131502 -0.000141802 6.14477e-05 1.62974e-05)
(-0.000362588 -0.000246103 0.000148423 -0.000396517 3.4692e-05 5.17675e-05)
(-0.000161458 -0.000314609 0.000133009 -0.000153738 5.08734e-05 4.46937e-05)
(0.000524763 -0.000659859 7.79526e-05 -0.000123981 0.000145111 3.10521e-06)
(0.000428996 -0.000718028 3.0089e-05 -0.000173005 0.000149535 3.73266e-05)
(0.000404707 -0.000715053 1.33892e-05 -0.000422928 0.000155517 6.48522e-05)
(0.00041651 -0.00159331 -1.03928e-05 -0.000719863 0.000173577 1.77296e-05)
(0.000399252 -0.000681054 3.42834e-05 -0.000366673 0.000142762 4.74173e-05)
(0.000274701 -0.000803113 1.51524e-05 -0.000194562 0.000134634 7.78272e-05)
(0.000412141 -0.00072231 6.472e-05 -0.000197576 0.000131592 3.64456e-05)
(0.000451629 -0.000638133 5.16258e-05 -0.000248829 0.000159429 2.02263e-05)
(0.000457507 -0.00162288 9.63821e-06 -0.000660219 0.000201389 1.7673e-05)
(0.000465535 -0.000671432 3.58404e-05 -0.000308904 0.000172435 3.22147e-05)
(0.000670176 -0.000513252 8.97588e-05 0.000185745 0.000117643 -3.8327e-05)
(0.000670023 -0.000548615 6.02599e-05 0.000144372 0.000137639 -3.39733e-05)
(0.000573797 -0.000562762 6.02727e-05 9.91356e-07 0.0001701 -1.91428e-05)
(0.000516824 -0.00154841 2.5032e-05 -0.000258912 0.000183503 -9.99043e-06)
(0.000562042 -0.000540681 6.83306e-05 3.78488e-05 0.000148026 -2.01004e-05)
(0.00065584 -0.000586394 5.87807e-05 7.85362e-05 0.000147105 -2.8088e-05)
(0.000666749 -0.000548695 9.35857e-05 0.000129807 0.000127929 -3.62498e-05)
(0.000571387 -0.000505623 6.54997e-05 9.65381e-05 0.00013685 -2.35445e-05)
(0.000520638 -0.00150855 3.55857e-05 -0.000217757 0.000188102 -9.29268e-06)
(0.000581251 -0.000524841 5.90829e-05 6.65433e-05 0.000159594 -2.36698e-05)
(0.000269358 -0.000163532 9.00109e-05 0.000223007 4.66349e-05 -3.39144e-05)
(0.000235529 -0.000177369 7.32598e-05 0.000202584 4.41392e-05 -2.85893e-05)
(-1.60231e-05 -0.000152324 8.52971e-05 -9.95936e-05 3.58873e-05 -1.98223e-05)
(9.5205e-05 -0.0002135 8.23473e-05 3.13592e-05 5.29443e-05 -1.88582e-05)
(0.000147098 -0.000196757 0.000100027 7.26222e-05 5.21022e-05 -3.21025e-05)
(0.00020099 -0.00017983 9.64128e-05 0.000137697 4.75333e-05 -3.69613e-05)
(2.10417e-05 -0.000146257 8.4156e-05 -5.50923e-05 3.37685e-05 -2.54089e-05)
(0.000160525 -0.000194415 8.08114e-05 0.000102916 4.86697e-05 -2.7809e-05)
(0.000182692 -0.000200357 7.46855e-05 0.000142201 4.74367e-05 -2.18473e-05)