/*--------------------------------*- C++ -*----------------------------------*\
| =========                 |                                                 |
| \\      /  F ield         | OpenFOAM: The Open Source CFD Toolbox           |
|  \\    /   O peration     | Version:  2012                                  |
|   \\  /    A nd           | Website:  www.openfoam.com                      |
|    \\/     M anipulation  |                                                 |
\*---------------------------------------------------------------------------*/
FoamFile
{
    version     2.0;
    format      ascii;
    class       volVectorField;
    location    "0.108/solid";
    object      sigmaMaxDir;
}
// * * * * * * * * * * * * * * * * * * * * * * * * * * * * * * * * * * * * * //

dimensions      [1 -1 -2 0 0 0 0];


internalField   nonuniform List<vector> 
3125
(
(0.71508 0.690905 -0.106352)
(0.758959 0.648018 -0.0636653)
(0.649594 0.749491 -0.127639)
(0.659079 0.738549 -0.141987)
(0.746541 0.640237 -0.181033)
(0.757923 0.624309 -0.189186)
(0.730846 0.484116 -0.48114)
(0.700481 0.483027 -0.525368)
(0.700651 0.713139 -0.0228045)
(0.669728 0.740926 -0.0499392)
(0.696912 0.698341 -0.163198)
(0.709731 0.684366 -0.16711)
(0.783252 0.57022 -0.24772)
(0.784212 0.54903 -0.289097)
(0.612875 0.781288 -0.118204)
(0.722071 0.673609 -0.157685)
(0.701851 0.631983 -0.328639)
(-0.0333548 -0.0341116 0.998861)
(0.615254 0.773107 -0.154171)
(-0.573432 -0.400966 0.714424)
(0.781707 0.617431 -0.0878285)
(0.75901 0.598969 -0.255226)
(0.760261 0.649177 -0.0239392)
(0.783742 0.600504 -0.158566)
(-0.14817 -0.067941 0.986625)
(0.788586 0.614849 -0.00958848)
(-0.550036 -0.547307 0.630806)
(0.645545 0.756145 -0.10731)
(0.650714 0.746154 -0.1408)
(-0.382021 -0.39451 0.835716)
(0.646952 0.752916 -0.120705)
(-0.251834 -0.255694 0.933381)
(0.658382 0.736865 -0.153501)
(0.671078 0.725693 -0.151733)
(-0.353877 -0.364089 0.861516)
(0.667326 0.727084 -0.161323)
(-0.146815 -0.141956 0.978925)
(0.734612 0.655457 -0.175274)
(0.717438 0.673436 -0.178236)
(-0.122032 -0.116698 0.985642)
(0.709737 0.682248 -0.175532)
(-0.101079 -0.0959936 0.990236)
(0.72481 0.664363 -0.182405)
(0.768387 0.607501 -0.201307)
(-0.118555 -0.113182 0.986476)
(0.731703 0.654851 -0.189161)
(-0.111472 -0.109481 0.987719)
(0.758761 0.502141 -0.414893)
(0.706923 0.569021 -0.420088)
(-0.179715 -0.186676 0.965844)
(0.727748 0.587261 -0.354271)
(-0.418026 -0.455081 0.786229)
(0.680931 0.561765 -0.469844)
(0.673768 0.514472 -0.530429)
(-0.197922 -0.205025 0.958536)
(0.656442 0.578576 -0.48408)
(0.659376 0.751772 -0.0078579)
(-0.210218 -0.251301 0.944805)
(0.656419 0.754339 -0.00932563)
(0.592453 0.804996 0.0313377)
(-0.55649 -0.344892 0.755889)
(0.797738 0.473817 -0.372976)
(-0.615407 -0.451989 0.64574)
(0.735521 0.677417 -0.0107576)
(0.710414 0.703751 -0.00688245)
(0.649682 0.561909 -0.512027)
(0.756928 0.653309 0.0157229)
(0.768194 0.600911 -0.220871)
(0.803216 0.503736 -0.317953)
(0.56353 0.824959 -0.0433276)
(0.580715 0.814069 0.00782676)
(-0.571398 -0.564836 0.595369)
(0.651072 0.754731 -0.0805347)
(0.672141 0.738742 -0.049878)
(0.648001 0.572505 -0.502327)
(0.651919 0.752875 -0.0904454)
(0.601901 0.791462 -0.106318)
(0.586247 0.803135 -0.106247)
(0.614095 0.748592 -0.249995)
(0.648633 0.737756 -0.187058)
(0.744155 0.636986 -0.201201)
(0.66777 0.722362 -0.179658)
(0.566332 0.821447 -0.0670369)
(0.583511 0.806986 -0.0910388)
(0.603386 0.788627 -0.118291)
(0.615485 0.780713 -0.10801)
(0.612003 0.73482 -0.292392)
(0.585265 0.645604 -0.490572)
(-0.239296 -0.241197 0.940511)
(0.683937 0.712139 -0.158391)
(0.685145 0.708446 -0.169354)
(-0.190827 -0.18886 0.963285)
(0.676371 0.71757 -0.16618)
(-0.443844 -0.381421 0.810877)
(0.563712 0.584896 -0.583203)
(0.62672 0.772159 -0.104845)
(0.616453 0.778275 -0.119472)
(-0.15159 -0.147068 0.977441)
(0.722311 0.67012 -0.170899)
(0.693603 0.699619 -0.171603)
(-0.18399 -0.181087 0.966103)
(0.701786 0.690934 -0.173513)
(0.647938 0.755907 -0.0937026)
(0.638383 0.76148 -0.112319)
(-0.209836 -0.116303 0.970795)
(-0.270832 -0.170557 0.947397)
(-0.400288 -0.31863 0.859212)
(-0.297554 -0.198952 0.933745)
(0.62765 0.769695 -0.116727)
(0.637329 0.764131 -0.0995781)
(0.649071 0.753034 -0.107924)
(0.658496 0.747186 -0.0899782)
(-0.193431 -0.102777 0.975716)
(-0.0990422 -0.0939689 0.990636)
(0.777274 0.589569 -0.219665)
(0.741979 0.633723 -0.218774)
(-0.0924897 -0.0882473 0.991795)
(0.737676 0.644726 -0.200406)
(0.668613 0.737535 -0.0948596)
(0.659547 0.74402 -0.10692)
(-0.106676 -0.104707 0.988765)
(0.776948 0.525737 -0.346343)
(0.743334 0.621032 -0.248543)
(-0.0925858 -0.0883928 0.991773)
(0.73955 0.605655 -0.293679)
(0.676525 0.705941 -0.209669)
(0.675848 0.719938 -0.157854)
(0.669193 0.733777 -0.117268)
(0.677058 0.725379 -0.124171)
(0.667838 0.696899 -0.26139)
(0.621843 0.685951 -0.377866)
(-0.477187 -0.514245 0.712632)
(0.655639 0.609537 -0.445648)
(0.59519 0.693055 -0.406722)
(0.778736 0.623835 -0.0663345)
(0.595837 0.709016 -0.377193)
(-0.264503 -0.634983 0.725834)
(0.321479 0.321662 0.89061)
(-0.323084 -0.661375 0.676904)
(0.0699201 -0.471892 0.878879)
(-0.446303 -0.60671 0.657812)
(0.236418 0.190492 0.952796)
(-0.553438 -0.572069 0.605346)
(-0.382629 -0.390887 0.837139)
(0.591994 0.549419 -0.589645)
(-0.45102 -0.609942 0.651576)
(-0.184005 -0.426283 0.885677)
(0.811624 0.555052 -0.182165)
(0.818959 0.517527 -0.247933)
(-0.462842 -0.290241 0.837578)
(0.788923 0.6029 -0.118793)
(0.783442 0.588953 -0.198375)
(0.80408 0.484965 -0.343897)
(0.817594 0.561387 -0.128)
(0.786156 0.531418 -0.315522)
(-0.372561 -0.213598 0.903092)
(0.671341 0.558275 -0.487474)
(-0.59153 -0.38758 0.707018)
(0.716457 0.547122 -0.432835)
(0.754289 0.57054 -0.324857)
(0.737354 0.43492 -0.516869)
(0.624572 0.754085 -0.20314)
(0.658728 0.710592 -0.24726)
(-0.484431 -0.49274 0.722865)
(0.582069 0.778243 -0.235653)
(0.637857 0.755672 -0.148656)
(0.565829 0.773745 -0.284881)
(0.642516 0.712565 -0.281822)
(0.623778 0.756794 -0.195359)
(-0.452126 -0.461689 0.763168)
(0.548999 0.754907 -0.35877)
(0.615218 0.694978 -0.372173)
(0.614439 0.747346 -0.252861)
(0.562981 0.767278 -0.307142)
(0.63156 0.703978 -0.324881)
(0.616348 0.734539 -0.283844)
(-0.540301 -0.589366 0.600601)
(-0.284044 -0.290671 0.91369)
(0.51788 0.690428 -0.505085)
(0.531684 0.714091 -0.455397)
(0.565953 0.620749 -0.542557)
(0.60901 0.715275 -0.342766)
(0.610705 0.733263 -0.29894)
(-0.303196 -0.311826 0.900465)
(0.547923 0.744886 -0.38069)
(0.603388 0.673807 -0.426505)
(0.618105 0.748394 -0.240525)
(0.534675 0.726255 -0.43206)
(0.583943 0.653005 -0.482281)
(-0.551951 -0.568442 0.610101)
(-0.290352 -0.267042 0.918904)
(-0.135659 -0.13082 0.982081)
(-0.356838 -0.44696 0.820301)
(0.570193 0.606734 -0.553854)
(-0.344193 -0.415675 0.84187)
(-0.269283 -0.244329 0.931552)
(-0.535135 -0.557095 0.635039)
(-0.131532 -0.126617 0.983192)
(-0.299758 -0.355118 0.885458)
(-0.23179 -0.203494 0.951243)
(-0.515409 -0.516494 0.683803)
(-0.308645 -0.382576 0.870847)
(-0.248979 -0.221777 0.942775)
(-0.424425 -0.424724 0.79967)
(-0.177154 -0.147993 0.972993)
(-0.10742 -0.102388 0.988928)
(-0.226595 -0.259603 0.938755)
(-0.226757 -0.276803 0.933789)
(-0.187552 -0.158761 0.96934)
(-0.414397 -0.393656 0.820555)
(-0.467779 -0.456093 0.757075)
(-0.110274 -0.10515 0.988323)
(-0.264356 -0.324582 0.908164)
(-0.215048 -0.185941 0.958739)
(-0.485155 -0.494503 0.721173)
(-0.259783 -0.302292 0.917133)
(-0.201321 -0.171897 0.964324)
(-0.33461 -0.32135 0.885873)
(-0.164673 -0.153936 0.974262)
(-0.131592 -0.132422 0.982419)
(-0.187169 -0.240321 0.952478)
(-0.298478 -0.301113 0.905672)
(-0.215281 -0.259423 0.941464)
(-0.181107 -0.1742 0.967913)
(-0.339861 -0.352912 0.87175)
(-0.141297 -0.142135 0.979711)
(-0.260857 -0.328787 0.907663)
(-0.231925 -0.242639 0.941986)
(-0.383167 -0.384653 0.839777)
(-0.222573 -0.294665 0.929319)
(-0.201293 -0.203464 0.958167)
(-0.496897 -0.542827 0.677076)
(-0.492166 -0.532848 0.688364)
(-0.299656 -0.322907 0.89774)
(-0.454016 -0.601737 0.657101)
(-0.365422 -0.521591 0.77098)
(-0.393322 -0.441955 0.80621)
(0.579138 0.604833 -0.546603)
(-0.455475 -0.478278 0.750861)
(-0.265764 -0.28842 0.919882)
(-0.280049 -0.384645 0.879557)
(-0.269336 -0.293451 0.917248)
(-0.404497 -0.433728 0.805147)
(-0.330058 -0.439493 0.835409)
(-0.322718 -0.361267 0.874837)
(0.475855 0.678807 -0.55927)
(0.606895 0.723039 -0.329989)
(0.663587 0.747391 -0.032539)
(0.615862 0.665248 -0.422089)
(0.647939 0.63538 -0.420081)
(0.481668 0.685489 -0.545986)
(0.660359 0.750836 -0.0131218)
(0.5836 0.678641 -0.445934)
(0.357009 -0.265168 0.895673)
(0.187189 -0.144026 0.971708)
(-0.195747 -0.203976 0.959206)
(0.227139 -0.28054 0.93258)
(0.43136 -0.116067 0.894682)
(0.301384 -0.334338 0.892965)
(-0.167755 -0.241931 0.955682)
(0.313489 -0.223766 0.922851)
(0.722941 0.687262 -0.0708992)
(0.738745 0.651312 -0.173344)
(0.628998 0.729888 -0.267629)
(0.634322 0.772561 0.0280225)
(0.594931 0.79672 -0.106272)
(0.654511 0.631139 -0.416268)
(0.736635 0.656052 -0.164209)
(0.558355 0.82885 -0.0353235)
(0.62055 0.783844 0.0224816)
(0.590032 0.800773 -0.103072)
(0.663764 0.419802 -0.619018)
(-0.531062 -0.315406 0.786443)
(0.715526 0.404316 -0.569693)
(-0.245812 -0.1533 0.957119)
(-0.608745 -0.243112 0.7552)
(0.776494 0.39314 -0.492441)
(0.77791 0.443288 -0.445366)
(-0.65411 -0.277802 0.703539)
(-0.227144 -0.17964 0.957149)
(-0.506857 -0.280117 0.815249)
(0.78806 0.612376 -0.0629068)
(0.813575 0.54866 -0.19253)
(0.648789 0.498459 -0.574988)
(0.772407 0.629867 -0.0815781)
(0.802224 0.592462 -0.0736594)
(0.80219 0.574454 -0.162769)
(0.755627 0.651956 -0.0630979)
(0.761569 0.646491 -0.045403)
(0.656331 0.527409 -0.539508)
(0.760656 0.632135 -0.147676)
(0.69627 0.712983 -0.0828466)
(0.781631 0.605371 -0.150261)
(0.723092 0.687565 -0.0662842)
(0.737257 0.672703 -0.0626294)
(0.668712 0.497135 -0.552884)
(0.71905 0.515677 -0.46588)
(0.786034 0.567083 -0.246104)
(0.763784 0.578608 -0.286088)
(0.785392 0.544776 -0.293902)
(0.78706 0.452716 -0.419029)
(0.799228 0.532163 -0.279353)
(0.797351 0.490268 -0.351949)
(0.709285 0.594941 -0.378099)
(0.703373 0.58433 -0.404752)
(0.722573 0.685836 -0.086701)
(0.666859 0.741752 -0.0714367)
(0.502956 0.858015 -0.104142)
(0.56307 0.825818 -0.031268)
(0.505742 0.856902 -0.0997241)
(0.595936 0.793444 -0.12372)
(0.660997 0.745634 -0.0843346)
(0.542193 0.837141 -0.0722656)
(0.56607 0.824352 -0.00288929)
(0.525354 0.849278 -0.0522433)
(0.666625 0.73854 -0.100842)
(0.615353 0.579731 -0.53409)
(0.67314 0.707838 -0.21412)
(0.591977 0.777939 -0.210653)
(0.646594 0.74794 -0.150007)
(0.69374 0.694813 -0.189632)
(0.613835 0.771974 -0.165115)
(0.685518 0.721384 -0.09834)
(0.627052 0.580371 -0.519592)
(0.737075 0.6573 -0.157089)
(0.662713 0.74149 -0.104902)
(0.710437 0.701028 -0.0619632)
(0.715001 0.67869 -0.167789)
(0.636393 0.758841 -0.138436)
(0.505839 0.819705 -0.26872)
(0.489341 0.798926 -0.349661)
(0.484333 0.798558 -0.357389)
(0.595432 0.795222 -0.114379)
(0.47541 0.810297 -0.342641)
(0.475464 0.767957 -0.429157)
(0.486735 0.802014 -0.346212)
(0.47928 0.832042 -0.279279)
(0.593494 0.798442 -0.101264)
(0.488676 0.820584 -0.296375)
(0.649198 0.673533 -0.353405)
(0.606936 0.644602 -0.464885)
(0.623392 0.749918 -0.221374)
(0.597207 0.657306 -0.459665)
(0.636699 0.696356 -0.331215)
(0.666709 0.698169 -0.260882)
(0.632121 0.748942 -0.198769)
(0.632064 0.692094 -0.348569)
(-0.543119 -0.564627 0.621465)
(0.609426 0.635179 -0.474497)
(0.645664 0.665494 -0.374481)
(0.6766 0.666008 -0.31408)
(0.747435 0.618144 -0.243392)
(0.719267 0.669141 -0.18683)
(0.71636 0.644449 -0.267422)
(0.692185 0.641555 -0.330586)
(0.682758 0.641988 -0.348845)
(0.667521 0.686814 -0.287579)
(0.692504 0.698313 -0.181096)
(0.705864 0.668817 -0.233323)
(0.507243 0.818126 -0.270878)
(0.537374 0.820718 -0.194036)
(0.488538 0.859194 -0.152038)
(0.572825 0.816459 -0.0725675)
(0.494063 0.853436 -0.165976)
(0.590432 0.796457 -0.130561)
(0.540563 0.81899 -0.192475)
(0.490501 0.839938 -0.232192)
(0.575903 0.812394 -0.0913873)
(0.48217 0.84956 -0.213914)
(0.440722 0.68409 -0.581192)
(0.452517 0.734812 -0.505252)
(0.468858 0.786253 -0.402465)
(0.609147 0.785655 -0.108102)
(0.477285 0.774456 -0.415231)
(0.470722 0.772621 -0.426003)
(0.460262 0.729109 -0.506516)
(0.466692 0.748015 -0.471882)
(0.610275 0.783104 -0.119634)
(0.4592 0.760323 -0.459395)
(-0.366463 -0.322572 0.872727)
(-0.401096 -0.377168 0.834785)
(0.605266 0.718099 -0.343492)
(0.599345 0.654762 -0.460513)
(-0.546942 -0.573042 0.61031)
(-0.473028 -0.457571 0.75291)
(0.600356 0.684779 -0.4131)
(-0.534263 -0.558055 0.634931)
(-0.519999 -0.525912 0.673066)
(-0.452053 -0.435906 0.778225)
(0.606672 0.694637 -0.386561)
(-0.515245 -0.548327 0.658681)
(-0.2166 -0.217542 0.951714)
(0.510811 0.675732 -0.531467)
(0.614955 0.717385 -0.327398)
(-0.485041 -0.511359 0.709399)
(0.495883 0.647914 -0.578194)
(0.611751 0.6974 -0.373356)
(-0.207671 -0.207446 0.955949)
(-0.424522 -0.430937 0.796288)
(-0.467109 -0.598101 0.651217)
(-0.455431 -0.468108 0.75727)
(0.482895 0.629442 -0.608782)
(0.601776 0.671134 -0.432949)
(-0.313296 -0.271707 0.909956)
(-0.304869 -0.245814 0.920125)
(-0.487858 -0.445356 0.750768)
(-0.334507 -0.270948 0.902603)
(-0.359463 -0.322471 0.87567)
(-0.442857 -0.430351 0.786559)
(-0.529699 -0.521578 0.668862)
(-0.397429 -0.350871 0.847903)
(-0.260769 -0.195224 0.945456)
(-0.257639 -0.207893 0.943611)
(0.429839 0.689979 -0.58238)
(-0.416055 -0.633871 0.652001)
(0.43354 0.682315 -0.588633)
(0.622174 0.773875 -0.118399)
(0.429694 0.699813 -0.570636)
(-0.386296 -0.578309 0.718564)
(-0.4016 -0.63874 0.656299)
(0.446327 0.731967 -0.514798)
(0.621258 0.776297 -0.106776)
(0.452401 0.717937 -0.529056)
(0.592137 0.644529 -0.48369)
(-0.163845 -0.160234 0.973386)
(-0.314094 -0.295342 0.902285)
(-0.389269 -0.479268 0.786621)
(0.576859 0.610226 -0.543008)
(-0.338969 -0.323339 0.883489)
(-0.404408 -0.512901 0.757223)
(0.592613 0.643708 -0.484201)
(-0.169496 -0.166332 0.971393)
(-0.394979 -0.390691 0.831476)
(-0.447409 -0.57476 0.685184)
(0.604962 0.673721 -0.424407)
(-0.366318 -0.35775 0.858968)
(-0.431283 -0.541503 0.721644)
(-0.291362 -0.45685 0.840474)
(-0.278849 -0.398207 0.873885)
(-0.302284 -0.463337 0.833033)
(0.643731 0.757309 -0.10997)
(-0.317084 -0.510235 0.799448)
(-0.244116 -0.343233 0.906972)
(-0.252635 -0.396258 0.882698)
(-0.352141 -0.566974 0.744672)
(0.642626 0.760066 -0.096598)
(-0.342328 -0.527803 0.777326)
(-0.167523 -0.116241 0.978991)
(-0.176113 -0.112709 0.977896)
(-0.227496 -0.130624 0.964978)
(-0.185419 -0.116891 0.975682)
(-0.183218 -0.129299 0.974532)
(-0.212908 -0.157193 0.964345)
(-0.248187 -0.14997 0.957033)
(-0.212381 -0.140721 0.967001)
(-0.156442 -0.0965487 0.982957)
(-0.147583 -0.0992389 0.984058)
(-0.199372 -0.133229 0.970825)
(-0.190899 -0.138055 0.971853)
(-0.296759 -0.246953 0.922469)
(-0.362096 -0.27241 0.891448)
(-0.284877 -0.213774 0.934423)
(-0.219916 -0.166863 0.961142)
(-0.226876 -0.159648 0.96075)
(-0.245051 -0.172035 0.954125)
(-0.327034 -0.229705 0.91667)
(-0.249538 -0.19479 0.948571)
(-0.315696 -0.457767 0.831135)
(-0.330804 -0.520022 0.787493)
(0.408895 0.662358 -0.627764)
(0.632039 0.768144 -0.102377)
(-0.409292 -0.639396 0.650886)
(-0.368288 -0.581456 0.725447)
(-0.352344 -0.519112 0.778701)
(-0.378727 -0.58762 0.71503)
(0.633026 0.765595 -0.11464)
(-0.383055 -0.618223 0.686345)
(-0.188839 -0.258357 0.947413)
(-0.187023 -0.295322 0.936914)
(-0.280405 -0.45167 0.846975)
(0.65324 0.751626 -0.0913015)
(-0.262514 -0.400335 0.877963)
(-0.217225 -0.341393 0.914475)
(-0.213656 -0.296111 0.930951)
(-0.227044 -0.344942 0.91075)
(0.654355 0.748626 -0.106669)
(-0.245353 -0.396427 0.884674)
(-0.12656 -0.0741202 0.989186)
(-0.116706 -0.0753397 0.990305)
(-0.180769 -0.0924135 0.979174)
(-0.159167 -0.10821 0.981303)
(-0.163975 -0.0993 0.981454)
(-0.144887 -0.0845347 0.98583)
(-0.167438 -0.085159 0.982198)
(-0.139291 -0.0929515 0.985879)
(-0.130885 -0.0856922 0.987687)
(-0.14008 -0.0839716 0.986573)
(-0.364989 -0.338639 0.867241)
(-0.166688 -0.138526 0.97623)
(-0.0948283 -0.0901441 0.991404)
(-0.197742 -0.240405 0.950318)
(-0.364862 -0.359501 0.858857)
(-0.159699 -0.131508 0.978367)
(-0.201865 -0.22862 0.952357)
(-0.31728 -0.309676 0.896345)
(-0.0937132 -0.0890976 0.991604)
(-0.149069 -0.123329 0.981106)
(-0.186449 -0.210539 0.959641)
(-0.152467 -0.126376 0.980195)
(-0.177843 -0.216868 0.959865)
(-0.327792 -0.299704 0.895952)
(-0.105298 -0.0673529 0.992157)
(-0.117058 -0.0673139 0.990841)
(-0.124164 -0.0714657 0.989685)
(-0.111773 -0.0718184 0.991135)
(-0.121645 -0.0792153 0.989408)
(-0.132835 -0.0745497 0.98833)
(-0.111344 -0.0648473 0.991664)
(-0.0979819 -0.0622763 0.993238)
(-0.163308 -0.259408 0.95186)
(-0.170632 -0.231617 0.957725)
(-0.180463 -0.274473 0.944509)
(0.664537 0.739141 -0.109828)
(-0.192547 -0.314825 0.929414)
(-0.160016 -0.216965 0.962975)
(-0.14663 -0.235029 0.960865)
(-0.215257 -0.349493 0.911876)
(0.663644 0.742534 -0.0906615)
(-0.199048 -0.302052 0.932279)
(-0.281789 -0.278284 0.918233)
(-0.0972651 -0.0940225 0.990807)
(-0.155645 -0.139165 0.977961)
(-0.190205 -0.221468 0.956438)
(-0.309688 -0.287814 0.906232)
(-0.148467 -0.130446 0.980276)
(-0.170287 -0.213452 0.961998)
(-0.308408 -0.281869 0.908534)
(-0.0953839 -0.0921013 0.991171)
(-0.14583 -0.123014 0.981632)
(-0.168224 -0.207078 0.963753)
(-0.288994 -0.282034 0.914844)
(-0.146793 -0.124804 0.981262)
(-0.181789 -0.207121 0.961277)
(-0.150897 -0.248162 0.956894)
(-0.189953 -0.273428 0.94295)
(-0.220396 -0.35875 0.907042)
(0.675378 0.709899 -0.199772)
(-0.203755 -0.347469 0.915287)
(-0.229143 -0.343799 0.910657)
(-0.177471 -0.29434 0.939078)
(-0.183497 -0.308614 0.93332)
(0.679056 0.717023 -0.157356)
(-0.191367 -0.303163 0.933526)
(-0.109325 -0.0777752 0.990959)
(-0.142058 -0.0990942 0.984886)
(-0.195706 -0.173576 0.965179)
(-0.142397 -0.124929 0.981894)
(-0.117321 -0.0904842 0.988963)
(-0.149901 -0.113126 0.982208)
(-0.189704 -0.148311 0.970575)
(-0.136733 -0.105578 0.984966)
(-0.119678 -0.0763334 0.989874)
(-0.0975706 -0.0655435 0.993068)
(-0.106801 -0.0708223 0.991755)
(-0.122175 -0.0741845 0.989732)
(-0.0950467 -0.0614984 0.993571)
(-0.111229 -0.0669992 0.991534)
(-0.128928 -0.0852541 0.987982)
(-0.107338 -0.0757111 0.991336)
(-0.16728 -0.23352 0.957855)
(-0.138689 -0.226431 0.964103)
(-0.178931 -0.294947 0.938611)
(0.673216 0.731967 -0.104904)
(-0.172324 -0.26406 0.948987)
(-0.138029 -0.223271 0.964934)
(-0.158206 -0.216512 0.963376)
(-0.175612 -0.272755 0.94592)
(0.673204 0.727585 -0.131976)
(-0.175524 -0.292074 0.940151)
(-0.418676 -0.629182 0.654859)
(-0.286034 -0.499126 0.817959)
(-0.237602 -0.413603 0.878907)
(0.663712 0.693048 -0.281372)
(-0.264419 -0.449468 0.853265)
(-0.221334 -0.373179 0.900971)
(-0.287308 -0.458044 0.841219)
(-0.363015 -0.588402 0.722498)
(0.646025 0.684582 -0.337637)
(-0.294753 -0.524771 0.798584)
(-0.483393 -0.467666 0.740014)
(-0.30703 -0.296143 0.904451)
(-0.194203 -0.198248 0.96072)
(-0.289103 -0.300115 0.909038)
(-0.4774 -0.533594 0.698117)
(-0.301135 -0.355201 0.884957)
(-0.192781 -0.164884 0.967289)
(-0.285846 -0.253835 0.924045)
(0.702482 0.683841 -0.197185)
(0.601331 0.639877 -0.478496)
(0.671219 0.707166 -0.222221)
(0.525155 0.690512 -0.497399)
(0.634167 0.65867 -0.404952)
(0.69426 0.696436 -0.181603)
(0.621024 0.747874 -0.234551)
(0.774963 0.631085 -0.0341282)
(0.729864 0.683593 0.000234683)
(0.759638 0.647994 -0.0552526)
(0.603965 0.7322 -0.314817)
(0.661031 0.746549 -0.0755162)
(0.610235 0.706992 -0.357457)
(0.755698 0.653903 -0.0364946)
(0.714024 0.698565 -0.0466637)
(0.723923 0.68874 -0.0396564)
(0.657305 0.75317 -0.0261823)
(-0.533634 -0.55842 0.635139)
(0.694355 0.711285 -0.109296)
(0.620747 0.736749 0.268092)
(0.512271 0.632014 -0.581495)
(0.582027 0.808948 0.0827542)
(0.578872 0.7159 0.390378)
(0.436215 0.675437 -0.59456)
(0.564413 0.805445 -0.180821)
(0.58413 0.756157 -0.294989)
(0.602374 0.795913 -0.060562)
(0.60257 0.79647 -0.0504491)
(0.401625 0.689567 -0.602656)
(0.552339 0.738815 -0.386102)
(0.492896 0.815231 -0.30406)
(0.0580121 -0.528458 0.846975)
(0.456802 0.420823 0.783734)
(0.312866 0.208219 0.926693)
(0.448921 -0.072804 0.890601)
(-0.416201 -0.458005 0.785499)
(0.0644811 0.00843634 0.997883)
(-0.214738 -0.199221 0.956137)
(-0.180179 -0.179463 0.967124)
(-0.51181 -0.435215 0.740701)
(-0.122494 -0.164919 0.978671)
(-0.10281 -0.195522 0.975295)
(0.820854 0.497416 -0.280672)
(0.655785 0.405036 -0.637096)
(-0.538691 -0.352334 0.765292)
(0.692969 0.497963 -0.52137)
(0.674229 0.445099 -0.589324)
(-0.637652 -0.339577 0.691438)
(0.823607 0.52944 -0.20338)
(0.669158 0.428555 -0.607098)
(-0.224649 -0.0986355 0.969435)
(-0.287766 -0.188033 0.93906)
(-0.30425 -0.184986 0.934458)
(-0.558024 -0.419322 0.716085)
(-0.374711 -0.211335 0.902734)
(-0.353642 -0.169096 0.919969)
(0.644793 0.689835 -0.329195)
(0.611392 0.576703 -0.541861)
(-0.527124 -0.531566 0.663007)
(0.56573 0.63693 -0.523708)
(0.66341 0.698933 -0.26717)
(0.542801 0.618631 -0.568033)
(0.595857 0.559439 -0.576179)
(0.632686 0.756779 -0.164298)
(0.603728 0.758133 -0.246468)
(0.627212 0.752665 -0.200252)
(0.60982 0.761151 -0.220838)
(0.633125 0.756251 -0.165038)
(0.625495 0.760131 -0.175945)
(0.643466 0.754128 -0.13131)
(0.614951 0.764076 -0.194997)
(0.603093 0.678885 -0.4188)
(-0.404761 -0.423649 0.810364)
(-0.426925 -0.498606 0.754405)
(-0.457804 -0.436661 0.774431)
(0.591022 0.655701 -0.469839)
(-0.441384 -0.53428 0.720919)
(-0.475269 -0.471529 0.742819)
(-0.507868 -0.569634 0.646209)
(-0.301215 -0.275333 0.912941)
(-0.263132 -0.272974 0.925336)
(-0.299423 -0.338574 0.892028)
(-0.299923 -0.360429 0.883254)
(-0.31177 -0.299838 0.901608)
(-0.492855 -0.53504 0.686168)
(0.628377 0.742369 -0.232444)
(0.602549 0.748164 -0.277822)
(0.631139 0.750714 -0.195171)
(0.598387 0.739162 -0.309147)
(0.63446 0.739922 -0.223551)
(0.591658 0.709067 -0.38362)
(0.597155 0.723574 -0.346189)
(0.632603 0.728707 -0.262297)
(0.564333 0.625481 -0.538796)
(-0.333564 -0.349498 0.875549)
(-0.398997 -0.468582 0.788183)
(-0.425776 -0.407374 0.807937)
(0.590875 0.65706 -0.468123)
(-0.385818 -0.454144 0.803055)
(-0.401667 -0.386999 0.829997)
(-0.271941 -0.269715 0.923743)
(-0.166517 -0.143067 0.975604)
(-0.143416 -0.139683 0.979755)
(-0.159822 -0.179354 0.970716)
(-0.260848 -0.267663 0.927532)
(-0.170197 -0.18111 0.968624)
(-0.162445 -0.139728 0.976774)
(-0.214316 -0.216147 0.952549)
(-0.125662 -0.121014 0.984665)
(-0.14215 -0.147146 0.978847)
(-0.136913 -0.114213 0.983977)
(-0.216267 -0.207509 0.954028)
(-0.1363 -0.15056 0.97916)
(-0.140736 -0.121793 0.982527)
(-0.163944 -0.161658 0.973134)
(-0.111652 -0.0922399 0.989457)
(-0.103484 -0.0986193 0.98973)
(-0.116521 -0.119045 0.986028)
(-0.110331 -0.120549 0.986557)
(-0.114381 -0.0978014 0.988611)
(-0.168209 -0.157225 0.973132)
(-0.206568 -0.19727 0.958339)
(-0.116168 -0.111286 0.986975)
(-0.126198 -0.140489 0.982007)
(-0.132335 -0.111915 0.984867)
(-0.1929 -0.192677 0.962115)
(-0.136316 -0.141671 0.980483)
(-0.12946 -0.108845 0.985593)
(-0.172234 -0.175156 0.969358)
(-0.117618 -0.106473 0.987335)
(-0.117389 -0.116462 0.986233)
(-0.113991 -0.133126 0.984522)
(-0.149958 -0.158756 0.975863)
(-0.129637 -0.143007 0.981195)
(-0.123397 -0.112001 0.986017)
(-0.215349 -0.243576 0.945672)
(-0.165321 -0.169957 0.971485)
(-0.187942 -0.221031 0.956987)
(-0.186252 -0.183159 0.965279)
(-0.238752 -0.265248 0.934152)
(-0.168043 -0.202952 0.964662)
(-0.171421 -0.169233 0.970554)
(-0.436713 -0.508674 0.741979)
(-0.427428 -0.46619 0.774579)
(-0.375272 -0.398528 0.836867)
(-0.396669 -0.515789 0.759352)
(-0.357038 -0.458794 0.813653)
(-0.379354 -0.409311 0.829792)
(-0.489178 -0.563102 0.666049)
(-0.283959 -0.320519 0.903678)
(-0.218224 -0.227929 0.948908)
(-0.195793 -0.244537 0.949667)
(-0.203052 -0.204587 0.957556)
(-0.244909 -0.286458 0.926262)
(-0.224849 -0.270141 0.936198)
(-0.224289 -0.225166 0.948153)
(0.325691 0.44461 0.834414)
(-0.0287836 0.019911 0.999387)
(0.0392567 0.083552 0.99573)
(0.528762 0.329689 0.782123)
(-0.041586 -0.0888426 0.995177)
(0.0377225 -0.0701352 0.996824)
(-0.539783 -0.424291 0.727057)
(-0.495923 -0.344816 0.79697)
(-0.126879 -0.00737416 0.991891)
(-0.190181 -0.0167804 0.981606)
(-0.476832 -0.204439 0.85489)
(-0.434971 -0.162343 0.885689)
(-0.159078 -0.0646648 0.985146)
(-0.190361 -0.0700319 0.979213)
(0.815986 0.557719 -0.152038)
(0.696892 0.420058 -0.581286)
(0.65048 0.455896 -0.607482)
(0.698612 0.532469 -0.477932)
(0.816375 0.53434 -0.219117)
(0.718473 0.442588 -0.536575)
(0.730342 0.53847 -0.420298)
(0.774333 0.61549 -0.146904)
(0.655513 0.55002 -0.517475)
(0.706991 0.558909 -0.433341)
(0.683956 0.623993 -0.377937)
(0.715757 0.540048 -0.442764)
(0.696317 0.618077 -0.364861)
(0.757131 0.633815 -0.158215)
(-0.525325 -0.24636 0.814457)
(-0.577177 -0.239274 0.780778)
(-0.635698 -0.421669 0.646593)
(-0.626684 -0.40092 0.668229)
(-0.563211 -0.508596 0.651248)
(0.625473 0.516181 -0.585098)
(0.559722 0.659793 -0.501383)
(0.565132 0.658049 -0.497592)
(0.677935 0.696413 -0.235399)
(0.585977 0.573959 -0.572016)
(0.632401 0.584098 -0.50882)
(0.578582 0.643729 -0.500855)
(0.665095 0.695195 -0.272676)
(0.638236 0.594565 -0.489027)
(0.593957 0.658391 -0.462316)
(0.684774 0.722904 -0.0921659)
(0.69956 0.704184 -0.121412)
(0.707807 0.702933 -0.0699553)
(0.67686 0.725299 -0.125707)
(0.732254 0.657701 -0.176727)
(0.648616 0.573482 -0.500416)
(0.70184 0.567289 -0.430819)
(0.665998 0.64367 -0.377009)
(0.74741 0.643664 -0.164546)
(0.703438 0.569481 -0.425284)
(0.664265 0.64092 -0.384674)
(0.668526 0.737272 -0.0974826)
(0.637715 0.754628 -0.154455)
(0.651124 0.748161 -0.12764)
(0.655519 0.741889 -0.141056)
(-0.433532 -0.629753 0.644563)
(-0.418967 -0.606886 0.675393)
(-0.313474 -0.447785 0.83739)
(-0.328046 -0.484784 0.810784)
(-0.537188 -0.466384 0.702791)
(-0.514964 -0.44918 0.730102)
(-0.364499 -0.328024 0.871516)
(-0.385489 -0.351883 0.852981)
(-0.562137 -0.478681 0.674438)
(-0.57666 -0.488254 0.655035)
(0.635292 0.449899 -0.627691)
(0.646039 0.44659 -0.619025)
(0.45628 0.644674 -0.613355)
(0.466024 0.671779 -0.57579)
(0.537419 0.682261 -0.495682)
(0.544356 0.677528 -0.494603)
(-0.222475 -0.302479 0.926829)
(-0.228182 -0.319426 0.919728)
(-0.290825 -0.417759 0.860754)
(-0.283028 -0.409546 0.867276)
(-0.240625 -0.206296 0.948442)
(-0.249018 -0.216703 0.943944)
(-0.335581 -0.296692 0.894069)
(-0.317842 -0.287606 0.903471)
(-0.462969 -0.499783 0.732036)
(-0.284308 -0.259841 0.92285)
(-0.230856 -0.236886 0.943711)
(-0.272999 -0.31628 0.908536)
(-0.480095 -0.526008 0.702015)
(-0.273406 -0.253286 0.927952)
(-0.278094 -0.317055 0.906719)
(0.644489 0.712446 -0.277586)
(0.552586 0.611256 -0.566581)
(0.567791 0.638747 -0.519245)
(0.641613 0.696669 -0.320912)
(0.63749 0.713315 -0.291185)
(0.587345 0.687507 -0.427036)
(0.639486 0.726819 -0.250582)
(0.578161 0.667009 -0.469924)
(-0.390749 -0.423834 0.817117)
(-0.197251 -0.198579 0.96003)
(-0.222474 -0.195122 0.955213)
(-0.227181 -0.247572 0.941858)
(-0.228515 -0.209876 0.950649)
(-0.222374 -0.258539 0.940057)
(-0.381923 -0.397517 0.834335)
(-0.227255 -0.189006 0.955318)
(-0.220631 -0.189845 0.956703)
(-0.18341 -0.149295 0.971633)
(-0.1877 -0.154176 0.970051)
(-0.20936 -0.286044 0.935066)
(-0.209696 -0.288164 0.934339)
(-0.175417 -0.22808 0.95771)
(-0.178017 -0.23573 0.955375)
(-0.289407 -0.302122 0.908276)
(-0.156326 -0.153405 0.97572)
(-0.17301 -0.147357 0.973834)
(-0.178578 -0.189071 0.965589)
(-0.287428 -0.286608 0.913915)
(-0.177702 -0.157575 0.971387)
(-0.17285 -0.195142 0.965423)
(0.644007 0.678508 -0.353386)
(-0.534268 -0.575497 0.619162)
(0.64843 0.696921 -0.306332)
(-0.511861 -0.541161 0.667191)
(-0.359097 -0.371726 0.856078)
(-0.179201 -0.178624 0.967461)
(-0.212964 -0.187511 0.958898)
(-0.205238 -0.233423 0.950469)
(-0.357318 -0.378874 0.853685)
(-0.207039 -0.183923 0.960889)
(-0.21504 -0.236074 0.947643)
(-0.134755 -0.173025 0.975655)
(-0.137126 -0.173877 0.975173)
(-0.116108 -0.142683 0.982935)
(-0.117317 -0.144754 0.982488)
(-0.140568 -0.107913 0.984172)
(-0.137906 -0.108694 0.984463)
(-0.117669 -0.0900523 0.988961)
(-0.120224 -0.0921947 0.988457)
(-0.146124 -0.114659 0.982599)
(-0.149314 -0.117735 0.981755)
(-0.175657 -0.139166 0.974565)
(-0.172031 -0.140658 0.974998)
(-0.142344 -0.179161 0.973468)
(-0.1441 -0.183174 0.972462)
(-0.166173 -0.218673 0.961545)
(-0.168299 -0.220764 0.960697)
(-0.0970679 -0.117517 0.988316)
(-0.0974709 -0.11801 0.988217)
(-0.109795 -0.138707 0.984228)
(-0.112256 -0.13904 0.983904)
(-0.0971397 -0.0733703 0.992563)
(-0.0988889 -0.0745964 0.992299)
(-0.113609 -0.085414 0.989847)
(-0.111616 -0.0858401 0.990037)
(-0.163862 -0.15281 0.974576)
(-0.108933 -0.0916642 0.989814)
(-0.0979074 -0.0930278 0.990838)
(-0.103449 -0.115154 0.987946)
(-0.149514 -0.14732 0.977723)
(-0.107406 -0.089399 0.990188)
(-0.113593 -0.116685 0.986651)
(-0.138056 -0.136005 0.981042)
(-0.0929467 -0.0886741 0.991715)
(-0.100367 -0.0839356 0.991404)
(-0.105141 -0.108041 0.988571)
(-0.101127 -0.0871424 0.99105)
(-0.0977278 -0.107152 0.989428)
(-0.14499 -0.135638 0.980092)
(-0.094754 -0.0704321 0.993006)
(-0.0936677 -0.0711831 0.993056)
(-0.08814 -0.067048 0.993849)
(-0.0884158 -0.066885 0.993836)
(-0.092291 -0.115635 0.988995)
(-0.0952258 -0.116539 0.98861)
(-0.0891529 -0.10798 0.990148)
(-0.0881128 -0.10619 0.990434)
(-0.144779 -0.149637 0.978084)
(-0.10312 -0.100987 0.989529)
(-0.113278 -0.0999764 0.988521)
(-0.11826 -0.127003 0.984827)
(-0.156798 -0.155417 0.975326)
(-0.109773 -0.0991034 0.989004)
(-0.10733 -0.121845 0.986729)
(-0.147296 -0.139191 0.97925)
(-0.0935149 -0.0896394 0.991574)
(-0.100003 -0.0856392 0.991295)
(-0.0954106 -0.107651 0.9896)
(-0.131342 -0.131112 0.982629)
(-0.100608 -0.0854568 0.991249)
(-0.106664 -0.111263 0.98805)
(-0.103988 -0.133829 0.985533)
(-0.112295 -0.143599 0.983244)
(-0.164508 -0.217338 0.962134)
(-0.152799 -0.198113 0.968196)
(-0.104133 -0.0822149 0.991159)
(-0.109107 -0.0888146 0.990054)
(-0.166532 -0.145665 0.975217)
(-0.153802 -0.130908 0.979392)
(-0.100066 -0.079379 0.991809)
(-0.0968292 -0.0760393 0.992392)
(-0.0878403 -0.0660931 0.99394)
(-0.0884316 -0.0681691 0.993747)
(-0.102003 -0.127019 0.986642)
(-0.0978022 -0.120758 0.987852)