/*--------------------------------*- C++ -*----------------------------------*\
| =========                 |                                                 |
| \\      /  F ield         | OpenFOAM: The Open Source CFD Toolbox           |
|  \\    /   O peration     | Version:  2012                                  |
|   \\  /    A nd           | Website:  www.openfoam.com                      |
|    \\/     M anipulation  |                                                 |
\*---------------------------------------------------------------------------*/
FoamFile
{
    version     2.0;
    format      ascii;
    class       volScalarField;
    location    "0.108/solid";
    object      sigmaHyd;
}
// * * * * * * * * * * * * * * * * * * * * * * * * * * * * * * * * * * * * * //

dimensions      [1 -1 -2 0 0 0 0];


internalField   nonuniform List<scalar> 
3125
(
1.81508e+07
2.12032e+07
-6.2628e+06
-1.97256e+06
1.40714e+07
1.49841e+07
1.87445e+07
1.90955e+07
-1.20999e+07
-1.53252e+07
7.70564e+06
9.84327e+06
1.69085e+07
1.73852e+07
-1.65919e+06
6.415e+07
2.34808e+07
1.35649e+08
6.2719e+07
5.24094e+07
4.59574e+07
2.56388e+07
1.06149e+07
3.66642e+06
1.32128e+08
2.28715e+07
1.42731e+07
-1.062e+07
6.1874e+06
2.11144e+07
2.25038e+06
2.59079e+07
9.6369e+06
1.84493e+06
2.139e+07
1.24208e+07
2.83597e+07
1.29507e+07
1.92699e+07
2.82521e+07
1.88183e+07
2.78903e+07
1.95998e+07
1.57418e+07
2.82075e+07
1.98472e+07
2.74054e+07
1.82917e+07
2.09023e+07
2.77781e+07
2.06708e+07
2.90813e+07
2.11312e+07
1.90271e+07
2.79188e+07
2.08657e+07
4.48113e+07
3.68647e+07
2.37623e+07
-9.09272e+06
3.92432e+07
7.82922e+06
4.99915e+07
-2.97298e+06
-2.39707e+06
1.294e+07
5.91909e+06
-2.27005e+07
-3.62531e+06
-1.41714e+07
-1.43554e+07
1.36161e+07
-1.41475e+07
-3.88092e+06
1.35499e+07
-1.54774e+06
5.01322e+06
-762051
-9.78354e+06
-1.83479e+07
-2.4274e+07
-2.09243e+07
-1.15055e+07
-3.83815e+06
6.97658e+06
1.03412e+07
-6.98139e+06
275583
2.59626e+07
5.06466e+06
1.616e+07
2.7905e+07
1.45606e+07
7.43592e+06
2.36149e+06
1.33017e+07
1.14522e+07
2.84034e+07
1.15644e+07
1.73371e+07
2.78821e+07
1.8195e+07
1.59003e+07
1.53074e+07
1.54448e+07
1.31809e+07
8.84975e+06
1.22389e+07
1.39234e+07
1.49507e+07
1.61149e+07
1.64816e+07
1.60852e+07
2.78545e+07
1.6375e+07
2.01881e+07
2.75341e+07
2.00375e+07
1.68923e+07
1.66218e+07
2.73861e+07
1.78377e+07
2.03272e+07
2.75156e+07
2.04812e+07
1.78451e+07
1.74288e+07
1.70067e+07
1.72942e+07
1.80175e+07
1.81528e+07
2.93311e+07
1.8556e+07
1.72111e+07
2.44176e+07
1.4139e+07
5.46924e+07
1.08716e+08
1.00937e+08
4.92552e+07
6.57302e+07
1.1164e+08
9.49072e+07
8.32273e+07
6.66427e+07
1.04364e+08
7.10222e+07
3.98041e+07
4.02046e+07
8.86437e+07
3.3529e+07
4.21831e+07
5.57016e+07
3.01456e+07
5.37616e+07
9.50692e+07
7.82536e+07
8.30806e+07
6.10942e+07
6.45779e+07
7.20894e+07
3.8385e+06
1.71927e+06
1.74684e+07
1.12113e+07
2.51439e+06
1.28328e+07
3.68042e+06
6.59852e+06
1.78596e+07
1.68903e+07
7.87763e+06
7.83976e+06
1.5618e+07
5.91784e+06
1.3586e+07
1.47707e+07
2.40742e+07
2.26249e+07
2.19893e+07
1.34374e+07
1.43629e+07
1.1429e+07
2.38848e+07
1.92662e+07
9.99603e+06
1.04012e+07
2.01886e+07
1.16789e+07
2.12278e+07
2.17118e+07
2.83599e+07
2.66091e+07
2.11194e+07
2.66361e+07
2.20007e+07
2.16582e+07
2.83324e+07
2.66745e+07
2.25271e+07
2.17225e+07
2.66767e+07
2.23166e+07
2.23409e+07
2.32276e+07
2.80417e+07
2.65347e+07
2.65688e+07
2.30989e+07
2.23456e+07
2.20867e+07
2.80705e+07
2.66497e+07
2.27613e+07
2.20511e+07
2.66282e+07
2.29168e+07
2.34358e+07
2.42477e+07
2.74785e+07
2.62492e+07
2.33792e+07
2.6292e+07
2.44046e+07
2.37171e+07
2.75427e+07
2.64909e+07
2.48899e+07
2.38201e+07
2.63789e+07
2.46433e+07
2.44974e+07
2.63625e+07
2.86483e+07
2.73571e+07
2.69129e+07
2.59424e+07
2.48914e+07
2.43193e+07
2.83563e+07
2.66247e+07
2.52158e+07
2.41295e+07
2.69057e+07
2.55766e+07
1.32182e+08
7.83895e+07
6.07647e+07
8.16887e+07
1.02246e+08
1.26646e+08
7.85387e+07
1.01393e+08
4.0344e+07
2.43255e+07
7.26266e+07
4.9725e+07
3.47869e+06
2.95593e+07
9.33326e+07
6.25458e+07
2.36052e+07
3.97458e+07
4.79709e+07
1.04377e+07
4.48853e+07
8.49989e+07
5.56637e+07
1.71844e+07
-3.3089e+06
1.90642e+07
5.26948e+07
7.59274e+07
3.23785e+07
7.75421e+07
6.63297e+07
3.57396e+07
2.06061e+07
5.63394e+07
1.00058e+08
8.79096e+07
1.10215e+07
2.58738e+07
2.46372e+07
1.75943e+07
1.73762e+07
1.49195e+07
1.39147e+07
3.60021e+06
2.28848e+07
1.67529e+06
5.62987e+06
6.35425e+06
5.78918e+06
864318
3.99067e+07
2.19737e+07
-1.90768e+07
-4.71566e+06
2.21639e+06
2.46968e+07
-1.26762e+07
9.3626e+06
5.41421e+06
1.36943e+07
1.45844e+07
8.25712e+06
-23629.9
-1.55561e+07
-642152
5.04672e+06
4.65955e+06
3.61297e+06
-1.55016e+07
3.29866e+06
-789708
1.13734e+07
-204766
8.46797e+06
149609
-1.47707e+06
6.68824e+06
-1.67712e+06
1.10986e+07
-1.01211e+06
3.85514e+06
-1.49829e+06
-1.77564e+06
5.27455e+06
1.48635e+07
1.80082e+07
1.58744e+07
3.58304e+06
1.4965e+07
2.18996e+07
1.94475e+07
1.09029e+07
1.07251e+06
1.19605e+07
2.05499e+06
4.04422e+06
-1.26244e+07
1.70414e+06
-1.19267e+06
-5.7692e+06
-1.55451e+07
-3.00434e+06
8.07573e+06
5.86446e+06
598045
-194814
-7.36794e+06
-2.41845e+07
-8.76116e+06
2.46032e+06
-68874.3
-7.17135e+06
-2.29885e+07
-8.79133e+06
1.31263e+07
9.53283e+06
1.51552e+06
-9.28276e+06
2.59986e+06
5.1339e+06
8.15785e+06
7.24834e+06
-6.01377e+06
6.13749e+06
2.65718e+07
2.53637e+07
1.80585e+07
8.05744e+06
1.88432e+07
2.29544e+07
2.471e+07
2.09424e+07
9.54164e+06
2.0284e+07
1.48996e+07
1.33095e+07
-4.40177e+06
3.50044e+06
6.09758e+06
9.80608e+06
-1.93243e+06
7.65805e+06
9.84899e+06
1.1817e+07
1.66375e+07
1.61512e+07
2.71253e+07
2.3898e+07
1.6076e+07
1.71625e+07
2.431e+07
1.79603e+07
2.71775e+07
1.89686e+07
2.54161e+07
1.82153e+07
2.51566e+07
1.83515e+07
1.60863e+07
1.73046e+07
5.92683e+06
1.51614e+07
1.38208e+07
1.10877e+07
4.1994e+06
1.27993e+07
1.9138e+07
1.82206e+07
2.69117e+07
2.76916e+07
2.32544e+07
1.28683e+07
2.27835e+07
2.82948e+07
2.78034e+07
2.1799e+07
1.20387e+07
2.23572e+07
2.03766e+07
2.82425e+07
2.1285e+07
2.64663e+07
2.05495e+07
2.08835e+07
2.63893e+07
1.96195e+07
2.82495e+07
1.97519e+07
2.59421e+07
1.93554e+07
2.03014e+07
2.60896e+07
2.83436e+07
2.83987e+07
2.41803e+07
1.57624e+07
2.3925e+07
2.81781e+07
2.81766e+07
2.38823e+07
1.54868e+07
2.41775e+07
2.19163e+07
2.22781e+07
1.47722e+07
2.04177e+07
1.99298e+07
1.89225e+07
1.40003e+07
1.95464e+07
2.28421e+07
2.25739e+07
2.15252e+07
2.10267e+07
1.59629e+07
1.00805e+07
1.70013e+07
1.98299e+07
2.05038e+07
1.84337e+07
1.12351e+07
1.76279e+07
2.85397e+07
2.83918e+07
2.33852e+07
1.42423e+07
2.37865e+07
2.82509e+07
2.8531e+07
2.40653e+07
1.4712e+07
2.37221e+07
2.76428e+07
2.76893e+07
2.38969e+07
1.62225e+07
2.41198e+07
2.79469e+07
2.79143e+07
2.40276e+07
1.63941e+07
2.38292e+07
2.36019e+07
2.3446e+07
1.66342e+07
2.07201e+07
2.11046e+07
2.1771e+07
1.72007e+07
2.13519e+07
2.30663e+07
2.32705e+07
2.25604e+07
2.33679e+07
2.76947e+07
2.64587e+07
2.25503e+07
2.34562e+07
2.64287e+07
2.27429e+07
2.76732e+07
2.36465e+07
2.63255e+07
2.35705e+07
2.63507e+07
2.27493e+07
2.37333e+07
2.38596e+07
2.25828e+07
2.23838e+07
2.19676e+07
2.22139e+07
2.409e+07
2.3978e+07
2.74288e+07
2.73791e+07
2.38264e+07
1.68199e+07
2.36572e+07
2.71445e+07
2.71836e+07
2.37452e+07
1.66978e+07
2.3924e+07
2.31247e+07
2.7417e+07
2.40777e+07
2.62272e+07
2.31511e+07
2.39701e+07
2.62208e+07
2.29353e+07
2.74157e+07
2.37558e+07
2.62636e+07
2.29231e+07
2.38393e+07
2.62497e+07
2.67273e+07
2.68147e+07
2.39386e+07
1.77025e+07
2.36972e+07
2.69374e+07
2.67497e+07
2.35866e+07
1.75432e+07
2.3789e+07
2.47544e+07
2.50071e+07
2.45983e+07
2.40931e+07
2.35355e+07
2.38773e+07
2.56049e+07
2.52026e+07
2.46096e+07
2.44387e+07
2.2722e+07
2.29478e+07
2.41956e+07
2.43237e+07
2.33613e+07
2.30984e+07
2.6837e+07
2.6812e+07
2.35882e+07
1.7084e+07
2.37567e+07
2.69714e+07
2.69561e+07
2.37364e+07
1.72028e+07
2.35573e+07
2.77242e+07
2.72791e+07
2.38904e+07
1.81781e+07
2.42184e+07
2.69251e+07
2.7297e+07
2.46441e+07
1.81548e+07
2.40171e+07
2.72813e+07
2.66914e+07
2.48538e+07
2.54996e+07
2.64031e+07
2.57287e+07
2.58553e+07
2.64501e+07
2.55432e+07
2.67626e+07
2.91724e+07
2.70948e+07
2.48164e+07
2.71479e+07
2.74891e+07
2.5959e+07
2.65149e+07
2.50244e+07
1.52056e+07
2.65665e+07
1.43779e+07
2.66388e+07
2.86682e+07
2.7137e+07
2.82492e+07
2.73625e+07
2.73849e+07
2.68199e+07
2.65466e+07
2.68162e+07
2.73199e+07
2.76629e+07
2.80929e+07
1.48825e+07
2.74974e+07
2.87996e+07
2.56502e+07
1.55036e+07
2.65151e+07
5.83497e+07
7.18334e+07
8.01594e+07
4.6364e+07
1.02892e+08
1.30764e+08
1.15689e+08
1.09216e+08
1.03462e+08
1.17174e+08
1.07518e+08
4.67027e+07
5.08342e+07
6.41391e+07
4.66936e+07
5.02305e+07
5.42796e+07
4.13978e+07
9.41361e+07
1.21144e+08
1.09209e+08
1.07627e+08
9.9149e+07
1.03189e+08
1.0389e+08
9.0944e+06
9.62746e+06
1.54201e+07
1.23694e+07
8.06963e+06
1.31139e+07
1.01646e+07
-3.32216e+06
-275592
-1.65851e+06
-2.53951e+06
-6.08666e+06
-7.29126e+06
-7.73795e+06
-5.06825e+06
1.42383e+07
1.99203e+07
1.88346e+07
1.57965e+07
1.49913e+07
1.8436e+07
1.53557e+07
2.03989e+07
2.15013e+07
2.52969e+07
2.43135e+07
2.41324e+07
2.12301e+07
2.08725e+07
2.57121e+06
2.17536e+06
1.0746e+06
4.19705e+06
4.99016e+06
7.99802e+06
6.3206e+06
6.25117e+06
1.69374e+07
2.2383e+07
2.0284e+07
1.71688e+07
1.61499e+07
2.07588e+07
1.7566e+07
2.54457e+07
2.57937e+07
2.83567e+07
2.7746e+07
2.52657e+07
2.78219e+07
2.5877e+07
2.56216e+07
2.83019e+07
2.77355e+07
2.61168e+07
2.56778e+07
2.777e+07
2.60732e+07
2.57409e+07
2.61657e+07
2.79585e+07
2.74948e+07
2.75352e+07
2.61403e+07
2.57591e+07
2.57696e+07
2.81469e+07
2.7702e+07
2.61037e+07
2.56471e+07
2.77515e+07
2.61602e+07
2.59784e+07
2.62006e+07
2.73976e+07
2.70856e+07
2.58405e+07
2.71688e+07
2.62967e+07
2.63172e+07
2.7685e+07
2.74327e+07
2.67761e+07
2.63659e+07
2.7384e+07
2.66434e+07
2.75214e+07
2.81353e+07
2.89453e+07
2.86417e+07
2.84316e+07
2.79258e+07
2.76835e+07
2.67049e+07
2.80247e+07
2.7518e+07
2.68764e+07
2.64725e+07
2.77009e+07
2.70754e+07
1.22818e+08
1.30912e+08
1.36059e+08
3.76947e+07
1.34565e+08
1.23664e+08
3.62444e+07
4.71223e+07
1.22661e+08
1.06951e+08
5.92219e+07
7.04841e+07
1.32666e+08
1.25949e+08
2.74827e+07
3.82126e+07
3.84449e+07
3.42083e+07
3.1286e+07
3.55345e+07
3.19495e+07
7.01375e+06
1.51017e+07
9.90499e+06
1.01062e+07
1.04063e+07
1.04339e+07
6.00409e+06
5.46662e+07
4.24832e+07
1.22829e+07
1.48626e+07
3.45391e+07
2.58877e+07
7.99462e+06
9.23631e+06
6.11142e+06
1.23995e+07
8.28828e+06
1.08164e+07
6.81103e+06
7.83335e+06
1.03001e+07
-1.15146e+07
-1.09412e+07
-1.15354e+07
-1.13983e+07
4.64818e+06
1.19319e+07
7.53272e+06
8.1115e+06
4.45269e+06
7.58138e+06
8.58269e+06
-1.10647e+07
-9.38833e+06
-9.88372e+06
-1.08668e+07
1.54109e+07
1.70035e+07
2.37022e+07
2.26043e+07
1.06178e+07
1.16466e+07
1.72771e+07
1.60488e+07
9.94117e+06
8.91603e+06
1.2193e+07
1.00371e+07
1.4404e+07
1.29599e+07
9.15945e+06
9.02899e+06
2.87177e+07
2.82955e+07
2.41861e+07
2.52706e+07
2.27656e+07
2.20408e+07
1.77036e+07
1.87711e+07
2.19583e+07
2.22532e+07
2.64342e+07
2.50752e+07
2.14763e+07
2.24853e+07
2.53267e+07
1.09283e+07
1.35538e+07
1.24924e+07
1.17602e+07
9.29928e+06
9.74715e+06
8.26694e+06
1.10933e+07
2.36472e+07
2.76864e+07
2.44517e+07
2.68429e+07
2.4301e+07
2.67915e+07
2.39023e+07
2.2936e+07
2.35272e+07
2.55223e+07
2.51834e+07
2.88961e+07
2.93686e+07
3.04288e+07
3.04044e+07
2.50913e+07
2.8376e+07
2.57073e+07
2.76811e+07
2.5218e+07
2.56258e+07
2.76906e+07
1.37236e+07
1.46586e+07
1.30564e+07
1.54885e+07
2.44232e+07
2.803e+07
2.47642e+07
2.71401e+07
2.4135e+07
2.48995e+07
2.72735e+07
3.05351e+07
3.05204e+07
2.9996e+07
3.01937e+07
2.66442e+07
2.67358e+07
2.69861e+07
2.69532e+07
2.66512e+07
2.65203e+07
2.55673e+07
2.58287e+07
3.05267e+07
3.06726e+07
3.0483e+07
3.06157e+07
2.93108e+07
2.95059e+07
2.99888e+07
2.99245e+07
2.69882e+07
2.69945e+07
2.69607e+07
2.69755e+07
2.58026e+07
2.61201e+07
2.77826e+07
2.74316e+07
2.57056e+07
2.61667e+07
2.74727e+07
2.57366e+07
2.75926e+07
2.61165e+07
2.72127e+07
2.60912e+07
2.72484e+07
2.57408e+07
2.69636e+07
2.69508e+07
2.69177e+07
2.69264e+07
2.9303e+07
2.92341e+07
2.86867e+07
2.88556e+07
2.58261e+07
2.74004e+07
2.62003e+07
2.70891e+07
2.58346e+07
2.61492e+07
2.71047e+07
2.57972e+07
2.74589e+07
2.60734e+07
2.71587e+07
2.56983e+07
2.61284e+07
2.72078e+07
2.83357e+07
2.83302e+07
2.8426e+07
2.84547e+07
2.70331e+07
2.70681e+07
2.76276e+07
2.75047e+07
2.70015e+07
2.69785e+07
2.69077e+07
2.68978e+07
2.82986e+07
2.84194e+07
2.86899e+07
2.86404e+07
2.9533e+07
2.94846e+07
2.85832e+07
2.86774e+07
2.91001e+07
2.89621e+07
2.7787e+07
2.79316e+07
2.80488e+07
2.817e+07
2.93567e+07
2.86133e+07
2.77044e+07
2.83947e+07
2.88995e+07
2.28888e+07
1.77377e+07
2.09375e+07
1.66385e+07
2.44316e+07
2.54317e+07
2.35146e+07
2.59294e+07
2.37858e+07
2.37298e+07
1.8145e+07
1.73088e+07
2.17732e+07
2.5078e+07
1.70483e+07
2.92757e+07
2.92877e+07
2.9832e+07
2.98811e+07
2.40556e+07
2.42892e+07
2.39092e+07
1.34804e+07
2.02465e+07
2.34466e+07
2.33095e+07
2.11085e+07
1.37657e+07
2.07515e+07
7.78123e+07
9.32331e+07
1.02193e+08
7.69744e+07
8.30843e+07
9.8102e+07
7.13937e+07
9.80227e+07
1.23024e+08
1.13374e+08
9.39861e+07
9.53969e+07
1.14333e+08
9.77202e+07
5.73412e+07
7.26561e+07
6.77013e+07
7.26743e+07
6.34333e+07
6.31214e+07
6.81779e+07
8.35396e+07
1.10395e+08
8.38563e+07
8.78507e+07
7.68524e+07
9.01144e+07
9.29579e+07
1.01696e+07
1.61826e+07
1.49038e+07
1.19848e+07
1.09528e+07
1.44606e+07
1.15397e+07
1.32218e+07
1.90825e+07
1.65622e+07
1.35034e+07
1.22749e+07
1.71796e+07
1.39818e+07
1.98439e+07
2.4815e+07
2.30922e+07
2.00879e+07
1.92117e+07
2.34564e+07
2.04082e+07
1.77201e+07
2.3008e+07
2.19992e+07
1.90323e+07
1.8332e+07
2.1721e+07
1.86775e+07
2.54266e+07
2.83815e+07
2.77653e+07
2.59783e+07
2.55136e+07
2.77876e+07
2.59156e+07
2.56662e+07
2.82978e+07
2.77704e+07
2.60046e+07
2.55171e+07
2.78351e+07
2.60766e+07
2.5806e+07
2.79749e+07
2.75774e+07
2.61281e+07
2.5699e+07
2.76242e+07
2.61818e+07
2.57089e+07
2.8135e+07
2.76303e+07
2.61639e+07
2.57431e+07
2.7668e+07
2.61289e+07
2.5993e+07
2.74506e+07
2.71717e+07
2.63929e+07
2.60148e+07
2.71649e+07
2.63108e+07
2.62448e+07
2.75822e+07
2.72119e+07
2.64368e+07
2.60664e+07
2.73332e+07
2.65753e+07
2.7349e+07
2.8799e+07
2.80274e+07
2.75375e+07
2.7073e+07
2.82965e+07
2.77997e+07
2.68603e+07
2.81831e+07
2.79597e+07
2.74174e+07
2.69608e+07
2.78244e+07
2.72087e+07
1.36105e+08
1.35604e+08
1.72198e+08
1.29716e+08
1.21084e+08
1.77326e+08
1.76935e+08
1.66941e+08
1.26867e+08
1.33613e+08
1.2536e+08
1.71496e+08
1.72226e+08
1.06255e+08
1.73586e+08
1.53762e+08
1.31027e+08
5.41637e+07
-2.10638e+07
4.06144e+07
-1.11318e+07
8.81353e+07
1.03225e+08
1.24089e+08
6.47913e+07
7.86314e+07
1.06712e+07
9.53679e+07
-2.92567e+06
1.34359e+08
1.37882e+08
1.54402e+08
1.11427e+08
1.07767e+08
1.18451e+08
1.13948e+08
1.31223e+08
1.40262e+08
1.6336e+08
1.55992e+08
1.24523e+08
1.16231e+08
1.2182e+08
1.66905e+08
1.47631e+08
1.72266e+08
1.89574e+08
2.08811e+08
1.48503e+08
1.89703e+08
1.34592e+08
2.17493e+07
1.15476e+08
3.83085e+07
9.14458e+06
1.49853e+07
3.5524e+06
7.77164e+07
5.67262e+07
3.80041e+07
3.24909e+07
5.18389e+07
4.05046e+07
1.91716e+07
5.88664e+07
6.3759e+07
5.35836e+07
4.1704e+07
-9.30576e+06
1.02142e+07
2.95778e+07
8.94492e+07
1.11404e+08
1.09752e+08
8.83001e+07
1.0376e+08
1.03805e+08
8.98904e+07
5.32379e+07
7.39207e+07
7.00003e+07
8.5655e+07
7.59426e+07
7.00737e+07
5.58839e+07
4.90129e+07
3.41571e+07
2.65256e+07
2.48647e+07
3.53838e+07
3.07559e+07
3.82078e+07
5.84175e+07
4.78886e+07
4.97502e+07
3.48098e+07
4.71579e+07
7.23346e+07
4.06585e+07
2.00914e+07
3.10681e+07
4.5817e+07
8.03458e+06
1.45662e+07
-2.60598e+07
2.33585e+07
-3.22281e+07
3.18573e+07
8.8081e+07
4.98932e+07
6.9679e+07
-2.41117e+06
-3.71284e+07
-6.64479e+06
-3.42045e+07
7.57547e+07
9.28847e+07
1.10877e+08
9.50104e+07
7.4729e+07
1.01991e+08
8.91017e+07
1.28648e+08
8.89392e+07
9.44892e+07
5.90954e+07
6.94631e+07
6.17012e+07
7.30013e+07
7.68715e+07
7.10532e+07
-3.44765e+06
2.66608e+07
1.81794e+07
1.37593e+06
-2.03514e+07
-3.80738e+07
-1.94582e+07
-3.83032e+07
-7.3511e+06
2.4592e+06
8.10296e+06
-9.7295e+06
-1.42534e+07
-3.77667e+07
-1.3546e+07
-3.87856e+07
5.70893e+07
5.71468e+07
4.58272e+07
6.33257e+07
5.5765e+07
9.52878e+07
7.99075e+07
7.74251e+07
7.04016e+07
8.45069e+07
7.59306e+07
6.53263e+07
5.86777e+07
6.222e+07
5.17048e+07
4.38336e+07
1.65369e+07
8.63404e+06
2.52134e+07
3.48796e+07
1.03553e+08
1.1645e+08
1.14907e+08
9.80387e+07
1.03966e+08
1.10215e+08
1.02723e+08
8.66792e+07
9.5971e+07
9.28625e+07
1.04038e+08
9.54342e+07
2.04237e+07
3.20727e+07
2.31997e+07
2.12848e+07
1.69776e+07
2.56772e+07
2.35752e+07
9.76646e+06
1.7314e+07
1.58398e+07
1.43548e+07
1.11616e+07
1.467e+07
1.37452e+07
4.57761e+07
3.9224e+07
3.60514e+07
3.98993e+07
2.87937e+07
2.72198e+07
3.52197e+07
1.42772e+07
2.51241e+07
2.51017e+07
2.95467e+07
2.15934e+07
-2.45261e+07
-2.57758e+07
-2.24873e+07
-1.92585e+07
-5.28296e+06
1.9266e+06
-1.08936e+07
-1.58948e+07
2.4024e+07
1.77523e+07
8.64213e+06
6.51869e+06
-663849
9.9558e+06
1.75371e+06
1.02602e+07
1.7737e+07
1.17695e+07
1.48076e+07
4.87128e+06
1.45054e+07
2.03995e+07
2.91193e+07
2.16753e+07
2.00284e+07
1.28984e+07
3.71503e+07
2.09833e+07
1.71856e+07
2.36704e+07
1.08412e+07
1.43414e+07
8.94133e+06
1.50788e+07
1.83186e+07
1.31892e+07
-2.74576e+06
620928
2.03455e+06
-5.6899e+06
-8.02045e+06
-2.66725e+07
-5.41932e+06
-2.8473e+07
-428319
5.44635e+06
3.62048e+06
2.27626e+06
-1.04123e+07
-3.17169e+07
-1.31418e+07
-3.00689e+07
1.39915e+07
1.06023e+07
1.39963e+07
7.94392e+06
3.96225e+06
1.0024e+07
7.7252e+06
9.87606e+06
1.29972e+07
1.54279e+07
9.90411e+06
8.75304e+06
4.57808e+06
9.01819e+06
1.82025e+07
9.81827e+06
-8.98042e+06
-1.63072e+06
-948503
-7.54633e+06
-1.75821e+07
-3.71066e+07
-1.97652e+07
-3.61205e+07
-9.40522e+06
3.46943e+06
-1.05203e+07
1.55172e+06
-1.78055e+07
-3.32209e+07
-1.5375e+07
-3.47183e+07
5.32293e+06
1.17702e+07
6.63715e+06
8.6154e+06
4.49443e+06
6.99209e+06
9.30104e+06
4.2246e+06
1.12554e+07
6.56017e+06
8.2182e+06
4.23481e+06
6.61904e+06
8.14663e+06
1.94638e+07
1.81509e+07
2.22322e+07
1.53824e+07
1.49182e+07
2.24319e+07
1.60146e+07
2.36809e+07
2.05057e+07
2.32357e+07
2.5832e+07
1.80558e+07
1.62395e+07
1.76727e+07
2.42477e+07
2.52954e+07
2.85656e+07
2.94158e+07
3.05853e+07
2.78204e+07
2.06365e+07
-6.87849e+06
2.14208e+07
-7.71192e+06
2.96352e+07
3.25341e+07
3.18165e+07
3.01395e+07
1.96774e+07
-9.52375e+06
1.88072e+07
-8.66496e+06
2.01333e+07
2.15524e+07
2.71048e+07
2.20155e+07
2.03204e+07
2.94754e+07
2.16698e+07
2.91785e+07
2.78603e+07
2.62308e+07
2.70477e+07
1.9855e+07
1.92601e+07
2.0347e+07
2.47694e+07
2.79763e+07
2.56107e+07
2.89321e+07
2.77502e+07
2.6591e+07
1.52134e+07
-1.38002e+07
1.39511e+07
-1.27039e+07
2.40639e+07
2.41555e+07
2.58974e+07
2.2708e+07
1.67609e+07
-1.05418e+07
1.78588e+07
-1.1583e+07
5.44861e+06
2.27288e+06
-1.85967e+06
5.85958e+06
-488833
1.35524e+07
1.23354e+07
1.77659e+06
3.85068e+06
7.6353e+06
7.23248e+06
268970
-1.02497e+07
-8.42085e+06
-3.89424e+06
-3.58314e+06
1.09932e+06
-45809.5
-4.63755e+06
-1.53271e+06
-2.67967e+06
-5.37229e+06
-4.33338e+06
-7.22894e+06
-563389
-6.14877e+06
-6.58897e+06
-2.82779e+06
-1.1679e+07
-1.3566e+07
-1.05241e+07
-1.23961e+07
-5.13708e+06
-9.61248e+06
-1.13231e+07
-8.23241e+06
-1.16139e+07
-1.82426e+07
-2.0083e+07
-9.14538e+06
-5.50795e+06
-3.60768e+06
-8.84714e+06
-9.92033e+06
-6.98384e+06
-7.97594e+06
-1.68121e+07
-1.49254e+07
1.40362e+07
1.52536e+07
1.15618e+07
7.81831e+06
6.39122e+06
1.10989e+07
4.8683e+06
2.45973e+06
9.15479e+06
6.09747e+06
9.59122e+06
3.99222e+06
8.43618e+06
8.52748e+06
4.18381e+06
489744
-2.57319e+06
3.84291e+06
-3.81057e+06
-4.61183e+06
3.21144e+06
-274734
3.17532e+06
-4.12779e+06
-2.65961e+07
-2.62871e+07
-1.40643e+07
-1.55671e+07
-1.18286e+07
-7.6038e+06
-1.30179e+07
-1.55535e+07
-1.30329e+07
-1.482e+07
-1.36592e+07
-8.68579e+06
-1.6133e+07
-1.64454e+07
-1.35023e+07
-1.50688e+07
-2.66222e+07
-2.6063e+07
8.42471e+06
9.00087e+06
6.16405e+06
-1.56181e+06
1.87879e+06
5.32811e+06
-3.1781e+06
-4.53151e+06
3.35581e+06
419219
3.88082e+06
-4.24674e+06
-1.36781e+07
-1.36665e+07
-7.65061e+06
-1.07368e+07
-1.45875e+07
-1.28048e+07
-1.19181e+07
-2.30819e+07
-2.14173e+07
-1.44795e+07
-1.33199e+07
-8.4331e+06
-1.60858e+07
-1.53299e+07
-1.27403e+07
-1.48865e+07
-2.416e+07
-2.53707e+07
1.05681e+07
1.177e+07
1.84373e+07
1.33787e+07
1.12104e+07
2.07671e+07
1.29072e+07
1.96663e+07
1.99175e+07
1.73928e+07
1.6632e+07
1.04977e+07
9.80732e+06
1.12029e+07
1.59447e+07
1.80016e+07
1.04496e+07
1.51308e+07
1.304e+07
1.27607e+07
-179007
-2.50927e+07
-2.58463e+06
-2.34317e+07
7.89625e+06
7.87214e+06
4.96588e+06
1.03818e+07
2.58461e+06
-2.03431e+07
4.65647e+06
-2.19312e+07
9.67019e+06
9.19601e+06
1.44755e+07
7.21008e+06
1.14092e+07
5.54705e+06
1.41285e+07
7.94644e+06
1.2641e+07
1.46343e+07
1.49203e+07
9.17561e+06
6.45561e+06
8.89859e+06
1.51752e+07
1.42301e+07
1.71543e+07
1.66435e+07
1.88717e+07
1.50789e+07
1.0846e+07
-1.49934e+07
1.23999e+07
-1.63006e+07
1.92592e+07
2.3148e+07
2.09252e+07
2.1361e+07
8.60985e+06
-1.896e+07
6.85877e+06
-1.76013e+07
2.70254e+07
2.77873e+07
3.16964e+07
2.69486e+07
2.54078e+07
3.31507e+07
2.67485e+07
3.32804e+07
3.18271e+07
3.13607e+07
3.23685e+07
2.58694e+07
2.49029e+07
2.61446e+07
3.05694e+07
3.28043e+07
3.20583e+07
3.45872e+07
3.42516e+07
3.22178e+07
2.25999e+07
-6.01138e+06
2.19876e+07
-5.32588e+06
3.13385e+07
3.27847e+07
3.09799e+07
3.35445e+07
2.31353e+07
-3.83547e+06
2.3689e+07
-4.50546e+06
2.67049e+07
2.59979e+07
2.93844e+07
2.33979e+07
2.26017e+07
3.03425e+07
2.37629e+07
2.82549e+07
3.10047e+07
2.99391e+07
3.18266e+07
2.49579e+07
2.33569e+07
2.46958e+07
3.03206e+07
3.17929e+07
3.28654e+07
3.4669e+07
3.51119e+07
3.27736e+07
2.46707e+07
-1.27656e+06
2.50634e+07
-1.82623e+06
3.33406e+07
3.55385e+07
3.54497e+07
3.32781e+07
2.4416e+07
-3.10175e+06
2.39905e+07
-2.55201e+06
1.79518e+07
1.47305e+07
1.39123e+07
1.76663e+07
1.28819e+07
2.06912e+07
2.15324e+07
1.1089e+07
1.34849e+07
1.63044e+07
1.66191e+07
1.22349e+07
-5.43868e+06
-7.15707e+06
-167885
-1.9862e+06
4.067e+06
1.0795e+06
-996023
-1.32115e+06
2.47061e+06
1.1764e+06
4.9009e+06
1.31659e+06
5.58002e+06
381119
2.24964e+06
3.62354e+06
-4.15986e+06
-2.56348e+06
5.52749e+06
5.50344e+06
9.38602e+06
8.99819e+06
4.70661e+06
7.94891e+06
6.43069e+06
1.04372e+06
2.38062e+06
4.39551e+06
5.83203e+06
8.12009e+06
2.70412e+06
3.55368e+06
6.99358e+06
3.41229e+06
-32763.6
-1.49326e+06
2.0385e+07
1.94192e+07
1.30225e+07
1.00784e+07
7.08967e+06
1.34249e+07
8.48316e+06
1.05475e+07
1.51029e+07
1.16051e+07
1.47329e+07
9.27104e+06
2.2307e+07
2.67438e+07
2.32503e+07
2.58569e+07
2.26604e+07
2.30404e+07
2.5747e+07
2.34414e+07
2.74775e+07
2.37532e+07
2.63543e+07
2.30618e+07
2.39426e+07
2.65499e+07
1.88762e+07
1.43407e+07
1.62172e+07
1.91012e+07
1.52329e+07
2.43882e+07
2.38836e+07
1.65305e+07
1.71815e+07
2.00954e+07
1.98862e+07
1.57386e+07
8.83502e+06
9.71531e+06
1.20044e+07
1.1724e+07
1.49079e+07
1.48646e+07
1.11792e+07
1.42135e+07
1.25949e+07
8.12228e+06
7.14876e+06
1.12706e+07
1.28758e+07
9.85752e+06
1.41084e+07
1.04477e+07
1.06178e+07
1.36089e+07
8.19769e+06
6.64451e+06
9.754e+06
1.1455e+07
7.38839e+06
7.35711e+06
1.06853e+07
4.46179e+06
3.26121e+06
5.34484e+06
6.43586e+06
9.11692e+06
1.22813e+07
1.247e+07
8.94695e+06
8.28465e+06
1.14511e+07
9.85115e+06
2.45162e+07
2.4932e+07
2.16822e+07
1.9051e+07
1.85255e+07
2.1537e+07
1.79203e+07
1.68487e+07
2.07905e+07
1.83163e+07
2.09579e+07
1.75331e+07
2.98348e+07
2.96567e+07
3.2506e+07
2.74751e+07
3.34691e+07
2.63886e+07
3.19809e+07
2.76658e+07
3.37385e+07
3.26306e+07
3.37229e+07
2.81635e+07
2.66926e+07
2.80112e+07
3.25489e+07
3.39745e+07
3.37188e+07
3.5733e+07
3.58197e+07
3.3895e+07
2.60129e+07
2.70912e+06
2.6206e+07
2.33955e+06
3.39012e+07
3.55443e+07
3.57291e+07
3.36185e+07
2.60784e+07
1.437e+06
2.58787e+07
1.795e+06
2.9961e+07
3.02445e+07
3.29929e+07
2.88298e+07
2.74271e+07
3.38086e+07
2.87162e+07
3.41235e+07
3.27918e+07
3.29879e+07
3.38824e+07
2.83988e+07
2.72579e+07
2.85468e+07
3.26561e+07
3.40422e+07
3.38659e+07
3.57643e+07
3.58475e+07
3.36627e+07
2.5496e+07
-644823
2.52051e+07
-202971
3.35639e+07
3.55448e+07
3.36415e+07
3.57748e+07
2.55565e+07
882760
2.5834e+07
429217
2.50624e+07
2.83088e+07
2.5403e+07
2.75593e+07
2.48317e+07
2.55164e+07
2.76669e+07
2.4519e+07
2.81469e+07
2.5223e+07
2.73987e+07
2.47021e+07
2.51071e+07
2.73799e+07
3.02919e+07
3.04756e+07
3.2445e+07
2.89535e+07
2.78272e+07
3.30969e+07
2.901e+07
3.31062e+07
3.23964e+07
3.22814e+07
3.26274e+07
2.89906e+07
2.77988e+07
2.89316e+07
3.19405e+07
3.29812e+07
3.20353e+07
3.36669e+07
3.35618e+07
3.22917e+07
2.5828e+07
7.69699e+06
2.58757e+07
7.51013e+06
3.20247e+07
3.3008e+07
3.32829e+07
3.17095e+07
2.60309e+07
7.03172e+06
2.60007e+07
7.19142e+06
3.03012e+07
3.02569e+07
3.18096e+07
2.87645e+07
2.76372e+07
3.20708e+07
2.87165e+07
3.24097e+07
3.14727e+07
3.19799e+07
3.25538e+07
2.87735e+07
2.76871e+07
2.88195e+07
3.19651e+07
3.25506e+07
3.26117e+07
3.37136e+07
3.39944e+07
3.22814e+07
2.62248e+07
5.94457e+06
2.61702e+07
6.14325e+06
3.26008e+07
3.43612e+07
3.42698e+07
3.28659e+07
2.60252e+07
6.72209e+06
2.60897e+07
6.50781e+06
2.38729e+07
2.19494e+07
2.12655e+07
2.39224e+07
2.15511e+07
2.68713e+07
2.67998e+07
2.19732e+07
2.22543e+07
2.41726e+07
2.41289e+07
2.17154e+07
1.71242e+07
1.74897e+07
1.68292e+07
1.64244e+07
1.53119e+07
1.48105e+07
1.56785e+07
1.61332e+07
2.68655e+07
2.6915e+07
2.45658e+07
2.28285e+07
2.26027e+07
2.454e+07
2.2406e+07
2.20646e+07
2.43579e+07
2.2599e+07
2.43941e+07
2.22809e+07
2.6243e+07
2.64123e+07
2.36158e+07
2.14866e+07
2.11403e+07
2.35497e+07
2.07967e+07
2.01906e+07
2.31731e+07
2.10753e+07
2.32535e+07
2.05766e+07
1.10644e+07
1.02844e+07
1.37222e+07
1.24396e+07
1.53296e+07
1.61858e+07
1.32017e+07
1.2926e+07
1.58979e+07
1.4302e+07
1.6876e+07
1.68077e+07
1.3942e+07
1.34962e+07
1.63706e+07
1.47726e+07
1.16357e+07
1.23417e+07
2.62082e+07
2.5992e+07
2.21832e+07
1.87611e+07
1.98962e+07
2.22926e+07
1.92721e+07
2.00178e+07
2.28075e+07
2.04446e+07
2.2706e+07
1.95635e+07
1.38818e+07
1.44479e+07
1.3424e+07
1.27975e+07
3.06262e+07
3.06748e+07
3.26919e+07
2.91277e+07
2.78677e+07
3.31494e+07
2.9058e+07
3.23705e+07
3.35078e+07
3.28256e+07
3.35569e+07
2.90063e+07
2.78561e+07
2.90878e+07
3.27194e+07
3.35953e+07
3.36215e+07
3.50472e+07
3.52926e+07
3.32989e+07
2.63122e+07
3.18056e+06
2.6182e+07
3.46935e+06
3.35212e+07
3.54944e+07
3.37563e+07
3.54884e+07
2.61729e+07
4.25867e+06
2.63094e+07
3.94878e+06
3.05835e+07
3.06693e+07
3.30466e+07
2.88646e+07
3.38628e+07
2.77007e+07
3.28521e+07
2.89666e+07
3.39449e+07
3.2957e+07
3.35681e+07
2.91022e+07
2.77718e+07
2.90118e+07
3.26708e+07
3.39184e+07
3.3119e+07
3.49956e+07
3.49349e+07
3.3377e+07
2.6156e+07
5.58673e+06
2.62515e+07
5.32656e+06
3.31659e+07
3.4414e+07
3.28304e+07
3.4686e+07
2.63361e+07
4.67052e+06
2.62501e+07
4.90779e+06
2.96465e+07
2.95787e+07
3.08287e+07
2.82061e+07
2.71917e+07
3.09781e+07
2.81661e+07
3.12746e+07
3.0521e+07
3.09872e+07
3.14247e+07
2.82554e+07
2.7257e+07
2.82847e+07
3.09983e+07
3.14159e+07
3.14364e+07
3.23223e+07
3.25847e+07
3.11429e+07
2.57989e+07
7.96778e+06
2.5784e+07
8.10102e+06
3.14598e+07
3.29645e+07
3.17028e+07
3.28563e+07
2.56006e+07
8.54124e+06
2.56364e+07
8.37975e+06
2.9648e+07
2.98497e+07
3.14816e+07
2.853e+07
2.74845e+07
3.19861e+07
2.85625e+07
3.14851e+07
3.1976e+07
3.1311e+07
3.15105e+07
2.84909e+07
2.74227e+07
2.84472e+07
3.09834e+07
3.18299e+07
3.09043e+07
3.22853e+07
3.21812e+07
3.11281e+07
2.53683e+07
9.28466e+06
2.53972e+07
9.14043e+06
3.08761e+07
3.1682e+07
3.19259e+07
3.06061e+07
2.55544e+07
8.77953e+06
2.55479e+07
8.89281e+06
2.50532e+07
2.3591e+07
2.34749e+07
2.50399e+07
2.33474e+07
2.69847e+07
2.69845e+07
2.31372e+07
2.34621e+07
2.49314e+07
2.49584e+07
2.32619e+07
1.80473e+07
1.77204e+07
1.82803e+07
1.85358e+07
1.90032e+07
1.92151e+07
1.88712e+07
1.86534e+07
2.70036e+07
2.69955e+07
2.46949e+07
2.3085e+07
2.26689e+07
2.47165e+07
2.28319e+07
2.30862e+07
2.48349e+07
2.32604e+07
2.48183e+07
2.29311e+07
2.57384e+07
2.77629e+07
2.61405e+07
2.73461e+07
2.57474e+07
2.61159e+07
2.73846e+07
2.57932e+07
2.76062e+07
2.60912e+07
2.72831e+07
2.56974e+07
2.6141e+07
2.73278e+07
2.51245e+07
2.35147e+07
2.37463e+07
2.5143e+07
2.35967e+07
2.69455e+07
2.69568e+07
2.37736e+07
2.38538e+07
2.51969e+07
2.51959e+07
2.36602e+07
2.05984e+07
2.08148e+07
2.04115e+07
2.01682e+07
1.95582e+07
1.9352e+07
1.97411e+07
1.99787e+07
2.69324e+07
2.69171e+07
2.53125e+07
2.40842e+07
2.40218e+07
2.53099e+07
2.39285e+07
2.38054e+07
2.52465e+07
2.39896e+07
2.52658e+07
2.38756e+07
2.89766e+07
2.91621e+07
3.05178e+07
2.79797e+07
3.08952e+07
2.70252e+07
3.05302e+07
2.80026e+07
3.08885e+07
3.03685e+07
3.04829e+07
2.79298e+07
2.69628e+07
2.789e+07
3.00805e+07
3.07559e+07
2.99128e+07
3.1073e+07
3.09896e+07
3.00951e+07
2.49433e+07
1.05373e+07
2.497e+07
1.04195e+07
2.98889e+07
3.05753e+07
3.07762e+07
2.96708e+07
2.50962e+07
1.01324e+07
2.50972e+07
1.02163e+07
2.89776e+07
2.89165e+07
2.99565e+07
2.76822e+07
2.67571e+07
3.00443e+07
2.76414e+07
3.02924e+07
2.96952e+07
3.0088e+07
3.04099e+07
2.77189e+07
2.68118e+07
2.77444e+07
3.00958e+07
3.04102e+07
3.03542e+07
3.10947e+07
3.13184e+07
3.01117e+07
2.5319e+07
9.50267e+06
2.53177e+07
9.59994e+06
3.03841e+07
3.16503e+07
3.05883e+07
3.15545e+07
2.51431e+07
9.94254e+06
2.51708e+07
9.8136e+06
2.58471e+07
2.73802e+07
2.60972e+07
2.7082e+07
2.57343e+07
2.61686e+07
2.71449e+07
2.57537e+07
2.74572e+07
2.61245e+07
2.71161e+07
2.57572e+07
2.60893e+07
2.71434e+07
2.82662e+07
2.83499e+07
2.92095e+07
2.72387e+07
2.64773e+07
2.93661e+07
2.73023e+07
2.93999e+07
2.91725e+07
2.91606e+07
2.9198e+07
2.73432e+07
2.64819e+07
2.72628e+07
2.90065e+07
2.93572e+07
2.87028e+07
2.95183e+07
2.95192e+07
2.87969e+07
2.46014e+07
1.28569e+07
2.46789e+07
1.27245e+07
2.87484e+07
2.93448e+07
2.9421e+07
2.86395e+07
2.46721e+07
1.24236e+07
2.46308e+07
1.25219e+07
2.83454e+07
2.83793e+07
2.91423e+07
2.74944e+07
2.66062e+07
2.917e+07
2.73731e+07
2.92775e+07
2.9047e+07
2.91448e+07
2.92196e+07
2.7269e+07
2.656e+07
2.73684e+07
2.90755e+07
2.92783e+07
2.89e+07
2.94873e+07
2.96066e+07
2.87565e+07
2.46838e+07
1.18304e+07
2.46596e+07
1.19199e+07
2.88798e+07
2.97694e+07
2.97401e+07
2.89995e+07
2.459e+07
1.2239e+07
2.46478e+07
1.21124e+07
2.57505e+07
2.48075e+07
2.46785e+07
2.58087e+07
2.47918e+07
2.72074e+07
2.71463e+07
2.50523e+07
2.49604e+07
2.59819e+07
2.59163e+07