/*--------------------------------*- C++ -*----------------------------------*\
| =========                 |                                                 |
| \\      /  F ield         | OpenFOAM: The Open Source CFD Toolbox           |
|  \\    /   O peration     | Version:  2012                                  |
|   \\  /    A nd           | Website:  www.openfoam.com                      |
|    \\/     M anipulation  |                                                 |
\*---------------------------------------------------------------------------*/
FoamFile
{
    version     2.0;
    format      ascii;
    class       volScalarField;
    location    "0.108/solid";
    object      sigmaMin;
}
// * * * * * * * * * * * * * * * * * * * * * * * * * * * * * * * * * * * * * //

dimensions      [1 -1 -2 0 0 0 0];


internalField   nonuniform List<scalar> 
3125
(
-1.09639e+08
-1.13667e+08
-2.73658e+07
-2.97822e+07
-3.3346e+07
-3.29348e+07
-3.07754e+07
-3.05605e+07
-3.75475e+07
-2.67072e+07
-3.36897e+07
-3.39672e+07
-3.17125e+07
-3.13619e+07
-7.29667e+07
-1.75781e+08
-9.10408e+07
-1.73224e+08
-1.75259e+08
-7.63291e+07
-1.39598e+08
-9.53925e+07
-9.00263e+07
-5.85858e+07
-1.70023e+08
-9.31306e+07
-2.549e+07
-2.49621e+07
-4.42163e+07
-3.21112e+07
-4.12963e+07
-3.65096e+07
-4.62404e+07
-3.16922e+07
-3.21912e+07
-4.72697e+07
-3.72184e+07
-3.36994e+07
-4.26765e+07
-3.6349e+07
-4.3897e+07
-3.51692e+07
-4.14868e+07
-3.25162e+07
-3.62041e+07
-4.0366e+07
-3.29388e+07
-3.08914e+07
-3.54358e+07
-3.2124e+07
-3.60225e+07
-3.12027e+07
-3.48644e+07
-2.98103e+07
-3.20461e+07
-3.3488e+07
-1.61834e+08
-6.71169e+07
-1.15266e+08
-3.87247e+07
-7.06341e+07
-3.23649e+07
-7.45276e+07
-5.97016e+07
-4.1166e+07
-2.69022e+07
-5.85682e+07
8.553e+06
-1.75087e+07
-3.15319e+07
-2.96258e+07
-2.49892e+07
-2.38724e+07
-3.67216e+07
-2.76415e+07
-3.81512e+07
-5.62203e+07
-5.12161e+07
4.76285e+06
1.0749e+07
1.15007e+07
1.20233e+07
-3.59382e+07
-4.76635e+07
-5.74124e+07
-5.74235e+07
2.12383e+06
-5.41235e+06
-3.63894e+07
-3.29732e+07
-4.7019e+07
-3.77738e+07
-4.74551e+07
-1.28778e+07
-7.62997e+06
-5.50373e+07
-5.72714e+07
-3.73828e+07
-3.39342e+07
-4.61742e+07
-3.76046e+07
-4.50912e+07
-4.78403e+07
-5.06153e+07
-2.06461e+07
-1.85613e+07
-1.43248e+07
-1.76491e+07
-5.43332e+07
-5.14555e+07
-4.70516e+07
-4.46469e+07
-2.12328e+07
-3.50455e+07
-3.21079e+07
-3.83588e+07
-3.4045e+07
-3.93238e+07
-4.19883e+07
-4.39686e+07
-3.30376e+07
-3.10824e+07
-3.74832e+07
-3.39393e+07
-3.67034e+07
-3.81391e+07
-3.93856e+07
-4.14323e+07
-3.98316e+07
-3.78061e+07
-3.60406e+07
-3.11994e+07
-3.40477e+07
-3.39046e+07
-3.00372e+07
-2.71441e+07
-1.22299e+08
-1.38541e+08
-1.74044e+08
-8.29958e+07
-1.38397e+08
-1.39852e+08
-1.66359e+08
-1.33759e+08
-1.45174e+08
-1.78017e+08
-1.11062e+08
-1.08792e+08
-8.4232e+07
-1.20344e+08
-7.89133e+07
-9.2227e+07
-1.05497e+08
-9.00552e+07
-1.29681e+08
-1.26888e+08
-1.44838e+08
-1.38908e+08
-1.4091e+08
-1.25314e+08
-1.27278e+08
-2.92945e+07
-1.70974e+07
-2.85657e+07
-3.41973e+07
-2.83459e+07
-3.55565e+07
-1.86052e+07
-3.16235e+07
-2.87485e+07
-3.93038e+07
-2.22998e+07
-3.24876e+07
-3.83951e+07
-2.06644e+07
-3.66338e+07
-2.82454e+07
-3.47312e+07
-4.36255e+07
-4.35486e+07
-2.72594e+07
-3.68367e+07
-3.50819e+07
-3.47043e+07
-4.15948e+07
-2.43045e+07
-3.45346e+07
-4.20226e+07
-2.56621e+07
-3.72323e+07
-3.22901e+07
-3.68846e+07
-4.26023e+07
-3.77316e+07
-4.21132e+07
-3.2231e+07
-3.71237e+07
-3.67557e+07
-4.11383e+07
-3.21501e+07
-3.66267e+07
-4.16126e+07
-3.2261e+07
-3.57926e+07
-3.17481e+07
-3.563e+07
-3.9188e+07
-3.96225e+07
-3.18928e+07
-3.53185e+07
-3.59841e+07
-3.57468e+07
-4.0605e+07
-3.21111e+07
-3.64642e+07
-4.01509e+07
-3.19669e+07
-3.26204e+07
-3.0471e+07
-3.25689e+07
-3.55312e+07
-3.29643e+07
-3.51905e+07
-3.02952e+07
-3.25518e+07
-3.24777e+07
-3.45334e+07
-3.00272e+07
-3.22158e+07
-3.48611e+07
-3.01894e+07
-3.14513e+07
-2.93876e+07
-3.1685e+07
-3.30299e+07
-3.32491e+07
-2.95667e+07
-3.08935e+07
-3.17979e+07
-3.16796e+07
-3.41728e+07
-2.99104e+07
-3.21407e+07
-3.39554e+07
-2.97687e+07
-2.13793e+08
-1.39353e+08
-2.06731e+08
-1.37458e+08
-1.76617e+08
-2.07373e+08
-2.48867e+08
-1.61864e+08
-5.4073e+07
-5.23613e+07
-1.03694e+08
-7.00738e+07
-2.9586e+07
-4.64727e+07
-1.18864e+08
-7.64225e+07
-6.34552e+07
-8.76709e+07
-9.49068e+07
-8.01589e+07
-9.51362e+07
-1.52048e+08
-1.11304e+08
-5.41408e+07
-5.25386e+07
-5.47276e+07
-8.02062e+07
-1.07674e+08
-6.29767e+07
-1.11002e+08
-1.00196e+08
-6.24465e+07
-4.86709e+07
-8.77393e+07
-1.29049e+08
-1.20178e+08
-5.45521e+07
-6.3292e+07
-4.23556e+07
-5.38176e+07
-6.89858e+07
-4.66079e+07
-4.69912e+07
-4.07294e+07
-4.03984e+07
-2.40307e+07
-3.15815e+07
-3.23397e+07
-3.29751e+07
-3.3311e+07
-6.55037e+07
-4.22134e+07
3.17936e+06
-7.84997e+06
-1.81547e+07
-4.82752e+07
-5.55904e+06
-2.80937e+07
-1.96598e+07
-3.18035e+07
-4.94158e+07
-3.79427e+07
-2.47452e+07
-2.82684e+07
-2.47636e+07
-3.04721e+07
-3.1873e+07
-3.20417e+07
-2.78007e+07
-3.20067e+07
-2.61037e+07
-2.32554e+07
-1.55266e+07
-3.13446e+07
-2.6381e+07
-1.50837e+07
-2.97298e+07
-2.62173e+07
-2.32393e+07
-1.86972e+07
-2.78278e+07
-2.82492e+07
-1.6093e+07
-2.88167e+07
-3.92838e+07
-4.18744e+07
-3.78004e+07
-5.53737e+07
-3.78367e+07
-4.53229e+07
-4.36029e+07
-3.43318e+07
-5.31374e+07
-3.43378e+07
-1.06517e+07
-1.23446e+07
7.07339e+06
-9.12272e+06
-5.96812e+06
-1.43965e+06
9.04804e+06
-4.31435e+06
-1.61234e+07
-1.39439e+07
-9.58257e+06
-9.75649e+06
-3.58965e+06
1.26651e+07
-655612
-1.5402e+07
-1.07499e+07
-472636
1.27923e+07
519521
-3.71611e+07
-3.39128e+07
-2.57364e+07
-4.00025e+07
-2.5802e+07
-3.00342e+07
-3.23991e+07
-2.9949e+07
-4.45118e+07
-2.99645e+07
-4.82656e+07
-4.80396e+07
-4.01135e+07
-5.74846e+07
-4.00837e+07
-4.65373e+07
-4.73848e+07
-4.12862e+07
-5.78774e+07
-4.13347e+07
-2.2755e+07
-2.11737e+07
-493769
-1.08809e+07
-1.37036e+07
-1.74998e+07
-3.09655e+06
-1.52261e+07
-1.77785e+07
-1.97727e+07
-3.78023e+07
-2.94016e+07
-3.73744e+07
-4.44753e+07
-3.78857e+07
-3.00351e+07
-4.42828e+07
-3.84493e+07
-3.7289e+07
-3.11953e+07
-4.42717e+07
-3.08257e+07
-4.46138e+07
-3.81705e+07
-2.3862e+07
-2.50073e+07
-1.13465e+07
-2.26957e+07
-2.14151e+07
-1.87309e+07
-9.53766e+06
-2.04626e+07
-2.66364e+07
-2.58452e+07
-4.84882e+07
-4.8246e+07
-4.14445e+07
-5.59902e+07
-4.14979e+07
-4.7644e+07
-4.81544e+07
-4.17121e+07
-5.64908e+07
-4.16649e+07
-3.82239e+07
-3.75433e+07
-3.21643e+07
-4.30304e+07
-3.77526e+07
-3.21296e+07
-4.35064e+07
-3.80989e+07
-3.76692e+07
-3.16825e+07
-4.42277e+07
-3.85061e+07
-3.18473e+07
-4.37861e+07
-4.5005e+07
-4.42268e+07
-3.80815e+07
-4.87847e+07
-3.81238e+07
-4.2965e+07
-4.37235e+07
-3.9113e+07
-4.96094e+07
-3.90676e+07
-2.88263e+07
-2.89846e+07
-2.00444e+07
-2.69583e+07
-2.66543e+07
-2.59156e+07
-1.93195e+07
-2.63629e+07
-2.92723e+07
-2.92091e+07
-2.85097e+07
-2.82016e+07
-2.34147e+07
-1.55385e+07
-2.4332e+07
-2.72505e+07
-2.77554e+07
-2.55197e+07
-1.6689e+07
-2.48687e+07
-4.54884e+07
-4.6241e+07
-4.08953e+07
-5.32999e+07
-4.08447e+07
-4.73452e+07
-4.66605e+07
-4.00115e+07
-5.24952e+07
-4.00614e+07
-4.05873e+07
-4.12643e+07
-3.71479e+07
-4.61785e+07
-3.71098e+07
-4.24653e+07
-4.17404e+07
-3.61809e+07
-4.54437e+07
-3.6215e+07
-2.94752e+07
-2.95321e+07
-2.17059e+07
-2.71711e+07
-2.73607e+07
-2.76918e+07
-2.22448e+07
-2.75253e+07
-2.94281e+07
-2.94231e+07
-3.46975e+07
-3.16438e+07
-3.45859e+07
-3.86775e+07
-3.51193e+07
-3.14715e+07
-3.82836e+07
-3.45136e+07
-3.44833e+07
-3.11762e+07
-3.74332e+07
-3.13533e+07
-3.78025e+07
-3.41174e+07
-2.95332e+07
-2.94518e+07
-2.79592e+07
-2.79465e+07
-2.77839e+07
-2.7847e+07
-2.94014e+07
-2.95019e+07
-4.01392e+07
-3.9511e+07
-3.44977e+07
-4.26352e+07
-3.45248e+07
-3.85173e+07
-3.90978e+07
-3.53407e+07
-4.32497e+07
-3.53096e+07
-3.34303e+07
-3.34282e+07
-3.05827e+07
-3.58919e+07
-3.30717e+07
-3.07584e+07
-3.6235e+07
-3.35742e+07
-3.35218e+07
-3.105e+07
-3.69889e+07
-3.39485e+07
-3.08746e+07
-3.66373e+07
-3.64503e+07
-3.59652e+07
-3.18922e+07
-3.85343e+07
-3.19114e+07
-3.52389e+07
-3.57e+07
-3.24752e+07
-3.89236e+07
-3.24556e+07
-2.92355e+07
-2.90613e+07
-2.79425e+07
-2.80123e+07
-2.80404e+07
-2.79688e+07
-2.89119e+07
-2.91047e+07
-2.91977e+07
-2.93432e+07
-2.79991e+07
-2.7992e+07
-2.94369e+07
-2.93104e+07
-2.79949e+07
-2.80333e+07
-3.6753e+07
-3.72603e+07
-3.3776e+07
-4.08515e+07
-3.37524e+07
-3.81395e+07
-3.75998e+07
-3.30725e+07
-4.03521e+07
-3.30934e+07
-3.35844e+07
-3.42621e+07
-3.1356e+07
-3.7491e+07
-3.13652e+07
-3.50007e+07
-3.45995e+07
-3.0761e+07
-3.69751e+07
-3.04487e+07
-2.86112e+07
-2.8741e+07
-2.79602e+07
-2.78883e+07
-2.78462e+07
-2.78467e+07
-2.89447e+07
-2.87626e+07
-2.98636e+07
-2.91513e+07
-3.03674e+07
-3.19372e+07
-3.0193e+07
-2.91878e+07
-3.13508e+07
-3.07147e+07
-2.82923e+07
-3.08882e+07
-3.02633e+07
-3.23593e+07
-2.80349e+07
-3.14321e+07
-2.9472e+07
-2.87363e+07
-3.23203e+07
-2.85113e+07
-2.82372e+07
-2.76716e+07
-2.77853e+07
-2.78167e+07
-2.8154e+07
-3.33057e+07
-3.17576e+07
-3.11814e+07
-3.26219e+07
-3.20984e+07
-3.19047e+07
-3.0159e+07
-3.13652e+07
-1.04426e+08
-1.00012e+08
-1.15123e+08
-7.09223e+07
-1.60863e+08
-1.65241e+08
-1.52486e+08
-1.389e+08
-1.64556e+08
-1.53125e+08
-1.37048e+08
-8.97745e+07
-7.48753e+07
-9.15732e+07
-7.34153e+07
-7.68598e+07
-7.78345e+07
-8.08821e+07
-1.53648e+08
-1.57339e+08
-1.44874e+08
-1.38458e+08
-1.59958e+08
-1.39429e+08
-1.34979e+08
-2.63195e+07
-1.97827e+07
-2.6656e+07
-2.4554e+07
-2.55585e+07
-2.50745e+07
-2.00574e+07
-2.20906e+07
-1.53878e+07
-2.31785e+07
-1.339e+07
-1.98164e+07
-9.31259e+06
-1.88142e+07
-1.11402e+07
-3.1059e+07
-3.0734e+07
-3.06873e+07
-2.53791e+07
-3.16785e+07
-3.04167e+07
-2.51968e+07
-3.62535e+07
-3.09398e+07
-3.5848e+07
-3.60099e+07
-3.59481e+07
-3.0871e+07
-3.65086e+07
-2.63029e+07
-1.7617e+07
-2.54176e+07
-1.93616e+07
-2.81567e+07
-2.25621e+07
-2.12089e+07
-2.87536e+07
-3.34364e+07
-3.33024e+07
-3.24829e+07
-2.71241e+07
-3.28814e+07
-3.27858e+07
-2.72627e+07
-3.7497e+07
-3.39735e+07
-3.70955e+07
-3.76515e+07
-3.75803e+07
-3.76044e+07
-3.39401e+07
-3.67848e+07
-3.65074e+07
-3.67687e+07
-3.35876e+07
-3.66459e+07
-3.68976e+07
-3.36383e+07
-3.55599e+07
-3.29031e+07
-3.53429e+07
-3.55887e+07
-3.57143e+07
-3.29584e+07
-3.54146e+07
-3.6363e+07
-3.60204e+07
-3.65893e+07
-3.34916e+07
-3.64675e+07
-3.65328e+07
-3.34552e+07
-3.29707e+07
-3.12744e+07
-3.27786e+07
-3.32074e+07
-3.30475e+07
-3.31584e+07
-3.12446e+07
-3.23938e+07
-3.22446e+07
-3.23532e+07
-3.06694e+07
-3.22333e+07
-3.25047e+07
-3.07483e+07
-3.14775e+07
-2.98541e+07
-3.13874e+07
-3.12933e+07
-3.13743e+07
-2.99156e+07
-3.12776e+07
-3.20488e+07
-3.18944e+07
-3.21849e+07
-3.05392e+07
-3.21255e+07
-3.21291e+07
-3.04987e+07
-1.63907e+08
-1.62534e+08
-1.68838e+08
-6.11629e+07
-1.64967e+08
-1.51265e+08
-5.25204e+07
-6.69749e+07
-1.53271e+08
-1.33754e+08
-7.68936e+07
-9.12282e+07
-1.61549e+08
-1.53359e+08
-6.08545e+07
-5.78082e+07
-5.91448e+07
-5.5395e+07
-6.74762e+07
-5.61015e+07
-5.34933e+07
-2.93579e+07
-3.01418e+07
-2.33474e+07
-2.50431e+07
-2.37828e+07
-2.54859e+07
-2.73588e+07
-7.31248e+07
-5.732e+07
-2.1792e+07
-2.53539e+07
-5.09698e+07
-3.95256e+07
-1.90453e+07
-2.08425e+07
-2.36259e+07
-2.37042e+07
-1.82721e+07
-2.27075e+07
-2.42317e+07
-1.80599e+07
-2.23604e+07
-1.86283e+07
-1.13828e+07
-2.11396e+07
-8.4675e+06
-2.41959e+07
-2.4891e+07
-1.9494e+07
-2.16655e+07
-2.50372e+07
-1.95942e+07
-2.18396e+07
-1.72838e+07
-7.73647e+06
-1.73646e+07
-7.24281e+06
-2.68273e+07
-2.85965e+07
-3.58413e+07
-3.44733e+07
-1.81429e+07
-1.92674e+07
-2.50273e+07
-2.3551e+07
-1.75281e+07
-1.63841e+07
-2.19019e+07
-1.87108e+07
-2.57318e+07
-2.39288e+07
-2.04011e+07
-1.96828e+07
-4.08002e+07
-4.0336e+07
-3.6315e+07
-3.75006e+07
-3.06536e+07
-2.98149e+07
-2.53625e+07
-2.66376e+07
-3.72285e+07
-3.18804e+07
-3.68587e+07
-3.68781e+07
-3.70329e+07
-3.19113e+07
-3.69743e+07
-3.14564e+07
-2.66749e+07
-2.60001e+07
-3.15797e+07
-3.04768e+07
-2.39838e+07
-3.0146e+07
-2.4963e+07
-3.7999e+07
-3.7609e+07
-3.33982e+07
-3.78448e+07
-3.34015e+07
-3.79097e+07
-3.80093e+07
-3.07383e+07
-3.14091e+07
-3.31446e+07
-3.28063e+07
-4.09067e+07
-4.12993e+07
-4.17636e+07
-4.18357e+07
-3.77924e+07
-3.74545e+07
-3.39395e+07
-3.77159e+07
-3.76909e+07
-3.39771e+07
-3.78326e+07
-3.21982e+07
-2.74005e+07
-3.2226e+07
-2.78381e+07
-3.80945e+07
-3.76647e+07
-3.37395e+07
-3.80832e+07
-3.80975e+07
-3.37229e+07
-3.80759e+07
-4.07366e+07
-4.05166e+07
-3.92441e+07
-3.95945e+07
-3.36848e+07
-3.37095e+07
-3.35121e+07
-3.3555e+07
-3.37627e+07
-3.36885e+07
-3.3111e+07
-3.33519e+07
-4.08292e+07
-4.1123e+07
-4.17199e+07
-4.16739e+07
-3.75817e+07
-3.79188e+07
-3.91433e+07
-3.88822e+07
-3.29267e+07
-3.30122e+07
-3.34238e+07
-3.3356e+07
-3.51295e+07
-3.2766e+07
-3.4856e+07
-3.5384e+07
-3.52291e+07
-3.27317e+07
-3.53309e+07
-3.43805e+07
-3.42076e+07
-3.21434e+07
-3.44324e+07
-3.21976e+07
-3.45518e+07
-3.42432e+07
-3.28423e+07
-3.27411e+07
-3.22636e+07
-3.23579e+07
-3.74884e+07
-3.72406e+07
-3.60594e+07
-3.63597e+07
-3.33228e+07
-3.31786e+07
-3.13986e+07
-3.33634e+07
-3.31815e+07
-3.14586e+07
-3.34894e+07
-3.39908e+07
-3.37626e+07
-3.20027e+07
-3.42421e+07
-3.40772e+07
-3.19734e+07
-3.41948e+07
-3.46499e+07
-3.44479e+07
-3.35192e+07
-3.37694e+07
-3.15462e+07
-3.14381e+07
-3.10031e+07
-3.1096e+07
-3.16129e+07
-3.17066e+07
-3.2189e+07
-3.20801e+07
-3.47221e+07
-3.49868e+07
-3.59775e+07
-3.57565e+07
-3.23122e+07
-3.26391e+07
-3.34751e+07
-3.32709e+07
-3.04585e+07
-3.06062e+07
-3.09664e+07
-3.08511e+07
-3.08401e+07
-2.96025e+07
-3.09251e+07
-3.08376e+07
-3.09709e+07
-2.9656e+07
-3.0862e+07
-3.00665e+07
-3.14445e+07
-2.99484e+07
-2.97787e+07
-2.87931e+07
-2.82793e+07
-2.8949e+07
-2.83333e+07
-3.1293e+07
-3.33951e+07
-3.26741e+07
-3.19324e+07
-3.10847e+07
-3.26825e+07
-3.09334e+07
-3.04418e+07
-3.02276e+07
-3.23097e+07
-3.19301e+07
-2.94095e+07
-3.06598e+07
-2.99487e+07
-2.5714e+07
-2.72716e+07
-2.84438e+07
-2.89009e+07
-2.90148e+07
-2.65518e+07
-2.85043e+07
-1.25989e+08
-1.20237e+08
-1.3446e+08
-9.87209e+07
-1.31161e+08
-1.3161e+08
-9.54632e+07
-1.52694e+08
-1.55057e+08
-1.47964e+08
-1.20612e+08
-1.45789e+08
-1.49379e+08
-1.23947e+08
-1.02966e+08
-9.98903e+07
-9.58142e+07
-9.84087e+07
-1.12401e+08
-9.19594e+07
-9.47557e+07
-1.40771e+08
-1.46056e+08
-1.18219e+08
-1.17894e+08
-1.30115e+08
-1.24763e+08
-1.22987e+08
-2.73124e+07
-2.71167e+07
-2.66839e+07
-2.16313e+07
-2.79498e+07
-2.64096e+07
-2.14766e+07
-3.00844e+07
-3.01172e+07
-2.87433e+07
-2.35185e+07
-2.93416e+07
-2.91768e+07
-2.37185e+07
-3.58098e+07
-3.55417e+07
-3.5159e+07
-2.99212e+07
-3.54231e+07
-3.53717e+07
-3.00214e+07
-3.41279e+07
-3.37119e+07
-3.38414e+07
-2.85771e+07
-3.45532e+07
-3.36845e+07
-2.84501e+07
-3.73287e+07
-3.70134e+07
-3.72933e+07
-3.38276e+07
-3.72053e+07
-3.74146e+07
-3.3868e+07
-3.69678e+07
-3.65993e+07
-3.71562e+07
-3.37814e+07
-3.70589e+07
-3.71097e+07
-3.37532e+07
-3.57464e+07
-3.54426e+07
-3.59868e+07
-3.31368e+07
-3.58488e+07
-3.59352e+07
-3.31066e+07
-3.61719e+07
-3.59193e+07
-3.61848e+07
-3.32629e+07
-3.60298e+07
-3.63103e+07
-3.33128e+07
-3.28393e+07
-3.26989e+07
-3.2855e+07
-3.10347e+07
-3.269e+07
-3.29913e+07
-3.11018e+07
-3.25013e+07
-3.23243e+07
-3.27111e+07
-3.09169e+07
-3.25755e+07
-3.26583e+07
-3.08831e+07
-3.15427e+07
-3.15045e+07
-3.15257e+07
-3.00809e+07
-3.16568e+07
-3.14939e+07
-3.00551e+07
-3.19897e+07
-3.18063e+07
-3.18633e+07
-3.02986e+07
-3.18324e+07
-3.20018e+07
-3.03741e+07
-1.70899e+08
-1.71706e+08
-2.27158e+08
-2.06275e+08
-1.62998e+08
-2.16234e+08
-2.30855e+08
-2.08866e+08
-1.65354e+08
-2.12849e+08
-1.63409e+08
-2.23696e+08
-2.11778e+08
-1.74512e+08
-2.16571e+08
-1.96737e+08
-2.06928e+08
-1.30208e+08
-6.87733e+07
-1.08472e+08
-9.20395e+07
-1.57271e+08
-1.47328e+08
-1.70276e+08
-1.2397e+08
-1.65458e+08
-1.41214e+08
-1.90358e+08
-1.1254e+08
-1.66441e+08
-1.71947e+08
-2.04274e+08
-1.47694e+08
-1.83072e+08
-1.60624e+08
-1.49592e+08
-1.74514e+08
-1.85883e+08
-2.14016e+08
-1.96172e+08
-1.63166e+08
-1.90663e+08
-1.58791e+08
-2.18637e+08
-1.88905e+08
-2.59504e+08
-2.33179e+08
-2.53747e+08
-2.2771e+08
-2.74471e+08
-2.48343e+08
-1.65234e+08
-2.19257e+08
-1.97678e+08
-3.04709e+07
-3.04333e+07
-2.18139e+07
-1.00765e+08
-7.74758e+07
-4.8374e+07
-4.86117e+07
-6.66905e+07
-5.57396e+07
-3.39702e+07
-7.31001e+07
-7.7863e+07
-6.76886e+07
-5.58259e+07
-7.77181e+06
-2.53887e+07
-4.34633e+07
-1.1142e+08
-1.39948e+08
-1.32853e+08
-1.09933e+08
-1.24522e+08
-1.27147e+08
-1.05648e+08
-6.2091e+07
-9.30809e+07
-8.80509e+07
-1.06488e+08
-8.87995e+07
-9.23133e+07
-7.4125e+07
-7.64505e+07
-5.78301e+07
-6.89062e+07
-5.09942e+07
-5.75909e+07
-5.81419e+07
-6.23379e+07
-8.53613e+07
-7.67957e+07
-7.17479e+07
-7.88046e+07
-7.07244e+07
-1.03506e+08
-6.76606e+07
-6.60078e+07
-6.87966e+07
-8.5828e+07
-4.81625e+07
-6.63862e+07
-5.38368e+07
-8.00192e+07
-3.82691e+07
-7.72803e+07
-1.27971e+08
-1.02597e+08
-1.07501e+08
-4.0377e+07
-2.05597e+07
-3.39626e+07
-2.95041e+07
-9.80543e+07
-1.20585e+08
-1.48059e+08
-1.25552e+08
-1.36145e+08
-1.38794e+08
-1.20136e+08
-1.70836e+08
-1.24027e+08
-1.30891e+08
-9.31789e+07
-1.00185e+08
-1.21152e+08
-1.02645e+08
-1.08582e+08
-1.07188e+08
-2.77158e+07
-5.97657e+07
-4.82496e+07
-3.53134e+07
-9.518e+06
-8.50913e+06
-1.13486e+07
-9.70337e+06
-2.42552e+07
-3.17064e+07
-3.8822e+07
-2.08041e+07
-1.94072e+07
-1.56887e+07
-2.03988e+07
-1.14412e+07
-7.75412e+07
-8.62869e+07
-6.40483e+07
-8.38572e+07
-7.5435e+07
-1.19543e+08
-9.99677e+07
-9.94293e+07
-1.00993e+08
-1.06999e+08
-9.82993e+07
-8.60385e+07
-7.28867e+07
-7.69186e+07
-6.6078e+07
-5.73398e+07
-2.78473e+07
-1.9572e+07
-3.75191e+07
-4.79006e+07
-1.2752e+08
-1.43762e+08
-1.39958e+08
-1.2901e+08
-1.25201e+08
-1.3458e+08
-1.26055e+08
-1.09638e+08
-1.20231e+08
-1.25438e+08
-1.28997e+08
-1.18408e+08
-5.15344e+07
-5.23736e+07
-4.10085e+07
-4.07829e+07
-4.50058e+07
-4.34884e+07
-4.3475e+07
-3.32147e+07
-3.24969e+07
-3.05127e+07
-3.04406e+07
-3.66894e+07
-2.96318e+07
-2.96086e+07
-6.33479e+07
-5.66737e+07
-6.02867e+07
-5.7897e+07
-4.43817e+07
-3.98159e+07
-5.02536e+07
-2.69779e+07
-4.71124e+07
-4.05975e+07
-4.53553e+07
-3.59174e+07
1.42162e+07
1.55071e+07
1.19955e+07
9.15066e+06
-5.25633e+06
-1.20986e+07
995214
5.63086e+06
-3.6665e+07
-2.81854e+07
-2.00096e+07
-2.16762e+07
-7.9058e+06
-2.15148e+07
-1.12287e+07
-2.19972e+07
-3.08382e+07
-2.87516e+07
-2.7905e+07
-1.53048e+07
-2.70696e+07
-3.4953e+07
-5.01421e+07
-3.88617e+07
-4.29414e+07
-4.49176e+07
-6.11108e+07
-3.91775e+07
-3.82434e+07
-4.47024e+07
-3.10954e+07
-3.28511e+07
-3.96799e+07
-3.27294e+07
-3.75948e+07
-3.42705e+07
-2.37696e+07
-2.2293e+07
-2.26213e+07
-2.03611e+07
-2.27842e+07
-2.25921e+07
-2.63127e+07
-1.98302e+07
-2.58722e+07
-2.53095e+07
-2.36234e+07
-2.92329e+07
-2.01448e+07
-1.49174e+07
-1.63402e+07
-1.75058e+07
-2.65514e+07
-2.15949e+07
-3.1309e+07
-2.36026e+07
-2.88589e+07
-2.71557e+07
-2.2884e+07
-2.73523e+07
-2.97903e+07
-3.28202e+07
-2.87749e+07
-2.38247e+07
-3.00787e+07
-2.42292e+07
-3.71409e+07
-2.74441e+07
-1.78559e+07
-2.15474e+07
-2.28857e+07
-1.97609e+07
-1.18192e+07
-8.60005e+06
-8.61755e+06
-9.46311e+06
-1.71788e+07
-2.96601e+07
-1.65221e+07
-2.55194e+07
-1.06011e+07
-1.28999e+07
-1.43322e+07
-1.08639e+07
-2.29544e+07
-2.33238e+07
-1.72666e+07
-2.10293e+07
-2.26527e+07
-1.739e+07
-2.14238e+07
-2.32343e+07
-2.38213e+07
-1.76093e+07
-2.08727e+07
-2.27162e+07
-1.79081e+07
-2.10813e+07
-3.12636e+07
-2.96107e+07
-3.75232e+07
-3.00934e+07
-3.79429e+07
-3.79459e+07
-3.01433e+07
-3.89087e+07
-3.58252e+07
-3.82313e+07
-4.08629e+07
-3.22354e+07
-3.90632e+07
-3.18938e+07
-3.95271e+07
-4.02374e+07
-5.60307e+07
-4.69036e+07
-4.80064e+07
-5.554e+07
-5.55335e+07
-4.49891e+07
-5.59862e+07
-4.46842e+07
-5.6705e+07
-4.95795e+07
-4.88186e+07
-5.69015e+07
-5.48356e+07
-4.35702e+07
-5.42097e+07
-4.40533e+07
-3.19617e+07
-3.35645e+07
-4.18957e+07
-3.61633e+07
-4.27934e+07
-4.42412e+07
-3.5841e+07
-4.38567e+07
-4.28727e+07
-4.12724e+07
-4.22575e+07
-3.45953e+07
-4.19258e+07
-3.45154e+07
-3.98661e+07
-4.29068e+07
-5.31982e+07
-4.63544e+07
-4.50701e+07
-5.402e+07
-5.08067e+07
-3.98824e+07
-4.95721e+07
-4.09488e+07
-5.20953e+07
-4.19972e+07
-4.37331e+07
-5.07543e+07
-5.23413e+07
-4.27734e+07
-5.3247e+07
-4.20027e+07
-1.32592e+07
-1.08659e+07
-3.17153e+06
-1.34302e+07
-4.56505e+06
-2.11509e+07
-1.9713e+07
-6.73947e+06
-1.20844e+07
-1.49948e+07
-1.48234e+07
-5.11997e+06
6.30142e+06
5.00308e+06
894325
-3.90276e+06
-8.31447e+06
-3.72071e+06
-2.73882e+06
-2.14053e+06
-194660
2.21704e+06
622108
-98679.4
-6.74455e+06
-1.23223e+06
3.1554e+06
-824229
7.386e+06
8.65927e+06
5.95697e+06
4.79596e+06
-2.23705e+06
4.96147e+06
3.67923e+06
3.92212e+06
6.65132e+06
1.17878e+07
1.29626e+07
4.9674e+06
1.68051e+06
-3.49123e+06
1.39071e+06
2.61295e+06
2.9315e+06
4.17214e+06
1.07638e+07
9.54933e+06
-2.15289e+07
-2.29691e+07
-1.88785e+07
-1.57432e+07
-1.15142e+07
-1.85984e+07
-9.80609e+06
-7.36344e+06
-1.67828e+07
-1.42381e+07
-1.69905e+07
-9.04161e+06
-1.63919e+07
-1.62048e+07
-1.19279e+07
-9.52429e+06
-2.58668e+06
-1.18294e+07
-1.42437e+06
-1.27538e+06
-1.17253e+07
-9.41928e+06
-1.14008e+07
-1.49224e+06
1.65212e+07
1.60664e+07
6.28544e+06
2.47143e+06
4.30732e+06
-3.36814e+06
5.15375e+06
2.6678e+06
5.53916e+06
7.45101e+06
6.93526e+06
-882880
5.13767e+06
5.05596e+06
6.47138e+06
7.99168e+06
1.67948e+07
1.66674e+07
-1.6512e+07
-1.74861e+07
-1.62676e+07
-6.50379e+06
-1.43359e+07
-1.5403e+07
-4.26983e+06
-1.7812e+06
-1.23335e+07
-1.16908e+07
-1.31751e+07
-2.52662e+06
7.79169e+06
5.36524e+06
179318
5.67299e+06
6.20532e+06
7.35125e+06
6.41811e+06
1.48552e+07
1.38598e+07
8.1511e+06
7.04313e+06
144326
6.40533e+06
5.88067e+06
6.80095e+06
8.23061e+06
1.55798e+07
1.62676e+07
-2.15507e+07
-2.27199e+07
-3.36108e+07
-2.75651e+07
-3.41208e+07
-3.60359e+07
-2.70961e+07
-3.51369e+07
-3.51291e+07
-3.28309e+07
-3.25327e+07
-2.50585e+07
-3.29228e+07
-2.52487e+07
-3.15619e+07
-3.3506e+07
-3.74491e+07
-3.34991e+07
-3.13336e+07
-4.01129e+07
-3.29257e+07
-2.49629e+07
-2.97817e+07
-2.75409e+07
-3.53095e+07
-2.71783e+07
-3.18127e+07
-2.93501e+07
-3.61801e+07
-3.1898e+07
-3.86913e+07
-2.96966e+07
-2.05606e+07
-2.00279e+07
-3.05376e+07
-2.16794e+07
-2.82494e+07
-2.92196e+07
-3.07955e+07
-2.21019e+07
-2.87955e+07
-3.04177e+07
-3.06755e+07
-2.36531e+07
-2.97664e+07
-2.32546e+07
-3.10231e+07
-3.01137e+07
-4.51818e+07
-3.49529e+07
-3.71266e+07
-4.2836e+07
-4.60705e+07
-3.85817e+07
-4.76902e+07
-3.71384e+07
-4.68094e+07
-4.09121e+07
-4.85613e+07
-3.89879e+07
-4.35492e+07
-3.3766e+07
-4.1502e+07
-3.55502e+07
-3.91954e+07
-3.99651e+07
-4.57181e+07
-4.05834e+07
-4.64071e+07
-4.69963e+07
-4.03634e+07
-4.71175e+07
-4.58947e+07
-4.5595e+07
-4.67167e+07
-4.0061e+07
-4.61236e+07
-3.98487e+07
-4.49917e+07
-4.68284e+07
-5.82046e+07
-5.11235e+07
-5.08081e+07
-5.79581e+07
-5.65988e+07
-4.54292e+07
-5.63462e+07
-4.55339e+07
-5.78183e+07
-4.98146e+07
-5.78591e+07
-5.04366e+07
-5.67097e+07
-4.58626e+07
-5.68604e+07
-4.5872e+07
-3.89149e+07
-3.80687e+07
-4.41134e+07
-3.79593e+07
-4.46874e+07
-4.51889e+07
-3.77868e+07
-4.30967e+07
-4.5553e+07
-4.44246e+07
-4.61985e+07
-3.89351e+07
-4.52253e+07
-3.86732e+07
-4.49245e+07
-4.61215e+07
-5.8094e+07
-5.11031e+07
-5.13407e+07
-5.84898e+07
-5.65464e+07
-4.58391e+07
-5.65039e+07
-4.60485e+07
-5.82819e+07
-5.14201e+07
-5.14011e+07
-5.77604e+07
-5.68166e+07
-4.60493e+07
-5.68087e+07
-4.59024e+07
-2.53242e+07
-2.25216e+07
-1.95278e+07
-2.51783e+07
-1.8362e+07
-2.84737e+07
-2.94686e+07
-1.64885e+07
-2.14092e+07
-2.39178e+07
-2.40775e+07
-1.77831e+07
2.75156e+06
4.07604e+06
-2.68597e+06
-5.56246e+06
-1.15801e+07
-4.96261e+06
-6.58529e+06
-1.55961e+06
-6.46469e+06
-4.14103e+06
-9.11997e+06
-8.99862e+06
-1.30379e+07
-8.01905e+06
-5.26398e+06
-7.70268e+06
1.62481e+06
244659
-8.88074e+06
-1.32798e+07
-1.69805e+07
-1.3621e+07
-1.24865e+07
-1.24575e+07
-9.84412e+06
-3.30398e+06
-4.67952e+06
-7.60894e+06
-1.01677e+07
-1.57768e+07
-1.04558e+07
-1.12926e+07
-1.14381e+07
-6.58743e+06
-2.17204e+06
-776962
-2.82443e+07
-2.70955e+07
-2.06336e+07
-1.80955e+07
-1.22225e+07
-2.08528e+07
-1.3789e+07
-1.59445e+07
-2.24643e+07
-1.94628e+07
-2.22502e+07
-1.44992e+07
-3.74332e+07
-3.70037e+07
-3.24809e+07
-3.72554e+07
-3.75511e+07
-3.24419e+07
-3.72605e+07
-3.79444e+07
-3.75423e+07
-3.30813e+07
-3.77629e+07
-3.78454e+07
-3.31046e+07
-3.78182e+07
-2.64276e+07
-1.99544e+07
-2.40192e+07
-2.65116e+07
-2.09558e+07
-3.21774e+07
-3.16241e+07
-2.22765e+07
-2.48603e+07
-2.73936e+07
-2.73082e+07
-2.13936e+07
-1.17263e+07
-1.26924e+07
-1.59819e+07
-1.93399e+07
-2.24235e+07
-1.99129e+07
-1.88621e+07
-1.92172e+07
-1.65913e+07
-1.09505e+07
-9.88968e+06
-1.51683e+07
-1.78239e+07
-1.76251e+07
-2.17173e+07
-1.81424e+07
-1.44984e+07
-1.86064e+07
-1.18034e+07
-1.44697e+07
-1.44633e+07
-1.91461e+07
-1.09599e+07
-1.51351e+07
-1.54752e+07
-6.92924e+06
-5.65718e+06
-7.89596e+06
-9.07901e+06
-1.28345e+07
-1.71795e+07
-2.00806e+07
-1.66948e+07
-1.6075e+07
-1.62731e+07
-1.36081e+07
-3.22356e+07
-3.2678e+07
-2.8836e+07
-2.65558e+07
-2.43092e+07
-2.8808e+07
-2.36485e+07
-2.25763e+07
-2.8205e+07
-2.59363e+07
-2.82492e+07
-2.3331e+07
-4.15939e+07
-4.1461e+07
-4.61502e+07
-4.11553e+07
-4.72134e+07
-4.65827e+07
-4.5863e+07
-4.08993e+07
-4.7142e+07
-4.60752e+07
-4.69395e+07
-4.13226e+07
-4.66583e+07
-4.11335e+07
-4.59718e+07
-4.72171e+07
-5.60693e+07
-5.06335e+07
-5.04424e+07
-5.67827e+07
-5.40734e+07
-4.42594e+07
-5.38412e+07
-4.46649e+07
-5.60421e+07
-4.98447e+07
-5.01575e+07
-5.52838e+07
-5.47181e+07
-4.51449e+07
-5.49543e+07
-4.47464e+07
-4.1638e+07
-4.17837e+07
-4.57799e+07
-4.1412e+07
-4.62661e+07
-4.63345e+07
-4.12529e+07
-4.66953e+07
-4.55203e+07
-4.59526e+07
-4.69393e+07
-4.14633e+07
-4.63176e+07
-4.12086e+07
-4.58966e+07
-4.67528e+07
-5.74419e+07
-5.08873e+07
-5.10774e+07
-5.6759e+07
-5.60598e+07
-4.58574e+07
-5.62086e+07
-4.55497e+07
-5.73831e+07
-5.12537e+07
-5.79905e+07
-5.12344e+07
-5.55495e+07
-4.52277e+07
-5.53882e+07
-4.55594e+07
-3.79173e+07
-3.75038e+07
-3.39849e+07
-3.79878e+07
-3.7958e+07
-3.39707e+07
-3.79683e+07
-3.80305e+07
-3.76499e+07
-3.38259e+07
-3.79308e+07
-3.79762e+07
-3.38414e+07
-3.80219e+07
-4.00575e+07
-4.03964e+07
-4.3295e+07
-3.99972e+07
-4.34796e+07
-4.39825e+07
-3.97452e+07
-4.36799e+07
-4.35335e+07
-4.29979e+07
-4.3042e+07
-3.96634e+07
-4.32685e+07
-3.95429e+07
-4.25545e+07
-4.34611e+07
-4.89607e+07
-4.52556e+07
-4.4888e+07
-4.96414e+07
-4.69394e+07
-3.93654e+07
-4.6674e+07
-3.97642e+07
-4.88275e+07
-4.40975e+07
-4.45021e+07
-4.81503e+07
-4.76011e+07
-4.037e+07
-4.79015e+07
-3.99389e+07
-3.9972e+07
-3.97247e+07
-4.18798e+07
-3.8823e+07
-4.20947e+07
-4.18371e+07
-3.87131e+07
-4.22385e+07
-4.14437e+07
-4.21701e+07
-4.27579e+07
-3.91697e+07
-4.23108e+07
-3.89337e+07
-4.24311e+07
-4.24627e+07
-5.06258e+07
-4.55501e+07
-4.59681e+07
-4.98997e+07
-4.93866e+07
-4.16304e+07
-4.96966e+07
-4.11794e+07
-5.07537e+07
-4.67344e+07
-4.63661e+07
-5.14831e+07
-4.86865e+07
-4.05795e+07
-4.84081e+07
-4.10051e+07
-3.05765e+07
-2.88034e+07
-2.68813e+07
-3.05278e+07
-2.71625e+07
-3.36887e+07
-3.36866e+07
-2.75064e+07
-2.90133e+07
-3.062e+07
-3.06669e+07
-2.72595e+07
-2.07245e+07
-2.11174e+07
-2.0429e+07
-1.99918e+07
-1.88114e+07
-1.82652e+07
-1.91874e+07
-1.96805e+07
-3.36207e+07
-3.35948e+07
-3.07474e+07
-2.93154e+07
-2.79893e+07
-3.08064e+07
-2.78135e+07
-2.75526e+07
-3.07834e+07
-2.91735e+07
-3.07311e+07
-2.77528e+07
-3.35546e+07
-3.36774e+07
-3.0324e+07
-2.85147e+07
-2.67984e+07
-3.03578e+07
-2.645e+07
-2.58999e+07
-3.01441e+07
-2.82052e+07
-3.01204e+07
-2.62993e+07
-1.41914e+07
-1.3336e+07
-1.78111e+07
-2.00526e+07
-2.04e+07
-2.36258e+07
-1.72893e+07
-2.04489e+07
-2.09916e+07
-1.84426e+07
-2.19746e+07
-2.4145e+07
-2.13516e+07
-2.09888e+07
-2.14504e+07
-1.89149e+07
-1.48026e+07
-1.55775e+07
-3.3587e+07
-3.34059e+07
-2.93983e+07
-2.45161e+07
-2.72869e+07
-2.93909e+07
-2.50647e+07
-2.5765e+07
-2.97549e+07
-2.77258e+07
-2.97594e+07
-2.52854e+07
-1.72505e+07
-1.78691e+07
-1.67706e+07
-1.60844e+07
-4.13579e+07
-4.12092e+07
-4.40873e+07
-4.04367e+07
-4.44196e+07
-4.42492e+07
-4.03098e+07
-4.36693e+07
-4.46722e+07
-4.43677e+07
-4.51566e+07
-4.07218e+07
-4.46052e+07
-4.04683e+07
-4.45568e+07
-4.48659e+07
-5.43303e+07
-4.85075e+07
-4.88923e+07
-5.35503e+07
-5.30416e+07
-4.41019e+07
-5.33313e+07
-4.36533e+07
-5.44114e+07
-4.95465e+07
-5.51718e+07
-4.9253e+07
-5.23352e+07
-4.30869e+07
-5.20688e+07
-4.35202e+07
-4.14122e+07
-4.16309e+07
-4.53042e+07
-4.12653e+07
-4.61959e+07
-4.5598e+07
-4.54001e+07
-4.0998e+07
-4.59364e+07
-4.50508e+07
-4.53788e+07
-4.10583e+07
-4.54566e+07
-4.09137e+07
-4.46776e+07
-4.57888e+07
-5.26008e+07
-4.81962e+07
-4.78485e+07
-5.33564e+07
-5.05089e+07
-4.18386e+07
-5.0229e+07
-4.22757e+07
-5.24885e+07
-4.70444e+07
-5.17228e+07
-4.74574e+07
-5.12273e+07
-4.28965e+07
-5.15345e+07
-4.2437e+07
-3.83069e+07
-3.80503e+07
-3.97245e+07
-3.71313e+07
-3.98491e+07
-3.95726e+07
-3.70311e+07
-3.9924e+07
-3.93263e+07
-3.99839e+07
-4.0396e+07
-3.74718e+07
-4.00544e+07
-3.72578e+07
-4.02396e+07
-4.0135e+07
-4.71275e+07
-4.27185e+07
-4.31019e+07
-4.65061e+07
-4.59136e+07
-3.91618e+07
-4.61988e+07
-3.87589e+07
-4.72593e+07
-4.38208e+07
-4.78889e+07
-4.34675e+07
-4.52986e+07
-3.82215e+07
-4.50511e+07
-3.859e+07
-3.83957e+07
-3.87458e+07
-4.10548e+07
-3.83176e+07
-4.11566e+07
-4.15517e+07
-3.80884e+07
-4.13176e+07
-4.12701e+07
-4.07748e+07
-4.0671e+07
-3.7969e+07
-4.09427e+07
-3.78621e+07
-4.03511e+07
-4.10489e+07
-4.56792e+07
-4.24644e+07
-4.21324e+07
-4.6253e+07
-4.37866e+07
-3.71687e+07
-4.35572e+07
-3.75048e+07
-4.55535e+07
-4.14359e+07
-4.17924e+07
-4.49854e+07
-4.43499e+07
-3.80313e+07
-4.46141e+07
-3.76619e+07
-3.06819e+07
-2.95166e+07
-2.84759e+07
-3.07457e+07
-2.83965e+07
-3.31557e+07
-3.30705e+07
-2.83043e+07
-2.94791e+07
-3.0799e+07
-3.07436e+07
-2.83794e+07
-2.17112e+07
-2.13587e+07
-2.19408e+07
-2.21861e+07
-2.22226e+07
-2.23635e+07
-2.23441e+07
-2.2251e+07
-3.32323e+07
-3.3304e+07
-3.08425e+07
-2.9382e+07
-2.8009e+07
-3.07797e+07
-2.81457e+07
-2.83038e+07
-3.07462e+07
-2.94731e+07
-3.08079e+07
-2.81799e+07
-3.49511e+07
-3.47572e+07
-3.25246e+07
-3.49995e+07
-3.48118e+07
-3.25757e+07
-3.51189e+07
-3.4548e+07
-3.43002e+07
-3.23817e+07
-3.47988e+07
-3.46379e+07
-3.23541e+07
-3.47522e+07
-3.07017e+07
-2.8464e+07
-2.94762e+07
-3.06429e+07
-2.85092e+07
-3.25903e+07
-3.26828e+07
-2.85835e+07
-2.95096e+07
-3.05504e+07
-3.06225e+07
-2.85074e+07