/*--------------------------------*- C++ -*----------------------------------*\
| =========                 |                                                 |
| \\      /  F ield         | OpenFOAM: The Open Source CFD Toolbox           |
|  \\    /   O peration     | Version:  2012                                  |
|   \\  /    A nd           | Website:  www.openfoam.com                      |
|    \\/     M anipulation  |                                                 |
\*---------------------------------------------------------------------------*/
FoamFile
{
    version     2.0;
    format      ascii;
    class       volVectorField;
    location    "0.108/solid";
    object      sigmaMidDir;
}
// * * * * * * * * * * * * * * * * * * * * * * * * * * * * * * * * * * * * * //

dimensions      [1 -1 -2 0 0 0 0];


internalField   nonuniform List<vector> 
3125
(
(0.113631 0.0352308 0.992898)
(0.00785966 0.088651 0.996032)
(0.137669 0.0491528 0.989258)
(0.146645 0.0589686 0.98743)
(0.157102 0.0947716 0.983025)
(0.163959 0.0983911 0.981548)
(0.468288 0.157186 0.869482)
(0.536447 0.129149 0.833994)
(-0.0653638 0.0959805 0.993235)
(0.00699011 0.0609557 0.998116)
(0.150022 0.0805657 0.985395)
(0.15003 0.0849361 0.985026)
(0.219407 0.119287 0.968314)
(0.260099 0.132139 0.956498)
(0.259114 -0.0573911 0.96414)
(0.0804327 0.144642 0.98621)
(0.317135 0.135885 0.938595)
(0.745926 0.664326 0.0475957)
(0.120514 0.101029 0.987557)
(0.547179 0.461571 0.698246)
(0.00276838 0.137394 0.990513)
(0.174587 0.19041 0.966056)
(-0.0684175 0.116662 0.990812)
(-0.0760018 0.346114 0.935109)
(0.74612 0.647129 0.156614)
(-0.0697532 0.104934 0.99203)
(0.454507 0.437499 0.775898)
(0.116874 0.0410454 0.992298)
(0.139641 0.0646738 0.988088)
(0.578605 0.603027 0.549157)
(0.130203 0.0468954 0.990378)
(0.637156 0.682137 0.358777)
(0.14379 0.0770504 0.986604)
(0.149694 0.0678169 0.986404)
(0.59419 0.623833 0.507711)
(0.145272 0.0853714 0.985702)
(0.667205 0.716409 0.203952)
(0.153019 0.0916224 0.983967)
(0.148039 0.102625 0.983642)
(0.674275 0.718975 0.168607)
(0.146346 0.100943 0.98407)
(0.679806 0.720062 0.139194)
(0.151291 0.10481 0.982917)
(0.175005 0.103109 0.979154)
(0.674447 0.719957 0.163659)
(0.15713 0.107993 0.981656)
(0.683665 0.712889 0.156176)
(0.390535 0.159074 0.90674)
(0.382482 0.192054 0.903782)
(0.676088 0.689757 0.259114)
(0.312324 0.17611 0.933509)
(0.546157 0.565698 0.617817)
(0.450327 0.184751 0.87354)
(0.591175 0.0553769 0.80464)
(0.670136 0.685356 0.284966)
(0.507187 0.136527 0.850954)
(-0.0503663 0.0545997 0.997237)
(0.765343 0.55902 0.318977)
(-0.0551455 0.0603084 0.996655)
(-0.0374346 -0.0113484 0.999235)
(0.575864 0.495697 0.650127)
(0.0696959 0.541935 0.837525)
(0.479361 0.435709 0.761821)
(-0.0960094 0.119936 0.988128)
(-0.00681647 0.0166591 0.999838)
(0.390615 0.331075 0.858958)
(-0.073606 0.0613244 0.9954)
(-0.436691 0.744094 0.505594)
(-0.0640331 0.603679 0.794652)
(0.0813311 -0.00321062 0.996682)
(0.000887381 -0.0102469 0.999947)
(0.432698 0.409085 0.803382)
(0.0748388 0.0417539 0.996321)
(0.0664751 0.00688451 0.997764)
(0.379246 0.329421 0.86467)
(0.109243 0.0247833 0.993706)
(0.110418 0.049373 0.992658)
(0.114437 0.0477364 0.992283)
(-0.399274 0.567906 0.719766)
(-0.65996 0.667609 0.344603)
(-0.524575 0.743717 0.414374)
(-0.656026 0.685166 0.316509)
(0.0959402 0.0150783 0.995273)
(0.107936 0.0340429 0.993575)
(0.115895 0.0600409 0.991445)
(0.106444 0.0534476 0.992881)
(-0.214534 0.510107 0.832926)
(0.10988 0.536286 0.836854)
(0.640822 0.688486 0.33961)
(0.150227 0.0749805 0.985804)
(0.145509 0.0946958 0.984815)
(0.655993 0.705483 0.268268)
(0.145575 0.0909332 0.985159)
(0.419261 0.71135 0.564094)
(0.204945 0.584953 0.784747)
(0.100413 0.0534005 0.993512)
(0.112141 0.0634054 0.991667)
(0.666674 0.714873 0.210955)
(0.150866 0.0884811 0.984586)
(0.145404 0.0973425 0.984572)
(0.657207 0.70821 0.257909)
(0.145616 0.0992928 0.984346)
(0.0869189 0.0488388 0.995018)
(0.100722 0.0620254 0.992979)
(0.619029 0.752751 0.223984)
(0.580286 0.756331 0.302047)
(0.47166 0.732243 0.491281)
(0.558606 0.75687 0.339275)
(0.106712 0.0634614 0.992263)
(0.0935861 0.0515135 0.994278)
(0.0953942 0.0601804 0.993619)
(0.0827973 0.0469069 0.995462)
(0.630896 0.748588 0.203925)
(0.679728 0.720684 0.13632)
(0.192367 0.109723 0.97517)
(0.183806 0.121531 0.975421)
(0.683569 0.71863 0.127688)
(0.167125 0.113221 0.979413)
(0.0871494 0.0489675 0.994991)
(0.0937327 0.0597251 0.993804)
(0.684948 0.713108 0.149413)
(0.317855 0.147295 0.936628)
(0.21113 0.134745 0.968126)
(0.683141 0.719007 0.127856)
(0.253353 0.153749 0.955078)
(0.197382 0.100472 0.975164)
(0.141254 0.0836815 0.98643)
(0.103093 0.0646081 0.992571)
(0.114613 0.0627356 0.991427)
(0.244421 0.126369 0.9614)
(0.392456 0.144591 0.908335)
(0.477979 0.528604 0.701508)
(0.542415 0.030385 0.839561)
(0.468146 0.112328 0.876483)
(0.11256 -0.034917 0.993031)
(0.736032 -0.294195 0.609677)
(0.489551 0.560047 0.668347)
(0.470188 0.76217 -0.444994)
(0.319654 0.596963 0.735838)
(0.462355 0.796018 0.390619)
(0.486036 0.452869 0.747448)
(0.577551 0.761012 -0.295457)
(0.372807 0.47978 0.794245)
(0.66631 0.510933 0.54312)
(0.42962 0.403877 0.807657)
(0.372566 0.534734 0.758455)
(0.649177 0.623873 0.435146)
(0.0344125 0.265862 0.963397)
(0.0919996 0.308055 0.94691)
(0.63403 0.551949 0.541626)
(-0.00524199 0.199915 0.979799)
(0.0605471 0.245352 0.967541)
(0.185788 0.344503 0.920218)
(-0.0334139 0.268186 0.962788)
(0.161987 0.315503 0.934996)
(0.698735 0.575853 0.424456)
(0.291065 0.406288 0.866147)
(0.540067 0.460642 0.704369)
(0.286341 0.33514 0.897602)
(0.163524 0.315947 0.934579)
(0.360129 0.394255 0.8455)
(0.142429 0.145766 0.979013)
(0.150227 0.197797 0.968663)
(0.508416 0.513858 0.690987)
(0.174646 0.163391 0.97098)
(0.133688 0.0814497 0.987671)
(0.172749 0.226593 0.958547)
(0.169485 0.226521 0.959147)
(0.159512 0.121424 0.9797)
(0.534425 0.544808 0.6462)
(0.210245 0.290713 0.933426)
(0.228014 0.295049 0.927877)
(0.170375 0.187248 0.967425)
(0.20459 0.230682 0.951278)
(0.19989 0.257018 0.945508)
(0.201665 0.201198 0.958567)
(0.376003 0.469435 0.798907)
(0.625501 0.666058 0.406345)
(0.292607 0.411848 0.862996)
(0.280685 0.358742 0.890236)
(0.338673 0.424953 0.839473)
(0.218969 0.263736 0.939412)
(0.194242 0.227264 0.954265)
(0.617621 0.6553 0.434886)
(0.240179 0.29584 0.92455)
(0.263395 0.336424 0.904125)
(0.180606 0.16259 0.970024)
(0.249556 0.352778 0.901815)
(0.297316 0.38078 0.875562)
(0.409735 0.452351 0.792146)
(0.622382 0.676714 0.393317)
(0.670759 0.717395 0.188217)
(0.51092 0.641759 0.571931)
(0.381025 0.401968 0.832612)
(0.51594 0.665405 0.539484)
(0.633283 0.683818 0.362415)
(0.441496 0.456464 0.772478)
(0.671237 0.71847 0.182324)
(0.548289 0.695417 0.464515)
(0.654643 0.690673 0.307269)
(0.467257 0.499518 0.729488)
(0.546315 0.67817 0.491554)
(0.646677 0.686579 0.332292)
(0.569143 0.561747 0.60043)
(0.685554 0.690773 0.229887)
(0.677402 0.720534 0.148181)
(0.592308 0.728395 0.344401)
(0.594311 0.720248 0.357823)
(0.680385 0.690768 0.244779)
(0.579397 0.581182 0.571426)
(0.526158 0.544553 0.653162)
(0.67729 0.719811 0.152153)
(0.573757 0.703964 0.418614)
(0.665255 0.690821 0.283199)
(0.507102 0.512779 0.692752)
(0.573393 0.715899 0.398382)
(0.671319 0.692698 0.263628)
(0.685543 0.561998 0.462806)
(0.722976 0.653075 0.225387)
(0.683223 0.705946 0.186671)
(0.636414 0.708944 0.303935)
(0.696822 0.579685 0.422379)
(0.626955 0.702433 0.336921)
(0.722713 0.643915 0.251116)
(0.693114 0.532531 0.485802)
(0.680769 0.704553 0.200398)
(0.620798 0.6629 0.418539)
(0.720496 0.607757 0.33394)
(0.676418 0.502267 0.53869)
(0.635343 0.67917 0.367514)
(0.724884 0.626961 0.285418)
(0.615471 0.3296 0.715933)
(0.555676 0.416388 0.719614)
(0.632474 0.637252 0.440326)
(0.503612 0.435074 0.746382)
(0.580138 0.520109 0.626838)
(0.651928 0.484253 0.583515)
(0.521767 0.240173 0.818582)
(0.645768 0.403074 0.648472)
(0.652072 0.649021 0.391885)
(0.624737 0.622633 0.471203)
(0.714912 0.577232 0.394594)
(0.674331 0.453265 0.582948)
(0.599088 0.586401 0.545186)
(0.69565 0.536224 0.478054)
(0.249176 0.505778 0.825893)
(0.132708 0.317178 0.939035)
(-0.02818 0.0684376 0.997257)
(0.207242 0.380088 0.901434)
(0.224726 0.367497 0.902466)
(0.2629 0.481298 0.836203)
(-0.0344274 0.0477249 0.998267)
(0.206076 0.4074 0.889695)
(0.203508 0.957908 0.202476)
(0.747994 0.662113 -0.0459552)
(0.807248 0.521857 0.27571)
(0.783087 0.621901 -0.0036477)
(0.554516 0.816362 -0.161447)
(0.486542 0.859337 0.157534)
(0.707645 0.645389 0.287597)
(0.768092 0.631188 -0.107872)
(0.00739273 0.0949167 0.995458)
(0.0775575 0.173334 0.981805)
(0.103149 0.262858 0.959305)
(-0.0750212 0.025439 0.996857)
(-0.000662111 0.132702 0.991156)
(0.227841 0.360333 0.904571)
(0.0503123 0.188973 0.980692)
(-0.00330862 0.0448033 0.99899)
(-0.0598368 0.0187466 0.998032)
(0.0417865 0.097204 0.994387)
(0.364808 0.540794 0.75793)
(0.515514 0.616335 0.595295)
(0.364101 0.480134 0.798061)
(0.795476 0.532328 0.28956)
(0.562681 0.538762 0.626997)
(0.256863 0.516134 0.817084)
(0.195222 0.503193 0.841834)
(0.501262 0.537351 0.678225)
(0.713055 0.638731 0.289096)
(0.560663 0.611249 0.558598)
(-0.10937 0.23984 0.964632)
(0.0246695 0.298247 0.95417)
(0.422875 0.392027 0.817002)
(-0.0257765 0.159426 0.986873)
(-0.0804565 0.229536 0.969969)
(-0.0150214 0.291945 0.956317)
(-0.0472861 0.150378 0.987497)
(-0.0892063 0.17396 0.980704)
(0.392826 0.371626 0.841179)
(-0.0079307 0.236522 0.971594)
(0.0214817 0.0946703 0.995277)
(-0.0226974 0.268349 0.963054)
(0.00783679 0.0877875 0.996108)
(-0.0670662 0.165113 0.983992)
(0.28315 0.517298 0.807607)
(0.189979 0.498981 0.845533)
(-0.328076 0.720091 0.611421)
(-0.118635 0.561511 0.818921)
(-0.0390382 0.51745 0.854823)
(0.169129 0.494883 0.852342)
(-0.19115 0.665719 0.721304)
(0.0328641 0.547028 0.836469)
(0.102021 0.444087 0.890157)
(0.139792 0.444583 0.884762)
(0.0485215 0.0747926 0.996018)
(0.0357993 0.0638649 0.997316)
(0.106097 0.0582901 0.992646)
(0.0641371 -0.00594627 0.997923)
(0.127091 0.0403299 0.991071)
(0.102242 0.0778434 0.991709)
(0.0911608 0.0317632 0.99533)
(0.0792531 0.0346707 0.996251)
(0.0341647 -0.0199582 0.999217)
(0.0471484 0.032249 0.998367)
(0.0834655 0.0604771 0.994674)
(0.392401 0.362345 0.845415)
(0.118554 0.182506 0.976031)
(0.138343 0.15941 0.977471)
(0.102627 0.109566 0.988667)
(0.0891393 0.178439 0.979905)
(0.140302 0.0991449 0.985132)
(0.0267577 0.110017 0.993569)
(0.381825 0.3524 0.854414)
(0.0264588 0.204201 0.978571)
(0.0928344 0.0576564 0.994011)
(-0.000216485 0.0882635 0.996097)
(0.0434081 0.196439 0.979555)
(0.0855883 0.108894 0.990362)
(0.185643 0.20077 0.961888)
(0.180565 0.29944 0.936873)
(0.210654 0.290037 0.933543)
(0.116126 0.055685 0.991672)
(0.215329 0.270451 0.938344)
(0.218707 0.369325 0.903198)
(0.21139 0.276409 0.937503)
(0.189082 0.212847 0.958616)
(0.110381 0.0438815 0.99292)
(0.182487 0.23605 0.954452)
(0.166567 0.327461 0.930067)
(0.196307 0.445226 0.873635)
(-0.548009 0.620983 0.560416)
(0.165848 0.459506 0.872553)
(0.114455 0.339429 0.933642)
(0.00329763 0.347261 0.937763)
(-0.635464 0.64784 0.420106)
(0.0385815 0.421152 0.906169)
(0.322584 0.543028 0.775281)
(0.264268 0.401514 0.876898)
(0.113421 0.401385 0.90886)
(0.0995231 0.33991 0.935177)
(-0.148115 0.512203 0.845997)
(-0.583269 0.727719 0.360864)
(-0.201646 0.558139 0.804873)
(0.0924467 0.375464 0.922215)
(0.0599224 0.426639 0.902435)
(-0.100844 0.466057 0.878989)
(-0.629091 0.707414 0.322195)
(-0.163401 0.474249 0.865094)
(0.152899 0.223896 0.962545)
(0.163167 0.124552 0.978705)
(0.152463 0.0875073 0.984427)
(0.0998508 0.0183666 0.994833)
(0.133321 0.114277 0.984462)
(0.147003 0.0529378 0.987718)
(0.125 0.148056 0.981048)
(0.158114 0.176245 0.971565)
(0.10858 0.0347855 0.993479)
(0.166107 0.15109 0.974464)
(0.301666 0.496933 0.813668)
(0.286228 0.41692 0.8627)
(0.244377 0.322394 0.914517)
(0.108834 0.0522054 0.992688)
(0.239297 0.34012 0.909426)
(0.24701 0.348126 0.90432)
(0.25919 0.435326 0.862156)
(0.269134 0.388133 0.881431)
(0.114354 0.0623514 0.991481)
(0.273588 0.370962 0.887433)
(0.524885 0.702804 0.480169)
(0.53034 0.647429 0.547334)
(-0.0893377 0.490064 0.867096)
(0.226994 0.412658 0.882149)
(0.292114 0.552562 0.780605)
(0.409159 0.642733 0.647674)
(0.0230565 0.501512 0.864843)
(0.355404 0.533212 0.767706)
(0.410166 0.537445 0.736829)
(0.444267 0.646516 0.620197)
(0.246324 0.298074 0.922213)
(0.418014 0.510153 0.75167)
(0.648446 0.696688 0.306827)
(0.324925 0.420599 0.847066)
(0.225567 0.237806 0.944758)
(0.452576 0.547341 0.703984)
(0.337987 0.46932 0.815784)
(0.254127 0.273696 0.927637)
(0.650762 0.700326 0.293346)
(0.517339 0.606318 0.603936)
(0.385247 0.525254 0.758745)
(0.489745 0.578603 0.652203)
(0.372705 0.481364 0.793335)
(0.27783 0.332322 0.901317)
(0.59177 0.693557 0.410837)
(0.573248 0.724151 0.383395)
(0.362878 0.678757 0.638442)
(0.547637 0.723573 0.420162)
(0.54374 0.690248 0.477394)
(0.470179 0.635502 0.612428)
(0.28315 0.634603 0.7191)
(0.493287 0.697458 0.519828)
(0.604738 0.730356 0.317603)
(0.624702 0.709184 0.32681)
(0.327276 0.482082 0.812704)
(0.343238 0.554496 0.758104)
(0.332847 0.485772 0.808232)
(0.109563 0.0636757 0.991938)
(0.333315 0.464395 0.820511)
(0.383462 0.607833 0.695339)
(0.368214 0.543537 0.754311)
(0.303032 0.417662 0.856581)
(0.103563 0.053726 0.993171)
(0.299973 0.436167 0.848395)
(0.330072 0.353582 0.875233)
(0.662865 0.712883 0.228928)
(0.605117 0.670044 0.42997)
(0.476751 0.625867 0.617251)
(0.358495 0.408189 0.839562)
(0.590239 0.658187 0.467341)
(0.46851 0.594882 0.653156)
(0.314684 0.368336 0.874816)
(0.661849 0.711105 0.237247)
(0.546858 0.627265 0.554513)
(0.421189 0.540441 0.72837)
(0.28819 0.311608 0.905454)
(0.567541 0.645634 0.510934)
(0.432172 0.578128 0.692095)
(0.474471 0.693892 0.541656)
(0.481668 0.729248 0.485996)
(0.473804 0.685279 0.553085)
(0.0978565 0.0610617 0.993326)
(0.461806 0.653197 0.600058)
(0.504357 0.753885 0.421049)
(0.50018 0.72745 0.46972)
(0.430154 0.608588 0.666774)
(0.090141 0.0502002 0.994663)
(0.440427 0.64065 0.628961)
(0.674646 0.710581 0.199816)
(0.662657 0.721042 0.202445)
(0.609482 0.75376 0.24572)
(0.643654 0.735806 0.210473)
(0.649709 0.728032 0.218743)
(0.635178 0.727697 0.258853)
(0.593858 0.756973 0.272625)
(0.62918 0.737469 0.245505)
(0.675305 0.715791 0.177785)
(0.685505 0.706945 0.174101)
(0.64709 0.726088 0.232532)
(0.661837 0.713073 0.231298)
(0.587366 0.714447 0.38022)
(0.505456 0.746155 0.433322)
(0.584201 0.734134 0.346058)
(0.645783 0.713565 0.271641)
(0.628608 0.729477 0.26966)
(0.609933 0.737622 0.289649)
(0.538037 0.752185 0.380439)
(0.615592 0.724247 0.310666)
(0.453726 0.696466 0.555938)
(0.44324 0.651085 0.616138)
(0.364641 0.512014 0.777739)
(0.0970514 0.0526092 0.993888)
(0.367689 0.537297 0.759024)
(0.407325 0.600504 0.6881)
(0.420538 0.655503 0.627267)
(0.404226 0.589973 0.698952)
(0.103745 0.0628533 0.992616)
(0.397249 0.560549 0.726621)
(0.535557 0.781573 0.31988)
(0.535731 0.768771 0.349263)
(0.490185 0.691264 0.530917)
(0.0842956 0.0476396 0.995301)
(0.502022 0.72037 0.478582)
(0.520353 0.75213 0.404392)
(0.521975 0.770918 0.365003)
(0.524374 0.74474 0.412789)
(0.0938047 0.0596115 0.993804)
(0.514044 0.720511 0.465428)
(0.69811 0.701788 0.141904)
(0.702615 0.698464 0.135939)
(0.63795 0.746715 0.188248)
(0.660665 0.726934 0.18732)
(0.654916 0.733062 0.183588)
(0.667329 0.727276 0.160441)
(0.65146 0.73821 0.175061)
(0.66944 0.724782 0.162917)
(0.694664 0.702867 0.153035)
(0.685743 0.710523 0.157842)
(0.62173 0.6047 0.497785)
(0.693299 0.687537 0.215939)
(0.681947 0.719636 0.130662)
(0.609253 0.729328 0.311273)
(0.61862 0.595792 0.512191)
(0.696878 0.686942 0.206087)
(0.606113 0.734646 0.304831)
(0.653997 0.613014 0.443284)
(0.681763 0.720086 0.129132)
(0.705396 0.682056 0.192915)
(0.616109 0.735782 0.28113)
(0.702866 0.683373 0.197436)
(0.620114 0.732677 0.280433)
(0.652256 0.61427 0.444112)
(0.713403 0.689954 0.122552)
(0.706251 0.695791 0.130706)
(0.676546 0.723521 0.137124)
(0.685078 0.71692 0.129207)
(0.680859 0.718666 0.141248)
(0.673872 0.724437 0.145215)
(0.711289 0.691678 0.125094)
(0.718571 0.686062 0.113903)
(0.547351 0.778886 0.306175)
(0.545573 0.787179 0.287574)
(0.554128 0.765008 0.328184)
(0.0962634 0.0610725 0.993481)
(0.547948 0.751225 0.367985)
(0.552926 0.788437 0.269519)
(0.555968 0.783842 0.276571)
(0.533063 0.74033 0.40958)
(0.0832969 0.0470901 0.995412)
(0.541311 0.759132 0.361527)
(0.691067 0.605025 0.395438)
(0.684009 0.716841 0.135172)
(0.718894 0.66303 0.208764)
(0.626818 0.722409 0.291932)
(0.683374 0.595321 0.422601)
(0.717618 0.667829 0.197555)
(0.633474 0.724081 0.272796)
(0.672226 0.611186 0.417809)
(0.684699 0.716683 0.132486)
(0.710689 0.677237 0.190447)
(0.627987 0.731096 0.266704)
(0.6771 0.615343 0.403594)
(0.712778 0.674481 0.192414)
(0.622928 0.732142 0.275553)
(0.571058 0.768247 0.289291)
(0.562248 0.757054 0.332786)
(0.590548 0.691032 0.416807)
(0.181743 0.102315 0.978009)
(0.589502 0.702876 0.398062)
(0.560071 0.718605 0.412222)
(0.573529 0.744499 0.34174)
(0.578604 0.733645 0.356346)
(0.146155 0.0780087 0.986181)
(0.580338 0.732095 0.356714)
(0.728768 0.671697 0.133118)
(0.714637 0.678193 0.171314)
(0.655841 0.708562 0.260409)
(0.684534 0.704093 0.188857)
(0.688906 0.709856 0.146673)
(0.674306 0.71484 0.185242)
(0.699047 0.673745 0.239586)
(0.726296 0.665474 0.172156)
(0.717191 0.682799 0.139363)
(0.72621 0.677603 0.116074)
(0.686875 0.715929 0.125094)
(0.678902 0.72117 0.13786)
(0.722351 0.682503 0.111346)
(0.715017 0.687536 0.126667)
(0.678994 0.718529 0.150609)
(0.688676 0.713491 0.129058)
(0.561282 0.776177 0.28725)
(0.567372 0.779741 0.264749)
(0.559679 0.754094 0.343659)
(0.0965217 0.0536675 0.993883)
(0.56411 0.763322 0.314833)
(0.562431 0.784264 0.26192)
(0.558078 0.785273 0.268133)
(0.572412 0.753444 0.323524)
(0.116817 0.0715919 0.99057)
(0.569463 0.748875 0.338968)
(0.449185 0.48324 0.751473)
(0.564805 0.601753 0.564703)
(0.607052 0.643135 0.46676)
(0.274052 0.124701 0.953596)
(0.607837 0.609233 0.509284)
(0.5741 0.696962 0.429713)
(0.549733 0.640347 0.536423)
(0.574484 0.469149 0.670721)
(0.333687 0.144542 0.931537)
(0.639011 0.513118 0.57304)
(0.391152 0.64087 0.660519)
(0.617457 0.661199 0.426101)
(0.663447 0.694862 0.277499)
(0.591035 0.691035 0.416111)
(0.341186 0.619593 0.706892)
(0.584398 0.664593 0.465612)
(0.705902 0.661419 0.253432)
(0.638164 0.668925 0.381164)
(0.169797 0.108024 0.979541)
(0.351038 0.326396 0.877632)
(0.0503579 0.255593 0.965472)
(0.414986 0.302489 0.858072)
(0.434546 0.129581 0.891279)
(-0.0316512 0.281622 0.959003)
(0.124012 0.201726 0.971559)
(0.0340791 0.0121946 0.999345)
(-0.0676474 0.0718847 0.995116)
(0.104326 -0.0375591 0.993834)
(0.65778 -0.234876 0.715653)
(0.0386182 0.0666587 0.997028)
(0.705017 -0.278841 0.652073)
(0.0229934 0.029199 0.999309)
(-0.0196625 0.0866328 0.996046)
(-0.0699138 0.130429 0.98899)
(-0.0459253 0.0747086 0.996147)
(0.324953 0.55797 0.763593)
(-0.126992 0.270604 0.954278)
(-0.254539 -0.134041 0.957728)
(0.27765 0.518848 0.808521)
(-0.275879 0.100704 0.955902)
(-0.33272 -0.229705 0.914622)
(0.453234 0.405883 0.793623)
(-0.0608857 0.259068 0.963938)
(0.624516 -0.186574 0.7584)
(-0.0157718 0.087725 0.99602)
(-0.0677761 0.114057 0.99116)
(0.512863 0.37584 0.771826)
(0.543877 0.0316299 0.838569)
(0.229438 0.21531 0.94921)
(0.395114 0.791282 0.466646)
(0.0698601 0.861336 -0.50321)
(0.217 0.934199 -0.283168)
(0.16203 0.986785 -0.00100677)
(0.583185 0.52833 0.61706)
(0.723349 0.688479 -0.0525618)
(0.661632 0.690443 0.292457)
(0.762997 0.595019 0.252563)
(0.556608 0.488762 0.671788)
(0.645227 0.736032 0.20479)
(0.748364 0.630707 0.205329)
(0.142913 0.296907 0.944152)
(0.489894 0.413779 0.767327)
(0.570817 0.515462 0.639114)
(0.392592 0.345908 0.852185)
(0.416856 0.429345 0.801183)
(0.542526 0.439251 0.716048)
(0.0855633 0.238502 0.967365)
(0.430316 0.442587 0.78673)
(0.740669 0.629188 0.235653)
(0.66631 0.665005 0.337342)
(0.745422 0.56454 0.354459)
(0.529962 0.483948 0.696372)
(0.652906 0.631148 0.418766)
(0.729094 0.566296 0.384358)
(0.236633 0.229367 0.944137)
(0.377281 0.389479 0.840217)
(0.474325 0.463311 0.748571)
(0.362661 0.378202 0.851728)
(0.202455 0.176072 0.963333)
(0.377279 0.424653 0.823)
(0.403921 0.411335 0.8171)
(0.134986 0.101139 0.985672)
(0.121728 0.217875 0.968356)
(0.130304 0.152083 0.979741)
(0.103905 0.199458 0.974382)
(0.104358 0.127871 0.986285)
(0.0552694 0.181771 0.981786)
(0.10737 0.0809264 0.99092)
(0.0774976 0.187525 0.979198)
(0.296316 0.296785 0.907808)
(0.566673 0.579312 0.5859)
(0.467326 0.592564 0.656106)
(0.528412 0.566879 0.632004)
(0.308918 0.354066 0.882727)
(0.470336 0.546452 0.692946)
(0.512011 0.538361 0.669337)
(0.433824 0.478955 0.76315)
(0.624398 0.66665 0.407068)
(0.633827 0.674188 0.379123)
(0.5522 0.700938 0.4514)
(0.56031 0.682787 0.468887)
(0.617651 0.657108 0.432107)
(0.447812 0.520165 0.72725)
(0.148175 0.179112 0.972606)
(0.143489 0.240883 0.959889)
(0.150978 0.12791 0.980227)
(0.161781 0.266433 0.950179)
(0.163512 0.154192 0.974417)
(0.20948 0.324284 0.922474)
(0.186188 0.294765 0.937255)
(0.164581 0.204453 0.964941)
(0.36171 0.399334 0.842436)
(0.604894 0.633001 0.483129)
(0.507476 0.603083 0.615434)
(0.550684 0.591839 0.58862)
(0.318063 0.343527 0.883643)
(0.508763 0.621397 0.595841)
(0.575266 0.598566 0.557484)
(0.626147 0.679333 0.382683)
(0.67701 0.702758 0.218608)
(0.66777 0.717004 0.199971)
(0.621878 0.745396 0.240111)
(0.630478 0.680359 0.373643)
(0.616329 0.747405 0.248042)
(0.68057 0.700903 0.213448)
(0.65312 0.693426 0.304296)
(0.672992 0.718836 0.174231)
(0.62602 0.752636 0.204052)
(0.686948 0.704725 0.177383)
(0.652669 0.696003 0.299339)
(0.628233 0.751091 0.202942)
(0.685146 0.704401 0.185456)
(0.676329 0.699712 0.230178)
(0.6953 0.704126 0.1441)
(0.678666 0.720442 0.142747)
(0.636612 0.753073 0.16615)
(0.6379 0.752606 0.163301)
(0.693871 0.704313 0.149956)
(0.675642 0.700448 0.229956)
(0.658969 0.695962 0.2853)
(0.674626 0.720468 0.16064)
(0.633379 0.750467 0.18876)
(0.688083 0.704819 0.172548)
(0.662683 0.697542 0.272558)
(0.62914 0.752137 0.196146)
(0.690499 0.703461 0.168386)
(0.702762 0.667717 0.245517)
(0.701675 0.694645 0.158498)
(0.683088 0.711381 0.165312)
(0.653244 0.73659 0.175235)
(0.706343 0.673433 0.218097)
(0.648583 0.736268 0.193002)
(0.702178 0.692258 0.166509)
(0.705553 0.630705 0.323119)
(0.677312 0.696443 0.2371)
(0.641835 0.709889 0.290009)
(0.688253 0.676809 0.261223)
(0.698896 0.620937 0.354937)
(0.6481 0.714612 0.263243)
(0.693107 0.679395 0.240883)
(0.59492 0.455376 0.662347)
(0.490685 0.599973 0.631871)
(0.580278 0.603033 0.547383)
(0.514058 0.560528 0.649271)
(0.543859 0.606091 0.580406)
(0.546767 0.624316 0.557921)
(0.539076 0.405121 0.738427)
(0.688356 0.587947 0.424834)
(0.664641 0.677269 0.315531)
(0.644412 0.697881 0.312561)
(0.681998 0.672163 0.28823)
(0.701935 0.606635 0.373205)
(0.63117 0.691604 0.351152)
(0.675529 0.66533 0.3178)
(0.153556 0.845941 -0.510689)
(0.615149 0.788408 0.00200939)
(0.582746 0.807572 -0.0907385)
(0.00605306 0.91999 -0.391896)
(0.761215 0.642342 0.0891532)
(0.720487 0.693135 0.0215029)
(0.507283 0.525301 0.683171)
(0.530133 0.60668 0.592366)
(0.670936 0.735874 0.0912947)
(0.679452 0.719463 0.143939)
(0.736064 0.438743 0.515475)
(0.749965 0.479063 0.456126)
(0.786342 0.595062 0.166036)
(0.80147 0.564931 0.196211)
(-0.00294709 0.267019 0.963687)
(0.455134 0.367354 0.811113)
(0.422753 0.447151 0.788248)
(0.353635 0.32372 0.877581)
(0.105922 0.234438 0.966343)
(0.353593 0.431908 0.829715)
(0.253062 0.358225 0.898685)
(0.047638 0.174797 0.983451)
(0.374571 0.358197 0.855214)
(0.312748 0.302487 0.900383)
(0.285462 0.247834 0.925791)
(0.31015 0.322234 0.894412)
(0.254973 0.262174 0.930727)
(0.0833805 0.14645 0.985698)
(0.676088 0.460338 0.575321)
(0.624725 0.486372 0.610869)
(0.505494 0.405658 0.761523)
(0.513193 0.432972 0.741059)
(0.437374 0.485191 0.757162)
(0.312095 0.521772 0.793946)
(0.310976 0.393583 0.865093)
(0.274053 0.419152 0.865567)
(0.185368 0.147924 0.971472)
(0.420428 0.388117 0.820125)
(0.353764 0.366584 0.860504)
(0.331622 0.375362 0.865523)
(0.193199 0.192524 0.962086)
(0.346989 0.344871 0.87216)
(0.332247 0.32262 0.8863)
(-0.0294059 0.153777 0.987668)
(-0.141165 0.302749 0.942558)
(-0.0503741 0.149004 0.987553)
(-0.110699 0.269123 0.956723)
(0.0931608 0.160323 0.982658)
(0.35731 0.351092 0.865485)
(0.323224 0.285336 0.90228)
(0.301216 0.230314 0.925324)
(0.112224 0.121797 0.98619)
(0.273288 0.335642 0.901475)
(0.257359 0.287059 0.922694)
(0.0454755 0.0903079 0.994875)
(0.00733984 0.194558 0.980864)
(0.0573683 0.119178 0.991214)
(-0.0423467 0.222602 0.973989)
(0.366038 0.530545 0.764551)
(0.385059 0.554876 0.737457)
(0.462075 0.698466 0.546473)
(0.448439 0.675492 0.585331)
(0.502303 0.492467 0.710751)
(0.518855 0.514646 0.68259)
(0.602956 0.63008 0.489329)
(0.591567 0.615195 0.521137)
(0.48471 0.470064 0.737628)
(0.472241 0.455054 0.754927)
(0.48552 0.399389 0.777662)
(0.438541 0.446613 0.779884)
(0.348059 0.505071 0.789784)
(0.329401 0.472261 0.817597)
(0.317859 0.380551 0.868416)
(0.277298 0.41113 0.868376)
(0.51596 0.770084 0.375175)
(0.510865 0.764883 0.392392)
(0.476149 0.717128 0.50893)
(0.483888 0.719757 0.497798)
(0.646707 0.694586 0.315153)
(0.644811 0.690131 0.328539)
(0.615256 0.649675 0.446522)
(0.625524 0.652483 0.427768)
(0.484959 0.548475 0.681168)
(0.631048 0.673939 0.384168)
(0.64388 0.689967 0.330702)
(0.5778 0.701185 0.417716)
(0.467449 0.523782 0.712141)
(0.641045 0.67127 0.372098)
(0.569942 0.705369 0.421451)
(0.19249 0.200169 0.960666)
(0.337297 0.457632 0.822681)
(0.303942 0.423535 0.853368)
(0.202439 0.249744 0.946914)
(0.182184 0.227658 0.956546)
(0.239384 0.356456 0.903125)
(0.176792 0.178179 0.967986)
(0.26807 0.388685 0.881512)
(0.547409 0.60667 0.57645)
(0.654283 0.702601 0.279761)
(0.657689 0.693216 0.294783)
(0.589341 0.734996 0.335349)
(0.65411 0.690138 0.309597)
(0.595577 0.727362 0.340929)
(0.552647 0.62535 0.550925)
(0.650476 0.700592 0.293347)
(0.653114 0.699748 0.289474)
(0.658928 0.714813 0.234216)
(0.659419 0.712172 0.240784)
(0.52284 0.775338 0.354245)
(0.524181 0.773529 0.356212)
(0.540684 0.790636 0.287325)
(0.537501 0.789954 0.295068)
(0.614795 0.668621 0.418299)
(0.665249 0.713838 0.218815)
(0.675362 0.701941 0.226199)
(0.611117 0.747811 0.259449)
(0.615518 0.675793 0.405513)
(0.67286 0.700853 0.236781)
(0.614965 0.744268 0.260544)
(0.226474 0.272134 0.935229)
(0.377261 0.493138 0.783894)
(0.211423 0.221704 0.951918)
(0.412849 0.526122 0.743472)
(0.572371 0.6368 0.516602)
(0.65847 0.708863 0.252845)
(0.660456 0.69561 0.282707)
(0.605556 0.732649 0.310689)
(0.573023 0.632854 0.520711)
(0.665997 0.692961 0.276139)
(0.59836 0.735033 0.31889)
(0.559937 0.799056 0.219044)
(0.559499 0.798795 0.221103)
(0.568354 0.802046 0.183561)
(0.565818 0.803297 0.185916)
(0.665893 0.725319 0.174639)
(0.664361 0.727034 0.173337)
(0.663744 0.733617 0.145775)
(0.66571 0.73115 0.149164)
(0.663688 0.725197 0.183322)
(0.66507 0.722775 0.187827)
(0.661526 0.716451 0.221543)
(0.661448 0.716956 0.22014)
(0.556688 0.798707 0.228398)
(0.553948 0.799383 0.232657)
(0.54517 0.792157 0.274367)
(0.545061 0.791209 0.277303)
(0.576977 0.802475 0.152087)
(0.574582 0.804077 0.152693)
(0.570726 0.801908 0.17668)
(0.570218 0.801893 0.178377)
(0.660361 0.74139 0.119432)
(0.662286 0.739321 0.12158)
(0.665412 0.733298 0.139648)
(0.662841 0.735834 0.138528)
(0.679783 0.69843 0.223808)
(0.696184 0.703721 0.141788)
(0.679677 0.721008 0.134855)
(0.641953 0.750965 0.154751)
(0.68255 0.700061 0.209858)
(0.697877 0.702575 0.139131)
(0.638491 0.752284 0.162477)
(0.691812 0.695588 0.193787)
(0.682466 0.719568 0.128303)
(0.700236 0.701916 0.130317)
(0.644215 0.749897 0.150472)
(0.699569 0.702056 0.133115)
(0.645141 0.750186 0.144964)
(0.69107 0.695019 0.198419)
(0.661607 0.740874 0.11568)
(0.657992 0.744129 0.115403)
(0.649125 0.752924 0.108362)
(0.652316 0.750139 0.108517)
(0.578716 0.802028 0.147779)
(0.57817 0.801967 0.150228)
(0.583049 0.800323 0.139776)
(0.580757 0.802348 0.137691)
(0.702839 0.680228 0.208104)
(0.683991 0.715084 0.144258)
(0.701664 0.69636 0.150834)
(0.648374 0.741299 0.173456)
(0.701255 0.677871 0.220755)
(0.701951 0.696736 0.147729)
(0.650147 0.742256 0.162375)
(0.693963 0.690921 0.202591)
(0.682887 0.718973 0.129399)
(0.700781 0.701194 0.131273)
(0.648597 0.747417 0.143839)
(0.696404 0.693239 0.185583)
(0.701909 0.700006 0.13159)
(0.645244 0.74831 0.153923)
(0.586536 0.792001 0.169437)
(0.585258 0.790104 0.182233)
(0.579236 0.768236 0.272578)
(0.577688 0.776981 0.250156)
(0.623963 0.770653 0.129479)
(0.615911 0.775731 0.137464)
(0.551665 0.805988 0.214592)
(0.567268 0.79987 0.195996)
(0.626881 0.769055 0.124798)
(0.631625 0.765881 0.120312)
(0.649099 0.753078 0.107441)
(0.644224 0.756993 0.109256)
(0.585983 0.793806 0.162775)
(0.58385 0.796886 0.155217)
(0.584241 0.799567 0.139126)
(0.583528 0.799174 0.144277)
(0.489368 0.622062 0.611194)
(0.49357 0.675964 0.547231)
(0.575265 0.761624 0.298327)
(0.571182 0.75079 0.33176)
(0.170446 0.866144 0.469833)
(0.227551 0.881549 0.413632)
(0.527293 0.816835 0.233971)
(0.497407 0.828003 0.258838)
(0.294628 0.326616 0.898062)
(0.386898 0.587498 0.710743)
(0.359601 0.491906 0.792916)
(0.441058 0.523349 0.729091)
(0.483397 0.362662 0.796746)
(0.209849 0.565013 0.797949)
(0.280681 0.49315 0.823421)
(0.394818 -0.166233 0.903596)
(0.655425 -0.0409105 0.754152)
(0.559745 -0.0112228 0.828589)
(0.69866 -0.150539 0.699437)
(0.202465 0.0089825 0.979248)
(0.30318 0.191281 0.933538)
(0.439052 0.03213 0.897887)
(-0.00332393 0.178854 0.98387)
(0.362726 -0.0883001 0.927703)
(0.488848 0.157916 0.857957)
(0.605698 -0.0177312 0.795497)
(0.613412 -0.0814542 0.785552)
(0.525028 0.050208 0.849603)
(0.322233 0.00748117 0.946631)
(0.659524 -0.125401 0.74115)
(0.161159 0.831382 0.531819)
(0.114303 0.777019 0.619012)
(0.443239 0.573942 0.688571)
(0.339756 0.514171 0.787524)
(0.128336 -0.0799266 0.988505)
(0.231444 -0.190124 0.954089)
(0.252244 -0.229238 0.940119)
(0.77366 -0.302734 0.556598)
(0.406604 -0.343875 0.846418)
(0.137034 -0.0753402 0.987697)
(0.27996 -0.278871 0.918615)
(0.367233 -0.267673 0.890781)
(0.740773 -0.295403 0.603318)