/*--------------------------------*- C++ -*----------------------------------*\
| =========                 |                                                 |
| \\      /  F ield         | OpenFOAM: The Open Source CFD Toolbox           |
|  \\    /   O peration     | Version:  2012                                  |
|   \\  /    A nd           | Website:  www.openfoam.com                      |
|    \\/     M anipulation  |                                                 |
\*---------------------------------------------------------------------------*/
FoamFile
{
    version     2.0;
    format      ascii;
    class       volScalarField;
    location    "0.108/solid";
    object      sigmaDiff;
}
// * * * * * * * * * * * * * * * * * * * * * * * * * * * * * * * * * * * * * //

dimensions      [1 -1 -2 0 0 0 0];


internalField   nonuniform List<scalar> 
3125
(
-1.67927e+08
-1.71795e+08
-6.96372e+07
-6.42101e+07
-3.42126e+07
-3.13354e+07
-1.99211e+07
-1.93399e+07
-1.06439e+08
-9.1957e+07
-4.94544e+07
-4.50969e+07
-2.47204e+07
-2.30959e+07
-1.37092e+08
-1.99212e+08
-1.09802e+08
-6.4916e+07
-1.99321e+08
-4.40667e+07
-1.70796e+08
-1.17831e+08
-1.53483e+08
-1.04955e+08
-6.49736e+07
-1.34701e+08
-2.13764e+07
-7.55377e+07
-7.4453e+07
-2.05169e+07
-7.80558e+07
-2.07579e+07
-7.03461e+07
-5.90516e+07
-2.03222e+07
-6.5888e+07
-1.89802e+07
-3.74615e+07
-4.09024e+07
-1.78134e+07
-4.43604e+07
-1.6459e+07
-3.77972e+07
-2.88133e+07
-1.76549e+07
-3.5034e+07
-1.30573e+07
-2.06945e+07
-2.43104e+07
-1.04286e+07
-2.54367e+07
-5.03228e+06
-2.34685e+07
-1.90147e+07
-9.91832e+06
-2.26614e+07
-2.20381e+08
-5.02067e+07
-1.75055e+08
-1.00146e+08
-5.24552e+07
-4.79336e+07
-4.52458e+07
-1.27939e+08
-9.13899e+07
-2.8647e+07
-1.06886e+08
-3.13659e+07
-4.34921e+07
-9.67292e+07
-9.39078e+07
-2.19135e+07
-8.25037e+07
-8.47287e+07
-2.85999e+07
-8.11963e+07
-1.01006e+08
-1.04736e+08
-1.22974e+07
-1.75828e+07
-2.82255e+07
-2.00366e+07
-9.94724e+07
-1.04563e+08
-9.90012e+07
-9.10144e+07
-1.1431e+07
-1.03004e+07
-2.06271e+07
-5.41223e+07
-5.67068e+07
-2.02667e+07
-6.12817e+07
-1.02863e+07
-1.01961e+07
-7.93651e+07
-8.82599e+07
-1.9146e+07
-4.10914e+07
-5.23039e+07
-2.01095e+07
-4.81692e+07
-5.89592e+07
-6.59512e+07
-1.08885e+07
-1.0814e+07
-1.04317e+07
-1.07197e+07
-7.66144e+07
-6.83775e+07
-5.69557e+07
-5.12624e+07
-1.09091e+07
-1.63035e+07
-2.66214e+07
-3.04133e+07
-1.50632e+07
-3.25829e+07
-4.50791e+07
-4.96521e+07
-1.33162e+07
-2.17522e+07
-2.8506e+07
-1.489e+07
-2.68451e+07
-3.58784e+07
-3.89761e+07
-4.37906e+07
-4.00302e+07
-3.51587e+07
-3.2992e+07
-4.28995e+06
-2.88275e+07
-3.2195e+07
-1.26453e+07
-2.58612e+07
-1.17701e+08
-5.40609e+07
-1.22868e+08
-6.39772e+07
-1.243e+08
-5.1793e+07
-1.23918e+08
-8.92805e+07
-1.36733e+08
-1.25367e+08
-7.42479e+07
-1.24819e+08
-8.08888e+07
-5.52883e+07
-8.58523e+07
-9.16876e+07
-8.79411e+07
-1.13146e+08
-1.34045e+08
-5.59133e+07
-1.15039e+08
-9.54692e+07
-1.37049e+08
-1.06914e+08
-9.46354e+07
-5.09169e+07
-3.16534e+07
-2.06988e+07
-4.38946e+07
-5.25042e+07
-4.273e+07
-2.99139e+07
-4.88106e+07
-2.03119e+07
-4.07489e+07
-2.73989e+07
-4.75187e+07
-4.1833e+07
-2.86625e+07
-4.21769e+07
-2.39945e+07
-2.05415e+07
-3.64892e+07
-3.75536e+07
-2.48123e+07
-4.09778e+07
-4.42331e+07
-2.06375e+07
-3.97773e+07
-2.65153e+07
-4.54539e+07
-3.86802e+07
-2.55104e+07
-2.68134e+07
-1.91817e+07
-1.84785e+07
-2.67854e+07
-2.76464e+07
-2.60874e+07
-1.87076e+07
-2.54625e+07
-1.83276e+07
-2.45067e+07
-1.78897e+07
-2.47541e+07
-2.51227e+07
-1.83224e+07
-2.20021e+07
-1.63981e+07
-1.69848e+07
-2.18403e+07
-2.23458e+07
-1.67731e+07
-2.14795e+07
-2.29884e+07
-1.71327e+07
-2.36506e+07
-1.75229e+07
-2.35856e+07
-2.31002e+07
-1.7119e+07
-1.60054e+07
-1.26886e+07
-1.20957e+07
-1.69346e+07
-1.64618e+07
-1.63982e+07
-1.20597e+07
-1.54197e+07
-1.17441e+07
-1.511e+07
-1.05678e+07
-1.49208e+07
-1.57317e+07
-1.13733e+07
-1.28731e+07
-6.25543e+06
-7.34328e+06
-1.13269e+07
-1.23977e+07
-7.47052e+06
-1.17252e+07
-1.36807e+07
-8.06959e+06
-1.4307e+07
-9.65923e+06
-1.42937e+07
-1.35806e+07
-8.64481e+06
-1.29478e+08
-1.00693e+08
-2.7211e+08
-9.2445e+07
-1.24146e+08
-1.29222e+08
-3.16389e+08
-9.45068e+07
-3.34937e+07
-4.85577e+07
-5.86521e+07
-4.53132e+07
-4.9451e+07
-4.08775e+07
-5.00449e+07
-3.43818e+07
-7.70483e+07
-8.80721e+07
-8.22572e+07
-1.37391e+08
-8.7625e+07
-1.13591e+08
-9.90205e+07
-7.08795e+07
-1.13668e+08
-6.83078e+07
-5.08262e+07
-5.60175e+07
-5.33064e+07
-6.03573e+07
-6.05343e+07
-5.03937e+07
-5.15734e+07
-5.47978e+07
-5.37696e+07
-5.86555e+07
-8.90969e+07
-7.19302e+07
-3.5014e+07
-7.21866e+07
-1.0111e+08
-6.36282e+07
-6.72852e+07
-7.88419e+07
-3.47857e+07
-4.86127e+07
-5.45868e+07
-5.49078e+07
-5.76575e+07
-7.06175e+07
-4.67348e+07
-3.97158e+07
-3.49522e+07
-2.90952e+07
-3.42197e+07
-4.45799e+07
-3.90896e+07
-3.89829e+07
-2.99908e+07
-3.58603e+07
-6.95364e+07
-6.08064e+07
-5.20407e+07
-9.38446e+07
-5.3994e+07
-5.21015e+07
-5.67916e+07
-5.90117e+07
-9.28164e+07
-5.91638e+07
-5.71719e+07
-2.36895e+07
-3.34629e+07
-4.49008e+07
-5.47938e+07
-3.60035e+07
-4.61988e+07
-6.04773e+07
-2.44709e+07
-4.34065e+07
-5.01568e+07
-6.48604e+07
-3.9316e+07
-4.82305e+07
-4.56417e+07
-4.35381e+07
-4.05076e+07
-1.02869e+08
-4.27787e+07
-4.15595e+07
-4.35778e+07
-4.52027e+07
-1.04028e+08
-4.26414e+07
-1.76005e+07
-1.65401e+07
-1.36116e+07
-1.51234e+07
-1.54833e+07
-1.73173e+07
-1.54754e+07
-1.63153e+07
-1.52699e+07
-1.53828e+07
-1.90406e+07
-2.13421e+07
-2.61947e+07
-2.53749e+07
-2.27673e+07
-2.73684e+07
-2.33896e+07
-1.85083e+07
-2.26099e+07
-2.06724e+07
-4.5508e+07
-4.7668e+07
-5.0398e+07
-1.02023e+08
-4.76633e+07
-5.084e+07
-4.79089e+07
-4.48976e+07
-1.03675e+08
-4.77173e+07
-3.72156e+07
-3.91237e+07
-4.02614e+07
-9.64473e+07
-3.82803e+07
-4.14409e+07
-3.94411e+07
-3.59452e+07
-9.39349e+07
-3.76979e+07
-1.51083e+07
-1.44714e+07
-1.08956e+07
-1.44967e+07
-1.46021e+07
-1.45036e+07
-1.05451e+07
-1.40819e+07
-1.44583e+07
-1.49571e+07
-3.77697e+07
-2.34063e+07
-2.05922e+07
-3.52492e+07
-3.89539e+07
-2.27003e+07
-3.42184e+07
-3.5831e+07
-2.04809e+07
-2.15796e+07
-3.19836e+07
-2.21948e+07
-3.29407e+07
-3.46995e+07
-1.48223e+07
-1.52922e+07
-1.02182e+07
-1.46255e+07
-1.42615e+07
-1.41052e+07
-1.0146e+07
-1.45757e+07
-1.53548e+07
-1.50892e+07
-3.67538e+07
-3.49431e+07
-3.12165e+07
-8.23917e+07
-3.25842e+07
-3.27137e+07
-3.43857e+07
-3.51129e+07
-8.52053e+07
-3.357e+07
-3.01257e+07
-1.95948e+07
-1.95973e+07
-2.78713e+07
-2.91758e+07
-2.01084e+07
-2.86555e+07
-3.18114e+07
-1.97387e+07
-2.1107e+07
-3.07196e+07
-3.28682e+07
-2.05424e+07
-2.98405e+07
-2.80406e+07
-2.68346e+07
-2.33728e+07
-6.12337e+07
-2.41229e+07
-2.52331e+07
-2.62941e+07
-2.59161e+07
-6.34473e+07
-2.50246e+07
-1.49162e+07
-1.47791e+07
-1.08936e+07
-1.38906e+07
-1.39774e+07
-1.41941e+07
-1.08411e+07
-1.41744e+07
-1.44465e+07
-1.46404e+07
-1.50636e+07
-1.51078e+07
-1.43587e+07
-1.05213e+07
-1.45647e+07
-1.5183e+07
-1.52644e+07
-1.44101e+07
-1.06558e+07
-1.43281e+07
-2.86221e+07
-2.99829e+07
-3.01751e+07
-7.37081e+07
-2.89761e+07
-3.21119e+07
-3.05877e+07
-2.68952e+07
-7.10983e+07
-2.79396e+07
-2.2516e+07
-2.3354e+07
-2.25594e+07
-5.49039e+07
-2.19374e+07
-2.47384e+07
-2.38006e+07
-2.069e+07
-5.31056e+07
-2.12068e+07
-1.36549e+07
-1.39503e+07
-1.08816e+07
-1.37078e+07
-1.35599e+07
-1.31591e+07
-1.09096e+07
-1.3398e+07
-1.43143e+07
-1.40748e+07
-2.01987e+07
-1.60531e+07
-1.57734e+07
-2.11614e+07
-2.06526e+07
-1.56795e+07
-2.07018e+07
-1.9502e+07
-1.56199e+07
-1.49493e+07
-1.96386e+07
-1.53338e+07
-2.00815e+07
-1.90792e+07
-1.35078e+07
-1.31859e+07
-1.22565e+07
-1.25673e+07
-1.29625e+07
-1.27294e+07
-1.26583e+07
-1.30446e+07
-2.21101e+07
-2.13495e+07
-1.86163e+07
-4.65656e+07
-1.89967e+07
-2.02655e+07
-2.09783e+07
-2.00322e+07
-4.80009e+07
-1.95971e+07
-1.74658e+07
-1.40645e+07
-1.32198e+07
-1.75415e+07
-1.70361e+07
-1.3721e+07
-1.80197e+07
-1.80467e+07
-1.42653e+07
-1.45735e+07
-1.90495e+07
-1.84631e+07
-1.41507e+07
-1.86021e+07
-1.78605e+07
-1.71025e+07
-1.52561e+07
-3.68985e+07
-1.56247e+07
-1.59199e+07
-1.67687e+07
-1.64036e+07
-3.78268e+07
-1.60566e+07
-1.0801e+07
-9.80396e+06
-7.6979e+06
-9.0401e+06
-1.04102e+07
-9.46758e+06
-7.97131e+06
-9.39736e+06
-1.10811e+07
-1.17783e+07
-1.20459e+07
-1.16061e+07
-1.24932e+07
-1.19844e+07
-1.07202e+07
-1.13615e+07
-1.81854e+07
-1.88949e+07
-1.80669e+07
-4.24387e+07
-1.77176e+07
-1.99194e+07
-1.92245e+07
-1.68707e+07
-4.12749e+07
-1.72107e+07
-1.21478e+07
-1.39269e+07
-1.48268e+07
-3.44008e+07
-1.43949e+07
-1.5544e+07
-1.44827e+07
-1.32921e+07
-3.40394e+07
-1.3648e+07
-2.98604e+06
-4.77303e+06
-7.1074e+06
-5.39771e+06
-3.07488e+06
-4.70667e+06
-7.38239e+06
-5.50726e+06
-9.41962e+06
-5.00919e+06
-2.17183e+06
-1.00133e+07
-1.09919e+07
-4.10553e+06
-8.25589e+06
-1.05623e+07
-3.43296e+06
-1.31953e+07
-3.20455e+07
-1.28668e+07
-2.77544e+07
-1.07113e+07
-1.46881e+06
-3.04984e+06
-8.97912e+06
-2.43332e+06
-1.5109e+06
-1.60014e+06
-2.54475e+06
-1.81885e+06
-1.48873e+06
-1.17197e+07
-8.02936e+06
-3.57505e+07
-1.16063e+07
-7.12971e+06
-1.38733e+07
-3.13871e+07
-1.15146e+07
-8.28393e+07
-5.14059e+07
-5.73633e+07
-4.41156e+07
-1.01735e+08
-6.07358e+07
-6.45929e+07
-5.33899e+07
-1.05591e+08
-6.30464e+07
-5.33991e+07
-7.76012e+07
-4.3997e+07
-4.88286e+07
-4.7692e+07
-4.6842e+07
-4.35487e+07
-7.33474e+07
-1.01172e+08
-6.22992e+07
-6.21089e+07
-5.55688e+07
-1.04689e+08
-6.2184e+07
-5.5149e+07
-3.32458e+07
-1.98843e+07
-2.12718e+07
-2.31625e+07
-3.39244e+07
-2.29189e+07
-1.927e+07
-5.28676e+07
-3.19972e+07
-5.06807e+07
-3.34886e+07
-5.50186e+07
-3.7212e+07
-5.76538e+07
-3.52425e+07
-3.07134e+07
-2.02798e+07
-2.18969e+07
-1.80421e+07
-3.01849e+07
-2.20114e+07
-1.85514e+07
-2.76643e+07
-1.84695e+07
-2.06198e+07
-2.20518e+07
-2.20447e+07
-1.87491e+07
-2.73572e+07
-4.67676e+07
-3.05956e+07
-4.87394e+07
-2.93396e+07
-4.48935e+07
-2.69894e+07
-2.81062e+07
-4.30489e+07
-2.96536e+07
-2.0666e+07
-2.21832e+07
-1.86434e+07
-2.97538e+07
-2.23222e+07
-1.8395e+07
-2.18093e+07
-1.75612e+07
-1.88065e+07
-1.99359e+07
-2.19851e+07
-1.98241e+07
-1.7397e+07
-2.04098e+07
-1.79848e+07
-1.87065e+07
-1.65226e+07
-2.02103e+07
-1.87913e+07
-1.66882e+07
-1.85189e+07
-1.53618e+07
-1.66366e+07
-1.72335e+07
-1.73277e+07
-1.55158e+07
-1.83379e+07
-1.97042e+07
-1.74558e+07
-1.84415e+07
-1.64184e+07
-1.99189e+07
-1.83104e+07
-1.62668e+07
-1.40768e+07
-1.21607e+07
-1.2736e+07
-1.36892e+07
-1.44285e+07
-1.34304e+07
-1.18656e+07
-1.23319e+07
-1.09056e+07
-1.12732e+07
-9.48775e+06
-1.19857e+07
-1.16443e+07
-9.99294e+06
-8.14075e+06
-4.20187e+06
-5.82648e+06
-6.15187e+06
-6.82356e+06
-4.94009e+06
-7.47118e+06
-1.09763e+07
-9.33405e+06
-1.0723e+07
-8.97499e+06
-1.15279e+07
-1.02294e+07
-8.39094e+06
-7.4517e+07
-5.93535e+07
-6.18633e+07
-4.03305e+07
-5.54323e+07
-5.04334e+07
-3.20012e+07
-3.71253e+07
-5.68756e+07
-4.98378e+07
-3.62866e+07
-4.17233e+07
-5.40651e+07
-5.2175e+07
-6.44108e+07
-3.80502e+07
-3.93708e+07
-3.99386e+07
-6.823e+07
-3.90367e+07
-4.07218e+07
-4.71097e+07
-3.04321e+07
-2.80169e+07
-3.07258e+07
-2.81942e+07
-3.10395e+07
-4.49117e+07
-3.71819e+07
-3.11465e+07
-2.11388e+07
-2.28587e+07
-3.27522e+07
-2.83183e+07
-2.43281e+07
-2.53011e+07
-3.5291e+07
-2.21835e+07
-1.99578e+07
-2.32688e+07
-3.43518e+07
-2.07615e+07
-2.38062e+07
-6.84683e+07
-5.19514e+07
-7.44006e+07
-4.67883e+07
-4.11416e+07
-2.65385e+07
-2.56149e+07
-2.82803e+07
-4.31994e+07
-2.52676e+07
-2.76698e+07
-6.40318e+07
-3.95933e+07
-6.03698e+07
-4.26346e+07
-2.19579e+07
-2.22938e+07
-2.27314e+07
-2.22346e+07
-1.54397e+07
-1.55564e+07
-1.5606e+07
-1.51638e+07
-1.5809e+07
-1.58651e+07
-2.11291e+07
-1.92885e+07
-2.21723e+07
-2.19537e+07
-2.44438e+07
-2.33036e+07
-2.33526e+07
-2.31288e+07
-2.27016e+07
-2.31255e+07
-1.68052e+07
-1.6523e+07
-1.55569e+07
-1.60994e+07
-2.68596e+07
-1.88888e+07
-2.07485e+07
-2.21315e+07
-2.68435e+07
-1.872e+07
-2.21875e+07
-3.77173e+07
-2.29883e+07
-2.38918e+07
-3.60965e+07
-3.94816e+07
-2.58872e+07
-4.12208e+07
-2.48749e+07
-2.50158e+07
-2.03147e+07
-1.83739e+07
-2.14504e+07
-1.85966e+07
-2.14858e+07
-2.47784e+07
-1.68107e+07
-1.70938e+07
-1.71167e+07
-1.70672e+07
-2.32747e+07
-2.33005e+07
-2.26831e+07
-2.27205e+07
-2.25782e+07
-1.92892e+07
-1.75944e+07
-2.01837e+07
-2.2358e+07
-1.77866e+07
-2.02549e+07
-3.29286e+07
-2.2126e+07
-3.44169e+07
-2.13319e+07
-2.42285e+07
-2.00269e+07
-1.85051e+07
-2.13022e+07
-2.43141e+07
-1.83341e+07
-2.12456e+07
-2.10582e+07
-2.07349e+07
-1.95943e+07
-1.97847e+07
-1.65499e+07
-1.64676e+07
-1.57707e+07
-1.58991e+07
-1.66266e+07
-1.67047e+07
-1.70732e+07
-1.71143e+07
-2.12431e+07
-2.14012e+07
-2.25264e+07
-2.22969e+07
-1.79794e+07
-1.81708e+07
-1.94134e+07
-1.90798e+07
-1.47651e+07
-1.49146e+07
-1.5681e+07
-1.55478e+07
-1.78665e+07
-1.52248e+07
-1.60981e+07
-1.69771e+07
-1.80986e+07
-1.50739e+07
-1.68351e+07
-1.67908e+07
-1.52546e+07
-1.40998e+07
-1.57606e+07
-1.42673e+07
-1.58737e+07
-1.66176e+07
-1.46606e+07
-1.44987e+07
-1.36099e+07
-1.37882e+07
-1.78075e+07
-1.74881e+07
-1.64036e+07
-1.65958e+07
-1.49244e+07
-1.35778e+07
-1.24149e+07
-1.4003e+07
-1.47072e+07
-1.26711e+07
-1.41853e+07
-1.61294e+07
-1.46605e+07
-1.39303e+07
-1.55027e+07
-1.63919e+07
-1.37499e+07
-1.53317e+07
-1.43626e+07
-1.39771e+07
-1.19205e+07
-1.23281e+07
-1.17296e+07
-1.13998e+07
-8.94155e+06
-9.47567e+06
-1.19682e+07
-1.22399e+07
-1.34745e+07
-1.32698e+07
-1.46033e+07
-1.48405e+07
-1.6223e+07
-1.59006e+07
-6.58009e+06
-7.45647e+06
-1.14712e+07
-1.08586e+07
-3.45443e+06
-4.25123e+06
-8.42522e+06
-7.7842e+06
-5.89308e+06
-3.47645e+06
-3.43887e+06
-5.14977e+06
-6.78185e+06
-2.82437e+06
-4.40284e+06
-1.52179e+07
-2.44999e+07
-1.71346e+07
-2.46572e+07
-9.53535e+06
-5.81723e+06
-1.09968e+07
-5.02059e+06
-1.61896e+07
-1.90069e+07
-2.65114e+07
-2.89328e+07
-1.81272e+07
-1.66634e+07
-2.66603e+07
-2.79177e+06
-2.03456e+06
-5.74028e+06
-4.66803e+06
-1.21794e+07
-1.54194e+07
-1.4711e+07
-2.3772e+07
-1.57366e+07
-1.14016e+07
-1.36434e+07
-1.78241e+07
-2.54175e+07
-1.72703e+07
-8.16969e+07
-4.95514e+07
-5.42722e+07
-3.87794e+07
-8.45789e+07
-5.57471e+07
-4.23076e+07
-9.74915e+07
-5.75092e+07
-5.93303e+07
-4.71452e+07
-8.69907e+07
-6.15953e+07
-4.83037e+07
-8.11722e+07
-4.83737e+07
-4.90426e+07
-4.71393e+07
-8.58024e+07
-4.99197e+07
-4.74015e+07
-9.80519e+07
-6.16317e+07
-5.85051e+07
-5.31591e+07
-9.20185e+07
-5.95167e+07
-5.42796e+07
-3.26905e+07
-2.06669e+07
-2.21076e+07
-1.84213e+07
-3.19166e+07
-2.24655e+07
-1.91614e+07
-3.12118e+07
-2.06044e+07
-2.2309e+07
-1.88282e+07
-3.15128e+07
-2.23482e+07
-1.84136e+07
-2.82404e+07
-2.08088e+07
-2.22145e+07
-1.8786e+07
-2.82102e+07
-2.23498e+07
-1.86185e+07
-2.90843e+07
-2.04158e+07
-2.20036e+07
-1.82259e+07
-2.86824e+07
-2.20126e+07
-1.85785e+07
-2.14452e+07
-1.86417e+07
-1.945e+07
-1.70752e+07
-2.12377e+07
-1.95265e+07
-1.72496e+07
-2.0723e+07
-1.81387e+07
-1.91864e+07
-1.69971e+07
-2.09157e+07
-1.90669e+07
-1.68443e+07
-1.87644e+07
-1.6782e+07
-1.77057e+07
-1.58261e+07
-1.89869e+07
-1.75707e+07
-1.56794e+07
-1.94288e+07
-1.73077e+07
-1.79674e+07
-1.59512e+07
-1.92436e+07
-1.80536e+07
-1.61051e+07
-1.3767e+07
-1.24371e+07
-1.2831e+07
-1.1189e+07
-1.35001e+07
-1.30838e+07
-1.15413e+07
-1.27234e+07
-1.13232e+07
-1.24395e+07
-1.08402e+07
-1.31546e+07
-1.20921e+07
-1.04293e+07
-8.69429e+06
-6.53059e+06
-8.22442e+06
-6.36074e+06
-9.43347e+06
-7.5237e+06
-5.58997e+06
-1.0494e+07
-8.75602e+06
-9.10765e+06
-7.12227e+06
-1.00466e+07
-9.64773e+06
-7.81738e+06
-6.48318e+07
-6.79238e+07
-1.02266e+08
-1.18307e+08
-7.37261e+07
-8.5163e+07
-9.83665e+07
-8.41278e+07
-6.72564e+07
-1.22548e+08
-6.75343e+07
-9.41801e+07
-8.3554e+07
-1.14233e+08
-8.62402e+07
-8.12632e+07
-1.22092e+08
-1.3614e+08
-1.86366e+08
-1.23849e+08
-2.09726e+08
-1.1663e+08
-7.68636e+07
-8.43932e+07
-1.0105e+08
-1.53281e+08
-2.59179e+08
-1.64555e+08
-2.33126e+08
-6.15291e+07
-6.3419e+07
-8.74138e+07
-6.30815e+07
-1.25581e+08
-7.40742e+07
-6.27614e+07
-7.82216e+07
-8.01142e+07
-8.85779e+07
-7.80302e+07
-6.68774e+07
-1.23698e+08
-6.36145e+07
-9.14393e+07
-7.66494e+07
-1.38054e+08
-9.3808e+07
-1.01334e+08
-1.22459e+08
-1.33158e+08
-1.88989e+08
-2.82223e+08
-1.75911e+08
-3.08146e+08
-4.53142e+07
-3.02605e+07
-3.47784e+07
-3.96775e+07
-3.54127e+07
-2.38665e+07
-3.79659e+07
-2.76416e+07
-2.89021e+07
-2.86007e+07
-3.14197e+07
-3.11281e+07
-3.3066e+07
-3.27621e+07
-3.9077e+07
-3.54277e+07
-3.42969e+07
-3.95341e+07
-5.14744e+07
-4.53049e+07
-4.41621e+07
-4.14086e+07
-4.4442e+07
-3.39534e+07
-2.30191e+07
-3.52287e+07
-4.04528e+07
-4.03115e+07
-2.96717e+07
-4.14812e+07
-3.44224e+07
-4.74378e+07
-4.2673e+07
-8.05578e+07
-4.78668e+07
-3.99076e+07
-4.86495e+07
-4.35408e+07
-4.64778e+07
-5.01356e+07
-3.93215e+07
-8.33176e+07
-4.13635e+07
-5.36989e+07
-4.8174e+07
-8.45519e+07
-6.54411e+07
-6.73615e+07
-7.61581e+07
-1.00337e+08
-1.67963e+08
-1.0743e+08
-1.50985e+08
-8.51239e+07
-6.71219e+07
-9.44077e+07
-6.32936e+07
-8.56332e+07
-1.26561e+08
-8.25246e+07
-1.37538e+08
-4.23443e+07
-5.15683e+07
-6.34304e+07
-5.38282e+07
-1.0673e+08
-6.23171e+07
-5.28765e+07
-7.23614e+07
-5.76901e+07
-6.29083e+07
-5.63757e+07
-5.1662e+07
-1.03739e+08
-5.13566e+07
-5.56702e+07
-5.93047e+07
-6.54877e+07
-6.17947e+07
-5.86711e+07
-6.87877e+07
-6.63127e+07
-1.0501e+08
-6.76473e+07
-1.07838e+08
-6.53322e+07
-5.78125e+07
-5.94589e+07
-6.367e+07
-7.24661e+07
-1.18584e+08
-7.27334e+07
-1.1248e+08
-3.90262e+07
-5.17544e+07
-3.59821e+07
-3.94258e+07
-3.84034e+07
-4.7777e+07
-4.05452e+07
-4.25505e+07
-5.52963e+07
-4.34643e+07
-4.25667e+07
-4.00881e+07
-2.94427e+07
-3.06139e+07
-2.87706e+07
-2.68369e+07
-2.25879e+07
-2.19693e+07
-2.40472e+07
-2.55624e+07
-4.74021e+07
-5.30874e+07
-4.81699e+07
-5.7313e+07
-4.21601e+07
-4.75047e+07
-4.54491e+07
-4.4447e+07
-4.68785e+07
-5.81831e+07
-4.82854e+07
-4.46542e+07
-6.08215e+07
-3.86299e+07
-3.51155e+07
-3.8002e+07
-5.65457e+07
-3.51442e+07
-3.81657e+07
-4.92305e+07
-3.10293e+07
-3.06726e+07
-3.29745e+07
-5.24373e+07
-3.07509e+07
-3.26958e+07
-3.41359e+07
-3.46748e+07
-4.55307e+07
-3.42706e+07
-3.13404e+07
-2.7136e+07
-3.11377e+07
-2.69101e+07
-4.13515e+07
-3.04075e+07
-3.07844e+07
-2.9464e+07
-1.93522e+07
-1.90629e+07
-1.98796e+07
-1.97669e+07
-2.09127e+07
-2.08386e+07
-1.99948e+07
-2.01945e+07
-2.69121e+07
-2.32013e+07
-2.36879e+07
-3.11097e+07
-2.00479e+07
-2.40334e+07
-2.15758e+07
-2.54454e+07
-2.67031e+07
-3.44522e+07
-2.64449e+07
-2.31127e+07
-2.69634e+07
-2.9583e+07
-4.00924e+07
-3.43488e+07
-4.47318e+07
-6.55328e+07
-4.45081e+07
-3.60408e+07
-4.24128e+07
-3.97987e+07
-4.05689e+07
-3.67943e+07
-6.30382e+07
-3.52749e+07
-3.75538e+07
-4.17101e+07
-5.57466e+07
-4.61955e+07
-4.38329e+07
-5.58157e+07
-6.56008e+07
-1.07312e+08
-6.64218e+07
-1.0608e+08
-5.4908e+07
-4.08553e+07
-4.20009e+07
-5.49482e+07
-6.54695e+07
-1.03704e+08
-6.44283e+07
-1.04853e+08
-2.72575e+07
-2.47467e+07
-3.46517e+07
-3.23444e+07
-5.24535e+07
-3.48367e+07
-3.19992e+07
-3.57599e+07
-3.35687e+07
-3.52608e+07
-3.87725e+07
-3.21707e+07
-5.39852e+07
-3.23787e+07
-3.76755e+07
-3.68484e+07
-5.79753e+07
-4.86918e+07
-5.02095e+07
-5.79906e+07
-6.52503e+07
-1.03243e+08
-6.39367e+07
-1.02614e+08
-5.82586e+07
-5.46018e+07
-5.90195e+07
-5.13061e+07
-6.34577e+07
-1.02931e+08
-6.50597e+07
-1.02345e+08
-3.59313e+07
-2.28882e+07
-2.2041e+07
-2.49649e+07
-3.71877e+07
-2.13285e+07
-2.44312e+07
-3.98434e+07
-2.55034e+07
-2.30329e+07
-2.5871e+07
-3.81857e+07
-2.38278e+07
-2.66167e+07
-2.2202e+07
-2.17882e+07
-2.80478e+07
-2.75784e+07
-4.33195e+07
-2.84654e+07
-2.66236e+07
-2.82695e+07
-2.81537e+07
-2.74077e+07
-2.77819e+07
-2.6046e+07
-4.25169e+07
-2.64714e+07
-2.75914e+07
-2.75102e+07
-4.82424e+07
-3.15283e+07
-3.13814e+07
-4.93116e+07
-6.49636e+07
-1.06217e+08
-6.37728e+07
-1.07787e+08
-4.77922e+07
-3.09924e+07
-3.08339e+07
-4.68104e+07
-6.52722e+07
-1.09791e+08
-6.65026e+07
-1.08361e+08
-2.20887e+07
-2.26151e+07
-2.68811e+07
-2.56251e+07
-4.05176e+07
-2.76011e+07
-2.58071e+07
-2.71664e+07
-2.72088e+07
-2.72998e+07
-2.7824e+07
-2.67406e+07
-4.13013e+07
-2.59545e+07
-2.73213e+07
-2.7724e+07
-4.98176e+07
-3.13819e+07
-3.12767e+07
-4.89922e+07
-6.75154e+07
-1.12335e+08
-6.84281e+07
-1.11524e+08
-5.0427e+07
-3.22926e+07
-3.20765e+07
-5.12322e+07
-6.75491e+07
-1.10307e+08
-6.65728e+07
-1.1142e+08
-1.57544e+07
-1.77037e+07
-1.18038e+07
-1.5255e+07
-1.15226e+07
-1.52589e+07
-1.5005e+07
-1.0802e+07
-1.63677e+07
-1.44675e+07
-1.49859e+07
-1.09425e+07
-7.24274e+06
-6.49364e+06
-6.6446e+06
-1.64536e+07
-1.49616e+07
-8.22781e+06
-1.68042e+07
-8.28022e+06
-6.32935e+06
-6.94477e+06
-8.63174e+06
-1.75479e+07
-1.56351e+07
-1.71778e+07
-7.42443e+06
-8.42067e+06
-7.90047e+06
-8.77195e+06
-9.36276e+06
-1.99606e+07
-1.72739e+07
-1.06442e+07
-1.93859e+07
-1.00398e+07
-1.0065e+07
-1.14169e+07
-1.24142e+07
-8.72691e+06
-9.00395e+06
-1.6336e+07
-1.81112e+07
-1.86147e+07
-9.50802e+06
-8.03576e+06
-1.06238e+07
-9.6251e+06
-1.50288e+07
-1.5522e+07
-1.41063e+07
-1.47985e+07
-1.0448e+07
-1.43488e+07
-1.0271e+07
-1.04749e+07
-1.4611e+07
-1.58339e+07
-1.43645e+07
-1.05631e+07
-1.71232e+07
-1.651e+07
-1.60319e+07
-1.91843e+07
-1.23452e+07
-1.66897e+07
-1.28175e+07
-1.44634e+07
-1.8048e+07
-2.09399e+07
-1.73638e+07
-1.37132e+07
-1.81703e+07
-1.86389e+07
-1.54337e+07
-3.14942e+07
-1.63868e+07
-2.58557e+07
-1.60155e+07
-3.05462e+07
-1.58727e+07
-1.46063e+07
-1.43228e+07
-2.3354e+07
-2.68375e+07
-2.80498e+07
-1.49961e+07
-1.3894e+07
-1.74723e+07
-1.6701e+07
-1.76862e+07
-1.85657e+07
-2.15937e+07
-1.90748e+07
-2.6573e+07
-2.12072e+07
-1.77226e+07
-1.54156e+07
-1.90461e+07
-2.41055e+07
-1.97837e+07
-1.64237e+07
-1.16505e+07
-2.12009e+07
-1.87138e+07
-1.13702e+07
-2.20628e+07
-1.08625e+07
-1.21008e+07
-1.43076e+07
-1.32812e+07
-1.24055e+07
-1.35257e+07
-2.03282e+07
-2.47178e+07
-2.37478e+07
-1.28625e+07
-1.31074e+07
-1.50938e+07
-1.59585e+07
-2.25263e+07
-2.23499e+07
-2.86906e+07
-2.71181e+07
-4.45733e+07
-2.86017e+07
-2.76922e+07
-2.86363e+07
-2.86923e+07
-2.9457e+07
-3.02833e+07
-2.88601e+07
-4.53917e+07
-2.78738e+07
-2.99324e+07
-2.96788e+07
-5.31049e+07
-3.54298e+07
-3.60881e+07
-5.2784e+07
-6.73552e+07
-1.08589e+08
-6.70245e+07
-1.09577e+08
-5.40347e+07
-3.91795e+07
-5.41807e+07
-3.77988e+07
-6.79813e+07
-1.11309e+08
-6.80172e+07
-1.10762e+08
-2.27811e+07
-2.3078e+07
-3.20873e+07
-3.04105e+07
-3.38619e+07
-4.85358e+07
-3.32636e+07
-2.96701e+07
-3.26019e+07
-3.1152e+07
-3.07866e+07
-2.90941e+07
-4.74532e+07
-2.95278e+07
-3.06643e+07
-3.1413e+07
-5.2344e+07
-3.4578e+07
-3.39409e+07
-5.28446e+07
-6.86821e+07
-1.12268e+08
-6.81068e+07
-1.12632e+08
-5.15263e+07
-3.24852e+07
-5.09418e+07
-3.26748e+07
-6.82663e+07
-1.12049e+08
-6.86621e+07
-1.12091e+08
-2.31522e+07
-2.33813e+07
-2.63084e+07
-2.50907e+07
-3.63253e+07
-2.69003e+07
-2.50135e+07
-2.65722e+07
-2.65159e+07
-2.65746e+07
-2.72668e+07
-2.58023e+07
-3.70934e+07
-2.51479e+07
-2.68319e+07
-2.69334e+07
-4.54836e+07
-3.05401e+07
-3.04531e+07
-4.4396e+07
-6.20542e+07
-1.05343e+08
-6.34318e+07
-1.03571e+08
-4.57953e+07
-3.11219e+07
-4.70231e+07
-3.08651e+07
-6.15165e+07
-1.00884e+08
-6.02319e+07
-1.02698e+08
-2.31775e+07
-2.28041e+07
-2.6996e+07
-2.62451e+07
-3.92756e+07
-2.76205e+07
-2.55457e+07
-2.70977e+07
-2.74216e+07
-2.6661e+07
-2.73861e+07
-2.54159e+07
-3.84787e+07
-2.54228e+07
-2.69497e+07
-2.69818e+07
-4.31735e+07
-3.052e+07
-3.01235e+07
-4.44899e+07
-5.76068e+07
-9.48801e+07
-5.62916e+07
-9.6807e+07
-4.2951e+07
-2.97786e+07
-2.97821e+07
-4.18113e+07
-5.82891e+07
-9.98083e+07
-5.97168e+07
-9.78671e+07
-1.5e+07
-1.46222e+07
-1.18766e+07
-1.5046e+07
-1.15298e+07
-1.62736e+07
-1.6717e+07
-1.11288e+07
-1.51248e+07
-1.49069e+07
-1.49502e+07
-1.15455e+07
-5.38771e+06
-5.86759e+06
-6.22023e+06
-1.61196e+07
-1.48724e+07
-8.24814e+06
-1.59645e+07
-6.25408e+06
-8.39441e+06
-6.34787e+06
-8.64914e+06
-1.54515e+07
-1.42961e+07
-1.56541e+07
-6.4122e+06
-8.4639e+06
-5.03128e+06
-4.81618e+06
-7.22004e+06
-1.48045e+07
-1.41045e+07
-9.60165e+06
-1.48351e+07
-9.32369e+06
-7.42261e+06
-4.84293e+06
-5.11833e+06
-6.92669e+06
-8.85737e+06
-1.45979e+07
-1.5129e+07
-1.51704e+07
-9.16427e+06
-6.71688e+06
-4.79419e+06
-4.67081e+06
-1.62473e+07
-1.58508e+07
-1.44826e+07
-1.51478e+07
-1.04245e+07
-1.44612e+07
-1.07753e+07
-1.10246e+07
-1.44687e+07
-1.43995e+07
-1.45555e+07
-1.06858e+07
-2.62833e+07
-2.05573e+07
-1.85262e+07
-2.18601e+07
-2.60306e+07
-1.87613e+07
-2.18637e+07
-2.55432e+07
-2.04938e+07
-1.87859e+07
-2.18097e+07
-2.55499e+07
-1.86293e+07
-2.18141e+07
-1.53606e+07
-1.2002e+07
-1.53164e+07
-1.53808e+07
-1.23521e+07
-1.70768e+07
-1.6922e+07
-1.26011e+07
-1.49448e+07
-1.53735e+07
-1.54224e+07
-1.23335e+07
-7.05021e+06
-7.36327e+06
-9.27202e+06
-1.42069e+07
-1.43267e+07
-1.12637e+07
-1.40729e+07
-1.1084e+07
-9.40498e+06
-6.88315e+06
-6.51832e+06
-9.04878e+06
-1.07566e+07
-1.41309e+07
-1.46813e+07
-1.43922e+07
-8.87049e+06
-1.09905e+07
-8.05346e+06
-1.44822e+07
-9.85857e+06
-1.46201e+07
-7.82021e+06
-1.46858e+07
-1.01617e+07
-5.71044e+06
-5.32997e+06
-5.89278e+06
-6.25724e+06
-8.33644e+06
-1.05473e+07
-1.4203e+07
-1.44286e+07
-1.43373e+07
-1.03033e+07
-8.52221e+06
-1.70748e+07
-1.72285e+07
-1.5533e+07
-1.51253e+07
-1.30826e+07
-1.56054e+07
-1.28976e+07
-1.26848e+07
-1.56286e+07
-1.54271e+07
-1.56204e+07
-1.29392e+07
-2.31473e+07
-2.30776e+07
-2.59655e+07
-2.52272e+07
-2.6645e+07
-3.48616e+07
-2.63478e+07
-2.45829e+07
-2.62053e+07
-2.57216e+07
-2.61435e+07
-2.45588e+07
-3.41342e+07
-2.44384e+07
-2.58249e+07
-2.59019e+07
-3.77589e+07
-2.84537e+07
-2.78976e+07
-3.90669e+07
-4.9464e+07
-8.24397e+07
-4.82205e+07
-8.43119e+07
-3.76684e+07
-2.75316e+07
-2.76585e+07
-3.65695e+07
-5.02148e+07
-8.74128e+07
-5.15817e+07
-8.54607e+07
-2.30333e+07
-2.29112e+07
-2.49174e+07
-2.38203e+07
-3.19683e+07
-2.51881e+07
-2.369e+07
-2.5015e+07
-2.49501e+07
-2.51322e+07
-2.57787e+07
-2.44695e+07
-3.26282e+07
-2.38472e+07
-2.56099e+07
-2.52723e+07
-4.03098e+07
-2.87483e+07
-2.88258e+07
-3.91694e+07
-5.42661e+07
-9.36968e+07
-5.56836e+07
-9.17072e+07
-4.04559e+07
-2.96042e+07
-4.17952e+07
-2.91086e+07
-5.35207e+07
-8.86293e+07
-5.22254e+07
-9.05652e+07
-2.29942e+07
-1.94596e+07
-1.80734e+07
-2.06524e+07
-2.31193e+07
-1.79122e+07
-2.05693e+07
-2.37495e+07
-1.9846e+07
-1.80415e+07
-2.08654e+07
-2.35264e+07
-1.82427e+07
-2.09168e+07
-2.04184e+07
-2.06012e+07
-2.20939e+07
-2.16243e+07
-2.66306e+07
-2.25542e+07
-2.10829e+07
-2.20222e+07
-2.2631e+07
-2.19337e+07
-2.1924e+07
-2.10703e+07
-2.62103e+07
-2.09302e+07
-2.18604e+07
-2.18645e+07
-2.86064e+07
-2.32423e+07
-2.27249e+07
-2.9532e+07
-3.54981e+07
-6.10437e+07
-3.45457e+07
-6.24145e+07
-2.86303e+07
-2.24491e+07
-2.26076e+07
-2.78878e+07
-3.6014e+07
-6.47754e+07
-3.70541e+07
-6.33121e+07
-2.02373e+07
-1.99037e+07
-2.09293e+07
-2.01364e+07
-2.46355e+07
-2.08718e+07
-2.00003e+07
-2.08283e+07
-2.08512e+07
-2.10729e+07
-2.14728e+07
-2.06509e+07
-2.49832e+07
-2.01453e+07
-2.15932e+07
-2.09636e+07
-3.05768e+07
-2.3651e+07
-2.38168e+07
-2.97359e+07
-3.91399e+07
-6.98392e+07
-4.02698e+07
-6.82252e+07
-3.05672e+07
-2.45058e+07
-2.39562e+07
-3.16089e+07
-3.85425e+07
-6.57359e+07
-3.75163e+07
-6.724e+07
-1.53254e+07
-1.49699e+07
-1.33835e+07
-1.52385e+07
-1.34282e+07
-1.62194e+07
-1.63292e+07
-1.33514e+07
-1.47584e+07
-1.5022e+07
-1.51263e+07
-1.33373e+07
-9.57835e+06
-9.67115e+06
-9.55452e+06
-9.43672e+06
-9.17504e+06
-9.01087e+06
-9.22393e+06
-9.35536e+06
-1.61406e+07
-1.60298e+07
-1.46761e+07
-1.44586e+07
-1.32043e+07
-1.47856e+07
-1.32189e+07
-1.33069e+07
-1.50016e+07
-1.46495e+07
-1.49076e+07
-1.33153e+07
-1.688e+07
-1.68511e+07
-1.53069e+07
-1.49948e+07
-1.34083e+07
-1.54072e+07
-1.33524e+07
-1.33363e+07
-1.55665e+07
-1.52288e+07
-1.54998e+07
-1.3433e+07
-7.87564e+06
-7.58282e+06
-9.79444e+06
-1.39583e+07
-1.14098e+07
-1.46633e+07
-9.67787e+06
-1.41847e+07
-1.15691e+07
-9.95358e+06
-1.17289e+07
-1.43482e+07
-1.40232e+07
-1.39099e+07
-1.16131e+07
-1.00338e+07
-7.99822e+06
-8.24118e+06
-1.69334e+07
-1.69603e+07
-1.56863e+07
-1.31234e+07
-1.53935e+07
-1.56389e+07
-1.32887e+07
-1.3334e+07
-1.54907e+07
-1.51294e+07
-1.55766e+07
-1.32239e+07
-8.71092e+06
-8.89214e+06
-8.62944e+06
-8.40643e+06
-2.18401e+07
-2.15506e+07
-2.29603e+07
-2.20185e+07
-2.79671e+07
-2.30174e+07
-2.1881e+07
-2.29067e+07
-2.29334e+07
-2.31367e+07
-2.36629e+07
-2.2611e+07
-2.84672e+07
-2.20403e+07
-2.36812e+07
-2.31191e+07
-3.51289e+07
-2.62341e+07
-2.63893e+07
-3.40988e+07
-4.62924e+07
-8.12506e+07
-4.75896e+07
-7.93837e+07
-3.51749e+07
-2.71653e+07
-3.64165e+07
-2.65885e+07
-4.55681e+07
-7.64849e+07
-4.43888e+07
-7.82584e+07
-2.20104e+07
-2.2126e+07
-2.41723e+07
-2.35805e+07
-2.476e+07
-3.04783e+07
-2.4696e+07
-2.2977e+07
-2.42216e+07
-2.39743e+07
-2.41235e+07
-2.29559e+07
-2.98942e+07
-2.28164e+07
-2.39493e+07
-2.40034e+07
-3.27648e+07
-2.58277e+07
-2.5255e+07
-3.39118e+07
-4.19121e+07
-7.0896e+07
-4.08059e+07
-7.25448e+07
-3.27503e+07
-2.49212e+07
-3.18086e+07
-2.50873e+07
-4.25816e+07
-7.53537e+07
-4.37956e+07
-7.36089e+07
-1.86049e+07
-1.82769e+07
-1.90511e+07
-1.83743e+07
-2.19674e+07
-1.89399e+07
-1.8249e+07
-1.89162e+07
-1.89699e+07
-1.91757e+07
-1.9478e+07
-1.88346e+07
-2.22118e+07
-1.83865e+07
-1.9643e+07
-1.90249e+07
-2.69024e+07
-2.13329e+07
-2.14808e+07
-2.62536e+07
-3.32008e+07
-6.01726e+07
-3.41593e+07
-5.88472e+07
-2.68704e+07
-2.20602e+07
-2.7688e+07
-2.158e+07
-3.27708e+07
-5.68008e+07
-3.1891e+07
-5.80384e+07
-1.8778e+07
-1.89702e+07
-2.00996e+07
-1.97201e+07
-2.35157e+07
-2.04447e+07
-1.92436e+07
-2.05923e+07
-1.99631e+07
-1.99677e+07
-1.98779e+07
-1.92408e+07
-2.32273e+07
-1.91063e+07
-1.98863e+07
-1.9845e+07
-2.53438e+07
-2.09682e+07
-2.05246e+07
-2.60611e+07
-3.03615e+07
-5.29815e+07
-2.95474e+07
-5.4103e+07
-2.53776e+07
-2.02994e+07
-2.04374e+07
-2.48092e+07
-3.07052e+07
-5.60223e+07
-3.15852e+07
-5.48269e+07
-1.3841e+07
-1.36975e+07
-1.26584e+07
-1.39568e+07
-1.27242e+07
-1.51905e+07
-1.50426e+07
-1.29191e+07
-1.38873e+07
-1.42178e+07
-1.41017e+07
-1.28448e+07
-9.80969e+06
-9.72331e+06
-9.82126e+06
-9.85413e+06
-9.3671e+06
-9.26593e+06
-9.68766e+06
-9.80776e+06
-1.52821e+07
-1.54224e+07
-1.46285e+07
-1.42877e+07
-1.31458e+07
-1.45241e+07
-1.31245e+07
-1.29855e+07
-1.42851e+07
-1.41082e+07
-1.4394e+07
-1.30198e+07
-1.76416e+07
-1.59535e+07
-1.47544e+07
-1.65075e+07
-1.74718e+07
-1.49059e+07
-1.66048e+07
-1.70084e+07
-1.54083e+07
-1.46039e+07
-1.62541e+07
-1.72488e+07
-1.44481e+07