/*--------------------------------*- C++ -*----------------------------------*\
| =========                 |                                                 |
| \\      /  F ield         | OpenFOAM: The Open Source CFD Toolbox           |
|  \\    /   O peration     | Version:  2012                                  |
|   \\  /    A nd           | Website:  www.openfoam.com                      |
|    \\/     M anipulation  |                                                 |
\*---------------------------------------------------------------------------*/
FoamFile
{
    version     2.0;
    format      ascii;
    class       volVectorField;
    location    "0.108/solid";
    object      sigmaMinDir;
}
// * * * * * * * * * * * * * * * * * * * * * * * * * * * * * * * * * * * * * //

dimensions      [1 -1 -2 0 0 0 0];


internalField   nonuniform List<vector> 
3125
(
(-0.689746 0.722086 0.0533155)
(-0.651091 0.756448 -0.0621893)
(0.747714 -0.660187 -0.071252)
(0.737638 -0.671616 -0.0694394)
(-0.646526 0.762309 0.0298317)
(-0.631403 0.774957 0.0277881)
(-0.496558 0.86077 0.111827)
(-0.470692 0.866029 0.168652)
(0.710503 -0.694421 0.113862)
(0.742574 -0.668815 0.0356445)
(-0.701289 0.711217 0.0486192)
(-0.688312 0.724175 0.0423933)
(-0.581702 0.812785 0.0316781)
(-0.563347 0.825291 0.0391767)
(0.746488 -0.621526 -0.237616)
(-0.687128 0.724796 -0.0502613)
(-0.637833 0.762976 0.105052)
(-0.665194 0.746664 0.0032862)
(0.779063 -0.626178 -0.0310118)
(-0.60973 0.791315 -0.0452792)
(-0.62364 0.774533 -0.105692)
(-0.627235 0.777805 -0.0399512)
(-0.646005 0.751638 -0.133109)
(-0.616419 0.720833 -0.316903)
(-0.649115 0.759347 -0.0451928)
(-0.610955 0.781632 -0.125637)
(-0.700631 0.713478 0.00811502)
(0.754726 -0.653115 -0.061877)
(0.746372 -0.662624 -0.0621096)
(0.720608 -0.69334 0.00210351)
(0.751332 -0.656443 -0.0676925)
(0.728431 -0.685061 0.00886871)
(0.738821 -0.671635 -0.0552254)
(0.726117 -0.684668 -0.0631212)
(0.722294 -0.691571 0.00442269)
(0.73046 -0.68122 -0.0486546)
(0.730263 -0.683086 0.0104659)
(-0.661007 0.749654 0.0329904)
(-0.680711 0.732088 0.0260675)
(0.728328 -0.685169 0.00905098)
(-0.689098 0.724119 0.0282015)
(0.726393 -0.687238 0.00752594)
(-0.672132 0.740024 0.0245453)
(-0.615594 0.787598 0.0270876)
(0.728743 -0.684728 0.00901968)
(-0.663266 0.748003 0.0238776)
(0.721232 -0.692678 0.00461855)
(-0.52131 0.85003 0.0754044)
(-0.594951 0.799581 0.0818729)
(0.714568 -0.699562 -0.00224934)
(-0.610604 0.790007 0.0552521)
(0.725925 -0.687668 -0.012069)
(-0.577528 0.806404 0.127175)
(-0.443339 0.855717 0.266832)
(0.715364 -0.69875 -0.00174772)
(-0.558431 0.804121 0.203824)
(0.750124 -0.657159 0.0738658)
(-0.608324 0.790155 0.0748151)
(0.752378 -0.653709 0.0811859)
(0.804735 -0.593172 0.0234113)
(-0.598915 0.797079 -0.0772395)
(-0.598963 0.694121 -0.399299)
(-0.625689 0.778372 -0.0514722)
(-0.670665 0.725756 -0.153254)
(-0.703751 0.710252 -0.016632)
(-0.652176 0.758055 0.00439617)
(-0.64934 0.754603 -0.0945056)
(0.468165 -0.291942 0.834021)
(-0.592236 0.617918 -0.51714)
(0.822082 -0.565184 -0.0689041)
(0.814106 -0.580678 -0.0066729)
(-0.697335 0.716666 0.0106533)
(0.755317 -0.654704 -0.0292983)
(0.737433 -0.673954 -0.0444806)
(-0.660505 0.750812 0.00365477)
(0.750378 -0.657697 -0.0660893)
(0.7909 -0.609221 -0.0576739)
(0.802009 -0.593881 -0.0639233)
(0.680785 -0.342187 0.647642)
(0.379115 -0.10007 0.919923)
(0.413587 -0.202813 0.887588)
(0.351729 -0.0934949 0.931421)
(0.818574 -0.570086 -0.0702705)
(0.804901 -0.589588 -0.0672382)
(0.788983 -0.611933 -0.0551698)
(0.780928 -0.6226 -0.0502056)
(0.761202 -0.447025 0.46983)
(0.803362 -0.543686 0.24293)
(0.729442 -0.683967 0.0101876)
(0.713906 -0.698023 -0.0557005)
(0.713725 -0.699383 -0.0382053)
(0.730246 -0.6831 0.0107339)
(0.722032 -0.690525 -0.0429557)
(0.791974 -0.590338 0.155813)
(0.800142 -0.561896 0.209873)
(0.772748 -0.633182 -0.0440676)
(0.779365 -0.624714 -0.0481902)
(0.729771 -0.683613 0.0103209)
(-0.674912 0.736961 0.0371874)
(-0.70553 0.707854 0.0342107)
(0.730908 -0.682383 0.0112921)
(-0.697346 0.716067 0.0309288)
(0.756717 -0.652855 -0.034058)
(0.763101 -0.645214 -0.0371021)
(0.756817 -0.64795 0.085959)
(0.768061 -0.631565 0.105866)
(0.785689 -0.60191 0.142823)
(0.774223 -0.622548 0.114075)
(0.771148 -0.635249 -0.0423041)
(0.764888 -0.643001 -0.038681)
(0.754723 -0.655224 -0.0327737)
(0.748016 -0.662957 -0.030977)
(0.751368 -0.655021 0.0799588)
(0.726746 -0.686865 0.00750488)
(-0.599032 0.800231 0.0281286)
(-0.644735 0.763954 0.026308)
(0.724002 -0.68977 0.00614277)
(-0.654144 0.755982 0.0242293)
(0.738486 -0.673531 -0.0315355)
(0.745796 -0.665482 -0.0303475)
(0.720741 -0.693191 0.00435311)
(-0.543434 0.837798 0.0526674)
(-0.634728 0.772116 0.0309579)
(0.724394 -0.689359 0.00618517)
(-0.6236 0.780733 0.0397392)
(0.709475 -0.701108 -0.0713688)
(0.723378 -0.688975 -0.0451383)
(0.735903 -0.676311 -0.032412)
(0.72695 -0.685485 -0.0406621)
(-0.70303 0.705948 0.0859425)
(-0.677709 0.713138 0.179293)
(0.737447 -0.675374 0.00644434)
(-0.525284 0.792175 0.3107)
(-0.653137 0.712079 0.257594)
(-0.617171 0.780776 0.0974101)
(-0.321302 0.640894 0.697151)
(0.83089 -0.532112 -0.162722)
(0.821933 -0.56181 -0.09378)
(0.890751 -0.454113 -0.0185421)
(0.883934 -0.379042 -0.273839)
(0.751387 -0.653309 -0.0927658)
(0.781371 -0.620139 -0.0698983)
(0.744796 -0.665243 0.052257)
(-0.64002 0.765608 0.0649545)
(-0.681887 0.731452 -0.00305134)
(0.811034 -0.584833 0.0139318)
(0.738045 -0.655031 -0.161938)
(-0.583166 0.788184 -0.196679)
(-0.566429 0.798291 -0.204672)
(-0.619502 0.781737 -0.0714436)
(-0.614469 0.772364 -0.160878)
(-0.618508 0.770024 -0.15656)
(-0.564747 0.80382 -0.186907)
(-0.574824 0.782893 -0.238025)
(-0.596422 0.786163 -0.161952)
(-0.61071 0.789158 -0.065292)
(-0.681603 0.723366 -0.110264)
(-0.598682 0.798493 -0.0631649)
(-0.636158 0.767032 -0.0834499)
(-0.635853 0.758064 -0.145018)
(-0.571503 0.809572 -0.134078)
(0.76787 -0.640397 -0.0163624)
(0.737231 -0.67523 0.0235445)
(0.711927 -0.702252 -0.00158785)
(0.794162 -0.606334 -0.0408124)
(0.758463 -0.649866 -0.0490712)
(0.806223 -0.591587 -0.00545078)
(0.747293 -0.664032 0.0247743)
(0.765152 -0.642277 -0.0449765)
(0.714123 -0.70002 -0.000416362)
(0.808949 -0.587879 0.000885522)
(0.754663 -0.655707 0.0230548)
(0.770349 -0.637504 -0.0122765)
(0.800747 -0.59839 -0.0271076)
(0.749117 -0.662086 0.0216042)
(0.761214 -0.648052 -0.0241229)
(0.752792 -0.657478 0.0320326)
(0.726683 -0.686933 0.00737478)
(0.803855 -0.594719 0.011264)
(0.799079 -0.601148 -0.00969733)
(0.751663 -0.658852 0.0302723)
(0.762338 -0.647167 0.00399529)
(0.767665 -0.640841 -0.00363906)
(0.725683 -0.688002 0.00609402)
(0.801308 -0.598016 -0.0168084)
(0.752692 -0.657878 0.0255164)
(0.765067 -0.643017 -0.0346667)
(0.807369 -0.590001 0.00738086)
(0.75539 -0.654668 0.028205)
(0.726269 -0.687206 0.0167652)
(0.726867 -0.68611 0.0302832)
(0.729163 -0.684273 0.00957239)
(0.782066 -0.623195 0.000643167)
(0.727805 -0.685782 -0.00198125)
(0.784434 -0.620041 0.0145646)
(0.725561 -0.687529 0.0294114)
(0.720216 -0.693747 -0.00168546)
(0.729479 -0.683937 0.0095123)
(0.780721 -0.624729 0.0137494)
(0.719525 -0.693946 0.026875)
(0.718349 -0.695497 0.0161204)
(0.778639 -0.627472 0.00030677)
(0.720984 -0.692405 0.0275256)
(-0.70423 0.709964 0.00330984)
(-0.706139 0.707765 -0.0209159)
(0.727728 -0.685819 0.00804227)
(0.773192 -0.634072 0.0112859)
(0.771606 -0.6361 -0.00118577)
(0.70845 -0.705433 0.0215365)
(-0.701837 0.712224 -0.0127567)
(0.71017 -0.703876 0.0147538)
(0.727404 -0.68616 0.00815941)
(0.775189 -0.631729 -0.000133882)
(0.714975 -0.698708 0.0248618)
(0.71237 -0.701801 -0.00198645)
(0.777002 -0.629371 0.012646)
(0.713303 -0.700443 0.0240574)
(-0.646581 0.762163 0.0322488)
(-0.670961 0.741483 0.00374779)
(0.718254 -0.695776 0.00242356)
(0.748295 -0.663057 -0.0202519)
(-0.652188 0.757163 0.0367986)
(0.74872 -0.662787 -0.011426)
(-0.666998 0.745002 0.00927886)
(-0.635679 0.769327 0.0636217)
(0.718741 -0.695272 0.00279035)
(0.7393 -0.672654 -0.0311888)
(-0.653526 0.756146 0.0338667)
(-0.629001 0.774448 0.067734)
(0.73946 -0.672235 -0.0360485)
(-0.658805 0.752012 0.021285)
(-0.611791 0.772466 0.170317)
(-0.670072 0.736677 0.0911587)
(0.714271 -0.699743 -0.0132736)
(0.735013 -0.669793 -0.105511)
(0.727947 -0.676335 -0.112535)
(-0.648296 0.755099 0.0976554)
(-0.626385 0.759272 0.176489)
(-0.612803 0.780244 0.125267)
(0.71005 -0.703979 -0.0155841)
(0.728887 -0.681452 -0.0659336)
(-0.645259 0.76203 0.054322)
(-0.617785 0.778737 0.109132)
(0.72949 -0.680426 -0.0697487)
(-0.641813 0.762857 0.0782659)
(0.843489 -0.532362 0.0715349)
(0.783624 -0.613688 0.0965411)
(0.747568 -0.66085 0.0664758)
(0.760108 -0.642634 0.0962146)
(0.727787 -0.679145 0.0953294)
(0.83599 -0.546312 0.0516108)
(0.750161 -0.658763 0.0573649)
(0.785457 -0.611123 0.0979069)
(0.911663 -0.109991 -0.395946)
(-0.636762 0.735434 0.231671)
(-0.556806 0.828287 0.0625075)
(-0.578949 0.73112 0.360945)
(0.711646 -0.565758 -0.416507)
(0.820027 -0.386986 -0.42166)
(-0.686365 0.724529 0.0629343)
(-0.558354 0.742651 0.369743)
(-0.69087 0.720182 -0.0635384)
(-0.669507 0.738748 -0.0775354)
(0.770534 -0.631006 0.0900504)
(0.76942 -0.634431 0.074095)
(0.803776 -0.589599 0.0794759)
(0.720905 -0.686894 0.0920423)
(-0.674416 0.730674 -0.106197)
(0.829596 -0.557674 0.0277585)
(0.78188 -0.620674 0.0585359)
(0.806298 -0.591027 0.023892)
(-0.652942 0.728909 -0.205813)
(-0.672472 0.721561 -0.164716)
(-0.596198 0.77846 -0.196337)
(-0.55389 0.832542 -0.00890619)
(-0.559303 0.806618 -0.191174)
(-0.575394 0.760951 -0.299792)
(-0.59728 0.741817 -0.3049)
(-0.566459 0.796291 -0.212235)
(-0.663294 0.748166 -0.0169908)
(-0.654793 0.740209 -0.152764)
(-0.605806 0.753307 -0.255984)
(-0.580936 0.781038 -0.229111)
(-0.632652 0.77321 -0.0435568)
(-0.634605 0.760165 -0.139377)
(-0.591577 0.772206 -0.231807)
(-0.59688 0.764703 -0.242825)
(-0.653293 0.743196 -0.144458)
(-0.641914 0.742824 -0.190154)
(-0.644141 0.764025 -0.0367298)
(-0.649107 0.737877 -0.184925)
(0.717458 -0.694761 0.0506)
(-0.623327 0.749343 -0.223491)
(-0.690708 0.720797 -0.0580901)
(-0.672275 0.721255 -0.166846)
(-0.687496 0.696606 -0.205159)
(-0.668488 0.696488 -0.260824)
(0.523944 -0.399857 0.752062)
(0.634475 -0.591539 0.497517)
(-0.617767 0.659897 -0.427668)
(-0.593239 0.741714 -0.312935)
(0.569821 -0.523088 0.633784)
(-0.60262 0.678526 -0.420061)
(0.6975 -0.669949 0.254288)
(0.696939 -0.678899 0.231023)
(-0.68959 0.723902 -0.0207653)
(0.744324 -0.667627 0.0160347)
(0.857776 -0.510306 -0.0617156)
(0.823917 -0.563906 -0.0563137)
(0.853272 -0.5139 -0.0885076)
(0.796496 -0.603645 -0.0347335)
(0.744831 -0.665598 -0.0469772)
(0.836508 -0.545887 -0.0475478)
(0.823649 -0.565725 -0.0394615)
(0.849577 -0.526959 -0.0231)
(0.740706 -0.671491 -0.0213271)
(-0.683639 0.729807 0.00451674)
(0.72995 -0.68239 0.0389355)
(0.793993 -0.607783 -0.0132558)
(0.755899 -0.654661 -0.00591404)
(0.714688 -0.696703 0.0618549)
(0.776867 -0.627874 -0.0474511)
(0.727564 -0.683741 0.0561163)
(-0.678982 0.734155 0.000627145)
(-0.675293 0.725437 -0.13312)
(0.743097 -0.668482 -0.0306261)
(-0.703761 0.707651 -0.0628574)
(-0.697774 0.707666 -0.110994)
(0.766602 -0.642108 0.00435169)
(0.842415 -0.536447 -0.0506153)
(0.853195 -0.521587 0.00227014)
(0.849145 -0.527431 -0.0277449)
(0.794969 -0.603756 -0.059189)
(0.853006 -0.519879 -0.0459052)
(0.852116 -0.523298 0.00764322)
(0.847587 -0.529501 -0.0349998)
(0.857052 -0.512252 -0.0553109)
(0.797233 -0.60047 -0.0620894)
(0.853167 -0.520502 -0.0343935)
(0.742158 -0.662663 0.100399)
(0.770125 -0.6215 0.143684)
(0.557735 -0.228044 0.798077)
(0.784753 -0.59733 0.165407)
(0.762571 -0.632358 0.136413)
(0.745311 -0.626075 0.22922)
(0.443405 -0.139247 0.885439)
(0.773955 -0.586205 0.239493)
(0.775217 -0.621544 0.112789)
(0.747504 -0.659799 0.0768356)
(0.755151 -0.629292 0.183679)
(0.729594 -0.663999 0.1637)
(0.647613 -0.596277 0.474395)
(0.377428 -0.150586 0.913713)
(0.667958 -0.522654 0.529779)
(0.715774 -0.668905 0.200581)
(0.728183 -0.637048 0.252822)
(0.73773 -0.557743 0.380364)
(0.353103 -0.109195 0.92919)
(0.689243 -0.572513 0.44404)
(0.848131 -0.529661 -0.0115213)
(0.827409 -0.557591 -0.0669827)
(0.859119 -0.50411 -0.0882451)
(0.813573 -0.577111 -0.0710033)
(0.859143 -0.508515 -0.0573205)
(0.793587 -0.602374 -0.0858252)
(0.831965 -0.554378 -0.0223405)
(0.856976 -0.513266 -0.0463581)
(0.810275 -0.58207 -0.068177)
(0.860186 -0.50539 -0.0682665)
(0.845436 -0.533927 0.0126428)
(0.844572 -0.535004 -0.021661)
(0.848794 -0.527132 -0.0409849)
(0.785554 -0.616458 -0.0537052)
(0.845539 -0.533419 -0.0229911)
(0.846999 -0.53091 -0.0269741)
(0.849105 -0.528101 0.0113865)
(0.842476 -0.538356 -0.0201776)
(0.783893 -0.618757 -0.0514996)
(0.845154 -0.533194 -0.0376694)
(0.768245 -0.634045 0.0882388)
(0.746901 -0.662254 0.0596542)
(0.790994 -0.494137 0.360772)
(0.767632 -0.633245 0.0986978)
(0.784553 -0.605226 0.134826)
(0.780277 -0.614428 0.116812)
(0.799401 -0.528738 0.285297)
(0.766975 -0.635814 0.0865412)
(0.749243 -0.659219 0.0637599)
(0.773482 -0.626102 0.0986009)
(0.755827 -0.6547 0.00972687)
(0.748189 -0.662632 0.0336454)
(0.729796 -0.683594 0.00983884)
(0.795924 -0.605378 -0.00471572)
(0.755613 -0.654833 -0.0155784)
(0.748271 -0.662518 0.0340542)
(0.799916 -0.599955 0.0137408)
(0.74912 -0.662362 -0.00979438)
(0.73033 -0.683015 0.0104393)
(0.743062 -0.668335 0.0344543)
(0.79586 -0.605296 0.0149342)
(0.74346 -0.667903 0.0342602)
(0.792403 -0.609994 -0.00214746)
(0.748783 -0.662677 0.0135222)
(0.742734 -0.667199 0.0565003)
(0.760553 -0.644346 0.0798586)
(0.793923 -0.583906 0.169528)
(0.766941 -0.634846 0.0936594)
(0.758375 -0.647743 0.0727781)
(0.763419 -0.641042 0.079094)
(0.799528 -0.570295 0.188464)
(0.773769 -0.624854 0.10411)
(0.752523 -0.654574 0.0723944)
(0.737136 -0.673675 0.0528426)
(0.841504 -0.539931 -0.0185961)
(0.842072 -0.539205 0.0131327)
(0.837411 -0.546325 -0.0165049)
(0.775175 -0.63013 -0.0451706)
(0.839205 -0.54277 -0.0337105)
(0.838888 -0.544148 0.0130441)
(0.838532 -0.54459 -0.0169083)
(0.842 -0.538316 -0.0353955)
(0.776732 -0.628073 -0.0470179)
(0.839851 -0.542518 -0.0180396)
(0.735137 -0.67791 -0.00337143)
(0.730592 -0.682732 0.0105889)
(0.731559 -0.681039 0.0317407)
(0.788149 -0.615299 0.0151398)
(0.733972 -0.678974 0.0167044)
(0.73261 -0.679884 0.0322576)
(0.785463 -0.618908 0.000275672)
(0.741474 -0.670797 0.0157161)
(0.730224 -0.683128 0.0104427)
(0.738199 -0.67372 0.0341038)
(0.788939 -0.614471 -0.000284542)
(0.742272 -0.670075 -0.00564866)
(0.737366 -0.674664 0.03347)
(0.791974 -0.610363 0.0153145)
(0.830653 -0.556599 -0.014588)
(0.830806 -0.556442 0.0115467)
(0.827124 -0.561883 -0.0123825)
(0.758969 -0.650196 -0.0348003)
(0.828368 -0.559459 -0.0285112)
(0.82827 -0.560222 0.0109233)
(0.828249 -0.560175 -0.014421)
(0.831243 -0.555122 -0.0295773)
(0.760859 -0.647904 -0.0362531)
(0.829961 -0.557666 -0.0131468)
(0.71888 -0.693947 0.0406174)
(0.727922 -0.683663 0.0522973)
(0.759459 -0.644037 0.0918645)
(0.742516 -0.667028 0.0611952)
(0.737774 -0.67324 0.0493814)
(0.742441 -0.667643 0.0550864)
(0.765334 -0.636003 0.0988101)
(0.747681 -0.660559 0.0680855)
(0.720756 -0.691608 0.0467799)
(0.712953 -0.700271 0.0363042)
(0.735884 -0.674572 0.0585497)
(0.724934 -0.687362 0.0447557)
(0.752951 -0.65466 0.0669668)
(0.783199 -0.607492 0.132488)
(0.75997 -0.644475 0.0842513)
(0.731164 -0.680427 0.0491668)
(0.743895 -0.665114 0.0651443)
(0.753613 -0.652931 0.0758252)
(0.776894 -0.617619 0.1224)
(0.747514 -0.661456 0.060816)
(0.833348 -0.552615 0.012171)
(0.833131 -0.55287 -0.0151133)
(0.836565 -0.546922 -0.0321624)
(0.768835 -0.638112 -0.0412984)
(0.835036 -0.549986 -0.0151879)
(0.835734 -0.548911 -0.0156833)
(0.836063 -0.548487 0.0126563)
(0.832567 -0.553746 -0.0140921)
(0.767148 -0.640245 -0.0396391)
(0.833944 -0.550986 -0.0308674)
(0.823115 -0.567799 0.00922652)
(0.823417 -0.567254 -0.0144358)
(0.825283 -0.564046 -0.0275673)
(0.752444 -0.657867 -0.0322386)
(0.824051 -0.566391 -0.0118695)
(0.825861 -0.563694 -0.0142638)
(0.825768 -0.563918 0.010149)
(0.82066 -0.571295 -0.0117901)
(0.750347 -0.660307 -0.0312176)
(0.821925 -0.568955 -0.0270012)
(-0.704717 0.70852 -0.0370743)
(-0.701934 0.711668 -0.0285798)
(0.748561 -0.658693 0.0760274)
(0.733612 -0.678128 0.0442133)
(0.737697 -0.672874 0.055171)
(0.730534 -0.681119 0.0489601)
(0.739976 -0.669174 0.0681263)
(0.729691 -0.682679 0.03873)
(0.707327 -0.70614 0.0324673)
(0.714237 -0.698646 0.0419471)
(-0.69299 0.720876 -0.010167)
(-0.701108 0.712814 -0.018564)
(0.725228 -0.688475 0.00676835)
(0.767925 -0.640536 -0.00224896)
(-0.695834 0.718185 0.00501322)
(-0.699184 0.714714 -0.0180592)
(0.769336 -0.638771 0.00972952)
(-0.686747 0.726853 0.00802995)
(0.725546 -0.68814 0.00673812)
(-0.692961 0.720826 -0.0146773)
(0.765275 -0.64366 0.00747135)
(-0.69479 0.719048 -0.0153668)
(0.764088 -0.645099 -0.0041816)
(-0.683458 0.729966 -0.00586939)
(-0.692797 0.720713 -0.024601)
(-0.698216 0.715083 -0.0339077)
(0.725857 -0.686594 0.0414856)
(0.719844 -0.693447 0.0309309)
(0.722242 -0.690829 0.0334875)
(0.726809 -0.685298 0.0459939)
(-0.694024 0.719289 -0.0308891)
(-0.688516 0.724873 -0.0224717)
(0.820815 -0.571002 -0.014789)
(0.820509 -0.571578 0.00795396)
(0.812635 -0.582604 -0.0140377)
(0.741029 -0.670777 -0.0305673)
(0.814051 -0.580125 -0.0278615)
(0.817721 -0.575581 0.00619686)
(0.818168 -0.574764 -0.015734)
(0.818235 -0.574253 -0.0269405)
(0.743396 -0.668151 -0.0305997)
(0.816923 -0.576614 -0.0124005)
(-0.665598 0.745992 0.0218235)
(0.72296 -0.690869 0.00541141)
(-0.67747 0.735543 -0.00315265)
(0.755593 -0.65504 -0.00141487)
(-0.66113 0.75017 0.0123207)
(-0.680427 0.732795 -0.00554045)
(0.754793 -0.655854 -0.0119143)
(-0.67305 0.739596 0.000985123)
(0.722557 -0.691291 0.00529823)
(-0.688225 0.725408 -0.0113369)
(0.759824 -0.65009 -0.00705466)
(-0.67677 0.736077 0.0131349)
(-0.685857 0.727667 -0.0100514)
(0.760864 -0.648899 0.004074)
(0.806922 -0.590095 -0.0257886)
(0.804857 -0.593386 -0.00993004)
(0.776324 -0.627514 -0.0595584)
(0.714727 -0.696832 -0.0599177)
(0.781647 -0.62067 -0.061619)
(0.796124 -0.60449 -0.0278885)
(0.79973 -0.599237 -0.0366854)
(0.794699 -0.605411 -0.0439441)
(0.719389 -0.692671 -0.0518245)
(0.791572 -0.610024 -0.0358382)
(-0.675977 0.736732 -0.0167533)
(-0.684919 0.728172 -0.0255261)
(0.72909 -0.683967 0.0248314)
(0.714938 -0.699032 0.0147425)
(0.715293 -0.69851 0.0209462)
(0.723077 -0.690077 0.0308734)
(-0.689453 0.723928 -0.0241356)
(-0.673645 0.738916 -0.0143111)
(-0.686524 0.726607 -0.0269701)
(-0.680513 0.732502 -0.0185157)
(0.718886 -0.694571 0.0278159)
(0.723992 -0.688775 0.0377449)
(-0.684963 0.728291 -0.0204463)
(-0.690202 0.723052 -0.0285682)
(0.722734 -0.690252 0.0347512)
(0.71708 -0.696562 0.0244443)
(0.810543 -0.585678 -0.00123199)
(0.811698 -0.583723 -0.0203288)
(0.809162 -0.586812 -0.0301455)
(0.73312 -0.679223 -0.0345209)
(0.807518 -0.589586 -0.0174206)
(0.815242 -0.578862 -0.0173229)
(0.814567 -0.58006 0.00340443)
(0.80094 -0.59827 -0.0238146)
(0.730172 -0.682272 -0.0367985)
(0.803059 -0.594878 -0.0348801)
(0.789268 -0.608776 -0.0802985)
(0.774067 -0.623512 -0.109788)
(0.75831 -0.644445 -0.0982679)
(-0.695976 0.710024 0.107165)
(0.748744 -0.65331 -0.112111)
(0.788302 -0.612358 -0.0599812)
(0.784377 -0.616565 -0.0678251)
(0.733613 -0.658545 -0.16772)
(-0.686516 0.714461 0.135059)
(0.710482 -0.679209 -0.184092)
(0.783155 -0.608748 0.126864)
(0.724209 -0.689286 0.0201522)
(0.722581 -0.691278 0.00341678)
(0.753058 -0.657573 0.0224017)
(0.809741 -0.575658 0.113739)
(0.753523 -0.65738 -0.00744681)
(-0.68157 0.731668 -0.0111166)
(0.71487 -0.698646 0.029221)
(-0.69115 0.721591 0.0402291)
(0.717756 -0.695718 -0.0283486)
(0.739547 -0.659234 0.135948)
(0.742967 -0.657034 -0.127699)
(-0.639533 0.74119 0.204047)
(0.719028 -0.66005 0.217562)
(0.773919 -0.632448 0.0325316)
(-0.631087 0.775618 0.0120565)
(-0.680237 0.726315 -0.0987093)
(-0.641923 0.760719 0.0961339)
(-0.450058 0.639309 0.623483)
(0.749364 -0.661983 0.0152331)
(-0.361337 0.649931 0.668599)
(-0.654517 0.756015 -0.00703014)
(-0.699846 0.710283 -0.0755934)
(-0.686329 0.713179 -0.142573)
(0.752224 -0.65357 0.0836959)
(0.780795 -0.61387 0.116292)
(0.708339 -0.648728 0.278223)
(0.741541 -0.662747 0.104326)
(0.812705 -0.575634 0.0903124)
(0.764941 -0.579191 0.281784)
(0.744449 -0.659335 0.105225)
(0.777364 -0.615665 -0.129079)
(0.823244 -0.533049 0.195261)
(-0.518432 0.62723 0.581215)
(0.798058 -0.599021 0.0653963)
(0.795183 -0.593823 0.122709)
(0.758728 -0.619065 -0.202707)
(-0.631759 0.673166 0.384354)
(0.839292 -0.537625 -0.0809195)
(0.916799 -0.307581 -0.254705)
(0.886821 -0.284619 -0.364062)
(0.924676 -0.289686 -0.247095)
(0.878758 -0.144756 -0.454785)
(-0.697619 0.714912 0.0472101)
(-0.687465 0.725207 0.0382915)
(0.718422 -0.695413 0.0164532)
(-0.620783 0.783419 0.02972)
(-0.654399 0.756108 -0.00790921)
(0.754107 -0.65655 -0.0162511)
(-0.655272 0.750986 0.0814789)
(-0.552969 0.815122 -0.17263)
(-0.574412 0.815311 -0.0729254)
(-0.619661 0.781127 -0.076557)
(-0.604703 0.795224 -0.0442068)
(-0.609629 0.785844 -0.103935)
(-0.546868 0.831713 -0.0958594)
(-0.560669 0.814131 -0.151131)
(-0.605851 0.787691 -0.111747)
(-0.633201 0.770969 -0.0682901)
(-0.687911 0.722781 -0.0660772)
(-0.593109 0.804409 -0.0338685)
(-0.638552 0.768091 -0.0478296)
(-0.658259 0.746317 -0.0985163)
(-0.585969 0.806669 -0.0769792)
(0.726806 -0.686672 -0.0153438)
(-0.695599 0.718136 -0.0205454)
(-0.705093 0.70907 0.00791303)
(0.740558 -0.671776 -0.0170298)
(0.720347 -0.693175 -0.0246945)
(0.750351 -0.661033 -0.00289456)
(-0.69412 0.719605 -0.0191275)
(0.762553 -0.645799 -0.0381655)
(0.787842 -0.614625 0.0392514)
(0.767871 -0.640599 -0.00268682)
(0.785699 -0.617144 0.042546)
(0.766982 -0.641665 0.00203705)
(0.778268 -0.623827 0.0716847)
(0.757907 -0.651722 -0.0288972)
(0.784748 -0.61727 0.0561044)
(0.740591 -0.67159 -0.0221755)
(0.71767 -0.696361 -0.00558756)
(0.774171 -0.632661 0.0199689)
(0.71498 -0.698552 0.0287822)
(0.745159 -0.666853 0.0067027)
(0.764175 -0.64493 -0.0100961)
(0.715516 -0.698447 0.0144383)
(0.744222 -0.667921 -0.00387474)
(0.720691 -0.692654 0.0288872)
(0.727341 -0.686262 0.0043822)
(0.778088 -0.627737 0.0229166)
(0.772075 -0.635526 0.00283186)
(0.722016 -0.691597 0.0196711)
(0.746028 -0.665703 0.0167685)
(0.763667 -0.645606 0.00254873)
(0.785077 -0.618244 0.0377905)
(0.760835 -0.648126 -0.0326127)
(0.784703 -0.618589 0.0398481)
(0.755463 -0.654782 -0.0231571)
(0.778498 -0.62615 0.0433303)
(0.780218 -0.624143 0.0412989)
(0.756786 -0.653594 0.00940626)
(0.742088 -0.670302 -0.000885659)
(0.723076 -0.690769 -0.000262849)
(0.763721 -0.64554 0.00283438)
(0.717957 -0.695538 0.0276569)
(0.741419 -0.671015 -0.00600493)
(0.769613 -0.638451 0.0086949)
(0.712553 -0.701392 0.0177968)
(0.730745 -0.682466 0.0158576)
(0.716889 -0.696896 0.0201633)
(0.730421 -0.68293 0.00955389)
(0.766632 -0.642042 0.00759429)
(0.731065 -0.682252 0.00871513)
(0.768877 -0.639207 0.0155828)
(0.714448 -0.699437 0.018763)
(0.726294 -0.687344 0.00744244)
(0.728897 -0.684566 0.00888935)
(0.766741 -0.641784 0.0148708)
(0.713693 -0.700227 0.0180277)
(0.726122 -0.687401 0.0150874)
(0.765993 -0.642802 0.00778644)
(0.714681 -0.699275 0.0156881)
(0.718124 -0.695895 0.00538026)
(0.709994 -0.704058 0.0144828)
(0.72712 -0.686468 0.00762496)
(0.76233 -0.647077 0.0119633)
(0.762175 -0.647342 0.0061381)
(0.710957 -0.70312 0.0126984)
(0.717784 -0.69617 0.0115942)
(0.723249 -0.69045 0.0137689)
(0.728961 -0.684501 0.0086189)
(0.763482 -0.645804 0.00572449)
(0.713463 -0.700504 0.0162649)
(0.723631 -0.690153 0.00687196)
(0.765246 -0.643599 0.0133969)
(0.711654 -0.70235 0.0159131)
(-0.690261 0.723515 0.00808914)
(-0.702722 0.71143 -0.0069932)
(0.72084 -0.69309 0.00395431)
(0.748517 -0.663109 -0.0029991)
(-0.691803 0.722 0.0111493)
(0.750023 -0.661407 0.00269559)
(-0.701227 0.712905 -0.0067774)
(-0.675144 0.736806 0.036034)
(0.71688 -0.697196 2.32244e-05)
(0.743455 -0.668733 -0.00844745)
(-0.701154 0.71301 3.01568e-06)
(-0.674197 0.737618 0.0371312)
(0.742784 -0.669433 -0.0114471)
(-0.700155 0.71399 0.00083391)
(-0.674798 0.730674 0.103752)
(0.759298 -0.650153 0.0276932)
(0.722806 -0.691033 -0.00495579)
(0.760525 -0.647897 -0.0428011)
(0.759435 -0.64974 -0.0331217)
(0.746415 -0.665353 0.0130389)
(-0.68564 0.720273 0.105378)
(-0.667482 0.742688 0.0536788)
(0.714585 -0.699539 -0.00369466)
(0.739187 -0.673174 -0.020942)
(-0.702602 0.711577 0.00304397)
(-0.66881 0.741577 0.0525048)
(0.742339 -0.669857 -0.0149985)
(-0.702393 0.711784 0.0028802)
(0.932923 -0.294457 -0.207243)
(0.787885 -0.61483 0.0349415)
(0.811705 -0.58382 0.016987)
(0.848749 -0.211954 -0.48446)
(-0.647165 0.761251 0.0409159)
(-0.692441 0.717388 0.0766783)
(-0.671787 0.737588 -0.0683131)
(-0.687764 0.716269 -0.118068)
(0.73058 -0.677078 0.0884196)
(0.708644 -0.694328 0.125426)
(-0.48046 0.875048 -0.0587263)
(-0.49835 0.862637 -0.0866267)
(-0.59696 0.801074 -0.0438127)
(-0.566928 0.822161 -0.0514125)
(-0.578064 0.785907 -0.219527)
(-0.554252 0.829821 -0.0648233)
(-0.630995 0.769555 -0.0981322)
(-0.622 0.782101 -0.0378552)
(-0.567726 0.812108 -0.134791)
(-0.598973 0.785857 -0.153818)
(-0.634476 0.762709 -0.12536)
(-0.630983 0.768517 -0.10603)
(-0.655743 0.754435 -0.0287809)
(-0.634313 0.772089 -0.0390584)
(-0.671353 0.741087 0.0086187)
(-0.625699 0.777505 -0.0631454)
(-0.670918 0.741111 -0.0249629)
(-0.64792 0.759494 -0.0580341)
(-0.516662 0.852875 -0.0752663)
(-0.525914 0.840351 -0.131243)
(-0.583406 0.810948 -0.0447244)
(-0.58643 0.80734 -0.0655875)
(-0.701069 0.71128 -0.050818)
(0.715108 -0.679198 0.165257)
(0.768118 -0.640129 0.0151174)
(0.778152 -0.625526 0.0565358)
(0.711367 -0.70223 -0.0288096)
(-0.692728 0.721066 0.0138815)
(-0.689144 0.724186 -0.0251956)
(0.745164 -0.66687 0.00370264)
(0.721334 -0.692559 -0.0062641)
(-0.687207 0.726331 -0.0138012)
(0.732685 -0.680027 -0.0271262)
(0.728162 -0.673619 0.12656)
(0.700492 -0.642236 0.311197)
(0.704607 -0.695473 0.140876)
(0.727741 -0.633652 0.262448)
(-0.674629 0.73602 -0.0561254)
(-0.672032 0.740171 -0.0228126)
(-0.634781 0.772507 -0.0168986)
(-0.682434 0.729825 0.0404953)
(-0.654816 0.755555 -0.0187977)
(-0.656116 0.750357 -0.0804709)
(-0.701797 0.711912 -0.0257368)
(0.742297 -0.669533 0.0268454)
(0.770237 -0.626645 0.118534)
(0.7568 -0.652726 0.0346789)
(0.753991 -0.632495 0.177336)
(0.823448 -0.567392 -0.000504922)
(0.822312 -0.569036 -0.00121227)
(0.829591 -0.558242 0.012041)
(0.831438 -0.555602 0.00419615)
(-0.677585 0.734821 -0.0302813)
(-0.68235 0.730326 -0.0319644)
(0.709637 -0.703846 0.0318794)
(0.708129 -0.705488 0.0289883)
(-0.670118 0.741555 -0.0322187)
(-0.666673 0.74467 -0.0318375)
(-0.600562 0.798799 -0.0352937)
(-0.624753 0.775303 -0.0926818)
(0.818941 -0.573846 0.00606908)
(0.821168 -0.570686 -0.00119954)
(0.781119 -0.62426 -0.0123475)
(0.791696 -0.609859 0.0359241)
(0.827218 -0.561674 0.0152569)
(0.828824 -0.559394 0.0113492)
(0.829881 -0.557857 0.00964349)
(0.828099 -0.560555 0.0055364)
(0.723789 -0.689197 0.0337221)
(0.72264 -0.690478 0.0321231)
(0.713334 -0.699925 0.0354771)
(0.712528 -0.701105 0.0274822)
(0.74194 -0.670367 0.0115525)
(0.721767 -0.691584 0.027634)
(0.729468 -0.683981 0.00675654)
(0.769167 -0.638989 0.00867638)
(0.742294 -0.670051 0.00558357)
(0.717154 -0.696593 0.0211613)
(0.773195 -0.63398 0.0154558)
(0.739987 -0.672572 -0.00813187)
(0.762154 -0.645708 0.0467066)
(0.765005 -0.642355 0.0463371)
(0.739832 -0.672518 0.0192061)
(0.748609 -0.662838 0.015175)
(0.773124 -0.632672 0.0447844)
(0.748199 -0.663315 -0.0145526)
(0.770629 -0.635628 0.0459172)
(0.740039 -0.672545 0.00504481)
(0.730073 -0.683314 0.00866205)
(0.719688 -0.693815 0.0258934)
(0.775285 -0.63126 0.0210723)
(0.721055 -0.692576 0.0204246)
(0.771905 -0.63569 0.00776646)
(0.740754 -0.671504 0.0191496)
(0.724732 -0.688076 0.0362696)
(0.724406 -0.688703 0.0303961)
(0.729503 -0.683194 0.0327294)
(0.727966 -0.684865 0.0320083)
(0.826321 -0.563055 0.0127693)
(0.825386 -0.564459 0.0111559)
(0.822733 -0.56822 0.0153715)
(0.824259 -0.566042 0.0139205)
(0.733669 -0.679462 0.00776088)
(0.730073 -0.683303 0.00953845)
(0.716906 -0.696825 0.0219233)
(0.771133 -0.63642 0.017998)
(0.733841 -0.679087 0.0178292)
(0.71811 -0.695683 0.0185172)
(0.769377 -0.638736 0.00864144)
(0.730728 -0.682327 0.021592)
(0.756461 -0.652394 0.0463553)
(0.731327 -0.682018 -0.00358564)
(0.753362 -0.656004 0.0458835)
(0.737184 -0.675504 0.0159077)
(0.730961 -0.682354 0.00941017)
(0.72003 -0.693517 0.0242972)
(0.768882 -0.639327 0.00901643)
(0.737542 -0.675241 0.00902663)
(0.716647 -0.697121 0.0209784)
(0.771831 -0.635606 0.0168042)
(0.817503 -0.575823 0.0107938)
(0.817409 -0.575928 0.0122518)
(0.81455 -0.579968 0.01203)
(0.816142 -0.57772 0.0123363)
(0.732685 -0.679902 0.0300977)
(0.734579 -0.677944 0.0280508)
(0.738646 -0.67357 0.0265522)
(0.736462 -0.675959 0.0265266)
(0.733598 -0.678927 0.0298708)
(0.731702 -0.680981 0.0296182)
(0.72906 -0.683616 0.0337876)
(0.729995 -0.682781 0.0303007)
(0.818436 -0.574428 0.0139541)
(0.819986 -0.572219 0.0137222)
(0.821691 -0.569797 0.0124208)
(0.82133 -0.570308 0.0128304)
(0.810972 -0.584998 0.0100901)
(0.812622 -0.582695 0.0105676)
(0.813767 -0.581123 0.00888197)
(0.813787 -0.581064 0.0107344)
(0.744639 -0.667051 0.0235675)
(0.742697 -0.669208 0.0237065)
(0.737781 -0.674521 0.0264736)
(0.740394 -0.671699 0.0252325)
(0.714874 -0.699174 0.0105686)
(0.70955 -0.704538 0.0128435)
(0.726948 -0.686653 0.00736317)
(0.759733 -0.650224 0.00376299)
(0.715382 -0.698722 0.0041155)
(0.708119 -0.705972 0.0130713)
(0.7612 -0.648424 0.0109516)
(0.708757 -0.70545 0.00194009)
(0.724984 -0.688737 0.00636445)
(-0.706821 0.707296 -0.0116748)
(0.757584 -0.652673 0.00924344)
(0.707373 -0.70677 0.0100346)
(0.757788 -0.652487 0.00418608)
(0.708096 -0.706081 0.00703486)
(0.74384 -0.667941 0.0236023)
(0.747177 -0.664232 0.022863)
(0.755558 -0.654683 0.0228402)
(0.752773 -0.657889 0.0226941)
(0.81029 -0.585986 0.00710005)
(0.81034 -0.585891 0.00898851)
(0.807531 -0.589766 0.00839351)
(0.809295 -0.587334 0.00902638)
(-0.69646 0.717565 0.00668804)
(0.722165 -0.691705 0.00466553)
(-0.703446 0.710695 -0.00873244)
(0.752081 -0.659049 0.00532081)
(-0.695454 0.718566 0.00269768)
(-0.703714 0.710449 -0.00691716)
(0.75219 -0.658946 0.000449069)