/*--------------------------------*- C++ -*----------------------------------*\
| =========                 |                                                 |
| \\      /  F ield         | OpenFOAM: The Open Source CFD Toolbox           |
|  \\    /   O peration     | Version:  2012                                  |
|   \\  /    A nd           | Website:  www.openfoam.com                      |
|    \\/     M anipulation  |                                                 |
\*---------------------------------------------------------------------------*/
FoamFile
{
    version     2.0;
    format      ascii;
    class       volVectorField;
    location    "0.108/solid";
    object      U;
}
// * * * * * * * * * * * * * * * * * * * * * * * * * * * * * * * * * * * * * //

dimensions      [0 1 -1 0 0 0 0];


internalField   nonuniform List<vector> 
3125
(
(-0.463377 0.0426636 0.0321793)
(-0.432795 0.053642 -0.017912)
(-0.186828 -0.0142784 0.0293365)
(-0.17321 -0.00599522 0.0281412)
(-0.0920967 0.0252484 0.00974759)
(-0.0838206 0.0270212 0.00838485)
(-0.0458756 0.0335604 0.0125234)
(-0.0422515 0.0336864 0.0170545)
(-0.270447 -0.0211081 -0.0120586)
(-0.239732 -0.02975 0.00745834)
(-0.134399 0.0128446 0.0190737)
(-0.12252 0.0170104 0.0161593)
(-0.0639534 0.0306751 0.00653752)
(-0.0587038 0.0315389 0.00684298)
(-0.419654 -0.00437502 0.0807598)
(-0.504499 0.0931282 -0.0202491)
(-1.11111 0.156905 0.046873)
(-1.35144 0.41932 -0.0450684)
(-0.531097 0.0529193 0.0312142)
(-0.964481 0.166263 0.046204)
(-0.410476 0.0862385 -0.0504441)
(-1.12322 0.188105 0.00298641)
(-0.372334 0.0309961 -0.0389026)
(-0.962227 0.0693977 -0.0506057)
(-1.33634 0.418547 -0.025828)
(-0.321594 0.0494497 -0.0464045)
(-0.523551 -0.0116867 0.0644172)
(-0.201306 -0.0225193 0.0275468)
(-0.201096 0.00166562 0.0288867)
(-0.480086 0.0266448 0.0605948)
(-0.209806 -0.0055467 0.0289818)
(-0.431783 0.0602531 0.052982)
(-0.190785 0.00839352 0.0267861)
(-0.159922 0.00142515 0.0254625)
(-0.47378 0.030899 0.059811)
(-0.179273 0.0140327 0.0238789)
(-0.322939 0.0916883 0.0336809)
(-0.101304 0.0230667 0.0114894)
(-0.112221 0.0295075 0.00960391)
(-0.284472 0.0967508 0.0272918)
(-0.121674 0.0282943 0.0111708)
(-0.247478 0.0999739 0.0222862)
(-0.103668 0.0304505 0.00835709)
(-0.0764334 0.0284735 0.00739075)
(-0.279465 0.0972329 0.0265052)
(-0.0959752 0.0311926 0.00742863)
(-0.188591 0.102337 0.0262743)
(-0.0497429 0.0330057 0.00959726)
(-0.0631656 0.0337735 0.0123026)
(-0.168351 0.101668 0.0415752)
(-0.0675258 0.0334466 0.00942926)
(-0.145706 0.0868828 0.0871558)
(-0.0590428 0.0337534 0.0167984)
(-0.0385883 0.0323732 0.0245113)
(-0.165547 0.101248 0.0451421)
(-0.0551854 0.0322895 0.0245469)
(-0.243214 0.00855954 -0.0288529)
(-1.15049 0.254455 0.0313176)
(-0.195836 -0.000350004 -0.0254663)
(-0.112684 -0.0214439 -0.0076216)
(-1.16896 0.283786 -0.00120059)
(-1.00711 0.0929991 -0.0251868)
(-0.917996 0.138758 0.0503156)
(-0.31474 0.000468495 -0.0320937)
(-0.237704 -0.00696601 -0.00186449)
(-0.647004 -0.0152944 0.0639879)
(-0.266241 0.0143215 -0.0255455)
(-0.719123 -0.141654 0.0180738)
(-0.928097 0.012798 -0.0167444)
(-0.118568 -0.0252467 0.00996735)
(-0.110854 -0.0241036 -0.00226661)
(-0.531625 -0.016119 0.0647794)
(-0.21801 -0.0287947 0.0208175)
(-0.224739 -0.0137416 0.0155162)
(-0.626946 -0.0193905 0.0641514)
(-0.216998 -0.0117734 0.0253001)
(-0.126931 -0.0086338 0.0149935)
(-0.130094 -0.0144662 0.0162205)
(-0.461402 -0.0804342 0.0506945)
(-0.52668 -0.135991 0.0485531)
(-0.667058 -0.159072 0.0272766)
(-0.553743 -0.150994 0.0456553)
(-0.122262 -0.0232966 0.012768)
(-0.130997 -0.0169182 0.0157584)
(-0.123533 -0.00679411 0.0145808)
(-0.114604 -0.00273255 0.0123524)
(-0.442744 -0.062175 0.0498428)
(-0.390637 -0.0126201 0.0444855)
(-0.42505 0.0628879 0.0518808)
(-0.146932 0.00769687 0.0222593)
(-0.154997 0.0220034 0.0179106)
(-0.379469 0.0799934 0.0437256)
(-0.167163 0.0185193 0.020805)
(-0.326836 0.0354885 0.0350252)
(-0.374123 0.00100963 0.0422534)
(-0.10032 0.00130158 0.0096561)
(-0.110645 -0.00144942 0.0117867)
(-0.328901 0.0908422 0.0347247)
(-0.111457 0.0203653 0.0136247)
(-0.143186 0.0246752 0.0153153)
(-0.372807 0.0814885 0.0425503)
(-0.132023 0.0267238 0.0130724)
(-0.0752471 0.00616538 0.00564745)
(-0.0836464 0.00479174 0.00701261)
(-0.222588 0.0876731 0.0197121)
(-0.257467 0.0729869 0.0243977)
(-0.311926 0.0445393 0.0327075)
(-0.27025 0.0671094 0.026257)
(-0.0965923 0.0022124 0.00916066)
(-0.086836 0.0041293 0.00738731)
(-0.0726361 0.00665529 0.00540509)
(-0.0657387 0.00766958 0.0044731)
(-0.212092 0.0914975 0.0184966)
(-0.24339 0.100244 0.0218672)
(-0.0698368 0.0296704 0.00675129)
(-0.0828987 0.0322665 0.00660273)
(-0.21712 0.101601 0.0207866)
(-0.0890784 0.0317823 0.0068234)
(-0.0580334 0.00883273 0.0039727)
(-0.0636493 0.00804294 0.00438089)
(-0.191541 0.102312 0.0251048)
(-0.0539945 0.0323083 0.0077979)
(-0.0773172 0.0326821 0.00685859)
(-0.213744 0.101731 0.0209195)
(-0.0722258 0.0330684 0.00772953)
(-0.0459376 0.0108851 0.00673125)
(-0.0501409 0.010137 0.00492222)
(-0.0563263 0.00913807 0.00408601)
(-0.0516152 0.00984348 0.00446497)
(-0.0446201 0.011171 0.00788072)
(-0.0412335 0.0112183 0.0135954)
(-0.143045 0.0818334 0.0959243)
(-0.0296405 0.0151445 0.0175069)
(-0.0416968 0.0101635 0.0181854)
(-0.0605578 0.020988 0.0900454)
(-0.00952839 -0.000143496 0.025266)
(-0.996325 0.0615801 0.0639928)
(-1.20644 0.267471 -0.115026)
(-1.13752 0.154503 -0.0162328)
(-1.05785 0.0790561 0.0390798)
(-1.04196 0.153489 0.0271206)
(-1.26323 0.313939 -0.0973961)
(-1.10353 0.280765 -0.0558122)
(-1.21858 0.347946 -0.0104153)
(-1.03746 0.23658 -0.0169419)
(-1.14813 0.22621 -0.0360826)
(-1.17059 0.22947 0.0183709)
(-0.829043 0.20888 -0.069076)
(-0.942615 0.226713 -0.0360554)
(-1.14332 0.292833 0.0254438)
(-0.714077 0.125845 -0.0362548)
(-0.810401 0.194706 -0.0545365)
(-1.03841 0.308832 -0.0485202)
(-0.745737 0.143153 -0.0596491)
(-0.908707 0.241739 -0.0653496)
(-1.19527 0.32619 0.0154981)
(-1.02087 0.284206 -0.0653558)
(-1.19904 0.394793 -0.0366962)
(-0.988839 0.2653 -0.0455664)
(-0.906187 0.237898 -0.0646634)
(-1.12963 0.369235 -0.050085)
(-0.421873 -0.0259636 0.0552893)
(-0.505908 -0.0370103 0.0613945)
(-0.503592 0.00496613 0.0632345)
(-0.443772 -0.0193179 0.0552307)
(-0.435379 -0.0361116 0.0530533)
(-0.43463 -0.00946032 0.0567578)
(-0.489528 -0.0262557 0.0622499)
(-0.411227 -0.0197735 0.055052)
(-0.496909 0.00963676 0.0626513)
(-0.416128 0.00688751 0.0546205)
(-0.460529 -0.00384828 0.0608653)
(-0.398455 -0.00834659 0.0544368)
(-0.425813 -0.00334582 0.0550228)
(-0.47471 -0.016324 0.0620143)
(-0.363652 0.014313 0.0480052)
(-0.405224 0.03657 0.0517187)
(-0.45009 0.0487987 0.0561451)
(-0.372745 0.0335111 0.0455092)
(-0.384657 0.0262882 0.0473724)
(-0.419173 0.0268169 0.054479)
(-0.350337 0.0232004 0.0453377)
(-0.374781 0.00863281 0.0505289)
(-0.456546 0.0453157 0.0571207)
(-0.406366 0.0126325 0.0519013)
(-0.446776 0.00635452 0.0591753)
(-0.38778 -0.0018992 0.0526229)
(-0.39545 0.0215419 0.0504464)
(-0.432949 0.0179164 0.0568824)
(-0.234774 0.0620863 0.0221291)
(-0.285796 0.0826026 0.0288928)
(-0.305755 0.0942193 0.0307521)
(-0.269042 0.0608616 0.0248939)
(-0.24555 0.0593346 0.0237696)
(-0.258375 0.0627758 0.0236313)
(-0.274287 0.0855017 0.0269986)
(-0.225875 0.0634692 0.0205)
(-0.300283 0.0948822 0.0298231)
(-0.239413 0.0652514 0.0206937)
(-0.252893 0.0898326 0.0236282)
(-0.216081 0.0656501 0.0191891)
(-0.249168 0.0637672 0.0217133)
(-0.263388 0.0875624 0.0251852)
(-0.191936 0.069355 0.0158342)
(-0.216039 0.0958672 0.0190157)
(-0.260531 0.0989734 0.0238081)
(-0.206701 0.068702 0.0165663)
(-0.214659 0.0677771 0.0170165)
(-0.224587 0.09446 0.0198058)
(-0.184031 0.070801 0.0152239)
(-0.199184 0.0684789 0.0168778)
(-0.265044 0.098592 0.0244299)
(-0.231047 0.0660141 0.0190729)
(-0.24299 0.0914242 0.0221351)
(-0.208019 0.0667352 0.0178492)
(-0.222201 0.0671692 0.0183255)
(-0.233496 0.0932101 0.0209501)
(-0.127588 0.0771209 0.0227207)
(-0.156138 0.101925 0.0251612)
(-0.179792 0.102331 0.0311204)
(-0.153179 0.0725515 0.0198829)
(-0.132511 0.0765475 0.0196317)
(-0.148022 0.0729696 0.0228482)
(-0.150754 0.102289 0.0287859)
(-0.123454 0.0773031 0.0256818)
(-0.176942 0.102254 0.0332159)
(-0.138581 0.0732863 0.0303683)
(-0.140485 0.102114 0.0390492)
(-0.118874 0.0775201 0.0305758)
(-0.143463 0.0731133 0.0255999)
(-0.145565 0.102258 0.0331353)
(-0.106815 0.0740292 0.0512535)
(-0.12127 0.0894012 0.0801893)
(-0.154305 0.0968844 0.0650014)
(-0.120223 0.0647028 0.062541)
(-0.125509 0.0702647 0.0508701)
(-0.126053 0.0959184 0.0664429)
(-0.102145 0.0685202 0.0625642)
(-0.110687 0.0760079 0.0430194)
(-0.15703 0.0984612 0.0590955)
(-0.134279 0.0730643 0.0351804)
(-0.13558 0.101237 0.0461666)
(-0.114988 0.0772258 0.0354862)
(-0.129609 0.0720073 0.042707)
(-0.130758 0.0994006 0.0553906)
(-1.26376 0.213068 -0.0555077)
(-0.844065 0.154544 -0.0580471)
(-0.318745 0.0164167 -0.0283864)
(-1.03686 0.183796 -0.0568888)
(-1.08385 0.229176 -0.0551381)
(-1.23966 0.231792 -0.0577264)
(-0.380751 0.0238192 -0.0288786)
(-1.15064 0.183858 -0.0541488)
(-1.05 0.131371 -0.0291863)
(-1.07579 0.154846 0.0705905)
(-1.21982 0.40397 -0.0101498)
(-1.09045 0.202155 0.016804)
(-0.945405 0.00805289 0.107701)
(-1.02248 0.12479 0.0247508)
(-1.26282 0.448755 -0.0281769)
(-1.1232 0.214254 -0.0290602)
(-0.627303 0.0464159 -0.00925091)
(-0.772902 0.124491 -0.0323582)
(-0.714335 0.130125 -0.0561438)
(-0.148382 -0.00937898 -0.0200534)
(-0.547813 0.0741507 -0.0435179)
(-1.02925 0.225149 -0.054531)
(-0.815876 0.140384 -0.0378822)
(-0.39736 0.00793149 -0.0169131)
(-0.129682 -0.0159986 -0.0140124)
(-0.477621 0.0478457 -0.0342649)
(-1.00077 0.239807 0.0131647)
(-1.14868 0.390795 -0.00916415)
(-1.14064 0.250121 -0.0221392)
(-1.22516 0.423647 -0.0161135)
(-1.16147 0.376413 -0.0257838)
(-0.987717 0.195666 -0.00774646)
(-1.08158 0.178132 -0.0285789)
(-1.12358 0.342367 -0.0230748)
(-1.26668 0.471052 -0.0265937)
(-1.19181 0.425409 -0.0152938)
(-0.616557 0.0423324 -0.0263021)
(-0.853405 0.152901 -0.0219817)
(-0.772417 0.0440457 0.0599249)
(-0.647958 0.0854694 -0.0220839)
(-0.679522 0.0998427 -0.0477538)
(-0.772005 0.0803331 -0.00385933)
(-0.584909 0.0325939 -0.00143628)
(-0.571718 0.0110453 -0.0104635)
(-0.737609 0.0267715 0.0608853)
(-0.650146 -0.010059 0.028221)
(-0.511965 -0.017597 0.0285793)
(-0.704812 0.0286493 0.0121242)
(-0.545976 0.00719756 0.0113638)
(-0.531745 -0.0195682 0.0104657)
(-0.953312 0.201222 0.0181791)
(-0.815036 0.0687014 0.0356274)
(-0.780468 -0.107777 0.00654176)
(-0.68242 -0.0622914 0.0382171)
(-0.777382 0.0040494 0.022577)
(-0.943776 0.156726 -0.00206238)
(-0.850739 -0.0567998 -0.0052875)
(-0.81361 0.030353 0.0170528)
(-0.679395 -0.0278537 0.0507369)
(-0.776988 0.0419002 0.0390865)
(-0.603947 0.0335823 -0.00343387)
(-0.524365 -0.0148775 0.0165928)
(-0.347141 -0.0387365 0.0254128)
(-0.113715 -0.0258632 0.00685349)
(-0.346398 -0.0341005 0.0157798)
(-0.479535 -0.0383513 0.0364828)
(-0.513106 -0.0221504 0.0212969)
(-0.375078 -0.00735661 -0.00695145)
(-0.109995 -0.0260477 0.00246672)
(-0.348734 -0.0282954 0.00702685)
(-0.463938 -0.0445755 0.0432524)
(-0.561262 -0.0267054 0.0651806)
(-0.524076 -0.0437698 0.0592097)
(-0.452257 -0.0245747 0.0551194)
(-0.447231 -0.0401321 0.0504752)
(-0.546281 -0.0475963 0.0545492)
(-0.463076 -0.0304574 0.0498597)
(-0.48057 -0.0420453 0.0363317)
(-0.574154 -0.0277854 0.0653919)
(-0.608042 -0.0315731 0.0390664)
(-0.492535 -0.0257989 0.0363078)
(-0.505326 -0.0332834 0.0225627)
(-0.573387 -0.0439217 0.0484143)
(-0.474607 -0.030911 0.0465114)
(-0.448897 -0.0213373 0.0517247)
(-0.441125 -0.00809182 0.0524155)
(-0.354181 0.00193992 0.0387945)
(-0.128094 -0.010327 0.0156928)
(-0.357393 -0.00361479 0.0395923)
(-0.425792 0.00685103 0.0501201)
(-0.436751 -0.00523172 0.0511284)
(-0.362614 -0.0156611 0.0405758)
(-0.130599 -0.0124831 0.0158052)
(-0.36367 -0.00904468 0.0406266)
(-0.524056 -0.0522505 0.0609855)
(-0.495758 -0.0328995 0.0607224)
(-0.481247 -0.0997 0.0509013)
(-0.460056 -0.0279717 0.0574334)
(-0.485002 -0.0523338 0.0588525)
(-0.524232 -0.0798303 0.0581988)
(-0.50278 -0.118187 0.0502423)
(-0.49387 -0.0585102 0.0589195)
(-0.464539 -0.00523473 0.0585146)
(-0.487515 -0.0277279 0.0601954)
(-0.53464 -0.055919 0.0610228)
(-0.575021 -0.0628061 0.0586951)
(-0.657892 -0.072661 0.04191)
(-0.622695 -0.165196 0.0351174)
(-0.594175 -0.0922387 0.0508207)
(-0.654738 -0.0384868 0.0524323)
(-0.591199 -0.0609137 0.0579418)
(-0.535501 -0.0843598 0.0573791)
(-0.58536 -0.161609 0.0410693)
(-0.577629 -0.0932155 0.0529631)
(-0.452259 -0.0241365 0.0522543)
(-0.459001 -0.0355482 0.0482245)
(-0.351139 -0.0365775 0.0309435)
(-0.127067 -0.0214775 0.0140546)
(-0.358789 -0.033031 0.035743)
(-0.475033 -0.039619 0.0390692)
(-0.462294 -0.0368874 0.0474532)
(-0.365265 -0.0216306 0.0402427)
(-0.128338 -0.0190296 0.0154846)
(-0.359652 -0.0282281 0.0382915)
(-0.384445 0.0290204 0.0422035)
(-0.400864 0.0214579 0.0446043)
(-0.345842 0.00668379 0.0370241)
(-0.121297 -0.00539985 0.0137444)
(-0.339462 0.0108712 0.0358006)
(-0.420683 0.00947867 0.0484362)
(-0.406533 0.0192643 0.0464349)
(-0.32149 0.0177885 0.0323827)
(-0.117456 -0.00386461 0.0132072)
(-0.329878 0.0147665 0.0337153)
(-0.407828 0.0434117 0.0504671)
(-0.428883 0.0257871 0.0537598)
(-0.424858 -0.0442603 0.0483876)
(-0.452262 -0.0216508 0.0567714)
(-0.429307 0.00112725 0.0539427)
(-0.399482 0.0260925 0.0493856)
(-0.407527 -0.0280711 0.0466193)
(-0.421828 0.00668435 0.0529332)
(-0.457279 0.000176797 0.0576124)
(-0.435952 0.0210756 0.0548935)
(-0.325519 0.0350355 0.0398609)
(-0.39127 0.0438169 0.0490152)
(-0.405742 0.0714933 0.0484263)
(-0.361334 0.0372164 0.0423749)
(-0.338913 0.027872 0.0425989)
(-0.37723 0.0516383 0.0461707)
(-0.348852 0.0428102 0.0404298)
(-0.314124 0.0387563 0.0371972)
(-0.399007 0.0735483 0.0472528)
(-0.3496 0.0635398 0.0407101)
(-0.324794 0.0499813 0.0355733)
(-0.363384 0.0573766 0.043453)
(-0.337301 0.0456777 0.0374455)
(-0.301024 0.0444352 0.0346211)
(-0.400767 0.0472949 0.0492014)
(-0.379747 0.0614332 0.0456365)
(-0.342196 0.0250273 0.0374625)
(-0.341582 0.0628559 0.0392982)
(-0.36295 0.0502449 0.043127)
(-0.39213 0.0307147 0.0481994)
(-0.35797 0.0138419 0.0398395)
(-0.370139 0.0465235 0.0443624)
(-0.352128 0.0756289 0.0407326)
(-0.372767 0.0645194 0.0443334)
(-0.378545 0.0308112 0.0403562)
(-0.360841 0.0364473 0.0378469)
(-0.282116 0.0271239 0.0255812)
(-0.10359 0.000548004 0.0104253)
(-0.292017 0.02571 0.0268063)
(-0.336944 0.0421272 0.0336214)
(-0.354953 0.0379121 0.0360706)
(-0.311477 0.0209916 0.0302182)
(-0.107481 -0.000530246 0.0109643)
(-0.301971 0.023067 0.028906)
(-0.266978 0.0540668 0.0276646)
(-0.347243 0.0873575 0.0379602)
(-0.297688 0.0799513 0.0310086)
(-0.279079 0.0595917 0.0271097)
(-0.255276 0.0575694 0.0256893)
(-0.31013 0.0762173 0.0332312)
(-0.290567 0.057085 0.028608)
(-0.277446 0.0517954 0.029864)
(-0.353574 0.0861929 0.0390925)
(-0.336136 0.0679796 0.0381101)
(-0.313481 0.052147 0.0328023)
(-0.289964 0.0473424 0.0321548)
(-0.322887 0.0727686 0.0356073)
(-0.301326 0.0554127 0.0311031)
(-0.2865 0.0505804 0.0246977)
(-0.270866 0.0523261 0.0229187)
(-0.211623 0.036178 0.0152019)
(-0.07788 0.00579599 0.0061407)
(-0.219736 0.0359522 0.0158686)
(-0.252001 0.0543444 0.0202011)
(-0.266339 0.0530161 0.0216815)
(-0.236068 0.0342518 0.0181134)
(-0.080782 0.00522768 0.00645021)
(-0.227253 0.0346265 0.0172937)
(-0.294293 0.0966532 0.03059)
(-0.276929 0.101798 0.0278093)
(-0.233638 0.0832282 0.0211136)
(-0.243274 0.100257 0.023069)
(-0.259351 0.0953871 0.0254302)
(-0.282545 0.0877676 0.0291125)
(-0.245258 0.0784847 0.0226614)
(-0.264901 0.093931 0.026271)
(-0.255534 0.106926 0.0245408)
(-0.271409 0.102933 0.026879)
(-0.300306 0.0951963 0.0316641)
(-0.319029 0.0885256 0.0348261)
(-0.334661 0.0658092 0.038095)
(-0.297502 0.0529903 0.0304221)
(-0.314254 0.0757541 0.0344844)
(-0.345342 0.0780404 0.0394584)
(-0.325467 0.0866452 0.0360169)
(-0.288609 0.0859265 0.0301014)
(-0.283602 0.0602911 0.028298)
(-0.307724 0.0780887 0.033372)
(-0.291464 0.0497614 0.026088)
(-0.308238 0.047422 0.0281415)
(-0.272543 0.029316 0.0236073)
(-0.0933753 0.00283434 0.00845818)
(-0.262714 0.0302426 0.0225059)
(-0.331252 0.0433194 0.0319519)
(-0.313599 0.0464315 0.0296753)
(-0.244336 0.0326947 0.0197354)
(-0.0899017 0.00360977 0.00802238)
(-0.253745 0.0320878 0.020702)
(-0.219421 0.0572182 0.0163014)
(-0.231188 0.0564259 0.0170635)
(-0.20484 0.0373097 0.0139806)
(-0.0702406 0.00697064 0.00498641)
(-0.197445 0.037432 0.0134804)
(-0.247904 0.0549222 0.0191203)
(-0.234872 0.0559327 0.0179798)
(-0.184665 0.0384718 0.012157)
(-0.0679007 0.00739602 0.00481519)
(-0.191357 0.0384091 0.0124763)
(-0.218612 0.114148 0.0201342)
(-0.23158 0.111621 0.0213641)
(-0.202133 0.0950865 0.0174529)
(-0.238242 0.10141 0.0223922)
(-0.223713 0.105285 0.0205799)
(-0.206274 0.109389 0.0188806)
(-0.192499 0.0981124 0.0165143)
(-0.219165 0.106218 0.0200933)
(-0.25051 0.107806 0.0237728)
(-0.236116 0.110919 0.0219526)
(-0.170396 0.0726115 0.0143147)
(-0.208035 0.0968251 0.0182746)
(-0.231563 0.100932 0.0210052)
(-0.199909 0.0691704 0.0156023)
(-0.177514 0.0714931 0.0145121)
(-0.200356 0.0979286 0.0179579)
(-0.192717 0.0698857 0.0155073)
(-0.164546 0.0731352 0.0139766)
(-0.227871 0.101133 0.0208275)
(-0.186217 0.0995107 0.0179576)
(-0.180096 0.070831 0.0152802)
(-0.193144 0.0986525 0.0177043)
(-0.186593 0.0702549 0.0149324)
(-0.158152 0.0740312 0.0142685)
(-0.214558 0.114696 0.0197583)
(-0.20289 0.116514 0.0192876)
(-0.176255 0.114862 0.0185975)
(-0.186848 0.113051 0.0181416)
(-0.202289 0.110138 0.0186072)
(-0.190537 0.11252 0.0181479)
(-0.188703 0.118199 0.0195937)
(-0.19925 0.116886 0.0191772)
(-0.21611 0.0576358 0.0155634)
(-0.205475 0.0582439 0.0152554)
(-0.162756 0.0400921 0.0109466)
(-0.059808 0.00861546 0.00412564)
(-0.168249 0.0400887 0.0107871)
(-0.19285 0.0591 0.0149714)
(-0.202492 0.058604 0.0147193)
(-0.179205 0.0393208 0.0113878)
(-0.0616896 0.00828256 0.00412637)
(-0.173152 0.0393383 0.0112817)
(-0.142257 0.0755693 0.0161308)
(-0.200754 0.102127 0.0225227)
(-0.161667 0.10168 0.0226684)
(-0.157985 0.0723357 0.0184441)
(-0.13695 0.0762493 0.0179607)
(-0.16744 0.101132 0.0205953)
(-0.163469 0.0718741 0.0166795)
(-0.147068 0.0752128 0.0153517)
(-0.203869 0.10204 0.0219658)
(-0.179691 0.100051 0.0183376)
(-0.174526 0.0711239 0.0151911)
(-0.152863 0.0744474 0.0144105)
(-0.173402 0.100735 0.0193497)
(-0.168595 0.0716213 0.0161312)
(-0.168184 0.0608311 0.0181623)
(-0.160379 0.0612591 0.0216576)
(-0.128134 0.0429392 0.019496)
(-0.0473045 0.0106575 0.00602542)
(-0.132393 0.042838 0.0167724)
(-0.15062 0.0617645 0.0285194)
(-0.158095 0.061497 0.0227337)
(-0.140567 0.0421077 0.013405)
(-0.0487075 0.0103552 0.005294)
(-0.136107 0.0421983 0.0150693)
(-0.161131 0.120353 0.0270694)
(-0.152898 0.120591 0.0331424)
(-0.130961 0.118219 0.0454466)
(-0.138448 0.118711 0.0352928)
(-0.149019 0.118193 0.0265188)
(-0.140986 0.11874 0.0327004)
(-0.142436 0.119719 0.0457299)
(-0.150249 0.120455 0.0356452)
(-0.163949 0.120297 0.0256339)
(-0.172754 0.119629 0.0222137)
(-0.173006 0.115272 0.0189408)
(-0.163424 0.11668 0.0206542)
(-0.185377 0.118468 0.019839)
(-0.175796 0.119454 0.0214857)
(-0.151754 0.118019 0.0249875)
(-0.160464 0.116984 0.0214771)
(-0.170561 0.0605658 0.0177094)
(-0.178786 0.0601373 0.015697)
(-0.158301 0.0407717 0.010787)
(-0.0546988 0.009344 0.00406201)
(-0.153261 0.0407824 0.0112945)
(-0.190134 0.0594143 0.0146802)
(-0.181298 0.0598509 0.0156736)
(-0.144451 0.0414713 0.0125476)
(-0.0531282 0.00963664 0.00432249)
(-0.149148 0.0414276 0.0115669)
(-0.130531 0.0534177 0.0605462)
(-0.139253 0.0604041 0.0440295)
(-0.12466 0.0434743 0.0225685)
(-0.0433494 0.0113455 0.00911137)
(-0.12063 0.0432003 0.0271293)
(-0.148444 0.0618692 0.0305822)
(-0.141272 0.0609548 0.0402297)
(-0.112238 0.039478 0.0417032)
(-0.0423668 0.0114624 0.0111203)
(-0.117643 0.0428311 0.0328828)
(-0.122898 0.1026 0.0948602)
(-0.130043 0.11342 0.0720651)
(-0.128612 0.117674 0.0496044)
(-0.121546 0.114236 0.0653325)
(-0.112646 0.101674 0.0938859)
(-0.119333 0.112248 0.0716196)
(-0.139913 0.119083 0.0498397)
(-0.132457 0.115458 0.0657121)
(-0.0936755 0.0473245 0.0948561)
(-0.116462 0.0795181 0.0957867)
(-0.135926 0.0588432 0.124703)
(-0.115759 0.0565725 0.0767405)
(-0.0983095 0.0609704 0.0763453)
(-0.112175 0.06553 0.114006)
(-0.111012 0.0428289 0.095128)
(-0.0737268 0.0308509 0.101753)
(-0.099133 0.0596016 0.129325)
(-0.0664447 0.0205855 0.0902919)
(-0.0146547 -0.000881148 0.0272135)
(-0.0898766 0.0143609 0.0913636)
(-0.0104282 -0.000157133 0.0256307)
(-0.0809543 0.0302903 0.101918)
(-0.134108 0.0505457 0.133164)
(-0.108381 0.059068 0.130257)
(-0.106994 0.022926 0.102911)
(-0.120618 0.0972972 0.103474)
(-0.114267 0.0761161 0.130782)
(-0.102535 0.0695317 0.136552)
(-0.110535 0.0964639 0.102338)
(-0.10426 0.0762207 0.129018)
(-0.112685 0.0693003 0.138667)
(-0.127409 0.0493259 0.0673614)
(-0.119534 0.0271972 0.0949357)
(-0.0171966 -0.00192724 0.0288476)
(-0.10009 0.00904563 0.0912163)
(-0.11763 0.0171737 0.103526)
(-0.104742 0.0329737 0.0534879)
(-0.0401341 0.00557651 0.0307401)
(-0.0989056 0.0216785 0.0688375)
(-1.02452 0.010938 -0.00206453)
(-0.99854 0.111222 -0.150325)
(-1.10589 0.104615 -0.079112)
(-0.967838 0.0235433 -0.0789908)
(-1.24459 0.331223 -0.0326915)
(-1.34147 0.39801 -0.0628978)
(-1.2999 0.368629 -0.0429317)
(-1.32374 0.439109 -0.0431913)
(-1.23466 0.360794 -0.0410969)
(-1.31322 0.352762 -0.0480877)
(-1.31106 0.399158 -0.0487235)
(-0.914753 0.214898 -0.0241637)
(-0.959772 0.213004 0.0200019)
(-1.02366 0.207139 0.0415399)
(-0.871959 0.132929 0.0146308)
(-0.928624 0.172669 0.00768117)
(-1.01928 0.258382 0.0122791)
(-0.864178 0.177026 -0.0154414)
(-1.1681 0.366183 -0.0487989)
(-1.29944 0.397205 -0.00949381)
(-1.26679 0.368865 -0.036485)
(-1.31193 0.451576 -0.0368041)
(-1.20995 0.37425 -0.044502)
(-1.21527 0.344946 -0.0308613)
(-1.27669 0.440556 -0.0290465)
(-0.494157 -0.0187875 0.0618054)
(-0.521616 -0.0176981 0.0642752)
(-0.516692 -0.00627832 0.0639684)
(-0.509759 -0.0173263 0.0623328)
(-0.500428 -0.0233018 0.0616539)
(-0.504135 -0.0117059 0.0624539)
(-0.514612 -0.0127674 0.0640269)
(-0.395734 -0.0329692 0.0549521)
(-0.447633 -0.0346697 0.0598591)
(-0.381113 -0.0202728 0.0543887)
(-0.464143 -0.0489461 0.0603796)
(-0.40872 -0.039726 0.0540868)
(-0.500867 -0.073138 0.0577634)
(-0.425221 -0.0510042 0.0512191)
(-0.481467 -0.0607108 0.0599546)
(-0.463615 0.00585255 0.0603096)
(-0.485407 0.0209441 0.0611455)
(-0.472148 0.019177 0.0595022)
(-0.474781 0.0199975 0.0608889)
(-0.457945 0.0110786 0.0593846)
(-0.477246 0.013466 0.0600736)
(-0.480088 0.0141066 0.0615242)
(-0.414551 0.0406406 0.0515854)
(-0.423717 0.0563324 0.0524402)
(-0.437886 0.0566128 0.0539346)
(-0.424906 0.0499806 0.0511492)
(-0.431162 0.0463781 0.0521596)
(-0.429756 0.0523706 0.0535077)
(-0.408138 0.0442391 0.0501931)
(-0.354899 -0.00154182 0.0509268)
(-0.432102 -0.0226403 0.0583577)
(-0.368939 -0.0133993 0.0533301)
(-0.416644 -0.00919938 0.0562846)
(-0.342899 0.00452981 0.0489147)
(-0.386595 0.0130511 0.0510439)
(-0.401675 0.00149478 0.0537964)
(-0.329043 0.014678 0.0457508)
(-0.445969 0.0199288 0.0574311)
(-0.468326 0.035967 0.0587982)
(-0.466152 0.0223811 0.0584905)
(-0.467541 0.0245394 0.0599961)
(-0.451685 0.0151337 0.058559)
(-0.460852 0.0274302 0.057683)
(-0.462109 0.0299112 0.0589458)
(-0.293602 0.079282 0.0287152)
(-0.312813 0.0927354 0.0323033)
(-0.317104 0.0925423 0.0326558)
(-0.316426 0.0790791 0.0314581)
(-0.299328 0.0782862 0.0297505)
(-0.310534 0.0799323 0.0305585)
(-0.307016 0.0937069 0.0313055)
(-0.266725 0.0836986 0.0244499)
(-0.289649 0.0961841 0.0280819)
(-0.278088 0.0840684 0.025377)
(-0.274292 0.0988981 0.0260121)
(-0.261627 0.0843857 0.0236545)
(-0.28337 0.0835003 0.0260764)
(-0.279428 0.0982485 0.0267553)
(-0.229897 0.0882164 0.0195935)
(-0.237316 0.103038 0.021218)
(-0.251743 0.0996769 0.0227338)
(-0.241498 0.0873625 0.0206227)
(-0.24584 0.0870556 0.0209945)
(-0.241543 0.10269 0.0216092)
(-0.225726 0.0886164 0.019159)
(-0.252014 0.0855683 0.0222547)
(-0.274528 0.0976701 0.025766)
(-0.273283 0.084536 0.0245697)
(-0.269232 0.0995622 0.0252269)
(-0.256806 0.0850025 0.0229794)
(-0.268315 0.0849819 0.0239348)
(-0.264325 0.10006 0.0245284)
(-0.166559 0.0927655 0.0250176)
(-0.178905 0.106424 0.0260932)
(-0.185607 0.102315 0.0276632)
(-0.183591 0.0903795 0.0242145)
(-0.169359 0.0926875 0.0236751)
(-0.180615 0.0904106 0.025569)
(-0.175974 0.106378 0.0275759)
(-0.153221 0.092939 0.0353146)
(-0.171211 0.101934 0.0383997)
(-0.163795 0.0903635 0.0383888)
(-0.159216 0.105759 0.042225)
(-0.150565 0.0927528 0.0383142)
(-0.166619 0.0905192 0.0353899)
(-0.161969 0.106063 0.0389079)
(-0.132934 0.0832342 0.0724619)
(-0.137853 0.090361 0.088047)
(-0.148553 0.0911127 0.0790915)
(-0.14202 0.0773769 0.0803165)
(-0.144904 0.081413 0.0727506)
(-0.140515 0.0946446 0.0800699)
(-0.13033 0.0792136 0.0797601)
(-0.145504 0.0918803 0.0454764)
(-0.162673 0.100561 0.0492538)
(-0.16119 0.0901362 0.0415593)
(-0.15653 0.105313 0.0459238)
(-0.148072 0.0924622 0.0416488)
(-0.158376 0.0895857 0.0454163)
(-0.153774 0.104532 0.0501702)
(-1.14275 0.21048 -0.141652)
(-1.32671 0.32627 -0.0279933)
(-1.34596 0.331715 -0.0444565)
(-0.889958 0.021031 -0.151167)
(-1.333 0.476333 -0.0573428)
(-1.30429 0.432161 -0.0774238)
(-0.869549 0.0700222 0.0410475)
(-0.926421 0.103215 0.0379023)
(-1.28902 0.311197 -0.0129895)
(-1.23285 0.279069 0.00206789)
(-1.00987 0.237525 0.0541786)
(-1.06779 0.284451 0.0473583)
(-1.33068 0.488302 -0.0347625)
(-1.31141 0.480619 -0.015001)
(-0.779094 0.113552 -0.000884163)
(-0.917882 0.181676 0.0251486)
(-0.863009 0.101477 0.0558252)
(-0.83376 0.113385 0.0200525)
(-0.823155 0.148038 -0.00830088)
(-0.862168 0.138097 0.0322095)
(-0.784169 0.0781098 0.0261249)
(-0.624452 -0.000317727 0.0344786)
(-0.673108 -0.00529293 0.0634902)
(-0.650005 -0.00500248 0.0556289)
(-0.604232 -0.0241123 0.0515051)
(-0.676661 0.0087518 0.0526508)
(-0.626102 -0.0151917 0.0481266)
(-0.603239 -0.0120918 0.0401599)
(-0.962102 0.20114 0.057941)
(-0.905224 0.15553 0.0647558)
(-0.670585 -0.000420059 0.0691687)
(-0.700214 0.0143983 0.0684992)
(-0.827811 0.051977 0.0431444)
(-0.779148 0.0258209 0.049036)
(-0.598216 -0.0464271 0.0573207)
(-0.618627 -0.0417371 0.056073)
(-0.515233 -0.0298539 0.0599226)
(-0.539905 -0.0208759 0.0648488)
(-0.530854 -0.0215498 0.0643224)
(-0.516125 -0.0207825 0.0623955)
(-0.50774 -0.0264471 0.0609304)
(-0.539323 -0.0254269 0.0638688)
(-0.5228 -0.0258497 0.0617343)
(-0.482914 -0.0599022 0.0298373)
(-0.616983 -0.0739699 0.0265519)
(-0.51353 -0.0518123 0.0144167)
(-0.579031 -0.0847863 0.0389229)
(-0.570461 -0.0256723 0.0480187)
(-0.606603 -0.0245412 0.0650906)
(-0.630032 -0.0119711 0.0573294)
(-0.589881 -0.0265883 0.053524)
(-0.586321 -0.0194115 0.0444794)
(-0.609148 -0.0203205 0.0593145)
(-0.57349 -0.0307186 0.0558957)
(-0.461815 -0.0610352 0.0386177)
(-0.522421 -0.0814642 0.0541214)
(-0.440592 -0.0557694 0.0470808)
(-0.548273 -0.0866628 0.0473322)
(-0.510221 -0.0208202 0.0609287)
(-0.505518 -0.0147983 0.06111)
(-0.477055 0.0170185 0.0586874)
(-0.481616 0.0118276 0.058769)
(-0.523752 -0.0156833 0.0645506)
(-0.515415 -0.0104097 0.0643124)
(-0.472966 0.0246462 0.0602364)
(-0.478789 0.0182853 0.0605522)
(-0.533568 -0.0199566 0.0655825)
(-0.543729 -0.0239835 0.0655386)
(-0.64734 -0.0085217 0.0679295)
(-0.62346 -0.0175673 0.0690682)
(-0.515948 -0.0256971 0.0614629)
(-0.521606 -0.0313424 0.0607979)
(-0.583613 -0.0463044 0.0574093)
(-0.568809 -0.0466046 0.0593203)
(-0.432647 0.0467928 0.0515037)
(-0.438594 0.0437265 0.0521088)
(-0.471523 0.0208809 0.0575488)
(-0.466705 0.0255649 0.0569969)
(-0.4222 0.0640133 0.0526337)
(-0.428291 0.0596477 0.0533546)
(-0.46599 0.0296843 0.0591848)
(-0.460231 0.0355725 0.0584076)
(-0.394991 0.050086 0.0475726)
(-0.416447 0.059384 0.0512049)
(-0.418764 0.0659281 0.050646)
(-0.418289 0.052 0.0498352)
(-0.401443 0.0470126 0.0489662)
(-0.410216 0.0627478 0.0499317)
(-0.411917 0.0550033 0.0487426)
(-0.291953 0.0320852 0.03774)
(-0.328529 0.0463932 0.0394975)
(-0.342794 0.038738 0.0423232)
(-0.278816 0.0387714 0.0346132)
(-0.303544 0.0280329 0.0400926)
(-0.371891 0.021987 0.0481615)
(-0.317157 0.0197149 0.0433939)
(-0.357117 0.0314878 0.0452356)
(-0.361832 0.0629743 0.0411796)
(-0.385956 0.0779857 0.0448266)
(-0.370048 0.0787961 0.0425728)
(-0.372603 0.0681536 0.0414831)
(-0.376471 0.0765569 0.0437107)
(-0.379272 0.0661705 0.0425543)
(-0.35524 0.0650839 0.0398487)
(-0.415219 0.0673187 0.0513682)
(-0.408998 0.0710892 0.050321)
(-0.369603 0.0882952 0.0434675)
(-0.375955 0.085779 0.0443773)
(-0.426204 0.0491429 0.0500476)
(-0.420129 0.0518574 0.0492287)
(-0.381669 0.0637854 0.0425529)
(-0.388138 0.0621702 0.0433698)
(-0.311127 0.0760734 0.0318067)
(-0.334939 0.0897708 0.035743)
(-0.318904 0.0916355 0.033375)
(-0.322185 0.0783363 0.0325458)
(-0.305112 0.0772748 0.0307111)
(-0.32489 0.0904226 0.0343732)
(-0.328367 0.0772735 0.0334838)
(-0.255292 0.0473056 0.0296332)
(-0.314799 0.0521829 0.036742)
(-0.267731 0.0419825 0.0324328)
(-0.301261 0.0582864 0.0341743)
(-0.342286 0.0685304 0.0373879)
(-0.366375 0.0831229 0.0413381)
(-0.363111 0.0806359 0.0413215)
(-0.366107 0.0693637 0.0401991)
(-0.348706 0.0667664 0.0386717)
(-0.356729 0.0824797 0.0401094)
(-0.359585 0.0709812 0.0391243)
(-0.325956 0.0740825 0.0325486)
(-0.320221 0.0749125 0.0318415)
(-0.287843 0.0785334 0.0266211)
(-0.293028 0.0781234 0.0272325)
(-0.313252 0.103105 0.0333421)
(-0.30754 0.104258 0.0324351)
(-0.275182 0.109648 0.0271177)
(-0.280241 0.108886 0.0277654)
(-0.319285 0.102026 0.0345002)
(-0.325184 0.100635 0.0353582)
(-0.362825 0.0902065 0.0421547)
(-0.356526 0.0923265 0.0410847)
(-0.331787 0.0732143 0.0338463)
(-0.33783 0.072389 0.0346345)
(-0.375176 0.0651881 0.0410771)
(-0.368865 0.0666774 0.0402402)
(-0.25122 0.0816135 0.0216604)
(-0.255496 0.0814194 0.0219819)
(-0.282941 0.079088 0.025611)
(-0.278094 0.0795661 0.0251255)
(-0.238497 0.113865 0.0222469)
(-0.242659 0.11345 0.0225562)
(-0.270126 0.110253 0.0262439)
(-0.26529 0.110871 0.0256133)
(-0.217911 0.0893148 0.0185034)
(-0.233216 0.103439 0.0208171)
(-0.239332 0.100451 0.0215196)
(-0.237593 0.0876596 0.0201748)
(-0.221818 0.0889966 0.0188405)