/*--------------------------------*- C++ -*----------------------------------*\
| =========                 |                                                 |
| \\      /  F ield         | OpenFOAM: The Open Source CFD Toolbox           |
|  \\    /   O peration     | Version:  2012                                  |
|   \\  /    A nd           | Website:  www.openfoam.com                      |
|    \\/     M anipulation  |                                                 |
\*---------------------------------------------------------------------------*/
FoamFile
{
    version     2.0;
    format      ascii;
    class       volVectorField;
    location    "0.107/fluid";
    object      cellMotionU;
}
// * * * * * * * * * * * * * * * * * * * * * * * * * * * * * * * * * * * * * //

dimensions      [0 1 -1 0 0 0 0];


internalField   nonuniform List<vector> 
16422
(
(-2.26185e-05 -1.54455e-05 1.13994e-06)
(-3.65998e-05 -3.62666e-05 -2.85632e-06)
(-9.48702e-05 -8.36285e-05 -3.08169e-06)
(-0.000178005 -0.000144874 1.56621e-05)
(-0.000249176 -0.000196435 3.30939e-05)
(-0.000307239 -0.000227489 4.43941e-05)
(-0.000355984 -0.000240575 5.09741e-05)
(-0.000395607 -0.000237093 5.38954e-05)
(-0.00042245 -0.000218962 5.33833e-05)
(-0.00043171 -0.000191046 4.97881e-05)
(-0.000418149 -0.000157714 4.38172e-05)
(-0.000378855 -0.00012074 3.61335e-05)
(-0.000313577 -8.22908e-05 2.72167e-05)
(-0.000225808 -4.85185e-05 1.79544e-05)
(-0.000113717 -2.07683e-05 8.37523e-06)
(-1.04165e-05 -3.16081e-05 3.39671e-06)
(-5.06135e-05 -5.1896e-05 -7.42815e-06)
(-0.000120034 -9.41614e-05 -3.14929e-06)
(-0.000205286 -0.000143217 1.47536e-05)
(-0.000286541 -0.000181322 3.28911e-05)
(-0.000357559 -0.000202259 4.63583e-05)
(-0.000419113 -0.000209052 5.51679e-05)
(-0.000468206 -0.000202678 5.94774e-05)
(-0.000499562 -0.000184234 5.94655e-05)
(-0.000508333 -0.000157916 5.57474e-05)
(-0.000489582 -0.000127618 4.9216e-05)
(-0.000439265 -9.40561e-05 4.03223e-05)
(-0.000360672 -6.17445e-05 3.02248e-05)
(-0.000258565 -3.50677e-05 1.98622e-05)
(-0.000129006 -1.45902e-05 9.11221e-06)
(-1.43586e-05 -3.32137e-05 4.33841e-06)
(-6.26418e-05 -4.71081e-05 -6.50547e-06)
(-0.000135113 -6.91946e-05 -3.53115e-06)
(-0.000221001 -9.26493e-05 1.2091e-05)
(-0.000308573 -0.000109383 3.04193e-05)
(-0.00039052 -0.000117419 4.58434e-05)
(-0.000462514 -0.00011854 5.66329e-05)
(-0.000518434 -0.000113062 6.221e-05)
(-0.000552155 -0.000101504 6.27389e-05)
(-0.00055832 -8.55653e-05 5.89803e-05)
(-0.000533084 -6.70667e-05 5.18952e-05)
(-0.000474677 -4.77714e-05 4.23199e-05)
(-0.000385657 -3.00711e-05 3.13812e-05)
(-0.000273687 -1.66314e-05 2.0348e-05)
(-0.000137781 -6.89263e-06 9.49831e-06)
(-2.00314e-05 -3.4239e-05 7.44472e-07)
(-5.89508e-05 -5.89383e-05 -6.28538e-06)
(-0.000148327 -0.000113793 -2.1001e-06)
(-0.000250229 -0.000179144 1.53363e-05)
(-0.000327589 -0.000226131 3.13989e-05)
(-0.000384437 -0.000249986 4.26248e-05)
(-0.0004264 -0.000255347 4.95896e-05)
(-0.000455572 -0.000245683 5.29086e-05)
(-0.000470925 -0.000225253 5.25655e-05)
(-0.00047076 -0.000199277 4.91944e-05)
(-0.000446833 -0.000166347 4.30637e-05)
(-0.000398849 -0.000128354 3.53973e-05)
(-0.000326501 -8.9049e-05 2.66262e-05)
(-0.000232795 -5.3312e-05 1.74884e-05)
(-0.000116474 -2.27838e-05 8.10472e-06)
(-3.712e-05 -5.45096e-05 1.55198e-06)
(-9.10446e-05 -7.9778e-05 -6.69279e-06)
(-0.000180534 -0.000124127 -1.92783e-06)
(-0.000282872 -0.000172779 1.46294e-05)
(-0.000370702 -0.000204695 3.16906e-05)
(-0.000439979 -0.000216702 4.48711e-05)
(-0.000493382 -0.000214486 5.36572e-05)
(-0.000531052 -0.000202411 5.81345e-05)
(-0.00055077 -0.000183466 5.82961e-05)
(-0.0005485 -0.000159701 5.45945e-05)
(-0.000520575 -0.00013209 4.82204e-05)
(-0.000460543 -9.90449e-05 3.9344e-05)
(-0.000374436 -6.70135e-05 2.94753e-05)
(-0.000264937 -3.86221e-05 1.91403e-05)
(-0.000131714 -1.60898e-05 8.77547e-06)
(-6.33163e-05 -4.80919e-05 2.04548e-06)
(-0.000116009 -6.40042e-05 -4.84268e-06)
(-0.000202268 -8.79701e-05 -1.39876e-06)
(-0.000300291 -0.00011015 1.28115e-05)
(-0.00039328 -0.000122395 3.01039e-05)
(-0.000472925 -0.000124354 4.49397e-05)
(-0.000536475 -0.000119773 5.53162e-05)
(-0.000580986 -0.000110928 6.07094e-05)
(-0.000602392 -9.92608e-05 6.12271e-05)
(-0.000597683 -8.50244e-05 5.75808e-05)
(-0.000563242 -6.83038e-05 5.07096e-05)
(-0.000495755 -5.02072e-05 4.13491e-05)
(-0.000398496 -3.28224e-05 3.05636e-05)
(-0.000281817 -1.86167e-05 1.98539e-05)
(-0.000140493 -7.76076e-06 9.16808e-06)
(-8.08072e-05 -7.97451e-05 1.62719e-06)
(-0.000132012 -0.000114096 -2.87625e-06)
(-0.00021869 -0.000166111 1.7793e-06)
(-0.000311546 -0.000220537 1.34707e-05)
(-0.000386706 -0.000256888 2.51587e-05)
(-0.000442819 -0.000272256 3.42551e-05)
(-0.000480248 -0.000268795 4.0013e-05)
(-0.000501985 -0.000252125 4.26029e-05)
(-0.000509833 -0.000229392 4.21184e-05)
(-0.000501215 -0.000203531 3.8982e-05)
(-0.000468584 -0.000168469 3.37041e-05)
(-0.000412839 -0.000128915 2.74112e-05)
(-0.000335968 -9.19191e-05 2.07656e-05)
(-0.00023838 -5.66583e-05 1.35651e-05)
(-0.000118962 -2.44767e-05 6.25443e-06)
(-0.000111248 -9.28024e-05 6.24996e-07)
(-0.000164155 -0.000121439 -2.71786e-06)
(-0.000252282 -0.000162804 1.49515e-06)
(-0.000349871 -0.000202729 1.28362e-05)
(-0.000436913 -0.000225536 2.56054e-05)
(-0.00050615 -0.00022944 3.61162e-05)
(-0.00055509 -0.000218796 4.30022e-05)
(-0.000584221 -0.000200237 4.63035e-05)
(-0.000595067 -0.000180378 4.62794e-05)
(-0.000583653 -0.000158762 4.32265e-05)
(-0.000544489 -0.000130236 3.76998e-05)
(-0.000476758 -9.7992e-05 3.05876e-05)
(-0.00038475 -6.83088e-05 2.28988e-05)
(-0.000272303 -4.13625e-05 1.49699e-05)
(-0.000133882 -1.73823e-05 6.68703e-06)
(-0.000136956 -6.74623e-05 1.12209e-07)
(-0.000188906 -8.40006e-05 -2.10226e-06)
(-0.000273578 -0.000105626 1.25425e-06)
(-0.000371598 -0.00012366 1.17055e-05)
(-0.000465015 -0.000131516 2.49512e-05)
(-0.000543133 -0.000128564 3.64653e-05)
(-0.000601159 -0.000119005 4.43897e-05)
(-0.000636596 -0.000106885 4.83377e-05)
(-0.000648143 -9.49345e-05 4.8445e-05)
(-0.00063239 -8.18242e-05 4.52116e-05)
(-0.000587842 -6.57488e-05 3.96521e-05)
(-0.000511774 -4.85166e-05 3.23668e-05)
(-0.000411653 -3.33567e-05 2.41785e-05)
(-0.000291309 -1.99183e-05 1.56666e-05)
(-0.000142626 -8.3145e-06 6.9814e-06)
(-0.000175742 -0.000136376 1.89531e-06)
(-0.000217796 -0.000170988 9.78452e-07)
(-0.000281791 -0.000212971 3.11546e-06)
(-0.000354108 -0.000252149 8.17333e-06)
(-0.000421011 -0.000278209 1.3903e-05)
(-0.000475163 -0.000287131 1.85468e-05)
(-0.000511239 -0.000277722 2.1512e-05)
(-0.000529199 -0.000255623 2.26299e-05)
(-0.000531811 -0.000229205 2.19127e-05)
(-0.000518728 -0.000202132 2.01092e-05)
(-0.000480127 -0.000165539 1.72147e-05)
(-0.000419376 -0.000125887 1.40173e-05)
(-0.000339909 -9.10743e-05 1.05091e-05)
(-0.000241721 -5.82335e-05 6.8643e-06)
(-0.000120405 -2.54244e-05 3.10157e-06)
(-0.000193792 -0.000131437 5.70409e-07)
(-0.000241159 -0.000160725 1.48002e-07)
(-0.000313796 -0.000194456 2.36607e-06)
(-0.000396797 -0.00022307 7.67775e-06)
(-0.000477277 -0.000237995 1.41035e-05)
(-0.000544601 -0.000236437 1.95311e-05)
(-0.000591105 -0.000220613 2.30005e-05)
(-0.00061612 -0.000197213 2.4413e-05)
(-0.000620527 -0.000175328 2.39834e-05)
(-0.000603288 -0.000153674 2.22235e-05)
(-0.000556128 -0.000124224 1.92941e-05)
(-0.000483438 -9.35321e-05 1.56955e-05)
(-0.000389191 -6.65257e-05 1.16307e-05)
(-0.000276156 -4.21734e-05 7.54324e-06)
(-0.000136883 -1.85339e-05 3.39027e-06)
(-0.00020614 -8.38673e-05 -2.96361e-07)
(-0.000255204 -0.000100266 -3.31677e-07)
(-0.000331042 -0.000117465 1.77911e-06)
(-0.000420225 -0.000129845 7.05107e-06)
(-0.000509886 -0.000134485 1.39205e-05)
(-0.000586318 -0.000129548 1.98945e-05)
(-0.000641156 -0.000117458 2.37024e-05)
(-0.00067102 -0.000103031 2.54103e-05)
(-0.000675528 -9.04371e-05 2.52513e-05)
(-0.00065192 -7.72435e-05 2.3316e-05)
(-0.000598397 -6.09145e-05 2.02029e-05)
(-0.000518291 -4.49944e-05 1.64673e-05)
(-0.000417377 -3.22995e-05 1.22045e-05)
(-0.000296189 -2.03347e-05 7.91414e-06)
(-0.000145147 -8.76587e-06 3.47831e-06)
(-2.34017e-05 -1.30167e-05 2.90088e-07)
(-3.08222e-05 -2.88726e-05 3.47146e-06)
(-2.34778e-05 -1.12133e-05 2.479e-07)
(-3.2748e-05 -2.90146e-05 2.69757e-06)
(-2.23068e-05 -2.3961e-05 1.07998e-06)
(-3.21014e-05 -3.816e-05 -2.99326e-06)
(-3.32007e-05 -3.47759e-05 -3.53549e-08)
(-6.20929e-05 -6.38655e-05 -4.92315e-06)
(-2.19964e-05 -1.62472e-05 1.24807e-06)
(-2.93321e-05 -2.86389e-05 1.09323e-06)
(-1.16249e-05 -2.42148e-05 3.07505e-06)
(-3.14903e-05 -3.57652e-05 -4.33979e-06)
(-3.76078e-05 -3.32493e-05 6.75735e-06)
(-3.15464e-05 -3.85991e-05 6.69503e-06)
(-3.59089e-05 -3.48945e-05 -7.49584e-07)
(-7.06072e-05 -6.59489e-05 -5.21228e-06)
(-4.40857e-05 -4.56492e-05 -4.90054e-06)
(-0.000101571 -8.23675e-05 -5.24974e-06)
(-3.12022e-05 -2.97235e-05 2.7393e-07)
(-1.2478e-05 -2.78084e-05 2.74721e-06)
(-3.5753e-05 -4.02397e-05 -4.82814e-06)
(-1.9183e-05 -2.7781e-05 8.65296e-07)
(-3.66904e-05 -4.14841e-05 -3.97087e-06)
(-2.19349e-05 -4.3451e-05 1.63958e-06)
(-5.51506e-05 -5.8925e-05 -5.99656e-06)
(-2.13161e-05 -3.02751e-05 8.52626e-07)
(-3.90812e-05 -4.61048e-05 -4.04098e-06)
(-5.37098e-05 -6.17317e-05 1.57414e-06)
(-8.69495e-05 -8.48234e-05 -3.38647e-06)
(-3.1151e-05 -3.91013e-05 6.70115e-06)
(-3.06515e-05 -4.12862e-05 6.99258e-06)
(-2.42457e-05 -2.30568e-05 3.80773e-06)
(-3.01543e-05 -3.90049e-05 6.44262e-06)
(-3.51138e-05 -2.97175e-05 6.06701e-06)
(-2.92587e-05 -2.70767e-05 5.36907e-06)
(-3.06309e-05 -4.11914e-05 6.96973e-06)
(-3.75035e-05 -3.47002e-05 7.00619e-06)
(-3.10501e-05 -4.07694e-05 6.98396e-06)
(-3.75102e-05 -3.35456e-05 6.80037e-06)
(-2.45129e-05 -2.15647e-05 3.61615e-06)
(-2.301e-05 -1.4681e-05 3.33556e-07)
(-3.05557e-05 -3.8503e-05 6.43237e-06)
(-2.28043e-05 -2.49956e-05 1.68241e-06)
(-3.75192e-05 -3.47712e-05 7.02129e-06)
(-3.77655e-05 -2.94758e-05 5.56689e-06)
(-3.15098e-05 -2.67019e-05 4.8992e-06)
(-3.23629e-05 -3.07204e-05 1.19471e-06)
(-3.10296e-05 -4.06752e-05 6.96104e-06)
(-3.62306e-05 -3.05087e-05 3.83458e-06)
(-3.06904e-05 -2.77809e-05 3.50102e-06)
(-4.87966e-05 -2.93241e-05 8.42981e-06)
(-3.82276e-05 -7.41238e-06 1.22069e-06)
(-4.45149e-05 -3.11301e-05 7.29108e-06)
(-4.05321e-05 -3.06369e-05 6.87287e-06)
(-2.28353e-05 -1.74971e-05 6.45527e-07)
(-2.86074e-05 -2.15288e-05 1.88938e-06)
(-2.49573e-05 -2.89828e-05 7.92449e-07)
(-3.63593e-05 -7.41569e-06 9.43022e-07)
(-2.76448e-05 -2.62661e-05 2.2527e-06)
(-2.93702e-05 -2.80546e-05 2.21042e-06)
(-4.03595e-05 -3.16812e-05 6.5866e-06)
(-3.09678e-05 -3.38656e-05 -1.04172e-06)
(-3.05328e-05 -3.66442e-05 -1.95322e-06)
(-2.71832e-05 -3.34324e-05 -7.73364e-07)
(-2.99616e-05 -3.3501e-05 2.55891e-07)
(-2.78941e-05 -3.07392e-05 1.02861e-06)
(-2.7215e-05 -3.27462e-05 1.93876e-07)
(-3.50537e-05 -3.45313e-05 6.69752e-06)
(-3.44771e-05 -3.49751e-05 6.68131e-06)
(-4.12302e-05 -2.89812e-05 9.04183e-06)
(-2.0037e-05 -1.20768e-05 -4.76964e-07)
(-2.55203e-05 -2.29108e-05 2.28538e-06)
(-2.43564e-05 -3.49605e-05 4.67567e-06)
(-2.51417e-05 -2.5757e-05 2.97854e-06)
(-4.12719e-05 -2.94503e-05 9.03522e-06)
(-3.35771e-05 -3.17946e-05 7.2326e-06)
(-3.57749e-05 -3.0299e-05 7.04608e-06)
(-3.46085e-05 -3.66845e-05 7.01563e-06)
(-3.72929e-05 -3.10908e-05 5.4074e-06)
(-4.37811e-05 -2.81941e-05 7.85964e-06)
(-3.40136e-05 -3.71296e-05 6.98474e-06)
(-4.28802e-05 -2.82126e-05 8.93391e-06)
(-4.43843e-05 -2.88352e-05 8.57432e-06)
(-2.76797e-05 -2.12846e-05 3.14297e-06)
(-3.37146e-05 -3.45298e-05 6.43511e-06)
(-2.91961e-05 -2.9376e-05 4.38081e-06)
(-2.78492e-05 -2.96724e-05 4.50677e-06)
(-3.05474e-05 -2.37903e-05 3.14813e-06)
(-2.80538e-05 -1.95606e-05 2.45911e-06)
(-2.06753e-05 -1.10657e-05 -4.50439e-07)
(-2.60636e-05 -2.161e-05 2.36891e-06)
(-2.24117e-05 -7.87287e-06 -4.39196e-07)
(-2.74845e-05 -2.22782e-05 3.09908e-06)
(-3.33243e-05 -3.49273e-05 6.42134e-06)
(-2.56883e-05 -3.31422e-05 4.62494e-06)
(-2.57671e-05 -2.4686e-05 3.03179e-06)
(-2.69024e-05 -3.12427e-05 4.56592e-06)
(-2.85481e-05 -1.90001e-05 2.43335e-06)
(-2.61089e-05 -1.10117e-05 1.45123e-07)
(-2.29963e-05 -7.29827e-06 -3.44735e-07)
(-3.02215e-05 -2.07135e-05 2.62107e-06)
(-3.70554e-05 -2.85808e-05 5.77972e-06)
(-3.42152e-05 -3.66836e-05 6.93847e-06)
(-3.85328e-05 -3.10221e-05 5.7353e-06)
(-3.3934e-05 -3.08221e-05 5.065e-06)
(-4.45787e-05 -2.85811e-05 8.05999e-06)
(-3.69385e-05 -2.94599e-05 6.54506e-06)
(-3.38762e-05 -3.09489e-05 4.05975e-06)
(-3.77428e-05 -2.98025e-05 6.40885e-06)
(-3.38069e-05 -3.70822e-05 6.93271e-06)
(-4.31187e-05 -2.87054e-05 8.962e-06)
(-3.51909e-05 -3.06776e-05 7.15696e-06)
(-3.69973e-05 -2.91366e-05 6.9702e-06)
(-4.47552e-05 -2.89553e-05 8.67824e-06)
(-3.66681e-05 -3.01916e-05 6.95683e-06)
(-3.77266e-05 -2.06551e-05 4.16579e-06)
(-3.23186e-05 -2.9665e-05 3.53324e-06)
(-3.70038e-05 -2.55025e-05 3.70419e-06)
(-3.8142e-05 -1.88354e-05 3.81681e-06)
(-3.57494e-05 -1.63601e-05 9.97223e-07)
(-3.70379e-05 -2.02278e-05 2.76083e-06)
(-2.85413e-05 -3.23396e-05 2.45249e-06)
(-2.71757e-05 -3.1916e-05 2.04178e-06)
(-2.65183e-05 -3.20175e-05 9.46129e-07)
(-3.26537e-05 -2.60131e-05 3.19626e-06)
(-3.54392e-05 -2.06651e-05 3.78621e-06)
(-3.47123e-05 -2.96158e-05 4.40764e-06)
(-3.37573e-05 -2.96349e-05 3.96626e-06)
(-3.94598e-05 -2.54174e-05 4.5439e-06)
(-3.80933e-05 -2.52154e-05 4.36711e-06)
(-3.10817e-05 -2.88511e-05 2.89149e-06)
(-3.12593e-05 -2.12911e-05 2.62702e-06)
(-3.64028e-05 -1.88417e-05 3.5353e-06)
(-2.93199e-05 -1.52588e-05 7.01564e-07)
(-3.4455e-05 -1.60243e-05 1.75852e-06)
(-2.96797e-05 -1.7684e-05 1.4892e-06)
(-3.29578e-05 -2.09335e-05 3.07782e-06)
(-3.68933e-05 -1.98468e-05 3.30438e-06)
(-2.6899e-05 -3.21854e-05 7.44842e-08)
(-3.00236e-05 -3.22834e-05 2.74131e-06)
(-3.08091e-05 -3.13405e-05 3.30028e-06)
(-2.86632e-05 -3.19068e-05 2.29517e-06)
(-3.09784e-05 -3.1088e-05 2.64808e-06)
(-2.7961e-05 -3.23732e-05 1.17267e-06)
(-2.93225e-05 -3.14191e-05 2.07785e-06)
(-2.78094e-05 -3.0435e-05 4.46919e-06)
(-3.65856e-05 -3.33963e-05 6.67283e-06)
(-3.48051e-05 -3.21098e-05 5.91171e-06)
(-3.46478e-05 -3.16264e-05 6.30106e-06)
(-3.07054e-05 -2.99652e-05 4.60956e-06)
(-3.81715e-05 -1.63408e-05 3.10143e-06)
(-3.68955e-05 -1.73156e-05 3.15725e-06)
(-2.47681e-05 -3.61022e-05 4.61115e-06)
(-3.29145e-05 -3.69912e-05 6.72033e-06)
(-2.96169e-05 -3.68136e-05 6.42911e-06)
(-2.41131e-05 -3.72706e-05 4.59865e-06)
(-3.045e-05 -3.58828e-05 6.42518e-06)
(-4.1798e-05 -1.36963e-05 2.75912e-06)
(-4.49706e-05 -1.53973e-05 2.54534e-06)
(-3.5234e-05 -1.88756e-05 3.07133e-06)
(-3.65471e-05 -1.77549e-05 3.11708e-06)
(-2.30406e-05 -3.9654e-05 4.5618e-06)
(-2.99576e-05 -4.05766e-05 6.72552e-06)
(-2.8984e-05 -3.79555e-05 6.40166e-06)
(-2.3651e-05 -3.8605e-05 4.55943e-06)
(-2.82077e-05 -3.88499e-05 6.40565e-06)
(-3.8987e-05 -3.09472e-05 9.00941e-06)
(-2.94507e-05 -4.27821e-05 7.0216e-06)
(-3.63083e-05 -3.42964e-05 8.29353e-06)
(-4.73846e-05 -2.85929e-05 1.07548e-05)
(-3.52314e-05 -3.49253e-05 8.29261e-06)
(-4.60334e-05 -2.90501e-05 1.07665e-05)
(-4.05432e-05 -3.10997e-05 9.00467e-06)
(-2.715e-05 -1.90652e-05 1.41782e-06)
(-2.84693e-05 -1.80341e-05 1.4108e-06)
(-1.92496e-05 -4.00336e-05 3.53285e-06)
(-2.89474e-05 -4.04788e-05 6.46998e-06)
(-2.67556e-05 -3.83455e-05 5.68876e-06)
(-2.59958e-05 -3.92792e-05 5.72305e-06)
(-1.98637e-05 -3.89221e-05 3.50557e-06)
(-3.87583e-05 -3.14404e-05 8.89071e-06)
(-2.94298e-05 -4.26864e-05 6.99867e-06)
(-4.72388e-05 -2.8868e-05 1.06626e-05)
(-3.54513e-05 -3.45919e-05 7.96834e-06)
(-4.59058e-05 -2.93671e-05 1.06757e-05)
(-3.44677e-05 -3.53724e-05 7.99429e-06)
(-4.02948e-05 -3.15979e-05 8.87701e-06)
(-4.02307e-05 -3.03014e-05 6.816e-06)
(-3.6181e-05 -3.53318e-05 6.97954e-06)
(-3.58495e-05 -3.31574e-05 5.74361e-06)
(-4.18468e-05 -3.22525e-05 6.64088e-06)
(-4.05255e-05 -3.11794e-05 7.36488e-06)
(-5.12706e-05 -2.89234e-05 9.21667e-06)
(-3.53787e-05 -3.25112e-05 5.10438e-06)
(-4.22908e-05 -3.03723e-05 8.88236e-06)
(-3.24269e-05 -3.91315e-05 7.00195e-06)
(-3.71262e-05 -3.34528e-05 8.29662e-06)
(-4.84918e-05 -2.80655e-05 1.07415e-05)
(-3.81707e-05 -3.31302e-05 8.23697e-06)
(-4.11921e-05 -3.01133e-05 8.98827e-06)
(-4.97758e-05 -2.81787e-05 1.06658e-05)
(-2.38484e-05 -3.06791e-05 3.56822e-06)
(-3.5306e-05 -3.35143e-05 6.50957e-06)
(-3.15117e-05 -3.25631e-05 5.20269e-06)
(-2.98052e-05 -3.24574e-05 5.29413e-06)
(-2.7387e-05 -2.99843e-05 3.99314e-06)
(-3.01536e-05 -1.65505e-05 1.37315e-06)
(-2.87991e-05 -1.75345e-05 1.37175e-06)
(-2.10467e-05 -3.64355e-05 3.44849e-06)
(-3.17513e-05 -3.69423e-05 6.40689e-06)
(-2.74543e-05 -3.72601e-05 5.65616e-06)
(-2.04071e-05 -3.76677e-05 3.47355e-06)
(-2.82426e-05 -3.62482e-05 5.63048e-06)
(-3.41707e-05 -1.37997e-05 1.70822e-06)
(-3.83703e-05 -1.55014e-05 2.10379e-06)
(-4.10762e-05 -3.01002e-05 7.06788e-06)
(-3.58171e-05 -3.54114e-05 6.94179e-06)
(-4.14789e-05 -3.20943e-05 6.72926e-06)
(-3.58211e-05 -3.28059e-05 5.81364e-06)
(-5.05391e-05 -2.91893e-05 9.15859e-06)
(-3.92557e-05 -3.15313e-05 7.08467e-06)
(-3.64015e-05 -3.22128e-05 5.39748e-06)
(-4.20011e-05 -3.04286e-05 8.76248e-06)
(-3.22186e-05 -3.90841e-05 6.93816e-06)
(-4.83339e-05 -2.83224e-05 1.06313e-05)
(-3.63147e-05 -3.37631e-05 7.93637e-06)
(-4.09971e-05 -3.05595e-05 8.85278e-06)
(-4.96404e-05 -2.83917e-05 1.05678e-05)
(-3.73382e-05 -3.33089e-05 7.88659e-06)
(-3.70027e-05 -3.03459e-05 4.19296e-06)
(-3.91508e-05 -3.18613e-05 5.58932e-06)
(-3.80086e-05 -2.7489e-05 5.74013e-06)
(-3.57746e-05 -3.14499e-05 4.84733e-06)
(-4.33956e-05 -2.94346e-05 5.60596e-06)
(-3.40311e-05 -3.12629e-05 4.10242e-06)
(-3.94536e-05 -2.9512e-05 5.26617e-06)
(-4.0571e-05 -1.75546e-05 1.56511e-06)
(-3.82739e-05 -1.23727e-05 2.3588e-06)
(-3.8012e-05 -1.11156e-05 1.15591e-06)
(-4.77815e-05 -1.62178e-05 2.29492e-06)
(-3.98351e-05 -1.53141e-05 6.36186e-07)
(-3.8686e-05 -1.35446e-05 2.08114e-06)
(-2.60148e-05 -3.25479e-05 1.77678e-06)
(-3.39179e-05 -3.26671e-05 4.59567e-06)
(-3.2598e-05 -3.31969e-05 4.0183e-06)
(-3.12707e-05 -3.26333e-05 3.64853e-06)
(-3.23644e-05 -3.20332e-05 4.06351e-06)
(-3.12198e-05 -3.21769e-05 3.48893e-06)
(-2.94969e-05 -3.26554e-05 2.89234e-06)
(-3.85456e-05 -2.99175e-05 5.12263e-06)
(-3.65078e-05 -2.74953e-05 5.475e-06)
(-3.80341e-05 -3.17636e-05 5.66473e-06)
(-3.56907e-05 -3.12508e-05 4.97994e-06)
(-4.3027e-05 -2.93162e-05 6.09503e-06)
(-3.97883e-05 -2.93107e-05 5.6714e-06)
(-3.48329e-05 -3.10009e-05 4.45609e-06)
(-3.69987e-05 -1.7708e-05 2.34414e-06)
(-3.62895e-05 -1.23809e-05 2.05552e-06)
(-3.57929e-05 -1.10386e-05 1.26577e-06)
(-3.52568e-05 -1.51106e-05 1.48404e-06)
(-4.23781e-05 -1.68226e-05 2.58402e-06)
(-3.66166e-05 -1.35512e-05 2.12577e-06)
(-2.80651e-05 -3.23792e-05 2.15429e-06)
(-3.33918e-05 -3.27913e-05 4.27577e-06)
(-3.40505e-05 -3.23637e-05 4.69118e-06)
(-3.17411e-05 -3.23379e-05 3.77892e-06)
(-3.34977e-05 -3.1841e-05 4.32793e-06)
(-3.01301e-05 -3.25308e-05 3.01121e-06)
(-3.24438e-05 -3.20066e-05 3.82061e-06)
(-2.70069e-05 -3.13359e-05 4.47262e-06)
(-3.62132e-05 -3.36175e-05 6.66836e-06)
(-3.24374e-05 -3.27718e-05 6.32682e-06)
(-2.63846e-05 -3.21335e-05 4.53072e-06)
(-3.33671e-05 -3.22897e-05 6.27777e-06)
(-2.88576e-05 -2.68206e-05 4.22945e-06)
(-4.25151e-05 -2.27092e-05 4.39342e-06)
(-3.8871e-05 -2.11552e-05 4.59183e-06)
(-3.25983e-05 -2.61911e-05 4.44801e-06)
(-2.77781e-05 -2.76486e-05 4.22679e-06)
(-3.7126e-05 -2.20206e-05 4.74434e-06)
(-2.7165e-05 -2.86488e-05 4.26517e-06)
(-3.83934e-05 -2.14754e-05 4.60793e-06)
(-3.62122e-05 -1.84586e-05 3.28177e-06)
(-3.40654e-05 -2.41263e-05 4.42752e-06)
(-3.52991e-05 -2.29437e-05 4.4479e-06)
(-3.49941e-05 -1.95779e-05 3.29209e-06)
(-3.84996e-05 -1.57115e-05 3.11774e-06)
(-3.97596e-05 -1.47993e-05 3.03636e-06)
(-3.65184e-05 -1.7867e-05 3.29226e-06)
(-3.67967e-05 -2.12158e-05 4.38025e-06)
(-3.56087e-05 -2.23852e-05 4.45292e-06)
(-3.77238e-05 -1.6791e-05 3.22258e-06)
(-2.52542e-05 -3.46618e-05 4.61506e-06)
(-3.33061e-05 -3.64588e-05 6.71541e-06)
(-3.18166e-05 -3.38426e-05 6.37312e-06)
(-2.58856e-05 -3.34818e-05 4.57205e-06)
(-3.10607e-05 -3.47065e-05 6.41318e-06)
(-2.54895e-05 -3.24662e-05 4.35464e-06)
(-3.40871e-05 -2.53904e-05 4.85334e-06)
(-3.53105e-05 -2.43034e-05 4.83393e-06)
(-2.49061e-05 -3.37096e-05 4.31298e-06)
(-2.60383e-05 -3.11147e-05 4.37025e-06)
(-3.68432e-05 -2.25992e-05 4.75061e-06)
(-2.65979e-05 -2.98977e-05 4.30601e-06)
(-3.56225e-05 -2.37358e-05 4.83736e-06)
(-3.94537e-05 -1.53851e-05 2.95892e-06)
(-4.16762e-05 -2.08549e-05 4.0047e-06)
(-3.8653e-05 -1.96577e-05 4.17414e-06)
(-4.19198e-05 -1.66725e-05 2.73126e-06)
(-4.13621e-05 -1.37907e-05 2.83039e-06)
(-4.01076e-05 -1.43303e-05 2.97713e-06)
(-3.91606e-05 -1.56652e-05 3.01578e-06)
(-3.70914e-05 -2.07185e-05 4.33331e-06)
(-3.82786e-05 -1.99841e-05 4.20083e-06)
(-3.80419e-05 -1.62986e-05 3.18275e-06)
(-3.34043e-05 -2.12404e-05 3.21171e-06)
(-3.37365e-05 -2.46567e-05 4.38613e-06)
(-3.46898e-05 -2.00746e-05 3.26684e-06)
(-3.25531e-05 -2.58865e-05 4.30065e-06)
(-2.95567e-05 -4.10624e-05 6.73356e-06)
(-2.38428e-05 -3.59694e-05 4.25717e-06)
(-3.3775e-05 -2.59579e-05 4.77704e-06)
(-2.43581e-05 -3.49392e-05 4.26187e-06)
(-3.25774e-05 -2.71537e-05 4.76071e-06)
(-2.9048e-05 -4.3269e-05 7.03203e-06)
(-2.55127e-05 -2.14695e-05 1.55488e-06)
(-2.71955e-05 -2.49163e-05 2.82686e-06)
(-2.59608e-05 -2.61927e-05 2.85006e-06)
(-2.67678e-05 -2.03158e-05 1.5266e-06)
(-2.56372e-05 -2.66603e-05 2.85997e-06)
(-2.85433e-05 -4.09653e-05 6.4809e-06)
(-1.86611e-05 -3.63565e-05 2.84259e-06)
(-2.77704e-05 -2.62466e-05 3.33677e-06)
(-2.65246e-05 -2.75292e-05 3.34758e-06)
(-1.9227e-05 -3.52497e-05 2.80864e-06)
(-2.61801e-05 -2.80284e-05 3.34221e-06)
(-2.9027e-05 -4.31733e-05 7.00913e-06)
(-4.25081e-05 -3.01281e-05 7.67543e-06)
(-3.57931e-05 -3.56122e-05 6.98281e-06)
(-4.0302e-05 -3.10243e-05 8.05043e-06)
(-5.2515e-05 -2.7424e-05 1.03839e-05)
(-4.10087e-05 -3.12892e-05 7.81237e-06)
(-4.38572e-05 -2.88642e-05 8.45794e-06)
(-5.30515e-05 -2.81757e-05 1.00447e-05)
(-4.28741e-05 -2.95025e-05 8.81813e-06)
(-3.28391e-05 -3.85983e-05 7.00185e-06)
(-3.97348e-05 -3.19295e-05 8.13759e-06)
(-5.18366e-05 -2.78624e-05 1.0531e-05)
(-3.89218e-05 -3.22818e-05 8.20506e-06)
(-4.37003e-05 -3.00939e-05 8.60205e-06)
(-5.08228e-05 -2.78007e-05 1.06206e-05)
(-2.32101e-05 -3.15348e-05 3.54091e-06)
(-3.48953e-05 -3.36671e-05 6.47997e-06)
(-3.01665e-05 -3.3141e-05 5.60827e-06)
(-2.27126e-05 -3.24409e-05 3.51685e-06)
(-3.05951e-05 -3.2698e-05 5.55253e-06)
(-2.39851e-05 -2.69453e-05 2.99083e-06)
(-3.84559e-05 -2.25146e-05 4.06278e-06)
(-3.32753e-05 -2.119e-05 3.55973e-06)
(-2.82869e-05 -2.62173e-05 3.52107e-06)
(-2.2786e-05 -2.78535e-05 2.87069e-06)
(-3.13099e-05 -2.22601e-05 3.37986e-06)
(-2.21844e-05 -2.88849e-05 2.81474e-06)
(-3.26705e-05 -2.14755e-05 3.49631e-06)
(-2.83542e-05 -1.86473e-05 1.48622e-06)
(-2.7548e-05 -2.44226e-05 2.80108e-06)
(-2.71015e-05 -1.97941e-05 1.50894e-06)
(-2.87978e-05 -2.31091e-05 2.80525e-06)
(-3.04692e-05 -1.59558e-05 1.37143e-06)
(-3.18217e-05 -1.49976e-05 1.49108e-06)
(-2.86927e-05 -1.80782e-05 1.48933e-06)
(-3.03746e-05 -2.13735e-05 2.8418e-06)
(-2.91442e-05 -2.25725e-05 2.78894e-06)
(-2.9948e-05 -1.69334e-05 1.57803e-06)
(-2.15818e-05 -3.49892e-05 3.4393e-06)
(-3.21463e-05 -3.64109e-05 6.40263e-06)
(-2.96222e-05 -3.41055e-05 5.60729e-06)
(-2.2207e-05 -3.37177e-05 3.46919e-06)
(-2.89008e-05 -3.50585e-05 5.60889e-06)
(-2.04274e-05 -3.28059e-05 2.73486e-06)
(-2.81169e-05 -2.57728e-05 3.30247e-06)
(-1.9815e-05 -3.40628e-05 2.76761e-06)
(-2.94033e-05 -2.45548e-05 3.28826e-06)
(-2.10042e-05 -3.14357e-05 2.72177e-06)
(-3.09715e-05 -2.27756e-05 3.33427e-06)
(-2.16073e-05 -3.01308e-05 2.75367e-06)
(-2.97427e-05 -2.40136e-05 3.27019e-06)
(-3.19517e-05 -1.53895e-05 1.77809e-06)
(-3.66946e-05 -2.06935e-05 3.42789e-06)
(-3.24459e-05 -1.96666e-05 3.04569e-06)
(-3.54378e-05 -1.65714e-05 2.09042e-06)
(-3.3565e-05 -1.38723e-05 1.65418e-06)
(-3.21645e-05 -1.45111e-05 1.51389e-06)
(-3.15529e-05 -1.56528e-05 1.74576e-06)
(-3.07152e-05 -2.08912e-05 2.86653e-06)
(-3.19905e-05 -1.99903e-05 2.99973e-06)
(-3.02966e-05 -1.64362e-05 1.62171e-06)
(-4.31173e-05 -3.01235e-05 7.82672e-06)
(-3.54103e-05 -3.56418e-05 6.93093e-06)
(-5.24634e-05 -2.76234e-05 1.03483e-05)
(-3.95411e-05 -3.12912e-05 7.73631e-06)
(-5.29729e-05 -2.83924e-05 1.0033e-05)
(-4.01836e-05 -3.14932e-05 7.55888e-06)
(-4.39684e-05 -2.90967e-05 8.44116e-06)
(-4.27162e-05 -2.96067e-05 8.70472e-06)
(-3.26308e-05 -3.85509e-05 6.93809e-06)
(-5.1735e-05 -2.8038e-05 1.04486e-05)
(-3.89704e-05 -3.20293e-05 7.80329e-06)
(-5.07003e-05 -2.79997e-05 1.05194e-05)
(-3.81912e-05 -3.25421e-05 7.85426e-06)
(-4.37334e-05 -3.02185e-05 8.56269e-06)
(-4.02258e-05 -2.64557e-05 4.54642e-06)
(-3.8221e-05 -2.54755e-05 5.34397e-06)
(-6.06715e-05 -2.28955e-05 5.61136e-06)
(-4.13448e-05 -2.2299e-05 4.55941e-06)
(-4.70909e-05 -2.54371e-05 5.49381e-06)
(-4.56213e-05 -2.36054e-05 4.26194e-06)
(-4.12497e-05 -2.56314e-05 5.16629e-06)
(-4.11702e-05 -1.91705e-05 2.40521e-06)
(-3.82282e-05 -1.40109e-05 2.72461e-06)
(-4.87895e-05 -2.01077e-05 4.35797e-06)
(-3.98013e-05 -1.9095e-05 3.72623e-06)
(-4.62812e-05 -1.70481e-05 2.58349e-06)
(-4.29693e-05 -2.09675e-05 3.55891e-06)
(-3.93089e-05 -1.63459e-05 2.78377e-06)
(-4.11971e-05 -2.61325e-05 5.27685e-06)
(-3.63197e-05 -2.5484e-05 5.01074e-06)
(-5.96908e-05 -2.28655e-05 6.99379e-06)
(-4.07919e-05 -2.22207e-05 4.85885e-06)
(-4.60931e-05 -2.54481e-05 5.94166e-06)
(-4.11032e-05 -2.5529e-05 5.45026e-06)
(-4.57154e-05 -2.3352e-05 5.19801e-06)
(-3.87433e-05 -1.89614e-05 3.10136e-06)
(-3.63295e-05 -1.40187e-05 2.43095e-06)
(-4.55054e-05 -2.00984e-05 4.62564e-06)
(-3.86379e-05 -1.90389e-05 3.91269e-06)
(-4.12071e-05 -1.71476e-05 2.76322e-06)
(-3.76057e-05 -1.62859e-05 2.8897e-06)
(-4.16075e-05 -2.07331e-05 4.18668e-06)
(-2.36982e-05 -2.03231e-05 2.26154e-06)
(-2.15883e-05 -1.80993e-05 9.20091e-07)
(-2.36391e-05 -2.28109e-05 1.50964e-06)
(-2.22337e-05 -2.61741e-05 5.16468e-07)
(-1.92675e-05 -1.95927e-05 1.48991e-06)
(-2.24442e-05 -2.28129e-05 1.16776e-06)
(-1.8621e-05 -2.27783e-05 1.24268e-06)
(-4.42923e-05 -5.00662e-05 -4.54871e-06)
(-3.10689e-05 -5.01947e-05 1.27887e-06)
(-6.57419e-05 -6.71006e-05 -5.63885e-06)
(-5.88651e-05 -6.59805e-05 1.30949e-06)
(-9.28054e-05 -8.85543e-05 -3.53087e-06)
(-8.12283e-05 -7.97929e-05 7.83682e-07)
(-0.000117603 -0.000100695 -3.46986e-06)
(-2.16689e-05 -1.28288e-05 1.7001e-07)
(-2.33902e-05 -1.73936e-05 1.8117e-06)
(-2.39936e-05 -1.98907e-05 1.7598e-06)
(-2.59412e-05 -1.6798e-05 1.8857e-06)
(-2.26233e-05 -1.07759e-05 1.93794e-07)
(-2.36712e-05 -1.57227e-05 1.78618e-06)
(-2.3564e-05 -1.10107e-05 2.41338e-07)
(-2.40106e-05 -1.58792e-05 1.66376e-06)
(-2.50142e-05 -1.79797e-05 1.82938e-06)
(-2.34885e-05 -9.3827e-06 1.92376e-07)
(-2.30139e-05 -2.05801e-05 2.66604e-06)
(-1.91238e-05 -1.84736e-05 1.73191e-06)
(-2.1879e-05 -2.12934e-05 1.66445e-06)
(-3.7811e-05 -3.09525e-05 6.37603e-06)
(-3.72952e-05 -3.31705e-05 6.70992e-06)
(-4.1344e-05 -3.21982e-05 7.13141e-06)
(-4.14068e-05 -3.20007e-05 7.29101e-06)
(-3.81375e-05 -3.07386e-05 6.38266e-06)
(-3.27619e-05 -3.5846e-05 6.46867e-06)
(-3.19405e-05 -3.80818e-05 6.68975e-06)
(-3.01692e-05 -3.90436e-05 6.34904e-06)
(-3.23731e-05 -3.63482e-05 6.46955e-06)
(-3.05653e-05 -3.85265e-05 6.34649e-06)
(-2.03593e-05 -2.25676e-05 9.01035e-07)
(-2.37917e-05 -3.14975e-05 -1.73598e-07)
(-2.4326e-05 -2.70912e-05 8.05828e-07)
(-2.2934e-05 -3.07829e-05 -8.16519e-08)
(-1.84174e-05 -3.25952e-05 9.86147e-07)
(-1.83406e-05 -2.7132e-05 1.10302e-06)
(-2.4978e-05 -3.6099e-05 -7.11971e-07)
(-3.15912e-05 -3.73156e-05 6.47623e-06)
(-3.07547e-05 -3.95925e-05 6.7083e-06)
(-2.98121e-05 -3.95817e-05 6.35341e-06)
(-3.19828e-05 -3.68351e-05 6.4718e-06)
(-2.94152e-05 -4.00707e-05 6.36327e-06)
(-4.43968e-05 -3.04592e-05 1.02212e-05)
(-3.02527e-05 -4.17874e-05 7.0018e-06)
(-3.42026e-05 -3.79796e-05 7.69407e-06)
(-5.37204e-05 -2.6527e-05 1.1938e-05)
(-3.37286e-05 -3.83658e-05 7.69131e-06)
(-5.29861e-05 -2.66749e-05 1.19512e-05)
(-4.51763e-05 -3.07718e-05 1.00994e-05)
(-2.92891e-05 -3.73148e-05 5.92662e-06)
(-2.97529e-05 -3.94956e-05 6.45185e-06)
(-2.86655e-05 -3.94888e-05 6.06371e-06)
(-2.82612e-05 -3.99763e-05 6.07402e-06)
(-2.96932e-05 -3.68346e-05 5.91742e-06)
(-4.39904e-05 -3.06416e-05 1.00421e-05)
(-3.0232e-05 -4.16921e-05 6.97894e-06)
(-5.35204e-05 -2.6714e-05 1.18521e-05)
(-3.37982e-05 -3.79585e-05 7.55494e-06)
(-5.28027e-05 -2.68966e-05 1.18489e-05)
(-3.33412e-05 -3.83609e-05 7.56264e-06)
(-4.48217e-05 -3.0906e-05 9.96141e-06)
(-4.5201e-05 -3.1601e-05 7.70534e-06)
(-3.70111e-05 -3.48379e-05 6.97931e-06)
(-3.82689e-05 -3.40968e-05 6.44565e-06)
(-4.64114e-05 -3.22469e-05 7.84043e-06)
(-4.1235e-05 -3.31681e-05 7.39521e-06)
(-5.65306e-05 -2.96132e-05 1.00019e-05)
(-3.94374e-05 -3.35892e-05 6.12835e-06)
(-4.62788e-05 -3.00009e-05 1.01946e-05)
(-3.14475e-05 -4.02372e-05 6.97587e-06)
(-3.46015e-05 -3.74783e-05 7.68503e-06)
(-5.43389e-05 -2.63375e-05 1.1911e-05)
(-3.50947e-05 -3.71291e-05 7.66586e-06)
(-4.55713e-05 -3.02465e-05 1.00837e-05)
(-5.50436e-05 -2.62997e-05 1.18934e-05)
(-3.59989e-05 -3.11587e-05 6.14886e-06)
(-3.66878e-05 -3.35915e-05 6.70203e-06)
(-3.72218e-05 -3.30111e-05 6.48307e-06)
(-2.77794e-05 -3.52287e-05 5.04188e-06)
(-3.66538e-05 -3.10165e-05 6.20396e-06)
(-2.64133e-05 -1.66545e-05 1.86003e-06)
(-2.35847e-05 -1.12521e-05 2.61652e-07)
(-2.53399e-05 -1.19465e-05 5.19361e-07)
(-2.33944e-05 -1.84566e-05 1.42229e-06)
(-2.42532e-05 -1.59637e-05 1.57053e-06)
(-2.4394e-05 -9.21238e-06 2.86261e-07)
(-2.72088e-05 -1.81968e-05 1.92464e-06)
(-3.04998e-05 -3.58463e-05 5.89453e-06)
(-3.09558e-05 -3.79872e-05 6.42251e-06)
(-2.90335e-05 -3.89495e-05 6.05475e-06)
(-3.00972e-05 -3.63467e-05 5.90594e-06)
(-2.9433e-05 -3.84355e-05 6.04686e-06)
(-4.32998e-05 -3.16983e-05 7.49361e-06)
(-3.69008e-05 -3.50584e-05 7.00418e-06)
(-4.45754e-05 -3.24986e-05 7.65519e-06)
(-3.723e-05 -3.39474e-05 6.36236e-06)
(-5.32199e-05 -3.04499e-05 9.53244e-06)
(-3.78304e-05 -3.39114e-05 6.87766e-06)
(-3.87561e-05 -3.33026e-05 6.1832e-06)
(-4.58395e-05 -3.01214e-05 9.98317e-06)
(-3.14271e-05 -4.01437e-05 6.95287e-06)
(-5.41466e-05 -2.65144e-05 1.18227e-05)
(-3.42042e-05 -3.74582e-05 7.5424e-06)
(-4.52303e-05 -3.03751e-05 9.93877e-06)
(-5.48521e-05 -2.65018e-05 1.17907e-05)
(-3.47056e-05 -3.71139e-05 7.52682e-06)