/*--------------------------------*- C++ -*----------------------------------*\
| =========                 |                                                 |
| \\      /  F ield         | OpenFOAM: The Open Source CFD Toolbox           |
|  \\    /   O peration     | Version:  2012                                  |
|   \\  /    A nd           | Website:  www.openfoam.com                      |
|    \\/     M anipulation  |                                                 |
\*---------------------------------------------------------------------------*/
FoamFile
{
    version     2.0;
    format      ascii;
    class       volScalarField;
    location    "0.107/fluid";
    object      p;
}
// * * * * * * * * * * * * * * * * * * * * * * * * * * * * * * * * * * * * * //

dimensions      [0 2 -2 0 0 0 0];


internalField   nonuniform List<scalar> 
16422
(
-0.126166
-0.0923782
-0.0328218
-0.0130317
-0.00541105
-0.00211137
-0.000630134
6.36916e-05
0.000395146
0.000542762
0.000582141
0.000547224
0.000459051
0.000331549
0.00016584
0.0235766
-0.00870144
-0.00861997
-0.00490354
-0.0023927
-0.000933862
-0.000163244
0.000246956
0.000462052
0.000560845
0.00057892
0.000534322
0.000444326
0.000323225
0.000164832
0.0412234
0.017564
0.00614752
0.00175289
0.000504495
0.000281297
0.000341948
0.000454197
0.000542595
0.000587328
0.000583032
0.000532014
0.000441885
0.000325339
0.000174617
0.00830281
-0.0232477
-0.0124762
-0.00503159
-0.00149436
3.10266e-05
0.000629448
0.000834615
0.000877937
0.000850172
0.000778402
0.00067251
0.000537711
0.000377372
0.000185874
0.0369947
0.00926215
0.00190116
0.000828739
0.000938716
0.00105732
0.00106513
0.00101943
0.000954029
0.000876427
0.000781565
0.000663076
0.000525183
0.000369662
0.000182598
0.0442099
0.0234235
0.0114793
0.00575315
0.00323537
0.00207648
0.00151026
0.00121256
0.00103546
0.000907962
0.00079042
0.00066406
0.000523428
0.000373976
0.000190196
0.0384703
0.0145196
0.00602343
0.0036617
0.0028382
0.0023287
0.00192124
0.00159341
0.00133855
0.00113649
0.000957091
0.000784186
0.000608077
0.000419515
0.000205472
0.0438257
0.0233583
0.0122777
0.00706892
0.00453375
0.00314024
0.00230182
0.00177
0.00141906
0.00116838
0.000964435
0.000778665
0.000598739
0.000416315
0.000202018
0.0464563
0.0290009
0.0170555
0.01002
0.00609478
0.00390725
0.00266584
0.00194092
0.00149789
0.00120108
0.000975848
0.00078264
0.000602279
0.000419748
0.000208252
0.0440509
0.0263753
0.0152541
0.00915571
0.0058619
0.0039915
0.00286074
0.00214192
0.00166867
0.00134073
0.00108395
0.000863445
0.00065873
0.000450565
0.000220466
0.0463209
0.0298471
0.0183065
0.0112138
0.00706627
0.00464211
0.00319507
0.00230912
0.00175022
0.0013752
0.00109328
0.000860556
0.000652345
0.000448777
0.000218188
0.0476547
0.0323597
0.0207491
0.0129675
0.00812873
0.00522363
0.00349559
0.00246087
0.00182527
0.00140683
0.00110443
0.000868665
0.000661092
0.000458179
0.000224335
-0.175285
-0.173569
-0.166641
-0.160057
-0.0306715
-0.0583844
-0.126505
-0.0546558
-0.14607
-0.129883
0.0152452
-0.0211034
-0.515041
-0.709364
-0.115723
-0.0496436
-0.0509652
-0.0276827
-0.117707
0.0184029
-0.0173524
-0.00949732
-0.0422867
0.0298653
0.00023392
-0.00107535
-0.0334979
0.0331965
0.00971159
-0.701694
-0.672572
-0.240101
-0.668885
-0.217927
-0.256234
-0.67304
-0.403257
-0.676625
-0.542294
-0.2318
-0.101984
-0.674126
-0.150433
-0.409142
-0.206975
-0.238342
-0.134754
-0.675883
-0.163302
-0.191813
-0.237035
-0.14113
-0.250997
-0.220226
-0.0727909
-0.0468485
-0.0581769
-0.132034
-0.141539
-0.0737964
-0.246273
-0.0940493
-0.0661195
-0.0635507
-0.123888
-0.124529
-0.0714715
-0.696058
-0.701207
-0.323613
-0.398148
-0.512198
-0.451132
-0.505683
-0.300913
-0.350807
-0.276218
-0.655328
-0.247217
-0.277888
-0.664509
-0.320322
-0.303795
-0.435914
-0.649703
-0.314738
-0.382209
-0.277697
-0.465223
-0.392125
-0.508035
-0.352705
-0.460476
-0.654514
-0.446692
-0.502151
-0.427141
-0.440518
-0.219934
-0.335465
-0.274098
-0.229921
-0.649382
-0.227923
-0.248987
-0.249834
-0.296341
-0.195684
-0.255929
-0.658047
-0.296784
-0.346372
-0.271183
-0.280775
-0.329834
-0.21873
-0.192824
-0.17845
-0.209367
-0.116169
-0.150476
-0.185679
-0.175623
-0.148656
-0.153103
-0.207059
-0.210393
-0.185359
-0.207821
-0.168805
-0.159809
-0.131692
-0.199136
-0.163901
-0.103848
-0.0949259
-0.220309
-0.139265
-0.124781
-0.180267
-0.193486
-0.171493
-0.160397
-0.145247
-0.149259
-0.606925
-0.601778
-0.376383
-0.472627
-0.470709
-0.883108
-0.887028
-0.778148
-0.714826
-0.616496
-0.777398
-0.616862
-0.718693
-0.460784
-0.868426
-0.884209
-0.759172
-0.683072
-0.611403
-0.771083
-0.601947
-0.376306
-0.656798
-0.523562
-0.411849
-0.517293
-0.408263
-0.379322
-0.77392
-0.774316
-0.743734
-0.65821
-0.593252
-0.588018
-0.750136
-0.366119
-0.661902
-0.391007
-0.511643
-0.38849
-0.508112
-0.367527
-0.275766
-0.561514
-0.331615
-0.335904
-0.394498
-0.322572
-0.253183
-0.375013
-0.680544
-0.52583
-0.413099
-0.523976
-0.379518
-0.409614
-0.58446
-0.585934
-0.365485
-0.462469
-0.450984
-0.758141
-0.772793
-0.748955
-0.673093
-0.595035
-0.752005
-0.592673
-0.603947
-0.38464
-0.271644
-0.597264
-0.330619
-0.332306
-0.301221
-0.398465
-0.247236
-0.361343
-0.676068
-0.391578
-0.511887
-0.366645
-0.387576
-0.508331
-0.249756
-0.321115
-0.32694
-0.254467
-0.336501
-0.236625
-0.259677
-0.208674
-0.177213
-0.147971
-0.329154
-0.180661
-0.174047
-0.198073
-0.281235
-0.252068
-0.228143
-0.238414
-0.21976
-0.204914
-0.235616
-0.32229
-0.315274
-0.249324
-0.326967
-0.253335
-0.225682
-0.176749
-0.166232
-0.139817
-0.149159
-0.274205
-0.166224
-0.191458
-0.25122
-0.273148
-0.224069
-0.229088
-0.201778
-0.211578
-0.669527
-0.633602
-0.572302
-0.725036
-0.524264
-0.719754
-0.429253
-0.655205
-0.55178
-0.788971
-0.784065
-0.839997
-0.697622
-0.865753
-0.845389
-0.84598
-0.868502
-0.879199
-0.849036
-0.861079
-0.814275
-0.842722
-0.830633
-0.771763
-0.718035
-0.596518
-0.755212
-0.611238
-0.89557
-0.828405
-0.829489
-0.89465
-0.889174
-0.798723
-0.870893
-0.826544
-0.69189
-0.429842
-0.6704
-0.449851
-0.756182
-0.834453
-0.733001
-0.799266
-0.713616
-0.814626
-0.849869
-0.841836
-0.866215
-0.824038
-0.67276
-0.875277
-0.824652
-0.887396
-0.806902
-0.649816
-0.764731
-0.751642
-0.747504
-0.766489
-0.745099
-0.650808
-0.834188
-0.740866
-0.736081
-0.839171
-0.733269
-0.656368
-0.302659
-0.599233
-0.480515
-0.375703
-0.437365
-0.337339
-0.353038
-0.368058
-0.679985
-0.502249
-0.389145
-0.517101
-0.35251
-0.403497
-0.640814
-0.603278
-0.548549
-0.694459
-0.503757
-0.67095
-0.376078
-0.567629
-0.513588
-0.730597
-0.682964
-0.77816
-0.604425
-0.751559
-0.751191
-0.764642
-0.742066
-0.751863
-0.718686
-0.744594
-0.705125
-0.736523
-0.71117
-0.740378
-0.674692
-0.570696
-0.723163
-0.585604
-0.836408
-0.740852
-0.840428
-0.732754
-0.826911
-0.697205
-0.807541
-0.727717
-0.584537
-0.373676
-0.575447
-0.383067
-0.635163
-0.704927
-0.621169
-0.690449
-0.612838
-0.695841
-0.2898
-0.615573
-0.352276
-0.466223
-0.326522
-0.427806
-0.323292
-0.35408
-0.674747
-0.3668
-0.486073
-0.38135
-0.50074
-0.338582
-0.251776
-0.314666
-0.373443
-0.240659
-0.353172
-0.252846
-0.254541
-0.226634
-0.18655
-0.369587
-0.220193
-0.34548
-0.24137
-0.197803
-0.232427
-0.30457
-0.33214
-0.233007
-0.331682
-0.247438
-0.227671
-0.196938
-0.175899
-0.325241
-0.211868
-0.292471
-0.189251
-0.214912
-0.154736
-0.0893534
-0.120994
-0.0421304
-0.0252675
-0.0563685
-0.014125
-0.0235405
0.0332718
0.00675972
0.0354413
0.0127063
0.0409276
0.0218571
-0.302481
-0.237635
-0.3625
-0.325758
-0.290285
-0.227916
-0.149643
-0.20844
-0.350623
-0.266805
-0.173513
-0.0334914
-0.0654074
-0.587546
-0.534834
-0.355079
-0.456755
-0.510435
-0.79721
-0.711274
-0.637933
-0.793241
-0.638738
-0.046752
-0.0337371
-0.0742704
-0.0268605
0.0119212
-0.000659934
-0.00859531
-0.781687
-0.698416
-0.630479
-0.787827
-0.629165
-0.473285
-0.668849
-0.625853
-0.438656
-0.624245
-0.442335
-0.471006
-0.736799
-0.668174
-0.595944
-0.59705
-0.739574
-0.474275
-0.670889
-0.444589
-0.620713
-0.448712
-0.62052
-0.471579
-0.345115
-0.469889
-0.359478
-0.248557
-0.439236
-0.319976
-0.28902
-0.475803
-0.679372
-0.629391
-0.445272
-0.632135
-0.474556
-0.441923
-0.544465
-0.553999
-0.357288
-0.455448
-0.476743
-0.286991
-0.132285
-0.173311
-0.144387
-0.183658
-0.23209
-0.229844
-0.743426
-0.673844
-0.601318
-0.742367
-0.599889
-0.33918
-0.503756
-0.244827
-0.363313
-0.31145
-0.445964
-0.284671
-0.474855
-0.677186
-0.450986
-0.62315
-0.474502
-0.447506
-0.624439
-0.303742
-0.276575
-0.453663
-0.28493
-0.395177
-0.282362
-0.306277
-0.169812
-0.149908
-0.145597
-0.165063
-0.162756
-0.155874
-0.262762
-0.308826
-0.259027
-0.276252
-0.301184
-0.278087
-0.260671
-0.290635
-0.453803
-0.273308
-0.285705
-0.373453
-0.303959
-0.276203
-0.106125
-0.04073
-0.115539
-0.110034
-0.0733569
-0.072233
-0.161255
-0.148564
-0.140102
-0.139575
-0.140994
-0.135963
-0.149494
-0.26341
-0.263592
-0.304792
-0.27904
-0.289722
-0.264737
-0.277096
-0.760074
-0.678565
-0.617163
-0.7754
-0.598846
-0.740541
-0.745306
-0.940375
-0.954951
-0.793813
-0.712198
-0.621388
-0.785014
-0.635419
-0.983662
-0.979156
-0.9774
-0.973329
-0.963462
-0.974745
-0.578973
-0.512461
-0.402602
-0.461432
-0.464586
-0.516312
-0.576697
-0.638185
-0.513648
-0.501428
-0.634697
-0.503847
-0.634805
-0.636869
-0.865968
-0.871364
-0.42913
-0.64099
-0.60202
-0.41248
-0.588442
-0.442288
-0.391444
-0.461756
-0.673032
-0.610764
-0.414463
-0.621828
-0.447718
-0.431793
-0.698851
-0.633963
-0.572162
-0.713052
-0.555289
-0.623832
-0.618221
-0.810089
-0.825566
-0.610218
-0.589794
-0.486104
-0.454068
-0.474744
-0.611423
-0.588272
-0.562799
-0.507092
-0.455941
-0.382116
-0.446062
-0.571912
-0.497888
-0.623475
-0.498308
-0.496572
-0.631729
-0.486867
-0.632507
-0.623542
-0.550128
-0.414298
-0.371011
-0.466008
-0.434081
-0.485931
-0.528845
-0.731431
-0.666233
-0.575346
-0.721895
-0.589941
-0.871445
-0.871727
-0.850001
-0.843381
-0.516869
-0.561432
-0.43138
-0.397629
-0.517017
-0.559113
-0.390666
-0.410523
-0.251469
-0.27296
-0.253691
-0.349238
-0.317163
-0.331533
-0.458692
-0.393967
-0.439586
-0.303239
-0.401081
-0.499899
-0.356188
-0.463996
-0.349429
-0.381497
-0.26907
-0.457006
-0.344717
-0.396061
-0.427168
-0.637361
-0.41783
-0.592416
-0.397966
-0.580596
-0.440077
-0.459216
-0.666611
-0.419517
-0.600206
-0.436829
-0.611102
-0.445576
-0.313933
-0.267184
-0.277818
-0.236733
-0.391527
-0.271491
-0.26587
-0.238292
-0.201851
-0.290719
-0.224354
-0.275875
-0.253632
-0.214425
-0.289977
-0.25486
-0.250023
-0.230166
-0.352849
-0.259574
-0.25115
-0.21867
-0.192168
-0.260075
-0.217781
-0.244795
-0.208325
-0.233231
-0.164865
-0.192773
-0.12002
-0.194597
-0.13717
-0.235653
-0.148403
-0.185574
-0.176274
-0.274081
-0.210507
-0.271787
-0.198153
-0.165745
-0.652704
-0.571645
-0.527406
-0.494449
-0.686327
-0.64132
-0.545594
-0.520925
-0.653535
-0.710195
-0.782864
-0.749177
-0.739534
-0.83149
-0.884962
-0.762356
-0.963619
-0.764753
-0.965092
-0.830096
-0.795002
-0.795417
-0.828176
-0.886158
-0.762292
-0.963305
-0.826569
-0.761809
-0.966392
-0.793991
-0.795943
-0.80023
-0.716943
-0.639713
-0.644258
-0.800805
-0.867903
-0.908976
-0.863366
-0.914536
-0.870802
-0.919592
-0.872618
-0.916492
-0.648811
-0.609521
-0.821017
-0.665777
-0.783078
-0.692471
-0.548416
-0.483354
-0.531937
-0.649574
-0.596792
-0.611006
-0.583737
-0.715352
-0.385619
-0.636413
-0.712126
-0.470287
-0.808215
-0.873433
-0.742917
-0.940195
-0.746781
-0.802242
-0.94895
-0.79167
-0.786936
-0.816078
-0.878304
-0.75746
-0.959977
-0.820856
-0.753334
-0.954488
-0.77622
-0.781043
-0.77433
-0.689323
-0.615118
-0.620623
-0.766036
-0.850467
-0.904332
-0.85801
-0.895454
-0.842875
-0.878494
-0.833993
-0.888342
-0.468813
-0.663138
-0.612638
-0.433746
-0.619182
-0.43501
-0.463686
-0.675946
-0.628686
-0.831781
-0.773439
-0.626416
-0.676522
-0.834281
-0.64679
-0.648147
-0.65006
-0.648366
-0.677315
-0.773282
-0.625782
-0.833954
-0.67605
-0.627196
-0.834027
-0.73251
-0.661918
-0.58815
-0.591033
-0.727759
-0.794437
-0.828848
-0.798117
-0.824314
-0.790286
-0.816036
-0.785555
-0.820921
-0.470612
-0.666552
-0.440647
-0.612023
-0.44172
-0.616799
-0.466541
-0.352102
-0.521925
-0.516235
-0.335147
-0.480657
-0.305118
-0.371166
-0.47716
-0.681353
-0.630343
-0.437804
-0.633528
-0.446858
-0.470233
-0.61351
-0.589398
-0.502475
-0.486793
-0.635686
-0.571049
-0.476334
-0.470553
-0.570842
-0.647584
-0.691746
-0.679566
-0.657794
-0.670739
-0.819706
-0.763057
-0.612854
-0.619023
-0.8249
-0.665136
-0.644742
-0.640033
-0.672458
-0.767793
-0.625544
-0.832152
-0.675996
-0.620294
-0.830433
-0.629875
-0.636058
-0.744242
-0.677269
-0.597211
-0.603643
-0.742303
-0.801839
-0.830453
-0.800619
-0.832071
-0.802359
-0.831683
-0.801432
-0.831562
-0.49799
-0.678099
-0.466471
-0.560809
-0.649706
-0.529613
-0.413632
-0.356768
-0.394529
-0.491717
-0.448975
-0.465868
-0.489245
-0.589148
-0.276796
-0.491848
-0.586559
-0.346797
-0.349874
-0.584993
-0.332183
-0.527076
-0.296027
-0.497941
-0.369271
-0.47567
-0.678079
-0.442796
-0.620751
-0.452219
-0.624935
-0.468627
-0.310172
-0.414301
-0.39512
-0.297008
-0.390909
-0.30436
-0.318975
-0.189766
-0.164396
-0.22871
-0.184722
-0.2006
-0.170942
-0.202709
-0.198998
-0.329675
-0.237285
-0.248411
-0.240728
-0.234349
-0.263053
-0.389538
-0.317187
-0.326651
-0.267876
-0.25532
-0.294356
-0.413415
-0.363928
-0.294703
-0.365115
-0.302478
-0.303018
-0.168872
-0.154146
-0.196143
-0.177227
-0.169415
-0.163949
-0.18309
-0.164743
-0.248929
-0.194624
-0.1924
-0.195815
-0.219128
-0.321029
-0.247889
-0.262198
-0.226285
-0.208182
-0.740545
-0.662399
-0.553099
-0.715295
-0.583993
-0.829243
-0.888537
-0.872738
-0.845295
-0.807374
-0.819229
-0.780155
-0.847824
-0.803178
-0.584264
-0.679174
-0.785375
-0.797466
-0.830645
-0.91662
-0.834002
-0.791861
-0.938022
-1.02824
-0.940762
-0.927347
-1.03561
-0.907205
-0.877525
-0.994106
-0.874244
-0.899318
-0.979877
-0.91695
-0.845042
-0.866926
-0.920646
-0.92136
-0.845669
-0.916805
-0.940594
-0.947817
-0.845398
-0.845858
-0.846539
-0.951165
-0.937578
-0.941983
-0.845944
-0.845728
-0.952557
-0.846342
-0.941999
-0.95241
-0.915711
-0.868493
-0.918289
-0.845606
-0.921158
-0.846331
-0.912913
-0.82499
-0.870904
-0.762013
-0.959867
-0.83083
-0.754272
-0.954767
-0.768029
-0.778884
-0.820251
-0.861185
-0.735961
-0.933227
-0.748593
-0.945309
-0.808153
-0.791653
-0.785643
-0.908942
-0.840921
-0.853513
-0.917519
-0.833858
-0.914348
-0.912108
-0.926626
-0.925763
-0.825994
-0.813046
-0.825378
-0.937108
-0.91534
-0.934562
-0.842142
-0.835062
-0.950092
-0.835063
-0.939714
-0.945224
-0.900806
-0.842898
-0.811304
-0.891392
-0.823685
-0.903276
-0.88938
-0.798092
-0.713081
-0.642869
-0.800804
-0.63643
-0.864499
-0.901991
-0.85651
-0.909131
-0.869558
-0.917656
-0.872044
-0.915863
-1.07409
-0.963561
-0.971246
-1.06221
-0.985626
-0.99101
-1.07155
-0.975927
-0.971438
-1.07516
-1.06229
-0.95744
-1.0573
-0.96317
-0.985919
-0.98775
-1.07495
-0.971948
-0.972432
-1.06893
-0.701616
-0.668035
-0.76161
-0.638445
-0.709735
-0.755491
-0.609521
-0.674823
-0.629071
-0.52913
-0.436284
-0.679503
-0.519866
-0.610758
-0.736808
-0.668709
-0.797387
-0.611613
-0.747728
-0.785919
-0.609406
-0.62514
-0.560269
-0.58679
-0.436294
-0.625122
-0.52417
-0.565976
-0.753616
-0.788546
-0.645495
-0.849413
-0.719189
-0.682223
-0.876636
-0.756162
-0.737499
-0.776478
-0.813067
-0.725251
-0.918208
-0.797653
-0.704357
-0.899327
-0.681695
-0.71455
-0.82901
-0.711573
-0.766428
-0.799289
-0.7462
-0.795093
-0.831734
-0.880456
-0.910692
-0.776663
-0.797305
-0.890763
-0.900834
-0.775296
-0.855114
-0.712574
-0.749326
-0.833808
-0.865394
-0.747902
-0.822758
-0.854603
-0.793047
-0.79511
-0.876629
-0.875141
-0.773357
-0.856662
-0.895515
-0.855461
-0.826082
-0.894579
-0.902502
-0.831886
-0.887967
-0.926256
-0.943073
-0.842755
-0.834587
-0.932865
-0.836191
-0.936338
-0.902132
-0.859858
-0.914476
-0.842911
-0.908528
-0.908496
-0.836607
-0.919226
-0.825314
-0.82906
-0.9209
-0.831061
-0.911316
-0.929162
-0.605191
-0.757301
-0.869951
-0.825072
-1.0514
-0.960372
-0.950271
-1.06031
-0.95568
-0.947071
-1.04655
-0.932592
-0.94444
-1.03006
-0.925077
-1.02326
-0.606231
-0.425456
-0.457838
-0.791402
-0.790533
-0.743597
-0.764958
-0.792388
-0.789947
-0.744181
-0.821755
-0.836764
-0.748801
-0.748546
-0.746542
-0.834724
-0.823528
-0.820162
-0.745159
-0.830262
-0.747808
-0.818092
-0.74605
-0.832831
-0.792523
-0.764558
-0.793356
-0.746155
-0.792745
-0.744075
-0.79395
-0.742184
-0.787544
-0.743242
-0.827135
-0.815248
-0.580914
-0.72231
-0.811409
-0.780271
-0.964782
-0.872505
-0.867266
-0.96826
-0.863129
-0.860312
-0.963627
-0.859139
-0.865455
-0.953818
-0.856501
-0.855891
-0.951246
-0.432676
-0.607104
-0.461575
-0.414935
-0.623371
-0.54384
-0.348529
-0.388166
-0.57049
-0.378947
-0.465858
-0.677154
-0.629396
-0.44148
-0.470151
-0.62656
-0.431437
-0.681683
-0.62079
-0.519202
-0.660649
-0.543618
-0.754703
-0.795936
-0.780075
-0.770183
-0.734591
-0.728351
-0.709152
-0.756038
-0.702583
-0.507826
-0.590884
-0.672596
-0.675841
-0.706636
-0.807447
-0.728827
-0.698171
-0.825969
-0.911468
-0.833176
-0.819762
-0.920833
-0.779559
-0.751052
-0.879881
-0.768854
-0.792489
-0.864576
-0.788731
-0.782157
-0.755524
-0.733673
-0.786396
-0.785341
-0.737068
-0.82178
-0.836827
-0.747568
-0.747641
-0.823417
-0.744606
-0.835635
-0.7915
-0.760513
-0.792164
-0.744675
-0.790339
-0.793529
-0.741311
-0.81907
-0.73769
-0.829848
-0.744626
-0.815817
-0.741009
-0.832907
-0.653496
-0.812815
-0.609413
-0.741719
-0.662104
-0.805225
-0.599176
-0.594603
-0.606734
-0.624169
-0.615311
-0.646423
-0.731022
-0.781227
-0.5784
-0.794029
-0.59192
-0.633165
-0.772047
-0.776035
-0.727062
-0.735174
-0.718125
-0.78003
-0.768204
-0.79311
-0.7951
-0.717133
-0.699485
-0.712124
-0.807239
-0.781075
-0.802853
-0.73156
-0.727273
-0.82445
-0.722894
-0.810524
-0.817093
-0.762291
-0.723514
-0.694059
-0.745194
-0.706693
-0.75771
-0.750301
-0.736383
-0.66829
-0.599279
-0.74079
-0.591429
-0.789149
-0.808522
-0.780378
-0.816568
-0.794896
-0.828231
-0.799332
-0.824009
-0.973242
-0.872267
-0.875621
-0.966937
-0.869966
-0.870827
-0.968438
-0.874165
-0.87301
-0.96778
-0.948821
-0.849256
-0.941272
-0.855991
-0.859949
-0.865267
-0.961829
-0.868236
-0.866185
-0.959897
-0.576932
-0.625888
-0.563814
-0.540134
-0.583864
-0.623914
-0.515768
-0.543596
-0.516379
-0.456332
-0.374753
-0.560512
-0.452615
-0.49658
-0.6106
-0.569581
-0.671286
-0.525336
-0.626358
-0.656071
-0.520949
-0.503042
-0.473809
-0.468664
-0.369841
-0.507423
-0.446608
-0.45198
-0.580811
-0.703334
-0.496974
-0.663317
-0.550388
-0.72769
-0.529289
-0.582744
-0.565518
-0.517374
-0.545601
-0.602001
-0.685213
-0.766281
-0.567965
-0.622212
-0.748577
-0.548624
-0.691123
-0.658944
-0.601513
-0.651155
-0.632393
-0.659773
-0.688118
-0.746002
-0.779728
-0.669183
-0.684162
-0.759966
-0.766151
-0.66358
-0.721278
-0.607406
-0.644318
-0.705361
-0.735302
-0.638599
-0.690781
-0.715748
-0.675639
-0.678328
-0.730468
-0.735859
-0.657665
-0.711395
-0.412435
-0.622898
-0.353253
-0.546608
-0.386452
-0.385064
-0.565519
-0.463488
-0.67109
-0.446467
-0.619342
-0.468286
-0.436468
-0.61578
-0.332467
-0.304194
-0.413921
-0.289603
-0.325513
-0.449978
-0.282359
-0.225027
-0.194635
-0.245301
-0.195147
-0.21233
-0.260626
-0.205015
-0.286401
-0.407386
-0.358975
-0.309488
-0.395432
-0.290451
-0.294693
-0.282687
-0.276553
-0.383288
-0.350554
-0.280492
-0.381326
-0.285542
-0.307352
-0.291062
-0.37686
-0.286353
-0.307792
-0.399975
-0.277493
-0.205332
-0.184653
-0.21234
-0.187933
-0.192544
-0.228193
-0.198332
-0.250749
-0.349497
-0.311419
-0.273009
-0.335885
-0.257447
-0.256455
-0.24565
-0.23487
-0.318646
-0.299224
-0.241067
-0.319624
-0.245291
-0.0421492
-0.0205117
-0.0162313
-0.0082203
-0.00659366
-0.00339295
-0.0026988
-0.0012764
-0.000956551
-0.000283806
-0.000128613
0.00020177
0.000278082
0.000436327
0.000470357
0.000529568
0.000537142
0.000530381
0.000519848
0.000467207
0.000443442
0.000356878
0.000323163
0.000206815
0.000162514
2.29304e-05
-0.101618
-0.0467192
-0.0242726
-0.0204929
-0.0362255
-0.0179554
-0.0177743
-0.0105584
-0.0143685
-0.00754965
-0.00870037
-0.00477618
-0.00610047
-0.00317658
-0.00390954
-0.00210388
-0.00253195
-0.00119952
-0.00168598
-0.000783427
-0.000897339
-0.000257095
-0.000568644
-9.66097e-05
-0.000108426
0.000209895
1.72682e-05
0.000267818
0.00028371
0.000437362
0.000327551
0.000453422
0.000470433
0.000527855
0.000480657
0.000526281
0.000534959
0.000527385
0.000530881
0.000518388
0.00051664
0.000463563
0.000506477
0.000451879
0.000439799
0.000353746
0.000428104
0.000343811
0.000320312
0.000204931
0.000310772
0.000196056
0.000160974
2.26131e-05
0.000151277
2.10448e-05
0.0207845
-0.00892863
0.0376982
0.0162084
-0.011639
-0.0114872
0.0113737
0.00280539
-0.0102874
-0.00681168
0.00141524
-0.000396333
-0.00587273
-0.00361555
-0.000571832
-0.000690843
-0.00301964
-0.00167008
-0.00065645
-0.00044552
-0.00134123
-0.00060926
-0.000359474
-0.000104282
-0.000429974
-2.7042e-05
-2.57366e-05
0.00017847
7.2211e-05
0.000294125
0.000235463
0.000373003
0.000347727
0.000461512
0.00040855
0.000485772
0.000486117
0.000526496
0.000502277
0.000525404
0.000530019
0.000515324
0.000525008
0.000502051
0.000503002
0.000448176
0.000487925
0.000429992
0.000424766
0.000343522
0.000405964
0.000322829
0.000312034
0.00020184
0.000291013
0.000183655
0.000162124
2.22192e-05
0.000142459
1.85318e-05
0.0405134
0.0211172
0.0429205
0.0257775
0.0164714
0.00711459
0.0211493
0.0108408
0.00518143
0.00163626
0.00848505
0.00383414
0.000994571
6.60673e-05
0.00288131
0.00113917
-4.73064e-05
-0.000124931
0.000819044
0.000309424
-0.000101048
3.04122e-05
0.000237818
0.000177289
8.25026e-05
0.00023452
0.000188385
0.000263597
0.00028048
0.000396358
0.000295877
0.00038948
0.000427322
0.000495933
0.000416109
0.000476617
0.000511042
0.000532922
0.000489021
0.00051236
0.000532858
0.000512616
0.000513745
0.000495552
0.000499839
0.000445053
0.000480622
0.00042087
0.00042248
0.000344253
0.000394763
0.000304972
0.000314065
0.000208192
0.000271214
0.000161942
0.000170024
2.47248e-05
0.000123264
1.79616e-05
-0.0381282
-0.0185565
-0.0221212
-0.0110044
-0.0147068
-0.00740457
-0.00862738
-0.00399286
-0.00589439
-0.00292091
-0.00302154
-0.00111888
-0.00228007
-0.000980047
-0.00071747
6.64895e-05
-0.000691622
-9.37333e-05
0.000230181
0.000544618
4.17669e-05
0.000324645
0.000608461
0.00072426
0.000388341
0.000515988
0.000744623
0.000770229
0.000541919
0.000581465
0.000769416
0.000744607
0.00058382
0.0005642
0.000729792
0.000669009
0.000550198
0.000488788
0.000643791
0.000555071
0.000462632
0.000369872
0.000521535
0.000409954
0.000334425
0.000213162
0.000368982
0.000232913
0.000167276
2.35788e-05
0.000182474
2.56498e-05
-0.042413
-0.0206868
-0.0179972
-0.0386117
-0.0226364
-0.00379697
-0.00662081
-0.0162803
-0.0156442
-0.00924147
-0.0182286
-0.00929463
-0.00604464
-0.00353586
-0.00675831
-0.00757141
-0.0040377
-0.00734467
-0.00344229
-0.00276525
-0.00108587
-0.00270343
-0.00325786
-0.00164279
-0.00259448
-0.00091076
-0.000710647
5.22321e-05
-0.00090087
-0.00127299
-0.000485147
-0.00055249
0.000149176
0.000218471
0.000546164
-6.51692e-05
-0.000300723
9.76505e-05
0.000295874
0.000577824
0.000614498
0.000742398
0.000334041
0.000191858
0.000394455
0.00063484
0.000737246
0.000766623
0.000803773
0.000517847
0.000441366
0.000535942
0.000754741
0.00077461
0.000807303
0.000798232
0.000580286
0.000554846
0.000580233
0.000772498
0.000744943
0.00078968
0.000749116
0.000561473
0.000579391
0.000553217
0.000729393
0.000667099
0.000730471
0.000661011
0.000485204
0.000537599
0.000473739
0.000641438
0.000551826
0.000633694
0.000541619
0.000366712
0.000447508
0.000356605
0.000518233
0.000406839
0.000507747
0.000396245
0.000211254
0.000321758
0.00020273
0.000366008
0.000230925
0.000355408
0.000221804
2.32613e-05
0.000157339
2.17754e-05
0.000180768
2.53512e-05
0.000173673
2.40156e-05
-0.00565909
0.0386604
0.0176139
0.0343511
0.00880564
0.0417414
0.0230913
-0.00954308
0.012806
0.00410157
0.00457518
-0.000666008
0.018505
0.00934045
-0.00571836
0.0026258
0.000533184
-0.00105505
-0.000969845
0.00749856
0.00417365
-0.00291696
0.000269191
-6.55416e-05
-0.000788864
-0.000163971
0.00352171
0.00225875
-0.00121694
-8.75028e-05
-1.8001e-05
2.14334e-05
0.000430474
0.00199694
0.00148748
-0.000312911
2.86689e-05
0.000184456
0.000522976
0.000705512
0.00137921
0.00115947
0.000167121
0.000235565
0.000371224
0.000742947
0.000809492
0.00111012
0.00100284
0.000421168
0.000409507
0.000500598
0.000820497
0.000831204
0.000976166
0.000910365
0.000544528
0.000523616
0.00056987
0.000828962
0.000808134
0.00089142
0.000836017
0.000580865
0.000578072
0.000580609
0.000796965
0.000751009
0.00081689
0.000753143
0.000550367
0.00057462
0.000537551
0.000731107
0.000658922
0.000729191
0.000648002
0.000470147
0.000519582
0.000452043
0.000631082
0.000538556
0.000618124
0.00052074
0.000356475
0.000425459
0.000335736
0.000505069
0.000397
0.000486071
0.000376473
0.000207841
0.000302092
0.000189657
0.000357923
0.000228059
0.000337107
0.000207142
2.28645e-05
0.000143357
1.93104e-05
0.000177926
2.49845e-05
0.000162625
2.16458e-05
0.0221873
0.0434093
0.0265779
0.0434978
0.0262908
0.0449321
0.0294547
0.00812976
0.0220064
0.0117368
0.0218525
0.0122043
0.0251395
0.0150799
0.00244536
0.00936022
0.0045948
0.0100106
0.00558523
0.0126263
0.007399
0.000667729
0.00359525
0.00171456
0.00465549
0.00287314
0.00620962
0.00377076
0.00029496
0.00135075
0.000722619
0.00250027
0.00176141
0.00323271
0.00214504
0.000316557
0.000615718
0.000463219
0.00160205
0.00127862
0.00190598
0.00141936
0.000426595
0.000448158
0.000456528
0.00120677
0.00105465
0.00131066
0.00108779
0.000523995
0.000470141
0.000517482
0.00101842
0.000933492
0.00103735
0.000928196
0.000580413
0.000531252
0.000559357
0.000910534
0.000847864
0.00089819
0.000821155
0.000588596
0.000563518
0.000566279
0.00082762
0.000762488
0.000799297
0.000735594
0.000548635
0.000562082
0.000531007
0.00073894
0.000660272
0.000714482
0.000638663
0.000467181
0.000512359
0.000443894
0.000631401
0.000536396
0.000611592
0.000515574
0.000357128
0.000414653
0.000316483
0.000502798
0.000398469
0.000477575
0.000351795
0.000214638
0.000279903
0.000165972
0.000361552
0.000235245
0.000307524
0.000180524
2.50011e-05
0.000126012
1.85908e-05
0.000185805
2.70018e-05
0.000138174
2.13807e-05
-0.0313369
-0.0193529
0.00576872
0.000893602
-0.0157079
-0.00791448
0.00057862
0.000787997
-0.00615588
-0.00264375
0.00096724
0.00140641
-0.00189602
-0.000434693
0.00149999
0.00163304
-0.000130423
0.000447748
0.00163912
0.00158439
0.000563006
0.000769652
0.00155068
0.00142908
0.000806997
0.000861765
0.00138604
0.00125864
0.000866776
0.000856406
0.00121815
0.00110233
0.000846367
0.000799066
0.00106511
0.000952974
0.000778411
0.00070354
0.000915265
0.000799894
0.000674619
0.000576782
0.000760156
0.000636952
0.000540866
0.000423066
0.000594303
0.000459122
0.000380318
0.000239475
0.000411275
0.00025691
0.000187634
2.6381e-05
0.000201236
2.84344e-05
-0.0103999
0.0215478
0.0234711
0.00510911
0.00853937
0.0157899
0.0289892
-0.0152321
0.00249627
-0.00222014
0.00862297
0.00287896
0.0174878
0.00933094
-0.00643323
-0.00230503
-0.00130498
0.00224404
0.00169313
0.00780455
0.00510077
-0.00213327
-0.0008917
4.95187e-05
0.00170003
0.00180379
0.00455962
0.00344635
-0.000232823
0.000262472
0.000682929
0.00182554
0.00181295
0.00318322
0.00257368
0.000530625
0.000768526
0.000916815
0.00178681
0.00166606
0.00241278
0.0020135
0.000804028
0.000941019
0.000967683
0.00161764
0.0014662
0.00190309
0.00162398
0.000875784
0.000966369
0.000943873
0.00141644
0.00127547
0.00154579
0.00134654
0.000861544
0.000932159
0.000886802
0.00123193
0.00110954
0.00128976
0.00113876
0.000799804
0.000868797
0.000805173
0.00107062
0.00095478
0.00109301
0.000962771
0.000701862
0.000780534
0.000696574
0.000916128
0.000798837
0.000920732
0.000795789
0.00057367
0.000665427
0.00056399
0.000758601
0.000634414
0.000753672
0.000626253
0.000419985
0.000527625
0.000409412
0.000591582
0.000456135
0.000582698
0.000446117
0.000237515
0.000366649
0.000228405
0.000408461
0.000254965
0.000398501
0.000246762
2.60675e-05
0.000178721
2.47715e-05
0.000199469
2.80436e-05
0.000192479
2.66757e-05
0.0136267
0.0427102
0.0250587
0.042659
0.0249038
0.0451699
0.0303364
0.00275526
0.020588
0.0113077
0.0206082
0.0118795
0.0262609
0.0168711
0.000902815
0.00933496
0.00554549
0.0100271
0.00640232
0.0145805
0.00955514
0.000891601
0.00474542
0.00312522
0.00563439
0.00405945
0.0083512
0.00570972
0.00103967
0.00276951
0.00203413
0.00369196
0.00286183
0.00507379
0.00365702
0.00107
0.00186642
0.00150437
0.00265049
0.00214624
0.00330868
0.00251634
0.00103334
0.00141779
0.00122138
0.00201227
0.00168449
0.00231716
0.00185417
0.000971305
0.00117144
0.00104987
0.00159547
0.00137365
0.00173482
0.00144923
0.000896991
0.00101632
0.000925374
0.0013117
0.00114967
0.00137262
0.00117835
0.000807405
0.000896829
0.000810361
0.0011013
0.000965797
0.0011222
0.000970552
0.000694723
0.000780398
0.000684488
0.00092255
0.000794717
0.000923309
0.000786278
0.000561119
0.000650737
0.000543636
0.000751976
0.000624011
0.000741547
0.000608046
0.000410624
0.000506246
0.000390238
0.000581
0.000448885
0.000563269
0.000428764
0.000233275
0.000349239
0.000216419
0.000402605
0.00025082
0.000383147
0.000233577
2.56986e-05
0.000168348
2.23912e-05
0.000195731
2.74105e-05
0.000180529
2.40358e-05
0.0277638
0.0454205
0.0304807
0.0459949
0.0317765
0.0467157
0.0333847
0.0137469
0.0262713
0.0163125
0.0277788
0.0182112
0.0295063
0.019903
0.00677873
0.0138345
0.00843539
0.0157786
0.0103409
0.0173674
0.0114988
0.00369028
0.0071746
0.00452202
0.00902712
0.00612619
0.010035
0.00675012
0.00229121
0.00391762
0.00265454
0.00542437
0.00386106
0.0059478
0.00415555
0.00161787
0.00236571
0.00175545
0.00347801
0.00261197
0.00371819
0.00273408
0.00127148
0.00161276
0.00130639
0.00239613
0.00189884
0.00249084
0.00193667
0.0010727
0.00123325
0.00106703
0.00177194
0.00147114
0.00179668
0.00146614
0.00093751
0.00102226
0.000911265
0.00139139
0.00119117
0.00138021
0.00116933
0.000819955
0.000879837
0.000794231
0.00113391
0.000980527
0.00111171
0.000963879
0.000696768
0.000766693
0.000678252
0.000933535
0.000798608
0.000916219
0.000776272
0.000559602
0.000644914
0.000538567
0.000755031
0.000625777
0.000730291
0.000594023
0.000412674
0.000497852