/*--------------------------------*- C++ -*----------------------------------*\
| =========                 |                                                 |
| \\      /  F ield         | OpenFOAM: The Open Source CFD Toolbox           |
|  \\    /   O peration     | Version:  2012                                  |
|   \\  /    A nd           | Website:  www.openfoam.com                      |
|    \\/     M anipulation  |                                                 |
\*---------------------------------------------------------------------------*/
FoamFile
{
    version     2.0;
    format      ascii;
    class       volVectorField;
    location    "0.107/fluid";
    object      U_0;
}
// * * * * * * * * * * * * * * * * * * * * * * * * * * * * * * * * * * * * * //

dimensions      [0 1 -1 0 0 0 0];


internalField   nonuniform List<vector> 
16422
(
(1.24211 -0.0161179 -0.0106597)
(1.20786 -0.0277484 -0.00487538)
(1.20527 -0.00660116 -0.00437194)
(1.20273 -0.00515757 -0.00341596)
(1.2015 -0.00382063 -0.00246347)
(1.20087 -0.00266939 -0.00173688)
(1.20051 -0.00181278 -0.0012112)
(1.2003 -0.00120995 -0.00083634)
(1.20019 -0.000798734 -0.000571341)
(1.20012 -0.000523916 -0.000385139)
(1.20009 -0.000342632 -0.00025805)
(1.20006 -0.0002202 -0.000173625)
(1.20005 -0.000139447 -0.000114849)
(1.20004 -8.6871e-05 -7.35439e-05)
(1.20004 -4.65925e-05 -4.30267e-05)
(1.21547 -0.00416565 0.000455326)
(1.21135 -0.00973429 -0.00144533)
(1.20708 -0.00577731 -0.00233498)
(1.20418 -0.0037464 -0.00220444)
(1.20266 -0.00266747 -0.0017462)
(1.20176 -0.00189563 -0.00131191)
(1.20116 -0.00131419 -0.00096313)
(1.20076 -0.0008962 -0.000694452)
(1.2005 -0.000599785 -0.000488953)
(1.20033 -0.000396372 -0.000340193)
(1.20023 -0.000260499 -0.000233433)
(1.20016 -0.00016915 -0.000160049)
(1.20012 -0.00010893 -0.000107897)
(1.20009 -6.53942e-05 -7.04101e-05)
(1.20008 -3.41983e-05 -4.08505e-05)
(1.21108 -0.00133497 0.000236397)
(1.20967 -0.00298941 -0.000891624)
(1.20708 -0.00244169 -0.00147225)
(1.20485 -0.00174423 -0.0015185)
(1.20334 -0.00128418 -0.00130877)
(1.20228 -0.000924865 -0.00105025)
(1.20154 -0.00064961 -0.000808255)
(1.20104 -0.000445939 -0.000604138)
(1.2007 -0.000298766 -0.00043833)
(1.20047 -0.000195478 -0.000311014)
(1.20033 -0.000122872 -0.000217634)
(1.20023 -7.56759e-05 -0.000152558)
(1.20016 -4.47866e-05 -0.000104876)
(1.20012 -2.09458e-05 -6.71197e-05)
(1.2001 -3.68755e-06 -3.90957e-05)
(1.21862 -0.00238578 -0.00230571)
(1.21052 -0.00383789 -0.00481816)
(1.20647 -0.0044977 -0.0042461)
(1.20389 -0.00387958 -0.0032372)
(1.20246 -0.00299976 -0.00235902)
(1.20157 -0.00217821 -0.00168222)
(1.201 -0.0015254 -0.00117763)
(1.20065 -0.00104829 -0.00081501)
(1.20044 -0.000707441 -0.000556248)
(1.2003 -0.000471915 -0.000375277)
(1.20021 -0.000314249 -0.000252204)
(1.20015 -0.000205044 -0.000167625)
(1.20011 -0.000131197 -0.000111936)
(1.20009 -8.30177e-05 -7.31737e-05)
(1.20008 -4.53199e-05 -4.32994e-05)
(1.21212 -0.00163122 0.000418812)
(1.20989 -0.00405094 -0.00159427)
(1.20695 -0.00345206 -0.00228298)
(1.20467 -0.00269832 -0.00211813)
(1.20322 -0.00208249 -0.00168276)
(1.20221 -0.00154678 -0.00127424)
(1.20151 -0.0011092 -0.000937372)
(1.20103 -0.000777153 -0.000676138)
(1.2007 -0.000532545 -0.000478911)
(1.20048 -0.000358648 -0.000331561)
(1.20034 -0.00023979 -0.000228488)
(1.20024 -0.000158113 -0.000155824)
(1.20018 -0.000103035 -0.000104365)
(1.20014 -6.10647e-05 -6.96082e-05)
(1.20011 -3.15612e-05 -4.13683e-05)
(1.20981 -0.000639331 0.000148623)
(1.20879 -0.0016008 -0.000903241)
(1.20686 -0.00155054 -0.00143496)
(1.20505 -0.00127331 -0.00146767)
(1.20366 -0.00100485 -0.00126976)
(1.2026 -0.000755907 -0.0010232)
(1.20182 -0.000549013 -0.000788407)
(1.20126 -0.000387477 -0.000589526)
(1.20087 -0.000265655 -0.00043036)
(1.2006 -0.000177134 -0.000305367)
(1.20042 -0.000112223 -0.000214432)
(1.2003 -6.98577e-05 -0.000147233)
(1.20022 -4.14701e-05 -0.000100011)
(1.20016 -1.70592e-05 -6.75456e-05)
(1.20014 -1.18025e-06 -3.91736e-05)
(1.21217 -0.000409907 -0.00053489)
(1.20988 -0.00221954 -0.00269541)
(1.20702 -0.00292634 -0.00281815)
(1.20479 -0.00278488 -0.00233742)
(1.20324 -0.0022972 -0.00177343)
(1.20217 -0.00175304 -0.00128857)
(1.20145 -0.00127638 -0.000911688)
(1.20098 -0.000904657 -0.000635114)
(1.20066 -0.000627281 -0.000434613)
(1.20045 -0.000427594 -0.000292322)
(1.20032 -0.000290885 -0.000195952)
(1.20023 -0.000193204 -0.000130914)
(1.20017 -0.00012374 -8.72137e-05)
(1.20013 -7.93447e-05 -5.57648e-05)
(1.20011 -4.39822e-05 -3.29526e-05)
(1.20996 -0.000464927 6.505e-06)
(1.20883 -0.00168864 -0.00122652)
(1.20687 -0.00201503 -0.00166495)
(1.20509 -0.00189501 -0.00155861)
(1.20369 -0.00159538 -0.00127147)
(1.20262 -0.00124768 -0.000979481)
(1.20184 -0.00093081 -0.000727406)
(1.20128 -0.000673306 -0.000526567)
(1.20089 -0.00047372 -0.000373962)
(1.20062 -0.000327889 -0.00026005)
(1.20044 -0.00022269 -0.000179892)
(1.20031 -0.000148632 -0.000121405)
(1.20023 -9.63605e-05 -8.10529e-05)
(1.20018 -5.75049e-05 -5.1528e-05)
(1.20015 -2.97604e-05 -3.05675e-05)
(1.20881 -0.000244897 2.0145e-05)
(1.2081 -0.000778131 -0.0007016)
(1.2067 -0.000941847 -0.00107246)
(1.20524 -0.000904313 -0.00110006)
(1.20394 -0.000770705 -0.000970201)
(1.20289 -0.00061069 -0.000790821)
(1.20208 -0.000461991 -0.00061408)
(1.20148 -0.00033648 -0.000459428)
(1.20104 -0.000236843 -0.000335125)
(1.20073 -0.000160902 -0.00024075)
(1.20051 -0.00010442 -0.000169057)
(1.20037 -6.54832e-05 -0.00011468)
(1.20027 -3.92219e-05 -7.65226e-05)
(1.2002 -1.4414e-05 -4.98667e-05)
(1.20017 7.02924e-07 -2.89314e-05)
(1.21019 -0.00026349 -0.000210808)
(1.20909 -0.00143587 -0.00107387)
(1.20716 -0.0020428 -0.00128578)
(1.20527 -0.00210231 -0.00112941)
(1.20372 -0.00184545 -0.0008729)
(1.20258 -0.00147565 -0.000637281)
(1.20177 -0.00111319 -0.000451274)
(1.2012 -0.000809562 -0.000311132)
(1.20081 -0.000575914 -0.000207479)
(1.20056 -0.000400145 -0.000139604)
(1.2004 -0.000277431 -9.02927e-05)
(1.20028 -0.000185849 -5.94015e-05)
(1.20021 -0.000120237 -3.74752e-05)
(1.20016 -7.74506e-05 -2.22854e-05)
(1.20013 -4.37672e-05 -1.02858e-05)
(1.20899 -0.000218857 -7.5346e-05)
(1.20825 -0.000978135 -0.000611114)
(1.20686 -0.00137268 -0.000811908)
(1.20535 -0.00143541 -0.000766058)
(1.204 -0.00128968 -0.000630333)
(1.20291 -0.00105545 -0.000486502)
(1.20208 -0.000813673 -0.000359464)
(1.20147 -0.000603957 -0.00025483)
(1.20103 -0.000434433 -0.000176432)
(1.20072 -0.000307422 -0.000121741)
(1.20051 -0.000212687 -8.00903e-05)
(1.20037 -0.000142741 -5.37054e-05)
(1.20027 -9.29648e-05 -3.48589e-05)
(1.2002 -5.46578e-05 -1.91483e-05)
(1.20017 -2.92258e-05 -9.22723e-06)
(1.20828 -0.000120597 -3.55443e-05)
(1.20774 -0.000470752 -0.000376899)
(1.20665 -0.000657298 -0.000541642)
(1.20537 -0.000689062 -0.000554539)
(1.20415 -0.000624846 -0.000489437)
(1.2031 -0.000516509 -0.000396884)
(1.20227 -0.000404759 -0.000303101)
(1.20163 -0.00030261 -0.000220774)
(1.20116 -0.000215796 -0.000156067)
(1.20082 -0.000148728 -0.000109049)
(1.20057 -0.000100992 -7.57357e-05)
(1.20041 -6.35432e-05 -5.08456e-05)
(1.2003 -3.61516e-05 -3.05131e-05)
(1.20023 -1.38972e-05 -1.84769e-05)
(1.20019 2.59063e-06 -8.11931e-06)
(1.29801 -0.0751008 -0.0138299)
(1.18653 -0.00797248 -0.0107467)
(1.29174 -0.0726327 0.00526958)
(1.18825 -0.00852381 -0.0142349)
(1.23335 -0.00920163 -0.012846)
(1.20878 -0.00929128 -0.0115222)
(1.19273 -0.00910981 -0.00936573)
(1.19489 -0.0111042 -0.00661548)
(1.24599 -0.0190288 -0.00322979)
(1.20532 -0.0449962 -0.00416575)
(1.22569 -0.00313671 -0.00207265)
(1.21098 -0.00514466 -0.0052321)
(0.406358 0.0606477 -0.0585405)
(0.297469 0.0723222 -0.00795358)
(1.19392 -0.00964252 -0.0106855)
(1.19675 -0.00955029 -0.00775449)
(1.20686 -0.00907475 -0.01039)
(1.20382 -0.00725277 -0.0080916)
(1.20535 -0.0396705 -0.0057216)
(1.22367 -0.00312643 -0.00242596)
(1.21072 -0.00480364 -0.00597625)
(1.22406 -0.00613576 -0.00660132)
(1.21126 -0.00754372 -0.00341089)
(1.21655 -0.00099434 -0.00259121)
(1.21048 -0.00363827 -0.00599204)
(1.22266 -0.00615628 -0.00826197)
(1.21061 -0.00798121 -0.0120094)
(1.21455 -0.00116074 -0.00165437)
(1.21116 -0.00315752 -0.00405513)
(0.307818 0.0747455 -0.0111456)
(0.574103 0.136217 -0.012969)
(1.2282 -0.0643717 -0.0141338)
(0.337919 -0.0713934 -0.00968617)
(1.17628 -0.0426836 -0.0100011)
(1.19191 -0.0298563 -0.012381)
(0.628435 -0.149126 -0.0102979)
(0.63274 0.0519385 -0.108636)
(0.560738 0.131956 -0.0158653)
(0.462635 -0.0644483 -0.0668318)
(1.22509 -0.0619018 -0.0144973)
(1.27577 -0.0187599 -0.00547457)
(0.328925 -0.0692748 -0.00806701)
(1.22911 -0.0332208 -0.0284467)
(0.690712 -0.0705132 -0.149436)
(1.17947 -0.0422082 -0.0149336)
(1.19329 -0.0274655 -0.0191576)
(1.19647 -0.00635073 -0.023999)
(0.617092 -0.145663 -0.0139417)
(1.18314 -0.0499201 -0.0109471)
(1.20248 -0.0219878 -0.0314799)
(1.20583 0.0166052 -0.114429)
(0.681637 -0.0304148 -0.065424)
(1.22636 -0.0141239 -0.0936148)
(1.19917 -0.0032589 -0.114806)
(1.25311 -0.0226315 -0.0122551)
(1.23831 -0.00306821 -0.0261547)
(1.22257 -0.011726 -0.0177116)
(0.701204 -0.00416294 -0.0678962)
(1.2218 -0.0204972 -0.0340475)
(1.22277 -0.00391089 -0.0302875)
(1.21998 0.0338624 -0.0959573)
(1.20101 -0.00180765 -0.0257761)
(1.2085 -0.00059387 -0.0166086)
(1.21352 -0.0104208 -0.0154772)
(1.19847 -0.00156839 -0.0146594)
(1.20427 -0.00409738 -0.0314266)
(1.21145 -0.00192731 -0.025473)
(0.298378 0.073236 -0.0143626)
(0.316607 0.0774911 -0.0205046)
(1.10629 0.0735031 -0.0165738)
(1.52454 -0.13401 -0.0373331)
(1.40194 -0.159145 -0.0339461)
(1.26935 -0.154579 -0.0110869)
(1.35901 -0.155525 -0.0329405)
(1.11071 -0.0867668 -0.0133769)
(1.20705 -0.109664 -0.0123293)
(1.18544 -0.0608351 -0.0132885)
(0.563318 0.132785 -0.0253882)
(1.1246 0.0731182 -0.0119516)
(1.12766 0.0839028 -0.0322642)
(0.586363 0.140072 -0.0266475)
(1.10898 0.0729619 -0.0221576)
(1.1135 0.0730063 -0.0253728)
(1.35045 -0.139442 -0.0025062)
(0.330533 -0.0690221 -0.0093531)
(1.27465 -0.0984139 -0.0551314)
(1.27321 -0.130104 -0.0232784)
(1.30325 -0.0521801 -0.0322497)
(1.39069 -0.14769 -0.0347378)
(1.52036 -0.134225 0.03075)
(1.39904 -0.158042 0.0108558)
(1.50003 -0.122828 -0.0251369)
(1.35324 -0.146764 -0.03672)
(0.347425 -0.0727807 -0.0155116)
(1.26917 -0.15155 -0.0154447)
(1.35689 -0.1545 0.00648928)
(1.26946 -0.14757 -0.0192702)
(1.38574 -0.139617 0.00444303)
(1.41335 0.0089457 0.0186122)
(1.49326 -0.120173 0.0390121)
(1.32221 -0.0445975 -0.0240036)
(1.19522 -0.0520604 -0.0117782)
(0.62087 -0.147163 -0.0141431)
(1.12961 -0.102226 -0.0180986)
(1.2344 -0.0665172 -0.039769)
(1.12671 -0.101357 -0.0189483)
(1.21848 -0.0925794 -0.0143166)
(1.21216 -0.0436504 -0.0337816)
(1.18839 -0.0584796 -0.0163822)
(0.641548 -0.152799 -0.017251)
(1.11325 -0.085338 -0.0174889)
(1.20796 -0.107663 -0.0128965)
(1.18671 -0.0600736 -0.0114635)
(1.11722 -0.0846839 -0.0203468)
(1.20975 -0.104739 -0.0167596)
(1.08345 -0.0258786 -0.0846319)
(1.19958 0.0064558 -0.0517252)
(1.21256 0.01205 -0.0538035)
(1.02474 -0.0145121 -0.080631)
(1.25091 0.0248 -0.025641)
(1.23344 0.0159803 -0.0476432)
(1.186 -0.0346486 -0.019474)
(1.18937 0.000119683 -0.0393859)
(1.19326 -0.00633674 -0.0292298)
(1.22652 -0.0272974 -0.0319721)
(1.09064 -0.00415382 -0.0850447)
(1.19486 -0.064703 -0.0577367)
(1.20029 -0.0155599 -0.0487759)
(1.21199 -0.0738732 -0.0677347)
(1.21227 -0.0207662 -0.0499725)
(1.21566 -0.018841 -0.0222635)
(1.24045 -0.0368249 -0.0431473)
(1.03359 -0.0197764 -0.0809706)
(1.29304 -0.00127662 -0.0364696)
(1.24934 -0.030733 -0.0240423)
(1.2536 -0.0392401 -0.033925)
(1.23109 -0.0310383 -0.0578892)
(1.23249 -0.0234706 -0.0445826)
(1.20134 -0.00623723 -0.00788194)
(1.18937 0.0267676 -0.0229212)
(1.19017 -0.050034 -0.0349289)
(1.19039 -0.00905614 -0.0369254)
(1.19343 -0.028875 -0.023396)
(1.19353 -0.00241775 -0.0273236)
(1.20633 -0.00851362 -0.008363)
(1.18339 0.209207 -0.209919)
(0.311772 0.0873915 -0.000143667)
(1.17986 0.098869 -0.186245)
(1.15969 0.169097 -0.164083)
(1.22745 0.142526 -0.245018)
(0.999154 0.181079 -0.0606045)
(1.00686 0.182401 -0.0559824)
(1.16514 0.214575 -0.0382476)
(0.310758 0.0757939 -0.0148936)
(1.14208 0.169482 -0.0290954)
(1.1686 0.216735 -0.0287524)
(1.14263 0.168078 -0.0304652)
(0.993177 0.177738 -0.233575)
(1.28674 0.154405 -0.331825)
(1.0047 0.183707 -0.0442965)
(1.02215 0.186447 -0.0287871)
(1.16504 0.217943 -0.0221571)
(0.296908 0.0720163 -0.00677295)
(1.14399 0.171836 -0.0214077)
(1.17074 0.219166 -0.0274583)
(1.13906 0.171298 -0.0235731)
(1.16348 0.0988572 -0.0242595)
(0.560179 0.131965 -0.0136901)
(1.17446 0.123105 -0.0135907)
(0.898115 0.0959531 -0.0172315)
(1.17034 0.123293 -0.0276275)
(0.896143 0.0959559 -0.0195664)
(1.16688 0.0982549 -0.0145975)
(1.0071 -0.157756 -0.0456749)
(1.02448 -0.159171 -0.0252783)
(1.17854 -0.193837 -0.0221502)
(0.3275 -0.0694303 -0.00765315)
(1.16046 -0.164544 -0.0185101)
(1.15536 -0.164346 -0.0219114)
(1.18472 -0.194251 -0.0237589)
(1.17789 -0.113763 -0.021265)
(0.615334 -0.145609 -0.0128954)
(0.908952 -0.126608 -0.0140262)
(1.19443 -0.136784 -0.0120543)
(0.907243 -0.126705 -0.0166998)
(1.1902 -0.13672 -0.0239345)
(1.18125 -0.113289 -0.0116737)
(1.19616 0.10285 -0.109011)
(0.598246 0.151701 -0.0110475)
(1.21809 0.0599697 -0.16063)
(0.895287 0.0364203 0.0309606)
(1.19387 0.120332 -0.147673)
(0.931662 0.0948572 0.0159413)
(1.21014 0.0596534 -0.12078)
(1.16889 0.0960472 -0.020798)
(0.578681 0.137831 -0.018652)
(1.17269 0.121097 -0.0321294)
(0.89899 0.0958698 -0.0236682)
(1.17505 0.11981 -0.0211582)
(1.16548 0.0969502 -0.0279477)
(0.901856 0.0966485 -0.0222268)
(1.19827 -0.188521 -0.197076)
(0.349119 -0.0832509 0.0125713)
(1.1986 -0.11286 -0.175074)
(1.18169 -0.170152 -0.151936)
(1.23769 -0.140957 -0.227029)
(1.00331 -0.152114 -0.0558893)
(1.01018 -0.154639 -0.0558809)
(1.17954 -0.187813 -0.0327757)
(0.341333 -0.0718198 -0.0122743)
(1.15883 -0.16153 -0.0261657)
(1.18283 -0.190716 -0.0275401)
(1.15937 -0.159914 -0.025718)
(0.9972 -0.146719 -0.22419)
(1.2983 -0.131502 -0.308801)
(1.20856 -0.11634 -0.101421)
(0.659461 -0.179397 0.0293083)
(0.918052 -0.0737153 0.00401364)
(1.23443 -0.0755007 -0.157579)
(0.943986 -0.168986 0.0167154)
(1.21588 -0.135048 -0.13464)
(1.21654 -0.0738493 -0.126315)
(1.18348 -0.111045 -0.0163966)
(0.633503 -0.150521 -0.0139319)
(0.909794 -0.126192 -0.0196584)
(1.19307 -0.134478 -0.0271273)
(1.18024 -0.111825 -0.023723)
(0.912311 -0.126413 -0.0173329)
(1.19539 -0.133448 -0.0179364)
(1.1857 0.037084 -0.0944697)
(1.20472 -0.0121346 -0.142099)
(1.26691 -0.0387803 -0.1075)
(1.21054 -0.0284311 -0.0737532)
(1.21324 0.0120721 -0.179398)
(1.17748 0.0355315 -0.0866308)
(1.24347 -0.0371065 -0.100052)
(1.28053 0.0254543 -0.0990772)
(0.861713 -0.00225489 -0.0680358)
(1.41205 -0.0400745 -0.11035)
(1.22965 -0.00705301 -0.229781)
(1.29677 0.0239662 -0.101271)
(1.38878 -0.0369738 -0.108222)
(1.17076 0.0216027 -0.0439325)
(1.18409 -0.0387819 -0.114365)
(1.26136 -0.0571387 -0.0314886)
(1.17667 -0.0271173 -0.0430943)
(1.17978 -0.0538845 -0.0755215)
(1.17076 0.0352739 -0.0673246)
(1.16861 -0.0265209 -0.0214172)
(1.18655 -0.0498737 -0.0876132)
(1.27418 0.00169004 -0.108223)
(1.20942 -0.00349249 -0.134716)
(1.20889 0.0178664 -0.0694453)
(1.21439 -0.0269291 -0.168233)
(1.24217 0.0252838 -0.0933097)
(1.17884 -0.047895 -0.0820408)
(1.277 -0.0353707 -0.0904348)
(0.876241 -0.0358774 -0.069086)
(1.4109 0.0303587 -0.108616)
(1.29332 -0.0324004 -0.0930319)
(1.23441 0.000273208 -0.204653)
(1.38733 0.0261212 -0.106187)
(1.17324 -0.0338007 -0.0438798)
(1.27567 0.0564979 -0.0322318)
(1.19008 0.0244859 -0.112713)
(1.17505 0.0179402 -0.0452059)
(1.18497 0.0392427 -0.0781935)
(1.16873 0.019564 -0.0267607)
(1.1731 -0.0472079 -0.0658651)
(1.15065 0.205204 -0.135342)
(0.325047 0.0859297 -0.0287623)
(1.13797 0.155087 -0.0779964)
(1.1522 0.195994 -0.0946941)
(1.14237 0.167672 -0.102831)
(1.16923 0.222617 -0.230501)
(1.283 0.183412 -0.303977)
(1.14718 0.200708 -0.266481)
(1.22178 0.169471 -0.249677)
(1.11795 0.208974 -0.159359)
(1.10266 0.182649 -0.121029)
(1.12418 0.204322 -0.107861)
(1.11072 0.194655 -0.222402)
(1.06681 0.18813 -0.0579117)
(1.10309 0.196924 -0.0441477)
(1.09643 0.193282 -0.0513777)
(1.07573 0.189866 -0.0529801)
(0.974865 0.173728 -0.0845396)
(0.978482 0.171642 -0.12577)
(1.04286 0.179957 -0.0817621)
(1.08182 0.179599 -0.108466)
(1.07633 0.18625 -0.0699115)
(1.04629 0.176559 -0.121228)
(1.15998 0.209446 -0.0514588)
(0.29762 0.0726822 -0.010621)
(1.14659 0.163274 -0.0536104)
(1.16548 0.20814 -0.0688744)
(1.13864 0.16403 -0.0463594)
(1.14259 0.227564 -0.0448656)
(1.14808 0.214711 -0.0390018)
(1.14118 0.210542 -0.0483953)
(1.15073 0.23137 -0.0294045)
(1.13759 0.222162 -0.0558854)
(1.12876 0.196191 -0.101075)
(1.13804 0.21836 -0.0810324)
(1.12293 0.203439 -0.0635628)
(1.05804 0.182187 -0.246183)
(1.2872 0.160764 -0.31193)
(1.09774 0.186408 -0.262376)
(1.30707 0.189623 -0.334364)
(0.973868 0.179618 -0.215392)
(0.951342 0.160955 -0.146266)
(1.03347 0.182407 -0.219403)
(1.05431 0.166994 -0.130384)
(1.06428 0.181445 -0.225135)
(1.01719 0.163879 -0.144357)
(1.07285 0.191153 -0.0415846)
(1.11574 0.200585 -0.0268389)
(1.09054 0.194318 -0.0282755)
(1.09858 0.198119 -0.0346443)
(0.304872 0.0738888 -0.0085162)
(1.14718 0.232303 -0.0214558)
(1.15933 0.218358 -0.0267396)
(1.15247 0.23345 -0.0323515)
(1.14338 0.215811 -0.030545)
(0.570694 0.135326 -0.00892322)
(1.07364 -0.162423 -0.0433819)
(1.1188 -0.18781 -0.0251676)
(1.10175 -0.185965 -0.0329103)
(1.09114 -0.163852 -0.0236512)
(1.11059 -0.188473 -0.0127096)
(0.334064 -0.0710249 -0.00774515)
(1.1636 -0.20874 -0.0203)
(1.16474 -0.206071 -0.0257743)
(1.14866 -0.203722 -0.0284658)
(1.16984 -0.209274 -0.0307379)
(1.15648 -0.206333 -0.0144941)
(0.623809 -0.148231 -0.00740424)
(1.18651 0.109435 -0.0685692)
(0.61285 0.15437 -0.0422474)
(1.17561 0.112042 -0.0703979)
(0.913074 0.0994611 -0.0379802)
(1.18287 0.12504 -0.0824614)
(1.1746 0.0933581 -0.0564112)
(0.93516 0.110254 -0.0365969)
(1.16632 0.0940813 -0.0381785)
(0.561796 0.132355 -0.0197708)
(1.18009 0.116246 -0.0395295)
(0.908077 0.0984748 -0.028717)
(1.17172 0.116881 -0.0454934)
(1.17424 0.0937022 -0.0345119)
(0.902601 0.0966542 -0.0301741)
(1.16523 -0.178481 -0.120523)
(0.360076 -0.0807974 -0.0195543)
(1.15523 -0.147454 -0.0686499)
(1.16731 -0.16823 -0.0878581)
(1.16031 -0.161838 -0.0880395)
(1.18549 -0.198279 -0.211362)
(1.28584 -0.17908 -0.27374)
(1.14909 -0.184089 -0.247379)
(1.23628 -0.157153 -0.232091)
(1.13737 -0.181811 -0.144202)
(1.11217 -0.169344 -0.110492)
(1.14464 -0.177072 -0.0986223)
(1.11703 -0.180583 -0.204283)
(1.06885 -0.156076 -0.0519653)
(1.10677 -0.183684 -0.0409559)
(1.07728 -0.159104 -0.0534085)
(1.10045 -0.179896 -0.0472243)
(0.980413 -0.144386 -0.0822848)
(0.985413 -0.141161 -0.118863)
(1.04618 -0.147874 -0.0799141)
(1.08792 -0.166387 -0.0991368)
(1.08108 -0.17246 -0.0642406)
(1.05085 -0.143203 -0.112668)
(1.17457 -0.181863 -0.0482407)
(0.329457 -0.0690456 -0.00920088)
(1.1637 -0.154937 -0.045423)
(1.18065 -0.180315 -0.0604234)
(1.15558 -0.155464 -0.0412405)
(1.16097 -0.201622 -0.0415459)
(1.15395 -0.2017 -0.0355332)
(1.16839 -0.206195 -0.0268592)
(1.14743 -0.197432 -0.0449767)
(1.15627 -0.195375 -0.0511344)
(1.13683 -0.18334 -0.0926196)
(1.15804 -0.191503 -0.0747128)
(1.12969 -0.189586 -0.0578597)
(1.05894 -0.149607 -0.238629)
(1.28385 -0.159058 -0.283651)
(1.09838 -0.170838 -0.245705)
(1.30911 -0.167438 -0.316258)
(0.978248 -0.147499 -0.207863)
(0.959556 -0.130313 -0.141276)
(1.03502 -0.148499 -0.211373)
(1.0621 -0.153672 -0.119722)
(1.06884 -0.167773 -0.208895)
(1.02324 -0.130977 -0.139462)
(1.19743 -0.124032 -0.0512044)
(0.671899 -0.176168 -0.00997234)
(0.922101 -0.129373 -0.0260071)
(1.19538 -0.12743 -0.0577685)
(0.94025 -0.147994 -0.0186997)
(1.20225 -0.139604 -0.0660496)
(1.18683 -0.109728 -0.0457321)
(1.18111 -0.109317 -0.0318595)
(0.618623 -0.145994 -0.0154771)
(0.918139 -0.126737 -0.0204293)
(1.20036 -0.130337 -0.0327415)
(0.913312 -0.125796 -0.0236871)
(1.19226 -0.130466 -0.038255)
(1.18847 -0.109326 -0.0273786)
(1.20387 0.0303873 -0.0997907)
(1.21346 -0.0493258 -0.0987424)
(1.25376 7.02936e-05 -0.200053)
(1.32206 -0.0411948 -0.109141)
(1.23209 0.0166779 -0.189278)
(1.21917 0.0258601 -0.0934938)
(1.29025 -0.0374922 -0.113765)
(1.25988 0.0221053 -0.0933959)
(0.905409 -0.000297274 -0.0702168)
(1.23312 0.0398012 -0.20588)
(1.35152 -0.0377114 -0.108349)
(1.23463 0.0255649 -0.225951)
(1.24428 0.0201202 -0.0913627)
(1.37242 -0.0405713 -0.110138)
(1.20387 -0.0434295 -0.0927714)
(1.22239 0.00583714 -0.100667)
(1.2543 -0.0149787 -0.176624)
(1.31857 0.0254248 -0.103149)
(1.23458 -0.0287201 -0.173132)
(1.28812 0.0230786 -0.107326)
(1.21802 -0.0379995 -0.0863035)
(1.25577 -0.0329673 -0.0854689)
(0.918295 -0.0376318 -0.0710428)
(1.23023 -0.0466824 -0.185158)
(1.34915 0.0231441 -0.104124)
(1.23456 -0.0262818 -0.206207)
(1.36969 0.0283683 -0.107017)
(1.2411 -0.0310894 -0.0838696)
(1.21398 -0.0317658 -0.0110307)
(1.23705 -0.0141744 -0.0106786)
(1.21777 -0.0265036 -0.0125833)
(1.22927 -0.0121009 -0.00964886)
(1.24236 -0.0187752 -0.00442809)
(1.23252 -0.0187936 -0.00884849)
(1.23711 -0.010767 -0.0039387)
(1.21138 -0.00363201 -0.00482285)
(1.21459 -0.000905831 -0.00197307)
(1.21029 -0.00281459 -0.00486794)
(1.21337 -0.000629971 -0.0006559)
(1.2109 -0.00244965 -0.00258732)
(1.21126 -0.000498272 -0.000875118)
(1.20963 -0.00186048 -0.002381)
(1.31921 -0.0496481 -0.0102355)
(1.27939 -0.0778098 -0.0152514)
(1.27381 -0.0804166 -0.0138844)
(1.26388 -0.0685946 -0.0262976)
(1.31117 -0.0444372 -0.00733184)
(1.27404 -0.0749275 -0.00209733)
(1.28724 -0.0631477 -0.00961983)
(1.27148 -0.0655026 -0.0146986)
(1.26745 -0.0746379 -0.0130095)
(1.30416 -0.0395692 -0.0189187)
(1.21459 -0.0366534 -0.00457575)
(1.24704 -0.0204727 -0.0038307)
(1.23588 -0.0205012 -0.00735459)
(0.661914 0.100531 -0.0162497)
(0.266566 0.066023 0.0669032)
(0.789554 0.0490423 -0.082731)
(0.697644 0.122753 -0.0104099)
(0.749851 -0.0353322 -0.105907)
(0.7361 0.153344 -0.0305385)
(0.307659 0.0749396 -0.0126671)
(0.742662 0.164531 -0.0244222)
(0.707502 0.144702 -0.0322406)
(0.762782 0.169955 -0.0341008)
(1.22636 -0.0119688 -0.0080061)
(1.21805 -0.00883942 -0.00681456)
(1.21391 -0.0240811 -0.00993584)
(1.22357 -0.00974868 -0.0112246)
(1.2232 -0.00415128 -0.00563736)
(1.22922 -0.00921814 -0.00509377)
(1.21956 -0.00666826 -0.0103449)
(0.707072 0.145448 -0.0268757)
(0.296207 0.0719349 -0.00759518)
(0.764141 0.170304 -0.0276107)
(0.734535 0.152254 -0.0227544)
(0.740119 0.163981 -0.0202162)
(0.972797 0.133221 -0.0149311)
(0.557846 0.130273 -0.014604)
(0.94631 0.190834 -0.0277773)
(0.568965 0.0850854 -0.0323993)
(0.925857 0.184527 -0.0201775)
(0.549706 0.077989 -0.00133648)
(0.991806 0.138413 -0.0299817)
(0.741474 -0.149592 -0.0260147)
(0.327452 -0.069213 -0.00833013)
(0.801228 -0.162164 -0.0228688)
(0.778996 -0.156586 -0.0196614)
(0.767016 -0.155795 -0.0188193)
(1.00476 -0.153141 -0.0126046)
(0.614103 -0.144286 -0.0131679)
(0.620779 -0.132698 -0.0273884)
(0.984066 -0.1926 -0.0230907)
(0.603709 -0.126498 -0.00123805)
(0.965223 -0.187377 -0.0183275)
(1.02205 -0.156989 -0.025143)
(0.932279 0.0725854 -0.0461057)
(0.511591 0.0882646 0.0506701)
(0.939472 0.0548911 -0.0828343)
(0.639526 -0.0357829 -0.0612248)
(0.873549 0.116125 -0.0527461)
(0.496702 0.0157248 0.106381)
(0.980308 -0.00308289 -0.0723794)
(0.987659 0.13546 -0.0369169)
(0.572591 0.135124 -0.0156627)
(0.929836 0.18569 -0.0261112)
(0.554314 0.0814161 0.00170419)
(0.943021 0.189458 -0.0354609)
(0.977364 0.13509 -0.0204085)
(0.565909 0.0814466 -0.0313336)
(0.706372 -0.0963113 -0.0126175)
(0.304744 -0.0720121 0.0861862)
(0.860758 -0.0597416 -0.0984673)
(0.75866 -0.125152 -0.0143033)
(0.821361 0.0437523 -0.0989835)
(1.253 -0.0628546 -0.0373918)
(1.2766 -0.0536237 0.00743325)
(1.27422 -0.0498459 -0.0362049)
(1.26155 -0.0237012 -0.0152813)
(1.26155 -0.0569597 -0.00421138)
(1.28641 -0.0379712 -0.0266084)
(1.25533 -0.0638793 -0.0480436)
(0.768474 -0.15652 -0.0259033)
(0.338147 -0.0713424 -0.0107802)
(0.78216 -0.156473 -0.0223702)
(0.742577 -0.148837 -0.0299626)
(0.800104 -0.161014 -0.0282936)
(0.956398 -0.112746 -0.0607574)
(0.567038 -0.116241 0.0403739)
(0.685186 0.00876464 -0.0985676)
(0.989606 -0.0843533 -0.109276)
(0.482185 -0.0824007 0.0900165)
(0.917681 -0.149935 -0.0645486)
(1.01961 -0.0344269 -0.10359)
(1.01812 -0.154028 -0.0311218)
(0.627755 -0.148276 -0.0125568)
(0.608733 -0.130102 0.00178039)
(0.969674 -0.18775 -0.0225957)
(1.00965 -0.154456 -0.0170669)
(0.617851 -0.129091 -0.0261912)
(0.981153 -0.190649 -0.0293072)
(1.31684 -0.00688062 -0.151255)
(1.21251 0.00590161 -0.104379)
(1.38038 0.0150887 -0.155625)
(1.30893 -0.017401 -0.140559)
(1.25373 0.0351078 -0.146453)
(1.29262 -0.0157515 -0.110457)
(1.3233 -0.0198005 -0.181108)
(1.36849 0.00693489 -0.122488)
(0.748915 -0.0155434 -0.0654849)
(1.25098 -0.012235 -0.0565483)
(0.917108 -0.0505865 -0.102405)
(1.36931 0.0173112 -0.115756)
(1.25755 -0.0139186 -0.0628222)
(1.27396 -0.0318116 -0.0655098)
(1.24686 -0.0506746 -0.0807738)
(1.23564 -0.0244246 -0.0434)
(1.30548 -0.0162803 -0.0991347)
(1.25837 -0.0954417 -0.0524529)
(1.29066 -0.0218424 -0.0826686)
(1.29623 -0.0140012 -0.0581761)
(1.32146 -0.0110206 -0.148756)
(1.37598 -0.0247975 -0.149762)
(1.25378 -0.017588 -0.105911)
(1.31005 -0.00205736 -0.141049)
(1.28366 -0.0613899 -0.131819)
(1.32376 -0.00415486 -0.186684)
(1.29877 0.0015063 -0.108913)
(1.23649 -0.024463 -0.0237709)
(1.24991 -0.0308238 -0.0257952)
(1.24348 -0.0485246 -0.0263633)
(1.24344 -0.0251584 -0.0251873)
(1.24346 -0.0306867 -0.0316786)
(1.24858 -0.0230275 -0.0168195)
(1.22827 -0.0500889 -0.034498)
(1.37703 -0.0219035 -0.12284)
(0.767699 -0.0204778 -0.0673229)
(1.2721 0.000276331 -0.0597166)
(1.37692 -0.0318727 -0.115284)
(0.932577 0.0229841 -0.104137)
(1.27785 -0.00244199 -0.0654736)
(1.27974 0.0280074 -0.0501912)
(1.2382 0.0480015 -0.0461026)
(1.2932 0.0373266 -0.0896605)
(1.30672 0.00211289 -0.0960824)
(1.29944 0.0748279 -0.0590725)
(1.29497 0.0112402 -0.0574475)
(1.2953 0.014 -0.0754191)
(0.751299 0.159559 -0.0805219)
(0.314965 0.0778051 -0.0265786)
(0.742854 0.163998 -0.0497072)
(0.704447 0.143883 -0.0625102)
(0.777115 0.174365 -0.0745044)
(0.431696 0.0780224 -0.0412172)
(0.593238 0.0741935 -0.110494)
(0.340872 0.0841748 -0.0700366)
(0.339078 0.0804656 -0.0551999)
(0.709863 0.145998 -0.0487774)
(0.29886 0.0732574 -0.0128337)
(0.780286 0.173851 -0.0569345)
(0.753217 0.156509 -0.0585816)
(0.74467 0.164941 -0.0391825)
(0.347299 0.0845527 -0.0216646)
(0.337091 0.0793476 -0.0231057)
(0.344553 0.0827322 -0.0365789)
(0.341054 0.082008 -0.0463011)
(0.341908 0.0822778 -0.0149686)
(0.340404 0.0803665 -0.012349)
(1.40262 -0.165376 0.00290709)
(1.36154 -0.131892 -0.0222802)
(1.53133 -0.128675 0.030155)
(1.48545 -0.138648 -0.0353147)
(1.49188 -0.134361 0.0228026)
(1.35674 -0.131301 -0.000931717)
(1.40692 -0.166767 -0.0253671)
(1.42384 -0.192144 0.00533869)
(1.4089 -0.156085 0.0141041)
(1.45283 -0.151737 -0.0361315)
(1.40535 -0.203269 -0.0298324)
(1.46018 -0.147911 0.0200366)
(1.40244 -0.201054 0.00583906)
(1.42738 -0.194142 -0.0281547)
(0.343984 -0.0694842 -0.0157572)
(0.342939 -0.0672419 -0.0121242)
(1.00391 0.138114 -0.0689977)
(0.583244 0.138739 -0.0347999)
(0.93335 0.185281 -0.0518748)
(0.558693 0.0828539 -0.00590053)
(0.957168 0.193609 -0.0726313)
(0.983942 0.134305 -0.0434941)
(0.57846 0.0863459 -0.0530262)
(0.980071 0.133626 -0.0328472)
(0.562729 0.131806 -0.0222954)
(0.961283 0.194078 -0.0550204)
(0.581781 0.0890954 -0.0436409)
(0.932465 0.185574 -0.0395254)
(1.00632 0.139685 -0.0528024)
(0.554688 0.0800714 -0.00747996)
(0.787422 -0.162858 -0.0683792)
(0.346336 -0.0727691 -0.0193655)
(0.785496 -0.154247 -0.0379899)
(0.742614 -0.14844 -0.0511929)
(0.818385 -0.164276 -0.059081)
(0.431765 -0.0631014 -0.0283237)
(0.589541 -0.0609444 -0.0845818)
(0.34354 -0.0688497 -0.06245)
(0.340939 -0.0656177 -0.0496503)
(1.39467 -0.171774 -0.00756062)
(1.37456 -0.177154 -0.0415323)
(1.40018 -0.148287 0.00630985)
(1.43772 -0.139722 -0.0320911)
(1.44893 -0.139769 0.0151075)
(1.37887 -0.181553 -0.00762656)
(1.38903 -0.167761 -0.040443)
(1.3836 -0.155532 -0.0250891)
(1.3548 -0.125949 -0.00111255)
(1.48151 -0.138101 0.02208)
(1.51825 -0.124305 -0.0340002)
(1.48054 -0.128946 -0.0341271)
(1.4006 -0.16147 0.00286782)
(1.33496 -0.120805 -0.0225668)
(1.40809 -0.182538 -0.0280172)
(1.40176 -0.150568 -0.0363548)
(1.44939 -0.151048 0.017866)
(1.4008 -0.198842 0.00507561)
(1.45119 -0.142452 -0.0368296)
(1.42183 -0.189415 0.00498253)
(1.38993 -0.191725 -0.0301285)
(1.36783 -0.144416 -0.00962767)
(1.46449 -0.125963 -0.028636)
(1.51405 -0.120983 0.0314188)
(1.31014 -0.106609 -0.0382456)
(1.47686 -0.125627 0.0201564)
(1.31743 -0.109516 -0.0138028)
(1.3611 -0.141202 -0.039088)
(0.746797 -0.150276 -0.0413087)
(0.330992 -0.069366 -0.0103263)
(0.819983 -0.163643 -0.0454617)
(0.78863 -0.160237 -0.049016)
(0.785826 -0.155182 -0.0321523)
(0.349492 -0.0708893 -0.0208006)
(0.339076 -0.066082 -0.0230979)
(0.346979 -0.0684051 -0.033503)
(0.344075 -0.0672026 -0.041575)
(1.35995 -0.139484 -0.048587)
(1.366 -0.153873 -0.0189703)
(1.43184 -0.132173 0.0170618)
(1.38186 -0.117899 -0.0204002)
(1.34854 -0.142416 -0.0494456)
(1.37969 -0.146387 -0.0187879)
(1.42434 -0.106879 -0.0102353)
(1.34978 -0.129112 -0.0827914)
(1.37231 -0.17304 -0.103431)
(1.4512 -0.083805 0.0438087)
(1.38275 -1.98679e-05 8.16729e-05)
(1.30153 -0.108986 -0.0933577)
(1.4204 -0.0877919 0.0263159)
(1.40348 -0.17174 -0.0977117)
(1.33032 -0.122508 -0.0513493)
(1.45812 -0.120161 0.0238569)
(1.30225 -0.090893 -0.0269866)
(1.4791 -0.0920154 0.00519306)
(1.27993 -0.0968445 -0.0552664)
(1.35157 -0.12289 -0.0216094)
(1.44565 -0.0938953 -0.00431924)
(1.37477 -0.139972 -0.0696162)
(1.35719 -0.110208 0.00470042)
(1.37822 -0.152452 -0.108138)
(1.35588 -0.0168678 -0.00891793)
(1.36133 -0.138957 -0.0656765)
(1.39559 -0.0990659 0.0212666)
(1.41032 -0.166007 -0.100321)
(1.03466 -0.157826 -0.0526429)
(0.640302 -0.153569 -0.0197256)
(0.612775 -0.128878 0.00450145)
(0.975606 -0.185965 -0.0381275)
(0.630188 -0.130161 -0.0365303)
(0.998094 -0.194315 -0.0548423)
(1.01671 -0.153639 -0.0307153)
(1.01226 -0.152063 -0.0246642)
(0.619999 -0.145668 -0.0156122)
(0.63327 -0.134206 -0.0326367)
(1.00085 -0.19342 -0.0425476)