/*--------------------------------*- C++ -*----------------------------------*\
| =========                 |                                                 |
| \\      /  F ield         | OpenFOAM: The Open Source CFD Toolbox           |
|  \\    /   O peration     | Version:  2012                                  |
|   \\  /    A nd           | Website:  www.openfoam.com                      |
|    \\/     M anipulation  |                                                 |
\*---------------------------------------------------------------------------*/
FoamFile
{
    version     2.0;
    format      ascii;
    class       surfaceVectorField;
    location    "0.107/fluid";
    object      Uf_0;
}
// * * * * * * * * * * * * * * * * * * * * * * * * * * * * * * * * * * * * * //

dimensions      [0 1 -1 0 0 0 0];


internalField   nonuniform List<vector> 
46886
(
(1.27793 -0.0510097 0.000578905)
(1.24406 -0.0175817 -0.00681805)
(1.22499 -0.0239164 -0.0108418)
(1.23959 -0.0151526 -0.0109063)
(1.24223 -0.0189637 -0.00753957)
(1.26119 -0.0532319 -0.00579098)
(1.27306 -0.0449167 -0.00917343)
(1.25833 -0.0471124 -0.0141218)
(1.20088 -0.0180714 -0.00778326)
(1.20754 -0.0336992 -0.00529792)
(1.20804 -0.029744 -0.00454645)
(1.20867 -0.0260314 -0.00553297)
(1.20896 -0.0219314 -0.00470259)
(1.20438 -0.0186454 -0.00766227)
(1.20509 -0.00695757 -0.00431504)
(1.20191 -0.00762327 -0.00546846)
(1.20591 -0.00696074 -0.00443227)
(1.20528 -0.00644392 -0.00432191)
(1.20496 -0.00638927 -0.00427331)
(1.20344 -0.0065928 -0.00478719)
(1.20257 -0.00533533 -0.00337502)
(1.2023 -0.00550068 -0.00365182)
(1.20298 -0.00531115 -0.003547)
(1.20252 -0.00499633 -0.00328862)
(1.20262 -0.00496795 -0.00331669)
(1.20286 -0.00499806 -0.00341934)
(1.20138 -0.00392345 -0.0024339)
(1.20132 -0.00394784 -0.00257112)
(1.20161 -0.00398637 -0.00257285)
(1.20141 -0.00366286 -0.00236178)
(1.20166 -0.00368461 -0.00236437)
(1.20162 -0.00371684 -0.00247531)
(1.20078 -0.00273032 -0.00171497)
(1.20073 -0.00274434 -0.0018002)
(1.20093 -0.0027991 -0.00181722)
(1.20082 -0.00254909 -0.00166273)
(1.201 -0.00258511 -0.00167721)
(1.20096 -0.00260745 -0.00174723)
(1.20044 -0.00184805 -0.0011962)
(1.20041 -0.00185664 -0.00124788)
(1.20054 -0.00190695 -0.00126878)
(1.20048 -0.00172661 -0.00115828)
(1.2006 -0.00176073 -0.00117652)
(1.20057 -0.00177677 -0.00121844)
(1.20026 -0.00122992 -0.000825718)
(1.20024 -0.00123448 -0.000856924)
(1.20032 -0.00127504 -0.000877377)
(1.20028 -0.00115076 -0.000798761)
(1.20037 -0.00117915 -0.000816689)
(1.20035 -0.00118971 -0.000841247)
(1.20016 -0.000810252 -0.000564509)
(1.20014 -0.000813072 -0.000583121)
(1.2002 -0.000842766 -0.000600283)
(1.20018 -0.000758886 -0.000544782)
(1.20023 -0.000779957 -0.000560011)
(1.20022 -0.000787146 -0.000574414)
(1.2001 -0.000530284 -0.000380438)
(1.20009 -0.000532209 -0.00039178)
(1.20013 -0.00055307 -0.000405245)
(1.20012 -0.000497669 -0.000366841)
(1.20015 -0.000512266 -0.000378837)
(1.20014 -0.00051734 -0.000387351)
(1.20007 -0.000346002 -0.000254614)
(1.20007 -0.000347803 -0.000261576)
(1.20009 -0.000361984 -0.000271607)
(1.20008 -0.000325067 -0.000245805)
(1.20011 -0.000335227 -0.000254686)
(1.2001 -0.000339114 -0.000259768)
(1.20005 -0.000222098 -0.000171647)
(1.20005 -0.000223609 -0.0001756)
(1.20007 -0.000233376 -0.000182577)
(1.20006 -0.000208297 -0.000165449)
(1.20008 -0.000215498 -0.00017174)
(1.20007 -0.00021824 -0.000174512)
(1.20004 -0.000140481 -0.000113389)
(1.20004 -0.000141265 -0.000115891)
(1.20005 -0.000147817 -0.00012138)
(1.20005 -0.000131962 -0.000108911)
(1.20006 -0.000136844 -0.000113835)
(1.20006 -0.000138425 -0.000115513)
(1.20004 -8.73154e-05 -7.23499e-05)
(1.20004 -8.77011e-05 -7.4021e-05)
(1.20005 -9.26627e-05 -7.80442e-05)
(1.20004 -8.14001e-05 -6.92787e-05)
(1.20005 -8.53618e-05 -7.30993e-05)
(1.20005 -8.63943e-05 -7.43073e-05)
(1.20004 -4.68141e-05 -4.2421e-05)
(1.20004 -4.74433e-05 -4.3233e-05)
(1.20004 -5.11075e-05 -4.63068e-05)
(1.20004 -4.25041e-05 -3.99477e-05)
(1.20005 -4.60588e-05 -4.28169e-05)
(1.20005 -4.63981e-05 -4.33915e-05)
(1.21957 -0.00337997 -0.000985492)
(1.21584 -0.00440979 0.000545788)
(1.21469 -0.00586699 0.00012966)
(1.21505 -0.00379198 0.000479513)
(1.21576 -0.00219097 -0.000385436)
(1.21157 -0.0103647 -0.00143971)
(1.20927 -0.00728806 -0.00366409)
(1.21179 -0.00997006 -0.00124947)
(1.2112 -0.00905161 -0.0014707)
(1.21083 -0.00921239 -0.00161916)
(1.2101 -0.00622667 -0.00234851)
(1.20709 -0.00606077 -0.00230995)
(1.20546 -0.005622 -0.00308543)
(1.20758 -0.00618461 -0.00228491)
(1.20664 -0.00544329 -0.00235026)
(1.20625 -0.00456974 -0.00251574)
(1.20705 -0.00549018 -0.00234997)
(1.20412 -0.00387753 -0.00217458)
(1.20376 -0.00397874 -0.00239535)
(1.20446 -0.00393313 -0.00224667)
(1.20394 -0.0035866 -0.00215251)
(1.20413 -0.0033702 -0.00213063)
(1.20424 -0.00361295 -0.00221708)
(1.20259 -0.00274073 -0.00172324)
(1.20253 -0.00282781 -0.0018253)
(1.20281 -0.00278215 -0.00180585)
(1.20253 -0.00256098 -0.00168818)
(1.20277 -0.00249741 -0.00167763)
(1.20273 -0.00259317 -0.00175644)
(1.2017 -0.00193882 -0.00129487)
(1.20166 -0.00200376 -0.00135811)
(1.20186 -0.00198252 -0.00136224)
(1.20167 -0.00181461 -0.00126426)
(1.20184 -0.00178108 -0.00127088)
(1.20182 -0.00185167 -0.00132017)
(1.20111 -0.00133961 -0.00095092)
(1.20109 -0.00138599 -0.000990215)
(1.20122 -0.0013786 -0.00100268)
(1.2011 -0.00125503 -0.000926114)
(1.20122 -0.00123721 -0.000938969)
(1.2012 -0.00128841 -0.000968995)
(1.20072 -0.000910964 -0.000685566)
(1.20071 -0.000943294 -0.000710153)
(1.2008 -0.000941938 -0.00072477)
(1.20072 -0.0008542 -0.000666006)
(1.2008 -0.000844872 -0.00068035)
(1.20079 -0.000881177 -0.000698731)
(1.20048 -0.00060823 -0.000482851)
(1.20047 -0.00063043 -0.000497993)
(1.20053 -0.000632067 -0.000511837)
(1.20048 -0.000570431 -0.000467912)
(1.20053 -0.000566033 -0.000481011)
(1.20053 -0.000591256 -0.000492023)
(1.20032 -0.000401086 -0.000335981)
(1.20031 -0.000416336 -0.000345129)
(1.20035 -0.000418049 -0.000356486)
(1.20032 -0.000376846 -0.000325168)
(1.20036 -0.000374257 -0.000335661)
(1.20035 -0.000391621 -0.000342094)
(1.20021 -0.00026309 -0.000230429)
(1.20021 -0.000273478 -0.000236195)
(1.20024 -0.000275173 -0.000245121)
(1.20022 -0.000247136 -0.000222806)
(1.20024 -0.000245935 -0.000230952)
(1.20024 -0.000257848 -0.000234893)
(1.20015 -0.000170511 -0.000158337)
(1.20015 -0.000177154 -0.000161529)
(1.20016 -0.000178665 -0.000167844)
(1.20015 -0.000160644 -0.000152909)
(1.20017 -0.000160133 -0.000158751)
(1.20017 -0.000167735 -0.000160881)
(1.20011 -0.000109582 -0.00010654)
(1.20011 -0.000114464 -0.000108593)
(1.20012 -0.000115615 -0.000113814)
(1.20011 -0.000102724 -0.000102499)
(1.20012 -0.000104091 -0.000107249)
(1.20012 -0.000108239 -0.000108529)
(1.20009 -6.58648e-05 -6.92352e-05)
(1.20009 -7.12173e-05 -7.0681e-05)
(1.20009 -7.01066e-05 -7.45251e-05)
(1.20009 -6.10232e-05 -6.64616e-05)
(1.2001 -6.41024e-05 -6.97023e-05)
(1.2001 -6.48862e-05 -7.10813e-05)
(1.20007 -3.45061e-05 -4.01902e-05)
(1.20007 -3.93305e-05 -4.11631e-05)
(1.20008 -3.75351e-05 -4.43154e-05)
(1.20008 -3.12798e-05 -3.75523e-05)
(1.20008 -3.71162e-05 -4.05175e-05)
(1.20008 -3.38606e-05 -4.13018e-05)
(1.21124 -0.00141432 0.00023773)
(1.21183 -0.000511681 -0.000148912)
(1.21103 -0.0016877 8.03534e-05)
(1.21103 -0.00045706 2.3691e-05)
(1.21092 -0.00124091 0.000232228)
(1.20978 -0.00315511 -0.000876913)
(1.20939 -0.00243915 -0.00137627)
(1.20993 -0.00293239 -0.000770529)
(1.20935 -0.00297229 -0.000993878)
(1.20935 -0.00179783 -0.00103182)
(1.20956 -0.00281049 -0.000900997)
(1.20711 -0.00255115 -0.00145052)
(1.2067 -0.00252227 -0.00169742)
(1.20741 -0.00254222 -0.00142878)
(1.20677 -0.002342 -0.00149841)
(1.20691 -0.00180307 -0.00147399)
(1.20705 -0.00232778 -0.00148319)
(1.20482 -0.0018032 -0.00149688)
(1.20473 -0.00198632 -0.00159373)
(1.20509 -0.00181735 -0.00153069)
(1.20463 -0.0016796 -0.00149843)
(1.20488 -0.00146165 -0.00147449)
(1.20487 -0.00168404 -0.00152875)
(1.2033 -0.00131894 -0.00129115)
(1.20328 -0.00146163 -0.00134891)
(1.2035 -0.00133599 -0.00133947)
(1.20319 -0.00123517 -0.00127687)
(1.20339 -0.00110039 -0.00127873)
(1.20338 -0.00124881 -0.00131729)
(1.20225 -0.000945734 -0.00103636)
(1.20224 -0.00105109 -0.00107446)
(1.2024 -0.000965684 -0.00108252)
(1.20218 -0.00088673 -0.00101857)
(1.20232 -0.000793174 -0.00103231)
(1.20232 -0.000903604 -0.0010572)
(1.20151 -0.000662014 -0.000797744)
(1.20151 -0.00073744 -0.000822701)
(1.20162 -0.000680386 -0.00083689)
(1.20147 -0.000621094 -0.000780837)
(1.20157 -0.000557741 -0.000797636)
(1.20158 -0.000636961 -0.000813487)
(1.20101 -0.00045319 -0.000596271)
(1.20101 -0.000507254 -0.000612518)
(1.20109 -0.000468464 -0.000627748)
(1.20099 -0.000425156 -0.000581675)
(1.20106 -0.000384476 -0.000597881)
(1.20107 -0.000438559 -0.000608028)
(1.20068 -0.000302875 -0.00043256)
(1.20068 -0.000341867 -0.000442993)
(1.20073 -0.000314824 -0.000457249)
(1.20067 -0.000284158 -0.000420628)
(1.20071 -0.000259691 -0.000434741)
(1.20072 -0.000294626 -0.000441299)
(1.20046 -0.00019792 -0.000307005)
(1.20046 -0.000226698 -0.000313628)
(1.2005 -0.000206884 -0.000325134)
(1.20045 -0.000184932 -0.000297968)
(1.20049 -0.000171782 -0.000308759)
(1.20049 -0.000193053 -0.000313072)
(1.20031 -0.000124297 -0.000214892)
(1.20032 -0.000148026 -0.000218918)
(1.20034 -0.000130476 -0.00022792)
(1.20031 -0.000116044 -0.000208317)
(1.20033 -0.000111465 -0.00021607)
(1.20034 -0.000121448 -0.000219141)
(1.20022 -7.63268e-05 -0.000150918)
(1.20022 -9.78154e-05 -0.000152863)
(1.20024 -8.07084e-05 -0.000159658)
(1.20022 -7.11042e-05 -0.000145953)
(1.20024 -7.423e-05 -0.000151518)
(1.20024 -7.49814e-05 -0.000153218)
(1.20015 -4.51591e-05 -0.000103764)
(1.20016 -6.52851e-05 -0.000104765)
(1.20017 -4.79994e-05 -0.000110268)
(1.20016 -4.17457e-05 -9.97001e-05)
(1.20017 -4.97369e-05 -0.000103965)
(1.20017 -4.43585e-05 -0.000105189)
(1.20012 -2.12251e-05 -6.61807e-05)
(1.20012 -4.04056e-05 -6.70118e-05)
(1.20012 -2.38921e-05 -7.12844e-05)
(1.20012 -1.81149e-05 -6.33742e-05)
(1.20013 -3.06047e-05 -6.6291e-05)
(1.20013 -2.05045e-05 -6.77684e-05)
(1.2001 -4.00932e-06 -3.84592e-05)
(1.2001 -2.19347e-05 -3.90476e-05)
(1.2001 -5.06069e-06 -4.248e-05)
(1.2001 -2.7118e-06 -3.58141e-05)
(1.2001 -1.98129e-05 -3.84345e-05)
(1.20011 -3.39665e-06 -3.95877e-05)
(1.22134 -0.00426105 -0.00425899)
(1.22064 -0.00410715 -0.00528332)
(1.21637 -0.00299941 -0.00344904)
(1.21862 -0.00285265 -0.00297768)
(1.21779 -0.00192879 -0.00224904)
(1.21103 -0.00373506 -0.00482047)
(1.2103 -0.00531369 -0.00428337)
(1.2099 -0.00537367 -0.00772228)
(1.21014 -0.00403578 -0.00482171)
(1.20958 -0.00429406 -0.00637997)
(1.21034 -0.00396692 -0.00441395)
(1.20614 -0.00485357 -0.00432696)
(1.20587 -0.00500361 -0.00501097)
(1.20695 -0.00453524 -0.00438345)
(1.20609 -0.00443701 -0.0041105)
(1.20596 -0.00439038 -0.0044649)
(1.20646 -0.00430778 -0.00401925)
(1.20374 -0.00403964 -0.00329928)
(1.20372 -0.00407067 -0.00343327)
(1.20415 -0.00397456 -0.00335822)
(1.20368 -0.00377466 -0.00311932)
(1.20392 -0.00372026 -0.00312392)
(1.20402 -0.00373043 -0.00314482)
(1.20234 -0.00309992 -0.00239696)
(1.20234 -0.00309927 -0.00246114)
(1.2026 -0.00311141 -0.00245968)
(1.20233 -0.00289066 -0.00226504)
(1.20257 -0.00289383 -0.00226447)
(1.20257 -0.00290341 -0.0023049)
(1.20148 -0.0022383 -0.0017061)
(1.20147 -0.00223945 -0.00174317)
(1.20166 -0.00227371 -0.00175779)
(1.20148 -0.0020882 -0.0016119)
(1.20166 -0.00210944 -0.00162493)
(1.20165 -0.00212016 -0.00164725)
(1.20094 -0.00156067 -0.00119346)
(1.20093 -0.00156194 -0.00121328)
(1.20106 -0.00159852 -0.00123354)
(1.20095 -0.00145793 -0.00112627)
(1.20108 -0.00148214 -0.00114398)
(1.20106 -0.00149141 -0.00115422)
(1.20061 -0.00106834 -0.000825105)
(1.2006 -0.00106909 -0.000835261)
(1.20069 -0.00110054 -0.000854683)
(1.20062 -0.00100011 -0.000778422)
(1.20071 -0.00102188 -0.000795676)
(1.2007 -0.00102877 -0.000799503)
(1.2004 -0.000718532 -0.000563132)
(1.2004 -0.00072008 -0.000567418)
(1.20046 -0.000744601 -0.000584391)
(1.20042 -0.000673623 -0.000530576)
(1.20047 -0.000690776 -0.000545552)
(1.20047 -0.000696672 -0.000545951)
(1.20028 -0.000478247 -0.000379942)
(1.20027 -0.000479312 -0.000381617)
(1.20031 -0.000497209 -0.000394914)
(1.20028 -0.000449082 -0.000357577)
(1.20032 -0.000461758 -0.000369198)
(1.20032 -0.000465827 -0.000368232)
(1.20019 -0.000317737 -0.00025533)
(1.20019 -0.000318783 -0.000255699)
(1.20022 -0.000331115 -0.000265513)
(1.2002 -0.000298826 -0.000240014)
(1.20023 -0.000307634 -0.000248916)
(1.20022 -0.000310953 -0.000247478)
(1.20014 -0.000206803 -0.000170081)
(1.20014 -0.000208129 -0.000169396)
(1.20016 -0.000217005 -0.000176576)
(1.20014 -0.000194195 -0.000159652)
(1.20016 -0.000200782 -0.000165989)
(1.20016 -0.000203398 -0.000164265)
(1.2001 -0.000132259 -0.000113284)
(1.2001 -0.000132856 -0.000113)
(1.20012 -0.00013891 -0.000118034)
(1.20011 -0.000124303 -0.000106319)
(1.20012 -0.000128803 -0.000110893)
(1.20012 -0.000130152 -0.000109853)
(1.20008 -8.35133e-05 -7.40576e-05)
(1.20008 -8.39105e-05 -7.36759e-05)
(1.20009 -8.83572e-05 -7.72956e-05)
(1.20009 -7.7932e-05 -6.93009e-05)
(1.2001 -8.14908e-05 -7.26554e-05)
(1.2001 -8.24929e-05 -7.17908e-05)
(1.20007 -4.54521e-05 -4.36344e-05)
(1.20007 -4.60544e-05 -4.35027e-05)
(1.20008 -4.9674e-05 -4.68539e-05)
(1.20008 -4.10821e-05 -3.99129e-05)
(1.20008 -4.4609e-05 -4.31732e-05)
(1.20008 -4.51229e-05 -4.27855e-05)
(1.21336 -0.00126206 -0.000777231)
(1.21253 -0.00187357 0.000442949)
(1.21192 -0.00219632 9.31686e-05)
(1.21182 -0.00138817 0.000323936)
(1.21207 -0.000877027 -0.000296543)
(1.21004 -0.00465163 -0.00159237)
(1.2094 -0.00367023 -0.00321838)
(1.21022 -0.00399822 -0.00140795)
(1.20972 -0.0036358 -0.00154772)
(1.20952 -0.0040194 -0.00173806)
(1.20938 -0.00296801 -0.00220645)
(1.20694 -0.00372727 -0.00232128)
(1.20643 -0.00356427 -0.00287812)
(1.20731 -0.00355336 -0.00224965)
(1.20662 -0.00335044 -0.00228888)
(1.20664 -0.00293489 -0.00238114)
(1.20692 -0.00323006 -0.00221406)
(1.20461 -0.00282361 -0.00215365)
(1.20452 -0.00287783 -0.00227555)
(1.20491 -0.00278445 -0.00216074)
(1.20445 -0.00261686 -0.00206728)
(1.20469 -0.00248134 -0.0020345)
(1.20473 -0.00258267 -0.00206578)
(1.20315 -0.00215332 -0.00170862)
(1.20314 -0.00220702 -0.00175651)
(1.20337 -0.00215561 -0.00173829)
(1.20308 -0.00201163 -0.00162866)
(1.20329 -0.00195213 -0.00161798)
(1.20328 -0.00201486 -0.00164534)
(1.20216 -0.00158943 -0.00129193)
(1.20215 -0.00163502 -0.0013186)
(1.20232 -0.0016096 -0.00132206)
(1.20211 -0.00148706 -0.00122868)
(1.20228 -0.0014535 -0.00123485)
(1.20227 -0.00150573 -0.00124809)
(1.20147 -0.00113435 -0.000949603)
(1.20146 -0.00116941 -0.00096356)
(1.20159 -0.00115877 -0.000975978)
(1.20144 -0.00106302 -0.00090116)
(1.20156 -0.00104444 -0.000914068)
(1.20155 -0.00108488 -0.000919105)
(1.20099 -0.000791718 -0.00068496)
(1.20099 -0.000817953 -0.000691333)
(1.20108 -0.000814142 -0.000705337)
(1.20098 -0.000742886 -0.000648882)
(1.20106 -0.00073267 -0.00066263)
(1.20106 -0.000763026 -0.00066308)
(1.20068 -0.000540767 -0.000484605)
(1.20067 -0.000559293 -0.000487471)
(1.20074 -0.000559545 -0.000501012)
(1.20067 -0.000507766 -0.00045835)
(1.20073 -0.000502931 -0.000471258)
(1.20072 -0.000524557 -0.000470029)
(1.20046 -0.000363236 -0.000335534)
(1.20046 -0.000376653 -0.000336311)
(1.20051 -0.000377452 -0.000347839)
(1.20046 -0.000341621 -0.000316704)
(1.2005 -0.000338687 -0.000327386)
(1.2005 -0.000354311 -0.000325597)
(1.20032 -0.000242288 -0.000231106)
(1.20032 -0.000251601 -0.000231116)
(1.20035 -0.0002527 -0.000239543)
(1.20032 -0.000227949 -0.000218293)
(1.20035 -0.000226585 -0.000226178)
(1.20035 -0.000237351 -0.000224484)
(1.20023 -0.000159434 -0.000157812)
(1.20023 -0.000165593 -0.000157138)
(1.20025 -0.00016674 -0.0001638)
(1.20023 -0.000150292 -0.000148486)
(1.20025 -0.000149712 -0.000154552)
(1.20025 -0.000156848 -0.000152876)
(1.20017 -0.000103818 -0.000105848)
(1.20017 -0.000108393 -0.000105189)
(1.20018 -0.000109064 -0.000109861)
(1.20017 -9.73625e-05 -9.94418e-05)
(1.20018 -9.86781e-05 -0.000103568)
(1.20018 -0.000102197 -0.000102307)
(1.20013 -6.15681e-05 -7.0504e-05)
(1.20013 -6.75687e-05 -6.97436e-05)
(1.20014 -6.5836e-05 -7.34612e-05)
(1.20013 -5.67057e-05 -6.59646e-05)
(1.20014 -6.05177e-05 -6.87641e-05)
(1.20014 -6.05898e-05 -6.82715e-05)
(1.20011 -3.1896e-05 -4.18104e-05)
(1.20011 -3.71299e-05 -4.18585e-05)
(1.20011 -3.46293e-05 -4.4671e-05)
(1.20011 -2.87748e-05 -3.81708e-05)
(1.20012 -3.41592e-05 -4.11778e-05)
(1.20012 -3.12155e-05 -4.08312e-05)
(1.20997 -0.000714842 0.00016583)
(1.21015 -0.000335567 -0.000163953)
(1.20977 -0.000818697 2.7294e-06)
(1.20974 -0.000256583 -2.11806e-05)
(1.20967 -0.000571593 0.000130031)
(1.2089 -0.00175795 -0.000912131)
(1.20872 -0.00149128 -0.00129522)
(1.20898 -0.00154211 -0.000791153)
(1.20856 -0.001625 -0.000997357)
(1.20863 -0.00106727 -0.00100351)
(1.20869 -0.001466 -0.000886308)
(1.20688 -0.00165485 -0.00145591)
(1.20673 -0.00169475 -0.00161693)
(1.20711 -0.00157953 -0.00139553)
(1.20661 -0.00151653 -0.00145825)
(1.2068 -0.00121674 -0.00141926)
(1.20683 -0.00145722 -0.00140263)
(1.20503 -0.00132952 -0.0014907)
(1.20501 -0.00145052 -0.00153285)
(1.20526 -0.00130739 -0.00148034)
(1.20486 -0.00123964 -0.00144831)
(1.20508 -0.00108199 -0.00142386)
(1.20508 -0.00122059 -0.00143436)
(1.20362 -0.00103878 -0.00128796)
(1.20362 -0.00114208 -0.00130773)
(1.20382 -0.00103811 -0.00129863)
(1.20351 -0.000972231 -0.00123957)
(1.20369 -0.000860349 -0.0012413)
(1.2037 -0.000972391 -0.00124301)
(1.20256 -0.000776578 -0.00103694)
(1.20256 -0.0008581 -0.0010464)
(1.20272 -0.000785327 -0.00105419)
(1.20249 -0.000727862 -0.000992639)
(1.20263 -0.000647605 -0.0010058)
(1.20264 -0.000735997 -0.00100276)
(1.20178 -0.000561349 -0.000798578)
(1.20179 -0.000622712 -0.000802199)
(1.2019 -0.000572689 -0.000816325)
(1.20174 -0.000526745 -0.00076164)
(1.20184 -0.000470843 -0.000777928)
(1.20185 -0.000537085 -0.000773192)
(1.20123 -0.000394591 -0.00059703)
(1.20124 -0.000440607 -0.000597569)
(1.20132 -0.000405609 -0.000612413)
(1.2012 -0.000370599 -0.000567876)
(1.20128 -0.000334415 -0.000583518)
(1.20128 -0.000380544 -0.000578314)
(1.20085 -0.000269752 -0.000435376)
(1.20085 -0.000304487 -0.000434842)
(1.20091 -0.000279279 -0.000448494)
(1.20083 -0.000253129 -0.000413267)
(1.20088 -0.000231061 -0.00042686)
(1.20089 -0.000261773 -0.000422458)
(1.20059 -0.000179309 -0.000308688)
(1.20059 -0.000206183 -0.000307588)
(1.20063 -0.000186929 -0.00031945)
(1.20058 -0.000167942 -0.000292415)
(1.20061 -0.000157053 -0.000303247)
(1.20062 -0.000174969 -0.000300275)
(1.20041 -0.000113415 -0.000216926)
(1.20042 -0.000136592 -0.000215533)
(1.20044 -0.000119192 -0.000224331)
(1.2004 -0.000105985 -0.000205186)
(1.20043 -0.00010282 -0.000213251)
(1.20043 -0.000111135 -0.000210575)
(1.20029 -7.05497e-05 -0.000149111)
(1.2003 -9.14246e-05 -0.000148087)
(1.20031 -7.42792e-05 -0.000154724)
(1.20029 -6.58558e-05 -0.000140392)
(1.20031 -6.95463e-05 -0.000146753)
(1.20031 -6.9215e-05 -0.000144488)
(1.20021 -4.18609e-05 -0.000101575)
(1.20022 -6.20401e-05 -0.000100109)
(1.20023 -4.46602e-05 -0.000104973)
(1.20021 -3.83247e-05 -9.55747e-05)
(1.20022 -4.72336e-05 -9.93603e-05)
(1.20022 -4.11128e-05 -9.7904e-05)
(1.20016 -1.75723e-05 -6.81489e-05)
(1.20016 -3.66673e-05 -6.67159e-05)
(1.20017 -1.99138e-05 -7.13244e-05)
(1.20016 -1.45246e-05 -6.38947e-05)
(1.20017 -2.77506e-05 -6.57185e-05)
(1.20017 -1.65765e-05 -6.64159e-05)
(1.20013 -1.49466e-06 -3.974e-05)
(1.20013 -2.03985e-05 -3.93747e-05)
(1.20014 -2.62321e-06 -4.24122e-05)
(1.20014 -5.12068e-08 -3.60229e-05)
(1.20014 -1.8034e-05 -3.88135e-05)
(1.20014 -9.34569e-07 -3.87755e-05)
(1.21277 -0.000519927 -0.000579666)
(1.21259 -0.000610416 -0.000849716)
(1.21197 -0.000691381 -0.000956258)
(1.21196 -0.000495876 -0.000730873)
(1.21184 -0.000400805 -0.000429239)
(1.20992 -0.00249033 -0.00280559)
(1.20996 -0.00249462 -0.00313677)
(1.21022 -0.00204778 -0.00256855)
(1.20962 -0.00219666 -0.00276357)
(1.20951 -0.00235852 -0.00276419)
(1.20973 -0.00211706 -0.00234475)
(1.20694 -0.00310333 -0.00300194)
(1.20699 -0.0031042 -0.00304981)
(1.20736 -0.00288754 -0.00284761)
(1.2067 -0.00293782 -0.00277152)
(1.20693 -0.00280361 -0.00273473)
(1.20704 -0.00278825 -0.00259764)
(1.2047 -0.00290615 -0.00247323)
(1.20474 -0.00289296 -0.00246011)
(1.20503 -0.00282729 -0.00240746)
(1.20457 -0.00273243 -0.00226556)
(1.20483 -0.00267609 -0.00223118)
(1.20487 -0.00267734 -0.00219429)
(1.20316 -0.00237542 -0.00186449)
(1.20317 -0.00237159 -0.00185061)
(1.20341 -0.00236455 -0.0018415)
(1.20309 -0.00222844 -0.00170805)
(1.20331 -0.00221747 -0.00170198)
(1.20332 -0.0022269 -0.0016736)
(1.2021 -0.00180065 -0.0013513)
(1.2021 -0.00180077 -0.00133548)
(1.20229 -0.00181937 -0.00134417)
(1.20207 -0.00168904 -0.00123642)
(1.20224 -0.00169862 -0.0012448)
(1.20223 -0.00171006 -0.00121868)
(1.2014 -0.00130425 -0.000954566)
(1.20139 -0.00130606 -0.000939049)
(1.20153 -0.00133131 -0.000953754)
(1.20138 -0.00122482 -0.000872883)
(1.20151 -0.00124087 -0.000885937)
(1.2015 -0.00125119 -0.000863507)
(1.20094 -0.000920803 -0.000664348)
(1.20093 -0.000922694 -0.00065085)
(1.20103 -0.000946184 -0.000665728)
(1.20093 -0.00086599 -0.000606814)
(1.20102 -0.000881908 -0.000620045)
(1.20101 -0.000890022 -0.000601561)
(1.20063 -0.000636362 -0.000454676)
(1.20063 -0.000638233 -0.000443419)
(1.20069 -0.000658048 -0.000456593)
(1.20063 -0.000598927 -0.000414343)
(1.20069 -0.000612835 -0.000426177)
(1.20068 -0.000619127 -0.000411692)
(1.20043 -0.000432523 -0.000305949)
(1.20043 -0.000434103 -0.000297143)
(1.20047 -0.000449263 -0.000307595)
(1.20043 -0.000407952 -0.000278561)
(1.20047 -0.000418577 -0.00028778)
(1.20047 -0.000423165 -0.000277014)
(1.2003 -0.000293415 -0.000205472)
(1.2003 -0.000294817 -0.000198447)
(1.20033 -0.000305685 -0.000206409)
(1.2003 -0.000277217 -0.000186488)
(1.20033 -0.000285055 -0.000193631)
(1.20033 -0.0002886 -0.000185616)
(1.20022 -0.000194497 -0.000137155)
(1.20021 -0.000195756 -0.00013223)
(1.20024 -0.000204022 -0.000137845)
(1.20022 -0.000183206 -0.000124561)
(1.20024 -0.000189404 -0.000129655)
(1.20024 -0.000191925 -0.000124574)
(1.20016 -0.000124523 -9.19404e-05)
(1.20016 -0.000125422 -8.80514e-05)
(1.20017 -0.000131045 -9.17871e-05)
(1.20016 -0.000117329 -8.30272e-05)
(1.20018 -0.000121427 -8.64068e-05)
(1.20018 -0.000122878 -8.33597e-05)
(1.20013 -7.96315e-05 -5.98708e-05)
(1.20012 -8.03821e-05 -5.62524e-05)
(1.20014 -8.42385e-05 -5.94384e-05)
(1.20013 -7.46423e-05 -5.24325e-05)
(1.20014 -7.7767e-05 -5.52504e-05)
(1.20014 -7.8629e-05 -5.43828e-05)
(1.2001 -4.39497e-05 -3.63623e-05)
(1.2001 -4.46677e-05 -3.32151e-05)
(1.20011 -4.8102e-05 -3.54376e-05)
(1.20011 -4.00437e-05 -3.04082e-05)
(1.20011 -4.31958e-05 -3.26831e-05)
(1.20011 -4.34173e-05 -3.34122e-05)
(1.21019 -0.000544708 4.05415e-05)
(1.21028 -0.000438407 -0.000314316)
(1.2099 -0.000663237 -0.000180588)
(1.20984 -0.000329167 -0.000187768)
(1.2098 -0.000417772 -2.44838e-09)
(1.20893 -0.00187662 -0.00128521)
(1.20884 -0.00175881 -0.0016375)
(1.20903 -0.00158453 -0.00111063)
(1.20859 -0.0017628 -0.00131576)
(1.20864 -0.00144366 -0.00131905)
(1.20873 -0.00155792 -0.00112981)
(1.20688 -0.00215098 -0.00176187)
(1.20682 -0.0021536 -0.00186227)
(1.20712 -0.00200332 -0.00164226)
(1.20663 -0.00201353 -0.00167013)
(1.20681 -0.00183089 -0.00161692)
(1.20687 -0.00190567 -0.00155957)
(1.20504 -0.0019795 -0.00164514)
(1.20505 -0.00201495 -0.0016458)
(1.20529 -0.00192165 -0.00158687)
(1.2049 -0.00186294 -0.00152561)
(1.20511 -0.00177 -0.00148769)
(1.20513 -0.00182147 -0.00146623)
(1.20364 -0.00164885 -0.0013359)
(1.20364 -0.00169056 -0.00132528)
(1.20385 -0.00163716 -0.00130913)
(1.20354 -0.00155224 -0.00123388)
(1.20373 -0.00149613 -0.00122403)
(1.20374 -0.00154767 -0.00120065)
(1.20257 -0.00128087 -0.00102651)
(1.20257 -0.00131858 -0.00101283)
(1.20274 -0.00129085 -0.00101458)
(1.20251 -0.00120558 -0.000945658)
(1.20266 -0.00117279 -0.000949888)
(1.20266 -0.00121797 -0.000926814)
(1.2018 -0.000950785 -0.00076143)
(1.2018 -0.000981112 -0.000747522)
(1.20192 -0.000967699 -0.000756476)
(1.20176 -0.000895824 -0.000699943)
(1.20188 -0.000876732 -0.000709568)
(1.20188 -0.000912858 -0.000689068)
(1.20125 -0.000685021 -0.000550834)
(1.20125 -0.00070802 -0.000538458)
(1.20134 -0.000702686 -0.000549256)
(1.20123 -0.000645767 -0.000505449)
(1.20131 -0.00063518 -0.000516015)
(1.20131 -0.000662594 -0.000499012)
(1.20087 -0.000480337 -0.000391368)
(1.20086 -0.000497477 -0.000380658)
(1.20093 -0.00049612 -0.000391103)
(1.20085 -0.000453047 -0.000357924)
(1.20091 -0.000447548 -0.000367919)
(1.20091 -0.000467607 -0.000354292)
(1.20061 -0.000331228 -0.000271987)
(1.2006 -0.00034364 -0.000263498)
(1.20065 -0.000343867 -0.000272399)
(1.2006 -0.000313063 -0.000248856)
(1.20064 -0.000310125 -0.000257071)
(1.20064 -0.000324806 -0.000246773)
(1.20043 -0.000224467 -0.00018842)
(1.20043 -0.000233719 -0.000181608)
(1.20046 -0.000234179 -0.000188889)
(1.20042 -0.000212149 -0.000171541)
(1.20045 -0.000210367 -0.000178257)
(1.20045 -0.000221117 -0.000170639)
(1.2003 -0.000149719 -0.000127617)
(1.2003 -0.000155959 -0.000122518)
(1.20033 -0.000156626 -0.000127723)
(1.2003 -0.000141345 -0.000115638)
(1.20032 -0.000140586 -0.000120371)
(1.20032 -0.000147572 -0.000115682)
(1.20023 -9.71327e-05 -8.56983e-05)
(1.20022 -0.000101778 -8.17952e-05)
(1.20024 -0.00010219 -8.54274e-05)
(1.20022 -9.10062e-05 -7.69777e-05)
(1.20024 -9.24833e-05 -8.02149e-05)
(1.20024 -9.55527e-05 -7.82175e-05)
(1.20017 -5.78323e-05 -5.62408e-05)
(1.20017 -6.41702e-05 -5.19465e-05)
(1.20018 -6.1954e-05 -5.47936e-05)
(1.20017 -5.34366e-05 -4.854e-05)
(1.20019 -5.81704e-05 -5.08685e-05)
(1.20018 -5.67547e-05 -5.06754e-05)
(1.20014 -2.97675e-05 -3.42779e-05)
(1.20014 -3.52357e-05 -3.09423e-05)
(1.20015 -3.27129e-05 -3.28843e-05)
(1.20014 -2.71033e-05 -2.82578e-05)
(1.20015 -3.18653e-05 -3.0557e-05)
(1.20015 -2.93821e-05 -3.15896e-05)
(1.20892 -0.000277845 3.33361e-05)
(1.20894 -0.000190366 -9.04933e-05)
(1.20878 -0.000329384 -7.97682e-05)
(1.20875 -0.0001319 -3.3764e-05)
(1.20872 -0.000221012 1.37883e-05)
(1.20818 -0.000850904 -0.000736048)
(1.20813 -0.000832767 -0.00083755)
(1.20824 -0.00073039 -0.0006242)
(1.20795 -0.000813287 -0.000767091)
(1.20804 -0.000593872 -0.000708109)
(1.20804 -0.000721439 -0.000660755)
(1.20672 -0.00100062 -0.00113069)
(1.20671 -0.00106733 -0.00114373)
(1.20689 -0.000934074 -0.00104517)
(1.20652 -0.000943911 -0.00108832)
(1.20669 -0.000787303 -0.00103669)
(1.20669 -0.000893627 -0.00100896)
(1.20522 -0.00094351 -0.00115748)
(1.20523 -0.00102723 -0.00114218)
(1.20541 -0.000915151 -0.00110715)
(1.20506 -0.000890505 -0.00108838)
(1.20525 -0.000772296 -0.00106867)
(1.20526 -0.000870035 -0.00103745)
(1.20391 -0.000796413 -0.00101756)
(1.20392 -0.00087464 -0.000997929)
(1.20409 -0.000789733 -0.000990193)
(1.2038 -0.000750956 -0.000948738)
(1.20396 -0.000658998 -0.000949392)
(1.20397 -0.000747899 -0.000917579)
(1.20285 -0.000626838 -0.000828006)
(1.20287 -0.000692845 -0.000808202)
(1.20301 -0.000630662 -0.00081374)
(1.20278 -0.000591144 -0.000768072)
(1.20291 -0.000523108 -0.000777528)
(1.20292 -0.000596175 -0.000749072)
(1.20205 -0.000471659 -0.000642189)
(1.20206 -0.000523912 -0.000624501)
(1.20217 -0.000479562 -0.000635355)
(1.202 -0.000445127 -0.000593482)
(1.2021 -0.000396566 -0.000606108)
(1.20211 -0.00045327 -0.000582288)
(1.20145 -0.000342218 -0.000480813)
(1.20146 -0.000382725 -0.000465618)
(1.20155 -0.000350933 -0.000477359)
(1.20142 -0.000322884 -0.000442478)
(1.20149 -0.000290456 -0.000454683)
(1.2015 -0.000331288 -0.000435245)
(1.20102 -0.000240152 -0.000351115)
(1.20103 -0.000271997 -0.000338749)
(1.20109 -0.000248193 -0.00034923)
(1.20099 -0.000226248 -0.000321962)
(1.20105 -0.000206407 -0.00033233)
(1.20106 -0.000233737 -0.000317243)
(1.20071 -0.000162788 -0.000252108)
(1.20072 -0.000188859 -0.000242632)
(1.20076 -0.000169354 -0.000251225)
(1.20069 -0.000153019 -0.000230954)
(1.20074 -0.000143394 -0.000238977)
(1.20074 -0.000159136 -0.000228163)
(1.2005 -0.000105255 -0.000176958)
(1.20051 -0.000127331 -0.000170093)
(1.20053 -0.000110669 -0.000177171)
(1.20049 -9.869e-05 -0.000161503)
(1.20052 -9.62416e-05 -0.000168553)
(1.20052 -0.000103715 -0.000160785)
(1.20036 -6.59325e-05 -0.000120721)
(1.20036 -8.5901e-05 -0.000115337)
(1.20038 -6.95177e-05 -0.000120685)
(1.20035 -6.18537e-05 -0.000109248)
(1.20037 -6.54859e-05 -0.000114448)
(1.20037 -6.5042e-05 -0.000109417)
(1.20026 -3.94226e-05 -8.13669e-05)
(1.20027 -5.9519e-05 -7.66664e-05)
(1.20028 -4.23107e-05 -8.06568e-05)
(1.20026 -3.60231e-05 -7.27723e-05)
(1.20028 -4.59334e-05 -7.61161e-05)
(1.20027 -3.88722e-05 -7.39051e-05)
(1.2002 -1.45644e-05 -5.48079e-05)
(1.20021 -3.37432e-05 -4.92523e-05)
(1.20021 -1.71958e-05 -5.27898e-05)
(1.2002 -1.20066e-05 -4.70268e-05)
(1.20021 -2.69919e-05 -4.88508e-05)
(1.20021 -1.4164e-05 -4.92627e-05)
(1.20017 4.73939e-07 -3.27006e-05)
(1.20017 -1.94968e-05 -2.935e-05)
(1.20017 -7.20101e-07 -3.13551e-05)
(1.20017 1.86907e-06 -2.66486e-05)
(1.20017 -1.72358e-05 -2.87182e-05)
(1.20018 1.10541e-06 -3.02698e-05)
(1.21033 -0.00027797 -0.000194118)
(1.21038 -0.000283861 -0.000253052)
(1.21012 -0.000427404 -0.000346029)
(1.21002 -0.000264922 -0.000225846)
(1.21006 -0.000250654 -0.000132733)
(1.20916 -0.00150682 -0.00116941)
(1.20921 -0.00150712 -0.00115976)
(1.20928 -0.00131103 -0.000997141)
(1.20886 -0.00154149 -0.0011281)
(1.20896 -0.00137679 -0.00103136)
(1.20905 -0.00137837 -0.000844397)
(1.20716 -0.00212244 -0.00144172)
(1.2072 -0.00212577 -0.00136233)
(1.20741 -0.00199618 -0.00128395)
(1.20691 -0.00207182 -0.00127648)
(1.20711 -0.0019601 -0.00122115)
(1.2072 -0.00198129 -0.00107461)
(1.20523 -0.00216476 -0.00128702)
(1.20525 -0.00217692 -0.0011869)
(1.20549 -0.00211443 -0.00115732)
(1.20506 -0.00208043 -0.00109857)
(1.20528 -0.00202442 -0.00107703)
(1.20532 -0.00205497 -0.000972805)
(1.20368 -0.0018874 -0.0010102)
(1.20368 -0.001902 -0.00091119)
(1.2039 -0.00188614 -0.000905229)
(1.20356 -0.00180146 -0.000841457)
(1.20376 -0.00178354 -0.000837888)
(1.20377 -0.00181418 -0.000769009)
(1.20254 -0.00150137 -0.000746259)