/*--------------------------------*- C++ -*----------------------------------*\
| =========                 |                                                 |
| \\      /  F ield         | OpenFOAM: The Open Source CFD Toolbox           |
|  \\    /   O peration     | Version:  2012                                  |
|   \\  /    A nd           | Website:  www.openfoam.com                      |
|    \\/     M anipulation  |                                                 |
\*---------------------------------------------------------------------------*/
FoamFile
{
    version     2.0;
    format      ascii;
    class       volScalarField::Internal;
    location    "0.107/fluid";
    object      V0;
}
// * * * * * * * * * * * * * * * * * * * * * * * * * * * * * * * * * * * * * //

dimensions      [0 3 0 0 0 0 0];


value           nonuniform List<scalar> 
16422
(
4.28281e-05
4.24809e-05
4.2456e-05
4.24798e-05
4.24915e-05
4.24979e-05
4.25017e-05
4.25041e-05
4.25076e-05
4.25096e-05
4.2512e-05
4.25119e-05
4.2511e-05
4.25104e-05
4.25082e-05
4.25956e-05
4.25596e-05
4.25158e-05
4.25089e-05
4.25075e-05
4.25088e-05
4.25094e-05
4.25082e-05
4.2509e-05
4.25111e-05
4.25137e-05
4.2511e-05
4.25095e-05
4.25094e-05
4.25075e-05
4.25737e-05
4.25671e-05
4.25472e-05
4.2533e-05
4.25244e-05
4.25199e-05
4.25169e-05
4.25137e-05
4.25134e-05
4.25157e-05
4.25143e-05
4.25112e-05
4.25098e-05
4.25083e-05
4.25068e-05
4.25443e-05
4.24763e-05
4.24744e-05
4.24891e-05
4.24975e-05
4.25001e-05
4.25044e-05
4.25065e-05
4.25099e-05
4.25111e-05
4.25131e-05
4.25115e-05
4.25109e-05
4.2511e-05
4.25091e-05
4.2544e-05
4.25318e-05
4.25137e-05
4.25105e-05
4.25098e-05
4.25105e-05
4.251e-05
4.2508e-05
4.25095e-05
4.2512e-05
4.25136e-05
4.25118e-05
4.25088e-05
4.25097e-05
4.25076e-05
4.25526e-05
4.25499e-05
4.25386e-05
4.25292e-05
4.25225e-05
4.25179e-05
4.25146e-05
4.25126e-05
4.25126e-05
4.25135e-05
4.25134e-05
4.25116e-05
4.25095e-05
4.25083e-05
4.25067e-05
4.25095e-05
4.25019e-05
4.24958e-05
4.2499e-05
4.25037e-05
4.25046e-05
4.2509e-05
4.25082e-05
4.2511e-05
4.25133e-05
4.25133e-05
4.25118e-05
4.25098e-05
4.25113e-05
4.2511e-05
4.25192e-05
4.2518e-05
4.25131e-05
4.25114e-05
4.25108e-05
4.25116e-05
4.25105e-05
4.25079e-05
4.25087e-05
4.25121e-05
4.25145e-05
4.25126e-05
4.25082e-05
4.25094e-05
4.25087e-05
4.25325e-05
4.25328e-05
4.25274e-05
4.25216e-05
4.25177e-05
4.25145e-05
4.25127e-05
4.25111e-05
4.25103e-05
4.25112e-05
4.25111e-05
4.25101e-05
4.2508e-05
4.25079e-05
4.25054e-05
4.25014e-05
4.25023e-05
4.25014e-05
4.2503e-05
4.2505e-05
4.25054e-05
4.25076e-05
4.25084e-05
4.25118e-05
4.25136e-05
4.25133e-05
4.25132e-05
4.25097e-05
4.25119e-05
4.25097e-05
4.25086e-05
4.25102e-05
4.25101e-05
4.25101e-05
4.25101e-05
4.25108e-05
4.25105e-05
4.2506e-05
4.25096e-05
4.25128e-05
4.25126e-05
4.25123e-05
4.25079e-05
4.25087e-05
4.25088e-05
4.25175e-05
4.25181e-05
4.25169e-05
4.25147e-05
4.2513e-05
4.25112e-05
4.25103e-05
4.25085e-05
4.25099e-05
4.25109e-05
4.25098e-05
4.25083e-05
4.25076e-05
4.25067e-05
4.25058e-05
5.33516e-06
4.24403e-05
5.34248e-06
4.24525e-05
4.25187e-05
4.2423e-05
4.23584e-05
4.24179e-05
4.27702e-05
4.26054e-05
4.26199e-05
4.25955e-05
3.26299e-08
3.3686e-08
4.23654e-05
4.24202e-05
4.24095e-05
4.2445e-05
4.26027e-05
4.2616e-05
4.25883e-05
4.25518e-05
4.25052e-05
4.25585e-05
4.25472e-05
4.25647e-05
4.24644e-05
4.25144e-05
4.25016e-05
3.36861e-08
6.80219e-08
5.38726e-06
3.37499e-08
4.1906e-05
4.31817e-05
6.81924e-08
3.47106e-08
6.80207e-08
3.72855e-08
5.3915e-06
5.35815e-06
3.37499e-08
5.39943e-06
3.29378e-08
4.19266e-05
4.32083e-05
4.24413e-05
6.81921e-08
4.19992e-05
4.31333e-05
7.14277e-08
8.1381e-08
6.62282e-08
7.69649e-08
5.32742e-06
4.27656e-05
4.27477e-05
8.13973e-08
4.30585e-05
4.29611e-05
6.91764e-08
4.23951e-05
4.22761e-05
4.25571e-05
4.20595e-05
4.27421e-05
4.23964e-05
3.36769e-08
3.36868e-08
5.15722e-06
6.72985e-07
6.64559e-07
5.56552e-06
6.69383e-07
5.15767e-06
5.51118e-06
5.30198e-06
6.79116e-08
5.19621e-06
5.17316e-06
6.79783e-08
5.1571e-06
5.16029e-06
6.75737e-07
3.37256e-08
5.69309e-06
5.62575e-06
6.80028e-07
6.68227e-07
6.73114e-07
6.64729e-07
6.76463e-07
6.72972e-07
3.37426e-08
5.57019e-06
6.69546e-07
5.58285e-06
6.70993e-07
6.87432e-07
6.79401e-07
6.75203e-07
5.31104e-06
6.79726e-08
5.20923e-06
5.4608e-06
5.17483e-06
5.51101e-06
5.30693e-06
5.3067e-06
6.81129e-08
5.15754e-06
5.51303e-06
5.3026e-06
5.16011e-06
5.51563e-06
1.1692e-07
5.44685e-06
5.49347e-06
8.82541e-08
5.43006e-06
5.42918e-06
5.20036e-06
5.2493e-06
5.24063e-06
5.38987e-06
1.16998e-07
5.50107e-06
5.44308e-06
5.37863e-06
5.49246e-06
5.403e-06
5.29906e-06
8.82675e-08
6.62628e-07
5.43072e-06
5.27732e-06
6.63755e-07
5.42927e-06
5.28266e-06
5.21239e-06
5.36221e-06
5.25009e-06
5.28894e-06
5.24337e-06
5.33402e-06
7.13608e-07
3.27624e-08
7.79259e-07
7.53972e-07
7.38817e-07
7.6283e-08
7.62614e-08
6.78924e-07
3.36875e-08
7.42795e-07
6.78762e-07
7.43038e-07
7.84402e-08
8.12163e-08
7.62541e-08
7.62641e-08
6.7865e-07
3.36853e-08
7.4281e-07
6.78712e-07
7.42682e-07
6.60637e-07
6.80211e-08
7.19297e-07
6.23287e-07
7.19184e-07
6.23342e-07
6.60703e-07
7.62507e-08
7.62616e-08
6.78107e-07
3.37497e-08
7.41741e-07
7.41636e-07
6.78155e-07
6.60822e-07
6.81933e-08
6.23833e-07
7.19265e-07
6.23876e-07
7.19182e-07
6.60881e-07
6.58641e-07
5.75823e-08
6.71116e-07
6.38082e-07
6.95052e-07
6.30323e-07
6.55451e-07
6.60886e-07
6.80174e-08
7.19276e-07
6.23222e-07
7.19461e-07
6.6064e-07
6.23325e-07
7.18182e-07
3.36099e-08
7.87108e-07
7.65994e-07
7.41951e-07
7.62823e-08
7.62592e-08
6.78334e-07
3.37502e-08
7.4171e-07
6.78209e-07
7.41895e-07
7.84454e-08
8.12569e-08
6.60824e-07
5.51805e-08
6.45165e-07
6.7318e-07
6.33028e-07
6.9552e-07
6.59631e-07
6.60955e-07
6.81875e-08
6.23752e-07
7.19178e-07
6.60785e-07
6.23821e-07
7.19236e-07
6.98276e-07
7.24514e-07
1.24115e-07
6.48181e-07
6.80953e-07
6.81338e-07
7.47494e-07
6.44422e-07
9.33836e-08
7.16811e-07
7.30622e-08
6.50848e-07
7.30312e-07
6.51742e-07
6.56833e-07
6.3861e-07
6.25347e-07
6.5215e-07
6.58027e-07
6.41309e-07
6.96738e-07
1.24166e-07
7.19899e-07
6.47162e-07
6.7995e-07
7.47064e-07
6.7876e-07
6.44527e-07
9.33742e-08
7.1695e-07
6.50975e-07
7.31019e-08
7.30387e-07
6.53363e-07
6.44762e-07
6.59755e-07
6.2714e-07
6.55954e-07
6.42966e-07
6.58197e-07
6.90276e-07
3.32913e-08
7.43635e-07
6.82082e-07
7.45274e-07
6.55941e-07
9.09259e-08
8.80729e-08
6.71414e-07
6.36366e-07
8.54927e-08
6.28619e-07
8.69522e-08
7.77017e-08
8.51618e-08
8.5192e-08
7.76813e-08
7.62776e-08
7.63745e-08
7.76961e-08
8.53299e-08
8.51854e-08
7.77998e-08
6.79162e-07
3.36876e-08
7.43531e-07
6.79878e-07
7.43063e-07
6.25081e-07
8.52574e-08
8.52881e-08
6.24915e-07
6.2541e-07
8.54316e-08
6.26231e-07
8.52815e-08
7.98556e-08
8.93479e-08
8.79088e-08
8.11292e-08
7.74848e-08
7.63983e-08
7.89333e-08
8.53867e-08
8.68174e-08
7.78295e-08
7.76733e-08
8.51664e-08
7.76842e-08
8.51502e-08
3.36853e-08
6.24766e-07
8.52619e-08
6.24831e-07
8.52512e-08
6.80215e-08
7.76703e-08
8.51607e-08
8.51493e-08
7.76823e-08
8.51498e-08
3.37496e-08
6.24622e-07
8.52555e-08
8.52439e-08
6.24676e-07
8.52446e-08
6.81939e-08
6.61136e-07
6.095e-08
7.1729e-07
6.22015e-07
7.11126e-07
6.60377e-07
6.28087e-07
6.60665e-07
6.80137e-08
7.19236e-07
6.22447e-07
7.19313e-07
6.60773e-07
6.2301e-07
6.91837e-07
3.34233e-08
7.42634e-07
6.81945e-07
7.47126e-07
6.57198e-07
9.09418e-08
8.80826e-08
6.72522e-07
6.3692e-07
8.54918e-08
6.28677e-07
8.69589e-08
7.77004e-08
8.51576e-08
7.7679e-08
8.51897e-08
7.62772e-08
7.63739e-08
7.76961e-08
8.53299e-08
8.5185e-08
7.77993e-08
6.78562e-07
3.37491e-08
7.42222e-07
6.7932e-07
7.41841e-07
6.24924e-07
8.52523e-08
6.24763e-07
8.52845e-08
6.25264e-07
8.5429e-08
6.2612e-07
8.52788e-08
7.98525e-08
8.93441e-08
8.79144e-08
8.11034e-08
7.74878e-08
7.63977e-08
7.89323e-08
8.53878e-08
8.68212e-08
7.78285e-08
6.61365e-07
5.96402e-08
6.2175e-07
7.15804e-07
6.27758e-07
7.09789e-07
6.59979e-07
6.60608e-07
6.81829e-08
6.22692e-07
7.18466e-07
6.23427e-07
7.18898e-07
6.60528e-07
6.74728e-07
1.22365e-07
6.74434e-07
7.10984e-07
6.30151e-07
6.65713e-07
7.28699e-07
6.50278e-07
9.02855e-08
8.0383e-08
7.11093e-07
7.39788e-08
6.58354e-07
7.23222e-07
6.74468e-07
1.22369e-07
6.74774e-07
7.11106e-07
6.30405e-07
7.28717e-07
6.65733e-07
6.50166e-07
9.0256e-08
8.03764e-08
7.11099e-07
7.39603e-08
7.23157e-07
6.58237e-07
4.2985e-05
4.28158e-05
4.29711e-05
4.27529e-05
4.2716e-05
4.27801e-05
4.26955e-05
4.25019e-05
4.25423e-05
4.25356e-05
4.25133e-05
4.2506e-05
4.25188e-05
4.25183e-05
5.35042e-06
5.34721e-06
5.32752e-06
5.35479e-06
5.35997e-06
5.35395e-06
5.35449e-06
5.36492e-06
5.3367e-06
5.37906e-06
4.29493e-05
4.2702e-05
4.27756e-05
9.70064e-08
3.15584e-08
8.90964e-08
9.88257e-08
1.06156e-07
8.75252e-08
3.36848e-08
1.10065e-07
8.75239e-08
1.10064e-07
4.2609e-05
4.2653e-05
4.2802e-05
4.26774e-05
4.25665e-05
4.26213e-05
4.26062e-05
8.75195e-08
3.36846e-08
1.10073e-07
8.75264e-08
1.10055e-07
8.265e-08
6.80211e-08
9.7979e-08
9.68885e-08
9.79593e-08
9.69095e-08
8.26476e-08
8.73597e-08
3.37483e-08
1.10032e-07
1.10015e-07
8.73659e-08
8.2771e-08
6.81911e-08
9.71149e-08
9.79411e-08
9.71325e-08
9.79234e-08
8.27673e-08
7.80684e-08
4.56751e-08
7.33656e-08
8.60733e-08
8.00332e-08
9.32576e-08
7.75862e-08
8.26588e-08
6.80181e-08
9.79714e-08
9.68796e-08
9.79617e-08
8.26407e-08
9.69032e-08
9.97581e-08
3.79621e-08
9.53693e-08
1.06584e-07
1.10382e-07
5.38301e-06
5.36618e-06
5.40726e-06
5.36888e-06
5.37577e-06
5.4103e-06
5.38097e-06
8.73645e-08
3.3749e-08
1.10025e-07
8.73635e-08
1.10022e-07
7.85545e-08
3.71308e-08
8.82838e-08
7.38513e-08
9.4857e-08
7.78906e-08
7.89064e-08
8.27727e-08
6.819e-08
9.71074e-08
9.79329e-08
8.27576e-08
9.71293e-08
9.79221e-08
9.20336e-08
9.86925e-08
7.29171e-08
6.53915e-08
1.31345e-07
7.80495e-08
8.36721e-08
9.20284e-08
8.83983e-08
9.1876e-08
1.00781e-07
8.84587e-08
9.59747e-08
7.7858e-08
7.36626e-08
9.75303e-08
7.06862e-08
7.81585e-08
7.70336e-08
7.66592e-08
9.36996e-08
6.98624e-08
1.03135e-07
6.6566e-08
1.35799e-07
8.46911e-08
7.94276e-08
5.31528e-06
5.30875e-06
5.29983e-06
5.34251e-06
5.32049e-06
5.29145e-06
5.30999e-06
9.20892e-08
8.84297e-08
9.18901e-08
8.84883e-08
1.00917e-07
9.59972e-08
7.87715e-08
9.98383e-08
7.63174e-08
7.23518e-08
7.98977e-08
7.77263e-08
7.83658e-08
8.76097e-08
3.36425e-08
1.09969e-07
8.75444e-08
1.09799e-07
4.00671e-08
4.72777e-08
3.56811e-08
3.56466e-08
8.7525e-08
3.3686e-08
1.10058e-07
8.75411e-08
1.10048e-07
3.56259e-08
3.5626e-08
3.56304e-08
3.56348e-08
3.56249e-08
3.56253e-08
6.5224e-07
6.90085e-07
6.72696e-07
6.64923e-07
6.64611e-07
6.89971e-07
6.52375e-07
6.37429e-07
6.64229e-07
6.57379e-07
6.67316e-07
6.5708e-07
6.67164e-07
6.37564e-07
3.5623e-08
3.56234e-08
8.22126e-08
6.76965e-08
9.77442e-08
9.64797e-08
9.73423e-08
8.23965e-08
9.60406e-08
8.25939e-08
6.79971e-08
9.79005e-08
9.66894e-08
9.79126e-08
8.25503e-08
9.67994e-08
8.75742e-08
3.36806e-08
1.09919e-07
8.74197e-08
1.09769e-07
4.0102e-08
4.7355e-08
3.56809e-08
3.56453e-08
6.38841e-07
6.7033e-07
6.66202e-07
6.60925e-07
6.58938e-07
6.68696e-07
6.40358e-07
6.52907e-07
6.90237e-07
6.65071e-07
6.73794e-07
6.65784e-07
6.52548e-07
6.90565e-07
6.38159e-07
6.65469e-07
6.57533e-07
6.67522e-07
6.58248e-07
6.37756e-07
6.67957e-07
6.53539e-07
6.68501e-07
6.74441e-07
6.92473e-07
6.66462e-07
6.91133e-07
6.54977e-07
8.73628e-08
3.37458e-08
1.10009e-07
8.73863e-08
1.10001e-07
3.56242e-08
3.56236e-08
3.56292e-08
3.56341e-08
6.50795e-07
6.7381e-07
6.63672e-07
6.75633e-07
6.81284e-07
6.43614e-07
6.6858e-07
6.80781e-07
7.31181e-07
6.9166e-07
6.79879e-07
7.21683e-07
6.82644e-07
6.87734e-07
6.66052e-07
6.71373e-07
6.95667e-07
6.85354e-07
7.04253e-07
6.58177e-07
6.76894e-07
6.61566e-07
6.79484e-07
6.86633e-07
6.69658e-07
6.91762e-07
6.72942e-07
6.58777e-07
8.20836e-08
6.75405e-08
9.66402e-08
9.75578e-08
9.6092e-08
9.69792e-08
8.23845e-08
8.26692e-08
6.81568e-08
9.68944e-08
9.77907e-08
9.70147e-08
9.78406e-08
8.25923e-08
7.74543e-08
1.34934e-07
6.36237e-08
1.00554e-07
7.34009e-08
7.96587e-08
1.05149e-07
8.8326e-08
8.49209e-08
8.21185e-08
9.48004e-08
9.11316e-08
8.51984e-08
9.3673e-08
7.74959e-08
1.34968e-07
6.36725e-08
1.00583e-07
7.34721e-08
1.05162e-07
7.96843e-08
8.82959e-08
8.49096e-08
8.21074e-08
9.48085e-08
9.10693e-08
9.36653e-08
8.5196e-08
6.45564e-07
6.47757e-07
6.568e-07
6.61014e-07
6.49948e-07
6.34262e-07
6.56839e-07
6.44898e-07
6.59996e-07
6.49189e-07
6.58248e-07
6.28814e-07
6.54974e-07
6.56116e-07
9.27466e-08
3.19052e-08
1.06624e-07
1.04169e-07
8.95018e-08
8.75127e-08
9.23713e-08
9.8391e-08
8.07176e-08
8.28096e-08
7.40398e-08
7.96681e-08
7.66162e-08
3.50451e-08
7.62666e-08
9.72215e-08
5.53277e-08
9.72056e-08
5.53254e-08
3.50467e-08
8.39131e-08
8.3918e-08
3.50451e-08
7.62692e-08
9.72015e-08
5.53242e-08
3.50451e-08
9.72083e-08
5.53248e-08
8.39252e-08
8.39143e-08
8.75222e-08
3.36853e-08
1.10079e-07
1.10058e-07
8.75299e-08
7.7018e-08
7.17683e-08
7.70167e-08
7.177e-08
7.70164e-08
7.17724e-08
7.70217e-08
7.1768e-08
3.69306e-08
9.98973e-08
5.65498e-08
8.0179e-08
5.82346e-08
3.58681e-08
1.02332e-07
9.51721e-08
8.99181e-08
8.61366e-08
8.80812e-08
3.91831e-08
8.15538e-08
7.4543e-08
1.09711e-07
4.56972e-08
6.22431e-08
1.05296e-07
3.50452e-08
7.62587e-08
9.72015e-08
5.53223e-08
9.72019e-08
3.50452e-08
5.53229e-08
8.39162e-08
8.39107e-08
3.50446e-08
7.62571e-08
9.72041e-08
5.5324e-08
3.50451e-08
9.71991e-08
5.53224e-08
8.39121e-08
8.39141e-08
8.75226e-08
3.36843e-08
1.10061e-07
1.10059e-07
8.75223e-08
7.70139e-08
7.17691e-08
7.7018e-08
7.17661e-08
7.70163e-08
7.17668e-08
7.70154e-08
7.17682e-08
8.26569e-08
6.80207e-08
9.79694e-08
9.68882e-08
9.79641e-08
9.69128e-08
8.26396e-08
3.50448e-08
9.71988e-08
5.53229e-08
7.62575e-08
9.72003e-08
3.50455e-08
5.53233e-08
8.39155e-08
8.39096e-08
8.39115e-08
8.39136e-08
3.50443e-08
7.62551e-08
9.72022e-08
5.53249e-08
3.50455e-08
9.71971e-08
5.53226e-08
8.73631e-08
3.37487e-08
1.10023e-07
1.1002e-07
8.73619e-08
7.69115e-08
7.17344e-08
7.6915e-08
7.1732e-08
7.69135e-08
7.1733e-08
7.6913e-08
7.17337e-08
8.2777e-08
6.81922e-08
9.71149e-08
9.79375e-08
9.7138e-08
9.79284e-08
8.27619e-08
7.95908e-08
5.25411e-08
9.04531e-08
9.68487e-08
8.65104e-08
9.56533e-08
8.08939e-08
8.26485e-08
6.80167e-08
9.79769e-08
9.68697e-08
9.79544e-08
9.68931e-08
8.26498e-08
9.54058e-08
3.62581e-08
1.09143e-07
1.10929e-07
9.11731e-08
8.86616e-08
9.26399e-08
9.90405e-08
8.12371e-08
8.39775e-08
7.44117e-08
8.04649e-08
7.71287e-08
3.50462e-08
5.53284e-08
7.6266e-08
9.72206e-08
9.72048e-08
5.53264e-08
3.50471e-08
8.39129e-08
8.39173e-08
3.50461e-08
7.6268e-08
9.72e-08
5.53252e-08
3.50461e-08
9.72068e-08
5.53258e-08
8.39255e-08
8.39142e-08
8.73619e-08
3.37491e-08
1.10034e-07
1.10017e-07
8.73684e-08
7.69153e-08
7.17335e-08
7.69139e-08
7.17349e-08
7.69136e-08
7.17375e-08
7.6919e-08
7.17341e-08
3.69479e-08
5.65526e-08
9.9912e-08
8.01904e-08
5.82397e-08
3.58755e-08
1.02367e-07
9.52086e-08
8.99521e-08
8.61464e-08
8.81001e-08
3.9224e-08
8.15739e-08
7.45666e-08
1.0986e-07
4.57916e-08
6.22501e-08
1.05367e-07
7.98192e-08
4.4994e-08
9.79068e-08
8.89798e-08
9.71301e-08
8.39092e-08
8.10588e-08
8.27584e-08
6.81883e-08
9.70963e-08
9.79306e-08
9.71184e-08
9.79136e-08
8.27531e-08
8.78088e-08
1.1296e-07
1.01208e-07
1.11046e-07
1.0257e-07
9.94125e-08
8.85603e-08
9.53518e-08
9.38564e-08
1.09914e-07
9.95225e-08
1.14628e-07
9.92685e-08
9.57581e-08
7.47147e-08
9.56451e-08
7.81414e-08
5.73621e-08
7.74756e-08
7.21889e-08
7.62933e-08
8.16975e-08
9.58512e-08
6.693e-08
7.50661e-08
7.69084e-08
8.84663e-08
1.12531e-07
1.01455e-07
1.11054e-07
1.03742e-07
9.91859e-08
8.86839e-08
9.5396e-08
9.3876e-08
1.09871e-07
9.95182e-08
1.14726e-07
9.92836e-08
9.57427e-08
7.47543e-08
9.56713e-08
5.74014e-08
7.75028e-08
7.22403e-08
7.63151e-08
8.17178e-08
9.59852e-08
6.70119e-08
7.50762e-08
7.69676e-08
8.77351e-08
3.353e-08
1.08291e-07
8.82488e-08
1.09217e-07
7.7191e-08
7.18142e-08
7.19293e-08
7.70691e-08
7.74377e-08
7.27895e-08
7.81614e-08
7.21496e-08
6.37085e-08
8.71751e-08
7.53749e-08
7.63691e-08
3.76614e-08
3.65293e-08
5.94347e-08
6.9191e-08
7.14028e-08
5.76006e-08
5.63182e-08
6.74086e-08
6.75093e-08
5.62643e-08
3.57746e-08
3.6007e-08
5.64574e-08
6.82027e-08
6.76823e-08
5.68104e-08
7.02871e-08
8.05863e-08
7.76867e-08
6.63098e-08
6.6308e-08
8.05668e-08
7.02894e-08
7.28932e-08
7.66054e-08
8.51717e-08
8.31085e-08
8.31185e-08
7.66073e-08
7.28916e-08
7.28942e-08
8.31332e-08
8.51671e-08
7.66122e-08
8.31133e-08
7.28976e-08
7.66077e-08
7.02857e-08
7.76898e-08
6.63057e-08
8.05605e-08
6.63067e-08
8.05708e-08
7.02843e-08
3.50481e-08
7.63073e-08
9.72159e-08
5.53286e-08
3.50468e-08
9.72386e-08
5.53323e-08
8.39789e-08
8.39315e-08
3.50492e-08
7.63061e-08
9.72904e-08
5.53464e-08
9.72328e-08
5.53355e-08
3.50527e-08
8.39198e-08
8.39383e-08
7.02968e-08
8.0582e-08
7.77285e-08
6.63113e-08
8.06181e-08
7.02909e-08
6.63164e-08
7.2912e-08
7.66551e-08
8.52295e-08
8.32501e-08
8.31646e-08
7.66291e-08
7.29341e-08
7.29048e-08
8.3128e-08
8.52274e-08
7.66129e-08
8.31646e-08
7.28982e-08
7.66216e-08
7.03033e-08
7.77281e-08
8.07013e-08
6.6337e-08
8.06177e-08
6.63217e-08
7.03225e-08
8.7529e-08
3.36866e-08
1.10067e-07
8.75256e-08
1.10065e-07
7.70234e-08
7.17955e-08
7.70466e-08
7.17741e-08
7.70255e-08
7.17693e-08
7.70183e-08
7.17776e-08
5.62342e-08
6.73606e-08
6.73619e-08
5.62343e-08
3.5626e-08
3.56268e-08
5.62346e-08
6.73658e-08
6.73605e-08
5.62358e-08
5.62401e-08
6.73928e-08
5.62479e-08
6.737e-08
3.5629e-08
3.5627e-08
5.62388e-08
6.73644e-08
6.73724e-08
5.62363e-08
7.39665e-08
8.29304e-08
6.78205e-08
8.14564e-08
6.96763e-08
7.20588e-08
8.44901e-08
7.98577e-08
9.37766e-08
9.05291e-08
8.65716e-08
8.30258e-08
8.80354e-08
9.13314e-08
7.68055e-08
8.56321e-08
7.88012e-08
8.95015e-08
8.06418e-08
7.48963e-08
8.7192e-08
7.73168e-08
8.24537e-08
8.53174e-08
8.38476e-08
7.32943e-08
8.53735e-08
8.90874e-08
3.51751e-08
7.68076e-08
9.86e-08
5.58476e-08
3.53858e-08
9.77801e-08
5.55375e-08
8.40001e-08
8.41731e-08
3.50933e-08
7.65963e-08
9.73139e-08
5.53633e-08
3.50623e-08
9.75166e-08
5.54173e-08
8.50799e-08
8.43978e-08
7.06439e-08
8.19585e-08
7.82578e-08
6.69801e-08
8.12293e-08
7.11057e-08
6.65931e-08
7.30827e-08
7.67025e-08
8.56671e-08
8.32956e-08
7.68291e-08
7.29735e-08
8.35469e-08
7.33188e-08
8.46053e-08
8.59861e-08
7.76881e-08
7.70983e-08
8.38326e-08
7.38504e-08
7.04464e-08
7.80381e-08
8.07395e-08
6.63613e-08
7.03545e-08
8.09759e-08
6.64349e-08
7.02831e-08
7.76794e-08
8.05525e-08
6.6303e-08
6.63041e-08
8.05583e-08
7.02816e-08
7.28899e-08
7.66054e-08
8.31113e-08
8.51555e-08
7.28916e-08
8.31056e-08
7.66028e-08
7.02825e-08
7.76777e-08
6.63054e-08
8.05631e-08
6.63034e-08
7.02843e-08
8.05563e-08
7.28909e-08
8.31002e-08
8.51578e-08
7.66024e-08
8.31096e-08
7.28891e-08
7.66026e-08
1.10068e-07
8.75252e-08
7.17678e-08
7.70169e-08
5.62335e-08
6.73612e-08
6.73581e-08
5.6234e-08
3.56254e-08
3.56248e-08
5.62342e-08
6.73592e-08
6.73599e-08
5.62338e-08
6.736e-08
5.62337e-08
9.7976e-08
9.68939e-08
8.26466e-08
7.02833e-08
6.63024e-08
8.05521e-08
7.76775e-08
6.63037e-08
7.02823e-08
8.05556e-08
7.28897e-08
7.66025e-08
8.51507e-08
8.31077e-08
8.3101e-08
7.66002e-08
7.28916e-08
7.289e-08
8.30998e-08
7.65998e-08
8.5153e-08
7.28894e-08
8.31035e-08
7.66e-08
7.02831e-08
7.76752e-08
6.63057e-08
8.05619e-08
6.63033e-08
8.05539e-08
7.02849e-08
8.05525e-08
7.02822e-08
8.31003e-08
7.65997e-08
7.28893e-08
1.10026e-07
8.73634e-08
7.17335e-08
7.6914e-08
5.62321e-08
6.73541e-08
6.73515e-08
5.62326e-08
3.56233e-08
3.56234e-08
5.62326e-08
6.73522e-08
6.7353e-08
5.62328e-08
3.56232e-08
6.73525e-08
5.62326e-08
9.71197e-08
9.79424e-08
8.27687e-08
8.21753e-08
6.5275e-08
9.32353e-08
9.81549e-08
8.21135e-08
9.57576e-08
9.68709e-08
8.26368e-08
6.80076e-08
9.79591e-08
9.68478e-08
8.26285e-08
9.79454e-08
9.68489e-08
8.79351e-08
3.35683e-08
1.08942e-07
8.89825e-08
1.09312e-07
7.71814e-08
7.17972e-08
7.19417e-08
7.69992e-08
7.75649e-08
7.29951e-08
7.85545e-08
7.22314e-08
6.37686e-08
8.7292e-08
7.55655e-08
7.64001e-08
3.76796e-08
3.65385e-08
5.95044e-08
6.93572e-08
7.16137e-08
5.76567e-08
5.63267e-08
6.74124e-08
6.75283e-08
5.62663e-08
3.57759e-08
3.60111e-08
5.64758e-08
6.83056e-08
6.77327e-08
5.68458e-08
7.02871e-08
6.63092e-08
7.76853e-08
8.05861e-08
6.63075e-08
7.02901e-08
8.05664e-08
7.28935e-08
7.66027e-08
8.31058e-08
8.5169e-08
7.28921e-08
8.3116e-08
7.66051e-08
7.02861e-08
7.76881e-08
6.6305e-08
8.05595e-08
6.63061e-08
7.02851e-08
8.05695e-08
7.28943e-08
8.31312e-08
7.66103e-08
8.51653e-08
7.28983e-08
8.31121e-08
7.66058e-08
3.50493e-08
5.53293e-08
9.72141e-08
7.63068e-08
3.50473e-08
5.53339e-08
9.72375e-08
8.39788e-08
8.39311e-08
8.39183e-08
8.39381e-08
3.50506e-08
7.63042e-08
5.53484e-08
9.72892e-08
5.53371e-08
9.72312e-08
3.50541e-08
7.02986e-08
6.63108e-08
8.05819e-08
7.77279e-08
8.06182e-08
7.02922e-08
6.63168e-08
7.29142e-08
7.66537e-08
8.52309e-08
8.32472e-08
8.3164e-08
7.66286e-08
7.29357e-08
7.29065e-08
8.31263e-08
8.52254e-08
7.66112e-08
8.31623e-08
7.28996e-08
7.66203e-08
7.03044e-08
7.77265e-08
8.0702e-08
6.63378e-08
8.06179e-08
6.63211e-08
7.03247e-08
8.73675e-08
3.37474e-08
1.10022e-07
8.73633e-08
1.10021e-07
7.69221e-08
7.17655e-08
7.69534e-08
7.17406e-08
7.6923e-08
7.17353e-08
7.69158e-08
7.17421e-08
5.62335e-08
6.73538e-08
6.73551e-08
5.62333e-08
3.5625e-08
3.56259e-08
5.6234e-08
6.73588e-08
6.73544e-08
5.62351e-08
5.62397e-08
6.73906e-08
5.62482e-08
6.73649e-08
3.56275e-08
3.56262e-08
5.62374e-08
6.73576e-08
6.7365e-08
5.62353e-08
7.3952e-08
6.78156e-08
8.29266e-08
8.14499e-08
6.96647e-08
7.20533e-08
8.448e-08
7.9829e-08
9.37613e-08
9.05294e-08
8.65389e-08
8.30152e-08
8.80134e-08
9.12702e-08
7.67938e-08
8.56261e-08
7.8802e-08
8.95064e-08
8.06384e-08
7.48923e-08
8.71819e-08
7.72845e-08
8.24375e-08
8.52361e-08
8.38153e-08
7.32617e-08
8.53516e-08
8.90331e-08
3.51767e-08
5.58504e-08
9.8607e-08
7.68086e-08
3.53901e-08
5.55387e-08
9.77834e-08
8.39996e-08
8.41735e-08
8.5085e-08
8.44003e-08
3.50943e-08
7.65968e-08
5.53649e-08
9.73126e-08
3.50637e-08
5.54181e-08
9.75174e-08
7.06438e-08
6.69781e-08
8.19596e-08
7.82577e-08
8.12309e-08
7.11048e-08
6.65921e-08
7.30848e-08
7.67021e-08
8.56689e-08
8.3295e-08
7.68298e-08
7.29755e-08
8.35459e-08
7.33189e-08
8.4603e-08
8.59913e-08
7.76881e-08
7.70986e-08
8.38319e-08
7.38498e-08
7.04478e-08
7.80378e-08
8.07419e-08
6.63618e-08
7.03564e-08
8.09784e-08
6.64341e-08
8.1881e-08
6.45265e-08
9.81851e-08
9.22402e-08
8.19408e-08
9.66266e-08
9.50639e-08
8.27259e-08
6.81737e-08
9.70738e-08
9.79098e-08
8.27273e-08
9.70714e-08
9.78877e-08
8.09699e-08
1.27753e-07
9.68501e-08
1.07354e-07
8.49872e-08
8.86432e-08
1.05981e-07
9.13112e-08
8.69027e-08
1.04394e-07
9.76884e-08
9.39229e-08
9.80026e-08
9.533e-08
7.90092e-08
9.66084e-08
7.83083e-08
8.06285e-08
9.42525e-08
7.94896e-08
7.93383e-08
7.82638e-08
7.70369e-08
8.89742e-08
7.61716e-08
7.71399e-08
9.20463e-08
7.82904e-08
8.09917e-08
1.27705e-07
9.69414e-08
1.07364e-07
8.50452e-08
8.8657e-08
1.05973e-07
9.12702e-08
8.68823e-08
1.0426e-07
9.76707e-08
9.38712e-08
9.79275e-08
9.53147e-08
7.89801e-08
9.6588e-08
7.82776e-08
8.06275e-08
9.4188e-08
7.94781e-08
7.93163e-08
7.82332e-08
7.70246e-08
8.88911e-08
7.61442e-08
7.71114e-08
9.19934e-08
7.82693e-08
4.24384e-05
4.2468e-05
4.24729e-05
4.2484e-05
4.24868e-05
4.24945e-05
4.24957e-05
4.24989e-05
4.24992e-05
4.25018e-05
4.25025e-05
4.2507e-05
4.2507e-05
4.25087e-05
4.25096e-05
4.25111e-05
4.25118e-05
4.25115e-05
4.25121e-05
4.25106e-05
4.25109e-05
4.25113e-05
4.25112e-05
4.25079e-05
4.25083e-05
4.25074e-05
4.24823e-05
4.24451e-05
4.25616e-05
4.25089e-05
4.24554e-05
4.24747e-05
4.25035e-05
4.24998e-05
4.24783e-05
4.24877e-05
4.24994e-05
4.25018e-05
4.24901e-05
4.24968e-05
4.25021e-05
4.2505e-05
4.24976e-05
4.25004e-05
4.25053e-05
4.25066e-05
4.25005e-05
4.25028e-05
4.25064e-05
4.25068e-05
4.25032e-05
4.25067e-05
4.25065e-05
4.25074e-05
4.25067e-05
4.25085e-05
4.2508e-05
4.25097e-05
4.25087e-05
4.25112e-05
4.25099e-05
4.25126e-05
4.25115e-05
4.25116e-05
4.25124e-05
4.25114e-05
4.25117e-05
4.25103e-05
4.25109e-05
4.25091e-05
4.25105e-05
4.25109e-05
4.25102e-05
4.25098e-05
4.25107e-05
4.25075e-05
4.25091e-05
4.25076e-05
4.25079e-05
4.25074e-05
4.25078e-05
4.25061e-05
4.26e-05
4.25865e-05
4.25778e-05
4.25744e-05
4.25651e-05
4.25232e-05
4.2568e-05
4.25478e-05
4.25169e-05
4.25096e-05
4.25422e-05
4.25307e-05
4.25082e-05
4.25072e-05
4.25279e-05
4.2522e-05
4.25065e-05
4.25079e-05
4.25206e-05
4.25182e-05
4.25083e-05
4.25093e-05
4.25176e-05
4.25162e-05
4.25091e-05
4.25087e-05
4.25155e-05
4.25136e-05
4.25082e-05
4.25084e-05
4.25127e-05
4.25122e-05
4.25088e-05
4.25109e-05
4.25132e-05
4.2514e-05
4.25115e-05
4.25133e-05
4.25146e-05
4.25145e-05
4.25131e-05
4.25114e-05
4.25145e-05
4.25123e-05
4.25114e-05
4.25088e-05
4.25118e-05
4.25095e-05
4.25098e-05
4.25094e-05
4.25097e-05
4.2509e-05
4.2509e-05
4.25075e-05
4.25085e-05
4.25077e-05
4.25073e-05
4.25059e-05
4.25074e-05
4.25057e-05
4.2578e-05
4.25753e-05
4.25851e-05
4.25844e-05
4.25705e-05
4.25539e-05
4.25816e-05
4.25686e-05
4.25486e-05
4.25363e-05
4.25635e-05
4.25492e-05
4.25332e-05
4.25261e-05
4.25452e-05
4.25352e-05
4.25244e-05
4.25208e-05
4.25327e-05
4.25265e-05
4.252e-05
4.25179e-05
4.25252e-05
4.25211e-05
4.25171e-05
4.25147e-05
4.25201e-05
4.25169e-05
4.25137e-05
4.25135e-05
4.2516e-05
4.2515e-05
4.25134e-05
4.25147e-05
4.25151e-05
4.2516e-05
4.25152e-05
4.25146e-05
4.25159e-05
4.25147e-05
4.25144e-05
4.25121e-05
4.25139e-05
4.25117e-05
4.25114e-05
4.25097e-05
4.25114e-05
4.25098e-05
4.25099e-05
4.25089e-05
4.251e-05
4.25087e-05
4.25082e-05
4.25078e-05
4.25084e-05
4.25083e-05
4.25072e-05
4.25056e-05
4.2508e-05
4.25051e-05
4.24394e-05
4.24693e-05
4.24558e-05
4.24771e-05
4.24739e-05
4.24855e-05
4.24807e-05
4.24905e-05
4.24879e-05
4.24947e-05
4.24925e-05
4.24956e-05
4.2496e-05
4.25e-05
4.24967e-05
4.25019e-05
4.25005e-05
4.25027e-05
4.25033e-05
4.25053e-05
4.25035e-05
4.25068e-05
4.25065e-05
4.2509e-05
4.2508e-05
4.25088e-05
4.25097e-05
4.25094e-05
4.251e-05
4.25115e-05
4.25106e-05
4.25129e-05
4.25122e-05
4.25119e-05
4.25123e-05
4.25127e-05
4.25124e-05
4.25105e-05
4.25126e-05
4.25108e-05
4.25112e-05
4.25115e-05
4.25109e-05
4.25124e-05
4.25108e-05
4.2509e-05
4.25109e-05
4.25102e-05
4.25086e-05
4.25079e-05
4.25092e-05
4.25087e-05
4.24462e-05
4.25554e-05
4.25071e-05
4.24667e-05
4.24613e-05
4.25304e-05
4.25051e-05
4.24764e-05
4.25028e-05
4.25008e-05
4.24682e-05
4.24839e-05
4.25037e-05
4.25035e-05
4.24894e-05
4.25006e-05
4.25028e-05
4.24865e-05
4.2494e-05
4.25042e-05
4.25051e-05
4.24973e-05
4.2503e-05
4.25056e-05
4.24959e-05
4.24984e-05
4.25053e-05
4.2507e-05
4.25014e-05
4.25059e-05
4.25072e-05
4.2499e-05
4.25027e-05
4.25074e-05
4.25078e-05
4.25036e-05
4.2507e-05
4.25069e-05
4.25037e-05
4.25051e-05
4.25077e-05
4.2507e-05
4.2507e-05
4.25068e-05
4.25072e-05
4.25062e-05
4.25088e-05
4.25069e-05
4.25083e-05
4.25086e-05
4.2508e-05
4.25096e-05
4.25095e-05
4.25095e-05
4.25087e-05
4.25105e-05
4.25117e-05
4.251e-05
4.25127e-05
4.25107e-05
4.25128e-05
4.25117e-05
4.25134e-05
4.25119e-05
4.2513e-05
4.25118e-05
4.25124e-05
4.25125e-05
4.2514e-05
4.25125e-05
4.25101e-05
4.25108e-05
4.251e-05
4.25121e-05
4.25102e-05
4.25121e-05
4.251e-05
4.25112e-05
4.251e-05
4.25105e-05
4.25104e-05
4.25122e-05
4.25095e-05
4.25113e-05
4.25086e-05
4.25096e-05
4.25085e-05
4.25109e-05
4.251e-05
4.25105e-05
4.25088e-05
4.25078e-05
4.2508e-05
4.2506e-05
4.25088e-05
4.25083e-05
4.25078e-05
4.25063e-05
4.25802e-05
4.25735e-05
4.25704e-05
4.25561e-05
4.25494e-05
4.25558e-05
4.25546e-05
4.25212e-05
4.25644e-05
4.25461e-05
4.25382e-05
4.25168e-05
4.25509e-05
4.25392e-05
4.25101e-05
4.2541e-05
4.25306e-05
4.25141e-05
4.25105e-05
4.25357e-05
4.25282e-05
4.25082e-05
4.2528e-05
4.25223e-05
4.25104e-05
4.25098e-05
4.25262e-05
4.25219e-05
4.25084e-05
4.25209e-05
4.25184e-05
4.25095e-05
4.25098e-05
4.25206e-05
4.25178e-05
4.25097e-05
4.25177e-05
4.25162e-05
4.25102e-05
4.25101e-05
4.25172e-05
4.25153e-05
4.25086e-05
4.25155e-05
4.25135e-05
4.25099e-05
4.25085e-05
4.25148e-05
4.25129e-05
4.25085e-05
4.25129e-05
4.25122e-05
4.25082e-05
4.2509e-05
4.25126e-05
4.25127e-05
4.25108e-05
4.25126e-05
4.2514e-05
4.25097e-05
4.25114e-05
4.25126e-05
4.25132e-05
4.25128e-05
4.25154e-05
4.25151e-05
4.25119e-05
4.25131e-05
4.25144e-05
4.25144e-05
4.25121e-05
4.25145e-05
4.25124e-05
4.25136e-05
4.25128e-05
4.25138e-05
4.25128e-05
4.25096e-05
4.25112e-05
4.25098e-05
4.25119e-05
4.25091e-05
4.25113e-05
4.25089e-05
4.25102e-05
4.25095e-05
4.25096e-05
4.2509e-05
4.25107e-05
4.25093e-05
4.25094e-05
4.25084e-05
4.25085e-05
4.25083e-05
4.25096e-05
4.25082e-05
4.25079e-05
4.25079e-05
4.25057e-05
4.25071e-05
4.25048e-05
4.25074e-05
4.25056e-05
4.25069e-05
4.25028e-05
4.25715e-05
4.25809e-05
4.25805e-05
4.25581e-05
4.25573e-05
4.25665e-05
4.2566e-05
4.25519e-05
4.2578e-05
4.2566e-05
4.25545e-05
4.25446e-05
4.25643e-05
4.25563e-05
4.25359e-05
4.25613e-05
4.2548e-05
4.25412e-05
4.25331e-05
4.25529e-05
4.25433e-05
4.25262e-05
4.25442e-05
4.25347e-05
4.25307e-05
4.25251e-05
4.25402e-05
4.25323e-05
4.25208e-05
4.25323e-05
4.25261e-05
4.25236e-05
4.25197e-05
4.25299e-05
4.25241e-05
4.25176e-05
4.25245e-05
4.25204e-05
4.25188e-05
4.25162e-05
4.25225e-05
4.25185e-05
4.25145e-05
4.25195e-05
4.25164e-05
4.25154e-05
4.25134e-05
4.25174e-05
4.25153e-05
4.25131e-05
4.25157e-05
4.25144e-05
4.25131e-05
4.25125e-05
4.25151e-05
4.25152e-05
4.25145e-05
4.25151e-05
4.25155e-05
4.25127e-05
4.25129e-05
4.25143e-05
4.25139e-05
4.25153e-05
4.25163e-05
4.25152e-05
4.2514e-05
4.25144e-05
4.25148e-05
4.2514e-05
4.25122e-05
4.25137e-05
4.25116e-05
4.25134e-05
4.25124e-05
4.25123e-05
4.25109e-05
4.25101e-05
4.25108e-05
4.25106e-05
4.2511e-05
4.25093e-05
4.251e-05
4.251e-05
4.25096e-05
4.25103e-05
4.25098e-05
4.25098e-05
4.25095e-05
4.25107e-05
4.251e-05
4.25083e-05
4.25085e-05
4.25089e-05
4.25077e-05
4.25076e-05
4.25078e-05
4.2508e-05
4.25045e-05
4.25077e-05
4.25032e-05
4.25066e-05
4.25017e-05
4.25073e-05
4.24999e-05
4.24437e-05
4.24572e-05
4.24934e-05
4.24861e-05
4.24641e-05
4.2481e-05
4.24869e-05
4.24926e-05
4.24836e-05
4.24921e-05
4.24937e-05
4.24977e-05
4.24942e-05
4.24967e-05
4.24996e-05
4.25011e-05
4.24977e-05
4.25025e-05
4.2502e-05
4.25058e-05
4.25038e-05
4.25058e-05
4.25073e-05
4.25077e-05
4.2507e-05
4.25101e-05
4.25088e-05
4.25109e-05
4.25102e-05
4.25099e-05
4.25113e-05
4.2512e-05
4.2511e-05
4.25134e-05
4.25133e-05
4.25136e-05
4.25127e-05
4.25127e-05