/*--------------------------------*- C++ -*----------------------------------*\
| =========                 |                                                 |
| \\      /  F ield         | OpenFOAM: The Open Source CFD Toolbox           |
|  \\    /   O peration     | Version:  2012                                  |
|   \\  /    A nd           | Website:  www.openfoam.com                      |
|    \\/     M anipulation  |                                                 |
\*---------------------------------------------------------------------------*/
FoamFile
{
    version     2.0;
    format      ascii;
    class       surfaceScalarField;
    location    "0.108/fluid";
    object      meshPhi;
}
// * * * * * * * * * * * * * * * * * * * * * * * * * * * * * * * * * * * * * //

dimensions      [0 3 -1 0 0 0 0];
oriented        oriented;


internalField   nonuniform List<scalar> 
46886
(
2.3835e-05
1.17638e-05
3.16218e-05
-1.22065e-05
-9.92151e-05
2.75474e-05
2.14111e-05
2.49816e-05
0.000150879
-2.60105e-05
-8.13316e-08
-9.74347e-08
2.67481e-05
-0.000145392
6.46299e-07
0.000142569
-2.89496e-05
-6.6909e-07
2.93744e-05
-0.000139512
1.25136e-06
0.000120625
-2.97165e-05
2.95972e-05
-0.000118731
-1.25922e-06
1.39593e-06
9.65966e-05
-2.88839e-05
2.85622e-05
-9.52985e-05
-1.42927e-06
1.38597e-06
7.56431e-05
-2.74507e-05
2.70555e-05
-7.46469e-05
-1.42998e-06
1.35378e-06
5.87189e-05
-2.5868e-05
2.54615e-05
-5.78212e-05
-1.39438e-06
1.28377e-06
4.49992e-05
-2.40918e-05
2.36042e-05
-4.41165e-05
-1.32147e-06
1.20395e-06
3.42192e-05
-2.21769e-05
2.16828e-05
-3.34358e-05
-1.23815e-06
1.10827e-06
2.574e-05
-2.00971e-05
1.95404e-05
-2.50336e-05
-1.13827e-06
9.96281e-07
1.88992e-05
-1.7796e-05
1.7206e-05
-1.83101e-05
-1.02295e-06
8.69237e-07
1.35913e-05
-1.53233e-05
1.46661e-05
-1.31692e-05
-8.92318e-07
7.08577e-07
9.22023e-06
-1.26104e-05
1.18797e-05
-8.92174e-06
-7.264e-07
5.05749e-07
5.47986e-06
-9.4097e-06
8.48369e-06
-5.30861e-06
-5.18656e-07
2.56346e-07
2.28633e-06
-5.31182e-06
4.14452e-06
-2.20226e-06
-2.628e-07
9.80341e-05
9.08024e-06
3.47363e-05
-9.36666e-06
-9.39195e-05
4.24049e-06
0.000123759
-3.28488e-05
-4.4081e-06
3.25451e-05
-0.000114614
2.66065e-06
0.00012087
-3.22203e-05
3.21698e-05
-0.000111829
-2.74246e-06
2.28482e-06
0.00010401
-3.18766e-05
3.17059e-05
-9.63117e-05
-2.33331e-06
2.08623e-06
8.37885e-05
-3.10113e-05
3.07344e-05
-7.74682e-05
-2.13146e-06
1.93742e-06
6.53567e-05
-2.98631e-05
2.9556e-05
-6.02215e-05
-1.98074e-06
1.8088e-06
5.01935e-05
-2.85317e-05
2.81434e-05
-4.60422e-05
-1.84619e-06
1.65841e-06
3.78189e-05
-2.68428e-05
2.63754e-05
-3.45675e-05
-1.69248e-06
1.50875e-06
2.83227e-05
-2.49014e-05
2.43696e-05
-2.57323e-05
-1.5415e-06
1.33859e-06
2.08119e-05
-2.25851e-05
2.19589e-05
-1.88265e-05
-1.36783e-06
1.17038e-06
1.50978e-05
-2.00306e-05
1.93871e-05
-1.36343e-05
-1.19606e-06
1.00454e-06
1.09109e-05
-1.73535e-05
1.66402e-05
-9.84587e-06
-1.02703e-06
8.04879e-07
7.35334e-06
-1.43177e-05
1.34776e-05
-6.614e-06
-8.22281e-07
5.68392e-07
4.4178e-06
-1.06696e-05
9.67531e-06
-3.96018e-06
-5.82105e-07
2.90251e-07
1.86768e-06
-6.12995e-06
4.77654e-06
-1.71285e-06
-2.96359e-07
6.81092e-06
6.86314e-05
3.55774e-05
-5.56105e-05
-7.1007e-06
4.8174e-06
7.83564e-05
-3.43679e-05
3.4068e-05
-6.26451e-05
-5.01771e-06
3.4836e-06
7.55916e-05
-3.33899e-05
3.32086e-05
-6.00964e-05
-3.61602e-06
2.82647e-06
6.47109e-05
-3.26844e-05
3.24965e-05
-5.12018e-05
-2.91532e-06
2.46845e-06
5.15744e-05
-3.18643e-05
3.16324e-05
-4.06186e-05
-2.53241e-06
2.23276e-06
3.96094e-05
-3.08848e-05
3.06161e-05
-3.10521e-05
-2.28421e-06
2.04482e-06
2.98561e-05
-2.97117e-05
2.9365e-05
-2.33053e-05
-2.08861e-06
1.85561e-06
2.21492e-05
-2.81649e-05
2.77122e-05
-1.72282e-05
-1.89493e-06
1.65957e-06
1.62096e-05
-2.62087e-05
2.56619e-05
-1.25525e-05
-1.69534e-06
1.45986e-06
1.16962e-05
-2.38985e-05
2.32795e-05
-9.01573e-06
-1.49169e-06
1.26622e-06
8.38993e-06
-2.13659e-05
2.07132e-05
-6.44079e-06
-1.29225e-06
1.0721e-06
5.94651e-06
-1.86305e-05
1.78863e-05
-4.51843e-06
-1.09511e-06
8.5254e-07
3.90989e-06
-1.54422e-05
1.45413e-05
-2.93657e-06
-8.72364e-07
5.96188e-07
2.24898e-06
-1.15005e-05
1.03869e-05
-1.65624e-06
-6.10345e-07
2.96012e-07
9.42207e-07
-6.46426e-06
4.97985e-06
-6.47394e-07
-3.04038e-07
1.07602e-05
6.41921e-05
1.63216e-05
-6.61095e-05
-9.96046e-06
-1.72568e-05
2.13968e-06
9.93699e-05
1.85546e-05
-9.74998e-05
-2.83326e-06
1.34585e-06
0.000103274
-2.24606e-05
2.35338e-05
-0.000101742
-1.63638e-06
1.46343e-06
9.43048e-05
-2.58097e-05
2.62467e-05
-9.30036e-05
-1.55345e-06
1.51812e-06
8.02607e-05
-2.68254e-05
2.68235e-05
-7.91397e-05
-1.53464e-06
1.48472e-06
6.57376e-05
-2.64129e-05
2.61814e-05
-6.47434e-05
-1.47695e-06
1.42314e-06
5.26791e-05
-2.53179e-05
2.49827e-05
-5.17528e-05
-1.40537e-06
1.34097e-06
4.14041e-05
-2.38472e-05
2.34422e-05
-4.04973e-05
-1.31814e-06
1.25192e-06
3.20428e-05
-2.21804e-05
2.17316e-05
-3.12254e-05
-1.22703e-06
1.1463e-06
2.44792e-05
-2.01859e-05
1.96382e-05
-2.37947e-05
-1.12142e-06
1.03233e-06
1.84811e-05
-1.79253e-05
1.73443e-05
-1.79347e-05
-1.00992e-06
9.00268e-07
1.36441e-05
-1.54978e-05
1.4852e-05
-1.32213e-05
-8.80247e-07
7.27997e-07
9.45623e-06
-1.27268e-05
1.19604e-05
-9.14533e-06
-7.1142e-07
5.17171e-07
5.77556e-06
-9.43621e-06
8.50042e-06
-5.59388e-06
-5.04058e-07
2.62079e-07
2.50974e-06
-5.31774e-06
4.1497e-06
-2.41953e-06
-2.55736e-07
6.83595e-05
9.16154e-06
2.563e-05
-8.81466e-06
-6.64818e-05
4.86526e-06
8.74692e-05
-2.54495e-05
-4.93844e-06
2.57367e-05
-8.21594e-05
3.03478e-06
9.00878e-05
-2.70188e-05
2.74918e-05
-8.38888e-05
-3.11723e-06
2.45445e-06
8.20737e-05
-2.86261e-05
2.88547e-05
-7.61941e-05
-2.47171e-06
2.18518e-06
6.96196e-05
-2.91606e-05
2.91564e-05
-6.44252e-05
-2.16969e-06
2.00541e-06
5.65877e-05
-2.88791e-05
2.87135e-05
-5.21461e-05
-1.97735e-06
1.85152e-06
4.47657e-05
-2.80194e-05
2.77224e-05
-4.10582e-05
-1.81851e-06
1.69378e-06
3.46241e-05
-2.66629e-05
2.62592e-05
-3.16255e-05
-1.66001e-06
1.53436e-06
2.64351e-05
-2.48997e-05
2.44009e-05
-2.40532e-05
-1.49884e-06
1.36829e-06
1.99856e-05
-2.27512e-05
2.21436e-05
-1.81164e-05
-1.33732e-06
1.19884e-06
1.49111e-05
-2.01933e-05
1.95472e-05
-1.34697e-05
-1.17222e-06
1.02783e-06
1.09585e-05
-1.75091e-05
1.68041e-05
-9.87975e-06
-1.00399e-06
8.2328e-07
7.60185e-06
-1.44339e-05
1.35726e-05
-6.86202e-06
-8.04392e-07
5.83135e-07
4.73187e-06
-1.07459e-05
9.71009e-06
-4.28461e-06
-5.69708e-07
2.95986e-07
2.01222e-06
-6.12932e-06
4.81215e-06
-1.85217e-06
-2.89915e-07
7.29674e-06
4.99784e-05
3.01945e-05
-4.06638e-05
-7.16197e-06
5.26807e-06
5.78748e-05
-2.95625e-05
2.95317e-05
-4.65092e-05
-5.23138e-06
3.81059e-06
5.77641e-05
-2.97478e-05
2.98703e-05
-4.60653e-05
-3.79925e-06
3.01908e-06
5.16581e-05
-3.02168e-05
3.02865e-05
-4.08903e-05
-2.99565e-06
2.5744e-06
4.28917e-05
-3.03567e-05
3.03226e-05
-3.37308e-05
-2.53914e-06
2.29676e-06
3.41365e-05
-3.00868e-05
2.99484e-05
-2.669e-05
-2.25548e-06
2.08648e-06
2.6467e-05
-2.93697e-05
2.91049e-05
-2.05963e-05
-2.04313e-06
1.88952e-06
2.01175e-05
-2.81447e-05
2.77526e-05
-1.55959e-05
-1.84679e-06
1.68797e-06
1.50803e-05
-2.63979e-05
2.58779e-05
-1.16365e-05
-1.64781e-06
1.48567e-06
1.11887e-05
-2.41916e-05
2.35773e-05
-8.59554e-06
-1.45194e-06
1.28647e-06
8.23253e-06
-2.16031e-05
2.09242e-05
-6.32167e-06
-1.25754e-06
1.09343e-06
5.97113e-06
-1.88426e-05
1.81124e-05
-4.56634e-06
-1.06802e-06
8.74762e-07
4.12432e-06
-1.56556e-05
1.47293e-05
-3.13574e-06
-8.5331e-07
6.14086e-07
2.53683e-06
-1.16367e-05
1.04961e-05
-1.90975e-06
-6.00022e-07
3.09377e-07
1.09901e-06
-6.58936e-06
5.1343e-06
-8.04499e-07
-3.02501e-07
7.68496e-06
5.61906e-05
1.8941e-05
-5.65478e-05
-6.91812e-06
3.82995e-06
7.32331e-05
-1.92931e-05
-7.25464e-05
1.97781e-05
-3.80599e-06
2.22883e-06
7.74669e-05
-2.168e-05
2.23219e-05
-7.66349e-05
-2.26655e-06
1.69961e-06
7.34507e-05
-2.39415e-05
2.43253e-05
-7.26173e-05
-1.67071e-06
1.48204e-06
6.52423e-05
-2.50247e-05
2.51128e-05
-6.44067e-05
-1.41632e-06
1.34832e-06
5.56167e-05
-2.50395e-05
2.49289e-05
-5.47772e-05
-1.26336e-06
1.24629e-06
4.6112e-05
-2.4409e-05
2.41799e-05
-4.53012e-05
-1.15537e-06
1.14741e-06
3.72155e-05
-2.3268e-05
2.29247e-05
-3.6412e-05
-1.05592e-06
1.05541e-06
2.94911e-05
-2.18416e-05
2.14423e-05
-2.87401e-05
-9.67378e-07
9.65354e-07
2.2987e-05
-2.01356e-05
1.96395e-05
-2.23246e-05
-8.86166e-07
8.65483e-07
1.75306e-05
-1.79787e-05
1.74002e-05
-1.69936e-05
-7.93274e-07
7.49641e-07
1.30396e-05
-1.55375e-05
1.48817e-05
-1.26201e-05
-6.83276e-07
6.08736e-07
9.23915e-06
-1.27682e-05
1.20025e-05
-8.94695e-06
-5.55822e-07
4.31591e-07
5.7182e-06
-9.43464e-06
8.4814e-06
-5.55692e-06
-3.94599e-07
2.19237e-07
2.559e-06
-5.30446e-06
4.14283e-06
-2.46485e-06
-2.00978e-07
7.29637e-06
5.40499e-05
2.44219e-05
-5.15593e-05
-6.66359e-06
4.71807e-06
6.56021e-05
-2.41962e-05
2.43737e-05
-6.15261e-05
-4.47103e-06
3.12183e-06
6.83576e-05
-2.53459e-05
2.57277e-05
-6.37161e-05
-2.99975e-06
2.36126e-06
6.43856e-05
-2.67601e-05
2.70285e-05
-5.98052e-05
-2.24653e-06
1.98112e-06
5.67797e-05
-2.75612e-05
2.76505e-05
-5.25685e-05
-1.86035e-06
1.76353e-06
4.79141e-05
-2.76992e-05
2.76464e-05
-4.4192e-05
-1.64129e-06
1.60019e-06
3.92167e-05
-2.7263e-05
2.70604e-05
-3.60141e-05
-1.48145e-06
1.44503e-06
3.12498e-05
-2.62524e-05
2.59231e-05
-2.86023e-05
-1.33293e-06
1.28606e-06
2.43822e-05
-2.47227e-05
2.42783e-05
-2.22387e-05
-1.18036e-06
1.14707e-06
1.87562e-05
-2.28169e-05
2.22632e-05
-1.70595e-05
-1.05195e-06
1.00792e-06
1.41421e-05
-2.04003e-05
1.97414e-05
-1.28065e-05
-9.25575e-07
8.6054e-07
1.04232e-05
-1.76453e-05
1.69308e-05
-9.40777e-06
-7.88833e-07
6.9123e-07
7.40944e-06
-1.45976e-05
1.37413e-05
-6.69707e-06
-6.32948e-07
4.89003e-07
4.66917e-06
-1.0817e-05
9.7344e-06
-4.24456e-06
-4.47541e-07
2.47994e-07
2.02329e-06
-6.14098e-06
4.79351e-06
-1.83014e-06
-2.2638e-07
6.24091e-06
3.73514e-05
2.80726e-05
-3.01218e-05
-5.76889e-06
4.73709e-06
4.29885e-05
-2.7507e-05
2.74932e-05
-3.44026e-05
-4.43222e-06
3.49488e-06
4.3701e-05
-2.77935e-05
2.79559e-05
-3.475e-05
-3.28743e-06
2.72482e-06
4.0409e-05
-2.85003e-05
2.86661e-05
-3.19162e-05
-2.55262e-06
2.26842e-06
3.49377e-05
-2.90323e-05
2.91029e-05
-2.74057e-05
-2.11299e-06
1.98587e-06
2.89226e-05
-2.91698e-05
2.91347e-05
-2.25523e-05
-1.8404e-06
1.77989e-06
2.32445e-05
-2.88336e-05
2.86582e-05
-1.80385e-05
-1.64234e-06
1.59454e-06
1.82347e-05
-2.79218e-05
2.76027e-05
-1.40924e-05
-1.46668e-06
1.41457e-06
1.40077e-05
-2.64454e-05
2.59968e-05
-1.07744e-05
-1.29785e-06
1.25083e-06
1.05911e-05
-2.44929e-05
2.39238e-05
-8.11852e-06
-1.1482e-06
1.08169e-06
7.80046e-06
-2.18916e-05
2.11899e-05
-5.99196e-06
-9.91916e-07
9.10651e-07
5.68232e-06
-1.89748e-05
1.81966e-05
-4.35077e-06
-8.32066e-07
7.20993e-07
4.04793e-06
-1.56689e-05
1.47498e-05
-3.06322e-06
-6.5546e-07
5.07036e-07
2.57635e-06
-1.16486e-05
1.05031e-05
-1.93452e-06
-4.60891e-07
2.5498e-07
1.08954e-06
-6.62625e-06
5.14804e-06
-8.15291e-07
-2.3202e-07
4.5202e-06
4.76384e-05
2.17493e-05
-4.77757e-05
-3.61325e-06
2.9281e-06
5.69948e-05
-2.13425e-05
2.14123e-05
-5.67998e-05
-2.39279e-06
1.8343e-06
6.04498e-05
-2.20166e-05
2.22804e-05
-6.00812e-05
-1.50851e-06
1.27891e-06
5.8929e-05
-2.30526e-05
2.3269e-05
-5.84339e-05
-1.03863e-06
1.01827e-06
5.42505e-05
-2.37449e-05
2.38327e-05
-5.36365e-05
-8.14142e-07
8.73695e-07
4.79377e-05
-2.38776e-05
2.38251e-05
-4.72467e-05
-6.94333e-07
7.72697e-07
4.09619e-05
-2.34791e-05
2.33038e-05
-4.02469e-05
-6.07542e-07
6.9414e-07
3.39487e-05
-2.25891e-05
2.23103e-05
-3.32395e-05
-5.42613e-07
6.31972e-07
2.75057e-05
-2.14081e-05
2.10739e-05
-2.6826e-05
-4.93305e-07
5.76921e-07
2.17813e-05
-1.99622e-05
1.95296e-05
-2.11706e-05
-4.48762e-07
5.13905e-07
1.67e-05
-1.80252e-05
1.74643e-05
-1.61567e-05
-3.97585e-07
4.35944e-07
1.24867e-05
-1.5619e-05
1.49527e-05
-1.2041e-05
-3.37196e-07
3.51356e-07
8.91904e-06
-1.27878e-05
1.20178e-05
-8.6372e-06
-2.70119e-07
2.49379e-07
5.46742e-06
-9.35598e-06
8.37124e-06
-5.31268e-06
-1.90935e-07
1.27275e-07
2.45065e-06
-5.22332e-06
4.08263e-06
-2.34654e-06
-9.75751e-08
4.42656e-06
4.43218e-05
2.52639e-05
-4.17786e-05
-3.52622e-06
3.1895e-06
5.16066e-05
-2.47474e-05
2.47505e-05
-4.82963e-05
-2.56795e-06
2.2008e-06
5.40011e-05
-2.51328e-05
2.53261e-05
-5.03297e-05
-1.77851e-06
1.61706e-06
5.21058e-05
-2.59388e-05
2.61244e-05
-4.84068e-05
-1.29564e-06
1.29939e-06
4.73886e-05
-2.65487e-05
2.66467e-05
-4.38668e-05
-1.03885e-06
1.11924e-06
4.13148e-05
-2.67864e-05
2.67792e-05
-3.80977e-05
-8.8964e-07
9.88035e-07
3.48427e-05
-2.65451e-05
2.63991e-05
-3.20081e-05
-7.77743e-07
8.7881e-07
2.85365e-05
-2.57699e-05
2.55091e-05
-2.61317e-05
-6.8761e-07
7.70812e-07
2.27638e-05
-2.45374e-05
2.41553e-05
-2.07664e-05
-6.02085e-07
6.79639e-07
1.78109e-05
-2.28399e-05
2.23225e-05
-1.61908e-05
-5.28347e-07
5.99659e-07
1.34912e-05
-2.05324e-05
1.98566e-05
-1.22497e-05
-4.6603e-07
5.06082e-07
9.87057e-06
-1.76843e-05
1.69824e-05
-8.9451e-06
-3.89209e-07
4.00448e-07
7.14654e-06
-1.4662e-05
1.3797e-05
-6.47816e-06
-3.07315e-07
2.82476e-07
4.45899e-06
-1.07942e-05
9.67408e-06
-4.06782e-06
-2.16412e-07
1.42618e-07
1.93425e-06
-6.01254e-06
4.66524e-06
-1.76917e-06
-1.09506e-07
3.89093e-06
2.91772e-05
2.76977e-05
-2.32165e-05
-3.09503e-06
3.06363e-06
3.32151e-05
-2.70575e-05
2.69887e-05
-2.63648e-05
-2.4424e-06
2.29506e-06
3.42089e-05
-2.7103e-05
2.72104e-05
-2.70561e-05
-1.82927e-06
1.76137e-06
3.25039e-05
-2.76355e-05
2.7786e-05
-2.55736e-05
-1.39975e-06
1.43674e-06
2.90715e-05
-2.81823e-05
2.8284e-05
-2.2751e-05
-1.13755e-06
1.23164e-06
2.49159e-05
-2.84693e-05
2.84805e-05
-1.94017e-05
-9.69904e-07
1.084e-06
2.06799e-05
-2.83383e-05
2.82224e-05
-1.60344e-05
-8.50241e-07
9.59191e-07
1.66946e-05
-2.76731e-05
2.74163e-05
-1.28927e-05
-7.4987e-07
8.4119e-07
1.31002e-05
-2.64292e-05
2.60231e-05
-1.00711e-05
-6.55499e-07
7.39987e-07
1.00994e-05
-2.45846e-05
2.40224e-05
-7.75923e-06
-5.73128e-07
6.40027e-07
7.59649e-06
-2.2002e-05
2.12646e-05
-5.84413e-06
-4.94087e-07
5.29226e-07
5.53628e-06
-1.89095e-05
1.81287e-05
-4.24562e-06
-4.07219e-07
4.11475e-07
4.01671e-06
-1.56161e-05
1.46931e-05
-3.05351e-06
-3.15988e-07
2.87325e-07
2.60432e-06
-1.15175e-05
1.03465e-05
-1.99905e-06
-2.19772e-07
1.45176e-07
1.14703e-06
-6.50032e-06
5.05192e-06
-8.93624e-07
-1.11306e-07
-3.45119e-06
-2.6498e-05
2.65405e-05
1.00405e-05
2.19939e-06
2.91723e-05
-0.000171728
0.00017974
-2.89088e-05
2.37697e-05
8.76458e-06
-3.53682e-06
2.28343e-05
-0.00014869
0.000154279
-2.13247e-05
1.98396e-06
-6.66044e-05
-1.03852e-05
6.4485e-05
1.31546e-05
2.4686e-06
3.3131e-06
2.59653e-06
3.29796e-06
1.45794e-05
-0.000103569
-1.72353e-06
2.96182e-07
0.000105499
-1.25967e-05
1.9605e-06
-0.000172064
0.000177557
2.97164e-05
3.76719e-07
3.06825e-05
-0.000161436
0.000163553
-3.05055e-05
3.03688e-05
4.03161e-05
-0.00011781
-4.25559e-07
3.17008e-05
-3.27077e-05
-0.000161969
-9.83998e-06
-0.000109896
0.000113953
3.88677e-05
-4.66498e-06
3.54321e-05
-0.000133114
0.00014291
-3.63803e-05
2.18575e-07
-4.92558e-07
1.30503e-07
1.91529e-06
-4.90004e-08
2.16393e-07
4.88392e-08
3.57714e-06
0.000154674
1.75217e-06
2.44547e-05
2.77934e-05
-0.000146513
0.000148035
-2.69622e-05
3.21191e-07
-0.00010821
-1.06404e-06
-4.6579e-08
0.000109557
1.67269e-05
2.20302e-05
-0.000112274
-7.85262e-07
3.2607e-07
0.000112781
-2.05142e-05
-2.59931e-05
-6.33469e-07
-0.00014176
0.000100093
3.42438e-05
-1.01175e-05
3.19164e-05
-0.000120373
0.000127964
-3.2441e-05
-4.8507e-06
1.16182e-05
1.68579e-05
-6.94308e-05
-3.03447e-06
1.74433e-05
2.12019e-06
-1.62235e-05
-0.000101147
-9.709e-06
-7.34365e-05
1.00362e-05
7.34659e-05
2.50503e-05
-5.42082e-06
2.48347e-05
-9.12318e-05
5.26062e-06
9.5273e-05
-2.46251e-05
6.27501e-05
1.32662e-05
-9.59392e-06
-9.48438e-05
1.49271e-05
9.61656e-05
-1.35181e-05
-2.83093e-06
-5.84023e-05
-7.43265e-06
8.15855e-06
5.75932e-05
1.64031e-05
-7.53574e-05
1.72383e-05
-4.17544e-06
4.01207e-06
7.53066e-05
-1.66742e-05
2.28291e-07
-4.9076e-08
3.65243e-06
1.01649e-07
-1.01684e-07
3.51202e-06
-7.90513e-07
8.24626e-06
-8.02982e-07
-3.70512e-05
-8.82111e-06
3.82982e-05
2.18555e-07
3.86323e-08
-3.86379e-08
-3.87909e-06
4.66233e-06
-5.47766e-06
-5.84457e-06
2.69306e-05
9.90885e-07
4.39447e-05
4.38274e-05
-0.00016601
-7.56466e-06
9.79262e-08
-9.7971e-08
1.41979e-06
-3.58741e-06
-4.2361e-07
6.23744e-08
1.75479e-06
-8.79082e-07
1.01496e-07
3.4382e-06
-7.84837e-07
-1.50395e-07
6.44082e-07
-2.05106e-07
-2.03546e-06
7.09637e-06
-3.40112e-05
-7.62294e-06
3.50653e-05
-8.34859e-07
-3.63799e-06
-1.7569e-05
3.6642e-06
1.69763e-05
5.36376e-06
2.06934e-07
3.85354e-08
-3.7916e-06
4.14371e-06
-1.02123e-06
-2.66319e-05
2.72442e-05
9.4018e-07
-4.51729e-06
5.44543e-07
-1.66622e-07
9.98729e-07
-1.69931e-06
4.43008e-06
-3.81133e-06
-4.38684e-06
-4.77413e-06
-3.38761e-06
2.02136e-05
8.04452e-07
3.71103e-05
4.03285e-05
4.03473e-05
3.69001e-05
-0.000141794
-6.39079e-06
-6.00411e-06
-5.26006e-06
0.000132937
-1.52569e-05
1.1511e-06
1.78916e-05
-0.000129464
9.77401e-08
1.37822e-06
-3.50906e-06
3.476e-06
-2.96567e-06
-2.07805e-06
-2.55717e-06
-2.39112e-06
1.51309e-05
-3.62505e-08
3.40732e-05
3.08153e-05
3.36717e-05
3.14591e-05
-0.000121617
-3.13262e-06
-4.97931e-06
-4.15185e-06
3.01819e-07
-9.59203e-07
2.49358e-06
-2.46342e-06
1.12629e-07
-7.31936e-07
2.69726e-08
-1.69743e-07
-1.37316e-06
1.73962e-06
-6.09222e-07
9.82459e-08
-1.86541e-07
2.33431e-06
-2.53331e-06
5.513e-08
-1.64446e-05
-3.49039e-06
1.57666e-05
4.56209e-06
8.67382e-06
2.20832e-06
2.5964e-06
3.12266e-06
1.66521e-06
-9.00863e-06
5.73899e-06
8.55133e-05
1.17863e-05
-8.34702e-05
-6.27347e-06
1.10608e-07
-1.7606e-07
1.16687e-05
2.19289e-05
2.66393e-05
2.31756e-05
2.47711e-05
-9.20349e-05
-3.14929e-06
-4.25856e-06
-3.82229e-06
-3.70499e-06
6.29827e-07
1.82395e-06
1.66531e-06
7.70625e-06
1.27895e-06
3.7895e-08
7.74162e-07
4.7769e-07
-4.65932e-06
6.26379e-07
-1.73833e-06
9.21425e-08
0.000116924
-1.23355e-05
1.52294e-05
-0.000114656
-1.44297e-06
-9.70274e-06
1.23759e-05
-5.0785e-07
1.6863e-06
9.8812e-05
-9.58366e-05
-3.28933e-06
-2.12168e-06
-1.90853e-06
-2.13227e-06
-2.00633e-06
1.26724e-05
2.74964e-05
2.84809e-05
2.92838e-05
2.66388e-05
-0.000106638
-2.90483e-07
-4.05158e-07
-5.38501e-07
-5.82092e-08
-1.77741e-06
-4.99446e-08
1.0773e-07
4.98015e-08
2.99352e-06
1.25688e-07
-4.7159e-08
3.06576e-06
-4.38576e-05
1.71244e-06
-1.78559e-06
-1.58342e-06
-1.74184e-06
-1.63166e-06
-9.76332e-07
-6.22295e-06
6.30838e-06
9.66968e-07
2.59688e-06
2.31278e-06
-5.23793e-07
-8.00867e-06
5.19453e-07
-2.34548e-06
8.03381e-06
7.26779e-06
1.72329e-07
1.07107e-05
1.13546e-05
1.18499e-05
1.0253e-05
-4.11689e-05
-2.26759e-06
-2.18396e-06
-2.3498e-06
-2.10079e-06
-3.6875e-07
-8.64066e-06
3.66545e-07
8.75926e-06
2.21871e-06
-4.45292e-05
1.58864e-06
-1.20629e-06
-9.9083e-07
-1.12111e-06
-1.07194e-06
5.59433e-06
1.0923e-06
1.16909e-05
1.17528e-05
1.22567e-05
1.12176e-05
1.24602e-06
-1.03754e-07
1.0381e-07
2.85765e-06
-7.4445e-07
-1.57206e-06
-3.16733e-05
1.31048e-06
-4.53806e-07
-2.51919e-07
-4.00815e-07
-3.60806e-07
-1.64464e-06
-3.39165e-05
-6.22469e-07
-7.69133e-07
-8.02718e-07
-5.94839e-07
-9.90792e-08
2.93215e-06
-7.50243e-07
1.7074e-06
-4.02974e-05
-1.30464e-06
-1.41744e-06
-1.46588e-06
-1.25891e-06
-3.6941e-05
-1.13715e-06
-9.36119e-07
-9.76842e-07
-1.09351e-06
3.8134e-07
-1.48011e-06
-6.70441e-06
6.78985e-06
1.39711e-06
-3.87741e-07
-3.66827e-08
1.12479e-07
3.62281e-08
-3.11186e-06
-1.35877e-07
2.12517e-06
-2.51015e-07
7.53681e-06
7.9609e-06
8.22196e-06
7.38319e-06
-2.87596e-05
-9.42725e-07
-9.0444e-07
-1.04837e-06
-7.05093e-07
-1.62878e-07
3.62977e-06
7.77527e-06
8.9802e-06
8.10855e-06
8.56977e-06
-3.12913e-05
-1.12378e-06
-1.36315e-06
-1.28401e-06
-1.20787e-06
-1.01343e-06
-4.70849e-07
-5.82951e-06
4.3096e-07
5.88769e-06
9.37614e-07
1.6408e-06
-5.41742e-07
-6.49312e-06
6.50916e-06
5.37329e-07
-1.67878e-06
-5.87164e-06
5.95003e-06
2.42108e-06
-9.88944e-07
2.14162e-06
-7.61184e-06
-5.27925e-07
-2.17633e-06
7.6402e-06
-1.01891e-06
-4.84812e-06
1.90303e-06
1.01105e-06
4.89503e-06
-7.06222e-06
7.15454e-06
3.78475e-07
1.55497e-06
1.24753e-07
-3.69995e-08
-3.19555e-06
1.6862e-07
6.02258e-06
9.36075e-06
1.08604e-05
9.80302e-06
1.03808e-05
-3.76394e-05
-1.76846e-06
-2.01448e-06
-1.93396e-06
-1.85016e-06
-8.2283e-06
-3.71776e-07
8.34483e-06
2.05033e-06
4.82338e-06
8.92549e-06
9.43938e-06
8.50487e-06
9.8999e-06
-3.43145e-05
-1.60363e-06
-1.52336e-06
-1.44246e-06
-1.68241e-06
-6.14618e-06
6.15866e-06
-1.52025e-06
-5.4766e-07
-1.08974e-06
-3.6981e-06
3.67082e-06
1.07442e-06
1.26671e-06
-4.52336e-06
1.73886e-06
4.55796e-06
-1.03284e-06
-6.16153e-07
-5.27165e-06
5.85477e-07
5.27131e-06
-1.05642e-06
3.44232e-05
-2.54558e-06
1.17349e-06
-1.20755e-06
-9.44396e-08
9.33625e-08
1.04413e-06
-2.89421e-06
-1.51039e-06
-3.17205e-05
1.35721e-06
-3.204e-07
-3.36786e-07
-2.87178e-07
-2.95971e-07
-1.05628e-06
1.85423e-06
9.11352e-07
8.10624e-06
7.79311e-06
8.25935e-06
7.73971e-06
-1.54377e-06
-3.65578e-07
-3.37149e-07
-2.79753e-07
-4.31215e-07
-1.07224e-06
8.52879e-06
9.2903e-06
8.79831e-06
8.93984e-06
9.7314e-07
-1.27252e-06
3.75417e-05
-3.43668e-06
-9.46446e-08
1.08802e-06
-2.97317e-06
-4.09386e-05
1.59755e-06
-7.993e-07
-8.51017e-07
-9.31356e-07
-7.14434e-07
4.48076e-06
1.1037e-06
1.0283e-05
1.12471e-05
1.07405e-05
1.07565e-05
-6.61471e-07
-4.52303e-07
-5.76159e-07
-5.41129e-07
9.82194e-06
9.7864e-06
1.02633e-05
9.38464e-06
-4.06957e-08
-1.46086e-06
5.99623e-09
1.65066e-06
-1.29808e-07
-1.11846e-06
1.74239e-06
-2.61659e-05
-2.43206e-07
-2.51191e-07
-2.57041e-07
-1.77436e-07
-5.7598e-07
-2.29551e-05
-1.54207e-07
1.08403e-07
-3.57357e-08
-3.81352e-08
-1.28038e-06
-2.27854e-08
1.3382e-06
-1.04585e-07
4.21012e-07
-1.46118e-05
3.2511e-07
5.99151e-07
4.50486e-07
4.9001e-07
-1.85927e-05
2.0365e-07
2.46534e-07
8.46396e-08
3.67184e-07
9.75166e-07
-2.96037e-05
-4.15008e-07
-2.33503e-07
-3.54736e-07
-2.97409e-07
1.6216e-06
-2.69015e-05
-2.49898e-07
-2.70065e-07
-2.54024e-07
-2.76039e-07
-2.78092e-05
1.37208e-06
2.24982e-05
1.87563e-06
-2.54753e-06
-8.90289e-08
2.76376e-07
-1.70556e-06
3.26668e-08
-2.15752e-06
-2.53254e-07
1.12074e-06
6.73968e-06
7.41025e-06
6.96121e-06
6.96019e-06
-1.07234e-06
-2.5744e-05
7.99243e-07
1.30413e-08
-2.11036e-07
-1.31621e-07
-1.38759e-07
-8.60501e-07
6.11922e-06
5.56677e-06
6.30475e-06
5.49268e-06
-7.77047e-07
-7.42834e-07
-6.08431e-07
5.38935e-07
3.2495e-07
3.36192e-07
-1.65204e-06
1.64346e-07
1.31687e-07
4.12974e-09
2.92336e-07
1.46784e-06
-3.02943e-06
1.84287e-05
-1.83e-05
6.37808e-07
5.66004e-07
5.09351e-07
6.89214e-07
-9.18875e-08
-1.33923e-06
-3.53314e-09
-3.52677e-06
3.42468e-06
-1.01504e-06
1.07702e-06
-1.45328e-05
1.99097e-06
6.69042e-07
6.908e-07
8.03036e-07
5.43209e-07
-1.47418e-05
7.78292e-07
9.59157e-07
9.19168e-07
8.24513e-07
-5.04256e-06
-5.90495e-07
4.99277e-06
-9.07102e-07
5.37006e-07
2.52377e-07
3.91625e-07
4.14959e-07
-6.52617e-07
2.79452e-05
-1.75328e-06
-2.94849e-05
9.38513e-07
-2.63468e-07
-3.33373e-07
-2.74949e-07
-3.37647e-07
1.50439e-06
5.13416e-07
7.13571e-06
7.39867e-06
7.41478e-06
7.1163e-06
1.46151e-06
-2.72062e-05
-2.49733e-07
-2.62574e-07
-2.70447e-07
-2.2641e-07
2.04044e-08
3.46148e-07
-3.41019e-07
-3.32638e-08
-1.92117e-06
-1.82305e-06
-1.92323e-06
-1.80756e-06
7.29095e-08
-4.72231e-08
4.36747e-08
2.62573e-06
-3.3968e-07
6.04236e-08
3.86366e-07
2.53724e-07
-2.07581e-06
-1.91816e-06
-1.99742e-06
-2.26468e-06
2.68398e-07
-4.24951e-07
-2.02123e-06
-2.204e-06
-2.10486e-06
-2.02371e-06
6.06118e-07
1.2469e-07
-1.94342e-06
-1.84528e-06
-2.02522e-06
-1.79956e-06
1.14371e-07
1.57705e-08
-1.82092e-08
-1.03895e-07
-1.56196e-06
-2.35761e-08
1.64685e-07
2.20866e-08
-1.53896e-07
-1.6994e-06
-4.38752e-07
7.57333e-07
4.26845e-07
-8.05235e-07
-2.4234e-06
-2.26699e-06
-2.36546e-06
-2.32296e-06
1.73235e-07
5.14243e-08
-4.8671e-08
3.3548e-06
-9.02951e-07
5.19174e-07
-5.21572e-07
1.26646e-06
-2.6207e-06
-3.02977e-06
-2.68092e-06
-2.96488e-06
-4.46463e-07
-9.47877e-07
-2.48034e-06
-2.4369e-06
-2.53918e-06
-2.38006e-06
1.10348e-06
5.09852e-07
-2.56225e-06
-2.83533e-06
-2.90015e-06
-2.50279e-06
-4.29976e-08
1.02087e-08
5.32677e-08
-1.17789e-06
-1.51318e-08
2.7924e-08
-8.28348e-08
2.20551e-08
-1.16916e-06
1.04851e-07
2.30609e-07
2.93258e-08
-2.19252e-07
-1.88641e-06
1.81345e-07
-2.57678e-08
-1.7036e-07
-1.74575e-06
4.53917e-07
1.18742e-06
-1.22738e-06
-2.7153e-06
-2.66925e-06
-2.77563e-06
-2.611e-06
2.63661e-07
-4.90123e-08
4.91135e-08
3.88211e-06
-1.04686e-06
-5.28651e-07
1.42421e-06
-2.80142e-06
-3.09557e-06
-2.74035e-06
-3.16218e-06
-1.08888e-06
-2.65681e-06
-2.4949e-06
-2.59715e-06
-2.55249e-06
1.57611e-06
-2.86134e-06
-3.2948e-06
-3.22853e-06
-2.9231e-06
-2.00132e-06
-1.14916e-05
4.75983e-07
-1.01151e-07
1.01509e-07
3.73603e-06
-8.09182e-07
-5.20496e-07
1.83342e-06
5.16326e-07
-2.95727e-06
-3.21827e-06
-3.28645e-06
-2.89562e-06
-4.6444e-07
1.10255e-05
-1.04602e-05
4.62313e-07
-5.36795e-07
-5.15234e-07
-5.37781e-07
-5.15823e-07
-3.01939e-06
-3.42347e-06
-3.35512e-06
-3.08004e-06
-1.09052e-05
-5.61338e-07
-5.82799e-07
-5.62165e-07
-5.82838e-07
4.70753e-07
5.8656e-07
-1.9444e-06
-5.73115e-07
1.93559e-06
-1.75592e-07
-1.76902e-07
5.27591e-07
-1.79959e-06
1.77005e-07
-5.15403e-07
1.79003e-06
2.40516e-06
5.14835e-08
-2.18123e-06
2.64257e-06
2.55312e-06
2.69863e-06
2.49964e-06
2.53098e-07
-3.82255e-08
3.84197e-08
-4.14486e-06
-2.75566e-07
-2.22112e-06
1.64525e-06
2.71907e-07
2.79782e-06
3.17434e-06
3.24421e-06
2.73818e-06
1.80564e-06
2.85897e-06
3.38568e-06
3.31552e-06
2.91951e-06
5.28391e-08
-2.01651e-06
2.58659e-06
2.39416e-06
2.53143e-06
2.44672e-06
1.15824e-05
-1.03586e-06
4.20065e-07
-9.7065e-08
9.75242e-08
1.54443e-06
-3.8247e-06
-4.48463e-07
-1.11086e-05
4.46188e-07
-1.16309e-07
-5.8378e-08
-6.96699e-08
-1.0315e-07
-4.1709e-07
9.04537e-07
4.14231e-07
2.99384e-06
3.28755e-06
3.3589e-06
2.9306e-06
-1.31872e-07
-9.65635e-08
-8.40126e-08
-1.43928e-07
3.0581e-06
3.5036e-06
3.43205e-06
3.12054e-06
4.17638e-07
-4.38693e-07
-8.04044e-06
3.94986e-07
-4.26042e-07
-9.28779e-08
9.51315e-08
2.35486e-06
-8.89566e-07
-3.67283e-07
2.86507e-07
2.52729e-07
-1.94268e-06
-1.86724e-06
-1.96949e-06
-1.89066e-06
-4.54807e-07
7.73346e-06
-7.81846e-06
3.87043e-07
-4.39185e-08
4.45121e-08
-3.42947e-08
-3.86998e-09
-4.46922e-07
-2.02172e-06
-2.23229e-06
-2.11268e-06
-2.09083e-06
-7.82375e-06
-4.54087e-07
-9.65059e-08
-1.48366e-07
-1.09121e-07
-1.40034e-07
3.24403e-07
-1.48283e-06
-4.7387e-07
-1.01076e-05
4.65994e-07
1.05528e-07
-1.01647e-07
3.21886e-06
-7.70552e-07
5.16623e-07
1.65909e-06
-2.77373e-06
-3.15025e-06
-3.0826e-06
-2.83385e-06
1.05626e-05
4.64215e-07
-1.00185e-05
-4.68074e-07
-4.90288e-07
-4.90725e-07
-4.68789e-07
5.11595e-07
-2.71289e-06
-2.94901e-06
-3.01557e-06
-2.65268e-06
-9.58902e-06
4.60633e-07
-4.42271e-07
-4.19649e-07
-4.43217e-07
-4.20212e-07
9.3095e-07
6.77731e-08
-7.14933e-08
-9.57181e-07
1.93625e-06
1.80348e-06
1.9253e-06
1.79699e-06
1.07784e-08
-3.57303e-08
3.73853e-08
-2.76617e-06
-4.09305e-07
-6.9395e-07
-1.06849e-08
4.47349e-07
2.15147e-06
2.00386e-06
2.12299e-06
2.34913e-06
4.07803e-07
-2.97891e-07
2.08781e-06
2.27724e-06
2.21849e-06
2.06566e-06
-2.31687e-07
-7.92209e-07
1.96575e-06
1.85254e-06
2.05563e-06
1.79757e-06
4.49287e-07
-1.80791e-07
-1.60746e-06
1.59909e-06
1.80749e-07
-4.38833e-07
5.0796e-07
-1.74884e-06
-1.78733e-07
-4.96091e-07
1.7417e-06
-5.09446e-08
1.85328e-06
4.92775e-08
-1.68669e-06
2.36747e-06
2.18793e-06
2.31407e-06
2.23885e-06
1.71858e-07
3.79768e-08
-3.81997e-08
-3.53282e-06
-2.03699e-06
2.75553e-07
1.48385e-06
2.61895e-06
3.1036e-06
2.67772e-06
3.03509e-06
-1.8514e-06
2.42185e-06
2.34193e-06
2.47615e-06
2.2902e-06
1.3241e-06
2.68261e-07
2.55945e-06
2.89775e-06
2.96563e-06
2.50151e-06
2.85664e-07
1.83678e-07
-1.20544e-06
1.19867e-06
-2.7737e-07
-1.84033e-07
-2.1619e-07
2.20414e-07
-1.11683e-06
1.821e-07
1.15805e-06
-2.24813e-07
8.04705e-06
-2.09732e-07
4.13377e-07
-4.05097e-07
-7.47801e-08
6.56239e-08
1.101e-06
-2.30924e-06
-4.31726e-07
-7.71986e-06
4.42525e-07
-5.55739e-08
-1.49208e-07
-8.81704e-08
-9.07274e-08
-4.45535e-07
1.99454e-07
4.71157e-07
1.92355e-06
1.85491e-06
1.95427e-06
1.87862e-06
-4.31477e-07
-2.01261e-08
2.42168e-08
-1.84697e-08
1.18848e-09
-4.09332e-07
2.00725e-06
2.24094e-06
2.10418e-06
2.09241e-06
4.02607e-07
-4.21562e-07
1.01785e-05
-6.39843e-07
4.15757e-07
9.66526e-08
-9.70733e-08
1.254e-06
-3.27738e-06
-1.06386e-05
4.49065e-07
-7.45638e-08
-4.34308e-08
-8.71089e-08
-3.01001e-08
7.71891e-07
4.18017e-07
2.80527e-06
3.21505e-06
2.86676e-06
3.14466e-06
4.44662e-07
-5.81189e-08
-2.25745e-09
-1.46369e-08
-4.42916e-08
4.11655e-07
2.74267e-06
3.00419e-06
3.07351e-06
2.68133e-06
-4.06841e-07
4.79499e-07
-6.9571e-06
-1.70007e-07
-2.66375e-07
3.06906e-07
6.20703e-07
-1.97263e-06
-1.90393e-06
-2.1678e-06
-1.79107e-06
-2.86684e-06
-3.78224e-07
1.35001e-06
2.04809e-06
-9.6861e-08
7.10678e-06
-1.08764e-06
5.91471e-07
-6.59382e-06
-1.08901e-07
-9.27331e-08
-7.14928e-08
-1.13187e-07
7.89061e-09
-1.81741e-06
-1.67711e-06
-1.79231e-06
-1.72316e-06
5.80165e-07
-7.72862e-06
-3.4738e-07
-1.01643e-07
-1.57171e-08
-5.60538e-08
-8.14313e-08
2.09964e-07
-3.8456e-06
-1.7163e-07
1.01766e-07
3.62609e-08
7.74914e-08
4.96681e-08
-9.61425e-07
1.44835e-08
-1.73877e-08
1.01913e-06
-1.58657e-07
3.36328e-06
4.80585e-08
-3.47256e-06
1.63065e-07
1.65952e-07
1.67329e-07
1.58918e-07
-7.37586e-08
-1.50772e-08
-9.87753e-07
8.85875e-08
1.28777e-07
8.68275e-08
6.75156e-08
-4.01937e-06
4.92876e-08
1.58988e-07
1.34796e-07
1.49299e-07
1.46852e-07
-2.9138e-07
-3.9367e-07
-7.1558e-06
3.60267e-07
2.52073e-07
-1.78221e-06
-1.80714e-06
-1.83362e-06
-1.78721e-06
7.39112e-06
3.23925e-07
-7.54295e-06
-6.26778e-08
4.95492e-08
-8.01588e-09
-1.65335e-08
7.01454e-06
3.08029e-07
-6.76486e-06
-7.29988e-08
-8.9177e-08
-7.37358e-08
-9.02204e-08
-7.14127e-06
6.21286e-08
6.97698e-06
-2.40263e-08
-2.58361e-07
2.75821e-07
-1.27407e-06
-2.05796e-06
2.31207e-07
-9.41977e-08
2.41747e-07
-2.11474e-07
1.98942e-06
1.93644e-06
2.20543e-06
1.80529e-06
6.48662e-07
-7.14701e-06
-1.05983e-07
-5.9181e-08
-6.02593e-08
-6.46041e-08
-8.6583e-08
-3.96109e-07
1.82451e-06
1.67751e-06
1.80526e-06
1.72359e-06
-5.90777e-08
-3.19106e-08
-9.72662e-08
-1.01376e-07
-1.08891e-08
-6.73954e-08
-7.33252e-07
3.93264e-06
6.6277e-07
-3.88332e-06
1.4938e-07
1.7986e-07