/*--------------------------------*- C++ -*----------------------------------*\
| =========                 |                                                 |
| \\      /  F ield         | OpenFOAM: The Open Source CFD Toolbox           |
|  \\    /   O peration     | Version:  2012                                  |
|   \\  /    A nd           | Website:  www.openfoam.com                      |
|    \\/     M anipulation  |                                                 |
\*---------------------------------------------------------------------------*/
FoamFile
{
    version     2.0;
    format      ascii;
    class       volScalarField;
    location    "0.108/fluid";
    object      p;
}
// * * * * * * * * * * * * * * * * * * * * * * * * * * * * * * * * * * * * * //

dimensions      [0 2 -2 0 0 0 0];


internalField   nonuniform List<scalar> 
16422
(
-18651.1
-10587.6
-5653.44
-2925.35
-1499.09
-772.374
-403.879
-215.239
-116.865
-64.404
-35.7874
-19.8546
-10.8117
-5.5314
-2.2136
-20142.8
-13631.2
-8817.85
-5581.32
-3505.48
-2201.16
-1386.62
-877.184
-556.918
-354.198
-224.819
-141.312
-86.3461
-48.7096
-20.8213
-21026.2
-15224.3
-10574.7
-7134.15
-4723.51
-3092.07
-2011.01
-1303.25
-842.684
-543.502
-348.789
-221.175
-136.094
-77.1761
-33.0955
-21472.4
-14637.4
-9579.04
-6147.37
-3924.96
-2512.29
-1616.51
-1045.42
-678.359
-440.47
-284.954
-182.153
-112.883
-64.3653
-27.6954
-21982.8
-16056
-11299
-7762.63
-5256.1
-3528.34
-2355.86
-1566.99
-1038.6
-685.3
-448.84
-289.671
-180.837
-103.661
-44.7446
-22321.6
-16879.5
-12317.3
-8744.39
-6083.64
-4171.26
-2829.91
-1904.61
-1273.33
-845.559
-556.454
-360.425
-225.614
-129.575
-55.9917
-23113.3
-17090.4
-12169.8
-8444.09
-5761.56
-3889.57
-2607.53
-1739.22
-1154.93
-763.013
-500.169
-322.996
-201.728
-115.671
-49.9377
-23177.1
-17715.4
-13084.8
-9410.13
-6632.7
-4604.98
-3160.49
-2149.22
-1449.96
-970.381
-642.806
-418.609
-263.162
-151.613
-65.6365
-23250.6
-18111.2
-13655.3
-10016.8
-7185.78
-5063.84
-3518.1
-2416.07
-1642.85
-1106.39
-736.584
-481.585
-303.666
-175.319
-75.9942
-23908.5
-18341.1
-13570
-9751.1
-6851.22
-4733.19
-3228.91
-2181.57
-1462.31
-972.723
-640.861
-415.396
-260.148
-149.456
-64.5944
-23815.3
-18634.6
-14108.8
-10386.6
-7472.11
-5276.47
-3670.91
-2523.22
-1716.55
-1156.27
-769.829
-503.297
-317.337
-183.205
-79.4116
-23781.5
-18833.6
-14457.4
-10795.5
-7872.54
-5628.48
-3958.65
-2746.49
-1883.18
-1276.84
-854.695
-561.226
-355.057
-205.472
-89.1908
-18239
-9799.98
-18729.7
-11298.9
-20687.7
-14879.5
-8018.74
-4179.97
-17705.9
-11028.7
-19181.1
-13756.7
-14600.7
-10879.8
-9546.56
-5599.13
-13240.9
-9188.88
-12290.7
-19820.7
-14548.9
-20892.1
-15376.4
-21431.7
-16603.5
-21328.1
-15798
-22770.4
-17864.6
-10597.6
-10586.7
-14349.4
-12352.4
-8357.33
-11935
-11887.7
-14545.3
-10861.8
-15084.4
-14967.6
-20038.7
-12560.6
-16616.7
-14876.4
-10157.6
-13341.2
-12638.8
-12106.2
-11745.5
-14587.8
-14999.4
-20284.3
-14848.4
-15181.8
-20417.6
-20454.9
-18613.2
-20379
-17753.9
-18245.1
-14999.1
-13828.3
-14344.9
-16669.3
-13133.6
-15688.4
-16201.3
-12962.6
-12713
-9068.65
-18359.6
-16198.6
-13414.1
-15493.2
-9962.53
-11973.1
-10740.5
-12890.2
-12869.1
-12012.4
-12647.9
-10117.2
-11095.5
-16963.9
-14110.2
-16008.1
-15434.1
-17744.9
-17338.4
-18617.2
-16495.8
-19343.3
-16688.5
-13928.8
-14132
-15805.4
-14806.4
-17601
-20214.3
-19569.7
-18349.5
-13079
-13736.4
-13335.6
-14827.1
-12574.3
-14186.3
-13766.7
-12352.3
-13545.7
-10888.7
-12755.2
-11564.9
-11760.3
-13501.5
-17560.8
-16463
-17664.2
-17922
-20174.8
-18897.9
-13654.7
-15372.1
-14366.5
-18205.8
-17730.4
-16531.8
-16759.3
-17741.1
-17944.7
-17067.6
-19354.3
-18056.7
-20413.2
-20381.3
-20536.9
-18581.6
-19147.4
-15008.4
-14034.1
-15420
-15679.3
-14401.3
-14682.3
-16010.4
-14647.4
-13940.5
-14669.2
-14169
-15202.2
-15110.4
-14267
-12001.7
-11689.9
-11052.5
-11432
-11607.8
-17457
-18324.8
-13054.8
-13972.9
-10225.1
-9725.62
-10474.2
-10839.5
-9876.18
-9235.34
-9735.76
-10148.4
-10208.7
-9569.34
-9676.42
-9800.41
-16920.5
-17352.7
-13245.7
-11705.3
-12790.6
-12381.3
-13625.8
-10802
-11205.5
-10759.1
-11977.3
-10268.6
-11540.1
-11258.2
-13268.2
-13852.5
-14169.8
-13909.4
-13718.3
-13488.9
-13699.9
-10874.3
-11652
-10711.4
-10722.3
-11249.8
-10348.8
-11218.3
-15940.4
-14767.8
-15541.1
-15254.9
-16219.5
-17898.1
-17492.5
-14348.8
-13166.9
-13181.6
-13992
-13565.3
-19009.5
-19360.5
-14038.4
-14429.2
-14154.1
-14925.6
-13772.7
-14613.6
-14381.9
-12120
-12744.5
-11231.2
-12393.2
-11693
-11689.5
-12802.6
-16143.6
-15145.4
-16159.1
-15681
-15747.6
-15544.6
-16307.1
-19351.2
-19247.1
-20233.9
-18629.6
-20042.3
-19563
-14491
-14606.3
-14297.1
-15154.2
-14108.9
-15001.4
-14661.7
-16715.2
-16314.9
-15804.9
-15874.6
-16469.5
-16504.6
-16099.4
-19835.2
-19371.7
-20377.5
-20472.4
-19470.5
-19727.4
-15031.3
-14504.3
-15228.9
-15340.6
-14708.1
-14841
-15549.1
-14129.7
-13698.5
-13176.8
-13611.5
-13677.4
-15198.1
-16666
-15788.7
-15774
-14662.6
-14720.8
-14134.8
-15519.2
-14709.2
-12797.2
-13666.1
-13855.5
-15381.9
-16169.9
-14983.6
-14760.5
-13945.3
-15782.3
-12552.7
-11952.6
-12667.1
-13088
-12145.9
-12504.3
-12487.4
-13357.8
-11926.9
-13061.8
-14454.6
-13604
-13637.6
-17086.4
-16980.3
-16093
-17964.7
-17195.7
-16427.1
-16822.2
-15026.1
-15823.3
-16042.6
-12630.5
-12496.3
-13558.7
-11554.9
-9421.46
-10704
-12186
-11327.7
-11243.8
-9439.61
-16517.7
-15841.6
-15359.3
-16962.5
-15193.9
-11483.2
-14075
-15476.6
-14981.3
-14430.3
-14811.2
-10972.1
-12819.4
-13613.5
-12770.3
-12613.2
-13251.7
-12354.1
-13058.5
-11382.6
-11907.5
-12276
-12161.5
-11771.5
-11874.5
-11696.7
-15651.7
-14621.2
-14631.1
-15345.2
-14957.1
-16617.4
-17766.4
-17372.9
-16886
-16337.1
-16829.6
-16046.3
-17239.7
-17523.9
-15997.3
-17106.2
-16450.6
-18029.2
-18409.6
-17658.7
-17021.9
-16596.6
-18050.6
-14692
-13362.1
-14290.8
-15025.6
-13932.3
-15108.8
-15636.6
-14775
-16102.1
-15432
-16688.8
-15744.4
-16252.3
-18667.4
-18077.3
-17689
-19030.2
-18891.8
-18532.7
-18546.8
-17158.8
-17559
-18177.2
-13684.1
-14278
-12975.1
-13939.6
-13382.1
-14290.4
-13311.4
-12529.6
-12949.1
-12560.1
-13576.6
-12131
-13193.7
-12929.6
-16767.4
-16533.7
-16996
-17626.1
-16360.9
-17403.8
-16969.6
-18685.4
-18911.2
-17298.3
-18265.6
-18279.4
-18038
-18910.8
-17345.1
-16709.8
-17757.9
-17821.8
-17120.7
-17172.1
-17974.7
-19209.1
-19038.2
-18202.7
-18452.1
-19149.5
-19089.1
-18587.6
-16356.7
-19492.5
-17320.5
-17798.3
-19068.8
-16953.7
-19818.7
-16186.7
-21867.5
-17173.9
-22795.5
-18048.8
-22898
-18548
-18016.9
-16907.9
-16620.4
-17714.6
-18532.1
-17439.1
-19196
-17947.8
-17183.5
-19016.8
-15281
-18235.5
-16022
-14684
-14388.7
-14705.3
-14460.5
-14968.4
-11307.1
-11153.9
-10900.1
-11027
-11175
-20236.3
-18940.7
-18177.9
-18557.6
-21083.4
-20488.2
-19236.7
-10445.6
-10313.2
-10615.4
-10736.4
-10330
-10180.6
-10308.8
-10510.2
-10696.3
-10229.8
-10431.9
-10452.4
-12744.1
-12141
-12441.5
-12232.2
-12943
-11269.1
-11664.1
-11128.7
-11991.5
-10881.6
-11772.1
-11499.6
-14083.8
-14319
-14508.2
-14434.5
-14270.1
-14224.7
-14303.5
-10983.3
-11129.5
-10788.7
-10956.3
-11058.8
-10721.9
-11210.6
-15513.4
-14985.6
-15231.9
-15106.2
-15646.4
-18213
-19629
-19897.6
-18870
-18419.2
-19470.7
-18683.6
-13334.9
-12765.5
-12650.3
-13142.1
-12853
-14510.4
-14700.7
-14577.5
-14959
-14384.9
-14798.6
-14688.4
-11947.1
-12322.7
-11369.9
-12206.5
-11723.9
-11608.2
-12419.2
-15490.9
-14975.9
-15260.7
-15268.7
-15279.8
-15192.5
-15548.9
-19848.7
-19934.9
-20327.1
-19757.9
-20207.3
-19983.7
-14700.9
-14738.3
-14640.9
-15036.1
-14511.4
-14940.4
-14802.5
-15847.7
-15472.8
-15371.3
-15389.2
-15722.5
-15671.3
-15532.1
-19519.5
-20775.4
-20293.6
-19283.7
-19665.8
-20658.6
-19126.7
-20142.1
-20042.3
-20412.5
-20471.1
-20095.9
-20078.3
-15013.9
-14752.6
-15111.6
-15152
-14853
-14907.7
-15268.2
-13415.9
-13207.9
-12995.4
-13164.3
-13241.6
-15951.3
-16262.7
-14603
-14333.1
-12651.4
-12463.6
-12743.5
-12907
-12493.2
-12402.9
-12103.6
-13798
-14071.2
-11496.8
-11808.1
-17253.2
-18266.2
-18092.4
-17635.3
-17355
-17996.2
-17536.4
-16492.3
-15889.9
-16917.1
-16053.8
-16623.5
-15740.2
-16790.3
-14800.4
-14972.4
-12939.9
-13129.2
-12838.2
-12878.2
-13079.6
-12707
-13103.2
-12232.4
-12404.9
-12592.8
-12650.3
-12347.3
-12470.2
-12420
-14776.4
-14286.6
-14191.9
-14610
-14366.3
-17199.2
-17322.1
-16519.7
-16373.8
-17629.4
-17214.6
-17065.6
-18002.2
-17742.8
-16937.9
-17892.2
-18076
-18527.3
-17905.2
-18867.5
-18168.4
-17810.3
-18780.1
-17358.6
-16786.1
-17200.4
-16357.6
-17476.5
-17078.6
-16652.4
-18332.9
-18668.8
-19108.9
-19261.2
-18421.8
-19024.5
-18582.2
-14262.7
-13744
-14010.3
-14436.7
-13827.5
-15302.3
-15135.7
-16079.4
-16230.4
-18394.7
-17482.7
-18252.4
-17858
-17743.5
-18146.7
-18497.1
-19290.2
-20151.2
-20005.3
-19586.3
-19934.2
-19365.8
-19517.6
-19059.2
-18906.8
-19490.5
-19790.6
-19714.2
-18823.6
-19140
-18636.9
-18106.2
-18247.2
-18965.2
-17997.7
-18734.1
-18874.9
-13598.2
-13922.8
-13163
-13809.8
-13371.5
-13993.5
-13403.2
-13005
-13350.4
-12952.1
-13622.3
-12736.9
-13430.4
-13206.5
-17143.8
-17205.7
-17414.2
-17660.6
-16886.3
-17501.3
-17323.6
-18155.4
-18252
-17727.4
-17992.2
-18045.5
-17831.5
-18318.9
-17558.1
-17406.4
-17834.7
-17793.3
-17456.3
-17469.4
-17888.7
-18520.5
-18381.5
-18135.7
-18113.3
-18453.9
-18436
-18202.4
-19917.2
-20360.2
-20598.7
-19794.5
-20538.2
-19729.3
-19990.4
-19305.8
-18795.4
-18487.9
-19186.4
-19102.3
-18698.2
-19394
-14426
-14175
-13980.6
-14220.4
-14173.3
-14927.8
-15486.9
-15241
-15168
-14652.5
-14610.4
-14383.7
-14887.5
-15137.2
-14835.2
-15480.7
-15091.2
-15209.6
-14816.4
-15409.2
-15057.7
-15336.4
-14856.6
-14553.2
-14645.8
-14249.4
-14573.6
-14927.9
-14535.2
-15881.8
-15614.2
-11586.2
-11425.3
-11714.2
-11448.8
-11856.8
-11465.3
-11363.9
-11180.8
-11652.2
-11748.1
-12216.8
-12023.2
-11938
-18003.2
-17809.5
-17435.7
-17728.2
-17705.3
-17735.3
-18079.7
-19029.1
-18720.1
-18174.1
-18441
-18274.1
-18010.2
-18298.6
-18683.9
-18570.8
-17982.7
-18365.4
-13679.4
-13367.1
-13441.8
-13040
-13750
-13370.3
-13351.8
-14767.4
-14476.2
-13985.4
-13674.3
-14351.9
-13956.2
-14280.9
-14057.3
-13658.1
-13867.7
-14172.6
-10145.1
-10021
-9738.89
-10035.4
-9842.83
-10591.1
-11066.4
-10886.8
-10766.6
-10286.3
-10146.9
-9979.23
-10458.4
-9902.5
-10024.4
-9651.36
-9888.4
-9942.65
-10162.7
-9620.52
-17366.8
-17292.6
-16897.7
-17066.6
-17434.8
-17224
-17043.8
-18084.8
-17950.4
-17673.3
-17812
-17508.5
-17211
-17714.5
-17329.5
-17646.8
-17576.8
-17187.9
-12537.7
-11924.3
-11798.7
-12015.3
-12332.1
-13176.1
-13782.8
-13368.8
-13596.5
-12979.1
-13214.9
-12780.1
-13407.2
-11035.9
-11437.3
-10375
-11320.9
-10631.7
-11548.7
-10795.9
-13861
-14087.8
-13802.2
-13782.6
-14037.7
-14004.8
-13634.9
-11241.9
-11393.6
-11586.5
-11707
-11325.5
-11460.8
-11495.5
-15375.8
-14884.4
-14845.6
-14977.2
-15240.8
-15873.4
-16352.6
-16017
-16217.5
-15732.2
-15935.6
-15591.4
-16077.7
-18050.9
-17874.3
-17765.2
-18247.7
-18118.5
-17741.5
-18180.7
-18218.8
-18348.8
-17918
-17629.7
-17852
-17469.1
-17784
-17985.4
-17606.3
-18604.3
-18478.4
-13528.3
-12968.5
-13252.3
-13056.1
-13715
-13745.8
-13966.1
-13559.1
-14146.6
-13930.5
-14499
-14111.3
-14324.3
-19384
-18983.4
-19335.6
-19126.5
-19099.5
-19268.7
-19451.5
-20008.6
-19892.4
-19663.8
-19777.3
-19499.4
-19243.3
-19326.6
-19689.3
-19611.6
-19214.1
-19569.7
-14332.1
-14554
-13987.4
-14501.5
-14183.6
-14647.3
-14156.8
-12165.2
-12535
-12071.7
-12834.3
-11841.1
-12628.3
-12381.6
-15821.1
-15690.2
-15922.4
-16285
-15625.7
-15900.1
-16154.3
-19492.4
-19589.2
-19034.4
-19304.9
-19381.6
-19643.5
-19145
-19717.1
-19375.1
-19932.3
-19610.8
-19575.8
-19340.7
-18859.2
-18730.8
-19010.3
-19106.5
-18980.1
-19214.8
-16200.5
-15839
-16460.5
-16417.8
-16116
-16023.2
-16557.4
-19816
-19708.2
-19434.7
-19414.5
-19768.7
-19747
-19489.1
-20185
-20119.1
-20139.5
-20204
-19853.8
-19564.2
-19433.1
-19804.3
-19759.4
-19530
-19883.6
-13669.8
-13454.7
-13735.4
-13920.3
-13490.6
-13606
-13559.4
-13819.4
-13349.8
-13864.3
-14343.4
-14121.9
-14080.8
-15717.6
-15746.5
-15417.7
-16056.3
-15684.8
-15401.9
-15443.8
-14857.6
-15137.9
-15162.4
-14367.6
-13796.6
-14059.8
-14099.7
-14863.4
-15135.8
-14627.1
-14588.9
-14322.9
-14897.7
-13993.4
-14336.7
-14430.2
-14640.6
-14360.9
-14054.9
-14275.6
-13369.6
-12753.2
-13092.5
-13126.6
-13420.7
-13048.2
-13075.5
-13658.3
-13992.4
-13381.6
-13621.9
-13709.1
-13941.7
-13337.6
-13705.9
-14145.4
-13784.6
-13475.4
-14075.4
-13768.1
-13412.9
-15942.1
-15647.9
-15751.8
-15362.2
-15679.3
-16013.7
-15627.8
-16916.5
-16665.6
-16203.6
-15911
-16530.8
-16149
-16276.1
-15890.4
-16459.3
-16149.1
-16407.2
-14826.1
-14613.3
-15253.4
-14915.9
-14885.9
-14553.1
-15186.5
-14765.5
-14717.1
-14491.8
-15082.4
-14815
-14448.4
-15033.2
-14494.8
-14270.7
-14220.8
-13901.4
-14545
-14220.4
-14176.8
-15095.5
-15519.5
-15420
-15717.2
-15154.3
-15453.5
-15361.8
-12389.3
-12208.8
-11979.2
-12127.1
-12236.3
-12829
-13295.7
-13089.1
-13032
-12563.3
-12493.6
-12296.9
-12763.5
-12177.1
-11582.9
-11874.7
-11880.1
-12687.4
-12976.1
-12461
-12444.1
-12162.2
-12747.6
-13566.8
-13532
-13838
-13265.2
-13530.9
-13251.1
-13300.2
-12722
-12995.1
-13022.3
-16969.7
-16738
-17029.8
-17361.4
-17306.3
-16689.3
-17016.1
-16944.6
-16962.7
-16661.2
-17300.7
-16637.6
-16978.3
-17269
-16653.2
-16409.7
-16058.5
-16373.2
-16343.6
-16369.5
-16689.3
-17257.5
-17646.4
-17913.8
-17625.4
-17590.6
-17303.9
-17581.3
-17220.5
-16938
-17547.3
-17173.9
-17475.1
-17293.3
-16916.6
-17168.7
-17415.8
-16966.7
-16682.4
-16787.3
-16406
-16714.8
-17038.4
-16661
-17916.1
-17666.2
-16152.1
-16471.1
-16560.6
-16762.4
-16206.3
-16418.3
-16499.5
-15563.2
-14983.5
-15291.4
-15347
-15249.1
-15298.7
-15611.1
-15828.1
-16140.9
-15555.5
-15784
-15514.9
-15874.2
-16096.1
-15888.9
-16301.9
-15682.7
-15978.7
-15625.8
-15945
-16239
-12496.1
-12946.6
-12241.5
-12557.1
-12873.9
-12560.1
-12177.3
-12468.9
-12452.3
-12826.4
-12189
-12775.2
-12520
-12145.2
-12808.3
-13256.3
-13487.3
-13176.7
-13184.2
-13113.6
-12871.7
-12155.9
-11887.3
-11875.5
-11511.5
-12207.1
-11836.1
-11831.8
-9432.05
-9529.56
-9825.31
-9661.63
-11276.1
-11284.2
-10980.8
-11584.7
-11189.4
-10865.1
-10969.4
-10354.9
-10670.4
-10647.9
-10031.5
-10327.9
-9352.22
-9609.21
-9331.83
-16212.8
-16448.3
-16124
-16668.2
-16599.7
-16057.2
-16278.9
-15995.3
-15781.6
-15683.1
-16211.5
-16057.4
-15622.5
-16150.1
-15838
-15742.1
-15296.9
-15522.7
-15678.3
-15901
-15461
-16366.1
-16816.6
-16895.7
-16581.4
-16748.9
-16431.2
-16517
-15967.1
-15899.2
-15581
-15130.4
-15516.2
-11575.6
-12119.9
-13020
-12577.5
-14467.7
-14184.3
-14003.1
-14643.9
-14632.2
-14454.9
-14295.7
-13634.2
-13821.1
-14113.8
-14281.4
-13446.8
-13936.3
-10116.5
-11091.4
-10556.4
-13174.5
-13371.4
-13563.7
-13562.1
-13407.8
-13322
-13332.6
-11990.3
-12157.5
-11844.7
-11948.4
-11745.4
-12097.3
-12186
-14940.6
-14459.1
-14697.4
-15093.9
-14538.2
-15133.7
-15329.6
-15486.5
-14972
-15292.2
-15789.6
-15444.3
-15640.2
-16916
-16677.9
-16546.7
-17038
-17070.7
-16933.6
-16787.3
-16270.3
-16410.8
-16649.8
-16228.2
-15679.8
-15832.8
-16079
-16658
-16799.2
-16369.4
-16128
-15981.3
-16513.3
-16955.9
-17460.4
-17386.9
-17158.7
-17322.6
-17097.6
-17017.6
-16452.7
-15938.3
-16363.1
-16150.9
-16302.6
-16512.5
-16092.5
-16811.9
-17247.6
-17040.3
-16729
-17182.5
-16665.6
-16874.5
-16600.5
-16804.2
-16393.8
-16301.7
-16746
-16659.5
-16244.3
-18434.9
-18005.3
-18376.5
-18157.9
-18309.3
-18133.9
-18501.6
-19090.8
-18972.9
-18729.7
-18851.5
-18559.5
-18284.9
-18385.3
-18747.5
-18260.8
-18626.3
-18681.1
-17374.3
-17596.1
-17297.1
-17791.4
-17433.8
-17237.1
-17729.5
-17168.6
-16967.9
-16882.2
-17360.4
-17224.6
-16827.9
-17305
-17030
-16946.5
-16740.8
-16540.8
-17086.8
-16889.1
-16685.5
-17509.4
-17922
-17700.3
-17990.2
-17567.9
-17860.9
-17642.4
-14081.9
-13554.2
-13447.9
-13901.3
-13637.8
-14637.2
-15169.3
-14805.9
-15006.1
-14464.5
-14670.8
-14289.6
-14839.9
-14982
-14360.6
-14536.1
-14811.2
-15460.4
-15621.8
-15143.6
-14877
-14707
-15309
-15777.6
-15525.5
-15932.2
-15366.7
-15931.2
-15775.1
-15626
-15042.3
-15206.7
-15466
-18403.1
-18609.7
-18334.1
-18787.7
-18730.2
-18279.2
-18457.9
-18210
-18020.9
-17947.6
-18391.8
-17896.3
-18263.8
-18333.4
-18085.1
-18010.8
-17638.1
-17819
-17768.4
-17958.1
-18137.6
-18525.5
-18907.8
-18969.9
-18707.6
-18849.6
-18581.3
-18647.6
-19037.2
-18866.4
-19219.1
-18773.5
-19152.8
-18748.5
-19103.7
-19208.4
-19322.9
-19549.8
-19437.5
-18919.8
-18653.7
-18508.2
-18868.3
-18801.8
-18629.1
-18986
-18029.2
-18488.7
-18210.4
-18425
-18085.1
-18154.8
-18366.6
-17571.4
-17105.8
-17294.2
-17494
-17241.5
-17439.2
-17625.7
-17701.7
-17883.9
-17427.1
-17507.2
-17375.1
-17755.4
-17830.5
-17902.1
-18302
-17830.3
-18117.5
-17773.2
-17958.7
-18242.9
-13790.3
-14105
-13791.4
-14343.8
-13978.1
-13582.3
-14172.8
-12800.9
-13151.9
-12296.3
-13035.4
-12591.3
-12519.2
-13234.9
-16812
-16874.8
-16218.3
-16648.1
-16476.9
-16545.6
-16992.5
-18478.8
-18580.3
-18697.7
-18973.7
-18810
-18368.5
-18644
-17981.4
-17408.4
-17620.9
-17538.9
-17719.5
-17663.2
-17862.6
-18303.4
-18518.3
-18375.5
-17944.4
-18637.6
-18039.7
-18185.7
-17236.1
-17064.4
-16796
-16791.2
-16899.1
-17134.6
-17140
-18840.7
-18708.6
-19104.6
-19086.7
-19164.8
-18778
-18759.1
-18573
-18148.7
-18516.9
-18307.9
-18463.5
-18258
-18621.7
-18888.8
-19248.8
-19105.4
-18830.4
-19209.6
-18782
-18932.9
-3295.39
-1480.78
-1088.41
-329.31
-177.029
93.4965
140.581
206.992
212.709
204.056
196.086
166.161
155.478
124.461
114.852
88.9421
81.3169
61.3398
55.5722
40.5582
36.2181
24.7858
21.4122
12.2384
9.41495
1.32295
-9292.19
-5406.63
-12205.2
-8383.4
-4473.62
-2470.75
-7368.6
-4972.8
-2010.02
-1052.3
-4356.94
-2928.85
-839.009
-406.958
-2566.48
-1730.95
-313.519
-129.44
-1519.52
-1031.66
-91.0567
-18.5134
-907.875
-621.042
-4.32132
20.247
-547.863
-377.328
24.3102
29.3663
-333.539
-230.876
29.4831
27.3397
-204.34
-141.736
26.1251
21.8558
-125.44
-86.7189
20.3473
15.8649
-76.5498
-52.1216
14.4204
10.2977
-45.6072
-29.6219
8.9945
5.26722
-25.2253
-13.9482
4.07382
0.577069
-10.6497
-1.47904
-19581
-14421.3
-20466.9
-15835.9
-12920.8
-9144.23
-14445
-10793.5
-8117.27
-5638.75
-9752.02
-7122.51
-4986.5
-3442.14
-6397.48
-4609.91
-3041.55
-2100.06
-4126.9
-2952.2
-1857.01
-1286.54
-2638.42
-1880.99
-1139.23
-792.816
-1679.9
-1196.25
-703.098
-491.379
-1068.18
-760.513
-436.317
-305.843
-679.075
-483.309
-271.75
-190.574
-431.424
-306.432
-169.243
-118.138
-273.199
-192.777
-104.599
-71.8184
-171.251
-118.65
-63.0019
-41.1958
-104.368
-68.7294
-35.1477
-19.5216
-58.7553
-32.7845
-14.9203
-2.07553
-25.0836
-3.49511
-20659.6
-16135.8
-20945.1
-16576.4
-14768.3
-11147.6
-15243.1
-11670.2
-10105
-7448.33
-10627.2
-7933.99
-6708.91
-4871.09
-7174.2
-5263.73
-4370.55
-3145.29
-4737.48
-3437.36
-2815.94
-2016.91
-3084.79
-2223.38
-1803.74
-1289.06
-1992.02
-1430.46
-1152.27
-822.684
-1280.45
-917.585
-735.198
-524.418
-820.899
-587.247
-468.431
-333.318
-525.006
-374.447
-297.332
-210.119
-334.256
-236.664
-186.741
-129.541
-210.454
-146.217
-113.989
-75.1355
-128.722
-84.9477
-64.2483
-35.871
-72.6629
-40.5995
-27.4489
-3.8255
-31.073
-4.33184
-4643.8
-2584.4
-8105.56
-5533.29
-2109.18
-1119.59
-4868.6
-3320.89
-898.79
-450.502
-2926.32
-2011.83
-353.172
-160.228
-1778.81
-1236.57
-119.551
-41.3595
-1097.46
-771.155
-25.5874
3.09963
-686.647
-486.588
8.3657
16.6272
-434.269
-309.365
17.6913
18.0717
-276.413
-197.129
17.6018
15.3086
-176.038
-124.877
14.3818
11.4417
-111.132
-77.4003
10.4526
7.55101
-68.1935
-45.0998
6.61438
3.89783
-38.6007
-21.5983
3.01875
0.428524
-16.5356
-2.30621
-6639.51
-13022.1
-9197.55
-13789.1
-9806.9
-15158.3
-11382.6
-3454.84
-8162
-5670.58
-8724.38
-6109.8
-10310.1
-7607.46
-1771.77
-5016.8
-3471.7
-5421.09
-3788.09
-6862.39
-5021.07
-910.639
-3071.47
-2131.1
-3363.5
-2361.87
-4521.28
-3297.5
-474.139
-1888.22
-1317.28
-2101.84
-1486.94
-2967.6
-2162.67
-251.454
-1169.48
-820.751
-1326.59
-945.218
-1946.18
-1418.28
-135.925
-730.041
-514.951
-845.086
-605.379
-1276.29
-929.844
-74.6681
-458.693
-324.604
-542.003
-389.366
-836.558
-608.635
-41.4376
-289.333
-204.804
-348.753
-250.361
-547.154
-396.599
-23.0255
-182.43
-128.453
-224.012
-159.741
-355.861
-255.668
-12.6273
-114.044
-78.9007
-142.382
-99.5777
-228.386
-160.657
-6.61182
-69.3745
-45.6378
-87.8395
-58.2745
-141.958
-94.583
-2.9293
-39.0035
-21.7486
-49.9196
-27.9869
-81.1174
-45.5995
-0.302468
-16.6375
-2.31764
-21.4363
-2.99184
-34.9476
-4.88207
-15109.9
-20866.7
-16318
-21585.6
-16926.1
-21946.3
-17644.9
-9859.64
-14943.5
-11307.4
-15519.4
-11805
-16322.7
-12751.5
-6264.54
-10261
-7594.93
-10737.5
-8017.12
-11698.7
-8948.79
-3938.63
-6852.44
-5004.26
-7258.39
-5363.89
-8162.14
-6153.6
-2472.19
-4499.76
-3261.14
-4844.32
-3560.95
-5590.47
-4173.79
-1555.83
-2926.95
-2112.82
-3212.02
-2354.74
-3781.76
-2804.78
-983.197
-1894.57
-1364.99
-2122.62
-1553.66
-2536.67
-1872.51
-623.74
-1223.46
-880.57
-1399.86
-1023.14
-1691.2
-1243.67
-396.626
-789.009
-567.164
-921.329
-671.886
-1121.86
-821.773
-252.003
-507.878
-363.988
-604.422
-438.875
-740.197
-539.229
-158.965
-325.429
-231.455
-393.994
-283.442
-484.544
-349.446
-98.1027
-206.113
-143.761
-253.294
-178.359
-312.501
-220.457
-56.953
-126.707
-83.8723
-157.645
-105.112
-194.956
-130.162
-27.2071
-71.8028
-40.1972
-90.165
-50.7085
-111.694
-62.8672
-2.9022
-30.7783
-4.29351
-38.8672
-5.43049
-48.1951
-6.73554
-16576.7
-21263.9
-16958.4
-22028.9
-17803.1
-22154.2
-18039.5
-11620.5
-15638.6
-12084.1
-16499.3
-12960.5
-16762.8
-13273
-7888.44
-11040.1
-8326.89
-11911.6
-9157.12
-12230.3
-9470.29
-5243.27
-7555.86
-5603.04
-8364.84
-6332.18
-8669.98
-6602.06
-3440.21
-5060.87
-3711.28
-5759.61
-4313.59
-6015.52
-4525.73
-2240.3
-3342.32
-2434.04
-3911.95
-2908.1
-4109.69
-3065.36
-1452.88
-2188.13
-1586.81
-2631.85
-1946.05
-2776.81
-2058.22
-939.92
-1424.92
-1030.53
-1758.45
-1294.69
-1861.07
-1372.62
-606.677
-924.655
-667.073
-1168.29
-856.524
-1239.22
-909.662
-389.979
-597.969
-429.741
-771.69
-562.531
-819.855
-598.187
-248.3
-384.531
-274.085
-505.576
-364.788
-537.763
-388.277
-154.379
-244.232
-170.638
-326.266
-230.25
-347.342
-245.246
-90.1356
-150.471
-99.7293
-203.636
-135.991
-216.93
-144.919
-43.2202
-85.4076
-47.8515
-116.703
-65.6967
-124.377
-70.0317
-4.61728
-36.6457
-5.11354
-50.3659
-7.03918
-53.6917
-7.50461
-14198.7
-10160.8
-16380.6
-12455.6
-9056.24
-6374.79
-11326
-8445.49
-5664.92
-3974.85
-7642.14
-5637.68
-3533.65
-2489.41
-5088.57
-3734.08
-2217.45
-1572.65
-3366.41
-2464.36
-1404.07
-1002.31
-2220.47
-1623.41
-896.62
-643.214
-1462.22
-1067.76
-576.116
-414.324
-961.267
-700.532
-371.227
-266.724
-630.067
-457.261
-238.714
-170.345
-410.44
-295.163
-151.865
-106.271
-263.739
-185.663
-93.7594
-62.2294
-164.087
-109.386
-53.3142
-29.8988
-93.8271
-52.763
-22.9022
-3.19678
-40.4409
-5.65014
-19615.4
-21610.8
-21980.5
-19840.3
-20205.1
-20372.1
-22074.5
-10677.5
-15756
-12009.2
-16604.6
-12757.6
-17204.5
-13557.7
-6874.58
-10931.2
-8181.05
-11641.3
-8770.97
-12476.7
-9636.33
-4390.7
-7412.98
-5492.48
-7963.23
-5930.72
-8818.37
-6715.69
-2807.47
-4964.94
-3659.77
-5369.02
-3972.66
-6121.76
-4616.55
-1803.96
-3304.27
-2429.22
-3590.61
-2646.88
-4196.7
-3142.52
-1165.3
-2191.8
-1608.71
-2389.98
-1757.45
-2850.9
-2123.17
-755.678
-1450.75
-1063.06
-1585.7
-1163.43
-1922.96
-1425.39
-490.75
-958.062
-700.302
-1048.89
-767.36
-1288.99
-950.807
-317.951
-630.447
-458.716
-690.98
-503.063
-858.276
-629.014
-204.095
-412.069
-296.967
-451.984
-325.878
-566.263
-410.437
-127.837
-265.523
-187.241
-291.409
-205.56
-367.599
-260.382
-75.0841
-165.565
-110.513
-181.781
-121.364
-230.536
-154.383
-36.1452
-94.8267
-53.3666
-104.144
-58.6194
-132.587
-74.7672
-3.86766
-40.9107
-5.71736
-44.9391
-6.28058
-57.342
-8.01901
-17438.6
-22257.8
-18034.7
-22934.7
-18689.1
-23031.6
-19017.4
-12369.9
-16730.1
-13184.4
-17372.6
-13780.6
-17761.3
-14294.1
-8540.65
-12131.8
-9362.38
-12709.6
-9878.57
-13246.4
-10439.3
-5800.01
-8563.99
-6510.52
-9058.22
-6937.17
-9614.31
-7453.11
-3900.34
-5930.42
-4461
-6334.55
-4799.55
-6831.01
-5228.33
-2607.21
-4051.52
-3024.77
-4369.24
-3284.24
-4774.04
-3617.85
-1735.71
-2741.24
-2035.09
-2982.87
-2228.22
-3293.8
-2476.38
-1151.49
-1841.26
-1360.63
-2019.93
-1500.89
-2249.16
-1679.66
-760.772
-1229.2
-904.105
-1358.23
-1003.8
-1522.28
-1129.51
-499.419
-815.38
-596.054
-906.627
-665.459
-1021.36
-752.021
-323.861
-536.168
-387.779
-599.341
-434.933
-677.929
-493.175
-204.458
-347.077
-245.407
-389.676
-276.275
-442.177
-314.085
-120.787
-217.163
-145.233
-244.673
-163.96
-278.306
-186.749
-58.3623
-124.683
-70.2513
-140.837
-79.452
-160.47
-90.6004
-6.25398
-53.8685
-7.53108
-60.9404
-8.52338
-69.5041
-9.72388
-18167.1
-22419.2
-18365.7
-23055.7
-19092.2
-23093.8
-19205.6
-13365.5
-17103.2
-13636.9
-17849.5
-14410.2
-17982.9
-14585.7
-9546.89
-12595.8
-9824.81
-13367.9
-10566.7
-13551.6
-10759.6
-6671.62
-9016.46
-6915.39
-9740.78
-7570.95
-9932.44
-7749.91
-4589.11
-6315.71
-4783.66
-6944.56
-5326.76
-7117.1
-5476.59
-3120.73
-4353.23
-3266.86
-4867.07
-3694.74
-5008.74
-3812.01
-2104.18
-2965.02
-2209.6
-3365.53
-2533.75
-3474.96
-2621.38
-1409.03
-2001.3
-1482.98
-2302.19
-1721.09
-2383.21
-1784.42
-937.346
-1340.78
-988.179
-1560.31
-1158.68
-1618.46
-1203.31
-618.496
-891.72
-652.839
-1048
-772.132
-1088.75
-802.915
-402.639
-587.502
-425.39
-696.193
-506.719
-724.152
-527.459
-254.933
-380.864
-269.522
-454.387
-322.882
-473.086
-336.354
-150.921
-238.558
-159.634
-286.131
-192.051
-298.117
-200.173
-73.018
-137.068
-77.2569
-165.038
-93.1949
-172.036
-97.1705
-7.82816
-59.245
-8.28373
-71.4971
-10.0032
-74.5516
-10.4317
-23109.8
-18361.3
-23803.9
-19399.2
-16911
-13032.2
-18027.3
-14271.7
-11902
-8985.82
-13148.9
-10177.5
-8162.37
-6084.9
-9316.24
-7092.06
-5509.44
-4076.58
-6461.53
-4860.59
-3684.07
-2713.87
-4413.66
-3291.95
-2449.68
-1799.27
-2982.04
-2210.3
-1622.74
-1188.97
-1998.58
-1473.98
-1071.4
-782.702
-1330.69
-976.742
-704.462
-512.171
-880.285
-642.217
-459.966
-331.225
-577.326
-416.794
-296.078
-208.638
-372.837
-263.22
-184.446
-123.047
-232.822
-155.526
-105.566
-59.3901
-133.478
-75.1526
-45.5248
-6.36139
-57.6176
-8.0535
-18504.6
-23157
-18899.5
-23772.3
-19467.2
-23713.1
-19664.4
-13285.9
-17577.2
-13963.6
-18123
-14430.1
-18391.5
-14861.6
-9269.37
-12884.3
-10027
-13321.4
-10374.1
-13790
-10906
-6346.88
-9197.79
-7050.97
-9515.49
-7287.26
-10054.7
-7816.35
-4294.29
-6440.27
-4883.13
-6652.27
-5032.18
-7169.72
-5498.91
-2883.21
-4446.21
-3343.73
-4577.63
-3431.58
-5024
-3812.69
-1925.33
-3037.29
-2269.59
-3113.48
-2318.09
-3472.51
-2613.14
-1279.94
-2057.61
-1529.17
-2098.97
-1554.07
-2373.94
-1773.82
-846.815
-1383.9
-1022.87
-1404.69
-1034.52
-1607.82
-1193.31
-556.427
-923.876
-678.155
-933.315
-682.842
-1079.12
-794.64
-361.071
-610.783
-443.246
-614.377
-444.589
-716.365
-521.145
-228.056
-397.126
-281.559
-397.982
-281.503
-467.251
-331.89
-134.772
-249.352
-167.096
-249.13
-166.653
-294.08
-197.33
-65.1338
-143.531
-80.9717
-143.082
-80.629
-169.561
-95.7322
-6.98012
-62.1061
-8.68641
-61.8281
-8.64457
-73.4409
-10.2747
-19013
-23235.3
-19279.6
-23702.5
-19723.6
-23687.4
-19867.2
-14153.8
-18037.6
-14594.8
-18470.2
-14985.2
-18658.3
-15275.9
-10240.2
-13549.6
-10735.5
-13923.8
-11057.6
-14238.1
-11413.2
-7250.27
-9904.14
-7715.73
-10208.4
-7967.37
-10569
-8322.33
-5050.84
-7082.66
-5444.43
-7317.53
-5632.57
-7665.15
-5947.54
-3475.59
-4978
-3786.3
-5151.94
-3922.19
-5453.64
-4180.91
-2368.57
-3451.02
-2602.52
-3575.74
-2698.14
-3819.8
-2899.43
-1601.04
-2365.91
-1771.29
-2453.21
-1837.27
-2641
-1987.74
-1073.75
-1606.54
-1194.47
-1666.5
-1239.24
-1805.71
-1348.29
-713.385
-1080.76
-797.073
-1121.31
-827.013
-1221.49
-903.944
-467.056
-718.898
-523.67
-745.905
-543.333
-816.117
-596.104
-297.072
-469.701
-333.979
-487.331
-346.502
-535.096
-381.273
-176.472
-296.02
-198.782
-307.117
-206.229
-338.141
-227.407
-85.5666
-170.844
-96.5016
-177.243
-100.115
-195.525
-110.546
-9.18147
-74.0388
-10.3599
-76.8109
-10.7477
-84.8322
-11.8741
-19340.9
-23275.4
-19434.2
-23685.7
-19901
-23684.4
-19953.2
-14695.1
-18223
-14846.9
-18702.2
-15342.9
-18769.3
-15444.9
-10848.4
-13815.4
-11019.6
-14310.4
-11495
-14420.6
-11619.5
-7822.28
-10187.9
-7984.25
-10651.9
-8404.04
-10778.2
-8528.59
-5534.92
-7342.62
-5672.75
-7745.22
-6020.22
-7867.3
-6131.11
-3857.98
-5194.64
-3967.35
-5523.3
-4240.74
-5629.61
-4332.13
-2656.64
-3620.48
-2739.33
-3876.28
-2946.07
-3962.56
-3017.38
-1810.76
-2492.72
-1871.1
-2684.53
-2022.65
-2751.09
-2076.05
-1222.49
-1698.38
-1265.36
-1838.02
-1373.61
-1887.43
-1412.37
-816.519
-1145.61
-846.286
-1244.76
-921.826
-1280.38
-949.208
-536.837
-763.659
-556.999
-832.441
-608.379
-857.439
-627.176
-342.566
-499.783
-355.717
-546.208
-389.364
-563.224
-401.758
-203.974
-315.375
-211.926
-345.361
-232.336
-356.42
-239.887
-99.0463
-182.174
-102.946
-199.779
-112.973
-206.298
-116.692
-10.6341
-78.9913
-11.0547
-86.6986
-12.1361
-89.5588
-12.5378
-23945.6
-19615.4
-24150.1
-19930.3
-18261.3
-14536.1
-18603
-14925.5
-13416.4
-10437.3
-13811.3
-10823.4
-9568.99
-7315.57
-9945.5
-7650.47
-6673.62
-5037.02
-6991.99
-5303.07
-4578.32
-3423.4
-4826.96
-3622.59
-3103.36
-2304.47
-3287.37
-2447.66
-2084.81
-1539.62
-2216.02
-1639.68
-1390.47
-1021.6
-1481.65
-1090.08
-920.959
-672.354
-983.084
-718.425
-604.536
-436.656
-646.14
-467.044
-390.661
-275.904
-417.934
-295.318
-244.065
-163.079
-261.278
-174.642
-139.969
-78.8193
-149.908
-84.4348
-60.4311
-8.44733
-64.7406
-9.05098
-19669.5
-23831.5
-19829.2
-24105.9
-19965.4
-24005.6
-20072.8
-14675.7
-18567.6
-15058
-18660.9
-15038.4
-18828.4
-15350.3
-10615.9
-13988.7
-11101
-13937.7
-10976.1
-14285
-11393
-7496.55
-10245.4
-7988.21
-10102.7
-7810.59
-10531.4
-8247.11
-5198.56
-7333.96
-5638.58
-7150.22
-5449.69
-7581.7
-5849.96
-3556.44
-5155.33
-3919.87
-4968.29
-3745.75
-5354.3
-4082.67
-2408.15
-3572.14
-2692.1
-3404.1
-2545.14
-3723.58
-2812.36
-1617.24
-2446.74
-1830.29
-2307.3
-1713.56
-2557.66
-1916.45
-1077.92
-1659.55
-1232.76
-1550.19
-1144.2
-1738.52
-1293.04
-712.144
-1115.07
-821.654
-1032.92
-756.941
-1170.02
-862.966
-463.978
-740.861
-539.236
-681.358
-493.643
-778.327
-566.922
-293.924
-483.542
-343.59
-442.044
-312.937
-508.475
-361.501
-174.066
-304.48