/*--------------------------------*- C++ -*----------------------------------*\
| =========                 |                                                 |
| \\      /  F ield         | OpenFOAM: The Open Source CFD Toolbox           |
|  \\    /   O peration     | Version:  2012                                  |
|   \\  /    A nd           | Website:  www.openfoam.com                      |
|    \\/     M anipulation  |                                                 |
\*---------------------------------------------------------------------------*/
FoamFile
{
    version     2.0;
    format      ascii;
    class       surfaceScalarField;
    location    "0.108/fluid";
    object      phi;
}
// * * * * * * * * * * * * * * * * * * * * * * * * * * * * * * * * * * * * * //

dimensions      [0 3 -1 0 0 0 0];
oriented        oriented;


internalField   nonuniform List<scalar> 
46886
(
-0.000477092
-0.00421902
-0.0104736
0.00374743
0.00195224
-0.00053408
-0.000444306
-0.000516038
-0.00486833
0.00746185
-0.00580553
0.00528251
-0.00639565
0.00431685
-0.00530703
-0.00475712
0.00371263
0.00496917
-0.00299178
0.00436961
-0.00411483
-0.00385074
0.00131005
-0.000890397
0.00359358
0.00394998
-0.00296104
-0.00283753
-4.09653e-05
0.000263871
0.0026785
0.00289577
-0.00205435
-0.00199073
-0.000746891
0.000860351
0.00189502
0.00203573
-0.00139875
-0.00136093
-0.00110404
0.00116108
0.00130315
0.00139885
-0.000942605
-0.000917384
-0.00128428
0.00131346
0.000881865
0.000948588
-0.000631027
-0.000613727
-0.00137737
0.00139286
0.000591508
0.000637735
-0.000419935
-0.000408193
-0.00142802
0.00143691
0.000394002
0.0004256
-0.000277228
-0.000269258
-0.00145788
0.0014634
0.000260143
0.0002815
-0.000180299
-0.000175253
-0.00147715
0.00148102
0.000169462
0.000183301
-0.000113386
-0.000110253
-0.00149118
0.00149425
0.000106658
0.000115369
-6.54255e-05
-6.34535e-05
-0.00150306
0.00150596
6.14127e-05
6.66068e-05
-2.83861e-05
-2.73307e-05
-0.0015148
0.00151781
2.64379e-05
2.89073e-05
-0.00155999
-0.00251447
-0.00767856
0.00233949
0.00138159
-0.00318815
-0.00289915
0.0062112
0.00301908
-0.00564238
0.00248636
-0.00314767
-0.00311957
0.00395402
-0.00343537
0.00270629
0.00302899
-0.00267214
-0.00268713
0.00208643
-0.00170946
0.00236076
0.00261021
-0.00208157
-0.00206997
0.000781946
-0.000533562
0.00183573
0.00205818
-0.00154217
-0.00149896
-6.24867e-05
0.000219196
0.00133817
0.00153878
-0.00110755
-0.00104756
-0.000591867
0.000689351
0.000939418
0.00111238
-0.000779082
-0.000716458
-0.00092111
0.000981857
0.000644446
0.000786109
-0.000539868
-0.000483861
-0.00112692
0.0011652
0.000435976
0.000546506
-0.000369381
-0.000323436
-0.00125756
0.0012822
0.00029176
0.00037474
-0.000249318
-0.000214151
-0.00134213
0.00135824
0.000193345
0.000253326
-0.000164996
-0.000139923
-0.0013979
0.00140874
0.000126418
0.000167821
-0.000105156
-8.81693e-05
-0.00143591
0.00144352
7.96622e-05
0.000107023
-6.12541e-05
-5.08766e-05
-0.00146311
0.00146869
4.59619e-05
6.23752e-05
-2.67371e-05
-2.19822e-05
-0.00148379
0.00148833
1.99226e-05
2.72285e-05
-0.00164384
-0.000806856
-0.00650096
0.000609276
0.00158172
-0.00204796
-0.00136812
0.00553309
-0.0051531
0.00102057
0.00199212
-0.0021102
-0.00151515
0.00395245
-0.00355509
0.00113302
0.00207175
-0.00191001
-0.00135751
0.00244098
-0.00210527
0.00102026
0.00189128
-0.00158394
-0.00107849
0.00122332
-0.000971378
0.000814121
0.0015799
-0.00123797
-0.000798231
0.000333326
-0.000156529
0.000604518
0.00124206
-0.000928621
-0.000566171
-0.000282195
0.000401746
0.000429735
0.000935849
-0.00067626
-0.000391079
-0.000695283
0.000774608
0.000297287
0.000683789
-0.000481612
-0.000265588
-0.000968512
0.00102076
0.000202072
0.000488153
-0.000336706
-0.000178155
-0.00114846
0.00118291
0.000135612
0.000341861
-0.000231132
-0.000118257
-0.00126726
0.00129009
9.00416e-05
0.000234951
-0.000154967
-7.73213e-05
-0.00134627
0.00136161
5.88357e-05
0.000157663
-9.97334e-05
-4.86559e-05
-0.00139971
0.00141024
3.6987e-05
0.00010153
-5.84944e-05
-2.79511e-05
-0.00143683
0.00144428
2.11994e-05
5.95695e-05
-2.56253e-05
-1.20816e-05
-0.00146364
0.00146921
9.09176e-06
2.61009e-05
-0.00258987
-0.000707343
-0.00807612
0.000691645
0.00226501
0.00655157
-0.00378116
-0.00209424
-0.00596632
0.0019557
0.00333114
-0.00383178
-0.00249851
0.00423725
-0.00370392
0.00234539
0.00344865
-0.00325879
-0.00230755
0.00230745
-0.00191481
0.00218052
0.00299099
-0.00251669
-0.00187602
0.000944809
-0.00068417
0.00178441
0.00234605
-0.00183738
-0.00142044
5.68502e-05
0.000108594
0.00135845
0.00173273
-0.00129673
-0.00103174
-0.00050359
0.000607407
0.000990713
0.00123305
-0.000895706
-0.000730313
-0.000855687
0.000921218
0.000703186
0.000856657
-0.000609804
-0.000508311
-0.00107881
0.00112076
0.000490347
0.000585548
-0.000410439
-0.000349296
-0.00122276
0.0012502
0.000337392
0.000395187
-0.000273035
-0.00023704
-0.00131737
0.00133553
0.000229179
0.000263386
-0.000178476
-0.000157977
-0.0013804
0.00139268
0.000152819
0.000172374
-0.000112603
-0.000101252
-0.00142339
0.00143189
9.79729e-05
0.000108841
-6.51097e-05
-5.9161e-05
-0.00145342
0.00145949
5.72737e-05
6.29615e-05
-2.8282e-05
-2.58066e-05
-0.00147509
0.00147951
2.49769e-05
2.73577e-05
-0.000605862
-0.00178014
-0.00664158
0.00159746
0.000557209
-0.00240349
-0.00146416
0.00567635
0.00218404
-0.00529122
0.00129001
-0.00251859
-0.00178011
0.00407686
-0.00367701
0.00157122
0.00231769
-0.00226236
-0.00168973
0.00256127
-0.00222615
0.00150013
0.00210763
-0.0018464
-0.001409
0.00134631
-0.00109463
0.00125757
0.00173811
-0.00141722
-0.00108881
0.000454521
-0.000275992
0.000975812
0.00134495
-0.00104438
-0.000802714
-0.000170837
0.000293897
0.000721535
0.000997081
-0.000748223
-0.000573983
-0.00059959
0.0006833
0.00051699
0.000717421
-0.000525171
-0.000402308
-0.000890557
0.000947239
0.000362847
0.000505086
-0.000362531
-0.000277829
-0.00108764
0.00112612
0.000250803
0.000349403
-0.000246181
-0.000189145
-0.00122156
0.00124765
0.000170841
0.000237628
-0.000163603
-0.000126323
-0.00131244
0.00133021
0.000114151
0.000158072
-0.000104551
-8.11323e-05
-0.00137451
0.00138671
7.3353e-05
0.000101077
-6.10084e-05
-4.76089e-05
-0.00141713
0.00142553
4.3087e-05
5.90098e-05
-2.66516e-05
-2.07413e-05
-0.0014466
0.00145234
1.88151e-05
2.57867e-05
-0.00131452
-0.000356531
-0.00589492
0.00027522
0.00120936
-0.00170646
-0.000751824
0.00518074
-0.00489249
0.000568087
0.00158416
-0.00182147
-0.000915572
0.00395017
-0.00362643
0.000690871
0.00170418
-0.0017037
-0.000884759
0.00268127
-0.00238412
0.000668815
0.00160579
-0.00145358
-0.000750238
0.00157081
-0.00132847
0.000568353
0.00137898
-0.00116244
-0.000587384
0.000690446
-0.000506489
0.000445765
0.00110868
-0.000887485
-0.000437128
3.34948e-05
0.000100149
0.000332174
0.000849968
-0.000654888
-0.000314621
-0.000438828
0.000533341
0.000239308
0.000629166
-0.000470882
-0.000221424
-0.000770784
0.00083656
0.000168509
0.000453433
-0.000331466
-0.000153225
-0.00100102
0.0010464
0.000116633
0.000319707
-0.000228643
-0.000104503
-0.00115961
0.00119074
7.95911e-05
0.000220798
-0.000153834
-6.98851e-05
-0.00126816
0.00128941
5.32399e-05
0.000148685
-9.92454e-05
-4.49363e-05
-0.00134234
0.0013569
3.42314e-05
9.59693e-05
-5.82938e-05
-2.63696e-05
-0.00139321
0.0014032
2.00564e-05
5.63937e-05
-2.55622e-05
-1.15033e-05
-0.00142801
0.00143469
8.70909e-06
2.47323e-05
-0.00141669
-9.06471e-05
-0.0067056
0.00012285
0.00118412
-0.00216716
-0.000907779
0.00582172
0.000875682
-0.00546056
0.00183629
-0.00236547
-0.00131586
0.00429681
-0.00390577
0.00125587
0.0020324
-0.00215435
-0.00137469
0.0027944
-0.00245492
0.00131282
0.00187492
-0.00175806
-0.00122973
0.00155089
-0.0012888
0.00117777
0.00154638
-0.00133802
-0.00100603
0.000615063
-0.0004253
0.000966394
0.00118656
-0.000973188
-0.000778375
-5.328e-05
0.00018601
0.000749523
0.000868271
-0.0006866
-0.000579941
-0.000517527
0.000608728
0.000559373
0.000615221
-0.000474356
-0.000421003
-0.000835226
0.000897314
0.000406535
0.000426326
-0.00032252
-0.000299461
-0.00105125
0.00109342
0.000289407
0.000290477
-0.000216022
-0.000208836
-0.00119801
0.00122661
0.000201967
0.000194826
-0.000141844
-0.000142194
-0.00129747
0.00131685
0.000137567
0.00012805
-8.97603e-05
-9.28616e-05
-0.00136487
0.001378
8.98804e-05
8.10782e-05
-5.19947e-05
-5.49597e-05
-0.00141042
0.00141921
5.3245e-05
4.69855e-05
-2.26139e-05
-2.42717e-05
-0.00144056
0.00144617
2.3486e-05
2.04415e-05
-0.00108736
-0.000166592
-0.00587715
0.000165701
0.000932058
-0.00153501
-0.000713271
0.00521959
-0.00494823
0.000642296
0.00132745
-0.00168157
-0.000999728
0.00404931
-0.00373722
0.000894649
0.00146657
-0.00157752
-0.00104837
0.00281723
-0.00252528
0.000938975
0.0013873
-0.00133622
-0.000948145
0.00171856
-0.00147581
0.000851068
0.00118364
-0.00105607
-0.000784192
0.000830433
-0.00064247
0.000705391
0.000940917
-0.000795438
-0.000612054
0.000154466
-1.52106e-05
0.000551472
0.000711841
-0.000578966
-0.00045896
-0.000341021
0.000441328
0.000414066
0.000519794
-0.000410934
-0.000334574
-0.000695387
0.000766351
0.000302091
0.000369774
-0.000285916
-0.000238702
-0.000944899
0.000994476
0.000215646
0.000257692
-0.000195227
-0.000166902
-0.00111881
0.0011532
0.000150844
0.000176172
-0.000130228
-0.000113753
-0.00123905
0.00126264
0.000102836
0.000117602
-8.34235e-05
-7.44448e-05
-0.00132135
0.00133743
6.7341e-05
7.53764e-05
-4.87625e-05
-4.42689e-05
-0.00137726
0.00138807
4.0104e-05
4.40743e-05
-2.1328e-05
-1.9468e-05
-0.0014142
0.00142105
1.76226e-05
1.92794e-05
-0.000876437
-0.000123739
-0.00540694
9.88264e-05
0.000764041
-0.00117494
-0.000392906
0.0048697
-0.00464694
0.000300164
0.00103072
-0.00128954
-0.00053836
0.00389557
-0.00362889
0.000409174
0.00113741
-0.00123848
-0.000565481
0.00282266
-0.00256
0.000429524
0.00109804
-0.00108179
-0.000514624
0.00181558
-0.00158587
0.000391041
0.000963598
-0.000882083
-0.000428309
0.000961401
-0.000775551
0.000325642
0.00078878
-0.000683785
-0.000335987
0.00028409
-0.000141357
0.000255585
0.000613357
-0.000510417
-0.000252942
-0.000229055
0.000334823
0.000192499
0.000458926
-0.00037012
-0.00018484
-0.0006057
0.000682127
0.000140695
0.000333365
-0.00026214
-0.000131987
-0.000876055
0.000930311
0.000100466
0.00023642
-0.000181617
-9.22888e-05
-0.0010674
0.0011055
7.02972e-05
0.000163942
-0.000122569
-6.30114e-05
-0.00120094
0.00122728
4.80252e-05
0.000110711
-7.92285e-05
-4.1312e-05
-0.00129295
0.00131097
3.14512e-05
7.15873e-05
-4.66033e-05
-2.46377e-05
-0.00135561
0.00136774
1.87219e-05
4.21185e-05
-2.04465e-05
-1.07791e-05
-0.00139708
0.00140475
8.1817e-06
1.84834e-05
-0.000608556
9.70304e-05
-0.00597854
-6.9075e-05
0.000446152
-0.000974737
-0.000442128
0.00536696
-0.00510704
0.000435961
0.000719486
-0.00111173
-0.00077954
0.00422694
-0.00391582
0.000752856
0.000825671
-0.00105471
-0.00090645
0.00298507
-0.00268595
0.000872538
0.000787898
-0.000890591
-0.000879407
0.00185142
-0.00159829
0.000846695
0.000668616
-0.000696054
-0.000767979
0.000921797
-0.000724059
0.000740246
0.000524654
-0.000516341
-0.000626275
0.000209875
-6.31136e-05
0.00060438
0.000390347
-0.00036951
-0.00048689
-0.000311781
0.000417099
0.000470271
0.000279957
-0.000257851
-0.000365763
-0.000682926
0.000756842
0.000353511
0.00019567
-0.000176541
-0.000267334
-0.000942077
0.000993276
0.00025849
0.0001341
-0.000118805
-0.000190341
-0.00112099
0.00115613
0.000184061
9.03147e-05
-7.82509e-05
-0.000131706
-0.00124351
0.00126744
0.000127375
5.95165e-05
-4.96091e-05
-8.7125e-05
-0.00132663
0.00134274
8.43504e-05
3.77402e-05
-2.87785e-05
-5.1904e-05
-0.00138228
0.00139287
5.03007e-05
2.19002e-05
-1.25277e-05
-2.30461e-05
-0.00141794
0.0014243
2.22853e-05
9.5321e-06
-0.00050707
6.6054e-06
-0.00543319
6.40406e-06
0.000376283
-0.000736717
-0.000377105
0.00493032
-0.00471718
0.000345257
0.00054892
-0.000829224
-0.000619672
0.00398772
-0.00372582
0.000559865
0.00062023
-0.000798879
-0.000712291
0.00292637
-0.00266374
0.000642012
0.000599808
-0.00069267
-0.000691544
0.00191405
-0.00168124
0.000623323
0.000521864
-0.000557872
-0.000606289
0.00104483
-0.000854518
0.000546841
0.000421493
-0.000426301
-0.000496525
0.000349213
-0.000201947
0.00044818
0.000322782
-0.000313591
-0.000387335
-0.000181252
0.000290882
0.000349887
0.000237828
-0.000224291
-0.000291683
-0.000572076
0.000651547
0.000263576
0.000170312
-0.000156888
-0.000213518
-0.000853395
0.000909885
0.000193007
0.000119225
-0.000107543
-0.000152251
-0.00105235
0.001092
0.000137721
8.1776e-05
-7.19196e-05
-0.000105302
-0.00119135
0.00121866
9.52864e-05
5.47048e-05
-4.61458e-05
-6.99218e-05
-0.0012866
0.00130522
6.32895e-05
3.51088e-05
-2.70057e-05
-4.18421e-05
-0.0013512
0.00136361
3.79194e-05
2.0549e-05
-1.1817e-05
-1.84954e-05
-0.00139314
0.00140067
1.67707e-05
8.9935e-06
-0.000431634
-2.20972e-05
-0.00510603
2.03772e-05
0.000322892
-0.000590415
-0.000219279
0.00466677
-0.0044809
0.000168874
0.000442876
-0.000659346
-0.000344474
0.00384003
-0.00360746
0.000263093
0.000495787
-0.000643904
-0.000392346
0.00288752
-0.00264738
0.000298963
0.000485365
-0.000571011
-0.000380586
0.00195096
-0.00173114
0.000289806
0.000431384
-0.000471563
-0.000334167
0.00112104
-0.000935786
0.000254414
0.000356935
-0.000369291
-0.000274227
0.000437213
-0.000289953
0.000208796
0.000279952
-0.000277819
-0.000214402
-9.76938e-05
0.000209899
0.000163271
0.000210864
-0.000202648
-0.000161617
-0.000500552
0.000583467
0.000123076
0.000153945
-0.000144142
-0.000118445
-0.000795746
0.000855638
9.02355e-05
0.000109579
-0.000100168
-8.46926e-05
-0.00100773
0.00105026
6.45704e-05
7.6179e-05
-6.77303e-05
-5.86475e-05
-0.00115732
0.00118694
4.47029e-05
5.15217e-05
-4.3834e-05
-3.89396e-05
-0.00126082
0.00128111
2.96272e-05
3.33526e-05
-2.58043e-05
-2.34508e-05
-0.00133128
0.0013448
1.78644e-05
1.96359e-05
-1.13313e-05
-1.03951e-05
-0.00137694
0.00138517
7.93774e-06
8.62198e-06
0.0011045
0.000562761
-0.00050616
-0.00315186
0.00668855
-0.00798879
0.00571455
-0.00674169
0.009737
-0.000448057
-0.00303914
0.00104826
-0.00778304
0.00461049
-0.00532393
0.00921186
0.0059637
0.000972332
0.0028553
-0.00108314
-0.00912681
-0.000812368
-0.000783985
-0.000793575
-0.000798125
-0.00705105
0.00233408
0.00405836
-0.00463435
-0.00250706
0.00779665
0.00683094
0.00595569
-0.00673057
-0.00653356
0.00638124
-0.00323453
0.00576594
-0.0062623
0.00418676
-0.000648514
-0.0111744
0.00246987
0.00565617
-0.00767375
0.00900962
0.00489706
0.00285837
0.00192144
-0.00214353
-0.00849822
0.00354831
-0.00662042
0.00315554
-0.00366414
0.00731901
-8.54592e-05
0.000142411
-8.04961e-05
2.35528e-05
-7.80139e-05
-1.73356e-05
7.62052e-05
1.91509e-05
-0.0054182
0.00613838
-0.00654738
-0.00357918
0.00489763
-0.00528154
0.00445952
0.00588234
0.0025902
0.00425427
-0.00483596
-0.00276243
-0.00629998
-0.00418278
0.00293623
0.00435132
-0.00485243
-0.00310719
0.00485339
0.00859097
0.00511326
0.00401472
-0.00172275
-0.00816037
0.00263088
-0.00647565
0.00267272
-0.00307584
0.0071016
0.00331519
-0.00292564
-0.00855439
0.000927425
0.00360294
-0.00676629
-0.00407616
0.00742452
0.00214527
0.00194843
0.000783244
-0.00216972
-0.000842028
-0.00720645
0.00254783
-0.00601166
0.00156664
-0.00280644
-0.00175891
0.00645633
-0.000727931
-0.0085565
0.00248241
0.00185206
-0.00682036
-0.00195213
0.00745299
0.00352363
0.00018698
0.00150906
-0.00179969
-0.000144936
-0.00728252
0.000927755
-0.00618948
0.00221053
-0.00260376
-0.000944756
0.00659926
-1.42e-05
-7.87991e-05
1.4992e-05
0.000123651
-0.000125546
-7.08433e-05
5.8688e-05
-0.00287326
0.00141063
0.000965831
0.00300201
-0.00101506
-0.000208031
6.30059e-05
-6.3972e-05
0.000208985
0.00798376
0.00244912
0.00248149
-0.00801381
0.0063801
-0.00156389
-0.0015759
0.00511576
0.00297063
8.94294e-05
-9.1005e-05
-0.000339602
0.000133063
8.41745e-05
-8.53517e-05
-4.59137e-05
-3.83411e-05
0.000120187
-6.70422e-05
5.33177e-05
-0.000125118
4.75534e-05
-5.09955e-05
0.000128555
-0.00270199
0.000803903
0.00287497
-0.000897011
0.00133004
0.000848851
0.00035229
-0.000920679
-0.000318262
-0.00270684
-0.000204215
6.20572e-05
0.000205153
-0.0024449
0.00107742
0.000614395
-0.000657386
-0.00116954
0.00257977
1.80491e-05
-3.8787e-05
-0.000159059
5.46729e-05
0.0070385
0.00235713
0.00239924
0.00238373
0.00233491
-0.00791471
0.00564255
-0.00122832
-0.00131047
-0.00129638
-0.00122218
0.00409484
0.00279919
0.00265927
0.00273805
-0.00415104
0.00870076
0.00526402
-0.00754694
0.00368988
8.85992e-05
-0.000331555
0.000128089
0.00614879
0.00226922
0.00224264
0.00228752
0.00224537
-0.00776482
0.00491626
-0.000996866
-0.000922809
-0.00101062
-0.000936931
0.00324422
0.00251368
0.00250344
0.00257893
-0.000176374
5.00994e-05
-0.000100362
0.000280536
8.85457e-05
4.47078e-05
-0.000213531
2.76976e-05
6.51252e-05
-6.91179e-05
-0.000189612
0.000101439
-0.000199
0.000101239
0.000122945
7.24905e-05
0.000298688
0.00080095
-0.000278238
-0.00259605
-0.00978803
-0.000917026
-0.000906185
-0.000865838
-0.000938597
0.00321656
-0.00381643
-0.00168422
-0.00850637
0.00152236
0.00335725
-0.000209233
2.02684e-05
-0.00916034
-0.000530204
-0.000582201
-0.000527623
-0.00058207
0.00193771
0.00247046
0.00248952
0.00243087
0.00253139
-0.00109055
-0.00105454
-0.00107268
-0.00896397
-0.00108321
-0.00113361
-0.00112672
-0.00111279
0.00382135
-0.000262633
6.80335e-05
7.878e-05
-0.00323083
0.00821031
-0.00729789
0.00294319
-0.00530867
0.00815553
-0.00733702
0.00458757
-0.00429853
-0.0021576
0.0019834
0.00375966
0.0021091
0.00218639
0.00216572
0.0021322
-0.00756321
-0.000705517
-0.000733475
-0.000737858
-0.000705976
0.00254412
-0.0012249
-0.0012476
-0.00125643
-0.00123557
0.00426482
-7.04295e-05
-3.94626e-05
6.97406e-05
4.01635e-05
-3.62412e-05
-7.04523e-05
3.62692e-05
0.00211001
0.00232429
0.000481327
0.000485539
0.000486412
0.000476833
0.000295962
0.00011388
-0.000117196
-0.000306218
-0.000882834
-0.000871386
0.000337759
0.000158412
-0.000349461
0.000868054
-0.000143362
-0.00339459
0.00169407
-0.00024596
-0.000354492
-0.000361281
-0.000237717
0.00115739
0.000899593
0.000874135
0.000880997
0.000887161
0.000358827
0.000205441
-0.000370826
-0.000192279
-0.000872585
0.00185396
0.00203774
0.00072549
0.000697591
0.000713681
0.000715561
-0.00290578
0.00182664
-0.000476269
-0.000476694
-0.000492788
-0.000463851
0.00186171
-0.000106595
0.000104827
-4.37962e-05
6.20859e-06
-0.00191871
0.00113627
0.00178258
0.000544613
0.000544505
0.000527186
0.000558695
-0.00202977
0.00133767
0.000518996
0.000508506
0.000520596
0.000507069
-0.000107416
-4.74512e-05
1.21441e-05
0.00217063
0.00181931
0.000491155
0.000493112
0.000495259
0.000493107
0.00157073
0.000508891
0.000502033
0.00050423
0.00050316
-0.000317365
0.00077836
0.000155931
-0.000153604
-0.000772758
0.000309443
-5.56422e-05
-0.000171531
5.45554e-05
0.000172609
-0.00137149
-0.0027432
0.00122374
-0.000154697
-0.000206708
-0.000227581
-0.000145427
0.000705927
0.000743639
0.000716583
0.000727994
0.000730491
-0.00148543
-0.0029004
-0.000168223
-0.00025984
-0.000176608
-0.000251554
0.000820497
0.000766918
0.000758076
0.000769172
0.00075476
0.000734932
0.000282494
0.000140395
-0.000291837
-0.000131514
-0.000734389
-0.000796401
0.000299506
0.000130853
-0.000120603
-0.000309695
0.000796378
0.000107754
-0.000112917
-0.00086469
0.000287221
-0.000847832
0.000145159
0.000329008
0.000847523
-0.000136082
0.000261095
9.50798e-05
-0.000817652
-0.000269605
-0.000103104
0.000167699
-0.000161052
-0.000328281
-0.000792139
-0.000174959
-5.65581e-05
0.000175865
0.0015916
-0.00321841
-0.000213075
-0.000323792
-0.000220642
-0.000317613
0.00103874
0.000839472
0.000836042
0.000850499
0.000829424
0.000191526
0.000349051
-0.00018252
-0.000847094
-0.00304116
-0.000196686
-0.000284666
-0.000189333
-0.000290675
0.000919422
0.000806782
0.000789301
0.000798023
0.000793648
0.000119279
-0.00011491
0.0007809
0.000292646
0.00022703
7.42856e-05
-6.67134e-05
-0.000241922
-0.000769923
8.92573e-05
-0.000803547
-9.93216e-05
0.000255245
0.000259819
0.000106722
-0.000275859
-9.51619e-05
0.000739518
-0.00119775
0.00255655
0.00155357
-0.00164099
-7.99263e-05
7.83507e-05
-0.000267889
9.78722e-05
-0.00168959
0.00102498
0.00157011
0.000621283
0.000612564
0.000617285
0.000621536
-0.00150123
-0.00246105
0.00134703
-0.000267335
-0.000251756
-0.000279497
-0.000253161
-0.00178882
0.000633922
0.000633866
0.000619332
0.000638823
-0.00160216
-0.000299427
-0.00033166
-0.000313192
-0.000310407
0.00142512
-0.00177406
-0.00140504
0.00266588
-8.15134e-05
-0.000275476
0.000102038
0.00160326
0.00191783
0.000684455
0.000685746
0.000694676
0.000669733
-0.00277699
0.00173779
-0.000400561
-0.000433699
-0.000413049
-0.000417447
0.000665956
0.000645504
0.000660054
0.000657458
-0.000362656
-0.00036685
-0.000381454
-0.000352259
0.000219675
8.09013e-05
-0.000316894
-6.4616e-05
8.08707e-05
0.00269244
-0.00247021
0.000723328
-0.000425217
-0.000372638
-0.000403827
-0.000417757
0.00285487
0.000678684
-0.00040124
-0.000373864
-0.000400028
-0.000381458
7.19802e-05
0.000204607
-0.000112507
5.56066e-05
-0.00302999
0.000470384
-0.000307853
-0.000265431
-0.000301777
-0.000281291
0.000574614
-0.000346873
-0.000327683
-0.000360462
-0.000312814
0.00158507
0.000916724
0.000594176
0.000569108
0.000596356
0.000590272
-0.00233431
0.000722614
-0.000401297
-0.000384492
-0.000411407
-0.000390745
0.000754161
-0.00108163
-0.000587222
-0.00252279
0.00257814
0.00021655
-0.000314921
0.000123214
5.59437e-05
0.00268092
0.00119074
-0.00253003
-0.000175208
-0.000183603
-0.000159381
-0.000182546
0.00260934
0.000664937
-0.00239412
-0.000327523
-0.000307767
-0.000340379
-0.000314377
0.00070513
-0.000156664
-0.000134002
-0.000146546
-0.000155928
0.000687288
0.000703568
0.000691313
-0.000279368
-0.00028291
-0.000277454
0.00274962
-0.000292735
-0.000294118
-0.000299259
-0.000289099
-0.00236257
0.00268154
-0.000458689
0.00037418
-0.000233394
-0.000232637
-0.000237249
-0.000232459
0.000202801
4.76108e-05
3.81153e-05
6.58418e-05
-5.38862e-05
0.000210853
-0.000732996
0.000356596
-0.00290063
-0.00020838
-0.000204471
-0.000203556
-0.000211624
0.000279864
-0.000211403
-0.000207803
-0.000209736
-0.00021059
9.99464e-05
0.000243482
-9.36751e-05
0.000715296
-0.000235884
-0.000249721
-0.000238689
-0.000249082
-0.00134593
-0.000757291
0.00228126
0.000858001
0.00142062
0.000592908
0.000596681
0.000608948
0.000595608
-0.00236436
0.00128943
-0.000202965
-0.000216888
-0.000216561
-0.00020602
-0.0022933
0.000734078
-0.000340048
-0.000333056
-0.000345207
-0.000341275
-0.000609548
0.000654986
-0.000615095
0.000643409
1.26746e-05
1.27529e-05
5.43303e-06
1.77316e-05
-5.01063e-05
-6.92898e-05
6.87497e-05
5.06623e-05
-0.000663449
0.000658454
-0.000598419
0.000629983
2.69278e-05
3.01814e-05
4.24786e-06
6.74015e-05
-0.000527509
-0.00064914
9.95751e-06
-4.37446e-06
-4.02295e-06
4.66007e-06
0.000612932
0.000655782
3.15446e-05
7.33682e-05
7.46589e-05
3.78401e-05
-0.000215757
0.000136137
-0.000139148
0.000200031
-5.82621e-06
-0.000147284
-0.000220107
0.000144737
0.000205018
-4.66783e-06
-0.000667461
-0.000482866
0.000645013
0.000573537
2.61306e-06
7.5536e-06
3.70229e-06
8.40402e-06
-2.52519e-05
7.32565e-05
-7.39008e-05
2.59008e-05
0.000466397
0.000723273
-0.000753808
-0.000365845
1.0825e-05
1.16778e-05
9.89867e-06
1.12861e-05
-0.000693963
0.000564927
4.97028e-06
8.6677e-06
3.20011e-06
8.37356e-06
-0.000385021
0.000700686
8.13728e-06
7.61354e-06
8.44008e-06
8.71507e-06
-0.000204112
-0.000129994
0.000190328
-4.4698e-06
0.000135234
0.000131887
-0.000189067
-0.000150023
3.57649e-05
0.000188802
-0.000224713
0.000157575
0.000208966
-2.78996e-06
-0.000220441
-0.00015088
0.000203948
-4.1487e-06
0.000720363
-0.000431255
0.000546575
7.55911e-06
1.07759e-05
5.86575e-06
1.02743e-05
-5.58878e-06
-8.33586e-05
8.14393e-05
7.51535e-06
0.000449321
-0.000779973
-0.000345429
1.3093e-05
1.58377e-05
1.38457e-05
1.65177e-05
0.000556158
4.99506e-06
9.45262e-06
6.27256e-06
1.02932e-05
-0.000324238
1.59708e-05
2.03868e-05
1.95981e-05
1.52355e-05
0.000355063
0.0005584
0.000660529
-0.00013465
0.000131015
-7.96812e-05
7.78848e-05
-0.000733577
-0.000371108
0.000712245
0.000118344
7.27511e-05
7.45325e-05
0.000114272
-0.000565622
-0.000518091
0.00062299
0.000545346
8.36203e-05
0.000116504
0.000118936
8.18025e-05
0.000123873
8.02125e-05
7.78821e-05
0.000128648
0.000668559
7.7284e-05
0.000119079
0.000116992
7.89471e-05
0.000638589
-0.000217055
3.37661e-05
0.000197589
-1.36014e-05
7.31694e-05
6.95982e-05
-0.000210805
3.38792e-05
-7.10015e-05
0.000191973
-1.36473e-05
-0.0010675
0.000435552
0.00094991
-3.61729e-05
-2.17527e-05
-3.73766e-05
-2.14648e-05
-0.000222044
-6.6897e-05
6.59556e-05
0.000222973
-0.000516842
0.0010329
-0.000968902
0.000496768
-7.35207e-05
-0.000126313
-0.000127459
-7.11556e-05
-0.00100091
-7.41997e-05
-0.000133023
-0.000131864
-7.66119e-05
0.000420704
0.000921759
-3.59343e-05
-2.03247e-05
-3.46228e-05
-2.07133e-05
-0.000616069
0.000876912
0.000518804
-9.42809e-05
9.35477e-05
-0.000366196
0.000144793
-0.00050812
0.000578373
0.00048974
0.000201552
0.000178525
0.000181547
0.000198978
-0.000540217
-0.000852599
0.000517514
-0.000142948
-0.00014194
-0.000144664
-0.000140857
0.000204027
0.000186003
0.000182069
0.000207328
-0.000149458
-0.000152941
-0.000150288
-0.000151497
0.000496207
0.000501718
0.000278257
0.000513763
-0.000527166
-9.0584e-05
8.87069e-05
-3.13253e-05
-1.6819e-05
-0.000571379
-0.000547763
0.00053354
5.18988e-05
3.9956e-05
3.3425e-05
5.43832e-05
-0.000466827
-0.000253727
0.000313821
0.00045992
0.000121752
0.000123034
0.00011887
0.000127601
-0.000589427
5.53732e-05
3.42964e-05
3.18172e-05
5.80857e-05
0.00034746
-0.000468292
0.000112398
0.000119194
0.000115066
0.000112633
0.000492407
0.000403612
-0.000614188
0.000439062
0.000592481
0.000113649
-0.000115405
-5.87789e-05
3.54043e-05
0.000681184
-0.000389364
0.000103814
6.61146e-05
6.45828e-05
0.000107416
-0.000475247
0.000529479
0.000575103
8.6708e-05
0.000117957
8.77354e-05
0.000116662
0.000660429
9.87125e-05
5.92836e-05
6.13556e-05
9.46945e-05
0.00053388
0.000510495
9.25697e-05
0.000115889
0.000118616
9.01342e-05
-0.000849156
0.000322591
-0.000336787
0.000783087
-2.27376e-05
-1.38487e-05
-2.57655e-05
-1.1926e-05
-0.000158649
-5.10348e-05
5.05253e-05
0.000159152
-0.000375103
0.000834395
-0.000735321
0.000311502
-4.74087e-05
-7.05298e-05
-8.0682e-05
-4.35657e-05
-0.00077998
-0.000395097
-4.81758e-05
-8.98287e-05
-8.66817e-05
-5.2096e-05
0.000294779
0.000767485
-1.90957e-05
-8.62396e-06
-1.38407e-05
-8.98564e-06
-0.000203385
6.52132e-05
3.25248e-05
-1.37112e-05
-6.66365e-05
0.000185992
-0.000209052
3.23311e-05
6.88552e-05
0.00019109
-1.36306e-05
-0.000409149
-0.000966525
0.000394025
0.000870037
-3.27502e-05
-1.83323e-05
-3.16138e-05
-1.86364e-05
-0.000191097
5.93049e-05
-6.02373e-05
0.000192019
0.000998244
0.000485159
-0.000932663
-6.74192e-05
-0.00012095
-6.98285e-05
-0.000119602
0.000895469
-3.2947e-05
-1.96958e-05
-3.42123e-05
-1.93223e-05
-0.000903227
0.000465895
-6.68034e-05
-0.000114606
-0.00011558
-6.4671e-05
-0.000191037
-5.68442e-05
2.88748e-05
-1.37923e-05
0.000176453
5.63433e-05
4.63741e-05
-0.000181285
2.63651e-05
-5.39369e-05
-1.48085e-05
0.000177287
-0.00032718
0.00069484
0.000391731
-0.00040552
-6.15412e-05
5.52928e-05
-0.000237182
8.47562e-05
-0.000412983
0.000290089
0.000407317
0.00016505
0.000157141
0.000154676
0.000165022
-0.000376678
-0.000676191
0.000345885
-7.39198e-05
-6.38674e-05
-7.35229e-05
-6.88644e-05
-0.000414445
0.000167259
0.000153836
0.000150855
0.000167024
-0.000405868
-8.10624e-05
-8.84238e-05
-8.15875e-05
-8.44029e-05
0.000373916
-0.000485992
-0.000498153
0.000801364
0.000466602
8.48041e-05
-8.63487e-05
-0.000306793
0.000117165
0.000532613
0.000477557
0.000193178
0.000177322
0.000195805
0.000174122
-0.000824369
0.000505798
-0.000130007
-0.000135528
-0.000132291
-0.000132565
0.000460642
0.000190867
0.00017014
0.000173592
0.000187779
0.000485601
-0.000124002
-0.000125243
-0.000127464
-0.000122488
-0.000506553
-0.000693568
0.0002817
0.000705214
0.000715391
0.000481123
-0.000670686
8.71371e-05
6.80692e-05
0.000118429
6.09081e-05
0.000161804
0.000282131
-0.000319756
-0.000238729
0.00011458
-0.000249328
0.000695999
-0.000642689
0.000219847
-0.000112665
-8.40987e-05
-0.000105098
-9.44427e-05
0.000688179
9.05786e-05
0.000107802
0.000112039
8.44707e-05
-0.000660925
0.000281654
0.000741902
-0.000115493
-0.000118443
-0.000107761
-0.000121777
0.000793597
0.000210712
-0.000781192
-8.93546e-05
-9.35323e-05
-9.13522e-05
-9.47506e-05
5.70512e-05
-0.000230125
0.000237238
-0.000103472
3.93171e-05
-0.000192773
-0.000860314
0.000162094
-6.1219e-05
-4.65947e-05
-5.49892e-05
-5.35519e-05
-0.000172195
0.000116035
7.36953e-05
0.000168251
-8.48999e-05
-9.1041e-05
-9.09718e-05
0.000181384
-0.000858431
-6.84232e-05
-5.90414e-05
-5.79802e-05
-6.82968e-05
-0.00045092
0.000629521
0.000219671
-0.000614902
0.000457897
5.59793e-05
5.83974e-05
5.81445e-05
5.62829e-05
-0.000233854
0.000421471
0.000262214
0.000147236
0.000142637
0.000141281
0.000148092
-0.000215176
-0.000620151
0.000212926
-0.000106654
-9.14107e-05
-0.000106257
-0.00010033
0.00022059
-0.000313447
-0.000199854
-0.00067112
0.000681663
0.00023054
-0.000152241
1.5651e-05
6.78393e-05
0.00072755
0.000317489
-0.000688095
-5.30919e-05
-6.59373e-05
-5.24608e-05
-5.75899e-05
0.000634528
0.000209542
-0.000625082
-8.29658e-05
-6.86491e-05
-7.66427e-05
-7.85661e-05
0.000693325
-4.12332e-05
-2.91315e-05
-2.92371e-05
-4.41428e-05
0.000715026
-8.13798e-05
-8.91954e-05
-8.13676e-05
-8.70621e-05
-0.000641087
0.000729032
-0.000134436
-0.000724383
0.000104915
-4.375e-05
-4.65099e-05
-4.49312e-05
-4.82968e-05
-0.000226603
0.000232318
2.62991e-05
2.50421e-05
0.000124864
-0.000833918
-3.86516e-05
-3.53789e-05
-3.43486e-05
-4.02034e-05
7.48849e-05
-4.24786e-05
-4.69447e-05
-0.000163151
2.36584e-05
4.73337e-05
-2.28121e-05
0.000161347
-0.000833199
-4.05214e-05
-4.24639e-05
-4.24521e-05
-3.99391e-05
-0.00036124
-0.000221007
0.000632051
0.000249628
0.000375742
0.000158793
0.000163019
0.000160975
0.000158006
-0.000654598
0.000338959
-5.95121e-05
-6.23571e-05
-6.27457e-05
-5.89298e-05
-0.000625742
0.00021745
-8.86404e-05
-7.64279e-05
-8.68024e-05
-8.49864e-05
-0.000608217
-0.000563425
0.000617226
7.38225e-07
8.21541e-06
3.02803e-06
7.63126e-06
-4.56273e-05
-6.93798e-05
4.57321e-05
0.000535218
0.000652555
-0.000664144