/*--------------------------------*- C++ -*----------------------------------*\
| =========                 |                                                 |
| \\      /  F ield         | OpenFOAM: The Open Source CFD Toolbox           |
|  \\    /   O peration     | Version:  2012                                  |
|   \\  /    A nd           | Website:  www.openfoam.com                      |
|    \\/     M anipulation  |                                                 |
\*---------------------------------------------------------------------------*/
FoamFile
{
    version     2.0;
    format      ascii;
    class       pointVectorField;
    location    "0.108/fluid";
    object      pointMotionU;
}
// * * * * * * * * * * * * * * * * * * * * * * * * * * * * * * * * * * * * * //

dimensions      [0 1 -1 0 0 0 0];


internalField   nonuniform List<vector> 
19727
(
(0.0186027 -0.00877022 -0.00270288)
(0.015983 -0.0209562 -0.0022151)
(0.0147425 -0.0220924 -0.00194109)
(0.0132044 -0.0206172 -0.00153927)
(0.0118056 -0.0175511 -0.00117026)
(0.0106093 -0.0141949 -0.000885081)
(0.00958771 -0.011362 -0.000678175)
(0.00861269 -0.00902711 -0.000517572)
(0.00767027 -0.0071523 -0.000393602)
(0.00675593 -0.00560968 -0.00029918)
(0.00579546 -0.00423782 -0.000221305)
(0.00480302 -0.00307811 -0.000162061)
(0.00382475 -0.00228051 -0.000117848)
(0.00280608 -0.00165488 -8.17824e-05)
(0.00160658 -0.00101427 -4.56873e-05)
(0 0 0)
(0.0169985 -0.0125517 -0.00196211)
(0.0160266 -0.0179344 -0.00198233)
(0.014987 -0.0190094 -0.0018279)
(0.0138405 -0.0172799 -0.00154369)
(0.0126929 -0.0146849 -0.00123643)
(0.0116802 -0.0120456 -0.000982125)
(0.0107393 -0.00982166 -0.000780748)
(0.00976301 -0.0078673 -0.000609168)
(0.00879427 -0.00629101 -0.000472621)
(0.00774437 -0.00498065 -0.00035684)
(0.00661711 -0.00380432 -0.000258869)
(0.00550566 -0.00288544 -0.000188878)
(0.00441142 -0.00216672 -0.000137607)
(0.00322578 -0.00160991 -9.32805e-05)
(0.00191768 -0.00112654 -5.53659e-05)
(0 0 0)
(0.0157608 -0.00987498 -0.00150496)
(0.0152243 -0.0123438 -0.00155634)
(0.0145561 -0.0126051 -0.00148888)
(0.0137873 -0.0112723 -0.00133874)
(0.0129427 -0.00939851 -0.00114532)
(0.012051 -0.00762104 -0.000946532)
(0.0111295 -0.006129 -0.000764534)
(0.0101771 -0.00486442 -0.000606082)
(0.00917992 -0.00383671 -0.000472173)
(0.00813337 -0.00309692 -0.000362198)
(0.00704764 -0.00257075 -0.000272884)
(0.0059505 -0.00210166 -0.000204146)
(0.00482311 -0.00168322 -0.000151087)
(0.00355999 -0.0012498 -0.000103986)
(0.00204542 -0.000757914 -5.70172e-05)
(0 0 0)
(0.0153301 0 -0.00131798)
(0.0149099 0 -0.00137726)
(0.0143619 0 -0.00134125)
(0.0137079 0 -0.00123698)
(0.0129498 0 -0.00108495)
(0.0121043 0 -0.000913774)
(0.0112104 0 -0.000749186)
(0.010274 0 -0.000600936)
(0.00928438 0 -0.000471981)
(0.00826536 0 -0.000366779)
(0.00721679 0 -0.000280469)
(0.00614424 0 -0.000212115)
(0.00494519 0 -0.000153725)
(0.00360858 0 -0.000102621)
(0.002124 0 -5.97901e-05)
(0 0 0)
(0.0171699 -0.00467289 -0.00253905)
(0.0159734 -0.0121861 -0.00217463)
(0.0147097 -0.0138814 -0.00181197)
(0.0133958 -0.013582 -0.00147284)
(0.0121451 -0.0121499 -0.00117095)
(0.0109464 -0.0103105 -0.000911159)
(0.00983507 -0.00856237 -0.000709238)
(0.00878684 -0.00694642 -0.000549829)
(0.00777124 -0.00550797 -0.000419788)
(0.00669661 -0.00419586 -0.000305808)
(0.00570793 -0.0032621 -0.000225126)
(0.00476195 -0.00252246 -0.000168824)
(0.00379432 -0.0019173 -0.000123949)
(0.00278517 -0.00142379 -8.64807e-05)
(0.00161723 -0.000943281 -5.01132e-05)
(0 0 0)
(0.0166971 -0.00710379 -0.00211679)
(0.0159546 -0.0109953 -0.00198613)
(0.0150095 -0.0119871 -0.00175309)
(0.014035 -0.0114016 -0.00150877)
(0.0129818 -0.0101042 -0.00124519)
(0.0119609 -0.00862972 -0.00101301)
(0.0109431 -0.00715922 -0.000810948)
(0.00989569 -0.00583595 -0.000637079)
(0.00882967 -0.00473654 -0.000491262)
(0.00775413 -0.00386965 -0.000374188)
(0.00654137 -0.0029275 -0.000266603)
(0.00546441 -0.00235649 -0.000199159)
(0.00434057 -0.00181222 -0.000143)
(0.00322053 -0.00143904 -0.000101205)
(0.00189073 -0.00097438 -5.93454e-05)
(0 0 0)
(0.0158747 -0.00645713 -0.00161594)
(0.0153629 -0.00811082 -0.00158478)
(0.0147457 -0.00821335 -0.00148644)
(0.014004 -0.007323 -0.00133156)
(0.0131508 -0.00606952 -0.00114272)
(0.0122367 -0.00490566 -0.000953447)
(0.011278 -0.00397675 -0.00077968)
(0.0102761 -0.00327961 -0.000625055)
(0.0092417 -0.00268846 -0.000491775)
(0.00815993 -0.00224635 -0.000380407)
(0.00701465 -0.00193211 -0.000285993)
(0.00590749 -0.00161267 -0.000214877)
(0.00481169 -0.00133612 -0.000160672)
(0.00353981 -0.00107667 -0.000109875)
(0.00204347 -0.000710064 -6.20099e-05)
(0 0 0)
(0.0155346 0 -0.00140819)
(0.0151248 0 -0.0014187)
(0.0145865 0 -0.00135518)
(0.0139197 0 -0.00123807)
(0.0131342 0 -0.00108507)
(0.0122626 0 -0.000919933)
(0.0113329 0 -0.000760341)
(0.0103589 0 -0.000614305)
(0.00935752 0 -0.00048772)
(0.00829388 0 -0.000378822)
(0.00716302 0 -0.000285914)
(0.00605477 0 -0.00021454)
(0.00491338 0 -0.000158501)
(0.00363885 0 -0.000110666)
(0.0020472 0 -5.93455e-05)
(0 0 0)
(0.0155113 -0.00417924 -0.00194793)
(0.0148597 -0.0087933 -0.00175493)
(0.0139693 -0.0101311 -0.00151037)
(0.0129486 -0.00987943 -0.00125049)
(0.0118869 -0.00899303 -0.00100454)
(0.0108371 -0.00789996 -0.000787)
(0.00982868 -0.00674979 -0.00061608)
(0.00878231 -0.00553989 -0.000474742)
(0.00776855 -0.00452747 -0.000363871)
(0.00675215 -0.00362997 -0.000272243)
(0.00570654 -0.0028183 -0.000197709)
(0.00471986 -0.00221581 -0.000145603)
(0.00373539 -0.00167388 -0.000104956)
(0.00273436 -0.00127161 -7.40678e-05)
(0.00157607 -0.000829537 -4.2779e-05)
(0 0 0)
(0.0158701 -0.00502987 -0.00177495)
(0.0152996 -0.0079314 -0.00165233)
(0.0145826 -0.00873303 -0.0014684)
(0.013745 -0.00848563 -0.00125584)
(0.0128107 -0.00780951 -0.00104265)
(0.0118773 -0.00694957 -0.000864949)
(0.010905 -0.00600011 -0.000703982)
(0.00987495 -0.00503515 -0.000556549)
(0.00875253 -0.0041038 -0.000417156)
(0.00766699 -0.00330424 -0.000308684)
(0.00654711 -0.00260935 -0.000229667)
(0.00542415 -0.00210905 -0.000172563)
(0.00432411 -0.00166775 -0.000125747)
(0.003185 -0.00129818 -8.63531e-05)
(0.00189792 -0.000928819 -5.2623e-05)
(0 0 0)
(0.0155738 -0.004538 -0.00141003)
(0.0151009 -0.0059178 -0.0013552)
(0.0145447 -0.00607975 -0.00124803)
(0.0138651 -0.00569358 -0.00110945)
(0.0130817 -0.0049215 -0.000951919)
(0.0122099 -0.00416152 -0.00079853)
(0.0112785 -0.00352544 -0.000657139)
(0.0102795 -0.00299694 -0.000526478)
(0.00924699 -0.00255461 -0.000412125)
(0.00820278 -0.00222886 -0.00031893)
(0.00699027 -0.00186583 -0.000235839)
(0.00583473 -0.00156363 -0.000177192)
(0.00471328 -0.00133934 -0.000132821)
(0.00342116 -0.00101702 -9.03111e-05)
(0.00205147 -0.000732031 -5.50916e-05)
(0 0 0)
(0.0154127 0 -0.00124941)
(0.0149985 0 -0.00122587)
(0.0144749 0 -0.00114188)
(0.013845 0 -0.00102736)
(0.013093 0 -0.00089274)
(0.0122449 0 -0.000753563)
(0.0113268 0 -0.000619986)
(0.0103763 0 -0.000504226)
(0.00940471 0 -0.000406379)
(0.0083509 0 -0.000319398)
(0.0071668 0 -0.000239751)
(0.00597688 0 -0.000177796)
(0.00477192 0 -0.000128674)
(0.00350793 0 -9.00304e-05)
(0.00205003 0 -5.24279e-05)
(0 0 0)
(0.0141986 -0.0035282 -0.00128859)
(0.0137469 -0.00631752 -0.00115556)
(0.013081 -0.00726296 -0.00098029)
(0.0122664 -0.00729751 -0.000797137)
(0.011415 -0.00687619 -0.000640921)
(0.0105319 -0.00624727 -0.000508336)
(0.0096044 -0.00547404 -0.000392509)
(0.00861003 -0.00457736 -0.000304475)
(0.00765792 -0.00384064 -0.00024327)
(0.00670125 -0.00317341 -0.000184607)
(0.00570244 -0.0024958 -0.000134498)
(0.00470746 -0.00196193 -9.36707e-05)
(0.00370383 -0.00151238 -6.56397e-05)
(0.00263628 -0.001053 -4.51138e-05)
(0.00153823 -0.000754637 -2.76695e-05)
(0 0 0)
(0.0150933 -0.00376939 -0.00118753)
(0.014635 -0.00587468 -0.00109335)
(0.0140537 -0.0065697 -0.000955439)
(0.0133336 -0.00660649 -0.000811496)
(0.012516 -0.00622921 -0.000679058)
(0.0116692 -0.00569352 -0.00056769)
(0.0107282 -0.00503955 -0.000457451)
(0.00971421 -0.00436029 -0.000361097)
(0.00870365 -0.00372791 -0.000277211)
(0.00763767 -0.00306109 -0.00020203)
(0.00652153 -0.0024014 -0.000148162)
(0.00538285 -0.0018009 -0.000107388)
(0.00434615 -0.00155275 -8.10616e-05)
(0.00316412 -0.00121337 -5.71575e-05)
(0.00181059 -0.000784633 -3.29662e-05)
(0 0 0)
(0.0152111 -0.00330358 -0.000963453)
(0.0147896 -0.00435961 -0.000905105)
(0.0142736 -0.0046854 -0.000819154)
(0.0136412 -0.0046887 -0.000710629)
(0.012913 -0.00430967 -0.000611288)
(0.0121017 -0.0037803 -0.000512975)
(0.0112161 -0.00331437 -0.000423641)
(0.0102699 -0.00291098 -0.000343662)
(0.00926465 -0.00256064 -0.000267985)
(0.00822111 -0.00225137 -0.0002103)
(0.00701475 -0.00187234 -0.000164722)
(0.00577526 -0.00155 -0.000120936)
(0.00461121 -0.00126357 -9.10438e-05)
(0.00337299 -0.000977628 -6.26393e-05)
(0.00201384 -0.000680817 -3.74054e-05)
(0 0 0)
(0.015197 0 -0.000861183)
(0.0148023 0 -0.000830437)
(0.0142899 0 -0.000747189)
(0.0136907 0 -0.000652684)
(0.0129901 0 -0.000566921)
(0.0121851 0 -0.000477959)
(0.011308 0 -0.000394773)
(0.0104007 0 -0.000323828)
(0.00942783 0 -0.000262011)
(0.00837306 0 -0.00021629)
(0.00718301 0 -0.000172711)
(0.00589309 0 -0.000125479)
(0.00474002 0 -9.21216e-05)
(0.00345788 0 -6.13116e-05)
(0.00205315 0 -3.68503e-05)
(0 0 0)
(0.0136485 -0.00318185 0)
(0.0132186 -0.00527286 0)
(0.0126141 -0.00619731 0)
(0.0118912 -0.0063326 0)
(0.0111249 -0.00605851 0)
(0.0103266 -0.00564025 0)
(0.00949637 -0.00507536 0)
(0.00850747 -0.00428587 0)
(0.00759683 -0.00360852 0)
(0.00667263 -0.00302895 0)
(0.00569486 -0.00241813 0)
(0.00470859 -0.00193807 0)
(0.00369486 -0.0014935 0)
(0.0026158 -0.00103169 0)
(0.00149757 -0.000687612 0)
(0 0 0)
(0.0147491 -0.00330797 0)
(0.0143391 -0.00504372 0)
(0.0137999 -0.00580587 0)
(0.0131359 -0.00594532 0)
(0.0123506 -0.00573759 0)
(0.0115488 -0.0053208 0)
(0.0106268 -0.00476616 0)
(0.00963883 -0.0041523 0)
(0.00866983 -0.00361063 0)
(0.0075976 -0.00295188 0)
(0.00656588 -0.00237941 0)
(0.00540415 -0.00176875 0)
(0.00437988 -0.00155711 0)
(0.00320348 -0.00123339 0)
(0.00183112 -0.000795631 0)
(0 0 0)
(0.015048 -0.00280918 0)
(0.0146506 -0.00368989 0)
(0.0141433 -0.0041048 0)
(0.01353 -0.00422445 0)
(0.0128167 -0.00401593 0)
(0.0120225 -0.00361864 0)
(0.0111607 -0.00322487 0)
(0.0102626 -0.00287009 0)
(0.00926828 -0.0025208 0)
(0.00819644 -0.00211135 0)
(0.00707751 -0.00176993 0)
(0.00582972 -0.00148815 0)
(0.00460911 -0.00119018 0)
(0.0034198 -0.000963056 0)
(0.00200544 -0.000656079 0)
(0 0 0)
(0.0150884 0 0)
(0.014711 0 0)
(0.0141987 0 0)
(0.0135894 0 0)
(0.012928 0 0)
(0.0121562 0 0)
(0.0113177 0 0)
(0.0104398 0 0)
(0.00943088 0 0)
(0.0083862 0 0)
(0.00718094 0 0)
(0.00591385 0 0)
(0.0047507 0 0)
(0.00346638 0 0)
(0.00200155 0 0)
(0 0 0)
(0.0155051 -0.0198364 -0.00181413)
(0.0143961 -0.0217195 -0.00163811)
(0.0173938 -0.0188034 -0.00252563)
(0.0181097 -0.00516049 -0.00282603)
(0.0161093 -0.0154177 -0.0022402)
(0.0160157 -0.0040107 -0.00222978)
(0.0150923 -0.0130025 -0.00184892)
(0.0165523 -0.00994671 -0.002345)
(0.0165431 -0.0290845 -0.00193913)
(0.0162254 -0.00291286 -0.00240562)
(0.0149878 -0.0164199 -0.00181105)
(0.0171229 -0.013432 -0.00253273)
(0.0156198 -0.0110272 -0.0020176)
(0.0145339 -0.0164779 -0.00170593)
(0.0170007 -0.0119996 -0.0023813)
(0.0149884 -0.0085285 -0.00185484)
(0.0154977 -0.0265389 -0.00202756)
(0.0187353 -0.0137236 -0.00297694)
(0.0155872 -0.018492 -0.00206426)
(0.0169993 -0.00914362 -0.00252112)
(0.0160291 -0.0141256 -0.00217241)
(0.0137078 -0.0219614 -0.00156927)
(0.0179071 -0.0114776 -0.00234195)
(0.0189853 -0.0124918 -0.00266712)
(0.0198892 -0.00877686 -0.00313594)
(0.0182899 -0.0146867 -0.00271577)
(0.0182832 -0.00630244 -0.00277834)
(0.0153862 -0.0217582 -0.0020944)
(0.016396 -0.0194234 -0.00224457)
(0.0159086 -0.0254046 -0.00222266)
(0.0151728 -0.0215679 -0.0019516)
(0.0164712 -0.0206721 -0.00230569)
(0.0160569 -0.0177022 -0.00223188)
(0.0148369 -0.016801 -0.00189316)
(0.0165353 -0.0157296 -0.0019961)
(0.0169657 -0.009035 -0.00213483)
(0.0161153 -0.0137133 -0.00204507)
(0.0137815 -0.0140394 -0.00153087)
(0.0170923 -0.00597735 -0.00239539)
(0.0163343 -0.00453358 -0.0022624)
(0.0176838 -0.00474898 -0.00271054)
(0.016848 -0.00415993 -0.00245786)
(0.0168778 -0.0076187 -0.00244619)
(0.0153699 -0.0132347 -0.00199621)
(0.0161683 -0.0113878 -0.00217263)
(0.0154671 -0.0103493 -0.00198439)
(0.0160961 -0.0135879 -0.00222698)
(0.0156017 -0.0127603 -0.00204268)
(0.0162467 -0.0113914 -0.00225328)
(0.0163529 -0.00945284 -0.00206693)
(0.0144145 -0.00408632 -0.00170371)
(0.0138657 -0.00876525 -0.00153491)
(0.0152196 -0.00687175 -0.00186039)
(0.0158346 -0.0236261 -0.00178728)
(0.0160438 -0.0110716 -0.00224195)
(0.0150688 -0.0168541 -0.00184538)
(0.0170381 -0.0163598 -0.00246123)
(0.0158598 -0.0141285 -0.00204794)
(0.0142963 -0.0262255 -0.00162703)
(0.0137564 -0.0204739 -0.00152691)
(0.0146304 -0.0185361 -0.00171516)
(0.0175717 -0.0237154 -0.0025551)
(0.0175169 -0.0236766 -0.00246576)
(0.0173054 -0.0156224 -0.00254653)
(0.0191961 -0.0039237 -0.00326655)
(0.0177351 -0.00988211 -0.00272004)
(0.0155843 -0.0161449 -0.00205409)
(0.0165081 -0.0150194 -0.00234457)
(0.0163029 -0.00354472 -0.00234567)
(0.0158156 -0.0080944 -0.00211588)
(0.0151683 -0.0145989 -0.00186047)
(0.0153768 -0.0124378 -0.00193043)
(0.0168359 -0.0115497 -0.00244378)
(0.0161964 -0.0106663 -0.00222597)
(0.0142586 -0.0220078 -0.00165549)
(0.0150972 -0.0261306 -0.00196063)
(0.0171394 -0.0166155 -0.00232099)
(0.0186068 -0.0193342 -0.00273421)
(0.0164944 -0.0252701 -0.00232544)
(0.0138804 -0.0167972 -0.00156616)
(0.0154886 -0.01624 -0.00206633)
(0.0144727 -0.0136496 -0.00169189)
(0.0153443 -0.0183574 -0.00199655)
(0.0156897 -0.0142933 -0.00207587)
(0.0175714 -0.00756729 -0.00247594)
(0.0163949 -0.0143657 -0.00226012)
(0.016564 -0.0118834 -0.00210561)
(0.0166446 -0.00938213 -0.00229077)
(0.0180827 -0.0116887 -0.00275448)
(0.0164986 -0.0174071 -0.00232987)
(0.0172926 -0.00862541 -0.00259262)
(0.0164225 -0.0129928 -0.00231905)
(0.0152737 -0.00436811 -0.00197843)
(0.0145734 -0.0106856 -0.00172607)
(0.015918 -0.00811987 -0.00212274)
(0.0141882 -0.00691885 -0.00162868)
(0.0165225 -0.00787476 -0.00233967)
(0.015892 -0.0121159 -0.0021283)
(0.0138202 -0.0249951 -0.00151467)
(0.0177928 -0.0294242 -0.0025379)
(0.0190773 -0.0179761 -0.00295095)
(0.0154331 -0.0217035 -0.00200268)
(0.0195494 -0.00582398 -0.00322168)
(0.0177152 -0.0038128 -0.00275225)
(0.0139743 -0.0176064 -0.00162648)
(0.0173941 -0.0195377 -0.00249524)
(0.0179917 -0.0108821 -0.0028776)
(0.0159375 -0.0163988 -0.00215107)
(0.015867 -0.00955826 -0.00215516)
(0.0154909 -0.0146602 -0.00194059)
(0.0164841 -0.0130735 -0.0023153)
(0.0162344 -0.0186078 -0.00165239)
(0.0136391 -0.0117457 -0.00102272)
(0.016283 -0.0232369 -0.0014169)
(0.0136255 -0.00841992 -0.00129506)
(0.0135565 -0.0157723 -0.000709395)
(0.0162542 -0.0290052 -0.00119048)
(0.0139036 -0.0235923 -0.00134932)
(0.0196276 -0.0159006 -0.00312304)
(0.0200033 -0.0301094 -0.00298085)
(0.0147283 -0.0238033 -0.00179598)
(0.014344 -0.0172726 -0.0016111)
(0.0138342 -0.0195308 -0.00143076)
(0.0192142 -0.0191915 -0.00295633)
(0.0191292 -0.0119178 -0.00308001)
(0.0196199 -0.0240956 -0.00292569)
(0.0186947 -0.00854316 -0.00313534)
(0.015132 -0.0176866 -0.00196226)
(0.0145812 -0.0196552 -0.001812)
(0.0152566 -0.0136414 -0.00184361)
(0.0146523 -0.00695662 -0.00179011)
(0.0154044 -0.0160128 -0.00183773)
(0.0164529 -0.0137232 -0.00233258)
(0.0174408 -0.00686433 -0.00274189)
(0.0159845 -0.0163432 -0.00211521)
(0.015748 -0.0213099 -0.00185575)
(0.0154365 -0.0177537 -0.0017741)
(0.0159549 -0.0153653 -0.00213073)
(0.0148855 -0.0172912 -0.0018238)
(0.0165528 -0.0182709 -0.00225893)
(0.0159129 -0.016706 -0.00203612)
(0.02083 -0.00988205 -0.00338099)
(0.0166578 -0.0321613 -0.00194256)
(0.0159222 -0.0261662 -0.00172483)
(0.0153619 -0.0253815 -0.00145246)
(0.0126871 -0.0181373 -0.00137895)
(0.0169567 -0.0259885 -0.00223295)
(0.0161334 -0.00703653 -0.00232625)
(0.018106 -0.00278435 -0.00311646)
(0.0163478 -0.00320676 -0.00239757)
(0.0143757 -0.0142803 -0.00125948)
(0.0192332 -0.020629 -0.00296648)
(0.0144872 -0.0256931 -0.00175359)
(0.0159892 -0.0277782 -0.0021147)
(0.0153919 -0.0237914 -0.00197695)
(0.0140104 -0.0179856 -0.00152948)
(0.018523 -0.0145056 -0.00294627)
(0.0189323 -0.0156893 -0.00296481)
(0.0190434 -0.00994981 -0.00308656)
(0.018569 -0.0179228 -0.00283456)
(0.0185788 -0.012296 -0.00299629)
(0.0153558 -0.0198249 -0.00199474)
(0.0145918 -0.01807 -0.00182075)
(0.0159025 -0.019164 -0.00213224)
(0.0157401 -0.0174132 -0.00210472)
(0.0152238 -0.00964296 -0.00192711)
(0.0152396 -0.0145889 -0.00182028)
(0.0174168 -0.0066057 -0.00266605)
(0.0173251 -0.00964228 -0.00267868)
(0.0165814 -0.00962125 -0.002388)
(0.0167073 -0.0118507 -0.00240505)
(0.0160271 -0.0154273 -0.00216587)
(0.0157944 -0.0148669 -0.00207294)
(0.016206 -0.0143246 -0.0022155)
(0.0201818 -0.0107039 -0.00314676)
(0.019389 -0.0134223 -0.0030434)
(0.0198631 -0.00734042 -0.00320635)
(0.0153024 -0.0208602 -0.00158957)
(0.0127491 -0.0155524 -0.00146244)
(0.0167879 -0.0213983 -0.00227603)
(0.0136114 -0.0102319 -0.00145763)
(0.016894 -0.0102681 -0.0027128)
(0.0157156 -0.0101712 -0.002168)
(0.014399 -0.0169995 -0.00172502)
(0.0149059 -0.0166911 -0.00173252)
(0.0154762 -0.0169506 -0.00200121)
(0.0154701 -0.0160842 -0.0019259)
(0.0173833 -0.0179379 -0.00252795)
(0.0177232 -0.0146111 -0.00271316)
(0.0162306 -0.0169458 -0.00222085)
(0.0166158 -0.0149341 -0.00234684)
(0.0155149 -0.0140125 -0.00189908)
(0.0158663 -0.0126698 -0.00209275)
(0.0157054 -0.0150535 -0.00199048)
(0.0162137 -0.0142677 -0.00219652)
(0.0143521 -0.0183294 -0.000988193)
(0.0189388 -0.0186289 -0.00295794)
(0.0203173 -0.00639012 -0.00343624)
(0.013732 -0.0223387 -0.00149776)
(0.0138129 -0.0210753 -0.00141493)
(0.0143727 -0.021019 -0.00173364)
(0.0136696 -0.0185759 -0.00154455)
(0.0176904 -0.0263832 -0.00249332)
(0.0188664 -0.0226168 -0.00281929)
(0.0158119 -0.0226328 -0.00206912)
(0.0174778 -0.0214884 -0.00247805)
(0.0195612 -0.00473512 -0.00331275)
(0.0184405 -0.00364349 -0.00301606)
(0.0185129 -0.00744895 -0.00306812)
(0.0152576 -0.00363198 -0.0020343)
(0.0174182 -0.0034866 -0.00266556)
(0.0160593 -0.00674604 -0.00225047)
(0.0195354 -0.0155357 -0.00304454)
(0.0191705 -0.0114142 -0.00305222)
(0.0162817 -0.0208413 -0.00154128)
(0.0143351 -0.0125133 -0.00138535)
(0.0153267 -0.0190708 -0.00167148)
(0.0152479 -0.0154692 -0.00168948)
(0.014359 -0.0161948 -0.00112429)
(0.0136452 -0.0099901 -0.00116375)
(0.0135988 -0.0136043 -0.000868948)
(0.0163077 -0.026035 -0.00130631)
(0.0153263 -0.023005 -0.0015166)
(0.0133128 -0.00681625 -0.00141454)
(0.0211323 -0.011823 -0.00339477)
(0.0143696 -0.0209863 -0.000858998)
(0.0153884 -0.0281535 -0.00139394)
(0.0138167 -0.0231133 -0.00137518)
(0.0128194 -0.0201875 -0.00137439)
(0.0138639 -0.0214077 -0.00138801)
(0.0191614 -0.0210964 -0.00300281)
(0.0193537 -0.0137798 -0.00308482)
(0.0190036 -0.0253719 -0.00284109)
(0.0171139 -0.0288548 -0.00225617)
(0.0198083 -0.0269229 -0.00293745)
(0.0144305 -0.0230546 -0.00173042)
(0.0158344 -0.0249276 -0.0020575)
(0.0146106 -0.0215624 -0.00178779)
(0.0205742 -0.00809583 -0.00339911)
(0.0201075 -0.0047682 -0.0035004)
(0.0146842 -0.00346982 -0.00183119)
(0.0181712 -0.00338433 -0.00295359)
(0.0139573 -0.0180987 -0.0015036)
(0.0143914 -0.0171452 -0.00162608)
(0.0131796 -0.0152169 -0.00156573)
(0.0150257 -0.0171149 -0.00174811)
(0.0138022 -0.0192199 -0.00145353)
(0.0126308 -0.016602 -0.00140389)
(0.0194182 -0.0215153 -0.00293294)
(0.0183289 -0.0126853 -0.0029755)
(0.0183483 -0.0161461 -0.00283304)
(0.0168356 -0.0197912 -0.00232192)
(0.0174258 -0.0157073 -0.00262009)
(0.0187236 -0.0164451 -0.00294082)
(0.0189105 -0.0101626 -0.00309752)
(0.0187103 -0.0200857 -0.00281832)
(0.0188113 -0.00847867 -0.00310767)
(0.0168503 -0.0235442 -0.00224155)
(0.0177849 -0.0069005 -0.00299206)
(0.0147106 -0.0183421 -0.00186551)
(0.015001 -0.0173683 -0.00191344)
(0.0160658 -0.0180614 -0.0021798)
(0.0156958 -0.0174783 -0.00205596)
(0.014359 -0.0191793 -0.0017559)
(0.0157281 -0.0206845 -0.00206639)
(0.0145042 -0.0098596 -0.00175199)
(0.0154074 -0.012476 -0.00190924)
(0.0155431 -0.0158127 -0.00186811)
(0.0158157 -0.0141834 -0.00208735)
(0.0151836 -0.00681679 -0.00196515)
(0.0160385 -0.00686036 -0.00228522)
(0.0152347 -0.015728 -0.0018048)
(0.0154123 -0.0148163 -0.00185705)
(0.0156375 -0.0165797 -0.00196467)
(0.0164769 -0.00981554 -0.00247086)
(0.0168664 -0.0130849 -0.00247664)
(0.0163785 -0.0126209 -0.00228261)
(0.016285 -0.0160643 -0.00220687)
(0.0178854 -0.00680914 -0.00285271)
(0.0169978 -0.00667069 -0.00253638)
(0.0157795 -0.0160473 -0.00206522)
(0.0162108 -0.0157095 -0.00220899)
(0.0159947 -0.0151461 -0.00212461)
(0.0156094 -0.0185427 -0.00175195)
(0.0157982 -0.0254443 -0.00148208)
(0.0158354 -0.0282446 -0.00140692)
(0.0133887 -0.0214948 -0.00137465)
(0.0178774 -0.0283702 -0.00242036)
(0.0137994 -0.0215933 -0.00160329)
(0.0140488 -0.0168325 -0.00164147)
(0.0132946 -0.0195151 -0.00139445)
(0.017155 -0.0187535 -0.00244153)
(0.0177075 -0.0255694 -0.00240436)
(0.0146736 -0.0174254 -0.00185015)
(0.0136964 -0.0195606 -0.00161185)
(0.0152631 -0.0163831 -0.0018782)
(0.0144142 -0.00494758 -0.00180292)
(0.0154667 -0.0175596 -0.00188077)
(0.0158408 -0.0164094 -0.00211425)
(0.0176437 -0.00503492 -0.00285705)
(0.015769 -0.0177169 -0.00202911)
(0.0156945 -0.0205921 -0.00166337)
(0.0143537 -0.0135977 -0.00151406)
(0.0146379 -0.015809 -0.0014211)
(0.0139433 -0.0152412 -0.000988745)
(0.013945 -0.0132987 -0.00113515)
(0.0157521 -0.022916 -0.00157047)
(0.014697 -0.0200183 -0.00117457)
(0.0146776 -0.0178312 -0.00129883)
(0.0138931 -0.00978373 -0.0013956)
(0.013928 -0.0114968 -0.00127315)
(0.013917 -0.0173566 -0.000838403)
(0.0146973 -0.02242 -0.00105488)
(0.0192188 -0.0174487 -0.00304982)
(0.0184651 -0.0225184 -0.00278301)
(0.0132608 -0.0164709 -0.00148632)
(0.0132486 -0.0178734 -0.00143442)
(0.0173844 -0.0207162 -0.00244301)
(0.0173912 -0.0136763 -0.00274003)
(0.0178511 -0.0158907 -0.00275547)
(0.0189747 -0.0153318 -0.0030167)
(0.0187495 -0.0133882 -0.00301061)
(0.0175405 -0.0230199 -0.00241393)
(0.0182519 -0.0201114 -0.00274862)
(0.0180471 -0.0179152 -0.00274016)
(0.0183765 -0.00987303 -0.00308757)
(0.0185483 -0.0115857 -0.0030327)
(0.0137145 -0.0166554 -0.00169746)
(0.0136542 -0.0179481 -0.00164347)
(0.0139091 -0.0112083 -0.00172997)
(0.014205 -0.00832521 -0.00175926)
(0.0152959 -0.011214 -0.00220622)
(0.0166385 -0.00834688 -0.00258051)
(0.0157338 -0.0203261 -0.00189015)
(0.014991 -0.0178776 -0.00177497)
(0.015881 -0.0192839 -0.00201983)
(0.0144264 -0.0171373 -0.00174448)
(0.0157995 -0.0186298 -0.00203069)
(0.0155435 -0.0175594 -0.00196847)
(0.0166017 -0.0305852 -0.00193727)
(0.0164829 -0.0276544 -0.00194754)
(0.0158351 -0.0274359 -0.00165645)
(0.011411 -0.0152424 -0.00120973)
(0.0166182 -0.0274928 -0.00205368)
(0.0161794 -0.00497816 -0.00236639)
(0.016277 -0.00301395 -0.00240833)
(0.01579 -0.0224347 -0.00182161)
(0.0163605 -0.0249889 -0.00198078)
(0.0155791 -0.0224203 -0.00171618)
(0.0113316 -0.0130155 -0.00126773)
(0.0163886 -0.0225187 -0.00210441)
(0.0159984 -0.0131403 -0.0021929)
(0.0160884 -0.00905658 -0.00228534)
(0.0141514 -0.0109592 -0.00150312)
(0.0179387 -0.0110316 -0.00298386)
(0.0158886 -0.0106107 -0.00223116)
(0.0142511 -0.0185412 -0.00099246)
(0.0186917 -0.0186174 -0.00290761)
(0.0142361 -0.0144438 -0.00126695)
(0.0182668 -0.0145176 -0.00288878)
(0.016296 -0.0196937 -0.00159949)
(0.015116 -0.0151996 -0.00148647)
(0.0162974 -0.0202348 -0.00173794)
(0.0155101 -0.0179034 -0.00162264)
(0.016075 -0.0174493 -0.00169601)
(0.0140833 -0.0142359 -0.00107474)
(0.0136387 -0.0108236 -0.00109543)
(0.0136121 -0.0126463 -0.000946162)
(0.0129906 -0.00876826 -0.000989084)
(0.0136587 -0.0120303 -0.00101533)
(0.0163244 -0.0220737 -0.0014812)
(0.0151766 -0.0193171 -0.00123876)
(0.0163336 -0.0246565 -0.00136099)
(0.0163938 -0.0249918 -0.00154486)
(0.0155912 -0.0224018 -0.00139768)
(0.0140699 -0.0106814 -0.00134618)
(0.0136254 -0.00917493 -0.00123036)
(0.0129533 -0.00571866 -0.0012528)
(0.0136392 -0.00857758 -0.00129396)
(0.0135247 -0.00761302 -0.00135097)
(0.0135663 -0.0146183 -0.000791316)
(0.0128883 -0.0123082 -0.000671712)
(0.0140296 -0.0186298 -0.000779726)
(0.0135802 -0.0160283 -0.000696523)
(0.0163502 -0.0276134 -0.00125111)
(0.0151764 -0.024556 -0.00098961)
(0.0164136 -0.0308482 -0.00137089)
(0.0156034 -0.0277988 -0.00119195)
(0.0143506 -0.0252258 -0.00138868)
(0.0131066 -0.0214016 -0.00132359)
(0.0138392 -0.022462 -0.00136845)
(0.0194601 -0.0124111 -0.00306569)
(0.0197495 -0.0161351 -0.00316464)
(0.0195133 -0.0188375 -0.00309666)
(0.0194587 -0.0147587 -0.00309439)
(0.0187211 -0.0279702 -0.00272457)
(0.0194842 -0.0251769 -0.00299781)
(0.0190438 -0.0316511 -0.00267107)
(0.0199818 -0.0284951 -0.00297154)
(0.0134888 -0.0214641 -0.00155068)
(0.0153022 -0.0255922 -0.00188819)
(0.0145717 -0.022649 -0.00176709)
(0.0145209 -0.0179212 -0.00162897)
(0.0140041 -0.0173001 -0.00154689)
(0.0134709 -0.0159229 -0.00154837)
(0.0146579 -0.0173479 -0.00168038)
(0.0142504 -0.0208003 -0.00147133)
(0.0137864 -0.0202034 -0.00140681)
(0.0137957 -0.0187703 -0.00145655)
(0.0129482 -0.0176565 -0.00137393)
(0.0179686 -0.0180126 -0.00270482)
(0.0193993 -0.0203283 -0.00296387)
(0.0186223 -0.0155847 -0.00295695)
(0.0184174 -0.0208412 -0.00267849)
(0.0188732 -0.0178429 -0.00292058)
(0.0192346 -0.0121348 -0.00311323)
(0.0192086 -0.0127812 -0.00307326)
(0.0189512 -0.00890877 -0.00304883)
(0.0190472 -0.0144417 -0.00304085)
(0.0189949 -0.0109859 -0.00308124)
(0.0183354 -0.0225264 -0.00266697)
(0.0197731 -0.0254917 -0.0029418)
(0.0195761 -0.0227824 -0.00293997)
(0.0190594 -0.0199227 -0.00293198)
(0.0187011 -0.0256002 -0.00263121)
(0.0188169 -0.00868172 -0.0031726)
(0.0184729 -0.00582852 -0.00311409)
(0.0186409 -0.010835 -0.00308554)
(0.0187752 -0.00930534 -0.00310854)
(0.0184357 -0.00767782 -0.00312354)
(0.0138851 -0.0161803 -0.00172686)
(0.0154505 -0.0184765 -0.0020243)
(0.0147451 -0.0176499 -0.00188619)
(0.0153998 -0.0177615 -0.00200546)
(0.0144849 -0.0203049 -0.00177598)
(0.0132924 -0.0176256 -0.00156777)
(0.0151021 -0.0210293 -0.00189525)
(0.0145077 -0.0189029 -0.00181213)
(0.0148232 -0.0140688 -0.00175132)
(0.0146087 -0.011596 -0.00176725)
(0.015615 -0.0154959 -0.0018924)
(0.0154484 -0.0142125 -0.0019449)
(0.0139129 -0.00680155 -0.00159988)
(0.0146525 -0.00537698 -0.0017886)
(0.0144731 -0.00841452 -0.0017399)
(0.0149916 -0.00685625 -0.00195167)
(0.0153476 -0.0168024 -0.00182148)
(0.0155215 -0.0163862 -0.00186487)
(0.0155205 -0.0165686 -0.00188796)
(0.016231 -0.0141275 -0.00232821)
(0.0161505 -0.0141979 -0.00222251)
(0.0161429 -0.0116119 -0.00234775)
(0.0164486 -0.0156164 -0.00226152)
(0.0179309 -0.00528868 -0.00288826)
(0.0175266 -0.00680078 -0.00285915)
(0.0169642 -0.0068688 -0.00259454)
(0.0169972 -0.00832296 -0.00263596)
(0.0158981 -0.01712 -0.00208694)
(0.0158193 -0.0167913 -0.00205136)
(0.0160973 -0.0166884 -0.00213737)
(0.0153178 -0.0199778 -0.00174875)
(0.0112425 -0.0120062 -0.00130058)
(0.0164292 -0.0207344 -0.00216078)
(0.0154608 -0.0186966 -0.0017363)
(0.0156279 -0.0174909 -0.00178073)
(0.0151797 -0.0176682 -0.00177232)
(0.0154562 -0.0169165 -0.00183609)
(0.0142529 -0.0142049 -0.00163624)
(0.0160299 -0.0142514 -0.00235594)
(0.0158452 -0.0149981 -0.00210019)
(0.0138804 -0.0161782 -0.00167398)
(0.0148814 -0.0173212 -0.00177376)
(0.0152014 -0.0175052 -0.00192476)
(0.0154655 -0.0174247 -0.00192437)
(0.0168345 -0.0194297 -0.00231231)
(0.0171266 -0.0178696 -0.00243397)
(0.0159125 -0.0181005 -0.00209291)
(0.0162178 -0.0172004 -0.00218111)
(0.0157357 -0.0166962 -0.00194786)
(0.0159576 -0.0161816 -0.00206441)
(0.0157728 -0.0170783 -0.00199428)
(0.0160653 -0.0167725 -0.00211456)
(0.0129471 -0.010428 -0.000835579)
(0.0209732 -0.0108264 -0.00338339)
(0.0191888 -0.0105753 -0.00304328)
(0.0207003 -0.00897809 -0.00338702)
(0.0136347 -0.0139454 -0.000859332)
(0.0194828 -0.0140508 -0.00312549)
(0.0158957 -0.030351 -0.00162433)
(0.0115316 -0.0169439 -0.00120858)
(0.0167548 -0.0304451 -0.00206764)
(0.0156926 -0.0248134 -0.00167282)
(0.0113085 -0.0139509 -0.0012242)
(0.0164947 -0.0248863 -0.00206708)
(0.0164246 -0.0277492 -0.00145585)
(0.0153741 -0.0243461 -0.00149793)
(0.0154268 -0.0269499 -0.00144378)
(0.014305 -0.0228421 -0.0014291)
(0.0156173 -0.0249839 -0.00129106)
(0.0185311 -0.0251141 -0.00268214)
(0.0126311 -0.0188455 -0.00135937)
(0.0130176 -0.0193359 -0.00134592)
(0.0133409 -0.0193071 -0.00154315)
(0.0125267 -0.017004 -0.0013723)
(0.0169639 -0.0274979 -0.0022148)
(0.0188682 -0.0284484 -0.00263525)
(0.0151627 -0.0231083 -0.00187517)
(0.0168337 -0.0248273 -0.00221049)
(0.0135836 -0.0070294 -0.0014064)
(0.0186795 -0.00713855 -0.00324278)
(0.0160778 -0.00694927 -0.00231142)
(0.0124369 -0.00413758 -0.00135745)
(0.01377 -0.00320651 -0.00160224)
(0.0199124 -0.00395718 -0.00351293)
(0.0181917 -0.00316015 -0.00306008)
(0.0172063 -0.00420251 -0.0028938)
(0.015159 -0.00327281 -0.00201875)
(0.0176118 -0.00325356 -0.00278594)
(0.0162061 -0.00515363 -0.00234559)
(0.0151921 -0.0172249 -0.00137066)
(0.0143446 -0.013339 -0.00132181)
(0.014367 -0.0152185 -0.00119285)
(0.014095 -0.0123652 -0.00121426)
(0.0188606 -0.017668 -0.0029389)
(0.0184223 -0.0135724 -0.00295778)
(0.018609 -0.0154585 -0.0029369)
(0.0188449 -0.0126033 -0.00305128)
(0.0163543 -0.0224771 -0.0016423)
(0.015307 -0.020017 -0.00163835)
(0.0153418 -0.0221116 -0.00156697)
(0.0142875 -0.0190856 -0.00153584)
(0.0155584 -0.020059 -0.00151136)
(0.0181475 -0.0201649 -0.00267647)
(0.0130547 -0.016447 -0.00143865)
(0.0126888 -0.0148161 -0.00147943)
(0.0125264 -0.0158017 -0.00140943)
(0.013405 -0.0164939 -0.00162093)
(0.0185426 -0.0230241 -0.00265028)
(0.0167096 -0.0205532 -0.00227634)
(0.0167389 -0.0225418 -0.00223215)
(0.0151445 -0.0194005 -0.00194195)
(0.014205 -0.012617 -0.00139506)
(0.0180862 -0.0126906 -0.00292174)
(0.0142919 -0.0117387 -0.00144154)
(0.0140456 -0.0123674 -0.00151702)
(0.013602 -0.00876622 -0.00144917)
(0.0134502 -0.00918549 -0.00155338)
(0.0181375 -0.0118606 -0.00296916)
(0.0167559 -0.0124815 -0.00261059)
(0.0175185 -0.00879285 -0.00289246)
(0.0159449 -0.00914464 -0.00245952)
(0.0147347 -0.00990634 -0.0018891)