/*--------------------------------*- C++ -*----------------------------------*\
| =========                 |                                                 |
| \\      /  F ield         | OpenFOAM: The Open Source CFD Toolbox           |
|  \\    /   O peration     | Version:  2012                                  |
|   \\  /    A nd           | Website:  www.openfoam.com                      |
|    \\/     M anipulation  |                                                 |
\*---------------------------------------------------------------------------*/
FoamFile
{
    version     2.0;
    format      ascii;
    class       volVectorField;
    location    "0.108/fluid";
    object      U_0;
}
// * * * * * * * * * * * * * * * * * * * * * * * * * * * * * * * * * * * * * //

dimensions      [0 1 -1 0 0 0 0];


internalField   nonuniform List<vector> 
16422
(
(1.2463 -0.017773 -0.0114081)
(1.20808 -0.0294978 -0.00561245)
(1.20569 -0.00730077 -0.00490487)
(1.20302 -0.00568332 -0.00383785)
(1.20167 -0.00420799 -0.00278073)
(1.20097 -0.00294133 -0.00196497)
(1.20056 -0.00199839 -0.00137046)
(1.20033 -0.00133438 -0.000945539)
(1.20021 -0.000881221 -0.000645296)
(1.20014 -0.000578144 -0.000434721)
(1.2001 -0.000378009 -0.000290921)
(1.20007 -0.000242985 -0.000195049)
(1.20006 -0.000153633 -0.000128385)
(1.20005 -9.50754e-05 -8.13982e-05)
(1.20005 -5.02588e-05 -4.6518e-05)
(1.21697 -0.00439598 0.000302374)
(1.21229 -0.0103358 -0.00171778)
(1.20772 -0.00627154 -0.00261862)
(1.20461 -0.00411548 -0.00246216)
(1.20295 -0.00293937 -0.00195908)
(1.20195 -0.00209078 -0.0014762)
(1.20128 -0.00145019 -0.00108474)
(1.20084 -0.000988901 -0.000781928)
(1.20055 -0.000662028 -0.000550554)
(1.20037 -0.00043763 -0.000382795)
(1.20025 -0.000287578 -0.000262413)
(1.20017 -0.000186601 -0.000179291)
(1.20013 -0.000119854 -0.000120242)
(1.2001 -7.16861e-05 -7.76443e-05)
(1.20009 -3.69846e-05 -4.41009e-05)
(1.2122 -0.00142382 0.000176241)
(1.21059 -0.0031983 -0.00103)
(1.20778 -0.00265504 -0.00164569)
(1.20535 -0.00191616 -0.00169379)
(1.20369 -0.00141445 -0.00146446)
(1.20253 -0.00102003 -0.00117784)
(1.20171 -0.000716824 -0.000907372)
(1.20115 -0.000492209 -0.000678249)
(1.20077 -0.000330036 -0.000492173)
(1.20052 -0.000216332 -0.000349185)
(1.20036 -0.000136546 -0.000244094)
(1.20025 -8.44941e-05 -0.000170401)
(1.20018 -5.0291e-05 -0.000116431)
(1.20013 -2.41714e-05 -7.39601e-05)
(1.20011 -5.05515e-06 -4.22029e-05)
(1.2204 -0.00280544 -0.0027765)
(1.21136 -0.00436069 -0.00548)
(1.20705 -0.00492109 -0.00472615)
(1.2043 -0.00422623 -0.00360692)
(1.20273 -0.00327074 -0.00264057)
(1.20174 -0.00237923 -0.00188882)
(1.20112 -0.00166921 -0.00132479)
(1.20073 -0.00114859 -0.00091746)
(1.20049 -0.000776239 -0.00062643)
(1.20033 -0.000518425 -0.000422728)
(1.20023 -0.000345275 -0.000283854)
(1.20017 -0.000225415 -0.000188331)
(1.20013 -0.000144061 -0.00012503)
(1.2001 -9.05273e-05 -8.07718e-05)
(1.20009 -4.87224e-05 -4.67189e-05)
(1.21332 -0.00178674 0.00029041)
(1.21079 -0.00438381 -0.00186061)
(1.20761 -0.00376254 -0.00255288)
(1.20515 -0.0029509 -0.00235734)
(1.20356 -0.00227917 -0.00187949)
(1.20245 -0.00169433 -0.00142722)
(1.20167 -0.00121612 -0.00105179)
(1.20114 -0.000852598 -0.000759145)
(1.20078 -0.000584747 -0.000537804)
(1.20053 -0.000394164 -0.00037254)
(1.20037 -0.000263602 -0.000256433)
(1.20027 -0.000173736 -0.00017448)
(1.2002 -0.00011293 -0.000116314)
(1.20015 -6.68544e-05 -7.66249e-05)
(1.20013 -3.41344e-05 -4.4529e-05)
(1.21082 -0.000701005 9.16504e-05)
(1.20966 -0.00173479 -0.0010384)
(1.20755 -0.00169336 -0.00160221)
(1.20557 -0.00139471 -0.00163466)
(1.20404 -0.00110118 -0.00141718)
(1.20287 -0.000828911 -0.00114422)
(1.20201 -0.000602348 -0.000882841)
(1.20139 -0.000425334 -0.000660452)
(1.20096 -0.000291975 -0.000482103)
(1.20067 -0.000195105 -0.000342203)
(1.20047 -0.000124277 -0.00024001)
(1.20033 -7.77488e-05 -0.000164559)
(1.20024 -4.64897e-05 -0.000111211)
(1.20018 -2.00146e-05 -7.41918e-05)
(1.20015 -2.44359e-06 -4.21687e-05)
(1.21331 -0.000541162 -0.000676595)
(1.21078 -0.00244363 -0.00299918)
(1.20769 -0.00316911 -0.00311837)
(1.20528 -0.00300911 -0.00259083)
(1.20358 -0.0024853 -0.00197318)
(1.20241 -0.00190108 -0.00143875)
(1.20162 -0.00138769 -0.00102061)
(1.20109 -0.000985623 -0.000712024)
(1.20074 -0.000684809 -0.000487844)
(1.2005 -0.000467628 -0.000328548)
(1.20035 -0.000318232 -0.000220233)
(1.20025 -0.000211512 -0.000146848)
(1.20019 -0.000135477 -9.7282e-05)
(1.20015 -8.62517e-05 -6.16502e-05)
(1.20012 -4.71373e-05 -3.55721e-05)
(1.21096 -0.000550342 -6.61857e-05)
(1.20968 -0.00185415 -0.00139235)
(1.20755 -0.00219762 -0.00185198)
(1.2056 -0.00206177 -0.00173132)
(1.20407 -0.0017352 -0.00141575)
(1.20289 -0.00135833 -0.00109322)
(1.20203 -0.00101459 -0.000813375)
(1.20142 -0.000734717 -0.000589496)
(1.20099 -0.000517606 -0.000418893)
(1.20069 -0.000358562 -0.00029143)
(1.20049 -0.000243728 -0.000201407)
(1.20035 -0.000162701 -0.000135781)
(1.20026 -0.000105399 -9.0272e-05)
(1.2002 -6.28387e-05 -5.69556e-05)
(1.20016 -3.21412e-05 -3.29959e-05)
(1.20972 -0.000284121 -2.03767e-05)
(1.20892 -0.000855807 -0.000799264)
(1.20738 -0.00103057 -0.00119644)
(1.20577 -0.000986735 -0.00122462)
(1.20434 -0.000840367 -0.0010809)
(1.20319 -0.000666067 -0.000882252)
(1.2023 -0.000504113 -0.000685827)
(1.20163 -0.000367466 -0.00051359)
(1.20115 -0.000259034 -0.000374775)
(1.2008 -0.000176441 -0.000269026)
(1.20057 -0.000115087 -0.000188779)
(1.2004 -7.25905e-05 -0.000128054)
(1.2003 -4.38189e-05 -8.51911e-05)
(1.20023 -1.71336e-05 -5.49953e-05)
(1.20019 -4.68542e-07 -3.12504e-05)
(1.21116 -0.00034143 -0.000264655)
(1.20994 -0.00157051 -0.0011892)
(1.20784 -0.00220305 -0.00141643)
(1.20579 -0.00226145 -0.00124749)
(1.20411 -0.00198713 -0.000968948)
(1.20285 -0.00159275 -0.00071081)
(1.20196 -0.00120493 -0.000505278)
(1.20133 -0.000878582 -0.000349656)
(1.20091 -0.000626345 -0.000234282)
(1.20062 -0.000436053 -0.000157942)
(1.20044 -0.000302416 -0.000102614)
(1.20032 -0.000202829 -6.74991e-05)
(1.20023 -0.000131244 -4.2614e-05)
(1.20018 -8.39647e-05 -2.52789e-05)
(1.20014 -4.677e-05 -1.16213e-05)
(1.20989 -0.000274475 -0.000106702)
(1.20906 -0.00107898 -0.000683182)
(1.20753 -0.00149346 -0.000899182)
(1.20588 -0.00155527 -0.000849347)
(1.2044 -0.00139648 -0.000701209)
(1.2032 -0.00114399 -0.000543)
(1.2023 -0.000883308 -0.000402536)
(1.20163 -0.000656609 -0.000286569)
(1.20114 -0.000473062 -0.000199141)
(1.2008 -0.000334976 -0.000137681)
(1.20057 -0.00023195 -9.1022e-05)
(1.20041 -0.0001558 -6.09999e-05)
(1.2003 -0.000101457 -3.9568e-05)
(1.20023 -5.96879e-05 -2.19083e-05)
(1.20019 -3.14861e-05 -1.04638e-05)
(1.20913 -0.000147642 -5.51157e-05)
(1.20852 -0.000520594 -0.000424105)
(1.20731 -0.000717681 -0.000602504)
(1.20591 -0.000749276 -0.000616298)
(1.20456 -0.000678631 -0.000544761)
(1.20341 -0.000561153 -0.000442834)
(1.2025 -0.000439932 -0.000339333)
(1.2018 -0.000329292 -0.00024821)
(1.20128 -0.000235364 -0.000176189)
(1.2009 -0.000162702 -0.00012342)
(1.20063 -0.000110723 -8.57502e-05)
(1.20045 -7.02047e-05 -5.76701e-05)
(1.20033 -4.04559e-05 -3.49426e-05)
(1.20026 -1.64338e-05 -2.10602e-05)
(1.20022 1.47649e-06 -9.31185e-06)
(1.30444 -0.0798822 -0.014329)
(1.18571 -0.00997524 -0.0114138)
(1.29804 -0.0773872 0.00511631)
(1.18749 -0.0103815 -0.0153607)
(1.23591 -0.0097557 -0.0139518)
(1.20967 -0.00996648 -0.0127463)
(1.1924 -0.0101141 -0.0100305)
(1.19514 -0.0120455 -0.00724562)
(1.25046 -0.0207294 -0.00365148)
(1.20532 -0.0471416 -0.0047412)
(1.22746 -0.00375829 -0.00218671)
(1.21224 -0.00606115 -0.00550896)
(0.401148 0.0670395 -0.0798328)
(0.288326 0.0759557 -0.00745455)
(1.19365 -0.0105769 -0.011609)
(1.19705 -0.0103828 -0.00844482)
(1.20759 -0.00969586 -0.0113203)
(1.20435 -0.00780719 -0.00877844)
(1.20543 -0.0416327 -0.00657287)
(1.22536 -0.00368702 -0.00254821)
(1.21193 -0.00564067 -0.0062905)
(1.22619 -0.00673296 -0.0073894)
(1.21217 -0.00834441 -0.00430569)
(1.21794 -0.00127202 -0.00272332)
(1.21156 -0.00411953 -0.00634316)
(1.22463 -0.00654234 -0.00884926)
(1.21158 -0.00857333 -0.0129417)
(1.21582 -0.00131576 -0.00187349)
(1.21218 -0.00341452 -0.00447365)
(0.298714 0.0783195 -0.0103388)
(0.559358 0.138461 -0.013583)
(1.23007 -0.0709654 -0.0150106)
(0.322088 -0.0717087 -0.00883599)
(1.17446 -0.0449152 -0.0106966)
(1.1915 -0.034743 -0.0129381)
(0.605962 -0.149279 -0.0110061)
(0.624814 0.0585404 -0.125706)
(0.545634 0.134231 -0.0167969)
(0.453566 -0.063251 -0.095396)
(1.22682 -0.0683612 -0.0149616)
(1.28043 -0.0220446 -0.00668691)
(0.313016 -0.0695457 -0.00745067)
(1.23074 -0.0378597 -0.0307912)
(0.676884 -0.0759182 -0.171764)
(1.17764 -0.0443098 -0.0162041)
(1.19282 -0.0321531 -0.0204852)
(1.1962 -0.00783999 -0.0255126)
(0.594299 -0.145836 -0.0150399)
(1.18206 -0.0515993 -0.012731)
(1.20243 -0.0257187 -0.0336624)
(1.20293 0.0198341 -0.135658)
(0.679968 -0.0339794 -0.06508)
(1.22375 -0.00972154 -0.111309)
(1.19737 -0.00577038 -0.14331)
(1.25718 -0.0247045 -0.0131074)
(1.24118 -0.00357194 -0.0278106)
(1.22445 -0.0124997 -0.0194402)
(0.700997 -0.00266323 -0.0678197)
(1.22389 -0.0232737 -0.0365456)
(1.22477 -0.00457007 -0.0326975)
(1.21597 0.0310977 -0.116617)
(1.20128 -0.00277847 -0.0273227)
(1.20932 -0.00114932 -0.0183238)
(1.21479 -0.0111741 -0.0171034)
(1.19836 -0.00246929 -0.0164397)
(1.20501 -0.00607301 -0.0336214)
(1.21261 -0.00258078 -0.0277253)
(0.288197 0.0774797 -0.0170144)
(0.306362 0.0817045 -0.0222531)
(1.09989 0.0753076 -0.0174829)
(1.53817 -0.143038 -0.0377692)
(1.40959 -0.170224 -0.0344688)
(1.2695 -0.167444 -0.0114034)
(1.36463 -0.167362 -0.0335798)
(1.10369 -0.0908822 -0.0143388)
(1.20609 -0.117717 -0.0128752)
(1.18354 -0.0657002 -0.0139199)
(0.546449 0.135355 -0.0297329)
(1.12027 0.0738055 -0.0172003)
(1.1216 0.0855341 -0.0355048)
(0.569934 0.142689 -0.0301106)
(1.10234 0.0748166 -0.0233239)
(1.10681 0.0748446 -0.0276841)
(1.35538 -0.150608 -0.0052381)
(0.313995 -0.0693368 -0.012429)
(1.27478 -0.107433 -0.0606343)
(1.27304 -0.142014 -0.0271093)
(1.30681 -0.0598073 -0.0390291)
(1.39771 -0.158715 -0.0369967)
(1.53395 -0.143432 0.0307631)
(1.40661 -0.169265 0.0105447)
(1.51277 -0.132172 -0.0264488)
(1.35838 -0.158535 -0.0392207)
(0.330783 -0.0731541 -0.0177778)
(1.26906 -0.164693 -0.0164776)
(1.3624 -0.166506 0.00610814)
(1.26924 -0.160601 -0.0215066)
(1.39241 -0.150084 0.00188098)
(1.42212 0.00235132 0.0150756)
(1.50543 -0.129458 0.0377565)
(1.32725 -0.0512275 -0.0301236)
(1.19402 -0.0561094 -0.0139658)
(0.597054 -0.147469 -0.0188227)
(1.12507 -0.10446 -0.0231258)
(1.23399 -0.072172 -0.0437422)
(1.12023 -0.104963 -0.0219912)
(1.21795 -0.0995242 -0.0171819)
(1.21141 -0.0468857 -0.0364059)
(1.18648 -0.0631523 -0.0179787)
(0.61817 -0.15314 -0.0210457)
(1.10604 -0.0894209 -0.0184922)
(1.20687 -0.115808 -0.0138249)
(1.18471 -0.0648869 -0.0125143)
(1.10997 -0.0886824 -0.0226536)
(1.20873 -0.112811 -0.0187727)
(1.0825 -0.0320229 -0.0823427)
(1.20153 0.00693429 -0.0560246)
(1.21588 0.0121323 -0.0577858)
(1.02228 -0.0201072 -0.0784723)
(1.25555 0.0245224 -0.0276681)
(1.23741 0.0157304 -0.0505445)
(1.18578 -0.0345101 -0.0239483)
(1.18974 0.000708635 -0.0429601)
(1.19263 -0.00606773 -0.0321552)
(1.22919 -0.0291971 -0.0361959)
(1.09037 0.00190023 -0.0827303)
(1.19595 -0.0691696 -0.0635529)
(1.2022 -0.0169439 -0.0532358)
(1.21491 -0.0778643 -0.0741591)
(1.21564 -0.0217404 -0.0541377)
(1.21725 -0.0210465 -0.0263561)
(1.24402 -0.0382683 -0.0464884)
(1.03161 -0.0150926 -0.0786685)
(1.29995 -0.00449988 -0.0390167)
(1.25403 -0.0315962 -0.0260617)
(1.25805 -0.0403338 -0.0363871)
(1.23556 -0.0347894 -0.0638203)
(1.23653 -0.0242206 -0.0475969)
(1.20136 -0.00774176 -0.010424)
(1.18905 0.025589 -0.0271338)
(1.18975 -0.0535106 -0.0392907)
(1.19074 -0.0106006 -0.0405525)
(1.19255 -0.0312852 -0.0260925)
(1.19289 -0.00369908 -0.0302189)
(1.20703 -0.0105057 -0.0116866)
(1.17882 0.225226 -0.221735)
(0.301158 0.0919994 -0.0074603)
(1.17662 0.110317 -0.198639)
(1.1531 0.182803 -0.174245)
(1.22667 0.156554 -0.259107)
(1.00073 0.194382 -0.062084)
(1.00925 0.195144 -0.0563026)
(1.15822 0.230857 -0.0402423)
(0.300986 0.0796616 -0.0149754)
(1.13443 0.184013 -0.0291804)
(1.16215 0.232658 -0.0287887)
(1.13457 0.182916 -0.0324623)
(0.996241 0.192977 -0.240387)
(1.28913 0.165206 -0.346968)
(1.00739 0.195589 -0.0439152)
(1.02449 0.198913 -0.0290482)
(1.15894 0.232749 -0.0213602)
(0.288267 0.0753344 -0.00568031)
(1.13665 0.185881 -0.0223619)
(1.16463 0.234462 -0.0282591)
(1.1318 0.184889 -0.0229175)
(1.15594 0.105134 -0.0244038)
(0.545981 0.134046 -0.0139843)
(1.16689 0.132401 -0.0146896)
(0.884518 0.0982571 -0.0180736)
(1.16285 0.13234 -0.0272652)
(0.882707 0.0981972 -0.0198384)
(1.15925 0.10472 -0.0156416)
(1.01377 -0.171815 -0.0452917)
(1.03097 -0.173594 -0.0257515)
(1.1727 -0.211424 -0.0213904)
(0.312202 -0.0697275 -0.0063464)
(1.15058 -0.17985 -0.0189562)
(1.14556 -0.179395 -0.0216296)
(1.17895 -0.212129 -0.0244021)
(1.16916 -0.1207 -0.0213647)
(0.593266 -0.145717 -0.0133307)
(0.896033 -0.129854 -0.0151388)
(1.18318 -0.146334 -0.0128966)
(0.894446 -0.12988 -0.0167502)
(1.17907 -0.146125 -0.0237037)
(1.17246 -0.120382 -0.0126482)
(1.18963 0.107722 -0.115591)
(0.582118 0.154978 -0.0210669)
(1.21343 0.0662516 -0.170024)
(0.887521 0.0361092 0.0206367)
(1.18717 0.128171 -0.155908)
(0.91924 0.0961586 0.0088048)
(1.20527 0.0629209 -0.127427)
(1.16076 0.102684 -0.0225735)
(0.562919 0.140248 -0.0202704)
(1.1648 0.130646 -0.0324264)
(0.885023 0.0982108 -0.0245395)
(1.16685 0.129465 -0.0231515)
(1.15757 0.103504 -0.0286643)
(0.887731 0.0990454 -0.0238508)
(1.19448 -0.204756 -0.21008)
(0.332886 -0.0839665 0.00525789)
(1.19369 -0.125621 -0.188479)
(1.17313 -0.184242 -0.163586)
(1.23708 -0.154386 -0.243011)
(1.00919 -0.166962 -0.0575015)
(1.01669 -0.1692 -0.0561854)
(1.1731 -0.206237 -0.0346638)
(0.32485 -0.0721086 -0.0125149)
(1.14867 -0.177153 -0.0266925)
(1.17678 -0.209037 -0.0276699)
(1.1488 -0.175635 -0.0272485)
(1.00427 -0.162077 -0.230357)
(1.30521 -0.141075 -0.320831)
(1.20133 -0.121464 -0.107992)
(0.638102 -0.179796 0.020553)
(0.911405 -0.0740484 -0.00694569)
(1.22783 -0.0834576 -0.167297)
(0.932031 -0.171004 0.00956129)
(1.20626 -0.142874 -0.143584)
(1.21155 -0.0783586 -0.132984)
(1.17422 -0.118194 -0.0180829)
(0.610292 -0.150727 -0.015731)
(0.89655 -0.12945 -0.0202628)
(1.18151 -0.144154 -0.0275723)
(1.17117 -0.118912 -0.0243726)
(0.898939 -0.129727 -0.0192138)
(1.1835 -0.14316 -0.0196762)
(1.18783 0.038498 -0.101268)
(1.20524 -0.0066604 -0.152344)
(1.26712 -0.044526 -0.106846)
(1.21439 -0.0281104 -0.082924)
(1.21522 0.0156404 -0.190404)
(1.17838 0.0376683 -0.0938577)
(1.24934 -0.0370064 -0.107717)
(1.28604 0.0244147 -0.103754)
(0.860105 -0.00716756 -0.067048)
(1.41767 -0.0414323 -0.112049)
(1.2341 -0.00905022 -0.242839)
(1.30263 0.022795 -0.105375)
(1.39439 -0.0383415 -0.109923)
(1.16971 0.0236066 -0.0505065)
(1.18348 -0.034441 -0.122969)
(1.26423 -0.0548191 -0.0412357)
(1.17837 -0.0270412 -0.0512744)
(1.17865 -0.0510211 -0.082149)
(1.17055 0.0377153 -0.0749424)
(1.16847 -0.0265443 -0.0280686)
(1.1885 -0.0527857 -0.0961311)
(1.27577 0.00781165 -0.108788)
(1.20859 -0.00919082 -0.146869)
(1.21273 0.0169726 -0.0788704)
(1.21601 -0.0301661 -0.181192)
(1.24787 0.0246674 -0.101602)
(1.17938 -0.0512272 -0.09052)
(1.28285 -0.0355656 -0.0947766)
(0.87565 -0.0328005 -0.0681614)
(1.41636 0.0299766 -0.110076)
(1.29937 -0.0326049 -0.0965886)
(1.24194 -0.000669888 -0.215514)
(1.39285 0.0262236 -0.107849)
(1.1719 -0.0366264 -0.0505316)
(1.2776 0.0541951 -0.0415817)
(1.18774 0.0191804 -0.122161)
(1.17653 0.0171486 -0.0533463)
(1.18296 0.0351803 -0.0849459)
(1.16818 0.0186567 -0.0334579)
(1.1725 -0.0506235 -0.0737103)
(1.1434 0.222451 -0.144998)
(0.314536 0.0905831 -0.0342362)
(1.12903 0.170249 -0.0826289)
(1.14395 0.213025 -0.0998647)
(1.13415 0.182959 -0.111347)
(1.16618 0.23856 -0.243044)
(1.28846 0.195968 -0.319647)
(1.14849 0.21597 -0.275999)
(1.22258 0.182676 -0.2643)
(1.11164 0.225404 -0.168623)
(1.09934 0.197226 -0.125906)
(1.11675 0.220347 -0.113953)
(1.10959 0.210125 -0.23103)
(1.06805 0.201929 -0.0595458)
(1.10295 0.210903 -0.0443085)
(1.09553 0.207826 -0.0533234)
(1.07778 0.203135 -0.0531968)
(0.976367 0.187249 -0.0861021)
(0.978712 0.185684 -0.129129)
(1.04399 0.194024 -0.083307)
(1.07952 0.194644 -0.112893)
(1.0753 0.200942 -0.0716267)
(1.04613 0.191068 -0.124832)
(1.15273 0.226178 -0.0531523)
(0.287875 0.0766111 -0.0112237)
(1.13814 0.178654 -0.0577334)
(1.15791 0.225135 -0.0733022)
(1.13032 0.179175 -0.0479517)
(1.13694 0.242873 -0.0462314)
(1.14728 0.228334 -0.039297)
(1.13965 0.224665 -0.050283)
(1.14566 0.246292 -0.0300021)
(1.1316 0.23785 -0.0582524)
(1.12585 0.210645 -0.105596)
(1.1314 0.234194 -0.0849195)
(1.12122 0.217714 -0.0654395)
(1.06135 0.197582 -0.253193)
(1.29273 0.173264 -0.326366)
(1.09956 0.202467 -0.270899)
(1.3103 0.201499 -0.349203)
(0.975751 0.194857 -0.220998)
(0.951767 0.175301 -0.149794)
(1.03524 0.198027 -0.225161)
(1.05179 0.182205 -0.134894)
(1.06396 0.197689 -0.232843)
(1.01711 0.178777 -0.147952)
(1.07516 0.203569 -0.0410673)
(1.11564 0.21432 -0.0274206)
(1.09256 0.207276 -0.0286779)
(1.09864 0.21118 -0.034002)
(0.296286 0.0771394 -0.00717869)
(1.14246 0.24619 -0.0211133)
(1.15861 0.231724 -0.0272263)
(1.14767 0.247853 -0.0324552)
(1.14277 0.228532 -0.0300211)
(0.556814 0.137363 -0.00891206)
(1.07968 -0.176571 -0.0430984)
(1.12093 -0.202963 -0.0252263)
(1.10405 -0.200838 -0.0326732)
(1.09704 -0.178348 -0.0240004)
(1.11282 -0.203066 -0.0120263)
(0.31888 -0.0713592 -0.00623869)
(1.16079 -0.227572 -0.0198636)
(1.16591 -0.222314 -0.025871)
(1.14995 -0.219648 -0.0281308)
(1.16702 -0.228512 -0.0308863)
(1.15773 -0.221961 -0.0138658)
(0.602017 -0.148314 -0.00743461)
(1.17858 0.115361 -0.0742594)
(0.596371 0.157452 -0.050222)
(1.16693 0.121325 -0.0745503)
(0.898883 0.10173 -0.0418216)
(1.17471 0.134288 -0.0896898)
(1.16636 0.0994732 -0.0600871)
(0.921228 0.112443 -0.0424028)
(1.15801 0.100682 -0.0400136)
(0.545699 0.134802 -0.0218922)
(1.1717 0.126045 -0.043298)
(0.89375 0.100911 -0.0317087)
(1.16328 0.126615 -0.0471299)
(1.16604 0.100302 -0.0376403)
(0.888265 0.0990425 -0.0321598)
(1.15868 -0.19669 -0.130531)
(0.34346 -0.0814374 -0.02576)
(1.14398 -0.162845 -0.074146)
(1.15989 -0.186491 -0.0935045)
(1.14986 -0.177381 -0.0966328)
(1.18464 -0.216383 -0.224777)
(1.2897 -0.19116 -0.289733)
(1.15196 -0.200608 -0.257692)
(1.23913 -0.170305 -0.248505)
(1.13354 -0.201564 -0.153679)
(1.111 -0.186255 -0.115473)
(1.13987 -0.196954 -0.104714)
(1.11724 -0.197487 -0.213241)
(1.07408 -0.171001 -0.0535773)
(1.10891 -0.199092 -0.0415606)
(1.08316 -0.173788 -0.0538735)
(1.10185 -0.195553 -0.0486882)
(0.986162 -0.15929 -0.0838086)
(0.989926 -0.156294 -0.122283)
(1.05124 -0.162931 -0.0817223)
(1.08798 -0.182135 -0.103201)
(1.0824 -0.188315 -0.066362)
(1.05464 -0.158369 -0.116397)
(1.16788 -0.200506 -0.0501252)
(0.312999 -0.0692955 -0.00986291)
(1.15283 -0.170799 -0.0492217)
(1.17372 -0.198948 -0.0648807)
(1.14479 -0.171317 -0.0433911)
(1.15749 -0.221465 -0.042982)
(1.15509 -0.218212 -0.0360355)
(1.16538 -0.225805 -0.0273813)
(1.14784 -0.214194 -0.0464371)
(1.15254 -0.215405 -0.0534315)
(1.13593 -0.200115 -0.0966618)
(1.15378 -0.21149 -0.0787012)
(1.12999 -0.20654 -0.059885)
(1.06604 -0.164621 -0.245562)
(1.28804 -0.170061 -0.298734)
(1.10198 -0.186755 -0.255533)
(1.31614 -0.176098 -0.32899)
(0.98415 -0.163119 -0.213043)
(0.964052 -0.145544 -0.14476)
(1.04031 -0.163827 -0.217272)
(1.06197 -0.169633 -0.124716)
(1.07011 -0.183891 -0.217299)
(1.02689 -0.146359 -0.143455)
(1.18853 -0.130107 -0.0565974)
(0.649622 -0.176615 -0.0177773)
(0.908664 -0.132443 -0.0296187)
(1.18318 -0.136448 -0.062214)
(0.92684 -0.151119 -0.0248551)
(1.19073 -0.148674 -0.0730745)
(1.17757 -0.116198 -0.049287)
(1.17169 -0.116376 -0.0336473)
(0.595109 -0.146229 -0.0178122)
(0.904606 -0.130067 -0.0236938)
(1.18832 -0.14004 -0.0362714)
(0.899743 -0.129067 -0.0253873)
(1.18017 -0.140156 -0.0400981)
(1.17918 -0.116374 -0.030372)
(1.20737 0.0313086 -0.106473)
(1.21332 -0.0565971 -0.0970531)
(1.25853 -0.00167448 -0.21336)
(1.32818 -0.0415613 -0.112587)
(1.2354 0.0182844 -0.201288)
(1.22365 0.0262044 -0.100298)
(1.2965 -0.0376848 -0.119019)
(1.26528 0.0212751 -0.0989349)
(0.90391 -0.00559752 -0.0689845)
(1.23897 0.0413937 -0.218703)
(1.35718 -0.0383733 -0.110268)
(1.23939 0.0246097 -0.238665)
(1.24938 0.0197453 -0.0971892)
(1.37809 -0.0415152 -0.112025)
(1.20721 -0.0455214 -0.100751)
(1.22319 0.0147118 -0.100154)
(1.25935 -0.0140621 -0.190907)
(1.32456 0.0251827 -0.107046)
(1.23855 -0.0308108 -0.185882)
(1.29405 0.0225208 -0.113149)
(1.22239 -0.0394399 -0.0938849)
(1.26149 -0.0334282 -0.0910192)
(0.917724 -0.0343128 -0.0698399)
(1.23652 -0.0479786 -0.199397)
(1.3548 0.0233746 -0.106455)
(1.24152 -0.0275548 -0.217247)
(1.37526 0.0286659 -0.109132)
(1.24601 -0.0319618 -0.0899422)
(1.21621 -0.03433 -0.0120787)
(1.24062 -0.0155117 -0.0116826)
(1.21983 -0.0284641 -0.0140518)
(1.23122 -0.0138112 -0.0100745)
(1.24493 -0.0202545 -0.00463276)
(1.23464 -0.0209476 -0.0092231)
(1.23944 -0.0119387 -0.00416164)
(1.21234 -0.00420873 -0.00555364)
(1.21588 -0.00113569 -0.00210354)
(1.21132 -0.00320334 -0.00519145)
(1.21459 -0.000783613 -0.000850051)
(1.2119 -0.00270536 -0.00294991)
(1.21234 -0.000614636 -0.000973131)
(1.21058 -0.00206607 -0.00259567)
(1.32826 -0.0549859 -0.0104936)
(1.28414 -0.083634 -0.0159869)
(1.28039 -0.0876498 -0.0142926)
(1.26994 -0.0756311 -0.0278501)
(1.32005 -0.0498135 -0.00785322)
(1.27866 -0.0806677 -0.00231923)
(1.29315 -0.0677065 -0.0104572)
(1.27581 -0.071025 -0.015992)
(1.27384 -0.0818831 -0.0137775)
(1.3126 -0.0448269 -0.0199034)
(1.21696 -0.0393571 -0.00512795)
(1.24976 -0.0220946 -0.00397963)
(1.23813 -0.0228545 -0.0076059)
(0.650964 0.10051 -0.0345437)
(0.256281 0.0709323 0.0559446)
(0.786039 0.0673348 -0.100497)
(0.684945 0.137303 -0.0243476)
(0.747759 -0.0317611 -0.127011)
(0.724846 0.154465 -0.0301989)
(0.298361 0.0786983 -0.012328)
(0.729034 0.178256 -0.0247497)
(0.696037 0.145823 -0.0336705)
(0.749058 0.183937 -0.0345953)
(1.22917 -0.0128546 -0.00907564)
(1.21973 -0.00969391 -0.00795552)
(1.21575 -0.0255037 -0.0114105)
(1.22536 -0.0109341 -0.011684)
(1.22498 -0.00460687 -0.00589211)
(1.23128 -0.0100451 -0.0053333)
(1.22114 -0.00733856 -0.0108108)
(0.69603 0.146554 -0.0277671)
(0.287454 0.0754518 -0.00663669)
(0.75072 0.183713 -0.0277235)
(0.723381 0.153242 -0.0220059)
(0.726943 0.177213 -0.0201444)
(0.956379 0.14193 -0.0154598)
(0.543332 0.132536 -0.0150785)
(0.930047 0.201775 -0.0284621)
(0.549796 0.0911833 -0.0328387)
(0.909801 0.195392 -0.0203729)
(0.530887 0.0841264 -0.0015471)
(0.975213 0.147173 -0.0307266)
(0.728093 -0.150962 -0.0268637)
(0.311925 -0.0695283 -0.00727767)
(0.785091 -0.181275 -0.0232507)
(0.763009 -0.175512 -0.0194237)
(0.753639 -0.157101 -0.0183965)
(0.987029 -0.158485 -0.013526)
(0.591831 -0.144559 -0.0138853)
(0.598204 -0.129181 -0.028056)
(0.964556 -0.204354 -0.0237536)
(0.581459 -0.123142 -0.00133406)
(0.945843 -0.199087 -0.0186139)
(1.00419 -0.162267 -0.0255073)
(0.917428 0.0781871 -0.0564717)
(0.494518 0.0909786 0.0382108)
(0.933072 0.0667116 -0.096685)
(0.634995 -0.0319522 -0.0773186)
(0.858972 0.126331 -0.064319)
(0.477302 0.0194152 0.0941637)
(0.972994 0.00243198 -0.0827579)
(0.970584 0.144472 -0.0379262)
(0.557411 0.137507 -0.0167729)
(0.913277 0.196872 -0.0265715)
(0.534858 0.0875194 0.00112191)
(0.926308 0.200864 -0.0364435)
(0.960475 0.143955 -0.0211436)
(0.546166 0.0876946 -0.0322915)
(0.699208 -0.0979471 -0.0339736)
(0.289863 -0.0735135 0.0667099)
(0.857535 -0.0786898 -0.117795)
(0.747492 -0.14823 -0.0311061)
(0.822286 0.0390058 -0.121327)
(1.25843 -0.0692283 -0.0397337)
(1.28207 -0.0576493 0.00680884)
(1.28052 -0.0533224 -0.0385401)
(1.26504 -0.0275955 -0.0170617)
(1.26556 -0.0616985 -0.00515369)
(1.29398 -0.042724 -0.0281803)
(1.25997 -0.0688722 -0.0513096)
(0.755025 -0.157983 -0.026047)
(0.322038 -0.0716615 -0.0104247)
(0.765806 -0.175773 -0.0226337)
(0.728822 -0.150128 -0.0314538)
(0.783723 -0.180666 -0.0292224)
(0.941225 -0.117334 -0.0733709)
(0.547509 -0.120189 0.0222251)
(0.675483 0.0111654 -0.115326)
(0.982593 -0.0939793 -0.124309)
(0.45943 -0.0772099 0.0769044)
(0.90174 -0.161749 -0.0788905)
(1.01273 -0.0384978 -0.115352)
(0.999837 -0.159471 -0.031734)
(0.604969 -0.148549 -0.0137387)
(0.585866 -0.126582 0.00128843)
(0.949896 -0.199622 -0.0231492)
(0.991548 -0.15976 -0.0181533)
(0.594948 -0.125696 -0.0274155)
(0.96124 -0.202694 -0.0303261)
(1.31981 -0.0054182 -0.165506)
(1.2114 0.0119556 -0.121816)
(1.38347 0.0107122 -0.165304)
(1.31015 -0.0164396 -0.153938)
(1.2543 0.0360005 -0.166836)
(1.29478 -0.0134476 -0.123941)
(1.327 -0.0191307 -0.192573)
(1.37243 0.003196 -0.122244)
(0.746952 -0.0194367 -0.0648758)
(1.25379 -0.0137417 -0.056489)
(0.916518 -0.0585275 -0.101764)
(1.37257 0.0137422 -0.115568)
(1.26034 -0.0150975 -0.062246)
(1.27563 -0.028891 -0.0761302)
(1.2463 -0.0431167 -0.0947196)
(1.23616 -0.0212787 -0.0577497)
(1.30566 -0.0156596 -0.111836)
(1.25865 -0.0880066 -0.0637565)
(1.29271 -0.019538 -0.0947623)
(1.29634 -0.0134003 -0.0700821)
(1.325 -0.0130209 -0.163663)
(1.38232 -0.0249062 -0.165215)
(1.24964 -0.023732 -0.12465)
(1.31132 -0.00347805 -0.156637)
(1.27945 -0.0633446 -0.153523)
(1.32832 -0.00383356 -0.199767)
(1.30081 -0.00233594 -0.12481)
(1.23989 -0.0263756 -0.0260521)
(1.25325 -0.0322278 -0.0269921)
(1.24852 -0.0505429 -0.0286422)
(1.24681 -0.0275714 -0.0264835)
(1.24657 -0.03246 -0.0332508)
(1.25259 -0.0244213 -0.0186654)
(1.23245 -0.0531602 -0.0377555)
(1.38093 -0.0196995 -0.121954)
(0.76765 -0.018533 -0.0669954)
(1.27444 0.000254169 -0.0592583)
(1.38043 -0.0306379 -0.114696)
(0.933264 0.0295795 -0.103593)
(1.28087 -0.0015431 -0.0648674)
(1.28093 0.0234155 -0.063439)
(1.23588 0.0466892 -0.0609471)
(1.28913 0.0316993 -0.104972)
(1.30709 8.83512e-06 -0.109977)
(1.29747 0.0694872 -0.0711533)
(1.29506 0.00860402 -0.0691624)
(1.29726 0.00925172 -0.0911012)
(0.738934 0.160739 -0.0854574)
(0.304513 0.0821757 -0.0299427)
(0.72782 0.179663 -0.0541297)
(0.691733 0.14509 -0.0685462)
(0.761927 0.190229 -0.0799177)
(0.4362 0.0856685 -0.0566916)
(0.594708 0.0796021 -0.137813)
(0.340897 0.0907244 -0.0744925)
(0.339397 0.0868568 -0.0586808)
(0.697766 0.147361 -0.0529697)
(0.289066 0.0774119 -0.0141454)
(0.765558 0.18935 -0.0603845)
(0.741112 0.157661 -0.0614079)
(0.730282 0.180316 -0.0419925)
(0.347738 0.0902801 -0.0213264)
(0.337648 0.0849381 -0.0224913)
(0.344874 0.0889191 -0.0382431)
(0.341091 0.0882597 -0.0487809)
(0.342392 0.0876627 -0.0138872)
(0.340825 0.0858102 -0.0115697)
(1.41293 -0.176408 0.00305172)
(1.37428 -0.140965 -0.0222919)
(1.54487 -0.137592 0.0304171)
(1.49694 -0.148351 -0.0357987)
(1.50334 -0.143947 0.023111)
(1.36948 -0.140285 -0.000843992)
(1.41722 -0.177957 -0.0253893)
(1.43208 -0.204938 0.00550215)
(1.41655 -0.167053 0.0143193)
(1.46277 -0.162335 -0.0365629)
(1.41217 -0.217754 -0.0299628)
(1.47007 -0.158404 0.0202546)
(1.40923 -0.215304 0.00605368)
(1.43561 -0.207132 -0.0282223)
(0.348132 -0.0734297 -0.0145952)
(0.346941 -0.0711088 -0.0113959)
(0.985622 0.147401 -0.0742064)
(0.566353 0.14137 -0.0400663)
(0.915246 0.197704 -0.0561161)
(0.537569 0.0888269 -0.00942315)
(0.938943 0.206211 -0.078239)
(0.965776 0.143558 -0.0476083)
(0.556972 0.0923065 -0.0578416)
(0.962379 0.14313 -0.0357841)
(0.546525 0.134463 -0.0252235)
(0.943539 0.206514 -0.0588505)
(0.560667 0.0952749 -0.0466744)
(0.915014 0.19801 -0.0423644)
(0.988371 0.149125 -0.0563537)
(0.534018 0.0863652 -0.00985434)
(0.773377 -0.164362 -0.0745065)
(0.329636 -0.073182 -0.023491)
(0.768269 -0.175165 -0.0427113)
(0.728044 -0.14965 -0.0578064)
(0.801209 -0.185569 -0.0656129)
(0.437824 -0.0667873 -0.0516187)
(0.590711 -0.0621015 -0.120453)
(0.347161 -0.0728239 -0.0680738)
(0.344874 -0.0695239 -0.0541026)
(1.40202 -0.18515 -0.00897016)
(1.38021 -0.191982 -0.0440263)
(1.40743 -0.159409 0.0051179)
(1.44698 -0.150324 -0.0340531)
(1.45849 -0.150462 0.0141292)
(1.38488 -0.196415 -0.00924925)
(1.39595 -0.181157 -0.0425419)
(1.39344 -0.167017 -0.0257402)
(1.36743 -0.135076 -0.00140914)
(1.49296 -0.147952 0.0220186)
(1.53161 -0.133602 -0.0347541)
(1.49177 -0.138883 -0.0350829)
(1.41077 -0.172785 0.00250669)
(1.34732 -0.130021 -0.0230525)
(1.41583 -0.195888 -0.0288494)
(1.40914 -0.161803 -0.0375221)
(1.45928 -0.161803 0.0176297)
(1.40747 -0.213527 0.00459058)
(1.46089 -0.153215 -0.037827)
(1.42992 -0.202576 0.00452868)
(1.39626 -0.206584 -0.0311256)
(1.37724 -0.155959 -0.0107392)
(1.47515 -0.135881 -0.0303899)
(1.52722 -0.130329 0.0310219)
(1.32165 -0.115965 -0.0394533)
(1.48791 -0.135518 0.0195008)
(1.32935 -0.11878 -0.0146291)
(1.37005 -0.152833 -0.0407475)
(0.732747 -0.151791 -0.0457232)
(0.314596 -0.0697061 -0.0119222)
(0.803125 -0.184596 -0.0496169)
(0.774744 -0.161701 -0.0526216)
(0.769109 -0.175984 -0.0349837)
(0.3535 -0.074897 -0.0206228)
(0.343302 -0.0699989 -0.0225202)
(0.350845 -0.0723476 -0.0357801)
(0.347566 -0.0710372 -0.0448359)
(1.36612 -0.152859 -0.0528786)
(1.37127 -0.168571 -0.0225178)
(1.44074 -0.142391 0.0148441)
(1.3879 -0.127929 -0.0244236)
(1.35346 -0.156977 -0.0544736)
(1.3862 -0.159804 -0.0218104)
(1.43246 -0.11669 -0.0138436)
(1.35734 -0.139712 -0.0885369)
(1.3802 -0.178934 -0.109568)
(1.46133 -0.0917788 0.0407908)
(1.39049 -0.00661825 -0.00456922)
(1.31138 -0.117736 -0.0979793)
(1.42903 -0.0958995 0.0224706)
(1.40984 -0.17897 -0.105219)
(1.33856 -0.134213 -0.0549587)
(1.4683 -0.129813 0.0220984)
(1.31341 -0.100455 -0.0288716)
(1.49032 -0.101033 0.00264371)
(1.29068 -0.106368 -0.058071)
(1.36014 -0.134673 -0.0240856)
(1.45509 -0.103353 -0.00755127)
(1.38045 -0.152151 -0.0761309)
(1.36284 -0.118576 -0.000362435)
(1.38317 -0.16212 -0.116639)
(1.36243 -0.0233357 -0.0144283)
(1.366 -0.152163 -0.0727649)
(1.40315 -0.107447 0.0166519)
(1.41557 -0.174697 -0.108406)
(1.01534 -0.163285 -0.0575801)
(0.616699 -0.153921 -0.0254524)
(0.58875 -0.125569 0.00109681)
(0.95477 -0.198512 -0.0426266)
(0.606127 -0.127065 -0.0415643)
(0.977204 -0.207015 -0.0608804)
(0.997637 -0.159063 -0.0352368)
(0.993644 -0.157831 -0.0280145)
(0.59663 -0.146126 -0.0189058)
(0.609415 -0.130943 -0.0358519)
(0.980392 -0.206171 -0.0465704)