/*--------------------------------*- C++ -*----------------------------------*\
| =========                 |                                                 |
| \\      /  F ield         | OpenFOAM: The Open Source CFD Toolbox           |
|  \\    /   O peration     | Version:  2012                                  |
|   \\  /    A nd           | Website:  www.openfoam.com                      |
|    \\/     M anipulation  |                                                 |
\*---------------------------------------------------------------------------*/
FoamFile
{
    version     2.0;
    format      ascii;
    class       surfaceVectorField;
    location    "0.108/fluid";
    object      Uf;
}
// * * * * * * * * * * * * * * * * * * * * * * * * * * * * * * * * * * * * * //

dimensions      [0 1 -1 0 0 0 0];


internalField   nonuniform List<vector> 
46886
(
(-9.15543 1.48924 3.49933)
(-8.60414 1.74784 3.51192)
(-8.09756 1.91588 3.57444)
(-8.06005 1.3774 3.11899)
(-7.93323 1.51569 3.13661)
(-8.96027 1.64813 3.78842)
(-8.82243 1.39683 3.25981)
(-8.62955 1.60999 3.56837)
(-5.48771 3.89252 5.06293)
(-5.80638 3.52567 4.58546)
(-5.43743 4.05147 4.87851)
(-5.32856 3.31295 4.43986)
(-4.97046 3.71205 4.67307)
(-5.28354 3.43418 4.32014)
(-2.46395 3.95773 4.46079)
(-2.51153 3.81697 4.6209)
(-2.85958 3.70542 4.40772)
(-2.66332 3.38865 4.17649)
(-2.29327 3.58704 4.21338)
(-2.62771 3.4941 4.05143)
(-0.67141 3.16479 3.4557)
(-0.699119 3.08111 3.57884)
(-0.973614 3.07169 3.51005)
(-0.644652 2.87497 3.2647)
(-0.904309 2.86727 3.21269)
(-0.929182 2.79917 3.31696)
(0.288506 2.30525 2.48538)
(0.274357 2.25936 2.57148)
(0.0848725 2.28774 2.56704)
(0.2593 2.10363 2.35566)
(0.0798649 2.12738 2.35365)
(0.0646173 2.08773 2.43038)
(0.767726 1.59756 1.72349)
(0.76031 1.57364 1.78026)
(0.636649 1.60885 1.79883)
(0.725109 1.46497 1.63917)
(0.607402 1.49454 1.65548)
(0.597863 1.47294 1.70776)
(0.99803 1.07711 1.17282)
(0.993584 1.06533 1.20897)
(0.914606 1.09581 1.2323)
(0.958764 0.992289 1.1186)
(0.883209 1.01801 1.1388)
(0.876733 1.00702 1.1728)
(1.10659 0.71505 0.789754)
(1.10349 0.709716 0.812301)
(1.05333 0.732851 0.833462)
(1.07543 0.66147 0.75479)
(1.02724 0.681085 0.773193)
(1.02252 0.675976 0.794691)
(1.15733 0.47034 0.528163)
(1.15496 0.468266 0.542052)
(1.12303 0.484769 0.559087)
(1.13426 0.436637 0.505435)
(1.10349 0.450686 0.520349)
(1.09994 0.448651 0.533716)
(1.18096 0.307339 0.35106)
(1.17911 0.30681 0.35955)
(1.15866 0.318222 0.372484)
(1.16449 0.286113 0.336132)
(1.14475 0.29587 0.347535)
(1.14205 0.295328 0.355758)
(1.19197 0.199335 0.231421)
(1.19052 0.199458 0.23658)
(1.17731 0.207262 0.246109)
(1.18041 0.185885 0.221476)
(1.16763 0.192597 0.229942)
(1.1656 0.192699 0.234962)
(1.1971 0.127546 0.150234)
(1.19597 0.127877 0.153339)
(1.1873 0.133255 0.160291)
(1.18899 0.11891 0.143456)
(1.1806 0.123583 0.149691)
(1.17907 0.123899 0.152723)
(1.19948 0.0790828 0.0942793)
(1.19859 0.0794151 0.0961039)
(1.19276 0.0832542 0.101241)
(1.19368 0.07339 0.0894552)
(1.18802 0.0767896 0.0941319)
(1.18685 0.0771115 0.0959177)
(1.20057 0.0451154 0.0542737)
(1.19985 0.0453578 0.0552716)
(1.19571 0.0483203 0.0592512)
(1.19619 0.0411619 0.0505551)
(1.19218 0.043873 0.0542652)
(1.19125 0.0441095 0.0552435)
(1.20103 0.0194274 0.0234987)
(1.20041 0.0195452 0.0239172)
(1.19718 0.0221558 0.0273099)
(1.19738 0.0164068 0.0202391)
(1.19425 0.0189084 0.0235141)
(1.19346 0.0190244 0.0239248)
(-6.28036 1.18492 2.15628)
(-6.19951 1.24419 2.09725)
(-5.94803 1.26921 2.12144)
(-5.97257 0.99847 1.95057)
(-5.9215 1.04023 1.91006)
(-4.62201 2.28404 2.66832)
(-4.67367 2.2738 2.78471)
(-4.80596 2.01657 2.55384)
(-4.5441 1.94223 2.52676)
(-4.36214 2.16216 2.62215)
(-4.51084 1.93958 2.44214)
(-2.80399 2.45704 2.63871)
(-2.82181 2.46553 2.75674)
(-3.04113 2.30394 2.6135)
(-2.63486 2.27342 2.55357)
(-2.84925 2.12966 2.44852)
(-2.86455 2.14959 2.53902)
(-1.36674 2.10527 2.24039)
(-1.37003 2.12397 2.33382)
(-1.57796 2.04197 2.27051)
(-1.28266 1.9368 2.15588)
(-1.47942 1.85951 2.11272)
(-1.4872 1.88481 2.18826)
(-0.394168 1.6087 1.74494)
(-0.393767 1.63083 1.81114)
(-0.556333 1.59421 1.79531)
(-0.361895 1.47993 1.67659)
(-0.514455 1.44214 1.66934)
(-0.520027 1.46731 1.72518)
(0.220698 1.15307 1.29223)
(0.220677 1.17394 1.33645)
(0.104479 1.1595 1.34297)
(0.226984 1.06295 1.24153)
(0.118077 1.04556 1.25081)
(0.112695 1.06766 1.28929)
(0.59846 0.795894 0.927469)
(0.597206 0.813416 0.956019)
(0.517886 0.808697 0.970502)
(0.593788 0.735745 0.89132)
(0.51943 0.728073 0.906034)
(0.513948 0.746026 0.931456)
(0.828548 0.536936 0.6519)
(0.826422 0.55065 0.669967)
(0.773589 0.549771 0.685421)
(0.820478 0.497819 0.626612)
(0.770929 0.494562 0.641371)
(0.765684 0.508397 0.657739)
(0.968877 0.357061 0.451241)
(0.966438 0.36731 0.462536)
(0.931693 0.367753 0.476111)
(0.960759 0.33196 0.433707)
(0.928161 0.330661 0.446376)
(0.923509 0.340925 0.456746)
(1.05493 0.23503 0.308309)
(1.05258 0.242437 0.315317)
(1.02986 0.24323 0.326223)
(1.04797 0.219005 0.296183)
(1.02666 0.218587 0.306255)
(1.02278 0.22598 0.312759)
(1.108 0.153176 0.207744)
(1.10594 0.158379 0.212064)
(1.09111 0.159213 0.220424)
(1.10242 0.142928 0.199322)
(1.08851 0.142945 0.207014)
(1.0854 0.148131 0.211057)
(1.14076 0.0983203 0.1372)
(1.13905 0.101864 0.139836)
(1.12934 0.102698 0.146117)
(1.13638 0.0916988 0.13126)
(1.12728 0.0919992 0.137044)
(1.12485 0.0955306 0.139529)
(1.16077 0.0610847 0.0872268)
(1.15939 0.0633887 0.088794)
(1.15297 0.0642968 0.0935372)
(1.15725 0.0567014 0.0828757)
(1.15125 0.0572728 0.0872787)
(1.14935 0.0595702 0.0887647)
(1.17251 0.0348931 0.0506724)
(1.17136 0.0362496 0.0515376)
(1.16705 0.0373685 0.0552673)
(1.16945 0.0318403 0.0472404)
(1.16544 0.0327615 0.0507628)
(1.16392 0.0341186 0.051586)
(1.17852 0.0150363 0.0220567)
(1.17751 0.0156296 0.0224213)
(1.17449 0.0171475 0.0256208)
(1.17552 0.0126994 0.0190042)
(1.17275 0.0141259 0.0221108)
(1.17143 0.0147258 0.0224587)
(-5.18634 0.567497 1.37017)
(-5.20317 0.58968 1.40202)
(-5.02743 0.575863 1.39973)
(-5.06229 0.440406 1.30133)
(-5.05787 0.467036 1.31782)
(-4.15043 0.97927 1.71112)
(-4.16458 1.04792 1.76355)
(-4.27129 0.874314 1.65807)
(-3.97435 0.938298 1.70851)
(-4.09289 0.776355 1.63241)
(-4.09453 0.848633 1.66418)
(-2.8709 1.08808 1.76551)
(-2.87926 1.17536 1.82109)
(-3.03548 1.02253 1.75421)
(-2.7246 1.01916 1.73795)
(-2.88009 0.874291 1.69709)
(-2.88675 0.964718 1.73314)
(-1.68987 0.972465 1.5989)
(-1.69692 1.05708 1.64593)
(-1.85272 0.942861 1.61822)
(-1.58998 0.902338 1.56086)
(-1.73844 0.791133 1.5507)
(-1.75024 0.877808 1.58306)
(-0.762093 0.767896 1.32605)
(-0.770753 0.839347 1.36137)
(-0.899716 0.760223 1.36011)
(-0.702556 0.710395 1.28831)
(-0.823056 0.631405 1.29692)
(-0.838355 0.703851 1.32257)
(-0.0968477 0.563377 1.03615)
(-0.106949 0.618856 1.06101)
(-0.203369 0.565947 1.07303)
(-0.0651288 0.521233 1.00377)
(-0.154301 0.467293 1.02057)
(-0.170687 0.523179 1.03949)
(0.355832 0.395172 0.77681)
(0.345524 0.436008 0.793679)
(0.277543 0.401187 0.810103)
(0.370753 0.366166 0.751129)
(0.308266 0.330091 0.769444)
(0.292834 0.371065 0.782811)
(0.654747 0.269536 0.565273)
(0.645302 0.298552 0.576469)
(0.59901 0.275798 0.592551)
(0.660463 0.250282 0.545827)
(0.618083 0.226433 0.56235)
(0.604774 0.255483 0.571529)
(0.848813 0.180573 0.402125)
(0.840804 0.200696 0.40945)
(0.809922 0.185891 0.423198)
(0.849928 0.168045 0.387817)
(0.821738 0.1524 0.40137)
(0.810947 0.172525 0.40755)
(0.97362 0.119449 0.280712)
(0.967184 0.133153 0.285455)
(0.946832 0.123574 0.296388)
(0.972674 0.111376 0.270361)
(0.954141 0.101194 0.280886)
(0.945756 0.114895 0.284985)
(1.05336 0.0781082 0.192344)
(1.04837 0.087286 0.195385)
(1.03506 0.0811667 0.203731)
(1.05163 0.0729131 0.184902)
(1.03954 0.0663725 0.192825)
(1.0332 0.0755549 0.195505)
(1.1039 0.0502476 0.12868)
(1.10009 0.0562645 0.130602)
(1.09144 0.052476 0.136855)
(1.10193 0.046877 0.123283)
(1.0941 0.0427985 0.129181)
(1.08936 0.0488298 0.130903)
(1.13536 0.0312658 0.0825985)
(1.13244 0.0350615 0.0837766)
(1.12685 0.0329062 0.0884852)
(1.13331 0.0290279 0.0785574)
(1.12829 0.0266768 0.0830038)
(1.12472 0.0304941 0.0840723)
(1.15404 0.0178811 0.0483063)
(1.15174 0.020068 0.0489715)
(1.14818 0.0191472 0.0526509)
(1.15184 0.0163198 0.045063)
(1.14871 0.0152714 0.0485758)
(1.14591 0.0174857 0.0491841)
(1.16368 0.00771719 0.0211078)
(1.16171 0.00865731 0.0213921)
(1.15953 0.00879886 0.02451)
(1.16111 0.00651971 0.0181915)
(1.15927 0.00658452 0.0212334)
(1.15691 0.00755846 0.0214943)
(-6.62718 0.609652 2.16149)
(-6.6342 0.512095 2.12671)
(-6.29556 0.675346 2.18829)
(-6.24942 0.496079 1.93506)
(-6.25813 0.418454 1.88998)
(-5.0983 1.47974 2.91086)
(-4.93602 1.76549 3.17661)
(-4.96403 1.63154 3.16656)
(-4.63698 1.64678 3.02986)
(-4.77996 1.51674 2.82061)
(-4.8022 1.41977 2.7963)
(-3.02807 2.07657 3.2182)
(-3.07287 1.96655 3.22383)
(-3.27475 1.89036 3.0796)
(-2.8552 1.90186 3.01745)
(-3.05619 1.83949 2.90307)
(-3.08945 1.756 2.89541)
(-1.52489 1.89165 2.73533)
(-1.56648 1.81678 2.74714)
(-1.75785 1.79537 2.68938)
(-1.44964 1.72774 2.55174)
(-1.63607 1.71165 2.50776)
(-1.66894 1.65239 2.51008)
(-0.505016 1.51741 2.1115)
(-0.537197 1.47147 2.12214)
(-0.68893 1.47854 2.11323)
(-0.4847 1.38875 1.96809)
(-0.6318 1.39599 1.9631)
(-0.658615 1.35842 1.96807)
(0.139851 1.13281 1.54094)
(0.116883 1.10665 1.54792)
(0.00635867 1.12387 1.56052)
(0.135716 1.04063 1.43707)
(0.0284979 1.05594 1.44914)
(0.00855521 1.03405 1.45299)
(0.536993 0.810061 1.08686)
(0.521219 0.796122 1.0904)
(0.444038 0.814173 1.1094)
(0.524886 0.74722 1.01446)
(0.449863 0.762967 1.03149)
(0.435727 0.751161 1.03336)
(0.780983 0.563842 0.750175)
(0.770346 0.556937 0.75135)
(0.717597 0.57224 0.769849)
(0.768245 0.522162 0.700702)
(0.716862 0.535432 0.717096)
(0.707103 0.529588 0.717394)
(0.932199 0.385459 0.510198)
(0.925086 0.382363 0.510056)
(0.88943 0.394163 0.525548)
(0.921426 0.358207 0.476741)
(0.886634 0.368421 0.490459)
(0.879997 0.365858 0.489855)
(1.02701 0.259953 0.342986)
(1.02226 0.258798 0.342262)
(0.998302 0.267463 0.354315)
(1.01868 0.242237 0.32047)
(0.995267 0.249743 0.331172)
(0.990786 0.24886 0.330203)
(1.08701 0.173004 0.227817)
(1.08383 0.172757 0.226948)
(1.06777 0.178981 0.235969)
(1.0808 0.161474 0.212676)
(1.06509 0.166886 0.220725)
(1.06207 0.166779 0.219726)
(1.12506 0.113015 0.148638)
(1.12291 0.113134 0.14785)
(1.11214 0.117607 0.154498)
(1.12042 0.10544 0.13841)
(1.10988 0.109364 0.144391)
(1.10783 0.109556 0.143532)
(1.1489 0.0712066 0.0935784)
(1.14741 0.0714204 0.0929666)
(1.14015 0.0747345 0.0979146)
(1.14528 0.0661111 0.0865702)
(1.13818 0.069071 0.091083)
(1.13675 0.0693231 0.0904339)
(1.16318 0.0410888 0.0539751)
(1.16209 0.0412695 0.0535733)
(1.15713 0.0439095 0.057424)
(1.16006 0.0374908 0.0490133)
(1.15522 0.0399232 0.0526073)
(1.15417 0.0401229 0.0521864)
(1.17059 0.0178122 0.0233937)
(1.16972 0.017905 0.0232067)
(1.16623 0.0202829 0.0264971)
(1.16749 0.0150365 0.0196405)
(1.16409 0.0173233 0.0228183)
(1.16325 0.017424 0.0226236)
(-5.35808 0.420194 1.47047)
(-5.33758 0.467261 1.48271)
(-5.15034 0.497608 1.48798)
(-5.15013 0.345492 1.32996)
(-5.13936 0.381684 1.34849)
(-4.2878 1.15054 2.01085)
(-4.31097 1.11606 2.023)
(-4.39483 0.982852 1.87345)
(-4.20209 0.956152 1.82677)
(-4.09307 1.09514 1.95055)
(-4.18743 0.976669 1.8283)
(-2.97338 1.39857 2.11017)
(-2.99494 1.37875 2.13045)
(-3.14048 1.28102 2.02984)
(-2.82676 1.29865 2.01217)
(-2.97321 1.21117 1.93554)
(-2.98961 1.20399 1.94141)
(-1.77976 1.31883 1.8959)
(-1.79852 1.31322 1.91373)
(-1.95149 1.25431 1.86469)
(-1.68875 1.2159 1.79325)
(-1.83771 1.16151 1.75915)
(-1.8544 1.16451 1.76594)
(-0.851592 1.08917 1.54713)
(-0.867403 1.09311 1.55913)
(-0.999175 1.06169 1.5454)
(-0.80199 1.00327 1.45779)
(-0.928835 0.972666 1.45143)
(-0.944315 0.981648 1.4562)
(-0.185304 0.831805 1.18708)
(-0.198282 0.840314 1.19363)
(-0.300767 0.825025 1.19865)
(-0.161091 0.767479 1.11642)
(-0.25932 0.751271 1.12425)
(-0.272776 0.762523 1.1264)
(0.273664 0.604929 0.874281)
(0.263269 0.614561 0.876992)
(0.188056 0.607724 0.889551)
(0.284042 0.559652 0.821379)
(0.212071 0.551371 0.834457)
(0.200939 0.562446 0.834591)
(0.58332 0.426169 0.625879)
(0.575198 0.43506 0.626324)
(0.521891 0.432321 0.640286)
(0.586812 0.395443 0.587571)
(0.535832 0.391311 0.601082)
(0.526993 0.40095 0.600053)
(0.790082 0.293805 0.438801)
(0.783885 0.301193 0.438134)
(0.746916 0.300325 0.450708)
(0.790438 0.273387 0.411647)
(0.755089 0.271382 0.423475)
(0.7483 0.279156 0.421976)
(0.927327 0.199288 0.302465)
(0.922696 0.205031 0.301399)
(0.897421 0.204985 0.31167)
(0.926404 0.185864 0.283481)
(0.902241 0.184963 0.293014)
(0.897158 0.190907 0.291482)
(1.01791 0.133147 0.205032)
(1.0145 0.137399 0.203952)
(0.997389 0.137718 0.211916)
(1.01653 0.124342 0.191862)
(1.00018 0.124051 0.199211)
(0.99644 0.128409 0.197872)
(1.07711 0.0872022 0.135957)
(1.07461 0.0902101 0.135044)
(1.06312 0.0907324 0.141072)
(1.07557 0.0813853 0.126831)
(1.0646 0.0814908 0.132395)
(1.06187 0.0845544 0.131338)
(1.11499 0.0550329 0.0866649)
(1.11313 0.0570421 0.0859825)
(1.10547 0.0577538 0.0905602)
(1.1133 0.0511062 0.0802793)
(1.10601 0.0515455 0.0845346)
(1.10398 0.0535856 0.0837737)
(1.13799 0.0317928 0.0504274)
(1.13655 0.0329963 0.0499885)
(1.1315 0.0339725 0.053601)
(1.13601 0.0290135 0.0458294)
(1.13124 0.0298243 0.0492442)
(1.12966 0.0310489 0.0487643)
(1.15003 0.0137921 0.0219678)
(1.14882 0.0143238 0.0217651)
(1.14555 0.015705 0.0248706)
(1.14751 0.011644 0.0184498)
(1.14447 0.0129472 0.0214659)
(1.14315 0.0134932 0.021247)
(-4.68548 0.236253 1.09369)
(-4.68025 0.234418 1.08145)
(-4.55893 0.247499 1.09983)
(-4.58678 0.178193 1.02561)
(-4.57096 0.180517 1.00567)
(-3.91713 0.530005 1.42467)
(-3.91964 0.556183 1.42072)
(-3.99994 0.458043 1.34317)
(-3.77425 0.508823 1.39658)
(-3.8635 0.416642 1.33824)
(-3.85833 0.447769 1.32222)
(-2.90867 0.65175 1.5231)
(-2.91713 0.694122 1.5225)
(-3.03623 0.599419 1.47166)
(-2.78262 0.610551 1.47032)
(-2.90353 0.520535 1.438)
(-2.90868 0.567565 1.42477)
(-1.90377 0.628952 1.42554)
(-1.91676 0.67624 1.42456)
(-2.04216 0.598999 1.40258)
(-1.8094 0.583639 1.36318)
(-1.93197 0.508783 1.35479)
(-1.94493 0.559481 1.34344)
(-1.04602 0.530108 1.21645)
(-1.06154 0.57445 1.21403)
(-1.17241 0.516869 1.2131)
(-0.982645 0.490483 1.15638)
(-1.08902 0.433559 1.1637)
(-1.10611 0.480009 1.1539)
(-0.378821 0.411248 0.972622)
(-0.394647 0.44867 0.969144)
(-0.483192 0.407827 0.979685)
(-0.339281 0.380588 0.921045)
(-0.423385 0.339473 0.935851)
(-0.441257 0.378098 0.927552)
(0.111289 0.302533 0.742195)
(0.0968243 0.33201 0.738373)
(0.0304132 0.303841 0.753155)
(0.134708 0.280453 0.700974)
(0.0719969 0.251669 0.717561)
(0.0555912 0.281801 0.710753)
(0.458583 0.214882 0.547241)
(0.446343 0.237022 0.543625)
(0.398502 0.217919 0.558421)
(0.471904 0.199655 0.515821)
(0.426888 0.179903 0.531097)
(0.413048 0.202397 0.525697)
(0.699009 0.148987 0.393036)
(0.689207 0.165058 0.389927)
(0.655652 0.152254 0.402787)
(0.7063 0.138755 0.369852)
(0.674798 0.125397 0.382577)
(0.663775 0.141659 0.378426)
(0.862784 0.101453 0.276248)
(0.855236 0.112814 0.273748)
(0.832135 0.104332 0.2841)
(0.866563 0.0946741 0.259521)
(0.844914 0.0857607 0.269514)
(0.836476 0.0972293 0.266415)
(0.972856 0.0679668 0.190194)
(0.96719 0.0758089 0.188289)
(0.951517 0.0702886 0.196262)
(0.974582 0.0634966 0.1783)
(0.959923 0.0576556 0.185883)
(0.953623 0.0655659 0.183639)
(1.0457 0.0445959 0.127665)
(1.0415 0.0498626 0.126283)
(1.03102 0.046396 0.132296)
(1.04617 0.0416319 0.119257)
(1.0364 0.037933 0.124935)
(1.03174 0.0432495 0.123363)
(1.0927 0.0281808 0.0821288)
(1.08955 0.0315642 0.0811886)
(1.08268 0.0295713 0.0857372)
(1.09227 0.0261748 0.0761503)
(1.08591 0.0240175 0.0804498)
(1.08243 0.0274425 0.0794044)
(1.12139 0.0162989 0.0480951)
(1.11894 0.0182742 0.0475227)
(1.11461 0.0174146 0.0510875)
(1.12016 0.0148771 0.0437357)
(1.11622 0.0139059 0.0471427)
(1.11352 0.0159194 0.046514)
(1.13647 0.00708187 0.02103)
(1.13439 0.00793551 0.0207737)
(1.13192 0.00806223 0.0238011)
(1.13433 0.00598118 0.017667)
(1.13216 0.00603623 0.0206208)
(1.1299 0.00692921 0.020342)
(-5.40607 0.0539884 1.18035)
(-5.39957 0.00190232 1.11651)
(-5.21345 0.107853 1.17556)
(-5.19349 0.0285281 1.04936)
(-5.19471 -0.012991 0.985907)
(-4.4333 0.733867 1.81532)
(-4.44723 0.666727 1.74976)
(-4.51948 0.587847 1.62136)
(-4.31423 0.640613 1.60624)
(-4.23568 0.709705 1.71602)
(-4.32855 0.590439 1.53726)
(-3.16441 1.06594 1.98363)
(-3.19254 1.00427 1.92451)
(-3.321 0.95362 1.84067)
(-3.01376 0.997161 1.83564)
(-3.14375 0.954896 1.76754)
(-3.16676 0.908974 1.70366)
(-1.97094 1.10501 1.80672)
(-2.00192 1.05854 1.75747)
(-2.14099 1.03634 1.71867)
(-1.87456 1.02513 1.65517)
(-2.01243 1.00769 1.62535)
(-2.03678 0.972836 1.572)
(-1.01524 0.977513 1.47408)
(-1.04196 0.946872 1.43469)
(-1.16546 0.943728 1.42617)
(-0.960028 0.905858 1.34364)
(-1.08162 0.904413 1.33858)
(-1.10233 0.881333 1.29635)
(-0.313337 0.7891 1.12152)
(-0.333435 0.77088 1.09082)
(-0.432304 0.77728 1.09778)
(-0.283809 0.732467 1.0196)
(-0.380952 0.738793 1.02692)
(-0.396377 0.725147 0.994443)
(0.178729 0.601263 0.815245)
(0.164841 0.591395 0.791808)
(0.0903038 0.601032 0.804419)
(0.193898 0.559568 0.740074)
(0.120668 0.56836 0.751728)
(0.110158 0.561148 0.727258)
(0.515255 0.440756 0.57478)
(0.506176 0.435945 0.557256)
(0.452041 0.44552 0.570315)
(0.522863 0.411316 0.521305)
(0.469651 0.419857 0.533071)
(0.46292 0.416552 0.514966)
(0.74232 0.314331 0.396701)
(0.736604 0.312324 0.383864)
(0.698227 0.320497 0.39518)
(0.746066 0.29405 0.359531)
(0.708322 0.30127 0.369651)
(0.704205 0.300106 0.356492)
(0.894252 0.219409 0.269369)
(0.890742 0.218825 0.260157)
(0.863991 0.225293 0.26915)
(0.896016 0.205626 0.243924)
(0.869695 0.211317 0.251957)
(0.867262 0.211203 0.242569)
(0.995136 0.150135 0.18013)
(0.993012 0.150192 0.173665)
(0.974596 0.155119 0.180487)
(0.995818 0.140812 0.162887)
(0.977696 0.14515 0.168999)
(0.976297 0.145467 0.162436)
(1.06137 0.100261 0.118052)
(1.06009 0.100541 0.113639)
(1.04753 0.104258 0.118713)
(1.06137 0.0939228 0.106444)
(1.04902 0.0972184 0.11102)
(1.04823 0.0976418 0.106554)
(1.10387 0.0642442 0.0745376)
(1.10309 0.0645435 0.0716605)
(1.09462 0.0674117 0.0754599)
(1.10332 0.0598455 0.0667539)
(1.09499 0.0624309 0.0702245)
(1.09455 0.062808 0.0673175)
(1.12974 0.0375127 0.0430695)
(1.12924 0.0377361 0.0413697)
(1.12358 0.0400993 0.044338)
(1.1286 0.0343172 0.0378569)
(1.12305 0.0365096 0.04063)
(1.1228 0.0367732 0.0389124)
(1.1433 0.0163742 0.0186834)
(1.14294 0.0164841 0.017937)
(1.13923 0.0186611 0.02048)
(1.14141 0.0138489 0.0151825)
(1.13778 0.01595 0.0176393)
(1.13763 0.0160766 0.0168827)
(-4.6803 0.0988399 0.903691)
(-4.68493 0.0686254 0.865828)
(-4.5546 0.129384 0.893313)
(-4.55249 0.0711702 0.814)
(-4.55632 0.0471042 0.774073)
(-3.96774 0.537911 1.2824)
(-3.98007 0.513044 1.24567)
(-4.03889 0.442082 1.16132)
(-3.82596 0.523287 1.2216)
(-3.89141 0.458735 1.15093)
(-3.90122 0.443282 1.10848)
(-2.99963 0.765853 1.40732)
(-3.01652 0.750291 1.37257)
(-3.12034 0.690615 1.31256)
(-2.87537 0.721998 1.31525)
(-2.98135 0.668034 1.26847)
(-2.99494 0.661842 1.22698)
(-2.01822 0.801927 1.32095)
(-2.03593 0.796322 1.28898)
(-2.15348 0.754614 1.25758)
(-1.92449 0.748639 1.2213)
(-2.04116 0.710414 1.19913)
(-2.05571 0.712143 1.16139)
(-1.16653 0.71985 1.11894)
(-1.18241 0.72177 1.09062)
(-1.29201 0.695941 1.08105)
(-1.10177 0.67021 1.02794)
(-1.20923 0.645808 1.02347)
(-1.22254 0.65273 0.990978)
(-0.491737 0.588992 0.884067)
(-0.504619 0.595142 0.860053)
(-0.596235 0.580453 0.863227)
(-0.449098 0.548544 0.808939)
(-0.538377 0.533967 0.814313)
(-0.549377 0.543267 0.787545)
(0.0138652 0.453695 0.665532)
(0.00407284 0.461374 0.646003)
(-0.0674633 0.453553 0.65482)
(0.041286 0.423206 0.60736)
(-0.0282104 0.414866 0.616734)
(-0.0367002 0.424432 0.595494)
(0.379447 0.335323 0.484052)
(0.372321 0.342823 0.468766)
(0.318917 0.338912 0.47891)
(0.396907 0.313412 0.440897)
(0.345117 0.308785 0.450825)
(0.338865 0.317383 0.434514)
(0.637503 0.240567 0.343195)
(0.632466 0.247046 0.331624)
(0.59382 0.245248 0.340958)
(0.648569 0.225279 0.312113)
(0.611129 0.22279 0.320953)
(0.606671 0.229895 0.308784)
(0.816479 0.16863 0.238419)
(0.812984 0.173812 0.229918)
(0.785642 0.173125 0.237651)
(0.82343 0.158145 0.216494)
(0.796962 0.156882 0.223704)
(0.79385 0.162416 0.214859)
(0.938699 0.11573 0.162485)
(0.936296 0.119645 0.156415)
(0.917294 0.119555 0.16247)
(0.942942 0.108592 0.147253)
(0.924565 0.108058 0.152857)
(0.922414 0.112171 0.146592)
(1.02069 0.0774375 0.108135)
(1.01903 0.0802502 0.103941)
(1.00604 0.0805173 0.108556)
(1.02306 0.0725625 0.0976675)
(1.01052 0.0725085 0.101935)
(1.00903 0.0754312 0.0976312)
(1.07417 0.0496828 0.0690932)
(1.073 0.0515821 0.0663356)
(1.06428 0.0521289 0.0698568)
(1.07515 0.0462903 0.0619549)
(1.06675 0.0466181 0.065232)
(1.0657 0.0485793 0.0624121)
(1.10709 0.0290391 0.0402639)
(1.10623 0.0301852 0.0386255)
(1.10055 0.0310395 0.041413)
(1.10688 0.0265694 0.0354192)
(1.10144 0.0272851 0.0380559)
(1.10067 0.0284698 0.0363822)
(1.12447 0.0126836 0.0175535)
(1.12377 0.0131914 0.016832)
(1.1203 0.0144544 0.0192331)
(1.12306 0.0107283 0.0142695)
(1.11978 0.0119251 0.016602)
(1.11916 0.0124538 0.0158634)
(-4.27286 0.0631272 0.72756)
(-4.2643 0.0545898 0.695319)
(-4.18043 0.0760176 0.716609)
(-4.20382 0.0431703 0.669461)
(-4.1914 0.037312 0.633851)
(-3.69661 0.263769 0.979725)
(-3.69604 0.273495 0.944176)
(-3.75939 0.219803 0.896002)
(-3.58476 0.257678 0.938149)
(-3.65451 0.206871 0.900798)
(-3.65029 0.22048 0.859135)
(-2.89469 0.372338 1.07742)
(-2.90121 0.394905 1.04107)
(-2.9957 0.337421 1.00876)
(-2.78662 0.352941 1.01452)
(-2.88359 0.298136 0.993288)
(-2.88742 0.324674 0.950053)
(-2.0392 0.393131 1.03565)
(-2.05058 0.422096 1.00089)
(-2.15453 0.370742 0.986469)
(-1.94863 0.368622 0.964605)
(-2.05205 0.319011 0.958844)
(-2.06175 0.351197 0.918032)
(-1.25446 0.356599 0.904855)
(-1.26802 0.386428 0.873691)
(-1.3652 0.345077 0.873104)
(-1.18523 0.333076 0.836613)
(-1.28032 0.292511 0.841617)
(-1.29296 0.324611 0.805864)
(-0.600543 0.294485 0.737705)
(-0.614002 0.321563 0.711342)
(-0.69612 0.290312 0.718797)
(-0.550636 0.274881 0.678595)
(-0.630195 0.243759 0.689108)
(-0.643241 0.272308 0.659579)
(-0.0894022 0.22851 0.57158)
(-0.101366 0.251134 0.550346)
(-0.166236 0.22845 0.561045)
(-0.0547418 0.213485 0.523849)
(-0.117211 0.190589 0.535916)
(-0.12904 0.214115 0.512635)
(0.292884 0.169827 0.426319)
(0.283015 0.187655 0.409893)
(0.234103 0.171634 0.420807)
(0.316386 0.158897 0.389634)
(0.269468 0.142538 0.400951)
(0.259602 0.160903 0.383259)
(0.569913 0.122327 0.308788)
(0.562183 0.135782 0.296497)
(0.526518 0.124694 0.306122)
(0.585576 0.114634 0.281579)
(0.551458 0.103204 0.291133)
(0.543681 0.116974 0.278085)
(0.765921 0.0859943 0.218355)
(0.760082 0.0958092 0.209416)
(0.734723 0.088277 0.217248)
(0.776182 0.0806854 0.198697)
(0.751976 0.0728553 0.206274)
(0.746079 0.0828579 0.196892)
(0.901805 0.0591381 0.150984)
(0.897495 0.0660864 0.144655)
(0.879841 0.0610863 0.150734)
(0.908343 0.0555081 0.137057)
(0.89153 0.0502697 0.142848)
(0.887167 0.0573329 0.136264)
(0.993989 0.0396293 0.101648)
(0.990835 0.0443892 0.0973047)
(0.978806 0.0412018 0.101915)
(0.997912 0.0371425 0.0919246)
(0.986493 0.0337722 0.0962831)
(0.983293 0.0386083 0.091795)
(1.05462 0.0254518 0.0655227)
(1.05228 0.0285549 0.0626823)
(1.04432 0.026703 0.0661838)
(1.0566 0.0237177 0.0588068)
(1.04909 0.021728 0.0621189)
(1.04672 0.0248888 0.0591959)
(1.09215 0.0148927 0.038418)
(1.09035 0.0167222 0.0367372)
(1.08536 0.0159166 0.0394893)
(1.09255 0.0136284 0.0338145)
(1.0879 0.0127239 0.0364457)
(1.08607 0.0146015 0.0347172)
(1.11205 0.00651605 0.0168091)
(1.11054 0.00730971 0.01607)
(1.10781 0.00742377 0.0184112)
(1.11095 0.00551424 0.013668)
(1.10849 0.00556024 0.0159527)
(1.10697 0.00639899 0.0151916)
(-4.74637 -0.122737 0.505386)
(-4.76043 -0.144755 0.44594)
(-4.64104 -0.0741755 0.478321)
(-4.63068 -0.121482 0.428589)
(-4.65411 -0.140037 0.37011)
(-4.08913 0.322292 0.814652)
(-4.10925 0.296023 0.732671)
(-4.16109 0.246566 0.681271)
(-3.95705 0.335545 0.728403)
(-4.01266 0.291083 0.683567)
(-4.03681 0.273189 0.600991)
(-3.1483 0.598632 0.930893)
(-3.16998 0.574845 0.841535)
(-3.26612 0.538335 0.805582)
(-3.02191 0.584282 0.811449)
(-3.11964 0.552922 0.781805)
(-3.14019 0.538812 0.69112)
(-2.16087 0.700702 0.88366)
(-2.17938 0.683164 0.799604)
(-2.29152 0.662952 0.781591)
(-2.05687 0.671911 0.759322)
(-2.16897 0.655388 0.745367)
(-2.18331 0.646325 0.659962)
(-1.28231 0.677059 0.746195)
(-1.29531 0.666195 0.674598)
(-1.40242 0.659184 0.669943)
(-1.204 0.644688 0.635617)
(-1.31032 0.639625 0.632785)
(-1.31816 0.635112 0.560119)
(-0.575176 0.586066 0.583086)
(-0.582719 0.580467 0.526159)
(-0.673997 0.581654 0.528971)
(-0.519176 0.556384 0.493918)
(-0.6095 0.558197 0.497102)
(-0.612206 0.556911 0.439434)
(-0.0411971 0.472348 0.432323)
(-0.0445989 0.470187 0.389217)
(-0.116964 0.475315 0.395054)
(-0.00231555 0.447881 0.364867)
(-0.0738328 0.452858 0.370373)
(-0.073266 0.453445 0.326793)
(0.345504 0.362269 0.30917)
(0.344713 0.362028 0.27766)
(0.290057 0.368329 0.283957)
(0.372024 0.343348 0.260272)
(0.318032 0.349146 0.266007)
(0.320261 0.350583 0.23421)
(0.617759 0.267898 0.215518)
(0.618353 0.268547 0.193091)
(0.578435 0.274556 0.198672)
(0.635632 0.253848 0.181096)
(0.596208 0.259264 0.186118)
(0.598992 0.260907 0.163516)
(0.805593 0.192493 0.147348)
(0.806762 0.193433 0.131721)
(0.778317 0.198547 0.136218)
(0.817496 0.182326 0.123612)
(0.789405 0.186892 0.127646)
(0.792118 0.188409 0.111912)
(0.933038 0.134772 0.0989934)
(0.93433 0.135692 0.08832)
(0.914439 0.139802 0.0917629)
(0.940821 0.127518 0.082888)
(0.921181 0.131178 0.0859799)
(0.923544 0.132428 0.0752401)
(1.01797 0.091621 0.0650765)
(1.01917 0.0923838 0.0579639)
(1.00548 0.0956176 0.0605402)
(1.02287 0.086455 0.0543148)
(1.00936 0.0893482 0.0566421)
(1.0113 0.0902978 0.0494866)
(1.07302 0.059498 0.0411708)
(1.07407 0.0600608 0.036623)
(1.06481 0.0626418 0.0385596)
(1.07583 0.0557593 0.034124)
(1.0667 0.0581027 0.0358947)
(1.06827 0.0587692 0.0313172)
(1.10675 0.0350665 0.0238185)
(1.10765 0.0354249 0.0211695)
(1.10153 0.0376081 0.0226865)
(1.10792 0.0322406 0.0193753)
(1.1019 0.0342769 0.0207934)
(1.1032 0.0346901 0.0181208)
(1.12449 0.0153885 0.0103392)
(1.1253 0.0155521 0.00918825)
(1.12145 0.0175978 0.0104897)
(1.12423 0.0130703 0.00777867)
(1.12045 0.0150497 0.00903647)
(1.12158 0.0152369 0.00786625)
(-4.28415 -0.0475413 0.420061)
(-4.29873 -0.0645422 0.374317)
(-4.20707 -0.0167873 0.391071)
(-4.2093 -0.0502836 0.357534)
(-4.22657 -0.0642943 0.311394)
(-3.74824 0.257766 0.614232)
(-3.76472 0.248388 0.554427)
(-3.81253 0.204627 0.518873)
(-3.64525 0.266361 0.549255)
(-3.69766 0.225976 0.519025)
(-3.71455 0.222381 0.457393)
(-2.97358 0.450479 0.693025)
(-2.98895 0.449047 0.627634)
(-3.07272 0.408284 0.601509)
(-2.86719 0.440845 0.606591)
(-2.95318 0.403645 0.585946)
(-2.96695 0.408772 0.518156)
(-2.1289 0.524157 0.66828)
(-2.14106 0.529257 0.605098)
(-2.23998 0.497501 0.590857)
(-2.03399 0.504237 0.577189)
(-2.13315 0.475138 0.567039)
(-2.14257 0.486055 0.501621)
(-1.34093 0.508687 0.579572)
(-1.34921 0.51783 0.523837)
(-1.44617 0.495944 0.519273)
(-1.26369 0.485666 0.496189)
(-1.35974 0.465258 0.494044)
(-1.365 0.478847 0.436554)
(-0.675302 0.443192 0.466684)
(-0.680116 0.453882 0.42075)
(-0.765072 0.44009 0.422177)
(-0.616041 0.421595 0.397147)
(-0.69964 0.408325 0.399696)
(-0.701709 0.422099 0.352524)
(-0.14935 0.359405 0.356444)
(-0.151637 0.369814 0.320481)
(-0.220715 0.361707 0.324719)
(-0.10565 0.341281 0.302052)
(-0.173355 0.333105 0.306619)
(-0.17341 0.345517 0.26984)
(0.247274 0.277058 0.262025)
(0.246564 0.286155 0.234954)
(0.193256 0.281675 0.239939)
(0.278608 0.262853 0.221357)
(0.226488 0.258021 0.226272)
(0.227476 0.26836 0.19869)
(0.536472 0.205701 0.1872)
(0.536614 0.213097 0.167441)
(0.496991 0.210786 0.172093)
(0.558472 0.195049 0.157766)
(0.519799 0.192304 0.162192)
(0.521177 0.200444 0.142119)
(0.742023 0.148239 0.130744)
(0.742543 0.153941 0.116684)
(0.713921 0.152881 0.120575)
(0.757173 0.140476 0.109955)
(0.729278 0.139005 0.113592)
(0.730673 0.145143 0.0993402)
(0.884965 0.104013 0.0894353)
(0.885594 0.108221 0.0796663)
(0.865389 0.107882 0.0827323)
(0.895162 0.0984466 0.075037)
(0.875496 0.0977655 0.0778798)
(0.876735 0.102225 0.0679933)
(0.982149 0.0708179 0.0596683)
(0.982756 0.0737935 0.0530674)
(0.968793 0.0739003 0.0554151)
(0.988763 0.0668387 0.04988)
(0.975197 0.0666853 0.0520538)
(0.976227 0.0698035 0.0453799)
(1.04615 0.046036 0.0381867)
(1.04669 0.0480226 0.0339221)
(1.03728 0.0484648 0.0357187)
(1.05011 0.0431497 0.0316888)
(1.041 0.0434069 0.0333621)
(1.04184 0.0454757 0.02905)
(1.08581 0.0271558 0.0222768)
(1.08629 0.028347 0.0197743)
(1.08019 0.0291222 0.0211998)
(1.0877 0.0249704 0.0181354)
(1.08184 0.0256246 0.0194843)
(1.08253 0.0268659 0.0169484)
(1.10685 0.0119233 0.00971668)
(1.10727 0.0124495 0.00862487)
(1.10366 0.0136348 0.00985407)
(1.10694 0.0101279 0.00731316)
(1.10352 0.0112547 0.00850777)
(1.10412 0.0118063 0.007392)
(-4.00831 -0.0118871 0.357265)
(-4.01012 -0.0204469 0.317238)
(-3.94655 0.00217144 0.329551)
(-3.96747 -0.0139445 0.308133)
(-3.96879 -0.0209784 0.267001)
(-3.54289 0.133307 0.491473)
(-3.54775 0.14007 0.439633)
(-3.6021 0.107862 0.41808)
(-3.4563 0.137426 0.439617)
(-3.51552 0.106824 0.422584)
(-3.51905 0.116277 0.36846)
(-2.86561 0.225989 0.550247)
(-2.87241 0.244028 0.493195)
(-2.95359 0.205806 0.478564)
(-2.77115 0.221635 0.48323)
(-2.85484 0.185135 0.473392)
(-2.85981 0.206203 0.413615)
(-2.10719 0.262345 0.537982)
(-2.11465 0.286519 0.482068)
(-2.2065 0.249515 0.475408)
(-2.01818 0.252944 0.466615)
(-2.11045 0.217259 0.463863)
(-2.11593 0.244152 0.405414)
(-1.37604 0.255446 0.477269)
(-1.3831 0.281112 0.427103)
(-1.47216 0.249274 0.42683)
(-1.29987 0.24433 0.410322)
(-1.388 0.213254 0.412677)
(-1.39323 0.241028 0.360483)
(-0.737746 0.223548 0.394124)
(-0.743779 0.247451 0.352083)
(-0.821852 0.222062 0.355679)
(-0.676775 0.212942 0.336679)
(-0.753296 0.187842 0.341764)