/*--------------------------------*- C++ -*----------------------------------*\
| =========                 |                                                 |
| \\      /  F ield         | OpenFOAM: The Open Source CFD Toolbox           |
|  \\    /   O peration     | Version:  2012                                  |
|   \\  /    A nd           | Website:  www.openfoam.com                      |
|    \\/     M anipulation  |                                                 |
\*---------------------------------------------------------------------------*/
FoamFile
{
    version     2.0;
    format      ascii;
    class       surfaceVectorField;
    location    "0.108/fluid";
    object      Uf_0;
}
// * * * * * * * * * * * * * * * * * * * * * * * * * * * * * * * * * * * * * //

dimensions      [0 1 -1 0 0 0 0];


internalField   nonuniform List<vector> 
46886
(
(1.28375 -0.0542376 0.000278841)
(1.24839 -0.0192601 -0.00737137)
(1.22815 -0.0260248 -0.0117398)
(1.24347 -0.0166493 -0.0117799)
(1.2456 -0.0203959 -0.00801631)
(1.26549 -0.0569639 -0.00616703)
(1.27852 -0.048013 -0.00995655)
(1.26237 -0.0507247 -0.015332)
(1.20085 -0.0194924 -0.00861359)
(1.20764 -0.035555 -0.00609197)
(1.20824 -0.0315875 -0.0051973)
(1.20897 -0.0276584 -0.00633511)
(1.20922 -0.0235045 -0.00540027)
(1.20493 -0.0200829 -0.00831953)
(1.20549 -0.00770172 -0.00483632)
(1.20224 -0.00835699 -0.00606121)
(1.20634 -0.00770805 -0.00497942)
(1.20572 -0.00710942 -0.00485698)
(1.20537 -0.00706476 -0.00479233)
(1.20387 -0.00729242 -0.00529393)
(1.20284 -0.00588886 -0.00379695)
(1.20257 -0.00604845 -0.00410361)
(1.20329 -0.00585636 -0.00398272)
(1.2028 -0.0055041 -0.00369694)
(1.20292 -0.00547989 -0.0037166)
(1.20317 -0.00549941 -0.00383889)
(1.20154 -0.00432723 -0.00275173)
(1.20147 -0.00434747 -0.00290538)
(1.2018 -0.0043903 -0.00290265)
(1.20156 -0.00403444 -0.00266701)
(1.20185 -0.00405987 -0.00266639)
(1.20181 -0.00408839 -0.00279193)
(1.20087 -0.00301197 -0.00194296)
(1.20082 -0.00302372 -0.00203826)
(1.20104 -0.00308409 -0.00205553)
(1.20091 -0.00280892 -0.00188127)
(1.20111 -0.0028496 -0.00189609)
(1.20107 -0.00286992 -0.0019754)
(1.20049 -0.00203924 -0.001355)
(1.20046 -0.00204676 -0.00141286)
(1.2006 -0.00210207 -0.0014357)
(1.20053 -0.00190351 -0.00131048)
(1.20066 -0.00194182 -0.00133043)
(1.20063 -0.00195689 -0.00137815)
(1.20028 -0.0013575 -0.000934393)
(1.20026 -0.00136164 -0.00096935)
(1.20036 -0.0014061 -0.00099206)
(1.20032 -0.00126917 -0.000902939)
(1.20041 -0.00130084 -0.000922841)
(1.20039 -0.00131102 -0.000950955)
(1.20017 -0.000894498 -0.000637998)
(1.20016 -0.000897216 -0.000658878)
(1.20022 -0.000929755 -0.000678059)
(1.2002 -0.000837297 -0.000615254)
(1.20026 -0.000860775 -0.000632248)
(1.20024 -0.000867872 -0.000648822)
(1.20011 -0.000585497 -0.000429666)
(1.2001 -0.000587457 -0.000442372)
(1.20014 -0.000610317 -0.00045746)
(1.20013 -0.000549169 -0.000414031)
(1.20017 -0.000565462 -0.000427454)
(1.20016 -0.000570577 -0.000437283)
(1.20008 -0.000381922 -0.000287217)
(1.20008 -0.000383812 -0.000295005)
(1.2001 -0.000399371 -0.000306281)
(1.20009 -0.000358629 -0.000277038)
(1.20012 -0.000369962 -0.000287022)
(1.20011 -0.00037394 -0.000292902)
(1.20006 -0.000245185 -0.000192891)
(1.20006 -0.000246795 -0.000197334)
(1.20007 -0.00025751 -0.000205237)
(1.20007 -0.000229854 -0.000185751)
(1.20008 -0.000237873 -0.000192864)
(1.20008 -0.000240717 -0.000196116)
(1.20005 -0.000154833 -0.00012681)
(1.20005 -0.000155697 -0.000129597)
(1.20006 -0.000162934 -0.00013578)
(1.20006 -0.000145302 -0.000121651)
(1.20007 -0.000150786 -0.000127208)
(1.20006 -0.000152444 -0.000129163)
(1.20004 -9.56049e-05 -8.01325e-05)
(1.20004 -9.60437e-05 -8.1962e-05)
(1.20005 -0.000101525 -8.6527e-05)
(1.20005 -8.89924e-05 -7.65469e-05)
(1.20006 -9.3424e-05 -8.08685e-05)
(1.20006 -9.45118e-05 -8.22292e-05)
(1.20004 -5.0517e-05 -4.59059e-05)
(1.20004 -5.11519e-05 -4.67575e-05)
(1.20005 -5.53057e-05 -5.03067e-05)
(1.20005 -4.56602e-05 -4.29507e-05)
(1.20005 -4.97478e-05 -4.62745e-05)
(1.20005 -5.0034e-05 -4.68906e-05)
(1.22117 -0.00376116 -0.00112311)
(1.21737 -0.00464768 0.000400613)
(1.21613 -0.00617296 -5.18719e-05)
(1.21651 -0.00401242 0.000321462)
(1.21718 -0.00243703 -0.000506328)
(1.21251 -0.0109935 -0.00170131)
(1.21025 -0.00793926 -0.00397469)
(1.21277 -0.0105542 -0.00151737)
(1.21213 -0.00962225 -0.00175325)
(1.21172 -0.00981234 -0.00189533)
(1.21107 -0.00675924 -0.00260074)
(1.20773 -0.00657793 -0.00258973)
(1.20606 -0.00614091 -0.00340292)
(1.20825 -0.00669723 -0.00256928)
(1.20725 -0.00592019 -0.00263201)
(1.2069 -0.00501724 -0.00278737)
(1.20769 -0.00596142 -0.00263769)
(1.20455 -0.00426205 -0.00243097)
(1.20417 -0.00437005 -0.00267221)
(1.20492 -0.00431629 -0.0025088)
(1.20435 -0.00394243 -0.00240524)
(1.20457 -0.00371147 -0.00237675)
(1.20468 -0.00396674 -0.00247616)
(1.20287 -0.00302273 -0.00193536)
(1.20281 -0.00311655 -0.00204903)
(1.20311 -0.00306512 -0.00202483)
(1.2028 -0.00282242 -0.00189487)
(1.20306 -0.00275231 -0.00188131)
(1.20303 -0.00285512 -0.00197005)
(1.20188 -0.0021403 -0.00145848)
(1.20184 -0.00221031 -0.00152911)
(1.20205 -0.00218642 -0.00153242)
(1.20185 -0.00200156 -0.00142285)
(1.20204 -0.00196482 -0.00142929)
(1.20201 -0.00204056 -0.0014851)
(1.20123 -0.00147942 -0.00107189)
(1.2012 -0.00152963 -0.00111586)
(1.20135 -0.00152121 -0.00112923)
(1.20121 -0.00138492 -0.00104304)
(1.20135 -0.00136556 -0.00105702)
(1.20133 -0.00142062 -0.00109122)
(1.2008 -0.0010059 -0.000772494)
(1.20078 -0.00104104 -0.000799992)
(1.20088 -0.00103938 -0.000816101)
(1.2008 -0.000942562 -0.000749889)
(1.20089 -0.000932513 -0.000765728)
(1.20088 -0.000971649 -0.000786743)
(1.20053 -0.000671756 -0.000544006)
(1.20052 -0.000695974 -0.000560953)
(1.20058 -0.000697612 -0.000576325)
(1.20053 -0.000629665 -0.000526843)
(1.20059 -0.000624961 -0.0005414)
(1.20058 -0.00065221 -0.000554063)
(1.20035 -0.000443071 -0.000378252)
(1.20034 -0.000459751 -0.000388501)
(1.20039 -0.000461565 -0.000401179)
(1.20035 -0.000416059 -0.000365849)
(1.20039 -0.000413354 -0.000377575)
(1.20039 -0.000432148 -0.000385025)
(1.20024 -0.00029058 -0.000259163)
(1.20023 -0.000301957 -0.000265609)
(1.20026 -0.000303769 -0.000275597)
(1.20024 -0.000272837 -0.000250409)
(1.20027 -0.00027161 -0.00025954)
(1.20027 -0.000284512 -0.00026411)
(1.20016 -0.000188192 -0.000177413)
(1.20016 -0.000195513 -0.000181014)
(1.20018 -0.000197153 -0.000188151)
(1.20017 -0.000177157 -0.000171178)
(1.20019 -0.00017668 -0.000177775)
(1.20019 -0.000184953 -0.00018029)
(1.20012 -0.000120634 -0.000118778)
(1.20012 -0.000125969 -0.000121071)
(1.20013 -0.000127245 -0.000126921)
(1.20012 -0.000113 -0.000114133)
(1.20014 -0.000114482 -0.000119471)
(1.20014 -0.000119034 -0.000120979)
(1.2001 -7.22208e-05 -7.64037e-05)
(1.2001 -7.78681e-05 -7.79823e-05)
(1.2001 -7.69105e-05 -8.2327e-05)
(1.2001 -6.68404e-05 -7.31638e-05)
(1.20011 -7.01139e-05 -7.68742e-05)
(1.20011 -7.11129e-05 -7.83788e-05)
(1.20008 -3.7322e-05 -4.34079e-05)
(1.20008 -4.23e-05 -4.44514e-05)
(1.20009 -4.07328e-05 -4.80349e-05)
(1.20009 -3.36724e-05 -4.0355e-05)
(1.20009 -3.98407e-05 -4.37503e-05)
(1.20009 -3.6621e-05 -4.45854e-05)
(1.21237 -0.00150649 0.000178366)
(1.21298 -0.000622679 -0.000212103)
(1.21212 -0.00179647 8.35426e-06)
(1.21213 -0.000533747 -3.27444e-05)
(1.21202 -0.00132627 0.000171257)
(1.21071 -0.00337254 -0.001013)
(1.21033 -0.00267307 -0.00152792)
(1.21088 -0.00313215 -0.000901262)
(1.21025 -0.00318619 -0.00113853)
(1.21028 -0.00196705 -0.00116572)
(1.21047 -0.00301016 -0.00104172)
(1.20781 -0.00277305 -0.00162202)
(1.20739 -0.00275871 -0.00188402)
(1.20814 -0.00275867 -0.00159963)
(1.20744 -0.00255098 -0.0016734)
(1.20762 -0.00197824 -0.00164315)
(1.20775 -0.00253224 -0.00165861)
(1.20533 -0.00198159 -0.00167079)
(1.20523 -0.00218212 -0.00177721)
(1.20562 -0.00199495 -0.00170697)
(1.20511 -0.00184597 -0.00167204)
(1.20539 -0.00160676 -0.00164498)
(1.20538 -0.00184944 -0.00170542)
(1.20365 -0.00145365 -0.00144582)
(1.20363 -0.00161042 -0.0015097)
(1.20387 -0.00147115 -0.00149825)
(1.20353 -0.00136075 -0.00142923)
(1.20375 -0.0012123 -0.00143066)
(1.20374 -0.00137466 -0.00147398)
(1.20248 -0.00104379 -0.00116313)
(1.20247 -0.00115962 -0.00120536)
(1.20265 -0.00106492 -0.00121375)
(1.20241 -0.000978057 -0.00114251)
(1.20257 -0.000875098 -0.00115742)
(1.20257 -0.000995886 -0.00118559)
(1.20167 -0.000731026 -0.000896187)
(1.20167 -0.000814032 -0.000923876)
(1.2018 -0.000750752 -0.000939451)
(1.20163 -0.000685378 -0.000876626)
(1.20174 -0.00061568 -0.000895215)
(1.20174 -0.000702379 -0.000913269)
(1.20112 -0.00050054 -0.00066984)
(1.20112 -0.000559978 -0.000687864)
(1.20121 -0.000517047 -0.00070477)
(1.20109 -0.000469301 -0.000653028)
(1.20117 -0.000424432 -0.000671062)
(1.20118 -0.000483745 -0.000682673)
(1.20075 -0.000334777 -0.00048598)
(1.20075 -0.000377518 -0.000497556)
(1.20081 -0.000347729 -0.000513404)
(1.20074 -0.000313935 -0.000472308)
(1.20079 -0.00028674 -0.000488037)
(1.2008 -0.00032526 -0.00049556)
(1.20051 -0.000219134 -0.000344859)
(1.20051 -0.000250475 -0.000352211)
(1.20055 -0.00022886 -0.000365063)
(1.2005 -0.000204763 -0.000334506)
(1.20054 -0.000189848 -0.000346618)
(1.20054 -0.000213543 -0.000351554)
(1.20035 -0.000138177 -0.000241122)
(1.20035 -0.000163651 -0.000245613)
(1.20038 -0.000144923 -0.000255686)
(1.20034 -0.00012902 -0.000233568)
(1.20037 -0.00012333 -0.00024235)
(1.20037 -0.000134915 -0.000245829)
(1.20024 -8.52594e-05 -0.0001686)
(1.20025 -0.000107905 -0.000170835)
(1.20026 -9.00469e-05 -0.000178451)
(1.20024 -7.94501e-05 -0.000162917)
(1.20026 -8.19069e-05 -0.000169257)
(1.20026 -8.36812e-05 -0.000171218)
(1.20017 -5.07266e-05 -0.000115218)
(1.20018 -7.16164e-05 -0.000116395)
(1.20019 -5.38607e-05 -0.000122519)
(1.20017 -4.69282e-05 -0.000110609)
(1.20019 -5.4539e-05 -0.000115469)
(1.20019 -4.98004e-05 -0.000116844)
(1.20013 -2.44832e-05 -7.29585e-05)
(1.20013 -4.41197e-05 -7.38893e-05)
(1.20014 -2.73703e-05 -7.86617e-05)
(1.20013 -2.10999e-05 -6.97089e-05)
(1.20014 -3.34489e-05 -7.31037e-05)
(1.20014 -2.36976e-05 -7.46692e-05)
(1.20011 -5.38877e-06 -4.15489e-05)
(1.20011 -2.35031e-05 -4.21674e-05)
(1.20011 -6.64577e-06 -4.60201e-05)
(1.20011 -3.87081e-06 -3.84885e-05)
(1.20012 -2.10913e-05 -4.15286e-05)
(1.20012 -4.75035e-06 -4.2711e-05)
(1.22329 -0.0047695 -0.00486888)
(1.22251 -0.0045257 -0.00581232)
(1.21802 -0.00349677 -0.00404034)
(1.22028 -0.00324369 -0.00333312)
(1.21942 -0.00226408 -0.00265454)
(1.21191 -0.00428485 -0.00551681)
(1.21111 -0.00592249 -0.00498658)
(1.21073 -0.00592285 -0.00847015)
(1.21093 -0.00454009 -0.00545489)
(1.21046 -0.00482899 -0.00698753)
(1.21122 -0.00443463 -0.00502648)
(1.2067 -0.00531263 -0.00482561)
(1.20644 -0.00543902 -0.00553341)
(1.20755 -0.0049686 -0.00488136)
(1.20665 -0.00485032 -0.00457458)
(1.20655 -0.00481042 -0.00492425)
(1.20706 -0.00470369 -0.00447965)
(1.20413 -0.00440643 -0.00368055)
(1.20411 -0.00442822 -0.00382457)
(1.20457 -0.00433046 -0.00374)
(1.20406 -0.00411195 -0.00347748)
(1.20433 -0.00405867 -0.00347702)
(1.20444 -0.00405902 -0.00350273)
(1.2026 -0.00338406 -0.0026864)
(1.2026 -0.00337729 -0.00275583)
(1.20289 -0.00339182 -0.00275172)
(1.20258 -0.00315242 -0.00253653)
(1.20284 -0.00315781 -0.00253392)
(1.20285 -0.00316231 -0.00257851)
(1.20165 -0.0024475 -0.00191789)
(1.20164 -0.00244531 -0.00195792)
(1.20185 -0.00248295 -0.00197304)
(1.20165 -0.00228142 -0.00181034)
(1.20184 -0.00230561 -0.00182391)
(1.20184 -0.00231359 -0.00184864)
(1.20105 -0.00170938 -0.00134394)
(1.20104 -0.00170894 -0.00136533)
(1.20119 -0.00174883 -0.00138741)
(1.20106 -0.00159567 -0.00126718)
(1.2012 -0.00162274 -0.00128653)
(1.20119 -0.00163062 -0.00129802)
(1.20068 -0.00117151 -0.000929682)
(1.20067 -0.00117145 -0.000940571)
(1.20077 -0.00120567 -0.000962077)
(1.20069 -0.00109598 -0.000876321)
(1.20079 -0.00112011 -0.000895411)
(1.20078 -0.00112637 -0.000899807)
(1.20045 -0.00078897 -0.00063467)
(1.20045 -0.000790199 -0.000639242)
(1.20051 -0.000816857 -0.00065811)
(1.20046 -0.000739252 -0.000597524)
(1.20053 -0.000758239 -0.00061417)
(1.20052 -0.000763905 -0.000614768)
(1.20031 -0.000525687 -0.000428259)
(1.2003 -0.000526673 -0.000429997)
(1.20035 -0.000546143 -0.000444839)
(1.20032 -0.000493378 -0.000402767)
(1.20036 -0.000507402 -0.000415757)
(1.20035 -0.000511445 -0.000414809)
(1.20022 -0.000349293 -0.000287539)
(1.20021 -0.000350355 -0.000287878)
(1.20024 -0.000363812 -0.000298868)
(1.20022 -0.000328332 -0.000270107)
(1.20025 -0.000338108 -0.000280056)
(1.20025 -0.00034147 -0.000278561)
(1.20016 -0.000227467 -0.000191142)
(1.20015 -0.000228854 -0.000190396)
(1.20017 -0.000238534 -0.000198473)
(1.20016 -0.000213504 -0.000179273)
(1.20018 -0.000220792 -0.000186415)
(1.20018 -0.000223486 -0.000184616)
(1.20012 -0.000145285 -0.000126603)
(1.20012 -0.000145939 -0.000126256)
(1.20013 -0.000152594 -0.000131957)
(1.20012 -0.000136414 -0.000118648)
(1.20013 -0.000141448 -0.000123832)
(1.20013 -0.000142862 -0.000122719)
(1.20009 -9.11088e-05 -8.17835e-05)
(1.20009 -9.15482e-05 -8.13605e-05)
(1.2001 -9.64583e-05 -8.55048e-05)
(1.2001 -8.48863e-05 -7.63325e-05)
(1.20011 -8.88715e-05 -8.01716e-05)
(1.20011 -8.992e-05 -7.9263e-05)
(1.20008 -4.88895e-05 -4.71057e-05)
(1.20008 -4.95122e-05 -4.69566e-05)
(1.20009 -5.35494e-05 -5.07619e-05)
(1.20009 -4.40225e-05 -4.28565e-05)
(1.20009 -4.79641e-05 -4.65581e-05)
(1.20009 -4.84912e-05 -4.61483e-05)
(1.2146 -0.00144686 -0.000906674)
(1.21376 -0.0020384 0.000304221)
(1.21309 -0.00238669 -6.3779e-05)
(1.21298 -0.00153154 0.000201198)
(1.21323 -0.00102541 -0.000404616)
(1.21096 -0.00501671 -0.00186893)
(1.21032 -0.00402847 -0.00352514)
(1.21116 -0.0043223 -0.001667)
(1.21062 -0.00394091 -0.00180458)
(1.21039 -0.00435433 -0.00200813)
(1.21028 -0.00326965 -0.00245337)
(1.2076 -0.00405971 -0.00259858)
(1.20708 -0.00389128 -0.00317767)
(1.20799 -0.00387002 -0.00252167)
(1.20726 -0.00365401 -0.00255578)
(1.20731 -0.00322121 -0.00263955)
(1.20759 -0.00352132 -0.00247641)
(1.20508 -0.00308977 -0.00239866)
(1.20498 -0.00314548 -0.00253055)
(1.20541 -0.0030444 -0.00240448)
(1.20491 -0.00286216 -0.00230159)
(1.20517 -0.002717 -0.00226341)
(1.20521 -0.00282274 -0.00229913)
(1.20348 -0.00235875 -0.00190994)
(1.20347 -0.00241509 -0.00196229)
(1.20373 -0.00235899 -0.00194061)
(1.2034 -0.00220182 -0.0018198)
(1.20363 -0.00213742 -0.00180686)
(1.20363 -0.0022034 -0.00183746)
(1.20239 -0.00174256 -0.00144826)
(1.20237 -0.00179084 -0.00147733)
(1.20257 -0.00176293 -0.00148034)
(1.20234 -0.00162911 -0.00137654)
(1.20252 -0.00159278 -0.00138277)
(1.20251 -0.00164805 -0.00139771)
(1.20163 -0.00124471 -0.00106636)
(1.20161 -0.00128218 -0.00108152)
(1.20176 -0.00127034 -0.0010949)
(1.2016 -0.00116558 -0.0010113)
(1.20173 -0.00114551 -0.00102534)
(1.20172 -0.00118854 -0.00103116)
(1.2011 -0.000869223 -0.000769577)
(1.20109 -0.000897427 -0.000776465)
(1.2012 -0.000893106 -0.000791916)
(1.20109 -0.000815071 -0.000728551)
(1.20118 -0.000804071 -0.000743745)
(1.20118 -0.000836514 -0.00074447)
(1.20075 -0.000594176 -0.000544588)
(1.20074 -0.000614235 -0.000547609)
(1.20081 -0.000614312 -0.000562605)
(1.20074 -0.000557607 -0.00051474)
(1.20081 -0.000552383 -0.000529037)
(1.2008 -0.000575606 -0.000527826)
(1.20051 -0.000399446 -0.000377239)
(1.20051 -0.000414006 -0.000378007)
(1.20056 -0.000414792 -0.000390805)
(1.20051 -0.000375467 -0.000355847)
(1.20056 -0.000372358 -0.000367722)
(1.20055 -0.000389161 -0.000365839)
(1.20036 -0.000266497 -0.00025954)
(1.20036 -0.000276638 -0.000259473)
(1.20039 -0.000277779 -0.000268917)
(1.20036 -0.0002506 -0.00024493)
(1.20039 -0.000249168 -0.000253753)
(1.20039 -0.00026078 -0.000251941)
(1.20025 -0.000175278 -0.00017678)
(1.20025 -0.000182027 -0.000176022)
(1.20028 -0.000183254 -0.000183477)
(1.20026 -0.000165104 -0.000166202)
(1.20028 -0.000164532 -0.000173002)
(1.20028 -0.000172258 -0.000171215)
(1.20019 -0.000113839 -0.000118)
(1.20019 -0.000118821 -0.000117266)
(1.2002 -0.000119585 -0.000122553)
(1.20019 -0.000106685 -0.000110703)
(1.2002 -0.000108096 -0.000115398)
(1.2002 -0.000111973 -0.000114052)
(1.20014 -6.74176e-05 -7.76363e-05)
(1.20015 -7.36833e-05 -7.68219e-05)
(1.20016 -7.20874e-05 -8.10301e-05)
(1.20015 -6.20611e-05 -7.24618e-05)
(1.20016 -6.60525e-05 -7.57231e-05)
(1.20016 -6.63199e-05 -7.51729e-05)
(1.20012 -3.44966e-05 -4.50244e-05)
(1.20012 -3.989e-05 -4.50493e-05)
(1.20013 -3.75734e-05 -4.82826e-05)
(1.20012 -3.09868e-05 -4.08971e-05)
(1.20013 -3.6654e-05 -4.4315e-05)
(1.20013 -3.37625e-05 -4.39383e-05)
(1.21098 -0.000779802 0.000107363)
(1.21118 -0.000407898 -0.000224368)
(1.21076 -0.000892158 -6.616e-05)
(1.21074 -0.000308687 -7.50605e-05)
(1.21066 -0.000629999 7.44468e-05)
(1.20977 -0.00190104 -0.00105035)
(1.20959 -0.00164145 -0.00144334)
(1.20987 -0.00167019 -0.000918802)
(1.20941 -0.00176266 -0.00113851)
(1.20949 -0.00117753 -0.00113411)
(1.20955 -0.00159155 -0.00101848)
(1.20757 -0.00180616 -0.00162662)
(1.20741 -0.00185476 -0.00179631)
(1.20782 -0.00172346 -0.00156061)
(1.20728 -0.00165735 -0.00162668)
(1.20748 -0.00133575 -0.00158225)
(1.20752 -0.00159215 -0.00156643)
(1.20554 -0.00145691 -0.00166107)
(1.20552 -0.0015891 -0.00170685)
(1.20579 -0.00143191 -0.00164852)
(1.20536 -0.00135789 -0.00161348)
(1.2056 -0.00118558 -0.00158627)
(1.2056 -0.00133639 -0.00159794)
(1.204 -0.00113912 -0.00143836)
(1.204 -0.00125188 -0.00145962)
(1.20421 -0.00113754 -0.00144901)
(1.20388 -0.00106551 -0.00138384)
(1.20407 -0.000943253 -0.0013854)
(1.20408 -0.00106494 -0.00138744)
(1.20283 -0.000852206 -0.00116034)
(1.20283 -0.00094125 -0.00117034)
(1.203 -0.000861099 -0.00117862)
(1.20275 -0.000798215 -0.00111026)
(1.2029 -0.000710515 -0.00112464)
(1.20291 -0.000806521 -0.00112138)
(1.20197 -0.000616337 -0.000894806)
(1.20198 -0.000683442 -0.000898472)
(1.2021 -0.000628286 -0.000913982)
(1.20192 -0.000577951 -0.000852955)
(1.20203 -0.00051685 -0.000870979)
(1.20204 -0.000588851 -0.000865821)
(1.20136 -0.000433457 -0.00066926)
(1.20137 -0.000483741 -0.000669615)
(1.20146 -0.000445208 -0.000686086)
(1.20133 -0.000406843 -0.000636195)
(1.20141 -0.000367128 -0.000653597)
(1.20142 -0.000417443 -0.00064793)
(1.20094 -0.000296667 -0.000488046)
(1.20094 -0.000334494 -0.00048725)
(1.20101 -0.000306877 -0.000502427)
(1.20092 -0.000278267 -0.000462959)
(1.20097 -0.000253848 -0.000478104)
(1.20098 -0.000287524 -0.000473269)
(1.20065 -0.000197634 -0.000346162)
(1.20066 -0.000226682 -0.000344813)
(1.2007 -0.000205808 -0.000357968)
(1.20064 -0.000185081 -0.000327682)
(1.20068 -0.000172627 -0.000339779)
(1.20068 -0.000192602 -0.000336463)
(1.20045 -0.000125664 -0.000242947)
(1.20046 -0.000150366 -0.000241327)
(1.20049 -0.000131896 -0.000251157)
(1.20045 -0.000117446 -0.000229613)
(1.20047 -0.000113282 -0.000238664)
(1.20048 -0.000123001 -0.000235712)
(1.20032 -7.85539e-05 -0.000166721)
(1.20033 -0.000100459 -0.000165539)
(1.20035 -8.26208e-05 -0.000172969)
(1.20032 -7.33371e-05 -0.000156865)
(1.20034 -7.64222e-05 -0.000163981)
(1.20034 -7.69955e-05 -0.000161524)
(1.20023 -4.69394e-05 -0.000112962)
(1.20024 -6.78007e-05 -0.000111379)
(1.20025 -4.99887e-05 -0.000116857)
(1.20023 -4.30627e-05 -0.000106141)
(1.20025 -5.1603e-05 -0.000110515)
(1.20025 -4.60756e-05 -0.000108919)
(1.20018 -2.05624e-05 -7.49074e-05)
(1.20018 -4.00882e-05 -7.33973e-05)
(1.20019 -2.31075e-05 -7.84824e-05)
(1.20018 -1.7251e-05 -7.0059e-05)
(1.20019 -3.03545e-05 -7.23325e-05)
(1.20019 -1.94993e-05 -7.29475e-05)
(1.20015 -2.76742e-06 -4.27902e-05)
(1.20015 -2.19074e-05 -4.23843e-05)
(1.20016 -4.084e-06 -4.58308e-05)
(1.20015 -1.12751e-06 -3.8614e-05)
(1.20015 -1.91796e-05 -4.18043e-05)
(1.20016 -2.18859e-06 -4.17196e-05)
(1.21395 -0.000662376 -0.000744722)
(1.21375 -0.000744729 -0.00100087)
(1.21309 -0.0008391 -0.0011293)
(1.21308 -0.000623566 -0.000860361)
(1.21294 -0.000521561 -0.000557659)
(1.21083 -0.00273732 -0.00313941)
(1.21087 -0.00272357 -0.00346196)
(1.21116 -0.0022649 -0.00286303)
(1.21052 -0.00241948 -0.00305002)
(1.21038 -0.00258737 -0.003072)
(1.21063 -0.0023253 -0.00261621)
(1.2076 -0.00336363 -0.00332413)
(1.20766 -0.00335317 -0.003368)
(1.20806 -0.00313017 -0.00315176)
(1.20735 -0.00317959 -0.00306672)
(1.2076 -0.00304264 -0.00302162)
(1.20771 -0.00301726 -0.00287378)
(1.20517 -0.00314289 -0.00274312)
(1.20522 -0.00312235 -0.00272566)
(1.20554 -0.00305501 -0.00266735)
(1.20503 -0.00295264 -0.00251229)
(1.20532 -0.00289534 -0.00247358)
(1.20536 -0.00289092 -0.00243107)
(1.20349 -0.00257216 -0.00207627)
(1.2035 -0.00256387 -0.00205867)
(1.20377 -0.00255755 -0.00204791)
(1.20342 -0.00241153 -0.0019013)
(1.20365 -0.00240139 -0.00189392)
(1.20367 -0.00240752 -0.00186131)
(1.20233 -0.00195431 -0.00151008)
(1.20233 -0.00195198 -0.00149109)
(1.20254 -0.00197236 -0.00150021)
(1.20229 -0.00183224 -0.00138102)
(1.20248 -0.00184346 -0.00138986)
(1.20248 -0.00185317 -0.00136025)
(1.20156 -0.00141906 -0.00106951)
(1.20155 -0.00141962 -0.00105136)
(1.2017 -0.00144694 -0.0010674)
(1.20154 -0.00133201 -0.000977368)
(1.20167 -0.00134989 -0.000991646)
(1.20167 -0.0013594 -0.000966402)
(1.20105 -0.00100388 -0.000745384)
(1.20104 -0.00100523 -0.000729798)
(1.20114 -0.00103061 -0.000746216)
(1.20104 -0.000943718 -0.000680405)
(1.20113 -0.000961294 -0.000695013)
(1.20113 -0.000969115 -0.000674341)
(1.20071 -0.000695129 -0.00051071)
(1.2007 -0.000696819 -0.00049785)
(1.20077 -0.000718205 -0.000512434)
(1.2007 -0.000654012 -0.000465176)
(1.20077 -0.00066929 -0.000478261)
(1.20076 -0.000675547 -0.000462122)
(1.20048 -0.000473276 -0.000344065)
(1.20048 -0.000474855 -0.000334066)
(1.20053 -0.000491237 -0.000345686)
(1.20048 -0.000446194 -0.000313084)
(1.20053 -0.000457883 -0.000323339)
(1.20052 -0.000462554 -0.000311362)
(1.20034 -0.000321169 -0.000231007)
(1.20034 -0.000322637 -0.000223123)
(1.20037 -0.00033442 -0.000231988)
(1.20034 -0.00030329 -0.000209581)
(1.20037 -0.000311923 -0.000217533)
(1.20037 -0.000315579 -0.000208662)
(1.20024 -0.000213035 -0.000153921)
(1.20024 -0.000214376 -0.000148387)
(1.20026 -0.000223324 -0.000154682)
(1.20024 -0.000200599 -0.000139668)
(1.20027 -0.000207395 -0.000145375)
(1.20026 -0.000210026 -0.000139701)
(1.20018 -0.000136384 -0.000102538)
(1.20018 -0.000137358 -9.8242e-05)
(1.2002 -0.000143515 -0.000102498)
(1.20018 -0.000128388 -9.25091e-05)
(1.2002 -0.000132963 -9.63576e-05)
(1.2002 -0.0001345 -9.29304e-05)
(1.20014 -8.66051e-05 -6.60624e-05)
(1.20014 -8.74024e-05 -6.22039e-05)
(1.20015 -9.16817e-05 -6.57931e-05)
(1.20014 -8.10452e-05 -5.78721e-05)
(1.20015 -8.45602e-05 -6.10721e-05)
(1.20015 -8.54729e-05 -5.99858e-05)
(1.20012 -4.7131e-05 -3.9129e-05)
(1.20012 -4.78786e-05 -3.58607e-05)
(1.20012 -5.16963e-05 -3.8428e-05)
(1.20012 -4.27679e-05 -3.26715e-05)
(1.20013 -4.6301e-05 -3.5278e-05)
(1.20013 -4.65479e-05 -3.591e-05)
(1.2112 -0.000636359 -3.83467e-05)
(1.2113 -0.000530881 -0.000392571)
(1.21089 -0.000761677 -0.000268643)
(1.21082 -0.000409295 -0.000254642)
(1.21078 -0.000498025 -6.6803e-05)
(1.20979 -0.00205687 -0.00146356)
(1.2097 -0.00193407 -0.00182016)
(1.2099 -0.0017433 -0.00126872)
(1.20942 -0.00193291 -0.00148693)
(1.20949 -0.00159807 -0.0014756)
(1.20957 -0.00171205 -0.00128231)
(1.20755 -0.0023462 -0.00196098)
(1.2075 -0.00234644 -0.00206408)
(1.20782 -0.00218595 -0.00182895)
(1.20728 -0.0021951 -0.00185649)
(1.20748 -0.00200177 -0.0017957)
(1.20754 -0.00207785 -0.00173417)
(1.20555 -0.00215515 -0.00182811)
(1.20556 -0.00219116 -0.00182756)
(1.20582 -0.00209117 -0.00176236)
(1.20539 -0.00202663 -0.00169511)
(1.20563 -0.00192719 -0.00165293)
(1.20565 -0.00198061 -0.00162861)
(1.20401 -0.0017947 -0.00148836)
(1.20402 -0.00183806 -0.00147556)
(1.20424 -0.00178059 -0.00145721)
(1.2039 -0.00168841 -0.00137431)
(1.20411 -0.00162827 -0.00136301)
(1.20412 -0.00168222 -0.00133673)
(1.20284 -0.00139549 -0.00114649)
(1.20284 -0.00143522 -0.00113053)
(1.20302 -0.0014051 -0.00113207)
(1.20277 -0.0013127 -0.00105574)
(1.20294 -0.00127743 -0.00106012)
(1.20294 -0.00132513 -0.0010343)
(1.20199 -0.00103707 -0.000852016)
(1.20199 -0.00106936 -0.000835996)
(1.20213 -0.00105465 -0.000845716)
(1.20195 -0.000976577 -0.000782797)
(1.20208 -0.000956033 -0.000793309)
(1.20207 -0.000994413 -0.000770425)
(1.20139 -0.00074797 -0.000617079)
(1.20138 -0.000772655 -0.000602924)
(1.20149 -0.000766663 -0.000614828)
(1.20136 -0.000704766 -0.000565895)
(1.20145 -0.000693354 -0.000577571)
(1.20145 -0.000722634 -0.000558628)
(1.20096 -0.00052514 -0.00043864)
(1.20096 -0.000543643 -0.000426506)
(1.20103 -0.00054198 -0.000438055)
(1.20094 -0.00049509 -0.000400975)
(1.20101 -0.000489142 -0.000412027)
(1.20101 -0.000510671 -0.000396891)
(1.20067 -0.00036244 -0.000304998)
(1.20067 -0.000375886 -0.000295417)
(1.20072 -0.000376002 -0.000305291)
(1.20066 -0.000342387 -0.000278843)
(1.20071 -0.000339221 -0.000287966)
(1.20071 -0.000354994 -0.000276544)
(1.20047 -0.000245812 -0.000211044)
(1.20047 -0.000255832 -0.000203432)
(1.20051 -0.000256282 -0.000211488)
(1.20047 -0.000232209 -0.000192054)
(1.2005 -0.000230327 -0.000199496)
(1.2005 -0.000241878 -0.000191072)
(1.20034 -0.000163962 -0.000142746)
(1.20033 -0.000170758 -0.000137067)
(1.20036 -0.000171464 -0.000142884)
(1.20033 -0.000154708 -0.00012929)
(1.20036 -0.000153935 -0.00013459)
(1.20035 -0.000161484 -0.000129337)
(1.20025 -0.000106264 -9.54017e-05)
(1.20025 -0.000111305 -9.11065e-05)
(1.20027 -0.000111787 -9.52149e-05)
(1.20025 -9.95268e-05 -8.56724e-05)
(1.20026 -0.000101088 -8.93493e-05)
(1.20026 -0.000104507 -8.69852e-05)
(1.20019 -6.32188e-05 -6.19611e-05)
(1.20019 -6.98364e-05 -5.74213e-05)
(1.2002 -6.7703e-05 -6.06488e-05)
(1.20019 -5.83642e-05 -5.3574e-05)
(1.20021 -6.32428e-05 -5.62413e-05)
(1.2002 -6.20392e-05 -5.58392e-05)
(1.20016 -3.21688e-05 -3.68433e-05)
(1.20016 -3.77982e-05 -3.33944e-05)
(1.20017 -3.54382e-05 -3.56584e-05)
(1.20016 -2.91488e-05 -3.03525e-05)
(1.20017 -3.41752e-05 -3.2969e-05)
(1.20017 -3.17434e-05 -3.39074e-05)
(1.20984 -0.000319424 -9.66519e-06)
(1.20986 -0.000234825 -0.000133953)
(1.20968 -0.000374516 -0.000128725)
(1.20966 -0.000164962 -7.28511e-05)
(1.20962 -0.000258214 -2.42935e-05)
(1.209 -0.000934193 -0.000839551)
(1.20895 -0.000920166 -0.000942571)
(1.20907 -0.00080451 -0.00071613)
(1.20874 -0.000893587 -0.000869462)
(1.20885 -0.00065913 -0.000802847)
(1.20885 -0.000794441 -0.000752451)
(1.20739 -0.00109492 -0.00126162)
(1.20738 -0.00116815 -0.00127436)
(1.20758 -0.00102256 -0.00116721)
(1.20717 -0.00103235 -0.00121341)
(1.20736 -0.000862566 -0.00115702)
(1.20737 -0.000977622 -0.00112587)
(1.20574 -0.00103004 -0.00128895)
(1.20575 -0.00112109 -0.00127117)
(1.20596 -0.000998793 -0.00123256)
(1.20558 -0.000971515 -0.00121166)
(1.20578 -0.000843206 -0.00118997)
(1.20579 -0.000948882 -0.0011551)
(1.20431 -0.000868939 -0.00113424)
(1.20432 -0.000953921 -0.0011117)
(1.20451 -0.000861135 -0.00110301)
(1.20419 -0.000818838 -0.00105716)
(1.20437 -0.000719036 -0.00105778)
(1.20438 -0.000815042 -0.00102228)
(1.20315 -0.000684125 -0.0009243)
(1.20316 -0.000755855 -0.000901688)
(1.20332 -0.000687811 -0.000907674)
(1.20306 -0.000644785 -0.000856996)
(1.20321 -0.000570872 -0.000867412)
(1.20322 -0.000649861 -0.000835635)
(1.20226 -0.000515005 -0.000717702)
(1.20227 -0.000571854 -0.000697566)
(1.20239 -0.000523253 -0.000709497)
(1.2022 -0.00048575 -0.000662907)
(1.20232 -0.000432932 -0.000676858)
(1.20233 -0.000494303 -0.000650272)
(1.2016 -0.000373957 -0.000537789)
(1.20161 -0.000418019 -0.000520592)
(1.2017 -0.000383203 -0.000533586)
(1.20156 -0.000352661 -0.000494676)
(1.20165 -0.000317257 -0.000508233)
(1.20166 -0.000361602 -0.000486603)
(1.20112 -0.000262802 -0.000392815)
(1.20113 -0.000297297 -0.000378892)
(1.2012 -0.000271375 -0.000390544)
(1.2011 -0.000247515 -0.000360049)
(1.20116 -0.000225632 -0.000371605)
(1.20117 -0.000255519 -0.00035486)
(1.20078 -0.000178595 -0.000281854)
(1.20079 -0.000206597 -0.000271195)
(1.20084 -0.000185631 -0.000280782)
(1.20077 -0.000167877 -0.000258041)
(1.20081 -0.000156869 -0.000267031)
(1.20082 -0.000174434 -0.000254996)
(1.20055 -0.000116079 -0.000197696)
(1.20056 -0.000139518 -0.000189986)
(1.20059 -0.000121875 -0.000197848)
(1.20054 -0.000108859 -0.00018034)
(1.20057 -0.000105499 -0.000188146)
(1.20058 -0.000114239 -0.000179521)
(1.2004 -7.31235e-05 -0.000134794)
(1.2004 -9.40432e-05 -0.000128803)
(1.20042 -7.70164e-05 -0.000134767)
(1.20039 -6.86017e-05 -0.000121965)
(1.20041 -7.16721e-05 -0.000127757)
(1.20041 -7.20755e-05 -0.00012213)
(1.20029 -4.40696e-05 -9.04877e-05)
(1.2003 -6.47889e-05 -8.53851e-05)
(1.20031 -4.71757e-05 -8.98497e-05)
(1.20029 -4.03735e-05 -8.09527e-05)
(1.20031 -4.99442e-05 -8.47382e-05)
(1.2003 -4.34224e-05 -8.21557e-05)
(1.20022 -1.73091e-05 -6.01955e-05)
(1.20023 -3.69566e-05 -5.43967e-05)
(1.20023 -2.01402e-05 -5.83182e-05)
(1.20022 -1.45199e-05 -5.17734e-05)
(1.20023 -2.93742e-05 -5.39523e-05)
(1.20023 -1.68659e-05 -5.41626e-05)
(1.20019 -7.09884e-07 -3.51494e-05)
(1.20019 -2.08977e-05 -3.16764e-05)
(1.20019 -2.07035e-06 -3.40022e-05)
(1.20019 8.69019e-07 -2.86444e-05)
(1.20019 -1.83058e-05 -3.10225e-05)
(1.2002 -5.63208e-08 -3.2487e-05)
(1.21131 -0.00035979 -0.000256445)
(1.21136 -0.000364067 -0.000310474)
(1.21108 -0.000513737 -0.000409676)
(1.21099 -0.000340806 -0.000276569)
(1.21102 -0.000325774 -0.000178055)
(1.21001 -0.0016484 -0.00130203)
(1.21006 -0.00164477 -0.0012816)
(1.21015 -0.00143998 -0.00110706)
(1.20969 -0.0016808 -0.0012473)
(1.2098 -0.00150888 -0.00114128)
(1.20989 -0.00150803 -0.000940893)
(1.20784 -0.00228967 -0.00159127)
(1.20788 -0.00228933 -0.0014993)
(1.20811 -0.00215467 -0.00141445)
(1.20757 -0.002233 -0.00140642)
(1.20779 -0.00211714 -0.00134601)
(1.20788 -0.00213641 -0.00118526)
(1.20575 -0.0023296 -0.00142198)
(1.20577 -0.00233929 -0.00131006)
(1.20603 -0.00227468 -0.00127768)
(1.20556 -0.00223795 -0.00121409)
(1.2058 -0.00218033 -0.00119028)
(1.20584 -0.00220991 -0.00107385)
(1.20406 -0.00203323 -0.00111997)
(1.20406 -0.00204653 -0.00101095)
(1.2043 -0.00203049 -0.00100417)
(1.20393 -0.00194024 -0.000934614)
(1.20415 -0.00192233 -0.000930419)
(1.20416 -0.00195278 -0.000851681)
(1.20281 -0.00162128 -0.000830268)
(1.2028 -0.00163344 -0.000736846)