/*--------------------------------*- C++ -*----------------------------------*\
| =========                 |                                                 |
| \\      /  F ield         | OpenFOAM: The Open Source CFD Toolbox           |
|  \\    /   O peration     | Version:  2012                                  |
|   \\  /    A nd           | Website:  www.openfoam.com                      |
|    \\/     M anipulation  |                                                 |
\*---------------------------------------------------------------------------*/
FoamFile
{
    version     2.0;
    format      ascii;
    class       volScalarField::Internal;
    location    "0.108/fluid";
    object      V0;
}
// * * * * * * * * * * * * * * * * * * * * * * * * * * * * * * * * * * * * * //

dimensions      [0 3 0 0 0 0 0];


value           nonuniform List<scalar> 
16422
(
4.28274e-05
4.24807e-05
4.24561e-05
4.24798e-05
4.24914e-05
4.24978e-05
4.25016e-05
4.25041e-05
4.25077e-05
4.25098e-05
4.25123e-05
4.25123e-05
4.25115e-05
4.2511e-05
4.25089e-05
4.25947e-05
4.25589e-05
4.25153e-05
4.25085e-05
4.25071e-05
4.25084e-05
4.25092e-05
4.2508e-05
4.2509e-05
4.25112e-05
4.2514e-05
4.25114e-05
4.251e-05
4.25101e-05
4.25083e-05
4.25726e-05
4.25661e-05
4.25463e-05
4.25324e-05
4.2524e-05
4.25195e-05
4.25166e-05
4.25135e-05
4.25133e-05
4.25158e-05
4.25145e-05
4.25115e-05
4.25103e-05
4.25089e-05
4.25077e-05
4.25436e-05
4.2476e-05
4.24745e-05
4.24891e-05
4.24974e-05
4.25e-05
4.25043e-05
4.25065e-05
4.25101e-05
4.25114e-05
4.25135e-05
4.25119e-05
4.25114e-05
4.25116e-05
4.25098e-05
4.2543e-05
4.2531e-05
4.25131e-05
4.25101e-05
4.25094e-05
4.25101e-05
4.25098e-05
4.25078e-05
4.25095e-05
4.25121e-05
4.25139e-05
4.25122e-05
4.25094e-05
4.25104e-05
4.25084e-05
4.25513e-05
4.25489e-05
4.25378e-05
4.25287e-05
4.25221e-05
4.25176e-05
4.25145e-05
4.25125e-05
4.25126e-05
4.25136e-05
4.25136e-05
4.25119e-05
4.25099e-05
4.25089e-05
4.25076e-05
4.25092e-05
4.25018e-05
4.24957e-05
4.2499e-05
4.25035e-05
4.25045e-05
4.2509e-05
4.25083e-05
4.25112e-05
4.25135e-05
4.25137e-05
4.25122e-05
4.25103e-05
4.25119e-05
4.25117e-05
4.25184e-05
4.25173e-05
4.25126e-05
4.2511e-05
4.25105e-05
4.25114e-05
4.25103e-05
4.25079e-05
4.25087e-05
4.25122e-05
4.25148e-05
4.2513e-05
4.25087e-05
4.25101e-05
4.25095e-05
4.25313e-05
4.25318e-05
4.25265e-05
4.2521e-05
4.25173e-05
4.25142e-05
4.25125e-05
4.2511e-05
4.25102e-05
4.25112e-05
4.25113e-05
4.25104e-05
4.25085e-05
4.25086e-05
4.25062e-05
4.25012e-05
4.25022e-05
4.25013e-05
4.25029e-05
4.25049e-05
4.25053e-05
4.25076e-05
4.25084e-05
4.25119e-05
4.25138e-05
4.25136e-05
4.25136e-05
4.25103e-05
4.25125e-05
4.25104e-05
4.2508e-05
4.25097e-05
4.25097e-05
4.25098e-05
4.25098e-05
4.25106e-05
4.25104e-05
4.2506e-05
4.25097e-05
4.2513e-05
4.2513e-05
4.25127e-05
4.25085e-05
4.25094e-05
4.25096e-05
4.25164e-05
4.25172e-05
4.25161e-05
4.25141e-05
4.25126e-05
4.25109e-05
4.25101e-05
4.25084e-05
4.25099e-05
4.2511e-05
4.251e-05
4.25086e-05
4.2508e-05
4.25073e-05
4.25067e-05
5.33513e-06
4.24402e-05
5.34244e-06
4.24523e-05
4.25181e-05
4.24227e-05
4.23585e-05
4.24183e-05
4.27697e-05
4.2605e-05
4.26192e-05
4.25949e-05
3.26319e-08
3.36861e-08
4.23655e-05
4.24205e-05
4.24095e-05
4.24453e-05
4.26022e-05
4.26152e-05
4.25876e-05
4.2551e-05
4.25046e-05
4.25575e-05
4.25464e-05
4.25642e-05
4.24641e-05
4.25142e-05
4.25015e-05
3.36862e-08
6.8024e-08
5.38721e-06
3.37496e-08
4.19064e-05
4.31812e-05
6.81909e-08
3.47126e-08
6.80227e-08
3.72843e-08
5.39144e-06
5.35807e-06
3.37497e-08
5.39932e-06
3.2937e-08
4.19272e-05
4.32076e-05
4.2441e-05
6.81905e-08
4.2e-05
4.31323e-05
7.1431e-08
8.13809e-08
6.62289e-08
7.69632e-08
5.32734e-06
4.27652e-05
4.27468e-05
8.13974e-08
4.30572e-05
4.29603e-05
6.91747e-08
4.23947e-05
4.22763e-05
4.25563e-05
4.206e-05
4.27409e-05
4.23959e-05
3.36772e-08
3.36872e-08
5.15732e-06
6.72984e-07
6.64558e-07
5.56545e-06
6.69381e-07
5.15769e-06
5.5111e-06
5.30194e-06
6.79133e-08
5.19644e-06
5.17336e-06
6.79805e-08
5.15723e-06
5.16044e-06
6.75732e-07
3.37253e-08
5.69293e-06
5.62564e-06
6.80015e-07
6.68224e-07
6.73114e-07
6.64729e-07
6.76461e-07
6.72967e-07
3.37423e-08
5.57012e-06
6.69544e-07
5.58276e-06
6.7099e-07
6.87424e-07
6.79399e-07
6.75194e-07
5.311e-06
6.79711e-08
5.20931e-06
5.46064e-06
5.17491e-06
5.5109e-06
5.30686e-06
5.30666e-06
6.81113e-08
5.15758e-06
5.51295e-06
5.30258e-06
5.16016e-06
5.51553e-06
1.16918e-07
5.44685e-06
5.49344e-06
8.82532e-08
5.43004e-06
5.42916e-06
5.20054e-06
5.24934e-06
5.24072e-06
5.38973e-06
1.16997e-07
5.50088e-06
5.44297e-06
5.3785e-06
5.49237e-06
5.40285e-06
5.29897e-06
8.82672e-08
6.62622e-07
5.43071e-06
5.27727e-06
6.63744e-07
5.42923e-06
5.28258e-06
5.21244e-06
5.36204e-06
5.25002e-06
5.28887e-06
5.24339e-06
5.33387e-06
7.1362e-07
3.27628e-08
7.79291e-07
7.53996e-07
7.38836e-07
7.62829e-08
7.62614e-08
6.78928e-07
3.36878e-08
7.42804e-07
6.78766e-07
7.43046e-07
7.84405e-08
8.1217e-08
7.62541e-08
7.6264e-08
6.78653e-07
3.36854e-08
7.42817e-07
6.78715e-07
7.42691e-07
6.60654e-07
6.80231e-08
7.19311e-07
6.23297e-07
7.192e-07
6.23351e-07
6.60718e-07
7.6251e-08
7.62619e-08
6.78106e-07
3.37494e-08
7.41735e-07
7.41632e-07
6.78155e-07
6.60817e-07
6.81918e-08
6.23833e-07
7.19254e-07
6.23877e-07
7.19174e-07
6.60875e-07
6.58678e-07
5.7584e-08
6.71152e-07
6.38108e-07
6.95087e-07
6.30349e-07
6.55487e-07
6.60904e-07
6.80194e-08
7.19294e-07
6.23233e-07
7.19477e-07
6.60658e-07
6.23335e-07
7.18176e-07
3.36095e-08
7.87089e-07
7.65987e-07
7.41937e-07
7.62825e-08
7.62594e-08
6.78333e-07
3.375e-08
7.41706e-07
6.78208e-07
7.41888e-07
7.84456e-08
8.12568e-08
6.60819e-07
5.51795e-08
6.45174e-07
6.73159e-07
6.33038e-07
6.95508e-07
6.59619e-07
6.60948e-07
6.81859e-08
6.23753e-07
7.19169e-07
6.6078e-07
6.23822e-07
7.19224e-07
6.98284e-07
7.24543e-07
1.24113e-07
6.48179e-07
6.80968e-07
6.81355e-07
7.47485e-07
6.44422e-07
9.33834e-08
7.16807e-07
7.30627e-08
6.50847e-07
7.30308e-07
6.51765e-07
6.56862e-07
6.38629e-07
6.25349e-07
6.52181e-07
6.58044e-07
6.41318e-07
6.96715e-07
1.24166e-07
7.19874e-07
6.47147e-07
6.79931e-07
7.47048e-07
6.78737e-07
6.44527e-07
9.33743e-08
7.16951e-07
6.50976e-07
7.31019e-08
7.30389e-07
6.53349e-07
6.44765e-07
6.59732e-07
6.27129e-07
6.55941e-07
6.42966e-07
6.58176e-07
6.90284e-07
3.32916e-08
7.4365e-07
6.82088e-07
7.4529e-07
6.55952e-07
9.09271e-08
8.80733e-08
6.71434e-07
6.36374e-07
8.54928e-08
6.28625e-07
8.69524e-08
7.77017e-08
8.51619e-08
8.5192e-08
7.76814e-08
7.62776e-08
7.63744e-08
7.76962e-08
8.53299e-08
8.51855e-08
7.77999e-08
6.79166e-07
3.36876e-08
7.43541e-07
6.79883e-07
7.43074e-07
6.25085e-07
8.52575e-08
8.52881e-08
6.24918e-07
6.25414e-07
8.54316e-08
6.26236e-07
8.52815e-08
7.98559e-08
8.93492e-08
8.79094e-08
8.11299e-08
7.74849e-08
7.63984e-08
7.89335e-08
8.53869e-08
8.68178e-08
7.78297e-08
7.76734e-08
8.51664e-08
7.76843e-08
8.51503e-08
3.36854e-08
6.2477e-07
8.52619e-08
6.24835e-07
8.52512e-08
6.80236e-08
7.76705e-08
8.51608e-08
8.51495e-08
7.76823e-08
8.51499e-08
3.37494e-08
6.24621e-07
8.52556e-08
8.52442e-08
6.24676e-07
8.52447e-08
6.81924e-08
6.61166e-07
6.09516e-08
7.17313e-07
6.22032e-07
7.11152e-07
6.60404e-07
6.28106e-07
6.60686e-07
6.80153e-08
7.19255e-07
6.22461e-07
7.19332e-07
6.60795e-07
6.23022e-07
6.91833e-07
3.34229e-08
7.42629e-07
6.81942e-07
7.47118e-07
6.57194e-07
9.09411e-08
8.80826e-08
6.72515e-07
6.36919e-07
8.5492e-08
6.28676e-07
8.69589e-08
7.77005e-08
8.51578e-08
7.76791e-08
8.51898e-08
7.62775e-08
7.63741e-08
7.76962e-08
8.533e-08
8.51852e-08
7.77994e-08
6.7856e-07
3.37489e-08
7.42215e-07
6.79319e-07
7.41837e-07
6.24924e-07
8.52526e-08
6.24762e-07
8.52846e-08
6.25263e-07
8.54291e-08
6.2612e-07
8.5279e-08
7.98525e-08
8.93435e-08
8.79145e-08
8.11029e-08
7.7488e-08
7.6398e-08
7.89323e-08
8.5388e-08
8.68212e-08
7.78286e-08
6.61358e-07
5.9639e-08
6.21755e-07
7.15794e-07
6.27764e-07
7.09775e-07
6.59975e-07
6.60603e-07
6.81814e-08
6.22695e-07
7.18454e-07
6.23429e-07
7.18888e-07
6.60522e-07
6.74737e-07
1.22363e-07
6.7444e-07
7.10978e-07
6.30164e-07
6.65716e-07
7.28694e-07
6.50279e-07
9.02852e-08
8.03838e-08
7.11086e-07
7.39793e-08
6.58357e-07
7.23215e-07
6.74453e-07
1.2237e-07
6.74768e-07
7.11101e-07
6.30395e-07
7.28709e-07
6.65722e-07
6.5016e-07
9.02561e-08
8.03756e-08
7.11097e-07
7.39599e-08
7.23155e-07
6.58229e-07
4.29841e-05
4.28148e-05
4.29699e-05
4.2752e-05
4.27153e-05
4.27793e-05
4.26946e-05
4.25014e-05
4.25414e-05
4.25347e-05
4.2513e-05
4.25058e-05
4.25181e-05
4.25176e-05
5.3504e-06
5.34718e-06
5.32749e-06
5.35473e-06
5.35994e-06
5.35392e-06
5.35444e-06
5.36487e-06
5.33666e-06
5.37902e-06
4.29487e-05
4.27016e-05
4.27751e-05
9.70073e-08
3.15591e-08
8.90985e-08
9.88278e-08
1.06157e-07
8.75249e-08
3.36849e-08
1.10065e-07
8.75237e-08
1.10063e-07
4.26079e-05
4.26521e-05
4.28009e-05
4.26765e-05
4.25656e-05
4.26203e-05
4.26053e-05
8.75193e-08
3.36847e-08
1.10072e-07
8.75261e-08
1.10055e-07
8.26515e-08
6.80232e-08
9.79796e-08
9.68895e-08
9.79601e-08
9.69106e-08
8.26489e-08
8.736e-08
3.3748e-08
1.10032e-07
1.10015e-07
8.7366e-08
8.27703e-08
6.81896e-08
9.71136e-08
9.79404e-08
9.71313e-08
9.7923e-08
8.27664e-08
7.80725e-08
4.56773e-08
7.3368e-08
8.60758e-08
8.0036e-08
9.32609e-08
7.75896e-08
8.26602e-08
6.80202e-08
9.79723e-08
9.68808e-08
9.79623e-08
8.26423e-08
9.69043e-08
9.97601e-08
3.79623e-08
9.53672e-08
1.06585e-07
1.1038e-07
5.38292e-06
5.3661e-06
5.40715e-06
5.3688e-06
5.37571e-06
5.41023e-06
5.38084e-06
8.73647e-08
3.37487e-08
1.10025e-07
8.73638e-08
1.10022e-07
7.8554e-08
3.71304e-08
8.82837e-08
7.38497e-08
9.4858e-08
7.78903e-08
7.89048e-08
8.27718e-08
6.81884e-08
9.71062e-08
9.79325e-08
8.27568e-08
9.7128e-08
9.79214e-08
9.20345e-08
9.8695e-08
7.29196e-08
6.53918e-08
1.31348e-07
7.80514e-08
8.36712e-08
9.20281e-08
8.83982e-08
9.18758e-08
1.0078e-07
8.84583e-08
9.59745e-08
7.78604e-08
7.36647e-08
9.75313e-08
7.06865e-08
7.81614e-08
7.70353e-08
7.66598e-08
9.3696e-08
6.98612e-08
1.03132e-07
6.65653e-08
1.35796e-07
8.46897e-08
7.94252e-08
5.31517e-06
5.30866e-06
5.29973e-06
5.34242e-06
5.32041e-06
5.29137e-06
5.30984e-06
9.20897e-08
8.84297e-08
9.18901e-08
8.84884e-08
1.00917e-07
9.59974e-08
7.87696e-08
9.98372e-08
7.63154e-08
7.23511e-08
7.98959e-08
7.77261e-08
7.83634e-08
8.76096e-08
3.36428e-08
1.09969e-07
8.75444e-08
1.09799e-07
4.00674e-08
4.7279e-08
3.56812e-08
3.56466e-08
8.75248e-08
3.36861e-08
1.10059e-07
8.75409e-08
1.10048e-07
3.5626e-08
3.56261e-08
3.56305e-08
3.56349e-08
3.5625e-08
3.56254e-08
6.52241e-07
6.90086e-07
6.72696e-07
6.64923e-07
6.64611e-07
6.89971e-07
6.52376e-07
6.37429e-07
6.64229e-07
6.57378e-07
6.67315e-07
6.5708e-07
6.67163e-07
6.37564e-07
3.56229e-08
3.56234e-08
8.22145e-08
6.76982e-08
9.77454e-08
9.64813e-08
9.73432e-08
8.23986e-08
9.60422e-08
8.25958e-08
6.79993e-08
9.79015e-08
9.66909e-08
9.79137e-08
8.25521e-08
9.68008e-08
8.75743e-08
3.36803e-08
1.09919e-07
8.74199e-08
1.09769e-07
4.01018e-08
4.73542e-08
3.56809e-08
3.56452e-08
6.3884e-07
6.70329e-07
6.66201e-07
6.60922e-07
6.58937e-07
6.68695e-07
6.40357e-07
6.52907e-07
6.90238e-07
6.65071e-07
6.73793e-07
6.65783e-07
6.52549e-07
6.90566e-07
6.38158e-07
6.65467e-07
6.57533e-07
6.67521e-07
6.58247e-07
6.37756e-07
6.67956e-07
6.53539e-07
6.685e-07
6.74441e-07
6.92473e-07
6.66462e-07
6.91134e-07
6.54977e-07
8.73631e-08
3.37455e-08
1.10009e-07
8.73865e-08
1.10002e-07
3.56242e-08
3.56235e-08
3.56291e-08
3.5634e-08
6.50792e-07
6.73807e-07
6.63669e-07
6.75628e-07
6.8128e-07
6.43613e-07
6.68574e-07
6.80776e-07
7.31173e-07
6.91654e-07
6.79872e-07
7.21679e-07
6.82639e-07
6.87723e-07
6.6605e-07
6.71371e-07
6.95667e-07
6.8535e-07
7.04252e-07
6.58176e-07
6.7689e-07
6.6156e-07
6.79478e-07
6.86619e-07
6.69648e-07
6.91755e-07
6.72935e-07
6.58766e-07
8.20826e-08
6.7539e-08
9.66393e-08
9.75574e-08
9.6091e-08
9.69785e-08
8.23838e-08
8.26684e-08
6.81552e-08
9.68933e-08
9.779e-08
9.70136e-08
9.78401e-08
8.25914e-08
7.74544e-08
1.34936e-07
6.36223e-08
1.00554e-07
7.34003e-08
7.96583e-08
1.05149e-07
8.83258e-08
8.49205e-08
8.21171e-08
9.47996e-08
9.11302e-08
8.51982e-08
9.36724e-08
7.74958e-08
1.34972e-07
6.36726e-08
1.00582e-07
7.34723e-08
1.05162e-07
7.96839e-08
8.82955e-08
8.49097e-08
8.21077e-08
9.48082e-08
9.10702e-08
9.36651e-08
8.51956e-08
6.4556e-07
6.47752e-07
6.56794e-07
6.61008e-07
6.49945e-07
6.34255e-07
6.56833e-07
6.4489e-07
6.59987e-07
6.49172e-07
6.58239e-07
6.28804e-07
6.54963e-07
6.56105e-07
9.27468e-08
3.19056e-08
1.06625e-07
1.0417e-07
8.95019e-08
8.75135e-08
9.23725e-08
9.83925e-08
8.07179e-08
8.28098e-08
7.40396e-08
7.96682e-08
7.66161e-08
3.50451e-08
7.62666e-08
9.72214e-08
5.53277e-08
9.72055e-08
5.53253e-08
3.50467e-08
8.39131e-08
8.39179e-08
3.50451e-08
7.62691e-08
9.72014e-08
5.53242e-08
3.50451e-08
9.72081e-08
5.53247e-08
8.39252e-08
8.39143e-08
8.7522e-08
3.36855e-08
1.10079e-07
1.10058e-07
8.75296e-08
7.70178e-08
7.17681e-08
7.70166e-08
7.17698e-08
7.70163e-08
7.17722e-08
7.70215e-08
7.17678e-08
3.69307e-08
9.98974e-08
5.65498e-08
8.01795e-08
5.82347e-08
3.58681e-08
1.02333e-07
9.51736e-08
8.99187e-08
8.61367e-08
8.80815e-08
3.91834e-08
8.15547e-08
7.45444e-08
1.09712e-07
4.56983e-08
6.22435e-08
1.05296e-07
3.50452e-08
7.62587e-08
9.72014e-08
5.53223e-08
9.72017e-08
3.50452e-08
5.53228e-08
8.39161e-08
8.39107e-08
3.50446e-08
7.62571e-08
9.7204e-08
5.53239e-08
3.50451e-08
9.7199e-08
5.53223e-08
8.39121e-08
8.3914e-08
8.75223e-08
3.36844e-08
1.10061e-07
1.10059e-07
8.75222e-08
7.70138e-08
7.17688e-08
7.70178e-08
7.17659e-08
7.70161e-08
7.17666e-08
7.70153e-08
7.17679e-08
8.26583e-08
6.80227e-08
9.79703e-08
9.68893e-08
9.79647e-08
9.69138e-08
8.26411e-08
3.50448e-08
9.71991e-08
5.53231e-08
7.62578e-08
9.72006e-08
3.50455e-08
5.53234e-08
8.39156e-08
8.39097e-08
8.39116e-08
8.39136e-08
3.50443e-08
7.62554e-08
9.72024e-08
5.53251e-08
3.50455e-08
9.71973e-08
5.53227e-08
8.73633e-08
3.37485e-08
1.10023e-07
1.1002e-07
8.73622e-08
7.69118e-08
7.17347e-08
7.69152e-08
7.17324e-08
7.69137e-08
7.17333e-08
7.69133e-08
7.1734e-08
8.27761e-08
6.81907e-08
9.71137e-08
9.79372e-08
9.71367e-08
9.79277e-08
8.27612e-08
7.95941e-08
5.25428e-08
9.04548e-08
9.68509e-08
8.65123e-08
9.56557e-08
8.0897e-08
8.26501e-08
6.80189e-08
9.79776e-08
9.68709e-08
9.79553e-08
9.68944e-08
8.26513e-08
9.5406e-08
3.62577e-08
1.09143e-07
1.10929e-07
9.11732e-08
8.86618e-08
9.26392e-08
9.904e-08
8.1237e-08
8.39777e-08
7.4412e-08
8.04651e-08
7.71288e-08
3.50461e-08
5.53285e-08
7.62662e-08
9.72208e-08
9.7205e-08
5.53265e-08
3.50471e-08
8.39129e-08
8.39174e-08
3.50461e-08
7.62683e-08
9.72002e-08
5.53253e-08
3.50461e-08
9.72071e-08
5.53259e-08
8.39256e-08
8.39143e-08
8.73622e-08
3.37488e-08
1.10034e-07
1.10017e-07
8.73685e-08
7.69155e-08
7.17338e-08
7.69143e-08
7.17352e-08
7.6914e-08
7.17378e-08
7.69192e-08
7.17344e-08
3.69478e-08
5.65527e-08
9.99122e-08
8.01905e-08
5.82398e-08
3.58755e-08
1.02367e-07
9.52078e-08
8.99519e-08
8.61465e-08
8.81001e-08
3.92238e-08
8.15739e-08
7.45655e-08
1.09859e-07
4.57908e-08
6.225e-08
1.05367e-07
7.98185e-08
4.49933e-08
9.79068e-08
8.89794e-08
9.71304e-08
8.39086e-08
8.10583e-08
8.27577e-08
6.81868e-08
9.70951e-08
9.79299e-08
9.71172e-08
9.79132e-08
8.27521e-08
8.78097e-08
1.12959e-07
1.01208e-07
1.11045e-07
1.02571e-07
9.94111e-08
8.85606e-08
9.53515e-08
9.38562e-08
1.09913e-07
9.95222e-08
1.14627e-07
9.92681e-08
9.57578e-08
7.47145e-08
9.56457e-08
7.81416e-08
5.73613e-08
7.74759e-08
7.21888e-08
7.62937e-08
8.16975e-08
9.58516e-08
6.69298e-08
7.50661e-08
7.69085e-08
8.84635e-08
1.1253e-07
1.01454e-07
1.11053e-07
1.03741e-07
9.91847e-08
8.86818e-08
9.53961e-08
9.38761e-08
1.09873e-07
9.95184e-08
1.14727e-07
9.92837e-08
9.57428e-08
7.47548e-08
9.56712e-08
5.74019e-08
7.7503e-08
7.22405e-08
7.63151e-08
8.17178e-08
9.59853e-08
6.70123e-08
7.50762e-08
7.69676e-08
8.77352e-08
3.35303e-08
1.08291e-07
8.82487e-08
1.09217e-07
7.71909e-08
7.1814e-08
7.19291e-08
7.7069e-08
7.74377e-08
7.27892e-08
7.81613e-08
7.21494e-08
6.37086e-08
8.71765e-08
7.53751e-08
7.63703e-08
3.76616e-08
3.65294e-08
5.94347e-08
6.91908e-08
7.14027e-08
5.76005e-08
5.63181e-08
6.74084e-08
6.7509e-08
5.62641e-08
3.57746e-08
3.60072e-08
5.64573e-08
6.82025e-08
6.76821e-08
5.68103e-08
7.0287e-08
8.05863e-08
7.76868e-08
6.63096e-08
6.63079e-08
8.05669e-08
7.02893e-08
7.28931e-08
7.66053e-08
8.51717e-08
8.31086e-08
8.31185e-08
7.66072e-08
7.28914e-08
7.28941e-08
8.31332e-08
8.51672e-08
7.66122e-08
8.31134e-08
7.28975e-08
7.66076e-08
7.02855e-08
7.76898e-08
6.63056e-08
8.05606e-08
6.63066e-08
8.05708e-08
7.02842e-08
3.50481e-08
7.63073e-08
9.72158e-08
5.53285e-08
3.50468e-08
9.72385e-08
5.53322e-08
8.39788e-08
8.39315e-08
3.50493e-08
7.63061e-08
9.72902e-08
5.53463e-08
9.72327e-08
5.53354e-08
3.50528e-08
8.39198e-08
8.39382e-08
7.02967e-08
8.05821e-08
7.77286e-08
6.63111e-08
8.06182e-08
7.02908e-08
6.63163e-08
7.29118e-08
7.6655e-08
8.52297e-08
8.32502e-08
8.31647e-08
7.66291e-08
7.2934e-08
7.29047e-08
8.31281e-08
8.52274e-08
7.66128e-08
8.31646e-08
7.28981e-08
7.66215e-08
7.03032e-08
7.77282e-08
8.07014e-08
6.63369e-08
8.06178e-08
6.63216e-08
7.03224e-08
8.75287e-08
3.36867e-08
1.10067e-07
8.75255e-08
1.10065e-07
7.70233e-08
7.17952e-08
7.70464e-08
7.17739e-08
7.70253e-08
7.17691e-08
7.70182e-08
7.17773e-08
5.62341e-08
6.73604e-08
6.73617e-08
5.62342e-08
3.5626e-08
3.56269e-08
5.62345e-08
6.73655e-08
6.73603e-08
5.62357e-08
5.62399e-08
6.73926e-08
5.62478e-08
6.73698e-08
3.56291e-08
3.56271e-08
5.62386e-08
6.73642e-08
6.73721e-08
5.62362e-08
7.39667e-08
8.29309e-08
6.78205e-08
8.14569e-08
6.96764e-08
7.20588e-08
8.44907e-08
7.98582e-08
9.37784e-08
9.05304e-08
8.65724e-08
8.30264e-08
8.80365e-08
9.1333e-08
7.68057e-08
8.56325e-08
7.88012e-08
8.95023e-08
8.0642e-08
7.48963e-08
8.71926e-08
7.73173e-08
8.24546e-08
8.53189e-08
8.38486e-08
7.32947e-08
8.53747e-08
8.9089e-08
3.51751e-08
7.68077e-08
9.86e-08
5.58476e-08
3.53858e-08
9.778e-08
5.55374e-08
8.40001e-08
8.41731e-08
3.50933e-08
7.65963e-08
9.73139e-08
5.53632e-08
3.50623e-08
9.75164e-08
5.54172e-08
8.50799e-08
8.43979e-08
7.06438e-08
8.19588e-08
7.8258e-08
6.698e-08
8.12296e-08
7.11057e-08
6.6593e-08
7.30826e-08
7.67025e-08
8.56673e-08
8.32957e-08
7.6829e-08
7.29734e-08
8.3547e-08
7.33187e-08
8.46055e-08
8.59864e-08
7.76882e-08
7.70983e-08
8.38329e-08
7.38503e-08
7.04462e-08
7.80382e-08
8.07397e-08
6.63612e-08
7.03544e-08
8.0976e-08
6.64348e-08
7.0283e-08
7.76795e-08
8.05526e-08
6.63029e-08
6.6304e-08
8.05583e-08
7.02815e-08
7.28898e-08
7.66054e-08
8.31113e-08
8.51556e-08
7.28915e-08
8.31057e-08
7.66028e-08
7.02824e-08
7.76778e-08
6.63052e-08
8.05632e-08
6.63033e-08
7.02842e-08
8.05564e-08
7.28908e-08
8.31003e-08
8.51577e-08
7.66024e-08
8.31096e-08
7.28889e-08
7.66026e-08
1.10067e-07
8.7525e-08
7.17676e-08
7.70168e-08
5.62333e-08
6.73609e-08
6.73579e-08
5.62339e-08
3.56255e-08
3.56249e-08
5.6234e-08
6.7359e-08
6.73597e-08
5.62337e-08
6.73598e-08
5.62336e-08
9.79766e-08
9.68949e-08
8.26479e-08
7.02835e-08
6.63026e-08
8.05523e-08
7.76776e-08
6.63039e-08
7.02825e-08
8.05557e-08
7.28899e-08
7.66027e-08
8.51509e-08
8.31078e-08
8.31012e-08
7.66003e-08
7.28918e-08
7.28902e-08
8.30999e-08
7.65999e-08
8.51531e-08
7.28896e-08
8.31035e-08
7.66001e-08
7.02833e-08
7.76753e-08
6.63059e-08
8.05619e-08
6.63035e-08
8.05541e-08
7.02851e-08
8.05526e-08
7.02824e-08
8.31004e-08
7.65998e-08
7.28895e-08
1.10026e-07
8.73635e-08
7.17337e-08
7.69142e-08
5.62323e-08
6.73544e-08
6.73519e-08
5.62328e-08
3.56233e-08
3.56234e-08
5.62329e-08
6.73526e-08
6.73533e-08
5.62329e-08
3.56232e-08
6.73528e-08
5.62328e-08
9.71184e-08
9.79416e-08
8.27677e-08
8.21776e-08
6.52767e-08
9.32365e-08
9.81565e-08
8.21159e-08
9.57588e-08
9.68725e-08
8.26383e-08
6.80096e-08
9.79599e-08
9.68491e-08
8.26301e-08
9.79461e-08
9.685e-08
8.79353e-08
3.3568e-08
1.08941e-07
8.89825e-08
1.09312e-07
7.71816e-08
7.17976e-08
7.1942e-08
7.69995e-08
7.75652e-08
7.29953e-08
7.85547e-08
7.22317e-08
6.37686e-08
8.72912e-08
7.55656e-08
7.63991e-08
3.76795e-08
3.65384e-08
5.95045e-08
6.93576e-08
7.1614e-08
5.76569e-08
5.63269e-08
6.74127e-08
6.75286e-08
5.62665e-08
3.57758e-08
3.6011e-08
5.6476e-08
6.83059e-08
6.77331e-08
5.6846e-08
7.02873e-08
6.63094e-08
7.76855e-08
8.05862e-08
6.63077e-08
7.02903e-08
8.05665e-08
7.28937e-08
7.66029e-08
8.3106e-08
8.51691e-08
7.28923e-08
8.31161e-08
7.66053e-08
7.02863e-08
7.76882e-08
6.63052e-08
8.05597e-08
6.63063e-08
7.02853e-08
8.05696e-08
7.28945e-08
8.31313e-08
7.66104e-08
8.51655e-08
7.28985e-08
8.31122e-08
7.6606e-08
3.50493e-08
5.53294e-08
9.72143e-08
7.6307e-08
3.50472e-08
5.5334e-08
9.72377e-08
8.39789e-08
8.39312e-08
8.39184e-08
8.39382e-08
3.50506e-08
7.63045e-08
5.53485e-08
9.72894e-08
5.53372e-08
9.72314e-08
3.50541e-08
7.02988e-08
6.6311e-08
8.0582e-08
7.7728e-08
8.06182e-08
7.02924e-08
6.6317e-08
7.29144e-08
7.66539e-08
8.52311e-08
8.32472e-08
8.31641e-08
7.66287e-08
7.29359e-08
7.29067e-08
8.31265e-08
8.52255e-08
7.66114e-08
8.31623e-08
7.28998e-08
7.66204e-08
7.03046e-08
7.77266e-08
8.0702e-08
6.6338e-08
8.06181e-08
6.63213e-08
7.03249e-08
8.73677e-08
3.37471e-08
1.10022e-07
8.73636e-08
1.10021e-07
7.69224e-08
7.17657e-08
7.69537e-08
7.1741e-08
7.69232e-08
7.17357e-08
7.69161e-08
7.17424e-08
5.62338e-08
6.73541e-08
6.73554e-08
5.62335e-08
3.5625e-08
3.56259e-08
5.62342e-08
6.73591e-08
6.73548e-08
5.62353e-08
5.62398e-08
6.73909e-08
5.62484e-08
6.73653e-08
3.56275e-08
3.56261e-08
5.62377e-08
6.7358e-08
6.73653e-08
5.62355e-08
7.39521e-08
6.78158e-08
8.29266e-08
8.14497e-08
6.96648e-08
7.20534e-08
8.44798e-08
7.98288e-08
9.37601e-08
9.05291e-08
8.65381e-08
8.3015e-08
8.80129e-08
9.12691e-08
7.67939e-08
8.56261e-08
7.88021e-08
8.95062e-08
8.06385e-08
7.48924e-08
8.71815e-08
7.72844e-08
8.24372e-08
8.52351e-08
8.38149e-08
7.32616e-08
8.53514e-08
8.9032e-08
3.51767e-08
5.58505e-08
9.86072e-08
7.68088e-08
3.53901e-08
5.55389e-08
9.77836e-08
8.39997e-08
8.41736e-08
8.50851e-08
8.44004e-08
3.50943e-08
7.6597e-08
5.5365e-08
9.73128e-08
3.50636e-08
5.54182e-08
9.75175e-08
7.0644e-08
6.69783e-08
8.19596e-08
7.82577e-08
8.1231e-08
7.1105e-08
6.65923e-08
7.3085e-08
7.67023e-08
8.5669e-08
8.32951e-08
7.68299e-08
7.29757e-08
8.35459e-08
7.33191e-08
8.46029e-08
8.59915e-08
7.76882e-08
7.70988e-08
8.3832e-08
7.385e-08
7.0448e-08
7.80379e-08
8.0742e-08
6.6362e-08
7.03566e-08
8.09785e-08
6.64343e-08
8.18804e-08
6.45251e-08
9.81845e-08
9.22396e-08
8.19399e-08
9.66257e-08
9.50635e-08
8.27249e-08
6.81721e-08
9.70727e-08
9.79093e-08
8.27266e-08
9.70701e-08
9.7887e-08
8.097e-08
1.27752e-07
9.68504e-08
1.07353e-07
8.49876e-08
8.86429e-08
1.05981e-07
9.13109e-08
8.69024e-08
1.04393e-07
9.7688e-08
9.39226e-08
9.80011e-08
9.53296e-08
7.90094e-08
9.66088e-08
7.8309e-08
8.06294e-08
9.42528e-08
7.94901e-08
7.93388e-08
7.82639e-08
7.70373e-08
8.89743e-08
7.61724e-08
7.71401e-08
9.20465e-08
7.8291e-08
8.09909e-08
1.27705e-07
9.6941e-08
1.07363e-07
8.50439e-08
8.86568e-08
1.05973e-07
9.127e-08
8.68825e-08
1.04261e-07
9.76707e-08
9.3871e-08
9.79285e-08
9.53147e-08
7.89796e-08
9.65869e-08
7.82769e-08
8.06268e-08
9.41876e-08
7.94776e-08
7.93154e-08
7.82329e-08
7.70241e-08
8.8891e-08
7.61439e-08
7.71111e-08
9.19931e-08
7.82687e-08
4.24387e-05
4.24682e-05
4.2473e-05
4.2484e-05
4.24867e-05
4.24944e-05
4.24957e-05
4.24988e-05
4.24991e-05
4.25018e-05
4.25025e-05
4.25072e-05
4.25071e-05
4.25089e-05
4.25098e-05
4.25114e-05
4.25122e-05
4.25119e-05
4.25125e-05
4.25111e-05
4.25114e-05
4.25119e-05
4.25117e-05
4.25085e-05
4.25089e-05
4.25081e-05
4.24821e-05
4.24452e-05
4.2561e-05
4.25085e-05
4.24555e-05
4.24747e-05
4.25032e-05
4.24994e-05
4.24783e-05
4.24876e-05
4.24991e-05
4.25015e-05
4.249e-05
4.24966e-05
4.25017e-05
4.25046e-05
4.24974e-05
4.25003e-05
4.2505e-05
4.25063e-05
4.25004e-05
4.25027e-05
4.25062e-05
4.25066e-05
4.25031e-05
4.25067e-05
4.25064e-05
4.25073e-05
4.25068e-05
4.25087e-05
4.2508e-05
4.25098e-05
4.25089e-05
4.25115e-05
4.251e-05
4.25128e-05
4.25119e-05
4.2512e-05
4.25127e-05
4.25117e-05
4.25121e-05
4.25108e-05
4.25113e-05
4.25096e-05
4.2511e-05
4.25115e-05
4.25107e-05
4.25103e-05
4.25113e-05
4.25081e-05
4.25097e-05
4.25083e-05
4.25086e-05
4.25081e-05
4.25086e-05
4.25069e-05
4.25993e-05
4.25858e-05
4.25769e-05
4.25734e-05
4.25644e-05
4.25227e-05
4.25671e-05
4.2547e-05
4.25164e-05
4.25091e-05
4.25415e-05
4.25301e-05
4.25078e-05
4.25069e-05
4.25274e-05
4.25215e-05
4.25062e-05
4.25075e-05
4.25201e-05
4.25178e-05
4.25079e-05
4.25091e-05
4.25172e-05
4.25159e-05
4.25088e-05
4.25085e-05
4.25152e-05
4.25134e-05
4.2508e-05
4.25083e-05
4.25125e-05
4.25121e-05
4.25088e-05
4.25109e-05
4.25131e-05
4.2514e-05
4.25116e-05
4.25135e-05
4.25146e-05
4.25147e-05
4.25133e-05
4.25117e-05
4.25147e-05
4.25126e-05
4.25118e-05
4.25093e-05
4.25121e-05
4.25099e-05
4.25103e-05
4.251e-05
4.25102e-05
4.25095e-05
4.25096e-05
4.25082e-05
4.25091e-05
4.25085e-05
4.25081e-05
4.25068e-05
4.25082e-05
4.25066e-05
4.25769e-05
4.25743e-05
4.25836e-05
4.25829e-05
4.25695e-05
4.2553e-05
4.25802e-05
4.25673e-05
4.25478e-05
4.25356e-05
4.25622e-05
4.25481e-05
4.25325e-05
4.25255e-05
4.25441e-05
4.25343e-05
4.25239e-05
4.25204e-05
4.25319e-05
4.25258e-05
4.25196e-05
4.25175e-05
4.25245e-05
4.25206e-05
4.25167e-05
4.25144e-05
4.25196e-05
4.25165e-05
4.25134e-05
4.25134e-05
4.25156e-05
4.25148e-05
4.25133e-05
4.25147e-05
4.25149e-05
4.25159e-05
4.25152e-05
4.25147e-05
4.25159e-05
4.25148e-05
4.25146e-05
4.25124e-05
4.2514e-05
4.25119e-05
4.25117e-05
4.25101e-05
4.25116e-05
4.25101e-05
4.25103e-05
4.25094e-05
4.25104e-05
4.25092e-05
4.25088e-05
4.25086e-05
4.2509e-05
4.25091e-05
4.2508e-05
4.25065e-05
4.25088e-05
4.2506e-05
4.24398e-05
4.24695e-05
4.24562e-05
4.24773e-05
4.24741e-05
4.24855e-05
4.24808e-05
4.24905e-05
4.24878e-05
4.24947e-05
4.24925e-05
4.24955e-05
4.24959e-05
4.25e-05
4.24966e-05
4.25019e-05
4.25004e-05
4.25027e-05
4.25033e-05
4.25053e-05
4.25035e-05
4.25069e-05
4.25065e-05
4.25091e-05
4.25081e-05
4.2509e-05
4.25098e-05
4.25097e-05
4.25103e-05
4.25119e-05
4.25109e-05
4.25132e-05
4.25125e-05
4.25123e-05
4.25127e-05
4.2513e-05
4.25128e-05
4.2511e-05
4.2513e-05
4.25113e-05
4.25117e-05
4.25121e-05
4.25114e-05
4.25129e-05
4.25113e-05
4.25096e-05
4.25114e-05
4.25108e-05
4.25093e-05
4.25086e-05
4.25099e-05
4.25094e-05
4.24463e-05
4.25547e-05
4.25067e-05
4.24663e-05
4.24613e-05
4.25297e-05
4.25046e-05
4.24765e-05
4.25024e-05
4.25004e-05
4.24683e-05
4.24839e-05
4.25032e-05
4.25031e-05
4.24893e-05
4.25002e-05
4.25024e-05
4.24865e-05
4.2494e-05
4.25038e-05
4.25048e-05
4.24971e-05
4.25027e-05
4.25053e-05
4.24958e-05
4.24983e-05
4.2505e-05
4.25066e-05
4.25013e-05
4.25056e-05
4.25069e-05
4.24989e-05
4.25027e-05
4.25071e-05
4.25075e-05
4.25035e-05
4.25067e-05
4.25068e-05
4.25037e-05
4.25051e-05
4.25075e-05
4.25068e-05
4.25071e-05
4.25067e-05
4.25071e-05
4.25062e-05
4.25089e-05
4.25068e-05
4.25083e-05
4.25088e-05
4.25079e-05
4.25097e-05
4.25096e-05
4.25097e-05
4.25086e-05
4.25106e-05
4.2512e-05
4.25102e-05
4.25129e-05
4.25109e-05
4.25131e-05
4.25119e-05
4.25137e-05
4.25123e-05
4.25133e-05
4.25122e-05
4.25128e-05
4.25129e-05
4.25143e-05
4.25129e-05
4.25105e-05
4.25112e-05
4.25105e-05
4.25125e-05
4.25107e-05
4.25125e-05
4.25105e-05
4.25117e-05
4.25105e-05
4.25111e-05
4.25109e-05
4.25128e-05
4.251e-05
4.25119e-05
4.25092e-05
4.25102e-05
4.25093e-05
4.25115e-05
4.25106e-05
4.25111e-05
4.25096e-05
4.25085e-05
4.25087e-05
4.25069e-05
4.25095e-05
4.2509e-05
4.25085e-05
4.25071e-05
4.25794e-05
4.25725e-05
4.25694e-05
4.25551e-05
4.25485e-05
4.25547e-05
4.25536e-05
4.25207e-05
4.25635e-05
4.25453e-05
4.25374e-05
4.25162e-05
4.25499e-05
4.25384e-05
4.25097e-05
4.25403e-05
4.253e-05
4.25136e-05
4.251e-05
4.25349e-05
4.25277e-05
4.25078e-05
4.25275e-05
4.25219e-05
4.25099e-05
4.25094e-05
4.25257e-05
4.25215e-05
4.2508e-05
4.25205e-05
4.2518e-05
4.25091e-05
4.25095e-05
4.25202e-05
4.25175e-05
4.25094e-05
4.25174e-05
4.25159e-05
4.25099e-05
4.25098e-05
4.2517e-05
4.25151e-05
4.25084e-05
4.25153e-05
4.25133e-05
4.25096e-05
4.25083e-05
4.25146e-05
4.25127e-05
4.25084e-05
4.25127e-05
4.25121e-05
4.2508e-05
4.25089e-05
4.25125e-05
4.25126e-05
4.25109e-05
4.25126e-05
4.2514e-05
4.25097e-05
4.25115e-05
4.25126e-05
4.25132e-05
4.2513e-05
4.25154e-05
4.25153e-05
4.2512e-05
4.25134e-05
4.25145e-05
4.25146e-05
4.25124e-05
4.25147e-05
4.25127e-05
4.25138e-05
4.25132e-05
4.2514e-05
4.25132e-05
4.25101e-05
4.25116e-05
4.25102e-05
4.25123e-05
4.25095e-05
4.25117e-05
4.25093e-05
4.25108e-05
4.251e-05
4.25102e-05
4.25095e-05
4.25113e-05
4.25098e-05
4.251e-05
4.25092e-05
4.25092e-05
4.25091e-05
4.25103e-05
4.25089e-05
4.25085e-05
4.25087e-05
4.25066e-05
4.25079e-05
4.25058e-05
4.25081e-05
4.25065e-05
4.25077e-05
4.25038e-05
4.25704e-05
4.25793e-05
4.2579e-05
4.25568e-05
4.25561e-05
4.25648e-05
4.25644e-05
4.2551e-05
4.25765e-05
4.25646e-05
4.25534e-05
4.25438e-05
4.25627e-05
4.25549e-05
4.25353e-05
4.256e-05
4.25469e-05
4.25404e-05
4.25325e-05
4.25516e-05
4.25421e-05
4.25257e-05
4.25431e-05
4.25338e-05
4.25302e-05
4.25247e-05
4.25391e-05
4.25314e-05
4.25204e-05
4.25314e-05
4.25253e-05
4.25232e-05
4.25194e-05
4.25291e-05
4.25235e-05
4.25173e-05
4.25238e-05
4.25199e-05
4.25186e-05
4.2516e-05
4.2522e-05
4.2518e-05
4.25143e-05
4.25189e-05
4.2516e-05
4.25153e-05
4.25133e-05
4.2517e-05
4.2515e-05
4.2513e-05
4.25153e-05
4.25141e-05
4.2513e-05
4.25124e-05
4.25148e-05
4.25149e-05
4.25145e-05
4.25149e-05
4.25154e-05
4.25127e-05
4.25129e-05
4.25142e-05
4.25138e-05
4.25154e-05
4.25162e-05
4.25152e-05
4.25141e-05
4.25146e-05
4.25147e-05
4.25141e-05
4.25124e-05
4.25138e-05
4.25118e-05
4.25136e-05
4.25127e-05
4.25124e-05
4.25111e-05
4.25105e-05
4.2511e-05
4.2511e-05
4.25113e-05
4.25097e-05
4.25103e-05
4.25103e-05
4.25102e-05
4.25106e-05
4.25103e-05
4.25102e-05
4.25101e-05
4.25111e-05
4.25105e-05
4.25091e-05
4.25091e-05
4.25096e-05
4.25084e-05
4.25085e-05
4.25084e-05
4.25088e-05
4.25054e-05
4.25085e-05
4.25042e-05
4.25074e-05
4.25027e-05
4.25082e-05
4.25008e-05
4.24436e-05
4.24575e-05
4.24934e-05
4.24863e-05
4.24644e-05
4.24811e-05
4.2487e-05
4.24927e-05
4.24838e-05
4.24921e-05
4.24937e-05
4.24977e-05
4.24942e-05
4.24966e-05
4.24996e-05
4.2501e-05
4.24976e-05
4.25025e-05
4.2502e-05
4.25058e-05
4.25038e-05
4.25059e-05
4.25073e-05
4.25077e-05
4.25071e-05
4.25102e-05
4.25088e-05
4.2511e-05
4.25104e-05
4.25102e-05
4.25115e-05
4.25122e-05
4.25113e-05
4.25137e-05
4.25136e-05
4.25139e-05
4.25131e-05