/*--------------------------------*- C++ -*----------------------------------*\
| =========                 |                                                 |
| \\      /  F ield         | OpenFOAM: The Open Source CFD Toolbox           |
|  \\    /   O peration     | Version:  2012                                  |
|   \\  /    A nd           | Website:  www.openfoam.com                      |
|    \\/     M anipulation  |                                                 |
\*---------------------------------------------------------------------------*/
FoamFile
{
    version     2.0;
    format      ascii;
    class       volVectorField;
    location    "0.106/solid";
    object      D;
}
// * * * * * * * * * * * * * * * * * * * * * * * * * * * * * * * * * * * * * //

dimensions      [0 1 0 0 0 0 0];


internalField   nonuniform List<vector> 
3125
(
(1.87569e-10 2.32787e-10 4.30019e-12)
(1.78792e-10 2.31507e-10 1.574e-12)
(1.62791e-10 2.26991e-10 -2.41557e-12)
(1.61607e-10 2.26111e-10 -2.5863e-12)
(1.53758e-10 2.18223e-10 -4.17531e-12)
(1.52169e-10 2.16465e-10 -4.18668e-12)
(1.3689e-10 1.95989e-10 2.89475e-11)
(1.3587e-10 1.88002e-10 4.86305e-11)
(1.69245e-10 2.29974e-10 -1.26292e-12)
(1.66709e-10 2.29118e-10 -1.68987e-12)
(1.58616e-10 2.23405e-10 -3.23074e-12)
(1.57526e-10 2.22303e-10 -3.4667e-12)
(1.45773e-10 2.0968e-10 -1.41209e-12)
(1.43228e-10 2.06924e-10 1.84842e-12)
(1.95689e-10 2.32436e-10 9.81802e-12)
(2.96299e-10 1.42766e-10 5.50373e-12)
(2.7957e-10 9.59203e-10 7.13737e-12)
(2.867e-10 4.20013e-10 -1.04766e-12)
(3.04777e-10 1.40916e-10 7.95669e-12)
(2.60923e-10 4.1733e-10 -2.45107e-12)
(2.85045e-10 1.44598e-10 2.21848e-12)
(2.70129e-10 9.50516e-10 4.42037e-12)
(1.74326e-10 2.30718e-10 3.82002e-13)
(2.54504e-10 9.46591e-10 3.48706e-12)
(2.77788e-10 4.23878e-10 -1.47293e-12)
(2.80018e-10 1.43953e-10 -5.59962e-13)
(2.405e-10 4.12031e-10 -4.35115e-12)
(1.64052e-10 2.27742e-10 -2.10897e-12)
(2.67342e-10 1.41208e-10 -2.1334e-12)
(2.3557e-10 4.1025e-10 -4.82975e-12)
(2.68845e-10 1.41631e-10 -1.98553e-12)
(2.32389e-10 4.06262e-10 -5.16122e-12)
(2.65885e-10 1.40666e-10 -2.23857e-12)
(1.60632e-10 2.25241e-10 -2.76961e-12)
(2.34978e-10 4.09891e-10 -4.73991e-12)
(2.64748e-10 1.40012e-10 -2.51171e-12)
(2.25398e-10 3.96772e-10 -6.18977e-12)
(1.55164e-10 2.19749e-10 -3.9527e-12)
(2.56894e-10 1.35041e-10 -3.57237e-12)
(2.22229e-10 3.91004e-10 -6.03072e-12)
(2.585e-10 1.36107e-10 -3.36423e-12)
(2.184e-10 3.81838e-10 -2.99279e-12)
(2.5515e-10 1.33774e-10 -3.45651e-12)
(1.50322e-10 2.14463e-10 -3.96533e-12)
(2.21729e-10 3.90112e-10 -5.7743e-12)
(2.53129e-10 1.32359e-10 -3.19535e-12)
(2.20527e-10 3.44284e-10 5.30987e-11)
(1.38543e-10 2.00547e-10 1.59998e-11)
(2.40463e-10 1.18136e-10 3.75059e-11)
(2.41808e-10 3.06324e-10 1.52096e-10)
(2.4245e-10 1.21623e-10 1.97471e-11)
(3.2244e-10 1.55417e-10 4.77661e-10)
(2.37687e-10 1.11999e-10 6.89123e-11)
(1.36751e-10 1.69438e-10 7.84724e-11)
(2.47316e-10 2.97422e-10 1.75882e-10)
(2.34427e-10 9.94473e-11 1.26356e-10)
(1.95556e-10 4.08995e-11 1.32997e-12)
(2.6069e-10 1.23812e-09 7.58864e-12)
(1.92877e-10 4.13303e-11 8.07515e-13)
(1.87768e-10 4.08317e-11 -1.46076e-12)
(2.51283e-10 1.22437e-09 6.64992e-12)
(2.35703e-10 1.22306e-09 4.38805e-12)
(2.60892e-10 4.15524e-10 -2.72959e-12)
(1.71991e-10 2.305e-10 -4.57763e-13)
(2.74987e-10 1.42987e-10 -1.1635e-12)
(2.47853e-10 4.16245e-10 -4.63824e-12)
(2.78076e-10 1.43057e-10 -1.13946e-12)
(2.21767e-10 1.21927e-09 -1.59979e-12)
(2.32135e-10 1.22663e-09 2.21873e-12)
(1.84217e-10 4.02725e-11 -1.03816e-12)
(1.86875e-10 4.04645e-11 -1.15084e-12)
(2.40927e-10 4.12514e-10 -4.37937e-12)
(1.65186e-10 2.2837e-10 -1.92944e-12)
(2.7178e-10 1.42826e-10 -1.50281e-12)
(2.45922e-10 4.16469e-10 -4.48791e-12)
(2.70024e-10 1.42212e-10 -2.0154e-12)
(1.79952e-10 3.94177e-11 -1.28162e-12)
(1.81154e-10 3.96724e-11 -1.02974e-12)
(2.08218e-10 1.20396e-09 -4.01293e-12)
(2.12365e-10 1.21044e-09 -3.10882e-12)
(2.1913e-10 1.21511e-09 -2.05439e-12)
(2.13851e-10 1.211e-09 -2.44043e-12)
(1.83351e-10 4.02405e-11 -7.92204e-13)
(1.81597e-10 3.9838e-11 -1.37312e-12)
(1.79508e-10 3.93096e-11 -1.00532e-12)
(1.78432e-10 3.89316e-11 -1.44465e-12)
(2.0706e-10 1.20138e-09 -4.33537e-12)
(2.03917e-10 1.19558e-09 -4.50774e-12)
(2.32005e-10 4.05835e-10 -5.1429e-12)
(1.59672e-10 2.24373e-10 -2.92895e-12)
(2.6243e-10 1.38726e-10 -2.82609e-12)
(2.2884e-10 4.02645e-10 -5.76494e-12)
(2.63671e-10 1.39371e-10 -2.54402e-12)
(1.99522e-10 1.18662e-09 -5.33676e-12)
(2.02826e-10 1.19383e-09 -4.92044e-12)
(1.77053e-10 3.84299e-11 -1.58023e-12)
(1.78049e-10 3.8788e-11 -1.15359e-12)
(2.25806e-10 3.97448e-10 -6.25088e-12)
(1.56399e-10 2.21092e-10 -3.75232e-12)
(2.61171e-10 1.3795e-10 -2.97119e-12)
(2.28427e-10 4.02115e-10 -5.727e-12)
(2.59878e-10 1.3708e-10 -3.28244e-12)
(1.73754e-10 3.70454e-11 -1.93702e-12)
(1.75076e-10 3.76042e-11 -1.53517e-12)
(1.89118e-10 1.16111e-09 -5.07832e-12)
(1.93559e-10 1.1723e-09 -5.85055e-12)
(1.9841e-10 1.18394e-09 -5.65718e-12)
(1.94885e-10 1.17535e-09 -5.66532e-12)
(1.76623e-10 3.82719e-11 -1.32558e-12)
(1.75556e-10 3.77992e-11 -1.79808e-12)
(1.73132e-10 3.68038e-11 -1.63434e-12)
(1.71484e-10 3.61161e-11 -1.69328e-12)
(1.87396e-10 1.15693e-09 -4.76777e-12)
(2.1789e-10 3.80543e-10 -2.09842e-12)
(1.48196e-10 2.12195e-10 -3.13142e-12)
(2.48557e-10 1.28874e-10 -3.74196e-13)
(2.15427e-10 3.68532e-10 8.79191e-12)
(2.50978e-10 1.30686e-10 -2.20152e-12)
(1.68672e-10 3.50817e-11 -6.19436e-14)
(1.70717e-10 3.58277e-11 -1.17853e-12)
(2.19027e-10 3.47776e-10 4.50989e-11)
(1.4069e-10 2.03945e-10 7.31262e-12)
(2.46322e-10 1.26725e-10 3.18665e-12)
(2.15327e-10 3.66529e-10 1.15679e-11)
(2.44059e-10 1.24471e-10 9.29146e-12)
(1.62752e-10 3.44357e-11 2.27345e-11)
(1.64825e-10 3.41409e-11 8.46466e-12)
(1.67764e-10 3.47919e-11 1.10047e-12)
(1.6569e-10 3.42689e-11 5.53797e-12)
(1.61449e-10 3.4732e-11 3.14704e-11)
(1.53103e-10 3.53729e-11 8.99579e-11)
(3.44071e-10 1.16589e-10 5.46877e-10)
(1.38547e-10 2.94669e-11 1.10841e-10)
(1.52208e-10 3.17943e-11 1.29423e-10)
(3.48469e-10 9.46136e-11 4.48006e-10)
(6.49835e-11 -1.10241e-11 1.20033e-10)
(4.59727e-10 5.49607e-10 1.40365e-11)
(3.22475e-10 4.03185e-10 6.52127e-12)
(5.38379e-10 3.28394e-10 1.01329e-11)
(3.80693e-10 7.76133e-10 1.50715e-11)
(4.50735e-10 5.5122e-10 1.10243e-11)
(3.12547e-10 4.089e-10 3.70564e-12)
(5.12734e-10 3.37953e-10 6.41197e-12)
(3.52637e-10 7.79619e-10 7.8252e-12)
(4.37399e-10 5.52303e-10 8.56871e-12)
(5.28269e-10 3.3236e-10 1.12177e-11)
(3.67524e-10 7.7938e-10 1.01035e-11)
(4.13299e-10 5.48763e-10 -1.55641e-13)
(3.23958e-10 7.7153e-10 -1.58302e-14)
(2.63074e-10 4.2246e-10 -1.51235e-12)
(4.83893e-10 3.37214e-10 -4.26357e-12)
(4.84951e-10 3.40197e-10 -8.08373e-13)
(3.26161e-10 7.72469e-10 -6.09097e-13)
(4.11195e-10 5.47372e-10 -8.23648e-13)
(4.17332e-10 5.50126e-10 2.40933e-12)
(2.63449e-10 4.25389e-10 -1.67165e-12)
(4.99023e-10 3.41457e-10 5.87944e-12)
(3.3909e-10 7.77695e-10 3.29657e-12)
(4.2637e-10 5.51522e-10 5.26076e-12)
(4.88536e-10 3.42411e-10 -6.75764e-13)
(3.30169e-10 7.74948e-10 2.33075e-12)
(3.90162e-10 5.4018e-10 -3.52251e-12)
(3.02382e-10 7.62791e-10 -4.89962e-12)
(2.38323e-10 4.1132e-10 -4.73025e-12)
(4.63962e-10 3.32227e-10 -2.76299e-12)
(3.91694e-10 5.41023e-10 -4.10598e-12)
(4.62284e-10 3.31806e-10 -4.8258e-12)
(3.00905e-10 7.61699e-10 -3.62374e-12)
(3.8882e-10 5.39571e-10 -4.32412e-12)
(2.37359e-10 4.11351e-10 -4.65768e-12)
(4.59375e-10 3.3083e-10 -5.22994e-12)
(2.98022e-10 7.59321e-10 -4.00076e-12)
(3.87464e-10 5.38406e-10 -3.91864e-12)
(4.60699e-10 3.31627e-10 -2.84424e-12)
(2.99351e-10 7.60674e-10 -5.21597e-12)
(3.83967e-10 5.35465e-10 -5.06136e-12)
(2.93991e-10 7.53489e-10 -4.54398e-12)
(2.33102e-10 4.0805e-10 -4.84058e-12)
(4.54937e-10 3.27772e-10 -5.90136e-12)
(4.55397e-10 3.29004e-10 -3.576e-12)
(2.94736e-10 7.54757e-10 -5.86245e-12)
(3.83219e-10 5.34205e-10 -4.5802e-12)
(3.84838e-10 5.36279e-10 -4.24277e-12)
(2.33396e-10 4.08609e-10 -4.92477e-12)
(4.57952e-10 3.30364e-10 -2.94509e-12)
(2.96779e-10 7.57832e-10 -5.67105e-12)
(3.86257e-10 5.3755e-10 -4.64692e-12)
(4.5631e-10 3.29664e-10 -5.39302e-12)
(2.95607e-10 7.56096e-10 -4.37297e-12)
(3.71948e-10 5.21408e-10 -6.15097e-12)
(2.84733e-10 7.38432e-10 -7.48931e-12)
(2.23879e-10 3.94616e-10 -6.36199e-12)
(4.4502e-10 3.20011e-10 -4.78301e-12)
(3.7355e-10 5.23346e-10 -6.65992e-12)
(4.43325e-10 3.18779e-10 -6.9859e-12)
(2.83421e-10 7.35962e-10 -6.14439e-12)
(3.70672e-10 5.20071e-10 -6.86105e-12)
(2.23237e-10 3.94039e-10 -6.20131e-12)
(4.40871e-10 3.15975e-10 -7.27565e-12)
(2.80943e-10 7.31098e-10 -5.93852e-12)
(3.6933e-10 5.17736e-10 -6.26678e-12)
(4.41915e-10 3.17894e-10 -5.09602e-12)
(2.82136e-10 7.3373e-10 -7.46104e-12)
(3.6447e-10 5.1169e-10 -5.96371e-12)
(2.75001e-10 7.18439e-10 -3.35945e-12)
(2.19419e-10 3.86086e-10 -4.63031e-12)
(4.34517e-10 3.09215e-10 -5.54061e-12)
(4.35833e-10 3.11762e-10 -4.14801e-12)
(2.7649e-10 7.2206e-10 -5.83803e-12)
(3.62747e-10 5.08563e-10 -4.58084e-12)
(3.66057e-10 5.13512e-10 -5.75862e-12)
(2.20164e-10 3.86929e-10 -5.14889e-12)
(4.39488e-10 3.14796e-10 -4.75166e-12)
(2.79614e-10 7.28491e-10 -7.10117e-12)
(3.67998e-10 5.16148e-10 -6.67514e-12)
(4.37529e-10 3.13017e-10 -6.51564e-12)
(2.78052e-10 7.25149e-10 -5.24967e-12)
(3.48307e-10 4.68025e-10 5.5471e-11)
(2.64873e-10 6.6871e-10 5.33196e-11)
(2.27584e-10 3.30862e-10 8.40796e-11)
(4.24543e-10 2.82529e-10 4.14685e-11)
(3.48661e-10 4.75351e-10 3.87103e-11)
(4.25543e-10 2.76475e-10 5.67021e-11)
(2.65888e-10 6.58753e-10 7.42134e-11)
(3.48242e-10 4.62045e-10 7.24964e-11)
(2.2937e-10 3.26974e-10 9.77503e-11)
(4.29195e-10 2.62327e-10 1.04261e-10)
(2.70462e-10 6.32107e-10 1.31597e-10)
(3.49112e-10 4.50581e-10 9.91464e-11)
(4.26377e-10 2.71752e-10 7.79401e-11)
(2.67523e-10 6.47333e-10 9.78654e-11)
(3.5765e-10 3.89623e-10 2.25686e-10)
(3.11063e-10 4.73888e-10 3.74484e-10)
(2.79019e-10 2.39891e-10 3.12314e-10)
(4.53593e-10 1.69657e-10 3.47823e-10)
(4.43112e-10 2.12198e-10 2.5583e-10)
(2.93403e-10 5.38675e-10 2.89947e-10)
(3.65501e-10 3.36791e-10 3.03408e-10)
(3.53951e-10 4.15499e-10 1.73245e-10)
(2.70923e-10 2.56348e-10 2.70685e-10)
(4.33309e-10 2.5239e-10 1.40144e-10)
(2.75632e-10 6.12299e-10 1.71257e-10)
(3.51063e-10 4.39465e-10 1.28025e-10)
(4.38927e-10 2.32677e-10 1.9065e-10)
(2.82824e-10 5.81666e-10 2.25206e-10)
(6.09555e-10 1.67014e-10 7.39423e-12)
(5.68985e-10 8.10351e-11 3.3145e-12)
(1.98936e-10 4.01157e-11 1.98705e-12)
(5.82308e-10 7.57957e-11 6.19638e-12)
(5.80329e-10 1.77895e-10 3.13417e-12)
(6.04611e-10 1.6857e-10 8.03738e-12)
(2.01375e-10 3.98407e-11 2.38736e-12)
(5.90163e-10 7.35486e-11 5.8739e-12)
(1.84321e-10 9.92238e-10 1.20336e-11)
(2.72397e-10 1.25399e-09 9.78764e-12)
(2.01208e-10 1.08412e-09 5.98785e-12)
(2.19679e-10 1.09422e-09 1.08611e-11)
(2.84347e-10 1.26322e-09 1.50171e-11)
(2.2606e-10 1.09459e-09 1.26145e-11)
(1.58488e-10 9.89346e-10 5.68912e-12)
(1.77493e-10 9.94028e-10 9.36843e-12)
(5.54053e-10 1.77185e-10 -4.54727e-12)
(5.54838e-10 1.82065e-10 -1.78658e-12)
(5.57242e-10 8.50079e-11 2.91157e-12)
(1.90361e-10 4.15717e-11 -6.1206e-13)
(5.47732e-10 8.75536e-11 -1.63709e-12)
(5.73111e-10 1.7998e-10 3.65314e-12)
(5.56272e-10 1.83344e-10 -2.61762e-12)
(5.43985e-10 8.32835e-11 -3.94642e-12)
(1.88814e-10 4.12834e-11 -8.82194e-13)
(5.45168e-10 8.56281e-11 -1.4379e-12)
(1.35493e-10 9.79147e-10 3.12074e-13)
(1.40722e-10 9.78587e-10 7.92439e-13)
(2.44364e-10 1.21758e-09 6.6363e-12)
(1.96104e-10 1.08041e-09 5.02917e-12)
(1.85598e-10 1.07241e-09 3.1631e-12)
(1.7803e-10 1.07361e-09 8.90133e-13)
(2.39541e-10 1.21867e-09 5.84974e-12)
(1.83435e-10 1.07162e-09 2.6125e-12)
(1.53145e-10 9.86837e-10 3.56827e-12)
(1.42708e-10 9.80015e-10 2.4427e-12)
(4.0716e-10 5.46627e-10 -1.31959e-12)
(3.22223e-10 7.71322e-10 -2.16908e-12)
(2.56613e-10 4.14505e-10 -4.16102e-12)
(4.83363e-10 3.35404e-10 -1.886e-12)
(4.09759e-10 5.4707e-10 -1.89579e-12)
(3.19306e-10 7.70968e-10 -1.2141e-12)
(4.80949e-10 3.34775e-10 -3.50758e-12)
(4.04118e-10 5.46406e-10 -2.21534e-12)
(2.53861e-10 4.15531e-10 -4.31324e-12)
(3.11596e-10 7.69435e-10 -2.29025e-12)
(4.73327e-10 3.35544e-10 -3.74775e-12)
(3.15362e-10 7.70609e-10 -3.16283e-12)
(4.77372e-10 3.35328e-10 -1.25504e-12)
(4.00512e-10 5.45608e-10 -2.03251e-12)
(1.34008e-10 9.79573e-10 -1.17571e-12)
(1.29094e-10 9.79127e-10 -1.49326e-12)
(2.25087e-10 1.22369e-09 -1.04504e-12)
(1.6478e-10 1.06929e-09 -2.73151e-12)
(1.69656e-10 1.07346e-09 -1.70784e-12)
(1.76475e-10 1.07435e-09 3.90747e-13)
(2.28663e-10 1.22682e-09 3.95722e-13)
(1.71466e-10 1.07412e-09 -1.46424e-12)
(1.22372e-10 9.75874e-10 -2.46035e-12)
(1.27209e-10 9.78935e-10 -2.70437e-12)
(5.54092e-10 1.75936e-10 -2.89792e-12)
(5.50721e-10 1.75127e-10 -3.719e-12)
(5.35232e-10 8.18382e-11 -3.08878e-12)
(1.85198e-10 4.02276e-11 -8.06491e-13)
(5.38648e-10 8.12106e-11 -1.51698e-12)
(5.42525e-10 1.76398e-10 -3.86935e-12)
(5.48808e-10 1.75437e-10 -2.07848e-12)
(5.43883e-10 8.1023e-11 -2.22867e-12)
(1.86108e-10 4.02892e-11 -1.11198e-12)
(5.41806e-10 8.07387e-11 -3.25117e-12)
(3.93541e-10 5.42662e-10 -3.93904e-12)
(2.41932e-10 4.1465e-10 -4.15378e-12)
(3.03489e-10 7.63508e-10 -3.29442e-12)
(4.64773e-10 3.32862e-10 -5.30114e-12)
(3.92624e-10 5.41537e-10 -3.48467e-12)
(3.04468e-10 7.64512e-10 -4.66203e-12)
(4.65267e-10 3.34289e-10 -2.95187e-12)
(3.94896e-10 5.43499e-10 -2.96329e-12)
(2.42207e-10 4.15614e-10 -4.33204e-12)
(3.08296e-10 7.67776e-10 -4.24094e-12)
(4.69734e-10 3.35642e-10 -1.67538e-12)
(3.9759e-10 5.44745e-10 -3.01578e-12)
(3.05834e-10 7.65919e-10 -3.09388e-12)
(4.66569e-10 3.35204e-10 -4.6196e-12)
(5.34007e-10 1.74106e-10 -3.06864e-12)
(5.31313e-10 1.74135e-10 -4.44303e-12)
(5.22549e-10 8.02947e-11 -3.74842e-12)
(1.80349e-10 3.95067e-11 -9.97363e-13)
(5.23534e-10 8.06635e-11 -2.1133e-12)
(5.28559e-10 1.7332e-10 -4.6615e-12)
(5.30439e-10 1.74119e-10 -2.91269e-12)
(5.26649e-10 8.04575e-11 -2.1796e-12)
(1.80782e-10 3.96003e-11 -1.21539e-12)
(5.25028e-10 8.06854e-11 -3.61068e-12)
(1.15238e-10 9.68562e-10 -4.31094e-12)
(1.1348e-10 9.66339e-10 -3.68036e-12)
(2.09605e-10 1.20649e-09 -3.91964e-12)
(1.52864e-10 1.05564e-09 -4.53971e-12)
(1.54721e-10 1.05868e-09 -4.1293e-12)
(1.57257e-10 1.06176e-09 -3.58887e-12)
(2.11005e-10 1.20881e-09 -3.48566e-12)
(1.55387e-10 1.05944e-09 -4.15527e-12)
(1.11075e-10 9.63175e-10 -3.95666e-12)
(1.12823e-10 9.65748e-10 -4.67606e-12)
(1.15885e-10 9.68835e-10 -3.20603e-12)
(1.179e-10 9.69981e-10 -3.95384e-12)
(1.63498e-10 1.06787e-09 -2.83681e-12)
(2.17099e-10 1.21223e-09 -1.9888e-12)
(1.60751e-10 1.0638e-09 -3.17162e-12)
(1.2111e-10 9.74666e-10 -3.64446e-12)
(1.18544e-10 9.70758e-10 -2.90998e-12)
(1.57927e-10 1.06206e-09 -3.54136e-12)
(2.1542e-10 1.21124e-09 -2.20634e-12)
(1.60035e-10 1.06312e-09 -3.15343e-12)
(5.34377e-10 1.74486e-10 -4.77338e-12)
(5.34701e-10 1.76655e-10 -3.10642e-12)
(5.31975e-10 8.23469e-11 -1.57648e-12)
(1.82574e-10 4.02159e-11 -1.24112e-12)
(5.2881e-10 8.2999e-11 -3.61812e-12)
(5.40586e-10 1.76609e-10 -2.28501e-12)
(5.35316e-10 1.7712e-10 -4.56282e-12)
(5.27355e-10 8.11495e-11 -3.94304e-12)
(1.81981e-10 4.00466e-11 -1.08646e-12)
(5.27662e-10 8.22681e-11 -2.27834e-12)
(5.24087e-10 1.71192e-10 -5.16417e-12)
(5.24468e-10 1.72851e-10 -3.43305e-12)
(5.21146e-10 8.01403e-11 -2.16094e-12)
(1.79108e-10 3.9238e-11 -1.33049e-12)
(5.19428e-10 8.03993e-11 -3.88775e-12)
(5.27765e-10 1.73189e-10 -3.05329e-12)
(5.24967e-10 1.7313e-10 -4.8929e-12)
(5.18276e-10 7.90997e-11 -4.16065e-12)
(1.78694e-10 3.90937e-11 -1.1564e-12)
(5.18491e-10 7.99547e-11 -2.51355e-12)
(1.07997e-10 9.56116e-10 -4.46268e-12)
(1.09293e-10 9.58087e-10 -5.22502e-12)
(2.06067e-10 1.19894e-09 -4.29294e-12)
(1.52363e-10 1.05466e-09 -4.53928e-12)
(1.51202e-10 1.05111e-09 -4.80181e-12)
(1.49369e-10 1.04815e-09 -5.04955e-12)
(2.05038e-10 1.19714e-09 -4.46176e-12)
(1.50782e-10 1.05035e-09 -4.73618e-12)
(1.10623e-10 9.62291e-10 -5.0367e-12)
(1.0966e-10 9.58812e-10 -4.23465e-12)
(3.81032e-10 5.323e-10 -4.77744e-12)
(2.93063e-10 7.52357e-10 -6.16518e-12)
(2.30413e-10 4.04736e-10 -5.51648e-12)
(4.54058e-10 3.27206e-10 -3.52157e-12)
(3.82368e-10 5.33478e-10 -5.23791e-12)
(2.91904e-10 7.50816e-10 -4.93688e-12)
(4.52564e-10 3.26571e-10 -5.79845e-12)
(3.80001e-10 5.31477e-10 -5.62913e-12)
(2.29825e-10 4.04451e-10 -5.46152e-12)
(2.89873e-10 7.47826e-10 -5.31072e-12)
(4.50588e-10 3.24873e-10 -6.41166e-12)
(2.90807e-10 7.49448e-10 -6.51378e-12)
(4.51384e-10 3.26094e-10 -3.98648e-12)
(3.79008e-10 5.30005e-10 -5.26348e-12)
(1.07566e-10 9.55534e-10 -5.54288e-12)
(1.06487e-10 9.52448e-10 -4.85939e-12)
(2.0071e-10 1.18911e-09 -5.3038e-12)
(1.45715e-10 1.04016e-09 -5.79192e-12)
(1.47176e-10 1.04339e-09 -5.42976e-12)
(1.489e-10 1.04749e-09 -5.05859e-12)
(2.01811e-10 1.19152e-09 -5.04375e-12)
(1.47651e-10 1.04427e-09 -5.47587e-12)
(1.04748e-10 9.48823e-10 -5.12249e-12)
(1.06052e-10 9.51686e-10 -5.84717e-12)
(5.23614e-10 1.70934e-10 -3.54724e-12)
(5.21134e-10 1.70855e-10 -5.21773e-12)
(5.14225e-10 7.79258e-11 -4.49738e-12)
(1.77346e-10 3.85774e-11 -1.26257e-12)
(5.14696e-10 7.86305e-11 -2.79891e-12)
(5.19501e-10 1.69275e-10 -5.62907e-12)
(5.20464e-10 1.70704e-10 -3.7777e-12)
(5.17391e-10 7.86609e-11 -2.54245e-12)
(1.77742e-10 3.87097e-11 -1.4257e-12)
(5.15894e-10 7.88692e-11 -4.15174e-12)
(3.75613e-10 5.26335e-10 -6.43696e-12)
(2.26605e-10 3.99838e-10 -5.98514e-12)
(2.85816e-10 7.40336e-10 -5.95024e-12)
(4.46142e-10 3.20879e-10 -7.10182e-12)
(3.74611e-10 5.24521e-10 -6.01173e-12)
(2.86732e-10 7.42315e-10 -7.23868e-12)
(4.4686e-10 3.22452e-10 -4.74745e-12)
(3.76625e-10 5.27409e-10 -5.60353e-12)
(2.27064e-10 4.00374e-10 -6.04913e-12)
(2.88866e-10 7.46181e-10 -6.97254e-12)
(4.49493e-10 3.24189e-10 -4.1586e-12)
(3.78017e-10 5.29009e-10 -5.99492e-12)
(2.87742e-10 7.44097e-10 -5.74038e-12)
(4.47966e-10 3.23209e-10 -6.52954e-12)
(5.14265e-10 1.6615e-10 -4.66618e-12)
(5.11497e-10 1.65534e-10 -6.27843e-12)
(5.04809e-10 7.4318e-11 -5.26062e-12)
(1.74131e-10 3.72635e-11 -1.65049e-12)
(5.05516e-10 7.52765e-11 -3.68753e-12)
(5.09386e-10 1.63129e-10 -6.41227e-12)
(5.10671e-10 1.65227e-10 -4.8223e-12)
(5.08729e-10 7.57328e-11 -3.46589e-12)
(1.74699e-10 3.74692e-11 -1.81814e-12)
(5.07057e-10 7.57348e-11 -5.05997e-12)
(1.01303e-10 9.38455e-10 -6.50893e-12)
(1.00166e-10 9.33637e-10 -5.50026e-12)
(1.90781e-10 1.16498e-09 -5.54067e-12)
(1.37714e-10 1.01736e-09 -5.66557e-12)
(1.3959e-10 1.02253e-09 -5.98175e-12)
(1.41607e-10 1.02894e-09 -6.12573e-12)
(1.92249e-10 1.16868e-09 -5.675e-12)
(1.40167e-10 1.0239e-09 -6.18423e-12)
(9.81022e-11 9.27714e-10 -4.95318e-12)
(9.96754e-11 9.32423e-10 -6.32993e-12)
(1.01748e-10 9.3945e-10 -5.50965e-12)
(1.0307e-10 9.42862e-10 -6.37729e-12)
(1.45268e-10 1.03915e-09 -5.78921e-12)
(1.97365e-10 1.18096e-09 -5.63965e-12)
(1.4412e-10 1.03491e-09 -6.08494e-12)
(1.04361e-10 9.4793e-10 -6.1911e-12)
(1.03462e-10 9.43824e-10 -5.42138e-12)
(1.42127e-10 1.03007e-09 -6.19212e-12)
(1.962e-10 1.17816e-09 -5.75963e-12)
(1.43662e-10 1.03383e-09 -6.00004e-12)
(5.14902e-10 1.66502e-10 -6.24286e-12)
(5.15689e-10 1.6836e-10 -4.44357e-12)
(5.13082e-10 7.7529e-11 -2.97148e-12)
(1.76294e-10 3.81645e-11 -1.63779e-12)
(5.11541e-10 7.76241e-11 -4.66242e-12)
(5.1888e-10 1.69019e-10 -4.06778e-12)
(5.16331e-10 1.68637e-10 -5.86245e-12)
(5.0994e-10 7.62903e-11 -5.01889e-12)
(1.75844e-10 3.79892e-11 -1.4868e-12)
(5.10348e-10 7.7191e-11 -3.34558e-12)
(5.02805e-10 1.58469e-10 -4.76619e-12)
(5.04452e-10 1.61114e-10 -4.14568e-12)
(5.03275e-10 7.36104e-11 -3.58092e-12)
(1.72661e-10 3.66264e-11 -1.83846e-12)
(5.01366e-10 7.34398e-11 -4.92693e-12)
(5.08592e-10 1.62658e-10 -4.74202e-12)
(5.0546e-10 1.61551e-10 -5.81829e-12)
(4.98449e-10 7.17117e-11 -4.33964e-12)
(1.71948e-10 3.63747e-11 -1.56023e-12)
(4.9944e-10 7.28324e-11 -3.23948e-12)
(9.36683e-11 9.11582e-10 -1.16808e-12)
(9.55826e-11 9.18175e-10 -4.20226e-12)
(1.85626e-10 1.1521e-09 -3.95294e-12)
(1.37064e-10 1.01581e-09 -5.37311e-12)
(1.35234e-10 1.00904e-09 -4.49662e-12)
(1.32086e-10 1.00006e-09 -1.90953e-12)
(1.83614e-10 1.14716e-09 -2.95872e-12)
(1.34495e-10 1.00717e-09 -3.88964e-12)
(9.75673e-11 9.26332e-10 -5.71681e-12)
(9.61808e-11 9.19855e-10 -3.78488e-12)
(3.58829e-10 5.02875e-10 -1.71508e-12)
(2.73423e-10 7.14858e-10 -3.24515e-12)
(2.16541e-10 3.75832e-10 1.07632e-12)
(4.32958e-10 3.07532e-10 -2.14285e-12)
(3.61132e-10 5.06414e-10 -4.08024e-12)
(2.71607e-10 7.10352e-10 2.80535e-13)
(4.30805e-10 3.05013e-10 -2.40475e-12)
(3.56956e-10 5.00421e-10 -3.36947e-13)
(2.15743e-10 3.74625e-10 2.71437e-12)
(2.6826e-10 7.0111e-10 7.20671e-12)
(4.27598e-10 2.99902e-10 2.49553e-12)
(2.69824e-10 7.06064e-10 1.87722e-12)
(4.28908e-10 3.03269e-10 1.53393e-12)
(3.55034e-10 4.96286e-10 3.43261e-12)
(9.30014e-11 9.09682e-10 -1.21455e-12)
(9.12892e-11 9.00919e-10 3.53218e-12)
(1.25068e-10 9.76627e-10 1.12646e-11)
(1.27886e-10 9.86356e-10 4.54352e-12)
(1.31225e-10 9.97957e-10 -9.17724e-13)
(1.28823e-10 9.88909e-10 2.75563e-12)
(8.86354e-11 8.89254e-10 1.21484e-11)
(9.05983e-11 8.98546e-10 4.32335e-12)
(5.01904e-10 1.5779e-10 -2.67852e-12)
(4.98573e-10 1.56012e-10 -1.87999e-12)
(4.9101e-10 6.84116e-11 6.27687e-13)
(1.69236e-10 3.53499e-11 -4.09272e-13)
(4.92155e-10 6.96864e-11 2.89351e-13)
(4.95817e-10 1.52092e-10 2.88341e-12)
(4.97403e-10 1.5543e-10 5.41449e-13)
(4.9662e-10 7.07564e-11 -2.05135e-12)
(1.70132e-10 3.56193e-11 -1.07719e-12)
(4.94523e-10 7.03675e-11 -2.49244e-12)
(3.50049e-10 4.85284e-10 1.85712e-11)
(2.15841e-10 3.57273e-10 2.67667e-11)
(2.64304e-10 6.7649e-10 3.9798e-11)
(4.23771e-10 2.86535e-10 2.82075e-11)
(3.48955e-10 4.79649e-10 2.87161e-11)
(2.64662e-10 6.83705e-10 2.6728e-11)
(4.23786e-10 2.91235e-10 2.0744e-11)
(3.51512e-10 4.88657e-10 1.29056e-11)
(2.16031e-10 3.59171e-10 2.20193e-11)
(2.66947e-10 6.96106e-10 1.09432e-11)
(4.26442e-10 2.97427e-10 8.4793e-12)
(3.53527e-10 4.93388e-10 6.52994e-12)
(2.65649e-10 6.89926e-10 1.91672e-11)
(4.2496e-10 2.93798e-10 1.23596e-11)
(4.92742e-10 1.41485e-10 3.44321e-11)
(4.94679e-10 1.36414e-10 5.53022e-11)
(4.82085e-10 5.91684e-11 6.80805e-11)
(1.6329e-10 3.43018e-11 1.67318e-11)
(4.8209e-10 6.09081e-11 5.07001e-11)
(4.9949e-10 1.27031e-10 1.02431e-10)
(4.94672e-10 1.35008e-10 6.61681e-11)
(4.84027e-10 6.27599e-11 2.63424e-11)
(1.64337e-10 3.41261e-11 1.18751e-11)
(4.83844e-10 6.14527e-11 3.57342e-11)
(8.65351e-11 8.5263e-10 5.90969e-11)
(8.87455e-11 8.32814e-10 9.30307e-11)
(1.2207e-10 8.8535e-10 1.54968e-10)
(1.19199e-10 9.1403e-10 1.03269e-10)
(1.18842e-10 9.39612e-10 5.81375e-11)
(1.18959e-10 9.20529e-10 8.99091e-11)
(9.54187e-11 7.96494e-10 1.61972e-10)
(8.98271e-11 8.26235e-10 1.06162e-10)
(8.63479e-11 8.56873e-10 5.16447e-11)
(8.66549e-11 8.71009e-10 3.07947e-11)
(1.24106e-10 9.73775e-10 1.42121e-11)
(1.21844e-10 9.61622e-10 2.56032e-11)
(8.80372e-11 8.86603e-10 1.4111e-11)
(8.69713e-11 8.74511e-10 2.6706e-11)
(1.19319e-10 9.43934e-10 4.99767e-11)
(1.21075e-10 9.57989e-10 3.05826e-11)
(4.92482e-10 1.43071e-10 2.7522e-11)
(4.92027e-10 1.47456e-10 1.68522e-11)
(4.89247e-10 6.71574e-11 4.74117e-12)
(1.67164e-10 3.46059e-11 2.06672e-12)
(4.87543e-10 6.64348e-11 6.82956e-12)
(4.95101e-10 1.51089e-10 6.23272e-12)
(4.92931e-10 1.48243e-10 1.22826e-11)
(4.84714e-10 6.439e-11 1.71223e-11)
(1.66202e-10 3.44335e-11 3.83161e-12)
(4.85246e-10 6.58008e-11 1.2719e-11)
(5.20345e-10 6.3203e-11 3.64852e-10)
(5.11237e-10 9.96938e-11 2.25955e-10)
(4.82123e-10 5.6069e-11 9.40523e-11)
(1.60172e-10 3.49743e-11 4.42264e-11)
(4.80942e-10 5.22257e-11 1.2993e-10)
(5.0138e-10 1.23208e-10 1.2081e-10)
(5.10453e-10 1.06364e-10 1.91893e-10)
(4.59217e-10 4.20859e-11 2.52074e-10)
(1.57691e-10 3.59602e-11 6.17676e-11)
(4.74968e-10 4.89601e-11 1.79176e-10)
(1.52443e-10 5.90513e-10 4.30618e-10)
(1.17893e-10 7.04971e-10 3.06213e-10)
(1.23604e-10 8.74805e-10 1.76135e-10)
(1.33688e-10 8.19676e-10 2.5425e-10)
(1.70284e-10 6.84812e-10 3.90989e-10)
(1.38798e-10 7.96354e-10 2.85523e-10)
(9.80782e-11 7.85573e-10 1.84093e-10)
(1.11564e-10 7.28711e-10 2.71477e-10)
(4.26018e-10 1.79701e-10 5.19343e-10)
(3.43948e-10 3.88943e-10 4.70881e-10)
(4.41217e-10 -2.24432e-11 7.97332e-10)
(4.7674e-10 1.21993e-10 4.6302e-10)
(3.90682e-10 2.65916e-10 3.96897e-10)
(4.00136e-10 2.97678e-10 5.83013e-10)
(5.13906e-10 3.73834e-11 6.22052e-10)
(4.02204e-10 1.67428e-10 4.97827e-10)
(4.05691e-10 4.06398e-10 5.67436e-10)
(3.84746e-10 5.10342e-11 5.01355e-10)
(7.7589e-11 -4.15609e-11 1.72614e-10)
(4.75162e-10 -1.0296e-10 6.37612e-10)
(7.1048e-11 -1.93946e-11 1.39592e-10)
(4.44849e-10 1.13687e-10 5.57379e-10)
(4.99239e-10 -6.72176e-11 8.75847e-10)
(4.29897e-10 3.18612e-10 6.42125e-10)
(5.61168e-10 -8.70248e-11 7.18286e-10)
(1.70214e-10 5.4408e-10 4.76965e-10)
(2.72299e-10 3.9365e-10 6.17419e-10)
(3.41601e-10 4.73191e-10 5.70028e-10)
(1.86318e-10 6.41378e-10 4.30047e-10)
(2.83968e-10 4.9577e-10 5.40685e-10)
(3.30107e-10 3.6323e-10 6.61979e-10)
(5.23679e-10 4.52362e-11 4.29024e-10)
(5.62027e-10 -7.43858e-11 6.89099e-10)
(7.688e-11 -4.7287e-11 1.84023e-10)
(5.00272e-10 -1.39129e-10 6.65109e-10)
(5.94853e-10 -1.43248e-10 7.65101e-10)
(4.42876e-10 2.26525e-11 3.62253e-10)
(1.41823e-10 2.35491e-12 2.08434e-10)
(4.41507e-10 -1.90855e-11 5.10898e-10)
(4.62448e-10 5.24607e-10 1.43878e-11)
(3.30569e-10 4.02271e-10 1.3772e-11)
(4.83721e-10 3.48469e-10 1.22429e-11)
(3.33661e-10 5.86676e-10 1.44918e-11)
(4.33341e-10 5.3406e-10 7.08088e-12)
(2.95908e-10 4.1613e-10 2.32383e-13)
(4.41501e-10 3.65096e-10 1.62277e-12)
(2.90326e-10 6.02722e-10 3.33223e-12)
(4.24288e-10 5.36209e-10 5.95322e-12)
(4.51688e-10 3.61162e-10 4.09307e-12)
(2.99378e-10 5.9979e-10 3.91511e-12)
(3.98379e-10 5.32427e-10 -2.29949e-12)
(2.65076e-10 5.96833e-10 -1.8762e-12)
(2.6189e-10 4.18668e-10 -1.93801e-12)
(4.14291e-10 3.62434e-10 -3.73016e-12)
(4.14162e-10 3.6417e-10 -2.1353e-12)
(2.66134e-10 5.97378e-10 -2.04268e-12)
(3.98031e-10 5.31163e-10 -2.43828e-12)
(4.0994e-10 5.37833e-10 2.29745e-12)
(2.71782e-10 4.25364e-10 -1.85336e-12)
(4.32333e-10 3.68418e-10 1.71645e-12)
(2.82009e-10 6.04312e-10 1.62592e-12)
(4.16789e-10 5.36904e-10 4.19578e-12)
(4.24556e-10 3.70492e-10 -8.37998e-13)
(2.76136e-10 6.0441e-10 1.04252e-12)
(3.76558e-10 5.24777e-10 -4.16373e-12)
(2.44429e-10 5.90095e-10 -4.64616e-12)
(2.40407e-10 4.11402e-10 -4.6479e-12)
(3.93159e-10 3.57656e-10 -3.82923e-12)
(3.77045e-10 5.25037e-10 -4.46286e-12)
(3.92604e-10 3.57294e-10 -5.07086e-12)
(2.44335e-10 5.89191e-10 -4.10306e-12)
(3.11659e-10 6.11606e-10 -5.36667e-12)
(2.60825e-10 9.03681e-10 -4.49966e-12)
(3.1035e-10 6.10201e-10 -3.2365e-12)
(2.6218e-10 9.05434e-10 -4.92623e-12)
(3.12852e-10 6.12341e-10 -2.75084e-12)
(2.64958e-10 9.08164e-10 -4.29974e-12)
(3.14183e-10 6.13374e-10 -4.93417e-12)
(2.63589e-10 9.06868e-10 -3.94364e-12)
(3.72549e-10 5.23029e-10 -4.59371e-12)
(2.36645e-10 4.10358e-10 -4.59191e-12)
(3.87545e-10 3.56093e-10 -5.26501e-12)
(2.39508e-10 5.87299e-10 -4.37697e-12)
(3.71758e-10 5.22424e-10 -4.43791e-12)
(3.88303e-10 3.56437e-10 -3.97393e-12)
(2.40542e-10 5.87322e-10 -4.88386e-12)
(3.68127e-10 5.18653e-10 -5.18452e-12)
(2.36185e-10 5.82289e-10 -4.8357e-12)
(2.33158e-10 4.06531e-10 -4.85642e-12)
(3.8359e-10 3.52518e-10 -5.69571e-12)
(3.83852e-10 3.53064e-10 -4.39515e-12)
(2.3695e-10 5.82309e-10 -5.32646e-12)
(3.67716e-10 5.17999e-10 -4.98658e-12)
(3.08114e-10 6.07769e-10 -3.56751e-12)
(2.59653e-10 9.01907e-10 -5.40001e-12)
(3.09264e-10 6.09277e-10 -5.76554e-12)
(2.58606e-10 8.99959e-10 -4.82227e-12)
(3.07244e-10 6.06958e-10 -6.0822e-12)
(2.56708e-10 8.97124e-10 -5.03079e-12)
(2.57665e-10 8.98522e-10 -5.58478e-12)
(3.0634e-10 6.05666e-10 -3.86037e-12)
(3.70444e-10 5.21496e-10 -4.6714e-12)
(2.34948e-10 4.09174e-10 -4.95684e-12)
(3.8678e-10 3.55834e-10 -4.12699e-12)
(2.38872e-10 5.86708e-10 -5.08241e-12)
(3.71037e-10 5.21942e-10 -4.83851e-12)
(3.86035e-10 3.55444e-10 -5.40829e-12)
(2.38879e-10 5.85502e-10 -4.55156e-12)
(3.5823e-10 5.06612e-10 -6.38751e-12)
(2.28692e-10 5.70328e-10 -6.66142e-12)
(2.25446e-10 3.95774e-10 -6.41408e-12)
(3.74787e-10 3.44185e-10 -5.75829e-12)
(3.58724e-10 5.07328e-10 -6.6262e-12)
(3.74217e-10 3.4349e-10 -6.99291e-12)
(2.2877e-10 5.68878e-10 -6.09887e-12)
(3.54943e-10 5.02075e-10 -6.53344e-12)
(2.22995e-10 3.91831e-10 -5.92281e-12)
(3.70547e-10 3.39007e-10 -6.83331e-12)
(2.2531e-10 5.63119e-10 -5.73731e-12)
(3.54335e-10 5.00893e-10 -6.23081e-12)
(3.70968e-10 3.40045e-10 -5.68944e-12)
(2.2605e-10 5.63846e-10 -6.39527e-12)
(3.49173e-10 4.92591e-10 -4.4353e-12)
(2.20916e-10 5.51874e-10 -2.61319e-12)
(2.19085e-10 3.83152e-10 -3.44757e-12)
(3.65152e-10 3.30967e-10 -4.2348e-12)
(3.65544e-10 3.32448e-10 -3.61089e-12)
(2.2159e-10 5.53137e-10 -3.82504e-12)
(3.48507e-10 4.90999e-10 -3.63218e-12)
(3.53055e-10 4.98911e-10 -5.98131e-12)
(2.21767e-10 3.88782e-10 -5.75877e-12)
(3.6991e-10 3.38332e-10 -5.55677e-12)
(2.24646e-10 5.62042e-10 -6.2136e-12)
(3.5364e-10 4.99948e-10 -6.41947e-12)
(3.69296e-10 3.37324e-10 -6.57289e-12)
(2.24717e-10 5.60205e-10 -5.41593e-12)
(3.43066e-10 4.49766e-10 5.58013e-11)
(2.18969e-10 5.07909e-10 5.34998e-11)
(2.23276e-10 3.39707e-10 6.2022e-11)
(3.62123e-10 2.99317e-10 4.8012e-11)
(3.41674e-10 4.53612e-10 4.70614e-11)
(3.64388e-10 2.95343e-10 5.54455e-11)
(2.21488e-10 5.02623e-10 6.3256e-11)
(3.49651e-10 4.25171e-10 1.18354e-10)
(2.36735e-10 3.1453e-10 1.31485e-10)
(3.78311e-10 2.67708e-10 1.38796e-10)
(2.35845e-10 4.64303e-10 1.53237e-10)
(3.52868e-10 4.17631e-10 1.37015e-10)
(3.73555e-10 2.75125e-10 1.20787e-10)
(2.31354e-10 4.73154e-10 1.32273e-10)
(3.91649e-10 3.03412e-10 3.67986e-10)
(3.04057e-10 2.95154e-10 4.60696e-10)
(3.04198e-10 1.89429e-10 4.15266e-10)
(4.43737e-10 1.36985e-10 4.48111e-10)
(4.28145e-10 1.68274e-10 3.88819e-10)
(2.86918e-10 3.32609e-10 4.02835e-10)
(4.04777e-10 2.70227e-10 4.22046e-10)
(3.61059e-10 3.98741e-10 1.82626e-10)
(2.55141e-10 2.85199e-10 2.03344e-10)
(3.82886e-10 2.60972e-10 1.6145e-10)
(2.39675e-10 4.54803e-10 1.75698e-10)
(3.56089e-10 4.09694e-10 1.57474e-10)
(3.90201e-10 2.50063e-10 1.86305e-10)
(2.4673e-10 4.41291e-10 2.03459e-10)
(4.90335e-10 2.15567e-10 1.25115e-11)
(4.47644e-10 2.29762e-10 -3.7646e-12)
(4.57629e-10 2.26172e-10 -7.21917e-13)
(1.74308e-10 6.51388e-10 1.39198e-11)
(1.34285e-10 6.67412e-10 1.66323e-12)
(1.4138e-10 6.65148e-10 1.67532e-12)
(4.19558e-10 2.2943e-10 -3.70972e-12)