/*--------------------------------*- C++ -*----------------------------------*\
| =========                 |                                                 |
| \\      /  F ield         | OpenFOAM: The Open Source CFD Toolbox           |
|  \\    /   O peration     | Version:  2012                                  |
|   \\  /    A nd           | Website:  www.openfoam.com                      |
|    \\/     M anipulation  |                                                 |
\*---------------------------------------------------------------------------*/
FoamFile
{
    version     2.0;
    format      ascii;
    class       volVectorField;
    location    "0.106/solid";
    object      D_0;
}
// * * * * * * * * * * * * * * * * * * * * * * * * * * * * * * * * * * * * * //

dimensions      [0 1 0 0 0 0 0];


internalField   nonuniform List<vector> 
3125
(
(1.78227e-10 2.39645e-10 6.85201e-13)
(1.71765e-10 2.37508e-10 -1.28809e-12)
(1.60199e-10 2.30644e-10 -3.02812e-12)
(1.59087e-10 2.29639e-10 -3.08263e-12)
(1.51653e-10 2.21296e-10 -4.28103e-12)
(1.50114e-10 2.19494e-10 -4.29401e-12)
(1.34799e-10 1.98815e-10 2.95262e-11)
(1.33808e-10 1.90722e-10 4.95967e-11)
(1.65623e-10 2.34493e-10 -2.72179e-12)
(1.6354e-10 2.33339e-10 -2.85799e-12)
(1.56214e-10 2.26679e-10 -3.48358e-12)
(1.55183e-10 2.25519e-10 -3.66283e-12)
(1.43719e-10 2.12654e-10 -1.433e-12)
(1.41121e-10 2.0985e-10 1.93693e-12)
(1.8318e-10 2.40558e-10 5.36782e-12)
(2.83484e-10 1.49412e-10 2.60016e-12)
(2.59367e-10 9.78372e-10 6.76279e-13)
(2.54044e-10 4.38877e-10 -2.05516e-12)
(2.8789e-10 1.48944e-10 4.17346e-12)
(2.39717e-10 4.32031e-10 -3.6855e-12)
(2.75153e-10 1.50307e-10 -5.7901e-16)
(2.52641e-10 9.68812e-10 -1.48175e-12)
(1.68908e-10 2.36098e-10 -1.89156e-12)
(2.42773e-10 9.62403e-10 -9.34943e-13)
(2.46939e-10 4.42178e-10 -2.53973e-12)
(2.72165e-10 1.49007e-10 -2.29445e-12)
(2.27295e-10 4.22984e-10 -5.30791e-12)
(1.61347e-10 2.31545e-10 -2.86225e-12)
(2.63268e-10 1.44603e-10 -2.63672e-12)
(2.2333e-10 4.20464e-10 -5.55976e-12)
(2.6459e-10 1.45164e-10 -2.59481e-12)
(2.20703e-10 4.159e-10 -5.65347e-12)
(2.61934e-10 1.43947e-10 -2.65097e-12)
(1.58155e-10 2.28666e-10 -3.16943e-12)
(2.22822e-10 4.20035e-10 -5.44246e-12)
(2.60883e-10 1.432e-10 -2.84605e-12)
(2.14738e-10 4.05776e-10 -6.27012e-12)
(1.52981e-10 2.22868e-10 -4.07342e-12)
(2.53473e-10 1.37915e-10 -3.66816e-12)
(2.11908e-10 3.9978e-10 -6.09709e-12)
(2.55009e-10 1.39026e-10 -3.4648e-12)
(2.08363e-10 3.90371e-10 -3.00507e-12)
(2.51797e-10 1.36604e-10 -3.54806e-12)
(1.48286e-10 2.17462e-10 -4.04575e-12)
(2.11446e-10 3.98835e-10 -5.8341e-12)
(2.49823e-10 1.35168e-10 -3.28643e-12)
(2.10667e-10 3.52377e-10 5.4056e-11)
(1.36435e-10 2.03449e-10 1.63644e-11)
(2.37274e-10 1.20779e-10 3.81216e-11)
(2.32422e-10 3.14145e-10 1.54349e-10)
(2.3923e-10 1.24309e-10 2.00879e-11)
(3.13968e-10 1.62106e-10 4.83737e-10)
(2.3456e-10 1.14586e-10 6.99214e-11)
(1.34791e-10 1.72026e-10 8.00002e-11)
(2.38013e-10 3.05188e-10 1.78451e-10)
(2.31441e-10 1.01924e-10 1.27982e-10)
(1.86839e-10 4.2761e-11 6.84189e-13)
(2.39106e-10 1.2617e-09 1.9043e-12)
(1.8501e-10 4.30957e-11 2.47963e-13)
(1.82132e-10 4.23619e-11 -1.88809e-12)
(2.32594e-10 1.24686e-09 1.3367e-12)
(2.23145e-10 1.24259e-09 2.27229e-13)
(2.40554e-10 4.29947e-10 -3.97752e-12)
(1.6766e-10 2.35399e-10 -2.27641e-12)
(2.69453e-10 1.47188e-10 -2.28222e-12)
(2.32059e-10 4.28639e-10 -5.83217e-12)
(2.71614e-10 1.47627e-10 -2.52333e-12)
(2.13348e-10 1.23603e-09 -4.40455e-12)
(2.20969e-10 1.24537e-09 -1.56479e-12)
(1.80035e-10 4.1613e-11 -1.36799e-12)
(1.81647e-10 4.19446e-11 -1.53936e-12)
(2.27556e-10 4.23567e-10 -5.36556e-12)
(1.62301e-10 2.32357e-10 -2.86391e-12)
(2.66855e-10 1.46745e-10 -2.41164e-12)
(2.3052e-10 4.28693e-10 -5.6669e-12)
(2.65499e-10 1.45914e-10 -2.75703e-12)
(1.76748e-10 4.05368e-11 -1.47e-12)
(1.77711e-10 4.08586e-11 -1.25688e-12)
(2.02115e-10 1.21785e-09 -5.21218e-12)
(2.05829e-10 1.22514e-09 -4.76223e-12)
(2.11281e-10 1.23135e-09 -4.58656e-12)
(2.07092e-10 1.226e-09 -4.27785e-12)
(1.79346e-10 4.1546e-11 -1.09276e-12)
(1.78077e-10 4.105e-11 -1.62679e-12)
(1.76339e-10 4.04091e-11 -1.17058e-12)
(1.75391e-10 3.99812e-11 -1.57532e-12)
(2.01046e-10 1.21505e-09 -5.41098e-12)
(1.98041e-10 1.20868e-09 -5.27192e-12)
(2.20366e-10 4.15426e-10 -5.60546e-12)
(1.5723e-10 2.27716e-10 -3.24931e-12)
(2.58701e-10 1.41777e-10 -3.03285e-12)
(2.1758e-10 4.11914e-10 -6.00723e-12)
(2.59875e-10 1.42483e-10 -2.81001e-12)
(1.93837e-10 1.1992e-09 -5.78778e-12)
(1.96983e-10 1.20679e-09 -5.60171e-12)
(1.74123e-10 3.94355e-11 -1.65496e-12)
(1.75028e-10 3.9824e-11 -1.26136e-12)
(2.15089e-10 4.06475e-10 -6.33627e-12)
(1.54132e-10 2.24257e-10 -3.90453e-12)
(2.57519e-10 1.40951e-10 -3.12857e-12)
(2.17226e-10 4.11354e-10 -5.9425e-12)
(2.56309e-10 1.40038e-10 -3.40439e-12)
(1.71017e-10 3.80091e-11 -1.97413e-12)
(1.72272e-10 3.85812e-11 -1.56308e-12)
(1.84292e-10 1.1729e-09 -5.24706e-12)
(1.8847e-10 1.18437e-09 -6.05043e-12)
(1.92822e-10 1.19642e-09 -6.0406e-12)
(1.89675e-10 1.18751e-09 -5.8915e-12)
(1.73713e-10 3.92704e-11 -1.38051e-12)
(1.72732e-10 3.87799e-11 -1.83731e-12)
(1.70407e-10 3.77572e-11 -1.66792e-12)
(1.68806e-10 3.70247e-11 -1.73361e-12)
(1.8263e-10 1.16871e-09 -4.99536e-12)
(2.07886e-10 3.89047e-10 -2.09804e-12)
(1.46172e-10 2.15188e-10 -3.18017e-12)
(2.45272e-10 1.31638e-10 -3.75311e-13)
(2.05441e-10 3.76906e-10 8.86113e-12)
(2.47702e-10 1.3346e-10 -2.26838e-12)
(1.66037e-10 3.59712e-11 -5.3724e-14)
(1.68049e-10 3.6727e-11 -1.20552e-12)
(2.09118e-10 3.55869e-10 4.59276e-11)
(1.38563e-10 2.06844e-10 7.521e-12)
(2.43033e-10 1.29445e-10 3.27181e-12)
(2.05318e-10 3.7488e-10 1.16805e-11)
(2.40803e-10 1.27161e-10 9.47316e-12)
(1.60297e-10 3.53724e-11 2.3082e-11)
(1.62283e-10 3.50452e-11 8.61162e-12)
(1.65142e-10 3.5687e-11 1.13754e-12)
(1.63129e-10 3.51751e-11 5.63741e-12)
(1.59018e-10 3.56833e-11 3.19157e-11)
(1.50775e-10 3.62963e-11 9.0882e-11)
(3.35785e-10 1.22922e-10 5.53655e-10)
(1.36929e-10 3.06219e-11 1.12057e-10)
(1.49825e-10 3.26318e-11 1.30713e-10)
(3.45453e-10 9.64872e-11 4.54253e-10)
(6.45248e-11 -1.09755e-11 1.21791e-10)
(4.29382e-10 5.67055e-10 8.02425e-12)
(2.80412e-10 4.25727e-10 5.74611e-12)
(5.03421e-10 3.44513e-10 6.12722e-12)
(3.4444e-10 7.99573e-10 1.00128e-11)
(4.24079e-10 5.67535e-10 5.52963e-12)
(2.7295e-10 4.30581e-10 2.84572e-12)
(4.85854e-10 3.51468e-10 3.21745e-12)
(3.24847e-10 7.99389e-10 3.59701e-12)
(4.1432e-10 5.67062e-10 3.76879e-12)
(4.97361e-10 3.47414e-10 7.53381e-12)
(3.35782e-10 8.00937e-10 5.4214e-12)
(3.97262e-10 5.61243e-10 -3.66016e-12)
(3.06636e-10 7.87171e-10 -3.00167e-12)
(2.38412e-10 4.3851e-10 -2.70908e-12)
(4.66846e-10 3.47797e-10 -6.42715e-12)
(4.65906e-10 3.51523e-10 -3.22305e-12)
(3.06876e-10 7.89008e-10 -3.88927e-12)
(3.9693e-10 5.59075e-10 -3.92372e-12)
(3.99426e-10 5.63128e-10 -1.42313e-12)
(2.37545e-10 4.41814e-10 -2.83488e-12)
(4.75059e-10 3.54281e-10 2.94039e-12)
(3.14639e-10 7.96277e-10 -6.00008e-13)
(4.05956e-10 5.65557e-10 8.92567e-13)
(4.67453e-10 3.54209e-10 -3.26542e-12)
(3.08562e-10 7.92332e-10 -1.20697e-12)
(3.82159e-10 5.4867e-10 -4.66755e-12)
(2.9235e-10 7.74377e-10 -6.26162e-12)
(2.25613e-10 4.21915e-10 -5.58726e-12)
(4.53834e-10 3.40095e-10 -3.80999e-12)
(3.83485e-10 5.49735e-10 -5.39786e-12)
(4.52439e-10 3.39471e-10 -5.76395e-12)
(2.91131e-10 7.73031e-10 -4.84769e-12)
(3.80982e-10 5.47943e-10 -5.38508e-12)
(2.24771e-10 4.21866e-10 -5.48387e-12)
(4.49908e-10 3.38216e-10 -6.0144e-12)
(2.88622e-10 7.70246e-10 -5.01351e-12)
(3.79779e-10 5.46586e-10 -4.85627e-12)
(4.51041e-10 3.39188e-10 -3.72345e-12)
(2.89784e-10 7.71814e-10 -6.34557e-12)
(3.76549e-10 5.43307e-10 -5.77222e-12)
(2.85013e-10 7.63795e-10 -5.20712e-12)
(2.21238e-10 4.1789e-10 -5.42445e-12)
(4.45917e-10 3.34737e-10 -6.42295e-12)
(4.4628e-10 3.36086e-10 -4.17704e-12)
(2.85679e-10 7.65208e-10 -6.61881e-12)
(3.75877e-10 5.41923e-10 -5.1962e-12)
(3.77349e-10 5.44205e-10 -5.01112e-12)
(2.21479e-10 4.18509e-10 -5.53697e-12)
(4.48614e-10 3.3766e-10 -3.67725e-12)
(2.87519e-10 7.68594e-10 -6.60115e-12)
(3.7868e-10 5.45627e-10 -5.52085e-12)
(4.47106e-10 3.36821e-10 -6.03976e-12)
(2.86463e-10 7.66682e-10 -5.1994e-12)
(3.65382e-10 5.28492e-10 -6.32329e-12)
(2.76644e-10 7.47969e-10 -7.66899e-12)
(2.13392e-10 4.03538e-10 -6.43849e-12)
(4.36797e-10 3.26484e-10 -4.93221e-12)
(3.66906e-10 5.3049e-10 -6.8572e-12)
(4.35195e-10 3.25205e-10 -7.11622e-12)
(2.7544e-10 7.45429e-10 -6.29979e-12)
(3.64176e-10 5.27117e-10 -7.03945e-12)
(2.12795e-10 4.02941e-10 -6.27929e-12)
(4.32882e-10 3.22313e-10 -7.40564e-12)
(2.73116e-10 7.40413e-10 -6.08253e-12)
(3.62907e-10 5.24717e-10 -6.42483e-12)
(4.33852e-10 3.24293e-10 -5.23731e-12)
(2.74242e-10 7.43127e-10 -7.62322e-12)
(3.58143e-10 5.18555e-10 -6.08925e-12)
(2.67294e-10 7.27541e-10 -3.47121e-12)
(2.09286e-10 3.94683e-10 -4.6767e-12)
(4.26754e-10 3.15371e-10 -5.6113e-12)
(4.28023e-10 3.1796e-10 -4.24662e-12)
(2.68774e-10 7.31242e-10 -5.96307e-12)
(3.56451e-10 5.15373e-10 -4.62213e-12)
(3.59718e-10 5.20413e-10 -5.88725e-12)
(2.1e-10 3.95537e-10 -5.19809e-12)
(4.31562e-10 3.21094e-10 -4.87822e-12)
(2.71847e-10 7.3775e-10 -7.24104e-12)
(3.61626e-10 5.23099e-10 -6.82627e-12)
(4.29667e-10 3.19257e-10 -6.60967e-12)
(2.70317e-10 7.3437e-10 -5.36361e-12)
(3.42172e-10 4.74559e-10 5.64388e-11)
(2.57245e-10 6.77459e-10 5.4338e-11)
(2.17909e-10 3.38861e-10 8.54583e-11)
(4.16982e-10 2.88426e-10 4.21905e-11)
(3.42473e-10 4.81944e-10 3.94619e-11)
(4.18057e-10 2.82326e-10 5.76616e-11)
(2.58343e-10 6.67423e-10 7.55248e-11)
(3.42138e-10 4.68444e-10 7.36658e-11)
(2.19755e-10 3.34923e-10 9.92996e-11)
(4.21843e-10 2.68059e-10 1.05873e-10)
(2.63166e-10 6.40298e-10 1.33709e-10)
(3.43069e-10 4.56781e-10 1.00699e-10)
(4.18949e-10 2.77556e-10 7.91543e-11)
(2.60084e-10 6.55801e-10 9.94506e-11)
(3.51902e-10 3.95525e-10 2.29068e-10)
(3.04406e-10 4.80939e-10 3.80001e-10)
(2.701e-10 2.47275e-10 3.16579e-10)
(4.46878e-10 1.74675e-10 3.52139e-10)
(4.36133e-10 2.1762e-10 2.59219e-10)
(2.86555e-10 5.46124e-10 2.94381e-10)
(3.59978e-10 3.4229e-10 3.07696e-10)
(3.48077e-10 4.2148e-10 1.7596e-10)
(2.61911e-10 2.63865e-10 2.74449e-10)
(4.26043e-10 2.58061e-10 1.42192e-10)
(2.68485e-10 6.2021e-10 1.73939e-10)
(3.45081e-10 4.45537e-10 1.30086e-10)
(4.31788e-10 2.38254e-10 1.93354e-10)
(2.75813e-10 5.89333e-10 2.28731e-10)
(5.73018e-10 1.79919e-10 5.21872e-12)
(5.44847e-10 8.84568e-11 1.75288e-12)
(1.88867e-10 4.21295e-11 1.24511e-12)
(5.54128e-10 8.42264e-11 4.3116e-12)
(5.52031e-10 1.88757e-10 1.37419e-12)
(5.69925e-10 1.81217e-10 5.91394e-12)
(1.90123e-10 4.20133e-11 1.515e-12)
(5.5902e-10 8.23878e-11 3.82267e-12)
(1.48225e-10 1.01939e-09 8.45267e-12)
(2.4732e-10 1.27869e-09 3.71857e-12)
(1.75756e-10 1.10709e-09 1.74681e-12)
(1.88489e-10 1.12005e-09 6.14495e-12)
(2.55582e-10 1.29051e-09 8.03741e-12)
(1.92785e-10 1.12138e-09 7.75818e-12)
(1.30709e-10 1.01245e-09 2.41968e-12)
(1.43675e-10 1.02023e-09 5.84407e-12)
(5.35708e-10 1.85749e-10 -5.87753e-12)
(5.33313e-10 1.91486e-10 -3.27621e-12)
(5.35245e-10 9.21829e-11 1.45759e-12)
(1.83456e-10 4.32382e-11 -1.1201e-12)
(5.28605e-10 9.40444e-11 -2.89106e-12)
(5.46133e-10 1.90689e-10 1.92291e-12)
(5.33838e-10 1.92862e-10 -4.11693e-12)
(5.28368e-10 8.91216e-11 -5.01787e-12)
(1.82508e-10 4.28849e-11 -1.33534e-12)
(5.27543e-10 9.19542e-11 -2.63827e-12)
(1.17938e-10 9.97575e-10 -2.29359e-12)
(1.20138e-10 9.98602e-10 -2.07702e-12)
(2.28094e-10 1.23899e-09 1.69529e-12)
(1.72248e-10 1.10282e-09 9.31891e-13)
(1.65855e-10 1.09289e-09 -5.40731e-13)
(1.62276e-10 1.09216e-09 -2.28627e-12)
(2.25303e-10 1.23912e-09 1.29355e-12)
(1.64818e-10 1.09168e-09 -9.53033e-13)
(1.27055e-10 1.00936e-09 3.71618e-13)
(1.20953e-10 1.00044e-09 -5.10449e-13)
(3.95329e-10 5.57338e-10 -3.8581e-12)
(3.06501e-10 7.86317e-10 -4.93969e-12)
(2.38635e-10 4.27906e-10 -5.40232e-12)
(4.67721e-10 3.45636e-10 -3.91695e-12)
(3.96767e-10 5.58377e-10 -4.74971e-12)
(3.0492e-10 7.8527e-10 -3.73692e-12)
(4.66672e-10 3.44445e-10 -5.34166e-12)
(3.93143e-10 5.56803e-10 -4.55364e-12)
(2.36473e-10 4.28711e-10 -5.55107e-12)
(2.99155e-10 7.82683e-10 -4.41456e-12)
(4.60895e-10 3.44501e-10 -5.30837e-12)
(3.02047e-10 7.84401e-10 -5.50194e-12)
(4.64037e-10 3.44721e-10 -2.98158e-12)
(3.90322e-10 5.55532e-10 -4.1104e-12)
(1.17274e-10 9.97669e-10 -3.69768e-12)
(1.14416e-10 9.95992e-10 -3.76302e-12)
(2.1595e-10 1.24104e-09 -4.15557e-12)
(1.53509e-10 1.08511e-09 -4.99192e-12)
(1.5711e-10 1.09022e-09 -4.28481e-12)
(1.6149e-10 1.09256e-09 -2.65697e-12)
(2.1863e-10 1.24481e-09 -3.03538e-12)
(1.58426e-10 1.09114e-09 -4.15614e-12)
(1.09609e-10 9.91525e-10 -4.41214e-12)
(1.13085e-10 9.95541e-10 -4.89338e-12)
(5.36383e-10 1.8442e-10 -4.22368e-12)
(5.35178e-10 1.82969e-10 -4.92007e-12)
(5.23635e-10 8.68179e-11 -3.92665e-12)
(1.80701e-10 4.16115e-11 -1.14878e-12)
(5.26112e-10 8.64567e-11 -2.43661e-12)
(5.28864e-10 1.83683e-10 -4.94627e-12)
(5.3369e-10 1.83212e-10 -3.27518e-12)
(5.29291e-10 8.67331e-11 -3.26549e-12)
(1.81343e-10 4.17155e-11 -1.48539e-12)
(5.28602e-10 8.60897e-11 -4.19546e-12)
(3.84752e-10 5.51799e-10 -5.51279e-12)
(2.27837e-10 4.26156e-10 -5.23374e-12)
(2.93158e-10 7.75327e-10 -4.77135e-12)
(4.54373e-10 3.40858e-10 -6.4181e-12)
(3.84174e-10 5.50393e-10 -4.88016e-12)
(2.93758e-10 7.76652e-10 -6.30006e-12)
(4.54461e-10 3.42543e-10 -4.19346e-12)
(3.85748e-10 5.52823e-10 -4.66757e-12)
(2.27863e-10 4.27248e-10 -5.4368e-12)
(2.96558e-10 7.80631e-10 -6.20379e-12)
(4.57921e-10 3.44387e-10 -3.1398e-12)
(3.87953e-10 5.54426e-10 -4.93469e-12)
(2.94673e-10 7.7836e-10 -4.8695e-12)
(4.55359e-10 3.43619e-10 -5.9417e-12)
(5.22557e-10 1.80599e-10 -3.8905e-12)
(5.20332e-10 1.80397e-10 -5.15842e-12)
(5.13632e-10 8.44186e-11 -4.2228e-12)
(1.77066e-10 4.06467e-11 -1.19256e-12)
(5.14388e-10 8.48879e-11 -2.64213e-12)
(5.17989e-10 1.79356e-10 -5.2687e-12)
(5.19539e-10 1.80349e-10 -3.61943e-12)
(5.17057e-10 8.48591e-11 -2.79277e-12)
(1.77448e-10 4.07628e-11 -1.43468e-12)
(5.15757e-10 8.49651e-11 -4.16639e-12)
(1.04684e-10 9.8245e-10 -5.64828e-12)
(1.03321e-10 9.7978e-10 -4.8429e-12)
(2.03393e-10 1.22064e-09 -5.25882e-12)
(1.44305e-10 1.06878e-09 -5.58821e-12)
(1.45925e-10 1.07219e-09 -5.34707e-12)
(1.48017e-10 1.07582e-09 -5.07048e-12)
(2.04654e-10 1.22321e-09 -4.96985e-12)
(1.46508e-10 1.07306e-09 -5.43581e-12)
(1.01296e-10 9.76143e-10 -4.91506e-12)
(1.02777e-10 9.79096e-10 -5.78669e-12)
(1.05183e-10 9.82841e-10 -4.60143e-12)
(1.06609e-10 9.84548e-10 -5.54871e-12)
(1.52558e-10 1.08349e-09 -4.99552e-12)
(2.09701e-10 1.228e-09 -4.26461e-12)
(1.50627e-10 1.07869e-09 -5.0526e-12)
(1.08708e-10 9.90116e-10 -5.52252e-12)
(1.0703e-10 9.85472e-10 -4.57054e-12)
(1.48554e-10 1.07624e-09 -5.09691e-12)
(2.0838e-10 1.2266e-09 -4.25551e-12)
(1.50131e-10 1.07785e-09 -4.94697e-12)
(5.22813e-10 1.81015e-10 -5.60593e-12)
(5.22461e-10 1.83473e-10 -4.05149e-12)
(5.20816e-10 8.72372e-11 -2.3851e-12)
(1.78785e-10 4.14867e-11 -1.53149e-12)
(5.18289e-10 8.76931e-11 -4.35623e-12)
(5.272e-10 1.8384e-10 -3.35438e-12)
(5.22904e-10 1.83981e-10 -5.51729e-12)
(5.17571e-10 8.5615e-11 -4.58845e-12)
(1.78308e-10 4.12877e-11 -1.34895e-12)
(5.1743e-10 8.6886e-11 -2.98626e-12)
(5.14011e-10 1.76885e-10 -5.57146e-12)
(5.14215e-10 1.78675e-10 -3.93265e-12)
(5.12314e-10 8.42138e-11 -2.60881e-12)
(1.75997e-10 4.03197e-11 -1.48954e-12)
(5.10759e-10 8.43943e-11 -4.28455e-12)
(5.17248e-10 1.79196e-10 -3.65328e-12)
(5.1468e-10 1.7898e-10 -5.39926e-12)
(5.09795e-10 8.29859e-11 -4.48361e-12)
(1.75608e-10 4.01586e-11 -1.29302e-12)
(5.09882e-10 8.3906e-11 -2.88479e-12)
(9.86217e-11 9.68367e-10 -5.08815e-12)
(9.97988e-11 9.7059e-10 -5.97018e-12)
(2.00114e-10 1.2124e-09 -5.25145e-12)
(1.4387e-10 1.06771e-09 -5.53451e-12)
(1.42852e-10 1.06385e-09 -5.65231e-12)
(1.41156e-10 1.06056e-09 -5.7286e-12)
(1.99132e-10 1.21041e-09 -5.32046e-12)
(1.42478e-10 1.06301e-09 -5.54055e-12)
(1.00917e-10 9.75174e-10 -5.95189e-12)
(1.00128e-10 9.71385e-10 -5.01804e-12)
(3.73802e-10 5.3985e-10 -5.25812e-12)
(2.84159e-10 7.62555e-10 -6.76482e-12)
(2.18928e-10 4.14167e-10 -5.88317e-12)
(4.45109e-10 3.34112e-10 -3.9993e-12)
(3.75082e-10 5.4113e-10 -5.80368e-12)
(2.83075e-10 7.60899e-10 -5.45028e-12)
(4.43702e-10 3.33385e-10 -6.20077e-12)
(3.72833e-10 5.38974e-10 -6.06766e-12)
(2.18387e-10 4.13846e-10 -5.79734e-12)
(2.81214e-10 7.57724e-10 -5.69036e-12)
(4.41892e-10 3.31566e-10 -6.70837e-12)
(2.82058e-10 7.59443e-10 -6.96973e-12)
(4.42594e-10 3.32862e-10 -4.35028e-12)
(3.71919e-10 5.37415e-10 -5.62703e-12)
(9.82301e-11 9.67729e-10 -6.13274e-12)
(9.72599e-11 9.64438e-10 -5.33465e-12)
(1.94954e-10 1.2018e-09 -5.83041e-12)
(1.37796e-10 1.05209e-09 -6.17152e-12)
(1.3912e-10 1.05549e-09 -5.9141e-12)
(1.40719e-10 1.05984e-09 -5.69634e-12)
(1.96004e-10 1.20434e-09 -5.64347e-12)
(1.39564e-10 1.05642e-09 -5.99706e-12)
(9.57163e-11 9.60602e-10 -5.45818e-12)
(9.68704e-11 9.63632e-10 -6.2889e-12)
(5.13569e-10 1.76606e-10 -3.94611e-12)
(5.11236e-10 1.76425e-10 -5.52538e-12)
(5.06049e-10 8.16567e-11 -4.67567e-12)
(1.74381e-10 3.95917e-11 -1.34219e-12)
(5.06415e-10 8.24047e-11 -3.02105e-12)
(5.0979e-10 1.74749e-10 -5.84411e-12)
(5.10596e-10 1.7626e-10 -4.07859e-12)
(5.08959e-10 8.25116e-11 -2.83731e-12)
(1.74758e-10 3.97342e-11 -1.52728e-12)
(5.07567e-10 8.26685e-11 -4.39904e-12)
(3.68777e-10 5.33583e-10 -6.6868e-12)
(2.15675e-10 4.08952e-10 -6.10964e-12)
(2.77617e-10 7.49937e-10 -6.14125e-12)
(4.37835e-10 3.27382e-10 -7.25424e-12)
(3.67883e-10 5.31706e-10 -6.21444e-12)
(2.78413e-10 7.51991e-10 -7.47579e-12)
(4.38446e-10 3.29012e-10 -4.93822e-12)
(3.69704e-10 5.34703e-10 -5.87473e-12)
(2.16071e-10 4.09512e-10 -6.19096e-12)
(2.80312e-10 7.56006e-10 -7.30522e-12)
(4.4088e-10 3.30843e-10 -4.42366e-12)
(3.71005e-10 5.36373e-10 -6.32755e-12)
(2.79305e-10 7.53841e-10 -6.0092e-12)
(4.39461e-10 3.29803e-10 -6.73912e-12)
(5.04991e-10 1.71477e-10 -4.77622e-12)
(5.02356e-10 1.70818e-10 -6.36705e-12)
(4.97188e-10 7.7892e-11 -5.34247e-12)
(1.71371e-10 3.82352e-11 -1.6782e-12)
(4.97821e-10 7.88785e-11 -3.77365e-12)
(5.00383e-10 1.68358e-10 -6.50885e-12)
(5.01558e-10 1.70511e-10 -4.92931e-12)
(5.00912e-10 7.93574e-11 -3.55348e-12)
(1.71921e-10 3.84425e-11 -1.85179e-12)
(4.99318e-10 7.93396e-11 -5.13394e-12)
(9.28662e-11 9.49849e-10 -6.64627e-12)
(9.19009e-11 9.44902e-10 -5.61767e-12)
(1.8589e-10 1.17684e-09 -5.70567e-12)
(1.30685e-10 1.02855e-09 -5.80547e-12)
(1.32454e-10 1.03388e-09 -6.12252e-12)
(1.34263e-10 1.04046e-09 -6.29144e-12)
(1.87274e-10 1.18065e-09 -5.84632e-12)
(1.32994e-10 1.03529e-09 -6.32861e-12)
(8.99917e-11 9.38765e-10 -5.0635e-12)
(9.14633e-11 9.43651e-10 -6.44633e-12)
(9.32531e-11 9.50877e-10 -5.65623e-12)
(9.43598e-11 9.54422e-10 -6.57903e-12)
(1.37404e-10 1.05104e-09 -6.13632e-12)
(1.91892e-10 1.19333e-09 -5.96225e-12)
(1.36443e-10 1.04665e-09 -6.34797e-12)
(9.53878e-11 9.59671e-10 -6.49897e-12)
(9.46919e-11 9.55423e-10 -5.64366e-12)
(1.34727e-10 1.04163e-09 -6.37162e-12)
(1.90861e-10 1.19042e-09 -6.03147e-12)
(1.36057e-10 1.04553e-09 -6.23664e-12)
(5.05593e-10 1.71835e-10 -6.34273e-12)
(5.06215e-10 1.7375e-10 -4.58944e-12)
(5.04958e-10 8.12416e-11 -3.12961e-12)
(1.73417e-10 3.91563e-11 -1.69089e-12)
(5.03516e-10 8.1304e-11 -4.78508e-12)
(5.09204e-10 1.74481e-10 -4.27898e-12)
(5.06819e-10 1.74036e-10 -6.0051e-12)
(5.02069e-10 7.99247e-11 -5.10618e-12)
(1.72989e-10 3.89754e-11 -1.52463e-12)
(5.02382e-10 8.08553e-11 -3.4583e-12)
(4.94019e-10 1.63449e-10 -4.83106e-12)
(4.95587e-10 1.66181e-10 -4.22763e-12)
(4.95684e-10 7.71611e-11 -3.67637e-12)
(1.69955e-10 3.75652e-11 -1.88148e-12)
(4.93829e-10 7.69386e-11 -5.00772e-12)
(4.99609e-10 1.67869e-10 -4.85178e-12)
(4.96573e-10 1.66644e-10 -5.89198e-12)
(4.90987e-10 7.51128e-11 -4.40449e-12)
(1.69252e-10 3.72984e-11 -1.59678e-12)
(4.91923e-10 7.62805e-11 -3.32094e-12)
(8.57608e-11 9.22464e-10 -1.28914e-12)
(8.75744e-11 9.29172e-10 -4.31863e-12)
(1.80881e-10 1.16385e-09 -4.37569e-12)
(1.30067e-10 1.02697e-09 -5.512e-12)
(1.28266e-10 1.02019e-09 -4.6738e-12)
(1.25196e-10 1.01096e-09 -2.18089e-12)
(1.78956e-10 1.15861e-09 -4.0367e-12)
(1.27547e-10 1.01827e-09 -4.08038e-12)
(8.94858e-11 9.37347e-10 -5.8266e-12)
(8.81538e-11 9.30902e-10 -3.90128e-12)
(3.52591e-10 5.09693e-10 -1.72982e-12)
(2.65747e-10 7.24007e-10 -3.30435e-12)
(2.06615e-10 3.8422e-10 1.09103e-12)
(4.25227e-10 3.13676e-10 -2.21816e-12)
(3.54875e-10 5.13297e-10 -4.1095e-12)
(2.63938e-10 7.19572e-10 2.59099e-13)
(4.23127e-10 3.11129e-10 -2.44434e-12)
(3.50734e-10 5.07221e-10 -3.47516e-13)
(2.05803e-10 3.82977e-10 2.72574e-12)
(2.60535e-10 7.10167e-10 7.25683e-12)
(4.19933e-10 3.05948e-10 2.54512e-12)
(2.62143e-10 7.15282e-10 1.8737e-12)
(4.21254e-10 3.09353e-10 1.54322e-12)
(3.48785e-10 5.03027e-10 3.43823e-12)
(8.51317e-11 9.20578e-10 -1.29975e-12)
(8.33495e-11 9.11954e-10 3.49882e-12)
(1.18112e-10 9.87524e-10 1.14161e-11)
(1.20902e-10 9.97495e-10 4.48616e-12)
(1.2424e-10 1.00882e-09 -1.07457e-12)
(1.21888e-10 1.00006e-09 2.6844e-12)
(8.07172e-11 8.99949e-10 1.22082e-11)
(8.27242e-11 9.09685e-10 4.40116e-12)
(4.93125e-10 1.62737e-10 -2.75648e-12)
(4.8985e-10 1.60885e-10 -1.90122e-12)
(4.83657e-10 7.17439e-11 6.73568e-13)
(1.66585e-10 3.62402e-11 -4.12901e-13)
(4.84749e-10 7.30253e-11 2.75851e-13)
(4.87156e-10 1.56957e-10 2.96171e-12)
(4.88696e-10 1.60302e-10 5.28822e-13)
(4.89166e-10 7.41277e-11 -2.11707e-12)
(1.67481e-10 3.65104e-11 -1.10168e-12)
(4.87113e-10 7.37054e-11 -2.52958e-12)
(3.43744e-10 4.91894e-10 1.89507e-11)
(2.05847e-10 3.65434e-10 2.72325e-11)
(2.56646e-10 6.85203e-10 4.05553e-11)
(4.16128e-10 2.92446e-10 2.87661e-11)
(3.427e-10 4.86273e-10 2.93583e-11)
(2.57e-10 6.924e-10 2.72575e-11)
(4.16076e-10 2.97191e-10 2.10859e-11)
(3.45189e-10 4.95272e-10 1.31175e-11)
(2.0602e-10 3.67371e-10 2.23732e-11)
(2.59231e-10 7.05014e-10 1.10808e-11)
(4.18744e-10 3.03424e-10 8.56784e-12)
(3.47233e-10 5.0006e-10 6.56855e-12)
(2.57959e-10 6.98664e-10 1.94803e-11)
(4.17236e-10 2.99778e-10 1.2572e-11)
(4.84258e-10 1.46319e-10 3.50257e-11)
(4.86327e-10 1.41203e-10 5.62325e-11)
(4.7524e-10 6.25289e-11 6.91193e-11)
(1.60817e-10 3.52179e-11 1.70106e-11)
(4.75117e-10 6.42673e-11 5.14973e-11)
(4.91357e-10 1.31883e-10 1.03981e-10)
(4.86346e-10 1.39803e-10 6.7214e-11)
(4.76917e-10 6.60808e-11 2.67765e-11)
(1.61834e-10 3.5033e-11 1.20716e-11)
(4.76826e-10 6.47702e-11 3.63361e-11)
(7.85569e-11 8.63134e-10 6.01948e-11)
(8.09888e-11 8.43258e-10 9.46937e-11)
(1.15354e-10 8.94865e-10 1.57699e-10)
(1.12361e-10 9.24367e-10 1.05245e-10)
(1.11755e-10 9.50448e-10 5.92557e-11)
(1.11995e-10 9.31184e-10 9.14655e-11)
(8.78147e-11 8.05974e-10 1.6448e-10)
(8.20947e-11 8.36405e-10 1.07823e-10)
(7.83135e-11 8.67274e-10 5.26069e-11)
(7.84893e-11 8.81307e-10 3.133e-11)
(1.17175e-10 9.84379e-10 1.43613e-11)
(1.14691e-10 9.71942e-10 2.6005e-11)
(8.00865e-11 8.97187e-10 1.41912e-11)
(7.88105e-11 8.84874e-10 2.71425e-11)
(1.12221e-10 9.54424e-10 5.08887e-11)
(1.13851e-10 9.68377e-10 3.10636e-11)
(4.83957e-10 1.47922e-10 2.8044e-11)
(4.83391e-10 1.52373e-10 1.71371e-11)
(4.8193e-10 7.04945e-11 4.83559e-12)
(1.6456e-10 3.55102e-11 2.11748e-12)
(4.80275e-10 6.97893e-11 6.99383e-12)
(4.86443e-10 1.55964e-10 6.32575e-12)
(4.84288e-10 1.53171e-10 1.25234e-11)
(4.77559e-10 6.77263e-11 1.7444e-11)
(1.63616e-10 3.53422e-11 3.91196e-12)
(4.78014e-10 6.91681e-11 1.29446e-11)
(5.1303e-10 6.73662e-11 3.69071e-10)
(5.03468e-10 1.04414e-10 2.28829e-10)
(4.75368e-10 5.94572e-11 9.53588e-11)
(1.57782e-10 3.59327e-11 4.47758e-11)
(4.7434e-10 5.55924e-11 1.31609e-10)
(4.93299e-10 1.2808e-10 1.22545e-10)
(5.02607e-10 1.11151e-10 1.94444e-10)
(4.52941e-10 4.51267e-11 2.54934e-10)
(1.55324e-10 3.69135e-11 6.24835e-11)
(4.68453e-10 5.22663e-11 1.81333e-10)
(1.45593e-10 5.98863e-10 4.37237e-10)
(1.106e-10 7.13835e-10 3.10968e-10)
(1.16978e-10 8.84099e-10 1.78978e-10)
(1.27153e-10 8.28655e-10 2.58468e-10)
(1.64143e-10 6.93468e-10 3.97512e-10)
(1.32234e-10 8.0533e-10 2.90316e-10)
(9.05023e-11 7.94814e-10 1.87062e-10)
(1.04156e-10 7.375e-10 2.75788e-10)
(4.20977e-10 1.83537e-10 5.26001e-10)
(3.3753e-10 3.95245e-10 4.77591e-10)
(4.33502e-10 -1.79396e-11 8.06372e-10)
(4.7029e-10 1.2642e-10 4.68425e-10)
(3.85366e-10 2.70844e-10 4.02149e-10)
(3.94028e-10 3.02896e-10 5.91036e-10)
(5.0778e-10 4.07519e-11 6.28878e-10)
(3.98513e-10 1.70095e-10 5.0491e-10)
(4.00686e-10 4.11243e-10 5.76693e-10)
(3.81358e-10 5.28289e-11 5.07695e-10)
(7.68128e-11 -4.16069e-11 1.74596e-10)
(4.7031e-10 -1.01787e-10 6.44232e-10)
(7.05361e-11 -1.93599e-11 1.41404e-10)
(4.40692e-10 1.16259e-10 5.64549e-10)
(4.91728e-10 -6.33343e-11 8.85556e-10)
(4.24049e-10 3.2337e-10 6.51289e-10)
(5.55358e-10 -8.51795e-11 7.25742e-10)
(1.63479e-10 5.51953e-10 4.84235e-10)
(2.66018e-10 3.99729e-10 6.26814e-10)
(3.36231e-10 4.78748e-10 5.80053e-10)
(1.80288e-10 6.49478e-10 4.37299e-10)
(2.7831e-10 5.01941e-10 5.49981e-10)
(3.23882e-10 3.68696e-10 6.71859e-10)
(5.16548e-10 4.90749e-11 4.33792e-10)
(5.55419e-10 -7.22525e-11 6.96022e-10)
(7.59378e-11 -4.74138e-11 1.86127e-10)
(4.94807e-10 -1.38364e-10 6.71778e-10)
(5.88417e-10 -1.41882e-10 7.72675e-10)
(4.37013e-10 2.51962e-11 3.6606e-10)
(1.39526e-10 2.83878e-12 2.10671e-10)
(4.36004e-10 -1.73886e-11 5.15931e-10)
(4.19523e-10 5.47487e-10 1.05348e-11)
(2.82611e-10 4.27395e-10 1.32181e-11)
(4.37311e-10 3.70473e-10 1.03905e-11)
(2.88258e-10 6.12913e-10 1.22316e-11)
(4.02421e-10 5.52148e-10 3.94746e-12)
(2.61077e-10 4.35874e-10 -6.90359e-13)
(4.10124e-10 3.81578e-10 -6.01126e-14)
(2.59544e-10 6.22579e-10 1.19476e-12)
(3.95401e-10 5.53516e-10 2.95874e-12)
(4.18136e-10 3.78496e-10 2.38341e-12)
(2.66428e-10 6.2058e-10 1.75466e-12)
(3.78941e-10 5.46455e-10 -4.59677e-12)
(2.45266e-10 6.12429e-10 -3.72875e-12)
(2.3962e-10 4.33803e-10 -3.14245e-12)
(3.9402e-10 3.75353e-10 -5.23423e-12)
(3.92821e-10 3.7751e-10 -3.65806e-12)
(2.45264e-10 6.13434e-10 -3.92834e-12)
(3.79594e-10 5.44805e-10 -4.65196e-12)
(3.84325e-10 5.54066e-10 -4.69481e-13)
(2.42764e-10 4.42962e-10 -2.92626e-12)
(4.02592e-10 3.84562e-10 5.51061e-14)
(2.52879e-10 6.23618e-10 -4.89368e-13)
(3.89524e-10 5.53748e-10 1.31781e-12)
(3.96632e-10 3.8595e-10 -2.46758e-12)
(2.48836e-10 6.22963e-10 -1.01184e-12)
(3.65445e-10 5.34907e-10 -5.28561e-12)
(2.32195e-10 6.01776e-10 -5.76608e-12)
(2.27394e-10 4.22227e-10 -5.56606e-12)
(3.80585e-10 3.67364e-10 -4.81694e-12)
(3.65782e-10 5.35282e-10 -5.63019e-12)
(3.80214e-10 3.66878e-10 -6.02067e-12)
(2.32294e-10 6.00733e-10 -5.17399e-12)
(3.05382e-10 6.20302e-10 -6.54012e-12)
(2.53329e-10 9.14954e-10 -5.65261e-12)
(3.04194e-10 6.18698e-10 -4.28052e-12)
(2.54549e-10 9.16927e-10 -6.216e-12)
(3.06451e-10 6.21156e-10 -4.0322e-12)
(2.56952e-10 9.20113e-10 -5.87719e-12)
(3.07599e-10 6.22425e-10 -6.37393e-12)
(2.55792e-10 9.18556e-10 -5.35564e-12)
(3.62013e-10 5.32684e-10 -5.49184e-12)
(2.24297e-10 4.20671e-10 -5.34882e-12)
(3.75908e-10 3.6513e-10 -6.01173e-12)
(2.28182e-10 5.98198e-10 -5.2071e-12)
(3.61329e-10 5.31985e-10 -5.29492e-12)
(3.76556e-10 3.65569e-10 -4.75405e-12)
(2.29109e-10 5.98328e-10 -5.75099e-12)
(3.58103e-10 5.27738e-10 -5.78465e-12)
(2.25358e-10 5.92583e-10 -5.38765e-12)
(2.21416e-10 4.16235e-10 -5.37642e-12)
(3.72479e-10 3.61046e-10 -6.19674e-12)
(3.72683e-10 3.61657e-10 -4.92715e-12)
(2.26069e-10 5.9267e-10 -5.91215e-12)
(3.5775e-10 5.27023e-10 -5.55367e-12)
(3.0211e-10 6.15997e-10 -4.41398e-12)
(2.52266e-10 9.13011e-10 -6.45074e-12)
(3.03187e-10 6.1767e-10 -6.72034e-12)
(2.51301e-10 9.10878e-10 -5.75507e-12)
(3.01293e-10 6.15102e-10 -6.85379e-12)
(2.49525e-10 9.07756e-10 -5.77746e-12)
(2.50428e-10 9.09302e-10 -6.43248e-12)
(3.0044e-10 6.13679e-10 -4.54062e-12)
(3.60148e-10 5.30916e-10 -5.45284e-12)
(2.22882e-10 4.19231e-10 -5.62609e-12)
(3.75213e-10 3.64822e-10 -4.84408e-12)
(2.27614e-10 5.97533e-10 -5.87895e-12)
(3.60674e-10 5.3144e-10 -5.65822e-12)
(3.74553e-10 3.64348e-10 -6.09207e-12)
(2.27712e-10 5.96233e-10 -5.30821e-12)
(3.49193e-10 5.14997e-10 -6.52511e-12)
(2.18839e-10 5.7993e-10 -6.77427e-12)
(2.14853e-10 4.0475e-10 -6.48864e-12)
(3.64629e-10 3.52158e-10 -5.86197e-12)
(3.49642e-10 5.15743e-10 -6.76737e-12)
(3.64117e-10 3.51437e-10 -7.09136e-12)
(2.18986e-10 5.78445e-10 -6.20323e-12)
(3.46119e-10 5.10301e-10 -6.65956e-12)
(2.12636e-10 4.0065e-10 -5.9941e-12)
(3.60705e-10 3.46774e-10 -6.92717e-12)
(2.15791e-10 5.72444e-10 -5.82801e-12)
(3.45553e-10 5.09066e-10 -6.35297e-12)
(3.61087e-10 3.4786e-10 -5.78909e-12)
(2.16491e-10 5.73224e-10 -6.4927e-12)
(3.4057e-10 5.00614e-10 -4.49638e-12)
(2.11613e-10 5.61036e-10 -2.63279e-12)
(2.09016e-10 3.91712e-10 -3.4784e-12)
(3.55571e-10 3.38511e-10 -4.28411e-12)
(3.55932e-10 3.4001e-10 -3.67266e-12)
(2.12261e-10 5.62321e-10 -3.86665e-12)
(3.39928e-10 4.99017e-10 -3.68549e-12)
(3.44333e-10 5.0702e-10 -6.08276e-12)
(2.11524e-10 3.97448e-10 -5.81327e-12)
(3.601e-10 3.46053e-10 -5.64233e-12)
(2.15159e-10 5.7131e-10 -6.29643e-12)
(3.44888e-10 5.08067e-10 -6.52991e-12)
(3.59524e-10 3.44986e-10 -6.64883e-12)
(2.15267e-10 5.69421e-10 -5.49122e-12)
(3.34689e-10 4.57375e-10 5.68004e-11)
(2.09815e-10 5.16563e-10 5.44854e-11)
(2.13474e-10 3.47761e-10 6.31117e-11)
(3.52743e-10 3.06488e-10 4.8873e-11)
(3.33244e-10 4.61211e-10 4.79339e-11)
(3.55065e-10 3.0247e-10 5.64401e-11)
(2.12398e-10 5.11264e-10 6.43772e-11)
(3.41514e-10 4.32506e-10 1.20171e-10)
(2.27277e-10 3.22417e-10 1.33468e-10)
(3.69348e-10 2.74701e-10 1.40881e-10)
(2.27124e-10 4.72525e-10 1.55538e-10)
(3.44797e-10 4.24899e-10 1.39098e-10)
(3.6452e-10 2.82172e-10 1.22618e-10)
(2.22567e-10 4.81456e-10 1.34295e-10)
(3.842e-10 3.09887e-10 3.72959e-10)
(2.96167e-10 3.02209e-10 4.66828e-10)
(2.95579e-10 1.96463e-10 4.20686e-10)
(4.35644e-10 1.43006e-10 4.53712e-10)
(4.19889e-10 1.74629e-10 3.9381e-10)
(2.78889e-10 3.39957e-10 4.0833e-10)
(3.97493e-10 2.76484e-10 4.2759e-10)
(3.53104e-10 4.05824e-10 1.85342e-10)
(2.45929e-10 2.92896e-10 2.06265e-10)
(3.73988e-10 2.67948e-10 1.63807e-10)
(2.31021e-10 4.62898e-10 1.78339e-10)
(3.48075e-10 4.16882e-10 1.59856e-10)
(3.81377e-10 2.56991e-10 1.88994e-10)
(2.38169e-10 4.49279e-10 2.06464e-10)
(4.41532e-10 2.36063e-10 1.25274e-11)
(4.14512e-10 2.45049e-10 -4.28253e-12)
(4.22301e-10 2.42197e-10 -1.14043e-12)
(1.28286e-10 6.80366e-10 1.29022e-11)
(1.02917e-10 6.89364e-10 1.96799e-13)
(1.07913e-10 6.88064e-10 2.60017e-13)