/*--------------------------------*- C++ -*----------------------------------*\
| =========                 |                                                 |
| \\      /  F ield         | OpenFOAM: The Open Source CFD Toolbox           |
|  \\    /   O peration     | Version:  2012                                  |
|   \\  /    A nd           | Website:  www.openfoam.com                      |
|    \\/     M anipulation  |                                                 |
\*---------------------------------------------------------------------------*/
FoamFile
{
    version     2.0;
    format      ascii;
    class       volVectorField;
    location    "0.106/solid";
    object      D_0_0_0;
}
// * * * * * * * * * * * * * * * * * * * * * * * * * * * * * * * * * * * * * //

dimensions      [0 1 0 0 0 0 0];


internalField   nonuniform List<vector> 
3125
(
(1.72658e-10 2.46943e-10 -1.37086e-12)
(1.67048e-10 2.44213e-10 -3.00605e-12)
(1.56754e-10 2.35567e-10 -3.49296e-12)
(1.55619e-10 2.34463e-10 -3.47169e-12)
(1.48369e-10 2.25724e-10 -4.40007e-12)
(1.46827e-10 2.23894e-10 -4.39942e-12)
(1.31734e-10 2.02966e-10 3.0384e-11)
(1.30829e-10 1.9478e-10 5.09652e-11)
(1.62039e-10 2.40081e-10 -3.6963e-12)
(1.60063e-10 2.38703e-10 -3.6618e-12)
(1.52744e-10 2.31287e-10 -3.70439e-12)
(1.51745e-10 2.3007e-10 -3.83963e-12)
(1.40403e-10 2.16912e-10 -1.3712e-12)
(1.37894e-10 2.1409e-10 2.07921e-12)
(1.76338e-10 2.48623e-10 2.93644e-12)
(2.75532e-10 1.55933e-10 1.00005e-12)
(2.46303e-10 1.00095e-09 -2.94119e-12)
(2.29135e-10 4.58022e-10 -3.02992e-12)
(2.78418e-10 1.56218e-10 2.17778e-12)
(2.19619e-10 4.48532e-10 -4.82441e-12)
(2.68211e-10 1.56283e-10 -1.31143e-12)
(2.40668e-10 9.90549e-10 -4.90825e-12)
(1.64755e-10 2.42337e-10 -3.32094e-12)
(2.32999e-10 9.81849e-10 -3.63561e-12)
(2.22792e-10 4.60955e-10 -3.5599e-12)
(2.659e-10 1.54572e-10 -3.39083e-12)
(2.10302e-10 4.36952e-10 -6.16286e-12)
(1.57917e-10 2.36587e-10 -3.42005e-12)
(2.58035e-10 1.49051e-10 -3.02752e-12)
(2.06597e-10 4.33901e-10 -6.23237e-12)
(2.59339e-10 1.4971e-10 -3.05805e-12)
(2.0417e-10 4.28938e-10 -6.10669e-12)
(2.56707e-10 1.48314e-10 -2.97828e-12)
(1.54672e-10 2.33408e-10 -3.49577e-12)
(2.06096e-10 4.33422e-10 -6.08796e-12)
(2.55666e-10 1.47499e-10 -3.12161e-12)
(1.98766e-10 4.18207e-10 -6.41909e-12)
(1.49658e-10 2.27329e-10 -4.19571e-12)
(2.48487e-10 1.41947e-10 -3.75953e-12)
(1.96234e-10 4.12051e-10 -6.20327e-12)
(2.49975e-10 1.43083e-10 -3.57293e-12)
(1.92805e-10 4.02459e-10 -2.99608e-12)
(2.46825e-10 1.40612e-10 -3.62212e-12)
(1.44971e-10 2.21824e-10 -4.13593e-12)
(1.95788e-10 4.11113e-10 -5.9426e-12)
(2.4486e-10 1.39134e-10 -3.32154e-12)
(1.96217e-10 3.63867e-10 5.55155e-11)
(1.33326e-10 2.07623e-10 1.68803e-11)
(2.32775e-10 1.24575e-10 3.90236e-11)
(2.18666e-10 3.25284e-10 1.57782e-10)
(2.34632e-10 1.28115e-10 2.0651e-11)
(3.01781e-10 1.71418e-10 4.92421e-10)
(2.30152e-10 1.18336e-10 7.13672e-11)
(1.32e-10 1.75827e-10 8.22302e-11)
(2.24385e-10 3.16244e-10 1.82299e-10)
(2.27158e-10 1.05473e-10 1.30376e-10)
(1.81172e-10 4.46787e-11 2.51444e-13)
(2.24873e-10 1.28974e-09 -1.18477e-12)
(1.7958e-10 4.49588e-11 -1.41768e-13)
(1.77399e-10 4.40809e-11 -2.23897e-12)
(2.19518e-10 1.27376e-09 -1.61633e-12)
(2.12453e-10 1.26668e-09 -2.20935e-12)
(2.20786e-10 4.46254e-10 -5.11781e-12)
(1.63865e-10 2.41271e-10 -3.45899e-12)
(2.63917e-10 1.52191e-10 -3.05102e-12)
(2.14163e-10 4.43589e-10 -6.88686e-12)
(2.65798e-10 1.52875e-10 -3.44177e-12)
(2.04104e-10 1.25772e-09 -6.19055e-12)
(2.10774e-10 1.26875e-09 -3.84089e-12)
(1.7573e-10 4.31955e-11 -1.64584e-12)
(1.77022e-10 4.36244e-11 -1.85769e-12)
(2.1051e-10 4.37604e-10 -6.24406e-12)
(1.58866e-10 2.37545e-10 -3.53312e-12)
(2.61478e-10 1.51561e-10 -3.05543e-12)
(2.12757e-10 4.43525e-10 -6.70474e-12)
(2.60206e-10 1.50582e-10 -3.3041e-12)
(1.72658e-10 4.19506e-11 -1.63601e-12)
(1.73567e-10 4.23248e-11 -1.45143e-12)
(1.93238e-10 1.23711e-09 -6.11648e-12)
(1.96999e-10 1.24509e-09 -5.93596e-12)
(2.02203e-10 1.25261e-09 -6.23271e-12)
(1.98245e-10 1.24622e-09 -5.55213e-12)
(1.75072e-10 4.31017e-11 -1.34133e-12)
(1.73926e-10 4.25373e-11 -1.84721e-12)
(1.72247e-10 4.18073e-11 -1.31082e-12)
(1.71336e-10 4.13442e-11 -1.69198e-12)
(1.92138e-10 1.23412e-09 -6.24372e-12)
(1.8911e-10 1.22727e-09 -5.89726e-12)
(2.03849e-10 4.28425e-10 -6.03533e-12)
(1.53745e-10 2.32385e-10 -3.5191e-12)
(2.53528e-10 1.45964e-10 -3.22309e-12)
(2.01294e-10 4.24636e-10 -6.29188e-12)
(2.54676e-10 1.46723e-10 -3.03851e-12)
(1.84995e-10 1.21728e-09 -6.19079e-12)
(1.88063e-10 1.22525e-09 -6.16634e-12)
(1.70109e-10 4.07614e-11 -1.73541e-12)
(1.70973e-10 4.1176e-11 -1.35607e-12)
(1.99071e-10 4.18927e-10 -6.49755e-12)
(1.50746e-10 2.2876e-10 -4.04604e-12)
(2.52381e-10 1.4509e-10 -3.28426e-12)
(2.00959e-10 4.24045e-10 -6.21044e-12)
(2.51218e-10 1.44134e-10 -3.53352e-12)
(1.67128e-10 3.92832e-11 -2.01e-12)
(1.68327e-10 3.98727e-11 -1.60184e-12)
(1.75845e-10 1.19023e-09 -5.42387e-12)
(1.79858e-10 1.20193e-09 -6.28513e-12)
(1.84008e-10 1.21437e-09 -6.40416e-12)
(1.80994e-10 1.20516e-09 -6.15035e-12)
(1.69705e-10 4.05879e-11 -1.44179e-12)
(1.68773e-10 4.00775e-11 -1.89138e-12)
(1.66529e-10 3.9031e-11 -1.68679e-12)
(1.64978e-10 3.83127e-11 -1.73997e-12)
(1.74183e-10 1.18591e-09 -5.09044e-12)
(1.92327e-10 4.01119e-10 -2.05535e-12)
(1.42825e-10 2.19491e-10 -3.21711e-12)
(2.40395e-10 1.35537e-10 -3.08441e-13)
(1.90242e-10 3.88769e-10 9.41412e-12)
(2.42758e-10 1.37403e-10 -2.25032e-12)
(1.62293e-10 3.72481e-11 -6.8909e-15)
(1.64228e-10 3.8014e-11 -1.19034e-12)
(1.94588e-10 3.67423e-10 4.72302e-11)
(1.35413e-10 2.11064e-10 7.81501e-12)
(2.38243e-10 1.33331e-10 3.42584e-12)
(1.90203e-10 3.86716e-10 1.23169e-11)
(2.36099e-10 1.31018e-10 9.79361e-12)
(1.56813e-10 3.66229e-11 2.35781e-11)
(1.58677e-10 3.62884e-11 8.86477e-12)
(1.61413e-10 3.69534e-11 1.2149e-12)
(1.59488e-10 3.64171e-11 5.82293e-12)
(1.55574e-10 3.69437e-11 3.25657e-11)
(1.47447e-10 3.75652e-11 9.22823e-11)
(3.2383e-10 1.31673e-10 5.63352e-10)
(1.34605e-10 3.22513e-11 1.13882e-10)
(1.46424e-10 3.38049e-11 1.32653e-10)
(3.41174e-10 9.93288e-11 4.63329e-10)
(6.38841e-11 -1.08865e-11 1.24315e-10)
(4.10884e-10 5.84854e-10 4.76928e-12)
(2.51337e-10 4.47001e-10 4.98424e-12)
(4.81629e-10 3.59998e-10 3.85925e-12)
(3.21074e-10 8.23432e-10 7.25293e-12)
(4.07089e-10 5.84616e-10 2.46435e-12)
(2.44954e-10 4.51363e-10 2.01367e-12)
(4.6725e-10 3.65427e-10 1.26211e-12)
(3.05138e-10 8.2089e-10 1.08904e-12)
(3.98714e-10 5.83135e-10 1.00897e-12)
(4.77162e-10 3.62279e-10 5.38455e-12)
(3.14372e-10 8.23629e-10 2.73781e-12)
(3.84343e-10 5.7561e-10 -5.87579e-12)
(2.91126e-10 8.0556e-10 -4.98539e-12)
(2.16875e-10 4.5589e-10 -3.83022e-12)
(4.519e-10 3.59816e-10 -7.96239e-12)
(4.502e-10 3.64044e-10 -4.88077e-12)
(2.90589e-10 8.08077e-10 -6.02698e-12)
(3.8463e-10 5.72848e-10 -5.92802e-12)
(3.85813e-10 5.77898e-10 -3.76878e-12)
(2.15499e-10 4.59429e-10 -3.93482e-12)
(4.57535e-10 3.67787e-10 1.0736e-12)
(2.96294e-10 8.1689e-10 -3.00766e-12)
(3.91381e-10 5.81084e-10 -1.70402e-12)
(4.51007e-10 3.67048e-10 -4.99188e-12)
(2.91356e-10 8.12052e-10 -3.44195e-12)
(3.71817e-10 5.59967e-10 -5.54703e-12)
(2.7939e-10 7.89655e-10 -7.32372e-12)
(2.08763e-10 4.35625e-10 -6.36592e-12)
(4.41155e-10 3.50192e-10 -4.65575e-12)
(3.731e-10 5.61202e-10 -6.38206e-12)
(4.39812e-10 3.49409e-10 -6.53025e-12)
(2.78211e-10 7.88103e-10 -5.81151e-12)
(3.70652e-10 5.59141e-10 -6.2217e-12)
(2.07937e-10 4.3551e-10 -6.23781e-12)
(4.37354e-10 3.47956e-10 -6.66729e-12)
(2.75757e-10 7.85005e-10 -5.83019e-12)
(3.69445e-10 5.57638e-10 -5.59872e-12)
(4.3844e-10 3.49045e-10 -4.45199e-12)
(2.76888e-10 7.86732e-10 -7.2541e-12)
(3.66252e-10 5.54108e-10 -6.3606e-12)
(2.72232e-10 7.78081e-10 -5.77135e-12)
(2.04615e-10 4.31074e-10 -5.95804e-12)
(4.33464e-10 3.44174e-10 -6.87538e-12)
(4.33782e-10 3.45607e-10 -4.69315e-12)
(2.72863e-10 7.79608e-10 -7.26002e-12)
(3.65582e-10 5.52611e-10 -5.7086e-12)
(3.67037e-10 5.55066e-10 -5.62849e-12)
(2.04832e-10 4.31726e-10 -6.09741e-12)
(4.36072e-10 3.47335e-10 -4.29268e-12)
(2.74664e-10 7.83229e-10 -7.36976e-12)
(3.68353e-10 5.56603e-10 -6.22372e-12)
(4.34587e-10 3.46391e-10 -6.58498e-12)
(2.73621e-10 7.81181e-10 -5.88315e-12)
(3.55511e-10 5.38574e-10 -6.51003e-12)
(2.64316e-10 7.61509e-10 -7.89655e-12)
(1.97554e-10 4.15875e-10 -6.55488e-12)
(4.24749e-10 3.35452e-10 -5.11939e-12)
(3.56957e-10 5.40626e-10 -7.08435e-12)
(4.23209e-10 3.34113e-10 -7.26891e-12)
(2.63176e-10 7.58896e-10 -6.49041e-12)
(3.5435e-10 5.37164e-10 -7.22938e-12)
(1.9699e-10 4.15252e-10 -6.38903e-12)
(4.21015e-10 3.31156e-10 -7.52498e-12)
(2.60985e-10 7.53793e-10 -6.24019e-12)
(3.53112e-10 5.34717e-10 -6.58415e-12)
(4.2192e-10 3.33168e-10 -5.38765e-12)
(2.62042e-10 7.56548e-10 -7.81071e-12)
(3.4844e-10 5.28456e-10 -6.21844e-12)
(2.55315e-10 7.40702e-10 -3.47401e-12)
(1.9369e-10 4.0688e-10 -4.73856e-12)
(4.14982e-10 3.24109e-10 -5.64693e-12)
(4.16217e-10 3.2674e-10 -4.34042e-12)
(2.56755e-10 7.44429e-10 -6.05921e-12)
(3.46745e-10 5.25231e-10 -4.73569e-12)
(3.49982e-10 5.30334e-10 -6.02462e-12)
(1.94393e-10 4.07766e-10 -5.27833e-12)
(4.19721e-10 3.2992e-10 -5.00635e-12)
(2.59753e-10 7.51081e-10 -7.40823e-12)
(3.51857e-10 5.33067e-10 -7.00338e-12)
(4.17847e-10 3.2805e-10 -6.71798e-12)
(2.58261e-10 7.47618e-10 -5.4961e-12)
(3.33173e-10 4.83886e-10 5.79745e-11)
(2.46042e-10 6.89894e-10 5.58367e-11)
(2.03709e-10 3.50205e-10 8.75776e-11)
(4.06026e-10 2.96783e-10 4.33076e-11)
(3.33379e-10 4.9132e-10 4.05684e-11)
(4.07214e-10 2.90648e-10 5.91726e-11)
(2.47228e-10 6.79772e-10 7.74926e-11)
(3.33247e-10 4.77801e-10 7.56102e-11)
(2.05641e-10 3.4622e-10 1.01697e-10)
(4.11324e-10 2.76296e-10 1.08324e-10)
(2.52264e-10 6.52549e-10 1.36921e-10)
(3.34293e-10 4.66098e-10 1.03237e-10)
(4.08246e-10 2.85851e-10 8.10383e-11)
(2.49071e-10 6.6812e-10 1.02012e-10)
(3.43621e-10 4.03947e-10 2.33843e-10)
(2.94523e-10 4.91142e-10 3.87777e-10)
(2.57191e-10 2.57769e-10 3.22724e-10)
(4.37273e-10 1.81754e-10 3.58345e-10)
(4.26162e-10 2.25357e-10 2.64062e-10)
(2.76298e-10 5.57251e-10 3.0062e-10)
(3.51988e-10 3.50027e-10 3.13748e-10)
(3.39585e-10 4.30308e-10 1.79805e-10)
(2.48794e-10 2.74547e-10 2.79917e-10)
(4.15687e-10 2.66233e-10 1.4522e-10)
(2.57731e-10 6.32296e-10 1.77975e-10)
(3.3643e-10 4.54762e-10 1.33093e-10)
(4.21629e-10 2.46212e-10 1.97239e-10)
(2.65279e-10 6.01068e-10 2.33738e-10)
(5.50005e-10 1.91889e-10 3.80694e-12)
(5.28674e-10 9.57188e-11 6.84332e-13)
(1.82751e-10 4.41191e-11 7.86834e-13)
(5.36538e-10 9.1941e-11 3.12347e-12)
(5.32091e-10 1.9965e-10 9.77846e-14)
(5.47571e-10 1.93025e-10 4.50439e-12)
(1.83638e-10 4.40796e-11 9.87367e-13)
(5.40438e-10 9.03264e-11 2.56969e-12)
(1.23605e-10 1.04757e-09 6.51278e-12)
(2.31692e-10 1.30808e-09 4.97402e-13)
(1.57215e-10 1.13308e-09 -6.88887e-13)
(1.67439e-10 1.14809e-09 3.61656e-12)
(2.38283e-10 1.32124e-09 4.80077e-12)
(1.7077e-10 1.15002e-09 5.20835e-12)
(1.09809e-10 1.03792e-09 4.70781e-13)
(1.20066e-10 1.04781e-09 3.88015e-12)
(5.19369e-10 1.95253e-10 -6.98489e-12)
(5.15788e-10 2.01522e-10 -4.47325e-12)
(5.19699e-10 9.92946e-11 4.20724e-13)
(1.78338e-10 4.50471e-11 -1.50578e-12)
(5.14051e-10 1.00822e-10 -3.85343e-12)
(5.26631e-10 2.01471e-10 6.39966e-13)
(5.16002e-10 2.02977e-10 -5.30663e-12)
(5.14994e-10 9.55028e-11 -5.89397e-12)
(1.77548e-10 4.46482e-11 -1.68724e-12)
(5.13426e-10 9.8604e-11 -3.58077e-12)
(1.01379e-10 1.01942e-09 -4.02794e-12)
(1.0232e-10 1.02169e-09 -3.91811e-12)
(2.15985e-10 1.26483e-09 -1.08398e-12)
(1.54367e-10 1.12836e-09 -1.45799e-12)
(1.49707e-10 1.11683e-09 -2.78165e-12)
(1.4773e-10 1.11449e-09 -4.30612e-12)
(2.13972e-10 1.26406e-09 -1.31929e-12)
(1.49105e-10 1.11526e-09 -3.13838e-12)
(1.06877e-10 1.03437e-09 -1.56929e-12)
(1.02637e-10 1.02386e-09 -2.37329e-12)
(3.83917e-10 5.70343e-10 -5.56224e-12)
(2.91594e-10 8.04195e-10 -6.83037e-12)
(2.19861e-10 4.43534e-10 -6.5166e-12)
(4.53269e-10 3.57401e-10 -5.38268e-12)
(3.84928e-10 5.71832e-10 -6.64152e-12)
(2.90521e-10 8.02614e-10 -5.47918e-12)
(4.52713e-10 3.55813e-10 -6.68974e-12)
(3.82017e-10 5.69561e-10 -6.16115e-12)
(2.1792e-10 4.44182e-10 -6.65549e-12)
(2.85481e-10 7.99231e-10 -5.9253e-12)
(4.47575e-10 3.55373e-10 -6.48339e-12)
(2.88041e-10 8.0135e-10 -7.15324e-12)
(4.50392e-10 3.5589e-10 -4.26633e-12)
(3.79432e-10 5.67934e-10 -5.55299e-12)
(1.01033e-10 1.01925e-09 -5.40019e-12)
(9.90228e-11 1.01661e-09 -5.33399e-12)
(2.06467e-10 1.26324e-09 -6.09772e-12)
(1.40692e-10 1.10525e-09 -6.54358e-12)
(1.43818e-10 1.11109e-09 -6.0078e-12)
(1.47233e-10 1.11461e-09 -4.61685e-12)
(2.08831e-10 1.26754e-09 -5.13661e-12)
(1.4493e-10 1.11222e-09 -5.93978e-12)
(9.49606e-11 1.01122e-09 -5.80902e-12)
(9.78953e-11 1.01596e-09 -6.42878e-12)
(5.20237e-10 1.93853e-10 -5.33352e-12)
(5.19822e-10 1.91999e-10 -5.92927e-12)
(5.11508e-10 9.26554e-11 -4.63123e-12)
(1.76295e-10 4.32228e-11 -1.43066e-12)
(5.13666e-10 9.24437e-11 -3.20041e-12)
(5.14131e-10 1.92345e-10 -5.85349e-12)
(5.18447e-10 1.92182e-10 -4.28429e-12)
(5.16193e-10 9.30062e-11 -4.11947e-12)
(1.76872e-10 4.3359e-11 -1.79837e-12)
(5.15983e-10 9.21624e-11 -4.98511e-12)
(3.74271e-10 5.6361e-10 -6.66669e-12)
(2.1056e-10 4.40514e-10 -6.18549e-12)
(2.80128e-10 7.90789e-10 -5.8943e-12)
(4.41633e-10 3.51047e-10 -7.30886e-12)
(3.73746e-10 5.61977e-10 -5.91494e-12)
(2.8063e-10 7.92362e-10 -7.53191e-12)
(4.41607e-10 3.52918e-10 -5.16769e-12)
(3.75173e-10 5.64774e-10 -5.88648e-12)
(2.10499e-10 4.41688e-10 -6.4099e-12)
(2.83117e-10 7.96879e-10 -7.63184e-12)
(4.44783e-10 3.55108e-10 -4.25654e-12)
(3.77232e-10 5.66643e-10 -6.2945e-12)
(2.8141e-10 7.94294e-10 -6.17208e-12)
(4.42399e-10 3.54107e-10 -6.96283e-12)
(5.08441e-10 1.8872e-10 -4.60887e-12)
(5.0633e-10 1.88359e-10 -5.78484e-12)
(5.02141e-10 8.9678e-11 -4.63782e-12)
(1.72952e-10 4.20757e-11 -1.35997e-12)
(5.02821e-10 9.02109e-11 -3.10459e-12)
(5.04074e-10 1.87154e-10 -5.80365e-12)
(5.05534e-10 1.88279e-10 -4.24606e-12)
(5.05401e-10 9.03043e-11 -3.32724e-12)
(1.73332e-10 4.22102e-11 -1.62789e-12)
(5.04185e-10 9.03334e-11 -4.65151e-12)
(9.07672e-11 1.00079e-09 -6.68906e-12)
(8.9488e-11 9.97759e-10 -5.7703e-12)
(1.94537e-10 1.24011e-09 -6.24578e-12)
(1.3217e-10 1.08676e-09 -6.42876e-12)
(1.33773e-10 1.09047e-09 -6.2979e-12)
(1.35799e-10 1.09455e-09 -6.1819e-12)
(1.95813e-10 1.2429e-09 -6.04523e-12)
(1.34337e-10 1.09142e-09 -6.42659e-12)
(8.7512e-11 9.93749e-10 -5.70733e-12)
(8.89481e-11 9.96987e-10 -6.68541e-12)
(9.12228e-11 1.00127e-09 -5.67446e-12)
(9.24832e-11 1.00342e-09 -6.74192e-12)
(1.39848e-10 1.10346e-09 -6.49142e-12)
(2.0074e-10 1.24887e-09 -5.77307e-12)
(1.38192e-10 1.09811e-09 -6.3942e-12)
(9.41837e-11 1.00965e-09 -6.88384e-12)
(9.28214e-11 1.00446e-09 -5.79926e-12)
(1.36304e-10 1.09507e-09 -6.25322e-12)
(1.99489e-10 1.24715e-09 -5.64461e-12)
(1.37742e-10 1.09715e-09 -6.23876e-12)
(5.08675e-10 1.89167e-10 -6.32441e-12)
(5.08129e-10 1.91827e-10 -4.86121e-12)
(5.08768e-10 9.30061e-11 -3.06381e-12)
(1.74574e-10 4.3019e-11 -1.77874e-12)
(5.06436e-10 9.33513e-11 -4.9828e-12)
(5.12527e-10 1.92457e-10 -4.25966e-12)
(5.08532e-10 1.92368e-10 -6.32684e-12)
(5.05898e-10 9.11154e-11 -5.14377e-12)
(1.74112e-10 4.27962e-11 -1.57023e-12)
(5.05613e-10 9.2483e-11 -3.59182e-12)
(5.00236e-10 1.84448e-10 -5.93682e-12)
(5.00363e-10 1.86334e-10 -4.37975e-12)
(5.00814e-10 8.94354e-11 -3.00116e-12)
(1.71924e-10 4.17057e-11 -1.62916e-12)
(4.9931e-10 8.9566e-11 -4.63192e-12)
(5.03329e-10 1.86972e-10 -4.18732e-12)
(5.0082e-10 1.86652e-10 -5.84441e-12)
(4.98404e-10 8.80792e-11 -4.77037e-12)
(1.71533e-10 4.15316e-11 -1.40916e-12)
(4.98426e-10 8.90458e-11 -3.21394e-12)
(8.49621e-11 9.85423e-10 -5.62697e-12)
(8.60795e-11 9.87852e-10 -6.60481e-12)
(1.91188e-10 1.2313e-09 -6.01177e-12)
(1.31728e-10 1.08562e-09 -6.33805e-12)
(1.30733e-10 1.08152e-09 -6.35491e-12)
(1.29081e-10 1.07796e-09 -6.30485e-12)
(1.90194e-10 1.22916e-09 -6.01432e-12)
(1.30353e-10 1.08062e-09 -6.20977e-12)
(8.7137e-11 9.92718e-10 -6.71572e-12)
(8.6385e-11 9.88693e-10 -5.67884e-12)
(3.63568e-10 5.50398e-10 -5.68152e-12)
(2.71406e-10 7.76748e-10 -7.29336e-12)
(2.02516e-10 4.27042e-10 -6.24438e-12)
(4.32681e-10 3.43499e-10 -4.4253e-12)
(3.6481e-10 5.51759e-10 -6.29551e-12)
(2.70361e-10 7.74988e-10 -5.9096e-12)
(4.31312e-10 3.42695e-10 -6.57003e-12)
(3.62625e-10 5.49466e-10 -6.47347e-12)
(2.01995e-10 4.26686e-10 -6.13893e-12)
(2.68592e-10 7.71639e-10 -6.05862e-12)
(4.29588e-10 3.40764e-10 -7.00857e-12)
(2.69382e-10 7.73448e-10 -7.40057e-12)
(4.30234e-10 3.42127e-10 -4.70159e-12)
(3.61737e-10 5.47822e-10 -5.97203e-12)
(8.45844e-11 9.84737e-10 -6.64906e-12)
(8.36958e-11 9.81267e-10 -5.76768e-12)
(1.86082e-10 1.22e-09 -6.28195e-12)
(1.25886e-10 1.06903e-09 -6.54258e-12)
(1.27144e-10 1.07261e-09 -6.35314e-12)
(1.28654e-10 1.07719e-09 -6.24209e-12)
(1.87105e-10 1.22267e-09 -6.14743e-12)
(1.27561e-10 1.07358e-09 -6.46384e-12)
(8.22478e-11 9.77216e-10 -5.80125e-12)
(8.33212e-11 9.80414e-10 -6.70277e-12)
(4.99795e-10 1.84153e-10 -4.31593e-12)
(4.97538e-10 1.83897e-10 -5.82106e-12)
(4.94784e-10 8.66257e-11 -4.867e-12)
(1.70347e-10 4.09257e-11 -1.41902e-12)
(4.95088e-10 8.74113e-11 -3.24523e-12)
(4.96184e-10 1.82127e-10 -6.08267e-12)
(4.96901e-10 1.83714e-10 -4.38167e-12)
(4.97571e-10 8.75776e-11 -3.11006e-12)
(1.7072e-10 4.10774e-11 -1.62387e-12)
(4.96226e-10 8.76969e-11 -4.63333e-12)
(3.58732e-10 5.43834e-10 -6.95759e-12)
(1.99545e-10 4.21511e-10 -6.31292e-12)
(2.65213e-10 7.63537e-10 -6.37466e-12)
(4.25728e-10 3.36381e-10 -7.44856e-12)
(3.5788e-10 5.41878e-10 -6.44194e-12)
(2.65941e-10 7.65669e-10 -7.75358e-12)
(4.2627e-10 3.38069e-10 -5.17026e-12)
(3.59609e-10 5.44991e-10 -6.15215e-12)
(1.99905e-10 4.22093e-10 -6.40942e-12)
(2.67732e-10 7.69842e-10 -7.65149e-12)
(4.28611e-10 3.40002e-10 -4.70786e-12)
(3.60859e-10 5.46731e-10 -6.65892e-12)
(2.66773e-10 7.67587e-10 -6.30166e-12)
(4.27238e-10 3.38894e-10 -6.97898e-12)
(4.91622e-10 1.78691e-10 -4.93469e-12)
(4.89093e-10 1.77969e-10 -6.47696e-12)
(4.86287e-10 8.2654e-11 -5.40998e-12)
(1.67458e-10 3.95115e-11 -1.70845e-12)
(4.86847e-10 8.36684e-11 -3.86842e-12)
(4.87249e-10 1.75438e-10 -6.58607e-12)
(4.88311e-10 1.77643e-10 -5.05209e-12)
(4.89842e-10 8.42042e-11 -3.6743e-12)
(1.67995e-10 3.97269e-11 -1.89686e-12)
(4.88307e-10 8.41523e-11 -5.22958e-12)
(7.96776e-11 9.66064e-10 -6.84847e-12)
(7.88327e-11 9.60995e-10 -5.78652e-12)
(1.774e-10 1.19426e-09 -5.9109e-12)
(1.19258e-10 1.04486e-09 -5.96412e-12)
(1.20941e-10 1.05026e-09 -6.3063e-12)
(1.22598e-10 1.05699e-09 -6.51331e-12)
(1.78721e-10 1.19812e-09 -6.06849e-12)
(1.21435e-10 1.05169e-09 -6.52332e-12)
(7.70603e-11 9.54788e-10 -5.20521e-12)
(7.8421e-11 9.59719e-10 -6.61247e-12)
(8.00187e-11 9.67122e-10 -5.86514e-12)
(8.10311e-11 9.7081e-10 -6.83388e-12)
(1.2551e-10 1.06794e-09 -6.48407e-12)
(1.83114e-10 1.21117e-09 -6.2829e-12)
(1.24626e-10 1.06339e-09 -6.63899e-12)
(8.19399e-11 9.76244e-10 -6.82573e-12)
(8.13219e-11 9.71838e-10 -5.91066e-12)
(1.23019e-10 1.05819e-09 -6.607e-12)
(1.82122e-10 1.20816e-09 -6.31944e-12)
(1.24256e-10 1.06224e-09 -6.51088e-12)
(4.92197e-10 1.79059e-10 -6.48857e-12)
(4.9272e-10 1.81042e-10 -4.78782e-12)
(4.93708e-10 8.61887e-11 -3.31265e-12)
(1.69427e-10 4.04671e-11 -1.7564e-12)
(4.92319e-10 8.62201e-11 -4.93761e-12)
(4.95606e-10 1.81845e-10 -4.52628e-12)
(4.93301e-10 1.81336e-10 -6.19244e-12)
(4.90963e-10 8.47898e-11 -5.22784e-12)
(1.69009e-10 4.02797e-11 -1.57302e-12)
(4.91205e-10 8.57534e-11 -3.60712e-12)
(4.81049e-10 1.70541e-10 -4.81373e-12)
(4.82542e-10 1.73294e-10 -4.30223e-12)
(4.84811e-10 8.19187e-11 -3.74097e-12)
(1.66097e-10 3.8844e-11 -1.90366e-12)
(4.83014e-10 8.17006e-11 -5.04929e-12)
(4.8649e-10 1.74949e-10 -4.94597e-12)
(4.83517e-10 1.73746e-10 -5.95281e-12)
(4.80262e-10 7.9891e-11 -4.40617e-12)
(1.65402e-10 3.85811e-11 -1.60099e-12)
(4.81129e-10 8.10648e-11 -3.36159e-12)
(7.28675e-11 9.38127e-10 -1.20742e-12)
(7.47312e-11 9.4492e-10 -4.37249e-12)
(1.72436e-10 1.18092e-09 -4.22857e-12)
(1.18648e-10 1.04325e-09 -5.65739e-12)
(1.16908e-10 1.03627e-09 -4.72812e-12)
(1.13801e-10 1.02703e-09 -1.98432e-12)
(1.70422e-10 1.17582e-09 -3.1816e-12)
(1.16181e-10 1.03433e-09 -4.09003e-12)
(7.65743e-11 9.5335e-10 -5.96532e-12)
(7.53008e-11 9.46652e-10 -3.97623e-12)
(3.4291e-10 5.19411e-10 -1.67742e-12)
(2.53775e-10 7.37033e-10 -3.28144e-12)
(1.91122e-10 3.96269e-10 1.30998e-12)
(4.13483e-10 3.22375e-10 -2.19755e-12)
(3.45166e-10 5.23031e-10 -4.1879e-12)
(2.52003e-10 7.32423e-10 4.03247e-13)
(4.11405e-10 3.19779e-10 -2.32677e-12)
(3.4108e-10 5.16901e-10 -2.11785e-13)
(1.90363e-10 3.95022e-10 3.02738e-12)
(2.48811e-10 7.22944e-10 7.69959e-12)
(4.08374e-10 3.14541e-10 2.85401e-12)
(2.50282e-10 7.28036e-10 2.13763e-12)
(4.09578e-10 3.17988e-10 1.70232e-12)
(3.39213e-10 5.12672e-10 3.76609e-12)
(7.22119e-11 9.36182e-10 -1.20235e-12)
(7.05581e-11 9.27245e-10 3.77421e-12)
(1.0692e-10 1.00303e-09 1.19356e-11)
(1.09641e-10 1.01303e-09 4.85673e-12)
(1.12939e-10 1.02489e-09 -9.31716e-13)
(1.10556e-10 1.01566e-09 2.97043e-12)
(6.80334e-11 9.15261e-10 1.28398e-11)
(6.98938e-11 9.24825e-10 4.65502e-12)
(4.80173e-10 1.69843e-10 -2.72853e-12)
(4.76994e-10 1.67982e-10 -1.75957e-12)
(4.7318e-10 7.64614e-11 8.4924e-13)
(1.62811e-10 3.75212e-11 -3.70278e-13)
(4.74183e-10 7.7777e-11 3.93203e-13)
(4.74464e-10 1.63969e-10 3.2652e-12)
(4.75853e-10 1.67385e-10 6.79767e-13)
(4.78478e-10 7.89082e-11 -2.09079e-12)
(1.63683e-10 3.77974e-11 -1.08419e-12)
(4.76489e-10 7.84752e-11 -2.44677e-12)
(3.34515e-10 5.01418e-10 1.96055e-11)
(1.91066e-10 3.77188e-10 2.81851e-11)
(2.45325e-10 6.97797e-10 4.17596e-11)
(4.05079e-10 3.00853e-10 2.96514e-11)
(3.33544e-10 4.95685e-10 3.01875e-11)
(2.45547e-10 7.05136e-10 2.81735e-11)
(4.04922e-10 3.05649e-10 2.17744e-11)
(3.35869e-10 5.04852e-10 1.36922e-11)
(1.91162e-10 3.79154e-10 2.32437e-11)
(2.47597e-10 7.17809e-10 1.16664e-11)
(4.07317e-10 3.12005e-10 8.99222e-12)
(3.3778e-10 5.0969e-10 7.01683e-12)
(2.46408e-10 7.11476e-10 2.02431e-11)
(4.05961e-10 3.08278e-10 1.31507e-11)
(4.72101e-10 1.53075e-10 3.59778e-11)
(4.74359e-10 1.47925e-10 5.76358e-11)
(4.65524e-10 6.7081e-11 7.06137e-11)
(1.57286e-10 3.6468e-11 1.74091e-11)
(4.65248e-10 6.88448e-11 5.265e-11)
(4.79729e-10 1.38479e-10 1.06259e-10)
(4.74445e-10 1.46513e-10 6.87765e-11)
(4.66834e-10 7.06707e-11 2.74929e-11)
(1.58267e-10 3.62792e-11 1.2378e-11)
(4.66856e-10 6.93518e-11 3.7258e-11)
(6.65997e-11 8.77904e-10 6.18588e-11)
(6.91725e-11 8.57766e-10 9.70713e-11)
(1.05085e-10 9.09702e-10 1.61455e-10)
(1.01865e-10 9.39216e-10 1.07793e-10)
(1.01178e-10 9.65343e-10 6.0902e-11)
(1.01542e-10 9.45867e-10 9.39278e-11)
(7.63788e-11 8.20555e-10 1.68496e-10)
(7.03697e-11 8.5102e-10 1.10687e-10)
(6.63193e-11 8.82207e-10 5.40854e-11)
(6.63541e-11 8.96538e-10 3.24027e-11)
(1.05998e-10 1.00012e-09 1.50362e-11)
(1.03892e-10 9.87652e-10 2.69733e-11)
(6.74817e-11 9.12521e-10 1.49511e-11)
(6.66003e-11 9.00104e-10 2.80916e-11)
(1.01591e-10 9.69653e-10 5.2408e-11)
(1.0316e-10 9.83956e-10 3.21784e-11)
(4.7175e-10 1.5469e-10 2.89045e-11)
(4.7101e-10 1.59207e-10 1.77207e-11)
(4.71492e-10 7.519e-11 5.06025e-12)
(1.60863e-10 3.67631e-11 2.21347e-12)
(4.69935e-10 7.44295e-11 7.31603e-12)
(4.73793e-10 1.62951e-10 6.66194e-12)
(4.71846e-10 1.60019e-10 1.30629e-11)
(4.67387e-10 7.23154e-11 1.80106e-11)
(1.59939e-10 3.65863e-11 4.05803e-12)
(4.67734e-10 7.37773e-11 1.33618e-11)
(5.02453e-10 7.30616e-11 3.75201e-10)
(4.92315e-10 1.10806e-10 2.33012e-10)
(4.65754e-10 6.40109e-11 9.72644e-11)
(1.54392e-10 3.72055e-11 4.56029e-11)
(4.64878e-10 6.01337e-11 1.34092e-10)
(4.81751e-10 1.34644e-10 1.251e-10)
(4.91364e-10 1.1761e-10 1.98164e-10)
(4.43891e-10 4.93533e-11 2.59168e-10)
(1.51947e-10 3.82024e-11 6.35693e-11)
(4.59066e-10 5.67833e-11 1.8453e-10)
(1.3545e-10 6.10518e-10 4.46482e-10)
(9.98949e-11 7.27073e-10 3.17798e-10)
(1.0675e-10 8.9879e-10 1.83419e-10)
(1.17339e-10 8.42359e-10 2.64531e-10)
(1.5498e-10 7.04738e-10 4.06567e-10)
(1.22649e-10 8.18552e-10 2.96995e-10)
(7.92027e-11 8.0938e-10 1.91405e-10)
(9.33061e-11 7.51294e-10 2.81855e-10)
(4.13839e-10 1.8903e-10 5.35659e-10)
(3.28081e-10 4.04342e-10 4.87072e-10)
(4.22436e-10 -1.15291e-11 8.19445e-10)
(4.61057e-10 1.32627e-10 4.76288e-10)
(3.77704e-10 2.77734e-10 4.0981e-10)
(3.85148e-10 3.10565e-10 6.02595e-10)
(4.99053e-10 4.55237e-11 6.3886e-10)
(3.93254e-10 1.74149e-10 5.15107e-10)
(3.93252e-10 4.18845e-10 5.89396e-10)
(3.76552e-10 5.54984e-11 5.16985e-10)
(7.56758e-11 -4.16819e-11 1.77478e-10)
(4.63342e-10 -1.00056e-10 6.54034e-10)
(6.98117e-11 -1.92988e-11 1.44023e-10)
(4.34779e-10 1.20078e-10 5.74977e-10)
(4.80981e-10 -5.77921e-11 8.99627e-10)
(4.15948e-10 3.30581e-10 6.6453e-10)
(5.47047e-10 -8.24851e-11 7.36762e-10)
(1.53583e-10 5.63114e-10 4.94409e-10)
(2.56982e-10 4.08759e-10 6.39847e-10)
(3.28495e-10 4.87168e-10 5.93119e-10)
(1.71321e-10 6.60373e-10 4.47156e-10)
(2.70319e-10 5.10872e-10 5.62449e-10)
(3.15278e-10 3.77137e-10 6.85881e-10)
(5.06211e-10 5.43879e-11 4.40732e-10)
(5.45855e-10 -6.91499e-11 7.0622e-10)
(7.45684e-11 -4.75966e-11 1.89176e-10)
(4.86912e-10 -1.37168e-10 6.81635e-10)
(5.79104e-10 -1.39787e-10 7.83893e-10)
(4.28561e-10 2.8804e-11 3.71692e-10)
(1.36243e-10 3.53557e-12 2.13973e-10)
(4.28073e-10 -1.48637e-11 5.23377e-10)
(3.92531e-10 5.69087e-10 8.35828e-12)
(2.50862e-10 4.50058e-10 1.26374e-11)
(4.07679e-10 3.90402e-10 9.142e-12)
(2.58449e-10 6.37571e-10 1.08784e-11)
(3.80569e-10 5.70893e-10 1.97171e-12)
(2.35194e-10 4.55531e-10 -1.60447e-12)
(3.86901e-10 3.98397e-10 -1.37918e-12)
(2.36285e-10 6.43411e-10 -2.99175e-13)
(3.74355e-10 5.71768e-10 1.02457e-12)
(3.94002e-10 3.95812e-10 1.0752e-12)
(2.42188e-10 6.42001e-10 2.695e-13)
(3.61662e-10 5.62424e-10 -6.24928e-12)
(2.26586e-10 6.3032e-10 -5.15543e-12)
(2.19066e-10 4.50575e-10 -4.26682e-12)
(3.75229e-10 3.8989e-10 -6.50962e-12)
(3.73592e-10 3.92316e-10 -4.9449e-12)
(2.26127e-10 6.31631e-10 -5.37236e-12)
(3.62683e-10 5.60499e-10 -6.26361e-12)
(3.64632e-10 5.71576e-10 -2.31671e-12)
(2.19411e-10 4.61305e-10 -3.95963e-12)
(3.80007e-10 4.01151e-10 -1.26666e-12)
(2.30303e-10 6.44051e-10 -1.99525e-12)
(3.6913e-10 5.71666e-10 -5.71654e-13)
(3.74797e-10 4.02122e-10 -3.78465e-12)
(2.27061e-10 6.42894e-10 -2.49523e-12)
(3.51138e-10 5.48058e-10 -6.2031e-12)
(2.16389e-10 6.16863e-10 -6.70454e-12)
(2.10452e-10 4.36094e-10 -6.39233e-12)
(3.646e-10 3.79712e-10 -5.67866e-12)
(3.51417e-10 5.48516e-10 -6.58059e-12)
(3.64279e-10 3.7913e-10 -6.85377e-12)
(2.1654e-10 6.15713e-10 -6.07724e-12)
(2.9699e-10 6.32023e-10 -7.43922e-12)
(2.42886e-10 9.30398e-10 -6.5507e-12)
(2.95791e-10 6.30257e-10 -5.09115e-12)
(2.4411e-10 9.32545e-10 -7.21084e-12)
(2.9806e-10 6.32972e-10 -4.99779e-12)
(2.46491e-10 9.36119e-10 -7.05335e-12)
(2.99197e-10 6.34435e-10 -7.44327e-12)
(2.45346e-10 9.3434e-10 -6.42201e-12)
(3.47818e-10 5.4547e-10 -6.25016e-12)
(2.07525e-10 4.3417e-10 -6.04635e-12)
(3.60156e-10 3.76993e-10 -6.68105e-12)
(2.126e-10 6.12706e-10 -5.93301e-12)
(3.47137e-10 5.44705e-10 -6.02457e-12)
(3.60771e-10 3.77497e-10 -5.45126e-12)
(2.13487e-10 6.12906e-10 -6.50857e-12)
(3.44032e-10 5.4012e-10 -6.31262e-12)
(2.09941e-10 6.0665e-10 -5.88129e-12)
(2.04843e-10 4.29314e-10 -5.85381e-12)
(3.56897e-10 3.72557e-10 -6.6531e-12)
(3.57066e-10 3.73211e-10 -5.40942e-12)
(2.10612e-10 6.06787e-10 -6.43394e-12)
(3.43689e-10 5.39353e-10 -6.05688e-12)
(2.93693e-10 6.27356e-10 -5.09352e-12)
(2.41817e-10 9.28322e-10 -7.28804e-12)
(2.94776e-10 6.29154e-10 -7.47663e-12)
(2.40851e-10 9.26045e-10 -6.50746e-12)
(2.92871e-10 6.26395e-10 -7.48554e-12)
(2.39093e-10 9.22686e-10 -6.40017e-12)
(2.39981e-10 9.24357e-10 -7.13291e-12)
(2.92022e-10 6.24854e-10 -5.10485e-12)
(3.45999e-10 5.43536e-10 -6.12116e-12)
(2.0619e-10 4.32554e-10 -6.23992e-12)
(3.59464e-10 3.76656e-10 -5.48724e-12)
(2.12028e-10 6.11991e-10 -6.57656e-12)
(3.46493e-10 5.44114e-10 -6.35358e-12)
(3.58833e-10 3.7612e-10 -6.70555e-12)
(2.12159e-10 6.10619e-10 -5.97089e-12)
(3.35639e-10 5.26703e-10 -6.71115e-12)
(2.03937e-10 5.93324e-10 -6.95434e-12)
(1.98919e-10 4.17141e-10 -6.62586e-12)
(3.49547e-10 3.63136e-10 -6.02841e-12)
(3.36031e-10 5.27475e-10 -6.96492e-12)
(3.49075e-10 3.62378e-10 -7.24552e-12)
(2.04124e-10 5.91798e-10 -6.36926e-12)
(3.32742e-10 5.21901e-10 -6.801e-12)
(1.96918e-10 4.12928e-10 -6.09788e-12)
(3.45906e-10 3.57604e-10 -7.0364e-12)
(2.01173e-10 5.85685e-10 -5.95539e-12)
(3.32194e-10 5.20662e-10 -6.49128e-12)
(3.46246e-10 3.58694e-10 -5.89998e-12)
(2.01831e-10 5.86469e-10 -6.62386e-12)
(3.2733e-10 5.1203e-10 -4.55318e-12)
(1.97128e-10 5.73995e-10 -2.6455e-12)
(1.93441e-10 4.03824e-10 -3.49058e-12)
(3.409e-10 3.49195e-10 -4.27137e-12)
(3.41239e-10 3.50728e-10 -3.68854e-12)
(1.97755e-10 5.75311e-10 -3.90399e-12)
(3.26694e-10 5.10384e-10 -3.71125e-12)
(3.31027e-10 5.18597e-10 -6.2204e-12)
(1.95895e-10 4.09726e-10 -5.91615e-12)
(3.45318e-10 3.569e-10 -5.75411e-12)
(2.00555e-10 5.84564e-10 -6.4289e-12)
(3.3155e-10 5.1968e-10 -6.6686e-12)
(3.44768e-10 3.55838e-10 -6.75826e-12)
(2.00693e-10 5.82663e-10 -5.61446e-12)
(3.22408e-10 4.68176e-10 5.83102e-11)
(1.96317e-10 5.28914e-10 5.59725e-11)
(1.99104e-10 3.59184e-10 6.47593e-11)
(3.39081e-10 3.1667e-10 5.01947e-11)
(3.20894e-10 4.72064e-10 4.92588e-11)
(3.41472e-10 3.12599e-10 5.79369e-11)
(1.98972e-10 5.23527e-10 6.60668e-11)
(3.2961e-10 4.4317e-10 1.23026e-10)
(2.13378e-10 3.3359e-10 1.36521e-10)
(3.56313e-10 2.84585e-10 1.44033e-10)
(2.14242e-10 4.84554e-10 1.59089e-10)
(3.32978e-10 4.35489e-10 1.42302e-10)
(3.51365e-10 2.92079e-10 1.25411e-10)
(2.09555e-10 4.93544e-10 1.37453e-10)
(3.73346e-10 3.19107e-10 3.80025e-10)
(2.84671e-10 3.12152e-10 4.75559e-10)
(2.83118e-10 2.06218e-10 4.28452e-10)
(4.23934e-10 1.51271e-10 4.61731e-10)
(4.07939e-10 1.83326e-10 4.00956e-10)
(2.67138e-10 3.50402e-10 4.16161e-10)
(3.86812e-10 2.852e-10 4.35501e-10)
(3.41522e-10 4.163e-10 1.89353e-10)
(2.32467e-10 3.03848e-10 2.10597e-10)
(3.61066e-10 2.7777e-10 1.67345e-10)
(2.18246e-10 4.74888e-10 1.82294e-10)
(3.36353e-10 4.27436e-10 1.63434e-10)
(3.68609e-10 2.6672e-10 1.92984e-10)
(2.25536e-10 4.61161e-10 2.10907e-10)
(4.10121e-10 2.5387e-10 1.21037e-11)
(3.89767e-10 2.60166e-10 -5.08394e-12)
(3.96645e-10 2.57713e-10 -1.87921e-12)
(9.72506e-11 7.07522e-10 1.22318e-11)
(7.85986e-11 7.12308e-10 -9.03889e-13)
(8.26378e-11 7.11635e-10 -7.9893e-13)