/*--------------------------------*- C++ -*----------------------------------*\
| =========                 |                                                 |
| \\      /  F ield         | OpenFOAM: The Open Source CFD Toolbox           |
|  \\    /   O peration     | Version:  2012                                  |
|   \\  /    A nd           | Website:  www.openfoam.com                      |
|    \\/     M anipulation  |                                                 |
\*---------------------------------------------------------------------------*/
FoamFile
{
    version     2.0;
    format      ascii;
    class       volScalarField;
    location    "0.106/solid";
    object      epsilonEq;
}
// * * * * * * * * * * * * * * * * * * * * * * * * * * * * * * * * * * * * * //

dimensions      [0 0 0 0 0 0 0];


internalField   nonuniform List<scalar> 
3125
(
2.23221e-08
2.1915e-08
2.1256e-08
2.11673e-08
2.04788e-08
2.03248e-08
1.85162e-08
1.7846e-08
2.16084e-08
2.14766e-08
2.09277e-08
2.08307e-08
1.97145e-08
1.94631e-08
2.25344e-08
2.1498e-08
2.15295e-08
5.17018e-09
2.17938e-08
5.02677e-09
2.09551e-08
2.11421e-08
2.17356e-08
2.11655e-08
5.11858e-09
2.0688e-08
4.93594e-09
2.13336e-08
2.00262e-08
4.90339e-09
2.01149e-08
4.86259e-09
1.99295e-08
2.1089e-08
4.8945e-09
1.98503e-08
4.7434e-09
2.06116e-08
1.92789e-08
4.65945e-09
1.93988e-08
4.48656e-09
1.91424e-08
2.0147e-08
4.64111e-09
1.89864e-08
3.54265e-09
1.88962e-08
1.78614e-08
4.13195e-09
1.80315e-08
1.1713e-08
1.77341e-08
1.65868e-08
4.56688e-09
1.79741e-08
2.4637e-08
1.48413e-08
2.42375e-08
2.36661e-08
1.46428e-08
1.46548e-08
5.03492e-09
2.17022e-08
2.04652e-08
4.98077e-09
2.06081e-08
1.45374e-08
1.46887e-08
2.32767e-08
2.36026e-08
4.93679e-09
2.13917e-08
2.02885e-08
4.96623e-09
2.01826e-08
2.27345e-08
2.29025e-08
1.43406e-08
1.44281e-08
1.44768e-08
1.4437e-08
2.31569e-08
2.29438e-08
2.268e-08
2.25439e-08
1.43076e-08
1.42471e-08
4.85739e-09
2.10139e-08
1.96918e-08
4.81814e-09
1.97766e-08
1.41403e-08
1.42254e-08
2.23631e-08
2.25052e-08
4.75477e-09
2.07266e-08
1.95993e-08
4.80885e-09
1.95032e-08
2.19297e-08
2.21154e-08
1.38129e-08
1.39624e-08
1.41062e-08
1.40038e-08
2.23178e-08
2.21657e-08
2.18665e-08
2.16331e-08
1.37491e-08
4.45398e-09
1.99436e-08
1.86165e-08
4.15297e-09
1.88115e-08
2.12837e-08
2.15547e-08
3.60177e-09
1.91922e-08
1.84144e-08
4.09538e-09
1.82105e-08
2.09808e-08
2.09476e-08
2.12045e-08
2.09822e-08
2.11009e-08
2.23443e-08
1.33694e-08
2.26398e-08
2.37727e-08
2.0459e-08
2.31852e-08
2.17884e-08
5.3613e-09
1.69189e-08
1.56168e-08
2.16555e-08
5.28688e-09
1.64478e-08
1.52925e-08
2.13697e-08
1.67223e-08
1.55336e-08
2.07773e-08
1.49083e-08
5.02048e-09
1.58678e-08
1.57848e-08
1.4843e-08
2.08236e-08
2.08471e-08
5.02251e-09
1.60314e-08
1.50374e-08
2.10487e-08
1.58347e-08
1.48712e-08
2.04739e-08
1.47317e-08
4.90839e-09
1.55684e-08
2.04992e-08
1.55261e-08
1.47092e-08
2.04266e-08
4.89961e-09
1.54656e-08
1.46563e-08
2.03938e-08
1.54765e-08
1.46782e-08
2.02625e-08
1.45581e-08
4.85227e-09
1.53485e-08
1.53323e-08
1.45587e-08
2.02524e-08
2.03013e-08
4.85863e-09
1.54152e-08
1.46188e-08
2.03405e-08
1.53608e-08
1.45817e-08
1.9844e-08
1.43072e-08
4.69455e-09
1.50687e-08
1.98901e-08
1.50108e-08
1.4263e-08
1.97757e-08
4.67707e-09
1.49478e-08
1.41854e-08
1.97378e-08
1.49554e-08
1.42145e-08
1.95108e-08
1.39487e-08
4.54001e-09
1.4738e-08
1.47571e-08
1.39992e-08
1.94562e-08
1.96013e-08
4.569e-09
1.48974e-08
1.41325e-08
1.96628e-08
1.48294e-08
1.40708e-08
1.83263e-08
1.27273e-08
3.48949e-09
1.41788e-08
1.84705e-08
1.4137e-08
1.2477e-08
1.81358e-08
3.48709e-09
1.4133e-08
1.18758e-08
1.79553e-08
1.40939e-08
1.21648e-08
1.70967e-08
1.14321e-08
7.70915e-09
1.62599e-08
1.53247e-08
1.11784e-08
1.70324e-08
1.74891e-08
6.7509e-09
1.44046e-08
1.15899e-08
1.77167e-08
1.47176e-08
1.13469e-08
1.37146e-08
9.33749e-09
2.50293e-08
9.38807e-09
1.32742e-08
1.35869e-08
2.53184e-08
9.48041e-09
1.17678e-08
1.5095e-08
1.36011e-08
1.39335e-08
1.52367e-08
1.39979e-08
1.16043e-08
1.16671e-08
1.27815e-08
1.27232e-08
9.11492e-09
2.39395e-08
9.05117e-09
1.30232e-08
1.274e-08
8.86255e-09
2.37675e-08
8.8969e-09
1.1426e-08
1.14243e-08
1.45664e-08
1.35176e-08
1.33417e-08
1.34434e-08
1.45878e-08
1.33544e-08
1.15364e-08
1.14129e-08
2.0856e-08
1.49626e-08
5.00888e-09
1.59302e-08
2.08562e-08
1.49665e-08
1.59129e-08
2.07905e-08
4.99246e-09
1.48653e-08
1.576e-08
1.49246e-08
1.58227e-08
2.07133e-08
1.14208e-08
1.14166e-08
1.46096e-08
1.33259e-08
1.34086e-08
1.34564e-08
1.46696e-08
1.34411e-08
1.13501e-08
1.13753e-08
1.28263e-08
1.27781e-08
8.7215e-09
2.33997e-08
8.76073e-09
1.26429e-08
1.27256e-08
8.81362e-09
2.35125e-08
8.80258e-09
2.05147e-08
4.92061e-09
1.47328e-08
1.55728e-08
2.05181e-08
1.47184e-08
1.554e-08
2.05532e-08
4.92327e-09
1.4793e-08
1.56447e-08
2.06171e-08
1.47377e-08
1.55665e-08
1.24874e-08
1.24148e-08
8.48142e-09
2.27877e-08
8.51365e-09
1.23775e-08
1.23928e-08
8.543e-09
2.28434e-08
8.53584e-09
1.12558e-08
1.12359e-08
1.43725e-08
1.31535e-08
1.31835e-08
1.32369e-08
1.44056e-08
1.32034e-08
1.1201e-08
1.12133e-08
1.12675e-08
1.12671e-08
1.32956e-08
1.44431e-08
1.32316e-08
1.13236e-08
1.12752e-08
1.32421e-08
1.44319e-08
1.32255e-08
1.24821e-08
1.24493e-08
8.65508e-09
2.30516e-08
8.63722e-09
1.25809e-08
1.24552e-08
8.56426e-09
2.2988e-08
8.59353e-09
1.22787e-08
1.22611e-08
8.45323e-09
2.26206e-08
8.44191e-09
1.23574e-08
1.22673e-08
8.39118e-09
2.25794e-08
8.4213e-09
1.11249e-08
1.11295e-08
1.42807e-08
1.31333e-08
1.30875e-08
1.30701e-08
1.42593e-08
1.3074e-08
1.11804e-08
1.1146e-08
2.01855e-08
1.45403e-08
4.82424e-09
1.53258e-08
2.02174e-08
1.45102e-08
1.52776e-08
2.01385e-08
4.81465e-09
1.44647e-08
1.5237e-08
1.44796e-08
1.52361e-08
2.01144e-08
1.11077e-08
1.10796e-08
1.41676e-08
1.29735e-08
1.29964e-08
1.30571e-08
1.41991e-08
1.30165e-08
1.10432e-08
1.10564e-08
1.22756e-08
1.21953e-08
8.31252e-09
2.24053e-08
8.34734e-09
1.21804e-08
1.21816e-08
8.37422e-09
2.24506e-08
8.36454e-09
1.99704e-08
4.75671e-09
1.43426e-08
1.51064e-08
1.99461e-08
1.43574e-08
1.51031e-08
2.00236e-08
4.76859e-09
1.44315e-08
1.51987e-08
2.00637e-08
1.43927e-08
1.51448e-08
1.20657e-08
1.19703e-08
8.11126e-09
2.19895e-08
8.1568e-09
1.19401e-08
1.19564e-08
8.19837e-09
2.20473e-08
8.1777e-09
1.0899e-08
1.08491e-08
1.38629e-08
1.26739e-08
1.2725e-08
1.28237e-08
1.39167e-08
1.27595e-08
1.07669e-08
1.08093e-08
1.09305e-08
1.09505e-08
1.29517e-08
1.40715e-08
1.28994e-08
1.10179e-08
1.09788e-08
1.28495e-08
1.40345e-08
1.28755e-08
1.20713e-08
1.20716e-08
8.29183e-09
2.22587e-08
8.27599e-09
1.21708e-08
1.20815e-08
8.21932e-09
2.22119e-08
8.25776e-09
1.17752e-08
1.18084e-08
8.08389e-09
2.17835e-08
8.0532e-09
1.19336e-08
1.18237e-08
7.972e-09
2.17099e-08
8.02645e-09
1.04833e-08
1.05763e-08
1.36783e-08
1.26349e-08
1.25368e-08
1.2387e-08
1.35919e-08
1.24844e-08
1.07214e-08
1.06371e-08
1.92766e-08
1.38691e-08
4.33072e-09
1.46765e-08
1.93587e-08
1.3776e-08
1.4596e-08
1.91586e-08
4.27749e-09
1.35715e-08
1.4466e-08
1.36629e-08
1.45005e-08
1.90807e-08
1.04107e-08
1.02476e-08
1.18726e-08
1.20703e-08
1.23256e-08
1.21591e-08
9.93531e-09
1.01468e-08
1.17733e-08
1.16499e-08
7.80861e-09
2.13689e-08
7.86734e-09
1.15863e-08
1.16338e-08
7.93782e-09
2.14573e-08
7.89612e-09
1.87117e-08
3.79884e-09
1.29373e-08
1.41819e-08
1.86028e-08
1.31124e-08
1.42177e-08
1.88544e-08
3.89117e-09
1.34478e-08
1.44055e-08
1.89618e-08
1.33004e-08
1.43207e-08
1.15812e-08
1.16417e-08
8.26712e-09
2.09178e-08
7.99221e-09
1.2055e-08
1.17394e-08
7.75396e-09
2.09314e-08
7.81548e-09
8.51999e-09
7.7263e-09
8.85363e-09
9.69368e-09
1.06565e-08
1.00038e-08
6.24687e-09
7.33722e-09
8.76797e-09
9.27468e-09
1.17688e-08
1.14524e-08
9.80981e-09
9.4612e-09
1.08563e-08
1.12939e-08
1.14921e-08
1.14992e-08
7.77777e-09
2.11158e-08
7.73961e-09
1.16032e-08
1.14961e-08
7.71813e-09
2.10366e-08
7.73886e-09
1.71792e-08
1.42236e-08
8.75154e-09
2.13566e-08
9.64827e-09
1.24221e-08
1.35324e-08
1.43014e-08
2.16931e-08
1.11405e-08
5.35776e-09
4.40124e-09
8.48246e-09
7.65257e-09
7.17469e-09
7.26629e-09
5.75338e-09
4.82983e-09
1.90517e-08
1.22303e-08
1.63987e-08
1.83647e-08
1.75477e-08
1.35909e-08
2.00153e-08
2.07387e-08
1.33945e-08
2.11232e-08
3.12102e-08
2.26976e-08
2.53393e-08
2.12964e-08
1.64295e-08
1.19742e-08
2.25961e-08
5.48441e-09
5.85343e-09
8.39494e-09
7.11667e-09
7.75857e-09
6.03614e-09
1.89814e-08
2.25474e-08
3.1083e-08
2.27808e-08
2.22299e-08
1.83072e-08
2.65136e-08
2.12529e-08
1.46204e-08
5.39513e-09
7.5283e-09
8.07674e-09
1.42305e-08
5.19885e-09
7.31172e-09
7.90789e-09
1.41021e-08
7.31239e-09
7.92764e-09
1.36754e-08
7.71834e-09
5.00218e-09
7.07375e-09
7.02934e-09
7.67867e-09
1.37475e-08
1.37564e-08
5.06281e-09
7.1613e-09
7.83338e-09
1.38886e-08
7.10653e-09
7.77093e-09
1.35013e-08
7.59016e-09
4.91303e-09
6.94276e-09
1.35189e-08
6.91774e-09
7.56358e-09
2.23759e-08
1.90204e-08
2.23358e-08
1.90555e-08
2.24175e-08
1.91184e-08
2.24409e-08
1.90949e-08
1.34181e-08
4.88771e-09
6.89747e-09
7.54761e-09
1.34256e-08
6.86875e-09
7.52702e-09
1.33177e-08
7.49162e-09
4.84369e-09
6.84466e-09
6.81134e-09
7.46732e-09
1.33378e-08
2.22472e-08
1.89748e-08
2.2287e-08
1.89359e-08
2.2211e-08
1.89017e-08
1.89095e-08
2.21892e-08
1.33676e-08
4.8664e-09
6.87629e-09
7.53293e-09
1.34004e-08
6.84439e-09
7.50034e-09
1.30745e-08
7.33245e-09
4.71303e-09
6.69992e-09
1.3105e-08
6.67e-09
7.29702e-09
1.29734e-08
4.65187e-09
6.62385e-09
7.23142e-09
1.29787e-08
6.59662e-09
7.22083e-09
1.27751e-08
7.02491e-09
4.49224e-09
6.46941e-09
6.45029e-09
7.03091e-09
1.27694e-08
1.29139e-08
4.60446e-09
6.59686e-09
7.20592e-09
1.29515e-08
6.56296e-09
7.16193e-09
1.19416e-08
5.78728e-09
3.51243e-09
5.84148e-09
1.2048e-08
5.76624e-09
5.60698e-09
1.17763e-08
3.78277e-09
6.11966e-09
5.08308e-09
1.17024e-08
5.95374e-09
5.14702e-09
1.33694e-08
1.00167e-08
1.01765e-08
1.27103e-08
1.12286e-08
8.93121e-09
1.40972e-08
1.18882e-08
5.20072e-09
6.5411e-09
5.27855e-09
1.1865e-08
6.87362e-09
5.3955e-09
6.26314e-09
5.94083e-09
6.0277e-09
8.92948e-09
8.71842e-09
8.73513e-09
5.72027e-09
5.65894e-09
5.78305e-09
5.67466e-09
8.54741e-09
8.51448e-09
8.62468e-09
8.57727e-09
1.37961e-08
7.71849e-09
5.01586e-09
7.09766e-09
1.37817e-08
7.69843e-09
7.07844e-09
1.36538e-08
4.97153e-09
7.66033e-09
7.01798e-09
7.64576e-09
6.99442e-09
1.36396e-08
8.55428e-09
8.5402e-09
8.48302e-09
8.47356e-09
5.76627e-09
5.7596e-09
5.65742e-09
5.65438e-09
1.34918e-08
4.91482e-09
7.59545e-09
6.9461e-09
1.35225e-08
7.56661e-09
6.90904e-09
2.2499e-08
1.91787e-08
2.25583e-08
1.91209e-08
1.3535e-08
4.9342e-09
7.63708e-09
6.9756e-09
1.35843e-08
7.60011e-09
6.93931e-09
2.24642e-08
1.91188e-08
2.24576e-08
1.91043e-08
5.59419e-09
5.57063e-09
5.54045e-09
5.51791e-09
8.41375e-09
8.39262e-09
8.36578e-09
8.35035e-09
8.41916e-09
8.39518e-09
8.45743e-09
8.42626e-09
5.58873e-09
5.54816e-09
5.6148e-09
5.56607e-09
5.49802e-09
5.46347e-09
5.52379e-09
5.49034e-09
8.30688e-09
8.28716e-09
8.35042e-09
8.32323e-09
1.32997e-08
7.4817e-09
4.83162e-09
6.833e-09
1.33244e-08
7.45204e-09
6.80532e-09
2.20798e-08
1.8784e-08
1.88101e-08
2.20439e-08
2.2123e-08
1.88795e-08
2.21561e-08
1.88474e-08
1.32276e-08
4.80244e-09
7.43191e-09
6.78988e-09
7.41152e-09
6.75941e-09
1.32397e-08
8.29582e-09
8.27135e-09
8.2406e-09
8.22543e-09
5.49361e-09
5.46667e-09
5.45341e-09
5.42404e-09
1.31139e-08
4.741e-09
7.35009e-09
6.71971e-09
1.31263e-08
7.33189e-09
6.68934e-09
2.19517e-08
1.8743e-08
2.19958e-08
1.87006e-08
1.31886e-08
4.78042e-09
7.41674e-09
6.77108e-09
1.32186e-08
7.38369e-09
6.7413e-09
5.39542e-09
5.36964e-09
5.34536e-09
5.31112e-09
8.13176e-09
8.10097e-09
8.01791e-09
8.0136e-09
8.15081e-09
8.13797e-09
8.22455e-09
8.19626e-09
5.40458e-09
5.37167e-09
5.4424e-09
5.41438e-09
5.26917e-09
5.23092e-09
5.33265e-09
5.30802e-09
7.78326e-09
7.79754e-09
7.99017e-09
7.95e-09
1.26872e-08
6.98476e-09
4.40395e-09
6.43437e-09
1.27376e-08
6.92111e-09
6.38974e-09
1.24898e-08
4.18288e-09
6.63263e-09
6.20666e-09
6.67515e-09
6.20535e-09
1.24622e-08
7.73725e-09
7.67568e-09
7.32249e-09
7.37879e-09
5.2575e-09
5.23515e-09
5.19121e-09
5.14276e-09
1.21073e-08
3.64649e-09
5.87771e-09
5.83077e-09
1.20389e-08
5.99741e-09
5.85139e-09
1.236e-08
4.02537e-09
6.56844e-09
6.16941e-09
1.24346e-08
6.46267e-09
6.1028e-09
5.41673e-09
5.50659e-09
6.87425e-09
6.40052e-09
6.2302e-09
6.03564e-09
4.97879e-09
5.09098e-09
6.37874e-09
6.52774e-09
7.24215e-09
7.13482e-09
5.3082e-09
5.20106e-09
5.19835e-09
5.18979e-09
1.53249e-08
1.35078e-08
7.44959e-09
8.12152e-09
9.03044e-09
7.82406e-09
4.94456e-09
5.08616e-09
1.63163e-08
1.1294e-08
1.49344e-08
1.44044e-08
1.48762e-08
1.26291e-08
1.6341e-08
1.81395e-08
1.77534e-08
1.75811e-08
1.91135e-08
1.78569e-08
1.28845e-08
1.68395e-08
1.36789e-08
2.01373e-08
2.06006e-08
2.01716e-08
2.59247e-08
1.87298e-08
2.19995e-08
2.28262e-08
1.00241e-08
1.12638e-08
1.73932e-08
1.94732e-08
1.93145e-08
2.03533e-08
1.86623e-08
1.75456e-08
1.67066e-08
1.8437e-08
1.77574e-08
1.99876e-08
1.97312e-08
1.793e-08
1.46684e-08
5.35712e-09
7.5493e-09
8.09658e-09
1.46848e-08
7.52707e-09
8.07259e-09
1.44253e-08
5.22207e-09
7.45096e-09
8.07053e-09
1.45417e-08
7.41501e-09
8.01023e-09
1.36346e-08
5.0041e-09
7.02497e-09
7.69139e-09
1.36072e-08
7.01195e-09
7.67324e-09
1.36342e-08
5.02692e-09
7.02288e-09
7.7156e-09
1.36147e-08
7.01711e-09
7.71029e-09
1.3475e-08
4.9007e-09
6.90586e-09
7.5701e-09
1.34718e-08
6.8894e-09
7.55368e-09
1.34262e-08
4.8815e-09
6.88246e-09
7.55765e-09
1.3445e-08
6.86576e-09
7.5326e-09
1.33124e-08
4.83614e-09
6.81431e-09
7.49085e-09
1.33204e-08
6.79996e-09
7.46757e-09
1.33372e-08
4.85136e-09
6.82771e-09
7.50238e-09
1.33356e-08
6.81211e-09
7.48701e-09
1.30418e-08
4.69486e-09
6.64672e-09
7.28709e-09
1.30313e-08
6.63456e-09
7.28022e-09
1.29798e-08
4.65262e-09
6.61593e-09
7.26434e-09
1.30009e-08
6.59726e-09
7.23107e-09
1.27862e-08
4.50538e-09
6.4864e-09
7.09851e-09
1.28183e-08
6.4598e-09
7.05177e-09
1.28772e-08
4.57891e-09
6.52757e-09
7.13284e-09
1.28569e-08
6.52183e-09
7.13783e-09
1.19616e-08
3.4634e-09
5.75384e-09
5.35516e-09
1.18362e-08
5.78385e-09
5.52952e-09
1.16947e-08
3.65133e-09
5.8118e-09
5.29713e-09
1.18339e-08
5.77306e-09
5.09966e-09
1.28946e-08
9.00296e-09
9.06525e-09
7.08358e-09
1.25022e-08
1.00106e-08
7.79603e-09
1.21399e-08
5.83036e-09
8.08859e-09
6.23575e-09
1.22171e-08
7.45522e-09
5.84272e-09
6.23099e-09
6.20646e-09
6.08552e-09
1.27866e-08
6.2503e-09
4.6411e-09
6.05722e-09
4.74091e-09
6.23064e-09
1.28543e-08
6.29719e-09
6.12161e-09
4.67143e-09
1.0314e-08
4.26355e-09
4.14854e-09
1.04155e-08
1.5752e-08
2.36582e-08
1.57006e-08
2.3804e-08
1.02964e-08
4.21087e-09
4.18465e-09
1.01745e-08
1.59043e-08
2.4099e-08
1.59525e-08
2.39507e-08
6.11006e-09
6.01047e-09
5.91861e-09
6.14575e-09
1.25277e-08
4.57534e-09
6.14414e-09
4.55712e-09
5.84496e-09
5.89279e-09
4.68536e-09
6.2243e-09
1.26601e-08
6.24812e-09
5.9774e-09
4.54557e-09
1.04926e-08
4.29824e-09
4.20949e-09
1.04568e-08
1.05086e-08
1.60965e-08
2.42304e-08
1.60619e-08
2.43513e-08
1.16845e-08
1.02589e-08
1.10439e-08
8.93159e-09
8.92722e-09
1.10348e-08
1.16663e-08
1.02837e-08
1.02444e-08
1.10733e-08
1.35528e-08
1.35062e-08
1.35137e-08
1.35714e-08
1.34916e-08
1.35099e-08
1.34916e-08
8.8584e-09
8.81251e-09
1.0021e-08
1.16269e-08
1.09835e-08
1.0062e-08
1.10204e-08
1.10792e-08
1.01619e-08
1.16924e-08
1.01283e-08
1.10525e-08
5.64392e-09
5.65009e-09
5.56269e-09
5.85618e-09
1.19201e-08
4.34017e-09
5.87318e-09
4.22434e-09
5.59902e-09
5.55033e-09
4.30512e-09
5.84864e-09
1.18929e-08
5.86807e-09
5.59008e-09
4.23001e-09
9.94874e-09
4.05435e-09
3.97205e-09
9.90396e-09
1.5477e-08
2.3512e-08
1.55387e-08
2.33596e-08
9.9703e-09
4.12984e-09
1.00961e-08
3.95865e-09
1.53638e-08
2.31268e-08
1.53195e-08
2.324e-08
5.60593e-09
5.62346e-09
5.58865e-09
6.01838e-09
1.20602e-08
4.44383e-09
6.01433e-09
5.68893e-09
4.27351e-09
5.55518e-09
4.33423e-09
5.93864e-09
1.19434e-08
5.94389e-09
5.51736e-09
4.25112e-09
9.79849e-09
4.00887e-09
3.88038e-09
9.84163e-09
1.51562e-08
2.2784e-08
1.51121e-08
2.2853e-08
9.77999e-09
3.96771e-09
3.86909e-09
9.76917e-09
1.519e-08
2.30324e-08
1.52633e-08
2.2924e-08
9.85562e-09
1.13992e-08
1.08162e-08
9.84038e-09
1.08269e-08
8.51735e-09
8.51437e-09
1.08283e-08
1.13954e-08
9.8577e-09
9.83627e-09
1.08291e-08
1.34815e-08
1.35172e-08
1.34661e-08
1.34639e-08
1.33587e-08
1.33658e-08
1.34115e-08
1.3403e-08
8.52956e-09
8.51728e-09
9.94285e-09
1.14817e-08
1.09478e-08
9.90132e-09
1.09148e-08
1.08614e-08
9.83776e-09
1.14441e-08
9.86374e-09
1.0876e-08
1.37799e-08
5.00229e-09
7.70882e-09
7.07207e-09
1.3779e-08
7.69016e-09
7.05495e-09
1.36932e-08
4.96921e-09
7.69288e-09
7.0304e-09
1.37294e-08
7.66329e-09
7.01008e-09
9.85816e-09
1.08141e-08
1.14125e-08
9.84493e-09
1.08092e-08
8.53724e-09
8.53017e-09
1.07742e-08
1.13933e-08
9.84443e-09
9.83231e-09
1.08052e-08
1.32376e-08
1.32163e-08
1.32438e-08
1.32744e-08
1.33162e-08
1.33269e-08
1.32966e-08
1.32763e-08
8.51346e-09
8.48999e-09
9.76897e-09
1.13431e-08
1.07312e-08
9.77047e-09
1.07559e-08
1.07761e-08
9.8064e-09
1.13711e-08
9.79166e-09
1.076e-08
5.7163e-09
5.71417e-09
5.63367e-09
5.8445e-09
4.34918e-09
1.19948e-08
5.66038e-09
5.85297e-09
4.27068e-09
5.58989e-09
4.32282e-09
5.81896e-09
1.19696e-08
5.85843e-09
5.61057e-09
4.25693e-09
9.63268e-09
3.92607e-09
3.81421e-09
9.67858e-09
1.48956e-08
2.2358e-08
1.48726e-08
2.24092e-08
9.62194e-09
3.88311e-09
3.80914e-09
9.58915e-09
1.49369e-08
2.25245e-08
1.49728e-08
2.24571e-08
5.6648e-09
5.63446e-09
5.53453e-09
5.77725e-09
1.18336e-08
4.26361e-09
5.78883e-09
4.1857e-09
5.53659e-09
5.5091e-09
4.29024e-09
5.81009e-09
1.18642e-08
5.82616e-09
5.55454e-09
4.1893e-09
9.72379e-09
3.94294e-09
3.8638e-09
9.69243e-09
1.50637e-08
2.27335e-08
1.51041e-08
2.26643e-08
9.72939e-09
3.95551e-09
9.74886e-09
3.86274e-09
1.50351e-08
2.25707e-08
1.50123e-08
2.2621e-08
1.34781e-08
4.90647e-09
7.58507e-09
6.90617e-09
1.34782e-08
7.56398e-09
6.8932e-09
1.34908e-08
4.91615e-09
7.59618e-09
6.91305e-09
1.34885e-08
7.58065e-09
6.89756e-09
5.53082e-09
5.52673e-09
5.43275e-09
5.67934e-09
1.16471e-08
4.17801e-09
5.68635e-09
4.08525e-09
5.46607e-09
5.38934e-09
4.14412e-09
5.65488e-09
1.16134e-08
5.6865e-09
5.40831e-09
4.07006e-09
9.36218e-09
3.77515e-09
3.67122e-09
9.38781e-09
1.45323e-08
2.1825e-08
1.45183e-08
2.18499e-08
9.35418e-09
3.74987e-09
3.6628e-09
9.34325e-09
1.4546e-08
2.19106e-08
1.4574e-08
2.187e-08
5.50857e-09
5.49346e-09
5.38508e-09
5.63486e-09
1.1559e-08
4.13384e-09
5.64621e-09
4.04126e-09
5.40315e-09
5.35312e-09
4.12812e-09
5.64745e-09
1.15623e-08
5.66855e-09
5.38814e-09
4.04384e-09
9.41119e-09
3.78128e-09
3.69219e-09
9.39358e-09
1.46212e-08
2.20172e-08
1.46473e-08
2.19778e-08
9.4112e-09
3.78766e-09
3.68946e-09
9.43547e-09
1.46029e-08
2.19345e-08
1.45914e-08
2.19584e-08
9.68982e-09
1.12394e-08
1.06426e-08
9.67556e-09
1.06392e-08
8.38879e-09
8.38121e-09
1.06105e-08
1.12264e-08
9.67213e-09
9.66517e-09
1.06314e-08
1.30288e-08
1.30164e-08
1.36353e-08
1.62074e-08
1.31536e-08
1.29195e-08
1.62156e-08
1.29393e-08
1.36225e-08
1.36483e-08
1.29582e-08
1.62546e-08
1.31669e-08
1.62288e-08
1.36585e-08
1.29463e-08
1.30395e-08
1.30571e-08
1.37046e-08
1.63198e-08
1.32225e-08
1.30087e-08
1.63066e-08
1.3003e-08
1.3713e-08
1.30868e-08
1.30989e-08
1.36921e-08
1.29706e-08
1.32096e-08
1.62766e-08
1.62902e-08
1.2992e-08
1.36745e-08
1.30779e-08
1.30658e-08
8.37443e-09
8.35632e-09
9.63339e-09
1.11872e-08
1.05777e-08
9.62793e-09
1.05987e-08
1.06054e-08
9.65281e-09
1.12034e-08
9.63909e-09
1.0598e-08
8.40574e-09
8.39458e-09
9.69932e-09
1.12493e-08
1.06467e-08
9.68999e-09
1.06588e-08
1.06601e-08
9.70567e-09
1.12495e-08
9.68865e-09
1.06604e-08
1.31864e-08
1.32067e-08
1.37702e-08
1.6365e-08
1.30765e-08
1.3256e-08
1.37915e-08
1.6317e-08
1.30588e-08
1.37551e-08
1.30275e-08
1.32372e-08
1.62896e-08
1.62926e-08
1.30434e-08
1.37403e-08
1.31762e-08
1.31687e-08
8.41488e-09
8.40462e-09
9.74628e-09
1.07163e-08
1.12939e-08
9.7253e-09
1.07039e-08
1.06723e-08
9.70955e-09
1.12748e-08
9.70858e-09
1.06901e-08
1.37257e-08
1.6323e-08
1.3226e-08
1.30133e-08
1.62997e-08
1.3722e-08
1.30214e-08
1.31189e-08
1.31163e-08
1.37292e-08
1.30189e-08
1.32204e-08
1.62849e-08
1.62923e-08
1.30224e-08
1.37299e-08
1.31394e-08
1.31451e-08
5.52495e-09
5.52334e-09
5.42514e-09
5.68326e-09
1.16435e-08
4.18193e-09
5.69512e-09
5.4556e-09
4.07983e-09
5.39295e-09
4.15732e-09
5.68118e-09
1.1628e-08
5.70414e-09
5.42359e-09
4.08131e-09
9.51462e-09
3.83348e-09
3.74338e-09
9.49547e-09
1.4794e-08
2.2312e-08
1.48301e-08
2.22498e-08
9.51781e-09
3.85875e-09
9.56801e-09
3.73856e-09
1.47575e-08
2.21736e-08
1.47397e-08
2.22122e-08
5.52152e-09
5.51574e-09
5.44636e-09
5.74165e-09
4.22441e-09
1.17029e-08
5.49918e-09
5.74256e-09
4.10872e-09
5.40031e-09
4.16961e-09
5.70228e-09
1.16507e-08
5.72902e-09
5.41045e-09
4.08943e-09
9.45792e-09
3.82096e-09
3.71295e-09
9.48019e-09
1.46741e-08
2.20391e-08
1.46567e-08
2.2067e-08
9.44685e-09
3.79295e-09
9.44197e-09
3.70141e-09
1.46857e-08
2.21419e-08
1.47218e-08
2.20929e-08
5.44411e-09
5.43927e-09
5.32957e-09
5.57833e-09
1.14549e-08
4.09337e-09
5.59023e-09
3.99394e-09
5.35755e-09
5.29668e-09
4.07198e-09
5.5817e-09
1.14455e-08
5.6033e-09
5.32599e-09
3.99575e-09
9.3073e-09
3.73657e-09
3.64398e-09
9.29569e-09
1.44762e-08
2.18019e-08
1.45021e-08
2.17643e-08
9.30587e-09
3.74344e-09
9.33643e-09
3.63972e-09
1.44588e-08
2.17289e-08
1.44492e-08
2.17489e-08
5.45113e-09
5.4431e-09
5.35258e-09
5.62115e-09
1.15077e-08
4.11813e-09
5.62374e-09
5.39219e-09
4.01816e-09
5.30847e-09
4.0808e-09
5.58949e-09
1.14691e-08
5.61945e-09
5.32673e-09
4.00088e-09
9.27228e-09
3.73401e-09
3.63173e-09
9.29116e-09
1.44037e-08
2.16358e-08
1.43898e-08
2.1657e-08
9.26329e-09
3.71256e-09
3.62156e-09
9.25824e-09
1.44109e-08
2.1711e-08
1.44391e-08
2.16741e-08
9.56498e-09
1.11094e-08
1.05007e-08
9.55834e-09
1.05167e-08
8.30395e-09
8.28923e-09
1.0521e-08
1.11153e-08
9.57796e-09
9.56179e-09
1.05181e-08
1.29879e-08
1.30049e-08
1.35912e-08
1.61864e-08
1.31079e-08
1.2906e-08
1.61549e-08
1.36059e-08
1.28937e-08
1.35781e-08
1.28637e-08
1.61286e-08
1.30915e-08
1.61364e-08
1.35629e-08
1.28822e-08
1.298e-08
1.29696e-08
1.35371e-08
1.61146e-08
1.30615e-08
1.2832e-08
1.61065e-08
1.2846e-08
1.35294e-08
1.29282e-08
1.29202e-08
1.35449e-08
1.2854e-08
1.30643e-08
1.61166e-08
1.61081e-08
1.28497e-08
1.35497e-08
1.29424e-08
1.29543e-08
8.31588e-09
8.3076e-09
9.61747e-09
1.11575e-08
1.05687e-08
9.5999e-09
1.05597e-08
1.05294e-08
9.59066e-09
1.114e-08
9.58597e-09
1.05508e-08
1.32712e-08
4.81797e-09
7.45491e-09
6.7905e-09
1.32675e-08
7.4403e-09
6.77488e-09
1.32297e-08
4.79634e-09
7.44097e-09
6.76886e-09
1.32444e-08
7.41567e-09
6.75323e-09
9.55082e-09
1.0494e-08
1.10888e-08
9.53481e-09
1.04869e-08
8.26389e-09
8.2575e-09
1.04553e-08
1.10727e-08
9.52663e-09
9.52172e-09
1.0478e-08
1.28231e-08
1.28082e-08
1.34332e-08
1.59984e-08
1.29707e-08
1.27282e-08
1.60019e-08
1.27492e-08
1.34199e-08
1.28371e-08
1.28554e-08
1.34464e-08
1.2767e-08
1.60311e-08
1.29822e-08
1.60114e-08
1.3456e-08
1.27559e-08
1.35049e-08
1.61032e-08
1.28232e-08
1.30381e-08
1.35162e-08
1.60813e-08
1.28135e-08
1.28901e-08
1.29057e-08
1.2882e-08
1.28682e-08
1.34911e-08
1.27797e-08
1.30226e-08
1.60507e-08
1.60635e-08
1.2802e-08
1.34733e-08
8.24885e-09
8.23057e-09
9.486e-09
1.10288e-08
1.04141e-08
9.48132e-09
1.04375e-08
1.0447e-08
9.50731e-09
1.10442e-08
9.49183e-09
1.04383e-08
5.42712e-09
5.42111e-09
5.32353e-09
5.57395e-09
4.08683e-09
1.14393e-08
5.35848e-09
5.57903e-09
3.99262e-09
5.28019e-09
4.05375e-09
5.54606e-09
1.14034e-08
5.5773e-09
5.2996e-09
3.97622e-09
9.19085e-09
3.70658e-09
3.60486e-09
9.2135e-09
1.42813e-08
2.14539e-08
1.42662e-08
2.14764e-08
9.18265e-09
3.68546e-09
3.59482e-09
9.17493e-09
1.42892e-08
2.15301e-08
1.43177e-08
2.14925e-08
5.41019e-09
5.40008e-09
5.2884e-09
5.52985e-09
1.13674e-08
4.05725e-09
5.54191e-09
3.95964e-09
5.31204e-09
5.25505e-09
4.04205e-09
5.54047e-09
1.1365e-08
5.56107e-09
5.28712e-09
3.963e-09
9.23108e-09
3.70807e-09
3.61555e-09
9.2157e-09
1.43557e-08
2.16189e-08
1.43814e-08
2.15842e-08
9.22897e-09
3.71064e-09
9.25595e-09
3.61237e-09
1.43409e-08
2.15486e-08
1.43296e-08
2.1569e-08
1.31149e-08
4.73679e-09
7.36417e-09
6.69983e-09
1.31293e-08
7.33684e-09
6.68384e-09
1.3158e-08
4.76453e-09
7.38106e-09
6.72272e-09
1.31525e-08
7.36932e-09
6.70821e-09
5.32662e-09
5.31966e-09
5.22789e-09
5.46449e-09
1.12353e-08
4.01544e-09
5.46463e-09
3.92224e-09
5.26319e-09
5.18315e-09
3.98413e-09
5.42439e-09
1.11953e-08
5.4598e-09
5.20434e-09
3.90345e-09
9.00337e-09
3.66562e-09
3.56565e-09
9.03262e-09
1.39888e-08
2.10162e-08
1.39646e-08
2.10503e-08
8.99362e-09
3.64982e-09
3.55465e-09
8.9801e-09
1.40005e-08
2.11207e-08
1.40369e-08
2.10738e-08
5.30363e-09
5.29672e-09
5.184e-09
5.39633e-09
1.11447e-08
3.99188e-09
5.41486e-09
3.88951e-09
5.2145e-09
5.15863e-09
3.97313e-09
5.42114e-09
1.11461e-08
5.4328e-09
5.1881e-09
3.89508e-09
9.05092e-09
3.6632e-09
3.56746e-09
9.03218e-09
1.40841e-08
2.12325e-08
1.41171e-08
2.11893e-08
9.04989e-09
3.66369e-09
3.56518e-09
9.08358e-09
1.40673e-08
2.1143e-08
1.40498e-08
2.11702e-08
9.35391e-09
1.08764e-08
1.02831e-08
9.33206e-09
1.02632e-08
8.07889e-09
8.08094e-09
1.02129e-08
1.0848e-08
9.30676e-09
9.30925e-09
1.02489e-08
1.24828e-08
1.24493e-08
1.25087e-08
1.25427e-08
1.26117e-08
1.26399e-08
1.25954e-08
1.25671e-08
8.05439e-09
8.0269e-09
9.22048e-09
1.07613e-08
1.01214e-08
9.22686e-09
1.01606e-08
1.01954e-08
9.27331e-09
1.07903e-08
9.24938e-09
1.01711e-08
8.16536e-09
8.14491e-09
9.37931e-09
1.09179e-08
1.02959e-08
9.37751e-09
1.03237e-08
1.03405e-08
9.40886e-09
1.09359e-08
9.39049e-09
1.03275e-08
1.27707e-08
1.27925e-08
1.33843e-08
1.59786e-08
1.27143e-08
1.29277e-08
1.34009e-08
1.59484e-08
1.26988e-08
1.33665e-08
1.26583e-08
1.29073e-08
1.59116e-08
1.59271e-08
1.26846e-08
1.33453e-08
1.27596e-08
1.27409e-08
8.183e-09
8.17956e-09
9.46594e-09
1.04046e-08
1.09964e-08
9.44746e-09
1.03908e-08
1.03522e-08
9.43199e-09
1.09742e-08
9.42976e-09
1.03804e-08
1.26816e-08
1.26618e-08
1.27001e-08
1.27227e-08
5.35838e-09
5.35128e-09
5.23831e-09
5.46952e-09
1.12637e-08
4.02305e-09
5.48332e-09
5.26529e-09
3.92269e-09
5.20737e-09
4.0041e-09
5.48286e-09
1.12605e-08
5.50067e-09
5.23771e-09
3.92722e-09
9.14422e-09
3.68171e-09
3.58719e-09
9.12878e-09
1.42277e-08
2.14358e-08
1.42561e-08
2.13987e-08
9.14289e-09
3.68432e-09
9.17331e-09
3.58455e-09
1.42123e-08
2.13596e-08
1.41989e-08
2.13825e-08
5.37397e-09
5.36619e-09
5.27081e-09
5.52257e-09
4.04732e-09
1.13345e-08
5.30699e-09
5.52429e-09
3.95206e-09
5.22676e-09
4.01403e-09
5.48767e-09
1.12962e-08
5.52044e-09
5.24701e-09
3.93391e-09
9.10362e-09
3.68228e-09
3.58158e-09
9.12761e-09
1.41473e-08
2.12539e-08
1.41279e-08
2.12811e-08
9.09434e-09
3.66295e-09
9.08459e-09
3.57073e-09
1.41559e-08
2.1341e-08
1.41877e-08
2.13001e-08
5.23184e-09
5.22588e-09
5.12384e-09
5.29617e-09
1.0995e-08
3.97774e-09
5.3219e-09
3.86868e-09
5.16441e-09
5.10719e-09
3.95062e-09
5.33716e-09
1.09988e-08
5.33745e-09
5.13321e-09
3.87231e-09
8.94051e-09
3.65878e-09
3.55824e-09
8.91806e-09
1.39127e-08
2.09892e-08
1.39509e-08
2.09398e-08
8.94157e-09
3.6524e-09
8.97941e-09
3.55541e-09
1.38918e-08
2.08787e-08
1.38685e-08
2.09147e-08
5.26127e-09
5.25456e-09
5.17555e-09
5.39171e-09
1.11059e-08
3.9853e-09
5.38594e-09
5.21035e-09
3.89318e-09
5.12971e-09
3.95867e-09
5.33811e-09
1.10633e-08
5.37854e-09
5.1541e-09
3.87459e-09
8.88409e-09
3.66606e-09
3.57019e-09
8.91851e-09
1.37917e-08
2.07213e-08
1.37622e-08
2.07633e-08
8.87235e-09
3.66534e-09
3.56143e-09
8.8562e-09
1.38089e-08
2.08486e-08
1.38508e-08
2.07942e-08
8.94031e-09
1.04943e-08
9.81381e-09
8.96615e-09
9.87803e-09
7.86745e-09
7.82502e-09
9.95178e-09
1.0544e-08
9.04718e-09
9.00834e-09
9.90561e-09
1.23733e-08
1.2417e-08
1.23446e-08
1.22971e-08
1.21574e-08
1.20977e-08
1.22009e-08
1.22572e-08
7.90579e-09
7.92085e-09
9.18235e-09
1.06906e-08
1.00989e-08
9.15089e-09
1.00638e-08
9.98475e-09
9.09974e-09
1.06472e-08
9.11497e-09
1.00388e-08
1.26471e-08
4.36079e-09
6.84959e-09
6.33027e-09
1.26073e-08
6.88146e-09
6.33988e-09
1.25033e-08
4.22242e-09
6.79415e-09
6.27342e-09
1.25591e-08
6.71674e-09
6.22668e-09
8.87664e-09
9.76862e-09
1.03593e-08
8.8207e-09
9.70231e-09
7.58024e-09
7.62518e-09
9.55681e-09
1.02854e-08
8.71002e-09
8.75608e-09
9.64981e-09
1.15707e-08
1.14549e-08
1.16511e-08
1.17563e-08
1.19673e-08
1.20426e-08
1.19144e-08
1.18279e-08
7.51343e-09
7.43692e-09
8.38635e-09
9.98484e-09
9.20494e-09
8.45781e-09
9.32528e-09
9.48848e-09
8.61875e-09
1.0081e-08
8.54362e-09
9.3953e-09
5.18644e-09
5.18058e-09
5.13278e-09
5.2947e-09
3.98025e-09
1.09505e-08
5.16389e-09
5.27955e-09
3.89231e-09
5.08887e-09
3.97449e-09
5.2239e-09
1.09098e-08
5.27095e-09
5.12378e-09
3.8812e-09
8.75979e-09
3.72823e-09
3.64638e-09
8.79323e-09
1.35654e-08
2.03924e-08
1.35427e-08
2.04284e-08
8.74664e-09
3.77767e-09
3.64861e-09
8.74192e-09
1.35876e-08
2.05197e-08
1.36279e-08
2.04665e-08
5.15057e-09
5.14314e-09
5.09058e-09
5.17467e-09
1.08244e-08
4.04343e-09
5.20525e-09
3.91438e-09
5.15702e-09
5.07935e-09
3.98008e-09
5.22995e-09
1.08233e-08
5.21271e-09
5.09809e-09
3.90309e-09
8.81115e-09
3.70674e-09
3.59268e-09
8.79049e-09
1.37012e-08
2.06838e-08
1.37431e-08
2.06288e-08
8.81507e-09
3.67449e-09
8.8544e-09
3.58512e-09
1.3675e-08
2.05581e-08
1.36512e-08
2.05976e-08
1.21063e-08
3.7248e-09
6.21791e-09
5.95165e-09
1.2207e-08
6.07138e-09
5.86789e-09
1.23291e-08
3.95042e-09
6.3065e-09
6.01265e-09
1.22537e-08
6.39659e-09
6.05107e-09
5.7574e-09
5.59959e-09
5.65442e-09
5.28764e-09
1.08356e-08
4.64092e-09
5.29856e-09
4.67328e-09
5.55948e-09
5.75276e-09
5.1422e-09
5.47065e-09
1.0921e-08
5.40816e-09
6.01668e-09
4.85065e-09
9.23344e-09
5.1307e-09
5.36202e-09
9.08007e-09
1.36556e-08
2.04267e-08
1.38641e-08
2.02461e-08
9.31837e-09
6.2056e-09
5.66062e-09
9.62275e-09
1.36416e-08
2.01507e-08
1.35268e-08
2.02521e-08
5.91711e-09
6.13758e-09
6.68634e-09
6.42788e-09
1.1241e-08
6.54254e-09
6.13118e-09
5.98995e-09
7.24708e-09
6.42414e-09
5.44626e-09
5.72809e-09
1.10347e-08
5.8098e-09
6.17554e-09
5.60354e-09
8.87734e-09
4.87241e-09
4.54878e-09
9.00086e-09
1.34572e-08
2.01233e-08
1.34225e-08
2.01423e-08
8.86451e-09
4.35915e-09
4.4216e-09
8.80461e-09
1.3447e-08
2.01778e-08
1.35304e-08
2.01131e-08
6.95295e-09
8.28891e-09
7.63431e-09
6.69599e-09
7.32597e-09
5.65439e-09
5.86619e-09
6.626e-09
7.99808e-09
6.12336e-09
6.42533e-09
7.02675e-09
7.91334e-09
7.45571e-09
8.28316e-09
8.70341e-09
9.63229e-09
9.93251e-09