/*--------------------------------*- C++ -*----------------------------------*\
| =========                 |                                                 |
| \\      /  F ield         | OpenFOAM: The Open Source CFD Toolbox           |
|  \\    /   O peration     | Version:  2012                                  |
|   \\  /    A nd           | Website:  www.openfoam.com                      |
|    \\/     M anipulation  |                                                 |
\*---------------------------------------------------------------------------*/
FoamFile
{
    version     2.0;
    format      ascii;
    class       volSymmTensorField;
    location    "0.106/solid";
    object      epsilon;
}
// * * * * * * * * * * * * * * * * * * * * * * * * * * * * * * * * * * * * * //

dimensions      [0 0 0 0 0 0 0];


internalField   nonuniform List<symmTensor> 
3125
(
(-5.15317e-09 7.12647e-09 -2.76169e-10 2.8146e-08 1.27602e-10 -2.02225e-10)
(-5.02172e-09 6.73239e-09 -1.96419e-10 2.78691e-08 3.41785e-11 -1.15266e-10)
(-4.9756e-09 6.01407e-09 -3.52454e-11 2.7328e-08 -1.07639e-10 -2.2348e-11)
(-4.96525e-09 5.9651e-09 -3.19832e-11 2.72229e-08 -1.16996e-10 -1.91168e-11)
(-4.93831e-09 5.6355e-09 -4.58081e-11 2.63355e-08 -1.78819e-10 -1.07994e-11)
(-4.93639e-09 5.56887e-09 -5.37716e-11 2.61347e-08 -1.79107e-10 3.49833e-12)
(-5.19107e-09 5.13593e-09 -2.66899e-10 2.35568e-08 1.48724e-09 1.08336e-09)
(-5.14126e-09 5.32339e-09 -5.05975e-10 2.23431e-08 2.3769e-09 1.72291e-09)
(-5.0167e-09 6.293e-09 -7.17051e-11 2.76894e-08 -6.115e-11 -4.24345e-11)
(-4.98706e-09 6.18544e-09 -5.41127e-11 2.75677e-08 -8.11923e-11 -2.90597e-11)
(-4.9533e-09 5.83865e-09 -3.2953e-11 2.69205e-08 -1.41255e-10 -2.29318e-11)
(-4.94824e-09 5.79317e-09 -3.50295e-11 2.67956e-08 -1.5343e-10 -2.18617e-11)
(-4.97526e-09 5.31209e-09 -8.45517e-11 2.53377e-08 -3.33518e-11 1.48648e-10)
(-5.01806e-09 5.21921e-09 -9.78779e-11 2.50027e-08 1.27702e-10 2.66204e-10)
(-5.1565e-09 7.48781e-09 -1.75768e-10 2.81769e-08 3.95743e-10 -3.40867e-10)
(-5.64801e-09 1.41929e-08 -2.96544e-10 1.74098e-08 2.19264e-10 -1.52679e-10)
(-2.22134e-09 -1.32316e-09 -5.53747e-10 3.09028e-08 -4.83765e-10 -2.58455e-10)
(1.89805e-09 1.83953e-09 -3.61853e-10 7.65095e-09 -4.48017e-11 -2.0263e-10)
(-5.71721e-09 1.45584e-08 -1.37038e-11 1.72762e-08 2.57622e-10 -2.30736e-10)
(2.01694e-09 1.73463e-09 -4.96769e-11 7.6364e-09 -1.1168e-10 -8.23625e-11)
(-5.42998e-09 1.35668e-08 -2.12085e-10 1.7572e-08 4.64624e-11 -1.63821e-10)
(-2.0986e-09 -1.48789e-09 -4.15955e-10 3.04402e-08 -3.16651e-10 -1.18653e-10)
(-4.9915e-09 6.51946e-09 -7.50465e-11 2.77565e-08 2.26225e-11 -6.88458e-11)
(-2.10795e-09 -1.49164e-09 -1.02161e-10 3.04674e-08 1.90265e-10 -1.47574e-10)
(2.16199e-09 1.66038e-09 -2.81733e-10 7.84743e-09 -5.59157e-11 -1.12757e-10)
(-5.39108e-09 1.3341e-08 -2.28377e-11 1.74645e-08 -8.47262e-11 -6.5105e-11)
(1.9987e-09 1.65992e-09 -2.27229e-11 7.58068e-09 -4.40041e-11 -2.44239e-11)
(-4.9831e-09 6.06698e-09 -3.27004e-11 2.74158e-08 -9.24478e-11 -2.23501e-11)
(-5.30401e-09 1.27944e-08 -4.59421e-11 1.70979e-08 -1.01337e-10 -6.19987e-12)
(2.01788e-09 1.62044e-09 -6.85681e-11 7.56681e-09 -4.8588e-11 -1.44979e-11)
(-5.32152e-09 1.28683e-08 -4.24169e-11 1.71468e-08 -9.32319e-11 1.57991e-12)
(1.96927e-09 1.60854e-09 -6.2503e-11 7.48435e-09 -5.00178e-11 -2.79099e-11)
(-5.28319e-09 1.27194e-08 -4.80432e-11 1.70369e-08 -1.06633e-10 -8.49998e-12)
(-4.96112e-09 5.92383e-09 -2.781e-11 2.71249e-08 -1.20315e-10 -1.84068e-11)
(2.01987e-09 1.61582e-09 -2.83348e-11 7.55844e-09 -4.46493e-11 -1.2243e-11)
(-5.27538e-09 1.26683e-08 -3.16698e-11 1.69617e-08 -1.2053e-10 -5.55588e-12)
(1.8521e-09 1.55914e-09 -3.51238e-11 7.29898e-09 -5.44251e-11 -1.44264e-11)
(-4.9419e-09 5.69425e-09 -4.16077e-11 2.65088e-08 -1.7241e-10 -1.72322e-11)
(-5.2311e-09 1.23017e-08 -5.79018e-11 1.64019e-08 -1.65078e-10 5.92479e-13)
(1.76785e-09 1.53738e-09 -7.35962e-11 7.17322e-09 -6.44068e-11 1.90485e-11)
(-5.23907e-09 1.23765e-08 -6.10835e-11 1.65236e-08 -1.53043e-10 -4.03701e-12)
(1.60266e-09 1.50681e-09 -6.41492e-11 6.94991e-09 -5.65925e-11 1.51669e-10)
(-5.22522e-09 1.22205e-08 -7.37014e-11 1.62572e-08 -1.56487e-10 1.66672e-11)
(-4.93899e-09 5.49268e-09 -6.18585e-11 2.59029e-08 -1.63229e-10 2.91778e-11)
(1.75354e-09 1.52901e-09 -3.8282e-11 7.15588e-09 -5.73459e-11 3.34207e-11)
(-5.22032e-09 1.21289e-08 -7.06248e-11 1.60897e-08 -1.46398e-10 4.07499e-11)
(5.15594e-10 1.43822e-09 2.51579e-10 5.69667e-09 2.51753e-10 1.87313e-09)
(-5.14894e-09 5.10315e-09 -1.59098e-10 2.41847e-08 8.38511e-10 7.0105e-10)
(-5.45283e-09 1.17702e-08 -1.23699e-10 1.40259e-08 1.77255e-09 1.42907e-09)
(-8.96252e-10 1.50185e-09 5.0084e-10 4.11847e-09 6.66369e-10 4.88256e-09)
(-5.35897e-09 1.17549e-08 -6.91952e-11 1.46379e-08 9.54958e-10 8.49238e-10)
(-4.80767e-09 1.25864e-09 -3.70839e-10 -3.55873e-10 -1.75948e-11 1.44081e-08)
(-5.59193e-09 1.18724e-08 -3.24693e-10 1.28241e-08 3.11124e-09 2.59342e-09)
(-4.96822e-09 6.13146e-09 -1.14306e-09 1.92973e-08 3.9097e-09 3.31066e-09)
(-1.22752e-09 1.47978e-09 5.69926e-10 3.8006e-09 7.00758e-10 5.63953e-09)
(-5.40412e-09 1.2099e-08 -1.04138e-09 1.02063e-08 5.63931e-09 4.91593e-09)
(-4.75074e-09 2.01505e-08 -8.63212e-11 9.03633e-09 1.78891e-10 -6.87821e-11)
(9.91692e-09 -2.11721e-09 -4.67265e-10 2.49365e-08 -3.63647e-10 -2.34038e-10)
(-4.6203e-09 1.97778e-08 -9.06119e-11 9.1763e-09 -9.51604e-11 -6.24652e-11)
(-4.48479e-09 1.93122e-08 -2.57583e-11 8.99265e-09 -5.04755e-11 2.80587e-12)
(9.85197e-09 -2.19499e-09 -3.45379e-10 2.45792e-08 -2.21214e-10 -2.42872e-10)
(9.87791e-09 -2.1184e-09 -9.71998e-11 2.4688e-08 1.22169e-10 -1.86349e-10)
(1.91284e-09 1.79345e-09 -1.6644e-11 7.56634e-09 -9.13488e-11 -9.68978e-11)
(-5.02437e-09 6.41002e-09 -5.81283e-11 2.77583e-08 -1.34644e-11 -5.30829e-11)
(-5.39551e-09 1.31628e-08 -8.98659e-11 1.73167e-08 -5.76417e-11 -1.16685e-11)
(2.03709e-09 1.67862e-09 -1.09257e-10 7.66046e-09 -5.15833e-11 -9.64679e-12)
(-5.43106e-09 1.33093e-08 -4.21379e-11 1.73348e-08 -6.55284e-11 4.68242e-13)
(9.78788e-09 -2.1399e-09 -1.12178e-10 2.45754e-08 -8.91246e-11 -7.25602e-11)
(9.88408e-09 -2.09566e-09 -1.04225e-10 2.47918e-08 6.19795e-11 -1.42273e-10)
(-4.40033e-09 1.89982e-08 -3.20165e-11 8.83477e-09 -1.63453e-11 7.62212e-12)
(-4.48338e-09 1.92744e-08 -3.55068e-11 8.88305e-09 -2.34703e-10 1.57484e-11)
(2.01573e-09 1.65834e-09 -5.85621e-11 7.58723e-09 -5.2726e-11 -2.41555e-11)
(-4.9801e-09 6.11746e-09 -3.13422e-11 2.74803e-08 -8.19046e-11 -2.1691e-11)
(-5.33329e-09 1.2988e-08 -7.16661e-11 1.72943e-08 -8.18993e-11 -2.26711e-11)
(2.07877e-09 1.65126e-09 -6.28181e-11 7.67703e-09 -4.88234e-11 5.67001e-13)
(-5.31911e-09 1.29108e-08 -2.49142e-11 1.72177e-08 -1.06667e-10 -6.51076e-12)
(-4.28517e-09 1.85561e-08 -1.93055e-11 8.63714e-09 -2.99098e-11 8.34719e-12)
(-4.3212e-09 1.86928e-08 -2.83248e-11 8.69437e-09 -2.16551e-10 1.36578e-11)
(9.62041e-09 -2.1286e-09 -5.19224e-11 2.42667e-08 -4.42741e-11 -3.36227e-11)
(9.69123e-09 -2.12469e-09 -5.14459e-11 2.44141e-08 -9.71706e-12 -4.29018e-11)
(9.753e-09 -2.14918e-09 -8.91865e-11 2.44725e-08 -6.47991e-11 -6.74051e-11)
(9.70455e-09 -2.12917e-09 -4.65544e-11 2.44216e-08 7.73259e-12 -5.14979e-11)
(-4.36816e-09 1.88906e-08 -4.12003e-11 8.84095e-09 -2.08103e-10 5.4616e-12)
(-4.3223e-09 1.8724e-08 -1.63201e-11 8.73465e-09 -3.68061e-11 1.2758e-11)
(-4.27776e-09 1.85094e-08 -2.99095e-11 8.61894e-09 -2.15416e-10 7.32734e-12)
(-4.25548e-09 1.84061e-08 -1.71597e-11 8.5311e-09 -4.37028e-11 8.47531e-12)
(9.59379e-09 -2.12735e-09 -4.83488e-11 2.42097e-08 -4.04803e-11 -3.29431e-11)
(9.52569e-09 -2.11965e-09 -4.34301e-11 2.41046e-08 -2.05444e-11 -3.15155e-11)
(1.96094e-09 1.60624e-09 -2.7023e-11 7.47755e-09 -4.3313e-11 -2.57092e-11)
(-4.95855e-09 5.8829e-09 -3.15094e-11 2.70297e-08 -1.29425e-10 -2.11165e-11)
(-5.26077e-09 1.25611e-08 -4.22192e-11 1.68169e-08 -1.32091e-10 -1.01816e-11)
(1.93502e-09 1.58218e-09 -6.86552e-11 7.42125e-09 -5.46777e-11 -2.56529e-11)
(-5.27084e-09 1.26208e-08 -4.66834e-11 1.6889e-08 -1.16641e-10 -5.78953e-12)
(9.42168e-09 -2.117e-09 -4.98505e-11 2.39195e-08 -3.77616e-11 -2.63492e-11)
(9.50368e-09 -2.11834e-09 -4.72561e-11 2.40682e-08 -2.80694e-11 -2.92517e-11)
(-4.23227e-09 1.82645e-08 -2.05205e-11 8.42158e-09 -5.83611e-11 5.30759e-12)
(-4.25613e-09 1.83748e-08 -2.92248e-11 8.50119e-09 -2.2632e-10 7.97548e-12)
(1.86389e-09 1.56271e-09 -7.10986e-11 7.31312e-09 -5.98751e-11 -2.07146e-11)
(-4.94491e-09 5.7461e-09 -3.60849e-11 2.66595e-08 -1.62436e-10 -2.01448e-11)
(-5.25142e-09 1.25001e-08 -5.26769e-11 1.67309e-08 -1.36847e-10 -9.67088e-12)
(1.92842e-09 1.57866e-09 -3.1149e-11 7.41001e-09 -5.02259e-11 -2.2101e-11)
(-5.24478e-09 1.24404e-08 -4.53857e-11 1.66326e-08 -1.53069e-10 -8.25473e-12)
(-4.18954e-09 1.79311e-08 -3.03076e-11 8.11918e-09 -9.52333e-11 1.01089e-11)
(-4.21458e-09 1.80719e-08 -3.70372e-11 8.24484e-09 -2.62836e-10 6.12162e-12)
(9.10747e-09 -2.10924e-09 -7.25471e-11 2.33944e-08 -4.4191e-11 3.87752e-11)
(9.24721e-09 -2.11023e-09 -6.08065e-11 2.36259e-08 -4.14536e-11 -1.18904e-12)
(9.39022e-09 -2.11521e-09 -5.15947e-11 2.3862e-08 -4.04677e-11 -2.34405e-11)
(9.28585e-09 -2.11115e-09 -5.60843e-11 2.36913e-08 -3.6062e-11 -1.04365e-11)
(-4.23323e-09 1.8227e-08 -3.2415e-11 8.39146e-09 -2.43192e-10 4.92251e-12)
(-4.21155e-09 1.81127e-08 -2.42319e-11 8.28425e-09 -8.05245e-11 5.91322e-12)
(-4.1946e-09 1.78799e-08 -4.33275e-11 8.0704e-09 -2.71336e-10 1.28879e-11)
(-4.16684e-09 1.7703e-08 -3.54758e-11 7.91037e-09 -6.92e-11 3.16892e-11)
(9.05193e-09 -2.10846e-09 -8.01891e-11 2.33021e-08 -4.80276e-11 6.27482e-11)
(1.5762e-09 1.4944e-09 -2.72605e-11 6.92154e-09 -4.56087e-11 1.87133e-10)
(-4.95066e-09 5.4061e-09 -7.43283e-11 2.56378e-08 -1.21712e-10 7.48928e-11)
(-5.22677e-09 1.19294e-08 -7.66702e-11 1.56629e-08 -1.07409e-11 1.63038e-10)
(1.29518e-09 1.47012e-09 -7.22499e-12 6.56819e-09 2.54635e-12 5.4515e-10)
(-5.22181e-09 1.20326e-08 -8.54929e-11 1.5891e-08 -9.49141e-11 9.0512e-11)
(-4.15378e-09 1.74322e-08 -3.08556e-11 7.66718e-09 1.04666e-10 9.74994e-11)
(-4.17531e-09 1.76404e-08 -4.7733e-11 7.84882e-09 -2.20867e-10 4.16659e-11)
(6.45541e-10 1.45132e-09 1.79042e-10 5.82114e-09 2.06644e-10 1.63483e-09)
(-5.07833e-09 5.14218e-09 -1.15049e-10 2.46271e-08 4.02715e-10 4.41338e-10)
(-5.24877e-09 1.18417e-08 -7.97118e-11 1.53875e-08 1.64464e-10 2.96531e-10)
(1.23975e-09 1.45568e-09 4.0533e-11 6.51283e-09 2.44653e-11 6.32885e-10)
(-5.28387e-09 1.17706e-08 -6.10444e-11 1.50649e-08 4.52783e-10 4.93779e-10)
(-4.38564e-09 1.70124e-08 6.54528e-11 7.30389e-09 2.53769e-09 8.60216e-10)
(-4.23856e-09 1.71525e-08 -2.28275e-12 7.38044e-09 8.10859e-10 3.65701e-10)
(-4.17366e-09 1.73706e-08 -3.92988e-11 7.59859e-09 2.28025e-11 1.27177e-10)
(-4.19015e-09 1.71839e-08 1.67552e-12 7.43906e-09 7.02261e-10 2.7993e-10)
(-4.5273e-09 1.69874e-08 4.20645e-11 7.24548e-09 3.27161e-09 1.19402e-09)
(-4.76812e-09 1.58829e-08 6.36427e-11 6.76368e-09 9.30118e-09 3.6929e-09)
(-5.49135e-09 1.314e-09 -8.53328e-10 -1.2242e-09 -3.81062e-10 1.61541e-08)
(-2.32933e-09 1.49284e-08 -9.58473e-10 4.87987e-09 1.18905e-08 5.61216e-09)
(-3.8795e-09 1.51946e-08 -2.35566e-10 5.48742e-09 1.27501e-08 5.83077e-09)
(-8.45968e-09 1.1971e-08 -1.1025e-09 1.46364e-08 6.53757e-10 1.34259e-08)
(-1.87209e-09 1.51922e-08 -8.43411e-10 -1.07017e-10 1.10844e-08 1.10118e-08)
(-8.66477e-09 8.45529e-09 -6.67265e-10 2.37815e-08 -7.85695e-12 -3.64571e-10)
(1.13588e-09 2.37979e-09 -3.47149e-10 6.92498e-09 -2.67943e-11 -6.79528e-10)
(-7.25841e-09 9.81751e-09 -4.59376e-10 1.40487e-08 8.65099e-11 -3.1429e-10)
(-7.08263e-10 2.98887e-09 -3.49321e-10 2.22566e-08 4.99929e-11 -4.52109e-10)
(-8.57506e-09 8.21766e-09 -2.23348e-10 2.3855e-08 3.07427e-10 -3.19393e-10)
(1.471e-09 2.06705e-09 -3.83147e-10 7.30533e-09 3.28109e-11 -5.20874e-10)
(-6.80376e-09 9.23614e-09 -8.13403e-10 1.4316e-08 5.66891e-12 -2.75424e-10)
(-3.41551e-10 2.3805e-09 -6.12388e-10 2.22114e-08 -1.85793e-10 -3.11629e-10)
(-8.31691e-09 7.83551e-09 -1.03003e-09 2.38215e-08 -2.12507e-10 -3.30526e-10)
(-7.06429e-09 9.5655e-09 -1.92202e-10 1.42127e-08 1.54515e-10 -2.94617e-10)
(-5.71861e-10 2.69907e-09 -6.23734e-10 2.23153e-08 -2.90768e-11 -3.98441e-10)
(-7.93601e-09 7.36579e-09 2.86436e-10 2.35757e-08 1.21581e-10 -1.50141e-10)
(-1.94487e-10 2.23055e-09 -1.91287e-12 2.18767e-08 -2.15033e-11 -1.04316e-10)
(2.17789e-09 1.72804e-09 -2.21874e-11 7.69524e-09 -1.64786e-10 -4.73704e-11)
(-6.43382e-09 8.77517e-09 -2.33487e-10 1.42169e-08 -1.50402e-10 -3.80965e-11)
(-6.29362e-09 8.6789e-09 2.44383e-10 1.42837e-08 -1.33473e-10 -1.08369e-10)
(-9.67624e-11 2.17279e-09 -5.93512e-11 2.18302e-08 -5.46271e-11 -1.301e-10)
(-8.03021e-09 7.416e-09 -3.52936e-10 2.35609e-08 -2.36321e-10 -8.44794e-11)
(-7.91549e-09 7.37836e-09 -6.25155e-10 2.36466e-08 -2.99165e-10 -2.56402e-10)
(2.3392e-09 1.59324e-09 -9.63658e-11 7.86495e-09 -1.71165e-10 -9.30501e-12)
(-6.41254e-09 8.85121e-09 -1.84053e-10 1.44044e-08 -2.20834e-11 -2.60474e-10)
(-1.32239e-10 2.17672e-09 -4.82498e-10 2.20253e-08 -1.77754e-10 -2.5843e-10)
(-8.06722e-09 7.54515e-09 -1.68342e-10 2.376e-08 1.14701e-10 -2.91129e-10)
(-6.26584e-09 8.67613e-09 -4.72021e-10 1.43687e-08 -1.68572e-10 -2.19999e-10)
(-4.62501e-11 2.12393e-09 -2.14586e-10 2.18732e-08 -1.67041e-10 -1.99085e-10)
(-7.95783e-09 7.1359e-09 -4.25446e-10 2.32586e-08 -2.76354e-10 -1.57559e-11)
(-2.28383e-10 2.10553e-09 -6.73613e-11 2.16685e-08 -3.07865e-11 -2.15209e-11)
(2.02115e-09 1.65895e-09 -7.15834e-11 7.54573e-09 -4.43348e-11 -1.65054e-11)
(-6.34477e-09 8.5525e-09 1.91703e-10 1.4026e-08 -3.51461e-11 2.36002e-11)
(-7.97379e-09 7.15825e-09 2.89472e-10 2.32826e-08 1.25368e-10 -1.03311e-11)
(-6.3087e-09 8.50617e-09 -3.43544e-10 1.40254e-08 -9.49439e-11 6.82501e-12)
(-2.25294e-10 2.09883e-09 -6.84021e-11 2.1636e-08 -7.45133e-11 -2.4298e-11)
(-7.94108e-09 7.10737e-09 2.69467e-10 2.32191e-08 1.08302e-10 -2.83973e-11)
(2.04366e-09 1.63665e-09 -4.18141e-11 7.56143e-09 -2.94084e-11 -7.44017e-12)
(-6.29418e-09 8.45997e-09 -3.18782e-10 1.39837e-08 -1.20699e-10 9.53444e-12)
(-2.20458e-10 2.05826e-09 -6.3629e-11 2.15693e-08 -8.54304e-11 -2.4794e-11)
(-7.93166e-09 7.07936e-09 -4.19045e-10 2.31858e-08 -2.95406e-10 -1.63967e-11)
(-6.27967e-09 8.47391e-09 1.872e-10 1.40003e-08 -4.67357e-11 -4.38975e-12)
(-2.18256e-10 2.08262e-09 -8.54681e-11 2.1596e-08 -4.41481e-11 -2.66622e-11)
(-7.89466e-09 7.02532e-09 2.95164e-10 2.304e-08 9.77174e-11 -2.4291e-11)
(-2.53474e-10 2.04098e-09 -4.38172e-11 2.14098e-08 -6.9534e-11 -2.23679e-11)
(2.02412e-09 1.62144e-09 -2.55409e-11 7.48567e-09 -4.21437e-11 -1.05303e-11)
(-6.27479e-09 8.38988e-09 -2.9167e-10 1.38667e-08 -1.23952e-10 1.27903e-11)
(-6.2297e-09 8.37801e-09 2.1331e-10 1.38867e-08 -6.22074e-11 -5.90752e-12)
(-2.32039e-10 2.05548e-09 -5.8698e-11 2.14178e-08 -4.22926e-11 -2.16628e-11)
(-7.91017e-09 7.01607e-09 -3.90886e-10 2.30157e-08 -2.90592e-10 -7.96741e-12)
(-7.89444e-09 7.03784e-09 -4.10853e-10 2.30882e-08 -2.98361e-10 -1.95946e-11)
(2.03724e-09 1.61766e-09 -5.6993e-11 7.50189e-09 -5.6972e-11 -1.03255e-11)
(-6.27105e-09 8.43397e-09 1.64418e-10 1.39449e-08 -4.99489e-11 7.03162e-12)
(-2.20693e-10 2.05224e-09 -8.10586e-11 2.15153e-08 -6.4412e-11 -2.21805e-11)
(-7.9163e-09 7.0561e-09 2.66043e-10 2.3134e-08 9.1704e-11 -2.09149e-11)
(-6.22861e-09 8.38375e-09 -3.31672e-10 1.39303e-08 -1.15221e-10 -6.15497e-12)
(-2.20361e-10 2.05599e-09 -5.52666e-11 2.14576e-08 -9.01435e-11 -2.31531e-11)
(-7.87495e-09 6.8231e-09 -4.30632e-10 2.24988e-08 -3.28786e-10 -5.89999e-12)
(-3.61145e-10 1.96706e-09 -9.32648e-11 2.09993e-08 -7.33729e-11 -1.13619e-11)
(1.84411e-09 1.5635e-09 -7.41927e-11 7.22066e-09 -6.28748e-11 -2.54443e-13)
(-6.272e-09 8.23165e-09 1.50673e-10 1.35409e-08 -7.50095e-11 1.25064e-11)
(-7.88874e-09 6.84676e-09 2.48166e-10 2.25588e-08 5.73926e-11 -1.49741e-11)
(-6.2396e-09 8.17498e-09 -3.54655e-10 1.35204e-08 -1.37505e-10 5.24636e-12)
(-3.72473e-10 1.96251e-09 -8.30811e-11 2.09295e-08 -1.08484e-10 -6.74797e-12)
(-7.87295e-09 6.79754e-09 2.47137e-10 2.24155e-08 4.93203e-11 -1.38149e-11)
(1.84785e-09 1.54642e-09 -4.44921e-11 7.21621e-09 -4.88095e-11 1.35303e-11)
(-6.27608e-09 8.14636e-09 -3.22441e-10 1.34138e-08 -1.5635e-10 3.48379e-11)
(-4.21941e-10 1.93241e-09 -7.96604e-11 2.08064e-08 -1.02301e-10 1.75638e-11)
(-7.88604e-09 6.77499e-09 -4.21372e-10 2.23556e-08 -3.33877e-10 1.83143e-11)
(-6.23392e-09 8.15623e-09 1.67571e-10 1.34497e-08 -8.94857e-11 5.20746e-12)
(-3.9026e-10 1.95498e-09 -9.53517e-11 2.08541e-08 -7.09674e-11 3.80845e-12)
(-7.88881e-09 6.69011e-09 2.22029e-10 2.20598e-08 4.70243e-11 5.77983e-11)
(-5.6084e-10 1.8852e-09 -9.54246e-11 2.04462e-08 -9.72548e-11 1.40193e-10)
(1.71843e-09 1.51317e-09 -4.33184e-11 7.03554e-09 -4.63892e-11 1.0015e-10)
(-6.31563e-09 8.03678e-09 -3.26734e-10 1.31373e-08 -1.42616e-10 1.30984e-10)
(-6.26299e-09 8.05363e-09 1.4961e-10 1.3191e-08 -8.38126e-11 7.68669e-11)
(-5.08944e-10 1.90956e-09 -1.12625e-10 2.05228e-08 -7.34875e-11 9.7026e-11)
(-7.91264e-09 6.66403e-09 -4.3611e-10 2.19721e-08 -3.19858e-10 1.16724e-10)
(-7.88399e-09 6.72085e-09 -4.4589e-10 2.21752e-08 -3.34183e-10 4.86602e-11)
(1.71728e-09 1.53659e-09 -7.47621e-11 7.04531e-09 -6.14061e-11 7.22164e-11)
(-6.28801e-09 8.13802e-09 1.34236e-10 1.33265e-08 -8.37819e-11 4.89223e-11)
(-4.50967e-10 1.92367e-09 -1.08949e-10 2.07236e-08 -8.3799e-11 3.88497e-11)
(-7.89217e-09 6.74858e-09 2.25965e-10 2.22589e-08 4.1635e-11 2.08884e-11)
(-6.26338e-09 8.075e-09 -3.6538e-10 1.32912e-08 -1.40415e-10 5.83921e-11)
(-4.75843e-10 1.91726e-09 -9.9456e-11 2.06294e-08 -1.15638e-10 6.1761e-11)
(-8.55531e-09 6.56659e-09 -4.80285e-10 1.9974e-08 5.49565e-10 1.93139e-09)
(-1.57768e-09 1.88213e-09 -5.81183e-11 1.8725e-08 2.95157e-10 1.90915e-09)
(-8.61465e-12 1.51163e-09 3.07948e-10 5.10646e-09 4.38456e-10 2.78948e-09)
(-6.92089e-09 7.9602e-09 2.93908e-10 1.17136e-08 5.54975e-10 1.6033e-09)
(-8.42196e-09 6.52194e-09 2.06989e-10 2.03008e-08 6.84866e-10 1.49933e-09)
(-7.087e-09 7.96142e-09 -1.4741e-10 1.14592e-08 7.01046e-10 2.07912e-09)
(-1.82461e-09 1.92604e-09 -7.0574e-11 1.83444e-08 3.76182e-10 2.46247e-09)
(-8.68222e-09 6.60198e-09 8.06209e-11 1.95216e-08 1.14529e-09 2.46351e-09)
(-1.05313e-10 1.43689e-09 3.93144e-10 4.97048e-09 4.95011e-10 3.23513e-09)
(-7.53743e-09 8.04806e-09 -5.89368e-11 1.05856e-08 1.24203e-09 3.55641e-09)
(-2.43606e-09 2.06682e-09 -1.89853e-10 1.72908e-08 6.68097e-10 4.08042e-09)
(-8.86072e-09 6.69883e-09 -6.44392e-10 1.9003e-08 1.09854e-09 3.1722e-09)
(-7.2587e-09 8.00968e-09 2.8729e-10 1.10055e-08 1.05429e-09 2.71176e-09)
(-2.09236e-09 1.99527e-09 -1.36355e-10 1.78426e-08 5.44124e-10 3.1828e-09)
(-9.38534e-09 7.19146e-09 -1.14596e-09 1.57269e-08 1.86275e-09 7.06938e-09)
(-4.30444e-09 2.75515e-09 -1.86558e-09 1.29069e-08 -5.38281e-10 1.04495e-08)
(-2.96747e-09 1.36223e-09 3.4557e-10 1.89198e-09 7.07211e-10 9.88259e-09)
(-9.30637e-09 8.66144e-09 -1.00303e-09 5.77366e-09 2.04915e-09 1.17848e-08)
(-8.93839e-09 8.62705e-09 -3.04788e-10 7.26617e-09 2.28573e-09 8.76757e-09)
(-3.78683e-09 2.50117e-09 -1.31346e-09 1.43445e-08 2.63201e-10 8.51014e-09)
(-9.29439e-09 7.68525e-09 -2.198e-09 1.39649e-08 1.11533e-09 9.51672e-09)
(-9.27854e-09 7.001e-09 -1.2465e-09 1.72267e-08 1.58362e-09 5.41824e-09)
(-2.59715e-09 1.53109e-09 3.95397e-10 2.34881e-09 8.17989e-10 8.51799e-09)
(-8.02076e-09 8.29447e-09 2.87647e-10 9.73028e-09 1.6482e-09 4.82246e-09)
(-2.86613e-09 2.18018e-09 -3.92514e-10 1.65724e-08 7.35327e-10 5.27235e-09)
(-9.07549e-09 6.80362e-09 -2.29199e-10 1.82171e-08 1.66838e-09 4.13379e-09)
(-8.49613e-09 8.36569e-09 -2.81832e-10 8.90831e-09 1.89857e-09 6.46531e-09)
(-3.33846e-09 2.3062e-09 -7.51731e-10 1.5654e-08 6.29273e-10 6.72445e-09)
(-7.91828e-09 8.94841e-09 -5.88054e-10 7.65432e-09 1.31274e-10 -2.41974e-10)
(-1.60811e-09 7.09096e-09 -3.84715e-10 5.69e-09 7.00769e-11 -1.78064e-10)
(-4.84987e-09 2.05261e-08 -9.68787e-11 8.8732e-09 3.97715e-11 -6.35829e-11)
(-1.6328e-09 7.17631e-09 3.62462e-11 5.56749e-09 -4.76048e-11 -2.49363e-10)
(-7.43252e-09 8.45745e-09 -8.12848e-10 8.04581e-09 6.90438e-11 -1.3281e-10)
(-7.78759e-09 8.81887e-09 1.11805e-10 7.78695e-09 1.12414e-10 -2.02922e-10)
(-4.94387e-09 2.07847e-08 -2.84013e-11 8.81364e-09 2.94095e-10 -8.39429e-11)
(-1.72278e-09 7.26153e-09 -2.15658e-10 5.4768e-09 1.69302e-10 -3.44637e-10)
(1.07802e-08 -1.78248e-09 -6.22696e-10 1.95442e-08 -2.69866e-10 -4.28323e-10)
(1.00233e-08 -1.96026e-09 -5.31635e-10 2.54013e-08 -3.66132e-10 -2.47153e-10)
(8.36903e-09 6.25689e-11 -5.02048e-10 2.30323e-08 -4.18402e-10 -2.26567e-10)
(8.26524e-09 3.27282e-10 -5.42406e-10 2.34176e-08 -1.02035e-10 -3.87924e-10)
(1.01248e-08 -1.81005e-09 -4.69233e-10 2.56764e-08 -1.12107e-10 -2.77224e-10)
(8.21846e-09 4.3024e-10 -5.67954e-10 2.34741e-08 -2.18688e-10 -4.21888e-10)
(1.10076e-08 -1.98202e-09 -5.17659e-10 1.93646e-08 -3.97214e-10 -2.26332e-10)
(1.08873e-08 -1.85217e-09 -3.12152e-10 1.9458e-08 1.0024e-10 -3.37473e-10)
(-7.06514e-09 8.10661e-09 -3.52532e-10 7.98373e-09 -1.51096e-10 9.92993e-11)
(-6.93642e-09 7.99545e-09 3.64218e-10 8.18662e-09 -2.15513e-10 7.19544e-12)
(-1.42032e-09 6.87041e-09 1.20203e-11 5.86655e-09 -1.6266e-10 -1.05561e-10)
(-4.55102e-09 1.95078e-08 -5.83439e-11 9.21507e-09 1.60816e-11 -5.07716e-11)
(-1.41727e-09 6.80796e-09 -2.92272e-10 5.87196e-09 -4.97074e-11 -4.64884e-11)
(-7.17146e-09 8.24415e-09 3.78311e-12 8.20573e-09 7.45395e-12 -8.65804e-11)
(-6.93728e-09 7.99091e-09 -4.73916e-10 8.22564e-09 -1.62504e-10 -1.87421e-11)
(-1.2953e-09 6.70141e-09 -2.12627e-10 5.72585e-09 -6.17825e-11 6.28622e-12)
(-4.50848e-09 1.93731e-08 -4.40859e-11 9.12744e-09 -2.29244e-10 -2.26923e-11)
(-1.28404e-09 6.69606e-09 1.5805e-10 5.83687e-09 -2.52202e-10 -2.36735e-11)
(1.08996e-08 -1.94781e-09 -2.28954e-10 1.91872e-08 -1.82433e-10 -1.41825e-10)
(1.09289e-08 -1.94262e-09 3.51116e-11 1.91504e-08 1.28184e-10 -1.78408e-10)
(9.83103e-09 -2.20322e-09 -2.1206e-10 2.44529e-08 -2.3047e-11 -2.46411e-10)
(8.37816e-09 2.95553e-11 -4.05157e-10 2.29094e-08 -1.74553e-10 -2.36388e-10)
(8.37753e-09 3.15928e-11 -1.57501e-10 2.26991e-08 -1.65147e-10 -1.62423e-10)
(8.30692e-09 1.08201e-10 -8.29428e-11 2.2863e-08 -3.60992e-11 -1.52284e-10)
(9.85267e-09 -2.16165e-09 -1.28154e-10 2.45275e-08 1.16209e-10 -2.22075e-10)
(8.35498e-09 5.44138e-11 -8.50907e-11 2.27221e-08 1.00844e-10 -1.58419e-10)
(1.10314e-08 -1.99012e-09 -1.77609e-10 1.92746e-08 -5.05186e-12 -2.25868e-10)
(1.0973e-08 -1.9501e-09 -2.72214e-10 1.91124e-08 -2.84618e-10 -1.72816e-10)
(-8.1259e-09 7.42505e-09 -4.71606e-10 2.35489e-08 -2.34528e-10 -3.41396e-11)
(-2.67681e-10 2.26035e-09 -5.21793e-11 2.19275e-08 4.43126e-12 -7.54782e-11)
(1.90906e-09 1.79018e-09 -1.20607e-10 7.53936e-09 -3.93619e-11 -7.28974e-11)
(-6.53831e-09 8.85275e-09 2.38439e-10 1.41584e-08 -4.59362e-11 1.16631e-11)
(-8.1127e-09 7.44689e-09 3.19902e-10 2.35468e-08 1.74969e-10 -4.17378e-11)
(-2.84115e-10 2.24943e-09 -1.14295e-10 2.1934e-08 -4.95131e-11 -6.21865e-11)
(-6.53432e-09 8.82291e-09 -3.76905e-10 1.41635e-08 -7.39448e-11 1.07905e-11)
(-8.08747e-09 7.36004e-09 1.93077e-10 2.35253e-08 1.41362e-10 -4.91295e-11)
(1.99208e-09 1.71743e-09 -9.60522e-11 7.61637e-09 -2.00761e-11 -4.12294e-11)
(-2.10578e-10 2.13292e-09 -1.4343e-10 2.18575e-08 -1.04859e-10 -4.88666e-11)
(-6.41099e-09 8.67152e-09 -4.01364e-10 1.41692e-08 -1.09095e-10 -5.51317e-12)
(-2.49177e-10 2.19509e-09 -1.68587e-10 2.19036e-08 -4.16195e-11 -6.1657e-11)
(-6.45496e-09 8.74236e-09 1.18343e-10 1.41688e-08 -2.01519e-11 -1.19829e-11)
(-8.02903e-09 7.27645e-09 -5.15353e-10 2.34879e-08 -2.86638e-10 -4.66416e-11)
(1.0888e-08 -1.9547e-09 6.95496e-11 1.92083e-08 1.87058e-10 -1.16905e-10)
(1.08672e-08 -1.96445e-09 -2.56845e-10 1.92278e-08 -2.29509e-10 -8.20124e-11)
(9.82901e-09 -2.1179e-09 -1.29343e-10 2.46968e-08 -8.0938e-11 -8.44156e-11)
(8.27556e-09 2.25222e-11 -1.32269e-10 2.27521e-08 -1.97165e-10 -4.90311e-11)
(8.2825e-09 7.37572e-11 -1.18105e-10 2.28605e-08 3.45727e-11 -8.3502e-11)
(8.30053e-09 1.09005e-10 -4.36278e-11 2.28975e-08 1.44153e-10 -1.33487e-10)
(9.86704e-09 -2.09704e-09 -1.19073e-10 2.47893e-08 -3.38951e-11 -1.05971e-10)
(8.28056e-09 9.0516e-11 -1.50675e-10 2.29046e-08 -1.53092e-10 -8.96027e-11)
(1.08733e-08 -1.99852e-09 -2.32433e-10 1.91309e-08 -2.59374e-10 -4.3508e-11)
(1.08793e-08 -1.97366e-09 3.09679e-11 1.91731e-08 1.48359e-10 -6.67814e-11)
(-7.12305e-09 8.15696e-09 3.9688e-10 7.92854e-09 -1.55012e-10 1.00571e-10)
(-7.11009e-09 8.10823e-09 -4.96533e-10 7.91495e-09 -3.63867e-11 9.95178e-11)
(-1.22361e-09 6.60292e-09 -2.59942e-10 5.64012e-09 -2.44358e-11 1.46759e-11)
(-4.43194e-09 1.9106e-08 -4.4684e-11 8.83134e-09 -2.07759e-10 1.14865e-11)
(-1.25111e-09 6.64068e-09 1.11849e-10 5.63196e-09 -1.83355e-10 1.74274e-11)
(-6.98865e-09 7.98598e-09 -5.01043e-10 7.95173e-09 -6.19261e-11 1.04273e-10)
(-7.06124e-09 8.06454e-09 2.6708e-10 7.94598e-09 -6.65735e-11 9.70905e-11)
(-1.26177e-09 6.68093e-09 1.54886e-10 5.65487e-09 -2.0645e-10 6.61427e-12)
(-4.45891e-09 1.92061e-08 -2.67714e-11 8.83482e-09 -2.14023e-11 1.71667e-11)
(-1.27124e-09 6.68087e-09 -2.54963e-10 5.61641e-09 -9.77518e-12 1.26991e-11)
(-7.93059e-09 7.16553e-09 3.06978e-10 2.33283e-08 1.12054e-10 -2.91497e-11)
(2.08494e-09 1.66995e-09 -2.01134e-11 7.58839e-09 -5.90632e-11 9.61999e-13)
(-2.1191e-10 2.1099e-09 -3.02466e-11 2.16773e-08 -5.24391e-11 -2.17525e-11)
(-6.32388e-09 8.54276e-09 -2.76249e-10 1.40604e-08 -1.19691e-10 2.05863e-11)
(-7.95993e-09 7.1667e-09 -3.80282e-10 2.33123e-08 -2.71265e-10 -7.22395e-12)
(-1.79676e-10 2.11381e-09 -4.93461e-11 2.16695e-08 -3.75409e-11 -2.3701e-11)
(-6.26037e-09 8.51289e-09 2.29983e-10 1.40844e-08 -6.90158e-11 -4.56475e-12)
(-7.92628e-09 7.17563e-09 -4.38851e-10 2.33754e-08 -2.95899e-10 -4.21935e-11)
(2.1255e-09 1.64182e-09 -5.74744e-11 7.63112e-09 -7.4719e-11 1.11322e-11)
(-1.76707e-10 2.10462e-09 -1.36291e-10 2.17776e-08 -8.38305e-11 -3.99479e-11)
(-6.31778e-09 8.58376e-09 1.12215e-10 1.41501e-08 -4.9006e-11 -1.04528e-11)
(-7.97129e-09 7.21414e-09 2.06959e-10 2.34324e-08 9.67482e-11 -4.54833e-11)
(-1.62197e-10 2.10514e-09 -7.16963e-11 2.17043e-08 -9.88495e-11 -3.40688e-11)
(-6.25345e-09 8.51385e-09 -3.49815e-10 1.41316e-08 -1.23443e-10 -2.08708e-11)
(-6.90912e-09 7.89175e-09 3.34385e-10 7.85686e-09 -9.90285e-11 1.20114e-10)
(-6.85845e-09 7.81966e-09 -4.51446e-10 7.86379e-09 -5.51464e-11 9.69799e-11)
(-1.13526e-09 6.41833e-09 -2.28163e-10 5.53178e-09 -2.65283e-11 1.36268e-11)
(-4.29706e-09 1.85967e-08 -2.84707e-11 8.66401e-09 -2.15028e-10 6.68412e-12)
(-1.15683e-09 6.44147e-09 1.38985e-10 5.54765e-09 -1.84109e-10 1.93933e-11)
(-6.85053e-09 7.79885e-09 -4.35469e-10 7.8241e-09 -7.75883e-11 1.09441e-10)
(-6.84307e-09 7.80467e-09 3.12213e-10 7.86884e-09 -8.91174e-11 9.44489e-11)
(-1.14576e-09 6.46694e-09 1.37383e-10 5.56682e-09 -1.77473e-10 1.91545e-11)
(-4.30545e-09 1.8645e-08 -1.95685e-11 8.67908e-09 -2.31453e-11 9.44152e-12)
(-1.1564e-09 6.46189e-09 -2.40735e-10 5.55181e-09 -8.51649e-12 1.96235e-11)
(1.07709e-08 -1.98919e-09 9.66298e-11 1.89839e-08 1.67537e-10 -3.86394e-11)
(1.07361e-08 -1.97941e-09 -1.93096e-10 1.89557e-08 -2.24627e-10 -3.24526e-11)
(9.64683e-09 -2.12538e-09 -5.80834e-11 2.43231e-08 -3.95638e-11 -3.47118e-11)
(8.13845e-09 1.13331e-11 -7.51386e-11 2.24728e-08 -1.54138e-10 -2.70475e-11)
(8.16223e-09 3.03115e-11 -4.66671e-11 2.25234e-08 5.44222e-11 -3.12638e-11)
(8.18864e-09 3.76277e-11 -2.99023e-11 2.2604e-08 8.32763e-11 -4.24046e-11)
(9.67174e-09 -2.12333e-09 -5.28904e-11 2.4379e-08 -3.76663e-11 -3.79611e-11)
(8.1687e-09 3.31484e-11 -8.00071e-11 2.25579e-08 -1.48202e-10 -2.72156e-11)
(1.07122e-08 -1.99473e-09 -1.88747e-10 1.88905e-08 -2.29298e-10 -2.8515e-11)
(1.07321e-08 -1.98094e-09 8.68408e-11 1.89177e-08 1.54501e-10 -3.4107e-11)
(1.0774e-08 -1.98478e-09 -1.9315e-10 1.89989e-08 -2.0199e-10 -4.20602e-11)
(1.07889e-08 -1.9697e-09 9.4307e-11 1.90003e-08 1.60072e-10 -4.93197e-11)
(8.26472e-09 2.16419e-11 -8.30345e-11 2.2701e-08 1.02959e-11 -5.4613e-11)
(9.72722e-09 -2.14573e-09 -6.24991e-11 2.44169e-08 -2.73147e-11 -6.53693e-11)
(8.23409e-09 3.16701e-11 -6.99628e-11 2.26109e-08 -1.44123e-10 -3.13682e-11)
(1.08626e-08 -1.99687e-09 6.52488e-11 1.90851e-08 1.19597e-10 -5.21259e-11)
(1.08049e-08 -1.9705e-09 -1.88607e-10 1.90133e-08 -2.34162e-10 -4.37845e-11)
(8.19404e-09 3.9236e-11 -6.77243e-11 2.26145e-08 -1.06838e-10 -4.02208e-11)
(9.71398e-09 -2.13547e-09 -5.15723e-11 2.44065e-08 1.16809e-11 -5.81872e-11)
(8.22173e-09 3.78224e-11 -2.98592e-11 2.25969e-08 8.11045e-11 -3.5586e-11)
(-6.89667e-09 7.88089e-09 -4.0044e-10 7.87236e-09 -9.12409e-11 1.22928e-10)
(-6.835e-09 7.82944e-09 3.46827e-10 7.96087e-09 -1.28199e-10 9.38276e-11)
(-1.17909e-09 6.54073e-09 1.05592e-10 5.66448e-09 -1.83004e-10 1.89166e-11)
(-4.34123e-09 1.88001e-08 -2.66554e-11 8.83564e-09 -2.82286e-11 2.14772e-12)
(-1.18832e-09 6.52477e-09 -2.48082e-10 5.65158e-09 -2.53376e-11 2.69194e-11)
(-6.93064e-09 7.93811e-09 2.54455e-10 7.97798e-09 -8.0948e-11 1.08304e-10)
(-6.83227e-09 7.82613e-09 -4.36337e-10 7.97666e-09 -9.10332e-11 9.2751e-11)
(-1.14874e-09 6.48065e-09 -2.14979e-10 5.59013e-09 -3.27139e-11 2.2554e-11)
(-4.33207e-09 1.87497e-08 -2.74243e-11 8.79494e-09 -2.26925e-10 6.05173e-12)
(-1.16373e-09 6.4926e-09 1.54185e-10 5.63115e-09 -2.03129e-10 2.57205e-11)
(-6.82319e-09 7.73748e-09 -4.13268e-10 7.73529e-09 -8.88721e-11 1.08819e-10)
(-6.7788e-09 7.70699e-09 3.31076e-10 7.80478e-09 -1.11267e-10 8.77096e-11)
(-1.13142e-09 6.39411e-09 1.25291e-10 5.52408e-09 -1.77408e-10 1.42885e-11)
(-4.26374e-09 1.84606e-08 -2.06062e-11 8.60623e-09 -3.29002e-11 4.35597e-12)
(-1.14162e-09 6.38564e-09 -2.38184e-10 5.50755e-09 -1.90591e-11 1.75369e-11)
(-6.83813e-09 7.78763e-09 3.00567e-10 7.82248e-09 -9.08137e-11 1.08947e-10)
(-6.77614e-09 7.70582e-09 -4.32781e-10 7.8156e-09 -7.64782e-11 8.93476e-11)
(-1.12551e-09 6.35363e-09 -2.19096e-10 5.45971e-09 -3.52575e-11 1.0847e-11)
(-4.26318e-09 1.84272e-08 -2.58412e-11 8.57661e-09 -2.27499e-10 4.56302e-12)
(-1.14452e-09 6.37025e-09 1.46959e-10 5.48895e-09 -1.94821e-10 1.69842e-11)
(1.0613e-08 -1.98899e-09 -1.88063e-10 1.87553e-08 -2.10992e-10 -3.448e-11)
(1.06322e-08 -1.97263e-09 9.68148e-11 1.87692e-08 1.59474e-10 -3.90441e-11)