/*--------------------------------*- C++ -*----------------------------------*\
| =========                 |                                                 |
| \\      /  F ield         | OpenFOAM: The Open Source CFD Toolbox           |
|  \\    /   O peration     | Version:  2012                                  |
|   \\  /    A nd           | Website:  www.openfoam.com                      |
|    \\/     M anipulation  |                                                 |
\*---------------------------------------------------------------------------*/
FoamFile
{
    version     2.0;
    format      ascii;
    class       pointVectorField;
    location    "0.106/solid";
    object      pointD;
}
// * * * * * * * * * * * * * * * * * * * * * * * * * * * * * * * * * * * * * //

dimensions      [0 1 0 0 0 0 0];


internalField   nonuniform List<vector> 
5103
(
(2.31903e-11 9.28901e-12 -8.03628e-13)
(2.02866e-11 9.51914e-12 -1.13445e-12)
(1.88129e-11 8.8549e-12 -2.27572e-12)
(1.29654e-11 1.09708e-11 -5.67431e-12)
(2.10516e-11 9.68074e-12 -9.90906e-13)
(1.96398e-11 9.23477e-12 -1.48464e-12)
(1.7148e-11 8.49895e-12 -3.13632e-12)
(2.72633e-11 9.73226e-12 5.51741e-12)
(3.95969e-11 -3.52794e-11 1.70722e-12)
(2.54785e-10 1.09147e-09 4.26827e-12)
(2.18345e-11 9.78094e-12 -3.12657e-13)
(2.06768e-11 9.66183e-12 -8.83544e-13)
(3.86973e-11 -3.34444e-11 -2.10183e-13)
(2.06124e-10 1.06653e-09 -4.78876e-12)
(1.99978e-11 9.3986e-12 -1.20666e-12)
(1.92642e-11 9.0519e-12 -1.8062e-12)
(3.7486e-11 -3.25358e-11 -5.73967e-13)
(1.85607e-10 1.02726e-09 -6.41263e-12)
(1.82102e-11 8.65622e-12 -2.82152e-12)
(1.5638e-11 8.61771e-12 -3.06512e-12)
(2.99682e-11 -2.73063e-11 1.29702e-12)
(3.34307e-12 5.18786e-12 -1.0991e-11)
(2.19171e-10 1.07928e-09 -2.56189e-12)
(3.9071e-11 -3.39614e-11 8.89979e-14)
(1.97049e-10 1.05095e-09 -6.28735e-12)
(3.82054e-11 -3.30504e-11 -3.65256e-13)
(3.59623e-11 -3.15287e-11 -6.94915e-13)
(2.32765e-10 1.08673e-09 4.2982e-12)
(2.01677e-10 1.05948e-09 -5.25387e-12)
(2.1173e-10 1.07385e-09 -2.92027e-12)
(1.91993e-10 1.04065e-09 -6.77151e-12)
(4.13661e-11 -3.70616e-11 1.13143e-12)
(3.94349e-11 -3.4524e-11 -4.80986e-13)
(3.89177e-11 -3.37135e-11 -3.11412e-13)
(3.84642e-11 -3.32662e-11 -3.23149e-13)
(3.79037e-11 -3.28335e-11 -4.67354e-13)
(3.6906e-11 -3.21277e-11 -6.86622e-13)
(3.42357e-11 -3.05163e-11 -3.52332e-13)
(1.19841e-11 -9.94787e-12 5.07086e-12)
(4.06866e-10 4.65554e-10 1.17786e-11)
(3.73702e-10 4.62942e-10 1.40109e-12)
(3.50923e-10 4.55637e-10 -3.63059e-12)
(3.46449e-10 4.52214e-10 -4.32867e-12)
(3.34428e-10 4.3945e-10 -6.28394e-12)
(3.2876e-10 4.32634e-10 -5.98381e-12)
(3.09107e-10 3.95638e-10 4.98374e-11)
(3.09821e-10 3.50441e-10 1.53909e-10)
(3.64845e-10 4.61343e-10 -1.48642e-12)
(3.55195e-10 4.58207e-10 -3.08613e-12)
(3.42902e-10 4.48872e-10 -4.88587e-12)
(3.38892e-10 4.4462e-10 -5.7049e-12)
(3.21633e-10 4.23616e-10 -2.22898e-12)
(3.14084e-10 4.11952e-10 1.13684e-11)
(3.81793e-10 1.33382e-10 4.78661e-10)
(2.56727e-11 1.01037e-11 1.0575e-12)
(9.02836e-11 4.33235e-12 1.74974e-12)
(2.10685e-10 5.25535e-10 4.22682e-12)
(2.19041e-11 9.24132e-12 -5.41219e-13)
(2.05013e-11 9.63178e-12 -1.02057e-12)
(8.65664e-11 4.93338e-12 -8.35076e-13)
(1.7545e-10 5.12065e-10 -4.13039e-12)
(2.01193e-11 9.435e-12 -1.15832e-12)
(1.90368e-11 8.9535e-12 -2.02289e-12)
(8.36152e-11 4.64659e-12 -1.82094e-12)
(1.60427e-10 4.92077e-10 -6.71808e-12)
(1.85427e-11 8.75023e-12 -2.54667e-12)
(1.46685e-11 9.1096e-12 -3.52885e-12)
(7.11149e-11 9.06659e-12 -2.17884e-12)
(1.30738e-10 4.42656e-10 6.70354e-11)
(8.97537e-12 1.58623e-11 -1.53528e-11)
(2.15759e-11 9.90375e-12 -7.21241e-13)
(2.07544e-11 9.59541e-12 -9.17325e-13)
(1.85003e-10 5.18683e-10 -2.25086e-12)
(8.77961e-11 4.97198e-12 -4.17196e-13)
(1.98198e-11 9.32894e-12 -1.33252e-12)
(1.94481e-11 9.13557e-12 -1.63214e-12)
(1.68748e-10 5.04059e-10 -5.56058e-12)
(8.53382e-11 4.79804e-12 -1.18061e-12)
(1.77312e-11 8.55929e-12 -3.03194e-12)
(1.64314e-11 8.48208e-12 -3.10303e-12)
(1.45382e-10 4.72286e-10 1.47096e-12)
(8.052e-11 4.72612e-12 -2.41476e-12)
(6.01686e-10 1.69249e-10 1.22341e-11)
(2.2243e-10 9.84608e-10 1.89134e-13)
(5.51176e-10 1.73008e-10 -3.49593e-12)
(2.02451e-10 9.73753e-10 -3.81717e-12)
(5.32511e-10 1.71119e-10 -3.68892e-12)
(1.93644e-10 9.60847e-10 -5.30487e-12)
(5.22526e-10 1.68107e-10 -4.12909e-12)
(1.86033e-10 9.44014e-10 -6.5917e-12)
(5.1334e-10 1.63634e-10 -5.22334e-12)
(1.75549e-10 9.15972e-10 -2.42607e-12)
(5.00849e-10 1.55891e-10 -3.73813e-12)
(1.64372e-10 8.62834e-10 5.13172e-11)
(4.88591e-10 1.41038e-10 2.79911e-11)
(2.25769e-10 5.92802e-10 4.12886e-10)
(4.89988e-10 6.20001e-11 3.65322e-10)
(2.37684e-10 5.29135e-10 2.15428e-11)
(9.48036e-11 2.43717e-12 5.74628e-12)
(5.7232e-10 1.7487e-10 5.81136e-12)
(4.0654e-11 -3.68137e-11 1.48206e-12)
(3.9315e-11 -3.44627e-11 5.90608e-14)
(2.40823e-10 1.07884e-09 6.51626e-12)
(2.77449e-10 1.12203e-09 1.07684e-11)
(2.43886e-10 9.93006e-10 4.95926e-12)
(1.94188e-10 5.21523e-10 7.53725e-13)
(8.89517e-11 4.59828e-12 -2.03747e-13)
(1.7948e-10 5.15512e-10 -3.12704e-12)
(8.72811e-11 4.91038e-12 -7.04514e-13)
(5.26773e-10 1.70175e-10 -3.53436e-12)
(3.87801e-11 -3.35517e-11 -1.89542e-13)
(3.85323e-11 -3.33006e-11 -3.00792e-13)
(2.03937e-10 1.06241e-09 -4.89786e-12)
(2.08837e-10 1.07111e-09 -4.20116e-12)
(1.97207e-10 9.67686e-10 -4.84918e-12)
(1.72139e-10 5.08336e-10 -4.70069e-12)
(8.60329e-11 4.8479e-12 -9.65441e-13)
(1.65025e-10 4.98791e-10 -6.32182e-12)
(8.45942e-11 4.7059e-12 -1.45543e-12)
(5.07695e-10 1.60387e-10 -5.38192e-12)
(3.7669e-11 -3.26519e-11 -4.96257e-13)
(3.71774e-11 -3.23061e-11 -6.09939e-13)
(1.81665e-10 1.01878e-09 -5.30836e-12)
(1.89072e-10 1.03432e-09 -6.83406e-12)
(1.81374e-10 9.32149e-10 -6.16976e-12)
(1.54164e-10 4.83254e-10 -5.38209e-12)
(8.23205e-11 4.62103e-12 -2.22331e-12)
(1.35482e-10 4.60004e-10 2.17686e-11)
(7.78728e-11 5.27564e-12 -2.12192e-12)
(4.90496e-10 1.25328e-10 1.01909e-10)
(3.26928e-11 -2.9505e-11 3.36794e-13)
(2.57531e-11 -2.20482e-11 4.04039e-12)
(1.70434e-10 8.0478e-10 1.60888e-10)
(1.5947e-10 3.55418e-10 1.71518e-10)
(2.73723e-11 8.18631e-12 -4.23262e-12)
(2.25619e-10 1.08729e-09 -6.72211e-13)
(2.09009e-10 9.80157e-10 -3.22172e-12)
(2.14931e-10 1.07438e-09 -2.30757e-12)
(5.39558e-10 1.73141e-10 -2.34373e-12)
(3.92715e-11 -3.43123e-11 3.02442e-16)
(3.89274e-11 -3.37221e-11 -2.37309e-13)
(1.99441e-10 1.0555e-09 -5.85539e-12)
(1.898e-10 9.53382e-10 -6.13034e-12)
(1.94702e-10 1.04581e-09 -6.57759e-12)
(5.17959e-10 1.66304e-10 -4.59592e-12)
(3.83005e-11 -3.31172e-11 -3.10881e-13)
(3.80181e-11 -3.29019e-11 -4.15261e-13)
(1.68715e-10 8.93951e-10 1.11184e-11)
(4.93338e-10 1.49749e-10 3.80935e-12)
(3.6453e-11 -3.18164e-11 -6.62734e-13)
(3.52164e-11 -3.1076e-11 -4.94416e-13)
(1.75704e-12 1.0719e-11 3.72082e-11)
(2.00465e-10 5.20591e-10 2.16549e-12)
(1.73737e-10 5.10065e-10 -4.40908e-12)
(1.5757e-10 4.87925e-10 -6.42266e-12)
(1.37082e-10 4.18063e-10 1.05148e-10)
(2.24513e-10 5.3367e-10 1.02949e-11)
(3.87603e-10 4.65248e-10 6.27608e-12)
(4.14608e-10 4.61774e-10 2.0049e-11)
(5.9996e-10 1.63873e-10 9.16052e-12)
(2.71216e-10 1.00085e-09 1.22702e-11)
(5.52949e-10 1.78639e-10 -1.29674e-12)
(2.28523e-10 9.83882e-10 2.03073e-12)
(3.69116e-10 4.61804e-10 -8.28252e-13)
(1.77385e-10 5.14106e-10 -3.67307e-12)
(3.48608e-10 4.53987e-10 -3.99395e-12)
(3.53253e-10 4.56837e-10 -3.42726e-12)
(5.29393e-10 1.70953e-10 -3.3444e-12)
(1.99815e-10 9.7115e-10 -4.39533e-12)
(5.23517e-10 1.69881e-10 -3.92762e-12)
(1.95461e-10 9.63532e-10 -5.05776e-12)
(3.44921e-10 4.5054e-10 -4.57811e-12)
(1.62863e-10 4.95654e-10 -6.61523e-12)
(3.31912e-10 4.36268e-10 -6.36555e-12)
(3.3695e-10 4.42155e-10 -6.04517e-12)
(5.09931e-10 1.627e-10 -5.31566e-12)
(1.83911e-10 9.38204e-10 -6.61215e-12)
(5.03694e-10 1.58875e-10 -4.84937e-12)
(1.78738e-10 9.24312e-10 -5.0104e-12)
(3.25527e-10 4.28402e-10 -4.84133e-12)
(1.31706e-10 4.53026e-10 4.04829e-11)
(3.08023e-10 3.81389e-10 8.8197e-11)
(3.11197e-10 4.04772e-10 2.58767e-11)
(4.88618e-10 1.34945e-10 5.54188e-11)
(1.65461e-10 8.39857e-10 9.29088e-11)
(4.9362e-10 1.05276e-10 1.91798e-10)
(1.84719e-10 7.35719e-10 2.65169e-10)
(3.18121e-10 2.77106e-10 2.75154e-10)
(1.89282e-10 5.21348e-10 -1.0189e-12)
(1.70469e-10 5.06352e-10 -5.11454e-12)
(1.50067e-10 4.7797e-10 -3.03486e-12)
(2.16015e-10 9.84387e-10 -1.88971e-12)
(5.47127e-10 1.71883e-10 -2.24789e-12)
(3.59314e-10 4.59971e-10 -2.28235e-12)
(2.05015e-10 9.75366e-10 -3.55843e-12)
(5.3348e-10 1.73491e-10 -3.47623e-12)
(1.81808e-10 5.16504e-10 -2.74186e-12)
(1.91791e-10 9.57165e-10 -5.73827e-12)
(5.19621e-10 1.67808e-10 -4.23619e-12)
(3.41047e-10 4.46852e-10 -5.30983e-12)
(1.88074e-10 9.48468e-10 -6.4271e-12)
(5.14898e-10 1.65647e-10 -4.91853e-12)
(1.66948e-10 5.01508e-10 -5.96272e-12)
(1.72254e-10 9.05424e-10 2.36091e-12)
(4.96361e-10 1.53591e-10 -9.22585e-13)
(3.17888e-10 4.1813e-10 2.62942e-12)
(1.65984e-10 8.7961e-10 2.59722e-11)
(4.89756e-10 1.46217e-10 1.304e-11)
(1.40335e-10 4.66214e-10 9.25947e-12)
(3.57119e-10 4.075e-10 5.88509e-10)
(5.2844e-10 -8.73726e-11 6.68124e-10)
(9.44653e-11 3.46877e-12 2.94131e-12)
(8.82999e-11 4.52413e-12 3.62899e-13)
(8.69118e-11 5.01897e-12 -7.37471e-13)
(8.61711e-11 4.92358e-12 -9.16297e-13)
(8.40426e-11 4.73321e-12 -1.61342e-12)
(8.29248e-11 4.67808e-12 -2.01367e-12)
(7.56044e-11 6.20278e-12 -1.88155e-12)
(6.28605e-11 1.644e-11 -6.68843e-12)
(8.87103e-11 4.9313e-12 -2.75284e-13)
(8.72288e-11 4.95754e-12 -6.31675e-13)
(8.56132e-11 4.89758e-12 -1.04456e-12)
(8.4884e-11 4.79886e-12 -1.312e-12)
(8.13981e-11 4.69924e-12 -2.33565e-12)
(7.92781e-11 4.93721e-12 -2.27516e-12)
(5.71378e-12 1.07522e-11 2.40623e-11)
(4.94819e-10 5.53884e-10 1.44289e-11)
(4.72061e-10 5.60979e-10 9.79228e-12)
(4.34447e-10 5.59041e-10 -1.76357e-12)
(4.43434e-10 5.6338e-10 2.90572e-12)
(4.11986e-10 5.50833e-10 -4.1136e-12)
(4.0873e-10 5.49369e-10 -4.48475e-12)
(4.03921e-10 5.44931e-10 -5.18932e-12)
(4.05853e-10 5.47203e-10 -4.7242e-12)
(3.92811e-10 5.3195e-10 -6.58381e-12)
(3.8998e-10 5.28326e-10 -6.78502e-12)
(3.83682e-10 5.1899e-10 -5.14181e-12)
(3.87097e-10 5.23996e-10 -6.21828e-12)
(3.73363e-10 4.74979e-10 5.60624e-11)
(3.76337e-10 4.56741e-10 1.02776e-10)
(4.03661e-10 3.50582e-10 3.19297e-10)
(3.86444e-10 4.23038e-10 1.82015e-10)
(4.3801e-10 8.17408e-11 1.19937e-12)
(4.49884e-10 8.07963e-11 4.18052e-12)
(1.50124e-10 1.37538e-09 1.40407e-11)
(1.66871e-10 1.38801e-09 1.21951e-11)
(4.22599e-10 8.3965e-11 -1.17938e-12)
(4.16122e-10 8.22229e-11 -2.41207e-12)
(1.37209e-10 1.34979e-09 8.63394e-12)
(1.25528e-10 1.3499e-09 1.98899e-12)
(4.31952e-10 5.56675e-10 -2.27059e-12)
(4.24369e-10 5.56551e-10 -2.6313e-12)
(1.10601e-10 1.34976e-09 1.69456e-13)
(1.164e-10 1.35579e-09 2.54402e-13)
(4.0933e-10 8.00575e-11 -2.18337e-12)
(4.13656e-10 8.02045e-11 -2.342e-12)
(4.13991e-10 5.52479e-10 -4.2741e-12)
(4.17011e-10 5.5495e-10 -3.48354e-12)
(3.99077e-10 7.82142e-11 -2.22398e-12)
(4.01022e-10 7.85174e-11 -2.18757e-12)
(9.77223e-11 1.33175e-09 -2.82232e-12)
(9.99111e-11 1.33674e-09 -2.71579e-12)
(1.06548e-10 1.34118e-09 -9.67029e-13)
(1.02954e-10 1.33839e-09 -2.46593e-12)
(4.04842e-10 8.00659e-11 -2.22887e-12)
(4.02514e-10 7.92758e-11 -2.3209e-12)
(3.97122e-10 7.78427e-11 -2.26663e-12)
(3.95603e-10 7.7272e-11 -2.39807e-12)
(9.59469e-11 1.3261e-09 -3.14595e-12)
(9.41461e-11 1.32193e-09 -3.74247e-12)
(4.02019e-10 5.42931e-10 -5.2362e-12)
(3.9963e-10 5.40763e-10 -5.7875e-12)
(9.06651e-11 1.31263e-09 -4.06624e-12)
(9.23266e-11 1.31797e-09 -3.86632e-12)
(3.92691e-10 7.62466e-11 -2.64e-12)
(3.94249e-10 7.6705e-11 -2.44359e-12)
(3.95144e-10 5.35161e-10 -6.54648e-12)
(3.97385e-10 5.38102e-10 -6.03604e-12)
(3.85804e-10 7.35811e-11 -3.29081e-12)
(3.8784e-10 7.43015e-11 -3.12949e-12)
(8.31787e-11 1.28543e-09 -3.2674e-12)
(8.52936e-11 1.29365e-09 -3.88823e-12)
(8.90144e-11 1.30669e-09 -4.11851e-12)
(8.72549e-11 1.30041e-09 -4.25485e-12)
(3.91111e-10 7.56661e-11 -2.7813e-12)
(3.89502e-10 7.50317e-11 -3.0104e-12)
(3.83671e-10 7.26824e-11 -3.22894e-12)
(3.81168e-10 7.18068e-11 -2.96189e-12)
(8.07017e-11 1.27615e-09 -1.78369e-12)
(7.78304e-11 1.26501e-09 6.72914e-13)
(3.80357e-10 5.13028e-10 -2.27532e-12)
(3.76551e-10 5.06139e-10 2.80634e-12)
(7.0142e-11 1.23751e-09 1.27621e-11)
(7.42463e-11 1.25261e-09 5.21365e-12)
(3.7557e-10 6.98421e-11 -3.1829e-13)
(3.78611e-10 7.07297e-11 -2.07027e-12)
(3.71869e-10 4.87929e-10 2.84453e-11)
(3.73972e-10 4.97801e-10 1.22937e-11)
(3.66452e-10 6.8927e-11 3.77706e-11)
(3.68541e-10 6.78413e-11 1.94566e-11)
(4.91852e-11 1.14038e-09 1.38506e-10)
(5.35281e-11 1.17607e-09 8.14847e-11)
(6.52699e-11 1.22093e-09 2.55656e-11)
(5.98189e-11 1.20016e-09 4.65646e-11)
(3.72904e-10 6.87547e-11 3.08627e-12)
(3.70056e-10 6.83298e-11 9.03472e-12)
(3.65176e-10 7.00026e-11 7.19155e-11)
(3.5437e-10 7.3638e-11 1.41821e-10)
(4.87197e-11 1.08506e-09 2.28619e-10)
(6.42843e-11 9.70246e-10 3.55587e-10)
(4.61296e-10 2.03906e-10 5.45982e-10)
(1.34653e-10 7.8068e-10 4.78907e-10)
(3.27436e-10 6.07684e-11 3.13249e-10)
(1.84479e-10 7.30198e-10 -1.85028e-12)
(4.72724e-10 2.72924e-10 -3.47473e-12)
(1.64923e-10 7.22719e-10 -4.17019e-12)
(4.51513e-10 2.69979e-10 -4.38351e-12)
(1.5692e-10 7.12927e-10 -5.15662e-12)
(4.41212e-10 2.65494e-10 -5.02138e-12)
(1.50662e-10 6.99716e-10 -6.22527e-12)
(4.32426e-10 2.58919e-10 -6.21856e-12)
(1.43123e-10 6.77065e-10 -2.03728e-12)
(4.21566e-10 2.47248e-10 -3.64044e-12)
(1.41211e-10 6.29865e-10 5.22478e-11)
(4.17424e-10 2.22554e-10 4.02863e-11)
(2.33951e-10 3.70124e-10 4.87619e-10)
(5.0448e-10 7.18017e-11 4.68296e-10)
(1.8312e-11 -1.27007e-11 1.62968e-13)
(4.05944e-10 6.5617e-11 4.92334e-12)
(2.19989e-11 -2.97579e-11 1.90043e-12)
(2.2588e-11 -2.86475e-11 1.0301e-12)
(2.98827e-10 1.30541e-09 1.10379e-11)
(2.46634e-10 1.08109e-09 5.34359e-12)
(2.65355e-10 1.10722e-09 5.44225e-12)
(2.65801e-10 1.11262e-09 5.12271e-12)
(1.69933e-11 -1.17747e-11 -5.70196e-14)
(3.77881e-10 6.44756e-11 -2.05528e-12)
(2.20906e-11 -2.72262e-11 -1.88039e-13)
(2.20666e-11 -2.71149e-11 -1.71771e-13)
(2.48855e-10 1.278e-09 -3.24581e-12)
(2.05001e-10 1.0643e-09 -4.88548e-12)
(2.0742e-10 1.06888e-09 -4.56503e-12)
(2.1815e-10 1.08592e-09 -4.87239e-12)
(1.64499e-11 -1.14268e-11 -1.24098e-13)
(3.64755e-10 5.99492e-11 -3.38081e-12)
(2.135e-11 -2.64789e-11 -4.94247e-13)
(2.11801e-11 -2.63499e-11 -4.52313e-13)
(2.27219e-10 1.23116e-09 -3.32288e-12)
(1.83718e-10 1.02322e-09 -6.01398e-12)
(1.87405e-10 1.03091e-09 -6.65333e-12)
(1.99671e-10 1.04668e-09 -6.36573e-12)
(1.47281e-11 -9.99632e-12 2.3166e-13)
(3.40068e-10 4.84634e-11 5.50972e-11)
(1.60237e-11 -2.38077e-11 1.35787e-12)
(1.27181e-11 -2.19323e-11 3.66458e-12)
(1.69819e-10 9.21927e-10 1.46789e-10)
(2.62533e-10 1.29287e-09 -3.13143e-13)
(2.22155e-10 1.08346e-09 -2.05548e-12)
(2.30606e-10 1.09928e-09 -2.86489e-12)
(2.16812e-10 1.07602e-09 -2.50643e-12)
(1.73269e-11 -1.20379e-11 -2.41117e-14)
(3.86022e-10 6.56904e-11 -1.12721e-12)
(2.21557e-11 -2.78266e-11 1.30203e-13)
(2.22892e-11 -2.75554e-11 3.55544e-14)
(2.3928e-10 1.25952e-09 -4.51649e-12)
(1.98249e-10 1.0533e-09 -6.05994e-12)
(2.09804e-10 1.07021e-09 -6.28155e-12)
(1.95894e-10 1.04843e-09 -6.48189e-12)
(1.67296e-11 -1.16264e-11 -8.37246e-14)
(3.71935e-10 6.2689e-11 -2.76459e-12)
(2.18125e-11 -2.68709e-11 -3.33645e-13)
(2.17274e-11 -2.67842e-11 -2.97263e-13)
(1.82259e-10 1.00555e-09 1.05649e-11)
(1.59402e-11 -1.10406e-11 -1.25691e-13)
(3.53622e-10 5.54489e-11 1.36424e-12)
(2.03126e-11 -2.57628e-11 -5.07221e-13)
(1.98108e-11 -2.5512e-11 -3.10362e-13)
(2.43962e-10 1.10566e-09 2.29313e-12)
(2.36521e-10 1.0824e-09 6.20726e-12)
(2.76388e-10 1.30324e-09 3.74773e-12)
(2.29201e-10 1.08882e-09 1.66291e-12)
(2.14089e-10 1.07863e-09 -5.33536e-12)
(2.02824e-10 1.06097e-09 -4.98819e-12)
(2.4413e-10 1.2698e-09 -3.9606e-12)
(2.00565e-10 1.05767e-09 -5.59058e-12)
(1.92172e-10 1.02892e-09 -2.66577e-12)
(1.79341e-10 1.01421e-09 -4.23415e-12)
(2.19678e-10 7.24042e-10 3.40477e-10)
(2.88829e-10 1.1249e-09 2.0241e-11)
(4.95143e-10 2.77344e-10 1.31029e-12)
(2.05207e-10 7.38376e-10 2.80151e-12)
(1.70922e-10 7.28416e-10 -3.65719e-12)
(4.58488e-10 2.73211e-10 -4.06011e-12)
(2.23574e-10 1.09306e-09 -3.40525e-12)
(2.10265e-10 1.07295e-09 -3.61653e-12)
(2.13289e-10 1.07409e-09 -2.40625e-12)
(2.54693e-10 1.28713e-09 -2.13234e-12)
(4.45151e-10 2.68573e-10 -4.59526e-12)
(1.59895e-10 7.18594e-10 -4.66046e-12)
(1.53588e-10 7.07255e-10 -5.77764e-12)
(4.36632e-10 2.62854e-10 -5.62513e-12)
(2.05307e-10 1.0599e-09 -6.75594e-12)
(1.90574e-10 1.03766e-09 -6.876e-12)
(1.93389e-10 1.04331e-09 -6.64427e-12)
(2.33939e-10 1.24724e-09 -4.58578e-12)
(4.27321e-10 2.54099e-10 -6.20123e-12)
(1.47119e-10 6.90271e-10 -5.75507e-12)
(1.39493e-10 6.58316e-10 1.14929e-11)
(4.16321e-10 2.37455e-10 6.9816e-12)
(1.72442e-10 9.74834e-10 4.89463e-11)
(4.35746e-10 1.92999e-10 1.40192e-10)
(1.59147e-10 5.73473e-10 1.69518e-10)
(4.25426e-10 6.21063e-11 8.09691e-12)
(2.23081e-11 -3.06639e-11 9.68847e-13)
(3.93121e-10 6.54328e-11 -2.28768e-12)
(2.25646e-11 -2.82213e-11 -2.45292e-13)
(1.76704e-11 -1.22738e-11 -1.39785e-13)
(2.2175e-11 -2.80879e-11 -1.49876e-13)
(3.81454e-10 6.48343e-11 -2.24038e-12)
(2.21033e-11 -2.73415e-11 -1.63909e-13)
(2.22238e-11 -2.74225e-11 -2.92752e-13)
(1.70984e-11 -1.18974e-11 -7.79034e-14)
(3.74955e-10 6.35111e-11 -2.48049e-12)
(2.19662e-11 -2.70321e-11 -3.21056e-13)
(1.68343e-11 -1.17099e-11 -7.44485e-14)
(2.18762e-11 -2.6959e-11 -2.29777e-13)
(3.68732e-10 6.14392e-11 -3.19681e-12)
(2.15008e-11 -2.65995e-11 -3.71293e-13)
(2.1618e-11 -2.66933e-11 -4.27328e-13)
(1.66079e-11 -1.15367e-11 -1.03426e-13)
(3.59741e-10 5.79642e-11 -2.61553e-12)
(2.09592e-11 -2.61826e-11 -5.60927e-13)
(1.62555e-11 -1.12577e-11 -1.41502e-13)
(2.07005e-11 -2.60045e-11 -4.82232e-13)
(3.47439e-10 5.23743e-11 1.4413e-11)
(1.79075e-11 -2.46967e-11 4.4088e-13)
(1.90326e-11 -2.51407e-11 -9.41509e-14)
(1.54823e-11 -1.07191e-11 -1.27315e-14)
(3.00161e-10 3.65065e-11 2.11286e-10)
(8.41599e-12 -1.70106e-11 8.09054e-12)
(1.44792e-11 -5.86337e-12 2.05959e-12)
(-1.30272e-13 9.17818e-12 8.12267e-12)
(4.03257e-10 4.75409e-10 9.11445e-12)
(4.1853e-10 4.73554e-10 1.52142e-11)
(5.10378e-10 3.53866e-10 1.19022e-11)
(4.19154e-10 7.53442e-10 1.3679e-11)
(3.84565e-10 4.73352e-10 3.72994e-12)
(4.70586e-10 3.59522e-10 3.59218e-13)
(3.76048e-10 7.44909e-10 1.56016e-12)
(3.76185e-10 4.71441e-10 -4.98949e-15)
(3.549e-10 4.64049e-10 -3.87395e-12)
(3.57362e-10 4.65494e-10 -3.51661e-12)
(4.47532e-10 3.51508e-10 -3.42559e-12)
(3.48563e-10 7.34025e-10 -4.39707e-12)
(3.52595e-10 4.62232e-10 -4.1813e-12)
(4.42366e-10 3.48922e-10 -4.16344e-12)
(3.43408e-10 7.28447e-10 -5.20589e-12)
(3.50798e-10 4.60482e-10 -4.53591e-12)
(3.3815e-10 4.46824e-10 -6.46774e-12)
(3.40731e-10 4.49798e-10 -6.21368e-12)
(4.29429e-10 3.38261e-10 -5.83918e-12)
(3.29872e-10 7.08887e-10 -7.25533e-12)
(3.35321e-10 4.43365e-10 -6.29302e-12)
(4.2342e-10 3.32558e-10 -5.44642e-12)
(3.2359e-10 6.98299e-10 -6.43868e-12)
(3.32046e-10 4.39388e-10 -5.6497e-12)
(3.12945e-10 3.9759e-10 6.69614e-11)
(3.14816e-10 4.08909e-10 3.6588e-11)
(4.05871e-10 2.993e-10 5.39192e-11)
(3.04692e-10 6.37287e-10 7.26698e-11)
(3.12708e-10 3.76717e-10 1.16653e-10)
(4.0681e-10 2.5783e-10 1.79218e-10)
(3.14772e-10 5.60919e-10 2.14138e-10)
(3.15118e-10 3.28306e-10 2.05234e-10)
(6.66649e-10 8.70967e-11 1.31696e-12)
(6.7008e-11 1.16664e-09 1.00797e-11)
(6.09804e-10 9.59261e-11 -3.79339e-12)
(3.86575e-11 1.14452e-09 2.88497e-12)
(3.72637e-10 4.70984e-10 -1.20219e-12)
(3.65471e-10 7.43571e-10 -1.75945e-12)
(4.63265e-10 3.5541e-10 -1.5978e-12)
(3.67332e-10 4.70106e-10 -1.89369e-12)
(2.19176e-11 1.14623e-09 -1.30068e-12)
(6.04913e-10 8.93597e-11 -4.69599e-12)
(3.59338e-10 4.66684e-10 -3.363e-12)
(3.62151e-10 4.68298e-10 -2.70617e-12)
(3.53617e-10 7.37662e-10 -3.73801e-12)
(4.5175e-10 3.54104e-10 -3.27485e-12)
(5.84643e-10 8.7769e-11 -4.11982e-12)
(8.77657e-12 1.13055e-09 -3.39639e-12)
(1.40267e-11 1.13524e-09 -2.60671e-12)
(5.887e-10 9.01281e-11 -4.05344e-12)
(5.78058e-10 8.68718e-11 -4.09565e-12)
(5.88165e-12 1.12156e-09 -3.94451e-12)
(3.49045e-10 4.58833e-10 -4.73007e-12)
(3.39351e-10 7.23417e-10 -5.8611e-12)
(4.38604e-10 3.46063e-10 -4.56917e-12)
(3.4704e-10 4.56965e-10 -5.18149e-12)
(3.05589e-12 1.1142e-09 -4.47565e-12)
(5.74092e-10 8.51466e-11 -4.54838e-12)
(3.42956e-10 4.52406e-10 -5.98251e-12)
(3.45023e-10 4.54783e-10 -5.53951e-12)
(3.3485e-10 7.16807e-10 -6.75306e-12)
(4.34199e-10 3.42586e-10 -5.35983e-12)
(5.64201e-10 8.11992e-11 -5.58811e-12)
(-1.99749e-12 1.09203e-09 -4.43015e-12)
(7.01127e-13 1.10402e-09 -4.79067e-12)
(5.69168e-10 8.34522e-11 -5.05815e-12)
(5.58047e-10 7.84301e-11 -5.26743e-12)
(-5.23567e-12 1.0757e-09 -1.84643e-12)
(3.28484e-10 4.34817e-10 -3.79864e-12)
(3.15751e-10 6.84084e-10 -8.40276e-13)
(4.16156e-10 3.24852e-10 -1.53997e-12)
(3.24491e-10 4.29623e-10 -2.32337e-13)
(-9.63772e-12 1.05324e-09 7.06891e-12)
(5.51195e-10 7.4957e-11 -1.68287e-12)
(3.1713e-10 4.17016e-10 1.7759e-11)
(3.20737e-10 4.23724e-10 6.42719e-12)
(3.07848e-10 6.65147e-10 1.83259e-11)
(4.09111e-10 3.14497e-10 1.24606e-11)
(5.5025e-10 6.78969e-11 5.31615e-11)
(-1.56524e-11 9.72013e-10 1.07855e-10)
(-1.43885e-11 1.02191e-09 3.35379e-11)
(5.46193e-10 7.11451e-11 1.18201e-11)
(5.72511e-10 6.35146e-11 1.88185e-10)
(3.15688e-12 8.46762e-10 3.06261e-10)
(3.33111e-10 2.23902e-10 3.65743e-10)
(3.00924e-10 2.08734e-10 3.73885e-10)
(4.42792e-10 2.73224e-10 5.56707e-10)
(4.62453e-10 2.65014e-11 5.82387e-10)
(2.28891e-10 3.91524e-11 3.18942e-10)
(1.80461e-10 4.88977e-10 6.16093e-10)
(6.20196e-10 -6.98106e-11 7.68346e-10)
(3.18158e-12 7.70632e-12 1.43062e-11)
(2.82491e-10 9.97749e-10 1.72102e-11)
(5.31867e-10 2.6207e-10 7.47086e-12)
(2.36093e-10 7.30823e-10 8.8248e-12)
(5.15156e-10 3.53807e-10 1.5346e-11)
(6.12998e-10 1.61053e-10 9.49004e-12)
(2.25265e-10 9.83439e-10 1.26743e-12)
(3.70945e-10 7.43993e-10 -5.07503e-13)
(2.89354e-11 1.14645e-09 -6.15367e-13)
(2.1962e-10 9.85174e-10 -9.74855e-13)
(4.72255e-10 2.81101e-10 -2.42392e-12)
(1.89113e-10 7.34051e-10 -1.55682e-13)
(1.78398e-10 7.29324e-10 -3.02049e-12)
(4.67439e-10 2.71731e-10 -3.65091e-12)
(5.58498e-10 1.74378e-10 -3.09297e-12)
(4.67365e-10 3.56168e-10 -2.37337e-12)
(6.09134e-10 9.08771e-11 -3.35977e-12)
(5.57512e-10 1.69994e-10 -2.79415e-12)
(1.67066e-10 7.24692e-10 -3.93687e-12)
(4.51432e-10 2.73329e-10 -4.36491e-12)
(3.51375e-10 7.35916e-10 -4.00857e-12)
(2.01221e-10 9.72706e-10 -4.16718e-12)
(2.03788e-10 9.74352e-10 -3.58233e-12)
(1.09599e-11 1.13367e-09 -3.3406e-12)
(4.47569e-10 2.69828e-10 -4.39401e-12)
(1.62424e-10 7.20667e-10 -4.42923e-12)
(4.50201e-10 3.52338e-10 -3.61554e-12)
(5.38319e-10 1.69377e-10 -3.30217e-12)
(5.39956e-10 1.70827e-10 -3.89621e-12)
(5.88214e-10 8.79863e-11 -3.80667e-12)
(1.94638e-10 9.62132e-10 -5.0924e-12)
(3.41661e-10 7.2609e-10 -5.45586e-12)
(4.27889e-12 1.1186e-09 -4.32696e-12)
(1.92779e-10 9.59135e-10 -5.57826e-12)
(4.41387e-10 2.6802e-10 -4.80866e-12)
(1.58433e-10 7.15081e-10 -4.8847e-12)
(1.55299e-10 7.09962e-10 -5.4708e-12)
(4.37695e-10 2.65068e-10 -5.2713e-12)
(5.30007e-10 1.67568e-10 -4.26298e-12)
(4.4101e-10 3.47266e-10 -4.3919e-12)
(5.77416e-10 8.53184e-11 -4.22402e-12)
(5.28167e-10 1.66478e-10 -3.96253e-12)
(1.52259e-10 7.03159e-10 -6.04981e-12)
(4.33159e-10 2.61836e-10 -5.93516e-12)
(3.32668e-10 7.13177e-10 -7.06341e-12)
(1.85052e-10 9.41247e-10 -6.69779e-12)
(1.87135e-10 9.46271e-10 -6.45306e-12)
(-7.53732e-13 1.09893e-09 -4.80618e-12)
(4.28657e-10 2.57516e-10 -6.32087e-12)
(1.49042e-10 6.94948e-10 -6.19795e-12)
(4.32349e-10 3.4036e-10 -5.68853e-12)
(5.18619e-10 1.61737e-10 -5.08759e-12)
(5.21017e-10 1.63285e-10 -5.29872e-12)
(5.67944e-10 8.1769e-11 -5.30924e-12)
(1.77241e-10 9.20239e-10 -3.85863e-12)
(3.19998e-10 6.91808e-10 -4.61161e-12)
(-7.43257e-12 1.06591e-09 1.31071e-12)
(1.73977e-10 9.10959e-10 -4.5578e-13)
(4.23192e-10 2.5177e-10 -5.4094e-12)
(1.45278e-10 6.83773e-10 -4.56547e-12)
(1.41174e-10 6.68082e-10 2.79672e-12)
(4.17417e-10 2.43562e-10 1.65924e-13)
(5.08962e-10 1.56144e-10 -4.61963e-12)
(4.2029e-10 3.28837e-10 -4.31725e-12)
(5.55674e-10 7.62214e-11 -4.05063e-12)
(5.05485e-10 1.53291e-10 -2.37881e-12)
(1.39329e-10 6.45335e-10 2.65602e-11)
(4.14506e-10 2.31433e-10 1.9375e-11)
(3.05392e-10 6.53167e-10 3.88529e-11)
(1.64594e-10 8.52564e-10 6.94904e-11)
(1.65003e-10 8.7147e-10 3.71151e-11)
(-1.61027e-11 1.00103e-09 6.11974e-11)
(4.23233e-10 2.11258e-10 7.69413e-11)
(1.47323e-10 6.0758e-10 9.57911e-11)
(4.07044e-10 3.07804e-10 2.74326e-11)
(4.95344e-10 1.36377e-10 3.99682e-11)
(4.95063e-10 1.42707e-10 1.94313e-11)
(5.47002e-10 6.91568e-11 2.7355e-11)
(1.9949e-10 6.75236e-10 3.34049e-10)
(3.44859e-10 4.46396e-10 3.54107e-10)
(4.60293e-11 6.88311e-10 4.69761e-10)
(2.71236e-10 4.9418e-10 4.99127e-10)
(4.60217e-10 1.54928e-10 2.55751e-10)
(1.82672e-10 5.07176e-10 2.92886e-10)
(3.75591e-10 1.68935e-10 7.52797e-10)
(6.13161e-10 -1.05544e-10 8.26892e-10)
(4.9595e-10 8.72929e-11 2.6487e-10)
(4.09258e-10 1.84433e-10 3.31997e-10)
(5.85785e-10 5.53656e-11 3.73241e-10)
(4.98982e-10 1.83741e-11 5.07358e-10)
(4.87074e-10 3.59552e-10 7.93224e-12)
(5.9482e-10 1.6745e-10 7.96422e-12)
(5.66655e-10 1.77408e-10 2.27932e-12)
(6.33058e-10 9.38635e-11 -5.13711e-12)
(4.21095e-10 5.90606e-11 6.28514e-12)
(1.87157e-11 -1.32088e-11 1.73444e-13)
(3.953e-10 6.84216e-11 -3.92433e-13)
(1.80241e-11 -1.23797e-11 -1.01454e-13)
(2.50948e-10 1.1013e-09 4.42177e-12)
(2.85066e-10 1.29054e-09 7.76298e-12)
(2.9065e-10 1.13245e-09 1.22538e-11)
(3.19688e-10 1.34935e-09 1.43148e-11)
(3.93049e-10 7.50428e-10 6.39448e-12)
(2.56887e-10 9.98719e-10 7.90564e-12)
(2.34282e-10 9.87101e-10 3.12911e-12)
(5.03902e-11 1.15553e-09 7.79113e-12)
(4.45002e-10 3.50263e-10 -3.72115e-12)
(5.35088e-10 1.69207e-10 -3.60139e-12)
(5.32001e-10 1.68703e-10 -3.53068e-12)
(5.81868e-10 8.69611e-11 -4.17308e-12)
(3.79495e-10 6.48256e-11 -1.96347e-12)
(1.70417e-11 -1.18141e-11 -5.29367e-14)
(3.7582e-10 6.44659e-11 -2.34793e-12)
(1.69101e-11 -1.17254e-11 -7.17459e-14)
(2.16134e-10 1.08161e-09 -5.03556e-12)
(2.46502e-10 1.27307e-09 -3.59253e-12)
(2.20833e-10 1.09021e-09 -4.33944e-12)
(2.51666e-10 1.28377e-09 -2.83776e-12)
(3.45801e-10 7.31403e-10 -4.89237e-12)
(1.98462e-10 9.69545e-10 -4.5856e-12)
(1.9633e-10 9.655e-10 -5.02609e-12)
(7.0378e-12 1.1265e-09 -3.51602e-12)
(4.26953e-10 3.35475e-10 -5.92348e-12)
(5.15627e-10 1.60249e-10 -5.59447e-12)
(5.12622e-10 1.58215e-10 -5.00193e-12)
(5.62292e-10 7.93461e-11 -5.56736e-12)
(3.66461e-10 6.10979e-11 -3.29242e-12)
(1.65393e-11 -1.1465e-11 -1.07754e-13)
(3.61996e-10 5.93689e-11 -3.16259e-12)
(1.63549e-11 -1.13376e-11 -1.2991e-13)
(1.96294e-10 1.03819e-09 -5.22236e-12)
(2.23029e-10 1.22087e-09 -1.59e-12)
(2.02729e-10 1.05357e-09 -6.80043e-12)
(2.30853e-10 1.2396e-09 -4.23044e-12)
(3.27054e-10 7.0409e-10 -7.16048e-12)
(1.82724e-10 9.35261e-10 -6.39069e-12)
(1.80147e-10 9.28407e-10 -5.77563e-12)
(-3.67243e-12 1.08501e-09 -3.59662e-12)
(4.05699e-10 2.86211e-10 9.771e-11)
(4.94952e-10 1.29932e-10 7.54644e-11)
(4.98965e-10 1.14853e-10 1.3978e-10)
(5.58071e-10 6.66852e-11 1.00702e-10)
(3.44378e-10 5.06812e-11 2.93584e-11)
(1.51873e-11 -1.04572e-11 1.29346e-13)
(3.31431e-10 4.44034e-11 1.0616e-10)
(1.43926e-11 -9.01682e-12 7.87049e-13)
(1.80153e-10 8.58139e-10 2.31113e-10)
(1.69444e-10 9.53703e-10 8.71639e-11)
(3.06792e-10 6.12496e-10 1.26965e-10)
(1.67304e-10 8.24262e-10 1.23045e-10)
(1.75981e-10 7.76855e-10 2.0783e-10)
(-1.11858e-11 9.28289e-10 1.84327e-10)
(2.68969e-10 1.30385e-09 9.60726e-13)
(2.37324e-10 1.10576e-09 -1.21967e-12)
(2.12266e-10 9.82666e-10 -2.65137e-12)
(3.58421e-10 7.40901e-10 -3.01629e-12)
(1.71345e-11 1.14095e-09 -1.59607e-12)
(2.067e-10 9.7739e-10 -3.50387e-12)
(2.26428e-10 1.09424e-09 -2.95925e-12)
(2.581e-10 1.28702e-09 -1.20019e-12)
(5.50531e-10 1.71113e-10 -2.30895e-12)
(4.56738e-10 3.55249e-10 -1.98593e-12)
(5.95978e-10 8.98523e-11 -4.8802e-12)
(5.42892e-10 1.7231e-10 -2.70899e-12)
(3.90301e-10 6.48259e-11 -1.24588e-12)
(1.74327e-11 -1.21577e-11 -3.45031e-14)
(3.82433e-10 6.61312e-11 -2.02162e-12)
(1.72238e-11 -1.1926e-11 -7.5943e-14)
(2.41779e-10 1.26499e-09 -4.29343e-12)
(2.12025e-10 1.07462e-09 -5.86033e-12)
(1.90826e-10 9.55348e-10 -5.87588e-12)
(3.37224e-10 7.2039e-10 -6.3466e-12)
(1.70687e-12 1.10985e-09 -4.6377e-12)
(1.88989e-10 9.50968e-10 -6.35478e-12)
(2.07717e-10 1.06496e-09 -6.57815e-12)
(2.36776e-10 1.25333e-09 -4.64488e-12)
(5.25715e-10 1.65711e-10 -4.62053e-12)
(4.36754e-10 3.44309e-10 -4.98136e-12)
(5.72615e-10 8.38239e-11 -4.78498e-12)
(5.23371e-10 1.64583e-10 -4.56392e-12)
(3.73108e-10 6.346e-11 -2.53875e-12)
(1.67914e-11 -1.16421e-11 -7.23399e-14)
(3.69949e-10 6.24785e-11 -2.99543e-12)
(1.66737e-11 -1.15655e-11 -9.2457e-14)
(1.87555e-10 1.01776e-09 2.02023e-12)
(1.70507e-10 8.99786e-10 6.21787e-12)
(3.11684e-10 6.75431e-10 6.11823e-12)
(-1.22655e-11 1.0395e-09 1.67962e-11)
(1.67278e-10 8.87229e-10 1.75087e-11)
(1.77083e-10 9.91135e-10 2.49097e-11)
(5.01243e-10 1.50548e-10 9.18221e-13)
(4.12727e-10 3.19948e-10 3.28832e-12)
(5.48994e-10 7.25744e-11 3.33609e-12)
(4.983e-10 1.46457e-10 7.95552e-12)
(3.56419e-10 5.71048e-11 -1.15418e-12)
(1.61176e-11 -1.1141e-11 -1.30785e-13)
(3.50176e-10 5.4234e-11 6.32039e-12)
(1.57293e-11 -1.08912e-11 -6.44288e-14)
(3.35029e-10 5.533e-10 4.64294e-10)
(2.9619e-10 -6.10396e-11 4.36702e-10)
(7.19056e-12 1.28983e-11 3.20454e-11)
(-5.82791e-12 -1.77564e-11 4.29899e-11)
(1.7928e-10 7.83768e-11 2.3844e-10)
(4.30394e-10 7.51853e-10 1.79591e-11)
(4.84514e-10 5.55765e-10 1.28302e-11)
(5.2174e-10 3.58137e-10 1.25329e-11)
(5.41385e-10 2.60274e-10 1.13268e-11)
(2.48266e-10 7.25428e-10 1.32448e-11)
(5.05071e-10 3.63206e-10 1.07679e-11)
(4.19916e-10 6.00086e-11 6.32955e-12)
(4.09095e-10 7.54051e-10 9.84325e-12)
(2.77629e-10 1.12373e-09 7.42219e-12)
(3.01553e-10 1.13202e-09 1.95008e-11)
(4.5401e-10 5.62183e-10 6.67557e-12)
(5.1518e-10 2.70711e-10 3.71609e-12)
(2.20222e-10 7.36143e-10 5.24694e-12)
(4.30922e-10 5.65845e-11 6.13536e-12)
(3.75652e-10 7.44978e-10 3.61678e-13)
(4.34421e-10 5.60409e-10 -3.47753e-13)
(4.73783e-10 3.63622e-10 -1.71808e-12)
(4.7252e-10 2.77674e-10 -3.09306e-12)
(1.87156e-10 7.30805e-10 -1.02636e-12)
(4.31436e-10 5.56388e-10 -2.4252e-12)
(4.82105e-10 3.66459e-10 4.26024e-12)
(4.05236e-10 6.62852e-11 2.33968e-12)