/*--------------------------------*- C++ -*----------------------------------*\
| =========                 |                                                 |
| \\      /  F ield         | OpenFOAM: The Open Source CFD Toolbox           |
|  \\    /   O peration     | Version:  2012                                  |
|   \\  /    A nd           | Website:  www.openfoam.com                      |
|    \\/     M anipulation  |                                                 |
\*---------------------------------------------------------------------------*/
FoamFile
{
    version     2.0;
    format      ascii;
    class       volVectorField;
    location    "0.106/solid";
    object      sigmaMaxDir;
}
// * * * * * * * * * * * * * * * * * * * * * * * * * * * * * * * * * * * * * //

dimensions      [1 -1 -2 0 0 0 0];


internalField   nonuniform List<vector> 
3125
(
(0.978567 -0.200714 0.0460438)
(0.980687 -0.19296 0.0319392)
(0.984159 -0.177271 0.0025852)
(0.984293 -0.176535 0.0017997)
(0.98508 -0.172079 0.00242784)
(0.985225 -0.171225 0.00377617)
(0.982162 -0.173605 0.0722491)
(0.974307 -0.191289 0.118886)
(0.983137 -0.182617 0.00965657)
(0.983544 -0.180558 0.00632805)
(0.984624 -0.174681 0.00130262)
(0.984729 -0.174087 0.00130815)
(0.98575 -0.167723 0.0128968)
(0.985845 -0.16657 0.0190927)
(0.976949 -0.209764 0.0396126)
(0.902494 -0.42969 0.0295083)
(0.965729 0.0420574 0.256124)
(0.197311 -0.0402639 0.979514)
(0.899861 -0.436064 0.00994073)
(0.0143621 0.0112357 0.999834)
(0.907228 -0.420239 0.0183418)
(0.97916 0.046477 0.1977)
(0.982027 -0.188316 0.0126272)
(0.997917 0.0453259 0.0459085)
(0.135985 -0.0213067 0.990482)
(0.908444 -0.418005 -0.00127952)
(0.00789687 0.00406211 0.999961)
(0.983989 -0.178209 0.00259121)
(0.910687 -0.413098 -2.10689e-06)
(0.0344408 -0.000956038 0.999406)
(0.9104 -0.413729 3.91078e-06)
(0.0312851 -4.39059e-05 0.999511)
(0.910914 -0.412597 -2.11315e-05)
(0.984401 -0.175934 0.00103454)
(0.0111418 0.00351902 0.999932)
(0.910939 -0.412536 -0.00189643)
(0.0153226 0.00417383 0.999874)
(0.98495 -0.172827 0.00188803)
(0.911126 -0.412125 -0.00141506)
(0.0419993 -3.05857e-05 0.999118)
(0.91112 -0.41214 -0.000684987)
(0.0460324 -0.00188644 0.998938)
(0.911094 -0.412197 0.000245595)
(0.98539 -0.170221 0.00560549)
(0.0186437 0.00404708 0.999818)
(0.91104 -0.412318 0.000370168)
(0.964185 -0.244178 -0.103556)
(0.984865 -0.167597 0.0441929)
(0.90114 -0.427887 0.0697038)
(0.964354 -0.259868 -0.0498949)
(0.906545 -0.420229 0.0397959)
(0.967018 -0.254062 0.0181113)
(0.887135 -0.446158 0.118044)
(0.946013 -0.252275 0.203513)
(0.965443 -0.255593 -0.0509162)
(0.843544 -0.495287 0.207662)
(0.813491 -0.581506 0.00912909)
(0.0496961 0.018585 0.998591)
(0.815272 -0.579077 0.00100872)
(0.815308 -0.579027 -0.00045189)
(0.0367734 0.0121496 0.99925)
(0.00877996 -0.00416327 0.999953)
(-0.00297332 0.0126134 0.999916)
(0.982643 -0.185298 0.00883812)
(0.909178 -0.416377 0.00505617)
(0.0580236 -0.00598009 0.998297)
(0.908286 -0.418349 0.000939264)
(0.0123914 0.00469105 0.999912)
(0.0100505 -0.0016408 0.999948)
(0.81515 -0.579249 0.00092864)
(0.814709 -0.57984 -0.00588263)
(0.0280053 0.000822652 0.999607)
(0.983801 -0.179244 0.00265986)
(0.910174 -0.414216 0.00278967)
(0.0303157 -0.000163879 0.99954)
(0.910369 -0.413793 -0.00191907)
(0.815117 -0.579296 -9.09767e-05)
(0.815074 -0.579328 -0.00580942)
(0.00589348 0.00233812 0.99998)
(0.0054754 0.000872967 0.999985)
(0.00984669 0.00350262 0.999945)
(0.00479375 0.000101098 0.999989)
(0.815462 -0.578791 -0.00488437)
(0.815239 -0.579125 -0.000454213)
(0.815135 -0.579242 -0.00575747)
(0.814897 -0.579605 -0.000653799)
(0.00549765 0.00215217 0.999983)
(0.00482684 0.00127506 0.999988)
(0.0108019 0.00345961 0.999936)
(0.984512 -0.175313 0.00139205)
(0.911074 -0.412241 -0.00146226)
(0.0350375 -0.000106241 0.999386)
(0.910972 -0.412468 -0.000508531)
(0.00574306 0.00208463 0.999981)
(0.00531964 0.00163243 0.999985)
(0.814653 -0.579948 -0.000993582)
(0.814811 -0.579694 -0.00619407)
(0.0375086 0.000166004 0.999296)
(0.984834 -0.173493 0.00123902)
(0.911131 -0.412117 -0.000771083)
(0.0126744 0.00406485 0.999911)
(0.911127 -0.41212 -0.00200034)
(0.813825 -0.581108 -0.00180412)
(0.814171 -0.580582 -0.00715733)
(0.00861978 0.00267038 0.999959)
(0.00711961 0.00239028 0.999972)
(0.00598014 0.00222375 0.99998)
(0.00650972 0.00210125 0.999977)
(0.814592 -0.579997 -0.00665937)
(0.814273 -0.58048 -0.00157689)
(0.813718 -0.581215 -0.0072121)
(0.813277 -0.581876 -0.00067682)
(0.00960836 0.00293817 0.99995)
(0.0161977 0.00317695 0.999864)
(0.985572 -0.169024 0.0088494)
(0.910684 -0.413059 0.00605358)
(0.0200446 -0.00531507 0.999785)
(0.910903 -0.412604 0.00359694)
(0.812726 -0.582623 0.00513834)
(0.813172 -0.581999 -0.00532764)
(0.964677 -0.248292 -0.0880306)
(0.985697 -0.166146 0.0282193)
(0.910108 -0.414171 0.0128631)
(-0.135711 0.029453 0.990311)
(0.909051 -0.416112 0.0218412)
(0.808442 -0.582909 0.081478)
(0.812032 -0.582938 0.0280496)
(0.812688 -0.582693 0.00269907)
(0.812102 -0.58301 0.0242803)
(0.805748 -0.583049 0.104042)
(0.755981 -0.599519 0.262811)
(0.962691 -0.268629 0.0326268)
(0.669844 -0.647005 0.36427)
(0.690078 -0.635181 0.346897)
(0.919292 -0.390765 0.0469467)
(-0.652258 0.703693 -0.281735)
(0.969485 -0.237192 0.0619546)
(0.275593 -0.0818205 0.957786)
(0.930701 -0.363303 0.0425075)
(0.90667 -0.116158 0.405532)
(0.972191 -0.232483 0.0282195)
(0.244187 -0.0676937 0.967363)
(0.933716 -0.349914 0.0757262)
(0.779913 -0.0748254 0.621399)
(0.970119 -0.22271 0.0962761)
(0.933448 -0.358007 0.0224771)
(0.821625 -0.0931942 0.562358)
(0.975869 -0.216701 -0.0268498)
(0.995032 -0.099554 -0.000757575)
(-0.00790329 0.0230298 0.999704)
(0.938521 -0.344785 0.0173815)
(0.938826 -0.343135 -0.0293895)
(0.959381 -0.0934323 0.266192)
(0.975616 -0.217354 0.0304888)
(0.974676 -0.215867 0.0583821)
(0.0303754 0.0155675 0.999417)
(0.938435 -0.345009 0.0175462)
(0.735306 -0.0649616 0.674615)
(0.975393 -0.219564 0.0199814)
(0.938858 -0.34176 0.0417935)
(0.74685 -0.0661824 0.661691)
(0.976498 -0.212234 0.0375204)
(0.98396 -0.0935016 0.151919)
(0.036876 -0.00223015 0.999317)
(0.93945 -0.342087 -0.0202512)
(0.976706 -0.212893 -0.0268618)
(0.939574 -0.340953 0.0308507)
(0.984677 -0.0931435 0.147432)
(0.976902 -0.212176 -0.0253889)
(0.0208751 -0.000629236 0.999782)
(0.939886 -0.340374 0.0275719)
(0.986088 -0.0917582 0.138602)
(0.976723 -0.211349 0.0366546)
(0.939842 -0.340992 -0.0205129)
(0.976269 -0.0919098 0.196089)
(0.976996 -0.211346 -0.0284849)
(0.991905 -0.0923451 0.0871622)
(0.00975143 0.00351227 0.999946)
(0.940075 -0.340061 0.0248697)
(0.940045 -0.34021 -0.0239367)
(0.986992 -0.0925922 0.131425)
(0.976918 -0.210891 0.0339944)
(0.976808 -0.211076 0.0359533)
(0.026287 0.0019203 0.999653)
(0.940009 -0.340654 -0.0183738)
(0.979119 -0.0910442 0.18176)
(0.977044 -0.211504 -0.0255085)
(0.940106 -0.339609 0.0294421)
(0.988823 -0.0924486 0.116967)
(0.977199 -0.208957 0.0376805)
(0.983583 -0.0892309 0.15685)
(0.0401176 1.38724e-05 0.999195)
(0.940354 -0.339717 -0.0180503)
(0.977474 -0.209608 -0.024662)
(0.94051 -0.338331 0.0312082)
(0.987412 -0.0895107 0.130408)
(0.977547 -0.209252 -0.0248128)
(0.0226182 0.00191838 0.999742)
(0.940608 -0.338413 0.0270649)
(0.989714 -0.0887901 0.112169)
(0.977344 -0.208478 0.0365412)
(0.94053 -0.339095 -0.0204663)
(0.984727 -0.0893123 0.149453)
(0.977788 -0.20843 -0.0221052)
(0.9913 -0.0877699 0.0980843)
(0.0257397 0.00107043 0.999668)
(0.940709 -0.338078 0.0277324)
(0.940647 -0.338894 -0.018296)
(0.987275 -0.0883952 0.132188)
(0.977472 -0.20761 0.0380353)
(0.977337 -0.208059 0.0390413)
(0.0466939 -0.00149217 0.998908)
(0.940489 -0.339415 -0.0166753)
(0.985148 -0.0881314 0.147367)
(0.977698 -0.208787 -0.0226757)
(0.940644 -0.337874 0.03208)
(0.988571 -0.0883665 0.122146)
(0.975504 -0.214444 0.0490507)
(0.995504 -0.0918324 0.0232022)
(0.964287 -0.258662 -0.0569681)
(0.938203 -0.346008 -0.00730404)
(0.977383 -0.211416 -0.00507497)
(0.937007 -0.347887 0.0315009)
(0.995233 -0.0946145 0.0236657)
(0.975935 -0.217644 0.0135203)
(0.966424 -0.247546 -0.0688891)
(0.933629 -0.356513 0.0351341)
(0.993814 -0.104237 0.038323)
(0.972564 -0.22364 0.0640721)
(0.93574 -0.352602 0.00792504)
(0.994439 -0.0994581 0.0346228)
(0.961659 -0.260489 0.0857745)
(0.982366 -0.148247 0.113927)
(0.967885 -0.251112 -0.0118782)
(0.906035 -0.417354 0.0701154)
(0.914502 -0.40075 0.0555562)
(0.985511 -0.133924 0.10408)
(0.951072 -0.287681 0.112699)
(0.965204 -0.24333 0.095775)
(0.962314 -0.271594 -0.0137053)
(0.929491 -0.368242 0.0210617)
(0.992139 -0.111856 0.0561091)
(0.972076 -0.231057 0.0410006)
(0.924938 -0.376398 0.053057)
(0.989568 -0.120606 0.0787962)
(0.909032 -0.413718 0.0499837)
(0.852281 -0.519272 0.063036)
(0.811483 -0.584353 0.00520526)
(0.850956 -0.52515 -0.0096074)
(0.913282 -0.401353 0.0695116)
(0.911568 -0.411122 -0.00481737)
(0.810547 -0.585591 0.00982268)
(0.8488 -0.526695 0.0461721)
(0.0582017 0.0186423 0.998131)
(0.0550004 0.0184286 0.998316)
(0.0579244 0.0177721 0.998163)
(0.0621866 0.00341803 0.998059)
(0.0462711 0.00753522 0.9989)
(0.0649055 0.00795063 0.99786)
(0.0503063 0.0252861 0.998414)
(0.0273647 -0.00250039 0.999622)
(0.916445 -0.399409 0.024538)
(0.917669 -0.395296 -0.0403146)
(0.856681 -0.515556 -0.0172777)
(0.816309 -0.577607 0.00310949)
(0.85743 -0.512945 0.0412461)
(0.91707 -0.398725 -4.66102e-05)
(0.918396 -0.394038 0.035812)
(0.855403 -0.517208 0.0279691)
(0.816052 -0.577954 -0.00530128)
(0.855867 -0.514769 -0.0500463)
(0.0227825 0.0117265 0.999672)
(-0.00439766 -0.00707311 0.999965)
(0.0216542 0.00286393 0.999761)
(0.0468427 0.00746661 0.998874)
(0.0184038 0.00719567 0.999805)
(0.00978407 0.00152236 0.999951)
(0.0119334 -0.00365245 0.999922)
(0.0100211 -0.00443075 0.99994)
(0.0161074 0.00190259 0.999868)
(0.0274436 0.0175143 0.99947)
(0.9753 -0.216871 0.0419022)
(0.987543 -0.0995447 0.121858)
(0.0707693 -0.0114731 0.997427)
(0.937786 -0.346358 -0.0243761)
(0.975584 -0.217817 -0.0281212)
(0.969683 -0.0965845 0.224469)
(0.937905 -0.345276 0.0334439)
(0.976244 -0.21606 -0.016333)
(0.0552812 -0.00977419 0.998423)
(0.946846 -0.0890472 0.309117)
(0.93885 -0.3425 0.0354188)
(0.937904 -0.091181 0.334698)
(0.938754 -0.344371 -0.0122296)
(0.975778 -0.213876 0.0459888)
(-0.00818331 -0.010505 0.999911)
(0.0260288 0.0145208 0.999556)
(0.0139959 0.00446151 0.999892)
(0.0158558 0.00862865 0.999837)
(0.0141266 -0.00155197 0.999899)
(0.00525317 -0.00628341 0.999966)
(0.0124432 0.0024094 0.99992)
(0.017919 0.00658503 0.999818)
(0.0241963 0.0160352 0.999579)
(-0.00429818 -0.00815103 0.999958)
(0.9153 -0.400847 -0.0393418)
(0.915824 -0.399493 0.0408779)
(0.854283 -0.51828 0.0398378)
(0.814811 -0.579707 -0.00465893)
(0.853765 -0.51942 -0.0358967)
(0.916784 -0.397261 0.0411075)
(0.916564 -0.39908 -0.0254155)
(0.853307 -0.51948 -0.0448022)
(0.81457 -0.580065 0.000517406)
(0.853392 -0.519762 0.0396106)
(0.976607 -0.213049 -0.029125)
(0.00414372 0.00687165 0.999968)
(0.993458 -0.0947278 0.0637745)
(0.939596 -0.341504 0.0231264)
(0.976542 -0.212796 0.0329202)
(0.987769 -0.0944486 0.124068)
(0.939613 -0.341278 -0.0256198)
(0.976351 -0.212713 0.0386202)
(0.023472 0.00474447 0.999713)
(0.943573 -0.0882587 0.319186)
(0.939647 -0.3419 -0.0129554)
(0.976742 -0.213566 -0.0190889)
(0.979397 -0.0925796 0.179474)
(0.939722 -0.340555 0.0307296)
(0.916905 -0.397733 -0.0330627)
(0.917497 -0.395931 0.0379151)
(0.854301 -0.518542 0.0358439)
(0.81516 -0.579207 -0.00578499)
(0.853997 -0.518577 -0.0420386)
(0.917517 -0.396095 0.0356564)
(0.917694 -0.39606 -0.031194)
(0.853753 -0.519059 -0.0410346)
(0.81512 -0.579293 0.000144755)
(0.854127 -0.518572 0.0393712)
(-0.0107631 -0.00993043 0.999893)
(0.0204777 0.0139557 0.999693)
(0.00647963 0.00218959 0.999977)
(0.00918989 0.00684503 0.999934)
(0.00570419 -0.00242048 0.999981)
(0.00364948 -0.0036832 0.999987)
(0.00589628 0.00205531 0.999981)
(0.00973261 0.00654669 0.999931)
(0.0201991 0.0142406 0.999695)
(-0.00975043 -0.00916965 0.99991)
(0.0201716 0.0127035 0.999716)
(-0.0104206 -0.0094783 0.999901)
(0.00998061 -0.000461907 0.99995)
(0.00675601 0.00170776 0.999976)
(0.00843813 0.00635267 0.999944)
(-0.00725863 -0.00700605 0.999949)
(0.0199722 0.0143434 0.999698)
(0.00820087 0.0047013 0.999955)
(0.00527351 -1.71421e-05 0.999986)
(0.00363231 -0.00358951 0.999987)
(0.917219 -0.397121 0.0316936)
(0.917791 -0.395448 -0.0357714)
(0.854761 -0.517784 -0.0358234)
(0.815698 -0.578478 0.00030624)
(0.855209 -0.516851 0.0385064)
(0.917471 -0.396994 -0.0253406)
(0.918086 -0.394798 0.0353785)
(0.854487 -0.518448 0.0326195)
(0.815564 -0.578634 -0.00617553)
(0.854399 -0.517563 -0.0461662)
(0.917575 -0.396154 0.0334379)
(0.917979 -0.395158 -0.0341188)
(0.854095 -0.518613 -0.0395339)
(0.815216 -0.579157 -0.000129772)
(0.854488 -0.518049 0.0384134)
(0.917589 -0.396381 -0.0302094)
(0.918132 -0.394635 0.036016)
(0.854123 -0.518976 0.03373)
(0.815132 -0.57924 -0.0063767)
(0.85392 -0.518459 -0.0449672)
(0.0201393 0.013353 0.999708)
(-0.0108461 -0.00961429 0.999895)
(0.00478074 0.00184802 0.999987)
(0.00426125 -0.00191487 0.999989)
(0.00769041 0.00645196 0.99995)
(0.00857276 0.00570729 0.999947)
(0.00489622 0.00110084 0.999987)
(0.00361752 -0.00306916 0.999989)
(-0.0108256 -0.00868456 0.999904)
(0.0192997 0.0140341 0.999715)
(0.97691 -0.210469 0.036726)
(0.983209 -0.0912098 0.158052)
(0.0334751 -0.000141224 0.99944)
(0.94002 -0.340574 -0.0192695)
(0.977126 -0.211036 -0.0262488)
(0.987262 -0.0914907 0.130163)
(0.94015 -0.339404 0.0303932)
(0.977201 -0.210625 -0.0267336)
(0.017447 0.00143559 0.999847)
(0.989612 -0.0907725 0.111485)
(0.940295 -0.339348 0.0262493)
(0.982976 -0.0910403 0.159591)
(0.940238 -0.339806 -0.0220028)
(0.977071 -0.209974 0.0352669)
(-0.0108357 -0.00939605 0.999897)
(0.020098 0.0141683 0.999698)
(0.00591192 0.00190073 0.999981)
(0.00937181 0.00659633 0.999934)
(0.00504264 -0.00247949 0.999984)
(0.00402281 -0.00280704 0.999988)
(0.00539921 0.00216208 0.999983)
(0.00897597 0.0067029 0.999937)
(0.0205528 0.0141232 0.999689)
(-0.0101488 -0.00918453 0.999906)
(0.917409 -0.396682 -0.0316781)
(0.918007 -0.394814 0.0372093)
(0.853988 -0.519176 0.0340763)
(0.814826 -0.579667 -0.00662579)
(0.853708 -0.518893 -0.0439596)
(0.917752 -0.395653 0.0344901)
(0.918028 -0.39519 -0.0323956)
(0.853628 -0.51929 -0.0406968)
(0.814856 -0.579664 -0.000436089)
(0.854071 -0.518714 0.0387116)
(0.977339 -0.209976 -0.0267908)
(0.0172319 0.00263607 0.999848)
(0.990251 -0.0901155 0.10622)
(0.940446 -0.338944 0.0260602)
(0.977206 -0.209354 0.0352075)
(0.9852 -0.0905056 0.145566)
(0.940378 -0.339403 -0.0222339)
(0.977087 -0.209681 0.0365451)
(0.0333938 0.00112798 0.999442)
(0.982497 -0.0899267 0.163137)
(0.940267 -0.339926 -0.018667)
(0.977323 -0.210199 -0.0256116)
(0.988071 -0.0906132 0.124515)
(0.940404 -0.338717 0.0301958)
(0.917597 -0.396318 -0.030777)
(0.918175 -0.394389 0.0375826)
(0.85341 -0.520174 0.033333)
(0.814093 -0.580685 -0.00753179)
(0.853206 -0.519753 -0.0435434)
(0.917808 -0.39552 0.0345471)
(0.918144 -0.394999 -0.031428)
(0.853209 -0.519971 -0.0407932)
(0.814153 -0.580648 -0.00141262)
(0.853656 -0.519458 0.0378636)
(-0.00992295 -0.00874667 0.999913)
(0.0214686 0.014951 0.999658)
(0.00824437 0.0024921 0.999963)
(0.0123552 0.00701835 0.999899)
(0.00728734 -0.00193862 0.999972)
(0.00594799 -0.00204813 0.99998)
(0.00738549 0.00281106 0.999969)
(0.0109566 0.00734468 0.999913)
(0.0225471 0.0147752 0.999637)
(-0.00912634 -0.00868227 0.999921)
(0.0212874 0.0142165 0.999672)
(-0.00994778 -0.00905549 0.99991)
(0.00478946 -0.00203172 0.999986)
(0.00587586 0.00238322 0.99998)
(0.00923523 0.00697796 0.999933)
(-0.0105132 -0.00877237 0.999906)
(0.020353 0.0145332 0.999687)
(0.0103311 0.00653338 0.999925)
(0.00641359 0.00192465 0.999978)
(0.00542298 -0.00237795 0.999982)
(0.917789 -0.395601 0.0341185)
(0.918121 -0.394943 -0.0327585)
(0.853553 -0.51941 -0.0407443)
(0.814604 -0.580017 -0.00099869)
(0.854002 -0.518888 0.0378993)
(0.917646 -0.396196 -0.0308981)
(0.918217 -0.394364 0.0367998)
(0.853731 -0.519654 0.033198)
(0.814525 -0.580083 -0.00723313)
(0.853474 -0.519219 -0.0446605)
(0.917634 -0.395911 0.0346775)
(0.9181 -0.395229 -0.0297675)
(0.852935 -0.520518 -0.0395343)
(0.813652 -0.581352 -0.0011996)
(0.853231 -0.520106 0.0385516)
(0.917601 -0.396384 -0.0298004)
(0.918098 -0.394508 0.0381959)
(0.852883 -0.520923 0.0350582)
(0.813601 -0.581382 -0.00690112)
(0.852982 -0.520376 -0.0403881)
(0.0246498 0.0152387 0.99958)
(-0.00817902 -0.00843975 0.999931)
(0.0103891 0.00333606 0.99994)
(0.00813351 -0.00162259 0.999966)
(0.0135139 0.00776089 0.999879)
(0.0159673 0.00709619 0.999847)
(0.0119493 0.0030374 0.999924)
(0.0101245 -0.00164911 0.999947)
(-0.00904924 -0.00836872 0.999924)
(0.023031 0.0155715 0.999613)
(0.977422 -0.207309 0.0408472)
(0.989366 -0.0874623 0.116213)
(0.0568751 -0.00846699 0.998345)
(0.940518 -0.339431 -0.0146058)
(0.977942 -0.207977 -0.019368)
(0.991754 -0.0876855 0.0934607)
(0.940612 -0.337892 0.0328244)
(0.978021 -0.207761 -0.0176288)
(0.017819 -0.00234394 0.999838)
(0.994349 -0.0876219 0.0599407)
(0.940529 -0.338621 0.0272303)
(0.991769 -0.088088 0.0929222)
(0.940607 -0.339182 -0.0146238)
(0.977509 -0.207254 0.0390229)
(-0.00802234 -0.00848688 0.999932)
(0.0255375 0.0160259 0.999545)
(0.0215012 0.00581828 0.999752)
(0.0148833 -0.00206965 0.999887)
(0.0119706 -0.00172242 0.999927)
(0.0181765 0.00766401 0.999805)
(0.0270301 0.014735 0.999526)
(-0.00773608 -0.00905567 0.999929)
(0.917404 -0.396956 -0.0282045)
(0.917632 -0.395494 0.0391987)
(0.851892 -0.522043 0.0418485)
(0.813104 -0.582113 -0.00262539)
(0.852956 -0.521096 -0.0304142)
(0.916911 -0.397617 0.0342863)
(0.917821 -0.396132 -0.0261646)
(0.852716 -0.521227 -0.0346248)
(0.813053 -0.582186 0.00170474)
(0.852444 -0.521084 0.0425561)
(0.977885 -0.208847 -0.0111322)
(0.959223 -0.244633 -0.14158)
(0.995714 -0.0901583 0.0206077)
(0.939195 -0.342483 0.0248772)
(0.976884 -0.209962 0.0401807)
(0.995106 -0.0898347 0.0411671)
(0.939724 -0.341803 -0.00950761)
(0.97726 -0.20798 0.0413169)
(0.964529 -0.255093 -0.067905)
(0.994216 -0.0879019 0.0617139)
(0.94012 -0.340616 -0.0124543)
(0.978056 -0.207787 -0.0151967)
(0.995105 -0.0885737 0.043817)
(0.939929 -0.339944 0.0311883)
(0.914301 -0.404603 -0.0186991)
(0.91077 -0.410564 0.0439841)
(0.839722 -0.533662 0.100362)
(0.810929 -0.582405 0.0565468)
(0.847955 -0.527888 0.048025)
(0.905876 -0.421188 0.0446076)
(0.912086 -0.409995 -0.00182296)
(0.851176 -0.52471 0.0133519)
(0.811019 -0.583221 0.0458427)
(0.844961 -0.528475 0.0821891)
(-0.0168385 -0.0201134 0.999656)
(0.0496285 0.0114284 0.998702)
(0.596908 -0.0155742 0.802158)
(0.116898 -0.017561 0.992989)
(0.0374646 -0.0109658 0.999238)
(0.0933864 -0.00317313 0.995625)
(0.210489 0.0352851 0.976959)
(-0.0167514 -0.0275528 0.99948)
(0.0319145 0.011425 0.999425)
(-0.0121197 -0.0133803 0.999837)
(0.0174033 -0.00360827 0.999842)
(0.0256945 0.00544314 0.999655)
(-0.00930991 -0.0109134 0.999897)
(0.0277795 0.014775 0.999505)
(0.0390879 0.000733576 0.999236)
(0.02267 -0.00525634 0.999729)
(0.914332 -0.403551 0.0338011)
(0.916542 -0.399459 -0.0195784)
(0.852549 -0.522239 -0.0206556)
(0.812435 -0.582916 0.0125984)
(0.850586 -0.523023 0.0543209)
(0.9167 -0.398761 -0.0254881)
(0.915975 -0.399257 0.0397996)
(0.84919 -0.524616 0.0604512)
(0.812679 -0.582585 0.0121548)
(0.852668 -0.522424 -0.00554544)
(0.846565 -0.525811 0.0827625)
(0.890196 -0.453193 0.0465528)
(0.839783 -0.536735 0.0817301)
(0.797617 -0.58559 0.144538)
(0.826492 -0.547967 0.129007)
(0.905938 -0.423335 0.00802089)
(0.890913 -0.449099 0.067712)
(0.801005 -0.573549 0.171561)
(0.785281 -0.588397 0.192674)
(0.816125 -0.560842 0.139269)
(0.911468 0.204619 0.35687)
(0.933128 0.201334 0.297888)
(0.798143 -0.027716 0.60183)
(0.934634 -0.0243142 0.354778)
(0.935193 -0.0322843 0.352664)
(0.94104 -0.0366906 0.336299)
(0.165569 -0.00258587 0.986195)
(0.897121 0.191818 0.397971)
(0.925376 -0.374178 0.0605812)
(0.97718 -0.169041 0.128625)
(0.919827 -0.389709 0.0452178)
(0.877452 -0.473173 0.0786507)
(0.938956 -0.326026 0.109856)
(0.969041 -0.230011 0.0897449)
(0.860141 -0.508115 0.0444525)
(0.942989 -0.330887 0.0358488)
(0.982149 -0.181262 0.0502794)
(0.895047 -0.443795 0.0440124)
(-0.505683 0.813384 -0.287563)
(0.783892 -0.620287 0.0275227)
(-0.602211 0.740252 -0.298946)
(0.922365 -0.38467 0.0356604)
(0.838927 -0.544191 0.00763774)
(0.983852 -0.174831 0.0383372)
(0.815972 -0.578024 0.00889755)
(0.91341 0.196066 0.356708)
(0.958637 0.0835047 0.272106)
(0.97361 -0.198808 0.112066)
(0.93104 -0.0533174 0.361002)
(0.961712 -0.143008 0.233792)
(0.995176 -0.0838791 0.0508835)
(0.830445 -0.551729 0.0771785)
(0.778682 -0.624398 0.0614982)
(-0.456282 0.836504 -0.303429)
(0.763237 -0.644319 0.0481801)
(0.795584 -0.605048 0.0310317)
(0.780395 -0.602924 0.165729)
(-0.576221 0.730552 -0.366419)
(0.736992 -0.664131 0.125586)
(0.937543 -0.345944 0.0365439)
(0.0283706 0.0146859 0.99949)
(0.939007 -0.295923 0.175202)
(0.0333339 0.0143322 0.999342)
(0.945135 -0.323329 0.046675)
(0.182487 -0.0352973 0.982574)
(0.855521 -0.235528 0.461098)
(0.142982 -0.0118916 0.989654)
(0.933974 -0.307086 0.182731)
(0.95618 -0.278067 0.0916468)
(0.106071 -0.0244448 0.994058)
(0.946482 -0.313032 -0.0786241)
(0.0236138 0.0118645 0.999651)
(0.0309765 0.00493255 0.999508)
(0.940672 -0.260713 0.217175)
(0.926132 -0.260431 -0.272866)
(0.00257891 -0.00632427 0.999977)
(0.947991 -0.313452 0.055319)
(0.940581 -0.301295 0.15662)
(0.0845726 -0.00254327 0.996414)
(0.954618 -0.269118 0.127592)
(0.0879638 -0.0191776 0.995939)
(0.949409 -0.311905 0.0365695)
(0.84464 -0.222362 0.486969)
(0.0777872 0.00841724 0.996934)
(0.947844 -0.309074 0.0778762)
(-0.00776376 -0.00562824 0.999954)
(0.0170295 0.00252137 0.999852)
(0.938331 -0.256543 -0.231777)
(0.948814 -0.309446 -0.0632135)
(0.921184 -0.247417 0.300341)
(0.0258308 0.0105031 0.999611)
(0.994912 -0.0975054 -0.025337)
(0.998445 -0.00727347 0.0552752)
(0.994433 -0.0967126 0.0418379)
(0.99823 -0.00783241 0.0589476)
(0.994338 -0.0975765 0.042084)
(0.998888 -0.00852419 0.0463686)
(0.994795 -0.0982655 -0.0269433)
(0.998473 -0.00826029 0.0546131)
(0.949221 -0.308794 -0.0602212)
(0.0300341 -0.000753681 0.999549)
(0.921562 -0.245473 0.300775)
(0.0367809 0.00715638 0.999298)
(0.948535 -0.306376 0.0800988)
(0.936535 -0.253879 -0.24176)
(0.00555898 -0.00915221 0.999943)
(0.948965 -0.30855 -0.0652923)
(0.0349638 0.0070074 0.999364)
(0.0263357 0.000469578 0.999653)
(0.926503 -0.246441 0.284357)
(0.933907 -0.252559 -0.253044)
(0.00207579 -0.00865288 0.99996)
(0.948864 -0.306559 0.0753643)
(0.994532 -0.0963172 0.0403572)
(0.998815 -0.00716801 0.0481285)
(0.994957 -0.0968431 -0.0260962)
(0.999069 -0.00732045 0.0425145)
(0.994945 -0.0965262 -0.0277128)
(0.999068 -0.00703352 0.0425865)
(0.999144 -0.00735614 0.0407003)
(0.994594 -0.0959928 0.0396071)
(0.948207 -0.307271 0.0805493)
(0.0157809 0.00352202 0.999869)
(0.941005 -0.255463 -0.22192)
(-0.00525541 -0.0050906 0.999973)
(0.949617 -0.307853 -0.0587628)
(0.915852 -0.243413 0.31932)
(0.0254665 0.0115864 0.999609)
(0.948821 -0.30549 0.0800832)
(-0.00247195 -0.00534823 0.999983)
(0.0232449 0.00352258 0.999724)
(0.946793 -0.254731 -0.196712)
(0.950176 -0.306416 -0.057231)
(0.925602 -0.243112 0.290098)
(0.0315374 0.0112981 0.999439)
(0.950078 -0.306503 -0.0583772)
(0.0374569 0.000362155 0.999298)
(0.934959 -0.244803 0.256757)
(0.0439763 0.00700863 0.999008)
(0.94953 -0.303899 0.0777023)
(0.946602 -0.253219 -0.199562)
(0.0092999 -0.00872654 0.999919)
(0.950548 -0.305917 -0.0535993)
(0.0494449 0.00560252 0.998761)
(0.042948 -0.00151674 0.999076)
(0.945996 -0.247377 0.209515)
(0.953789 -0.253874 -0.16073)
(0.0120518 -0.00978237 0.99988)
(0.949913 -0.3033 0.0753253)
(0.949128 -0.304648 0.0796641)
(0.0266862 0.00349985 0.999638)
(0.9517 -0.255204 -0.170701)
(0.000350305 -0.00567273 0.999984)
(0.950585 -0.305768 -0.0537877)
(0.933697 -0.244308 0.261771)
(0.0355124 0.0112037 0.999306)
(0.949299 -0.311627 0.0414659)
(0.954781 -0.225472 -0.193791)
(0.963685 -0.253298 -0.0845641)
(0.962367 -0.256311 -0.0903078)
(0.950354 -0.3089 -0.0375233)
(0.965406 -0.260036 0.019292)
(0.969844 -0.232973 -0.0715984)
(0.947595 -0.319297 -0.0106829)
(0.965825 -0.253897 -0.0521381)
(0.962788 -0.270246 -0.00272677)
(0.969657 -0.243933 -0.0161693)
(0.945571 -0.322382 0.0443427)
(0.962496 -0.265038 -0.0579403)
(0.968957 -0.24528 -0.0310009)
(0.932715 -0.357666 0.046017)
(0.964931 -0.256906 0.053918)
(0.970285 -0.241705 0.0112622)
(0.954354 -0.297658 0.0246453)
(0.955699 -0.294334 0.00282433)
(0.962469 -0.267197 0.047526)
(0.928991 -0.363358 0.0703295)
(0.942647 -0.330644 0.0457343)
(0.962624 -0.268086 -0.0385405)
(0.960111 -0.27485 -0.0514267)
(0.967313 -0.252576 -0.0226164)
(0.945302 -0.326195 -0.00140947)
(0.960714 -0.277521 -0.00333175)
(0.968369 -0.249476 -0.00492999)
(0.931629 -0.363337 -0.00734844)
(0.939162 -0.334396 0.0784456)
(0.938899 -0.340834 0.0479727)
(0.0539539 0.00744482 0.998516)
(0.0781086 -0.00531211 0.996931)
(0.0356061 -0.008402 0.999331)
(0.943058 -0.332623 -0.00176625)
(0.944614 -0.328036 -0.00979073)
(0.942475 -0.329874 0.0540771)
(0.945717 -0.320763 0.0522527)
(0.0310675 0.00555673 0.999502)
(-0.00285395 -0.00180669 0.999994)
(0.0245697 -0.00511545 0.999685)
(0.0465037 0.00648927 0.998897)
(0.946417 -0.315141 0.0705746)
(-0.0138085 -0.00202652 0.999903)
(0.0251981 0.00336404 0.999677)
(0.93121 -0.261915 -0.253473)
(0.946426 -0.314292 -0.074151)
(0.0299602 0.0102656 0.999498)
(0.929786 -0.257596 0.262949)
(0.949231 -0.311658 -0.0427855)
(0.0521586 -0.00514319 0.998626)
(0.0517327 0.00507419 0.998648)
(0.911861 -0.245309 0.329139)
(0.0207536 -0.0111509 0.999722)
(0.948236 -0.26147 -0.180226)
(0.946801 -0.307327 0.0954855)
(-0.0130257 0.00114513 0.999915)
(0.0302397 0.00528407 0.999529)
(0.0360536 0.00236324 0.999347)
(-0.00247045 -0.00383137 0.99999)
(0.942033 -0.335228 -0.0139803)
(0.942841 -0.33297 0.013492)
(0.94428 -0.328146 0.0256011)
(0.944868 -0.327407 0.00540603)
(0.948187 -0.310229 -0.0685453)
(0.0244114 0.00120795 0.999701)
(0.0324895 0.00711541 0.999447)
(0.928928 -0.250252 0.272886)
(0.94848 -0.308671 0.0714628)
(0.000158408 -0.00826005 0.999966)
(0.930875 -0.254564 -0.262049)
(0.994156 -0.0984809 0.0442245)
(0.995498 -0.00802851 0.0944382)
(0.994866 -0.0993759 -0.0191566)
(0.997987 -0.00827634 0.0628763)
(0.947206 -0.30755 0.090629)
(0.0271853 0.00204008 0.999628)
(0.00765815 -0.00655521 0.999949)
(0.948982 -0.26093 -0.177056)
(0.949818 -0.309455 -0.0456367)
(0.032877 0.0111758 0.999397)
(0.906201 -0.242183 0.346622)
(0.994745 -0.0986526 -0.0273825)
(0.999163 -0.00867657 0.0399665)
(0.994377 -0.0982517 0.039514)
(0.999066 -0.00867782 0.0423245)
(0.944525 -0.328407 -0.00459775)
(0.945509 -0.325191 0.0162667)
(0.945327 -0.325755 0.0155249)
(0.946189 -0.323593 -0.00374462)
(-0.0151438 -0.000858593 0.999885)
(0.0244899 0.00533931 0.999686)
(0.029858 0.00317431 0.999549)
(-0.00861264 -0.00326375 0.999958)
(0.0300016 0.00277902 0.999546)
(-0.00917053 -0.00303075 0.999953)
(-0.0106753 -0.000465299 0.999943)
(0.0261455 0.00625807 0.999639)
(0.944749 -0.327659 0.00945971)
(0.945851 -0.324504 -0.00786937)
(0.944736 -0.32774 0.00776664)
(0.946084 -0.323081 0.0233358)
(0.945475 -0.32547 0.0121124)
(0.946498 -0.322644 -0.00649534)
(0.945329 -0.326118 -0.000813322)
(0.946409 -0.322481 0.0177572)
(0.0300607 0.00287687 0.999544)
(-0.0093558 -0.00313887 0.999951)
(-0.015787 -0.000138774 0.999875)
(0.023172 0.00617966 0.999712)
(0.948367 -0.307047 0.0795122)
(-0.00581487 -0.00567333 0.999967)
(0.0179747 0.00282637 0.999834)
(0.941075 -0.254709 -0.222487)
(0.949567 -0.307668 -0.0605231)
(0.0269256 0.0108786 0.999578)
(0.919781 -0.24398 0.30737)
(0.995079 -0.0955985 -0.0260397)
(0.998738 -0.00601618 0.0498521)
(0.99872 -0.00646063 0.0501569)
(0.994648 -0.0949022 0.0408474)
(0.994583 -0.0954701 0.0411158)
(0.998934 -0.00680608 0.0456523)
(0.995018 -0.0961078 -0.0265017)
(0.998809 -0.00667739 0.0483363)
(0.949458 -0.307634 -0.0623756)
(0.0298649 0.00037595 0.999554)
(0.03771 0.00726329 0.999262)
(0.925658 -0.244525 0.28873)
(0.00487451 -0.00864495 0.999951)
(0.937298 -0.252296 -0.240454)
(0.949059 -0.305326 0.0778657)
(-0.0153118 -0.00065837 0.999883)
(0.0243492 0.00568148 0.999687)
(0.0307105 0.00325898 0.999523)
(-0.00864548 -0.00294165 0.999958)
(0.945361 -0.326017 -0.00254845)
(0.946392 -0.322561 0.0171992)
(0.945838 -0.324333 0.0140637)
(0.946786 -0.321823 -0.00511865)
(0.949628 -0.307221 -0.0618235)
(0.0325115 0.00064264 0.999471)
(0.0398564 0.00720035 0.999179)
(0.929544 -0.244625 0.275875)
(0.949271 -0.304836 0.0771973)
(0.0061638 -0.00854808 0.999944)
(0.940627 -0.25255 -0.226801)
(0.994673 -0.0944612 0.0412725)
(0.998789 -0.00584475 0.0488425)
(0.99514 -0.0951075 -0.0255005)
(0.998794 -0.00583661 0.0487564)
(0.948647 -0.306075 0.0799192)
(0.0192798 0.00370233 0.999807)
(-0.00432163 -0.00513913 0.999977)
(0.94345 -0.254468 -0.212481)
(0.949952 -0.306798 -0.0588806)
(0.0282855 0.011521 0.999533)
(0.92075 -0.242686 0.305488)
(0.945925 -0.324383 -0.00145547)
(0.94693 -0.32095 0.0177506)
(0.946381 -0.322761 0.0137342)
(0.947434 -0.319924 -0.00419969)
(-0.0145025 -5.61141e-05 0.999895)
(0.0262964 0.0061664 0.999635)
(0.0334762 0.0034143 0.999434)
(-0.00735879 -0.0025322 0.99997)
(0.0318702 0.00330794 0.999487)
(-0.00806938 -0.00276016 0.999964)
(-0.0152204 -8.65057e-05 0.999884)
(0.0247111 0.00621302 0.999675)
(0.946066 -0.323689 0.0135892)
(0.947065 -0.321004 -0.00504978)
(0.945746 -0.324904 -0.00154938)
(0.946773 -0.321424 0.0175451)
(0.946737 -0.321806 0.0113734)
(0.947898 -0.318542 -0.0045826)
(0.946242 -0.323459 -0.00115802)
(0.947206 -0.320162 0.0172365)
(0.0353906 0.00301392 0.999369)
(-0.00762573 -0.00250223 0.999968)
(-0.0140952 0.000191806 0.999901)
(0.0278797 0.00634017 0.999591)
(0.949563 -0.304262 0.0758565)
(0.000918213 -0.00692692 0.999976)
(0.0253536 0.00197244 0.999677)
(0.957066 -0.255413 -0.13707)
(0.950999 -0.305285 -0.0490006)
(0.0404204 0.0096097 0.999137)
(0.947592 -0.24815 0.201221)
(0.950963 -0.305685 -0.0471797)
(0.0364769 -0.008244 0.9993)
(0.052175 0.000344354 0.998638)
(0.959407 -0.25232 0.12599)
(0.00681108 -0.0135643 0.999885)
(0.959864 -0.253692 -0.119588)