/*--------------------------------*- C++ -*----------------------------------*\
| =========                 |                                                 |
| \\      /  F ield         | OpenFOAM: The Open Source CFD Toolbox           |
|  \\    /   O peration     | Version:  2012                                  |
|   \\  /    A nd           | Website:  www.openfoam.com                      |
|    \\/     M anipulation  |                                                 |
\*---------------------------------------------------------------------------*/
FoamFile
{
    version     2.0;
    format      ascii;
    class       volVectorField;
    location    "0.106/solid";
    object      sigmaMinDir;
}
// * * * * * * * * * * * * * * * * * * * * * * * * * * * * * * * * * * * * * //

dimensions      [1 -1 -2 0 0 0 0];


internalField   nonuniform List<vector> 
3125
(
(0.200821 0.979625 0.00233288)
(0.193063 0.981186 -0.000149641)
(0.17728 0.984153 -0.0039453)
(0.176541 0.984284 -0.00426679)
(0.172092 0.985058 -0.00673314)
(0.171248 0.985204 -0.00685101)
(0.169427 0.983687 0.0604601)
(0.179612 0.978405 0.102293)
(0.182649 0.983175 -0.0025334)
(0.180581 0.983555 -0.0031194)
(0.174686 0.984611 -0.00517646)
(0.174092 0.984713 -0.00564542)
(0.16776 0.985826 -0.00180367)
(0.166519 0.986029 0.00427894)
(0.209464 0.977747 0.0116216)
(0.429798 0.90292 0.00289992)
(-0.0395915 0.999107 -0.0147789)
(0.281432 0.959426 -0.017253)
(0.435985 0.899907 0.00919526)
(0.273042 0.961889 -0.0147315)
(0.420341 0.907364 -0.00195623)
(-0.0454544 0.998919 -0.00970962)
(0.188327 0.982106 0.000278049)
(-0.0456642 0.998937 0.00634615)
(0.261791 0.965005 -0.0151833)
(0.417998 0.908441 -0.00365528)
(0.265071 0.96421 -0.00601019)
(0.178217 0.983985 -0.00339188)
(0.413093 0.910676 -0.00485691)
(0.261297 0.965225 -0.00808128)
(0.413725 0.910391 -0.00445455)
(0.261026 0.965297 -0.00812781)
(0.412592 0.910902 -0.00512794)
(0.175937 0.984392 -0.00437298)
(0.261042 0.965307 -0.00630585)
(0.412521 0.910932 -0.00541113)
(0.25707 0.96636 -0.00797342)
(0.172836 0.98493 -0.00643029)
(0.412102 0.911103 -0.00793306)
(0.255798 0.966671 -0.0107232)
(0.412124 0.911097 -0.0074393)
(0.253861 0.96719 -0.00987178)
(0.412186 0.911065 -0.00794412)
(0.170256 0.985379 -0.00638889)
(0.254726 0.966974 -0.00866403)
(0.412308 0.911013 -0.00754381)
(0.252173 0.964953 0.0726284)
(0.166239 0.985539 0.0328214)
(0.422032 0.902613 0.08473)
(0.199317 0.589332 0.782918)
(0.418593 0.907133 0.0434771)
(-0.0194743 -0.00285031 0.999806)
(0.426489 0.890281 0.159709)
(0.213878 0.957629 0.192882)
(0.150123 0.385709 0.910325)
(0.41833 0.848437 0.324276)
(0.581495 0.81354 0.00405545)
(-0.136577 0.990561 -0.0116386)
(0.579073 0.815256 -0.00558459)
(0.579025 0.815306 -0.00246936)
(-0.144178 0.989529 -0.00672548)
(-0.138892 0.990293 0.00534258)
(0.278902 0.960253 -0.0112838)
(0.185312 0.982679 -0.000827117)
(0.416397 0.909175 -0.00384579)
(0.265993 0.963926 -0.00968598)
(0.418349 0.90828 -0.00328776)
(-0.140373 0.990094 -0.00290543)
(-0.136627 0.990618 0.00299873)
(0.579249 0.815149 -0.00142736)
(0.57978 0.814719 -0.00937752)
(0.265306 0.964129 -0.00822634)
(0.179252 0.983799 -0.00301206)
(0.414225 0.910164 -0.00448708)
(0.263392 0.964657 -0.00783043)
(0.413781 0.910364 -0.00465143)
(0.579295 0.815116 -0.00163012)
(0.579274 0.815086 -0.00878171)
(-0.14096 0.990014 -0.00148406)
(-0.140032 0.990147 -9.76378e-05)
(-0.141568 0.989926 -0.00207347)
(-0.140364 0.9901 0.00057278)
(0.578741 0.815465 -0.00870079)
(0.579123 0.815238 -0.00179163)
(0.579187 0.815146 -0.00886352)
(0.579603 0.814896 -0.00210782)
(-0.141158 0.989986 -0.0013546)
(-0.141017 0.990007 -0.000581666)
(0.260627 0.96542 -0.00615562)
(0.175317 0.984501 -0.00473125)
(0.412225 0.911061 -0.00611898)
(0.258674 0.965923 -0.00896617)
(0.412459 0.910959 -0.00555112)
(-0.141589 0.989925 -0.00125049)
(-0.141064 0.99 -0.000865704)
(0.579944 0.814652 -0.00277535)
(0.579633 0.814824 -0.00933612)
(0.257509 0.966226 -0.00982612)
(0.173497 0.984816 -0.00600264)
(0.412104 0.911113 -0.00653667)
(0.258338 0.966028 -0.00720166)
(0.412097 0.911112 -0.00710257)
(0.581096 0.813822 -0.00454811)
(0.580496 0.814187 -0.0111467)
(-0.143055 0.989714 -0.00140987)
(-0.142262 0.989828 -0.00135315)
(-0.141715 0.989907 -0.00135386)
(-0.142072 0.989856 -0.00115511)
(0.579925 0.814607 -0.0101521)
(0.580472 0.814272 -0.00375799)
(0.581121 0.813732 -0.0118085)
(0.58187 0.813273 -0.00374404)
(-0.14335 0.989671 -0.00153054)
(0.252176 0.967655 -0.00715982)
(0.169072 0.985591 -0.00500265)
(0.413077 0.910694 -0.00198233)
(0.251596 0.967832 0.000100958)
(0.412619 0.910886 -0.00572811)
(0.582614 0.812742 0.00334338)
(0.581933 0.813173 -0.0101488)
(0.253479 0.96586 0.0535033)
(0.165774 0.986048 0.0150869)
(0.414132 0.910199 0.00569747)
(0.249593 0.968336 0.00540461)
(0.415749 0.909273 0.0193523)
(0.573804 0.811383 0.111384)
(0.582055 0.812438 0.0339988)
(0.582696 0.81269 -0.000219204)
(0.582353 0.812408 0.0293042)
(0.567793 0.81042 0.14433)
(0.47418 0.778331 0.411527)
(-0.0408074 -0.0249243 0.998856)
(0.434985 0.739544 0.513676)
(0.409541 0.737907 0.536441)
(0.38987 0.920465 0.0272885)
(0.395004 0.632778 0.666006)
(0.238027 0.971238 -0.00634892)
(0.337931 0.94102 -0.0168479)
(0.363816 0.931459 -0.00475611)
(0.126977 0.991906 0.000226598)
(0.232306 0.972597 0.00945352)
(0.30386 0.952664 -0.010037)
(0.351985 0.935876 -0.0155549)
(0.104108 0.994506 -0.0109126)
(0.225311 0.97414 -0.0169088)
(0.358008 0.933709 0.00415186)
(0.115667 0.993278 -0.00438709)
(0.216961 0.976154 0.00712933)
(0.0995532 0.995032 -0.000972202)
(0.27604 0.960939 -0.0199545)
(0.345017 0.938511 -0.0126815)
(0.343218 0.939253 -0.00236213)
(0.0976748 0.995215 -0.00271326)
(0.217801 0.975917 -0.0121526)
(0.217161 0.975992 -0.0167414)
(0.25867 0.965694 -0.0229041)
(0.345135 0.938541 -0.00470143)
(0.0970488 0.99523 -0.00994466)
(0.21955 0.975597 0.00291046)
(0.342712 0.939268 -0.0180262)
(0.0956347 0.995381 -0.00838466)
(0.212894 0.976967 -0.0145193)
(0.0948584 0.995489 -0.00169192)
(0.267193 0.963612 -0.00770926)
(0.342193 0.939628 0.00190308)
(0.213158 0.97699 0.00741025)
(0.341441 0.939826 -0.0120707)
(0.0947195 0.995497 -0.00368965)
(0.212403 0.97716 0.00657697)
(0.264547 0.96436 -0.0049167)
(0.340813 0.940041 -0.0130321)
(0.0932336 0.995636 -0.00417629)
(0.212014 0.977148 -0.0152569)
(0.341086 0.940031 0.00116622)
(0.0942037 0.99555 -0.0023833)
(0.211606 0.977334 0.00642483)
(0.0929927 0.995661 -0.00339023)
(0.264725 0.964305 -0.00596867)
(0.340437 0.940181 -0.012776)
(0.340327 0.940307 0.000833164)
(0.0936926 0.995599 -0.00220062)
(0.211486 0.977267 -0.0149371)
(0.211728 0.977208 -0.0153649)
(0.264147 0.964442 -0.00879871)
(0.34072 0.940164 0.00053314)
(0.0931931 0.995643 -0.00329896)
(0.211716 0.977313 0.0059127)
(0.340089 0.940303 -0.013031)
(0.0936002 0.9956 -0.00437935)
(0.209708 0.977613 -0.0171741)
(0.0909572 0.995847 -0.00384847)
(0.260431 0.965436 -0.0104697)
(0.339752 0.940514 -0.00117294)
(0.209779 0.977739 0.00449923)
(0.338902 0.9407 -0.0151583)
(0.0909974 0.995836 -0.00547412)
(0.209416 0.977818 0.00418587)
(0.258404 0.966006 -0.00769978)
(0.338895 0.940693 -0.0157112)
(0.0899376 0.995934 -0.00520179)
(0.209209 0.977716 -0.017425)
(0.339133 0.940737 -0.00166943)
(0.0908941 0.995853 -0.00377288)
(0.208564 0.978001 0.00393945)
(0.0886991 0.996045 -0.00514469)
(0.255874 0.96668 -0.00762342)
(0.33857 0.940815 -0.0153953)
(0.33892 0.940814 -0.00175742)
(0.0897142 0.995959 -0.00404381)
(0.208374 0.977895 -0.0173386)
(0.208866 0.977782 -0.0178158)
(0.258697 0.9659 -0.0106499)
(0.33943 0.940629 -0.00205029)
(0.0897667 0.995953 -0.00447011)
(0.208921 0.977925 0.00371305)
(0.338484 0.940839 -0.0158475)
(0.0897649 0.995945 -0.00598314)
(0.213581 0.976671 0.022275)
(0.0914514 0.995665 0.0169805)
(0.264728 0.948074 0.176279)
(0.345951 0.937047 0.0475417)
(0.211463 0.976751 0.0352164)
(0.346192 0.936882 0.0490158)
(0.094077 0.995302 0.0228821)
(0.216455 0.974388 0.0609481)
(0.256939 0.933816 0.248937)
(0.350878 0.929815 0.111035)
(0.102367 0.993593 0.0478897)
(0.220445 0.973942 0.0533036)
(0.350317 0.931811 0.0949011)
(0.0982321 0.994531 0.0354761)
(0.247302 0.958864 0.139361)
(0.174071 0.94758 -0.267939)
(0.0364289 0.0933472 0.994967)
(0.129048 0.430248 0.893439)
(0.319423 0.799447 0.508777)
(0.1332 0.990992 0.0139089)
(0.281712 0.957222 0.0660709)
(0.234966 0.967756 0.0907736)
(0.0539534 0.141286 0.988497)
(0.357937 0.914318 0.189483)
(0.108522 0.992322 0.0593212)
(0.226174 0.969065 0.0987878)
(0.351518 0.900089 0.25744)
(0.116219 0.991523 0.0580914)
(0.414687 0.909905 -0.010391)
(0.521001 0.853445 -0.0137931)
(0.584365 0.81149 -0.00102616)
(0.525156 0.851004 -0.00209624)
(0.403646 0.914645 -0.0222474)
(0.41115 0.911484 0.012401)
(0.585521 0.810604 0.00927335)
(0.52714 0.849773 0.00292316)
(-0.191469 0.981473 -0.0071665)
(-0.12407 0.992207 -0.0114805)
(0.00488289 0.999825 -0.0180851)
(0.0217542 0.999752 -0.00477928)
(-0.114038 0.993474 -0.00221183)
(0.0285279 0.999545 -0.00981964)
(-0.218773 0.97568 -0.0136872)
(-0.202802 0.979187 0.00800098)
(0.39996 0.916206 -0.0244532)
(0.395442 0.918479 -0.00463887)
(0.515393 0.856852 -0.0131768)
(0.577611 0.816311 -0.00089177)
(0.51397 0.857591 -0.0192853)
(0.398725 0.91707 0.000702569)
(0.395075 0.918198 -0.028786)
(0.517737 0.855377 -0.0166649)
(0.577897 0.816057 -0.00929315)
(0.514781 0.857213 -0.0136389)
(-0.217753 0.975982 -0.00648607)
(-0.218901 0.975729 0.005939)
(-0.145835 0.989309 0.000324694)
(0.00224498 0.999969 -0.00758007)
(0.00228531 0.999971 -0.00723893)
(0.00744184 0.999971 -0.0015952)
(-0.142797 0.989738 0.00531943)
(0.00376114 0.999983 0.00439325)
(-0.223057 0.974804 0.00173845)
(-0.221167 0.975174 -0.0110157)
(0.217581 0.975954 -0.0131331)
(0.100297 0.994958 -3.70879e-05)
(0.279555 0.960089 -0.00879128)
(0.346512 0.938043 0.00226976)
(0.218155 0.975868 0.00952428)
(0.0997391 0.99501 -0.00273001)
(0.345807 0.938236 -0.0114742)
(0.216197 0.976324 0.00713177)
(0.270777 0.962626 -0.00556879)
(0.0953593 0.995429 -0.0053392)
(0.343144 0.939181 -0.0138479)
(0.0976839 0.995214 -0.00260985)
(0.344411 0.938818 0.00125602)
(0.214775 0.97654 -0.0155373)
(-0.217759 0.975966 0.00847127)
(-0.217613 0.975998 -0.00851187)
(-0.138305 0.990387 -0.00248318)
(0.0016346 0.999961 -0.00865564)
(0.00504728 0.999986 0.0014808)
(0.00744773 0.999953 0.0062442)
(-0.136563 0.990631 -0.000687591)
(0.0062576 0.999958 -0.0066981)
(-0.223176 0.974724 -0.0102342)
(-0.220232 0.975422 0.00700439)
(0.401212 0.915984 0.00151264)
(0.40051 0.916064 -0.0204379)
(0.519175 0.854515 -0.0161696)
(0.579659 0.814813 -0.00870818)
(0.519415 0.854461 -0.0102112)
(0.39835 0.916954 -0.0226512)
(0.3993 0.916812 0.00401459)
(0.519599 0.854353 -0.00987285)
(0.580065 0.814569 -0.00146537)
(0.520609 0.853671 -0.0145772)
(0.213334 0.976954 0.00702006)
(0.269356 0.96301 -0.00773385)
(0.0950808 0.995466 -0.00251487)
(0.341833 0.939683 -0.012065)
(0.213339 0.976879 -0.0139069)
(0.095423 0.995435 -0.00192174)
(0.341409 0.939914 0.000794447)
(0.213425 0.976839 -0.0153144)
(0.265703 0.963994 -0.0108133)
(0.0945966 0.995506 -0.00437582)
(0.341923 0.939728 -0.000444542)
(0.213705 0.976882 0.00553706)
(0.0949775 0.995468 -0.00479547)
(0.341078 0.939936 -0.013648)
(0.398063 0.91735 0.00378669)
(0.39685 0.917652 -0.0206069)
(0.519276 0.854475 -0.0149852)
(0.579153 0.815172 -0.008768)
(0.518689 0.854915 -0.0090384)
(0.396971 0.917567 -0.0220062)
(0.396358 0.918088 0.00376279)
(0.519181 0.854623 -0.00847707)
(0.579292 0.815119 -0.00137781)
(0.519395 0.85442 -0.0139859)
(-0.223529 0.97467 0.00727382)
(-0.222305 0.974935 -0.00905639)
(-0.140489 0.990081 -0.00125759)
(0.000826469 0.999976 -0.00685291)
(0.00210279 0.999995 0.00240852)
(0.00260254 0.99999 0.00367371)
(-0.140083 0.990139 -0.0012091)
(0.00234 0.999976 -0.00656976)
(-0.224736 0.974375 -0.00933907)
(-0.223393 0.974705 0.00676014)
(-0.222734 0.974847 -0.00789329)
(-0.221697 0.975091 0.00693266)
(0.00149656 0.999999 0.000446992)
(-0.141635 0.989919 -0.000733676)
(0.00223367 0.999977 -0.00637173)
(-0.224101 0.974552 0.00520136)
(-0.221693 0.97507 -0.00956105)
(0.00274289 0.999985 -0.00472393)
(-0.140977 0.990013 0.000760427)
(0.00262356 0.99999 0.00357999)
(0.397859 0.917188 -0.0217547)
(0.395758 0.918353 0.00173715)
(0.517762 0.855459 -0.0106053)
(0.578478 0.815696 -0.00173441)
(0.517688 0.855426 -0.0156786)
(0.397176 0.91774 0.00236836)
(0.395683 0.918105 -0.0227576)
(0.519078 0.854601 -0.0146824)
(0.578575 0.815578 -0.00909547)
(0.5177 0.855505 -0.00985211)
(0.396963 0.917562 -0.0223757)
(0.395468 0.918476 0.00260384)
(0.518685 0.854916 -0.00923025)
(0.579155 0.815215 -0.00178455)
(0.518864 0.854726 -0.0149332)
(0.39665 0.917964 0.00323664)
(0.395521 0.918197 -0.0218509)
(0.519655 0.854236 -0.0154567)
(0.579179 0.815148 -0.00924944)
(0.518587 0.85497 -0.00967599)
(-0.225059 0.974308 -0.00847985)
(-0.223715 0.97463 0.00694466)
(-0.141088 0.989996 -0.00115504)
(0.000929943 0.999998 0.00191092)
(0.00141662 0.999978 -0.00646304)
(0.000855571 0.999983 -0.00571483)
(-0.140975 0.990013 -0.000399604)
(0.00154961 0.999994 0.00306357)
(-0.225448 0.974237 0.00602078)
(-0.223113 0.974748 -0.00937636)
(0.211143 0.977332 -0.0155051)
(0.0927882 0.995682 -0.00262037)
(0.263265 0.964684 -0.00868145)
(0.340653 0.940189 0.000860101)
(0.211264 0.977409 0.00622041)
(0.0928422 0.995671 -0.00434035)
(0.339907 0.940368 -0.0131219)
(0.210847 0.977502 0.00575719)
(0.261811 0.965101 -0.00595423)
(0.0918235 0.995766 -0.00431875)
(0.339775 0.940405 -0.0138508)
(0.092664 0.995694 -0.00274658)
(0.339893 0.940464 0.00021238)
(0.210628 0.977437 -0.0159297)
(-0.225965 0.974112 0.006705)
(-0.224224 0.974493 -0.00930328)
(-0.141336 0.989961 -0.00104611)
(-0.000264384 0.999978 -0.00659414)
(0.000740669 0.999997 0.00247579)
(0.000785366 0.999996 0.00280391)
(-0.141154 0.989987 -0.00137834)
(0.000769699 0.999977 -0.00671007)
(-0.226299 0.974015 -0.00910793)
(-0.225169 0.974297 0.00666388)
(0.396968 0.917827 0.00304291)
(0.395749 0.918091 -0.0221841)
(0.5199 0.854056 -0.0171027)
(0.5796 0.814843 -0.00977878)
(0.518957 0.854732 -0.0108392)
(0.396529 0.917715 -0.0237458)
(0.395462 0.91848 0.00220793)
(0.51936 0.854501 -0.00967902)
(0.579662 0.814854 -0.00220219)
(0.519559 0.85429 -0.0156971)
(0.21018 0.97765 0.00500803)
(0.260691 0.965397 -0.00703813)
(0.0911128 0.99583 -0.00456334)
(0.339382 0.940534 -0.0146771)
(0.210025 0.977556 -0.0165484)
(0.0919445 0.995759 -0.00317367)
(0.339471 0.940616 -0.000735614)
(0.210381 0.977481 -0.0164497)
(0.261697 0.9651 -0.00983319)
(0.091737 0.995777 -0.00358222)
(0.339978 0.940433 -0.000395465)
(0.210393 0.977603 0.00510206)
(0.0919517 0.995751 -0.00503239)
(0.339242 0.940591 -0.0142714)
(0.396513 0.918029 0.000248081)
(0.395415 0.918155 -0.0252543)
(0.520945 0.853334 -0.0209191)
(0.58059 0.814112 -0.0116742)
(0.519643 0.854257 -0.0147056)
(0.396462 0.917662 -0.0267068)
(0.395177 0.918605 -0.000574401)
(0.519886 0.854129 -0.0135083)
(0.58064 0.814151 -0.0040502)
(0.520367 0.853716 -0.0196821)
(-0.22852 0.973519 0.00624801)
(-0.226363 0.973995 -0.00970581)
(-0.142685 0.989767 -0.0012903)
(-0.00232293 0.999973 -0.00699016)
(-0.00105414 0.999998 0.00194635)
(-0.000964216 0.999997 0.0020539)
(-0.142438 0.989802 -0.00173048)
(-0.00111098 0.999972 -0.00733294)
(-0.228631 0.973469 -0.00923158)
(-0.227779 0.973692 0.00637558)
(-0.227175 0.973812 -0.00901119)
(-0.226123 0.974077 0.00657191)
(-0.000210098 0.999998 0.00203275)
(-0.141749 0.989901 -0.00152629)
(-4.30696e-05 0.999976 -0.00697786)
(-0.227357 0.973792 0.00615278)
(-0.225075 0.974294 -0.0095817)
(-0.000969357 0.999978 -0.00652371)
(-0.141838 0.989889 -0.000995522)
(3.3992e-05 0.999997 0.0023778)
(0.396497 0.917688 -0.0252716)
(0.395174 0.918606 0.000626661)
(0.519405 0.85445 -0.011552)
(0.580012 0.814602 -0.00313443)
(0.519753 0.854133 -0.0177203)
(0.396431 0.918063 0.00161039)
(0.395326 0.91823 -0.0238888)
(0.520388 0.853716 -0.0191013)
(0.580001 0.814544 -0.0107747)
(0.519205 0.854554 -0.0128072)
(0.396829 0.917543 -0.0253402)
(0.395393 0.918512 -0.000422354)
(0.520363 0.853815 -0.0149238)
(0.581342 0.813647 -0.00436769)
(0.521058 0.853276 -0.0204524)
(0.396536 0.918019 -0.000879146)
(0.395569 0.918076 -0.0257322)
(0.521723 0.852898 -0.0192224)
(0.581292 0.813613 -0.0115845)
(0.52025 0.853893 -0.0143878)
(-0.230187 0.973103 -0.00915859)
(-0.229684 0.973245 0.00633578)
(-0.143594 0.989635 -0.00180978)
(-0.00228772 0.999996 0.00164124)
(-0.00257867 0.999967 -0.00772672)
(-0.00385002 0.999968 -0.00703557)
(-0.143858 0.989597 -0.00128689)
(-0.00242661 0.999996 0.00167376)
(-0.230428 0.973071 0.00605862)
(-0.227889 0.973637 -0.00991627)
(0.208109 0.977968 -0.0163869)
(0.0885293 0.996065 -0.00404153)
(0.256764 0.966453 -0.00643117)
(0.339458 0.940621 -0.00065797)
(0.2081 0.978097 0.00455406)
(0.0885498 0.996059 -0.00513257)
(0.338462 0.940882 -0.0135605)
(0.207906 0.978125 0.00682233)
(0.252431 0.967612 -0.00223038)
(0.0879166 0.996125 -0.00229184)
(0.338968 0.940753 -0.00919577)
(0.088687 0.996057 -0.00232841)
(0.339255 0.940691 0.00271887)
(0.207899 0.978061 -0.0132389)
(-0.232586 0.972555 0.00638851)
(-0.229542 0.97325 -0.00973975)
(-0.00472508 0.999972 -0.00571795)
(-0.00358493 0.999991 0.00212322)
(-0.00373395 0.999991 0.00176723)
(-0.00403185 0.999963 -0.00759192)
(-0.231107 0.972895 -0.00809256)
(-0.231686 0.972765 0.0070172)
(0.397154 0.917751 0.00156863)
(0.396438 0.917844 -0.0199638)
(0.522594 0.852577 -0.00267203)
(0.582086 0.813098 -0.00689269)
(0.521248 0.853399 -0.00331459)
(0.3982 0.91722 -0.0120182)
(0.396433 0.918035 0.00732403)
(0.521181 0.853375 -0.0110507)
(0.582189 0.813053 -0.00129767)
(0.522002 0.852836 -0.0135805)
(0.209035 0.977705 0.0199475)
(0.250814 0.96765 0.0273138)
(0.0899702 0.995895 0.00988076)
(0.342141 0.939494 0.0170549)
(0.209989 0.977697 0.00359721)
(0.0896512 0.995953 0.0062862)
(0.341933 0.939441 0.0230596)
(0.208462 0.978 -0.0076816)
(0.256815 0.966296 0.0178172)
(0.0880503 0.996116 0.000314548)
(0.340737 0.940112 0.00936801)
(0.207965 0.978072 0.0112117)
(0.0886228 0.996065 0.000825068)
(0.340116 0.940383 -0.000249345)
(0.40465 0.910449 0.0856748)
(0.402731 0.906766 0.12483)
(0.480135 0.816022 0.321834)
(0.578411 0.812464 0.0730964)
(0.505101 0.832172 0.228829)
(0.39092 0.871984 0.294662)
(0.403579 0.897013 0.180254)
(0.520482 0.847058 0.107663)
(0.580618 0.812036 0.0589924)
(0.51324 0.844443 0.153301)
(-0.233273 0.972286 0.0156334)
(-0.226254 0.974068 9.67521e-05)
(0.0076225 0.999877 0.0137409)
(0.000845861 0.999845 0.0175827)
(-0.00416964 0.999929 0.0111298)
(-0.00250088 0.999991 0.00342162)
(-0.21909 0.975631 0.0119666)
(-0.228253 0.97333 0.0230063)
(-0.229814 0.973227 -0.00378695)
(-0.232035 0.972654 0.0102039)
(-0.00426752 0.999984 0.00368306)
(-0.00457782 0.999975 -0.00532722)
(-0.233943 0.972214 0.008433)
(-0.229667 0.973236 -0.0080035)
(-0.00500796 0.999987 -0.000538228)
(-0.00363705 0.999979 0.00534013)
(0.401999 0.914552 0.0446225)
(0.399937 0.915558 0.0424727)
(0.522538 0.852513 0.0132418)
(0.582782 0.812527 0.0128576)
(0.522689 0.852257 0.0213114)
(0.399251 0.91666 0.0182335)
(0.399226 0.916808 0.00904838)
(0.521061 0.850995 0.0656022)
(0.582464 0.812765 0.0121829)
(0.522099 0.851651 0.0458621)
(0.114801 0.332189 0.9362)
(0.260323 0.589866 0.764389)
(0.447967 0.770064 0.454233)
(0.553109 0.805693 0.211965)
(0.374916 0.706732 0.599973)
(0.388552 0.838731 0.38152)
(0.285411 0.66958 0.685713)
(0.204108 0.531048 0.822392)
(0.529441 0.7995 0.283711)
(0.296244 0.612974 0.732463)
(0.112256 0.710875 -0.694303)
(-0.213113 0.977001 0.00724381)
(0.013607 0.999516 0.027985)
(0.0332527 0.999264 -0.0191183)
(0.139508 0.948896 -0.283081)
(0.049579 0.998325 -0.0298148)
(-0.223833 0.973801 0.040132)
(-0.206372 0.978453 -0.00639239)
(0.363919 0.832311 -0.418116)
(-0.206829 -0.619273 0.757445)
(-0.0729396 -0.0566248 0.995728)
(0.00107662 0.165913 0.98614)
(0.318744 0.944555 0.0788547)
(-0.206689 -0.55691 0.804445)
(-0.0599608 -0.0141832 0.9981)
(0.332804 0.9386 -0.0909417)
(0.188 0.936892 -0.294772)
(0.441755 0.895795 0.049025)
(0.353666 0.499472 0.790853)
(0.113587 0.186843 0.975801)
(0.373383 0.592143 0.714109)
(0.386212 0.915987 -0.108664)
(-0.049419 -0.0621939 0.99684)
(0.170074 0.846429 -0.504611)
(-0.0440805 -0.0468654 0.997928)
(-0.176342 -0.599224 0.780919)
(-0.190234 -0.523143 0.830742)
(0.223877 0.927329 -0.2999)
(0.18947 0.916103 -0.35335)
(0.230921 0.882263 -0.410228)
(-0.0888153 -0.549965 0.830452)
(0.100524 0.284664 0.953342)
(-0.0247818 0.067333 0.997423)
(0.326193 0.474494 0.81759)
(0.0363757 0.1173 0.99243)
(-0.0319812 0.00920719 0.999446)
(0.154543 0.442803 0.8832)
(0.353879 0.627143 0.693874)
(0.0960807 0.286858 0.953143)
(0.346932 0.937549 -0.0253023)
(0.344338 0.93855 -0.0235646)
(0.304049 0.952428 -0.0208806)
(0.287504 0.957495 -0.023322)
(0.323066 0.946283 0.0132763)
(0.293806 0.955651 -0.0202367)
(0.278225 0.96017 -0.0257658)
(0.256122 0.966311 -0.0253926)
(0.318685 0.947131 -0.0371763)
(0.279778 0.960045 -0.00612594)
(0.258549 0.965991 -0.00383383)
(0.315461 0.948721 0.0203191)
(0.252515 0.967436 -0.0174471)
(0.278083 0.960464 -0.0133582)
(0.27176 0.962111 -0.0221085)
(0.270221 0.962797 -0.00176765)
(0.251345 0.967882 0.00547308)
(0.315242 0.948624 -0.027093)
(0.31061 0.949767 -0.0382711)
(0.264066 0.964298 -0.0199518)
(0.271912 0.962311 -0.00467906)
(0.251262 0.967913 -0.00355418)
(0.311798 0.950108 0.00873873)
(0.269073 0.962739 -0.0270929)
(0.248504 0.968239 -0.0275648)
(0.312082 0.949592 -0.0296691)
(0.245587 0.969347 0.00736274)
(0.27024 0.962767 -0.00703059)
(0.264832 0.964282 0.00483285)
(0.311224 0.95012 0.0202901)
(0.264108 0.964367 -0.0156189)
(0.24485 0.96942 -0.016513)
(0.0974898 0.995235 -0.00185563)
(0.00747019 0.999966 -0.00335303)
(0.0970255 0.995267 -0.00550792)
(0.00799541 0.999965 -0.00252981)
(0.0978622 0.995188 -0.00477919)
(0.00859163 0.999962 -0.00125534)
(0.0982784 0.995159 -0.000850463)
(0.00842127 0.999961 -0.00271802)
(0.31043 0.95039 0.0198022)
(0.267146 0.963628 -0.00730053)
(0.262907 0.964648 -0.0182528)
(0.243376 0.969802 -0.015903)
(0.30946 0.950466 -0.0291252)
(0.26203 0.965058 0.00162)
(0.243224 0.969941 0.00752546)
(0.310418 0.95038 0.0204623)
(0.24285 0.969943 -0.0152975)
(0.266869 0.963704 -0.00748331)
(0.262176 0.964852 -0.018035)
(0.261484 0.965206 0.00169877)
(0.242667 0.970077 0.00789055)
(0.309343 0.95053 -0.0282789)
(0.0966152 0.995307 -0.00549627)
(0.00732286 0.999969 -0.00304193)
(0.0968153 0.9953 -0.00233013)
(0.00746288 0.999967 -0.00319238)
(0.0965118 0.99533 -0.00186015)
(0.00714135 0.999972 -0.00238034)
(0.00744133 0.99997 -0.00194194)
(0.0962701 0.995342 -0.00515172)
(0.310515 0.950059 -0.0311277)
(0.267181 0.963616 -0.00761123)
(0.262842 0.964831 0.00386459)
(0.243591 0.969858 0.0062175)
(0.309357 0.950771 0.0182534)
(0.262224 0.964864 -0.0165909)
(0.242988 0.969873 -0.0174322)
(0.308814 0.950558 -0.0327518)
(0.240696 0.970583 0.00578599)
(0.262731 0.964822 -0.00950844)
(0.260279 0.96553 0.00244041)
(0.307838 0.951273 0.0177417)
(0.259436 0.965581 -0.0185827)
(0.239701 0.97067 -0.0185367)
(0.307978 0.951223 0.0180001)
(0.260564 0.965404 -0.0101166)
(0.258586 0.965764 -0.0208194)
(0.238637 0.970954 -0.0173166)
(0.306975 0.951212 -0.0310164)
(0.258202 0.96609 -0.00108975)
(0.239148 0.970963 0.00624959)
(0.307233 0.951461 0.0181418)
(0.236671 0.971438 -0.0171659)
(0.257743 0.966166 -0.00961301)
(0.257076 0.966185 -0.0199541)
(0.257178 0.966364 -0.000256077)
(0.237707 0.971314 0.00663776)
(0.30625 0.951445 -0.0310277)
(0.308026 0.950772 -0.0339573)
(0.26069 0.965367 -0.0103392)
(0.259319 0.96579 0.00187521)
(0.239419 0.970901 0.00542388)
(0.307044 0.951541 0.0171171)
(0.258214 0.96589 -0.019556)
(0.238041 0.971062 -0.0193463)
(0.311953 0.950096 -0.00148166)
(0.23835 0.970107 0.0456151)
(0.260745 0.960895 0.0932299)
(0.263541 0.961325 0.0799993)
(0.310614 0.948942 0.0550317)
(0.258392 0.963981 0.0630394)
(0.234791 0.971879 0.018018)
(0.318286 0.940657 0.11772)
(0.238642 0.792559 0.56116)
(0.249966 0.886611 0.38915)
(0.243976 0.961389 0.12731)
(0.319441 0.945543 0.062503)
(0.269396 0.908467 0.31955)
(0.247147 0.95771 0.147342)
(0.055459 0.268359 0.961721)
(-0.0781551 -0.0850792 0.993304)
(-0.0050829 0.026174 0.999644)
(-0.0114788 0.0459011 0.99888)
(0.0257027 0.0930074 0.995334)
(-0.0539005 -0.0165693 0.998409)
(-0.118015 -0.110723 0.98682)
(0.326486 0.941829 0.0797746)
(0.109058 0.253417 0.96119)
(0.248862 0.756068 0.605333)
(0.249616 0.932654 0.260478)
(0.322002 0.932443 0.163906)
(0.17434 0.594097 0.785273)
(0.240624 0.928415 0.283099)
(0.362708 0.930894 -0.0433444)
(0.338836 0.9394 -0.0521386)
(0.341581 0.939817 -0.00809758)
(0.345453 0.938085 -0.0256605)
(0.311313 0.950111 -0.0193284)
(0.318425 0.947942 -0.00337554)
(0.332104 0.941857 -0.0511199)
(0.328016 0.944665 -0.00365468)
(0.330438 0.943827 -0.00157921)
(0.323292 0.944953 -0.0504662)
(0.310339 0.950509 -0.0149306)
(0.315596 0.94889 0.00261506)
(0.304726 0.952436 -0.00261572)
(0.310027 0.950504 -0.0206082)
(0.317746 0.947729 -0.0290865)
(0.251965 0.967721 0.0054409)
(0.282465 0.959222 -0.0103478)
(0.2712 0.962521 0.00175671)
(0.316575 0.948334 0.0210438)
(0.252295 0.967492 -0.0174994)
(0.271524 0.962274 -0.0174218)
(0.312641 0.949692 0.0184368)
(0.27202 0.962247 -0.00925186)
(0.246311 0.96903 -0.0176833)
(0.266418 0.963652 -0.019881)
(0.246571 0.969108 0.0056908)
(0.265854 0.964013 0.000174672)
(0.311402 0.949778 -0.03082)
(0.311582 0.950215 0.0029707)
(0.314889 0.949017 -0.0145437)
(0.305149 0.952212 -0.0132607)
(0.309823 0.950784 0.00440825)
(0.335316 0.942095 0.00442226)
(0.333243 0.942019 -0.039369)
(0.328991 0.943347 -0.0431331)
(0.327392 0.944882 0.00347438)
(0.312268 0.94976 0.0210893)
(0.271196 0.962493 -0.00778524)
(0.245746 0.96922 -0.0148888)
(0.264953 0.964097 -0.0177921)
(0.311207 0.949949 -0.0273179)
(0.245479 0.969369 0.00796842)
(0.264263 0.964449 0.00183555)
(0.0987993 0.995094 -0.00506878)
(0.00843852 0.999957 -0.00394292)
(0.0993483 0.99505 -0.00238508)
(0.0084838 0.999959 -0.00303313)
(0.311452 0.949713 -0.03228)
(0.269541 0.962944 -0.0092955)
(0.246112 0.969231 0.00446898)
(0.265514 0.964104 0.00228198)
(0.310449 0.950448 0.0164068)
(0.245214 0.969285 -0.0189058)
(0.26462 0.964182 -0.0181476)
(0.0986675 0.99512 -0.000808898)
(0.0087241 0.999961 -0.00101505)
(0.0984802 0.995131 -0.00387364)
(0.00872379 0.999962 -0.000901654)
(0.328439 0.944437 0.0129475)
(0.325569 0.944909 -0.0339542)
(0.326122 0.944442 -0.0409206)
(0.323611 0.946171 0.00604547)
(0.304859 0.952382 0.00543506)
(0.309591 0.950786 -0.0126624)
(0.303174 0.952858 -0.0120823)
(0.308016 0.951364 0.00575809)
(0.305399 0.952151 -0.0118139)
(0.310761 0.950471 0.00573076)
(0.304283 0.952575 0.00369176)
(0.310286 0.950539 -0.0140662)
(0.327761 0.943835 -0.041819)
(0.324547 0.945856 0.00495831)
(0.327653 0.944738 0.0106577)
(0.32376 0.945434 -0.0365294)
(0.325688 0.944552 -0.0418219)
(0.32268 0.946493 0.00544194)
(0.3261 0.945244 0.0131618)
(0.322919 0.945802 -0.0343713)
(0.302995 0.952918 -0.0118551)
(0.308175 0.951311 0.00586955)
(0.303041 0.952965 0.00491696)
(0.308593 0.951105 -0.013032)
(0.310207 0.950173 -0.0307107)
(0.242878 0.970032 0.00691585)
(0.265922 0.963965 -0.00750564)
(0.262201 0.965004 0.00429802)
(0.309287 0.950774 0.0192651)
(0.242142 0.97009 -0.0170803)
(0.261465 0.965074 -0.0163718)
(0.0955633 0.99542 -0.00259568)
(0.00619352 0.999975 -0.00340362)
(0.00660526 0.999974 -0.00271845)
(0.0952284 0.995437 -0.00610918)
(0.095784 0.995386 -0.00572859)
(0.00692292 0.999973 -0.00240178)
(0.0960852 0.995371 -0.00212869)
(0.00684615 0.999971 -0.00332679)
(0.30933 0.950757 0.0194126)
(0.264554 0.964335 -0.00826709)
(0.241372 0.970298 -0.0161616)
(0.260903 0.965177 -0.0190396)
(0.241307 0.970422 0.00721335)
(0.260087 0.965585 0.000687607)
(0.308314 0.950828 -0.0294822)
(0.302654 0.953086 0.00526226)
(0.307608 0.951426 -0.0128995)
(0.301815 0.953286 -0.0123815)
(0.306686 0.951795 0.00545153)
(0.326022 0.945274 0.0128847)
(0.322981 0.945758 -0.0350042)
(0.324637 0.944838 -0.0434905)
(0.321844 0.946784 0.00399816)
(0.308868 0.950917 0.0188896)
(0.263274 0.964677 -0.00918425)
(0.24033 0.97055 -0.0165806)
(0.259962 0.965414 -0.0198699)
(0.307821 0.950971 -0.030003)
(0.240397 0.970651 0.00681581)
(0.25927 0.965805 -0.000165935)
(0.0948082 0.995474 -0.00652881)
(0.00601462 0.999976 -0.00333157)
(0.0950584 0.995467 -0.00313212)
(0.00603425 0.999974 -0.00390744)
(0.309339 0.950414 -0.0319747)
(0.264186 0.964433 -0.00866577)
(0.241676 0.970338 0.00603127)
(0.261062 0.965317 0.00308884)
(0.308294 0.95112 0.0180437)
(0.240831 0.9704 -0.0180004)
(0.260311 0.965363 -0.0176808)
(0.324382 0.945876 0.00971236)
(0.321415 0.946112 -0.0395497)
(0.323043 0.945157 -0.0481839)
(0.31993 0.947441 0.000825272)
(0.300593 0.953742 0.00441334)
(0.305852 0.951977 -0.0139182)
(0.300049 0.953831 -0.0133087)
(0.304268 0.952575 0.0046513)
(0.30108 0.953514 -0.0127562)
(0.305909 0.952047 0.00509649)
(0.301456 0.953469 0.00467129)
(0.306856 0.95166 -0.0134998)
(0.323968 0.944957 -0.0458345)
(0.321017 0.947071 0.00223305)
(0.3249 0.945682 0.0112075)
(0.321869 0.946051 -0.0372612)
(0.321976 0.945565 -0.0473069)
(0.318558 0.947897 0.00352038)
(0.323456 0.9462 0.0090262)
(0.320612 0.946293 -0.0416769)
(0.298678 0.954259 -0.013455)
(0.302372 0.953179 0.00469103)
(0.299075 0.954221 0.00403292)
(0.304601 0.952369 -0.0145363)
(0.307414 0.950975 -0.033803)
(0.23787 0.971275 0.00650969)
(0.258334 0.966019 -0.00845783)
(0.258383 0.966034 0.00402907)
(0.306452 0.951712 0.0182046)
(0.235989 0.971572 -0.0188916)
(0.256824 0.966295 -0.0177811)
(0.306973 0.951444 0.0228434)
(0.254157 0.967162 -0.00129848)
(0.234378 0.972064 -0.0125805)
(0.255629 0.966717 -0.0105536)
(0.236157 0.971646 0.0115726)
(0.256528 0.966498 0.00869282)
(0.306039 0.951648 -0.0265708)
(0.297101 0.954836 0.00443677)
(0.302779 0.952951 -0.014488)
(0.296867 0.954858 -0.010764)
(0.299569 0.954044 0.00762123)
(0.322492 0.946456 0.0148148)
(0.319909 0.946672 -0.0383493)
(0.320919 0.946708 -0.027467)
(0.316899 0.948087 0.0265575)
(0.309364 0.949946 0.0435545)
(0.253094 0.966475 0.0432384)
(0.234093 0.972172 0.00910035)
(0.256835 0.965847 0.0342761)