/*--------------------------------*- C++ -*----------------------------------*\
| =========                 |                                                 |
| \\      /  F ield         | OpenFOAM: The Open Source CFD Toolbox           |
|  \\    /   O peration     | Version:  2012                                  |
|   \\  /    A nd           | Website:  www.openfoam.com                      |
|    \\/     M anipulation  |                                                 |
\*---------------------------------------------------------------------------*/
FoamFile
{
    version     2.0;
    format      ascii;
    class       volSymmTensorField;
    location    "0.106/solid";
    object      sigma;
}
// * * * * * * * * * * * * * * * * * * * * * * * * * * * * * * * * * * * * * //

dimensions      [1 -1 -2 0 0 0 0];


internalField   nonuniform List<symmTensor> 
3125
(
(358.193 213.794 -8.28507 1357.17 3.82807 506.721)
(360.821 201.972 -5.89258 1347.55 1.02536 508.015)
(353.158 180.422 -1.05736 1322.27 -3.22916 501.755)
(351.409 178.953 -0.959495 1317.05 -3.50987 499.793)
(333.045 169.065 -1.37424 1271.26 -5.36458 480.87)
(328.949 167.066 -1.61315 1261.08 -5.37322 477.146)
(281.872 154.078 -8.00696 1144.31 44.6171 470.105)
(271.568 159.702 -15.1792 1096.1 71.3069 477.493)
(358.68 188.79 -2.15115 1339.86 -1.8345 507.908)
(357.799 185.563 -1.62338 1334.44 -2.43577 506.54)
(345.147 175.16 -0.98859 1301.36 -4.23764 493.058)
(342.627 173.795 -1.05088 1294.94 -4.60291 490.418)
(312.242 159.363 -2.53655 1221.63 -1.00055 465.96)
(305.102 156.576 -2.93634 1205.72 3.83107 463.63)
(355.594 224.634 -5.27303 1355.6 11.8723 500.063)
(91.7636 425.787 -8.89633 783.497 6.57791 256.624)
(572.878 -39.6948 -16.6124 1566.6 -14.5129 631.764)
(267.235 55.1859 -10.8556 439.822 -1.34405 204.214)
(83.3703 436.751 -0.411113 773.174 7.72867 247.965)
(275.855 52.039 -1.49031 444.439 -3.35039 212.876)
(106.61 407.004 -6.36256 796.67 1.39387 264.595)
(572.057 -44.6368 -12.4786 1548.22 -9.49953 631.456)
(360.918 195.584 -2.2514 1343.36 0.678676 508.597)
(571.529 -44.7491 -3.06483 1548.79 5.70795 630.341)
(287.535 49.8114 -8.45198 458.098 -1.67747 219.292)
(108.454 400.231 -0.685132 794.12 -2.54179 268.233)
(274.948 49.7977 -0.681686 442.407 -1.32012 214.254)
(354.739 182.009 -0.981011 1326.71 -2.77343 503.562)
(106.104 383.832 -1.37826 778.162 -3.04012 265.038)
(275.866 48.6133 -2.05704 442.333 -1.45764 214.894)
(106.46 386.048 -1.27251 780.511 -2.79696 266.153)
(271.157 48.2562 -1.87509 436.609 -1.50053 211.241)
(105.772 381.582 -1.44129 775.375 -3.19898 264.013)
(349.438 177.715 -0.8343 1312.02 -3.60944 497.719)
(275.833 48.4746 -0.850044 441.99 -1.33948 214.869)
(104.555 380.05 -0.950094 771.667 -3.6159 262.65)
(261.138 46.7743 -1.05371 424.544 -1.63275 205.142)
(336.611 170.827 -1.24823 1280.13 -5.17229 484.351)
(94.4226 369.052 -1.73705 743.412 -4.95235 251.373)
(254.638 46.1213 -2.20789 416.799 -1.9322 202.174)
(96.6382 371.295 -1.83251 749.517 -4.59129 253.689)
(243.925 45.2044 -1.92448 404.343 -1.69777 200.395)
(91.8376 366.614 -2.21104 736.31 -4.69462 249.094)
(324.175 164.781 -1.85576 1249.43 -4.89688 473.22)
(253.82 45.8704 -1.14846 415.891 -1.72038 202.217)
(88.8682 363.866 -2.11874 728.169 -4.39195 246.7)
(197.389 43.1465 7.54736 352.821 7.5526 238.115)
(289.611 153.095 -4.77293 1169.62 25.1553 465.11)
(61.4624 353.107 -3.71098 645.823 53.1766 267.919)
(155.47 45.0556 15.0252 305.912 19.9911 328.835)
(67.1137 352.647 -2.07586 667.018 28.6487 253.36)
(63.7723 37.7593 -11.1252 197.326 -0.527845 640.245)
(53.3173 356.172 -9.74079 605.797 93.3372 298.878)
(247.847 183.944 -34.2917 975.813 117.291 496.214)
(147.958 44.3935 17.0978 298.802 21.0228 353.97)
(56.5339 362.969 -31.2414 524.847 169.179 366.135)
(-47.6442 604.516 -2.58964 365.968 5.36673 92.8146)
(1076.44 -63.5162 -14.018 1527.03 -10.9094 771.914)
(-37.5046 593.334 -2.71836 376.393 -2.85481 99.2305)
(-33.0539 579.365 -0.77275 371.269 -1.51427 101.574)
(1064.8 -65.8496 -10.3614 1506.62 -6.63642 761.952)
(1069.88 -63.5521 -2.91599 1514.18 3.66508 767.949)
(268.487 53.8034 -0.499321 438.092 -2.74046 208.194)
(359.588 192.3 -1.74385 1343.07 -0.403932 508.726)
(106.098 394.883 -2.69598 787.463 -1.72925 267.613)
(279.091 50.3586 -3.27772 447.792 -1.5475 217.688)
(104.912 399.28 -1.26414 787.886 -1.96585 267.858)
(1065.18 -64.1971 -3.36535 1508.8 -2.67374 769.363)
(1073.53 -62.8699 -3.12676 1520.76 1.85938 772.738)
(-32.0635 569.947 -0.960495 364.99 -0.490359 100.175)
(-35.1544 578.231 -1.0652 365.838 -7.04108 99.8194)
(275.995 49.7502 -1.75686 443.14 -1.58178 214.798)
(356.365 183.524 -0.940265 1330.18 -2.45714 505.117)
(108.615 389.641 -2.14998 787.443 -2.45698 267.933)
(281.882 49.5379 -1.88454 449.829 -1.4647 219.535)
(107.997 387.325 -0.747427 784.1 -3.20002 267.375)
(-30.4477 556.682 -0.579166 357.222 -0.897295 98.3577)
(-30.932 560.784 -0.849743 359.535 -6.49652 99.1136)
(1050.32 -63.8581 -1.55767 1489.7 -1.32822 760.695)
(1057.14 -63.7406 -1.54338 1498.83 -0.291512 765.118)
(1061.15 -64.4754 -2.67559 1502.73 -1.94397 766.536)
(1057.82 -63.875 -1.39663 1499.33 0.231978 765.135)
(-30.2842 566.719 -1.23601 365.989 -6.24309 100.925)
(-30.104 561.72 -0.489603 361.604 -1.10418 99.9476)
(-30.4911 555.282 -0.897284 356.41 -6.46248 98.0614)
(-31.2722 552.183 -0.514791 352.325 -1.31108 96.6465)
(1047.65 -63.8205 -1.45046 1486.13 -1.21441 758.849)
(1041.74 -63.5894 -1.3029 1479.11 -0.616332 755.026)
(270.616 48.1872 -0.81069 436.114 -1.29939 211.016)
(347.369 176.487 -0.945283 1307.02 -3.88276 495.492)
(101.96 376.834 -1.26658 764.289 -3.96274 259.478)
(267.989 47.4654 -2.05966 432.576 -1.64033 209.169)
(103.154 378.623 -1.4005 767.95 -3.49923 261.105)
(1032.23 -63.5099 -1.49551 1467.17 -1.13285 748.793)
(1039.82 -63.5501 -1.41768 1476.75 -0.842082 753.831)
(-32.5892 547.935 -0.615615 347.026 -1.75083 94.5381)
(-31.9906 551.243 -0.876745 350.729 -6.78961 95.9325)
(261.933 46.8814 -2.13296 425.41 -1.79625 205.395)
(339.777 172.383 -1.08255 1287.91 -4.87309 487.52)
(100.527 375.004 -1.58031 759.996 -4.10541 257.78)
(267.47 47.3599 -0.93447 431.917 -1.50678 208.954)
(98.6969 373.211 -1.36157 755.018 -4.59206 255.793)
(-37.0416 537.933 -0.909227 332.22 -2.857 88.9477)
(-35.6188 542.156 -1.11112 338.164 -7.88507 91.0022)
(1005.39 -63.2771 -2.17641 1434 -1.32573 733.328)
(1017.03 -63.307 -1.8242 1448.39 -1.24361 739.582)
(1029.35 -63.4562 -1.54784 1463.51 -1.21403 746.944)
(1020.33 -63.3345 -1.68253 1452.49 -1.08186 741.438)
(-33.3258 546.811 -0.972449 345.415 -7.29577 93.8186)
(-34.578 543.382 -0.726956 340.296 -2.41574 91.946)
(-38.3425 536.396 -1.29982 329.608 -8.14009 87.8821)
(-40.0628 531.089 -1.06427 322.253 -2.076 85.8931)
(1000.94 -63.2538 -2.40567 1428.44 -1.44083 731.261)
(242.696 44.832 -0.817814 403.056 -1.36826 201.024)
(318.627 162.183 -2.22985 1236.28 -3.65135 469.393)
(81.6786 357.883 -2.30011 708.369 -0.322228 243.373)
(228.047 44.1035 -0.21675 386.237 0.0763904 205.546)
(85.4385 360.978 -2.56479 718.822 -2.84742 244.808)
(-43.3684 522.967 -0.925669 311.26 3.13998 84.1701)
(-41.6682 529.212 -1.43199 319.056 -6.626 84.8412)
(201.65 43.5396 5.37125 356.918 6.19932 231.329)
(297.426 154.266 -3.45148 1188.59 12.0814 463.016)
(77.3313 355.251 -2.39136 696.421 4.93392 243.69)
(225.866 43.6703 1.21599 384.058 0.733958 207.66)
(72.6674 353.118 -1.83133 683.131 13.5835 245.997)
(-46.5538 510.372 1.96358 304.132 76.1307 110.822)
(-48.2363 514.575 -0.0684824 300.334 24.3258 89.8916)
(-45.2871 521.118 -1.17896 307.88 0.684076 83.7378)
(-46.3058 515.516 0.0502655 302.571 21.0678 87.7968)
(-47.7944 509.621 1.26193 305.389 98.1482 123.845)
(-15.0531 476.488 1.90928 330.901 279.035 238.777)
(47.6258 39.42 -25.5998 175.64 -11.4318 696.988)
(113.781 447.851 -28.7542 330.057 356.716 352.025)
(50.9856 455.839 -7.06698 331.993 382.504 342.294)
(187.269 359.131 -33.0751 880.152 19.6127 843.834)
(147.072 455.765 -25.3023 200.025 332.532 533.589)
(71.9807 253.659 -20.018 1045.37 -0.235709 320.987)
(200.156 71.3937 -10.4145 373.829 -0.803828 145.694)
(-72.0416 294.525 -13.7813 567.172 2.5953 136.282)
(453.418 89.6661 -10.4796 1142.36 1.49979 461.103)
(79.3615 246.53 -6.70045 1052.26 9.2228 327.031)
(229.878 62.0116 -11.4944 404.908 0.984327 170.122)
(-41.2831 277.084 -24.4021 592.311 0.170067 154.567)
(474.813 71.415 -18.3717 1151.4 -5.57379 475.71)
(91.9089 235.065 -30.9008 1056.06 -6.37521 331.5)
(-57.7194 286.965 -5.76605 580.589 4.63545 145.371)
(463.108 80.9721 -18.712 1149.72 -0.872303 468.31)
(110.434 220.974 8.59308 1055.78 3.64742 344.01)
(479.667 66.9166 -0.0573861 1141.8 -0.6451 482.372)
(286.416 51.8411 -0.665621 451.937 -4.94357 219.658)
(-18.7519 263.255 -7.00461 600.77 -4.51206 173.12)
(-11.469 260.367 7.33148 605.852 -4.00418 174.088)
(483.172 65.1837 -1.78054 1140.98 -1.63881 482.172)
(106.632 222.48 -10.5881 1054.36 -7.08964 345.004)
(110.717 221.351 -18.7546 1057.58 -8.97495 340.489)
(299.56 47.7972 -2.89097 465.333 -5.13495 229.105)
(-18.4198 265.536 -5.52158 606.089 -0.662502 166.142)
(482.811 65.3015 -14.4749 1147.54 -5.33263 479.026)
(104.52 226.354 -5.05025 1059.34 3.44103 337.803)
(-10.6111 260.284 -14.1606 608.425 -5.05717 170.764)
(485.24 63.7178 -6.43759 1142.82 -5.01124 480.655)
(105.178 214.077 -12.7634 1041.67 -8.29062 343.44)
(475.068 63.1658 -2.02084 1131.98 -0.923595 481.274)
(275.518 49.7684 -2.1475 441.255 -1.33005 214.388)
(-16.9835 256.575 5.75108 594.141 -1.05438 174.068)
(105.003 214.748 8.68417 1042.7 3.76105 343.907)
(-15.4824 255.185 -10.3063 594.54 -2.84832 173.984)
(474.436 62.9649 -2.05206 1130.27 -2.2354 480.465)
(104.885 213.221 8.08401 1039.69 3.24907 342.266)
(277.257 49.0994 -1.25442 442.79 -0.882252 215.724)
(-15.5962 253.799 -9.56347 592.741 -3.62098 173.515)
(473.178 61.7478 -1.90887 1126.87 -2.56291 479.048)
(104.9 212.381 -12.5714 1038.43 -8.86219 342.358)
(-14.7738 254.217 5.616 593.626 -1.40207 173.485)
(473.852 62.4786 -2.56404 1128.28 -1.32444 479.599)
(103.384 210.76 8.85491 1031.42 2.93152 339.495)
(467.91 61.2295 -1.31451 1117.81 -2.08602 474.843)
(274.457 48.6432 -0.766227 438.303 -1.26431 213.417)
(-17.1369 251.696 -8.7501 587.109 -3.71855 171.491)
(-14.7417 251.34 6.39931 588.75 -1.86622 171.972)
(469.232 61.6645 -1.76094 1118.73 -1.26878 475.543)
(102.389 210.482 -11.7266 1030.16 -8.71776 339.456)
(104.586 211.135 -12.3256 1034.07 -8.95084 340.832)
(275.516 48.5298 -1.70979 439.455 -1.70916 214.089)
(-15.311 253.019 4.93254 591.169 -1.49847 173.032)
(472.008 61.5671 -2.43176 1124.09 -1.93236 477.963)
(104.439 211.683 7.9813 1035.95 2.75112 341.3)
(-13.7091 251.513 -9.95015 591.058 -3.45663 172.965)
(470.705 61.6797 -1.658 1121.04 -2.7043 476.621)
(92.6545 204.693 -12.919 1003.87 -9.86357 328.726)
(453.268 59.0118 -2.79794 1094.08 -2.20119 463.761)
(259.275 46.9051 -2.22578 420.571 -1.88624 203.944)
(-24.328 246.95 4.52019 570.06 -2.25028 164.207)
(93.0763 205.403 7.44498 1006.5 1.72178 329.289)
(-23.2523 245.249 -10.6396 569.548 -4.12514 164.093)
(451.207 58.8754 -2.49243 1090.27 -3.25452 462.179)
(90.7071 203.926 7.41411 999.36 1.47961 326.481)
(259.682 46.3927 -1.33476 420.732 -1.46428 204.652)
(-26.8998 244.391 -9.67323 563.797 -4.69049 162.428)
(446.387 57.9723 -2.38981 1083.24 -3.06903 459.572)
(89.3952 203.25 -12.6412 996.643 -10.0163 326.526)
(-24.5445 244.687 5.02713 565.965 -2.68457 162.629)
(448.815 58.6493 -2.86055 1086.15 -2.12902 460.637)
(83.4843 200.703 6.66088 981.944 1.41073 321.883)
(433.749 56.5561 -2.86274 1063.96 -2.91764 454.78)
(250.771 45.3952 -1.29955 410.284 -1.39168 202.222)
(-33.0355 241.103 -9.80202 550.551 -4.27847 160.363)
(-30.2788 241.609 4.48831 553.342 -2.51438 159.917)
(437.226 57.2868 -3.37875 1068.18 -2.20463 455.405)
(81.5859 199.921 -13.0833 978.129 -9.59575 322.467)
(86.1282 201.625 -13.3767 987.905 -10.0255 324.108)
(250.302 46.0976 -2.24286 410.142 -1.84218 200.95)
(-29.1733 244.141 4.02707 559.262 -2.51346 160.935)
(443.479 57.7101 -3.26847 1078.72 -2.51397 458.174)
(86.9564 202.457 6.77895 991.489 1.24905 324.348)
(-28.462 242.25 -10.9614 558.175 -4.21244 161.191)
(440.569 57.5179 -2.98368 1073.73 -3.46915 456.698)
(43.7178 196.998 -14.4085 899.597 16.4869 358.319)
(381.44 56.4638 -1.74355 990.521 8.85471 486.045)
(177.206 45.3489 9.23844 330.658 13.1537 261.149)
(-63.7175 238.806 8.81725 495.316 16.6492 192.008)
(48.351 195.658 6.20966 910.035 20.546 345.99)
(-67.4567 238.843 -4.42231 488.928 21.0314 207.527)
(372.362 57.7812 -2.11722 977.431 11.2855 500.974)
(38.8475 198.059 2.41863 884.961 34.3587 373.219)
(179.097 43.1066 11.7943 331.371 14.8503 279.31)
(-77.5193 241.442 -1.7681 466.172 37.2608 255.296)
(352.96 62.0046 -5.6956 944.767 20.0429 548.455)
(33.7537 200.965 -19.3318 869.664 32.9563 394.741)
(-72.444 240.29 8.61871 475.481 31.6288 226.67)
(363.223 59.8582 -4.09065 961.273 16.3237 521.478)
(20.1849 215.744 -34.3788 773.551 55.8826 513.826)
(299.537 82.6546 -55.9675 815.876 -16.1484 742.156)
(109.136 40.8668 10.3671 254.919 21.2163 494.637)
(-93.5185 259.843 -30.091 358.882 61.4746 539.218)
(-108.507 258.812 -9.14363 377.63 68.572 422.672)
(315.421 75.0351 -39.4038 859.362 7.89604 684.33)
(40.3805 230.558 -65.9401 738.158 33.46 604.714)
(22.3871 210.03 -37.395 817.543 47.5087 463.291)
(108.152 45.9328 11.8619 256.531 24.5397 441.607)
(-93.6531 248.834 8.62941 438.878 49.4461 291.643)
(341.035 65.4055 -11.7754 924.191 22.0598 585.19)
(26.4329 204.109 -6.87598 845.212 50.0515 422.711)
(-100.14 250.971 -8.45495 421.993 56.957 348.703)
(328.246 69.1859 -22.5519 898.019 18.8782 630.133)
(-248.932 268.452 -17.6416 218.246 3.93821 -18.6428)
(39.5927 212.729 -11.5415 258.536 2.10231 82.4941)
(-56.4019 615.784 -2.90636 355.29 1.19314 87.1868)
(33.936 215.289 1.08739 249.944 -1.42814 75.439)
(-212.165 253.723 -24.3855 252.185 2.07131 6.82652)
(-238.208 264.566 3.35414 229.029 3.37243 -10.6677)
(-63.1351 623.54 -0.85204 349.59 8.82286 82.6628)
(25.028 217.846 -6.46973 241.015 5.07905 66.3722)
(996.067 -53.4743 -18.6809 1258.99 -8.09598 659.812)
(1092.19 -58.8078 -15.949 1553.53 -10.9839 784.079)
(952.503 1.87707 -15.0614 1392.4 -12.5521 694.635)
(952.092 9.81846 -16.2722 1406.66 -3.06106 692.498)
(1103.03 -54.3015 -14.077 1569.58 -3.36321 790.973)
(950.143 12.9072 -17.0386 1407.81 -6.56065 690.933)
(1008.51 -59.4605 -15.5298 1259.22 -11.9164 671.492)
(1001.79 -55.5651 -9.36457 1258.92 3.00721 665.052)
(-189.052 243.198 -10.576 262.414 -4.53289 25.8813)
(-179.801 239.863 10.9265 273.89 -6.46538 28.5073)
(55.0554 206.112 0.360608 273.661 -4.87979 94.4981)
(-32.7317 585.233 -1.75032 380.251 0.482449 102.276)
(56.6666 204.239 -8.76815 275.343 -1.49122 97.79)
(-193.821 247.324 0.113493 267.495 0.223618 18.7254)
(-179.552 239.727 -14.2175 275.335 -4.87512 28.004)
(60.9697 201.042 -6.37881 271.604 -1.85347 100.017)
(-31.8383 581.194 -1.32258 377.239 -6.87731 102.735)
(63.3851 200.882 4.74149 277.012 -7.56606 101.196)
(1000.75 -58.4343 -6.86861 1249.38 -5.473 669.509)
(1000.63 -58.2787 1.05335 1247.28 3.84551 667.416)
(1060.77 -66.0966 -6.36181 1499.43 -0.691409 758.451)
(949.996 0.886658 -12.1547 1385.93 -5.23659 691.559)
(946.896 0.947785 -4.72503 1376.54 -4.95441 690.697)
(947.104 3.24603 -2.48828 1383.79 -1.08298 693.328)
(1064.14 -64.8494 -3.84462 1504.38 3.48626 761.896)
(946.318 1.63241 -2.55272 1377.33 3.02533 690.917)
(1007.74 -59.7037 -5.32826 1255.04 -0.151556 670.027)
(1002.22 -58.503 -8.16642 1246.41 -8.53854 667.849)
(102.473 222.751 -14.1482 1052.72 -7.03584 345.226)
(477.617 67.8105 -1.56538 1143.47 0.132938 483.383)
(268.221 53.7055 -3.6182 437.13 -1.18086 208.762)
(-24.435 265.582 7.15318 596.467 -1.37809 172.064)
(102.946 223.407 9.59706 1052.73 5.24908 345.075)
(477.199 67.4829 -3.42885 1143.74 -1.48539 483.857)
(-24.1294 264.687 -11.3072 596.806 -2.21834 172.224)
(103.621 220.801 5.79232 1052 4.24087 344.771)
(275.025 51.5228 -2.88157 443.754 -0.602282 214.026)
(479.639 63.9876 -4.30291 1141.68 -3.14576 484.491)
(-17.8938 260.145 -12.0409 599.512 -3.27285 174.27)
(478.361 65.8527 -5.05762 1142.94 -1.24858 483.987)
(-20.3574 262.271 3.55028 598.355 -0.604558 172.932)
(105.905 218.294 -15.4606 1051.41 -8.59914 345.376)
(1001.18 -58.6409 2.08649 1250.78 5.61174 671.029)
(1001.31 -58.9336 -7.70536 1252.13 -6.88528 672.833)
(1069.8 -63.537 -3.88028 1515.83 -2.42814 772.398)
(945.286 0.675667 -3.96806 1379.58 -5.91495 695.549)
(947.313 2.21272 -3.54315 1384.65 1.03718 696.333)
(947.969 3.27015 -1.30883 1385.88 4.32458 694.948)
(1073.39 -62.9112 -3.57219 1521.06 -1.01685 774.204)
(948.067 2.71548 -4.52025 1386.79 -4.59275 696.962)
(1000.31 -59.9557 -6.973 1248.04 -7.78122 672.808)
(1001.05 -59.2098 0.929038 1249.87 4.45076 672.672)
(-193.305 244.709 11.9064 258.242 -4.65035 23.4034)
(-192.954 243.247 -14.896 257.797 -1.0916 23.334)
(62.9935 198.088 -7.79826 268.905 -0.733075 100.142)
(-33.7133 573.18 -1.34052 364.185 -6.23276 99.5895)
(61.4282 199.22 3.35548 267.92 -5.50065 99.4841)
(-185.644 239.579 -15.0313 262.568 -1.85778 27.1438)
(-189.746 241.936 8.0124 260.471 -1.99721 25.0039)
(61.1406 200.428 4.64657 268.64 -6.19351 99.192)
(-34.9229 576.183 -0.803142 363.889 -0.64207 99.3594)
(59.9149 200.426 -7.64889 266.544 -0.293255 98.4331)
(107.874 214.966 9.20934 1045.64 3.36162 344.918)
(280.22 50.0984 -0.603401 445.323 -1.7719 217.7)
(476.124 63.297 -0.907399 1132.8 -1.57317 481.828)
(-15.1826 256.283 -8.28748 596.345 -3.59072 175.152)
(106.467 215.001 -11.4085 1044.63 -8.13794 345.048)
(477.597 63.4143 -1.48038 1133.07 -1.12623 482.276)
(-11.8729 255.387 6.8995 598.47 -2.07047 175.801)
(108.867 215.269 -13.1655 1047.92 -8.87696 345.39)
(283.539 49.2545 -1.72423 448.708 -2.24157 220.108)
(479.821 63.1386 -4.08874 1138.45 -2.51492 483.924)
(-13.542 257.513 3.36645 600.493 -1.47018 175.678)
(107.712 216.424 6.20876 1049.82 2.90245 345.487)
(479.064 63.1542 -2.15089 1135.06 -2.96549 482.908)
(-10.8153 255.416 -10.4944 600.735 -3.70328 176.162)
(-183.247 236.752 10.0316 259.733 -2.97086 27.6302)
(-180.951 234.59 -13.5434 260.716 -1.65439 27.7115)
(65.1704 192.55 -6.84489 265.182 -0.79585 99.637)
(-30.5047 557.901 -0.85412 358.327 -6.45083 98.6075)
(64.5252 193.244 4.16956 265.66 -5.52327 99.8117)
(-181.148 233.965 -13.0641 259.091 -2.32765 27.651)
(-180.087 234.14 9.36639 261.27 -2.67352 28.0385)
(65.5321 194.008 4.12148 266.909 -5.3242 100.479)
(-30.5446 559.349 -0.587054 358.991 -0.69436 98.9022)
(64.6462 193.857 -7.22204 265.892 -0.255495 99.9269)
(991.74 -59.6756 2.89889 1238.13 5.02612 667.454)
(989.418 -59.3824 -5.79288 1236.01 -6.7388 666.362)
(1052.95 -63.7615 -1.7425 1493.23 -1.18692 762.5)
(932.298 0.339993 -2.25416 1362.33 -4.62414 687.333)
(934.59 0.909344 -1.40001 1365.43 1.63267 688.786)
(937.538 1.12883 -0.89707 1370 2.49829 690.607)
(1055.44 -63.6999 -1.58671 1496.66 -1.12999 764.15)
(935.797 0.994453 -2.40021 1367.47 -4.44606 689.92)
(986.786 -59.8419 -5.6624 1232.14 -6.87893 664.565)
(988.317 -59.4282 2.60523 1233.88 4.63502 665.33)
(992.167 -59.5434 -5.79451 1238.91 -6.0597 667.684)
(992.814 -59.0911 2.82921 1239.16 4.80216 667.667)
(943.441 0.649257 -2.49103 1376.53 0.308876 693.861)
(1058.59 -64.3719 -1.87497 1499.28 -0.819441 764.81)
(940.328 0.950102 -2.09888 1371.63 -4.3237 692.365)
(998.53 -59.9062 1.95746 1245.21 3.58792 671.088)
(994.069 -59.1151 -5.65822 1240.32 -7.02485 668.61)
(938.108 1.17708 -2.03173 1370.72 -3.20514 691.08)
(1057.82 -64.064 -1.54717 1498.59 0.350428 764.655)
(939.27 1.13467 -0.895777 1370.52 2.43313 691.551)
(-182.181 236.427 -12.0132 260.89 -2.73723 28.4067)
(-177.607 234.883 10.4048 266.269 -3.84598 30.2581)
(65.974 196.222 3.16777 271.281 -5.49012 101.914)
(-29.0643 564.004 -0.799661 366.242 -0.846857 101.237)
(65.3794 195.743 -7.44246 270.577 -0.760128 101.837)
(-181.917 238.143 7.63365 265.341 -2.42844 29.2511)
(-177.132 234.784 -13.0901 267.136 -2.731 30.6183)
(65.9765 194.42 -6.44936 268.143 -0.981416 101.115)
(-29.4112 562.492 -0.82273 364.399 -6.80776 100.732)
(66.1838 194.778 4.62554 270.03 -6.09388 101.867)
(-181.725 232.124 -12.398 255.029 -2.66616 26.2353)
(-178.306 231.21 9.93229 259.202 -3.33802 27.6894)
(65.2136 191.823 3.75874 264.879 -5.32223 99.585)
(-30.1081 553.817 -0.618187 355.991 -0.987006 97.9348)
(64.3795 191.569 -7.14553 263.855 -0.571774 99.1542)
(-180.545 233.629 9.01702 259.273 -2.72441 27.8675)
(-177.886 231.175 -12.9834 259.866 -2.29434 28.0785)
(63.9982 190.609 -6.57289 261.555 -1.05772 98.089)
(-30.7404 552.816 -0.775236 354.453 -6.82498 97.2918)
(63.796 191.107 4.40876 262.8 -5.84463 98.6413)
(978.403 -59.6698 -5.64188 1222.67 -6.32976 658.977)
(979.62 -59.1789 2.90444 1223.73 4.78422 659.482)
(1045.21 -63.6934 -1.25945 1483.05 -1.03699 757.154)
(930.69 0.40118 -1.04244 1359.95 1.28905 685.888)
(927.599 0.594549 -1.87563 1355.81 -4.33789 684.26)
(924.262 0.354452 -2.0806 1352.42 -3.83059 681.852)
(1043.3 -63.5794 -1.33692 1480.73 -0.486572 755.96)
(926.261 0.665532 -0.877715 1354 2.05681 683.079)
(985.11 -59.8173 2.96844 1229.65 4.27445 663.014)
(980.988 -59.1709 -5.35704 1225.66 -6.79194 660.668)
(101.107 209.427 -12.5205 1026.03 -8.94137 337.32)
(466.618 61.0308 -2.26565 1115.89 -1.49359 473.824)
(270.536 48.2073 -2.00251 434.078 -1.58306 210.612)
(-18.3707 251.586 5.22132 584.857 -1.42921 170.342)
(101.088 210.034 8.21353 1027.63 2.90317 337.917)
(465.499 60.9331 -1.95722 1113.36 -2.6356 472.587)
(-16.9027 250.103 -10.1927 584.964 -3.36573 170.182)
(100.062 208.798 8.23063 1023.24 2.53947 335.683)
(271.073 47.8311 -1.11492 434.433 -1.15528 211.137)
(462.778 60.1063 -1.75583 1109.12 -2.6319 470.51)
(-19.1653 249.452 -9.23713 581.439 -4.06773 168.853)
(464.156 60.6956 -2.28893 1110.76 -1.5663 471.368)
(-17.3471 249.538 5.76593 582.928 -1.97006 169.152)
(99.3468 208.244 -12.1572 1021.62 -9.29373 335.639)
(977.341 -59.7476 2.89933 1220.93 4.64249 658.064)
(973.922 -59.2977 -5.55081 1217.7 -6.76833 656.223)
(1034.82 -63.4747 -1.56044 1470.34 -0.993046 750.478)
(916.064 -0.127379 -2.24632 1341.79 -4.3889 676.351)
(918.833 0.318492 -1.21378 1344.78 1.65174 677.988)
(923.077 0.338599 -0.973876 1350.73 1.8793 680.764)
(1037.44 -63.5025 -1.40275 1473.74 -1.21718 752.216)
(920.368 0.313954 -2.16584 1347.1 -4.47914 679.374)
(970.434 -59.7297 -5.66648 1213.35 -6.67746 653.983)
(972.431 -59.3123 2.67891 1215.25 4.54583 654.886)
(-182.287 232.234 9.37994 254.297 -2.96627 25.7636)
(-180.004 229.919 -13.3142 254.964 -2.1952 25.7614)
(61.7716 188.907 -6.8028 257.295 -1.39422 95.8988)
(-32.1992 548.777 -0.856881 348.894 -7.12182 95.093)
(61.3547 189.57 4.0968 258.32 -6.00222 96.3316)
(-182.538 230.04 -12.783 251.154 -2.91478 24.516)
(-179.933 229.731 9.35995 254.774 -3.24144 25.6272)
(63.165 190.228 3.8255 260.394 -5.48123 97.4418)
(-31.6874 549.925 -0.639945 350.165 -1.28973 95.6949)
(62.2641 190.009 -7.24248 259.335 -0.70364 96.8933)
(96.1345 206.509 8.09682 1012.49 1.97551 331.437)
(266.043 47.2272 -1.12775 428.203 -1.39494 207.856)
(455.425 59.2278 -1.89562 1097.43 -2.74873 465.172)
(-22.5599 247.152 -9.28103 573.526 -4.40784 165.707)
(94.9844 206.026 -12.1852 1010.46 -9.63036 331.349)
(457.329 59.7914 -2.34048 1099.42 -1.81971 466.199)
(-20.2338 247.169 5.64284 575.411 -2.42637 166.126)
(97.7689 207.073 -12.54 1016.14 -9.54369 333.379)
(266.17 47.4957 -2.0089 428.505 -1.83621 207.72)
(461.041 59.9287 -2.52292 1106.12 -2.07877 469.185)
(-20.239 249.099 4.81486 578.751 -1.95136 167.672)
(97.9929 207.658 7.81599 1018.38 2.12315 333.954)
(459.312 59.9158 -2.05431 1102.71 -3.04788 467.642)
(-19.01 247.539 -10.2627 578.414 -3.88885 167.496)
(-185.363 228.089 8.67764 244.214 -3.66127 21.697)
(-183.593 225.508 -13.6364 243.711 -2.91015 21.5959)
(54.4575 184.807 -7.14711 244.593 -2.18231 90.4627)
(-36.5177 539.125 -1.13796 334.875 -8.21976 89.6669)
(54.3174 185.63 3.52832 246.345 -6.76691 90.9641)
(-187.206 225.466 -13.0134 238.028 -3.5567 20.1463)
(-183.941 225.4 8.66468 243.029 -3.92678 21.2763)
(57.0998 186.523 3.29607 249.824 -6.29276 92.4193)
(-35.4568 540.571 -0.897692 336.978 -2.50334 90.6149)
(56.1112 186.107 -7.59196 248.251 -1.59539 91.8042)
(957.55 -59.7229 2.57104 1197.86 4.23617 645.891)
(952.452 -59.2215 -5.74917 1193.19 -6.94931 643.734)
(1009.35 -63.2191 -2.10201 1438.74 -1.23194 735.303)
(891.809 -0.995438 -2.82607 1311.79 -4.54485 662.6)
(896.314 -0.439597 -1.69227 1316.45 1.26768 664.231)
(903.152 -0.404304 -1.40006 1325.44 1.34913 667.924)
(1013.31 -63.2602 -1.85987 1443.78 -1.51848 737.429)
(898.765 -0.486783 -2.54574 1320.07 -4.79821 666.174)
(946.327 -59.6514 -6.01008 1186 -6.71318 641.012)
(950.03 -59.2444 2.29906 1189.33 4.2137 641.831)
(959.555 -59.648 -5.80107 1201.04 -6.60465 647.516)
(962.083 -59.2043 2.58528 1203.27 4.43673 648.393)
(914.262 -0.0869428 -1.14728 1339.18 1.35035 674.767)
(1026.26 -63.3636 -1.5021 1459.67 -1.3311 744.943)
(910.508 -0.0335724 -2.19422 1334.45 -4.61626 672.959)
(968.632 -59.7636 2.80133 1210.55 4.26898 652.399)
(964.024 -59.1921 -5.53633 1206.27 -6.8844 650.04)
(905.219 -0.426117 -2.43175 1328.4 -4.30021 669.64)
(1023.22 -63.2932 -1.67481 1455.86 -0.965908 743.109)
(908.576 0.0174417 -1.28671 1331.67 1.57026 671.314)
(-184.612 227.965 -12.7949 245.241 -3.32747 22.2526)
(-181.288 227.539 9.20791 249.772 -3.74012 23.6654)
(60.7654 188.419 3.54966 256.03 -5.88081 95.269)
(-33.1239 545.415 -0.743467 344.54 -1.93087 93.5075)
(59.8337 188.09 -7.36859 254.7 -1.21091 94.6852)
(-182.857 230.016 8.91069 250.538 -3.27648 24.1862)
(-180.861 227.57 -13.3151 250.478 -2.70823 24.0789)
(58.6236 186.986 -6.92421 251.615 -1.8729 93.2869)
(-34.0243 544.256 -0.955678 342.694 -7.7546 92.6646)
(58.4246 187.672 3.90455 253.094 -6.46891 93.8719)
(-190.927 222.534 -12.8373 228.111 -2.86895 19.52)
(-187.331 222.738 8.24293 234.206 -3.69104 19.7551)
(52.5304 184.23 2.99667 242.338 -6.45948 89.6608)
(-38.2158 534.485 -1.0848 327.961 -2.56571 87.5108)
(51.464 183.649 -7.7445 240.324 -1.58122 89.2368)
(-188.149 225.628 8.25181 236.721 -3.86559 19.6203)
(-186.778 222.82 -13.8018 235.178 -2.77891 19.9467)
(48.9093 182.153 -7.11219 235.493 -1.47504 88.4672)
(-39.5584 532.661 -1.3279 325.338 -7.87241 86.4812)
(49.0295 183.096 3.27119 237.794 -6.3888 88.5759)
(928.028 -59.599 -6.3162 1165.57 -6.61801 635.31)
(933.591 -59.2217 1.9422 1170.48 4.03487 635.087)
(995.959 -63.2023 -2.56276 1422.34 -1.65649 729.034)
(889.016 -0.95498 -1.86016 1307.78 1.05806 660.528)
(883.044 -1.10059 -3.01926 1300.75 -4.9661 659.099)
(873.374 -1.62657 -3.45654 1289.49 -4.4686 656.295)
(990.525 -63.1179 -2.95874 1415.51 -1.33749 726.932)
(879.714 -1.00622 -2.25765 1295.93 1.06407 656.924)
(943.634 -59.7608 2.25666 1181.76 4.00164 639.064)
(936.911 -59.2024 -5.98802 1175.66 -7.02715 637.234)
(76.6841 198.133 -13.8346 966.554 -8.57141 321.625)
(429.682 56.2731 -3.7056 1057.98 -2.1408 454.208)
(236.708 45.1709 -1.64279 394.764 -0.931285 201.233)
(-36.3165 240.98 3.78054 544.453 -1.69447 159.477)
(78.2433 199.014 6.05651 971.416 1.93791 320.799)
(425.513 56.0678 -3.41263 1051.4 -2.80161 453.819)
(-36.2298 238.972 -10.9018 542.514 -2.81721 160.947)
(73.2439 197.128 5.95389 958.929 3.4794 320.568)
(237.554 44.1076 -0.492579 395.123 -0.338288 204.121)
(415.824 55.3187 -2.79018 1037.79 -1.1048 455.452)
(-41.7779 237.69 -8.87589 532.479 -1.24625 163.463)
(420.882 55.9092 -3.70272 1043.92 -1.06079 454.083)
(-38.4666 238.245 4.35328 536.258 -0.237221 161.061)
(70.3882 196.454 -13.1009 953.597 -6.31975 322.821)
(924.421 -59.7744 1.82742 1160 3.98982 633.458)
(915.401 -59.1534 -6.25476 1151.92 -6.80125 633.734)
(847.936 -1.96987 -4.11358 1259.81 -3.4709 656.241)
(856.96 -1.46945 -3.03851 1268.64 1.29612 653.079)
(869.644 -1.54367 -2.58154 1284.27 1.10376 654.259)
(861.497 -1.69658 -3.74446 1275.18 -4.72457 654.921)
(902.448 -59.3295 -6.33714 1137.84 -5.79713 636.026)
(910.867 -59.1491 1.62243 1145.05 4.18941 631.971)
(-192.374 222.877 8.17109 226.242 -3.01726 19.1819)
(-191.615 219.959 -13.4464 223.297 -0.655202 21.1766)
(41.6171 179.339 -6.01437 224.309 2.92209 90.3059)
(-43.0271 524.781 -1.35794 314.32 -4.16453 84.0903)
(41.9515 180.294 3.65453 226.975 -3.1961 88.9241)
(-196.054 219.581 -11.3139 214.761 1.16897 24.4238)
(-192.233 219.874 8.28374 222.152 -1.2205 21.6945)
(46.3095 181.517 3.04915 232.533 -5.16855 88.1303)
(-41.5095 526.968 -1.15865 317.09 -0.143332 84.805)
(45.2194 180.776 -7.38919 230.119 0.506854 88.5653)
(58.5895 194.887 6.0826 928.793 11.7589 330.609)
(216.124 43.0554 3.13554 371.308 3.79408 219.369)
(389.808 55.7297 -1.36665 1001.45 5.40302 474.405)
(-55.346 236.4 -5.18207 507.273 9.34653 182.625)
(54.2115 195.212 -12.3381 920.952 4.95066 337.584)
(397.182 55.7085 -2.74836 1010.83 3.71435 466.579)
(-50.9867 236.374 6.12903 512.614 8.18583 174.479)
(62.9158 195.375 -13.4452 938.35 -2.25993 327.409)
(214.996 44.5804 1.41002 370.934 2.76113 212.762)
(409.991 55.2392 -3.24871 1030.02 0.469364 457.911)
(-46.7114 238.188 4.91264 524.241 2.6595 165.023)
(65.8502 195.753 5.9972 945.119 6.32685 323.64)
(403.775 55.3728 -2.69037 1021.18 0.70725 461.258)
(-47.9289 236.648 -8.94794 520.792 3.12053 169.864)
(-208.968 221.006 14.5239 191.595 16.3769 48.7305)
(-212.563 221.486 -4.39944 182.072 31.357 71.1768)
(14.9272 181.462 8.46521 197.801 61.9631 159.269)
(-47.9249 511.765 0.553081 302.08 50.8993 100.874)
(19.0072 180.465 13.4601 201.181 42.5846 137.851)
(-219.068 224.993 2.61319 165.976 53.0525 124.307)
(-214.397 222.428 16.1813 180.253 34.241 80.582)
(27.0166 178.671 9.63034 207.386 20.5684 111.404)
(-47.3736 513.254 0.777806 300.547 41.2672 94.8275)
(25.5981 178.698 1.57216 205.132 34.9291 122.416)
(858.598 -58.6158 2.12843 1088.58 7.59114 662.412)
(840.662 -56.7503 -6.86678 1071.8 -1.55574 689.769)
(766.974 3.21532 -16.2955 1159.26 5.65066 757.227)
(782.66 0.480172 -8.17524 1180.16 8.20272 714.251)
(806.175 -1.63365 -4.72277 1210.48 5.87524 680.932)
(790.642 -0.978829 -7.92426 1192.87 1.64287 706.94)
(812.611 -53.0719 -13.004 1037.73 0.802695 746.131)
(831.568 -56.1814 0.698728 1057.68 8.98836 697.731)
(865.363 -58.2988 -5.94929 1098.37 -3.17039 658.413)
(878.372 -58.6359 2.07273 1110.03 5.54402 642.742)
(842.963 -1.73862 -3.2726 1253.17 2.18786 655.373)
(831.328 -1.89881 -4.33108 1241.04 -3.10175 662.552)