/*--------------------------------*- C++ -*----------------------------------*\
| =========                 |                                                 |
| \\      /  F ield         | OpenFOAM: The Open Source CFD Toolbox           |
|  \\    /   O peration     | Version:  2012                                  |
|   \\  /    A nd           | Website:  www.openfoam.com                      |
|    \\/     M anipulation  |                                                 |
\*---------------------------------------------------------------------------*/
FoamFile
{
    version     2.0;
    format      ascii;
    class       volScalarField;
    location    "0.106/solid";
    object      sigmaMid;
}
// * * * * * * * * * * * * * * * * * * * * * * * * * * * * * * * * * * * * * //

dimensions      [1 -1 -2 0 0 0 0];


internalField   nonuniform List<scalar> 
3125
(
-507.126
-508.206
-501.743
-499.778
-480.834
-477.11
-468.648
-473.928
-507.92
-506.538
-493.036
-490.392
-465.987
-463.683
-500.244
-256.938
-636.111
-253.154
-247.939
-261.091
-264.709
-633.971
-508.627
-630.432
-275.119
-268.224
-261.26
-503.553
-265.022
-262.763
-266.139
-258.154
-263.995
-497.703
-262.73
-262.631
-248.704
-484.318
-251.333
-242.505
-253.653
-232.128
-249.053
-473.192
-241.75
-246.664
-238.008
-464.716
-265.779
-299.957
-252.82
-207.237
-291.932
-487.937
-299.729
-343.317
-92.8507
-1068.46
-99.2093
-101.57
-1055.62
-1060.98
-252.86
-508.74
-267.612
-265.36
-267.851
-1056.12
-1064.89
-100.174
-99.7787
-262.342
-505.11
-267.922
-268.401
-267.362
-98.356
-99.0806
-1041.23
-1048.14
-1051.96
-1048.77
-100.887
-99.9456
-98.0275
-96.6439
-1038.56
-1032.69
-257.612
-495.473
-259.453
-255.335
-261.085
-1023.16
-1030.77
-94.5337
-95.8961
-249.501
-487.49
-257.751
-254.811
-255.76
-88.9364
-90.9497
-996.263
-1007.95
-1020.28
-1011.25
-93.7755
-91.9383
-87.8215
-85.8847
-991.799
-231.02
-469.388
-243.382
-216.587
-244.791
-84.1766
-84.7924
-231.256
-462.998
-243.725
-214.75
-245.932
-107.234
-89.6198
-83.7414
-87.5913
-117.922
-178.162
-186.176
-289.057
-234.359
-845.486
-401.723
-322.158
-177.431
-136.856
-465.799
-327.206
-213.079
-156.175
-489.663
-334.051
-145.52
-480.869
-344.175
-482.372
-271.53
-173.123
-174.328
-482.612
-345.16
-341.231
-286.803
-166.217
-491.654
-337.91
-171.075
-485.841
-343.685
-481.568
-261.784
-174.183
-344.072
-174.178
-480.729
-342.417
-263.809
-173.642
-479.269
-342.567
-173.602
-480.081
-339.693
-474.933
-261.107
-171.581
-172.131
-475.757
-339.618
-341.023
-262.257
-173.126
-478.37
-341.458
-173.119
-476.774
-328.912
-464.163
-246.691
-164.297
-329.445
-164.249
-462.447
-326.641
-247.293
-162.51
-459.792
-326.684
-162.743
-461.029
-322.009
-455.019
-238.779
-160.466
-160.008
-455.817
-322.668
-324.313
-238.037
-161.01
-458.613
-324.483
-161.355
-457.003
-358.893
-485.957
-258.751
-191.138
-345.244
-206.995
-500.797
-371.208
-275.373
-251.998
-547.824
-394.936
-223.583
-521.112
-511.568
-741.37
-263.279
-455.647
-389.594
-688.492
-612.104
-464.5
-265.509
-282.369
-584.758
-418.777
-337.015
-631.145
17.7963
-83.1274
-87.2019
-75.4537
-8.26321
10.7149
-82.6587
-66.7474
-986.816
-1085.79
-953.364
-952.889
-1097.47
-950.871
-996.094
-990.526
-25.8697
-29.0079
-94.4943
-102.28
-97.9573
-18.7253
-28.1125
-100.062
-102.691
-101.54
-987.9
-987.568
-1051.17
-950.563
-946.98
-947.104
-1054.82
-946.338
-994.17
-989.234
-345.61
-483.576
-252.816
-172.237
-345.238
-484.604
-172.484
-344.81
-260.682
-485.766
-174.532
-485.727
-172.974
-345.804
-988.12
-988.411
-1060.99
-945.348
-947.352
-947.951
-1064.77
-948.131
-986.795
-987.694
-23.9055
-23.7323
-100.317
-99.5502
-99.6596
-27.5065
-25.2055
-99.486
-99.3581
-98.6242
-345.122
-266.207
-481.872
-175.228
-345.214
-482.444
-175.985
-345.638
-269.989
-485.202
-175.725
-345.567
-483.232
-176.33
-27.969
-28.0163
-99.7686
-98.5746
-100.059
-27.8848
-28.3352
-100.717
-98.901
-100.109
-978.098
-976.028
-1043.91
-932.318
-934.597
-937.539
-1046.44
-935.818
-973.13
-974.732
-978.707
-979.419
-943.465
-1049.39
-940.344
-984.775
-980.774
-938.121
-1048.71
-939.27
-28.5631
-30.6536
-102.081
-101.235
-101.996
-29.4513
-30.8307
-101.217
-100.698
-102.168
-26.4158
-28.0436
-99.7974
-97.9327
-99.315
-28.1468
-28.3174
-98.1932
-97.2573
-98.9212
-964.762
-966.08
-1036.14
-930.694
-927.612
-924.28
-1034.25
-926.263
-971.31
-967.578
-337.524
-474.159
-257.433
-170.445
-338.083
-472.798
-170.352
-335.86
-258.112
-470.667
-168.949
-471.708
-169.286
-335.804
-963.524
-960.421
-1025.77
-916.085
-918.839
-923.08
-1028.39
-920.387
-956.705
-958.761
-26.0707
-26.0228
-95.9914
-95.0541
-96.5903
-24.6973
-25.9458
-97.6648
-95.6918
-97.0504
-331.62
-253.303
-465.334
-165.788
-331.5
-466.511
-166.262
-333.557
-253.342
-469.561
-167.769
-334.12
-467.848
-167.646
-21.987
-21.8201
-90.5114
-89.6101
-91.1907
-20.2856
-21.5753
-92.6184
-90.6056
-91.9139
-943.566
-938.847
-1000.25
-891.842
-896.325
-903.16
-1004.22
-898.792
-932.488
-936.201
-945.797
-948.375
-914.268
-1017.2
-910.528
-954.718
-950.495
-905.244
-1014.16
-908.583
-22.4033
-23.9909
-95.4805
-93.5018
-94.814
-24.4784
-24.3048
-93.3515
-92.6175
-94.1265
-19.6936
-20.024
-89.836
-87.4996
-89.35
-19.8916
-20.1831
-88.5575
-86.4222
-88.7692
-914.124
-919.639
-986.817
-889.029
-883.082
-873.423
-981.387
-879.734
-929.511
-923.23
-321.921
-454.608
-224.787
-159.537
-320.892
-454.099
-161.166
-320.627
-226.055
-455.61
-163.64
-454.416
-161.119
-323.153
-910.149
-901.65
-848.016
-857
-869.67
-861.558
-888.563
-896.8
-19.4265
-21.5324
-90.5829
-84.065
-89.0669
-24.7546
-21.8904
-88.2826
-84.8054
-88.7985
-330.393
-219.545
-474.391
-182.706
-338.103
-466.684
-174.282
-327.895
-212.753
-458.114
-165.03
-323.626
-461.378
-170.16
-47.0611
-68.545
-142.373
-99.467
-128.19
-109.995
-73.6443
-108.995
-93.8932
-119.078
-844.601
-827.839
-779.107
-783.623
-806.345
-791.382
-803.456
-818.44
-851.811
-864.425
-843.013
-831.431
-883.227
-871.181
-812.787
-825.413
-45.3983
-33.8008
-91.7867
-84.8528
-95.1552
-24.9872
-32.198
-103.839
-85.5826
-97.8859
-190.468
-157.196
-154.1
-131.594
-163.838
-114.872
-154.696
-159.694
-157.998
-171.878
-890.974
-851.926
-782.197
-838.113
-867.778
-842.831
-791.423
-845.165
-798.21
-748.269
-237.988
-462.82
-704.283
-727.816
-559.39
-881.003
-762.639
-857.013
-286.577
-782.887
-362.275
-876.874
-273.425
-760.325
-735.946
-863.2
-773.006
-712.79
-833.53
-747.058
-736.075
-199.094
-387.256
-252.037
-660.367
-534.272
-174.86
-236.112
-354.471
-245.803
-168.603
-146.37
-379.496
-274.635
-234.034
-201.607
-426.876
-280.469
-183.543
-419.095
-289.501
-428.931
-261.92
-204.444
-206.232
-433.201
-288.934
-288.718
-279.484
-202.316
-433.762
-285.515
-213.235
-440.688
-289.531
-428.338
-257.605
-205.921
-289.295
-206.172
-429.599
-490.854
-598.18
-490.722
-599.301
-492.401
-600.942
-492.603
-600.307
-288.711
-259.62
-207.054
-427.737
-288.327
-205.361
-429.154
-285.615
-422.643
-255.725
-203.714
-202.799
-424.421
-285.048
-488.859
-596.918
-489.14
-595.818
-487.055
-593.38
-594.541
-486.719
-287.997
-258.959
-205.531
-426.852
-287.825
-206.322
-428.199
-277.042
-409.8
-244.595
-195.695
-276.914
-196.389
-410.956
-274.26
-241.409
-194.36
-403.457
-273.856
-192.825
-404.96
-271.075
-391.705
-232.267
-192.155
-190.28
-393.144
-271.136
-273.169
-237.028
-192.163
-400.81
-272.812
-193.039
-401.964
-312.125
-357.893
-241.877
-222.942
-300.075
-230.688
-368.728
-362.904
-296.185
-300.921
-447.875
-384.225
-281.739
-424.539
-562.033
-442.655
-231.852
-250.161
-264.266
-459.578
-538.377
-433.357
-286.861
-302.719
-462.225
-394.458
-318.7
-494.877
70.3134
2.64591
18.7804
-510.339
-582.006
-567.275
-11.0413
-14.5009
-14.5358
-21.8529
-581.73
-578.82
-595.871
-594.767
-288.295
-427.68
-248.324
-202.983
-287.886
-426.85
-201.422
-291.25
-260.31
-433.067
-210.225
-433.009
-205.95
-291.605
-577.088
-572.526
-585.818
-580.875
-4.94146
-1.6442
-15.349
-12.2971
-290.499
-260.213
-429.197
-207.315
-289.898
-431.263
-206.961
-495.58
-604.354
-495.433
-603.38
-292.507
-265.67
-433.178
-208.791
-291.945
-435.566
-211.275
-494.274
-601.729
-494.175
-602.465
-13.3007
-11.9936
-15.1869
-14.3538
-579.227
-574.273
-578.175
-574.247
-579.7
-575.453
-587.058
-581.348
-14.4316
-15.2175
-18.2981
-18.8497
-12.8142
-13.0161
-15.7072
-14.951
-571.602
-567.573
-577.668
-571.751
-284.535
-421.658
-254.101
-202.158
-284.385
-422.929
-202.722
-482.233
-588.145
-589.541
-481.881
-484.305
-592.067
-484.729
-590.961
-282.474
-252.814
-418.381
-201.42
-420.061
-200.144
-281.96
-571.117
-565.901
-566.602
-563.042
-12.5332
-11.5271
-11.7206
-11.5524
-278.397
-247.437
-411.555
-197.699
-277.859
-413.311
-196.475
-479.234
-586.553
-479.667
-585.18
-281.25
-250.832
-416.997
-199.61
-281.166
-418.23
-200.255
-9.09879
-7.90211
-7.4909
-7.74203
-557.553
-551.575
-548.45
-546.215
-558.368
-555.14
-565.945
-560.008
-9.24112
-9.3985
-11.7637
-10.665
-7.5419
-7.74563
-7.54139
-6.32608
-534.212
-533.217
-547.598
-540.936
-271.487
-387.849
-225.387
-190.306
-270.207
-388.825
-191.517
-273.146
-218.591
-374.479
-196.151
-375.927
-193.432
-274.639
-533.063
-525.502
-513.483
-514.518
-7.85914
-7.00412
-14.7174
-13.9206
-291.769
-226.44
-353.597
-219.62
-297.639
-349.784
-213.329
-278.393
-208.184
-368.742
-195.839
-274.469
-369.263
-198.226
-40.6767
-46.045
-50.0942
-54.4344
-478.512
-465.083
-530.602
-511.292
-480.56
-485.199
-511.762
-502.399
-40.356
-35.5447
-15.5643
-16.1211
52.4066
29.1241
-36.5286
-25.5623
-546.213
-580.507
-554.369
-577.018
-510.86
-418.882
-179.954
-227.136
-518.282
-409.974
-220.471
-723.342
-409.092
-574.297
-407.063
-779.738
-761.319
-702.317
-764.404
-737.61
-451.067
-335.847
-302.406
-529.544
-656.711
-362.601
-517.301
-493.091
76.2228
76.0701
-779.795
-869.108
-771.274
-392.221
-632.28
-740.347
-730.873
-730.717
-375.052
-664.797
-247.309
-170.469
-160.345
-388.72
-252.626
-146.558
-376.724
-266.199
-226.92
-164.459
-394.737
-259.837
-178.699
-406.883
-291.455
-265.56
-213.344
-440.269
-291.396
-208.387
-435.169
-290.275
-282.442
-214.162
-438.985
-291.692
-210.752
-444.083
-289.303
-260.002
-208.166
-429.06
-288.86
-204.699
-428.477
-288.95
-261.811
-206.622
-428.265
-288.569
-206.436
-429.055
-286.279
-258.416
-205.491
-425.137
-286.156
-204.094
-424.704
-287.473
-260.928
-207.115
-426.137
-286.883
-204.541
-426.729
-276.345
-246.434
-197.446
-408.727
-275.798
-194.272
-408.632
-275.074
-243.657
-195.147
-406.262
-274.851
-194.779
-406.646
-271.835
-234.204
-192.009
-395.425
-271.134
-192.179
-395.994
-272.426
-238.58
-194.289
-398.957
-272.126
-190.925
-398.816
-316.509
-250.738
-248.661
-386.287
-327.458
-236.271
-373.444
-354.458
-282.273
-256.11
-394.084
-333.611
-273.397
-414.573
-576.417
-237.773
-285.884
-489.955
-506.481
-284.635
-484.087
-448.552
-279.772
-310.098
-513.054
-489.899
-308.757
-502.237
59.8461
65.8436
137.547
22.3979
16.6798
166.9
135.258
156.126
3.7965
22.978
17.6802
125.936
168.084
122.018
262.429
256.656
123.123
35.7452
-217.119
31.2645
-216.166
116.128
234.72
247.869
104.02
41.6906
-214.278
43.0264
-215.619
39.4561
27.1027
94.8063
-32.6092
-2.74498
116.098
-18.0538
133.316
74.4587
103.47
146.507
-4.78557
8.87916
-5.45645
110.379
145.277
135.895
269.188
272.96
127.825
138.821
50.5202
-213.551
47.1925
-212.391
-977.664
-849.017
-1118.24
-521.099
-512.047
-1125.18
-980.867
-862.099
-850.305
-1124.11
-1451.57
-1439.98
-1462.57
-1474.58
-1481.29
-1485.44
-1483.44
-549.808
-561.521
-891.491
-994.863
-1128.94
-887.231
-1131.32
-1132.6
-871.618
-995.982
-882.027
-1132.74
-23.3277
-17.2492
58.776
-47.5053
-24.0099
96.5661
-42.7847
100.429
57.5388
56.0655
87.7311
-55.2024
-26.5424
-45.2033
46.9955
99.0211
96.708
207.504
212.327
88.1904
26.5925
-217.038
26.7312
-217.528
99.8763
224.009
99.303
218.139
23.4554
-217.649
20.1409
-216.989
-31.2609
-28.1373
55.1217
-43.8279
-18.1161
102.578
-41.5168
59.2625
102.84
47.8181
86.4369
-54.7337
-24.2687
-47.944
39.5634
94.5706
94.1985
210.789
214.958
88.8677
21.7836
-216.681
19.775
-216.614
94.2557
217.32
216.902
88.9741
21.5421
-217.277
20.3063
-217.192
-885.952
-987.22
-1118.99
-885.582
-1117.55
-586.967
-581.184
-1115.85
-986.584
-889.704
-885.566
-1116.49
-1425.07
-1431.11
-1420.78
-1421.66
-1433.38
-1437.9
-1429.45
-1423.9
-598.986
-595.228
-896.066
-993.236
-1126.18
-895.569
-1122.35
-1118.49
-892.041
-990.829
-895.557
-1119.29
-288.281
-250.062
-428.293
-205.331
-288.397
-426.049
-200.177
-290.242
-260.704
-428.337
-204.028
-289.056
-431.42
-206.589
-885.033
-1120.25
-988.384
-884.184
-1120.88
-576.282
-573.004
-1119.81
-987.824
-885.852
-883.632
-1121.05
-1432.54
-1429.08
-1435.64
-1438.79
-1443.11
-1440.93
-1443.27
-1441.43
-582.076
-580.322
-888.185
-986.928
-1117.08
-887.286
-1118.79
-1120.54
-886.352
-988.453
-887.65
-1119.36
-7.39773
-4.6301
71.2956
-45.2155
99.6236
-21.8397
63.9972
-37.4552
109.302
68.6764
99.6649
-45.911
-21.9044
-37.3561
61.61
108.159
93.0411
220.129
220.834
88.9181
20.7394
-214.32
18.6321
-214.222
92.7155
215.905
219.989
86.2973
21.3143
-214.727
20.0892
-214.688
-12.6727
-13.2487
61.7438
-50.7606
-25.3527
93.7612
-43.2984
101.694
54.4147
60.9101
96.4249
-47.4246
-23.3741
-41.4349
57.3883
103.211
95.684
222.175
225.66
89.5471
22.3736
-216.217
20.8663
-216.117
95.6898
221.609
90.2755
225.597
22.4673
-215.331
20.5851
-215.343
-291.331
-263.297
-432.922
-210.495
-291.245
-431.537
-208.251
-292.292
-268.333
-433.407
-211.916
-291.919
-434.673
-209.42
-16.9264
-14.9156
60.8669
-50.0282
-25.7539
92.5272
-43.3867
100.223
55.7302
57.9714
90.8874
-51.2379
-26.2221
-43.6739
51.7269
98.6293
89.6941
212.779
215.016
84.6404
20.3475
-209.202
18.5919
-209.183
90.2716
213.724
215.955
84.8658
20.0451
-209.768
18.4478
-209.558
-18.4899
-17.032
58.5843
-50.5055
-26.1033
91.8948
-44.2511
98.1974
53.5802
55.8681
89.4522
-51.5071
-26.0675
-44.3013
50.5046
97.6415
90.3449
213.34
216.31
84.5943
19.9514
-211.36
18.3516
-211.151
90.3448
214.824
216.988
85.3725
20.0203
-210.398
18.2897
-210.475
-879.921
-977.721
-1108.06
-878.84
-1107.46
-577.002
-574.94
-1104.9
-976.484
-878.197
-877.799
-1106.37
-1413.41
-1411.43
-1335.05
-971.311
-933.309
-1148.35
-972.252
-1149.88
-1333.66
-1336.48
-1151.55
-973.874
-934.63
-973.896
-1337.49
-1150.68
-1414.98
-1416.51
-1342.02
-977.365
-937.597
-1155.4
-977.552
-1154.95
-1342.56
-1421.06
-1421.37
-1340.63
-1152.46
-936.672
-975.486
-976.35
-1153.89
-1339.11
-1419.91
-1418.15
-578.288
-574.976
-876.661
-973.346
-1101.46
-876.085
-1102.87
-1104.31
-877.333
-974.708
-877.007
-1103.32
-580.596
-577.22
-880.46
-978.544
-1108.12
-879.761
-1108.23
-1108.65
-881.551
-979.022
-879.956
-1108.47
-1424.02
-1426.09
-1346.56
-982.421
-1162.41
-943.155
-1348.59
-982.036
-1160.6
-1344.5
-1157.26
-941.504
-979.124
-980.066
-1158.83
-1343.14
-1421.83
-1420.91
-583.72
-581.738
-887.206
-1115.29
-983.653
-885.346
-1113.17
-1109.87
-882.913
-981.725
-883.824
-1111.34
-1342.87
-977.936
-938.794
-1155.56
-978.291
-1342.78
-1155.91
-1421.37
-1421.49
-1342.71
-1156.27
-939.182
-978.241
-978.548
-1156.13
-1342.6
-1421.29
-1420.49
-21.7957
-18.4993
57.7126
-50.7272
-26.9674
92.3469
-45.056
54.2676
97.6623
54.2224
86.5729
-54.5854
-28.1675
-46.3031
47.1725
96.1507
89.2628
209.168
212.211
83.1187
19.3972
-213.807
18.1093
-213.664
89.8608
213.918
85.7974
214.024
18.8626
-213.064
16.858
-212.995
-23.7979
-22.3971
54.8372
-52.5989
90.6474
-27.3649
51.8198
-46.7984
96.6912
51.0671
86.5302
-54.9998
-28.7898
-48.0397
45.1646
93.8192
89.1207
210.118
213.329
83.596
19.5516
-211.848
17.9012
-211.849
89.9061
213.867
84.8747
215.051
18.8945
-212.589
17.2195
-212.37
-18.7203
-16.1327
59.248
-48.5566
-24.7982
93.0285
-42.6997
98.5719
55.3209
55.8944
88.2721
-51.3334
-25.6167
-43.6097
49.5186
97.2382
89.6425
211.379
214.084
83.9707
20.3581
-208.623
18.788
-208.376
89.7328
213.445
85.0018
214.933
20.2627
-207.875
18.4983
-207.863
-19.1212
-17.7808
57.5554
-50.6617
-25.9189
90.7129
-44.3431
53.1874
97.7297
54.631
88.7714
-51.7407
-26.4969
-44.6823
48.9863
95.9574
89.6751
211.746
214.668
84.2919
21.2193
-206.642
19.5815
-206.652
90.5784
214.823
216.326
85.5299
20.5001
-207.397
18.8076
-207.172
-868.728
-964.825
-1092.37
-868.147
-1093.09
-572.396
-568.994
-1094.19
-965.796
-869.795
-868.732
-1093.61
-1408.2
-1409.68
-1330.36
-969.469
-930.354
-1146.94
-969.124
-1331.85
-1145.49
-1328.45
-1142.21
-966.28
-928.765
-967.362
-1326.91
-1143.91
-1406.44
-1404.89
-1324.51
-963.142
-925.178
-1138.99
-963.869
-1139.95
-1323.75
-1402.46
-1401.42
-1325.24
-1141.17
-926.122
-964.889
-964.921
-1140.58
-1325.74
-1403.3
-1403.83
-573.545
-571.879
-875.125
-970.337
-1100.19
-873.326
-1098.49
-1095.16
-871.171
-968.412
-871.542
-1096.91
-284.089
-256.229
-421.589
-204.07
-283.529
-421.492
-200.994
-283.063
-255.491
-420.285
-202.273
-282.891
-420.508
-201.544
-867.672
-1091.74
-962.857
-866.328
-1090.55
-567.721
-566.276
-1087.36
-961.15
-864.723
-864.776
-1089.11
-1391.59
-1389.7
-1314.12
-954.375
-917.187
-1129.35
-955.382
-1130.94
-1312.78
-1393
-1394.37
-1315.5
-1132.88
-957.17
-918.649
-957.04
-1316.49
-1131.88
-1321.63
-961.819
-1138.21
-922.881
-1322.7
-961.666
-1137.2
-1399.4
-1400.45
-1397.82
-1395.9
-1319.83
-1134.03
-921.476
-958.933
-960.013
-1135.78
-1318.15
-567.961
-564.197
-861.885
-956.95
-1083.23
-861.352
-1084.67
-1086.41
-863.292
-958.491
-862.561
-1085.34
-15.9434
-14.3161
60.5714
-48.1278
92.5367
-23.8042
55.844
-41.7205
99.8942
57.7729
91.0101
-49.1969
-24.2453
-41.9409
51.9178
98.2968
90.638
213.665
216.325
85.4624
22.6499
-203.646
21.0017
-203.688
91.5908
216.222
217.892
86.485
21.9509
-204.459
20.3131
-204.211
-16.716
-14.6765
60.4835
-46.9329
-23.0406
93.9701
-41.0096
99.5821
56.2194
57.2107
89.9008
-49.046
-23.5395
-41.6226
51.3806
98.4952
90.8451
213.783
216.485
85.2089
21.5395
-206.14
19.935
-205.865
90.7435
215.191
85.8853
217.127
21.702
-205.093
19.991
-205.173
-279.193
-250.161
-414.231
-199.033
-279.091
-414.23
-198.168
-280.598
-252.736
-416.089
-201.107
-279.98
-416.229
-198.233
-11.8853
-10.489
63.3484
-43.8903
-19.7132
94.8434
-37.6089
102.265
58.5864
60.781
93.9038
-44.8313
-20.0659
-37.6175
55.1766
100.728
92.9531
218.328
221.09
88.0366
26.4064
-196.052
24.7358
-196.195
94.1646
221.615
222.933
89.0198
25.4278
-197.326
23.8962
-197.025
-12.8686
-10.5581
63.4688
-42.3795
-18.6087
97.0032
-36.3933
102.108
59.6677
60.4261
92.4703
-44.4081
-19.233
-37.3059
54.4713
101.098
93.3333
218.348
220.816
87.707
24.8726
-199.464
23.2763
-199.038
92.9564
219.125
221.125
88.2848
25.2685
-198.069
23.5037
-198.152
-849.736
-942.583
-1070.08
-848.153
-1068.03
-552.013
-551.688
-1063.49
-939.916
-845.239
-845.583
-1066.04
-1360.16
-1357.41
-1362.29
-1364.49
-1371.73
-1373.68
-1369.44
-1366.66
-552.048
-547.295
-839.809
-933.072
-1056.62
-839.566
-1058.74
-1061.99
-842.704
-935.547
-841.726
-1060.07
-560.646
-556.47
-851.852
-946.114
-1071.25
-851.395
-1072.82
-1075.02
-853.863
-947.929
-852.913
-1073.72
-1386.34
-1388.05
-1309.4
-952.408
-1127.99
-913.789
-1310.99
-951.943
-1126.4
-1307.13
-1122.43
-911.86
-948.496
-949.806
-1124.58
-1305.17
-1384.35
-1382.13
-560.973
-560.177
-860.056
-1082.08
-953.762
-858.436
-1080.23
-1076.26
-855.883
-951.447
-856.201
-1078.44
-1377.42
-1375.43
-1378.97
-1380.46
-14.9329
-12.5386
62.1535
-44.4295
-20.8042
95.7278
-38.6044
58.2399
100.973
58.7885
90.9226
-46.973
-21.5496
-39.5134
52.679
99.7405
91.8188
215.306
217.798
86.2363
22.9343
-203.088
21.3422
-202.759
91.5754
216.373
86.8076
218.249
23.212
-201.891
21.5166
-201.982
-14.5681
-13.2776
61.0083
-46.6069
93.0692
-22.174
56.3255
-40.2547
100.382
58.3746
91.9244
-47.4125
-22.552
-40.3306
52.8418
98.846
91.7667
215.464
218.336
86.6032
24.4562
-200.123
22.8457
-200.237
92.9069
218.768
87.8691
220.175
23.5455
-201.219
21.9084
-200.945
-11.9622
-9.81719
63.1004
-42.0376
-17.7024
96.275
-35.5885
101.53
59.3479
60.8156
92.7544
-42.8651
-18.1651
-36.4531
55.0512
100.93
94.2648
221.513
223.862
88.4775
26.5919
-195.321
25.1668
-194.933
93.823
221.971
89.4207
223.983
27.0347
-193.764
25.238
-193.949
-10.4063
-8.89693
64.5442
-41.7885
-17.8436
95.8041
-35.7992
59.8329
103.118
61.9831
94.6653
-43.2562
-18.2605
-35.784
56.3034
101.485
93.1666
221.45
224.15
88.6524
27.7762
-191.569
25.9665
-191.745
94.2689
224.859
225.971
88.844
26.8821
-192.977
25.5078
-192.632
-822.913
-915.135
-1036.56
-822.998
-1039.48
-540.068
-534.307
-1044.26
-918.552
-827.403
-826.163
-1041.45
-1352.32
-1355.05
-1349.36
-1345.79
-1336.78
-1333.05
-1339.79
-1342.94
-540.103
-540.782
-836.896
-928.213
-1054.97
-835.11
-1052.2
-1046.33
-830.972
-924.684
-831.621
-1049.65
-271.056
-226.443
-384.738
-194.023
-271.591
-384.476
-190.186
-273.323
-219.987
-379.618
-192.777
-271.046
-380.628
-194.181
-818.913
-1034.31
-908.403
-816.825
-1030.62
-522.787
-524.923
-1022.85
-903.74
-811.015
-812.083
-1027.31
-1305.4
-1300.3
-1309.41
-1314.04
-1326.37
-1330.06
-1322.69
-1317.9
-522.928
-515.455
-799.028
-890.269
-1008.87
-799.634
-1012.96
-1019.94
-805.995
-895.023
-804.386
-1015.79
-12.2427
-9.89773
63.684
-41.5629
94.7285
-18.2686
59.2445
-36.3608
101.403
60.7543
91.7135
-45.0288
-19.0128
-36.6847
54.4201
99.4772
89.9588
224.568
226.968
86.2744
26.4457
-188.209
24.294
-188.24
90.3049
227.594
228.482
84.2741
26.1495
-188.994
25.1994
-188.772
-15.2852
-14.3872
56.969
-48.1418
-21.7398
88.1501
-40.3898
95.6333
52.6533
56.3949
89.3583
-45.2609
-21.5993
-40.5624
51.6368
95.3755
93.0503
224.998
227.313
86.8162
27.4273
-190.805
26.2414
-190.429
92.9011
225.292
89.0004
227.332
27.5326
-189.478
25.5533
-189.675
-289.858
-220.729
-355.167
-205.997
-283.079
-356.629
-210.909
-279.1
-210.617
-362.953
-204.418
-282.014
-362.727
-199.061
-55.9003
-46.8478
43.9552
-72.7491
-56.0107
107.028
-74.3374
110.744
37.5258
44.1082
113.13
-91.0899
-59.3336
-77.0609
44.3761
116.61
54.5003
236.876
239.596
52.7607
-8.57475
-205.099
-9.68705
-205.091
49.4809
242.129
241.028
46.4785
-1.51517
-199.944
-1.6533
-200.08
-55.7485
-59.4976
53.2015
-100.398
-95.5814
128.316
-93.7258
128.119
61.3143
50.8469
119.184
-92.008
-90.7038
-96.5361
43.3902
121.512
65.4515
237.339
238.353
58.5249
11.7087
-192.474
11.5597
-192.7
69.1501
232.845
236.745
66.9015
7.8914
-195.772
5.1217
-195.36
-754.128
-840.713
-964.891
-750.173
-958.016
-465.573
-466.254
-943.397
-832.476
-736.512
-739.861
-952.022
-1221.15
-1213.58
-1226.38
-1234.36
-1252.04
-1257.46
-1247.66
-1239.82
-483.382
-491.435
-705.672
-804.65
-914.272
-708.201
-922.447
-937.444
-724.612
-814.531
-720.796
-928.227
-496.583
-485.617
-762.81
-854.847
-969.423
-764.421
-975.377
-985.818
-774.254
-861.338
-771.787
-979.542
-1291.37
-1296.3
-1286.84
-1280.77
-496.219
-501.159
-793.253
-1005.71
-880.668
-790.542
-1000.71
-990.129
-781.772
-874.354
-783.682
-996.289
-1266.46
-1260.96
-1270.46
-1276.19
-30.0844
-33.0657
39.4498
-71.1913
-39.4349
98.9896
-59.9753
36.0056
101.621
41.7649
94.7201
-58.8783
-37.9723
-58.3021
38.7595
96.0502
85.5045
228.551
230.645
78.4363
24.2543
-188.283
23.5302
-188.083
86.4792
228.13
83.424
230.459
23.4184
-188.18
20.9076
-188.097
-24.535
-19.7591
55.6521
-48.3597
91.2018
-26.4442
51.8415
-45.1561
93.0511
51.7335
89.1952
-57.0812
-27.943
-46.4952
44.1553
96.1292
78.4775
227.732
230.136
76.0279
17.4087
-190.287
14.8286
-190.007
76.6324
231.313
70.0305
231.461
19.1581
-188.927
18.7848
-188.914
6.50265
20.4759
142.205
-30.1154
-174.946
165.559
-38.6871
171.977
160.747
134.592
167.563
-58.6272
-176.722
-52.5885
117.367
169.856
40.3511
253.585
252.767
41.6729
-16.7
-212.455
-19.3027
-212.001
45.7057
245.906
41.914
250.871
-28.9415
-218.535
-23.5523
-220.566
-1.07264
-12.1312
89.0169
-90.0653
-141.637
139.63
-85.1113
72.228
147.551
100.24
158.929
-72.0334
-143.097
-73.2349
111.278
157.464
28.8323
252.092
245.589
33.7253
-60.5619
-228.861
-41.4454
-237.713
16.6994
211.819
227.195
12.0403
-34.4332
-229.341
-41.2179
-227.104
-755.275
-888.296
-882.822
-778.091
-915.537
-623.624
-591.271
-913.017
-889.379
-796.171
-800.686
-922.919
-1202.74
-1210
-1198.16
-1187.25
-1149.11
-1124.56
-1164.93
-1180.69
-631.022
-603.956
-697.565
-806.974
-909.199
-727.3
-901.134
-897.759
-778.896
-808.796
-745.378
-897.63
-521.9
-183.823
-439.274
-282.888
-567.887
-409.17
-251.313
-813.158
-825.563
-781.724
-706.037
-788.445
-786.646
-764.226
-835.701
-725.9
-798.817
-896.068
-876.729
-927.149
-686.793
-301.31
-712.672
-877.181
-838.064
-883.891
-726.624
-362.474
-749.17
-813.414
-922.188
-838.193
-489.5
-377.942
-650.219
-818.804
-684.299
-795.734
-865.353
-588.273
-774
-727.304
-853.763
-841.971
-702.16
-819.588
-478.243
-482.479
-729.841
-809.631
-700.195
-683.563
-777.137
-721.274
-699.232
-792.802
-688.378
-697.313
-711.103
-1049.25
-1096.58
-970.589
-862.725
-458.78
-661.082
-787.373
-46.455
67.6013
166.33
-28.5274
158.073
-239.625
179.005
-31.5398
139.459
136.823
-52.4128
-148.217
-273.562
-89.5555
0.74649
77.1187
-254.781
-459.777
-669.752
-219.338
-588.004
-393.172
-774.798
-632.329
-432.827
-669.863
-146.146
-284.694
-282.375
-120.26
-159.148
-92.6829
79.4831
-311.263
-85.0398
-235.587
-73.296
-243.638
-45.0763
189.101
-7.31995
157.819
-170.684
-213.394
-346.183
-263.973
-486.138
-635.851
-609.4
-508.148
-491.357
-607.263
-480.244
-629.883
-501.493
-597.986
-495.306
-631.481
-607.005
-493.174
-603.715
-495.373
-603.479
-630.383
-602.958
-496.325
-470.406
-575.224
-470.103
-576.88
-473.26
-580.191
-473.704
-578.699
-466.946
-573.363
-467.112
-571.914
-463.931
-569.011
-570.287
-464.187
-499.466
-642.451
-515.894
-622.039
-488.946
-592.905
-478.624
-605.45
-561.509
-667.563
-533.228
-697.715
-592.83
-757.7
-729.601
-655.858
-495.688
-605.378
-605.908
-496.328
-496.44
-604.595
-495.648
-605.679
-476.791
-581.966
-476.378
-583.517
-460.246
-567.712
-567.133
-462.174
-462.285
-567.801
-461.434
-567.291
-465.13
-569.264
-461.556
-572.23
-466.955
-583.444
-473.094
-576.879
-1371.61
-995.527
-953.533
-1176.13
-996.932
-1179.88
-1365.29
-1379.9
-1183.31
-1004.02
-955.474
-1005.48
-1384.29
-1182.58
-1383.34
-943.611
-1003.18
-1173.8
-1388.01
-1180.55
-948.267
-1008.59
-1005.98
-1178.47
-1388.62
-1352.98
-988.1
-950.644
-1172.19
-987.578
-1357.83
-1168.71
-1349.67
-1164.63
-983.409
-948.379
-983.833
-1348.73
-1165.93
-1355.67
-988.564
-947.338
-1167.29
-987.655
-1165.85
-1357.93
-1352.33
-1163.5
-946.276
-983.904
-985.286
-1164.49
-1350.25
-1353.59
-985.117
-946.267
-1164.4
-986.158
-1166.38
-1351.36
-1356.17
-1168.53
-988.67
-947.805
-988.864
-1357.86
-1167.48
-1361.54
-990.222
-1168.8
-948.352
-1360.4
-991.295
-1169.77
-1361.23
-1168.83
-948.423
-990.694
-991.017
-1169.74
-1359.99
-1284.19
-929.075
-893.376
-1101.5
-930.501
-1103.85
-1282.23
-1286.43
-1107.27
-933.627
-895.692
-933.049
-1288.07
-1105.46
-1295.51
-940.896
-902.547
-1115.44
-940.303
-1113.63
-1297.25
-1292.88
-1109.04
-900.282
-936.285
-937.782
-1111.58
-1290.54
-1300.59
-943.118
-906.482
-1116.86
-944.239
-1299.17
-1118.6
-1302.15
-1120.99
-908.183
-946.417
-946.112
-1119.75
-1303.28
-1277.27
-926.093
-888.041
-1099.54
-925.135
-1279.59
-1097.03
-1273.84
-1091.06
-919.892
-885.001
-921.786
-1270.89
-1094.37
-1262.1
-909.886
-875.475
-1080.54
-911.776
-1083.68
-1259.48
-1265.26
-1088.62
-878.627
-916.276
-915.243
-1085.97
-1267.59
-1232.68
-883.507
-850.927
-1051.8
-886.033
-1056.08
-1229.32
-1236.99
-1063.31
-892.539
-855.284
-890.919
-1240.26
-1059.36
-1253.07
-905.865
-1077.9
-868.135
-1255.98
-904.443
-1074.48
-1248.66
-1066.66
-864.092
-897.493
-899.935
-1071.03
-1244.88
-1140.43
-841.872
-775.331
-961.468
-820.13
-968.911
-1136.55
-1147.84
-982.128
-825.149
-781.204
-832.907
-1153.45
-974.406
-1175.61
-844.078
-802.67
-1007.95
-843.821
-1001.92
-1180.66
-1167.88
-988.163
-795.517
-836.005
-835.429
-996.374
-1161.66
-1220.78
-878.074
-1048.18
-840.556
-1224.64
-876.224
-1043.33
-1214.8
-1032.97
-835.092
-867.337
-870.179
-1038.79
-1209.75
-1192.14
-851.088
-816.837
-1012.57
-852.855
-1187.34
-1018.4
-1198.48
-1028.34
-822.656
-860.854
-859.278
-1022.68
-1203.28
-1128.37
-835.455
-803.28
-957.794
-866.286
-1130.81
-952.689
-1120.97
-956.172
-894.585
-812.905
-863.911
-1118.99
-952.971
-1094.25
-912.931
-859.955
-960.664
-897.956
-971.537
-1087.02
-1108.94
-966.687
-867.807
-887.831
-916.293
-970.822
-1110.49
-1023.88
-870.145
-935.587
-814.349
-1054.18
-860.614
-894.373
-947.634
-757.691
-765.132
-759.566
-783.911
-830.905
-856.695
)
;

boundaryField
{
    left
    {
        type            calculated;
        value           nonuniform List<scalar> 0();
    }
    bottom
    {
        type            calculated;
        value           nonuniform List<scalar> 
243
(
-444.113
-448.322
-443.003
-441.247
-422.91
-419.386
-419.554
-434.028
-448.349
-447.616
-434.671
-432.132
-409.562
-408.08
-211.173
-200.599
-435.718
-449.388
-224.311
-219.957
-222.62
-223.662
-444.681
-439.243
-220.388
-221.653
-209.551
-211.732
-426.242
-415.767
-205.355
-207.429
-237.105
-218.265
-412.161
-478.262
-364.659
-277.069
-96.2186
-224.6
-224.593
-448.918
-104.169
-104.624
-101.505
-105.333
-103.629
-102.865
-105.023
-104.418
-446.327
-224.725
-225.062
-217.326
-218.906
-437.028
-100.331
-98.9487
-102.405
-101.122
-95.2047
-93.2238
-98.0871
-96.2851
-429.32
-213.765
-215.667
-203.171
-203.863
-412.362
-89.053
-88.8126
-92.0043
-90.2082
-96.084
-116.894
-88.4872
-93.3807
-408.632
-208.519
-204.478
-339.946
-267.171
-130.101
-199.11
-218.469
-85.9154
-90.4571
-103.942
-103.892
-104.795
-105.703
-103.413
-102.939
-105.34
-104.867
-100.06
-99.2954
-102.244
-101.526
-94.8239
-93.6769
-97.7565
-96.7612
-89.1786
-88.3149
-91.6967
-90.4651
-101.195
-107.658
-89.9074
-90.738
-67.019
-159.146
-255.503
-32.6136
-146.068
-177.088
-371.833
-383.932
-337.261
-421.309
-441.577
-210.124
-252.656
-324.601
-325.015
-325.55
-326.394
-324.707
-325.903
-319.023
-318.764
-320.478
-320.058
-316.924
-316.819
-317.864
-317.702
-324.504
-324.737
-325.324
-325.715
-321.915
-321.434
-323.523
-322.947
-311.097
-310.924
-312.111
-311.83
-309.392
-309.232
-310.255
-309.973
-314.957
-314.823
-315.998
-315.794
-313.019
-312.755
-314.11
-313.715
-304.102
-303.923
-305.128
-304.826
-302.226
-301.978
-303.248
-302.913
-307.671
-307.513
-308.585
-308.308
-305.94
-305.727
-306.921
-306.584
-295.511
-295.252
-296.892
-296.457
-292.973
-292.609
-294.386
-293.968
-300.149