/*--------------------------------*- C++ -*----------------------------------*\
| =========                 |                                                 |
| \\      /  F ield         | OpenFOAM: The Open Source CFD Toolbox           |
|  \\    /   O peration     | Version:  2012                                  |
|   \\  /    A nd           | Website:  www.openfoam.com                      |
|    \\/     M anipulation  |                                                 |
\*---------------------------------------------------------------------------*/
FoamFile
{
    version     2.0;
    format      ascii;
    class       volScalarField;
    location    "0.106/solid";
    object      sigmaHyd;
}
// * * * * * * * * * * * * * * * * * * * * * * * * * * * * * * * * * * * * * //

dimensions      [1 -1 -2 0 0 0 0];


internalField   nonuniform List<scalar> 
3125
(
740.694
738.794
725.726
722.752
695.058
689.059
632.095
615.053
735.484
732.927
713.188
709.329
666.611
658.152
737.084
377.295
923.748
303.757
368.17
311.057
389.292
917.245
737.624
916.887
321.642
390.269
310.536
728.336
383.101
311.031
384.374
306.335
381.72
719.725
310.897
379.624
296.941
700.365
363.069
291.204
366.615
282.888
359.081
682.275
290.643
354.579
262.775
641.447
325.068
263.405
329.164
300.448
319.331
573.291
266.91
315.839
137.046
1125.13
146.04
146.597
1111.12
1117.33
304.924
737.127
387.058
314.857
386.885
1114.45
1122.34
144.367
143.501
311.311
730.553
387.997
317.082
386.491
141.711
142.572
1100.24
1107.03
1110.14
1107.43
145.543
143.816
141.327
139.233
1097.54
1091.96
305.915
716.625
375.242
303.245
377.403
1082.73
1090.13
136.325
138.224
297.579
705.069
372.768
302.781
369.836
128.042
131.182
1057.57
1068.34
1079.93
1071.42
135.302
132.555
126.382
122.695
1053.55
282.258
674.767
344.473
273.277
349.69
117.354
120.743
263.299
649.677
339.147
272.528
333.932
122.8
113.996
115.444
114.687
127.147
184.875
306.751
265.288
241.757
637.085
293.562
479.446
239.893
210.471
685.628
486.219
268.302
235.198
700.641
493.157
222.747
693.714
503.409
701.281
319.337
251.713
256.157
702.108
502
502.929
331.333
251.27
703.124
500.553
256.193
702.907
496.763
696.106
310.387
250.408
497.202
251.014
695.059
495.614
311.924
250.22
693.033
495.228
250.779
693.91
491.434
686.854
308.726
247.154
248.66
687.835
490.67
493.162
309.686
249.63
691.352
493.895
250.105
689.456
475.082
670.37
294.597
236.646
476.289
236.796
667.884
472.183
295.022
233.108
663.065
470.855
234.683
665.199
462.437
650.829
287.759
225.96
227.66
653.603
460.727
466.047
287.131
230.341
660.123
467.598
230.301
656.998
433.878
619.336
256.338
207.869
434.792
209.666
616.922
432.342
263.259
214.65
615.394
432.72
209.902
615.325
435.854
619.19
286.231
268.194
230.599
619.705
461.084
434.407
268.763
212.289
616.805
431.452
223.519
618.799
-16.4429
126.874
128.692
119.773
15.6156
-6.61556
123.039
110.805
971.622
1143.27
1013.18
1017.08
1154.53
1016.3
979.74
975.254
33.0812
40.8654
141.072
149.932
143.267
30.7997
41.2624
144.197
149.379
147.198
973.214
971.777
1106.22
1009.16
1004.71
1008.07
1110.14
1004.86
977.605
972.16
500.139
701.491
304.704
248.032
500.25
701.6
248.3
500.132
310.935
701.937
251.963
701.764
250.31
500.898
974.329
975.423
1119.34
1006.81
1009.43
1009.6
1122.89
1010.61
973.719
974.532
29.4469
29.3923
144.014
143.354
142.944
34.6892
31.9095
142.991
142.775
141.631
499.477
314.414
696.917
252.105
498.716
697.648
254.133
500.725
317.452
700.732
254.21
501.007
699.01
255.361
34.7054
35.8253
143.33
142.143
143.332
35.1979
36.4073
144.307
142.45
143.489
965.775
963.929
1102.89
993.986
996.267
999.381
1105.42
997.73
961.162
962.51
966.255
966.546
1004.61
1107.56
1001.44
971.608
967.667
999.969
1107.02
1000.45
35.705
39.6403
146.39
146.138
145.931
37.5585
40.2072
145.078
145.24
146.027
33.1799
36.195
143.226
141.273
142.463
35.532
36.6862
141.214
140.335
141.746
953.35
954.277
1095.14
992.175
989.223
986.178
1093.33
987.78
959.259
955.773
488.153
685.445
305.076
245.609
488.879
683.817
246.081
486.327
305.548
680.802
243.709
682.093
244.911
485.534
952.111
949.28
1085.21
978.069
980.532
984.856
1087.8
982.281
945.922
947.524
32.5914
33.5738
138.322
137.263
138.669
31.0441
33.4893
140.334
138.058
139.497
480.022
300.701
672.675
238.891
478.931
674.317
240.434
482.428
300.798
678.782
242.061
483.441
676.554
242.3
26.8493
27.2381
129.838
129.341
130.542
23.656
26.788
133.114
130.712
132.055
933.767
929.792
1061.13
955.399
958.999
965.505
1064.84
961.669
924.445
927.064
936.036
937.915
976.07
1076.96
972.64
943.86
940.113
967.754
1074.06
970.521
27.6273
30.7163
137.355
134.974
136.406
30.6224
31.232
134.509
133.778
135.13
18.9011
22.21
128.176
125.752
127.008
22.7308
22.7821
124.29
124.087
125.133
909.635
913.052
1049.11
952.442
947.63
939.72
1044.32
944.188
921.487
916.601
454.954
647.291
277.568
222.538
456.82
643.576
222.41
450.914
278.933
636.355
218.055
639.629
219.617
448.935
905.958
900.353
921.33
926.228
936.057
930.533
892.106
895.961
17.6833
17.6195
118.744
118.461
119.284
14.3769
17.2043
122.324
120.129
121.301
439.331
268.933
621.888
211.517
437.582
624.863
212.036
442.892
266.231
632.64
214.184
444.87
628.737
214.242
10.4526
13.562
123.999
118.343
119.347
23.7384
15.4791
115.269
116
117.715
869.864
867.412
894.488
892.358
899.195
896.816
865.49
862.327
874.05
877.047
917.17
911.639
887.842
882.243
903.061
906.941
12.4199
13.165
116.859
115.374
116.664
12.7881
13.1792
115.908
114.525
115.132
129.386
50.8474
129.999
137.152
138.396
23.203
41.0575
163.438
157.337
157.751
841.359
854.225
889.492
891.035
855.701
875.76
861.516
867.103
550.612
624.147
410.134
306.637
498.463
619.441
396.237
675.573
670.764
614.817
112.532
498.143
248.555
642.109
419.464
636.002
495.59
818.666
752.481
677.669
821.234
747.195
682.29
152.171
337.39
79.5674
466.446
424.796
202.951
203.46
331.891
374.233
232.732
241.262
456.022
408.44
288.412
286.642
495.975
413.189
278.016
491.006
420.932
498.591
311.655
295.52
297.731
501.398
419.969
426.122
325.516
297.838
502.335
423.966
302.96
506.816
417.345
496.926
307.541
295.314
417.863
294.771
497.729
710.436
865.047
709.405
866.704
711.988
869.472
712.752
868.353
416.906
308.587
295.231
495.374
416.689
295.135
496.687
412.306
490.095
304.406
291.22
291.472
491.574
411.957
706.459
862.987
707.587
861.127
704.461
857.977
859.319
703.363
415.559
307.66
294.84
494.587
416.21
294.499
495.227
399.309
477.449
293.521
281.042
400.216
280.448
477.984
394.904
290.266
276.27
471.13
394.108
276.534
472.523
385.827
461.245
282.713
268.378
268.598
462.484
384.747
391.478
286.812
274.392
469.181
392.58
273.776
469.716
361.102
434.084
257.218
246.038
360.843
246.391
436.517
362.957
264.058
251.476
437.087
362.97
247.405
432.152
391.004
458.1
300.207
288.719
277.048
448.899
398.886
365.897
262.144
245.937
433.026
361.323
250.963
440.138
-61.6243
3.90705
-13.1644
567.908
627.903
617.388
18.0084
23.4574
22.7665
33.9317
626.85
624.408
638.564
636.825
416.327
497.779
301.383
292.696
417.244
497.533
290.566
421.407
310.885
501.783
298.612
502.134
297.19
421.81
623.84
620.775
630.595
627.209
10.4779
7.85891
21.935
19.3207
419.061
309.604
497.487
296.37
418.702
499.076
296.87
716.654
874.137
717.66
872.294
422.68
314.626
501.803
299.937
422.947
503.041
300.477
715.116
870.358
714.294
870.992
19.6454
19.5768
22.1031
22.2038
624.083
620.338
622.243
619.526
624.28
621.132
631.184
626.473
21.2744
23.3561
25.1458
27.6445
19.3124
20.6976
22.429
23.1152
615.737
612.819
621.601
616.914
410.587
489.359
302.975
290.335
411.19
490.057
289.884
697.98
850.556
852.446
696.652
700.18
856.262
701.306
854.54
408.141
301.271
485.551
287.8
487.038
288.026
407.716
615.36
611.317
610.667
608.179
18.6217
18.8968
17.7356
18.6745
401.997
295.941
478.796
282.402
401.421
480.339
282.745
692.683
848.156
694.152
845.866
405.972
299.419
484.437
286.815
406.779
485.01
286.294
13.3374
13.2518
10.1246
11.8244
602.103
597.451
593.819
592.26
602.816
600.54
610.008
605.338
14.0855
15.4819
17.3483
17.51
5.02418
7.32426
9.33048
8.89827
582.095
581.282
593.101
587.968
381.588
458.61
277.983
265.805
382.787
459.222
265.189
375.254
273.948
449.797
259.332
450.539
259.379
373.958
581.337
575.784
568.04
568.157
3.93282
2.9596
-0.348168
2.63949
364.834
264.812
438.353
250.452
363.543
437.75
249.836
370.474
267.549
446.318
255.902
371.501
447.385
255.464
-7.12516
-10.8284
1.19467
4.64296
552.864
546.653
546.143
546.742
552.73
553.666
567.38
561.347
-4.9563
-1.12115
-1.9523
-3.92085
55.675
50.7815
1.67923
-3.6195
549.179
559.535
550.414
545.489
430.968
457.598
324.812
295.07
398.835
471.474
315.707
575.87
468.395
514.815
417.569
627.429
722.978
598.885
707.371
522.217
299.753
362.082
235.992
415.404
432.778
333.869
543.163
541.516
65.6292
96.359
626.283
633.647
606.156
334.593
517.091
622.004
599.092
535.869
305.456
520.391
374.315
234.601
248.205
464.029
378.974
239.293
455.762
397.35
282.098
257.361
471.214
391.538
266.212
481.365
423.992
314.31
305.823
505.87
426.211
300.616
502.542
429.428
327.944
306.669
505.665
429.119
307.656
509.335
417.596
309.096
296.617
496.699
417.664
294.821
496.815
417.362
310.35
296.552
496.161
417.797
295.45
496.735
413.368
306.558
294.443
492.125
414.184
292.506
491.88
415.414
308.814
295.358
492.983
415.126
294.346
493.939
398.884
294.526
281.058
475.511
398.354
279.785
476.08
396.226
292.167
279.605
473.677
397.272
278.107
473.871
387.374
284.3
271.948
464.187
388.561
270.676
464.55
390.758
287.596
273.965
466.709
389.978
272.689
467.235
360.222
258.327
247.394
434.971
359.533
243.815
431.864
361.811
257.297
244.349
429.804
359.296
249.475
436.482
384.343
281.319
255.376
439.674
372.527
272.444
454.569
368.163
267.6
258.952
445.413
370.917
249.597
436.302
-54.9935
-58.7604
-158.993
-7.78368
10.0361
-207.3
-158.597
-203.376
17.5476
-10.646
5.93094
-154.209
-210.776
-163.373
-303.809
-299.465
-168.445
-46.4729
315.347
-42.4104
314.163
-158.635
-274.118
-289.546
-147.394
-53.6533
312.577
-55.6763
313.944
-34.6185
-19.4093
-120.538
52.2613
18.0407
-161.377
40.8246
-177.177
-102.165
-127.757
-194.249
25.6533
6.76785
27.9103
-137.57
-187.654
-178.982
-312.28
-318.709
-172.921
-181.693
-64.4317
311.852
-61.0297
309.642
960.829
832.558
1014.54
578.053
571.783
1021.67
966.61
844.326
836.088
1021.81
1292.04
1279.98
1302.05
1314.25
1321.22
1325.09
1322.94
603.361
613.046
864.886
980.156
1027.41
862.933
1030.1
1031.08
852.093
980.188
860.049
1031.06
32.9019
27.4239
-81.5917
67.7758
42.0884
-140.94
65.6403
-140.665
-83.8298
-77.6898
-130.848
77.9237
46.2399
69.0833
-71.3521
-137.803
-136.738
-244.784
-251.91
-131.381
-35.5008
315.123
-36.0657
315.312
-138.98
-262.347
-142.516
-258.192
-31.435
314.823
-29.6666
314.451
42.2923
39.4391
-75.9476
66.2115
41.8697
-146.915
66.4938
-84.1099
-140.315
-69.2675
-128.648
76.5388
47.7169
72.8041
-63.1245
-133.628
-133.683
-248.271
-253.746
-130.93
-30.6342
312.905
-29.6635
312.975
-133.651
-252.629
-254.721
-131.584
-30.5708
314.207
-29.515
313.656
859.864
972.905
1019.36
859.471
1017.58
629.502
625.495
1014.31
971.602
860.788
858.752
1016.15
1265.41
1271.45
1261.11
1262.43
1274.96
1280.01
1271.08
1264.75
639.486
636.661
866.869
976.604
1024.47
866.018
1020.51
1017.12
862.451
974.497
865.278
1017.32
416.622
302.55
498.213
293.528
417.35
497.089
290.501
420.082
311.204
498.765
295.023
419.584
501.01
295.735
859.94
1021.26
975.476
860.234
1022.64
623.331
621.367
1021.33
975.346
861.005
860.007
1023.16
1276.35
1272.97
1279.05
1281.98
1285.93
1283.25
1286.19
1284.41
628.281
626.997
861.855
974.465
1019.57
861.894
1021.59
1022.68
861.26
975.887
862.55
1021.65
13.0998
10.9122
-96.2308
65.0894
-145.447
36.1443
-91.4426
59.0035
-150.863
-93.3996
-144.845
65.396
36.1547
58.3077
-89.2652
-150.57
-131.96
-253.727
-256.436
-130.876
-29.1865
309.562
-27.8903
309.555
-131.485
-249.369
-255.306
-127.366
-30.2639
310.484
-29.4288
310.056
18.7048
20.9746
-85.8175
70.7199
41.4788
-137.652
65.384
-142.827
-80.9262
-84.6767
-142.318
67.0633
39.9659
63.083
-84.285
-143.917
-135.309
-256.244
-261.785
-131.522
-32.1729
312.346
-30.801
311.787
-135.374
-256.741
-132.294
-262.449
-31.7475
311.059
-30.5412
311.066
420.414
312.02
500.187
300.742
421.417
499.332
298.158
423.035
316.332
500.802
301.69
422.728
502.183
301.002
24.2133
22.7932
-84.086
70.2219
41.8739
-136.695
65.5761
-139.786
-81.7261
-80.7461
-133.973
71.591
42.6015
65.5828
-77.2494
-138.734
-127.452
-244.307
-248.473
-125.056
-28.4945
302.231
-27.6295
302.34
-127.72
-245.049
-249.224
-124.982
-28.41
303.331
-27.1385
302.703
25.7293
25.513
-81.3599
70.7579
42.6624
-134.72
66.6434
-137.741
-79.0811
-78.2729
-133.32
71.8738
43.2457
66.3993
-75.8125
-136.883
-128.142
-245.059
-249.937
-124.976
-28.4703
305.434
-27.1861
304.811
-128.071
-246.948
-251.072
-125.68
-28.1509
303.985
-27.2334
304.181
854.273
966.088
1011.88
853.916
1011.71
621.706
620.653
1008.75
964.89
852.505
852.913
1010.65
1259.83
1257.94
1256.19
1101.71
995.139
1125.26
1103.28
1126.83
1254.78
1257.41
1128.45
1104.82
996.65
1104.7
1258.37
1127.51
1261.1
1262.41
1262.71
1108.51
999.85
1132.38
1108.8
1132.03
1263.11
1266.81
1266.88
1261.43
1129.36
998.856
1106.3
1107.8
1130.94
1259.86
1265.68
1263.9
622.677
620.252
850.638
961.834
1006
850.813
1007.72
1008.41
851.612
963.19
851.768
1007.75
624.801
622.473
854.64
966.617
1011.66
854.525
1011.83
1011.37
855.286
966.839
854.686
1011.85
1268.31
1270.14
1265.74
1113.26
1137.92
1004.54
1267.8
1112.56
1136.01
1263.8
1132.77
1002.74
1109.41
1110.85
1134.2
1262.45
1266.09
1265.32
627.469
626.392
860.564
1017.85
971.123
859.317
1015.95
1012.48
856.465
969.132
857.762
1014.13
1263.02
1108.84
1000.69
1132.29
1109.49
1263.06
1132.41
1266.5
1266.82
1262.56
1132.06
1000.95
1108.8
1109.44
1132.35
1262.2
1266.27
1265.02
29.6957
27.3148
-80.4367
71.075
43.7615
-135.565
67.5436
-79.9785
-137.302
-76.3912
-130.192
75.501
45.8238
68.7997
-72.1495
-135.316
-127.369
-242.001
-246.994
-123.987
-27.6613
309.034
-26.7949
308.501
-127.729
-247.151
-126.696
-249.248
-26.6135
307.729
-25.5846
307.822
32.1803
31.4078
-77.3852
73.1879
-134.972
45.5537
-77.5949
69.6249
-135.687
-73.2438
-129.29
75.7912
47.1805
70.6594
-69.9556
-133.509
-127.149
-242.953
-247.948
-124.179
-27.6065
305.94
-26.8728
306.059
-127.533
-246.119
-125.334
-249.356
-27.1362
307.211
-25.7505
306.572
26.0815
24.4394
-81.9775
68.4256
40.9388
-135.837
64.6772
-137.98
-80.9579
-78.1774
-131.726
71.5882
42.495
65.4658
-74.5284
-136.281
-127.228
-242.185
-246.805
-124.285
-28.8339
301.616
-27.6146
300.954
-127.173
-244.607
-125.11
-248.062
-28.3893
300.385
-27.5118
300.491
26.8396
26.2319
-80.1025
70.9463
42.8212
-134.337
66.6776
-78.6136
-136.568
-76.7456
-131.261
72.1206
43.6245
66.7504
-73.8565
-135.359
-127.487
-242.475
-247.23
-124.583
-29.6453
298.579
-28.9245
298.733
-127.973
-245.182
-248.667
-125.696
-29.1025
299.891
-27.6737
299.233
843.212
953.882
997.935
843.267
998.8
616.407
614.013
999.1
954.715
844.161
843.868
999.053
1255.06
1256.34
1251.66
1100.01
992.226
1123.91
1099.67
1253.12
1122.44
1249.87
1119.17
1096.51
990.515
1098.06
1248.32
1120.87
1253.32
1251.82
1246.52
1093.48
987.163
1116.62
1094.65
1117.47
1245.83
1250.15
1249.23
1247.02
1118.3
988.138
1095.28
1095.45
1117.91
1247.36
1250.73
1250.93
617.436
616.66
849.134
959.051
1004.91
848.074
1003.49
999.866
845.41
957.03
846.369
1001.98
410.577
304.273
488.349
291.145
410.382
488.844
289.743
409.096
303.449
487.355
290.463
409.842
487.508
288.905
842.27
997.572
952.172
841.623
996.725
611.903
611.313
993.213
950.428
839.409
840.14
995.344
1240.72
1238.95
1237.15
1084.41
979.218
1107.53
1085.94
1109.07
1235.86
1241.78
1242.89
1238.28
1110.74
1087.49
980.812
1087.35
1239.15
1109.81
1244.02
1092.33
1116.01
985.065
1244.99
1092.22
1115.04
1247.64
1248.48
1246.13
1244.22
1242.33
1111.79
983.547
1089.11
1090.75
1113.62
1240.62
611.997
609.243
836.626
946.532
989.927
836.778
991.614
992.523
838.068
948.026
837.949
991.853
22.9261
21.9664
-83.664
67.8141
-136.369
39.6715
-81.677
63.3805
-139.078
-80.4174
-133.697
68.9732
40.3559
63.3268
-77.3238
-138.053
-128.624
-243.332
-247.832
-125.932
-31.504
294.329
-30.8073
294.559
-129.179
-245.553
-249.175
-126.828
-30.993
295.776
-29.5916
295.058
23.4433
22.4735
-83.5724
66.2102
38.6589
-136.807
62.4461
-139.185
-82.1604
-79.8796
-133.64
68.6685
39.8824
62.8568
-76.7924
-137.714
-128.567
-243.611
-248.195
-125.582
-30.4474
298.056
-29.1636
297.339
-128.351
-245.394
-126.067
-249.294
-30.2777
296.438
-29.4409
296.69
403.229
298.188
481.183
285.751
404.185
481.153
284
405.64
300.486
482.622
286.957
405.207
483.33
285.81
16.5213
15.9757
-87.9492
61.606
33.6308
-139.636
57.1463
-142.374
-85.7266
-85.0177
-137.508
62.2423
34.0486
56.7429
-82.3257
-141.632
-132.29
-245.281
-249.769
-129.688
-36.9819
283.265
-36.4317
283.756
-133.118
-247.952
-251.25
-130.808
-36.2186
285.495
-34.762
284.595
17.0013
15.4578
-88.9179
58.36
31.3362
-141.478
54.66
-143.553
-88.2622
-85.3595
-137.711
61.3219
32.8829
55.6898
-81.822
-141.811
-132.002
-245.547
-249.889
-129.096
-35.2086
288.515
-33.8018
287.514
-131.532
-246.884
-250.74
-129.318
-35.2491
286.296
-34.4937
286.66
825.55
933.721
978.822
824.718
977.142
596.899
597.158
972.594
931.027
821.459
822.37
975.433
1213.99
1211.56
1215.52
1217.29
1223.69
1225.33
1221.67
1219.02
596.828
593.303
816.747
925.081
967.347
817.004
969.501
971.608
819.234
927.426
818.942
970.17
604.797
601.743
827.409
936.617
979.539
827.564
981.266
982.51
829.23
938.338
828.974
981.685
1236.09
1237.57
1232.83
1082.62
1106.34
976.078
1234.3
1082.19
1104.8
1230.73
1100.88
974.024
1078.47
1080.27
1103.03
1228.8
1234.24
1232.1
605.176
605.091
834.948
989.099
943.746
834.043
987.551
983.398
831.038
941.356
831.961
985.93
1228.45
1226.67
1229.58
1230.73
20.8097
19.3372
-86.0026
62.5344
35.3242
-139.045
58.8988
-85.0509
-141.149
-82.18
-135.079
65.6522
36.8799
59.7285
-78.6714
-139.399
-129.835
-243.971
-248.351
-126.979
-32.3694
293.734
-31.0388
292.905
-129.491
-245.506
-127.252
-249.293
-32.3091
291.843
-31.5785
292.164
20.8725
20.3461
-84.4331
65.662
-137.084
37.5682
-82.4365
61.2466
-139.686
-81.3812
-134.749
66.4065
38.0976
60.9942
-78.6693
-138.813
-130.275
-243.95
-248.6
-127.489
-34.0275
289.247
-33.44
289.629
-130.988
-246.77
-128.743
-250.148
-33.3205
291.129
-31.8316
290.325
12.4142
10.4978
-92.3669
53.2365
26.5964
-144.232
49.4241
-146.207
-92.2821
-89.2776
-140.508
56.1777
28.2473
50.9349
-85.4549
-144.444
-134.172
-246.753
-251.037
-131.2
-38.2042
282.413
-36.843
281.378
-133.583
-247.989
-131.496
-251.757
-38.3212
279.811
-37.6521
280.376
11.6701
11.3716
-91.4103
57.0917
29.3311
-142.165
52.6814
-88.9516
-144.927
-88.6942
-140.282
57.5128
29.5804
51.9971
-86.2238
-144.364
-134.251
-246.33
-250.632
-131.868
-40.1262
276.226
-39.5788
276.844
-135.152
-248.796
-252.003
-132.714
-39.3568
278.856
-37.9227
277.832
803.026
910.257
951.753
803.301
954.363
586.445
582.243
957.426
913.332
806.285
805.92
955.291
1207.58
1209.82
1205.12
1201.9
1195.29
1192.23
1197.34
1199.8
586.505
587.451
814.271
921.361
966.375
813.34
964.079
958.642
809.255
917.912
810.285
962.084
380.592
278.578
455.852
265.093
379.59
456.078
263.64
376.931
274.712
452.509
262.581
377.998
453.506
261.936
799.892
950.686
905.892
799.014
947.855
573.348
575.101
941.524
901.685
794.196
795.202
945.671
1173.15
1169.52
1175.33
1178.67
1187.64
1190.36
1185.11
1181.18
573.716
568.596
786.785
892.435
933.236
786.809
936.277
940.156
790.409
896.307
790.196
937.213
5.34153
5.17831
-96.1224
51.4396
-145.124
24.1829
-93.2646
47.1647
-147.981
-93.6512
-143.322
51.9024
24.3063
46.1736
-91.2699
-147.554
-134.92
-246.282
-249.985
-133.086
-42.145
269.732
-41.2808
270.066
-135.576
-247.562
-250.92
-132.804
-41.6072
271.765
-40.5263
270.921
6.95083
4.90622
-95.7188
48.0161
21.9889
-146.141
43.9185
-148.098
-96.2375
-93.475
-143.181
50.2615
23.5162
45.8528
-89.6394
-146.612
-135.847
-247.306
-251.743
-132.612
-41.32
275.176
-40.0504
274.11
-135.298
-248.784
-133.445
-252.381
-41.3074
272.628
-40.5384
273.198
366.171
263.562
439.399
252.065
366.463
441.875
252.895
369.189
268.052
443.909
255.159
368.049
443.31
253.269
-8.92679
-9.13645
-106.49
41.6837
18.5831
-145.79
39.1764
-149.132
-101.422
-105.086
-142.563
46.0362
19.0112
37.7122
-102.259
-148.377
-112.218
-228.261
-226.189
-115.172
-19.6714
285.155
-15.1477
281.72
-107.809
-213.397
-221.261
-101.044
-23.8568
276.394
-26.5947
278.617
-1.00294
-1.77581
-91.9652
54.9491
29.0433
-129.769
45.8034
-134.654
-92.4071
-97.0411
-138.523
44.5496
27.2238
47.0926
-94.72
-137.723
-124.343
-233.646
-240.268
-118.714
-35.5118
269.85
-36.2025
270.719
-126.188
-239.586
-241.554
-126.004
-33.7848
274.028
-30.3838
272.09
765.437
871.407
914.423
766.363
911.712
543.857
547.105
906.757
866.989
762.803
761.455
911.105
1138.44
1136.51
1138.27
1141.22
1146.2
1148.13
1145.78
1141.98
548.754
540.792
762.325
861.482
904.286
757.006
905.815
907.466
757.852
865.478
761.024
903.695
559.181
552.651
769.699
873.631
914.208
768.728
917.214
921.323
772.436
877.802
772.79
917.558
1164.47
1167.57
1162
1157.78
557.896
560.793
782.927
932.361
888.133
782.451
929.233
922.523
777.165
883.193
777.817
927.251
1151.15
1148.39
1152.25
1155.6
1.10983
-0.992568
-97.9861
44.9063
19.6582
-144.975
39.8647
-99.1937
-147.221
-97.5184
-144.246
44.6996
20.6764
42.1889
-93.7892
-146.643
-134.639
-244.919
-249.862
-130.781
-42.1186
269.219
-41.3267
268.556
-134.563
-247.312
-133.179
-250.517
-41.8293
268.107
-40.3652
268.053
-2.14856
-2.02303
-101.354
45.5761
-147.183
19.5202
-97.7393
41.7343
-150.252
-99.303
-145.325
46.6734
19.5641
40.3193
-97.0582
-149.899
-131.067
-242.629
-244.978
-130.376
-39.1219
268.94
-37.2203
268.188
-130.605
-240.644
-127.013
-244.719
-39.5867
268.018
-39.4776
267.939
20.8111
26.8617
-40.1065
130.806
100.506
-27.0409
107.425
-55.3075
-25.901
-65.3007
-96.2002
76.3429
83.5327
93.5187
-72.3238
-80.71
-78.6198
-179.016
-193.122
-65.9947
-4.60208
290.005
-9.27238
294.689
-88.7246
-207.73
-94.7314
-202.842
5.96177
308.438
13.3049
301.181
2.98083
0.839571
-99.1487
51.9802
38.0948
-127.473
55.072
-93.0206
-128.3
-95.7025
-111.515
71.6747
41.7832
56.5044
-89.255
-122.828
-23.3488
-160.611
-136.87
-48.2368
85.2479
364.253
105.858
345.16
6.84143
-53.9365
-95.8178
48.1685
46.8328
318.612
33.2322
330.755
747.846
842.512
864.13
748.55
883.967
560.087
548.543
903.406
860.381
755.452
762.325
890.149
1136.77
1138.83
1135.91
1127.87
1086.3
1061.89
1106.01
1121.53
548.132
550.475
758.034
867.822
908.294
764.288
906.794
902.294
765.451
861.251
758.064
908.411
440.123
346.072
488.153
376.362
479.276
477.592
359.211
665.226
664.384
667.2
696.538
719.22
667.239
679.151
689.082
682.63
697.821
597.001
615.906
617.425
429.6
154.676
462.191
552.218
543.994
575.513
513.795
216.506
505.895
617.815
626.467
583.87
491.831
406.783
496.281
638.818
569.57
588.24
550.797
441.608
508.769
731.002
842.581
811.381
724.631
814.254
552.211
544.425
733.898
783.145
711.042
708.555
773.041
747.723
765.226
772.516
706.554
708.576
767.593
980.065
1028.47
905.805
815.359
507.212
690.378
717.596
239.83
118.74
35.2071
162.64
9.46451
209.451
-11.8925
189.972
52.3595
77.2037
246.161
288.777
254.341
267.706
223.748
133.739
433.204
533.992
412.432
101.481
431.631
454.099
507.717
512.381
355.781
629.014
288.335
431.477
354.933
285.133
284.333
320.712
160.027
425.73
219.73
383.708
164.492
421.036
172.838
-2.62092
98.3714
65.56
304.786
320.503
462.237
446.403
718.959
930.597
880.911
751.94
719.779
883.002
713.733
932.745
749.083
880.708
721.509
913.985
877.673
722.266
875.46
721.169
877.146
914.527
875.615
720.762
680.049
829.755
678.017
832.566
683.444
838.375
685.213
835.716
671.892
826.242
674.182
822.844
667.656
815.341
818.881
665.09
626.403
771.947
624.529
773.307
628.963
778.508
631.185
775.731
616.753
770.159
620.497
767.413
608.471
748.145
758.98
607.789
719.387
876.367
878.085
718.704
719.924
878.663
719.996
879.071
689.904
841.12
688.284
843.302
652.841
798.222
802.335
649.844
657.636
811.082
660.462
806.968
641.944
793.742
644.994
789.506
637.623
781.639
634.808
785.139
1288.07
1123.64
1015.07
1149.23
1129.5
1154.67
1280.82
1296.64
1161.91
1139.06
1018.11
1135.8
1301.96
1158.81
1301
1008.11
1135.97
1154.52
1306.44
1160.71
1014.56
1141.5
1141.91
1159.8
1306.69
1267.55
1117.64
1008.67
1143.88
1114.75
1272.94
1139.57
1264.33
1135.94
1110.74
1006.09
1112.1
1263.51
1136.54
1272.55
1118.95
1007.76
1142.62
1117.6
1140.24
1275.35
1268.47
1135.66
1005.99
1112.2
1114.48
1138.01
1265.75
1272.85
1115.64
1008.11
1140.06
1117.86
1142.31
1270.49
1275.26
1144.98
1120.64
1010
1120.07
1277
1143.48
1280.19
1121.39
1144.98
1010.88
1278.58
1123.03
1146.49
1280.24
1145.47
1011.18
1122.22
1123.41
1146.63
1279
1210.75
1059.62
956.683
1082.44
1061.49
1084.58
1209.03
1212.54
1087.4
1064.11
959.082
1063.59
1213.9
1085.78
1220.61
1071.25
965.486
1094.98
1070.72
1093.29
1222.15
1218.23
1088.86
963.107
1066.5
1068.5
1091.38
1215.99
1225.02
1073.22
968.923
1096.11
1074.8
1223.73
1097.7
1226.25
1099.66
970.711
1076.58
1076.35
1098.58
1227.19
1204.95
1057.03
952.283
1080.96
1056.2
1206.91
1078.71
1201.99
1073.28
1051.07
949.206
1053.36
1199.33
1076.4
1192.47
1042.33
941.09
1065.02
1044.47
1067.65
1190.43
1194.86
1071.45
944.148
1047.99
1047.16
1069.22
1196.67
1170.76
1021.76
922.61
1044.37
1023.99
1047.32
1168.72
1173.66
1052.11
1028.29
926.36
1027.3
1175.85
1049.11
1185.7
1039.13
1063.32
935.881
1187.87
1038.1
1060.54
1182.25
1054.24
932.108
1032.11
1034.62
1057.97
1179.25
1132.74
995.333
891.543
1013.85
994.215
1015.56
1133.33
1134.39
1017.04
995.311
895.003
996.478
1135.38
1014.55
1143.24
1000.82
900.316
1023.75
1001.76
1021.78
1144.16
1140.41
1017.3
896.238
998.516
999.039
1021.23
1138.32
1163.74
1018.17
1042.72
917.278
1165.89
1017.46
1039.49
1159.97
1033.13
913.002
1011.48
1013.68
1037.11
1156.94
1148
1003.45
903.623
1024.12
1004.32
1146.47
1026.83
1150.93
1031.14
907.56
1007.58
1007.39
1027.77
1153.16
1134.33
992.664
894.613
1017.02
995.43
1133.7
1015.56
1131.37
1010.61
991.135
887.283
990.77
1127.4
1016.35
1088.82
952.618
858.107
965.316
958.635
985.72
1070.47
1107.98
1008.73
879.905
979.212
978.369
996.552
1118.76
1004.05
917.438
940.04
811.626
1036.97
903.636
904.055
933.937
781.511
773.4
804.228
849.556
847.727
867.652
)
;

boundaryField
{
    left
    {
        type            zeroGradient;
    }
    bottom
    {
        type            zeroGradient;
    }
    interface
    {
        type            zeroGradient;
    }
    procBoundary4to0
    {
        type            processor;
        value           nonuniform List<scalar> 
58
(
245.555
721.841
745.702
710.065
926.778
367.949
123.628
211.042
477.166
111.922
123.628
1147.56
1147.56
1147.56
1147.56
477.166
679.939
679.939
679.939
679.939
679.939
211.042
211.042
211.042
211.042
211.042
-13.1179
111.922
111.922
111.922
111.922
956.815
1003.82
377.531
460.038
250.122
-46.0238
573.918
-142.856
21.1341
-192.164
-316.63
-66.9248
-66.9248
307.882
-316.63
-178.111
830.902
1004.92
1307.37
710.065
873.134
873.134
873.134
745.702
1290.16
1128.72
1144.26
)
;
    }
    procBoundary4to1
    {
        type            processor;
        value           nonuniform List<scalar> 
78
(
743.738
750.159
752.034
751.378
750.728
893.022
741.296
893.761
752.555
902.29
752.034
751.378
749.451
749.38
918.944
749.451
1037.02
1044.8
740.493
1050.41
1053.42
1291.82
1307.21
1280.26
1272.13
1295.38
1290.82
748.561
918.944
918.944
1301.08
1303.04
1031.9
1036.46
1076.32
1344.96
1323.78
1091.59
1357.32
1363.52
1269.45
1269.33
1276.46
1282.27
1304.23
1307.21
1291.82
1323.78
1344.96
1355.41
1363.52
1357.32
1272.13
1280.26
1269.33
1269.45
1290.82
1295.38
1282.27
1276.46
1303.04
1301.08
1304.23
889.126
890.386
752.034
752.034
913.683
781.526
920.536
779.204
750.728
751.378
750.728
749.38
749.38
749.451
748.561
)
;
    }
    procBoundary4to5
    {
        type            processor;
        value           nonuniform List<scalar> 
526
(
723.606
688.05
619.851
726.821
736.625
737.542
734.504
733.5
694.363
703.791
705.62
699.485
697.397
632.377
648.18
649.073
641.957
639.65
737.992
713.447
664.393
746.888
747.526
734.715
745.215
744.365
723.215
724.405
709.364
720.398
719.064
674.44
677.142
655.584
668.958
666.304
720.428
680.916
586.45
729.739
740.114
739.418
902.513
902.513
907.644
907.644
900.426
900.426
730.286
731.254
895.107
895.107
699.941
711.061
709.444
864.84
864.84
874.289
874.289
861.308
861.308
690.323
692.627
849.376
639.682
654.525
652.767
804.31
810.899
802.754
513.401
557.032
632.26
626.559
773.693
1041.47
1024.93
1019.55
717.125
1010.38
1017.73
981.436
672.971
748.612
914.936
914.936
1286.42
1290.55
732.132
741.87
742.533
912.293
912.293
908.477
908.477
1027.59
1272.08
1274.06
1034.42
1282.13
1281.59
1036.91
1283.66
1280.89
1034.71
1281.53
1281.6
1270.6
1269.01
1263.66
1264.66
727.958
726.923
887.057
887.057
893.371
893.371
1252.98
1254.53
1262.89
1261.84
704.893
714.5
715.951
884.661
884.661
877.05
877.05
985.46
1224.77
1226.63
996.146
1238.67
1237.18
1007.62
1251.36
1249.92
999.237
1240.47
1241.96
1222.24
1220.4
1039.96
1039.96
1039.96
1039.96
1039.96
1039.96
1039.96
685.123
682.602
830.997
845.061
1019.04
1019.04
1019.04
1019.04
1019.04
1019.04
1035.06
1035.06
1035.06
1035.06
1035.06
1035.06
647.197
658.857
661.272
826.519
813.731
993.11
993.11
993.11
993.11
993.11
993.11
997.585
997.585
997.585
997.585
997.585
997.585
1013.84
1013.84
1013.84
1013.84
1013.84
1013.84
1000.25
1000.25
1000.25
1000.25
1000.25
1000.25
993.89
993.89
993.89
993.89
993.89
993.89
956.506
956.506
956.506
956.506
956.506
956.506
513.401
746.237
906.762
906.762
906.762
906.762
906.762
906.762
336.706
598.176
1046.98
1050.89
1022.72
1020.99
1012.92
1015.48
977.133
972.522
1298.51
1294.32
917.54
1301.73
919.129
1030.34
904.514
1277.38
1275.65
1032.86
906.295
1279
1280.9
1034.54
910.293
1278.43
1279.77
1034.19
909.15
1279.59
1280.08
898.445
1266.21
1267.74
896.696
1265.63
1265.05
889.273
1257.18
1255.96
891.407
1258.71
1260.47
989.086
1230.42
1228.9
868.126
992.755
1232.78
1234.88
871.286
1004.8
882.144
1246.26
1248.07
1001.95
1244.61
1243.49
879.602
1214.91
1217.36
857.485
1211.84
1209.89
853.539
1024.14
1024.14
1024.14
1024.14
1024.14
1024.14
1029.81
1029.81
1029.81