/*--------------------------------*- C++ -*----------------------------------*\
| =========                 |                                                 |
| \\      /  F ield         | OpenFOAM: The Open Source CFD Toolbox           |
|  \\    /   O peration     | Version:  2012                                  |
|   \\  /    A nd           | Website:  www.openfoam.com                      |
|    \\/     M anipulation  |                                                 |
\*---------------------------------------------------------------------------*/
FoamFile
{
    version     2.0;
    format      ascii;
    class       volScalarField;
    location    "0.106/solid";
    object      sigmaDiff;
}
// * * * * * * * * * * * * * * * * * * * * * * * * * * * * * * * * * * * * * //

dimensions      [1 -1 -2 0 0 0 0];


internalField   nonuniform List<scalar> 
3125
(
-1087.05
-1066.4
-1034.12
-1029.85
-997.323
-990.251
-919.539
-894.509
-1051.35
-1044.8
-1018.39
-1013.79
-963.659
-953.594
-1096.71
-1097.45
-1001.65
-253.951
-1113.13
-246.445
-1067.26
-982.925
-1057.48
-981.517
-253.469
-1053.99
-241.862
-1037.91
-1020.3
-240.681
-1024.94
-238.488
-1015.3
-1026.12
-240.252
-1011.35
-231.882
-1003.51
-982.886
-226.944
-988.819
-215.915
-976.242
-982.235
-225.801
-968.696
-179.014
-932.938
-922.406
-205.156
-927.566
-586.82
-920.27
-849.102
-230.393
-932.748
-1277.88
-764.902
-1256.8
-1227.25
-754.765
-755.203
-245.59
-1056.02
-1043.09
-244.196
-1050.79
-748.601
-756.734
-1207.07
-1224.09
-242.096
-1040.7
-1033.5
-243.889
-1028.22
-1178.93
-1187.66
-738.116
-742.734
-745.456
-743.255
-1200.78
-1189.77
-1176.1
-1169.09
-736.391
-733.147
-238.128
-1022.52
-1003.37
-236.206
-1007.68
-727.471
-731.987
-1159.76
-1167.1
-232.608
-1008.9
-998.734
-235.658
-993.968
-1137.49
-1147.03
-709.839
-717.928
-725.661
-720.157
-1157.44
-1149.61
-1134.25
-1122.28
-706.373
-213.743
-973.329
-951.362
-192.161
-960.439
-1104.44
-1118.28
-178.734
-943.383
-942.457
-187.803
-933.891
-1089.86
-1087.65
-1100.45
-1089.26
-1096.32
-1160.99
-662.56
-1175.68
-1235.2
-999.923
-1190.09
-1098.89
-256.716
-869.837
-716.6
-1091.02
-257.525
-843.621
-705.614
-1075.66
-858.558
-718.041
-1043.8
-675.525
-247.381
-813.204
-807.865
-671.052
-1047.37
-1046.42
-249.32
-819.885
-690.196
-1056.82
-809.481
-675.099
-1030.28
-669.243
-240.754
-798.113
-1031.62
-795.709
-668.102
-1027.7
-240.565
-792.595
-665.501
-1026.17
-792.997
-666.74
-1019.54
-661.44
-238.259
-786.715
-785.583
-661.322
-1019.3
-1021.44
-238.722
-789.963
-664.024
-1023.41
-786.952
-662.111
-999.562
-652.011
-229.39
-772.9
-1001.74
-769.798
-650.123
-996.173
-228.535
-767.025
-647.572
-994.745
-767.051
-648.446
-984.2
-640.552
-220.123
-757.36
-757.796
-641.702
-982.285
-988.487
-221.661
-764.72
-646.102
-991.181
-761.25
-643.872
-943.366
-619.667
-181.271
-736.184
-947.138
-734.566
-616.334
-936.396
-179.976
-731.515
-605.884
-930.687
-731.956
-610.674
-878.637
-555.053
-398.602
-780.016
-747.157
-568.495
-845.494
-907.266
-350.742
-738.578
-599.668
-920.325
-739.053
-589.217
-712.627
-479.237
-1298.57
-481.741
-689.629
-705.961
-1313.72
-486.67
-610.907
-778.015
-699.099
-715.418
-785.528
-718.472
-602.312
-605.661
-664.027
-660.799
-466.704
-1241.19
-463.719
-676.38
-661.598
-454.122
-1232.35
-455.482
-593.166
-592.993
-750.862
-695.024
-686.007
-690.509
-751.922
-686.473
-598.762
-592.295
-1050.14
-679.719
-244.259
-817.279
-1049.93
-680.827
-816.363
-1046.27
-244.378
-675.612
-807.859
-679.256
-811.184
-1042.23
-592.964
-592.795
-752.379
-684.201
-688.384
-691.016
-755.578
-689.986
-589.334
-590.637
-666.405
-663.897
-446.818
-1213.51
-449.005
-656.826
-661.142
-451.728
-1219.43
-451.289
-1031.9
-241.664
-668.818
-798.155
-1032.47
-667.805
-796.054
-1033.64
-242.252
-671.93
-801.478
-1036.91
-668.398
-797.194
-648.76
-644.949
-434.201
-1181.68
-435.987
-643.027
-643.799
-437.44
-1184.58
-437.125
-584.481
-583.46
-739.796
-675.079
-676.658
-679.416
-741.535
-677.638
-581.652
-582.273
-585.077
-585.033
-682.694
-743.691
-679.342
-587.952
-585.435
-679.691
-743.071
-678.998
-648.472
-646.7
-443.135
-1195.27
-442.305
-653.572
-646.989
-438.479
-1192
-440.024
-637.912
-636.947
-432.754
-1173
-432.241
-641.979
-637.261
-429.604
-1170.89
-431.251
-577.729
-577.942
-734.977
-674.069
-671.624
-670.628
-733.832
-670.937
-580.576
-578.803
-1015.9
-660.993
-236.703
-785.64
-1017.54
-659.463
-782.935
-1013.45
-236.3
-657.607
-781.077
-658.247
-780.779
-1012.49
-576.833
-575.389
-728.935
-665.521
-666.803
-669.978
-730.595
-667.807
-573.517
-574.176
-637.758
-633.552
-425.663
-1161.92
-427.574
-632.818
-632.837
-428.815
-1164.26
-428.371
-1005.35
-233.134
-653.027
-774.67
-1004.48
-653.461
-774.193
-1008
-233.752
-656.51
-779.193
-1009.95
-654.698
-776.251
-626.896
-621.923
-415.933
-1140.53
-418.323
-620.398
-621.205
-420.186
-1143.51
-419.199
-566.076
-563.517
-712.578
-649.287
-652.24
-657.529
-715.472
-653.995
-559.292
-561.446
-567.715
-568.716
-664.423
-723.815
-661.581
-572.197
-570.189
-658.844
-721.835
-660.374
-627.176
-627.15
-424.708
-1154.36
-423.956
-632.323
-627.657
-421.097
-1151.96
-423.168
-611.858
-613.573
-414.769
-1129.96
-413.342
-620.067
-614.36
-409.588
-1126.19
-412.283
-544.675
-549.441
-702.509
-647.276
-641.768
-633.32
-697.792
-639.031
-556.927
-552.601
-974.777
-638.722
-205.624
-754.765
-977.968
-636.16
-750.974
-969.594
-202.518
-631.895
-745.745
-633.334
-746.624
-967.228
-540.907
-532.478
-603.71
-615.621
-630.051
-620.408
-516.217
-527.243
-611.75
-605.307
-402.805
-1108.76
-405.435
-601.771
-604.456
-408.225
-1113.27
-406.414
-953.802
-177.894
-621.805
-735.222
-951.15
-623.827
-735.874
-959.244
-179.726
-629.996
-743.672
-962.645
-627.378
-740.196
-598.429
-597.379
-428.392
-1086.43
-415.005
-608.321
-601.621
-402.761
-1086.95
-406.097
-440.544
-395.576
-414.374
-467.164
-529.859
-486.681
-306.298
-373.598
-453.966
-481.431
-597.881
-578.639
-509.67
-491.245
-542.007
-569.606
-594.409
-596.448
-401.805
-1095.94
-400.433
-602.55
-596.445
-400.501
-1091.95
-401.012
-886.366
-715.758
-452.823
-1109.68
-499.398
-625.64
-675.052
-743.092
-1127.21
-578.362
-264.802
-228.66
-399.668
-386.929
-372.22
-373.235
-273.194
-248.072
-892.243
-598.039
-798.231
-915.114
-839.225
-680.801
-1000.9
-1017.17
-677.563
-1014.27
-1593.46
-1071.33
-1301.85
-1029.18
-815.368
-583.749
-1097.84
-274.341
-302.068
-431.952
-369.179
-403.147
-299.493
-982.95
-1168.41
-1587.25
-1135.07
-1139.43
-950.025
-1376.52
-1103.64
-726.4
-257.396
-354.978
-398.199
-702.179
-253.19
-350.217
-393.09
-695.774
-342.923
-392.651
-673.143
-382.478
-245.231
-331.991
-329.082
-381.11
-677.325
-674.022
-250.699
-333.308
-389.32
-680.665
-334.971
-387.204
-665.704
-376.079
-240.19
-325.84
-666.233
-325.053
-374.881
-1098.72
-873.581
-1097.05
-875.151
-1101.01
-877.815
-1101.95
-876.879
-660.924
-239.393
-324.234
-374.279
-661.238
-321.258
-373.214
-656.295
-371.331
-237.141
-321.747
-318.868
-370.17
-657.272
-1092.83
-871.63
-1094.51
-870.037
-1090.96
-868.682
-868.973
-1090.22
-658.522
-238.381
-322.083
-373.427
-659.842
-321.182
-372.036
-645.52
-362.541
-229.767
-315.194
-646.599
-314.519
-360.953
-640.911
-226.421
-313.585
-357.006
-641.426
-310.596
-356.49
-633.361
-344.581
-216.454
-309.151
-306.49
-345.032
-633.666
-638.974
-223.177
-311.794
-355.211
-640.212
-311.031
-353.158
-614.676
-270.212
-180.567
-300.885
-617.123
-298.386
-266.641
-611.913
-188.517
-306.238
-263.463
-606.961
-303.596
-267.122
-628.369
-519.796
-515.363
-657.062
-583.035
-463.711
-691.518
-606.576
-266.825
-325.345
-269.579
-613.849
-337.344
-263.84
-325.094
-308.486
-313.058
-453.148
-445.993
-445.514
-296.989
-293.638
-300.158
-294.121
-437.207
-435.322
-442.008
-439.694
-681.705
-382.245
-243.892
-334.473
-680.167
-380.827
-333.829
-672.7
-243.023
-379.832
-330.974
-378.815
-327.284
-671.895
-437.056
-435.822
-433.914
-432.924
-299.471
-299.084
-293.747
-293.558
-664.751
-240.627
-376.53
-326.31
-666.292
-375.219
-323.471
-1104.6
-880.21
-1107.16
-877.612
-666.18
-241.96
-378.615
-326.277
-668.399
-377.224
-325.799
-1102.82
-877.746
-1102.89
-876.989
-290.475
-289.16
-287.641
-286.396
-430.233
-428.733
-427.945
-426.751
-430.604
-428.991
-432.764
-430.809
-290.157
-287.946
-291.513
-288.82
-285.464
-283.578
-286.788
-284.936
-424.815
-423.422
-427.176
-425.354
-655.68
-370.654
-236.356
-320.526
-656.595
-369.351
-319.768
-1084.74
-863.76
-864.843
-1083.35
-1087.04
-867.745
-1088.44
-866.421
-651.953
-235.004
-368.231
-319.519
-367.226
-316.532
-652.561
-424.197
-422.532
-421.337
-420.195
-285.261
-283.77
-283.176
-281.571
-646.917
-231.582
-363.731
-316.849
-647.615
-362.856
-313.831
-1079.07
-862.09
-1080.87
-860.437
-650.362
-233.708
-367.257
-317.764
-651.488
-365.817
-317.008
-280.258
-278.861
-277.715
-275.883
-415.433
-413.371
-409.145
-408.69
-416.473
-415.486
-420.49
-418.59
-280.705
-278.921
-282.63
-281.089
-273.759
-271.806
-277.075
-275.777
-395.835
-396.527
-407.632
-404.983
-631.063
-341.619
-209.921
-307.706
-632.491
-338.33
-306.521
-624.424
-195.057
-318.998
-303.374
-321.877
-301.53
-624.286
-393.249
-389.215
-368.567
-371.987
-273.103
-271.936
-268.478
-266.51
-616.256
-177.439
-267.819
-298.232
-615.059
-271.849
-297.4
-622.129
-182.147
-313.745
-303.222
-623.881
-307.342
-301.216
-269.009
-268.639
-347.01
-321.205
-297.014
-279.995
-257.301
-257.311
-306.974
-317.785
-363.774
-356.4
-264.421
-262.687
-268.405
-267.426
-773.989
-688.105
-382.357
-418.969
-469.207
-404.924
-256.836
-258.581
-836.45
-583.008
-734.337
-739.167
-744.787
-647.523
-832.927
-907.285
-916.758
-907.715
-993.002
-889.58
-666.197
-856.468
-703.877
-977.599
-1037.86
-1047.16
-1342.17
-952.94
-1075.31
-1185.04
-518.936
-579.243
-869.74
-966.777
-967.748
-975.79
-926.592
-906.216
-844.864
-935.828
-894.024
-982.226
-1018.15
-897.47
-729.755
-255.24
-361.552
-399.979
-730.99
-356.615
-396.496
-714.313
-253.959
-352.141
-397.887
-720.355
-354.227
-395.727
-670.255
-245.929
-328.007
-383.164
-667.38
-327.466
-381.254
-666.193
-249.033
-327.863
-383.918
-666.195
-323.693
-384.367
-663.987
-240.031
-324.491
-375.503
-663.516
-322.159
-374.228
-661.242
-239.312
-321.919
-374.686
-661.799
-321.72
-373.439
-655.772
-237.056
-318.805
-371.541
-655.667
-318.428
-370.171
-656.638
-238.049
-320.166
-372.245
-656.371
-317.96
-371.211
-643.58
-229.291
-313.544
-360.547
-642.994
-311.303
-359.801
-640.975
-226.687
-311.096
-358.952
-641.405
-310.94
-357.241
-633.535
-217.433
-307.29
-349.092
-634.246
-306.892
-346.647
-636.958
-222.265
-309.839
-351.565
-636.113
-307.874
-351.451
-616.912
-179.483
-298.97
-265.178
-612.512
-300.253
-268.916
-607.54
-184.731
-301.302
-268.203
-613.295
-297.102
-262.255
-581.597
-461.687
-468.071
-357.622
-606.787
-519.739
-401.854
-615.251
-302.22
-410.853
-302.097
-600.438
-373.586
-281.298
-323.663
-322.264
-314.023
-663.929
-321.462
-230.783
-312.136
-232.353
-321.636
-667.586
-324.646
-314.296
-231.197
-531.125
-209.626
-202.41
-535.484
-818.289
-1217.48
-815.598
-1225.19
-529.924
-207.89
-205.108
-523.315
-826.149
-1240.59
-828.628
-1232.81
-317.378
-312.029
-304.294
-317.523
-650.421
-224.434
-316.813
-224.278
-299.897
-303.295
-228.985
-321.398
-657.281
-322.324
-307.003
-224.501
-540.078
-210.502
-203.874
-537.706
-540.971
-836.05
-1247.48
-834.257
-1254.07
-606.441
-532.303
-545.023
-453.494
-452.186
-544.64
-605.696
-533.469
-531.745
-547.426
-647.745
-644.77
-644.807
-648.209
-643.893
-644.72
-643.569
-450.853
-449.131
-518.662
-603.616
-542.949
-521.14
-545.141
-548.178
-526.942
-606.941
-524.902
-546.636
-292.798
-293.058
-286.332
-302.264
-618.596
-212.021
-302.601
-208.146
-287.348
-285.961
-210.867
-301.346
-617.033
-302.095
-287.389
-209.282
-512.281
-200.531
-194.674
-509.158
-804.062
-1209.85
-807.255
-1201.93
-513.626
-204.061
-519.241
-193.646
-798.206
-1189.86
-795.853
-1195.73
-290.665
-291.547
-288.146
-310.312
-625.317
-217.764
-309.505
-292.456
-212.36
-286.255
-213.015
-306.261
-619.265
-305.837
-283.771
-210.281
-504.531
-197.932
-190.108
-506.17
-787.392
-1172.1
-785.06
-1175.69
-503.581
-196.889
-190.073
-502.227
-789.139
-1184.96
-792.941
-1179.39
-510.116
-591.801
-534.874
-509.317
-535.271
-436.4
-435.712
-534.462
-591.553
-509.766
-508.993
-535.182
-643.626
-645.64
-642.743
-642.953
-637.605
-638.404
-640.623
-639.562
-437.622
-436.714
-514.165
-595.912
-540.898
-511.935
-539.016
-536.369
-508.609
-593.98
-509.845
-536.821
-680.645
-243.51
-381.816
-334.218
-680.251
-380.176
-331.527
-675.042
-242.941
-380.666
-329.562
-676.627
-379.515
-329.909
-510.398
-535.121
-592.587
-509.873
-535.262
-436.059
-435.253
-533.225
-591.617
-509.718
-509.261
-535.241
-632.416
-631.268
-632.46
-634.035
-636.117
-636.36
-635.086
-633.988
-435.073
-433.682
-505.558
-589.011
-531.413
-505.78
-532.932
-533.677
-507.699
-590.458
-506.929
-532.874
-296.864
-296.718
-289.531
-301.732
-211.594
-622.775
-290.255
-301.83
-209.911
-287.285
-210.548
-300.473
-621.468
-302.242
-287.572
-208.643
-495.969
-195.529
-188.355
-497.635
-773.861
-1149.99
-772.638
-1152.65
-495.441
-193.268
-188.239
-493.163
-775.988
-1158.6
-777.843
-1155.15
-294.166
-292.469
-284.544
-298.197
-614.257
-208.092
-298.354
-205.495
-284.001
-283.286
-208.274
-299.979
-615.814
-300.405
-284.838
-205.948
-500.58
-196.2
-190.769
-498.358
-782.548
-1169.47
-784.643
-1165.95
-500.859
-196.32
-501.31
-190.294
-781.081
-1161.03
-779.87
-1163.67
-663.695
-240.576
-376.518
-323.022
-663.066
-375.085
-322.559
-663.42
-241.544
-377.053
-323.814
-663.254
-376.146
-321.394
-287.112
-286.853
-279.415
-293.027
-604.557
-203.17
-292.961
-200.911
-280.434
-277.246
-201.989
-291.714
-602.784
-293.032
-277.525
-199.753
-482.057
-188.408
-181.747
-482.756
-754.988
-1122.55
-754.231
-1123.83
-481.71
-187.142
-181.392
-480.491
-755.695
-1126.92
-757.14
-1124.89
-285.959
-285.071
-277.022
-290.687
-599.939
-201.587
-290.811
-198.506
-277.26
-275.436
-200.596
-291.322
-600.055
-292.049
-276.523
-198.827
-484.618
-188.644
-182.797
-483.068
-759.596
-1132.38
-760.94
-1130.42
-484.635
-188.784
-182.394
-485.285
-758.656
-1128.16
-758.034
-1129.39
-501.534
-583.67
-527.318
-500.9
-527.365
-428.962
-428.243
-525.581
-582.996
-500.605
-500.364
-526.961
-622.548
-621.906
-695.22
-811.308
-675.038
-670.122
-811.449
-671.161
-694.534
-695.84
-672.137
-813.589
-675.686
-812.27
-696.357
-671.509
-622.933
-623.762
-698.738
-817.015
-678.545
-674.776
-816.253
-674.486
-699.137
-625.329
-625.839
-698.114
-672.782
-677.889
-814.845
-815.273
-673.913
-697.164
-624.843
-624.145
-428.302
-427.067
-498.532
-580.961
-524.177
-498.363
-525.485
-525.448
-499.592
-581.804
-498.95
-525.217
-430.012
-429.095
-502.003
-584.164
-527.386
-501.606
-528.077
-527.666
-502.265
-584.158
-501.531
-528.048
-629.875
-630.841
-701.697
-819.596
-678.148
-680.55
-702.833
-817.162
-677.215
-700.932
-675.598
-679.597
-815.795
-815.721
-676.412
-700.155
-629.274
-628.965
-430.634
-429.814
-504.325
-530.648
-586.449
-503.327
-530.09
-528.268
-502.439
-585.452
-502.449
-529.343
-699.67
-817.298
-678.83
-674.992
-815.902
-699.515
-675.388
-626.691
-626.687
-699.751
-675.183
-678.567
-815.41
-815.654
-675.409
-699.704
-627.726
-627.719
-286.758
-286.595
-279.137
-293.2
-604.314
-203.999
-293.353
-279.961
-200.568
-277.583
-202.378
-292.972
-603.432
-293.824
-278.478
-200.929
-489.969
-190.903
-184.947
-488.295
-768.588
-1147.57
-770.445
-1144.41
-490.191
-192.066
-492.096
-184.433
-766.703
-1140.45
-765.751
-1142.43
-286.539
-286.181
-280.294
-296.206
-205.644
-607.283
-282.237
-295.761
-202.53
-277.967
-203.608
-294.103
-604.551
-295.099
-277.837
-201.066
-487.014
-190.223
-183.376
-487.564
-762.359
-1133.53
-761.425
-1134.97
-486.527
-189.005
-485.588
-182.922
-762.956
-1138.79
-764.824
-1136.33
-282.597
-282.267
-274.12
-287.808
-594.559
-199.355
-287.972
-195.985
-274.822
-272.504
-197.747
-287.904
-594.005
-288.684
-273.335
-196.304
-479.22
-186.682
-180.666
-477.945
-752.06
-1121.35
-753.398
-1119.48
-479.179
-186.877
-480.135
-180.211
-751.17
-1117.64
-750.641
-1118.66
-282.934
-282.453
-275.373
-289.963
-597.239
-200.2
-289.646
-276.704
-197.656
-273.164
-198.864
-288.285
-595.212
-289.483
-273.412
-196.371
-477.33
-186.582
-180.085
-477.712
-748.295
-1112.89
-747.541
-1113.97
-476.957
-185.605
-179.651
-476.015
-748.666
-1116.71
-750.118
-1114.88
-495.042
-576.948
-520.542
-494.793
-521.493
-424.699
-423.604
-521.288
-577.25
-495.701
-494.975
-521.418
-620.561
-621.373
-692.943
-810.109
-672.623
-669.427
-808.407
-693.708
-668.784
-692.284
-667.228
-807.141
-671.794
-807.335
-691.474
-668.185
-620.129
-619.578
-690.318
-806.334
-670.149
-665.646
-805.681
-666.359
-689.929
-617.798
-617.442
-690.648
-666.737
-670.287
-806.415
-805.888
-666.534
-690.851
-618.403
-618.841
-425.366
-424.65
-497.706
-579.432
-523.784
-496.904
-523.443
-521.635
-496.344
-578.516
-496.19
-522.999
-653.866
-236.114
-369.708
-318.988
-653.453
-368.589
-316.699
-651.856
-234.974
-368.78
-316.82
-652.128
-367.44
-316.608
-494.321
-520.317
-575.896
-493.592
-520.114
-422.53
-421.922
-518.22
-575.056
-493.072
-492.919
-519.663
-612.923
-612.176
-685.158
-800.209
-665.36
-660.294
-800.14
-661.382
-684.476
-613.459
-614.3
-685.775
-662.286
-801.833
-665.924
-800.777
-686.242
-661.711
-688.737
-805.633
-665.202
-668.861
-689.306
-804.432
-664.705
-616.059
-616.786
-615.647
-614.87
-688.045
-662.935
-668.077
-802.964
-803.384
-664.104
-687.093
-421.782
-420.495
-490.962
-572.792
-516.44
-490.822
-517.841
-517.91
-492.079
-573.586
-491.364
-517.66
-281.742
-281.377
-273.712
-287.617
-198.324
-593.768
-274.816
-287.457
-196.047
-271.549
-197.237
-286.139
-591.879
-287.428
-271.837
-194.798
-473.017
-185.619
-179.188
-473.588
-741.918
-1103.66
-741.101
-1104.79
-472.682
-184.641
-178.761
-471.594
-742.322
-1107.5
-743.796
-1105.64
-280.88
-280.271
-271.868
-285.393
-590.048
-197.333
-285.562
-193.978
-272.34
-270.223
-195.892
-285.878
-589.864
-286.612
-271.178
-194.397
-475.19
-185.621
-179.661
-473.729
-745.783
-1112.01
-747.106
-1110.3
-475.107
-185.578
-475.891
-179.245
-745.026
-1108.46
-744.406
-1109.49
-646.72
-231.647
-364.659
-314.065
-646.899
-363.184
-313.875
-648.502
-233.349
-365.809
-316.094
-648.091
-364.858
-313.832
-276.663
-276.254
-268.286
-282.28
-583.308
-193.688
-281.927
-191.6
-269.413
-266.032
-192.754
-280.241
-581.219
-281.759
-266.306
-190.054
-462.841
-184.661
-178.494
-463.771
-726.646
-1081.53
-725.341
-1083.24
-462.426
-184.082
-178.074
-460.972
-727.245
-1086.79
-729.135
-1084.47
-275.491
-275.095
-265.737
-279.032
-578.674
-192.59
-279.58
-188.926
-266.389
-264.548
-191.001
-280.163
-578.685
-280.495
-265.387
-189.713
-465.506
-184.423
-178.4
-463.818
-731.613
-1092.44
-733.319
-1090.31
-465.475
-184.199
-178.009
-466.615
-730.754
-1087.94
-729.803
-1089.3
-484.235
-564.943
-510.416
-483.206
-509.526
-412.529
-412.446
-506.789
-563.467
-481.836
-482.049
-508.903
-597.175
-595.521
-598.196
-599.802
-603.076
-604.433
-602.355
-600.856
-411.269
-409.406
-477.442
-559.004
-502.679
-477.847
-504.825
-506.109
-480.137
-560.503
-478.989
-505.051
-417.336
-415.894
-485.521
-567.073
-510.862
-485.518
-512.463
-512.86
-487.034
-568.001
-486.179
-512.412
-610.429
-611.487
-682.705
-799.055
-659.588
-663.025
-683.545
-797.405
-658.79
-681.821
-656.684
-661.985
-795.553
-796.149
-658.057
-680.706
-609.909
-608.904
-418.252
-417.843
-489.938
-516.094
-571.128
-489.083
-515.508
-513.307
-488.208
-569.967
-488.183
-515.029
-606.34
-605.375
-607.072
-608.094
-278.243
-277.811
-269.038
-282.469
-584.738
-195.116
-282.745
-269.623
-191.583
-267.533
-193.492
-283.055
-584.507
-283.67
-268.41
-192.156
-470.563
-184.752
-178.726
-469.067
-739.114
-1102.72
-740.581
-1100.89
-470.518
-184.673
-471.484
-178.329
-738.327
-1098.89
-737.589
-1100.03
-279.026
-278.567
-270.857
-285.057
-196
-588.356
-272.025
-284.739
-193.743
-268.651
-194.94
-283.243
-586.351
-284.609
-268.947
-192.333
-468.312
-184.866
-178.569
-468.968
-734.927
-1093.54
-733.878
-1094.91
-467.93
-184.049
-466.71
-178.13
-735.367
-1097.92
-737.014
-1095.91
-271.853
-271.542
-261.372
-274.513
-571.107
-189.265
-275.494
-185.531
-262.218
-260.759
-187.88
-276.367
-571.248
-276.205
-261.479
-186.563
-459.392
-185.021
-178.8
-457.45
-722.643
-1080.15
-724.629
-1077.71
-459.486
-184.356
-460.857
-178.371
-721.572
-1074.61
-720.306
-1076.4
-273.375
-273.001
-264.873
-278.905
-576.738
-190.88
-278.33
-265.999
-188.89
-262.502
-189.919
-276.275
-574.529
-278.063
-262.753
-187.13
-456.113
-185.556
-179.753
-457.334
-716.318
-1066.68
-714.714
-1068.78
-455.55
-185.889
-179.48
-453.865
-717.208
-1073.06
-719.388
-1070.38
-463.273
-545.237
-488.325
-464.644
-491.652
-400.835
-398.033
-494.753
-547.809
-468.68
-466.772
-492.603
-592.045
-594.15
-590.792
-588.371
-582.243
-579.366
-584.001
-586.671
-402.859
-403.564
-475.517
-555.375
-501.819
-473.997
-500.163
-496.096
-471.338
-553.121
-472.184
-499.096
-629.184
-207.823
-333.923
-305.029
-627.822
-335.376
-303.871
-624.412
-197.873
-329.687
-302.726
-625.748
-325.386
-301.514
-460.066
-486.49
-538.266
-457.298
-483.336
-384.022
-386.566
-476.189
-534.432
-451.647
-454.039
-481.07
-555.885
-550.423
-559.094
-564.084
-573.534
-577.077
-571.387
-567.134
-380.37
-375.312
-435.251
-518.814
-460.014
-438.919
-466
-473.273
-447.029
-523.821
-443.259
-468.837
-269.23
-269.067
-260.722
-274.588
-187.498
-568.915
-261.773
-273.694
-185.464
-258.214
-186.173
-271.18
-566.815
-273.393
-258.476
-183.679
-448.461
-190.039
-185.23
-449.658
-704.354
-1050.17
-703.084
-1051.99
-447.673
-193.222
-185.561
-446.398
-705.525
-1056.55
-707.629
-1053.91
-267.242
-266.74
-255.857
-268.884
-562.452
-184.538
-270.404
-181.969
-257.114
-255.997
-184.608
-271.618
-562.388
-270.705
-256.596
-182.364
-451.8
-188.693
-181.823
-449.827
-711.526
-1064.78
-713.71
-1062.06
-452.12
-186.546
-453.603
-181.165
-710.176
-1058.48
-708.862
-1060.46
-615.02
-178.762
-288.277
-298.786
-617.633
-278.793
-296.105
-621.344
-179.553
-296.18
-299.811
-619.039
-301.65
-300.077
-277.292
-274.33
-273.119
-269.434
-559.291
-231.615
-268.501
-233.55
-266.839
-279.642
-262.288
-273.343
-563.16
-272.626
-296.125
-245.968
-469.253
-266.181
-277.65
-459.264
-707.875
-1052.3
-719.113
-1043.61
-473.54
-318.589
-292.135
-491
-707.473
-1038.65
-701.166
-1043.5
-291.326
-300.741
-340.883
-324.593
-572.618
-339.951
-307.583
-311.041
-372.699
-324.077
-281.007
-286.065
-562.741
-289.484
-308.328
-289.812
-449.861
-253.097
-236.338
-455.932
-698.039
-1037.01
-696.147
-1037.86
-449.894
-226.207
-229.602
-445.901
-697.285
-1039.67
-701.696
-1036.62
-360.754
-427.411
-386.94
-346.802
-372.124
-260.652
-270.744
-338.398
-411.271
-314.903
-331.768
-358.177
-385.429
-363.686
-402.443
-422.489
-465.732
-480.114
-453.705
-436.665
-259.581
-259.046
-221.554
-327.873
-246.302
-248.29
-275.425
-320.539
-294.299
-353.725
-272.503
-296.546
-336.657
-325.672
-373.327
-462.662
-397.64
-383.373
-410.167
-428.095
-401.919
-473.255
-393.236
-418.233
-539.162
-545.966
-534.143
-525.878
-343.937
-351.038
-429.431
-455.833
-504.173
-423.673
-449.488
-434.996
-410.916
-496.717
-417.142
-444.092
-502.077
-490.49
-509.742
-519.58
-263.333
-262.195
-254.725
-265.454
-556.987
-218.389
-267.071
-260.558
-207.171
-254.531
-202.507
-267.609
-555.083
-265.592
-253.698
-198.958
-444.728
-202.501
-193.392
-443.915
-700.364
-1048.16
-701.959
-1045.97
-445.418
-195.086
-446.094
-191.648
-698.874
-1043.18
-698.552
-1044.16
-264.909
-265.134
-256.574
-269.604
-188.563
-560.767
-257.018
-268.251
-183.369
-254.255
-193.387
-265.704
-559.855
-268.429
-255.426
-187.92
-444.499
-206.44
-205.168
-443.978
-695.634
-1038.74
-696.748
-1038.37
-443.717
-219.951
-445.446
-208.213
-696.704
-1041.22
-697.212
-1040.07
-562.403
-627.426
-721.696
-732.665
-806.664
-798.362
-652.592
-695.703
-816.074
-650.31
-551.36
-527.907
-735.196
-580.367
-587.185
-614.409
-543.761
-447.147
-399.684
-582.812
-739.642
-1053.44
-722.35
-1066.15
-527.498
-341.211
-501.528
-370.179
-744.895
-1089.36
-773.633
-1069.24
-508.809
-457.9
-438.964
-357.912
-600.468
-372.858
-383.505
-405.391
-401.412
-477.33
-493.35
-465.673
-630.831
-422.359
-531.631
-441.009
-665.734
-493.985
-562.109
-612.049
-849.351
-1193.67
-916.202
-1143.11
-722.185
-737.458
-636.33
-802.178
-827.522
-1096.7
-784.824
-1127.36
-327.224
-227.408
-186.137
-275.269
-150.141
-300.569
-362.844
-130.139
-240.166
-202.461
-234.737
-121.696
-321.364
-343.908
-301.822
-279.981
-244.378
-242
-249.655
-263.817
-259.441
-256.137
-197.871
-262.111
-220.543
-198.847
-188.273
-136.472
-199.648
-241.478
-199.421
-163.758
-868.127
-787.924
-731.678
-947.347
-886.012
-693.522
-886.165
-988.134
-980.774
-966.146
-730.417
-869.572
-953.758
-932.461
-895.445
-724.528
-897.583
-1030.03
-999.866
-1059.74
-1193.63
-1525.22
-1142.63
-1036.62
-1160.17
-1104.56
-1023.29
-1456.67
-1111
-979.5
-1037.02
-975.796
-751.005
-1007.82
-876.283
-876.728
-650.183
-873.583
-1028.47
-1085.24
-973.74
-369.954
-219.116
-321.914
-419.05
-247.168
-611.359
-609.222
-219.975
-313.569
-443.14
-443.846
-254.679
-517.553
-273.17
-177.676
-287.143
-509.507
-397.441
-251.069
-243.728
-284.637
-261.333
-674.708
-186.745
-404.074
-1092.57
-1066.58
-1037.8
-824.594
-909.251
-1087.78
-933.661
-941.79
-1035.31
-1169.35
-1191.63
-1113.85
-1169.99
-1014.84
-1196.94
-1146.54
-1033.22
-1049.3
-1184.08
-1510.21
-1119.62
-1130.49
-1168.18
-1080.39
-1410.53
-1117.64
-1187.54
-1270.76
-1158.54
-1241.72
-1066.77
-1081.95
-1064.77
-1027.59
-1048.3
-1226.67
-957.663
-1294.76
-985.708
-838.659
-880.174
-952.515
-1132.84
-1380.85
-998.597
-1343.66
-1152.44
-1021.4
-910.486
-1110.71
-1140.57
-926.524
-1159.3
-1029.55
-1116.35
-929.461
-1115.44
-973.715
-892.198
-1123.75
-880.864
-1112.17
-884.943
-975.044
-880.059
-1115.17
-1066.9
-850.663
-1064.86
-852.146
-1070.19
-856.16
-1072.29
-854.316
-1058.5
-848.386
-1061.22
-846.073
-1054.31
-841.52
-843.359
-1051.77
-999.395
-793.43
-990.45
-801.828
-1008.33
-814.304
-1013.25
-809.326
-950.578
-780.512
-973.095
-760.777
-910.863
-693.464
-727.905
-879.528
-1115.05
-884.331
-888.194
-1111.77
-1118.11
-889.378
-1117.15
-890.533
-1076.5
-857.84
-1075.06
-858.792
-1039.14
-830.771
-832.937
-1036.26
-1044.14
-838.857
-1047.32
-836.181
-1027.84
-827.979
-1031.33
-825.032
-1022.33
-818.052
-1018.89
-821.109
-721.785
-837.99
-705.164
-693.295
-845.946
-698.151
-718.164
-725.84
-707.025
-863.848
-710.335
-855.662
-729.055
-702.204
-731.145
-717.716
-872.463
-710.717
-732.05
-709.114
-718.344
-871.05
-871.487
-711.319
-731.035
-711.92
-829.97
-689.257
-689.646
-823.872
-714.651
-686.825
-710.211
-684.356
-820.929
-687.203
-819.888
-709.563
-684.821
-710.635
-830.78
-688.24
-686.413
-826.358
-685.93
-711.165
-710.098
-684.007
-686.819
-821.223
-824.66
-685.349
-709.306
-705.381
-821.85
-685.129
-679.35
-823.314
-681.049
-704.084
-706.658
-683.567
-828.321
-686.652
-825.623
-707.902
-682.02
-711.205
-831.615
-686.733
-690.974
-711.275
-832.529
-686.841
-710.467
-684.596
-690.302
-830.754
-831.421
-686.201
-709.142
-668.785
-781.694
-649.673
-643.537
-782.293
-645.474
-667.419
-670.04
-647.587
-785.171
-650.882
-783.52
-671.105
-646.293
-675.281
-791.256
-656.026
-652.596
-789.491
-651.513
-676.321
-674.094
-648.729
-654.692
-786.937
-787.955
-650.564
-672.607
-678.305
-792.551
-658.751
-653.438
-792.517
-677.475
-654.716
-679.062
-655.902
-659.413
-794.314
-793.218
-655.166
-679.669
-663.979
-779.758
-645.225
-642.178
-777.316
-665.638
-640.382
-662.119
-636.148
-773.257
-643.168
-775.11
-659.838
-638.86
-653.233
-764.09
-634.667
-627.085
-765.8
-630.212
-650.82
-655.45
-634.211
-636.844
-770.595
-767.942
-631.898
-657.43
-625.035
-732.659
-607.207
-596.512
-736.709
-602.12
-620.274
-629.464
-610.429
-745.661
-611.625
-740.865
-633.48
-605.876
-644.905
-761.034
-624.635
-626.84
-647.837
-757.316
-621.393
-641.628
-614.063
-623.304
-750.18
-753.741
-618.57
-637.707
-444.188
-568.974
-428.29
-390.061
-567.258
-415.715
-421.754
-465.205
-457.989
-602.261
-448.509
-590.864
-485.156
-436.475
-534.203
-661.161
-516.962
-522.106
-649.179
-508.392
-547.089
-520.01
-475.963
-501.635
-621.91
-634.835
-494.47
-503.232
-608.914
-727.356
-591.618
-591.966
-614.755
-720.853
-585.195
-602.516
-570.882
-585.085
-707.181
-714.388
-579.242
-594.854
-568.903
-671.942
-551.137
-533.212
-680.837
-558.355
-544.983
-578.092
-563.247
-560.963
-699.037
-689.732
-553.715
-586.837
-374.07
-548.976
-397.265
-366.881
-554.129
-397.212
-341.176
-349.128
-304.466
-538.306
-387.976
-537.473
-327.128
-322.335
-280.833
-498.02
-363.834
-297.151
-496.408
-294.521
-279.068
-291.63
-298.45
-373.745
-517.766
-516.617
-291.364
-304.516
-289.204
-477.604
-307.331
-388.386
-277.581
-487.241
-317.707
-301.368
-301.977
-389.613
-477.247
-472.557
-319.784
-300.132
)
;

boundaryField
{
    left
    {
        type            calculated;
        value           nonuniform List<scalar> 0();
    }
    bottom
    {
        type            calculated;
        value           nonuniform List<scalar> 
243
(
-1139.74
-1113.44
-1069.78
-1064.82
-1027.5
-1019.57
-947.476
-931.044
-1091.26
-1083.14
-1051.42
-1046.18
-989.823
-978.774
-1372.11
-1395.73
-1157.15
-1101.82
-1316.63
-1332.89
-1273.39
-1279.31
-1074.44
-1060.51
-1262.34
-1267.22
-1226.94
-1234.32
-1034.49
-1010.6
-1209.38
-1218.76
-1147.01
-1156.46
-958.16
-901.494
-1137.21
-1138.65
-1292.27
-1302.05
-1312.29
-1098.2
-1240.18
-1223.93
-1277.01
-1246.16
-1204.35
-1196.33
-1218.68
-1207.31
-1078.12
-1283.52
-1290.02
-1252.32
-1257.73
-1056.25
-1183.72
-1176.78
-1193.47
-1186.27
-1163.03
-1153.68
-1173.97
-1166.31
-1040.62
-1240.7
-1246.6
-1187.8
-1199.19
-1000.63
-1132.29
-1117.8
-1149.49
-1137.59
-1092.36
-1087.62
-1111.66
-1097.65
-968.024
-1165.41
-1176.7
-1224.94
-1282.68
-1088.36
-1170.39
-1543.35
-1324.23
-1309.99
-1235.12
-1229.54
-1263.11
-1253.42
-1201.75
-1198.88
-1213.93
-1210.09
-1181.49
-1178.85
-1190.88
-1188.22
-1160.23
-1156.52
-1171.56
-1168.56
-1128
-1122.02
-1145.99
-1141.21
-1090.46
-1086.14
-1107.38
-1101.1
-2118.73
-1758.59
-1478.89
-2186.84
-1100.54
-1121.85
-1117.26
-1314.56
-1478.64
-1061.65
-945.315
-1314.9