/*--------------------------------*- C++ -*----------------------------------*\
| =========                 |                                                 |
| \\      /  F ield         | OpenFOAM: The Open Source CFD Toolbox           |
|  \\    /   O peration     | Version:  2012                                  |
|   \\  /    A nd           | Website:  www.openfoam.com                      |
|    \\/     M anipulation  |                                                 |
\*---------------------------------------------------------------------------*/
FoamFile
{
    version     2.0;
    format      ascii;
    class       volVectorField;
    location    "0.106/solid";
    object      D_0;
}
// * * * * * * * * * * * * * * * * * * * * * * * * * * * * * * * * * * * * * //

dimensions      [0 1 0 0 0 0 0];


internalField   nonuniform List<vector> 
24998
(
(2.29375e-11 5.17317e-11 3.89396e-11)
(-2.77035e-13 -1.30994e-13 -1.59065e-12)
(3.14011e-12 -3.11929e-13 2.09132e-11)
(8.86622e-15 -1.42609e-13 1.46907e-11)
(4.4365e-12 -5.17296e-12 1.79925e-11)
(7.47725e-11 2.27515e-10 -1.68892e-12)
(6.10998e-11 2.19358e-10 -2.97996e-12)
(5.28395e-11 2.09063e-10 -4.14854e-12)
(3.42202e-11 1.85716e-10 3.45658e-11)
(3.49211e-11 5.30825e-11 3.5538e-11)
(1.20792e-12 9.7612e-13 3.74477e-11)
(1.78227e-10 2.39645e-10 6.85201e-13)
(-1.49583e-13 -1.50964e-13 -2.47899e-12)
(4.19775e-12 -3.57277e-13 2.1179e-11)
(7.83337e-11 2.30776e-10 -7.87983e-13)
(9.93873e-13 4.74553e-13 3.82039e-11)
(-2.28044e-12 -2.27906e-13 2.90217e-11)
(1.05926e-14 -1.33275e-13 1.4731e-11)
(-2.32226e-12 -1.96008e-13 2.88807e-11)
(3.90196e-12 -9.06191e-12 3.45848e-11)
(4.01099e-12 -3.09132e-12 1.82034e-11)
(6.62051e-12 -1.9205e-11 3.6783e-11)
(1.71765e-10 2.37508e-10 -1.28809e-12)
(1.60199e-10 2.30644e-10 -3.02812e-12)
(6.20581e-11 2.20392e-10 -2.92449e-12)
(1.59087e-10 2.29639e-10 -3.08263e-12)
(1.51653e-10 2.21296e-10 -4.28103e-12)
(5.42247e-11 2.10884e-10 -4.10053e-12)
(1.50114e-10 2.19494e-10 -4.29401e-12)
(1.34799e-10 1.98815e-10 2.95262e-11)
(3.33064e-11 1.91212e-10 2.25435e-11)
(1.33808e-10 1.90722e-10 4.95967e-11)
(2.28725e-12 -1.75534e-12 -7.38381e-12)
(-3.7239e-11 4.70397e-11 -2.55957e-11)
(-1.52105e-13 8.44402e-12 1.81092e-11)
(1.35825e-11 3.60583e-11 4.73923e-11)
(1.02047e-10 2.17715e-10 3.47741e-11)
(-1.03693e-12 -1.03555e-11 3.13285e-11)
(-4.88473e-12 -3.19118e-12 2.60148e-11)
(3.02887e-12 -2.74038e-13 1.84464e-11)
(4.50976e-13 -3.64475e-13 1.59461e-11)
(3.53725e-12 -2.06404e-14 1.78814e-11)
(3.74913e-12 -8.88782e-14 1.78316e-11)
(-4.76334e-14 1.18006e-13 1.46409e-11)
(-1.20097e-06 -5.21208e-08 -1.44528e-06)
(-1.32244e-11 -4.70872e-11 1.3902e-11)
(-2.79988e-08 1.88117e-09 -3.17028e-08)
(-4.48915e-09 -1.18096e-09 1.39273e-08)
(-1.00651e-06 -7.49951e-07 2.71066e-07)
(6.71871e-11 2.24418e-10 -2.63673e-12)
(-7.95304e-06 -5.05041e-06 -3.56026e-06)
(-4.16238e-06 -1.97165e-06 -2.72901e-06)
(-4.20699e-06 -3.43528e-06 5.1701e-07)
(-7.79558e-06 -6.70596e-06 6.44241e-07)
(5.83209e-11 2.16346e-10 -3.38804e-12)
(-1.82385e-05 -1.48924e-05 -4.48825e-06)
(-1.31616e-05 -9.83536e-06 -4.18378e-06)
(-1.33628e-05 -1.21464e-05 7.41855e-07)
(-1.81363e-05 -1.70655e-05 7.79947e-07)
(4.57482e-11 2.02163e-10 -1.6086e-12)
(-2.94582e-05 -2.67655e-05 -4.66377e-06)
(-2.42226e-05 -2.11545e-05 -4.62134e-06)
(-2.45001e-05 -2.38382e-05 7.99776e-07)
(-2.95687e-05 -2.93263e-05 8.21926e-07)
(5.77192e-12 -1.48295e-12 -8.68664e-12)
(1.88901e-13 3.70822e-11 4.60997e-11)
(1.88163e-10 2.20813e-10 4.19762e-11)
(-1.57368e-11 3.4701e-11 3.2282e-13)
(-6.72295e-12 -2.82048e-12 2.71702e-11)
(-9.49766e-11 4.65419e-11 -2.55448e-11)
(6.10673e-12 2.0038e-11 4.537e-11)
(-1.6799e-11 -2.77764e-12 5.65822e-11)
(-4.0661e-11 2.95231e-11 4.32342e-12)
(1.83931e-10 2.32704e-10 2.56297e-11)
(-4.9009e-12 7.07254e-12 1.55198e-11)
(4.00013e-12 -6.38193e-12 2.98023e-11)
(1.64494e-12 1.82248e-11 4.62368e-11)
(3.20177e-12 -6.33147e-12 2.41796e-11)
(8.63366e-12 -4.08043e-12 2.49112e-11)
(9.72249e-11 2.25362e-10 2.09471e-11)
(-1.13194e-11 -5.07e-12 5.35694e-11)
(-1.61965e-12 -5.67117e-13 3.08384e-11)
(-1.81996e-12 -4.43756e-13 4.22555e-11)
(3.54926e-12 -1.26757e-13 1.79002e-11)
(3.09089e-12 -1.52749e-13 1.8393e-11)
(-1.77119e-12 -4.82825e-13 3.06943e-11)
(-1.05833e-12 -1.74761e-13 4.14718e-11)
(-1.60238e-12 -3.49554e-13 4.21502e-11)
(4.11077e-13 -3.43766e-13 1.58686e-11)
(-1.04639e-12 -1.4141e-13 4.13849e-11)
(-2.40875e-12 1.43087e-13 2.88445e-11)
(-8.0016e-13 -6.41099e-14 4.14395e-11)
(-6.39555e-12 -3.08598e-11 1.56064e-11)
(3.7678e-12 -2.26476e-14 1.78423e-11)
(-2.36095e-12 1.54858e-13 2.90353e-11)
(-1.31322e-11 -5.59614e-11 4.26017e-11)
(-7.69936e-13 -2.095e-13 4.1529e-11)
(-5.27035e-14 1.09046e-13 1.46847e-11)
(-1.19377e-06 -9.57825e-08 -1.37534e-06)
(-3.3141e-11 -1.18147e-10 4.1616e-11)
(-1.86099e-09 -2.1697e-09 5.65198e-09)
(-9.96394e-07 -6.83037e-07 8.02932e-08)
(-3.60275e-08 -7.32858e-09 -6.43273e-08)
(-1.15415e-06 -3.25538e-08 -1.3964e-06)
(-4.6464e-08 1.59822e-08 -5.08138e-08)
(-1.12578e-06 -6.80233e-08 -1.30125e-06)
(4.11268e-09 -5.94565e-09 1.58929e-08)
(-9.20438e-07 -6.89957e-07 2.62734e-07)
(-2.7252e-08 1.92248e-08 -4.20174e-08)
(-1.32783e-06 -1.14667e-07 -1.53107e-06)
(-3.94475e-06 -1.81033e-06 -2.6637e-06)
(-1.32135e-06 -1.59969e-07 -1.45792e-06)
(-3.75361e-06 -2.90854e-06 1.27447e-07)
(-1.25741e-06 -8.79885e-07 8.8115e-08)
(-3.94828e-06 -1.8767e-06 -2.5494e-06)
(-1.27909e-06 -9.53933e-08 -1.47722e-06)
(-3.87141e-06 -1.79547e-06 -2.53976e-06)
(-1.25052e-06 -1.3263e-07 -1.37652e-06)
(-3.60496e-06 -2.91379e-06 4.94023e-07)
(-1.17174e-06 -8.86558e-07 2.94739e-07)
(-3.84087e-06 -1.8556e-06 -2.36465e-06)
(1.08346e-09 -1.57711e-08 2.91136e-08)
(-9.28655e-07 -7.64089e-07 4.77327e-07)
(-3.76441e-06 -3.04827e-06 4.94568e-07)
(-1.26756e-06 -9.56483e-07 3.03664e-07)
(-3.60693e-06 -3.05897e-06 9.00858e-07)
(-1.17915e-06 -9.70129e-07 5.36254e-07)
(1.65623e-10 2.34493e-10 -2.72179e-12)
(1.6354e-10 2.33339e-10 -2.85799e-12)
(6.56369e-11 2.23114e-10 -2.70286e-12)
(-7.96547e-06 -5.13348e-06 -3.41606e-06)
(-4.19605e-06 -3.28735e-06 1.31265e-07)
(-4.16652e-06 -2.03922e-06 -2.61242e-06)
(-7.78364e-06 -6.5066e-06 1.48319e-07)
(-7.86004e-06 -5.04003e-06 -3.37153e-06)
(-4.08761e-06 -1.95708e-06 -2.60069e-06)
(-7.82877e-06 -5.11872e-06 -3.1358e-06)
(-4.03925e-06 -3.2924e-06 5.19218e-07)
(-4.05698e-06 -2.01853e-06 -2.42121e-06)
(-7.57594e-06 -6.5103e-06 6.73417e-07)
(-8.2365e-06 -5.29684e-06 -3.606e-06)
(-1.28358e-05 -9.52216e-06 -4.1558e-06)
(-8.24942e-06 -5.38077e-06 -3.46038e-06)
(-1.26927e-05 -1.12394e-05 1.52644e-07)
(-8.35698e-06 -7.04193e-06 1.49577e-07)
(-1.28552e-05 -9.61663e-06 -3.9943e-06)
(-8.14249e-06 -5.28673e-06 -3.41364e-06)
(-1.27293e-05 -9.51582e-06 -3.91616e-06)
(-8.1112e-06 -5.36639e-06 -3.17476e-06)
(-1.24396e-05 -1.12417e-05 8.01186e-07)
(-8.14288e-06 -7.04545e-06 6.92245e-07)
(-1.26984e-05 -9.60759e-06 -3.63903e-06)
(-4.04052e-06 -3.44558e-06 9.4649e-07)
(-7.57275e-06 -6.71351e-06 1.22242e-06)
(-1.27057e-05 -1.14853e-05 7.3407e-07)
(-8.36906e-06 -7.24781e-06 6.58447e-07)
(-1.24319e-05 -1.149e-05 1.44591e-06)
(-8.1391e-06 -7.25498e-06 1.25566e-06)
(1.56214e-10 2.26679e-10 -3.48358e-12)
(1.55183e-10 2.25519e-10 -3.66283e-12)
(5.73775e-11 2.15164e-10 -3.56711e-12)
(-1.82631e-05 -1.49936e-05 -4.31914e-06)
(-1.33498e-05 -1.18956e-05 1.52487e-07)
(-1.31814e-05 -9.93038e-06 -4.02155e-06)
(-1.81226e-05 -1.67857e-05 1.49709e-07)
(-1.81241e-05 -1.48893e-05 -4.21528e-06)
(-1.30545e-05 -9.82925e-06 -3.94151e-06)
(-1.80941e-05 -1.49892e-05 -3.91483e-06)
(-1.30918e-05 -1.18978e-05 8.13473e-07)
(-1.30236e-05 -9.92166e-06 -3.66242e-06)
(-1.78367e-05 -1.67868e-05 8.77225e-07)
(-1.85863e-05 -1.52491e-05 -4.50153e-06)
(-2.38684e-05 -2.07778e-05 -4.61811e-06)
(-1.86111e-05 -1.53506e-05 -4.3322e-06)
(-2.37751e-05 -2.27734e-05 1.46941e-07)
(-1.88223e-05 -1.75176e-05 1.49249e-07)
(-2.38961e-05 -2.08823e-05 -4.44787e-06)
(-1.84716e-05 -1.52462e-05 -4.22711e-06)
(-2.37502e-05 -2.0777e-05 -4.3297e-06)
(-1.84417e-05 -1.53465e-05 -3.92573e-06)
(-2.34692e-05 -2.27738e-05 9.08111e-07)
(-1.85332e-05 -1.75187e-05 8.83309e-07)
(-2.37212e-05 -2.08811e-05 -4.02083e-06)
(-1.30837e-05 -1.21508e-05 1.46714e-06)
(-1.78254e-05 -1.70679e-05 1.57691e-06)
(-2.37894e-05 -2.30744e-05 7.98624e-07)
(-1.8836e-05 -1.78008e-05 7.83446e-07)
(-2.34555e-05 -2.30752e-05 1.63116e-06)
(-1.85215e-05 -1.7803e-05 1.58741e-06)
(1.43719e-10 2.12654e-10 -1.433e-12)
(1.41121e-10 2.0985e-10 1.93693e-12)
(4.24038e-11 1.99521e-10 1.33493e-12)
(-2.95603e-05 -2.69398e-05 -4.51882e-06)
(-2.44858e-05 -2.35355e-05 1.46789e-07)
(-2.42504e-05 -2.12591e-05 -4.45117e-06)
(-2.95661e-05 -2.9178e-05 4.97082e-07)
(-2.93522e-05 -2.67766e-05 -4.37936e-06)
(-2.41043e-05 -2.11538e-05 -4.33246e-06)
(-2.94052e-05 -2.6949e-05 -4.11865e-06)
(-2.41783e-05 -2.35358e-05 9.09564e-07)
(-2.40753e-05 -2.12581e-05 -4.02344e-06)
(-2.94019e-05 -2.91782e-05 8.98159e-07)
(-2.41643e-05 -2.38388e-05 1.63392e-06)
(-2.94003e-05 -2.93264e-05 1.23318e-06)
(1.051e-11 -1.2271e-12 -2.884e-12)
(6.71474e-11 1.23429e-11 3.75488e-11)
(2.21071e-11 -2.23449e-11 -1.26788e-12)
(4.68405e-10 4.74418e-10 3.53213e-11)
(3.30155e-11 3.96265e-11 3.38585e-11)
(2.60537e-11 5.93784e-11 3.56213e-11)
(7.12417e-11 1.41632e-10 9.26112e-11)
(2.18037e-10 5.52182e-10 1.87287e-10)
(2.15623e-11 2.89703e-11 2.70547e-11)
(1.19495e-10 1.22838e-10 7.76827e-11)
(1.41021e-12 -1.03147e-12 6.64242e-12)
(1.44638e-12 -1.8283e-12 1.95284e-11)
(1.69978e-12 -6.06639e-13 7.2705e-12)
(-5.63367e-13 -5.23488e-14 1.72944e-13)
(-7.08985e-14 -9.10031e-15 1.44999e-11)
(-6.54673e-13 -2.33177e-14 -5.70859e-14)
(5.08227e-13 2.40072e-12 3.73124e-12)
(-6.75329e-11 -1.34274e-11 2.64581e-11)
(-4.50937e-11 1.26846e-10 6.10441e-12)
(3.73053e-10 3.97693e-10 3.5674e-12)
(6.19299e-11 1.53243e-10 -2.88529e-13)
(2.37731e-10 8.96626e-10 -1.46369e-12)
(7.17594e-11 2.26038e-10 -1.47244e-12)
(3.93719e-10 4.07567e-10 7.83061e-12)
(2.26685e-10 8.91439e-10 2.20719e-13)
(5.84531e-11 1.51836e-10 -1.02747e-12)
(3.32929e-10 3.78051e-10 -2.72895e-12)
(4.51727e-11 1.45787e-10 -2.32298e-12)
(2.03155e-10 8.71011e-10 -6.31669e-12)
(6.01791e-11 2.18386e-10 -3.0467e-12)
(3.3982e-10 3.82501e-10 -2.21318e-12)
(1.99828e-10 8.65985e-10 -5.17052e-12)
(4.39864e-11 1.44987e-10 -2.4589e-12)
(2.921e-10 3.51127e-10 2.51226e-12)
(3.49766e-11 1.37637e-10 -2.99136e-12)
(1.82821e-10 8.35639e-10 -6.99411e-12)
(5.10077e-11 2.07011e-10 -3.94293e-12)
(3.06631e-10 3.60215e-10 -1.03587e-12)
(1.76118e-10 8.23856e-10 -3.52599e-12)
(3.26067e-11 1.36022e-10 -2.83861e-12)
(2.53924e-10 3.05258e-10 1.30499e-10)
(2.62366e-12 1.2275e-10 2.22175e-11)
(1.36592e-10 7.46374e-10 1.24218e-10)
(4.3375e-11 1.70968e-10 4.86719e-11)
(2.13531e-10 3.25751e-10 7.39198e-11)
(1.726e-10 6.53107e-10 2.23426e-10)
(1.21723e-11 1.16259e-10 3.01939e-11)
(1.67958e-10 3.02713e-10 7.06571e-11)
(6.07165e-11 3.10582e-11 2.12102e-11)
(2.64069e-11 6.34561e-11 3.51138e-11)
(1.00205e-10 1.3996e-10 8.56611e-11)
(1.67393e-10 5.95375e-10 1.90837e-10)
(3.46969e-11 2.58503e-11 1.71337e-11)
(1.89153e-10 8.02774e-11 4.66307e-11)
(5.63695e-12 -1.14548e-11 4.2243e-11)
(-3.45666e-12 1.10338e-14 5.86871e-11)
(-2.23221e-12 5.11957e-12 5.25737e-11)
(2.77584e-10 4.32918e-10 1.76043e-11)
(1.8318e-10 2.40558e-10 5.36782e-12)
(2.83484e-10 1.49412e-10 2.60016e-12)
(2.59367e-10 9.78372e-10 6.76279e-13)
(2.79381e-10 9.92331e-10 1.48203e-11)
(2.54044e-10 4.38877e-10 -2.05516e-12)
(2.8789e-10 1.48944e-10 4.17346e-12)
(-3.08954e-12 1.42042e-12 -7.41258e-12)
(-5.97926e-12 9.13277e-12 1.13114e-12)
(-1.22203e-11 1.31036e-11 1.18508e-12)
(7.72401e-12 -5.51469e-14 2.5371e-11)
(2.00291e-12 -1.47175e-12 7.9754e-12)
(6.46632e-12 -2.93834e-13 1.79693e-11)
(4.16681e-10 4.16584e-10 1.82806e-11)
(8.32527e-11 2.32857e-10 4.10136e-12)
(6.36985e-11 1.54865e-10 6.54966e-13)
(2.43363e-10 9.07367e-10 -1.6493e-14)
(3.94361e-10 4.07435e-10 8.40409e-12)
(2.62995e-10 9.27184e-10 1.42836e-11)
(6.79758e-11 1.56541e-10 2.46871e-12)
(-3.32266e-12 -2.42742e-12 5.71932e-11)
(2.71873e-13 -2.76457e-12 3.76776e-11)
(2.76132e-13 -2.10833e-12 5.19675e-11)
(-2.12329e-12 -3.66492e-13 2.96593e-11)
(-3.07466e-12 -3.03666e-13 4.67078e-11)
(-2.90802e-12 -4.40691e-13 4.72908e-11)
(1.57589e-13 -2.41467e-13 1.51747e-11)
(-5.39253e-13 -5.25602e-14 2.16683e-13)
(-3.9298e-13 -8.63622e-14 5.98678e-13)
(-3.10676e-12 -2.2262e-13 4.6577e-11)
(-2.4156e-12 -3.69868e-14 2.86155e-11)
(-3.17247e-12 -2.92021e-14 4.64168e-11)
(-1.07896e-12 -8.00545e-13 3.08855e-11)
(-5.2531e-12 -2.40602e-11 5.40457e-11)
(-1.80462e-12 -3.17308e-12 4.94074e-11)
(6.12488e-13 -5.43158e-14 1.56762e-11)
(3.18154e-13 1.5147e-12 2.78719e-12)
(-3.46439e-13 2.03373e-13 7.14715e-13)
(-2.15675e-11 -5.12331e-11 5.76892e-11)
(-7.65375e-11 -1.51329e-10 5.12358e-11)
(-6.2935e-10 -4.21662e-10 2.45315e-10)
(2.39717e-10 4.32031e-10 -3.6855e-12)
(2.75153e-10 1.50307e-10 -5.7901e-16)
(2.52641e-10 9.68812e-10 -1.48175e-12)
(1.68908e-10 2.36098e-10 -1.89156e-12)
(2.42773e-10 9.62403e-10 -9.34943e-13)
(2.46939e-10 4.42178e-10 -2.53973e-12)
(2.72165e-10 1.49007e-10 -2.29445e-12)
(2.27295e-10 4.22984e-10 -5.30791e-12)
(1.61347e-10 2.31545e-10 -2.86225e-12)
(2.63268e-10 1.44603e-10 -2.63672e-12)
(2.22522e-10 9.42878e-10 -5.37886e-12)
(2.26212e-10 9.48416e-10 -5.89987e-12)
(2.2333e-10 4.20464e-10 -5.55976e-12)
(2.6459e-10 1.45164e-10 -2.59481e-12)
(3.47577e-10 3.86898e-10 -1.42032e-12)
(6.31212e-11 2.21346e-10 -2.72448e-12)
(4.63282e-11 1.46587e-10 -2.28854e-12)
(2.04328e-10 8.72886e-10 -5.02511e-12)
(3.40231e-10 3.82585e-10 -2.32633e-12)
(2.08193e-10 8.78263e-10 -5.5527e-12)
(4.76269e-11 1.47369e-10 -2.11346e-12)
(2.20703e-10 4.159e-10 -5.65347e-12)
(2.61934e-10 1.43947e-10 -2.65097e-12)
(2.21451e-10 9.40902e-10 -6.58722e-12)
(1.58155e-10 2.28666e-10 -3.16943e-12)
(2.18441e-10 9.35572e-10 -5.50797e-12)
(2.22822e-10 4.20035e-10 -5.44246e-12)
(2.60883e-10 1.432e-10 -2.84605e-12)
(2.14738e-10 4.05776e-10 -6.27012e-12)
(1.52981e-10 2.22868e-10 -4.07342e-12)
(2.53473e-10 1.37915e-10 -3.66816e-12)
(2.04703e-10 9.07295e-10 -6.54816e-12)
(2.0889e-10 9.16496e-10 -7.79997e-12)
(2.11908e-10 3.9978e-10 -6.09709e-12)
(2.55009e-10 1.39026e-10 -3.4648e-12)
(3.16968e-10 3.67332e-10 -2.5957e-12)
(5.5368e-11 2.12477e-10 -3.93494e-12)
(3.66143e-11 1.39026e-10 -3.04951e-12)
(1.84677e-10 8.38695e-10 -6.07286e-12)
(3.07432e-10 3.60509e-10 -1.52772e-12)
(1.89245e-10 8.47585e-10 -7.48779e-12)
(3.79435e-11 1.40247e-10 -2.9825e-12)
(2.08363e-10 3.90371e-10 -3.00507e-12)
(2.51797e-10 1.36604e-10 -3.54806e-12)
(2.03131e-10 9.04151e-10 -7.37747e-12)
(1.48286e-10 2.17462e-10 -4.04575e-12)
(1.97016e-10 8.92188e-10 -3.82431e-12)
(2.11446e-10 3.98835e-10 -5.8341e-12)
(2.49823e-10 1.35168e-10 -3.28643e-12)
(2.10667e-10 3.52377e-10 5.4056e-11)
(1.36435e-10 2.03449e-10 1.63644e-11)
(2.37274e-10 1.20779e-10 3.81216e-11)
(1.68529e-10 8.10735e-10 1.11764e-10)
(1.71753e-10 8.41897e-10 4.87309e-11)
(2.32422e-10 3.14145e-10 1.54349e-10)
(2.3923e-10 1.24309e-10 2.00879e-11)
(2.34363e-10 3.2785e-10 3.65091e-11)
(3.54486e-11 1.94279e-10 1.30992e-11)
(3.1676e-12 1.24944e-10 1.53477e-11)
(1.35608e-10 7.57237e-10 1.00877e-10)
(2.12806e-10 3.24493e-10 6.81116e-11)
(1.43071e-10 7.78868e-10 4.53386e-11)
(8.26148e-12 1.264e-10 9.72019e-12)
(3.13968e-10 1.62106e-10 4.83737e-10)
(2.3456e-10 1.14586e-10 6.99214e-11)
(1.70429e-10 7.948e-10 1.40953e-10)
(1.34791e-10 1.72026e-10 8.00002e-11)
(2.03398e-10 6.74742e-10 2.67498e-10)
(2.38013e-10 3.05188e-10 1.78451e-10)
(2.31441e-10 1.01924e-10 1.27982e-10)
(4.45116e-12 -2.73933e-12 -3.96707e-12)
(1.22155e-11 -3.97844e-13 -1.08287e-11)
(1.58014e-11 -2.18326e-11 -8.96518e-12)
(7.17267e-11 -7.50102e-12 3.55435e-11)
(2.8745e-11 -3.42848e-11 1.28564e-11)
(1.57019e-11 2.26606e-12 -1.31683e-11)
(-8.40484e-10 3.621e-10 -1.8131e-10)
(1.2717e-11 -3.23639e-11 -1.03813e-11)
(3.30638e-12 8.7805e-12 8.85034e-12)
(-4.16325e-12 1.11108e-11 6.31071e-11)
(3.00538e-11 2.95609e-11 3.33919e-11)
(6.31898e-11 4.1147e-11 2.7545e-11)
(1.23509e-11 4.22458e-11 4.49404e-11)
(5.38758e-12 -5.90522e-12 5.5624e-11)
(2.53694e-10 7.82133e-10 1.80078e-12)
(3.12408e-11 4.05646e-11 3.5398e-11)
(4.74806e-10 4.71951e-10 3.10689e-11)
(1.02056e-10 1.94993e-10 6.60711e-11)
(2.77094e-10 8.56456e-10 4.26232e-11)
(1.00356e-10 1.58209e-10 2.05925e-11)
(2.44974e-10 7.23315e-10 1.05235e-10)
(4.62856e-10 4.3934e-10 2.82958e-11)
(1.06607e-10 1.52532e-10 4.74767e-11)
(3.06373e-10 1.09123e-09 2.38581e-11)
(2.57122e-10 9.0344e-10 6.93653e-11)
(-5.73814e-12 2.42334e-12 6.52304e-11)
(-3.44859e-12 -1.08741e-11 5.1588e-11)
(3.61701e-11 3.64023e-11 5.2478e-11)
(5.46517e-11 4.41122e-11 7.67713e-12)
(5.68745e-11 4.70748e-11 1.87194e-11)
(1.40213e-12 -1.11336e-12 1.94416e-11)
(1.7159e-12 -7.55698e-13 1.92095e-11)
(1.00259e-14 -7.99114e-13 4.12838e-12)
(2.72135e-14 -3.61535e-13 4.4984e-12)
(1.70037e-12 -1.97635e-12 1.87038e-11)
(1.01843e-13 -2.14059e-13 1.48008e-12)
(1.10615e-12 -9.06352e-13 5.05027e-12)
(-1.14979e-12 -2.09609e-13 3.53443e-13)
(-4.19359e-13 -5.22713e-13 3.08423e-12)
(3.60533e-12 -6.2088e-14 1.78035e-11)
(3.62386e-12 4.286e-14 1.78024e-11)
(-1.69612e-12 -2.95863e-14 -9.01953e-13)
(-1.77356e-12 -3.09586e-14 -1.09649e-12)
(-7.33932e-14 -1.59985e-14 1.44984e-11)
(-7.1158e-13 2.52042e-14 -1.36445e-13)
(-6.54377e-13 -2.56159e-14 -5.29228e-14)
(-1.83689e-12 5.03552e-15 -1.19333e-12)
(-1.77419e-12 -9.50748e-15 -1.09409e-12)
(-4.96587e-07 1.95999e-07 -8.09002e-07)
(-5.11044e-10 -4.30807e-10 -4.66222e-11)
(-4.21904e-07 2.02851e-07 -7.13346e-07)
(-6.75958e-10 -4.89551e-10 -9.11526e-11)
(-1.15281e-06 -1.02808e-06 1.06712e-06)
(-4.41589e-07 -3.56906e-07 5.90199e-07)
(-9.63116e-13 1.48811e-12 2.20741e-12)
(-3.83128e-11 8.28427e-11 4.94736e-12)
(-2.42547e-10 8.85413e-12 -1.43649e-11)
(-2.36784e-07 -1.65652e-07 1.26165e-07)
(-7.73523e-09 -4.55371e-09 2.27713e-08)
(-3.42474e-07 -2.77529e-07 4.69757e-07)
(-5.72822e-11 3.15524e-10 2.0617e-11)
(-1.12711e-06 -9.98564e-07 9.69616e-07)
(-3.86165e-07 -2.75537e-07 1.6449e-07)
(-4.17263e-07 -3.45522e-07 5.35215e-07)
(-1.02066e-08 -6.21019e-09 2.57057e-08)
(-3.66112e-07 -2.86358e-07 5.1839e-07)
(-5.52215e-11 2.11145e-10 1.33322e-11)
(3.69183e-11 4.29609e-11 1.15092e-12)
(3.39073e-11 4.25555e-11 -2.75234e-13)
(2.71222e-10 1.15266e-09 2.12727e-12)
(2.60422e-10 1.15246e-09 1.71206e-12)
(3.70906e-10 3.97248e-10 3.14189e-12)
(6.91953e-11 2.2548e-10 -1.98548e-12)
(2.16359e-10 8.86575e-10 -4.24236e-12)
(5.24611e-11 1.49851e-10 -1.74309e-12)
(2.23895e-10 8.93099e-10 -2.35654e-12)
(3.58281e-10 3.91964e-10 -8.85427e-14)
(5.47662e-11 1.5076e-10 -1.41989e-12)
(2.49295e-10 1.14581e-09 -3.73213e-12)
(2.5768e-10 1.15641e-09 -3.96636e-13)
(3.09985e-11 4.2193e-11 -5.87804e-13)
(3.32638e-11 4.24469e-11 2.13043e-13)
(-6.06936e-06 -3.46479e-06 -3.20659e-06)
(-5.81576e-06 -3.25897e-06 -3.15122e-06)
(-7.94506e-06 -7.54107e-06 2.6359e-06)
(-6.05208e-06 -5.68251e-06 2.3764e-06)
(-4.10866e-06 -3.76703e-06 1.83861e-06)
(-5.64608e-06 -4.72021e-06 5.77743e-07)
(-5.77166e-06 -5.34921e-06 2.12191e-06)
(-4.13427e-06 -3.83791e-06 2.02372e-06)
(-5.79713e-06 -5.43509e-06 2.33564e-06)
(-7.91986e-06 -7.4396e-06 2.3948e-06)
(-6.16028e-06 -5.18838e-06 5.9587e-07)
(-6.02664e-06 -5.59459e-06 2.15894e-06)
(2.6959e-11 4.12916e-11 -5.05893e-13)
(2.5637e-11 4.09454e-11 -1.12558e-12)
(2.35114e-10 1.12601e-09 -4.93668e-12)
(2.31509e-10 1.12011e-09 -4.85815e-12)
(3.32502e-10 3.77967e-10 -2.60065e-12)
(5.92544e-11 2.17417e-10 -3.1706e-12)
(1.95289e-10 8.5874e-10 -5.82773e-12)
(4.16393e-11 1.43316e-10 -2.72648e-12)
(1.9869e-10 8.64581e-10 -6.55728e-12)
(3.25587e-10 3.73273e-10 -3.01994e-12)
(4.28117e-11 1.44183e-10 -2.52056e-12)
(2.26572e-10 1.11083e-09 -5.36771e-12)
(2.30281e-10 1.11827e-09 -5.18216e-12)
(2.40479e-11 4.04482e-11 -1.24021e-12)
(2.54015e-11 4.08325e-11 -6.03777e-13)
(-1.58313e-05 -1.24567e-05 -4.37186e-06)
(-1.54922e-05 -1.21187e-05 -4.35171e-06)
(-1.82664e-05 -1.82478e-05 3.3127e-06)
(-1.58526e-05 -1.56742e-05 3.22688e-06)
(-1.315e-05 -1.27316e-05 2.80794e-06)
(-1.53763e-05 -1.41982e-05 7.61423e-07)
(-1.54885e-05 -1.51755e-05 2.91927e-06)
(-1.31743e-05 -1.28608e-05 3.08993e-06)
(-1.55124e-05 -1.53142e-05 3.21214e-06)
(-1.82429e-05 -1.81e-05 3.01088e-06)
(-1.60594e-05 -1.49024e-05 7.66798e-07)
(-1.58287e-05 -1.55343e-05 2.93269e-06)
(2.07116e-11 3.91199e-11 -6.02027e-13)
(1.8112e-11 3.85038e-11 -8.66035e-13)
(2.12868e-10 1.08098e-09 -4.2211e-12)
(2.05268e-10 1.06582e-09 -7.42481e-13)
(2.90578e-10 3.50687e-10 3.52283e-12)
(4.86296e-11 2.04709e-10 -3.20328e-12)
(1.63308e-10 8.0518e-10 6.47487e-12)
(2.52273e-11 1.32162e-10 -8.53102e-13)
(1.73279e-10 8.19899e-10 -3.2832e-12)
(2.6845e-10 3.39172e-10 1.2434e-11)
(2.93554e-11 1.34188e-10 -2.15217e-12)
(1.90785e-10 1.04192e-09 1.15052e-11)
(2.02293e-10 1.06069e-09 9.45068e-13)
(1.23381e-11 3.75236e-11 3.55212e-13)
(1.72785e-11 3.82802e-11 -1.51783e-13)
(-2.70545e-05 -2.41856e-05 -4.63397e-06)
(-2.67008e-05 -2.38055e-05 -4.63341e-06)
(-2.95928e-05 -3.0518e-05 3.41949e-06)
(-2.7097e-05 -2.78103e-05 3.43351e-06)
(-2.42396e-05 -2.45689e-05 3.10699e-06)
(-2.66298e-05 -2.61341e-05 8.02187e-07)
(-2.67207e-05 -2.72618e-05 3.11965e-06)
(-2.42623e-05 -2.473e-05 3.41838e-06)
(-2.67431e-05 -2.74256e-05 3.43241e-06)
(-2.95723e-05 -3.03624e-05 3.12317e-06)
(-2.73391e-05 -2.69007e-05 8.02696e-07)
(-2.70747e-05 -2.76463e-05 3.12064e-06)
(-8.45128e-12 3.47256e-11 6.4546e-12)
(2.99629e-12 3.09336e-11 8.38523e-12)
(1.53729e-10 9.64094e-10 1.55351e-10)
(1.87852e-10 8.56071e-10 2.68053e-10)
(2.6431e-10 2.91866e-10 1.43481e-10)
(3.80584e-11 7.62817e-11 3.95408e-11)
(2.0442e-10 5.92765e-10 2.65373e-10)
(8.6589e-12 4.72431e-11 1.19603e-11)
(2.23612e-10 7.85495e-10 3.06476e-10)
(1.52374e-11 2.93143e-11 9.3163e-12)
(1.82466e-11 5.04216e-12 5.37161e-12)
(1.0704e-11 4.90511e-12 -1.19342e-11)
(3.1072e-11 1.45942e-11 6.94507e-12)
(1.45668e-10 2.32675e-11 2.18106e-11)
(2.98467e-11 4.47968e-11 4.57457e-11)
(5.80516e-12 1.34924e-11 3.49582e-11)
(9.81268e-11 8.4532e-10 1.02386e-11)
(1.86435e-11 2.90241e-11 2.00674e-11)
(1.73932e-10 3.46271e-10 6.9174e-11)
(1.66655e-10 1.9314e-10 7.14193e-11)
(2.7594e-10 9.28131e-10 4.83425e-11)
(2.95825e-10 1.32724e-10 4.01883e-11)
(2.19846e-10 7.76379e-10 1.10404e-10)
(2.63083e-10 4.36398e-10 4.34425e-11)
(2.56368e-10 1.17879e-10 3.85531e-11)
(2.47242e-10 1.18779e-09 2.87351e-11)
(1.85738e-10 9.78442e-10 7.6086e-11)
(1.19688e-11 7.69249e-12 -1.04003e-11)
(4.28975e-12 1.52252e-11 2.6876e-11)
(1.96414e-11 1.95083e-11 1.11277e-11)
(2.02324e-10 3.42795e-11 2.36692e-11)
(1.64559e-10 2.48848e-11 2.17299e-11)
(-3.31586e-11 5.59212e-12 2.6815e-11)
(-1.22836e-09 2.07922e-10 7.41458e-11)
(-3.02279e-11 6.87999e-12 2.66689e-11)
(1.82139e-11 1.10466e-12 3.87458e-11)
(1.95125e-12 1.3146e-11 3.52271e-11)
(-4.3037e-14 9.29901e-12 4.71209e-11)
(-6.31244e-12 1.164e-13 6.38628e-11)
(-3.85786e-11 1.60174e-12 4.81482e-11)
(-5.4576e-12 7.49316e-12 5.38769e-11)
(-1.91357e-12 1.37622e-11 2.96713e-11)
(-5.44671e-11 1.08356e-11 3.56356e-11)
(-4.34737e-12 1.07357e-11 4.51298e-11)
(2.68854e-10 4.41929e-10 2.13173e-11)
(1.82478e-10 2.38296e-10 1.35215e-11)
(2.77462e-10 9.35414e-10 3.87534e-11)
(2.84301e-10 1.49545e-10 2.7071e-11)
(2.43194e-10 4.60788e-10 4.05192e-11)
(2.80758e-10 9.80001e-10 2.32572e-11)
(2.84042e-10 1.50996e-10 1.21981e-11)
(1.86839e-10 4.2761e-11 6.84189e-13)
(1.90414e-10 4.25514e-11 2.02083e-12)
(2.39106e-10 1.2617e-09 1.9043e-12)
(2.61291e-10 1.28697e-09 1.48809e-11)
(2.54762e-10 1.19176e-09 2.6803e-11)
(2.63445e-10 1.2654e-09 2.19973e-11)
(1.97199e-10 4.00185e-11 1.88282e-11)
(1.913e-10 4.31157e-11 3.73134e-12)
(-6.7165e-12 2.35403e-12 -2.75469e-12)
(-1.34547e-11 1.02318e-11 5.34076e-11)
(-1.71554e-11 1.29494e-11 1.17329e-11)
(-2.25608e-12 7.63696e-12 -3.01289e-12)
(-9.79661e-12 1.56366e-11 8.39303e-12)
(-1.15128e-11 2.59494e-12 5.62309e-11)
(3.26332e-11 1.19803e-11 3.63527e-12)
(-1.29069e-11 1.27683e-11 1.78824e-11)
(-4.71849e-12 -3.46208e-12 3.06816e-11)
(-1.11357e-12 -3.49195e-12 4.01259e-11)
(5.58169e-12 5.33563e-12 2.03292e-11)
(5.5181e-13 -1.19321e-12 5.30741e-12)
(4.01387e-12 3.34334e-13 1.34131e-11)
(-4.7196e-12 -7.24253e-12 3.46044e-11)
(3.06643e-12 4.77366e-12 1.3143e-11)
(4.32222e-11 3.02641e-12 1.26241e-12)
(4.23117e-10 4.18908e-10 1.97728e-11)
(8.99855e-11 2.30515e-10 1.18071e-11)
(2.77637e-10 8.63971e-10 3.48486e-11)
(9.18153e-11 1.59005e-10 1.20786e-11)
(4.64239e-10 4.39873e-10 2.70748e-11)
(2.68208e-10 9.14339e-10 2.31294e-11)
(7.92669e-11 1.58336e-10 6.00109e-12)
(3.76592e-11 4.29231e-11 9.7502e-13)
(4.26279e-11 4.30463e-11 2.38302e-12)
(2.7771e-10 1.17049e-09 1.87901e-12)
(3.00444e-10 1.21002e-09 1.45742e-11)
(3.09157e-10 1.09507e-09 2.3715e-11)
(3.04822e-10 1.1861e-09 2.21137e-11)
(5.35703e-11 4.44395e-11 6.55883e-12)
(4.46318e-11 4.333e-11 2.42812e-12)
(-6.03754e-12 -3.04396e-12 6.27348e-11)
(-4.38352e-12 -2.14459e-12 4.32112e-11)
(-2.12273e-12 -2.29858e-12 5.38696e-11)
(-2.74047e-13 -2.91428e-12 3.40954e-11)
(-2.33783e-12 -9.06476e-13 4.85513e-11)
(-6.56328e-13 -2.03999e-12 5.10249e-11)
(-3.28466e-12 -1.15147e-12 4.2737e-11)
(-4.0143e-12 -7.71857e-13 5.25867e-11)
(-2.53251e-12 -1.43963e-12 5.36452e-11)
(3.45241e-12 -6.95986e-14 1.80942e-11)
(3.44427e-12 -1.69819e-13 1.81264e-11)
(-2.06006e-12 -3.92899e-13 2.99099e-11)
(-2.47282e-12 -6.79481e-13 4.82642e-11)
(-2.81844e-12 -4.94698e-13 4.75198e-11)
(-4.80722e-12 -2.78488e-13 5.12664e-11)
(-1.15799e-12 -2.35074e-13 4.179e-11)
(-4.66863e-12 -4.062e-13 5.17601e-11)
(-4.19671e-12 -5.87956e-13 5.24032e-11)
(-1.2251e-12 -2.39837e-13 4.18932e-11)
(-4.57883e-12 -4.22723e-13 5.19252e-11)
(1.53447e-13 -2.33474e-13 1.52425e-11)
(-3.47846e-14 -1.73254e-13 1.26761e-12)
(-3.41805e-13 -8.70348e-14 6.99507e-13)
(-1.66836e-12 -5.34912e-14 -8.45478e-13)
(-1.55583e-12 -5.8245e-14 -5.33719e-13)
(-1.27392e-12 -1.47396e-13 9.87532e-14)
(-1.5034e-12 -8.15249e-14 -4.23772e-13)
(-4.83104e-12 -2.29241e-13 5.11474e-11)
(-9.73374e-13 -2.67929e-14 4.12742e-11)
(-4.87196e-12 -5.8517e-15 5.10223e-11)
(-2.43132e-12 2.21632e-16 2.86101e-11)
(-3.11601e-12 1.48803e-13 4.68602e-11)
(-3.18282e-12 5.99063e-14 4.64604e-11)
(-9.35902e-13 2.07831e-15 4.12921e-11)
(-4.79647e-12 1.22694e-13 5.14902e-11)
(-4.87685e-12 5.03819e-14 5.10793e-11)
(3.56432e-12 -2.37919e-12 1.78071e-11)
(3.67441e-12 -1.63338e-12 1.78701e-11)
(-1.66687e-12 -1.96432e-13 3.02309e-11)
(-3.03441e-12 1.20566e-13 4.71269e-11)
(-2.30229e-12 -1.397e-12 4.85792e-11)
(-8.79485e-12 -2.84045e-11 5.85733e-11)
(-1.21528e-12 -6.28184e-12 4.22157e-11)
(-3.59431e-12 -4.31345e-12 5.39415e-11)
(-4.71165e-12 2.3635e-14 5.17391e-11)
(-8.69216e-13 -2.93971e-12 4.19985e-11)
(-4.03731e-12 -1.96898e-12 5.31468e-11)
(4.73978e-13 1.03828e-13 1.55153e-11)
(-6.63698e-13 2.63491e-14 -2.28308e-14)
(-5.17719e-13 1.78917e-13 3.67586e-13)
(-1.135e-12 9.93521e-13 1.30058e-12)
(-1.56793e-12 1.76125e-13 -4.65705e-13)
(-1.79501e-12 2.88875e-14 -1.09252e-12)
(-1.71706e-12 1.35259e-13 -7.99376e-13)
(-1.0414e-06 -3.87904e-07 -6.91025e-07)
(-4.83651e-07 1.65675e-07 -7.61424e-07)
(-4.16841e-07 -6.16624e-08 -3.99564e-07)
(-2.88048e-11 -5.52396e-11 6.25823e-11)
(-8.16512e-10 -7.50782e-10 4.0425e-11)
(-8.15318e-10 -2.68921e-10 3.03601e-10)
(-5.13929e-10 -5.57039e-10 -2.57835e-11)
(-2.27413e-07 -1.3711e-07 4.2295e-08)
(-3.01883e-09 4.5656e-09 -2.04366e-08)
(-2.44672e-07 -4.17908e-08 -2.09272e-07)
(-1.7687e-09 -2.5584e-09 -4.00577e-11)
(-1.02131e-06 -4.69338e-07 -4.98054e-07)
(-3.7645e-07 -2.37749e-07 5.26502e-08)
(-3.96511e-07 -1.12256e-07 -2.84889e-07)
(-4.0829e-07 1.74834e-07 -6.68986e-07)
(-1.5986e-09 -2.85375e-09 -1.06187e-09)
(-6.32633e-09 6.77951e-09 -2.9733e-08)
(-2.63201e-07 -2.29596e-09 -2.95534e-07)
(-2.23698e-09 -2.63025e-09 -1.24388e-11)
(-4.65274e-07 2.1747e-07 -7.96706e-07)
(-3.9337e-07 2.248e-07 -7.06438e-07)
(-9.39007e-07 -3.61033e-07 -5.30636e-07)
(-4.38885e-07 1.96236e-07 -7.41489e-07)
(-3.50953e-07 -3.00773e-08 -3.22155e-07)
(-1.92674e-07 -1.45983e-07 1.24376e-07)
(5.08724e-09 1.81134e-08 -1.85888e-08)
(-1.95831e-07 -1.93514e-08 -1.49342e-07)
(-9.21844e-07 -4.50667e-07 -3.24067e-07)
(-3.30498e-07 -2.45448e-07 1.6071e-07)
(-3.335e-07 -9.00178e-08 -1.9505e-07)
(-3.67554e-07 2.06546e-07 -6.56856e-07)
(1.54167e-09 2.68584e-08 -3.13102e-08)
(-2.12117e-07 2.98047e-08 -2.47945e-07)
(-2.38969e-06 -7.32933e-07 -2.09556e-06)
(-2.56507e-06 -8.46427e-07 -2.17105e-06)
(-1.3025e-06 -5.47145e-07 -7.82948e-07)
(-2.38809e-06 -7.88792e-07 -2.00158e-06)
(-2.23454e-06 -1.17223e-06 -1.04304e-06)
(-2.54866e-06 -1.90282e-06 1.13514e-07)
(-3.78067e-06 -2.48801e-06 -9.88285e-07)
(-2.57551e-06 -1.55496e-06 -8.1799e-07)
(-1.28301e-06 -6.38098e-07 -5.65661e-07)
(-2.19045e-06 -1.61235e-06 1.07961e-07)
(-2.21712e-06 -1.29004e-06 -7.57618e-07)
(-2.56414e-06 -9.03683e-07 -2.07431e-06)
(-3.79529e-06 -2.33795e-06 -1.35395e-06)
(-2.59223e-06 -1.42873e-06 -1.12458e-06)
(-2.32864e-06 -7.1573e-07 -2.008e-06)
(-2.50239e-06 -8.29519e-07 -2.07881e-06)
(-1.18915e-06 -5.21127e-07 -5.95534e-07)
(-2.29897e-06 -7.64384e-07 -1.87047e-06)
(-2.09052e-06 -1.14867e-06 -7.7654e-07)
(-2.42579e-06 -1.90865e-06 4.13647e-07)
(-3.60045e-06 -2.47385e-06 -6.04152e-07)
(-2.4234e-06 -1.53916e-06 -5.09834e-07)
(-1.17237e-06 -6.20023e-07 -3.64176e-07)
(-2.07659e-06 -1.61838e-06 3.85221e-07)
(-2.07493e-06 -1.27368e-06 -4.7559e-07)
(-2.47258e-06 -8.79693e-07 -1.93631e-06)
(-3.61456e-06 -2.31756e-06 -9.87232e-07)
(-2.4386e-06 -1.40597e-06 -8.32442e-07)
(-1.10559e-06 -1.0563e-06 1.22087e-06)
(-4.17292e-07 -3.88501e-07 6.85732e-07)
(-2.02618e-07 -1.83412e-07 2.23329e-07)
(-8.97027e-09 -1.71817e-08 2.9981e-08)
(-3.26415e-07 -3.00084e-07 5.36074e-07)
(-1.09053e-06 -1.018e-06 1.08892e-06)
(-3.40494e-07 -2.91586e-07 2.89608e-07)
(-3.98595e-07 -3.67495e-07 6.08489e-07)
(-1.19877e-08 -2.28297e-08 3.41965e-08)
(-3.45168e-07 -3.18696e-07 6.05027e-07)
(-1.28065e-06 -1.14837e-06 1.13132e-06)
(-2.35006e-06 -2.15218e-06 1.55286e-06)
(-2.55908e-06 -2.01666e-06 4.20281e-07)
(-3.88968e-06 -3.56101e-06 1.79466e-06)
(-2.50096e-06 -2.26587e-06 1.46217e-06)
(-1.25494e-06 -1.11627e-06 1.02802e-06)
(-2.20078e-06 -1.71715e-06 3.93093e-07)
(-2.32437e-06 -2.10244e-06 1.41109e-06)
(-3.91531e-06 -3.62964e-06 1.97532e-06)
(-2.52664e-06 -2.31806e-06 1.60911e-06)
(-1.23022e-06 -1.17617e-06 1.29299e-06)