/*--------------------------------*- C++ -*----------------------------------*\
| =========                 |                                                 |
| \\      /  F ield         | OpenFOAM: The Open Source CFD Toolbox           |
|  \\    /   O peration     | Version:  2012                                  |
|   \\  /    A nd           | Website:  www.openfoam.com                      |
|    \\/     M anipulation  |                                                 |
\*---------------------------------------------------------------------------*/
FoamFile
{
    version     2.0;
    format      ascii;
    class       volVectorField;
    location    "0.106/solid";
    object      sigmaMinDir;
}
// * * * * * * * * * * * * * * * * * * * * * * * * * * * * * * * * * * * * * //

dimensions      [1 -1 -2 0 0 0 0];


internalField   nonuniform List<vector> 
24998
(
(0.258027 0.688624 0.677657)
(-0.677617 0.716541 -0.165544)
(0.125809 -0.0118762 0.991983)
(0.0754909 -0.00517797 0.997133)
(0.135719 -0.196513 0.971063)
(0.0909745 0.995852 0.00131304)
(0.0647346 0.997893 -0.0043463)
(0.0533309 0.998552 -0.00705532)
(0.0402608 0.995316 0.0878962)
(0.343366 0.680577 0.647237)
(0.05065 0.0101129 0.998665)
(0.200821 0.979625 0.00233288)
(0.802115 -0.585309 0.118425)
(0.145918 -0.0101686 0.989244)
(0.097727 0.99521 0.00271994)
(0.065398 0.00725335 0.997833)
(0.0449187 -0.00078046 0.99899)
(0.075832 -0.000838479 0.99712)
(0.0445639 -0.00167746 0.999005)
(0.0808877 -0.0692596 0.994314)
(0.129852 -0.138075 0.981873)
(0.0841704 -0.109184 0.990451)
(0.193063 0.981186 -0.000149641)
(0.17728 0.984153 -0.0039453)
(0.0659777 0.997813 -0.00398808)
(0.176541 0.984284 -0.00426679)
(0.172092 0.985058 -0.00673314)
(0.0553245 0.998444 -0.00703013)
(0.171248 0.985204 -0.00685101)
(0.169427 0.983687 0.0604601)
(0.0302926 0.997881 0.0575894)
(0.179612 0.978405 0.102293)
(0.787651 0.577107 -0.215764)
(-0.506174 0.85972 -0.0683312)
(-0.00046566 0.462435 0.886653)
(0.0785056 0.158423 0.984245)
(0.169117 0.984172 0.052967)
(-0.00857159 -0.142101 0.989815)
(-0.184551 -0.0421669 0.981918)
(-0.0456321 -0.00671238 0.998936)
(0.0819147 -0.0053915 0.996625)
(-0.0250397 -0.000518467 0.999686)
(-0.0147538 -0.0027896 0.999887)
(0.0756952 0.00505851 0.997118)
(0.815039 -0.577201 -0.0505011)
(-0.172104 -0.29898 0.938611)
(-0.451435 0.887025 0.0969195)
(-0.285498 -0.0147667 0.958266)
(-0.551727 -0.095923 0.82849)
(0.0743365 0.997231 -0.00187215)
(0.834164 -0.549053 -0.0520683)
(0.826832 -0.560132 -0.0509884)
(-0.63866 -0.100802 0.762858)
(-0.684748 -0.118589 0.719066)
(0.0610614 0.998119 -0.00548139)
(0.835179 -0.546836 -0.0587085)
(0.838542 -0.542196 -0.0535839)
(0.713653 0.13885 -0.6866)
(0.71178 0.140644 -0.688178)
(0.043681 0.999045 -0.00133738)
(-0.163046 -0.138385 0.976865)
(0.798514 -0.594378 -0.0953384)
(-0.675637 -0.115817 0.728081)
(0.711966 -0.671405 -0.20572)
(0.850176 0.519116 -0.0878627)
(0.0732705 0.171418 0.98247)
(0.234132 0.970228 0.0619729)
(-0.220767 0.957794 0.184097)
(-0.209955 -0.0389793 0.976934)
(0.868733 -0.485907 -0.0959008)
(0.0628231 0.101413 0.992859)
(-0.209069 -0.00679253 0.977877)
(0.701318 -0.692187 -0.170383)
(0.224586 0.973811 0.0353994)
(-0.124441 0.459269 0.879538)
(0.0955361 -0.0778428 0.992378)
(0.0521048 0.099618 0.993661)
(0.0870926 -0.0910083 0.992034)
(0.218978 -0.0363981 0.975051)
(0.149095 0.988287 0.0325412)
(-0.187561 -0.0176349 0.982095)
(0.0485649 -0.00188499 0.998818)
(-0.142956 -0.00176033 0.989728)
(-0.0254423 -0.00379524 0.999669)
(-0.0434925 -0.00332168 0.999048)
(0.0480195 -0.00246374 0.998843)
(-0.136741 -0.00117961 0.990606)
(-0.141432 -0.000748578 0.989948)
(0.0808011 -0.00882944 0.996691)
(-0.136435 -0.000419989 0.990649)
(0.0445665 0.0016367 0.999005)
(-0.133792 -0.000995975 0.991009)
(-0.126107 -0.250165 0.959955)
(-0.014318 0.000110447 0.999897)
(0.04526 0.000487674 0.998975)
(-0.183673 -0.105927 0.977263)
(-0.133415 -0.000834699 0.99106)
(0.0759823 0.000706193 0.997109)
(0.139509 0.989069 0.0477556)
(-0.238409 -0.141521 0.960798)
(-0.332742 0.422024 0.843314)
(0.717543 0.169602 -0.67555)
(-0.403331 0.905389 0.132645)
(-0.406439 0.912787 0.0403468)
(0.772014 -0.618508 -0.146434)
(0.953665 0.298874 0.0346101)
(0.104802 -0.0548393 0.99298)
(-0.114813 -0.047107 0.99227)
(-0.562225 0.813968 0.146147)
(0.815769 -0.576179 -0.0503898)
(0.826171 -0.561118 -0.0508781)
(0.135394 0.989642 0.0477113)
(0.759585 0.159269 -0.630606)
(0.72505 0.162779 -0.669182)
(0.131579 0.990164 0.0475559)
(-0.407487 0.912326 0.0401876)
(-0.421909 0.905743 0.040289)
(0.955224 0.293921 0.0340161)
(-0.139811 -0.0442356 0.98919)
(-0.114967 -0.0455931 0.992322)
(0.961188 0.27409 0.0315143)
(0.056986 -0.0727882 0.995718)
(-0.0388766 -0.0173468 0.999093)
(-0.630608 -0.098759 0.769792)
(-0.563176 -0.0939469 0.820979)
(-0.0567973 -0.015432 0.998266)
(-0.0389639 -0.016585 0.999103)
(0.182649 0.983175 -0.0025334)
(0.180581 0.983555 -0.0031194)
(0.0717552 0.997419 -0.00255431)
(0.141155 0.988896 0.0464742)
(0.762735 0.161533 -0.626213)
(0.13095 0.990246 0.0475836)
(0.775928 0.182954 -0.603708)
(-0.431506 0.901188 0.0407695)
(-0.42228 0.905566 0.0403835)
(0.963683 0.26551 0.028614)
(-0.144985 -0.0448919 0.988415)
(0.961619 0.272591 0.0313497)
(-0.185052 -0.0545492 0.981214)
(0.834793 -0.54809 -0.0521333)
(0.838463 -0.542339 -0.0533799)
(0.140524 0.98899 0.0463857)
(0.774026 0.202038 -0.600054)
(0.776667 0.186067 -0.601803)
(0.14621 0.98828 0.0438674)
(-0.431788 0.901053 0.0407839)
(-0.437822 0.898171 0.0400068)
(0.964087 0.264081 0.0282353)
(-0.244845 -0.0772918 0.966477)
(-0.191439 -0.0566893 0.979866)
(0.966382 0.256211 0.0215004)
(-0.0604259 -0.015676 0.99805)
(-0.0883054 -0.0199898 0.995893)
(0.712223 0.137353 -0.688384)
(-0.689729 -0.121291 0.713837)
(-0.129537 -0.0314562 0.991075)
(-0.092712 -0.0210067 0.995471)
(0.174686 0.984611 -0.00517646)
(0.174092 0.984713 -0.00564542)
(0.0598268 0.998191 -0.00595789)
(0.132587 0.990266 0.0423633)
(0.772603 0.203029 -0.601551)
(0.145234 0.98843 0.0437363)
(0.75531 0.198956 -0.624438)
(-0.435378 0.899379 0.0395484)
(-0.43779 0.898187 0.0399941)
(0.966532 0.256433 0.00764108)
(-0.254267 -0.0811287 0.963725)
(0.96676 0.254837 0.0208029)
(-0.34276 -0.114562 0.932411)
(0.834766 -0.547383 -0.0594733)
(0.804016 -0.587776 -0.0898746)
(0.129003 0.990731 0.0425477)
(0.718095 0.168425 -0.675257)
(0.751775 0.196656 -0.629412)
(0.0444006 0.997284 0.0587655)
(-0.434252 0.899914 0.0397411)
(-0.39164 0.918621 0.0524769)
(0.966591 0.256245 0.00629005)
(-0.527938 -0.150412 0.835858)
(-0.359813 -0.120108 0.925262)
(0.934428 0.355581 -0.0201672)
(-0.136164 -0.0335083 0.990119)
(-0.203745 -0.0531843 0.977578)
(-0.682057 -0.120603 0.721286)
(0.709831 0.139492 -0.690422)
(-0.412617 -0.0826422 0.907148)
(-0.218435 -0.0568852 0.974192)
(0.16776 0.985826 -0.00180367)
(0.166519 0.986029 0.00427894)
(0.039025 0.999225 0.00519797)
(-0.0848147 -0.162853 0.982998)
(0.711774 0.162161 -0.683434)
(0.0320282 0.997551 0.0621784)
(0.743551 -0.638193 -0.199603)
(-0.210738 -0.0177252 0.977382)
(-0.384023 0.921644 0.0556644)
(-0.107459 -0.11345 0.987715)
(-0.560414 -0.149515 0.814605)
(0.925077 0.379113 -0.0224949)
(0.83762 -0.539203 -0.0874854)
(-0.463104 -0.0819602 0.882506)
(0.822947 -0.560635 -0.0919075)
(0.030183 0.982121 -0.185817)
(0.00248181 0.322178 0.946676)
(0.698359 -0.693513 -0.177014)
(0.45898 0.884858 -0.0797755)
(0.233658 0.669548 0.70506)
(0.17902 0.430909 0.88446)
(0.24154 0.925712 0.291058)
(0.0196718 0.954985 0.296001)
(0.397275 0.479625 0.782389)
(0.322387 0.910657 0.2584)
(0.347224 -0.0954799 0.932909)
(0.0931368 -0.02918 0.995226)
(0.349838 -0.0601883 0.934875)
(0.997448 -0.00233747 0.0713636)
(0.0747828 0.00209374 0.997198)
(0.99818 -0.00351307 0.0602064)
(0.700882 0.114581 0.704014)
(-0.263962 -0.508952 0.819324)
(-0.0395966 0.864502 0.501068)
(-0.0571879 0.998278 0.0130338)
(0.212848 0.977057 0.00749309)
(-0.133457 0.991011 -0.00933599)
(0.0843719 0.996432 0.00224286)
(0.10097 0.994657 0.0215115)
(-0.133455 0.991009 0.00948248)
(0.200523 0.97968 0.00414337)
(-0.115016 0.993364 -5.43309e-05)
(0.153743 0.9881 -0.00466626)
(-0.139039 0.990284 -0.00254136)
(0.0635191 0.99797 -0.00453367)
(-0.0782316 0.996933 0.00220901)
(-0.139359 0.99024 -0.00178987)
(0.150291 0.988628 -0.00512303)
(-0.170497 0.985292 0.0114123)
(0.120877 0.992642 -0.0071591)
(-0.143398 0.989658 -0.003619)
(0.0508409 0.998686 -0.00646928)
(-0.108876 0.994041 0.00528777)
(-0.145082 0.989415 -0.00295879)
(0.113554 0.993514 -0.00591503)
(0.00577344 0.979957 0.199125)
(0.000257685 0.995421 0.0955866)
(-0.129293 0.990148 0.053763)
(0.0782832 0.986432 0.144303)
(-0.295706 0.931342 0.212511)
(-0.0614101 0.998088 -0.00702354)
(0.0322965 0.989578 0.140332)
(0.249607 0.857349 0.450165)
(0.566384 0.586908 0.578575)
(0.247256 0.430433 0.868097)
(0.28203 0.914614 0.289724)
(-0.0856323 0.956081 0.280313)
(0.510134 0.355497 0.783189)
(0.501664 0.799559 0.330209)
(0.0671144 0.189479 0.979588)
(0.000753358 0.00718884 0.999974)
(0.00249535 0.0893104 0.996001)
(0.335653 0.941491 -0.0305381)
(0.209464 0.977747 0.0116216)
(0.429798 0.90292 0.00289992)
(-0.0395915 0.999107 -0.0147789)
(-0.0207771 0.999628 0.0176419)
(0.281432 0.959426 -0.017253)
(0.435985 0.899907 0.00919526)
(-0.602357 0.797645 -0.0304903)
(0.132625 0.79006 0.598511)
(-0.558378 0.547739 0.623054)
(0.159468 0.0241701 0.986907)
(0.297198 -0.130629 0.945838)
(0.236361 -0.0196224 0.971467)
(-0.03954 0.998838 0.0275624)
(0.108844 0.993981 0.0124435)
(0.214922 0.976547 0.0127886)
(-0.126457 0.991827 -0.0169561)
(0.0274041 0.999326 0.0244349)
(-0.102956 0.994459 0.0212537)
(0.227658 0.97363 0.0147063)
(0.000359844 -0.00767211 0.999971)
(0.0629651 -0.0181124 0.997851)
(0.0210437 -0.00629788 0.999759)
(0.0461127 -0.00227726 0.998934)
(0.00250008 -0.00124354 0.999996)
(0.00338618 -0.00150325 0.999993)
(0.0773142 -0.00693332 0.996983)
(0.997211 -0.00689551 0.0743181)
(0.994965 -0.00892146 0.0998279)
(0.00235765 -0.000845936 0.999997)
(0.0439738 0.000415909 0.999033)
(0.00218745 -0.000135744 0.999998)
(0.0558033 -0.00866768 0.998404)
(-0.0306849 -0.128621 0.991219)
(0.00673524 -0.0187413 0.999802)
(0.089328 -0.00615385 0.995983)
(0.787816 0.148818 0.597661)
(0.989403 0.0499256 0.136344)
(-0.0930573 -0.184893 0.978343)
(-0.265492 -0.331439 0.905352)
(-0.592416 -0.0268916 0.805183)
(0.273042 0.961889 -0.0147315)
(0.420341 0.907364 -0.00195623)
(-0.0454544 0.998919 -0.00970962)
(0.188327 0.982106 0.000278049)
(-0.0456642 0.998937 0.00634615)
(0.261791 0.965005 -0.0151833)
(0.417998 0.908441 -0.00365528)
(0.265071 0.96421 -0.00601019)
(0.178217 0.983985 -0.00339188)
(0.413093 0.910676 -0.00485691)
(-0.0500736 0.998741 -0.00303012)
(-0.0491075 0.998793 -0.00102305)
(0.261297 0.965225 -0.00808128)
(0.413725 0.910391 -0.00445455)
(-0.0710348 0.997465 0.00417312)
(0.0675246 0.997712 -0.00325801)
(0.157037 0.987585 -0.00395536)
(-0.138773 0.99032 -0.00282052)
(-0.104654 0.994509 0.000596811)
(-0.137711 0.990472 -0.000449721)
(0.160997 0.98695 -0.00315125)
(0.261026 0.965297 -0.00812781)
(0.412592 0.910902 -0.00512794)
(-0.0502554 0.998732 -0.00292048)
(0.175937 0.984392 -0.00437298)
(-0.0505556 0.998719 -0.00202686)
(0.261042 0.965307 -0.00630585)
(0.412521 0.910932 -0.00541113)
(0.25707 0.96636 -0.00797342)
(0.172836 0.98493 -0.00643029)
(0.412102 0.911103 -0.00793306)
(-0.053618 0.998554 -0.00389173)
(-0.0525458 0.998612 -0.00357566)
(0.255798 0.966671 -0.0107232)
(0.412124 0.911097 -0.0074393)
(-0.100994 0.994884 0.00244765)
(0.0570066 0.998351 -0.00675828)
(0.126549 0.991931 -0.00756137)
(-0.142873 0.989735 -0.0035554)
(-0.147846 0.989005 0.0031542)
(-0.141655 0.989911 -0.00324296)
(0.131399 0.991301 -0.00754823)
(0.253861 0.96719 -0.00987178)
(0.412186 0.911065 -0.00794412)
(-0.0539966 0.998533 -0.00412031)
(0.170256 0.985379 -0.00638889)
(-0.0554051 0.998457 -0.00368827)
(0.254726 0.966974 -0.00866403)
(0.412308 0.911013 -0.00754381)
(0.252173 0.964953 0.0726284)
(0.166239 0.985539 0.0328214)
(0.422032 0.902613 0.08473)
(-0.0467691 0.9982 0.037539)
(-0.055647 0.998341 0.0147593)
(0.199317 0.589332 0.782918)
(0.418593 0.907133 0.0434771)
(-0.221379 0.969762 0.102732)
(0.0303867 0.998975 0.0335414)
(0.0113976 0.997391 0.0712875)
(-0.137328 0.989364 0.0479512)
(-0.335225 0.919688 0.204444)
(-0.146972 0.988928 0.0204887)
(0.0291864 0.998494 0.0464634)
(-0.0194743 -0.00285031 0.999806)
(0.426489 0.890281 0.159709)
(-0.0402907 0.998339 0.0411768)
(0.213878 0.957629 0.192882)
(0.0150802 0.99915 -0.0383643)
(0.150123 0.385709 0.910325)
(0.41833 0.848437 0.324276)
(-0.324559 0.874679 -0.359998)
(0.891694 0.439194 0.109502)
(0.908643 -0.416138 -0.0345999)
(0.0128462 0.40211 0.915501)
(0.679279 -0.671536 -0.296006)
(0.78328 0.612663 0.105439)
(0.717649 -0.362032 -0.594906)
(0.943585 -0.324455 -0.0661566)
(0.0118544 0.604949 0.796176)
(-0.0228636 0.0632893 0.997733)
(0.388268 0.358475 0.848966)
(0.536984 0.836777 0.107012)
(0.13793 0.474388 0.869443)
(0.0303965 -0.063892 0.997494)
(0.131146 0.8584 0.495933)
(0.316332 0.432628 0.844255)
(0.316138 0.937865 -0.143063)
(0.197505 0.974509 0.106417)
(-0.122135 0.992508 0.00327651)
(0.327724 0.944201 0.0328857)
(-0.0710374 0.987006 0.144126)
(0.118992 0.992892 -0.00263374)
(0.361033 0.931741 0.0389137)
(-0.17904 0.983734 -0.0145478)
(-0.0756508 0.996796 0.0259921)
(-0.0312881 0.011868 0.99944)
(-0.0126801 -0.1014 0.994765)
(0.229643 0.240778 0.943022)
(0.618068 0.784888 0.0440817)
(0.602115 0.79796 0.0267722)
(-0.0877776 -0.021147 0.995916)
(-0.0795817 -0.0149222 0.996717)
(-0.0758221 -0.0758724 0.994231)
(-0.0980907 -0.0370358 0.994488)
(0.0958455 -0.0373677 0.994695)
(0.981159 -0.0435489 0.188232)
(0.49206 -0.159336 0.855855)
(0.7426 0.0737562 -0.665661)
(-0.156442 -0.088501 0.983714)
(-0.0206992 -0.00264593 0.999782)
(-0.0200262 0.000660758 0.999799)
(0.857801 0.0131517 -0.513814)
(0.867053 0.00225175 -0.498211)
(0.0747976 -0.00225425 0.997196)
(0.998187 0.00277037 0.0601209)
(0.998239 -0.00235099 0.0592694)
(0.866308 -0.0147574 -0.499292)
(0.867468 0.00489971 -0.497469)
(0.785723 -0.615887 -0.0576368)
(-0.579588 -0.248604 0.776063)
(0.824387 -0.563316 -0.0553316)
(0.714281 -0.0621822 -0.697091)
(-0.120552 -0.0299613 0.992255)
(-0.110458 -0.0293165 0.993448)
(-0.173621 0.0790186 0.981637)
(-0.197782 0.800549 0.565689)
(-0.367732 -0.506759 0.779724)
(-0.509374 -0.109921 0.853496)
(-0.167954 -0.0650034 0.983649)
(-0.118878 -0.0319468 0.992395)
(-0.121715 0.856846 0.500999)
(-0.128797 -0.0317283 0.991163)
(-0.514619 -0.117341 0.849352)
(-0.1176 -0.0318081 0.992551)
(-0.214251 -0.0254266 0.976448)
(-0.112434 -0.0294011 0.993224)
(-0.242505 0.809316 0.534975)
(0.566237 0.824117 0.0143753)
(0.551518 0.834075 0.0120825)
(-0.153559 0.988124 -0.00552325)
(-0.149446 0.988726 0.00927969)
(-0.0309319 0.999425 0.0138873)
(0.0783507 0.996926 0.000434332)
(-0.13645 0.990638 -0.00426701)
(0.176967 0.984216 0.000802599)
(-0.132608 0.991152 0.00573873)
(-0.0748217 0.997174 0.00677595)
(0.185442 0.982652 0.00247862)
(-0.151139 0.988509 -0.00279949)
(-0.147225 0.989087 0.00557461)
(0.53342 0.845825 0.00656193)
(0.54612 0.837688 0.00561029)
(0.831135 -0.553669 -0.051613)
(0.830611 -0.554466 -0.0515145)
(-0.204949 -0.0499968 0.977495)
(-0.183415 -0.043214 0.982085)
(-0.173191 -0.0384401 0.984138)
(-0.660691 -0.107864 0.742868)
(-0.192967 -0.0436919 0.980232)
(-0.162361 -0.0373463 0.986024)
(-0.180599 -0.0423803 0.982643)
(-0.21921 -0.051754 0.974304)
(-0.667305 -0.110421 0.736554)
(-0.196014 -0.0445707 0.979588)
(0.510152 0.860062 -0.00612934)
(0.504504 0.863406 -0.00229422)
(-0.152562 0.988293 -0.000907339)
(-0.152494 0.988304 -0.000274705)
(-0.0888313 0.996045 0.00173587)
(0.0622791 0.998046 -0.00497576)
(-0.140332 0.9901 -0.00291501)
(0.143397 0.989645 -0.00625873)
(-0.139576 0.990209 -0.00210294)
(-0.122549 0.992462 -0.000299012)
(0.146812 0.989148 -0.00567599)
(-0.153309 0.988178 -0.00101736)
(-0.152722 0.988269 -0.000448617)
(0.496063 0.868279 -0.00370109)
(0.502234 0.864698 -0.00763832)
(0.838029 -0.542806 -0.0554005)
(0.83838 -0.542303 -0.0550101)
(-0.353967 -0.0995286 0.929947)
(-0.3144 -0.0875816 0.945242)
(-0.291823 -0.0769568 0.953371)
(0.715402 0.141574 -0.68422)
(-0.328695 -0.0898422 0.940153)
(-0.273499 -0.0736566 0.959048)
(-0.308995 -0.0858002 0.947186)
(-0.374821 -0.104364 0.921204)
(0.715148 0.1418 -0.684439)
(-0.334266 -0.0917215 0.938005)
(0.468438 0.883457 -0.00833522)
(0.452813 0.891605 -2.88033e-05)
(-0.156113 0.987739 -0.000811305)
(-0.157487 0.987521 -0.000102788)
(-0.122725 0.99234 0.0141315)
(0.0476609 0.998852 -0.00486627)
(-0.147572 0.989051 0.000809056)
(0.0895288 0.995982 0.00191325)
(-0.14577 0.989315 -0.0025315)
(-0.20458 0.978273 0.0336121)
(0.103376 0.994637 -0.00330469)
(-0.159211 0.98724 0.00299196)
(-0.158233 0.987402 0.000403488)
(0.400995 0.915987 0.0130954)
(0.443269 0.896383 -0.00313139)
(0.714174 -0.67209 -0.195576)
(0.736776 -0.654155 -0.171005)
(-0.43886 0.790899 0.426475)
(-0.475001 -0.0598509 0.877947)
(-0.47364 -0.111115 0.873681)
(-0.652624 -0.0915079 0.752136)
(-0.50517 -0.071219 0.860076)
(-0.449987 -0.105979 0.886724)
(-0.473471 -0.0714627 0.877906)
(-0.490715 0.805447 0.332346)
(-0.644361 -0.074656 0.761069)
(-0.509086 -0.0568772 0.858834)
(0.0976758 0.990903 0.0925812)
(0.303878 0.943689 0.1308)
(-0.148097 0.98767 0.0507386)
(-0.0727032 0.997284 -0.011782)
(0.0170849 0.982379 0.186115)
(0.193436 0.947035 0.256333)
(-0.0125619 0.997739 -0.0660255)
(0.134872 0.975158 0.175718)
(-0.0164018 0.995886 -0.089119)
(0.369924 0.919211 0.134935)
(0.759631 0.513033 0.399696)
(0.898388 0.405343 0.169103)
(0.67998 0.116452 0.723924)
(0.615387 0.750656 0.240448)
(0.254905 0.439367 0.861382)
(0.192798 0.149901 0.969721)
(-0.0982609 0.88982 0.445606)
(0.418263 0.446922 0.79077)
(0.146915 0.928939 0.339837)
(0.244544 0.962218 0.119731)
(-0.0608676 0.998134 0.00483418)
(0.455754 0.886902 0.0754565)
(-0.0786122 0.98609 0.146445)
(0.21969 0.97222 0.0807749)
(0.466744 0.872317 0.145646)
(-0.181587 0.983307 -0.0115833)
(-0.260667 0.965364 0.0112221)
(0.760697 0.625271 0.17429)
(0.265111 0.262783 0.927718)
(0.63266 0.290315 0.717955)
(0.602785 0.794576 0.0727998)
(0.606552 0.783714 0.133743)
(-0.472563 0.0847358 0.877214)
(-0.57607 0.126599 0.807537)
(-0.5033 0.12479 0.855053)
(0.0381956 -0.0153235 0.999153)
(0.111627 0.195883 0.974253)
(0.0105767 0.0652841 0.997811)
(-0.0297716 0.00890987 0.999517)
(-0.337715 0.142463 0.930405)
(-0.0248257 0.0958204 0.995089)
(0.111238 0.280936 0.953258)
(-0.338972 0.0590812 0.93894)
(-0.0169435 0.0875025 0.99602)
(0.298535 0.953854 -0.032222)
(0.216695 0.975954 0.0235917)
(-0.0541892 0.998528 0.00247855)
(0.434162 0.899963 0.0396271)
(0.123909 0.991168 0.0472517)
(-0.023458 0.999205 0.0322356)
(0.431038 0.902159 0.0177539)
(0.581495 0.81354 0.00405545)
(0.584571 0.811329 0.00463484)
(-0.136577 0.990561 -0.0116386)
(-0.112237 0.993615 0.011477)
(-0.173411 0.984808 -0.00901361)
(-0.119028 0.992633 0.0226401)
(0.58902 0.806531 0.0506317)
(0.582239 0.812835 0.0172239)
(-0.670317 0.690633 0.271479)
(-0.0859698 0.0695666 0.993866)
(-0.416493 0.30651 0.855912)
(-0.139346 0.818431 0.557453)
(-0.237399 0.504288 0.830262)
(-0.0645361 0.0149868 0.997803)
(0.743805 0.267299 0.612622)
(-0.238392 0.245978 0.939502)
(0.0588339 0.0256448 0.997938)
(-0.00315515 0.00432854 0.999986)
(0.170069 0.0219605 0.985187)
(-0.012379 -0.113149 0.993501)
(0.116087 0.0136089 0.993146)
(-0.0333772 -0.0530696 0.998033)
(0.110533 0.0444241 0.992879)
(0.8101 0.137514 0.569937)
(-0.054644 0.998225 0.0236647)
(0.127744 0.991497 0.0247959)
(-0.122684 0.992419 0.00722112)
(0.307291 0.951296 0.0246785)
(0.265236 0.964181 0.00213373)
(-0.104685 0.993688 0.0403146)
(0.268519 0.963127 0.0168211)
(0.571612 0.820193 0.0232878)
(0.594301 0.803913 0.0230176)
(-0.144579 0.989405 -0.0132474)
(-0.117131 0.992972 0.0169664)
(-0.168251 0.985731 -0.00503772)
(-0.124128 0.991693 0.0337302)
(0.619274 0.784547 0.0313996)
(0.601527 0.798326 0.0289939)
(-0.0299705 -0.00768444 0.999521)
(-0.159206 -0.00725781 0.987219)
(-0.011319 -0.00590813 0.999918)
(0.057654 -0.0202251 0.998132)
(0.00612291 -0.00279969 0.999977)
(0.0160751 -0.0079852 0.999839)
(-0.152934 -0.00348336 0.98823)
(-0.0202652 -0.00192899 0.999793)
(-0.0128069 -0.00250934 0.999915)
(-0.0310129 -0.00155004 0.999518)
(-0.0319261 -0.00469519 0.999479)
(0.0466519 -0.00142258 0.99891)
(0.00553378 -0.00183068 0.999983)
(0.00381916 -0.00169826 0.999991)
(-0.0240898 -0.000932057 0.999709)
(-0.137978 -0.000592401 0.990435)
(-0.0232943 -0.00122487 0.999728)
(-0.0210903 -0.00115826 0.999777)
(-0.13856 -0.00126335 0.990353)
(-0.0228494 -0.00115499 0.999738)
(0.0777319 -0.0027879 0.99697)
(0.985562 -0.0294481 0.166733)
(0.994277 -0.0120119 0.106154)
(0.855378 0.013518 -0.517828)
(0.833247 0.0221721 -0.552456)
(0.770495 0.0501325 -0.635472)
(0.827175 0.0237731 -0.561442)
(-0.024169 -0.000914181 0.999707)
(-0.135465 -0.000701376 0.990782)
(-0.0241948 5.75756e-05 0.999707)
(0.0438647 -0.000511646 0.999037)
(0.00294821 0.000627784 0.999995)
(0.0022371 0.000436906 0.999997)
(-0.135068 4.26633e-05 0.990836)
(-0.0233295 0.000440174 0.999728)
(-0.0240997 0.000210563 0.99971)
(-0.0149662 -0.0272881 0.999516)
(-0.0129167 -0.0220314 0.999674)
(0.0513135 -0.00222702 0.99868)
(0.00349932 0.000502846 0.999994)
(0.0061503 -0.00849063 0.999945)
(-0.0664311 -0.120724 0.990461)
(-0.136438 -0.0188547 0.990469)
(-0.020952 -0.0201201 0.999578)
(-0.0227407 -0.000159174 0.999741)
(-0.133976 -0.0101102 0.990933)
(-0.0207526 -0.00932615 0.999741)
(0.0857611 0.00185652 0.996314)
(0.998041 0.00279987 0.0625029)
(0.992483 0.0443376 0.114067)
(-0.303252 0.0912987 0.948527)
(0.799566 -0.0576487 -0.597805)
(0.863482 -0.0132025 -0.504206)
(0.821432 -0.0544918 -0.567698)
(-0.185656 0.981184 0.053011)
(0.167482 0.984504 0.0519817)
(0.109488 0.993985 0.00231961)
(-0.134196 -0.162633 0.977518)
(-0.443728 -0.213439 0.870373)
(-0.657294 0.177423 0.732452)
(-0.397622 -0.275834 0.875107)
(-0.684946 -0.246511 0.685625)
(0.0360888 0.972563 0.229825)
(0.14316 0.989443 -0.022515)
(-0.682746 0.255919 0.684371)
(0.874633 0.434006 -0.216001)
(-0.688639 -0.225783 0.689056)
(0.293011 0.953744 -0.0672154)
(0.130057 0.990049 0.0537483)
(-0.629215 0.637669 0.444372)
(-0.0348659 0.975249 0.218343)
(0.0689559 0.99747 0.0173055)
(0.648354 -0.450523 -0.613731)
(-0.36443 0.930052 0.0468452)
(-0.382546 0.922785 0.0461077)
(0.984868 0.173258 0.00399287)
(0.918453 0.39303 0.0443974)
(0.93341 0.358746 0.00688597)
(-0.106959 -0.0797279 0.991062)
(0.350436 0.843186 0.407715)
(0.875152 0.480808 -0.054159)
(0.982446 0.179012 -0.0524861)
(-0.114623 -0.06208 0.991467)
(0.944142 0.325973 -0.0483492)
(0.903304 0.426523 0.0460433)
(0.104524 0.948355 0.299497)
(0.822641 0.568546 0.0041638)
(0.820932 -0.568806 -0.0502951)
(0.821808 -0.567534 -0.0503656)
(-0.353708 0.931742 0.0821445)
(0.129065 0.990495 0.0475505)
(-0.544185 0.830896 0.116078)
(0.747857 0.155198 -0.645464)
(0.964381 0.0760569 -0.253349)
(0.965804 0.0774901 -0.247424)
(0.937316 0.258724 -0.233454)
(0.743051 0.155179 -0.650995)
(0.965157 0.0907241 -0.24544)
(0.127808 0.990656 0.0476031)
(-0.61327 0.778907 0.131164)
(-0.567205 0.814683 0.120705)
(-0.416093 0.908449 0.0398454)
(-0.416531 0.908245 0.0399198)
(0.98888 0.14871 0.000890426)
(0.959543 0.279709 0.0322619)
(0.994526 0.103781 -0.0121305)
(-0.12569 -0.0433929 0.99112)
(0.981896 0.0934045 -0.164793)
(0.988307 0.110829 -0.104716)
(0.985823 0.157295 -0.0583975)
(-0.121795 -0.0435252 0.9916)
(0.988822 0.119056 -0.0897552)
(0.960102 0.277803 0.0320882)
(0.996798 0.0706136 -0.0375294)
(0.995459 0.0935559 -0.017559)
(-0.0262727 -0.0125532 0.999576)
(-0.0276206 -0.0122528 0.999543)
(-0.041288 -0.0288388 0.998731)
(-0.106193 -0.115505 0.987614)
(-0.0498533 -0.0169019 0.998614)
(-0.0472345 -0.0165428 0.998747)
(-0.0419957 -0.0234073 0.998844)
(-0.0471452 -0.0170445 0.998743)
(-0.112441 -0.0932629 0.989272)
(-0.030931 -0.011798 0.999452)
(-0.123145 -0.0302328 0.991928)
(-0.140836 -0.0327165 0.989492)
(-0.604252 -0.0941383 0.791213)
(-0.170541 -0.0378185 0.984625)
(-0.152557 -0.0342846 0.9877)
(-0.131459 -0.0318894 0.990809)
(-0.594679 -0.0932393 0.798538)
(-0.149994 -0.0338887 0.988106)
(-0.159916 -0.0367362 0.986447)
(-0.143236 -0.033145 0.989133)
(-0.0272671 -0.0124981 0.99955)
(-0.0348106 -0.0123296 0.999318)
(-0.0468325 -0.0152632 0.998786)
(-0.0685859 -0.0173633 0.997494)
(-0.0591178 -0.0164581 0.998115)
(-0.0484273 -0.0164645 0.998691)
(-0.0440392 -0.015402 0.998911)
(-0.0577709 -0.0163959 0.998195)
(-0.0431454 -0.0128252 0.998986)
(-0.0358633 -0.0123523 0.99928)
(0.579073 0.815256 -0.00558459)
(0.579025 0.815306 -0.00246936)
(-0.144178 0.989529 -0.00672548)
(-0.138892 0.990293 0.00534258)
(0.278902 0.960253 -0.0112838)
(0.185312 0.982679 -0.000827117)
(-0.0481062 0.998832 -0.00443504)
(0.416397 0.909175 -0.00384579)
(-0.0449316 0.998983 0.00368697)
(0.265993 0.963926 -0.00968598)
(0.418349 0.90828 -0.00328776)
(-0.140373 0.990094 -0.00290543)
(-0.136627 0.990618 0.00299873)
(0.579249 0.815149 -0.00142736)
(0.57978 0.814719 -0.00937752)
(0.265306 0.964129 -0.00822634)
(0.179252 0.983799 -0.00301206)
(-0.0490128 0.998792 -0.00361862)
(0.414225 0.910164 -0.00448708)
(0.263392 0.964657 -0.00783043)
(-0.0490758 0.998795 -0.000231022)
(0.413781 0.910364 -0.00465143)
(0.579295 0.815116 -0.00163012)
(0.579274 0.815086 -0.00878171)
(-0.14096 0.990014 -0.00148406)
(-0.140032 0.990147 -9.76378e-05)
(-0.141568 0.989926 -0.00207347)
(-0.140364 0.9901 0.00057278)
(0.578741 0.815465 -0.00870079)
(0.579123 0.815238 -0.00179163)
(-0.0982095 0.995162 0.00259925)
(0.0695259 0.997577 -0.002602)
(-0.137621 0.99048 -0.00302557)
(0.172129 0.985074 -0.00106659)
(-0.0396568 0.999186 0.00744544)
(-0.137684 0.990476 0.000491732)
(0.166484 0.986042 -0.00227267)
(0.512349 0.858777 -0.000618785)
(0.518948 0.854798 -0.00375804)
(-0.152317 0.988331 -0.00129269)
(-0.151417 0.98847 0.000643713)
(-0.152569 0.988292 -0.00140936)
(-0.151605 0.98844 0.00145667)
(0.530014 0.847989 9.2846e-05)
(0.521764 0.853088 0.00190707)
(0.135775 0.989614 0.0472153)
(0.82065 -0.541944 -0.18119)
(0.708897 -0.688228 -0.154297)
(0.963338 0.0818699 -0.255494)
(0.770213 0.169953 -0.614725)
(0.958822 0.108071 -0.262641)
(0.135971 0.989585 0.0472572)
(-0.627562 0.766834 0.134652)
(-0.682699 0.715545 0.148045)
(0.950314 0.1467 -0.27456)
(0.772093 0.173076 -0.611487)
(0.957003 0.117219 -0.265339)
(-0.427316 0.903184 0.0407403)
(-0.427111 0.903284 0.0406657)
(0.962859 0.268312 0.0301949)
(0.990487 0.0420433 -0.131029)
(0.995073 0.0468581 -0.0873713)
(0.977592 0.0895375 -0.190517)
(-0.161329 -0.0479308 0.985736)
(0.954204 0.0842567 -0.287047)
(0.96251 0.269533 0.0304299)
(0.996873 0.0645227 -0.0456246)
(0.995895 0.0501375 -0.0753674)
(0.887942 0.0921557 -0.450628)
(-0.167028 -0.0493006 0.984719)
(0.94181 0.0844897 -0.325355)
(0.836886 -0.544848 -0.0525539)
(0.83734 -0.544141 -0.0526509)
(0.863518 -0.466326 -0.192035)
(0.144909 0.98841 0.0452395)
(0.952093 -0.212713 -0.219709)
(0.776757 0.196847 -0.598247)
(0.932305 0.180731 -0.313279)
(0.939258 0.17399 -0.295842)
(0.948048 0.154488 -0.278097)
(0.777143 0.194468 -0.598524)
(0.941608 0.169561 -0.290902)
(0.144207 0.988519 0.04511)
(0.969944 -0.00313081 -0.243307)
(0.963429 -0.143546 -0.226272)
(-0.435388 0.899333 0.0404718)
(-0.435485 0.899286 0.0404659)
(0.988016 0.0418973 -0.148555)
(0.965216 0.260195 0.0256411)
(0.976412 0.0471599 -0.210702)
(-0.219674 -0.0671812 0.973257)
(0.710611 0.128445 -0.691762)
(0.768601 0.114158 -0.62946)
(0.865132 0.095988 -0.492273)
(-0.212139 -0.0642443 0.975126)
(0.79186 0.109271 -0.600847)
(0.965615 0.258758 0.0251262)
(0.946429 0.0715535 -0.314884)
(0.970702 0.0514647 -0.234711)
(-0.0622511 -0.0162643 0.997928)
(-0.0531998 -0.0143311 0.998481)
(-0.0699715 -0.0175634 0.997394)
(-0.0718381 -0.0169558 0.997272)
(-0.0802568 -0.0194663 0.996584)
(-0.0441992 -0.0129447 0.998939)
(-0.0520067 -0.0141132 0.998547)
(-0.0938419 -0.0227866 0.995326)
(-0.0758098 -0.0175676 0.996968)
(-0.0818328 -0.0198101 0.996449)
(-0.208328 -0.0510953 0.976724)
(-0.234116 -0.0598318 0.970366)
(0.705234 0.131518 -0.696669)
(-0.28687 -0.0752032 0.955013)
(-0.254608 -0.0637305 0.964942)
(-0.222832 -0.0529214 0.973419)
(0.702034 0.129127 -0.700339)
(-0.25034 -0.0622351 0.966156)
(-0.268767 -0.0720041 0.96051)
(-0.238136 -0.0612305 0.9693)
(-0.0636599 -0.0166045 0.997834)
(-0.0746889 -0.0194649 0.997017)
(-0.112126 -0.0262044 0.993348)
(-0.131326 -0.0343178 0.990745)
(-0.112736 -0.0283195 0.993221)
(-0.0957216 -0.0232982 0.995135)
(-0.106945 -0.0247228 0.993957)
(-0.110397 -0.0275896 0.993505)
(-0.0904236 -0.0240878 0.995612)
(-0.0764423 -0.0199642 0.996874)
(0.579187 0.815146 -0.00886352)
(0.579603 0.814896 -0.00210782)
(-0.141158 0.989986 -0.0013546)
(-0.141017 0.990007 -0.000581666)
(0.260627 0.96542 -0.00615562)
(0.175317 0.984501 -0.00473125)
(-0.0514445 0.998671 -0.00310889)
(0.412225 0.911061 -0.00611898)
(-0.0507304 0.99871 -0.00239192)
(0.258674 0.965923 -0.00896617)
(0.412459 0.910959 -0.00555112)
(-0.141589 0.989925 -0.00125049)
(-0.141064 0.99 -0.000865704)
(0.579944 0.814652 -0.00277535)
(0.579633 0.814824 -0.00933612)
(0.257509 0.966226 -0.00982612)
(0.173497 0.984816 -0.00600264)
(-0.0516204 0.998661 -0.00329801)
(0.412104 0.911113 -0.00653667)
(0.258338 0.966028 -0.00720166)
(-0.0522766 0.998627 -0.00326967)
(0.412097 0.911112 -0.00710257)
(0.581096 0.813822 -0.00454811)
(0.580496 0.814187 -0.0111467)
(-0.143055 0.989714 -0.00140987)
(-0.142262 0.989828 -0.00135315)
(-0.141715 0.989907 -0.00135386)
(-0.142072 0.989856 -0.00115511)
(0.579925 0.814607 -0.0101521)
(0.580472 0.814272 -0.00375799)
(-0.133551 0.991042 0.000540376)
(0.058491 0.998268 -0.00634045)
(-0.140577 0.990065 -0.00297696)
(0.139766 0.990161 -0.00683865)
(-0.0945127 0.995523 0.00150622)
(-0.141294 0.989963 -0.00304462)
(0.135779 0.990713 -0.00722383)
(0.472715 0.881207 -0.00395118)
(0.482379 0.875909 -0.00967652)
(-0.155511 0.987834 -0.000935031)
(-0.15444 0.988002 -0.00086573)
(-0.15354 0.988142 -0.000921318)
(-0.154015 0.988068 -0.00084777)
(0.493445 0.86973 -0.00903496)
(0.485763 0.874079 -0.00461195)