/*--------------------------------*- C++ -*----------------------------------*\
| =========                 |                                                 |
| \\      /  F ield         | OpenFOAM: The Open Source CFD Toolbox           |
|  \\    /   O peration     | Version:  2012                                  |
|   \\  /    A nd           | Website:  www.openfoam.com                      |
|    \\/     M anipulation  |                                                 |
\*---------------------------------------------------------------------------*/
FoamFile
{
    version     2.0;
    format      ascii;
    class       volScalarField;
    location    "0.106/solid";
    object      sigmaEq;
}
// * * * * * * * * * * * * * * * * * * * * * * * * * * * * * * * * * * * * * //

dimensions      [1 -1 -2 0 0 0 0];


internalField   nonuniform List<scalar> 
24998
(
283.912
15.5395
219.148
154.331
242.422
797.19
774.195
742.502
669.527
317.035
207.69
1004.49
26.3114
224.929
814.573
217.516
167.179
154.777
166.342
239.439
220.385
300.081
986.173
956.522
777.378
952.529
921.546
748.457
914.617
833.23
686.41
803.071
161.024
849.344
187.116
437.063
778.015
211.332
297.107
202.693
166.506
194.493
192.101
154.378
341324
279.724
242988
38264.7
93107.7
789.2
187691
258829
81370.8
73025.4
765.491
57035.2
112861
60043.4
45977.4
719.488
258.59
13125.1
22912.4
3230.91
188.48
421.023
957.611
386.707
314.378
805.565
300.553
329.156
327.416
985.03
160.386
201.775
309.864
149.122
169.081
794.997
310.803
176.478
246.15
194.819
201.999
176.127
240.749
245.577
165.744
240.004
166.46
238.847
244.716
192.141
167.794
309.525
239.215
154.886
342661
392.996
25239.8
81742
177501
308999
329463
286844
97120
95078.1
349564
336552
263657
338022
77959.4
81573.1
267187
304188
232018
282153
83184.4
93387.6
212529
155811
156770
82604.4
91963.3
130704
153167
972.378
966.446
784.478
192426
77297.8
262464
71125.5
159494
227308
143699
81705.6
208028
69562.5
183073
116987
187832
59701.9
69969
121492
155197
95641.5
139676
51201
67521.1
84581.9
127532
103488
61743.8
71779.5
71665.6
99742.9
941.747
937.382
761.873
60170.1
57912.4
117304
43379.4
44721.7
92035.9
38851
48643.1
81300.9
30416.9
53804.3
14968.6
56833
23617.9
41055.7
16529.6
42056
10703.5
36499.9
12822.1
27913.4
9128.72
67478.8
38692.2
25665.4
43655.5
12790.3
34859.1
887.153
875.84
710.716
201.27
21027.7
14604.7
3119.72
294.226
9245.72
175.68
11104.8
7871.95
3423.84
10565.3
3468.33
63.625
336.749
239.483
299.862
262.279
521.625
503.313
587.752
335.573
453.403
37.6142
205.433
36.554
34.9842
152.496
36.5147
25.1283
1733.01
178.456
238.618
461.497
842.395
792.048
250.15
848.686
454.801
219.173
433.335
836.863
771.427
223.312
834.118
430.974
192.986
408.112
811.213
735.653
204.128
801.479
402.75
115.987
376.093
706.17
620.197
149.65
600.615
360.015
266.25
291.898
555.538
585.298
707.996
351.306
611.016
259.886
333.123
295.978
243.376
1014.05
967.411
968.827
993.449
232.658
980.723
76.4123
80.5216
94.1699
296.967
51.7063
161.276
253.625
826.201
467.678
860.907
248.066
894.581
476.313
324.664
218.591
295.778
170.742
268.091
271.562
159.164
34.7441
32.0802
267.298
164.85
266.1
183.261
361.419
288.96
168.248
21.4735
29.4715
454.987
1545.46
3335.79
226.205
942.978
951.397
978.103
952.449
230.336
930.961
222.117
960.013
901.179
939.516
944.421
220.653
905.17
227.121
780.14
435.735
838.728
222.742
843.223
438.085
218.817
896.829
937.438
949.003
934.06
220.253
893.264
213.453
927.521
867.549
911.733
919.167
209.675
872.945
211.112
753.572
412.737
813.894
203.779
820.764
416.712
201.895
861.408
908.841
906.614
898.341
208.85
854.39
159.419
850.328
803.762
803.834
843.657
185.938
811.417
156.044
694.594
377.941
722.512
148.412
753.805
376.668
527.083
798.036
783.629
746.406
668.395
205.51
808.834
87.2447
288.009
341.505
275.456
541.422
402.122
13138.7
755.217
146.101
533.817
400.928
438.608
427.449
444.562
721.471
466.677
331.525
705.612
764.243
524.687
678.381
265.297
543.061
510.102
484.389
543.039
405.558
538.416
434.644
457.298
214.175
211.596
40.6533
41.3648
197.149
28.3855
28.5886
20.3634
34.4713
192.727
192.61
28.7306
30.1337
152.517
36.4576
36.6003
30.3189
30.2279
372647
2428.89
380218
3326.38
245491
266905
26.299
172.634
3193.43
88191.3
183299
247669
333.816
225971
91831.1
246242
200413
268534
344.959
342.062
327.058
572.785
575.602
238.773
792.42
847.569
446.235
854.987
231.597
449.645
570.072
577.562
312.67
322.134
220528
225275
130150
153669
168079
77795.3
145346
182287
157156
120869
76616.2
142190
294.318
288.788
559.963
557.381
219.751
768.699
829.051
426.084
833.32
215.493
428.63
552.749
556.446
281.353
287.161
81518
85254.7
47785.8
62045.6
75950
54490.8
60620.8
80907.7
64251
45357.8
52475.4
58584.4
260.211
250.154
535.39
524.791
192.962
727.932
784.085
389.993
797.738
176.075
396.639
502.088
520.142
229.48
246.233
2513.27
3404.83
3276.57
9977.08
19656.4
14654.2
10821.3
20482.2
11249.8
3449.42
11920.3
9602.01
192.671
178.957
379.069
310.024
98.667
614.16
554.17
298.868
293.279
184.146
128.103
274.888
323.196
914.825
484.13
229.341
740.921
298.654
234.161
844.708
889.745
1024.06
802.227
255.025
918.896
603.637
600.97
302.247
173.45
244.784
1286.25
1087.81
403.438
13097.4
412.413
571.349
212.263
301.633
351.995
296.887
288.586
172.004
411.521
261.752
240.952
1001.02
883.296
993.791
251.034
965.678
975.013
1108.66
1145.62
667.856
682.703
606.897
667.358
1217.93
1152.13
59.6528
446.22
128.145
80.9594
102.733
462.795
192.492
150.923
314.494
268.805
178.198
53.1943
162.752
227.753
162.814
227.308
254.231
813.822
762.912
510.593
272.616
865.224
493.504
343.541
362.853
582.29
602.617
517.791
586.994
431.87
379.007
347.276
250.039
294.692
196.368
278.108
291.519
247.719
291.827
295.5
197.835
198.302
172.148
276.783
272.853
285.152
243.105
287.992
291.167
243.877
288.873
159.885
28.9049
31.608
28.3877
25.9304
21.4622
25.3349
284.419
238.676
283.348
164.853
268.496
266.293
238.559
285.671
283.579
194.308
193.82
176.988
270.164
281.206
375.075
248.507
305.354
287.128
244.08
297.759
165.618
36.0584
31.1038
20.8912
23.7774
29.9348
25.5206
225112
373737
236623
460.178
2144.77
3274.53
3005.14
74279.5
97830
187894
6598.48
182252
78281
188643
381138
6268.81
136651
237589
7493.92
341616
348069
100287
319956
116999
101168
68898.3
64334.3
50585.6
100461
61605.2
325846
122178
122014
302562
297684
220508
305060
206191
79724.9
155146
165766
179161
80255.7
169200
300315
186512
201335
270281
265445
95095
249298
80725.2
87441.7
27091.7
34697.6
47053.7
88855.3
37536.8
244646
63567.9
76252.5
301274
333258
170983
256105
301692
270211
168182
298312
301072
337569
241878
215834
86488.3
171406
195093
222576
87854.9
198520
185964
212077
296920
267637
140074
210428
235965
266250
143219
239658
235192
263551
1090.69
1064.97
658.926
659.465
226.571
976.6
950.442
920.936
957.637
224.134
927.366
654.184
660.993
1047.45
1062.12
222.156
962.625
946.069
912.981
223.48
944.156
908.216
1023.05
1030.61
645.325
649.265
651.456
649.664
1042.06
1032.47
226.536
781.892
843.268
443.331
232.372
842.682
440.544
295.865
301.654
561.422
565.31
567.157
565.609
310.908
303.719
224896
144614
160756
151488
75019.5
140105
229574
181473
166022
123927
74146.2
136168
190408
194940
172871
35580.6
44937.6
24879.2
76933.1
19408.3
177165
59577.2
48382.4
15347.8
75206.7
18028.7
151385
146970
139126
156185
122425
64588.2
88698.3
102234
119703
66054.4
106679
151748
99879.4
116799
126208
122224
32814.5
112664
25649.3
58588.8
15021.5
14665.6
14915.7
60930.5
14581.6
108986
18813.9
23651.4
171016
198969
206806
117669
181559
231159
202982
153019
114242
177971
126933
105477
66398.4
78293.8
95773
117946
67823.3
98420.5
83462.4
102574
167051
139621
84037
98283.4
121680
149488
88064.2
125104
109324
135761
1020.6
1014.48
643.842
641.118
218.583
945.625
928.374
886.129
933.116
216.816
889.947
636.314
640.143
1006.34
1012.73
213.965
932.697
926.544
881.967
216.398
921.126
877.644
986.836
995.192
621.579
628.308
634.779
630.171
1004.3
997.457
210.626
757.959
827.421
423.255
216.004
822.556
420.155
262.623
270.469
538.249
544.898
551.257
546.758
279.498
272.635
85342
56700.5
72271.2
84152
52091.8
70561.4
89169.4
94263.3
77669.3
53034.1
50008.5
66088.8
65148
68313
57026
12249.7
13996
15093.3
40809.3
14984.1
59859.7
17562.1
14711
13892.4
38181.3
14814.9
33265.1
30658.6
51773.8
35569.1
38000
31297.3
23011.3
33258.2
48849.4
33798.8
36962.7
32860.7
22450.6
33791.2
25338.7
23235.3
11732.7
21831.7
10151
18665.7
8719.62
11080.8
13450
20838.8
11759.8
20000.8
7558.43
9571.36
55139.5
77472.4
95038.2
54904.9
73193.8
105649
80857.5
50617.4
50757.5
70217.7
45910.6
33810
33709.2
20973.3
30784
43611
36294.2
32281.8
21864.6
32220.3
52171.2
33245.3
21011
16598.9
29339.5
48016.9
24208
31450.4
16339.4
30832.6
983.993
973.49
618.709
608.069
200.429
897.46
879.357
837.742
894.311
186.883
846.517
585.234
603.417
957.766
969.961
162.08
863.649
873.612
828.648
184.292
852.157
819.474
944.138
942.641
461.361
526.89
577.055
542.943
954.203
944.2
156.073
702.238
778.929
383.515
175.54
760.701
378.519
195.144
202.979
399.929
451.401
494.148
464.03
224.117
206.271
3356.75
2296.8
7876.71
19894.9
13327.2
11441.5
4331.46
19111.7
10378.1
2448.35
10803.5
8919.06
1144.58
1765
933.054
2516.19
3112.2
7821.35
6502.91
4798.25
1459.38
6776.54
4078.03
2730.94
5078.46
3720.73
2126.55
4670.97
15085.5
5493.4
6622.7
14638.9
5563.03
2523.96
4259.47
5689.82
949.539
1005.49
434.903
355.202
601.624
697.469
625.783
1018.79
342.197
1069.77
283.568
255.704
60.4875
33.5727
182.202
219.823
192.987
123.088
153.751
122.002
178.334
414.996
237.818
204.816
288.782
283.724
92.4001
39.4122
30.5014
96.6871
248.09
179.788
195.856
282.146
226.676
274.951
168.258
231.688
232.851
157.01
123.491
125.007
230.833
165.717
230.188
209.56
312.27
278.154
187.428
167.748
147.833
388.625
436.59
608.965
188.94
131.788
233.236
307.575
249.042
197.309
212.096
1559.6
797.725
744.221
1930.49
460.321
2679.65
1629.14
316.778
158.282
340.105
289.204
374.723
309.677
246.175
753.954
669.579
572.468
441.035
557.501
494.047
568.808
515.303
162.273
338.538
265.633
346.102
231.618
428.295
152.477
244.1
87.1376
205.591
43.4171
45.8562
169.941
134.293
137.59
37.8187
193.905
37.0536
192.633
36.3894
36.2081
153.716
122.614
121.612
355215
119.942
603.501
362.521
370078
17522
9343.3
362098
375905
44962.9
64312.2
75477.6
136110
12448.8
136457
93797.1
142033
369293
415119
201668
244389
196793
211788
103452
80165.5
98224.8
274022
258207
78925
74246.3
83425.7
67150.7
100740
62304.6
72334.1
56516
58273.9
53063.4
118455
106095
39705.9
48217.2
42988.6
328.052
8248.31
1635.1
3090.19
20320.2
20156.4
16718.1
19003.5
13945.3
3422.68
6151.4
5731.75
501.944
585.219
719.039
384.939
315.351
184.468
283.947
333.795
304.799
299.923
456.524
561.662
656.21
558.265
368.731
515.712
402.266
488.332
203.897
472.026
400.539
208.155
381.722
182.947
251.732
184.201
357.259
346.237
1778.05
808.816
1673.23
703.665
2443.23
725.03
1416.9
361.144
327.223
344.398
188.26
541.334
168.506
314.027
159.544
527.415
172.834
156.981
108.805
282.514
265.783
323.323
191.589
119.767
275.76
162.071
288.314
208.638
307.302
177.762
266.693
97.945
144.465
168.113
123.998
201.926
121.372
116.559
129.955
146.03
186.693
147.628
183.352
112.279
173.243
356.437
282.463
330.15
176.908
241.606
242.325
246.837
303.448
302.649
37.8994
196.311
37.9979
42.872
200.502
40.5749
175.144
241.249
240.233
301.155
241.602
301.889
304.048
245.135
304.262
163.711
133.535
131.182
300.402
239.493
299.737
165.667
231.491
230.562
238.745
300.669
300.022
84.7417
202.664
41.3518
36.4243
192.846
36.2419
169.877
233.073
235.43
376.814
273.104
341.565
301.568
240.114
303.007
158.501
123.157
125.586
271803
356209
284391
450.018
591.007
649.145
77306.4
66617.6
30907.4
58495.1
33428
103375
81515.4
103491
391058
83254.3
196574
272858
65590.7
323140
336838
221523
300845
232707
109591
54041.4
59608.1
49201.1
96858.3
49319.6
330480
225181
254296
322069
278205
269431
323984
257014
78580.7
96443.8
97568.6
102903
81211.6
102227
281367
212812
225013
289684
246248
216978
268048
206358
84624.9
49449.5
49471
49151.4
91802.9
49172.5
226182
163097
173090
367310
381980
177547
178253
204319
182613
160537
190641
436899
433970
357293
342379
83863.3
105302
110757
134389
90637.2
128345
279318
295241
362336
347111
133841
144623
151422
180032
149727
172424
283670
299666
206277
154561
166324
95249.9
76590.9
93980.4
248340
210265
198147
84638.3
72205.9
86412.4
172560
213310
155996
110195
119157
49370.5
80176.8
49225.8
194647
159083
149291
46557.8
71523.5
47241.2
169341
129620
151856
174155
140287
61411.2
67374.9
69809.1
82769.4
68743.1
80819.6
134271
99058.9
109754
142545
106751
106715
127843
98114.3
53717.5
37584.5
39019.1
45774
65399.7
44888.2
94744
65440
72711.4
200265
215501
142407
124308
135633
278346
262422
108493
107154
115337
191861
177276
63362.3
57733.9
61332
77410
70507.3
73170.8
122686
135698
195244
180362
75829.4
72440.4
79112.5
106247
95922
99401.4
124264
137704
70590.3
50908.6
59502.9
64876.3
56046.8
62314.3
104982
96380.3
86105.3
46018.3
45648.3
48812.8
53100.6
81542.7
46279.5
31528.7
36679.5
36078
46051.7
34507.7
71777.3
62637.4
55868.7
24265.6
32972.3
26017.4
44535.9
21118.8
48625.2
47252.6
40746.1
26198.4
23597.7
26359.2
43212.1
38681.9
40394.1
22941.5
16435.5
21754.6
34474.4
15593.7
29525.1
29825.4
24933.4
14653.5
11346.5
12790.4
22522.5
25474.2
20799.5
13361.3
9823.24
12758.9
61302.2
71825.8
70265.9
63281
63745.1
119884
107061
39582.9
42632.9
45288.1
59107.5
49976.4
28384.4
21509.5
25041.7
38588.4
41271.1
35281
20865.7
26986.7
57944.1
48343.2
15282.8
15125.6
18848
37762.8
31154.1
32468
17780.4
24152.9
696.928
1137.32
2029.82
20869.6
18442.1
18179
9492.17
15034.9
10658.6
2823.59
5385.91
5128.6
392.218
5425.37
250.969
1165.74
1205.48
9952.49
9491.9
8601.54
4585.52
8745.32
6338.35
3250.42
2747.17
2585.68
1296.71
1553.1
13986.6
8613.62
10814.9
15858.1
10719.3
3144.74
2628.95
3075.1
920.654
662.133
768.661
1043.34
196.208
204.666
101.86
110.35
119.968
150.743
174.797
253.767
349.426
219.905
274.556
253.623
210.974
261.76
132.785
138.682
140.677
202.836
123.769
534.292
494.741
1019.24
419.786
562.297
607.678
514.536
400.987
888.054
280.212
344.253
409.532
478.118
350.345
149.792
151.889
27.3059
155.407
219.373
174.521
191.431
31.1152
138.664
154.188
88.4519
36.0537
87.3043
153.515
121.27
121.761
36.155
86.8191
87.1207
132.789
39.5821
171.003
587.381
547.205
275.305
44.5014
256.557
188.724
497.809
246.023
416.331
302.297
303.494
411.736
500.445
497.04
245.49
307.15
411.31
501.482
305.382
408.638
493.153
221.534
403.495
289.863
290.433
403.946
492.727
493.868
220.989
291.771
405.348
494.497
291.3
404.628
473.603
199.206
379.005
269.757
271.799
381.668
471.524
475.979
199.032
275.653
386.615
477.706
274.2
384.501
416.029
146.084
267.803
222.651
241.445
294.284
381.468
434.498
146.618
248.943
322.286
442.852
249.591
313.011
708.888
682.082
362
702.924
632.646
677.069
782.382
501.155
274.307
376.396
414.795
461.522
519.314
422.199
212.474
288.576
277.478
315.705
327.991
310.905
297.26
312.853
299.848
980.48
696.413
241.258
754.586
974.033
761.351
702.758
974.496
237.91
740.15
688.165
961.636
752.502
699.013
129.253
63.8882
111.6
114.645
87.5585
110.928
263.666
125.126
100.166
80.7093
68.7842
101.979
110.483
68.4205
101.464
83.7633
60.026
93.4518
108.737
253.879
234.19
203.496
150.14
110.696
154.554
194.325
119.934
158.525
530.171
246.652
452.618
317.287
530.811
314.73
451.473
522.773
248.653
309.984
422.17
510.657
312.348
437.857
305.938
309.679
294.154
230.177
282.264
285.486
300.353
297.223
297.603
169.464
235.571
234.161
252.638
269.304
253.927
256.476
270.488
255.222
157.588
127.507
125.577
88.76
33.8487
89.9386
92.2327
33.5502
90.3844
251.787
266.847
251.29
165.188
229.36
229.662
266.427
250.446
250.819
193.161
250.082
260.691
343.433
320.784
303.976
272.99
300.943
284.671
181.567
134.125
143.542
124.723
22.7772
108.269
97.2264
24.4954
104.898
435.924
741.092
718.278
723.852
2908.13
1087.34
1351.29
3414.71
1321.03
934.978
670.875
225.922
714.053
710.317
667.933
937.061
938.12
226.013
721.412
676.681
947.192
712.563
669.203
921.325
662.929
220.878
700.58
922.466
698.676
661.912
919.198
220.483
695.952
659.532
917.719
696.445
660.517
497.355
224.417
409.597
294.729
497.636
294.313
409.103
496.483
225.027
292.72
406.575
495.557
293.433
407.814
911.814
655.115
218.352
690.681
689.951
655.14
911.357
913.559
218.638
693.686
657.844
915.323
691.234
656.178
892.981
643.826
211.255
678.092
895.056
675.488
641.837
889.905
210.468
672.651
638.343
888.203
672.993
639.651
482.915
207.557
393.867
281.569
484.061
280.638
392.49
481.182
207.969
277.623
388.861
479.731
278.933
390.578
877.984
627.693
204.3
663.21
664.07
629.964
875.527
882.059
205.605
670.382
635.964
884.825
667.325
633.186
824.685
572.728
157.027
638.047
831.171
636.165
561.464
816.111
156.919
635.983
534.41
807.989
634.225
547.415
447.41
149.772
339.905
244.801
449.279
243.657
335.524
447.277
150.774
246.213
327.739
445.446
245.059
331.171
769.35
514.443
346.912
731.697
689.61
503.027
766.46
787.011
303.79
648.208
521.548
797.251
662.294
510.613
174.338
110.099
139.07
114.972
120.308
172.399
188.47
206.969
244.629
251.852
346.066
353.81
232.578
241.674
195.411
411.663
192.778
376.426
140.923
376.035
232.147
393.411
246.715
351.24
5228.17
8004.23
585.334
308.298
1569.2
227.461
3620.11
1118.22
565.18
279.455
621.407
441.62
396.122
1015.97
2414.65
4601.51
29381.8
6638.08
8009.2
6200.97
4047.87
1500
600.479
760.268
2071.04
483.669
3189.48
1652.51
350.293
599.995
1055.18
117.306
188.455
211.357
458.736
198.528
270.514
443.789
461.476
524.306
576.07
639.556
419.843
465.124
1030.81
1094.81
249.471
517.583
429.833
658.658
353.689
331.645
274.55
834.093
384.835
724.659
1016.02
676.687
939.819
354.285
666.739
3550.94
518.087
740.872
444.828
437.275
621.541
668.154
493.967
597.786
404.452
1364.55
785.072
854.586
1235.71
412.077
595.904
650.578
701.127
546.072
503.111
454.385
266.118
383.472
505.741
416.897
340.801
496.614
277.339
400.06
322.206
407.989
326.715
490.736
398.399
351.657
502.556
407.364
406.08
423.37
483.247
399.486
359.228
360.007
583.637
471.554
530.356
611.834
643.321
411.386
563.334
561.476
331.214
412.677
590.828
655.818
266.542
516.83
618.029
1063.57
614.209
626.497
664.18
677.667
621.073
404.783
324.149
311.618
438.412
331.309
318.278
325.826
395.304
445.928
304.767
233.557
58.9876
77.8767
206.718
55.4785
47.398
42.9905
32.8403
62.7097
34.6008
62.8962
60.5469
172.914
165.172
140.917
97.9064
26.444
100.556
128.996
24.2908
103.618
88.2352
18.0929
81.1947
66.2978
19.2322
79.041
193.677
36.9436
36.9208
192.686
36.8434
36.2889
99.2575
29.4617
99.9013
29.6359
100.726
100.413
153.465
121.241
121.406
87.817
36.9216
86.8602
86.7815
37.0528
86.6879
101.767
30.4983
102.103
101.455
30.5825
101.596
359870
810.721
1423.47
520.886
400353
17763.1
2095.31
5857.16
329319
255869
342361
393071
380299
259070
358389
346527
72.5537
40.6072
60.0615
45.4343
72.2999
64.3579
22042.1
810.251
8018.36
79081.7
146151
140977
117641
241667
5812.43
160565
8751.73
170878
245522
165763
318.059
3979.5
5480.03
158093
235812
164844
93683.5
146332
143682
238860
170711
166847
397288
410051
303150
262809
7721.38
372370
4488.07
362083
266113
370144
108.333
4491.77
960.618
267.978
273.834
281.255
338.88
279.643
279.916
276.961
275.637
333.753
275.772
381.169
376.905
447.819
570.185
444.707
381.674
379.509
453.318
571.753
445.073
503.833
419.308
233.624
301.621
503.207
419.425
300.968
502.79
234.408
413.127
298.935
416.568
299.981
500.586
380.166
378.498
573.72
444.692
451.249
453.758
576.574
452.345
373.402
378.026
265.231
261.989
266.803
315.514
267.071
259.614
260.871
271.212
318.33
270.642
206358
239598
232188
216846
177184
140030
190804
209403
143390
195409
118566
158209
112129
78971.8
91461
96452.9
154960
103811
109998
237350
252965
247751
171374
233225
214122
167782
228419
88272.1
129833
93906.4
75439.2
89771.3
85027.3
132879
101768
95851.6
243.545
244.88
253.596
292.991
253.391
247.256
245.837
251.544
291.254
251.099
362.279
362.894
436.931
558.916
435.559
364.734
363.87
434.327
558.001
435.069
491.454
402.761
217.426
289.06
492.022
402.056
288.631
490.449
217.967
399.972
286.916
400.933
287.645
489.64
361.433
360.411
554.018
430.015
431.71
433.841
555.366
432.385
358.219
359.439
242.633
241.369
247.029
283.951
246.596
238.956
240.427
249.157
285.739
249.088
70650.7
96797.6
86687.7
75818.5
57571.7
53653.5
66327.5
78893.9
55687.9
69374.9
60506.2
69148.3
56293.7
56416.2
48541.9
51892.9
66960.3
50908.3
54912.9
90442.8
102091
106909
73505.1
95975
82191.2
71126.7
92442.2
40763.5
50812
44485.4
50390.6
47403.3
44108.6
52698.7
49592
45751.1
215.124
219.067
230.39
257.546
230.047
224.092
221.091
224.911
254.572
225.039
333.341
337.823
415.339
532.332
411.156
343.487
340.079
404.224
528.639
409.451
466.42
375.542
185.332
266.873
468.841
372.156
264.36
463.478
184.994
363.889
257.927
367.859
260.989
460.831
330.654
324.578
508.764
383.744
392.607
402.201
514.982
395.122
313.705
321.507
212.6
207.505
209.902
236.181
210.564
198.365
204.493
218.674
241.184
217.92
652.502
6856.24
7179.55
3988.23
2260.13
5141.73
3796.85
8222.19
6279.76
4794.89
20223.8
15797.8
16576
17391.6
11857.4
15512.5
14542.4
11687.5
15357.9
8380.8
12433.3
19562.2
16444.2
14892.1
9461.47
15130.4
13456.4
3449.38
4945.12
5607.13
9194.79
10638.6
6954.17
6046.39
10464.8
6808.52
157.37
177.336
175.524
184.135
171.355
175.348
174.738
153.141
176.344
161.032
190.904
225.816
309.584
356.551
283.701
251.755
231.14
241.254
331.345
278.237
340.213
232.406
60.4429
185.708
365.606
209.728
168.023
488.803
572.522
339.164
730.366
430.985
237.99
209.308
346.475
408.781
156.596
230.5
164
180.776
155.167
445.338
229.251
231.19
299.365
225.845
141.763
144.327
115.376
211.34
189.276
145.179
138.44
177.493
135.975
571.194
675.511
1357.19
145.805
228.538
226.763
717.458
255.066
616.236
350.811
288.466
240.837
304.193
282.479
281.372
330.734
1117.41
387.852
337.776
318.042
567.989
300.784
331.428
431.268
503.2
1135.47
474.029
665.981
884.947
680.901
1020.04
435.753
733.1
3545.59
498.878
533.664
299.283
185.262
279.276
213.01
305.347
389.943
583.816
1505.6
852.22
719.653
352.364
375.983
301.25
586.691
252.396
411.482
915.272
673.156
238.582
723.574
865.594
676.329
776.647
964.166
256.936
688.211
810.995
694.305
835.024
960.722
501.625
475.05
598.608
583.291
584.024
587.174
569.586
566.79
510.668
502.942
193.914
351.245
252.967
266.32
359.113
215.621
267.34
130.609
161.421
145.451
185.97
148.29
137.664
174.808
127.824
232.681
240.913
202.245
219.689
165.982
193.252
599.781
693.682
470.956
1302.18
459.385
702.188
731.947
530.8
1225.73
420.656
369.083
629.418
416.415
2388.5
5221.47
55009.1
5642.18
4929.6
5991.35
4107.98
1021.74
555.386
669.901
580.879
1211.44
1322.19
2786.68
2789.45
1611.34
202.813
519.161
360.86
159.211
367.511
208.503
333.155
297.475
176.808
335.764
363.589
342.053
347.365
309.282
258.002
308.659
321.154
270.431
317.559
153.281
154.47
135.615
200.721
130.028
185.243
168.8
160.527
391.803
232.611
524.215
213.57
136.694
243.668
228.753
159.505
207.398
938.96
242.894
680.216
735.647
957.25
661.283
717.318
928.947
239.986
669.516
736.774
945.579
651.548
708.074
608.244
617.157
420.187
1126.32
422.463
597.338
611.411
425.344
1139.33
426.619
523.7
529.552
679.274
612.05
627.008
624.021
685.65
629.907
522.194
525.018
519.861
511.567
581.833
618.399
575.72
510.211
499.857
617.383
642.723
587.639
598.7
586.299
466.316
1181.49
448.786
635.571
584.503
429.559
1164.81
424.121
108.605
64.812
90.4062
73.5371
63.6945
113.309
65.9138
188.092
378.783
482.66
338.785
366.688
306.555
269.406
138.058
86.7372
103.042
221.403
45.6869
243.598
166.858
110.806
94.5091
99.9523
134.597
214.393
79.6412
87.8438
103.052
84.2424
150.444
352.45
400.028
491.295
370.677
370.631
328.242
342.587
229.122
190.967
282.941
173.222
200.892
168.715
207.244
229.731
95.4191
248.906
152.307
264.435
156.777
234.859
193.693
417.988
239.187
242.456
241.141
176.182
205.756
159.312
126.36
222.103
27.395
123.844
84.5213
136.633
134.367
138.898
112.633
193.622
231.316
165.037
231.508
143.428
133.581
60.9418
127.205
93.1021
93.4574
71.5718
143.655
84.298
117.389
96.7179
137.446
194.455
272.592
293.514
163.324
228.999
203.663
126.436
139.871
96.6837
191.907
146.234
317.969
300.041
217.304
509.385
268.512
439.973
319.652
521.455
420.223
324.037
496.545
267.736
397.41
325.741
491.643
403.112
325.971
281.309
274.033
284.618
345.876
286.745
279.722
275.042
294.206
350.905
293.311
402.7
400.448
451.372
595.815
477.404
384.392
402.117
482.734
603.69
480.966
401.867
381.743
409.789
533.997
425.125
364.382
373.799
477.268
560.458
436.192
289.417
308.604
313.87
418.445
310.595
320.414
315.33
303.775
400.447
304.486
361.96
327.438
338.649
260.205
294.283
303.963
305.436
298.629
310.972
181.443
261.422
246.624
263.887
280.689
266.338
284.629
285.402
272.186
247.336
297.391
301.076
305.503
293.332
305.478
301.659
295.452
305
196.728
39.3243
38.2478
199.99
39.5213
40.0959
173.708
237.025
238.666
262.618
275.72
261.367
257.957
274.353
259.713
302.029
285.967
302.715
242.388
303.348
302.68
286.981
304.363
303.584
305.734
290.635
305.782
244.604
303.901
304.246
289.792
304.948
305.471
162.87
128.197
130.411
97.287
30.0095
95.1945
92.779
30.3518
94.5902
98.7152
27.5031
97.8685
27.1472
96.1317
97.4098
89.976
23.4939
92.7491
24.031
95.2185
93.3898
301.302
283.729
300.571
239.047
299.258
299.348
283.346
300.237
300.198
165.156
229.492
229.94
252.808
267.631
251.93
250.61
266.954
251.257
238.635
299.365
299.58
302.218
284.575
301.239
300.429
283.917
300.657
199.367
36.296
38.124
193.04
36.3339
36.2618
172.833
243.216
238.676
254.507
272.779
257.148
265.436
276.255
260.618
385.809
336.243
349.01
256.681
315.205
324.473
316.816
319.92
330.448
303.431
289.255
305.206
241.59
309.256
305.403
292.604
312.922
308.187
159.862
131.865
126.79
88.259
35.1988
90.0424
95.4061
34.4857
90.9951
79.0102
18.4681
91.4011
19.7549
97.0323
90.9932
102.128
29.0971
101.067
28.3963
98.3618
101.92
272420
229543
278536
360789
300354
286901
233521
289801
284445
461.922
721.774
686.54
1062.53
2659.66
1130.64
1342.92
3127.54
1272.01
38417.4
5567.13
24682.7
64808.9
98413.2
80043.9
61360.6
131906
53320.4
89868
39686
140205
164456
119291
6176.95
24271
23119.7
140247
185092
141587
80582.8
101369
103004
187401
142057
142372
389106
303311
294667
22301.2
7089.88
25403
174391
178744
65700.8
235710
71375.2
292975
213358
270382
8101.41
24704.6
24961.5
327897
372172
152762
105758
159925
305588
250290
237686
111395
175327
167497
107600
49766.9
55513.1
33650.5
58696.7
20959
16674
59162.2
13439.4
13019.6
54315.3
13777
98628.6
49873.9
49466.5
58095.6
15942.3
14829.8
340469
255618
256327
189768
117682
186554
182969
119602
183549
317203
283065
266211
215787
259935
319258
242252
254599
211010
247264
253617
79167.8
99623.4
98627.2
124169
158743
126427
130748
162281
128619
138599
175914
136765
80756.7
100559
101433
172586
132818
134828
286106
239790
227516
221511
191499
228005
240878
196439
234460
284825
251028
145953
90117.8
139398
263354
191630
201994
85340.4
126849
133045
86038.4
49387.9
49446.4
18202.4
29471.7
17114.9
15002.2
32009
16034.8
12701.5
43699.9
12824.4
90300.4
49312.2
49232.7
40534.7
14071.8
13314.3
230765
187390
177217
103325
67678
109033
120792
71905.4
114854
352850
314742
367571
402050
386843
319359
388115
372549
177380
202154
205797
199452
307492
228244
226960
308442
230675
204509
282372
213627
164347
200456
193253
286473
224915
216626
407567
427755
401110
347266
413443
393551
347638
410232
324809
230817
310888
321690
337275
227086
291703
306145
85159.5
118362
112682
120776
181482
127442
136607
184867
129726
155682
212280
148474
89244.9
120364
126271
208836
138964
146052
316430
300550
252621
197091
267285
286840
200826
272180
347957
284169
333211
326235
341945
279998
313337
328265
136957
160562
153657
160906
221324
168727
179261
224969
171326
201553
254648
192894
146425
162853
170015
250859
181919
190116
320947
304998
273247
247312
288289
308339
251360
293306
575.166
572.545
410.171
1077.28
407.303
586.042
573.3
398.815
1069.54
400.36
514.169
514.093
655.487
608.293
600.377
604.951
656.449
600.948
519.138
513.582
938.522
673.319
225.4
716.858
938.529
673.491
716.079
935.572
224.661
668.94
709.202
671.606
712.019
932.098
513.938
513.745
657.433
599.664
603.387
605.54
660.131
604.849
510.755
511.887
577.184
575.014
392.467
1052.99
394.233
568.93
572.654
396.613
1058.06
396.116
923.159
221.427
662.977
700.775
923.316
662.326
699.298
924.895
221.547
665.685
704.013
927.77
663.195
700.494
561.933
558.665
381.664
1025.45
383.114
556.986
557.677
384.435
1027.95
384.113
506.513
505.617
646.762
591.908
593.259
595.659
648.253
594.154
504.045
504.597
507.036
507.021
598.302
649.939
595.423
509.564
507.383
595.895
649.436
595.147
561.696
560.221
389.479
1037.32
388.675
566.14
560.486
385.392
1034.46
386.709
497.374
229.887
409.635
295.384
497.597
409.18
296.01
497.612
229.335
410.327
297.682
498.639
409.191
296.945
251.92
250.4
255.967
298.264
255.693
248.187
249.515
258.317
300.042
258.097
369.043
367.973
437.6
562.915
439.86
365.688
367.217
441.847
564.359
440.509
369.751
369.497
443.523
565.815
441.582
372.145
370.85
442.059
565.379
441.264
253.065
255.203
263.896
309.186
263.299
258.611
256.569
260.938
306.86
260.674
210920
180903
168989
168008
150049
174843
188399
155431
181641
121841
147763
119439
75832.4
91205.3
92633.7
143969
114399
116959
243637
183531
195558
214977
176379
208400
195111
171230
201779
103334
128078
106225
73209.7
89694.2
88096.6
132159
111758
109033
176981
208681
160161
132068
122787
62477.2
38529.2
67044.4
76677.7
41650.5
71779.8
19268.9
22849.8
20294.2
78588.6
48701.8
49005.2
21020.3
22151.5
21259.7
190241
135837
145396
97736.3
55710.7
92268.5
81730.9
51976.5
86931.7
24786.7
16002.4
24283.1
73405
48309.2
47824.3
16893
22957.8
23671.4
164817
133905
161137
133594
154244
169632
126232
137568
128026
140412
147334
63040.5
74456.8
72170.2
77541.2
93235
80978.8
87700.2
97749.2
84367.1
100354
115418
97300.9
67438.8
76661.2
78783.6
111076
90970.6
94172.5
138598
123508
112460
112840
105515
119692
133491
111158
126578
138397
110554
58086.1
30233
53878.6
123985
86599.3
94790.9
27843.3
46029.5