/*--------------------------------*- C++ -*----------------------------------*\
| =========                 |                                                 |
| \\      /  F ield         | OpenFOAM: The Open Source CFD Toolbox           |
|  \\    /   O peration     | Version:  2012                                  |
|   \\  /    A nd           | Website:  www.openfoam.com                      |
|    \\/     M anipulation  |                                                 |
\*---------------------------------------------------------------------------*/
FoamFile
{
    version     2.0;
    format      ascii;
    class       volVectorField;
    location    "0.106/solid";
    object      sigmaMaxDir;
}
// * * * * * * * * * * * * * * * * * * * * * * * * * * * * * * * * * * * * * //

dimensions      [1 -1 -2 0 0 0 0];


internalField   nonuniform List<vector> 
24998
(
(0.783796 0.260895 -0.563558)
(0.000706072 0.225737 0.974188)
(0.520205 0.852218 -0.0557723)
(-0.00905867 0.999942 0.00587837)
(-0.328505 0.91576 0.231234)
(0.994133 -0.0908947 0.0586284)
(0.997892 -0.0647134 0.00486558)
(0.998533 -0.0532611 0.00973952)
(0.992693 -0.0498586 0.109884)
(0.889602 -0.014685 -0.456501)
(0.158646 0.987171 -0.0180426)
(0.978567 -0.200714 0.0460438)
(0.0431945 0.254657 0.966066)
(0.680025 0.727288 -0.0928311)
(0.991739 -0.0976137 0.0832129)
(0.0750355 0.997107 -0.0121659)
(-0.0130414 0.999914 0.00136758)
(-0.0189142 0.999819 0.00227919)
(-0.00686088 0.999974 0.00198514)
(-0.392876 0.914602 0.0956677)
(-0.353045 0.91892 0.175912)
(-0.415331 0.899676 0.134473)
(0.980687 -0.19296 0.0319392)
(0.984159 -0.177271 0.0025852)
(0.997803 -0.0659521 0.00625237)
(0.984293 -0.176535 0.0017997)
(0.98508 -0.172079 0.00242784)
(0.998447 -0.0552757 0.00694816)
(0.985225 -0.171225 0.00377617)
(0.982162 -0.173605 0.0722491)
(0.995509 -0.0352901 0.08784)
(0.974307 -0.191289 0.118886)
(-0.0506409 0.409652 0.910835)
(-0.359674 -0.138423 0.922753)
(0.9967 0.0721909 -0.0371278)
(0.169633 0.970772 -0.169785)
(0.921337 -0.17695 0.346161)
(-0.507095 0.85375 0.118176)
(-0.227394 0.973802 -0.000920194)
(0.0631005 0.997961 0.00958831)
(-0.0224488 0.999722 0.00725337)
(-0.0617975 0.998088 -0.00103024)
(0.0637738 0.997957 0.00372523)
(0.00638781 0.999964 -0.00555787)
(0.0241326 -0.0532669 0.998289)
(0.421277 0.838962 0.344484)
(0.343744 0.0726443 0.936249)
(0.932695 -0.234214 0.27427)
(0.82711 0.0647181 0.558301)
(0.997029 -0.0742831 0.0203862)
(0.0261521 -0.0549249 0.998148)
(0.0250068 -0.0539547 0.99823)
(0.760347 0.0696942 0.645767)
(0.715692 0.0767286 0.694189)
(0.998126 -0.0610378 0.00436559)
(0.0324559 -0.0575561 0.997815)
(0.0280931 -0.05519 0.998081)
(0.681067 0.0917301 0.726452)
(0.679721 0.10905 0.725319)
(0.998507 -0.0436135 0.032874)
(0.096761 0.983098 0.155418)
(0.0558938 -0.0844849 0.994856)
(0.714521 0.140383 0.685385)
(0.702032 0.687227 0.186735)
(-0.144079 0.389902 0.909515)
(0.0573265 0.982765 -0.175744)
(0.969119 -0.237989 0.0645744)
(-0.476753 -0.270641 0.836337)
(-0.290298 0.95663 -0.0242195)
(-0.0574181 -0.29113 0.954959)
(0.720492 0.683789 -0.115433)
(-0.232158 0.971732 -0.0428853)
(-0.284594 -0.491018 0.823351)
(0.969024 -0.227016 0.0972411)
(0.942133 0.332787 -0.0404746)
(-0.589421 0.798952 0.119414)
(0.783534 0.612832 -0.102525)
(-0.422025 0.898675 0.119494)
(-0.508753 0.848455 0.145929)
(0.948991 -0.152258 0.276103)
(-0.155199 0.987812 -0.0119023)
(-0.0230976 0.999729 0.00300976)
(0.00435068 0.999988 0.00240699)
(0.0750144 0.997166 0.0056949)
(-0.0694318 0.997587 0.000294186)
(-0.0213255 0.999766 0.00349124)
(0.00751417 0.999969 0.00222799)
(0.00536241 0.999984 0.00152228)
(-0.017133 0.999801 0.0102459)
(0.00659273 0.999977 0.00133192)
(-0.00586643 0.999982 -0.00137659)
(-0.00570309 0.999984 0.000235042)
(0.381254 0.88114 0.279711)
(-0.0720948 0.997397 -0.00114253)
(-0.00946023 0.999955 -5.9543e-05)
(0.391369 0.904102 0.171553)
(0.000285783 1 0.0008807)
(0.0138434 0.999903 -0.00176308)
(0.0330951 -0.0528575 0.998054)
(0.46961 0.849172 0.241606)
(0.670407 -0.523057 0.526276)
(0.675424 0.0674379 0.73434)
(0.300798 -0.00571954 0.953671)
(-0.021741 -0.053808 0.998315)
(0.172261 -0.0181604 0.984884)
(-0.0177727 -0.0588721 0.998107)
(0.0430588 0.997792 0.0505605)
(-0.131397 0.990818 0.0318344)
(0.0993045 -0.108995 0.98907)
(0.0241593 -0.0531008 0.998297)
(0.024896 -0.0538569 0.998238)
(0.0332024 -0.0526596 0.99806)
(0.629159 0.0658744 0.77448)
(0.668589 0.0667084 0.740634)
(0.0356352 -0.0526665 0.997976)
(-0.0215767 -0.0536131 0.998329)
(-0.0216483 -0.0544893 0.99828)
(-0.0174795 -0.0587076 0.998122)
(-0.0735219 0.996708 0.0341803)
(-0.120823 0.992171 0.031588)
(-0.0154965 -0.0604104 0.998053)
(0.0931004 0.99338 0.0672891)
(0.130883 0.991147 0.0223017)
(0.767374 0.0689901 0.637478)
(0.819386 0.0651075 0.569533)
(0.146595 0.988914 0.0236281)
(0.137565 0.990253 0.021803)
(0.983137 -0.182617 0.00965657)
(0.983544 -0.180558 0.00632805)
(0.997331 -0.0717137 0.0137277)
(0.0394193 -0.0525213 0.997841)
(0.624723 0.0663111 0.778025)
(0.0358645 -0.0526973 0.997966)
(0.60151 0.0737543 0.795454)
(-0.0217284 -0.0555631 0.998219)
(-0.0216525 -0.0546147 0.998273)
(-0.0124644 -0.0623119 0.997979)
(-0.0684586 0.997031 0.0352414)
(-0.0153594 -0.0605981 0.998044)
(-0.0193152 0.998467 0.0518656)
(0.0262561 -0.054951 0.998144)
(0.0278773 -0.0551387 0.998089)
(0.0397314 -0.0524458 0.997833)
(0.595046 0.0917075 0.798443)
(0.599385 0.0755103 0.796892)
(0.045298 -0.0509858 0.997672)
(-0.0216576 -0.0555604 0.99822)
(-0.0204822 -0.0544513 0.998306)
(-0.012152 -0.0623397 0.997981)
(0.131506 0.984958 0.112085)
(-0.00803326 0.998388 0.0561914)
(-0.00598594 -0.0611802 0.998109)
(0.1464 0.988925 0.0243963)
(0.148538 0.988356 0.0330093)
(0.683169 0.0897142 0.724729)
(0.71029 0.0780697 0.699567)
(0.170852 0.98384 0.0535575)
(0.149871 0.988093 0.0348091)
(0.984624 -0.174681 0.00130262)
(0.984729 -0.174087 0.00130815)
(0.998201 -0.0598012 0.00438725)
(0.058166 -0.0504406 0.997032)
(0.595988 0.0946338 0.797398)
(0.0458693 -0.050884 0.997651)
(0.613797 0.119191 0.780415)
(-0.017732 -0.0524893 0.998464)
(-0.0203151 -0.0543544 0.998315)
(0.00735106 -0.0574547 0.998321)
(0.165089 0.978209 0.125905)
(-0.0053887 -0.061036 0.998121)
(0.490934 0.824376 0.281759)
(0.0330448 -0.0580142 0.997769)
(0.0525076 -0.0803749 0.995381)
(0.05961 -0.0505762 0.99694)
(0.657135 0.155391 0.737582)
(0.617892 0.123291 0.776537)
(0.103306 -0.0630916 0.992647)
(-0.0174366 -0.0525073 0.998468)
(-0.0163082 -0.063954 0.99782)
(0.00868932 -0.057283 0.99832)
(0.653372 0.556831 0.512879)
(0.533284 0.787255 0.309575)
(0.0458576 -0.0639685 0.996898)
(0.176532 0.982612 0.0575314)
(0.250297 0.962509 0.104531)
(0.70826 0.136684 0.692593)
(0.681448 0.112034 0.723241)
(0.473177 0.831526 0.290978)
(0.268328 0.956317 0.116007)
(0.98575 -0.167723 0.0128968)
(0.985845 -0.16657 0.0190927)
(0.998274 -0.0392153 0.0437171)
(0.563252 0.805964 0.182122)
(0.664467 0.160008 0.729987)
(0.110016 -0.0653509 0.991779)
(0.668632 0.713126 0.21067)
(0.295189 0.952007 0.0809123)
(-0.0165702 -0.0671565 0.997605)
(0.397023 0.905919 0.14725)
(0.648408 0.532719 0.543855)
(0.0515457 -0.0666526 0.996444)
(0.546222 0.825029 0.144807)
(0.505129 0.793767 0.33879)
(0.56802 0.814985 0.114686)
(-0.28727 0.186582 0.939502)
(0.845375 0.50501 -0.174084)
(0.449451 0.232436 0.862535)
(-0.0960775 0.1387 0.985663)
(0.798804 0.281243 -0.531803)
(0.437247 0.770476 -0.463878)
(-0.606355 -0.0901956 0.790062)
(-0.263453 -0.280643 0.922947)
(-0.558716 -0.549926 0.62082)
(-0.286392 -0.16635 0.943561)
(0.866656 -0.347362 -0.358116)
(-0.237116 0.970161 0.0506353)
(-0.368235 0.908772 0.196305)
(-0.0713498 0.0055424 0.997436)
(-0.00587419 0.999981 -0.00165906)
(-0.0602071 -9.10664e-05 0.998186)
(0.713181 -0.0963483 -0.694327)
(0.129694 0.823009 0.553024)
(-0.47804 -0.45674 0.750245)
(0.024794 -0.011631 0.999625)
(0.0429649 -0.0170206 0.998932)
(0.810035 0.114503 0.575094)
(0.995325 -0.0843839 0.0469744)
(0.0258345 -0.024236 0.999372)
(0.887079 0.115182 0.447017)
(0.0562401 -0.0157334 0.998293)
(0.00271338 0.000368862 0.999996)
(-0.000900858 0.00486257 0.999988)
(0.987578 0.138847 0.0735618)
(0.997971 -0.0634981 0.00462165)
(0.00231201 -0.00203437 0.999995)
(0.987385 0.139094 0.07565)
(-7.35509e-05 0.00519306 0.999987)
(0.0164437 -0.0087352 0.999827)
(0.000829014 0.00711103 0.999974)
(0.986336 0.143215 0.0814354)
(0.998596 -0.0507379 0.0151937)
(0.00699437 -0.0045532 0.999965)
(0.984532 0.144661 0.0988387)
(0.011327 0.00465858 0.999925)
(0.313613 -0.190856 0.930172)
(0.565146 -0.079003 0.821199)
(0.984122 0.121479 0.129411)
(0.986366 -0.0976549 0.132457)
(0.205974 -0.155065 0.966193)
(0.986896 0.0617704 0.149067)
(0.996778 -0.042205 0.0682151)
(0.864906 0.011671 -0.501799)
(0.777544 -0.147826 -0.611206)
(0.479294 0.724299 -0.495649)
(0.941753 -0.206254 -0.265633)
(-0.508115 -0.283916 0.813148)
(0.716727 0.32767 -0.615576)
(0.862253 -0.431434 -0.265301)
(-0.0858321 0.979259 -0.183535)
(-0.00968906 0.999927 -0.0071812)
(0.089886 0.991952 -0.0891726)
(-0.118531 0.0743745 0.990161)
(0.976949 -0.209764 0.0396126)
(0.902494 -0.42969 0.0295083)
(0.965729 0.0420574 0.256124)
(0.973322 0.0161911 0.228871)
(0.197311 -0.0402639 0.979514)
(0.899861 -0.436064 0.00994073)
(0.201667 0.189029 0.96104)
(0.303812 -0.607183 0.734185)
(0.389988 -0.489567 0.779893)
(0.825777 -0.551096 -0.119935)
(0.644447 0.758375 -0.0977578)
(-0.109489 0.992891 0.0466943)
(0.059773 -0.0251702 0.997895)
(0.9838 -0.109506 0.14194)
(0.0501316 -0.0241086 0.998452)
(0.760663 0.107927 0.640112)
(0.026448 -0.0251604 0.999334)
(0.513617 0.0348522 0.857312)
(0.159939 -0.0522869 0.985741)
(-0.0751266 0.997144 0.00767746)
(-0.0287529 0.999387 0.0199546)
(-0.0253114 0.999656 0.00683)
(-0.0173961 0.999844 0.00308238)
(0.00045513 0.999999 0.0012424)
(0.00393535 0.999991 0.00148992)
(-0.0221538 0.999717 0.00867032)
(-0.0742956 0.00347085 0.99723)
(-0.0997365 0.010166 0.994962)
(-0.00341732 0.999994 0.00085399)
(-0.00490734 0.999988 -0.000200303)
(-0.00178628 0.999998 0.000139652)
(-0.19363 0.980884 0.0193381)
(0.237353 0.962382 0.132227)
(-0.0355204 0.999189 0.0189691)
(-0.120154 0.992611 0.0169094)
(-0.604805 0.00348329 0.796366)
(-0.135315 -0.0234534 0.990525)
(0.364764 0.907961 0.206287)
(-0.234182 0.933098 0.272924)
(0.500174 0.771219 0.393762)
(0.0143621 0.0112357 0.999834)
(0.907228 -0.420239 0.0183418)
(0.97916 0.046477 0.1977)
(0.982027 -0.188316 0.0126272)
(0.997917 0.0453259 0.0459085)
(0.135985 -0.0213067 0.990482)
(0.908444 -0.418005 -0.00127952)
(0.00789687 0.00406211 0.999961)
(0.983989 -0.178209 0.00259121)
(0.910687 -0.413098 -2.10689e-06)
(0.998429 0.0501338 0.025017)
(0.998453 0.0491175 0.0260446)
(0.0344408 -0.000956038 0.999406)
(0.9104 -0.413729 3.91078e-06)
(0.00517202 -0.00381531 0.999979)
(0.997682 -0.0674942 0.0086634)
(0.00145274 0.00377405 0.999992)
(0.985715 0.138401 0.0959768)
(0.00306918 -0.000277127 0.999995)
(0.985787 0.137104 0.0970875)
(0.00498666 0.00237941 0.999985)
(0.0312851 -4.39059e-05 0.999511)
(0.910914 -0.412597 -2.11315e-05)
(0.998427 0.0503124 0.0247553)
(0.984401 -0.175934 0.00103454)
(0.998517 0.0505862 0.0201148)
(0.0111418 0.00351902 0.999932)
(0.910939 -0.412536 -0.00189643)
(0.0153226 0.00417383 0.999874)
(0.98495 -0.172827 0.00188803)
(0.911126 -0.412125 -0.00141506)
(0.998049 0.0537149 0.0318378)
(0.998177 0.0526287 0.0295347)
(0.0419993 -3.05857e-05 0.999118)
(0.91112 -0.41214 -0.000684987)
(0.00327401 -0.00212786 0.999992)
(0.99836 -0.0569692 0.00559434)
(-0.00122117 0.00777844 0.999969)
(0.986113 0.142656 0.0850262)
(0.00676651 -0.00217766 0.999975)
(0.987333 0.141521 0.0717348)
(-0.00290829 0.0079997 0.999964)
(0.0460324 -0.00188644 0.998938)
(0.911094 -0.412197 0.000245595)
(0.99788 0.0541105 0.036165)
(0.98539 -0.170221 0.00560549)
(0.997583 0.055511 0.0417972)
(0.0186437 0.00404708 0.999818)
(0.91104 -0.412318 0.000370168)
(0.964185 -0.244178 -0.103556)
(0.984865 -0.167597 0.0441929)
(0.90114 -0.427887 0.0697038)
(0.995078 0.0432703 0.0891465)
(0.996649 0.054653 0.0608568)
(0.964354 -0.259868 -0.0498949)
(0.906545 -0.420229 0.0397959)
(0.114126 -0.078858 0.990332)
(0.997016 -0.0326754 0.0699407)
(0.380552 -0.070254 0.922087)
(0.984194 0.130825 0.11936)
(0.198679 -0.143112 0.969559)
(0.984373 0.144201 0.101078)
(0.261813 -0.0524967 0.96369)
(0.967018 -0.254062 0.0181113)
(0.887135 -0.446158 0.118044)
(0.993643 0.0356973 0.10677)
(0.946013 -0.252275 0.203513)
(0.988848 -0.00921711 0.148646)
(0.965443 -0.255593 -0.0509162)
(0.843544 -0.495287 0.207662)
(-0.0225309 0.373344 0.927419)
(-0.25074 0.277871 0.927317)
(0.207174 0.377319 0.902612)
(0.928706 0.334537 -0.159968)
(0.597373 0.271663 0.75455)
(-0.365315 0.316381 0.87547)
(-0.215202 0.697154 -0.68386)
(0.220151 0.465452 0.857256)
(0.673037 0.584038 -0.453784)
(0.962176 0.272388 0.00477037)
(0.691416 0.495735 -0.525538)
(0.787906 -0.542811 0.290794)
(0.458149 0.747713 -0.480651)
(0.671233 0.740755 0.0269928)
(-0.229511 -0.460373 0.857544)
(0.526004 0.66063 -0.535619)
(-0.0132414 0.155144 0.987803)
(0.864815 -0.224325 0.449192)
(0.219434 0.0237831 0.975338)
(0.350385 -0.153794 0.923893)
(-0.180798 -0.154839 0.971255)
(-0.00518081 0.00327343 0.999981)
(0.422224 -0.200525 0.884034)
(-0.00270278 0.0142949 0.999894)
(-0.100005 -0.03352 0.994422)
(0.73635 0.676434 0.0150194)
(0.723094 0.686198 0.0791641)
(0.683923 0.649446 -0.332369)
(0.72349 -0.589862 0.358645)
(0.643619 -0.50495 0.575135)
(0.0678895 0.997323 0.0271605)
(-0.0925942 0.995676 0.00751354)
(0.982039 0.167088 0.0876433)
(0.993489 0.0545345 0.100023)
(-0.273459 0.959857 0.0624085)
(-0.187267 0.0253232 0.981983)
(-0.48089 0.769756 0.419787)
(0.664006 0.0486452 0.746143)
(0.97079 0.169662 0.169651)
(0.0648681 0.997886 0.00398392)
(-0.0738615 0.997266 -0.00213854)
(0.513853 0.000512633 0.857878)
(0.498195 0.00546049 0.867048)
(0.00427845 0.999989 0.00193965)
(-0.060103 -0.00616597 0.998173)
(-0.0592616 0.00328559 0.998237)
(0.499337 -0.000743684 0.866408)
(0.497481 -0.00148448 0.867474)
(0.0271347 -0.0587698 0.997903)
(0.640356 0.450057 0.622409)
(0.0250856 -0.0612975 0.997804)
(0.672758 0.335503 0.65942)
(0.989715 -0.0811778 0.117792)
(0.987639 -0.115083 0.106416)
(0.956092 -0.225446 0.18725)
(0.874009 -0.117276 0.471545)
(0.179022 0.784212 0.594106)
(0.853572 0.061469 0.517336)
(0.146987 0.985018 0.0901912)
(0.969012 -0.221691 0.10894)
(0.0303531 -0.501302 0.86474)
(0.98437 -0.125147 0.123908)
(0.849696 0.0628639 0.523512)
(0.977266 -0.181264 0.10998)
(0.149318 0.987059 0.0584662)
(0.984809 -0.136407 0.107443)
(0.179221 -0.504572 0.844563)
(0.258667 -0.194231 0.946238)
(0.0305164 -0.0346491 0.998934)
(0.0264125 0.00969205 0.999604)
(0.0141996 -0.00723803 0.999873)
(0.0213759 -0.0132294 0.999684)
(0.996378 -0.0783222 0.0331001)
(0.957017 0.13293 0.257776)
(0.0149998 -0.0035124 0.999881)
(0.90857 0.119241 0.400353)
(0.00860135 -0.00614938 0.999944)
(0.036462 -0.00940156 0.999291)
(0.00877691 0.00417386 0.999953)
(0.0123284 -0.00380057 0.999917)
(-0.0237183 0.00720229 0.999693)
(0.13513 -0.0947017 0.986292)
(0.0256174 -0.054595 0.99818)
(0.0255098 -0.0545251 0.998186)
(0.978537 -0.0323964 0.20351)
(0.982287 -0.0470339 0.181383)
(0.980997 -0.0954647 0.16891)
(0.74004 0.0722651 0.668669)
(0.978801 -0.0784584 0.189188)
(0.985271 -0.0604857 0.159946)
(0.982725 -0.0488507 0.178507)
(0.974789 -0.0542215 0.216439)
(0.733602 0.073286 0.675617)
(0.978403 -0.0757331 0.192331)
(0.035007 -0.013643 0.999294)
(-0.0573649 0.0361704 0.997698)
(0.0033875 0.00144101 0.999993)
(0.0037962 0.000863703 0.999992)
(0.00195703 -0.00156822 0.999997)
(0.99805 -0.062257 0.00448547)
(0.987103 0.140135 0.0773976)
(-0.00188918 0.0065978 0.999976)
(0.987938 0.139399 0.0674217)
(0.00253312 0.000614071 0.999997)
(-0.00228843 0.00607779 0.999979)
(0.00398084 0.00164712 0.999991)
(0.00347067 0.00099028 0.999993)
(-0.0584846 0.0376655 0.997577)
(0.0279808 -0.00742201 0.999581)
(0.029843 -0.0557846 0.997997)
(0.0294966 -0.0556359 0.998015)
(0.926264 0.100254 0.363296)
(0.945471 0.0603419 0.320067)
(0.955356 0.0247 0.294424)
(0.677574 0.0984861 0.728831)
(0.939748 0.0679549 0.335047)
(0.960959 0.022517 0.275773)
(0.947758 0.0551864 0.31418)
(0.914368 0.12248 0.385915)
(0.677367 0.100988 0.728681)
(0.937024 0.0745806 0.341209)
(0.0238723 -0.00322585 0.99971)
(-0.0331531 0.0168695 0.999308)
(0.00698224 0.0019249 0.999974)
(0.0117072 0.00197112 0.99993)
(0.0180458 -0.0120054 0.999765)
(0.998601 -0.0475361 0.0231654)
(0.983642 0.146679 0.104564)
(0.0560802 -0.00695894 0.998402)
(0.984557 0.145319 0.0976203)
(0.041621 -0.0256136 0.998805)
(0.0279646 0.000414737 0.999609)
(0.0243149 0.000891495 0.999704)
(0.013521 0.00175817 0.999907)
(0.00937222 -0.0183964 0.999787)
(0.0454276 -0.0189752 0.998787)
(0.112755 -0.165297 0.979777)
(0.0985714 -0.146293 0.984318)
(0.892609 0.438235 0.105823)
(0.842358 0.257694 0.473314)
(0.842348 0.232465 0.486219)
(0.738043 0.147771 0.658374)
(0.82233 0.26268 0.504751)
(0.86091 0.212443 0.462278)
(0.842475 0.254102 0.475046)
(0.868717 0.481725 0.115206)
(0.747695 0.147336 0.647491)
(0.821846 0.264348 0.504667)
(0.096412 -0.10201 0.9901)
(-0.0755877 -0.112978 0.990718)
(0.281754 -0.00704179 0.959461)
(0.382276 0.0387755 0.923234)
(0.427203 -0.175468 0.886966)
(0.911626 -0.270068 0.309842)
(0.993883 0.0197044 0.108667)
(0.905334 -0.193353 0.378135)
(0.24682 0.0904053 0.964835)
(0.13094 -0.195372 0.971949)
(-0.606702 0.337653 0.719655)
(-0.237237 0.123836 0.963526)
(0.713107 0.12469 -0.689878)
(0.769504 -0.638226 0.0230631)
(0.565696 0.654703 -0.50135)
(0.718754 0.651205 -0.243566)
(-0.15172 -0.455933 0.876987)
(-0.538534 -0.579051 0.612112)
(-0.662239 -0.16283 0.731386)
(0.967529 -0.234005 -0.0955447)
(0.946421 0.0561739 0.318013)
(0.885985 -0.460158 0.0573123)
(-0.512864 -0.165972 0.842273)
(0.40099 -0.16547 0.901014)
(0.883473 -0.4674 -0.0318259)
(0.0116975 0.0139382 0.999834)
(-0.296815 -0.0911957 0.950571)
(-0.352229 0.172085 0.919957)
(0.706002 0.602402 -0.372387)
(-0.663666 -0.27453 0.695831)
(0.792255 -0.606858 0.0636777)
(0.7835 -0.617789 0.066819)
(0.720728 -0.535672 0.440007)
(-0.174948 0.945944 -0.273099)
(-0.53733 0.729746 -0.422785)
(0.821504 -0.568789 -0.0401277)
(0.675122 0.704453 -0.21899)
(0.0909891 0.993664 -0.0659772)
(-0.0322564 0.999431 -0.00986989)
(-0.17227 0.962428 -0.209896)
(0.0402297 0.994685 -0.0947779)
(0.567362 0.769575 -0.29301)
(-0.280582 0.946259 -0.160836)
(0.0370499 0.995534 -0.0868295)
(-0.0728519 0.0564381 0.995745)
(0.974769 -0.217631 0.0496274)
(0.922231 0.0490967 0.383509)
(0.895817 -0.435962 0.0863071)
(0.138922 -0.0644775 0.988202)
(0.983712 0.0173222 0.178918)
(0.902205 -0.431225 0.00839248)
(0.813491 -0.581506 0.00912909)
(0.811306 -0.58459 0.00611721)
(0.0496961 0.018585 0.998591)
(0.0320103 -0.00792863 0.999456)
(0.0328035 0.014923 0.99935)
(0.0202048 -0.0203759 0.999588)
(0.804792 -0.591122 0.0537034)
(0.812641 -0.582484 0.018105)
(0.459877 0.0994925 0.882391)
(0.928719 -0.355541 0.105221)
(0.62933 -0.582228 0.514737)
(0.246296 -0.51661 0.820032)
(-0.430448 0.711595 -0.555291)
(-0.602629 0.796394 -0.0509387)
(-0.444178 0.882567 0.15421)
(-0.588343 0.733089 -0.341224)
(-0.581517 0.813424 0.0133804)
(0.928046 0.372462 0.00131593)
(-0.228465 0.97339 0.0177415)
(0.947579 0.315927 0.0477874)
(0.110246 0.993551 -0.0265009)
(0.957589 0.284255 0.0471396)
(0.9564 0.266977 -0.118417)
(-0.218386 0.972925 0.0756646)
(0.065383 -0.0200721 0.997658)
(0.96657 -0.130059 0.220971)
(0.350596 0.0365318 0.935814)
(0.301247 -0.121844 0.945729)
(0.00727429 -0.00421401 0.999965)
(0.41575 0.00690206 0.909453)
(0.268564 -0.0916227 0.958894)
(0.166227 -0.143548 0.975583)
(0.495716 -0.3887 0.776645)
(0.0330898 0.0182151 0.999286)
(0.0402782 -0.0123201 0.999113)
(0.0208569 0.00866933 0.999745)
(0.0395847 -0.029017 0.998795)
(0.683229 -0.558144 0.470822)
(0.58147 -0.462439 0.66936)
(-0.0931904 0.995636 0.00486027)
(-0.0160493 0.99986 0.00476253)
(-0.0622685 0.998046 0.00519219)
(-0.0353542 0.999126 0.0222874)
(0.0182926 0.999829 0.00268727)
(0.132728 0.991136 0.00578173)
(-0.0236862 0.999719 -0.000141714)
(0.0317352 0.999493 0.00257167)
(0.0612898 0.998115 0.00328982)
(-0.0622117 0.998063 -0.000382512)
(0.0716014 0.997409 0.00697261)
(-0.0231749 0.999728 0.00250608)
(0.00870572 0.999961 0.00178246)
(0.00746192 0.999971 0.00166972)
(0.00285951 0.999995 0.00100123)
(0.0088006 0.99996 0.00182412)
(0.00741686 0.999972 0.00139799)
(0.0192143 0.999814 0.00156363)
(0.00853665 0.999961 0.00246997)
(0.0112694 0.999936 0.00141278)
(-0.0314196 0.999493 0.00524468)
(-0.166201 0.0196757 0.985896)
(-0.106068 0.007592 0.99433)
(0.517737 0.00984281 0.855483)
(0.552477 0.00570348 0.833509)
(0.635138 0.0243905 0.772014)
(0.561232 0.0153564 0.827516)
(-0.00178117 0.999998 0.000871385)
(-0.00269328 0.999996 0.000339659)
(-0.00160082 0.999999 -9.63354e-05)
(0.00138474 0.999999 0.000451339)
(-0.014011 0.999902 -0.000586417)
(-0.00623253 0.99998 -0.000422956)
(-0.00448171 0.99999 -0.00065399)
(-0.0120322 0.999927 -0.000721045)
(-0.00644383 0.999979 -0.000365959)
(0.0303418 0.999155 0.0277325)
(0.113349 0.993281 0.0233551)
(-0.118717 0.992893 0.00831396)
(-0.0241059 0.999709 -0.000418349)
(-0.0461875 0.998894 0.00876579)
(0.355889 0.924498 0.136553)
(0.148481 0.988135 0.0392637)
(0.0122787 0.999717 0.0203803)
(-0.0192654 0.999814 -0.000279035)
(0.0776323 0.996768 0.0206658)
(-0.0127993 0.999877 0.00906173)
(-0.0812017 0.996684 0.00513251)
(-0.0624957 -0.00259634 0.998042)
(-0.113001 -0.0258495 0.993259)
(0.927307 -0.200918 0.315807)
(0.596688 -0.0368562 0.801627)
(0.504157 -0.00704055 0.863583)
(0.567208 -0.0255812 0.823177)
(0.176673 -0.0197376 0.984072)
(0.0349973 -0.0586304 0.997666)
(0.180247 -0.0221492 0.983372)
(0.513698 0.832135 0.208966)
(0.646791 0.595976 0.475892)
(0.618866 0.681707 0.390231)
(-0.231398 0.953062 0.195265)
(0.695456 0.0593677 0.716112)
(0.117287 -0.232507 0.965497)
(0.243775 -0.0132044 0.969742)
(0.658966 0.620289 0.425446)
(0.242323 -0.00549239 0.97018)
(0.693445 0.0726677 0.716836)
(0.242308 -0.00606858 0.97018)
(0.03849 -0.0592093 0.997503)
(0.765831 0.411094 0.494473)
(0.113153 -0.213218 0.97043)
(0.185379 -0.0298562 0.982213)
(0.750259 0.515108 0.414458)
(-0.0240025 -0.0596692 0.99793)
(-0.0256038 -0.0604721 0.997841)
(0.00243386 -0.0368651 0.999317)
(-0.0209747 -0.0636929 0.997749)
(0.0043233 -0.0304341 0.999527)
(-0.0916988 0.993322 0.0700134)
(-0.197715 -0.358909 0.912191)
(0.0477839 0.0255014 0.998532)
(0.0566349 -0.0181413 0.99823)
(-0.134101 0.989877 0.0464771)
(0.0514787 -0.000976122 0.998674)
(-0.0205117 -0.064264 0.997722)
(-0.0826864 -0.291817 0.952894)
(0.00644242 -0.0166441 0.999841)
(0.0243569 -0.053118 0.998291)
(0.0244437 -0.0531973 0.998285)
(0.177434 -0.0193891 0.983942)
(0.0341777 -0.0523663 0.998043)
(0.181394 -0.0185577 0.983235)
(0.644165 0.0654247 0.762083)
(0.254271 -0.00253381 0.96713)
(0.248484 -0.00419986 0.968627)
(0.243066 -0.00533356 0.969995)
(0.649782 0.0655383 0.75729)
(0.24686 -0.00460216 0.96904)
(0.0343651 -0.0523912 0.998035)
(0.18858 -0.0168721 0.981913)
(0.183014 -0.0182144 0.982941)
(-0.021407 -0.0535928 0.998333)
(-0.0214042 -0.0536954 0.998328)
(0.00473602 -0.0374767 0.999286)
(-0.0163525 -0.0590271 0.998122)
(0.0162515 -0.0389558 0.999109)
(-0.0894187 0.995472 0.0322437)
(0.167004 -0.0163191 0.985821)
(0.107633 -0.0206575 0.993976)
(0.0622067 -0.0193998 0.997875)
(-0.0956963 0.994899 0.0319159)
(0.0928736 -0.0208964 0.995459)
(-0.0162328 -0.0591878 0.998115)
(0.040377 -0.0393409 0.99841)
(0.0213157 -0.0393069 0.999)
(-0.0573502 0.998293 0.0110297)
(-0.0383474 0.999202 0.0111889)
(0.119692 0.992242 0.0335995)
(0.206456 0.969024 0.13553)
(-0.0865963 0.996165 0.0125374)
(-0.17339 0.98482 0.00811188)
(0.107032 0.993867 0.0277908)
(-0.111137 0.993736 0.0117129)
(0.212538 0.970287 0.11563)
(-0.0275381 0.999561 0.010947)
(0.9895 -0.079949 0.120406)
(0.987757 -0.0723786 0.138196)
(0.78908 0.0671354 0.610611)
(0.981249 -0.0975969 0.166207)
(0.982761 -0.110876 0.147946)
(0.984252 -0.123352 0.126619)
(0.796511 0.0665951 0.600945)
(0.982955 -0.112575 0.145351)
(0.98558 -0.0619396 0.157469)
(0.987502 -0.0711808 0.140615)
(-0.0567087 0.998331 0.0109359)
(-0.0527688 0.998552 0.0104819)
(0.146605 0.988951 0.0219871)
(-0.156402 0.987672 0.00643841)
(-0.160393 0.98703 0.00677534)
(-0.172589 0.984963 0.00786916)
(0.14591 0.98906 0.0216829)
(-0.16155 0.986841 0.00685966)
(-0.0528071 0.998549 0.0105389)
(-0.052542 0.998564 0.0104577)
(0.815272 -0.579077 0.00100872)
(0.815308 -0.579027 -0.00045189)
(0.0367734 0.0121496 0.99925)
(0.00877996 -0.00416327 0.999953)
(-0.00297332 0.0126134 0.999916)
(0.982643 -0.185298 0.00883812)
(0.99709 0.0482843 0.0589919)
(0.909178 -0.416377 0.00505617)
(0.997652 0.0446802 0.0519016)
(0.0580236 -0.00598009 0.998297)
(0.908286 -0.418349 0.000939264)
(0.0123914 0.00469105 0.999912)
(0.0100505 -0.0016408 0.999948)
(0.81515 -0.579249 0.00092864)
(0.814709 -0.57984 -0.00588263)
(0.0280053 0.000822652 0.999607)
(0.983801 -0.179244 0.00265986)
(0.997642 0.0491301 0.0479305)
(0.910174 -0.414216 0.00278967)
(0.0303157 -0.000163879 0.99954)
(0.998569 0.0490697 0.0212558)
(0.910369 -0.413793 -0.00191907)
(0.815117 -0.579296 -9.09767e-05)
(0.815074 -0.579328 -0.00580942)
(0.00589348 0.00233812 0.99998)
(0.0054754 0.000872967 0.999985)
(0.00984669 0.00350262 0.999945)
(0.00479375 0.000101098 0.999989)
(0.815462 -0.578791 -0.00488437)
(0.815239 -0.579125 -0.000454213)
(0.00655319 -0.00196511 0.999977)
(0.99752 -0.069493 0.0111174)
(0.973854 0.135867 0.182066)
(0.00929145 -0.00054086 0.999957)
(0.00751443 -0.00715286 0.999946)
(0.984625 0.136817 0.108603)
(0.010822 0.000477522 0.999941)
(-0.0540343 0.0329561 0.997995)
(0.0486955 -0.0251733 0.998496)
(0.00403266 0.00192943 0.99999)
(0.00452229 4.15236e-05 0.99999)
(0.00692046 0.00249438 0.999973)
(0.00514464 -0.000684617 0.999987)
(0.0744635 -0.0466505 0.996132)
(-0.0446518 0.0250773 0.998688)
(0.0376392 -0.0527745 0.997897)
(0.209172 -0.0101762 0.977826)
(0.200324 -0.0132892 0.97964)
(0.256498 -0.00181459 0.966543)
(0.613048 0.0685566 0.787066)
(0.264094 0.000894677 0.964497)
(0.0373757 -0.0527901 0.997906)
(0.190676 -0.0163041 0.981518)
(0.197709 -0.0141596 0.980159)
(0.27672 0.00588059 0.960933)
(0.609712 0.0696261 0.789559)
(0.266954 0.00199163 0.963707)
(-0.0217822 -0.0553333 0.99823)
(-0.021813 -0.0552544 0.998234)
(-0.0140815 -0.061778 0.997991)
(0.132086 -0.0234358 0.990961)
(0.0889846 -0.0335225 0.995469)
(0.192427 -0.0131314 0.981223)
(-0.0514769 0.997869 0.0400959)
(0.287604 0.00571135 0.957732)
(-0.0142878 -0.0616502 0.997996)
(0.0481984 -0.0389122 0.99808)
(0.077195 -0.0355708 0.996381)
(0.44567 0.0698863 0.892465)
(-0.0446103 0.998104 0.042404)
(0.325156 0.0164957 0.945516)
(0.0268683 -0.0550054 0.998124)
(0.0270023 -0.0550258 0.99812)
(0.212455 -0.00897432 0.97713)
(0.0419159 -0.0518134 0.997777)
(0.223837 -0.00478322 0.974615)
(0.594608 0.0838698 0.799629)
(0.314768 0.0211455 0.948933)
(0.297941 0.0145442 0.954474)
(0.280361 0.00738367 0.959866)
(0.595248 0.0815645 0.799392)
(0.293081 0.0125998 0.956005)
(0.0423225 -0.0517061 0.997765)
(0.243314 0.00216178 0.969945)
(0.228189 -0.00318868 0.973612)
(-0.0212758 -0.0552233 0.998247)
(-0.0211607 -0.0551664 0.998253)
(0.149423 -0.0184035 0.988602)
(-0.00976867 -0.062113 0.998021)
(0.210756 0.00387173 0.977531)
(0.054794 0.995202 0.0810635)
(0.625966 0.333496 0.704945)
(0.594321 0.236668 0.768616)
(0.484179 0.0961969 0.869665)
(0.0357889 0.996657 0.0734488)
(0.574739 0.1993 0.793697)
(-0.00934189 -0.0620504 0.998029)
(0.311514 0.0544793 0.948679)
(0.234289 0.0141623 0.972064)
(-0.0525637 0.998533 0.0129952)
(-0.0536949 0.998492 0.0114703)
(-0.156122 0.987717 0.00644029)
(0.146181 0.98888 0.0273432)
(-0.154156 0.988023 0.00688458)
(-0.0529437 0.998541 0.010597)
(-0.0536633 0.998495 0.0113176)
(-0.149131 0.98878 0.00857624)
(0.146507 0.988797 0.0285642)
(-0.153784 0.98808 0.00701433)
(0.977882 -0.0298772 0.207012)
(0.9722 -0.0102698 0.233925)
(0.692295 0.0841464 0.716692)
(0.957139 0.019002 0.289005)
(0.967044 -0.0171163 0.254032)
(0.974136 -0.0504727 0.220252)
(0.696194 0.0825185 0.713095)
(0.968143 -0.021711 0.249456)
(0.962487 0.0184247 0.270701)
(0.971201 -0.00705923 0.238157)
(-0.0519791 0.99856 0.0133004)
(-0.0458674 0.998818 0.016064)
(0.158485 0.986385 0.0439099)
(-0.0998839 0.994773 0.0212174)
(-0.130501 0.991357 0.0134537)
(-0.147613 0.989005 0.00895583)
(0.1557 0.986941 0.0413009)
(-0.13343 0.990977 0.0126928)
(-0.0311288 0.999287 0.0213495)
(-0.044576 0.998868 0.0165859)
(0.815135 -0.579242 -0.00575747)
(0.814897 -0.579605 -0.000653799)
(0.00549765 0.00215217 0.999983)
(0.00482684 0.00127506 0.999988)
(0.0108019 0.00345961 0.999936)
(0.984512 -0.175313 0.00139205)
(0.998403 0.051503 0.0232278)
(0.911074 -0.412241 -0.00146226)
(0.998421 0.0507733 0.0240521)
(0.0350375 -0.000106241 0.999386)
(0.910972 -0.412468 -0.000508531)
(0.00574306 0.00208463 0.999981)
(0.00531964 0.00163243 0.999985)
(0.814653 -0.579948 -0.000993582)
(0.814811 -0.579694 -0.00619407)
(0.0375086 0.000166004 0.999296)
(0.984834 -0.173493 0.00123902)
(0.998332 0.0516883 0.0257187)
(0.911131 -0.412117 -0.000771083)
(0.0126744 0.00406485 0.999911)
(0.9983 0.0523434 0.0256215)
(0.911127 -0.41212 -0.00200034)
(0.813825 -0.581108 -0.00180412)
(0.814171 -0.580582 -0.00715733)
(0.00861978 0.00267038 0.999959)
(0.00711961 0.00239028 0.999972)
(0.00598014 0.00222375 0.99998)
(0.00650972 0.00210125 0.999977)
(0.814592 -0.579997 -0.00665937)
(0.814273 -0.58048 -0.00157689)
(0.00360989 -5.87946e-05 0.999993)
(0.998278 -0.0584607 0.00486544)
(0.987823 0.14046 0.0669019)
(-0.0031156 0.00734617 0.999968)
(0.00200081 -0.00132303 0.999997)
(0.986929 0.141101 0.0778592)
(-0.00194417 0.00755778 0.99997)
(-0.0525482 0.0326642 0.998084)
(0.021472 -0.000780159 0.999769)
(0.006564 0.00197987 0.999976)
(0.00468447 0.00160849 0.999988)
(0.00367895 0.00150401 0.999992)
(0.00475884 0.00159978 0.999987)
(0.0233599 -0.002868 0.999723)
(-0.0571612 0.037031 0.997678)
(0.0510913 -0.0502023 0.997431)
(0.306078 0.021921 0.951754)
(0.277753 0.0134685 0.960558)
(0.32123 0.02361 0.946707)
(0.601231 0.104284 0.792241)
(0.34361 0.0318718 0.938571)