/*--------------------------------*- C++ -*----------------------------------*\
| =========                 |                                                 |
| \\      /  F ield         | OpenFOAM: The Open Source CFD Toolbox           |
|  \\    /   O peration     | Version:  2012                                  |
|   \\  /    A nd           | Website:  www.openfoam.com                      |
|    \\/     M anipulation  |                                                 |
\*---------------------------------------------------------------------------*/
FoamFile
{
    version     2.0;
    format      ascii;
    class       volSymmTensorField;
    location    "0.106/solid";
    object      sigma;
}
// * * * * * * * * * * * * * * * * * * * * * * * * * * * * * * * * * * * * * //

dimensions      [1 -1 -2 0 0 0 0];


internalField   nonuniform List<symmTensor> 
24998
(
(152.7 39.3209 62.3802 280.312 128.469 267.168)
(-16.8526 -2.25914 0.512743 -17.2467 -3.34091 -30.898)
(175.284 -3.04203 27.1368 169.1 -2.25335 386.072)
(131.083 0.00252001 11.3537 123.442 -0.818625 280.186)
(154.96 13.8978 31.7426 112.116 -52.5017 346.892)
(451.715 75.0995 -3.88641 1266.87 1.35857 512.626)
(435.525 52.07 -0.539195 1234.84 -3.17836 500.457)
(408.483 41.2728 -0.948088 1179.15 -4.92968 476.516)
(344.961 29.8832 -10.2421 1055.42 53.5938 459.171)
(86.7212 63.8964 92.5174 243.385 117.917 214.69)
(176.94 -2.19357 10.157 162.529 2.2807 376.229)
(358.193 213.794 -8.28507 1357.17 3.82807 506.721)
(-17.5402 -1.61138 -0.762686 -19.9581 -6.2913 -42.4056)
(174.581 -3.9815 32.3883 169.404 -1.72582 389.638)
(452.836 82.3887 -5.59275 1283.59 2.67452 514.049)
(183.985 -0.758918 13.8152 171.737 1.67041 393.773)
(143.508 0.102868 7.30822 134.856 -0.138363 305.712)
(131.533 0.11871 11.4385 123.883 -0.141937 281.068)
(142.849 0.0447624 7.21417 134.238 -0.288006 304.248)
(167.469 18.5923 18.7286 129.609 -19.077 378.919)
(153.478 9.82673 27.6608 124.277 -33.3488 343.838)
(186.324 39.5439 25.2664 116.447 -38.184 425.987)
(360.821 201.972 -5.89258 1347.55 1.02536 508.015)
(353.158 180.422 -1.05736 1322.27 -3.22916 501.755)
(437.885 53.2717 -0.620259 1240.04 -2.92079 502.536)
(351.409 178.953 -0.959495 1317.05 -3.50987 499.793)
(333.045 169.065 -1.37424 1271.26 -5.36458 480.87)
(413.29 43.1277 -0.759326 1189.29 -4.96559 480.509)
(328.949 167.066 -1.61315 1261.08 -5.37322 477.146)
(281.872 154.078 -8.00696 1144.31 44.6171 470.105)
(354.345 22.6776 -8.13781 1083.12 36.3882 459.67)
(271.568 159.702 -15.1792 1096.1 71.3069 477.493)
(-88.0539 11.4612 3.85546 -118.284 -58.6533 -223.519)
(-421.917 -142.096 240.442 -225.831 74.7674 -988.528)
(99.2967 -0.826417 0.330038 148.903 74.4089 252.764)
(218.929 -14.6138 31.7146 119.474 76.4265 572.221)
(430.817 133.612 -10.7051 1179.77 42.4035 451.302)
(191.447 9.95638 -0.34566 184.87 -30.2845 392.069)
(251.214 5.32601 -52.5429 229.425 -11.9921 521.599)
(179.657 -0.740556 -8.94376 166.646 -1.43613 374.918)
(139.831 0.0646552 13.3386 132.65 -0.922065 301.011)
(172.22 0.770122 -4.70606 159.75 -0.0846279 360.002)
(169.917 -0.781251 -2.74099 157.584 -0.563784 355.489)
(131.093 0.0145916 11.3887 123.473 0.798633 280.246)
(302.575 -3526 -8466.08 -3244.22 18167.6 -340956)
(129.354 -29.1729 -49.5969 82.4329 -90.3122 311.302)
(-86110.9 -20482.3 -73137.4 -39286.5 -11905.2 -261867)
(17577.2 2431.42 -11419.2 23553.4 223.918 52632.6)
(-8226.87 299.993 -49352.6 9396.39 -6346.24 32333.8)
(446.33 60.8494 -1.48237 1258.13 -1.30343 509.515)
(1067.42 -3290.74 -5132.08 -2421.85 10292.4 -187197)
(840.91 -3579.07 -6709.76 -2873.62 13948.5 -258358)
(-5456.84 -167.424 -45854.7 8566.6 -5521.09 10169.9)
(-4770.19 -368.133 -41298.8 7718.48 -5432.8 -1689.1)
(427.769 48.5999 -0.542511 1219.24 -3.96979 493.328)
(608.473 -1516.83 -1960.88 -929.624 3282.81 -56733.3)
(960.514 -2494.42 -3342.49 -1685.45 6219.39 -112452)
(-3760.57 -546.934 -33601.6 5561.68 -5199.32 -7516.13)
(-2834.19 -642.31 -25755.8 3317.09 -4470.47 -5612.08)
(388.658 32.9344 -2.56442 1140.55 -0.795517 463.971)
(557.926 -4.75639 -32.7331 464.023 -41.3067 738.69)
(204.669 -527.444 -787.104 -196.601 1117.58 -12868.7)
(-1824.07 -672.734 -12924.1 804.2 -2403.28 -387.559)
(10.3908 -1790.88 -515.489 -46.4512 -14.4525 111.33)
(-74.5846 24.4372 19.6559 -112.138 -61.5726 -235.287)
(206.126 -1.69095 26.6994 109.47 78.7638 544.444)
(299.669 235.943 0.932867 1217.26 54.0988 427.171)
(-216.214 -60.0324 134.407 -99.1714 90.9818 -380.014)
(265.467 6.25523 -63.1523 241.195 -11.395 546.453)
(-38.7136 -175.227 -3.61589 -286.44 166.466 -816.506)
(238.089 -1.96821 19.1491 240.372 30.4784 533.219)
(307.868 8.21527 -63.8372 263.625 -0.626798 593.068)
(-49.2388 -95.4723 42.5388 -90.1883 114.206 -254.216)
(333.679 232.915 -10.2991 1287.02 34.3995 461.02)
(88.7416 -12.2757 -16.5051 127.482 62.6058 215.677)
(187.112 15.5738 19.7268 176.102 -17.441 376.067)
(244.836 -6.74085 16.9657 251.126 30.8671 551.506)
(156.86 6.86249 12.9397 143.756 -14.6682 294.598)
(165.05 11.73 34.698 144.136 -9.10973 309.469)
(446.774 121.515 -13.6172 1230.04 27.2153 485.127)
(287.495 4.91206 -54.7915 252.742 -4.84584 564.301)
(151.297 0.168029 8.36148 142.939 -0.348471 322.851)
(221.535 -0.00504114 -33.7217 201.722 -0.451213 450.13)
(172.632 -0.919307 -4.79329 160.121 -0.785389 360.706)
(178.997 0.915082 -8.48542 165.949 -0.651841 373.61)
(150.676 0.155578 8.24354 142.037 -0.451719 321.742)
(214.861 -0.0691839 -31.6056 196.284 -0.30432 439.462)
(220.632 -0.0547859 -33.292 200.965 -0.198908 448.901)
(139.168 -0.00746848 13.0869 131.793 -1.49479 299.523)
(214.127 -0.0799453 -31.4405 195.65 -0.115627 438.084)
(142.831 0.0606259 7.21898 134.192 0.276569 304.332)
(212.43 0.111773 -30.6858 194.097 -0.231766 435.579)
(142.411 -20.828 -32.1056 100.838 -66.4919 323.942)
(169.943 0.898913 -2.65792 157.53 0.0347452 355.515)
(143.733 0.0832016 7.38919 134.985 0.0801191 306.492)
(191.72 -26.2841 -51.8375 127.28 -40.1771 438.273)
(212.522 0.0216624 -30.6296 193.931 -0.204374 435.928)
(131.637 -0.0855819 11.4699 123.996 0.118536 281.28)
(95.5486 1081.02 -11236.5 2884.39 18149.5 -339157)
(164.284 -59.0241 -83.1578 68.183 -73.0034 432.988)
(-3281.18 1781.43 -8995.93 -34.7911 9357.31 9026.78)
(-4037.8 1087.83 -45700.9 8087.29 -6667.11 -10969.9)
(-23000.8 -22285.3 -43011.2 30046.5 8162.46 -145327)
(-5952.84 -4412.39 6405.45 617.814 16699.8 -309962)
(-48988.6 -18593.1 -56726.8 -48718.8 9201.2 -361266)
(2283.33 1208.93 5215.26 -2946.02 16752.4 -285517)
(36004 -1236.38 9063.15 18334.1 -5623.52 121255)
(3386.71 1654.43 -10248 -6241.78 -4502.59 91234.3)
(-75502.2 -10916.6 -35276.3 -65183.8 39631.3 -406962)
(343.147 -3538.83 -8360.15 -3213.1 17857.9 -336179)
(811.95 -3588.63 -6801.31 -2901.7 14183.4 -263197)
(78.6648 1058.83 -11120 2894.6 17838.4 -334555)
(-2047.29 657.371 -42534.4 7371.33 -5782.74 -19292.2)
(-3573.61 959.503 -45534.2 7931.43 -6436.96 -12234)
(-171.847 962.792 -9415.6 2864.43 14116.6 -264201)
(-5945.47 -4409.18 6252.48 618.7 16381.5 -305181)
(-5310.23 -4243.12 4721.11 806.188 12707.9 -232901)
(2278.61 1185.23 5046.63 -2930.39 16430.1 -280860)
(2784.98 1033.42 -10938.6 -5935.51 -3719.46 78792.3)
(3097.79 1491.72 -10099.5 -6193.36 -4286.45 89494.6)
(1905.09 1047.97 3393.02 -2821.23 12710 -211714)
(55471.3 -3489.4 7610.92 24885.8 -12083.4 191595)
(4166.82 -1840.56 -5821.41 -10454.8 -2908.75 152674)
(-5589.92 -135.41 -46413.8 8641.3 -5551.26 12312.8)
(-7730.26 206.842 -49303.5 9202.53 -6149.02 29652.4)
(3832.16 -1848.4 -7045.2 -9445.53 -2216.86 126721)
(3869.83 -1882.37 -5703.67 -10262.8 -2722.48 149053)
(358.68 188.79 -2.15115 1339.86 -1.8345 507.908)
(357.799 185.563 -1.62338 1334.44 -2.43577 506.54)
(444.271 58.4106 -1.06542 1252.03 -1.83991 507.848)
(-346.272 861.396 -7480.43 2625.63 10149.5 -190020)
(-1981.57 642.342 -42016 7288.05 -5759.79 -20011.7)
(-200.566 955.619 -9307.2 2850.7 13876.4 -259519)
(-1780.26 520.697 -37797.2 6451.08 -5785.55 -22582.5)
(-4373.61 -3715.41 3197.15 901.428 8917.21 -160188)
(-5276.12 -4221.61 4621.01 809.94 12479.7 -228190)
(1518.53 909.417 1872.08 -2428.78 8839.89 -143250)
(2779.71 1002.65 -11135.7 -5890.44 -3708.78 77204.7)
(1894.81 1037.72 3293.75 -2799.38 12477.3 -207228)
(2666.65 784.686 -12052.2 -5317.69 -3861.49 64315.8)
(1083.02 -3265.35 -5028.93 -2387.8 10043.5 -182576)
(976.744 -2555.97 -3437.08 -1736.63 6440.43 -116574)
(-362.5 848.793 -7358.41 2597.6 9893.85 -185473)
(-1533.78 245.853 -31514.4 4876.54 -5772.1 -19633.2)
(-1753.46 492.997 -37098.6 6290.95 -5800.85 -22561.1)
(-348.748 658.206 -5413.13 2102.43 6226.07 -119748)
(-4321.16 -3670.99 3096.07 895.089 8677.54 -155890)
(-3132.29 -2764.41 1764.19 796.245 5248.46 -96146.1)
(1503.47 895.815 1776.53 -2388.39 8594.32 -139240)
(2392.35 417.731 -11679.8 -4022.51 -4104.78 45340.7)
(2638.71 745.591 -12095.5 -5193.12 -3901.94 62180.2)
(1074.9 676.72 555.939 -1713.02 5091.28 -84391.7)
(3848.63 -1819.56 -7304.49 -9335.92 -2204.81 123547)
(3806.62 -1570.17 -8592.64 -8237.23 -2318.96 99549)
(-3884.55 -531.485 -34579.8 5856.61 -5254.53 -7390.48)
(-4671.43 -393.865 -40550.9 7540.57 -5424.8 -2875.56)
(3426.61 -1249.94 -8647.01 -6125.49 -2556.71 68069)
(3777.37 -1531.74 -8685.24 -8023.33 -2352.26 95827.3)
(345.147 175.16 -0.98859 1301.36 -4.23764 493.058)
(342.627 173.795 -1.05088 1294.94 -4.60291 490.418)
(424.683 47.4082 -0.559277 1212.86 -4.29486 490.547)
(-203.689 385.287 -3432.86 1394.94 3052.23 -59026.3)
(-1492.34 200.351 -30603.4 4639.45 -5733.04 -18852.3)
(-351.059 641.085 -5291.61 2058.81 5999.82 -115605)
(-1158.48 -149.615 -23344.5 2867.49 -5034.82 -11739.5)
(-1746.81 -1551.21 688.935 539.736 2373.4 -44994.6)
(-3054.92 -2694.67 1680.36 782.098 5042.53 -92531.3)
(622.498 386.803 -268.423 -800.087 2187.22 -38726.4)
(2350.33 362.088 -11515 -3818.49 -4107.59 42726.4)
(1053.16 657.511 485.447 -1655.87 4880.96 -81115.1)
(2027.62 -54.3737 -9624.13 -2268.91 -3762.37 24189.8)
(587.404 -1453.63 -1884.06 -881.19 3122.06 -53504.7)
(226.54 -574.281 -841.895 -230.27 1211.14 -14711.9)
(-195.922 366.155 -3322.2 1348.56 2890.95 -55723)
(-809.395 -483.424 -13090.2 1075.53 -3085.89 -3303.82)
(-1108.6 -201.76 -22175.2 2615.21 -4861.8 -10600.8)
(-10.4657 135.108 -1657.98 761.76 1052.83 -15784.7)
(-1670.55 -1475.39 634.501 518.289 2233.68 -42318.3)
(-582.873 -479.785 135.773 279.74 700.486 -10724.6)
(601.04 367.641 -301.736 -740.525 2048.03 -36369)
(1611.95 -438.231 -5899.13 -710.717 -2352.98 6677.51)
(1978.31 -113.965 -9249.09 -2046.87 -3649.3 21653.9)
(273.769 137.745 -415.764 5.43685 568.741 -8901.06)
(3356.71 -1211.85 -8546.89 -5805.95 -2569.93 63944.8)
(2792.85 -960.842 -7235.65 -3411.92 -2412.93 35619.8)
(-1917.2 -685.598 -14478.1 1015.21 -2697.78 -869.35)
(-2700.72 -654.547 -24477.7 2994.82 -4306.47 -5056.86)
(2093.95 -715.352 -4563.71 -1033.66 -1511.31 9770.61)
(2704.81 -928.593 -6967.58 -3071.85 -2345.91 31838.2)
(312.242 159.363 -2.53655 1221.63 -1.00055 465.96)
(305.102 156.576 -2.93634 1205.72 3.83107 463.63)
(380.141 29.1876 -3.44543 1125.86 3.60051 460.749)
(531.728 -67.5208 -21.951 483.012 -34.5661 648.872)
(-774.028 -498.391 -11689.9 907.883 -2756.31 -2491.78)
(-3.68944 122.665 -1557.07 729.945 964.458 -13877.1)
(336.934 -1713.3 -521.295 -39.3702 -29.9637 101.308)
(666.945 -58.1255 -31.3472 490.47 -18.2811 800.35)
(-528.881 -429.79 116.695 268.151 636.72 -9251.53)
(554.74 -46.8798 -14.8264 466.906 -25.1572 637.021)
(1559.48 -456.307 -5312.21 -571.748 -2100.01 5119.42)
(259.654 125.881 -402.746 44.1784 510.745 -7633.71)
(1656.72 -1735.26 -288.267 109.207 -5.9601 80.622)
(2014.13 -678.329 -4137.96 -823.258 -1340.66 7483.58)
(1456.14 -1813.4 -283.538 58.556 16.8948 81.308)
(-75.6137 3.06972 9.84562 -38.9218 -13.139 -104.187)
(-133.961 -72.4372 25.5419 -33.1834 81.3771 177.612)
(-160.854 -79.3124 -72.118 -140.485 -12.5101 -299.321)
(856.131 49.2144 17.2696 918.967 -38.9732 615.082)
(122.943 24.2592 60.7756 243.882 117.278 244.334)
(192.829 -17.5463 98.5836 198.294 217.608 511.681)
(281.404 107.788 47.6682 681.787 133.694 287.174)
(537.544 -12.7115 68.9074 900.454 184.244 358.295)
(137.437 3.03267 124.105 156.316 138.961 237.305)
(286.544 123.19 48.6122 599.193 108.132 231.757)
(34.2381 -1.06504 12.2682 30.4394 -3.39588 62.5791)
(167.97 1.33172 18.7503 159.169 -6.24497 365.974)
(33.0402 0.0764802 11.7117 27.162 -2.42117 59.7858)
(-12.3318 -0.00260975 2.68692 -18.5724 -0.174227 -49.7002)
(129.805 0.063172 11.1107 122.19 0.322329 277.13)
(-13.6132 -0.0224847 2.36046 -19.8312 0.00164685 -52.6054)
(12.9398 2.17087 13.9456 7.57348 1.04978 13.2482)
(505.305 -38.4689 -245.145 -192.017 -872.155 571.302)
(88.6089 -12.6291 8.5897 208.431 80.4519 117.513)
(544.287 -2.61793 -5.28114 590.999 3.07156 332.761)
(487.793 88.763 -2.03525 875.81 4.19898 405.469)
(623.446 -112.003 -9.85369 1439.29 -9.22266 616.334)
(450.379 69.2294 -3.0013 1262.03 1.95675 511.477)
(570.777 4.73643 -5.6867 615.605 6.40726 346.654)
(623.239 -112.574 -4.75909 1444.29 7.45194 613.748)
(484.452 82.4504 -3.24417 870.32 2.70754 404.026)
(512.802 -5.38697 -0.520027 558.704 -0.073278 320.419)
(462.893 60.5981 -0.230172 842.922 -2.14147 391.311)
(604.633 -116.419 -0.998334 1417.45 -2.26488 605.869)
(433.091 50.9228 -0.527093 1229.94 -3.3052 498.254)
(523.289 -3.61777 -0.462252 569.12 0.501867 326.541)
(599.775 -116.374 -1.20279 1410.29 -1.65981 602.04)
(459.826 58.9586 -0.300983 838.696 -2.33007 389.19)
(464.172 -7.92665 -2.80352 508.773 1.97253 297.983)
(430.303 45.2528 -0.372893 796.409 -3.07922 368.698)
(568.567 -117.098 -1.90523 1359.69 -3.18899 580.092)
(402.882 39.0243 -1.31227 1167.6 -4.4505 472.265)
(484.76 -4.97111 -1.26593 529.658 1.04857 307.023)
(556.6 -117.494 -3.14979 1340.57 -2.80431 574.499)
(423.932 42.0504 -0.867071 787.067 -2.44419 364.704)
(450.564 5.69619 -26.642 493.653 23.8454 381.953)
(334.665 0.999862 -9.40949 703.215 36.0969 330.8)
(485.212 -97.5046 -24.5315 1227.75 30.1301 628.22)
(323.218 54.7909 -11.4153 976.695 78.8993 459.436)
(419.343 -11.8759 -26.0956 465.313 28.1205 315.949)
(473.772 -41.2344 -28.4291 1138.12 -5.15121 657.246)
(309.451 11.7185 1.05301 665.694 49.4374 324.228)
(14.8752 44.4655 61.5566 222.471 82.2862 87.7748)
(103.603 84.2993 127.031 179.34 60.8963 134.595)
(176.542 0.230613 134.898 192.586 227.014 499.575)
(151.073 156.388 72.0102 642.691 130.357 250.593)
(448.8 -84.8935 111.598 963.448 205.565 364.28)
(74.0214 12.7742 165.957 98.0881 100.447 184.021)
(64.1938 272.706 132.871 381.054 82.6622 184.278)
(146.444 7.94913 13.7841 95.7662 52.5145 358.974)
(269.064 0.184806 0.24222 250.191 2.45958 592.322)
(226.498 -2.58207 0.933713 199.786 27.5333 504.296)
(211.226 69.4761 2.87483 380.765 -9.49613 144.674)
(355.594 224.634 -5.27303 1355.6 11.8723 500.063)
(91.7636 425.787 -8.89633 783.497 6.57791 256.624)
(572.878 -39.6948 -16.6124 1566.6 -14.5129 631.764)
(574.287 -20.8793 -11.3426 1587.73 16.8859 618.314)
(267.235 55.1859 -10.8556 439.822 -1.34405 204.214)
(83.3703 436.751 -0.411113 773.174 7.72867 247.965)
(-20.6073 -11.3153 -12.3707 -15.2671 -12.3575 -85.1392)
(-61.4575 13.8414 -8.27276 -50.833 42.4699 -70.5653)
(24.8344 1.68665 -34.258 18.3118 39.3966 -3.93021)
(180.746 18.436 47.2231 188.324 4.06132 468.062)
(43.8192 -2.24242 14.4953 40.0724 -6.32018 85.509)
(116.058 0.396176 35.8458 97.384 -3.44879 254.564)
(558.874 -1.87546 -13.2434 615.213 7.09021 339.541)
(454.256 92.9235 -8.77994 1291.54 10.851 511.872)
(487.436 91.0758 -1.91197 881.011 6.90745 405.82)
(626.55 -108.524 -13.1999 1461.84 -16.3421 618.485)
(561.595 1.43503 -5.81457 608.537 6.70975 340.85)
(636.306 -90.4287 -16.6735 1503.47 17.5426 611.615)
(488.794 98.5063 -8.35187 886.361 9.54387 406.977)
(264.433 1.1938 0.123048 248.685 -2.54944 580.899)
(181.923 0.0355767 13.4243 171.452 -4.05372 393.736)
(241.841 0.195495 6.12475 232.486 -1.89568 532.621)
(146.318 0.128534 7.66498 137.576 -0.404381 312.002)
(218.071 -0.00439811 0.6602 210.21 -0.33815 482.142)
(220.837 -0.0329654 0.905605 212.804 -0.414017 488.287)
(134.617 0.0661381 12.0012 126.947 -1.13466 288.431)
(-12.0895 -0.036552 2.78057 -18.3621 -0.110785 -49.2024)
(-9.6347 -0.0309747 3.46433 -15.9992 -0.291157 -43.8411)
(217.389 0.02624 0.620781 209.555 -0.229419 480.682)
(141.682 0.0434325 7.05398 133.12 0.0683703 301.63)
(216.355 0.0136859 0.573471 208.649 -0.0366632 478.517)
(151.529 2.25603 9.89566 139.592 -1.76373 327.658)
(254.381 -16.9222 -12.0778 190.121 -50.284 566.699)
(228.438 0.511706 1.90223 213.151 -5.5564 509.27)
(139.409 0.814274 14.6355 130.74 -1.13449 301.214)
(8.78033 1.81665 11.6554 2.97559 1.33788 2.26874)
(-7.44181 0.261325 4.33744 -13.7495 0.637062 -38.5397)
(292.062 -53.6611 -44.2659 176.538 -94.7378 628.713)
(686.446 276.467 -150.411 -26.0027 -493.871 1319.59)
(654.667 -994.304 -1055.7 -645.314 -821.393 1240.22)
(275.855 52.039 -1.49031 444.439 -3.35039 212.876)
(106.61 407.004 -6.36256 796.67 1.39387 264.595)
(572.057 -44.6368 -12.4786 1548.22 -9.49953 631.456)
(360.918 195.584 -2.2514 1343.36 0.678676 508.597)
(571.529 -44.7491 -3.06483 1548.79 5.70795 630.341)
(287.535 49.8114 -8.45198 458.098 -1.67747 219.292)
(108.454 400.231 -0.685132 794.12 -2.54179 268.233)
(274.948 49.7977 -0.681686 442.407 -1.32012 214.254)
(354.739 182.009 -0.981011 1326.71 -2.77343 503.562)
(106.104 383.832 -1.37826 778.162 -3.04012 265.038)
(558.313 -48.6024 -1.56778 1525.17 -2.81995 624.055)
(562.22 -47.8824 -1.70265 1533.7 -1.01484 627.007)
(275.866 48.6133 -2.05704 442.333 -1.45764 214.894)
(106.46 386.048 -1.27251 780.511 -2.79696 266.153)
(530.192 -3.29697 -1.04931 576.311 0.95779 329.756)
(440.124 54.6976 -0.751693 1244.64 -2.3783 504.454)
(465.849 62.1913 -0.340116 847.075 -1.80295 393.304)
(606.373 -116.423 -1.31727 1420.85 -2.5487 607.102)
(520.723 -4.89308 -0.602904 566.71 0.0820778 324.73)
(611.113 -116.03 -1.41925 1429.51 -0.576718 610.06)
(468.738 64.0544 -0.519076 850.963 -1.40386 395.217)
(271.157 48.2562 -1.87509 436.609 -1.50053 211.241)
(105.772 381.582 -1.44129 775.375 -3.19898 264.013)
(556.763 -48.6816 -1.56343 1521.67 -2.71419 622.844)
(349.438 177.715 -0.8343 1312.02 -3.60944 497.719)
(552.245 -48.815 -1.29996 1514.05 -1.88725 619.024)
(275.833 48.4746 -0.850044 441.99 -1.33948 214.869)
(104.555 380.05 -0.950094 771.667 -3.6159 262.65)
(261.138 46.7743 -1.05371 424.544 -1.63275 205.142)
(336.611 170.827 -1.24823 1280.13 -5.17229 484.351)
(94.4226 369.052 -1.73705 743.412 -4.95235 251.373)
(526.738 -50.7164 -2.21875 1468.36 -3.51636 599.423)
(534.89 -50.0335 -1.98249 1482.98 -3.25749 604.999)
(254.638 46.1213 -2.20789 416.799 -1.9322 202.174)
(96.6382 371.295 -1.83251 749.517 -4.59129 253.689)
(496.957 -4.64738 -0.614314 542.279 0.504486 312.348)
(417.508 44.7182 -0.662493 1198.15 -4.81291 484.168)
(435.753 47.8373 -0.294663 804.606 -3.30408 372.359)
(571.934 -116.96 -1.89344 1365.22 -3.14722 582.091)
(481.219 -6.89732 -1.21319 526.351 0.530561 304.16)
(580.743 -116.727 -1.32937 1379.71 -2.83925 587.814)
(440.707 50.0786 -0.211574 811.858 -3.34358 375.73)
(243.925 45.2044 -1.92448 404.343 -1.69777 200.395)
(91.8376 366.614 -2.21104 736.31 -4.69462 249.094)
(523.612 -50.9482 -2.57978 1462.81 -3.72147 597.506)
(324.175 164.781 -1.85576 1249.43 -4.89688 473.22)
(512.409 -51.8371 -3.28644 1443.46 -3.33736 592.257)
(253.82 45.8704 -1.14846 415.891 -1.72038 202.217)
(88.8682 363.866 -2.11874 728.169 -4.39195 246.7)
(197.389 43.1465 7.54736 352.821 7.5526 238.115)
(289.611 153.095 -4.77293 1169.62 25.1553 465.11)
(61.4624 353.107 -3.71098 645.823 53.1766 267.919)
(442.421 -40.6802 -19.7031 1323.65 24.6351 646.861)
(459.692 -50.386 -9.94743 1363.32 10.631 609.683)
(155.47 45.0556 15.0252 305.912 19.9911 328.835)
(67.1137 352.647 -2.07586 667.018 28.6487 253.36)
(420.484 -9.3344 -15.3323 464.803 14.6852 296.825)
(362.427 22.6207 -6.12491 1097.91 21.6959 458.703)
(355.87 4.84309 -8.94771 721.691 27.5931 339.09)
(486.787 -105.553 -21.4175 1238.71 27.979 616.091)
(408.364 -15.1401 -25.1824 453.882 26.3508 305.429)
(501.73 -115.972 -12.4287 1266.31 12.5991 586.53)
(369.674 10.9231 -7.3664 730.467 18.2829 343.367)
(63.7723 37.7593 -11.1252 197.326 -0.527845 640.245)
(53.3173 356.172 -9.74079 605.797 93.3372 298.878)
(439.279 -34.0147 -25.4177 1305.66 25.5676 663.323)
(247.847 183.944 -34.2917 975.813 117.291 496.214)
(426.41 9.76663 -43.8592 1184.26 -17.5644 710.405)
(147.958 44.3935 17.0978 298.802 21.0228 353.97)
(56.5339 362.969 -31.2414 524.847 169.179 366.135)
(-76.7872 -2.03002 2.83425 -81.8616 -31.4296 -147.092)
(-190.744 42.4416 64.5377 -232.736 -61.5562 -440.564)
(-144.397 -69.7505 -52.0445 -255.675 -85.3641 -450.548)
(-100.534 -43.2841 23.1917 34.5326 72.1322 165.369)
(-158.74 -191.767 -205.054 -71.9917 -4.05987 -341.153)
(-269.16 77.1739 121.225 -274.812 -94.895 -541.631)
(8705.02 -2626.28 -5350.3 3085.58 3756.92 5724.63)
(-92.4754 -150.154 -123.825 -424.993 -215.061 -743.539)
(80.0392 -3.90308 5.12599 132.454 70.4784 171.507)
(301.359 -6.81832 -12.0111 322.877 32.9241 842.014)
(140.513 -10.3048 155.084 169.274 131.735 343.545)
(324.351 200.999 20.0132 507.259 41.5121 216.526)
(169.517 -15.8477 68.2399 203.295 189.045 431.19)
(277.873 -19.8193 12.1706 275.463 -27.8007 716.77)
(554.673 -50.0131 134.614 562.266 314.568 156.286)
(139.229 -32.3501 146.296 132.038 193.214 331.608)
(760.441 25.559 -0.131707 819.41 -54.4097 479.346)
(407.293 137.87 6.21889 1054.87 74.2042 399.846)
(618.781 -89.1915 -12.8345 1332.94 1.02528 554.93)
(489.388 155.681 -13.6747 881.688 23.6387 394.119)
(619.525 -44.53 29.7857 1158.64 109.247 444.339)
(627.922 5.90724 1.21094 676.476 -0.905669 390.468)
(485.398 174.563 -22.6718 864.476 32.1859 373.153)
(983.579 -50.5649 1.56354 1252.21 -8.42327 672.705)
(946.901 -17.3252 33.3884 1161.96 16.8938 613.015)
(327.116 -6.05664 -16.9243 327.661 6.25085 869.425)
(261.608 -13.427 -6.53632 267.023 -40.944 662.759)
(223.359 -45.8069 131.585 232.941 134.411 649.32)
(418.056 217.96 0.124997 521.911 23.2873 278.463)
(422.559 223.969 -23.1418 548.269 32.159 280.297)
(189.281 -0.343858 -18.2531 177.078 -4.68512 394.588)
(186.809 1.30055 -16.3031 174.291 -3.14417 389.891)
(22.4128 -0.664633 -3.30439 27.4441 -2.92256 64.6021)
(20.5701 -0.097739 -4.24136 24.5956 -1.45975 63.0613)
(159.339 1.09193 18.579 152.072 -7.60571 349.653)
(-4.06352 -0.229008 5.8025 -10.913 -0.650884 -33.3362)
(25.501 -0.53193 11.9089 18.3084 -4.92159 38.6237)
(-11.4335 -0.209783 -11.2356 -7.39804 -0.90053 -14.0168)
(14.1499 -0.384218 -5.70148 18.1883 -2.90362 48.6157)
(170.619 -0.787009 -3.85806 158.329 -0.541721 356.784)
(170.484 0.906914 -3.72887 158.198 0.149299 356.542)
(-20.4815 0.040325 -13.4871 -16.5925 -0.0399329 -34.9197)
(-21.7434 -0.0680756 -13.7993 -17.8448 -0.13669 -37.8304)
(129.796 -0.0541539 11.1144 122.178 -0.348128 277.139)
(-13.5448 0.00535858 2.35262 -19.747 0.203362 -52.4729)
(-13.6976 -0.00846172 2.32834 -19.9042 -0.109161 -52.7785)
(-21.8545 -0.0415322 -13.9069 -17.9021 0.048041 -37.9696)
(-21.8249 0.0377999 -13.8265 -17.9216 0.0262605 -38.0055)
(-147.442 -3462.01 -10354.2 -3140.57 21902 -371863)
(-993.204 -435.669 -1130.16 -818.022 -694.155 -733.205)
(514.22 -3251.65 -9788.32 -3649.84 23256 -379206)
(-1100.06 -671.391 -1678.13 -589.118 -582.22 -1071.45)
(-19697.1 2786.19 -30633.1 705.049 -6679.75 229211)
(-16581.1 3233.86 -30282.8 885.668 -7187.63 253058)
(6.45786 1.21605 -5.02087 12.0131 2.00846 33.2423)
(78.2735 -26.5609 -20.8139 184.031 77.4393 128.446)
(551.701 -211.534 -533.944 -896.203 -1587.14 109.013)
(-6732.67 607.543 -44548.7 13712.7 -6634.62 40601.7)
(81599.9 -333.698 -29125.9 62692.9 -12570.5 246247)
(-3199.23 3363.57 -29725.6 3759.84 -7390.48 242055)
(122.02 -29.3068 -19.6846 313.624 156.614 136.724)
(-9671.45 2991.17 -29778.7 3234.93 -6557.52 216149)
(-9123.1 964.632 -46641.7 10522.2 -7366.86 38798.7)
(-5750.41 3287.34 -29373.4 3638.74 -7282.94 239338)
(86019.9 -1742.09 -39980.4 59457.3 -5813.3 259100)
(-14039.8 3411.07 -30882.2 1018.74 -7270.13 255951)
(113.568 -56.3793 -49.1827 287.777 159.68 146.363)
(401.375 154.45 -3.76931 519.798 8.72353 274.432)
(395.954 143.649 1.22983 518.18 4.11222 273.214)
(1037.96 -51.8181 -8.16806 1363.02 -4.96424 710.079)
(1043.31 -51.0874 -5.00171 1373.84 5.47923 717.264)
(546.153 -1.39279 -4.54583 593.105 3.45309 334.564)
(448.452 64.3588 -2.20063 1262.28 0.502574 510.752)
(617.956 -115.422 -3.0971 1439.92 -4.04975 614.676)
(477.213 71.5354 -0.903671 862.196 0.549686 400.239)
(623.103 -112.782 -4.16741 1451.14 4.37334 614.62)
(536.166 -3.47121 -1.78433 582.318 1.57409 331.237)
(480.201 75.4803 -2.1489 865.891 1.61174 401.939)
(1037.7 -51.7734 -2.58721 1368.35 -2.25883 718.353)
(1047.27 -50.8534 -4.19855 1381.48 3.13204 722.479)
(389.426 132.514 1.85811 515.991 1.37799 270.904)
(393.283 139.973 -3.29787 516.67 4.40006 271.99)
(1000.86 -3471.57 -5883.11 -2653.24 12022.5 -220027)
(981.989 -3497.58 -5981.73 -2691.35 12265.8 -224782)
(-14818.6 1878.74 -27896.7 594.072 -5646.54 112554)
(-15829 2128.92 -29390.2 643.205 -5824.23 136296)
(-7662.52 2553.91 -29833.3 2971.35 -5778.9 156953)
(-5140.18 -260.174 -44042.6 8284.23 -5466.39 4373.68)
(-7296.43 2362.89 -28798 2858.63 -5626.52 133606)
(-16736.8 2365.61 -30753.5 672.929 -6045.6 165281)
(-15954.1 2160.5 -29582.7 648.053 -5850.79 139824)
(-6822.95 2088.98 -27260.9 2653.03 -5488.93 108409)
(-5045.83 -290.655 -43391 8166.52 -5455.45 2670.64)
(-7242.79 2332.19 -28625.2 2838.08 -5607.74 130360)
(377.05 119.114 -2.29662 507.232 -0.866616 265.139)
(373.186 115.407 2.1677 503.244 -2.08442 262.918)
(1019.49 -51.752 -0.978701 1346.74 -0.744318 708.564)
(1013.54 -51.6248 -1.12684 1340.15 -0.352638 704.969)
(515.303 -4.11455 -0.384434 561.079 0.382726 322.165)
(430.546 49.7634 -0.533247 1224.94 -3.617 495.888)
(592.44 -116.587 -1.24431 1398.45 -2.58657 596.344)
(453.224 55.6953 -0.237485 829.523 -2.83156 384.436)
(598.126 -116.463 -1.03316 1407.93 -1.89488 600.679)
(504.472 -5.72968 -0.474608 550.165 -0.129451 315.724)
(456.647 57.3186 -0.188701 834.317 -2.58836 386.888)
(1003.77 -51.633 -1.12894 1328.56 -0.831732 698.817)
(1011.56 -51.6573 -1.01709 1337.85 -0.448632 703.779)
(366.992 110.399 2.16096 497.128 -2.51744 259.255)
(371.299 114.276 -2.21748 501.696 -1.4174 261.822)
(789.126 -1985.67 -2571.68 -1284.05 4543.19 -81169.4)
(817.507 -2056.7 -2658.15 -1337.92 4738.11 -84898.5)
(-6874.45 126.072 -17585.1 121.642 -4151.62 32222.9)
(-8889.09 558.025 -20405.2 247.437 -4666.48 45395.1)
(-5317.92 1203.07 -22831.2 1891.4 -5096.25 62188)
(-3367.62 -591.823 -30465.5 4625.22 -4969.68 -7229.29)
(-4529.2 746.715 -20478.9 1475.23 -4782.15 46633.1)
(-11116.4 1036.91 -23212.5 382.508 -5094.02 63548.6)
(-9178.22 618.604 -20779.3 264.352 -4728.31 47483)
(-3594.49 200.763 -17365.9 971.999 -4242.62 31595.4)
(-3229.21 -606.938 -29343.5 4302.86 -4867.03 -6934.49)
(-4412.18 678.722 -20115.6 1412.98 -4726.4 44591.3)
(347.799 96.2149 -2.06772 478.262 -1.5552 248.251)
(340.415 89.1737 1.68272 470.713 -0.863364 244.39)
(971.938 -51.6927 -1.92822 1290.82 -0.811909 681.549)
(956.055 -51.7367 -3.18288 1272.22 -0.570564 675.529)
(468.385 -5.52678 -3.07456 512.707 2.63327 301.813)
(396.291 36.2602 -1.8592 1154.66 -3.26525 467.967)
(535.194 -118.108 -5.67609 1309.18 -0.228393 570.694)
(406.338 32.4601 -2.62073 764.472 1.02622 355.808)
(551.918 -117.717 -3.47382 1333.43 -2.50217 572.959)
(440.539 -9.49918 -6.4395 484.851 5.34513 292.258)
(415.995 37.8588 -1.57334 776.366 -1.23174 360.361)
(928.796 -51.6685 -6.21541 1240.97 0.748734 671.507)
(950.018 -51.8192 -3.64249 1265.09 -0.338768 673.96)
(323.261 72.3017 0.515898 456.736 3.3769 236.434)
(335.782 86.0473 -2.63451 467.257 0.367396 242.043)
(65.6142 -234.002 -320.51 0.420433 427.92 -2267.32)
(99.2121 -265.324 -375.626 -10.006 509.293 -3144.65)
(-2230.24 -1347.32 -378.101 -200.362 33.4515 114.173)
(-1752.38 -834.738 -4693.36 -207.231 -930.489 4214.5)
(-1947.05 -753.749 -9217.16 53.8924 -2293.98 9589.63)
(-1524.29 -591.959 -8238.09 342.767 -1431.49 564.624)
(-1483.4 -863.025 -5303.94 -135.846 -1132.99 4216.03)
(-2792.98 -734.384 -9278.65 -147.363 -2221.08 10344)
(-1843.51 -843.478 -5284.2 -207.773 -1108.95 4886.98)
(-1980.63 -1568.29 -433.288 -94.8505 63.8622 92.4436)
(-1414.41 -559.457 -6684.8 260.739 -1077.49 650.938)
(-1429.17 -855.01 -4725.49 -146.522 -943.5 3583.69)
(258.887 15.7738 -4.10504 411.571 20.2579 202.527)
(245.251 42.4809 9.5904 364.309 23.9119 186.504)
(868.324 -43.2256 -37.2674 1162.08 15.773 753.557)
(836.801 -19.4104 -35.3504 1095.84 -6.5107 764.368)
(429.958 6.39805 -29.4408 473.578 18.1602 383.977)
(289.35 133.618 -17.5528 855.152 139.738 417.244)
(452.975 -9.36124 -22.3747 1076.93 -27.9981 660.063)
(253.626 39.6402 5.99978 533.347 51.1714 259.467)
(793.041 -5.77033 -18.3298 1041.15 -28.6835 726.652)
(224.906 58.711 5.44503 345.368 25.7888 182.173)
(39.9128 40.9226 56.3578 43.9827 -9.46089 2.23881)
(-165.312 26.4294 63.9464 -189.262 -25.5672 -419.793)
(46.1119 0.506152 183.487 41.3444 31.7292 64.0902)
(-119.969 503.287 69.3008 75.2366 103.628 20.1443)
(165.201 -13.1427 128.853 198.391 197.503 439.1)
(131.901 -9.21699 45.2195 131.825 35.8948 337.637)
(542.651 -63.8716 59.1339 677.337 336.462 194.05)
(51.3261 13.1146 110.925 52.6758 118.746 149.271)
(148.421 12.9789 55.0176 331.776 65.3897 155.224)
(256.107 213.278 36.6558 1048.66 83.454 367.704)
(543.906 -54.5616 -7.11688 1435.85 3.83005 558.78)
(-49.8283 475.909 1.16373 626.84 59.8692 165.769)
(523.32 -69.7972 75.8125 1233.27 126.384 447.293)
(190.956 50.5471 -19.423 393.873 26.6153 139.986)
(-80.0506 430.987 55.1658 499.464 75.3673 114.471)
(994.387 -75.5755 -2.24762 1389.43 -8.55648 712.366)
(935.12 -100.562 91.8899 1276.06 32.5057 641.75)
(-204.336 42.7098 95.0748 -189.137 -36.8436 -430.226)
(80.7129 -17.8659 49.36 89.1879 46.6153 208.423)
(15.6983 0.988398 129.437 21.1866 56.489 26.1379)
(-188.607 712.627 -3.26036 203.155 71.9763 -8.22516)
(-206.878 602.516 18.5347 93.6982 91.9769 -47.3204)
(273.279 4.73987 -171.853 204.051 39.9736 494.998)
(9087.38 -152.959 -5189.57 2387.59 2086.96 12366.5)
(280.511 -0.97779 -176.843 175.909 58.5729 468.549)
(361.796 9.56177 22.0871 368.546 -9.06422 934.75)
(147.614 -8.1938 25.4113 151.676 41.8231 343.699)
(233.468 -1.54032 3.19242 215.818 20.2541 523.776)
(288.123 0.642609 -10.127 265.167 3.25282 627.593)