/*--------------------------------*- C++ -*----------------------------------*\
| =========                 |                                                 |
| \\      /  F ield         | OpenFOAM: The Open Source CFD Toolbox           |
|  \\    /   O peration     | Version:  2012                                  |
|   \\  /    A nd           | Website:  www.openfoam.com                      |
|    \\/     M anipulation  |                                                 |
\*---------------------------------------------------------------------------*/
FoamFile
{
    version     2.0;
    format      ascii;
    class       volScalarField;
    location    "0.106/solid";
    object      sigmaMid;
}
// * * * * * * * * * * * * * * * * * * * * * * * * * * * * * * * * * * * * * //

dimensions      [1 -1 -2 0 0 0 0];


internalField   nonuniform List<scalar> 
24998
(
-157.775
18.9871
-173.525
-130.224
-158.141
-512.859
-500.445
-476.488
-455.864
-118.843
-176.796
-507.126
19.3289
-173.289
-514.53
-183.145
-143.181
-130.666
-142.527
-174.599
-155.29
-203.93
-508.206
-501.743
-502.527
-499.778
-480.834
-480.477
-477.11
-468.648
-458.403
-473.928
99.0314
394.7
-110.167
-220.018
-455.744
-197.201
-242.056
-179.299
-138.738
-172.149
-169.927
-130.229
5091.81
-143.224
67458.1
-24123.2
-9085.25
-509.541
4207.36
4790
-8407.79
-7592.17
-493.307
1807.47
3073.93
-5499.11
-3350.98
-464.052
-553.61
544.055
-957.995
-106.916
95.5184
-204.576
-424.657
141.478
-253.05
334.317
-240.983
-296.151
91.2704
-461.653
-96.0826
-197.941
-254.634
-159.552
-165.518
-489.357
-277.657
-150.894
-216.665
-172.58
-178.689
-150.283
-210.499
-215.876
-138.109
-209.798
-142.51
-208.288
-150.984
-169.97
-143.398
-196.624
-208.399
-130.764
-400.558
-186.309
-184.769
-7450.43
20509.1
7616.12
64283.2
2433.18
-35075.2
-2351.24
82249.1
5076.78
4823.02
-384.92
-6966.78
-7375.03
-103.402
7621.54
7055.99
2420.03
-1276.38
-2048.88
2409.32
-55297.9
-4198.3
-8476.63
-8930.75
-3724.02
-3923.64
-507.92
-506.538
-507.856
116.484
-6884.53
-73.4879
-6038.41
5990.08
7018.27
2159.6
-1177.77
2392.65
-394.753
4160.53
3156.92
134.133
-4530.52
-5880.34
158.527
5922.93
4391.14
2127.32
483.518
-275.446
1589.39
-3695.52
-3311.6
-5784.04
-7419.42
-2571.51
-3234.04
-493.036
-490.392
-490.522
31.1635
-4312.76
161.43
-2736.71
2465.09
4284.14
772.735
565.971
1538.54
654.247
1724.69
602
22.4472
-1192.21
-2518.91
-160.946
2352.6
780.322
715.882
-144.037
579.935
0.332751
-2462.53
-1665.45
-1163.62
-3045.41
-816.385
-1550.67
-465.987
-463.683
-460.888
-579.106
-1041.82
-168.529
-106.091
-679.431
701.617
-574.872
-218.758
-37.7947
-83.3709
-722.067
-75.7639
72.5741
12.4129
196.577
-834.257
-144.29
-207.828
-263.091
-556.392
-143.027
-246.069
-30.1682
-166.684
-29.0557
18.5714
-128.972
19.8312
-7.38927
-476.668
-95.8515
-544.263
-468.583
-623.992
-511.621
-570.46
-615.532
-467.79
-512.18
-453.464
-605.959
-498.241
-523.006
-602.145
-450.863
-462.841
-424.792
-580.273
-472.252
-484.223
-574.842
-419.132
-459.561
-341.146
-629.114
-450.503
-419.232
-661.548
-317.259
-66.7373
-109.094
-180.754
-215.637
-522.436
-81.0931
-156.369
-145.881
-269.066
-226.736
-187.207
-500.244
-256.938
-636.111
-620.597
-253.154
-247.939
24.5982
57.4075
-23.6017
-199.757
-39.4825
-107.473
-559.576
-513.17
-467.564
-630.875
-561.714
-635.845
-467.478
-264.523
-181.084
-241.718
-145.967
-218.069
-220.834
-133.69
18.3621
15.9969
-217.387
-141.372
-216.354
-151.441
-258.564
-228.444
-138.207
-2.63621
13.7528
-313.029
-675.377
-914.737
-261.091
-264.709
-633.971
-508.627
-630.432
-275.119
-268.224
-261.26
-503.553
-265.022
-624.089
-627.051
-262.763
-266.139
-529.962
-504.451
-455.96
-607.256
-520.21
-610.205
-458.291
-258.154
-263.995
-622.878
-497.703
-619.048
-262.73
-262.631
-248.704
-484.318
-251.333
-599.487
-605.052
-242.505
-253.653
-496.487
-484.138
-429.65
-582.279
-480.196
-587.929
-434.069
-232.128
-249.053
-597.592
-473.192
-592.391
-241.75
-246.664
-238.008
-464.716
-265.779
-647.562
-610.088
-299.957
-252.82
-419.734
-458.458
-359.638
-616.712
-406.037
-587.299
-371.501
-207.237
-291.932
-664.849
-487.937
-716.267
-299.729
-343.317
77.7549
225.67
241.97
-22.1114
187.127
266.615
-2839.12
336.737
-85.67
-322.504
-167.988
-213.318
-186.778
-294.694
-585.479
-167.813
-752.07
-396.332
-610.664
-443.65
-623.328
-627.221
-434.542
-974.376
-949.072
-332.966
-276.223
-274.023
-283.162
-306.612
-187.724
-185.605
-27.3771
-24.5553
-158.069
10.9131
-20.0896
7.39124
-18.0839
-170.591
-170.476
16.5933
17.844
-128.962
19.7458
19.9039
17.9029
17.9217
5042.37
479.741
4853.96
277.013
-656.013
-946.253
-12.2335
-74.8287
-519.048
-13227.7
-76996.9
-4072.52
-117.768
-3284.11
-9909.81
-3840.48
-77703.9
-1149.38
-96.9579
-297.924
-301.014
-1030.14
-1035.65
-546.205
-510.826
-615.627
-464.365
-616.143
-535.92
-466.046
-1029.81
-1039.75
-305.879
-302.874
4522.65
4574.24
-320.224
-426.94
-2880.77
-8140.39
-2694.36
-517.665
-439.69
-2397.12
-8027.54
-2662.64
-306.459
-305.947
-1011.5
-1005.58
-514.937
-495.871
-596.461
-445.155
-600.763
-503.766
-448.14
-995.762
-1003.59
-304.131
-304.964
2409.37
2500.01
132.63
99.886
-1496.57
-4599.21
-1105.76
-8.7548
90.377
-727.991
-4291.37
-1053.35
-296.812
-295.197
-963.782
-947.843
-467.751
-467.99
-571.287
-403.573
-573.327
-438.774
-412.101
-920.612
-941.764
-291.618
-293.359
198.485
219.451
-54.829
-82.579
-293.665
-487.803
-186.309
-42.0526
-86.0985
-37.7361
-394.502
-166.67
-257.926
-231.715
-872.092
-850.22
-444.179
-397.679
-660.724
-250.723
-797.755
-201.943
-38.6421
194.192
-41.3129
10.2947
-188.927
-140.96
-552.255
-38.871
-186.82
-358.318
-561.064
-163.22
-570.053
-190.854
-101.282
-980.475
-939.4
202.733
-103.158
-19.5862
9.30981
55.8284
-216.051
-5632.37
-201.084
-375.262
-157.148
-233.595
-287.845
-236.016
-233.23
-130.733
-349.847
-224.228
-232.512
-484.432
-580.508
-202.407
-306.91
-608.047
-236.965
-92.8507
-80.9082
-1068.46
-1092.96
-985.208
-1070.44
-36.2858
-79.8248
1.43742
-275.983
-75.1551
45.6865
-65.8376
-294.206
-129.923
-120.966
-249.752
-236.949
-133.706
-36.4093
-98.8987
-213.38
-114.715
-131.357
-563.342
-504.638
-613.976
-459.416
-638.951
-629.639
-467.85
-292.775
-287.938
-1044.88
-1077.52
-973.685
-1055.38
-292.336
-283.859
-283.885
-222.864
-247.66
-165.559
-226.139
-237.023
-220.164
-239.688
-245.616
-175.149
-175.681
-147.064
-225.013
-221.877
-232.968
-212.861
-235.494
-238.812
-213.658
-236.353
-134.438
12.0077
15.5765
16.2927
13.9147
8.96198
13.3522
-232.3
-208.465
-231.275
-141.36
-217.897
-216.438
-208.304
-232.695
-231.36
-168.909
-169.476
-148.56
-218.945
-224.943
-264.525
-208.825
-241.824
-233.604
-209.051
-238.95
-136.562
19.435
15.1371
-6.57332
11.5657
17.5406
13.2983
-6639.71
-656.404
-1466.14
-319.079
523.354
-1049.98
-2582.88
-10857.3
37673.7
416.942
-2267.96
-8574.96
-7999.31
-3847.03
1919.89
174.884
50721.1
2666.1
-2515.07
7199.64
7019.53
7313.38
2024.83
7796.95
-7742.93
21155.8
7298.04
7540.47
-4971.2
7986.08
2559.57
40135.8
6884.3
4988.85
4964.91
-6851.44
-262.374
-6949.82
-7173.25
-8340.46
-8532.08
-8636.1
-7231.53
-8582.16
-230.289
-6950.72
-6948.95
7407.32
7383.65
7285.19
2438.81
7115.21
-1546.21
7121.17
7274.56
7495.91
-1635.43
7318.28
2427.61
6898.55
7067.3
-17718.1
-22246.5
-12193.6
-110908
-14084
-7260.81
-7940.07
-11776.3
-123339
-24485.4
-640.881
-582.963
-8643.27
-2902.88
-3039.02
-3244.49
-8699.32
-3058.61
-527.069
-577.15
-17604.9
-17114.5
-3757.05
-6788.04
-7085.72
-7201.58
-3757.94
-7107.99
-16413.9
-17042
-99.2093
-101.57
-1055.62
-1060.98
-252.86
-508.74
-631.694
-267.612
-631.288
-265.36
-267.851
-1056.12
-1064.89
-100.174
-99.7787
-262.342
-505.11
-630.794
-267.922
-268.401
-627.87
-267.362
-98.356
-99.0806
-1041.23
-1048.14
-1051.96
-1048.77
-100.887
-99.9456
-527.119
-506.185
-614.16
-462.598
-540.045
-611.023
-460.518
-307.214
-307.092
-1014.24
-1021.47
-1025.33
-1022.14
-306.48
-307.37
48.4677
-6728.28
-6875.1
-8259.59
-6581.19
-7953.57
26.932
-6945.84
-6901.91
-7372.03
-6461.46
-7827.21
6531.22
6593.45
2295.8
6072.88
6463.82
7057.11
-856.534
6807.14
2319.86
6829.84
6570.69
6287.4
-743.214
6699.29
3736.16
3669.34
-6644.89
162.788
-6246.46
-5154.7
-5640.87
-6370.66
-7194.14
-5349.28
-6593.86
171.269
-5441.97
-6069.96
5254.92
5164.99
5915.57
1915.66
5360.18
184.008
4398.37
5227.93
6114.83
72.9057
5476.75
1873.17
4425.5
5147.29
-14020.1
-15256.3
-6727.7
-3569.14
-6212.25
-16306.3
-15407.9
-5430.15
-3512.72
-6125.04
-302.766
-174.594
-6566.27
-1554.07
-1950.47
-2352.08
-6803
-2004.62
-25.2238
-155.443
-13816.4
-12202.2
-2878.21
-3283.63
-4309.77
-5318
-2973.22
-4445.96
-9977.37
-11945.8
-98.0275
-96.6439
-1038.56
-1032.69
-257.612
-495.473
-613.431
-259.453
-617.71
-255.335
-261.085
-1023.16
-1030.77
-94.5337
-95.8961
-249.501
-487.49
-611.854
-257.751
-254.811
-606.846
-255.76
-88.9364
-90.9497
-996.263
-1007.95
-1020.28
-1011.25
-93.7755
-91.9383
-493.138
-487.48
-594.822
-441.806
-506.609
-589.793
-438.118
-298.527
-300.102
-968.344
-980.255
-992.822
-983.652
-302.875
-301.613
107.276
-3428.6
-4203.52
-5381.43
-3637.34
-4572.01
112.929
-5207.23
-4461.74
-3470.31
-3410.42
-4295.28
3324.06
3443.06
1142.79
2139.8
3016.61
4105.23
728.178
3218.38
1199.16
4159.94
3310.28
2073.17
744.281
2923.9
1152.03
1077.39
-3174.64
-67.3342
-2449.39
-1709.33
-1555.82
-2196.52
-3200.92
-1900.38
-2433.57
-77.8294
-1619.4
-2225.31
1546.94
1446.02
1856.77
355.005
1069.53
159.524
236.577
820.144
1801.18
273.395
1046.32
303.943
225.582
833.132
-4897.72
-7147.89
-3128.81
-2127.38
-2030.02
-9675.65
-7471.2
-882.172
-2011.65
-1874.3
132.213
82.9761
-1887.92
-308.446
-439.639
-688.287
-2162.9
-463.955
-27.6257
71.5853
-4585.77
-2579.92
-1115.94
-338.457
-275.982
-765.392
-1220.73
-291.04
-1048.36
-2332.01
-87.8215
-85.8847
-991.799
-975.99
-231.02
-469.388
-589.685
-243.382
-591.07
-216.587
-244.791
-948.327
-969.926
-84.1766
-84.7924
-231.256
-462.998
-590.951
-243.725
-214.75
-602.201
-245.932
-107.234
-89.6198
-888.085
-907.96
-940.415
-915.466
-83.7414
-87.5913
-412.107
-459.019
-572.071
-393.677
-444.631
-581.039
-382.815
-268.415
-282.923
-869.991
-882.293
-912.957
-889.084
-289.736
-286.209
-207.752
-490.78
-860.844
-1369.51
-650.873
-892.784
-207.923
-1442.53
-986.542
-432.477
-557.52
-767.408
205.236
241.976
-175.242
-350.216
-409.953
80.273
-315.814
-260.328
-176.836
61.2868
-307.496
-314.482
-316.918
-355.92
100.532
-341.108
-354.104
-427.906
-337.174
-935.767
-412.613
36.1532
-323.661
-297.649
-117.922
-178.162
-890.178
-902.027
-186.176
-409.557
-716.639
-289.057
-851.065
-234.359
6.38216
29.8715
82.5366
23.1704
-132.64
-174.998
-134.281
-84.2238
-129.631
-83.4246
-107.748
-192.684
-123.053
-171.3
-221.686
-217.261
85.3188
34.3436
30.1157
47.821
-174.604
-132.975
-141.173
-218.961
-186.867
-214.719
-143.99
-177.013
-177.919
-131.86
-84.5475
-85.6513
-176.331
-141.969
-175.828
-162.583
-221.232
-203.245
-145.891
-105.469
-97.72
-266.002
-259.346
-352.438
217.499
92.0554
171.184
143.266
235.454
161.669
116.77
1158.53
468.953
370.419
869.5
397.808
1635.56
646.07
-390.782
-100.745
-216.515
-123.817
-285.399
-186.296
-89.2166
-564.434
-31.31
-140.275
-256.06
-1019.03
-279.054
-271.09
-353.543
-160.522
-252.257
-207.395
-238.626
-187.239
-286.63
-112.77
-212.225
-71.493
-181.209
-40.1704
-43.3087
-140.909
-92.9406
-96.8543
-30.6
-171.39
-28.7726
-170.126
-25.8511
-26.1008
-129.574
-83.8642
-83.1141
5125.8
7.21299
-73.8871
46.8601
32185.6
12723.5
4853.3
26046.8
26793.3
14978.2
-17789.5
-26146.7
-7656.89
-1591.19
-3961.39
-9267.59
-4172.32
-91342.3
20992.2
4342.41
4701.05
20773
21492.8
-3487.86
-8331.13
-3334.26
23527.3
23122
-2843.01
-7753.14
-3024.77
2056.48
2825.87
7881.09
9316.55
-1985.77
-5206.9
-1785.38
14863.7
13542.4
-1177.56
-3665.08
-1347.68
83.2723
380.073
63.8194
-430.231
-554.3
-777.361
-448.921
896.497
125.036
-108.237
-231.411
-193.321
-456.315
-360.109
-619.328
-297.699
340.077
51.6717
167.042
149.675
237.559
105.679
59.1526
-448.539
-3.12342
-143.943
-190.487
-999.116
-241.312
-180.01
153.099
145.85
201.559
10.7031
371.969
-35.9187
81.8787
-130.529
-268.235
-224.962
132.872
342.839
818.165
56.9071
1665.62
-19.7289
266.97
-303.161
-299.976
-297.69
-128.807
194.042
-61.5855
-5.9978
-139.029
-5.8226
-102.121
-132.877
-66.4987
-184.844
-113.287
-264.521
-125.287
-49.2199
-287.196
-175.806
-239.162
-200.933
-232.04
-271.66
-228.562
-145.469
-165.815
-159.877
-127.102
-186.766
-177.359
-125.682
-263.147
-181.344
-170.141
-136.946
-290.385
-188.402
-144.517
-293.643
-252.21
-271.776
-151.718
-185.421
-186.724
-217.718
-239.077
-239.742
-30.7873
-173.505
-31.1381
-39.6696
-177.315
-36.1955
-149.34
-184.601
-183.594
-233.913
-211.234
-234.627
-238.62
-215.115
-238.104
-136.857
-92.1741
-90.291
-233.225
-209.208
-232.629
-141.908
-176.61
-175.987
-208.223
-232.551
-232.232
0.805905
-163.396
-9.11495
-25.5906
-169.92
-23.9104
-144.649
-177.642
-179.184
-233.763
-204.689
-236.942
-232.99
-208.626
-233.635
-132.609
-84.2631
-85.9604
897.206
-430.221
1593.2
-239.063
-131.163
-236.468
-54668.9
5857.55
8316.92
9720.15
-11427.7
-7982
-7524.18
-8008.54
8418.28
-68743.9
63192.9
44920.6
-10601.9
7596.12
6187.14
924.469
2365.1
-635.313
-16327.2
-14028.6
-5169.6
22.0824
-2827.82
-268.541
11032.9
82356.5
23179
5040.83
4874.12
1226.19
-347.563
947.732
-7041.61
-7643.24
-7707.12
-7935.84
-7333.72
-7920.78
-155.744
1023.91
1113.8
7532
7204.78
-681.378
2435.37
911.843
-1369.96
957.46
878.407
244.151
-1865.35
398.95
2414.07
623.057
-840.906
-46627.5
-47685.5
-26191.5
-81496.6
-25598.1
-1970.99
-4752.73
-2588.51
-123046
-63525.1
25825.9
25247.4
-8536.2
-3467.62
-3612.35
-3987.2
-8837.12
-3822.8
23651.1
24010.3
-46300.7
-45380.1
-3742.08
-1570.8
-1554.37
-1745.28
-3810.16
-1794.46
-42218
-43001.1
90.5258
931.165
1056.74
-7571.03
-6791.94
-7488
-37.742
1117.04
1021.84
-6750.78
-6189.08
-6905.18
6236.26
6832.01
2219.35
37.967
-1122.61
1036.97
-1074.22
1116.81
2370.13
-910.54
481.739
1571.29
-512.667
1501.95
3980.37
3372.92
1013.19
141.537
872.773
-4744.24
-5137.49
-5373.06
-6585.76
-5712.23
-6412.41
166.041
583.862
742.965
5635.15
4731.35
-1193.42
2046.01
-122.596
391.804
1926.92
1915.49
1638.98
-158.49
1701.68
1713.42
-581.982
-1378.58
-36362.9
-37763.4
-1404.17
-3660
-1379.11
-41944.9
-41072.9
-643.308
-3383.92
-728.423
20510.7
19656.2
-6057.44
-2004.85
-2206.26
-2839.29
-7228.86
-2646.89
15288.4
16515.2
-35859.9
-34239.1
-2674.8
284.319
256.497
-469.77
-3152.34
-378.393
-26208.4
-28433.3
62.3446
1.2015
164.846
-4895.18
-4089.17
-4646.7
135.976
622.089
456.725
-3108.51
-2958.57
-3364.41
2827.94
3917.23
928.553
-1099.75
-1531.5
1923.49
636.519
1904.5
1398.69
-1435.14
-730.833
1351.15
708.314
1494.26
1464.34
784.784
2.15347
-22.0074
-157.842
-1354.96
-1320.36
-1508.1
-2857.54
-2305.23
-2611.33
-131.997
-579.676
-467.865
1987.81
1042.05
-1516.57
557.674
-1163.1
-53.0736
65.6516
200.255
1193.24
489.467
1027.02
118.063
-1077.61
-1267.13
-13104
-15601
402.375
-2352.76
368.863
-25440
-23070
117.899
-1779.46
289.604
7405.43
6006.8
-1388.34
-571.711
-683.874
-1158.25
-2741.9
-1000.29
1197.53
2216.96
-12284
-9884.46
-913.114
-434.492
-338.404
132.778
-1438.23
-42.6604
-2158.72
-3680.17
-217.581
-622.222
-697.571
-1146.55
-899.319
-985.331
-198.517
-582.73
-673.305
-220.057
-472.27
-477.44
-139.192
473.734
-352.737
-475.945
-924.648
-50.4641
-272.933
-144.518
-130.989
-1164.08
-1007.1
-161.463
-296.207
-435.123
65.6397
488.929
-421.845
-627.912
-455.816
-1729.37
-677.707
-40.1163
-207.846
-109.702
-845.486
-358.188
-669.204
-401.723
135.71
121.465
145.527
149.792
221.975
80.0725
183.372
16.0519
-30.348
7.086
-41.252
16.6593
69.6459
242.148
177.937
124.271
230.961
5.77802
86.1758
-454.469
-692.074
-404.373
-596.616
-396.743
-414.113
-497.396
-313.284
-120.039
-154.881
-161.655
-255.436
-241.735
-194.412
146.877
-107.747
-22.5293
-106.406
-175.621
-121.384
-132.907
-26.0961
-94.1443
-105.202
-55.4984
19.298
-54.6325
-129.387
-82.8857
-83.2328
19.3939
-54.1705
-54.4579
-78.865
-24.3499
-92.2606
-181.681
-150.618
-127.71
-34.2405
-129.628
-100.351
-542.55
-564.611
-664.657
-618.245
-624.248
-668.231
-536.711
-546.344
-562.932
-631.998
-672.411
-546.813
-631.909
-670.758
-504.628
-519.168
-629.414
-575.842
-577.496
-631.312
-502.89
-506.87
-516.54
-582.141
-635.321
-508.512
-580.844
-633.484
-461.138
-476.623
-579.025
-521.563
-524.99
-583.666
-457.054
-465.592
-472.23
-534.213
-592.501
-468.901
-531.699
-588.563
-413.53
-453.591
-516.855
-387.361
-392.861
-516.937
-423.806
-412.831
-430.377
-413.125
-510.991
-411.67
-404.489
-514.516
-182.728
-445.418
-175.814
15.0248
-230.413
-218.122
-147.944
-171.956
-109.233
-91.0372
-123.818
-206.887
-143.769
-129.366
-173.822
-208.884
-213.492
-248.085
-263.46
-243.028
-217.59
-250.755
-233.464
-322.158
-453.305
-177.431
-132.248
-315.199
-136.856
-465.799
-327.206
-213.079
-156.175
-489.663
-334.051
-145.52
-480.869
67.8797
29.9245
37.4037
66.752
31.2487
46.1378
104.185
73.5394
-12.694
33.3558
2.92446
48.2469
65.6576
-21.9252
12.1289
7.75102
15.5101
18.6375
30.3307
-181.517
-161.196
-147.766
-108.386
-80.0563
-112.838
-135.807
-85.7431
-118.397
-534.712
-538.172
-688.921
-621.595
-544.492
-615.325
-681.332
-537.378
-549.279
-628.205
-674.354
-542.683
-618.779
-676.894
-243.906
-255.109
-237.233
-189.338
-213.873
-218.252
-247.487
-232.773
-236.33
-144.906
-179.947
-178.892
-200.668
-218.978
-201.607
-203.579
-219.909
-202.579
-132.465
-87.5153
-86.0916
-55.783
17.4465
-56.7502
-58.5559
17.1739
-57.135
-199.976
-216.932
-199.518
-141.584
-175.184
-175.436
-216.579
-198.898
-199.149
-155.701
-187.763
-193.536
-243.018
-241.553
-226
-211.5
-233.181
-216.876
-143.26
-91.3312
-96.0211
-76.0187
6.81536
-68.2966
-61.8755
8.82415
-66.5552
-289.437
-420.182
-374.964
-473.37
-726.535
-611.694
-794.992
-757.621
-663.767
-344.175
-482.372
-271.53
-173.123
-174.328
-482.612
-345.16
-341.231
-286.803
-166.217
-491.654
-337.91
-171.075
-485.841
-343.685
-481.568
-261.784
-174.183
-344.072
-174.178
-480.729
-342.417
-263.809
-173.642
-479.269
-342.567
-173.602
-480.081
-513.803
-522.88
-643.165
-590.722
-515.654
-589.307
-641.275
-511.893
-525.953
-585.113
-637.374
-510.488
-586.373
-639.149
-339.693
-474.933
-261.107
-171.581
-172.131
-475.757
-339.618
-341.023
-262.257
-173.126
-478.37
-341.458
-173.119
-476.774
-328.912
-464.163
-246.691
-164.297
-329.445
-164.249
-462.447
-326.641
-247.293
-162.51
-459.792
-326.684
-162.743
-461.029
-479.063
-487.094
-606.661
-549.494
-481.573
-547.504
-603.683
-475.583
-490.686
-539.942
-596.645
-472.796
-542.369
-600.012
-322.009
-455.019
-238.779
-160.466
-160.008
-455.817
-322.668
-324.313
-238.037
-161.01
-458.613
-324.483
-161.355
-457.003
-358.893
-485.957
-258.751
-191.138
-345.244
-206.995
-500.797
-371.208
-275.373
-251.998
-547.824
-394.936
-223.583
-521.112
-410.093
-403.981
-519.854
-446.892
-412.384
-440.49
-515.382
-412.118
-413.81
-424.928
-511.022
-411.618
-430.881
-511.488
-511.568
-741.37
-263.279
-455.647
-389.594
-688.492
-612.104
-464.5
-265.509
-282.369
-584.758
-418.777
-337.015
-631.145
212.543
81.3904
141.995
125.8
197.86
149.457
104.579
238.412
200.146
259.798
259.128
417.08
220.616
204.626
239.369
300.979
185
270.767
225.059
437.155
198.74
-37.6294
69.662
-59.6288
92.0354
619.201
427.66
32.4516
51.521
-34.855
-379.117
1084.49
330.169
298.915
365.834
492.403
455.639
483.703
1144.53
1103.08
45018.7
1203.59
1417.8
2449.99
1258.3
1047.92
520.479
419.953
493.696
520.359
561.891
660.424
-599.131
-224.312
40.2346
-90.9538
-145.501
-44.7839
-393.396
-120.128
-57.4781
-370.093
-281.882
-352.442
-342.525
-408.397
-298.995
-275.439
-2.68809
6.82689
-132.122
-271.131
-118.542
-400.457
-175.937
-299.138
-206.723
-768.385
-922.115
-586.779
-177.9
-45.2839
-523.269
-156.783
-483.621
1210.47
-196.153
-472.548
-287.775
-298.134
-362.561
-461.88
-287.736
-335.753
-804.647
-1233.03
-674.681
-375.963
60.7311
-132.852
-313.791
-487.114
-404.186
-223.378
-574.998
-741.189
-639.603
-677.218
-586.918
-723.178
-653.062
-577.947
-647.67
-706.995
-661.466
-712.853
-657.239
-575.386
-870.12
-830.124
-978.095
-853.916
-866.157
-868.527
-932.135
-868.178
-790.099
-813.234
-392.243
-308.097
-350.903
-369.427
-417.759
-268.619
-352.791
-385.471
-240.496
-273.494
-360.081
-449.038
-211.057
-331.94
-413.773
42.0593
-359.12
-371.181
-416.727
-412.817
-381.096
-621.81
-593.056
-526.164
-288.377
-538.584
-593.645
-589.627
-590.303
-274.98
-505.052
-200.707
-53.7591
-67.5964
-182.12
-51.5733
-44.4959
30.2891
-20.173
43.5176
-21.2884
43.7426
42.1286
-143.507
-115.52
-99.8136
-63.4638
4.88216
-67.274
-87.9464
1.21827
-70.2882
61.2617
0.25657
56.3097
46.0043
-3.54689
54.8813
-171.11
-28.1559
-28.4067
-170.144
-27.9033
-26.3702
68.9304
17.2006
69.3659
17.3388
69.9359
69.7304
-129.322
-82.8512
-82.9624
-54.9151
20.0227
-54.1913
-54.1219
20.1152
-54.0723
70.6522
18.0334
70.9058
70.4664
18.135
70.5393
5135.11
-83.4864
284.555
75.2243
14230.6
3972.65
498.744
1850.8
18419.4
-722.047
18972.3
27816.5
27061.6
-760.988
19813.5
19176.9
50.5226
-28.2749
41.1213
-36.3565
33.6089
43.4932
3480.26
-208.257
148.84
2410.3
-4860.51
-5208.58
-37781.4
-18243.7
-2580.59
-8851.03
-2228.31
-4149.03
-9390.87
-4799.48
-183.268
-2305.32
-352.09
-3482.83
-3437.91
-3616.85
-9852.08
-4639.55
-4176.2
-3510.32
-3945.09
-3642.08
28000.3
27335.2
-92291.9
-10460.7
-1589.39
4716.32
-2141.19
19965.9
-2578.26
17835.2
30.9899
-1972.18
-11.6934
-569.263
-571.75
-525.359
-297.925
-525.551
-574.283
-574.098
-524.059
-300.911
-523.874
-733.524
-734.751
-842.745
-1025.36
-838.59
-739.695
-737.609
-838.753
-1028.94
-837.355
-527.935
-660.685
-534.296
-610.056
-531.663
-657.646
-607.22
-526.29
-539.143
-653.117
-604.211
-654.921
-604.284
-525.529
-732.158
-728.975
-1035.19
-829.661
-834.816
-839.02
-1039.31
-836.299
-723.194
-727.391
-566.788
-566.015
-520.672
-305.112
-520.556
-563.889
-564.955
-521.86
-303.7
-522.413
4396.48
4666
22304.6
21710.1
14691.5
-369.472
15200.9
15775.8
-384.695
15355
-3111.06
-2808.04
-3005.81
-8243.8
-3187.08
-3348.63
-2781.62
-2886.76
-3002.34
22483.5
22973.4
16643
-486.912
16355.9
15903.1
-475.414
16251
-2598.21
-2521.16
-2736.99
-7899.11
-3195.3
-3022.6
-2558.34
-2878.44
-2750.99
-545.555
-548.248
-509.288
-306.718
-508.913
-551.192
-549.497
-505.947
-305.835
-506.437
-700.058
-702.673
-812.628
-1009.12
-809.833
-706.573
-704.127
-805.817
-1007.19
-808.492
-498.865
-627.18
-508.123
-572.524
-500.611
-625.177
-571.189
-496.499
-510.933
-620.561
-565.997
-622.74
-567.709
-494.664
-698.646
-695.815
-998.437
-796.385
-799.819
-804.481
-1001.14
-801.416
-691.06
-694.212
-544.324
-542.349
-499.467
-304.075
-500.11
-537.876
-541.009
-503.36
-305.203
-502.949
2145.68
2744.92
11228.4
9794.98
5615.7
127.305
6626.36
7971.1
123.289
6963.71
-1825.26
-1325.15
-1655.85
-4909.63
-1572.78
-1765.06
-1269.17
-1458.78
-1625.09
11699
13088.3
10528.7
38.9581
9599.54
8302.79
53.7152
9280.76
-1089.7
-857.586
-1239.04
-3979.19
-1551.93
-1367.77
-903.986
-1428.02
-1269.09
-503.615
-508.994
-477.778
-296.939
-477.076
-515.215
-511.496
-471.105
-295.171
-472.069
-647.448
-654.437
-767.405
-958.78
-761.113
-663.483
-657.562
-750.523
-953.359
-757.867
-446.612
-573.306
-451.672
-513.404
-451.869
-567.716
-509.153
-440.859
-456.928
-554.598
-493.876
-560.973
-499.387
-434.326
-644.012
-635.64
-927.869
-724.241
-734.098
-746.884
-935.096
-738.163
-622.297
-631.832
-500.491
-494.296
-454.949
-291.648
-456.299
-482.445
-490.428
-464.892
-293.487
-463.71
110.866
335.453
-581.022
-530.208
140.293
-25.0517
-188.743
-294.174
-30.7171
-256.229
-500.397
-250.743
-407.484
-622.169
-327.863
-429.088
-236.424
-293.851
-386.263
-513.961
-82.0145
722.836
-75.3732
190.667
-247.786
-83.0684
49.0889
-70.345
-81.3413
-177.772
-313.36
-304.273
-213.72
-96.1085
-269.807
-190.034
-343.848
-351.676
-395.886
-251.353
-387.634
-407.575
-368.976
-354.124
-237.708
-364.918
-613.989
-618.261
-692.011
-874.653
-695.352
-599.223
-607.996
-683.559
-870.367
-701.436
-456.103
-516.784
-393.672
-377.974
-437.615
-553.711
-373.243
-509.705
-649.363
-637.074
-677.054
-395.28
-219.221
-298.895
-282.885
-458.848
-500.067
-606.544
-339.589
-600.726
-590.809
-690.335
-639.878
-664.603
-718.85
-647.716
-598.642
-354.826
-340.342
-195.719
-277.216
-336.651
-334.362
-184.482
-297.048
177.403
-53.5083
-208.224
-7.75557
7.66103
-156.288
219.65
0.237282
-103.113
273.42
186.886
229.652
153.232
220.339
162.019
148.428
-159.826
-52.3356
-17.5408
61.6468
-126.717
167.427
36.8675
-170.685
-91.9555
515.013
-857.928
-578.893
-157.879
-25.4014
-624.345
-144.222
-293.401
1170.85
-122.697
-346.706
-161.776
-127.19
-120.228
-123.125
-186.412
-174.955
-741.329
-1322.5
-538.91
-340.131
-71.3538
-88.9228
-75.9657
-417.609
-134.587
-111.587
-192.828
-424.831
-139.21
4.775
-183.483
-422.027
-1.71821
-241.33
-59.6874
-424.793
-42.015
-407.893
-22.3178
-247.602
-866.741
-890.957
-976.938
-889.223
-853.071
-815.791
-928.202
-834.829
-948.601
-910.468
149.594
218.151
254.32
138.456
389.757
140.173
117.972
65.9707
-57.9238
-107.589
-68.9766
-78.4495
-64.2155
-7.01625
75.5387
-45.654
60.4769
-33.3402
115.127
-80.2425
34.705
211.677
182.887
46.2898
39.1434
94.9699
125.358
195.571
179.259
43.2057
66.5815
-265.525
-351.481
-264.509
560.704
283.49
-52926.2
-1235.95
611.595
5386.11
-432.964
-310.806
-94.7004
-369.781
-257.836
-211.804
-110.699
-1024.95
89.0417
-346.877
-334.107
-310.667
-258.611
-371.551
-246.173
-323.192
-247.982
-212.769
-262.75
-231.116
-301.262
-280.579
-292.667
-292.31
-243.631
-279.383
-264.246
-237.138
-272.302
-189.147
-105.206
-148.102
-160.062
-162.722
-170.264
-140.103
-268.138
-230.507
-230.348
-160.227
-184.181
-291.221
-198.497
-217.953
-239.562
-187.119
-300.297
-261.942
-454.665
-125.946
-303.909
-462.55
-128.868
-274.794
-317.612
-451.743
-84.388
-263.962
-460.296
-104.473
22.8593
17.7963
-83.1274
-87.2019
-75.4537
-8.26321
10.7149
-64.3403
-82.6587
-66.7474
-975.554
-986.816
-1085.79
-953.364
-952.889
-942.509
-1097.47
-950.871
-996.094
-990.526
-971.309
-958.768
-898.958
-1000.63
-911.81
-960.218
-952.951
-934.755
-1034.74
-919.833
18.1831
17.5225
-1.88766
-61.4491
-29.8248
73.4365
26.5613
-58.4678
-77.0679
-55.6867
-97.8534
-29.6547
-3.09774
19.6813
13.2416
-59.732
-25.9151
-146.514
-237.527
-330.006
-214.016
-274.993
-232.475
-170.656
-114.782
-86.5755
-33.9802
-142.234
-8.10333
-197.439
-98.6663
8.71016
6.77566
12.0141
-87.1485
-233.699
-93.9247
-23.676
-105.135
-13.8507
-212.786
-315.806
-279.687
-333.515
-244.954
-260.49
-256.271
-247.756
-267.615
-194.763
-307.126
-167.53
-237.494
-284.339
-214.017
-228.483
-117.844
-179.827
-157.85
-222.155
-220.5
-203.365
-295.423
-265.684
-175.999
-391.354
-187.661
-299.751
-158.547
-161.965
-266.696
-172.547
-6.76279
-84.6256
-42.9678
-92.9886
-83.3533
-79.8223
-176.812
-185.561
-191.653
-161.518
-214.438
-206.05
-142.915
-158.335
-95.5492
-146.48
-102.531
-177.962
-149.644
-57.7659
-255.533
-113.459
-272.138
-159.687
-383.254
-117.495
-288.607
-302.254
-131.434
-220.5
-103.77
-166.006
-113.326
-231.398
-94.0585
-184.416
-98.7229
-575.254
-618.803
-699.07
-643.839
-558.163
-706.471
-660.272
-580.439
-624.963
-707.137
-670.331
-582.819
-707.376
-671.623
-573.889
-571.289
-525.632
-292.426
-525.124
-573.345
-571.493
-526.373
-285.679
-527.176
-778.057
-768.201
-849.568
-1065.58
-867.935
-744.698
-761.416
-880.124
-1079.74
-873.659
-779.824
-786.238
-855.768
-986.313
-859.344
-788.758
-788.805
-875.022
-1019.42
-866.058
-581.808
-588.828
-535.097
-288.012
-534.203
-594.878
-595.761
-530.999
-291.476
-531.545
-296.897
-270.74
-279.764
-232.405
-241.73
-251.41
-256.256
-250.999
-260.833
-155.217
-200.6
-190.512
-209.254
-228.155
-211.149
-223.88
-231.841
-215.397
-218.872
-240.398
-240.323
-248.005
-241.25
-248.909
-250.06
-243.615
-249.94
-174.014
-33.9826
-31.5992
-176.8
-34.2699
-35.5848
-148.223
-181.093
-182.364
-208.187
-224.077
-207.172
-204.715
-223.01
-205.971
-242.614
-233.729
-243.307
-212.027
-236.177
-235.405
-234.602
-244.929
-244.118
-247.478
-238.081
-246.977
-214.408
-236.906
-237.57
-237.24
-245.652
-246.356
-136.052
-88.0517
-89.6797
-62.7636
13.7748
-61.0075
-59.028
14.2001
-60.4845
68.5503
15.3749
67.9624
15.0312
66.7586
67.6382
62.4576
11.2944
64.3981
11.8953
66.1293
64.8513
-241.943
-231.744
-241.339
-208.762
-232.032
-232.228
-231.391
-240.877
-240.976
-141.516
-175.237
-175.536
-200.441
-217.276
-199.814
-198.966
-216.804
-199.335
-208.205
-231.984
-232.028
-242.001
-232.026
-241.42
-240.923
-231.589
-241.054
-166.23
-19.308
-12.3423
-169.97
-21.1253
-23.2436
-146.343
-183.915
-181.218
-201.517
-220.484
-203.103
-207.731
-222.438
-205.129
-257.84
-251.148
-253.08
-207.501
-236.822
-237.202
-245.141
-249.009
-250.634
-242.725
-234.879
-243.714
-208.895
-235.698
-234.552
-236.643
-246.992
-245.144
-133.682
-90.0068
-86.7895
-55.2617
18.4829
-56.6872
-60.5975
17.9045
-57.4259
54.9478
4.05995
63.5508
6.51834
67.419
63.1815
70.9363
16.634
70.1573
15.9554
68.2917
70.7818
-5365.7
-5949.51
-4882.56
-293.687
4025.11
761.165
-4765.83
-1570.08
-4147.14
-293.093
-437.656
-377.75
-149.341
-410.686
-466.946
-873.656
-1073.89
-805.911
-12561.5
-1693.92
3110.73
21426
-9298.46
18223.5
23520.9
26284.9
3212.42
17502.5
-1154.03
-3918.78
24682.9
19930.1
-2110.03
2240
1988.73
-8452.27
-8100.63
-8373.63
-8001.94
-8100.63
-8385.37
-7087.84
-6689.01
-8434.98
6440.15
4819.72
40395.9
12499.2
-1918.51
-4476.33
62696.4
33144.7
4361.33
34684.9
1915.51
2361.44
27359.4
32958.6
-2630.67
1489.27
-1569.39
7525.99
11109.4
4837.31
7403.61
4875.02
2410.39
94.0155
1040.56
7119.35
5038.42
4558.07
-10683.4
-2552.71
-2625.5
4257.24
14239.1
7062.46
6916.44
15232.9
9975.86
7631.64
7641
7830.02
-3720.63
-1335.23
-775.989
7427.9
8039.57
7706.68
14428.9
3212.67
11451.4
59310.6
19346.3
21609.1
4022.92
16268.4
15233.2
5022.32
4906.29
-5536.23
-6930.87
-5614.56
-316.243
990.944
1118.1
-6944.31
-5628.04
-5629.43
-7110.62
-7811.74
-7763.18
-8112.33
-8411.94
-8183.81
-8301.93
-8475.77
-8247.25
-8427.09
-8652.65
-8421.31
-7282.84
-7855.01
-7889.53
-8621.97
-8351.07
-8389.06
-186.41
1108.01
1017.5
-5556.1
-6950.74
-5578.65
-5614.51
-6949.71
-5598.08
7518.33
7240.46
4843.27
7215.72
4811.04
2425.12
852.809
-722.258
7165.97
4768.55
4791.03
-1459.1
715.475
798.525
3951.29
7177.21
4082.06
4513.32