/*--------------------------------*- C++ -*----------------------------------*\
| =========                 |                                                 |
| \\      /  F ield         | OpenFOAM: The Open Source CFD Toolbox           |
|  \\    /   O peration     | Version:  2012                                  |
|   \\  /    A nd           | Website:  www.openfoam.com                      |
|    \\/     M anipulation  |                                                 |
\*---------------------------------------------------------------------------*/
FoamFile
{
    version     2.0;
    format      ascii;
    class       volScalarField;
    location    "0.106/solid";
    object      sigmaDiff;
}
// * * * * * * * * * * * * * * * * * * * * * * * * * * * * * * * * * * * * * //

dimensions      [1 -1 -2 0 0 0 0];


internalField   nonuniform List<scalar> 
24998
(
-300.533
-17.3333
-222.15
-157.612
-268.08
-829.117
-806.082
-775.116
-719.036
-349.571
-214.632
-1087.05
-27.6211
-228.532
-847.433
-223.031
-171.186
-158.058
-170.332
-262.145
-238.067
-339.859
-1066.4
-1034.12
-809.216
-1029.85
-997.323
-780.817
-990.251
-919.539
-733.083
-894.509
-169.4
-945.352
-192.348
-483.498
-803.881
-221.656
-303.796
-208.751
-169.47
-200.417
-197.999
-157.647
-345454
-318.463
-259479
-42422.7
-107451
-820.902
-191452
-262959
-93705.5
-83402.3
-797.445
-58725.9
-115677
-68135.8
-52361.5
-754.856
-292.98
-13699
-26341.3
-3728.04
-203.102
-464.891
-1035.86
-418.229
-320.894
-926.733
-304.392
-345.031
-371.684
-1063.9
-165.589
-217.329
-318.147
-158.497
-182.066
-825.957
-322.824
-180.324
-253.281
-200.783
-208.097
-180.107
-247.542
-252.693
-168.819
-246.765
-170.463
-245.626
-274.768
-198.088
-171.842
-344.092
-246.121
-158.159
-344404
-449.606
-28991.9
-92862.2
-200112
-314323
-348024
-289450
-104527
-99239.7
-364344
-340691
-267800
-339765
-87739.9
-92586.1
-268952
-309506
-237045
-284738
-86644
-97373.1
-214852
-169174
-163714
-95206.1
-106161
-136929
-159905
-1051.35
-1044.8
-816.177
-194075
-86889.9
-264231
-79451.1
-163837
-232308
-145650
-85096.9
-210333
-72336.9
-186802
-119874
-189468
-66744.1
-78125.3
-122788
-159487
-98846.1
-141599
-53061.8
-70187.8
-85973.7
-133684
-108908
-70073
-81881
-75762.1
-105024
-1018.39
-1013.79
-793.888
-60958.1
-64794.4
-118572
-48970.6
-46526.6
-95160.1
-39577.2
-50396.3
-82653.1
-31777.2
-55423.4
-15594.6
-57588.7
-27002.9
-46422.1
-16853.9
-43775.7
-11296
-37185.7
-14219.1
-29283.5
-9291.84
-71381.3
-41182.9
-29479.8
-49766.2
-13953.7
-37154.4
-963.659
-953.594
-748.178
-228.478
-24073.4
-14907.4
-3602.04
-336.547
-9782.02
-199.252
-12430.5
-8009.74
-3844.56
-11606.7
-3926.14
-73.4656
-387.867
-276.459
-340.094
-284.824
-580.331
-516.62
-674.697
-382.987
-475.549
-37.8972
-209.395
-37.7163
-37.7539
-155.775
-39.2771
-28.233
-1976.18
-192.578
-258.595
-489.869
-853.838
-823.53
-269.872
-853.302
-483.407
-238.91
-461.06
-845.606
-803.346
-242.867
-843.386
-458.493
-212.247
-433.266
-825.26
-768.739
-223.198
-818.789
-427.205
-130.454
-385.829
-772.169
-676.324
-169.628
-673.799
-364.06
-298.861
-333.002
-613.169
-635.697
-808.55
-400.386
-699.434
-284.849
-342.168
-309.691
-262.225
-1096.71
-1097.45
-1001.65
-1017.19
-253.951
-1113.13
-83.916
-92.7754
-107.198
-314.208
-51.955
-166.177
-276.914
-859.202
-495.588
-875.908
-268.213
-910.863
-504.422
-332.344
-223.286
-300.295
-174.785
-271.934
-275.488
-162.434
-37.5279
-34.9045
-271.128
-168.821
-269.869
-189.114
-394.56
-296.359
-171.912
-24.5428
-32.3164
-517.371
-1784.34
-3753.93
-246.445
-1067.26
-982.925
-1057.48
-981.517
-253.469
-1053.99
-241.862
-1037.91
-1020.3
-971.782
-976.24
-240.681
-1024.94
-246.803
-811.929
-463.674
-847.272
-242.497
-850.803
-466.205
-238.488
-1015.3
-969.857
-1026.12
-966.781
-240.252
-1011.35
-231.882
-1003.51
-982.886
-947.157
-953.428
-226.944
-988.819
-230.407
-785.779
-438.4
-827.262
-223.233
-832.507
-442.818
-215.915
-976.242
-944.819
-982.235
-936.962
-225.801
-968.696
-179.014
-932.938
-922.406
-887.594
-909.964
-205.156
-927.566
-174.601
-738.076
-390.423
-784.554
-168.88
-800.339
-391.268
-586.82
-920.27
-872.761
-849.102
-765.36
-230.393
-932.748
-91.6402
-314.545
-387.707
-317.497
-625.151
-434.032
-14254.1
-859.944
-151.938
-545.008
-454.849
-448.291
-473.102
-462.431
-784.982
-535.805
-365.523
-716.15
-791.855
-551.549
-756.424
-286.727
-578.436
-588.955
-554.623
-548.823
-418.865
-599.768
-454.438
-492.183
-219.369
-217.093
-43.0723
-43.3963
-200.462
-31.5194
-30.4301
-22.6916
-36.6972
-198.59
-198.486
-30.5959
-31.9457
-155.797
-39.2128
-39.3578
-32.146
-32.0392
-376761
-2731.09
-384274
-3675.87
-256706
-276858
-29.1042
-174.705
-3539.23
-101732
-190559
-253165
-364.117
-234028
-105865
-252718
-209174
-277544
-369.695
-354.459
-340.117
-661.288
-664.459
-258.775
-824.014
-854.744
-474.835
-859.785
-251.378
-478.294
-657.953
-666.655
-328.701
-336.837
-224515
-229292
-139375
-163399
-175476
-89298.6
-152578
-192449
-166948
-127826
-87836.2
-149393
-312.822
-307.966
-646.171
-643.153
-239.283
-800.627
-839.193
-453.193
-842.725
-235.15
-455.967
-637.757
-642.061
-301.178
-306.312
-83745.6
-87563.5
-53118.7
-68375.7
-81910.9
-61876.7
-66026.5
-88313
-70720.5
-50038.9
-59620.1
-63904.9
-281.087
-271.682
-617.458
-604.976
-211.702
-761.881
-809.828
-411.739
-816.582
-195.168
-419.988
-577.944
-599.479
-252.059
-267.89
-2750
-3679.92
-3501.84
-11462.1
-22353.6
-16878.6
-12439.8
-23274.6
-12904.6
-3794.72
-13729.9
-11053.2
-214.978
-198.258
-426.871
-347.871
-110.926
-676.467
-628.554
-300.385
-324.535
-195.058
-146.917
-297.473
-372.854
-1056.34
-542.178
-243.949
-843.986
-335.709
-266.9
-912.343
-900.92
-1173.42
-881.383
-281.052
-1052.7
-691.269
-693.65
-326.074
-196.299
-282.642
-1485.1
-1256.09
-426.599
-14582.4
-438.496
-581.637
-224.198
-310.803
-362.81
-332.642
-303.851
-190.809
-452.361
-274.567
-266.097
-1080.26
-900.421
-1126.11
-284.194
-984.31
-1102.75
-1277.88
-1320.78
-764.902
-782.623
-696.333
-765.782
-1404.77
-1327.93
-68.3018
-453.036
-144.721
-91.7815
-118.622
-470.37
-217.406
-170.051
-343.993
-285.726
-180.242
-55.7433
-164.227
-241.167
-164.84
-249.406
-277.025
-845.88
-785.602
-537.91
-295.459
-881.929
-522.843
-353.603
-376.175
-672.208
-695.619
-597.827
-677.742
-454.163
-389.238
-356.458
-256.863
-299.642
-200.576
-281.78
-295.636
-254.733
-296.337
-300.459
-203.884
-204.38
-176.203
-280.617
-276.782
-289.5
-250.047
-292.477
-295.725
-250.86
-293.391
-163.158
-31.9603
-34.4578
-30.266
-27.936
-23.7089
-27.3726
-288.741
-245.362
-287.594
-168.825
-272.352
-270.071
-245.242
-290.025
-287.83
-201.522
-200.853
-181.787
-274.149
-286.856
-406.706
-258.887
-313.427
-291.628
-252.618
-304.08
-169.106
-38.81
-33.9072
-23.6873
-25.915
-31.7786
-27.5652
-225883
-375984
-240275
-520.961
-2349.45
-3691.7
-3383.14
-83650.4
-104882
-194065
-7618.93
-183069
-88895.9
-191793
-383584
-7166.91
-146152
-244581
-8628
-346858
-353368
-103714
-322657
-120491
-107397
-75261.5
-67820.6
-54240.4
-105901
-65561.6
-328461
-131393
-124941
-306735
-301858
-221185
-306813
-206906
-90064.9
-156351
-166883
-180056
-90777.3
-170279
-302074
-187173
-202050
-275501
-270647
-98374.3
-251756
-83704.9
-91085.5
-30108.6
-37825.7
-50547.8
-92560.7
-40718.7
-247089
-66422.4
-79183.6
-310359
-344504
-181623
-273997
-310822
-276010
-177160
-306347
-324323
-349853
-253025
-226459
-99841.6
-178825
-202705
-230592
-101440
-206171
-196174
-222642
-305940
-276356
-146480
-215701
-241492
-271996
-149682
-245212
-243514
-272228
-1256.8
-1227.25
-754.765
-755.203
-245.59
-1056.02
-981.721
-1043.09
-987.178
-244.196
-1050.79
-748.601
-756.734
-1207.07
-1224.09
-242.096
-1040.7
-977.583
-1033.5
-243.889
-975.885
-1028.22
-1178.93
-1187.66
-738.116
-742.734
-745.456
-743.255
-1200.78
-1189.77
-246.387
-813.625
-850.539
-471.792
-251.886
-850.098
-468.817
-314.353
-319.365
-647.862
-652.379
-654.589
-652.746
-327.444
-321.172
-226626
-145010
-161247
-152720
-84053.2
-141427
-231310
-182105
-166551
-125420
-82997.6
-137526
-195108
-199686
-175007
-38305.4
-47719.7
-27857.9
-80089.9
-22211.4
-179323
-62416.3
-51179.7
-17676.4
-78275.4
-20740.8
-154766
-150300
-139509
-157686
-122871
-72101.1
-90704.9
-104026
-121247
-73724.5
-108403
-153227
-100591
-117296
-130036
-125982
-35515.2
-114357
-28256.6
-60797
-16583.7
-16357.4
-17094.6
-63256.5
-16364.1
-110644
-21236.4
-26219.5
-178068
-206667
-212036
-123558
-186423
-239422
-210761
-157340
-120027
-182774
-136073
-113943
-75455.6
-84328.1
-102272
-124861
-77133.3
-104979
-90994.9
-110933
-173999
-145748
-88683.6
-101115
-125222
-153730
-92881.2
-128740
-114343
-141759
-1176.1
-1169.09
-736.391
-733.147
-238.128
-1022.52
-961.539
-1003.37
-965.906
-236.206
-1007.68
-727.471
-731.987
-1159.76
-1167.1
-232.608
-1008.9
-959.883
-998.734
-235.658
-955.127
-993.968
-1137.49
-1147.03
-709.839
-717.928
-725.661
-720.157
-1157.44
-1149.61
-230.215
-790.061
-837.803
-450.077
-235.429
-833.944
-446.642
-283.595
-290.812
-620.809
-628.592
-636.02
-630.765
-299.25
-293.065
-86361.3
-58101.3
-73424.8
-86231.4
-58468.3
-72849.8
-90220.6
-95059.4
-78732.9
-55523.2
-56203.1
-68438.9
-67573.6
-70828.9
-58046.1
-14136.4
-16097.5
-16648.3
-42298.1
-16569
-60921.8
-19926.6
-16881.6
-15519.1
-39611
-16415.6
-34373.5
-31703.4
-53244.1
-36104.7
-39613.3
-35621.7
-25162.3
-35701.9
-51363.1
-38406.4
-39453.7
-33367.2
-24005.4
-35421.6
-26480.8
-24302
-13544.8
-22247.2
-11721.2
-20120.9
-9974.46
-12576
-15072.1
-22277.6
-13305.9
-20381
-8725.32
-11051.3
-57709.4
-81112.3
-97763.8
-58205.6
-75167.3
-110519
-84653.4
-51836.4
-53853.7
-72085.9
-51098.9
-37969.3
-38597.1
-23810.2
-34510.4
-48194.5
-41510.3
-36123.4
-24812.7
-36231.2
-54595.5
-34770.1
-22599.3
-17739
-30312.8
-49165.5
-25959.3
-32407.5
-17321.2
-32254.5
-1134.25
-1122.28
-706.373
-693.339
-213.743
-973.329
-925.382
-951.362
-934.267
-192.161
-960.439
-664.58
-687.572
-1104.44
-1118.28
-178.734
-943.383
-922.563
-942.457
-187.803
-913.233
-933.891
-1089.86
-1087.65
-500.713
-588.263
-654.075
-609.493
-1100.45
-1089.26
-175.302
-742.486
-807.813
-403.143
-193.97
-802.181
-395.644
-218.094
-227.03
-451.574
-515.489
-568.381
-531.35
-247.152
-229.92
-3516.57
-2514.49
-8780.42
-21894.1
-15307.8
-12837.9
-4507.62
-20589.4
-11459.1
-2694.22
-12416.8
-10076.1
-1300.6
-1964.5
-993.284
-2708.93
-3587.18
-8964.62
-7429.54
-5516.63
-1515.78
-7822.08
-4703.75
-2945.8
-5818.32
-4276.96
-2450.87
-5308.89
-16233.8
-6174.69
-7505.65
-15594.9
-6275.5
-2914.13
-4800.79
-6482.06
-1096.32
-1160.99
-468.956
-399.15
-662.56
-785.026
-720.771
-1175.68
-383.178
-1235.2
-320.171
-295.207
-64.8034
-35.5536
-184.951
-222.936
-196.36
-126.479
-157.029
-125.418
-188
-478.146
-265.843
-213.054
-293.132
-289.645
-101.532
-41.6785
-32.358
-104.016
-250.755
-181.981
-196.931
-285.462
-231.344
-277.503
-172.258
-232.4
-233.576
-160.279
-126.892
-128.411
-231.539
-169.695
-230.888
-222.646
-338.249
-291.045
-194.537
-174.724
-151.388
-438.381
-503.56
-703.099
-216.238
-136.34
-248.474
-340.923
-283.297
-209.785
-230.519
-1799.72
-909.642
-796.461
-2170.05
-495.057
-3091.36
-1697.73
-346.245
-166.572
-355.856
-314.158
-402.989
-327.343
-272.754
-867.23
-772.71
-649.343
-477.868
-635.2
-527.24
-641.08
-536.284
-176.283
-347.131
-267.052
-349.829
-245.715
-437.672
-156.532
-249.733
-88.7864
-211.532
-45.0959
-47.7971
-172.26
-137.876
-141.53
-38.346
-199.742
-37.28
-198.448
-36.945
-36.7026
-156.988
-126.056
-125.043
-359324
-136.118
-695.412
-400.331
-381046
-20089.6
-10787.8
-371914
-385899
-51815
-73277.2
-78169.8
-137300
-14373.9
-145093
-108209
-150489
-374138
-417626
-205536
-248479
-204472
-219720
-111897
-92227.7
-106675
-282730
-266747
-87203.6
-84902.7
-91767.4
-69070.6
-103342
-65967.2
-76413.9
-63875.3
-66132
-60170.1
-124211
-111442
-45475.4
-54862.9
-49133.2
-343.929
-8681.21
-1795.21
-3567.15
-23438.5
-23191.2
-19295.1
-20696
-15368.5
-3875.08
-7042.49
-6599.76
-577.577
-675.607
-826.862
-438.573
-362.608
-207.185
-305.413
-372.342
-345.987
-336.269
-527.147
-647.993
-756.807
-636.569
-393.78
-591.538
-434.813
-543.981
-234.947
-542.449
-435.559
-233.088
-420.804
-209.493
-272.359
-190.518
-371.302
-363.065
-1986.4
-883.33
-1931.47
-811.108
-2682.47
-831.54
-1634.74
-374.835
-347.619
-361.274
-215.857
-584.745
-192.798
-362.264
-183.369
-589.32
-198.8
-170.581
-115.168
-294.79
-289.041
-344.449
-202.14
-127.603
-307.664
-180.313
-303.887
-227.866
-318.898
-204.815
-288.041
-108.906
-159.573
-169.551
-132.914
-214.128
-139.055
-120.318
-146.465
-164.617
-201.651
-159.583
-211.268
-129.243
-184.213
-366.698
-291.601
-336.656
-180.604
-242.25
-242.735
-253.96
-306.008
-305.416
-38.4541
-202.223
-38.612
-44.5409
-206.535
-41.8641
-179.189
-241.998
-241.021
-303.046
-248.401
-303.816
-306.471
-252.183
-306.579
-166.932
-137.056
-134.631
-302.253
-246.182
-301.537
-169.638
-232.196
-231.242
-245.418
-302.51
-301.784
-97.3178
-215.311
-45.8054
-37.0922
-198.911
-37.3372
-174.013
-233.856
-236.402
-404.218
-294.472
-357.1
-303.537
-247.23
-305.236
-161.775
-126.608
-129.071
-272893
-357991
-285009
-498.943
-682.378
-744.983
-81051.9
-76922.1
-34430.6
-63172.6
-36076
-110032
-92664
-109974
-395423
-95662.3
-212502
-285471
-72809.2
-328466
-342254
-223814
-303521
-235406
-121581
-57172.3
-66700.5
-52696.1
-101286
-52973.9
-337843
-240149
-263163
-326228
-282365
-269796
-325726
-258225
-88549.2
-102743
-103947
-109616
-92076.8
-108928
-283133
-214091
-225476
-294970
-251358
-219338
-270574
-208544
-88148.5
-52353
-52432.6
-52523.9
-95666
-52446.8
-228560
-165003
-174999
-375831
-390638
-195051
-191458
-217640
-184888
-167839
-193307
-468712
-450016
-367028
-351869
-96724
-113761
-119208
-143009
-104650
-136924
-288078
-304161
-370816
-355465
-140132
-146604
-153442
-182226
-156338
-174562
-291459
-307608
-207966
-155790
-167018
-101469
-85995.6
-100121
-250096
-210791
-199422
-90363.6
-80703.7
-92197.4
-177068
-218209
-158033
-111632
-120584
-52212.7
-83495
-52002.9
-196893
-160877
-151089
-48858.7
-74401.2
-49631.3
-172928
-132700
-152586
-175736
-141495
-68611.1
-72702.3
-75185
-88436.8
-76734.4
-86433
-135650
-100173
-110570
-146645
-110200
-108015
-129671
-99411.8
-55691.4
-39134.3
-40654.8
-47982.1
-67956.2
-47002.1
-96254.7
-66312.1
-73593.5
-206916
-222419
-144343
-130380
-137510
-286081
-269986
-109945
-112704
-116887
-199449
-184576
-71929.8
-65179.4
-68988.6
-85649.5
-80339.6
-81315.2
-128574
-141972
-201799
-186614
-80114.8
-73349.5
-80061.1
-107638
-101057
-100691
-129039
-142882
-71476.7
-51846.7
-60316.4
-70152.2
-62765.8
-67534.2
-106158
-97205.3
-87180.4
-50719.4
-51451.7
-53630.8
-55169.8
-84409
-47131.9
-31900.5
-37093.8
-37550.6
-47705
-35912.9
-73007.3
-63384.3
-56597.6
-25575
-34337.7
-27308
-45927.4
-21908.7
-49418.4
-47910.1
-41633
-29910.4
-26692.2
-29725.6
-47780.4
-43810.1
-44811.8
-23337.3
-17131.8
-22453.6
-35938.4
-16375.2
-29884.4
-30392
-25245.4
-16093.2
-12674.4
-14171.7
-23858.7
-26863.8
-22164.6
-13610.7
-10177.2
-13161.4
-63776.6
-74726.1
-71149.8
-66985.5
-64649.1
-124520
-111272
-40886.9
-45322.7
-46458.3
-62633.3
-53103.2
-32570.4
-24804.4
-28853.5
-44222.4
-47097.7
-40501.2
-22650.2
-29064
-60280.6
-50282.9
-16576.8
-16701.6
-20485.9
-39108.4
-33260.3
-33935.7
-18691.9
-25204.3
-778.075
-1283.91
-2239.83
-23674.3
-21139.4
-20678.2
-9733.73
-15669.5
-11249.6
-3215.48
-6173.74
-5885.96
-452.52
-5803.05
-285.832
-1280.51
-1315.11
-11201
-10715.2
-9743.58
-4661.66
-9157.73
-6686.83
-3577.92
-3112
-2920.4
-1403.64
-1780.89
-15526.2
-9538.11
-12185.4
-16740.7
-11537.5
-3600.97
-2868.96
-3514.5
-999.923
-763.66
-879.006
-1190.09
-220.491
-228.673
-117.583
-123.717
-130.27
-170.703
-196.251
-276.454
-395.138
-253.871
-285.199
-292.826
-226.923
-286.263
-152.058
-152.857
-143.673
-221.314
-142.8
-604.431
-571.165
-1148.81
-483.751
-648.784
-699.896
-592.247
-440.521
-995.701
-306.126
-386.525
-463.612
-547.539
-381.866
-160.806
-155.417
-27.5949
-159.139
-223.054
-177.055
-194.481
-31.7151
-141.272
-157.458
-92.725
-38.8435
-91.6413
-156.793
-124.677
-125.17
-38.9347
-91.1444
-91.4538
-139.708
-44.9869
-189.232
-676.604
-630.708
-312.918
-51.2522
-295.91
-212.517
-536.381
-265.632
-476.831
-346.16
-346.822
-472.383
-536.967
-535.856
-264.701
-350.483
-472.208
-540.486
-348.332
-469.294
-522.804
-241.067
-459.593
-333.944
-334.544
-460.214
-521.831
-523.612
-240.703
-335.963
-462.013
-524.747
-335.467
-461.112
-495.928
-218.107
-428.859
-311.476
-313.808
-432.284
-492.103
-498.655
-218.388
-318.184
-438.558
-501.635
-316.538
-435.88
-441.36
-164.838
-281.848
-239.472
-264.131
-312.768
-410.844
-456.747
-166.662
-279.122
-347.063
-464.251
-276.661
-335.621
-810.595
-781.401
-417.944
-807.398
-730.474
-776.4
-888.091
-574.288
-313.97
-429.52
-470.023
-532.899
-592.479
-478.044
-222.778
-304.519
-284.859
-322.294
-337.888
-318.468
-310.477
-323.283
-308.262
-1098.89
-701.83
-256.716
-860.566
-1089.17
-869.837
-716.6
-1091.02
-257.525
-843.621
-705.614
-1075.66
-858.558
-718.041
-133.18
-71.8412
-121.986
-125.697
-93.6713
-115.441
-268.634
-137.498
-113.695
-92.5802
-79.3018
-112.176
-122.019
-73.423
-112.377
-90.3215
-65.2309
-106.519
-115.511
-258.152
-241.206
-205.293
-152.942
-111.455
-155.067
-202.048
-120.413
-159.614
-566.609
-270.5
-517.463
-364.4
-572.427
-361.955
-515.176
-559.378
-270.824
-354.593
-483.854
-548.368
-358.565
-500.458
-311.33
-315.951
-298.507
-234.82
-284.357
-287.846
-305.804
-300.522
-301.63
-173.493
-236.323
-234.909
-255.158
-273.178
-256.467
-259.046
-274.399
-257.788
-160.859
-130.909
-128.992
-93.0371
-36.6593
-94.2097
-96.4466
-36.3685
-94.6601
-254.303
-270.655
-253.795
-169.148
-230.026
-230.339
-270.209
-252.913
-253.3
-201.327
-253.691
-267.387
-374.392
-338.296
-319.823
-278.708
-311.713
-293.734
-187.066
-137.543
-146.951
-130.152
-25.8226
-112.218
-101.394
-27.4754
-108.863
-494.686
-854.264
-828.956
-832.724
-3311.65
-1250.2
-1535.88
-3839.52
-1508.78
-1043.8
-675.525
-247.381
-813.204
-807.865
-671.052
-1047.37
-1046.42
-249.32
-819.885
-690.196
-1056.82
-809.481
-675.099
-1030.28
-669.243
-240.754
-798.113
-1031.62
-795.709
-668.102
-1027.7
-240.565
-792.595
-665.501
-1026.17
-792.997
-666.74
-528.277
-244.282
-467.171
-339.127
-529.185
-338.721
-466.469
-527.309
-244.653
-336.996
-463.473
-525.886
-337.775
-464.919
-1019.54
-661.44
-238.259
-786.715
-785.583
-661.322
-1019.3
-1021.44
-238.722
-789.963
-664.024
-1023.41
-786.952
-662.111
-999.562
-652.011
-229.39
-772.9
-1001.74
-769.798
-650.123
-996.173
-228.535
-767.025
-647.572
-994.745
-767.051
-648.446
-508.259
-227.077
-447.615
-324.831
-510.238
-323.794
-445.894
-506.352
-227.152
-320.408
-441.371
-503.888
-321.88
-443.518
-984.2
-640.552
-220.123
-757.36
-757.796
-641.702
-982.285
-988.487
-221.661
-764.72
-646.102
-991.181
-761.25
-643.872
-943.366
-619.667
-181.271
-736.184
-947.138
-734.566
-616.334
-936.396
-179.976
-731.515
-605.884
-930.687
-731.956
-610.674
-458.897
-169.449
-373.766
-279.663
-460.925
-277.382
-367.064
-463.812
-169.872
-277.799
-354.926
-462.733
-277.841
-360.137
-878.637
-555.053
-398.602
-780.016
-747.157
-568.495
-845.494
-907.266
-350.742
-738.578
-599.668
-920.325
-739.053
-589.217
-198.168
-110.702
-151.495
-122.836
-138.903
-182.194
-202.891
-238.296
-266.263
-290.739
-379.781
-404.87
-266.132
-264
-224.921
-467.795
-217.22
-417.424
-158.773
-427.835
-254.532
-448.288
-266.019
-369.539
-6034.09
-9229.57
-653.864
-353.612
-1781.83
-262.634
-4180.1
-1257.01
-608.938
-322.213
-669.94
-500.662
-408.815
-1083.25
-2759.92
-5267.45
-33927.1
-7142.88
-8977.84
-7050.58
-4060.47
-1729.37
-651.912
-831.629
-2327.12
-547.629
-3678.11
-1759.03
-403.823
-692.688
-1185.51
-123.618
-196.482
-232.906
-479.394
-204.891
-312.109
-481.309
-477.557
-543.19
-600.742
-682.108
-446.891
-488.758
-1174.73
-1246.89
-269.144
-562.112
-496.318
-716.485
-384.32
-380.053
-312.321
-902.704
-433.023
-831.327
-1172.83
-779.959
-1035.5
-404.722
-727.842
-3860.75
-597.379
-839.149
-471.264
-467.125
-661.364
-719.798
-526.337
-642.974
-458.655
-1445.43
-833.407
-980.005
-1407.75
-474.637
-658.802
-747.906
-774.122
-618.761
-567.439
-524.414
-289.211
-439.48
-575.582
-481.391
-388.87
-553.064
-301.047
-461.728
-366.835
-470.927
-372.755
-543.655
-443.129
-396.736
-580.141
-466.815
-463.892
-473.167
-556.563
-455.661
-408.025
-407.581
-607.433
-478.432
-545.46
-634.806
-678.825
-412.288
-581.112
-589.058
-337.039
-442.631
-622.496
-702.926
-283.34
-537.744
-649.937
-1220.89
-655.956
-676.085
-714.777
-737.521
-655.416
-465.703
-374.23
-359.011
-464.3
-381.617
-367.19
-376.09
-453.969
-467.994
-351.742
-238.411
-60.9509
-79.8843
-212.547
-57.5874
-49.3252
-44.6298
-34.9112
-64.2268
-36.6201
-64.3946
-62.1133
-175.042
-168.123
-144.915
-102.17
-30.0022
-105.037
-132.2
-27.9426
-108.069
-90.2858
-20.8639
-83.0855
-67.8925
-22.079
-80.8579
-199.497
-37.0616
-37.1291
-198.468
-37.0345
-36.655
-101.577
-31.2988
-102.238
-31.4676
-103.088
-102.754
-156.732
-124.647
-124.835
-92.1709
-39.689
-91.2352
-91.1106
-39.8275
-91.0616
-104.152
-32.3124
-104.481
-103.821
-32.3912
-103.973
-363973
-926.9
-1586.74
-574.071
-403408
-20164.7
-2344.39
-6694.54
-337465
-267131
-350547
-402487
-390291
-270230
-365442
-354631
-74.1955
-44.9887
-61.5605
-51.088
-79.6882
-65.9267
-25434
-933.122
-9179.37
-90047.5
-152600
-143953
-124068
-248425
-6659.83
-162997
-10024.9
-176714
-248988
-167203
-357.618
-4516.49
-6326.97
-166356
-243810
-172931
-108045
-153503
-151996
-246710
-177347
-174775
-406103
-413132
-307833
-267274
-8509.79
-379388
-5046.67
-368241
-269580
-371365
-123.563
-5022.55
-1100.35
-303.856
-311.641
-324.668
-349.921
-322.811
-319.263
-315.669
-318.077
-347.014
-318.239
-439.369
-433.562
-516.815
-658.296
-513.226
-438.931
-436.585
-523.407
-660.075
-513.656
-537.903
-479.429
-253.955
-346.072
-538.84
-479.111
-345.606
-536.662
-254.319
-471.942
-343.339
-475.753
-344.578
-533.975
-438.258
-436.566
-662.16
-513.482
-521.056
-523.928
-665.469
-522.322
-430.605
-435.973
-300.171
-295.625
-307.532
-331.422
-307.825
-292.844
-294.185
-312.793
-333.21
-312.103
-210265
-243675
-240415
-224855
-183670
-149489
-197469
-216282
-152922
-202131
-126563
-165540
-120126
-90755.7
-99886.2
-104887
-162268
-111786
-117983
-245645
-261447
-254989
-181388
-240336
-221050
-177743
-235485
-96125.3
-136908
-101815
-86376.9
-98174.4
-93398.5
-139989
-109728
-103782
-272.509
-273.939
-291.816
-311.827
-291.572
-277.052
-275.239
-289.396
-310.08
-288.848
-418.047
-418.693
-504.519
-644.95
-502.929
-420.784
-419.839
-501.498
-643.881
-502.364
-520
-458.649
-237.121
-333.08
-521.075
-457.762
-332.621
-518.935
-237.432
-455.215
-330.741
-456.389
-331.538
-517.54
-417.051
-415.917
-639.232
-496.503
-498.47
-500.938
-640.8
-499.248
-413.41
-414.774
-271.257
-269.665
-284.049
-303.414
-283.505
-266.875
-268.384
-286.554
-305.26
-286.467
-72652.1
-99330.9
-91333.2
-80039
-61262.5
-59418.6
-70316.1
-83278.1
-61595.4
-73463.1
-67564.2
-74879.9
-63121.8
-64038.2
-55256.1
-58901
-72613
-57380.4
-61654.7
-95229.7
-107299
-112062
-80518.3
-100846
-86673.9
-78006
-97216.9
-46361
-55776.9
-50434.9
-57290.3
-54006.3
-50376.5
-57754.6
-55965
-51812.5
-238.023
-242.346
-264.37
-278.771
-263.997
-248.637
-245.081
-257.941
-275.771
-257.992
-384.904
-390.034
-479.459
-613.861
-474.558
-396.527
-392.652
-466.431
-609.517
-472.59
-484.005
-424.38
-204.488
-308.158
-488.903
-419.925
-305.241
-480.402
-203.546
-408.804
-297.611
-414.214
-301.273
-474.305
-381.795
-374.779
-585.941
-442.134
-452.78
-464.093
-593.347
-455.698
-362.112
-371.24
-234.633
-228.845
-240.148
-258.502
-240.74
-218.174
-224.841
-250.434
-263.177
-249.661
-753.444
-7250.2
-8123.36
-4587.08
-2409.49
-5934.31
-4384.2
-9369.62
-7249.12
-5526.96
-23285.8
-18054
-19109.7
-20023
-13691.5
-17906.4
-16645.1
-13491.1
-17711.8
-9428.62
-13766.4
-21613.1
-18760.1
-16634.7
-10738.5
-17284.3
-15089.7
-3873.09
-5704.18
-6457.66
-10581.9
-12284.4
-8021.7
-6981.73
-12082.2
-7856.45
-181.041
-204.648
-197.214
-205.845
-192.101
-197.777
-201.64
-173.463
-196.667
-181.136
-214.217
-258.582
-351.464
-401.247
-319.522
-288.482
-262.918
-267.936
-373.086
-315.295
-382.502
-243.629
-62.9797
-197.106
-401.122
-235.437
-172.334
-563.566
-658.325
-387.072
-838.506
-491.218
-264.698
-221.898
-392.358
-469.042
-167.113
-259.098
-170.156
-202.363
-172.508
-509.151
-253.12
-255.299
-320.399
-253.589
-149.662
-166.608
-132.158
-237.221
-198.474
-161.893
-159.267
-188.99
-152.394
-659.555
-762.817
-1493.73
-166.753
-261.814
-261.513
-819.776
-294.167
-701.007
-395.922
-310.95
-275.453
-327.305
-321.123
-293.647
-365.311
-1256.32
-416.972
-384.629
-360.881
-632.948
-323.15
-382.393
-494.581
-580.135
-1230.14
-547.154
-768.647
-1006.72
-783.171
-1168.93
-499.294
-845.312
-3838.47
-568.934
-610.314
-302.801
-192.762
-289.709
-229.118
-320.407
-405.965
-673.654
-1664.85
-973.485
-806.595
-403.938
-430.298
-320.942
-667.365
-279.298
-460.107
-1035.55
-752.415
-264.925
-831.286
-982.006
-738.209
-895.429
-1092.96
-279.322
-713.15
-934.383
-729.318
-963.68
-1083.49
-576.325
-548.534
-685.171
-666.177
-662.968
-677.667
-655.607
-645.56
-589.35
-580.724
-222.111
-381.588
-291.425
-286.343
-408.75
-229.041
-285.289
-149.794
-185.473
-158.128
-209.662
-162.6
-158.913
-196.807
-146.498
-262.127
-267.539
-229.381
-228.996
-183.984
-217.474
-692.469
-798.04
-542.492
-1503.6
-528.367
-809.218
-839.84
-612.573
-1415.35
-482.129
-385.26
-671.052
-437.869
-2591.55
-5441.88
-62598.4
-6069.38
-5306.73
-6594.57
-4481.12
-1128.9
-640.992
-721.714
-666.592
-1396.4
-1415.6
-3213.38
-3160.85
-1859.32
-229.527
-538.507
-370.875
-175.985
-381.85
-236.505
-341.544
-310.346
-183.8
-348.464
-376.114
-353.99
-361.679
-334.716
-282.932
-328.382
-333.764
-288.775
-333.165
-175.625
-177.705
-152.956
-216.661
-144.436
-209.19
-190.165
-178.576
-449.387
-259.09
-594.351
-243.739
-156.228
-261.706
-246.949
-164.641
-230.793
-1040.62
-272.184
-688.153
-834.902
-1065.14
-673.737
-810.644
-1026.38
-272.808
-693.115
-834.757
-1051.76
-667.469
-795.863
-702.137
-712.627
-479.237
-1298.57
-481.741
-689.629
-705.961
-484.182
-1313.72
-486.67
-603.846
-610.907
-778.015
-699.099
-715.418
-712.688
-785.528
-718.472
-602.312
-605.661
-598.849
-588.997
-666.149
-710.18
-660.813
-588.14
-574.729
-706.109
-738.006
-673.765
-690.727
-675.273
-535.169
-1361.61
-511.419
-733.748
-672.504
-488.594
-1342.34
-479.529
-118.908
-72.3006
-104.074
-78.8765
-70.163
-125.222
-66.5361
-200.833
-389.355
-497.25
-348.931
-386.377
-320.172
-279.352
-148.197
-99.7095
-118.56
-234.738
-48.4735
-258.138
-179.213
-127.918
-107.405
-115.358
-148.317
-247.159
-91.7531
-98.1003
-118.951
-97.2747
-166.929
-379.683
-412.561
-502.604
-384.861
-378.647
-342.941
-361.258
-263.022
-214.009
-323.014
-197.266
-230.312
-189.005
-233.35
-258.548
-110.12
-265.774
-173.709
-282.109
-176.219
-257.574
-223.541
-446.934
-248.396
-270.52
-247.242
-203.37
-214.52
-169.682
-141.844
-226.398
-31.069
-126.488
-91.9587
-138.971
-141.038
-148.182
-128.658
-201.774
-248.899
-174.271
-247.906
-164.32
-141.21
-66.9208
-134.121
-107.463
-96.7209
-77.7635
-153.205
-87.9618
-128.221
-102.271
-157.893
-211.008
-301.085
-321.947
-178.75
-256.223
-209.242
-145.646
-149.44
-107.633
-203.661
-166.976
-351.385
-328.074
-227.951
-560.656
-291.183
-505.434
-364.953
-567.596
-484.434
-368.273
-548.265
-289.966
-458.741
-370.364
-543.711
-465.261
-369.931
-320.015
-310.162
-328.601
-358.659
-331.034
-318.774
-311.815
-339.717
-360.273
-338.683
-464.156
-461.94
-521.031
-687.737
-551.247
-442.592
-463.65
-557.353
-696.779
-555.371
-462.937
-435.883
-469.407
-616.555
-487.948
-413.517
-424.825
-550.953
-647.16
-501.508
-330.608
-355.168
-361.913
-434.697
-358.167
-369.675
-363.371
-350.652
-418.02
-351.47
-372.204
-334.692
-346.019
-267.515
-297.304
-307.792
-311.205
-303.009
-316.08
-185.225
-262.619
-246.964
-266.107
-284.218
-268.267
-287.172
-289.05
-274.037
-254.478
-300.526
-304.124
-309.688
-297.869
-309.818
-306.292
-300.214
-309.601
-202.684
-40.3601
-38.9134
-206.02
-40.5767
-41.3419
-177.748
-237.776
-239.435
-265.051
-279.647
-263.907
-260.516
-278.293
-262.273
-305.737
-290.364
-306.467
-249.243
-305.413
-304.673
-291.433
-308.241
-307.402
-309.853
-295.222
-309.853
-251.605
-306.042
-306.469
-294.352
-308.885
-309.475
-166.108
-131.611
-133.836
-101.516
-32.9337
-99.4082
-96.9945
-33.2561
-98.7896
-101.027
-29.4342
-100.152
-29.0914
-98.3737
-99.6844
-92.0618
-25.6419
-94.9109
-26.1547
-97.4449
-95.5666
-304.974
-288.025
-304.199
-245.707
-301.021
-301.115
-287.612
-303.828
-303.797
-169.128
-230.166
-230.626
-255.33
-271.437
-254.421
-253.086
-270.75
-253.749
-245.288
-301.121
-301.322
-305.931
-288.871
-304.87
-304.023
-288.19
-304.257
-210.497
-37.7651
-41.0821
-199.189
-37.726
-37.4926
-177.172
-245.312
-240.009
-257.131
-277.017
-259.98
-269.496
-280.972
-263.852
-414.305
-353.508
-365.287
-270.763
-320.988
-333.77
-328.064
-327.499
-341.179
-307.291
-294.047
-309.356
-249.172
-313.089
-308.178
-297.934
-318.688
-312.906
-163.151
-135.305
-130.284
-92.6147
-37.9765
-94.4134
-99.6224
-37.2611
-95.3636
-80.7888
-21.0372
-93.4626
-22.1917
-99.2792
-93.1141
-104.508
-30.9848
-103.436
-30.3096
-100.655
-104.279
-273171
-230667
-279586
-362597
-302655
-287557
-235590
-292876
-286207
-516.596
-832.251
-792.697
-1207.21
-2950.95
-1296.72
-1522.41
-3517.44
-1440.25
-43151.5
-6428.02
-28150.7
-74254.3
-102194
-88077.4
-65944.9
-139312
-58556.2
-94524.7
-43491.5
-144605
-167516
-124129
-7101.59
-26860.6
-25818.4
-143245
-186025
-144348
-91579.9
-106718
-109020
-189024
-144717
-144754
-391144
-305298
-304476
-25163.4
-8166.25
-28275.1
-186505
-188027
-72524.6
-248600
-79437.6
-299412
-214494
-275208
-9328.93
-27551.9
-28305
-333213
-378835
-155256
-109324
-162572
-308285
-253722
-240280
-114956
-177876
-170160
-117528
-54193
-61950.4
-38833.7
-62290.8
-24201.3
-19055.3
-62830.1
-15358.1
-13301.8
-58142.3
-14556.3
-103415
-54026.1
-53284.5
-62005.1
-17765
-16192.5
-343845
-259620
-261994
-202011
-122629
-193891
-184643
-122440
-186586
-321368
-287235
-266835
-216472
-260515
-321005
-243511
-254940
-211715
-247822
-254182
-89323
-106154
-105083
-127472
-159921
-129730
-134044
-163430