/*--------------------------------*- C++ -*----------------------------------*\
| =========                 |                                                 |
| \\      /  F ield         | OpenFOAM: The Open Source CFD Toolbox           |
|  \\    /   O peration     | Version:  2012                                  |
|   \\  /    A nd           | Website:  www.openfoam.com                      |
|    \\/     M anipulation  |                                                 |
\*---------------------------------------------------------------------------*/
FoamFile
{
    version     2.0;
    format      ascii;
    class       volScalarField;
    location    "0.106/fluid";
    object      p;
}
// * * * * * * * * * * * * * * * * * * * * * * * * * * * * * * * * * * * * * //

dimensions      [0 2 -2 0 0 0 0];


internalField   nonuniform List<scalar> 
16422
(
-0.00354508
-0.00401803
-0.00393245
-0.00417649
-0.0042491
-0.00428138
-0.00433174
-0.00443865
-0.00467583
-0.00520264
-0.00632402
-0.00860943
-0.0131872
-0.0224735
-0.0477297
-0.00367325
-0.00414161
-0.00406682
-0.00434026
-0.00446288
-0.00457009
-0.00472651
-0.0049821
-0.00542408
-0.00620793
-0.00756507
-0.00981457
-0.013378
-0.0183407
-0.0220536
-0.00374871
-0.00421761
-0.00415504
-0.00444946
-0.0046042
-0.00475695
-0.00497535
-0.00531367
-0.00586197
-0.00675533
-0.00814692
-0.0101495
-0.0126935
-0.015123
-0.0153924
-0.00360017
-0.00406198
-0.00397763
-0.00423752
-0.00434037
-0.00441674
-0.00452195
-0.00469245
-0.00500258
-0.0056036
-0.00675611
-0.00887859
-0.0126375
-0.0187998
-0.0263233
-0.00372003
-0.00417745
-0.00410303
-0.00439037
-0.00453809
-0.00467814
-0.00487128
-0.00515791
-0.00562069
-0.00639541
-0.00766705
-0.00963366
-0.0124167
-0.0155577
-0.0164036
-0.00378857
-0.00424772
-0.00418567
-0.00449261
-0.00466846
-0.00484669
-0.00509104
-0.00544323
-0.00598266
-0.00682445
-0.00808242
-0.00979708
-0.0117971
-0.0134184
-0.0131957
-0.00363702
-0.00409536
-0.00401506
-0.00428886
-0.00441718
-0.00452924
-0.00467954
-0.00490024
-0.00525881
-0.00588561
-0.0069709
-0.00874389
-0.0113766
-0.0145601
-0.0163109
-0.00374984
-0.00420403
-0.00413311
-0.00443207
-0.00460022
-0.00476633
-0.00498832
-0.00529932
-0.00576901
-0.00650594
-0.00764115
-0.00925358
-0.0112507
-0.0130668
-0.0132195
-0.00381292
-0.00426948
-0.00421139
-0.00452788
-0.00472029
-0.00491943
-0.00518328
-0.00554615
-0.0060698
-0.00684795
-0.00795431
-0.00937433
-0.010892
-0.0119606
-0.0117468
-0.00365265
-0.00411003
-0.00403853
-0.00432354
-0.00446829
-0.00460264
-0.00478098
-0.0050334
-0.00541773
-0.00604654
-0.00706235
-0.00857352
-0.0105281
-0.0124691
-0.0133467
-0.00376095
-0.00421445
-0.0041521
-0.00446043
-0.00464136
-0.00482381
-0.00506393
-0.00538998
-0.00585871
-0.00655994
-0.00758782
-0.0089529
-0.0104834
-0.011699
-0.0118435
-0.00382182
-0.00427608
-0.00422738
-0.00455187
-0.00475515
-0.00496732
-0.00524339
-0.00561048
-0.00612319
-0.00685046
-0.00784689
-0.00906694
-0.010293
-0.0110938
-0.0109657
-0.0543699
-0.0491448
-0.0522691
-0.0403583
-0.0342188
-0.0325839
-0.0226679
-0.040718
-0.0512876
-0.0969347
-0.0283221
-0.019717
-0.0227352
-0.0400138
-0.020652
-0.0303876
-0.0487854
-0.0417486
-0.0811069
-0.0263528
-0.0175694
-0.0295052
-0.0254649
-0.0201376
-0.0144549
-0.030261
-0.0269855
-0.0191329
-0.01666
-0.0442505
-0.0427136
-0.070318
-0.109384
-0.0443237
-0.0652577
-0.0451755
-0.0364601
-0.0562153
-0.102404
-0.0314643
-0.0732678
-0.408373
-0.0396663
-0.0525401
-0.0479577
-0.44456
-0.0536531
-0.0862992
-0.0587403
-0.408169
-0.0458626
-0.0367497
-0.0376377
-0.0484656
-0.0566073
-0.0426448
-0.445941
-0.0324682
-0.0387786
-0.0385901
-0.0739286
-0.0597338
-0.0485371
-0.0777954
-0.063095
-0.0145762
-0.0974973
-0.0159752
-0.059775
-0.0862228
-0.109191
-0.00874755
-0.0839511
-0.108672
-0.0152989
-0.106617
-0.0040405
-0.0829763
-0.000771412
-0.105964
-0.0773263
-0.0800616
-0.19509
-0.160043
-0.219688
-0.0631545
-0.00800247
-0.0442968
-0.00857819
-0.0780365
-0.0462894
-0.0729387
-0.00323508
-0.0999506
-0.00814472
-0.0741232
-0.0926326
-0.16972
-0.0945616
-0.13147
-0.135626
-0.154674
-0.0696353
-0.184851
-0.041948
-0.179726
-0.155321
-0.209976
-0.139109
-0.147197
-0.0514887
-0.124467
-0.0414423
-0.0619419
-0.0892424
-0.0678203
-0.0827099
-0.0686291
-0.0692324
-0.0623008
-0.109548
-0.263926
-0.11819
-0.0836205
-0.150055
-0.109898
-0.226346
-0.0924638
-0.13545
-0.0915602
-0.0530537
-0.06354
-0.0747698
-0.0782605
-0.0576584
-0.0592533
-0.0573313
-0.0862245
-0.258851
-0.099344
-0.111537
-0.126912
-0.138532
-0.0668943
-0.0793247
-0.221593
-0.0484838
-0.0744823
-0.115638
-0.121627
-0.053461
-0.0835161
-0.161074
0.0824362
-0.235349
0.0976483
-0.0675229
-0.100088
-0.260404
0.104014
-0.0973539
-0.263163
0.097188
-0.290638
-0.284946
-0.25353
-0.230287
-0.0910621
-0.257102
0.107594
-0.095114
-0.252459
0.113179
-0.41571
-0.331145
-0.327744
-0.419259
-0.512634
-0.4134
-0.406604
-0.519478
-0.0864618
0.102284
-0.257508
0.106465
-0.259077
-0.0872679
-0.255604
-0.0818581
-0.106948
-0.229003
-0.514831
-0.407447
-0.413368
-0.501064
-0.291213
-0.287763
-0.024135
-0.0486332
-0.445751
-0.174923
-0.348217
-0.350756
-0.413828
-0.330158
-0.324395
-0.417788
-0.519994
-0.413904
-0.414167
-0.518954
-0.350439
-0.275589
-0.265401
-0.327407
-0.0663806
0.0864492
-0.144079
0.101086
-0.214809
-0.0536498
-0.0857855
0.100388
-0.255217
0.095396
-0.08642
-0.252703
-0.38293
-0.150519
-0.315938
-0.311399
-0.193712
-0.0731937
-0.219194
-0.0481486
-0.47925
-0.404327
-0.495056
-0.393983
-0.132459
-0.0973559
-0.174525
-0.010343
-0.0950288
-0.137734
-0.0794413
-0.080377
-0.0994075
-0.114864
-0.0858326
-0.179374
-0.125446
-0.305747
-0.11158
-0.307468
-0.143916
-0.178181
-0.12235
-0.119676
-0.182094
-0.0868943
-0.232694
-0.110045
-0.106991
-0.0853249
-0.077186
-0.124843
-0.0789019
-0.0885812
-0.0837959
-0.102605
-0.161739
-0.301624
-0.105486
-0.109018
-0.280102
-0.174084
-0.128791
-0.0794909
-0.110174
-0.0691679
-0.0714799
-0.134967
-0.0962135
-0.0592802
-0.0158922
0.00848459
-0.0677247
0.0358551
-0.169901
-0.0511435
-0.0962146
-0.253714
0.0968566
-0.0996465
-0.245503
0.0929336
-0.101272
-0.260502
0.0907817
-0.10359
-0.262358
0.0947574
-0.267946
-0.281411
-0.262319
-0.237858
-0.450308
-0.557633
-0.551915
-0.454599
-0.592595
-0.59885
-0.592355
-0.600293
-0.313102
-0.440551
-0.462682
-0.288089
-0.576847
-0.4944
-0.515371
-0.561285
-0.466814
-0.397977
-0.367128
-0.496416
-0.523626
-0.444638
-0.512316
-0.423373
-0.544231
-0.564559
-0.572682
-0.540312
-0.448964
-0.556031
-0.452882
-0.553617
-0.406051
-0.305986
-0.320092
-0.390013
-0.443344
-0.535268
-0.548222
-0.427891
-0.517045
-0.405341
-0.412424
-0.505844
-0.597874
-0.596826
-0.598273
-0.594629
-0.593435
-0.576111
-0.582263
-0.588546
-0.383056
-0.413913
-0.47473
-0.349201
-0.362048
-0.299614
-0.27496
-0.386005
-0.39634
-0.52489
-0.500168
-0.42127
-0.077693
0.0982955
-0.233324
0.0952957
-0.080971
-0.224401
-0.084561
0.0911916
-0.242302
0.0943938
-0.0855623
-0.247533
-0.402809
-0.366577
-0.334391
-0.43677
-0.436487
-0.354628
-0.365555
-0.364005
-0.455024
-0.407488
-0.48921
-0.390306
-0.253096
-0.430543
-0.278441
-0.405599
-0.183827
-0.0198767
-0.159131
-0.0398498
-0.243256
-0.368328
-0.394198
-0.218151
-0.471869
-0.375388
-0.389394
-0.448635
-0.534761
-0.484229
-0.554183
-0.459753
-0.525818
-0.421658
-0.501173
-0.447589
-0.185749
-0.314543
-0.318163
-0.208266
-0.134118
-0.0147234
-0.152281
-0.00767477
-0.192358
-0.355991
-0.338817
-0.210484
-0.189533
-0.303686
-0.336151
-0.159395
-0.332299
-0.187856
-0.18235
-0.145705
-0.136199
-0.30833
-0.146878
-0.244351
-0.168762
-0.133592
-0.168717
-0.298555
-0.271395
-0.152284
-0.294756
-0.176122
-0.159125
-0.108707
-0.127756
-0.241309
-0.13911
-0.153726
-0.123014
-0.135359
0.0339967
0.0158603
0.0377357
0.0420417
-0.0237124
-0.0185961
-0.0142168
-0.017784
-0.0151581
-0.0148624
-0.0126422
-0.117433
-0.0831651
-0.209185
-0.172261
-0.102203
-0.0737131
-0.0320617
-0.0654804
-0.193252
-0.0857129
-0.0902033
-0.0274172
-0.0408895
0.0821186
-0.039526
0.129648
0.0314154
0.215989
0.064742
0.0926149
0.00491105
0.293084
0.105553
-0.00559866
0.270606
-0.0783335
-0.0581917
-0.058899
-0.0305103
-0.0220877
-0.0357682
-0.0196924
-0.0425957
-0.0302803
-0.0471124
-0.0270184
-0.0175018
-0.0179652
-0.0227902
0.106352
0.00803118
0.296792
0.10886
0.0132883
0.287962
0.110359
0.271469
0.014966
0.260895
0.0175075
0.116129
-0.112344
-0.151787
-0.230093
0.103547
0.128693
-0.0199084
0.201589
0.0631046
0.0793204
0.101923
0.268506
0.0147559
0.246278
0.114632
0.00633572
-0.198761
-0.102873
-0.143399
-0.0974877
-0.0953449
-0.216502
-0.134554
-0.153157
-0.0320793
-0.0522551
-0.0550131
-0.0609856
-0.113359
-0.0736592
-0.179724
-0.0961693
-0.0870783
-0.073235
-0.086227
-0.12477
-0.1344
-0.0981076
-0.2623
-0.168
-0.180886
-0.0720855
-0.12746
-0.117693
-0.198288
-0.424044
-0.321928
-0.192684
-0.384592
-0.177047
-0.19525
-0.112752
-0.0959888
-0.101321
-0.0834799
-0.114938
-0.0943512
-0.0970986
-0.0943299
-0.169371
-0.256607
-0.180406
-0.0653378
-0.117109
-0.121967
-0.192374
-0.324047
-0.430199
-0.192199
-0.388293
-0.192801
-0.171877
-0.063315
-0.0276154
-0.0429482
-0.0475597
-0.0351196
-0.0808151
-0.0443249
-0.0792654
-0.084698
-0.0620864
-0.0733272
-0.0779315
-0.085267
-0.0622362
-0.0707046
-0.0894997
-0.0571095
-0.0463027
-0.0412093
-0.0991632
-0.0638523
-0.0851629
-0.0411461
0.0786022
-0.0169035
0.265143
0.0852439
-0.0213033
0.249582
0.0776186
-0.0255701
0.258747
0.0813273
-0.0239129
0.250176
-0.380759
-0.310609
-0.309357
-0.380841
-0.419269
-0.426975
-0.427406
-0.419473
-0.565139
-0.180312
-0.178989
-0.567061
-0.543769
-0.456765
-0.45589
-0.545099
-0.245275
-0.118223
-0.0911703
-0.128789
-0.138272
-0.133244
-0.227863
-0.319608
-0.206556
-0.175479
-0.348677
-0.186943
-0.362742
-0.304284
-0.547954
-0.169162
-0.165122
-0.263126
-0.176544
-0.269961
-0.539033
-0.531333
-0.229985
-0.408721
-0.250917
-0.421343
-0.259724
-0.520329
-0.474883
-0.421162
-0.50545
-0.393735
-0.463968
-0.0772518
-0.12571
-0.339922
-0.512765
-0.165983
-0.153445
-0.537063
-0.428356
-0.275404
-0.356108
-0.324939
-0.413974
-0.410467
-0.421568
-0.40192
-0.383166
-0.311708
-0.309126
-0.382923
-0.37788
-0.294785
-0.304915
-0.366006
-0.418062
-0.428274
-0.421033
-0.426047
-0.536909
-0.438874
-0.525784
-0.449613
-0.568095
-0.182468
-0.185647
-0.567878
-0.564299
-0.177265
-0.184104
-0.555248
-0.542762
-0.456973
-0.544797
-0.455044
-0.361146
-0.396167
-0.369504
-0.389872
-0.291045
-0.158641
-0.227967
-0.211851
-0.324957
-0.282099
-0.25935
-0.353415
-0.326261
-0.260026
-0.334491
-0.247575
0.0981574
0.246176
0.0102049
0.230839
0.105179
0.00643485
0.0942114
0.239722
-0.000454703
0.229701
0.100304
-0.000322279
-0.416194
-0.335472
-0.201775
-0.158432
-0.444444
-0.31048
-0.189003
-0.406768
-0.0456366
-0.108371
-0.153331
-0.0878574
-0.191714
-0.293172
-0.452062
-0.220674
-0.12782
-0.125883
-0.114251
-0.476004
-0.209555
-0.374268
-0.152924
-0.214588
-0.148838
-0.279039
-0.177263
-0.278303
-0.265792
-0.165457
-0.29544
-0.134704
-0.144998
-0.311012
-0.249893
-0.203192
-0.106143
-0.116757
-0.0581464
-0.104953
-0.217963
-0.0927888
-0.277284
-0.174768
-0.164616
-0.336733
-0.153874
-0.292333
-0.323519
-0.192477
-0.0873661
-0.0502319
-0.0716429
-0.096403
-0.178564
-0.0828643
-0.4832
-0.190502
-0.354883
-0.213757
-0.466793
-0.370814
-0.224225
-0.521854
-0.163955
-0.256053
-0.150943
-0.530289
-0.160062
-0.249178
-0.497081
-0.200221
-0.396823
-0.24229
-0.509006
-0.384364
-0.23364
-0.511041
-0.232044
-0.141734
-0.145054
-0.152996
-0.496862
-0.240888
-0.21932
-0.280672
-0.138496
-0.12925
-0.259236
-0.239728
-0.121905
-0.138574
-0.0217182
-0.0829259
-0.046692
-0.087364
-0.0931089
-0.0482748
-0.200968
-0.136976
-0.179638
-0.114396
-0.234741
-0.123625
-0.148588
-0.154461
-0.0850407
-0.0635799
-0.0375609
-0.170018
-0.0785565
-0.053308
-0.13604
-0.136942
-0.21347
-0.104961
-0.303497
-0.29325
-0.284653
-0.264667
-0.308906
-0.275942
-0.302405
-0.157835
-0.201587
-0.224663
-0.159146
-0.203307
-0.1891
-0.249678
-0.221846
-0.21373
-0.235889
-0.184747
-0.121736
-0.124462
-0.143092
-0.107057
-0.136736
-0.174191
-0.155335
-0.146543
-0.286758
-0.287331
-0.264808
-0.260715
-0.289767
-0.298995
-0.257142
-0.115419
-0.114299
-0.126419
-0.0905118
-0.184309
-0.0887562
-0.100717
-0.131167
-0.0991314
-0.16011
-0.131562
-0.191374
-0.12578
-0.103331
-0.181165
-0.183505
-0.228132
-0.216557
-0.189026
-0.179158
-0.215976
-0.068392
-0.0413244
-0.0767397
-0.0427563
-0.070325
-0.0571448
-0.0473633
-0.0909728
-0.0856179
-0.124193
-0.104235
-0.093006
-0.106721
-0.0754419
0.0686932
-0.00717797
0.252033
-0.00964711
0.218071
0.0814388
0.0872008
-0.0180854
0.269773
-0.0103681
0.264081
0.0894864
-0.289759
-0.287337
-0.210462
-0.219031
0.108829
0.0228419
0.310932
0.0143681
0.288797
0.122627
-0.387998
-0.418742
-0.390688
-0.32977
-0.358274
-0.356987
-0.355133
-0.329347
-0.357242
-0.417713
-0.391294
-0.38978
-0.972263
-0.556688
-0.519723
-0.973081
-0.564952
-0.852895
-0.654505
-0.439281
-0.47481
-0.668583
-0.846693
-0.492276
-0.849488
-0.46883
-0.644806
-0.439052
-0.666309
-0.838199
-0.491233
-0.977342
-0.520923
-0.562721
-0.982264
-0.566854
0.110795
0.283075
0.0208555
0.261072
0.0151717
0.12413
-0.206342
-0.247412
-0.198105
-0.0894753
-0.128536
-0.136436
-0.154764
-0.0982848
-0.146305
-0.238105
-0.179355
-0.187168
-0.970073
-0.572292
-0.514619
-0.977757
-0.574284
-0.842137
-0.632778
-0.437506
-0.470381
-0.651514
-0.830337
-0.492944
-0.844175
-0.479702
-0.636843
-0.4414
-0.653605
-0.838488
-0.496846
-0.968675
-0.509258
-0.560257
-0.967066
-0.570375
-0.290051
-0.289093
-0.0318134
-0.0399342
-0.855304
-0.483484
-0.426997
-0.894944
-0.466947
-0.678877
-0.367828
-0.299109
-0.221607
-0.528287
-0.544927
-0.343296
-0.735096
-0.392904
-0.592555
-0.365143
-0.586223
-0.759101
-0.394605
-0.798703
-0.394939
-0.36073
-0.765864
-0.432588
-0.386176
-0.415935
-0.388088
-0.329542
-0.356872
-0.357023
-0.351752
-0.326572
-0.353852
-0.418868
-0.390066
-0.39093
-0.981037
-0.560736
-0.524301
-0.980094
-0.56861
-0.856878
-0.656651
-0.442118
-0.475108
-0.673706
-0.84866
-0.494467
-0.857601
-0.474402
-0.6584
-0.443407
-0.67674
-0.847055
-0.495182
-0.980839
-0.523925
-0.563104
-0.98527
-0.568558
-0.32464
-0.342072
-0.315242
-0.244472
-0.294606
-0.26858
-0.291475
-0.254693
-0.281466
-0.31727
-0.307408
-0.29403
0.0908691
0.235055
0.0246706
0.203371
0.0216316
0.103977
0.0981987
0.248102
-0.00131441
0.240544
0.00456558
0.103271
-0.792355
-0.442748
-0.367029
-0.832336
-0.426894
-0.63093
-0.338563
-0.272721
-0.196348
-0.486826
-0.508845
-0.312676
-0.683384
-0.356607
-0.541988
-0.335475
-0.539209
-0.705432
-0.36029
-0.731305
-0.341587
-0.338545
-0.735978
-0.394259
-0.201688
-0.144468
-0.152134
-0.118978
-0.0650188
-0.111275
-0.211489
-0.170091
-0.16243
-0.0930409
-0.0559867
-0.101138
-0.948817
-0.488878
-0.538491
-0.942629
-0.551087
-0.830916
-0.630979
-0.46625
-0.428714
-0.827334
-0.643942
-0.481286
-0.954293
-0.493878
-0.555407
-0.96394
-0.555879
-0.827004
-0.453078
-0.621015
-0.426594
-0.643246
-0.811919
-0.477877
-0.143649
-0.0862527
-0.101314
-0.123275
-0.0291702
-0.0623082
-0.134406
-0.145714
-0.0993824
-0.0475816
-0.0181082
-0.0558963
-0.222845
-0.321145
-0.186223
-0.168975
-0.352686
-0.189916
-0.188101
-0.208474
-0.291724
-0.319598
-0.295672
-0.303842
-0.238601
-0.259133
-0.253483
-0.24327
-0.28479
-0.325568
-0.344541
-0.221644
-0.274581
-0.127161
-0.106651
-0.142635
-0.119675
-0.127674
-0.10648
-0.143322
-0.113462
-0.131838
-0.203628
-0.135366
-0.140972
-0.100307
-0.15568
-0.126911
-0.194952
-0.159515
-0.211223
-0.149217
-0.137021
-0.17285
-0.199747
-0.29054
-0.31101
-0.289233
-0.302356
-0.234027
-0.246387
-0.207697
-0.31013
-0.16479
-0.151221
-0.339535
-0.17725
-0.168468
-0.235665
-0.214823
-0.314717
-0.263441
-0.336522
-0.257951
-0.19837
-0.096
-0.0961325
-0.109127
-0.112782
-0.0923952
-0.0981285
-0.113466
-0.0633762
-0.0616049
-0.0948039
-0.0564422
-0.0745913
-0.0469895
-0.0788743
-0.0786885
-0.121985
-0.101761
-0.108888
-0.086879
-0.0939126
-0.0986127
-0.00770662
0.000667114
0.0109483
0.0267351
-0.123834
-0.087644
-0.0493363
-0.0387423
-0.0302152
0.0780164
-0.0239643
0.246373
0.0763177
-0.0160977
0.248217
0.0773791
-0.0205406
0.266297
0.0872888
-0.0273373
0.247845
-0.272865
-0.277923
-0.256491
-0.247951
-0.482516
-0.453439
-0.485503
-0.555158
-0.523956
-0.521619
-0.518752
-0.555231
-0.52227
-0.452464
-0.48735
-0.484988
-0.658786
-0.597251
-0.661883
-0.59598
-0.642288
-0.638791
-0.635429
-0.595875
-0.638041
-0.59845
-0.666249
-0.662518
-0.363101
-0.305807
-0.355825
-0.447537
-0.391458
-0.398444
-0.41437
-0.456456
-0.407962
-0.295873
-0.339173
-0.346367
-0.611504
-0.573346
-0.605411
-0.50097
-0.552178
-0.557663
-0.571871
-0.509628
-0.565376
-0.567096
-0.593846
-0.598151
-0.934262
-0.50339
-0.482192
-0.912147
-0.524884
-0.825397
-0.646697
-0.416286
-0.453619
-0.651249
-0.462955
-0.829294
-0.813311
-0.418167
-0.611479
-0.406318
-0.784898
-0.645178
-0.451891
-0.946914
-0.49153
-0.539613
-0.535048
-0.963557
-0.578509
-0.505941
-0.565223
-0.448455
-0.474554
-0.480326
-0.554445
-0.506434
-0.546458
-0.47072
-0.487988
-0.513405
-0.555485
-0.604971
-0.609203
-0.607535
-0.560234
-0.602372
-0.567015
-0.629896
-0.626097
-0.582095
-0.545206
-0.586426
-0.45033
-0.481955
-0.482922
-0.522197
-0.557033
-0.523369
-0.453793
-0.485556
-0.486216
-0.519311
-0.554102
-0.520087
-0.380461
-0.405332
-0.377597
-0.310874
-0.331598
-0.336782
-0.346724
-0.316534
-0.343255
-0.398044
-0.364727
-0.370218
-0.476593
-0.44069
-0.473783
-0.539224
-0.500057
-0.50461
-0.513999
-0.546309
-0.511937
-0.433581
-0.462071
-0.466989
-0.972684
-0.558678
-0.518659
-0.979931
-0.561297
-0.848924
-0.653119
-0.432606
-0.462229
-0.671215
-0.835595
-0.484147
-0.85123
-0.472318
-0.658807
-0.436817
-0.846396
-0.672359
-0.488326
-0.971223
-0.514196
-0.546854
-0.965773
-0.557904
-0.599806
-0.661105
-0.660668
-0.640372
-0.597934
-0.640439
-0.600987
-0.663662
-0.664241
-0.637396
-0.594718
-0.637066
-0.593112
-0.654093
-0.652384
-0.618706
-0.579457
-0.621454
-0.587503
-0.642333
-0.64467
-0.631137
-0.586985
-0.628698
-0.411841
-0.377655
-0.407684
-0.417578
-0.394807
-0.393995
-0.444457
-0.469714
-0.441134
-0.344653
-0.370324
-0.367396
-0.335309
-0.370803
-0.343907
-0.293512
-0.325134
-0.319263
-0.301636
-0.284707
-0.31099
-0.380329
-0.358739
-0.351808
-0.428985
-0.404366
-0.43643
-0.520014
-0.490608
-0.485456
-0.466021
-0.506025
-0.472598
-0.414852
-0.453822
-0.447602
0.0982003
0.229594
0.00614764
0.0982822
0.229805
0.0138212
0.0926259
0.245302
-0.00133531
0.102544
0.227028
-0.00646963
-0.872478
-0.461972
-0.418841
-0.850414
-0.483693
-0.772663
-0.596486
-0.384111
-0.418559
-0.600159
-0.426772
-0.777932
-0.759528
-0.381247
-0.559873
-0.373835
-0.730858
-0.593622
-0.415163
-0.88716
-0.429305
-0.500904
-0.494641
-0.905664
-0.461027
-0.423146
-0.457954
-0.333914
-0.392166
-0.382917
-0.419202
-0.377762
-0.427312
-0.399341
-0.409545
-0.427341
-0.467244
-0.482187
-0.485538
-0.465372
-0.403427
-0.459686
-0.479959
-0.509349
-0.501637
-0.444498
-0.388853
-0.443232
-0.260848
-0.304128
-0.311847
-0.381408
-0.423551
-0.374356
-0.271126
-0.32959
-0.321928
-0.35628
-0.41332
-0.363972
-0.177276
-0.13481
-0.126963
-0.0601979
-0.0254004
-0.0658352
-0.166699
-0.111443
-0.118052
-0.0827441
-0.0328202
-0.0755299
-0.293803
-0.235914
-0.286014
-0.375805
-0.319566
-0.327192
-0.345392
-0.387025
-0.33812
-0.225686
-0.268505
-0.276106
-0.92585
-0.532421
-0.46871
-0.937535
-0.531065
-0.802988
-0.604532
-0.404874
-0.428971
-0.625205
-0.786638
-0.45354
-0.808562
-0.447565
-0.618205
-0.411246
-0.807243
-0.628898
-0.460439
-0.920236
-0.460601
-0.510347
-0.911393
-0.524453
-0.542516
-0.561542
-0.567405
-0.542525
-0.477597
-0.534943
-0.549439
-0.584501
-0.577271
-0.517908
-0.467184
-0.524648
-0.519926
-0.549517
-0.541926
-0.479411
-0.428757
-0.486065
-0.510552
-0.523636
-0.530007
-0.505739
-0.440838
-0.497962
-0.229638
-0.193279
-0.2372
-0.291777
-0.282203
-0.254493
-0.275132
-0.329315
-0.286351
-0.175581
-0.242575
-0.212435
-0.139871
-0.0914362
-0.0951293
-0.0534343
-0.0120944
-0.0519872
-0.148249
-0.105231
-0.100099
-0.0473437
-0.00919323
-0.0493908
-0.24087
-0.196971
-0.244554
-0.351231
-0.308794
-0.303671
-0.291334
-0.338809
-0.292836
-0.205083
-0.259365
-0.253409
-0.309666
-0.302811
-0.309082
-0.315711
-0.287218
-0.316416
-0.322371
-0.250603
-0.268383
-0.351023
-0.263156
-0.30719
-0.256253
-0.235299
-0.263817
-0.242607
-0.32131
-0.353869
-0.267449
-0.328516
-0.253618
-0.179672
-0.158655
-0.160224
-0.136788
-0.160937
-0.183785
-0.157803
-0.1898
-0.236631
-0.284195
-0.25114
-0.208291
-0.21079
-0.244009
-0.169075
-0.214967
-0.171446
-0.266722
-0.153039
-0.187531
-0.228706
-0.292663
-0.297175
-0.296924
-0.309756
-0.271478
-0.300842
-0.31775
-0.224133
-0.240503
-0.291332
-0.211839
-0.279076
-0.21041
-0.207053
-0.240993
-0.211707
-0.300644
-0.308185
-0.247628
-0.300574
-0.216449
-0.155304
-0.152066
-0.129628
-0.130581
-0.133424
-0.155891
-0.152204
-0.156103
-0.202743
-0.211395
-0.196483
-0.169078
-0.18002
-0.185466
-0.13256
-0.145474
-0.118874
-0.184056
-0.113114
-0.141459
-0.165165
0.0287852
0.0224683
0.0396788
0.0414793
-0.00716063
-0.00786821
-0.0110189
-0.0125329
-0.0192789
-0.00684741
-0.00771122
-0.00725213
-0.00886749
-0.00843508
-0.0115683
-0.00957172
-0.0123572
-0.0130438
-0.0195184
-0.0135605
-0.0182518
-0.0227023
-0.0395629
-0.0202466
-0.0268376
-0.00636558
-0.00709977
-0.00662879
-0.00762865
-0.00751084
-0.00911331
-0.00804155
-0.00955457
-0.00979463
-0.0124026
-0.010156
-0.0122477
-0.0134881
-0.0174192
-0.0130258
-0.0154383
-0.0188692
-0.0228063
-0.016212
-0.0179039
-0.0235668
-0.0209353
-0.0179561
-0.0152922
-0.0057833
-0.00646276
-0.00595553
-0.00661632
-0.00672994
-0.00773489
-0.00689228
-0.00791043
-0.00814518
-0.00962597
-0.00831937
-0.00975216
-0.0102039
-0.0121622
-0.0102943
-0.012043
-0.0128676
-0.0149388
-0.0126368
-0.0142332
-0.0155131
-0.0162307
-0.0146329
-0.0150694
-0.0160126
-0.0137142
-0.0148662
-0.0130248
-0.00350694
-0.0053542
-0.00355111
-0.00539107
-0.00398191
-0.00472503
-0.0040175
-0.00475989
-0.00389367
-0.00433802
-0.00392982
-0.00438241
-0.00412936
-0.00420854
-0.00417795
-0.00427404
-0.00418794
-0.0041977
-0.00426039
-0.00429596
-0.00419823
-0.00420945
-0.00430648
-0.0043513
-0.00421639
-0.00425464
-0.00437064
-0.00445029
-0.0042762
-0.00438599
-0.00448706
-0.00464776
-0.00444468
-0.00472965
-0.00472517
-0.00507189
-0.00487592
-0.00555166
-0.00523889
-0.00597099
-0.00588409
-0.00737307
-0.00631576
-0.00779149
-0.00809088
-0.0112583
-0.00847568
-0.0113617
-0.0127687
-0.0194296
-0.0126816
-0.0181713
-0.0253513
-0.0216228
-0.0257518
-0.0216059
-0.00539065
-0.00364575
-0.00548636
-0.00358768
-0.0054256
-0.00368366
-0.00551622
-0.00476247
-0.00411328
-0.00486302
-0.00405182
-0.00479554
-0.00414229
-0.00489094
-0.00438251
-0.00403672
-0.00450263
-0.00396676
-0.0044247
-0.00406579
-0.00453873
-0.00426556
-0.00430378
-0.0044202
-0.00422275
-0.00432809
-0.00434366
-0.0044745
-0.00427446
-0.00441521
-0.00448233
-0.00431826
-0.00436791
-0.00447516
-0.00456201
-0.00431562
-0.00450612
-0.00460025
-0.00438409
-0.00444899
-0.00459301
-0.00471031
-0.00440366
-0.00463981
-0.00479581
-0.00447613
-0.004584
-0.00475765
-0.00493582
-0.00459775
-0.00486438
-0.00514138
-0.00463185
-0.004833
-0.00501131
-0.00530818
-0.00503018
-0.00526524
-0.00577377
-0.00492595
-0.0053269
-0.00543749
-0.00595608
-0.00596349
-0.00600148
-0.00692187
-0.00551387
-0.00630807
-0.00618364
-0.00708336
-0.00788147
-0.00732622
-0.0089293
-0.00667179
-0.00818394
-0.00747021
-0.00896056
-0.0117316
-0.0096229
-0.0123361
-0.0088662
-0.0116619
-0.00958567
-0.0119215
-0.0194624
-0.0134914
-0.0178785
-0.0129054
-0.0178795
-0.0128626
-0.0161191
-0.0377084
-0.0196782
-0.0252764
-0.0200065
-0.0272794
-0.0172919
-0.0200629
-0.063292
-0.0400637
-0.0495904
-0.0331839
-0.0370099
-0.0385445
-0.0326111
-0.00551489
-0.00372034
-0.00556143
-0.00370959
-0.00554328
-0.00375322
-0.00558614
-0.00489233
-0.0041907
-0.00495105
-0.00416921
-0.00491875
-0.0042149
-0.00497374
-0.00453706
-0.00412933
-0.00461372
-0.00409438
-0.00457143
-0.00415311
-0.00464382
-0.0044646
-0.00442264
-0.00456734
-0.0043783
-0.00451648
-0.0044561
-0.00461294
-0.0045417
-0.00457351
-0.00468027
-0.00452006
-0.00461727
-0.00462364
-0.00474548
-0.0046806
-0.0047194
-0.00486757
-0.0046523
-0.00478391
-0.00478997
-0.00495454
-0.00490489
-0.00492811
-0.00515648
-0.00483671
-0.00503376
-0.00502
-0.0052596
-0.00528907
-0.00525275
-0.00562436
-0.00511633
-0.00543725
-0.00535798
-0.00573025
-0.0059687
-0.00578308
-0.0063992
-0.0055753
-0.00612059
-0.00588663
-0.00648335
-0.00715671
-0.00665993
-0.00764663
-0.00635608
-0.0072711
-0.00673242
-0.00765983
-0.0091471
-0.00805224
-0.00952991
-0.00765741
-0.0091138
-0.00803474
-0.00937024
-0.0123417
-0.0101132
-0.0121208
-0.00971032
-0.0118709
-0.00988415
-0.0115891
-0.017039
-0.0128572
-0.0150872
-0.0127099
-0.0154348
-0.0121859
-0.0138593
-0.021583
-0.0157743
-0.0171542
-0.016293
-0.017756
-0.0143079
-0.0149504
-0.018861
-0.0171164
-0.0144272
-0.017567
-0.013644
-0.0147663
-0.0124728
-0.00559104
-0.00358899
-0.00556061
-0.00377975
-0.00561506
-0.00362269
-0.00558775
-0.004977
-0.00419649
-0.00496678
-0.00424094
-0.00499911
-0.00422225
-0.00498932
-0.00464004
-0.00414511
-0.00463567
-0.00417837
-0.00466959
-0.00416833
-0.00466553
-0.00459678
-0.00444826
-0.00460412
-0.00448234
-0.00464154
-0.00447869
-0.00464687
-0.00471584
-0.00461608
-0.00474248
-0.00465325
-0.00477918
-0.00466438
-0.004805
-0.00491204
-0.00478988
-0.00496481
-0.00482532
-0.00499577
-0.00485573
-0.00504077
-0.00521356
-0.00503585
-0.00529787
-0.00506346
-0.00531112
-0.0051148
-0.0053826
-0.00569859
-0.00540519
-0.00581036
-0.00541267
-0.00579528
-0.00548947
-0.00588548
-0.00649131
-0.00598099
-0.00663363
-0.00595525
-0.00656123
-0.00605128
-0.006673
-0.00774487
-0.00690502
-0.0079031
-0.00681215
-0.00773773
-0.00692836
-0.00785286
-0.00959021
-0.00830236
-0.00969397
-0.0081078
-0.00940811
-0.00821762
-0.00946341
-0.0120265
-0.0102168
-0.0118882
-0.00990012
-0.0114957
-0.00992142
-0.0113407
-0.0146101
-0.0124488
-0.0139251
-0.0120383
-0.0134946
-0.0117987
-0.012933
-0.0156592
-0.01428
-0.0145964
-0.0138439
-0.0140044
-0.0131738
-0.0132309
-0.0130666
-0.0143685
-0.0125405
-0.0136813
-0.0115829
-0.0129784
-0.011351
-0.00356412
-0.00540205
-0.00359528
-0.00542734
-0.00402823
-0.00477089
-0.00405409
-0.00479917
-0.0039413
-0.00439659
-0.00397139
-0.00443468
-0.00419349
-0.00429499
-0.00423535
-0.00435167
-0.00428358
-0.00432728
-0.00434638
-0.00441187
-0.00434098
-0.00439641
-0.00443398
-0.00451788
-0.00441968
-0.00451201
-0.00455165
-0.00467771
-0.00455336
-0.00472897
-0.00473111
-0.00494425
-0.00481156
-0.00517393
-0.00503901
-0.00543497
-0.00534516
-0.00608371
-0.00561332
-0.00634667
-0.00642636
-0.00786785
-0.00667289
-0.00797184
-0.00852502
-0.0112394
-0.00853204
-0.0106788
-0.012452
-0.017307
-0.0115606
-0.0146493
-0.0194044
-0.0273882
-0.01576
-0.0186506
-0.0353619
-0.041716
-0.0297142
-0.0279599
-0.00543605
-0.0036946
-0.00552533
-0.00362985
-0.00546045
-0.00372001
-0.00554494
-0.00480595
-0.00415102
-0.00489964
-0.00408645
-0.00483255
-0.00417088
-0.0049215
-0.00443816
-0.00407494
-0.00455024
-0.00400603
-0.00447427
-0.00409849
-0.00458082
-0.00434804
-0.00435634
-0.00449171
-0.00427727
-0.00440199
-0.0043902
-0.00453787
-0.00439759
-0.00449413
-0.00458714
-0.0044001
-0.00447756
-0.00454514
-0.00465426
-0.00449127
-0.00462038
-0.00474489
-0.00450442
-0.00460483
-0.0046934
-0.00483699
-0.0046407
-0.00479469
-0.00497949
-0.00464481
-0.00479263
-0.00489304
-0.00509576
-0.00490564
-0.00505694
-0.00535913
-0.00485448
-0.00509742
-0.00517828
-0.00549205
-0.00541439
-0.00548948
-0.00600778
-0.00520324
-0.00563566
-0.00562371
-0.00613324
-0.0063973
-0.0062333
-0.00711761
-0.00582672
-0.00659674
-0.00634934
-0.00717455
-0.00822595
-0.00749437
-0.00892965
-0.00693245
-0.00824053
-0.00751653
-0.00877061
-0.0114997
-0.00952373
-0.0117033
-0.00879226
-0.0108539
-0.00926819
-0.0109872
-0.0170174
-0.0125617
-0.0154266
-0.0116782
-0.0144661
-0.0116176
-0.0135068
-0.0246344
-0.0164049
-0.018569
-0.0154201
-0.0175859
-0.0140561
-0.0149722
-0.0273085
-0.0232476
-0.0222088
-0.0229662
-0.0220463
-0.0197896
-0.0203298
-0.00555171
-0.00376251
-0.00559333
-0.00374418
-0.00557017
-0.00378349
-0.00560879
-0.00492698
-0.00422205
-0.00498079
-0.00419607
-0.00494753
-0.00423754
-0.00499805
-0.00458236
-0.00416054
-0.00465326
-0.00412526
-0.00461131
-0.00417939
-0.00467788
-0.00453285
-0.00446655
-0.00462714
-0.00442247
-0.00457662
-0.00449393
-0.00466463
-0.00464104
-0.00463925
-0.00476585
-0.00458645
-0.00470447
-0.00468064
-0.00482008
-0.00481626
-0.00481202
-0.00498171
-0.00474695
-0.00490223
-0.00487059
-0.00505322
-0.00507386
-0.00504875
-0.00529158
-0.00496271
-0.00518046
-0.00512412
-0.00537621
-0.00548235
-0.00539045
-0.00576212
-0.00526829
-0.00559944
-0.00547614
-0.0058438
-0.00616302
-0.00591722
-0.00650537
-0.00573731
-0.00626411
-0.00599439
-0.00655388
-0.00729191
-0.0067494
-0.00765247
-0.00648478
-0.00731524
-0.00678181
-0.00760802
-0.00906745
-0.00801503
-0.00929613
-0.00765408
-0.00887522
-0.00793299
-0.00905121
-0.0116505
-0.00978415
-0.0113824
-0.00935013
-0.0109504
-0.00946463
-0.010765
-0.0148299
-0.0119323
-0.0134354
-0.0115197
-0.0131532
-0.0111911
-0.0122771
-0.0166429
-0.0138186
-0.0142907
-0.0135915
-0.0140479
-0.0125203
-0.0126789
-0.0130437
-0.0140949
-0.0120347
-0.013796
-0.0117103
-0.0124938
-0.011064
-0.00562186
-0.00363197
-0.00559595
-0.00380834
-0.00563619
-0.00365322
-0.00561356
-0.00500598
-0.00422991
-0.004996
-0.00426222
-0.00502274
-0.00424735
-0.00501408
-0.00467887
-0.00417563
-0.0046744
-0.0042042
-0.00470309
-0.0041952
-0.00469767
-0.0046554
-0.00448886
-0.00466122
-0.00451956
-0.00469198
-0.00451657
-0.00470035
-0.00479893
-0.00468008
-0.00482422
-0.00470873
-0.00485147
-0.00472179
-0.00487378
-0.00502189
-0.00487571
-0.00506449
-0.00490344
-0.0050906
-0.0049278
-0.00512657
-0.00534137
-0.00514021
-0.00540758
-0.00516327
-0.00542148
-0.00520367
-0.00547262
-0.00582434
-0.00551441
-0.00590807
-0.00552378
-0.00589861
-0.00557924
-0.00596607
-0.00657902
-0.00607188
-0.00668271
-0.00605146
-0.00661662
-0.00612432
-0.00670167
-0.0077249
-0.00693168