/*--------------------------------*- C++ -*----------------------------------*\
| =========                 |                                                 |
| \\      /  F ield         | OpenFOAM: The Open Source CFD Toolbox           |
|  \\    /   O peration     | Version:  2012                                  |
|   \\  /    A nd           | Website:  www.openfoam.com                      |
|    \\/     M anipulation  |                                                 |
\*---------------------------------------------------------------------------*/
FoamFile
{
    version     2.0;
    format      ascii;
    class       surfaceScalarField;
    location    "0.106/fluid";
    object      phi;
}
// * * * * * * * * * * * * * * * * * * * * * * * * * * * * * * * * * * * * * //

dimensions      [0 3 -1 0 0 0 0];
oriented        oriented;


internalField   nonuniform List<scalar> 
47046
(
1.07704e-07
0.00152816
-9.81039e-08
-1.08713e-07
1.37584e-06
-0.00152162
0.00151969
-1.27948e-06
-2.46047e-07
2.4578e-06
-0.00151439
0.00151276
-2.33266e-06
-4.50145e-07
3.50075e-06
-0.00150818
0.00150676
-3.35441e-06
-6.96461e-07
4.5375e-06
-0.00150268
0.00150139
-4.37933e-06
-9.654e-07
5.57853e-06
-0.00149771
0.00149657
-5.40959e-06
-1.22693e-06
6.42245e-06
-0.00149345
0.00149253
-6.25778e-06
-1.4237e-06
6.85675e-06
-0.0014902
0.0014896
-6.71613e-06
-1.47189e-06
6.58443e-06
-0.00148829
0.00148799
-6.48229e-06
-1.28611e-06
5.49879e-06
-0.00148721
0.00148689
-5.47465e-06
-9.17087e-07
3.87258e-06
-0.00148543
0.00148471
-3.98816e-06
-4.78054e-07
2.65057e-07
1.9394e-06
-0.00148166
0.00148023
-2.18968e-06
-1.96751e-07
2.00909e-07
-2.61123e-07
-0.00147431
0.00147168
8.18188e-08
-8.02027e-08
-4.37867e-06
-1.81168e-07
-0.00146133
0.00145706
6.92688e-07
4.64539e-06
-3.95021e-05
-3.80551e-06
-0.00144978
0.00146116
6.70992e-06
2.28314e-05
6.77995e-08
0.00152815
-5.92049e-08
-1.11958e-07
9.72318e-07
-0.0015215
0.00151951
-8.68536e-07
-2.03024e-07
1.87591e-06
-0.00151388
0.00151212
-1.70106e-06
-3.98712e-07
2.76794e-06
-0.00150718
0.00150565
-2.52494e-06
-6.4055e-07
3.64077e-06
-0.00150135
0.00150001
-3.30377e-06
-9.02589e-07
4.52807e-06
-0.00149619
0.001495
-4.1192e-06
-1.15293e-06
5.29664e-06
-0.00149185
0.00149098
-4.8254e-06
-1.3325e-06
5.6942e-06
-0.00148898
0.00148851
-5.15816e-06
-1.36308e-06
5.59348e-06
-0.00148756
0.00148737
-5.10226e-06
-1.1921e-06
5.01325e-06
-0.00148687
0.00148665
-4.71528e-06
-8.86123e-07
5.90314e-07
4.13031e-06
-0.00148559
0.00148505
-4.0528e-06
-5.44929e-07
3.34957e-07
2.87456e-06
-0.00148274
0.00148172
-3.00077e-06
-3.01287e-07
2.84335e-07
1.08724e-06
-0.00147801
0.00147661
-1.5058e-06
-2.05396e-07
1.5832e-07
-1.42717e-06
-0.00147261
0.00147154
4.33303e-07
4.4089e-08
-3.19714e-06
-1.30322e-06
-0.00147089
0.00147185
1.62452e-06
9.44593e-07
3.46085e-08
0.00152815
-3.00057e-08
-1.03753e-07
5.64021e-07
-0.00152151
0.0015195
-4.48143e-07
-1.7658e-07
1.10208e-06
-0.00151382
0.00151203
-8.59017e-07
-3.487e-07
1.62987e-06
-0.00150697
0.00150539
-1.26601e-06
-5.7096e-07
2.10446e-06
-0.00150101
0.00149963
-1.65909e-06
-7.9583e-07
2.63102e-06
-0.00149567
0.00149451
-2.04576e-06
-1.00549e-06
3.04249e-06
-0.00149164
0.0014909
-2.33506e-06
-1.12753e-06
3.19515e-06
-0.00148934
0.00148899
-2.45369e-06
-1.10499e-06
3.24894e-06
-0.00148829
0.00148813
-2.51723e-06
-9.407e-07
7.06615e-07
3.25772e-06
-0.00148771
0.00148752
-2.57315e-06
-6.81662e-07
3.95916e-07
3.10596e-06
-0.00148665
0.00148624
-2.50848e-06
-3.81156e-07
9.47941e-08
2.66896e-06
-0.00148459
0.00148391
-2.23403e-06
-7.36274e-08
-2.25735e-07
2.05755e-06
-0.00148163
0.00148088
-1.85493e-06
2.70393e-07
-8.07328e-07
1.62755e-06
-0.00147895
0.00147847
-1.64576e-06
8.94839e-07
-2.20217e-06
2.40991e-06
-0.00147752
0.00147733
-2.30379e-06
2.29945e-06
9.73835e-08
6.21644e-08
0.00152819
-5.40249e-08
-9.40066e-08
2.1543e-07
1.02974e-06
-0.00152165
0.00151973
-9.64132e-07
-2.03018e-07
3.9046e-07
1.92065e-06
-0.00151448
0.00151285
-1.81615e-06
-3.61507e-07
6.07315e-07
2.86944e-06
-0.0015082
0.00150673
-2.73316e-06
-5.6543e-07
8.37924e-07
3.88641e-06
-0.00150254
0.00150123
-3.72673e-06
-7.85234e-07
1.05653e-06
4.93721e-06
-0.00149751
0.00149637
-4.75115e-06
-9.85066e-07
1.21065e-06
5.82796e-06
-0.00149325
0.00149235
-5.62285e-06
-1.12511e-06
1.23009e-06
6.32421e-06
-0.00149016
0.00148961
-6.13173e-06
-1.13747e-06
1.0135e-06
6.18877e-06
-0.00148848
0.0014882
-6.03965e-06
-9.21362e-07
6.44493e-07
5.45798e-06
-0.00148733
0.00148699
-5.40541e-06
-5.72409e-07
2.60919e-07
4.31633e-06
-0.00148545
0.00148466
-4.38919e-06
-2.15099e-07
2.15236e-08
3.09226e-06
-0.00148112
0.00147946
-3.33437e-06
9.95392e-09
-1.59761e-07
2.09596e-06
-0.00147293
0.00147021
-2.38134e-06
1.9021e-07
-9.51277e-07
1.51492e-06
-0.00146095
0.00145777
-1.55515e-06
7.90331e-07
-4.71274e-06
1.5667e-06
-0.00145104
0.00145093
-1.50207e-06
3.13708e-06
9.85354e-08
3.13048e-08
0.00152808
-2.59039e-08
-9.37251e-08
1.87687e-07
7.40058e-07
-0.00152124
0.00151921
-6.6499e-07
-1.81456e-07
3.53099e-07
1.44788e-06
-0.00151362
0.00151189
-1.31195e-06
-3.34578e-07
5.62574e-07
2.20777e-06
-0.00150689
0.0015053
-2.00406e-06
-5.29662e-07
7.88103e-07
3.01402e-06
-0.00150081
0.00149943
-2.71868e-06
-7.40921e-07
9.98115e-07
3.85346e-06
-0.00149553
0.00149436
-3.47295e-06
-9.24906e-07
1.13087e-06
4.58041e-06
-0.00149126
0.0014904
-4.12744e-06
-1.04147e-06
1.13376e-06
5.03111e-06
-0.00148839
0.00148789
-4.51523e-06
-1.04635e-06
9.64774e-07
5.13213e-06
-0.00148686
0.00148664
-4.67143e-06
-8.90147e-07
6.90245e-07
4.91395e-06
-0.00148596
0.00148567
-4.61644e-06
-6.33394e-07
4.13896e-07
4.49978e-06
-0.00148426
0.00148354
-4.41155e-06
-3.85289e-07
2.08687e-07
3.93633e-06
-0.00148048
0.00147917
-3.98411e-06
-1.97991e-07
3.15102e-08
3.26818e-06
-0.0014744
0.00147256
-3.45286e-06
-2.00321e-09
-3.93506e-07
2.80067e-06
-0.00146702
0.00146532
-3.1146e-06
4.39231e-07
3.55208e-06
-1.91546e-06
-0.00146156
0.00146086
1.81869e-06
-3.80798e-06
9.72614e-08
1.10621e-08
0.00152808
-1.14685e-08
-9.32214e-08
1.68256e-07
4.28806e-07
-0.00152114
0.00151905
-3.38574e-07
-1.63466e-07
3.16754e-07
8.38414e-07
-0.00151327
0.0015115
-6.51172e-07
-3.02283e-07
5.1373e-07
1.29815e-06
-0.00150629
0.00150458
-1.01764e-06
-4.87805e-07
7.22912e-07
1.77307e-06
-0.0014999
0.0014985
-1.41554e-06
-6.82672e-07
8.85617e-07
2.19081e-06
-0.00149466
0.00149357
-1.70099e-06
-8.281e-07
9.75203e-07
2.56444e-06
-0.00149064
0.00148984
-1.97491e-06
-8.98587e-07
9.39099e-07
2.79229e-06
-0.00148805
0.00148761
-2.15949e-06
-8.68662e-07
7.92284e-07
3.00618e-06
-0.0014866
0.00148633
-2.35388e-06
-7.38384e-07
5.80768e-07
3.21263e-06
-0.00148548
0.00148515
-2.54749e-06
-5.44326e-07
3.26223e-07
3.32892e-06
-0.00148383
0.00148325
-2.66756e-06
-3.11648e-07
3.30455e-08
3.22003e-06
-0.00148097
0.00148004
-2.61995e-06
-3.09602e-08
-3.72527e-07
3.08119e-06
-0.0014768
0.00147564
-2.57423e-06
3.84e-07
-1.08093e-06
3.23482e-06
-0.00147225
0.00147123
-2.78722e-06
1.10466e-06
-2.41791e-06
4.04272e-06
-0.00146867
0.001468
-3.45426e-06
2.38932e-06
7.88055e-08
3.14655e-08
0.00152816
-2.608e-08
-7.26421e-08
1.66372e-07
8.02386e-07
-0.00152153
0.00151958
-7.49756e-07
-1.50689e-07
2.79506e-07
1.55351e-06
-0.0015143
0.00151268
-1.45467e-06
-2.52275e-07
4.32772e-07
2.38593e-06
-0.00150808
0.00150662
-2.24542e-06
-3.80143e-07
5.93155e-07
3.3205e-06
-0.0015025
0.00150122
-3.13843e-06
-5.29287e-07
7.42688e-07
4.30585e-06
-0.00149761
0.00149651
-4.07676e-06
-6.59483e-07
8.49074e-07
5.19765e-06
-0.00149354
0.00149268
-4.93532e-06
-7.56055e-07
8.50149e-07
5.79951e-06
-0.00149062
0.00149017
-5.5228e-06
-7.50813e-07
6.65242e-07
5.84705e-06
-0.00148931
0.00148913
-5.62006e-06
-5.89664e-07
4.12924e-07
5.33801e-06
-0.00148872
0.00148853
-5.24255e-06
-3.7293e-07
1.62695e-07
4.5639e-06
-0.00148745
0.00148684
-4.63021e-06
-1.59154e-07
-3.19433e-08
3.90574e-06
-0.00148397
0.00148265
-4.15318e-06
2.30246e-08
-2.17001e-07
3.55057e-06
-0.00147773
0.00147581
-3.89927e-06
2.14661e-07
-6.01229e-07
3.75169e-06
-0.00146978
0.00146787
-4.10476e-06
5.93883e-07
-1.46178e-06
4.98086e-06
-0.0014632
0.00146214
-5.13135e-06
1.30382e-06
7.6701e-08
1.3371e-08
0.00152799
-9.49666e-09
-7.13341e-08
1.55857e-07
5.741e-07
-0.00152092
0.00151884
-5.08481e-07
-1.44218e-07
2.64131e-07
1.12168e-06
-0.00151322
0.00151149
-1.00478e-06
-2.40371e-07
4.06945e-07
1.74733e-06
-0.00150654
0.00150498
-1.56076e-06
-3.64991e-07
5.5775e-07
2.43216e-06
-0.00150061
0.00149926
-2.15972e-06
-4.90062e-07
6.80306e-07
3.14941e-06
-0.00149555
0.00149443
-2.7853e-06
-5.96981e-07
7.54053e-07
3.808e-06
-0.00149154
0.00149069
-3.38086e-06
-6.65147e-07
7.63519e-07
4.35168e-06
-0.00148869
0.0014882
-3.88442e-06
-6.77001e-07
6.55164e-07
4.66891e-06
-0.0014871
0.00148688
-4.26658e-06
-5.76477e-07
4.70702e-07
4.70436e-06
-0.00148624
0.00148597
-4.41202e-06
-4.24827e-07
3.04351e-07
4.65251e-06
-0.00148468
0.00148399
-4.50523e-06
-2.741e-07
1.54649e-07
4.62379e-06
-0.00148111
0.00147995
-4.56691e-06
-1.35696e-07
-7.61223e-08
4.63533e-06
-0.00147575
0.00147416
-4.65924e-06
1.03296e-07
-6.16368e-07
4.93488e-06
-0.0014693
0.00146781
-4.983e-06
6.65957e-07
-1.66853e-06
5.73233e-06
-0.00146416
0.00146325
-5.65059e-06
1.6243e-06
7.93741e-08
-2.21499e-09
0.00152796
-5.53699e-10
-7.13656e-08
1.44068e-07
3.13833e-07
-0.0015207
0.00151852
-2.47451e-07
-1.39393e-07
2.52295e-07
6.32867e-07
-0.00151251
0.00151066
-4.96644e-07
-2.32384e-07
3.91674e-07
9.97485e-07
-0.00150544
0.00150382
-7.94399e-07
-3.51813e-07
5.23342e-07
1.35244e-06
-0.00149941
0.0014981
-1.08025e-06
-4.61437e-07
6.17237e-07
1.69686e-06
-0.00149455
0.00149345
-1.33178e-06
-5.37527e-07
6.56921e-07
2.06705e-06
-0.00149049
0.00148967
-1.60126e-06
-5.79853e-07
6.38492e-07
2.42525e-06
-0.00148774
0.00148723
-1.89225e-06
-5.64703e-07
5.61849e-07
2.78052e-06
-0.001486
0.00148566
-2.18225e-06
-4.98938e-07
4.2705e-07
3.03582e-06
-0.00148464
0.00148428
-2.39465e-06
-3.89331e-07
2.52308e-07
3.24671e-06
-0.0014829
0.00148231
-2.56951e-06
-2.2858e-07
1.7022e-08
3.40012e-06
-0.00148004
0.00147911
-2.70978e-06
-1.19925e-08
-3.8389e-07
3.62413e-06
-0.00147583
0.00147463
-2.92186e-06
3.68339e-07
-1.09826e-06
4.06591e-06
-0.00147099
0.00146986
-3.34974e-06
1.05657e-06
-2.18587e-06
4.71508e-06
-0.0014669
0.00146607
-3.91123e-06
2.05958e-06
4.79582e-08
1.92267e-08
0.00152814
-1.4353e-08
-4.02636e-08
1.09704e-07
6.85393e-07
-0.00152145
0.00151947
-6.34574e-07
-9.45786e-08
1.62961e-07
1.36924e-06
-0.00151406
0.00151241
-1.27514e-06
-1.28103e-07
2.30447e-07
2.12377e-06
-0.0015078
0.00150637
-1.98814e-06
-1.78262e-07
3.10437e-07
2.9849e-06
-0.00150235
0.0015011
-2.79902e-06
-2.37901e-07
3.98132e-07
3.93613e-06
-0.00149759
0.00149652
-3.69809e-06
-3.0446e-07
4.51957e-07
4.83783e-06
-0.00149373
0.00149296
-4.57009e-06
-3.45943e-07
4.52572e-07
5.46249e-06
-0.00149117
0.00149077
-5.19025e-06
-3.51557e-07
3.77425e-07
5.58128e-06
-0.00149009
0.00149002
-5.35911e-06
-3.00753e-07
2.54277e-07
5.17504e-06
-0.00148999
0.00148996
-5.07467e-06
-2.0158e-07
1.13654e-07
4.61231e-06
-0.00148946
0.0014891
-4.68329e-06
-9.64157e-08
-1.21434e-08
4.21806e-06
-0.00148731
0.00148648
-4.44901e-06
2.82409e-09
-1.65232e-07
4.10214e-06
-0.00148342
0.00148225
-4.46631e-06
1.28868e-07
-4.60509e-07
4.34934e-06
-0.00147871
0.00147757
-4.78513e-06
3.62218e-07
-9.11543e-07
5.14087e-06
-0.00147461
0.00147379
-5.50997e-06
7.17294e-07
4.73647e-08
7.12597e-09
0.00152795
-6.61828e-09
-3.96471e-08
1.09194e-07
4.77008e-07
-0.00152075
0.00151863
-4.21876e-07
-9.49347e-08
1.58548e-07
9.61057e-07
-0.00151288
0.00151112
-8.4846e-07
-1.24958e-07
2.22312e-07
1.503e-06
-0.00150619
0.00150465
-1.31655e-06
-1.70336e-07
2.90734e-07
2.11274e-06
-0.0015004
0.00149909
-1.85137e-06
-2.18452e-07
3.57018e-07
2.79912e-06
-0.00149546
0.00149434
-2.45624e-06
-2.75968e-07
3.93197e-07
3.51839e-06
-0.00149142
0.00149063
-3.11247e-06
-3.03015e-07
4.09387e-07
4.09223e-06
-0.00148878
0.00148832
-3.65921e-06
-3.16597e-07
3.63959e-07
4.42121e-06
-0.0014874
0.0014872
-4.02941e-06
-2.88923e-07
2.80897e-07
4.53419e-06
-0.00148675
0.00148657
-4.23063e-06
-2.21431e-07
1.76891e-07
4.62594e-06
-0.00148569
0.00148521
-4.44204e-06
-1.37e-07
5.60212e-08
4.77918e-06
-0.00148315
0.00148225
-4.68181e-06
-4.06073e-08
-1.41331e-07
5.0544e-06
-0.00147899
0.00147777
-4.99639e-06
1.20057e-07
-5.81661e-07
5.50842e-06
-0.00147407
0.0014729
-5.47354e-06
4.70686e-07
-1.2363e-06
6.09545e-06
-0.00146983
0.00146897
-6.01198e-06
9.85853e-07
4.59045e-08
1.07001e-09
0.00152786
-3.03603e-09
-3.79643e-08
1.04143e-07
2.60353e-07
-0.0015204
0.00151818
-2.07232e-07
-9.07045e-08
1.49026e-07
5.15156e-07
-0.00151208
0.00151021
-4.03578e-07
-1.15653e-07
2.02222e-07
8.04443e-07
-0.00150507
0.00150349
-6.48117e-07
-1.51979e-07
2.52038e-07
1.11362e-06
-0.00149916
0.00149785
-8.96252e-07
-1.87947e-07
2.99681e-07
1.43741e-06
-0.00149439
0.0014933
-1.13304e-06
-2.21375e-07
3.334e-07
1.83206e-06
-0.00149034
0.00148955
-1.41028e-06
-2.48571e-07
3.40326e-07
2.23924e-06
-0.00148759
0.00148707
-1.72665e-06
-2.55353e-07
3.08279e-07
2.56893e-06
-0.00148586
0.00148555
-1.98552e-06
-2.46688e-07
2.57877e-07
2.82386e-06
-0.00148461
0.00148427
-2.20312e-06
-2.02937e-07
1.38481e-07
3.13099e-06
-0.00148305
0.00148254
-2.46376e-06
-1.03843e-07
-7.49061e-09
3.44808e-06
-0.00148062
0.00147982
-2.73897e-06
7.99823e-09
-2.81027e-07
3.7653e-06
-0.00147692
0.00147583
-3.02346e-06
2.26042e-07
-7.70736e-07
4.31812e-06
-0.0014725
0.00147141
-3.51938e-06
6.14074e-07
-1.46033e-06
4.76362e-06
-0.00146845
0.0014676
-3.91062e-06
1.15872e-06
6.90533e-06
-0.00143408
4.59207e-05
-4.85222e-05
0.00142935
3.46445e-07
-8.72672e-06
8.57576e-06
-0.000393997
-0.00143091
-4.28194e-05
0.00142471
1.33551e-05
-8.70684e-06
8.00558e-06
-0.000391135
1.14033e-06
-0.00144482
3.11017e-06
6.25701e-06
-9.83529e-06
-2.76966e-06
0.00144589
-8.1126e-06
-1.353e-06
7.18406e-06
-0.00146256
-2.73928e-08
2.24224e-06
1.04676e-06
1.96249e-06
6.6238e-07
-0.00146146
5.95934e-06
-4.45677e-06
0.00145584
4.42292e-06
2.62647e-05
-2.51895e-05
-0.00144129
-0.00145484
0.00146839
2.76364e-05
-9.04962e-07
8.70835e-07
-0.00153923
1.28245e-06
5.78829e-07
-0.00147644
4.91931e-06
-1.01912e-05
0.00148013
1.41843e-06
-4.6359e-06
3.00918e-06
-0.00148826
-0.00145866
-3.12709e-06
0.00145285
1.28876e-06
2.19103e-05
-2.14274e-05
7.64322e-06
-0.00143831
-0.00145856
-3.98026e-07
1.42312e-06
-1.62292e-06
7.21973e-07
0.0014544
2.0749e-06
4.6014e-06
-6.54325e-06
-1.36327e-06
-0.00144676
2.69235e-05
-1.29752e-05
-5.65334e-06
0.000331884
0.000328826
0.000330008
0.000329812
-0.00138541
-5.86139e-06
3.35305e-05
0.000334511
0.000336622
0.000336157
0.000338296
-0.00139507
1.14361e-06
7.34631e-06
3.87915e-07
-0.00152452
-1.18799e-06
9.29066e-08
-0.00147091
-7.68284e-06
0.00147375
1.00655e-06
-5.34073e-06
3.99881e-06
-0.00148029
1.61234e-06
-0.00144837
-6.45023e-06
0.00144909
2.21545e-06
2.19908e-06
-1.41313e-06
-0.0014569
-7.29523e-06
1.31901e-06
-0.00146097
-2.25806e-06
-1.31882e-06
7.92801e-07
0.00146114
1.52648e-06
-6.33599e-06
-1.50937e-06
6.30264e-06
-0.00146228
-0.00144962
1.84253e-06
0.00145003
3.81742e-06
-8.88029e-06
9.21094e-06
-0.00145536
4.66001e-07
-4.75212e-06
-0.00146046
1.4466e-06
-1.81406e-06
4.54192e-06
0.00145958
-7.01397e-06
1.49613e-06
-1.45756e-06
6.78e-06
-0.00145892
-4.8932e-06
0.000329133
0.000331108
-0.00138541
1.20788e-05
0.000329007
0.000329672
-0.0013837
0.000378706
9.01698e-06
-5.01621e-05
-3.2564e-05
0.000373204
8.05483e-05
1.72115e-06
1.97147e-05
0.000387165
-2.90894e-05
2.55402e-05
0.000330512
0.000328735
0.000329568
0.000328671
-0.00138367
2.23234e-05
0.00037665
-3.03224e-05
-4.87257e-05
-3.13153e-05
-4.75918e-05
0.000371247
0.000376156
0.000370851
7.25122e-05
-3.24496e-05
0.00142726
1.65824e-05
2.9576e-05
-0.00143126
3.1817e-05
0.000333193
0.000336576
0.000336
0.000337229
-0.00139348
0.000372544
3.00341e-05
-2.69394e-05
-3.28399e-05
-4.21964e-05
-2.3272e-05
0.000368269
0.000374067
0.000370518
5.6725e-05
1.87048e-05
0.000384736
-2.82337e-05
3.06995e-06
7.78603e-07
-2.24385e-06
-2.59491e-06
4.16265e-06
-0.000382881
7.62874e-06
1.25187e-05
-1.93659e-05
-7.16615e-06
0.000378824
2.51936e-05
-7.68557e-08
-8.64373e-06
-2.59302e-05
9.46381e-06
-2.12386e-05
0.00143805
-4.77688e-06
1.31017e-05
-0.00144006
-4.98935e-06
0.000357499
0.000354467
0.000355236
0.000354806
-0.00143022
0.00145674
-5.68526e-06
-9.29227e-06
-1.63319e-05
-1.29596e-05
-9.9809e-06
2.07839e-05
-2.47233e-07
3.03197e-06
1.3435e-05
8.97914e-06
-0.00148019
-8.93258e-06
1.4435e-06
3.6757e-06
-2.39854e-06
5.70995e-06
-4.77924e-06
-3.57584e-07
-9.40022e-06
3.55282e-07
-1.25083e-06
-7.53006e-06
-6.77955e-06
-1.44965e-05
-1.08715e-05
-8.97507e-06
1.56587e-05
2.51257e-05
-2.65677e-05
-8.01091e-06
9.38236e-06
-1.06681e-05
0.00144757
-0.00144349
1.0233e-05
-1.99809e-05
0.00143592
-0.00143818
1.21355e-05
-1.69148e-05
-3.32514e-06
0.00145379
3.23587e-06
8.44146e-06
0.000356527
0.000354185
0.00035427
0.000354553
-0.00142831
0.000368374
-4.29635e-06
-5.84393e-06
-7.1221e-06
-3.60882e-06
0.000366921
0.000366016
0.000365288
1.30923e-05
0.00145437
-8.93361e-06
-1.59529e-05
-9.61382e-06
-1.25403e-05
1.98381e-05
1.37282e-05
2.20151e-06
8.95386e-06
-4.93315e-06
-1.77447e-06
8.22957e-06
-0.000373304
-0.00147717
1.19332e-06
3.60653e-06
-2.4505e-06
5.38166e-06
-4.60641e-06
2.94599e-06
-6.44784e-07
-4.42777e-06
-3.69673e-06
-3.10035e-06
-5.93742e-06
6.98507e-06
-9.75299e-06
-3.25995e-07
-1.28646e-06
3.7632e-06
-4.88342e-06
0.000371101
5.95444e-06
-6.65805e-06
-1.43257e-05
-9.00634e-06
-1.06838e-05
1.51618e-05
0.000333625
-3.32954e-05
1.33909e-05
-9.50415e-06
-1.77073e-05
-0.000337955
2.26192e-05
-9.89689e-06
-2.3929e-05
-2.95178e-05
-8.93893e-06
9.33836e-05
9.43881e-05
-2.30779e-05
2.80978e-05
-2.10912e-06
2.43105e-05
8.21826e-05
7.41432e-05
6.88403e-05
8.35573e-05
-1.0996e-05
-1.21524e-05
-3.14894e-05
-1.22109e-05
-3.14344e-05
9.31261e-05
9.35753e-05
-1.37108e-05
-2.48293e-06
8.11239e-05
6.66213e-05
8.0488e-05
6.72515e-05
1.50965e-05
-5.80716e-06
0.00033092
-3.6025e-05
-0.000330678
6.12798e-06
-3.26287e-06
-1.36394e-05
-3.26333e-05
-1.35784e-05
-3.25855e-05
9.36143e-05
9.32494e-05
3.70759e-05
7.53361e-06
-4.11622e-06
-2.17007e-06
7.92316e-05
6.58952e-05
7.96781e-05
6.54558e-05
-3.44895e-06
-1.33411e-05
-3.22686e-05
-1.3315e-05
-3.23661e-05
9.27561e-05
9.28429e-05
-2.2928e-06
7.89421e-05
6.58047e-05
7.96613e-05
6.51744e-05
-0.000332274
-1.38819e-05
-3.28564e-05
-1.38421e-05
-3.29315e-05
9.39928e-05
9.41845e-05
3.78136e-05
-2.08602e-06
7.9572e-05
6.60566e-05
7.98812e-05
6.57635e-05
3.54064e-05
3.97173e-06
7.92924e-05
6.54128e-05
6.50881e-05
7.96255e-05
-0.000330868
9.13934e-05
3.13793e-06
-1.30455e-05
-3.25391e-05
-3.26153e-05
-1.29897e-05
9.348e-05
9.16218e-05
9.36576e-05
3.23489e-06
9.98099e-08
-4.60086e-06
4.89577e-06
-3.70062e-08
-0.000118952
-0.000114922
5.48654e-07
1.62121e-06
-3.19653e-07
0.00011679
-3.71828e-06
7.46781e-07
1.46742e-05
-2.55982e-05
-5.55602e-07
0.000102117
5.74418e-07
4.69805e-06
-3.62617e-07
-6.66558e-06
-0.000113165
-3.02153e-05
0.000332231
1.2959e-05
-9.12503e-06
-2.27531e-05
2.51189e-05
2.39419e-05
8.19398e-05
7.39779e-05
6.81071e-05
8.35039e-05
-1.73561e-05
-0.000336974
9.02259e-05
2.21893e-05
-8.86059e-06
-2.33971e-05
-2.91211e-05
-8.06356e-06
9.3168e-05
9.09961e-05
9.40802e-05
-1.342e-05
8.07992e-05
6.59281e-05
6.65781e-05
8.02066e-05
-1.07158e-05
9.06678e-05
-1.11751e-05
-3.11356e-05
-1.12454e-05
-3.10836e-05
9.27003e-05
9.12892e-05
9.31574e-05
1.46519e-05
-3.323e-05
-5.54111e-06
0.000329575
7.35882e-06
3.45253e-05
7.89625e-05
6.52436e-05
6.47915e-05
7.94346e-05
-0.000329343
5.95761e-06
9.09314e-05
-1.27664e-05
-3.23148e-05
-1.27234e-05
-3.22469e-05
9.31295e-05
9.09015e-05
9.27817e-05
7.86621e-05
6.51563e-05
6.44864e-05
7.93859e-05
9.06278e-05
-1.24432e-05
-3.19141e-05
-1.23922e-05
-3.20111e-05
9.23112e-05
9.05341e-05
9.23951e-05
-2.35022e-06
0.000112309
3.79977e-06
-6.56235e-06
-0.000110642
3.44556e-06
7.18887e-06
8.41867e-06
-1.6323e-05
-6.42261e-06
9.73509e-05
-2.57148e-06
1.30283e-05
0.000100551
-2.38254e-05
3.47367e-06
0.000106062
6.15599e-06
3.0362e-06
-5.94745e-06
-4.26409e-06
-0.000105031
-0.000112775
2.28624e-06
1.80396e-06
-1.60138e-06
-4.15876e-06
0.000114444
-4.57067e-06
4.74166e-06
-0.000118436
2.88627e-07
-0.000114374
1.59597e-06
8.59387e-07
0.000116265
-3.7992e-06
1.02264e-06
-4.12967e-06
-0.00011649
-6.60761e-07
3.86307e-06
4.5548e-06
-1.71019e-06
-6.87399e-06
-0.000111093
1.44972e-05
-2.54484e-05
0.00010164
9.84727e-07
4.61674e-06
9.17583e-07
-6.71325e-06
-0.000112622
1.4001e-05
0.000100789
-2.47699e-05
-1.97759e-06
1.16634e-06
-4.00442e-06
3.34185e-06
0.000114089
3.14406e-07
-1.79124e-08
2.35394e-06
-0.000109943
-2.62206e-06
5.04005e-06
1.43115e-06
-5.51791e-06
-2.65286e-06
0.000107764
-4.32293e-06
-0.000116241
3.40729e-06
2.00344e-06
-1.28788e-05
0.000358712
-5.06766e-06
-0.000356683
1.8086e-05
-1.89162e-06
-4.19166e-06
-2.72076e-06
-1.63171e-06
9.09113e-05
9.02189e-05
9.63653e-06
1.61003e-05
-1.28981e-06
8.93616e-05
8.65892e-05
8.92593e-05
8.8603e-05
3.91492e-06
-0.000356936
0.00036862
-1.28797e-06
-5.8742e-06
-9.63073e-06
-8.02263e-06
-6.9397e-06
0.000361371
-1.31471e-06
-0.000370059
3.94344e-06
0.000372774
-4.07366e-06
-2.54151e-06
5.71983e-08
-2.55455e-07
7.67165e-07
2.99969e-07
-8.68712e-07
1.20692e-06
0.00038982
-1.98339e-06
-6.66824e-06
-1.03337e-05
-7.92433e-06
-9.68022e-06
-6.30342e-06
-6.51018e-06
0.0003983
-2.27959e-06
-3.48904e-06
-8.51965e-07
-7.92007e-07
-5.7972e-06
5.26607e-06
0.000373359
-8.82886e-08
-8.59855e-07
-2.87479e-07
1.358e-06
6.56003e-08
-1.07885e-06
-0.000392563
-4.61108e-06
-2.70863e-06
4.9954e-06
6.16981e-06
5.41522e-06
5.77212e-06
-2.48776e-06
3.13325e-06
2.41892e-06
1.69048e-06
3.96532e-06
9.7932e-07
1.62568e-06
-1.24704e-05
-2.30487e-06
0.000357873
6.96971e-06
1.57009e-05
8.92395e-05
8.66438e-05
8.91847e-05
8.86243e-05
-0.000355952
1.76447e-05
9.09564e-05
-1.21761e-06
-3.64337e-06
-2.02316e-06
-8.89751e-07
9.08214e-05
9.05108e-05
9.00067e-05
-0.000356809
9.86137e-07
0.000368607
-5.72976e-06
-9.42216e-06
-6.79576e-06
-7.87948e-06
0.000360421
8.31315e-06
-0.000369018
0.000371576
-3.64915e-06
-4.06452e-06
-3.13992e-06
-2.58121e-06
-3.86304e-06
3.26823e-07
5.03738e-07
-2.29892e-07
-8.55973e-07
2.30584e-06
-3.27636e-06
9.26118e-05
6.49954e-06
0.000389207
-2.4677e-06
-6.63611e-06
-1.01122e-05
-9.53733e-06
-7.8356e-06
9.4857e-05
-1.61652e-06
4.52062e-06
3.11742e-06
-9.47087e-05
0.000397401
-3.56912e-06
-6.71637e-07
-5.69886e-06
-9.32763e-07
9.98568e-07
-6.27499e-06
-4.8273e-06
-6.44089e-06
-5.02774e-06
1.00359e-05
0.000372066
-6.62632e-06
-2.32154e-07
-1.21407e-06
-9.65987e-07
-1.74519e-07
1.63875e-06
-4.98976e-07
-1.10027e-06
-5.67068e-07
3.30748e-06
-9.64426e-05
-2.18439e-06
-0.000391616
-9.70037e-06
4.62117e-06
6.13832e-06
5.39724e-06
5.44629e-06
-2.09269e-06
3.02352e-06
3.20072e-06
9.57687e-05
2.85013e-06
2.57989e-06
4.04182e-06
1.51873e-06
-8.18694e-06
7.87702e-07
2.3737e-06
1.83391e-06
1.39141e-06
8.33237e-05
-1.18217e-05
7.55657e-06
-6.82848e-06
-1.38323e-05
-8.50157e-05
2.44443e-05
1.80553e-05
-1.04221e-05
-1.32998e-05
-1.28271e-05
-9.01181e-06
2.73805e-05
2.45993e-05
2.59573e-05
-9.65817e-06
9.90082e-06
-6.49084e-07
8.26095e-06
1.6232e-05
1.63334e-05
1.62655e-05
1.7388e-05
2.40792e-05
-9.28195e-06
-1.14667e-05
-1.34143e-05
-1.3041e-05
-1.15823e-05
2.49232e-05
2.45167e-05
2.52121e-05
-7.5599e-07
-7.3882e-06
1.44807e-05
1.35599e-05
1.3432e-05
1.39861e-05
7.00466e-06
-1.21742e-06
7.90654e-05
-1.40832e-05
1.81604e-06
-7.98685e-05
1.47172e-06
-9.52465e-07
2.40922e-05
-1.18947e-05
-1.38706e-05
-1.19457e-05
-1.37271e-05
2.5221e-05
2.38994e-05
2.4934e-05
1.40732e-05
1.19824e-06
-8.28024e-07
-5.60468e-07
1.33612e-05
1.26722e-05
1.33901e-05
1.25797e-05
-9.28067e-07
2.37392e-05
1.99604e-06
-1.18978e-05
-1.36548e-05
-1.37394e-05
-1.1838e-05
2.48238e-05
2.37323e-05
2.47862e-05
-5.76886e-07
1.67471e-06
1.33258e-05
1.23315e-05
1.26648e-05
1.31424e-05
9.69416e-07
-8.19793e-06
-1.18735e-06
-8.3814e-06
-1.6732e-06
1.48238e-06
-2.27782e-05
-8.39008e-06
5.57816e-06
-8.63297e-06
3.88529e-06
-4.05152e-06
7.28876e-07
7.97091e-05
-1.43423e-05
-8.00616e-05
-5.6795e-07
2.41116e-05
-1.19766e-05
-1.38515e-05
-1.19466e-05
-1.38756e-05
2.52402e-05
2.40174e-05
2.50994e-05
1.42281e-05
-5.95838e-07
-5.55024e-07
1.34665e-05
1.25677e-05
1.33646e-05
1.2748e-05
2.40905e-05
-1.19663e-05
-1.39462e-05
-1.38332e-05
-1.20058e-05
2.52481e-05
2.39752e-05
2.50458e-05
-5.50224e-07
1.33354e-05
1.25198e-05
1.25581e-05
1.32938e-05
-6.72601e-06
-4.29802e-08
6.82091e-06
-5.89321e-07
8.73625e-06
-8.51609e-07
-8.23533e-07
7.3107e-07
-7.79222e-06
8.36532e-06
-8.30034e-07
-7.45261e-06
-6.18862e-07
-8.33635e-07
-6.99172e-06
-2.07395e-08
7.31657e-07
7.11439e-06
1.47445e-05
5.20605e-06
-1.99561e-05
-9.51567e-08
2.26284e-07
1.1138e-05
-1.06615e-05
-3.71659e-07
2.37795e-05
1.12419e-05
2.38055e-05
-1.07276e-05
-1.31541e-07
-7.7319e-08
1.46813e-05
5.15546e-06
1.07606e-07
-1.9867e-05
-1.34187e-05
7.93591e-05
6.77073e-07
-5.54479e-07
1.3303e-05
7.86063e-07
1.33245e-05
1.22962e-05
1.24954e-05
1.32007e-05
-5.45868e-07
-7.97278e-05
2.39722e-05
9.37835e-07
-1.18617e-05
-1.36014e-05
-1.36296e-05
-1.18227e-05
2.49904e-05
2.38878e-05
2.48588e-05
1.31877e-05
1.22467e-05
1.23048e-05
1.31281e-05
2.39438e-05
-1.18473e-05
-1.36991e-05
-1.35832e-05
-1.188e-05
2.49972e-05
2.38424e-05
2.48037e-05
8.83697e-07
-6.54328e-06
-8.18256e-08
6.67694e-06
-5.47114e-07
8.69516e-06
-8.03347e-07
-8.53279e-07
6.89847e-07
-7.72841e-06
8.32087e-06
-8.55067e-07
-7.38391e-06
-5.8466e-07
-7.78618e-07
-6.79056e-06
-6.203e-08
6.75548e-07
6.95562e-06
1.43761e-05
5.16693e-06
-1.95473e-05
-8.58956e-08
2.29701e-07
1.10822e-05
-1.05556e-05
-3.76197e-07
2.35911e-05
1.1182e-05
2.36162e-05
-1.06193e-05
-1.38488e-07
-5.95468e-08
1.43014e-05
5.11716e-06
8.97497e-08
-1.94487e-05
8.27888e-07
-7.20412e-07
-9.10451e-07
7.80732e-07
-6.77029e-07
-7.07417e-07
1.42699e-05
4.78043e-06
-1.92755e-05
9.32314e-07
4.00997e-06
7.13967e-06
-7.04131e-06
-4.45844e-06
2.47926e-05
-2.22655e-06
1.06435e-05
2.35494e-05
-1.03722e-05
2.48316e-06
2.67369e-06
2.07034e-05
3.73704e-06
-1.77989e-06
-2.53343e-05
-6.52081e-06
-1.34523e-06
-1.09919e-08
6.67258e-06
1.20441e-06
-7.73621e-07
-1.02408e-06
-7.25175e-06
-1.45536e-06
-7.86401e-07
-7.42785e-06
1.28816e-06
-6.444e-06
1.20161e-08
-9.54197e-07
6.55257e-06
1.64559e-08
1.41736e-05
5.09262e-06
-1.92914e-05
8.83206e-09
1.11385e-05
-1.0672e-05
6.87397e-08
2.37829e-05
4.99962e-07
1.10918e-05
2.335e-05
-1.05812e-05
-6.22524e-07
1.46504e-05
5.16429e-06
-3.18766e-08
-1.98604e-05
-6.25153e-06
2.55874e-06
-1.9281e-07
6.55285e-06
-2.66726e-06
-7.25475e-06
1.76514e-06
4.67527e-06
-2.19631e-05
3.18171e-06
-9.23595e-07
-7.58944e-06
-3.30145e-06
-6.05663e-06
-1.97573e-05
1.18672e-06
3.8457e-06
2.0781e-05
-1.07285e-05
8.30602e-05
7.38215e-06
-6.68034e-06
-9.1137e-06
9.0141e-06
7.84932e-06
1.60886e-05
1.61853e-05
1.59025e-05
1.73349e-05
-1.37178e-05
-8.50127e-05
2.4417e-05
1.80627e-05
-1.02619e-05
-1.31077e-05
-1.25504e-05
-8.86607e-06
2.71721e-05
2.45764e-05
2.58576e-05
-7.02288e-06
1.42849e-05
1.32641e-05
1.31308e-05
1.38067e-05
2.39711e-05
-9.17188e-06
-1.13392e-05
-1.31808e-05
-1.27933e-05
-1.14594e-05
2.47272e-05
2.44227e-05
2.50208e-05
6.77979e-06
-1.31228e-05
-1.17987e-06
7.87369e-05
1.75356e-06
1.15402e-06
1.31432e-05
1.32127e-05
1.23978e-05
1.23243e-05
1.32267e-05
-7.95464e-05
1.46292e-06
2.39563e-05
-1.17764e-05
-1.36225e-05
-1.18232e-05
-1.34758e-05
2.49715e-05
2.37764e-05
2.46926e-05
1.60293e-06
1.31841e-05
1.20613e-05
1.24124e-05
1.2975e-05
2.36062e-05
1.97025e-06
-1.17767e-05
-1.33988e-05
-1.34875e-05
-1.17051e-05
2.45777e-05
2.36134e-05
2.45497e-05
-7.7559e-07
1.39143e-05
4.71913e-06
-1.88787e-05
1.02066e-06
4.09122e-06
7.01254e-06
-6.88593e-06
-4.548e-06
2.47462e-05
-2.25299e-06
1.05808e-05
2.34069e-05
-1.02807e-05
2.51554e-06
3.00171e-06
2.0478e-05
3.60883e-06
-2.01391e-06
-2.50741e-05
-6.33959e-06
-1.2775e-06
-6.78355e-08
1.13876e-06
6.54614e-06
8.16393e-06
-7.97345e-07
-7.19442e-06
-9.75447e-07
-6.26351e-06
-3.03938e-08
-9.03058e-07
6.41838e-06
8.35784e-06
-1.38811e-06
-8.11451e-07
-7.38762e-06
1.22931e-06
3.96522e-08
1.38078e-05
5.0506e-06
-1.33993e-08
-1.88846e-05
1.10879e-05
-1.05674e-05
2.35969e-05
6.83223e-08
1.42741e-05
5.12774e-06
-1.72727e-08
-1.94444e-05
5.03902e-07
1.10354e-05
2.31726e-05
-1.0475e-05
-6.31869e-07
-6.166e-06
2.37529e-06
-2.74796e-07
-2.43221e-06
6.49777e-06
-6.53366e-06
2.28674e-05
1.5284e-06
-2.20198e-05
4.15884e-06
-5.37359e-06
-1.9747e-05
9.96707e-07
3.33515e-06
2.0789e-05
8.67784e-06
3.00457e-06
-1.00464e-06
-7.62104e-06
-3.05657e-06
-6.87451e-06
8.99027e-05
-1.45025e-06
-8.94645e-05
9.7402e-06
2.321e-05
-8.45517e-07
-4.31583e-06
-1.84414e-06
-7.14072e-08
3.14898e-05
2.26759e-05
2.32744e-05
2.83886e-06
7.03962e-06
-1.10099e-07
2.1846e-05
2.02073e-05
2.15262e-05
2.14625e-05
1.06145e-06
-8.74909e-05
9.48538e-05
-2.33965e-07
-3.2573e-06
-6.25555e-06
-5.04585e-06
-3.21896e-06
9.10694e-05
-2.45062e-07
-9.33706e-05
-2.77244e-06
9.71409e-05
6.2212e-07
-1.95922e-06
-2.36814e-06
-2.06513e-06
-1.85885e-06
1.43577e-06
-2.60714e-07
2.29112e-05
3.1334e-06
-2.73595e-07
1.30747e-06
-4.37758e-06
1.29125e-06
2.05269e-06
-1.03178e-07
0.000109603
-5.83587e-07
-5.38039e-06
-7.21287e-06
-5.94116e-06
-5.80734e-06
2.9806e-05
5.32393e-07
2.87198e-06
-3.18505e-05
1.31519e-06
7.3226e-07
-2.97483e-06
-2.1161e-06
-3.33517e-06
-2.60286e-06
-7.23236e-07
0.00011488
-4.76748e-06
-3.42542e-06
-4.79805e-06
-3.96812e-06
-2.06204e-06
9.84699e-05
-9.97535e-05
-1.11445e-06
2.7123e-06
2.08026e-06
2.53917e-06
2.12624e-06
-3.20086e-07
-5.97002e-06
7.21572e-06
2.93329e-07
-1.21891e-06
2.69171e-05
1.78832e-06
-5.45805e-06
-2.67308e-05
-3.77048e-06
-0.000113722
1.20987e-06
-8.44005e-07
2.12485e-06
1.67715e-06
1.31521e-06
2.38371e-06
-2.76149e-05
1.16069e-06
-2.97077e-06
-3.97121e-06
2.73393e-05
-8.25252e-07
-0.000116156
2.12072e-06
1.14532e-06
1.42844e-06
1.91887e-06
-1.5021e-06
2.9672e-06
2.5082e-06
3.15335e-06
2.42293e-06
-6.69475e-06
-8.22119e-07
8.98003e-05
2.31495e-06
6.78407e-06
2.18751e-05
2.03107e-05
2.15684e-05
2.14921e-05
-8.95297e-05
9.60296e-06
2.32583e-05
-7.39747e-07
-4.09768e-06
-1.70557e-06
1.06461e-07
3.14979e-05
2.27137e-05
2.33059e-05
-8.75399e-05
4.42345e-07
9.48912e-05
-3.15432e-06