/*--------------------------------*- C++ -*----------------------------------*\
| =========                 |                                                 |
| \\      /  F ield         | OpenFOAM: The Open Source CFD Toolbox           |
|  \\    /   O peration     | Version:  2012                                  |
|   \\  /    A nd           | Website:  www.openfoam.com                      |
|    \\/     M anipulation  |                                                 |
\*---------------------------------------------------------------------------*/
FoamFile
{
    version     2.0;
    format      ascii;
    class       surfaceVectorField;
    location    "0.106/fluid";
    object      Uf;
}
// * * * * * * * * * * * * * * * * * * * * * * * * * * * * * * * * * * * * * //

dimensions      [0 1 -1 0 0 0 0];


internalField   nonuniform List<vector> 
47046
(
(1.19996 4.08606e-06 7.27978e-06)
(1.2 8.243e-06 1.35357e-05)
(1.19996 3.83147e-06 7.24421e-06)
(1.19996 3.9072e-06 7.21911e-06)
(1.19993 7.60451e-05 9.61719e-05)
(1.20001 6.0648e-05 8.02407e-05)
(1.20001 8.69304e-05 0.000106245)
(1.19993 7.27456e-05 9.55337e-05)
(1.19993 7.42302e-05 9.56404e-05)
(1.19978 0.000133327 0.000127113)
(1.20002 0.000127061 0.000125436)
(1.20002 0.000136218 0.000128892)
(1.19978 0.000128028 0.000125584)
(1.19978 0.000130259 0.000127281)
(1.19997 0.0001871 0.000158013)
(1.20003 0.000176294 0.000151921)
(1.20003 0.000192925 0.000162518)
(1.19999 0.000180339 0.000155584)
(1.19999 0.000182995 0.000157674)
(1.20003 0.000271993 0.000217199)
(1.20005 0.000255194 0.00020605)
(1.20006 0.000281057 0.000224665)
(1.20006 0.000261635 0.000212556)
(1.20006 0.000265096 0.000215821)
(1.20006 0.00040137 0.000313741)
(1.20008 0.000376188 0.000295552)
(1.20009 0.000414982 0.000325169)
(1.2001 0.000385747 0.000305527)
(1.2001 0.000390396 0.000311106)
(1.2001 0.00059696 0.000461852)
(1.20013 0.000559036 0.000433732)
(1.20014 0.000617568 0.000477538)
(1.20016 0.000573825 0.000447541)
(1.20016 0.000579604 0.000456931)
(1.20016 0.000890228 0.000685342)
(1.2002 0.00083229 0.000640224)
(1.20023 0.000919324 0.000707093)
(1.20026 0.000852803 0.000659214)
(1.20025 0.000860443 0.000674823)
(1.20028 0.00132812 0.00102103)
(1.20033 0.00123923 0.00095103)
(1.20037 0.00136846 0.00104788)
(1.20042 0.00126757 0.000974639)
(1.2004 0.0012775 0.00100091)
(1.20048 0.00196633 0.00149802)
(1.20055 0.00183394 0.00139169)
(1.20062 0.00201851 0.00152744)
(1.20068 0.00187025 0.00141689)
(1.20066 0.00188151 0.00146148)
(1.20083 0.00286615 0.00218283)
(1.20091 0.00267266 0.00201792)
(1.20104 0.00292615 0.00221296)
(1.2011 0.0027136 0.00204263)
(1.20108 0.00272442 0.00211443)
(1.20144 0.00408521 0.00302737)
(1.20141 0.00406425 0.0031655)
(1.2015 0.00380352 0.00291147)
(1.20169 0.00413919 0.0031908)
(1.20177 0.00385379 0.00292606)
(1.20175 0.00384546 0.00304391)
(1.20204 0.00580315 0.00441305)
(1.20201 0.00565888 0.00466449)
(1.20222 0.00534943 0.00424167)
(1.20234 0.00587788 0.00469492)
(1.20258 0.00547903 0.00423423)
(1.20254 0.00537225 0.00445991)
(1.20103 0.00921469 0.00759535)
(1.20155 0.00993916 0.00683203)
(1.20214 0.00867794 0.00663856)
(1.20177 0.0105914 0.00758389)
(1.20258 0.00884822 0.00721564)
(1.20308 0.00923022 0.00650712)
(1.19824 0.0363385 0.0140073)
(1.20711 0.0302528 0.0106142)
(1.2038 0.0248132 0.0110375)
(1.21338 0.0363555 0.0111209)
(1.20719 0.0258183 0.01338)
(1.21024 0.0232545 0.00955379)
(1.19996 2.50095e-06 7.1227e-06)
(1.2 3.54966e-06 1.31998e-05)
(1.19996 1.37887e-06 7.09804e-06)
(1.19996 1.73979e-06 7.05619e-06)
(1.19993 5.62656e-05 9.38696e-05)
(1.20001 3.96424e-05 7.83404e-05)
(1.20002 6.05686e-05 0.000103466)
(1.19994 4.8584e-05 9.32951e-05)
(1.19994 5.05791e-05 9.36887e-05)
(1.19981 0.000101816 0.000121193)
(1.20004 9.22115e-05 0.000120008)
(1.20005 9.98555e-05 0.000122596)
(1.19981 9.02259e-05 0.000119834)
(1.19981 9.47887e-05 0.000120921)
(1.20003 0.000147369 0.000148762)
(1.20008 0.000133592 0.000143251)
(1.2001 0.000146993 0.000152889)
(1.20005 0.000132363 0.000146768)
(1.20005 0.000139053 0.000148526)
(1.20013 0.000213885 0.000200473)
(1.20014 0.000194579 0.000191095)
(1.20015 0.000213952 0.000207286)
(1.20015 0.000192658 0.000197168)
(1.20015 0.000202071 0.000199649)
(1.20021 0.000313939 0.000283683)
(1.20022 0.000285268 0.000268482)
(1.20024 0.000314599 0.000293815)
(1.20024 0.000283101 0.000277666)
(1.20024 0.000296127 0.000282027)
(1.20033 0.000466174 0.000409646)
(1.20033 0.000422941 0.000386408)
(1.20037 0.000466343 0.000423276)
(1.20037 0.000418995 0.000399016)
(1.20037 0.000438284 0.000405832)
(1.20051 0.000687628 0.000590393)
(1.20051 0.000623818 0.000555152)
(1.20057 0.000687341 0.000607837)
(1.20057 0.000617579 0.000571198)
(1.20057 0.000644401 0.000582824)
(1.20077 0.00101348 0.000850019)
(1.20078 0.000918648 0.000796348)
(1.20087 0.00101128 0.0008696)
(1.20087 0.000908134 0.000815226)
(1.20087 0.000945375 0.000835169)
(1.20119 0.00148365 0.00120136)
(1.2012 0.00134483 0.00112282)
(1.20133 0.00147601 0.00121953)
(1.20132 0.00132644 0.00114087)
(1.20131 0.00137738 0.00117377)
(1.20184 0.00207596 0.00160012)
(1.20181 0.00213456 0.00166813)
(1.20182 0.00193728 0.00155186)
(1.20202 0.00211655 0.00167743)
(1.202 0.00190488 0.00156302)
(1.20199 0.00197078 0.00161631)
(1.2028 0.00295896 0.0021612)
(1.20275 0.00302844 0.00227313)
(1.20275 0.00274833 0.00209999)
(1.20304 0.00299615 0.00225574)
(1.20301 0.0026948 0.00208932)
(1.20298 0.00277504 0.00217826)
(1.20427 0.0042223 0.00282338)
(1.20415 0.00430814 0.00302295)
(1.20414 0.00388664 0.00275854)
(1.20461 0.00424395 0.00293148)
(1.20453 0.00378741 0.00268992)
(1.20446 0.00388908 0.00284792)
(1.20679 0.00602329 0.00340842)
(1.20665 0.00622861 0.00379679)
(1.20646 0.00550047 0.00340005)
(1.20728 0.00592593 0.00350783)
(1.20711 0.00527241 0.00317773)
(1.20692 0.00540378 0.00348624)
(1.213 0.00749582 0.00349544)
(1.21176 0.00636738 0.00317118)
(1.21085 0.006202 0.00338265)
(1.21248 0.0053706 0.00305801)
(1.21143 0.00555693 0.00334332)
(1.21212 0.00557614 0.0026835)
(1.19996 -9.25656e-07 6.98405e-06)
(1.2 -1.19314e-05 1.28141e-05)
(1.19996 -4.09492e-06 6.98208e-06)
(1.19996 -6.09332e-06 6.87123e-06)
(1.19995 1.74266e-05 9.12416e-05)
(1.20002 -1.03373e-05 7.59936e-05)
(1.20003 4.08946e-06 0.000100595)
(1.19996 5.54823e-06 9.04656e-05)
(1.19995 -3.69164e-06 9.10556e-05)
(1.19983 5.18333e-05 0.000117303)
(1.20007 3.24723e-05 0.000116938)
(1.20008 3.86668e-05 0.000119115)
(1.19984 3.79232e-05 0.000116915)
(1.19984 3.53369e-05 0.000117643)
(1.20007 7.8901e-05 0.000142291)
(1.20012 5.85979e-05 0.000137793)
(1.20013 6.58252e-05 0.000146674)
(1.20008 5.91992e-05 0.000141061)
(1.20008 6.14377e-05 0.000142662)
(1.2002 0.000116579 0.000189584)
(1.20019 9.2419e-05 0.000181834)
(1.20022 0.000103306 0.0001966)
(1.20021 8.83428e-05 0.000187748)
(1.20021 9.66575e-05 0.000189499)
(1.20031 0.000173865 0.000264241)
(1.2003 0.00014278 0.000251999)
(1.20034 0.000157925 0.000274594)
(1.20033 0.000132424 0.000261046)
(1.20033 0.00014845 0.000264041)
(1.20048 0.000253436 0.000374264)
(1.20047 0.000211509 0.000355856)
(1.20052 0.000233575 0.000387903)
(1.2005 0.00019232 0.000368502)
(1.20051 0.000219081 0.000373109)
(1.20073 0.000373601 0.000527458)
(1.20071 0.000314447 0.000500854)
(1.20078 0.000346709 0.000545009)
(1.20076 0.000283571 0.000517839)
(1.20077 0.000325081 0.000524625)
(1.20109 0.000545959 0.000735802)
(1.20106 0.000461409 0.000697886)
(1.20118 0.000506935 0.000755672)
(1.20114 0.000413852 0.000718235)
(1.20115 0.000474282 0.000729258)
(1.20163 0.000717114 0.000975068)
(1.20163 0.000792874 0.00100179)
(1.20159 0.000670717 0.000949606)
(1.20176 0.000735196 0.00102105)
(1.2017 0.000599902 0.000970846)
(1.20171 0.000686152 0.000988379)
(1.20244 0.00102907 0.00128213)
(1.20243 0.00113371 0.00132313)
(1.20237 0.000960758 0.00125311)
(1.20261 0.00104746 0.00133483)
(1.20253 0.000857209 0.00127022)
(1.20253 0.000976139 0.00129756)
(1.20361 0.00144389 0.00161003)
(1.20359 0.00158548 0.00167383)
(1.20349 0.00134453 0.00158263)
(1.20384 0.00145579 0.00166182)
(1.20371 0.0011948 0.0015835)
(1.20371 0.00135355 0.00162661)
(1.2053 0.00194771 0.00187214)
(1.20525 0.00213838 0.00197071)
(1.20509 0.00181311 0.00186076)
(1.20558 0.00193136 0.00190416)
(1.20538 0.00159371 0.00182191)
(1.20536 0.00179892 0.00188851)
(1.20763 0.00231977 0.00186878)
(1.20761 0.00256535 0.00200584)
(1.2073 0.00219374 0.00190571)
(1.20792 0.00220289 0.00184735)
(1.20762 0.00187949 0.00179255)
(1.20758 0.00210654 0.00188708)
(1.21006 0.00153218 0.00133411)
(1.21052 0.00196674 0.00136582)
(1.20969 0.00164588 0.00144682)
(1.21018 0.00118383 0.00123323)
(1.21002 0.00142202 0.00120623)
(1.20984 0.00137297 0.00135191)
(1.19996 3.82944e-06 6.49913e-06)
(1.19996 3.98889e-06 6.31144e-06)
(1.2 8.03561e-06 1.15824e-05)
(1.19996 3.72579e-06 6.28848e-06)
(1.19996 3.80753e-06 6.06835e-06)
(1.19993 7.21152e-05 8.93494e-05)
(1.19993 7.28775e-05 8.76381e-05)
(1.20001 5.82967e-05 7.2304e-05)
(1.20002 8.34957e-05 9.82365e-05)
(1.19994 7.0128e-05 8.72453e-05)
(1.19994 7.15527e-05 8.50945e-05)
(1.19981 0.000124826 0.000124659)
(1.19981 0.000126512 0.000123591)
(1.20004 0.000120252 0.000121433)
(1.20005 0.000128751 0.000125183)
(1.19981 0.000120691 0.000121738)
(1.19981 0.000122987 0.00011992)
(1.20003 0.000175857 0.000154141)
(1.20003 0.000177392 0.000153338)
(1.20008 0.000167193 0.000147359)
(1.20009 0.0001826 0.000157638)
(1.20005 0.000170815 0.000150898)
(1.20005 0.000173413 0.000149305)
(1.20012 0.000251309 0.00020978)
(1.20012 0.000253284 0.000208927)
(1.20013 0.00023813 0.000198559)
(1.20015 0.000261398 0.000216081)
(1.20015 0.000243804 0.000204649)
(1.20015 0.000247024 0.000202629)
(1.2002 0.00036607 0.000301846)
(1.2002 0.000368367 0.000301256)
(1.2002 0.000346138 0.000283939)
(1.20023 0.000379882 0.000312171)
(1.20023 0.000354203 0.000293625)
(1.20023 0.000358426 0.000291349)
(1.20031 0.000535363 0.000443836)
(1.2003 0.000536931 0.000444397)
(1.20031 0.000504137 0.000416712)
(1.20035 0.000554149 0.00045952)
(1.20035 0.000516396 0.000429982)
(1.20035 0.000520925 0.000427948)
(1.20046 0.000781724 0.000654184)
(1.20046 0.000783054 0.000657369)
(1.20047 0.00073453 0.000614876)
(1.20052 0.000806674 0.000677177)
(1.20053 0.000751139 0.000632294)
(1.20053 0.00075661 0.000631381)
(1.20071 0.0011392 0.000963831)
(1.2007 0.00114023 0.000970891)
(1.20072 0.00106735 0.00090486)
(1.2008 0.00117047 0.000995707)
(1.20081 0.00108811 0.000926955)
(1.2008 0.0010952 0.000928022)
(1.2011 0.00164094 0.00140537)
(1.20109 0.00163949 0.00142073)
(1.20111 0.00153414 0.00132049)
(1.20123 0.00167494 0.00144813)
(1.20124 0.00155781 0.00134456)
(1.20123 0.00156468 0.00135054)
(1.2017 0.00231088 0.00201282)
(1.2017 0.00230419 0.0020429)
(1.20171 0.00215681 0.0018937)
(1.20191 0.00233682 0.00206598)
(1.2019 0.00217679 0.00191303)
(1.2019 0.00218086 0.00192967)
(1.20264 0.00314595 0.00285469)
(1.20267 0.00312174 0.00290393)
(1.20264 0.00292988 0.00267784)
(1.20294 0.00314165 0.00291955)
(1.20289 0.00293918 0.0026866)
(1.20291 0.00292841 0.00271732)
(1.20402 0.00410917 0.00409773)
(1.20412 0.00400883 0.00416464)
(1.20403 0.00380013 0.00380327)
(1.20448 0.00402654 0.00417202)
(1.20437 0.0038012 0.00378575)
(1.20443 0.00372996 0.00382956)
(1.20616 0.00539206 0.00633168)
(1.20647 0.00491042 0.00637946)
(1.20621 0.00477353 0.00565454)
(1.20703 0.00506774 0.00631522)
(1.20679 0.00481252 0.00551616)
(1.20688 0.00452796 0.00555367)
(1.2125 0.00742392 0.00997628)
(1.21347 0.00551615 0.00977892)
(1.21165 0.00569667 0.00842941)
(1.21444 0.00529429 0.00846821)
(1.21304 0.00528844 0.00720015)
(1.21256 0.0048386 0.00721015)
(1.19996 1.66802e-06 6.39209e-06)
(1.19996 2.36604e-06 6.21101e-06)
(1.2 3.32018e-06 1.13816e-05)
(1.19996 1.24624e-06 6.18563e-06)
(1.19996 1.64311e-06 5.96829e-06)
(1.19994 4.89602e-05 8.81529e-05)
(1.19994 5.41143e-05 8.63229e-05)
(1.20002 3.78639e-05 7.13019e-05)
(1.20003 5.80957e-05 9.62514e-05)
(1.19995 4.64706e-05 8.59813e-05)
(1.19995 4.85135e-05 8.3764e-05)
(1.19984 9.02035e-05 0.00011736)
(1.19984 9.54558e-05 0.000116354)
(1.20007 8.65814e-05 0.000114724)
(1.20008 9.35534e-05 0.000117946)
(1.19984 8.47001e-05 0.000114931)
(1.19984 8.8793e-05 0.000113133)
(1.20008 0.000132696 0.00014468)
(1.20008 0.00013853 0.00014379)
(1.20013 0.000125522 0.000138433)
(1.20015 0.000138052 0.000147522)
(1.20009 0.000124485 0.000141604)
(1.2001 0.000130507 0.00013988)
(1.20021 0.000191556 0.000193927)
(1.20021 0.000199404 0.000192891)
(1.20021 0.000181556 0.000183807)
(1.20024 0.000198983 0.000199399)
(1.20023 0.000179349 0.000189446)
(1.20023 0.000188107 0.000187295)
(1.20033 0.000278227 0.000274457)
(1.20033 0.000288851 0.000273463)
(1.20032 0.000263009 0.000258962)
(1.20036 0.000288815 0.000282934)
(1.20035 0.000260501 0.000267706)
(1.20036 0.000272462 0.000264972)
(1.20049 0.000406061 0.000392358)
(1.20049 0.000420805 0.000391681)
(1.20049 0.0003829 0.000369334)
(1.20054 0.000420274 0.000404816)
(1.20053 0.000378798 0.000381328)
(1.20053 0.000395695 0.000378029)
(1.20074 0.000587462 0.000565453)
(1.20074 0.000607694 0.000566713)
(1.20073 0.000553123 0.000533058)
(1.20081 0.000605611 0.000583373)
(1.20079 0.000546247 0.00054872)
(1.20079 0.000569448 0.000545885)
(1.2011 0.000842759 0.000806805)
(1.2011 0.000869769 0.000811058)
(1.20108 0.00079142 0.000760927)
(1.2012 0.000864131 0.000829629)
(1.20118 0.000779199 0.000778844)
(1.20117 0.000810514 0.000777107)
(1.20163 0.00119713 0.00113018)
(1.20163 0.00123159 0.00114157)
(1.2016 0.00112036 0.00106761)
(1.20177 0.00121887 0.00115836)
(1.20173 0.00109998 0.00108466)
(1.20173 0.00114018 0.00108685)
(1.2024 0.00166218 0.00154426)
(1.20239 0.00170251 0.00156814)
(1.20235 0.00155241 0.00146266)
(1.20258 0.00167633 0.0015749)
(1.20252 0.00151751 0.00147181)
(1.20253 0.00156579 0.00148226)
(1.20348 0.00224096 0.00205598)
(1.20348 0.00228039 0.0021007)
(1.20341 0.0020844 0.00194762)
(1.20373 0.00223093 0.0020828)
(1.20364 0.00202562 0.0019367)
(1.20364 0.00207689 0.00196135)
(1.20504 0.00291804 0.00264567)
(1.20503 0.00293643 0.00273248)
(1.2049 0.00268977 0.00250686)
(1.20536 0.00284321 0.0026478)
(1.2052 0.00258845 0.00244325)
(1.2052 0.00262873 0.00249533)
(1.20734 0.00354723 0.00316164)
(1.20738 0.00350613 0.00332006)
(1.20707 0.00322852 0.00300117)
(1.20775 0.00328167 0.00306503)
(1.20743 0.00304073 0.00280515)
(1.20742 0.00303218 0.00290294)
(1.21114 0.00288652 0.00288782)
(1.21056 0.00288297 0.00292382)
(1.21003 0.00274341 0.00285041)
(1.21081 0.00215924 0.00254822)
(1.21026 0.00225837 0.00252644)
(1.21051 0.00245282 0.00226299)
(1.19996 -6.18735e-06 6.25299e-06)
(1.19996 -9.57947e-07 6.09022e-06)
(1.2 -1.23523e-05 1.10601e-05)
(1.19996 -4.39573e-06 6.05407e-06)
(1.19996 -6.22388e-06 5.83367e-06)
(1.19995 -5.70169e-06 8.64397e-05)
(1.19995 1.50436e-05 8.47046e-05)
(1.20003 -1.25376e-05 7.00457e-05)
(1.20004 1.37964e-06 9.43685e-05)
(1.19996 3.53712e-06 8.42511e-05)
(1.19996 -6.0765e-06 8.2387e-05)
(1.19986 3.41352e-05 0.000113549)
(1.19986 4.9929e-05 0.000111993)
(1.20009 3.07372e-05 0.000111146)
(1.20011 3.67806e-05 0.000113939)
(1.19986 3.71817e-05 0.000111317)
(1.19986 3.34481e-05 0.000109442)
(1.20012 5.79678e-05 0.000138749)
(1.20012 7.43704e-05 0.000136963)
(1.20016 5.44775e-05 0.000132821)
(1.20018 6.07651e-05 0.000141063)
(1.20013 5.54845e-05 0.000135976)
(1.20013 5.69803e-05 0.00013377)
(1.20026 9.10333e-05 0.000183216)
(1.20027 0.000108605 0.000181362)
(1.20026 8.52171e-05 0.000173962)
(1.20029 9.53295e-05 0.000187935)
(1.20028 8.2471e-05 0.000179442)
(1.20028 8.91122e-05 0.000176832)
(1.20041 0.000137972 0.000255738)
(1.20042 0.000159168 0.000253601)
(1.2004 0.000129859 0.000241483)
(1.20045 0.000143048 0.000263006)
(1.20043 0.000121116 0.000250102)
(1.20043 0.000134471 0.000246616)
(1.20062 0.000202764 0.000361855)
(1.20063 0.000229702 0.00035881)
(1.20061 0.000190917 0.000341072)
(1.20067 0.000210442 0.000372636)
(1.20065 0.000174219 0.000353852)
(1.20065 0.000197801 0.000348621)
(1.20092 0.000296897 0.000510509)
(1.20093 0.00033137 0.000508199)
(1.2009 0.000279584 0.000482878)
(1.20099 0.000306018 0.000525078)
(1.20096 0.000251773 0.000499393)
(1.20096 0.000288083 0.00049318)
(1.20135 0.000421867 0.000706466)
(1.20136 0.000467796 0.000704876)
(1.20132 0.000396511 0.000669339)
(1.20144 0.000431803 0.000723609)
(1.2014 0.000354315 0.000688291)
(1.20141 0.00040527 0.000681121)
(1.20196 0.000594724 0.000953773)
(1.20197 0.000656272 0.00095461)
(1.20191 0.000556768 0.000905764)
(1.20209 0.000604913 0.000972866)
(1.20202 0.000496551 0.000926009)
(1.20203 0.000566107 0.000918352)
(1.20281 0.000821381 0.00124605)
(1.20282 0.000902051 0.00125248)
(1.20273 0.000767476 0.0011883)
(1.20298 0.000826962 0.00126287)
(1.20288 0.000682114 0.00120425)
(1.20289 0.000773137 0.00119809)
(1.20397 0.00109092 0.00154891)
(1.20398 0.00119078 0.00156569)
(1.20385 0.00101665 0.00148457)
(1.20419 0.00108248 0.00155385)
(1.20405 0.000897831 0.00148516)
(1.20406 0.00101039 0.00148324)
(1.20552 0.00136727 0.00177928)
(1.20551 0.00148209 0.00181591)
(1.20533 0.0012714 0.00172147)
(1.20576 0.0013239 0.00175464)
(1.20556 0.00110922 0.00168589)
(1.20556 0.00123728 0.00169428)
(1.20742 0.00148262 0.00175295)
(1.20742 0.00159635 0.00181305)
(1.20716 0.00139256 0.00173182)
(1.20764 0.00136171 0.00166872)
(1.20738 0.0011792 0.00163035)
(1.20737 0.00129998 0.00165256)
(1.20921 0.000902495 0.00122404)
(1.20939 0.00105543 0.0011975)
(1.20893 0.000950742 0.00127444)
(1.20925 0.000679191 0.00107212)
(1.20909 0.000798211 0.00106669)
(1.20901 0.00077188 0.00113108)
(1.19996 3.73848e-06 4.34064e-06)
(1.19996 3.90159e-06 3.51023e-06)
(1.2 7.85527e-06 6.07181e-06)
(1.19996 3.64216e-06 3.48019e-06)
(1.19996 3.70805e-06 2.93305e-06)
(1.19994 7.04719e-05 6.45961e-05)
(1.19994 7.14417e-05 5.81417e-05)
(1.20002 5.70509e-05 4.64777e-05)
(1.20003 8.15461e-05 6.66986e-05)
(1.19995 6.88304e-05 5.78437e-05)
(1.19995 7.00605e-05 5.56745e-05)
(1.19984 0.000118361 9.62315e-05)
(1.19984 0.000120432 9.05954e-05)
(1.20007 0.000114601 8.81064e-05)
(1.20009 0.000122278 9.27483e-05)
(1.19984 0.000114536 8.9212e-05)
(1.19985 0.000116976 8.51793e-05)
(1.20009 0.000166086 0.000125019)
(1.20009 0.000167801 0.000120461)
(1.20014 0.000157958 0.000115221)
(1.20015 0.000172457 0.000123569)
(1.2001 0.000161144 0.000118135)
(1.2001 0.000163756 0.000113533)
(1.20021 0.000235996 0.000166992)
(1.20021 0.000238273 0.000160832)
(1.20021 0.000224485 0.000153081)
(1.20023 0.000245263 0.00016656)
(1.20023 0.000229317 0.000157786)
(1.20023 0.000232944 0.000151002)
(1.20032 0.00033726 0.000239948)
(1.20032 0.000339589 0.000231961)
(1.20032 0.000319862 0.000218847)
(1.20035 0.000349521 0.000239892)
(1.20035 0.000326782 0.000225809)
(1.20035 0.000331097 0.000216581)
(1.20048 0.000482086 0.00035088)
(1.20048 0.000484295 0.000340121)
(1.20048 0.000456034 0.000318949)
(1.20052 0.000498581 0.000351865)
(1.20052 0.000466034 0.000329254)
(1.20052 0.000471201 0.000316729)
(1.20071 0.000689219 0.000519452)
(1.2007 0.000691382 0.000505261)
(1.2007 0.000650673 0.000472691)
(1.20078 0.000710135 0.000520449)
(1.20077 0.000663728 0.000486378)
(1.20076 0.000670308 0.00046916)
(1.20106 0.000975605 0.000757624)
(1.20105 0.000977241 0.000739205)
(1.20105 0.00091876 0.000689497)
(1.20116 0.000999563 0.000756815)
(1.20114 0.000933715 0.000705071)
(1.20113 0.000941429 0.000682112)
(1.20159 0.00135963 0.0010947)
(1.20159 0.00135988 0.00107158)
(1.20157 0.00127835 0.000996841)
(1.20173 0.00138252 0.00109044)
(1.2017 0.00129242 0.00101375)
(1.20169 0.00130174 0.000983959)
(1.20239 0.0018339 0.0015531)
(1.20239 0.00183081 0.00152621)
(1.20234 0.00172286 0.00141627)
(1.20259 0.0018438 0.00153958)
(1.20253 0.00172784 0.00142905)
(1.20252 0.00173666 0.00139286)
(1.20356 0.00235659 0.00213666)
(1.20358 0.00234414 0.00210414)
(1.20348 0.00221276 0.00195006)
(1.20384 0.00233095 0.00209897)
(1.20371 0.00219636 0.00194676)
(1.20373 0.00219912 0.00190192)
(1.20528 0.00279168 0.00281987)
(1.20534 0.00275322 0.00276553)
(1.20513 0.00262443 0.00256428)
(1.20564 0.00268697 0.00271581)
(1.20541 0.00256567 0.00252281)
(1.20544 0.00254888 0.00245943)
(1.20776 0.00284849 0.00340318)
(1.20785 0.00274185 0.00327716)
(1.20746 0.00268581 0.00306831)
(1.20816 0.00259669 0.00310789)
(1.20775 0.0025613 0.00292891)
(1.2078 0.00250024 0.00282851)
(1.21104 0.00198012 0.00290298)
(1.21107 0.00174712 0.00262596)
(1.21043 0.00192989 0.00267069)
(1.21114 0.00154009 0.00223242)
(1.21065 0.0016933 0.00225256)
(1.21058 0.00160691 0.00220366)
(1.19996 1.53618e-06 4.26749e-06)
(1.19996 2.26406e-06 3.39228e-06)
(1.2 2.99661e-06 5.82931e-06)
(1.19996 1.11465e-06 3.34293e-06)
(1.19996 1.48647e-06 2.82855e-06)
(1.19995 4.75304e-05 6.30279e-05)
(1.19995 5.30452e-05 5.64371e-05)
(1.20003 3.68541e-05 4.4917e-05)
(1.20004 5.63952e-05 6.46951e-05)
(1.19995 4.53301e-05 5.60027e-05)
(1.19995 4.7229e-05 5.43003e-05)
(1.19986 8.53934e-05 9.1428e-05)
(1.19986 9.05616e-05 8.56511e-05)
(1.2001 8.23633e-05 8.38989e-05)
(1.20012 8.87191e-05 8.74959e-05)
(1.19987 8.05709e-05 8.47063e-05)
(1.19987 8.44423e-05 8.12114e-05)
(1.20013 0.000124205 0.000115984)
(1.20013 0.000129905 0.000111254)
(1.20018 0.000117742 0.000106584)
(1.2002 0.000129104 0.000114157)
(1.20014 0.000116542 0.000109278)
(1.20014 0.000122227 0.000105007)
(1.20028 0.000178489 0.000154894)
(1.20028 0.000186245 0.000149184)
(1.20028 0.000169388 0.000142203)
(1.20031 0.000185403 0.000153968)
(1.2003 0.000167147 0.000146408)
(1.2003 0.000175709 0.000140299)
(1.20043 0.000256719 0.000217083)
(1.20043 0.000266945 0.000209097)
(1.20042 0.000243337 0.000198068)
(1.20047 0.000266249 0.00021625)
(1.20046 0.00024041 0.000204508)
(1.20046 0.000252124 0.000195472)
(1.20064 0.000367299 0.000311006)
(1.20064 0.000380872 0.00030108)
(1.20063 0.00034776 0.000283879)
(1.20069 0.000379797 0.000311302)
(1.20067 0.000343709 0.000293254)
(1.20067 0.000359462 0.000281463)
(1.20094 0.000520572 0.00044845)
(1.20093 0.000538752 0.000435227)
(1.20092 0.00049219 0.000409323)
(1.20101 0.000535537 0.000447294)
(1.20098 0.000485058 0.000420945)
(1.20098 0.000506275 0.000404768)
(1.20137 0.000724405 0.000634488)
(1.20137 0.000748992 0.000616939)
(1.20134 0.000684449 0.000579498)
(1.20147 0.000740804 0.000630935)
(1.20143 0.000671125 0.000592927)
(1.20143 0.000700373 0.000570953)
(1.20199 0.000989399 0.000882664)
(1.20199 0.00102026 0.000862294)
(1.20194 0.000932504 0.00080788)
(1.20213 0.0010038 0.000874551)
(1.20207 0.000910869 0.000820529)
(1.20206 0.000947605 0.000793663)
(1.20285 0.00131169 0.00119721)
(1.20285 0.00134621 0.00117569)
(1.20278 0.0012345 0.00109866)
(1.20303 0.00131508 0.00117984)
(1.20294 0.00119865 0.00110558)
(1.20294 0.00124155 0.00107495)
(1.20401 0.00165337 0.00155412)
(1.20402 0.00168579 0.00153389)
(1.2039 0.0015544 0.00143131)
(1.20424 0.00162865 0.00151543)
(1.2041 0.00149502 0.00141984)
(1.20411 0.00153929 0.0013869)
(1.20554 0.00192461 0.00189386)
(1.20556 0.001941 0.00187655)
(1.20538 0.00180722 0.00174853)
(1.2058 0.00184229 0.0018098)
(1.2056 0.00171225 0.0016992)
(1.20561 0.00174726 0.00166603)
(1.20746 0.00192113 0.00201118)
(1.20749 0.00190235 0.00199647)
(1.2072 0.00181282 0.00187566)
(1.20769 0.00173746 0.00183493)
(1.2074 0.00166475 0.00175168)
(1.20742 0.00167638 0.00172249)
(1.20937 0.00118576 0.00147404)
(1.20949 0.00114492 0.00137351)
(1.20905 0.00120694 0.00143446)
(1.2094 0.000910362 0.00119399)
(1.20916 0.00103841 0.00117774)
(1.20913 0.000990125 0.00120212)
(1.19996 -6.28884e-06 4.19248e-06)
(1.19996 -1.06572e-06 3.26577e-06)
(1.2 -1.27566e-05 5.60091e-06)
(1.19996 -4.42915e-06 3.25059e-06)
(1.19996 -6.30534e-06 2.74681e-06)
(1.19996 -6.78993e-06 6.24324e-05)
(1.19996 1.44184e-05 5.53339e-05)
(1.20003 -1.34959e-05 4.42742e-05)
(1.20005 4.77186e-07 6.37249e-05)
(1.19997 3.13103e-06 5.49815e-05)
(1.19996 -6.94229e-06 5.39071e-05)
(1.19988 3.11302e-05 8.84467e-05)
(1.19989 4.70023e-05 8.24306e-05)
(1.20012 2.80987e-05 8.12467e-05)
(1.20014 3.34012e-05 8.40826e-05)
(1.19989 3.46175e-05 8.16953e-05)
(1.19989 3.0376e-05 7.8486e-05)
(1.20016 5.39026e-05 0.000110098)
(1.20017 7.00155e-05 0.000104767)
(1.20021 5.03843e-05 0.000100968)
(1.20023 5.65567e-05 0.000107983)
(1.20017 5.25757e-05 0.000103706)
(1.20017 5.28414e-05 9.9546e-05)
(1.20033 8.355e-05 0.000145839)
(1.20033 0.000100892 0.00013973)
(1.20032 7.84654e-05 0.000133886)
(1.20036 8.73231e-05 0.000144769)
(1.20034 7.66347e-05 0.000138064)
(1.20034 8.18829e-05 0.000132178)
(1.2005 0.000125399 0.000202352)
(1.2005 0.00014603 0.000193911)
(1.20049 0.000118387 0.000184895)
(1.20054 0.000130503 0.00020151)
(1.20052 0.000110999 0.000191618)
(1.20052 0.000123104 0.00018248)
(1.20074 0.000184488 0.000286655)
(1.20075 0.000210089 0.000275707)
(1.20072 0.000174199 0.000262226)
(1.20079 0.000191335 0.00028591)
(1.20076 0.000159253 0.00027176)
(1.20077 0.000180538 0.000259254)
(1.20109 0.000264279 0.000404341)
(1.20109 0.000295707 0.000389027)
(1.20105 0.00025003 0.000369595)
(1.20116 0.000271614 0.000401733)
(1.20112 0.000225013 0.000382066)
(1.20112 0.000257311 0.000364339)
(1.20157 0.000361329 0.000557852)
(1.20158 0.000402464 0.000538357)
(1.20153 0.00034203 0.000511484)
(1.20167 0.000369016 0.000553033)
(1.20161 0.000304794 0.000526357)
(1.20162 0.000349321 0.000502646)
(1.20223 0.000490882 0.000750239)
(1.20224 0.00054356 0.000726283)
(1.20217 0.000462819 0.000690344)
(1.20236 0.000497729 0.000740157)
(1.20228 0.000411367 0.00070566)
(1.20229 0.000470247 0.000675324)
(1.20312 0.000645886 0.000972454)
(1.20313 0.000710942 0.000945598)
(1.20303 0.000608335 0.000898724)
(1.20328 0.000646217 0.000952571)
(1.20317 0.000537207 0.000910428)
(1.20318 0.00061071 0.000874713)
(1.20426 0.000802862 0.0011895)
(1.20427 0.000877649 0.00116184)
(1.20414 0.000755888 0.0011063)
(1.20445 0.000788943 0.00115168)
(1.20431 0.000661836 0.00110588)
(1.20432 0.000746906 0.00106567)
(1.20566 0.000914457 0.00133062)
(1.20566 0.000990434 0.00130692)
(1.20549 0.000862321 0.00124994)
(1.20586 0.000872945 0.00126299)
(1.20567 0.000744085 0.00122407)
(1.20568 0.000831633 0.00118375)
(1.20719 0.00087154 0.00125393)
(1.20719 0.000933991 0.00123897)
(1.20698 0.000833492 0.00120483)
(1.20734 0.000787785 0.00114373)
(1.20714 0.000696527 0.00113628)
(1.20713 0.000768908 0.00110335)
(1.20846 0.000485316 0.000800952)
(1.20849 0.000527968 0.000766935)
(1.20826 0.000514417 0.000816409)
(1.20848 0.000372098 0.000664275)
(1.20833 0.000408318 0.000701569)
(1.20831 0.000420023 0.000689929)
(1.19996 3.6833e-06 6.68375e-08)
(1.19996 3.90666e-06 -5.0129e-06)
(1.2 7.91215e-06 -9.72925e-06)
(1.19996 3.63491e-06 -5.04402e-06)
(1.19996 3.65164e-06 -2.52183e-06)
(1.19996 6.95207e-05 2.07892e-05)
(1.19995 7.14767e-05 5.54234e-06)
(1.20003 5.70187e-05 -1.8984e-06)
(1.20004 8.12998e-05 1.1747e-05)
(1.19996 6.85905e-05 5.00146e-06)
(1.19996 6.90681e-05 7.84362e-06)
(1.19986 0.000114308 4.81329e-05)
(1.19986 0.000117209 3.5404e-05)
(1.20009 0.000112028 3.30374e-05)
(1.20011 0.000118839 3.72512e-05)
(1.19987 0.000111718 3.46195e-05)
(1.19987 0.000113513 3.50335e-05)
(1.20013 0.000158765 6.91305e-05)
(1.20013 0.000162064 5.54876e-05)
(1.20017 0.000152154 5.22486e-05)
(1.20019 0.000165998 5.74235e-05)
(1.20014 0.000154752 5.41908e-05)
(1.20013 0.000157465 5.16805e-05)
(1.20027 0.000226064 9.36739e-05)
(1.20027 0.000228967 7.90561e-05)
(1.20027 0.000216243 7.48806e-05)
(1.2003 0.000235584 8.14536e-05)
(1.20029 0.000220832 7.71213e-05)
(1.20028 0.000224126 7.17892e-05)
(1.20041 0.000316669 0.00013159)
(1.2004 0.000320661 0.000113335)
(1.2004 0.000302596 0.000106242)
(1.20044 0.000329264 0.00011723)
(1.20043 0.000308325 0.000109538)
(1.20042 0.000312864 9.9719e-05)
(1.2006 0.000446766 0.000194688)
(1.20059 0.000451429 0.00017067)
(1.20059 0.000425895 0.000159481)
(1.20065 0.000464073 0.000176733)
(1.20064 0.000434907 0.000164939)
(1.20062 0.000441025 0.000148191)
(1.20089 0.000626948 0.000287134)
(1.20087 0.000632966 0.000255228)
(1.20086 0.000597468 0.000238436)
(1.20095 0.000648039 0.000262566)
(1.20093 0.000607709 0.00024521)
(1.20091 0.000616919 0.000219321)
(1.20131 0.000862662 0.000414687)
(1.20129 0.000870084 0.00037192)
(1.20126 0.000821168 0.000346888)
(1.20139 0.000887365 0.000380324)
(1.20136 0.000832393 0.000354211)
(1.20134 0.000844936 0.000315542)
(1.20192 0.00116837 0.000597374)
(1.2019 0.00117721 0.000540877)
(1.20186 0.00111177 0.000502341)
(1.20204 0.00119274 0.000550195)
(1.20199 0.00112064 0.000510922)
(1.20197 0.00113839 0.000454188)
(1.20281 0.00151437 0.000841498)
(1.2028 0.00152615 0.000765919)
(1.20272 0.00144431 0.000711719)
(1.20299 0.00152887 0.000770745)
(1.20289 0.0014416 0.000717062)
(1.20288 0.00146549 0.000638682)
(1.20407 0.00184388 0.00112485)
(1.20407 0.00185604 0.00102804)
(1.20393 0.00176493 0.00095651)
(1.2043 0.001831 0.00101922)
(1.20415 0.00173893 0.000950879)
(1.20415 0.0017667 0.000850611)
(1.20574 0.00202309 0.001389)
(1.20577 0.0020318 0.00127079)
(1.20555 0.00195263 0.00118951)
(1.20601 0.00195635 0.00123213)
(1.20578 0.00188502 0.00116025)
(1.2058 0.00191254 0.00104008)
(1.20775 0.00182961 0.00144837)
(1.2078 0.0018295 0.00132095)
(1.20749 0.00180438 0.00126492)
(1.20798 0.0016876 0.00122715)
(1.20767 0.00168054 0.00119096)
(1.20773 0.00169964 0.00106393)
(1.20962 0.00103876 0.000951028)
(1.20967 0.00103106 0.000852872)
(1.20933 0.00110974 0.000894301)
(1.20967 0.000844541 0.000701032)
(1.20938 0.000940556 0.000760343)
(1.20944 0.000946287 0.000671974)
(1.19996 1.37876e-06 6.16349e-08)
(1.19996 2.23726e-06 -5.10804e-06)
(1.2 2.72961e-06 -9.92789e-06)
(1.19996 1.03852e-06 -5.13906e-06)
(1.19996 1.34724e-06 -2.52112e-06)
(1.19996 4.65788e-05 1.94952e-05)
(1.19996 5.25337e-05 3.41418e-06)
(1.20003 3.62393e-05 -3.77905e-06)
(1.20005 5.56153e-05 9.64167e-06)
(1.19996 4.493e-05 2.92301e-06)
(1.19997 4.61907e-05 6.54326e-06)
(1.19989 8.25187e-05 4.59223e-05)
(1.19989 8.82099e-05 3.26391e-05)
(1.20012 8.03756e-05 3.06054e-05)
(1.20014 8.59825e-05 3.42968e-05)
(1.19989 7.83183e-05 3.20739e-05)
(1.19989 8.19434e-05 3.33911e-05)
(1.20017 0.000117847 6.44223e-05)
(1.20017 0.000124195 5.07493e-05)
(1.20021 0.000112547 4.78016e-05)
(1.20023 0.000123345 5.26763e-05)
(1.20018 0.000111296 4.97301e-05)