/*--------------------------------*- C++ -*----------------------------------*\
| =========                 |                                                 |
| \\      /  F ield         | OpenFOAM: The Open Source CFD Toolbox           |
|  \\    /   O peration     | Version:  2012                                  |
|   \\  /    A nd           | Website:  www.openfoam.com                      |
|    \\/     M anipulation  |                                                 |
\*---------------------------------------------------------------------------*/
FoamFile
{
    version     2.0;
    format      ascii;
    class       surfaceVectorField;
    location    "0.106/fluid";
    object      Uf_0;
}
// * * * * * * * * * * * * * * * * * * * * * * * * * * * * * * * * * * * * * //

dimensions      [0 1 -1 0 0 0 0];


internalField   nonuniform List<vector> 
47046
(
(1.19996 3.92266e-06 7.31296e-06)
(1.2 8.09809e-06 1.3568e-05)
(1.19996 3.67907e-06 7.27923e-06)
(1.19996 3.75007e-06 7.25408e-06)
(1.19992 7.60714e-05 9.63307e-05)
(1.20001 6.06606e-05 8.04067e-05)
(1.20001 8.69339e-05 0.000106353)
(1.19992 7.2776e-05 9.56932e-05)
(1.19992 7.42592e-05 9.58018e-05)
(1.19977 0.000133209 0.000127085)
(1.20002 0.000126942 0.000125397)
(1.20002 0.000136112 0.000128876)
(1.19978 0.000127917 0.000125558)
(1.19978 0.000130145 0.000127255)
(1.19997 0.000187008 0.000158022)
(1.20003 0.000176205 0.000151929)
(1.20003 0.000192835 0.000162532)
(1.19999 0.000180252 0.000155595)
(1.19999 0.000182906 0.000157685)
(1.20003 0.000271894 0.000217234)
(1.20005 0.000255098 0.000206083)
(1.20006 0.000280956 0.000224703)
(1.20006 0.000261539 0.000212592)
(1.20006 0.000265 0.000215857)
(1.20006 0.000401236 0.000313805)
(1.20008 0.000376062 0.000295612)
(1.20009 0.000414847 0.000325239)
(1.2001 0.00038562 0.000305593)
(1.2001 0.000390266 0.000311173)
(1.2001 0.000596777 0.000461955)
(1.20013 0.000558865 0.00043383)
(1.20014 0.000617382 0.000477651)
(1.20016 0.000573654 0.000447648)
(1.20016 0.000579428 0.000457039)
(1.20016 0.000889971 0.000685539)
(1.2002 0.000832053 0.000640409)
(1.20023 0.000919069 0.00070731)
(1.20026 0.000852571 0.000659415)
(1.20025 0.0008602 0.000675028)
(1.20028 0.00132778 0.00102136)
(1.20033 0.00123892 0.000951352)
(1.20037 0.00136814 0.00104825)
(1.20042 0.00126729 0.000974984)
(1.2004 0.00127719 0.00100126)
(1.20048 0.00196589 0.00149857)
(1.20054 0.00183356 0.00139221)
(1.20062 0.00201812 0.00152804)
(1.20067 0.00186993 0.00141745)
(1.20066 0.00188113 0.00146207)
(1.20083 0.00286569 0.0021838)
(1.20091 0.00267231 0.00201884)
(1.20103 0.00292586 0.00221401)
(1.2011 0.00271342 0.00204361)
(1.20108 0.0027241 0.00211548)
(1.20143 0.00408557 0.003029)
(1.2014 0.00406427 0.00316734)
(1.2015 0.00380374 0.00291317)
(1.20168 0.00413978 0.00319284)
(1.20177 0.0038545 0.0029279)
(1.20174 0.00384581 0.00304598)
(1.20203 0.00580719 0.00441666)
(1.202 0.00566196 0.0046689)
(1.20221 0.00535265 0.00424555)
(1.20233 0.00588301 0.00469989)
(1.20257 0.00548388 0.00423843)
(1.20253 0.00537606 0.00446497)
(1.20099 0.00923764 0.00760984)
(1.20152 0.0099646 0.00684261)
(1.20211 0.00869808 0.00665028)
(1.20173 0.0106237 0.00760002)
(1.20255 0.00887142 0.0072321)
(1.20305 0.0092564 0.00651942)
(1.19816 0.036547 0.0140639)
(1.20708 0.0304276 0.0106472)
(1.20375 0.0249522 0.0110789)
(1.21337 0.036572 0.0111726)
(1.20717 0.0259728 0.0134392)
(1.21024 0.0233878 0.00959013)
(1.19996 2.38591e-06 7.16308e-06)
(1.2 3.45029e-06 1.32392e-05)
(1.19996 1.27941e-06 7.14019e-06)
(1.19996 1.63275e-06 7.09843e-06)
(1.19993 5.63085e-05 9.40316e-05)
(1.20001 3.96834e-05 7.85108e-05)
(1.20002 6.05995e-05 0.000103577)
(1.19993 4.86276e-05 9.34581e-05)
(1.19993 5.0634e-05 9.38539e-05)
(1.1998 0.000101733 0.000121171)
(1.20004 9.21364e-05 0.000119974)
(1.20005 9.97914e-05 0.000122586)
(1.19981 9.01555e-05 0.000119813)
(1.19981 9.47184e-05 0.0001209)
(1.20003 0.000147305 0.00014878)
(1.20008 0.000133536 0.000143268)
(1.2001 0.000146932 0.000152912)
(1.20005 0.000132307 0.000146789)
(1.20005 0.000138996 0.000148546)
(1.20013 0.000213807 0.000200513)
(1.20014 0.000194507 0.000191133)
(1.20015 0.000213876 0.000207329)
(1.20015 0.000192588 0.00019721)
(1.20015 0.000201998 0.00019969)
(1.20021 0.00031384 0.000283755)
(1.20022 0.000285178 0.000268549)
(1.20024 0.000314504 0.000293892)
(1.20024 0.000283015 0.000277739)
(1.20024 0.000296036 0.000282101)
(1.20033 0.000466048 0.000409763)
(1.20033 0.000422826 0.00038652)
(1.20037 0.00046622 0.000423402)
(1.20037 0.000418883 0.000399136)
(1.20037 0.000438167 0.000405955)
(1.2005 0.000687475 0.000590601)
(1.20051 0.000623678 0.000555345)
(1.20057 0.0006872 0.000608063)
(1.20057 0.000617451 0.000571407)
(1.20057 0.000644261 0.000583039)
(1.20077 0.00101334 0.000850378)
(1.20078 0.000918518 0.000796687)
(1.20087 0.00101117 0.000869983)
(1.20087 0.000908027 0.000815587)
(1.20087 0.00094525 0.000835541)
(1.20118 0.00148361 0.00120194)
(1.20119 0.0013448 0.00112337)
(1.20133 0.00147603 0.00122015)
(1.20132 0.00132647 0.00114146)
(1.20131 0.00137738 0.00117438)
(1.20184 0.00207639 0.00160102)
(1.20181 0.00213494 0.0016691)
(1.20182 0.00193763 0.00155276)
(1.20202 0.00211708 0.00167845)
(1.202 0.00190534 0.00156397)
(1.20198 0.0019712 0.00161732)
(1.2028 0.00296082 0.00216268)
(1.20274 0.00303024 0.0022748)
(1.20275 0.0027499 0.00210151)
(1.20304 0.0029983 0.00225748)
(1.20301 0.00269664 0.0020909)
(1.20298 0.00277681 0.00218002)
(1.20426 0.00422832 0.00282598)
(1.20415 0.00431425 0.00302608)
(1.20414 0.0038918 0.00276127)
(1.2046 0.00425073 0.00293468)
(1.20453 0.00379305 0.00269269)
(1.20446 0.00389473 0.00285121)
(1.20679 0.00603944 0.00341324)
(1.20665 0.00624601 0.00380304)
(1.20646 0.00551458 0.00340518)
(1.20728 0.00594311 0.00351376)
(1.20711 0.00528641 0.00318265)
(1.20692 0.00541859 0.00349246)
(1.21303 0.00752382 0.00350435)
(1.21177 0.00638917 0.00317852)
(1.21087 0.00622368 0.00339055)
(1.2125 0.00538789 0.00306587)
(1.21144 0.00557607 0.00335196)
(1.21214 0.00559447 0.00268974)
(1.19996 -9.83324e-07 7.03024e-06)
(1.2 -1.19795e-05 1.28585e-05)
(1.19996 -4.13626e-06 7.0287e-06)
(1.19996 -6.14023e-06 6.9192e-06)
(1.19994 1.74844e-05 9.14056e-05)
(1.20002 -1.02779e-05 7.61646e-05)
(1.20003 4.15486e-06 0.000100709)
(1.19995 5.61097e-06 9.06298e-05)
(1.19994 -3.6149e-06 9.1222e-05)
(1.19983 5.18043e-05 0.000117285)
(1.20007 3.24587e-05 0.00011691)
(1.20008 3.86531e-05 0.000119109)
(1.19984 3.7907e-05 0.000116898)
(1.19983 3.53228e-05 0.000117627)
(1.20007 7.88662e-05 0.000142315)
(1.20012 5.85756e-05 0.000137815)
(1.20013 6.58014e-05 0.0001467)
(1.20008 5.91715e-05 0.000141085)
(1.20008 6.14139e-05 0.000142686)
(1.2002 0.00011654 0.000189628)
(1.20019 9.23934e-05 0.000181876)
(1.20022 0.00010328 0.000196648)
(1.20021 8.83142e-05 0.000187795)
(1.20021 9.66325e-05 0.000189546)
(1.20031 0.000173814 0.000264317)
(1.2003 0.000142745 0.000252072)
(1.20034 0.000157883 0.000274675)
(1.20033 0.000132386 0.000261124)
(1.20033 0.000148413 0.00026412)
(1.20048 0.000253372 0.000374388)
(1.20047 0.000211459 0.000355973)
(1.20052 0.000233526 0.000388035)
(1.2005 0.000192273 0.000368627)
(1.20051 0.000219032 0.000373237)
(1.20073 0.000373539 0.000527671)
(1.20071 0.000314396 0.000501053)
(1.20078 0.000346657 0.000545238)
(1.20076 0.000283527 0.000518054)
(1.20077 0.00032503 0.000524844)
(1.20109 0.000545922 0.00073616)
(1.20106 0.00046137 0.000698222)
(1.20118 0.000506911 0.000756051)
(1.20114 0.000413827 0.000718592)
(1.20115 0.000474249 0.000729625)
(1.20163 0.000717192 0.000975617)
(1.20163 0.00079296 0.00100236)
(1.20159 0.000670773 0.000950144)
(1.20176 0.000735298 0.00102166)
(1.2017 0.000599977 0.000971413)
(1.20171 0.000686226 0.000988969)
(1.20244 0.00102946 0.00128296)
(1.20243 0.00113414 0.00132402)
(1.20237 0.00096109 0.00125394)
(1.20261 0.00104791 0.00133576)
(1.20252 0.000857563 0.00127109)
(1.20253 0.000976517 0.00129848)
(1.20361 0.0014451 0.00161126)
(1.20359 0.00158683 0.00167517)
(1.20349 0.00134559 0.00158388)
(1.20384 0.00145715 0.00166319)
(1.20371 0.00119585 0.00158478)
(1.2037 0.00135471 0.001628)
(1.2053 0.00195066 0.00187387)
(1.20525 0.00214169 0.00197267)
(1.20509 0.00181573 0.00186255)
(1.20558 0.00193452 0.00190609)
(1.20538 0.00159618 0.0018237)
(1.20536 0.00180171 0.00189051)
(1.20763 0.00232499 0.00187096)
(1.20761 0.00257134 0.00200843)
(1.2073 0.00219856 0.00190801)
(1.20792 0.00220808 0.00184972)
(1.20762 0.00188364 0.00179476)
(1.20758 0.00211138 0.0018896)
(1.21007 0.00153597 0.00133615)
(1.21053 0.00197158 0.00136809)
(1.2097 0.00165004 0.00144899)
(1.21019 0.00118658 0.00123517)
(1.21003 0.00142521 0.00120812)
(1.20985 0.00137637 0.00135403)
(1.19996 3.67851e-06 6.53609e-06)
(1.19996 3.83376e-06 6.34745e-06)
(1.2 7.8988e-06 1.16167e-05)
(1.19996 3.58158e-06 6.32656e-06)
(1.19996 3.65868e-06 6.1049e-06)
(1.19993 7.21463e-05 8.95192e-05)
(1.19993 7.29064e-05 8.78076e-05)
(1.20001 5.8312e-05 7.24766e-05)
(1.20002 8.35016e-05 9.83602e-05)
(1.19993 7.01616e-05 8.7416e-05)
(1.19993 7.15849e-05 8.52631e-05)
(1.1998 0.000124718 0.000124639)
(1.1998 0.000126403 0.00012357)
(1.20004 0.00012014 0.000121406)
(1.20005 0.000128654 0.000125172)
(1.19981 0.000120587 0.00012172)
(1.19981 0.000122882 0.000119902)
(1.20003 0.000175775 0.000154156)
(1.20003 0.000177309 0.000153352)
(1.20008 0.000167114 0.000147371)
(1.20009 0.000182517 0.000157656)
(1.20005 0.000170737 0.000150914)
(1.20005 0.000173333 0.00014932)
(1.20012 0.000251217 0.000209816)
(1.20012 0.000253191 0.000208963)
(1.20013 0.000238039 0.000198591)
(1.20015 0.000261306 0.000216121)
(1.20015 0.000243716 0.000204686)
(1.20015 0.000246934 0.000202665)
(1.2002 0.000365944 0.000301917)
(1.2002 0.00036824 0.000301324)
(1.2002 0.000346019 0.000284005)
(1.20023 0.000379753 0.000312245)
(1.20023 0.000354082 0.000293696)
(1.20023 0.000358303 0.000291418)
(1.20031 0.000535195 0.000443959)
(1.2003 0.000536758 0.000444518)
(1.20031 0.000503977 0.000416826)
(1.20035 0.000553975 0.000459651)
(1.20035 0.000516238 0.000430105)
(1.20035 0.00052076 0.000428071)
(1.20046 0.000781497 0.000654399)
(1.20046 0.00078282 0.000657579)
(1.20047 0.000734313 0.000615075)
(1.20052 0.000806443 0.000677409)
(1.20053 0.000750927 0.000632511)
(1.20053 0.00075639 0.000631596)
(1.20071 0.00113891 0.000964228)
(1.2007 0.00113993 0.000971283)
(1.20072 0.00106708 0.000905229)
(1.2008 0.00117018 0.000996134)
(1.20081 0.00108785 0.000927354)
(1.2008 0.00109492 0.000928418)
(1.2011 0.0016406 0.00140609)
(1.20109 0.0016391 0.00142144)
(1.20111 0.00153381 0.00132116)
(1.20123 0.0016746 0.00144891)
(1.20124 0.00155753 0.00134528)
(1.20123 0.00156435 0.00135127)
(1.2017 0.00231058 0.00201416)
(1.2017 0.00230378 0.00204425)
(1.20171 0.00215649 0.00189494)
(1.20191 0.00233655 0.00206745)
(1.2019 0.0021766 0.00191437)
(1.2019 0.00218056 0.00193103)
(1.20264 0.00314616 0.00285754)
(1.20266 0.00312166 0.00290682)
(1.20264 0.00292995 0.00268045)
(1.20294 0.00314196 0.00292275)
(1.20289 0.00293959 0.00268941)
(1.20291 0.00292854 0.0027202)
(1.20402 0.0041116 0.00410472)
(1.20412 0.00401044 0.00417173)
(1.20403 0.00380191 0.00380944)
(1.20447 0.00402924 0.00417985)
(1.20436 0.0038039 0.00379233)
(1.20443 0.00373188 0.00383635)
(1.20615 0.00540349 0.0063515)
(1.20646 0.004919 0.00639954)
(1.2062 0.00478174 0.00567104)
(1.20702 0.0050792 0.00633634)
(1.20678 0.00482308 0.00553298)
(1.20688 0.00453613 0.00557095)
(1.21252 0.00746056 0.0100219)
(1.21349 0.00554359 0.00982456)
(1.21166 0.00572171 0.00846581)
(1.21447 0.00532158 0.00850374)
(1.21306 0.00531386 0.00723015)
(1.21258 0.0048596 0.00724159)
(1.19996 1.56635e-06 6.43697e-06)
(1.19996 2.25825e-06 6.25489e-06)
(1.2 3.22764e-06 1.14235e-05)
(1.19996 1.15338e-06 6.23112e-06)
(1.19996 1.54304e-06 6.01232e-06)
(1.19994 4.90176e-05 8.83254e-05)
(1.19994 5.41612e-05 8.64952e-05)
(1.20002 3.79091e-05 7.1478e-05)
(1.20003 5.81292e-05 9.63744e-05)
(1.19994 4.65172e-05 8.6154e-05)
(1.19994 4.85713e-05 8.39345e-05)
(1.19983 9.01371e-05 0.000117347)
(1.19983 9.53783e-05 0.000116342)
(1.20007 8.65097e-05 0.000114702)
(1.20008 9.34962e-05 0.000117946)
(1.19984 8.46346e-05 0.000114921)
(1.19984 8.87285e-05 0.000113124)
(1.20008 0.000132644 0.000144702)
(1.20008 0.000138474 0.00014381)
(1.20013 0.000125473 0.000138453)
(1.20015 0.000137999 0.000147546)
(1.20009 0.000124436 0.000141625)
(1.2001 0.000130457 0.000139901)
(1.20021 0.000191488 0.000193973)
(1.20021 0.000199333 0.000192935)
(1.20021 0.00018149 0.000183849)
(1.20024 0.000198914 0.000199448)
(1.20023 0.000179284 0.000189492)
(1.20023 0.000188041 0.00018734)
(1.20033 0.00027814 0.000274535)
(1.20033 0.00028876 0.000273539)
(1.20032 0.000262926 0.000259035)
(1.20036 0.000288728 0.000283013)
(1.20035 0.000260422 0.000267784)
(1.20035 0.000272377 0.000265048)
(1.20049 0.00040595 0.00039249)
(1.20049 0.00042069 0.000391811)
(1.20049 0.000382794 0.000369455)
(1.20054 0.00042016 0.000404959)
(1.20053 0.000378695 0.00038146)
(1.20053 0.000395587 0.00037816)
(1.20074 0.000587328 0.000565685)
(1.20074 0.00060755 0.000566943)
(1.20073 0.000552991 0.000533274)
(1.20081 0.000605476 0.000583621)
(1.20079 0.000546125 0.000548952)
(1.20079 0.000569315 0.000546116)
(1.2011 0.000842631 0.00080721)
(1.2011 0.000869625 0.000811462)
(1.20108 0.000791287 0.000761304)
(1.2012 0.000864009 0.000830062)
(1.20117 0.000779085 0.000779246)
(1.20117 0.000810384 0.00077751)
(1.20163 0.00119711 0.00113089)
(1.20163 0.00123153 0.00114228)
(1.2016 0.00112031 0.00106828)
(1.20177 0.00121887 0.00115912)
(1.20173 0.00109997 0.00108536)
(1.20173 0.00114014 0.00108756)
(1.2024 0.00166248 0.00154549)
(1.20239 0.00170277 0.0015694)
(1.20235 0.00155263 0.00146381)
(1.20258 0.00167669 0.00157623)
(1.20252 0.00151783 0.00147302)
(1.20252 0.00156605 0.0014835)
(1.20348 0.00224228 0.00205824)
(1.20348 0.0022816 0.00210306)
(1.20341 0.00208547 0.00194972)
(1.20373 0.00223237 0.00208526)
(1.20364 0.00202687 0.00193888)
(1.20364 0.00207804 0.00196363)
(1.20503 0.00292198 0.00264994)
(1.20503 0.00294015 0.00273705)
(1.2049 0.00269299 0.00251079)
(1.20536 0.00284729 0.00265238)
(1.2052 0.00259196 0.00244719)
(1.2052 0.00263204 0.00249954)
(1.20734 0.00355624 0.0031691)
(1.20738 0.00351485 0.00332832)
(1.20707 0.00323594 0.003008)
(1.20775 0.0032902 0.00307255)
(1.20744 0.00304806 0.00281155)
(1.20743 0.00303933 0.00290991)
(1.21116 0.00289643 0.00289571)
(1.21058 0.00289225 0.00293134)
(1.21005 0.00275208 0.00285781)
(1.21082 0.00216574 0.00255413)
(1.21027 0.00226522 0.00253276)
(1.21053 0.00246016 0.00226844)
(1.19996 -6.23262e-06 6.30292e-06)
(1.19996 -1.01244e-06 6.13923e-06)
(1.2 -1.23992e-05 1.11068e-05)
(1.19996 -4.4347e-06 6.10396e-06)
(1.19996 -6.26828e-06 5.88252e-06)
(1.19995 -5.62504e-06 8.66139e-05)
(1.19995 1.51016e-05 8.48788e-05)
(1.20003 -1.24783e-05 7.02254e-05)
(1.20004 1.44756e-06 9.44932e-05)
(1.19996 3.59982e-06 8.44257e-05)
(1.19995 -5.99937e-06 8.256e-05)
(1.19985 3.41247e-05 0.00011354)
(1.19986 4.99047e-05 0.000111985)
(1.20009 3.07306e-05 0.000111127)
(1.20011 3.67698e-05 0.000113942)
(1.19986 3.71703e-05 0.00011131)
(1.19986 3.34382e-05 0.000109435)
(1.20012 5.79436e-05 0.000138775)
(1.20012 7.43365e-05 0.000136988)
(1.20016 5.4455e-05 0.000132845)
(1.20018 6.07415e-05 0.000141091)
(1.20013 5.54551e-05 0.000136002)
(1.20013 5.69571e-05 0.000133795)
(1.20026 9.10125e-05 0.000183265)
(1.20027 0.000108572 0.00018141)
(1.20026 8.5197e-05 0.000174006)
(1.20029 9.53078e-05 0.000187988)
(1.20028 8.24482e-05 0.000179491)
(1.20028 8.9092e-05 0.00017688)
(1.20041 0.000137937 0.000255821)
(1.20041 0.000159122 0.000253683)
(1.2004 0.000129826 0.000241562)
(1.20045 0.000143012 0.000263092)
(1.20043 0.00012108 0.000250186)
(1.20043 0.000134437 0.000246698)
(1.20062 0.000202722 0.000361995)
(1.20063 0.000229645 0.00035895)
(1.20061 0.000190876 0.000341203)
(1.20067 0.0002104 0.000372786)
(1.20065 0.000174177 0.000353994)
(1.20065 0.000197762 0.000348761)
(1.20092 0.000296846 0.000510742)
(1.20093 0.000331307 0.00050843)
(1.2009 0.000279534 0.000483095)
(1.20099 0.000305964 0.000525325)
(1.20096 0.000251727 0.000499624)
(1.20096 0.000288031 0.000493411)
(1.20135 0.000421827 0.000706858)
(1.20135 0.000467748 0.000705267)
(1.20131 0.000396465 0.000669705)
(1.20144 0.00043177 0.000724026)
(1.20139 0.000354281 0.00068868)
(1.20141 0.000405228 0.000681509)
(1.20196 0.000594778 0.000954431)
(1.20197 0.000656324 0.000955272)
(1.20191 0.000556801 0.00090638)
(1.20209 0.000604981 0.000973566)
(1.20202 0.000496599 0.000926662)
(1.20203 0.000566151 0.000919008)
(1.20281 0.000821678 0.00124711)
(1.20282 0.000902366 0.00125356)
(1.20273 0.000767717 0.00118931)
(1.20298 0.000827292 0.00126399)
(1.20288 0.000682369 0.0012053)
(1.20289 0.000773402 0.00119915)
(1.20397 0.00109181 0.00155057)
(1.20398 0.00119172 0.00156741)
(1.20386 0.0010174 0.00148615)
(1.20419 0.00108342 0.0015556)
(1.20405 0.000898569 0.00148678)
(1.20406 0.00101117 0.0014849)
(1.20552 0.00136931 0.0017817)
(1.20551 0.00148426 0.00181848)
(1.20533 0.00127315 0.00172379)
(1.20576 0.00132597 0.00175713)
(1.20556 0.00111085 0.00168819)
(1.20556 0.00123904 0.00169669)
(1.20743 0.00148592 0.00175585)
(1.20742 0.00159989 0.00181622)
(1.20716 0.00139549 0.00173466)
(1.20764 0.00136478 0.00167153)
(1.20739 0.00118171 0.001633)
(1.20737 0.00130275 0.00165537)
(1.20922 0.000904666 0.00122588)
(1.2094 0.00105786 0.00119945)
(1.20894 0.000953045 0.00127641)
(1.20926 0.000680717 0.00107354)
(1.2091 0.00079988 0.00106827)
(1.20901 0.000773687 0.00113271)
(1.19996 3.59483e-06 4.37422e-06)
(1.19996 3.75343e-06 3.5416e-06)
(1.2 7.72514e-06 6.1011e-06)
(1.19996 3.50492e-06 3.51287e-06)
(1.19996 3.56571e-06 2.96449e-06)
(1.19994 7.05072e-05 6.4748e-05)
(1.19994 7.14743e-05 5.82907e-05)
(1.20002 5.70713e-05 4.66245e-05)
(1.20003 8.15539e-05 6.68145e-05)
(1.19994 6.88683e-05 5.79944e-05)
(1.19994 7.00969e-05 5.581e-05)
(1.19983 0.00011826 9.62304e-05)
(1.19983 0.000120329 9.06016e-05)
(1.20007 0.000114492 8.8107e-05)
(1.20009 0.000122188 9.27626e-05)
(1.19984 0.000114438 8.92194e-05)
(1.19984 0.000116877 8.51821e-05)
(1.20009 0.000166012 0.000125036)
(1.20009 0.000167726 0.00012048)
(1.20014 0.000157885 0.000115243)
(1.20015 0.000172383 0.000123588)
(1.2001 0.000161074 0.000118156)
(1.2001 0.000163684 0.000113551)
(1.20021 0.00023591 0.000167025)
(1.20021 0.000238184 0.000160863)
(1.20021 0.000224401 0.000153108)
(1.20023 0.000245174 0.000166597)
(1.20023 0.000229234 0.000157818)
(1.20023 0.000232859 0.00015103)
(1.20032 0.000337144 0.000240006)
(1.20032 0.000339471 0.000232016)
(1.20032 0.000319751 0.0002189)
(1.20035 0.000349401 0.000239951)
(1.20035 0.000326671 0.000225866)
(1.20035 0.000330983 0.000216634)
(1.20048 0.000481929 0.00035099)
(1.20048 0.000484136 0.000340225)
(1.20047 0.000455883 0.000319047)
(1.20052 0.000498422 0.000351979)
(1.20052 0.000465886 0.000329362)
(1.20052 0.000471048 0.000316831)
(1.20071 0.000689013 0.000519646)
(1.2007 0.00069117 0.000505444)
(1.2007 0.000650477 0.000472866)
(1.20078 0.000709924 0.000520646)
(1.20077 0.000663534 0.000486564)
(1.20076 0.000670106 0.000469337)
(1.20106 0.000975344 0.000757973)
(1.20105 0.000976968 0.000739535)
(1.20105 0.000918507 0.000689804)
(1.20116 0.000999299 0.000757177)
(1.20114 0.000933473 0.000705407)
(1.20113 0.000941173 0.000682431)
(1.20159 0.00135932 0.00109535)
(1.20159 0.00135955 0.0010722)
(1.20157 0.00127805 0.000997419)
(1.20173 0.00138221 0.00109112)
(1.2017 0.00129216 0.00101438)
(1.20169 0.00130144 0.000984558)
(1.20239 0.0018336 0.00155434)
(1.20239 0.00183043 0.00152739)
(1.20234 0.00172255 0.00141736)
(1.20259 0.0018435 0.00154087)
(1.20253 0.00172761 0.00143023)
(1.20252 0.00173635 0.00139399)
(1.20356 0.00235651 0.00213909)
(1.20358 0.0023439 0.00210645)
(1.20348 0.00221262 0.00195218)
(1.20384 0.0023309 0.00210149)
(1.20371 0.00219639 0.00194903)
(1.20373 0.002199 0.00190409)
(1.20528 0.00279242 0.0028248)
(1.20534 0.00275356 0.00277018)
(1.20513 0.0026249 0.00256848)
(1.20564 0.00268772 0.00272076)
(1.20541 0.00256652 0.00252721)
(1.20544 0.00254937 0.00246361)
(1.20776 0.00285112 0.0034122)
(1.20785 0.00274361 0.00328554)
(1.20746 0.00268771 0.00307587)
(1.20817 0.00259905 0.00311623)
(1.20776 0.00256378 0.00293643)
(1.20781 0.00250201 0.00283549)
(1.21105 0.00198441 0.00291206)
(1.21108 0.00175016 0.00263418)
(1.21044 0.00193317 0.00267883)
(1.21115 0.00154326 0.00223888)
(1.21066 0.00169676 0.00225921)
(1.21059 0.00160962 0.00220977)
(1.19996 1.43956e-06 4.30639e-06)
(1.19996 2.16161e-06 3.42868e-06)
(1.2 2.9085e-06 5.86313e-06)
(1.19996 1.02627e-06 3.3801e-06)
(1.19996 1.39062e-06 2.86491e-06)
(1.19994 4.75901e-05 6.3184e-05)
(1.19994 5.30947e-05 5.65916e-05)
(1.20003 3.69031e-05 4.50682e-05)
(1.20004 5.64294e-05 6.48159e-05)
(1.19995 4.5379e-05 5.61583e-05)
(1.19995 4.72901e-05 5.44391e-05)
(1.19986 8.53326e-05 9.14292e-05)
(1.19986 9.04888e-05 8.56598e-05)
(1.2001 8.22954e-05 8.39014e-05)
(1.20012 8.86659e-05 8.75124e-05)
(1.19987 8.05085e-05 8.47153e-05)
(1.19987 8.43817e-05 8.12151e-05)
(1.20013 0.000124157 0.000116006)
(1.20013 0.000129852 0.00011128)
(1.20018 0.000117696 0.000106611)
(1.2002 0.000129056 0.000114184)
(1.20014 0.000116496 0.000109305)
(1.20014 0.000122181 0.00010503)
(1.20028 0.000178429 0.000154933)
(1.20028 0.000186182 0.000149221)
(1.20028 0.00016933 0.000142239)
(1.20031 0.000185342 0.000154009)
(1.2003 0.00016709 0.000146447)
(1.2003 0.000175651 0.000140333)
(1.20043 0.000256641 0.00021715)
(1.20043 0.000266862 0.00020916)
(1.20042 0.000243263 0.000198128)
(1.20047 0.000266168 0.000216319)
(1.20046 0.000240337 0.000204573)
(1.20046 0.000252047 0.000195531)
(1.20064 0.000367197 0.000311123)
(1.20064 0.000380763 0.000301194)
(1.20063 0.000347661 0.000283986)
(1.20069 0.000379691 0.000311425)
(1.20067 0.000343614 0.000293369)
(1.20067 0.000359361 0.000281574)
(1.20094 0.000520444 0.000448651)
(1.20093 0.000538616 0.000435419)
(1.20092 0.000492065 0.000409504)
(1.20101 0.000535407 0.0004475)
(1.20098 0.000484941 0.000421138)
(1.20098 0.000506148 0.000404951)
(1.20137 0.000724269 0.000634843)
(1.20137 0.000748844 0.00061728)
(1.20134 0.000684312 0.000579814)
(1.20147 0.00074067 0.000631302)
(1.20143 0.000671002 0.000593268)
(1.20143 0.000700236 0.000571279)
(1.20199 0.000989324 0.000883296)
(1.20199 0.00102015 0.000862907)
(1.20194 0.000932412 0.000808445)
(1.20213 0.00100373 0.000875206)
(1.20207 0.000910809 0.00082113)
(1.20206 0.000947518 0.000794245)
(1.20285 0.00131181 0.00119834)
(1.20285 0.00134629 0.00117678)
(1.20278 0.00123457 0.00109967)
(1.20303 0.00131523 0.001181)
(1.20294 0.00119878 0.00110663)
(1.20294 0.00124163 0.00107598)
(1.20401 0.00165401 0.00155608)
(1.20402 0.00168633 0.00153581)
(1.2039 0.00155489 0.00143305)
(1.20424 0.00162931 0.00151742)
(1.2041 0.00149562 0.00142163)
(1.20411 0.0015398 0.00138866)
(1.20554 0.00192635 0.00189716)
(1.20556 0.00194254 0.00187984)
(1.20538 0.00180861 0.00175146)
(1.2058 0.00184398 0.00181307)
(1.2056 0.00171378 0.00170212)
(1.20562 0.00174862 0.00166892)
(1.20746 0.00192432 0.00201576)
(1.20749 0.00190522 0.00200109)
(1.2072 0.00181543 0.00187976)
(1.2077 0.00174027 0.00183911)
(1.20741 0.00166736 0.00175549)
(1.20743 0.00167877 0.00172627)
(1.20938 0.0011884 0.00147701)
(1.2095 0.00114738 0.00137649)
(1.20906 0.0012094 0.00143748)
(1.20941 0.000912249 0.00119604)
(1.20917 0.00104051 0.00118002)
(1.20913 0.000992072 0.00120437)
(1.19996 -6.33026e-06 4.2349e-06)
(1.19996 -1.11701e-06 3.30502e-06)
(1.2 -1.28013e-05 5.63749e-06)
(1.19996 -4.46476e-06 3.29067e-06)
(1.19996 -6.34595e-06 2.78582e-06)
(1.19995 -6.70978e-06 6.25925e-05)
(1.19996 1.44805e-05 5.54929e-05)
(1.20003 -1.3432e-05 4.44308e-05)
(1.20005 5.47637e-07 6.38489e-05)
(1.19996 3.19664e-06 5.51413e-05)
(1.19996 -6.86128e-06 5.40489e-05)
(1.19988 3.11188e-05 8.84472e-05)
(1.19988 4.69767e-05 8.24398e-05)
(1.20012 2.80903e-05 8.12498e-05)
(1.20014 3.33899e-05 8.40989e-05)
(1.19989 3.46037e-05 8.17044e-05)
(1.19989 3.03646e-05 7.84895e-05)
(1.20016 5.38849e-05 0.000110124)
(1.20017 6.99873e-05 0.000104798)
(1.20021 5.03684e-05 0.000100998)
(1.20023 5.65387e-05 0.000108014)
(1.20017 5.25533e-05 0.000103737)
(1.20017 5.28245e-05 9.95722e-05)
(1.20033 8.35308e-05 0.000145882)
(1.20033 0.00010086 0.000139774)
(1.20032 7.8446e-05 0.000133927)
(1.20036 8.73036e-05 0.000144815)
(1.20034 7.66121e-05 0.000138109)
(1.20034 8.18642e-05 0.000132218)
(1.2005 0.000125369 0.000202424)
(1.2005 0.00014599 0.000193981)
(1.20049 0.00011836 0.00018496)
(1.20054 0.000130474 0.000201586)
(1.20052 0.000110967 0.000191691)
(1.20052 0.000123077 0.000182545)
(1.20074 0.000184453 0.000286776)
(1.20075 0.000210038 0.000275823)
(1.20072 0.000174165 0.000262336)
(1.20079 0.000191298 0.000286034)
(1.20076 0.000159215 0.000271876)
(1.20077 0.000180502 0.000259366)
(1.20109 0.000264226 0.000404544)
(1.20109 0.000295642 0.000389222)
(1.20105 0.00024998 0.000369778)
(1.20116 0.000271557 0.00040194)
(1.20112 0.000224964 0.000382261)
(1.20112 0.000257258 0.000364523)
(1.20157 0.000361278 0.000558196)
(1.20158 0.000402402 0.00053869)
(1.20152 0.000341974 0.000511794)
(1.20167 0.00036897 0.000553388)
(1.20161 0.00030475 0.000526688)
(1.20162 0.000349269 0.000502964)
(1.20223 0.000490896 0.00075082)
(1.20224 0.000543566 0.000726845)
(1.20217 0.000462818 0.000690866)
(1.20236 0.000497749 0.000740751)
(1.20228 0.000411377 0.000706212)
(1.20229 0.000470251 0.000675857)
(1.20312 0.000646046 0.000973402)
(1.20313 0.000711101 0.000946524)
(1.20303 0.000608454 0.000899582)
(1.20328 0.000646389 0.000953532)
(1.20317 0.000537338 0.000911322)
(1.20318 0.000610837 0.000875582)
(1.20426 0.000803348 0.00119096)
(1.20427 0.000878142 0.00116328)
(1.20414 0.000756282 0.00110762)
(1.20446 0.000789439 0.00115314)
(1.20431 0.000662227 0.00110723)
(1.20432 0.000747309 0.00106699)
(1.20566 0.00091549 0.00133264)
(1.20567 0.000991487 0.00130895)
(1.20549 0.000863184 0.0012518)
(1.20586 0.000873942 0.00126496)
(1.20568 0.000744895 0.00122591)
(1.20568 0.000832476 0.00118556)
(1.20719 0.000873032 0.00125609)
(1.20719 0.000935505 0.00124117)
(1.20698 0.000834792 0.00120689)
(1.20734 0.00078911 0.00114569)
(1.20714 0.00069765 0.00113819)
(1.20714 0.000770098 0.00110524)
(1.20847 0.000486297 0.000801957)
(1.2085 0.000528946 0.000768004)
(1.20827 0.000515409 0.000817537)
(1.20848 0.000372821 0.000664943)
(1.20834 0.000409002 0.000702448)
(1.20832 0.000420815 0.000690757)
(1.19996 3.5446e-06 8.67836e-08)
(1.19996 3.76339e-06 -4.99081e-06)
(1.2 7.78727e-06 -9.70642e-06)
(1.19996 3.50258e-06 -5.02108e-06)
(1.19996 3.51378e-06 -2.50515e-06)
(1.19995 6.95607e-05 2.08876e-05)
(1.19995 7.15243e-05 5.65615e-06)
(1.20003 5.70474e-05 -1.78716e-06)
(1.20004 8.13142e-05 1.18467e-05)
(1.19995 6.86335e-05 5.11957e-06)
(1.19996 6.91125e-05 7.94937e-06)
(1.19986 0.00011421 4.81481e-05)
(1.19986 0.000117107 3.54238e-05)
(1.20009 0.000111919 3.30571e-05)
(1.20011 0.000118749 3.7274e-05)
(1.19986 0.000111621 3.46396e-05)
(1.19986 0.000113415 3.50507e-05)
(1.20013 0.000158697 6.91487e-05)
(1.20013 0.000161994 5.55083e-05)
(1.20017 0.000152085 5.22713e-05)
(1.20019 0.00016593 5.74443e-05)
(1.20014 0.000154686 5.4213e-05)
(1.20013 0.000157399 5.16946e-05)
(1.20027 0.000225983 9.36894e-05)
(1.20027 0.000228883 7.90739e-05)
(1.20027 0.000216166 7.48992e-05)
(1.2003 0.000235498 8.14715e-05)
(1.20029 0.000220755 7.71396e-05)
(1.20028 0.000224045 7.1802e-05)
(1.20041 0.000316557 0.000131626)
(1.2004 0.000320547 0.00011337)
(1.2004 0.000302487 0.000106274)
(1.20044 0.000329148 0.000117269)
(1.20043 0.000308215 0.000109573)
(1.20042 0.000312754 9.97456e-05)
(1.2006 0.000446622 0.000194757)
(1.20059 0.000451281 0.000170733)
(1.20059 0.000425756 0.000159542)
(1.20065 0.000463924 0.000176801)
(1.20063 0.000434769 0.000165005)
(1.20062 0.000440884 0.000148245)
(1.20089 0.000626751 0.000287245)
(1.20087 0.000632763 0.000255328)
(1.20086 0.000597279 0.000238531)
(1.20095 0.000647835 0.000262674)
(1.20093 0.00060752 0.000245312)
(1.20091 0.000616725 0.000219406)
(1.20131 0.000862418 0.000414886)
(1.20129 0.000869828 0.000372097)
(1.20126 0.000820928 0.000347052)
(1.20139 0.000887118 0.000380519)
(1.20136 0.000832164 0.000354391)
(1.20134 0.000844695 0.000315692)
(1.20192 0.00116809 0.000597761)
(1.2019 0.00117691 0.000541222)
(1.20186 0.0011115 0.000502665)
(1.20204 0.00119245 0.000550569)
(1.20199 0.00112038 0.00051127)
(1.20197 0.00113812 0.000454487)
(1.20281 0.00151407 0.000842198)
(1.2028 0.0015258 0.000766534)
(1.20272 0.001444 0.000712295)
(1.20299 0.00152856 0.00077141)
(1.20289 0.00144133 0.000717678)
(1.20288 0.00146518 0.000639213)
(1.20407 0.00184366 0.00112611)
(1.20407 0.00185573 0.00102914)
(1.20393 0.00176468 0.000957534)
(1.2043 0.00183079 0.0010204)
(1.20415 0.00173877 0.000951963)
(1.20415 0.00176646 0.00085155)
(1.20574 0.00202315 0.00139114)
(1.20577 0.0020317 0.00127267)
(1.20555 0.0019526 0.00119126)
(1.20601 0.00195641 0.00123408)
(1.20578 0.00188515 0.00116205)
(1.2058 0.00191252 0.00104164)
(1.20775 0.00183015 0.00145128)
(1.2078 0.0018298 0.00132349)
(1.20749 0.00180476 0.00126734)
(1.20799 0.00168809 0.0012296)
(1.20768 0.0016811 0.00119333)
(1.20773 0.00170001 0.00106595)
(1.20963 0.00103965 0.000952943)
(1.20967 0.00103177 0.000854551)
(1.20934 0.00111048 0.000896106)
(1.20968 0.000845318 0.000702317)
(1.20939 0.000941373 0.000761825)
(1.20944 0.000946979 0.000673244)
(1.19996 1.28484e-06 8.5159e-08)
(1.19996 2.13872e-06 -5.0826e-06)
(1.2 2.64361e-06 -9.90238e-06)
(1.19996 9.52991e-07 -5.11324e-06)
(1.19996 1.2537e-06 -2.50166e-06)
(1.19996 4.66426e-05 1.96028e-05)
(1.19995 5.25862e-05 3.5351e-06)
(1.20003 3.62919e-05 -3.66536e-06)
(1.20005 5.56525e-05 9.74688e-06)
(1.19996 4.49818e-05 3.04462e-06)
(1.19996 4.62552e-05 6.6521e-06)
(1.19989 8.24585e-05 4.59383e-05)
(1.19988 8.81367e-05 3.266e-05)
(1.20012 8.03086e-05 3.06276e-05)
(1.20014 8.59287e-05 3.43202e-05)
(1.19989 7.82561e-05 3.20953e-05)
(1.19989 8.18837e-05 3.34087e-05)
(1.20017 0.000117804 6.44437e-05)
(1.20017 0.000124145 5.07742e-05)
(1.20021 0.000112504 4.78273e-05)
(1.20023 0.000123301 5.27006e-05)
(1.20018 0.000111253 4.97552e-05)
(1.20018 0.000116784 4.86547e-05)
(1.20034 0.000169615 8.69904e-05)