/*--------------------------------*- C++ -*----------------------------------*\
| =========                 |                                                 |
| \\      /  F ield         | OpenFOAM: The Open Source CFD Toolbox           |
|  \\    /   O peration     | Version:  2012                                  |
|   \\  /    A nd           | Website:  www.openfoam.com                      |
|    \\/     M anipulation  |                                                 |
\*---------------------------------------------------------------------------*/
FoamFile
{
    version     2.0;
    format      ascii;
    class       volVectorField;
    location    "0.108/solid";
    object      D_0_0_0;
}
// * * * * * * * * * * * * * * * * * * * * * * * * * * * * * * * * * * * * * //

dimensions      [0 1 0 0 0 0 0];


internalField   nonuniform List<vector> 
3125
(
(1.31757e-13 -2.03614e-13 1.25428e-11)
(1.34859e-11 -6.06823e-11 1.29616e-11)
(-2.04152e-12 -3.43588e-13 2.48702e-11)
(1.29499e-13 -2.02421e-13 1.26034e-11)
(-2.09878e-12 -2.81602e-13 2.46495e-11)
(1.04028e-11 -6.76016e-11 3.26663e-11)
(9.83972e-12 -4.05316e-11 1.48114e-11)
(2.03349e-11 -1.39215e-10 3.65101e-11)
(1.68559e-13 8.08921e-14 1.25065e-11)
(6.09588e-09 8.43179e-09 -3.13133e-08)
(1.65869e-06 -4.29174e-07 -6.79077e-07)
(6.97098e-06 -1.8943e-06 -1.32798e-06)
(-2.06653e-12 4.02518e-14 2.45946e-11)
(-1.95901e-12 -1.06815e-13 2.48469e-11)
(1.82212e-13 3.12313e-14 1.25683e-11)
(-1.5288e-09 2.04379e-08 -2.96925e-08)
(1.59845e-06 -4.05314e-07 -5.54565e-07)
(6.23457e-06 -1.69425e-06 -1.26659e-06)
(2.09029e-06 -5.50146e-07 -7.62682e-07)
(6.1411e-06 -1.67615e-06 -1.05164e-06)
(2.02535e-06 -5.27092e-07 -6.24659e-07)
(6.8736e-06 -1.87687e-06 -1.10417e-06)
(-8.75008e-13 -7.06325e-14 -1.06959e-12)
(5.45897e-14 -1.39459e-14 1.22866e-11)
(-9.62204e-13 -1.29675e-14 -1.31697e-12)
(8.30068e-12 -8.86024e-12 3.26492e-12)
(2.83613e-11 -8.85806e-10 2.10218e-11)
(1.71781e-10 -3.31654e-10 1.06743e-11)
(-8.47425e-13 -7.61867e-14 -1.01119e-12)
(-2.18996e-12 -5.99449e-14 2.42767e-11)
(1.16188e-13 -7.18915e-12 2.71979e-11)
(1.47337e-12 -2.6144e-12 1.368e-11)
(5.45866e-12 -5.23662e-12 2.38701e-12)
(-1.30979e-13 -3.50623e-14 2.21462e-14)
(-1.95928e-12 -4.20454e-14 -1.87592e-12)
(-2.03185e-12 -2.14348e-14 -2.07911e-12)
(5.80367e-14 -1.79165e-14 1.22865e-11)
(-9.31978e-13 5.60534e-14 -1.2227e-12)
(-9.55432e-13 -1.06653e-14 -1.30047e-12)
(-2.01834e-12 3.27755e-14 -2.0166e-12)
(-2.02635e-12 3.28521e-15 -2.06466e-12)
(1.91761e-06 -2.65768e-07 -1.94336e-06)
(7.35132e-07 -6.62213e-09 -1.07773e-06)
(3.71849e-12 -3.97144e-12 2.02308e-12)
(1.18856e-10 -2.01592e-10 4.2866e-12)
(-8.88365e-11 -1.28293e-09 -1.41499e-10)
(3.88281e-07 -7.30099e-08 -3.08709e-07)
(1.22852e-08 1.08029e-08 -3.91714e-08)
(5.72754e-07 4.96586e-09 -8.46177e-07)
(1.89693e-10 -8.17508e-10 -2.55545e-11)
(1.8801e-06 -2.8854e-07 -1.74421e-06)
(6.35402e-07 -1.42661e-07 -4.08312e-07)
(6.97435e-07 -1.6779e-08 -9.63996e-07)
(1.66128e-08 1.45959e-08 -4.58121e-08)
(6.09692e-07 1.26905e-08 -9.47089e-07)
(1.55455e-10 -5.0861e-10 -1.5731e-11)
(1.00891e-05 -2.34887e-06 -4.32199e-06)
(6.85595e-06 -1.57501e-06 -3.30521e-06)
(9.36755e-06 -2.53961e-06 -1.49737e-06)
(9.63449e-06 -2.29043e-06 -3.81627e-06)
(6.88722e-06 -1.53252e-06 -3.6789e-06)
(9.66329e-06 -2.24075e-06 -4.24751e-06)
(1.02245e-05 -2.76844e-06 -1.54903e-06)
(1.00606e-05 -2.39957e-06 -3.88322e-06)
(-1.92903e-12 -6.99634e-14 -1.8093e-12)
(-2.18949e-12 -1.25884e-14 2.42703e-11)
(-8.55016e-13 -3.19683e-12 2.63551e-11)
(1.14087e-12 -1.57513e-12 1.35283e-11)
(-8.65428e-13 5.74678e-14 -1.07458e-12)
(-4.14766e-13 3.99694e-14 -3.77129e-13)
(1.91008e-12 -2.2333e-12 1.1296e-12)
(-1.45203e-12 8.90696e-14 -9.34952e-13)
(-1.96075e-12 5.77457e-14 -1.88436e-12)
(-1.67149e-12 9.32122e-14 -1.31691e-12)
(1.88173e-06 -2.18503e-07 -1.8757e-06)
(7.14208e-07 4.62174e-08 -1.04778e-06)
(3.56564e-07 -4.57458e-08 -2.52375e-07)
(1.48031e-08 2.92091e-08 -4.52326e-08)
(5.57668e-07 4.26121e-08 -8.25881e-07)
(1.85103e-06 -2.55964e-07 -1.68952e-06)
(5.93178e-07 -1.14874e-07 -3.30656e-07)
(6.80118e-07 1.99816e-08 -9.38609e-07)
(1.98325e-08 3.77916e-08 -5.10586e-08)
(5.91425e-07 6.67286e-08 -9.23491e-07)
(2.13032e-06 -3.17916e-07 -2.05972e-06)
(3.91139e-06 -7.68822e-07 -2.82376e-06)
(4.23122e-06 -1.14525e-06 -1.06707e-06)
(6.49019e-06 -1.48034e-06 -3.22607e-06)
(4.1715e-06 -8.78227e-07 -2.62823e-06)
(2.09314e-06 -3.42102e-07 -1.84901e-06)
(3.63652e-06 -9.80828e-07 -9.95245e-07)
(3.87681e-06 -8.01635e-07 -2.5365e-06)
(6.52182e-06 -1.4389e-06 -3.59085e-06)
(4.2057e-06 -8.44295e-07 -2.92578e-06)
(2.09268e-06 -2.71346e-07 -1.98756e-06)
(3.86303e-06 -7.2707e-07 -2.72421e-06)
(4.14956e-06 -1.12509e-06 -8.817e-07)
(6.4435e-06 -1.45544e-06 -3.12695e-06)
(4.13182e-06 -8.49982e-07 -2.54591e-06)
(2.06273e-06 -3.1002e-07 -1.79081e-06)
(3.55886e-06 -9.59978e-07 -8.20814e-07)
(3.83819e-06 -7.72912e-07 -2.45687e-06)
(6.46303e-06 -1.4027e-06 -3.46653e-06)
(4.15598e-06 -8.03234e-07 -2.82281e-06)
(1.00193e-05 -2.31884e-06 -4.17578e-06)
(6.80829e-06 -1.55058e-06 -3.20396e-06)
(9.25849e-06 -2.52419e-06 -1.24974e-06)
(9.58019e-06 -2.2693e-06 -3.70159e-06)
(6.82718e-06 -1.49702e-06 -3.55187e-06)
(9.59473e-06 -2.21004e-06 -4.10347e-06)
(1.01115e-05 -2.75368e-06 -1.29431e-06)
(1.00054e-05 -2.37891e-06 -3.76683e-06)
(-2.9472e-12 -1.34782e-13 8.55979e-12)
(9.43255e-14 -9.75209e-14 1.24182e-11)
(-3.00368e-12 -7.55487e-14 8.41671e-12)
(1.03172e-11 -3.1252e-11 9.90953e-12)
(2.57076e-11 -1.9009e-10 1.12602e-11)
(3.15326e-11 -1.12993e-10 5.30211e-12)
(-1.94253e-12 -4.35333e-13 2.5172e-11)
(2.45736e-13 -3.07464e-13 1.29006e-11)
(-2.9367e-12 -1.38006e-13 8.61268e-12)
(-2.90067e-12 -1.97089e-13 8.83561e-12)
(-2.11648e-12 -2.00035e-13 2.44754e-11)
(4.89569e-12 -3.26701e-11 3.00827e-11)
(4.49873e-12 -1.3142e-11 1.44191e-11)
(6.32643e-12 -2.03676e-11 1.0291e-11)
(4.49301e-13 -5.6607e-12 1.02061e-11)
(1.09463e-13 3.78182e-14 1.23996e-11)
(-2.9612e-12 8.86179e-14 8.50743e-12)
(-3.02514e-12 4.76876e-14 8.37445e-12)
(2.06258e-06 -1.68549e-07 -2.63764e-06)
(1.4968e-06 -5.01842e-08 -2.16008e-06)
(-7.56586e-09 -1.4252e-08 -2.24757e-09)
(7.02232e-08 3.36946e-08 -1.02701e-07)
(1.04206e-08 5.13322e-09 -4.69006e-08)
(1.17482e-07 2.21952e-08 -2.1424e-07)
(3.94404e-09 -5.93134e-09 -2.00202e-09)
(1.78896e-06 -3.92258e-07 -1.0808e-06)
(1.27134e-06 -3.2048e-07 -5.9226e-07)
(1.21123e-06 -2.37345e-07 -8.77583e-07)
(4.16141e-08 3.53226e-09 -3.92854e-08)
(3.33878e-07 5.07514e-08 -5.9062e-07)
(1.1934e-05 -2.58716e-06 -6.21078e-06)
(6.7923e-06 -1.74123e-06 -2.04583e-06)
(7.7395e-06 -2.10215e-06 -1.38688e-06)
(7.9421e-06 -2.04694e-06 -2.1865e-06)
(6.99062e-06 -1.36422e-06 -4.96584e-06)
(8.12778e-06 -1.64619e-06 -5.30768e-06)
(1.20176e-05 -3.24448e-06 -1.64533e-06)
(1.17852e-05 -3.05739e-06 -2.55659e-06)
(-2.1042e-12 5.11225e-14 2.44352e-11)
(-1.73433e-12 -4.56325e-13 2.5215e-11)
(4.32768e-13 -1.20089e-13 1.29149e-11)
(-2.93929e-12 7.97998e-14 8.56e-12)
(-2.82803e-12 4.97466e-14 8.81807e-12)
(2.04347e-06 -1.26442e-07 -2.59613e-06)
(1.48209e-06 -6.44597e-09 -2.12918e-06)
(5.3345e-08 2.86494e-08 -9.68229e-08)
(1.61204e-09 1.54676e-08 -2.56437e-08)
(1.08189e-07 5.09418e-08 -2.06459e-07)
(1.75155e-06 -3.67748e-07 -1.00716e-06)
(1.21625e-06 -2.95656e-07 -4.82106e-07)
(1.17863e-06 -2.1154e-07 -8.17178e-07)
(5.50925e-08 5.33761e-08 -8.12659e-08)
(3.38331e-07 1.05359e-07 -6.12891e-07)
(2.27284e-06 -2.15517e-07 -2.79261e-06)
(2.96731e-06 -3.76801e-07 -3.24444e-06)
(5.53159e-06 -1.50243e-06 -1.20268e-06)
(6.42503e-06 -1.64322e-06 -1.99747e-06)
(5.37362e-06 -1.36157e-06 -1.84516e-06)
(2.00368e-06 -4.50289e-07 -1.14566e-06)
(2.56471e-06 -6.82765e-07 -8.43158e-07)
(2.71176e-06 -6.42261e-07 -1.33528e-06)
(6.62762e-06 -1.27421e-06 -4.84728e-06)
(5.58909e-06 -1.01691e-06 -4.47775e-06)
(2.25235e-06 -1.73968e-07 -2.74785e-06)
(2.94291e-06 -3.36985e-07 -3.19068e-06)
(5.44203e-06 -1.48364e-06 -9.97073e-07)
(6.36745e-06 -1.62458e-06 -1.87001e-06)
(5.31944e-06 -1.34189e-06 -1.72607e-06)
(1.96468e-06 -4.26198e-07 -1.06786e-06)
(2.49536e-06 -6.60479e-07 -6.92358e-07)
(2.66871e-06 -6.19301e-07 -1.24586e-06)
(6.59033e-06 -1.24181e-06 -4.76567e-06)
(5.55473e-06 -9.82625e-07 -4.40213e-06)
(1.1885e-05 -2.56277e-06 -6.1084e-06)
(6.73345e-06 -1.72296e-06 -1.91571e-06)
(7.63822e-06 -2.0854e-06 -1.15469e-06)
(7.87988e-06 -2.02972e-06 -2.04887e-06)
(6.95238e-06 -1.33245e-06 -4.88234e-06)
(8.08675e-06 -1.61629e-06 -5.21886e-06)
(1.1897e-05 -3.23102e-06 -1.3776e-06)
(1.17126e-05 -3.04329e-06 -2.39982e-06)
(-5.78061e-12 -1.24087e-13 6.39081e-12)
(-9.03408e-13 -4.22257e-14 -1.19575e-12)
(-5.83965e-12 -5.94975e-14 6.24227e-12)
(9.51095e-14 -1.19332e-13 1.23861e-11)
(-3.00854e-12 -1.33214e-14 8.33145e-12)
(-3.01055e-12 -7.1182e-14 8.38409e-12)
(-9.10285e-13 -3.63388e-14 -1.2068e-12)
(-5.83719e-12 -4.87665e-15 6.17065e-12)
(-5.84301e-12 -6.55864e-14 6.21206e-12)
(6.35551e-12 -2.37465e-11 8.20207e-12)
(2.8159e-11 -3.88655e-11 4.43146e-12)
(2.88578e-11 -8.79674e-11 5.20871e-12)
(3.21659e-11 -2.74182e-10 -6.2496e-12)
(1.11085e-10 -6.55883e-10 -3.10946e-11)
(4.96583e-11 -1.81628e-10 1.14874e-12)
(4.00823e-11 -7.18644e-11 3.5761e-12)
(1.32589e-10 -5.21619e-10 -1.86338e-11)
(4.44803e-11 -1.50531e-10 1.65238e-12)
(-2.88827e-12 -2.05308e-13 8.91103e-12)
(-5.7728e-12 -1.09965e-13 6.44025e-12)
(-7.53179e-13 -1.00013e-13 -7.64991e-13)
(-5.74741e-12 -1.73475e-13 6.64304e-12)
(-7.13671e-13 -1.07727e-13 -6.7104e-13)
(-5.73586e-12 -1.71181e-13 6.71539e-12)
(-2.14401e-12 -1.46167e-13 2.43574e-11)
(1.86048e-12 -1.54809e-11 2.84172e-11)
(3.34586e-12 -8.5117e-12 1.44421e-11)
(-2.04534e-12 -8.86544e-13 9.51396e-12)
(-5.12882e-13 -3.66563e-12 1.00801e-11)
(2.69052e-12 -1.50264e-11 8.39471e-12)
(1.51594e-12 -1.16496e-12 1.18832e-12)
(-2.84702e-12 -4.02247e-12 8.02515e-12)
(-5.04826e-12 -5.60196e-13 7.29322e-12)
(8.0124e-13 -6.7195e-13 6.69764e-13)
(-3.69831e-12 -2.54132e-12 7.87725e-12)
(-1.39533e-12 5.33886e-16 -2.66955e-12)
(-1.99091e-12 -4.36628e-14 -1.97336e-12)
(-1.39783e-12 -7.41337e-15 -2.69572e-12)
(-1.99854e-12 -1.83341e-14 -1.98828e-12)
(-1.42917e-12 -6.90825e-15 -2.72076e-12)
(-1.41441e-12 1.96941e-15 -2.71412e-12)
(1.06401e-13 7.33783e-14 1.23689e-11)
(-3.01223e-12 -1.04022e-14 8.32729e-12)
(-3.0285e-12 4.58562e-14 8.35979e-12)
(-5.81023e-12 9.08334e-14 6.33116e-12)
(-9.20563e-13 2.35926e-14 -1.2313e-12)
(-5.86354e-12 3.75311e-14 6.1952e-12)
(-5.8407e-12 -1.95087e-14 6.16613e-12)
(-9.54085e-13 1.84268e-14 -1.3128e-12)
(-5.86673e-12 4.48575e-14 6.1836e-12)
(-1.42839e-12 -2.11221e-15 -2.71202e-12)
(-2.01118e-12 2.70281e-14 -2.01405e-12)
(-1.43731e-12 5.03157e-15 -2.74451e-12)
(-1.44896e-12 3.89404e-15 -2.74346e-12)
(-2.04048e-12 1.2508e-15 -2.0839e-12)
(-1.42684e-12 -4.70543e-15 -2.73175e-12)
(2.02025e-06 -1.93763e-07 -2.45117e-06)
(1.34483e-06 -1.30547e-07 -1.5833e-06)
(1.45227e-06 -7.07573e-08 -2.00421e-06)
(8.9325e-07 4.79132e-08 -1.49429e-06)
(1.32998e-06 -1.8845e-08 -1.99676e-06)
(1.17591e-06 -9.31165e-08 -1.45963e-06)
(8.46314e-07 3.39317e-08 -1.37925e-06)
(1.28476e-06 -3.77939e-08 -1.85111e-06)
(-7.47361e-13 -8.1322e-15 -1.77591e-12)
(1.60289e-11 -1.96211e-11 3.02381e-12)
(-1.59596e-13 -3.29203e-13 -1.34187e-12)
(2.42642e-11 -3.71685e-11 2.78526e-12)
(4.5491e-12 -5.6015e-12 -6.7087e-13)
(2.29638e-14 -6.31121e-13 -1.45141e-12)
(-3.01756e-09 -5.70553e-09 1.94884e-09)
(2.19542e-10 -1.21059e-09 -6.08285e-11)
(2.1483e-10 -4.93388e-09 -1.0492e-09)
(1.95361e-07 -2.11403e-08 -2.07464e-07)
(4.7908e-07 -4.9943e-08 -5.17132e-07)
(1.86368e-07 1.32985e-08 -2.87412e-07)
(1.48322e-08 -1.31042e-09 -6.1797e-08)
(1.80823e-07 3.9476e-08 -3.62725e-07)
(2.53095e-09 -1.63851e-08 -3.35795e-09)
(1.27699e-07 2.60916e-08 -2.46753e-07)
(5.54777e-09 -2.32649e-09 -8.22048e-10)
(4.98211e-07 -3.66249e-08 -5.9615e-07)
(2.64024e-07 3.91707e-08 -4.83965e-07)
(2.01517e-07 1.94453e-08 -3.3386e-07)
(2.34125e-10 -1.17134e-09 -6.16663e-11)
(1.71476e-09 -3.61367e-09 1.11084e-10)
(1.0402e-09 -3.35825e-09 -9.10324e-10)
(1.80781e-06 -3.67209e-07 -1.24333e-06)
(1.30653e-06 -1.48609e-07 -1.41974e-06)
(1.23089e-06 -2.1587e-07 -1.01009e-06)
(9.29691e-07 -2.24578e-07 -5.01967e-07)
(6.01711e-07 -7.97082e-08 -5.91359e-07)
(1.04128e-06 -1.92432e-07 -8.08151e-07)
(1.1375e-06 -1.09405e-07 -1.30823e-06)
(6.21352e-07 -6.43933e-08 -6.81546e-07)
(1.06112e-06 -1.72325e-07 -9.29885e-07)
(7.67719e-07 6.02746e-08 -1.32232e-06)
(4.35872e-07 6.35518e-08 -7.82657e-07)
(2.90622e-08 8.42866e-09 -5.43852e-08)
(2.07697e-07 3.48438e-08 -4.10107e-07)
(2.18496e-09 -1.41178e-08 -2.12694e-09)
(2.91868e-07 4.42232e-08 -5.35218e-07)
(3.76279e-10 -4.0453e-10 3.72627e-11)
(7.20479e-07 4.78865e-08 -1.21759e-06)
(2.93772e-07 3.89215e-08 -5.43804e-07)
(3.90577e-07 5.5716e-08 -7.1133e-07)
(9.64461e-12 -1.25619e-11 -1.71463e-13)
(1.51289e-09 -2.89102e-09 9.83227e-11)
(1.15264e-10 -2.63765e-10 -3.64439e-13)
(1.01736e-05 -2.15261e-06 -5.83183e-06)
(1.14842e-05 -2.47625e-06 -6.11936e-06)
(1.18587e-05 -2.79693e-06 -4.60342e-06)
(1.19134e-05 -2.64361e-06 -5.78319e-06)
(1.01501e-05 -2.20542e-06 -5.43001e-06)
(1.14066e-05 -2.68266e-06 -4.53552e-06)
(1.1463e-05 -2.53179e-06 -5.69799e-06)
(6.80536e-06 -1.70089e-06 -2.35641e-06)
(8.00132e-06 -1.87073e-06 -3.53339e-06)
(7.95425e-06 -2.00411e-06 -2.51855e-06)
(8.5388e-06 -2.31739e-06 -1.44333e-06)
(9.58105e-06 -2.47985e-06 -2.36036e-06)
(8.34083e-06 -2.15255e-06 -2.23106e-06)
(8.39859e-06 -1.97304e-06 -3.60639e-06)
(9.59201e-06 -2.43372e-06 -2.71938e-06)
(8.35267e-06 -2.1089e-06 -2.57032e-06)
(9.75013e-06 -2.04791e-06 -5.73152e-06)
(8.52232e-06 -1.74396e-06 -5.41705e-06)
(6.96123e-06 -1.40941e-06 -4.62296e-06)
(8.03152e-06 -1.82514e-06 -3.93278e-06)
(8.10064e-06 -1.69429e-06 -4.94154e-06)
(9.72595e-06 -2.09979e-06 -5.33653e-06)
(8.42844e-06 -1.92642e-06 -4.01399e-06)
(8.49593e-06 -1.79302e-06 -5.04347e-06)
(1.18316e-05 -2.85165e-06 -4.13617e-06)
(1.17947e-05 -3.00719e-06 -2.94638e-06)
(1.11082e-05 -3.00351e-06 -1.59834e-06)
(1.00086e-05 -2.59227e-06 -2.4012e-06)
(1.13314e-05 -2.93889e-06 -2.51938e-06)
(1.13792e-05 -2.73639e-06 -4.07514e-06)
(1.00193e-05 -2.54533e-06 -2.76685e-06)
(1.13412e-05 -2.88949e-06 -2.90312e-06)
(-1.37527e-12 -9.66242e-15 -2.64705e-12)
(-1.86766e-12 -6.4695e-14 -1.61833e-12)
(-1.33279e-12 -1.16447e-15 -2.59949e-12)
(-1.82715e-12 -9.19792e-14 -1.52513e-12)
(-1.31358e-12 -1.0629e-14 -2.57648e-12)
(-2.14425e-12 4.70939e-14 2.43241e-11)
(-1.39817e-12 -1.33019e-12 2.57042e-11)
(5.19009e-13 -3.70395e-13 1.30377e-11)
(-2.29691e-12 -5.02111e-13 9.3643e-12)
(-2.76018e-12 -1.50565e-14 8.91585e-12)
(-5.79373e-12 6.9951e-14 6.37758e-12)
(-7.80799e-13 7.83288e-14 -9.27231e-13)
(-5.71939e-12 7.74972e-14 6.6092e-12)
(-5.26572e-12 -2.76864e-13 7.1464e-12)
(-6.63044e-13 7.87637e-14 -7.03648e-13)
(-5.6664e-12 2.93616e-14 6.69746e-12)
(-8.9934e-13 8.42985e-15 -1.95085e-12)
(-4.54085e-13 -3.7636e-13 5.63763e-14)
(-1.15199e-12 1.23703e-14 -2.32462e-12)
(-9.10902e-13 -1.92135e-13 -4.09006e-13)
(-1.28759e-12 2.09112e-14 -2.51238e-12)
(-1.13231e-12 4.73864e-15 -2.30503e-12)
(-1.43617e-12 8.86447e-15 -2.72228e-12)
(-1.9234e-12 6.0898e-14 -1.777e-12)
(-1.37994e-12 -1.52648e-15 -2.65865e-12)
(-1.83057e-12 8.87604e-14 -1.57934e-12)
(-1.32553e-12 1.04905e-14 -2.54952e-12)
(-1.40242e-12 8.34579e-15 -2.68185e-12)
(1.99459e-06 -1.46224e-07 -2.39922e-06)
(1.31473e-06 -8.11225e-08 -1.53035e-06)
(1.43179e-06 -2.12593e-08 -1.96499e-06)
(8.847e-07 9.39702e-08 -1.47993e-06)
(1.31678e-06 2.54361e-08 -1.96971e-06)
(1.14794e-06 -4.29149e-08 -1.41201e-06)
(8.33411e-07 8.64194e-08 -1.36001e-06)
(1.26611e-06 1.23846e-08 -1.81653e-06)
(1.75399e-07 9.88529e-09 -1.72297e-07)
(4.57786e-07 -2.1228e-08 -4.83684e-07)
(1.7504e-07 4.32683e-08 -2.74661e-07)
(4.14762e-09 1.83172e-08 -3.01311e-08)
(1.77597e-07 8.26214e-08 -3.6546e-07)
(1.22044e-07 5.93947e-08 -2.43945e-07)
(4.78259e-07 -4.51448e-09 -5.66e-07)
(2.5631e-07 8.02731e-08 -4.82344e-07)
(1.9157e-07 5.36506e-08 -3.23965e-07)
(1.77192e-06 -3.39708e-07 -1.174e-06)
(1.28195e-06 -1.14461e-07 -1.37647e-06)
(1.1999e-06 -1.86936e-07 -9.53685e-07)
(8.80448e-07 -1.9876e-07 -4.07327e-07)
(5.77498e-07 -5.15871e-08 -5.51516e-07)
(1.01065e-06 -1.66131e-07 -7.52575e-07)
(1.11458e-06 -7.4682e-08 -1.26911e-06)
(5.98669e-07 -3.298e-08 -6.45234e-07)
(1.03199e-06 -1.4286e-07 -8.78164e-07)
(7.6074e-07 1.07084e-07 -1.31265e-06)
(4.36233e-07 1.14367e-07 -7.94502e-07)
(4.24277e-08 5.03737e-08 -7.21872e-08)
(2.02365e-07 9.7211e-08 -4.14092e-07)
(2.94703e-07 1.0682e-07 -5.54534e-07)
(7.09588e-07 1.01405e-07 -1.20397e-06)
(2.84859e-07 9.69876e-08 -5.43971e-07)
(3.88838e-07 1.13869e-07 -7.21932e-07)
(2.23126e-06 -2.42186e-07 -2.59601e-06)
(2.83222e-06 -4.93641e-07 -2.39792e-06)
(2.92802e-06 -4.07558e-07 -3.01795e-06)
(4.03661e-06 -6.34718e-07 -3.81554e-06)
(3.21958e-06 -4.36915e-07 -3.39061e-06)
(3.08697e-06 -5.58256e-07 -2.50705e-06)
(4.00038e-06 -6.70368e-07 -3.5507e-06)
(3.18106e-06 -4.6895e-07 -3.15435e-06)
(4.86336e-06 -1.31927e-06 -1.13619e-06)
(4.09548e-06 -1.01716e-06 -1.62865e-06)
(5.04047e-06 -1.27202e-06 -1.79291e-06)
(6.43841e-06 -1.6037e-06 -2.30024e-06)
(5.44333e-06 -1.20882e-06 -2.97929e-06)
(5.38794e-06 -1.32457e-06 -2.12475e-06)
(4.11112e-06 -9.83572e-07 -1.87493e-06)
(5.11175e-06 -1.12268e-06 -2.8939e-06)
(5.05513e-06 -1.23586e-06 -2.06408e-06)
(2.02216e-06 -4.24166e-07 -1.31839e-06)
(2.79613e-06 -5.2174e-07 -2.15345e-06)
(2.72918e-06 -6.13162e-07 -1.53633e-06)
(3.08057e-06 -8.265e-07 -9.20642e-07)
(3.79914e-06 -9.37027e-07 -1.57238e-06)
(2.96861e-06 -7.11941e-07 -1.39574e-06)
(3.05126e-06 -5.87575e-07 -2.25165e-06)
(3.81515e-06 -9.04303e-07 -1.80965e-06)
(2.98565e-06 -6.8191e-07 -1.60639e-06)
(4.32847e-06 -7.06138e-07 -3.9526e-06)
(5.2603e-06 -9.35611e-07 -4.34993e-06)
(6.59748e-06 -1.3184e-06 -4.51247e-06)
(5.47606e-06 -1.17054e-06 -3.31629e-06)
(5.55668e-06 -1.05803e-06 -4.16805e-06)
(4.29301e-06 -7.42931e-07 -3.6785e-06)
(5.14485e-06 -1.08547e-06 -3.22129e-06)
(5.22713e-06 -9.75685e-07 -4.04892e-06)
(2.20399e-06 -1.95299e-07 -2.54017e-06)
(2.78969e-06 -4.49134e-07 -2.31321e-06)
(2.89622e-06 -3.6266e-07 -2.95133e-06)
(4.00751e-06 -5.97321e-07 -3.75124e-06)
(3.19395e-06 -3.97695e-07 -3.33408e-06)
(3.04292e-06 -5.14435e-07 -2.41845e-06)
(3.96315e-06 -6.28202e-07 -3.47145e-06)
(3.14784e-06 -4.24727e-07 -3.08441e-06)
(4.77773e-06 -1.2998e-06 -9.40437e-07)
(4.04605e-06 -9.96047e-07 -1.52184e-06)
(4.98757e-06 -1.25196e-06 -1.67678e-06)
(6.38282e-06 -1.58277e-06 -2.179e-06)
(5.39959e-06 -1.18249e-06 -2.88696e-06)
(5.33571e-06 -1.30245e-06 -2.01156e-06)
(4.06351e-06 -9.59836e-07 -1.77355e-06)
(5.069e-06 -1.09586e-06 -2.80396e-06)
(5.00407e-06 -1.21333e-06 -1.95373e-06)
(1.98478e-06 -3.97112e-07 -1.24504e-06)
(2.76198e-06 -4.91108e-07 -2.08545e-06)
(2.68773e-06 -5.87379e-07 -1.4517e-06)
(3.007e-06 -8.04942e-07 -7.57722e-07)
(3.75104e-06 -9.15532e-07 -1.46888e-06)
(2.92416e-06 -6.8937e-07 -1.30262e-06)
(3.01594e-06 -5.57422e-07 -2.1806e-06)
(3.76874e-06 -8.80157e-07 -1.71144e-06)
(2.9429e-06 -6.56546e-07 -1.51821e-06)
(4.29827e-06 -6.69358e-07 -3.88589e-06)
(5.22695e-06 -9.00702e-07 -4.27644e-06)
(6.5507e-06 -1.28183e-06 -4.4124e-06)
(5.42106e-06 -1.13226e-06 -3.20059e-06)
(5.51333e-06 -1.01936e-06 -4.07519e-06)
(4.2545e-06 -7.01459e-07 -3.59635e-06)
(5.09113e-06 -1.04649e-06 -3.10863e-06)
(5.18496e-06 -9.36311e-07 -3.95861e-06)
(1.01281e-05 -2.1258e-06 -5.73506e-06)
(1.14361e-05 -2.45126e-06 -6.01833e-06)
(1.17842e-05 -2.76957e-06 -4.44909e-06)
(1.18529e-05 -2.61601e-06 -5.65807e-06)
(1.00937e-05 -2.17511e-06 -5.31166e-06)
(1.13333e-05 -2.65464e-06 -4.38314e-06)
(1.14034e-05 -2.50353e-06 -5.57449e-06)
(6.74863e-06 -1.68036e-06 -2.23262e-06)
(7.9508e-06 -1.84773e-06 -3.42606e-06)
(7.8942e-06 -1.98477e-06 -2.38755e-06)
(8.43362e-06 -2.3013e-06 -1.2032e-06)
(9.51424e-06 -2.46403e-06 -2.21363e-06)
(8.27735e-06 -2.1357e-06 -2.09105e-06)
(8.34711e-06 -1.9505e-06 -3.49714e-06)
(9.52755e-06 -2.41595e-06 -2.57965e-06)
(8.2915e-06 -2.08996e-06 -2.43704e-06)
(9.7055e-06 -2.02049e-06 -5.63625e-06)
(8.48038e-06 -1.71468e-06 -5.32655e-06)
(6.91334e-06 -1.37355e-06 -4.52062e-06)
(7.9678e-06 -1.7917e-06 -3.79805e-06)
(8.04946e-06 -1.66053e-06 -4.83277e-06)
(9.67052e-06 -2.0688e-06 -5.21999e-06)
(8.3635e-06 -1.89367e-06 -3.87684e-06)
(8.44368e-06 -1.75995e-06 -4.93267e-06)
(1.17727e-05 -2.83282e-06 -4.01338e-06)
(1.17248e-05 -2.99135e-06 -2.797e-06)
(1.09915e-05 -2.9894e-06 -1.33692e-06)
(9.94055e-06 -2.5768e-06 -2.25234e-06)
(1.12601e-05 -2.92444e-06 -2.36451e-06)
(1.13212e-05 -2.7171e-06 -3.95389e-06)
(9.95369e-06 -2.52795e-06 -2.62508e-06)
(1.12724e-05 -2.87327e-06 -2.75557e-06)
(2.1847e-06 -1.33859e-07 -3.12551e-06)
(1.98715e-06 -9.55068e-08 -2.94243e-06)
(1.09181e-07 -1.87413e-08 -1.28081e-07)
(2.43302e-07 3.34455e-09 -3.42603e-07)
(7.07713e-06 -1.26373e-06 -5.85408e-06)
(7.44614e-06 -1.35272e-06 -5.99053e-06)
(2.18257e-06 -1.11935e-07 -3.10787e-06)
(1.98588e-06 -7.33092e-08 -2.92638e-06)
(1.14652e-07 2.35936e-08 -1.37201e-07)
(2.55827e-07 3.57316e-08 -3.70967e-07)
(2.39301e-06 -1.7596e-07 -3.30639e-06)
(2.61197e-06 -2.21679e-07 -3.48495e-06)
(6.71626e-06 -1.17682e-06 -5.71493e-06)
(6.36369e-06 -1.09206e-06 -5.57307e-06)
(2.39002e-06 -1.54321e-07 -3.2872e-06)
(2.60816e-06 -2.00336e-07 -3.46427e-06)
(6.70314e-06 -1.16009e-06 -5.67805e-06)
(6.35113e-06 -1.07499e-06 -5.53711e-06)
(7.06348e-06 -1.24734e-06 -5.8163e-06)
(7.43196e-06 -1.33666e-06 -5.95187e-06)
(-4.46311e-12 -1.05331e-13 -8.39454e-12)
(-8.47004e-13 -6.90915e-14 -1.11298e-12)
(-4.50704e-12 -1.121e-13 -8.62889e-12)
(-9.08325e-13 -1.58267e-14 -1.28411e-12)
(-4.55332e-12 2.26957e-15 -8.66549e-12)
(-4.57028e-12 2.02256e-15 -8.81675e-12)
(7.33437e-12 -1.55489e-11 -5.06321e-12)
(1.23839e-11 -1.42221e-11 3.49987e-12)
(1.2723e-11 -2.42078e-11 -4.72976e-12)
(8.90353e-11 -2.28908e-10 -6.26907e-13)
(1.90278e-10 -4.53172e-10 1.20935e-11)
(1.06827e-10 -3.47822e-10 -1.36036e-11)
(-4.44829e-12 -7.46316e-14 -8.36434e-12)
(-7.81783e-13 -8.26294e-14 -9.39529e-13)
(-4.44908e-12 -8.10595e-14 -8.46828e-12)
(3.76031e-12 -9.40209e-12 -5.37982e-12)
(3.71889e-12 -3.19906e-12 2.11161e-12)
(1.26725e-12 -5.92199e-12 -5.9643e-12)
(-3.67924e-12 -2.47034e-13 -7.56576e-12)
(4.64603e-14 -1.535e-13 4.32661e-14)
(-3.44019e-12 -4.75016e-13 -7.56056e-12)
(-3.00137e-12 -1.82572e-14 -4.18912e-12)
(-1.90965e-12 -3.93143e-14 -1.84617e-12)
(-2.93872e-12 -1.94131e-14 -4.10744e-12)
(-1.96357e-12 -2.23259e-14 -1.99374e-12)
(-3.05594e-12 -2.23333e-14 -4.33701e-12)
(-2.98528e-12 -1.87113e-14 -4.22659e-12)
(-4.51827e-12 8.26883e-14 -8.55546e-12)
(-8.77442e-13 5.18398e-14 -1.19691e-12)
(-4.55159e-12 8.37311e-14 -8.75691e-12)
(-4.55069e-12 -3.01769e-14 -8.65776e-12)
(-9.33125e-13 -7.61592e-15 -1.34347e-12)
(-4.58951e-12 -3.14939e-14 -8.8612e-12)
(-3.04798e-12 1.24465e-14 -4.29667e-12)
(-1.94456e-12 2.96295e-14 -1.92869e-12)
(-2.98099e-12 1.374e-14 -4.19651e-12)
(-3.06014e-12 8.9765e-15 -4.33845e-12)
(-1.98687e-12 5.00269e-15 -2.046e-12)
(-3.00006e-12 7.24595e-15 -4.26193e-12)
(1.9522e-06 -2.42885e-07 -2.11781e-06)
(1.71573e-06 -2.17053e-07 -1.82517e-06)
(1.93089e-06 -2.99665e-07 -1.94372e-06)
(1.7279e-06 -2.5114e-07 -1.82523e-06)
(1.75076e-06 -1.95498e-07 -1.98956e-06)
(1.02739e-06 4.86514e-08 -1.80355e-06)
(1.16115e-06 3.5436e-08 -1.9976e-06)
(7.39982e-07 -4.18852e-08 -1.07382e-06)
(8.71137e-07 -3.09297e-08 -1.20684e-06)
(7.71406e-07 5.16613e-09 -1.17927e-06)
(8.77227e-07 -6.59772e-08 -1.20387e-06)
(9.0757e-07 -1.72485e-08 -1.3192e-06)
(-5.50521e-14 -1.2684e-12 -1.32561e-12)
(6.19282e-12 -6.68644e-12 2.29186e-12)
(1.21834e-12 -2.32779e-12 -9.53731e-13)
(6.08762e-11 -1.28071e-10 3.92657e-13)
(6.5214e-11 -9.39765e-11 2.12272e-13)
(3.27721e-11 -5.4276e-11 -1.09107e-12)
(5.08942e-08 1.02318e-09 -1.37376e-07)
(7.7992e-09 8.46334e-09 -3.73911e-08)
(5.31725e-08 3.63377e-08 -1.26129e-07)
(1.20411e-08 -2.70579e-09 -4.68025e-08)
(6.20987e-08 -3.51776e-09 -1.42062e-07)
(4.39326e-08 3.52481e-08 -1.12094e-07)
(1.01751e-08 -9.10223e-09 -4.73642e-08)
(4.428e-07 -2.52314e-08 -6.68819e-07)
(5.8318e-07 -3.02831e-08 -8.60241e-07)
(5.44252e-07 -8.52262e-09 -7.59327e-07)
(4.59244e-07 2.17512e-08 -7.26802e-07)
(5.57129e-07 -4.3154e-08 -7.81246e-07)
(4.68087e-07 -1.42132e-08 -7.37132e-07)
(4.31716e-07 1.05092e-08 -6.51363e-07)
(2.26427e-10 -1.15219e-09 -5.24465e-11)
(4.99267e-10 -1.06013e-09 4.13006e-11)
(5.04074e-10 -1.2264e-09 7.88518e-11)
(1.67337e-06 -2.93564e-07 -1.52501e-06)
(1.85239e-06 -3.14855e-07 -1.57233e-06)
(1.67791e-06 -2.38341e-07 -1.63773e-06)
(1.90155e-06 -3.19643e-07 -1.78195e-06)
(1.69817e-06 -2.69878e-07 -1.67302e-06)
(1.64977e-06 -2.63413e-07 -1.47604e-06)
(1.87726e-06 -3.44487e-07 -1.62452e-06)
(8.20004e-07 -9.3888e-08 -1.00214e-06)
(7.09397e-07 -5.13869e-08 -9.81632e-07)
(8.32948e-07 -4.32706e-08 -1.08032e-06)
(6.68425e-07 -3.23417e-08 -8.66199e-07)
(8.46409e-07 -7.72696e-08 -1.10129e-06)
(6.83092e-07 -6.62959e-08 -8.92704e-07)
(8.03691e-07 -6.07362e-08 -9.7149e-07)
(9.03186e-07 5.7368e-08 -1.60786e-06)
(7.87603e-07 6.15384e-08 -1.41037e-06)
(2.08598e-08 1.15614e-08 -4.97194e-08)
(6.41964e-08 3.23685e-08 -1.4194e-07)
(1.54928e-08 -4.22146e-09 -4.33184e-08)
(8.4327e-08 -4.55939e-08 -1.6894e-07)
(7.56116e-08 1.36512e-08 -1.60428e-07)
(1.09671e-08 -5.23341e-09 -2.12259e-08)
(6.1336e-07 -2.28048e-08 -9.42093e-07)
(6.45589e-07 2.24737e-08 -1.03759e-06)
(4.94699e-07 2.69971e-08 -8.14331e-07)
(4.97273e-07 -8.72545e-09 -8.08155e-07)
(5.29547e-07 3.46043e-08 -8.93496e-07)
(1.04909e-10 -2.35645e-10 -6.86514e-12)
(3.83352e-10 -7.41948e-10 1.42362e-11)
(2.41677e-10 -4.03961e-10 3.87816e-12)
(1.02433e-05 -2.02899e-06 -6.87045e-06)
(1.06715e-05 -2.13259e-06 -6.98552e-06)
(1.01241e-05 -2.37764e-06 -4.31785e-06)
(1.01121e-05 -2.30149e-06 -4.70465e-06)
(1.05217e-05 -2.45859e-06 -4.39482e-06)
(1.05575e-05 -2.48716e-06 -4.39035e-06)
(1.05442e-05 -2.41035e-06 -4.7839e-06)
(7.25306e-06 -1.73664e-06 -3.14611e-06)
(6.83583e-06 -1.6176e-06 -2.98106e-06)
(6.89368e-06 -1.59937e-06 -3.37271e-06)
(7.22984e-06 -1.67167e-06 -3.38281e-06)
(7.26843e-06 -1.69565e-06 -3.45158e-06)
(6.87784e-06 -1.63955e-06 -3.07433e-06)
(7.21013e-06 -1.71512e-06 -3.05101e-06)
(9.24512e-06 -2.25005e-06 -3.48353e-06)
(9.67818e-06 -2.31218e-06 -3.89188e-06)
(9.21534e-06 -2.18293e-06 -3.74782e-06)
(9.61725e-06 -2.33896e-06 -3.4417e-06)
(9.25818e-06 -2.20505e-06 -3.82237e-06)
(9.66557e-06 -2.35798e-06 -3.54678e-06)
(9.19769e-06 -2.23062e-06 -3.38001e-06)
(9.82188e-06 -1.92704e-06 -6.75274e-06)
(9.4075e-06 -1.82679e-06 -6.63238e-06)
(6.91384e-06 -1.4922e-06 -4.00484e-06)
(6.91584e-06 -1.5629e-06 -3.67731e-06)
(7.26075e-06 -1.62814e-06 -3.76524e-06)
(7.29019e-06 -1.65831e-06 -3.76334e-06)
(7.28691e-06 -1.58693e-06 -4.09879e-06)
(9.69753e-06 -2.26971e-06 -4.24369e-06)
(9.68673e-06 -2.19424e-06 -4.62359e-06)
(9.24448e-06 -2.13427e-06 -4.17135e-06)
(9.27793e-06 -2.16342e-06 -4.16786e-06)
(9.26837e-06 -2.08863e-06 -4.54072e-06)
(1.05272e-05 -2.57872e-06 -3.66908e-06)
(1.01051e-05 -2.42096e-06 -3.95985e-06)
(1.04936e-05 -2.51031e-06 -3.94868e-06)
(1.00438e-05 -2.44894e-06 -3.50204e-06)
(1.05389e-05 -2.53133e-06 -4.0263e-06)
(1.0093e-05 -2.46755e-06 -3.60862e-06)
(1.04771e-05 -2.56051e-06 -3.56104e-06)
(-2.97501e-12 -5.17028e-14 -4.13e-12)
(-1.85756e-12 -7.1941e-14 -1.70186e-12)
(-2.89969e-12 -4.86905e-14 -4.00254e-12)
(-4.47765e-12 4.8686e-14 -8.4778e-12)
(-8.49789e-13 6.00211e-14 -1.1269e-12)
(-4.49621e-12 4.33357e-14 -8.62367e-12)
(-3.93002e-12 -6.80134e-14 -7.75723e-12)
(-4.50961e-13 8.53549e-14 -4.14346e-13)
(-4.09821e-12 3.79803e-14 -8.0493e-12)
(-9.51454e-13 -6.46875e-13 -1.91366e-12)
(9.16655e-13 -1.28101e-12 9.25893e-13)
(-1.45187e-12 -3.13212e-13 -2.13279e-12)
(-1.33785e-12 4.05604e-14 -8.76318e-13)
(-2.70721e-12 1.00958e-13 -3.5418e-12)
(-2.59797e-12 8.61327e-14 -3.4051e-12)
(-3.01851e-12 4.29852e-14 -4.21901e-12)
(-1.93383e-12 6.13073e-14 -1.88134e-12)
(-2.96499e-12 4.26442e-14 -4.14992e-12)
(-1.64904e-12 1.02571e-13 -1.2805e-12)
(-2.82628e-12 7.73949e-14 -3.78315e-12)
(-2.80107e-12 7.73222e-14 -3.74727e-12)
(1.91572e-06 -1.90573e-07 -2.04876e-06)
(1.68169e-06 -1.69085e-07 -1.76221e-06)
(1.84885e-06 -2.02166e-07 -1.79634e-06)
(1.71626e-06 -1.42424e-07 -1.92551e-06)
(1.64965e-06 -1.52168e-07 -1.68786e-06)
(1.03106e-06 7.21983e-08 -1.79818e-06)
(1.1641e-06 5.87863e-08 -1.99032e-06)
(6.89647e-07 6.73877e-08 -1.00704e-06)
(8.47754e-07 2.09834e-08 -1.17067e-06)
(7.5081e-07 6.3586e-08 -1.15047e-06)
(8.8439e-07 4.01268e-08 -1.28377e-06)
(8.2149e-07 4.12811e-08 -1.12378e-06)
(4.18288e-08 8.53083e-08 -1.41063e-07)
(1.01965e-08 2.50932e-08 -4.04997e-08)
(5.45444e-08 5.99126e-08 -1.41399e-07)
(1.82389e-08 5.32667e-08 -5.65145e-08)
(4.33326e-08 5.58461e-08 -1.24969e-07)
(5.3674e-08 9.22822e-08 -1.5897e-07)
(1.26924e-08 4.70473e-08 -4.96636e-08)
(4.00746e-07 7.56165e-08 -6.19191e-07)
(5.38535e-07 7.06625e-08 -8.03694e-07)
(5.27803e-07 2.67187e-08 -7.36707e-07)
(4.46357e-07 6.03665e-08 -7.12141e-07)
(4.17583e-07 4.67558e-08 -6.34281e-07)
(5.08541e-07 5.50062e-08 -7.16353e-07)
(4.29599e-07 8.92444e-08 -6.95454e-07)
(1.5896e-06 -2.07263e-07 -1.37383e-06)
(1.82177e-06 -2.84438e-07 -1.51495e-06)
(1.65026e-06 -2.05259e-07 -1.58669e-06)
(1.81986e-06 -2.3207e-07 -1.63323e-06)
(1.62056e-06 -2.32512e-07 -1.42234e-06)
(1.62017e-06 -1.80941e-07 -1.53408e-06)
(1.78964e-06 -2.5954e-07 -1.46308e-06)
(7.59393e-07 2.08946e-10 -9.09227e-07)
(6.58828e-07 4.7351e-08 -9.11396e-07)
(8.13668e-07 -7.25538e-09 -1.05011e-06)
(6.49617e-07 2.11621e-09 -8.38274e-07)
(7.82871e-07 -2.7021e-08 -9.38746e-07)
(7.90521e-07 1.94932e-08 -1.01814e-06)
(6.28097e-07 2.98271e-08 -8.13172e-07)
(9.07486e-07 8.11039e-08 -1.60447e-06)
(7.92504e-07 8.55087e-08 -1.40922e-06)
(2.75248e-08 4.28532e-08 -5.83893e-08)
(6.75145e-08 7.03308e-08 -1.58291e-07)
(2.225e-08 6.13745e-08 -6.93004e-08)
(8.29986e-08 7.82913e-08 -1.76051e-07)
(6.68385e-08 9.91663e-08 -1.82054e-07)
(5.68898e-07 8.88252e-08 -8.89206e-07)
(6.27714e-07 8.22135e-08 -1.01557e-06)
(4.79205e-07 8.21116e-08 -7.97989e-07)
(5.14659e-07 9.56406e-08 -8.79182e-07)
(4.59135e-07 1.05375e-07 -7.70594e-07)
(2.16445e-06 -2.93765e-07 -2.24413e-06)
(2.14468e-06 -3.51621e-07 -2.0603e-06)
(2.35375e-06 -3.73361e-07 -2.17426e-06)
(2.36914e-06 -4.06869e-07 -2.17499e-06)
(2.38741e-06 -3.47994e-07 -2.36851e-06)