/*--------------------------------*- C++ -*----------------------------------*\
| =========                 |                                                 |
| \\      /  F ield         | OpenFOAM: The Open Source CFD Toolbox           |
|  \\    /   O peration     | Version:  2012                                  |
|   \\  /    A nd           | Website:  www.openfoam.com                      |
|    \\/     M anipulation  |                                                 |
\*---------------------------------------------------------------------------*/
FoamFile
{
    version     2.0;
    format      ascii;
    class       volVectorField;
    location    "0.108/solid";
    object      D_0_0;
}
// * * * * * * * * * * * * * * * * * * * * * * * * * * * * * * * * * * * * * //

dimensions      [0 1 0 0 0 0 0];


internalField   nonuniform List<vector> 
3125
(
(6.81425e-13 -4.36481e-13 1.43745e-11)
(1.50085e-11 -5.54927e-11 1.4084e-11)
(-1.13215e-12 -7.30692e-13 2.81552e-11)
(6.75973e-13 -4.50895e-13 1.4513e-11)
(-1.2613e-12 -6.22544e-13 2.76624e-11)
(1.26345e-11 -6.34697e-11 3.3767e-11)
(1.08824e-11 -3.71927e-11 1.57327e-11)
(2.46015e-11 -1.29205e-10 3.73851e-11)
(4.5699e-13 -1.98939e-14 1.35556e-11)
(5.17597e-09 7.28184e-09 -2.56157e-08)
(1.35139e-06 -4.1182e-07 -5.58538e-07)
(5.6625e-06 -1.80307e-06 -1.08637e-06)
(-1.59092e-12 -1.13151e-13 2.64002e-11)
(-1.51288e-12 -2.48008e-13 2.65483e-11)
(4.70123e-13 -6.5182e-14 1.35862e-11)
(-1.86451e-09 1.66939e-08 -2.33051e-08)
(1.28778e-06 -3.92514e-07 -4.3799e-07)
(5.06535e-06 -1.61714e-06 -1.03701e-06)
(1.70211e-06 -5.28666e-07 -6.27129e-07)
(4.95408e-06 -1.60249e-06 -8.36199e-07)
(1.63216e-06 -5.10011e-07 -4.93659e-07)
(5.54547e-06 -1.78897e-06 -8.78878e-07)
(-1.17878e-13 -1.72232e-13 9.47268e-13)
(4.5063e-13 -1.67669e-13 1.36693e-11)
(-3.87562e-13 -8.60988e-14 2.11977e-13)
(7.66553e-12 -7.40837e-12 3.87397e-12)
(5.46135e-11 -7.62937e-10 2.33536e-11)
(1.42821e-10 -2.66738e-10 1.02681e-11)
(-5.95283e-14 -1.83359e-13 1.08943e-12)
(-1.53687e-12 -2.94475e-13 2.66484e-11)
(6.72451e-13 -7.06595e-12 2.85797e-11)
(1.75644e-12 -2.57421e-12 1.45006e-11)
(5.1446e-12 -4.40459e-12 3.00751e-12)
(1.43072e-13 -4.66053e-14 8.29927e-13)
(-1.27451e-12 -1.18992e-13 -1.2806e-13)
(-1.51176e-12 -7.73494e-14 -7.53461e-13)
(4.5379e-13 -1.63324e-13 1.36215e-11)
(-5.12032e-13 4.30432e-15 -9.2693e-14)
(-4.02686e-13 -8.05192e-14 1.70999e-13)
(-1.63877e-12 -7.36205e-15 -1.04027e-12)
(-1.52609e-12 -5.02097e-14 -7.89127e-13)
(1.55817e-06 -2.33413e-07 -1.57563e-06)
(5.97889e-07 -1.03154e-09 -8.73107e-07)
(3.36511e-12 -3.26706e-12 2.52484e-12)
(9.74168e-11 -1.6176e-10 4.68725e-12)
(-3.88068e-11 -1.0989e-09 -1.1833e-10)
(3.17811e-07 -6.97213e-08 -2.5379e-07)
(1.00001e-08 9.00148e-09 -3.16995e-08)
(4.65672e-07 6.49871e-09 -6.85444e-07)
(1.58343e-10 -6.55276e-10 -1.8598e-11)
(1.52685e-06 -2.59458e-07 -1.41395e-06)
(5.19109e-07 -1.35877e-07 -3.35839e-07)
(5.66958e-07 -1.26193e-08 -7.81017e-07)
(1.35494e-08 1.20213e-08 -3.70541e-08)
(4.95922e-07 1.55389e-08 -7.671e-07)
(1.27281e-10 -4.0699e-10 -1.12607e-11)
(8.18043e-06 -2.10084e-06 -3.49899e-06)
(5.55926e-06 -1.43595e-06 -2.67741e-06)
(7.60527e-06 -2.39286e-06 -1.22176e-06)
(7.80934e-06 -2.0695e-06 -3.08954e-06)
(5.58694e-06 -1.38365e-06 -2.9806e-06)
(7.83561e-06 -2.00721e-06 -3.43903e-06)
(8.29975e-06 -2.59833e-06 -1.26278e-06)
(8.15436e-06 -2.16455e-06 -3.14346e-06)
(-1.21666e-12 -1.5067e-13 1.06636e-14)
(-1.58743e-12 -2.22018e-13 2.64745e-11)
(-3.94566e-13 -3.23811e-12 2.78056e-11)
(1.3982e-12 -1.58263e-12 1.43669e-11)
(-4.61918e-13 7.92388e-15 1.4202e-14)
(-1.21519e-13 1.66994e-14 4.61723e-13)
(1.76815e-12 -1.83724e-12 1.64732e-12)
(-1.20176e-12 7.16283e-14 -2.45171e-13)
(-1.59613e-12 1.92158e-14 -9.44374e-13)
(-1.40543e-12 6.99286e-14 -5.99218e-13)
(1.51959e-06 -1.95187e-07 -1.51381e-06)
(5.7661e-07 4.17153e-08 -8.46625e-07)
(2.86443e-07 -4.77408e-08 -1.98965e-07)
(1.18561e-08 2.39902e-08 -3.66542e-08)
(4.50545e-07 3.69531e-08 -6.67313e-07)
(1.49576e-06 -2.3311e-07 -1.36356e-06)
(4.77167e-07 -1.13364e-07 -2.60773e-07)
(5.49494e-07 1.71193e-08 -7.5821e-07)
(1.59217e-08 3.09562e-08 -4.14295e-08)
(4.77461e-07 5.92549e-08 -7.46427e-07)
(1.73078e-06 -2.80943e-07 -1.67003e-06)
(3.17528e-06 -6.93327e-07 -2.28923e-06)
(3.44027e-06 -1.0997e-06 -8.75594e-07)
(5.263e-06 -1.35079e-06 -2.6135e-06)
(3.38449e-06 -8.02755e-07 -2.13018e-06)
(1.69966e-06 -3.08744e-07 -1.49893e-06)
(2.95764e-06 -9.42832e-07 -8.1718e-07)
(3.14567e-06 -7.32371e-07 -2.05594e-06)
(5.2909e-06 -1.29993e-06 -2.90951e-06)
(3.41388e-06 -7.622e-07 -2.37182e-06)
(1.69e-06 -2.43281e-07 -1.60397e-06)
(3.12031e-06 -6.59571e-07 -2.19817e-06)
(3.34639e-06 -1.0834e-06 -6.99026e-07)
(5.20772e-06 -1.33066e-06 -2.52411e-06)
(3.33922e-06 -7.79918e-07 -2.05455e-06)
(1.66685e-06 -2.82797e-07 -1.44523e-06)
(2.86962e-06 -9.25963e-07 -6.50175e-07)
(3.10188e-06 -7.09147e-07 -1.98265e-06)
(5.22117e-06 -1.27068e-06 -2.79799e-06)
(3.35701e-06 -7.29005e-07 -2.27777e-06)
(8.09483e-06 -2.07658e-06 -3.3724e-06)
(5.50257e-06 -1.4162e-06 -2.5864e-06)
(7.47108e-06 -2.38039e-06 -9.97936e-07)
(7.743e-06 -2.05243e-06 -2.98932e-06)
(5.51542e-06 -1.35496e-06 -2.86703e-06)
(7.75174e-06 -1.9824e-06 -3.31377e-06)
(8.15988e-06 -2.58639e-06 -1.03464e-06)
(8.08666e-06 -2.14785e-06 -3.04219e-06)
(-2.38761e-12 -3.02674e-13 1.02509e-11)
(5.60227e-13 -2.91828e-13 1.40334e-11)
(-2.50659e-12 -2.17762e-13 9.91264e-12)
(9.9511e-12 -2.72125e-11 1.07457e-11)
(3.05301e-11 -1.69181e-10 1.32068e-11)
(3.00484e-11 -9.60038e-11 6.97435e-12)
(-9.53931e-13 -8.76395e-13 2.87674e-11)
(8.94553e-13 -6.06847e-13 1.5087e-11)
(-2.35442e-12 -3.16069e-13 1.0377e-11)
(-2.24488e-12 -4.09106e-13 1.08443e-11)
(-1.34466e-12 -4.99657e-13 2.72472e-11)
(6.13983e-12 -3.10655e-11 3.13115e-11)
(4.98362e-12 -1.23818e-11 1.5219e-11)
(6.18794e-12 -1.7905e-11 1.10398e-11)
(5.61794e-13 -5.11481e-12 1.08826e-11)
(4.4589e-13 -7.947e-14 1.35591e-11)
(-2.65203e-12 1.16067e-14 9.46768e-12)
(-2.67688e-12 -4.16657e-14 9.43997e-12)
(1.6736e-06 -1.28481e-07 -2.1355e-06)
(1.21468e-06 -2.61956e-08 -1.7486e-06)
(-6.46684e-09 -1.20064e-08 -1.73113e-09)
(5.84477e-08 2.81154e-08 -8.38516e-08)
(8.72069e-09 4.62462e-09 -3.81796e-08)
(9.61988e-08 1.86515e-08 -1.7389e-07)
(3.28368e-09 -4.77208e-09 -1.62099e-09)
(1.4541e-06 -3.70213e-07 -8.79084e-07)
(1.0365e-06 -3.06865e-07 -4.87206e-07)
(9.85187e-07 -2.23415e-07 -7.13769e-07)
(3.36616e-08 3.03995e-09 -3.17667e-08)
(2.70728e-07 4.7533e-08 -4.772e-07)
(9.66927e-06 -2.22341e-06 -5.02339e-06)
(5.51002e-06 -1.63409e-06 -1.66104e-06)
(6.28558e-06 -1.99471e-06 -1.1336e-06)
(6.44141e-06 -1.91265e-06 -1.77438e-06)
(5.66685e-06 -1.1828e-06 -4.01901e-06)
(6.58774e-06 -1.42722e-06 -4.29504e-06)
(9.75272e-06 -3.01965e-06 -1.33887e-06)
(9.55374e-06 -2.80923e-06 -2.07147e-06)
(-1.58998e-12 -1.18021e-13 2.63579e-11)
(-1.30626e-12 -5.83606e-13 2.68237e-11)
(6.87712e-13 -1.99133e-13 1.38456e-11)
(-2.64213e-12 6.53216e-15 9.48837e-12)
(-2.56405e-12 -9.19463e-15 9.65988e-12)
(1.65216e-06 -9.44501e-08 -2.0992e-06)
(1.19836e-06 9.16475e-09 -1.72217e-06)
(4.21356e-08 2.29144e-08 -7.62812e-08)
(1.09146e-09 1.2787e-08 -2.06021e-08)
(8.69611e-08 4.18562e-08 -1.65966e-07)
(1.41442e-06 -3.50385e-07 -8.09005e-07)
(9.79529e-07 -2.86776e-07 -3.80554e-07)
(9.51561e-07 -2.0254e-07 -6.56385e-07)
(4.45962e-08 4.36854e-08 -6.60816e-08)
(2.73619e-07 9.18823e-08 -4.96979e-07)
(1.84411e-06 -1.69596e-07 -2.26101e-06)
(2.40716e-06 -3.11838e-07 -2.62689e-06)
(4.4952e-06 -1.43751e-06 -9.85452e-07)
(5.21244e-06 -1.54408e-06 -1.62203e-06)
(4.36055e-06 -1.28361e-06 -1.49903e-06)
(1.62836e-06 -4.25309e-07 -9.31827e-07)
(2.08747e-06 -6.566e-07 -6.93032e-07)
(2.2027e-06 -6.07499e-07 -1.08589e-06)
(5.37285e-06 -1.10425e-06 -3.92324e-06)
(4.53164e-06 -8.785e-07 -3.62462e-06)
(1.82101e-06 -1.3602e-07 -2.22171e-06)
(2.37923e-06 -2.79674e-07 -2.57931e-06)
(4.38972e-06 -1.42232e-06 -7.9201e-07)
(5.14418e-06 -1.52902e-06 -1.50459e-06)
(4.29727e-06 -1.26769e-06 -1.38818e-06)
(1.58657e-06 -4.0582e-07 -8.5779e-07)
(2.01137e-06 -6.38567e-07 -5.47544e-07)
(2.15542e-06 -5.88926e-07 -1.00096e-06)
(5.3276e-06 -1.07812e-06 -3.85194e-06)
(4.49048e-06 -8.50837e-07 -3.55805e-06)
(9.60733e-06 -2.20378e-06 -4.93838e-06)
(5.43991e-06 -1.61933e-06 -1.54159e-06)
(6.16282e-06 -1.98116e-06 -9.20057e-07)
(6.36636e-06 -1.89872e-06 -1.64952e-06)
(5.62025e-06 -1.15718e-06 -3.94628e-06)
(6.53719e-06 -1.40312e-06 -4.21845e-06)
(9.60162e-06 -3.00877e-06 -1.1036e-06)
(9.46346e-06 -2.79783e-06 -1.93491e-06)
(-5.21067e-12 -2.74653e-13 8.05795e-12)
(-2.30829e-13 -1.30085e-13 5.9296e-13)
(-5.33279e-12 -1.87908e-13 7.71788e-12)
(5.61986e-13 -3.02116e-13 1.39413e-11)
(-2.58414e-12 -1.28258e-13 9.61106e-12)
(-2.53242e-12 -2.0603e-13 9.82192e-12)
(-2.63385e-13 -1.20372e-13 5.13179e-13)
(-5.40422e-12 -1.09528e-13 7.43251e-12)
(-5.3555e-12 -1.87521e-13 7.63022e-12)
(5.74259e-12 -2.04322e-11 8.94908e-12)
(2.45583e-11 -3.19345e-11 4.99395e-12)
(2.61346e-11 -7.39577e-11 6.55855e-12)
(3.96063e-11 -2.43532e-10 -2.20794e-12)
(1.05777e-10 -5.40481e-10 -2.32445e-11)
(4.65993e-11 -1.52726e-10 3.52359e-12)
(3.46379e-11 -5.85852e-11 4.38307e-12)
(1.18281e-10 -4.26018e-10 -1.30786e-11)
(4.00625e-11 -1.25189e-10 3.63709e-12)
(-2.20385e-12 -4.28568e-13 1.10157e-11)
(-5.18002e-12 -2.6943e-13 8.17868e-12)
(1.35439e-13 -2.23489e-13 1.61452e-12)
(-5.08061e-12 -3.61774e-13 8.61952e-12)
(2.11353e-13 -2.37692e-13 1.80937e-12)
(-5.04211e-12 -3.69343e-13 8.78123e-12)
(-1.43369e-12 -4.10285e-13 2.69174e-11)
(2.63609e-12 -1.49323e-11 2.97294e-11)
(3.72532e-12 -8.06291e-12 1.52357e-11)
(-1.83526e-12 -8.56094e-13 1.02387e-11)
(-3.6124e-13 -3.34759e-12 1.07604e-11)
(2.37604e-12 -1.30564e-11 9.07625e-12)
(1.63924e-12 -1.00623e-12 1.88237e-12)
(-2.77766e-12 -3.59475e-12 8.66754e-12)
(-4.8446e-12 -5.43973e-13 7.99495e-12)
(9.81986e-13 -5.90357e-13 1.39061e-12)
(-3.57531e-12 -2.29775e-12 8.52817e-12)
(-1.00609e-12 -5.87488e-15 -2.09423e-12)
(-1.38227e-12 -1.10311e-13 -4.22041e-13)
(-1.0517e-12 -1.29975e-14 -2.18448e-12)
(-1.41329e-12 -8.22917e-14 -4.9694e-13)
(-1.13281e-12 -1.16873e-14 -2.28314e-12)
(-1.08132e-12 -3.40064e-15 -2.22221e-12)
(4.43681e-13 -5.02241e-14 1.35668e-11)
(-2.60415e-12 -1.1963e-13 9.55972e-12)
(-2.66626e-12 -4.80223e-14 9.46391e-12)
(-5.49511e-12 1.97056e-14 7.27413e-12)
(-4.47635e-13 -3.50962e-14 3.35438e-14)
(-5.50815e-12 -4.44217e-14 7.24386e-12)
(-5.42438e-12 -1.1901e-13 7.38109e-12)
(-4.62351e-13 -4.27957e-14 3.80025e-16)
(-5.49697e-12 -4.11525e-14 7.27086e-12)
(-1.21247e-12 -5.69567e-15 -2.39239e-12)
(-1.58344e-12 -1.82379e-14 -9.19307e-13)
(-1.19371e-12 1.05435e-15 -2.38446e-12)
(-1.16387e-12 -7.12656e-16 -2.32247e-12)
(-1.59567e-12 -4.58166e-14 -9.46778e-13)
(-1.17346e-12 -8.81677e-15 -2.35737e-12)
(1.64016e-06 -1.55663e-07 -1.98519e-06)
(1.09319e-06 -1.10938e-07 -1.28346e-06)
(1.17928e-06 -4.78737e-08 -1.62289e-06)
(7.24878e-07 5.45573e-08 -1.2091e-06)
(1.07932e-06 3.13906e-10 -1.61626e-06)
(9.56014e-07 -7.7371e-08 -1.18308e-06)
(6.87293e-07 4.0341e-08 -1.1162e-06)
(1.04331e-06 -1.94919e-08 -1.49877e-06)
(-6.68488e-13 4.93805e-17 -1.6347e-12)
(1.37005e-11 -1.60162e-11 3.49622e-12)
(-1.60333e-13 -2.67148e-13 -1.23268e-12)
(2.0541e-11 -3.01449e-11 3.37783e-12)
(3.63798e-12 -4.47971e-12 -6.92485e-13)
(-4.26912e-14 -5.08273e-13 -1.35538e-12)
(-2.54255e-09 -4.7528e-09 1.74957e-09)
(1.9793e-10 -9.88687e-10 -4.7527e-11)
(2.14188e-10 -3.98713e-09 -8.46818e-10)
(1.6073e-07 -2.08229e-08 -1.70468e-07)
(3.90395e-07 -4.75508e-08 -4.20359e-07)
(1.52399e-07 1.04777e-08 -2.33452e-07)
(1.23226e-08 -5.69175e-10 -5.01115e-08)
(1.47123e-07 3.50196e-08 -2.93591e-07)
(2.10189e-09 -1.3063e-08 -2.67493e-09)
(1.04299e-07 2.2312e-08 -2.00105e-07)
(4.56856e-09 -1.81102e-09 -6.61962e-10)
(4.05744e-07 -3.4467e-08 -4.83986e-07)
(2.14761e-07 3.53523e-08 -3.91806e-07)
(1.6447e-07 1.63453e-08 -2.70854e-07)
(2.04288e-10 -9.50036e-10 -4.80855e-11)
(1.40243e-09 -2.87863e-09 9.05667e-11)
(8.90465e-10 -2.69057e-09 -7.36332e-10)
(1.46916e-06 -3.43376e-07 -1.01009e-06)
(1.06149e-06 -1.31335e-07 -1.15077e-06)
(1.00092e-06 -2.01091e-07 -8.20535e-07)
(7.58608e-07 -2.14477e-07 -4.12929e-07)
(4.90098e-07 -7.52348e-08 -4.80791e-07)
(8.4716e-07 -1.81003e-07 -6.57253e-07)
(9.2429e-07 -9.57224e-08 -1.0603e-06)
(5.05835e-07 -6.00158e-08 -5.53413e-07)
(8.63065e-07 -1.60329e-07 -7.55329e-07)
(6.22969e-07 6.35739e-08 -1.06975e-06)
(3.53542e-07 6.04844e-08 -6.32642e-07)
(2.36034e-08 7.05006e-09 -4.38997e-08)
(1.69018e-07 3.20269e-08 -3.31801e-07)
(1.79402e-09 -1.12611e-08 -1.68903e-09)
(2.36873e-07 4.15723e-08 -4.32418e-07)
(3.0195e-10 -3.23359e-10 2.95948e-11)
(5.85078e-07 5.11303e-08 -9.85146e-07)
(2.39026e-07 3.63393e-08 -4.40111e-07)
(3.17064e-07 5.3049e-08 -5.74984e-07)
(7.72421e-12 -1.0034e-11 -3.32276e-13)
(1.22384e-09 -2.30313e-09 8.0458e-11)
(9.23953e-11 -2.105e-10 -3.81931e-13)
(8.24417e-06 -1.85956e-06 -4.71792e-06)
(9.30519e-06 -2.13117e-06 -4.94972e-06)
(9.61342e-06 -2.48437e-06 -3.72534e-06)
(9.65505e-06 -2.29378e-06 -4.67813e-06)
(8.22739e-06 -1.92458e-06 -4.39364e-06)
(9.24738e-06 -2.38724e-06 -3.67076e-06)
(9.29033e-06 -2.20022e-06 -4.60952e-06)
(5.52011e-06 -1.58573e-06 -1.91166e-06)
(6.48688e-06 -1.70001e-06 -2.86153e-06)
(6.45074e-06 -1.86067e-06 -2.04237e-06)
(6.93353e-06 -2.19149e-06 -1.17871e-06)
(7.76885e-06 -2.30132e-06 -1.91416e-06)
(6.76441e-06 -2.0081e-06 -1.81024e-06)
(6.80859e-06 -1.79066e-06 -2.9204e-06)
(7.77715e-06 -2.24457e-06 -2.20397e-06)
(6.77345e-06 -1.95493e-06 -2.08406e-06)
(7.90134e-06 -1.7709e-06 -4.63703e-06)
(6.90722e-06 -1.51137e-06 -4.38331e-06)
(5.64482e-06 -1.23674e-06 -3.74254e-06)
(6.51395e-06 -1.64341e-06 -3.18543e-06)
(6.5677e-06 -1.48538e-06 -3.99972e-06)
(7.88391e-06 -1.83457e-06 -4.31829e-06)
(6.83546e-06 -1.73263e-06 -3.2509e-06)
(6.88784e-06 -1.57092e-06 -4.08195e-06)
(9.58813e-06 -2.5537e-06 -3.34701e-06)
(9.56076e-06 -2.74658e-06 -2.38619e-06)
(9.01591e-06 -2.8074e-06 -1.3018e-06)
(8.11514e-06 -2.40113e-06 -1.94694e-06)
(9.18627e-06 -2.70599e-06 -2.04168e-06)
(9.2219e-06 -2.45517e-06 -3.29792e-06)
(8.12315e-06 -2.3432e-06 -2.24211e-06)
(9.19357e-06 -2.64451e-06 -2.3515e-06)
(-9.70603e-13 -1.62614e-14 -2.04876e-12)
(-1.06518e-12 -1.57338e-13 4.40246e-13)
(-8.78411e-13 -8.64277e-15 -1.92692e-12)
(-9.92173e-13 -1.89155e-13 6.19485e-13)
(-8.41119e-13 -1.84299e-14 -1.8768e-12)
(-1.58866e-12 -1.40806e-13 2.63795e-11)
(-9.70287e-13 -1.43326e-12 2.72298e-11)
(7.79068e-13 -4.41846e-13 1.39433e-11)
(-2.07477e-12 -5.06728e-13 1.01089e-11)
(-2.50655e-12 -6.72053e-14 9.73129e-12)
(-5.49103e-12 2.27813e-15 7.28844e-12)
(-4.23744e-13 3.57912e-14 4.76258e-14)
(-5.45187e-12 2.20698e-14 7.43222e-12)
(-5.04653e-12 -2.88592e-13 7.86949e-12)
(-3.21137e-13 3.89928e-14 2.35749e-13)
(-5.41021e-12 -2.02232e-14 7.49368e-12)
(-8.08102e-13 1.1998e-14 -1.79994e-12)
(-3.11889e-13 -3.11446e-13 6.42534e-13)
(-1.03453e-12 1.10147e-14 -2.14514e-12)
(-7.29472e-13 -1.64421e-13 2.0193e-13)
(-1.1419e-12 1.82611e-14 -2.29418e-12)
(-1.00788e-12 2.85761e-15 -2.11631e-12)
(-1.22896e-12 5.38089e-15 -2.41526e-12)
(-1.60126e-12 2.70843e-14 -9.38196e-13)
(-1.19718e-12 -4.68164e-15 -2.38718e-12)
(-1.52205e-12 5.66794e-14 -7.7201e-13)
(-1.17275e-12 7.72728e-15 -2.32123e-12)
(-1.22733e-12 5.271e-15 -2.42149e-12)
(1.61186e-06 -1.17217e-07 -1.93914e-06)
(1.0616e-06 -7.09605e-08 -1.2355e-06)
(1.15707e-06 -7.8369e-09 -1.58875e-06)
(7.15405e-07 9.18096e-08 -1.19788e-06)
(1.06473e-06 3.61171e-08 -1.59341e-06)
(9.26889e-07 -3.67637e-08 -1.14015e-06)
(6.73541e-07 8.28068e-08 -1.10052e-06)
(1.02319e-06 2.10977e-08 -1.46895e-06)
(1.40467e-07 4.29115e-09 -1.35624e-07)
(3.69344e-07 -2.43267e-08 -3.88663e-07)
(1.4095e-07 3.47004e-08 -2.20756e-07)
(3.1664e-09 1.50968e-08 -2.42848e-08)
(1.43362e-07 6.9952e-08 -2.95734e-07)
(9.82531e-08 4.92449e-08 -1.96618e-07)
(3.86011e-07 -8.49516e-09 -4.55749e-07)
(2.06994e-07 6.86233e-08 -3.90131e-07)
(1.54432e-07 4.40118e-08 -2.61028e-07)
(1.43105e-06 -3.21131e-07 -9.4463e-07)
(1.03584e-06 -1.03713e-07 -1.11118e-06)
(9.68915e-07 -1.77686e-07 -7.67435e-07)
(7.08754e-07 -1.93587e-07 -3.21373e-07)
(4.6601e-07 -5.24846e-08 -4.43108e-07)
(8.15904e-07 -1.59726e-07 -6.0452e-07)
(9.00585e-07 -6.76346e-08 -1.02464e-06)
(4.83262e-07 -3.4605e-08 -5.19452e-07)
(8.33285e-07 -1.36494e-07 -7.06715e-07)
(6.1518e-07 1.0144e-07 -1.06275e-06)
(3.52794e-07 1.01687e-07 -6.43928e-07)
(3.43026e-08 4.1267e-08 -5.8715e-08)
(1.63249e-07 8.25132e-08 -3.35283e-07)
(2.38191e-07 9.23417e-08 -4.49665e-07)
(5.73483e-07 9.44321e-08 -9.74543e-07)
(2.29884e-07 8.33494e-08 -4.40214e-07)
(3.14279e-07 1.00177e-07 -5.85081e-07)
(1.81134e-06 -1.98556e-07 -2.10257e-06)
(2.30019e-06 -4.41609e-07 -1.94425e-06)
(2.37641e-06 -3.45949e-07 -2.44438e-06)
(3.27382e-06 -5.4052e-07 -3.08909e-06)
(2.61166e-06 -3.65084e-07 -2.74522e-06)
(2.5068e-06 -5.00757e-07 -2.0327e-06)
(3.24576e-06 -5.81093e-07 -2.87568e-06)
(2.58158e-06 -4.00849e-07 -2.55484e-06)
(3.95315e-06 -1.26482e-06 -9.31665e-07)
(3.32465e-06 -9.61608e-07 -1.32382e-06)
(4.09053e-06 -1.20023e-06 -1.45678e-06)
(5.22283e-06 -1.49692e-06 -1.86634e-06)
(4.41499e-06 -1.10494e-06 -2.41411e-06)
(4.37172e-06 -1.24008e-06 -1.72459e-06)
(3.33696e-06 -9.22984e-07 -1.52247e-06)
(4.14635e-06 -1.02648e-06 -2.34508e-06)
(4.10203e-06 -1.15792e-06 -1.67555e-06)
(1.64308e-06 -3.97055e-07 -1.07106e-06)
(2.2697e-06 -4.74408e-07 -1.74571e-06)
(2.21655e-06 -5.75214e-07 -1.248e-06)
(2.50634e-06 -7.94896e-07 -7.56353e-07)
(3.08439e-06 -8.86185e-07 -1.27823e-06)
(2.41103e-06 -6.73538e-07 -1.13497e-06)
(2.47653e-06 -5.35153e-07 -1.82526e-06)
(3.09704e-06 -8.48806e-07 -1.4696e-06)
(2.42454e-06 -6.39953e-07 -1.30483e-06)
(3.51032e-06 -6.03843e-07 -3.19997e-06)
(4.26529e-06 -8.0683e-07 -3.5213e-06)
(5.35016e-06 -1.15677e-06 -3.65331e-06)
(4.44351e-06 -1.05846e-06 -2.68769e-06)
(4.50695e-06 -9.26653e-07 -3.375e-06)
(3.48294e-06 -6.4597e-07 -2.9791e-06)
(4.17509e-06 -9.81465e-07 -2.61088e-06)
(4.23993e-06 -8.53502e-07 -3.27868e-06)
(1.78107e-06 -1.60641e-07 -2.05289e-06)
(2.2531e-06 -4.0562e-07 -1.86655e-06)
(2.34047e-06 -3.09648e-07 -2.38476e-06)
(3.23979e-06 -5.10324e-07 -3.03209e-06)
(2.58216e-06 -3.33404e-07 -2.69512e-06)
(2.45769e-06 -4.65324e-07 -1.95143e-06)
(3.2027e-06 -5.47012e-07 -2.80474e-06)
(2.54381e-06 -3.65098e-07 -2.4922e-06)
(3.85346e-06 -1.24907e-06 -7.46293e-07)
(3.2683e-06 -9.4453e-07 -1.2233e-06)
(4.02914e-06 -1.18401e-06 -1.34835e-06)
(5.15703e-06 -1.48e-06 -1.75524e-06)
(4.36394e-06 -1.08366e-06 -2.33007e-06)
(4.31082e-06 -1.22219e-06 -1.61983e-06)
(3.28274e-06 -9.0379e-07 -1.42763e-06)
(4.09673e-06 -1.00481e-06 -2.263e-06)
(4.04282e-06 -1.1397e-06 -1.5731e-06)
(1.60303e-06 -3.75173e-07 -1.00179e-06)
(2.23201e-06 -4.49637e-07 -1.68289e-06)
(2.17102e-06 -5.54361e-07 -1.16817e-06)
(2.42424e-06 -7.77453e-07 -5.99699e-07)
(3.02995e-06 -8.68801e-07 -1.18059e-06)
(2.36178e-06 -6.55281e-07 -1.04665e-06)
(2.43728e-06 -5.10769e-07 -1.75966e-06)
(3.04454e-06 -8.2928e-07 -1.37752e-06)
(2.3772e-06 -6.19439e-07 -1.22176e-06)
(3.47483e-06 -5.74149e-07 -3.14088e-06)
(4.22553e-06 -7.78657e-07 -3.45647e-06)
(5.2939e-06 -1.12723e-06 -3.56516e-06)
(4.37922e-06 -1.02751e-06 -2.58296e-06)
(4.45552e-06 -8.95409e-07 -3.29254e-06)
(3.43817e-06 -6.12451e-07 -2.90563e-06)
(4.11263e-06 -9.49958e-07 -2.50864e-06)
(4.19013e-06 -8.21686e-07 -3.19832e-06)
(8.18721e-06 -1.83797e-06 -4.63613e-06)
(9.24448e-06 -2.11106e-06 -4.86544e-06)
(9.52093e-06 -2.46227e-06 -3.59417e-06)
(9.57896e-06 -2.27151e-06 -4.57353e-06)
(8.15725e-06 -1.90012e-06 -4.29288e-06)
(9.1566e-06 -2.36461e-06 -3.54063e-06)
(9.21571e-06 -2.17741e-06 -4.5058e-06)
(5.45264e-06 -1.56913e-06 -1.79864e-06)
(6.42603e-06 -1.68142e-06 -2.76615e-06)
(6.37841e-06 -1.84504e-06 -1.92415e-06)
(6.80504e-06 -2.17848e-06 -9.59741e-07)
(7.68705e-06 -2.28852e-06 -1.78332e-06)
(6.68751e-06 -1.99447e-06 -1.68375e-06)
(6.74636e-06 -1.77245e-06 -2.8237e-06)
(7.69835e-06 -2.23021e-06 -2.08001e-06)
(6.69947e-06 -1.93962e-06 -1.96428e-06)
(7.84565e-06 -1.74881e-06 -4.55616e-06)
(6.85537e-06 -1.48778e-06 -4.30556e-06)
(5.58698e-06 -1.20778e-06 -3.65268e-06)
(6.4371e-06 -1.61639e-06 -3.0663e-06)
(6.50518e-06 -1.45812e-06 -3.90521e-06)
(7.81528e-06 -1.80955e-06 -4.21865e-06)
(6.75684e-06 -1.70617e-06 -3.13011e-06)
(6.82377e-06 -1.54422e-06 -3.98605e-06)
(9.51502e-06 -2.53848e-06 -3.24214e-06)
(9.47394e-06 -2.73378e-06 -2.25673e-06)
(8.87041e-06 -2.796e-06 -1.06986e-06)
(8.0315e-06 -2.38863e-06 -1.81481e-06)
(9.0978e-06 -2.69431e-06 -1.90612e-06)
(9.15013e-06 -2.43959e-06 -3.19388e-06)
(8.04271e-06 -2.32915e-06 -2.11691e-06)
(9.10837e-06 -2.6314e-06 -2.22301e-06)
(1.77036e-06 -8.6554e-08 -2.52939e-06)
(1.61027e-06 -5.44906e-08 -2.38123e-06)
(8.8432e-08 -1.42376e-08 -1.03374e-07)
(1.97067e-07 5.57031e-09 -2.76823e-07)
(5.73258e-06 -1.05614e-06 -4.73589e-06)
(6.03131e-06 -1.13189e-06 -4.84614e-06)
(1.76671e-06 -6.8852e-08 -2.51459e-06)
(1.60758e-06 -3.65612e-08 -2.36788e-06)
(9.27511e-08 2.00476e-08 -1.11366e-07)
(2.07019e-07 3.19047e-08 -3.00798e-07)
(1.93915e-06 -1.22044e-07 -2.67575e-06)
(2.11657e-06 -1.60832e-07 -2.82023e-06)
(5.44044e-06 -9.81972e-07 -4.62346e-06)
(5.155e-06 -9.09454e-07 -4.50882e-06)
(1.93454e-06 -1.04578e-07 -2.65955e-06)
(2.111e-06 -1.43612e-07 -2.80268e-06)
(5.42302e-06 -9.68576e-07 -4.59202e-06)
(5.13834e-06 -8.95778e-07 -4.4781e-06)
(5.71442e-06 -1.04303e-06 -4.70377e-06)
(6.01242e-06 -1.11905e-06 -4.81336e-06)
(-3.65458e-12 -2.32824e-13 -6.16991e-12)
(-1.1935e-13 -1.65739e-13 8.24369e-13)
(-3.72974e-12 -2.33332e-13 -6.4924e-12)
(-3.10511e-13 -9.25663e-14 3.05842e-13)
(-3.93936e-12 -8.86893e-14 -6.97844e-12)
(-3.9316e-12 -9.34541e-14 -7.06311e-12)
(6.48754e-12 -1.31265e-11 -4.35197e-12)
(1.11738e-11 -1.18352e-11 4.08511e-12)
(1.11759e-11 -2.03104e-11 -4.0545e-12)
(7.53304e-11 -1.84666e-10 1.15608e-12)
(1.59976e-10 -3.65471e-10 9.73174e-12)
(9.09619e-11 -2.81575e-10 -1.11425e-11)
(-3.60723e-12 -2.09612e-13 -6.04801e-12)
(3.84888e-14 -1.95041e-13 1.25075e-12)
(-3.57234e-12 -2.22813e-13 -6.05003e-12)
(3.31875e-12 -8.00366e-12 -4.66685e-12)
(3.62238e-12 -2.70334e-12 2.75619e-12)
(1.09758e-12 -5.07271e-12 -5.22541e-12)
(-3.38749e-12 -2.47854e-13 -6.65902e-12)
(2.97324e-13 -1.47098e-13 8.21159e-13)
(-3.17548e-12 -4.4574e-13 -6.68553e-12)
(-2.4127e-12 -6.80219e-14 -2.77388e-12)
(-1.25169e-12 -1.12623e-13 -1.67154e-13)
(-2.37341e-12 -6.69223e-14 -2.74854e-12)
(-1.42263e-12 -8.08331e-14 -6.15215e-13)
(-2.6085e-12 -5.87991e-14 -3.26289e-12)
(-2.52003e-12 -5.68146e-14 -3.10971e-12)
(-4.06889e-12 1.91675e-14 -7.3032e-12)
(-4.40437e-13 -2.25279e-15 -2.36522e-14)
(-4.08411e-12 1.72709e-14 -7.4581e-12)
(-3.96017e-12 -1.16807e-13 -7.0339e-12)
(-4.01542e-13 -7.43567e-14 7.28806e-14)
(-4.02146e-12 -1.14277e-13 -7.29768e-12)
(-2.72135e-12 -1.41024e-14 -3.50797e-12)
(-1.5495e-12 -1.21854e-14 -9.14368e-13)
(-2.6411e-12 -1.3856e-14 -3.37671e-12)
(-2.62973e-12 -2.59984e-14 -3.30503e-12)
(-1.50588e-12 -4.61779e-14 -8.18627e-13)
(-2.58628e-12 -2.62896e-14 -3.26789e-12)
(1.58632e-06 -2.08216e-07 -1.71661e-06)
(1.39432e-06 -1.89131e-07 -1.47974e-06)
(1.57464e-06 -2.6275e-07 -1.58025e-06)
(1.40945e-06 -2.18509e-07 -1.48375e-06)
(1.42281e-06 -1.65558e-07 -1.61256e-06)
(8.32373e-07 5.96203e-08 -1.45943e-06)
(9.4079e-07 5.03785e-08 -1.61651e-06)
(6.04469e-07 -3.06178e-08 -8.71328e-07)
(7.08418e-07 -2.22272e-08 -9.77892e-07)
(6.27287e-07 1.14373e-08 -9.5499e-07)
(7.16433e-07 -5.17736e-08 -9.7732e-07)
(7.3796e-07 -7.71188e-09 -1.06855e-06)
(-1.62862e-13 -1.01561e-12 -9.42363e-13)
(5.46793e-12 -5.5007e-12 2.77562e-12)
(9.24936e-13 -1.8876e-12 -5.88767e-13)
(5.05149e-11 -1.02998e-10 1.57783e-12)
(5.27737e-11 -7.52898e-11 4.89984e-13)
(2.66444e-11 -4.35657e-11 -5.58538e-13)
(4.19173e-08 1.87294e-09 -1.11264e-07)
(6.35507e-09 7.1203e-09 -3.02694e-08)
(4.32054e-08 3.04403e-08 -1.02127e-07)
(9.98715e-09 -1.92893e-09 -3.77914e-08)
(5.09584e-08 -1.63775e-09 -1.1483e-07)
(3.57038e-08 2.94487e-08 -9.07988e-08)
(8.51323e-09 -7.05865e-09 -3.82936e-08)
(3.6251e-07 -1.93124e-08 -5.43472e-07)
(4.76686e-07 -2.24417e-08 -6.98332e-07)
(4.42693e-07 -6.92187e-09 -6.15396e-07)
(3.7344e-07 2.1018e-08 -5.88635e-07)
(4.55902e-07 -3.52818e-08 -6.35209e-07)
(3.82714e-07 -8.45087e-09 -5.98026e-07)
(3.51241e-07 9.92363e-09 -5.27801e-07)
(1.9112e-10 -9.25838e-10 -4.20826e-11)
(4.09596e-10 -8.47736e-10 3.49239e-11)
(4.19493e-10 -9.80726e-10 6.37863e-11)
(1.36588e-06 -2.64711e-07 -1.24256e-06)
(1.50458e-06 -2.87634e-07 -1.2752e-06)
(1.36283e-06 -2.13363e-07 -1.3276e-06)
(1.55082e-06 -2.85285e-07 -1.44989e-06)
(1.38531e-06 -2.39521e-07 -1.36112e-06)
(1.3402e-06 -2.39977e-07 -1.19707e-06)
(1.53184e-06 -3.11936e-07 -1.32375e-06)
(6.70472e-07 -8.10637e-08 -8.1558e-07)
(5.79691e-07 -4.10871e-08 -7.97298e-07)
(6.77019e-07 -3.61762e-08 -8.75387e-07)
(5.43576e-07 -2.82436e-08 -7.02126e-07)
(6.91454e-07 -6.41897e-08 -8.9488e-07)
(5.58744e-07 -5.60718e-08 -7.26206e-07)
(6.53445e-07 -5.38772e-08 -7.87583e-07)
(7.31699e-07 6.48541e-08 -1.30101e-06)
(6.38022e-07 6.60762e-08 -1.14115e-06)
(1.70152e-08 9.6016e-09 -4.0165e-08)
(5.22597e-08 2.72431e-08 -1.1494e-07)
(1.27132e-08 -3.16429e-09 -3.49266e-08)
(6.88064e-08 -3.52895e-08 -1.36104e-07)
(6.163e-08 1.24418e-08 -1.29657e-07)
(8.96391e-09 -4.03036e-09 -1.70817e-08)
(5.01121e-07 -1.4095e-08 -7.64001e-07)
(5.25e-07 2.5884e-08 -8.40034e-07)
(4.02427e-07 2.74882e-08 -6.59409e-07)
(4.06329e-07 -2.18272e-09 -6.54938e-07)
(4.30642e-07 3.55906e-08 -7.23165e-07)
(8.47371e-11 -1.88407e-10 -5.20124e-12)
(3.11038e-10 -5.9288e-10 1.26412e-11)
(1.94602e-10 -3.22569e-10 3.48209e-12)
(8.29526e-06 -1.69977e-06 -5.55678e-06)
(8.64179e-06 -1.78547e-06 -5.64968e-06)
(8.2254e-06 -2.12873e-06 -3.50067e-06)
(8.19975e-06 -2.04214e-06 -3.80831e-06)
(8.53075e-06 -2.19543e-06 -3.55759e-06)
(8.5768e-06 -2.22327e-06 -3.55874e-06)
(8.54973e-06 -2.13549e-06 -3.87209e-06)
(5.89835e-06 -1.59198e-06 -2.55786e-06)
(5.54322e-06 -1.48664e-06 -2.41556e-06)
(5.60513e-06 -1.4566e-06 -2.73991e-06)
(5.86208e-06 -1.52259e-06 -2.74004e-06)
(5.90916e-06 -1.54296e-06 -2.80345e-06)
(5.5939e-06 -1.50446e-06 -2.50006e-06)
(5.84638e-06 -1.57452e-06 -2.47202e-06)
(7.51434e-06 -2.04925e-06 -2.82881e-06)
(7.86359e-06 -2.08818e-06 -3.1572e-06)
(7.46995e-06 -1.97547e-06 -3.03439e-06)
(7.79567e-06 -2.12879e-06 -2.78694e-06)
(7.52301e-06 -1.99442e-06 -3.10147e-06)
(7.85534e-06 -2.14417e-06 -2.87945e-06)
(7.45595e-06 -2.03353e-06 -2.73726e-06)
(7.95424e-06 -1.61508e-06 -5.46175e-06)
(7.61887e-06 -1.53148e-06 -5.36457e-06)
(5.60902e-06 -1.335e-06 -3.24414e-06)
(5.62327e-06 -1.41196e-06 -2.9858e-06)
(5.88956e-06 -1.46885e-06 -3.05028e-06)
(5.92698e-06 -1.4971e-06 -3.05513e-06)
(5.91128e-06 -1.41893e-06 -3.31997e-06)
(7.87951e-06 -2.03514e-06 -3.44122e-06)
(7.85526e-06 -1.94975e-06 -3.74305e-06)
(7.49642e-06 -1.91459e-06 -3.37769e-06)
(7.53924e-06 -1.94257e-06 -3.38038e-06)
(7.51642e-06 -1.85838e-06 -3.6763e-06)
(8.55408e-06 -2.33697e-06 -2.97724e-06)
(8.2098e-06 -2.18296e-06 -3.21165e-06)
(8.50488e-06 -2.26055e-06 -3.19615e-06)
(8.14103e-06 -2.22505e-06 -2.83551e-06)
(8.5615e-06 -2.27868e-06 -3.26484e-06)
(8.20196e-06 -2.24009e-06 -2.92892e-06)
(8.49188e-06 -2.32226e-06 -2.88299e-06)
(-2.36279e-12 -1.03601e-13 -2.65706e-12)
(-1.11631e-12 -1.56418e-13 1.94589e-13)
(-2.2629e-12 -1.02882e-13 -2.46882e-12)
(-4.04569e-12 -1.18747e-14 -7.27007e-12)
(-4.62101e-13 1.27467e-14 -7.74521e-14)
(-4.08099e-12 -1.43528e-14 -7.45845e-12)
(-3.61638e-12 -8.82766e-14 -6.81737e-12)
(-1.40444e-13 5.44907e-14 4.57082e-13)
(-3.76551e-12 5.27651e-15 -7.07495e-12)
(-9.5008e-13 -5.09434e-13 -1.51218e-12)
(9.14518e-13 -1.05199e-12 1.46548e-12)
(-1.37948e-12 -2.38386e-13 -1.71139e-12)
(-1.10575e-12 3.19767e-14 -2.13572e-13)
(-2.48848e-12 8.525e-14 -2.99094e-12)
(-2.39249e-12 7.37917e-14 -2.87718e-12)
(-2.70474e-12 1.73981e-14 -3.46021e-12)
(-1.58374e-12 2.43867e-14 -9.76271e-13)
(-2.66382e-12 1.80205e-14 -3.42012e-12)
(-1.36828e-12 7.53697e-14 -5.33736e-13)
(-2.59544e-12 5.94e-14 -3.20893e-12)
(-2.55852e-12 5.76709e-14 -3.14882e-12)
(1.54689e-06 -1.65909e-07 -1.65416e-06)
(1.358e-06 -1.50335e-07 -1.42234e-06)
(1.48727e-06 -1.83896e-07 -1.44525e-06)
(1.38579e-06 -1.22632e-07 -1.55481e-06)
(1.3268e-06 -1.38461e-07 -1.3582e-06)
(8.34837e-07 7.86693e-08 -1.45572e-06)
(9.42543e-07 6.92646e-08 -1.6111e-06)
(5.54095e-07 5.77811e-08 -8.1226e-07)
(6.84456e-07 1.97677e-08 -9.4567e-07)
(6.0615e-07 5.86996e-08 -9.30116e-07)
(7.14006e-07 3.87027e-08 -1.03758e-06)
(6.60132e-07 3.49924e-08 -9.05876e-07)
(3.3145e-08 7.01045e-08 -1.14247e-07)
(8.11083e-09 2.06367e-08 -3.27788e-08)
(4.38838e-08 4.97052e-08 -1.14525e-07)
(1.45436e-08 4.35346e-08 -4.59106e-08)
(3.47829e-08 4.62784e-08 -1.01125e-07)
(4.28357e-08 7.59207e-08 -1.29012e-07)
(1.00033e-08 3.84334e-08 -4.02701e-08)
(3.21353e-07 6.22678e-08 -4.98492e-07)
(4.32493e-07 5.92198e-08 -6.47853e-07)
(4.26334e-07 2.15855e-08 -5.94798e-07)
(3.60594e-07 5.22588e-08 -5.75578e-07)
(3.37274e-07 3.92449e-08 -5.12241e-07)
(4.07963e-07 4.41229e-08 -5.76258e-07)
(3.44921e-07 7.52473e-08 -5.61045e-07)
(1.27774e-06 -1.94906e-07 -1.10212e-06)
(1.47198e-06 -2.63032e-07 -1.22186e-06)
(1.3335e-06 -1.86604e-07 -1.28065e-06)
(1.46394e-06 -2.14455e-07 -1.31261e-06)
(1.30936e-06 -2.14982e-07 -1.14723e-06)
(1.30307e-06 -1.67585e-07 -1.23311e-06)
(1.43884e-06 -2.43229e-07 -1.17358e-06)
(6.09616e-07 -4.94478e-09 -7.30524e-07)
(5.29222e-07 3.87891e-08 -7.34182e-07)
(6.57414e-07 -7.04142e-09 -8.48099e-07)
(5.2476e-07 -3.69101e-10 -6.76645e-07)
(6.32432e-07 -2.66037e-08 -7.57598e-07)
(6.35149e-07 1.40868e-08 -8.19714e-07)
(5.04054e-07 2.1687e-08 -6.5371e-07)
(7.34781e-07 8.40592e-08 -1.29906e-06)
(6.41661e-07 8.54768e-08 -1.14112e-06)
(2.21644e-08 3.51111e-08 -4.7456e-08)
(5.4325e-08 5.82418e-08 -1.28293e-07)
(1.7846e-08 5.01723e-08 -5.64147e-08)
(6.68565e-08 6.48303e-08 -1.42865e-07)
(5.35973e-08 8.16677e-08 -1.48041e-07)
(4.57013e-07 7.62116e-08 -7.17725e-07)
(5.06763e-07 7.42149e-08 -8.2134e-07)
(3.86839e-07 7.20813e-08 -6.4522e-07)
(4.15484e-07 8.49773e-08 -7.1132e-07)
(3.6879e-07 9.01283e-08 -6.22512e-07)
(1.75859e-06 -2.5417e-07 -1.81907e-06)
(1.74857e-06 -3.10235e-07 -1.67517e-06)
(1.91206e-06 -3.31576e-07 -1.76292e-06)
(1.93113e-06 -3.6082e-07 -1.76851e-06)
(1.93951e-06 -3.03269e-07 -1.91994e-06)