/*--------------------------------*- C++ -*----------------------------------*\
| =========                 |                                                 |
| \\      /  F ield         | OpenFOAM: The Open Source CFD Toolbox           |
|  \\    /   O peration     | Version:  2012                                  |
|   \\  /    A nd           | Website:  www.openfoam.com                      |
|    \\/     M anipulation  |                                                 |
\*---------------------------------------------------------------------------*/
FoamFile
{
    version     2.0;
    format      ascii;
    class       volSymmTensorField;
    location    "0.108/solid";
    object      epsilon;
}
// * * * * * * * * * * * * * * * * * * * * * * * * * * * * * * * * * * * * * //

dimensions      [0 0 0 0 0 0 0];


internalField   nonuniform List<symmTensor> 
3125
(
(-0.000109132 -1.20233e-05 -0.000275766 1.22056e-05 5.88119e-05 -0.00310045)
(-1.2458e-05 -1.97053e-05 -0.000141317 2.44298e-05 9.25258e-05 -0.000969791)
(-0.000177957 -2.02181e-05 -0.000289616 1.23567e-05 3.06821e-05 -0.00325623)
(-0.000117821 -1.53306e-05 -0.000276122 1.03615e-05 5.02745e-05 -0.00314288)
(-0.000164533 -2.12787e-05 -0.000288674 1.03334e-05 4.02413e-05 -0.00316762)
(-2.96127e-05 -2.15978e-05 -0.000127078 2.60505e-05 4.77843e-05 -0.00102757)
(-1.7467e-05 -1.6813e-05 -0.000140075 1.40894e-05 7.88813e-05 -0.00100391)
(-2.68394e-05 -3.55049e-05 -0.000127053 5.4366e-05 6.7232e-05 -0.00097047)
(-5.34198e-05 -1.74326e-05 -0.000208456 -5.36088e-06 8.70023e-05 -0.00193323)
(0.000366852 -0.000801247 -4.08926e-05 -0.00495326 0.00214426 0.00799069)
(0.00143671 0.000445166 0.00230994 -0.000710237 0.00190297 -0.000966661)
(0.00160789 0.000187326 -0.000349736 0.00100402 -0.000257594 -0.00388465)
(-7.71109e-05 -1.66175e-05 -0.000210053 -4.04119e-06 5.09489e-05 -0.00200705)
(-6.83446e-05 -1.50047e-05 -0.00019619 -4.41092e-06 4.78349e-05 -0.00184398)
(-4.25414e-05 -1.50729e-05 -0.000203376 -8.62996e-07 8.46516e-05 -0.00185824)
(-0.000299672 -0.000113657 -0.00312015 0.00624779 0.00314614 -0.0151731)
(-0.00238478 0.000434826 -0.00361831 -0.000294487 0.00198459 0.00277309)
(0.0016837 0.000211267 -0.000192409 0.00105963 -0.000155089 -0.00409725)
(0.00159509 0.000423709 0.00189706 -0.000134034 0.00149456 -0.00210622)
(-0.00205863 0.000208566 -0.000463486 -0.00161189 -0.000117558 0.00492511)
(-0.00246541 0.000419539 -0.00313679 -0.000798803 0.00156774 0.00375445)
(-0.0019293 0.000185059 -0.000228096 -0.00150579 -0.000224978 0.00463535)
(-2.28387e-05 2.0298e-06 -0.000474295 2.64031e-06 1.85771e-05 -0.00268478)
(-8.54638e-05 -2.14172e-05 -0.00025219 -7.77543e-07 9.37074e-05 -0.002603)
(-1.97167e-05 2.9508e-06 -0.000408407 5.46898e-07 2.93185e-05 -0.00229335)
(-6.35751e-06 -1.16673e-06 -0.000181595 1.71962e-06 1.85117e-05 -0.000960005)
(-7.08596e-05 -5.19623e-05 -0.000139875 0.000340056 0.00073493 -0.000885935)
(1.6229e-05 -4.80297e-05 -0.000195121 0.000108643 0.000108438 -0.000811928)
(-2.31071e-05 1.65942e-06 -0.000480796 2.92174e-06 1.54246e-05 -0.00272353)
(-0.000122928 -2.21427e-05 -0.000264074 2.11847e-06 5.54816e-05 -0.00271881)
(-4.21488e-05 -1.12045e-05 -0.000147819 -6.73119e-07 3.67448e-05 -0.00130197)
(-2.37619e-05 -1.11428e-05 -0.000160397 -5.20144e-07 6.46374e-05 -0.00132729)
(-7.45908e-06 -1.18017e-07 -0.000186391 8.89221e-07 1.81535e-05 -0.000992563)
(-1.17761e-05 2.34885e-06 -0.00023448 -7.02221e-07 2.19721e-05 -0.00127573)
(-1.95906e-05 1.93646e-06 -0.000487976 1.9211e-06 1.58574e-05 -0.00262336)
(-1.73897e-05 2.79217e-06 -0.000420844 3.91566e-07 2.49772e-05 -0.00224717)
(-7.23733e-05 -1.81685e-05 -0.00024813 3.60499e-06 9.47703e-05 -0.00252123)
(-1.58374e-05 2.98116e-06 -0.00032036 -5.25941e-07 2.85876e-05 -0.00177328)
(-1.93046e-05 3.04497e-06 -0.00039744 3.66439e-07 2.99064e-05 -0.00222783)
(-1.4526e-05 2.8069e-06 -0.000331334 -3.63953e-07 2.44649e-05 -0.00174698)
(-1.7055e-05 2.87568e-06 -0.000409699 2.82298e-07 2.54646e-05 -0.0021846)
(0.00119552 0.000935658 0.00101422 -0.000466517 0.00135247 -0.00107993)
(0.00133993 0.00069596 0.00207722 -0.00260295 0.00293521 0.00343759)
(-6.77159e-06 2.29235e-08 -0.000187192 6.74659e-07 1.50473e-05 -0.000953931)
(1.26938e-05 -3.34269e-05 -0.000189077 6.38686e-05 7.2498e-05 -0.000796959)
(-0.000127817 -1.42633e-06 -0.00010311 0.00063178 0.00117951 -0.000816305)
(0.000314032 0.000434512 0.00363966 -0.00552513 0.00363687 0.00741622)
(-0.000250647 -0.000499318 -0.000852376 -0.000989632 0.00254349 0.0040851)
(0.000470573 0.000498664 0.00141275 -0.00267928 0.00384189 0.00389475)
(1.75006e-05 -8.3785e-05 -0.000212426 0.000116399 0.000163706 -0.000817546)
(0.000751449 0.000887045 0.000667991 -0.000544745 0.00162524 -0.000405268)
(0.000783087 0.000298436 0.00324951 -0.00357481 0.00351304 0.00469088)
(0.000537186 0.000590283 0.00134928 -0.00228497 0.00350024 0.0030777)
(0.000287191 -0.000464761 -0.000940773 -0.00165503 0.00394392 0.00876473)
(0.0013004 0.000610539 0.00219472 -0.0030723 0.00323761 0.00457022)
(1.90197e-05 -6.18778e-05 -0.000204866 8.06831e-05 0.000118783 -0.000794122)
(0.000702283 0.00040029 -0.000596259 0.000297023 -0.000432994 -0.00182633)
(0.000640909 0.000580042 -0.00037874 0.000342483 -0.000288022 -0.00179548)
(0.00133448 0.000129992 -0.000659301 0.000710563 -0.000434829 -0.00296841)
(0.000581996 0.000387074 -0.000467816 0.000220409 -0.00047078 -0.00138389)
(0.000739506 0.000606413 -0.000440685 0.000527563 -0.000269589 -0.00256375)
(0.000704856 0.000424342 -0.000587774 0.000331284 -0.000424225 -0.00192986)
(0.00123678 0.000115139 -0.000718186 0.000591186 -0.0004597 -0.00261635)
(0.000573886 0.000361466 -0.000471101 0.000197141 -0.000481229 -0.00131332)
(-1.98716e-05 1.61377e-06 -0.000494667 2.10421e-06 1.32652e-05 -0.00266027)
(-0.0001099 -2.12398e-05 -0.000251675 -2.83091e-07 5.63133e-05 -0.00253979)
(-4.75453e-05 -1.14167e-05 -0.000158416 -2.7793e-06 3.86911e-05 -0.00141958)
(-3.12878e-05 -1.22422e-05 -0.00016457 -4.34097e-06 6.65995e-05 -0.00138253)
(-1.54075e-05 2.97206e-06 -0.000309794 -5.81159e-07 2.80604e-05 -0.00171128)
(-1.21964e-05 2.4544e-06 -0.000242878 -7.31249e-07 2.27518e-05 -0.0013242)
(-7.64464e-06 6.53999e-07 -0.000192635 2.47671e-07 1.50667e-05 -0.00098628)
(-1.1172e-05 2.25576e-06 -0.000243294 -5.18466e-07 1.89439e-05 -0.00126438)
(-1.41622e-05 2.79784e-06 -0.000320536 -3.94833e-07 2.40433e-05 -0.00168722)
(-1.15475e-05 2.33311e-06 -0.000251979 -5.34787e-07 1.95983e-05 -0.00131157)
(-0.00241305 0.000936509 -0.00186123 -0.00073103 0.00141513 0.00343545)
(-0.00270974 0.000677193 -0.00317973 0.000969447 0.00302751 -0.000111681)
(-0.00154489 0.000397897 -0.00460174 0.0033891 0.0045593 -0.00491349)
(6.41547e-05 -0.000130056 -0.00215455 0.00440346 0.00344828 -0.0106596)
(-0.0016868 0.000488988 -0.00261897 0.00098606 0.00392316 -0.000568165)
(-0.00193584 0.000886691 -0.00160497 -0.000631965 0.00167177 0.00269891)
(-0.0017652 0.000401686 -0.00469734 0.002285 0.00367833 -0.00232766)
(-0.00182935 0.00057976 -0.00251708 0.000683233 0.00356688 0.000123034)
(-0.000329942 -8.45379e-05 -0.00277787 0.00508431 0.00337502 -0.013658)
(-0.00260942 0.000582503 -0.00336641 0.00137263 0.00332383 -0.00106701)
(0.00115072 0.000936501 0.000871438 -0.000286736 0.0011822 -0.00142633)
(0.000891005 0.000839791 8.31086e-05 0.000433574 0.000294648 -0.00268016)
(0.00181508 0.000298499 0.000484549 0.000983376 0.000325217 -0.00419678)
(0.000649668 0.000608624 -0.000354287 0.000349634 -0.000241945 -0.00183362)
(0.00071125 0.000796081 -6.81366e-05 0.00025828 0.000272068 -0.00181645)
(0.000754148 0.000894035 0.00056578 -0.000396222 0.0014246 -0.000684891)
(0.00181252 0.000331327 0.000785346 0.000840851 0.000553732 -0.00397202)
(0.000719526 0.000818272 -8.0452e-06 0.000216795 0.000378315 -0.00175719)
(0.000748653 0.000633639 -0.000404278 0.00054316 -0.000230715 -0.00262985)
(0.000864775 0.000816777 2.62334e-07 0.000478119 0.000204555 -0.00273703)
(-0.00231829 0.000938059 -0.00169903 -0.000859524 0.00124338 0.00363947)
(-0.00169268 0.000841694 -0.000761318 -0.00125033 0.000344893 0.00399036)
(-0.00237685 0.000294663 -0.00138966 -0.00169276 0.00037825 0.00530972)
(-0.0010899 0.000606991 -0.000154373 -0.000856736 -0.000216985 0.00241228)
(-0.00144841 0.000794919 -0.000647361 -0.00103118 0.000307362 0.00301927)
(-0.00189126 0.000893961 -0.00148089 -0.000731546 0.00146998 0.00284433)
(-0.00244599 0.000327472 -0.00177645 -0.00160455 0.000612304 0.00520062)
(-0.00150449 0.000817328 -0.000735329 -0.00103106 0.000415041 0.00306588)
(-0.00119355 0.00063553 -6.23895e-05 -0.00103837 -0.000195787 0.00315809)
(-0.00161718 0.000818759 -0.000653716 -0.00125137 0.000253034 0.0039342)
(-0.000849015 0.000402394 0.000361098 -0.000506723 -0.0004151 0.00179354)
(-0.00104414 0.000578349 -0.000100132 -0.00081499 -0.000264554 0.00230113)
(-0.00151399 0.000129549 0.000294604 -0.00106886 -0.000415416 0.00353007)
(-0.000760856 0.000385597 0.000185139 -0.000477837 -0.000457074 0.00148302)
(-0.00114615 0.000608308 1.27243e-06 -0.00098654 -0.000236706 0.00301364)
(-0.000879637 0.000426395 0.000328764 -0.000568617 -0.000404547 0.0019442)
(-0.00137467 0.000115113 0.000417083 -0.000904663 -0.000444181 0.00312766)
(-0.00072536 0.000359948 0.000214261 -0.000427502 -0.000468726 0.00136822)
(-3.76788e-05 -1.54508e-06 -0.000379255 6.70246e-06 3.73844e-05 -0.00294115)
(-0.000102758 -1.99842e-05 -0.000268348 4.31776e-06 8.03581e-05 -0.00291699)
(-3.30858e-05 -1.83859e-06 -0.000361656 4.1921e-06 5.17258e-05 -0.00277738)
(-6.515e-06 -8.34086e-06 -0.000163239 1.09921e-05 5.44238e-05 -0.000978399)
(-1.75004e-05 -3.76455e-05 -0.000150865 7.38496e-05 0.000188899 -0.00088878)
(-3.94382e-06 -2.34141e-05 -0.000173256 4.22649e-05 0.000107492 -0.000892989)
(-0.000190871 -1.95758e-05 -0.000285148 1.26005e-05 1.90838e-05 -0.00329626)
(-0.000126 -5.27908e-06 -0.000272993 1.44125e-05 1.64486e-05 -0.00320768)
(-3.91193e-05 -1.48946e-06 -0.00038347 7.3978e-06 3.11456e-05 -0.00298125)
(-4.37983e-05 -1.04003e-06 -0.000390202 9.4161e-06 8.87866e-06 -0.00304575)
(-0.000150634 -2.2095e-05 -0.000283423 7.73516e-06 4.76567e-05 -0.00304152)
(-3.32108e-05 -1.49997e-05 -0.000131477 1.10907e-05 3.91604e-05 -0.00110459)
(-1.72808e-05 -1.18158e-05 -0.000145171 4.07245e-06 6.28687e-05 -0.00112626)
(-7.36049e-06 -5.97551e-06 -0.000164109 6.69734e-06 4.78807e-05 -0.00101261)
(-9.77401e-06 -2.19958e-06 -0.000173585 7.3122e-07 4.1222e-05 -0.0011307)
(-5.59909e-05 -1.71839e-05 -0.000226533 6.50065e-07 9.30259e-05 -0.00218006)
(-1.89846e-05 -1.33608e-06 -0.000263627 -1.60279e-06 5.85298e-05 -0.00188874)
(-2.17921e-05 -1.67103e-06 -0.00028913 -8.60088e-07 6.18994e-05 -0.00211239)
(8.39236e-05 0.00116988 0.000200981 -0.000715465 0.00076887 -0.000289699)
(0.000784267 0.00129012 0.000415126 -0.000769295 0.00115898 0.000503789)
(-0.00227528 -0.000833521 0.00437448 0.00513219 0.0104402 0.00755275)
(0.00174976 0.00181982 0.000654796 -0.00967527 0.000134102 0.0102468)
(-0.000342869 -0.000787792 -3.9602e-05 -0.00196254 0.00585706 0.00725027)
(-0.000102168 -0.000241874 0.000282577 -0.00291849 0.00621273 0.0066821)
(-0.000876196 -0.000147817 0.000559097 0.00202819 0.00551912 0.00124022)
(0.000751475 0.000729475 0.000873451 -0.00061735 0.00231954 -0.00030217)
(0.00123945 0.00044404 0.00270188 -0.0014454 0.00237704 0.000511208)
(0.000548215 0.000672796 0.00118243 -0.00118447 0.00325346 0.00094093)
(0.000322508 9.14239e-05 0.000877314 0.00269165 0.00947625 0.0146316)
(0.00270314 0.000717991 0.00191395 -0.00129574 0.00349345 0.0079243)
(0.000139277 0.000412354 -0.000316347 -5.78377e-05 -0.000330201 -0.000993936)
(0.000872871 0.000449571 -0.000343554 0.000299575 -0.000308007 -0.00191901)
(0.00152257 0.000165879 -0.000478001 0.000922628 -0.000336496 -0.0036154)
(0.000812407 0.000381146 -0.00042176 0.000269273 -0.000462885 -0.00174088)
(-0.000603742 0.000624404 -0.000278862 -0.000307308 -0.000235402 -0.00145717)
(-0.000434696 0.000561168 -0.000300509 -0.000236485 -0.0002867 -0.0013791)
(0.00104365 9.08695e-05 -0.000787073 0.000348321 -0.000472156 -0.00190578)
(0.000608797 0.000208462 -0.000492354 9.59378e-05 -0.000618082 -0.00100935)
(-8.69386e-05 -1.82785e-05 -0.000224173 -3.33158e-06 5.36435e-05 -0.00217924)
(-6.05549e-05 -1.35117e-05 -0.000182829 -4.32992e-06 4.4641e-05 -0.00169109)
(-4.11171e-05 -1.45666e-05 -0.000185592 -5.43202e-06 7.67447e-05 -0.00163752)
(-1.81684e-05 -1.22355e-06 -0.000255301 -1.70605e-06 5.70772e-05 -0.00181751)
(-1.58172e-05 -8.86343e-07 -0.000231282 -1.94701e-06 5.22786e-05 -0.00161511)
(-0.00140896 0.00117511 -0.000678016 -0.000524672 0.000805605 0.00280726)
(-0.00228809 0.00127962 -0.000934308 -0.000667329 0.00119718 0.00253959)
(-0.000580193 0.000602575 -0.004354 0.00849143 0.00278152 -0.0127856)
(-7.93085e-06 -0.000113994 -0.0024975 0.00367773 0.00291462 -0.0118257)
(6.30905e-05 0.000280758 -0.00268912 0.00425678 0.00636074 -0.00603599)
(-0.00179599 0.000727357 -0.00206872 -0.000438054 0.00236507 0.0023041)
(-0.00224188 0.00043855 -0.00407758 0.000371264 0.00245528 0.00147068)
(-0.00169821 0.000667714 -0.00246531 4.46832e-06 0.00329972 0.00138246)
(-0.00241473 -0.000128548 -0.00495924 0.00105619 0.00514879 -0.0106621)
(-0.00464032 0.000711709 -0.00345087 -0.00158541 0.00381541 -0.00171018)
(-9.79567e-05 0.00112939 0.000144216 -0.000695871 0.000659588 -0.000492534)
(-0.000501423 0.0010121 5.18899e-06 -0.000631793 0.000381263 -0.000958221)
(0.0017462 0.000237886 -2.53004e-06 0.00108127 -2.59143e-05 -0.00423442)
(0.000891061 0.000472213 -0.000313888 0.000303349 -0.000245102 -0.00196549)
(0.000933243 0.000543295 -0.000186318 0.000289203 6.89963e-06 -0.0020383)
(0.000793158 0.000734133 0.000768932 -0.000473841 0.002053 -0.000623345)
(0.00170714 0.000396685 0.00149772 0.000298777 0.00113412 -0.00296176)
(0.000901268 0.000718074 0.000460986 -0.000129357 0.00134616 -0.00134395)
(-0.000652184 0.000647353 -0.000269001 -0.000331906 -0.00021248 -0.00147332)
(-0.000761195 0.00072279 -0.000230221 -0.000407658 -0.000123989 -0.00148281)
(-0.00116582 0.00113826 -0.000612171 -0.000482941 0.000696053 0.00284177)
(-0.000579503 0.00102898 -0.000447599 -0.000371385 0.000416834 0.00282281)
(-0.00217894 0.000234698 -0.000734174 -0.00168491 1.6653e-05 0.00514789)
(-0.00129061 0.000467553 -0.000296112 -0.000833513 -0.000221653 0.00269808)
(-0.00143318 0.000538861 -0.000536775 -0.000907992 3.48568e-05 0.00294421)
(-0.00179455 0.000732628 -0.00193271 -0.000544554 0.00209783 0.00252206)
(-0.00249743 0.000392359 -0.00265749 -0.0011748 0.00120378 0.00445768)
(-0.00176853 0.000716144 -0.00152333 -0.000781517 0.00138754 0.00294907)
(0.000206146 0.000665295 -1.1097e-05 -8.43231e-05 -0.000187011 0.00177593)
(0.000176182 0.000743265 -9.77519e-05 -0.000136757 -9.52482e-05 0.00210995)
(-0.000142427 0.000413236 0.000230454 4.69148e-05 -0.000318632 0.000421127)
(-0.00124164 0.000444779 -0.000229823 -0.000801183 -0.000285996 0.00259903)
(-0.00179367 0.000164236 -2.50937e-05 -0.0013752 -0.000308471 0.00429633)
(-0.00109421 0.000376341 -4.53475e-05 -0.0006884 -0.000445077 0.00228075)
(0.000201113 0.000641171 1.50401e-05 -6.92156e-05 -0.000211024 0.00166226)
(0.000152127 0.000574343 8.49328e-05 -2.95736e-05 -0.000265703 0.00132298)
(-0.00110473 9.18223e-05 0.000600603 -0.000577155 -0.000463799 0.00233224)
(-0.000678158 0.000203892 0.000300124 -0.000298472 -0.000610995 0.0012522)
(-3.34327e-05 -4.9792e-07 -0.000405768 5.43725e-06 3.08955e-05 -0.00286881)
(-2.14893e-05 2.75307e-06 -0.000449369 1.6037e-06 2.54446e-05 -0.00253761)
(-3.02496e-05 -6.75484e-07 -0.000385159 3.37009e-06 4.24946e-05 -0.00270861)
(-9.07517e-05 -1.66259e-05 -0.000265612 7.75194e-06 8.48766e-05 -0.00284649)
(-2.75071e-05 -2.09824e-06 -0.000331406 1.35945e-06 6.10817e-05 -0.00249634)
(-3.16522e-05 -1.90993e-06 -0.000354591 3.41741e-06 5.50586e-05 -0.00271203)
(-2.10973e-05 2.87786e-06 -0.000439453 1.23656e-06 2.69917e-05 -0.0024785)
(-2.59946e-05 -9.78704e-07 -0.000351231 1.09849e-06 4.99716e-05 -0.00243847)
(-2.91986e-05 -7.36157e-07 -0.000377217 2.74169e-06 4.52298e-05 -0.00264559)
(-6.27489e-06 -6.81657e-06 -0.000168266 7.77089e-06 4.20106e-05 -0.000975887)
(-6.27734e-07 -8.20181e-06 -0.000173374 1.00772e-05 2.56849e-05 -0.000876683)
(-1.84314e-06 -2.03189e-05 -0.000175334 3.29813e-05 8.05254e-05 -0.000891538)
(-1.74387e-05 -4.31071e-05 -0.000157522 0.000123012 0.000264509 -0.000862335)
(-2.3264e-05 -7.67481e-05 -0.000225393 0.00028003 0.000473281 -0.000832526)
(-5.17531e-06 -3.16796e-05 -0.000181854 6.30827e-05 0.00014693 -0.000871854)
(2.46485e-06 -1.35473e-05 -0.00017384 1.45798e-05 3.21079e-05 -0.000854197)
(-7.36423e-06 -7.53602e-05 -0.000232328 0.000250042 0.000368324 -0.000834209)
(-8.68347e-07 -2.88135e-05 -0.000183592 4.62619e-05 0.000108307 -0.00087128)
(-4.54022e-05 -1.11122e-06 -0.000389878 9.7195e-06 5.77278e-08 -0.00304417)
(-3.43307e-05 -5.17871e-07 -0.000410771 5.97047e-06 2.56683e-05 -0.00290844)
(-2.39613e-05 4.27347e-07 -0.000492284 3.63236e-06 4.77136e-06 -0.00279181)
(-3.69392e-05 -1.70822e-07 -0.000420211 7.56463e-06 7.81656e-06 -0.00297762)
(-2.40849e-05 -1.48002e-07 -0.000493359 3.46273e-06 6.93745e-07 -0.00279784)
(-3.77058e-05 -1.28627e-07 -0.000420699 7.72002e-06 5.61391e-07 -0.00297937)
(-0.00013664 -2.24224e-05 -0.000274886 4.76214e-06 5.26684e-05 -0.00288885)
(-3.73809e-05 -1.20908e-05 -0.000138669 3.39249e-06 3.64605e-05 -0.0011967)
(-2.34743e-05 -1.17428e-05 -0.000147756 -4.29355e-07 6.18482e-05 -0.00117107)
(-1.24319e-05 -8.65464e-07 -0.000195676 -1.51006e-06 4.40778e-05 -0.00132229)
(-1.0459e-05 -1.62633e-06 -0.00017838 -1.80696e-07 4.12396e-05 -0.00117499)
(-7.3638e-06 -4.7027e-06 -0.000169907 4.73707e-06 3.76383e-05 -0.00100947)
(-9.75007e-06 1.54253e-06 -0.000204397 -3.25515e-07 1.9129e-05 -0.00110201)
(-9.98912e-06 -1.45408e-06 -0.000181352 3.06246e-07 3.35885e-05 -0.00112514)
(-1.26112e-05 -2.93393e-07 -0.00020541 -1.27813e-06 3.6479e-05 -0.00131166)
(-1.02999e-05 1.81894e-06 -0.000211392 -4.73386e-07 1.97375e-05 -0.00114287)
(-1.06875e-05 -9.58112e-07 -0.000186654 -3.39219e-07 3.38447e-05 -0.00116837)
(-9.26585e-05 1.16462e-06 -0.000738026 2.15484e-07 2.97461e-06 -0.00226326)
(-1.86461e-05 2.61438e-06 -0.000462446 1.12432e-06 2.17989e-05 -0.00248116)
(-8.74088e-05 1.41828e-06 -0.00069826 1.14876e-07 3.92193e-06 -0.00214258)
(-1.83049e-05 2.70963e-06 -0.000452317 8.68169e-07 2.3006e-05 -0.00242466)
(-7.97069e-05 1.53186e-06 -0.000636492 4.42378e-08 4.43531e-06 -0.00195135)
(-8.56959e-05 1.49607e-06 -0.000683819 9.07918e-08 4.13463e-06 -0.00209724)
(-6.84072e-05 -2.0082e-05 -0.000231405 -3.98303e-06 9.42896e-05 -0.00226184)
(-2.62943e-05 -2.05988e-06 -0.000323208 8.70331e-07 6.20601e-05 -0.00242067)
(-2.28089e-05 -1.77491e-06 -0.000297771 -5.19528e-07 6.25037e-05 -0.00218916)
(-1.87019e-05 -5.44178e-07 -0.00027779 -1.25366e-06 4.8175e-05 -0.00185765)
(-1.73019e-05 3.14727e-06 -0.000352879 -2.7644e-07 3.01372e-05 -0.00196437)
(-2.12148e-05 -7.32065e-07 -0.000305223 -6.45891e-07 5.08253e-05 -0.00207171)
(-2.5018e-05 -9.63992e-07 -0.000342309 7.4105e-07 5.08121e-05 -0.00236632)
(-1.77594e-05 3.13684e-06 -0.000364145 -1.08756e-07 3.02935e-05 -0.00203103)
(-2.21009e-05 -7.89136e-07 -0.000314502 -3.75748e-07 5.1283e-05 -0.00214503)
(-6.34519e-05 1.52519e-06 -0.000504765 -3.56107e-08 4.39824e-06 -0.0015427)
(-1.5604e-05 2.96942e-06 -0.000364402 -1.88817e-07 2.57484e-05 -0.00193114)
(-6.9558e-05 1.61039e-06 -0.000553857 -1.60652e-08 4.60348e-06 -0.00169444)
(-7.78137e-05 1.59009e-06 -0.000620582 3.76444e-08 4.53581e-06 -0.0019014)
(-1.59804e-05 2.96729e-06 -0.000375897 -7.22538e-08 2.58874e-05 -0.00199519)
(-7.15179e-05 1.60913e-06 -0.000570289 -6.18045e-09 4.61925e-06 -0.001746)
(0.00080054 0.00109359 0.00052758 -0.000721362 0.000976801 -0.00062801)
(0.00131797 0.000894514 0.00147592 -0.00116689 0.00194245 0.000331251)
(0.00118826 0.00120441 0.000878726 -0.000887515 0.00144333 0.000345289)
(0.00203712 0.00139522 0.000871881 -0.000847924 0.00189028 0.00221205)
(0.00106886 0.001327 0.000505674 -0.000786782 0.0013143 0.000847631)
(0.00134728 0.000864222 0.00163655 -0.00146297 0.00216877 0.000955872)
(0.00172249 0.00128347 0.00151556 -0.00118349 0.0022779 0.00250205)
(0.0013307 0.00123637 0.00101723 -0.000951786 0.00162601 0.000774964)
(-3.59777e-05 8.72412e-07 -0.000285351 -3.1676e-08 2.61782e-06 -0.000866587)
(-2.29123e-06 -4.32763e-06 -0.000175902 5.04799e-06 1.85973e-05 -0.000869842)
(-3.22102e-05 5.22791e-07 -0.0002596 9.17581e-08 2.54298e-06 -0.000787531)
(3.43859e-07 -7.74862e-06 -0.000174704 7.80084e-06 2.2515e-05 -0.000846283)
(-2.51438e-05 -2.69651e-06 -0.000235181 2.44288e-06 6.31777e-06 -0.000704637)
(-3.08583e-05 2.71408e-07 -0.000252102 2.13296e-07 2.70984e-06 -0.000764082)
(-0.00027543 0.00122676 0.00239774 0.00393993 0.00435957 -0.000818154)
(-5.9708e-05 -9.122e-05 -0.000224353 0.000357609 0.000690135 -0.000855688)
(-0.000559598 -0.00014632 0.000309328 0.00201486 0.00367362 0.000282037)
(0.000386386 0.000413537 0.00240139 -0.00344566 0.00655705 0.0107087)
(-2.36848e-05 0.000393189 0.00150419 -0.00276177 0.00519828 0.00431869)
(0.000270946 0.000194123 0.00112024 -0.00322536 0.00669141 0.00700102)
(-0.00121603 0.000192215 -0.000547862 -0.000390678 0.00778004 0.00790051)
(9.17237e-05 -4.72045e-06 0.000959346 -0.0038626 0.0056377 0.00810076)
(-0.000365742 -1.54255e-06 -0.000213315 0.000510024 0.00188134 -0.000240393)
(0.000157204 -0.000118865 0.000630574 -0.00348634 0.00578948 0.00688564)
(-0.00104949 -0.000863161 -0.0010313 0.00197655 0.0039759 -0.00173621)
(0.000172422 0.000526753 0.00151989 -0.00273885 0.00478843 0.00418585)
(0.000125708 0.000119911 0.00120353 -0.00405319 0.00492734 0.00681655)
(0.000258654 0.000211648 0.00112947 -0.00337443 0.00625894 0.00716593)
(-3.70096e-05 -0.000102031 -0.000249198 0.000246342 0.00051399 -0.00086569)
(4.51421e-05 -6.93794e-05 -0.000317499 0.00181789 0.00127571 -0.00081048)
(-0.000394269 -0.000368074 -0.000107585 0.00197502 0.00339166 0.000226611)
(0.000791394 0.000761588 0.000842283 -0.000609181 0.00213709 -0.000332398)
(0.00071406 0.000822832 0.000987314 -0.00111742 0.00232159 0.000709437)
(0.00062779 0.000739106 0.00115878 -0.00116637 0.00300133 0.000884512)
(0.000987433 0.000441119 0.00306988 -0.00245346 0.00285902 0.00235928)
(0.000157395 0.000462047 0.00145435 -0.00236165 0.00481775 0.00352936)
(0.000467463 0.000636762 0.00127438 -0.00141979 0.00360324 0.00146921)
(0.00068764 0.000783637 0.00109328 -0.00135868 0.00258824 0.00119115)
(0.000293571 0.000587515 0.00145303 -0.0023153 0.00443336 0.00342475)
(0.000560096 0.00071319 0.00125599 -0.00140177 0.00332615 0.00139737)
(0.00236849 0.00138892 0.00103236 -0.000881291 0.00213093 0.00286237)
(0.00297074 0.00101832 0.00175456 -0.00117217 0.00303403 0.00578676)
(-0.000962817 -1.34198e-05 -0.00180382 0.00189387 0.0089776 0.0125984)
(0.00088954 0.000108425 0.00175685 -0.00501767 0.00484275 0.010922)
(-0.00033444 -0.000345423 -0.000274432 0.00060162 0.00184032 -0.000204994)
(0.000955055 0.000647231 0.00197591 -0.00180252 0.00381867 0.00929818)
(6.28047e-05 -0.00021972 -0.00035406 0.000554031 0.000444125 -0.000692524)
(0.00180152 0.00126648 0.00169794 -0.00128007 0.00253941 0.00332935)
(0.000966871 0.00021241 0.00207628 -0.00496102 0.003959 0.0085399)
(0.00144989 0.000910744 0.00219993 -0.00175326 0.00335203 0.00685101)
(-2.12004e-05 -6.31618e-06 -0.000233274 5.48172e-06 1.12686e-05 -0.000690206)
(-1.70746e-05 -0.00019699 -0.000344669 0.00145339 0.00106314 -0.000761452)
(1.45555e-05 -6.64665e-05 -0.000272423 4.32795e-05 0.00010849 -0.000701706)
(-0.000114189 0.000471979 -0.00031699 -0.000130173 -0.000327894 -0.00118185)
(7.759e-05 0.000426334 -0.000317403 -7.47973e-05 -0.000331425 -0.00104157)
(0.000694929 0.000310754 -0.000608034 0.000156553 -0.000444277 -0.00140876)
(0.000465387 0.000373712 -0.000451878 -5.35669e-05 -0.000377559 -0.00113267)
(0.000363783 0.00042745 -0.000449964 -9.04901e-05 -0.000373342 -0.00139654)
(0.000696592 0.000331932 -0.000608385 0.000191207 -0.000444411 -0.00151225)
(0.000440818 0.000386048 -0.000453213 -6.20282e-05 -0.000379051 -0.00119879)
(0.000842223 0.000437522 -0.000360319 0.000295397 -0.000298617 -0.00188858)
(0.000615107 0.000494994 -0.000432854 0.000302182 -0.000393179 -0.00164343)
(0.0007868 0.000371152 -0.000432502 0.000264734 -0.000439697 -0.00171534)
(0.00143057 0.000146838 -0.000580004 0.000822701 -0.000394629 -0.00330523)
(0.000722191 0.000297585 -0.000477322 0.000200202 -0.00057841 -0.00143406)
(0.000791063 0.000360032 -0.00043739 0.000254745 -0.000498027 -0.00166815)
(0.000606738 0.000467263 -0.000445008 0.000283991 -0.00041882 -0.00158336)
(0.000706316 0.000290984 -0.00048418 0.000195735 -0.000546483 -0.00141977)
(0.000767527 0.000350057 -0.000449086 0.000249994 -0.000473831 -0.00164652)
(-0.00017951 0.000488324 -0.000315495 -0.000150018 -0.00032337 -0.00122592)
(-0.000372848 0.000541796 -0.000305714 -0.000213784 -0.00029898 -0.00134515)
(0.00018407 0.000570108 -0.000368964 -0.00019957 -0.00025666 -0.00182963)
(0.00071959 0.000525953 -0.000524752 0.000457549 -0.000358559 -0.00232025)
(0.000241009 0.000510495 -0.000414147 -0.000152082 -0.000321176 -0.00169383)
(0.000338077 0.000442565 -0.000446196 -0.000101434 -0.000367529 -0.0014605)
(0.000714942 0.000499868 -0.000545029 0.000428531 -0.000380074 -0.00222785)
(0.000263841 0.000492372 -0.000424986 -0.000138232 -0.000336492 -0.00163984)
(0.000542469 0.000266275 -0.000468186 0.000101251 -0.000494379 -0.00102392)
(0.000606245 0.000205941 -0.000496742 9.1543e-05 -0.000584257 -0.00101199)
(0.00113927 0.000102157 -0.000760028 0.000469209 -0.00047153 -0.00225944)
(0.000700134 0.000278808 -0.000482609 0.000180555 -0.000592979 -0.00134936)
(0.000629832 0.000224202 -0.000494405 0.000116625 -0.00061829 -0.00109553)
(0.000550204 0.000288795 -0.000471361 0.000125223 -0.000494614 -0.00109624)
(0.000686643 0.00027232 -0.000490253 0.000175817 -0.000561265 -0.00133949)
(0.00062506 0.000221764 -0.000498154 0.000112535 -0.000583588 -0.00109389)
(-9.38765e-05 9.49099e-07 -0.000747992 2.31707e-07 2.47978e-06 -0.00229403)
(-2.05809e-05 5.36616e-07 -0.000506726 2.6524e-06 4.1573e-06 -0.00272671)
(-9.73083e-05 5.14274e-07 -0.000770289 3.06984e-07 1.00094e-06 -0.00235819)
(-2.08759e-05 5.89157e-08 -0.000508137 2.6255e-06 7.05589e-07 -0.00273318)
(-9.746e-05 1.30936e-07 -0.000772369 3.01846e-07 3.12445e-07 -0.00236546)
(-9.78719e-05 -1.98612e-05 -0.000238217 -2.0239e-06 5.56174e-05 -0.00235807)
(-5.36534e-05 -1.22715e-05 -0.000170159 -3.88989e-06 4.14675e-05 -0.00154943)
(-3.19589e-05 -1.27867e-05 -0.000180716 -1.35181e-06 7.41441e-05 -0.0015718)
(-1.30645e-05 -7.82792e-07 -0.000202235 -1.73384e-06 4.55538e-05 -0.00137609)
(-1.51068e-05 -8.23382e-07 -0.000223617 -1.95236e-06 5.05621e-05 -0.00155192)
(-1.79568e-05 -4.70265e-07 -0.000268968 -1.32807e-06 4.70334e-05 -0.00178942)
(-1.3972e-05 2.82804e-06 -0.00027953 -6.92552e-07 2.60166e-05 -0.00153569)
(-1.58019e-05 -2.31088e-07 -0.000243345 -1.55049e-06 4.32437e-05 -0.00159476)
(-1.32192e-05 -2.10367e-07 -0.000212394 -1.43839e-06 3.77361e-05 -0.0013638)
(-1.35419e-05 2.77237e-06 -0.000269855 -7.38595e-07 2.52835e-05 -0.0014796)
(-1.51397e-05 -1.95143e-07 -0.000235223 -1.56421e-06 4.18495e-05 -0.00153384)
(-3.72495e-05 9.34811e-07 -0.000294869 -4.43881e-08 2.70518e-06 -0.000895724)
(-9.46891e-06 1.69895e-06 -0.000211969 -3.48572e-07 1.63943e-05 -0.00109427)
(-4.12997e-05 1.09477e-06 -0.00032625 -5.6955e-08 3.04849e-06 -0.000991662)
(-9.93699e-06 1.87656e-06 -0.00021933 -4.16789e-07 1.69683e-05 -0.00113438)
(-4.73219e-05 1.25288e-06 -0.000374181 -5.63492e-08 3.50862e-06 -0.00113887)
(-4.27171e-05 1.1359e-06 -0.000337547 -5.82787e-08 3.16206e-06 -0.00102646)
(-6.15687e-05 1.51775e-06 -0.00048916 -3.51914e-08 4.33914e-06 -0.00149397)
(-1.30362e-05 2.66203e-06 -0.000289622 -4.90088e-07 2.23714e-05 -0.00151707)
(-5.58486e-05 1.43729e-06 -0.000443134 -5.11477e-08 4.07945e-06 -0.00135189)
(-1.26597e-05 2.61268e-06 -0.000279679 -5.24644e-07 2.17615e-05 -0.00146267)
(-4.89133e-05 1.28376e-06 -0.000387081 -5.89371e-08 3.6174e-06 -0.00117877)
(-5.40894e-05 1.40849e-06 -0.000428638 -5.38034e-08 3.98e-06 -0.00130674)
(-0.00211767 0.00109348 -0.00110526 -0.000518186 0.00102285 0.00311672)
(-0.00266236 0.000891285 -0.00239275 -0.000194522 0.00201098 0.00245899)
(-0.00265194 0.00120199 -0.00150635 -0.000533754 0.00149272 0.00264753)
(-0.00374022 0.00134956 -0.00157368 -0.0009124 0.00193786 0.00161714)
(-0.0026287 0.0013089 -0.00105113 -0.000721697 0.00135397 0.0023846)
(-0.00271868 0.00085809 -0.00258344 4.35963e-05 0.00223895 0.0019814)
(-0.00330227 0.00127038 -0.00233867 -0.000533018 0.00234271 0.00121272)
(-0.00283472 0.00123208 -0.00167441 -0.000535049 0.00167731 0.00239763)
(-0.00132852 0.000974214 -0.00412113 0.00667264 0.00536358 -0.00878708)
(-0.0011888 0.000405256 -0.00277041 0.00116174 0.00539736 -0.00140531)
(-0.000177071 0.000546697 -0.00252119 0.00261648 0.00631965 -0.00474928)
(-2.88416e-06 -0.000249468 -0.00245856 0.00376782 0.00320707 -0.0121885)
(-0.000725296 -7.21734e-05 -0.00291072 0.00319706 0.00523503 -0.00495971)
(-6.23176e-05 0.000370716 -0.00275632 0.00395886 0.0062552 -0.0055365)
(-0.00130745 0.000539716 -0.00273452 0.00107992 0.00496453 -0.00121327)
(-0.00100034 0.000117923 -0.00284771 0.00224255 0.00509088 -0.0035122)
(-0.000354728 0.000516727 -0.00264455 0.00243415 0.00593457 -0.0045397)
(-0.00187277 0.000759349 -0.00198138 -0.000482158 0.0021838 0.00241702)
(-0.00201411 0.000819874 -0.00199744 -0.000215359 0.00237159 0.00199368)
(-0.00181468 0.000733459 -0.00237925 -5.67491e-05 0.00304928 0.00154386)
(-0.00204268 0.000409286 -0.00444852 0.00117449 0.00301089 -0.000216676)
(-0.00131851 0.000477385 -0.00277798 0.000876252 0.00490975 -0.000698882)
(-0.00165074 0.000627402 -0.00257873 0.000188769 0.003654 0.000957201)
(-0.00200962 0.000778858 -0.0021309 -3.0769e-05 0.00263981 0.00164573)
(-0.00146056 0.000591461 -0.00273226 0.000802122 0.00451819 -0.000509429)
(-0.00177302 0.000704999 -0.00249591 0.000124973 0.00337825 0.00113909)
(-0.00410459 0.00132722 -0.00183977 -0.000992445 0.00218906 0.00124522)
(-0.00475981 0.000999833 -0.00293152 -0.00146316 0.00324406 -0.00070992)