/*--------------------------------*- C++ -*----------------------------------*\
| =========                 |                                                 |
| \\      /  F ield         | OpenFOAM: The Open Source CFD Toolbox           |
|  \\    /   O peration     | Version:  2012                                  |
|   \\  /    A nd           | Website:  www.openfoam.com                      |
|    \\/     M anipulation  |                                                 |
\*---------------------------------------------------------------------------*/
FoamFile
{
    version     2.0;
    format      ascii;
    class       volScalarField;
    location    "0.108/solid";
    object      epsilonEq;
}
// * * * * * * * * * * * * * * * * * * * * * * * * * * * * * * * * * * * * * //

dimensions      [0 0 0 0 0 0 0];


internalField   nonuniform List<scalar> 
3125
(
0.00206178
0.000679843
0.00214513
0.00208617
0.00209023
0.000702778
0.000693962
0.000679683
0.0012962
0.00796411
0.00381176
0.00352055
0.00133533
0.0012281
0.00125086
0.0136693
0.005651
0.00368288
0.00354813
0.0045543
0.00551837
0.00426377
0.00186552
0.00173549
0.00159428
0.000672367
0.00112651
0.000641987
0.00189238
0.00180108
0.00087206
0.000899411
0.000694082
0.000888974
0.00183197
0.00156987
0.00168673
0.00123399
0.00154891
0.00122153
0.00152631
0.00261262
0.00551609
0.000669999
0.000605883
0.00160272
0.00956838
0.00446639
0.00608993
0.000675443
0.00241681
0.00731092
0.00536866
0.00794629
0.00636397
0.000630649
0.00184308
0.00176213
0.00283952
0.00149897
0.00232476
0.00191062
0.00258173
0.0014522
0.0018577
0.00168439
0.000948935
0.000932859
0.00119101
0.000922571
0.000692024
0.000885101
0.00117989
0.000918004
0.00453276
0.00557506
0.00891134
0.0101107
0.00569106
0.00397821
0.00749126
0.00530839
0.0122285
0.00597228
0.00250379
0.00246989
0.00383684
0.00178576
0.00183627
0.00222964
0.00376439
0.00183546
0.00236801
0.00248164
0.00446566
0.0038987
0.00519727
0.0023871
0.00310602
0.00387229
0.00531907
0.00320359
0.00295326
0.00379509
0.00183662
0.00228233
0.00328119
0.00158544
0.00282399
0.00194972
0.00294613
0.00149573
0.00199963
0.00194014
0.00188977
0.000683428
0.00067549
0.000653191
0.00216671
0.00212641
0.0020264
0.00206895
0.00200991
0.00074667
0.000768685
0.00070321
0.000778564
0.00146303
0.00129058
0.00144177
0.00169712
0.00227023
0.0143781
0.0117584
0.00887842
0.00917179
0.00663838
0.00309606
0.00448337
0.00427625
0.0141137
0.00709551
0.000997126
0.00185804
0.00331889
0.00176884
0.00108287
0.00107095
0.00207459
0.0013425
0.00144838
0.00112749
0.00110119
0.00124237
0.0011053
0.00314811
0.00364781
0.0137139
0.0103502
0.00997043
0.0044369
0.00594241
0.00513721
0.0107921
0.00632048
0.0015594
0.00127808
0.00379503
0.00188222
0.00192306
0.00281679
0.00354445
0.00225192
0.00108516
0.00109
0.00300037
0.00259997
0.00481156
0.00261293
0.00289656
0.00425931
0.00545363
0.00382097
0.00140439
0.00165405
0.000737243
0.00251665
0.00394873
0.00223217
0.00132842
0.00112343
0.00231234
0.00143796
0.00196049
0.00176349
0.00185175
0.00189846
0.00170071
0.00184583
0.0017225
0.0016685
0.001809
0.000681285
0.000621583
0.000645211
0.000712477
0.000902933
0.000660618
0.000610537
0.000829651
0.00064624
0.00206741
0.0019873
0.00193967
0.00203419
0.00194377
0.00203525
0.00191141
0.000804174
0.000794798
0.000906973
0.000807955
0.00070156
0.000768794
0.000776661
0.000902574
0.000796986
0.00080561
0.00170696
0.00173283
0.00161576
0.00169344
0.00147182
0.00158172
0.0015122
0.00164975
0.00149363
0.00127412
0.0013664
0.0014196
0.00161959
0.00141259
0.0014694
0.00116437
0.0013498
0.00127861
0.00143433
0.00139442
0.00131732
0.00205135
0.00333007
0.00268225
0.00350864
0.00252225
0.00373197
0.0041482
0.00297186
0.000655018
0.000615714
0.000595595
0.00060237
0.000536362
0.00057814
0.00663765
0.00110448
0.0045219
0.0116921
0.00749996
0.00987143
0.0107262
0.00965088
0.00225366
0.00906402
0.00535644
0.00708102
0.00862594
0.00960298
0.000945608
0.00216956
0.00418884
0.00292274
0.00329786
0.00402418
0.00564979
0.00676027
0.00478397
0.00371162
0.00636353
0.00450387
0.00394502
0.00583943
0.0134144
0.0110446
0.00226235
0.00835158
0.00101006
0.00468308
0.00936831
0.0069105
0.0005291
0.00184686
0.000598382
0.0010361
0.00100714
0.00157392
0.00123881
0.00134646
0.00163999
0.00126685
0.00182505
0.00166708
0.00173608
0.0030883
0.0015985
0.00172863
0.0016288
0.00157037
0.00169867
0.00104443
0.00106552
0.00149231
0.00216583
0.00145196
0.00137075
0.00210537
0.00143435
0.00125798
0.00132367
0.00232419
0.00154809
0.00139614
0.0013068
0.00152311
0.0013744
0.00173014
0.00190402
0.00177912
0.00190852
0.00178448
0.0015656
0.00103424
0.00106126
0.000943357
0.00106246
0.00122773
0.00106926
0.00109526
0.000938017
0.00103035
0.00105377
0.000676977
0.000766629
0.00074935
0.000794523
0.000860328
0.000775565
0.00112775
0.0010613
0.00102074
0.00102337
0.000890371
0.000986799
0.00376978
0.00477823
0.0041725
0.00450715
0.00383918
0.00489934
0.00486554
0.00432247
0.011915
0.0072109
0.00897556
0.0107047
0.00836855
0.0096318
0.00675705
0.00751569
0.00854797
0.00433
0.00436898
0.00494219
0.00649365
0.00666644
0.00543951
0.00454078
0.00627374
0.00520568
0.0047829
0.00574536
0.0113997
0.00931202
0.00695181
0.00511625
0.008098
0.00621789
0.00190919
0.00240875
0.00164279
0.00112507
0.00122102
0.00241831
0.00152999
0.00159568
0.00384826
0.00196193
0.00193288
0.00184702
0.00183015
0.00188736
0.00191621
0.00183596
0.00189498
0.00266431
0.00191732
0.00215855
0.00365002
0.00198314
0.00214688
0.00187406
0.00193228
0.00206642
0.00111047
0.0010919
0.00150126
0.00246029
0.00151562
0.00152312
0.00247679
0.00151718
0.00364365
0.00425376
0.00327729
0.00214023
0.00247822
0.00417408
0.0028059
0.00315792
0.00502771
0.00327887
0.0029915
0.00254996
0.00270078
0.00284343
0.00323588
0.00280397
0.00294129
0.00416985
0.00358186
0.00376888
0.00539874
0.00337747
0.00370124
0.00348839
0.00333621
0.00365343
0.00203571
0.00174404
0.00193894
0.00333279
0.00224807
0.00269108
0.00345435
0.00235589
0.000865124
0.000762713
0.0014354
0.000984076
0.00119772
0.00152659
0.00102992
0.00245189
0.00197265
0.00216033
0.00361831
0.00186057
0.00213637
0.00187231
0.00178644
0.0020646
0.000908027
0.00106328
0.0018416
0.00243769
0.0015699
0.00126323
0.00231152
0.00148695
0.00117674
0.00137176
0.00262087
0.00177008
0.00151762
0.00124951
0.00169781
0.00144823
0.00149738
0.00153567
0.0128819
0.00415526
0.00063851
0.00058122
0.00131483
0.0014264
0.0126007
0.00715641
0.00146039
0.0014243
0.000696734
0.000756393
0.00121775
0.00113307
0.000606851
0.000626991
0.000587471
0.000568956
0.00189543
0.00183607
0.00186444
0.0016375
0.00161615
0.00166155
0.000675429
0.000652991
0.000657067
0.000609205
0.000702001
0.00063806
0.00192196
0.00191285
0.00194355
0.000696389
0.000717289
0.000719437
0.000892756
0.000857222
0.000860212
0.00179502
0.001803
0.00176691
0.00161158
0.00154307
0.00158298
0.00124547
0.001277
0.00129025
0.00157024
0.00150448
0.0015237
0.00120793
0.00126323
0.00124811
0.00150132
0.00148317
0.00145984
0.0029137
0.00277959
0.00444156
0.00452755
0.00309488
0.00203244
0.00189357
0.00757075
0.00482342
0.00552564
0.00666066
0.00492995
0.000667758
0.000649941
0.000647191
0.000590833
0.000577183
0.000575055
0.0222232
0.0028804
0.00627925
0.0152865
0.0209675
0.00502983
0.0119403
0.01075
0.00898438
0.00634557
0.00686837
0.00927783
0.0103561
0.0071468
0.000735274
0.000882867
0.00108716
0.00490558
0.00257708
0.00265457
0.00459683
0.00467187
0.0028464
0.00482527
0.00713471
0.0078012
0.00474327
0.00565513
0.0068477
0.00811707
0.00502089
0.00221876
0.00244113
0.00969632
0.0107162
0.0169202
0.0244848
0.0122328
0.015508
0.00873163
0.00625325
0.0072526
0.00999758
0.00702158
0.000588991
0.000763455
0.000658512
0.000291215
0.000278208
0.003088
0.00190514
0.00177511
0.00295986
0.00184821
0.00436495
0.00169922
0.00427969
0.0017343
0.00416179
0.00448938
0.00167582
0.00365726
0.00335256
0.00154414
0.00146779
0.0034936
0.00350737
0.00150875
0.00031275
0.000343967
0.00230596
0.00407091
0.0022762
0.00396173
0.00226475
0.00321722
0.00196138
0.00197734
0.00334661
0.00201662
0.00320741
0.00321133
0.0014042
0.00142507
0.00307102
0.00335688
0.00138094
0.00181997
0.00187763
0.00183917
0.00120184
0.00114989
0.00115917
0.000926709
0.000957012
0.000962166
0.000690033
0.00071533
0.000713362
0.000853859
0.000880938
0.00085032
0.0011677
0.00113979
0.00112887
0.000951691
0.000913123
0.000945968
0.00479745
0.0046033
0.00663347
0.00491407
0.00666223
0.00252275
0.0022763
0.00771394
0.00527745
0.00596493
0.005706
0.00729411
0.0171866
0.00973632
0.0104829
0.017339
0.0106385
0.0172671
0.0170618
0.00979052
0.00848082
0.00598565
0.00617715
0.00647234
0.00880953
0.00943441
0.00700344
0.00403431
0.00409344
0.00676968
0.00417801
0.00678082
0.00698979
0.0076573
0.00782007
0.00499755
0.00558274
0.00524643
0.00737688
0.00812092
0.0028164
0.00314975
0.0119679
0.012417
0.0184327
0.0114931
0.0171249
0.00832675
0.00629388
0.00651141
0.00671237
0.00921691
0.00277759
0.00441272
0.00244153
0.00442097
0.00267902
0.0011607
0.00121091
0.00458739
0.00245339
0.00249581
0.00457843
0.00250444
0.00470995
0.00171872
0.00438939
0.00180501
0.00460504
0.00448946
0.00173418
0.00503719
0.00482179
0.00177004
0.00183793
0.00505572
0.00480357
0.00176561
0.00482654
0.00235595
0.00458079
0.00208815
0.00480617
0.00460226
0.00217945
0.005042
0.00482381
0.00183868
0.00177873
0.00481004
0.00505718
0.00179543
0.00110693
0.00105184
0.00234336
0.00417268
0.00240548
0.00426588
0.00237659
0.00458254
0.00248775
0.00248728
0.00456322
0.00247811
0.00468408
0.00660389
0.00439828
0.00457212
0.00656748
0.000812573
0.000850095
0.00608031
0.00399645
0.00387698
0.00399761
0.00619645
0.00546294
0.00234838
0.00249186
0.00502446
0.00244793
0.00521584
0.00526927
0.00630766
0.00619741
0.00304737
0.00300679
0.00294766
0.0064424
0.00606049
0.00695944
0.00390324
0.0067577
0.00377238
0.00697754
0.00378157
0.00673816
0.00666829
0.00632071
0.00329967
0.00314725
0.00324766
0.00642949
0.00656291
0.00077922
0.00074863
0.00286803
0.00308148
0.0047794
0.00299464
0.00496678
0.00595128
0.00375422
0.00368609
0.00362969
0.00581009
0.000471691
0.000462666
0.00308218
0.00183736
0.00172798
0.00174284
0.00291182
0.00486706
0.00224922
0.00217795
0.00482861
0.00215067
0.00507016
0.00462951
0.00383888
0.00343815
0.00167819
0.00159271
0.00168012
0.00363072
0.00363903
0.000482195
0.000493886
0.00274254
0.00269454
0.0045887
0.00261876
0.00439586
0.00325873
0.00193702
0.00206708
0.00204125
0.00344077
0.00325213
0.00325024
0.00140949
0.00150797
0.00142625
0.00306781
0.003443
0.00197399
0.00202251
0.00197947
0.00196744
0.00200627
0.00194753
0.00198976
0.00193658
0.00187048
0.0019305
0.00191036
0.00191098
0.00189517
0.0019521
0.000672007
0.000681632
0.000682356
0.000667432
0.000682738
0.000669942
0.000667196
0.000671672
0.000668184
0.000656279
0.000659936
0.000663981
0.000678553
0.000659088
0.00206527
0.00208657
0.00209207
0.00209293
0.00205301
0.00204957
0.00200572
0.00204736
0.00203275
0.00202626
0.00207054
0.00206624
0.00204678
0.00209062
0.00206187
0.00207126
0.0020403
0.00208456
0.00204536
0.00200649
0.00192381
0.00197634
0.000678717
0.000714837
0.000753089
0.000716009
0.000717698
0.000700332
0.000699343
0.000725939
0.000697702
0.000720173
0.000722474
0.00074074
0.000770166
0.000774641
0.000751164
0.000766748
0.000743872
0.000747358
0.000707557
0.000661947
0.000678877
0.000767182
0.00133127
0.00129455
0.00127537
0.00133997
0.00128094
0.00132444
0.00134516
0.001383
0.00142553
0.00144954
0.00139049
0.00143541
0.00137453
0.0013969
0.00103801
0.00186038
0.00121213
0.00163234
0.00157977
0.00205068
0.00175334
0.00145189
0.0254244
0.0582867
0.0499999
0.0225276
0.0197634
0.00456999
0.00798803
0.00787529
0.0100792
0.021036
0.00930002
0.00659682
0.00568839
0.00573762
0.00647647
0.00679053
0.00630116
0.0059341
0.00719696
0.00351716
0.00407122
0.0122245
0.0130039
0.010129
0.00712838
0.00803205
0.0079806
0.000295207
0.00031374
0.0005547
0.000986092
0.000569397
0.00635417
0.00643674
0.00653297
0.0062644
0.00614072
0.0058468
0.00604245
0.00593771
0.00047444
0.000525462
0.000895573
0.00107952
0.000851211
0.000758881
0.00107536
0.000804963
0.0036024
0.00363958
0.00343509
0.00381121
0.00126675
0.00133379
0.00144458
0.00137472
0.00122829
0.0011649
0.00106953
0.00112893
0.00118407
0.00124524
0.00122763
0.00119538
0.00123176
0.00118098
0.00119722
0.00113752
0.00109171
0.00110534
0.00114962
0.00109269
0.00113566
0.00115054
0.120272
0.0687658
0.0691614
0.00539241
0.00544801
0.0060391
0.00551746
0.0186677
0.0176397
0.0186051
0.019431
0.0074755
0.00741239
0.00753176
0.00736381
0.00658971
0.00672099
0.0069301
0.00685752
0.00554999
0.00574107
0.0062155
0.0059615
0.00746736
0.00765419
0.00798815
0.00785166
0.00760781
0.00776476
0.00806249
0.00789904
0.00199887
0.00330412
0.00219939
0.00170061
0.00155478
0.0034707
0.00273655
0.00244465
0.019087
0.0195704
0.0183801
0.0210828
0.0198262
0.0190928
0.0195986
0.0193933
0.00861189
0.00777025
0.00774775
0.00858544
0.00865264
0.00784948
0.00774676
0.00881359
0.00475255
0.00567155
0.0114187
0.00770884
0.00786714
0.00772826
0.00684882
0.00823588
0.000929437
0.00144496
0.000880931
0.00134707
0.0013861
0.00135205
0.000902182
0.000877313
0.00686009
0.00661678
0.00671404
0.00675756
0.0069978
0.0069829
0.00688349
0.00710229
0.00657673
0.00582086
0.00652414
0.00593496
0.00671976
0.00633826
0.00619047
0.00682647
0.000876897
0.000816079
0.000937175
0.0010868
0.000975136
0.00103449
0.00108834
0.00100783
0.001838
0.00286045
0.00171199
0.000995988
0.00105986
0.00272714
0.00154107
0.00161509
0.00775141
0.00746798
0.00767656
0.00753246
0.00795836
0.00803844
0.00786131
0.00814533
0.0086572
0.00792496
0.00798173
0.00863835
0.00873088
0.00821762
0.00817396
0.00874856
0.000671165
0.000648677
0.00100412
0.00148391
0.00106042
0.00116381
0.00156718
0.00111406
0.00641149
0.00623337
0.00581014
0.00602377
0.00313877
0.00360424
0.00335859
0.00723486
0.00700813
0.00649341
0.00675013
0.00397762
0.00370648
0.000443544
0.000439784
0.000343785
0.000715314
0.000344032
0.00704763
0.00723562
0.00729062
0.00700388
0.00678007
0.00648747
0.00673494
0.00652091
0.000535571
0.000551684
0.000944796
0.0012561
0.000883521
0.000757069
0.00118757
0.000820816
0.00380958
0.00395157
0.00372454
0.00404336
0.00187775
0.00192127
0.00194955
0.00192826
0.00191722
0.00190455
0.00188916
0.00180036
0.00179021
0.00182882
0.00183765
0.00184063
0.00189186
0.00181394
0.00188099
0.00180174
0.00185356
0.00175268
0.00171596
0.00168266
0.00175065
0.00173238
0.00170139
0.00176747
0.00180267
0.00182699
0.00186534
0.00179927
0.00185028
0.00178061
0.00181747
0.00168168
0.00174917
0.00170627
0.00166836
0.0016362
0.00165713
0.00171669
0.00170573
0.00162376
0.00168289
0.00171604
0.0017982
0.0017725
0.00176369
0.00175746
0.00175244
0.0017283
0.00066144
0.000678488
0.000679024
0.000664368
0.000665115
0.000676216
0.000661069
0.000635521
0.000630367
0.00064138
0.000649535
0.000656649
0.000651309
0.000638606
0.000655726
0.000647953
0.000646861
0.000870889
0.000981458
0.000984284
0.000750794
0.000790669
0.00105239
0.000807634
0.000761568
0.000683824
0.000676687
0.000693178
0.000711009
0.000732559
0.000719719
0.000607798
0.000623213
0.000629086
0.000690722
0.000763822
0.000913075
0.000704334
0.000734493
0.000861871
0.000666599
0.000681868
0.000662679
0.000635114
0.000668851
0.000646839
0.000703463
0.000649597
0.00195158
0.00194752
0.00197626
0.00200915
0.00199768
0.00193675
0.00197
0.00193012
0.00197038
0.00196042
0.00197636
0.00202209
0.00202484
0.00199682
0.00201355
0.00197735
0.00198593
0.00197392
0.00202333
0.00199902
0.00199028
0.001716
0.00178386
0.00188697
0.00182506
0.00087539
0.000830033
0.000767572
0.00080843
0.000858511
0.000903891
0.000895716
0.00087226
0.000861549
0.000893005
0.0008688
0.000825782
0.000798622
0.000804064
0.000839217
0.000795179
0.000829155
0.00083549
0.00071682
0.000698929
0.000697201
0.000724421
0.000718635
0.000695251
0.000721738
0.000742465
0.000770961
0.000744374
0.00074091
0.000768963
0.000749549
0.000773343
0.000742564
0.000766912
0.00074662
0.000855737
0.000896615
0.000892983
0.000868673
0.000859265
0.000888409
0.000863536
0.000826211
0.000799175
0.000828971
0.000824467
0.000797134
0.000836321
0.00080177
0.00082747
0.000794774
0.000831904
0.00087859
0.00173822
0.00100465
0.000746153
0.00175132
0.00167871
0.00172414
0.00176873
0.00169933
0.00173388
0.00164848
0.00165936
0.00169236
0.00165378
0.00166144
0.00162335
0.00150981
0.00150891
0.0015478
0.00162287
0.00154547
0.00158647
0.00159585
0.00166347
0.00163216
0.00159803
0.00164893
0.00158066
0.00161016
0.00154211
0.00147693
0.00150278
0.0015458
0.00148865
0.00152884
0.00155646
0.00129078
0.0012565
0.00126267
0.00132168
0.00131049
0.00124548
0.0013024
0.00132201
0.00138231
0.00133604
0.00133782
0.00140843
0.00137027
0.00139673
0.00135871
0.00138457
0.00134918
0.00152936
0.00158933
0.0016086
0.00156983
0.00157587
0.00155834
0.00154137
0.00145786
0.00142913
0.00147639
0.00148019
0.00145782
0.00151963
0.00144457
0.00150846
0.00143263
0.00149308
0.0011883
0.00120165
0.00122678
0.00130666
0.00133155
0.00128998
0.00123979
0.00130693
0.0012671
0.00146967
0.00139542
0.00143
0.00143831
0.00137453
0.00141672
0.00135641
0.00134831
0.00138858
0.00239607
0.00222562
0.00257388
0.00301565
0.00496623
0.00362091
0.00469403
0.00332828
0.00243475
0.00306126
0.00279392
0.00169828
0.00178221
0.00353651
0.00313671
0.00300776
0.00211458
0.00280886
0.00253186
0.004224
0.00537044
0.00398077
0.00592539
0.00441205
0.00471514
0.00369866
0.00420221
0.00338086
0.00330788
0.00375786
0.000661941
0.000634132
0.000641175
0.000631479
0.000610652
0.000627862
0.000614235
0.000603202
0.000621315
0.000594459
0.000595279
0.000583452
0.000552652
0.000547942
0.000559636
0.000586357
0.000562161
0.000571837
0.00196023
0.00126443
0.00110819
0.00166902
0.00131694
0.0018094
0.00186536
0.00257689
0.00526034
0.00500781
0.00225707
0.00492383
0.00186816
0.00283016
0.0131832
0.0120056
0.0124978
0.0137667
0.0144925
0.0138769
0.018667
0.0126903
0.0214817
0.00932569
0.016497
0.00925979
0.0154091
0.0160267
0.00817389
0.0153577
0.00386728
0.0104474
0.028392
0.00410734
0.00754089
0.00542035
0.0240309
0.00353275
0.0115525
0.0121554
0.00781203
0.0137361
0.00883824
0.014381
0.0120603
0.007927
0.00161088
0.000803011
0.000940378
0.00150806
0.000820078
0.00174078
0.00129505
0.00100138
0.00302708
0.0010451
0.00114186
0.00555661
0.00178799
0.00382977
0.00141318
0.0051486
0.00119278
0.00507414
0.00294684
0.00510424
0.00354139
0.00483226
0.00535615
0.00316658
0.00962775
0.0102297
0.0106092
0.00895131
0.008574
0.00702011
0.007803
0.00783051
0.00636787
0.00419108
0.00551654
0.00397286
0.0060891
0.00578057
0.00446694
0.00307222
0.00274098
0.00412858
0.0044449
0.004765
0.00620417
0.00509305
0.00547913
0.0107677
0.0134332
0.0176556
0.0134478
0.0171029
0.0111654
0.0163911
0.0104147
0.0161547
0.0102376
0.0137038
0.00203295
0.00783866
0.00876905
0.00904673
0.00913744
0.00125883
0.00148414
0.00242697
0.00532929
0.00529105
0.00601054
0.00846694
0.0130521
0.00887283
0.0117863
0.00807486
0.00608833
0.00769781
0.00689673
0.000552599
0.000529482
0.000574321
0.00090833
0.00131835
0.000772097
0.000553629
0.000834839
0.000639438
0.000281594
0.00027528
0.000575291
0.00102682
0.000557451
0.000546934
0.0010169
0.000547671
0.00150887
0.00259009
0.00167812
0.00247356
0.00162249
0.00121043
0.00141499
0.00137425
0.00157529
0.00132086
0.00153603
0.00170725
0.00271015
0.00173432
0.00283359
0.00179108
0.00129432
0.00145574
0.00149618
0.00423314
0.00170227
0.00390645
0.00161799
0.00409524
0.00403676
0.00164851
0.00523335
0.00489631
0.00500722
0.00511489
0.00548294
0.00559539
0.00570132
0.00538471
0.00380592
0.00158755
0.00377171
0.00158433
0.00395244
0.0036336
0.00154774
0.000425469
0.000381347
0.00060115
0.00105213
0.000633773
0.000714214
0.00105896
0.000671702
0.00182714
0.00148096
0.00180374
0.00222294
0.00372608
0.0021728
0.00384616
0.00222028
0.00146746
0.001749
0.00177767
0.00161335
0.0013937
0.00164991
0.00204237
0.00360185
0.00212256
0.003475
0.00207037
0.00141491
0.00171784
0.00168479
0.00263581
0.00120913
0.00266484
0.00124441
0.00253646
0.00277324
0.00119833
0.00452564
0.00461827
0.00475243
0.00439872
0.0042741
0.00390679
0.00405312
0.00412197
0.00305982
0.00135569
0.002797
0.0012904
0.00293267
0.00291481
0.00133602
0.0017757
0.00174967
0.0017943
0.00189415
0.00186496
0.0018552
0.00176574
0.00181974
0.00180989
0.00187001
0.00182504
0.00167298
0.00160224
0.00148722
0.00155864
0.000901569
0.000951723
0.0010365
0.000981625
0.000967594
0.000940737
0.000931557
0.00098142
0.000929449
0.000969164
0.000979357
0.00100769
0.00104934
0.00106173
0.00102116
0.00104929
0.00100844
0.00101972
0.00115784
0.00121188
0.00121671
0.0011824
0.00117116
0.0012011
0.00116814
0.00110865
0.00107657
0.0011173
0.00111524
0.00108429
0.00113818
0.0010838
0.00112733
0.00107391
0.00112542
0.000958266
0.000931111
0.00092794
0.000975072
0.000922497
0.00096492
0.000967206
0.000993408
0.00103716
0.000999049
0.000995544
0.00104324
0.00101369
0.00104364
0.00100311
0.00103412
0.00100473
0.000684268
0.000699934
0.00070739
0.000740435
0.000764357
0.000738393
0.000724139
0.000757715
0.000732187
0.000823358
0.000791936
0.000820313
0.000871773
0.000831139
0.000841972
0.000784858
0.000802782
0.000812575
0.00114944
0.00109137
0.00111207
0.00109971
0.00105272
0.00108997
0.0010556
0.00103854
0.00107442
0.000987203
0.00101581
0.000980613
0.00090318
0.000921363
0.000934986
0.00100272
0.000953604
0.000968687
0.0043872
0.00130022
0.023139
0.0169118
0.0114804
0.0137369
0.0121186
0.0132633
0.0100355
0.0083882
0.00651275
0.0075951
0.0108231
0.012617
0.0174162
0.0152406
0.0098518
0.00880368
0.00769126
0.00825093
0.00696332
0.0070373
0.00701352
0.00701737
0.00691142
0.0067577
0.0064078
0.00663126
0.0083263
0.00831572
0.00814043
0.00821773
0.0083625
0.00830405
0.00815311
0.00827473
0.00420662
0.00389897
0.00433137
0.00468289
0.00517119
0.0067584
0.00503753
0.00669983
0.00403317
0.004598
0.00446141
0.00186786
0.00205747
0.00441749
0.00426926
0.0039205
0.00307921
0.00404331
0.00347196
0.00506046
0.00532156
0.00685796
0.00549554
0.00702479
0.00532146
0.00466523
0.00510211
0.00474719
0.00448262
0.00491067
0.0132623
0.0114291
0.0127033
0.0118852
0.0156563
0.0177184
0.0179937
0.0158187
0.0165708
0.00975221
0.00859639
0.0142621
0.00959856
0.0146535
0.0163654
0.0111087
0.0067688
0.00775531
0.0123805
0.00706847
0.0128398
0.0106937
0.00702874
0.00422201
0.00451822
0.00684544
0.00433772
0.00680134
0.00708142
0.0100495
0.0100501
0.00935132
0.0108397
0.00944076
0.00816653
0.00905622
0.00850323
0.00736023
0.0047471
0.00472435
0.00693478
0.0049644
0.0070985
0.00718216
0.00406948
0.00357544
0.00497759
0.00506091
0.00557898
0.00696263
0.00541905
0.00626244
0.0114234
0.00903719
0.0097754
0.0109687
0.00885112
0.0137536
0.0101439
0.0160003
0.00768043
0.00761952
0.00851858
0.00559949
0.00539651
0.00592608
0.0072048
0.00792253
0.0119582
0.00724759
0.0103757
0.00578635
0.00686892
0.00636112
0.00225608
0.00179584
0.00214893
0.00241332
0.00448761
0.00256415
0.00444988
0.00261022
0.00170828
0.00201294
0.0020696
0.00130447
0.00125904
0.00104085
0.00114691
0.00101333
0.000939194
0.00117803
0.000978389
0.00243496
0.00452541
0.00253464
0.00455698
0.0025163
0.00192239
0.00154253
0.0019325
0.001974
0.00156334
0.00194853
0.00726689
0.00706694
0.00707335
0.00726776
0.00724294
0.00704207
0.00718757
0.00709244
0.00480359
0.00181984
0.00465617
0.0017543
0.00488457
0.00457891
0.00174601
0.00500217
0.00183832
0.00471991
0.00175945
0.00495099
0.00476943
0.00176267
0.00486928
0.00198627
0.00469412
0.001943
0.00464431
0.00492049
0.00204354
0.00717351
0.00696287
0.00689728
0.0072265
0.00706998
0.00658998
0.0069737
0.00670968
0.00501217
0.00184982
0.00474216
0.00187209
0.00478198
0.00497037
0.0018248
0.000935731
0.000994216
0.00105841
0.00110098
0.00106636
0.00105347
0.00109528
0.00106438
0.00184754
0.00150796
0.00186482
0.00243635
0.00442175
0.00242991
0.00434933
0.00240542
0.00151263
0.00189025
0.00187894
0.00191582
0.00151972
0.00191063
0.00248592
0.00448215
0.00245009
0.00452961
0.00246596
0.00151826
0.00189901
0.00190548
0.00408463
0.0035201
0.00396448
0.00432815
0.00434735
0.00646068
0.00446019
0.00652041
0.00339805
0.00372621
0.00384517
0.000941022
0.000892478
0.00136354
0.0022485
0.00139904
0.001484
0.00236109
0.00143792
0.00408831
0.00423285
0.00638714
0.00411622
0.00629892
0.00325009
0.00292211
0.00336919
0.00360736
0.00303962
0.00348837
0.0085683
0.00845213
0.00835881
0.00867177
0.00845656
0.00816389
0.00830857
0.00830254
0.00565042
0.00259661
0.00264802
0.00558043
0.00254794
0.00583
0.00540175
0.00615986
0.00290602
0.00274795
0.00575054
0.00284783
0.00600014
0.00591108
0.00693088
0.00367611
0.00355756
0.00666111
0.00366693
0.00670675
0.00688855
0.008784
0.00843298
0.00847698
0.00872759
0.00878333
0.00837727
0.00879655
0.00838169
0.00675782
0.00339451
0.0034521
0.00660009
0.0033491
0.00652279
0.00683128
0.000695196
0.000720884
0.0013284
0.00193498
0.0012916
0.00120986
0.00183775
0.00125243
0.00232104
0.00203934
0.00243229
0.00320833
0.00324964
0.00532675
0.00312206
0.00514966
0.00214251
0.00266043
0.00254556
0.00313106
0.00257776
0.0030123
0.00357235
0.00337705
0.00549654
0.0035039
0.00565814
0.00246599
0.00277661
0.00289408
0.00484511
0.00509828
0.00557933
0.00534101
0.004598
0.00433909
0.00383874
0.00409515
0.00537327
0.00566055
0.00621912
0.00594292
0.00509082
0.00480142
0.0042411
0.00452563
0.000449002
0.000455197
0.000462584
0.000826529
0.000417418
0.000355874
0.000792261
0.000381181
0.00134994
0.0014928
0.00244629
0.00142131
0.00230848
0.000943033
0.00118856
0.00113381
0.00145956
0.00113687
0.00138425
0.00162444
0.00157012
0.00259278
0.00165375
0.00274834
0.00108082
0.00124844
0.00131375
0.00466161
0.00207457
0.00195731
0.00422719
0.00205326
0.00445502
0.00442863
0.00567671
0.0053713
0.00562835
0.00540822
0.00596932
0.00619321
0.00623657
0.00593805
0.00404242
0.00177395
0.00186292
0.00402647
0.00177026
0.00424829
0.00382724
0.000520302
0.000506634
0.000514663
0.000955433
0.000571376
0.000693934
0.0010071
0.000631648
0.00221211
0.00174757
0.00210586
0.00256556
0.00237811
0.00400859
0.00249717
0.00420206
0.00165687
0.00190226
0.00200242
0.00153951
0.00133338
0.00162398
0.00218788
0.00226216
0.00381656
0.00214975
0.00362695
0.00140801
0.00180571
0.00171279
0.00256082
0.00110809
0.00120438
0.00256475
0.00113831
0.00241355
0.00272176
0.00485249
0.00505676
0.0048045
0.00511534
0.0045669
0.00425085
0.00431531
0.00449371
0.0030678
0.00132726
0.00127416
0.00272422
0.0013482
0.00289217
0.00289072
0.00198686
0.00204842
0.00202367
0.00204798
0.00202043
0.00201182
0.00201454
0.000668959
0.000678518
0.000666736
0.000680362
0.000678646
0.000672147
0.000665757
0.00206934
0.00210998
0.00207624
0.00207382
0.00204817
0.00209624
0.00209773
0.000710215
0.000717397
0.000696094
0.000689309
0.000690931
0.0007082
0.000717591
0.00132635
0.00135451
0.00127938
0.00129727
0.00133418
0.00127508
0.00134909
0.00117685
0.00119573
0.00123031
0.00124682
0.00122535
0.00117864
0.00119776
0.00175779
0.0017959
0.00172192
0.001731
0.00177928
0.0017048
0.00178438
0.000977382
0.000925854
0.00100165
0.00104943
0.0011254
0.00106222
0.000876742
0.000848747
0.000859897
0.000880914
0.00089937
0.00084456
0.000883433
0.000863946
0.00159622
0.00162443
0.00166885
0.00167671
0.00165089
0.00160983
0.00162161
0.00186612
0.00200228
0.00244233
0.00147156
0.00169316
0.00147505
0.00199212
0.000958369
0.000976616
0.000916521
0.000936711
0.000919849
0.000957103
0.00097585
0.00194798
0.00198902
0.00192814
0.00193234
0.00197462
0.00190502
0.00197562
0.000675958
0.000667092
0.000694041
0.000665753
0.000687387
0.000682071
0.000661222
0.00208331
0.00212139
0.00211221
0.00211704
0.00210779
0.00208831
0.00211166
0.000732089
0.000738684
0.000754544
0.000769278
0.000728266
0.000757771
0.000742161
0.00137877
0.00140219
0.00144321
0.00145617
0.00138587
0.00143226
0.00140215
0.0207645
0.0180137
0.0264887
0.0114348
0.0402016
0.0147959
0.014424
0.0215632
0.0141518
0.00999247
0.00802209
0.00550353
0.018382
0.0225687
0.00556447
0.0033534
0.00343496
0.00512738
0.00373404
0.00546539
0.00520058
0.00581198
0.00571378
0.00382358
0.00460211
0.00421372
0.00539103
0.00612996
0.00526729
0.00162776
0.00512232
0.00183395
0.00540761
0.00167499
0.00497946
0.00508782
0.00465913
0.00180099
0.00164589
0.00159177
0.00482088
0.00493042
0.0030345
0.00303948
0.0012914
0.00127515
0.00129035
0.00287099
0.00319753
0.00112989
0.00115287
0.00108407
0.00110401
0.00113239
0.00108437
0.00115008
0.0175494
0.00942023
0.0120419
0.0167735
0.0111535
0.0172225
0.0170372
0.0181413
0.0161561
0.0109008
0.0108138
0.0103198
0.0173754
0.0175657
0.0076147
0.00457712
0.00464154
0.00726747
0.00489035
0.00758945
0.00725982
0.00767872
0.00736033
0.00486976
0.00548718
0.00518327
0.00728205
0.00777734
0.00567442
0.00168631
0.00525777
0.00189804
0.00555846
0.00165601
0.00537409
0.00578735
0.00556281
0.00168374
0.00191408
0.00168381
0.00587371
0.00547958
0.00549015
0.00305269
0.00513514
0.00258136
0.00546162
0.00269009
0.00519595
0.00559593
0.00538318
0.00239833
0.00221463
0.00253755
0.00528417
0.0056653
0.00654403
0.00241573
0.00270703
0.00601344
0.00248724
0.00634529
0.00620674
0.00672865
0.00656563
0.00267834
0.00280258
0.00257606
0.00690766
0.00639581
0.00760133
0.00440253
0.00728961
0.00409677
0.00761408
0.00409144
0.00731369
0.00764787
0.00733984
0.00395432
0.00370415
0.00399579
0.00733252
0.00762132
0.00591812
0.0023061
0.00242237
0.00580374
0.00225969
0.00613137
0.00559289
0.00568291
0.00514779
0.00232586
0.00210579
0.00213297
0.00536911
0.00546181
0.00317175
0.00314716
0.00136362
0.00138174
0.00138123
0.00295339
0.00336115
0.00180934
0.00184236
0.00188304
0.00188575
0.0018586
0.0018297
0.00183614
0.000774477
0.000770759
0.000780351
0.000694114
0.000738258
0.000784877
0.000744479
0.000816245
0.000829891
0.000781221
0.000798774
0.000785665
0.00081302
0.000830327
0.00154125
0.00157462
0.00149665
0.0015109
0.0014864
0.00155566
0.0015662
0.00293463
0.00268319
0.018456
0.00589626
0.00533247
0.0076138
0.0029288
0.0122876
0.00824906
0.0101227
0.00844943
0.0120275
0.0108677
0.00858734
0.0131744
0.0157757
0.0100981
0.00906057
0.0171554
0.0128495
0.00974582
0.026166