/*--------------------------------*- C++ -*----------------------------------*\
| =========                 |                                                 |
| \\      /  F ield         | OpenFOAM: The Open Source CFD Toolbox           |
|  \\    /   O peration     | Version:  2012                                  |
|   \\  /    A nd           | Website:  www.openfoam.com                      |
|    \\/     M anipulation  |                                                 |
\*---------------------------------------------------------------------------*/
FoamFile
{
    version     2.0;
    format      ascii;
    class       volScalarField;
    location    "0.108/solid";
    object      sigmaDiff;
}
// * * * * * * * * * * * * * * * * * * * * * * * * * * * * * * * * * * * * * //

dimensions      [1 -1 -2 0 0 0 0];


internalField   nonuniform List<scalar> 
3125
(
-9.4289e+07
-3.15829e+07
-9.8978e+07
-9.55013e+07
-9.63138e+07
-3.26054e+07
-3.20572e+07
-3.21164e+07
-5.92203e+07
-4.12383e+08
-1.97607e+08
-1.68306e+08
-6.10812e+07
-5.61329e+07
-5.70756e+07
-6.88984e+08
-2.92951e+08
-1.75962e+08
-1.84076e+08
-2.13625e+08
-2.82721e+08
-1.99605e+08
-8.47818e+07
-7.93785e+07
-7.24907e+07
-3.06473e+07
-5.81479e+07
-3.08976e+07
-8.59987e+07
-8.27009e+07
-3.98259e+07
-4.10349e+07
-3.16209e+07
-4.0458e+07
-8.34231e+07
-7.15103e+07
-7.70372e+07
-5.61345e+07
-7.0431e+07
-5.56578e+07
-6.95279e+07
-1.34439e+08
-2.8557e+08
-3.05689e+07
-2.86082e+07
-8.32734e+07
-4.88548e+08
-2.21054e+08
-3.15435e+08
-3.34081e+07
-1.255e+08
-3.74711e+08
-2.78325e+08
-3.95519e+08
-3.29308e+08
-3.06477e+07
-9.42406e+07
-9.11683e+07
-1.37857e+08
-7.73301e+07
-1.1849e+08
-9.75715e+07
-1.26482e+08
-7.4916e+07
-8.4592e+07
-7.72603e+07
-4.33165e+07
-4.2586e+07
-5.41817e+07
-4.19849e+07
-3.15637e+07
-4.03404e+07
-5.37618e+07
-4.18385e+07
-2.34319e+08
-2.88462e+08
-4.55791e+08
-5.10057e+08
-2.95716e+08
-2.05964e+08
-3.82504e+08
-2.75817e+08
-6.14701e+08
-3.08793e+08
-1.2916e+08
-1.27642e+08
-1.86458e+08
-9.2457e+07
-9.54112e+07
-1.15731e+08
-1.85496e+08
-9.53391e+07
-1.20776e+08
-1.27961e+08
-2.30092e+08
-1.96375e+08
-2.49294e+08
-1.20874e+08
-1.58312e+08
-2.00204e+08
-2.58636e+08
-1.6355e+08
-1.47804e+08
-1.90787e+08
-9.31926e+07
-1.15545e+08
-1.54896e+08
-8.0609e+07
-1.41391e+08
-9.86517e+07
-1.40134e+08
-7.61607e+07
-9.01804e+07
-8.87699e+07
-8.53235e+07
-3.126e+07
-3.25846e+07
-3.06327e+07
-1.00125e+08
-9.7399e+07
-9.13546e+07
-9.31848e+07
-9.24986e+07
-3.43124e+07
-3.51734e+07
-3.20652e+07
-3.53607e+07
-6.67877e+07
-5.84544e+07
-6.52653e+07
-8.81374e+07
-1.17945e+08
-7.27095e+08
-6.0777e+08
-4.50646e+08
-4.71731e+08
-3.34784e+08
-1.60792e+08
-2.30365e+08
-2.22138e+08
-6.74247e+08
-3.64989e+08
-5.16676e+07
-9.52199e+07
-1.59146e+08
-9.04506e+07
-5.41153e+07
-5.44763e+07
-1.03961e+08
-6.88612e+07
-6.63076e+07
-5.15011e+07
-5.02816e+07
-5.62794e+07
-5.00922e+07
-1.63574e+08
-1.89514e+08
-7.01325e+08
-5.13198e+08
-5.14419e+08
-2.29642e+08
-3.08514e+08
-2.66622e+08
-5.43438e+08
-3.28317e+08
-8.08939e+07
-6.55729e+07
-1.81713e+08
-9.65542e+07
-9.90334e+07
-1.46206e+08
-1.81414e+08
-1.16738e+08
-5.38149e+07
-5.27064e+07
-1.55885e+08
-1.35056e+08
-2.26722e+08
-1.29758e+08
-1.44809e+08
-2.20124e+08
-2.74586e+08
-1.962e+08
-7.28094e+07
-8.59094e+07
-3.64708e+07
-1.24788e+08
-1.8494e+08
-1.10348e+08
-6.87976e+07
-5.78837e+07
-1.12498e+08
-7.18795e+07
-8.85226e+07
-8.01634e+07
-8.36864e+07
-8.67507e+07
-7.68923e+07
-8.33693e+07
-7.83059e+07
-7.54877e+07
-8.17774e+07
-3.11008e+07
-2.84629e+07
-3.00296e+07
-3.50884e+07
-4.61951e+07
-3.14773e+07
-2.81122e+07
-4.20731e+07
-3.0477e+07
-9.31191e+07
-8.97107e+07
-8.81327e+07
-9.17562e+07
-8.83209e+07
-9.1789e+07
-8.78628e+07
-3.67913e+07
-3.63435e+07
-4.11365e+07
-3.66771e+07
-3.19534e+07
-3.5001e+07
-3.52757e+07
-4.09515e+07
-3.62802e+07
-3.65768e+07
-7.8748e+07
-7.89208e+07
-7.45429e+07
-7.71307e+07
-6.7906e+07
-7.29734e+07
-6.9131e+07
-7.46086e+07
-6.75985e+07
-5.77367e+07
-6.21476e+07
-6.42955e+07
-7.32917e+07
-6.42446e+07
-6.65382e+07
-5.37275e+07
-6.14967e+07
-5.89965e+07
-6.61771e+07
-6.35271e+07
-6.07815e+07
-1.04879e+08
-1.71788e+08
-1.38544e+08
-1.82198e+08
-1.31007e+08
-1.92853e+08
-2.1439e+08
-1.53698e+08
-3.02335e+07
-2.81586e+07
-2.7497e+07
-2.76286e+07
-2.48062e+07
-2.6696e+07
-3.38191e+08
-5.71036e+07
-2.28071e+08
-5.92891e+08
-3.87368e+08
-5.09259e+08
-5.30776e+08
-4.96113e+08
-1.15898e+08
-4.6789e+08
-2.7335e+08
-3.65983e+08
-4.45341e+08
-4.95051e+08
-4.8492e+07
-1.1186e+08
-2.11208e+08
-1.51834e+08
-1.71286e+08
-2.09026e+08
-2.8858e+08
-3.49824e+08
-2.4836e+08
-1.92733e+08
-3.29305e+08
-2.33806e+08
-2.04904e+08
-3.02811e+08
-6.40583e+08
-5.6776e+08
-1.1538e+08
-4.17249e+08
-5.24617e+07
-2.41618e+08
-4.84027e+08
-3.50537e+08
-2.45265e+07
-9.51423e+07
-2.94417e+07
-5.34832e+07
-5.21568e+07
-8.10431e+07
-6.43704e+07
-6.99436e+07
-8.42813e+07
-6.58242e+07
-9.34839e+07
-8.60973e+07
-8.87602e+07
-1.4886e+08
-8.17178e+07
-8.83705e+07
-8.40841e+07
-8.03085e+07
-8.68271e+07
-5.38163e+07
-5.44305e+07
-7.75421e+07
-1.10319e+08
-7.54264e+07
-7.12011e+07
-1.07268e+08
-7.45064e+07
-6.49599e+07
-6.79575e+07
-1.15089e+08
-7.91746e+07
-7.15407e+07
-6.74542e+07
-7.79287e+07
-7.04913e+07
-7.98173e+07
-8.66904e+07
-8.20759e+07
-8.68935e+07
-8.23229e+07
-7.17409e+07
-4.72183e+07
-4.84082e+07
-4.27792e+07
-4.81576e+07
-5.56425e+07
-4.86504e+07
-4.96591e+07
-4.25533e+07
-4.68826e+07
-4.77843e+07
-3.12459e+07
-3.49497e+07
-3.45843e+07
-3.62182e+07
-3.97038e+07
-3.57934e+07
-5.20387e+07
-4.83629e+07
-4.71031e+07
-4.66358e+07
-4.10895e+07
-4.55377e+07
-1.95692e+08
-2.48282e+08
-2.16792e+08
-2.33849e+08
-1.9941e+08
-2.5448e+08
-2.51831e+08
-2.24485e+08
-6.1444e+08
-3.74672e+08
-4.62364e+08
-5.32272e+08
-4.33314e+08
-4.97121e+08
-3.51032e+08
-3.89796e+08
-4.40332e+08
-2.24111e+08
-2.26787e+08
-2.56567e+08
-3.34457e+08
-3.46398e+08
-2.82443e+08
-2.35801e+08
-3.25984e+08
-2.70363e+08
-2.48116e+08
-2.98317e+08
-5.56097e+08
-4.7968e+08
-3.55598e+08
-2.64398e+08
-4.17642e+08
-3.1913e+08
-9.70676e+07
-1.25149e+08
-8.26238e+07
-5.54231e+07
-6.21822e+07
-1.2563e+08
-7.8321e+07
-8.04284e+07
-1.85268e+08
-1.0152e+08
-9.96708e+07
-9.47047e+07
-9.49644e+07
-9.71592e+07
-9.91886e+07
-9.53255e+07
-9.76939e+07
-1.38369e+08
-9.93811e+07
-1.12022e+08
-1.83165e+08
-1.02693e+08
-1.11281e+08
-9.71616e+07
-1.00114e+08
-1.07225e+08
-5.40593e+07
-5.2491e+07
-7.80065e+07
-1.25907e+08
-7.86566e+07
-7.83257e+07
-1.26952e+08
-7.86455e+07
-1.8897e+08
-2.16761e+08
-1.69336e+08
-1.11199e+08
-1.28732e+08
-2.11972e+08
-1.44284e+08
-1.6295e+08
-2.38658e+08
-1.65855e+08
-1.49943e+08
-1.26613e+08
-1.36993e+08
-1.42036e+08
-1.63495e+08
-1.42362e+08
-1.47294e+08
-2.15478e+08
-1.84222e+08
-1.93392e+08
-2.66894e+08
-1.71374e+08
-1.89543e+08
-1.79071e+08
-1.69093e+08
-1.86941e+08
-1.05775e+08
-9.06069e+07
-9.97113e+07
-1.66839e+08
-1.15392e+08
-1.38265e+08
-1.73027e+08
-1.20911e+08
-4.3783e+07
-3.79465e+07
-7.38533e+07
-5.08001e+07
-6.22348e+07
-7.82575e+07
-5.33349e+07
-1.21578e+08
-9.99243e+07
-1.06905e+08
-1.69937e+08
-9.20754e+07
-1.05594e+08
-9.48984e+07
-8.86279e+07
-1.02172e+08
-4.61734e+07
-5.46489e+07
-9.48067e+07
-1.22381e+08
-8.11499e+07
-6.56146e+07
-1.16216e+08
-7.69736e+07
-6.04013e+07
-6.88725e+07
-1.25921e+08
-8.77105e+07
-7.56393e+07
-6.39898e+07
-8.43632e+07
-7.24853e+07
-7.5917e+07
-7.78506e+07
-6.66069e+08
-2.15864e+08
-3.09995e+07
-2.78096e+07
-6.82022e+07
-7.37514e+07
-6.52248e+08
-3.71846e+08
-7.42875e+07
-7.28257e+07
-3.43292e+07
-3.77417e+07
-6.32753e+07
-5.8774e+07
-3.12878e+07
-3.25359e+07
-2.99386e+07
-2.85088e+07
-8.59622e+07
-8.34502e+07
-8.45616e+07
-7.44512e+07
-7.33433e+07
-7.53999e+07
-3.07341e+07
-2.97858e+07
-2.99415e+07
-2.86991e+07
-3.47067e+07
-3.0464e+07
-8.7154e+07
-8.6923e+07
-8.81284e+07
-3.16614e+07
-3.26684e+07
-3.26976e+07
-4.05504e+07
-3.90156e+07
-3.90735e+07
-8.19059e+07
-8.21083e+07
-8.0626e+07
-7.3408e+07
-7.04237e+07
-7.22441e+07
-5.65491e+07
-5.80879e+07
-5.85803e+07
-7.12659e+07
-6.84154e+07
-6.91561e+07
-5.51374e+07
-5.75563e+07
-5.69709e+07
-6.85195e+07
-6.75651e+07
-6.66275e+07
-1.48332e+08
-1.42944e+08
-2.28013e+08
-2.28087e+08
-1.57729e+08
-1.04783e+08
-9.82907e+07
-3.78054e+08
-2.49678e+08
-2.85115e+08
-3.27932e+08
-2.54284e+08
-3.05036e+07
-2.96665e+07
-2.95708e+07
-2.74944e+07
-2.67912e+07
-2.64929e+07
-1.09841e+09
-1.43492e+08
-3.2139e+08
-7.22576e+08
-1.01487e+09
-2.5739e+08
-5.92672e+08
-5.39168e+08
-4.51831e+08
-3.28443e+08
-3.55472e+08
-4.63535e+08
-5.22545e+08
-3.69575e+08
-3.66288e+07
-4.52485e+07
-5.64344e+07
-2.49546e+08
-1.33899e+08
-1.37877e+08
-2.36371e+08
-2.36572e+08
-1.47887e+08
-2.48612e+08
-3.51816e+08
-3.902e+08
-2.46074e+08
-2.92962e+08
-3.39132e+08
-4.03675e+08
-2.60335e+08
-1.13073e+08
-1.22679e+08
-4.69e+08
-5.54017e+08
-8.15991e+08
-1.19656e+09
-6.06933e+08
-7.39081e+08
-4.39753e+08
-3.22494e+08
-3.75179e+08
-5.05564e+08
-3.61822e+08
-2.7926e+07
-3.85465e+07
-3.23439e+07
-1.50327e+07
-1.41172e+07
-1.56076e+08
-9.86807e+07
-9.09014e+07
-1.50282e+08
-9.5793e+07
-2.17215e+08
-8.78803e+07
-2.12092e+08
-8.96684e+07
-2.06491e+08
-2.23206e+08
-8.6613e+07
-1.83933e+08
-1.69046e+08
-7.96708e+07
-7.5726e+07
-1.75536e+08
-1.76935e+08
-7.7841e+07
-1.62495e+07
-1.7705e+07
-1.19216e+08
-2.0035e+08
-1.15964e+08
-1.9531e+08
-1.17059e+08
-1.61879e+08
-1.01533e+08
-1.00876e+08
-1.67672e+08
-1.04336e+08
-1.62907e+08
-1.62532e+08
-7.24457e+07
-7.35274e+07
-1.56037e+08
-1.69905e+08
-7.12642e+07
-8.30427e+07
-8.54965e+07
-8.39168e+07
-5.45708e+07
-5.23135e+07
-5.26345e+07
-4.20904e+07
-4.35499e+07
-4.36996e+07
-3.15157e+07
-3.26199e+07
-3.25775e+07
-3.89182e+07
-4.02182e+07
-3.88213e+07
-5.33017e+07
-5.1936e+07
-5.153e+07
-4.33725e+07
-4.16868e+07
-4.31855e+07
-2.49026e+08
-2.38602e+08
-3.43823e+08
-2.55284e+08
-3.46139e+08
-1.30846e+08
-1.17815e+08
-3.62968e+08
-2.73399e+08
-3.0825e+08
-2.95276e+08
-3.54094e+08
-8.49636e+08
-4.8834e+08
-5.40161e+08
-8.58415e+08
-5.4584e+08
-8.56131e+08
-8.42473e+08
-4.75934e+08
-4.07454e+08
-3.11008e+08
-3.20931e+08
-3.36172e+08
-4.26657e+08
-4.57463e+08
-3.63881e+08
-2.09029e+08
-2.1217e+08
-3.51029e+08
-2.1668e+08
-3.52317e+08
-3.62484e+08
-3.79012e+08
-3.7705e+08
-2.59634e+08
-2.90087e+08
-2.72594e+08
-3.62291e+08
-3.95598e+08
-1.46265e+08
-1.63665e+08
-5.9215e+08
-6.38003e+08
-9.21114e+08
-5.81415e+08
-8.52234e+08
-3.89094e+08
-3.24892e+08
-3.36464e+08
-3.46085e+08
-4.4015e+08
-1.41576e+08
-2.28718e+08
-1.26358e+08
-2.29718e+08
-1.37e+08
-6.02847e+07
-6.292e+07
-2.30239e+08
-1.27065e+08
-1.29683e+08
-2.31274e+08
-1.30068e+08
-2.34103e+08
-8.89537e+07
-2.17392e+08
-9.35235e+07
-2.28863e+08
-2.2234e+08
-8.98238e+07
-2.52728e+08
-2.42164e+08
-9.19737e+07
-9.54983e+07
-2.54627e+08
-2.40247e+08
-9.17345e+07
-2.50791e+08
-1.22406e+08
-2.37482e+08
-1.08322e+08
-2.49304e+08
-2.39141e+08
-1.13224e+08
-2.5634e+08
-2.43448e+08
-9.54511e+07
-9.24151e+07
-2.44089e+08
-2.55833e+08
-9.32608e+07
-5.73983e+07
-5.43855e+07
-1.21194e+08
-2.05144e+08
-1.22799e+08
-2.09659e+08
-1.22974e+08
-2.28694e+08
-1.29252e+08
-1.27975e+08
-2.26643e+08
-1.2869e+08
-2.42826e+08
-3.40711e+08
-2.25796e+08
-2.36627e+08
-3.36813e+08
-3.78788e+07
-4.00544e+07
-3.00057e+08
-2.0177e+08
-1.9837e+08
-2.04877e+08
-3.07461e+08
-2.67759e+08
-1.18471e+08
-1.26228e+08
-2.45419e+08
-1.23589e+08
-2.54738e+08
-2.5824e+08
-3.11877e+08
-3.06445e+08
-1.55264e+08
-1.53031e+08
-1.49889e+08
-3.19632e+08
-2.98589e+08
-3.57796e+08
-2.01995e+08
-3.4899e+08
-1.94727e+08
-3.60488e+08
-1.95412e+08
-3.46149e+08
-3.33658e+08
-3.13869e+08
-1.6875e+08
-1.60684e+08
-1.66167e+08
-3.20809e+08
-3.26909e+08
-3.7252e+07
-3.68252e+07
-1.46207e+08
-1.54199e+08
-2.31731e+08
-1.52587e+08
-2.40721e+08
-2.92284e+08
-1.9182e+08
-1.85021e+08
-1.85245e+08
-2.84191e+08
-2.35385e+07
-2.34627e+07
-1.54497e+08
-9.4963e+07
-8.79584e+07
-9.0243e+07
-1.46844e+08
-2.3886e+08
-1.13407e+08
-1.1026e+08
-2.36022e+08
-1.08407e+08
-2.4859e+08
-2.26586e+08
-1.90709e+08
-1.71553e+08
-8.52168e+07
-8.05925e+07
-8.4902e+07
-1.80359e+08
-1.81467e+08
-2.35586e+07
-2.35286e+07
-1.39914e+08
-1.34998e+08
-2.22739e+08
-1.33731e+08
-2.1378e+08
-1.62402e+08
-9.99175e+07
-1.04333e+08
-1.05085e+08
-1.70547e+08
-1.63581e+08
-1.62959e+08
-7.18921e+07
-7.64246e+07
-7.24156e+07
-1.546e+08
-1.72408e+08
-8.97566e+07
-9.13831e+07
-8.9747e+07
-8.87631e+07
-9.12616e+07
-8.82692e+07
-8.99052e+07
-8.80176e+07
-8.47193e+07
-8.71288e+07
-8.63292e+07
-8.65814e+07
-8.61027e+07
-8.82061e+07
-3.14954e+07
-3.12732e+07
-3.14085e+07
-3.06874e+07
-3.16489e+07
-3.11261e+07
-3.08191e+07
-3.19392e+07
-3.19793e+07
-3.04064e+07
-3.12201e+07
-3.12252e+07
-3.28747e+07
-3.07421e+07
-9.60176e+07
-9.70999e+07
-9.75777e+07
-9.74733e+07
-9.34727e+07
-9.26113e+07
-9.09717e+07
-9.22619e+07
-9.25088e+07
-9.19366e+07
-9.35672e+07
-9.41228e+07
-9.29462e+07
-9.45158e+07
-9.28853e+07
-9.43995e+07
-9.26131e+07
-9.42194e+07
-9.5002e+07
-9.31291e+07
-8.91621e+07
-9.16494e+07
-3.19677e+07
-3.35509e+07
-3.49046e+07
-3.32481e+07
-3.28223e+07
-3.19929e+07
-3.19874e+07
-3.30355e+07
-3.20859e+07
-3.27924e+07
-3.29094e+07
-3.37445e+07
-3.48911e+07
-3.51806e+07
-3.41431e+07
-3.48388e+07
-3.37695e+07
-3.39821e+07
-3.40233e+07
-3.20017e+07
-3.4022e+07
-3.82513e+07
-6.02889e+07
-5.86034e+07
-5.76101e+07
-6.06808e+07
-5.79974e+07
-5.98356e+07
-6.08873e+07
-6.2645e+07
-6.44251e+07
-6.55949e+07
-6.29565e+07
-6.5035e+07
-6.21091e+07
-6.3221e+07
-5.38804e+07
-9.66608e+07
-6.23456e+07
-8.37283e+07
-8.04256e+07
-1.06555e+08
-8.82716e+07
-7.36747e+07
-1.23755e+09
-2.95386e+09
-2.56347e+09
-1.1674e+09
-9.30296e+08
-2.20171e+08
-4.01639e+08
-4.04339e+08
-4.73032e+08
-9.64972e+08
-4.68658e+08
-3.36149e+08
-2.94412e+08
-2.93504e+08
-3.34502e+08
-3.37511e+08
-3.02943e+08
-2.96043e+08
-3.4632e+08
-1.79067e+08
-2.11026e+08
-6.17479e+08
-6.40667e+08
-5.22692e+08
-3.6966e+08
-4.05811e+08
-4.1432e+08
-1.52671e+07
-1.63001e+07
-2.76038e+07
-5.11178e+07
-2.8571e+07
-3.12898e+08
-3.12029e+08
-3.21507e+08
-3.03701e+08
-3.02804e+08
-2.84206e+08
-2.93591e+08
-2.93213e+08
-2.27311e+07
-2.493e+07
-4.64294e+07
-5.4318e+07
-4.41969e+07
-3.94313e+07
-5.44275e+07
-4.18239e+07
-1.84002e+08
-1.83192e+08
-1.73298e+08
-1.93884e+08
-5.83031e+07
-6.13958e+07
-6.65534e+07
-6.33223e+07
-5.64951e+07
-5.35759e+07
-4.9167e+07
-5.18973e+07
-5.35919e+07
-5.63783e+07
-5.54458e+07
-5.41587e+07
-5.5761e+07
-5.33318e+07
-5.42094e+07
-5.14779e+07
-4.92891e+07
-5.00608e+07
-5.20931e+07
-4.94413e+07
-5.12785e+07
-5.21021e+07
-5.57178e+09
-3.50272e+09
-3.55977e+09
-2.79902e+08
-2.77436e+08
-2.89819e+08
-2.78597e+08
-9.20853e+08
-8.82016e+08
-9.42769e+08
-9.86171e+08
-3.87393e+08
-3.85012e+08
-3.8366e+08
-3.81465e+08
-3.19233e+08
-3.26239e+08
-3.37218e+08
-3.32451e+08
-2.88386e+08
-2.96403e+08
-3.1538e+08
-3.0669e+08
-3.57351e+08
-3.67286e+08
-3.84599e+08
-3.76413e+08
-3.93023e+08
-3.96645e+08
-4.04737e+08
-4.0182e+08
-1.01252e+08
-1.71687e+08
-1.12868e+08
-8.75725e+07
-8.01599e+07
-1.80337e+08
-1.42195e+08
-1.26644e+08
-9.51337e+08
-9.6028e+08
-9.14617e+08
-1.04817e+09
-9.88033e+08
-9.6438e+08
-9.87764e+08
-9.69885e+08
-4.47186e+08
-4.03359e+08
-4.02572e+08
-4.45946e+08
-4.46855e+08
-4.01299e+08
-4.00034e+08
-4.4977e+08
-2.46583e+08
-2.94063e+08
-5.57498e+08
-3.92425e+08
-3.5814e+08
-3.65056e+08
-3.55674e+08
-3.85341e+08
-4.82786e+07
-7.4798e+07
-4.57675e+07
-6.95566e+07
-7.12408e+07
-6.9741e+07
-4.62388e+07
-4.54954e+07
-3.37556e+08
-3.20511e+08
-3.30259e+08
-3.27444e+08
-3.44506e+08
-3.38938e+08
-3.33818e+08
-3.50148e+08
-3.4143e+08
-3.02403e+08
-3.3888e+08
-3.07431e+08
-3.47389e+08
-3.23244e+08
-3.17723e+08
-3.50738e+08
-4.45979e+07
-4.1156e+07
-4.84641e+07
-5.3444e+07
-5.02454e+07
-5.27406e+07
-5.30551e+07
-5.16851e+07
-9.23299e+07
-1.48602e+08
-8.6388e+07
-5.06461e+07
-5.46033e+07
-1.41666e+08
-7.9698e+07
-8.25666e+07
-3.76874e+08
-3.57268e+08
-3.67685e+08
-3.66052e+08
-3.87383e+08
-3.86055e+08
-3.76912e+08
-3.97094e+08
-4.45898e+08
-4.0863e+08
-4.09384e+08
-4.47264e+08
-4.4677e+08
-4.14355e+08
-4.14606e+08
-4.44631e+08
-3.47076e+07
-3.36974e+07
-4.85651e+07
-7.69947e+07
-5.03618e+07
-5.30445e+07
-8.13637e+07
-5.18263e+07
-3.1105e+08
-3.02283e+08
-2.82506e+08
-2.92582e+08
-1.58526e+08
-1.80208e+08
-1.69203e+08
-3.46634e+08
-3.35357e+08
-3.11187e+08
-3.23449e+08
-1.9524e+08
-1.83267e+08
-2.30159e+07
-2.28512e+07
-1.709e+07
-3.52169e+07
-1.76765e+07
-3.42588e+08
-3.46335e+08
-3.54231e+08
-3.34984e+08
-3.29811e+08
-3.10763e+08
-3.22754e+08
-3.17637e+08
-2.55639e+07
-2.70438e+07
-4.64321e+07
-6.4965e+07
-4.40386e+07
-3.86255e+07
-6.13176e+07
-4.14247e+07
-1.92058e+08
-1.95503e+08
-1.84605e+08
-2.02812e+08
-8.45451e+07
-8.69954e+07
-8.80696e+07
-8.70926e+07
-8.65898e+07
-8.57461e+07
-8.55514e+07
-8.1832e+07
-8.12134e+07
-8.29586e+07
-8.27468e+07
-8.30988e+07
-8.5473e+07
-8.21687e+07
-8.49357e+07
-8.11447e+07
-8.39518e+07
-7.95436e+07
-7.75922e+07
-7.61282e+07
-7.91247e+07
-7.83958e+07
-7.71927e+07
-7.99068e+07
-8.18404e+07
-8.27232e+07
-8.4304e+07
-8.12953e+07
-8.4031e+07
-8.0601e+07
-8.2154e+07
-7.64563e+07
-7.93627e+07
-7.7421e+07
-7.51784e+07
-7.41559e+07
-7.47799e+07
-7.76475e+07
-7.6978e+07
-7.31823e+07
-7.62635e+07
-7.73146e+07
-8.11699e+07
-8.03032e+07
-7.97516e+07
-7.91646e+07
-7.90946e+07
-7.83107e+07
-3.03039e+07
-3.08813e+07
-3.10878e+07
-3.04434e+07
-3.06731e+07
-3.08131e+07
-3.01564e+07
-2.90355e+07
-2.89644e+07
-2.93192e+07
-2.99964e+07
-3.10327e+07
-3.00246e+07
-2.94702e+07
-3.05407e+07
-3.02776e+07
-2.96365e+07
-4.47838e+07
-5.04815e+07
-5.10301e+07
-3.74119e+07
-4.0259e+07
-5.46721e+07
-4.07565e+07
-3.85693e+07
-3.33603e+07
-3.26266e+07
-3.38088e+07
-3.51898e+07
-3.66697e+07
-3.55171e+07
-2.81911e+07
-2.88844e+07
-2.9587e+07
-3.41509e+07
-3.82826e+07
-4.70242e+07
-3.45955e+07
-3.6889e+07
-4.38968e+07
-3.21404e+07
-3.30663e+07
-3.18596e+07
-2.9614e+07
-3.22073e+07
-3.06812e+07
-3.46521e+07
-3.08586e+07
-8.78788e+07
-8.8173e+07
-8.92972e+07
-9.06713e+07
-9.02883e+07
-8.72027e+07
-8.91811e+07
-8.77051e+07
-8.93289e+07
-8.88813e+07
-8.90076e+07
-9.1443e+07
-9.13563e+07
-9.03756e+07
-9.10276e+07
-8.90682e+07
-8.98919e+07
-8.94838e+07
-9.15232e+07
-9.04711e+07
-8.96626e+07
-7.93089e+07
-8.24796e+07
-8.73676e+07
-8.44581e+07
-4.02551e+07
-3.81864e+07
-3.5409e+07
-3.72597e+07
-3.88677e+07
-4.09701e+07
-4.04491e+07
-3.95706e+07
-3.89197e+07
-4.04135e+07
-3.93903e+07
-3.74134e+07
-3.61305e+07
-3.64887e+07
-3.80819e+07
-3.60664e+07
-3.7478e+07
-3.78946e+07
-3.24752e+07
-3.17721e+07
-3.17652e+07
-3.2949e+07
-3.26316e+07
-3.15681e+07
-3.27902e+07
-3.38078e+07
-3.50274e+07
-3.38233e+07
-3.35218e+07
-3.47876e+07
-3.40632e+07
-3.51175e+07
-3.36435e+07
-3.46714e+07
-3.39099e+07
-3.86526e+07
-4.06997e+07
-4.03035e+07
-3.94203e+07
-3.87927e+07
-4.01228e+07
-3.9201e+07
-3.76069e+07
-3.63056e+07
-3.76569e+07
-3.72466e+07
-3.60267e+07
-3.79603e+07
-3.64038e+07
-3.73732e+07
-3.59149e+07
-3.77683e+07
-4.49748e+07
-9.02375e+07
-5.17697e+07
-3.86695e+07
-7.98959e+07
-7.74458e+07
-7.86571e+07
-8.05513e+07
-7.75473e+07
-7.91214e+07
-7.6052e+07
-7.57047e+07
-7.72097e+07
-7.53277e+07
-7.58208e+07
-7.40845e+07
-6.88851e+07
-6.96164e+07
-7.06187e+07
-7.40416e+07
-7.13018e+07
-7.23817e+07
-7.23615e+07
-7.52308e+07
-7.38259e+07
-7.22883e+07
-7.47899e+07
-7.14808e+07
-7.28316e+07
-6.99051e+07
-6.67611e+07
-6.79945e+07
-6.99429e+07
-6.74634e+07
-6.91213e+07
-7.04131e+07
-5.82329e+07
-5.69952e+07
-5.69609e+07
-5.98819e+07
-5.91179e+07
-5.61961e+07
-5.90723e+07
-6.01328e+07
-6.27535e+07
-6.0655e+07
-6.03483e+07
-6.35388e+07
-6.20725e+07
-6.33381e+07
-6.12945e+07
-6.24486e+07
-6.11879e+07
-6.89496e+07
-7.20396e+07
-7.25839e+07
-7.10553e+07
-7.10356e+07
-7.03118e+07
-6.98727e+07
-6.62986e+07
-6.4873e+07
-6.70149e+07
-6.67417e+07
-6.57698e+07
-6.87976e+07
-6.54999e+07
-6.80566e+07
-6.46068e+07
-6.76919e+07
-5.42207e+07
-5.54473e+07
-5.59768e+07
-5.95334e+07
-6.0777e+07
-5.88807e+07
-5.72058e+07
-5.96324e+07
-5.78157e+07
-6.70548e+07
-6.43827e+07
-6.52454e+07
-6.55237e+07
-6.27369e+07
-6.4661e+07
-6.25844e+07
-6.15195e+07
-6.33568e+07
-1.21894e+08
-1.14317e+08
-1.31318e+08
-1.55268e+08
-2.35285e+08
-1.85641e+08
-2.29797e+08
-1.70089e+08
-1.25487e+08
-1.57053e+08
-1.4298e+08
-8.7781e+07
-9.25598e+07
-1.80896e+08
-1.62866e+08
-1.53056e+08
-1.06497e+08
-1.45863e+08
-1.28138e+08
-2.18536e+08
-2.52589e+08
-2.04672e+08
-2.85405e+08
-2.27309e+08
-2.42275e+08
-1.91347e+08
-2.16141e+08
-1.73751e+08
-1.71152e+08
-1.9328e+08
-3.02129e+07
-2.92708e+07
-2.92676e+07
-2.88482e+07
-2.79254e+07
-2.86989e+07
-2.83546e+07
-2.7543e+07
-2.83652e+07
-2.7366e+07
-2.72534e+07
-2.67468e+07
-2.53298e+07
-2.53213e+07
-2.56025e+07
-2.6783e+07
-2.5965e+07
-2.61284e+07
-9.97428e+07
-6.56214e+07
-5.75828e+07
-8.65939e+07
-6.83224e+07
-9.27186e+07
-9.66973e+07
-1.28933e+08
-2.55322e+08
-2.548e+08
-1.1665e+08
-2.416e+08
-9.53943e+07
-1.45719e+08
-6.52815e+08
-5.98623e+08
-6.23979e+08
-7.05111e+08
-7.38691e+08
-7.18223e+08
-9.51096e+08
-6.19995e+08
-1.06574e+09
-4.78195e+08
-8.2907e+08
-4.75958e+08
-7.66849e+08
-8.1133e+08
-4.19654e+08
-7.06635e+08
-1.8479e+08
-5.37139e+08
-1.35743e+09
-2.10288e+08
-3.91238e+08
-2.78043e+08
-1.13432e+09
-1.73001e+08
-5.5127e+08
-6.10131e+08
-4.03771e+08
-6.93099e+08
-4.55862e+08
-7.21125e+08
-6.08688e+08
-4.09696e+08
-8.36214e+07
-4.0358e+07
-4.87642e+07
-7.82756e+07
-4.22166e+07
-8.95108e+07
-6.72873e+07
-5.18121e+07
-1.53188e+08
-5.33486e+07
-5.90048e+07
-2.69865e+08
-9.27828e+07
-1.92767e+08
-7.13038e+07
-2.59582e+08
-6.14944e+07
-2.53582e+08
-1.53067e+08
-2.48005e+08
-1.83933e+08
-2.39539e+08
-2.62955e+08
-1.64505e+08
-4.60761e+08
-5.0845e+08
-5.15971e+08
-4.37564e+08
-3.92982e+08
-3.38051e+08
-3.61754e+08
-3.71314e+08
-3.11222e+08
-2.1755e+08
-2.66753e+08
-2.0626e+08
-2.9764e+08
-2.81383e+08
-2.31778e+08
-1.53744e+08
-1.36792e+08
-2.11926e+08
-2.30952e+08
-2.45444e+08
-3.21096e+08
-2.64605e+08
-2.82681e+08
-5.12304e+08
-6.42985e+08
-8.34331e+08
-6.39255e+08
-7.97292e+08
-5.77655e+08
-8.31624e+08
-5.30502e+08
-8.17256e+08
-5.25856e+08
-6.42513e+08
-1.04603e+08
-3.82445e+08
-4.25358e+08
-4.52871e+08
-4.48241e+08
-6.48165e+07
-7.69872e+07
-1.24451e+08
-2.73343e+08
-2.72059e+08
-3.07307e+08
-4.37267e+08
-6.613e+08
-4.5572e+08
-5.97359e+08
-4.15016e+08
-3.11487e+08
-3.8963e+08
-3.51132e+08
-2.55469e+07
-2.47008e+07
-2.70672e+07
-4.68821e+07
-6.84715e+07
-3.92507e+07
-2.63445e+07
-4.26937e+07
-3.12751e+07
-1.43873e+07
-1.38883e+07
-2.97657e+07
-5.30789e+07
-2.8595e+07
-2.7317e+07
-5.26225e+07
-2.77181e+07
-7.78515e+07
-1.33224e+08
-8.71352e+07
-1.27693e+08
-8.42826e+07
-6.28951e+07
-7.34879e+07
-7.13918e+07
-8.16997e+07
-6.86194e+07
-7.96903e+07
-8.75755e+07
-1.38833e+08
-9.0004e+07
-1.44526e+08
-9.28924e+07
-6.72464e+07
-7.55791e+07
-7.76509e+07
-2.1094e+08
-8.79601e+07
-1.94565e+08
-8.35376e+07
-2.04426e+08
-2.00625e+08
-8.51528e+07
-2.60326e+08
-2.40468e+08
-2.49792e+08
-2.50917e+08
-2.71946e+08
-2.72952e+08
-2.82156e+08
-2.62887e+08
-1.90871e+08
-8.1929e+07
-1.88336e+08
-8.17696e+07
-1.97721e+08
-1.81976e+08
-7.98621e+07
-2.08838e+07
-1.92191e+07
-3.12153e+07
-5.40891e+07
-3.29318e+07
-3.71046e+07
-5.42847e+07
-3.48964e+07
-9.47486e+07
-7.69476e+07
-9.3507e+07
-1.13227e+08
-1.84631e+08
-1.12307e+08
-1.90052e+08
-1.14753e+08
-7.62387e+07
-9.06399e+07
-9.21361e+07
-8.36486e+07
-7.2391e+07
-8.55239e+07
-1.04115e+08
-1.79066e+08
-1.09733e+08
-1.73405e+08
-1.0707e+08
-7.34933e+07
-8.90241e+07
-8.73174e+07
-1.35759e+08
-6.24699e+07
-1.3697e+08
-6.42896e+07
-1.3082e+08
-1.42362e+08
-6.19426e+07
-2.27363e+08
-2.28183e+08
-2.37938e+08
-2.17668e+08
-2.15621e+08
-1.95076e+08
-2.05263e+08
-2.0543e+08
-1.55965e+08
-6.99564e+07
-1.4323e+08
-6.66357e+07
-1.49596e+08
-1.49105e+08
-6.89653e+07
-8.10067e+07
-8.0719e+07
-8.18545e+07
-8.62461e+07
-8.50882e+07
-8.46459e+07
-8.146e+07
-8.30113e+07
-8.25634e+07
-8.53172e+07
-8.32517e+07
-7.72464e+07
-7.39555e+07
-6.85748e+07
-7.18848e+07
-4.14406e+07
-4.37361e+07
-4.76303e+07
-4.51126e+07
-4.3775e+07
-4.26308e+07
-4.20587e+07
-4.44977e+07
-4.20522e+07
-4.37525e+07
-4.43735e+07
-4.55876e+07
-4.73728e+07
-4.80919e+07
-4.62925e+07
-4.74737e+07
-4.55245e+07
-4.61946e+07
-5.22528e+07
-5.49761e+07
-5.48866e+07
-5.35952e+07
-5.28313e+07
-5.41997e+07
-5.29955e+07
-5.04395e+07
-4.88883e+07
-5.07364e+07
-5.0335e+07
-4.8913e+07
-5.15979e+07
-4.91775e+07
-5.08536e+07
-4.84749e+07
-5.10616e+07
-4.3268e+07
-4.22625e+07
-4.1873e+07
-4.42276e+07
-4.16574e+07
-4.35357e+07
-4.38975e+07
-4.52041e+07
-4.71016e+07
-4.53723e+07
-4.4947e+07
-4.70628e+07
-4.5973e+07
-4.73591e+07
-4.52551e+07
-4.66835e+07
-4.55971e+07
-3.12298e+07
-3.23048e+07
-3.22837e+07
-3.37595e+07
-3.4901e+07
-3.37176e+07
-3.34211e+07
-3.45783e+07
-3.34141e+07
-3.753e+07
-3.61584e+07
-3.74526e+07
-3.97811e+07
-3.83571e+07
-3.84213e+07
-3.58161e+07
-3.70492e+07
-3.70806e+07
-5.24481e+07
-5.03608e+07
-5.07432e+07
-5.01115e+07
-4.80559e+07
-4.97556e+07
-4.87112e+07
-4.73889e+07
-4.9026e+07
-4.49894e+07
-4.63722e+07
-4.47662e+07
-4.12137e+07
-4.25195e+07
-4.26651e+07
-4.57551e+07
-4.40064e+07
-4.42022e+07
-2.23974e+08
-6.32465e+07
-1.20108e+09
-8.43546e+08
-5.67699e+08
-7.04334e+08
-6.23776e+08
-6.62667e+08
-4.99834e+08
-4.10523e+08
-3.17604e+08
-3.65239e+08
-5.27456e+08
-6.27481e+08
-8.82123e+08
-7.71127e+08
-4.73415e+08
-4.23596e+08
-3.86894e+08
-4.01252e+08
-3.43089e+08
-3.43953e+08
-3.40969e+08
-3.43113e+08
-3.40693e+08
-3.36706e+08
-3.24089e+08
-3.30976e+08
-4.06339e+08
-4.0258e+08
-3.91718e+08
-3.97839e+08
-4.08433e+08
-4.09722e+08
-4.07982e+08
-4.09053e+08
-2.18252e+08
-2.02529e+08
-2.2493e+08
-2.43158e+08
-2.68596e+08
-3.48724e+08
-2.61756e+08
-3.4774e+08
-2.09565e+08
-2.3891e+08
-2.31801e+08
-9.62528e+07
-1.06239e+08
-2.21557e+08
-2.21595e+08
-1.99265e+08
-1.59502e+08
-2.09942e+08
-1.7842e+08
-2.6254e+08
-2.76147e+08
-3.49513e+08
-2.84796e+08
-3.50789e+08
-2.75278e+08
-2.41818e+08
-2.64397e+08
-2.46556e+08
-2.32611e+08
-2.54814e+08
-6.47641e+08
-5.56057e+08
-6.28307e+08
-5.63239e+08
-7.75564e+08
-8.94186e+08
-8.98519e+08
-7.98404e+08
-8.19585e+08
-5.04943e+08
-4.44898e+08
-7.06739e+08
-4.96804e+08
-7.2287e+08
-8.12635e+08
-5.43437e+08
-3.51498e+08
-4.01676e+08
-6.10993e+08
-3.66839e+08
-6.31863e+08
-5.23465e+08
-3.64863e+08
-2.19023e+08
-2.34602e+08
-3.53369e+08
-2.2512e+08
-3.53004e+08
-3.65838e+08
-4.70338e+08
-4.75534e+08
-4.44177e+08
-4.97086e+08
-4.58237e+08
-4.06887e+08
-4.52945e+08
-4.13435e+08
-3.71018e+08
-2.46581e+08
-2.45384e+08
-3.54051e+08
-2.57906e+08
-3.56214e+08
-3.67463e+08
-2.11214e+08
-1.8575e+08
-2.46335e+08
-2.62511e+08
-2.72021e+08
-3.30963e+08
-2.81234e+08
-3.0188e+08
-5.54706e+08
-4.39044e+08
-4.75958e+08
-5.64757e+08
-4.5333e+08
-6.81438e+08
-5.17857e+08
-7.97173e+08
-3.89403e+08
-3.86757e+08
-4.28796e+08
-2.89066e+08
-2.78302e+08
-3.05089e+08
-3.72114e+08
-4.06969e+08
-5.88744e+08
-3.73244e+08
-5.04317e+08
-2.97875e+08
-3.5082e+08
-3.26475e+08
-1.14564e+08
-9.0796e+07
-1.09136e+08
-1.25227e+08
-2.31439e+08
-1.32242e+08
-2.30689e+08
-1.34056e+08
-8.60161e+07
-1.02853e+08
-1.05346e+08
-6.7582e+07
-6.53662e+07
-5.09333e+07
-5.71986e+07
-4.95602e+07
-4.72352e+07
-5.9422e+07
-4.83228e+07
-1.26344e+08
-2.31841e+08
-1.31162e+08
-2.31799e+08
-1.30514e+08
-9.96248e+07
-7.85396e+07
-9.99098e+07
-1.01304e+08
-7.91583e+07
-1.00406e+08
-3.60912e+08
-3.47009e+08
-3.46414e+08
-3.6246e+08
-3.58642e+08
-3.42704e+08
-3.54939e+08
-3.45714e+08
-2.38913e+08
-9.43621e+07
-2.31016e+08
-9.10072e+07
-2.43241e+08
-2.26901e+08
-9.05082e+07
-2.50181e+08
-9.54935e+07
-2.34634e+08
-9.1336e+07
-2.47006e+08
-2.37728e+08
-9.15518e+07
-2.52549e+08
-1.02979e+08
-2.42421e+08
-1.00904e+08
-2.40886e+08
-2.54188e+08
-1.06145e+08
-3.61438e+08
-3.44348e+08
-3.42468e+08
-3.62037e+08
-3.58373e+08
-3.32244e+08
-3.55919e+08
-3.36403e+08
-2.56198e+08
-9.59619e+07
-2.43536e+08
-9.72122e+07
-2.44106e+08
-2.55457e+08
-9.47652e+07
-4.79216e+07
-5.11965e+07
-5.21652e+07
-5.31001e+07
-5.30481e+07
-5.33326e+07
-5.25874e+07
-5.34411e+07
-9.58432e+07
-7.8343e+07
-9.67813e+07
-1.24515e+08
-2.17668e+08
-1.25903e+08
-2.13845e+08
-1.24544e+08
-7.85564e+07
-9.81851e+07
-9.75579e+07
-9.94359e+07
-7.84291e+07
-9.92483e+07
-1.2765e+08
-2.21097e+08
-1.27048e+08
-2.24105e+08
-1.2797e+08
-7.85591e+07
-9.86681e+07
-9.90103e+07
-2.1166e+08
-1.82356e+08
-2.05129e+08
-2.21364e+08
-2.24109e+08
-3.26854e+08
-2.30394e+08
-3.32171e+08
-1.7581e+08
-1.92153e+08
-1.98629e+08
-4.69129e+07
-4.33279e+07
-6.88535e+07
-1.16814e+08
-7.17473e+07
-7.71083e+07
-1.22654e+08
-7.44826e+07
-2.06973e+08
-2.17759e+08
-3.20929e+08
-2.11342e+08
-3.14441e+08
-1.66554e+08
-1.50413e+08
-1.72894e+08
-1.85705e+08
-1.56645e+08
-1.79283e+08
-4.21207e+08
-4.11133e+08
-4.05332e+08
-4.27996e+08
-4.14299e+08
-3.93141e+08
-4.05951e+08
-4.00741e+08
-2.77124e+08
-1.3161e+08
-1.33992e+08
-2.72986e+08
-1.28768e+08
-2.86269e+08
-2.6395e+08
-3.03695e+08
-1.4771e+08
-1.3925e+08
-2.81799e+08
-1.4455e+08
-2.95138e+08
-2.90355e+08
-3.54375e+08
-1.89423e+08
-1.83176e+08
-3.38099e+08
-1.89166e+08
-3.42506e+08
-3.50212e+08
-4.37895e+08
-4.12986e+08
-4.16843e+08
-4.32781e+08
-4.40492e+08
-4.17827e+08
-4.44005e+08
-4.15892e+08
-3.39819e+08
-1.73921e+08
-1.77384e+08
-3.32985e+08
-1.71727e+08
-3.27201e+08
-3.45355e+08
-3.55788e+07
-3.6284e+07
-6.57834e+07
-1.00544e+08
-6.25418e+07
-5.57513e+07
-9.54885e+07
-5.91805e+07
-1.18691e+08
-1.04784e+08
-1.24297e+08
-1.60558e+08
-1.65551e+08
-2.58528e+08
-1.59044e+08
-2.49671e+08
-1.10016e+08
-1.35883e+08
-1.30033e+08
-1.60267e+08
-1.32364e+08
-1.54045e+08
-1.79098e+08
-1.72097e+08
-2.67262e+08
-1.78669e+08
-2.75838e+08
-1.26578e+08
-1.41838e+08
-1.47899e+08
-2.37904e+08
-2.49372e+08
-2.71745e+08
-2.60775e+08
-2.26211e+08
-2.14583e+08
-1.91489e+08
-2.02952e+08
-2.59459e+08
-2.7255e+08
-2.98499e+08
-2.85671e+08
-2.46278e+08
-2.33286e+08
-2.07691e+08
-2.20342e+08
-2.32065e+07
-2.33523e+07
-2.36518e+07
-4.16119e+07
-2.07436e+07
-1.66459e+07
-3.96567e+07
-1.79879e+07
-6.96975e+07
-7.75632e+07
-1.25574e+08
-7.38429e+07
-1.19091e+08
-4.84718e+07
-6.17274e+07
-5.87998e+07
-7.56612e+07
-5.9058e+07
-7.18486e+07
-8.29732e+07
-8.15274e+07
-1.32348e+08
-8.57672e+07
-1.39451e+08
-5.60863e+07
-6.48703e+07
-6.82469e+07
-2.29113e+08
-1.05046e+08
-9.86804e+07
-2.07795e+08
-1.03493e+08
-2.1939e+08
-2.17164e+08
-2.78215e+08
-2.5943e+08
-2.71763e+08
-2.6586e+08
-2.91863e+08
-2.97657e+08
-3.04253e+08