/*--------------------------------*- C++ -*----------------------------------*\
| =========                 |                                                 |
| \\      /  F ield         | OpenFOAM: The Open Source CFD Toolbox           |
|  \\    /   O peration     | Version:  2012                                  |
|   \\  /    A nd           | Website:  www.openfoam.com                      |
|    \\/     M anipulation  |                                                 |
\*---------------------------------------------------------------------------*/
FoamFile
{
    version     2.0;
    format      ascii;
    class       volVectorField;
    location    "0.108/solid";
    object      sigmaMinDir;
}
// * * * * * * * * * * * * * * * * * * * * * * * * * * * * * * * * * * * * * //

dimensions      [1 -1 -2 0 0 0 0];


internalField   nonuniform List<vector> 
3125
(
(-0.168064 0.985208 0.0334611)
(-0.555446 0.817828 0.150459)
(-0.135151 0.990597 0.0212516)
(-0.178912 0.983367 0.0313019)
(-0.160503 0.986665 0.0270345)
(-0.436163 0.895167 0.0918586)
(-0.576135 0.805581 0.138227)
(-0.429609 0.896367 0.109373)
(-0.505469 0.85788 0.0924284)
(-0.021185 0.160452 0.986816)
(0.755574 0.344555 0.557127)
(0.9549 0.287765 -0.0731895)
(-0.340763 0.938276 0.0593275)
(-0.359009 0.931259 0.0622007)
(-0.528902 0.843307 0.0953703)
(-0.0837325 0.984635 0.15324)
(-0.403094 0.286872 0.869034)
(0.953916 0.297497 -0.0392298)
(0.833231 0.34565 0.43157)
(-0.066486 -0.0199599 0.997588)
(-0.355175 0.208577 0.911233)
(-0.035668 -0.0375587 0.998658)
(0.985155 -0.0206327 -0.170425)
(-0.371191 0.925996 0.0689071)
(0.984213 -0.0419337 -0.171946)
(0.968333 -0.17172 -0.181227)
(-0.137872 0.893838 0.426668)
(-0.525608 0.827637 0.196858)
(0.985243 -0.0173844 -0.170279)
(-0.247362 0.967941 0.0436135)
(-0.42101 0.904122 0.0728954)
(-0.633056 0.765922 0.112265)
(0.974995 -0.129578 -0.180538)
(0.982833 -0.0510266 -0.177298)
(0.98386 -0.0138002 -0.178409)
(0.983275 -0.0295215 -0.179719)
(-0.37996 0.922233 0.0715368)
(0.983412 -0.0496854 -0.174446)
(0.984098 -0.0433084 -0.172266)
(0.98264 -0.0359733 -0.182003)
(0.983198 -0.0304965 -0.179978)
(0.777933 0.467485 0.419855)
(0.446725 0.330526 0.831378)
(0.977313 -0.0983184 -0.187597)
(-0.629245 0.753284 0.191351)
(-0.0363454 0.871533 0.488987)
(0.359114 0.225605 0.905615)
(-0.173325 0.380365 0.90845)
(0.257861 0.401047 0.879016)
(-0.56289 0.791269 0.238847)
(0.641506 0.550159 0.534598)
(0.4288 0.284107 0.857563)
(0.297233 0.420692 0.85713)
(-0.104354 0.317668 0.942442)
(0.387168 0.311362 0.867845)
(-0.622231 0.749764 0.225127)
(0.820072 0.518893 -0.241315)
(0.780634 0.604536 -0.158574)
(0.953008 0.253494 -0.165882)
(0.793128 0.54911 -0.263488)
(0.76396 0.631895 -0.130667)
(0.811393 0.53786 -0.228795)
(0.94993 0.242622 -0.196895)
(0.796912 0.537195 -0.27632)
(0.983903 -0.0114955 -0.178334)
(-0.27475 0.960299 0.0483537)
(-0.406556 0.910945 0.0699367)
(-0.605439 0.788403 0.108924)
(0.983363 -0.0494426 -0.174794)
(0.982938 -0.0502118 -0.176952)
(0.979465 -0.0754945 -0.186946)
(0.982149 -0.0365996 -0.184508)
(0.98259 -0.0358326 -0.182298)
(0.982204 -0.0364761 -0.184241)
(-0.233128 0.22572 0.945887)
(-0.269874 0.657109 0.703829)
(-0.247625 0.848364 0.467933)
(-0.118702 0.966871 0.225987)
(-0.225534 0.710976 0.666068)
(-0.215388 0.316409 0.923847)
(-0.361541 0.72314 0.58852)
(-0.229046 0.666218 0.709712)
(-0.0981499 0.977955 0.184314)
(-0.257347 0.726449 0.637217)
(0.796478 0.486931 0.358497)
(0.78955 0.610929 0.0581081)
(0.943718 0.317976 0.0910332)
(0.781238 0.608253 -0.140343)
(0.794177 0.606654 0.0354123)
(0.684615 0.561707 0.464529)
(0.933868 0.323962 0.151455)
(0.794513 0.603012 0.0715963)
(0.761353 0.638128 -0.114603)
(0.782197 0.622309 0.0299888)
(-0.219194 0.19153 0.956698)
(-0.123813 0.0444167 0.991311)
(-0.17054 0.0443617 0.984352)
(-0.0566439 -0.0760057 0.995497)
(-0.131928 0.0480403 0.990094)
(-0.208143 0.275306 0.938554)
(-0.211395 0.0729069 0.974678)
(-0.142254 0.069362 0.987397)
(-0.0215216 -0.0497146 0.998532)
(-0.110867 0.0304925 0.993367)
(0.106972 -0.151781 0.982609)
(-0.0452869 -0.0919991 0.994729)
(0.0552727 -0.0872859 0.994649)
(0.04284 -0.208153 0.977158)
(-0.00845984 -0.0601369 0.998154)
(0.0910877 -0.138504 0.986164)
(0.0874767 -0.104463 0.990674)
(0.0571587 -0.226905 0.972238)
(0.797162 -0.593706 -0.109754)
(-0.282298 0.957911 0.0520984)
(0.844748 -0.521788 -0.118905)
(0.755294 -0.636557 -0.155969)
(-0.423568 0.877911 0.223299)
(-0.578216 0.793536 0.18965)
(-0.1161 0.993113 0.0157206)
(-0.056574 0.998349 0.00988835)
(0.770584 -0.6286 -0.105176)
(-0.436016 0.89805 0.0582766)
(-0.188702 0.981486 0.0328163)
(-0.438733 0.894841 0.082303)
(-0.642553 0.756401 0.122406)
(0.807323 -0.569789 -0.153526)
(0.896564 -0.416693 -0.150135)
(-0.461472 0.883082 0.0849108)
(0.906379 -0.399524 -0.137325)
(0.895456 -0.424627 -0.133607)
(0.698814 0.591449 0.402303)
(0.665756 0.514415 0.540506)
(0.141754 0.640785 0.75452)
(0.0792877 0.0139144 0.996755)
(-0.0364278 0.438155 0.898161)
(0.0149556 0.440447 0.897654)
(0.0339589 0.73036 0.682218)
(0.529225 0.574692 0.62422)
(0.653605 0.333125 0.67958)
(0.378836 0.537171 0.753611)
(0.0414755 0.482228 0.875063)
(0.280466 0.307345 0.909328)
(0.743626 0.609488 -0.274853)
(0.861234 0.487467 -0.143709)
(0.955236 0.276612 -0.104931)
(0.850367 0.485397 -0.203139)
(0.615581 0.761155 -0.204214)
(0.631405 0.739151 -0.234486)
(0.938114 0.223754 -0.264341)
(0.815368 0.459709 -0.351913)
(-0.321143 0.945365 0.0561497)
(-0.375465 0.924566 0.0648346)
(-0.558978 0.823 0.101067)
(0.909099 -0.392912 -0.138421)
(0.91794 -0.370563 -0.141668)
(-0.0992931 0.188519 0.977037)
(-0.101948 0.277299 0.95536)
(0.00496323 0.99195 0.126533)
(-0.140474 0.970231 0.19728)
(-0.129019 0.88618 0.445015)
(-0.256521 0.417943 0.871505)
(-0.437353 0.39648 0.807172)
(-0.258395 0.549254 0.794703)
(-0.358468 0.832826 0.421784)
(-0.288076 0.605808 0.741626)
(0.704315 0.617918 0.349452)
(0.700341 0.689884 0.183254)
(0.952154 0.305614 -0.00170527)
(0.864283 0.487641 -0.12337)
(0.869701 0.491215 -0.0482409)
(0.584001 0.580678 0.567235)
(0.884904 0.339373 0.319015)
(0.739591 0.565617 0.364805)
(0.613666 0.766022 -0.191373)
(0.61881 0.772585 -0.142082)
(-0.0993059 0.162828 0.981644)
(-0.0991727 0.0948017 0.990544)
(-0.0987622 -0.000956859 0.995111)
(-0.0814514 -0.0723453 0.994048)
(-0.120883 -0.00779599 0.992636)
(-0.252221 0.375151 0.89199)
(-0.304585 0.151411 0.940374)
(-0.228581 0.254643 0.939632)
(-0.0563435 -0.118353 0.991372)
(-0.0753969 -0.0667126 0.994919)
(-0.0119485 -0.503394 0.863974)
(-0.0692738 -0.0914775 0.993395)
(-0.00556345 -0.0543074 0.998509)
(-0.0292467 -0.148471 0.988484)
(-0.048724 -0.1364 0.989455)
(-0.023654 -0.195304 0.980457)
(0.159229 -0.142589 0.97689)
(0.101624 -0.311819 0.944691)
(0.959801 -0.244857 -0.137211)
(0.984836 -0.029873 -0.170899)
(0.947892 -0.287168 -0.137969)
(-0.280894 0.958193 0.0544485)
(0.872627 -0.471774 -0.126298)
(0.85323 -0.50731 -0.120975)
(0.98469 -0.0330989 -0.171141)
(0.940469 -0.309583 -0.140271)
(0.945239 -0.295556 -0.138453)
(0.827783 -0.537516 -0.160788)
(0.889049 -0.420834 -0.180252)
(-0.64657 0.741329 0.179938)
(-0.343984 0.899289 0.270101)
(-0.287107 0.886216 0.363581)
(-0.518522 0.827007 0.217243)
(0.839377 -0.512887 -0.179984)
(-0.336918 0.884139 0.323705)
(-0.603764 0.771466 0.20077)
(-0.196642 0.980153 0.0251212)
(0.96553 -0.221208 -0.137179)
(0.985411 -0.00680431 -0.170056)
(0.986595 -0.0864099 -0.138434)
(0.985424 -0.0045808 -0.170056)
(0.9902 -0.0151401 -0.138831)
(-0.218312 0.975123 0.0383938)
(-0.432485 0.898373 0.0766961)
(-0.628227 0.769029 0.118)
(0.923368 -0.354914 -0.146379)
(0.909559 -0.38786 -0.14922)
(0.869622 -0.467203 -0.159621)
(0.981477 -0.068811 -0.178794)
(0.934156 -0.320377 -0.157195)
(0.951053 -0.267947 -0.153958)
(0.98208 -0.06094 -0.178339)
(0.94229 -0.296045 -0.156357)
(0.95575 0.00177254 -0.294175)
(0.983667 -0.0206447 -0.17881)
(0.955801 0.00159119 -0.29401)
(0.983582 -0.0230302 -0.178985)
(0.955738 0.00136948 -0.294215)
(0.955763 0.00171478 -0.294133)
(-0.444224 0.892145 0.0821051)
(0.877016 -0.463148 -0.127817)
(0.891654 -0.432955 -0.132301)
(0.944784 -0.292908 -0.146927)
(0.983699 -0.0473257 -0.173483)
(0.941859 -0.303393 -0.144407)
(0.939793 -0.311281 -0.141044)
(0.983791 -0.0466447 -0.173144)
(0.941203 -0.305823 -0.143561)
(0.955505 0.00173116 -0.29497)
(0.982885 -0.0337892 -0.181096)
(0.955579 0.00179766 -0.294728)
(0.955691 0.00162781 -0.294369)
(0.982957 -0.033198 -0.180812)
(0.955637 0.00169929 -0.294543)
(0.782199 0.495684 0.377443)
(0.670981 0.410035 0.617783)
(0.698478 0.459118 0.548944)
(0.580066 0.427725 0.693235)
(0.649453 0.490856 0.580751)
(0.619722 0.39049 0.680781)
(0.533365 0.398385 0.746198)
(0.661668 0.445131 0.603368)
(0.95504 0.00108413 -0.296476)
(0.946288 -0.261953 -0.189524)
(0.954991 -0.00527661 -0.296587)
(0.914532 -0.357409 -0.189445)
(0.949942 -0.0958972 -0.297345)
(0.954909 -0.0115298 -0.296676)
(0.297045 0.799956 0.521378)
(-0.226322 0.878989 0.419709)
(0.0141264 0.78361 0.621092)
(0.176512 0.355171 0.917985)
(0.200597 0.453092 0.868601)
(0.106807 0.438832 0.892199)
(-0.0268894 0.513887 0.857436)
(0.0859453 0.365872 0.926688)
(-0.0563139 0.770418 0.635047)
(0.056383 0.406052 0.912109)
(-0.215049 0.818567 0.532637)
(0.227223 0.439407 0.869075)
(0.132231 0.354128 0.925802)
(0.111319 0.417477 0.901843)
(-0.33277 0.86235 0.381597)
(-0.0800859 0.921509 0.380009)
(-0.0709025 0.789318 0.609877)
(0.565195 0.562508 0.603439)
(0.48782 0.500184 0.715435)
(0.413181 0.52618 0.743246)
(0.545488 0.305896 0.780301)
(0.226947 0.471059 0.852408)
(0.337339 0.521145 0.783971)
(0.436783 0.480268 0.760634)
(0.253288 0.458591 0.851786)
(0.369915 0.510008 0.776566)
(0.54279 0.407559 0.734354)
(0.386077 0.335813 0.859171)
(-0.0836793 0.489146 0.868179)
(0.146315 0.263973 0.953368)
(-0.174133 0.767298 0.617196)
(0.204258 0.290963 0.934676)
(-0.398679 0.851662 0.340187)
(0.481308 0.38066 0.789583)
(0.220561 0.251173 0.942478)
(0.308701 0.31273 0.898278)
(0.935838 -0.19089 -0.296258)
(-0.159353 0.911112 0.380107)
(0.740134 -0.60052 -0.302618)
(0.685504 0.678019 -0.265282)
(0.728566 0.627956 -0.27361)
(0.852723 0.435488 -0.288468)
(0.834175 0.473349 -0.283007)
(0.817478 0.51498 -0.257923)
(0.845352 0.456673 -0.277182)
(0.829944 0.483912 -0.277529)
(0.859001 0.489581 -0.149758)
(0.782574 0.586957 -0.207507)
(0.850205 0.484456 -0.206046)
(0.9547 0.264939 -0.135481)
(0.834889 0.478496 -0.272033)
(0.84679 0.484264 -0.22008)
(0.78441 0.579036 -0.222303)
(0.838697 0.472133 -0.271436)
(0.847391 0.481901 -0.222934)
(0.672453 0.69264 -0.260879)
(0.639697 0.729381 -0.242467)
(0.799846 0.573621 -0.17665)
(0.779394 0.601515 -0.175283)
(0.802426 0.557402 -0.21311)
(0.81378 0.524522 -0.250279)
(0.786534 0.587864 -0.189158)
(0.804601 0.550156 -0.223486)
(0.814732 0.480749 -0.32418)
(0.825368 0.446095 -0.346073)
(0.945081 0.232734 -0.229472)
(0.831363 0.475547 -0.28756)
(0.81909 0.46447 -0.336689)
(0.81011 0.495891 -0.312751)
(0.836237 0.467537 -0.28656)
(0.827786 0.452534 -0.331637)
(0.955758 0.00130549 -0.294152)
(0.983987 -0.00310571 -0.178214)
(0.95561 0.00140508 -0.29463)
(0.983977 -0.000989185 -0.178291)
(0.955642 0.000235979 -0.29453)
(-0.298955 0.952821 0.0525123)
(-0.391513 0.917703 0.067366)
(-0.586897 0.802931 0.104186)
(0.924132 -0.353288 -0.145492)
(0.920049 -0.364918 -0.142632)
(0.945697 -0.289523 -0.147759)
(0.983223 -0.0490133 -0.175699)
(0.949315 -0.276119 -0.150199)
(0.951667 -0.266188 -0.153212)
(0.983177 -0.0487611 -0.176028)
(0.950196 -0.272648 -0.150964)
(0.955052 0.00167326 -0.296432)
(0.981609 -0.0445352 -0.185633)
(0.95509 0.00237292 -0.296307)
(0.981825 -0.0409469 -0.18532)
(0.955189 0.00230357 -0.295989)
(0.955123 0.00239136 -0.2962)
(0.955451 0.00189194 -0.295143)
(0.982431 -0.0358425 -0.183151)
(0.955367 0.00206841 -0.295414)
(0.982388 -0.0356324 -0.183425)
(0.955231 0.00219707 -0.295854)
(0.955313 0.00215149 -0.29559)
(-0.150232 0.205044 0.967154)
(-0.269732 0.367935 0.88987)
(-0.17308 0.302275 0.937376)
(-0.128565 0.425205 0.89592)
(-0.105032 0.311092 0.944558)
(-0.27724 0.431855 0.858277)
(-0.217623 0.4733 0.853597)
(-0.181911 0.340755 0.922385)
(-0.0344229 0.951454 0.305859)
(-0.213247 0.737658 0.640614)
(-0.126849 0.849288 0.512464)
(-0.167511 0.963313 0.209684)
(-0.209059 0.860421 0.464727)
(-0.130152 0.878242 0.460164)
(-0.207627 0.734026 0.646605)
(-0.21734 0.81915 0.530807)
(-0.146365 0.844909 0.514496)
(-0.249883 0.393356 0.884777)
(-0.229875 0.459712 0.857801)
(-0.2532 0.527989 0.810628)
(-0.43347 0.547819 0.715541)
(-0.227634 0.70513 0.671546)
(-0.254449 0.59177 0.764895)
(-0.231526 0.512374 0.826964)
(-0.223271 0.697819 0.680587)
(-0.249387 0.573258 0.780501)
(-0.145453 0.464007 0.873808)
(-0.235665 0.574706 0.783693)
(-0.325542 0.894927 0.30517)
(-0.193326 0.907765 0.372273)
(-0.37809 0.66001 0.64918)
(-0.236693 0.517361 0.822383)
(-0.214029 0.868525 0.447052)
(-0.334551 0.62628 0.704166)
(0.800394 0.50625 0.321062)
(0.812832 0.545831 0.203406)
(0.828339 0.534388 0.168178)
(0.660742 0.750606 -0.00329633)
(0.692715 0.709327 0.130387)
(0.809593 0.564416 0.161224)
(0.825694 0.56394 0.0141824)
(0.830662 0.542745 0.124216)
(0.949189 0.312031 0.040951)
(0.856288 0.509082 0.0872188)
(0.869819 0.492934 -0.020741)
(0.861742 0.49062 -0.129205)
(0.786014 0.613321 -0.0775881)
(0.867024 0.494952 -0.0573782)
(0.857371 0.509447 0.073343)
(0.78832 0.612967 -0.053133)
(0.8675 0.496549 -0.0297055)
(0.618366 0.567947 0.543195)
(0.767349 0.583957 0.264895)
(0.759174 0.554559 0.340761)
(0.916056 0.331213 0.226139)
(0.846187 0.516805 0.129924)
(0.77658 0.554198 0.299645)
(0.780603 0.589336 0.208187)
(0.849096 0.515473 0.11543)
(0.791301 0.545188 0.27679)
(0.649797 0.759125 -0.0386454)
(0.624131 0.77191 -0.120894)
(0.800448 0.577003 -0.162329)
(0.761955 0.644746 -0.0610501)
(0.806566 0.580633 -0.11098)
(0.821913 0.56939 -0.0159409)
(0.765151 0.642551 -0.0409055)
(0.809921 0.579517 -0.0904914)
(-0.143023 0.178137 0.973556)
(-0.177259 0.113904 0.977551)
(-0.121187 0.109597 0.986561)
(-0.0942631 0.0184732 0.995376)
(-0.0986484 0.0744717 0.992332)
(-0.16361 0.0938418 0.982052)
(-0.0895422 0.03714 0.99529)
(-0.113606 0.0898961 0.989451)
(-0.133201 0.0201675 0.990884)
(-0.171907 0.0927304 0.980739)
(-0.133024 0.0146953 0.991004)
(-0.0744402 -0.07075 0.994713)
(-0.0896376 -0.0265978 0.995619)
(-0.112906 -0.0100425 0.993555)
(-0.163164 0.0838413 0.98303)
(-0.100347 -0.00914603 0.99491)
(-0.125424 0.0116013 0.992035)
(-0.244779 0.350893 0.903857)
(-0.182008 0.171921 0.968151)
(-0.220069 0.235457 0.946641)
(-0.256156 0.107627 0.960625)
(-0.183663 0.120874 0.975529)
(-0.218891 0.218824 0.950896)
(-0.172417 0.143114 0.974572)
(-0.1752 0.110509 0.978311)
(-0.209898 0.201349 0.956766)
(-0.0916695 0.000986937 0.995789)
(-0.0803349 -0.0498033 0.995523)
(-0.0125527 -0.0825778 0.996506)
(-0.0599352 -0.0177333 0.998045)
(-0.0438444 -0.0389037 0.998281)
(-0.0809774 0.0210981 0.996493)
(-0.072611 -0.00652341 0.997339)
(-0.053595 -0.0242954 0.998267)
(0.0112009 -0.328049 0.944594)
(0.00200461 -0.45119 0.892425)
(0.175168 -0.21622 0.960502)
(0.145471 -0.339048 0.929454)
(0.0981467 -0.236867 0.966572)
(0.157433 -0.19796 0.967485)
(0.134934 -0.310127 0.941071)
(-0.0616841 -0.0896238 0.994064)
(-0.00969268 -0.139853 0.990125)
(-0.0221666 -0.144623 0.989239)
(0.0244758 -0.0707245 0.997196)
(0.0256065 -0.220356 0.975083)
(-0.0165882 -0.166069 0.985975)
(0.00285325 -0.156247 0.987714)
(0.0333404 -0.216411 0.975733)
(-0.00875529 -0.162406 0.986685)
(0.00688036 -0.296058 0.955145)
(-0.0152905 -0.21753 0.975934)
(-0.00140409 -0.0973694 0.995247)
(0.0321132 -0.0917601 0.995263)
(0.0339996 -0.143913 0.989006)
(0.0851121 -0.215947 0.972688)
(0.0462409 -0.102714 0.993636)
(0.04638 -0.160533 0.98594)
(0.119542 -0.312438 0.942386)
(0.111072 -0.311097 0.943865)
(0.121928 -0.12274 0.984921)
(0.0393707 -0.237971 0.970474)
(0.0858602 -0.29324 0.952175)
(0.103083 -0.289181 0.951708)
(0.0479705 -0.234648 0.970896)
(0.0945284 -0.291476 0.951896)
(-0.0717281 0.00400173 0.997416)
(-0.0704397 0.00295624 0.997512)
(0.0932004 0.592724 0.799995)
(0.358705 0.459514 0.812513)
(-0.270324 0.139464 0.952615)
(-0.378522 0.226065 0.897561)
(-0.0506482 0.022918 0.998454)
(-0.0476926 0.0202705 0.998656)
(-0.176222 0.536903 0.825034)
(-0.423589 0.0621243 0.903721)
(-0.0727261 0.00527949 0.997338)
(-0.0738293 0.00667136 0.997249)
(-0.208475 0.0933834 0.973559)
(-0.170774 0.0674883 0.982996)
(-0.055127 0.0274497 0.998102)
(-0.0614737 0.0341961 0.997523)
(-0.519927 0.85389 0.0234009)
(-0.52201 0.8523 0.0330149)
(-0.516874 0.855927 0.0151759)
(-0.511605 0.859183 0.00808594)
(0.986465 0.0152346 -0.163262)
(0.985077 -0.0233963 -0.170516)
(0.98636 0.019082 -0.163494)
(0.984378 -0.0390165 -0.17169)
(0.986139 0.0230859 -0.164307)
(0.986178 0.0236384 -0.163992)
(0.953168 -0.246597 -0.175101)
(0.95534 -0.233093 -0.181639)
(0.91683 -0.359487 -0.173758)
(0.703989 -0.68456 -0.189149)
(-0.445747 0.869848 0.211361)
(-0.633119 0.750067 0.191205)
(0.986488 0.0115304 -0.16343)
(0.98532 -0.0134331 -0.170185)
(0.986566 0.00795559 -0.16317)
(0.971094 -0.162425 -0.174913)
(0.978538 -0.100525 -0.179886)
(0.979882 -0.0976847 -0.174036)
(0.98522 0.0252407 -0.169426)
(0.982686 -0.0528403 -0.177586)
(0.985259 0.0196379 -0.169939)
(0.981995 -0.00747659 -0.188759)
(0.983812 -0.0158013 -0.178508)
(0.981974 -0.00876209 -0.188815)
(0.983384 -0.0275006 -0.179442)
(0.981711 -0.0171639 -0.189603)
(0.981765 -0.0160404 -0.189419)
(0.985616 0.0296606 -0.166378)
(0.983513 -0.0487515 -0.174143)
(0.985676 0.0296255 -0.166025)
(0.986095 0.0239778 -0.164443)
(0.984001 -0.0445683 -0.172501)
(0.986009 0.0253751 -0.164748)
(0.981323 -0.0211669 -0.191198)
(0.982726 -0.0351842 -0.181689)
(0.981377 -0.0207023 -0.190972)
(0.98167 -0.0176686 -0.189766)
(0.983119 -0.0314478 -0.180242)
(0.981625 -0.0181555 -0.189954)
(0.833509 0.394064 0.387267)
(0.750975 0.4483 0.484834)
(0.905916 0.251494 0.340685)
(0.885843 0.246773 0.39292)
(0.810501 0.382471 0.443626)
(-0.0273014 0.0160527 0.999498)
(-0.0460245 0.00730724 0.998914)
(0.608824 0.185949 0.771204)
(0.505105 0.350691 0.788597)
(0.543964 0.31381 0.77822)
(0.674968 0.200332 0.710131)
(0.600202 0.326264 0.730281)
(0.979767 -0.0454389 -0.194917)
(0.973021 -0.133259 -0.188342)
(0.978823 -0.0608476 -0.195455)
(0.788928 -0.584085 -0.190884)
(0.770632 -0.606902 -0.194413)
(0.889627 -0.41135 -0.198379)
(0.0677203 0.420939 0.904557)
(-0.233945 0.502912 0.832075)
(-0.12962 0.339726 0.93155)
(0.00919992 0.381571 0.924294)
(0.0397067 0.352265 0.935058)
(-0.145311 0.44939 0.881438)
(0.121795 0.493316 0.861281)
(0.401083 0.163601 0.901314)
(0.492704 0.186492 0.849978)
(0.243789 0.423851 0.872306)
(0.214949 0.383132 0.898335)
(0.478961 0.177595 0.859684)
(0.419283 0.170214 0.891756)
(0.201541 0.4065 0.891145)
(-0.518242 0.819134 0.245856)
(-0.291358 0.917039 0.272307)
(-0.266488 0.914963 0.303029)
(0.867426 0.232303 0.440008)
(0.599758 0.560632 0.570949)
(0.592561 0.535841 0.601453)
(0.895332 0.262441 0.35987)
(0.872187 0.258845 0.415077)
(0.548794 0.548201 0.63111)
(0.893419 0.233897 0.38353)
(0.619107 0.20362 0.758449)
(0.564495 0.203386 0.799987)
(0.341995 0.440122 0.83026)
(0.276422 0.442751 0.852973)
(0.635414 0.217797 0.740819)
(0.546518 0.191827 0.815181)
(0.317805 0.461253 0.8284)
(0.00812582 0.0311507 0.999482)
(0.070002 0.0632703 0.995538)
(-0.0939483 0.392728 0.914843)
(-0.0647595 0.21381 0.974726)
(-0.0125173 0.416729 0.908944)
(0.0520947 0.375603 0.925316)
(-0.034965 0.310315 0.949991)
(0.00552711 0.43511 0.900361)
(0.536972 0.167636 0.826776)
(0.480848 0.301423 0.823364)
(0.331605 0.290931 0.897439)
(0.46563 0.152928 0.871666)
(0.421668 0.286684 0.860237)
(0.713564 -0.66805 -0.211034)
(-0.369713 0.89415 0.252602)
(-0.503944 0.832609 0.229788)
(0.836651 -0.526791 -0.150022)
(0.85704 -0.496423 -0.138008)
(0.94494 0.254578 -0.205615)
(0.872091 0.422037 -0.247673)
(0.828802 0.498815 -0.253517)
(0.942771 0.251841 -0.218537)
(0.8753 0.408497 -0.258805)
(0.967561 0.233074 -0.0974826)
(0.807155 0.567155 -0.163815)
(0.955991 0.279377 -0.0896087)
(0.780678 0.599709 -0.17576)
(0.955292 0.27677 -0.104001)
(0.968439 0.235171 -0.0825828)
(0.805663 0.563637 -0.182263)
(0.960821 0.220189 -0.168343)
(0.948589 0.256334 -0.185664)
(0.789791 0.560009 -0.25024)
(0.803757 0.527375 -0.275411)
(0.950111 0.260016 -0.172279)
(0.958934 0.217273 -0.182313)
(0.803283 0.535153 -0.261433)
(0.817473 -0.550203 -0.170339)
(0.800355 -0.564398 -0.202204)
(0.853378 0.501833 -0.141102)
(0.95627 0.275511 -0.0981906)
(0.767989 0.623583 -0.146071)
(0.955295 0.273428 -0.112471)
(0.854246 0.495733 -0.156563)
(0.946948 0.257235 -0.192666)
(0.868867 0.435106 -0.23612)
(0.802704 0.555914 -0.215929)
(0.948694 0.260188 -0.179672)
(0.865701 0.44757 -0.224148)
(0.95445 0.211261 -0.2107)
(0.946861 0.252612 -0.199103)
(0.801053 0.524341 -0.288757)
(0.804563 0.518828 -0.288958)
(0.94491 0.248849 -0.212647)
(0.956821 0.214265 -0.196428)
(0.805598 0.509627 -0.302144)
(0.982006 -0.00630231 -0.188743)
(0.983948 -0.00872417 -0.178243)
(0.982022 -0.00460079 -0.188711)
(0.985543 0.0306194 -0.166638)
(0.983322 -0.0493379 -0.175055)
(0.98545 0.0317774 -0.166969)
(0.985192 0.0288813 -0.169007)
(0.983042 -0.0492192 -0.176653)
(0.985183 0.0315544 -0.168582)
(0.980241 -0.0359256 -0.194518)
(0.980615 -0.060355 -0.186416)
(0.980509 -0.0297762 -0.194203)
(0.982074 -0.0373274 -0.184765)
(0.980969 -0.0212197 -0.192999)
(0.980931 -0.0213089 -0.193184)
(0.981286 -0.0210686 -0.191401)
(0.982537 -0.0358546 -0.18258)
(0.981246 -0.0210029 -0.191613)
(0.982276 -0.0359182 -0.183964)
(0.981002 -0.0213559 -0.192818)
(0.981046 -0.0211247 -0.192618)
(-0.223596 0.219511 0.949642)
(-0.246602 0.265741 0.93197)
(-0.285483 0.0970352 0.953459)
(-0.237575 0.255501 0.937164)
(-0.31403 0.111872 0.942799)
(-0.0737201 0.0198253 0.997082)
(-0.0614996 0.0198589 0.99791)
(-0.434819 0.53953 0.720999)
(-0.277808 0.580668 0.765276)
(-0.304921 0.580432 0.755064)
(-0.297253 0.516659 0.802935)
(-0.476362 0.323463 0.817589)
(0.0607903 0.997088 0.0460339)
(-0.143279 0.961859 0.233022)
(-0.109887 0.967943 0.225855)
(0.0889881 0.989933 0.110065)
(-0.0938483 0.970431 0.222386)
(0.14431 0.988962 0.0335898)
(0.0455769 0.992781 0.110945)
(-0.189801 0.914875 0.356341)
(-0.224956 0.855521 0.466346)
(-0.21038 0.716901 0.664675)
(-0.224402 0.750613 0.62147)
(-0.206579 0.75258 0.625259)
(-0.310395 0.814528 0.490101)
(-0.0888984 0.944534 0.316153)
(-0.350391 0.165411 0.921881)
(-0.222428 0.352382 0.909039)
(-0.221564 0.361036 0.905849)
(-0.296359 0.132255 0.945875)
(-0.226514 0.396617 0.889599)
(-0.324649 0.155152 0.933022)
(-0.320602 0.140678 0.936709)
(-0.467491 0.488325 0.736879)
(-0.373042 0.668229 0.643668)
(-0.230532 0.617333 0.752167)
(-0.217762 0.676601 0.703413)
(-0.222023 0.633561 0.741152)
(-0.438641 0.476859 0.761709)
(-0.420209 0.650571 0.632599)
(-0.0897215 0.0220378 0.995723)
(-0.114542 0.0204796 0.993207)
(-0.165521 0.968952 0.183668)
(-0.0909596 0.982634 0.161732)
(0.14481 0.984592 0.0980236)
(-0.200264 0.959135 0.199885)
(0.220738 0.975274 0.0107428)
(-0.151115 0.894247 0.421291)
(-0.311246 0.640524 0.702036)
(-0.244095 0.784582 0.569955)
(-0.317759 0.695476 0.644471)
(0.0423104 0.976757 0.210132)
(0.850753 0.406042 0.333691)
(0.921245 0.255479 0.293322)
(0.807606 0.506637 0.301813)
(0.932854 0.258874 0.250536)
(0.862929 0.418341 0.283452)
(-0.0878924 0.0173378 0.995979)
(-0.0838605 0.0150181 0.996364)
(0.959441 0.274406 0.0646075)
(0.797051 0.597308 0.0890673)
(0.871863 0.486904 0.0527171)
(0.958082 0.27226 0.0891856)
(0.87465 0.477491 0.0835993)
(0.969877 0.238098 -0.0514624)
(0.808959 0.569903 -0.144204)
(0.956633 0.281534 -0.0747768)
(0.782393 0.610941 -0.120885)
(0.969215 0.236842 -0.067292)
(0.957229 0.283163 -0.0594218)
(0.810935 0.572019 -0.123206)
(0.969839 0.240363 0.0404599)
(0.957832 0.282791 0.0508668)
(0.816432 0.575416 0.0483156)
(0.792741 0.609552 0.00290091)
(0.968723 0.240122 0.0625819)
(0.958365 0.284015 0.0295485)
(0.817832 0.575325 0.0123222)
(0.928952 0.23558 0.285569)
(0.648161 0.569749 0.505247)
(0.912937 0.265431 0.309987)
(0.720184 0.570734 0.39446)
(0.913523 0.234887 0.332119)
(0.926208 0.268048 0.265121)
(0.69183 0.575273 0.436386)
(0.964544 0.238845 0.112282)
(0.956806 0.281195 0.0738403)
(0.792974 0.598864 0.112049)
(0.812939 0.575592 0.0884575)
(0.955113 0.279301 0.0987466)
(0.967023 0.23959 0.0863928)
(0.806405 0.576119 0.133409)
(-0.0926012 0.0201437 0.9955)
(-0.0985006 0.0235597 0.994858)
(0.853158 0.506508 -0.124786)
(0.957177 0.277225 -0.0834158)
(0.760097 0.642419 -0.0977315)
(0.958035 0.278449 -0.0680849)
(0.853588 0.509734 -0.10751)
(0.960163 0.27629 0.0418495)
(0.868568 0.494973 0.0243128)
(0.775464 0.631377 0.00438098)
(0.960457 0.277659 0.0206969)
(0.865143 0.501522 -0.00186738)
(-0.209582 0.187969 0.959554)
(-0.25918 0.0845663 0.96212)
(-0.205128 0.16208 0.965222)
(-0.19562 0.160167 0.967512)
(-0.234813 0.0738004 0.969235)
(-0.427934 0.691995 0.581391)
(-0.229127 0.310715 0.922473)
(-0.115758 0.0284046 0.992871)
(-0.136895 0.0594383 0.988801)
(-0.114017 0.0433689 0.992532)
(-0.127403 0.058765 0.990109)
(-0.133276 0.0345553 0.990476)
(-0.0221064 -0.00937216 0.999712)
(-0.0665764 -0.0782249 0.99471)
(-0.0677987 -0.0598284 0.995904)
(-0.000566095 -0.0160122 0.999872)
(-0.078166 -0.0599678 0.995135)
(-0.0150778 -0.010302 0.999833)
(-0.00706606 -0.0150332 0.999862)
(-0.101513 0.0219435 0.994592)
(-0.107291 0.0276589 0.993843)
(-0.144621 0.0629194 0.987485)
(-0.121492 0.0279845 0.992198)
(-0.133877 0.0401015 0.990186)
(-0.118842 0.0292168 0.992483)
(-0.09092 0.0206159 0.995645)
(-0.266147 0.103307 0.958381)
(-0.216973 0.310582 0.925452)
(-0.269897 0.113471 0.95618)
(-0.200018 0.237704 0.950521)
(-0.292519 0.120382 0.948652)
(-0.210265 0.271479 0.939195)
(-0.245172 0.0976511 0.964549)
(-0.15567 0.045379 0.986766)
(-0.124263 0.0351612 0.991626)
(-0.152477 0.0921361 0.984003)
(-0.155133 0.0870913 0.984047)
(-0.165451 0.112767 0.97975)
(-0.141928 0.0432044 0.988934)
(-0.136854 0.0369893 0.9899)
(-0.495299 0.827128 0.26559)
(-0.508975 0.846482 0.156247)
(-0.00613625 -0.0555233 0.998439)
(-0.0344127 -0.0392362 0.998637)
(0.00915628 -0.0128234 0.999876)
(-0.0199387 -0.0443768 0.998816)
(-0.00568915 -0.0080826 0.999951)
(-0.0988508 0.0226066 0.994845)
(-0.100666 0.0289899 0.994498)
(-0.0980418 0.0174814 0.995029)
(-0.0873256 0.0154683 0.99606)
(-0.0824879 0.0170475 0.996446)
(-0.422081 0.905942 -0.0334169)
(-0.397147 0.91697 -0.0379452)
(0.148928 -0.0577047 0.987163)
(0.128993 -0.164499 0.977906)
(0.123349 -0.165989 0.978383)
(0.145368 -0.179599 0.97294)
(0.166176 -0.0634247 0.984054)
(0.0227713 -0.0261667 0.999398)
(-0.0548303 -0.0961771 0.993853)
(-0.033691 -0.107903 0.99359)
(0.0138931 -0.0216577 0.999669)
(-0.0428702 -0.113926 0.992564)
(0.00786267 -0.0206089 0.999757)
(0.0283602 -0.0272924 0.999225)
(0.0993092 -0.0544668 0.993565)
(0.119058 -0.062758 0.990902)
(0.0290374 -0.190202 0.981315)
(0.0346548 -0.222172 0.974391)
(0.0208253 -0.20337 0.97888)
(0.103147 -0.0564346 0.993064)
(0.115545 -0.0605033 0.991458)
(-0.442854 0.896146 -0.0283302)
(-0.459867 0.887695 -0.0228241)
(0.00785659 -0.0666162 0.997748)
(0.00479927 -0.0705528 0.997497)
(0.0239863 -0.0175608 0.999558)
(0.0220539 -0.0777212 0.996731)
(0.0388369 -0.0223028 0.998997)
(0.132151 -0.0521727 0.989856)
(0.112835 -0.150346 0.982173)
(0.0757116 -0.12601 0.989136)
(0.0969973 -0.137024 0.985807)
(0.115821 -0.0469049 0.992162)
(0.149497 -0.0734276 0.986032)
(0.135432 -0.0693478 0.988357)
(0.0720128 -0.246533 0.966455)
(0.0489043 -0.241549 0.969156)
(0.0635805 -0.261523 0.963101)
(0.152357 -0.0762927 0.985376)
(0.132225 -0.0667946 0.988967)
(-0.131665 0.990856 0.029464)
(-0.36081 0.930947 0.0561617)
(-0.115731 0.99297 0.0248192)
(0.817488 -0.564664 -0.113435)
(-0.120181 0.992409 0.0261105)
(-0.13087 0.990991 0.0284447)
(-0.418243 0.906001 0.0650804)
(-0.141036 0.989476 0.0323391)
(-0.164601 0.985713 0.0357249)
(0.833152 -0.540647 -0.116446)
(-0.518601 0.851218 0.0805039)
(-0.145293 0.988877 0.0318233)
(-0.154863 0.987291 0.0356838)
(-0.469095 0.880127 0.0729787)
(-0.466289 0.877255 0.114006)
(-0.660348 0.735478 0.151695)
(-0.54601 0.830033 0.113659)
(0.699567 -0.696078 -0.161499)
(-0.463644 0.879507 0.107248)
(-0.529492 0.840237 0.116792)
(-0.616867 0.77036 0.16131)
(-0.428266 0.895768 0.119111)
(-0.47473 0.870727 0.128317)
(-0.638499 0.750228 0.171692)
(-0.511988 0.835306 0.200332)
(-0.501749 0.856496 0.121087)
(-0.427131 0.894604 0.131311)
(-0.552637 0.814664 0.175827)
(-0.0994608 0.994931 0.0148252)
(-0.0957433 0.995302 0.0144001)
(-0.109563 0.993882 0.0139155)
(-0.108038 0.994045 0.0142426)
(-0.104045 0.994366 0.0202496)
(-0.307508 0.950357 0.0475461)
(-0.105213 0.994212 0.0217617)
(0.722556 -0.684345 -0.0978962)
(-0.113822 0.993224 0.0234466)
(-0.0912938 0.995656 0.0182648)
(-0.245283 0.968717 0.0377282)
(-0.101546 0.99467 0.0178735)
(-0.076565 0.996985 0.0125625)
(-0.136638 0.990433 0.0192779)
(-0.628483 0.773212 0.084574)
(-0.0970459 0.995167 0.0149921)
(-0.0839981 0.996345 0.0154949)
(-0.192202 0.980934 0.0287515)
(-0.0893774 0.995883 0.0151045)
(-0.0951004 0.99534 0.0159482)
(-0.0941851 0.995407 0.0171362)
(-0.086272 0.99614 0.0162234)
(-0.345813 0.936752 0.0539281)
(-0.208093 0.977231 0.0414289)
(-0.164207 0.98588 0.0328268)
(-0.251877 0.966815 0.0427391)
(-0.474435 0.874502 0.10079)
(0.715339 -0.683055 -0.147395)
(-0.567237 0.8158 0.112747)
(0.847072 -0.509255 -0.152083)
(-0.481961 0.869894 0.104867)
(-0.578025 0.808339 0.111692)
(0.755281 -0.639235 -0.14467)
(-0.474222 0.874882 0.0984613)
(-0.593968 0.796821 0.110808)
(0.817256 -0.55837 -0.142531)
(0.876977 -0.45615 -0.151125)
(-0.458265 0.883742 0.0948305)
(-0.590538 0.799258 0.111589)
(0.792665 -0.592507 -0.143591)
(-0.226667 0.972633 0.0510598)
(-0.432349 0.899574 0.0619788)
(-0.507328 0.859459 0.0628449)
(-0.216048 0.974226 0.0648565)
(-0.281988 0.957297 0.0637587)
(0.795549 -0.592747 -0.125511)
(-0.39747 0.914328 0.0775982)
(0.90307 -0.407347 -0.136138)
(-0.288804 0.95517 0.0651382)
(-0.379603 0.922131 0.0746671)
(0.783766 -0.60867 -0.123413)
(-0.271655 0.960413 0.0617261)
(-0.342433 0.937052 0.0683601)
(0.757134 -0.642372 -0.118774)