/*--------------------------------*- C++ -*----------------------------------*\
| =========                 |                                                 |
| \\      /  F ield         | OpenFOAM: The Open Source CFD Toolbox           |
|  \\    /   O peration     | Version:  2012                                  |
|   \\  /    A nd           | Website:  www.openfoam.com                      |
|    \\/     M anipulation  |                                                 |
\*---------------------------------------------------------------------------*/
FoamFile
{
    version     2.0;
    format      ascii;
    class       volVectorField;
    location    "0.108/solid";
    object      sigmaMaxDir;
}
// * * * * * * * * * * * * * * * * * * * * * * * * * * * * * * * * * * * * * //

dimensions      [1 -1 -2 0 0 0 0];


internalField   nonuniform List<vector> 
3125
(
(0.0909198 -0.0183073 0.99569)
(0.139719 -0.0865784 0.986399)
(0.0927953 -0.00869954 0.995647)
(0.0900526 -0.0153142 0.995819)
(0.0947212 -0.0118663 0.995433)
(0.123157 -0.0417378 0.991509)
(0.135634 -0.0725419 0.9881)
(0.128274 -0.0593143 0.989963)
(0.10821 -0.0432484 0.993187)
(0.134707 0.978495 -0.156208)
(-0.335111 -0.52747 0.78069)
(0.0613915 0.0498239 0.996869)
(0.106665 -0.0241125 0.994003)
(0.108225 -0.0246576 0.993821)
(0.109296 -0.0437567 0.993046)
(0.189641 -0.135224 0.972497)
(0.823344 -0.30088 0.481223)
(0.0321454 0.0286703 0.999072)
(-0.304248 -0.365121 0.879841)
(0.937586 -0.343276 0.0556188)
(0.862312 -0.303264 0.405523)
(0.939701 -0.34137 0.0207236)
(0.17032 -0.00673434 0.985366)
(0.0982347 -0.0346312 0.994561)
(0.171571 -0.012424 0.985094)
(0.180832 -0.0180746 0.983348)
(0.0896498 -0.417752 0.904127)
(0.210053 -0.09798 0.972768)
(0.170207 -0.00551034 0.985393)
(0.0999715 -0.0192756 0.994804)
(0.114638 -0.0266835 0.993049)
(0.119581 -0.0465262 0.991734)
(0.179815 -0.0173505 0.983547)
(0.176664 -0.0167274 0.984129)
(0.178343 -0.00587669 0.983951)
(0.179473 -0.0107851 0.983704)
(0.0993428 -0.0362051 0.994394)
(0.173873 -0.0156669 0.984644)
(0.171855 -0.0130475 0.985036)
(0.181623 -0.0135859 0.983274)
(0.179711 -0.0113119 0.983654)
(-0.0768499 -0.592386 0.80198)
(0.0298099 0.92324 -0.383065)
(0.187041 -0.0149264 0.982239)
(0.212524 -0.0700516 0.974642)
(0.0658294 -0.48616 0.871387)
(0.0839759 0.958597 -0.272104)
(0.0801932 0.924798 -0.37191)
(0.0293214 0.906116 -0.422012)
(0.213841 -0.139717 0.966825)
(-0.0712242 0.736598 -0.672571)
(0.169313 0.907168 -0.385201)
(0.0157813 0.895414 -0.444955)
(0.044182 0.948161 -0.314704)
(0.0360677 0.935419 -0.351697)
(0.219825 -0.108663 0.969468)
(0.191285 0.148877 0.970178)
(0.126841 0.0951973 0.987344)
(0.142782 0.107088 0.983944)
(0.170028 0.215795 0.961521)
(0.118377 0.0618169 0.991043)
(0.183089 0.137858 0.973383)
(0.170205 0.126654 0.977235)
(0.175587 0.231684 0.956813)
(0.178288 -0.00484733 0.983966)
(0.101704 -0.0209819 0.994593)
(0.112904 -0.025868 0.993269)
(0.118394 -0.0461195 0.991895)
(0.174209 -0.0159377 0.98458)
(0.176325 -0.0166926 0.98419)
(0.186377 -0.0145832 0.98237)
(0.184089 -0.0145325 0.982802)
(0.18191 -0.0138273 0.983218)
(0.183824 -0.0144953 0.982852)
(0.845723 -0.433062 0.311784)
(0.721028 -0.346553 0.600017)
(0.492515 -0.30569 0.814851)
(0.17309 -0.203962 0.963556)
(0.554228 -0.46864 0.687901)
(0.789646 -0.500151 0.355397)
(0.606619 -0.296899 0.737472)
(0.609785 -0.470107 0.638093)
(0.185535 -0.163979 0.968859)
(0.670861 -0.340304 0.658892)
(-0.0870009 -0.494429 0.864853)
(-0.00128047 -0.0930468 0.995661)
(-0.0766604 -0.057453 0.995401)
(0.120111 0.0741505 0.989987)
(0.073656 -0.153941 0.985331)
(0.0758268 -0.688722 0.721049)
(-0.1248 -0.101658 0.98696)
(0.0693846 -0.207279 0.975818)
(0.107706 0.0498192 0.992934)
(0.0150664 -0.0670132 0.997638)
(0.845184 -0.452617 0.284258)
(0.793513 -0.595411 0.125786)
(0.929509 -0.324281 0.175653)
(0.770238 -0.637738 -0.00486433)
(0.791721 -0.595913 0.13441)
(0.79632 -0.509479 0.326045)
(0.921752 -0.316811 0.223614)
(0.795254 -0.585934 0.155732)
(0.746967 -0.664644 -0.0169915)
(0.783933 -0.611683 0.106269)
(0.806249 -0.565081 -0.175059)
(0.769066 -0.638716 -0.0240595)
(0.949039 -0.304966 -0.0795006)
(0.779772 -0.604485 -0.162953)
(0.748073 -0.662766 -0.0335901)
(0.796211 -0.584653 -0.155656)
(0.950587 -0.288624 -0.114371)
(0.783443 -0.593427 -0.184556)
(0.127383 -0.0123056 0.991777)
(0.0937974 -0.0264863 0.995239)
(0.128424 -0.018044 0.991555)
(0.16028 -0.0513469 0.985735)
(0.150997 -0.174629 0.972987)
(0.179259 -0.103206 0.978374)
(0.0906511 -0.00516667 0.995869)
(0.0875521 -0.00490518 0.996148)
(0.127131 -0.0101056 0.991835)
(0.126823 -0.00279382 0.991921)
(0.0965181 -0.0147188 0.995222)
(0.119408 -0.0327227 0.992306)
(0.126606 -0.0527484 0.99055)
(0.156435 -0.0442103 0.986698)
(0.149275 -0.0348601 0.988181)
(0.10429 -0.041048 0.993699)
(0.13679 -0.0300054 0.990145)
(0.134335 -0.0283802 0.99053)
(-0.474142 0.80412 -0.358581)
(-0.367429 0.856474 -0.362558)
(0.623412 0.534287 -0.570872)
(-0.153503 0.988147 -0.0015837)
(0.149893 0.890985 -0.428576)
(0.057953 0.895864 -0.440534)
(-0.162306 -0.66952 0.724845)
(0.0194181 0.727294 -0.686051)
(0.304227 0.706542 -0.63894)
(0.0390286 0.804309 -0.592928)
(0.118857 0.867216 -0.483538)
(-0.0147126 0.948616 -0.316086)
(0.163566 0.23276 0.958681)
(0.100863 0.113198 0.98844)
(0.0890476 0.0694066 0.993606)
(0.125922 0.187114 0.974234)
(0.247908 0.0589439 0.966989)
(0.209047 0.128945 0.969367)
(0.229271 0.170828 0.958255)
(0.190386 0.361134 0.912872)
(0.105062 -0.0233598 0.994191)
(0.109771 -0.0251005 0.99364)
(0.113232 -0.0449822 0.99255)
(0.137602 -0.0304037 0.990021)
(0.140087 -0.031327 0.989643)
(0.79569 -0.57456 0.191725)
(0.830577 -0.504819 0.235159)
(0.300551 -0.122164 0.94591)
(0.187108 -0.169651 0.967579)
(0.252751 -0.404557 0.878892)
(0.728205 -0.509321 0.458595)
(0.770033 -0.298516 0.563859)
(0.639966 -0.51891 0.566724)
(0.36314 -0.291829 0.884853)
(0.673258 -0.422609 0.606734)
(-0.5095 0.78279 -0.35728)
(-0.602815 0.709109 -0.365758)
(0.000229535 0.0048646 0.999988)
(0.0931531 0.0858534 0.991943)
(0.0656049 -0.0181746 0.99768)
(-0.0140727 -0.691431 0.722306)
(-0.244257 -0.245062 0.938234)
(0.000829393 -0.542777 0.839876)
(0.269453 0.0246475 0.962698)
(0.395811 -0.150425 0.905928)
(0.781276 -0.59819 0.17826)
(0.73443 -0.664683 0.137145)
(0.936058 -0.339448 0.092575)
(0.853398 -0.520273 0.032062)
(0.854373 -0.509939 0.100041)
(0.749637 -0.507146 0.425263)
(0.890009 -0.306436 0.337611)
(0.800535 -0.50007 0.330263)
(-0.621981 0.78089 0.0578751)
(-0.62977 0.77677 0.00435978)
(0.709701 -0.612941 -0.347315)
(0.851723 -0.523874 0.0111531)
(0.942679 -0.333451 -0.0128835)
(0.8438 -0.53381 -0.0552127)
(-0.622644 0.778738 0.0766906)
(-0.634068 0.761165 0.136325)
(0.946046 -0.260822 -0.192271)
(0.806183 -0.530568 -0.261852)
(0.138908 -0.0104129 0.990251)
(0.17068 -0.00975805 0.985278)
(0.139516 -0.0151722 0.990104)
(0.0947829 -0.028759 0.995082)
(0.130638 -0.0237006 0.991147)
(0.128879 -0.0196706 0.991465)
(0.17088 -0.0105956 0.985235)
(0.141109 -0.0198036 0.989796)
(0.139845 -0.0165322 0.990035)
(0.165606 -0.0397265 0.985392)
(0.186922 -0.0257383 0.982038)
(0.183267 -0.0780186 0.979962)
(0.151578 -0.2307 0.961146)
(0.181485 -0.322362 0.929057)
(0.186975 -0.138254 0.972587)
(0.190821 -0.0319997 0.981103)
(0.202425 -0.267746 0.941985)
(0.191909 -0.103784 0.97591)
(0.126853 2.69677e-05 0.991921)
(0.138743 -0.00852818 0.990292)
(0.170048 -0.00165759 0.985434)
(0.138735 -0.00253518 0.990326)
(0.170056 -0.000228126 0.985434)
(0.138845 -0.000176652 0.990314)
(0.098239 -0.017183 0.995014)
(0.116702 -0.0285725 0.992756)
(0.12471 -0.0501712 0.990924)
(0.144414 -0.0321796 0.988994)
(0.147797 -0.0336878 0.988444)
(0.16229 -0.0348375 0.986128)
(0.178056 -0.016765 0.983877)
(0.156358 -0.028511 0.987289)
(0.152381 -0.026801 0.987958)
(0.177642 -0.0167195 0.983953)
(0.155136 -0.0277669 0.987503)
(0.294177 -0.00127902 0.95575)
(0.178668 -0.00853879 0.983872)
(0.294012 -0.00176695 0.9558)
(0.178816 -0.00921816 0.983839)
(0.294217 -0.00218395 0.955736)
(0.294136 -0.00190302 0.955762)
(0.103174 -0.0400922 0.993855)
(0.131319 -0.0248316 0.991029)
(0.133563 -0.0276537 0.990654)
(0.14603 -0.0250516 0.988963)
(0.172962 -0.0149141 0.984816)
(0.144043 -0.0237043 0.989287)
(0.141661 -0.0207487 0.989698)
(0.172648 -0.0144983 0.984877)
(0.143405 -0.0231017 0.989394)
(0.294973 -0.00273912 0.955502)
(0.180754 -0.0129406 0.983443)
(0.294732 -0.00261283 0.955576)
(0.294372 -0.00229518 0.955688)
(0.180486 -0.0125922 0.983497)
(0.294546 -0.00254361 0.955634)
(-0.215903 0.783936 -0.582091)
(0.0313344 0.816757 -0.576131)
(-0.200543 0.861917 -0.465706)
(-0.236471 0.902817 -0.359169)
(-0.333671 0.870248 -0.362398)
(0.0245974 0.857344 -0.514156)
(-0.144991 0.912152 -0.383349)
(-0.189737 0.87792 -0.43961)
(0.296478 -0.00288831 0.955035)
(0.191244 -0.0191559 0.981356)
(0.296575 -0.00297565 0.955005)
(0.19411 -0.0231407 0.980707)
(0.2981 -0.00669579 0.954511)
(0.296659 -0.00316674 0.954978)
(-0.400617 -0.391234 0.828518)
(0.147741 -0.394927 0.906755)
(-0.155473 -0.611878 0.775521)
(0.0796943 0.92441 -0.372981)
(0.0665819 0.878268 -0.473511)
(0.0477217 0.894035 -0.445448)
(-0.114151 0.850557 -0.513344)
(0.0580287 0.926713 -0.371263)
(0.113764 -0.626962 0.770698)
(0.0585712 0.910644 -0.40902)
(0.130533 -0.516412 0.846333)
(0.0431363 0.887001 -0.459748)
(0.0534408 0.930098 -0.363404)
(0.0438582 0.904535 -0.424137)
(0.183449 -0.33773 0.923193)
(0.18622 -0.360689 0.913907)
(-0.0700667 -0.613846 0.78631)
(0.00656376 0.72839 -0.685132)
(-0.0401645 0.831558 -0.553984)
(0.0199752 0.810739 -0.585066)
(0.226594 0.842517 -0.488692)
(0.0610259 0.866647 -0.495175)
(0.0457314 0.822731 -0.566589)
(-0.0262356 0.851997 -0.522889)
(0.0371035 0.875245 -0.482255)
(0.0259226 0.829866 -0.557361)
(-0.205195 0.912222 -0.354606)
(-0.069181 0.939301 -0.336046)
(-0.338588 0.805444 -0.486435)
(0.0517693 0.960376 -0.273859)
(-0.00209146 -0.627059 0.778969)
(-0.00873855 0.95531 -0.295477)
(0.282923 -0.238631 0.928983)
(-0.127728 0.921625 -0.366459)
(0.0501952 0.962071 -0.268142)
(-0.0380853 0.94771 -0.316852)
(0.299652 -0.0115166 0.953979)
(0.202279 -0.346724 0.915896)
(0.308002 -0.0973046 0.946397)
(0.178147 0.197088 0.964064)
(0.166893 0.22467 0.960036)
(0.222159 0.197458 0.954807)
(0.1943 0.228014 0.954074)
(0.183154 0.192136 0.964126)
(0.214888 0.184345 0.959083)
(0.191917 0.219447 0.956562)
(0.109879 0.109401 0.987906)
(0.146243 0.150667 0.977708)
(0.134452 0.178591 0.974694)
(0.115905 0.0882516 0.989332)
(0.155924 0.26838 0.95061)
(0.132877 0.208046 0.969051)
(0.152295 0.167632 0.974015)
(0.164101 0.256157 0.952604)
(0.141953 0.198966 0.969671)
(0.18291 0.186022 0.96537)
(0.200933 0.145796 0.968695)
(0.146488 0.0988492 0.984261)
(0.147942 0.0951664 0.984407)
(0.162691 0.139252 0.976801)
(0.1797 0.182446 0.966655)
(0.157042 0.105834 0.981905)
(0.167477 0.150835 0.974269)
(0.196783 0.296656 0.93449)
(0.197535 0.346055 0.917184)
(0.198881 0.147646 0.968838)
(0.162413 0.286943 0.944079)
(0.184286 0.342759 0.921171)
(0.191875 0.279819 0.940683)
(0.170915 0.274319 0.946328)
(0.191279 0.328054 0.925091)
(0.294153 -0.00104943 0.955758)
(0.17821 -0.00148393 0.983991)
(0.294631 -0.000426825 0.955611)
(0.178291 -0.000249228 0.983978)
(0.29453 -0.000129483 0.955642)
(0.103418 -0.022355 0.994387)
(0.11131 -0.0254399 0.99346)
(0.114299 -0.0452267 0.992416)
(0.143498 -0.0319866 0.989134)
(0.140899 -0.0315245 0.989522)
(0.146729 -0.025388 0.988851)
(0.175091 -0.0164693 0.984415)
(0.148785 -0.0261884 0.988523)
(0.15161 -0.0266871 0.98808)
(0.175415 -0.016613 0.984354)
(0.149476 -0.0263458 0.988414)
(0.296436 -0.00289775 0.955048)
(0.185164 -0.0144816 0.982601)
(0.296313 -0.00296108 0.955086)
(0.184873 -0.0144801 0.982656)
(0.295995 -0.00296646 0.955185)
(0.296207 -0.00296758 0.955119)
(0.295147 -0.00279249 0.955448)
(0.182745 -0.0143109 0.983056)
(0.295419 -0.00290284 0.955363)
(0.183016 -0.0144399 0.983004)
(0.295859 -0.00295334 0.955227)
(0.295595 -0.00293086 0.955309)
(0.852874 -0.4679 0.231679)
(0.827511 -0.383996 0.409601)
(0.844145 -0.444792 0.299297)
(0.843103 -0.428809 0.3245)
(0.838332 -0.483226 0.252371)
(0.812392 -0.37158 0.449385)
(0.790562 -0.42742 0.438547)
(0.836898 -0.438822 0.327164)
(0.364624 -0.272988 0.89024)
(0.408736 -0.528198 0.744273)
(0.267706 -0.468154 0.84212)
(0.176437 -0.179963 0.967721)
(0.323647 -0.387568 0.863159)
(0.273033 -0.414421 0.868164)
(0.446827 -0.516854 0.73021)
(0.368837 -0.434567 0.821652)
(0.293415 -0.459613 0.83825)
(0.750353 -0.498868 0.433706)
(0.748834 -0.479422 0.457605)
(0.672096 -0.506691 0.539954)
(0.698185 -0.297872 0.651007)
(0.46178 -0.528999 0.711983)
(0.603388 -0.520953 0.603764)
(0.725406 -0.475484 0.497695)
(0.501913 -0.516236 0.693962)
(0.638226 -0.508874 0.577681)
(0.835475 -0.415459 0.359688)
(0.742973 -0.413279 0.52649)
(0.274894 -0.21923 0.936147)
(0.393269 -0.27592 0.877045)
(0.534281 -0.417103 0.735234)
(0.762758 -0.425343 0.487116)
(0.461744 -0.313345 0.829824)
(0.607681 -0.427748 0.669146)
(-0.210982 0.739195 -0.639591)
(-0.0684969 -0.257207 0.963926)
(0.154019 -0.505854 0.848758)
(0.657698 -0.57683 0.48446)
(-0.626581 0.68143 -0.378218)
(-0.0527181 -0.203638 0.977626)
(0.0986504 -0.169102 0.980649)
(0.130748 -0.407007 0.904019)
(-0.0355137 -0.0230909 0.999102)
(0.0301529 -0.217849 0.975517)
(0.0572678 -0.0591195 0.996607)
(0.101392 0.082992 0.991379)
(0.0991516 -0.00118833 0.995072)
(0.0737587 -0.0136054 0.997183)
(0.0365008 -0.202319 0.978639)
(0.0921939 -0.0323009 0.995217)
(0.0643853 -0.0528691 0.996524)
(-0.00227962 -0.689885 0.723916)
(0.0714304 -0.488378 0.869704)
(0.00689871 -0.53036 0.847745)
(-0.181161 -0.16132 0.970132)
(0.023218 -0.279336 0.959913)
(0.00479288 -0.480797 0.876819)
(0.0681804 -0.411386 0.908908)
(0.0283984 -0.262747 0.964447)
(0.010716 -0.464992 0.88525)
(0.644126 -0.522941 0.558242)
(0.468088 -0.245524 0.848889)
(0.140395 0.0828056 0.986627)
(0.0722895 0.0090059 0.997343)
(0.120689 0.0220414 0.992446)
(0.0991825 -0.1155 0.988343)
(0.0592004 -0.00694798 0.998222)
(0.114014 -0.00421349 0.99347)
(0.852834 -0.476962 0.21256)
(0.830277 -0.515998 0.210678)
(0.847399 -0.506174 0.160324)
(-0.675679 0.733101 -0.0775931)
(0.718705 -0.684383 0.122808)
(0.822145 -0.537232 0.188306)
(0.833581 -0.544115 0.0952979)
(0.844372 -0.516088 0.143837)
(0.933811 -0.332409 0.132294)
(0.843424 -0.500547 0.195165)
(0.853482 -0.506621 0.122077)
(0.851485 -0.52371 0.0264722)
(0.777413 -0.626733 0.053249)
(0.85293 -0.513903 0.0917309)
(0.845355 -0.50184 0.183114)
(0.780737 -0.620576 0.0730409)
(0.85253 -0.51015 0.113752)
(0.768771 -0.497818 0.401457)
(0.803411 -0.541673 0.247226)
(0.811279 -0.494677 0.311641)
(0.909131 -0.310827 0.27725)
(0.838381 -0.498867 0.219655)
(0.812 -0.499528 0.301872)
(0.80271 -0.553018 0.223222)
(0.841526 -0.498957 0.207066)
(0.820629 -0.495694 0.284349)
(-0.663445 0.745667 -0.0618139)
(-0.635734 0.771804 -0.01269)
(0.812236 -0.58209 -0.0380048)
(0.754174 -0.655813 0.0336377)
(0.817106 -0.576331 0.0134272)
(0.829828 -0.552381 0.079129)
(0.759783 -0.648167 0.0510763)
(0.819771 -0.5719 0.0300932)
(-0.674528 0.694874 0.249322)
(0.701824 -0.635085 -0.322661)
(0.841196 -0.474052 -0.260124)
(0.81705 -0.488596 -0.306109)
(0.818594 -0.533113 -0.213765)
(0.834132 -0.497772 -0.237584)
(0.818417 -0.500506 -0.282288)
(0.85 -0.526756 0.00525272)
(0.76977 -0.633047 -0.0818812)
(0.843919 -0.533211 -0.0590429)
(0.946258 -0.320134 -0.0459305)
(0.828884 -0.540588 -0.143933)
(0.840801 -0.535964 -0.0761273)
(0.771441 -0.628138 -0.101594)
(0.833248 -0.533081 -0.146706)
(0.841714 -0.533902 -0.0804103)
(-0.665264 0.711767 0.225413)
(-0.640455 0.751671 0.157509)
(0.811707 -0.581399 -0.0557357)
(0.76121 -0.643061 -0.0838494)
(0.812943 -0.571641 -0.111128)
(0.817708 -0.542659 -0.192027)
(0.768585 -0.631713 -0.101069)
(0.814019 -0.566 -0.13045)
(0.796993 -0.53582 -0.278744)
(0.816029 -0.513535 -0.265289)
(0.949795 -0.273646 -0.151681)
(0.825214 -0.539915 -0.165871)
(0.810736 -0.534918 -0.237844)
(0.794283 -0.552013 -0.253763)
(0.83065 -0.53045 -0.169242)
(0.819788 -0.519698 -0.240544)
(0.263894 0.964433 0.0151083)
(0.142565 0.98976 0.00713401)
(-0.37242 0.76592 -0.52409)
(0.752143 -0.657788 0.0399575)
(0.656412 0.750525 0.0763926)
(0.652161 0.753265 0.0853087)
(0.979171 0.19796 0.0451262)
(0.992691 0.111923 0.045136)
(-0.339213 0.753689 -0.562928)
(-0.465739 0.840749 -0.276095)
(0.365777 0.930448 0.0217472)
(0.443757 0.895745 0.0268603)
(0.659503 0.748489 0.0694291)
(0.661123 0.747583 0.0635293)
(0.961915 0.269498 0.0457166)
(0.944112 0.326256 0.0469978)
(0.849928 0.514387 0.114139)
(0.850028 0.516643 0.102633)
(0.849853 0.510914 0.12929)
(0.849772 0.504565 0.152647)
(0.163385 -0.00718809 0.986536)
(0.170377 -0.0078374 0.985348)
(0.163674 -0.00829291 0.98648)
(0.171348 -0.0119831 0.985138)
(0.164639 -0.0132653 0.986265)
(0.164323 -0.0128191 0.986323)
(0.17534 -0.0211678 0.98428)
(0.182183 -0.0193813 0.983074)
(0.177191 -0.0236592 0.983892)
(0.202774 -0.061505 0.977292)
(0.20129 -0.13267 0.970506)
(0.197337 -0.0824507 0.976862)
(0.163504 -0.00580018 0.986526)
(0.170141 -0.00441328 0.98541)
(0.163211 -0.00476713 0.98658)
(0.174025 -0.0197934 0.984542)
(0.179084 -0.017024 0.983686)
(0.173007 -0.0189754 0.984738)
(0.169898 -0.0179029 0.985299)
(0.176939 -0.0167066 0.98408)
(0.170292 -0.0179437 0.98523)
(0.188728 -0.00468285 0.982018)
(0.178419 -0.00688731 0.983931)
(0.188772 -0.0054726 0.982006)
(0.179221 -0.0103485 0.983754)
(0.189481 -0.00845608 0.981848)
(0.189309 -0.00809983 0.981884)
(0.166918 -0.0167665 0.985828)
(0.173582 -0.0155431 0.984697)
(0.166561 -0.0166317 0.985891)
(0.164804 -0.0139334 0.986228)
(0.172061 -0.0135619 0.984993)
(0.165147 -0.0145057 0.986162)
(0.191009 -0.0106516 0.981531)
(0.18132 -0.0134432 0.983332)
(0.190789 -0.010523 0.981575)
(0.189634 -0.00886725 0.981815)
(0.179954 -0.0117797 0.983604)
(0.189812 -0.00925263 0.981777)
(-0.074475 -0.614398 0.785474)
(-0.0606036 -0.684339 0.726641)
(-0.30656 -0.165507 0.937352)
(-0.344902 -0.216234 0.913392)
(-0.0636277 -0.695408 0.715792)
(-0.352296 0.935564 -0.0246489)
(-0.312564 0.949657 -0.0213482)
(-0.150302 0.981571 -0.118017)
(0.0250895 0.907371 -0.419581)
(0.0645962 0.909024 -0.411707)
(-0.125388 0.97958 -0.157166)
(0.0556258 0.893786 -0.44503)
(0.194601 -0.0113228 0.980817)
(0.187958 -0.0155761 0.982054)
(0.195115 -0.0115457 0.980712)
(0.204288 -0.0436646 0.977937)
(0.212915 -0.0423417 0.976153)
(0.205873 -0.0265194 0.978219)
(-0.0887918 0.905584 -0.414769)
(-0.176409 0.819662 -0.545009)
(0.019783 0.940174 -0.340119)
(-0.237301 0.898761 -0.368668)
(-0.290332 0.899489 -0.326536)
(-0.195987 0.860166 -0.470855)
(0.0219885 0.866187 -0.499235)
(-0.0280536 0.985655 -0.166426)
(-0.0805945 0.982347 -0.168817)
(0.0192853 0.897147 -0.441311)
(0.040129 0.915595 -0.400095)
(0.00123919 0.979184 -0.202971)
(-0.101065 0.984912 -0.140476)
(0.0277519 0.907079 -0.420045)
(0.195774 -0.166214 0.96646)
(0.213327 -0.215203 0.952984)
(0.186033 -0.25966 0.947612)
(-0.358647 -0.321045 0.876529)
(-0.0663122 0.745893 -0.662757)
(-0.0632983 0.775325 -0.628382)
(-0.301229 -0.238374 0.923276)
(-0.330504 -0.313744 0.89013)
(-0.0583785 0.778244 -0.625242)
(-0.326745 -0.24756 0.912114)
(0.0834088 0.943287 -0.321328)
(-0.0602188 0.976733 -0.205829)
(0.0023296 0.883136 -0.469111)
(0.00685314 0.886624 -0.462439)
(-0.0185071 0.963417 -0.267366)
(0.0277384 0.968731 -0.246557)
(-0.00349183 0.874259 -0.485448)
(-0.384196 0.922895 -0.0256402)
(-0.407693 0.912648 -0.0293351)
(-0.0416357 0.916554 -0.397738)
(0.035442 0.976653 -0.211878)
(-0.166903 0.895392 -0.412814)
(-0.147934 0.919253 -0.364813)
(-0.0135117 0.950338 -0.310925)
(-0.0591317 0.898941 -0.434061)
(-0.161047 0.982403 -0.0945943)
(0.074826 0.921519 -0.381055)
(0.0423547 0.945713 -0.32223)
(-0.170888 0.981956 -0.0809924)
(0.08662 0.931629 -0.352936)
(0.221877 -0.0702288 0.972542)
(0.225777 -0.177262 0.957916)
(0.233675 -0.124695 0.964286)
(0.541964 0.756518 0.365998)
(0.483123 0.68114 0.550127)
(0.195773 0.0637019 0.978578)
(0.199225 0.156071 0.967446)
(0.19924 0.160295 0.966752)
(0.207955 0.0682343 0.975755)
(0.207119 0.166925 0.96397)
(0.0915794 0.0360434 0.995145)
(0.126167 0.105352 0.986399)
(0.0842118 0.0312863 0.995957)
(0.133412 0.114829 0.984386)
(0.0975329 0.0370748 0.994541)
(0.0776431 0.0302042 0.996524)
(0.13264 0.128222 0.982835)
(0.158047 0.0636995 0.985375)
(0.173242 0.0704272 0.982358)
(0.164329 0.199876 0.965943)
(0.168432 0.242275 0.955476)
(0.160848 0.0647877 0.984851)
(0.171162 0.0692482 0.982806)
(0.162904 0.224795 0.960692)
(0.575856 0.774931 0.260522)
(0.597763 0.777092 0.196996)
(0.123064 0.0690877 0.989991)
(0.0941227 0.0279821 0.995167)
(0.128566 0.0733271 0.988986)
(0.107628 0.0327001 0.993653)
(0.134054 0.0809235 0.987664)
(0.183559 0.0591968 0.981225)
(0.190979 0.145437 0.97076)
(0.174651 0.127068 0.976397)
(0.171249 0.0548828 0.983698)
(0.182395 0.134957 0.973919)
(0.197751 0.0808972 0.976908)
(0.185677 0.0761738 0.979654)
(0.181077 0.247529 0.951809)
(0.173817 0.259533 0.949963)
(0.198183 0.0821042 0.97672)
(0.184399 0.0749593 0.979989)
(0.179125 0.276603 0.944142)
(0.188721 -0.00384999 0.982023)
(0.178216 -0.00380752 0.983984)
(0.188698 -0.00302976 0.98203)
(0.167207 -0.0170234 0.985775)
(0.174461 -0.0161212 0.984532)
(0.167569 -0.0172514 0.985709)
(0.169559 -0.0178832 0.985358)
(0.17603 -0.0167526 0.984242)
(0.169196 -0.0179175 0.98542)
(0.194236 -0.0112325 0.980891)
(0.185877 -0.0144901 0.982466)
(0.193948 -0.0112661 0.980947)
(0.184341 -0.0145141 0.982755)
(0.192792 -0.0114359 0.981173)
(0.192976 -0.0114382 0.981137)
(0.191208 -0.0108425 0.98149)
(0.182186 -0.0140038 0.983164)
(0.191417 -0.0110066 0.981447)
(0.18355 -0.0145339 0.982903)
(0.19261 -0.0114046 0.981209)
(0.192411 -0.0114239 0.981248)
(0.881761 -0.369619 0.293051)
(0.843349 -0.414927 0.341465)
(0.921101 -0.247007 0.300932)
(0.87727 -0.357818 0.319945)
(0.911033 -0.243986 0.332401)
(0.918866 -0.387253 0.075637)
(0.941234 -0.331518 0.0646042)
(0.758175 -0.212683 0.616391)
(0.761081 -0.353045 0.544165)
(0.769756 -0.316646 0.554266)
(0.803326 -0.319184 0.502781)
(0.80198 -0.221332 0.554833)
(0.20786 -0.0577539 0.976452)
(0.176507 -0.206841 0.962321)
(0.239919 -0.194682 0.951072)
(0.147684 -0.122396 0.981432)
(0.247444 -0.193627 0.949358)
(0.211197 -0.0639455 0.97535)
(0.152259 -0.116666 0.981431)
(0.559725 -0.19736 0.804834)
(0.65956 -0.21859 0.719165)
(0.509314 -0.499963 0.700454)
(0.491637 -0.463424 0.737246)
(0.449039 -0.494847 0.743969)
(0.634995 -0.20601 0.744541)
(0.586295 -0.206974 0.783211)
(0.896905 -0.224265 0.381138)
(0.770292 -0.50804 0.385416)
(0.779991 -0.491907 0.386835)
(0.912306 -0.253853 0.321336)
(0.755693 -0.504668 0.417418)
(0.90044 -0.251236 0.35509)
(0.910879 -0.225483 0.345625)
(0.753498 -0.215781 0.621031)
(0.721415 -0.227346 0.654122)
(0.656925 -0.471509 0.588327)
(0.564749 -0.50045 0.656208)
(0.612775 -0.50059 0.611487)
(0.771935 -0.234043 0.59105)
(0.699671 -0.211629 0.682403)
(0.897621 -0.431392 0.0904296)
(0.876154 -0.469145 0.110717)
(0.207537 -0.147844 0.96699)
(0.260041 -0.133334 0.956348)
(0.175201 -0.123018 0.976817)
(0.304445 -0.132997 0.943199)
(0.23705 -0.0643303 0.969365)
(0.703186 -0.202292 0.681621)
(0.727291 -0.314951 0.609798)
(0.607627 -0.334313 0.720433)
(0.671506 -0.314802 0.670805)
(0.636023 -0.188531 0.748285)
(-0.0826887 -0.523599 0.847943)
(-0.267378 -0.131776 0.954539)
(-0.0881511 -0.402326 0.911243)
(-0.230113 -0.106905 0.967274)
(-0.0849866 -0.432792 0.897479)
(0.630044 0.775417 0.0421014)
(0.616879 0.786037 0.0400727)
(-0.0594219 -0.0271773 0.997863)
(-0.0182945 -0.123535 0.992172)
(-0.00549152 -0.097915 0.99518)
(-0.0824172 -0.0362193 0.99594)
(-0.0228296 -0.131691 0.991028)
(0.048561 0.0180391 0.998657)
(0.119608 0.080607 0.989544)
(0.0704992 0.0253071 0.997191)
(0.113226 0.0513305 0.992242)
(0.0633471 0.0242357 0.997697)
(0.0563155 0.019105 0.99823)
(0.112956 0.053564 0.992155)
(-0.0367755 -0.0197962 0.999127)
(-0.0448649 -0.0276636 0.99861)
(0.0773165 -0.191851 0.978374)
(0.0791342 -0.107633 0.991036)
(-0.0571396 -0.0295672 0.997928)
(-0.0254308 -0.0181757 0.999511)
(0.081673 -0.137242 0.987165)
(-0.253602 -0.157 0.954483)
(-0.0722916 0.706526 -0.703985)
(-0.266599 -0.187205 0.945452)
(0.0768201 -0.630667 0.772242)
(-0.290252 -0.195649 0.936736)
(-0.23174 -0.149913 0.961157)
(0.0757257 -0.658834 0.748467)
(-0.102573 -0.0527405 0.993326)
(-0.0657153 -0.038229 0.997106)
(0.0668408 -0.268314 0.96101)
(0.0743373 -0.253223 0.964548)
(-0.0881933 -0.0501345 0.994841)
(-0.0789677 -0.0404381 0.996057)
(0.0729831 -0.320827 0.944322)
(0.641003 0.766269 0.0441207)
(0.648458 0.759847 0.0462094)
(0.111509 0.0566065 0.99215)
(0.0801374 0.0231558 0.996515)
(0.0964988 0.0371396 0.99464)
(0.0656172 0.018184 0.997679)
(0.0993438 0.0433121 0.99411)
(-0.0380575 -0.0190751 0.999093)
(0.0115188 -0.0692113 0.997536)
(0.0305657 -0.0444697 0.998543)
(-0.0181834 -0.011625 0.999767)
(0.0279436 -0.0444854 0.998619)
(0.884294 -0.382333 0.26804)
(0.929201 -0.249901 0.272278)
(0.842164 -0.47325 0.258444)
(0.885231 -0.395715 0.244492)
(0.935736 -0.252803 0.245947)
(0.871553 0.486272 0.0627271)
(0.879162 0.472843 0.059102)
(0.955311 -0.270541 0.119118)
(0.803366 -0.577329 0.145926)
(0.871566 -0.475143 0.120882)
(0.875091 -0.463238 0.140097)
(0.953648 -0.267592 0.137656)
(0.970106 -0.24192 0.0191838)
(0.797372 -0.603459 0.00591191)
(0.772128 -0.635304 0.0143991)
(0.957561 -0.288203 -0.00407322)
(0.799368 -0.600253 0.0266171)
(0.957334 -0.288755 0.0114616)
(0.97046 -0.241241 0.00323115)
(0.965146 -0.240242 0.103809)
(0.953539 -0.28018 0.110737)
(0.809897 -0.565814 0.154664)
(0.788038 -0.605063 0.113559)
(0.808871 -0.572848 0.132562)
(0.963277 -0.238997 0.122381)
(0.954674 -0.28274 0.0930331)
(0.931513 -0.22812 0.283276)
(0.781841 -0.512367 0.355254)
(0.921813 -0.256501 0.290635)
(0.800564 -0.519658 0.298417)
(0.922244 -0.226726 0.313147)
(0.790939 -0.51742 0.326637)
(0.929454 -0.259248 0.262498)
(0.958158 -0.23598 0.162009)
(0.952054 -0.27734 0.129138)
(0.798399 -0.575345 0.177588)
(0.810409 -0.558429 0.177182)
(0.810117 -0.551017 0.200226)
(0.95013 -0.274314 0.148343)
(0.960978 -0.237555 0.141732)
(0.865295 0.496855 0.066329)
(0.860568 0.504435 0.070483)
(0.853942 -0.51983 -0.0236596)
(0.747723 -0.664011 -0.000322587)
(0.959043 -0.282988 -0.0124117)
(0.854091 -0.520089 -0.00605759)
(0.959033 -0.283275 0.00316664)
(0.956569 -0.273355 0.101259)
(0.867982 -0.486002 0.102027)
(0.774883 -0.626041 0.0873492)
(0.864521 -0.495613 0.0834901)
(0.957458 -0.276081 0.0839837)
(-0.00456219 0.0347382 0.999386)
(-0.028379 0.0290557 0.999175)
(0.951862 -0.262112 -0.158924)
(0.874537 -0.446024 -0.190386)
(0.816281 -0.543692 -0.195153)
(0.876967 -0.431872 -0.21075)
(0.949522 -0.258973 -0.177036)
(0.970768 -0.238339 -0.0283592)
(0.795639 -0.605593 -0.0147095)
(0.768635 -0.638225 -0.0432475)
(0.957721 -0.287036 -0.0195287)
(0.794237 -0.60658 -0.0353187)
(0.970676 -0.240064 -0.0125826)
(0.957824 -0.285218 -0.0349755)
(0.967938 -0.226235 -0.10915)
(0.954858 -0.266325 -0.131595)
(0.776602 -0.613792 -0.141947)
(0.79198 -0.588562 -0.162366)
(0.791785 -0.594457 -0.140348)
(0.955986 -0.270087 -0.114644)
(0.966492 -0.223489 -0.126274)
(0.0343603 0.0485374 0.99823)
(0.110674 0.0827992 0.990402)
(0.854517 -0.517779 -0.041299)
(0.750873 -0.658537 -0.0501909)
(0.958967 -0.282135 -0.0279689)
(0.855768 -0.513982 -0.0590132)
(0.958804 -0.280712 -0.0435413)
(0.953767 -0.265252 -0.141314)
(0.871761 -0.459321 -0.170461)
(0.786374 -0.602384 -0.136932)
(0.868783 -0.471598 -0.151033)
(0.955332 -0.26817 -0.1242)
(0.962573 -0.217192 -0.162114)
(0.953358 -0.262471 -0.149053)
(0.787276 -0.580875 -0.206837)
(0.792399 -0.581314 -0.18487)
(0.792821 -0.572896 -0.207905)
(0.951442 -0.258511 -0.167126)
(0.964728 -0.220455 -0.143874)
(0.135621 -0.0114378 0.990695)
(0.118401 -0.0140079 0.992867)
(0.139025 -0.00854784 0.990252)
(0.127676 -0.0143829 0.991712)
(0.135127 -0.0097037 0.990781)
(0.139039 -0.0100616 0.990236)
(0.119082 -0.0163393 0.99275)
(0.136252 -0.0129547 0.99059)
(0.139275 -0.0126294 0.990173)
(0.128017 -0.0163043 0.991638)
(0.120481 -0.0204634 0.992505)
(0.139135 -0.0114233 0.990208)
(0.136744 -0.0143508 0.990503)
(0.11973 -0.0184932 0.992634)
(0.160464 -0.0428611 0.986111)
(0.156865 -0.0624507 0.985644)
(0.158711 -0.0307286 0.986847)
(0.16536 -0.0621751 0.984271)
(0.158378 -0.0368273 0.986692)
(0.161063 -0.0355971 0.986302)
(0.162169 -0.0761508 0.98382)
(0.164225 -0.052464 0.985027)
(0.167638 -0.0536692 0.984387)
(0.1716 -0.0786936 0.982019)
(0.175248 -0.126739 0.976333)
(0.164623 -0.0428752 0.985424)
(0.166164 -0.0650892 0.983948)
(0.168171 -0.0976277 0.980912)
(0.118244 -0.00297549 0.99298)
(0.117878 -0.00302776 0.993023)
(0.116903 -0.00101802 0.993143)
(0.117442 -0.00146453 0.993079)
(0.133987 -0.00616066 0.990964)
(0.117796 -0.0115627 0.992971)
(0.139055 -0.00695961 0.99026)
(0.12695 -0.00785052 0.991878)
(0.134514 -0.00797606 0.99088)
(0.13914 -0.00540769 0.990258)
(0.117174 -0.00900788 0.993071)
(0.133406 -0.00418902 0.991053)
(0.139676 -0.00175036 0.990196)
(0.116087 -0.00331721 0.993233)
(0.126833 -0.00540229 0.991909)
(0.132904 -0.00197077 0.991127)
(0.139371 -0.00365005 0.990234)
(0.116622 -0.0062592 0.993157)
(0.118557 -0.0044197 0.992937)
(0.118799 -0.00455854 0.992908)
(0.119304 -0.00580347 0.992841)
(0.119174 -0.00584872 0.992856)
(0.128768 -0.00955124 0.991629)
(0.130511 -0.0142359 0.991345)
(0.128459 -0.0116229 0.991647)
(0.12779 -0.010549 0.991745)
(0.154634 -0.0299234 0.987519)
(0.152822 -0.0529021 0.986837)
(0.156585 -0.0275704 0.98728)
(0.153424 -0.0396652 0.987364)
(0.156069 -0.0325405 0.98721)
(0.155072 -0.0255686 0.987572)
(0.149499 -0.0468834 0.98765)
(0.153181 -0.0281386 0.987797)
(0.152777 -0.0235082 0.987981)
(0.144893 -0.0402878 0.988627)
(0.15113 -0.0367167 0.987832)
(0.152253 -0.0270642 0.987971)
(0.153767 -0.0243018 0.987808)
(0.146998 -0.0428311 0.988209)
(0.134756 -0.0206021 0.990665)
(0.129926 -0.00586825 0.991506)
(0.131988 0.00543016 0.991236)
(0.142813 -0.0341799 0.989159)
(0.143577 -0.0236009 0.989358)
(0.131038 -0.0339244 0.990797)
(0.14462 -0.0210895 0.989262)
(0.135948 -0.029564 0.990275)
(0.144024 -0.0239179 0.989285)