/*--------------------------------*- C++ -*----------------------------------*\
| =========                 |                                                 |
| \\      /  F ield         | OpenFOAM: The Open Source CFD Toolbox           |
|  \\    /   O peration     | Version:  2012                                  |
|   \\  /    A nd           | Website:  www.openfoam.com                      |
|    \\/     M anipulation  |                                                 |
\*---------------------------------------------------------------------------*/
FoamFile
{
    version     2.0;
    format      ascii;
    class       volScalarField;
    location    "0.108/solid";
    object      sigmaEq;
}
// * * * * * * * * * * * * * * * * * * * * * * * * * * * * * * * * * * * * * //

dimensions      [1 -1 -2 0 0 0 0];


internalField   nonuniform List<scalar> 
3125
(
9.27801e+07
3.05929e+07
9.65307e+07
9.38775e+07
9.40606e+07
3.1625e+07
3.12283e+07
3.05857e+07
5.8329e+07
3.58385e+08
1.71529e+08
1.58425e+08
6.00899e+07
5.52643e+07
5.62886e+07
6.15119e+08
2.54295e+08
1.6573e+08
1.59666e+08
2.04943e+08
2.48327e+08
1.9187e+08
8.39482e+07
7.80972e+07
7.17425e+07
3.02565e+07
5.06928e+07
2.88894e+07
8.5157e+07
8.10486e+07
3.92427e+07
4.04735e+07
3.12337e+07
4.00038e+07
8.24384e+07
7.06443e+07
7.59027e+07
5.55295e+07
6.97008e+07
5.49688e+07
6.8684e+07
1.17568e+08
2.48224e+08
3.01499e+07
2.72647e+07
7.21223e+07
4.30577e+08
2.00988e+08
2.74047e+08
3.03949e+07
1.08756e+08
3.28991e+08
2.4159e+08
3.57583e+08
2.86379e+08
2.83792e+07
8.29384e+07
7.9296e+07
1.27778e+08
6.74537e+07
1.04614e+08
8.59779e+07
1.16178e+08
6.53492e+07
8.35963e+07
7.57975e+07
4.27021e+07
4.19786e+07
5.35955e+07
4.15157e+07
3.11411e+07
3.98295e+07
5.30951e+07
4.13102e+07
2.03974e+08
2.50878e+08
4.01011e+08
4.54982e+08
2.56098e+08
1.79019e+08
3.37107e+08
2.38878e+08
5.50282e+08
2.68753e+08
1.12671e+08
1.11145e+08
1.72658e+08
8.03592e+07
8.2632e+07
1.00334e+08
1.69397e+08
8.25955e+07
1.0656e+08
1.11674e+08
2.00955e+08
1.75442e+08
2.33877e+08
1.0742e+08
1.39771e+08
1.74253e+08
2.39358e+08
1.44161e+08
1.32897e+08
1.70779e+08
8.26477e+07
1.02705e+08
1.47653e+08
7.13449e+07
1.27079e+08
8.77374e+07
1.32576e+08
6.7308e+07
8.99834e+07
8.73062e+07
8.50396e+07
3.07542e+07
3.0397e+07
2.93936e+07
9.75017e+07
9.56886e+07
9.11882e+07
9.3103e+07
9.04458e+07
3.36002e+07
3.45908e+07
3.16445e+07
3.50354e+07
6.58362e+07
5.80759e+07
6.48796e+07
7.63705e+07
1.0216e+08
6.47016e+08
5.29129e+08
3.99529e+08
4.1273e+08
2.98727e+08
1.39323e+08
2.01752e+08
1.92431e+08
6.35119e+08
3.19298e+08
4.48707e+07
8.36118e+07
1.4935e+08
7.95976e+07
4.87292e+07
4.81929e+07
9.33566e+07
6.04127e+07
6.51769e+07
5.07372e+07
4.95533e+07
5.59066e+07
4.97385e+07
1.41665e+08
1.64151e+08
6.17126e+08
4.65761e+08
4.48669e+08
1.99661e+08
2.67408e+08
2.31174e+08
4.85643e+08
2.84422e+08
7.01731e+07
5.75134e+07
1.70776e+08
8.46999e+07
8.65377e+07
1.26755e+08
1.595e+08
1.01336e+08
4.88324e+07
4.90501e+07
1.35017e+08
1.16999e+08
2.1652e+08
1.17582e+08
1.30345e+08
1.91669e+08
2.45413e+08
1.71944e+08
6.31976e+07
7.44325e+07
3.31759e+07
1.13249e+08
1.77693e+08
1.00448e+08
5.97789e+07
5.05542e+07
1.04055e+08
6.47082e+07
8.82219e+07
7.93571e+07
8.33289e+07
8.54306e+07
7.6532e+07
8.30625e+07
7.75127e+07
7.50823e+07
8.14051e+07
3.06578e+07
2.79712e+07
2.90345e+07
3.20614e+07
4.0632e+07
2.97278e+07
2.74742e+07
3.73343e+07
2.90808e+07
9.30335e+07
8.94287e+07
8.72851e+07
9.15386e+07
8.74698e+07
9.15862e+07
8.60136e+07
3.61878e+07
3.57659e+07
4.08138e+07
3.6358e+07
3.15702e+07
3.45957e+07
3.49498e+07
4.06158e+07
3.58644e+07
3.62524e+07
7.6813e+07
7.79774e+07
7.27092e+07
7.62048e+07
6.62321e+07
7.11774e+07
6.80488e+07
7.42389e+07
6.72132e+07
5.73352e+07
6.14879e+07
6.38821e+07
7.28817e+07
6.35666e+07
6.6123e+07
5.23965e+07
6.07411e+07
5.75376e+07
6.45449e+07
6.27491e+07
5.92796e+07
9.23106e+07
1.49853e+08
1.20701e+08
1.57889e+08
1.13501e+08
1.67939e+08
1.86669e+08
1.33734e+08
2.94758e+07
2.77071e+07
2.68018e+07
2.71066e+07
2.41363e+07
2.60163e+07
2.98694e+08
4.97018e+07
2.03486e+08
5.26145e+08
3.37498e+08
4.44214e+08
4.8268e+08
4.3429e+08
1.01415e+08
4.07881e+08
2.4104e+08
3.18646e+08
3.88167e+08
4.32134e+08
4.25524e+07
9.76302e+07
1.88498e+08
1.31523e+08
1.48404e+08
1.81088e+08
2.54241e+08
3.04212e+08
2.15279e+08
1.67023e+08
2.86359e+08
2.02674e+08
1.77526e+08
2.62774e+08
6.0365e+08
4.97006e+08
1.01806e+08
3.75821e+08
4.54528e+07
2.10738e+08
4.21574e+08
3.10972e+08
2.38095e+07
8.31088e+07
2.69272e+07
4.66245e+07
4.53213e+07
7.08263e+07
5.57466e+07
6.05907e+07
7.37996e+07
5.70082e+07
8.21273e+07
7.50184e+07
7.81235e+07
1.38974e+08
7.19326e+07
7.77882e+07
7.32958e+07
7.06666e+07
7.64401e+07
4.69995e+07
4.79486e+07
6.71539e+07
9.74626e+07
6.53381e+07
6.16837e+07
9.47417e+07
6.45458e+07
5.66091e+07
5.95654e+07
1.04588e+08
6.9664e+07
6.28265e+07
5.88058e+07
6.85401e+07
6.1848e+07
7.78561e+07
8.56809e+07
8.00603e+07
8.58835e+07
8.03014e+07
7.04521e+07
4.65408e+07
4.77569e+07
4.24511e+07
4.78108e+07
5.52479e+07
4.81168e+07
4.92867e+07
4.22108e+07
4.6366e+07
4.74198e+07
3.0464e+07
3.44983e+07
3.37208e+07
3.57535e+07
3.87148e+07
3.49004e+07
5.07487e+07
4.77586e+07
4.59333e+07
4.60515e+07
4.00667e+07
4.44059e+07
1.6964e+08
2.1502e+08
1.87763e+08
2.02822e+08
1.72763e+08
2.2047e+08
2.18949e+08
1.94511e+08
5.36177e+08
3.24491e+08
4.039e+08
4.81713e+08
3.76585e+08
4.33431e+08
3.04067e+08
3.38206e+08
3.84659e+08
1.9485e+08
1.96604e+08
2.22399e+08
2.92214e+08
2.9999e+08
2.44778e+08
2.04335e+08
2.82318e+08
2.34256e+08
2.1523e+08
2.58541e+08
5.12984e+08
4.19041e+08
3.12832e+08
2.30231e+08
3.6441e+08
2.79805e+08
8.59136e+07
1.08394e+08
7.39254e+07
5.06282e+07
5.49457e+07
1.08824e+08
6.88497e+07
7.18057e+07
1.73172e+08
8.82868e+07
8.69795e+07
8.31157e+07
8.23566e+07
8.49314e+07
8.62292e+07
8.26182e+07
8.52739e+07
1.19894e+08
8.62795e+07
9.71347e+07
1.64251e+08
8.92411e+07
9.66098e+07
8.43329e+07
8.69527e+07
9.2989e+07
4.99712e+07
4.91354e+07
6.75569e+07
1.10713e+08
6.8203e+07
6.85405e+07
1.11456e+08
6.82733e+07
1.63964e+08
1.91419e+08
1.47478e+08
9.63103e+07
1.1152e+08
1.87834e+08
1.26266e+08
1.42106e+08
2.26247e+08
1.47549e+08
1.34618e+08
1.14748e+08
1.21535e+08
1.27954e+08
1.45615e+08
1.26179e+08
1.32358e+08
1.87643e+08
1.61184e+08
1.696e+08
2.42943e+08
1.51986e+08
1.66556e+08
1.56977e+08
1.5013e+08
1.64404e+08
9.16069e+07
7.84819e+07
8.72524e+07
1.49976e+08
1.01163e+08
1.21098e+08
1.55446e+08
1.06015e+08
3.89306e+07
3.43221e+07
6.45932e+07
4.42834e+07
5.38972e+07
6.86964e+07
4.63464e+07
1.10335e+08
8.87693e+07
9.7215e+07
1.62824e+08
8.37257e+07
9.61368e+07
8.4254e+07
8.03896e+07
9.2907e+07
4.08612e+07
4.78478e+07
8.28721e+07
1.09696e+08
7.06456e+07
5.68454e+07
1.04018e+08
6.69127e+07
5.29532e+07
6.17292e+07
1.17939e+08
7.96534e+07
6.82929e+07
5.62282e+07
7.64017e+07
6.51703e+07
6.73822e+07
6.91051e+07
5.79686e+08
1.86987e+08
2.8733e+07
2.61549e+07
5.91675e+07
6.41879e+07
5.67033e+08
3.22039e+08
6.57173e+07
6.40935e+07
3.1353e+07
3.40377e+07
5.47988e+07
5.09881e+07
2.73083e+07
2.82146e+07
2.64362e+07
2.5603e+07
8.52942e+07
8.26233e+07
8.38996e+07
7.36875e+07
7.2727e+07
7.47695e+07
3.03943e+07
2.93846e+07
2.9568e+07
2.74142e+07
3.15901e+07
2.87127e+07
8.64884e+07
8.60781e+07
8.74599e+07
3.13375e+07
3.2278e+07
3.23747e+07
4.0174e+07
3.8575e+07
3.87095e+07
8.07757e+07
8.11352e+07
7.9511e+07
7.2521e+07
6.94383e+07
7.12341e+07
5.60463e+07
5.74649e+07
5.80612e+07
7.06609e+07
6.77018e+07
6.85665e+07
5.43569e+07
5.68452e+07
5.61651e+07
6.75595e+07
6.67428e+07
6.56929e+07
1.31117e+08
1.25081e+08
1.9987e+08
2.0374e+08
1.3927e+08
9.14599e+07
8.52107e+07
3.40684e+08
2.17054e+08
2.48654e+08
2.9973e+08
2.21848e+08
3.00491e+07
2.92473e+07
2.91236e+07
2.65875e+07
2.59733e+07
2.58775e+07
1.00004e+09
1.29618e+08
2.82566e+08
6.87894e+08
9.43537e+08
2.26342e+08
5.37314e+08
4.8375e+08
4.04297e+08
2.8555e+08
3.09077e+08
4.17502e+08
4.66025e+08
3.21606e+08
3.30873e+07
3.9729e+07
4.89221e+07
2.20751e+08
1.15969e+08
1.19456e+08
2.06857e+08
2.10234e+08
1.28088e+08
2.17137e+08
3.21062e+08
3.51054e+08
2.13447e+08
2.54481e+08
3.08146e+08
3.65268e+08
2.2594e+08
9.98443e+07
1.09851e+08
4.36334e+08
4.82229e+08
7.61408e+08
1.10181e+09
5.50475e+08
6.97861e+08
3.92923e+08
2.81396e+08
3.26367e+08
4.49891e+08
3.15971e+08
2.65046e+07
3.43555e+07
2.96331e+07
1.31047e+07
1.25194e+07
1.3896e+08
8.57314e+07
7.98798e+07
1.33194e+08
8.31694e+07
1.96423e+08
7.64648e+07
1.92586e+08
7.80436e+07
1.87281e+08
2.02022e+08
7.54121e+07
1.64577e+08
1.50865e+08
6.94864e+07
6.60506e+07
1.57212e+08
1.57832e+08
6.78937e+07
1.40737e+07
1.54785e+07
1.03768e+08
1.83191e+08
1.02429e+08
1.78278e+08
1.01914e+08
1.44775e+08
8.82623e+07
8.89804e+07
1.50597e+08
9.07481e+07
1.44333e+08
1.4451e+08
6.31891e+07
6.41282e+07
1.38196e+08
1.5106e+08
6.21423e+07
8.18988e+07
8.44933e+07
8.27626e+07
5.40827e+07
5.17449e+07
5.21626e+07
4.17019e+07
4.30655e+07
4.32975e+07
3.10515e+07
3.21898e+07
3.21013e+07
3.84236e+07
3.96422e+07
3.82644e+07
5.25464e+07
5.12904e+07
5.0799e+07
4.28261e+07
4.10906e+07
4.25685e+07
2.15885e+08
2.07148e+08
2.98506e+08
2.21133e+08
2.998e+08
1.13524e+08
1.02433e+08
3.47127e+08
2.37485e+08
2.68422e+08
2.5677e+08
3.28235e+08
7.73398e+08
4.38134e+08
4.71731e+08
7.80257e+08
4.78731e+08
7.77021e+08
7.67782e+08
4.40573e+08
3.81637e+08
2.69354e+08
2.77972e+08
2.91256e+08
3.96429e+08
4.24548e+08
3.15155e+08
1.81544e+08
1.84205e+08
3.04635e+08
1.8801e+08
3.05137e+08
3.14541e+08
3.44578e+08
3.51903e+08
2.2489e+08
2.51223e+08
2.36089e+08
3.31959e+08
3.65441e+08
1.26738e+08
1.41739e+08
5.38553e+08
5.58763e+08
8.29472e+08
5.17191e+08
7.70619e+08
3.74704e+08
2.83225e+08
2.93014e+08
3.02057e+08
4.14761e+08
1.24992e+08
1.98572e+08
1.09869e+08
1.98943e+08
1.20556e+08
5.22316e+07
5.44911e+07
2.06433e+08
1.10403e+08
1.12312e+08
2.06029e+08
1.127e+08
2.11948e+08
7.73422e+07
1.97522e+08
8.12255e+07
2.07227e+08
2.02026e+08
7.80381e+07
2.26673e+08
2.1698e+08
7.96516e+07
8.27067e+07
2.27507e+08
2.1616e+08
7.94524e+07
2.17194e+08
1.06018e+08
2.06136e+08
9.39665e+07
2.16277e+08
2.07102e+08
9.80752e+07
2.2689e+08
2.17071e+08
8.27405e+07
8.00428e+07
2.16452e+08
2.27573e+08
8.07943e+07
4.9812e+07
4.73328e+07
1.05451e+08
1.87771e+08
1.08246e+08
1.91965e+08
1.06947e+08
2.06214e+08
1.11949e+08
1.11928e+08
2.05345e+08
1.11515e+08
2.10783e+08
2.97175e+08
1.97923e+08
2.05745e+08
2.95536e+08
3.65658e+07
3.82543e+07
2.73614e+08
1.7984e+08
1.74464e+08
1.79892e+08
2.7884e+08
2.45832e+08
1.05677e+08
1.12134e+08
2.26101e+08
1.10157e+08
2.34713e+08
2.37117e+08
2.83845e+08
2.78883e+08
1.37132e+08
1.35305e+08
1.32644e+08
2.89908e+08
2.72722e+08
3.13175e+08
1.75646e+08
3.04096e+08
1.69757e+08
3.13989e+08
1.70171e+08
3.03217e+08
3.00073e+08
2.84432e+08
1.48485e+08
1.41626e+08
1.46145e+08
2.89327e+08
2.95331e+08
3.50649e+07
3.36884e+07
1.29061e+08
1.38667e+08
2.15073e+08
1.34759e+08
2.23505e+08
2.67808e+08
1.6894e+08
1.65874e+08
1.63336e+08
2.61454e+08
2.12261e+07
2.082e+07
1.38698e+08
8.26814e+07
7.77589e+07
7.84277e+07
1.31032e+08
2.19018e+08
1.01215e+08
9.80077e+07
2.17288e+08
9.678e+07
2.28157e+08
2.08328e+08
1.7275e+08
1.54717e+08
7.55184e+07
7.16718e+07
7.56054e+07
1.63382e+08
1.63756e+08
2.16988e+07
2.22249e+07
1.23414e+08
1.21254e+08
2.06492e+08
1.17844e+08
1.97814e+08
1.46643e+08
8.71657e+07
9.30186e+07
9.18564e+07
1.54834e+08
1.46346e+08
1.46261e+08
6.34272e+07
6.78586e+07
6.41812e+07
1.38052e+08
1.54935e+08
8.88297e+07
9.10129e+07
8.90761e+07
8.85348e+07
9.0282e+07
8.76389e+07
8.95391e+07
8.71459e+07
8.41714e+07
8.68726e+07
8.59663e+07
8.59943e+07
8.52824e+07
8.78447e+07
3.02403e+07
3.06735e+07
3.0706e+07
3.00345e+07
3.07232e+07
3.01474e+07
3.00238e+07
3.02252e+07
3.00683e+07
2.95326e+07
2.96971e+07
2.98792e+07
3.05349e+07
2.9659e+07
9.29373e+07
9.38956e+07
9.41433e+07
9.41818e+07
9.23856e+07
9.22305e+07
9.02575e+07
9.2131e+07
9.14736e+07
9.11818e+07
9.31744e+07
9.29809e+07
9.21052e+07
9.40778e+07
9.2784e+07
9.32068e+07
9.18136e+07
9.38051e+07
9.20412e+07
9.02922e+07
8.65715e+07
8.89353e+07
3.05423e+07
3.21676e+07
3.3889e+07
3.22204e+07
3.22964e+07
3.1515e+07
3.14705e+07
3.26672e+07
3.13966e+07
3.24078e+07
3.25113e+07
3.33333e+07
3.46575e+07
3.48588e+07
3.38024e+07
3.45037e+07
3.34742e+07
3.36311e+07
3.18401e+07
2.97876e+07
3.05495e+07
3.45232e+07
5.9907e+07
5.82546e+07
5.73916e+07
6.02986e+07
5.76423e+07
5.95998e+07
6.0532e+07
6.22352e+07
6.41489e+07
6.52294e+07
6.25718e+07
6.45936e+07
6.18539e+07
6.28606e+07
4.67104e+07
8.37171e+07
5.45458e+07
7.34551e+07
7.10896e+07
9.22807e+07
7.89002e+07
6.53349e+07
1.1441e+09
2.6229e+09
2.25e+09
1.01374e+09
8.89352e+08
2.05649e+08
3.59461e+08
3.54388e+08
4.53563e+08
9.46619e+08
4.18501e+08
2.96857e+08
2.55978e+08
2.58193e+08
2.91441e+08
3.05574e+08
2.83552e+08
2.67034e+08
3.23863e+08
1.58272e+08
1.83205e+08
5.50104e+08
5.85175e+08
4.55803e+08
3.20777e+08
3.61442e+08
3.59127e+08
1.32843e+07
1.41183e+07
2.49615e+07
4.43741e+07
2.56229e+07
2.85937e+08
2.89653e+08
2.93984e+08
2.81898e+08
2.76332e+08
2.63106e+08
2.7191e+08
2.67197e+08
2.13498e+07
2.36458e+07
4.03008e+07
4.85785e+07
3.83045e+07
3.41497e+07
4.83911e+07
3.62233e+07
1.62108e+08
1.63781e+08
1.54579e+08
1.71504e+08
5.70039e+07
6.00206e+07
6.50062e+07
6.18624e+07
5.5273e+07
5.24206e+07
4.81287e+07
5.0802e+07
5.3283e+07
5.6036e+07
5.52431e+07
5.37922e+07
5.5429e+07
5.31443e+07
5.38747e+07
5.11884e+07
4.9127e+07
4.97402e+07
5.1733e+07
4.91709e+07
5.11046e+07
5.17742e+07
5.41225e+09
3.09446e+09
3.11226e+09
2.42658e+08
2.4516e+08
2.71759e+08
2.48286e+08
8.40047e+08
7.93785e+08
8.37231e+08
8.74394e+08
3.36397e+08
3.33558e+08
3.38929e+08
3.31371e+08
2.96537e+08
3.02445e+08
3.11855e+08
3.08589e+08
2.49749e+08
2.58348e+08
2.79697e+08
2.68268e+08
3.36031e+08
3.44438e+08
3.59467e+08
3.53325e+08
3.42351e+08
3.49414e+08
3.62812e+08
3.55457e+08
8.99492e+07
1.48685e+08
9.89725e+07
7.65273e+07
6.99649e+07
1.56181e+08
1.23145e+08
1.10009e+08
8.58916e+08
8.80669e+08
8.27103e+08
9.48724e+08
8.92177e+08
8.59175e+08
8.81936e+08
8.72699e+08
3.87535e+08
3.49661e+08
3.48649e+08
3.86345e+08
3.89369e+08
3.53227e+08
3.48604e+08
3.96611e+08
2.13865e+08
2.5522e+08
5.13841e+08
3.46898e+08
3.54021e+08
3.47772e+08
3.08197e+08
3.70615e+08
4.18247e+07
6.5023e+07
3.96419e+07
6.0618e+07
6.23745e+07
6.08423e+07
4.05982e+07
3.94791e+07
3.08704e+08
2.97755e+08
3.02132e+08
3.0409e+08
3.14901e+08
3.14231e+08
3.09757e+08
3.19603e+08
2.95953e+08
2.61939e+08
2.93586e+08
2.67073e+08
3.02389e+08
2.85222e+08
2.78571e+08
3.07191e+08
3.94604e+07
3.67236e+07
4.21729e+07
4.89061e+07
4.38811e+07
4.65521e+07
4.89755e+07
4.53525e+07
8.27102e+07
1.2872e+08
7.70396e+07
4.48194e+07
4.76936e+07
1.22721e+08
6.93483e+07
7.26791e+07
3.48814e+08
3.36059e+08
3.45445e+08
3.38961e+08
3.58126e+08
3.6173e+08
3.53759e+08
3.6654e+08
3.89574e+08
3.56623e+08
3.59178e+08
3.88726e+08
3.9289e+08
3.69793e+08
3.67828e+08
3.93685e+08
3.02024e+07
2.91905e+07
4.51855e+07
6.6776e+07
4.7719e+07
5.23717e+07
7.05229e+07
5.01325e+07
2.88517e+08
2.80501e+08
2.61456e+08
2.7107e+08
1.41245e+08
1.62191e+08
1.51137e+08
3.25569e+08
3.15366e+08
2.92203e+08
3.03756e+08
1.78993e+08
1.66792e+08
1.99595e+07
1.97903e+07
1.54703e+07
3.21891e+07
1.54814e+07
3.17143e+08
3.25603e+08
3.28078e+08
3.15175e+08
3.05103e+08
2.91936e+08
3.03072e+08
2.93441e+08
2.41007e+07
2.48258e+07
4.25158e+07
5.65244e+07
3.97584e+07
3.40681e+07
5.34407e+07
3.69367e+07
1.71431e+08
1.77821e+08
1.67604e+08
1.81951e+08
8.44989e+07
8.64572e+07
8.77298e+07
8.67719e+07
8.62749e+07
8.57046e+07
8.50123e+07
8.10161e+07
8.05593e+07
8.22968e+07
8.26943e+07
8.28284e+07
8.51339e+07
8.16274e+07
8.46445e+07
8.10785e+07
8.34103e+07
7.88704e+07
7.72184e+07
7.57197e+07
7.87792e+07
7.79572e+07
7.65627e+07
7.95363e+07
8.11201e+07
8.22145e+07
8.39401e+07
8.09674e+07
8.32626e+07
8.01276e+07
8.17861e+07
7.56756e+07
7.87125e+07
7.67821e+07
7.50761e+07
7.36289e+07
7.45707e+07
7.7251e+07
7.67579e+07
7.30693e+07
7.57303e+07
7.72219e+07
8.09192e+07
7.97624e+07
7.93659e+07
7.90855e+07
7.886e+07
7.77735e+07
2.97648e+07
3.0532e+07
3.05561e+07
2.98966e+07
2.99302e+07
3.04297e+07
2.97481e+07
2.85984e+07
2.83665e+07
2.88621e+07
2.92291e+07
2.95492e+07
2.93089e+07
2.87373e+07
2.95077e+07
2.91579e+07
2.91087e+07
3.919e+07
4.41656e+07
4.42928e+07
3.37857e+07
3.55801e+07
4.73573e+07
3.63435e+07
3.42706e+07
3.07721e+07
3.04509e+07
3.1193e+07
3.19954e+07
3.29652e+07
3.23873e+07
2.73509e+07
2.80446e+07
2.83089e+07
3.10825e+07
3.4372e+07
4.10884e+07
3.1695e+07
3.30522e+07
3.87842e+07
2.9997e+07
3.06841e+07
2.98206e+07
2.85801e+07
3.00983e+07
2.91078e+07
3.16559e+07
2.92319e+07
8.7821e+07
8.76382e+07
8.89319e+07
9.04116e+07
8.98955e+07
8.71539e+07
8.86502e+07
8.68553e+07
8.86672e+07
8.8219e+07
8.89364e+07
9.0994e+07
9.11179e+07
8.98569e+07
9.06096e+07
8.89807e+07
8.9367e+07
8.88266e+07
9.10501e+07
8.9956e+07
8.95627e+07
7.72198e+07
8.02738e+07
8.49138e+07
8.21276e+07
3.93925e+07
3.73515e+07
3.45408e+07
3.63794e+07
3.8633e+07
4.06751e+07
4.03072e+07
3.92517e+07
3.87697e+07
4.01852e+07
3.9096e+07
3.71602e+07
3.5938e+07
3.61829e+07
3.77647e+07
3.5783e+07
3.7312e+07
3.75971e+07
3.22569e+07
3.14518e+07
3.1374e+07
3.25989e+07
3.23386e+07
3.12863e+07
3.24782e+07
3.34109e+07
3.46932e+07
3.34968e+07
3.33409e+07
3.46033e+07
3.37297e+07
3.48004e+07
3.34154e+07
3.45111e+07
3.35979e+07
3.85082e+07
4.03477e+07
4.01842e+07
3.90903e+07
3.86669e+07
3.99784e+07
3.88591e+07
3.71795e+07
3.59629e+07
3.73037e+07
3.7101e+07
3.5871e+07
3.76344e+07
3.60797e+07
3.72362e+07
3.57648e+07
3.74357e+07
3.95366e+07
7.82197e+07
4.52092e+07
3.35769e+07
7.88092e+07
7.55421e+07
7.75863e+07
7.95927e+07
7.64698e+07
7.80244e+07
7.41818e+07
7.46713e+07
7.61564e+07
7.442e+07
7.47647e+07
7.30506e+07
6.79413e+07
6.79008e+07
6.9651e+07
7.3029e+07
6.9546e+07
7.13912e+07
7.18133e+07
7.48562e+07
7.34472e+07
7.19114e+07
7.4202e+07
7.11299e+07
7.24574e+07
6.93949e+07
6.6462e+07
6.76251e+07
6.9561e+07
6.69891e+07
6.87978e+07
7.00407e+07
5.80851e+07
5.65423e+07
5.68203e+07
5.94755e+07
5.89722e+07
5.60468e+07
5.86081e+07
5.94904e+07
6.2204e+07
6.01217e+07
6.02018e+07
6.33793e+07
6.1662e+07
6.28528e+07
6.11421e+07
6.23056e+07
6.07131e+07
6.88211e+07
7.15197e+07
7.23869e+07
7.06424e+07
7.09144e+07
7.01253e+07
6.93615e+07
6.56037e+07
6.43108e+07
6.64375e+07
6.66086e+07
6.5602e+07
6.83832e+07
6.50055e+07
6.78809e+07
6.44683e+07
6.71886e+07
5.34734e+07
5.40742e+07
5.52052e+07
5.87996e+07
5.99199e+07
5.80491e+07
5.57904e+07
5.88117e+07
5.70197e+07
6.61351e+07
6.27939e+07
6.43502e+07
6.47239e+07
6.18538e+07
6.37522e+07
6.10387e+07
6.06739e+07
6.24863e+07
1.07823e+08
1.00153e+08
1.15825e+08
1.35704e+08
2.2348e+08
1.62941e+08
2.11231e+08
1.49773e+08
1.09564e+08
1.37757e+08
1.25726e+08
7.64226e+07
8.01994e+07
1.59143e+08
1.41152e+08
1.35349e+08
9.51559e+07
1.26399e+08
1.13934e+08
1.9008e+08
2.4167e+08
1.79135e+08
2.66642e+08
1.98542e+08
2.12181e+08
1.66439e+08
1.89099e+08
1.52138e+08
1.48855e+08
1.69104e+08
2.97873e+07
2.85359e+07
2.88529e+07
2.84166e+07
2.74793e+07
2.82538e+07
2.76406e+07
2.71441e+07
2.79592e+07
2.67507e+07
2.67876e+07
2.62554e+07
2.48694e+07
2.46574e+07
2.51836e+07
2.63861e+07
2.52973e+07
2.57327e+07
8.82106e+07
5.68996e+07
4.98685e+07
7.51059e+07
5.92623e+07
8.14231e+07
8.39412e+07
1.1596e+08
2.36716e+08
2.25352e+08
1.01568e+08
2.21572e+08
8.40673e+07
1.27357e+08
5.93245e+08
5.40251e+08
5.62399e+08
6.19504e+08
6.52161e+08
6.24459e+08
8.40013e+08
5.71063e+08
9.66675e+08
4.19656e+08
7.42365e+08
4.16691e+08
6.93411e+08
7.21202e+08
3.67825e+08
6.91099e+08
1.74027e+08
4.70134e+08
1.27764e+09
1.8483e+08
3.3934e+08
2.43916e+08
1.08139e+09
1.58974e+08
5.19861e+08
5.46991e+08
3.51541e+08
6.18125e+08
3.97721e+08
6.47144e+08
5.42715e+08
3.56715e+08
7.24898e+07
3.61355e+07
4.2317e+07
6.78627e+07
3.69035e+07
7.83352e+07
5.82773e+07
4.50621e+07
1.36219e+08
4.70297e+07
5.13839e+07
2.50047e+08
8.04596e+07
1.7234e+08
6.35933e+07
2.31687e+08
5.36749e+07
2.28336e+08
1.32608e+08
2.29691e+08
1.59363e+08
2.17452e+08
2.41027e+08
1.42496e+08
4.33249e+08
4.60336e+08
4.77414e+08
4.02809e+08
3.8583e+08
3.15905e+08
3.51135e+08
3.52373e+08
2.86554e+08
1.88599e+08
2.48244e+08
1.78779e+08
2.74009e+08
2.60126e+08
2.01012e+08
1.3825e+08
1.23344e+08
1.85786e+08
2.0002e+08
2.14425e+08
2.79188e+08
2.29187e+08
2.46561e+08
4.84548e+08
6.04496e+08
7.94503e+08
6.05149e+08
7.69629e+08
5.02441e+08
7.37599e+08
4.68662e+08
7.2696e+08
4.60691e+08
6.16671e+08
9.14825e+07
3.5274e+08
3.94607e+08
4.07103e+08
4.11185e+08
5.66474e+07
6.67861e+07
1.09213e+08
2.39818e+08
2.38097e+08
2.70475e+08
3.81012e+08
5.87344e+08
3.99277e+08
5.30386e+08
3.63368e+08
2.73975e+08
3.46401e+08
3.10353e+08
2.48669e+07
2.38267e+07
2.58445e+07
4.08748e+07
5.93259e+07
3.47444e+07
2.49133e+07
3.75677e+07
2.87747e+07
1.26717e+07
1.23876e+07
2.58881e+07
4.62067e+07
2.50853e+07
2.4612e+07
4.57607e+07
2.46452e+07
6.7899e+07
1.16554e+08
7.55154e+07
1.1131e+08
7.30119e+07
5.44695e+07
6.36744e+07
6.18414e+07
7.0888e+07
5.94388e+07
6.91211e+07
7.68261e+07
1.21957e+08
7.80443e+07
1.27512e+08
8.05987e+07
5.82445e+07
6.55082e+07
6.73281e+07
1.90492e+08
7.66021e+07
1.7579e+08
7.28096e+07
1.84286e+08
1.81654e+08
7.41829e+07
2.35501e+08
2.20334e+08
2.25325e+08
2.3017e+08
2.46732e+08
2.51793e+08
2.56559e+08
2.42312e+08
1.71266e+08
7.14399e+07
1.69727e+08
7.12947e+07
1.7786e+08
1.63512e+08
6.96483e+07
1.91461e+07
1.71606e+07
2.70517e+07
4.73458e+07
2.85198e+07
3.21396e+07
4.76531e+07
3.02266e+07
8.22212e+07
6.66433e+07
8.11683e+07
1.00032e+08
1.67674e+08
9.77762e+07
1.73077e+08
9.99126e+07
6.60356e+07
7.87051e+07
7.99952e+07
7.26006e+07
6.27164e+07
7.42461e+07
9.19065e+07
1.62083e+08
9.55153e+07
1.56375e+08
9.31668e+07
6.36708e+07
7.7303e+07
7.58153e+07
1.18611e+08
5.4411e+07
1.19918e+08
5.59985e+07
1.14141e+08
1.24796e+08
5.39248e+07
2.03654e+08
2.07822e+08
2.13859e+08
1.97942e+08
1.92335e+08
1.75806e+08
1.8239e+08
1.85489e+08
1.37692e+08
6.10063e+07
1.25865e+08
5.8068e+07
1.3197e+08
1.31166e+08
6.01207e+07
7.99066e+07
7.87352e+07
8.07435e+07
8.52369e+07
8.39231e+07
8.34841e+07
7.94583e+07
8.18882e+07
8.14452e+07
8.41504e+07
8.21266e+07
7.52839e+07
7.21006e+07
6.69249e+07
7.01388e+07
4.05706e+07
4.28275e+07
4.66423e+07
4.41731e+07
4.35417e+07
4.23332e+07
4.19201e+07
4.41639e+07
4.18252e+07
4.36124e+07
4.40711e+07
4.53459e+07
4.72201e+07
4.77778e+07
4.59523e+07
4.7218e+07
4.53797e+07
4.58872e+07
5.21026e+07
5.45348e+07
5.47518e+07
5.3208e+07
5.27023e+07
5.40497e+07
5.25662e+07
4.98891e+07
4.84454e+07
5.02786e+07
5.01857e+07
4.8793e+07
5.12183e+07
4.8771e+07
5.07298e+07
4.83262e+07
5.06437e+07
4.3122e+07
4.19e+07
4.17573e+07
4.38782e+07
4.15124e+07
4.34214e+07
4.35243e+07
4.47034e+07
4.66721e+07
4.49572e+07
4.47995e+07
4.69457e+07
4.56162e+07
4.69636e+07
4.51402e+07
4.65352e+07
4.5213e+07
3.07921e+07
3.1497e+07
3.18325e+07
3.33196e+07
3.43961e+07
3.32277e+07
3.25862e+07
3.40972e+07
3.29484e+07
3.70511e+07
3.56371e+07
3.69141e+07
3.92298e+07
3.74013e+07
3.78887e+07
3.53186e+07
3.61252e+07
3.65659e+07
5.17246e+07
4.91117e+07
5.00432e+07
4.94871e+07
4.73723e+07
4.90488e+07
4.7502e+07
4.67343e+07
4.83489e+07
4.44242e+07
4.57116e+07
4.41276e+07
4.06431e+07
4.14614e+07
4.20744e+07
4.51224e+07
4.29122e+07
4.35909e+07
1.97424e+08
5.851e+07
1.04125e+09
7.61031e+08
5.1662e+08
6.18162e+08
5.45338e+08
5.96849e+08
4.51599e+08
3.77469e+08
2.93074e+08
3.4178e+08
4.87041e+08
5.67764e+08
7.83728e+08
6.85826e+08
4.43331e+08
3.96166e+08
3.46107e+08
3.71292e+08
3.13349e+08
3.16679e+08
3.15609e+08
3.15781e+08
3.11014e+08
3.04096e+08
2.88351e+08
2.98407e+08
3.74683e+08
3.74207e+08
3.66319e+08
3.69798e+08
3.76313e+08
3.73682e+08
3.6689e+08
3.72363e+08
1.89298e+08
1.75454e+08
1.94912e+08
2.1073e+08
2.32704e+08
3.04128e+08
2.26689e+08
3.01492e+08
1.81492e+08
2.0691e+08
2.00763e+08
8.40539e+07
9.2586e+07
1.98787e+08
1.92117e+08
1.76423e+08
1.38565e+08
1.81949e+08
1.56238e+08
2.27721e+08
2.3947e+08
3.08608e+08
2.47299e+08
3.16115e+08
2.39466e+08
2.09935e+08
2.29595e+08
2.13624e+08
2.01718e+08
2.2098e+08
5.96802e+08
5.1431e+08
5.71647e+08
5.34836e+08
7.04534e+08
7.9733e+08
8.09717e+08
7.1184e+08
7.45684e+08
4.3885e+08
3.86838e+08
6.41795e+08
4.31935e+08
6.59408e+08
7.36444e+08
4.99893e+08
3.04596e+08
3.48989e+08
5.57124e+08
3.18081e+08
5.7779e+08
4.81216e+08
3.16293e+08
1.8999e+08
2.0332e+08
3.08045e+08
1.95198e+08
3.0606e+08
3.18664e+08
4.52227e+08
4.52254e+08
4.20809e+08
4.87786e+08
4.24834e+08
3.67494e+08
4.0753e+08
3.82645e+08
3.31211e+08
2.13619e+08
2.12596e+08
3.12065e+08
2.23398e+08
3.19433e+08
3.23197e+08
1.83127e+08
1.60895e+08
2.23991e+08
2.27741e+08
2.51054e+08
3.13318e+08
2.43857e+08
2.8181e+08
5.14051e+08
4.06673e+08
4.39893e+08
4.93592e+08
3.983e+08
6.18912e+08
4.56475e+08
7.20013e+08
3.4562e+08
3.42879e+08
3.83336e+08
2.51977e+08
2.42843e+08
2.66673e+08
3.24216e+08
3.56514e+08
5.38117e+08
3.26142e+08
4.66906e+08
2.60386e+08
3.09102e+08
2.8625e+08
1.01523e+08
8.08127e+07
9.67017e+07
1.08599e+08
2.01942e+08
1.15387e+08
2.00245e+08
1.1746e+08
7.68725e+07
9.05821e+07
9.3132e+07
5.87011e+07
5.66568e+07
4.68381e+07
5.16111e+07
4.56e+07
4.22637e+07
5.30115e+07
4.40275e+07
1.09573e+08
2.03643e+08
1.14059e+08
2.05064e+08
1.13234e+08
8.65077e+07
6.9414e+07
8.69625e+07
8.883e+07
7.03505e+07
8.76839e+07
3.2701e+08
3.18012e+08
3.18301e+08
3.27049e+08
3.25932e+08
3.16893e+08
3.23441e+08
3.1916e+08
2.16161e+08
8.18927e+07
2.09528e+08
7.89435e+07
2.19806e+08
2.06051e+08
7.85706e+07
2.25098e+08
8.27243e+07
2.12396e+08
7.91751e+07
2.22795e+08
2.14624e+08
7.93203e+07
2.19118e+08
8.93821e+07
2.11235e+08
8.7435e+07
2.08994e+08
2.21422e+08
9.19591e+07
3.22808e+08
3.13329e+08
3.10378e+08
3.25193e+08
3.18149e+08
2.96549e+08
3.13816e+08
3.01936e+08
2.25548e+08
8.3242e+07
2.13397e+08
8.4244e+07
2.15189e+08
2.23667e+08
8.21161e+07
4.21079e+07
4.47397e+07
4.76283e+07
4.95441e+07
4.79863e+07
4.74061e+07
4.92877e+07
4.78973e+07
8.31395e+07
6.78584e+07
8.39169e+07
1.09636e+08
1.98979e+08
1.09346e+08
1.9572e+08
1.08244e+08
6.80685e+07
8.50614e+07
8.45523e+07
8.62119e+07
6.83872e+07
8.59784e+07
1.11866e+08
2.01697e+08
1.10254e+08
2.03832e+08
1.10968e+08
6.83216e+07
8.54554e+07
8.57465e+07
1.83808e+08
1.58405e+08
1.78402e+08
1.94767e+08
1.95631e+08
2.90731e+08
2.00709e+08
2.93419e+08
1.52912e+08
1.67679e+08
1.73032e+08
4.2346e+07
4.01615e+07
6.13591e+07
1.01182e+08
6.29568e+07
6.67801e+07
1.06249e+08
6.47064e+07
1.83974e+08
1.90478e+08
2.87421e+08
1.8523e+08
2.83452e+08
1.46254e+08
1.31495e+08
1.51614e+08
1.62331e+08
1.36783e+08
1.56976e+08
3.85574e+08
3.80346e+08
3.76147e+08
3.9023e+08
3.80545e+08
3.67375e+08
3.73886e+08
3.73614e+08
2.54269e+08
1.16848e+08
1.19161e+08
2.51119e+08
1.14657e+08
2.6235e+08
2.43079e+08
2.77194e+08
1.30771e+08
1.23658e+08
2.58774e+08
1.28152e+08
2.70006e+08
2.65999e+08
3.1189e+08
1.65425e+08
1.6009e+08
2.9975e+08
1.65012e+08
3.01804e+08
3.09985e+08
3.9528e+08
3.79484e+08
3.81464e+08
3.92742e+08
3.9525e+08
3.76977e+08
3.95845e+08
3.77176e+08
3.04102e+08
1.52753e+08
1.55344e+08
2.97004e+08
1.5071e+08
2.93525e+08
3.07407e+08
3.12838e+07
3.24398e+07
5.97782e+07
8.70741e+07
5.8122e+07
5.44439e+07
8.26988e+07
5.63591e+07
1.04447e+08
9.17702e+07
1.09453e+08
1.44375e+08
1.46234e+08
2.39704e+08
1.40493e+08
2.31735e+08
9.64129e+07
1.19719e+08
1.1455e+08
1.40897e+08
1.15999e+08
1.35553e+08
1.60756e+08
1.51967e+08
2.47344e+08
1.57676e+08
2.54616e+08
1.1097e+08
1.24948e+08
1.30234e+08
2.1803e+08
2.29423e+08
2.5107e+08
2.40345e+08
2.0691e+08
1.95259e+08
1.72743e+08
1.84282e+08
2.41797e+08
2.54725e+08
2.7986e+08
2.67432e+08
2.29087e+08
2.16064e+08
1.90849e+08
2.03653e+08
2.02051e+07
2.04839e+07
2.08163e+07
3.71938e+07
1.87838e+07
1.60143e+07
3.56517e+07
1.71531e+07
6.07474e+07
6.71762e+07
1.10083e+08
6.39591e+07
1.03882e+08
4.24365e+07
5.34852e+07
5.10213e+07
6.568e+07
5.11593e+07
6.22912e+07
7.30996e+07
7.06553e+07
1.16675e+08
7.44189e+07
1.23675e+08
4.8637e+07
5.61797e+07
5.91188e+07
2.09773e+08
9.33556e+07
8.80789e+07
1.90224e+08
9.23966e+07
2.00476e+08
1.99288e+08
2.55452e+08
2.41709e+08
2.53276e+08
2.4337e+08
2.6862e+08
2.78695e+08
2.80646e+08
2.67212e+08
1.81909e+08
7.98278e+07
8.38313e+07
1.81191e+08
7.96618e+07
1.91173e+08
1.72226e+08
2.34136e+07
2.27985e+07
2.31598e+07
4.29945e+07
2.57119e+07
3.1227e+07
4.53195e+07
2.84242e+07
9.95449e+07
7.86408e+07
9.47636e+07
1.1545e+08
1.07015e+08
1.80386e+08
1.12373e+08
1.89093e+08
7.4559e+07
8.56016e+07
9.0109e+07
6.9278e+07
6.0002e+07
7.30789e+07
9.84548e+07
1.01797e+08
1.71745e+08
9.67388e+07
1.63213e+08
6.33605e+07
8.12568e+07
7.70756e+07
1.15237e+08
4.98639e+07
5.4197e+07
1.15414e+08
5.12242e+07
1.0861e+08
1.22479e+08
2.18362e+08
2.27554e+08
2.16202e+08
2.3019e+08
2.05511e+08
1.91288e+08
1.94189e+08
2.02217e+08
1.38051e+08
5.97266e+07
5.73371e+07
1.2259e+08
6.0669e+07
1.30148e+08
1.30082e+08
8.94088e+07
9.21789e+07
9.10652e+07
9.21589e+07
9.09193e+07
9.05321e+07
9.06542e+07
3.01031e+07
3.05333e+07
3.00031e+07
3.06163e+07
3.05391e+07
3.02466e+07
2.99591e+07
9.31204e+07
9.4949e+07
9.3431e+07
9.33221e+07
9.21677e+07
9.43308e+07
9.4398e+07
3.19597e+07
3.22829e+07
3.13242e+07
3.10189e+07
3.10919e+07
3.1869e+07
3.22916e+07
5.96857e+07
6.09529e+07
5.75723e+07
5.83774e+07
6.00379e+07
5.73786e+07
6.07091e+07
5.29581e+07
5.38077e+07
5.5364e+07
5.61068e+07
5.51408e+07
5.30387e+07
5.38991e+07
7.91005e+07
8.08155e+07
7.74864e+07
7.78951e+07
8.00677e+07
7.67159e+07
8.02972e+07
4.39822e+07
4.16634e+07
4.50741e+07
4.72243e+07
5.0643e+07
4.77998e+07
3.94534e+07
3.81936e+07
3.86954e+07
3.96411e+07
4.04716e+07
3.80052e+07
3.97545e+07
3.88776e+07
7.18299e+07
7.30994e+07
7.50983e+07
7.5452e+07
7.42899e+07
7.24422e+07
7.29725e+07
8.39754e+07
9.01025e+07
1.09905e+08
6.62201e+07
7.61921e+07
6.63773e+07
8.96452e+07
4.31266e+07
4.39477e+07
4.12434e+07
4.2152e+07
4.13932e+07
4.30696e+07
4.39132e+07
8.7659e+07
8.95059e+07
8.67662e+07
8.69552e+07
8.88579e+07
8.57258e+07
8.89028e+07
3.04181e+07
3.00191e+07
3.12319e+07
2.99589e+07
3.09324e+07
3.06932e+07
2.9755e+07
9.37487e+07
9.54626e+07
9.50493e+07
9.52668e+07
9.48505e+07
9.39738e+07
9.50247e+07
3.2944e+07
3.32408e+07
3.39545e+07
3.46175e+07
3.2772e+07
3.40997e+07
3.33972e+07
6.20446e+07
6.30984e+07
6.49444e+07
6.55275e+07
6.2364e+07
6.44516e+07
6.30968e+07
9.34405e+08
8.10618e+08
1.19199e+09
5.14564e+08
1.80907e+09
6.65816e+08
6.49079e+08
9.70342e+08
6.36833e+08
4.49661e+08
3.60994e+08