/*--------------------------------*- C++ -*----------------------------------*\
| =========                 |                                                 |
| \\      /  F ield         | OpenFOAM: The Open Source CFD Toolbox           |
|  \\    /   O peration     | Version:  2012                                  |
|   \\  /    A nd           | Website:  www.openfoam.com                      |
|    \\/     M anipulation  |                                                 |
\*---------------------------------------------------------------------------*/
FoamFile
{
    version     2.0;
    format      ascii;
    class       volScalarField;
    location    "0.108/solid";
    object      sigmaMax;
}
// * * * * * * * * * * * * * * * * * * * * * * * * * * * * * * * * * * * * * //

dimensions      [1 -1 -2 0 0 0 0];


internalField   nonuniform List<scalar> 
3125
(
1.65742e+08
5.14888e+07
1.75496e+08
1.68191e+08
1.70608e+08
5.45616e+07
5.35316e+07
5.09451e+07
1.03612e+08
8.55801e+07
1.02722e+08
1.46208e+08
1.07909e+08
9.91223e+07
9.93177e+07
6.94135e+08
1.37644e+08
1.537e+08
1.15989e+08
3.66466e+07
1.11613e+08
3.30409e+07
1.43869e+08
1.39443e+08
1.22977e+08
5.15167e+07
5.1058e+07
4.14083e+07
1.45933e+08
1.46284e+08
6.98585e+07
7.09004e+07
5.32893e+07
6.85308e+07
1.4078e+08
1.20671e+08
1.34759e+08
9.51764e+07
1.19479e+08
9.38977e+07
1.17323e+08
7.31797e+07
6.50224e+07
5.12948e+07
4.15109e+07
5.14924e+07
1.45967e+08
-2.3344e+06
9.56376e+07
4.20277e+07
6.79022e+07
1.07593e+08
9.0495e+07
-7.68586e+07
6.50186e+07
4.12411e+07
7.8918e+07
7.44291e+07
1.14118e+08
6.02517e+07
1.08171e+08
8.31236e+07
1.01769e+08
5.76907e+07
1.42755e+08
1.36626e+08
7.62307e+07
7.40668e+07
9.18599e+07
7.11282e+07
5.30492e+07
6.80185e+07
9.06956e+07
7.05518e+07
1.00807e+08
2.12108e+08
3.51218e+08
4.92614e+08
1.89078e+08
9.36446e+07
2.70849e+08
1.70327e+08
6.43166e+08
2.38173e+08
7.83485e+07
1.11734e+08
1.59048e+08
7.5614e+07
7.49774e+07
6.69404e+07
1.5352e+08
7.36133e+07
1.10664e+08
1.13891e+08
9.13748e+07
4.97824e+07
5.43656e+07
3.72678e+07
5.25561e+07
8.71018e+07
6.38083e+07
5.55881e+07
3.18897e+07
4.63626e+07
2.64328e+07
3.5695e+07
2.60966e+07
2.74565e+07
3.07329e+07
2.65515e+07
2.47067e+07
2.66088e+07
1.56583e+08
1.5618e+08
1.47896e+08
5.21465e+07
4.71125e+07
4.73122e+07
1.77846e+08
1.71636e+08
1.58713e+08
1.62173e+08
1.63741e+08
5.9002e+07
6.00829e+07
5.40219e+07
6.03954e+07
1.16527e+08
1.00768e+08
1.12639e+08
7.31721e+07
4.2729e+07
-2.43542e+07
2.46516e+08
3.61125e+07
9.72937e+07
6.56601e+07
8.73573e+07
9.5246e+07
9.96517e+07
-3.19643e+08
-1.35836e+08
5.43736e+07
7.64777e+07
1.36782e+08
7.1361e+07
9.95752e+07
9.05926e+07
7.69089e+07
4.75501e+07
1.1719e+08
9.0882e+07
8.77565e+07
9.69835e+07
8.62249e+07
5.29693e+07
1.09267e+08
5.4552e+08
5.681e+08
3.30729e+08
1.06649e+08
1.7093e+08
1.39687e+08
7.02328e+08
4.24467e+08
8.09035e+07
9.77225e+07
1.58693e+08
7.78346e+07
7.98772e+07
8.49478e+07
1.30944e+08
7.92746e+07
1.01913e+08
1.06547e+08
3.84676e+07
5.71201e+06
4.12088e+07
3.46892e+07
4.09616e+07
9.74816e+07
9.15457e+07
7.6352e+07
-2.38567e+07
-2.61641e+07
1.10368e+07
3.30321e+07
3.0175e+07
2.86713e+07
-2.2289e+07
-1.58564e+07
2.29304e+07
2.10945e+07
1.5296e+08
1.36015e+08
1.44454e+08
1.52141e+08
1.33001e+08
1.44433e+08
1.32864e+08
1.30112e+08
1.4111e+08
5.20996e+07
4.68234e+07
4.72811e+07
4.55471e+07
4.41778e+07
4.61448e+07
4.55076e+07
4.29742e+07
4.61495e+07
1.62117e+08
1.55064e+08
1.49576e+08
1.58752e+08
1.49905e+08
1.58861e+08
1.55474e+08
6.4112e+07
6.26707e+07
7.06341e+07
6.27688e+07
5.39352e+07
5.92016e+07
6.01785e+07
7.01546e+07
6.13979e+07
6.24956e+07
1.27716e+08
1.3318e+08
1.20894e+08
1.3016e+08
1.10117e+08
1.18345e+08
1.2121e+08
1.28989e+08
1.16712e+08
9.92428e+07
1.05398e+08
1.10626e+08
1.2628e+08
1.08959e+08
1.14523e+08
8.70955e+07
1.0376e+08
9.56487e+07
1.07308e+08
1.07188e+08
9.85481e+07
6.4784e+07
6.42302e+07
4.38923e+07
-1.75664e+07
2.98685e+07
6.32602e+07
1.92168e+06
3.50337e+07
4.89638e+07
4.66439e+07
4.44869e+07
4.52999e+07
3.9709e+07
4.31535e+07
5.70424e+07
4.83349e+07
4.12634e+07
9.5576e+06
1.3154e+08
1.0542e+08
1.17504e+07
8.62221e+07
5.6233e+07
1.02809e+08
1.47844e+08
1.19418e+08
1.1414e+08
9.78411e+07
4.78653e+07
1.76772e+07
3.16811e+07
8.17538e+07
7.42274e+07
9.16384e+07
9.96968e+07
1.2264e+08
1.04345e+08
7.74359e+07
1.10427e+08
9.58996e+07
-3.72033e+07
-1.00691e+08
-1.98742e+08
3.89205e+07
4.91714e+07
-1.00455e+08
2.91361e+07
-1.26836e+07
7.93217e+07
-6.00055e+07
3.87917e+07
2.20168e+07
3.85327e+07
7.13138e+07
5.86019e+07
6.18021e+07
5.56668e+07
7.19659e+07
6.60698e+07
5.97504e+07
7.57485e+07
6.94011e+07
7.06029e+07
1.2592e+08
6.17823e+07
6.9054e+07
6.7335e+07
6.11525e+07
6.84372e+07
7.54377e+07
8.70722e+07
9.8825e+07
9.87332e+07
9.03684e+07
7.5921e+07
9.50779e+07
8.70201e+07
4.69379e+07
4.72521e+07
8.92663e+07
5.89233e+07
5.0589e+07
4.96538e+07
5.8455e+07
5.01318e+07
1.2945e+08
1.46309e+08
1.33112e+08
1.46665e+08
1.33514e+08
1.26827e+08
8.32434e+07
8.39947e+07
7.35019e+07
8.2863e+07
9.5612e+07
8.24583e+07
8.52487e+07
7.29375e+07
7.94558e+07
8.20028e+07
5.06106e+07
5.88754e+07
5.60296e+07
6.10331e+07
6.43353e+07
5.79922e+07
8.43529e+07
8.15755e+07
7.63429e+07
7.86586e+07
6.65846e+07
7.38014e+07
7.97148e+07
1.36762e+08
1.2669e+08
2.19267e+08
1.32718e+08
1.51814e+08
2.17601e+08
1.45933e+08
4.41059e+08
2.34944e+08
3.23892e+08
5.86523e+08
3.08029e+08
3.18578e+08
2.24434e+08
2.75567e+08
3.16935e+08
1.04289e+08
1.18094e+08
1.35743e+08
2.15366e+08
2.10132e+08
1.5454e+08
1.28344e+08
2.01676e+08
1.4928e+08
2.53365e+08
3.7779e+08
7.07241e+08
4.08985e+08
4.15131e+08
2.46589e+08
3.59483e+08
3.66157e+08
7.03464e+07
9.55982e+07
8.47956e+07
1.07346e+08
1.01381e+08
1.00708e+08
9.96666e+07
8.91445e+07
1.60652e+08
7.93256e+07
8.00423e+07
7.69903e+07
7.73681e+07
7.89767e+07
7.78677e+07
7.72766e+07
7.90386e+07
7.96601e+07
6.76739e+07
7.59292e+07
1.43959e+08
7.87928e+07
7.88594e+07
6.89305e+07
7.71309e+07
7.58548e+07
1.07941e+08
1.07321e+08
1.00977e+08
1.15487e+08
1.04768e+08
1.0198e+08
1.1605e+08
1.04996e+08
6.72747e+07
6.90085e+07
3.8052e+07
-1.8015e+07
-2.09494e+06
6.32267e+07
1.45161e+07
3.06909e+07
4.69892e+07
5.27193e+07
4.34712e+07
3.46423e+07
4.27666e+07
4.07378e+07
5.22966e+07
4.4912e+07
4.32234e+07
9.57315e+07
7.09759e+07
7.52812e+07
7.59279e+07
5.65577e+07
7.04483e+07
6.6565e+07
5.60442e+07
6.9634e+07
-2.12123e+07
-2.59261e+07
1.79719e+06
3.64828e+07
2.68516e+06
1.08311e+07
3.84808e+07
3.86598e+06
-1.57061e+06
7.89585e+06
2.69103e+07
2.09246e+07
1.31889e+07
2.66326e+07
1.89665e+07
3.29898e+07
3.16258e+07
2.88428e+07
2.79022e+07
2.44641e+07
2.75651e+07
3.0455e+07
2.48867e+07
2.7738e+07
-4.64131e+06
-1.32664e+07
2.22446e+06
2.81883e+07
5.08543e+06
1.13547e+07
2.75984e+07
6.44389e+06
2.40198e+07
2.18109e+07
2.36643e+07
2.37316e+07
2.15297e+07
2.4538e+07
2.41596e+07
2.2254e+07
7.33682e+07
6.67938e+07
5.85471e+07
-1.74807e+08
8.14314e+07
7.76949e+07
-2.87591e+06
4.25973e+06
4.64916e+08
3.78621e+08
7.94035e+07
8.48461e+07
8.49332e+07
8.82022e+07
-8.67785e+06
-1.34601e+07
-2.45104e+07
-2.55588e+07
-2.33117e+07
-2.20608e+07
1.46712e+08
1.41599e+08
1.44324e+08
1.26313e+08
1.25121e+08
1.28627e+08
5.17704e+07
4.98615e+07
5.00845e+07
4.32243e+07
4.12709e+07
4.37977e+07
1.48779e+08
1.47511e+08
1.5044e+08
5.35531e+07
5.51499e+07
5.54529e+07
6.90964e+07
6.60719e+07
6.65648e+07
1.37437e+08
1.3856e+08
1.35289e+08
1.23875e+08
1.18167e+08
1.21222e+08
9.64338e+07
9.84983e+07
9.98971e+07
1.21564e+08
1.16049e+08
1.17967e+08
9.25037e+07
9.71043e+07
9.55817e+07
1.14969e+08
1.14008e+08
1.11793e+08
7.41363e+07
6.9029e+07
1.21389e+08
1.01009e+08
6.73705e+07
1.97231e+07
2.89171e+07
2.73277e+07
6.33719e+07
2.68806e+07
3.08976e+07
3.39191e+07
5.10351e+07
4.96553e+07
4.94115e+07
4.29256e+07
4.14809e+07
4.26662e+07
-3.01032e+08
-6.98663e+06
7.74298e+07
-2.39162e+08
-2.85248e+08
4.22565e+07
-1.32456e+08
2.5415e+07
3.94623e+07
1.05188e+08
1.02698e+08
3.34802e+07
3.64495e+07
1.0905e+08
4.39509e+07
3.70659e+07
3.50171e+07
1.11968e+08
7.21273e+07
6.9452e+07
1.26346e+08
1.07519e+08
7.44558e+07
1.30867e+08
4.23093e+07
4.20436e+07
8.54632e+07
9.80761e+07
4.52508e+07
3.61671e+07
9.35519e+07
9.84212e+06
-800456
-1.64028e+08
7.53757e+07
-2.99608e+08
-3.88734e+08
-1.64239e+08
-3.72763e+08
2.35472e+07
1.70996e+07
7.01851e+07
1.92639e+07
1.06197e+07
4.07727e+07
3.82982e+07
3.90937e+07
4.95671e+07
4.59265e+07
1.31958e+08
8.348e+07
7.46635e+07
1.23862e+08
7.872e+07
1.93741e+08
7.08697e+07
1.92988e+08
7.29921e+07
1.86842e+08
2.00068e+08
6.95833e+07
1.55844e+08
1.42295e+08
6.27249e+07
5.78552e+07
1.50276e+08
1.4754e+08
6.01629e+07
5.34535e+07
5.75347e+07
1.16128e+08
1.90547e+08
1.05331e+08
1.84406e+08
1.1295e+08
1.39999e+08
8.81757e+07
8.72421e+07
1.47971e+08
9.27788e+07
1.30712e+08
1.34215e+08
5.50526e+07
5.54522e+07
1.26099e+08
1.39133e+08
5.29751e+07
1.39347e+08
1.44283e+08
1.40815e+08
9.30531e+07
8.86827e+07
8.97509e+07
7.17352e+07
7.37909e+07
7.44855e+07
5.27719e+07
5.48837e+07
5.45796e+07
6.56112e+07
6.74533e+07
6.5106e+07
8.94213e+07
8.7611e+07
8.6447e+07
7.31447e+07
6.99205e+07
7.24373e+07
1.14463e+08
1.11427e+08
1.49358e+08
1.28899e+08
1.68668e+08
8.53565e+07
6.67003e+07
3.4975e+08
1.88574e+08
2.57543e+08
2.29193e+08
3.08276e+08
9.25218e+08
5.05721e+08
3.79399e+08
9.57373e+08
4.15005e+08
9.19086e+08
9.52664e+08
4.76172e+08
3.91891e+08
1.96633e+08
2.14045e+08
2.20847e+08
4.11712e+08
4.52753e+08
1.79601e+08
9.66279e+07
1.0091e+08
1.53049e+08
1.04412e+08
1.70821e+08
1.61127e+08
3.17571e+08
3.43082e+08
1.53765e+08
1.77177e+08
1.60418e+08
3.02365e+08
3.60536e+08
1.06181e+08
1.29446e+08
7.16716e+08
5.23777e+08
9.76098e+08
6.22442e+08
9.40954e+08
3.98719e+08
2.88469e+08
2.72745e+08
3.26934e+08
4.58197e+08
8.11811e+07
1.39602e+08
8.41049e+07
1.55569e+08
8.83139e+07
1.00124e+08
9.95379e+07
2.0827e+08
1.08817e+08
1.20037e+08
2.04074e+08
1.16754e+08
2.10849e+08
7.19158e+07
1.98556e+08
7.65126e+07
2.05819e+08
2.03456e+08
7.2697e+07
2.21887e+08
2.13308e+08
7.1499e+07
7.60757e+07
2.20488e+08
2.14535e+08
7.23257e+07
1.63926e+08
7.02833e+07
1.43573e+08
6.65964e+07
1.4827e+08
1.58928e+08
6.89621e+07
2.13214e+08
2.10664e+08
7.20646e+07
7.05457e+07
2.06492e+08
2.17648e+08
6.95821e+07
9.99406e+07
9.9209e+07
1.1891e+08
1.96107e+08
1.12744e+08
2.01012e+08
1.21234e+08
2.1092e+08
1.22455e+08
1.15294e+08
2.12129e+08
1.24037e+08
1.01542e+08
1.32137e+08
8.29924e+07
9.00028e+07
1.16801e+08
-2.71718e+07
-2.61825e+07
5.62718e+07
5.3688e+07
4.4564e+07
4.97626e+07
6.32272e+07
4.40626e+07
3.6201e+07
3.89568e+07
3.90271e+07
3.79232e+07
4.06224e+07
4.22498e+07
6.05784e+07
6.09473e+07
5.22667e+07
4.97813e+07
4.92942e+07
6.57951e+07
5.59755e+07
1.30143e+08
8.95853e+07
1.37228e+08
8.11886e+07
1.44728e+08
8.32199e+07
1.23142e+08
7.87025e+07
6.6716e+07
5.89101e+07
5.5536e+07
5.91246e+07
7.33641e+07
7.18024e+07
-2.7731e+07
-2.8033e+07
2.48304e+07
3.32127e+07
3.01483e+07
2.57133e+07
3.12554e+07
5.0336e+07
4.01202e+07
4.33769e+07
3.63626e+07
4.53172e+07
-5.90115e+06
-2.96634e+06
3.43678e+07
2.73488e+07
2.63994e+07
2.83466e+07
3.57405e+07
3.96679e+07
3.46166e+07
3.4236e+07
3.78152e+07
3.31548e+07
4.08017e+07
3.69339e+07
3.78655e+07
3.67088e+07
2.83688e+07
2.6604e+07
2.74688e+07
3.62958e+07
3.80807e+07
-8.9548e+06
-1.21158e+07
2.42566e+07
2.9746e+07
2.94837e+07
2.39578e+07
2.92036e+07
3.3104e+07
2.64451e+07
2.67914e+07
2.56414e+07
3.19778e+07
3.8813e+07
3.72496e+07
2.58368e+07
2.58031e+07
2.50625e+07
3.78877e+07
3.83964e+07
1.57426e+08
1.5931e+08
1.57143e+08
1.54029e+08
1.60049e+08
1.54569e+08
1.56684e+08
1.54405e+08
1.48397e+08
1.51113e+08
1.50358e+08
1.51637e+08
1.51073e+08
1.53684e+08
5.01449e+07
5.19251e+07
5.21469e+07
5.04e+07
5.1942e+07
5.03457e+07
5.01962e+07
4.83456e+07
4.70112e+07
4.87958e+07
4.7179e+07
4.86541e+07
4.6782e+07
4.85437e+07
1.71902e+08
1.73841e+08
1.75189e+08
1.74934e+08
1.6392e+08
1.6149e+08
1.59275e+08
1.60395e+08
1.62223e+08
1.60966e+08
1.63196e+08
1.65077e+08
1.62774e+08
1.64904e+08
1.61568e+08
1.6561e+08
1.62161e+08
1.64355e+08
1.6988e+08
1.66594e+08
1.59425e+08
1.63764e+08
5.32076e+07
5.56945e+07
6.04099e+07
5.74979e+07
5.59533e+07
5.38288e+07
5.40603e+07
5.60205e+07
5.39092e+07
5.60841e+07
5.5843e+07
5.81445e+07
6.04966e+07
6.02766e+07
5.81466e+07
6.04401e+07
5.82322e+07
5.79975e+07
5.15133e+07
4.95865e+07
4.68717e+07
4.77761e+07
1.06013e+08
1.01581e+08
1.01042e+08
1.04647e+08
1.01996e+08
1.04942e+08
1.05583e+08
1.10141e+08
1.12976e+08
1.13832e+08
1.08611e+08
1.14323e+08
1.08924e+08
1.09669e+08
8.28316e+07
6.42812e+07
7.44233e+07
5.28317e+07
5.99213e+07
5.41485e+07
5.57904e+07
6.55495e+07
-1.10586e+09
8.50662e+07
2.3892e+08
5.23573e+07
-2.76311e+08
3.57947e+07
8.19066e+07
1.46005e+08
2.00843e+07
-5.58421e+08
8.36797e+07
1.48723e+08
1.59962e+08
1.38004e+08
1.72971e+08
1.14095e+08
8.40327e+07
1.04113e+08
8.70075e+07
-4.24981e+07
-6.50878e+07
-2.77767e+08
-2.34152e+08
-2.17292e+08
-1.13545e+08
-1.6936e+08
-1.5269e+08
3.88075e+07
3.69912e+07
5.62049e+07
5.01707e+07
5.16746e+07
2.78474e+08
2.81704e+08
2.86952e+08
2.73289e+08
2.67901e+08
2.53223e+08
2.63095e+08
2.57998e+08
6.98785e+07
7.37683e+07
1.21514e+08
9.68838e+07
1.15928e+08
1.04142e+08
9.38623e+07
1.10065e+08
1.3693e+08
1.44779e+08
1.33448e+08
1.482e+08
1.04429e+08
1.09822e+08
1.1904e+08
1.13413e+08
1.0107e+08
9.59762e+07
8.80391e+07
9.28141e+07
9.4262e+07
9.76872e+07
9.72464e+07
9.32938e+07
9.80707e+07
9.35386e+07
9.38896e+07
9.05449e+07
8.64377e+07
8.66335e+07
8.97043e+07
8.69618e+07
8.99332e+07
9.02058e+07
-2.61987e+09
5.94348e+08
9.05687e+08
1.5314e+08
1.32754e+08
8.08748e+07
9.32085e+07
1.06111e+09
9.38796e+08
9.62067e+08
9.67998e+08
1.718e+08
1.9355e+08
2.55302e+08
2.25203e+08
2.96085e+08
3.02933e+08
3.12454e+08
3.08268e+08
1.8669e+08
2.07104e+08
2.50376e+08
2.33499e+08
3.50191e+07
3.66269e+07
4.1777e+07
3.95448e+07
1.48297e+08
1.32699e+08
1.03751e+08
1.15047e+08
-7.54235e+06
6.95144e+07
1.22948e+07
2.33502e+07
1.2926e+07
8.82159e+07
6.33605e+07
3.59915e+07
9.82231e+08
1.10864e+09
9.33337e+08
1.13342e+09
1.0367e+09
9.55812e+08
9.61198e+08
1.01485e+09
2.32723e+08
1.78985e+08
2.02647e+08
2.07277e+08
2.65318e+08
2.62173e+08
2.31071e+08
2.98372e+08
2.22188e+08
2.68333e+08
6.82047e+08
5.65487e+08
5.89714e+08
4.94388e+08
4.78503e+08
5.55633e+08
9.14738e+07
8.75352e+07
1.01053e+08
9.32907e+07
8.9441e+07
9.31229e+07
1.202e+08
1.10971e+08
3.02164e+08
2.89928e+08
2.95629e+08
2.96384e+08
3.08292e+08
3.05955e+08
3.02016e+08
3.12356e+08
2.22799e+08
1.89817e+08
2.01978e+08
2.1018e+08
2.45456e+08
2.50291e+08
2.33968e+08
2.61631e+08
9.38632e+07
9.11551e+07
1.26701e+08
1.03857e+08
1.31442e+08
1.39078e+08
1.05402e+08
1.35582e+08
-2.30077e+07
2.58502e+07
-3.3983e+07
-2.04332e+07
-1.72976e+07
1.49815e+07
-4.6604e+07
-4.1407e+07
5.12621e+07
4.34392e+07
4.55638e+07
4.86585e+07
5.38879e+07
5.11679e+07
4.81278e+07
5.74958e+07
1.633e+08
1.58528e+08
1.40635e+08
1.82875e+08
1.44888e+08
1.12124e+08
1.2571e+08
1.29881e+08
-2.71683e+07
-2.64299e+07
-4.86395e+07
-2.50631e+07
-5.06236e+07
-5.3916e+07
-2.58548e+07
-5.23849e+07
2.87989e+08
2.79081e+08
2.58456e+08
2.68886e+08
1.21882e+08
1.46332e+08
1.34583e+08
3.30283e+07
3.1892e+07
2.98158e+07
3.06264e+07
2.86113e+07
2.86856e+07
5.08397e+06
7.49604e+06
-1.07545e+07
1.41377e+07
-5.37914e+06
4.51519e+07
4.14984e+07
4.69538e+07
4.01139e+07
4.41423e+07
3.77996e+07
3.86309e+07
4.29425e+07
-1.92427e+07
-2.06646e+07
-4.64732e+07
-2.04052e+07
-4.41599e+07
-3.9196e+07
-1.8243e+07
-4.16929e+07
4.32503e+07
3.45289e+07
3.5264e+07
4.27703e+07
1.47384e+08
1.491e+08
1.53899e+08
1.50436e+08
1.51319e+08
1.49501e+08
1.46609e+08
1.38854e+08
1.38582e+08
1.41559e+08
1.44233e+08
1.45248e+08
1.47592e+08
1.40776e+08
1.4845e+08
1.41408e+08
1.43848e+08
1.39658e+08
1.34923e+08
1.33425e+08
1.36936e+08
1.37384e+08
1.35557e+08
1.39012e+08
1.43658e+08
1.44925e+08
1.4678e+08
1.40762e+08
1.47472e+08
1.41228e+08
1.42975e+08
1.29716e+08
1.35403e+08
1.32094e+08
1.30935e+08
1.26983e+08
1.30738e+08
1.33888e+08
1.34583e+08
1.27429e+08
1.30609e+08
1.34679e+08
1.41896e+08
1.37562e+08
1.37564e+08
1.37934e+08
1.38274e+08
1.34134e+08
5.0224e+07
5.19246e+07
5.2087e+07
5.03697e+07
5.03142e+07
5.19208e+07
5.02315e+07
4.83018e+07
4.70147e+07
4.85356e+07
4.86332e+07
4.70666e+07
4.88037e+07
4.7193e+07
4.86929e+07
4.71456e+07
4.8707e+07
4.20841e+07
4.56079e+07
4.01544e+07
4.50819e+07
4.31864e+07
4.01454e+07
4.49386e+07
4.36595e+07
4.5598e+07
4.5879e+07
4.49706e+07
4.50516e+07
4.38415e+07
4.52002e+07
4.41153e+07
4.5784e+07
4.42464e+07
4.35245e+07
4.17872e+07
4.03286e+07
4.48578e+07
4.35976e+07
4.21131e+07
4.45792e+07
4.44845e+07
4.57709e+07
4.60816e+07
4.47421e+07
4.57995e+07
4.40116e+07
4.4536e+07
1.53225e+08
1.51141e+08
1.56029e+08
1.5678e+08
1.57766e+08
1.52039e+08
1.52888e+08
1.48839e+08
1.52536e+08
1.51771e+08
1.55202e+08
1.59812e+08
1.58012e+08
1.54986e+08
1.5906e+08
1.55322e+08
1.54134e+08
1.52861e+08
1.59993e+08
1.55191e+08
1.56408e+08
1.41872e+08
1.47378e+08
1.56114e+08
1.51059e+08
7.15676e+07
6.79018e+07
6.23959e+07
6.56943e+07
6.81179e+07
7.06911e+07
7.07864e+07
6.78894e+07
6.80304e+07
7.09252e+07
6.78925e+07
6.54263e+07
6.28842e+07
6.26854e+07
6.52671e+07
6.2875e+07
6.5395e+07
6.52254e+07
5.56641e+07
5.37141e+07
5.39443e+07
5.58983e+07
5.59345e+07
5.37356e+07
5.5633e+07
5.71376e+07
5.95724e+07
5.74608e+07
5.77105e+07
6.02505e+07
5.79788e+07
5.98053e+07
5.80264e+07
5.98621e+07
5.76619e+07
6.70031e+07
6.94967e+07
7.02917e+07
6.74865e+07
6.75954e+07
6.9596e+07
6.69115e+07
6.36687e+07
6.17944e+07
6.41264e+07
6.451e+07
6.25731e+07
6.4933e+07
6.20595e+07
6.50361e+07
6.21249e+07
6.44319e+07
5.20725e+07
3.88563e+07
4.39814e+07
4.59471e+07
1.34205e+08
1.25604e+08
1.32126e+08
1.35931e+08
1.30124e+08
1.32763e+08
1.23342e+08
1.27166e+08
1.2969e+08
1.27116e+08
1.27226e+08
1.24313e+08
1.15708e+08
1.12893e+08
1.18618e+08
1.2437e+08
1.15632e+08
1.21584e+08
1.27125e+08
1.30763e+08
1.29406e+08
1.24918e+08
1.31366e+08
1.25309e+08
1.26536e+08
1.22836e+08
1.17061e+08
1.1804e+08
1.20814e+08
1.18569e+08
1.21187e+08
1.22289e+08
1.01269e+08
9.7489e+07
9.95705e+07
1.02965e+08
1.03349e+08
9.77082e+07
1.01055e+08
1.01971e+08
1.07022e+08
1.03445e+08
1.04964e+08
1.11086e+08
1.06765e+08
1.08383e+08
1.07159e+08
1.08639e+08
1.0469e+08
1.20011e+08
1.23341e+08
1.26902e+08
1.22381e+08
1.23669e+08
1.22928e+08
1.19615e+08
1.12453e+08
1.10648e+08
1.143e+08
1.16149e+08
1.14987e+08
1.18454e+08
1.12098e+08
1.18988e+08
1.12412e+08
1.15865e+08
9.10694e+07
8.9886e+07
9.4018e+07
1.00444e+08
1.01972e+08
9.87888e+07
9.27426e+07
1.0016e+08
9.71099e+07
1.1263e+08
1.04396e+08
1.09592e+08
1.1056e+08
1.05262e+08
1.08491e+08
1.01474e+08
1.03332e+08
1.06416e+08
7.02593e+07
5.86245e+07
6.33009e+07
6.60573e+07
5.62879e+07
5.44852e+07
7.882e+07
6.08378e+07
5.16797e+07
4.78005e+07
5.58389e+07
4.53575e+07
3.7425e+07
3.10019e+06
-348384
1.86122e+07
4.48202e+07
1.56426e+07
3.25133e+07
6.32357e+07
4.05805e+07
4.79479e+07
3.45921e+07
4.13899e+07
6.35695e+06
1.39272e+07
1.79554e+07
3.8851e+07
2.52513e+07
2.91737e+07
5.06948e+07
4.73957e+07
4.90861e+07
4.80993e+07
4.6419e+07
4.786e+07
4.58972e+07
4.61035e+07
4.7537e+07
4.39873e+07
4.50648e+07
4.37963e+07
4.12787e+07
4.07547e+07
4.23366e+07
4.47413e+07
4.19087e+07
4.34901e+07
3.5165e+07
4.94112e+07
4.20813e+07
4.5707e+07
4.0203e+07
3.27555e+07
5.18703e+07
3.15384e+07
-4.96949e+06
7.70794e+07
6.10793e+07
7.41765e+07
4.53087e+07
6.12236e+07
1.58205e+07
-2.05202e+07
1.91232e+07
2.18005e+08
6.94187e+07
1.49572e+07
-7.32441e+06
-2.16579e+08
-1.62385e+08
8.07039e+07
-1.21179e+07
9.82095e+07
-1.2884e+07
1.32996e+07
9.44239e+07
-3.18179e+08
1.76322e+08
-8.47989e+07
-7.80868e+08
1.22492e+08
4.00566e+08
2.8672e+08
-3.66845e+08
6.38115e+07
6.1671e+08
2.66302e+07
1.05395e+08
2.8517e+07
1.10229e+08
-1.2397e+06
3.18035e+07
1.17931e+08
3.97271e+07
4.63694e+07
4.39394e+07
4.01758e+07
4.22727e+07
3.1218e+07
3.52371e+07
4.52097e+07
8.3989e+06
5.29601e+07
4.44478e+07
-8.71957e+06
6.45445e+07
9.40901e+06
5.27368e+07
3.36251e+07
6.10165e+07
9.2487e+07
7.15812e+07
6.96603e+07
8.05193e+07
8.79877e+07
7.37148e+07
7.73001e+07
2.87959e+07
9.75954e+07
2.91112e+07
2.48002e+07
3.31973e+07
5.58348e+07
4.79744e+07
6.60136e+07
4.8383e+07
8.11639e+07
5.65184e+07
8.43712e+07
4.92119e+07
5.88259e+07
8.83993e+07
-2.51979e+07
-1.22385e+07
-1.45297e+07
-5.69687e+07
-3.39793e+07
-8.12452e+07
-8.097e+07
-5.65773e+07
-1.87273e+08
-1.9676e+08
-4.06398e+08
-2.30916e+08
-4.33157e+08
7.72261e+07
-4.40403e+06
-5.51391e+07
-5.26866e+07
-4.80561e+07
-2.89958e+08
3.32583e+07
-1.28892e+08
-1.33497e+08
-1.00206e+08
-1.26533e+08
5.83839e+07
2.6512e+07
3.96016e+07
-8.26303e+06
-2.64515e+07
-2.12384e+07
6.47468e+07
7.39439e+06
-8.86837e+06
1.41637e+07
-5.68327e+06
-4.63385e+07
-5.46373e+07
-4.22152e+07
4.04225e+07
3.808e+07
3.95834e+07
4.27054e+07
3.26506e+07
4.03402e+07
3.74466e+07
3.95823e+07
3.91989e+07
4.07022e+07
4.29337e+07
7.56254e+07
6.71099e+07
7.04962e+07
6.07943e+07
6.28523e+07
6.55497e+07
5.75676e+07
9.9824e+07
6.43449e+07
9.19755e+07
5.95975e+07
5.16116e+07
6.07356e+07
5.62208e+07
7.88911e+07
6.79334e+07
7.43828e+07
7.03673e+07
1.07749e+08
6.91227e+07
1.15781e+08
7.3924e+07
6.38455e+07
6.5284e+07
6.98402e+07
1.86875e+08
7.12923e+07
1.73155e+08
6.63265e+07
1.7957e+08
1.8019e+08
6.8051e+07
2.22395e+08
2.06827e+08
2.10936e+08
2.18288e+08
2.35174e+08
2.41631e+08
2.46065e+08
2.30768e+08
1.63983e+08
6.50961e+07
1.65775e+08
6.44276e+07
1.71919e+08
1.5812e+08
6.23659e+07
6.57488e+07
6.16102e+07
8.09127e+07
7.94661e+07
8.64583e+07
9.8124e+07
8.33461e+07
9.21871e+07
1.09427e+08
9.63136e+07
1.06488e+08
1.02159e+08
1.70758e+08
1.05598e+08
1.77784e+08
1.09422e+08
9.3474e+07
9.96538e+07
1.03217e+08
8.33214e+07
7.97685e+07
8.7646e+07
9.12312e+07
1.634e+08
1.01509e+08
1.55783e+08
9.72256e+07
8.34725e+07
9.58359e+07
9.18246e+07
9.75365e+07
4.42109e+07
1.02012e+08
4.53026e+07
9.41691e+07
1.05669e+08
4.2711e+07
1.8603e+08
1.93891e+08
1.97722e+08
1.82177e+08
1.728e+08
1.57511e+08
1.61182e+08
1.6918e+08
1.22298e+08
5.2372e+07
1.09956e+08
4.78828e+07
1.18005e+08
1.13928e+08
5.04491e+07
1.36076e+08
1.3091e+08
1.37499e+08
1.45552e+08
1.42789e+08
1.42044e+08
1.3211e+08
1.39451e+08
1.38698e+08
1.4318e+08
1.39861e+08
1.38091e+08
1.32369e+08
1.22766e+08
1.28531e+08
7.39921e+07
7.80349e+07
8.51295e+07
8.0716e+07
7.69424e+07
7.36156e+07
7.36639e+07
7.64974e+07
7.38718e+07
7.66716e+07
7.66775e+07
8.01592e+07
8.30646e+07
8.31904e+07
7.96191e+07
8.34917e+07
7.98064e+07
7.98674e+07
9.08182e+07
9.40212e+07
9.59372e+07
9.20639e+07
9.23366e+07
9.42208e+07
9.06213e+07
8.55e+07
8.33529e+07
8.65062e+07
8.7469e+07
8.54677e+07
8.86064e+07
8.40671e+07
8.88709e+07
8.42189e+07
8.73009e+07
7.51146e+07
7.21878e+07
7.30768e+07
7.58423e+07
7.22915e+07
7.60138e+07
7.49989e+07
7.66015e+07
8.0299e+07
7.73472e+07
7.8052e+07
8.22194e+07
7.88656e+07
8.09446e+07
7.90425e+07
8.1089e+07
7.79193e+07
5.24177e+07
5.23299e+07
5.41967e+07
5.6842e+07
5.85083e+07
5.65105e+07
5.41429e+07
5.80616e+07
5.61025e+07
6.32595e+07
6.06269e+07
6.28045e+07
6.68082e+07
6.21515e+07
6.45242e+07
6.01445e+07
6.00285e+07
6.22695e+07
8.80893e+07
8.16305e+07
8.52268e+07
8.45293e+07
8.06147e+07
8.34677e+07
7.89515e+07
7.95915e+07
8.23401e+07
7.58769e+07
7.7788e+07
7.5092e+07
6.92168e+07
6.89035e+07
7.16542e+07
7.68454e+07
7.13175e+07
7.42382e+07
1.9911e+07
1.23944e+08
1.25029e+09
-8.50443e+07
-8.25873e+07
2.51159e+08
1.46386e+08
-3.0973e+08
1.03079e+08
-8.37915e+06
3.82427e+07
6.93572e+07
5.37598e+08
6.39196e+08
8.95094e+08
7.56034e+08
4.61676e+08
3.99787e+08
2.97717e+08
3.41103e+08
3.09923e+08
3.12922e+08
3.14342e+08
3.15241e+08
3.02607e+08
2.95178e+08
2.69883e+08
2.82115e+08
5.88556e+07
5.45562e+07
4.58581e+07
4.89805e+07
6.63637e+07
7.22945e+07
9.0467e+07
8.23054e+07
9.06283e+07
9.37022e+07
1.05311e+08
1.2333e+08
1.62822e+08
2.14546e+08
1.44937e+08
1.90284e+08
1.09299e+08
1.40041e+08
1.21705e+08
3.57483e+07
5.01858e+07
2.10486e+08
1.87483e+08
1.67729e+08
9.43719e+07
1.58844e+08
1.29167e+08
1.69142e+08
1.82575e+08
2.41831e+08
2.04767e+08
2.72823e+08
2.3729e+08
1.90935e+08
2.08407e+08
1.60383e+08
1.67405e+08
1.83223e+08
6.61608e+08
5.34889e+08
6.23963e+08
5.78634e+08
8.11332e+08
8.85171e+08
9.38311e+08
7.54257e+08
8.67005e+08
3.36208e+08
3.01689e+08
7.20598e+08
3.3792e+08
7.51392e+08
8.4516e+08
5.53152e+08
2.39444e+08
2.81817e+08
6.18007e+08
2.46012e+08
6.48718e+08
5.26786e+08
2.00408e+08
1.09004e+08
1.22741e+08
2.13318e+08
1.13085e+08
1.90781e+08
2.23977e+08
4.44264e+08
4.58564e+08
4.00481e+08
5.02466e+08
3.84232e+08
3.01469e+08
3.4086e+08
3.43865e+08
2.8166e+08
1.40186e+08
1.33663e+08
2.38876e+08
1.46052e+08
2.68261e+08
2.50769e+08
1.85626e+08
1.55559e+08
2.57166e+08
2.91607e+08
3.08976e+08
4.288e+08
3.31292e+08
3.65075e+08
7.25169e+08
5.78548e+08
6.12832e+08
4.6813e+08
4.74981e+08
7.25204e+08
5.44652e+08
8.52528e+08
4.77024e+08
4.49995e+08
5.18382e+08
2.68855e+08
2.81078e+08
3.06874e+08
3.08526e+08
4.21931e+08
6.19021e+08
3.67604e+08
5.30755e+08
3.17975e+08
3.99711e+08
3.47249e+08
7.69181e+07
7.54408e+07
8.33376e+07
8.99829e+07
1.80949e+08
1.0175e+08
1.69323e+08
9.52636e+07
8.02249e+07
9.53274e+07
8.95163e+07
9.61663e+07
9.82364e+07
1.42009e+08
1.06115e+08
1.38848e+08
1.27982e+08
1.04157e+08
1.34206e+08
1.05138e+08
1.90548e+08
1.07567e+08
1.9821e+08
1.12591e+08
1.12323e+08
9.67111e+07
1.0919e+08
1.00615e+08
9.31654e+07
1.0527e+08
3.15342e+08
3.04701e+08
3.07534e+08
3.12725e+08
3.16311e+08
3.08311e+08
3.15308e+08
3.09162e+08
2.15071e+08
7.71107e+07
2.10892e+08
7.3404e+07
2.18401e+08
2.076e+08
7.31991e+07
2.21926e+08
7.68506e+07
2.13205e+08
7.33093e+07
2.20718e+08
2.14463e+08
7.29478e+07
1.77628e+08
6.68573e+07
1.83657e+08
6.79054e+07
1.72282e+08
1.89364e+08
6.81734e+07
3.00398e+08
2.98369e+08
2.91315e+08
3.07197e+08
2.89617e+08
2.67922e+08
2.78217e+08
2.79618e+08
2.07081e+08
7.04512e+07
1.93096e+08
6.81259e+07
2.00671e+08
1.99162e+08
6.87234e+07
9.60823e+07
9.78648e+07
1.43707e+08
1.08051e+08
1.44169e+08
1.41716e+08
1.07817e+08
1.43447e+08
1.1198e+08
1.02715e+08
1.1409e+08
1.14374e+08
2.08452e+08
1.2428e+08
2.05158e+08
1.23038e+08
1.03994e+08
1.16782e+08
1.15705e+08
1.14675e+08
1.03627e+08
1.16256e+08
1.16005e+08
2.10785e+08
1.24908e+08
2.12059e+08
1.24847e+08
1.04628e+08
1.17277e+08
1.17115e+08
7.75635e+07
5.62552e+07
6.59721e+07
7.55712e+07
7.07139e+07
9.11508e+07
7.97642e+07
1.03191e+08
4.65474e+07
4.67963e+07
5.57539e+07
-2.28688e+07
-2.4786e+07
-5.59302e+07
-1.38316e+07
-5.48058e+07
-5.03318e+07
-8.56679e+06
-5.29971e+07
5.8147e+07
6.27502e+07
8.05555e+07
5.57916e+07
7.12831e+07
2.16919e+07
1.90119e+07
2.65368e+07
3.89998e+07
2.43813e+07
3.22778e+07
7.16717e+07
6.90541e+07
6.3297e+07
7.82449e+07
6.62363e+07
5.45592e+07
6.13324e+07
5.87926e+07
4.63083e+07
4.07849e+07
4.18639e+07
4.51151e+07
3.98047e+07
4.90314e+07
4.26319e+07
5.60971e+07
4.72397e+07
4.41199e+07
4.81286e+07
4.65861e+07
5.22715e+07
5.17258e+07
1.17195e+08
7.58326e+07
7.21833e+07
9.94865e+07
7.74326e+07
1.10611e+08
1.05709e+08
9.44497e+07
7.5082e+07
8.28068e+07
8.57393e+07
1.04663e+08
1.01173e+08
1.16132e+08
9.09103e+07
8.65814e+07
6.2558e+07
6.74053e+07
8.96449e+07
6.30726e+07
8.09744e+07
9.55485e+07
-2.76809e+07
-2.79842e+07
-5.64321e+07
-2.35383e+07
-5.64485e+07
-5.51112e+07
-2.50787e+07
-5.59749e+07
6.61743e+06
1.70495e+06
6.78003e+06
3.47407e+07
2.85822e+07
3.49712e+07
2.69499e+07
3.28312e+07
1.98399e+06
8.30295e+06
7.32179e+06
1.76654e+07
7.87665e+06
1.43793e+07
4.07651e+07
3.0661e+07
3.77119e+07
3.32298e+07
4.11328e+07
5.57814e+06
9.76502e+06
1.1766e+07
2.10544e+08
2.226e+08
2.46759e+08
2.35294e+08
1.97306e+08
1.85043e+08
1.59516e+08
1.7167e+08
2.79302e+07
2.82895e+07
2.90999e+07
2.85783e+07
2.80057e+07
2.77983e+07
2.80513e+07
2.81612e+07
2.52623e+06
-154833
-2.57576e+07
1.56042e+06
-2.30058e+07
-1.62542e+07
4.73019e+06
-2.02368e+07
2.72233e+07
3.1773e+07
4.02703e+07
3.30029e+07
4.18745e+07
2.28619e+07
2.31228e+07
2.49394e+07
1.60241e+07
1.50725e+07
1.77313e+07
2.64663e+07
3.05757e+07
3.87e+07
2.94356e+07
3.71873e+07
1.70049e+07
2.13031e+07
1.94939e+07
3.88558e+07
3.28753e+07
3.05962e+07
3.60263e+07
3.18186e+07
3.83101e+07
3.63552e+07
4.16665e+07
3.53504e+07
3.53853e+07
4.13279e+07
4.17494e+07
3.66569e+07
4.24517e+07
3.62868e+07
3.78266e+07
2.93674e+07
2.94636e+07
3.59307e+07
2.84135e+07
3.79742e+07
3.60307e+07
-1.75705e+07
-1.52165e+07
-2.84801e+07
-7.62979e+06
-3.12271e+07
-3.65779e+07
-1.05165e+07
-3.39107e+07
6.79129e+06
2.93939e+06
7.25571e+06
2.88952e+07
2.4085e+07
2.95887e+07
2.39137e+07
2.92507e+07
3.90486e+06
8.94213e+06
7.98449e+06
1.43755e+07
9.60775e+06
1.28213e+07
2.71409e+07
2.44388e+07
3.01776e+07
2.49645e+07
3.09824e+07
7.95969e+06
1.00775e+07
1.13769e+07
4.144e+07
2.35486e+07
2.33356e+07
4.03517e+07
2.28742e+07
4.12807e+07
4.07028e+07
4.1517e+07
3.46615e+07
3.49296e+07
4.1521e+07
4.19233e+07
3.48985e+07
4.21533e+07
3.44089e+07
3.93583e+07
2.51425e+07
2.38375e+07
3.94629e+07
2.44109e+07
3.86279e+07
3.99987e+07
1.59912e+08
1.62438e+08
1.63027e+08
1.64886e+08
1.6269e+08
1.62022e+08
1.59699e+08
4.95793e+07
5.16569e+07
4.98886e+07
5.10266e+07
5.1298e+07
4.98187e+07
4.99784e+07
1.66888e+08
1.69921e+08
1.64695e+08
1.6718e+08
1.65055e+08
1.69019e+08
1.6646e+08
5.53556e+07
5.55078e+07
5.35887e+07
5.33468e+07
5.33213e+07
5.5227e+07
5.56114e+07
1.06326e+08
1.07717e+08
1.02955e+08
1.02418e+08
1.07213e+08
1.02213e+08
1.06555e+08
9.4289e+07
9.54368e+07
9.88728e+07
9.84076e+07
9.81818e+07
9.4852e+07
9.44914e+07
1.41183e+08
1.43705e+08
1.38524e+08
1.37003e+08
1.42979e+08
1.36914e+08
1.41276e+08
3.99365e+07
4.51713e+07
5.57016e+07
4.92256e+07
3.4385e+07
4.32522e+07
4.49119e+07
6.76598e+07
6.80878e+07
7.06325e+07
7.07094e+07
6.77328e+07
7.05038e+07
6.78524e+07
1.28128e+08
1.30366e+08
1.34088e+08
1.32673e+08
1.32524e+08
1.29508e+08
1.28266e+08
4.35311e+07
7.65539e+07
1.093e+07
5.03633e+07
3.4117e+07
1.09072e+08
6.34826e+07
7.66157e+07
7.71575e+07
7.36589e+07
7.36939e+07
7.34974e+07
7.6853e+07
7.68279e+07
1.56684e+08
1.5964e+08
1.55186e+08
1.53103e+08
1.58824e+08
1.53187e+08
1.56579e+08
4.76137e+07
4.80824e+07
4.7303e+07
4.71631e+07
4.69964e+07
4.63941e+07
4.82747e+07
1.682e+08
1.71179e+08
1.70694e+08
1.6815e+08
1.70192e+08
1.68821e+08
1.67629e+08
5.75783e+07
5.78174e+07
5.98453e+07
6.01057e+07
5.75624e+07
5.98881e+07
5.77953e+07
1.10575e+08
1.12242e+08
1.15966e+08
1.15086e+08
1.11515e+08
1.14867e+08
1.10772e+08