/*--------------------------------*- C++ -*----------------------------------*\
| =========                 |                                                 |
| \\      /  F ield         | OpenFOAM: The Open Source CFD Toolbox           |
|  \\    /   O peration     | Version:  2012                                  |
|   \\  /    A nd           | Website:  www.openfoam.com                      |
|    \\/     M anipulation  |                                                 |
\*---------------------------------------------------------------------------*/
FoamFile
{
    version     2.0;
    format      ascii;
    class       volScalarField;
    location    "0.108/fluid";
    object      p;
}
// * * * * * * * * * * * * * * * * * * * * * * * * * * * * * * * * * * * * * //

dimensions      [0 2 -2 0 0 0 0];


internalField   nonuniform List<scalar> 
16421
(
-58157.8
-58233.6
-58446.2
-58841.5
-59507.1
-60596.9
-62378.5
-65327.7
-70326
-79103.6
-95323.1
-127390
-194453
-289198
1.09456e+06
-58113
-58182.9
-58379
-58742.5
-59352.5
-60346.1
-61957.8
-64595.3
-68988.2
-76497.1
-89786.9
-114248
-158895
-190402
1.21761e+06
-58005.5
-58061.5
-58217.8
-58506
-58985
-59754.1
-60976.6
-62917.1
-66003.5
-70910.8
-78608.8
-89929.6
-101536
-74959.9
250021
-57857.1
-57894
-57996.4
-58182.9
-58487.1
-58962.5
-59689.6
-60780.2
-62370.8
-64563.8
-67195.3
-69032.6
-65267.8
-42261.6
10639.2
-58118.9
-58189.5
-58387.4
-58754.4
-59370.3
-60373.9
-62002.9
-64671.2
-69121.8
-76744.6
-90264.6
-115163
-160779
-217028
-145692
-58074.9
-58139.8
-58321.6
-58658.1
-59220.8
-60133.1
-61602.7
-63983.2
-67887.4
-74405.1
-85522.7
-104928
-139454
-194468
-56298.8
-57969.2
-58020.6
-58164
-58428
-58865.3
-59564.4
-60668.3
-62403.7
-65124.1
-69356.3
-75788.7
-84939
-95438.1
-94091.5
-10570.4
-57823.3
-57856.2
-57947.5
-58113.4
-58383.3
-58803
-59440.3
-60385.7
-61740.4
-63555.3
-65622.5
-66860.9
-63760.7
-48086.1
-11119.3
-58025.5
-58083.7
-58246.4
-58546.5
-59045.5
-59848
-61126.9
-63165.7
-66432
-71687.9
-80106.2
-93057
-109710
-116150
-76760.9
-57983.3
-58036.3
-58184.2
-58456.6
-58908
-59630.4
-60773.5
-62576.6
-65419.3
-69884.6
-76784.1
-86872.1
-99041.3
-102516
-60663.3
-57881.9
-57922.4
-58035.1
-58241.5
-58580.6
-59115.9
-59946.3
-61218
-63134.1
-65937.2
-69787
-74297
-77027
-69571.6
-35621
-57741.9
-57765.3
-57830.1
-57947.2
-58135.9
-58425.1
-58854.1
-59467.9
-60296.3
-61289.1
-62146
-61919.2
-58297.9
-47132.4
-25596.5
3785.37
-215618
-548977
-251438
-257728
-241475
-216017
1.82445e+06
-222793
24330.2
124236
317880
49090.5
186978
5528.96
150618
18587.6
10690.7
111859
-203.606
38677.8
-5231.82
29596.2
-63493.5
120625
-83503.8
-71599.5
20647.3
25038.2
-23259.7
-919.072
-65683.1
1767.92
-3600.74
-264150
4.44963e+06
-536228
-986310
-229100
198237
-96028.1
50595.8
-225796
-189519
-126726
-69108.1
442837
841384
-482008
229104
-75435.9
62904.9
-45832.8
8252.9
-98382.4
-38566
-53393.9
-16916.5
111770
91326.3
69878.5
254349
65748.5
-3593.29
-47117.7
-17739.6
6939.82
26850.4
73692.3
-8756.62
27180.8
-34184.7
9480.8
-24043.7
566.52
-22172.5
-47874.5
-30424.1
341.101
-16126.5
-6090.3
-674.918
-26596.3
-5267.45
-31784.8
-19130.5
-27312.7
-21719.7
-461018
-413216
-145313
-598064
-855063
-479936
-461512
-97112.9
63109
-328467
-450455
2.17637e+06
-1.60365e+06
-1.17909e+06
114849
-8335.73
182517
3602.24
210526
-198389
-183669
42981.4
32042.3
-156037
-392109
376450
247315
305380
227200
453951
674882
80312.7
95108.8
322922
382805
202162
225635
302212
117493
179466
246482
109102
83632.6
64609.5
20618.3
41453.1
35522.4
90823
52218
91085.8
42003.9
44545.9
33063
1102.16
7587.44
14917.4
41515.9
17040.9
29701.7
-3963.55
-142764
63920.1
-110062
82069.4
-48889.2
-10437.9
-56374.6
23126.3
72997.8
-30170
-49875
12548.4
12513.3
750.747
-20149.7
-15762
-11455.9
8681.1
-10772.4
-2597.59
-39309
-56631.1
17828.4
-34593.1
-6091.17
-53352
-39315.5
-8161.18
-52463.4
-12903.8
-10085.1
-17981.4
-11826.5
-19254.8
914605
-259426
-1.85205e+06
-190464
-174737
-208124
-196086
-134836
-105170
-126320
-98490.1
-24805
-125049
-118181
-103676
-85392.8
-102438
-59539.4
140233
-17279.9
97219.1
-66355.7
19800.6
-40954.6
12716.6
-91845.8
-108375
-84198
-52373.8
-59692.9
-72623.3
-69553.8
-53722.5
-66273.7
-55813.1
2290.04
-40990.4
648.566
-818732
-334470
-1.57701e+06
-482355
-1.5335e+06
-270121
-590046
-404068
-1.57427e+06
-364552
-740828
-952814
-394272
-483551
-341234
157759
263092
25527.4
-369988
-304363
-194976
-211979
-498370
-249517
-357533
-8435.33
147762
42946.9
150417
8458.94
152103
-960.499
190116
150287
152232
39567.8
239591
185232
188893
228488
174638
178511
150247
217141
69534
53820.4
69678.5
51249.2
37132
49813.6
41349.7
46726.5
46514.7
81483.7
115080
93904.6
30588.5
93350.5
67335.5
-41956.5
-91258.7
-59757.7
-78464.9
-86599.3
-51214
-57929.5
14391.8
52214
23328.3
-4775.56
71043.8
24043
-10422.2
-29504.4
12667.5
-19186.5
-9297.89
-23574
-7356.77
-25862.3
-53861.9
-11189.6
1.01942e+06
1941.01
269004
-98712.4
1.36174e+06
-2.77704e+06
1.30819e+08
-2.29275e+06
2.19953e+06
1.53491e+06
1.05289e+06
390955
340701
496772
4.641e+06
900233
794301
753265
2.22163e+06
374220
575102
1.1848e+06
666620
657106
2.30063e+06
245849
352566
327416
334992
216619
222847
170835
121641
110175
184647
122259
186802
15367.3
23315.1
33990.2
23503.3
21652.4
11163.1
18338.7
7839.18
-766914
839336
-1.85371e+06
-448405
-1.70427e+06
-769781
-317088
-453232
-25282.3
62493.8
2.20058e+06
314846
-207095
1.93576e+06
26558.4
60443
-16200.4
1.01555e+06
60623.6
407934
268481
110086
-292926
-189567
-80114.1
-121020
-98987.1
-2.12248e+06
484583
-4.00117e+06
9.94581e+07
-2.56954e+07
-6.04368e+06
4.14465e+07
-318722
7.51251e+06
603268
360629
-2.65979e+06
2.4645e+07
-483973
871492
-8.40019e+06
-2.52547e+06
4.07866e+07
-205390
138774
-416999
281527
-685651
573168
-1.75524e+06
188406
-416187
240360
-134910
-1.30013e+06
-124149
-192995
-349743
-298598
-140781
34156.9
9589.49
-29765.7
-80760
-179507
93282.8
3778.08
9311.15
927300
-117753
-99117.4
-273142
-399619
-115312
-332344
221928
1.17333e+06
779810
99776.6
211629
159890
158676
225338
240516
483296
686835
251798
541282
392103
373595
444280
449544
531598
655004
550135
1.00436e+06
737022
468688
614361
237808
166185
231269
184884
262287
337345
390836
247301
261511
455233
257007
401766
183879
303934
210310
233446
159258
108998
139709
118060
165897
122865
182426
120561
46548.9
28124.5
38983.2
33368.7
59763.1
48170.8
63909.7
105292
93801.2
87636.1
68519.5
56617.5
77170.8
99941.8
106423
76145.9
68658.8
42251.4
62902.5
49624
76690.2
107386
107829
71684.1
32385.5
22058
29781.4
34814.4
37197.8
25213.4
44925.7
35327.1
34819.2
32165.2
32836.5
22244.3
24118.9
28535.5
24755.4
19375
26484.2
30914.6
22384.1
8117.33
17043.6
-57374
-155974
-71944.3
-69019.5
-139479
-91342.5
-17338.5
99693.6
-173186
41818.7
-85057.5
47080.2
96065.1
45815.8
-35131.8
-49153.9
-29337.7
-61691.1
-52314.4
-15697.4
-20076.9
-46314.1
-54343.4
-40795.3
-28950.6
-27139.7
41969.6
-1771.06
13045
-30634.5
-26416.8
37860.2
49767.1
-34402.3
20522.2
-18833.6
-31947.4
-52897.1
-14956.1
-37599
7969.8
-4271.88
85.6607
2962.66
11980.3
17491.6
9749.7
6450.2
1630.63
15176.3
10165.7
5039.88
-2969.16
-5610.26
1383.87
-9329.41
-2461.26
-1880.89
2141.46
-6241.33
-1073.6
8282.75
3415.32
3602.7
-4307.05
-13499.2
-10440.5
-7948.27
-35002.2
-47598.3
-56054.9
-49215.1
-29880.6
-34270.4
-6057.07
5188.07
-31181.3
-15214
-34453.8
-22356.5
1841.21
-17416.8
-35549.2
-35386.3
-48400.3
-55497.2
-49231.9
-37146.6
-23444.1
-35524.9
-47878.4
-37207.8
-12905
-19497.9
-17560.4
-15287.2
-10492.5
-3115.38
-6479.67
-7390.53
-12017.8
-14395.9
-16850.3
-9048.44
-11425.2
-10265.4
-7500.36
-13928.7
-20053
-15993.7
-11098.4
-14676.3
940081
423955
627219
213994
1.9886e+06
59151.8
39306.9
169516
160219
51693.2
46743.5
-3.42177e+06
2.02408e+06
5.95608e+06
-2.36233e+06
-1.22742e+06
-3.38802e+06
1.15307e+07
-310171
71619.1
268969
-214129
23470.1
148659
-9428.39
110877
74372.6
-157245
196957
175111
177860
191296
172281
174881
175185
172203
162687
187992
59627.8
53446.2
60221.4
52365
53729.1
60402.4
44949.5
51389
46386.1
50266
812463
1.7401e+06
2.86805e+06
1.5522e+06
682175
921441
1.21099e+06
663172
123711
118083
310210
349425
377094
286664
142569
115792
143915
110897
105362
118693
22893.7
35446.3
29637.5
28598.6
-20943.8
25132.3
-347911
-41691.6
76408.2
-255533
-166123
5.03552e+06
3.01727e+06
3.86934e+06
9.67976e+06
-169801
1.37935e+06
3.37765e+06
781823
-259823
-109290
-257546
-294104
-233350
-354295
-189554
-226924
-207900
-242038
-99504.2
-309894
-152451
-176981
2.26891e+06
910495
853803
700342
154558
134027
144090
152808
807903
780877
1.01831e+06
564904
451222
368706
397724
420588
577635
856482
651758
675154
173501
150164
172330
152868
315691
352154
392921
291643
415955
723213
543180
595128
136322
146666
243637
334759
276941
281956
125283
106172
119875
109589
141914
118143
145427
117820
40737
37985.4
32036.3
46871
81036.7
108067
102724
87411.2
90892.1
101483
104600
89275.7
53015.6
40221.9
49180.2
44365.9
91833.1
110387
110750
89969.8
100790
88886.1
35405.7
37647.8
30774.9
41915.9
-68066.2
-18372.8
20644.1
-23781.7
-43616.9
12641.3
-29524.8
-87746.1
-59654.6
-156809
-62899.2
-92095.2
-165582
-14132.1
-24469.5
12613.6
-15940.3
-26005.1
-26675.3
-28149.4
3463.55
-26211
-24696.9
-38728.5
-14763.1
-34946.8
-6864.89
-31092.6
-36139
-38586.9
-30456.1
-44090.5
-44072.5
-28461.9
-37119.2
-35622.4
-37209.3
-41929.3
-21050.4
-43521.2
-32487.5
-25466.1
-31652.9
-43483.3
-37119.2
5.83866e+06
-38913.3
62780.2
75668.6
142835
155695
42103.5
45312.7
-738328
1.06297e+06
-841645
-602060
-592540
-1.1776e+06
24165.5
-439462
941828
270772
-386613
-497704
23837.4
-313089
-357424
-654820
-898180
-464131
-491480
438084
173114
-32149.1
-27052.8
-287454
368780
10338.9
96640.3
130493
59941.3
-25783.8
260310
265033
58743.6
196884
171589
177668
192680
204948
224238
198488
235573
204704
240022
200493
236554
168453
174571
180806
219149
194869
199405
170011
144781
158000
153707
175221
169758
192225
157664
62396.5
71480.6
62912
71695.9
59384.1
49988.8
51943.6
57943
62210.8
71254.4
71772.9
60934.9
71463.1
63054.9
44367.4
47734.9
49806.1
41909.7
43493.5
41732.2
44948.2
40104
42884.2
36530.1
40328.4
39412.2
250205
3.24099e+06
-72941.2
8.15207e+06
-908868
1.38269e+07
-2.05498e+07
7.0648e+06
6.74022e+06
1.8578e+06
8.28034e+06
-44303.1
622100
55945.7
14046.6
13183.8
-3206.17
742606
1.53109e+06
705333
1.60232e+06
682334
1.55294e+06
705315
1.25622e+06
93911.6
99344
283384
210978
220792
265229
156252
194252
201104
154934
137684
123769
20912.4
21070.5
15329.4
26586.6
19391.8
13620.6
41292.7
-35655.1
-22966.7
7192.65
-15444.5
31986.2
13526.7
28743.3
-740016
358338
-743902
-463971
-971594
-729572
-9244.28
364669
23540.7
1.01232e+06
-47741.4
466878
323379
397219
638642
432534
166543
261601
987709
233166
143187
301417
-77239.4
563053
-198434
398849
337112
1.69943e+06
442589
261483
-1433.92
81191.3
20977.1
14425
51393.2
-37299.3
50215
-153140
335550
1.49724e+06
217725
354047
208762
235181
-83778.3
-174282
-147519
417006
242315
-342628
-10805.1
-193512
161712
-228627
-253713
-158733
-74078.8
367860
293786
582249
-82477.1
-1.87543e+07
1.42124e+07
1.7532e+09
4.89055e+07
-7.06262e+06
-1.04813e+08
9.09447e+06
-9.31777e+06
1.58224e+07
2.02461e+07
8.6144e+07
1.04738e+07
1.20079e+08
1.98859e+07
5.71318e+06
1.72491e+07
9.90175e+06
1.28246e+07
1.33129e+07
1.10229e+07
1.47834e+07
2.69572e+07
1.02168e+07
1.16079e+06
-362433
-946731
-156058
-108155
-186834
-574637
763916
-50548.7
9.13695e+06
4.73529e+06
2.64957e+06
-512985
-207484
-566348
2.21793e+06
1.10655e+07
2.00988e+06
-235914
1.96623e+06
-290839
-322068
-136212
-274432
-349355
-215633
-103749
-145165
-186603
-263471
-132100
-197673
-235673
-182450
-237472
-322591
-309655
-217042
-39301.1
-104856
-113038
-12012.8
-87285.5
-45655.3
-49251.8
-24847.5
-46091.1
-38758.6
32631.3
-2964.41
-11827.5
-51137.7
-134145
-101225
-91687.9
-68207.5
31216.7
402748
-112151
-87599.7
-7597.45
16230.2
75546.5
7202.03
96927.5
55344.9
471531
78893.1
167478
-35752.4
9315.43
53091.9
6014.68
83858.6
-318005
-88552
-361270
-377403
-361581
-260659
-393350
-91540
-411291
-296353
-92224.7
-315936
-119674
-362806
-292149
-349684
-320602
-416476
270738
-34385.6
-6990.66
35715.1
4709.61
68327.6
84213.3
50545.9
79766.2
2.10972e+06
-314085
333094
658408
1.94577e+06
1.18813e+06
960941
1.52099e+06
1.81906e+06
264733
223776
1.33186e+06
125379
135612
100681
118578
163187
227679
252016
160291
134375
252039
100787
268220
964014
1.24126e+06
1.06992e+06
1.28252e+06
739695
239637
251453
497825
864573
248863
1.12629e+06
277874
465711
504871
510784
436655
568723
533579
522190
627790
183253
167272
188203
160601
182691
248494
183583
233993
193658
236631
196345
245369
297274
234311
247160
274733
318589
462302
406795
352834
299698
254439
247778
328131
370665
265607
489056
247669
415958
485638
561121
352921
378321
250290
261553
327111
164398
153572
232646
228557
206427
266027
231006
209041
258414
193875
221597
174031
198499
188383
130904
139447
147842
125107
127509
114705
133686
111051
133428
162055
151373
140548
151170
193431
156209
181661
140626
115693
135532
117601
149225
165633
177497
142794
43943.7
61860.5
55428.1
50204
75166.7
66172.7
59510.1
81662.5
86650.2
74822.1
75170.4
85238.6
91583.2
108874
105849
92870.9
87203.6
75071.7
75336.6
88093.5
54275.2
49139.8
57254
45734.8
56242.2
64305
52560.1
67554
57458.5
70850.2
60298.5
68622.4
92438.1
109624
110820
93049.7
86415
68697.9
84179.1
71733.2
87152
74749.1
88135.7
72732.8
74745.4
84934.4
36949.6
46845.4
40886.6
43324.5
33579
23345.8
28770
28867.1
35183
35330.9
39263.5
30699.7
40925.8
39299.3
35620.1
38589
21748.1
27617.5
34376.5
29550.1
-74057.9
-60052.1
-91170.2
-86023.5
-42689.8
-65418.2
-85109.8
-119074
-44628.2
-90169.1
-103163
-156001
-154453
-117478
-51830.8
-26043.3
-29459.8
-38693.8
-37912.7
-128357
-34278
-52608.3
-12837.7
-21749.3
-47673.2
-29940.1
-43443.1
-14737
4125.48
-20011.4
8023.1
-45746.3
-139689
-90891.6
-67022.5
-72941.3
10580
-21013.4
-54930.4
-6884.01
-7376
29949.4
36879.4
31749.4
33421.2
27443.8
12042.7
27556.1
12998.6
13926.8
-49765.8
5230.69
819.941
19650.1
-25112.4
-42135.3
-27552.7
-28203.4
-36018.8
-19996.9
-34988.5
-24599.2
-29279.7
-23413.9
-22808.3
-17886.6
-21134.9
-24210.3
-20429.2
-26051
-24700.9
-27045.8
-42069.4
-28173.9
-24106.9
-30840.3
-37929.9
-46480.7
-54894.9
-48907.4
-53902
-42960.6
-25234.5
-35727.6
-33447.3
-45709.3
-45669
-50770.6
-41583
-53100.8
5526.36
-3938.53
-28189.4
11127.2
-7074.43
11947.4
15858.8
21810.2
5699.49
14006.8
29575.9
20669.2
23574.7
3797.81
-28830.2
-13347.3
-10330.7
-1627.28
17736.7
-27261.3
11.4574
2740.84
13038.8
30323.5
37903.7
32915
36633.2
18766.5
-27646.9
4556.56
19449.1
4813
28823.4
31133.3
22877.7
35968.7
-31361.7
-15136.8
-24772.2
-21811.7
-36594.3
-32858.7
-37605.8
-26119.6
-43322.2
-29997.9
-14737.8
-18516.6
-25137.7
-19351.6
-34459.7
-49372.8
-40250.7
-45349.5
-47952
-41169.3
-33176.8
-40295
-48535.4
-50493.3
-55265.8
-49326.1
-55336.8
-47758.6
-32517.1
-37707.3
-46237.3
-39120.6
-50588.4
-54840.5
-50845.1
-55398.1
-9112.19
-33143
-22702
-20869.5
-12811.5
-1491.37
14146.2
8793.21
3826.69
-3016.93
2694.63
7266.75
-7325.54
-7832.57
-32705.2
-16309.1
-3237.05
-18722
-16675.3
-24322.4
-35098.7
-25621.3
-13831.5
-12891
-6581.04
-3476.64
-15509.5
-11934.2
1397.92
-2395.32
-8553.73
-17449.4
-35236.8
-27619.6
-26724
-19613.2
-48416.2
-41794
-36402.3
-42120.6
-48499.1
-50113.6
-52226.3
-49382.5
-53426.8
-48226.8
-36625
-42346.2
-42314.4
-47715.8
-50372.3
-54680.9
-50723.2
-53715.7
-18247.6
-7465.09
-16249.8
-9985.04
-21802.2
-35557.8
-28379.1
-20199.1
-28960.4
-48091.1
-51851.9
-49041.4
-50532.8
-46659.1
-37317.9
-42262
-47432.2
-42042.6
-404858
2.62065e+06
885102
-1.40321e+06
-450144
57843.7
1.29798e+06
197711
312862
185601
135075
103294
285340
232265
9436.19
17287.6
3651.29
9900.14
3189.64
17046.5
9508.73
-365345
-432852
-253690
-264431
-524393
-273194
-367322
-40992.9
-169401
-40232.5
176967
-285291
231731
39903.9
553043
415386
416555
171525
172169
407675
572671
363263
41846.3
242920
34348.7
312972
120475
252888
320423
248136
225367
201299
282416
252239
239719
327234
17197
4756.72
130140
38876.6
221903
197127
307107
202241
186045
162664
238092
245946
215129
37936.3
29978.6
26702.8
17183.9
27527
25853.4
39484.8
85889.2
32147.5
81320.5
9740.29
141788
33094
49683.8
108136
152213
111015
79516
169847
106793
72579.2
50202
9924.63
5128.32
16618.6
21379.3
28584
29639.9
67510.7
49965.2
55455.4
30091.5
72951.4
42401.6
46864.6
26849.6
33781.7
26487.1
26178.5
30811.1
29934.4
22997.9
15077.5
21837.9
22237.9
20780.6
17518.2
18355
18996.3
-1857.5
1982.74
-3848.7
-1600.99
-1048.51
1148.32
-4507.15
-9075.08
-6412.31
-4118.2
-5984.42
-8680.23
-6397.55
-6907.27
500917
-147714
-188605
-110896
145411
-96051.2
120845
3.34167e+06
5.29797e+06
1.52322e+06
9.45148e+06
2.36349e+06
5.10135e+06
7.38464e+06
71352.1
-512852
-609681
-241507
-764772
-147786
-253996
-169110
-235137
-2.47642e+06
-807192
-1.66657e+06
-1.32467e+06
-85962.3
52892.5
-142867
-136057
-148468
-108472
30865.3
-164870
-199354
243501
-365473
-299127
-125304
-169231
-89329.8
77753.3
-59691
-108129
-122138
-10322.6
-83802
-35367.4
240635
396441
443787
502307
469014
436441
393423
-182964
1.02543e+06
295261
1.15391e+06
-79664.4
321866
1.21601e+06
12075.6
316521
147865
263137
-239498
396533
291488
50588.8
-7466.46
11844.2
-25216.7
7427.77
-45220.4
4041.33
26341.1
-332.034
8225.55
-19387.9
-12686
-19611.4
-4960.11
150739
148457
94446.8
126856
166926
113356
124055
137257
135471
71085.3
113537
85407.1
99635
164670
206286
198658
290259
209518
270288
227849
162755
-7556.06
-18022.1
-21374.6
14558.7
19359.7
29138.9
19966.4
22317.3
21119.1
12814.1
38482.7
18275.3
16747.3
28494.7
8098.74
13938.5
24000.1
7854.68
-6724.35
-189.016
2920.63
3207.48
12318
-5238.34
-11781.4
-9872.34
-15651.3
-15600.7
-3775.7
-11223.8
-9085.46
-776358
-727097
-710766
-494512
-982346
-608676
-635314
-717534
-544582
-1.17789e+06
-832058
-1.18298e+06
-505842
-652972
162020
24980.1
62766.4
166461
227018
7549.59
125063
-255703
-305836
-230735
-465810
-217540
-373789
-332306
482205
159545
-324400
-1.27809e+06
-1.15852e+06
-758728
79545.4
-705746
177572
-2.55162e+06
-1.95864e+06
503258
-2.92266e+06
-1.51224e+06
-832913
-139771
-350915
176408
-723076
-779891
-240299
-600910
182338
-32991.4
-1.0266e+06
-382373
-645660
41195
-181572
222000
77569.6
153328
14358.7
66127.2
341316
-541557
91179.2
-388910
20388.8
-327496
4186.76
-195738
-602306
36028.5
156306
171795
-823348
-5074.65
666017
-303926
-271030
-168573
-231021
-217529
-236953
-337550
-10807
39428
27224.8
12141.3
1242.02
22997.5
4367.07
30227.1
15930.1
102508
22119.5
-6097.26
72931.7
65864.2
-497509
-371278
-540966
-424882
-407166
-447501
-577657
361260
362862
300147
399557
436579
318330
302121
315630
282474
273356
249415
240193
387656
295788
440351
347302
776295
312084
524800
694155
322358
282545
262487
208783
228122
219828
262771
264403
508524
459335
424607
508145
527440
481118
412587
705976
515713
229997
992848
180818
679256
766590
446820
377443
378550
269289
366730
436818
342539
291766
304058
368493
391228
306790
376271
299534
241564
199419
217616
229122
248409
209582
227278
248422
263560
209215
226468
255673
259689
209693
279627
339864
321695
263516
351246
286636
262535
158638
152789
117869
129707
167179
126931
148703
176499
181770
200247
154627
159724
203488
169626
196250
197515
267434
223619
218292
231236
185385
147182
114435
114609
131248
136544
121135
140698
59859.8
70128.9
62647.5
93046
81501.5
69650.3
52193.6
52771.8
43507.6
54563.2
79739.6
39060.1
72911.5
56043
43663.4
47626.3
38908.5
27834.2
31295.2
52134
38764
79283.5
93727.1
69653.6
98931.3
100468
76013.2
73804.3
65155.2
54892
62652.9
50433
61761.5
65703.9
53341.5
79954.2
93506.8
95481.6
75072.9
98639.4
75445.6
78999.7
63029.9
54376.4
45393.8
47036.1
58707.3
59060.2
50251.6
38469.2
46741
42187.1
39204.5
41123.7
44536.2
36477.1
34041.7
25953.1
35511.5
38348.4
27854.7
40808.1
32057.3
30552.6
38050.6
38887.3
36602.4
35245.7
33748.1
33518
22371.5
22257.1
21375.5
12867.3
26645.7
16527.9
18536.3
26098.6
23255.9
34954.3
25900.7
31198.1
29311.6
20139.5
-137959
-213959
-127862
-112266
-95537.9
-181391
-169243
35929.5
50928.6
35230.8
82166.7
59233.1
62230.7
19649.1
60948.2
72878.7
88631.8
67939.3
78747.9
71564.4
58312.4
-45904.9
-36380.4
-50901.6
-58926.7
-36581.9
-42642.7
-64752.3
-50572.7
-55447.8
-53767.8
-55954.3
-52856.3
-51538.1
-55098
19112.2
21720.1
28906.1
15784.6
21393.5
26916.8
14056.5
48139.2
63860
62205.5
65347.1
56740
52898.6
56881.8
-42922.1
-39587.6
-55910.4
-50352.6
-41790
-42412.9
-54292.4
10757.9
17612.4
9142.21
8391.63
13319
5530.69
14595.4
11245.7
16456.8
9256.84
10864.7
13186.6
14514.6
7621.86
7058.74
-1137.95
4394.3
5260.43
9092.77
2105.02
3566.69
1048.65
5234.01
5482.28
7385.45
2104.2
4207.32
4154.51
-5386.47
-7192.9
-8331.63
-11526
-4547.95
-9273.79
-7867.69
-2671.3
-4087.09
1652.43
-5628.72
-1586.38
327.343
-6838.78
-52646.3
-55577.5
-54413.8
-56618.9
-54701
-52234.2
-55597.1
5307.65
16936.1
10750.9
13107.4
6249.55
12551.2
9495.77
-9525.28
-11345.9
-3750.24
-5897.55
-9246.75
-3600.66
-11581.5
-51507.1
-52288.6
-54129.7
-52507.1
-52976.1
-50900
-53246.5
-14920.8
-13142.9
-7927.83
-9998.64
-14742.8
-13335
-9752.44
-49463.5
-51482.2
-51660.9
-51596.4
-50688.3
-50191.9
-50827.1
-12083.7
-9564.64
-13482.3
-14828.5
-11678
-15282.8
-10079.4
-11019.1
-8156.85
-12540.3
-10321.1
-10729.9
-8462.59
-12764.7
-13852.2
-18243.9
-16483.9
-15213
-13547.6
-16826.5
-15446.5
-14163
-11994.2
-14320.6
-19447.5
-16673
-16844.2
-108937
-759938
990113
383561
379828
118991
-188107
-276951
49027.5
-460887
-158799
-218469
-214861
383136
-421412
-1.48147e+06
-1.61301e+06
-915863
-449125
-104387
-605033
67701.5
71355.6
-235726
-262514
243002
-56472.9
-742538
-109879
-90595.7
-74306.4
-101082
-137010
-116723
-115545
-40822
-69157.3
-49748.6
-77969.2
-77909.2
-62080.4
-93695.5
-55064.6
-58894.1
-55204.7
-62130.9
-66537.1
-63060
-64811
-53279.3
-57506.1
-54510.8
-60433.3
-60334.3
-58514.2
-62614
-773751
-1.24436e+06
-1.67742e+06
-976747
-1.00729e+06
-1.12979e+06
-910588
-40608.4
74538.7
-328470
-72400.1
-229077
-60082.3
-23235.5
72593.4
67780.3
180473
88120.2
51918.8
53816.6
117232
-16420.4
218713
-119777
167891
-14271.5
-162059
81292.3
67510.5
-16242.1
69950.6
41532.7
49738.7
44315.3
90996.3
-174416
-296684
-266758
-162821
-164709
-137277
-220334
-284860
-254234
-385801
-206720
-349022
-239255
-285974
25117.9
21122.1
7428.02
66972.1
82951.9
73543.6
68256.2
20895
34818.2
-6988.9
35178.7
-32673.5
30845.2
53064.3
99534.2
185942
158653
169811
168068
112239
162732
31346
46629.2
160947
104703
9453.36
43821.1
155352
71947.9
173489
39939.6
151328
27488.5
82793.2
163203
25750.7
141223
86426.4
66511.2
28153.7
82686.4
157272
212668
219253
239064
233338
211518
232309
220076
196532
181313
189276
197545
184127
193038
202250
196404
202207
180444
191009
183661
193851
204100
211821
235597
223324
211760
207104
229964
217444
178626
165918
189812
174774
189092
166065
179133
178654
176145
170201
189870
168732
187059
180331
168825
157893
150032
160613
159932
157721
169634
189892
203996
213866
202336
199670
202164
191336
63940
69934.5
62604.1
70232
70542.5
63288.5
63343.8
58652.2
54173.1
58491.1
53319.9
58828.7
53775.7
58209.2
64185
69983.2
70013.9
63743.6
64091.5
70441.1
63712.8
58128.5
56575.7
51862.4
52475.7
53019.8
57201.1
57577.7
41862.7
38989.2
39668.4
37654.1
40190.2
39469.7
41387.1
46011.1
50153.1
46374.9
49151.1
46725.5
49579.6
45573.4
43096.6
40374.6
41711
43571.8
43917
40812.3
42672.7
44908.2
42836.8
47286.6
48131.4
48635.6
43388.2
44409.1
47777.7
114102
81030.2
89598.1
96692.1
80970.9
114629
74093.1
104582
81588.7
84899
89878.8
75354.8
101760
-53789.7
-59293.1
-51343.6
-62781.9
-67624.5
-63122.1
-69070
-43934.3
-58013.8
-47377.3
-61041.2
-73373.3
-61874.3
-69578.4
36491.6
8840.78
19971.5
20036.9
20805.5
33516.1
8716.46
51853.1
53738.3
37368.7
36972.6
67212.3
52781.5
50019.1
-966.966
4194.63
-7982.38
-7470.95
11023.5
-504.341
2931.05
-17194.9
-2190.37
-13180
-12340.2
-7822.66
-16349.6
-2883.99
-51738.1
-57787.9
-56262.6
-19947.7
-11345.3
-18982.3
209228
684103
1.2297e+06
340087
338353
972849
202744
77393.3
-310189
71577.3
-23151.7
161267
17105
-397327
199940
516706
307572
86097.6
773833
244835
81309.4
48918.2
64770.7
81783.1
-123562
193379
66902.9
-440367
-1.91329e+06
-1.34385e+06
1.50213e+06
1.69102e+06
-535246
-971052
3.45101e+06
7.17527e+07
4.1419e+07
3.31151e+08
4.71416e+07
1.53928e+07
-963809
-2.16483e+06
-1.58311e+06
-2.52581e+06
-523227
-1.89213e+06
-1.05344e+06
-3.91287e+06
991770
-1.43299e+06
-1.23593e+07
-1.94075e+06
2.59054e+06
-1.01348e+06
2.42055e+06
1.07084e+06
2.1282e+06
1.68134e+06
1.65342e+06
1.29487e+06
3.05144e+06
1.64401e+06
1.18043e+06
808904
1.68548e+06
1.39715e+06
1.06908e+06
-481542
1.68424e+06
746738
612918
379142
1.04635e+06
1.01197e+06
876668
2.30319e+06
2.3365e+06
1.22874e+06
-5.45571e+06
1.90927e+06
3.324e+06
-3.31277e+06
1.00317e+06
7.0965e+06
3.7883e+06
2.74563e+06
1.84481e+06
2.72658e+06
3.77985e+06
91965
-199842
591086
811705
587500
-119004
-185272
436303
693978
809711
525253
752157
561890
246870
901934
693937
2.24144e+06
2.21417e+06
975347
888557
3.53648e+06
627478
594952
602332
688867
677300
614586
633004
778488
1.0088e+06
831700
1.45286e+06
836738
731966
1.27217e+06
585758
650007
616060
602697
633243
602575
596314
764193
582602
1.79974e+06
1.98729e+06
809533
648124
1.40233e+06
318683
373056
348890
308979
305164
364508
305985
319603
339738
343130
287216
297808
363310
300389
272867
220003
249240
224243
256866
233919
258577
267243
224414
261128
210363
259782
226096
276897
139603
121380
139906
119477
138119
140187
119389
134488
104905
111399
131194
133030
113295
135872
167205
184696
161260
189040
160218
194601
164268
159930
188858
192390
155778
189497
158941
147667
21686.3
25705
23854.6
18821.6
19345.6
26200.2
19115.8
25847.7
33959.7
30794.9
29359.1
26157.6
30481
29302
21776.8
18310.1
25366.4
21508.7
22118.4
17965.1
25259.8
17702.9
11665.7
14863.9
11751.9
15384.3
13965.2
17208
14859
18102.7
14456.1
8329.69
10119.1
10530.1
2.01865e+06
2.90594e+06
-2.52879e+06
1.60441e+06
-487934
1.39237e+06
4.80758e+06
-1.06744e+06
-1.26684e+06
-1.63265e+06
-1.93089e+06
-1.05629e+06
-1.44966e+06
-1.26899e+06
1.35e+06
1.1059e+06
-248393
878120
1.60006e+06
78435.8
-219174
-62387.5
-79773.3
-5764.79
-31940.8
99356.5
30149.5
-51512.1
231737
-27305.3
18438.6
-22788.3
17226.2
-89088.8
1.83189e+06
1.89493e+06
-148715
1.45401e+06
108549
686599
477209
-14397.9
615855
190094
354705
-61016.9
10321.4
-253937
-311765
-73501
79441.3
-18037.3
-228644
1.7415e+06
1.85966e+06
1.67781e+06
-180073
254563
136254
437336
-152073
361870
223305
8975.46
-164595
1.22577e+06
1.00937e+06
1.22795e+06
-160470
379591
89822.1
137031
484187
116659
134684
317215
413636
570594
428638
-10948.6
787368
202440
-150722
356640
109683
376124
277683
646126
185526
97824.3
417992
170568
166483
113880
189310
298165
123759
1.2563e+06
923084
-419553
856150
1.33767e+06
-144051
-238004
-93834.3
-276038
-154086
-154923
-255026
-166427
-155137
-136667
-147180
-182789
-99277.2
-218143
-107098
-119585
-86669.1
-131041
-151311
-141164
-50696.7
692627
-136540
382934
498709
533966
-1.47599e+07
4.6197e+06
-5.15715e+06
-418775
-2.27561e+06
1.98956e+06
-1.36823e+07
-852267
3.17389e+07
5.42599e+07
6.21711e+07
-6.09132e+06
-1.10586e+08
-2.68859e+06
-1.69931e+07
-1.57102e+07
192276
-1.35483e+08
-1.35896e+07
-106072
-6.03823e+07
7.51949e+06
8.68093e+06
6.17625e+06
1.09643e+07
8.18211e+06
5.4836e+06
1.4503e+07
-1.07513e+06
701463
309608
-682709
273505
-1.3296e+06
710728
-2.41661e+06
-2.45213e+06
-1.95827e+06
-467673
-2.69256e+06
-1.48475e+06
346465
9.15994e+06
1.32807e+07
1.58025e+07
2.46238e+07
9.48124e+06
1.18153e+07
1.73647e+07
1.79421e+06
-1.99339e+06
-530641
4.96395e+06
-2.71735e+06
-9.39275e+06
4.03392e+06
3.68316e+06
-99734.6
1.69405e+06
-1.6725e+06
-2.8829e+06
-1.21481e+06
3.48576e+06
-9.32182e+06
-9.34374e+06
-1.9682e+06
-5.01617e+07
-1.27444e+07
-3.1902e+06
-2.13735e+07
5.36817e+06
-1.70675e+06
-3.0524e+06
1.6398e+06
-3.26274e+06
2.25183e+06
5.82587e+06
-305767
10216.8
108900
187106
-54518.8
14427.6
-97163.7
-126681
304750
-147287
247599
-81977.1
227735
253345
50478.5
-1.21099e+06
-552456
347449
207369
-1.17218e+06
571926
532169
1.7638e+06
-615888
110469
2.26088e+06
-476946
473407
613607
-1.57811e+06
-1.42352e+06
2.58015e+06
2.94969e+06
-1.56928e+06
885793
38627.4
139340
43802.9
330198
155860
-2116.08
3747.42
1.00534e+06
-71472.6
-567476
650688
-290914
520849
1.12676e+06
2.16166e+06
140382
-245250
-1.30044e+06
-615902
-249657
-1.11628e+06
2.44291e+06
207583
140370
702263
-407887
244792
1.22054e+06
1.44424e+06
-794470
-1.61367e+06
3.07895e+06
801538
-1.48404e+06
1.87521e+06
-146937
-171834
-128459
-186772
-119696
-254774
-175074
-235789
-190720
-224165
-228863
-201898
-374005
-290185
-333545
-483514
-276433
-435543
-411515
-314194
-324140
-273454
-327380
-279995
-271206
-374622
-173446
-137817
-175882
-184286
-164165
-48183.3
-31847.6
-33410.6
-71839.9
-48279.5
-16274.8
20161.4
-7059.27
26707.3
1576.92
-2843.84
16956.5
-116686
-170251
-157880
-151762
-126788
-49356.6
199905
13872.7
101145
-44151.6
8700.36
2255.23
-11335
36950.5
-17085.8
6397.84
38884.2
-121418
718762
905807
693893
-138413
-25802.6
-99658.3
-155907
-116401
-78004.1
-405459
-311802
-345916
-316629
-362751
-336330
-384555
-508057
-425218
-386206
-543635
-410339
-487477
-576819
301018
-119203
312292
181681
448684
-429690
-371630
-330688
-373174
-378225
-388435
-422666
330612
161965
274441
207025
188891
169353
279433
212543
41752.6
810906
1.08621e+06
296342
611320
214021
397114
188268
445954
857232
609004
608587
414017
312577
-40329
201582
13637.1
137193
44248.5
-20074.5
216297
156035
194824
212309
218942
159519
193218
205328
142958
126810
158359
178656
115380
180489
149929
125109
180432
78320.7
157186
119506
93685.7
180215
169156
217060
201001
207945
196452
216096
170759
263994
288733
241468
242592
272816
275135
223674
428578
544348
528901
355054
595972
366295
400255
410705
442520
579779
642817
606992
381438
415158
297829
244452
288106
240137
283492
246060
290223
434525
390032
389121
427584
426353
404019
435522
448824
378704
399669
405378
410445
442708
407238
480704
505332
428061
452470
476551