/*--------------------------------*- C++ -*----------------------------------*\
| =========                 |                                                 |
| \\      /  F ield         | OpenFOAM: The Open Source CFD Toolbox           |
|  \\    /   O peration     | Version:  2012                                  |
|   \\  /    A nd           | Website:  www.openfoam.com                      |
|    \\/     M anipulation  |                                                 |
\*---------------------------------------------------------------------------*/
FoamFile
{
    version     2.0;
    format      ascii;
    class       surfaceScalarField;
    location    "0.108/fluid";
    object      phi;
}
// * * * * * * * * * * * * * * * * * * * * * * * * * * * * * * * * * * * * * //

dimensions      [0 3 -1 0 0 0 0];
oriented        oriented;


internalField   nonuniform List<scalar> 
47458
(
0.00156782
-2.02357e-05
-1.7543e-05
-0.00168452
0.00172683
-2.32503e-05
-2.00572e-05
-0.001872
0.00192864
-3.06939e-05
-2.68835e-05
-0.0021347
0.0022188
-4.47564e-05
-3.98191e-05
-0.00253534
0.00266773
-6.96736e-05
-6.25503e-05
-0.00317565
0.00339153
-0.000113202
-0.000102123
-0.0042347
0.00459931
-0.000190235
-0.000172557
-0.00605215
0.00669285
-0.000333112
-0.000303506
-0.00931238
0.0104991
-0.000614829
-0.000563222
-0.0155331
0.0179028
-0.00122453
-0.00112728
-0.0285022
0.0337701
-0.00272281
-0.00251219
-0.0590815
0.0724119
-0.00707035
-0.00620704
-0.137164
0.171705
-0.0262441
-0.00821962
-0.369022
0.421729
0.000726904
-0.0533556
0.0130952
-0.0741368
0.0438641
-0.000195157
0.011782
0.00289859
0.00268448
7.86003e-05
0.00156142
-9.63057e-05
-1.73067e-05
9.01102e-05
-0.00165859
0.00169411
-0.000110352
-2.04623e-05
0.000118987
-0.00181763
0.0018663
-0.000145748
-2.77063e-05
0.000173284
-0.00204581
0.00212002
-0.000212089
-4.07997e-05
0.000268808
-0.00240196
0.00252025
-0.000328362
-6.31459e-05
0.000434783
-0.00297361
0.00316552
-0.00053004
-0.000101328
0.000726943
-0.00391001
0.00422966
-0.000883888
-0.000167807
0.00126222
-0.00548846
0.00603604
-0.00152816
-0.000288267
0.00230049
-0.00823186
0.00920628
-0.00276672
-0.000520084
0.0044866
-0.0132212
0.015053
-0.00533957
-0.00100202
0.00961627
-0.0228741
0.0265662
-0.0112563
-0.002094
0.0234732
-0.0428285
0.0505063
-0.0267665
-0.00444255
0.0660239
-0.0776749
0.0824641
-0.0723022
0.00138533
0.200113
0.026604
-0.167418
0.0712458
-0.130949
-0.999516
0.918546
-0.53244
0.734811
-0.121393
0.000141127
0.00155198
-0.000152684
-1.65548e-05
0.000161201
-0.00162021
0.00164556
-0.000174211
-1.98336e-05
0.000212561
-0.00173504
0.00177067
-0.000229435
-2.6799e-05
0.000308446
-0.00190272
0.00195765
-0.000332505
-3.90412e-05
0.000474726
-0.00216622
0.00225349
-0.000510693
-5.90646e-05
0.000759904
-0.00258633
0.00272605
-0.000814597
-9.2013e-05
0.00125266
-0.00325931
0.00348351
-0.00133613
-0.000147474
0.0021272
-0.00433973
0.00469944
-0.00225203
-0.000243566
0.00374536
-0.00607225
0.00664849
-0.00391969
-0.000416316
0.00691631
-0.00883454
0.00974071
-0.00710775
-0.000740408
0.0135856
-0.0130579
0.0143465
-0.0135582
-0.00135851
0.0287357
-0.0181818
0.0189819
-0.0273015
-0.00228474
0.0634581
-0.0130517
0.00335951
-0.055335
0.00152559
0.074806
0.109372
-0.200749
-0.0574872
0.0740582
-0.229216
0.177841
-0.101566
0.188728
-0.0357804
0.000175125
0.00154163
-1.54411e-05
0.000199301
-0.00157755
0.00159117
-1.84021e-05
0.000261489
-0.00164044
0.00166053
-2.44783e-05
0.000377114
-0.00173578
0.0017671
-3.48819e-05
0.000574883
-0.00188521
0.00193425
-5.14353e-05
0.000905941
-0.00211814
0.0021938
-7.75745e-05
0.00146059
-0.00247315
0.0025861
-0.000119386
0.00239963
-0.00299225
0.00315131
-0.000187001
0.00401652
-0.0036949
0.00389339
-0.000297155
0.00685026
-0.00448464
0.00465218
-0.000475792
0.0118476
-0.00482445
0.0046637
-0.000745265
0.0202815
-0.00266844
0.00113602
-0.00100624
0.031001
0.00870837
-0.014739
-0.000263485
0.0198347
0.0453912
-0.0593459
0.00736052
-0.0182988
0.0210208
-0.0193176
0.014853
0.0017445
6.81904e-05
0.00156534
-1.98919e-05
-8.35655e-05
7.77009e-05
-0.00167418
0.00171358
-2.27924e-05
-9.51919e-05
0.00010391
-0.00184848
0.001901
-3.00494e-05
-0.000127214
0.000153716
-0.00209151
0.00216903
-4.36482e-05
-0.000188033
0.000240896
-0.00245958
0.00258061
-6.7579e-05
-0.000294309
0.000391948
-0.00304266
0.00323802
-0.000108855
-0.000477989
0.000658761
-0.00399577
0.00432093
-0.000181165
-0.000801074
0.0011489
-0.0056028
0.00616158
-0.000313068
-0.00139094
0.0021029
-0.00840907
0.00940917
-0.000566985
-0.00252839
0.00411369
-0.0135408
0.0154296
-0.00109542
-0.00489197
0.00883076
-0.0235049
0.0273196
-0.00230233
-0.0103167
0.0216148
-0.044217
0.0523768
-0.00526321
-0.0244702
0.0637635
-0.087099
0.10136
-0.0112496
-0.0667148
0.165289
-0.129348
0.11983
0.00291021
-0.158571
-0.200261
-0.108417
-0.0343309
0.102213
0.0620117
0.0574683
0.0718069
0.0497607
6.72415e-05
7.72861e-05
0.00155922
-9.4712e-05
-8.23907e-05
7.902e-05
8.84027e-05
-0.0016492
0.00168209
-0.000108271
-9.66802e-05
0.000106688
0.000116459
-0.00179664
0.0018417
-0.000142606
-0.000130383
0.000157021
0.000168848
-0.0020069
0.00207495
-0.000206566
-0.00019174
0.000242691
0.00026035
-0.00233245
0.00244016
-0.000317987
-0.000296112
0.000388257
0.000417894
-0.00285088
0.0030238
-0.000509443
-0.000472987
0.000639856
0.000692206
-0.00369102
0.00397555
-0.000841698
-0.000777592
0.00109067
0.00118684
-0.00508447
0.00556149
-0.00143732
-0.00132028
0.00194379
0.00212431
-0.00744391
0.00826488
-0.00255669
-0.00233849
0.00367099
0.00402754
-0.0115647
0.0130305
-0.00480163
-0.00437398
0.0074666
0.00822191
-0.0190597
0.0218029
-0.00967283
-0.00877625
0.0165897
0.0181407
-0.0335253
0.039144
-0.0211138
-0.0192587
0.0423075
0.0398693
-0.0663589
0.0818092
-0.0489801
-0.0486962
0.194608
0.0358508
-0.166624
0.203133
-0.0915154
-0.175541
0.364194
0.0615045
-0.216943
0.165002
-0.00518339
-0.368372
6.42996e-05
0.000138808
0.00155002
-0.000150162
-7.87778e-05
7.65491e-05
0.000158236
-0.00161163
0.00163464
-0.000171053
-9.36237e-05
0.000103
0.000208034
-0.00171606
0.00174859
-0.000224559
-0.000125771
0.000149675
0.000300317
-0.00186846
0.00191817
-0.000323811
-0.000182558
0.000226525
0.0004598
-0.00210642
0.00218507
-0.000494681
-0.000276176
0.000352895
0.000730608
-0.0024831
0.00260758
-0.000783364
-0.000429896
0.000563453
0.00119378
-0.0030802
0.00327761
-0.0012739
-0.000685119
0.000923854
0.00200417
-0.00402403
0.00433403
-0.00212347
-0.00111967
0.00156341
0.00347286
-0.00549858
0.00597879
-0.00363997
-0.0018853
0.00274064
0.00626545
-0.00775683
0.00847442
-0.00645796
-0.00328132
0.00496106
0.0118851
-0.0110165
0.0119766
-0.0119358
-0.00589464
0.00899895
0.0239536
-0.0149324
0.0157994
-0.0230886
-0.0107582
0.014869
0.052331
-0.0167352
0.0158058
-0.04698
-0.0193162
0.0228658
0.122292
-0.000562062
-0.0137642
-0.0969066
-0.0339272
0.0657809
0.0500004
0.113959
-0.17178
-0.0457157
-0.0122021
5.99818e-05
0.000172218
0.00153976
-7.34925e-05
7.10521e-05
0.000195714
-0.00157013
0.00158179
-8.69289e-05
9.40713e-05
0.000255847
-0.00162432
0.00164177
-0.000114955
0.000133721
0.000367384
-0.00170718
0.00173442
-0.000163203
0.000197139
0.000556973
-0.00183722
0.00187985
-0.000240472
0.000297389
0.00087203
-0.00203881
0.00210395
-0.000362561
0.000456573
0.00139495
-0.0023426
0.00243826
-0.000555853
0.000711543
0.00226915
-0.00277726
0.0029079
-0.000864001
0.00112292
0.00374918
-0.00334247
0.00349562
-0.00135851
0.00178145
0.00628422
-0.00392181
0.00402634
-0.00214515
0.00277305
0.0106252
-0.00401914
0.00382405
-0.00332782
0.0039151
0.0177801
-0.00204827
0.000827332
-0.00475556
0.00358354
0.0277854
0.00618826
-0.0100881
-0.00497745
-0.00432511
0.0329398
0.0281379
-0.03625
0.0013301
-0.0267365
-0.00559775
0.0586541
-0.0610965
0.0223307
0.000122486
0.00155922
-1.9065e-05
-0.000132515
0.000139352
-0.00164878
0.00168114
-2.17326e-05
-0.000150685
0.000185762
-0.00179136
0.00183404
-2.84304e-05
-0.000200675
0.000273603
-0.00198764
0.00204963
-4.07687e-05
-0.00029513
0.000426069
-0.00227958
0.00237439
-6.20106e-05
-0.000458657
0.000686743
-0.00273189
0.00288106
-9.81391e-05
-0.000736968
0.00113766
-0.00344906
0.00368794
-0.000159803
-0.00121505
0.00193998
-0.00460421
0.00499198
-0.000267674
-0.00205679
0.00342808
-0.00648765
0.00712296
-0.00046424
-0.00359331
0.00634108
-0.0095745
0.0106115
-0.000839605
-0.00652843
0.0124202
-0.0145403
0.0161452
-0.00158736
-0.0124223
0.0258809
-0.0216719
0.0235541
-0.00306218
-0.0246787
0.0555052
-0.0268387
0.0258312
-0.00544496
-0.0490214
0.103672
-0.00662679
-0.00776714
-0.00651152
-0.0827329
0.0866992
0.0606554
-0.0154203
-0.0688407
-0.0148563
-0.0168223
-0.0139246
-0.0174753
0.000120711
7.4091e-05
0.0015535
-9.08094e-05
-0.000130573
0.000140985
8.44091e-05
-0.00162618
0.00165281
-0.000103443
-0.000152251
0.000189362
0.000110136
-0.00174458
0.00178048
-0.000134903
-0.000204191
0.000277428
0.000157704
-0.00191127
0.00196485
-0.000193005
-0.000298714
0.000426735
0.000239713
-0.00216563
0.0022487
-0.000292999
-0.000458673
0.00067719
0.00037757
-0.00256172
0.00269204
-0.000460637
-0.000725888
0.0011022
0.000611277
-0.00318617
0.00339289
-0.000743763
-0.00117654
0.00184197
0.00101674
-0.00417795
0.00450612
-0.00123269
-0.0019533
0.00317996
0.00174543
-0.00574868
0.00626582
-0.00210467
-0.00333722
0.0057131
0.00310919
-0.0082068
0.00900319
-0.00372005
-0.00589861
0.0107661
0.00575915
-0.0118979
0.0130267
-0.00682181
-0.010832
0.0213833
0.010901
-0.0166734
0.0178165
-0.0128114
-0.020614
0.044437
0.0197305
-0.0193569
0.018392
-0.0235241
-0.039666
0.0290904
0.0914979
-0.00345022
-0.00847093
-0.0703373
-0.0382875
0.0307581
0.0877391
0.0895743
-0.117369
-0.0520738
-0.0385664
0.000115401
0.00013314
0.00154498
-0.000144027
-0.000124826
0.000136352
0.000151311
-0.00159158
0.00160903
-0.000163536
-0.000147182
0.000182346
0.000197009
-0.00167059
0.00169526
-0.000212683
-0.000196525
0.000263515
0.000281147
-0.00178613
0.00182358
-0.000303246
-0.000283571
0.000397359
0.000424139
-0.00196444
0.00202281
-0.00045645
-0.00042693
0.000615391
0.000661877
-0.00224127
0.0023314
-0.000710199
-0.000659713
0.000973103
0.00105774
-0.00266743
0.00280526
-0.00113024
-0.00103956
0.00156942
0.0017269
-0.00331266
0.00351721
-0.00183359
-0.00166741
0.00258773
0.00288248
-0.00425089
0.00453755
-0.00303194
-0.00272572
0.0043654
0.00492905
-0.00551388
0.00586796
-0.00511294
-0.00453855
0.00751397
0.00863095
-0.00690662
0.00719128
-0.00877242
-0.00766203
0.0130448
0.01533
-0.00741504
0.0070852
-0.0151348
-0.012914
0.0220342
0.0267553
-0.00337682
0.000621321
-0.0253011
-0.0207293
0.0310145
0.0416627
0.0160019
-0.0255908
-0.036507
-0.0265619
0.000309917
0.0303692
0.0620158
-0.0678943
-0.0229157
-0.00185005
0.000107693
0.000165192
0.00153524
-0.000116501
0.000126735
0.000186927
-0.0015522
0.00155904
-0.000136854
0.000166964
0.000242201
-0.00158505
0.00159611
-0.00018002
0.000236071
0.000343974
-0.00163843
0.00165615
-0.000254176
0.000346847
0.000514483
-0.00172294
0.00175053
-0.00037299
0.000520986
0.000792944
-0.00185226
0.00189328
-0.000559227
0.000793498
0.0012438
-0.00204006
0.00209713
-0.000849351
0.00122055
0.0019743
-0.0022894
0.00235875
-0.00130079
0.00188945
0.00316165
-0.00256325
0.00262227
-0.00200064
0.00292069
0.00508287
-0.00271007
0.00268545
-0.00306434
0.00442594
0.00812194
-0.00228484
0.0019821
-0.004589
0.00628562
0.0125927
-0.000186386
-0.000829993
-0.00643354
0.00738865
0.0178576
0.00578053
-0.00822118
-0.00753875
0.00392377
0.0192025
0.0180806
-0.0219155
-0.00451556
-0.0100594
0.00539138
0.0312317
-0.0328179
0.00732522
-0.00716967
0.0045928
0.0324539
-0.010999
0.0171078
0.0245012
0.00218132
0.0121922
-0.0618222
-0.0789242
0.332034
-0.160646
0.107132
-0.497921
-0.294612
0.497631
-0.705727
-0.350059
0.175814
0.491773
0.681367
-0.188614
0.18049
0.169185
0.00434429
0.08825
-0.00539882
-0.019264
-0.0470273
-0.0162707
-0.0251468
-0.205074
-0.244257
0.208347
-0.0259629
0.291893
-0.0267494
0.11822
-0.391925
0.404675
0.0333449
-0.137688
-1.43413
-0.116896
0.0535236
-0.354257
0.00814138
0.0628673
0.0532428
0.0671539
0.0513975
-0.0239083
-0.22553
-0.0860451
0.107942
0.201204
-0.00430835
0.00724106
-0.0380466
-0.394828
0.0102179
0.007554
0.00959274
0.0244722
0.194673
-0.267302
-0.0609651
-0.0956139
-0.249507
0.0877726
0.341434
0.160789
0.135364
-0.146234
-0.42199
0.0920028
0.014514
-0.150566
-0.218634
0.41338
-0.110469
0.0518193
0.17411
0.206689
-0.21266
-0.183794
-0.0331601
0.0296903
-0.0261866
-0.0249704
0.00317016
0.0335838
0.182142
-0.115422
-0.019971
0.165371
-0.184086
0.0551923
0.141538
0.0159584
0.0911665
0.0377678
-0.0447911
-0.00683724
-0.0932321
0.0117177
0.0522874
-0.0516818
-0.0749052
0.0528245
0.0124886
0.0119097
0.0127412
0.0672215
-0.0293429
-0.0693263
0.0106748
-0.010088
0.009945
0.00806895
-0.0828343
0.0585741
0.186487
-0.325911
0.0133525
-0.220553
0.0571344
0.00143972
-0.00134913
0.012094
-0.00907697
0.0491365
0.0864081
-0.0088182
-0.00614034
-0.0137169
-0.0103597
-0.0097831
-0.0979973
0.0838526
-0.0323949
0.157695
0.0104575
-0.121524
0.0650184
-0.0103791
-0.0936493
0.129806
0.00553189
0.00397516
0.00304619
0.00695215
-0.00875019
0.00992243
0.00660723
0.0101524
0.00496271
0.0365909
-0.013515
-0.0384864
0.00611408
-0.00215367
-0.00667069
0.0080179
0.0016806
0.0861424
0.0214607
-0.113683
-0.0610997
-0.0108984
0.116077
0.0398556
0.00620119
0.00332608
0.00540541
0.00377621
-0.00148061
0.00757125
0.00129087
0.00543338
0.0285906
0.123942
0.103514
0.0290426
-0.147133
-0.13683
0.0448304
-0.0673616
0.0633726
-0.0587313
0.0178719
0.0804182
0.143881
-0.164775
-0.00469638
-0.0548028
0.232083
-0.202305
-0.0425584
-0.359949
0.314135
0.0582103
0.0137301
0.116687
-0.0198078
-0.0694324
-0.0469304
0.00172691
0.00732191
-0.00319352
-0.938054
0.452722
0.577327
0.132091
0.399165
0.000493992
0.131884
0.099362
-0.254826
0.098346
0.271521
-0.17893
0.122094
0.190139
-0.323747
-0.290175
0.403883
-0.250481
0.193163
0.319983
-0.0933961
-0.388105
0.285888
-0.283016
0.253883
-0.145798
-0.0569744
-0.0528045
0.0260369
0.161416
0.068088
-0.0645268
-0.198858
0.280063
-0.0543565
-0.112857
0.232841
-0.0207281
0.127311
0.0111738
-0.20836
-0.14223
0.339192
0.479131
-0.392538
-0.228779
-0.196981
1.17336
-1.25492
0.107602
-0.0225834
0.13651
-0.0682153
0.166914
-0.905629
0.183263
0.156041
0.165543
0.16236
-0.0443261
0.230181
0.100515
0.00164245
-0.0576118
-0.230341
0.641563
-0.457184
-0.909018
0.231554
0.170801
0.23315
0.171411
0.252862
0.288674
0.260955
0.288779
-0.16822
0.0718135
0.002536
0.203682
-0.0725454
0.41217
0.0572224
0.0294008
-0.0808701
0.0141064
0.0580544
-0.03273
-0.0266323
-0.0294358
-0.0981172
0.0347198
0.123863
-0.0080681
-0.000648052
-0.000471823
-0.113752
-0.0775922
0.11689
-0.0899883
0.0197814
-0.0341996
0.0337941
0.00403396
-0.00996625
0.0532926
-0.046936
-0.00581428
0.0263332
-0.034439
0.0266606
0.0784563
-0.00248764
0.0552561
0.0232875
-0.0654477
0.00527912
-0.0158857
0.0689556
0.0906985
-0.102223
0.0115361
-0.068964
0.0784551
-0.157245
0.0942148
0.158185
0.0985389
0.159764
-0.36448
-0.39742
0.0722291
0.0929624
0.0858851
0.0789545
-0.0907891
0.093467
-0.000745119
0.0831992
0.00669402
-0.0918249
0.0886053
-0.0633275
-0.0330855
0.00904495
-0.000663512
-0.00244108
0.00842659
0.0338358
0.00656937
0.0282235
0.00329915
-0.0194781
-0.0192177
-0.0177109
0.0179531
0.0809241
0.031831
-0.00736019
-0.0412437
0.0201057
-0.0237656
0.0605578
-0.0604323
0.0271717
-0.00323433
-0.00430657
-0.00348773
-0.00388352
0.0786021
-0.0186907
-0.0195098
-0.01901
-0.0189015
-0.0210044
-0.0174774
0.00702685
0.0175497
-0.00496148
0.0188703
-0.0953181
0.0924532
0.0808868
0.128344
0.0776404
0.00520487
-0.0798375
0.0291895
0.00877005
0.00810586
0.00810849
-0.0488648
0.0514569
0.0470735
0.0420599
0.0802518
-0.00182753
-0.0900344
-0.0301001
0.0441627
-0.0099829
-0.0639159
0.0685361
0.0114621
0.0106694
0.0445576
-0.0152941
-0.0462396
0.0112788
0.0258451
0.00240894
0.00204005
0.00225134
-0.032427
0.0383458
-0.0108415
0.0108868
0.0157412
0.0528151
0.0227029
0.0200692
0.00282768
-0.0247706
0.0055901
0.0117543
-0.00826091
0.0335575
0.0284302
-0.0323763
-0.0151042
-0.0153274
-0.0151032
-0.0150829
-0.0215586
-0.0527754
0.0176835
0.000389804
0.0503676
-0.0132982
0.0235144
-0.0132287
-0.0133628
-0.0134876
-0.0114442
-0.00324003
0.0562579
0.00495313
0.0306875
0.0372171
-0.0386717
0.00729393
0.0102263
0.0013329
0.00130151
0.00120186
0.0336461
0.0203346
-0.00604437
0.0104957
0.00357868
0.0288592
0.0111823
-0.0146
-0.00861675
-0.00861099
-0.00849672
-0.00841309
0.000420642
-0.0280678
0.00528733
0.0267718
-0.00728897
-0.0072142
-0.00740401
-0.00738447
0.00147628
0.372508
-0.116342
0.181753
-0.462123
0.330972
0.130993
0.239274
0.22649
-0.903838
0.108197
-0.235594
0.353046
0.0372455
-0.0124716
0.170095
-0.420401
0.28251
0.0921335
0.11012
-0.0697041
-0.0224257
-0.0382664
-0.120863
-0.188874
0.0873803
-0.0871896
0.0715062
-0.0774123
0.0542144
0.0321282
0.0704905
-0.157839
0.0157031
0.334562
-0.031122
0.207907
0.355026
0.11871
0.210886
0.00716581
-0.418911
-0.187439
0.236903
0.0462265
0.170981
0.103483
-0.72199
0.028584
0.0863686
-0.00955619
-0.0229897
-0.0533065
0.00425875
-0.0179329
-0.00592318
0.0184477
-0.00723016
0.0523065
-0.000861112
-0.0469274
0.00921446
0.025761
0.0664497
-0.00496448
0.0956016
-0.0578792
-0.917242
0.639136
-0.614724
0.497777
-0.275774
0.503879
-0.0744525
0.0933122
0.0231998
0.0567273
-1.46473
-0.0844753
-0.16174
-0.211643
0.0672257
0.686611
-0.331775
0.0177751
-0.242864
-0.0763425
0.0773586
0.159583
0.159151
0.150449
0.0366417
0.0873704
-0.300551
0.0945446
-0.120922
0.281358
0.0558861
-0.0863997
0.00837299
-0.303409
0.0191951
-0.0340899
0.0535786
0.0161463
-0.0235254
0.0200068
-0.0257914
0.0356857
-0.148089
-0.0538921
-0.00537395
-0.00580363
-0.00595009
0.0115608
0.0475924
-0.00410723
0.0685503
0.032935
-0.0653518
0.00861471
0.236698
-0.0154277
0.00176789
0.0112222
0.090922
-0.00179734
0.00958451
-0.0227557
0.0207944
0.00983985
-0.0174626
-0.00301475
0.00743832
-0.0120243
0.00546392
-0.0497324
0.00336745
-0.0103528
-0.00746805
-0.0176312
0.034378
-0.0672517
-0.0336149
-0.0464544
0.00924941
0.103752
-0.0160766
0.00428965
0.0096113
0.0544841
0.0311426
0.0694065
-0.0238809
0.213418
-0.0572376
0.0296315
-0.0248986
-0.150441
-0.0102238
0.09007
0.040251
-0.0553219
0.223774
0.034542
0.0320531
-0.173237
-0.018489
-0.0205468
0.209411
0.0928799
-0.191801
-0.0101711
-0.121043
0.283851
0.308912
-0.220096
-0.0334557
-0.328215
0.2255
0.235066
0.286294
0.198438
-0.691689
-0.755754
0.158443
0.184985
0.153963
0.175792
-0.798414
-0.982759
0.216135
0.180016
0.244701
0.196875
0.253072
0.364343
0.342043
0.29745
0.170573
-0.024674
-0.0762893
0.0212294
-0.181627
0.0611839
0.205706
0.0401639
-0.0664963
0.0697755
0.0423577
-0.0266341
-0.0647571
-0.105434
0.0340269
-0.156086
-0.0165641
0.0461266
0.0982054
0.010541
-0.083753
-0.00228537
0.147867
0.0591574
0.0288284
-0.073346
0.00278054
-0.0199063
0.0392644
-0.0264389
-0.0736508
0.0691659
0.0208121
0.0932924
-0.0117734
0.0893424
0.0474192
0.0264752
-0.0145484
-0.018754
-0.0569452
-0.0170121
0.0214392
0.0233999
0.0456004
-0.0181701
0.0560971
0.0509116
0.0107317
-0.0487822
-0.0805866
-0.00885576
-0.00722316
-0.00878284
-0.00726133
0.0454594
0.107313
-0.0247493
-0.0252169
-0.0247099
-0.0257927
0.0453739
0.10791
-0.0271644
-0.025289
-0.0239204
-0.0273194
-0.011135
-0.00985031
-0.00963063
-0.0109293
-0.0188821
0.0116289
-0.0280856
-0.00799845
0.0223365
0.0222952
-0.00947865
0.0481016
-0.0187715
0.0185378
0.00910125
-0.00616108
-0.024981
0.00701955
0.0177305
-0.00485141
-0.0132399
0.039618
0.0214184
0.0110227
-0.0287618
-0.00752316
-0.0150333
0.0067772
-0.0047151
0.00851139
0.0128537
0.00730505
0.017034
-0.00506503
-0.015328
-0.0757094
-0.0329449
0.0747246
-0.0330809
-0.0167332
-0.0370459
-0.01664
-0.0167984
-0.0169929
-0.0175754
-0.0588311
-0.00619529
-0.00719925
-0.00639587
-0.018113
-0.0177951
-0.0180672
-0.0168995
0.00825298
0.00916574
0.0116599
0.00956129
-0.0110021
-0.0150009
-0.00941492
0.00912607
-0.0171821
0.0140838
-0.015502
0.00833499
-0.00175726
-0.0508418
0.00381302
0.0044158
0.0534901
-0.00911116
-0.022206
0.0191506
0.00962118
0.00301903
0.00743708
-0.0105869
-0.0515361
-0.00038116
-0.081254
-0.0132821
0.0186065
-0.00810118
0.118449
0.0085331
0.00263331
-0.0179982
-0.00816979
-0.00288256
-0.0101075
-0.00389824
0.00192661
0.0109038
0.00117527
-0.0150786
-0.000290401
0.0187816
-0.00268082
-0.00248257
-0.00424865
0.00329826
-0.00264103
-0.0011347
0.00472608
0.00487635
0.000101058
-0.000392852
-0.00541546
0.000117985
0.00221491
-0.0132294
-0.00241808
0.00831828
-0.00201083
0.0182772
-0.00911741
0.00159813
0.0100328
-0.0187778
-0.00154868
0.00103033
-6.48568e-05
-0.0095243
-0.0074949
-0.0139986
0.00699564
0.00895727
0.00886321
-0.005375
-0.0092759
0.00948991
0.00392667
0.00717363
-0.0041829
0.00391417
-0.00781651
-0.0123856
-0.0451545
0.00352851
0.0429647
-0.0187516
-0.0099117
-0.0100294
-0.00982195
-0.010048
-0.00160328
-0.01163
-0.0116888
-0.0115284
-0.0114399
-0.0052563
-0.00382119
0.00800704
0.00911654
0.0031001
0.0045709
-0.00122318
-0.00950042
-0.00520679
0.00144756
-0.00259294
0.00292634
-0.0112693
0.00648021
-0.00407227
0.018384
-0.00871859
0.00357437
-0.0193771
0.0102104
0.00328849
-0.00253299
-0.00114529
-0.00385891
2.84835e-05
-0.00026264
0.00101228
0.00433904
0.0204475
-0.00951936
-0.00253675
0.0108236
-0.0212242
0.00180197
-0.000423761
0.0037176
-0.00205246
0.000238793
-0.0025233
0.00262549
-0.00085015
0.00262531
-0.00187739
-0.0171211
0.00898472
-0.000430973
0.00381128
0.000265009
0.00159065
0.0023316
-0.000797986
-0.00169283
-0.00236412
-0.000603885
-0.00859845
0.00105701
0.00409905
0.00392912
-0.000748718
-0.00436604
0.00641449
0.000635326
0.00272865
-0.000129038
0.000423842
-0.003186
-0.00712726
0.00602775
0.000468515
0.000287671
-0.0064807
0.197764
-0.185517
0.108872
-0.181799
-0.0601763
0.120855
-0.0028549
0.0446552
-0.0351857
0.0107722
-0.0173927
-0.155814
-0.00854996
-0.0221773
0.157052
-0.006734
0.00632228
0.0087376
0.0113597
0.0098026
0.00380238
0.0228668
-0.0286107
-0.00657441
0.00851796
-0.0565596
0.011175
-0.0682298
-0.167881
-0.00987731
0.192583
-0.184125
0.0501186
-0.044064
-0.125936
-0.354747
-0.0218286
0.125977
0.00580225
-0.00623081
-0.106964
0.120838
-0.00222861
0.0375272
-0.0994541
-0.0249184
-0.0350807
0.127149
0.0192798
0.0130743
-0.133148
-0.031255
0.20494
0.00573024
0.0376743
-0.291305
-0.0215473
0.0455087
0.0696131
0.0464924
0.0652092
0.00149883
-0.0015067
0.000271309
0.00185572
0.0332512
-0.0539308
0.0210417
0.0197608
0.0197405
0.0244496
0.014494
-0.0677529
-0.00723362
0.0803551
-0.176912
-0.00293882
0.0728622
0.0181653
-0.031906
0.0516717
0.0323405
0.0372505
0.0444081
-0.049604
-0.514235
0.0796211
0.0801259
0.0764536
-0.0135561
-0.0107286
-0.00710985
-0.0150356
-0.0548678
-0.00740298
0.0689633
0.0156331
-0.028072
0.00560089
0.00545537
0.00698064
0.00628418
0.026581
-0.0267266
-0.16237
0.0519535
0.149996
0.0328393
0.0239134
-0.125024
-0.100313
-0.101747
0.0800794
0.1659
0.0957657
0.154107
-0.144018
-0.0504253
0.0668644
-0.103231
0.129145
-0.0035008
-0.0136527
0.0943174
0.021396
-0.112343
0.0523946
0.0516279
-0.0782219
0.0843776
-0.00712175
-0.0077972
-0.083363
0.0448738
-0.00634542
0.0188037
-0.00604888
-0.0767254
-0.0308246
0.0172177
-0.085015
0.0516789
0.02862
0.0693519
-0.0185457
-0.0166001
-0.0167541
0.00667291
0.00708678
0.00541704
0.00536248
-0.027024
0.0146876
-0.00209135
-0.00337693
-0.00224186
-0.00684853
-0.0124603
0.0156198
-0.0795168
-0.0534078
0.0630286
-0.0127503
0.0672595
-0.0149315
-0.0136043
-0.015235
-0.0133879
-0.0156801
0.0554503
0.0298447
-0.021396
-0.0181066
-0.0190281
0.00771925
0.0075602
0.00581824
0.00566113
-0.0285006
-0.016678
0.0595679
-0.00884941
-0.00201062
-0.00264977
-0.00199458
-0.00507848
0.00970594
0.0135023
0.106922
0.0409063
-0.00621661
0.072286
-0.0821933
-0.0103136
0.0369838
0.0676923
0.0343536
-0.000798355
0.0377131
-0.0114735
0.0159331
-0.14975
0.0817119
0.151107
0.0988543
0.12899
-0.00394908
0.0339954
-0.0632752
-0.0102754
0.08199
-0.00720735
-0.0220852
-0.00532324
-0.015856
-0.0185403
-0.0116892
-0.0172254
0.0507159
0.0387707
-0.173164
0.0505864
0.0101233
0.046095
0.0347015
0.00539246
0.00839807
0.0140941
0.00547436
-0.00124381
-0.0362867
-0.15701
0.0428315
-0.00410407
0.0638653
0.019845
-0.0575301
0.00826143
-0.013119
0.0194335
0.892701
0.17639
0.700822
-0.860914
-0.728358
-1.53371
-2.15756
-0.143015
-0.300965
-0.16644
1.53548
1.15308
1.47197
-0.382524
0.325085
-0.637692
-0.0120649
-0.436359
-1.51604
0.617442
-0.481622
-0.070019
-0.191289
-0.182167
-0.0640234
0.149526
0.349148
-0.965704
-0.0334283
-1.03181
-0.658122
-0.92491
0.0361024
0.0332143
0.00131885
-0.0299017
-0.0389413
-0.00178922
-0.020313
0.000131856
-0.000842792
0.0214337
-0.0236575
0.0227058
0.00647707
0.011086
-0.00950796
-0.0233509
-0.0214062
-0.0194677
-0.00745813
0.0297056
-0.00635122
0.0249784
0.289015
0.470322
0.027902
0.0364699
0.0527065
-0.183217
-0.206975
-0.120422
-0.254986
0.00400002
0.0104742
-0.0121643
-0.0209231
0.0622165
0.0318406
-0.101389
-0.180038
-0.154731
0.0194214
0.0321657
0.0400312
0.0409178
0.0211971
0.0242568
0.0214578
0.0295349
-0.100393
-0.0727249
-0.172458
-0.0234875
0.170096
-0.141973
0.432393
-0.278158
0.00382795
0.00578071
-0.0261981
0.0425617
0.071074
0.0706413
-0.201411
-0.026266
-0.0226658
-0.0358976
-0.0314477
0.00209377
0.0191847
0.00503323
-0.0182014
-0.0458488
0.138418
-0.00921608
0.0245854
0.00811803
0.0116906
0.00665433
-0.174098
-0.0573627
-0.0568551
-0.0334125
0.0435585
0.0517207
0.098511
0.10866
-0.701994
0.0260309
-0.0162575
-0.0589334
-0.0369611
0.0254065
0.0157802
0.0110187
0.0180998
-0.0136228
-0.0067241
-0.00573454
-0.00404761
0.0186092
-0.0985654
-0.00522221
-0.0972847
0.12796
0.0417061
-0.429439
-0.0371947
-0.00413747
-0.00332468
-0.00481112
-0.0661266
-0.00596972
-0.0577537
-0.752192
0.0453674
-0.0120884
-0.0500171
-0.00583376
-0.00385177
0.0312455
0.0134989
0.0185631
-0.331066
0.0757297
0.119725
0.10484
0.0909993
-0.0377192
-0.00566981
0.0072393
0.0362172
0.00601771
-0.0060851
-0.000258803
-0.00118903
-0.0161293
-0.0198238
-0.00731496
0.00284287
-0.0318788
-0.00109306
0.00907606
-0.0207012
-0.00584001
-0.0140789
-0.00580375
0.0250181
-0.01152
-0.0456207
0.00170894
0.0424473
0.0132282
-0.00024375
0.0120974
0.00203152
0.000509131
-0.010892
-0.0304677
-0.00645491
0.000285182
-0.0360586
0.00221563
0.00791494
0.018271
-0.0405764
0.00390938
-0.0167396
-0.00192475
0.0370604
-0.0215858
0.0191021
0.00400799
0.0201122
-0.019447
-0.00218951
0.00240917
0.000199352
0.0127813
-0.0269013
0.013045
0.00252716
-0.0173863
-0.000512395
-0.0132777
-0.0354459
0.00424618
0.0189956
-0.00205381
0.0325289
-0.00872155
-0.000570013
0.00105351
0.00109754
0.00774249
-0.000601933
0.00434375
0.000634082
-0.000259796
-0.00500901
-9.57381e-05
-0.00704432
0.000788272
-0.00185153
-0.000246326
0.00635866
0.00506992
0.00120954
0.000743131
-0.00591636
-0.000375758
-0.000730307
0.00285946
0.00214897
0.000365809
-0.0023019
-0.00289642
-0.00017502
0.000561739
-0.000243225
0.00369326
0.000319347
0.000419099
0.00124406
-0.00024123
-0.00239399
0.00164194
0.000558939
0.00433279
-0.000292317
-0.00117131
0.0124814
0.00909188
-0.00104489
-0.00753368
-0.0105273
-0.0162836
0.0510851
0.0588717
0.0527981
0.0488292
-0.193812
-0.00772081
-0.00703949
-0.00797092
-0.10104
-0.00751206
0.00775246
0.0417808
0.00873376
-0.230251
0.00120001
-0.0401607
0.102549
-0.00468676
-0.00514167
-0.00147101
-0.00841085
0.00951387
0.00167507
-0.00688211
-0.0155009
0.0867901
0.111617
0.107485
0.0714904
-0.319225
0.022464
-0.00339723
-0.00306107
-0.00402185
-0.0479871
-0.0148137
0.00955809
0.0379607
-0.0540626
-0.00606811
0.0152438
-0.021503
0.00254185
0.0146251
0.00300226
0.00110831
0.00379698
0.00172047
-4.13901e-05
0.010017
0.00820997
0.00650356
0.0115599
0.0160262
0.0026706
0.00958573
-0.00195255
-0.00311145
-0.00170813
-0.00691528
0.0179179
0.0137555
0.0552615
-0.0652332
0.00442632
0.0598142
0.0397886
0.0316335
-0.0137938
-0.0158531
-0.0116575
0.00705116
0.00612677
0.00399798
0.00481798
-0.0192641
0.00321883
0.000472289
0.00221572
0.000759533
-0.026115
-0.0101711
-0.0173816
0.0154307
-0.00299069
0.00378141
0.00125651
0.00349183
-0.00685421
-0.00945721
-0.00106999
0.0125272
0.0919524
0.00529403
-0.000155509
0.00213308
0.00215397
-0.00403964
0.0160643
-0.000273331
0.000201538
-6.7321e-05
-0.0194747
0.0261981
-0.00212715
-0.0444026
0.0306204
0.0304494
0.13724
-0.0240466
-0.002749
-0.00189829
-0.00226421
-0.0067124
0.0225015
0.00547709
0.0866448
-0.0184244
0.0163451
0.00758393
0.00780418
0.00628484
-0.0287485
-0.0228858
-0.0261413
-0.0310319
0.10776
-0.00848914
-0.0240325
0.00876878
0.0086382
0.00903809
-0.0246043
-0.0240741
-0.0248331
-0.0251527
0.0944389
0.000261907
8.44632e-05
0.000437644
0.0259343
0.0132776
-0.00182617
0.029417
0.0155425
0.123742
-0.0221403
0.0915318
0.00449029
0.00307638
0.00492013
0.0029227
-0.00970803
0.00992597
0.00921557
0.00933344
-0.0274709
-0.0296325
-0.0309312
-0.029205
0.11654
0.00611698
0.000851793
0.000393487
0.000788986
0.0244264
-0.00820361
-0.00274167
0.0949696
-0.0181052
-0.00180411
-0.00229804
-0.00180619
-0.00438589
0.0116368
0.000815671
0.000444875
0.000853295
0.0209229
-0.00223801
-0.0959649
0.143408
0.138654
0.069087
-0.011546
-0.0172817
-0.0116484
-0.0169203
0.00344378
0.00771155
-0.0115798
-0.011391
0.00162425
0.00434779
0.00170023
0.00415344
-0.0073527
0.0672944
0.0130795
-0.0837349
0.00136802
0.00189764
0.00276097
0.00161274
0.00310832
0.0168538
-0.0292245
0.00197429
0.014205
0.280348
0.113166
-0.246399
-0.225161
-0.0292193
-0.0256211
-0.0164407
-0.0361945
-0.209178
-0.107677
-0.15584
0.17854
0.043574
0.250473
-0.0485433
0.252216
-0.203651
-0.176734
-0.0520922
0.189366
-0.000603358
0.00525387
0.0115418
0.00826871
0.00643856
0.395796
0.299769
0.214186
0.0911802
-0.237151
-0.164352
-0.197865
-0.068789
-0.332188
0.320455
0.195823
-0.141748
-0.0405174
-0.0479442
-0.0392296
-0.0624056
-0.0202298
-0.00605454
0.0633431
0.0152769
-0.00184532
-0.0503702
0.0765735
0.0612606
-0.110727
-0.0228092
-0.00426671
-0.00126279
-0.00275695
-0.00330936
0.0881632
0.150598
0.00423591
0.280283
-0.0309502
-0.0355742
-0.0448095
-0.0148571
0.232116
-0.109215
-0.358004
0.27126
0.0431515
0.0528349
0.051939
0.0436455
-0.0696587
-0.0286629
-0.0614617