/*--------------------------------*- C++ -*----------------------------------*\
| =========                 |                                                 |
| \\      /  F ield         | OpenFOAM: The Open Source CFD Toolbox           |
|  \\    /   O peration     | Version:  2012                                  |
|   \\  /    A nd           | Website:  www.openfoam.com                      |
|    \\/     M anipulation  |                                                 |
\*---------------------------------------------------------------------------*/
FoamFile
{
    version     2.0;
    format      ascii;
    class       volVectorField;
    location    "0.108/fluid";
    object      U_0;
}
// * * * * * * * * * * * * * * * * * * * * * * * * * * * * * * * * * * * * * //

dimensions      [0 1 -1 0 0 0 0];


internalField   nonuniform List<vector> 
16421
(
(1.19993 2.32564e-05 2.35105e-05)
(1.19952 7.00491e-05 3.25281e-05)
(1.19903 4.19754e-05 9.78916e-06)
(1.1989 3.96135e-05 1.62573e-05)
(1.19858 4.18115e-05 2.36053e-05)
(1.19806 5.03955e-05 3.80323e-05)
(1.19728 6.88234e-05 5.95885e-05)
(1.19605 0.000106086 0.000100548)
(1.19398 0.000184979 0.000171826)
(1.19025 0.000372366 0.000316505)
(1.18271 0.000874874 0.000687827)
(1.16454 0.0024727 0.00204725)
(1.10673 0.00825502 0.00878437)
(0.860662 0.01651 0.0497036)
(0.474222 -0.0677674 0.178164)
(1.19995 1.20121e-05 2.30538e-05)
(1.19976 4.67863e-05 3.6361e-05)
(1.1994 8.69641e-05 1.44234e-05)
(1.19937 0.000131041 1.78967e-05)
(1.19914 0.0001988 2.47318e-05)
(1.19874 0.000309736 3.69274e-05)
(1.19811 0.000490209 5.87724e-05)
(1.19709 0.000803035 9.70461e-05)
(1.19541 0.00136047 0.000162668)
(1.19255 0.002439 0.000290678)
(1.18737 0.00474287 0.000599414)
(1.17697 0.0104719 0.0016271)
(1.15238 0.0284645 0.00610886)
(1.08803 0.108944 0.0286294)
(0.7357 0.241894 0.117167)
(1.19995 2.1906e-05 2.24915e-05)
(1.19975 8.71733e-05 4.25878e-05)
(1.19939 0.000150404 1.97701e-05)
(1.19939 0.000221297 2.10066e-05)
(1.19921 0.000333089 2.6853e-05)
(1.19888 0.00051143 3.67058e-05)
(1.19839 0.000802488 5.63753e-05)
(1.19762 0.00128827 8.85747e-05)
(1.19642 0.00212138 0.00014615)
(1.19452 0.00360525 0.000247711)
(1.19156 0.00635251 0.000464349)
(1.18697 0.0116344 0.00111018)
(1.17968 0.0216584 0.00375774)
(1.16391 0.035368 0.0160991)
(0.708284 0.0247407 0.0950122)
(1.19995 2.61993e-05 2.19373e-05)
(1.19975 0.000105651 4.87213e-05)
(1.19941 0.000178876 2.44769e-05)
(1.19943 0.000260107 2.47331e-05)
(1.19931 0.000391562 2.83764e-05)
(1.19909 0.000597437 3.58877e-05)
(1.19878 0.000927002 5.23981e-05)
(1.19831 0.00146178 7.75793e-05)
(1.19761 0.00233696 0.000125672)
(1.19659 0.00375961 0.000202298)
(1.19519 0.00606028 0.000346618)
(1.19316 0.00960875 0.000733589)
(1.18865 0.014345 0.00236384)
(1.16698 0.0173324 0.0113927)
(0.675197 -0.00779435 0.0954009)
(1.19996 2.33497e-05 1.59276e-05)
(1.19973 6.97982e-05 7.60972e-05)
(1.19928 4.21207e-05 9.39099e-05)
(1.19918 3.94791e-05 0.000119203)
(1.19889 4.18784e-05 0.000173618)
(1.19844 4.88747e-05 0.000268448)
(1.19778 6.74587e-05 0.000427958)
(1.19674 0.000103014 0.000700062)
(1.19503 0.000176396 0.00118393)
(1.19204 0.000347184 0.00209902)
(1.18642 0.000798729 0.00400612)
(1.17472 0.00218785 0.00861585)
(1.1483 0.00717827 0.0220434)
(1.09576 0.0261152 0.0617705)
(0.928262 0.0911918 0.00693477)
(1.19998 1.15102e-05 1.5987e-05)
(1.19997 4.77183e-05 7.45605e-05)
(1.19967 8.76789e-05 9.13054e-05)
(1.19967 0.000129638 0.000116941)
(1.19949 0.000195699 0.000169952)
(1.19915 0.000302237 0.000260001)
(1.19863 0.000475612 0.000411822)
(1.19779 0.000769953 0.000668912)
(1.19645 0.00129289 0.00111657)
(1.19423 0.00227669 0.00193745)
(1.19055 0.00428406 0.00356717)
(1.18458 0.00881838 0.00716794)
(1.17721 0.020036 0.0160465)
(1.18816 0.045659 0.036298)
(1.28329 0.0494796 0.0222354)
(1.19998 2.13986e-05 1.54447e-05)
(1.19996 8.77958e-05 7.22261e-05)
(1.19968 0.000150206 8.69786e-05)
(1.19972 0.000218606 0.000110548)
(1.19959 0.000326644 0.000159213)
(1.19934 0.000498911 0.000241395)
(1.19894 0.000777253 0.000375777)
(1.19834 0.00123883 0.000598664)
(1.19742 0.00202117 0.000972178)
(1.19602 0.00338466 0.00161714)
(1.19407 0.00581726 0.00277985)
(1.19191 0.0101589 0.00496428)
(1.19194 0.0171527 0.00899593)
(1.20386 0.0228815 0.0149732)
(1.24264 0.0102284 0.0127461)
(1.19998 2.56882e-05 1.48541e-05)
(1.19997 0.000105717 6.9384e-05)
(1.19972 0.000177273 8.16737e-05)
(1.1998 0.000256865 0.000101818)
(1.19973 0.000384081 0.000144902)
(1.19958 0.000582997 0.000215743)
(1.19936 0.000899909 0.000329281)
(1.19903 0.00140846 0.000510851)
(1.19855 0.00222972 0.000797538)
(1.19791 0.00354872 0.00125941)
(1.19717 0.00561655 0.00201361)
(1.19655 0.00860439 0.00325267)
(1.19632 0.0118331 0.00520152)
(1.19659 0.0101263 0.00808869)
(1.20389 -0.040374 0.00952427)
(1.19996 2.38039e-05 2.589e-05)
(1.19973 6.95844e-05 0.000110743)
(1.1993 4.18953e-05 0.000150443)
(1.19923 3.96432e-05 0.000199023)
(1.19899 4.12715e-05 0.000290637)
(1.19861 4.70911e-05 0.000448467)
(1.19807 6.38888e-05 0.000708922)
(1.19725 9.57376e-05 0.00114572)
(1.19594 0.0001574 0.00189278)
(1.19377 0.000298598 0.0032027)
(1.18996 0.000674112 0.00556943)
(1.18263 0.00184412 0.00990681)
(1.16589 0.00624184 0.0171381)
(1.11083 0.0246503 0.0230896)
(0.845986 0.0867805 0.00750523)
(1.19998 1.09594e-05 2.57063e-05)
(1.19997 4.63636e-05 0.00011054)
(1.19969 8.46482e-05 0.000147989)
(1.19973 0.000124359 0.000195757)
(1.19959 0.000186603 0.000284782)
(1.19932 0.00028379 0.000435294)
(1.19891 0.000439899 0.000684052)
(1.19827 0.000699722 0.00109667)
(1.19728 0.00114788 0.00179046)
(1.19573 0.00195696 0.00297815)
(1.19341 0.00350635 0.00504902)
(1.19036 0.00669102 0.00863395)
(1.18819 0.0136858 0.0140833)
(1.19498 0.0298006 0.0176695)
(1.2382 0.0609769 0.00621429)
(1.19998 2.05601e-05 2.48608e-05)
(1.19996 8.60139e-05 0.000108363)
(1.19971 0.000145698 0.000142936)
(1.19978 0.000209961 0.000186864)
(1.19968 0.000310487 0.000269118)
(1.19949 0.000468572 0.000405195)
(1.1992 0.000720394 0.00062725)
(1.19875 0.0011287 0.00098617)
(1.1981 0.00180403 0.0015718)
(1.19718 0.00293536 0.0025273)
(1.19607 0.00484544 0.00408263)
(1.19537 0.0079695 0.00652386)
(1.19733 0.0123501 0.00974962)
(1.20794 0.0150581 0.0111706)
(1.2363 0.00832059 0.00326151)
(1.19998 2.45853e-05 2.36791e-05)
(1.19997 0.000103073 0.00010523)
(1.19974 0.000171899 0.000136009)
(1.19985 0.000246191 0.000174776)
(1.19982 0.000365045 0.000247277)
(1.19972 0.000548094 0.000364741)
(1.19956 0.00083568 0.000551864)
(1.19935 0.00128911 0.000846152)
(1.19906 0.00200206 0.0013056)
(1.19873 0.00310968 0.00201054)
(1.19846 0.00476763 0.00308159)
(1.19855 0.00697879 0.00464468)
(1.1993 0.00885095 0.00665707)
(1.19955 0.00533275 0.00798977)
(1.1964 -0.0479027 0.0045022)
(0.667428 -0.221737 0.240093)
(1.02188 0.127488 0.0377229)
(1.23989 0.891651 0.161769)
(1.07442 0.0259792 0.0870017)
(1.06181 0.0512485 0.110721)
(1.16612 0.0647238 0.0640728)
(1.2645 0.118345 0.0971141)
(0.53304 0.225849 0.124781)
(1.0381 0.0455316 -0.0199751)
(1.32517 0.121174 0.0287435)
(1.44224 0.0692439 -0.0963432)
(0.714916 0.0182365 0.0944245)
(1.30975 0.0789544 0.033223)
(1.39658 0.0322435 -0.0400205)
(1.27782 0.0272998 0.0337094)
(1.35079 0.00327765 0.0271854)
(0.687093 -0.0175989 0.0940788)
(1.27181 0.0135493 0.0323023)
(1.34273 -0.00231012 0.0314707)
(1.24274 -0.0271798 0.0253759)
(1.36553 -0.0632283 0.0224702)
(1.21067 -0.0515098 0.0217525)
(1.36459 0.0123288 -0.0333395)
(1.29352 0.0764509 0.0288358)
(1.39317 0.0193068 -0.0521149)
(0.852518 0.0859828 0.00357011)
(1.23423 0.0998408 0.00751006)
(1.39693 0.0812999 -0.0131635)
(1.35654 0.0801516 -0.0177018)
(1.20012 -0.0518358 0.00719361)
(1.33934 0.047355 -0.0154556)
(1.22562 0.0954527 0.00784155)
(1.38396 0.0693245 -0.0109652)
(1.33805 0.0627827 0.00297351)
(1.36773 0.0731459 -2.42697)
(-11.0822 -0.574836 -9.21223)
(1.24171 -0.0574082 -0.0279641)
(0.852283 0.088397 3.29965)
(0.837157 0.080296 -0.471651)
(1.13618 0.350731 0.0810027)
(1.15857 0.0480169 0.0174579)
(1.10772 0.050242 0.0317345)
(1.18185 0.0574527 0.0491763)
(1.26564 0.0889573 0.0651964)
(1.20493 0.0341356 0.0244684)
(1.25102 0.0332985 0.034826)
(1.4371 0.0214886 0.054829)
(0.75661 0.0765009 0.097434)
(1.46049 0.0998396 0.162524)
(1.52186 -0.0588227 0.0453258)
(1.37614 0.0738138 0.0980313)
(1.10283 0.0293017 0.0299165)
(1.16592 0.0177507 0.0127989)
(1.08534 0.00209583 0.0249567)
(1.20663 0.0259825 0.0206347)
(1.2469 0.0195083 0.0316031)
(1.20068 0.0110598 0.0136877)
(1.22045 -0.0115143 0.0239401)
(1.37532 0.000603576 0.0339652)
(0.701414 -0.00212559 0.0940485)
(1.30931 0.0198085 0.0562764)
(1.3866 0.00701821 0.0402615)
(1.29882 0.00825982 0.0511362)
(1.07521 0.00111591 0.0220621)
(1.1981 0.009751 0.0120346)
(1.204 -0.0196071 0.0211332)
(1.24644 -0.0406229 0.053432)
(1.34663 -0.093908 0.0417773)
(1.26001 -0.0029409 -0.042664)
(1.22199 -0.0168364 0.00929375)
(1.29614 0.0185213 -0.0349879)
(1.24694 0.00884807 0.0111587)
(1.27444 0.00137698 0.00697129)
(1.22626 -0.0277257 0.00932168)
(1.30802 -0.023747 0.00643006)
(1.20101 -0.0135802 0.0098102)
(1.2001 0.00566408 0.00876224)
(1.20078 -0.0221076 0.00836026)
(1.23426 -0.0749046 0.00479418)
(1.20549 -0.0526187 0.0105948)
(1.23047 -0.0962949 0.00752028)
(1.26074 0.0020621 -0.0116517)
(1.21872 -0.024076 0.00376239)
(1.29573 -0.00745952 -0.00691035)
(1.19792 -0.0199422 0.00619117)
(1.22043 -0.0856683 0.00211104)
(1.19573 -0.0508377 0.007614)
(1.21801 -0.0907648 0.0056459)
(0.967186 0.0706135 0.543259)
(0.648674 -0.126925 0.126964)
(-7.25763 -5.3433 1.27633)
(1.03816 -0.0284374 0.20458)
(0.675681 -0.0650126 1.54171)
(0.0958044 -0.07187 0.25545)
(0.975314 -0.0239705 0.308983)
(1.22354 0.166729 -1.26923)
(1.7664 0.157432 -0.17988)
(0.344692 0.106834 -0.362775)
(1.39287 -0.00257711 -2.01614)
(3.87673 12.5824 3.22273)
(1.75089 0.00105078 0.175655)
(2.10703 1.18751 0.733709)
(1.58062 -0.16688 -0.0683069)
(1.27859 0.0951112 -1.11577)
(1.4501 -0.0520704 -0.11266)
(1.46734 0.0852436 -0.269618)
(1.51118 -0.123272 -0.0982016)
(1.19737 0.4904 -0.569932)
(0.146708 0.0728921 -0.147876)
(1.90974 0.137458 -0.113676)
(1.70897 0.178887 -0.131512)
(1.4259 0.333367 -0.197987)
(0.207382 0.11672 -0.285415)
(1.45919 0.0183833 0.0352324)
(1.45046 -0.0808022 -0.0988504)
(1.51049 -0.063547 -0.00562499)
(1.42907 0.0164582 0.00554261)
(1.41906 0.0213904 0.0500446)
(0.734722 0.0662697 0.0972816)
(1.31996 0.0352436 0.0601703)
(1.34004 0.0531994 0.073389)
(1.3916 0.0211908 0.0399176)
(1.44548 0.00862885 0.0340923)
(1.39192 0.0303072 0.00354131)
(1.41738 -0.0271178 0.00923576)
(1.41956 0.0242677 0.0326573)
(1.40604 0.00531164 0.0289193)
(1.38826 -0.0310433 0.009706)
(1.41498 -0.00361121 0.0339531)
(1.3836 0.0277399 0.00413993)
(1.37483 -0.0180293 0.0391435)
(0.696882 0.00617267 0.0945244)
(1.27367 -0.0192251 0.0500466)
(1.29174 -0.00747077 0.0540429)
(1.36415 -0.051043 0.0340377)
(1.40694 -0.0265221 0.0361316)
(1.42542 -0.01538 0.0191402)
(1.38609 -0.0290982 0.0182503)
(1.41465 -0.0551747 0.0314358)
(1.41558 -0.0247357 -0.0287951)
(1.40334 -0.105304 0.0304305)
(1.2117 -0.0331379 0.0355835)
(1.24371 -0.0994252 0.0154394)
(1.25353 -0.0666896 0.0227905)
(1.38033 0.0994121 -0.0813575)
(1.32126 -0.109694 0.00306959)
(1.34178 -0.0615547 -0.00173642)
(1.36963 0.371164 -0.0354877)
(0.112961 0.072687 -0.0959779)
(1.918 0.128894 -0.0773096)
(1.37109 0.387207 -0.0821519)
(1.93396 0.1252 -0.0549855)
(0.0976965 0.0720554 -0.0503459)
(1.35707 0.374904 -0.01751)
(0.085528 0.0715714 -0.0261988)
(1.92601 0.11907 -0.0301817)
(1.93271 0.118193 -0.0219041)
(1.34568 0.374857 -0.00437443)
(0.0904896 0.0715696 -0.0163884)
(1.31249 -0.0712637 -0.00482072)
(1.34737 0.0344228 -0.0207749)
(1.3037 -0.100433 0.00254083)
(1.1998 -0.045008 0.00436979)
(1.22336 -0.0930182 0.00498155)
(1.22593 -0.0814624 0.001289)
(1.34556 0.0678251 -0.00265664)
(1.29549 -0.0943243 0.00295463)
(1.301 -0.0794243 -0.00390318)
(1.33338 0.371402 0.00631823)
(0.0838475 0.0713835 0.00435353)
(1.92339 0.115351 0.000677447)
(1.34172 0.37201 -0.00324203)
(1.91284 0.115468 -0.0188409)
(0.0816145 0.0712476 -0.0188658)
(1.33017 0.369376 0.00440363)
(1.9103 0.114013 0.0113626)
(0.0810058 0.0712583 0.0111409)
(1.29391 -0.0841639 -0.00204377)
(1.33282 0.0553641 -0.0136962)
(1.28922 -0.0905269 0.00471076)
(1.33005 0.0620062 0.00548425)
(1.28691 -0.0860895 0.00108082)
(3.04527 2.4843 -0.57706)
(1.41459 0.0380561 0.379624)
(3.20639 -0.525986 0.102448)
(1.46426 0.124978 0.0810832)
(1.02777 0.076431 0.0619391)
(1.17917 0.0528472 0.0461388)
(1.25635 0.0812912 0.0543765)
(1.10997 0.0248795 0.028001)
(0.966047 0.0747292 0.0156559)
(1.1889 0.0400826 0.0237985)
(1.21424 0.0815134 0.015434)
(1.27846 0.270623 -0.042359)
(0.349493 0.0847318 -0.0866563)
(1.33649 0.186953 0.0683454)
(0.88867 0.0811482 -0.00404667)
(1.3199 0.293024 -0.0129345)
(1.26466 0.182204 -0.0015347)
(0.32582 0.0836087 -0.0404613)
(1.33428 -0.0177695 -0.0478726)
(1.24572 0.0204493 0.0139278)
(1.25886 -0.00322612 -0.0465005)
(1.24798 0.0661449 0.00890715)
(1.33751 0.0397813 -0.00708484)
(1.24808 0.0218241 0.0116222)
(1.27676 0.00749847 0.0069629)
(0.960868 0.0750868 0.014798)
(1.18879 0.0378433 0.0197593)
(1.2079 0.0780051 0.013022)
(1.23114 0.276347 0.0065667)
(0.297702 0.0829331 -0.00452921)
(1.22753 0.183009 0.0119921)
(0.841248 0.0864165 0.00817732)
(1.23754 0.276341 0.00557121)
(1.22108 0.18291 0.0112185)
(0.294638 0.0825706 -0.00534113)
(1.32534 0.0297084 -0.011915)
(1.23592 0.0204234 0.00355131)
(1.25977 0.00775035 -0.0128757)
(1.27006 -0.590512 0.527833)
(0.456745 -0.115465 0.190061)
(0.766874 -1.5691 0.141771)
(1.26995 -0.0870049 0.447064)
(2.38955 -0.846798 0.648964)
(0.628818 -0.854335 0.253457)
(0.959444 -0.0440633 0.31735)
(1.04716 0.23426 0.365811)
(0.901111 1.55101 0.464558)
(0.88255 0.376002 0.0951705)
(1.41254 0.362544 0.366193)
(1.31908 0.722336 0.986141)
(1.1925 0.230382 0.202797)
(0.245201 0.436431 0.16733)
(1.40977 -0.156814 0.0243585)
(1.61427 -0.0460681 -0.247729)
(1.41194 0.0078773 -0.149197)
(1.68384 -0.156944 -0.110433)
(1.66406 0.406304 -0.296446)
(1.2529 0.0615435 -0.0421361)
(0.421877 0.082999 -0.149552)
(1.3805 0.161588 0.0590176)
(1.84848 0.040813 0.665412)
(1.41071 0.227673 -0.267251)
(0.439103 0.112998 -0.341429)
(1.30423 -0.0341366 -0.228067)
(1.3691 -0.109963 -0.112972)
(1.63129 0.142975 -0.11942)
(1.39894 0.0955131 -0.10333)
(1.49026 0.0449609 -0.176517)
(1.37163 -0.118936 -0.104849)
(1.45807 0.197923 -0.216006)
(1.59898 -0.0271297 0.0346601)
(1.60423 -0.081452 -0.269422)
(1.51498 0.0906377 0.00688339)
(1.66997 -0.199299 -0.122694)
(1.67105 -0.00838248 0.00464426)
(1.57085 0.0345343 -0.0732378)
(1.58443 -0.0176395 -0.0683583)
(1.65716 0.039807 0.00166321)
(1.65273 0.0330393 0.00219823)
(1.57477 -0.0228281 -0.070933)
(1.56707 0.0316928 -0.0724094)
(1.66086 -0.0173613 0.00315289)
(1.66449 -0.0461281 0.0048439)
(1.60957 0.027677 -0.0555588)
(1.57855 -0.0338728 -0.0730798)
(1.69224 -0.0046618 0.0153439)
(1.76443 -0.0822314 0.0195817)
(1.60402 -0.0308802 -0.0649868)
(1.71128 -0.00327707 -0.0416454)
(1.68341 -0.0699818 0.0176874)
(1.40845 0.216829 -0.052221)
(1.62271 0.114779 -0.0820539)
(1.34838 0.0683679 -0.034678)
(1.41682 0.0817651 -0.0381143)
(1.40564 0.177315 -0.0511968)
(1.63741 0.140317 -0.0459964)
(1.35255 0.123794 -0.0335105)
(1.25811 0.279251 0.00152211)
(0.865245 0.087763 0.00664908)
(0.302148 0.083109 -0.0140518)
(1.23421 0.184352 0.00637712)
(1.25168 0.184212 0.0186787)
(1.24473 0.277776 -0.0043976)
(0.309775 0.0835545 -0.0218139)
(1.38961 0.204663 -0.0141075)
(1.3913 0.0575484 -0.023739)
(1.62591 0.136594 -0.0183263)
(1.32805 0.125802 -0.00837689)
(1.6311 0.126039 -0.0308123)
(1.32848 0.108354 -0.0131042)
(1.38326 0.217168 -0.0122746)
(1.36953 0.21411 7.72132e-05)
(1.62163 0.129468 -0.0112276)
(1.31594 0.118231 -0.00460037)
(1.38358 0.0788369 -0.00381982)
(1.3751 0.209795 -0.0032179)
(1.61356 0.133289 -0.00686516)
(1.31421 0.124074 0.000378151)
(0.292683 0.0824804 0.00208073)
(1.60943 0.130447 -0.00199181)
(1.97863 2.8346 -0.556286)
(0.210779 0.133895 -0.490257)
(0.677805 1.48401 -0.584582)
(1.05044 0.138926 -0.0572539)
(3.38461 5.17971 -2.96719)
(-2.72547 -3.6752 5.94699)
(150.958 -124.706 -70.8678)
(3.77476 -1.48273 -0.120965)
(-171.267 26.262 144.311)
(1.02659 5.38916 -2.0297)
(-3.61726 0.2778 -2.19137)
(-0.220472 1.54523 -0.624838)
(0.240498 6.51078 -29.4112)
(1.49218 0.0665977 0.213186)
(0.719114 0.127878 0.102236)
(1.71787 -0.199265 0.223652)
(1.62584 -0.00307287 0.328709)
(1.6064 -0.0147298 0.180733)
(0.486591 0.0420656 0.0814549)
(1.44639 0.0528334 0.168326)
(1.56726 0.0421229 0.148697)
(0.393999 0.00903505 0.0779197)
(1.60191 -0.00125997 0.169821)
(1.41122 0.0671144 0.145783)
(0.43313 0.0519003 0.0819674)
(1.3662 0.0248236 0.123346)
(0.348883 0.0161685 0.0771019)
(1.54509 0.00880861 0.130682)
(1.37205 0.0108966 0.124803)
(1.53761 0.0188543 0.12859)
(0.34544 -0.011807 0.0767485)
(1.36627 -0.00311445 0.122164)
(1.5368 0.00868239 0.125626)
(0.342967 -0.016291 0.0764834)
(1.53957 -0.00375039 0.127134)
(1.36378 0.013375 0.120964)
(0.344189 0.0111889 0.0768069)
(1.29622 -0.0485339 0.121747)
(0.330262 -0.0258774 0.0760165)
(1.51056 -0.0688411 0.131296)
(1.31991 -0.0575065 0.124397)
(1.48633 -0.110739 0.122326)
(0.308556 -0.0645973 0.075596)
(1.43914 -0.172413 0.10737)
(0.296507 -0.0468229 0.0749463)
(0.302508 -0.969934 0.863263)
(0.456533 -1.64534 0.0598845)
(-2.30729 -3.51016 3.3403)
(-3.27888 -0.605157 0.787682)
(2.35738 -1.67475 0.969003)
(-1.1986 -0.155532 1.535)
(-0.68267 -1.68015 0.397386)
(0.264297 0.313456 -0.245368)
(0.0920423 0.135085 -0.46923)
(0.755047 1.09333 -0.704469)
(0.421621 0.476217 -0.202794)
(1.75248 0.321266 -0.279383)
(1.00411 0.231462 -0.314291)
(0.352615 0.433361 -0.305936)
(1.4407 0.216521 -0.444389)
(1.59756 0.198643 -0.181117)
(1.04998 0.157255 -0.325347)
(0.64492 0.622831 -0.132245)
(0.83824 0.755332 -0.359263)
(-1.67705 0.269312 -1.16476)
(0.166642 1.12486 -0.526242)
(0.638522 0.187016 -0.322123)
(0.229018 0.316391 -0.298633)
(1.26128 0.410197 -0.598131)
(0.0687774 0.150754 -0.480882)
(0.87096 0.918875 -0.679979)
(0.398559 0.451848 -0.210827)
(3.23416 -2.47645 0.190149)
(4.09648 -1.88727 0.0490379)
(11.2865 4.57813 -1.9396)
(267.523 36.5825 -178.295)
(-15.2284 -0.269575 -13.1453)
(3.96821 0.280078 -0.133984)
(4.70386 22.4421 3.97892)
(1.907 -0.917447 0.887758)
(1.01481 0.32134 0.0976444)
(1.7528 -0.311944 0.221832)
(1.78071 -0.126017 0.610061)
(1.30692 -1.24463 0.342232)
(3.28912 2.91197 1.05003)
(2.68694 -3.89802 -0.434863)
(-3.03302 -1.2475 -2.23751)
(-8.94395 -21.8246 -14.888)
(0.983081 -1.66823 -0.0944259)
(9.66757 4.32901 1.0628)
(1.17519 -0.110326 0.0430292)
(1.49107 0.167346 -0.248373)
(0.891232 0.00751934 -0.167834)
(1.26612 0.0453976 -0.157187)
(1.38472 -0.218246 0.0448453)
(1.73162 -0.293719 0.0892605)
(1.22966 -0.872018 0.301933)
(1.70082 -0.177911 -0.065169)
(1.15695 -0.16027 0.138036)
(-1.40938 -0.572312 -1.07014)
(0.584038 -0.141418 -0.17277)
(0.96998 -0.977599 0.172191)
(0.396558 0.446333 -0.321592)
(0.966202 0.356034 -0.10902)
(0.164111 0.0767322 -0.248781)
(0.958057 0.347886 -0.286173)
(0.419428 0.477071 -0.0968579)
(0.72892 0.660694 -0.34121)
(1.90252 0.0660353 -0.0884706)
(1.58021 0.338721 -0.121445)
(1.62998 0.294008 -0.155267)
(0.744433 0.700378 -0.0724262)
(0.715007 0.668063 -0.363907)
(1.28741 0.321445 -0.325727)
(1.90573 0.0407424 -0.127612)
(0.619701 0.642041 -0.114872)
(1.59489 0.246243 -0.203625)
(0.395411 0.456615 -0.361462)
(0.887778 0.571458 -0.47752)
(0.146403 0.0753928 -0.308924)
(0.401119 0.473842 -0.132853)
(0.901803 0.455628 -0.347745)
(1.61656 -0.0354704 0.0459633)
(1.72308 -0.214855 0.123087)
(1.63414 -0.0315092 0.130212)
(1.68947 -0.203699 -0.0569961)
(1.63504 -0.0196305 0.0416031)
(1.57365 0.0419579 -0.0335121)
(1.49855 0.0462965 0.0376211)
(1.65797 0.0431996 0.0185578)
(1.65079 -0.021245 0.0455119)
(1.61666 0.0368881 0.108445)
(1.64054 -0.0121754 0.12182)
(1.66094 0.0394174 0.0349825)
(1.38368 0.0255063 0.128008)
(0.352948 -0.0068557 0.0769021)
(1.545 0.031007 0.129876)
(1.37492 0.0382506 0.124698)
(1.55628 0.0195917 0.13446)
(0.359064 0.0207048 0.0775768)
(1.386 0.0524263 0.1308)
(1.57038 0.0274038 0.145538)
(0.37889 0.0283705 0.0786538)
(1.40181 0.0425381 0.137727)
(1.55333 0.040485 0.136582)
(0.365876 -0.00128104 0.0772524)
(1.66269 0.0447553 0.00606521)
(1.58883 -0.00573269 -0.0459874)
(1.67505 0.00290784 0.0138323)
(1.57691 0.0351673 -0.0672683)
(1.6726 -0.00231392 0.0238927)
(1.60272 0.029709 0.0916775)
(1.61436 0.0165811 0.0949903)
(1.65997 0.035799 0.020616)
(1.66505 0.0415892 0.0256748)
(1.62435 0.0232485 0.104272)
(1.67585 0.00726295 0.0314972)
(1.60944 0.0380471 0.0978787)
(1.65496 0.0275924 0.0207398)
(1.60361 0.00649062 0.0922608)
(1.59591 0.0183084 0.0908394)
(1.66264 -0.0111585 0.0221334)
(1.65727 -0.0271434 0.00118276)
(1.56985 0.0351415 -0.0730315)
(1.57021 -0.0296471 -0.0735581)
(1.6569 0.030491 0.00142232)
(1.65908 -0.0214698 0.0192796)
(1.59669 0.00918177 0.088008)
(1.59875 -0.00575317 0.0891486)
(1.65864 0.0235054 0.019034)
(1.34957 -0.0351377 0.121418)
(0.335468 -0.0407962 0.0761666)
(1.52694 -0.0373054 0.126835)
(1.34524 -0.0227777 0.121334)
(1.52914 -0.0360545 0.127058)
(0.340129 -0.00648393 0.0762458)
(1.35348 -0.00307191 0.123543)
(1.53201 -0.0152669 0.128168)
(0.341058 0.00604215 0.0764495)
(1.35683 -0.01655 0.122639)
(1.52995 -0.0102851 0.129427)
(0.339202 -0.0257859 0.0764962)
(1.663 0.0169251 0.00831985)
(1.56868 -0.0281035 -0.0713692)
(1.65393 -0.0319273 0.00384255)
(1.57828 0.0294489 -0.0650495)
(1.66505 -0.0449196 0.0213961)
(1.59618 -0.0392084 0.0895905)
(1.59229 -0.0373275 0.0892803)
(1.68776 -0.0180278 0.0294103)
(1.66295 0.00731913 0.0254308)
(1.59179 -0.0162825 0.0905205)
(1.65531 -0.0274597 0.0217948)
(1.59232 -0.0101178 0.0918613)
(1.74763 -0.0494205 -0.0404964)
(1.4789 -0.222568 0.031893)
(1.63942 -0.121698 -0.0397816)
(1.74537 -0.100072 0.0345947)
(1.58033 -0.0730735 0.0947296)
(1.57475 -0.13258 0.0876398)
(1.67936 -0.0752529 0.0329883)
(1.86159 -0.113062 -0.0532352)
(1.78414 0.0164606 -0.0700897)
(1.68272 -0.066259 -0.0579957)
(1.82862 -0.137319 -0.0216057)
(1.54821 -0.211555 0.0712672)
(1.5869 -0.0693128 -0.00887971)
(1.60266 -0.0567548 -1.45949e-05)
(1.62921 -0.0255309 0.0395866)
(1.62256 -0.0307249 -0.044836)
(1.62754 -0.00475628 -0.0188169)
(1.64063 0.0124059 -0.00847148)
(1.58614 -0.089907 0.0370056)
(1.31619 -0.26276 -0.00136265)
(1.57882 -0.0948809 -0.0352236)
(0.423157 0.484217 -0.0948532)
(0.927726 0.399913 -0.0976333)
(0.103522 0.0712811 -0.0922164)
(0.916667 0.391955 -0.0612981)
(0.418276 0.482489 -0.0824604)
(0.760068 0.708105 -0.0825987)
(1.58319 0.342958 -0.0925559)
(1.94118 0.0967846 -0.0616818)
(0.73764 0.701596 -0.0941281)
(1.61827 0.329329 -0.0581504)
(0.762055 0.706128 -0.0923624)
(1.59862 0.346973 -0.0396164)
(1.93962 0.106538 -0.0255434)
(1.61482 0.336364 -0.0429877)
(0.754905 0.70743 -0.0172542)
(0.422955 0.48032 -0.0762121)
(0.909156 0.378801 -0.0235247)
(0.106309 0.0720764 -0.0535737)
(0.922723 0.375344 -0.0623188)
(0.42122 0.481148 -0.0316673)
(0.418772 0.477801 -0.0171288)
(0.891634 0.379756 -0.000393998)
(0.0881561 0.0716408 -0.00431853)
(0.898483 0.379449 -0.0150461)
(0.415786 0.475448 -0.0131102)
(0.75477 0.703819 -0.0328702)
(1.93185 0.114212 0.00119135)
(1.5892 0.343957 -0.0151929)
(1.59621 0.341539 -0.00734871)
(0.748569 0.700928 0.00194787)
(0.754416 0.704333 -0.0143727)
(1.59872 0.342927 -0.025382)
(1.93286 0.108766 -0.0311368)
(0.751706 0.705503 -0.0401497)
(1.59996 0.337626 -0.0176155)
(0.418852 0.478975 -0.029518)
(0.901359 0.384291 -0.0290938)
(0.0883335 0.0713265 -0.0364349)
(0.419735 0.48073 -0.0221585)
(0.898781 0.381245 -0.0057734)
(1.56321 -0.0884519 0.031408)
(1.30265 -0.260488 -0.00323341)
(1.30394 -0.259619 0.0100478)
(1.56106 -0.0888105 -0.0302946)
(1.60459 -0.00607164 -0.0228447)
(1.61154 -0.00436115 0.0136796)
(1.56327 -0.0726103 -0.0160528)
(1.31104 -0.24819 0.000342807)
(1.30581 -0.248853 0.00676387)
(1.57039 -0.0711542 0.0109918)
(1.60607 -0.0227024 0.0369507)
(1.60378 -0.0226533 -0.0377078)
(1.55476 -0.077623 -0.0195758)
(1.30085 -0.252197 -0.000429873)
(1.55804 -0.0769107 0.0165972)
(1.29792 -0.252622 0.00266317)
(1.59665 -0.0184136 0.0337092)
(1.57496 0.125652 -0.0386604)
(1.57635 0.1245 0.0352726)
(1.59533 -0.0179511 -0.0328288)
(1.59637 -0.0104297 -0.0261673)
(1.57869 0.129908 0.0225317)
(1.5996 -0.00992817 0.0214858)
(1.57603 0.130003 -0.0329311)
(1.5544 -0.0854743 0.0278546)
(1.29617 -0.258963 -0.00144644)
(1.2968 -0.258437 0.00615183)
(1.55328 -0.0854955 -0.0259408)
(0.413515 0.473018 -0.0123775)
(0.889317 0.379718 -0.00966349)
(0.0830676 0.0712016 -0.0222966)
(0.887914 0.377756 0.0072378)
(0.415356 0.475285 -0.00405563)
(0.746166 0.697832 0.00339)
(1.5875 0.340591 -0.00459426)
(1.91965 0.112393 -0.0202871)
(0.747559 0.700251 -0.0208138)
(1.58461 0.338057 -0.00584479)
(0.746501 0.697825 -0.0174321)
(1.57745 0.339484 -0.00444512)
(1.91821 0.114396 0.0105117)
(1.58223 0.339485 0.00366833)
(0.741792 0.694478 0.00924789)
(0.413719 0.472892 -0.00189398)
(0.884055 0.377148 0.010032)
(0.0826345 0.0713408 0.00824828)
(0.888161 0.377673 -0.00313501)
(0.410999 0.470181 -0.00682931)
(1.5753 0.337796 0.00535314)
(0.742185 0.69486 -0.012943)
(0.883547 0.376964 1.32423e-05)
(0.411413 0.47068 0.00250036)
(1.54875 -0.0837131 0.0270763)
(1.29094 -0.258373 0.00272954)
(1.29221 -0.258013 0.00607011)
(1.5468 -0.083763 -0.0214356)
(1.59108 -0.01233 -0.0271357)
(1.57258 0.13035 0.029444)
(1.57064 0.131165 -0.0341948)
(1.59331 -0.0122972 0.026902)
(1.54954 -0.0806327 -0.0203348)
(1.29511 -0.255141 0.00177284)
(1.29321 -0.255534 0.00247514)
(1.55172 -0.080195 0.0212251)
(1.5905 -0.0152403 0.0328907)
(1.56769 0.130829 -0.03629)
(1.56992 0.129796 0.0350059)
(1.58838 -0.0148327 -0.0285667)
(1.28954 -0.256978 0.00640516)
(1.54504 -0.0819158 0.0259868)
(1.56578 0.133207 0.0333498)
(1.58646 -0.0126815 0.0315814)
(0.103939 -0.107968 0.115039)
(0.527308 -0.545728 0.214077)
(0.852027 -0.0675417 0.637442)
(0.953388 -0.537912 0.921838)
(0.40487 -0.221856 1.36949)
(1.24629 0.394259 -0.159664)
(0.662787 0.216255 -0.0499869)
(0.923012 -0.0572786 -0.136863)
(0.926113 0.0380143 -0.13915)
(1.03108 0.0375409 -0.151921)
(1.04489 0.101962 -0.14795)
(1.99547 -0.409998 1.43293)
(-0.305782 -0.129034 0.0999605)
(0.695538 1.44647 0.353673)
(1.73872 0.356155 0.3212)
(1.62688 0.257121 0.751379)
(1.99375 0.131968 0.251011)
(0.454908 3.1458 1.02145)
(1.24499 0.217059 -0.156509)
(1.1159 0.267722 -0.161569)
(1.24911 0.202063 -0.222561)
(1.10567 0.264755 -0.0985877)
(1.34359 0.312946 -0.225583)
(1.46866 0.228517 -0.292677)
(0.352033 0.252822 0.0435648)
(1.08569 0.336763 -0.104199)
(0.449628 0.140358 -0.000709239)
(1.15821 0.354581 -0.0495113)
(0.824415 -0.0840889 -0.0181247)
(0.757288 0.0427442 -0.0803924)
(0.771854 -0.0757205 -0.074868)
(0.807784 0.0524451 -0.0187173)
(0.920017 0.0329267 -0.139783)
(0.933062 -0.0624509 -0.136828)
(0.806106 0.0581463 -0.0186453)
(0.762043 -0.0697628 -0.0762267)
(0.763353 0.0485488 -0.0782167)
(0.818779 -0.0798666 -0.0164018)
(0.897653 -0.0338879 -0.0249421)
(0.82885 0.0898181 -0.0757391)
(0.838446 -0.00433242 -0.0786804)
(0.920289 0.0882807 -0.0167371)
(0.994868 0.0811656 -0.143957)
(1.00171 0.0117099 -0.145553)
(0.984641 0.0777994 -0.0162218)
(0.866067 0.0184593 -0.0834908)
(0.877965 0.108361 -0.0738353)
(0.931901 -0.0226094 -0.0282967)
(1.09867 -0.0616521 0.31862)
(1.15994 -0.221615 0.276588)
(1.27392 -0.201666 0.374359)
(1.0094 -0.136504 0.230339)
(0.943256 0.0221258 0.218086)
(0.959663 0.00231046 0.185226)
(0.977714 -0.00255899 0.194209)
(0.919252 0.0355523 0.209855)
(0.911931 0.0301864 -0.140772)
(0.933235 0.00848526 -0.140611)
(0.886301 0.0140833 0.189511)
(0.927401 0.00276809 0.171433)
(0.880255 0.00131911 0.189987)
(0.92602 -0.00251369 0.174468)
(0.884543 -0.0156058 0.187205)
(0.921868 -0.0109328 0.168393)
(0.923714 -0.00695019 0.173383)
(0.874285 -0.00266243 0.185906)
(0.920429 0.0498906 -0.138963)
(0.932283 -0.0429613 -0.137421)
(0.849625 -0.0965333 0.188761)
(0.921548 -0.0824111 0.172278)
(0.85625 -0.0846336 0.189106)
(0.921975 -0.133417 0.176873)
(0.749225 0.779231 -0.422602)
(1.31382 0.188158 -0.699336)
(-0.3273 0.380894 -0.67353)
(1.24467 0.395844 -0.820177)
(0.570252 0.964909 -0.722834)
(0.604459 0.243535 -0.410335)
(1.17475 0.771609 -0.248131)
(1.60274 -0.469462 0.634502)
(1.2295 -0.286378 0.2869)
(1.41981 -0.223681 0.446445)
(1.28736 -0.515874 0.323195)
(1.09269 -0.284358 0.0954539)
(1.15239 -0.244247 0.19989)
(1.19885 -0.455112 0.192104)
(1.05403 -0.113267 0.0917257)
(1.0892 0.765467 -0.357922)
(1.15379 0.432262 -0.373035)
(1.31644 0.409616 -0.208915)
(1.10479 0.610238 -0.46544)
(0.966699 0.855656 -0.163879)
(1.15676 0.505825 -0.243144)
(1.40005 0.352067 -0.246707)
(1.18314 0.739106 -0.292012)
(1.45797 0.322766 -0.222659)
(1.27633 0.374795 -0.188111)
(1.47823 0.369228 -0.162454)
(1.28197 0.345308 -0.244806)
(1.5307 0.341238 -0.175547)
(1.17106 0.798124 -0.110545)
(0.800197 -0.11254 0.103196)
(1.09921 -0.189713 0.204127)
(0.918797 -0.135306 0.175201)
(1.09164 -0.0921725 0.114598)
(0.835111 -0.00560841 -0.0274024)
(0.744006 0.0289469 -0.0837313)
(0.776289 -0.0172346 -0.0776658)
(0.767075 0.030278 -0.0286545)
(0.932724 -0.0245817 0.101477)
(0.920399 -0.00480046 0.15992)
(0.937233 -0.00854008 0.166027)
(0.91252 0.00686678 0.095423)
(0.896468 0.00402043 0.192234)
(0.929524 0.00116077 0.171776)
(0.883605 0.0175151 0.189978)
(0.938275 0.00381928 0.177428)
(0.912641 0.0336676 0.202222)
(0.959645 0.007692 0.184263)
(0.913447 0.0210511 0.207081)
(0.952834 0.00384803 0.183813)
(0.795674 0.0322648 -0.0235528)
(0.772303 -0.0576764 -0.073447)
(0.836114 -0.0518552 -0.0187436)
(0.763079 0.0265604 -0.0816819)
(0.922932 -0.0226855 0.0950421)
(0.90009 -0.00233039 0.152019)
(0.906084 0.000958024 0.156479)
(0.922645 0.0118983 0.0917452)
(0.914063 0.00771478 0.0961151)
(0.92859 0.0024617 0.160242)
(0.947854 -0.0188227 0.0982492)
(0.914671 -0.00260454 0.160202)
(0.931988 -0.0425374 -0.134755)
(0.928453 0.0212005 -0.141081)
(0.90674 0.0107586 0.0932993)
(0.899329 0.000778422 0.151713)
(0.892508 -0.00515855 0.154147)
(0.926578 -0.0223204 0.0922317)
(0.82084 -0.0694216 -0.0184999)