/*--------------------------------*- C++ -*----------------------------------*\
| =========                 |                                                 |
| \\      /  F ield         | OpenFOAM: The Open Source CFD Toolbox           |
|  \\    /   O peration     | Version:  2012                                  |
|   \\  /    A nd           | Website:  www.openfoam.com                      |
|    \\/     M anipulation  |                                                 |
\*---------------------------------------------------------------------------*/
FoamFile
{
    version     2.0;
    format      ascii;
    class       surfaceVectorField;
    location    "0.108/fluid";
    object      Uf;
}
// * * * * * * * * * * * * * * * * * * * * * * * * * * * * * * * * * * * * * //

dimensions      [0 1 -1 0 0 0 0];


internalField   nonuniform List<vector> 
47458
(
(1.22956 -0.00566091 -0.00491426)
(1.2098 -0.0169513 -0.00489099)
(1.2098 -0.00563332 -0.0147235)
(1.3222 -0.00620907 -0.00542587)
(1.35577 -0.00656306 -0.00574533)
(1.33866 -0.0192246 -0.00556063)
(1.33867 -0.00635729 -0.0167477)
(1.47078 -0.00817313 -0.00716647)
(1.51559 -0.00891735 -0.00782201)
(1.49216 -0.0256142 -0.0074575)
(1.49212 -0.0085056 -0.0224)
(1.67824 -0.0119534 -0.0105072)
(1.74447 -0.0132912 -0.0116935)
(1.70964 -0.0377771 -0.0110402)
(1.70962 -0.0125578 -0.0331773)
(1.99316 -0.0186137 -0.0164257)
(2.09704 -0.0209331 -0.0184926)
(2.04193 -0.0591189 -0.0173524)
(2.042 -0.0196594 -0.0521657)
(2.49555 -0.0301842 -0.0267466)
(2.66498 -0.0342487 -0.0303773)
(2.57424 -0.096224 -0.0283589)
(2.57453 -0.0320009 -0.0852794)
(3.32674 -0.0506968 -0.0451049)
(3.61283 -0.0580506 -0.0517007)
(3.45808 -0.162147 -0.0479923)
(3.45883 -0.0539386 -0.14431)
(4.75273 -0.0885832 -0.079134)
(5.25551 -0.102611 -0.0917634)
(4.98011 -0.2844 -0.0845538)
(4.98179 -0.0946517 -0.25416)
(7.31187 -0.163085 -0.146326)
(8.24376 -0.191962 -0.172445)
(7.72397 -0.526019 -0.157215)
(7.72754 -0.175242 -0.472127)
(12.1974 -0.323217 -0.291588)
(14.0587 -0.389356 -0.351846)
(12.9904 -1.04785 -0.315634)
(12.9976 -0.349941 -0.945591)
(22.3839 -0.713885 -0.648406)
(26.521 -0.890494 -0.8093)
(24.0263 -2.32225 -0.708207)
(24.0404 -0.780412 -2.10827)
(46.3959 -1.86155 -1.63885)
(56.8626 -2.4722 -2.06912)
(49.9475 -5.99533 -1.78079)
(50.1583 -2.05588 -5.21282)
(107.728 -10.3154 -5.89402)
(134.884 -22.936 -14.0667)
(112.628 -22.1541 -6.45097)
(124.252 -11.0464 -6.92833)
(290.771 -92.4837 -202.887)
(333.737 -19.1638 -265.403)
(251.92 -0.105909 -193.909)
(407.591 -45.0197 -45.5388)
(-126.311 -896.968 321.345)
(132.836 -1019.45 226.285)
(-9.68276 -907.338 553.134)
(70.3427 -719.143 151.963)
(773.716 -1339.49 944.252)
(253.492 -856.201 130.171)
(231.284 -900.087 834.129)
(1.20923 -0.0658505 -0.00482005)
(1.22733 -0.0737247 -0.00481848)
(1.20889 -0.0806951 -0.00477856)
(1.2091 -0.0732111 -0.0144391)
(1.33057 -0.0746074 -0.0054688)
(1.31295 -0.0810822 -0.00530879)
(1.34393 -0.0855084 -0.00561615)
(1.32582 -0.091415 -0.00541529)
(1.32815 -0.0829405 -0.0163891)
(1.47476 -0.0991492 -0.00731194)
(1.4498 -0.105905 -0.00698376)
(1.49095 -0.115427 -0.00761372)
(1.46456 -0.121413 -0.00722733)
(1.46937 -0.110156 -0.0218279)
(1.67828 -0.145949 -0.0107836)
(1.63987 -0.154299 -0.0101883)
(1.70031 -0.171405 -0.0113221)
(1.65999 -0.178563 -0.0106334)
(1.66847 -0.162023 -0.0321538)
(1.98764 -0.22782 -0.0168659)
(1.9264 -0.239326 -0.0158248)
(2.02043 -0.268859 -0.017784)
(1.95608 -0.278362 -0.016582)
(1.97053 -0.252636 -0.050218)
(2.4797 -0.369395 -0.0273993)
(2.37924 -0.386095 -0.0255653)
(2.53087 -0.437357 -0.0289695)
(2.42498 -0.450453 -0.0268414)
(2.44976 -0.409015 -0.0814292)
(3.28835 -0.618969 -0.0460084)
(3.11847 -0.643439 -0.0426717)
(3.37034 -0.734925 -0.0487616)
(3.19077 -0.752508 -0.0448606)
(3.23443 -0.683832 -0.136335)
(4.66023 -1.07631 -0.0801971)
(4.36224 -1.11102 -0.0738272)
(4.79425 -1.28199 -0.0852378)
(4.47811 -1.30252 -0.0777029)
(4.55836 -1.18518 -0.23665)
(7.07873 -1.96409 -0.146833)
(6.53003 -2.00775 -0.133775)
(7.30158 -2.34866 -0.156621)
(6.71637 -2.36033 -0.140965)
(6.87263 -2.15197 -0.430391)
(11.5635 -3.82907 -0.287656)
(10.4847 -3.86054 -0.258168)
(11.938 -4.60241 -0.308054)
(10.7779 -4.55246 -0.272214)
(11.1061 -4.16306 -0.833447)
(20.455 -8.18342 -0.616636)
(18.1415 -8.09135 -0.54121)
(21.0665 -9.90445 -0.659848)
(18.5466 -9.57026 -0.568631)
(19.3096 -8.78769 -1.74606)
(39.3854 -19.8764 -1.39059)
(33.9176 -19.1231 -1.1867)
(39.9734 -24.2745 -1.38565)
(33.9823 -22.6506 -1.19774)
(36.1625 -20.88 -3.71188)
(73.1463 -55.6958 -2.74782)
(61.3967 -52.129 -1.09406)
(65.2042 -67.0175 -0.756846)
(54.8248 -60.9526 0.193093)
(69.5918 -56.128 1.1733)
(72.3031 -168.608 -45.0243)
(-20.0982 -126.7 -23.5772)
(-130.455 -204.93 -82.1718)
(154.909 -126.464 59.6424)
(-64.26 -110.322 -2.90784)
(-3436.08 3365.56 -2655.12)
(-2890.89 1318.74 -1801.09)
(-1663.24 2654.65 -2734.17)
(-4737.86 2479.97 -2605.81)
(-2005.04 2171.86 -400.119)
(1.20752 -0.118271 -0.00460772)
(1.22188 -0.123856 -0.00458831)
(1.20696 -0.127948 -0.00453798)
(1.20728 -0.123002 -0.0137567)
(1.30639 -0.133866 -0.00519677)
(1.29027 -0.136092 -0.00503051)
(1.31494 -0.143447 -0.00531053)
(1.2985 -0.144768 -0.00510815)
(1.30235 -0.139182 -0.0155312)
(1.42297 -0.177395 -0.00688344)
(1.39884 -0.177275 -0.00655371)
(1.43126 -0.193029 -0.00712303)
(1.40609 -0.191666 -0.00674405)
(1.41416 -0.184315 -0.0204679)
(1.58557 -0.259956 -0.0100225)
(1.54768 -0.257116 -0.00943292)
(1.59455 -0.285205 -0.0104417)
(1.5555 -0.280451 -0.00977553)
(1.56973 -0.269817 -0.0297239)
(1.82841 -0.403049 -0.0154331)
(1.768 -0.396082 -0.014411)
(1.83933 -0.443982 -0.0161206)
(1.77716 -0.433852 -0.0149718)
(1.80123 -0.417717 -0.0456396)
(2.2055 -0.64688 -0.0245991)
(2.10751 -0.632388 -0.0228179)
(2.2191 -0.713957 -0.025707)
(2.11829 -0.693983 -0.0237067)
(2.15894 -0.668969 -0.0724962)
(2.80448 -1.06724 -0.0403039)
(2.64238 -1.03744 -0.0371193)
(2.81968 -1.17894 -0.0420942)
(2.65326 -1.13909 -0.0385152)
(2.72315 -1.10023 -0.118213)
(3.7707 -1.81252 -0.0679703)
(3.49621 -1.74894 -0.0620474)
(3.78077 -2.0025 -0.0708857)
(3.49995 -1.91952 -0.0642289)
(3.62369 -1.85974 -0.198029)
(5.3474 -3.19032 -0.118687)
(4.86907 -3.04681 -0.107065)
(5.32681 -3.52195 -0.123412)
(4.84076 -3.33853 -0.110395)
(5.06869 -3.2501 -0.342375)
(7.92801 -5.88292 -0.216159)
(7.06666 -5.53597 -0.191815)
(7.78906 -6.47847 -0.223255)
(6.9254 -6.04329 -0.196361)
(7.36671 -5.92744 -0.613801)
(12.0314 -11.5235 -0.409179)
(10.4366 -10.6144 -0.355296)
(11.4652 -12.6124 -0.414513)
(9.91503 -11.4945 -0.357995)
(10.8214 -11.4097 -1.1312)
(17.3673 -24.2795 -0.717559)
(14.5262 -21.6772 -0.620508)
(15.1692 -26.1484 -0.663778)
(12.6763 -23.0623 -0.594595)
(14.6829 -23.3713 -1.90681)
(12.1832 -53.4401 0.917815)
(10.5473 -45.8656 0.193294)
(2.94741 -54.3478 1.69364)
(3.75239 -46.5983 0.452636)
(9.28707 -49.8937 1.28969)
(-133.155 -62.9736 37.5619)
(-85.5395 -60.9747 22.8793)
(-157.343 -36.0087 35.8312)
(-104.861 -48.3961 23.5959)
(-68.819 -77.8219 62.1255)
(-440.776 775.993 45.1371)
(-562.339 533.14 49.6143)
(-322.746 708.278 31.5389)
(-423.702 639.413 87.8241)
(37.1126 330.897 -120.098)
(1.20509 -0.146776 -0.00430327)
(1.21442 -0.148974 -0.00427194)
(1.20479 -0.147963 -0.0128193)
(1.27203 -0.165862 -0.00481103)
(1.25935 -0.163491 -0.00465146)
(1.27545 -0.172201 -0.00489507)
(1.26721 -0.167152 -0.0143603)
(1.34972 -0.218918 -0.0062782)
(1.32969 -0.212157 -0.00597093)
(1.3504 -0.230705 -0.00645845)
(1.33932 -0.220456 -0.0186208)
(1.45554 -0.318719 -0.00895527)
(1.42366 -0.305768 -0.00841639)
(1.45266 -0.33848 -0.00926135)
(1.43707 -0.320588 -0.0264603)
(1.60821 -0.489334 -0.0134511)
(1.5578 -0.466548 -0.0125357)
(1.60009 -0.521371 -0.0139223)
(1.57708 -0.491387 -0.0395783)
(1.83448 -0.773852 -0.0207993)
(1.75463 -0.734267 -0.0192436)
(1.81695 -0.825137 -0.0214894)
(1.78261 -0.775223 -0.0608982)
(2.17061 -1.24841 -0.0327908)
(2.04378 -1.1785 -0.030109)
(2.13449 -1.32988 -0.0337577)
(2.08367 -1.24612 -0.0954306)
(2.66052 -2.04925 -0.0525696)
(2.45887 -1.92217 -0.0478327)
(2.58543 -2.17743 -0.0538144)
(2.51279 -2.03489 -0.151714)
(3.33626 -3.42394 -0.0855649)
(3.01796 -3.18344 -0.0769622)
(3.17605 -3.61994 -0.0868079)
(3.08091 -3.37324 -0.244061)
(4.13592 -5.82494 -0.140622)
(3.64874 -5.34983 -0.12464)
(3.78378 -6.10234 -0.140459)
(3.68928 -5.67042 -0.394251)
(4.60081 -10.0435 -0.227346)
(3.93138 -9.07002 -0.198173)
(3.80969 -10.343 -0.22008)
(3.83201 -9.59865 -0.620872)
(2.80088 -17.1396 -0.319562)
(2.25514 -15.1439 -0.278357)
(1.05446 -17.0427 -0.284557)
(1.6459 -15.9167 -0.840464)
(-8.22528 -26.1324 -0.0541796)
(-6.67694 -22.6511 -0.133605)
(-11.4163 -23.7935 0.0515598)
(-8.67569 -23.2528 -0.217727)
(-47.1551 -16.7425 3.50248)
(-35.5194 -17.1658 1.80299)
(-46.5077 -7.97016 3.01504)
(-38.6829 -15.7584 6.18807)
(-77.5404 61.8791 4.15674)
(-66.4075 44.8663 3.02015)
(-61.3318 63.0319 1.68434)
(-62.6194 50.2069 2.58346)
(-61.5637 57.9737 6.15777)
(1.2093 -0.00556177 -0.0572348)
(1.2276 -0.00556427 -0.0640528)
(1.20919 -0.0166656 -0.0636252)
(1.20901 -0.00551993 -0.0701413)
(1.33153 -0.00626819 -0.0649131)
(1.31402 -0.00609471 -0.0705206)
(1.34528 -0.00643807 -0.0744266)
(1.32934 -0.0188668 -0.072151)
(1.32733 -0.00621623 -0.0795411)
(1.47672 -0.00836274 -0.0866308)
(1.4521 -0.00799438 -0.0924776)
(1.49363 -0.00871204 -0.100913)
(1.47188 -0.0250408 -0.0962304)
(1.46769 -0.00827948 -0.106087)
(1.68175 -0.0123005 -0.128142)
(1.64396 -0.0116346 -0.135396)
(1.70499 -0.0129186 -0.150594)
(1.67283 -0.0367453 -0.142231)
(1.66548 -0.0121505 -0.156787)
(1.99352 -0.0191707 -0.20101)
(1.93333 -0.0180103 -0.211053)
(2.02833 -0.0202217 -0.237389)
(1.97783 -0.0571585 -0.222871)
(1.96534 -0.0188863 -0.245635)
(2.48973 -0.0310327 -0.327461)
(2.39098 -0.0289932 -0.342124)
(2.54433 -0.0328297 -0.387995)
(2.46202 -0.0923394 -0.362538)
(2.44067 -0.0304713 -0.399415)
(3.30602 -0.0519377 -0.551123)
(3.13899 -0.0482456 -0.572738)
(3.39408 -0.0550901 -0.654893)
(3.25573 -0.154107 -0.608806)
(3.21821 -0.0507836 -0.670281)
(4.69281 -0.0902645 -0.962369)
(4.39969 -0.0832401 -0.993213)
(4.83813 -0.0960454 -1.14724)
(4.59722 -0.266765 -1.05957)
(4.52835 -0.0877546 -1.16525)
(7.14204 -0.164796 -1.7632)
(6.60213 -0.150464 -1.80214)
(7.38728 -0.176055 -2.11022)
(6.94774 -0.484035 -1.93138)
(6.81352 -0.158894 -2.12014)
(11.6931 -0.32183 -3.45153)
(10.6315 -0.289663 -3.47879)
(12.1147 -0.34542 -4.15143)
(11.2601 -0.935231 -3.75022)
(10.9768 -0.306336 -4.10484)
(20.7351 -0.688686 -7.41278)
(18.4561 -0.606678 -7.32119)
(21.4517 -0.741218 -8.97178)
(19.6418 -1.95986 -7.94738)
(18.9749 -0.640997 -8.66074)
(40.2105 -1.64261 -18.1542)
(34.7201 -1.40024 -17.3904)
(41.1273 -1.74378 -22.1162)
(36.9314 -4.46164 -18.9936)
(35.0933 -1.46231 -20.5525)
(82.8541 -4.01725 -53.6081)
(68.4018 -3.25763 -48.5729)
(79.6123 -3.8422 -64.1302)
(71.0148 -9.52207 -52.9041)
(65.09 -3.23061 -56.0784)
(122.901 0.0464272 -139.253)
(101.678 -1.71421 -125.809)
(94.247 4.46623 -137.683)
(89.5731 2.2764 -127.526)
(79.0909 -0.365826 -133.492)
(122.652 37.4651 169.699)
(85.2392 27.1684 52.1118)
(42.4986 -28.9365 122.137)
(88.3293 23.2082 86.5871)
(195.23 21.6882 48.2368)
(181.165 108.571 133.111)
(225.524 34.5711 78.834)
(157.167 80.9126 29.1991)
(1.20862 -0.0722878 -0.0561265)
(1.20864 -0.0647435 -0.062701)
(1.22544 -0.0724792 -0.0628066)
(1.20832 -0.0793399 -0.0621608)
(1.20834 -0.0717477 -0.0687842)
(1.32127 -0.0817874 -0.0635338)
(1.32152 -0.0732238 -0.0710019)
(1.30508 -0.0796057 -0.0690495)
(1.33383 -0.0838887 -0.0728149)
(1.31692 -0.0897206 -0.0703297)
(1.31722 -0.0811142 -0.0778541)
(1.45458 -0.108316 -0.0844328)
(1.45509 -0.0969391 -0.0944005)
(1.43187 -0.103601 -0.0901878)
(1.46989 -0.11279 -0.0982907)
(1.44526 -0.118713 -0.0933306)
(1.4459 -0.107243 -0.103402)
(1.64184 -0.158723 -0.124197)
(1.64275 -0.141982 -0.138948)
(1.60712 -0.150208 -0.131327)
(1.66266 -0.166632 -0.145846)
(1.62518 -0.173722 -0.137033)
(1.6263 -0.156801 -0.151973)
(1.92457 -0.246393 -0.193538)
(1.92609 -0.2203 -0.216663)
(1.86965 -0.23162 -0.20339)
(1.95542 -0.259775 -0.228358)
(1.896 -0.269208 -0.21305)
(1.89785 -0.242765 -0.236532)
(2.37021 -0.396756 -0.312776)
(2.37275 -0.3546 -0.350365)
(2.28104 -0.371007 -0.327143)
(2.41793 -0.419413 -0.370172)
(2.32107 -0.432489 -0.3433)
(2.32416 -0.389653 -0.381567)
(3.09317 -0.658794 -0.520974)
(3.09759 -0.588624 -0.583921)
(2.94463 -0.612744 -0.542229)
(3.16866 -0.697992 -0.618168)
(3.00664 -0.71585 -0.569564)
(3.01197 -0.644369 -0.633823)
(4.29674 -1.13129 -0.897055)
(4.30476 -1.01064 -1.00595)
(4.04176 -1.04527 -0.927784)
(4.41771 -1.20165 -1.06727)
(4.13811 -1.22373 -0.975284)
(4.1477 -1.10049 -1.08679)
(6.35872 -2.02729 -1.61084)
(6.37413 -1.81092 -1.80734)
(5.90431 -1.85664 -1.65174)
(6.55368 -2.15997 -1.92246)
(6.0515 -2.17843 -1.73729)
(6.06977 -1.95691 -1.93904)
(10.017 -3.84395 -3.05761)
(10.0484 -3.43222 -3.4337)
(9.16695 -3.47728 -3.09826)
(10.3284 -4.10909 -3.66232)
(9.37846 -4.089 -3.25852)
(9.41531 -3.66762 -3.64498)
(16.7995 -7.84517 -6.23674)
(16.863 -6.98775 -7.02435)
(15.1053 -6.9736 -6.22301)
(17.277 -8.40143 -7.50353)
(15.3546 -8.21521 -6.53046)
(15.4292 -7.34569 -7.3351)
(30.2896 -17.4547 -13.884)
(30.3165 -15.3585 -15.8155)
(26.5432 -15.1321 -13.6358)
(30.9767 -18.5638 -16.8743)
(26.6654 -17.864 -14.2056)
(26.7386 -15.8107 -16.1255)
(63.8084 -40.6914 -35.48)
(61.0606 -33.6692 -41.3571)
(52.4189 -34.3324 -34.2442)
(64.5749 -41.5574 -45.1938)
(52.3217 -41.3171 -35.4651)
(51.0135 -34.9113 -40.8403)
(183.239 -51.635 -163.428)
(142.448 -30.4605 -159.41)
(131.276 -55.823 -130.584)
(160.023 -43.8076 -190.128)
(126.638 -77.1294 -140.645)
(111.932 -52.9084 -147.395)
(290.219 35.3062 -306.175)
(222.996 -51.8924 -339.421)
(170.947 20.4639 -338.901)
(129.564 -3.30935 -179.107)
(228.423 -4.44292 -320.214)
(156.006 -30.7055 -309.254)
(1.20684 -0.121458 -0.0534787)
(1.20698 -0.116291 -0.0599468)
(1.22015 -0.121773 -0.0598273)
(1.20644 -0.12581 -0.0590435)
(1.20658 -0.120555 -0.0655411)
(1.29609 -0.13726 -0.0602379)
(1.29812 -0.1314 -0.0675757)
(1.28311 -0.133631 -0.0655316)
(1.30578 -0.140751 -0.0689619)
(1.29047 -0.142107 -0.0664535)
(1.2924 -0.136138 -0.0738201)
(1.40081 -0.181268 -0.0791988)
(1.40513 -0.173481 -0.088958)
(1.38267 -0.173458 -0.0847273)
(1.41232 -0.188666 -0.0920459)
(1.38885 -0.187451 -0.0871815)
(1.39298 -0.17949 -0.0970004)
(1.54603 -0.264397 -0.11486)
(1.55373 -0.252984 -0.129239)
(1.51853 -0.250392 -0.121685)
(1.56117 -0.27738 -0.134618)
(1.52484 -0.272964 -0.126087)
(1.53219 -0.261241 -0.140573)
(1.76113 -0.407587 -0.175997)
(1.77423 -0.389985 -0.19842)
(1.71841 -0.383562 -0.18538)
(1.78284 -0.429276 -0.207181)
(1.72532 -0.419875 -0.192539)
(1.73779 -0.401699 -0.215157)
(2.0914 -0.649439 -0.278697)
(2.11369 -0.621593 -0.314899)
(2.02389 -0.608301 -0.292321)
(2.12363 -0.685429 -0.328899)
(2.0312 -0.667058 -0.303586)
(2.05227 -0.638114 -0.340144)
(2.60752 -1.0613 -0.45239)
(2.64616 -1.01659 -0.512519)
(2.49943 -0.989578 -0.472603)
(2.65564 -1.1218 -0.534854)
(2.50483 -1.08561 -0.490103)
(2.54093 -1.03885 -0.550803)
(3.42032 -1.77907 -0.752613)
(3.48948 -1.70674 -0.855477)
(3.2454 -1.65009 -0.782444)
(3.49061 -1.8831 -0.891124)
(3.2406 -1.80916 -0.809322)
(3.30416 -1.73286 -0.913029)
(4.69842 -3.07385 -1.28773)
(4.82792 -2.95655 -1.47038)
(4.41347 -2.83176 -1.33055)
(4.79477 -3.25818 -1.52651)
(4.37303 -3.09901 -1.37054)
(4.48919 -2.97391 -1.55392)
(6.67014 -5.51534 -2.27463)
(6.92797 -5.32676 -2.61568)
(6.20884 -5.03557 -2.33279)
(6.78036 -5.85283 -2.69759)
(6.05787 -5.48906 -2.38581)
(6.28101 -5.28502 -2.72478)
(9.52044 -10.3682 -4.1363)
(10.0806 -10.0774 -4.82118)
(8.80711 -9.35326 -4.21388)
(9.57323 -11.0042 -4.90107)
(8.32774 -10.1172 -4.25177)
(8.78628 -9.79517 -4.91732)
(12.8542 -20.6156 -7.52267)
(14.2514 -20.2397 -9.07935)
(11.9322 -18.297 -7.70397)
(12.6243 -21.8418 -8.92767)
(10.4909 -19.5059 -7.55553)
(11.5234 -19.0578 -8.99805)
(13.8568 -44.1628 -12.4523)
(18.0141 -44.0786 -17.018)
(13.3836 -38.1936 -13.5637)
(12.6568 -46.4943 -15.4534)
(9.04417 -39.5705 -12.4402)
(11.5466 -39.2642 -16.1836)
(-1.48375 -101.343 -19.1802)
(9.15664 -102.804 -37.4242)
(0.679314 -84.5443 -23.241)
(-10.5655 -100.977 -28.1456)
(-12.6348 -81.476 -17.6257)
(-7.70294 -83.2304 -28.4573)
(-66.2487 -31.1045 -55.1486)
(-70.6945 -42.1133 -72.1545)
(-88.9052 -69.0687 -35.7761)
(-134.008 -9.62337 27.7848)
(-107.337 -38.5672 2.41535)
(-108.507 -48.1447 -10.1379)
(1.20441 -0.14612 -0.0498448)
(1.20462 -0.144338 -0.0560051)
(1.21292 -0.146489 -0.0557388)
(1.20418 -0.145043 -0.0610904)
(1.26178 -0.164866 -0.0557281)
(1.26484 -0.162837 -0.0626849)
(1.25315 -0.160563 -0.0607147)
(1.26755 -0.168998 -0.0636924)
(1.25858 -0.163532 -0.0682999)
(1.3279 -0.216863 -0.0720844)
(1.33442 -0.214156 -0.0812392)
(1.31588 -0.207652 -0.0772982)
(1.33429 -0.225569 -0.0835687)
(1.32119 -0.214766 -0.0883011)
(1.41723 -0.314277 -0.102299)
(1.42878 -0.31034 -0.1156)
(1.39924 -0.297926 -0.108695)
(1.42488 -0.329386 -0.119534)
(1.40563 -0.3106 -0.125232)
(1.54454 -0.479782 -0.152735)
(1.56398 -0.473887 -0.173137)
(1.51747 -0.452178 -0.161443)
(1.55455 -0.504578 -0.17916)
(1.52558 -0.473035 -0.186799)
(1.73001 -0.753377 -0.234409)
(1.7624 -0.744645 -0.266696)
(1.68927 -0.707256 -0.246944)
(1.74325 -0.793415 -0.275458)
(1.6995 -0.74071 -0.286295)
(1.99865 -1.20423 -0.365975)
(2.0529 -1.19198 -0.41821)
(1.93796 -1.12675 -0.384452)
(2.01504 -1.26873 -0.43034)
(1.94956 -1.18001 -0.446074)
(2.37444 -1.95247 -0.578653)
(2.46656 -1.93743 -0.665007)
(2.28659 -1.82052 -0.606166)
(2.39067 -2.05665 -0.680344)
(2.29513 -1.9051 -0.703297)
(2.85582 -3.20698 -0.923741)
(3.01485 -3.19553 -1.06968)
(2.73687 -2.97867 -0.96478)
(2.85887 -3.3749 -1.08461)
(2.72785 -3.11217 -1.11826)
(3.3332 -5.32633 -1.47759)
(3.61266 -5.34318 -1.73027)
(3.19951 -4.92592 -1.53992)
(3.28387 -5.59217 -1.72852)
(3.13211 -5.13185 -1.77999)
(3.34066 -8.88053 -2.31202)
(3.83789 -9.00805 -2.75922)
(3.28622 -8.18017 -2.41583)
(3.13609 -9.27524 -2.68173)
(3.05771 -8.47641 -2.77554)
(1.37814 -14.527 -3.27333)
(2.25458 -15.0296 -4.0711)
(1.75036 -13.3712 -3.50224)
(0.793565 -15.002 -3.72856)
(1.13835 -13.7126 -3.97765)
(-6.50863 -21.7538 -2.99861)
(-5.13304 -23.4293 -4.37788)
(-4.71711 -20.2915 -3.73587)
(-7.78246 -21.9119 -3.27108)
(-6.01409 -20.3753 -4.16862)
(-26.7424 -22.8762 3.63955)
(-26.0698 -27.7692 1.74464)
(-21.973 -23.2789 1.09234)
(-28.3518 -21.102 3.97916)
(-23.6007 -21.9243 1.12188)
(-50.4074 11.8017 22.4786)
(-54.7223 4.36799 24.3258)
(-45.9273 1.7596 17.7926)
(-47.6827 13.3363 23.116)
(-43.7977 5.2275 18.7634)
(1.20779 -0.00534815 -0.102818)
(1.22277 -0.00533271 -0.107632)
(1.20758 -0.0159808 -0.10692)
(1.2073 -0.00527814 -0.111239)
(1.31015 -0.00600215 -0.116511)
(1.29396 -0.0058213 -0.118414)
(1.31963 -0.00613852 -0.124911)
(1.30653 -0.0180124 -0.121127)
(1.30316 -0.00591482 -0.126011)
(1.43083 -0.00793821 -0.155048)
(1.40696 -0.00756848 -0.154863)
(1.44071 -0.00822447 -0.16883)
(1.42295 -0.0236791 -0.161081)
(1.41587 -0.00779949 -0.16754)
(1.59929 -0.0115389 -0.228351)
(1.56201 -0.0108786 -0.225738)
(1.61088 -0.0120374 -0.250725)
(1.58501 -0.0343051 -0.236991)
(1.57253 -0.0112915 -0.246396)
(1.8513 -0.0177338 -0.355894)
(1.79191 -0.0165925 -0.349578)
(1.86646 -0.0185534 -0.392378)
(1.82659 -0.0525579 -0.368822)
(1.80547 -0.0172704 -0.383208)
(2.24373 -0.0282139 -0.574239)
(2.14729 -0.0262327 -0.561165)
(2.26437 -0.0295437 -0.634393)
(2.2011 -0.0833406 -0.593852)
(2.16537 -0.0273157 -0.616357)
(2.87006 -0.046187 -0.952344)
(2.7101 -0.0426465 -0.925559)
(2.89751 -0.0483656 -1.05322)
(2.79503 -0.135828 -0.981868)
(2.73346 -0.0443779 -1.01728)
(3.88825 -0.0779298 -1.62572)
(3.61635 -0.0713527 -1.56871)
(3.92056 -0.0815598 -1.79849)
(3.75177 -0.227792 -1.66842)
(3.64248 -0.0741387 -1.72377)
(5.57022 -0.136419 -2.87519)
(5.09413 -0.123517 -2.74674)
(5.59273 -0.142561 -3.1788)
(5.31019 -0.395259 -2.93009)
(5.10839 -0.12801 -3.01396)
(8.37951 -0.249971 -5.32159)
(7.51714 -0.222902 -5.01153)
(8.33129 -0.260223 -5.86894)
(7.85426 -0.714444 -5.36441)
(7.46336 -0.229929 -5.47903)
(13.0241 -0.482096 -10.4279)
(11.4161 -0.421139 -9.61991)
(12.6765 -0.496855 -11.4217)
(11.8927 -1.34748 -10.3309)
(11.097 -0.430389 -10.4298)
(19.9738 -0.962141 -21.7375)
(17.0186 -0.820397 -19.4813)
(18.4982 -0.967118 -23.3839)
(17.4337 -2.59266 -20.9362)
(15.7766 -0.822669 -20.7277)
(25.4344 -1.79411 -46.6439)
(21.0881 -1.51772 -40.3285)
(20.3028 -1.71399 -47.9487)
(20.2035 -4.60169 -42.9476)
(17.1105 -1.46937 -41.1938)
(5.58079 -2.09404 -87.2206)
(5.25212 -2.06877 -73.9312)
(-6.0421 -2.02871 -80.961)
(-0.395043 -5.49446 -75.4311)
(-3.06908 -1.94601 -69.6015)
(-42.9238 -3.20951 -73.2758)
(-47.6831 -3.91501 -73.0375)
(-53.8449 -12.8772 -57.5147)
(-49.4427 -5.63365 -58.18)
(-46.8625 -13.7025 -38.0895)
(-53.0105 -4.94556 -63.7818)
(-43.8712 -13.2779 -33.9211)
(-55.1482 -5.316 -57.6569)
(1.20716 -0.0695327 -0.100836)
(1.20707 -0.0620939 -0.105374)
(1.22078 -0.0694976 -0.105548)
(1.20677 -0.0760955 -0.104471)
(1.20669 -0.0686286 -0.109097)
(1.30066 -0.078356 -0.114048)
(1.29932 -0.0699231 -0.119207)
(1.28573 -0.0760822 -0.115955)
(1.30912 -0.0800281 -0.122219)
(1.29508 -0.0856809 -0.118084)
(1.29392 -0.0772312 -0.123352)
(1.41048 -0.102856 -0.151145)
(1.4076 -0.0916873 -0.158042)
(1.38847 -0.0981237 -0.151056)
(1.41907 -0.106524 -0.16448)
(1.39861 -0.112293 -0.156265)
(1.39611 -0.101073 -0.163336)
(1.56304 -0.148975 -0.221402)
(1.55785 -0.132605 -0.231588)
(1.52874 -0.140529 -0.219034)
(1.57278 -0.155358 -0.242922)
(1.54198 -0.16228 -0.228434)
(1.53745 -0.145808 -0.238931)
(1.78967 -0.22807 -0.342867)
(1.78071 -0.202678 -0.358716)
(1.73535 -0.21353 -0.337087)
(1.80203 -0.238505 -0.377702)
(1.75401 -0.247744 -0.352831)
(1.74618 -0.222158 -0.369257)
(2.13928 -0.361102 -0.548985)
(2.12383 -0.320315 -0.57432)
(2.05186 -0.336006 -0.537086)
(2.15543 -0.377905 -0.605893)
(2.07906 -0.390862 -0.562987)
(2.06563 -0.349715 -0.589423)
(2.6896 -0.58695 -0.901699)
(2.66254 -0.519544 -0.942905)
(2.54663 -0.542659 -0.877658)
(2.70972 -0.614121 -0.995997)
(2.58625 -0.632321 -0.920418)
(2.56294 -0.564323 -0.963696)
(3.56641 -0.979846 -1.51972)
(3.51765 -0.865086 -1.58748)
(3.32818 -0.898914 -1.46953)
(3.5866 -1.02424 -1.67864)
(3.38398 -1.04884 -1.54111)
(3.34267 -0.933186 -1.61289)
(4.97166 -1.68802 -2.64081)
(4.88009 -1.4852 -2.75303)
(4.56637 -1.53303 -2.5307)
(4.97469 -1.76101 -2.91385)
(4.63732 -1.79058 -2.65268)
(4.56187 -1.58695 -2.77286)
(7.21338 -3.02018 -4.76637)
(7.03114 -2.64359 -4.95182)
(6.50905 -2.70608 -4.51027)
(7.13916 -3.13742 -5.24348)
(6.57297 -3.16203 -4.72128)
(6.42931 -2.78753 -4.92277)
(10.6737 -5.63151 -9.00828)
(10.2791 -4.88527 -9.30295)
(9.43039 -4.95601 -8.37345)
(10.3243 -5.79443 -9.8417)
(9.39115 -5.78517 -8.73768)
(9.10122 -5.05906 -9.06539)
(15.3945 -10.8216 -17.9213)
(14.4284 -9.22245 -18.2884)
(13.2157 -9.31318 -16.2363)
(14.1242 -10.9005 -19.274)
(12.7449 -10.8353 -16.8348)
(12.1159 -9.34389 -17.2798)
(18.8639 -20.3136 -37.2811)
(16.1972 -16.6582 -36.9249)
(15.3705 -17.1126 -32.4701)
(14.6235 -19.6177 -38.5934)
(13.4473 -19.8508 -33.2702)
(12.0814 -16.6365 -33.2823)
(-0.297463 -24.5099 -70.2951)
(5.57463 -32.4591 -76.8181)
(2.91576 -27.3816 -62.6435)
(-6.43506 -29.6561 -72.0908)
(-4.66964 -25.4136 -59.0527)
(-3.22023 -32.2388 -62.4785)
(-80.3305 -25.6366 -57.4791)
(-87.5616 -32.7562 -73.5997)
(-69.9943 -30.5955 -65.8745)
(-91.7275 -27.0251 -31.0183)
(-72.3347 -26.0323 -43.6807)
(-80.6399 -32.2661 -45.3736)
(1.20551 -0.116853 -0.0960976)
(1.20554 -0.111554 -0.100766)
(1.21589 -0.116789 -0.100563)
(1.20504 -0.120694 -0.0992542)
(1.20507 -0.115341 -0.103978)
(1.27731 -0.131537 -0.108164)
(1.27775 -0.125512 -0.113485)
(1.26546 -0.127752 -0.110078)
(1.28327 -0.134317 -0.115788)
(1.2707 -0.135753 -0.111611)
(1.27117 -0.129662 -0.116999)
(1.36098 -0.172219 -0.141848)
(1.3619 -0.164169 -0.149003)
(1.34339 -0.164371 -0.141981)
(1.36646 -0.178293 -0.154119)
(1.34699 -0.177419 -0.146052)
(1.34798 -0.169264 -0.153313)
(1.4758 -0.248381 -0.204939)
(1.4774 -0.236493 -0.21559)
(1.44851 -0.234467 -0.20313)
(1.48121 -0.258876 -0.224442)
(1.45127 -0.255242 -0.210392)
(1.45298 -0.243172 -0.221224)
(1.64322 -0.377822 -0.312251)
(1.64584 -0.359314 -0.32898)
(1.60064 -0.354125 -0.307684)
(1.64908 -0.394782 -0.343245)
(1.60234 -0.387038 -0.319387)
(1.60515 -0.368206 -0.336438)
(1.89477 -0.592498 -0.490318)
(1.89908 -0.562845 -0.517391)
(1.8279 -0.552244 -0.481064)
(1.90083 -0.619323 -0.539802)
(1.82733 -0.604498 -0.499205)
(1.83189 -0.574269 -0.526844)
(2.27582 -0.949251 -0.78612)
(2.28303 -0.900842 -0.830841)
(2.17031 -0.879865 -0.767982)
(2.27997 -0.991449 -0.865668)
(2.16374 -0.963267 -0.795526)
(2.17128 -0.913843 -0.841244)
(2.84878 -1.55106 -1.2838)
(2.86127 -1.47063 -1.35917)
(2.68202 -1.4285 -1.24782)
(2.84376 -1.6173 -1.41264)
(2.65956 -1.56229 -1.2887)
(2.67243 -1.48037 -1.3655)
(3.6865 -2.58869 -2.13726)
(3.70922 -2.45257 -2.26705)
(3.42446 -2.36501 -2.06351)
(3.65156 -2.69149 -2.34668)
(3.3608 -2.58037 -2.12137)
(3.38371 -2.44248 -2.25283)
(4.82926 -4.42339 -3.6302)
(4.8729 -4.18737 -3.86023)
(4.4267 -3.99927 -3.47446)
(4.70859 -4.57572 -3.96824)
(4.25869 -4.34366 -3.54617)
(4.30154 -4.10782 -3.77589)
(6.11821 -7.73865 -6.27571)
(6.20606 -7.31501 -6.69934)
(5.53856 -6.90155 -5.94031)
(5.76773 -7.92962 -6.80209)
(5.11274 -7.43477 -5.99039)
(5.19681 -7.02444 -6.40129)
(6.6458 -13.7595 -10.9218)
(6.8247 -12.9575 -11.7384)
(5.96081 -12.0491 -10.1974)
(5.70735 -13.8389 -11.6439)
(4.92117 -12.7926 -10.0665)
(5.092 -12.067 -10.8149)
(2.97064 -24.1789 -18.4721)
(3.34349 -22.5598 -20.085)
(2.80732 -20.6543 -16.9561)
(0.645467 -23.3807 -18.9493)
(0.438718 -21.3348 -16.045)
(0.806537 -20.0708 -17.3811)
(-15.746 -38.2235 -26.0131)
(-14.6201 -35.0766 -29.1131)
(-12.4039 -31.7904 -23.7402)
(-19.9244 -33.608 -23.6112)
(-16.5537 -30.7494 -20.1018)
(-15.6596 -29.0445 -22.2805)
(-59.4506 -26.3468 -0.249169)
(-56.25 -25.6182 -4.9226)
(-48.4048 -26.0695 -6.44848)
(-52.9627 -17.6062 6.04765)
(-46.9506 -19.4084 1.79275)
(-45.5256 -19.5983 -1.54677)
(1.20324 -0.140622 -0.0895932)
(1.20335 -0.138502 -0.0941686)
(1.2092 -0.14054 -0.093721)
(1.20286 -0.138817 -0.0969503)
(1.24547 -0.158061 -0.10011)
(1.24705 -0.155612 -0.105317)
(1.2378 -0.153567 -0.10203)
(1.24801 -0.161353 -0.106992)
(1.24013 -0.15583 -0.108305)
(1.29375 -0.206188 -0.129203)
(1.29713 -0.202817 -0.136177)
(1.28213 -0.196919 -0.129627)
(1.29505 -0.213346 -0.140044)
(1.2826 -0.202699 -0.139683)
(1.35832 -0.295601 -0.182762)
(1.36428 -0.290484 -0.193092)
(1.34029 -0.279326 -0.181678)
(1.35798 -0.307847 -0.199585)
(1.33915 -0.289523 -0.197373)
(1.44859 -0.445645 -0.271558)
(1.45857 -0.437547 -0.287688)
(1.42114 -0.418334 -0.268528)
(1.44609 -0.465113 -0.297539)
(1.41753 -0.434596 -0.292801)
(1.57638 -0.689597 -0.413855)
(1.59289 -0.676625 -0.43977)
(1.5351 -0.644245 -0.407824)
(1.57001 -0.719614 -0.453889)
(1.52707 -0.669121 -0.445208)
(1.75326 -1.08301 -0.639521)
(1.7806 -1.06234 -0.681916)
(1.69223 -1.00744 -0.628311)
(1.7389 -1.12842 -0.701013)
(1.67546 -1.04453 -0.685638)
(1.98198 -1.71759 -0.996431)
(2.02756 -1.68531 -1.06683)
(1.89466 -1.59053 -0.975841)
(1.95031 -1.78479 -1.09016)
(1.85972 -1.64427 -1.06308)
(2.23085 -2.74255 -1.55824)
(2.30774 -2.69403 -1.67712)
(2.11411 -2.52635 -1.52056)
(2.16133 -2.83769 -1.69854)
(2.04071 -2.60044 -1.65108)
(2.36509 -4.3888 -2.42651)
(2.49601 -4.32126 -2.63075)
(2.23289 -4.01926 -2.35957)
(2.21445 -4.51053 -2.62754)
(2.07904 -4.10991 -2.54694)
(1.98057 -6.96513 -3.69481)
(2.20383 -6.88788 -4.0519)
(1.90256 -6.33888 -3.58572)
(1.6656 -7.07768 -3.95321)
(1.589 -6.41669 -3.832)
(0.0640983 -10.6944 -5.26259)
(0.43311 -10.6532 -5.89448)
(0.257729 -9.68588 -5.13245)
(-0.539932 -10.6592 -5.50961)
(-0.331543 -9.64265 -5.38789)
(-5.40541 -14.9215 -6.19647)
(-4.87994 -15.0777 -7.29871)
(-4.42838 -13.5447 -6.23772)
(-6.34591 -14.316 -6.19611)
(-5.33983 -13.0812 -6.32452)
(-16.5317 -15.4494 -3.29672)
(-16.1498 -16.2207 -4.89734)
(-14.0948 -14.6277 -4.21527)
(-17.1115 -13.5492 -2.63194)
(-14.7704 -13.2179 -3.79617)
(-27.2559 -2.46198 8.44619)
(-27.4223 -4.75694 7.37108)
(-24.4468 -4.95417 5.53987)
(-25.6402 -0.783498 9.104)
(-23.2731 -3.0167 6.14759)
(25.8743 -85.9427 -123.235)
(269.041 4.34621 14.2298)
(412.295 -489.087 -286.405)
(-145.555 -36.9231 133.048)
(225.271 -147.253 -156.144)
(126.073 341.768 -369.566)
(-519.684 2.35056 -603.372)
(31.1536 169.802 -113.227)
(-266.2 -852.644 -416.406)
(62.6957 -208.602 -42.7441)
(178.567 -279.753 -48.8081)
(-125.133 -345.729 -63.8767)
(253.84 -200.532 89.6361)
(-1546.61 2324.51 -1649.54)
(727.823 -246.614 -233.292)
(667.998 -419.092 -278.575)
(555.605 -459.29 -116.175)
(821.649 0.31175 -293.899)
(568.476 2559.34 -1714.95)
(1564.82 1033.7 781.307)
(2157.15 868.062 523.661)
(148.29 -3.10926 -129.383)
(192.175 -0.152607 -152.262)
(133.141 9.87889 -155.389)
(131.868 3.39975 -134.805)
(69.5095 45.7852 119.127)
(30.0633 35.4316 -4.49638)
(-6.12538 74.6383 16.4321)
(37.3705 45.8974 -55.6095)
(-68.7471 -13.829 -14.2184)
(218.459 -21.5874 -172.428)
(177.671 -2.1317 -172.277)
(192.391 -10.5347 -144.608)
(260.476 -5.49687 -175.054)
(182.535 21.2905 -168.801)
(230.053 20.2836 -234.161)
(-18.3513 -73.2486 -311.661)
(99.9464 98.9423 -396.678)
(19.5867 3.76723 -329.006)
(37.237 55.7779 -339.138)
(-81.5619 -28.3968 -392.597)
(110.293 14.1341 -420.461)
(-1507.54 4844.27 -2636.75)
(-289.706 4616.22 -2483.29)
(-539.914 3229.01 169.893)
(97.8078 45.7771 299.971)
(36.9116 6.60468 195.526)
(196.312 39.0399 311.992)
(168.155 134.398 167.067)
(211.118 39.0131 84.2742)
(161.382 134.565 345.457)
(181.19 -20.2338 -255.976)
(113.998 -116.594 -189.302)
(125.936 4.51042 72.3132)
(-23.5718 -90.8702 -59.7819)
(158.111 -76.9448 -34.9211)
(319.534 -4.44927 60.9534)
(240.35 -20.8296 6.29261)
(455.928 -47.3811 32.2585)
(305.818 -66.4695 39.5885)
(366.55 -36.8748 25.3027)
(291.076 -25.8834 -2.74717)
(324.149 -32.4591 -30.3691)
(292.432 -84.283 -40.9386)
(-616.328 610.662 -25.7521)
(-437.844 905.512 -87.7764)
(-193.522 773.698 -60.9564)
(148.231 344.821 -321.133)
(197.11 146.061 -341.274)
(262.735 261.978 -74.3164)
(267.548 46.0837 -161.836)
(388.728 135.041 -368.629)