/*--------------------------------*- C++ -*----------------------------------*\
| =========                 |                                                 |
| \\      /  F ield         | OpenFOAM: The Open Source CFD Toolbox           |
|  \\    /   O peration     | Version:  2012                                  |
|   \\  /    A nd           | Website:  www.openfoam.com                      |
|    \\/     M anipulation  |                                                 |
\*---------------------------------------------------------------------------*/
FoamFile
{
    version     2.0;
    format      ascii;
    class       surfaceVectorField;
    location    "0.108/fluid";
    object      Uf_0;
}
// * * * * * * * * * * * * * * * * * * * * * * * * * * * * * * * * * * * * * //

dimensions      [0 1 -1 0 0 0 0];


internalField   nonuniform List<vector> 
47458
(
(1.19995 3.99148e-05 3.78594e-05)
(1.19995 2.72639e-05 2.35076e-05)
(1.19995 2.32529e-05 2.94528e-05)
(1.19959 7.31935e-05 4.00297e-05)
(1.19949 6.44845e-05 2.55362e-05)
(1.19971 6.73691e-05 3.28213e-05)
(1.19966 7.03373e-05 4.31898e-05)
(1.19927 4.32661e-05 9.20976e-06)
(1.1992 4.1139e-05 1.05795e-05)
(1.19934 4.78354e-05 1.02006e-05)
(1.19917 4.23888e-05 2.29364e-05)
(1.19899 3.97259e-05 1.55564e-05)
(1.19891 3.95189e-05 1.6948e-05)
(1.19929 5.36594e-05 1.62803e-05)
(1.19905 3.9636e-05 3.28143e-05)
(1.19863 4.11847e-05 2.26063e-05)
(1.19852 4.25585e-05 2.48818e-05)
(1.19904 6.69131e-05 2.35421e-05)
(1.19874 4.17466e-05 4.74792e-05)
(1.19814 4.90269e-05 3.58767e-05)
(1.19798 5.20875e-05 4.04223e-05)
(1.1986 9.27623e-05 3.77563e-05)
(1.19827 5.01168e-05 7.53165e-05)
(1.1974 6.60921e-05 5.67385e-05)
(1.19716 7.22137e-05 6.33847e-05)
(1.19789 0.000137214 5.97289e-05)
(1.19755 6.89586e-05 0.000119066)
(1.19624 0.000100065 9.46772e-05)
(1.19585 0.000113278 0.000107231)
(1.19676 0.000220342 0.000100293)
(1.19642 0.000105824 0.000199031)
(1.19431 0.000171989 0.000160613)
(1.19363 0.000201033 0.000185041)
(1.19485 0.000383651 0.000171139)
(1.19453 0.00018428 0.000341499)
(1.19085 0.000340146 0.000292615)
(1.18958 0.000413353 0.000346457)
(1.19147 0.000737317 0.000314025)
(1.19112 0.000369863 0.000627465)
(1.184 0.000785151 0.000620621)
(1.18127 0.000994438 0.000780107)
(1.18488 0.00161285 0.000678937)
(1.18432 0.000865941 0.00131982)
(1.16795 0.0021726 0.00177539)
(1.16063 0.0028883 0.00245128)
(1.16962 0.00424563 0.00200906)
(1.16848 0.00243453 0.00358503)
(1.11886 0.00715886 0.00735604)
(1.09235 0.0097045 0.0110092)
(1.12188 0.0139806 0.0087342)
(1.12126 0.00820751 0.0144064)
(0.914661 0.0172072 0.0406179)
(0.798809 0.00731856 0.0656516)
(0.881172 0.0286624 0.0539703)
(0.937724 0.020938 0.0948699)
(0.598951 -0.0459573 0.114392)
(0.505477 -0.309842 0.195592)
(0.665341 -0.0682916 0.485808)
(0.434093 -0.157242 0.426059)
(0.378081 -0.0121333 0.0702949)
(0.372718 -0.150285 0.115276)
(0.443333 -0.0320123 0.367039)
(1.19995 1.28596e-05 2.31624e-05)
(1.19997 1.42114e-05 3.74648e-05)
(1.19995 1.60402e-05 2.298e-05)
(1.19997 1.17371e-05 2.86569e-05)
(1.19976 5.52462e-05 3.56731e-05)
(1.1998 3.99564e-05 4.32031e-05)
(1.19975 5.37153e-05 2.97608e-05)
(1.19976 6.16974e-05 3.70406e-05)
(1.1999 4.88424e-05 4.60057e-05)
(1.1994 8.46818e-05 1.37352e-05)
(1.19963 8.31998e-05 1.39916e-05)
(1.19959 9.13479e-05 1.50698e-05)
(1.1994 0.000102266 1.50752e-05)
(1.19956 8.8978e-05 2.64991e-05)
(1.19937 0.000122427 1.75409e-05)
(1.19944 0.00012454 1.75689e-05)
(1.19939 0.000138167 1.8621e-05)
(1.19937 0.000148778 1.82482e-05)
(1.19955 0.000132111 3.32947e-05)
(1.19914 0.000182062 2.44926e-05)
(1.19918 0.000188788 2.38829e-05)
(1.1991 0.000210191 2.58742e-05)
(1.19915 0.000221949 2.49994e-05)
(1.19935 0.000199574 4.76677e-05)
(1.19873 0.00028136 3.69683e-05)
(1.1988 0.000293236 3.48984e-05)
(1.19868 0.000328303 3.94414e-05)
(1.19875 0.000342306 3.68995e-05)
(1.19898 0.000309656 7.25645e-05)
(1.19809 0.000444058 5.89139e-05)
(1.1982 0.000463254 5.593e-05)
(1.198 0.000521513 6.23573e-05)
(1.19814 0.000539715 5.87271e-05)
(1.19841 0.000489974 0.000115808)
(1.19705 0.000725878 9.78222e-05)
(1.19725 0.000755747 9.10391e-05)
(1.19692 0.000857276 0.000103599)
(1.19715 0.00088138 9.59502e-05)
(1.19749 0.000800325 0.000191018)
(1.19532 0.00123432 0.000164307)
(1.19567 0.00127347 0.000152442)
(1.19513 0.00146277 0.000174702)
(1.19552 0.00148851 0.000160873)
(1.19598 0.00135555 0.000321935)
(1.19237 0.00222832 0.000295072)
(1.193 0.00226677 0.000270003)
(1.19206 0.0026467 0.000316287)
(1.19277 0.0026571 0.000285639)
(1.19342 0.00242544 0.000575652)
(1.18694 0.00439713 0.000614363)
(1.18822 0.00436024 0.00054471)
(1.18646 0.00522116 0.000672796)
(1.18789 0.00513071 0.00058264)
(1.18887 0.004697 0.00115412)
(1.17575 0.00998194 0.00169743)
(1.17876 0.00946529 0.00142761)
(1.17499 0.0118009 0.00191475)
(1.17836 0.0111626 0.00155784)
(1.18025 0.0102691 0.00285594)
(1.14747 0.0284343 0.00659961)
(1.1569 0.0250322 0.00519298)
(1.14722 0.0334011 0.00747613)
(1.15703 0.0291467 0.0057435)
(1.16259 0.0272212 0.009651)
(1.05498 0.120654 0.0331749)
(1.09819 0.0920049 0.0238877)
(1.0749 0.136814 0.0354606)
(1.13152 0.0984668 0.0471833)
(1.10734 0.0983432 0.0258812)
(0.633675 0.231884 0.121123)
(0.897654 0.253547 0.0849649)
(0.733302 0.374827 0.14145)
(0.763602 0.183413 0.113237)
(1.15107 0.248678 0.220447)
(1.19995 2.111e-05 2.25556e-05)
(1.19997 2.66458e-05 3.70376e-05)
(1.19995 2.2827e-05 2.24187e-05)
(1.19997 2.16994e-05 2.76442e-05)
(1.19975 8.44906e-05 4.17629e-05)
(1.19979 7.49392e-05 4.85075e-05)
(1.19974 9.88005e-05 3.62776e-05)
(1.19975 9.1143e-05 4.33534e-05)
(1.19989 8.95442e-05 5.07031e-05)
(1.19939 0.000144867 1.91114e-05)
(1.19962 0.000144655 1.96486e-05)
(1.19958 0.000157371 2.01675e-05)
(1.1994 0.000155705 2.04257e-05)
(1.19958 0.000152388 2.995e-05)
(1.19938 0.000212824 2.05973e-05)
(1.19946 0.000210941 2.07244e-05)
(1.19941 0.000232891 2.16907e-05)
(1.19939 0.000228793 2.14529e-05)
(1.1996 0.000222598 3.44087e-05)
(1.1992 0.000320181 2.6597e-05)
(1.19924 0.000316646 2.61405e-05)
(1.19917 0.000351491 2.78427e-05)
(1.19922 0.000344341 2.70943e-05)
(1.19946 0.000333864 4.73411e-05)
(1.19886 0.000491581 3.67319e-05)
(1.19893 0.000484806 3.50755e-05)
(1.19883 0.000541503 3.87025e-05)
(1.19891 0.000528815 3.65747e-05)
(1.19918 0.000511242 6.90811e-05)
(1.19835 0.000772601 5.68658e-05)
(1.19846 0.00075922 5.34723e-05)
(1.19831 0.000851754 5.96478e-05)
(1.19844 0.000828321 5.59008e-05)
(1.19874 0.00080113 0.000107738)
(1.19755 0.00124341 8.97938e-05)
(1.19774 0.00121494 8.35786e-05)
(1.1975 0.00137194 9.44154e-05)
(1.1977 0.0013269 8.71988e-05)
(1.19807 0.00128456 0.000171394)
(1.19628 0.00205636 0.000148365)
(1.1966 0.00199438 0.000137556)
(1.19622 0.00226803 0.000156055)
(1.19657 0.00217612 0.000143832)
(1.19702 0.00211496 0.00028278)
(1.19426 0.00352087 0.000253333)
(1.19481 0.00337636 0.000231859)
(1.19422 0.00387213 0.000266747)
(1.19479 0.00367177 0.000242101)
(1.19539 0.00358931 0.000480716)
(1.19104 0.00628751 0.000480793)
(1.192 0.00592302 0.000427456)
(1.19108 0.0068584 0.000512461)
(1.19206 0.00638679 0.000448632)
(1.19292 0.00630663 0.000882772)
(1.18589 0.0117989 0.00116798)
(1.18765 0.0108015 0.00098759)
(1.18622 0.0126164 0.00128436)
(1.18792 0.0114248 0.00105771)
(1.18956 0.0114764 0.0018998)
(1.17747 0.022985 0.00397356)
(1.18074 0.020122 0.00322383)
(1.17832 0.0233744 0.00454078)
(1.18129 0.0203322 0.00357329)
(1.18662 0.0210907 0.00525213)
(1.16124 0.0409449 0.0167789)
(1.16627 0.033867 0.0135399)
(1.15803 0.0360911 0.0192367)
(1.16491 0.0303473 0.0155615)
(1.19032 0.0337533 0.01936)
(0.711607 0.0215551 0.0947143)
(0.824803 0.0240908 0.05913)
(0.708788 0.0215881 0.0785343)
(0.707208 0.015061 0.0947492)
(1.07329 0.0211257 0.127459)
(1.19995 2.59801e-05 2.19951e-05)
(1.19997 3.15726e-05 3.67661e-05)
(1.19996 2.60354e-05 2.69784e-05)
(1.19975 0.000104342 4.7991e-05)
(1.1998 9.03121e-05 5.38332e-05)
(1.19975 0.000119755 4.25347e-05)
(1.1999 0.000107697 5.4811e-05)
(1.19941 0.000177081 2.39469e-05)
(1.19963 0.000172518 2.45735e-05)
(1.1996 0.000186801 2.47307e-05)
(1.19961 0.00018044 3.2486e-05)
(1.19943 0.000257773 2.42558e-05)
(1.1995 0.000247937 2.45408e-05)
(1.19946 0.000273739 2.52396e-05)
(1.19968 0.00026151 3.58743e-05)
(1.19929 0.00038838 2.82375e-05)
(1.19933 0.000372384 2.79326e-05)
(1.19929 0.000412893 2.91612e-05)
(1.1996 0.000391964 4.58048e-05)
(1.19907 0.000593266 3.60023e-05)
(1.19912 0.000566758 3.49366e-05)
(1.19906 0.000631669 3.74877e-05)
(1.19943 0.000597247 6.37577e-05)
(1.19872 0.000921788 5.29421e-05)
(1.19882 0.000878159 4.9893e-05)
(1.19873 0.000981868 5.49804e-05)
(1.19918 0.000925629 9.63218e-05)
(1.19822 0.00145603 7.88231e-05)
(1.19838 0.00138219 7.34737e-05)
(1.19823 0.00155178 8.24585e-05)
(1.19879 0.00145829 0.000146986)
(1.19746 0.00233609 0.000128687)
(1.19771 0.00220685 0.000118421)
(1.1975 0.00248358 0.000133854)
(1.19823 0.002328 0.000235199)
(1.19635 0.00378166 0.000207985)
(1.19674 0.00354779 0.000191017)
(1.19644 0.0039987 0.000215539)
(1.19745 0.00374367 0.000378238)
(1.19478 0.00614935 0.0003604)
(1.19538 0.00572101 0.00032278)
(1.19497 0.00643933 0.000376724)
(1.19644 0.0060222 0.000637086)
(1.19253 0.00986009 0.000776286)
(1.19346 0.0090999 0.000661445)
(1.1928 0.0101594 0.000836317)
(1.19527 0.00948961 0.00121687)
(1.18785 0.0148189 0.00253782)
(1.18953 0.0137264 0.00202521)
(1.18746 0.0149381 0.00288059)
(1.19367 0.0138313 0.00309864)
(1.16645 0.0175588 0.012096)
(1.17163 0.0172907 0.00940875)
(1.15857 0.0166018 0.0139162)
(1.18681 0.0148179 0.0129329)
(0.681101 -0.0125237 0.0947331)
(0.792698 -0.00282333 0.0572366)
(0.673702 -0.0185644 0.0797876)
(0.670921 -0.012946 0.0952991)
(1.03245 -0.0184901 0.124796)
(1.19996 2.33852e-05 1.68641e-05)
(1.19997 4.0139e-05 2.07928e-05)
(1.19997 2.71726e-05 1.60571e-05)
(1.19996 2.34717e-05 1.90161e-05)
(1.19973 6.99822e-05 7.54023e-05)
(1.19978 7.31615e-05 6.6489e-05)
(1.19971 6.39646e-05 8.24165e-05)
(1.19992 6.72052e-05 7.58241e-05)
(1.19973 6.9746e-05 8.46976e-05)
(1.19928 4.22502e-05 8.51855e-05)
(1.19952 4.31508e-05 9.34955e-05)
(1.19945 4.14498e-05 9.5604e-05)
(1.19958 4.84769e-05 9.36497e-05)
(1.19928 4.20707e-05 0.000103016)
(1.19917 3.95041e-05 0.000107686)
(1.19926 3.95496e-05 0.000114742)
(1.19918 3.95867e-05 0.000124498)
(1.19957 5.3483e-05 0.00011921)
(1.19918 3.94954e-05 0.000131521)
(1.19888 4.19175e-05 0.000156524)
(1.19894 4.14338e-05 0.000165184)
(1.19884 4.24354e-05 0.000183322)
(1.19936 6.6656e-05 0.0001735)
(1.1989 4.18175e-05 0.000191729)
(1.19843 4.90959e-05 0.00024233)
(1.19851 4.76105e-05 0.000254296)
(1.19837 5.05661e-05 0.000284568)
(1.19898 8.96739e-05 0.000267841)
(1.19846 4.86558e-05 0.000296235)
(1.19775 6.78622e-05 0.000386755)
(1.19788 6.46065e-05 0.000403798)
(1.19767 7.07662e-05 0.000455213)
(1.19839 0.000133724 0.000426837)
(1.19781 6.70544e-05 0.000471928)
(1.1967 0.000103657 0.000633562)
(1.1969 9.72993e-05 0.000658443)
(1.19657 0.00010991 0.000747875)
(1.19745 0.00021275 0.000698097)
(1.1968 0.00010224 0.000771295)
(1.19495 0.000177964 0.00107456)
(1.19529 0.000164491 0.00110913)
(1.19474 0.000191113 0.00127161)
(1.19589 0.000364349 0.001179)
(1.19512 0.000174463 0.00130178)
(1.19188 0.000351577 0.00191671)
(1.19252 0.000317987 0.00195406)
(1.19152 0.00038427 0.00227276)
(1.19324 0.000685963 0.00208528)
(1.19224 0.000341942 0.00229693)
(1.18606 0.00081094 0.00371163)
(1.18734 0.000718704 0.00369174)
(1.18539 0.000904378 0.00439678)
(1.18846 0.00145742 0.00396826)
(1.18684 0.000784346 0.0043478)
(1.17379 0.00222773 0.00828852)
(1.17671 0.00192952 0.00781499)
(1.17245 0.00254313 0.00965911)
(1.17933 0.0036284 0.00849541)
(1.17585 0.00214226 0.00922571)
(1.14517 0.00734164 0.0230501)
(1.15272 0.00621793 0.0195825)
(1.14295 0.00852166 0.0253483)
(1.16172 0.0108925 0.0216199)
(1.15164 0.00703204 0.0226132)
(1.08511 0.0260476 0.074199)
(1.10203 0.0224814 0.0551994)
(1.08574 0.0313165 0.0680345)
(1.14325 0.0373363 0.0616257)
(1.10001 0.0257581 0.0542482)
(0.982976 0.0684153 -0.00107459)
(0.979075 0.0837911 0.0344294)
(1.13212 0.139685 0.037582)
(0.908377 0.0861749 0.00376557)
(1.04448 0.223297 -0.0105369)
(0.642431 0.0896831 -0.0283784)
(1.06074 0.218375 -0.0357607)
(0.627037 0.0908989 -0.029217)
(1.19998 1.14325e-05 1.71423e-05)
(1.19998 1.25089e-05 1.59062e-05)
(1.2 1.35029e-05 2.0893e-05)
(1.19998 1.54768e-05 1.58871e-05)
(1.19998 1.14143e-05 1.91401e-05)
(1.19996 4.8608e-05 7.467e-05)
(1.19996 5.5935e-05 7.47452e-05)
(1.19998 4.05962e-05 6.52926e-05)
(1.19997 5.49188e-05 8.05693e-05)
(1.19996 6.27783e-05 7.42753e-05)
(1.19996 4.79743e-05 8.39403e-05)
(1.19967 8.84961e-05 8.35509e-05)
(1.19966 8.54689e-05 9.17408e-05)
(1.19989 8.42052e-05 9.0845e-05)
(1.19986 9.18066e-05 9.30751e-05)
(1.19967 0.000102851 9.08382e-05)
(1.19967 8.76028e-05 0.000101066)
(1.19967 0.00013044 0.000106075)
(1.19967 0.000121194 0.000117512)
(1.19974 0.000123404 0.000112477)
(1.19969 0.000136549 0.000122214)
(1.19968 0.000147182 0.000116299)
(1.19968 0.000129223 0.000129593)
(1.19948 0.000196717 0.00015372)
(1.19948 0.000179483 0.000170785)
(1.19953 0.000185943 0.000161905)
(1.19946 0.000206731 0.000179119)
(1.1995 0.000218386 0.00016894)
(1.1995 0.000194862 0.000187968)
(1.19914 0.000303902 0.000234854)
(1.19914 0.000274471 0.000261587)
(1.1992 0.000286474 0.000246466)
(1.1991 0.000319998 0.000275421)
(1.19917 0.000334152 0.000258119)
(1.19917 0.000300416 0.000287344)
(1.1986 0.000478757 0.000372353)
(1.1986 0.000430551 0.000414865)
(1.19871 0.000449607 0.000388968)
(1.19854 0.000505278 0.000437859)
(1.19866 0.000523633 0.000408108)
(1.19866 0.000471972 0.000454542)
(1.19775 0.00077607 0.000605494)
(1.19775 0.000696721 0.00067492)
(1.19792 0.000725234 0.000630041)
(1.19766 0.000821549 0.000713523)
(1.19785 0.000845256 0.000661606)
(1.19784 0.000762708 0.000737399)
(1.19637 0.00130563 0.00101321)
(1.19636 0.00117262 0.0011292)
(1.19665 0.0012121 0.00104795)
(1.19623 0.00138737 0.0011963)
(1.19655 0.00141489 0.00110132)
(1.19653 0.00127766 0.00122808)
(1.19409 0.00230604 0.00176739)
(1.19406 0.0020783 0.00196657)
(1.19457 0.00212124 0.00180888)
(1.19386 0.00246215 0.00208976)
(1.19443 0.00248144 0.00190248)
(1.1944 0.00224179 0.00212173)
(1.19026 0.00436145 0.00329486)
(1.19019 0.00396599 0.00364443)
(1.19111 0.00395726 0.00330397)
(1.18994 0.004684 0.0038875)
(1.19097 0.00464111 0.00347636)
(1.19089 0.00419306 0.00387744)
(1.18393 0.00906315 0.00683597)
(1.18375 0.00838747 0.0074183)
(1.18546 0.00805531 0.00656516)
(1.18364 0.00977604 0.0079231)
(1.18559 0.00945786 0.00689121)
(1.18539 0.00853512 0.00771522)
(1.17565 0.0210779 0.0164716)
(1.17509 0.019985 0.0170915)
(1.1779 0.0181155 0.0145197)
(1.17655 0.0224392 0.0179673)
(1.17972 0.0210403 0.0150417)
(1.17934 0.0190246 0.0168552)
(1.185 0.0515565 0.0423565)
(1.18366 0.0491102 0.0412186)
(1.18324 0.0417279 0.0332682)
(1.19394 0.0495476 0.0389181)
(1.19207 0.0454197 0.0325637)
(1.19105 0.0428945 0.0345707)
(1.29651 0.0642205 0.0268039)
(1.2884 0.061907 0.0255375)
(1.27159 0.054113 0.0300952)
(1.29792 0.0418229 0.0107057)
(1.27576 0.0440632 0.0209358)
(1.2759 0.0597912 0.0164207)
(1.19998 2.14399e-05 1.61539e-05)
(1.19998 2.05764e-05 1.55184e-05)
(1.2 2.61308e-05 2.01673e-05)
(1.19998 2.23267e-05 1.53665e-05)
(1.19998 2.12886e-05 1.89101e-05)
(1.19996 8.8976e-05 7.36929e-05)
(1.19996 8.52457e-05 7.25381e-05)
(1.19998 7.54095e-05 6.32676e-05)
(1.19997 9.9458e-05 7.78912e-05)
(1.19997 9.15908e-05 7.186e-05)
(1.19996 8.81791e-05 8.25202e-05)
(1.19968 0.000151327 8.06942e-05)
(1.19968 0.000144727 8.75922e-05)
(1.1999 0.000144713 8.6656e-05)
(1.19988 0.00015691 8.85996e-05)
(1.19969 0.000155361 8.63636e-05)
(1.19968 0.000150104 9.76234e-05)
(1.19972 0.000219865 0.000101059)
(1.19972 0.00021032 0.00011147)
(1.19979 0.000208413 0.000106459)
(1.19975 0.000229927 0.000115368)
(1.19973 0.000225955 0.00010954)
(1.19973 0.000217932 0.000123588)
(1.19958 0.000328446 0.000144559)
(1.19958 0.000314038 0.000160841)
(1.19962 0.000310758 0.000151801)
(1.19957 0.0003445 0.000167639)
(1.19961 0.000337721 0.000157479)
(1.1996 0.000325075 0.000177121)
(1.19932 0.000501663 0.00021857)
(1.19931 0.000479884 0.00024414)
(1.19938 0.000473394 0.000229134)
(1.1993 0.000527636 0.000255225)
(1.19937 0.000515599 0.000238403)
(1.19935 0.000495907 0.000267361)
(1.19892 0.000782237 0.000340121)
(1.1989 0.000748457 0.000380973)
(1.199 0.000735786 0.000355706)
(1.19888 0.000824311 0.000398565)
(1.19899 0.000802382 0.000370245)
(1.19897 0.000771476 0.000415486)
(1.19831 0.00124823 0.000542173)
(1.19826 0.00119556 0.000608727)
(1.19843 0.00116948 0.000565271)
(1.19825 0.00131787 0.000636617)
(1.19842 0.00127602 0.000588067)
(1.19838 0.00122752 0.000660763)
(1.19736 0.00204034 0.000882231)
(1.19728 0.00195839 0.000992623)
(1.19755 0.00190264 0.000915852)
(1.19727 0.00215732 0.00103669)
(1.19756 0.00207385 0.000950782)
(1.19749 0.0019984 0.00107093)
(1.19592 0.00342564 0.00147318)
(1.19578 0.00330266 0.00166121)
(1.19623 0.00317624 0.00151858)
(1.19581 0.00362557 0.00173127)
(1.19627 0.00344926 0.00157202)
(1.19615 0.00333626 0.00177491)
(1.19388 0.0059117 0.00255517)
(1.19363 0.00574672 0.0028828)
(1.19434 0.00544338 0.00259946)
(1.19379 0.00625015 0.00299126)
(1.19449 0.00585806 0.0026783)
(1.1943 0.00570682 0.00303304)
(1.19158 0.0103935 0.00467402)
(1.1911 0.0102586 0.00522792)
(1.19214 0.00949802 0.00462281)
(1.19169 0.0109096 0.00536361)
(1.19261 0.0100153 0.00471973)
(1.19238 0.00988452 0.00539996)
(1.19168 0.0177765 0.00902905)
(1.19071 0.0180176 0.00971336)
(1.19158 0.0161714 0.00838177)
(1.19241 0.0181423 0.00968516)
(1.19281 0.0162669 0.00839439)
(1.19308 0.0164562 0.00989091)
(1.20524 0.0244324 0.0172249)
(1.20326 0.0261973 0.0165656)
(1.20108 0.0226037 0.0142106)
(1.20724 0.0225313 0.015585)
(1.20318 0.0201824 0.0137383)
(1.20672 0.0216082 0.0166349)
(1.25722 0.011892 0.0208274)
(1.24418 0.0156374 0.013338)
(1.23748 0.0129716 0.0143662)
(1.24872 0.00733317 0.00785283)
(1.23802 0.00773989 0.0116776)
(1.25062 0.0102695 0.0166437)
(1.19998 2.57135e-05 1.52487e-05)
(1.19998 2.55064e-05 1.49316e-05)
(1.2 3.1084e-05 1.93891e-05)
(1.19998 2.55471e-05 1.82992e-05)
(1.19997 0.000106897 7.22533e-05)
(1.19997 0.000104541 6.97466e-05)
(1.19999 9.03032e-05 6.07904e-05)
(1.19998 0.000119725 7.46938e-05)
(1.19997 0.000105974 8.06034e-05)
(1.19972 0.000178554 7.69208e-05)
(1.19971 0.000175634 8.23773e-05)
(1.19994 0.000171143 8.16523e-05)
(1.19992 0.000184983 8.29476e-05)
(1.19972 0.000177127 9.29912e-05)
(1.1998 0.000258376 9.40291e-05)
(1.19979 0.000254685 0.000102975)
(1.19986 0.000244926 9.82345e-05)
(1.19984 0.000270184 0.000106081)
(1.19981 0.000256021 0.000115146)
(1.19973 0.000386021 0.000132333)
(1.19972 0.000380874 0.000146732)
(1.19975 0.000365439 0.000138363)
(1.19972 0.000404866 0.000152245)
(1.19974 0.000382331 0.000162258)
(1.19957 0.000586211 0.000196072)
(1.19955 0.000578788 0.00021909)
(1.19961 0.000553667 0.000205217)
(1.19956 0.000615965 0.000227572)
(1.1996 0.000579533 0.000239855)
(1.19934 0.000905419 0.000298618)
(1.1993 0.000894459 0.00033527)
(1.19939 0.000853118 0.000312475)
(1.19932 0.000952524 0.000348233)
(1.19938 0.000893464 0.000364964)
(1.199 0.00141871 0.000463148)
(1.19894 0.00140288 0.00052207)
(1.19907 0.00133296 0.00048417)
(1.19898 0.00149358 0.000540713)
(1.19906 0.00139625 0.000564611)
(1.19851 0.00224944 0.000723678)
(1.19841 0.00222869 0.000819455)
(1.19862 0.00210804 0.000755184)
(1.19848 0.00236677 0.000845235)
(1.1986 0.00220596 0.000880925)
(1.19784 0.00358785 0.00114612)
(1.19768 0.00356711 0.00130309)
(1.198 0.00335401 0.00119071)
(1.19782 0.00376685 0.00133706)
(1.198 0.00350191 0.00138708)
(1.19705 0.00569576 0.00184381)
(1.19682 0.00569174 0.00210271)
(1.19726 0.00531586 0.00190119)
(1.19707 0.00594748 0.0021411)
(1.19731 0.00552274 0.00220821)
(1.19638 0.00876158 0.0030313)
(1.19608 0.0088092 0.00343694)
(1.1966 0.00819157 0.0030686)
(1.19649 0.00903244 0.00345896)
(1.19681 0.00840983 0.00356864)
(1.1963 0.0120683 0.00516008)
(1.19599 0.0122168 0.00556729)
(1.19631 0.0114832 0.00491881)
(1.19629 0.0120704 0.00551369)
(1.19695 0.0113793 0.00586754)
(1.19735 0.00993891 0.0096068)
(1.19732 0.0106416 0.00867167)
(1.19651 0.0109673 0.00768071)
(1.19673 0.00831305 0.0084894)
(1.19823 0.008768 0.00947624)
(1.20727 -0.0459329 0.0148951)
(1.21292 -0.0277615 0.00940995)
(1.20196 -0.0269782 0.00966795)
(1.20987 -0.0576386 0.00714958)
(1.20468 -0.0464939 0.0106548)
(1.19996 2.37858e-05 2.51082e-05)
(1.19997 4.07459e-05 3.25677e-05)
(1.19997 2.78037e-05 2.59832e-05)
(1.19996 2.38484e-05 2.68095e-05)
(1.19973 6.95536e-05 0.000107682)
(1.19978 7.30848e-05 9.6053e-05)
(1.19971 6.3661e-05 0.000121582)
(1.19992 6.67097e-05 0.000110992)
(1.19973 6.96362e-05 0.000113727)
(1.1993 4.18804e-05 0.000144901)
(1.19954 4.28644e-05 0.000148201)
(1.19948 4.12846e-05 0.000154482)
(1.19961 4.76264e-05 0.000150546)
(1.19931 4.19399e-05 0.000155243)
(1.19922 3.96143e-05 0.000191013)
(1.19931 3.96941e-05 0.000191133)
(1.19925 3.97316e-05 0.000208192)
(1.19963 5.30482e-05 0.000199206)
(1.19924 3.97147e-05 0.000206176)
(1.19897 4.1271e-05 0.000278825)
(1.19903 4.10756e-05 0.000276792)
(1.19895 4.15098e-05 0.000306582)
(1.19946 6.47642e-05 0.000290653)
(1.199 4.12459e-05 0.000301126)
(1.19859 4.73711e-05 0.00043066)
(1.19867 4.58158e-05 0.00042478)
(1.19856 4.86537e-05 0.000475328)
(1.19915 8.49921e-05 0.000447604)
(1.19864 4.67376e-05 0.000464406)
(1.19803 6.43818e-05 0.000681426)
(1.19815 6.12051e-05 0.000670073)
(1.19799 6.7009e-05 0.000753214)
(1.19868 0.000124815 0.000707462)
(1.19812 6.33085e-05 0.000733331)
(1.19717 9.67725e-05 0.00110347)
(1.19737 9.0793e-05 0.00107983)
(1.19711 0.000101539 0.00122101)
(1.19795 0.000195139 0.00114274)
(1.19732 9.46085e-05 0.00118334)
(1.19581 0.000160124 0.00182931)
(1.19614 0.00014747 0.00177942)
(1.19572 0.000169601 0.00202321)
(1.19678 0.000323082 0.00188506)
(1.19607 0.000154642 0.00194872)
(1.19354 0.000305408 0.00311378)
(1.19411 0.000274485 0.00300202)
(1.19341 0.000329176 0.00343534)
(1.1949 0.000587011 0.00318289)
(1.19401 0.000291479 0.00327912)
(1.18951 0.000690686 0.00547573)
(1.19056 0.000607236 0.00520342)
(1.18928 0.000762439 0.00599601)
(1.19182 0.00120405 0.00552196)
(1.1904 0.000657081 0.00564387)
(1.18177 0.00188491 0.00994351)
(1.18382 0.00162515 0.00923904)
(1.18121 0.00214824 0.0106726)
(1.18672 0.0028911 0.00979575)
(1.18342 0.00180386 0.00984716)
(1.16451 0.00633508 0.0178233)
(1.16883 0.00537936 0.016113)
(1.16208 0.00747663 0.0181757)
(1.17799 0.00858167 0.0169148)
(1.16699 0.0061532 0.0164783)
(1.1104 0.0247647 0.0250131)
(1.12205 0.0209989 0.0228235)
(1.09521 0.0299446 0.0226501)
(1.15633 0.0324405 0.0230086)
(1.11086 0.0245173 0.0213157)
(0.84921 0.0863845 0.00622477)
(0.897367 0.0809336 0.0111475)
(1.03658 0.140653 0.0097439)
(0.843578 0.0866006 0.00810111)
(0.970268 0.209997 0.0149024)
(0.557618 0.0882338 0.00356967)
(0.971574 0.210169 -0.00229391)
(0.556684 0.0880885 -0.00231685)
(1.19998 1.10346e-05 2.49351e-05)
(1.19998 1.19156e-05 2.5737e-05)
(1.2 1.29791e-05 3.23842e-05)
(1.19998 1.49712e-05 2.55861e-05)
(1.19998 1.08849e-05 2.66779e-05)
(1.19997 4.66926e-05 0.000107478)
(1.19996 5.47441e-05 0.000110704)
(1.19998 3.94404e-05 9.5914e-05)
(1.19997 5.3366e-05 0.000121081)
(1.19996 6.13795e-05 0.000110331)
(1.19997 4.60969e-05 0.000113683)
(1.19969 8.51552e-05 0.000142499)
(1.19969 8.27027e-05 0.000148569)
(1.19991 8.13937e-05 0.000145928)
(1.19988 8.85361e-05 0.000151898)
(1.19969 9.96995e-05 0.000147503)
(1.1997 8.41041e-05 0.000152881)
(1.19972 0.000125173 0.000187944)
(1.19972 0.000116666 0.000196621)
(1.19979 0.000118445 0.00018799)
(1.19975 0.000130914 0.000204708)
(1.19973 0.000141437 0.00019492)
(1.19974 0.000123466 0.000202728)
(1.19957 0.00018799 0.000273363)
(1.19958 0.00017154 0.000286149)
(1.19962 0.00017749 0.000271306)
(1.19957 0.000196786 0.000300141)
(1.1996 0.000208293 0.000283249)
(1.19961 0.000185076 0.000294935)
(1.1993 0.000286522 0.000417945)
(1.19931 0.000257861 0.000437879)
(1.19936 0.00026951 0.000412743)
(1.19928 0.000299834 0.000460835)
(1.19934 0.000314077 0.000432243)
(1.19935 0.000280859 0.000450769)
(1.19887 0.000445061 0.000657446)
(1.19888 0.000398324 0.000688864)
(1.19897 0.000416557 0.000646881)
(1.19884 0.000466386 0.000726237)
(1.19894 0.000484554 0.00067823)
(1.19895 0.000434383 0.000707818)
(1.1982 0.000709874 0.00105607)
(1.19823 0.000633261 0.00110611)
(1.19837 0.00066062 0.00103481)
(1.19817 0.000744501 0.0011671)
(1.19832 0.000768393 0.00108523)
(1.19834 0.000688928 0.00113276)
(1.19716 0.0011685 0.0017295)
(1.1972 0.00104064 0.00180952)
(1.19742 0.00107937 0.00168585)
(1.19712 0.00122718 0.00191006)
(1.19736 0.0012567 0.00176737)
(1.1974 0.00112623 0.00184408)
(1.19552 0.00200097 0.00289264)
(1.19559 0.00178414 0.0030185)
(1.19596 0.00183122 0.00279787)
(1.19548 0.00210471 0.00318531)
(1.19589 0.00213402 0.00292943)
(1.19594 0.00191174 0.00305176)
(1.19305 0.00360721 0.00495364)
(1.19315 0.00324016 0.00514032)
(1.19374 0.00326033 0.00473329)
(1.19305 0.00380071 0.00541199)
(1.19373 0.00380479 0.00493991)
(1.19377 0.00340648 0.00512586)
(1.18972 0.00693659 0.00862543)
(1.18983 0.00636369 0.008854)
(1.19074 0.00617381 0.0080956)
(1.18994 0.00732004 0.00923758)
(1.19106 0.0072217 0.00838105)
(1.19094 0.00646282 0.00861818)
(1.18732 0.0142794 0.014502)
(1.18707 0.0137921 0.0146171)
(1.1882 0.0125271 0.0133437)
(1.1882 0.0151163 0.0147993)
(1.18985 0.0146279 0.0135269)
(1.18888 0.0131866 0.0136645)
(1.19189 0.0330568 0.0187146)
(1.19535 0.0310826 0.0190161)
(1.19301 0.0271228 0.0176142)
(1.19748 0.0330655 0.0172225)
(1.19493 0.0291362 0.0168876)
(1.19827 0.030398 0.0167757)
(1.2319 0.0769653 0.00702847)
(1.24309 0.0635614 0.00719083)
(1.22942 0.0568818 0.00863724)
(1.25 0.0633986 0.00332305)
(1.23739 0.0622908 0.00782152)
(1.23927 0.0542398 0.00577206)
(1.19998 2.06751e-05 2.40382e-05)
(1.19998 1.97701e-05 2.49762e-05)
(1.2 2.53208e-05 3.14279e-05)
(1.19998 2.14076e-05 2.47257e-05)
(1.19998 2.04257e-05 2.57816e-05)
(1.19996 8.64865e-05 0.000105538)
(1.19996 8.34953e-05 0.000108681)
(1.19998 7.39296e-05 9.40245e-05)
(1.19997 9.7311e-05 0.000118466)
(1.19996 8.95745e-05 0.000107981)
(1.19997 8.56083e-05 0.000111626)
(1.1997 0.000146453 0.000137663)
(1.1997 0.000140418 0.00014368)
(1.19992 0.000140509 0.000141149)
(1.1999 0.000152049 0.000146514)
(1.19971 0.000150702 0.000142134)
(1.19971 0.000144915 0.000147702)
(1.19977 0.000211277 0.000179405)
(1.19977 0.000201999 0.000188174)
(1.19983 0.000200448 0.000179706)
(1.19981 0.000220509 0.000195148)
(1.19978 0.000216983 0.00018546)
(1.19978 0.000208555 0.0001935)
(1.19967 0.000312838 0.000258282)
(1.19967 0.000298561 0.000271439)
(1.19971 0.000295738 0.000256746)
(1.19967 0.000326977 0.000283091)
(1.1997 0.000320989 0.000266597)
(1.1997 0.000307981 0.000278738)
(1.19947 0.000473013 0.000389015)
(1.19947 0.0004508 0.000409613)
(1.19952 0.000445234 0.000384867)
(1.19946 0.000494785 0.000428187)
(1.19952 0.00048416 0.000400439)
(1.19952 0.000463809 0.000419636)
(1.19916 0.000728709 0.000602568)
(1.19916 0.000693496 0.000635524)
(1.19924 0.000683181 0.000594346)
(1.19915 0.000762357 0.000664343)
(1.19924 0.000743755 0.000618352)
(1.19924 0.000711486 0.000649178)
(1.19869 0.00114461 0.000949049)
(1.19868 0.00108867 0.00100209)
(1.19882 0.00106772 0.000932816)
(1.19868 0.00119785 0.00104653)
(1.19882 0.00116317 0.000969345)
(1.19882 0.00111179 0.00101916)
(1.198 0.00183496 0.00151659)
(1.19798 0.00174641 0.00160275)
(1.19819 0.00170295 0.00148468)
(1.19799 0.001919 0.00167028)
(1.19822 0.00185233 0.00153942)
(1.1982 0.00177149 0.00162044)
(1.19702 0.00299792 0.00244936)
(1.19698 0.00285998 0.0025899)
(1.19731 0.00276497 0.00238513)
(1.19704 0.00312969 0.00268793)
(1.19738 0.00299486 0.00246283)
(1.19734 0.00287059 0.00259459)
(1.19581 0.00497463 0.00398711)
(1.19574 0.00477359 0.00421175)
(1.19621 0.00455863 0.00385188)
(1.19594 0.00517054 0.00434164)
(1.1964 0.00489025 0.00395313)
(1.19634 0.00471559 0.00416133)
(1.19496 0.00823664 0.00645356)
(1.19482 0.0080102 0.00678955)
(1.19538 0.00751145 0.00617197)
(1.19538 0.00847244 0.00690504)
(1.19585 0.00788885 0.00626815)
(1.19575 0.00771448 0.00657081)
(1.19689 0.0128572 0.00983939)
(1.1966 0.0129066 0.010249)
(1.19678 0.0117747 0.00934038)
(1.19801 0.0128956 0.0101173)
(1.1978 0.0117714 0.00929835)
(1.19773 0.0119054 0.00965432)
(1.20877 0.0157708 0.0119514)
(1.20743 0.0176006 0.0118231)
(1.20587 0.015007 0.0112451)
(1.21047 0.0147776 0.0108073)
(1.20719 0.0131527 0.0106303)
(1.20832 0.0145798 0.0114743)
(1.24162 0.00858432 0.00660651)
(1.23611 0.01447 0.00340672)
(1.23204 0.0096707 0.0049387)
(1.24137 0.00695572 0.00109076)
(1.23317 0.00479692 0.00311879)
(1.23754 0.00830641 0.00625066)
(1.19998 2.47353e-05 2.28636e-05)
(1.19998 2.44136e-05 2.38369e-05)
(1.2 2.98324e-05 3.01251e-05)
(1.19998 2.44181e-05 2.45329e-05)
(1.19997 0.000103676 0.000102879)
(1.19997 0.000102035 0.000105614)
(1.19999 8.7952e-05 9.13243e-05)
(1.19998 0.000116872 0.000114759)
(1.19997 0.000102509 0.000108596)
(1.19974 0.000172783 0.000130989)
(1.19973 0.000170227 0.000136924)
(1.19995 0.000166321 0.000134586)
(1.19994 0.000178994 0.000139153)
(1.19974 0.000171011 0.000140699)
(1.19984 0.000247787 0.000167733)
(1.19984 0.000244181 0.000176381)
(1.1999 0.000234973 0.000168449)
(1.19989 0.000258699 0.000182106)
(1.19986 0.000244515 0.000181076)
(1.1998 0.000367889 0.000237235)
(1.1998 0.000362017 0.00025019)
(1.19983 0.000347715 0.000236413)
(1.19981 0.000384281 0.000259478)
(1.19983 0.000361977 0.000256162)
(1.1997 0.000553193 0.00034996)
(1.19969 0.000543921 0.000370007)
(1.19973 0.000521223 0.000347355)
(1.1997 0.000578182 0.000384269)
(1.19974 0.000542626 0.000377861)
(1.19953 0.000845103 0.00053003)
(1.19952 0.000830259 0.000561647)
(1.19959 0.000793404 0.000524305)
(1.19954 0.00088304 0.000582728)
(1.1996 0.00082553 0.000571264)
(1.1993 0.00130643 0.000813629)
(1.19927 0.00128325 0.000864074)
(1.19938 0.00122239 0.000802972)
(1.19932 0.0013638 0.000894489)
(1.1994 0.00127061 0.000874955)
(1.19899 0.00203468 0.00125798)
(1.19894 0.00199971 0.00133931)
(1.1991 0.00189741 0.00123852)