/*--------------------------------*- C++ -*----------------------------------*\
| =========                 |                                                 |
| \\      /  F ield         | OpenFOAM: The Open Source CFD Toolbox           |
|  \\    /   O peration     | Version:  2012                                  |
|   \\  /    A nd           | Website:  www.openfoam.com                      |
|    \\/     M anipulation  |                                                 |
\*---------------------------------------------------------------------------*/
FoamFile
{
    version     2.0;
    format      ascii;
    class       volScalarField::Internal;
    location    "0.108/fluid";
    object      V0;
}
// * * * * * * * * * * * * * * * * * * * * * * * * * * * * * * * * * * * * * //

dimensions      [0 3 0 0 0 0 0];


value           nonuniform List<scalar> 
16421
(
4.25189e-05
4.25183e-05
4.25181e-05
4.25187e-05
4.25196e-05
4.25206e-05
4.25221e-05
4.25236e-05
4.2525e-05
4.25259e-05
4.25249e-05
4.25178e-05
4.24883e-05
4.23057e-05
6.96082e-07
4.25269e-05
4.25249e-05
4.25225e-05
4.25228e-05
4.25226e-05
4.2522e-05
4.25218e-05
4.25227e-05
4.25232e-05
4.25236e-05
4.25243e-05
4.2524e-05
4.25182e-05
4.24995e-05
5.28446e-06
4.25354e-05
4.25321e-05
4.25275e-05
4.25274e-05
4.25267e-05
4.25238e-05
4.25191e-05
4.25195e-05
4.25201e-05
4.25204e-05
4.25234e-05
4.25309e-05
4.25441e-05
4.25571e-05
5.27389e-06
4.25423e-05
4.25384e-05
4.25328e-05
4.25335e-05
4.25332e-05
4.25265e-05
4.25214e-05
4.25201e-05
4.25202e-05
4.25208e-05
4.2524e-05
4.25316e-05
4.25416e-05
4.25394e-05
5.28602e-06
4.25188e-05
4.25182e-05
4.25179e-05
4.25188e-05
4.2519e-05
4.25201e-05
4.25214e-05
4.25233e-05
4.25244e-05
4.25252e-05
4.25245e-05
4.25192e-05
4.25041e-05
4.24778e-05
4.2397e-05
4.25267e-05
4.2525e-05
4.25226e-05
4.25225e-05
4.25212e-05
4.25214e-05
4.2521e-05
4.25214e-05
4.25221e-05
4.2523e-05
4.25235e-05
4.25241e-05
4.25246e-05
4.25391e-05
4.26541e-05
4.25351e-05
4.25327e-05
4.25274e-05
4.25273e-05
4.25254e-05
4.25221e-05
4.25183e-05
4.25178e-05
4.25181e-05
4.25191e-05
4.25216e-05
4.25303e-05
4.25445e-05
4.25679e-05
4.26103e-05
4.25413e-05
4.25389e-05
4.25332e-05
4.25327e-05
4.25311e-05
4.25263e-05
4.25207e-05
4.25172e-05
4.25179e-05
4.25197e-05
4.25223e-05
4.25311e-05
4.2544e-05
4.25415e-05
4.25416e-05
4.25187e-05
4.25181e-05
4.25182e-05
4.25185e-05
4.25188e-05
4.25201e-05
4.2522e-05
4.25226e-05
4.25235e-05
4.25242e-05
4.25232e-05
4.25189e-05
4.25073e-05
4.24704e-05
4.22817e-05
4.25262e-05
4.25249e-05
4.25234e-05
4.2522e-05
4.25208e-05
4.25201e-05
4.25201e-05
4.25193e-05
4.25196e-05
4.25211e-05
4.25221e-05
4.25226e-05
4.25245e-05
4.25362e-05
4.25974e-05
4.25344e-05
4.25323e-05
4.25293e-05
4.25269e-05
4.25252e-05
4.25205e-05
4.25161e-05
4.25151e-05
4.25153e-05
4.25164e-05
4.25188e-05
4.25271e-05
4.25436e-05
4.2576e-05
4.26366e-05
4.25412e-05
4.25384e-05
4.25351e-05
4.25318e-05
4.25293e-05
4.25234e-05
4.25172e-05
4.25149e-05
4.2516e-05
4.25159e-05
4.25186e-05
4.25272e-05
4.2542e-05
4.25525e-05
4.25326e-05
5.24586e-06
4.24682e-05
4.20642e-05
4.24591e-05
4.25369e-05
4.2515e-05
4.26045e-05
5.26064e-06
4.25656e-05
4.27033e-05
4.30299e-05
5.2743e-06
4.26372e-05
4.28696e-05
4.25621e-05
4.2702e-05
5.28159e-06
4.25654e-05
4.27187e-05
4.25891e-05
4.27844e-05
4.25715e-05
5.32333e-06
4.26651e-05
4.28649e-05
4.22872e-05
4.2574e-05
4.27033e-05
5.32228e-06
4.25252e-05
5.31405e-06
4.25626e-05
4.26884e-05
5.31437e-06
5.53499e-06
6.6509e-07
5.32077e-06
5.32514e-06
5.39277e-06
4.24263e-05
4.25526e-05
4.24924e-05
4.25308e-05
4.25875e-05
4.25603e-05
4.25689e-05
5.2789e-06
5.27944e-06
4.23694e-05
5.28668e-06
4.23709e-05
4.24813e-05
4.25507e-05
4.25107e-05
4.25635e-05
4.2571e-05
4.25528e-05
4.25751e-05
5.28454e-06
5.27438e-06
4.23384e-05
5.27919e-06
4.23505e-05
4.25254e-05
4.25409e-05
4.25432e-05
4.26041e-05
5.33467e-06
4.27513e-05
4.25607e-05
4.26771e-05
4.26379e-05
4.27347e-05
4.25358e-05
4.25896e-05
4.25287e-05
4.25486e-05
4.2523e-05
4.23376e-05
4.25284e-05
4.23178e-05
4.27261e-05
4.25406e-05
4.25875e-05
4.2531e-05
4.2313e-05
4.25478e-05
4.23246e-05
4.22627e-05
4.17137e-05
5.31939e-06
5.26774e-06
5.29748e-06
4.22156e-05
4.20337e-05
5.55463e-06
6.80205e-07
6.50955e-07
5.48969e-06
5.31739e-06
4.219e-05
5.32962e-06
5.29137e-06
5.52194e-06
5.34848e-06
5.59449e-06
5.28647e-06
5.46086e-06
6.469e-07
6.69164e-07
6.7764e-07
5.32964e-06
6.51666e-07
5.27287e-06
5.3399e-06
5.28042e-06
5.33062e-06
5.27951e-06
5.27788e-06
4.23397e-05
4.23516e-05
5.27921e-06
5.2736e-06
5.33248e-06
5.332e-06
5.27314e-06
5.27874e-06
5.33272e-06
5.27315e-06
5.33995e-06
5.28548e-06
5.27489e-06
4.24667e-05
4.23853e-05
5.31813e-06
5.28003e-06
5.39366e-06
5.34176e-06
5.32424e-06
5.41228e-06
5.34445e-06
4.26347e-05
4.23888e-05
4.25697e-05
5.38187e-06
5.30937e-06
5.34613e-06
5.31583e-06
6.47189e-07
6.69358e-07
5.32816e-06
6.68705e-07
6.46774e-07
5.31732e-06
6.46803e-07
6.68641e-07
6.6878e-07
5.31453e-06
6.4685e-07
5.30929e-06
5.31494e-06
5.30211e-06
4.25238e-05
4.23089e-05
4.23102e-05
5.31556e-06
5.30149e-06
5.30309e-06
5.31446e-06
6.46828e-07
6.68673e-07
5.31535e-06
6.68628e-07
6.46801e-07
5.31489e-06
6.6864e-07
6.46812e-07
5.30207e-06
5.31472e-06
5.30342e-06
5.31529e-06
5.3041e-06
7.0664e-07
6.32705e-07
6.68084e-07
6.79938e-07
4.24664e-05
4.25247e-05
4.26064e-05
4.24747e-05
4.23717e-05
4.25226e-05
4.25506e-05
4.26007e-05
5.24693e-06
4.256e-05
4.23289e-05
4.26692e-05
4.24813e-05
5.24145e-06
4.28199e-05
4.26101e-05
4.2741e-05
4.26078e-05
4.26924e-05
4.26589e-05
4.27616e-05
4.23631e-05
4.2519e-05
4.25409e-05
4.25555e-05
5.24059e-06
4.24204e-05
4.22798e-05
4.25574e-05
4.24167e-05
5.24053e-06
4.26759e-05
4.26571e-05
4.27528e-05
5.1228e-06
5.17181e-06
6.39917e-07
5.09997e-06
6.19532e-07
5.1054e-06
5.16418e-06
4.24428e-05
4.2245e-05
4.23515e-05
4.22638e-05
4.23508e-05
4.24158e-05
4.24529e-05
6.42462e-07
6.73552e-07
6.61634e-07
6.52079e-07
4.35984e-05
4.30654e-05
5.25133e-06
4.27419e-05
4.31881e-05
4.28646e-05
5.31522e-06
4.33859e-05
4.32585e-05
5.35299e-06
4.28863e-05
5.46193e-06
4.29893e-05
4.27418e-05
6.5356e-07
6.7449e-07
6.75138e-07
6.52931e-07
6.53765e-07
6.7547e-07
6.7544e-07
6.53786e-07
6.53852e-07
6.75465e-07
6.75551e-07
6.53779e-07
6.54367e-07
6.78585e-07
6.76183e-07
6.56246e-07
6.68351e-07
6.79199e-07
7.03799e-07
6.56526e-07
4.24702e-05
5.34506e-06
4.27594e-05
4.27764e-05
4.25459e-05
5.33498e-06
4.2685e-05
4.25738e-05
4.22999e-05
5.24052e-06
4.24287e-05
4.24457e-05
4.25624e-05
5.24121e-06
4.24375e-05
4.27293e-05
5.33222e-06
4.26207e-05
5.33411e-06
4.26437e-05
4.2422e-05
4.24104e-05
5.33206e-06
4.26076e-05
4.26797e-05
4.24143e-05
5.33152e-06
4.25997e-05
5.24062e-06
5.33151e-06
6.89855e-07
7.01075e-07
7.00363e-07
6.80088e-07
7.14163e-07
6.50551e-07
4.45531e-08
6.74308e-07
6.52623e-07
6.97308e-07
6.81948e-07
6.90852e-07
6.7997e-07
5.2504e-06
6.49037e-07
6.56072e-07
5.25886e-06
6.56565e-07
6.45303e-07
5.24574e-06
6.5663e-07
6.44188e-07
6.56606e-07
5.24299e-06
6.44847e-07
5.2405e-06
6.43634e-07
6.56671e-07
5.24032e-06
6.56753e-07
6.43644e-07
5.2408e-06
6.56902e-07
6.43664e-07
6.56711e-07
5.24153e-06
6.43625e-07
5.30459e-06
6.4399e-07
6.59226e-07
5.27006e-06
6.70899e-07
6.47016e-07
6.8017e-07
6.49207e-07
5.20473e-06
2.46032e-08
5.23229e-06
5.33532e-06
6.1362e-07
5.29216e-06
5.22887e-06
5.40795e-08
7.27212e-07
7.33514e-07
5.72012e-08
7.70448e-07
7.30048e-07
5.57887e-08
6.7177e-07
7.48436e-07
7.30261e-07
5.42532e-08
7.37913e-07
6.82778e-07
7.12688e-07
7.11755e-07
5.28841e-08
6.78814e-07
6.89387e-07
7.31293e-07
5.14958e-08
6.55327e-07
5.21529e-06
5.19919e-06
7.73127e-08
6.64918e-07
5.1773e-06
6.58055e-07
5.21275e-06
6.53234e-07
6.55658e-07
5.2709e-06
6.46911e-07
7.2409e-07
6.53183e-07
6.8918e-07
6.79061e-07
6.39943e-07
9.60311e-08
6.32688e-07
7.3579e-07
7.12722e-07
6.43379e-07
6.39056e-07
6.58771e-07
6.4926e-07
6.48554e-07
6.30924e-07
6.88172e-07
7.0246e-07
6.38521e-07
5.14921e-08
6.69308e-07
6.48047e-07
6.71446e-07
5.14886e-08
5.42453e-08
6.7077e-07
6.57199e-07
6.59714e-07
5.42405e-08
5.42433e-08
6.70102e-07
6.7056e-07
5.42635e-08
6.59252e-07
5.14908e-08
6.79663e-07
6.47399e-07
5.15058e-08
6.70608e-07
6.50108e-07
6.59357e-07
6.59889e-07
6.49418e-07
6.53691e-07
6.75357e-07
6.75308e-07
6.53717e-07
6.50244e-07
6.59951e-07
6.59957e-07
6.50296e-07
5.24042e-06
6.43644e-07
6.56692e-07
5.24034e-06
6.56658e-07
6.43795e-07
5.24067e-06
6.56651e-07
6.44082e-07
5.2415e-06
6.5665e-07
6.43889e-07
6.53754e-07
6.75415e-07
6.53763e-07
6.75423e-07
6.50364e-07
6.59975e-07
6.59959e-07
6.50394e-07
6.50352e-07
6.59974e-07
6.50344e-07
6.5995e-07
6.50462e-07
6.59957e-07
6.60027e-07
6.50388e-07
6.53811e-07
6.75733e-07
6.75516e-07
6.54003e-07
6.50428e-07
6.60167e-07
6.59991e-07
6.50612e-07
5.24851e-06
6.44068e-07
6.58996e-07
5.2557e-06
6.57241e-07
6.43727e-07
5.24481e-06
6.56834e-07
6.43638e-07
5.24265e-06
6.57343e-07
6.43769e-07
6.54467e-07
6.75658e-07
6.53935e-07
6.76277e-07
6.50954e-07
6.62205e-07
6.60483e-07
6.52761e-07
6.51059e-07
6.60098e-07
6.50545e-07
6.60581e-07
6.68937e-07
6.79141e-07
6.58229e-07
6.65273e-07
6.62477e-07
6.77345e-07
6.53011e-07
6.71491e-07
6.67473e-07
6.54705e-07
6.70855e-07
6.86141e-07
6.56283e-07
6.58163e-07
6.52741e-07
6.52176e-07
6.52574e-07
6.54562e-07
6.56458e-07
6.5736e-07
6.55907e-07
5.14893e-08
6.69746e-07
6.46792e-07
6.69045e-07
5.14901e-08
5.4241e-08
6.57566e-07
6.68817e-07
5.4242e-08
6.56725e-07
5.42409e-08
6.56582e-07
6.6894e-07
6.56947e-07
5.42403e-08
5.14893e-08
6.68982e-07
6.46939e-07
6.69284e-07
5.14887e-08
5.1489e-08
6.68968e-07
6.46826e-07
6.69054e-07
5.1489e-08
5.42406e-08
6.68711e-07
6.56513e-07
6.56624e-07
5.42405e-08
5.42406e-08
6.56723e-07
6.68659e-07
5.42407e-08
6.56533e-07
5.1489e-08
6.69126e-07
6.46772e-07
5.14895e-08
6.68972e-07
6.55861e-07
6.57195e-07
6.57309e-07
6.55768e-07
6.52069e-07
6.52279e-07
6.55803e-07
6.57519e-07
6.57212e-07
6.56008e-07
6.52127e-07
6.52033e-07
6.55764e-07
6.57256e-07
6.55802e-07
6.57193e-07
6.52051e-07
6.71185e-07
6.71186e-07
6.52032e-07
6.5203e-07
6.71189e-07
6.5207e-07
6.71168e-07
6.55785e-07
6.5719e-07
6.5722e-07
6.5576e-07
5.1489e-08
6.69025e-07
6.46796e-07
6.68975e-07
5.14891e-08
5.42405e-08
6.56578e-07
6.68628e-07
5.42405e-08
6.56512e-07
5.42401e-08
6.56514e-07
6.68654e-07
6.56552e-07
5.42401e-08
5.14886e-08
6.68989e-07
6.46813e-07
6.6902e-07
5.14886e-08
6.5654e-07
5.42397e-08
6.69017e-07
5.14883e-08
6.55793e-07
6.5727e-07
6.57185e-07
6.55824e-07
6.52056e-07
6.71196e-07
6.71187e-07
6.52044e-07
6.55795e-07
6.57206e-07
6.57193e-07
6.55771e-07
6.52059e-07
6.71179e-07
6.71174e-07
6.52091e-07
6.57256e-07
6.55813e-07
6.7116e-07
6.52083e-07
8.56189e-08
6.54047e-07
6.69661e-07
6.33435e-07
7.6957e-08
9.77968e-08
9.78095e-08
9.78243e-08
9.78238e-08
9.7861e-08
9.79785e-08
5.17337e-06
5.20319e-06
5.32825e-06
5.26303e-06
5.28993e-06
5.20035e-06
5.24767e-06
7.21371e-08
8.35293e-08
8.36155e-08
7.20843e-08
9.77945e-08
9.79171e-08
7.20944e-08
8.35322e-08
8.35388e-08
7.20875e-08
7.20982e-08
8.35481e-08
8.35473e-08
7.20984e-08
9.78243e-08
9.78231e-08
7.20982e-08
8.35481e-08
8.3548e-08
7.20985e-08
7.21048e-08
8.35822e-08
8.35554e-08
7.21229e-08
9.7878e-08
9.78398e-08
7.21658e-08
8.35669e-08
8.36455e-08
7.21148e-08
8.18602e-08
9.6701e-08
8.18946e-08
9.67163e-08
8.18136e-08
9.67211e-08
9.67204e-08
8.18105e-08
9.78225e-08
9.7821e-08
8.18203e-08
9.67198e-08
8.1818e-08
9.6719e-08
8.1821e-08
9.67197e-08
9.6717e-08
8.18289e-08
9.78276e-08
9.78244e-08
8.2e-08
9.67406e-08
8.18834e-08
9.68141e-08
6.99163e-07
5.48372e-06
5.69919e-06
5.51433e-06
5.75195e-06
5.74718e-06
6.7549e-07
8.22382e-08
9.67098e-08
8.19623e-08
9.68382e-08
7.1069e-08
8.26892e-08
8.27992e-08
7.09957e-08
6.73048e-07
5.37518e-06
5.37737e-06
5.42132e-06
6.74507e-07
5.36625e-06
5.3161e-06
6.72912e-07
5.35368e-06
5.33454e-06
5.28114e-06
5.34567e-06
5.29342e-06
6.72624e-07
7.10089e-08
8.26849e-08
8.26895e-08
7.09979e-08
7.20985e-08
8.35466e-08
8.3546e-08
7.20983e-08
7.10143e-08
8.26897e-08
8.26901e-08
7.10151e-08
8.18169e-08
9.67198e-08
8.18192e-08
9.67188e-08
8.18086e-08
9.6721e-08
8.18097e-08
9.67197e-08
7.20973e-08
8.35477e-08
7.20982e-08
8.3547e-08
7.10155e-08
8.26878e-08
8.26872e-08
7.10161e-08
7.10146e-08
8.26896e-08
7.10153e-08
8.26883e-08
9.7824e-08
9.78239e-08
7.10161e-08
8.26877e-08
8.26878e-08
7.10161e-08
7.20985e-08
8.35504e-08
8.35477e-08
7.20999e-08
7.10172e-08
8.26888e-08
8.26868e-08
7.10185e-08
8.18524e-08
9.67555e-08
8.19082e-08
9.67276e-08
8.1834e-08
9.6717e-08
8.18242e-08
9.67202e-08
7.21015e-08
8.35478e-08
7.20985e-08
8.35527e-08
7.10231e-08
8.27113e-08
8.26919e-08
7.10369e-08
7.10201e-08
8.2686e-08
7.10171e-08
8.26896e-08
9.78252e-08
9.78309e-08
7.10704e-08
8.26981e-08
8.27479e-08
7.10276e-08
6.72516e-07
5.32032e-06
5.27073e-06
5.32541e-06
5.32668e-06
5.27214e-06
6.72489e-07
6.72523e-07
5.31886e-06
5.33072e-06
5.27675e-06
5.32746e-06
6.726e-07
5.27312e-06
6.7248e-07
5.27053e-06
5.31485e-06
5.32531e-06
6.72489e-07
5.32471e-06
5.26984e-06
6.7248e-07
5.31599e-06
5.32446e-06
5.26945e-06
5.32476e-06
5.2698e-06
6.72477e-07
6.72473e-07
5.31503e-06
5.26927e-06
5.32437e-06
5.32446e-06
5.26939e-06
6.72471e-07
6.72473e-07
5.31444e-06
5.32454e-06
5.2695e-06
5.32437e-06
6.72475e-07
5.2693e-06
5.26933e-06
5.32444e-06
6.72474e-07
1.04077e-07
1.01328e-07
9.78169e-08
9.78135e-08
9.78257e-08
9.78244e-08
9.89928e-08
9.79581e-08
6.31167e-07
6.52807e-07
6.7398e-08
6.17244e-07
6.49673e-07
6.1276e-07
6.32414e-07
7.23016e-08
8.55249e-08
8.38532e-08
7.29915e-08
7.16059e-08
7.13245e-08
7.1541e-08
7.14119e-08
7.17848e-08
7.15462e-08
7.22632e-08
7.16294e-08
9.94075e-08
9.8209e-08
7.15504e-08
7.13283e-08
7.15435e-08
7.13364e-08
7.20964e-08
8.35436e-08
8.35417e-08
7.20978e-08
7.15524e-08
7.13398e-08
7.13377e-08
7.1554e-08
7.20967e-08
8.35478e-08
8.35464e-08
7.20981e-08
7.15557e-08
7.13418e-08
7.15558e-08
7.13416e-08
7.15541e-08
7.13417e-08
7.15557e-08
7.134e-08
9.78242e-08
9.7823e-08
7.15555e-08
7.13418e-08
7.15559e-08
7.13416e-08
7.20982e-08
8.35487e-08
8.35476e-08
7.2099e-08
7.15555e-08
7.13422e-08
7.13416e-08
7.15566e-08
7.21099e-08
8.35517e-08
8.35638e-08
7.2102e-08
7.15629e-08
7.13627e-08
7.158e-08
7.13477e-08
7.15672e-08
7.1345e-08
7.15598e-08
7.13517e-08
9.7831e-08
9.78488e-08
7.16208e-08
7.13547e-08
7.15718e-08
7.13941e-08
7.21526e-08
8.4374e-08
8.36164e-08
7.25689e-08
7.16077e-08
7.17552e-08
7.13846e-08
7.19935e-08
6.64778e-08
6.70325e-07
8.6111e-08
7.46805e-08
8.77398e-08
7.54445e-07
1.43434e-08
6.65631e-07
9.61443e-08
4.13463e-08
4.28263e-08
7.88173e-08
9.16253e-08
7.45648e-08
7.4792e-08
7.71171e-08
7.46894e-08
8.18403e-08
9.67197e-08
8.18305e-08
9.67152e-08
8.18167e-08
9.67189e-08
8.18227e-08
9.67207e-08
9.78198e-08
9.78211e-08
8.18192e-08
9.67188e-08
8.18222e-08
9.67192e-08
8.18251e-08
9.67169e-08
8.18194e-08
9.67185e-08
9.78236e-08
9.78263e-08
8.19628e-08
9.7271e-08
8.245e-08
9.67886e-08
9.75862e-08
8.26443e-08
9.97833e-08
7.45461e-08
7.4541e-08
7.45406e-08
7.45433e-08
7.45416e-08
7.45421e-08
7.45399e-08
6.5954e-07
6.44421e-07
2.68183e-08
6.22521e-07
6.16463e-07
6.35333e-07
6.6997e-07
8.49148e-08
7.76447e-07
1.82564e-08
8.6759e-08
1.05799e-07
5.53311e-08
7.04776e-08
8.78858e-08
2.99161e-08
9.45878e-08
7.42583e-07
2.01471e-08
8.49268e-08
8.20757e-08
9.15715e-08
7.88152e-08
9.19951e-08
8.22148e-08
7.98204e-08
6.89893e-07
5.43203e-08
6.69703e-07
8.35343e-08
7.79381e-08
7.45645e-08
7.47916e-08
7.7444e-08
7.77593e-08
7.71188e-08
7.46896e-08
8.09887e-08
8.00158e-08
5.43092e-08
6.58608e-07
6.62199e-07
7.94023e-08
1.01003e-07
7.32805e-07
5.15537e-08
7.1598e-07
1.04279e-07
8.45855e-08
7.11619e-08
8.43751e-08
7.12863e-08
1.01231e-07
5.15429e-08
7.08054e-07
7.10535e-07
1.00888e-07
8.44001e-08
7.14323e-08
8.67183e-08
7.11237e-08
6.38953e-07
7.07659e-07
3.25654e-08
8.6923e-08
6.29115e-07
4.06508e-08
7.10892e-07
6.47381e-07
6.34819e-07
6.54269e-07
8.89725e-08
6.42133e-07
4.32408e-08
6.9676e-07
8.26933e-08
9.8333e-08
8.34303e-08
9.71678e-08
9.46197e-08
8.47069e-08
7.65146e-08
8.12058e-08
8.60745e-08
8.33501e-08
6.92797e-08
6.41062e-08
6.73796e-08
7.09088e-08
7.12264e-08
7.1318e-08
7.08229e-08
7.12755e-08
8.43611e-08
8.30745e-08
7.13623e-08
7.11259e-08
7.13753e-08
7.15431e-08
7.10253e-08
8.02827e-08
6.48616e-08
6.3517e-08
6.36102e-08
1.00908e-07
7.05526e-07
5.149e-08
7.05371e-07
1.00935e-07
8.44133e-08
7.11901e-08
8.44011e-08
7.11979e-08
1.00925e-07
5.1491e-08
7.05238e-07
7.05313e-07
1.00909e-07
8.44004e-08
7.12247e-08
8.44161e-08
7.11911e-08
7.92878e-08
6.54579e-07
5.42422e-08
7.93304e-08
6.54356e-07
7.73772e-08
7.45411e-08
7.45507e-08
7.73578e-08
7.7363e-08
7.45583e-08
7.73979e-08
7.45433e-08
7.93041e-08
5.42432e-08
6.54143e-07
6.5425e-07
7.92804e-08
7.93864e-08
5.4251e-08
6.54804e-07
6.55279e-07
7.92994e-08
7.73922e-08
7.46223e-08
7.7553e-08
7.45513e-08
7.93279e-08
5.42466e-08
6.57006e-07
7.95276e-08
6.55851e-07
7.74424e-08
7.45465e-08
7.73715e-08
7.45771e-08
1.00961e-07
5.14968e-08
7.05655e-07
7.05985e-07
1.00904e-07
8.43887e-08
7.12307e-08
8.44701e-08
7.12024e-08
1.00899e-07
5.14925e-08
7.07099e-07
1.01019e-07
7.06317e-07
8.44339e-08
7.11993e-08
8.43951e-08
7.12187e-08
9.62653e-08
7.45406e-08
7.45502e-08
7.4558e-08
7.45429e-08
7.46225e-08
7.45512e-08
7.45461e-08
7.4577e-08
7.08343e-08
7.12303e-08
7.12389e-08
7.08254e-08
7.10098e-08
8.26899e-08
8.26896e-08
7.10129e-08
7.08352e-08
7.12428e-08
7.12403e-08
7.08376e-08
7.20979e-08
8.3545e-08
7.20988e-08
8.35454e-08
7.15552e-08
7.13414e-08
7.13412e-08
7.15551e-08
7.15544e-08
7.13409e-08
7.15551e-08
7.13403e-08
7.10141e-08
8.26899e-08
8.269e-08
7.10133e-08
7.08381e-08
7.12449e-08
7.12445e-08
7.08387e-08
7.08379e-08
7.12439e-08
7.08378e-08
7.12435e-08
8.18178e-08
9.67199e-08
8.18139e-08
9.67188e-08
8.18081e-08
9.67201e-08
8.18121e-08
9.67194e-08
7.20974e-08
8.35478e-08
7.20982e-08
8.35466e-08
7.15543e-08
7.13414e-08
7.15551e-08
7.13408e-08
7.15544e-08
7.13416e-08
7.15557e-08
7.13408e-08
7.08384e-08
7.12458e-08
7.12455e-08
7.08389e-08
7.10145e-08
8.26876e-08
8.26862e-08
7.10156e-08
7.08375e-08
7.12454e-08
7.12439e-08
7.08386e-08
7.08379e-08
7.1245e-08
7.08387e-08
7.12443e-08
7.10146e-08
8.26876e-08
8.26871e-08
7.10156e-08
7.08379e-08
7.12454e-08
7.12443e-08
7.08387e-08
9.78242e-08
9.78228e-08
7.08387e-08
7.12458e-08
7.12455e-08
7.08389e-08
7.10161e-08
8.26884e-08
8.26874e-08
7.10173e-08
7.08387e-08
7.12462e-08
7.12456e-08
7.08398e-08
7.20988e-08
8.35478e-08
7.20982e-08
8.35491e-08
7.15563e-08
7.13434e-08
7.13417e-08
7.15576e-08
7.15567e-08
7.13423e-08
7.15559e-08
7.13425e-08
7.10175e-08
8.26873e-08
8.26883e-08
7.10166e-08
7.08395e-08
7.12476e-08
7.12458e-08
7.08408e-08
7.08398e-08
7.12462e-08
7.0839e-08
7.12465e-08
8.18676e-08
9.67199e-08
8.18341e-08
9.67353e-08
8.18274e-08
9.67248e-08
8.1843e-08
9.67181e-08
7.21002e-08
8.35555e-08
7.21031e-08
8.35493e-08
7.15591e-08
7.13419e-08
7.15562e-08
7.13449e-08
7.15579e-08
7.13462e-08
7.15609e-08
7.13434e-08
7.08448e-08
7.12665e-08
7.12517e-08
7.08579e-08
7.1027e-08
8.26893e-08
8.26987e-08
7.10205e-08
7.08485e-08
7.1249e-08
7.12557e-08
7.08425e-08
7.08423e-08
7.12461e-08
7.08395e-08
7.12489e-08
7.10189e-08
8.26922e-08
8.26879e-08
7.10218e-08
7.08411e-08
7.12503e-08
7.12475e-08
7.08437e-08
9.7837e-08
9.78273e-08
7.08891e-08
7.12584e-08
7.12987e-08
7.08493e-08
7.10589e-08
8.30918e-08
8.27218e-08
7.16286e-08
7.08777e-08
7.17111e-08
7.12891e-08
7.14584e-08
8.50178e-08
7.29195e-08
7.20742e-08
7.22984e-08
8.33691e-08
7.219e-08
7.20915e-08
7.20319e-08
1.00916e-07
7.05137e-07
5.14894e-08
7.05162e-07
1.0091e-07
8.44028e-08
7.11956e-08
8.44104e-08
7.11921e-08
1.0091e-07
5.14894e-08
7.05218e-07
1.0092e-07
7.05173e-07
8.44082e-08
7.11918e-08
8.44035e-08
7.11959e-08
7.92841e-08
5.42412e-08
6.5398e-07
6.5401e-07
7.92754e-08
7.73553e-08
7.45466e-08
7.45416e-08
7.73666e-08
7.73614e-08
7.45412e-08
7.45439e-08
7.73533e-08
7.92776e-08
5.42412e-08
6.54098e-07
7.92918e-08
6.54036e-07
7.92747e-08
6.53968e-07
5.42407e-08
6.53945e-07
7.92804e-08
7.73565e-08
7.45403e-08
7.45422e-08
7.73526e-08
7.73528e-08
7.45427e-08
7.45405e-08
7.73586e-08
7.9278e-08
5.42408e-08
6.53928e-07
6.53938e-07
7.92742e-08
1.00911e-07
7.05137e-07
5.14891e-08
7.05122e-07
1.00915e-07
8.44058e-08
7.11919e-08
8.44038e-08
7.11943e-08
1.00914e-07
5.14891e-08
7.0511e-07
7.05119e-07
1.00911e-07
8.44039e-08
7.11939e-08
8.44065e-08
7.1192e-08
1.00909e-07
7.051e-07
5.14882e-08
7.05095e-07
1.00913e-07
8.43987e-08
7.12102e-08
8.43986e-08
7.12233e-08
1.0091e-07
5.1489e-08
7.05093e-07
7.05095e-07
1.00909e-07
8.43996e-08
7.11927e-08
8.44045e-08
7.12035e-08
7.92726e-08
6.53908e-07
5.42397e-08
7.92748e-08
6.53898e-07
7.73536e-08
7.45401e-08
7.45405e-08
7.73518e-08
7.73519e-08
7.45407e-08
7.73534e-08
7.45396e-08
7.92743e-08
5.42405e-08
6.53897e-07
6.53898e-07
7.9272e-08
7.92755e-08
5.42398e-08
6.53905e-07
6.53911e-07
7.92726e-08
7.73529e-08
7.45415e-08
7.73551e-08
7.45404e-08
7.92729e-08
5.42406e-08
6.53925e-07
7.92759e-08
6.53913e-07
7.73537e-08
7.45403e-08
7.73521e-08
7.45404e-08
1.00912e-07
5.14882e-08
7.05104e-07
7.05101e-07
1.00912e-07
8.44042e-08
7.11929e-08
8.44053e-08
7.11924e-08
1.00912e-07
5.1489e-08
7.05113e-07
1.00913e-07
7.05106e-07
8.44042e-08
7.11921e-08
8.44047e-08
7.11928e-08
1.00911e-07
7.05096e-07
5.1489e-08
7.05096e-07
1.0091e-07
8.44033e-08
7.12177e-08
8.43995e-08
7.11954e-08
1.00911e-07
5.1489e-08
7.05096e-07
1.0091e-07
7.05095e-07
8.44033e-08
7.12149e-08
8.44001e-08
7.11954e-08
7.92729e-08
5.42405e-08
6.53893e-07
6.53892e-07
7.92717e-08
7.73524e-08
7.45405e-08
7.45403e-08
7.7353e-08
7.73523e-08
7.45399e-08
7.45403e-08
7.73516e-08
7.9273e-08
5.42405e-08
6.53898e-07
7.92738e-08
6.53892e-07
7.92721e-08
6.53896e-07
5.42405e-08
6.53893e-07
7.92735e-08
7.73525e-08
7.45394e-08
7.45402e-08
7.73521e-08
7.73521e-08
7.45399e-08
7.45402e-08
7.73525e-08
7.9273e-08
5.42405e-08
6.53895e-07
6.53892e-07
7.92722e-08
1.00911e-07
7.05094e-07
5.1489e-08
7.05098e-07
1.0091e-07
8.44001e-08
7.11945e-08
8.44031e-08
7.12189e-08
1.0091e-07
5.1489e-08
7.05098e-07
7.05098e-07
1.00911e-07
8.44014e-08
7.12018e-08
8.44015e-08
7.1205e-08
7.73521e-08
7.45394e-08
7.73521e-08
7.45402e-08
7.92722e-08
5.42405e-08
6.53897e-07
7.92731e-08
6.53893e-07
8.4401e-08
7.1193e-08
8.44031e-08
7.12152e-08
1.00911e-07
5.1489e-08
7.05101e-07
1.00911e-07
7.05099e-07
5.29612e-06
5.30142e-06
5.28442e-06
5.29632e-06
5.30168e-06
5.30358e-06
5.27865e-06
5.27968e-06
5.24933e-06
5.27383e-06
5.29697e-06
5.29719e-06
5.27962e-06
5.24916e-06
5.3219e-06
5.2636e-06
5.2903e-06
5.30992e-06
5.31537e-06
5.3044e-06
5.27554e-06
4.24735e-05
4.25669e-05
4.24754e-05
4.26125e-05
4.26502e-05
4.25206e-05
4.23896e-05
4.34567e-05
4.26593e-05
4.27855e-05
4.28097e-05
4.29817e-05
4.28665e-05
4.29169e-05
5.28052e-06
5.27518e-06
5.24984e-06
5.29746e-06
5.29814e-06
5.27992e-06
5.25095e-06
4.25043e-05
4.25751e-05
4.26931e-05
4.25935e-05
4.25939e-05
4.25339e-05
4.26106e-05
4.24947e-05
4.28434e-05
4.27629e-05
4.27676e-05
4.2618e-05
4.27091e-05
4.26613e-05
4.24744e-05
4.25031e-05
4.25705e-05
4.25601e-05
4.25117e-05
4.24691e-05
4.2572e-05
4.24571e-05
4.26667e-05
4.27138e-05
4.25979e-05
4.26694e-05
4.24526e-05
4.26114e-05
5.28728e-06
5.27827e-06
5.25702e-06
5.30626e-06
5.30156e-06
5.29373e-06
5.25334e-06
4.25154e-05
4.25071e-05
4.25666e-05
4.25794e-05
4.24815e-05
4.25257e-05
4.25889e-05
4.25155e-05
4.26892e-05
4.26087e-05
4.2762e-05
4.24704e-05
4.27433e-05
4.26409e-05
4.25823e-05
4.26132e-05
4.25952e-05
4.25696e-05
4.25637e-05
4.26677e-05
4.26082e-05
4.26057e-05
4.29971e-05
4.2805e-05
4.26688e-05
4.28497e-05
4.27697e-05
4.26698e-05
5.26872e-06
5.33553e-06
5.29875e-06
5.32749e-06
5.31059e-06
5.33423e-06
5.26223e-06
5.25718e-06
5.29782e-06
5.3246e-06
5.31707e-06
5.29257e-06
5.32235e-06
5.25941e-06
5.25477e-06
5.31478e-06
5.28963e-06
5.31987e-06
5.29035e-06
5.31996e-06
5.25462e-06
5.25476e-06
5.29001e-06
5.31986e-06
5.3141e-06
5.28986e-06
5.31987e-06
5.25469e-06
5.61131e-06
5.47191e-06
5.60885e-06
5.54993e-06
5.66605e-06
5.54052e-06
5.5179e-06
6.41493e-07
6.6275e-07
6.54753e-07
6.74566e-07
6.60221e-07
6.47911e-07
6.69186e-07
5.60289e-06
5.24954e-06
5.35081e-06
5.41806e-06
5.38006e-06
5.46274e-06
5.47308e-06
5.52994e-06
5.39438e-06
5.25615e-06
5.34848e-06
5.34859e-06
5.35199e-06
5.44403e-06
5.6133e-06
5.51797e-06
5.59822e-06
5.46621e-06
5.692e-06
5.51857e-06
5.5667e-06
4.24404e-05
4.25168e-05
4.24475e-05
4.24721e-05
4.25175e-05
4.25179e-05
4.25034e-05
4.25103e-05
4.25182e-05
4.25239e-05
4.25346e-05
4.25247e-05
4.25386e-05
4.25227e-05
5.27142e-06
5.28118e-06
5.29451e-06
5.2737e-06
5.27356e-06
5.27031e-06
5.29664e-06
5.28987e-06
5.28259e-06
5.30103e-06
5.25903e-06
5.3031e-06
5.28556e-06
5.26607e-06
5.27206e-06
5.2803e-06
5.27011e-06
5.29913e-06
5.27349e-06
5.27215e-06
5.29506e-06
4.24801e-05
4.2516e-05
4.25225e-05
4.25433e-05
4.25236e-05
4.254e-05
4.25248e-05
4.24899e-05
4.25684e-05
4.25401e-05
4.25489e-05
4.25327e-05
4.25533e-05
4.2529e-05
5.2708e-06
5.2808e-06
5.29859e-06
5.27814e-06
5.27618e-06
5.27253e-06
5.29531e-06
5.27985e-06
5.27379e-06
5.298e-06
5.24942e-06
5.29681e-06
5.2806e-06
5.24914e-06
5.27012e-06
5.2808e-06
5.27459e-06
5.29412e-06
5.26951e-06
5.27533e-06
5.29546e-06
4.25844e-05
4.25241e-05
4.25438e-05
5.3488e-06
5.33837e-06
5.33793e-06
5.33791e-06
5.31845e-06
5.38384e-06
5.34484e-06
4.275e-05
4.25905e-05
4.26254e-05
4.26524e-05
4.25492e-05
4.26217e-05
4.2703e-05
4.26004e-05
4.25203e-05
4.25287e-05
4.26027e-05
4.26633e-05
4.26768e-05
4.2593e-05
4.25204e-05
4.25941e-05
4.25298e-05
4.25954e-05
4.26583e-05
4.25907e-05
4.26606e-05
5.20179e-06
5.19346e-06
5.27358e-06
5.26012e-06
5.17949e-06
5.26599e-06
5.20448e-06
5.23507e-06
5.2982e-06
5.25466e-06
5.28552e-06
5.20227e-06
5.27468e-06
5.27916e-06
6.65073e-07
6.73602e-07
6.92656e-07
6.86338e-07
6.91704e-07
6.86414e-07
6.59155e-07
6.7451e-07
6.65936e-07
6.58805e-07
6.39063e-07
6.74701e-07
6.72455e-07
6.40406e-07
5.39149e-06
5.43652e-06
5.39162e-06
5.57905e-06
5.50867e-06
5.39808e-06
5.36983e-06
5.29977e-06
5.37931e-06
5.28211e-06
5.30345e-06
5.34476e-06
5.2512e-06
5.34245e-06
5.27614e-06
5.32542e-06
5.26612e-06
5.29838e-06
5.27277e-06
5.27273e-06
5.31901e-06
5.39478e-06
5.53253e-06
5.40259e-06
5.61252e-06
5.68383e-06
5.38712e-06
5.42792e-06
5.28762e-06
5.35904e-06
5.40397e-06
5.31619e-06
5.37301e-06
5.36409e-06
5.27221e-06
5.44251e-06
5.54492e-06
5.86204e-06
5.49786e-06
5.77094e-06
5.4659e-06
5.4945e-06
5.23358e-06
5.32556e-06
5.25082e-06
5.29055e-06
5.25822e-06
5.33707e-06
5.21719e-06
6.70491e-07
6.37755e-07
6.60577e-07
6.4748e-07
6.61171e-07
6.70377e-07
6.37856e-07
6.52335e-07
6.80198e-07
6.69813e-07
6.61731e-07
6.62419e-07
6.8037e-07
6.52139e-07
6.54705e-07
6.70853e-07
6.84072e-07
6.72934e-07
6.65882e-07
6.56605e-07
6.82398e-07
6.71181e-07
6.66119e-07
6.38919e-07
6.4826e-07
6.62403e-07
6.71968e-07
6.38338e-07
5.22859e-06
5.27513e-06
5.27437e-06
5.26405e-06
5.26331e-06
5.22938e-06
5.2768e-06
5.27903e-06
5.36384e-06
5.30649e-06
5.33118e-06
5.36687e-06
5.27596e-06
5.2977e-06
5.22594e-06
5.27403e-06
5.25687e-06
5.28317e-06
5.26081e-06
5.22213e-06
5.27538e-06
5.28149e-06
5.29637e-06
5.37016e-06
5.33308e-06
5.3694e-06
5.2822e-06
5.29907e-06
5.26938e-06
5.29512e-06
5.27867e-06
5.27393e-06
5.26987e-06
5.27389e-06
5.29405e-06
5.28149e-06
5.27612e-06
5.30034e-06
5.25519e-06
5.29878e-06
5.28314e-06
5.25275e-06
5.2693e-06
5.27892e-06
5.27428e-06
5.29424e-06
5.26934e-06
5.27404e-06
5.29422e-06
5.23023e-06
5.2754e-06
5.27264e-06
5.26462e-06
5.23005e-06
5.26472e-06
5.2746e-06
5.28337e-06
5.37197e-06
5.33193e-06
5.29727e-06
5.29694e-06
5.37157e-06
5.28373e-06
5.28304e-06
5.29745e-06
5.37094e-06
5.33127e-06
5.28288e-06
5.29646e-06
5.37117e-06
5.23053e-06
5.27294e-06
5.26526e-06
5.27546e-06
5.26497e-06
5.27508e-06
5.23087e-06
5.23312e-06
5.27481e-06
5.28185e-06
5.26939e-06
5.26733e-06
5.23529e-06
5.27755e-06
5.28507e-06
5.37246e-06
5.29741e-06
5.33481e-06
5.37345e-06
5.28416e-06
5.29928e-06
5.23213e-06
5.27475e-06
5.26563e-06
5.27558e-06
5.26642e-06
5.23127e-06
5.27744e-06
5.28613e-06
5.3041e-06
5.37712e-06
5.3351e-06
5.37461e-06
5.28847e-06
5.29948e-06
5.27915e-06
5.29928e-06
5.29381e-06
5.28065e-06
5.27465e-06
5.28591e-06
5.30597e-06
5.28388e-06
5.27649e-06
5.29797e-06
5.25001e-06
5.30052e-06
5.28161e-06
5.25128e-06
5.28573e-06
5.29917e-06
5.3099e-06
5.32392e-06
5.29817e-06
5.29392e-06
5.31041e-06
5.24445e-06
5.28323e-06
5.28938e-06
5.27211e-06
5.23821e-06
5.27786e-06
5.29331e-06
5.30933e-06
5.42463e-06
5.36266e-06
5.35519e-06
5.32568e-06
5.39995e-06
5.33113e-06
5.29844e-06
5.30578e-06
5.38057e-06
5.35313e-06
5.29165e-06
5.31676e-06
5.3879e-06
5.25437e-06
5.29698e-06
5.3061e-06
5.32841e-06
5.28707e-06
5.30129e-06
5.27442e-06
5.39828e-06
5.46822e-06
5.3672e-06
5.41711e-06
5.5378e-06
5.36591e-06
5.33661e-06
5.36789e-06
5.36277e-06
5.34042e-06
5.34387e-06
5.41381e-06
5.30847e-06
5.34451e-06
5.2789e-06
5.3454e-06
5.35062e-06
5.36963e-06
5.31904e-06
5.30014e-06
5.34528e-06
5.28812e-06
5.29833e-06
5.32e-06
5.29941e-06
5.30902e-06
5.30589e-06
5.28188e-06
5.29758e-06
5.3348e-06
5.33994e-06
5.32528e-06
5.31525e-06
5.31629e-06
5.3156e-06
6.70327e-07
6.37773e-07
6.60849e-07
6.46845e-07
6.60494e-07
6.70391e-07
6.37717e-07
6.51971e-07
6.80154e-07
6.61925e-07
6.68934e-07
6.61482e-07
6.80055e-07
6.52084e-07
6.51818e-07
6.61237e-07
6.68825e-07
6.79894e-07
6.61364e-07
6.79919e-07
6.51789e-07
6.70289e-07
6.60403e-07
6.46886e-07
6.37677e-07
6.60512e-07
6.70273e-07
6.37693e-07
6.70234e-07
6.37727e-07
6.60391e-07
6.46839e-07
6.60426e-07
6.70232e-07
6.37733e-07
6.51744e-07
6.79847e-07
6.68675e-07
6.61178e-07
6.61212e-07
6.79854e-07
6.51737e-07
6.51768e-07
6.61317e-07
6.79897e-07
6.68671e-07
6.61206e-07
6.51791e-07
6.79875e-07
6.70269e-07
6.60477e-07
6.37683e-07
6.46782e-07
6.60407e-07
6.70282e-07
6.37673e-07
5.27689e-06
5.29778e-06
5.29668e-06
5.30395e-06
5.29277e-06
5.29431e-06
5.27911e-06
5.25633e-06
5.31759e-06
5.29046e-06
5.32053e-06
5.29312e-06
5.32149e-06
5.25539e-06
5.27607e-06
5.29254e-06
5.305e-06
5.29082e-06
5.29344e-06
5.29354e-06
5.27512e-06
5.25477e-06
5.31417e-06
5.29111e-06
5.32024e-06
5.28975e-06
5.25512e-06
5.31991e-06
5.27445e-06
5.28997e-06
5.30231e-06
5.29171e-06
5.29075e-06
5.29186e-06
5.27429e-06
5.27446e-06
5.29231e-06
5.29153e-06
5.30149e-06
5.29012e-06
5.27484e-06
5.29186e-06
6.70259e-07
6.37715e-07
6.60423e-07
6.46798e-07
6.60404e-07
6.70248e-07
6.37693e-07
6.51731e-07
6.7985e-07
6.61209e-07
6.68622e-07
6.61161e-07
6.79843e-07
6.51738e-07