/*--------------------------------*- C++ -*----------------------------------*\
| =========                 |                                                 |
| \\      /  F ield         | OpenFOAM: The Open Source CFD Toolbox           |
|  \\    /   O peration     | Version:  2012                                  |
|   \\  /    A nd           | Website:  www.openfoam.com                      |
|    \\/     M anipulation  |                                                 |
\*---------------------------------------------------------------------------*/
FoamFile
{
    version     2.0;
    format      ascii;
    class       volVectorField;
    location    "0.106/solid";
    object      D_0;
}
// * * * * * * * * * * * * * * * * * * * * * * * * * * * * * * * * * * * * * //

dimensions      [0 1 0 0 0 0 0];


internalField   nonuniform List<vector> 
3125
(
(-1.82385e-05 -1.48924e-05 -4.48825e-06)
(-1.31616e-05 -9.83536e-06 -4.18378e-06)
(-2.94582e-05 -2.67655e-05 -4.66377e-06)
(-2.42226e-05 -2.11545e-05 -4.62134e-06)
(-1.28358e-05 -9.52216e-06 -4.1558e-06)
(-1.26927e-05 -1.12394e-05 1.52644e-07)
(-8.35698e-06 -7.04193e-06 1.49577e-07)
(-1.28552e-05 -9.61663e-06 -3.9943e-06)
(-1.27293e-05 -9.51582e-06 -3.91616e-06)
(-1.24396e-05 -1.12417e-05 8.01186e-07)
(-8.14288e-06 -7.04545e-06 6.92245e-07)
(-1.26984e-05 -9.60759e-06 -3.63903e-06)
(-1.82631e-05 -1.49936e-05 -4.31914e-06)
(-1.33498e-05 -1.18956e-05 1.52487e-07)
(-1.31814e-05 -9.93038e-06 -4.02155e-06)
(-1.81226e-05 -1.67857e-05 1.49709e-07)
(-1.81241e-05 -1.48893e-05 -4.21528e-06)
(-1.30545e-05 -9.82925e-06 -3.94151e-06)
(-1.80941e-05 -1.49892e-05 -3.91483e-06)
(-1.30918e-05 -1.18978e-05 8.13473e-07)
(-1.30236e-05 -9.92166e-06 -3.66242e-06)
(-1.78367e-05 -1.67868e-05 8.77225e-07)
(-1.85863e-05 -1.52491e-05 -4.50153e-06)
(-2.38684e-05 -2.07778e-05 -4.61811e-06)
(-1.86111e-05 -1.53506e-05 -4.3322e-06)
(-2.37751e-05 -2.27734e-05 1.46941e-07)
(-1.88223e-05 -1.75176e-05 1.49249e-07)
(-2.38961e-05 -2.08823e-05 -4.44787e-06)
(-1.84716e-05 -1.52462e-05 -4.22711e-06)
(-2.37502e-05 -2.0777e-05 -4.3297e-06)
(-1.84417e-05 -1.53465e-05 -3.92573e-06)
(-2.34692e-05 -2.27738e-05 9.08111e-07)
(-1.85332e-05 -1.75187e-05 8.83309e-07)
(-2.37212e-05 -2.08811e-05 -4.02083e-06)
(-2.95603e-05 -2.69398e-05 -4.51882e-06)
(-2.44858e-05 -2.35355e-05 1.46789e-07)
(-2.42504e-05 -2.12591e-05 -4.45117e-06)
(-2.93522e-05 -2.67766e-05 -4.37936e-06)
(-2.41043e-05 -2.11538e-05 -4.33246e-06)
(-2.94052e-05 -2.6949e-05 -4.11865e-06)
(-2.41783e-05 -2.35358e-05 9.09564e-07)
(-2.40753e-05 -2.12581e-05 -4.02344e-06)
(-1.58313e-05 -1.24567e-05 -4.37186e-06)
(-1.54922e-05 -1.21187e-05 -4.35171e-06)
(-2.70545e-05 -2.41856e-05 -4.63397e-06)
(-2.67008e-05 -2.38055e-05 -4.63341e-06)
(-1.03084e-05 -7.15121e-06 -3.89376e-06)
(-1.06158e-05 -7.43367e-06 -3.93033e-06)
(-8.39143e-06 -6.22912e-06 -1.90645e-06)
(-1.03246e-05 -7.24061e-06 -3.73951e-06)
(-1.01836e-05 -7.87088e-06 -2.04639e-06)
(-1.07726e-05 -9.35026e-06 1.52374e-07)
(-1.27169e-05 -1.05277e-05 -1.62449e-06)
(-1.07976e-05 -8.6813e-06 -1.5395e-06)
(-8.38293e-06 -6.43827e-06 -1.40196e-06)
(-1.01518e-05 -8.74933e-06 1.51972e-07)
(-1.0177e-05 -8.0958e-06 -1.50774e-06)
(-1.06324e-05 -7.52378e-06 -3.77502e-06)
(-1.2721e-05 -1.02846e-05 -2.19997e-06)
(-1.08035e-05 -8.45155e-06 -2.08827e-06)
(-1.02079e-05 -7.14292e-06 -3.67757e-06)
(-1.05145e-05 -7.42564e-06 -3.71098e-06)
(-8.14384e-06 -6.21549e-06 -1.34147e-06)
(-1.01767e-05 -7.22881e-06 -3.41878e-06)
(-9.91833e-06 -7.85935e-06 -1.42573e-06)
(-1.05349e-05 -9.35306e-06 7.59415e-07)
(-1.24266e-05 -1.05215e-05 -9.16433e-07)
(-1.05231e-05 -8.67377e-06 -8.79412e-07)
(-8.13287e-06 -6.42881e-06 -8.1597e-07)
(-9.91973e-06 -8.7523e-06 7.43851e-07)
(-9.90831e-06 -8.0878e-06 -8.65133e-07)
(-1.04833e-05 -7.51233e-06 -3.44964e-06)
(-1.24355e-05 -1.02757e-05 -1.51487e-06)
(-1.05328e-05 -8.44069e-06 -1.45041e-06)
(-1.58539e-05 -1.25555e-05 -4.2051e-06)
(-1.81442e-05 -1.57148e-05 -2.40251e-06)
(-1.60699e-05 -1.3601e-05 -2.34187e-06)
(-1.33736e-05 -1.11708e-05 -1.64946e-06)
(-1.53629e-05 -1.39338e-05 1.51527e-07)
(-1.53858e-05 -1.3173e-05 -1.7146e-06)
(-1.55145e-05 -1.2217e-05 -4.1854e-06)
(-1.33772e-05 -1.09237e-05 -2.23267e-06)
(-1.53878e-05 -1.2915e-05 -2.31771e-06)
(-1.81443e-05 -1.59848e-05 -1.77996e-06)
(-1.60459e-05 -1.46339e-05 1.51101e-07)
(-1.60685e-05 -1.38622e-05 -1.73317e-06)
(-1.57198e-05 -1.24523e-05 -4.11117e-06)
(-1.53812e-05 -1.21141e-05 -4.09306e-06)
(-1.56893e-05 -1.25492e-05 -3.81885e-06)
(-1.7829e-05 -1.57104e-05 -1.62603e-06)
(-1.57642e-05 -1.3595e-05 -1.5936e-06)
(-1.30786e-05 -1.1165e-05 -9.26964e-07)
(-1.50918e-05 -1.39355e-05 8.45483e-07)
(-1.50778e-05 -1.31685e-05 -9.5368e-07)
(-1.53506e-05 -1.22105e-05 -3.80216e-06)
(-1.30872e-05 -1.09154e-05 -1.53335e-06)
(-1.50857e-05 -1.29085e-05 -1.58047e-06)
(-1.78219e-05 -1.59817e-05 -9.79397e-07)
(-1.57708e-05 -1.46354e-05 8.54565e-07)
(-1.57566e-05 -1.38581e-05 -9.61091e-07)
(-2.10402e-05 -1.77941e-05 -4.57372e-06)
(-2.13928e-05 -1.81634e-05 -4.58129e-06)
(-1.88431e-05 -1.64356e-05 -2.419e-06)
(-2.10666e-05 -1.78973e-05 -4.40344e-06)
(-2.09553e-05 -1.8636e-05 -2.45834e-06)
(-2.16449e-05 -2.04993e-05 1.47683e-07)
(-2.37946e-05 -2.19189e-05 -1.84853e-06)
(-2.16651e-05 -1.96607e-05 -1.83118e-06)
(-1.88436e-05 -1.67081e-05 -1.79274e-06)
(-2.09366e-05 -1.97472e-05 1.4802e-07)
(-2.0957e-05 -1.89151e-05 -1.82335e-06)
(-2.14194e-05 -1.82669e-05 -4.41095e-06)
(-2.37915e-05 -2.16333e-05 -2.49036e-06)
(-2.1663e-05 -1.93798e-05 -2.46835e-06)
(-2.09235e-05 -1.77923e-05 -4.29101e-06)
(-2.12759e-05 -1.81618e-05 -4.29767e-06)
(-1.85251e-05 -1.64316e-05 -1.63472e-06)
(-2.0894e-05 -1.78948e-05 -3.98478e-06)
(-2.06301e-05 -1.86333e-05 -1.65524e-06)
(-2.1345e-05 -2.04999e-05 9.00955e-07)
(-2.34536e-05 -2.19179e-05 -1.00596e-06)
(-2.13296e-05 -1.96591e-05 -9.99092e-07)
(-1.85182e-05 -1.67054e-05 -9.84318e-07)
(-2.06391e-05 -1.97479e-05 8.97487e-07)
(-2.06238e-05 -1.89132e-05 -9.96065e-07)
(-2.12465e-05 -1.82645e-05 -3.99095e-06)
(-2.34595e-05 -2.1632e-05 -1.67183e-06)
(-2.13359e-05 -1.93775e-05 -1.66043e-06)
(-2.70831e-05 -2.4291e-05 -4.46471e-06)
(-2.95715e-05 -2.80062e-05 -2.14107e-06)
(-2.73395e-05 -2.54329e-05 -2.50638e-06)
(-2.4505e-05 -2.26767e-05 -1.85251e-06)
(-2.66156e-05 -2.58277e-05 1.46628e-07)
(-2.66342e-05 -2.49592e-05 -1.86009e-06)
(-2.67293e-05 -2.39107e-05 -4.46402e-06)
(-2.45017e-05 -2.239e-05 -2.49537e-06)
(-2.66303e-05 -2.46698e-05 -2.5048e-06)
(-2.95715e-05 -2.81525e-05 -1.81244e-06)
(-2.73251e-05 -2.65939e-05 1.46729e-07)
(-2.73435e-05 -2.57229e-05 -1.86132e-06)
(-2.69354e-05 -2.41855e-05 -4.34278e-06)
(-2.65818e-05 -2.38053e-05 -4.34239e-06)
(-2.69069e-05 -2.42908e-05 -4.0336e-06)
(-2.94012e-05 -2.80064e-05 -1.7245e-06)
(-2.70026e-05 -2.54326e-05 -1.68054e-06)
(-2.41626e-05 -2.2676e-05 -1.00761e-06)
(-2.63044e-05 -2.58279e-05 9.11792e-07)
(-2.62885e-05 -2.4959e-05 -1.01105e-06)
(-2.65532e-05 -2.39104e-05 -4.03315e-06)
(-2.41683e-05 -2.23889e-05 -1.67443e-06)
(-2.6294e-05 -2.46694e-05 -1.67949e-06)
(-2.93999e-05 -2.81527e-05 -1.39272e-06)
(-2.70132e-05 -2.6594e-05 9.11971e-07)
(-2.69971e-05 -2.57228e-05 -1.01183e-06)
(-1.72004e-05 -1.38346e-05 -4.44351e-06)
(-1.41504e-05 -1.07952e-05 -4.26163e-06)
(-2.84734e-05 -2.57155e-05 -4.63277e-06)
(-2.52852e-05 -2.22881e-05 -4.62854e-06)
(-9.10639e-06 -6.06446e-06 -3.73623e-06)
(-1.18706e-05 -8.60412e-06 -4.0656e-06)
(-9.12076e-06 -6.15086e-06 -3.58663e-06)
(-9.09073e-06 -6.49271e-06 -2.78109e-06)
(-1.20437e-05 -1.0596e-05 1.52691e-07)
(-1.27009e-05 -1.10044e-05 -4.45806e-07)
(-1.20518e-05 -1.03657e-05 -4.36712e-07)
(-8.36409e-06 -6.84397e-06 -3.72242e-07)
(-8.94328e-06 -7.59456e-06 1.50593e-07)
(-8.95057e-06 -7.39072e-06 -3.84127e-07)
(-1.18889e-05 -8.69683e-06 -3.90651e-06)
(-1.28345e-05 -9.99545e-06 -3.10273e-06)
(-1.18659e-05 -9.06742e-06 -3.03308e-06)
(-9.00948e-06 -6.05514e-06 -3.5333e-06)
(-1.17663e-05 -8.59707e-06 -3.83425e-06)
(-8.9782e-06 -6.1376e-06 -3.28544e-06)
(-8.95321e-06 -6.48268e-06 -2.47654e-06)
(-1.17955e-05 -1.05984e-05 7.88083e-07)
(-1.24304e-05 -1.10039e-05 2.3623e-07)
(-1.17863e-05 -1.03652e-05 2.31202e-07)
(-8.1339e-06 -6.84326e-06 1.96256e-07)
(-8.72298e-06 -7.59789e-06 7.10263e-07)
(-8.71394e-06 -7.39005e-06 2.02584e-07)
(-1.17352e-05 -8.68678e-06 -3.56346e-06)
(-1.26815e-05 -9.98857e-06 -2.74517e-06)
(-1.17163e-05 -9.0598e-06 -2.68746e-06)
(-1.72242e-05 -1.39349e-05 -4.27524e-06)
(-1.82528e-05 -1.54048e-05 -3.36157e-06)
(-1.7212e-05 -1.43412e-05 -3.32616e-06)
(-1.33581e-05 -1.16561e-05 -4.54414e-07)
(-1.40143e-05 -1.25639e-05 1.52236e-07)
(-1.40227e-05 -1.232e-05 -4.6253e-07)
(-1.41713e-05 -1.08917e-05 -4.09745e-06)
(-1.31613e-05 -1.03117e-05 -3.12413e-06)
(-1.41534e-05 -1.12804e-05 -3.1845e-06)
(-1.81315e-05 -1.65196e-05 -5.00864e-07)
(-1.74263e-05 -1.60606e-05 1.50179e-07)
(-1.74352e-05 -1.57978e-05 -4.95695e-07)
(-1.70871e-05 -1.3831e-05 -4.17536e-06)
(-1.40415e-05 -1.07897e-05 -4.01191e-06)
(-1.70569e-05 -1.39297e-05 -3.87801e-06)
(-1.8086e-05 -1.54014e-05 -2.95614e-06)
(-1.70472e-05 -1.43373e-05 -2.92762e-06)
(-1.30826e-05 -1.16557e-05 2.40998e-07)
(-1.37517e-05 -1.25659e-05 8.24946e-07)
(-1.37425e-05 -1.23196e-05 2.45495e-07)
(-1.40107e-05 -1.0884e-05 -3.72734e-06)
(-1.30072e-05 -1.0305e-05 -2.76277e-06)
(-1.39963e-05 -1.12744e-05 -2.81244e-06)
(-1.78276e-05 -1.65194e-05 2.66389e-07)
(-1.71438e-05 -1.60619e-05 8.7042e-07)
(-1.71347e-05 -1.57975e-05 2.63655e-07)
(-1.96344e-05 -1.63302e-05 -4.53678e-06)
(-2.28063e-05 -1.96519e-05 -4.60557e-06)
(-1.86013e-05 -1.57631e-05 -3.37202e-06)
(-1.96599e-05 -1.64326e-05 -4.36691e-06)
(-1.96518e-05 -1.68492e-05 -3.40026e-06)
(-2.30646e-05 -2.2013e-05 1.47142e-07)
(-2.37844e-05 -2.24883e-05 -5.26467e-07)
(-2.30738e-05 -2.17296e-05 -5.24631e-07)
(-1.88313e-05 -1.72485e-05 -5.05562e-07)
(-1.95248e-05 -1.82557e-05 1.48809e-07)
(-1.95338e-05 -1.79837e-05 -5.09799e-07)
(-2.28335e-05 -1.9756e-05 -4.43519e-06)
(-2.38931e-05 -2.13101e-05 -3.46774e-06)
(-2.28294e-05 -2.01816e-05 -3.45671e-06)
(-1.95187e-05 -1.63279e-05 -4.2584e-06)
(-2.26886e-05 -1.96508e-05 -4.31888e-06)
(-1.84339e-05 -1.57599e-05 -2.96449e-06)
(-1.9489e-05 -1.64292e-05 -3.95462e-06)
(-1.94826e-05 -1.68465e-05 -2.98708e-06)
(-2.27605e-05 -2.20135e-05 9.06225e-07)
(-2.34604e-05 -2.24883e-05 2.7807e-07)
(-2.27516e-05 -2.17296e-05 2.7749e-07)
(-1.85241e-05 -1.72483e-05 2.68823e-07)
(-1.92327e-05 -1.82566e-05 8.88696e-07)
(-1.92237e-05 -1.79835e-05 2.7096e-07)
(-2.26594e-05 -1.97544e-05 -4.01068e-06)
(-2.37189e-05 -2.13091e-05 -3.04034e-06)
(-2.26562e-05 -2.01802e-05 -3.03172e-06)
(-2.85063e-05 -2.58243e-05 -4.46672e-06)
(-2.9578e-05 -2.74153e-05 -3.48751e-06)
(-2.85132e-05 -2.62649e-05 -3.48678e-06)
(-2.4495e-05 -2.32489e-05 -5.27983e-07)
(-2.51962e-05 -2.42988e-05 1.46683e-07)
(-2.52054e-05 -2.40109e-05 -5.292e-07)
(-2.53133e-05 -2.2393e-05 -4.45866e-06)
(-2.42476e-05 -2.16874e-05 -3.47064e-06)
(-2.53115e-05 -2.2823e-05 -3.4776e-06)
(-2.95683e-05 -2.87378e-05 -4.92591e-07)
(-2.87738e-05 -2.7859e-05 -5.31924e-07)
(-2.8355e-05 -2.57162e-05 -4.34182e-06)
(-2.51665e-05 -2.22877e-05 -4.33851e-06)
(-2.83306e-05 -2.58249e-05 -4.03559e-06)
(-2.94023e-05 -2.74147e-05 -3.05927e-06)
(-2.83366e-05 -2.62647e-05 -3.0552e-06)
(-2.41694e-05 -2.32489e-05 2.7846e-07)
(-2.48873e-05 -2.42991e-05 9.1063e-07)
(-2.48785e-05 -2.40109e-05 2.78682e-07)
(-2.51377e-05 -2.23923e-05 -4.02925e-06)
(-2.40732e-05 -2.16865e-05 -3.04257e-06)
(-2.51363e-05 -2.28224e-05 -3.04794e-06)
(-2.93999e-05 -2.8738e-05 -8.08112e-08)
(-2.84415e-05 -2.78592e-05 2.80483e-07)
(-1.68564e-05 -1.34865e-05 -4.42691e-06)
(-1.44835e-05 -1.11216e-05 -4.28559e-06)
(-2.81168e-05 -2.53303e-05 -4.63392e-06)
(-2.56392e-05 -2.26669e-05 -4.6302e-06)
(-9.40255e-06 -6.32952e-06 -3.77732e-06)
(-1.15533e-05 -8.30559e-06 -4.03342e-06)
(-8.40104e-06 -6.01186e-06 -2.41718e-06)
(-8.97685e-06 -6.75906e-06 -1.9555e-06)
(-8.98559e-06 -6.53644e-06 -2.4782e-06)
(-9.41738e-06 -6.4167e-06 -3.62648e-06)
(-1.02977e-05 -7.59609e-06 -2.90149e-06)
(-9.3881e-06 -6.76203e-06 -2.81219e-06)
(-9.57449e-06 -7.30651e-06 -2.00214e-06)
(-1.01906e-05 -7.63821e-06 -2.59109e-06)
(-9.58237e-06 -7.07876e-06 -2.53617e-06)
(-1.14035e-05 -9.96603e-06 1.52606e-07)
(-1.07804e-05 -9.12997e-06 -4.17077e-07)
(-1.14114e-05 -9.74064e-06 -4.27133e-07)
(-1.27098e-05 -1.07676e-05 -1.03899e-06)
(-1.20682e-05 -9.89791e-06 -1.59786e-06)
(-1.20608e-05 -1.01334e-05 -1.021e-06)
(-1.07895e-05 -8.90739e-06 -9.81743e-07)
(-1.14282e-05 -9.28223e-06 -1.56954e-06)
(-1.14204e-05 -9.51312e-06 -1.00192e-06)
(-8.3735e-06 -6.64314e-06 -8.89991e-07)
(-8.969e-06 -6.97367e-06 -1.43899e-06)
(-8.95992e-06 -7.18415e-06 -9.1459e-07)
(-9.54179e-06 -8.16389e-06 1.51386e-07)
(-1.01594e-05 -8.53433e-06 -4.06553e-07)
(-9.54926e-06 -7.95437e-06 -3.95566e-07)
(-9.56728e-06 -7.52638e-06 -1.47424e-06)
(-1.01686e-05 -8.31689e-06 -9.60464e-07)
(-9.55853e-06 -7.74227e-06 -9.38081e-07)
(-1.15712e-05 -8.39768e-06 -3.87521e-06)
(-1.06063e-05 -7.88239e-06 -2.92926e-06)
(-1.15475e-05 -8.76547e-06 -3.00856e-06)
(-1.27248e-05 -1.00344e-05 -2.78118e-06)
(-1.20729e-05 -9.65909e-06 -2.16503e-06)
(-1.20775e-05 -9.41293e-06 -2.73802e-06)
(-1.08097e-05 -8.21417e-06 -2.64301e-06)
(-1.14335e-05 -9.04784e-06 -2.1278e-06)
(-1.14389e-05 -8.80597e-06 -2.69198e-06)
(-9.30471e-06 -6.32046e-06 -3.57099e-06)
(-1.14497e-05 -8.2983e-06 -3.80497e-06)
(-8.16053e-06 -5.99533e-06 -1.88192e-06)
(-8.72312e-06 -6.74614e-06 -1.37131e-06)
(-8.73935e-06 -6.52076e-06 -1.92441e-06)
(-9.27344e-06 -6.40381e-06 -3.32028e-06)
(-1.01545e-05 -7.58715e-06 -2.57777e-06)
(-9.24905e-06 -6.7523e-06 -2.50269e-06)
(-9.31485e-06 -7.29429e-06 -1.39938e-06)
(-9.93366e-06 -7.62421e-06 -2.00211e-06)
(-9.33064e-06 -7.06393e-06 -1.96446e-06)
(-1.11604e-05 -9.96865e-06 7.7416e-07)
(-1.05258e-05 -9.12941e-06 2.20412e-07)
(-1.11513e-05 -9.74011e-06 2.25926e-07)
(-1.24254e-05 -1.07643e-05 -3.33564e-07)
(-1.1783e-05 -9.89129e-06 -9.05023e-07)
(-1.17815e-05 -1.01299e-05 -3.30465e-07)
(-1.05212e-05 -8.9034e-06 -3.2326e-07)
(-1.11482e-05 -9.27515e-06 -8.92695e-07)
(-1.11466e-05 -9.50937e-06 -3.27039e-07)
(-8.13003e-06 -6.63812e-06 -3.04109e-07)
(-8.71248e-06 -6.9647e-06 -8.33447e-07)
(-8.70989e-06 -7.1794e-06 -3.09551e-07)
(-9.3155e-06 -8.16704e-06 7.27466e-07)
(-9.9106e-06 -8.53374e-06 2.14676e-07)
(-9.30642e-06 -7.95374e-06 2.08729e-07)
(-9.30453e-06 -7.5179e-06 -8.49823e-07)
(-9.90621e-06 -8.31265e-06 -3.19101e-07)
(-9.30219e-06 -7.73777e-06 -3.1454e-07)
(-1.14186e-05 -8.38729e-06 -3.53643e-06)
(-1.04617e-05 -7.87373e-06 -2.60095e-06)
(-1.13991e-05 -8.75758e-06 -2.66714e-06)
(-1.24492e-05 -1.00236e-05 -2.12996e-06)
(-1.17921e-05 -9.64955e-06 -1.49493e-06)
(-1.18061e-05 -9.40135e-06 -2.10129e-06)
(-1.05477e-05 -8.20099e-06 -2.03743e-06)
(-1.11576e-05 -9.03765e-06 -1.47346e-06)
(-1.11721e-05 -8.79359e-06 -2.07047e-06)
(-1.68799e-05 -1.35864e-05 -4.25898e-06)
(-1.58393e-05 -1.29546e-05 -3.27004e-06)
(-1.68672e-05 -1.39911e-05 -3.31324e-06)
(-1.81425e-05 -1.5439e-05 -3.02991e-06)
(-1.74487e-05 -1.50016e-05 -2.3842e-06)
(-1.74476e-05 -1.47284e-05 -3.00757e-06)
(-1.60701e-05 -1.33333e-05 -2.95577e-06)
(-1.67571e-05 -1.42967e-05 -2.36401e-06)
(-1.67566e-05 -1.40262e-05 -2.98289e-06)
(-1.33669e-05 -1.14149e-05 -1.05589e-06)
(-1.40378e-05 -1.18265e-05 -1.67278e-06)
(-1.40314e-05 -1.20747e-05 -1.07173e-06)
(-1.46855e-05 -1.32436e-05 1.51912e-07)
(-1.53716e-05 -1.36818e-05 -4.77276e-07)
(-1.46941e-05 -1.29955e-05 -4.7015e-07)
(-1.47087e-05 -1.24942e-05 -1.69448e-06)
(-1.538e-05 -1.34286e-05 -1.10023e-06)
(-1.47026e-05 -1.27461e-05 -1.0865e-06)
(-1.45048e-05 -1.12186e-05 -4.12083e-06)
(-1.54993e-05 -1.26143e-05 -3.25446e-06)
(-1.44874e-05 -1.16094e-05 -3.20291e-06)
(-1.33803e-05 -1.06696e-05 -2.82152e-06)
(-1.40408e-05 -1.15756e-05 -2.26316e-06)
(-1.40431e-05 -1.13178e-05 -2.85908e-06)
(-1.53886e-05 -1.26505e-05 -2.92615e-06)
(-1.47112e-05 -1.22396e-05 -2.29149e-06)
(-1.47128e-05 -1.19784e-05 -2.89394e-06)
(-1.81396e-05 -1.62531e-05 -1.1451e-06)
(-1.74483e-05 -1.52689e-05 -1.76581e-06)
(-1.74434e-05 -1.55343e-05 -1.13534e-06)
(-1.67339e-05 -1.53431e-05 1.50647e-07)
(-1.60546e-05 -1.43781e-05 -4.83906e-07)
(-1.67427e-05 -1.50837e-05 -4.90044e-07)
(-1.67562e-05 -1.45611e-05 -1.75023e-06)
(-1.6063e-05 -1.41213e-05 -1.11294e-06)
(-1.6751e-05 -1.48234e-05 -1.12463e-06)
(-1.67435e-05 -1.34827e-05 -4.16052e-06)
(-1.4374e-05 -1.11163e-05 -4.03353e-06)
(-1.67133e-05 -1.3581e-05 -3.86434e-06)
(-1.56776e-05 -1.29498e-05 -2.88219e-06)
(-1.67032e-05 -1.3987e-05 -2.91722e-06)
(-1.78398e-05 -1.54336e-05 -2.29018e-06)
(-1.71364e-05 -1.49967e-05 -1.61632e-06)
(-1.71476e-05 -1.47224e-05 -2.27619e-06)
(-1.5776e-05 -1.33261e-05 -2.24342e-06)
(-1.6448e-05 -1.42913e-05 -1.60553e-06)
(-1.64595e-05 -1.40196e-05 -2.26063e-06)
(-1.30775e-05 -1.14118e-05 -3.36361e-07)
(-1.37382e-05 -1.18212e-05 -9.36655e-07)
(-1.37373e-05 -1.20718e-05 -3.3888e-07)
(-1.44186e-05 -1.32454e-05 8.35614e-07)
(-1.50827e-05 -1.36815e-05 2.53643e-07)
(-1.44094e-05 -1.29952e-05 2.49713e-07)
(-1.44048e-05 -1.24893e-05 -9.45547e-07)
(-1.50773e-05 -1.34262e-05 -3.43184e-07)
(-1.44041e-05 -1.27435e-05 -3.41146e-07)
(-1.43433e-05 -1.12111e-05 -3.74728e-06)
(-1.53385e-05 -1.26093e-05 -2.86956e-06)
(-1.43293e-05 -1.16037e-05 -2.82747e-06)
(-1.31005e-05 -1.06595e-05 -2.15655e-06)
(-1.37465e-05 -1.15679e-05 -1.5504e-06)
(-1.37594e-05 -1.13085e-05 -2.18112e-06)
(-1.50978e-05 -1.26425e-05 -2.22448e-06)
(-1.44129e-05 -1.22325e-05 -1.56609e-06)
(-1.44254e-05 -1.19698e-05 -2.20374e-06)
(-1.78219e-05 -1.62515e-05 -3.49492e-07)
(-1.71292e-05 -1.52655e-05 -9.7391e-07)
(-1.71291e-05 -1.55325e-05 -3.4815e-07)
(-1.6455e-05 -1.53445e-05 8.62873e-07)
(-1.57617e-05 -1.43778e-05 2.5728e-07)
(-1.64459e-05 -1.50834e-05 2.60618e-07)
(-1.64406e-05 -1.45574e-05 -9.67821e-07)
(-1.57562e-05 -1.41191e-05 -3.45016e-07)
(-1.64403e-05 -1.48214e-05 -3.46664e-07)
(-1.9985e-05 -1.6694e-05 -4.54706e-06)
(-2.24526e-05 -1.92783e-05 -4.60036e-06)
(-1.88408e-05 -1.61574e-05 -3.04999e-06)
(-1.95449e-05 -1.71632e-05 -2.43375e-06)
(-1.9542e-05 -1.68828e-05 -3.0679e-06)
(-2.00108e-05 -1.67966e-05 -4.37705e-06)
(-2.10604e-05 -1.83185e-05 -3.43018e-06)
(-2.00031e-05 -1.72143e-05 -3.40844e-06)
(-2.02491e-05 -1.78969e-05 -2.44684e-06)
(-2.09514e-05 -1.83517e-05 -3.09764e-06)
(-2.02457e-05 -1.76145e-05 -3.08375e-06)
(-2.23544e-05 -2.12548e-05 1.47389e-07)
(-2.16541e-05 -2.02199e-05 -5.19893e-07)
(-2.23636e-05 -2.09733e-05 -5.22447e-07)
(-2.37917e-05 -2.22039e-05 -1.19277e-06)
(-2.30842e-05 -2.11632e-05 -1.8437e-06)
(-2.30812e-05 -2.14468e-05 -1.18938e-06)
(-2.16617e-05 -1.99408e-05 -1.18062e-06)
(-2.23743e-05 -2.04103e-05 -1.83794e-06)
(-2.23711e-05 -2.06922e-05 -1.18534e-06)
(-1.88392e-05 -1.69791e-05 -1.15392e-06)
(-1.95458e-05 -1.74381e-05 -1.80419e-06)
(-1.95417e-05 -1.77116e-05 -1.16185e-06)
(-2.02297e-05 -1.89991e-05 1.48397e-07)
(-2.09457e-05 -1.94701e-05 -5.16947e-07)
(-2.02388e-05 -1.87245e-05 -5.13588e-07)
(-2.02504e-05 -1.81739e-05 -1.81437e-06)
(-2.09534e-05 -1.91931e-05 -1.17515e-06)
(-2.02466e-05 -1.84498e-05 -1.16891e-06)
(-2.24796e-05 -1.93823e-05 -4.42997e-06)
(-2.14135e-05 -1.86889e-05 -3.43634e-06)
(-2.24752e-05 -1.98071e-05 -3.45232e-06)
(-2.3786e-05 -2.13433e-05 -3.13592e-06)
(-2.30815e-05 -2.08791e-05 -2.48426e-06)
(-2.30763e-05 -2.05902e-05 -3.1287e-06)
(-2.16587e-05 -1.90939e-05 -3.10968e-06)
(-2.23719e-05 -2.01277e-05 -2.47696e-06)
(-2.23671e-05 -1.98402e-05 -3.11999e-06)
(-1.98691e-05 -1.66918e-05 -4.26749e-06)
(-2.2335e-05 -1.92771e-05 -4.31434e-06)
(-1.85356e-05 -1.61526e-05 -2.30266e-06)
(-1.92243e-05 -1.71597e-05 -1.64245e-06)
(-1.92346e-05 -1.68785e-05 -2.31374e-06)
(-1.98394e-05 -1.67934e-05 -3.96302e-06)
(-2.08892e-05 -1.83164e-05 -3.01084e-06)
(-1.98333e-05 -1.72118e-05 -2.99358e-06)
(-1.99261e-05 -1.78938e-05 -1.64927e-06)
(-2.06399e-05 -1.83485e-05 -2.33196e-06)
(-1.99362e-05 -1.76107e-05 -2.32347e-06)
(-2.20523e-05 -2.12553e-05 9.03855e-07)
(-2.13361e-05 -2.02198e-05 2.75657e-07)
(-2.20434e-05 -2.09732e-05 2.76694e-07)
(-2.34543e-05 -2.22034e-05 -3.56895e-07)
(-2.27449e-05 -2.11621e-05 -1.00401e-06)
(-2.27456e-05 -2.14462e-05 -3.56196e-07)
(-2.13301e-05 -1.994e-05 -3.5464e-07)
(-2.20368e-05 -2.0409e-05 -1.00173e-06)
(-2.20374e-05 -2.06915e-05 -3.55445e-07)
(-1.85184e-05 -1.69777e-05 -3.5071e-07)
(-1.92176e-05 -1.74356e-05 -9.88713e-07)
(-1.92179e-05 -1.77103e-05 -3.5182e-07)
(-1.99348e-05 -1.89999e-05 8.93412e-07)
(-2.06301e-05 -1.947e-05 2.74366e-07)
(-1.99258e-05 -1.87243e-05 2.72804e-07)
(-1.99196e-05 -1.81718e-05 -9.92617e-07)
(-2.06242e-05 -1.91922e-05 -3.53773e-07)
(-1.992e-05 -1.84487e-05 -3.52836e-07)
(-2.23058e-05 -1.93804e-05 -4.00645e-06)
(-2.12419e-05 -1.8687e-05 -3.0157e-06)
(-2.23024e-05 -1.98056e-05 -3.0283e-06)
(-2.34684e-05 -2.13416e-05 -2.35503e-06)
(-2.27509e-05 -2.08774e-05 -1.66866e-06)
(-2.276e-05 -2.05882e-05 -2.35072e-06)
(-2.13454e-05 -1.9091e-05 -2.33927e-06)
(-2.20429e-05 -2.01257e-05 -1.66488e-06)
(-2.20523e-05 -1.98378e-05 -2.34549e-06)
(-2.81474e-05 -2.54374e-05 -4.46587e-06)
(-2.70827e-05 -2.47233e-05 -3.48396e-06)
(-2.81513e-05 -2.58746e-05 -3.48591e-06)
(-2.95737e-05 -2.75652e-05 -3.13887e-06)
(-2.87783e-05 -2.69846e-05 -2.50955e-06)
(-2.87726e-05 -2.66907e-05 -3.15852e-06)
(-2.73326e-05 -2.51387e-05 -3.15448e-06)
(-2.80522e-05 -2.62012e-05 -2.50748e-06)
(-2.80455e-05 -2.59068e-05 -3.1558e-06)
(-2.45023e-05 -2.2963e-05 -1.19557e-06)
(-2.52152e-05 -2.34363e-05 -1.85572e-06)
(-2.52126e-05 -2.37238e-05 -1.19784e-06)
(-2.59061e-05 -2.50629e-05 1.46625e-07)
(-2.66249e-05 -2.55377e-05 -5.30806e-07)
(-2.59154e-05 -2.47738e-05 -5.30141e-07)
(-2.59249e-05 -2.41972e-05 -1.85823e-06)
(-2.66319e-05 -2.52486e-05 -1.2009e-06)
(-2.59226e-05 -2.44857e-05 -1.1996e-06)
(-2.56675e-05 -2.27719e-05 -4.46044e-06)
(-2.67286e-05 -2.43425e-05 -3.48313e-06)
(-2.56658e-05 -2.32022e-05 -3.4793e-06)
(-2.44958e-05 -2.20988e-05 -3.1418e-06)
(-2.52116e-05 -2.31485e-05 -2.49938e-06)
(-2.52055e-05 -2.28564e-05 -3.14646e-06)
(-2.66236e-05 -2.43761e-05 -3.15268e-06)
(-2.59212e-05 -2.39085e-05 -2.50249e-06)
(-2.59147e-05 -2.36156e-05 -3.15004e-06)
(-2.95695e-05 -2.85915e-05 -8.23203e-07)
(-2.87812e-05 -2.72749e-05 -1.86286e-06)
(-2.87793e-05 -2.75665e-05 -1.20254e-06)
(-2.80385e-05 -2.73652e-05 1.46855e-07)
(-2.73344e-05 -2.6303e-05 -5.31162e-07)
(-2.80474e-05 -2.70733e-05 -5.31213e-07)
(-2.8056e-05 -2.64915e-05 -1.86202e-06)
(-2.73414e-05 -2.6013e-05 -1.20172e-06)
(-2.80539e-05 -2.67822e-05 -1.20206e-06)
(-2.79979e-05 -2.53305e-05 -4.34255e-06)
(-2.55205e-05 -2.26665e-05 -4.33988e-06)
(-2.79712e-05 -2.54375e-05 -4.03447e-06)
(-2.69066e-05 -2.4723e-05 -3.05277e-06)
(-2.7975e-05 -2.58744e-05 -3.05447e-06)
(-2.94045e-05 -2.75649e-05 -2.72598e-06)
(-2.84398e-05 -2.69847e-05 -1.6813e-06)
(-2.84488e-05 -2.66905e-05 -2.36663e-06)
(-2.70109e-05 -2.51383e-05 -2.36613e-06)
(-2.77148e-05 -2.62011e-05 -1.68137e-06)
(-2.77233e-05 -2.59065e-05 -2.36709e-06)
(-2.41634e-05 -2.29627e-05 -3.57541e-07)
(-2.48715e-05 -2.34357e-05 -1.00899e-06)
(-2.48723e-05 -2.37235e-05 -3.58138e-07)
(-2.5596e-05 -2.50632e-05 9.11359e-07)
(-2.62956e-05 -2.55377e-05 2.78722e-07)
(-2.55872e-05 -2.47739e-05 2.78763e-07)
(-2.55801e-05 -2.41968e-05 -1.01012e-06)
(-2.62895e-05 -2.52485e-05 -3.59182e-07)
(-2.55811e-05 -2.44855e-05 -3.58681e-07)
(-2.54917e-05 -2.27713e-05 -4.03058e-06)
(-2.65527e-05 -2.43422e-05 -3.05214e-06)
(-2.54904e-05 -2.32017e-05 -3.04923e-06)
(-2.41771e-05 -2.20975e-05 -2.35851e-06)
(-2.48771e-05 -2.31477e-05 -1.67653e-06)
(-2.48858e-05 -2.28553e-05 -2.36125e-06)
(-2.63023e-05 -2.43756e-05 -2.36493e-06)
(-2.55857e-05 -2.39079e-05 -1.6782e-06)
(-2.55942e-05 -2.36148e-05 -2.36335e-06)
(-2.93992e-05 -2.85917e-05 -4.06706e-07)
(-2.84334e-05 -2.7275e-05 -1.01206e-06)
(-2.84345e-05 -2.75666e-05 -3.59033e-07)
(-2.77258e-05 -2.73654e-05 9.1222e-07)
(-2.70044e-05 -2.63031e-05 2.78575e-07)
(-2.77167e-05 -2.70734e-05 2.78606e-07)
(-2.77091e-05 -2.64915e-05 -1.0124e-06)
(-2.69981e-05 -2.6013e-05 -3.5966e-07)
(-2.77101e-05 -2.67823e-05 -3.5994e-07)
(-1.78915e-05 -1.45377e-05 -4.47415e-06)
(-1.34894e-05 -1.0152e-05 -4.21074e-06)
(-2.91696e-05 -2.64668e-05 -4.63388e-06)
(-2.45768e-05 -2.15318e-05 -4.62414e-06)
(-8.52327e-06 -5.54804e-06 -3.65058e-06)
(-1.25119e-05 -9.2125e-06 -4.12678e-06)
(-8.64673e-06 -5.76309e-06 -3.49017e-06)
(-8.53669e-06 -5.63281e-06 -3.50359e-06)
(-8.63306e-06 -5.66572e-06 -3.66132e-06)
(-8.52442e-06 -5.74767e-06 -3.23256e-06)
(-1.266e-05 -9.44668e-06 -3.97248e-06)
(-1.2531e-05 -9.3064e-06 -3.96605e-06)
(-1.29648e-05 -9.64835e-06 -4.1913e-06)
(-1.28468e-05 -9.74629e-06 -3.68786e-06)
(-1.26398e-05 -9.33822e-06 -4.1606e-06)
(-1.25224e-05 -9.43518e-06 -3.66161e-06)
(-1.29855e-05 -9.7575e-06 -4.00224e-06)
(-8.42827e-06 -5.53819e-06 -3.45464e-06)
(-1.24062e-05 -9.20592e-06 -3.88983e-06)
(-8.26328e-06 -5.72774e-06 -2.67752e-06)
(-8.39698e-06 -5.61881e-06 -3.21269e-06)
(-8.38833e-06 -5.73508e-06 -2.94392e-06)
(-8.29607e-06 -5.63264e-06 -2.95614e-06)
(-1.22303e-05 -9.42292e-06 -2.99252e-06)
(-1.23752e-05 -9.29702e-06 -3.61475e-06)
(-1.26932e-05 -9.73812e-06 -3.33588e-06)
(-1.25859e-05 -9.62698e-06 -3.33019e-06)
(-1.23698e-05 -9.42672e-06 -3.31352e-06)
(-1.22634e-05 -9.31607e-06 -3.3091e-06)
(-1.25529e-05 -9.73457e-06 -3.01128e-06)
(-1.80609e-05 -1.47857e-05 -4.33299e-06)
(-1.79158e-05 -1.46386e-05 -4.3053e-06)
(-1.83822e-05 -1.50234e-05 -4.54685e-06)
(-1.82584e-05 -1.51339e-05 -3.99033e-06)
(-1.80346e-05 -1.46685e-05 -4.53158e-06)
(-1.7911e-05 -1.47784e-05 -3.97739e-06)
(-1.84089e-05 -1.51409e-05 -4.34792e-06)
(-1.36422e-05 -1.03895e-05 -4.0587e-06)
(-1.35096e-05 -1.02475e-05 -4.04783e-06)
(-1.32918e-05 -9.96198e-06 -4.22095e-06)
(-1.31733e-05 -1.00609e-05 -3.71317e-06)
(-1.36207e-05 -1.0279e-05 -4.24955e-06)
(-1.33129e-05 -1.00718e-05 -4.03096e-06)
(-1.35017e-05 -1.03789e-05 -3.7376e-06)
(-1.77775e-05 -1.45344e-05 -4.20273e-06)
(-1.33817e-05 -1.01461e-05 -3.96591e-06)
(-1.75945e-05 -1.47738e-05 -3.21258e-06)
(-1.77474e-05 -1.4634e-05 -3.90325e-06)
(-1.80922e-05 -1.51299e-05 -3.59012e-06)
(-1.79735e-05 -1.50131e-05 -3.56695e-06)
(-1.77453e-05 -1.47742e-05 -3.5794e-06)
(-1.76272e-05 -1.46576e-05 -3.55715e-06)
(-1.79408e-05 -1.51297e-05 -3.22126e-06)
(-1.3204e-05 -1.03682e-05 -3.04662e-06)
(-1.33508e-05 -1.02391e-05 -3.68493e-06)
(-1.30187e-05 -1.0053e-05 -3.35738e-06)
(-1.29105e-05 -9.94138e-06 -3.35047e-06)
(-1.28775e-05 -1.00497e-05 -3.0293e-06)
(-1.33461e-05 -1.03713e-05 -3.37811e-06)
(-1.3237e-05 -1.02592e-05 -3.36996e-06)
(-1.8935e-05 -1.56077e-05 -4.51404e-06)
(-2.35143e-05 -2.04017e-05 -4.61442e-06)
(-1.91073e-05 -1.58573e-05 -4.37534e-06)
(-1.87308e-05 -1.53803e-05 -4.56127e-06)
(-1.86067e-05 -1.54914e-05 -4.00254e-06)
(-1.896e-05 -1.57095e-05 -4.34451e-06)
(-1.87578e-05 -1.54982e-05 -4.36202e-06)
(-1.908e-05 -1.5739e-05 -4.57488e-06)
(-1.89558e-05 -1.58507e-05 -4.01406e-06)
(-2.3696e-05 -2.06557e-05 -4.48489e-06)
(-2.35418e-05 -2.05061e-05 -4.44412e-06)
(-2.40202e-05 -2.09103e-05 -4.69022e-06)
(-2.38941e-05 -2.10279e-05 -4.11169e-06)
(-2.36657e-05 -2.05342e-05 -4.68597e-06)
(-2.35397e-05 -2.06516e-05 -4.10807e-06)
(-2.40507e-05 -2.10319e-05 -4.48917e-06)
(-1.88199e-05 -1.5605e-05 -4.23822e-06)
(-2.33962e-05 -2.04009e-05 -4.32653e-06)
(-1.86361e-05 -1.58473e-05 -3.23709e-06)
(-1.84399e-05 -1.54876e-05 -3.60022e-06)
(-1.83207e-05 -1.53706e-05 -3.57618e-06)
(-1.879e-05 -1.57056e-05 -3.93599e-06)
(-1.82881e-05 -1.54876e-05 -3.22942e-06)
(-1.87884e-05 -1.58472e-05 -3.60973e-06)
(-1.86687e-05 -1.57299e-05 -3.58483e-06)
(-2.32107e-05 -2.06521e-05 -3.29765e-06)
(-2.33672e-05 -2.05048e-05 -4.01785e-06)
(-2.37214e-05 -2.10268e-05 -3.68917e-06)
(-2.35967e-05 -2.09075e-05 -3.65538e-06)
(-2.33672e-05 -2.06503e-05 -3.68631e-06)
(-2.32428e-05 -2.05311e-05 -3.65297e-06)
(-2.35646e-05 -2.10287e-05 -3.29983e-06)
(-2.93982e-05 -2.67644e-05 -4.51996e-06)
(-2.92334e-05 -2.66025e-05 -4.48295e-06)
(-2.96867e-05 -2.69838e-05 -4.72847e-06)
(-2.95718e-05 -2.71117e-05 -4.15827e-06)
(-2.93545e-05 -2.66297e-05 -4.71767e-06)
(-2.92488e-05 -2.67644e-05 -4.15436e-06)
(-2.97325e-05 -2.71222e-05 -4.52761e-06)
(-2.476e-05 -2.17863e-05 -4.49633e-06)
(-2.46047e-05 -2.16366e-05 -4.45405e-06)
(-2.43747e-05 -2.1287e-05 -4.69399e-06)
(-2.42485e-05 -2.1405e-05 -4.11489e-06)
(-2.47292e-05 -2.16644e-05 -4.69729e-06)
(-2.44053e-05 -2.14088e-05 -4.49297e-06)
(-2.46029e-05 -2.17826e-05 -4.11771e-06)
(-2.90578e-05 -2.64715e-05 -4.34984e-06)
(-2.44584e-05 -2.15313e-05 -4.33483e-06)
(-2.89093e-05 -2.67639e-05 -3.32513e-06)
(-2.90645e-05 -2.66066e-05 -4.0602e-06)
(-2.94074e-05 -2.7113e-05 -3.75292e-06)
(-2.92788e-05 -2.69912e-05 -3.71414e-06)
(-2.90741e-05 -2.67651e-05 -3.72529e-06)
(-2.89346e-05 -2.66338e-05 -3.68122e-06)
(-2.9249e-05 -2.71207e-05 -3.3484e-06)
(-2.42727e-05 -2.17838e-05 -3.30337e-06)
(-2.44295e-05 -2.16357e-05 -4.0257e-06)
(-2.40756e-05 -2.1404e-05 -3.6917e-06)
(-2.39507e-05 -2.12846e-05 -3.65747e-06)
(-2.39186e-05 -2.1406e-05 -3.30173e-06)
(-2.44298e-05 -2.17817e-05 -3.6939e-06)
(-2.43047e-05 -2.16623e-05 -3.65926e-06)
(-2.89136e-05 -2.86775e-05 9.67061e-07)
(-2.94016e-05 -2.9031e-05 5.70089e-07)
(-2.90727e-05 -2.86735e-05 5.69796e-07)
(-2.92432e-05 -2.90338e-05 9.63128e-07)
(-1.61718e-05 -1.27974e-05 -4.39111e-06)
(-1.51545e-05 -1.17834e-05 -4.33062e-06)
(-2.74081e-05 -2.45662e-05 -4.6343e-06)
(-2.63471e-05 -2.34256e-05 -4.63261e-06)
(-1.00036e-05 -6.87297e-06 -3.85608e-06)
(-1.09258e-05 -7.72028e-06 -3.96579e-06)
(-1.01374e-05 -7.09631e-06 -3.6971e-06)
(-1.00194e-05 -6.96166e-06 -3.70292e-06)
(-1.04272e-05 -7.27309e-06 -3.91531e-06)
(-1.0314e-05 -7.36249e-06 -3.45134e-06)
(-1.0121e-05 -6.99422e-06 -3.87582e-06)
(-1.0444e-05 -7.37606e-06 -3.73525e-06)
(-1.00085e-05 -7.08243e-06 -3.41738e-06)
(-1.10652e-05 -7.94803e-06 -3.8083e-06)
(-1.09429e-05 -7.81107e-06 -3.80947e-06)
(-1.0736e-05 -7.55617e-06 -3.95366e-06)
(-1.06221e-05 -7.64672e-06 -3.48427e-06)
(-1.10474e-05 -7.84337e-06 -3.9909e-06)
(-1.07534e-05 -7.65999e-06 -3.77229e-06)
(-1.09329e-05 -7.93505e-06 -3.51625e-06)
(-9.90403e-06 -6.86443e-06 -3.64311e-06)
(-1.08238e-05 -7.7125e-06 -3.74334e-06)
(-9.73425e-06 -7.06559e-06 -2.81497e-06)
(-9.87278e-06 -6.9495e-06 -3.38694e-06)
(-1.01696e-05 -7.35186e-06 -3.13333e-06)
(-1.00703e-05 -7.24522e-06 -3.13786e-06)