/*--------------------------------*- C++ -*----------------------------------*\
| =========                 |                                                 |
| \\      /  F ield         | OpenFOAM: The Open Source CFD Toolbox           |
|  \\    /   O peration     | Version:  2012                                  |
|   \\  /    A nd           | Website:  www.openfoam.com                      |
|    \\/     M anipulation  |                                                 |
\*---------------------------------------------------------------------------*/
FoamFile
{
    version     2.0;
    format      ascii;
    class       volVectorField;
    location    "0.106/solid";
    object      D_0_0;
}
// * * * * * * * * * * * * * * * * * * * * * * * * * * * * * * * * * * * * * //

dimensions      [0 1 0 0 0 0 0];


internalField   nonuniform List<vector> 
3125
(
(-2.64133e-05 -1.62401e-05 -6.44904e-06)
(-1.90565e-05 -1.09776e-05 -6.01739e-06)
(-4.26848e-05 -2.83692e-05 -6.71665e-06)
(-3.50857e-05 -2.2653e-05 -6.6366e-06)
(-1.85843e-05 -1.06475e-05 -5.97763e-06)
(-1.83357e-05 -1.21422e-05 3.5336e-07)
(-1.20624e-05 -7.72476e-06 3.20801e-07)
(-1.85984e-05 -1.0732e-05 -5.72046e-06)
(-1.849e-05 -1.06383e-05 -5.72522e-06)
(-1.81111e-05 -1.21456e-05 1.0288e-06)
(-1.18683e-05 -7.72989e-06 8.98992e-07)
(-1.84594e-05 -1.07189e-05 -5.34649e-06)
(-2.64332e-05 -1.63286e-05 -6.17631e-06)
(-1.92866e-05 -1.28245e-05 3.566e-07)
(-1.90709e-05 -1.10624e-05 -5.75881e-06)
(-2.61958e-05 -1.78609e-05 3.71629e-07)
(-2.63138e-05 -1.62357e-05 -6.16786e-06)
(-1.89617e-05 -1.09687e-05 -5.76267e-06)
(-2.62861e-05 -1.63223e-05 -5.75993e-06)
(-1.90584e-05 -1.28277e-05 1.04313e-06)
(-1.89313e-05 -1.10498e-05 -5.38144e-06)
(-2.59465e-05 -1.78626e-05 1.11642e-06)
(-2.69174e-05 -1.66076e-05 -6.46783e-06)
(-3.45723e-05 -2.22689e-05 -6.63208e-06)
(-2.69375e-05 -1.66963e-05 -6.19455e-06)
(-3.43821e-05 -2.39618e-05 3.77453e-07)
(-2.72089e-05 -1.86093e-05 3.72874e-07)
(-3.45958e-05 -2.23591e-05 -6.35551e-06)
(-2.68176e-05 -1.66034e-05 -6.18541e-06)
(-3.44704e-05 -2.22678e-05 -6.33803e-06)
(-2.67901e-05 -1.66903e-05 -5.77636e-06)
(-3.41179e-05 -2.39624e-05 1.15126e-06)
(-2.69572e-05 -1.86108e-05 1.12332e-06)
(-3.4445e-05 -2.23575e-05 -5.92015e-06)
(-4.28168e-05 -2.85318e-05 -6.47795e-06)
(-3.54115e-05 -2.47362e-05 3.77688e-07)
(-3.51093e-05 -2.27433e-05 -6.36006e-06)
(-4.25953e-05 -2.83791e-05 -6.41931e-06)
(-3.49837e-05 -2.2652e-05 -6.34216e-06)
(-4.26839e-05 -2.85398e-05 -6.0628e-06)
(-3.51462e-05 -2.47366e-05 1.1529e-06)
(-3.49584e-05 -2.27418e-05 -5.92414e-06)
(-2.2925e-05 -1.37193e-05 -6.2843e-06)
(-2.24336e-05 -1.33676e-05 -6.25573e-06)
(-3.919e-05 -2.57399e-05 -6.6541e-06)
(-3.86774e-05 -2.5353e-05 -6.65334e-06)
(-1.49224e-05 -8.12605e-06 -5.60469e-06)
(-1.53678e-05 -8.42877e-06 -5.65678e-06)
(-1.21036e-05 -6.99142e-06 -2.65921e-06)
(-1.49328e-05 -8.20731e-06 -5.36104e-06)
(-1.4696e-05 -8.74929e-06 -2.84744e-06)
(-1.55571e-05 -1.01666e-05 3.41642e-07)
(-1.83603e-05 -1.15131e-05 -2.21281e-06)
(-1.55832e-05 -9.57076e-06 -2.10285e-06)
(-1.20905e-05 -7.18036e-06 -1.92298e-06)
(-1.46589e-05 -9.53414e-06 3.37019e-07)
(-1.46855e-05 -8.95038e-06 -2.06152e-06)
(-1.53787e-05 -8.51048e-06 -5.41121e-06)
(-1.83676e-05 -1.12983e-05 -3.0523e-06)
(-1.55929e-05 -9.36598e-06 -2.90349e-06)
(-1.48321e-05 -8.11404e-06 -5.37327e-06)
(-1.5277e-05 -8.41712e-06 -5.4225e-06)
(-1.18785e-05 -6.97175e-06 -2.05078e-06)
(-1.47999e-05 -8.19023e-06 -5.01804e-06)
(-1.44576e-05 -8.73266e-06 -2.18727e-06)
(-1.53445e-05 -1.01707e-05 9.79584e-07)
(-1.81028e-05 -1.15042e-05 -1.47151e-06)
(-1.53375e-05 -9.55991e-06 -1.4048e-06)
(-1.18633e-05 -7.16671e-06 -1.29359e-06)
(-1.44506e-05 -9.53849e-06 9.61063e-07)
(-1.44441e-05 -8.93884e-06 -1.37946e-06)
(-1.5245e-05 -8.49391e-06 -5.06398e-06)
(-1.81143e-05 -1.12854e-05 -2.33389e-06)
(-1.53505e-05 -9.35033e-06 -2.2276e-06)
(-2.29426e-05 -1.38064e-05 -6.01666e-06)
(-2.62186e-05 -1.69286e-05 -3.31921e-06)
(-2.32152e-05 -1.475e-05 -3.23972e-06)
(-1.93107e-05 -1.21853e-05 -2.24492e-06)
(-2.22005e-05 -1.49327e-05 3.64551e-07)
(-2.22232e-05 -1.42659e-05 -2.32829e-06)
(-2.24508e-05 -1.34545e-05 -5.98902e-06)
(-1.93173e-05 -1.19674e-05 -3.09566e-06)
(-2.22277e-05 -1.40398e-05 -3.20795e-06)
(-2.62167e-05 -1.71636e-05 -2.41133e-06)
(-2.31892e-05 -1.56536e-05 3.66665e-07)
(-2.32114e-05 -1.49785e-05 -2.35194e-06)
(-2.28273e-05 -1.37129e-05 -6.01358e-06)
(-2.23362e-05 -1.3361e-05 -5.98677e-06)
(-2.27984e-05 -1.37973e-05 -5.61569e-06)
(-2.59438e-05 -1.69223e-05 -2.52103e-06)
(-2.29472e-05 -1.47414e-05 -2.46583e-06)
(-1.90497e-05 -1.2177e-05 -1.49078e-06)
(-2.19623e-05 -1.49352e-05 1.08017e-06)
(-2.19525e-05 -1.42595e-05 -1.54038e-06)
(-2.23071e-05 -1.3445e-05 -5.59065e-06)
(-1.90607e-05 -1.19555e-05 -2.36462e-06)
(-2.19623e-05 -1.40305e-05 -2.44363e-06)
(-2.59356e-05 -1.71592e-05 -1.58913e-06)
(-2.2948e-05 -1.56559e-05 1.09059e-06)
(-2.29379e-05 -1.49726e-05 -1.55432e-06)
(-3.04736e-05 -1.92205e-05 -6.5697e-06)
(-3.09846e-05 -1.95985e-05 -6.58037e-06)
(-2.72307e-05 -1.76686e-05 -3.34075e-06)
(-3.04955e-05 -1.93101e-05 -6.29388e-06)
(-3.02897e-05 -1.9921e-05 -3.39203e-06)
(-3.12965e-05 -2.16493e-05 3.76233e-07)
(-3.44e-05 -2.32242e-05 -2.498e-06)
(-3.13154e-05 -2.09236e-05 -2.47606e-06)
(-2.72293e-05 -1.79055e-05 -2.4275e-06)
(-3.02706e-05 -2.08835e-05 3.75609e-07)
(-3.02899e-05 -2.01627e-05 -2.46617e-06)
(-3.10067e-05 -1.96883e-05 -6.30433e-06)
(-3.43982e-05 -2.29778e-05 -3.43368e-06)
(-3.13148e-05 -2.06806e-05 -3.40506e-06)
(-3.03725e-05 -1.92179e-05 -6.28035e-06)
(-3.08834e-05 -1.95962e-05 -6.29025e-06)
(-2.69539e-05 -1.7663e-05 -2.53592e-06)
(-3.03461e-05 -1.93064e-05 -5.86546e-06)
(-3.00079e-05 -1.99172e-05 -2.57123e-06)
(-3.10368e-05 -2.16502e-05 1.14322e-06)
(-3.41056e-05 -2.32229e-05 -1.64008e-06)
(-3.10249e-05 -2.09214e-05 -1.62699e-06)
(-2.69461e-05 -1.79016e-05 -1.59857e-06)
(-3.00127e-05 -2.08846e-05 1.13932e-06)
(-3.0001e-05 -2.01601e-05 -1.62118e-06)
(-3.08571e-05 -1.96849e-05 -5.87479e-06)
(-3.41115e-05 -2.29759e-05 -2.59988e-06)
(-3.10316e-05 -2.06773e-05 -2.58018e-06)
(-3.92146e-05 -2.58306e-05 -6.37854e-06)
(-4.2823e-05 -2.94482e-05 -3.01358e-06)
(-3.95389e-05 -2.68433e-05 -3.45457e-06)
(-3.54291e-05 -2.39954e-05 -2.50306e-06)
(-3.84972e-05 -2.70646e-05 3.7811e-07)
(-3.85141e-05 -2.63166e-05 -2.51276e-06)
(-3.87019e-05 -2.54436e-05 -6.37761e-06)
(-3.5427e-05 -2.37481e-05 -3.44018e-06)
(-3.85111e-05 -2.60674e-05 -3.45247e-06)
(-4.28227e-05 -2.9574e-05 -2.53654e-06)
(-3.95254e-05 -2.78428e-05 3.78271e-07)
(-3.95419e-05 -2.7093e-05 -2.51439e-06)
(-3.90875e-05 -2.57397e-05 -6.35782e-06)
(-3.8575e-05 -2.53527e-05 -6.35719e-06)
(-3.9063e-05 -2.58302e-05 -5.93992e-06)
(-4.26765e-05 -2.94484e-05 -2.59004e-06)
(-3.92489e-05 -2.6843e-05 -2.61477e-06)
(-3.51337e-05 -2.39944e-05 -1.64317e-06)
(-3.82292e-05 -2.70649e-05 1.15544e-06)
(-3.82163e-05 -2.63163e-05 -1.64941e-06)
(-3.85503e-05 -2.54432e-05 -5.93918e-06)
(-3.51394e-05 -2.37466e-05 -2.60438e-06)
(-3.82215e-05 -2.60668e-05 -2.61306e-06)
(-4.26751e-05 -2.95743e-05 -2.10984e-06)
(-3.92569e-05 -2.7843e-05 1.15567e-06)
(-3.92437e-05 -2.70928e-05 -1.65071e-06)
(-2.4909e-05 -1.51479e-05 -6.38576e-06)
(-2.04893e-05 -1.19856e-05 -6.12795e-06)
(-4.12476e-05 -2.72964e-05 -6.65428e-06)
(-3.66257e-05 -2.38081e-05 -6.64663e-06)
(-1.31809e-05 -6.95443e-06 -5.38004e-06)
(-1.71859e-05 -9.67615e-06 -5.84937e-06)
(-1.31893e-05 -7.03372e-06 -5.14479e-06)
(-1.31471e-05 -7.3423e-06 -3.97549e-06)
(-1.73965e-05 -1.14714e-05 3.49798e-07)
(-1.83427e-05 -1.19345e-05 -5.08063e-07)
(-1.74033e-05 -1.12673e-05 -4.98794e-07)
(-1.20684e-05 -7.54634e-06 -4.31666e-07)
(-1.29105e-05 -8.31253e-06 3.26613e-07)
(-1.29167e-05 -8.12941e-06 -4.44236e-07)
(-1.71986e-05 -9.75952e-06 -5.59677e-06)
(-1.85693e-05 -1.10671e-05 -4.42696e-06)
(-1.71663e-05 -1.00887e-05 -4.32944e-06)
(-1.30931e-05 -6.94092e-06 -5.16078e-06)
(-1.7093e-05 -9.66593e-06 -5.60431e-06)
(-1.30602e-05 -7.01453e-06 -4.81972e-06)
(-1.30226e-05 -7.32784e-06 -3.64819e-06)
(-1.71757e-05 -1.1475e-05 1.01344e-06)
(-1.81026e-05 -1.19339e-05 2.03591e-07)
(-1.71672e-05 -1.12666e-05 2.00198e-07)
(-1.18596e-05 -7.54537e-06 1.75736e-07)
(-1.27115e-05 -8.3174e-06 9.20777e-07)
(-1.27028e-05 -8.12849e-06 1.80274e-07)
(-1.70618e-05 -9.74498e-06 -5.23365e-06)
(-1.84337e-05 -1.10572e-05 -4.05155e-06)
(-1.70331e-05 -1.00778e-05 -3.96467e-06)
(-2.49279e-05 -1.52359e-05 -6.1149e-06)
(-2.64189e-05 -1.66863e-05 -4.78774e-06)
(-2.4911e-05 -1.55903e-05 -4.73855e-06)
(-1.92937e-05 -1.26133e-05 -5.16796e-07)
(-2.02483e-05 -1.35175e-05 3.59534e-07)
(-2.02556e-05 -1.33029e-05 -5.24997e-07)
(-2.05049e-05 -1.20714e-05 -5.86554e-06)
(-1.90428e-05 -1.13992e-05 -4.45687e-06)
(-2.04799e-05 -1.24134e-05 -4.54123e-06)
(-2.62036e-05 -1.76292e-05 -5.63429e-07)
(-2.51877e-05 -1.71183e-05 3.70189e-07)
(-2.51953e-05 -1.68891e-05 -5.58258e-07)
(-2.48101e-05 -1.51427e-05 -6.10867e-06)
(-2.03933e-05 -1.19778e-05 -5.86671e-06)
(-2.47819e-05 -1.52285e-05 -5.70456e-06)
(-2.62736e-05 -1.66815e-05 -4.37075e-06)
(-2.47671e-05 -1.55846e-05 -4.32743e-06)
(-1.905e-05 -1.26127e-05 2.06777e-07)
(-2.00166e-05 -1.35204e-05 1.05646e-06)
(-2.00083e-05 -1.33023e-05 2.09749e-07)
(-2.03634e-05 -1.20602e-05 -5.47856e-06)
(-1.89064e-05 -1.13897e-05 -4.0781e-06)
(-2.03414e-05 -1.24049e-05 -4.15304e-06)
(-2.59385e-05 -1.76289e-05 2.22976e-07)
(-2.49409e-05 -1.71202e-05 1.10869e-06)
(-2.49329e-05 -1.68888e-05 2.21325e-07)
(-2.84362e-05 -1.77194e-05 -6.51761e-06)
(-3.30331e-05 -2.112e-05 -6.6145e-06)
(-2.69238e-05 -1.70549e-05 -4.80223e-06)
(-2.84571e-05 -1.78085e-05 -6.243e-06)
(-2.84459e-05 -1.817e-05 -4.84139e-06)
(-3.33528e-05 -2.31889e-05 3.77142e-07)
(-3.43902e-05 -2.37157e-05 -5.89498e-07)
(-3.33609e-05 -2.29441e-05 -5.87551e-07)
(-2.72167e-05 -1.83753e-05 -5.68136e-07)
(-2.82261e-05 -1.93629e-05 3.73944e-07)
(-2.8234e-05 -1.91268e-05 -5.72392e-07)
(-3.3056e-05 -2.12101e-05 -6.33797e-06)
(-3.45916e-05 -2.27281e-05 -4.93466e-06)
(-3.30502e-05 -2.15775e-05 -4.91945e-06)
(-2.83358e-05 -1.7716e-05 -6.23187e-06)
(-3.29314e-05 -2.11184e-05 -6.32186e-06)
(-2.67781e-05 -1.70503e-05 -4.38345e-06)
(-2.83088e-05 -1.78036e-05 -5.8199e-06)
(-2.8299e-05 -1.81662e-05 -4.41782e-06)
(-3.309e-05 -2.31896e-05 1.14914e-06)
(-3.41104e-05 -2.37157e-05 2.2889e-07)
(-3.30824e-05 -2.29441e-05 2.28765e-07)
(-2.69493e-05 -1.8375e-05 2.24408e-07)
(-2.79722e-05 -1.93643e-05 1.12941e-06)
(-2.79644e-05 -1.91266e-05 2.25627e-07)
(-3.29057e-05 -2.12077e-05 -5.9047e-06)
(-3.44414e-05 -2.27267e-05 -4.49916e-06)
(-3.29006e-05 -2.15756e-05 -4.48596e-06)
(-4.12781e-05 -2.73906e-05 -6.3828e-06)
(-4.28314e-05 -2.89406e-05 -4.96317e-06)
(-4.12873e-05 -2.77705e-05 -4.96095e-06)
(-3.54197e-05 -2.44889e-05 -5.91135e-07)
(-3.64407e-05 -2.55116e-05 3.77863e-07)
(-3.64489e-05 -2.52634e-05 -5.92478e-07)
(-3.66497e-05 -2.38986e-05 -6.37035e-06)
(-3.51054e-05 -2.31126e-05 -4.93864e-06)
(-3.66471e-05 -2.4269e-05 -4.94821e-06)
(-4.28189e-05 -3.00775e-05 -6.25119e-07)
(-4.16191e-05 -2.91733e-05 -5.95309e-07)
(-4.11458e-05 -2.72969e-05 -6.35773e-06)
(-3.65235e-05 -2.38075e-05 -6.35127e-06)
(-4.11271e-05 -2.73911e-05 -5.94362e-06)
(-4.26803e-05 -2.894e-05 -4.52844e-06)
(-4.11355e-05 -2.77703e-05 -4.5222e-06)
(-3.51387e-05 -2.44889e-05 2.28892e-07)
(-3.61744e-05 -2.5512e-05 1.1541e-06)
(-3.61669e-05 -2.52634e-05 2.2879e-07)
(-3.64984e-05 -2.38976e-05 -5.93307e-06)
(-3.49549e-05 -2.31113e-05 -4.50259e-06)
(-3.64962e-05 -2.42681e-05 -4.51085e-06)
(-4.2674e-05 -3.00778e-05 -2.06624e-07)
(-4.13332e-05 -2.91736e-05 2.30249e-07)
(-2.44105e-05 -1.47877e-05 -6.36227e-06)
(-2.09719e-05 -1.23272e-05 -6.16196e-06)
(-4.07302e-05 -2.69045e-05 -6.65463e-06)
(-3.71388e-05 -2.41939e-05 -6.64894e-06)
(-1.361e-05 -7.24127e-06 -5.43866e-06)
(-1.67262e-05 -9.35902e-06 -5.80357e-06)
(-1.21195e-05 -6.79464e-06 -3.40598e-06)
(-1.29503e-05 -7.56131e-06 -2.72535e-06)
(-1.29651e-05 -7.36048e-06 -3.48963e-06)
(-1.36189e-05 -7.32107e-06 -5.2012e-06)
(-1.48951e-05 -8.52575e-06 -4.14483e-06)
(-1.35777e-05 -7.63214e-06 -4.01926e-06)
(-1.38148e-05 -8.1475e-06 -2.78808e-06)
(-1.47085e-05 -8.54089e-06 -3.64391e-06)
(-1.38284e-05 -7.9428e-06 -3.56892e-06)
(-1.64699e-05 -1.08126e-05 3.45896e-07)
(-1.55637e-05 -9.97042e-06 -4.7862e-07)
(-1.64767e-05 -1.06124e-05 -4.8898e-07)
(-1.83517e-05 -1.17252e-05 -1.3639e-06)
(-1.74216e-05 -1.08528e-05 -2.17846e-06)
(-1.74125e-05 -1.10615e-05 -1.34197e-06)
(-1.55732e-05 -9.77217e-06 -1.29382e-06)
(-1.64955e-05 -1.02052e-05 -2.14182e-06)
(-1.6486e-05 -1.04103e-05 -1.31861e-06)
(-1.20785e-05 -7.36522e-06 -1.17986e-06)
(-1.29381e-05 -7.75448e-06 -1.97162e-06)
(-1.29266e-05 -7.94374e-06 -1.21061e-06)
(-1.37763e-05 -8.91589e-06 3.32014e-07)
(-1.46653e-05 -9.34214e-06 -4.67711e-07)
(-1.37827e-05 -8.72824e-06 -4.5625e-07)
(-1.38034e-05 -8.34471e-06 -2.01779e-06)
(-1.4675e-05 -9.14791e-06 -1.26757e-06)
(-1.37925e-05 -8.5382e-06 -1.23984e-06)
(-1.67384e-05 -9.44199e-06 -5.55263e-06)
(-1.5342e-05 -8.83113e-06 -4.18381e-06)
(-1.67052e-05 -9.76926e-06 -4.29508e-06)
(-1.83759e-05 -1.10768e-05 -3.9022e-06)
(-1.74297e-05 -1.06412e-05 -3.00586e-06)
(-1.7439e-05 -1.04227e-05 -3.84373e-06)
(-1.56043e-05 -9.15406e-06 -3.71466e-06)
(-1.65044e-05 -9.99684e-06 -2.95628e-06)
(-1.65148e-05 -9.78158e-06 -3.78124e-06)
(-1.35216e-05 -7.22814e-06 -5.21626e-06)
(-1.66338e-05 -9.34844e-06 -5.5611e-06)
(-1.19008e-05 -6.77077e-06 -2.82811e-06)
(-1.27206e-05 -7.54267e-06 -2.09891e-06)
(-1.27421e-05 -7.33786e-06 -2.89442e-06)
(-1.34888e-05 -7.30241e-06 -4.8715e-06)
(-1.47665e-05 -8.51286e-06 -3.79988e-06)
(-1.34521e-05 -7.6181e-06 -3.68737e-06)
(-1.35807e-05 -8.12987e-06 -2.14439e-06)
(-1.44776e-05 -8.52071e-06 -3.01619e-06)
(-1.36013e-05 -7.92141e-06 -2.95709e-06)
(-1.62532e-05 -1.08164e-05 9.97039e-07)
(-1.53359e-05 -9.96966e-06 1.92804e-07)
(-1.62446e-05 -1.06117e-05 1.96601e-07)
(-1.80993e-05 -1.17205e-05 -6.26579e-07)
(-1.71678e-05 -1.08433e-05 -1.45078e-06)
(-1.7164e-05 -1.10565e-05 -6.17986e-07)
(-1.5333e-05 -9.76643e-06 -5.98866e-07)
(-1.62457e-05 -1.0195e-05 -1.42856e-06)
(-1.62416e-05 -1.04049e-05 -6.08757e-07)
(-1.18575e-05 -7.35801e-06 -5.52237e-07)
(-1.2706e-05 -7.74155e-06 -1.32389e-06)
(-1.27005e-05 -7.93691e-06 -5.64996e-07)
(-1.35726e-05 -8.92049e-06 9.41465e-07)
(-1.4442e-05 -9.34132e-06 1.88814e-07)
(-1.35639e-05 -8.72737e-06 1.84636e-07)
(-1.35666e-05 -8.33249e-06 -1.3525e-06)
(-1.44393e-05 -9.14182e-06 -5.8829e-07)
(-1.35615e-05 -8.53174e-06 -5.77007e-07)
(-1.66023e-05 -9.42695e-06 -5.19333e-06)
(-1.52124e-05 -8.81865e-06 -3.83467e-06)
(-1.65729e-05 -9.75789e-06 -3.93409e-06)
(-1.81313e-05 -1.10612e-05 -3.21831e-06)
(-1.71798e-05 -1.06274e-05 -2.30085e-06)
(-1.71976e-05 -1.0406e-05 -3.17277e-06)
(-1.53697e-05 -9.13507e-06 -3.07179e-06)
(-1.62582e-05 -9.98215e-06 -2.26545e-06)
(-1.62767e-05 -9.76375e-06 -3.12396e-06)
(-2.4429e-05 -1.48754e-05 -6.09215e-06)
(-2.29222e-05 -1.41557e-05 -4.66047e-06)
(-2.44114e-05 -1.52287e-05 -4.7206e-06)
(-2.62197e-05 -1.66885e-05 -4.2367e-06)
(-2.52115e-05 -1.6195e-05 -3.29525e-06)
(-2.52134e-05 -1.59568e-05 -4.20685e-06)
(-2.32188e-05 -1.45158e-05 -4.13747e-06)
(-2.42101e-05 -1.54686e-05 -3.26879e-06)
(-2.42128e-05 -1.52323e-05 -4.17381e-06)
(-1.93025e-05 -1.24005e-05 -1.38444e-06)
(-2.0272e-05 -1.28686e-05 -2.27483e-06)
(-2.02642e-05 -1.30869e-05 -1.40361e-06)
(-2.12199e-05 -1.42205e-05 3.6218e-07)
(-2.2208e-05 -1.47118e-05 -5.39824e-07)
(-2.12273e-05 -1.40026e-05 -5.3267e-07)
(-2.12431e-05 -1.35624e-05 -2.30261e-06)
(-2.22163e-05 -1.44899e-05 -1.43797e-06)
(-2.12358e-05 -1.37836e-05 -1.42145e-06)
(-2.0988e-05 -1.24133e-05 -5.89839e-06)
(-2.24296e-05 -1.38026e-05 -4.63878e-06)
(-2.09638e-05 -1.27568e-05 -4.56691e-06)
(-1.93246e-05 -1.17431e-05 -3.95674e-06)
(-2.02778e-05 -1.26478e-05 -3.136e-06)
(-2.02842e-05 -1.24208e-05 -4.00743e-06)
(-2.22321e-05 -1.38079e-05 -4.0977e-06)
(-2.12482e-05 -1.33389e-05 -3.17341e-06)
(-2.12536e-05 -1.31093e-05 -4.05439e-06)
(-2.62113e-05 -1.73971e-05 -1.4917e-06)
(-2.5209e-05 -1.6428e-05 -2.3934e-06)
(-2.52032e-05 -1.66594e-05 -1.48005e-06)
(-2.41852e-05 -1.63823e-05 3.68539e-07)
(-2.31967e-05 -1.54297e-05 -5.46467e-07)
(-2.41928e-05 -1.61557e-05 -5.52608e-07)
(-2.4207e-05 -1.56994e-05 -2.37362e-06)
(-2.32049e-05 -1.52051e-05 -1.45323e-06)
(-2.42008e-05 -1.59285e-05 -1.46724e-06)
(-2.43119e-05 -1.47822e-05 -6.08667e-06)
(-2.08756e-05 -1.23197e-05 -5.89869e-06)
(-2.42835e-05 -1.48676e-05 -5.684e-06)
(-2.27804e-05 -1.41488e-05 -4.25855e-06)
(-2.42681e-05 -1.52227e-05 -4.31165e-06)
(-2.59559e-05 -1.66808e-05 -3.47571e-06)
(-2.49388e-05 -1.6188e-05 -2.50444e-06)
(-2.49515e-05 -1.59482e-05 -3.453e-06)
(-2.29611e-05 -1.45054e-05 -3.4e-06)
(-2.39397e-05 -1.54608e-05 -2.48607e-06)
(-2.39529e-05 -1.52228e-05 -3.4278e-06)
(-1.90465e-05 -1.23962e-05 -6.34558e-07)
(-2.00075e-05 -1.2861e-05 -1.50866e-06)
(-2.00047e-05 -1.30829e-05 -6.41948e-07)
(-2.09849e-05 -1.42232e-05 1.0688e-06)
(-2.19541e-05 -1.47114e-05 2.15043e-07)
(-2.09766e-05 -1.40021e-05 2.12505e-07)
(-2.09755e-05 -1.35553e-05 -1.52517e-06)
(-2.19502e-05 -1.44865e-05 -6.55067e-07)
(-2.09729e-05 -1.37799e-05 -6.48776e-07)
(-2.08459e-05 -1.24025e-05 -5.50841e-06)
(-2.22885e-05 -1.37953e-05 -4.23942e-06)
(-2.08246e-05 -1.27486e-05 -4.17577e-06)
(-1.90771e-05 -1.17286e-05 -3.26066e-06)
(-2.00181e-05 -1.26368e-05 -2.3931e-06)
(-2.00338e-05 -1.24074e-05 -3.29991e-06)
(-2.19767e-05 -1.37965e-05 -3.36948e-06)
(-2.09856e-05 -1.33287e-05 -2.41942e-06)
(-2.10007e-05 -1.30969e-05 -3.33615e-06)
(-2.59343e-05 -1.73948e-05 -6.75385e-07)
(-2.49303e-05 -1.64231e-05 -1.57865e-06)
(-2.49287e-05 -1.66568e-05 -6.7098e-07)
(-2.39411e-05 -1.63844e-05 1.10009e-06)
(-2.29398e-05 -1.54294e-05 2.17359e-07)
(-2.3933e-05 -1.61554e-05 2.19453e-07)
(-2.39308e-05 -1.5694e-05 -1.56706e-06)
(-2.29359e-05 -1.5202e-05 -6.60847e-07)
(-2.3929e-05 -1.59256e-05 -6.66143e-07)
(-2.89444e-05 -1.80928e-05 -6.53211e-06)
(-3.25204e-05 -2.07384e-05 -6.60718e-06)
(-2.72311e-05 -1.74268e-05 -4.26349e-06)
(-2.8247e-05 -1.84144e-05 -3.36e-06)
(-2.82467e-05 -1.81711e-05 -4.28736e-06)
(-2.89656e-05 -1.81821e-05 -6.25713e-06)
(-3.04869e-05 -1.96746e-05 -4.88281e-06)
(-2.89549e-05 -1.85443e-05 -4.85272e-06)
(-2.92669e-05 -1.91654e-05 -3.37705e-06)
(-3.02881e-05 -1.96749e-05 -4.32691e-06)
(-2.92659e-05 -1.89206e-05 -4.30845e-06)
(-3.23241e-05 -2.24179e-05 3.7674e-07)
(-3.13045e-05 -2.14075e-05 -5.82634e-07)
(-3.23322e-05 -2.21745e-05 -5.8527e-07)
(-3.43969e-05 -2.34702e-05 -1.54874e-06)
(-3.3371e-05 -2.24549e-05 -2.49188e-06)
(-3.33677e-05 -2.26998e-05 -1.54463e-06)
(-3.13116e-05 -2.1166e-05 -1.5341e-06)
(-3.23426e-05 -2.16879e-05 -2.4846e-06)
(-3.23391e-05 -2.19315e-05 -1.53977e-06)
(-2.72243e-05 -1.81411e-05 -1.50223e-06)
(-2.82462e-05 -1.86531e-05 -2.44197e-06)
(-2.82415e-05 -1.88905e-05 -1.51168e-06)
(-2.92469e-05 -2.01212e-05 3.7485e-07)
(-3.02786e-05 -2.06435e-05 -5.79621e-07)
(-2.92549e-05 -1.9883e-05 -5.76214e-07)
(-2.92666e-05 -1.94057e-05 -2.45483e-06)
(-3.02858e-05 -2.04036e-05 -1.52757e-06)
(-2.92622e-05 -1.96449e-05 -1.52011e-06)
(-3.25432e-05 -2.08284e-05 -6.33073e-06)
(-3.09986e-05 -2.00534e-05 -4.89132e-06)
(-3.2537e-05 -2.11954e-05 -4.9134e-06)
(-3.43944e-05 -2.27275e-05 -4.37763e-06)
(-3.33696e-05 -2.22095e-05 -3.42575e-06)
(-3.33663e-05 -2.196e-05 -4.36808e-06)
(-3.13126e-05 -2.04332e-05 -4.34289e-06)
(-3.23416e-05 -2.14436e-05 -3.41625e-06)
(-3.23388e-05 -2.11951e-05 -4.35656e-06)
(-2.88438e-05 -1.80896e-05 -6.24538e-06)
(-3.24189e-05 -2.07366e-05 -6.31509e-06)
(-2.69655e-05 -1.74199e-05 -3.49603e-06)
(-2.79684e-05 -1.84094e-05 -2.54919e-06)
(-2.79796e-05 -1.81649e-05 -3.5141e-06)
(-2.88169e-05 -1.81775e-05 -5.83258e-06)
(-3.03386e-05 -1.96717e-05 -4.45405e-06)
(-2.88076e-05 -1.85407e-05 -4.42773e-06)
(-2.89866e-05 -1.9161e-05 -2.56093e-06)
(-3.00181e-05 -1.96702e-05 -3.54392e-06)
(-2.89973e-05 -1.89152e-05 -3.53002e-06)
(-3.20627e-05 -2.24187e-05 1.14647e-06)
(-3.10291e-05 -2.14074e-05 2.28057e-07)
(-3.20551e-05 -2.21745e-05 2.28494e-07)
(-3.41056e-05 -2.34696e-05 -6.98031e-07)
(-3.30778e-05 -2.24533e-05 -1.63639e-06)
(-3.30776e-05 -2.2699e-05 -6.96214e-07)
(-3.10245e-05 -2.11648e-05 -6.91815e-07)
(-3.20507e-05 -2.16859e-05 -1.63204e-06)
(-3.20504e-05 -2.19306e-05 -6.94148e-07)
(-2.69449e-05 -1.8139e-05 -6.79384e-07)
(-2.79609e-05 -1.86496e-05 -1.60702e-06)
(-2.796e-05 -1.88887e-05 -6.83002e-07)
(-2.89909e-05 -2.01224e-05 1.13473e-06)
(-3.0005e-05 -2.06433e-05 2.27442e-07)
(-2.89832e-05 -1.98829e-05 2.26635e-07)
(-2.89794e-05 -1.94026e-05 -1.61454e-06)
(-3.00004e-05 -2.04022e-05 -6.89193e-07)
(-2.89787e-05 -1.96433e-05 -6.86263e-07)
(-3.2393e-05 -2.08258e-05 -5.89827e-06)
(-3.085e-05 -2.00507e-05 -4.46146e-06)
(-3.23876e-05 -2.11933e-05 -4.48071e-06)
(-3.41203e-05 -2.27252e-05 -3.5819e-06)
(-3.30839e-05 -2.22072e-05 -2.59441e-06)
(-3.3093e-05 -2.19572e-05 -3.57478e-06)
(-3.10414e-05 -2.04292e-05 -3.55592e-06)
(-3.20571e-05 -2.14408e-05 -2.58787e-06)
(-3.20666e-05 -2.11917e-05 -3.56616e-06)
(-4.07574e-05 -2.69969e-05 -6.38063e-06)
(-3.9214e-05 -2.62026e-05 -4.95692e-06)
(-4.07629e-05 -2.73736e-05 -4.95968e-06)
(-4.28267e-05 -2.90692e-05 -4.46079e-06)
(-4.16238e-05 -2.84209e-05 -3.4586e-06)
(-4.16199e-05 -2.81683e-05 -4.40715e-06)
(-3.95334e-05 -2.65901e-05 -4.40213e-06)
(-4.05717e-05 -2.76244e-05 -3.45607e-06)
(-4.05665e-05 -2.73712e-05 -4.40391e-06)
(-3.54263e-05 -2.42424e-05 -1.55215e-06)
(-3.64581e-05 -2.47681e-05 -2.50715e-06)
(-3.64554e-05 -2.50159e-05 -1.55493e-06)
(-3.74693e-05 -2.62878e-05 3.77992e-07)
(-3.85054e-05 -2.68148e-05 -5.94329e-07)
(-3.74775e-05 -2.60387e-05 -5.93546e-07)
(-3.74864e-05 -2.55418e-05 -2.51035e-06)
(-3.85118e-05 -2.65658e-05 -1.55876e-06)
(-3.74839e-05 -2.57904e-05 -1.55712e-06)
(-3.7163e-05 -2.42844e-05 -6.37277e-06)
(-3.87008e-05 -2.58153e-05 -4.95578e-06)
(-3.71606e-05 -2.4655e-05 -4.95054e-06)
(-3.54228e-05 -2.3497e-05 -4.38539e-06)
(-3.64556e-05 -2.452e-05 -3.44539e-06)
(-3.6451e-05 -2.42683e-05 -4.39154e-06)
(-3.85059e-05 -2.58146e-05 -4.39973e-06)
(-3.74837e-05 -2.52932e-05 -3.44945e-06)
(-3.74787e-05 -2.50408e-05 -4.39626e-06)
(-4.28201e-05 -2.99516e-05 -1.10333e-06)
(-4.16253e-05 -2.86704e-05 -2.51628e-06)
(-4.16234e-05 -2.89214e-05 -1.56068e-06)
(-4.0559e-05 -2.86263e-05 3.78467e-07)
(-3.95336e-05 -2.75923e-05 -5.94776e-07)
(-4.05667e-05 -2.8375e-05 -5.94827e-07)
(-4.05744e-05 -2.78742e-05 -2.51534e-06)
(-3.95398e-05 -2.73427e-05 -1.55982e-06)
(-4.05723e-05 -2.81244e-05 -1.56029e-06)
(-4.06279e-05 -2.69046e-05 -6.35805e-06)
(-3.70366e-05 -2.41934e-05 -6.35334e-06)
(-4.06059e-05 -2.69969e-05 -5.9416e-06)
(-3.90625e-05 -2.62023e-05 -4.51833e-06)
(-4.06111e-05 -2.73734e-05 -4.52098e-06)
(-4.26812e-05 -2.9069e-05 -4.04133e-06)
(-4.13326e-05 -2.84211e-05 -2.6165e-06)
(-4.13414e-05 -2.81682e-05 -3.60205e-06)
(-3.92564e-05 -2.65896e-05 -3.60032e-06)
(-4.02814e-05 -2.76243e-05 -2.61609e-06)
(-4.02893e-05 -2.73709e-05 -3.60187e-06)
(-3.51338e-05 -2.42419e-05 -6.99611e-07)
(-3.61617e-05 -2.47673e-05 -1.64572e-06)
(-3.6162e-05 -2.50155e-05 -7.00972e-07)
(-3.72021e-05 -2.62881e-05 1.15493e-06)
(-3.82218e-05 -2.68149e-05 2.28358e-07)
(-3.71946e-05 -2.60388e-05 2.28606e-07)
(-3.71893e-05 -2.55413e-05 -1.64777e-06)
(-3.82168e-05 -2.65657e-05 -7.03097e-07)
(-3.71897e-05 -2.57902e-05 -7.02127e-07)
(-3.70116e-05 -2.42836e-05 -5.93514e-06)
(-3.85494e-05 -2.58148e-05 -4.51735e-06)
(-3.70095e-05 -2.46543e-05 -4.51284e-06)
(-3.51479e-05 -2.34952e-05 -3.58767e-06)
(-3.61672e-05 -2.45189e-05 -2.608e-06)
(-3.61755e-05 -2.42668e-05 -3.59224e-06)
(-3.82293e-05 -2.58138e-05 -3.59836e-06)
(-3.71946e-05 -2.52923e-05 -2.61086e-06)
(-3.72026e-05 -2.50397e-05 -3.59574e-06)
(-4.26736e-05 -2.99519e-05 -6.80006e-07)
(-4.13261e-05 -2.86707e-05 -1.65138e-06)
(-4.13267e-05 -2.89216e-05 -7.03356e-07)
(-4.029e-05 -2.86266e-05 1.15601e-06)
(-3.92495e-05 -2.75925e-05 2.28069e-07)
(-4.02821e-05 -2.83752e-05 2.28085e-07)
(-4.02759e-05 -2.78742e-05 -1.65161e-06)
(-3.92443e-05 -2.73427e-05 -7.03912e-07)
(-4.02764e-05 -2.81246e-05 -7.0436e-07)
(-2.59105e-05 -1.58742e-05 -6.42912e-06)
(-1.95314e-05 -1.13107e-05 -6.05569e-06)
(-4.2262e-05 -2.80621e-05 -6.66528e-06)
(-3.5599e-05 -2.30376e-05 -6.6405e-06)
(-1.23361e-05 -6.39343e-06 -5.25778e-06)
(-1.81151e-05 -1.03205e-05 -5.93638e-06)
(-1.24371e-05 -6.59586e-06 -4.91182e-06)
(-1.23435e-05 -6.47165e-06 -5.02717e-06)
(-1.24299e-05 -6.50674e-06 -5.18013e-06)
(-1.23267e-05 -6.57569e-06 -4.6344e-06)
(-1.82387e-05 -1.05331e-05 -5.56536e-06)
(-1.81287e-05 -1.04046e-05 -5.68067e-06)
(-1.86946e-05 -1.07635e-05 -5.90557e-06)
(-1.85871e-05 -1.08466e-05 -5.27671e-06)
(-1.82244e-05 -1.04364e-05 -5.86382e-06)
(-1.81171e-05 -1.05186e-05 -5.23979e-06)
(-1.87095e-05 -1.08606e-05 -5.60535e-06)
(-1.22497e-05 -6.37916e-06 -5.04502e-06)
(-1.80213e-05 -1.0311e-05 -5.68635e-06)
(-1.20884e-05 -6.54479e-06 -4.03158e-06)
(-1.22164e-05 -6.45137e-06 -4.71167e-06)
(-1.22029e-05 -6.55752e-06 -4.32175e-06)
(-1.21233e-05 -6.45888e-06 -4.41541e-06)
(-1.78573e-05 -1.04988e-05 -4.53276e-06)
(-1.79904e-05 -1.0391e-05 -5.31022e-06)
(-1.8451e-05 -1.08348e-05 -4.90647e-06)
(-1.83588e-05 -1.07326e-05 -4.99924e-06)
(-1.79817e-05 -1.05064e-05 -4.873e-06)
(-1.78903e-05 -1.04044e-05 -4.96599e-06)
(-1.8326e-05 -1.08276e-05 -4.56302e-06)
(-2.60542e-05 -1.60927e-05 -6.04646e-06)
(-2.593e-05 -1.59626e-05 -6.15696e-06)
(-2.65365e-05 -1.63562e-05 -6.38553e-06)
(-2.64272e-05 -1.64506e-05 -5.70045e-06)
(-2.6033e-05 -1.59904e-05 -6.36508e-06)
(-2.59238e-05 -1.60843e-05 -5.68239e-06)
(-2.6558e-05 -1.64587e-05 -6.06619e-06)
(-1.96594e-05 -1.15249e-05 -5.6811e-06)
(-1.95463e-05 -1.13959e-05 -5.79577e-06)
(-1.91677e-05 -1.10937e-05 -5.94583e-06)
(-1.906e-05 -1.11776e-05 -5.31228e-06)
(-1.96437e-05 -1.14269e-05 -5.98465e-06)
(-1.91831e-05 -1.11913e-05 -5.6439e-06)
(-1.95358e-05 -1.15117e-05 -5.34659e-06)
(-2.58112e-05 -1.58696e-05 -6.14924e-06)
(-1.94363e-05 -1.13022e-05 -5.79872e-06)
(-2.56477e-05 -1.60757e-05 -4.89196e-06)
(-2.57833e-05 -1.59559e-05 -5.7425e-06)
(-2.62824e-05 -1.64449e-05 -5.28846e-06)
(-2.61806e-05 -1.63413e-05 -5.37651e-06)
(-2.57794e-05 -1.60782e-05 -5.27228e-06)
(-2.5678e-05 -1.59747e-05 -5.36068e-06)
(-2.61504e-05 -1.64427e-05 -4.90639e-06)
(-1.92722e-05 -1.14942e-05 -4.62017e-06)
(-1.9406e-05 -1.13837e-05 -5.4151e-06)
(-1.89232e-05 -1.11663e-05 -4.93867e-06)
(-1.88303e-05 -1.10639e-05 -5.03125e-06)
(-1.87977e-05 -1.11594e-05 -4.59213e-06)
(-1.93983e-05 -1.15007e-05 -4.96973e-06)
(-1.93046e-05 -1.13982e-05 -5.06205e-06)
(-2.74226e-05 -1.69767e-05 -6.4855e-06)
(-3.40591e-05 -2.18853e-05 -6.62692e-06)
(-2.75692e-05 -1.71957e-05 -6.10238e-06)
(-2.70412e-05 -1.67237e-05 -6.40484e-06)
(-2.69318e-05 -1.68186e-05 -5.71748e-06)
(-2.7443e-05 -1.70656e-05 -6.21173e-06)
(-2.7063e-05 -1.68264e-05 -6.08481e-06)
(-2.7547e-05 -1.70927e-05 -6.42304e-06)
(-2.74376e-05 -1.71882e-05 -5.73355e-06)
(-3.42148e-05 -2.21051e-05 -6.24585e-06)
(-3.40824e-05 -2.19755e-05 -6.35033e-06)
(-3.47027e-05 -2.23837e-05 -6.57609e-06)
(-3.45935e-05 -2.24848e-05 -5.86917e-06)
(-3.41892e-05 -2.20002e-05 -6.57052e-06)
(-3.408e-05 -2.2101e-05 -5.86418e-06)
(-3.47285e-05 -2.24887e-05 -6.25138e-06)
(-2.73226e-05 -1.69728e-05 -6.20191e-06)
(-3.39573e-05 -2.1884e-05 -6.33329e-06)
(-2.71595e-05 -1.71814e-05 -4.93277e-06)
(-2.67867e-05 -1.68132e-05 -5.3037e-06)
(-2.66844e-05 -1.67096e-05 -5.39141e-06)
(-2.72953e-05 -1.70599e-05 -5.79182e-06)
(-2.66543e-05 -1.68113e-05 -4.91998e-06)
(-2.72921e-05 -1.71831e-05 -5.31806e-06)
(-2.71894e-05 -1.70795e-05 -5.40543e-06)
(-3.37959e-05 -2.21001e-05 -5.03528e-06)
(-3.39317e-05 -2.19736e-05 -5.91561e-06)
(-3.44446e-05 -2.24831e-05 -5.43849e-06)
(-3.43375e-05 -2.23798e-05 -5.52114e-06)
(-3.39312e-05 -2.20992e-05 -5.43411e-06)
(-3.38243e-05 -2.19958e-05 -5.51709e-06)
(-3.43092e-05 -2.24842e-05 -5.03908e-06)
(-4.24788e-05 -2.83238e-05 -6.29474e-06)
(-4.23363e-05 -2.81843e-05 -6.41397e-06)
(-4.29252e-05 -2.85696e-05 -6.64764e-06)
(-4.28279e-05 -2.86799e-05 -5.94527e-06)
(-4.24368e-05 -2.82068e-05 -6.61965e-06)
(-4.23557e-05 -2.83253e-05 -5.9324e-06)
(-4.29655e-05 -2.86888e-05 -6.3096e-06)
(-3.57561e-05 -2.32574e-05 -6.26059e-06)
(-3.56228e-05 -2.3128e-05 -6.36402e-06)
(-3.52163e-05 -2.27678e-05 -6.581e-06)
(-3.51072e-05 -2.28691e-05 -5.87359e-06)
(-3.573e-05 -2.31523e-05 -6.58529e-06)
(-3.52423e-05 -2.28728e-05 -6.25628e-06)
(-3.56208e-05 -2.32538e-05 -5.87747e-06)
(-4.21665e-05 -2.80663e-05 -6.37297e-06)
(-3.5497e-05 -2.30368e-05 -6.34572e-06)
(-4.2058e-05 -2.83232e-05 -5.07934e-06)
(-4.21914e-05 -2.8188e-05 -5.98051e-06)
(-4.26866e-05 -2.86811e-05 -5.53191e-06)
(-4.25718e-05 -2.85751e-05 -5.60417e-06)
(-4.22054e-05 -2.83259e-05 -5.49523e-06)
(-4.20755e-05 -2.82101e-05 -5.56106e-06)
(-4.25489e-05 -2.86873e-05 -5.11059e-06)
(-3.5336e-05 -2.3254e-05 -5.04533e-06)
(-3.54718e-05 -2.31267e-05 -5.9276e-06)
(-3.49581e-05 -2.28676e-05 -5.44235e-06)
(-3.48508e-05 -2.27643e-05 -5.52469e-06)
(-3.48226e-05 -2.28689e-05 -5.04242e-06)
(-3.54716e-05 -2.32526e-05 -5.44573e-06)
(-3.53641e-05 -2.31493e-05 -5.52776e-06)
(-4.2064e-05 -2.99708e-05 1.14203e-06)
(-4.26754e-05 -3.03299e-05 7.38954e-07)
(-4.21986e-05 -2.99666e-05 7.38583e-07)
(-4.25404e-05 -3.03327e-05 1.13846e-06)
(-2.34184e-05 -1.40732e-05 -6.31157e-06)
(-2.19442e-05 -1.30183e-05 -6.22583e-06)
(-3.97025e-05 -2.61271e-05 -6.65458e-06)
(-3.81647e-05 -2.49664e-05 -6.65224e-06)
(-1.44808e-05 -7.82717e-06 -5.55097e-06)
(-1.5817e-05 -8.73523e-06 -5.70729e-06)
(-1.45912e-05 -8.03418e-06 -5.19336e-06)
(-1.44908e-05 -7.90796e-06 -5.30931e-06)
(-1.50238e-05 -8.2409e-06 -5.529e-06)
(-1.49184e-05 -8.31642e-06 -4.94357e-06)
(-1.45811e-05 -7.9418e-06 -5.4749e-06)
(-1.50345e-05 -8.33388e-06 -5.24509e-06)
(-1.4476e-05 -8.01628e-06 -4.89564e-06)
(-1.59326e-05 -8.94458e-06 -5.34396e-06)
(-1.58283e-05 -8.81738e-06 -5.45986e-06)
(-1.54705e-05 -8.54382e-06 -5.5815e-06)
(-1.53647e-05 -8.62035e-06 -4.99003e-06)
(-1.59208e-05 -8.85046e-06 -5.63242e-06)
(-1.54817e-05 -8.63737e-06 -5.29525e-06)
(-1.58148e-05 -8.928e-06 -5.03513e-06)
(-1.43912e-05 -7.81479e-06 -5.32249e-06)
(-1.57256e-05 -8.72395e-06 -5.47021e-06)
(-1.42285e-05 -7.98981e-06 -4.24887e-06)
(-1.43588e-05 -7.89035e-06 -4.97065e-06)
(-1.47887e-05 -8.30109e-06 -4.60382e-06)
(-1.47032e-05 -8.20058e-06 -4.69766e-06)