/*--------------------------------*- C++ -*----------------------------------*\
| =========                 |                                                 |
| \\      /  F ield         | OpenFOAM: The Open Source CFD Toolbox           |
|  \\    /   O peration     | Version:  2012                                  |
|   \\  /    A nd           | Website:  www.openfoam.com                      |
|    \\/     M anipulation  |                                                 |
\*---------------------------------------------------------------------------*/
FoamFile
{
    version     2.0;
    format      ascii;
    class       volVectorField;
    location    "0.106/solid";
    object      D_0_0_0;
}
// * * * * * * * * * * * * * * * * * * * * * * * * * * * * * * * * * * * * * //

dimensions      [0 1 0 0 0 0 0];


internalField   nonuniform List<vector> 
3125
(
(-3.19381e-05 -1.77127e-05 -7.77877e-06)
(-2.30365e-05 -1.22519e-05 -7.2612e-06)
(-5.16386e-05 -3.00205e-05 -8.10856e-06)
(-4.24336e-05 -2.4241e-05 -8.00296e-06)
(-2.24653e-05 -1.19045e-05 -7.21346e-06)
(-2.21373e-05 -1.30587e-05 4.8673e-07)
(-1.45549e-05 -8.42806e-06 4.31649e-07)
(-2.24731e-05 -1.19731e-05 -6.89242e-06)
(-2.23896e-05 -1.18934e-05 -6.94812e-06)
(-2.19578e-05 -1.30627e-05 1.18705e-06)
(-1.43943e-05 -8.43429e-06 1.04526e-06)
(-2.23616e-05 -1.19572e-05 -6.4996e-06)
(-3.19517e-05 -1.77817e-05 -7.43608e-06)
(-2.32869e-05 -1.37648e-05 4.92681e-07)
(-2.30447e-05 -1.23206e-05 -6.93824e-06)
(-3.16421e-05 -1.89223e-05 5.22458e-07)
(-3.18609e-05 -1.77073e-05 -7.49047e-06)
(-2.29607e-05 -1.22412e-05 -6.99393e-06)
(-3.18377e-05 -1.7774e-05 -7.00933e-06)
(-2.31053e-05 -1.37686e-05 1.20241e-06)
(-2.2933e-05 -1.23053e-05 -6.54258e-06)
(-3.14488e-05 -1.89244e-05 1.27983e-06)
(-3.2548e-05 -1.80896e-05 -7.80126e-06)
(-4.18123e-05 -2.38522e-05 -7.99759e-06)
(-3.2562e-05 -1.81586e-05 -7.45778e-06)
(-4.15453e-05 -2.509e-05 5.35839e-07)
(-3.28674e-05 -1.96823e-05 5.25174e-07)
(-4.18297e-05 -2.39209e-05 -7.64878e-06)
(-3.24709e-05 -1.80846e-05 -7.51203e-06)
(-4.17349e-05 -2.38508e-05 -7.69998e-06)
(-3.24479e-05 -1.81514e-05 -7.02965e-06)
(-4.13447e-05 -2.50907e-05 1.31586e-06)
(-3.26729e-05 -1.96841e-05 1.287e-06)
(-4.17152e-05 -2.39188e-05 -7.20822e-06)
(-5.17877e-05 -3.01641e-05 -7.80606e-06)
(-4.2791e-05 -2.58701e-05 5.36421e-07)
(-4.24511e-05 -2.43097e-05 -7.65415e-06)
(-5.15728e-05 -3.00288e-05 -7.80315e-06)
(-4.23562e-05 -2.42398e-05 -7.7051e-06)
(-5.1688e-05 -3.01704e-05 -7.38177e-06)
(-4.25898e-05 -2.58707e-05 1.31756e-06)
(-4.23366e-05 -2.43079e-05 -7.21321e-06)
(-2.7717e-05 -1.51132e-05 -7.58139e-06)
(-2.71224e-05 -1.47483e-05 -7.54714e-06)
(-4.74012e-05 -2.73605e-05 -8.02369e-06)
(-4.67808e-05 -2.69699e-05 -8.0228e-06)
(-1.80355e-05 -9.22634e-06 -6.76544e-06)
(-1.85742e-05 -9.5504e-06 -6.82806e-06)
(-1.45996e-05 -7.82364e-06 -3.1759e-06)
(-1.80397e-05 -9.29404e-06 -6.46252e-06)
(-1.77323e-05 -9.70136e-06 -3.39597e-06)
(-1.87784e-05 -1.10012e-05 4.66066e-07)
(-2.21606e-05 -1.25578e-05 -2.61554e-06)
(-1.88037e-05 -1.05205e-05 -2.48986e-06)
(-1.45832e-05 -7.97997e-06 -2.28262e-06)
(-1.76927e-05 -1.03382e-05 4.58213e-07)
(-1.77188e-05 -9.86495e-06 -2.44241e-06)
(-1.8579e-05 -9.61823e-06 -6.52258e-06)
(-2.21704e-05 -1.23864e-05 -3.63413e-06)
(-1.88163e-05 -1.03548e-05 -3.46129e-06)
(-1.79613e-05 -9.21178e-06 -6.51811e-06)
(-1.84998e-05 -9.53628e-06 -6.57821e-06)
(-1.44119e-05 -7.79985e-06 -2.52249e-06)
(-1.79306e-05 -9.27335e-06 -6.09631e-06)
(-1.75371e-05 -9.68125e-06 -2.69558e-06)
(-1.86061e-05 -1.10062e-05 1.13381e-06)
(-2.19543e-05 -1.25471e-05 -1.84207e-06)
(-1.86039e-05 -1.05074e-05 -1.75384e-06)
(-1.43941e-05 -7.96349e-06 -1.60867e-06)
(-1.75231e-05 -1.03434e-05 1.1136e-06)
(-1.75214e-05 -9.85101e-06 -1.72056e-06)
(-1.84695e-05 -9.59818e-06 -6.15265e-06)
(-2.19673e-05 -1.23709e-05 -2.88307e-06)
(-1.86189e-05 -1.03359e-05 -2.74698e-06)
(-2.77284e-05 -1.51821e-05 -7.24594e-06)
(-3.16643e-05 -1.82011e-05 -3.94162e-06)
(-2.80318e-05 -1.59665e-05 -3.85044e-06)
(-2.33096e-05 -1.3258e-05 -2.65208e-06)
(-2.68103e-05 -1.59344e-05 5.07889e-07)
(-2.6831e-05 -1.54118e-05 -2.74656e-06)
(-2.71334e-05 -1.48173e-05 -7.213e-06)
(-2.33185e-05 -1.3085e-05 -3.68431e-06)
(-2.68376e-05 -1.52344e-05 -3.8139e-06)
(-3.16605e-05 -1.8383e-05 -2.84004e-06)
(-2.80059e-05 -1.66724e-05 5.12114e-07)
(-2.8026e-05 -1.61452e-05 -2.77325e-06)
(-2.76403e-05 -1.51055e-05 -7.30117e-06)
(-2.70458e-05 -1.47403e-05 -7.26831e-06)
(-2.76151e-05 -1.51711e-05 -6.83113e-06)
(-3.14511e-05 -1.81934e-05 -3.12563e-06)
(-2.78217e-05 -1.59562e-05 -3.0536e-06)
(-2.31014e-05 -1.3248e-05 -1.86776e-06)
(-2.6623e-05 -1.59374e-05 1.24179e-06)
(-2.6618e-05 -1.54039e-05 -1.93432e-06)
(-2.70203e-05 -1.48058e-05 -6.80025e-06)
(-2.31138e-05 -1.30706e-05 -2.92261e-06)
(-2.66286e-05 -1.52231e-05 -3.02477e-06)
(-3.14425e-05 -1.83777e-05 -2.00049e-06)
(-2.7817e-05 -1.66752e-05 1.25278e-06)
(-2.78116e-05 -1.6138e-05 -1.95317e-06)
(-3.68516e-05 -2.07582e-05 -7.92313e-06)
(-3.74701e-05 -2.11429e-05 -7.93587e-06)
(-3.28884e-05 -1.89566e-05 -3.96627e-06)
(-3.68674e-05 -2.0827e-05 -7.57579e-06)
(-3.6589e-05 -2.12479e-05 -4.02479e-06)
(-3.78122e-05 -2.27581e-05 5.32863e-07)
(-4.15603e-05 -2.45298e-05 -2.937e-06)
(-3.78283e-05 -2.22039e-05 -2.91248e-06)
(-3.28853e-05 -1.91394e-05 -2.85817e-06)
(-3.65711e-05 -2.19847e-05 5.31383e-07)
(-3.65876e-05 -2.1433e-05 -2.90143e-06)
(-3.74861e-05 -2.12117e-05 -7.58819e-06)
(-4.15599e-05 -2.43426e-05 -4.07219e-06)
(-3.78292e-05 -2.20182e-05 -4.03963e-06)
(-3.67743e-05 -2.07551e-05 -7.6288e-06)
(-3.73927e-05 -2.114e-05 -7.641e-06)
(-3.26744e-05 -1.89498e-05 -3.14513e-06)
(-3.6753e-05 -2.08226e-05 -7.14011e-06)
(-3.63729e-05 -2.12433e-05 -3.19154e-06)
(-3.76136e-05 -2.27592e-05 1.30757e-06)
(-4.13365e-05 -2.45283e-05 -2.0703e-06)
(-3.76061e-05 -2.22012e-05 -2.05236e-06)
(-3.26664e-05 -1.91347e-05 -2.01339e-06)
(-3.63734e-05 -2.1986e-05 1.30355e-06)
(-3.63661e-05 -2.14298e-05 -2.04437e-06)
(-3.73717e-05 -2.12076e-05 -7.1517e-06)
(-4.13419e-05 -2.43404e-05 -3.22937e-06)
(-3.76125e-05 -2.20142e-05 -3.20335e-06)
(-4.74199e-05 -2.74291e-05 -7.67583e-06)
(-5.17886e-05 -3.08543e-05 -3.6042e-06)
(-4.77809e-05 -2.82436e-05 -4.09599e-06)
(-4.28056e-05 -2.53084e-05 -2.94266e-06)
(-4.65249e-05 -2.82147e-05 5.37343e-07)
(-4.65387e-05 -2.76495e-05 -2.95358e-06)
(-4.67993e-05 -2.70385e-05 -7.67475e-06)
(-4.28048e-05 -2.51208e-05 -4.07958e-06)
(-4.6537e-05 -2.74611e-05 -4.09357e-06)
(-5.17879e-05 -3.09491e-05 -3.02644e-06)
(-4.77693e-05 -2.89983e-05 5.37545e-07)
(-4.77827e-05 -2.84322e-05 -2.95545e-06)
(-4.73238e-05 -2.73603e-05 -7.72466e-06)
(-4.67035e-05 -2.69696e-05 -7.72385e-06)
(-4.73053e-05 -2.74286e-05 -7.23315e-06)
(-5.16781e-05 -3.08546e-05 -3.17711e-06)
(-4.75618e-05 -2.82432e-05 -3.24899e-06)
(-4.25814e-05 -2.53071e-05 -2.07452e-06)
(-4.63225e-05 -2.82151e-05 1.32024e-06)
(-4.63136e-05 -2.76491e-05 -2.08293e-06)
(-4.66848e-05 -2.70379e-05 -7.23219e-06)
(-4.25865e-05 -2.5119e-05 -3.23532e-06)
(-4.63181e-05 -2.74604e-05 -3.24678e-06)
(-5.16765e-05 -3.09494e-05 -2.59621e-06)
(-4.75666e-05 -2.89986e-05 1.32052e-06)
(-4.75574e-05 -2.8432e-05 -2.08462e-06)
(-3.01177e-05 -1.65895e-05 -7.70298e-06)
(-2.47699e-05 -1.33087e-05 -7.39388e-06)
(-4.98925e-05 -2.89315e-05 -8.02478e-06)
(-4.42975e-05 -2.54093e-05 -8.01489e-06)
(-1.59291e-05 -7.96475e-06 -6.49532e-06)
(-2.07735e-05 -1.08782e-05 -7.05944e-06)
(-1.59315e-05 -8.03181e-06 -6.20349e-06)
(-1.5881e-05 -8.28752e-06 -4.78761e-06)
(-2.10018e-05 -1.23622e-05 4.80316e-07)
(-2.21427e-05 -1.28934e-05 -5.5345e-07)
(-2.10071e-05 -1.21992e-05 -5.44475e-07)
(-1.45596e-05 -8.28154e-06 -4.77707e-07)
(-1.55797e-05 -9.05079e-06 4.41011e-07)
(-1.55845e-05 -8.90116e-06 -4.90438e-07)
(-2.07801e-05 -1.09465e-05 -6.74457e-06)
(-2.24386e-05 -1.22412e-05 -5.32631e-06)
(-2.07416e-05 -1.1212e-05 -5.21011e-06)
(-1.5856e-05 -7.94839e-06 -6.25883e-06)
(-2.06983e-05 -1.08658e-05 -6.8003e-06)
(-1.58239e-05 -8.00857e-06 -5.85329e-06)
(-1.57776e-05 -8.27003e-06 -4.43663e-06)
(-2.08246e-05 -1.23666e-05 1.17051e-06)
(-2.19507e-05 -1.28927e-05 1.86083e-07)
(-2.08174e-05 -1.21984e-05 1.84199e-07)
(-1.43864e-05 -8.28038e-06 1.68922e-07)
(-1.5416e-05 -9.0567e-06 1.06935e-06)
(-1.54082e-05 -8.90007e-06 1.7196e-07)
(-2.06693e-05 -1.09289e-05 -6.36092e-06)
(-2.23299e-05 -1.22292e-05 -4.9332e-06)
(-2.0634e-05 -1.11987e-05 -4.82604e-06)
(-3.01303e-05 -1.66586e-05 -7.36299e-06)
(-3.19348e-05 -1.80585e-05 -5.75504e-06)
(-3.01103e-05 -1.69342e-05 -5.6967e-06)
(-2.32924e-05 -1.35974e-05 -5.61849e-07)
(-2.44497e-05 -1.44799e-05 4.98185e-07)
(-2.44553e-05 -1.43105e-05 -5.69687e-07)
(-2.47794e-05 -1.33775e-05 -7.06569e-06)
(-2.30112e-05 -1.25893e-05 -5.36192e-06)
(-2.47497e-05 -1.36485e-05 -5.46231e-06)
(-3.16481e-05 -1.87431e-05 -6.05841e-07)
(-3.04227e-05 -1.8167e-05 5.19385e-07)
(-3.04287e-05 -1.79892e-05 -6.01022e-07)
(-3.00407e-05 -1.65832e-05 -7.4178e-06)
(-2.46937e-05 -1.32991e-05 -7.12126e-06)
(-3.00166e-05 -1.66495e-05 -6.94085e-06)
(-3.18221e-05 -1.80527e-05 -5.32837e-06)
(-2.99982e-05 -1.69273e-05 -5.27458e-06)
(-2.30983e-05 -1.35967e-05 1.87789e-07)
(-2.42661e-05 -1.44835e-05 1.21664e-06)
(-2.42592e-05 -1.43099e-05 1.89319e-07)
(-2.4667e-05 -1.33639e-05 -6.66211e-06)
(-2.29022e-05 -1.25778e-05 -4.96599e-06)
(-2.46397e-05 -1.36382e-05 -5.05857e-06)
(-3.14426e-05 -1.87428e-05 1.95066e-07)
(-3.02309e-05 -1.81693e-05 1.27176e-06)
(-3.02245e-05 -1.79888e-05 1.94493e-07)
(-3.4386e-05 -1.92275e-05 -7.86084e-06)
(-3.99493e-05 -2.2688e-05 -7.97663e-06)
(-3.25458e-05 -1.84357e-05 -5.7722e-06)
(-3.44008e-05 -1.92964e-05 -7.51537e-06)
(-3.43875e-05 -1.95745e-05 -5.81858e-06)
(-4.03e-05 -2.43111e-05 5.35068e-07)
(-4.15517e-05 -2.49032e-05 -6.30372e-07)
(-4.03063e-05 -2.41249e-05 -6.28478e-07)
(-3.28735e-05 -1.95018e-05 -6.10225e-07)
(-3.40979e-05 -2.04463e-05 5.27558e-07)
(-3.4104e-05 -2.02647e-05 -6.14189e-07)
(-3.99662e-05 -2.27567e-05 -7.62805e-06)
(-4.18247e-05 -2.4201e-05 -5.92881e-06)
(-3.99593e-05 -2.30364e-05 -5.91087e-06)
(-3.43087e-05 -1.92233e-05 -7.56914e-06)
(-3.98719e-05 -2.26861e-05 -7.67998e-06)
(-3.2433e-05 -1.84302e-05 -5.34416e-06)
(-3.42866e-05 -1.92905e-05 -7.08358e-06)
(-3.42743e-05 -1.95699e-05 -5.38691e-06)
(-4.00999e-05 -2.43119e-05 1.31367e-06)
(-4.13391e-05 -2.49032e-05 1.9527e-07)
(-4.00943e-05 -2.41249e-05 1.95577e-07)
(-3.26668e-05 -1.95015e-05 1.95499e-07)
(-3.39023e-05 -2.0448e-05 1.29331e-06)
(-3.38962e-05 -2.02645e-05 1.95798e-07)
(-3.98517e-05 -2.27539e-05 -7.18892e-06)
(-4.17106e-05 -2.41993e-05 -5.4884e-06)
(-3.98453e-05 -2.30342e-05 -5.47189e-06)
(-4.99181e-05 -2.90036e-05 -7.68157e-06)
(-5.1798e-05 -3.04722e-05 -5.96308e-06)
(-4.99286e-05 -2.92919e-05 -5.95983e-06)
(-4.27973e-05 -2.56826e-05 -6.31992e-07)
(-4.40363e-05 -2.6651e-05 5.36843e-07)
(-4.40427e-05 -2.64631e-05 -6.33347e-07)
(-4.43155e-05 -2.54779e-05 -7.66626e-06)
(-4.24465e-05 -2.45898e-05 -5.9335e-06)
(-4.43124e-05 -2.57584e-05 -5.94477e-06)
(-5.17839e-05 -3.13287e-05 -7.13567e-07)
(-5.02994e-05 -3.04019e-05 -6.3617e-07)
(-4.98158e-05 -2.89318e-05 -7.7252e-06)
(-4.42201e-05 -2.54086e-05 -7.71642e-06)
(-4.98041e-05 -2.90039e-05 -7.23807e-06)
(-5.1684e-05 -3.04719e-05 -5.5251e-06)
(-4.9814e-05 -2.92917e-05 -5.51739e-06)
(-4.25842e-05 -2.56827e-05 1.94913e-07)
(-4.38347e-05 -2.66515e-05 1.31881e-06)
(-4.38291e-05 -2.64631e-05 1.94521e-07)
(-4.42009e-05 -2.54767e-05 -7.22442e-06)
(-4.23323e-05 -2.45883e-05 -5.49271e-06)
(-4.41981e-05 -2.57574e-05 -5.50307e-06)
(-5.16746e-05 -3.1329e-05 -2.91813e-07)
(-5.00839e-05 -3.04022e-05 1.95673e-07)
(-2.95144e-05 -1.6218e-05 -7.67484e-06)
(-2.53539e-05 -1.36655e-05 -7.43468e-06)
(-4.92657e-05 -2.85359e-05 -8.0246e-06)
(-4.49186e-05 -2.57992e-05 -8.01762e-06)
(-1.64481e-05 -8.27474e-06 -6.56582e-06)
(-2.02174e-05 -1.05417e-05 -7.00443e-06)
(-1.46203e-05 -7.66002e-06 -4.08245e-06)
(-1.56227e-05 -8.43499e-06 -3.25335e-06)
(-1.5642e-05 -8.26905e-06 -4.1812e-06)
(-1.64509e-05 -8.34198e-06 -6.27109e-06)
(-1.79948e-05 -9.55457e-06 -4.98989e-06)
(-1.64017e-05 -8.59885e-06 -4.8399e-06)
(-1.66674e-05 -9.06117e-06 -3.32669e-06)
(-1.7749e-05 -9.53121e-06 -4.36297e-06)
(-1.66854e-05 -8.89305e-06 -4.27467e-06)
(-1.98818e-05 -1.16761e-05 4.73431e-07)
(-1.87835e-05 -1.08431e-05 -5.24732e-07)
(-1.9887e-05 -1.15155e-05 -5.34906e-07)
(-2.21511e-05 -1.27268e-05 -1.58777e-06)
(-2.10258e-05 -1.18677e-05 -2.57637e-06)
(-2.10158e-05 -1.20347e-05 -1.56358e-06)
(-1.87926e-05 -1.06832e-05 -1.51022e-06)
(-1.99065e-05 -1.11883e-05 -2.5345e-06)
(-1.98959e-05 -1.13532e-05 -1.53774e-06)
(-1.45697e-05 -8.13248e-06 -1.38257e-06)
(-1.56073e-05 -8.59389e-06 -2.33884e-06)
(-1.55944e-05 -8.74916e-06 -1.41718e-06)
(-1.66261e-05 -9.68775e-06 4.49863e-07)
(-1.76977e-05 -1.01827e-05 -5.13937e-07)
(-1.6631e-05 -9.53516e-06 -5.0251e-07)
(-1.66529e-05 -9.22248e-06 -2.39209e-06)
(-1.77071e-05 -1.00253e-05 -1.48097e-06)
(-1.66406e-05 -9.38037e-06 -1.44997e-06)
(-2.02235e-05 -1.06099e-05 -6.69179e-06)
(-1.85352e-05 -9.87975e-06 -5.03641e-06)
(-2.01839e-05 -1.08746e-05 -5.16916e-06)
(-2.21823e-05 -1.22094e-05 -4.66614e-06)
(-2.10365e-05 -1.16981e-05 -3.58028e-06)
(-2.10496e-05 -1.15226e-05 -4.59765e-06)
(-1.88318e-05 -1.01827e-05 -4.44616e-06)
(-1.99181e-05 -1.10206e-05 -3.5227e-06)
(-1.99323e-05 -1.08467e-05 -4.52436e-06)
(-1.63746e-05 -8.25883e-06 -6.3265e-06)
(-2.01424e-05 -1.05289e-05 -6.7475e-06)
(-1.44374e-05 -7.63116e-06 -3.46016e-06)
(-1.54323e-05 -8.41245e-06 -2.58339e-06)
(-1.54569e-05 -8.2417e-06 -3.54299e-06)
(-1.63429e-05 -8.31939e-06 -5.9167e-06)
(-1.78893e-05 -9.53899e-06 -4.62309e-06)
(-1.62978e-05 -8.58188e-06 -4.48477e-06)
(-1.64745e-05 -9.03985e-06 -2.64107e-06)
(-1.75596e-05 -9.50681e-06 -3.69548e-06)
(-1.6498e-05 -8.86719e-06 -3.6214e-06)
(-1.9707e-05 -1.16808e-05 1.15277e-06)
(-1.85986e-05 -1.08422e-05 1.79878e-07)
(-1.96996e-05 -1.15147e-05 1.82132e-07)
(-2.19491e-05 -1.27211e-05 -8.19982e-07)
(-2.08215e-05 -1.18562e-05 -1.81455e-06)
(-2.0816e-05 -1.20286e-05 -8.0722e-07)
(-1.85975e-05 -1.06763e-05 -7.79165e-07)
(-1.97043e-05 -1.1176e-05 -1.78515e-06)
(-1.96984e-05 -1.13467e-05 -7.9362e-07)
(-1.4386e-05 -8.12377e-06 -7.12451e-07)
(-1.54152e-05 -8.57826e-06 -1.64801e-06)
(-1.54076e-05 -8.74091e-06 -7.30493e-07)
(-1.64593e-05 -9.69335e-06 1.09213e-06)
(-1.75155e-05 -1.01818e-05 1.77434e-07)
(-1.64516e-05 -9.53413e-06 1.74796e-07)
(-1.64581e-05 -9.20771e-06 -1.6853e-06)
(-1.75146e-05 -1.0018e-05 -7.63836e-07)
(-1.64509e-05 -9.37257e-06 -7.47617e-07)
(-2.0113e-05 -1.05917e-05 -6.3114e-06)
(-1.84293e-05 -9.86466e-06 -4.66591e-06)
(-2.00767e-05 -1.08608e-05 -4.78834e-06)
(-2.19861e-05 -1.21906e-05 -3.9499e-06)
(-2.08352e-05 -1.16815e-05 -2.84066e-06)
(-2.08549e-05 -1.15024e-05 -3.89241e-06)
(-1.86405e-05 -1.01597e-05 -3.76529e-06)
(-1.97187e-05 -1.10028e-05 -2.79532e-06)
(-1.97393e-05 -1.08252e-05 -3.83091e-06)
(-2.95268e-05 -1.6287e-05 -7.33589e-06)
(-2.77041e-05 -1.54559e-05 -5.60403e-06)
(-2.95059e-05 -1.65624e-05 -5.67541e-06)
(-3.1668e-05 -1.80151e-05 -5.05597e-06)
(-3.04461e-05 -1.74505e-05 -3.91418e-06)
(-3.04508e-05 -1.72653e-05 -5.02135e-06)
(-2.80384e-05 -1.57833e-05 -4.94075e-06)
(-2.9235e-05 -1.67054e-05 -3.88383e-06)
(-2.92406e-05 -1.65212e-05 -4.983e-06)
(-2.33006e-05 -1.34288e-05 -1.61035e-06)
(-2.44717e-05 -1.39675e-05 -2.68605e-06)
(-2.44633e-05 -1.414e-05 -1.63136e-06)
(-2.56245e-05 -1.52033e-05 5.0325e-07)
(-2.6816e-05 -1.57613e-05 -5.8374e-07)
(-2.56302e-05 -1.5032e-05 -5.76978e-07)
(-2.56459e-05 -1.46857e-05 -2.71751e-06)
(-2.68235e-05 -1.55874e-05 -1.66885e-06)
(-2.56379e-05 -1.48598e-05 -1.65084e-06)
(-2.53637e-05 -1.37343e-05 -7.10489e-06)
(-2.71082e-05 -1.50907e-05 -5.57828e-06)
(-2.5335e-05 -1.40058e-05 -5.49285e-06)
(-2.33293e-05 -1.29065e-05 -4.72995e-06)
(-2.44799e-05 -1.37929e-05 -3.73094e-06)
(-2.44895e-05 -1.36131e-05 -4.78918e-06)
(-2.68451e-05 -1.50522e-05 -4.89445e-06)
(-2.56532e-05 -1.45096e-05 -3.7741e-06)
(-2.56618e-05 -1.43285e-05 -4.84397e-06)
(-3.16548e-05 -1.85636e-05 -1.72703e-06)
(-3.04417e-05 -1.76314e-05 -2.81991e-06)
(-3.04356e-05 -1.78109e-05 -1.71446e-06)
(-2.92104e-05 -1.74168e-05 5.15943e-07)
(-2.80117e-05 -1.64976e-05 -5.8999e-07)
(-2.92162e-05 -1.72405e-05 -5.95743e-07)
(-2.92299e-05 -1.68853e-05 -2.79768e-06)
(-2.8019e-05 -1.63222e-05 -1.68542e-06)
(-2.92234e-05 -1.70636e-05 -1.70061e-06)
(-2.94375e-05 -1.62114e-05 -7.39081e-06)
(-2.52776e-05 -1.36563e-05 -7.16041e-06)
(-2.94132e-05 -1.62775e-05 -6.91545e-06)
(-2.75928e-05 -1.54476e-05 -5.18917e-06)
(-2.9394e-05 -1.65551e-05 -5.25499e-06)
(-3.14634e-05 -1.80058e-05 -4.27719e-06)
(-3.02339e-05 -1.7442e-05 -3.10394e-06)
(-3.02469e-05 -1.7255e-05 -4.24811e-06)
(-2.78362e-05 -1.57707e-05 -4.18042e-06)
(-2.90238e-05 -1.6696e-05 -3.07996e-06)
(-2.90375e-05 -1.65097e-05 -4.2159e-06)
(-2.30966e-05 -1.34235e-05 -8.31926e-07)
(-2.42618e-05 -1.39583e-05 -1.89167e-06)
(-2.42574e-05 -1.41351e-05 -8.43074e-07)
(-2.5439e-05 -1.52066e-05 1.22976e-06)
(-2.66163e-05 -1.57608e-05 1.91869e-07)
(-2.54323e-05 -1.50315e-05 1.90678e-07)
(-2.54344e-05 -1.46771e-05 -1.91384e-06)
(-2.66142e-05 -1.55833e-05 -8.63069e-07)
(-2.54303e-05 -1.48553e-05 -8.53447e-07)
(-2.52511e-05 -1.37213e-05 -6.69887e-06)
(-2.69972e-05 -1.50819e-05 -5.16546e-06)
(-2.52247e-05 -1.3996e-05 -5.08668e-06)
(-2.31317e-05 -1.2889e-05 -4.00346e-06)
(-2.42736e-05 -1.37796e-05 -2.95936e-06)
(-2.42906e-05 -1.35969e-05 -4.05318e-06)
(-2.6644e-05 -1.50384e-05 -4.14156e-06)
(-2.54456e-05 -1.44973e-05 -2.99339e-06)
(-2.54617e-05 -1.43136e-05 -4.09918e-06)
(-3.144e-05 -1.85609e-05 -8.94539e-07)
(-3.02249e-05 -1.76255e-05 -1.9862e-06)
(-3.0222e-05 -1.78078e-05 -8.87672e-07)
(-2.90199e-05 -1.74193e-05 1.26276e-06)
(-2.78104e-05 -1.64972e-05 1.929e-07)
(-2.90135e-05 -1.72401e-05 1.93772e-07)
(-2.90142e-05 -1.68787e-05 -1.97044e-06)
(-2.78082e-05 -1.63184e-05 -8.71963e-07)
(-2.90111e-05 -1.70602e-05 -8.80155e-07)
(-3.5001e-05 -1.96088e-05 -7.87818e-06)
(-3.93288e-05 -2.23009e-05 -7.9679e-06)
(-3.28914e-05 -1.87699e-05 -5.08701e-06)
(-3.41178e-05 -1.97166e-05 -3.98825e-06)
(-3.412e-05 -1.95293e-05 -5.11463e-06)
(-3.50161e-05 -1.96778e-05 -7.53217e-06)
(-3.68573e-05 -2.1106e-05 -5.86759e-06)
(-3.50034e-05 -1.9956e-05 -5.83199e-06)
(-3.53516e-05 -2.04806e-05 -4.00772e-06)
(-3.65896e-05 -2.10593e-05 -5.16032e-06)
(-3.5353e-05 -2.02926e-05 -5.13901e-06)
(-3.90554e-05 -2.35337e-05 5.34085e-07)
(-3.78184e-05 -2.25734e-05 -6.23786e-07)
(-3.90617e-05 -2.33482e-05 -6.26289e-07)
(-4.15573e-05 -2.47167e-05 -1.78847e-06)
(-4.03153e-05 -2.37527e-05 -2.93016e-06)
(-4.0312e-05 -2.39391e-05 -1.78402e-06)
(-3.78244e-05 -2.2389e-05 -1.77267e-06)
(-3.90711e-05 -2.29773e-05 -2.92202e-06)
(-3.90675e-05 -2.3163e-05 -1.77877e-06)
(-3.28801e-05 -1.93212e-05 -1.73838e-06)
(-3.41153e-05 -1.99003e-05 -2.87437e-06)
(-3.41105e-05 -2.00829e-05 -1.74855e-06)
(-3.53327e-05 -2.12139e-05 5.2962e-07)
(-3.65773e-05 -2.1801e-05 -6.20947e-07)
(-3.53389e-05 -2.10312e-05 -6.17756e-07)
(-3.53497e-05 -2.06649e-05 -2.88876e-06)
(-3.65834e-05 -2.16173e-05 -1.76564e-06)
(-3.53452e-05 -2.08485e-05 -1.75762e-06)
(-3.93455e-05 -2.23696e-05 -7.61948e-06)
(-3.74765e-05 -2.14908e-05 -5.87764e-06)
(-3.93382e-05 -2.26493e-05 -5.90373e-06)
(-4.15582e-05 -2.41524e-05 -5.21874e-06)
(-4.03153e-05 -2.35659e-05 -4.06317e-06)
(-4.03141e-05 -2.33761e-05 -5.20776e-06)
(-3.78292e-05 -2.18291e-05 -5.17875e-06)
(-3.90715e-05 -2.2791e-05 -4.05237e-06)
(-3.90709e-05 -2.26015e-05 -5.1945e-06)
(-3.49237e-05 -1.96049e-05 -7.58575e-06)
(-3.92514e-05 -2.22987e-05 -7.67163e-06)
(-3.26861e-05 -1.87616e-05 -4.30326e-06)
(-3.39031e-05 -1.97106e-05 -3.16255e-06)
(-3.3914e-05 -1.95219e-05 -4.32646e-06)
(-3.49018e-05 -1.96722e-05 -7.0993e-06)
(-3.67437e-05 -2.11025e-05 -5.43205e-06)
(-3.48901e-05 -1.99516e-05 -5.39925e-06)
(-3.51362e-05 -2.04753e-05 -3.17798e-06)
(-3.63827e-05 -2.10537e-05 -4.36486e-06)
(-3.51465e-05 -2.02861e-05 -4.34695e-06)
(-3.8856e-05 -2.35346e-05 1.31093e-06)
(-3.76079e-05 -2.25733e-05 1.95967e-07)
(-3.88503e-05 -2.33481e-05 1.95816e-07)
(-4.13358e-05 -2.47159e-05 -9.2961e-07)
(-4.0092e-05 -2.37508e-05 -2.06525e-06)
(-4.00911e-05 -2.39381e-05 -9.26883e-07)
(-3.76048e-05 -2.23876e-05 -9.20154e-07)
(-3.88483e-05 -2.2975e-05 -2.05929e-06)
(-3.88472e-05 -2.31618e-05 -9.2374e-07)
(-3.26641e-05 -1.93187e-05 -9.00786e-07)
(-3.38955e-05 -1.98961e-05 -2.02496e-06)
(-3.38935e-05 -2.00808e-05 -9.06441e-07)
(-3.5136e-05 -2.12154e-05 1.29882e-06)
(-3.63675e-05 -2.18008e-05 1.96022e-07)
(-3.51301e-05 -2.1031e-05 1.95969e-07)
(-3.5129e-05 -2.06613e-05 -2.03526e-06)
(-3.63646e-05 -2.16157e-05 -9.16095e-07)
(-3.51272e-05 -2.08466e-05 -9.11534e-07)
(-3.9231e-05 -2.23665e-05 -7.18092e-06)
(-3.73628e-05 -2.14875e-05 -5.4413e-06)
(-3.92242e-05 -2.26468e-05 -5.46533e-06)
(-4.13498e-05 -2.41496e-05 -4.41401e-06)
(-4.00977e-05 -2.35632e-05 -3.22214e-06)
(-4.0106e-05 -2.33727e-05 -4.40476e-06)
(-3.76218e-05 -2.18243e-05 -4.38036e-06)
(-3.88544e-05 -2.27877e-05 -3.21351e-06)
(-3.88631e-05 -2.25974e-05 -4.3936e-06)
(-4.92874e-05 -2.86061e-05 -7.67851e-06)
(-4.74191e-05 -2.77102e-05 -5.95501e-06)
(-4.92938e-05 -2.88915e-05 -5.9583e-06)
(-5.17934e-05 -3.05689e-05 -5.35638e-06)
(-5.03041e-05 -2.98343e-05 -4.10055e-06)
(-5.03023e-05 -2.9644e-05 -5.25249e-06)
(-4.77772e-05 -2.80523e-05 -5.24684e-06)
(-4.90309e-05 -2.90312e-05 -4.09773e-06)
(-4.90275e-05 -2.88401e-05 -5.24891e-06)
(-4.28028e-05 -2.54957e-05 -1.79218e-06)
(-4.40506e-05 -2.60879e-05 -2.94725e-06)
(-4.40481e-05 -2.62757e-05 -1.79523e-06)
(-4.5281e-05 -2.74326e-05 5.37133e-07)
(-4.65314e-05 -2.8026e-05 -6.35286e-07)
(-4.52874e-05 -2.72442e-05 -6.34453e-07)
(-4.52951e-05 -2.68683e-05 -2.95086e-06)
(-4.65365e-05 -2.78379e-05 -1.79947e-06)
(-4.52927e-05 -2.70564e-05 -1.79765e-06)
(-4.49367e-05 -2.58677e-05 -7.66911e-06)
(-4.6798e-05 -2.73194e-05 -5.95367e-06)
(-4.49339e-05 -2.61482e-05 -5.94751e-06)
(-4.28026e-05 -2.49303e-05 -5.22765e-06)
(-4.40495e-05 -2.59e-05 -4.08551e-06)
(-4.40469e-05 -2.57093e-05 -5.2347e-06)
(-4.65336e-05 -2.72699e-05 -5.24408e-06)
(-4.52936e-05 -2.66801e-05 -4.09013e-06)
(-4.52906e-05 -2.64892e-05 -5.24011e-06)
(-5.1785e-05 -3.12338e-05 -1.29194e-06)
(-5.0304e-05 -3.00222e-05 -2.95757e-06)
(-5.03023e-05 -3.02115e-05 -1.80156e-06)
(-4.90202e-05 -2.97874e-05 5.37777e-07)
(-4.77757e-05 -2.88093e-05 -6.35785e-07)
(-4.9026e-05 -2.95977e-05 -6.35836e-07)
(-4.90322e-05 -2.92196e-05 -2.95655e-06)
(-4.77806e-05 -2.86208e-05 -1.80068e-06)
(-4.90303e-05 -2.94085e-05 -1.80122e-06)
(-4.91885e-05 -2.85359e-05 -7.72524e-06)
(-4.48412e-05 -2.57986e-05 -7.719e-06)
(-4.91731e-05 -2.8606e-05 -7.23543e-06)
(-4.73047e-05 -2.77098e-05 -5.51251e-06)
(-4.91793e-05 -2.88913e-05 -5.51584e-06)
(-5.16836e-05 -3.05688e-05 -4.93361e-06)
(-5.00843e-05 -2.98345e-05 -3.25143e-06)
(-5.00921e-05 -2.96439e-05 -4.44061e-06)
(-4.7568e-05 -2.80517e-05 -4.43797e-06)
(-4.88117e-05 -2.90311e-05 -3.25067e-06)
(-4.88182e-05 -2.88398e-05 -4.43997e-06)
(-4.25809e-05 -2.54951e-05 -9.31948e-07)
(-4.38261e-05 -2.6087e-05 -2.07797e-06)
(-4.38257e-05 -2.62752e-05 -9.33923e-07)
(-4.5079e-05 -2.7433e-05 1.31969e-06)
(-4.63171e-05 -2.80262e-05 1.93695e-07)
(-4.50735e-05 -2.72443e-05 1.9411e-07)
(-4.50702e-05 -2.68677e-05 -2.08075e-06)
(-4.63135e-05 -2.78377e-05 -9.36898e-07)
(-4.507e-05 -2.70561e-05 -9.35563e-07)
(-4.48222e-05 -2.58668e-05 -7.22704e-06)
(-4.66836e-05 -2.73189e-05 -5.51126e-06)
(-4.48195e-05 -2.61473e-05 -5.50559e-06)
(-4.2594e-05 -2.4928e-05 -4.42151e-06)
(-4.3831e-05 -2.58986e-05 -3.24011e-06)
(-4.3838e-05 -2.57075e-05 -4.42745e-06)
(-4.63245e-05 -2.7269e-05 -4.43544e-06)
(-4.50748e-05 -2.66791e-05 -3.24388e-06)
(-4.50816e-05 -2.64879e-05 -4.43203e-06)
(-5.16745e-05 -3.12341e-05 -8.65263e-07)
(-5.00782e-05 -3.00225e-05 -2.08562e-06)
(-5.00785e-05 -3.02119e-05 -9.3747e-07)
(-4.88173e-05 -2.97877e-05 1.32093e-06)
(-4.75612e-05 -2.88095e-05 1.93302e-07)
(-4.88113e-05 -2.95979e-05 1.93307e-07)
(-4.88069e-05 -2.92196e-05 -2.08576e-06)
(-4.75575e-05 -2.86208e-05 -9.37966e-07)
(-4.8807e-05 -2.94087e-05 -9.38539e-07)
(-3.13296e-05 -1.73369e-05 -7.75491e-06)
(-2.36111e-05 -1.26018e-05 -7.30716e-06)
(-5.11238e-05 -2.97061e-05 -8.04255e-06)
(-4.30549e-05 -2.46302e-05 -8.00761e-06)
(-1.49074e-05 -7.3562e-06 -6.34826e-06)
(-2.18976e-05 -1.15597e-05 -7.16394e-06)
(-1.49807e-05 -7.53283e-06 -5.88624e-06)
(-1.49087e-05 -7.42286e-06 -6.0625e-06)
(-1.49799e-05 -7.45756e-06 -6.21888e-06)
(-1.48889e-05 -7.50967e-06 -5.58719e-06)
(-2.19888e-05 -1.17358e-05 -6.65261e-06)
(-2.19051e-05 -1.16282e-05 -6.84487e-06)
(-2.25495e-05 -1.20021e-05 -7.07386e-06)
(-2.24601e-05 -1.20648e-05 -6.35554e-06)
(-2.19811e-05 -1.16576e-05 -7.02487e-06)
(-2.18915e-05 -1.17196e-05 -6.31145e-06)
(-2.25576e-05 -1.20804e-05 -6.69925e-06)
(-1.48348e-05 -7.33891e-06 -6.11767e-06)
(-2.18221e-05 -1.15482e-05 -6.90059e-06)
(-1.46885e-05 -7.47106e-06 -4.93476e-06)
(-1.48021e-05 -7.39832e-06 -5.721e-06)
(-1.47852e-05 -7.48769e-06 -5.24923e-06)
(-1.47229e-05 -7.39962e-06 -5.39123e-06)
(-2.1682e-05 -1.16943e-05 -5.56686e-06)
(-2.17938e-05 -1.16118e-05 -6.455e-06)
(-2.23509e-05 -1.20505e-05 -5.96695e-06)
(-2.228e-05 -1.19647e-05 -6.12193e-06)
(-2.17826e-05 -1.17049e-05 -5.92577e-06)
(-2.17123e-05 -1.16188e-05 -6.08007e-06)
(-2.22501e-05 -1.20404e-05 -5.60532e-06)
(-3.14368e-05 -1.75091e-05 -7.21086e-06)
(-3.13429e-05 -1.74059e-05 -7.41306e-06)
(-3.20313e-05 -1.78049e-05 -7.63433e-06)
(-3.1945e-05 -1.78761e-05 -6.86045e-06)
(-3.14223e-05 -1.74295e-05 -7.61058e-06)
(-3.13358e-05 -1.75002e-05 -6.83898e-06)
(-3.2046e-05 -1.78846e-05 -7.23359e-06)
(-2.37057e-05 -1.27773e-05 -6.7875e-06)
(-2.36198e-05 -1.26705e-05 -6.98239e-06)
(-2.31213e-05 -1.23492e-05 -7.12108e-06)
(-2.30321e-05 -1.24125e-05 -6.39799e-06)
(-2.36966e-05 -1.26987e-05 -7.16657e-06)
(-2.313e-05 -1.24276e-05 -6.74418e-06)
(-2.36075e-05 -1.27627e-05 -6.43894e-06)
(-3.12525e-05 -1.73313e-05 -7.4676e-06)
(-2.35351e-05 -1.25915e-05 -7.03805e-06)
(-3.11212e-05 -1.74886e-05 -6.02678e-06)
(-3.1229e-05 -1.73978e-05 -6.98776e-06)
(-3.18328e-05 -1.78691e-05 -6.43837e-06)
(-3.17555e-05 -1.77869e-05 -6.60024e-06)
(-3.12238e-05 -1.74929e-05 -6.41834e-06)
(-3.11468e-05 -1.74104e-05 -6.58001e-06)
(-3.17302e-05 -1.78652e-05 -6.04546e-06)
(-2.33967e-05 -1.27402e-05 -5.67808e-06)
(-2.35078e-05 -1.26558e-05 -6.58399e-06)
(-2.29226e-05 -1.23988e-05 -6.0066e-06)
(-2.28513e-05 -1.23131e-05 -6.16227e-06)
(-2.28217e-05 -1.23891e-05 -5.64236e-06)
(-2.34978e-05 -1.27494e-05 -6.04485e-06)
(-2.3426e-05 -1.2664e-05 -6.20112e-06)
(-3.31594e-05 -1.84678e-05 -7.82241e-06)
(-4.11911e-05 -2.34637e-05 -7.99144e-06)
(-3.32689e-05 -1.86392e-05 -7.27523e-06)
(-3.26417e-05 -1.81816e-05 -7.65673e-06)
(-3.25556e-05 -1.82531e-05 -6.88069e-06)
(-3.31736e-05 -1.85368e-05 -7.47821e-06)
(-3.26568e-05 -1.82613e-05 -7.25502e-06)
(-3.32535e-05 -1.85594e-05 -7.67782e-06)
(-3.31676e-05 -1.86314e-05 -6.89978e-06)
(-4.13082e-05 -2.36316e-05 -7.43927e-06)
(-4.12083e-05 -2.35324e-05 -7.64266e-06)
(-4.19107e-05 -2.394e-05 -7.85427e-06)
(-4.18273e-05 -2.40162e-05 -7.06054e-06)
(-4.12893e-05 -2.35518e-05 -7.84791e-06)
(-4.12058e-05 -2.36277e-05 -7.05464e-06)
(-4.19298e-05 -2.40198e-05 -7.44553e-06)
(-3.30822e-05 -1.84631e-05 -7.53231e-06)
(-4.11137e-05 -2.34622e-05 -7.69411e-06)
(-3.29525e-05 -1.86219e-05 -6.07967e-06)
(-3.24433e-05 -1.82466e-05 -6.45725e-06)
(-3.23657e-05 -1.81646e-05 -6.61931e-06)
(-3.30595e-05 -1.853e-05 -7.04879e-06)
(-3.23407e-05 -1.82429e-05 -6.06307e-06)
(-3.30552e-05 -1.86252e-05 -6.47505e-06)
(-3.29774e-05 -1.85434e-05 -6.63726e-06)
(-4.09898e-05 -2.36256e-05 -6.21391e-06)
(-4.10938e-05 -2.35301e-05 -7.20253e-06)
(-4.17142e-05 -2.40143e-05 -6.62478e-06)
(-4.16333e-05 -2.39352e-05 -6.78676e-06)
(-4.10927e-05 -2.36256e-05 -6.6193e-06)
(-4.1012e-05 -2.35464e-05 -6.78143e-06)
(-4.16113e-05 -2.40145e-05 -6.21898e-06)
(-5.13101e-05 -2.99132e-05 -7.4966e-06)
(-5.12017e-05 -2.98075e-05 -7.72292e-06)
(-5.18692e-05 -3.01925e-05 -7.9478e-06)
(-5.17975e-05 -3.02764e-05 -7.15652e-06)
(-5.12735e-05 -2.98228e-05 -7.90807e-06)
(-5.12232e-05 -2.99168e-05 -7.13751e-06)
(-5.19005e-05 -3.02829e-05 -7.51639e-06)
(-4.31732e-05 -2.47974e-05 -7.45591e-06)
(-4.30726e-05 -2.46988e-05 -7.65883e-06)
(-4.25322e-05 -2.43287e-05 -7.85986e-06)
(-4.2449e-05 -2.4405e-05 -7.06575e-06)
(-4.31537e-05 -2.47176e-05 -7.86474e-06)
(-4.25515e-05 -2.44085e-05 -7.45106e-06)
(-4.30706e-05 -2.47942e-05 -7.07033e-06)
(-5.10525e-05 -2.97095e-05 -7.74536e-06)
(-4.29775e-05 -2.46292e-05 -7.70951e-06)
(-5.09923e-05 -2.99125e-05 -6.27044e-06)
(-5.10928e-05 -2.98104e-05 -7.2833e-06)
(-5.1691e-05 -3.02774e-05 -6.73879e-06)
(-5.15997e-05 -3.01954e-05 -6.88721e-06)
(-5.11098e-05 -2.99172e-05 -6.696e-06)
(-5.10007e-05 -2.98251e-05 -6.8372e-06)
(-5.15855e-05 -3.02814e-05 -6.3071e-06)
(-4.28546e-05 -2.47932e-05 -6.22735e-06)
(-4.29581e-05 -2.46972e-05 -7.21754e-06)
(-4.23358e-05 -2.44033e-05 -6.62961e-06)
(-4.22548e-05 -2.43244e-05 -6.79143e-06)
(-4.22329e-05 -2.44037e-05 -6.22344e-06)
(-4.29575e-05 -2.47927e-05 -6.63385e-06)
(-4.28763e-05 -2.47139e-05 -6.79548e-06)
(-5.09995e-05 -3.11573e-05 1.2596e-06)
(-5.16756e-05 -3.1519e-05 8.53702e-07)
(-5.10984e-05 -3.11531e-05 8.53273e-07)
(-5.15754e-05 -3.15219e-05 1.2563e-06)
(-2.8314e-05 -1.54798e-05 -7.61407e-06)
(-2.65303e-05 -1.43854e-05 -7.51128e-06)
(-4.80216e-05 -2.77514e-05 -8.02426e-06)
(-4.61603e-05 -2.65795e-05 -8.02152e-06)
(-1.75014e-05 -8.90564e-06 -6.70087e-06)
(-1.91176e-05 -9.87772e-06 -6.88875e-06)
(-1.75821e-05 -9.08245e-06 -6.21726e-06)
(-1.75052e-05 -8.9732e-06 -6.40059e-06)
(-1.81134e-05 -9.32624e-06 -6.63095e-06)
(-1.80229e-05 -9.38329e-06 -5.95737e-06)
(-1.75785e-05 -9.00582e-06 -6.56715e-06)
(-1.81175e-05 -9.40311e-06 -6.27794e-06)
(-1.74878e-05 -9.06208e-06 -5.90001e-06)
(-1.92024e-05 -1.00544e-05 -6.39382e-06)
(-1.91228e-05 -9.94568e-06 -6.58081e-06)
(-1.8653e-05 -9.65003e-06 -6.69282e-06)
(-1.85626e-05 -9.70783e-06 -6.01294e-06)
(-1.91972e-05 -9.97707e-06 -6.75281e-06)
(-1.86577e-05 -9.72712e-06 -6.33675e-06)
(-1.91069e-05 -1.00356e-05 -6.06688e-06)
(-1.74275e-05 -8.89064e-06 -6.45613e-06)
(-1.9043e-05 -9.86404e-06 -6.63647e-06)
(-1.72833e-05 -9.02878e-06 -5.20781e-06)
(-1.73964e-05 -8.95188e-06 -6.0382e-06)
(-1.79164e-05 -9.36475e-06 -5.59504e-06)
(-1.78501e-05 -9.27743e-06 -5.74345e-06)