/*--------------------------------*- C++ -*----------------------------------*\
| =========                 |                                                 |
| \\      /  F ield         | OpenFOAM: The Open Source CFD Toolbox           |
|  \\    /   O peration     | Version:  2012                                  |
|   \\  /    A nd           | Website:  www.openfoam.com                      |
|    \\/     M anipulation  |                                                 |
\*---------------------------------------------------------------------------*/
FoamFile
{
    version     2.0;
    format      ascii;
    class       volScalarField;
    location    "0.106/solid";
    object      epsilonEq;
}
// * * * * * * * * * * * * * * * * * * * * * * * * * * * * * * * * * * * * * //

dimensions      [0 0 0 0 0 0 0];


internalField   nonuniform List<scalar> 
3125
(
1.26745e-06
2.50801e-06
5.74644e-09
2.91668e-07
2.59971e-06
1.32671e-06
1.55487e-06
2.69982e-06
2.12537e-06
1.1378e-06
1.50047e-06
1.8796e-06
1.33711e-06
1.28694e-06
2.60675e-06
9.63987e-07
9.93815e-07
2.04524e-06
8.63355e-07
1.08096e-06
1.80669e-06
6.75932e-07
1.19565e-06
3.32634e-07
1.26295e-06
5.24841e-07
9.12349e-07
3.67326e-07
9.34578e-07
2.37855e-07
8.1111e-07
2.84935e-07
6.20298e-07
2.0286e-07
4.47267e-09
4.67282e-07
3.24549e-07
6.53837e-09
2.05461e-07
3.90399e-09
2.46773e-07
1.74932e-07
1.81151e-06
1.89455e-06
5.58505e-08
7.56629e-08
3.36411e-06
3.26601e-06
3.09168e-06
3.47078e-06
2.72055e-06
1.43529e-06
1.97107e-06
2.27187e-06
2.66006e-06
1.46787e-06
2.37064e-06
3.37218e-06
2.21954e-06
2.59553e-06
2.80462e-06
2.7161e-06
7.2921e-07
2.50365e-06
5.69984e-07
1.30197e-06
3.3381e-07
3.25902e-07
3.3146e-07
1.35401e-06
3.24037e-07
2.4219e-06
4.18086e-07
5.25587e-07
1.89649e-06
1.26001e-06
1.60603e-06
1.87005e-06
1.1576e-06
1.56803e-06
1.98154e-06
2.09474e-06
1.72599e-06
1.17854e-06
1.1113e-06
1.46864e-06
1.44773e-06
1.51807e-06
1.26724e-06
2.72216e-07
3.11022e-07
3.35407e-07
9.06873e-07
3.32981e-07
1.33022e-06
3.90268e-07
3.26911e-07
3.08721e-07
8.48473e-07
3.29221e-07
7.39225e-07
6.81303e-07
1.15053e-06
7.90424e-07
8.44443e-07
6.95496e-07
5.11363e-07
7.3907e-07
1.08554e-06
7.51085e-07
8.21393e-07
7.30237e-07
4.98902e-07
7.50916e-07
5.63082e-07
5.1634e-07
2.60727e-07
4.85149e-07
2.25579e-07
4.14793e-07
1.93769e-07
2.4624e-07
2.98888e-07
4.63084e-07
2.6133e-07
4.44461e-07
1.67965e-07
2.12697e-07
7.45945e-08
5.104e-08
1.75038e-07
4.42108e-07
2.9616e-07
2.54256e-07
9.62546e-08
4.24704e-07
2.30624e-07
5.44077e-08
2.40077e-07
1.98201e-07
2.54351e-08
3.92223e-08
2.07345e-08
5.59154e-08
6.91599e-08
1.73808e-07
1.44509e-07
1.06628e-07
3.24306e-08
1.5059e-07
9.06228e-08
6.06876e-08
1.12855e-07
8.26828e-08
1.49224e-06
2.23866e-06
7.29004e-09
1.83296e-07
3.76313e-06
2.88044e-06
3.87011e-06
3.11748e-06
1.36469e-06
1.49722e-06
1.55131e-06
1.83932e-06
1.52762e-06
1.79599e-06
2.98381e-06
2.20131e-06
2.43897e-06
3.16766e-06
2.37224e-06
2.84094e-06
2.18032e-06
1.19372e-06
8.35211e-07
8.67092e-07
1.0172e-06
1.45333e-06
9.97516e-07
2.10542e-06
1.45422e-06
1.61581e-06
1.56867e-06
1.1313e-06
1.32229e-06
1.4417e-06
1.24548e-06
1.38476e-06
2.33293e-06
2.14179e-06
1.91345e-06
1.02263e-06
1.01441e-06
1.08473e-06
1.18001e-06
1.81206e-06
1.02843e-06
7.00637e-07
8.15099e-07
8.01734e-07
1.02337e-06
7.66837e-07
1.59505e-06
1.39194e-06
1.24153e-06
5.39236e-07
7.32717e-07
5.78164e-07
9.89688e-07
4.69307e-07
1.08056e-06
1.05006e-06
9.0547e-07
5.82187e-07
5.24393e-07
5.8576e-07
9.6027e-07
8.59597e-07
8.97646e-07
5.0981e-07
3.65233e-07
4.83436e-07
7.66099e-07
3.46527e-07
6.56113e-07
6.62786e-07
5.54075e-07
3.25634e-07
2.52144e-07
2.84232e-07
5.005e-07
5.66093e-07
4.62212e-07
2.96918e-07
2.18294e-07
2.83531e-07
1.54873e-08
2.52738e-08
4.51071e-08
4.63768e-07
4.09824e-07
4.03977e-07
2.10937e-07
3.34109e-07
2.36857e-07
6.27463e-08
1.13969e-07
8.71595e-09
1.20564e-07
5.5771e-09
2.59052e-08
2.67885e-08
2.21166e-07
2.10931e-07
1.91145e-07
1.019e-07
1.9434e-07
1.40852e-07
7.22315e-08
5.74595e-08
1.57001e-06
2.15106e-06
1.45e-08
1.52361e-07
3.6626e-06
2.97566e-06
3.58082e-06
2.96876e-06
3.42765e-06
3.76959e-06
2.80516e-06
3.05707e-06
2.84503e-06
3.12027e-06
3.27409e-06
1.4009e-06
1.6546e-06
1.60378e-06
1.72314e-06
2.07189e-06
1.79953e-06
1.94889e-06
2.17221e-06
1.87482e-06
2.2301e-06
2.56484e-06
2.16224e-06
1.49864e-06
1.70358e-06
1.75075e-06
2.46836e-06
2.02157e-06
2.09272e-06
3.07995e-06
2.74463e-06
2.49911e-06
2.50756e-06
2.34479e-06
2.65983e-06
2.96646e-06
2.47018e-06
2.81285e-06
3.0755e-06
2.45675e-06
1.2908e-06
6.71844e-07
1.1973e-06
2.75522e-06
1.92443e-06
2.10646e-06
6.18741e-07
1.02288e-06
1.10797e-06
1.24851e-06
9.25387e-07
8.97197e-07
5.50439e-07
3.31403e-07
5.59069e-07
5.69239e-07
3.28593e-07
5.65366e-07
5.59602e-07
3.25893e-07
5.658e-07
1.4045e-06
9.51571e-07
9.75635e-07
3.23726e-07
5.70649e-07
5.69492e-07
2.18287e-06
1.85426e-06
1.68214e-06
7.26439e-07
4.49778e-07
7.93957e-07
9.42166e-07
4.85564e-07
8.65866e-07
1.64866e-06
1.5813e-06
1.37608e-06
1.3605e-06
1.37267e-06
1.49339e-06
1.77023e-06
1.48813e-06
1.63007e-06
1.64589e-06
1.769e-06
1.5679e-06
1.20232e-06
1.2674e-06
1.32664e-06
1.66825e-06
1.41064e-06
1.48942e-06
2.24356e-06
1.63759e-06
1.8552e-06
2.35649e-06
1.97066e-06
2.20682e-06
1.9133e-06
1.84765e-06
2.059e-06
1.09711e-06
1.27361e-06
1.17483e-06
1.06357e-06
1.20726e-06
1.1463e-06
1.3704e-06
1.3318e-06
1.25311e-06
1.24495e-06
1.73664e-06
1.08613e-06
9.90986e-07
8.64332e-07
3.37885e-07
2.84152e-07
3.72991e-07
4.5376e-07
2.96942e-07
4.11544e-07
5.39605e-07
3.35948e-07
5.26714e-07
9.65272e-07
6.93525e-07
7.30704e-07
3.35188e-07
4.95312e-07
5.119e-07
1.52698e-06
1.04472e-06
1.18343e-06
6.63311e-07
3.66064e-07
6.04562e-07
4.99909e-07
3.45088e-07
5.50125e-07
4.1494e-07
3.17084e-07
4.36756e-07
7.90333e-07
6.55542e-07
6.17017e-07
3.23934e-07
4.77116e-07
4.57542e-07
9.24482e-07
5.19207e-07
1.23194e-06
1.04455e-06
1.10802e-06
9.82488e-07
7.01041e-07
8.58628e-07
9.42429e-07
8.75976e-07
9.89258e-07
6.39156e-07
7.09883e-07
6.47624e-07
5.19904e-07
5.83979e-07
5.86474e-07
7.24941e-07
6.59887e-07
6.54846e-07
1.02029e-06
9.94829e-07
9.44461e-07
8.05821e-07
7.72343e-07
8.34993e-07
9.06733e-07
7.96653e-07
8.69886e-07
5.61711e-07
6.5881e-07
5.20235e-07
4.85335e-07
5.78028e-07
5.7312e-07
7.6866e-07
6.62041e-07
6.67574e-07
7.12935e-07
3.86406e-07
3.06001e-07
2.49337e-07
2.77039e-07
6.1621e-07
4.24763e-07
5.14414e-07
2.37715e-07
2.26508e-07
2.50674e-07
3.68937e-07
3.52087e-07
3.17544e-07
2.23199e-07
2.12472e-07
2.47926e-07
2.96938e-07
2.29963e-07
2.72497e-07
3.92304e-07
2.87685e-07
3.69045e-07
5.13607e-07
3.87829e-07
4.24589e-07
2.75152e-07
3.21261e-07
3.45323e-07
3.31463e-07
3.90184e-07
3.1288e-07
1.44539e-07
1.8404e-07
1.63593e-07
2.04192e-07
1.98912e-07
1.83351e-07
2.60466e-08
1.15751e-07
5.80818e-08
3.45071e-08
7.48282e-08
5.5939e-08
1.47372e-07
1.24123e-07
9.89694e-08
4.55265e-07
3.76144e-07
3.92585e-07
3.52659e-07
2.88012e-07
3.45335e-07
3.13532e-07
2.7377e-07
3.32046e-07
1.7828e-07
1.34781e-07
2.11793e-07
4.04485e-07
3.55316e-07
3.30373e-07
2.02041e-07
2.90678e-07
2.6302e-07
6.11081e-08
9.07676e-08
1.03974e-07
1.84212e-07
2.31852e-07
1.76552e-07
1.45451e-07
2.176e-07
1.63393e-07
7.55496e-09
9.66051e-08
4.63413e-09
6.57896e-08
3.40691e-08
3.60205e-08
3.92876e-08
2.8397e-08
5.15245e-08
5.00179e-08
3.55155e-08
1.98236e-07
1.52601e-07
1.72955e-07
1.77001e-07
1.32777e-07
1.61767e-07
1.30131e-07
1.20983e-07
1.47207e-07
8.14231e-08
7.93653e-08
1.22224e-07
1.25943e-07
1.31858e-07
1.07435e-07
6.99954e-08
1.11786e-07
8.88166e-08
7.04772e-08
4.73342e-08
5.36659e-08
8.3433e-08
1.03973e-07
7.73972e-08
6.09863e-08
9.45209e-08
7.03275e-08
1.3409e-06
2.41729e-06
7.07939e-09
2.53147e-07
3.96602e-06
2.69242e-06
4.66992e-06
4.07241e-06
4.5715e-06
3.83029e-06
3.30515e-06
2.79369e-06
3.09595e-06
2.55334e-06
3.19889e-06
2.64078e-06
3.2018e-06
3.35432e-06
2.20656e-06
1.94178e-06
3.01528e-06
2.71995e-06
2.40474e-06
1.13599e-06
1.9538e-06
1.69149e-06
1.41499e-06
1.75847e-06
1.47731e-06
1.0836e-06
1.74223e-06
1.41281e-06
1.572e-06
1.2802e-06
1.65827e-06
1.35102e-06
1.65395e-06
2.99679e-06
2.51467e-06
2.99378e-06
2.46641e-06
2.89245e-06
3.09888e-06
2.3807e-06
1.05445e-06
1.96642e-06
4.58397e-07
9.17073e-07
7.81838e-07
6.00989e-07
8.29671e-07
6.41991e-07
4.26966e-07
9.82794e-07
1.73495e-06
1.62589e-06
1.35395e-06
1.03238e-06
1.56135e-06
1.29446e-06
1.12541e-06
3.75939e-07
1.48227e-06
1.48749e-06
1.21069e-06
1.19044e-06
1.56717e-06
1.40476e-06
1.14295e-06
5.56329e-07
4.12499e-07
4.54347e-07
3.71378e-07
5.07142e-07
4.13859e-07
5.01582e-07
8.76979e-07
2.72212e-07
3.67608e-07
7.35455e-07
5.61275e-07
7.6029e-07
3.96603e-07
6.9039e-07
5.23045e-07
8.75222e-08
2.32586e-07
1.98442e-07
1.17489e-07
2.24603e-07
1.38407e-07
7.30714e-08
1.38274e-08
3.58076e-09
4.90939e-09
8.4457e-09
5.05924e-09
1.03004e-08
1.00064e-08
4.00394e-07
2.84248e-07
4.04375e-07
3.31099e-07
3.57269e-07
4.49539e-07
2.93184e-07
8.17948e-09
1.75113e-07
7.77968e-09
4.21249e-09
5.69781e-09
3.30471e-09
6.72298e-09
4.89187e-09
5.62249e-09
4.74055e-08
1.48785e-07
1.73923e-07
9.79665e-08
5.9631e-08
1.51005e-07
7.99601e-08
7.14445e-08
7.46993e-08
6.07902e-08
8.24054e-08
1.72979e-06
1.97891e-06
3.9182e-08
9.83872e-08
3.46302e-06
3.16853e-06
4.14311e-06
3.56988e-06
3.93206e-06
3.27125e-06
4.03831e-06
4.03769e-06
3.36331e-06
3.82742e-06
3.27427e-06
3.82626e-06
3.17937e-06
3.72085e-06
3.93236e-06
3.08848e-06
2.89398e-06
2.62875e-06
1.60481e-06
2.58658e-06
2.25535e-06
1.94997e-06
2.33064e-06
2.02269e-06
1.54151e-06
1.41881e-06
2.34117e-06
2.18137e-06
1.87846e-06
2.10826e-06
1.80847e-06
1.47933e-06
2.20415e-06
1.81272e-06
2.20459e-06
1.80328e-06
2.11056e-06
2.29992e-06
1.72513e-06
2.495e-06
2.06781e-06
2.29995e-06
1.88289e-06
2.39654e-06
2.397e-06
1.96342e-06
1.37888e-06
1.58966e-06
6.34032e-07
1.20558e-06
1.14192e-06
9.14871e-07
1.08682e-06
8.66182e-07
6.72829e-07
7.54629e-07
1.3946e-06
1.19821e-06
9.65065e-07
1.25592e-06
1.0166e-06
7.13146e-07
7.99153e-07
6.25313e-07
1.08327e-06
8.5257e-07
9.45093e-07
7.6824e-07
1.0169e-06
1.00931e-06
8.26465e-07
8.68151e-07
6.72082e-07
8.75602e-07
7.11792e-07
8.08429e-07
9.37517e-07
6.57407e-07
6.11437e-07
4.71404e-07
2.3895e-07
5.27419e-07
4.46889e-07
3.19384e-07
4.84269e-07
3.50256e-07
2.16496e-07
1.74709e-07
4.05317e-07
4.11012e-07
2.89788e-07
3.76545e-07
2.61594e-07
1.95004e-07
1.06642e-07
5.57556e-08
1.06255e-07
9.10712e-08
8.23778e-08
1.33483e-07
7.16958e-08
4.58379e-08
4.68373e-08
5.09957e-08
4.2624e-08
5.19274e-08
4.48224e-08
4.02957e-08
1.95712e-07
1.2086e-07
1.33262e-07
1.12837e-07
1.63366e-07
1.63169e-07
1.371e-07
6.14481e-08
5.71094e-08
5.27486e-08
4.43031e-08
5.57515e-08
5.77432e-08
4.58286e-08
1.49406e-08
5.57971e-08
1.0543e-08
1.16511e-08
3.58166e-08
7.35034e-09
2.6391e-08
1.053e-08
8.6801e-09
4.30683e-08
5.02588e-08
4.7917e-08
5.65427e-08
4.16694e-08
4.91588e-08
4.9863e-08
6.00871e-09
4.66101e-08
4.7079e-08
6.73462e-09
6.02328e-08
1.30105e-08
6.20407e-09
5.92446e-08
6.47675e-08
5.00207e-08
6.26324e-08
5.51415e-08
5.38546e-08
6.8036e-08
1.41593e-06
2.32749e-06
5.21473e-09
2.1697e-07
3.86435e-06
2.78611e-06
4.66841e-06
4.7845e-06
4.56454e-06
3.97098e-06
4.35768e-06
3.64242e-06
4.46455e-06
3.73597e-06
4.45922e-06
4.86831e-06
2.43146e-06
2.66984e-06
2.48893e-06
2.63809e-06
2.24349e-06
2.2249e-06
2.31089e-06
2.32683e-06
2.3943e-06
2.52653e-06
2.33554e-06
2.5608e-06
2.91122e-06
3.14723e-06
3.16517e-06
2.8616e-06
2.75651e-06
2.75421e-06
2.93662e-06
3.25291e-06
2.98445e-06
3.23802e-06
2.6922e-06
2.69137e-06
3.76128e-06
3.64498e-06
3.40901e-06
2.88849e-06
3.40616e-06
2.81786e-06
3.3024e-06
2.72926e-06
3.51301e-06
3.43814e-06
3.55373e-06
3.2605e-06
2.289e-06
6.7979e-07
7.25115e-07
1.87175e-06
2.92772e-06
2.56141e-06
2.24834e-06
2.6404e-06
2.3259e-06
1.80319e-06
8.15831e-07
7.68178e-07
1.74035e-06
1.62648e-06
1.80012e-06
1.60159e-06
1.81147e-06
1.77257e-06
1.86953e-06
1.90688e-06
1.71318e-06
1.52512e-06
1.65262e-06
1.55216e-06
2.18036e-06
1.92501e-06
1.938e-06
2.12576e-06
2.38146e-06
2.40648e-06
2.19078e-06
1.98706e-06
2.24422e-06
1.97669e-06
2.33274e-06
2.30563e-06
3.64362e-07
3.30946e-07
1.18994e-06
2.02905e-06
1.8952e-06
1.60578e-06
1.82628e-06
1.54098e-06
1.24495e-06
2.79694e-07
3.10873e-07
2.13751e-06
2.03403e-06
1.83202e-06
1.49012e-06
1.83501e-06
1.49679e-06
1.74606e-06
1.42344e-06
1.92304e-06
1.84724e-06
1.94756e-06
2.1967e-06
2.29661e-06
2.33531e-06
2.13618e-06
2.13594e-06
2.15723e-06
2.06843e-06
2.04451e-06
2.23712e-06
2.44925e-06
2.29679e-06
2.4127e-06
3.02635e-06
3.14006e-06
2.89496e-06
2.42327e-06
2.69141e-06
2.21106e-06
2.79157e-06
2.29532e-06
2.79382e-06
3.34671e-06
3.23184e-06
1.60953e-06
1.74578e-06
1.69988e-06
1.67103e-06
1.49699e-06
1.46131e-06
1.56069e-06
1.5949e-06
1.56371e-06
1.58039e-06
1.50254e-06
1.62714e-06
1.11659e-06
1.8886e-06
9.87673e-08
8.44022e-08
4.91151e-07
9.72084e-07
9.28769e-07
7.27664e-07
8.78612e-07
6.84239e-07
5.24881e-07
7.64158e-08
8.82657e-08
1.53055e-06
1.36316e-06
1.39387e-06
1.46916e-06
1.67303e-06
1.7134e-06
1.56217e-06
1.47452e-06
1.62313e-06
1.44559e-06
1.61304e-06
1.57138e-06
1.95431e-07
2.22071e-07
9.34388e-07
1.66445e-06
1.43561e-06
1.17924e-06
1.49803e-06
1.23617e-06
8.87484e-07
2.63526e-07
2.34657e-07
9.85056e-07
9.61157e-07
9.25594e-07
1.04479e-06
9.89046e-07
9.45103e-07
9.46988e-07
8.36843e-07
8.88352e-07
8.72588e-07
1.04847e-06
1.09286e-06
1.05674e-06
4.21625e-07
1.49133e-06
1.58452e-06
1.39875e-06
1.11937e-06
1.24385e-06
1.01145e-06
1.32344e-06
1.07635e-06
1.31699e-06
1.76319e-06
1.66618e-06
7.90751e-07
8.4947e-07
8.43105e-07
8.03623e-07
7.38096e-07
6.97217e-07
7.86338e-07
8.27455e-07
7.49066e-07
7.05807e-07
6.98553e-07
7.5074e-07
1.35027e-06
1.34576e-06
1.3934e-06
1.29079e-06
1.36194e-06
1.39885e-06
1.3963e-06
1.50962e-06
1.45666e-06
1.46232e-06
1.30107e-06
1.26289e-06
8.06894e-07
7.37761e-07
6.13722e-07
4.6009e-07
6.20194e-07
5.05167e-07
5.62516e-07
4.58621e-07
6.73548e-07
6.15488e-07
6.78958e-07
8.20761e-07
3.08521e-07
6.8158e-08
7.58755e-08
3.39622e-07
7.10875e-07
6.03947e-07
4.50099e-07
6.46598e-07
4.85956e-07
3.12832e-07
8.10429e-08
7.14225e-08
2.94327e-07
3.12877e-07
3.35593e-07
2.85908e-07
2.75182e-07
2.4691e-07
3.14378e-07
3.46014e-07
2.67732e-07
2.25878e-07
2.30248e-07
2.50196e-07
7.5559e-07
6.63462e-07
6.98499e-07
7.00289e-07
8.43572e-07
8.86814e-07
7.9327e-07
7.84826e-07
8.50301e-07
7.493e-07
7.86847e-07
7.44615e-07
6.03252e-08
5.64462e-08
1.03037e-07
2.63972e-07
2.81109e-07
1.83884e-07
2.52202e-07
1.60576e-07
1.19387e-07
5.29496e-08
5.68419e-08
7.56027e-08
5.04452e-08
2.52002e-08
7.66402e-09
2.65815e-08
2.70874e-08
1.39666e-08
1.70376e-08
4.13731e-08
2.18143e-08
1.58664e-08
2.45799e-08
2.35573e-08
1.67774e-08
1.71392e-08
2.70476e-08
2.33557e-08
3.03298e-08
5.71377e-07
5.24138e-07
5.66464e-07
5.25249e-07
6.10863e-07
6.51465e-07
5.67989e-07
5.28017e-07
6.09996e-07
6.56397e-07
6.58419e-07
6.12611e-07
4.02817e-07
4.549e-07
3.53766e-07
2.46279e-07
2.70858e-07
2.23683e-07
3.12673e-07
2.57253e-07
3.09921e-07
5.61763e-07
5.0389e-07
1.54378e-07
1.89247e-07
1.46755e-07
1.97778e-07
1.08292e-07
6.45999e-08
1.58444e-07
2.0202e-07
1.03728e-07
5.08987e-08
5.7477e-08
9.69286e-08
8.52832e-09
1.4674e-07
2.563e-08
2.79527e-08
8.98464e-09
5.4374e-09
9.56547e-09
1.15071e-08
8.00884e-09
7.99057e-09
1.01461e-08
1.81388e-08
1.46407e-08
2.31976e-08
2.64277e-08
1.40731e-08
1.75541e-08
2.43688e-08
2.71253e-08
2.96086e-08
1.54526e-07
1.27604e-07
1.45226e-07
1.25889e-07
1.87679e-07
2.12097e-07
1.73797e-07
1.94019e-07
2.07013e-07
1.72828e-07
1.57799e-07
1.37824e-07
4.33121e-08
4.79379e-08
3.62144e-08
1.24409e-07
1.0966e-07
4.80363e-08
1.29551e-07
6.32584e-08
2.62105e-08
5.27958e-08
4.85924e-08
8.06775e-08
6.75064e-08
7.6865e-08
7.19896e-08
7.09938e-08
7.36021e-08
5.91545e-08
7.908e-08
6.15471e-08
8.11054e-08
6.83102e-08
8.85065e-08
9.24484e-08
8.7128e-08
8.71481e-08
9.03408e-08
8.26945e-08
8.31783e-08
7.44304e-08
1.64924e-06
2.06446e-06
2.528e-08
1.24053e-07
3.56256e-06
3.07179e-06
4.57042e-06
4.65396e-06
4.75594e-06
4.46778e-06
4.53812e-06
4.3031e-06
4.64708e-06
4.84719e-06
4.43345e-06
4.14817e-06
4.36809e-06
4.24001e-06
4.58307e-06
4.46655e-06
4.2486e-06
3.66964e-06
4.25111e-06
3.54885e-06
4.35382e-06
4.14475e-06
3.45618e-06
4.2628e-06
4.37953e-06
4.28574e-06
4.56131e-06
4.38936e-06
4.45835e-06
4.08885e-06
3.82838e-06
3.9227e-06
4.01892e-06
4.19487e-06
4.0831e-06
4.26271e-06
3.98991e-06
4.2057e-06
4.26025e-06
4.36425e-06
4.10098e-06
2.58044e-06
2.74655e-06
2.52431e-06
2.77588e-06
2.47366e-06
2.48361e-06
2.61401e-06
2.87864e-06
2.8521e-06
2.66867e-06
2.4069e-06
2.3939e-06
2.95561e-06
2.82875e-06
2.75684e-06
3.00348e-06
3.00219e-06
3.08082e-06
3.14525e-06
2.91635e-06
3.06342e-06
3.30527e-06
3.14853e-06
3.24257e-06
2.86835e-06
2.6352e-06
2.70789e-06
2.81847e-06
3.13595e-06
2.87576e-06
2.94647e-06
3.09037e-06
3.35033e-06
3.61849e-06
3.43352e-06
3.55983e-06
3.22221e-06
3.06132e-06
2.99177e-06
3.26553e-06
3.2925e-06
3.40223e-06
3.2081e-06
3.46307e-06
3.63343e-06
3.31905e-06
3.3838e-06
3.5983e-06
3.88661e-06
4.20833e-06
3.96429e-06
4.15953e-06
3.71613e-06
3.48375e-06
3.42053e-06
3.74863e-06
3.83709e-06
4.01453e-06
4.066e-06
3.7579e-06
2.78275e-06
3.07345e-06
2.8342e-06
3.05261e-06
2.55684e-06
2.54986e-06
2.75332e-06
2.95409e-06
2.70012e-06
2.97789e-06
2.62244e-06
2.6264e-06
3.47654e-06
3.28012e-06
3.5144e-06
3.21358e-06
3.5716e-06
3.71448e-06
3.77101e-06
3.48961e-06
3.62555e-06
3.92024e-06
3.86635e-06
3.7061e-06
3.39174e-06
3.10445e-06
3.35118e-06
3.17247e-06
3.85153e-06
3.96824e-06
3.72238e-06
3.17678e-06
3.51058e-06
2.90755e-06
3.61754e-06
3.61561e-06
2.9976e-06
4.1746e-06
4.05771e-06
3.53531e-06
3.76229e-06
3.65695e-06
3.64135e-06
3.37034e-06
3.15805e-06
3.25504e-06
3.29357e-06
3.47717e-06
3.42533e-06
3.32853e-06
3.55266e-06
3.4504e-06
3.4539e-06
3.5594e-06
3.34413e-06
3.83123e-06
3.85913e-06
3.96435e-06
3.7254e-06
3.84029e-06
3.75951e-06
3.91228e-06
3.66403e-06
3.91415e-06
4.16518e-06
4.0194e-06
4.06052e-06
3.73341e-06
3.49727e-06
3.5934e-06
3.65964e-06
2.98441e-06
2.54221e-06
4.14874e-07
4.28835e-07
4.74603e-07
3.79444e-07
5.54515e-07
8.31088e-07
5.35244e-07
8.13794e-07
3.9042e-07
5.39181e-07
4.89499e-07
4.32013e-07
5.42021e-07
8.1957e-07
5.62638e-07
8.3655e-07
6.40549e-07
5.97541e-07
1.66974e-06
2.67039e-06
2.48362e-06
2.17183e-06
1.73566e-06
2.4066e-06
2.09674e-06
5.21367e-07
5.62018e-07
3.74751e-07
4.18149e-07
4.04548e-07
3.76384e-07
5.54876e-07
8.19062e-07
8.36496e-07
5.75268e-07
5.69841e-07
8.38527e-07
5.49018e-07
8.21411e-07
3.99242e-07
3.32404e-07
3.69715e-07
3.74354e-07
1.8838e-06
1.67436e-06
1.82492e-06
1.69715e-06
2.05464e-06
2.08814e-06
1.90599e-06
1.76375e-06
1.7434e-06
1.96389e-06
1.99916e-06
1.96373e-06
1.3039e-06
1.51344e-06
1.46659e-06
1.31579e-06
1.14235e-06
9.3206e-07
9.32587e-07
1.10816e-06
1.15225e-06
9.60791e-07
1.18519e-06
9.62871e-07
1.26378e-06
1.39986e-06
1.44758e-06
1.24955e-06
1.36357e-06
1.52958e-06
1.57522e-06
1.35425e-06
1.22733e-06
1.00389e-06
1.25777e-06
1.01137e-06
1.40018e-06
1.63299e-06
1.58849e-06
1.40694e-06
1.22382e-06
9.89292e-07
1.19197e-06
9.84588e-07
1.50876e-06
1.73856e-06
1.77905e-06
1.51031e-06
1.3208e-06
1.03484e-06
1.34648e-06
1.05263e-06
1.53729e-06
1.81859e-06
1.77925e-06
1.53313e-06
1.33153e-06
1.04916e-06
1.0339e-06
1.30471e-06
2.05655e-06
1.88433e-06
2.11238e-06
1.8689e-06
2.17353e-06
2.14206e-06
2.04019e-06
1.80824e-06
1.98321e-06
1.82623e-06
2.22575e-06
2.25513e-06
1.47837e-06
1.735e-06
1.47957e-06
1.69307e-06
1.28716e-06
1.0286e-06
1.01853e-06
1.25797e-06
1.28378e-06
1.02849e-06
1.04132e-06
1.3117e-06
1.44562e-06
1.64305e-06
1.44171e-06
1.68619e-06
3.88129e-07
4.23978e-07
1.35945e-06
2.26156e-06
1.96511e-06
1.67207e-06
1.30162e-06
2.03633e-06
1.7396e-06
4.89859e-07
4.51656e-07
3.81011e-07
2.73399e-07
2.50744e-07
3.9624e-07
5.53105e-07
7.66301e-07
7.86724e-07
5.66732e-07
5.73962e-07
8.05606e-07
7.85947e-07
5.5829e-07
3.951e-07
2.37375e-07
2.55581e-07
3.8147e-07
3.96556e-07
2.70114e-07
2.97741e-07
3.78955e-07
5.78017e-07
8.30497e-07
5.58791e-07
8.12385e-07
3.76319e-07
3.29727e-07
3.97095e-07
2.9714e-07
5.60103e-07
8.01321e-07
8.2011e-07
5.77719e-07
2.2255e-06
2.33174e-06
2.10923e-06
1.73001e-06
1.92549e-06
1.57171e-06
2.01552e-06
2.01743e-06
1.64774e-06
2.52999e-06
2.42134e-06
2.02641e-06
2.16299e-06
2.06566e-06
2.12445e-06
1.92198e-06
1.79969e-06
1.88901e-06
1.84502e-06
2.01792e-06
2.05479e-06
2.09625e-06
1.96317e-06
1.94441e-06
1.87962e-06
1.97455e-06
1.8487e-06
2.30838e-06
2.25594e-06
2.35562e-06
2.20805e-06
2.37443e-06
2.39358e-06
2.45387e-06
2.29873e-06
2.39314e-06
2.55174e-06
2.4503e-06
2.49522e-06
2.27369e-06
2.12966e-06
2.19469e-06
2.22306e-06
2.59198e-06
2.38551e-06
2.45944e-06
2.53855e-06
2.76766e-06
2.98362e-06
2.85386e-06
2.91772e-06
2.67921e-06
2.58486e-06
2.51129e-06
2.73111e-06
2.70401e-06
2.75349e-06
2.61747e-06
2.82065e-06
2.0333e-06
2.21948e-06
2.09448e-06
2.17892e-06
1.88376e-06
1.85528e-06
1.95079e-06
1.97706e-06
1.9904e-06
2.0598e-06
2.10209e-06
1.92871e-06
2.39661e-06
2.33256e-06
2.45146e-06
2.2582e-06
2.40139e-06
2.42461e-06
2.49345e-06
2.31544e-06
2.46669e-06
2.65717e-06
2.55294e-06
2.58901e-06
2.31021e-06
2.13e-06
2.20423e-06
2.25414e-06
2.93482e-06
2.82244e-06
2.5939e-06
2.15523e-06
2.59229e-06
2.12749e-06
2.69342e-06
2.49405e-06
2.04519e-06
2.62047e-06
2.73111e-06
3.06668e-06
3.04865e-06
3.15341e-06
2.96118e-06
3.10907e-06
3.08364e-06
3.18692e-06
2.98631e-06
3.15271e-06
3.35637e-06
3.25116e-06
3.25854e-06
3.00311e-06
2.81406e-06
2.91106e-06
2.92435e-06
2.77044e-06
2.9513e-06
2.84739e-06
2.87503e-06
2.63598e-06
2.46966e-06
2.55638e-06
2.56553e-06
2.6844e-06
2.64755e-06
2.58077e-06
2.75049e-06
2.73989e-06
2.7383e-06
2.64162e-06
2.81921e-06
1.82884e-06
1.8173e-06
1.74453e-06
1.88677e-06
1.80127e-06
1.78108e-06
1.84946e-06
1.71992e-06
1.86621e-06
2.00748e-06
1.93863e-06
1.94914e-06
1.74767e-06
1.61755e-06
1.6891e-06
1.68972e-06
1.77822e-06
1.81975e-06
1.71646e-06
1.86485e-06
1.75809e-06
1.7886e-06
1.69233e-06
1.65984e-06
1.82301e-06
1.98376e-06
1.88482e-06
1.93996e-06
2.02724e-06
1.87256e-06
1.96967e-06
1.94608e-06
2.16452e-06
2.3301e-06
2.26091e-06
2.24981e-06
2.09889e-06
2.09863e-06
2.16795e-06
2.01461e-06
2.11156e-06
2.07538e-06
2.1686e-06
2.00123e-06
1.3112e-06
1.66261e-06
9.61317e-08
1.13198e-07
5.96371e-07
1.14525e-06
9.80196e-07
7.72552e-07
5.60079e-07
1.03299e-06
8.18717e-07
1.32326e-07
1.12837e-07
3.11604e-07
2.01341e-07
1.96163e-07
3.23411e-07
3.92645e-07
4.86131e-07
5.11344e-07
3.90052e-07
4.20966e-07
5.547e-07
4.22127e-07
5.29465e-07
3.03816e-07
1.87456e-07
1.92537e-07
2.91865e-07
3.4112e-07
2.03337e-07
2.08967e-07
3.29398e-07
4.77259e-07
6.35824e-07
4.74715e-07
6.11287e-07
3.44931e-07
2.15567e-07
2.0935e-07
3.5653e-07
4.49613e-07
5.71333e-07
4.50225e-07
5.96302e-07
1.14845e-06
1.25631e-06
1.30562e-06
1.1298e-06
1.06023e-06
9.00186e-07
1.09541e-06
8.97173e-07
1.19131e-06
1.37831e-06
1.3296e-06
1.20793e-06
1.04477e-06
8.58348e-07
1.00853e-06
8.63766e-07
1.37424e-06
1.31057e-06
1.43585e-06
1.27841e-06
1.40708e-06
1.36354e-06
1.33936e-06
1.19164e-06
1.2251e-06
1.27778e-06
1.468e-06
1.51081e-06
1.06512e-06
1.23021e-06
1.0857e-06
1.18024e-06
9.33487e-07
7.70706e-07
7.80453e-07
8.95883e-07
9.53684e-07
8.23787e-07
9.90594e-07
8.16089e-07
1.02021e-06
1.10206e-06
1.15223e-06
9.97938e-07
1.8657e-07
1.62208e-07
7.97649e-07
1.46015e-06
1.37455e-06
1.12358e-06
8.4175e-07
1.31463e-06
1.0695e-06
1.34621e-07
1.56652e-07
3.87232e-07
2.22846e-07
2.34071e-07
3.75326e-07
5.5576e-07
7.63935e-07
5.44352e-07
7.42466e-07
3.79746e-07
2.43091e-07
2.2873e-07
3.9226e-07
5.32089e-07
7.14833e-07
7.37087e-07
5.41176e-07
3.68072e-07
2.27344e-07
2.18423e-07
3.79682e-07
4.97074e-07
6.48871e-07
5.01649e-07
6.72752e-07
3.69457e-07
2.14115e-07
3.57887e-07
2.21444e-07
5.23041e-07
7.06669e-07
6.83485e-07
5.16247e-07
7.85963e-07
9.09189e-07
8.59442e-07
8.11806e-07
6.84482e-07
5.6724e-07
5.82867e-07
6.46552e-07
7.10521e-07
6.34819e-07
6.20357e-07
7.48681e-07
7.40238e-07
7.77973e-07
8.26882e-07
7.13836e-07
1.14322e-06
1.01464e-06
1.08264e-06
1.0499e-06
1.25838e-06
1.30245e-06
1.18043e-06
1.13804e-06
1.24158e-06
1.10358e-06
1.19752e-06
1.15318e-06
8.82716e-07
9.41046e-07
8.57756e-07
9.91171e-07
8.35731e-07
7.34132e-07
7.22563e-07
8.73778e-07
8.12022e-07
6.72219e-07
6.85471e-07
7.73759e-07
9.28559e-07
1.07246e-06
9.52368e-07
1.0221e-06
8.60966e-07
5.71276e-07
1.59814e-06
1.52463e-06
1.61336e-06
1.50865e-06
1.67639e-06
1.72715e-06
1.75185e-06
1.64006e-06
1.67599e-06
1.79119e-06
1.69923e-06
1.76858e-06
1.58652e-06
1.48508e-06
1.51295e-06
1.56925e-06
1.41276e-06
1.32366e-06
1.1593e-06
9.16682e-07
1.16632e-06
9.48096e-07
1.23715e-06
1.09072e-06
8.86604e-07
1.16365e-06
1.24819e-06
1.34771e-06
1.44208e-06
1.43346e-06
1.35706e-06
1.2731e-06
1.19139e-06
1.26897e-06
1.20437e-06
1.35533e-06
1.41644e-06
1.42675e-06
1.33535e-06
1.27558e-06
1.19675e-06
1.27791e-06
1.19356e-06
9.40064e-07
9.05256e-07
8.85935e-07
9.51985e-07
9.7201e-07
1.01242e-06
9.83979e-07
1.05804e-06
1.01081e-06
1.03968e-06
9.18979e-07
8.78054e-07
8.122e-07
8.60818e-07
8.03369e-07
8.63079e-07
7.57632e-07
6.97548e-07
7.5021e-07
6.9916e-07
8.07684e-07
8.66347e-07
8.6965e-07
8.10912e-07
7.55251e-07
7.0283e-07
7.57424e-07
7.06265e-07
9.76333e-07
9.08521e-07
9.68523e-07
9.23781e-07
1.043e-06
1.11918e-06
1.11165e-06
1.05872e-06
1.04058e-06
1.0807e-06
1.01813e-06
1.09479e-06
9.87803e-07
9.31272e-07
9.22276e-07
9.89362e-07
1.47637e-06
1.36925e-06
1.43787e-06
1.41918e-06
1.57654e-06
1.69461e-06
1.65589e-06
1.62724e-06
1.55296e-06
1.56264e-06
1.4923e-06
1.61073e-06
1.51371e-06
1.47724e-06
1.54343e-06
1.4365e-06
1.1867e-06
1.27914e-06
1.24514e-06
1.23141e-06
1.10752e-06
1.06762e-06
1.14148e-06
1.11958e-06
1.08423e-06
1.1672e-06
1.16467e-06
1.20387e-06
1.28885e-06
1.31576e-06
1.34517e-06
1.24885e-06
1.24105e-06
1.19241e-06
1.2552e-06
1.16929e-06
1.30063e-06
1.39678e-06
1.33231e-06
1.37513e-06
1.21787e-06
1.13168e-06
1.16254e-06
1.19645e-06
8.70034e-07
9.44623e-07
8.00878e-07
6.15854e-07
6.8047e-07
5.53903e-07
7.35955e-07
7.4333e-07
6.04661e-07
1.09206e-06
1.01226e-06
7.79922e-07
8.35959e-07
7.68879e-07
8.48069e-07
7.3323e-07
6.85512e-07
7.4685e-07
6.77618e-07
7.96732e-07
8.66496e-07
8.00717e-07
8.55995e-07
7.23032e-07
6.45265e-07
7.07393e-07
6.59607e-07
9.82176e-07
9.02089e-07
9.74216e-07
9.0917e-07
1.06049e-06
1.1279e-06
1.12629e-06
1.05391e-06
1.04726e-06
1.12178e-06
1.12478e-06
1.04501e-06
9.87092e-07
9.23552e-07
9.93418e-07
9.24517e-07
6.61437e-07
4.28045e-07
2.60002e-07
1.66262e-07
1.71361e-07
2.48053e-07
3.57748e-07
4.67041e-07
3.61653e-07
4.41818e-07
2.70558e-07
1.82564e-07
1.77491e-07
2.8251e-07
3.29624e-07
3.97241e-07
3.24635e-07
4.22061e-07
7.21528e-08
6.58957e-08
2.62556e-07
5.71098e-07
5.62725e-07
4.15487e-07
2.8704e-07
5.22877e-07
3.82316e-07
6.38957e-08
6.90431e-08
2.24808e-07
1.59241e-07
2.36601e-07
1.54133e-07
2.64343e-07
3.09152e-07
3.32636e-07
2.57942e-07
2.91169e-07
3.77117e-07
2.97019e-07
3.528e-07
2.12803e-07
1.41282e-07
1.46409e-07
2.01228e-07
4.09916e-07
3.5206e-07
3.65179e-07
3.81406e-07
4.70415e-07
5.07439e-07
4.41974e-07
4.54933e-07
4.23648e-07
4.89845e-07
4.23684e-07
3.89198e-07
2.53694e-07
3.01695e-07
2.6627e-07
2.7527e-07
2.11161e-07
1.73309e-07
1.87136e-07
1.85107e-07
2.3206e-07
2.29118e-07
2.60383e-07
2.14096e-07
2.21944e-07
2.1002e-07
2.42239e-07
2.02403e-07
3.3317e-07
3.28183e-07
3.66411e-07
3.09901e-07
3.38166e-07
3.22398e-07
3.7056e-07
3.05778e-07
3.70395e-07
4.35838e-07
3.94984e-07
3.95058e-07
3.13781e-07
2.58414e-07
2.83211e-07
2.7436e-07
5.97736e-07
6.17841e-07
6.64431e-07
5.71044e-07
5.82541e-07
5.30056e-07
6.19891e-07
5.13694e-07
6.41937e-07
7.45172e-07
6.97177e-07
6.68696e-07
5.55602e-07
4.60068e-07
4.77004e-07
5.19016e-07
6.10291e-07
6.14243e-07
6.63495e-07
5.8013e-07
5.96428e-07
5.57252e-07
5.74673e-07
4.99902e-07
5.23897e-07
5.32807e-07
6.48899e-07
6.89843e-07
5.01677e-07
5.8556e-07
5.27984e-07
5.40508e-07
4.30273e-07
3.55506e-07
3.72564e-07
3.96203e-07
4.56708e-07
4.24295e-07
4.07226e-07
4.9213e-07
4.60205e-07
4.66015e-07
4.34599e-07
5.09059e-07
5.93382e-08
6.33959e-08
1.55289e-07
3.67669e-07
3.11504e-07
2.08555e-07
1.36881e-07
3.43399e-07
2.34494e-07
6.62721e-08
6.17786e-08
1.32675e-07
1.06476e-07
1.01527e-07
1.4297e-07
1.42708e-07
1.52997e-07
1.71523e-07
1.36153e-07
1.64104e-07
2.08339e-07
1.88283e-07
1.70892e-07
1.21412e-07
8.85445e-08
9.34619e-08
1.11608e-07
1.65594e-07
1.14729e-07
1.19779e-07
1.54799e-07
2.25373e-07
2.89392e-07
2.32098e-07
2.66809e-07
1.77771e-07
1.33184e-07
1.88975e-07
1.28076e-07
2.00824e-07
2.2638e-07
2.47735e-07
1.9396e-07
1.01381e-07
1.32092e-07
8.22916e-08
3.95413e-08
4.23633e-08
3.94646e-08
6.03994e-08
6.1037e-08
5.44536e-08
1.97922e-07
1.62162e-07
7.41213e-08
8.8405e-08
6.04383e-08
1.04759e-07
4.12284e-08
4.14188e-08
3.28745e-08
3.2039e-08
3.34321e-08
4.13098e-08
3.69459e-08
5.42683e-08
3.58782e-08
6.31061e-08
3.42099e-08
8.53588e-08
1.33804e-07
1.17318e-07
9.88812e-08
4.68816e-08
2.79997e-08
3.74185e-08
3.19092e-08
1.6697e-07
1.16242e-07
1.48301e-07
1.32699e-07
2.14121e-07
2.70129e-07
2.51077e-07
2.30275e-07
1.98031e-07
2.17016e-07
1.80183e-07
2.36948e-07
1.80576e-07
1.63252e-07
1.47399e-07
1.98972e-07
5.57239e-07
5.172e-07
5.65926e-07
5.12547e-07
5.97287e-07
6.4147e-07
6.52069e-07
5.91672e-07
6.06263e-07
6.5919e-07
6.07366e-07
6.53273e-07
5.53197e-07
4.93234e-07
5.01998e-07
5.40053e-07
4.44902e-07
4.81561e-07
4.88614e-07
4.41002e-07
4.11834e-07
3.74334e-07
4.4895e-07
4.87883e-07
4.10441e-07
3.63403e-07
4.01932e-07
3.69267e-07
4.25316e-07
4.78422e-07
4.67521e-07
4.32784e-07
3.76214e-07
3.19892e-07
3.60365e-07
3.32772e-07
4.13881e-07
4.46396e-07
4.61132e-07
4.02652e-07
3.84496e-07
3.54402e-07
3.96706e-07
3.44861e-07
3.58935e-07
3.12457e-07
2.31009e-07
1.48236e-07
2.32141e-07
1.92521e-07
2.69053e-07
1.96348e-07
1.63726e-07
2.32266e-07
2.7326e-07
5.00659e-07
4.29069e-07
4.80795e-07
4.47295e-07
5.67255e-07
6.35421e-07
6.1914e-07
5.78229e-07
5.48861e-07
5.89061e-07
5.32159e-07
6.07101e-07
5.13956e-07
4.79091e-07
5.31787e-07
4.65734e-07
3.55229e-07
3.82927e-07
3.3636e-07
4.0356e-07
3.30031e-07
3.05146e-07
2.89257e-07
3.49177e-07
3.15778e-07
2.53346e-07
2.72077e-07
2.95066e-07
3.73119e-07
4.36475e-07
3.88051e-07
4.176e-07
1.30303e-07
1.81935e-07
1.40092e-07
1.70205e-07
7.81654e-08
3.72874e-08
7.00084e-08
3.91369e-08
1.21425e-07
1.45556e-07