/*--------------------------------*- C++ -*----------------------------------*\
| =========                 |                                                 |
| \\      /  F ield         | OpenFOAM: The Open Source CFD Toolbox           |
|  \\    /   O peration     | Version:  2012                                  |
|   \\  /    A nd           | Website:  www.openfoam.com                      |
|    \\/     M anipulation  |                                                 |
\*---------------------------------------------------------------------------*/
FoamFile
{
    version     2.0;
    format      ascii;
    class       pointVectorField;
    location    "0.106/solid";
    object      pointD;
}
// * * * * * * * * * * * * * * * * * * * * * * * * * * * * * * * * * * * * * //

dimensions      [0 1 0 0 0 0 0];


internalField   nonuniform List<vector> 
4937
(
(-8.28026e-06 -1.39171e-05 -1.92692e-06)
(-1.33605e-05 -2.5407e-05 -2.05469e-06)
(-5.81391e-06 -1.08034e-05 3.52147e-07)
(-1.08212e-05 -2.20353e-05 3.89633e-07)
(-3.58912e-06 -6.24904e-06 3.03834e-07)
(-5.83631e-06 -8.76318e-06 -1.78923e-06)
(-8.26893e-06 -1.61955e-05 3.79e-07)
(-1.0825e-05 -1.9621e-05 -1.97955e-06)
(-3.59436e-06 -5.43526e-06 -6.0778e-07)
(-4.69216e-06 -6.51953e-06 -1.67973e-06)
(-7.03823e-06 -1.12457e-05 -1.87062e-06)
(-8.27095e-06 -1.5067e-05 -7.68203e-07)
(-9.54686e-06 -1.67252e-05 -1.96179e-06)
(-1.21046e-05 -2.25637e-05 -1.98536e-06)
(-1.33792e-05 -2.67524e-05 -7.9711e-07)
(-4.6632e-06 -8.39935e-06 3.3092e-07)
(-5.81736e-06 -9.80564e-06 -7.10225e-07)
(-7.02174e-06 -1.34184e-05 3.67976e-07)
(-9.53978e-06 -1.90838e-05 3.85933e-07)
(-1.08222e-05 -2.08289e-05 -7.92551e-07)
(-1.21033e-05 -2.50122e-05 3.91099e-07)
(-4.66751e-06 -7.48689e-06 -6.65089e-07)
(-7.02443e-06 -1.23487e-05 -7.44188e-07)
(-9.54126e-06 -1.79097e-05 -7.83757e-07)
(-1.2104e-05 -2.37862e-05 -7.96456e-07)
(-3.60685e-06 -5.00072e-06 -1.07564e-06)
(-4.14775e-06 -5.50123e-06 -1.61366e-06)
(-7.65526e-06 -1.2561e-05 -1.90169e-06)
(-8.27491e-06 -1.44884e-05 -1.35244e-06)
(-8.91137e-06 -1.53072e-05 -1.94678e-06)
(-1.27449e-05 -2.40491e-05 -1.98431e-06)
(-1.33795e-05 -2.61291e-05 -1.39855e-06)
(-5.23023e-06 -9.57214e-06 3.42243e-07)
(-5.81369e-06 -1.031e-05 -1.77648e-07)
(-6.41184e-06 -1.20875e-05 3.60702e-07)
(-1.01799e-05 -2.05544e-05 3.88128e-07)
(-1.08213e-05 -2.14323e-05 -2.0087e-07)
(-1.14625e-05 -2.35222e-05 3.90578e-07)
(-3.58863e-06 -5.84988e-06 -1.50347e-07)
(-4.11531e-06 -7.29013e-06 3.18135e-07)
(-5.25584e-06 -7.60859e-06 -1.73816e-06)
(-6.4312e-06 -9.97757e-06 -1.83326e-06)
(-5.82513e-06 -9.28475e-06 -1.25319e-06)
(-8.26895e-06 -1.56339e-05 -1.93562e-07)
(-7.64145e-06 -1.47899e-05 3.74047e-07)
(-8.90228e-06 -1.76289e-05 3.82928e-07)
(-1.01852e-05 -1.8165e-05 -1.97251e-06)
(-1.14651e-05 -2.10886e-05 -1.98358e-06)
(-1.08236e-05 -2.02182e-05 -1.39236e-06)
(-1.33783e-05 -2.73697e-05 -2.02222e-07)
(-1.27484e-05 -2.65164e-05 3.91331e-07)
(-4.12008e-06 -6.42533e-06 -6.3801e-07)
(-4.67755e-06 -7.00544e-06 -1.17512e-06)
(-7.03016e-06 -1.17955e-05 -1.31158e-06)
(-7.64379e-06 -1.36891e-05 -7.57349e-07)
(-8.90402e-06 -1.64759e-05 -7.76936e-07)
(-9.54374e-06 -1.73121e-05 -1.37836e-06)
(-1.21045e-05 -2.31674e-05 -1.39798e-06)
(-1.27488e-05 -2.52835e-05 -7.9714e-07)
(-4.66285e-06 -7.94986e-06 -1.65561e-07)
(-5.2341e-06 -8.61537e-06 -6.89122e-07)
(-6.41489e-06 -1.10521e-05 -7.28532e-07)
(-7.02165e-06 -1.28876e-05 -1.86874e-07)
(-9.5399e-06 -1.8498e-05 -1.98091e-07)
(-1.01811e-05 -1.93624e-05 -7.88884e-07)
(-1.14634e-05 -2.23045e-05 -7.94996e-07)
(-1.21035e-05 -2.43988e-05 -2.02273e-07)
(-4.13132e-06 -5.96639e-06 -1.12815e-06)
(-5.22995e-06 -9.09991e-06 -1.7198e-07)
(-4.11489e-06 -6.865e-06 -1.58359e-07)
(-5.24298e-06 -8.11328e-06 -1.21674e-06)
(-7.6486e-06 -1.31224e-05 -1.33406e-06)
(-6.41169e-06 -1.15746e-05 -1.826e-07)
(-6.42162e-06 -1.05142e-05 -1.28472e-06)
(-7.64142e-06 -1.42429e-05 -1.90513e-07)
(-8.9072e-06 -1.58871e-05 -1.3671e-06)
(-1.018e-05 -1.99591e-05 -1.99674e-07)
(-8.90235e-06 -1.70544e-05 -1.96071e-07)
(-1.0183e-05 -1.87576e-05 -1.38664e-06)
(-1.27491e-05 -2.46622e-05 -1.39901e-06)
(-1.14627e-05 -2.29132e-05 -2.01727e-07)
(-1.14643e-05 -2.16892e-05 -1.39598e-06)
(-1.27484e-05 -2.58991e-05 -2.02388e-07)
(-4.14677e-06 -5.25208e-06 -1.88278e-06)
(-5.78511e-06 -9.94449e-06 -5.40001e-07)
(-4.07505e-06 -6.56145e-06 -4.48775e-07)
(-5.84593e-06 -8.43382e-06 -2.15812e-06)
(-3.60038e-06 -5.23052e-06 -8.20259e-07)
(-5.25265e-06 -9.9452e-06 7.11874e-07)
(-3.61997e-06 -6.5625e-06 6.05301e-07)
(-5.2286e-06 -8.41877e-06 -8.67727e-07)
(-8.30391e-06 -1.35098e-05 -2.39656e-06)
(-6.38749e-06 -1.11921e-05 -5.65695e-07)
(-6.44438e-06 -9.62518e-06 -2.23134e-06)
(-8.25898e-06 -1.5214e-05 -6.25786e-07)
(-7.62315e-06 -1.35021e-05 -8.90283e-07)
(-5.83282e-06 -1.11927e-05 7.41356e-07)
(-5.80801e-06 -9.61213e-06 -8.76724e-07)
(-7.64847e-06 -1.52143e-05 8.09237e-07)
(-8.93837e-06 -1.48869e-05 -2.43443e-06)
(-1.08299e-05 -2.09941e-05 -6.65512e-07)
(-8.89724e-06 -1.66267e-05 -6.39886e-07)
(-1.08613e-05 -1.91759e-05 -2.50392e-06)
(-8.2467e-06 -1.48807e-05 -8.91766e-07)
(-1.01707e-05 -2.09941e-05 8.52532e-07)
(-8.27176e-06 -1.6627e-05 8.24864e-07)
(-1.01468e-05 -1.91734e-05 -8.9161e-07)
(-1.3439e-05 -2.51037e-05 -2.52619e-06)
(-1.14752e-05 -2.24746e-05 -6.6933e-07)
(-1.15042e-05 -2.06393e-05 -2.51502e-06)
(-1.3421e-05 -2.69766e-05 -6.78968e-07)
(-1.27136e-05 -2.51023e-05 -8.91875e-07)
(-1.08084e-05 -2.24746e-05 8.5641e-07)
(-1.0785e-05 -2.06377e-05 -8.90734e-07)
(-1.2735e-05 -2.69767e-05 8.67098e-07)
(-4.1085e-06 -5.71453e-06 -1.37573e-06)
(-4.69468e-06 -6.24209e-06 -1.98379e-06)
(-4.65801e-06 -6.72814e-06 -1.45266e-06)
(-5.19727e-06 -8.75337e-06 -5.11775e-07)
(-5.81419e-06 -9.46011e-06 -1.10096e-06)
(-5.22628e-06 -8.29066e-06 -1.05299e-06)
(-4.10355e-06 -6.14711e-06 -9.43184e-07)
(-4.6264e-06 -7.62407e-06 -4.8127e-07)
(-4.65523e-06 -7.18471e-06 -1.00032e-06)
(-5.26191e-06 -7.30431e-06 -2.0756e-06)
(-5.81268e-06 -8.96102e-06 -1.5864e-06)
(-5.22691e-06 -7.81193e-06 -1.52293e-06)
(-3.6081e-06 -5.7011e-06 -3.43288e-07)
(-4.12228e-06 -6.22278e-06 -8.40031e-07)
(-4.13158e-06 -6.7161e-06 -3.44524e-07)
(-4.68881e-06 -8.75419e-06 6.79212e-07)
(-5.22677e-06 -9.45555e-06 2.28067e-07)
(-4.66336e-06 -8.28547e-06 2.08723e-07)
(-3.5958e-06 -6.1406e-06 1.67558e-07)
(-4.14374e-06 -7.62501e-06 6.43599e-07)
(-4.11885e-06 -7.17887e-06 1.88431e-07)
(-4.66587e-06 -7.28717e-06 -8.55672e-07)
(-5.2405e-06 -8.95162e-06 -3.41869e-07)
(-4.67656e-06 -7.80124e-06 -3.43905e-07)
(-7.67547e-06 -1.21695e-05 -2.35034e-06)
(-8.27782e-06 -1.40966e-05 -1.7718e-06)
(-7.64762e-06 -1.27441e-05 -1.73557e-06)
(-6.41653e-06 -1.06877e-05 -1.14406e-06)
(-7.00206e-06 -1.24903e-05 -5.88646e-07)
(-7.03095e-06 -1.19676e-05 -1.18216e-06)
(-7.05494e-06 -1.08725e-05 -2.29536e-06)
(-6.41291e-06 -1.017e-05 -1.64299e-06)
(-7.02529e-06 -1.14331e-05 -1.69269e-06)
(-8.28735e-06 -1.46597e-05 -1.24327e-06)
(-7.62659e-06 -1.38331e-05 -6.08705e-07)
(-7.65526e-06 -1.32937e-05 -1.21522e-06)
(-7.00748e-06 -1.21602e-05 -8.87543e-07)
(-7.6382e-06 -1.40918e-05 -3.27422e-07)
(-7.02197e-06 -1.27382e-05 -3.31286e-07)
(-5.80664e-06 -1.06837e-05 2.46124e-07)
(-6.42697e-06 -1.24908e-05 7.67478e-07)
(-6.40062e-06 -1.19642e-05 2.62599e-07)
(-6.40172e-06 -1.08613e-05 -8.83169e-07)
(-5.82094e-06 -1.01619e-05 -3.38834e-07)
(-6.41551e-06 -1.14261e-05 -3.3519e-07)
(-7.62208e-06 -1.46573e-05 2.89897e-07)
(-7.03289e-06 -1.38335e-05 7.90121e-07)
(-7.00647e-06 -1.32908e-05 2.77248e-07)
(-8.91398e-06 -1.54842e-05 -1.80165e-06)
(-9.57712e-06 -1.62942e-05 -2.46448e-06)
(-9.55432e-06 -1.69006e-05 -1.82549e-06)
(-1.01843e-05 -1.95225e-05 -6.59541e-07)
(-1.08569e-05 -2.03965e-05 -1.30958e-06)
(-1.02116e-05 -1.89333e-05 -1.29921e-06)
(-8.92527e-06 -1.60591e-05 -1.26644e-06)
(-9.53955e-06 -1.80649e-05 -6.51083e-07)
(-9.56723e-06 -1.74856e-05 -1.28497e-06)
(-1.02186e-05 -1.77258e-05 -2.48738e-06)
(-1.08413e-05 -1.97958e-05 -1.8572e-06)
(-1.01972e-05 -1.83396e-05 -1.84381e-06)
(-8.26218e-06 -1.54803e-05 -3.23833e-07)
(-8.87627e-06 -1.62895e-05 -8.92313e-07)
(-8.89208e-06 -1.68975e-05 -3.20691e-07)
(-9.53442e-06 -1.95226e-05 8.46243e-07)
(-1.01448e-05 -2.03957e-05 3.19788e-07)
(-9.50839e-06 -1.89321e-05 3.15276e-07)
(-8.24546e-06 -1.60571e-05 3.00447e-07)
(-8.90096e-06 -1.80651e-05 8.37126e-07)
(-8.87478e-06 -1.74841e-05 3.08882e-07)
(-9.51016e-06 -1.77223e-05 -8.92192e-07)
(-1.01631e-05 -1.97941e-05 -3.16102e-07)
(-9.52622e-06 -1.83373e-05 -3.18102e-07)
(-1.27869e-05 -2.35909e-05 -2.52503e-06)
(-1.34282e-05 -2.57431e-05 -1.88338e-06)
(-1.27698e-05 -2.42224e-05 -1.87504e-06)
(-1.15019e-05 -2.18704e-05 -1.31661e-06)
(-1.21191e-05 -2.396e-05 -6.71396e-07)
(-1.21456e-05 -2.33509e-05 -1.32088e-06)
(-1.21461e-05 -2.21119e-05 -2.52169e-06)
(-1.14852e-05 -2.1264e-05 -1.86636e-06)
(-1.21281e-05 -2.27402e-05 -1.87205e-06)
(-1.34435e-05 -2.63561e-05 -1.32687e-06)
(-1.27617e-05 -2.5449e-05 -6.72215e-07)
(-1.27878e-05 -2.48359e-05 -1.32302e-06)
(-1.20617e-05 -2.35904e-05 -8.88832e-07)
(-1.27293e-05 -2.5743e-05 -3.07306e-07)
(-1.20785e-05 -2.42221e-05 -3.13255e-07)
(-1.07827e-05 -2.18699e-05 3.22662e-07)
(-1.14466e-05 -2.39601e-05 8.58378e-07)
(-1.14209e-05 -2.33505e-05 3.24217e-07)
(-1.14234e-05 -2.2111e-05 -8.89737e-07)
(-1.08013e-05 -2.12629e-05 -3.14671e-07)
(-1.14399e-05 -2.27395e-05 -3.1375e-07)
(-1.27094e-05 -2.63561e-05 3.28829e-07)
(-1.20849e-05 -2.54491e-05 8.59046e-07)
(-1.20592e-05 -2.48358e-05 3.24841e-07)
(-3.88356e-06 -5.02008e-06 -1.57767e-06)
(-7.96689e-06 -1.32344e-05 -1.91501e-06)
(-8.27745e-06 -1.41992e-05 -1.64335e-06)
(-8.59516e-06 -1.46083e-05 -1.93748e-06)
(-1.30689e-05 -2.4804e-05 -1.9822e-06)
(-1.33761e-05 -2.58017e-05 -1.70759e-06)
(-6.07009e-06 -1.0805e-05 -2.63401e-07)
(-5.55693e-06 -1.08076e-05 9.65129e-07)
(-5.52014e-06 -1.01808e-05 3.47368e-07)
(-5.81335e-06 -1.05576e-05 8.68755e-08)
(-6.11124e-06 -1.14392e-05 3.56589e-07)
(-1.1137e-05 -2.20338e-05 -3.38888e-07)
(-1.05052e-05 -2.20342e-05 1.11446e-06)
(-1.05005e-05 -2.12939e-05 3.88958e-07)
(-1.08212e-05 -2.17331e-05 9.37919e-08)
(-1.11419e-05 -2.27783e-05 3.90167e-07)
(-3.58816e-06 -6.05108e-06 7.65034e-08)
(-3.79493e-06 -6.2517e-06 -1.87398e-07)
(-3.38209e-06 -6.25609e-06 7.93235e-07)
(-3.84934e-06 -6.76081e-06 3.11177e-07)
(-5.54413e-06 -8.17804e-06 -1.76459e-06)
(-6.1321e-06 -9.36327e-06 -1.8121e-06)
(-5.83039e-06 -9.02153e-06 -1.52432e-06)
(-8.2687e-06 -1.59148e-05 9.22308e-08)
(-7.95434e-06 -1.54889e-05 3.76658e-07)
(-8.56206e-06 -1.61955e-05 -3.16629e-07)
(-7.97535e-06 -1.61968e-05 1.07146e-06)
(-8.58498e-06 -1.69091e-05 3.81086e-07)
(-1.0505e-05 -1.88913e-05 -1.97645e-06)
(-1.11451e-05 -2.03536e-05 -1.9819e-06)
(-1.08243e-05 -1.99152e-05 -1.69006e-06)
(-1.33779e-05 -2.76782e-05 9.41598e-08)
(-3.59949e-06 -5.22103e-06 -8.39084e-07)
(-3.59071e-06 -5.64471e-06 -3.78313e-07)
(-3.84257e-06 -5.44776e-06 -1.13268e-06)
(-3.34373e-06 -5.4369e-06 -8.2544e-08)
(-3.85434e-06 -5.92109e-06 -6.23295e-07)
(-4.41739e-06 -6.00123e-06 -1.64766e-06)
(-4.97176e-06 -7.05553e-06 -1.70988e-06)
(-4.6844e-06 -6.76063e-06 -1.43021e-06)
(-7.34562e-06 -1.18978e-05 -1.88691e-06)
(-6.73334e-06 -1.06053e-05 -1.85275e-06)
(-7.03397e-06 -1.15176e-05 -1.59451e-06)
(-8.27263e-06 -1.47803e-05 -1.05764e-06)
(-8.26971e-06 -1.53514e-05 -4.80283e-07)
(-7.95652e-06 -1.43738e-05 -7.63053e-07)
(-8.60639e-06 -1.50718e-05 -1.53505e-06)
(-7.93473e-06 -1.50684e-05 -9.35528e-10)
(-8.58685e-06 -1.5768e-05 -7.72822e-07)
(-9.22867e-06 -1.60131e-05 -1.95486e-06)
(-9.86576e-06 -1.74427e-05 -1.96764e-06)
(-9.54525e-06 -1.70147e-05 -1.67397e-06)
(-1.24243e-05 -2.33038e-05 -1.98552e-06)
(-1.1785e-05 -2.18254e-05 -1.9847e-06)
(-1.21046e-05 -2.28609e-05 -1.696e-06)
(-1.33796e-05 -2.64429e-05 -1.09606e-06)
(-1.33787e-05 -2.70612e-05 -4.99276e-07)
(-1.30792e-05 -2.60529e-05 -7.97252e-07)
(-1.37267e-05 -2.67519e-05 -1.58143e-06)
(-1.30316e-05 -2.67522e-05 -1.34228e-08)
(-4.94448e-06 -8.97811e-06 3.36765e-07)
(-4.3867e-06 -7.83649e-06 3.24714e-07)
(-4.66245e-06 -8.1759e-06 8.23714e-08)
(-4.89585e-06 -8.40156e-06 -2.27194e-07)
(-4.42956e-06 -8.40506e-06 8.86818e-07)
(-5.81504e-06 -1.00595e-05 -4.43232e-07)
(-5.82058e-06 -9.54812e-06 -9.78958e-07)
(-5.5238e-06 -9.20313e-06 -7.00032e-07)
(-6.11744e-06 -9.81438e-06 -1.38093e-06)
(-5.51576e-06 -9.80764e-06 -3.91256e-08)
(-6.11449e-06 -1.04222e-05 -7.1972e-07)
(-6.71543e-06 -1.27475e-05 3.64494e-07)
(-7.3305e-06 -1.40995e-05 3.71157e-07)
(-7.29812e-06 -1.34192e-05 -2.93747e-07)
(-7.02136e-06 -1.31535e-05 9.0118e-08)
(-6.74476e-06 -1.34211e-05 1.02682e-06)
(-9.85959e-06 -1.98175e-05 3.87125e-07)
(-9.22062e-06 -1.8354e-05 3.84539e-07)
(-9.53968e-06 -1.87905e-05 9.33807e-08)
(-9.84611e-06 -1.90829e-05 -3.31466e-07)
(-9.23315e-06 -1.90837e-05 1.0999e-06)
(-1.08217e-05 -2.1131e-05 -4.9626e-07)
(-1.08228e-05 -2.05258e-05 -1.09001e-06)
(-1.05016e-05 -2.00943e-05 -7.90885e-07)
(-1.11778e-05 -2.08306e-05 -1.60254e-06)
(-1.04663e-05 -2.08296e-05 1.78819e-08)
(-1.11428e-05 -2.15658e-05 -7.93912e-07)
(-1.1783e-05 -2.42669e-05 3.90883e-07)
(-1.24242e-05 -2.576e-05 3.91245e-07)
(-1.24247e-05 -2.50096e-05 -3.40816e-07)
(-1.21034e-05 -2.47047e-05 9.37894e-08)
(-1.17812e-05 -2.50098e-05 1.11909e-06)
(-4.94378e-06 -7.49757e-06 -1.2682e-06)
(-4.38928e-06 -7.48885e-06 -6.16111e-08)
(-4.39124e-06 -6.94744e-06 -6.51937e-07)
(-4.67165e-06 -7.24918e-06 -9.17392e-07)
(-4.66455e-06 -7.7203e-06 -4.14591e-07)
(-4.94857e-06 -8.04308e-06 -6.7748e-07)
(-7.34418e-06 -1.23554e-05 -1.46985e-06)
(-6.70355e-06 -1.23505e-05 -1.81166e-08)
(-7.02682e-06 -1.20749e-05 -1.02515e-06)
(-7.33301e-06 -1.30138e-05 -7.51073e-07)
(-6.7183e-06 -1.16945e-05 -7.36682e-07)
(-7.02269e-06 -1.26194e-05 -4.6487e-07)
(-9.88858e-06 -1.79128e-05 -1.57818e-06)
(-9.19344e-06 -1.79107e-05 1.1097e-08)
(-9.22222e-06 -1.71901e-05 -7.80573e-07)
(-9.54234e-06 -1.76133e-05 -1.07847e-06)
(-9.54043e-06 -1.82045e-05 -4.90394e-07)
(-9.86095e-06 -1.8634e-05 -7.86518e-07)
(-1.24644e-05 -2.37863e-05 -1.61294e-06)
(-1.17429e-05 -2.37859e-05 2.04939e-08)
(-1.21043e-05 -2.34791e-05 -1.09491e-06)
(-1.24249e-05 -2.45307e-05 -7.96877e-07)
(-1.17837e-05 -2.30446e-05 -7.95835e-07)
(-1.21037e-05 -2.40927e-05 -4.98981e-07)
(-4.38761e-06 -5.98062e-06 -1.64785e-06)
(-5.5062e-06 -9.10659e-06 -8.08775e-07)
(-4.3644e-06 -6.8728e-06 -7.24857e-07)
(-5.52236e-06 -8.12553e-06 -1.8067e-06)
(-3.87296e-06 -5.96493e-06 -6.03965e-07)
(-4.95203e-06 -9.1046e-06 4.65762e-07)
(-3.86328e-06 -6.87029e-06 4.0912e-07)
(-4.96198e-06 -8.11317e-06 -6.21856e-07)
(-7.96181e-06 -1.31308e-05 -2.02978e-06)
(-6.7108e-06 -1.158e-05 -8.78217e-07)
(-6.71989e-06 -1.05244e-05 -1.93387e-06)
(-7.95952e-06 -1.4247e-05 -9.31892e-07)
(-7.33453e-06 -1.31242e-05 -6.32781e-07)
(-6.11131e-06 -1.15785e-05 5.1391e-07)
(-6.12213e-06 -1.05151e-05 -6.30299e-07)
(-7.32241e-06 -1.42459e-05 5.5168e-07)
(-9.2317e-06 -1.58937e-05 -2.09625e-06)
(-1.05246e-05 -1.99608e-05 -9.92698e-07)
(-9.23559e-06 -1.70571e-05 -9.69628e-07)
(-1.05155e-05 -1.87627e-05 -2.13688e-06)
(-8.58214e-06 -1.58894e-05 -6.32172e-07)
(-9.83511e-06 -1.99603e-05 5.93967e-07)
(-8.56851e-06 -1.70564e-05 5.78209e-07)
(-9.85017e-06 -1.87604e-05 -6.3047e-07)
(-1.30878e-05 -2.46618e-05 -2.16385e-06)
(-1.18148e-05 -2.2914e-05 -1.00385e-06)
(-1.18019e-05 -2.16932e-05 -2.15709e-06)
(-1.31023e-05 -2.58937e-05 -1.00709e-06)
(-1.24069e-05 -2.46614e-05 -6.277e-07)
(-1.11104e-05 -2.29138e-05 6.00893e-07)
(-1.11265e-05 -2.16922e-05 -6.2878e-07)
(-1.23895e-05 -2.58937e-05 6.02552e-07)
(-3.84997e-06 -5.01593e-06 -1.55675e-06)
(-3.36142e-06 -4.99849e-06 -5.90297e-07)
(-3.8662e-06 -5.47412e-06 -1.1026e-06)
(-4.13902e-06 -5.73224e-06 -1.3735e-06)
(-7.65175e-06 -1.28384e-05 -1.62141e-06)
(-7.96089e-06 -1.38009e-05 -1.34374e-06)
(-8.5942e-06 -1.44959e-05 -2.06651e-06)
(-7.95492e-06 -1.44905e-05 -6.32717e-07)
(-8.59041e-06 -1.51841e-05 -1.36022e-06)
(-8.90919e-06 -1.55934e-05 -1.66072e-06)
(-1.27478e-05 -2.43518e-05 -1.69697e-06)
(-1.308e-05 -2.54312e-05 -1.39943e-06)
(-1.37227e-05 -2.61366e-05 -2.16542e-06)
(-1.30373e-05 -2.61341e-05 -6.22255e-07)
(-5.22957e-06 -9.33713e-06 8.47882e-08)
(-5.47506e-06 -9.57405e-06 -2.45904e-07)
(-4.98451e-06 -9.57713e-06 9.27984e-07)
(-5.51989e-06 -9.6978e-06 -1.74905e-07)
(-6.10186e-06 -1.03161e-05 -8.45409e-07)
(-5.52406e-06 -1.03143e-05 4.91035e-07)
(-6.11105e-06 -1.09359e-05 -1.80211e-07)
(-6.67855e-06 -1.20887e-05 -2.79428e-07)
(-6.41137e-06 -1.18317e-05 8.8647e-08)
(-6.14444e-06 -1.2091e-05 9.98104e-07)
(-1.01798e-05 -2.02562e-05 9.36613e-08)
(-1.04914e-05 -2.05531e-05 -3.36014e-07)
(-9.86808e-06 -2.05537e-05 1.10871e-06)
(-1.05006e-05 -2.06945e-05 -2.00317e-07)
(-1.11701e-05 -2.14335e-05 -9.99539e-07)
(-1.04723e-05 -2.14332e-05 5.98356e-07)
(-1.11421e-05 -2.2172e-05 -2.01338e-07)
(-1.17817e-05 -2.35204e-05 -3.40362e-07)
(-1.14626e-05 -2.32169e-05 9.3816e-08)
(-1.11432e-05 -2.35206e-05 1.11771e-06)
(-3.8233e-06 -5.85816e-06 -6.7809e-07)
(-3.35163e-06 -5.85539e-06 3.78388e-07)
(-3.84888e-06 -6.34845e-06 -1.54456e-07)
(-4.11445e-06 -7.07903e-06 7.96133e-08)
(-4.33495e-06 -7.29259e-06 -2.07584e-07)
(-3.89456e-06 -7.29653e-06 8.41826e-07)
(-5.24902e-06 -7.85879e-06 -1.4804e-06)
(-6.42613e-06 -1.02431e-05 -1.56226e-06)
(-5.53212e-06 -8.6914e-06 -1.23559e-06)
(-6.11447e-06 -9.29601e-06 -1.87425e-06)
(-5.53439e-06 -9.28521e-06 -6.27031e-07)
(-6.12173e-06 -9.89259e-06 -1.26956e-06)
(-7.95434e-06 -1.49343e-05 -1.92108e-07)
(-8.5951e-06 -1.56373e-05 -9.52708e-07)
(-7.94205e-06 -1.56364e-05 5.66354e-07)
(-8.58503e-06 -1.63408e-05 -1.94881e-07)
(-7.92665e-06 -1.47903e-05 -3.06184e-07)
(-7.64115e-06 -1.45166e-05 9.13062e-08)
(-7.35574e-06 -1.47919e-05 1.05125e-06)
(-8.90212e-06 -1.73414e-05 9.29138e-08)
(-9.20247e-06 -1.76284e-05 -3.25043e-07)
(-8.60173e-06 -1.76294e-05 1.0876e-06)
(-1.01841e-05 -1.84571e-05 -1.68358e-06)
(-1.14647e-05 -2.13844e-05 -1.694e-06)
(-1.05032e-05 -1.94863e-05 -1.3898e-06)
(-1.1159e-05 -2.02227e-05 -2.14913e-06)
(-1.04879e-05 -2.02211e-05 -6.29582e-07)
(-1.1144e-05 -2.09526e-05 -1.3944e-06)
(-1.30787e-05 -2.667e-05 -2.02079e-07)
(-1.37226e-05 -2.73709e-05 -9.77719e-07)
(-1.30339e-05 -2.73713e-05 5.75845e-07)
(-1.30703e-05 -2.651e-05 -3.41131e-07)
(-1.27486e-05 -2.62073e-05 9.39188e-08)
(-1.24228e-05 -2.65102e-05 1.11977e-06)
(-4.38285e-06 -6.43694e-06 -1.20319e-06)
(-4.1247e-06 -6.1989e-06 -8.80404e-07)
(-4.11678e-06 -6.6472e-06 -3.9744e-07)
(-3.85512e-06 -6.42717e-06 -7.24768e-08)
(-4.94592e-06 -7.01869e-06 -1.7312e-06)
(-4.40188e-06 -6.47701e-06 -1.15232e-06)
(-4.95803e-06 -7.55107e-06 -1.19659e-06)
(-4.40734e-06 -7.00469e-06 -6.14325e-07)
(-7.33638e-06 -1.18048e-05 -1.98566e-06)
(-7.33827e-06 -1.24537e-05 -1.32335e-06)
(-6.72452e-06 -1.11487e-05 -1.29872e-06)
(-6.72292e-06 -1.17969e-05 -6.32087e-07)
(-7.97187e-06 -1.36949e-05 -1.50534e-06)
(-7.64581e-06 -1.34084e-05 -1.04298e-06)
(-7.64231e-06 -1.39671e-05 -4.73301e-07)
(-7.31476e-06 -1.36907e-05 -8.93755e-09)
(-9.24586e-06 -1.64798e-05 -1.55921e-06)
(-8.90538e-06 -1.6184e-05 -1.06937e-06)
(-8.903e-06 -1.67659e-05 -4.85938e-07)
(-8.56154e-06 -1.64772e-05 5.76034e-09)
(-9.87265e-06 -1.73179e-05 -2.1195e-06)
(-9.22504e-06 -1.65967e-05 -1.37313e-06)
(-9.86312e-06 -1.80326e-05 -1.38285e-06)
(-9.21443e-06 -1.73147e-05 -6.31369e-07)
(-1.24436e-05 -2.31706e-05 -2.16164e-06)
(-1.24252e-05 -2.39103e-05 -1.39854e-06)
(-1.17845e-05 -2.24275e-05 -1.39715e-06)
(-1.1765e-05 -2.317e-05 -6.28143e-07)
(-1.31085e-05 -2.52782e-05 -1.61473e-06)
(-1.27493e-05 -2.49756e-05 -1.0959e-06)
(-1.27484e-05 -2.55911e-05 -4.99371e-07)
(-1.2384e-05 -2.52781e-05 2.09526e-08)
(-4.92622e-06 -7.95713e-06 -7.6851e-07)
(-4.94417e-06 -8.51705e-06 -1.68866e-07)
(-4.38632e-06 -7.39898e-06 -1.62059e-07)
(-4.3976e-06 -7.95488e-06 4.38355e-07)
(-5.5228e-06 -8.62509e-06 -1.3275e-06)
(-5.23147e-06 -8.85942e-06 -4.2983e-07)
(-5.23777e-06 -8.3673e-06 -9.5019e-07)
(-4.94366e-06 -8.61738e-06 -5.03613e-08)
(-6.72531e-06 -1.10598e-05 -1.42838e-06)
(-6.41287e-06 -1.13148e-05 -4.54881e-07)
(-6.41769e-06 -1.0786e-05 -1.00388e-06)
(-6.10315e-06 -1.1054e-05 -2.82693e-08)
(-7.33074e-06 -1.28924e-05 -9.07071e-07)
(-6.71531e-06 -1.22254e-05 -1.84819e-07)
(-7.33044e-06 -1.35604e-05 -1.8877e-07)
(-6.71148e-06 -1.28911e-05 5.34175e-07)
(-9.87926e-06 -1.85002e-05 -9.82858e-07)
(-9.85973e-06 -1.92267e-05 -1.98933e-07)
(-9.22071e-06 -1.77737e-05 -1.97139e-07)
(-9.20005e-06 -1.84996e-05 5.87348e-07)
(-1.0533e-05 -1.93648e-05 -1.59243e-06)
(-1.01805e-05 -1.96613e-05 -4.93789e-07)
(-1.0182e-05 -1.90623e-05 -1.08524e-06)
(-9.82883e-06 -1.93633e-05 1.51028e-08)
(-1.18219e-05 -2.23056e-05 -1.60915e-06)
(-1.1463e-05 -2.26091e-05 -4.97949e-07)
(-1.14638e-05 -2.1999e-05 -1.09311e-06)
(-1.11046e-05 -2.2305e-05 1.9606e-08)
(-1.24578e-05 -2.43986e-05 -1.00615e-06)
(-1.17832e-05 -2.36554e-05 -2.02038e-07)
(-1.24245e-05 -2.51449e-05 -2.02413e-07)
(-1.17485e-05 -2.43985e-05 6.02032e-07)
(-6.37279e-06 -1.14406e-05 -2.71615e-07)
(-8.24362e-06 -1.5489e-05 -3.1166e-07)
(-1.14595e-05 -2.27766e-05 -3.39774e-07)
(-3.8075e-06 -6.05649e-06 -4.31876e-07)
(-3.34837e-06 -4.76281e-06 -8.08656e-07)
(-3.36687e-06 -6.05761e-06 5.85235e-07)
(-3.87433e-06 -5.24568e-06 -1.34263e-06)
(-4.11605e-06 -5.48884e-06 -1.60326e-06)
(-4.41816e-06 -5.73778e-06 -1.93443e-06)
(-5.51953e-06 -9.9403e-06 8.58722e-08)
(-5.77075e-06 -1.01825e-05 -2.54818e-07)
(-6.08463e-06 -1.05616e-05 -5.53179e-07)
(-5.48922e-06 -9.34153e-06 -5.2619e-07)
(-5.80222e-06 -9.70418e-06 -8.2756e-07)
(-3.84843e-06 -6.55618e-06 7.81027e-08)
(-4.06217e-06 -6.76338e-06 -1.97542e-07)
(-4.09109e-06 -6.3565e-06 -7.01845e-07)
(-4.34813e-06 -7.08415e-06 -4.65253e-07)
(-5.53776e-06 -8.43243e-06 -1.50313e-06)
(-6.1435e-06 -9.02213e-06 -2.19589e-06)
(-5.55197e-06 -7.86098e-06 -2.11802e-06)
(-5.81661e-06 -8.70316e-06 -1.84147e-06)
(-3.61417e-06 -5.47228e-06 -5.97574e-07)
(-3.85846e-06 -5.71736e-06 -8.30695e-07)
(-5.26869e-06 -1.01854e-05 9.4707e-07)
(-5.54085e-06 -1.05622e-05 7.27025e-07)
(-4.96854e-06 -9.34229e-06 6.95927e-07)
(-5.236e-06 -9.70231e-06 4.78683e-07)
(-3.63535e-06 -6.76753e-06 8.17965e-07)
(-3.60446e-06 -6.35387e-06 3.93919e-07)
(-3.87903e-06 -7.08514e-06 6.24768e-07)
(-5.51637e-06 -9.00809e-06 -8.72575e-07)
(-4.945e-06 -7.8449e-06 -8.62114e-07)
(-5.24612e-06 -8.69159e-06 -6.24709e-07)
(-7.96373e-06 -1.35143e-05 -1.63297e-06)
(-8.6205e-06 -1.41942e-05 -2.41651e-06)
(-7.98882e-06 -1.28347e-05 -2.37452e-06)
(-8.27725e-06 -1.38088e-05 -2.04905e-06)
(-6.11073e-06 -1.11883e-05 8.77998e-08)
(-6.40482e-06 -1.09416e-05 -8.62302e-07)
(-6.69339e-06 -1.18352e-05 -5.77524e-07)
(-6.12661e-06 -9.62535e-06 -1.54402e-06)
(-6.74828e-06 -1.02422e-05 -2.26449e-06)
(-6.41566e-06 -9.90335e-06 -1.90505e-06)
(-7.95408e-06 -1.52117e-05 9.18001e-08)
(-8.57749e-06 -1.59168e-05 -6.33206e-07)
(-8.27658e-06 -1.49381e-05 -9.42789e-07)
(-7.94193e-06 -1.45192e-05 -6.1762e-07)
(-7.93406e-06 -1.41872e-05 -8.9116e-07)
(-7.31421e-06 -1.28262e-05 -8.89092e-07)
(-7.64376e-06 -1.38029e-05 -6.32824e-07)
(-5.84895e-06 -1.14431e-05 9.82145e-07)
(-5.81593e-06 -1.094e-05 5.02787e-07)
(-6.12829e-06 -1.18358e-05 7.54846e-07)
(-6.10322e-06 -1.02301e-05 -8.80234e-07)
(-5.82649e-06 -9.89331e-06 -6.28876e-07)
(-7.95927e-06 -1.59171e-05 8.17481e-07)
(-7.66459e-06 -1.54905e-05 1.06188e-06)
(-7.63126e-06 -1.49371e-05 5.59373e-07)
(-7.3396e-06 -1.45195e-05 8.0012e-07)
(-8.59268e-06 -1.48925e-05 -1.65258e-06)
(-8.91242e-06 -1.51911e-05 -2.08223e-06)
(-9.25731e-06 -1.55872e-05 -2.4504e-06)
(-1.05004e-05 -2.09936e-05 9.37428e-08)
(-1.08142e-05 -2.12925e-05 -3.37645e-07)
(-1.11527e-05 -2.17335e-05 -6.67658e-07)
(-1.0507e-05 -2.02569e-05 -6.6281e-07)
(-1.08474e-05 -2.06959e-05 -9.96466e-07)
(-8.58479e-06 -1.66249e-05 9.26009e-08)
(-8.88175e-06 -1.69089e-05 -3.21089e-07)
(-8.91485e-06 -1.63439e-05 -9.61644e-07)
(-9.218e-06 -1.7343e-05 -6.45839e-07)
(-1.05041e-05 -1.91845e-05 -1.68718e-06)
(-1.11828e-05 -1.99062e-05 -2.51008e-06)
(-1.05399e-05 -1.84489e-05 -2.4964e-06)
(-1.08373e-05 -1.94911e-05 -2.1436e-06)
(-8.26779e-06 -1.51863e-05 -6.32489e-07)
(-8.56084e-06 -1.55817e-05 -8.92138e-07)
(-1.01864e-05 -2.12929e-05 1.11194e-06)
(-1.04894e-05 -2.17335e-05 8.54743e-07)
(-9.85228e-06 -2.0257e-05 8.49718e-07)
(-1.01535e-05 -2.06956e-05 5.96418e-07)
(-8.2878e-06 -1.691e-05 1.08003e-06)
(-8.25454e-06 -1.63431e-05 5.7263e-07)
(-8.58573e-06 -1.73432e-05 8.31404e-07)
(-1.04658e-05 -1.99042e-05 -8.91199e-07)
(-9.82823e-06 -1.84459e-05 -8.91948e-07)
(-1.01689e-05 -1.94892e-05 -6.30019e-07)
(-1.3078e-05 -2.51157e-05 -1.70029e-06)
(-1.37418e-05 -2.58019e-05 -2.53193e-06)
(-1.31091e-05 -2.43376e-05 -2.52581e-06)
(-1.34241e-05 -2.54363e-05 -2.17054e-06)
(-1.11419e-05 -2.24744e-05 9.38142e-08)
(-1.14926e-05 -2.2173e-05 -1.00198e-06)
(-1.17974e-05 -2.32169e-05 -6.70548e-07)
(-1.11445e-05 -2.06487e-05 -1.69232e-06)
(-1.18253e-05 -2.13747e-05 -2.51884e-06)
(-1.14806e-05 -2.09569e-05 -2.1536e-06)
(-1.30789e-05 -2.69791e-05 9.43628e-08)
(-1.37135e-05 -2.76796e-05 -6.60926e-07)
(-1.34359e-05 -2.6666e-05 -1.01131e-06)
(-1.30856e-05 -2.62017e-05 -6.72524e-07)
(-1.30226e-05 -2.57913e-05 -9.20691e-07)
(-1.23834e-05 -2.43372e-05 -8.89072e-07)
(-1.27371e-05 -2.54353e-05 -6.22388e-07)
(-1.08241e-05 -2.27769e-05 1.11636e-06)
(-1.07913e-05 -2.21728e-05 5.99829e-07)
(-1.11275e-05 -2.32169e-05 8.57598e-07)
(-1.11042e-05 -2.13735e-05 -8.90239e-07)
(-1.08072e-05 -2.09556e-05 -6.29165e-07)
(-1.30424e-05 -2.76798e-05 8.51977e-07)
(-1.2718e-05 -2.66662e-05 6.07523e-07)
(-1.2407e-05 -2.62018e-05 8.59509e-07)
(-6.98708e-06 -1.27485e-05 -2.86813e-07)
(-7.6114e-06 -1.41001e-05 -3.00209e-07)
(-1.21034e-05 -2.42648e-05 -3.40691e-07)
(-1.2746e-05 -2.57559e-05 -3.40812e-07)
(-3.84182e-06 -5.23541e-06 -1.33483e-06)
(-3.83579e-06 -5.6553e-06 -9.1302e-07)
(-3.35524e-06 -5.22126e-06 -3.41836e-07)
(-3.34312e-06 -5.64844e-06 1.57025e-07)
(-4.38067e-06 -6.21229e-06 -1.41502e-06)
(-4.10997e-06 -5.93316e-06 -1.16861e-06)
(-3.85922e-06 -5.70065e-06 -8.60293e-07)
(-4.66435e-06 -6.49075e-06 -1.69051e-06)
(-4.97604e-06 -6.76447e-06 -2.03085e-06)
(-4.40915e-06 -6.23741e-06 -1.40268e-06)
(-4.6609e-06 -6.95859e-06 -1.2364e-06)
(-4.9402e-06 -7.26155e-06 -1.48864e-06)
(-4.39562e-06 -6.71525e-06 -8.99431e-07)
(-5.2141e-06 -8.52403e-06 -7.89083e-07)
(-4.90955e-06 -8.18068e-06 -4.9679e-07)
(-4.94378e-06 -8.74878e-06 8.36217e-08)
(-5.18333e-06 -8.98018e-06 -2.36681e-07)
(-5.51829e-06 -8.86777e-06 -1.07757e-06)
(-5.81832e-06 -9.21236e-06 -1.35496e-06)
(-5.52132e-06 -9.45217e-06 -4.36755e-07)
(-6.11371e-06 -1.0067e-05 -1.12313e-06)
(-4.93849e-06 -7.72943e-06 -1.02723e-06)
(-5.23119e-06 -8.05328e-06 -1.29858e-06)
(-4.94578e-06 -8.28192e-06 -4.22445e-07)
(-4.37681e-06 -6.65709e-06 -9.72295e-07)
(-3.85087e-06 -6.13687e-06 -3.88127e-07)
(-4.64288e-06 -7.40652e-06 -7.4709e-07)
(-4.3859e-06 -7.61912e-06 8.10358e-08)
(-4.61295e-06 -7.83883e-06 -2.17481e-07)
(-4.38811e-06 -7.17519e-06 -4.06258e-07)
(-5.23204e-06 -7.56383e-06 -1.76994e-06)
(-4.96447e-06 -7.3013e-06 -1.4561e-06)
(-5.51784e-06 -8.37864e-06 -1.55552e-06)
(-5.52724e-06 -8.95022e-06 -9.65067e-07)
(-6.11114e-06 -9.55839e-06 -1.61556e-06)
(-4.95247e-06 -7.80007e-06 -9.34305e-07)
(-3.867e-06 -6.19955e-06 -3.44165e-07)
(-3.59641e-06 -5.92284e-06 -7.76364e-08)
(-4.13746e-06 -6.47591e-06 -6.09528e-07)
(-4.39152e-06 -6.74625e-06 -8.48333e-07)
(-4.11951e-06 -6.94935e-06 -6.71175e-08)
(-4.40155e-06 -7.25019e-06 -3.44418e-07)
(-4.67246e-06 -8.52191e-06 4.52307e-07)
(-4.41378e-06 -8.18156e-06 6.61758e-07)
(-4.7047e-06 -8.98346e-06 9.07892e-07)
(-4.94285e-06 -8.8629e-06 2.18536e-07)
(-5.22765e-06 -9.20514e-06 -4.47178e-08)
(-5.5148e-06 -1.00627e-05 2.37276e-07)
(-4.38858e-06 -7.72392e-06 1.98673e-07)
(-4.66411e-06 -8.04507e-06 -5.60082e-08)
(-3.85448e-06 -6.65091e-06 1.78043e-07)
(-4.12777e-06 -7.40415e-06 4.23946e-07)
(-4.15941e-06 -7.84255e-06 8.64786e-07)
(-4.68229e-06 -7.55065e-06 -6.18414e-07)
(-4.95632e-06 -8.3686e-06 -3.43037e-07)
(-5.52881e-06 -9.54962e-06 -3.40451e-07)
(-7.6481e-06 -1.24625e-05 -2.00867e-06)
(-7.36409e-06 -1.15152e-05 -2.32397e-06)
(-7.34175e-06 -1.21726e-05 -1.60861e-06)
(-7.96186e-06 -1.34156e-05 -1.7545e-06)
(-8.2884e-06 -1.4379e-05 -1.52091e-06)
(-7.95836e-06 -1.409e-05 -1.05069e-06)
(-8.59528e-06 -1.47864e-05 -1.7875e-06)
(-7.33534e-06 -1.2083e-05 -1.71497e-06)
(-7.65704e-06 -1.302e-05 -1.48833e-06)
(-7.33521e-06 -1.27365e-05 -1.03448e-06)
(-6.72237e-06 -1.13215e-05 -1.16374e-06)
(-6.41986e-06 -1.04304e-05 -1.4054e-06)
(-6.11232e-06 -1.06806e-05 -4.4927e-07)
(-7.01953e-06 -1.22305e-05 -8.93142e-07)
(-7.31322e-06 -1.31565e-05 -5.99045e-07)
(-6.71501e-06 -1.2487e-05 8.94191e-08)
(-7.03351e-06 -1.17017e-05 -1.44986e-06)
(-7.34201e-06 -1.26253e-05 -1.19932e-06)
(-6.71642e-06 -1.19613e-05 -4.60077e-07)
(-7.02689e-06 -1.11585e-05 -1.96074e-06)
(-6.72867e-06 -1.08742e-05 -1.57907e-06)
(-6.71772e-06 -1.07952e-05 -1.66869e-06)
(-6.11749e-06 -1.01603e-05 -9.91886e-07)
(-6.72089e-06 -1.14244e-05 -1.01495e-06)
(-7.97046e-06 -1.39721e-05 -1.22986e-06)
(-7.95516e-06 -1.46551e-05 -4.76965e-07)
(-8.6057e-06 -1.53556e-05 -1.25544e-06)
(-7.64416e-06 -1.35648e-05 -9.19978e-07)
(-7.33016e-06 -1.38303e-05 9.07463e-08)
(-7.3314e-06 -1.32883e-05 -4.69273e-07)
(-7.0275e-06 -1.24553e-05 -6.32548e-07)
(-6.70324e-06 -1.15049e-05 -8.85586e-07)
(-7.32899e-06 -1.34102e-05 -3.29332e-07)
(-7.62378e-06 -1.43753e-05 -4.77939e-09)
(-7.94934e-06 -1.47821e-05 -3.2558e-07)
(-6.71739e-06 -1.20766e-05 -3.3325e-07)
(-7.00793e-06 -1.30155e-05 -1.33908e-08)
(-6.10201e-06 -1.13178e-05 2.54576e-07)
(-5.80769e-06 -1.04242e-05 -3.36283e-08)
(-6.40992e-06 -1.22291e-05 5.2438e-07)
(-6.7286e-06 -1.3157e-05 7.79239e-07)
(-6.44314e-06 -1.27506e-05 1.013e-06)
(-6.40187e-06 -1.16964e-05 -2.30868e-08)
(-6.7022e-06 -1.26222e-05 2.70165e-07)
(-6.42103e-06 -1.11499e-05 -6.31352e-07)
(-6.1166e-06 -1.07876e-05 -3.37065e-07)
(-7.31318e-06 -1.39695e-05 2.83831e-07)
(-7.93292e-06 -1.53534e-05 2.95437e-07)
(-7.01573e-06 -1.35636e-05 5.43279e-07)
(-7.04905e-06 -1.41018e-05 1.03957e-06)
(-9.23374e-06 -1.61892e-05 -1.81429e-06)
(-8.92561e-06 -1.57723e-05 -1.5478e-06)
(-8.58837e-06 -1.54786e-05 -1.06385e-06)
(-9.55185e-06 -1.66029e-05 -2.10865e-06)
(-9.89759e-06 -1.70074e-05 -2.47679e-06)
(-9.22678e-06 -1.6301e-05 -1.66783e-06)
(-9.56691e-06 -1.71936e-05 -1.56931e-06)