/*--------------------------------*- C++ -*----------------------------------*\
| =========                 |                                                 |
| \\      /  F ield         | OpenFOAM: The Open Source CFD Toolbox           |
|  \\    /   O peration     | Version:  2012                                  |
|   \\  /    A nd           | Website:  www.openfoam.com                      |
|    \\/     M anipulation  |                                                 |
\*---------------------------------------------------------------------------*/
FoamFile
{
    version     2.0;
    format      ascii;
    class       volVectorField;
    location    "0.106/solid";
    object      sigmaMaxDir;
}
// * * * * * * * * * * * * * * * * * * * * * * * * * * * * * * * * * * * * * //

dimensions      [1 -1 -2 0 0 0 0];


internalField   nonuniform List<vector> 
3125
(
(0.0324559 -0.0575561 0.997815)
(0.0280931 -0.05519 0.998081)
(0.096761 0.983098 0.155418)
(0.0558938 -0.0844849 0.994856)
(0.0278773 -0.0551387 0.998089)
(0.595046 0.0917075 0.798443)
(0.599385 0.0755103 0.796892)
(0.045298 -0.0509858 0.997672)
(-0.0204822 -0.0544513 0.998306)
(0.131506 0.984958 0.112085)
(-0.00803326 0.998388 0.0561914)
(-0.00598594 -0.0611802 0.998109)
(0.058166 -0.0504406 0.997032)
(0.595988 0.0946338 0.797398)
(0.0458693 -0.050884 0.997651)
(0.613797 0.119191 0.780415)
(-0.017732 -0.0524893 0.998464)
(-0.0203151 -0.0543544 0.998315)
(0.00735106 -0.0574547 0.998321)
(0.165089 0.978209 0.125905)
(-0.0053887 -0.061036 0.998121)
(0.490934 0.824376 0.281759)
(0.0330448 -0.0580142 0.997769)
(0.0525076 -0.0803749 0.995381)
(0.05961 -0.0505762 0.99694)
(0.657135 0.155391 0.737582)
(0.617892 0.123291 0.776537)
(0.103306 -0.0630916 0.992647)
(-0.0174366 -0.0525073 0.998468)
(-0.0163082 -0.063954 0.99782)
(0.00868932 -0.057283 0.99832)
(0.653372 0.556831 0.512879)
(0.533284 0.787255 0.309575)
(0.0458576 -0.0639685 0.996898)
(0.563252 0.805964 0.182122)
(0.664467 0.160008 0.729987)
(0.110016 -0.0653509 0.991779)
(0.295189 0.952007 0.0809123)
(-0.0165702 -0.0671565 0.997605)
(0.397023 0.905919 0.14725)
(0.648408 0.532719 0.543855)
(0.0515457 -0.0666526 0.996444)
(0.029843 -0.0557846 0.997997)
(0.0294966 -0.0556359 0.998015)
(0.112755 -0.165297 0.979777)
(0.0985714 -0.146293 0.984318)
(0.0268683 -0.0550054 0.998124)
(0.0270023 -0.0550258 0.99812)
(0.212455 -0.00897432 0.97713)
(0.0419159 -0.0518134 0.997777)
(0.223837 -0.00478322 0.974615)
(0.594608 0.0838698 0.799629)
(0.314768 0.0211455 0.948933)
(0.297941 0.0145442 0.954474)
(0.280361 0.00738367 0.959866)
(0.595248 0.0815645 0.799392)
(0.293081 0.0125998 0.956005)
(0.0423225 -0.0517061 0.997765)
(0.243314 0.00216178 0.969945)
(0.228189 -0.00318868 0.973612)
(-0.0212758 -0.0552233 0.998247)
(-0.0211607 -0.0551664 0.998253)
(0.149423 -0.0184035 0.988602)
(-0.00976867 -0.062113 0.998021)
(0.210756 0.00387173 0.977531)
(0.054794 0.995202 0.0810635)
(0.625966 0.333496 0.704945)
(0.594321 0.236668 0.768616)
(0.484179 0.0961969 0.869665)
(0.0357889 0.996657 0.0734488)
(0.574739 0.1993 0.793697)
(-0.00934189 -0.0620504 0.998029)
(0.311514 0.0544793 0.948679)
(0.234289 0.0141623 0.972064)
(0.0510913 -0.0502023 0.997431)
(0.306078 0.021921 0.951754)
(0.277753 0.0134685 0.960558)
(0.32123 0.02361 0.946707)
(0.601231 0.104284 0.792241)
(0.34361 0.0318718 0.938571)
(0.0502322 -0.0502558 0.997472)
(0.249174 0.00416922 0.96845)
(0.269734 0.0109597 0.962873)
(0.381731 0.0450659 0.923174)
(0.603783 0.107819 0.789823)
(0.352187 0.0349477 0.935277)
(-0.0190287 -0.0531878 0.998403)
(-0.0192658 -0.0533027 0.998393)
(0.000295304 -0.0592017 0.998246)
(0.491211 0.201917 0.847314)
(0.436788 0.147242 0.887432)
(0.630621 0.356867 0.689176)
(0.292214 0.939155 0.180552)
(0.637244 0.398442 0.65967)
(-0.000574559 -0.0594286 0.998232)
(0.338215 0.0711345 0.938376)
(0.414398 0.127672 0.901096)
(0.637372 0.408506 0.65336)
(0.342105 0.917379 0.203421)
(0.638007 0.404758 0.655071)
(0.0383441 -0.0630835 0.997271)
(0.0395714 -0.0643752 0.997141)
(0.317152 0.0250852 0.948043)
(0.0724421 -0.0530055 0.995963)
(0.355995 0.0357021 0.933806)
(0.637974 0.141108 0.757019)
(0.490711 0.0801887 0.867625)
(0.444869 0.0655414 0.893194)
(0.392941 0.0487959 0.918268)
(0.632396 0.136464 0.762531)
(0.430831 0.0611155 0.900361)
(0.0752245 -0.0536762 0.995721)
(0.421903 0.0531648 0.905081)
(0.370978 0.0397108 0.927792)
(-0.0160505 -0.053518 0.998438)
(-0.0157507 -0.0540743 0.998413)
(0.504889 0.217796 0.835256)
(0.0202525 -0.0565511 0.998194)
(0.533952 0.256073 0.805805)
(0.637749 0.643556 0.423216)
(0.601295 0.380689 0.70251)
(0.622467 0.391206 0.677859)
(0.635911 0.406592 0.655973)
(0.621446 0.67695 0.39439)
(0.627123 0.395563 0.671004)
(0.0226119 -0.0568126 0.998129)
(0.547528 0.292826 0.783879)
(0.540021 0.266211 0.798442)
(0.214847 -0.096638 0.971855)
(0.359296 0.702908 0.613862)
(0.522385 0.0857698 0.848385)
(0.507131 0.0854827 0.857619)
(0.6907 0.168448 0.703248)
(0.560211 0.101375 0.822123)
(0.19165 -0.0921978 0.977123)
(0.440746 0.0583567 0.895733)
(0.501579 0.0770633 0.861673)
(0.403857 0.736713 0.542359)
(0.701157 0.168032 0.692924)
(0.579007 0.107259 0.808236)
(-0.0876555 -0.189095 0.978039)
(-0.0546566 -0.146011 0.987772)
(0.181291 -0.166354 0.969257)
(0.300259 0.790098 0.534406)
(0.438994 0.421073 0.793714)
(0.590596 0.379876 0.711962)
(0.597318 0.486426 0.637653)
(0.52502 0.409118 0.746309)
(0.139213 -0.13168 0.981468)
(0.54528 0.302881 0.781622)
(0.498128 0.363611 0.787182)
(0.33572 0.821701 0.460542)
(0.557776 0.494637 0.666498)
(0.46784 0.452255 0.759336)
(0.0311831 -0.0565904 0.99791)
(0.0285994 -0.0553033 0.99806)
(0.507774 -0.040571 0.860534)
(0.0681344 -0.101243 0.992526)
(0.0264782 -0.0549656 0.998137)
(0.0274918 -0.0550694 0.998104)
(0.0405788 -0.0521904 0.997812)
(0.105058 -0.0286217 0.994054)
(0.594499 0.088957 0.799161)
(0.493557 0.0651864 0.867267)
(0.489647 0.0624142 0.869684)
(0.473727 0.0485548 0.879332)
(0.597654 0.0773759 0.798012)
(0.475549 0.0505385 0.878236)
(0.0439382 -0.0512857 0.997717)
(0.123933 -0.0196835 0.992095)
(0.121111 -0.0324961 0.992107)
(-0.0215382 -0.0554432 0.99823)
(-0.0207715 -0.0547954 0.998282)
(-0.0112263 -0.0622987 0.997994)
(0.0535908 -0.0309928 0.998082)
(0.102243 0.989703 0.100175)
(0.209473 0.965159 0.156809)
(0.174327 0.974695 0.139928)
(0.0355466 0.996569 0.0747408)
(0.00472631 0.998118 0.0611406)
(0.0521711 0.995237 0.0823458)
(-0.00752453 -0.0616221 0.998071)
(0.0839234 -0.0173293 0.996322)
(0.0682057 -0.0393525 0.996895)
(0.0547704 -0.050185 0.997237)
(0.169498 -0.000972458 0.98553)
(0.161361 -0.0171764 0.986746)
(0.497862 0.0681191 0.864577)
(0.597334 0.0976979 0.79602)
(0.502553 0.0711857 0.861611)
(0.0475126 -0.050584 0.997589)
(0.128786 -0.029491 0.991234)
(0.132407 -0.0158227 0.991069)
(0.539218 0.0925096 0.83707)
(0.610075 0.115259 0.783916)
(0.532104 0.088633 0.842027)
(-0.0182691 -0.0527189 0.998442)
(-0.0199301 -0.0539132 0.998347)
(0.00402987 -0.0581906 0.998297)
(0.154435 0.0164906 0.987865)
(0.129685 -0.0127048 0.991474)
(0.248896 0.952411 0.175967)
(0.203018 0.968855 0.14179)
(0.291987 0.935835 0.197373)
(-0.00352788 -0.0604097 0.998167)
(0.0799675 -0.0346165 0.996196)
(0.0974516 -0.0108413 0.995181)
(0.557369 0.749926 0.356302)
(0.443642 0.859309 0.2545)
(0.521179 0.787612 0.328694)
(0.0348517 -0.0595898 0.997614)
(0.0457292 -0.0715229 0.99639)
(0.17725 -0.0118622 0.984094)
(0.0641402 -0.0512404 0.996625)
(0.187973 0.00535664 0.98216)
(0.650304 0.150679 0.74458)
(0.609208 0.127802 0.782644)
(0.599242 0.123211 0.79103)
(0.546729 0.0965546 0.831724)
(0.622359 0.127521 0.772275)
(0.554609 0.100711 0.825994)
(0.0887233 -0.0578528 0.994375)
(0.278442 0.0311489 0.959948)
(0.253613 0.00977868 0.967256)
(-0.016853 -0.0525581 0.998476)
(-0.0154337 -0.0579162 0.998202)
(0.15318 -0.00222397 0.988196)
(0.0129396 -0.0566768 0.998309)
(0.181484 0.0290278 0.982965)
(0.653376 0.583421 0.482411)
(0.646037 0.507836 0.569858)
(0.651279 0.529968 0.543111)
(0.587503 0.712562 0.383531)
(0.569363 0.749553 0.337632)
(0.611504 0.676477 0.410416)
(0.0338292 -0.0593034 0.997667)
(0.303532 0.0841834 0.949095)
(0.260337 0.0451099 0.964463)
(0.383076 -0.0407954 0.922816)
(0.12357 0.302068 0.945244)
(0.376292 0.160032 0.912576)
(0.619621 0.132303 0.77367)
(0.672418 0.164114 0.721748)
(0.630565 0.136352 0.764065)
(0.134508 -0.0743251 0.988121)
(0.293945 0.0201482 0.95561)
(0.324428 0.0452489 0.944828)
(0.566138 0.760877 0.317103)
(0.68584 0.191058 0.702226)
(0.996069 -0.00948568 -0.0880727)
(-0.0208759 -0.0823208 0.996387)
(0.953057 -0.298907 -0.0483345)
(0.123035 0.437471 0.890776)
(0.227069 0.367648 0.901817)
(0.636803 0.488371 0.596636)
(0.638234 0.511687 0.575181)
(0.623132 0.472255 0.623444)
(0.0734492 -0.0792097 0.994148)
(0.312535 0.0700011 0.947324)
(0.358237 0.115507 0.926458)
(0.458244 0.855035 0.242748)
(0.303147 0.684701 0.662787)
(0.0307252 -0.0563096 0.99794)
(0.0288396 -0.0554047 0.998047)
(0.178309 -0.247214 0.952413)
(0.0742253 -0.109695 0.99119)
(0.0266064 -0.0550042 0.998132)
(0.0273044 -0.0550275 0.998111)
(0.151534 -0.0242586 0.988154)
(0.215981 -0.00767087 0.976367)
(0.154055 -0.0233808 0.987786)
(0.0409342 -0.0521122 0.997802)
(0.11049 -0.0260247 0.993536)
(0.10874 -0.0373101 0.99337)
(0.219784 -0.00626999 0.975528)
(0.159714 -0.0214201 0.986931)
(0.156799 -0.0224391 0.987376)
(0.594356 0.0863488 0.799553)
(0.482955 0.0572567 0.873771)
(0.486116 0.0597745 0.871848)
(0.397489 0.0426072 0.916617)
(0.308761 0.0188268 0.950953)
(0.391794 0.0399439 0.919185)
(0.381575 0.035021 0.923674)
(0.303158 0.0166355 0.952795)
(0.386496 0.0374172 0.921532)
(0.365261 0.0267159 0.930522)
(0.284312 0.00901337 0.958689)
(0.368876 0.0286067 0.929038)
(0.596268 0.0793952 0.79885)
(0.480147 0.0548947 0.875469)
(0.477687 0.0526535 0.876951)
(0.288551 0.0107534 0.957404)
(0.377012 0.0327639 0.925629)
(0.372792 0.0306227 0.927409)
(0.0434562 -0.0513829 0.997733)
(0.114512 -0.0350955 0.992802)
(0.116725 -0.0230426 0.992897)
(0.173939 -0.016723 0.984614)
(0.237898 0.00027572 0.97129)
(0.169957 -0.0179996 0.985287)
(0.16287 -0.020341 0.986438)
(0.232864 -0.00150022 0.972508)
(0.166268 -0.0191945 0.985894)
(-0.0214585 -0.0554368 0.998232)
(-0.0209135 -0.0548611 0.998275)
(0.0390742 -0.0403236 0.998422)
(0.168231 -0.012271 0.985671)
(0.046982 -0.0382014 0.998165)
(-0.0108809 -0.0623038 0.997998)
(0.0622917 -0.0272532 0.997686)
(0.0493685 -0.0461851 0.997712)
(0.188696 -0.00487849 0.982023)
(0.0653715 -0.0325602 0.99733)
(0.0557282 -0.0356536 0.997809)
(0.0769454 0.992971 0.0899371)
(0.115644 0.986943 0.112117)
(0.143291 0.981737 0.125141)
(0.376827 0.87929 0.291291)
(0.618953 0.305384 0.723628)
(0.328275 0.906823 0.264401)
(0.234946 0.948211 0.213769)
(0.608724 0.27282 0.745)
(0.280607 0.929743 0.238407)
(0.0889821 0.986811 0.135229)
(0.519193 0.127356 0.845115)
(0.120043 0.981077 0.151916)
(0.0192372 0.997577 0.0668558)
(0.0918208 0.990654 0.100869)
(0.0707962 0.993331 0.0909977)
(0.549644 0.162249 0.819492)
(0.193086 0.96237 0.191214)
(0.15472 0.973125 0.170559)
(-0.00802264 -0.0617139 0.998062)
(0.05809 -0.0431663 0.997378)
(0.0723414 -0.0227136 0.997121)
(0.114173 -0.0143206 0.993358)
(0.284999 0.0394317 0.957716)
(0.100287 -0.0199134 0.994759)
(0.0759508 -0.0289439 0.996691)
(0.259143 0.0260021 0.965489)
(0.0875715 -0.0247263 0.995851)
(0.0536766 -0.0501542 0.997298)
(0.148443 -0.02183 0.98868)
(0.154647 -0.00649628 0.987948)
(0.22285 -0.00342383 0.974847)
(0.29587 0.0189497 0.95504)
(0.214524 -0.005425 0.976704)
(0.200107 -0.00909046 0.979732)
(0.286444 0.0161526 0.957961)
(0.20696 -0.00728815 0.978322)
(0.403609 0.0454172 0.913804)
(0.328168 0.0262134 0.944256)
(0.410161 0.0483725 0.910729)
(0.59908 0.100927 0.794303)
(0.513147 0.0777457 0.854772)
(0.507645 0.0744081 0.858347)
(0.33562 0.0289805 0.941551)
(0.424661 0.0547523 0.903695)
(0.417178 0.0514913 0.907365)
(0.0481988 -0.0504975 0.99756)
(0.142488 -0.0114134 0.989731)
(0.137781 -0.0259497 0.990123)
(0.178301 -0.0153712 0.983856)
(0.255491 0.00630042 0.966791)
(0.183027 -0.0139271 0.983009)
(0.193875 -0.0107838 0.980967)
(0.262335 0.00856284 0.964939)
(0.188215 -0.0124047 0.982049)
(0.459621 0.0693138 0.885406)
(0.371225 0.0415313 0.927614)
(0.450123 0.0654494 0.890565)
(0.606735 0.111478 0.787048)
(0.519061 0.081258 0.850866)
(0.525382 0.0848905 0.846621)
(0.36138 0.0381603 0.931637)
(0.43264 0.058167 0.899688)
(0.441126 0.0617311 0.89532)
(-0.0185194 -0.0527754 0.998435)
(-0.0197404 -0.0538089 0.998356)
(0.00299529 -0.058401 0.998289)
(0.110197 -0.0214041 0.993679)
(0.132078 0.00593324 0.991222)
(0.271457 0.0641267 0.960312)
(0.475302 0.18474 0.860209)
(0.247746 0.050866 0.967489)
(0.203274 0.027315 0.978741)
(0.457156 0.166436 0.873675)
(0.224931 0.038658 0.973607)
(0.424343 0.847713 0.318302)
(0.633756 0.375128 0.676485)
(0.468961 0.813141 0.344787)
(0.245652 0.95606 0.160012)
(0.386035 0.888961 0.246426)
(0.338325 0.914707 0.221016)
(0.635815 0.388942 0.666681)
(0.544451 0.740288 0.394395)
(0.509381 0.776809 0.370268)
(-0.00282684 -0.0602182 0.998181)
(0.113326 -0.00309294 0.993553)
(0.0937935 -0.0287011 0.995178)
(0.129302 -0.0079201 0.991574)
(0.364651 0.0890796 0.926874)
(0.14578 -0.000587999 0.989317)
(0.182798 0.0170161 0.983003)
(0.390209 0.108113 0.914357)
(0.1636 0.00768341 0.986497)
(0.631116 0.610248 0.478843)
(0.638123 0.409209 0.652186)
(0.616763 0.639417 0.459075)
(0.393312 0.890629 0.228221)
(0.433853 0.858549 0.273251)
(0.479621 0.824273 0.300895)
(0.638303 0.408151 0.652673)
(0.573839 0.704817 0.417063)
(0.597842 0.671003 0.438565)
(0.035666 -0.0603642 0.997539)
(0.0436953 -0.0692494 0.996642)
(0.232123 -0.00130255 0.972686)
(0.329114 0.0284319 0.943862)
(0.242342 0.000963431 0.97019)
(0.0660939 -0.0515703 0.99648)
(0.211228 0.012628 0.977355)
(0.196993 -0.00568455 0.980388)
(0.342059 0.0319899 0.939134)
(0.266298 0.00593283 0.963872)
(0.253722 0.00336607 0.967271)
(0.64393 0.145911 0.751042)
(0.580382 0.113933 0.806335)
(0.589641 0.118587 0.798913)
(0.552676 0.105829 0.82665)
(0.474864 0.0751402 0.876846)
(0.539586 0.100835 0.83587)
(0.514551 0.0910969 0.852607)
(0.459565 0.0702914 0.885358)
(0.52688 0.0959178 0.84451)
(0.469643 0.073353 0.879804)
(0.404851 0.0527072 0.912862)
(0.480157 0.0775465 0.873748)
(0.627194 0.131918 0.767611)
(0.571448 0.109437 0.813309)
(0.562857 0.10502 0.819855)
(0.417489 0.0568319 0.906903)
(0.502631 0.0864452 0.860168)
(0.49117 0.0819171 0.867203)
(0.0845475 -0.0565609 0.994813)
(0.221925 0.00146865 0.975063)
(0.240926 0.0209627 0.970317)
(0.331518 0.0184259 0.943269)
(0.403985 0.0483879 0.913485)
(0.312894 0.0148222 0.949672)
(0.28033 0.0086834 0.959864)
(0.386983 0.0439408 0.921039)
(0.295803 0.011637 0.955178)
(-0.0165591 -0.0527547 0.99847)
(-0.0156087 -0.0565224 0.998279)
(0.295849 0.0782582 0.952024)
(0.516503 0.232035 0.824248)
(0.320646 0.0931364 0.942609)
(0.0146423 -0.0566185 0.998289)
(0.21443 0.0439509 0.97575)
(0.181814 0.0105286 0.983277)
(0.526129 0.244834 0.814398)
(0.370103 0.12441 0.920623)
(0.345506 0.108558 0.932116)
(0.648242 0.612387 0.452509)
(0.649469 0.581531 0.489911)
(0.652486 0.554574 0.51644)
(0.630049 0.452345 0.631207)
(0.609808 0.383305 0.693694)
(0.639212 0.46557 0.612089)
(0.650274 0.497716 0.573952)
(0.616732 0.387032 0.685454)
(0.645892 0.480843 0.59297)
(0.641323 0.583626 0.498081)
(0.633751 0.403567 0.659919)
(0.648022 0.559157 0.517118)
(0.598764 0.712464 0.36589)
(0.642044 0.610694 0.463501)
(0.62956 0.642391 0.437021)
(0.630819 0.399874 0.664957)
(0.652223 0.516315 0.554999)
(0.651517 0.536825 0.536045)
(0.0304491 -0.0582807 0.997836)
(0.217042 0.0260766 0.975814)
(0.25482 0.0617392 0.965016)
(0.457366 0.190932 0.86854)
(0.547018 0.28395 0.787492)
(0.43813 0.173399 0.882029)
(0.393937 0.140546 0.908329)
(0.544419 0.275315 0.792344)
(0.416729 0.156863 0.895394)
(0.314332 -0.0832724 0.945654)
(0.391126 0.0628738 0.918187)
(0.388163 0.138888 0.911065)
(0.199633 0.467071 0.861389)
(0.528127 0.168711 0.832237)
(0.442609 0.148378 0.884354)
(0.443445 0.0527835 0.894746)
(0.539853 0.0999774 0.835801)
(0.461732 0.0740815 0.883921)
(0.566197 0.110847 0.816783)
(0.524128 0.0908539 0.846779)
(0.580224 0.115659 0.806203)
(0.681123 0.16727 0.712805)
(0.654691 0.141108 0.742609)
(0.642208 0.139602 0.753711)
(0.541811 0.0963148 0.834964)
(0.610419 0.123422 0.782403)
(0.594939 0.120051 0.794755)
(0.14628 -0.0782228 0.986146)
(0.373772 0.0693636 0.924923)
(0.34256 0.0350545 0.938842)
(0.351901 0.0225562 0.935765)
(0.460329 0.0639724 0.885441)
(0.373625 0.0274369 0.927174)
(0.420353 0.041199 0.906425)
(0.480682 0.0701621 0.874084)
(0.396708 0.0333916 0.917337)
(0.527191 0.767051 0.365654)
(0.589538 0.177318 0.788038)
(0.640348 0.186341 0.745138)
(0.711951 0.168115 0.681809)
(0.667893 0.141294 0.730722)
(0.680794 0.141723 0.718634)
(0.595623 0.115767 0.794878)
(0.626435 0.126206 0.769189)
(0.641153 0.130461 0.756243)
(0.967889 0.147577 -0.203497)
(-0.0235578 -0.0913778 0.995538)
(0.937527 -0.327383 0.117741)
(0.400746 0.172952 0.899717)
(0.310378 0.308931 0.899014)
(0.187192 0.604026 0.774669)
(0.133704 0.653278 0.745219)
(0.0430928 0.620153 0.783296)
(0.418786 0.372991 0.827947)
(0.315296 0.524204 0.791074)
(0.270962 0.503868 0.820181)
(0.618116 0.441591 0.650331)
(0.576514 0.382142 0.722219)
(0.602613 0.434163 0.669597)
(0.622073 0.495102 0.606547)
(0.574972 0.459521 0.67694)
(0.603729 0.461281 0.650178)
(0.556656 0.389925 0.733548)
(0.550762 0.440483 0.708968)
(0.581717 0.432238 0.689039)
(0.0846919 -0.0869101 0.99261)
(0.400245 0.168177 0.900845)
(0.368874 0.106217 0.92339)
(0.473515 0.209889 0.855412)
(0.53897 0.315427 0.781036)
(0.484775 0.231726 0.843384)
(0.473601 0.299914 0.828102)
(0.525565 0.333594 0.782622)
(0.487641 0.259182 0.833685)
(0.42863 0.853318 0.29686)
(0.194193 0.671215 0.715374)
(0.253197 0.679451 0.688649)
(0.487446 0.543774 0.683159)
(0.528344 0.476718 0.702562)
(0.444219 0.536254 0.717705)
(0.358811 0.538848 0.762167)
(0.498745 0.470377 0.72801)
(0.40377 0.54247 0.736679)
(0.0319546 -0.0571619 0.997853)
(0.0282554 -0.0552401 0.998073)
(0.744771 0.661211 0.0900879)
(0.0594378 -0.0892613 0.994233)
(0.0263188 -0.0549339 0.998143)
(0.0277304 -0.0550931 0.998096)
(0.0868876 -0.0432222 0.99528)
(0.039998 -0.0523426 0.997828)
(0.0654914 -0.0446183 0.996855)
(0.0611466 -0.0455317 0.99709)
(0.09258 -0.0426196 0.994793)
(0.0447994 -0.051077 0.997689)
(0.0692002 -0.045254 0.996576)
(0.071762 -0.041844 0.996544)
(0.0688095 -0.0451347 0.996608)
(0.0708205 -0.0421555 0.996598)
(0.0932408 -0.0426846 0.994728)
(-0.0216134 -0.0554953 0.998225)
(-0.0205878 -0.05456 0.998298)
(-0.0872335 -0.0657024 0.994019)
(-0.0118327 -0.0623042 0.997987)
(0.00456356 -0.0538086 0.998541)
(-0.0651154 -0.0563733 0.996284)
(-0.0844466 -0.0662878 0.994221)
(-0.00654218 -0.0613269 0.998096)
(0.0194445 -0.0485164 0.998633)
(-0.0628317 -0.0568133 0.996406)
(0.01803 -0.0490716 0.998633)
(-0.0631454 -0.0568817 0.996382)
(-0.0839266 -0.0660333 0.994282)
(0.10978 -0.043991 0.992982)
(0.056905 -0.0503154 0.997111)
(0.0807507 -0.0492032 0.995519)
(0.0961341 -0.0359403 0.994719)
(0.0795028 -0.0487062 0.995644)
(0.0938894 -0.0363122 0.99492)
(0.111657 -0.044358 0.992756)
(0.0946609 -0.0426529 0.994595)
(0.0464068 -0.0507911 0.997631)
(0.069658 -0.0453134 0.996541)
(0.0728635 -0.0415092 0.996478)
(0.0700645 -0.0454629 0.996506)
(0.0939393 -0.0426012 0.994666)
(0.0738789 -0.0411726 0.996417)
(-0.0179161 -0.052526 0.998459)
(-0.0201936 -0.0542195 0.998325)
(-0.0631004 -0.0572668 0.996363)
(0.00614973 -0.0576732 0.998317)
(0.0531153 -0.0344934 0.997992)
(-0.0519234 -0.0538464 0.997198)
(0.0500092 -0.0356781 0.998111)
(-0.0529101 -0.0541254 0.997131)
(-0.0606581 -0.0560712 0.996582)
(-0.0825016 -0.0655891 0.99443)
(-0.00477434 -0.0608502 0.998135)
(0.0208753 -0.0479384 0.998632)
(-0.0624356 -0.0568002 0.996431)
(-0.0832031 -0.0659425 0.994348)
(0.0224223 -0.0473086 0.998629)
(-0.0620231 -0.0566919 0.996463)
(0.03362 -0.0584945 0.997721)
(0.0498336 -0.0769145 0.995792)
(0.115796 -0.0449675 0.992255)
(0.0821393 -0.049687 0.995381)
(0.0987011 -0.0355452 0.994482)
(0.0610429 -0.0507623 0.996843)
(0.113674 -0.0445849 0.992517)
(0.0835078 -0.0503213 0.995236)
(0.101226 -0.0351753 0.994241)
(0.167189 -0.0561599 0.984324)
(0.0976765 -0.0610891 0.993342)
(0.125851 -0.0706221 0.989532)
(0.169603 -0.0319086 0.984996)
(0.120303 -0.067882 0.990414)
(0.161382 -0.0319823 0.986374)
(0.174285 -0.0579276 0.98299)
(-0.0172179 -0.0524981 0.998473)
(-0.0159946 -0.0614524 0.997982)
(-0.0547999 -0.0535994 0.997058)
(0.0563695 -0.0332693 0.997856)
(-0.0507572 -0.0536902 0.997267)
(0.0100726 -0.0570794 0.998319)
(-0.0577996 -0.055021 0.996811)
(0.0598777 -0.031984 0.997693)
(-0.0495527 -0.0534065 0.997343)
(0.0209536 -0.0260868 0.99944)
(0.0411568 -0.0619656 0.997229)
(0.150184 -0.00656006 0.988636)
(-0.0288729 -0.0596029 0.997805)
(0.138795 -0.00912995 0.990279)
(-0.0302813 -0.0570913 0.99791)
(0.033216 -0.0225589 0.999194)
(0.24336 0.0294278 0.969489)
(0.733398 0.418143 0.535989)
(0.440624 0.82361 0.357097)
(0.285063 0.394767 0.87344)
(0.249442 0.0843271 0.964711)
(0.189044 0.283427 0.940176)
(0.225891 0.135761 0.964646)
(0.190471 -0.0614936 0.979765)
(0.117237 -0.0679735 0.990775)
(0.132156 -0.0735876 0.988494)
(0.179018 -0.0317273 0.983334)
(0.138832 -0.0771034 0.98731)
(0.182078 -0.0595858 0.981477)
(0.188832 -0.0315621 0.981502)
(0.805022 -0.591395 -0.0468215)
(-0.0173329 -0.0710505 0.997322)
(-0.495814 0.283818 0.820741)
(0.977123 -0.185305 -0.104363)
(0.206501 0.455075 0.866178)
(-0.166185 0.974672 -0.149659)
(-0.123971 0.442321 0.888247)
(-0.431103 0.899836 0.0666747)
(-0.0817898 0.115732 0.989907)
(0.0670192 -0.0146826 0.997644)
(0.0578859 -0.0698643 0.995876)
(0.16288 -0.00370385 0.986639)
(-0.0273566 -0.0634788 0.997608)
(0.0482342 -0.0191366 0.998653)
(0.177029 -0.000560709 0.984205)
(-0.026684 -0.0682305 0.997313)
(0.245629 0.891808 0.379926)
(0.516003 0.839868 0.168409)
(0.488882 0.72772 0.481059)
(0.359078 0.932829 0.0299024)
(0.0301321 -0.0559622 0.997978)
(0.0292554 -0.0555325 0.998028)
(0.128517 -0.189379 0.973457)
(0.0887418 -0.131302 0.987362)
(0.026764 -0.0549929 0.998128)
(0.027101 -0.0550283 0.998117)
(0.0886167 -0.0429104 0.995141)
(0.0415615 -0.0519109 0.997787)
(0.0667361 -0.0447704 0.996766)
(0.0650254 -0.0441655 0.996906)
(0.0664959 -0.0447193 0.996784)
(0.0890344 -0.042929 0.995103)
(0.0643505 -0.0444251 0.996938)
(0.0899246 -0.0428105 0.995028)
(0.0426934 -0.0515978 0.997755)
(0.0670218 -0.0447712 0.996747)
(0.0658321 -0.0438914 0.996865)
(0.0672578 -0.0448407 0.996727)
(0.0894762 -0.0428012 0.995069)
(0.0665476 -0.0436148 0.99683)
(-0.0213358 -0.0552935 0.998242)
(-0.0210817 -0.0550685 0.99826)
(-0.0870678 -0.0665143 0.993979)
(-0.0101643 -0.0621827 0.998013)
(0.00990681 -0.0521656 0.998589)
(-0.0647381 -0.05687 0.99628)
(0.00888442 -0.0525211 0.99858)
(-0.0648576 -0.0568405 0.996274)
(-0.0869488 -0.0664759 0.993992)
(-0.0864612 -0.0665406 0.994031)
(-0.00890529 -0.061948 0.99804)
(0.0109326 -0.051806 0.998597)
(-0.0645616 -0.0569477 0.996287)
(0.012041 -0.0514034 0.998605)
(-0.0643823 -0.0569451 0.996299)
(-0.0866804 -0.0666183 0.994006)
(0.102391 -0.0430829 0.993811)
(0.0519369 -0.0501781 0.997389)
(0.0740802 -0.0466091 0.996162)
(0.0829648 -0.038581 0.995805)
(0.0748068 -0.0469232 0.996093)
(0.101188 -0.0429291 0.993941)
(0.0845047 -0.0381954 0.995691)
(0.098957 -0.0427603 0.994173)
(0.0494967 -0.0503247 0.997506)
(0.0733137 -0.0464205 0.996228)
(0.0813538 -0.0389732 0.995923)
(0.0726569 -0.0461945 0.996287)
(0.100029 -0.0429182 0.994058)
(0.0799746 -0.0393536 0.99602)
(-0.018867 -0.0530553 0.998413)
(-0.0194308 -0.053465 0.998381)
(-0.0730726 -0.0616161 0.995421)
(0.00117289 -0.058944 0.998261)
(0.0350876 -0.0418338 0.998508)
(-0.0579969 -0.0555872 0.996768)
(0.0373182 -0.0408943 0.998466)
(-0.0572579 -0.0553649 0.996823)
(-0.074591 -0.0624294 0.995258)
(-0.0774231 -0.0635923 0.994968)
(-0.00137993 -0.0596904 0.998216)
(0.0330005 -0.0427132 0.998542)
(-0.0587245 -0.0557334 0.996717)
(0.0309604 -0.043579 0.99857)
(-0.0593874 -0.0559469 0.996666)
(-0.0761188 -0.0629355 0.995111)
(0.037285 -0.0620017 0.997379)
(0.040855 -0.065783 0.996997)
(0.129189 -0.0474837 0.990482)
(0.0700476 -0.0524252 0.996165)
(0.0949992 -0.0554485 0.993932)
(0.121191 -0.033118 0.992077)
(0.092539 -0.0543447 0.994225)
(0.132669 -0.0482835 0.989984)
(0.117187 -0.0334185 0.992547)
(0.140525 -0.0499023 0.988819)
(0.0780796 -0.054485 0.995457)
(0.0977622 -0.0566235 0.993598)
(0.125777 -0.0328225 0.991515)
(0.100609 -0.0580482 0.993231)
(0.136468 -0.0489833 0.989433)
(0.13043 -0.0326036 0.990921)
(-0.0162238 -0.0531338 0.998456)
(-0.0155928 -0.0547049 0.998381)
(-0.0356601 -0.045473 0.998329)
(0.0181916 -0.0564667 0.998239)
(0.0861242 -0.0228855 0.996022)
(-0.0413357 -0.0521794 0.997782)
(0.0807858 -0.0245617 0.996429)
(-0.0428226 -0.0522594 0.997715)
(-0.0308295 -0.0434062 0.998582)
(-0.0194216 -0.0392534 0.999041)
(0.0250693 -0.0571415 0.998051)
(0.0918754 -0.0211815 0.995545)
(-0.0396272 -0.0523749 0.997841)
(0.0981095 -0.0194426 0.994986)
(-0.0379643 -0.0525187 0.997898)
(-0.0253416 -0.0415315 0.998816)
(0.290841 -0.0754239 0.953794)
(0.242249 -0.0993451 0.965114)
(0.215178 -0.115723 0.969694)
(0.290233 -0.0179666 0.956787)
(0.230491 -0.123058 0.965262)
(0.27535 -0.0758001 0.958351)
(0.307622 -0.00897007 0.951466)
(0.461801 0.205183 0.862925)
(0.313504 0.656251 0.68633)
(0.356921 0.477842 0.802667)
(0.401414 0.503155 0.765311)
(0.500173 0.239747 0.832074)
(0.321009 0.468394 0.82314)
(0.339425 0.43174 0.835698)
(0.24566 -0.0726726 0.966628)
(0.173682 -0.087219 0.980932)
(0.199813 -0.10887 0.973767)
(0.27144 -0.0235953 0.962166)
(0.186437 -0.102057 0.977152)
(0.259915 -0.0748433 0.962727)
(0.254755 -0.0268423 0.966633)
(0.585006 0.270433 0.764613)
(0.445527 0.754686 0.481616)
(0.406217 0.497452 0.766504)
(0.464243 0.559334 0.686749)
(0.554799 0.246485 0.794634)
(0.434555 0.496807 0.751229)
(0.523146 0.586149 0.618666)
(-0.188321 -0.266461 0.945269)
(-0.0377342 -0.120066 0.992049)
(0.937592 -0.314684 -0.147967)
(0.267776 -0.227346 0.936274)
(0.334755 0.0544602 0.94073)
(0.957694 -0.171581 -0.231044)
(0.359355 0.0776372 0.929966)
(0.952921 -0.261324 -0.153787)
(0.957033 -0.280248 -0.0744883)
(0.0100886 0.68048 0.732697)
(0.267374 0.759744 0.592705)
(0.24448 0.692246 0.678988)
(0.205465 0.916282 0.343818)
(0.217939 0.631247 0.744332)
(0.0545666 0.762167 0.645077)
(0.17684 0.896342 0.406569)
(0.858406 -0.11913 0.498946)
(0.114869 -0.110541 0.987211)
(0.305356 0.0388467 0.951446)
(-0.357718 -0.345477 0.867573)
(0.277494 0.0277145 0.960328)
(-0.110995 -0.205836 0.972271)
(0.97354 -0.22546 0.0372383)
(0.11811 0.813382 0.569614)
(0.366106 0.834291 0.412219)
(0.287091 0.668933 0.685644)
(0.23375 0.935234 0.265893)
(0.309267 0.720627 0.620525)
(0.0808916 0.75126 0.65503)
(0.257096 0.94017 0.223565)
(0.0315559 -0.0569023 0.997881)
(0.0284028 -0.0552534 0.998068)
(0.769092 0.630018 0.107588)
(0.0630951 -0.0946237 0.993512)
(0.0263971 -0.0549309 0.998141)
(0.0276008 -0.0551047 0.998099)
(0.141079 -0.0383575 0.989255)
(0.145122 -0.0277153 0.989026)
(0.0871797 -0.0431117 0.995259)
(0.0402736 -0.0522535 0.997821)
(0.065863 -0.0446612 0.996829)
(0.0623405 -0.0451303 0.997034)
(0.0656696 -0.0445995 0.996844)
(0.0617536 -0.0453293 0.997062)
(0.0875273 -0.043133 0.995228)
(0.140094 -0.0383325 0.989396)
(0.426743 0.0245787 0.904039)
(0.382958 0.0364317 0.923047)
(0.423988 0.0435804 0.904619)
(0.388936 0.0230591 0.920976)
(0.458131 0.0567 0.887074)
(0.46393 0.0431613 0.88482)
(0.460354 0.0422052 0.886732)
(0.45471 0.055788 0.88889)
(0.427845 0.0443609 0.902763)
(0.393367 0.0238826 0.919071)
(0.430847 0.0256062 0.902062)
(0.387189 0.0373137 0.921245)
(0.41261 0.0403934 0.910012)
(0.374635 0.0198111 0.926961)
(0.369377 0.0330378 0.928692)
(0.414457 0.0206135 0.909836)
(0.450602 0.0380479 0.891914)
(0.445921 0.0518003 0.893572)
(0.413445 0.0199811 0.91031)
(0.367997 0.0324966 0.929259)
(0.411754 0.0399245 0.91042)
(0.373108 0.0193324 0.927587)
(0.446148 0.052285 0.893431)
(0.450944 0.0385454 0.891719)
(0.152286 -0.0277871 0.987946)
(0.148402 -0.0388291 0.988164)
(0.0920105 -0.0426876 0.994843)
(0.0443765 -0.0511916 0.997702)
(0.068174 -0.0449752 0.996659)
(0.0690567 -0.0427562 0.996696)
(0.0684819 -0.0450839 0.996633)
(0.069896 -0.0424589 0.99665)
(0.091453 -0.0426535 0.994895)
(0.150467 -0.0389876 0.987846)
(0.154279 -0.027911 0.987633)
(-0.0215622 -0.0554604 0.998228)
(-0.0206988 -0.054693 0.998289)
(-0.302672 -0.126874 0.944612)
(-0.315137 -0.0997101 0.943794)
(-0.0872707 -0.065978 0.993997)
(-0.0115446 -0.0622914 0.997991)
(0.00618132 -0.0533753 0.998555)
(-0.0650989 -0.056592 0.996273)
(0.00531715 -0.0535981 0.998548)
(-0.0651033 -0.0564967 0.996278)
(-0.087317 -0.0660552 0.993988)
(-0.301395 -0.0951814 0.948737)
(-0.289699 -0.119414 0.949639)
(0.0873621 0.99617 0.00357968)
(0.0937027 0.995042 0.0333263)
(0.197179 0.980274 0.0135219)
(-0.0663334 0.997683 0.015117)
(0.168699 0.985161 0.0315868)
(0.0247426 0.999554 0.0167165)
(0.0238797 0.999591 0.0157634)
(0.169621 0.985046 0.0302346)
(0.194751 0.980738 0.0150091)
(-0.063416 0.997863 0.015714)
(0.0860785 0.996277 0.00466785)
(0.0950682 0.994873 0.0344969)
(0.21052 0.977569 0.00638181)
(-0.0800544 0.996694 0.0139037)
(0.0949199 0.995073 0.0286286)
(0.0964671 0.995336 -0.000955872)
(0.0211139 0.999706 0.0119404)
(0.182023 0.983017 0.0233616)
(0.0980945 0.995176 -0.00173506)
(0.0957531 0.995015 0.0278537)
(0.213482 0.976934 0.00496858)
(-0.0826867 0.996477 0.0139915)
(0.179118 0.983525 0.0243994)
(0.0213011 0.999697 0.0123729)
(-0.407982 -0.132924 0.903262)
(-0.390271 -0.182587 0.902414)
(-0.0849756 -0.0663451 0.994172)
(-0.00702944 -0.0614951 0.998083)
(0.0154935 -0.0500918 0.998624)
(-0.0636991 -0.0569718 0.996342)
(0.0167817 -0.0495998 0.998628)
(-0.063446 -0.0569332 0.99636)
(-0.0853807 -0.0665403 0.994124)
(-0.414035 -0.199708 0.888083)
(-0.432919 -0.142929 0.890029)
(0.178074 -0.0302182 0.983553)
(0.175498 -0.0418721 0.983589)
(0.108131 -0.0437871 0.993172)
(0.0558443 -0.0502516 0.997174)
(0.077483 -0.0478388 0.995845)
(0.0898677 -0.0370519 0.995264)
(0.0784761 -0.0482749 0.995746)