/*--------------------------------*- C++ -*----------------------------------*\
| =========                 |                                                 |
| \\      /  F ield         | OpenFOAM: The Open Source CFD Toolbox           |
|  \\    /   O peration     | Version:  2012                                  |
|   \\  /    A nd           | Website:  www.openfoam.com                      |
|    \\/     M anipulation  |                                                 |
\*---------------------------------------------------------------------------*/
FoamFile
{
    version     2.0;
    format      ascii;
    class       volScalarField;
    location    "0.106/solid";
    object      sigmaEq;
}
// * * * * * * * * * * * * * * * * * * * * * * * * * * * * * * * * * * * * * //

dimensions      [1 -1 -2 0 0 0 0];


internalField   nonuniform List<scalar> 
3125
(
57035.2
112861
258.59
13125.1
116987
59701.9
69969
121492
95641.5
51201
67521.1
84581.9
60170.1
57912.4
117304
43379.4
44721.7
92035.9
38851
48643.1
81300.9
30416.9
53804.3
14968.6
56833
23617.9
41055.7
16529.6
42056
10703.5
36499.9
12822.1
27913.4
9128.72
201.27
21027.7
14604.7
294.226
9245.72
175.68
11104.8
7871.95
81518
85254.7
2513.27
3404.83
151385
146970
139126
156185
122425
64588.2
88698.3
102234
119703
66054.4
106679
151748
99879.4
116799
126208
122224
32814.5
112664
25649.3
58588.8
15021.5
14665.6
14915.7
60930.5
14581.6
108986
18813.9
23651.4
85342
56700.5
72271.2
84152
52091.8
70561.4
89169.4
94263.3
77669.3
53034.1
50008.5
66088.8
65148
68313
57026
12249.7
13996
15093.3
40809.3
14984.1
59859.7
17562.1
14711
13892.4
38181.3
14814.9
33265.1
30658.6
51773.8
35569.1
38000
31297.3
23011.3
33258.2
48849.4
33798.8
36962.7
32860.7
22450.6
33791.2
25338.7
23235.3
11732.7
21831.7
10151
18665.7
8719.62
11080.8
13450
20838.8
11759.8
20000.8
7558.43
9571.36
3356.75
2296.8
7876.71
19894.9
13327.2
11441.5
4331.46
19111.7
10378.1
2448.35
10803.5
8919.06
1144.58
1765
933.054
2516.19
3112.2
7821.35
6502.91
4798.25
1459.38
6776.54
4078.03
2730.94
5078.46
3720.73
67150.7
100740
328.052
8248.31
169341
129620
174155
140287
61411.2
67374.9
69809.1
82769.4
68743.1
80819.6
134271
99058.9
109754
142545
106751
127843
98114.3
53717.5
37584.5
39019.1
45774
65399.7
44888.2
94744
65440
72711.4
70590.3
50908.6
59502.9
64876.3
56046.8
62314.3
104982
96380.3
86105.3
46018.3
45648.3
48812.8
53100.6
81542.7
46279.5
31528.7
36679.5
36078
46051.7
34507.7
71777.3
62637.4
55868.7
24265.6
32972.3
26017.4
44535.9
21118.8
48625.2
47252.6
40746.1
26198.4
23597.7
26359.2
43212.1
38681.9
40394.1
22941.5
16435.5
21754.6
34474.4
15593.7
29525.1
29825.4
24933.4
14653.5
11346.5
12790.4
22522.5
25474.2
20799.5
13361.3
9823.24
12758.9
696.928
1137.32
2029.82
20869.6
18442.1
18179
9492.17
15034.9
10658.6
2823.59
5128.6
392.218
5425.37
250.969
1165.74
1205.48
9952.49
9491.9
8601.54
4585.52
8745.32
6338.35
3250.42
2585.68
70650.7
96797.6
652.502
6856.24
164817
133905
161137
133594
154244
169632
126232
137568
128026
140412
147334
63040.5
74456.8
72170.2
77541.2
93235
80978.8
87700.2
97749.2
84367.1
100354
115418
97300.9
67438.8
76661.2
78783.6
111076
90970.6
94172.5
138598
123508
112460
112840
105515
119692
133491
111158
126578
138397
110554
58086.1
30233
53878.6
123985
86599.3
94790.9
27843.3
46029.5
49858.9
56182.8
41642.4
40373.9
24769.8
14913.1
25158.1
25615.8
14786.7
25441.5
25182.1
14665.2
25461
63202.7
42820.7
43903.6
14567.7
25679.2
25627.2
98229.1
83441.8
75696.4
32689.8
20240
35728.1
42397.5
21850.4
38964
74189.6
71158.5
61923.6
61222.6
61770.1
67202.6
79660.5
66965.7
73353.2
74065.1
79604.8
70555.4
54104.5
57033
59698.7
75071.2
63478.6
67023.8
100960
73691.6
83484
106042
88679.7
99306.7
86098.4
83144.1
92655.1
49370
57312.7
52867.3
47860.9
54326.6
51583.7
61668
59931.1
56389.7
56022.6
78148.8
48876.1
44594.4
38895
15204.8
12786.9
16784.6
20419.2
13362.4
18519.5
24282.2
15117.7
23702.1
43437.2
31208.6
32881.7
15083.5
22289.1
23035.5
68714.1
47012.4
53254.6
29849
16472.9
27205.3
22495.9
15528.9
24755.6
18672.3
14268.8
19654
35565
29499.4
27765.8
14577
21470.2
20589.4
41601.7
23364.3
55437.5
47004.5
49861.1
44211.9
31546.8
38638.2
42409.3
39418.9
44516.6
28762
31944.7
29143.1
23395.7
26279.1
26391.3
32622.3
29694.9
29468.1
45913.2
44767.3
42500.7
36261.9
34755.4
37574.7
40803
35849.4
39144.9
25277
29646.4
23410.6
21840.1
26011.3
25790.4
34589.7
29791.8
30040.8
32082.1
17388.3
13770
11220.2
12466.8
27729.5
19114.3
23148.6
10697.2
10192.9
11280.3
16602.2
15843.9
14289.5
10043.9
9561.24
11156.7
13362.2
10348.3
12262.4
17653.7
12945.8
16607
23112.3
17452.3
19106.5
12381.9
14456.8
15539.5
14915.8
17558.3
14079.6
6504.24
8281.8
7361.67
9188.63
8951.02
8250.78
1172.1
5208.8
2613.68
1552.82
3367.27
2517.26
6631.73
5585.55
4453.62
20486.9
16926.5
17666.3
15869.6
12960.5
15540.1
14108.9
12319.6
14942.1
8022.61
6065.13
9530.68
18201.8
15989.2
14866.8
9091.82
13080.5
11835.9
2749.86
4084.54
4678.82
8289.53
10433.3
7944.84
6545.29
9791.98
7352.7
339.973
4347.23
208.536
2960.53
1533.11
1620.92
1767.94
1277.87
2318.6
2250.8
1598.2
8920.61
6867.03
7782.99
7965.06
5974.96
7279.5
5855.9
5444.23
6624.33
3664.04
3571.44
5500.08
5667.42
5933.6
4834.59
3149.79
5030.36
3996.75
3171.47
2130.04
2414.97
3754.48
4678.79
3482.87
2744.38
4253.44
3164.74
60340.5
108778
318.572
11391.6
178471
121159
210146
183258
205717
172363
148732
125716
139318
114900
143950
118835
144081
150944
99295.4
87380
135688
122398
108213
51119.4
87921.2
76117.2
63674.5
79131.2
66479.1
48761.9
78400.2
63576.5
70740.2
57608.9
74622.3
60795.9
74427.8
134855
113160
134720
110988
130160
139449
107131
47450.1
88488.7
20627.9
41268.3
35182.7
27044.5
37335.2
28889.6
19213.5
44225.7
78072.9
73165
60927.8
46457.3
70260.5
58250.5
50643.6
16917.2
66702.1
66936.8
54481.1
53570
70522.6
63214.1
51433
25034.8
18562.5
20445.6
16712
22821.4
18623.7
22571.2
39464
12249.6
16542.4
33095.5
25257.4
34213.1
17847.1
31067.6
23537
3938.5
10466.4
8929.9
5286.99
10107.1
6228.32
3288.22
622.233
161.134
220.923
380.056
227.666
463.519
450.288
18017.7
12791.1
18196.9
14899.5
16077.1
20229.2
13193.3
368.077
7880.08
350.085
189.562
256.402
148.712
302.534
220.134
253.012
2133.25
6695.34
7826.52
4408.49
2683.4
6795.22
3598.2
3215
3361.47
2735.56
3708.24
77840.3
89051.1
1763.19
4427.42
155836
142584
186440
160645
176943
147206
181724
181696
151349
172234
147342
172182
143072
167438
176956
138982
130229
118294
72216.7
116396
101491
87748.7
104879
91021.1
69368
63846.3
105353
98161.5
84530.8
94871.8
81381
66569.8
99186.8
81572.5
99206.6
81147.7
94975.2
103496
77631
112275
93051.3
103498
84730.1
107844
107865
88353.9
62049.8
71534.8
28531.4
54251.2
51386.2
41169.2
48906.8
38978.2
30277.3
33958.3
62757
53919.4
43427.9
56516.4
45747.1
32091.5
35961.9
28139.1
48747
38365.7
42529.2
34570.8
45760.5
45418.8
37190.9
39066.8
30243.7
39402.1
32030.7
36379.3
42188.3
29583.3
27514.7
21213.2
10752.8
23733.9
20110
14372.3
21792.1
15761.5
9742.3
7861.9
18239.2
18495.5
13040.5
16944.5
11771.7
8775.19
4798.89
2509
4781.49
4098.21
3707
6006.72
3226.31
2062.71
2107.68
2294.81
1918.08
2336.73
2017.01
1813.31
8807.04
5438.69
5996.79
5077.66
7351.45
7342.59
6169.49
2765.17
2569.92
2373.69
1993.64
2508.82
2598.44
2062.29
672.329
2510.87
474.433
524.301
1611.75
330.765
1187.6
473.851
390.604
1938.07
2261.65
2156.26
2544.42
1875.12
2212.15
2243.83
270.392
2097.46
2118.55
303.058
2710.48
585.471
279.183
2666.01
2914.54
2250.93
2818.46
2481.37
2423.46
3061.62
63717
104737
234.663
9763.67
173896
125375
210078
215302
205404
178694
196096
163909
200905
168118
200665
219074
109416
120143
112002
118714
100957
100120
103990
104707
107744
113694
105099
115236
131005
141625
142433
128772
124043
123940
132148
146381
134300
145711
121149
121112
169257
164024
153405
129982
153277
126804
148608
122817
158085
154716
159918
146722
103005
30590.5
32630.2
84228.6
131747
115263
101175
118818
104665
81143.6
36712.4
34568
78315.8
73191.4
81005.4
72071.5
81516.3
79765.7
84128.9
85809.7
77093
68630.3
74367.7
69847.3
98116.3
86625.4
87209.8
95659.3
107166
108291
98585.2
89417.8
100990
88951.3
104973
103753
16396.3
14892.6
53547.4
91307.1
85284.2
72260.1
82182.5
69344.3
56023
12586.2
13989.3
96187.8
91531.2
82440.8
67055.4
82575.3
67355.3
78572.7
64055
86536.6
83125.7
87640.3
98851.4
103348
105089
96128
96117.3
97075.2
93079.3
92002.8
100671
110216
103356
108571
136186
141303
130273
109047
121113
99497.5
125621
103289
125722
150602
145433
72429
78560
76494.6
75196.3
67364.7
65759.1
70231.2
71770.5
70366.8
71117.3
67614.4
73221.1
50246.7
84986.9
4444.53
3798.1
22101.8
43743.8
41794.6
32744.9
39537.6
30790.8
23619.7
3438.71
3971.96
68874.9
61342.2
62724.1
66112.4
75286.2
77103.1
70297.5
66353.3
73040.9
65051.7
72586.7
70712
8794.39
9993.18
42047.5
74900.5
64602.6
53065.7
67411.3
55627.6
39936.8
11858.7
10559.6
44327.5
43252.1
41651.7
47015.4
44507.1
42529.6
42614.5
37657.9
39975.8
39266.5
47181.2
49178.8
47553.5
18973.1
67109.8
71303.5
62943.8
50371.8
55973.5
45515.2
59555
48435.9
59264.5
79343.5
74978
35583.8
38226.1
37939.7
36163
33214.3
31374.8
35385.2
37235.5
33708
31761.3
31434.9
33783.3
60762.1
60559.3
62703.1
58085.4
61287.5
62948.3
62833.7
67932.9
65549.6
65804.3
58548.2
56830.2
36310.3
33199.2
27617.5
20704.1
27908.7
22732.5
25313.2
20637.9
30309.7
27697
30553.1
36934.2
13883.4
3067.11
3414.4
15283
31989.4
27177.6
20254.4
29096.9
21868
14077.4
3646.93
3214.01
13244.7
14079.5
15101.7
12865.9
12383.2
11111
14147
15570.6
12047.9
10164.5
10361.2
11258.8
34001.6
29855.8
31432.5
31513
37960.7
39906.6
35697.1
35317.2
38263.5
33718.5
35408.1
33507.7
2714.63
2540.08
4636.66
11878.7
12649.9
8274.76
11349.1
7225.94
5372.41
2382.73
2557.89
3402.12
2270.04
1134.01
344.881
1196.17
1218.93
628.498
766.694
1861.79
981.642
713.988
1106.1
1060.08
754.981
771.265
1217.14
1051.01
1364.84
25712
23586.2
25490.9
23636.2
27488.8
29315.9
25559.5
23760.7
27449.8
29537.9
29628.9
27567.5
18126.8
20470.5
15919.4
11082.6
12188.6
10065.7
14070.3
11576.4
13946.4
25279.3
22675
6947.02
8516.11
6603.97
8900.02
4873.16
2907
7129.97
9090.91
4667.77
2290.44
2586.47
4361.79
383.775
6603.29
1153.35
1257.87
404.309
244.683
430.446
517.82
360.398
359.576
456.576
816.248
658.83
1043.89
1189.25
633.289
789.934
1096.6
1220.64
1332.39
6953.69
5742.19
6535.15
5664.99
8445.56
9544.37
7820.85
8730.83
9315.59
7777.24
7100.97
6202.08
1949.04
2157.21
1629.65
5598.39
4934.7
2161.64
5829.82
2846.63
1179.47
2375.81
2186.66
3630.49
3037.79
3458.92
3239.53
3194.72
3312.09
2661.95
3558.6
2769.62
3649.74
3073.96
3982.79
4160.18
3920.76
3921.67
4065.34
3721.25
3743.02
3349.37
74216
92900.8
1137.6
5582.37
160315
138230
205669
209428
214017
201050
204215
193639
209119
218124
199505
186668
196564
190801
206238
200995
191187
165134
191300
159698
195922
186514
155528
191826
197079
192858
205259
197521
200626
183998
172277
176522
180851
188769
183740
191822
179546
189257
191711
196391
184544
116120
123595
113594
124915
111314
111762
117630
129539
128344
120090
108311
107726
133002
127294
124058
135157
135098
138637
141536
131236
137854
148737
141684
145916
129076
118584
121855
126831
141118
129409
132591
139067
150765
162832
154509
160192
144999
137760
134630
146949
148163
153100
144364
155838
163504
149357
152271
161924
174897
189375
178393
187179
167226
156769
153924
168688
172669
180654
182970
169106
125224
138305
127539
137367
115058
114744
123899
132934
121505
134005
118010
118188
156444
147606
158148
144611
160722
167152
169696
157033
163150
176411
173986
166775
152628
139700
150803
142761
173319
178571
167507
142955
157976
130840
162789
162703
134892
187857
182597
159089
169303
164563
163861
151665
142112
146477
148211
156473
154140
149784
159870
155268
155426
160173
150486
172405
173661
178396
167643
172813
169178
176052
164881
176137
187433
180873
182723
168003
157377
161703
164684
134299
114399
18669.3
19297.6
21357.1
17075
24953.2
37398.9
24086
36620.7
17568.9
24263.2
22027.5
19440.6
24390.9
36880.6
25318.7
37644.8
28824.7
26889.3
75138.1
120168
111763
97732.6
78104.6
108297
94353.5
23461.5
25290.8
16863.8
18816.7
18204.7
16937.3
24969.4
36857.8
37642.3
25887
25642.8
37733.7
24705.8
36963.5
17965.9
14958.2
16637.2
16845.9
84771.2
75346.1
82121.4
76371.9
92459
93966.1
85769.6
79368.8
78453.1
88375
89962.3
88367.7
58675.7
68104.6
65996.4
59210.8
51405.6
41942.7
41966.4
49867.2
51851.1
43235.6
53333.4
43329.2
56870.3
62993.5
65141.1
56229.7
61360.7
68830.9
70884.7
60941.3
55229.7
45174.9
56599.8
45511.8
63008.3
73484.4
71482
63312.2
55072
44518.1
53638.5
44306.4
67894.1
78235.2
80057.3
67963.8
59436.2
46568
60591.5
47368.5
69178.1
81836.4
80066.1
68990.8
59918.8
47212.4
46525.7
58712
92544.8
84795
95057.2
84100.6
97808.7
96392.6
91808.7
81370.9
89244.5
82180.5
100159
101481
66526.7
78075
66580.6
76188.2
57922.3
46286.9
45834.1
56608.7
57770.2
46282
46859.6
59026.7
65052.8
73937.4
64876.8
75878.6
17465.8
19079
61175.2
101770
88430.1
75242.9
58572.8
91634.7
78282.2
22043.6
20324.5
17145.5
12302.9
11283.5
17830.8
24889.7
34483.5
35402.6
25503
25828.3
36252.3
35367.6
25123
17779.5
10681.9
11501.2
17166.2
17845
12155.1
13398.4
17053
26010.8
37372.4
25145.6
36557.3
16934.4
14837.7
17869.3
13371.3
25204.6
36059.5
36905
25997.3
100147
104928
94915.4
77850.6
86646.9
70727
90698.2
90784.2
74148.3
113850
108960
91188.3
97334.5
92954.9
95600.2
86488.9
80986
85005.5
83025.7
90806.5
92465.4
94331.3
88342.9
87498.6
84582.8
88854.8
83191.4
103877
101517
106003
99362.4
106849
107711
110424
103443
107691
114828
110264
112285
102316
95834.6
98761.2
100038
116639
107348
110675
114235
124545
134263
128424
131297
120564
116319
113008
122900
121680
123907
117786
126929
91498.6
99876.5
94251.8
98051.5
84769.2
83487.6
87785.7
88967.5
89568.2
92691.1
94594.2
86792.1
107847
104965
110316
101619
108063
109108
112205
104195
111001
119572
114882
116505
103960
95849.8
99190.5
101436
132067
127010
116725
96985.5
116653
95736.9
121204
112232
92033.4
117921
122900
138000
137189
141903
133253
139908
138764
143411
134384
141872
151036
146302
146634
135140
126633
130998
131596
124670
132809
128132
129376
118619
111135
115037
115449
120798
119140
116135
123772
123295
123224
118873
126865
82297.7
81778.5
78504
84904.7
81057.4
80148.7
83225.6
77396.5
83979.5
90336.8
87238.5
87711.2
78645.3
72789.9
76009.5
76037.4
80020.1
81888.9
77240.5
83918.1
79114.1
80487
76154.7
74692.7
82035.5
89269.3
84816.9
87298.2
91225.8
84265.3
88635.3
87573.7
97403.3
104854
101741
101241
94450.3
94438.5
97557.8
90657.5
95020
93391.9
97587.2
90055.1
59004
74817.2
4325.93
5093.89
26836.7
51536.3
44108.8
34764.8
25203.6
46484.6
36842.3
5954.68
5077.68
14022.2
9060.32
8827.33
14553.5
17669
21875.9
23010.5
17552.3
18943.5
24961.5
18995.7
23825.9
13671.7
8435.5
8664.16
13133.9
15350.4
9150.17
9403.5
14822.9
21476.7
28612.1
21362.2
27507.9
15521.9
9700.53
9420.74
16043.9
20232.6
25710
20260.1
26833.6
51680.3
56533.8
58753
50840.9
47710.4
40508.4
49293.6
40372.8
53608.7
62023.8
59832
54357
47014.8
38625.7
45383.9
38869.5
61840.6
58975.7
64613.2
57528.4
63318.4
61359.5
60271.4
53623.7
55129.6
57500.3
66059.9
67986.3
47930.4
55359.3
48856.6
53111
42006.9
34681.8
35120.4
40314.7
42915.8
37070.4
44576.8
36724
45909.6
49592.9
51850.3
44907.2
8395.66
7299.34
35894.2
65706.9
61854.6
50561.2
37878.7
59158.3
48127.4
6057.95
7049.34
17425.5
10028.1
10533.2
16889.7
25009.2
34377.1
24495.8
33411
17088.6
10939.1
10292.8
17651.7
23944
32167.5
33168.9
24352.9
16563.2
10230.5
9829.04
17085.7
22368.3
29199.2
22574.2
30273.8
16625.6
9635.19
16104.9
9965
23536.8
31800.1
30756.8
23231.1
35368.4
40913.5
38674.9
36531.3
30801.7
25525.8
26229
29094.9
31973.4
28566.8
27916.1
33690.6
33310.7
35008.8
37209.7
32122.6
51445
45658.9
48718.7
47245.4
56627.1
58610.2
53119.5
51211.8
55870.9
49660.9
53888.6
51893.2
39722.2
42347.1
38599
44602.7
37607.9
33035.9
32515.3
39320
36541
30249.9
30846.2
34819.2
41785.2
48260.6
42856.5
45994.3
38743.5
25707.4
71916.1
68608.5
72601.3
67889.2
75437.4
77721.7
78833.1
73802.5
75419.5
80603.5
76465.3
79586.3
71393.4
66828.4
68082.6
70616.1
63574.4
59564.7
52168.7
41250.7
52484.3
42664.3
55672
49082.5
39897.2
52364.1
56168.4
60647.1
64893.6
64505.6
61067.9
57289.7
53612.4
57103.6
54196.6
60990
63740
64203.9
60090.8
57400.9
53854
57505.8
53710.1
42302.9
40736.5
39867.1
42839.3
43740.5
45559
44279
47611.7
45486.6
46785.5
41354.1
39512.4
36549
38736.8
36151.6
38838.5
34093.4
31389.7
33759.4
31462.2
36345.8
38985.6
39134.3
36491
33986.3
31627.4
34084.1
31781.9
43935
40883.4
43583.6
41570.1
46934.9
50363
50024.4
47642.5
46826
48631.6
45815.6
49265.3
44451.1
41907.2
41502.4
44521.3
66436.5
61616.1
64704
63863.3
70944.2
76257.3
74514.8
73225.8
69883
70318.9
67153.7
72482.8
68117
66475.8
69454.4
64642.4
53401.6
57561.4
56031.3
55413.7
49838.4
48043
51366.5
50381
48790.5
52524
52410.4
54173.9
57998.4
59209.2
60532.9
56198.1
55847.3
53658.6
56483.9
52618
58528.5
62855
59953.9
61880.8
54804.1
50925.7
52314.4
53840.1
39151.5
42508
36039.5
27713.4
30621.2
24925.6
33118
33449.8
27209.7
49142.6
45551.9
35096.5
37618.2
34599.6
38163.1
32995.4
30848.1
33608.2
30492.8
35853
38992.3
36032.3
38519.8
32536.4
29036.9
31832.7
29682.3
44197.9
40594
43839.7
40912.7
47721.9
50755.6
50683.1
47426.1
47126.5
50480.1
50615.1
47025.4
44419.1
41559.9
44703.8
41603.3
29764.7
19262
11700.1
7481.81
7711.25
11162.4
16098.7
21016.9
16274.4
19881.8
12175.1
8215.38
7987.11
12712.9
14833.1
17875.8
14608.6
18992.7
3246.88
2965.31
11815
25699.4
25322.6
18696.9
12916.8
23529.5
17204.2
2875.31
3106.94
10116.4
7165.85
10647
6935.99
11895.4
13911.8
14968.6
11607.4
13102.6
16970.2
13365.9
15876
9576.15
6357.7
6588.42
9055.26
18446.2
15842.7
16433.1
17163.3
21168.7
22834.8
19888.8
20472
19064.2
22043
19065.8
17513.9
11416.2
13576.3
11982.2
12387.1
9502.23
7798.92
8421.13
8329.79
10442.7
10310.3
11717.2
9634.3
9987.49
9450.92
10900.8
9108.15
14992.7
14768.2
16488.5
13945.5
15217.5
14507.9
16675.2
13760
16667.8
19612.7
17774.3
17777.6
14120.1
11628.6
12744.5
12346.2
26898.1
27802.8
29899.4
25697
26214.3
23852.5
27895.1
23116.2
28887.2
33532.7
31373
30091.3
25002.1
20703.1
21465.2
23355.7
27463.1
27640.9
29857.3
26105.9
26839.3
25076.3
25860.3
22495.6
23575.4
23976.3
29200.4
31042.9
22575.5
26350.2
23759.3
24322.9
19362.3
15997.8
16765.4
17829.1
20551.9
19093.3
18325.2
22145.9
20709.2
20970.7
19557
22907.6
2670.22
2852.82
6987.99
16545.1
14017.7
9384.95
6159.63
15453
10552.2
2982.25
2780.04
5970.39
4791.44
4568.73
6433.64
6421.88
6884.86
7718.53
6126.88
7384.67
9375.28
8472.75
7690.16
5463.56
3984.5
4205.78
5022.34
7451.72
5162.79
5390.05
6965.97
10141.8
13022.6
10444.4
12006.4
7999.67
5993.3
8503.88
5763.43
9037.08
10187.1
11148.1
8728.18
4562.15
5944.15
3703.12
1779.36
1906.35
1775.91
2717.97
2746.67
2450.41
8906.48
7297.28
3335.46
3978.22
2719.72
4714.14
1855.28
1863.85
1479.35
1441.76
1504.44
1858.94
1662.56
2442.07
1614.52
2839.78
1539.45
3841.15
6021.16
5279.3
4449.66
2109.67
1259.98
1683.83
1435.91
7513.65
5230.87
6673.52
5971.47
9635.44
12155.8
11298.5
10362.4
8911.4
9765.73
8108.23
10662.7
8125.9
7346.34
6632.97
8953.75
25075.8
23274
25466.7
23064.6
26877.9
28866.2
29343.1
26625.3
27281.8
29663.5
27331.5
29397.3
24893.9
22195.5
22589.9
24302.4
20020.6
21670.3
21987.6
19845.1
18532.5
16845
20202.8
21954.7
18469.8
16353.1
18086.9
16617
19139.2
21529
21038.4
19475.3
16929.6
14395.1
16216.4
14974.8
18624.6
20087.8
20750.9
18119.4
17302.3
15948.1
17851.8
15518.8
16152.1
14060.6
10395.4
6670.61
10446.3
8663.44
12107.4
8835.64
7367.69
10452
12296.7
22529.7
19308.1
21635.8
20128.3
25526.5
28593.9
27861.3
26020.3
24698.8
26507.8
23947.2
27319.6
23128
21559.1
23930.4
20958
15985.3
17231.7
15136.2
18160.2
14851.4
13731.6
13016.5
15713
14210
11400.6
12243.5
13278
16790.3
19641.4
17462.3
18792
5863.62
8187.06
6304.13
7659.24
3517.44
1677.93
3150.38
1761.16
5464.11
6550.02
4925.55
7213.53
3790.08
2055.15
4117.49
1878.34
12048.2
10037.9
10357.4
11638.1
13657.7
15297
12215.6
10601.8
13414.9
14758.8
15171.4
13103.2
10711.3
9625.72
9142.73
11299.6
11643.5
12696.1
11017.2
13433.5
10245.7
7972.59
9513.38
8602.72
12199
14458.3
13868.9
12682.6
386.292
3375.96
1010.87
1078.88
514.35
257.841
586.583
589.395
503.313
842.695
574.572
1284.4
1067.51
1814.29
1388.11
1535.72
1566.5
1703.82
1971.41
1378.95
1587.84
1404.76
1718.36
1926.7
2179.95
2619.23
2533.03
2273.82
2052.87
2034.49
1756.34
2345.43
1914.14
1612.09
1626.17
1923.72
1312.43
1317.24
1242.89
1404.18
1693.31
1869.66
1653.48
1625.61
1371.25
1500.67
1382.35
1562.51
1432.98
1786.18
1720.81
1663.41
5921.49
5267.04
6395.89
5266.1
6436.29
6695.71
7491.39
6138.2
7046.7
8497.62
7199.17
7825.11
5712.85
4672.39
4778.24
5154.27
3970.12
4712.39
5012.08
4117.48
3675.56
3318.66
3581.04
3005.75
3341.28
2858.27
4454.86
5114.4
3803.98
4637.31
4309.53
3701.73
2973.05
2471.49
2710.62
2368.68
3394.97
3813.79
4188.63
3425
3045.85
2614.55
3290.92
2746.68
1894.9
1662.86
471.72
2834
4117.84
1551.19
787.497
3378.39
1023.45
1346.27
1593.36
3687.9
2843.37
3070.11
3283.95
4963.77
6199.05
5241.63
5432.9
4125.65
3632.18
3409.54
4547.73
4157.94
4135.21
4828.01
3901.57
2503
2513.85
2287.97
2885.8
2313.62
2106.21
2170.86
2598.29
2153.8
1769.65
1819.79
1975.28
2955.85
3616.86
3005.47
3175.25
3080.73
2911.76
3306.39
2674.41
2817.23
3054.43
2680.47
3432.98
2993.1
2514.05
3264.14
3116.82
2946.88
2788.08
3247.43
2866
2228.25
2591.1
2499.29
3324
3740.24
3589.54
3511.31
2733.69
2835.54
2852.25
2504.87
2903.77
2906.52
2499.92
2557.31
2789.03
2567.02
2859.94
3152.91
2167.48
2545.29
2503.09
2406.35
1916.13
1955.22
1974.28
2180.29
2040.56
2114.67
1794.6
2181.66
2277.5
2488.44
2262.56
2212.22
3670.57
2998
2894.14
2719.85
3501.76
2903.25
2771.85
2343.77
2907.22
2511.19
3279.41
2905.81
2667.16
2784.71
2220.05
3129.89
2614.55
2127.96
208663
147395
161019
205471
204139
196753
144685
153216
157086
201420
199570
149264
107903
103009
143723
111530
144715
148380
153812
157254
118905
105708
115226
158391
152568
66782.8
52972.1
104087
69527.2
111075
50191.7
64050.4
45562.2
100684
104590
107834
48215.9
61423
36325.5
69138.1
67593.1
23037.3
71866.9
34432.3
24868.7
38311.2
28134.8
77427.2
70488.3
74612.4
40320.6
26164.8
79988.3
54806
53953.8
76435.5
57751
76045.1
80475
83995.7
88443
63837.4
56314.7
60782.4
88067.9
84272.8
135679
104269
139551
92517.6
140198
100706
134923
131201
126185
93638.3
89863
97137
126727
130764
12911.6
32394.9
33007.8
6496.17
34319
11920.1
7178.24
13969.8
8623.04
38304.6
35118.8
36280.7
15056.2
7801.02
30803.4
66484.3
21845
60568.8
32570.2
63855.4
20158.4
29064.4
17521.3
58761
57859.8
61296.7
27414.6
19064.7
68353.1
51895.5
72755.1
45711.6
72165.7
49071.2
68847.4
64616.9
61535
43509.3
43581.6
46282.5
65287.1
60952.6
26687.2
16792.7
18236.3
25067.6
18572.8
24209
27622.5
29288.3
32924.3
22406.8
19774.6
20456.3
31999.8
30136.8
10067.8
30538
5928.38
28135.7
10960.2
28724.7
5390.5
9202.87
4475.89
26240.7
25263.4
26973.3
4875.08
8398.96
2133.57
9059.86
10653.7
2024.69
10107.7
1792.67
1971.29
2522.53
2158.79
12367.7
11856.2
11209.4
2934.68
2213.01
1640.78
2922.44
1653.07
1363.61
1116.01
2521.12
1910.07
19592.6
15091.6
22776.3
13395.2
21842.4
13487.9
20446.5
17461
16274.9
10533.4
12125.2
11960.6
15449.2
18367.5
752.337
786.677
812.438
989.406
677.508
637.561
936.735
1224.47
8076.35
1815.74
7988.72
1481.2
7148.05
1846.86
1000.51
1645.22
5464.2
7030.6
6278.72
829.91
1660.97
185879
137785
179155
130502
183853
181283
141597
190440
192666
149312
133225
195027
187978
145471
172114
133949
175007
119305
176714
170301
130178
167545
161429
122651
116584
162950
166129
126383
53812.9
92091.3
89044.1
37040.5
95175.2
39430.4
51426.5
56304.5
43701.6
101424
92287.6
58808.9
98263.5
41177.4
46804.8
89085.3
81070.8
35412.5
86091.5
49061.9
33162.2
44568.1
29538.1
80261.6
77999.6
42431.1
83171.2
31648.5
100576
76625.9
104954
67722.1
100576
104849
73372.3
96359.3
92325.6
66972.6
65233.8
92183.7
96604.5
70133
113501
79955.9
108985
77239.6
109151
113442
83301.2
117876
122059
90143
79822.4
122296
117533
86720.1
18678.3
46895.6
42861.1
12130.4
44664.7
11023.8
19976.4
17410.7
9309.02
40369.1
40545.4
16217.3
42500.3
10272.7
22772.1
49161.2
48835.2
12959.4
51498.4
21357
14212.4
24269.8
16522.2
56296.7
51352
25797.5
53863.9
15123.5
50453.9
33420.2
47857.5
34006.1
51261.3
47132.9
35844.6
53869.1
58119.1
40927.8
36016.1
57372.2
54529.9
38362.7
40771.1
31054.5
44764.7
27338.7
43903.4
41549.9
28782.1
37741.5
35633.2
24452.3
25552.5
34815.5
38638.1
26569.9
6217.55
18984.4
20256.2
3172.79
20478.9
3318.78
5581.46
6908.04
4006.41
23616.9
21928.6
7622.93
22018.5
3741.47
4415.6
17554.3
16500
2795.65
16173.5
4971.44
2751.17
3882.17
2445.32
13579.2
15061.4
3397.05
14852.4
2422.15
5833.9
4723.42
7843.36
4202.44
6415.57
7154.53
3826.24
4622.64
3961.39
2280.36
3468.66
3513.44
5178.53
3010.64
10121.9
5705.25
9270.16
7220.21
8580.9
10911.1
6779.21
11781.9
14421.3
9193.59
8216.71
13559.1
12555.2
7945.2
486.425
2268.17
2449.09
928.586
1797.93
795.966
495.741
497.418
692.791
1055.99
1957.55
549.554
1393.77
708.253
554.963
2790.09
4147.17
1097.77
3377.41
520.803
1219.76
612.948
1465.52
4712.49
4871.26
695.731
4015.68
1397.49
)
;

boundaryField
{
    left
    {
        type            calculated;
        value           nonuniform List<scalar> 0();
    }
    bottom
    {
        type            calculated;
        value           nonuniform List<scalar> 0();
    }
    interface
    {
        type            calculated;
        value           nonuniform List<scalar> 
2120
(
57123.3
113059
399.734
13123
117195
95452.8
44569
91848.3
53884.6
14970.6
41908.2
10612.7
219.99
407.109
9156.63
216.841
81654.1
85398.3
2487.61
3379.16
151662
147237
126025
122042
64974
68134.4
33305.9
30692.7
25218.4
23119.8
2236.45
2374.27
1063.48
1685
2479.51
2698.92
67257.9
100915
312.005
8235.54
169654
129852
142372
106564
52938.4
81356.3
44598.9
21134.2
34337.3
15493.4
1109.11
2699.14
416.719
5343.14
1138.1
3219.28
70764.5
96963.3
623.539
6838.72
165119
134146
138225
110365
55855.4
77965.7
41657.5
23383.3
31949.9
17283.3
1525.44
2634.22
323.744
4266.45
1590.28
3134.89
60433.1
108969
396.538
11384.5
178802
121373
211106
206580
149475
144810
150779
99107.8
86689
50563.5
66018.7
48211.7
78826.9
71092.2
74989.4
74836.8
135546
140155
47294.6
88300
20295.9
18890.7
43703.4
60485.5
45924.8
57814.9
50717.5
16922.4
67071
67270.1
70908.9
63528
25174.1
22697.2
39318.6
12155.4
16250.1
17542.3
3808.27
5166.09
6098.94
3163.1
613.168
200.801
354.039
416.14
446.438
18116.8
18284.3
16151.3
20340.2
468.857
7793.21
318.886
231.592
169.581
239.969
238.602
2024.25
4295.87
2567.72
3491.3
3330.59
3714.54
77968.3
89201.1
1733.49
4404.19
156120
142843
187321
177721
182514
182566
173070
177805
130051
118107
71572.9
87234.8
90502.6
68726.2
63227.3
65943.6
99717.3
95435.3
104045
112864
108437
61875.9
71355.7
28122.3
40807
38625.1
29855.6
33509.7
45362.9
31651.4
36006
28167.7
49018.8
45988.3
45674
39286.5
39599.7
36559.6
42423.4
27390.5
21100.5
10532.1
14176.4
15554.8
9530.26
7676.2
11595.7
8578.56
4815.64
6031.23
2063.84
1746.71
1692.47
8849.7
7376.16
2478.72
1771.06
1784.74
587.928
2432.07
445.519
518.264
351.666
2230.46
2537.05
2236.24
109.435
198.363
2876.53
2817.38
3058.82
63815.9
104917
263.832
9751.62
174215
125598
206345
201596
110409
101022
103908
108308
131794
123902
133432
121217
170278
154170
153973
149284
158865
146557
102815
29594.3
83551
100640
104129
80465.8
36103
79056.9
82086.5
84626.1
77229.2
98254.1
107853
99418.2
105787
16090.4
52973.9
55440.2
82890
78958.5
87003.4
83801.4
99334.4
96047.2
93137.1
101552
130941
121687
126209
126373
72964.6
67387.6
70179.6
70605.6
50086
84801
4853.22
21751.4
30483.4
23256.1
68996.2
75714.8
70987.9
73073.3
41542.6
39439.3
11710
44830.3
44744.2
42651.5
47398.2
47619.8
18981.3
63291.5
59850.7
59594.3
79817.3
35734.4
33199.2
35345.4
33733.4
60931.7
61238.3
63257
58558.7
36493.4
27772.3
30478.5
27907.6
36793.7
13785
3544.44
15007.7
21618.1
13811.4
13464.9
12335.8
14098.6
11965.6
34007.1
38107.4
36127.3
35567.5
4494.52
5220.86
2652.95
1120.46
1184.58
601.211
1854.49
972.356
695.76
1020.06
765.538
754.814
1039.36
949.585
25717
27454.7
25543.1
27538.5
16005.7
12244.1
14133.5
14021.3
6950.56
4856.13
2074.5
7130.66
4638.36
1316.83
1681.16
448.05
6519.06
357.454
558.877
409.967
409.684
731.101
638.886
1170.14
672.298
751.545
1134.71
6852.21
8334.93
7978.03
6996.65
2148.18
1527.22
2070.09
2748.07
1076.32
3629.53
3276.52
3565.58
3652.92
3953.68
4139.44
3872.05
3902.62
4042.72
3746.58
74335.5
93058.5
1107.42
5560.24
160609
138479
206636
204134
210409
199879
192088
196833
187320
194060
184358
188724
190146
116765
111216
118727
108381
133012
135698
138881
129271
141327
151899
144993
148846
163728
176229
167167
173511
126420
115128
124618
117892
156414
161488
164384
152848
168322
158688
163590
163429
160095
151979
156475
155984
173210
172794
177243
168343
134120
114214
18624.7
25528.8
17525
25411.1
74479.1
77440.4
93828.3
22573.1
16977.4
26005.2
26245.5
18017.2
84917.8
93022
86549.2
90615.7
59397.1
51454.7
52299.9
57761.4
62365.7
55687.8
63812.8
55113.2
69116.3
59883.9
70132.5
59919.2
93357.9
98543.1
91953.7
100785
67408.2
57948.6
58227.2
66169.3
60571.7
57973.8
17442
25807.6
26381
17943.8
17967.8
26599.7
17163.1
26198.7
100956
95423.2
91187.7
91766.6
86667
90832.2
87853
104320
106876
108378
102532
116813
125463
120585
122194
92266.9
84817.1
87724.1
89966.3
107871
108491
111806
104112
117337
121832
112767
118865
138626
139924
142774
135425
125465
118870
121332
123320
82316.2
81321.1
84557.4
78743.5
80337.9
79058.7
76190.1
82685.4
91349.8
98095.2
94794.2
95044.2
58835.5
74633.9
26445.9
24822
6197.43
14317.4
18165.4
19240
13821.2
15520.2
21844.4
15842.2
20839.6
52453.8
48142.8
54244.1
47063.6
62475.9
63720.5
60368.1
66418.9
48475.9
42049.5
43322.3
46566.3
35426.7
37399.3
47731.9
17607.8
25508.3
17416.2
24767.3
16896.5
23085
16807.6
23974.1
35731.6
30816.6
32310.4
33738
51514.9
56914.4
53689.4
54207.4
40261.4
37983.1
36571.5
42240.2
38792.6
25729.9
72186.3
75456.6
75892.8
71536.3
52460.4
52747.5
55980.4
49327.3
61019
57395.8
61003.1
57595
42364
43696
44506.5
41344.6
36534.9
34124.8
36528.6
33992.1
43957.1
47202.9
46819.7
44522.7
66506.1
71412.8
69894.6
68307.3
53722.5
49837.2
51474.9
52363.8
57999.8
55973.4
58892.2
54849
36241.1
33303.7
35289.9
33041.7
35850.8
32607.5