/*--------------------------------*- C++ -*----------------------------------*\
| =========                 |                                                 |
| \\      /  F ield         | OpenFOAM: The Open Source CFD Toolbox           |
|  \\    /   O peration     | Version:  2012                                  |
|   \\  /    A nd           | Website:  www.openfoam.com                      |
|    \\/     M anipulation  |                                                 |
\*---------------------------------------------------------------------------*/
FoamFile
{
    version     2.0;
    format      ascii;
    class       volScalarField;
    location    "0.106/solid";
    object      sigmaMin;
}
// * * * * * * * * * * * * * * * * * * * * * * * * * * * * * * * * * * * * * //

dimensions      [1 -1 -2 0 0 0 0];


internalField   nonuniform List<scalar> 
3125
(
-1739.46
-2786.98
-750.005
-691.251
-2848.82
-22961.6
-27110.7
-2476.17
-2377.56
-48627.9
-64769.1
-1266.69
-1577.1
-22388.2
-2418.49
-18101.7
-1395.02
-2320.05
-723
-46110.3
-1236.93
-28190
-1674.83
-740.477
-1520.39
-11386.5
-17404.5
-829.814
-1328.88
-524.305
-696.539
-10826.9
-25724.4
-335.159
-656.492
-10336.8
-793.999
-807.441
-485.688
-641.524
-9159.44
-321.036
-2245.29
-2322.29
-373.599
-421.966
-3269.2
-3232.98
-7413.74
-2882.47
-7143.4
-24691.2
-9800.34
-10053.1
-10345.9
-25279.3
-10129.3
-2830.9
-6880.93
-7070.38
-2785.07
-2733.58
-405.633
-1550.01
-1082.93
-55913.6
-8295.83
-6746.42
-4251.63
-58229
-6138.58
-1522.58
-2227.49
-1344.95
-1969.05
-6342.49
-6568.88
-9707.12
-20638.3
-9396.49
-2028.12
-6820.24
-6634.39
-8860.13
-20033.5
-9277.44
-1833.87
-1902.99
-955.255
-4507.75
-3790.88
-8683.69
-38408.5
-9381.78
-984.802
-2543.91
-3495.7
-9203.16
-35825.4
-9452.67
-1188.29
-1131.64
-6252.53
-1163.86
-5913.27
-14243.8
-6743.33
-7794.43
-8692.35
-15097.6
-8060.98
-1115.47
-5146.54
-5764.61
-917.294
-859.192
-4669.07
-501.11
-4855.61
-16592
-5939.88
-7509.26
-8979.2
-18741.7
-7953.62
-479.685
-4314.45
-4807.58
-554.275
-2478.3
-3196.61
-6292.36
-6938.15
-4610.14
-584.883
-4858.86
-3679.58
-2521.41
-5725.1
-3960.7
-241.605
-270.403
-310.456
-2614.35
-2390.3
-5350.85
-4973.62
-3463.92
-297.07
-4030.8
-2850.08
-2761.92
-3859.42
-2847.23
-1963.94
-2596.91
-226.179
-567.597
-3437.11
-3024.97
-3064.46
-1576.29
-23534.5
-17506.1
-17791.7
-19419.9
-26487.2
-19152.3
-2634.56
-1683.8
-909.352
-2954.83
-2537.9
-1692.09
-2771.35
-51106
-33887.6
-35231.1
-41549.5
-62660.1
-40721.7
-1383.99
-2362.45
-3176.1
-1745.29
-1929.98
-1497.08
-17213.1
-21812.3
-16910
-2257.8
-1049.59
-1735.52
-14744.3
-18769.2
-15163.2
-1586.02
-2154.84
-826.122
-1857.03
-2374.64
-32475.1
-43561.4
-31001
-1127.99
-2956.77
-2218.29
-21348.9
-30703.5
-23004.5
-1462.91
-895.334
-1625.08
-1365.82
-1993.57
-12388.2
-9923.44
-10705.3
-14295.2
-16674.2
-13809.8
-945.429
-2074.44
-1940.78
-1155.43
-660.685
-2248.88
-609.767
-1799.35
-12625.5
-9146.13
-10486.6
-19699.1
-23319.6
-18065.7
-395.57
-1828.53
-2114.23
-428.693
-1503.29
-1219.54
-9087.11
-9243.39
-8196.72
-701.649
-1944.66
-1975.05
-2294.87
-2855.51
-381.393
-383.761
-454.294
-1475.59
-1187.15
-7877.17
-7626.51
-6684.65
-287.259
-2057.48
-1773.81
-2932.3
-2433.09
-2043.58
-2537.89
-266.255
-535.744
-3409.25
-3086.16
-5701.47
-7315.48
-5562.42
-3016.74
-1601.62
-609.735
-7225.62
-5266.79
-5416.7
-24110.4
-18344.5
-18070.1
-13156.1
-9888.24
-13301.9
-13577.1
-9971.54
-13442
-14081.7
-10275.1
-13959.4
-25877.3
-18614.8
-18884
-10203.6
-13708.3
-13835.3
-2688.74
-753.885
-1629.52
-4816.95
-6941.27
-4896.81
-5120.3
-7003.52
-4993.33
-2909.04
-2599.27
323.062
-612.63
242.006
-1666.22
-2642.51
-3619.61
-838.351
55.7564
151.798
-53537.2
-37687.4
-36499.7
-20355.5
-7837.73
-20635.6
-20886.8
-7317.94
-20813.8
-20081.6
-4873.38
-20448.2
-60479.4
-38789.1
-39801.5
-5508.17
-20851.2
-20704.9
-1412.79
-3400.83
-2505.06
-432.509
-1919.66
-297.09
-53.0885
-1624.54
-171.56
-1803.58
-1353.87
-1852.03
-4244.98
-6423.87
-4315.78
-4457.72
-6498.16
-4384.86
-13003.8
-9608.84
-12843.1
-21229.2
-16266.2
-16595.5
-9505.21
-12492.4
-12673.1
-2198.15
-1787.47
-1196.03
-4741.69
-6759.47
-4669.01
-4526.08
-6697.46
-4596.89
-11610.7
-9012.3
-11860.6
-19412.4
-15919.8
-15553
-9150.54
-12299
-12088.9
-1655.64
-2089.52
-854.795
-2542.46
-1958.51
-1801.65
-4303.67
-1616.67
-1246.85
-4062.7
-1432.29
-19978.5
-8996.62
-19510.8
-40990.6
-27900
-29473.3
-9229.92
-18325.5
-18957.4
-1098.53
-2083.07
-2742.2
-579.396
-2864.68
-734.167
-1069.72
-3184.36
-899.038
-15167.8
-9360.05
-16034.7
-33252.7
-26290.8
-24655.4
-9444.55
-17621.7
-16855.2
-1401.04
-958.979
-4170.85
-6153.21
-4095.52
-1312.38
-2050.53
-1749.09
-6040.52
-3936.5
-4017
-13340.9
-12099.9
-11429.8
-8347.39
-7140.48
-8921.08
-9904.33
-7488.2
-9438.87
-11336.3
-8505.9
-11032.2
-15906.5
-12716.1
-13285.1
-8297.1
-10322.1
-10696.4
-987.289
-1858.04
-2074.62
-3505.71
-5388.23
-3637.78
-3846.82
-5591.39
-3748.17
-1092.6
-713.188
-1985.3
-4783.54
-2160.55
-585.712
-1792.64
-2175.29
-4846.71
-2468.02
-2324.8
-14549.7
-13364.8
-11894.6
-7575.65
-6498.73
-8521.02
-10446.3
-7023.37
-9479.21
-14263.6
-8693.37
-13331.7
-20988
-14889.4
-16459.3
-8349.87
-11415.6
-12379.7
-414.133
-2139.5
-1818.93
-2731.43
-4537.91
-2728.1
-2588.89
-4701.97
-2678.61
-454.711
-1609.06
-1321.77
-1912.16
-2144.15
-1600.22
-2299.9
-2691.41
-1958.14
-7716.83
-5784.51
-7027.84
-8108.68
-6280.05
-7260.14
-5222.15
-5497.76
-6286.49
-671.837
-1722.66
-1849.9
-3345.3
-4519.32
-3148.95
-2623.66
-4125.75
-2910
-2391.21
-2491.9
-2740.48
-4450.6
-5259.54
-4182.85
-3282.31
-4672.18
-3803.52
-280.496
-351.423
-365.752
-1628.88
-1194.2
-1889.17
-1885.13
-1452.41
-1851.17
-1979.34
-1549.08
-6648.11
-4736.64
-5744.18
-6231.11
-4544.04
-5572.45
-4104.38
-4031.92
-4869.18
-282.743
-1573.23
-1919.82
-2683.16
-3688.5
-2573.07
-2152.4
-3291.77
-2397.38
-2924.59
-2145.87
-2335.29
-2922.88
-3614.42
-2832.5
-2315.7
-3256.38
-2603.19
-1828.58
-2736.67
-510.916
-661.014
-3513.57
-2921.33
-1163.19
-3150.66
1165.13
-3481.14
-978.984
-2532.12
886.648
-2819.27
895.521
-2868.44
-955.115
-3030.69
-2438.97
-3578.17
-1762.42
1620.63
-4845.71
-2932.44
-1314.76
1103.09
-3656.72
1124.51
-3758.21
-2883.02
-995.826
-1635.45
275.669
-1921.98
296.809
-1977.27
-987.541
-960.942
-2370.1
852.249
-2757.58
803.695
-954.831
-2713.83
-1463.84
-2276.18
-2043.46
-762.946
337.908
-2160.5
371.841
-2259.86
-1994.39
-2771.88
-1200.05
1043.12
-3564.09
-2824.06
1010.1
-3480.07
-1613.17
-800.105
-1023.42
230.44
-1863.87
-1472.2
-1002.98
169.128
-1816.61
-1165.33
-869.939
-356.034
-1170.7
-343.987
-1209.67
-1157.04
-1281.09
-575.652
-1888.19
277.632
-2070.54
-668.151
-1933.6
232.811
-1994.26
-1284.44
-359.068
-403.162
-961.285
-372.939
-1027.66
-1248.69
-844.307
-504.582
-667.193
-814.12
-535.875
-731.568
-950.273
-1179.96
-765.07
-388.271
-1135.6
-434.396
-1166.31
-1105.55
-608.77
-458.036
-934.92
-602.08
-689.384
-623.254
-698.257
-684.933
-771.49
-1180.81
-310.188
-446.017
-905.832
-1210.17
-484.645
-865.053
-3065.61
-2863.57
-2319.42
-3546.13
-2192.34
-2401.24
-351.633
-462.843
-3332.07
-3192.75
-1072.55
-2929.38
1092.54
-3220.36
1091.25
-1040.11
-3258.92
-1028.99
-2790.57
1067.1
-3163.33
1029.08
-1030.74
-3129.08
-2831.63
-2703.13
-3344.81
-1597.98
1427.57
-4363.43
1441.08
-4456.82
-3298.23
-3193.38
-1485.2
1371.76
-4279.3
1347.12
-4202.21
-3246.71
-961.4
-1918.24
565.544
-2311.18
504.799
-946.13
-2262.75
-956.036
-2086.99
604.205
-2373.59
623.941
-941.034
-2428.16
-1788.19
-1967.89
-2325.88
-922.459
671.343
-2808.96
629.963
-2724.36
-2376.64
-2489.33
-1029
733.348
-2902.95
763.394
-3007.97
-2438.77
-1270.19
-1080.15
-1077.75
-1215.08
-60.4225
-1506.95
-40.0258
-1073.81
-1556.31
-1113.66
-1075.21
-103.985
-1457.75
-162.108
-1091.66
-1416.82
-981.031
-818.908
-1629.83
-533.874
-53.8427
-1493.06
-18.5494
-1579.99
-1585.64
-1494.52
-458.935
-108.287
-1416.84
-153.74
-1353.77
-1532.84
-988.03
-524.935
-494.461
-868.448
-500.458
-1029.35
-843.552
-1762.58
-2387.02
-2012.57
-2136.31
-1935.33
-1811.96
-2131.57
-1119.91
-617.252
-504.868
-900.979
-519.876
-1072.43
-938.023
-2018.34
-2510.17
-1969.08
-2085.94
-1897.96
-2108.03
-1997.42
-237.707
-298.709
-1249.94
-327.54
-682.202
-764.858
-700.533
-919.58
-1168.02
-2205.73
-2443.51
-2344.47
-2712.94
-2032.28
-2459.17
-2467.38
-1033.91
-291.332
-661.017
-664.065
-644.064
-668.215
-1040.11
-2802.91
-2843.43
-2272.69
-2942.27
-2554.82
-2588.05
-3115.62
-1910.03
-2682.57
-263.525
-624.546
-3490.31
-2991.9
147.031
-57.3598
-1145.02
-3105.57
1153.12
-3395.95
1150.2
-3428.29
-1113.82
150.935
-12256.1
-12733.7
-12637.7
-12984.3
-16076.8
-16308.5
-16567.8
-16324.6
-12570.9
-12807.7
-12191.7
-12585.2
-13362.4
-14131.8
-13799.3
-12936.5
-18736.5
-18383.7
-13163.4
-14075.7
-13593
-14435.3
-17955.7
-18298.5
-177.676
-37.3107
-983.601
-2588.76
967.035
-2967.81
923.787
-2928.55
-984.698
-116.751
-233.177
-2990.06
-2507.21
-9357.54
-9739.75
-3535.25
-1738.1
1562.52
-4685.82
1572.15
-4770.12
-3487.5
-9927.84
-9558.93
-83734.3
-78832.5
-85349.3
-77245.1
-86786.3
-84713.4
-89260.5
-91270.7
-81328
-73625.9
-79635.9
-75287.8
-102797
-92577.7
-93707.4
-101629
-113217
-114735
-104620
-96061.5
-105694
-95025.9
-111280
-109671
-8595.58
-8205.3
-2990.79
-1345.93
1209.54
-3931.05
1181.79
-3849.86
-3039.34
-7943.56
-8339.55
-961.371
-920.941
-984.422
-1692.99
396.345
-2085.63
338.306
-2036.68
-970.209
-1065.95
-1090.55
-12478.2
-12519.7
-12345.4
-12117.9
-16056.7
-15849.2
-15642.8
-15828.2
-12153.1
-12455.2
-12516.6
-12658.2
-299.393
-389.393
-955.838
-2313.94
750.471
-2600
766.983
-2651.82
-941.416
-308.665
-198.369
-12017.4
-11865.2
-11922.3
-12373.5
-14499.9
-14495
-14738
-14709
-12328.5
-11773.5
-11963.2
-11757.4
-1534.89
-2215.88
-6418.51
-6178.01
-2105.71
-792.749
470.728
-2435.54
430.068
-2351.49
-2151.54
-5956.63
-6155.74
-72865.2
-65949.7
-67737.9
-71048.9
-80046.6
-82173.8
-75401.7
-71586.3
-77160.7
-69856.5
-77453.9
-75274.3
-7423.79
-7805.76
-2715.61
-1172.25
920.209
-3285.32
948.006
-3387.19
-2662.46
-8075.78
-7691.6
-48279.9
-47130.4
-45200.3
-50226.4
-48059.1
-45842.1
-45650.1
-40991.7
-43714
-42909.6
-50709.9
-52954.1
-1552.07
-862.281
-1352.14
-1366.43
-1031.75
-1419.7
101.433
-1708.01
126.036
-1760.51
-1030.8
-1231.38
-1206.65
-10317.4
-10096.2
-10807.1
-9822.09
-11276.1
-10867.8
-11551.9
-11915.7
-10316
-9291.66
-9791.19
-9624.72
-12145.3
-11432.7
-11491.7
-11764.5
-14222
-14268.4
-11887.4
-11634.5
-12251.9
-11619.3
-14001.7
-13917.9
-1993.11
-1969.89
-1154.48
-908.894
-259.647
-1284.66
-311.988
-1248.52
-1138.36
-2042.54
-2070.49
-1219.99
-626.53
-5547.14
-5656.18
-1831.96
-644.41
136.1
-1815.76
172.972
-1907.84
-1783.03
-5903.95
-5754.28
-15407.8
-16091.1
-16847.1
-14653.1
-14113.1
-12646.6
-15925.5
-17539
-13589.3
-11722.9
-12279.9
-13033.7
-36683.3
-32749.2
-34602.9
-34815.2
-41058.3
-43234.3
-39216
-38725.8
-41125.3
-36832
-38511.9
-36387
-4389.83
-4344.59
-1327.59
-377.22
-289.605
-1142.7
-330.219
-1088.14
-1359.98
-4043.74
-4108.65
-1438.78
-1313.22
-789.402
-423.988
-416.174
-747.798
-464.542
-716.102
-794.844
-1062.14
-1078.46
-1232.03
-1457.47
-864.41
-1197.87
-1222.55
-1351.52
-1239.21
-9049.8
-8011.1
-8451.51
-8470.78
-10083.6
-10553.2
-9746.61
-9223.83
-9182.06
-9078.89
-9731.16
-8694.39
-2074.85
-2136.27
-1175.13
-734.254
-464.245
-1037.86
-458.52
-1072.42
-1158.31
-2126.03
-2080
-3053.95
-3898.02
-3070.26
-4073.07
-1865.52
-820.84
-3082.8
-4103.05
-1960.16
-1037.73
-913.855
-1990.44
-482.769
-421.759
-1838.53
-1811.72
-1032.64
-513.019
-710.054
-919.133
-690.638
-800.547
-1128.69
-1338.24
-997.522
-1334.71
-1525.04
-925.701
-1166.65
-1536.15
-1552.62
-1695
-8043.91
-6782.14
-7803.69
-7033.81
-9719.25
-11020.8
-9478.69
-10260.8
-10643.6
-9090.17
-8298.56
-7175.3
-3352.32
-3470.92
-1147
-300.968
-551.109
-763.821
-523.377
-815.969
-1115.18
-3802.56
-3717.25
-3739.57
-3261.73
-3591.51
-3430.89
-3128.94
-2887.15
-2399
-3474.44
-2574.28
-3511.3
-3026.01
-4014.45
-4252.94
-3956.4
-4047.22
-4162.7
-3804.69
-3809.59
-3482.55
-2126.12
-2480.14
-310.338
-510.154
-3378.99
-3151.77
-3012.03
-4267.95
-4220.94
-2820.31
-6515.91
-4885.38
-2852.65
-4402.24
-5731.99
-4841.87
-6348.59
-5090.47
-57.0425
139.961
-1088
-2979.36
1134.77
-3342.42
-1098.94
1107.97
-3314.06
111.622
-63.0745
-2809.96
-4102.18
-2997.16
-4145.94
-5501.02
-4772.32
-5020.16
-6035.16
-6176.24
-5053
-5614.75
-4801.62
-2996.26
-4024.02
-3989.94
-2796.83
-12730
-13163
-12341.1
-12905.8
-17175.2
-16888.8
-12452.2
-13087.3
-13371.8
-12845.5
-16587
-16861.9
-10015.3
-9597.71
-9248.15
-9756.33
-7056.35
-7580.98
-7288.03
-6745.09
-6729.54
-7360.49
-7031.2
-7685.65
-9651.67
-9255.19
-9587.95
-9897.86
-9868.11
-9272.27
-9611.61
-10152
-6714.96
-7568.41
-7030.58
-7955.54
-10303.5
-9665.25
-9309
-10002.6
-7031.53
-7808.61
-6710.19
-7454.61
-10507.1
-9545.88
-9903.96
-10882.8
-6893.73
-8155.47
-7224.1
-8672.58
-11112.2
-10041
-9663.84
-10714.6
-7151.53
-8454.21
-7981.38
-6826.24
-12743.8
-13532.9
-13163.9
-13858.9
-17210.6
-17517.3
-12993
-13600.9
-12580.2
-13298.8
-17886.2
-17569.6
-10673.6
-9806.13
-10315.3
-9437.69
-7056.63
-8101.44
-7694.54
-6740.82
-6775.07
-7825.17
-8279.49
-7092.73
-10146.9
-9366.83
-10482.9
-9719.21
25.908
-123.673
-1016.09
-2738.74
993.662
-3026.81
-993.74
1002.73
-3070.6
-89.1945
78.6361
-2849.49
-3715.05
-3741.16
-3033.22
-5168.24
-4801.82
-5042.32
-5559.25
-5653.16
-5031.55
-4774.3
-5232.04
-3071.3
-3660.48
-3642.13
-2879.21
-3012.03
-3824.03
-3800.55
-2821.82
-5894.4
-5015.44
-5394.58
-4754.44
-2809
-3888.85
-2992.31
-3923.41
-5304.1
-4761.29
-5009.83
-5772.37
-2885.29
-2649.55
-16614.4
-10459.2
-10930
-16110.7
-27195.2
-38773.9
-27180.6
-38760.5
-15392.8
-10922.7
-10423
-16007.8
-27918.9
-39210.4
-27903.5
-39271.5
-9536.45
-9153.53
-3394.71
-1626.3
1510.3
-4609.4
-3443.1
1493.65
-4536.58
-8922.42
-9319.95
-16817.3
-10961.5
-17229.8
-10515.6
-28992.9
-39465.1
-39644.7
-28885.7
-28475.4
-39566.8
-28530.3
-39450.2
-17818.5
-10594
-11007.7
-17486.6
-89211.5
-80697
-87674.5
-82201.1
-97931.1
-99790.8
-91445.6
-85386.8
-83970
-92896.6
-95611.6
-93670.2
-63494.3
-71672.5
-70465.3
-64656.7
-54287.2
-46035.8
-46861.3
-53418.6
-55439.3
-48278.4
-56229.1
-47538.3
-62138.5
-67361.6
-68650.3
-60888.9
-66980.6
-73379.1
-74503.8
-65907.5
-58863.4
-50455
-59469.7
-49895.3
-68111.5
-77130.9
-76100.8
-69092.7
-57958.5
-48823.2
-57259.4
-49478.5
-74079.8
-82976.9
-83716.9
-73398.1
-62948.9
-52070.6
-63184.9
-51877.1
-74696.3
-85460.6
-84821.6
-75282.2
-62610.9
-51731.2
-52011.3
-62281.4
-98434
-91147.2
-99695.5
-89914.2
-103804
-102023
-96394.2
-87042.6
-95035.8
-88370.1
-105940
-107635
-71863
-81743.7
-72647.4
-80908
-60752.3
-50739.5
-51205.1
-60236.7
-61378.7
-51724.8
-51352.6
-61798.7
-70984.3
-78611.8
-70101.9
-79547.1
-8447.64
-8848.84
-3144.61
-1458.37
1268.47
-4018.62
-3092.63
1288.41
-4115.25
-9088.13
-8695.04
-18919.2
-11256.2
-10969
-19129.2
-29060.8
-37292.3
-37755.7
-28676.3
-29014.4
-38550.7
-38161.5
-29329.7
-19335.5
-11111.7
-11359.7
-19128.2
-18793.8
-10822.4
-11156.7
-18562.2
-29116.5
-39500.9
-29291
-39254.9
-18075.9
-11075.3
-18350.6
-10697
-29405
-38816
-39134.1
-29162.3
-782.336
-826.606
-968.654
-1861.71
436.924
-2146.43
-962.155
462.105
-2202.11
-710.068
-648.897
-3336.95
-3364.86
-3370.37
-3488.05
-4977.25
-5265.38
-5489.35
-5125.16
-5144.92
-5436.85
-4982.71
-5201.75
-3571.83
-3350.46
-3351.19
-3409.17
-3418.08
-3387.52
-3385.91
-3252.93
-5228.25
-5296.66
-4996.91
-5053.91
-3181.2
-3404.43
-3414.86
-3337.73
-4977.63
-5131.71
-5189.89
-5366.36
-9503.77
-9291.41
-9611.58
-9695.9
-6788.95
-7215.19
-7091.28
-7488.95
-9784.04
-9599
-9262.28
-9577.01
-7140.45
-7396.81
-6832.38
-7155.86
-12097.6
-12235.5
-12458.2
-12399.6
-15265.5
-15395.3
-15605.5
-15450.5
-12440.9
-12271.6
-12140.2
-12083.6
-9612.55
-9649.43
-9444.05
-9317.41
-7250.06
-7270.62
-7086.75
-6956.85
-6900.02
-7113.2
-7187.31
-7326.06
-9391.73
-9368.95
-9684.5
-9541.94
-486.815
-403.73
-951.313
-2147.29
711.078
-2537.31
-945.055
661.213
-2491.03
-523.086
-589.149
-3156.84
-3536.8
-3522.11
-2975.64
-5471.42
-5084.47
-5110.69
-4826.46
-2929.48
-3577.6
-3599.53
-3104.22
-5062.97
-4882.88
-5123.86
-5393.96
-3039.27
-3474.88
-3491.77
-3212.31
-5009.81
-4995.6
-5268.67
-5227.19
-3277.63
-3446.59
-3101
-3438.77
-5322.51
-5177.26
-4929.18
-5035.34
-9338.93
-9797.98
-9470.81
-9270.59
-7503.57
-7069.46
-6999.7
-7218.4
-7165.43
-7009.68
-7120.9
-7447.78
-9218.93
-9496.95
-9812.94
-9263.43
-12401.7
-12038.5
-12052.9
-11966.6
-15183.9
-15082.1
-14900.6
-14970.4
-12074
-12049.9
-12421.9
-12157.8
-9313.93
-9446.5
-9403.19
-9755.97
-7028.93
-7051.57
-7219.11
-7321.8
-7385.56
-7162.35
-7037.63
-7097.4
-9468.15
-9727.17
-9353.92
-9403.88
-1719.64
-2041.16
-6402.47
-6691.86
-2265.41
-895.135
532.053
-2527.71
-2212.76
566.129
-2628.79
-6966.94
-6652.47
-16171.9
-10786.3
-10582.6
-16566.5
-20794
-24281
-25158.2
-19968.1
-21492.5
-27172.1
-22294.9
-26319.5
-15647.8
-10161.5
-10385.7
-15227.8
-17383.5
-10910.8
-11102.8
-17018.1
-24266.7
-30931.2
-24984.2
-30155.8
-17744.5
-11332.9
-11153.7
-18081.5
-23699.1
-28283
-22932.7
-29103.9
-56554.1
-60675.8
-62110.6
-55160.6
-51201.2
-45250.1
-52150
-44338.8
-58105.5
-65461.2
-64095.1
-59429.2
-49831.2
-42458.3
-48807.4
-43444
-66595.8
-63774.4
-68459.7
-61930
-67758.9
-65519.6
-63970
-57821.2
-59703.3
-62064.2
-70426.7
-72640.6
-52069.6
-58619.9
-53524.3
-57127.8
-44712.9
-38211.8
-39323.4
-43567.8
-46254.9
-41464.9
-47345.9
-40411.9
-50366.8
-53467
-55008.5
-48856.8
-7530.29
-7166.71
-2552.88
-1060.66
858.232
-3190.75
-2601.34
823.29
-3103.47
-6901.37
-7250.28
-19299.5
-11326.4
-11514.9
-19061.8
-28141.3
-36754.5
-28603.3
-36220.9
-19177.2
-11456.3
-11240.7
-19395.8
-27959.5
-34953
-35555.2
-27425.5
-18780
-11528.7
-11352
-19046.6
-26136.3
-31903
-25475.3
-32632.7
-18638.6
-11295.6
-18338.2
-11470
-26530.8
-34178.7
-33510.3
-27131.4
-38730.1
-43713.4
-42094.6
-40323.1
-33171
-28384
-29626.8
-31900.1
-34898.5
-32176.1
-30948.1
-36155.9
-36880.2
-38259.4
-39879
-35282.6
-54826.8
-49427.5
-52879
-51354.4
-60579.1
-62832.3
-57482.8
-55556.6
-59416.4
-53645.1
-57890
-55631.2
-43736.6
-45922.7
-42162.7
-47532.6
-40758.4
-37049.7
-35883.5
-41951.3
-39094
-33454.7
-34656
-37860.7
-45545.4
-51306.4
-47093.5
-49724.9
-1344.67
-1026.45
-3715.16
-3326.89
-3333.01
-3560.5
-5090.58
-5556.14
-4973.37
-5319.79
-3495.19
-3341.88
-3343.3
-3637.31
-4959.77
-5378.1
-5060.9
-5606.09
-1506.57
-1490.51
-1064.79
-1266.39
56.4886
-1653.63
-1047.14
-0.0752685
-1608.88
-1629.74
-1639.03
-3633.38
-3324.22
-3776.17
-3319.14
-4936.09
-5422.62
-5652.08
-4973.05
-5012.33
-5643.33
-4958.12
-5411.78
-3836.16
-3296.6
-3313.05
-3679.92
-11215.3
-10258
-10754.1
-10495.2
-12700.8
-12944.2
-11111.5
-10816.3
-10635.3
-11543.1
-12460.5
-12167.8
-8025.13
-9015.4
-8592.97
-8237.17
-7003.78
-6066.46
-6245.37
-6637.88
-6890.01
-6451.12
-7224.76
-6314.38
-7905
-8227.74
-8664.18
-7655.4
-8498.3
-8892.75
-9278.07
-8331.96
-7179.87
-6739.59
-7490.27
-6675.06
-8577.48
-9494.85
-9117.7
-8709.95
-7391.77
-6511.36
-7058.9
-6612.45
-9093.07
-9458.4
-9783.1
-9070.8
-7260.98
-6968.45
-7550.45
-7028.66
-9173.74
-9816.64
-9486
-9167.32
-7577.15
-6954.28
-6936.52
-7284.93
-11603.7
-11305.4
-12002.4
-11217.5
-13350.4
-13163.5
-11805.3
-10949.4
-11385.6
-11086
-13560
-13705.4
-8944.82
-9734.49
-8992.52
-9383.21
-7556.62
-6788.09
-6832.41
-7257.6
-7287.09
-6888.88
-6890.59
-7578.54
-8867.8
-9280.86
-8784.56
-9633.35
-1872.06
-1885.7
-1125.56
-1031.84
-224.327
-1327.13
-1126.36
-201.076
-1371.29
-1770.45
-1756.43
-3735.09
-3241.98
-3201.73
-3893.38
-4647.41
-5140.9
-5407.72
-4560.44
-4706.1
-5544.3
-5279.77
-4763.31
-3863.32
-3124.94
-3185.52
-3680.32
-3898.45
-3245.69
-3280.07
-3742.72
-4906.31
-5653.7
-4895.14
-5404.93
-3726.66
-3299.72
-3870.19
-3280.87
-4838.92
-5366.14
-5610.95
-4825.37
-1044.01
-765.687
-13563.9
-9100.1
-9358.57
-13111.5
-18375.8
-23088.2
-19223.9
-22195.9
-14199.8
-9909.03
-9665.69
-14639.9
-17602.9
-20086.2
-16746.3
-20982.6
-5413.19
-5342.01
-1684.73
-558.815
77.9134
-1731.98
-1725.98
34.3904
-1659.34
-5118.44
-5168.54
-11980.8
-8754.92
-12441.1
-8484.26
-14297.5
-15910.8
-16783.4
-13461.6
-15099.6
-18874.5
-15951.8
-17983.9
-11293.6
-7829.89
-8108.73
-10832.2
-20386.3
-17856.5
-18830.1
-19405.6
-23398.8
-25263.3
-22515.1
-22949.5
-21300.1
-24172.8
-21268.2
-19519.5
-13154.2
-15223.3
-13979.6
-14391.7
-10945.9
-9237.44
-10174
-10005.9
-12272.9
-12264
-13294.6
-11250.9
-11773.7
-11246.2
-12382.8
-10637.6
-17218.3
-16955.1
-18295.6
-15888.2
-17346.3
-16866.3
-18500.7
-15726.5
-18814.5
-21570.5
-20147.6
-20223.8
-15821.3
-13419.9
-14727.5
-14502.9
-30013
-30712.8
-32298
-28451.3
-28892.5
-27045.1
-30163.5
-25793.9
-31846.1
-36067.3
-34457.3
-33432.4
-27166.7
-23207.2
-24447.6
-25902.2
-30543
-30581.7
-32354.9
-28777.9
-29492.8
-27525.9
-28174.3
-24950.7
-26431
-26685
-31867.6
-33919.4
-25125.6
-28603.5
-26652.1
-27059.6
-21304.1
-18145
-19330.9
-20099.9
-22963.2
-21868.5
-20647.7
-24201
-23379.7
-23526.2
-21904.4
-25016.3
-4620.63
-4660.65
-1446.9
-440.653
-241.543
-1207.77
-1404.84
-206.531
-1282.95
-4919.24
-4880.67
-7464.79
-6072.75
-5795.22
-7890.54
-8110.5
-8418.67
-9125.86
-7420.66
-8814.75
-10886.5
-10127
-9553.54
-6831.19
-5130.95
-5405.57
-6422.83
-8997.9
-6471.39
-6753.53
-8555.15
-11851.6
-14738.7
-12666.7
-13895.1
-9683.43
-7437.79
-10138.4
-7154.24
-11077.9
-11959.2
-12763.7
-10297.1
-1509.59
-1652.4
-927.365
-493.185
-436.507
-782.501
-851.067
-474.834
-816.321
-1861.62
-1725.76
-1918.31
-1692.35
-1560.29
-2153.48
-1711.72
-2193.92
-1451.21
-1834.98
-1437.66
-1750.25
-2026.65
-1824.86
-1684.87
-1977.98
-1743.53
-2145.91
-2816
-2391.64
-2402.15
-1716.55
-1578.52
-1435.82
-1716.25
-2521.05
-1825.39
-2000.72
-2263.89
-2999.18
-3831.93
-3263.62
-3461.71
-2610.34
-2313.04
-2134.72
-2872.88
-2829.2
-2988.03
-2572.36
-3348.26
-7039.99
-7227.93
-7715.14
-6693.11
-6327.18
-5971.7
-6711.11
-5758.8
-7206.72
-8238.21
-7767.77
-7515.6
-6345.94
-5371.29
-5927.61
-5631.75
-7670.38
-7730.99
-8282.15
-7255.33
-7862.98
-7237.19
-8270.32
-8850.9
-7420.32
-6406.94
-6933.22
-6776.98
-6100.15
-7121.25
-6489.22
-6596.47
-5368.87
-4424.82
-4762.9
-4918.72
-5466.59
-5229.69
-5891.51
-4927.74
-5866.25
-5900.55
-6437.13
-5440.26
-2105.83
-2017.29
-1142.12
-646.602
-486.442
-1005.29
-1153.06
-513.81
-974.057
-1899.05
-2012.3
-3650.69
-2879.22
-2981.27
-3434.04
-4362.56
-5236.45
-4484
-4931.16
-3591.77
-3103.15
-3029.42
-3778.06
-4267.41
-4671.82
-4986.3
-4106.58
-3223.15
-2814.13
-2688.13
-3456.02
-3657.98
-3923.8
-3412.73
-4276.56
-3200.2
-2430.88
-2936.08
-2594.05
-3786.71
-4670.59
-4327.32
-3997.31
-2899.28
-3809.48
-2973.78
-3522.26
-2088.65
-1580.82
-2011.6
-1455.08
-2762.58
-3003.34
-2590.42
-3381.4
-2051.41
-1174.01
-2061.98
-1313.65
-5382.87
-4448.43
-4645.42
-5089.56
-6088.44
-6777.01
-5570.27
-4796.23
-5783.85
-6058.24
-6459.62
-5483.68
-4424.68
-4230.68
-3924.59
-4826.31
-4320.55
-4224.99
-3869.18
-4782.4
-4136.78
-3278.13
-3658.11
-3664.37
-4711.63
-5679.03
-5179.5
-5111.98
-231.66
-331.628
-1894.9
-1940.5
-1266.31
-343.906
-713.18
-1003.67
-1218.76
-714.894
-1006.09
-2251.54
-2093.58
-2244.72
-1948.24
-1987.66
-2168.07
-2021.79
-2194.06
-1622.13
-1861.72
-1753.17
-1995.29
-2172.1
-2488.33
-2883.53
-2781.41
-2579.91
-2445.44
-2543.51
-2300.41
-2710.6
-2219.92
-1893.12
-1941.8
-2240.96
-2057.94
-1949.7
-1935.76
-2134.3
-2149.16
-2423.03
-2402.17
-2292.91
-2133.27
-2261.28
-2068.26
-2355.38
-2133.55
-2456.61
-2222.37
-2336.8
-7250.43
-6613.73
-7509.34
-6345.86
-7944.53
-8252.48
-8796.15
-7398.33
-8363.53
-9803.82
-8782.72
-9385.35
-6863.83
-5746.82
-6105.74
-6514.11
-4991.34
-5688.39
-5822.1
-4827.85
-4198.88
-3627.88
-4065.86
-3334.33
-3964.58
-3531.39
-5075.91
-5987.5
-4603.91
-5518.2
-5384.95
-4757.61
-3698.02
-3015.37
-3609.89
-3121.66
-4496.78
-4963.53
-5161.65
-4285.55
-3802.93
-3279.13
-3868.15
-3150.99
-3096.53
-2950.25
-1060.4
-285.247
-586.107
-722.726
-1083.58
-616.949
-694.861
-2508.45
-2686.33
-4876.05
-3835.6
-4112.9
-4496.57
-6121.48
-7494.07
-6763.75
-6843.81
-5433.24
-4752.04
-4477.98
-5825.07
-5516.21
-5411.56
-6006.01
-4926.07
-3611.68
-3480.05
-3200.04
-3980.54
-3328.95
-2983.59
-2841.95
-3470.67
-3135.64
-2579.37
-2779.75
-2855.6
-3831.47
-4664.4
-4124.02
-4372.05
-3295.74
-3207.16
-3499.16
-3006.81
-2871.96
-2910.85
-2620.14
-3381.4
-3022.42
-2397.28
-3274.64
-3286.31
-3182.8
-3012.03
-3439.18
-3148.28
-2664.58
-2889.78
-2909.95
-3471
-3874.73
-3688.25
-3683.8
-3137.13
-3094.98
-3281.46
-2945.16
-3212.15
-3300.36
-3140.41
-2971.95
-3184.84
-2920.61
-3201.77
-3319.55
-2702.63
-3058.75
-2854.64
-2903.55
-2574.73
-2442.7
-2349.38
-2564.97
-2634.71
-2542.16
-2408.19
-2781.9
-2651.16
-2883.17
-2673.7
-2868.89
-1717.38
-2058.22
-1796.9
-1328.05
-1854.53
-2174.89
-1920.07
-1605.4
-1955.18
-1457.52
-1827.8
-1901.72
-2467.95
-2077.3
-1744.15
-1970.67
-1997.88
-1879.45
-926.47
-1554.12
-2135.99
-6768.33
-990.427
-6590.78
-535.735
-2099.02
-2072.46
-6459.18
-932.691
-1058.24
-1832.4
-972.982
-5361.67
-1821.73
-1027.05
-5316.19
-999.411
-5524.87
-1865.62
-1644.1
-1873.56
-1041.07
-5579.51
-4497.62
-2558.21
-2838.51
-4436.42
-346.827
-1232.76
-4372.84
-1175.79
-3730.96
-356.078
-416.421
-2452.43
-4419.82
-3796.43
-455.97
-3069.63
-858.743
-493.657
-3801.9
-1815.01
-3924.98
-1915.44
-475.504
-2438.68
-433.652
-3907.21
-907.049
-1390.45
-1563.81
-1554.35
-3555.87
-1558.5
-1389.22
-3549.76
-1333.47
-3762.31
-1584.36
-1878.95
-1584.81
-1345.36
-3754.93
-1054.38
-1783.09
-5099.38
-1697.1
-1090.14
-1788.95
-5131.53
-1121.31
-4901.13
-1751.74
-1115.18
-1743.23
-1097.19
-4877.02
-2696.51
-686.38
-2308.06
-772.849
-699.14
-2666.7
-1255.94
-2816.89
-1287.67
-666.723
-1908.19
-649.063
-2839.58
-743.875
-3676.64
-513.532
-1719.01
-2294.36
-3671.81
-477.297
-820.171
-3546.65
-783.862
-502.717
-2851.13
-534.453
-3539.96
-1626.62
-1441.25
-1542.21
-3351.98
-1950.62
-1450.48
-1544.99
-3365.26
-1503.76
-3206.31
-1680.2
-1533.15
-1526.84
-3169.86
-1505.44
-1780.61
-1480.16
-1943.22
-2574.17
-1482.92
-1778.67
-2535.88
-1752.6
-2625.46
-1496.53
-2071
-1494.57
-1758.98
-2668.47
-2520.21
-736.924
-1243.43
-1826.43
-2548.15
-726.547
-823.772
-2405.91
-895.511
-2209.11
-773.44
-779.002
-1250.6
-2371.57
-1626.25
-1082.67
-2093.21
-1663.81
-1079.04
-1595.1
-1736.43
-1707.62
-1628.48
-1033.76
-1831.52
-1040.28
-1737.63
-1540.11
-1104.28
-1304.47
-972.509
-1054.91
-864.584
-1201.22
-1190.04
-1780.87
-1468.15
-2447.06
-2028.82
-1802.13
-1457.17
-2459.05
-1793.58
-2326.45
-1418.63
-1903.89
-1436.68
-1768.13
-2332.39
-1411.73
-1364.29
-890.688
-1060.78
-806.795
-1437.94
-1400.5
-1496.25
-1117.07
-1821.87
-1817.23
-1520.79
-1119.79
-1747.25
-1439.88
-1770.57
-1139.08
-2005.62
-1144.5
-1466.7
-1863.25
-992.255
-2009.96
-6212.31
-677.135
-6110.49
-943.366
-1990.77
-934.113
-6287.42
-2034.74
-1573.02
-994.089
-6403.96
-2052.92
-953.431
-1949.54
-5922.57
-1605.96
-1005.1
-6007.84
-1963.08
-1018.08
-5795.73
-1920.08
-821.16
-977.511
-5726.48
-1905.41
-4216.22
-383.644
-3513.66
-1059.6
-436.072
-2233.63
-4247.68
-4341.84
-2344.82
-424.731
-2713.91
-4295.19
-368.699
-1119.83
-4149.41
-447.255
-2578.14
-2125.76
-396.979
-4119.31
-1007.03
-4020.15
-955.074
-413.554
-3294.01
-4036.47
-459.003
-2019.83
-1224.78
-1639.09
-4207.03
-1814.85
-4201.21
-1244.13
-1640.82
-1289.31
-3973.73
-1613.1
-1410.53
-1281.2
-3979.85
-1607.6
-1193.88
-1675.32
-4435.02
-1266.73
-1179.04
-4429.74
-1670.16
-1134.44
-4653.26
-1708.31
-1748.7
-1160.32
-4666.61
-1710.93
-3115.18
-608.661
-2021.04
-1390.34
-584.472
-726.358
-3131.8
-2988.54
-728.825
-615.194
-2461.32
-2963.32
-634.418
-1333.84
-3277.14
-556.38
-2643.23
-735.308
-581.573
-3260
-1461.02
-3405.08
-1542.05
-558.014
-2154.36
-3410.62
-528.125
-756.626
-1608.64
-1512.82
-2957.23
-1801.42
-2890.03
-1614.55
-1507.28
-1557.75
-3017.39
-1518.13
-2007.54
-1561.97
-3067.16
-1520.44
-1662.44
-1503.74
-2790.74
-2058.71
-1666.11
-2851.6
-1507.3
-1712.1
-2759.32
-1502.96
-1892.54
-1715.86
-2701.03
-1499.35
-2124.88
-875.524
-2154.93
-1107.67
-874.692
-1335.13
-2089.2
-2229.9
-1281.71
-825.672
-1796.45
-2261.05
-823.116
-990.69
-1955.74
-927.122
-1808.02
-1415.15
-932.459
-1987.94
-1245.91
-1860.84
-1396.57
-987.982
-2132.69
-1825.41
-982.252
-1516.24
-1462.08
-1219.52
-1805.3
-1537.18
-1701.87
-1555.86
-1165.45
-1381.71
-1435.42
-1044.95
-1415.57
-1284.19
-1550.63
-1107.27
-1673.95
-1269.61
-1947.04
-1741.23
-1612.02
-2016.35
-1315.3
-1710.68
-2196.34
-1391.21
-1859.79
-1760.58
-2156.68
-1358.27
-1511.79
-1080.66
-1403.71
-1507.9
-1039.72
-1299.15
-1529.47
-1472.78
-1212.42
-949.754
-1424.92
-1461.51
-1005.96
-1199.72
-1539.7
-1101.27
-1799.23
-1558.45
-1132.45
-1551.89
-1721.55
-1530.3
-1835.13
-1151.58
-1700.13
-1487.19
-1137.22
-1711.7
)
;

boundaryField
{
    left
    {
        type            calculated;
        value           nonuniform List<scalar> 0();
    }
    bottom
    {
        type            calculated;
        value           nonuniform List<scalar> 0();
    }
    interface
    {
        type            calculated;
        value           nonuniform List<scalar> 
2120
(
-1011.08
-1600.86
-569.095
-470.284
-1639.42
340.803
240.859
335.905
-974.453
-494.873
236.432
145.766
-718.756
-572.629
139.014
-741.465
-1287.2
-1329.44
-298.401
-326.673
-1911.05
-1882.42
392.936
387.517
284.914
290.082
-722.298
-691.382
193.296
189.326
-2438.65
-2470.49
-47.5925
-24.4652
-2625.87
-2760.23
-1133.79
-1491.62
-182.739
-410.119
-2032.6
-1750.22
411.932
358.3
253.932
308.388
-866.95
-575.531
210.36
161.231
-1511.2
-2223.25
-336.182
78.7579
-1482.37
-2911.61
-1176.2
-1454.48
-217.001
-392.26
-2007.44
-1788.03
407.296
361.399
258.511
303.581
-832.588
-606.098
206.328
164.979
-1906.81
-2325.33
-229.492
54.6293
-1901.96
-2919.98
-1058.54
-1572.17
-435.155
-456.843
-2088.65
-1683.4
-2628.72
-129.68
-2103.44
-2057.78
420.936
337.41
-2235.35
-1655.12
-2222.65
-1601.08
-1644.43
-239.269
-241.941
-1610.4
-2005.17
-2021.45
237.614
317.324
-1065.46
-1030.41
-1516.68
-2099.12
-1566.61
-2043.25
-944.576
-526.309
-1587.54
-246.704
-1591.84
-270.079
-1392.82
-1364.95
218.015
144.779
-983.429
-1009.65
-830.132
-625.009
-658.732
-817.888
-847.011
-688.465
-818.787
-951.775
-931.654
-1348.47
-497.669
-523.617
-1352.23
-506.141
115.886
-925.726
-694.612
-679.209
-778.901