/*--------------------------------*- C++ -*----------------------------------*\
| =========                 |                                                 |
| \\      /  F ield         | OpenFOAM: The Open Source CFD Toolbox           |
|  \\    /   O peration     | Version:  2012                                  |
|   \\  /    A nd           | Website:  www.openfoam.com                      |
|    \\/     M anipulation  |                                                 |
\*---------------------------------------------------------------------------*/
FoamFile
{
    version     2.0;
    format      ascii;
    class       volVectorField;
    location    "0.106/solid";
    object      sigmaMinDir;
}
// * * * * * * * * * * * * * * * * * * * * * * * * * * * * * * * * * * * * * //

dimensions      [1 -1 -2 0 0 0 0];


internalField   nonuniform List<vector> 
3125
(
(0.835179 -0.546836 -0.0587085)
(0.838542 -0.542196 -0.0535839)
(-0.163046 -0.138385 0.976865)
(0.798514 -0.594378 -0.0953384)
(0.838463 -0.542339 -0.0533799)
(0.774026 0.202038 -0.600054)
(0.776667 0.186067 -0.601803)
(0.14621 0.98828 0.0438674)
(-0.437822 0.898171 0.0400068)
(-0.244845 -0.0772918 0.966477)
(-0.191439 -0.0566893 0.979866)
(0.966382 0.256211 0.0215004)
(0.132587 0.990266 0.0423633)
(0.772603 0.203029 -0.601551)
(0.145234 0.98843 0.0437363)
(0.75531 0.198956 -0.624438)
(-0.435378 0.899379 0.0395484)
(-0.43779 0.898187 0.0399941)
(0.966532 0.256433 0.00764108)
(-0.254267 -0.0811287 0.963725)
(0.96676 0.254837 0.0208029)
(-0.34276 -0.114562 0.932411)
(0.834766 -0.547383 -0.0594733)
(0.804016 -0.587776 -0.0898746)
(0.129003 0.990731 0.0425477)
(0.718095 0.168425 -0.675257)
(0.751775 0.196656 -0.629412)
(0.0444006 0.997284 0.0587655)
(-0.434252 0.899914 0.0397411)
(-0.39164 0.918621 0.0524769)
(0.966591 0.256245 0.00629005)
(-0.527938 -0.150412 0.835858)
(-0.359813 -0.120108 0.925262)
(0.934428 0.355581 -0.0201672)
(-0.0848147 -0.162853 0.982998)
(0.711774 0.162161 -0.683434)
(0.0320282 0.997551 0.0621784)
(-0.210738 -0.0177252 0.977382)
(-0.384023 0.921644 0.0556644)
(-0.107459 -0.11345 0.987715)
(-0.560414 -0.149515 0.814605)
(0.925077 0.379113 -0.0224949)
(0.838029 -0.542806 -0.0554005)
(0.83838 -0.542303 -0.0550101)
(0.714174 -0.67209 -0.195576)
(0.736776 -0.654155 -0.171005)
(0.836886 -0.544848 -0.0525539)
(0.83734 -0.544141 -0.0526509)
(0.863518 -0.466326 -0.192035)
(0.144909 0.98841 0.0452395)
(0.952093 -0.212713 -0.219709)
(0.776757 0.196847 -0.598247)
(0.932305 0.180731 -0.313279)
(0.939258 0.17399 -0.295842)
(0.948048 0.154488 -0.278097)
(0.777143 0.194468 -0.598524)
(0.941608 0.169561 -0.290902)
(0.144207 0.988519 0.04511)
(0.969944 -0.00313081 -0.243307)
(0.963429 -0.143546 -0.226272)
(-0.435388 0.899333 0.0404718)
(-0.435485 0.899286 0.0404659)
(0.988016 0.0418973 -0.148555)
(0.965216 0.260195 0.0256411)
(0.976412 0.0471599 -0.210702)
(-0.219674 -0.0671812 0.973257)
(0.710611 0.128445 -0.691762)
(0.768601 0.114158 -0.62946)
(0.865132 0.095988 -0.492273)
(-0.212139 -0.0642443 0.975126)
(0.79186 0.109271 -0.600847)
(0.965615 0.258758 0.0251262)
(0.946429 0.0715535 -0.314884)
(0.970702 0.0514647 -0.234711)
(0.141666 0.989001 0.0425214)
(0.946211 0.103142 -0.306671)
(0.95681 0.085466 -0.277867)
(0.929924 0.181128 -0.320053)
(0.766759 0.203814 -0.608721)
(0.921709 0.180068 -0.343551)
(0.143109 0.988789 0.0426114)
(0.968164 0.0235995 -0.249202)
(0.960026 0.0746009 -0.269786)
(0.907369 0.17188 -0.383586)
(0.764294 0.203224 -0.612009)
(0.918643 0.178267 -0.352585)
(-0.437937 0.898138 0.0394997)
(-0.438541 0.897844 0.0394721)
(0.967399 0.252829 0.014708)
(0.841145 0.142706 -0.521642)
(0.883136 0.117489 -0.454167)
(-0.695916 -0.133059 0.705689)
(-0.286653 -0.0941004 0.953402)
(-0.665674 -0.146738 0.731674)
(0.967183 0.253597 0.0156543)
(0.935803 0.0799201 -0.343346)
(0.897318 0.108013 -0.427965)
(-0.653194 -0.163372 0.739356)
(-0.299085 -0.0989179 0.949086)
(-0.65985 -0.151129 0.736042)
(0.826533 -0.558871 -0.0671314)
(0.825197 -0.560622 -0.0689415)
(0.942176 0.105774 -0.317988)
(0.10636 0.993303 0.0451278)
(0.927242 0.110702 -0.357725)
(0.734586 0.183408 -0.653257)
(0.855316 0.145655 -0.497211)
(0.879535 0.156056 -0.449517)
(0.902887 0.168845 -0.395331)
(0.739362 0.187367 -0.646713)
(0.886289 0.159215 -0.434904)
(0.0996856 0.993953 0.0460498)
(0.898332 0.110325 -0.425238)
(0.921203 0.110465 -0.373072)
(-0.424685 0.904383 0.0416494)
(-0.421924 0.905639 0.0423935)
(0.828371 0.149783 -0.539784)
(0.961903 0.27336 -0.00402946)
(0.796771 0.166523 -0.580884)
(-0.444156 -0.141638 0.884683)
(0.696289 0.181638 -0.694399)
(-0.671304 -0.178384 0.719396)
(-0.654155 -0.16704 0.737685)
(-0.420387 -0.136667 0.896993)
(-0.665206 -0.176196 0.725573)
(0.961009 0.276452 -0.00603551)
(0.774103 0.178489 -0.607376)
(0.788883 0.170525 -0.590411)
(-0.0435874 0.993152 0.108392)
(0.91786 -0.385034 -0.0963407)
(0.83762 0.134732 -0.529377)
(0.845688 0.142562 -0.514285)
(-0.690549 -0.135027 0.71057)
(0.810026 0.140556 -0.5693)
(-0.042448 0.993868 0.102103)
(0.888875 0.110675 -0.444582)
(0.852627 0.124567 -0.507454)
(0.903776 -0.413155 -0.11177)
(-0.683586 -0.117867 0.72029)
(0.796117 0.139515 -0.58884)
(-0.205146 0.964199 0.168033)
(-0.256176 0.958189 0.127463)
(0.315002 0.943484 0.103013)
(0.941777 -0.334444 -0.0346807)
(0.81035 0.19602 -0.552186)
(0.707003 0.18175 -0.683457)
(-0.678815 -0.116783 0.724963)
(0.755477 0.179784 -0.630025)
(0.409153 0.910212 0.064085)
(0.772414 0.180689 -0.608874)
(0.786326 0.193198 -0.586827)
(0.933331 -0.356208 -0.0448193)
(0.733782 0.0813962 -0.674492)
(0.789929 0.171382 -0.588762)
(0.836889 -0.544395 -0.0570234)
(0.838573 -0.542099 -0.0540674)
(-0.599965 0.700178 0.387031)
(0.778936 -0.616219 -0.11633)
(0.835709 -0.546679 -0.052274)
(0.838084 -0.542957 -0.0530414)
(0.143096 0.988644 0.0458914)
(0.991613 -0.072655 -0.106892)
(0.775202 0.200627 -0.599008)
(0.845725 0.196617 -0.496076)
(0.848524 0.195399 -0.491758)
(0.861481 0.18176 -0.474146)
(0.777104 0.189004 -0.600322)
(0.85978 0.184495 -0.476172)
(0.145584 0.988349 0.0443928)
(0.992284 -0.0011689 -0.12398)
(0.985276 0.125441 -0.116168)
(-0.433782 0.900101 0.0406336)
(-0.436744 0.898685 0.0402411)
(0.964597 0.262319 0.0272255)
(0.215085 0.976415 0.0187712)
(-0.235978 -0.0736971 0.96896)
(-0.309903 -0.0865693 0.946819)
(-0.30087 -0.0825835 0.950083)
(-0.255859 -0.0632203 0.964645)
(-0.19805 -0.0589959 0.978415)
(-0.262486 -0.0658925 0.962683)
(0.966206 0.256731 0.0231352)
(0.252724 0.967528 -0.00445919)
(0.437272 0.899312 0.00558302)
(0.137158 0.989647 0.0422701)
(0.982528 0.0781626 -0.168905)
(0.976379 0.148352 -0.157084)
(0.842745 0.197338 -0.500838)
(0.770913 0.20369 -0.603493)
(0.839544 0.197761 -0.506021)
(0.145291 0.988445 0.0432006)
(0.983419 0.132492 -0.123829)
(0.991039 0.0198989 -0.132085)
(0.815259 0.191903 -0.546376)
(0.758574 0.200795 -0.619876)
(0.819985 0.193806 -0.538575)
(-0.436906 0.898641 0.0394549)
(-0.438718 0.897746 0.0397223)
(0.967289 0.253444 0.0108685)
(0.496132 0.863362 -0.0919734)
(0.634149 0.76975 -0.0730832)
(-0.319491 -0.0907778 0.943231)
(-0.264324 -0.085204 0.960663)
(-0.329751 -0.0952095 0.939255)
(0.966979 0.254162 0.0187997)
(0.459236 0.888294 -0.00599709)
(0.280965 0.959566 -0.0170597)
(-0.408792 -0.125647 0.903937)
(-0.327037 -0.109166 0.938685)
(-0.393166 -0.120259 0.911569)
(0.831984 -0.551325 -0.0619973)
(0.814904 -0.574239 -0.07862)
(0.972861 0.153234 -0.17338)
(0.121956 0.991598 0.0431332)
(0.977649 0.0948577 -0.187627)
(0.724003 0.173885 -0.667521)
(0.765233 0.164181 -0.622465)
(0.772866 0.168643 -0.61175)
(0.810245 0.189506 -0.554609)
(0.747941 0.193999 -0.634782)
(0.804895 0.186871 -0.563226)
(0.072699 0.996025 0.0514623)
(0.949333 0.142726 -0.279994)
(0.95316 0.16786 -0.251614)
(-0.431848 0.901053 0.0401409)
(-0.408424 0.911603 0.0465769)
(0.733888 0.669931 -0.112252)
(0.965283 0.261197 0.00231735)
(0.635793 0.759093 -0.139802)
(-0.497826 -0.14895 0.854391)
(-0.579965 -0.158802 0.799013)
(-0.553747 -0.157442 0.817665)
(-0.425546 -0.131078 0.895393)
(-0.378336 -0.125713 0.917092)
(-0.443553 -0.13646 0.885799)
(0.952148 0.305311 -0.0141374)
(0.865755 0.391618 -0.311615)
(0.902783 0.342822 -0.259723)
(0.0484214 0.998538 0.0240423)
(0.936766 -0.349792 -0.01068)
(0.819516 0.401986 -0.408413)
(0.757113 0.159208 -0.633587)
(0.704986 0.155069 -0.692061)
(0.748412 0.153946 -0.64512)
(-0.00440373 0.997128 0.075602)
(0.939343 0.17876 -0.29271)
(0.929077 0.172359 -0.327274)
(0.822724 -0.545423 -0.160122)
(0.715704 -0.00221644 -0.698401)
(0.0881051 0.209126 0.973912)
(-0.35219 0.933327 0.0697319)
(0.0592638 0.0276027 0.997861)
(0.934906 -0.352179 0.043829)
(0.880121 0.318962 -0.351639)
(-0.607675 -0.158386 0.778232)
(-0.595627 -0.145141 0.79004)
(-0.637252 -0.155584 0.754787)
(0.845762 0.533186 -0.0200041)
(0.900653 0.295123 -0.318945)
(0.856406 0.354515 -0.375349)
(0.887328 -0.45593 -0.0691113)
(0.945602 -0.129968 -0.298236)
(0.837524 -0.543477 -0.0564523)
(0.838733 -0.541827 -0.0543146)
(-0.650067 0.697016 0.302626)
(0.771698 -0.623229 -0.126761)
(0.836198 -0.545922 -0.052374)
(0.838061 -0.543009 -0.052863)
(-0.367354 0.926713 0.079084)
(0.901944 -0.381426 -0.202515)
(-0.398688 0.91325 0.0837958)
(0.142407 0.988748 0.0457972)
(0.992548 -0.0488031 -0.111658)
(0.988399 0.110649 -0.10404)
(0.931268 -0.296507 -0.211718)
(-0.53337 0.839398 0.104533)
(-0.450061 0.888282 0.0916586)
(0.776114 0.198878 -0.59841)
(0.853544 0.191997 -0.484356)
(0.851137 0.193812 -0.487856)
(0.897163 0.191643 -0.39796)
(0.934702 0.17907 -0.307029)
(0.900085 0.190373 -0.391926)
(0.905527 0.186411 -0.381146)
(0.937055 0.176598 -0.301233)
(0.902874 0.1886 -0.386328)
(0.915002 0.173672 -0.364155)
(0.946011 0.159713 -0.282054)
(0.91283 0.177184 -0.367896)
(0.777263 0.191827 -0.59922)
(0.855803 0.189716 -0.481258)
(0.857883 0.187181 -0.478539)
(0.943868 0.164723 -0.286322)
(0.908083 0.183669 -0.376367)
(0.910519 0.180547 -0.371964)
(0.146158 0.988259 0.044529)
(0.98694 0.117998 -0.109665)
(0.992822 -0.0235454 -0.117262)
(0.977087 -0.121614 -0.174674)
(0.97054 -0.0393626 -0.237703)
(0.950756 -0.259973 -0.16875)
(-0.675316 0.726602 0.126484)
(0.968892 -0.0858147 -0.23213)
(0.852596 -0.499513 -0.153513)
(-0.43392 0.900034 0.0406556)
(-0.436983 0.89857 0.0402271)
(0.997976 0.0517345 -0.0369674)
(0.984954 0.0422168 -0.167583)
(0.997832 0.047906 -0.0451329)
(0.965009 0.260845 0.0268055)
(0.221557 0.975063 0.0128021)
(0.417181 0.908571 0.0214159)
(0.98113 0.0438675 -0.188306)
(0.997017 0.0432338 -0.0639396)
(0.997526 0.044872 -0.054109)
(-0.2276 -0.0703295 0.971212)
(-0.284304 -0.0752634 0.955776)
(-0.292352 -0.0788145 0.953057)
(-0.436712 -0.108681 0.893012)
(0.727695 0.12373 -0.674649)
(-0.432325 -0.104632 0.895627)
(-0.426237 -0.0971477 0.89938)
(0.747095 0.118937 -0.65399)
(-0.428824 -0.100779 0.897749)
(-0.425866 -0.0850387 0.900781)
(0.840992 0.0999894 -0.531728)
(-0.424346 -0.0876325 0.90125)
(-0.20494 -0.061514 0.97684)
(-0.276694 -0.0719245 0.958263)
(-0.269421 -0.0687938 0.960562)
(0.816261 0.104461 -0.56816)
(-0.424621 -0.0937278 0.900506)
(-0.423963 -0.0905354 0.901143)
(0.965893 0.257854 0.0237081)
(0.423374 0.905838 0.014546)
(0.235657 0.971823 0.00504034)
(0.992466 0.0463868 -0.113402)
(0.955784 0.0638616 -0.287053)
(0.994077 0.0440917 -0.0993356)
(0.996307 0.0423436 -0.0746918)
(0.963856 0.0570586 -0.260241)
(0.995342 0.0426232 -0.0864684)
(0.139219 0.989359 0.042262)
(0.97924 0.142791 -0.143873)
(0.986184 0.0611198 -0.153969)
(0.973243 0.0582213 -0.222279)
(0.950023 0.0983932 -0.296268)
(0.975294 0.0551809 -0.213907)
(0.978902 0.0440295 -0.199529)
(0.953573 0.0922424 -0.286687)
(0.977183 0.0503625 -0.206343)
(0.894109 0.192289 -0.404467)
(0.927361 0.181268 -0.327328)
(0.890856 0.192594 -0.411441)
(0.768971 0.203927 -0.605886)
(0.832461 0.197441 -0.517711)
(0.836134 0.197726 -0.511648)
(0.924696 0.180554 -0.335169)
(0.883715 0.191851 -0.426896)
(0.887409 0.192383 -0.41892)
(0.14371 0.988681 0.0431044)
(0.989024 0.0411389 -0.141912)
(0.981491 0.137826 -0.132967)
(0.98252 -0.0515999 -0.178865)
(0.965762 0.0449224 -0.255511)
(0.98303 -0.00996053 -0.183172)
(0.980572 0.0325451 -0.193439)
(0.96303 0.0611736 -0.262358)
(0.982049 0.0150692 -0.188025)
(0.866178 0.185228 -0.46414)
(0.911496 0.174246 -0.372576)
(0.871048 0.187428 -0.454033)
(0.761566 0.202217 -0.615732)
(0.828573 0.196583 -0.524235)
(0.82442 0.19536 -0.531193)
(0.915248 0.176349 -0.362246)
(0.879793 0.190753 -0.435405)
(0.875578 0.189279 -0.44445)
(-0.437826 0.898198 0.039356)
(-0.43847 0.897868 0.039723)
(0.967175 0.253829 0.0119473)
(0.551034 0.833366 -0.0431577)
(0.39495 0.916863 -0.0581145)
(0.954594 0.109286 -0.277139)
(0.854721 0.134924 -0.501246)
(0.962836 0.0979412 -0.251704)
(0.975752 0.0772169 -0.204808)
(0.868824 0.12644 -0.478705)
(0.969875 0.0870375 -0.227525)
(-0.44197 -0.112903 0.889897)
(-0.683601 -0.137658 0.716757)
(-0.448151 -0.117315 0.886227)
(-0.275091 -0.0895271 0.957241)
(-0.352485 -0.104718 0.92994)
(-0.340721 -0.0998583 0.934846)
(-0.673554 -0.1422 0.72533)
(-0.463241 -0.126611 0.877142)
(-0.455239 -0.121886 0.881987)
(0.967318 0.252927 0.017998)
(0.324457 0.945287 -0.0340652)
(0.49588 0.86812 -0.021699)
(0.990434 0.0496188 -0.128757)
(0.923937 0.089 -0.372049)
(0.987854 0.0544542 -0.145532)
(0.980644 0.0681912 -0.183539)
(0.911033 0.0983858 -0.400423)
(0.984644 0.0604727 -0.163764)
(-0.504607 -0.145845 0.850941)
(-0.653754 -0.159465 0.739714)
(-0.492841 -0.141066 0.858608)
(-0.31251 -0.103943 0.94421)
(-0.365063 -0.10976 0.92449)
(-0.378612 -0.114948 0.91839)
(-0.655942 -0.155354 0.738651)
(-0.47214 -0.131398 0.871676)
(-0.482025 -0.13622 0.865503)
(0.831229 -0.552333 -0.0631431)
(0.818743 -0.569183 -0.075444)
(0.971006 0.0590687 -0.231643)
(0.937704 0.108005 -0.33022)
(0.968424 0.0600755 -0.241961)
(0.117216 0.99215 0.0435716)
(0.971046 0.111447 -0.211305)
(0.968305 0.157752 -0.19365)
(0.932802 0.10913 -0.34347)
(0.961996 0.0610234 -0.266156)
(0.965474 0.0601564 -0.25346)
(0.729488 0.17885 -0.660197)
(0.786785 0.176966 -0.591315)
(0.780044 0.17286 -0.601373)
(0.811544 0.157313 -0.562716)
(0.864158 0.148735 -0.480738)
(0.820156 0.161378 -0.54891)
(0.835686 0.169378 -0.522436)
(0.87224 0.152087 -0.464831)
(0.828192 0.165393 -0.535484)
(0.860952 0.182557 -0.4748)
(0.897889 0.165849 -0.407786)
(0.855304 0.17969 -0.485969)
(0.743814 0.190873 -0.640553)
(0.793187 0.180535 -0.581602)
(0.799221 0.18382 -0.572238)
(0.892388 0.162513 -0.420991)
(0.842701 0.173045 -0.509815)
(0.849228 0.176481 -0.49766)
(0.0812864 0.995451 0.0496888)
(0.961937 0.163207 -0.219183)
(0.961931 0.127739 -0.241603)
(0.941347 0.0602432 -0.332019)
(0.906828 0.110082 -0.406872)
(0.947805 0.0597039 -0.313211)
(0.957989 0.0606013 -0.28033)
(0.914426 0.110204 -0.389462)
(0.953311 0.0600602 -0.295956)
(-0.430102 0.901871 0.0405179)
(-0.413554 0.909366 0.045022)
(0.945101 0.120804 -0.303628)
(0.816605 0.156155 -0.555673)
(0.934287 0.13266 -0.330922)
(0.965021 0.262171 0.000714781)
(0.763707 0.615236 -0.195543)
(0.825203 0.542175 -0.15839)
(0.806035 0.16172 -0.569345)
(0.90921 0.154904 -0.386448)
(0.922315 0.143932 -0.358636)
(-0.469931 -0.145843 0.870572)
(-0.505527 -0.151061 0.849484)
(-0.528934 -0.154739 0.834437)
(-0.633388 -0.17093 0.75472)
(-0.686872 -0.18107 0.703861)
(-0.613986 -0.1703 0.770727)
(-0.577974 -0.166197 0.798952)
(-0.678557 -0.179988 0.712154)
(-0.595523 -0.168653 0.785435)
(-0.51732 -0.150508 0.842453)
(-0.65656 -0.17045 0.734762)
(-0.531036 -0.154991 0.833054)
(-0.398484 -0.13128 0.907731)
(-0.483529 -0.146615 0.862962)
(-0.462858 -0.141679 0.875037)
(-0.660268 -0.173511 0.730712)
(-0.561392 -0.162968 0.811345)
(-0.545736 -0.159173 0.822701)
(0.954753 0.297167 -0.0117778)
(0.880407 0.426548 -0.20722)
(0.838997 0.482064 -0.252385)
(0.851667 0.186994 -0.489588)
(0.777506 0.176311 -0.603655)
(0.866314 0.180391 -0.465788)
(0.895374 0.164582 -0.413784)
(0.78246 0.173701 -0.597984)
(0.88099 0.173068 -0.440345)
(0.0127948 0.996426 0.0834904)
(0.869828 0.300709 -0.391118)
(0.82472 0.388847 -0.410653)
(0.940323 -0.338543 -0.0343581)
(0.838824 0.0488358 -0.542207)
(0.889669 0.0507264 -0.45378)
(0.887345 0.114915 -0.446557)
(0.825319 0.132412 -0.548922)
(0.874061 0.131715 -0.46762)
(0.802307 0.153111 -0.576941)
(0.83502 0.140646 -0.53194)
(0.792291 0.149209 -0.591618)
(-0.697842 -0.146287 0.701154)
(0.729296 0.140415 -0.669635)
(0.739127 0.147784 -0.657154)
(0.823216 0.139616 -0.550293)
(0.769612 0.141175 -0.62271)
(0.781387 0.145337 -0.606886)
(-0.0196572 0.996442 0.0819553)
(0.891421 0.248635 -0.378879)
(0.915684 0.211103 -0.341993)
(0.933738 0.061571 -0.352623)
(0.87824 0.112775 -0.464733)
(0.924805 0.0662433 -0.37463)
(0.901809 0.0913653 -0.422365)
(0.866241 0.116919 -0.485754)
(0.914251 0.0751849 -0.39811)
(0.846525 -0.511519 -0.147458)
(0.796303 0.0360109 -0.603825)
(0.756095 0.0178187 -0.65422)
(-0.678822 -0.0838285 0.729502)
(0.719453 0.12879 -0.682496)
(0.71166 0.104248 -0.694746)
(0.784789 0.127148 -0.606581)
(0.757481 0.134189 -0.638917)
(0.747817 0.115059 -0.653858)
(0.0762783 0.598939 0.797154)
(-0.335623 0.938743 0.0782228)
(0.147968 0.681495 0.716708)
(0.828006 0.351997 -0.436469)
(0.749101 0.502749 -0.431383)
(0.950385 -0.310815 0.0126977)
(0.985507 -0.00843139 -0.169424)
(0.996325 0.0314119 -0.079682)
(0.815536 0.246528 -0.52357)
(0.872535 0.167678 -0.458876)
(0.868879 0.238682 -0.433682)
(-0.653908 -0.170305 0.737157)
(0.719427 0.181643 -0.670396)
(-0.675961 -0.168297 0.717463)
(-0.634417 -0.135262 0.761065)
(0.707313 0.136691 -0.693559)
(-0.669651 -0.14906 0.727564)
(0.734651 0.181185 -0.653804)
(0.730614 0.156268 -0.664668)
(0.700618 0.164074 -0.694417)
(0.782588 0.622419 -0.0122751)
(0.810945 0.392842 -0.433641)
(0.876689 0.290277 -0.383609)
(0.837527 0.193327 -0.511051)
(0.772854 0.18356 -0.607456)
(0.82434 0.201236 -0.529119)
(0.807695 0.227011 -0.544147)
(0.776575 0.187568 -0.601456)
(0.813585 0.211469 -0.541627)
(0.900394 -0.430584 -0.0623551)
(0.973868 -0.0443619 -0.22274)
(0.960331 -0.0905387 -0.263758)
(0.812239 0.00472089 -0.583305)
(0.756408 0.111536 -0.64452)
(0.831957 0.0503451 -0.552552)
(0.85882 0.129263 -0.495701)
(0.773271 0.137955 -0.618887)
(0.846442 0.0840311 -0.525808)
(0.836359 -0.545104 -0.0580092)
(0.838817 -0.541755 -0.0537312)
(0.00842017 -0.1443 0.989498)
(0.794858 -0.598291 -0.101233)
(0.8352 -0.547468 -0.0521529)
(0.838616 -0.542116 -0.0532234)
(0.946167 -0.309108 -0.0960237)
(0.142112 0.988773 0.046171)
(0.889306 -0.450509 -0.07859)
(0.0435119 0.998131 0.0429109)
(0.94713 -0.304477 -0.101189)
(0.145502 0.988376 0.0440667)
(0.927662 -0.364538 -0.0809684)
(0.0454309 0.99822 0.0386429)
(0.927265 -0.365631 -0.0805807)
(0.0407388 0.998395 0.0393366)
(0.946582 -0.305953 -0.101857)
(-0.432916 0.900515 0.0406898)
(-0.437552 0.8983 0.0400712)
(0.450143 0.887544 0.0981684)
(0.964065 0.264197 0.0279242)
(0.883017 0.468861 0.0212301)
(0.405375 0.910814 0.0780318)
(0.266493 0.959935 0.0866372)
(0.96637 0.256207 0.0220766)
(0.934873 0.354982 -0.000957015)
(0.377504 0.922849 0.076424)
(0.939069 0.343728 -6.42873e-05)
(0.378797 0.9223 0.0766586)
(0.242163 0.966538 0.0846315)
(0.941795 -0.314773 -0.118066)
(0.133634 0.990126 0.0423365)
(0.950886 -0.295632 -0.0917419)
(0.0261431 0.999094 0.0335718)
(0.952074 -0.29223 -0.0903193)
(0.0243301 0.99912 0.0341695)
(0.94081 -0.316988 -0.119978)
(0.946088 -0.307026 -0.103211)
(0.145632 0.98838 0.0435458)
(0.930438 -0.357322 -0.081285)
(0.0391915 0.998481 0.0387269)
(0.932839 -0.350932 -0.0815984)
(0.947117 -0.304087 -0.102473)
(0.0452605 0.998256 0.0378928)
(-0.436089 0.899038 0.0394707)
(-0.438546 0.897823 0.0398905)
(0.0717376 0.99551 0.061761)
(0.966779 0.255461 0.00880263)
(0.95307 0.300047 -0.040354)
(0.337114 0.938986 0.0682563)
(0.958724 0.281792 -0.0379629)
(0.338477 0.938449 0.0689005)
(0.0562932 0.99664 0.0595008)
(0.208865 0.974534 0.081605)
(0.966616 0.255433 0.0201958)
(0.944279 0.329122 -0.00393995)
(0.375472 0.923698 0.0761809)
(0.240157 0.967073 0.084229)
(0.940324 0.340244 -0.00499458)
(0.371381 0.925384 0.075764)
(0.834328 -0.547967 -0.0602404)
(0.809196 -0.5813 -0.0853949)
(0.93858 -0.321964 -0.124123)
(0.951668 -0.292664 -0.0931412)
(0.0157944 0.999292 0.0341495)
(0.127189 0.99096 0.0426741)
(0.940511 -0.317118 -0.121963)
(0.953303 -0.286852 -0.0944932)
(0.0195012 0.999253 0.0333672)
(0.913625 -0.366446 -0.176088)
(0.0541558 0.996962 0.0559865)
(0.945785 -0.292514 -0.141164)
(-0.186268 0.980423 0.0638335)
(0.950058 -0.281508 -0.134696)
(-0.156826 0.985944 0.0576269)
(0.910356 -0.37103 -0.183272)
(-0.434277 0.899899 0.0398265)
(-0.39892 0.915622 0.0499875)
(0.0376952 0.997735 0.0557076)
(0.958153 0.282746 -0.0446997)
(0.33507 0.939762 0.0676481)
(0.965873 0.258968 0.00506143)
(0.0604765 0.996453 0.058508)
(0.951108 0.305214 -0.0472973)
(0.328835 0.942023 0.0667823)
(0.0575886 0.998031 0.0248426)
(0.941554 0.336383 -0.017957)
(0.860046 0.494061 -0.127372)
(0.291211 0.954418 0.0654379)
(0.879156 0.461446 -0.118965)
(0.290932 0.954638 0.063444)
(0.0625227 0.997834 0.0204498)
(0.778012 -0.602801 -0.176999)
(0.0306228 0.76733 -0.640521)
(0.859942 -0.273117 -0.43117)
(0.774678 -0.631516 0.0325945)
(0.961767 -0.137881 -0.236628)
(-0.545369 0.826506 -0.139501)
(0.863702 -0.485899 -0.13387)
(0.901273 -0.384662 -0.199355)
(0.0197338 0.997617 0.0661078)
(0.944335 -0.293754 -0.14812)
(-0.235686 0.968995 0.0741716)
(0.945266 -0.286957 -0.15533)
(0.907083 -0.375101 -0.191049)
(-0.27059 0.959118 0.0829014)
(0.0165844 -0.0564591 0.998267)
(-0.37701 0.924309 0.0592968)
(0.866572 0.223457 0.446228)
(0.0626248 -0.218258 0.97388)
(0.847805 -0.52515 0.0737834)
(-0.338308 0.0862039 0.937079)
(-0.560949 0.707153 -0.430432)
(0.409527 0.129284 0.903091)
(0.994195 0.0791382 0.0728919)
(0.0844316 0.996389 0.00899224)
(0.907393 0.419637 -0.0233037)
(0.853235 0.50267 -0.13897)
(0.291056 0.954236 0.0687004)
(0.0842413 0.996332 0.0150234)
(0.833692 0.531565 -0.149654)
(0.280081 0.957198 0.0729799)
(0.963142 -0.268861 0.00841275)
(0.856391 -0.510014 -0.0804959)
(0.870089 -0.446452 -0.20887)
(0.933236 -0.359264 0.000923519)
(0.838268 -0.542404 -0.0557255)
(0.838733 -0.541785 -0.0547321)
(0.701733 -0.676243 -0.224202)
(0.750527 -0.642896 -0.15295)
(0.836959 -0.544746 -0.0524557)
(0.837705 -0.543573 -0.0527138)
(0.947079 -0.305829 -0.0975241)
(0.143514 0.988604 0.0454553)
(0.907235 -0.413083 -0.0792956)
(0.0433879 0.9982 0.0413928)
(0.906419 -0.414911 -0.0790819)
(0.946621 -0.307109 -0.0979453)
(0.0378122 0.9984 0.0420496)
(0.946541 -0.307094 -0.0987552)
(0.145462 0.988345 0.0448869)
(0.911073 -0.40452 -0.079431)
(0.0381502 0.998412 0.0414401)
(0.913939 -0.397975 -0.0795754)
(0.947381 -0.304644 -0.0982919)
(0.0451114 0.998154 0.0406612)
(-0.434873 0.899579 0.0405338)
(-0.436427 0.898834 0.0403671)
(0.385737 0.917684 0.0951975)
(0.965211 0.260174 0.0260408)
(0.910561 0.413184 0.0125509)
(0.394336 0.915659 0.0778918)
(0.915237 0.402705 0.0130377)
(0.395263 0.915255 0.0779497)
(0.361878 0.927506 0.0936845)
(0.328237 0.940155 0.0914843)
(0.965503 0.259217 0.0247045)
(0.922123 0.386768 0.00996969)
(0.392516 0.916447 0.0778199)
(0.918032 0.396396 0.00933504)
(0.389024 0.917953 0.0776064)
(0.357971 0.929042 0.0934805)
(0.944105 -0.310492 -0.11073)
(0.141312 0.989057 0.0424004)
(0.944055 -0.318615 -0.0851128)
(0.0342808 0.998769 0.0358397)
(0.946715 -0.310454 -0.0857231)
(0.945322 -0.307204 -0.109506)
(0.0402316 0.998581 0.0348918)
(0.945667 -0.306912 -0.107329)
(0.142997 0.988798 0.0427898)
(0.94256 -0.323193 -0.0844238)
(0.0411814 0.998513 0.0357106)
(0.942413 -0.323799 -0.0837415)
(0.945083 -0.308325 -0.108413)
(0.0371816 0.998643 0.0364717)
(-0.438509 0.897862 0.0394256)
(-0.438516 0.897853 0.039547)
(0.107176 0.991825 0.0692611)
(0.967095 0.254039 0.0138639)
(0.957783 0.286676 -0.0216458)
(0.355955 0.931673 0.0726683)
(0.952635 0.30323 -0.0231858)
(0.351368 0.933463 0.0720285)
(0.134676 0.988264 0.0720842)
(0.154123 0.985204 0.0749612)
(0.967225 0.253386 0.0164889)
(0.950715 0.309533 -0.0181795)
(0.358218 0.930768 0.0731512)
(0.95526 0.295295 -0.0167305)
(0.359376 0.930283 0.0736344)
(0.133612 0.988361 0.072729)
(0.829032 -0.55535 -0.0655148)
(0.823803 -0.562429 -0.0708675)
(0.932886 -0.332838 -0.137633)
(0.109931 0.992941 0.0445255)
(0.952678 -0.284552 -0.106931)
(-0.0194956 0.999171 0.0357363)
(0.955261 -0.276858 -0.104046)
(0.931202 -0.336053 -0.141182)
(-0.0161699 0.999237 0.0355528)
(0.926933 -0.344329 -0.149108)
(0.0948174 0.994385 0.0469892)
(0.952487 -0.28406 -0.109905)
(-0.0374107 0.998585 0.0378022)
(0.953838 -0.278299 -0.112884)
(0.929931 -0.337945 -0.144991)
(-0.0391922 0.998508 0.038012)
(-0.427004 0.903314 0.0411323)
(-0.42052 0.90626 0.0430895)
(0.0298547 0.99847 0.0465458)
(0.96297 0.269598 -0.00229875)
(0.931927 0.355342 -0.0724173)
(0.313916 0.947388 0.0625488)
(0.94302 0.325624 -0.0684291)
(0.31474 0.947077 0.0631159)
(0.0228773 0.998764 0.0441204)
(0.0201383 0.999011 0.0396437)
(0.958703 0.284301 -0.00780387)
(0.932718 0.351937 -0.0785895)
(0.312189 0.947985 0.0621559)
(0.919 0.385404 -0.083086)
(0.305115 0.95032 0.0616225)
(0.0336208 0.998536 0.0423728)
(0.832573 -0.471231 -0.291141)
(-0.0370429 0.993071 0.111521)
(0.92599 -0.291252 -0.240237)
(0.0564869 0.998402 0.00161319)
(0.933181 -0.253167 -0.255106)
(0.850263 -0.445976 -0.279569)
(0.197717 0.978732 -0.0546974)
(0.88319 -0.196248 -0.425983)
(0.929271 -0.36073 -0.0795553)
(0.932173 -0.237849 -0.272913)
(0.896874 -0.385356 -0.217068)
(0.86437 -0.195805 -0.463169)
(0.943874 -0.229635 -0.237423)
(0.915758 -0.354642 -0.188726)
(0.870901 -0.421329 -0.253008)
(-0.0376482 0.994754 0.0951139)
(0.93044 -0.290472 -0.223398)
(-0.103801 0.993151 0.0536389)
(0.935289 -0.286067 -0.208328)
(0.862378 -0.43057 -0.266296)
(-0.263561 0.959842 0.096115)
(0.810935 -0.209407 -0.546382)
(0.887187 -0.444294 -0.124504)
(0.912764 -0.260372 -0.314751)
(0.872356 -0.42288 -0.245292)
(0.831233 -0.204793 -0.516828)
(0.899623 -0.27917 -0.335772)
(0.842458 -0.465362 -0.271482)
(-0.149331 0.959068 0.2406)
(-0.288875 0.95168 0.104192)
(0.147165 -0.0264489 0.988758)
(0.261317 0.952474 0.156542)
(0.605905 0.752144 -0.259151)
(0.285543 0.466463 0.837184)
(0.554139 0.784067 -0.279586)
(0.221549 0.253792 0.941544)
(0.052006 -0.0868309 0.994865)
(0.987795 -0.120678 0.0984769)
(0.948513 -0.315907 -0.0229445)
(0.961855 -0.261769 -0.0794498)
(0.973847 -0.226235 0.0209515)
(0.963547 -0.260431 -0.0612613)
(0.987451 -0.137074 0.0784272)
(0.977984 -0.206521 0.0299251)
(0.22176 0.963255 -0.151535)
(0.538772 0.841859 0.0315758)
(0.653879 0.717805 -0.239162)
(0.348788 0.812383 0.467312)
(0.70386 0.674477 -0.222851)
(0.315997 0.920236 0.230894)
(-0.158766 -0.550145 0.819838)
(0.983243 -0.176012 0.0474606)
(0.92358 -0.379964 -0.0512537)
(0.949573 -0.292931 -0.111811)
(0.969149 -0.246098 0.0136153)
(0.945892 -0.300482 -0.122473)
(0.985785 -0.157396 0.0587814)
(0.963948 -0.265912 0.0097294)
(0.837113 -0.544 -0.0574925)
(0.839092 -0.541317 -0.0538462)
(-0.46455 0.435415 0.771108)
(0.789859 -0.603764 -0.107665)
(0.835753 -0.54662 -0.0521848)
(0.838716 -0.541973 -0.0531154)
(0.912624 -0.382231 -0.144971)
(0.85373 -0.501729 -0.139329)
(0.946988 -0.306517 -0.0962288)
(0.141626 0.988848 0.0460673)
(0.895035 -0.438979 -0.0788049)
(0.0422823 0.9982 0.0425393)
(0.893448 -0.442229 -0.0786437)
(0.0373905 0.998372 0.043073)
(0.946387 -0.308256 -0.0965917)
(0.912011 -0.38405 -0.144016)
(0.900175 0.0846661 -0.427221)
(0.913798 0.131453 -0.384309)
(0.901167 0.0791577 -0.426184)
(0.906341 0.169633 -0.387003)
(0.87593 0.140961 -0.461386)
(0.869653 0.168057 -0.464176)
(0.871329 0.169668 -0.460433)
(0.877623 0.14194 -0.457855)
(0.899244 0.0798415 -0.4301)
(0.90481 0.167218 -0.391609)
(0.898141 0.0851174 -0.43139)
(0.912163 0.130071 -0.38864)
(0.906848 0.0759919 -0.414549)
(0.9108 0.179189 -0.371933)
(0.919175 0.133988 -0.370358)
(0.906266 0.0819572 -0.414687)
(0.875684 0.175437 -0.449887)
(0.882087 0.144006 -0.448537)
(0.906773 0.0816755 -0.413632)
(0.919732 0.134141 -0.368915)
(0.9073 0.0754842 -0.413653)
(0.911252 0.180283 -0.370295)
(0.88194 0.143974 -0.448835)
(0.875558 0.174923 -0.450333)
(0.870201 -0.470144 -0.14736)
(0.91997 -0.361171 -0.152353)
(0.946727 -0.305892 -0.100686)
(0.14605 0.988289 0.0442124)
(0.921463 -0.380101 -0.0801828)
(0.0401197 0.998392 0.0400493)
(0.924192 -0.373372 -0.0803941)
(0.0465106 0.998146 0.0392608)
(0.947526 -0.303597 -0.100115)
(0.92171 -0.355809 -0.154436)
(0.875146 -0.460115 -0.149711)
(-0.433133 0.900412 0.0406699)
(-0.437858 0.898148 0.040128)
(0.832226 0.447873 0.326817)
(0.915746 0.229172 0.329983)
(0.445356 0.889955 0.0981733)
(0.964569 0.262388 0.0275354)
(0.894918 0.445856 0.0182924)
(0.402301 0.91217 0.078102)
(0.898582 0.438405 0.018747)
(0.403506 0.911641 0.0780648)
(0.423371 0.900743 0.0970497)
(0.919783 0.233233 0.315596)
(0.835763 0.451978 0.311794)
(0.0265182 -0.0059177 0.999631)
(0.0397138 -0.0371826 0.998519)
(0.0340349 -0.020629 0.999208)
(0.0397148 -0.0124984 0.999133)
(0.015431 -0.0346818 0.999279)
(0.0158561 -0.0171119 0.999728)
(0.019266 -0.0162251 0.999683)
(0.0189269 -0.0339296 0.999245)
(0.0301503 -0.0212805 0.999319)
(0.0351795 -0.0135008 0.99929)
(0.0227162 -0.00664666 0.99972)
(0.0350404 -0.0379768 0.998664)
(0.0541701 -0.0181832 0.998366)
(0.0635468 -0.00881704 0.99794)
(0.06433 -0.0348297 0.997321)
(0.0460541 -0.0035042 0.998933)
(0.0399541 -0.0127772 0.99912)
(0.0403535 -0.0312065 0.998698)
(0.0501806 -0.00320504 0.998735)
(0.0696555 -0.0346116 0.99697)
(0.0584613 -0.0178515 0.99813)
(0.0686687 -0.0083093 0.997605)
(0.0366703 -0.0314575 0.998832)
(0.0364042 -0.0131431 0.999251)
(0.879952 0.206488 0.42784)
(0.794734 0.428054 0.430311)
(0.269166 0.959155 0.0870149)
(0.966087 0.25722 0.0226523)
(0.934607 0.355668 0.00334033)
(0.384501 0.919892 0.0771827)
(0.930003 0.367542 0.00262659)
(0.380947 0.921393 0.0769074)
(0.299795 0.949813 0.0893223)
(0.781274 0.422685 0.459291)
(0.86763 0.201777 0.454427)
(0.912879 -0.368062 -0.176586)
(0.939105 -0.292701 -0.180021)
(0.942215 -0.314124 -0.116432)
(0.135661 0.989853 0.0422853)
(0.948723 -0.303497 -0.0883961)
(0.0287277 0.998988 0.0345965)
(0.950567 -0.297392 -0.0893334)
(0.0333947 0.998873 0.0337367)
(0.943591 -0.310565 -0.114831)