/*--------------------------------*- C++ -*----------------------------------*\
| =========                 |                                                 |
| \\      /  F ield         | OpenFOAM: The Open Source CFD Toolbox           |
|  \\    /   O peration     | Version:  2012                                  |
|   \\  /    A nd           | Website:  www.openfoam.com                      |
|    \\/     M anipulation  |                                                 |
\*---------------------------------------------------------------------------*/
FoamFile
{
    version     2.0;
    format      ascii;
    class       surfaceScalarField;
    location    "0.104/fluid";
    object      meshPhi;
}
// * * * * * * * * * * * * * * * * * * * * * * * * * * * * * * * * * * * * * //

dimensions      [0 3 -1 0 0 0 0];
oriented        oriented;


internalField   nonuniform List<scalar> 
47129
(
3.34341e-07
-5.13526e-08
9.6896e-08
5.14588e-08
-5.24909e-07
1.04357e-06
-1.54749e-07
3.00546e-07
1.55336e-07
-1.17039e-06
-2.02118e-07
1.39592e-06
-1.42802e-06
4.96767e-07
2.03932e-07
-1.94101e-07
1.43447e-06
-1.4146e-06
6.76051e-07
1.96889e-07
-1.63774e-07
1.31956e-06
-1.28153e-06
8.40037e-07
1.6639e-07
-1.32224e-07
1.15867e-06
-1.11607e-06
9.55682e-07
1.34392e-07
-1.05248e-07
9.88084e-07
-9.46e-07
9.6841e-07
1.07066e-07
-8.27641e-08
8.23798e-07
-7.84716e-07
8.97363e-07
8.43973e-08
-6.34394e-08
6.72952e-07
-6.37245e-07
7.94803e-07
6.50216e-08
-4.65504e-08
5.32033e-07
-4.97193e-07
6.70501e-07
4.80162e-08
-3.19948e-08
3.95768e-07
-3.64329e-07
5.31873e-07
3.31901e-08
-2.11731e-08
2.82688e-07
-2.59953e-07
4.05186e-07
2.19902e-08
-1.37713e-08
1.96007e-07
-1.7426e-07
2.85385e-07
1.42182e-08
-6.9127e-09
1.03195e-07
-7.75851e-08
1.50545e-07
7.07733e-09
-3.51841e-07
-3.19701e-07
-7.04646e-06
3.23895e-07
7.66947e-07
-8.17283e-07
9.80375e-06
-1.25653e-06
1.24564e-06
-1.09698e-05
1.342e-06
-2.04546e-06
-1.48005e-06
1.3674e-05
2.03944e-06
-1.41803e-05
2.04823e-06
-2.15497e-06
-2.10043e-06
1.46464e-05
-1.45441e-05
2.70233e-06
2.1668e-06
-1.87317e-06
-2.69042e-06
1.37567e-05
-1.33833e-05
3.35084e-06
1.89773e-06
-1.50566e-06
-3.15525e-06
1.21504e-05
-1.17328e-05
3.85874e-06
1.52943e-06
-1.18954e-06
-3.4705e-06
1.04969e-05
-1.00938e-05
4.20129e-06
1.20955e-06
-9.39023e-07
-3.5757e-06
8.92131e-06
-8.54607e-06
4.3223e-06
9.56215e-07
-7.37712e-07
-3.39691e-06
7.46771e-06
-7.12336e-06
4.12871e-06
7.53276e-07
-5.67892e-07
-3.04588e-06
6.13122e-06
-5.81245e-06
3.71979e-06
5.82552e-07
-4.18647e-07
-2.58986e-06
4.86946e-06
-4.55389e-06
3.17779e-06
4.31872e-07
-2.86478e-07
-2.04727e-06
3.61264e-06
-3.31766e-06
2.51902e-06
2.96643e-07
-1.86042e-07
-1.538e-06
2.52818e-06
-2.29947e-06
1.88196e-06
1.92697e-07
-1.21145e-07
-1.10694e-06
1.73461e-06
-1.5492e-06
1.36883e-06
1.25029e-07
-5.97331e-08
-5.88157e-07
9.05838e-07
-6.79826e-07
7.23453e-07
6.12636e-08
-2.55297e-06
-3.43972e-06
-5.35632e-05
4.4245e-06
2.52304e-06
5.022e-05
-7.11531e-06
-4.24794e-06
5.29746e-06
6.95404e-06
-4.8405e-05
-6.69329e-06
-4.3735e-06
4.20166e-05
-3.98787e-05
5.10426e-06
6.61191e-06
-5.1967e-06
-4.63993e-06
3.40908e-05
-3.24093e-05
5.19494e-06
5.19509e-06
-3.87196e-06
-5.18973e-06
2.80319e-05
-2.67594e-05
5.68345e-06
3.90694e-06
-2.89034e-06
-5.7221e-06
2.33756e-05
-2.23753e-05
6.2062e-06
2.93144e-06
-2.21026e-06
-6.09605e-06
1.96905e-05
-1.88898e-05
6.5843e-06
2.24705e-06
-1.73661e-06
-6.22605e-06
1.67041e-05
-1.60295e-05
6.72468e-06
1.76847e-06
-1.37124e-06
-5.98491e-06
1.40941e-05
-1.34693e-05
6.47213e-06
1.40007e-06
-1.05874e-06
-5.44057e-06
1.16393e-05
-1.10451e-05
5.89484e-06
1.085e-06
-7.8441e-07
-4.71393e-06
9.31021e-06
-8.74362e-06
5.12047e-06
8.05904e-07
-5.47068e-07
-3.83383e-06
7.07012e-06
-6.53704e-06
4.19885e-06
5.61984e-07
-3.60442e-07
-2.93807e-06
5.05534e-06
-4.6022e-06
3.24901e-06
3.71052e-07
-2.25897e-07
-2.11678e-06
3.35726e-06
-2.9348e-06
2.31474e-06
2.32678e-07
-1.04725e-07
-1.08017e-06
1.64221e-06
-1.21539e-06
1.17641e-06
1.07952e-07
-1.04039e-06
-1.50227e-06
-2.13011e-05
1.47833e-06
1.04477e-06
7.99476e-05
-1.48153e-05
-7.62962e-06
8.17721e-06
1.44472e-05
-7.56176e-05
6.22873e-05
-1.07263e-05
-6.6262e-06
6.93506e-06
1.05361e-05
-5.82968e-05
-7.49583e-06
-6.41284e-06
4.82421e-05
-4.54912e-05
6.69863e-06
7.46655e-06
-5.31802e-06
-6.78368e-06
3.86675e-05
-3.67803e-05
7.04991e-06
5.3559e-06
-3.89952e-06
-7.24218e-06
3.19528e-05
-3.05727e-05
7.46665e-06
3.95432e-06
-2.98548e-06
-7.61681e-06
2.69862e-05
-2.59579e-05
3.03847e-06
-2.37763e-06
-7.80719e-06
2.31981e-05
-2.23423e-05
2.4233e-06
-1.89965e-06
-7.50897e-06
1.98334e-05
-1.90005e-05
1.93968e-06
-1.47294e-06
-6.84606e-06
1.65008e-05
-1.56681e-05
1.50697e-06
-1.08673e-06
-5.94973e-06
1.31992e-05
-1.23963e-05
1.11418e-06
-7.60301e-07
-4.91928e-06
1.00831e-05
-9.35e-06
7.81293e-07
-5.03657e-07
-3.83785e-06
7.27166e-06
-6.61365e-06
5.18811e-07
-3.05747e-07
-2.69943e-06
4.70882e-06
-4.08914e-06
3.15433e-07
-1.39657e-07
-1.36716e-06
2.26414e-06
-1.67041e-06
1.44163e-07
4.01394e-07
-4.86295e-08
1.21226e-07
4.81391e-08
-6.11349e-07
1.1563e-06
-1.44978e-07
3.34176e-07
1.39136e-07
-1.2836e-06
-1.92255e-07
1.49568e-06
-1.51985e-06
5.12276e-07
1.84061e-07
-1.88004e-07
1.49673e-06
-1.46641e-06
6.62746e-07
1.8039e-07
-1.60368e-07
1.34049e-06
-1.29281e-06
7.95787e-07
1.54505e-07
-1.30249e-07
1.14713e-06
-1.09946e-06
8.93463e-07
1.25842e-07
-1.04435e-07
9.62954e-07
-9.1972e-07
9.38579e-07
1.01148e-07
-8.30627e-08
7.96321e-07
-7.57289e-07
9.15836e-07
8.06518e-08
-6.48215e-08
6.45788e-07
-6.10403e-07
8.34887e-07
6.30996e-08
-4.87175e-08
5.07858e-07
-4.7449e-07
7.16801e-07
4.75886e-08
-3.45349e-08
3.77557e-07
-3.47157e-07
5.80377e-07
3.39879e-08
-2.31917e-08
2.64264e-07
-2.39628e-07
4.41704e-07
2.29449e-08
-1.46846e-08
1.72106e-07
-1.50426e-07
3.07909e-07
1.44599e-08
-7.12512e-09
8.46568e-08
-6.22937e-08
1.63434e-07
6.97051e-09
-4.57048e-07
-3.1718e-07
-7.62463e-06
3.16054e-07
9.44596e-07
-9.46242e-07
1.05294e-05
-1.09975e-06
1.03461e-06
-1.1742e-05
1.50312e-06
-1.83814e-06
-1.60673e-06
1.45397e-05
1.73048e-06
-1.50519e-05
2.1946e-06
-2.01217e-06
-2.16199e-06
1.54246e-05
-1.52553e-05
2.76753e-06
1.91058e-06
-1.8016e-06
-2.65638e-06
1.42217e-05
-1.37631e-05
3.29767e-06
1.72177e-06
-1.47149e-06
-3.04871e-06
1.22664e-05
-1.17645e-05
3.71917e-06
1.41444e-06
-1.17188e-06
-3.3417e-06
1.03249e-05
-9.87539e-06
4.04131e-06
1.13056e-06
-9.33148e-07
-3.49206e-06
8.61958e-06
-8.23161e-06
4.21459e-06
9.02967e-07
-7.42456e-07
-3.42238e-06
7.13698e-06
-6.79264e-06
4.13667e-06
7.20433e-07
-5.81421e-07
-3.14658e-06
5.80702e-06
-5.49301e-06
3.81759e-06
5.65663e-07
-4.3785e-07
-2.72735e-06
4.57775e-06
-4.27553e-06
3.32029e-06
4.27296e-07
-3.07847e-07
-2.21216e-06
3.37991e-06
-3.09697e-06
2.68866e-06
3.02158e-07
-2.04931e-07
-1.69645e-06
2.34152e-06
-2.1198e-06
2.07233e-06
2.02891e-07
-1.29503e-07
-1.20433e-06
1.52511e-06
-1.33292e-06
1.47953e-06
1.27794e-07
-6.24148e-08
-6.3803e-07
7.44889e-07
-5.48301e-07
7.81162e-07
6.13205e-08
-2.19592e-06
-3.81528e-06
-5.35883e-05
4.92166e-06
2.03177e-06
5.09484e-05
-5.6655e-06
-4.42547e-06
5.51018e-06
5.06242e-06
-4.9425e-05
-5.75618e-06
-4.5531e-06
4.36313e-05
-4.15508e-05
5.31692e-06
5.32016e-06
-4.75672e-06
-4.68761e-06
3.55654e-05
-3.37308e-05
5.2512e-06
4.49364e-06
-3.69303e-06
-5.04187e-06
2.87902e-05
-2.733e-05
5.5178e-06
3.52946e-06
-2.82221e-06
-5.43925e-06
2.34382e-05
-2.22937e-05
5.89474e-06
2.71598e-06
-2.18458e-06
-5.79296e-06
1.92594e-05
-1.83756e-05
6.25383e-06
2.11188e-06
-1.73169e-06
-6.00316e-06
1.60203e-05
-1.53147e-05
6.47098e-06
1.67898e-06
-1.38262e-06
-5.89651e-06
1.33317e-05
-1.27023e-05
6.35086e-06
1.34377e-06
-1.08159e-06
-5.46565e-06
1.08684e-05
-1.02729e-05
5.88668e-06
1.05333e-06
-8.07654e-07
-4.77402e-06
8.51707e-06
-7.93922e-06
5.1497e-06
7.87443e-07
-5.64032e-07
-3.89148e-06
6.26628e-06
-5.77719e-06
4.233e-06
5.5111e-07
-3.77584e-07
-3.05844e-06
4.42566e-06
-3.99064e-06
3.32511e-06
3.70182e-07
-2.34981e-07
-2.18018e-06
2.81549e-06
-2.44226e-06
2.36232e-06
2.30217e-07
-1.10255e-07
-1.1279e-06
1.33525e-06
-9.77857e-07
1.21215e-06
1.08199e-07
-4.20418e-06
-7.01842e-06
-9.10153e-05
7.41063e-06
3.63359e-06
-1.08565e-05
8.3096e-05
-7.72769e-06
8.15179e-06
-7.89628e-05
9.39259e-06
-9.01701e-06
-6.87409e-06
6.57898e-05
7.17038e-06
-6.16652e-05
8.307e-06
-6.81448e-06
-6.47871e-06
5.08481e-05
-4.77756e-05
6.74832e-06
6.45242e-06
-5.07895e-06
-6.60102e-06
3.99607e-05
-3.77701e-05
6.85789e-06
4.87402e-06
-3.83249e-06
-6.93984e-06
3.21836e-05
-3.06058e-05
7.18247e-06
3.70354e-06
-2.97935e-06
-7.30652e-06
2.65459e-05
-2.53862e-05
7.53504e-06
2.89091e-06
-2.38958e-06
-7.50737e-06
2.23098e-05
-2.1379e-05
7.70687e-06
2.3233e-06
-1.92556e-06
-7.31354e-06
1.8718e-05
-1.7852e-05
1.87527e-06
-1.50451e-06
-6.75281e-06
1.52719e-05
-1.44228e-05
1.46758e-06
-1.11704e-06
-5.92146e-06
1.19441e-05
-1.11545e-05
1.09056e-06
-7.87444e-07
-4.92724e-06
8.92216e-06
-8.23145e-06
7.70098e-07
-5.25714e-07
-3.88158e-06
6.3041e-06
-5.70254e-06
5.14887e-07
-3.21209e-07
-2.74695e-06
3.98308e-06
-3.43608e-06
3.15094e-07
-1.47598e-07
-1.38554e-06
1.85536e-06
-1.35635e-06
1.45112e-07
-1.70769e-08
-5.3233e-07
1.34046e-07
2.48142e-08
-5.90182e-08
7.99484e-07
2.39736e-07
-9.31343e-07
6.32844e-08
-1.20816e-07
1.28819e-06
4.08196e-07
-1.3739e-06
1.13952e-07
-1.51803e-07
1.51262e-06
-1.52381e-06
5.52064e-07
1.38931e-07
-1.48003e-07
1.48251e-06
-1.45129e-06
6.81131e-07
1.34483e-07
-1.27773e-07
1.32945e-06
-1.28364e-06
7.94653e-07
1.16125e-07
-1.04912e-07
1.14199e-06
-1.09501e-06
8.94995e-07
9.55395e-08
-8.48668e-08
9.57424e-07
-9.12902e-07
9.54814e-07
7.73998e-08
-6.79798e-08
7.84022e-07
-7.43071e-07
9.48592e-07
6.20187e-08
-5.33018e-08
6.26994e-07
-5.90468e-07
8.75683e-07
4.85866e-08
-4.0243e-08
4.85928e-07
-4.52636e-07
7.62292e-07
3.65972e-08
-2.89467e-08
3.58178e-07
-3.28855e-07
6.27287e-07
2.62649e-08
-1.97532e-08
2.47508e-07
-2.2237e-07
4.85878e-07
1.79148e-08
-1.24057e-08
1.52798e-07
-1.31017e-07
3.41221e-07
1.12647e-08
-5.92491e-09
6.89616e-08
-4.956e-08
1.78373e-07
5.37909e-09
-3.73431e-07
-9.24619e-07
-1.01252e-05
1.41247e-06
3.98349e-07
-8.97778e-07
-1.29365e-06
1.18119e-05
-1.25639e-05
1.82715e-06
8.60835e-07
-1.38616e-06
-1.81233e-06
1.43974e-05
-1.47483e-05
2.37763e-06
1.26807e-06
-1.52864e-06
-2.25466e-06
1.49445e-05
-1.4772e-05
2.84336e-06
1.38366e-06
-1.39284e-06
-2.65812e-06
1.37932e-05
-1.33715e-05
3.27218e-06
1.25991e-06
-1.16086e-06
-3.0229e-06
1.19975e-05
-1.1529e-05
3.67458e-06
1.05286e-06
-9.38883e-07
-3.32643e-06
1.0154e-05
-9.71464e-06
4.0119e-06
8.54472e-07
-7.56135e-07
-3.51108e-06
8.46275e-06
-8.06698e-06
4.21868e-06
6.89428e-07
-6.06306e-07
-3.48866e-06
6.93623e-06
-6.57889e-06
4.19241e-06
5.52989e-07
-4.76977e-07
-3.24298e-06
5.56176e-06
-5.24012e-06
3.90877e-06
4.34525e-07
-3.60327e-07
-2.83528e-06
4.31334e-06
-4.01497e-06
3.42296e-06
3.27436e-07
-2.56559e-07
-2.33398e-06
3.16347e-06
-2.90198e-06
2.81392e-06
2.3309e-07
-1.74373e-07
-1.83096e-06
2.18708e-06
-1.96854e-06
2.21495e-06
1.58568e-07
-1.09943e-07
-1.29786e-06
1.36269e-06
-1.17063e-06
1.57356e-06
1.00093e-07
-5.2501e-08
-6.8168e-07
6.16507e-07
-4.44326e-07
8.23072e-07
4.77496e-08
-1.57319e-06
-3.5867e-06
-4.11495e-05
4.43377e-06
1.44236e-06
-3.38193e-06
-4.01632e-06
4.05285e-05
4.84136e-06
-4.00675e-05
2.92819e-06
-3.875e-06
-4.35907e-06
3.7675e-05
-3.65787e-05
5.03178e-06
3.40462e-06
-3.49317e-06
-4.62186e-06
3.27739e-05
-3.14329e-05
5.17521e-06
3.11766e-06
-2.84007e-06
-4.95087e-06
2.74602e-05
-2.62044e-05
5.43959e-06
2.55871e-06
-2.23304e-06
-5.35638e-06
2.27261e-05
-2.16727e-05
5.82425e-06
2.02603e-06
-1.76565e-06
-5.7397e-06
1.88016e-05
-1.79395e-05
6.21182e-06
1.61218e-06
-1.4153e-06
-5.98274e-06
1.55828e-05
-1.4863e-05
6.45677e-06
1.29399e-06
-1.13735e-06
-5.93286e-06
1.28263e-05
-1.21807e-05
6.38868e-06
1.03917e-06
-8.93452e-07
-5.55012e-06
1.03058e-05
-9.70049e-06
5.97042e-06
8.15573e-07
-6.68338e-07
-4.88291e-06
7.93893e-06
-7.37449e-06
5.26076e-06
6.09339e-07
-4.71794e-07
-4.04998e-06
5.79535e-06
-5.32997e-06
4.38528e-06
4.30166e-07
-3.17877e-07
-3.19198e-06
4.01651e-06
-3.61016e-06
3.45039e-06
2.9065e-07
-1.98242e-07
-2.25294e-06
2.48219e-06
-2.12224e-06
2.42272e-06
1.81454e-07
-9.31274e-08
-1.15332e-06
1.10691e-06
-7.97656e-07
1.226e-06
8.51868e-08
-2.62384e-06
-6.04214e-06
-7.17569e-05
6.28304e-06
2.3984e-06
-5.91722e-06
-6.53558e-06
6.76546e-05
6.84144e-06
-6.55487e-05
5.07168e-06
-6.08547e-06
-6.48766e-06
5.80788e-05
-5.5444e-05
6.78802e-06
5.37239e-06
-5.10565e-06
-6.44129e-06
4.77265e-05
-4.5305e-05
6.72545e-06
4.59382e-06
-3.99163e-06
-6.58111e-06
3.86859e-05
-3.67213e-05
6.8442e-06
3.61963e-06
-3.08657e-06
-6.9134e-06
3.15315e-05
-3.00222e-05
7.16089e-06
2.81173e-06
-2.44179e-06
-7.30321e-06
2.60321e-05
-2.48578e-05
7.5392e-06
2.23512e-06
-1.9721e-06
-7.51165e-06
2.16724e-05
-2.06972e-05
7.71586e-06
1.80547e-06
-1.59374e-06
-7.34977e-06
1.79227e-05
-1.70302e-05
7.5141e-06
1.45714e-06
-1.2502e-06
-6.82926e-06
1.43929e-05
-1.35281e-05
6.97098e-06
1.14257e-06
-9.3052e-07
-6.03206e-06
1.1036e-05
-1.02563e-05
6.15915e-06
8.50241e-07
-6.58609e-07
-5.05193e-06
8.09724e-06
-7.44306e-06
6.01871e-07
-4.42622e-07
-3.97903e-06
5.64804e-06
-5.09724e-06
4.05262e-07
-2.72507e-07
-2.77414e-06
3.5168e-06
-3.01107e-06
2.50117e-07
-1.26249e-07
-1.36843e-06
1.59242e-06
-1.15211e-06
1.16079e-07
-3.43096e-08
-1.27471e-06
3.71225e-07
3.10217e-08
-5.97945e-08
1.33448e-06
4.29616e-07
-1.37075e-06
5.11949e-08
-8.29885e-08
1.48019e-06
-1.507e-06
5.17501e-07
6.74411e-08
-9.20165e-08
1.53659e-06
-1.52946e-06
6.11661e-07
7.27262e-08
-8.61686e-08
1.46649e-06
-1.43533e-06
7.1668e-07
6.72249e-08
-7.3723e-08
1.32403e-06
-1.28305e-06
8.21992e-07
5.71444e-08
-6.06745e-08
1.15458e-06
-1.11036e-06
9.17234e-07
4.6882e-08
-4.9196e-08
9.72508e-07
-9.25071e-07
9.9062e-07
3.79555e-08
-3.93043e-08
7.8365e-07
-7.38712e-07
9.78866e-07
3.02614e-08
-3.05967e-08
6.15586e-07
-5.78317e-07
8.87145e-07
2.34898e-08
-2.28369e-08
4.73578e-07
-4.4019e-07
7.86929e-07
1.74951e-08
-1.62366e-08
3.44429e-07
-3.14322e-07
6.52596e-07
1.2409e-08
-1.10315e-08
2.30847e-07
-2.05761e-07
5.03675e-07
8.41772e-09
-6.9545e-09
1.37291e-07
-1.16129e-07
3.46007e-07
5.30616e-09
-3.3229e-09
5.81034e-08
-4.09254e-08
1.73548e-07
2.53605e-09
-3.82471e-07
-1.63769e-06
-1.37177e-05
2.13698e-06
3.29828e-07
-6.60904e-07
-1.86139e-06
1.41395e-05
-1.43515e-05
2.40376e-06
5.45502e-07
-8.56064e-07
-2.15715e-06
1.48286e-05
-1.48761e-05
2.7445e-06
6.84103e-07
-8.89695e-07
-2.44243e-06
1.46142e-05
-1.43984e-05
3.05094e-06
6.98282e-07
-7.96545e-07
-2.76007e-06
1.34582e-05
-1.30813e-05
3.39066e-06
6.18749e-07
-6.65075e-07
-3.10546e-06
1.1874e-05
-1.14582e-05
3.77578e-06
5.14508e-07
-5.42531e-07
-3.41681e-06
1.02063e-05
-9.78963e-06
4.12657e-06
4.1914e-07
-4.38329e-07
-3.62771e-06
8.54393e-06
-8.12987e-06
4.34974e-06
3.38201e-07
-3.5026e-07
-3.58437e-06
6.91942e-06
-6.53563e-06
4.29834e-06
2.69592e-07
-2.73264e-07
-3.286e-06
5.46466e-06
-5.13296e-06
3.96408e-06
2.09727e-07
-2.04038e-07
-2.8879e-06
4.19076e-06
-3.8913e-06
3.47924e-06
1.56247e-07
-1.44691e-07
-2.40055e-06
3.04279e-06
-2.78083e-06
2.89235e-06
1.10709e-07
-9.86059e-08
-1.88287e-06
2.06173e-06
-1.84503e-06
2.27725e-06
7.54701e-08
-6.25369e-08
-1.30801e-06
1.24503e-06
-1.05633e-06
1.58678e-06
4.79122e-08
-2.98069e-08
-6.58982e-07
5.30249e-07
-3.74846e-07
7.97491e-07
2.28673e-08
-1.0125e-06
-3.7926e-06
-3.45672e-05
4.36465e-06
8.21254e-07
-1.75694e-06
-4.10693e-06
3.41923e-05
-3.39918e-05
4.65799e-06
1.37744e-06
-2.05645e-06
-4.50188e-06
3.28269e-05
-3.22286e-05
5.03332e-06
1.59842e-06
-1.91664e-06
-4.76205e-06
2.99189e-05
-2.90094e-05
5.28689e-06
1.48842e-06
-1.59271e-06
-5.10052e-06
2.61212e-05
-2.51417e-05
5.6129e-06
1.23209e-06
-1.28216e-06
-5.52619e-06
2.225e-05
-2.13276e-05
6.02153e-06
9.91515e-07
-1.03792e-06
-5.92712e-06
1.87184e-05
-1.78999e-05
6.41849e-06
8.02849e-07
-8.30814e-07
-6.15558e-06
1.55679e-05
-1.48263e-05
6.64036e-06
6.42311e-07
-6.60894e-07
-6.06684e-06
1.26965e-05
-1.20191e-05
6.52915e-06
5.09053e-07
-5.14838e-07
-5.64767e-06
1.00816e-05
-9.46525e-06
6.07795e-06
3.9539e-07
-3.82985e-07
-4.97177e-06
7.69134e-06
-7.12872e-06
5.35764e-06
2.939e-07
-2.70163e-07
-4.14573e-06
5.55693e-06
-5.08217e-06
4.47671e-06
2.07408e-07
-1.83331e-07
-3.26751e-06
3.79531e-06
-3.40348e-06
3.52629e-06
1.40848e-07
-1.15032e-07
-2.27915e-06
2.30424e-06
-1.95867e-06
2.45175e-06
8.84629e-08
-5.40325e-08
-1.14384e-06
9.96034e-07
-7.11099e-07
1.22403e-06
4.15811e-08
-1.67144e-06
-5.70824e-06
-5.71927e-05
5.97434e-06
1.35069e-06
-2.97529e-06
-6.0251e-06
5.50737e-05
-5.40283e-05
6.33753e-06
2.30641e-06
-3.27137e-06
-6.3387e-06
5.01092e-05
-4.86076e-05
6.65125e-06
2.53907e-06
-2.88529e-06
-6.60794e-06
4.3747e-05
-4.20621e-05
6.90868e-06
2.24515e-06
-2.29666e-06
-6.84179e-06
3.7033e-05
-3.54124e-05
7.10921e-06
1.78529e-06
-1.80002e-06
-7.14017e-06
3.08636e-05
-2.94741e-05
7.37294e-06
1.39682e-06
-1.44912e-06
-7.49433e-06
2.56936e-05
-2.45491e-05
7.70476e-06
1.12306e-06
-1.16379e-06
-7.67316e-06
2.13644e-05
-2.03667e-05
7.85823e-06
9.00908e-07
-9.28417e-07
-7.47472e-06
1.75067e-05
-1.65909e-05
7.63088e-06
7.16006e-07
-7.23842e-07
-6.93076e-06
1.39334e-05
-1.30774e-05
7.06586e-06
5.56731e-07
-5.37986e-07
-6.12624e-06
1.06071e-05
-9.82796e-06
6.2442e-06
4.13565e-07
-3.80911e-07
-5.14622e-06
7.6709e-06
-7.02321e-06
5.24378e-06
2.92863e-07
-2.5768e-07
-4.05295e-06
5.28988e-06
-4.77028e-06
4.13107e-06
1.98267e-07
-1.60135e-07
-2.79087e-06
3.29743e-06
-2.83002e-06
1.23396e-07
-7.46745e-08
-1.35998e-06
1.49937e-06
-1.08501e-06
5.76672e-08
2.67215e-08
-3.1604e-07
5.00611e-08
4.63894e-08
1.29317e-08
4.79505e-08
1.25242e-08
1.28789e-07
3.24995e-07
-2.7051e-06
-2.4121e-08
-2.09135e-08
-2.01024e-08
-2.50346e-08
5.25742e-07
-5.15149e-06
6.26362e-07
-3.23443e-07
4.14924e-06
-1.38218e-06
-1.04072e-06
-2.0134e-05
1.35359e-06
1.55462e-05
-7.08663e-06
-7.32641e-05
7.61608e-05
7.57795e-06
5.26929e-08
2.67897e-08
5.05202e-08
1.32701e-08
4.92056e-08
1.36173e-08
-2.86542e-06
1.31032e-07
-2.68695e-08
-2.17047e-08
-2.59716e-08
-2.25363e-08
-5.44503e-06
6.6293e-07
-3.41685e-07
4.39204e-06
5.23333e-07
2.56183e-08
-3.78106e-07
-2.60011e-08
6.25323e-08
5.6163e-08
1.57702e-08
5.80559e-08
1.52188e-08
1.32592e-07
4.24405e-07
-1.31753e-07
-3.13762e-06
-3.17658e-08
-2.83053e-08
-2.69573e-08
-3.31554e-08
4.76439e-07
-5.92515e-06
7.50944e-07
-4.9591e-07
-3.94224e-07
4.797e-06
-7.81721e-06
8.39928e-05
8.41082e-06
1.52096e-05
-7.35517e-06
-9.47794e-05
7.90999e-06
-1.64233e-06
-9.23741e-07
-1.47505e-06
-9.94937e-07
-8.24753e-06
-8.56642e-05
1.07142e-05
-1.25417e-05
8.98955e-05
8.84313e-06
6.90881e-08
2.58634e-08
6.46125e-08
1.65291e-08
6.04722e-08
1.77873e-08
-3.24708e-06
1.36786e-07
-3.74624e-08
-2.99733e-08
-3.49481e-08
-3.25389e-08
-6.03796e-06
7.84142e-07
-4.1953e-07
4.91559e-06
4.59785e-07
-2.93096e-07
7.04665e-08
-3.11046e-09
-5.98753e-10
-2.08309e-09
-9.0954e-10
-6.5194e-07
4.45263e-08
-3.67742e-08
4.99387e-07
1.50461e-07
7.48478e-07
2.21428e-07
-1.84483e-07
-4.03543e-07
-5.11825e-06
-7.13359e-06
1.02572e-06
4.76666e-07
-4.61669e-07
-6.29334e-07
6.29205e-06
-3.12082e-06
-4.98743e-05
3.9737e-06
6.61356e-06
-3.8594e-06
-4.70605e-05
4.83278e-05
4.86594e-06
4.93393e-06
1.25906e-06
1.52546e-06
1.40059e-06
-7.51929e-05
-5.10804e-06
1.32066e-05
-6.95475e-05
7.22725e-05
-6.44098e-06
-7.0087e-06
7.48148e-06
-6.99025e-05
1.17153e-05
-6.45997e-06
-5.87513e-05
6.24248e-05
6.77545e-06
5.50875e-09
-8.72962e-08
1.00191e-08
-4.99762e-09
4.41886e-08
-3.44185e-09
-1.21921e-11
-1.75145e-10
6.23153e-11
2.43532e-11
1.1451e-11
-1.38338e-10
4.59233e-10
-1.68376e-10
-3.13712e-09
1.25539e-10
-5.51827e-09
-8.15484e-08
9.14164e-09
4.99603e-09
-3.14102e-09
4.12959e-08
1.4669e-10
5.17254e-10
-3.36823e-09
-1.31205e-10
-1.88086e-10
1.21336e-11
-1.89524e-10
2.67848e-11
-1.14197e-11
6.73937e-11
-4.14104e-06
5.17091e-05
5.25296e-06
6.45476e-06
1.64606e-06
1.61809e-06
1.76807e-06
-8.29976e-05
4.84056e-06
-5.86049e-06
-7.5407e-05
7.89074e-05
1.28575e-05
-7.05252e-06
-3.86407e-06
-2.33852e-06
-5.58765e-05
4.99789e-06
-4.42212e-06
5.18831e-06
-5.26139e-05
-5.72175e-06
5.40756e-05
5.61471e-06
3.70799e-06
-4.17273e-06
-8.87397e-05
-6.67029e-06
9.46481e-06
-8.04446e-05
-1.0852e-05
8.42229e-05
-7.49187e-06
-3.16642e-06
-2.10814e-05
-1.87859e-06
2.12035e-05
2.02929e-06
3.14419e-06
9.76839e-07
-1.80142e-06
-1.01653e-06
-2.40478e-05
1.84354e-06
-2.35004e-05
2.87885e-06
-2.14991e-06
2.36711e-06
-3.02166e-06
2.37273e-05
-6.81824e-06
6.65738e-05
7.15114e-06
1.14695e-05
-8.02234e-06
-1.2341e-05
8.52241e-06
-8.09328e-05
-7.15914e-06
-6.64739e-05
9.59364e-06
-1.03702e-05
7.11393e-05
7.48563e-06
-1.46448e-07
1.88797e-08
8.76463e-09
-6.15086e-09
8.8067e-08
-8.03977e-09
-1.22657e-11
-2.18954e-10
7.78979e-11
3.32418e-11
1.17352e-11
-1.61864e-10
6.45449e-10
-2.32942e-10
-3.79155e-09
1.49673e-10
2.89782e-12
6.89352e-12
-2.57045e-11
-4.1311e-13
-1.60856e-13
-4.08445e-13
-1.61817e-13
-5.47436e-09
-9.94546e-08
1.24139e-08
5.0539e-09
-4.39572e-09
5.08848e-08
1.89108e-09
6.13531e-10
-1.17173e-08
-3.77778e-10
-9.24302e-10
-8.74268e-10
6.1895e-11
1.49239e-10
-3.02649e-11
4.22927e-10
-7.86005e-06
8.66863e-05
8.33697e-06
9.03584e-06
-6.20517e-06
-2.87974e-06
-7.64911e-05
6.45298e-06
-6.73487e-06
-7.16119e-05
5.45124e-06
-6.41471e-06
7.37513e-05
7.04699e-06
-1.72958e-10
6.15879e-11
2.40804e-11
-1.14425e-11
4.5154e-10
-1.65908e-10
-1.23638e-10
-3.10368e-09
-7.94902e-08
8.87878e-09
-4.94958e-09
-3.05393e-09
4.02753e-08
-1.99959e-05
-1.76874e-06
2.00762e-05
-3.1564e-06
1.89939e-06
1.5403e-05
1.84034e-06
1.91887e-06
1.7884e-06
1.96938e-06
-6.88679e-06
1.88598e-05
2.03265e-05
1.91357e-05
1.72537e-05
1.89229e-05
2.00403e-05
-7.51805e-05
-8.87061e-08
1.03051e-08
4.49036e-08
4.92747e-09
-3.54444e-09
-2.12476e-10
7.54782e-11
3.18486e-11
-1.13571e-11
6.20695e-10
-2.23752e-10
-1.41846e-10
-3.69734e-09
5.26625e-10
-3.39638e-09
-1.91209e-10
1.32676e-10
-9.53965e-08
1.16749e-08
-4.88346e-09
-4.05201e-09
4.83906e-08
-1.91517e-10
2.72156e-11
6.81162e-11
1.13499e-11
1.51127e-05
2.20142e-06
2.04578e-06
2.1675e-06
2.08331e-06
-7.72155e-06
2.15035e-05
2.20874e-05
2.26234e-05
1.70138e-05
2.21737e-05
2.11678e-05
-8.24384e-05
8.97014e-05
9.04418e-06
1.42296e-05
-8.46603e-05
-8.32293e-06
1.39544e-05
2.29943e-06
2.39127e-06
2.28103e-06
2.39257e-06
-8.36697e-06
2.42787e-05
2.29538e-05
2.36296e-05
1.60012e-05
2.30821e-05
2.36817e-05
-8.76475e-05
-1.84196e-06
9.47927e-07
-2.42446e-05
1.90348e-06
-9.27116e-06
8.94872e-06
-9.30679e-05
-8.08185e-06
7.5609e-06
-9.86844e-05
-1.8564e-06
-1.10764e-06
4.63312e-06
-9.55311e-05
2.43184e-06
2.69391e-06
2.62081e-06
2.53406e-06
-8.52961e-06
2.46202e-05
2.41132e-05
2.39785e-05
2.47281e-05
-3.21515e-06
-2.32902e-06
-2.61485e-06
-9.67821e-05
-2.56878e-06
-2.97459e-06
8.40666e-06
9.15629e-05
9.19298e-06
-8.46009e-06
-8.65143e-05
-1.1861e-05
9.04912e-06
-8.30403e-06
9.75174e-06
-1.38084e-05
9.33625e-05
-8.87927e-05
1.15521e-05
2.3835e-06
2.46628e-06
2.4175e-06
2.44821e-06
-8.57952e-06
2.3856e-05
2.39668e-05
-8.97127e-05
-3.48567e-06
-3.34436e-06
1.06922e-05
9.24614e-08
-4.97139e-07
1.31974e-07
-9.95424e-07
8.47608e-07
2.41374e-07
7.14193e-07
7.76795e-07
-4.42048e-07
-6.20639e-06
1.25453e-06
-8.88439e-06
1.27402e-06
-8.50228e-07
8.12684e-06
-6.64347e-06
7.06363e-07
9.94155e-07
-9.27222e-06
8.1804e-06
1.09798e-06
1.804e-06
-3.63099e-05
-2.13432e-06
4.65348e-06
-3.57198e-05
3.60181e-05
-2.75257e-06
8.90888e-07
2.48946e-07
1.32363e-07
-4.64257e-07
7.10714e-07
-6.54876e-06
-9.3132e-06
1.31816e-06
-8.78424e-07
8.53979e-06
1.25193e-06
-4.97521e-08
1.12299e-07
-5.86318e-07
1.23529e-07
-1.13558e-06
-1.2764e-07
9.76523e-07
2.72589e-07
6.43125e-07
9.12211e-07
-6.71875e-07
-5.26074e-07
-7.09638e-06
1.13698e-06
-9.9789e-06
1.4197e-06
-1.18934e-06
-9.52781e-07
9.18173e-06
8.66257e-06
9.8568e-07
1.16464e-06
-3.88066e-05
1.79231e-06
-2.33558e-06
-3.79816e-05
3.83799e-05
4.55469e-06
-2.93868e-06
-3.20615e-07
-7.56391e-06
9.02314e-07
8.72863e-07
-1.04968e-05
-9.20579e-07
9.28879e-06
1.29318e-06
1.58931e-06
-1.68181e-06
-4.02153e-05
-2.6375e-06
3.71415e-06
-3.95737e-05
-4.07438e-06
3.98985e-05
-3.15017e-06
9.99327e-07
2.8341e-07
1.18921e-07
-5.53732e-07
6.15385e-07
-7.19705e-06
-1.00408e-05
1.45167e-06
-9.80815e-07
9.25505e-06
1.07789e-06
-5.38411e-08
1.95562e-07
-8.15286e-07
-1.24319e-06
1.06947e-07
-1.10633e-07
1.11866e-06
3.39132e-07
1.16652e-06
5.85403e-07
-5.87363e-07
-7.47563e-07
-8.01351e-06
-1.0224e-05
1.60653e-06
9.03455e-07
-9.59908e-07
-1.12114e-06
9.60569e-06
9.33569e-06
8.25029e-07
1.32539e-06
-3.85844e-05
-2.63628e-06
1.47992e-06
4.32701e-06
-3.83168e-05
3.84865e-05
-3.11142e-06
3.31719e-06
-3.44907e-07
-9.11667e-06
1.23857e-06
-1.12461e-05
7.52193e-07
-7.65023e-07
1.03535e-05
1.55051e-06
3.58847e-06
1.19262e-06
-1.27413e-06
-2.66817e-06
-3.24689e-05
3.95456e-06
-3.29403e-05
2.27985e-06
-2.58093e-06
-3.02173e-06
3.27715e-05
6.79418e-07
2.00932e-07
5.11096e-08
-5.59083e-07
-6.22749e-06
2.55057e-07
-7.80748e-06
1.16841e-06
-7.5524e-07
7.13302e-06
4.8761e-07
-3.41019e-08
-1.13447e-06
3.21277e-07
-1.22673e-06
5.32029e-08
-5.60889e-08
1.18206e-06
3.64476e-07
1.48278e-06
2.74784e-07
-2.86118e-07
-1.04358e-06
-9.25603e-06
-9.84639e-06
1.64882e-06
4.26868e-07
-4.67495e-07
-1.17388e-06
9.57704e-06
4.8575e-10
6.87454e-10
1.71471e-10
6.81155e-10
9.98771e-10
-4.84682e-10
-7.32058e-09
6.56719e-07
1.05603e-07
1.45725e-07
-1.15296e-06
4.73184e-08
7.70394e-08
2.82116e-08
2.75854e-08
-2.63729e-09
-2.57828e-09
-5.28566e-09
-5.44596e-09
7.88569e-08
2.95883e-09
-4.45593e-10
-5.87228e-10
-5.79842e-10
-2.9156e-09
-7.01413e-08
9.60103e-09
-1.50126e-07
2.26239e-07
-3.30674e-06
3.94552e-07
7.2869e-08
-8.60502e-09
-5.05246e-09
-4.92965e-09
8.51808e-08
8.31383e-08
2.17224e-07
2.2422e-07
-1.17434e-06
-4.74263e-08
-7.26585e-07
4.69118e-08
8.55152e-08
3.1025e-08
3.0404e-08
-2.947e-09
-2.86372e-09
-5.8877e-09
-6.06422e-09
8.82794e-08
6.96275e-10
1.7756e-10
7.06812e-10
1.02389e-09
4.87402e-10
-7.51638e-09
6.95098e-07
1.05722e-07
-1.21934e-06
1.53695e-07
5.53568e-08
2.64944e-08
5.16673e-08
1.42445e-08
5.27882e-08
1.39446e-08
-3.49514e-07
8.37457e-08
2.89505e-08
2.97034e-08
-2.70584e-09
-2.7833e-09
-5.73993e-09
-5.57586e-09
8.35722e-08
1.04368e-07
-1.27331e-06
1.61418e-07
4.83321e-10
7.53541e-10
1.87774e-10
7.46518e-10
1.11201e-09
-4.86607e-10
-8.05241e-09
-7.32392e-08
1.70619e-07
7.26469e-08
-9.71654e-09
-5.72211e-09
-5.54843e-09
9.3177e-08
9.14819e-08
2.40809e-07
2.45322e-07
-1.29718e-06
-5.96085e-10
-4.66902e-10
-6.05949e-10
-7.19035e-08
3.00095e-09
9.94836e-09
-1.60633e-07
2.26867e-07
4.23637e-07
-3.50327e-06
-2.98404e-06
1.31709e-07
-2.77946e-08
-2.41729e-08
-2.33396e-08
-2.86748e-08
3.76317e-07
-9.43415e-09
-5.20573e-09
-5.37484e-09
8.74222e-08
8.95322e-08
2.36051e-07
2.30239e-07
-1.24324e-06
3.10098e-09
-6.66494e-10
-5.08707e-10
-6.55892e-10
-7.65309e-08
-3.07341e-09
1.10493e-08
2.242e-07
4.49444e-07
-3.64855e-06
-7.5416e-07
4.60904e-08
9.04963e-08
3.1583e-08
3.22233e-08
-3.0315e-09
-3.13724e-09
-6.4432e-09
-6.21953e-09
9.3454e-08
5.8389e-08
5.48778e-08
1.45032e-08
5.37137e-08
1.4826e-08
-3.63001e-07
4.8387e-10
8.43067e-10
2.0741e-10
8.22865e-10
1.30699e-09
-4.78328e-10
-8.9413e-09
-1.02151e-07
7.86716e-07
1.00095e-07
1.8012e-07
-1.36635e-06
1.69753e-07
-1.31906e-06
4.57259e-08
9.23389e-08
3.42284e-08
3.29957e-08
-3.45525e-09
-3.2661e-09
-6.68294e-09
-7.04894e-09
1.00331e-07
7.61271e-10
1.93728e-10
7.7074e-10
1.14557e-09
4.80341e-10
-8.21226e-09
1.80949e-07
7.16354e-08
-5.89346e-09
-1.06687e-08
-6.10053e-09
9.47175e-08
9.63484e-08
2.53051e-07
2.49063e-07
-1.34121e-06
-3.06767e-06
-3.06021e-08
-2.4987e-08
-2.5915e-08
-2.96089e-08
3.99468e-07
3.3206e-09
-6.00145e-10
-7.92441e-10
-7.65666e-10
-3.22116e-09
-8.29828e-08
1.30557e-08
-2.19667e-07
-1.93514e-07
2.1524e-07
-3.83525e-06
4.98285e-07
-6.76996e-10
-5.35959e-10
-6.88613e-10
-7.77981e-08
3.12378e-09
1.14354e-08
-3.75183e-06
4.73353e-07
7.12756e-08
-1.10726e-08
-6.72023e-09
-6.35374e-09
1.01224e-07
9.83149e-08
2.57114e-07
2.63123e-07
-1.38904e-06
-4.74835e-08
-9.77575e-07
5.76595e-08
1.198e-07
6.33115e-08
4.69561e-08
-6.28058e-09
-4.80637e-09
-9.10955e-09
-1.1114e-08
1.33582e-07
8.67985e-10
2.28642e-10
9.06298e-10
1.41448e-09
4.99065e-10
-9.44882e-09
8.44129e-07
1.00296e-07
-1.43612e-06
1.95415e-07
8.17383e-08
2.88752e-08
7.06766e-08
2.34522e-08
8.27988e-08
1.9836e-08
-4.46162e-07
1.07267e-07
3.61716e-08
3.98362e-08
-3.71795e-09
-4.15289e-09
-8.18774e-09
-7.47716e-09
1.11392e-07
1.07882e-07
-1.56664e-06
2.2246e-07
8.74842e-10
2.58586e-09
5.0565e-10
1.77412e-09
2.43726e-09
-5.81998e-10
-1.45624e-08
-7.41862e-08
2.47874e-07
8.82117e-08
-1.53683e-08
-1.25579e-08
-9.5089e-09
1.60651e-07
1.29432e-07
3.09472e-07
3.54358e-07
-1.68457e-06
-8.22756e-10
-6.78792e-10
-8.6639e-10
-8.68206e-08
3.49362e-09
1.39982e-08
-2.12122e-07
2.1491e-07
5.29811e-07
-3.95229e-06
-3.52214e-06
1.5208e-07
-4.11394e-08
-4.2501e-08
-3.60821e-08
-4.79056e-08
5.10873e-07
-1.36325e-08
-7.23519e-09
-8.09856e-09
1.05827e-07
1.14126e-07
2.86175e-07
2.71425e-07
-1.47414e-06
5.96252e-09
-2.04475e-09
-1.32867e-09
-1.56051e-09
-1.32337e-07
-4.54822e-09
2.14724e-08
2.27057e-07
5.80831e-07
-4.21535e-06
-1.90629e-07
2.48039e-08
1.33249e-07
-1.2873e-08
1.11752e-08
-9.76259e-12
-3.65762e-12
-1.34635e-11
8.85898e-10
-3.77385e-09
2.85597e-10
8.29576e-08
-3.65971e-07
-4.01219e-09
-1.52517e-09
-5.14664e-09
-1.21558e-09
2.41659e-08
-1.07485e-06
1.84776e-07
-5.68305e-09
-7.15578e-09
-3.963e-09
-9.87294e-09
5.73822e-08
1.29673e-08
-7.85417e-08
-5.80586e-09
4.33647e-09
-6.59351e-10
-2.98174e-10
-3.41363e-10
-1.30783e-06
2.13355e-07
-7.22365e-09
-1.56983e-08
-9.35625e-09
-1.20993e-08
7.98369e-08
-1.19031e-08
2.20294e-09
7.22202e-09
9.59503e-10
-1.79866e-10
-4.05638e-11
-1.278e-10
9.41432e-14
1.05231e-12
-8.12502e-14
-2.66518e-12
-2.16223e-10
3.01402e-10
-2.96911e-09
-1.38975e-10
1.26866e-09
1.95019e-10
1.22209e-11
-1.81626e-10
-1.14689e-11
2.53272e-11
6.45942e-11
-9.14624e-14
1.0156e-12
7.94418e-14
-2.58491e-12
2.17194e-10
3.13542e-10
-3.07291e-09
1.31663e-09
-1.95328e-10
-1.44719e-10
1.13587e-13
-3.17496e-12
-1.01417e-13
1.58397e-12
-4.17085e-10
-7.43864e-09
8.51414e-10
4.91312e-09
-3.38211e-10
3.82526e-10
1.42696e-10
4.82846e-10
-1.27438e-10
-1.76498e-10
-3.24487e-09
-1.10508e-13