/*--------------------------------*- C++ -*----------------------------------*\
| =========                 |                                                 |
| \\      /  F ield         | OpenFOAM: The Open Source CFD Toolbox           |
|  \\    /   O peration     | Version:  2012                                  |
|   \\  /    A nd           | Website:  www.openfoam.com                      |
|    \\/     M anipulation  |                                                 |
\*---------------------------------------------------------------------------*/
FoamFile
{
    version     2.0;
    format      ascii;
    class       pointVectorField;
    location    "0.104/fluid";
    object      pointMotionU;
}
// * * * * * * * * * * * * * * * * * * * * * * * * * * * * * * * * * * * * * //

dimensions      [0 1 -1 0 0 0 0];


internalField   nonuniform List<vector> 
20459
(
(0 0 0)
(0 0 0)
(0 0 0)
(0 0 0)
(0 0 0)
(0 0 0)
(0 0 0)
(0 0 0)
(0 0 0)
(0 0 0)
(0 0 0)
(0 0 0)
(0 0 0)
(0 0 0)
(0 0 0)
(-1.92914e-06 3.02985e-06 -8.56963e-08)
(3.95644e-06 1.70703e-05 7.45731e-06)
(3.01957e-05 4.69506e-05 1.47958e-05)
(8.3234e-05 8.35964e-05 7.0372e-06)
(0.000137001 0.000125075 -6.36357e-06)
(0.00017528 0.000162651 -1.4491e-05)
(0.000197677 0.00019186 -1.6401e-05)
(0.000209304 0.000205217 -1.42822e-05)
(0.000216573 0.000201884 -1.14387e-05)
(0.000220524 0.000186211 -9.3448e-06)
(0.00021862 0.000161731 -8.1904e-06)
(0.000208536 0.00013273 -7.54817e-06)
(0.000186241 0.000102043 -6.80584e-06)
(0.000146534 7.08994e-05 -5.42777e-06)
(8.39766e-05 3.55192e-05 -3.09118e-06)
(0 0 0)
(8.69153e-06 1.80712e-05 -1.78796e-06)
(4.35767e-05 5.59169e-05 1.97042e-05)
(0.000125626 8.52845e-05 2.31523e-05)
(0.000237421 0.000139933 -1.50755e-06)
(0.00032336 0.00022043 -2.39163e-05)
(0.000377921 0.00029551 -3.34497e-05)
(0.000407699 0.000349458 -3.2539e-05)
(0.000424167 0.000376111 -2.6847e-05)
(0.000434524 0.00037304 -2.1204e-05)
(0.000440586 0.000344714 -1.75562e-05)
(0.000436873 0.000301096 -1.57858e-05)
(0.000415679 0.000248267 -1.48001e-05)
(0.000370921 0.000190425 -1.34619e-05)
(0.000291802 0.000130439 -1.07824e-05)
(0.00016718 6.5121e-05 -6.16578e-06)
(0 0 0)
(8.458e-05 -5.17166e-06 -1.04278e-06)
(8.43556e-05 4.08293e-05 4.21407e-06)
(0.000197462 7.1314e-05 2.14132e-05)
(0.000368849 0.000146421 -9.36879e-06)
(0.000483678 0.000257254 -3.66648e-05)
(0.000550018 0.000357772 -4.5752e-05)
(0.00058814 0.000426641 -4.22528e-05)
(0.000611963 0.000461533 -3.43826e-05)
(0.000628367 0.000460324 -2.75898e-05)
(0.000639018 0.000428451 -2.36547e-05)
(0.000635349 0.000377184 -2.19279e-05)
(0.000606667 0.000312334 -2.10417e-05)
(0.000542582 0.000239487 -1.94089e-05)
(0.000428006 0.000163364 -1.56514e-05)
(0.00024481 8.00582e-05 -8.91072e-06)
(0 0 0)
(0 0 0)
(0 0 0)
(0 0 0)
(0 0 0)
(0 0 0)
(0 0 0)
(0 0 0)
(0 0 0)
(0 0 0)
(0 0 0)
(0 0 0)
(0 0 0)
(0 0 0)
(0 0 0)
(0 0 0)
(1.58228e-06 3.80169e-06 3.34336e-07)
(1.61084e-05 1.6419e-05 6.27586e-06)
(6.56534e-05 4.3468e-05 1.17138e-05)
(0.000145151 7.50737e-05 5.12675e-06)
(0.000221284 0.000109711 -7.26808e-06)
(0.000270199 0.000143226 -1.53334e-05)
(0.000293321 0.000171907 -1.71998e-05)
(0.000300942 0.000190465 -1.52669e-05)
(0.000300797 0.000194484 -1.24093e-05)
(0.000295124 0.000184119 -1.01284e-05)
(0.000283559 0.000162573 -8.77193e-06)
(0.000263206 0.000133883 -7.94065e-06)
(0.0002297 0.000103933 -7.05257e-06)
(0.000178075 7.25553e-05 -5.61125e-06)
(9.97947e-05 3.51409e-05 -3.14924e-06)
(0 0 0)
(8.40378e-06 2.55469e-05 4.85837e-07)
(7.52232e-05 5.40763e-05 2.03003e-05)
(0.000209855 7.92612e-05 2.06646e-05)
(0.000371281 0.00012277 -1.86239e-06)
(0.000491636 0.000187218 -2.23107e-05)
(0.000562232 0.000255199 -3.26457e-05)
(0.000594004 0.000311412 -3.29045e-05)
(0.000602476 0.000346717 -2.80949e-05)
(0.000599025 0.000354483 -2.26784e-05)
(0.000586765 0.00033577 -1.8804e-05)
(0.000564005 0.000297727 -1.66692e-05)
(0.000524699 0.000247436 -1.54147e-05)
(0.00045822 0.000191933 -1.38582e-05)
(0.000353416 0.000130874 -1.10159e-05)
(0.000198394 6.34216e-05 -6.2333e-06)
(0 0 0)
(5.18695e-05 3.29657e-05 4.60536e-07)
(0.000112173 6.14057e-05 1.90767e-05)
(0.000318273 7.39052e-05 2.18232e-05)
(0.000564024 0.000124777 -9.43121e-06)
(0.000724492 0.000212941 -3.42391e-05)
(0.000810526 0.000303588 -4.34906e-05)
(0.000852747 0.00037601 -4.18538e-05)
(0.000864602 0.000421144 -3.52986e-05)
(0.000861127 0.00043176 -2.89572e-05)
(0.000845472 0.000411307 -2.48771e-05)
(0.000815296 0.000368141 -2.28101e-05)
(0.000759555 0.000307261 -2.16263e-05)
(0.000663558 0.0002374 -1.97217e-05)
(0.000510871 0.000160424 -1.57403e-05)
(0.000285277 7.7109e-05 -8.88082e-06)
(0 0 0)
(0 0 0)
(0 0 0)
(0 0 0)
(0 0 0)
(0 0 0)
(0 0 0)
(0 0 0)
(0 0 0)
(0 0 0)
(0 0 0)
(0 0 0)
(0 0 0)
(0 0 0)
(0 0 0)
(0 0 0)
(0 0 0)
(1.68114e-05 1.272e-05 1.49719e-06)
(4.04171e-05 2.20947e-05 4.75995e-06)
(9.9385e-05 4.55549e-05 6.99498e-06)
(0.000185196 7.33557e-05 1.84557e-06)
(0.000267604 0.000103092 -6.84424e-06)
(0.00032489 0.000133474 -1.27569e-05)
(0.000355089 0.000161564 -1.42988e-05)
(0.000365152 0.000182616 -1.29399e-05)
(0.000363028 0.000191016 -1.06943e-05)
(0.000353082 0.000184326 -8.79501e-06)
(0.000334904 0.000164235 -7.54672e-06)
(0.000306436 0.000136596 -6.71698e-06)
(0.000264389 0.000106705 -5.87493e-06)
(0.000202611 7.30351e-05 -4.6222e-06)
(0.000112356 3.40511e-05 -2.58285e-06)
(0 0 0)
(6.62398e-05 3.86644e-05 4.41657e-06)
(0.000140668 5.24507e-05 1.33094e-05)
(0.000279389 8.10455e-05 1.14403e-05)
(0.000442993 0.000122634 -3.26289e-06)
(0.000581577 0.000177934 -1.84118e-05)
(0.000672235 0.000237914 -2.64068e-05)
(0.00071802 0.000292119 -2.71338e-05)
(0.000730233 0.000330371 -2.37401e-05)
(0.00072223 0.000343917 -1.95317e-05)
(0.000700593 0.000330804 -1.6266e-05)
(0.000664769 0.000296428 -1.42493e-05)
(0.000610043 0.000249423 -1.29535e-05)
(0.000527194 0.000195612 -1.14997e-05)
(0.000404184 0.000132883 -9.13116e-06)
(0.000224068 6.15711e-05 -5.11406e-06)
(0 0 0)
(0.000115672 4.98549e-05 6.40118e-06)
(0.000235902 6.19116e-05 1.93277e-05)
(0.000454381 8.65458e-05 1.33373e-05)
(0.000689556 0.000135007 -9.27872e-06)
(0.000866902 0.000206805 -2.75183e-05)
(0.000979274 0.000285153 -3.52519e-05)
(0.00103687 0.000354485 -3.46887e-05)
(0.00105254 0.000401538 -3.00474e-05)
(0.00104184 0.000416826 -2.50481e-05)
(0.00101186 0.000402211 -2.14592e-05)
(0.000963655 0.000364691 -1.94573e-05)
(0.000885963 0.000307285 -1.81023e-05)
(0.000764735 0.000239543 -1.62606e-05)
(0.000582151 0.000160726 -1.29168e-05)
(0.000320984 7.41097e-05 -7.21254e-06)
(0 0 0)
(0 0 0)
(0 0 0)
(0 0 0)
(0 0 0)
(0 0 0)
(0 0 0)
(0 0 0)
(0 0 0)
(0 0 0)
(0 0 0)
(0 0 0)
(0 0 0)
(0 0 0)
(0 0 0)
(0 0 0)
(0 0 0)
(5.40226e-05 3.31318e-05 2.35221e-06)
(8.2167e-05 3.80061e-05 3.07629e-06)
(0.000135783 5.49631e-05 3.05978e-06)
(0.00021082 7.76514e-05 -9.12549e-08)
(0.000287226 0.000104105 -4.42759e-06)
(0.000348119 0.000132887 -7.51623e-06)
(0.000383663 0.000160222 -8.31914e-06)
(0.000397195 0.000181913 -7.54934e-06)
(0.000396103 0.000191466 -6.28307e-06)
(0.000385121 0.000185022 -5.17718e-06)
(0.000364193 0.000165421 -4.39858e-06)
(0.000331475 0.000138609 -3.82664e-06)
(0.000283445 0.000107247 -3.30039e-06)
(0.000216303 7.23083e-05 -2.60304e-06)
(0.000119349 3.28383e-05 -1.437e-06)
(0 0 0)
(0.000156203 6.6334e-05 5.02667e-06)
(0.000225172 7.14297e-05 5.8049e-06)
(0.000337901 9.6628e-05 3.76922e-06)
(0.000479602 0.000135358 -3.42128e-06)
(0.000615191 0.000183907 -1.10712e-05)
(0.000715839 0.000236941 -1.53506e-05)
(0.000772911 0.000287254 -1.57371e-05)
(0.000792872 0.00032555 -1.38818e-05)
(0.000787516 0.00034089 -1.15306e-05)
(0.000763652 0.000328563 -9.57805e-06)
(0.000722027 0.00029544 -8.25385e-06)
(0.000658841 0.000250711 -7.38492e-06)
(0.000565683 0.000196674 -6.51216e-06)
(0.000430526 0.000130966 -5.09439e-06)
(0.000237249 5.9217e-05 -2.81535e-06)
(0 0 0)
(0.000288472 8.38908e-05 7.5225e-06)
(0.000397757 8.44696e-05 8.31427e-06)
(0.00056607 0.000111897 3.83494e-06)
(0.000756351 0.000158709 -6.74975e-06)
(0.000927799 0.000219741 -1.62586e-05)
(0.00105437 0.000287478 -2.06892e-05)
(0.00112611 0.000351022 -2.04003e-05)
(0.0011499 0.000396746 -1.78123e-05)
(0.00114018 0.000412692 -1.4925e-05)
(0.00110675 0.000398502 -1.26964e-05)
(0.00104988 0.000360955 -1.12889e-05)
(0.000960772 0.000306309 -1.03437e-05)
(0.000823796 0.000239192 -9.17385e-06)
(0.00062232 0.000158634 -7.18698e-06)
(0.000340851 7.23652e-05 -3.95201e-06)
(0 0 0)
(0 0 0)
(0 0 0)
(0 0 0)
(0 0 0)
(0 0 0)
(0 0 0)
(0 0 0)
(0 0 0)
(0 0 0)
(0 0 0)
(0 0 0)
(0 0 0)
(0 0 0)
(0 0 0)
(0 0 0)
(0 0 0)
(7.69987e-05 4.4744e-05 0)
(0.000106501 4.70798e-05 0)
(0.000154499 5.94887e-05 0)
(0.000220078 7.83595e-05 0)
(0.000291949 0.000103561 0)
(0.000352566 0.000132077 0)
(0.000388968 0.000158658 0)
(0.000404126 0.000180069 0)
(0.00040418 0.000189583 0)
(0.000393344 0.00018312 0)
(0.000371769 0.00016391 0)
(0.000337834 0.000137533 0)
(0.000289004 0.000106777 0)
(0.000220427 7.21e-05 0)
(0.000121615 3.28406e-05 0)
(0 0 0)
(0.000199953 8.1777e-05 0)
(0.000265677 8.41174e-05 0)
(0.000364052 0.000105698 0)
(0.000490232 0.000141135 0)
(0.000619826 0.000186813 0)
(0.000721021 0.000236205 0)
(0.000781995 0.000284055 0)
(0.000806041 0.00032139 0)
(0.00080326 0.000336863 0)
(0.000779927 0.000324836 0)
(0.000736983 0.000292221 0)
(0.000671099 0.000248227 0)
(0.000575321 0.000194702 0)
(0.000437419 0.000129885 0)
(0.00023991 5.85438e-05 0)
(0 0 0)
(0.00036291 0.0001017 0)
(0.000463595 0.000100422 0)
(0.000605031 0.000125845 0)
(0.000772656 0.000169868 0)
(0.000937183 0.000226113 0)
(0.00106679 0.00028862 0)
(0.00114427 0.000348581 0)
(0.0011729 0.000392617 0)
(0.0011661 0.000408585 0)
(0.00113236 0.000394161 0)
(0.00107236 0.000355909 0)
(0.000978795 0.000301767 0)
(0.000837055 0.000235571 0)
(0.000631271 0.000157009 0)
(0.000346298 7.25614e-05 0)
(0 0 0)
(2.56539e-07 1.1076e-06 4.56163e-07)
(2.39063e-06 2.16129e-06 5.58563e-07)
(0 0 0)
(-2.32678e-08 4.60811e-08 -3.28957e-09)
(4.96956e-07 5.60591e-06 2.5505e-06)
(0 0 0)
(4.06531e-07 7.35315e-06 2.61441e-06)
(-7.40135e-07 3.12857e-06 8.16372e-08)
(9.46639e-06 1.64825e-05 6.92311e-06)
(8.07924e-05 1.77826e-05 -8.07927e-06)
(7.89176e-05 1.86828e-05 -8.53823e-08)
(9.27727e-05 2.44489e-05 -4.87197e-06)
(9.55053e-05 5.29695e-05 1.04946e-05)
(0 0 0)
(7.80457e-08 7.46862e-08 9.61796e-09)
(0 0 0)
(4.6689e-06 5.65872e-06 2.12914e-06)
(0 0 0)
(6.0704e-06 7.53805e-06 2.45965e-06)
(6.32399e-06 6.41783e-06 7.63166e-07)
(2.57197e-05 1.74752e-05 5.28808e-06)
(7.16147e-05 5.09344e-05 7.37089e-06)
(7.43507e-05 3.09699e-05 1.79521e-08)
(0.000117857 5.55473e-05 1.6444e-05)
(0 0 0)
(5.15493e-06 4.44159e-06 5.18025e-07)
(1.52017e-05 9.37983e-06 1.93358e-06)
(2.48887e-05 1.51658e-05 2.80438e-06)
(-8.86425e-08 1.10866e-06 4.72911e-07)
(8.36464e-09 4.67407e-08 -1.38621e-10)
(2.37604e-06 5.51121e-06 2.35701e-06)
(2.59966e-06 7.18828e-06 2.52898e-06)
(8.48209e-07 1.22243e-06 4.30116e-07)
(7.66486e-05 4.08537e-05 -1.61593e-06)
(0.000100094 4.33784e-05 3.39532e-06)
(8.25706e-05 4.68465e-05 3.39571e-06)
(5.64404e-07 6.73664e-07 9.44181e-08)
(8.3106e-06 6.45177e-06 1.88123e-06)
(1.24401e-05 9.54473e-06 2.44661e-06)
(8.25602e-06 5.64497e-06 1.00105e-06)
(0 0 0)
(0 0 0)
(1.37849e-08 6.08966e-09 1.55641e-10)
(5.446e-05 4.43575e-05 7.26762e-06)
(0.000100224 4.68222e-06 -1.01177e-05)
(0.000166266 5.11692e-05 2.17302e-05)
(9.23177e-09 5.87749e-09 3.83384e-09)
(0.000108467 4.85987e-05 1.28224e-05)
(1.41574e-08 6.33025e-09 7.60826e-11)
(8.18289e-05 -7.40485e-06 -1.1046e-05)
(7.74531e-05 1.4834e-05 -1.26426e-05)
(1.2601e-08 6.02607e-09 7.45653e-10)
(9.00634e-05 2.94738e-05 -9.08623e-06)
(8.25985e-05 3.88303e-05 -3.11238e-06)
(8.13084e-05 5.2568e-05 5.61383e-06)
(2.59972e-05 3.64529e-05 8.62373e-06)
(4.41427e-05 1.26119e-05 -1.70275e-06)
(6.94105e-06 2.15937e-05 -9.83003e-07)
(6.98332e-05 5.59397e-05 1.50804e-05)
(5.82283e-05 5.54076e-05 2.03151e-05)
(7.60743e-05 -7.73678e-06 -1.7164e-06)
(8.39626e-05 5.44276e-06 -6.24742e-06)
(9.14022e-05 -1.02544e-05 -1.70869e-06)
(8.62756e-05 3.56253e-06 -6.01254e-07)
(0.000121677 5.42165e-05 1.92752e-05)
(7.53566e-05 3.61793e-05 2.34224e-06)
(8.00289e-05 2.99629e-05 -4.13775e-06)
(8.88642e-05 3.10993e-05 -1.73276e-06)
(9.11521e-05 4.65162e-05 6.82026e-06)
(0.000214135 6.55197e-05 2.34403e-05)
(0.000255249 7.08494e-05 2.2121e-05)
(3.5597e-05 3.90485e-05 1.05254e-05)
(2.58915e-05 3.19818e-05 2.06966e-07)
(0.000103263 6.31037e-05 2.17637e-05)
(5.75685e-05 3.88638e-05 2.96414e-06)
(6.41562e-05 2.87527e-05 1.7754e-08)
(6.10071e-05 4.26382e-05 3.33367e-06)
(6.58192e-05 3.23446e-05 4.72438e-07)
(0.000197356 6.54419e-05 2.54353e-05)
(0.000161058 6.01087e-05 2.12674e-05)
(0.0001008 5.86456e-05 1.51608e-05)
(8.65274e-05 5.7286e-05 1.31032e-05)
(0.00011379 5.84611e-05 1.73307e-05)
(0.000344054 6.96022e-05 2.36805e-05)
(0.000163314 5.44725e-05 1.38035e-05)
(0.000133099 4.98502e-05 7.55973e-06)
(0.000263043 6.08957e-05 2.09322e-05)
(-2.21535e-07 1.12702e-06 4.8177e-07)
(7.04002e-08 1.09812e-06 4.63254e-07)
(5.02575e-08 2.59561e-07 9.14687e-08)
(5.14106e-07 1.13631e-06 4.39741e-07)
(2.87514e-08 2.17043e-07 9.44243e-08)
(9.04672e-05 3.41222e-05 -9.80871e-06)
(8.85882e-05 4.11412e-05 -7.25519e-06)
(8.56043e-05 4.32454e-05 -5.29596e-06)
(1.34884e-06 1.46094e-06 4.49113e-07)
(1.02262e-06 1.07437e-06 2.29049e-07)
(5.64944e-07 6.02191e-07 1.58378e-07)
(-3.60967e-08 2.13126e-07 9.93302e-08)
(0 0 0)
(0 0 0)
(-2.7894e-08 4.94025e-08 -5.65282e-09)
(-4.69211e-08 2.63209e-07 9.3833e-08)
(-1.40739e-08 4.79689e-08 -1.67724e-09)
(7.41518e-05 1.18889e-05 -9.15429e-06)
(9.04048e-05 1.82519e-06 -1.65856e-05)
(8.23435e-05 2.70226e-05 -5.87143e-06)
(7.83732e-05 3.01467e-05 -2.66591e-06)
(0.000101126 1.72749e-05 -3.81636e-07)
(8.29003e-05 1.9402e-05 -6.21115e-06)
(9.14495e-05 1.09541e-05 -1.73769e-05)
(9.90499e-05 3.29736e-05 -2.20467e-06)
(8.24229e-05 4.74206e-05 3.1139e-06)
(9.69005e-05 4.79125e-05 6.08307e-06)
(1.29354e-07 2.47645e-07 9.08707e-08)
(0 0 0)
(0 0 0)
(3.50059e-08 5.84846e-08 4.05527e-09)
(2.28067e-07 3.17846e-07 9.75936e-08)
(1.47409e-07 1.55537e-07 2.37136e-08)
(3.81398e-08 5.37541e-08 1.08733e-08)
(0 0 0)
(7.31042e-05 4.82246e-05 2.87864e-06)
(7.73302e-05 4.98148e-05 5.0347e-06)
(9.72732e-05 2.53051e-05 -1.60494e-06)
(7.84309e-05 3.90285e-05 1.03185e-07)
(0.000103804 5.13354e-05 1.06364e-05)
(9.24936e-05 5.23506e-05 9.7411e-06)
(5.63232e-05 3.43313e-05 3.97291e-06)
(7.659e-05 6.66028e-07 -6.91761e-06)
(7.28218e-05 2.46568e-05 -5.51535e-06)
(0.000131452 4.32962e-05 1.72183e-05)
(7.95453e-05 2.61341e-05 -3.39405e-06)
(1.39477e-08 6.26543e-09 1.01515e-10)
(-3.94075e-09 2.11284e-07 9.58853e-08)
(-5.12609e-09 2.57721e-07 9.2143e-08)
(1.32642e-08 6.06047e-09 3.834e-10)
(2.92773e-05 3.80028e-05 9.45059e-06)
(3.70129e-05 2.32483e-05 -1.11543e-06)
(8.51789e-05 6.01151e-05 1.82864e-05)
(8.53833e-05 1.49842e-05 -4.95666e-06)
(5.71887e-05 4.88685e-05 1.07327e-05)
(8.34376e-05 3.78758e-05 -1.43154e-06)
(6.84804e-05 3.95635e-05 2.7038e-07)
(8.13818e-05 5.45773e-05 8.60089e-06)
(0.000155178 5.98157e-05 2.20092e-05)
(9.2501e-05 -3.52356e-06 -1.07782e-05)
(0.000100704 -4.10251e-06 -1.22346e-06)
(9.68965e-05 1.08679e-05 -1.51943e-05)
(9.66507e-05 2.68515e-05 -7.78721e-06)
(0.000275303 6.52636e-05 2.38144e-05)
(0.000210954 5.99219e-05 2.53198e-05)
(9.49108e-05 3.87585e-05 1.15788e-06)
(0.00010105 5.50398e-05 1.22701e-05)
(1.13797e-08 6.24686e-09 1.81822e-09)
(2.3086e-07 2.97916e-07 9.56629e-08)
(4.02933e-07 4.54273e-07 1.2053e-07)
(9.6031e-08 1.21752e-07 2.98411e-08)
(9.80158e-05 5.05034e-05 1.24398e-05)
(7.108e-05 3.75601e-05 3.51999e-06)
(0.000175608 5.74574e-05 2.16011e-05)
(0.000184456 5.41197e-05 1.51053e-05)
(7.14518e-05 4.16307e-05 1.56803e-06)
(8.86616e-05 5.53073e-05 1.09784e-05)
(-6.72924e-08 2.24652e-07 1.06014e-07)
(-7.75031e-08 2.77092e-07 9.69057e-08)
(8.02235e-05 -1.09784e-05 -2.28289e-06)
(8.05225e-05 -2.55367e-06 -1.68892e-05)
(8.13402e-05 5.85847e-06 -1.75948e-05)
(8.63871e-05 1.90389e-05 -1.19064e-05)
(7.3997e-08 2.24347e-07 9.07423e-08)
(1.23954e-07 2.76716e-07 9.26167e-08)
(8.47843e-05 2.92882e-05 -2.59402e-08)
(9.79756e-05 2.13254e-05 -1.5605e-05)
(8.47882e-05 4.4165e-05 -2.48767e-06)
(7.92787e-05 4.75672e-05 -1.27284e-06)
(9.57544e-05 3.133e-05 -7.08771e-06)
(8.3998e-05 4.8994e-05 2.91309e-06)
(8.02909e-06 1.30255e-05 5.10074e-06)
(9.91619e-06 2.05051e-05 6.23908e-06)
(1.89101e-05 1.32474e-05 3.61409e-06)
(3.14693e-05 2.26051e-05 5.85968e-06)
(1.797e-05 1.10173e-05 1.33836e-06)
(-1.96401e-07 9.87737e-07 4.7009e-07)
(-5.12651e-07 1.65504e-06 4.5089e-07)
(6.94792e-08 9.86366e-07 4.53664e-07)
(-1.2155e-07 1.59972e-06 4.56914e-07)
(4.35566e-07 1.01477e-06 4.193e-07)
(6.6313e-07 1.68017e-06 4.75253e-07)
(1.03862e-06 1.18095e-06 3.92669e-07)
(2.18767e-06 2.38263e-06 5.67804e-07)
(9.92693e-07 9.22337e-07 1.65111e-07)
(1.08048e-08 3.06016e-09 1.13977e-09)
(9.08639e-09 1.25269e-08 1.82585e-09)
(1.03742e-08 1.20498e-08 1.79174e-09)
(1.08987e-08 3.07958e-09 1.2039e-09)
(0.000108375 -2.07496e-06 -1.6651e-05)
(9.89631e-05 -1.40161e-06 -6.68922e-06)
(9.91017e-05 -9.49211e-06 -1.71678e-05)
(0.000109407 4.68195e-06 -6.44202e-06)
(1.02335e-08 4.42388e-09 2.63924e-09)
(1.46543e-08 1.71981e-08 5.07788e-09)
(2.75129e-08 4.73001e-08 1.33366e-08)
(1.13178e-08 9.1063e-09 6.11684e-09)
(1.06456e-08 3.13418e-09 1.18898e-09)
(8.56876e-09 1.2976e-08 1.78583e-09)
(8.75145e-05 -5.41187e-06 -6.90022e-06)
(8.79792e-05 -1.24884e-05 -1.71915e-05)
(8.60043e-05 3.91489e-06 -1.97533e-05)
(1.0558e-08 3.84306e-09 1.75361e-09)
(1.3014e-08 1.38815e-08 3.02502e-09)
(1.14163e-08 1.28472e-08 2.15937e-09)
(1.08355e-08 3.29662e-09 1.33052e-09)
(9.53199e-05 2.80972e-05 -1.53562e-05)
(9.5764e-05 9.28741e-06 -1.94679e-05)
(9.59455e-05 3.72396e-05 -1.04841e-05)
(0.000101757 2.69478e-05 -4.92543e-06)
(7.83964e-05 4.81929e-05 -3.645e-06)
(0 0 0)
(0 0 0)
(0 0 0)
(6.92594e-08 2.37741e-06 1.10346e-06)
(0 0 0)
(1.04151e-05 2.23125e-05 7.30946e-06)
(0 0 0)
(-4.07471e-06 1.0831e-05 -7.12873e-07)
(-2.16252e-06 3.07237e-06 -1.21702e-07)
(-5.91223e-07 8.37471e-07 -2.3585e-08)
(-7.41737e-07 4.61535e-06 1.09227e-06)
(-1.4717e-06 3.0246e-06 -1.90829e-08)
(1.33225e-05 3.06916e-05 1.23723e-05)
(1.71709e-05 3.54473e-05 1.41025e-05)
(4.87623e-05 4.47695e-05 1.3453e-05)
(0 0 0)
(0 0 0)
(0 0 0)
(1.84197e-06 2.44739e-06 9.23842e-07)
(0 0 0)
(2.68697e-05 2.11081e-05 5.73476e-06)
(0 0 0)
(4.11748e-06 1.31723e-05 7.41246e-07)
(2.49436e-07 3.34439e-06 1.97626e-07)
(6.15911e-07 1.13618e-06 1.12725e-07)
(3.36372e-06 5.07786e-06 1.24022e-06)
(3.47804e-06 4.75076e-06 5.17336e-07)
(3.56722e-05 2.87662e-05 9.99941e-06)
(3.99009e-05 3.30683e-05 1.24582e-05)
(8.20704e-05 4.28854e-05 9.15395e-06)
(2.91797e-05 3.03064e-05 2.55632e-06)
(0.000103235 5.07593e-05 1.69976e-05)
(0 0 0)
(0 0 0)
(0 0 0)
(2.16085e-06 1.96421e-06 2.29642e-07)
(0 0 0)
(0 0 0)
(4.34242e-05 2.26208e-05 3.54514e-06)
(3.76923e-05 2.49738e-05 2.86936e-06)
(3.40481e-05 2.2282e-05 2.18377e-06)
(6.5151e-05 3.24717e-05 6.4989e-06)
(8.1809e-05 3.72606e-05 8.50757e-06)
(6.06748e-05 2.95264e-05 4.05271e-06)
(9.48794e-05 4.29592e-05 9.04563e-06)
(0 0 0)
(2.37749e-05 1.63651e-05 1.151e-06)
(3.67029e-05 1.88314e-05 1.53956e-06)
(6.51159e-05 3.36397e-05 2.62877e-06)
(9.97089e-07 2.87039e-06 1.2289e-06)
(1.06514e-06 3.32852e-06 1.26588e-06)
(9.81447e-05 2.85871e-05 -1.53581e-05)
(4.86945e-06 3.96194e-06 1.12149e-06)
(6.33398e-06 5.11058e-06 1.31493e-06)
(4.65446e-06 3.63388e-06 7.78024e-07)
(0 0 0)
(-1.04143e-08 6.10639e-08 2.94122e-08)
(0 0 0)
(0 0 0)
(8.57859e-09 7.77829e-09 -1.70031e-11)
(-2.7132e-08 4.89266e-08 -4.1614e-09)
(-1.95816e-08 9.6e-08 2.17174e-08)
(-2.11883e-08 4.90342e-08 -2.3775e-09)
(-2.17452e-07 5.57472e-06 2.54432e-06)
(6.14659e-08 2.89954e-06 1.30983e-06)
(1.37675e-06 5.5644e-06 2.47505e-06)
(8.63697e-07 2.35537e-06 1.02036e-06)
(0 0 0)
(-3.03535e-07 7.38614e-06 2.58909e-06)
(-7.16228e-09 3.38304e-06 1.31785e-06)
(1.3648e-06 7.23788e-06 2.57656e-06)
(-1.93797e-07 8.5941e-07 2.53433e-08)
(7.10771e-07 4.56914e-06 1.13196e-06)
(9.24284e-05 -3.1225e-06 -1.64032e-06)
(0 0 0)
(3.36273e-08 7.44446e-08 2.78635e-08)
(0 0 0)
(0 0 0)
(6.23792e-09 1.19896e-08 2.31861e-09)
(5.39465e-08 6.51933e-08 6.48052e-09)
(1.17864e-07 1.29638e-07 3.16945e-08)
(1.04206e-07 1.03111e-07 1.52222e-08)
(1.48534e-08 1.82067e-08 6.01382e-09)
(0 0 0)
(3.44144e-06 5.5437e-06 2.24959e-06)
(2.31318e-06 3.02414e-06 1.12949e-06)
(6.2332e-06 5.88116e-06 1.97712e-06)
(3.4814e-06 2.85728e-06 8.30929e-07)
(0 0 0)
(4.11566e-06 7.26302e-06 2.49734e-06)
(2.78959e-06 3.58425e-06 1.21917e-06)
(8.73317e-06 8.20112e-06 2.41635e-06)
(2.63936e-06 2.83401e-06 3.60808e-07)
(8.68699e-06 7.41494e-06 1.49169e-06)
(3.55337e-06 2.53442e-06 4.4616e-07)
(0 0 0)
(2.19468e-06 2.21976e-06 2.80522e-07)
(6.32214e-06 4.76257e-06 7.18745e-07)
(9.35431e-05 -5.36458e-06 -2.12314e-05)
(2.63743e-08 9.43476e-08 2.29129e-08)
(-4.78511e-09 4.82845e-08 -9.11211e-10)
(8.7216e-09 7.80717e-09 2.37926e-10)
(1.88945e-08 5.48844e-08 2.07273e-09)
(0.000112977 1.52062e-05 -7.85575e-07)
(6.21266e-07 7.01114e-07 1.27579e-07)
(2.41998e-07 2.84444e-07 4.21115e-08)
(1.37432e-07 1.98164e-07 2.95989e-08)
(7.87585e-09 6.26873e-08 2.77424e-08)
(0 0 0)
(0 0 0)
(0 0 0)
(1.83803e-07 2.12893e-07 5.6786e-08)
(0 0 0)
(0 0 0)
(1.38365e-08 6.1925e-09 1.02953e-10)
(8.52512e-09 4.00437e-08 1.66145e-08)
(7.35512e-09 5.00159e-08 1.75919e-08)
(1.35879e-08 5.99996e-09 2.77898e-10)
(9.71105e-05 -4.3366e-07 -1.05328e-05)
(0.000101288 3.5265e-06 -5.67232e-06)
(9.89334e-05 4.64817e-06 -1.37656e-05)
(0.000104763 -1.99386e-06 -1.20209e-05)
(0.000100877 1.26088e-05 -9.36354e-06)
(1.03964e-08 6.29931e-09 2.81226e-09)
(5.03933e-08 6.2031e-08 2.07167e-08)
(7.19682e-08 8.84448e-08 2.59413e-08)
(8.44953e-09 4.69186e-09 5.6847e-09)
(1.40617e-08 6.31363e-09 8.58583e-11)
(-6.27033e-09 4.88358e-08 2.13302e-08)
(-8.24671e-09 5.92461e-08 2.11757e-08)
(8.72753e-05 -5.87882e-06 -1.09154e-05)
(8.16583e-05 -6.5438e-06 -6.43804e-06)
(8.14058e-05 -7.84213e-06 -1.50036e-05)
(8.22265e-05 -1.01732e-05 -1.22686e-05)
(7.90104e-05 6.22552e-06 -1.67855e-05)
(7.9602e-05 8.89386e-06 -1.66446e-05)
(8.24505e-05 1.55647e-05 -1.31368e-05)
(1.29375e-08 6.10904e-09 5.07301e-10)
(1.21293e-08 6.07948e-09 1.1721e-09)
(2.17662e-08 4.30527e-08 1.63244e-08)
(2.75388e-08 5.37787e-08 1.78728e-08)
(9.34526e-05 2.08359e-05 -1.43306e-05)
(9.01423e-05 2.13126e-05 -1.19661e-05)
(9.47124e-05 2.37626e-05 -1.40924e-05)
(8.87299e-05 3.63706e-05 -7.2e-06)
(8.9735e-05 3.53813e-05 -5.62851e-06)
(8.53218e-05 3.3089e-05 -2.2181e-06)
(8.22309e-05 4.37027e-05 -3.97315e-06)
(9.18461e-05 3.47132e-05 -5.84465e-06)
(8.06385e-05 4.94517e-05 1.33366e-06)
(7.7298e-05 5.01842e-05 1.37199e-06)
(8.0257e-05 5.1059e-05 3.57669e-06)
(9.25919e-05 -3.40203e-06 -6.12801e-06)
(9.64233e-05 -7.4659e-06 -1.45533e-06)
(8.58584e-05 -1.05236e-05 -1.97936e-06)
(8.24499e-05 -8.95293e-06 -2.10699e-05)
(1.58848e-08 2.25725e-07 7.96272e-08)
(1.62275e-08 5.03165e-08 1.73398e-08)
(7.26519e-08 2.34656e-07 7.98516e-08)
(8.87633e-09 1.84102e-07 8.21621e-08)
(1.41038e-08 4.12373e-08 1.65809e-08)
(4.36218e-08 1.87958e-07 7.89919e-08)
(0.000103263 1.22794e-06 -2.07372e-05)
(9.66177e-05 1.95924e-05 -1.36528e-05)
(9.51883e-05 2.82855e-05 -1.05603e-05)
(8.48557e-05 4.11238e-05 -7.20594e-06)
(8.40637e-05 4.44594e-05 -5.8987e-06)
(0.000109326 2.06435e-05 -1.08362e-05)
(9.64187e-05 3.05025e-05 -1.36803e-05)
(8.51454e-05 4.36379e-05 -5.92954e-06)
(8.24386e-05 4.662e-05 -2.19128e-06)
(8.26528e-05 4.6238e-05 -4.26732e-06)
(9.36675e-05 3.65837e-05 -8.75462e-06)
(8.07953e-05 4.70193e-05 -1.89667e-06)
(5.19745e-07 5.80176e-07 1.37957e-07)
(3.42124e-07 4.05941e-07 8.96573e-08)
(2.81137e-07 3.41968e-07 9.99091e-08)
(2.35451e-07 2.77723e-07 6.97035e-08)
(2.46222e-09 4.08505e-08 1.73791e-08)
(-1.68274e-08 1.8127e-07 8.33072e-08)
(-4.39865e-08 1.86176e-07 8.74099e-08)
(-2.0984e-08 6.68514e-08 3.27332e-08)
(0 0 0)
(-5.21405e-10 6.01507e-08 2.79513e-08)
(0 0 0)
(8.66144e-09 7.89407e-09 -6.01185e-11)
(-2.9002e-08 1.0251e-07 2.07552e-08)
(-3.66314e-10 5.14988e-08 1.8273e-08)
(-2.54056e-08 2.27651e-07 7.99171e-08)
(-5.78372e-08 2.35918e-07 8.23776e-08)
(9.42647e-09 5.95199e-09 1.42347e-10)
(-2.3318e-09 9.48561e-08 2.24644e-08)
(9.17853e-05 -3.93623e-06 -1.47232e-05)
(9.49862e-05 4.16699e-06 -1.6464e-05)
(8.59029e-05 -1.56765e-06 -1.70291e-05)
(8.86479e-05 1.01666e-05 -1.6488e-05)
(8.09441e-05 -5.87996e-06 -2.07987e-06)
(9.36953e-05 -6.86086e-06 -1.21738e-05)
(0.000103871 1.0151e-06 -1.2688e-06)
(0.000103251 2.42878e-06 -9.45324e-07)
(9.92895e-05 2.24591e-05 -4.40867e-06)
(9.32133e-05 2.68641e-05 -5.99719e-08)
(8.67145e-05 7.15264e-06 -1.82534e-05)
(8.95717e-05 1.27777e-05 -1.63819e-05)
(9.62913e-05 1.33252e-05 -1.79495e-05)
(3.08529e-08 4.82647e-08 1.73211e-08)
(1.45825e-07 2.2632e-07 7.82939e-08)
(8.34866e-08 2.02028e-07 7.80756e-08)
(2.04278e-08 6.47029e-08 2.6546e-08)
(0 0 0)
(6.40627e-08 8.55557e-08 2.86652e-08)
(0 0 0)
(8.24852e-09 7.15734e-09 7.82459e-10)
(6.29571e-08 1.06777e-07 2.64083e-08)
(4.32047e-08 6.1238e-08 1.95082e-08)
(2.61986e-07 3.22778e-07 9.21387e-08)
(1.49254e-07 2.55439e-07 8.15869e-08)
(1.01913e-09 1.90994e-08 4.23192e-09)
(2.13285e-07 2.23785e-07 4.9343e-08)
(5.18667e-08 6.67839e-08 1.60227e-08)
(2.99538e-08 3.38687e-08 1.08205e-08)
(9.52421e-05 2.71703e-05 -5.56045e-07)
(9.86015e-05 2.61031e-05 -5.21161e-06)
(3.54582e-06 1.3122e-05 5.39105e-06)
(-2.2433e-07 2.35544e-06 1.09834e-06)
(5.77707e-06 2.06124e-05 6.05265e-06)
(-1.11611e-06 4.65862e-06 1.06404e-06)
(1.89283e-05 2.14513e-05 6.585e-06)
(2.44541e-05 2.94292e-05 1.13276e-05)
(1.31414e-05 1.26366e-05 4.29899e-06)
(4.3537e-07 2.3732e-06 1.07475e-06)
(1.32039e-06 2.37566e-06 9.7043e-07)
(-1.26292e-06 1.1472e-05 -1.1457e-07)
(2.77207e-05 3.41074e-05 1.3461e-05)
(1.77176e-05 2.06313e-05 6.08295e-06)
(-1.55836e-07 4.54838e-06 1.10509e-06)
(1.84813e-06 4.71232e-06 1.17807e-06)
(9.74674e-05 -1.00761e-06 -5.94657e-06)
(3.48032e-05 2.10277e-05 4.51605e-06)
(4.87806e-05 2.88902e-05 8.00869e-06)
(2.69036e-05 1.52502e-05 2.9777e-06)
(2.52006e-06 2.56456e-06 8.63857e-07)
(1.68871e-05 1.7243e-05 1.75259e-06)
(5.76476e-05 3.30624e-05 1.03392e-05)
(5.82278e-05 3.88184e-05 1.00729e-05)
(5.39557e-05 2.84716e-05 5.50197e-06)
(5.50809e-06 5.89108e-06 1.33097e-06)
(1.36969e-05 1.01383e-05 9.73452e-07)
(2.55261e-05 1.38989e-05 1.87093e-06)
(4.39273e-05 2.38551e-05 2.96285e-06)
(2.88137e-05 1.65628e-05 1.28963e-06)
(2.67389e-06 2.11233e-06 3.1784e-07)
(-6.79013e-07 8.74261e-07 -3.53896e-08)
(-2.89517e-07 2.89863e-06 1.31374e-06)
(-7.31519e-08 9.8467e-07 4.64272e-07)
(-1.34412e-08 6.12874e-08 2.96818e-08)
(-3.71144e-07 3.41077e-06 1.31881e-06)
(-3.64058e-07 1.63978e-06 4.60154e-07)
(-2.5343e-08 9.9497e-08 2.1689e-08)
(8.71294e-05 -5.73531e-06 -6.31186e-06)
(-4.46697e-07 8.46923e-07 -2.24718e-09)
(1.41942e-07 9.53626e-07 6.3738e-08)
(4.93234e-07 2.87845e-06 1.27586e-06)
(2.41832e-07 9.88602e-07 4.35277e-07)
(-4.59949e-09 5.98721e-08 2.82755e-08)
(4.23459e-09 6.06775e-08 2.75648e-08)
(4.69077e-07 3.33351e-06 1.2922e-06)
(2.07961e-07 1.62468e-06 4.65161e-07)
(-1.2406e-08 9.65979e-08 2.23794e-08)
(1.064e-08 9.50365e-08 2.29248e-08)
(1.5855e-06 2.91166e-06 1.18093e-06)
(6.84421e-07 1.06409e-06 4.01967e-07)
(2.64846e-08 6.90141e-08 2.70986e-08)
(1.54059e-08 6.17774e-08 2.63398e-08)
(1.81319e-06 3.393e-06 1.24207e-06)
(1.2733e-06 1.89511e-06 5.05557e-07)
(8.75618e-08 1.15145e-07 2.84571e-08)
(4.26782e-08 1.02122e-07 2.51222e-08)
(1.30229e-06 1.65923e-06 2.01806e-07)
(7.0758e-07 7.6276e-07 9.82034e-08)
(3.30591e-06 3.28716e-06 1.08717e-06)
(1.72065e-06 1.54674e-06 4.37188e-07)
(4.68159e-08 7.63076e-08 2.71883e-08)
(9.71804e-08 1.18575e-07 3.59171e-08)
(4.1586e-06 4.05378e-06 1.22116e-06)
(3.86943e-06 3.54929e-06 7.29092e-07)
(1.55027e-07 1.62787e-07 3.8276e-08)
(3.33971e-07 3.6782e-07 7.40473e-08)
(1.72405e-06 1.41495e-06 3.01981e-07)
(2.99293e-06 2.58274e-06 4.59808e-07)
(1.88468e-08 2.15907e-08 7.42591e-09)
(1.934e-07 2.49739e-07 4.85744e-08)
(7.1778e-08 8.81982e-08 2.41006e-08)
(1.14711e-08 5.0348e-08 1.76298e-08)
(1.12388e-08 4.05813e-08 1.66524e-08)
(5.81398e-09 4.03362e-08 1.69018e-08)
(1.10407e-08 2.89403e-09 1.06731e-09)
(1.0869e-08 2.96786e-09 1.08516e-09)
(3.45272e-09 5.08659e-08 1.79077e-08)
(9.99872e-09 1.20735e-08 1.71992e-09)
(9.06345e-09 1.26108e-08 1.67128e-09)
(8.75043e-09 7.81907e-09 -1.2643e-10)
(9.34798e-09 5.53507e-09 2.86812e-10)
(1.10858e-08 1.2221e-08 1.7938e-09)
(1.09696e-08 3.05387e-09 1.20232e-09)
(0.00010425 -6.90622e-06 -1.70123e-05)
(9.93701e-05 1.326e-05 -1.26313e-05)
(0.00010961 1.86914e-06 -1.18532e-05)
(0.00010505 9.59718e-06 -1.95091e-05)
(0.000108118 1.57651e-05 -1.5173e-05)
(9.60852e-05 -5.99621e-07 -1.43756e-05)
(9.93398e-05 -4.78848e-06 -1.21184e-05)
(0.000104488 9.60397e-07 -6.57543e-06)
(9.32479e-05 -3.72547e-06 -6.80173e-06)
(9.81734e-05 -1.17585e-06 -1.44316e-06)
(0.000102731 9.87743e-06 -5.24834e-06)
(9.3601e-05 -1.12918e-05 -1.72086e-05)
(9.88623e-05 -3.00522e-06 -2.11457e-05)
(0.000109511 3.6764e-06 -1.14056e-06)
(0.000110466 1.68947e-05 -5.98036e-06)
(1.18939e-07 1.51801e-07 3.94705e-08)
(7.94408e-08 1.0188e-07 3.04632e-08)
(3.86942e-08 5.24136e-08 1.82749e-08)
(1.01047e-08 4.72385e-09 3.57549e-09)
(1.04698e-08 3.95112e-09 2.03295e-09)
(5.41859e-08 7.04707e-08 2.18392e-08)
(1.64741e-08 2.13901e-08 6.82211e-09)
(1.39033e-08 1.48602e-08 3.6312e-09)
(4.10103e-09 1.39895e-08 3.70669e-09)
(4.8544e-09 2.5945e-08 5.65405e-09)
(8.56674e-09 7.9086e-09 -1.85335e-11)
(5.80662e-11 4.1944e-08 1.79102e-08)
(9.9653e-09 4.01091e-09 1.64448e-09)
(8.56009e-09 1.34567e-08 1.7399e-09)
(-3.54862e-09 5.36854e-08 1.90295e-08)
(8.66818e-05 -4.62626e-06 -1.84348e-06)
(8.22976e-05 -1.37343e-05 -1.72144e-05)
(8.67328e-05 -6.16365e-06 -1.48726e-05)
(8.17577e-05 -7.01384e-06 -7.04313e-06)
(8.79961e-05 -8.48084e-06 -1.21919e-05)
(8.80156e-05 -7.3435e-06 -2.11445e-05)
(8.08834e-05 1.60723e-06 -1.97958e-05)
(8.41943e-05 7.48754e-06 -1.69708e-05)
(8.47539e-05 1.01671e-05 -1.68691e-05)
(9.14719e-05 5.48945e-06 -1.98745e-05)
(7.85575e-09 8.28083e-09 1.26439e-09)
(8.23958e-09 8.352e-09 7.03471e-10)
(2.14906e-08 5.22664e-08 1.76705e-08)
(1.81708e-08 4.19435e-08 1.63696e-08)
(2.62029e-08 4.48372e-08 1.65192e-08)