/*--------------------------------*- C++ -*----------------------------------*\
| =========                 |                                                 |
| \\      /  F ield         | OpenFOAM: The Open Source CFD Toolbox           |
|  \\    /   O peration     | Version:  2012                                  |
|   \\  /    A nd           | Website:  www.openfoam.com                      |
|    \\/     M anipulation  |                                                 |
\*---------------------------------------------------------------------------*/
FoamFile
{
    version     2.0;
    format      ascii;
    class       volVectorField;
    location    "0.104/fluid";
    object      U;
}
// * * * * * * * * * * * * * * * * * * * * * * * * * * * * * * * * * * * * * //

dimensions      [0 1 -1 0 0 0 0];


internalField   nonuniform List<vector> 
16422
(
(1.01539 -0.207153 -0.0230038)
(1.16999 0.00599348 -0.0163402)
(1.18487 -0.00156396 -0.00988003)
(1.19223 -0.000497618 -0.00595454)
(1.19538 -0.00020214 -0.00361589)
(1.19693 -9.3805e-05 -0.00221779)
(1.19779 -5.36775e-05 -0.00137601)
(1.19832 -3.7006e-05 -0.000862222)
(1.19866 -2.90232e-05 -0.000545179)
(1.1989 -2.83463e-05 -0.000345436)
(1.19909 -2.91131e-05 -0.000219275)
(1.19924 -3.12903e-05 -0.000137466)
(1.19937 -3.72198e-05 -8.451e-05)
(1.1995 -4.54178e-05 -4.90299e-05)
(1.31988 -0.0134996 -0.00334372)
(1.20623 -0.051136 -0.0166855)
(1.18664 -0.0227799 -0.013445)
(1.19127 -0.00858501 -0.00861271)
(1.19453 -0.00400602 -0.00539616)
(1.19659 -0.00212257 -0.00336523)
(1.19785 -0.00121554 -0.00210125)
(1.19864 -0.000727514 -0.00131955)
(1.19913 -0.000446749 -0.000833862)
(1.19944 -0.000278948 -0.000529237)
(1.19964 -0.000174536 -0.000336694)
(1.19977 -0.000106813 -0.000214353)
(1.19985 -6.47559e-05 -0.000136252)
(1.1999 -3.55678e-05 -8.36369e-05)
(1.19993 -1.51407e-05 -4.91792e-05)
(1.24836 0.000800104 -0.00594549)
(1.21598 -0.0161625 -0.013732)
(1.20058 -0.0138093 -0.0105235)
(1.19769 -0.00849169 -0.00677375)
(1.1976 -0.00503718 -0.00439734)
(1.19815 -0.00303372 -0.00285807)
(1.19871 -0.00186156 -0.00184117)
(1.19913 -0.0011607 -0.00118421)
(1.19943 -0.000731311 -0.000762143)
(1.19963 -0.000464941 -0.000490371)
(1.19976 -0.000294244 -0.000315834)
(1.19985 -0.000189357 -0.000203529)
(1.19991 -0.000119621 -0.000130882)
(1.19994 -7.09507e-05 -8.13759e-05)
(1.19996 -3.83775e-05 -4.76507e-05)
(1.3065 0.0809429 0.00190724)
(1.19384 -0.000501053 -0.0157179)
(1.1978 -0.00616654 -0.00859352)
(1.20042 -0.00633359 -0.00509488)
(1.19985 -0.004622 -0.00338385)
(1.19965 -0.00309442 -0.00227933)
(1.19966 -0.00202083 -0.00152212)
(1.19974 -0.00130805 -0.00100963)
(1.19981 -0.000846102 -0.000668795)
(1.19987 -0.0005453 -0.000439552)
(1.19992 -0.000353213 -0.000287544)
(1.19996 -0.000229044 -0.000189316)
(1.19998 -0.000142659 -0.000123458)
(1.19999 -8.60563e-05 -7.72261e-05)
(1.2 -4.84307e-05 -4.47432e-05)
(1.05637 -0.179826 -0.0389206)
(1.1882 0.00694639 -0.0213206)
(1.19143 -0.00113623 -0.0109627)
(1.19567 -0.000350931 -0.00609089)
(1.19727 -0.000147808 -0.00358632)
(1.19802 -7.68685e-05 -0.00217628)
(1.19845 -4.95876e-05 -0.00134431)
(1.19872 -3.56505e-05 -0.000841905)
(1.19891 -2.76402e-05 -0.00053046)
(1.19906 -2.74607e-05 -0.000336033)
(1.19918 -2.83505e-05 -0.000213142)
(1.19929 -3.18125e-05 -0.000135293)
(1.19941 -3.88649e-05 -8.30515e-05)
(1.19953 -4.67647e-05 -4.77825e-05)
(1.28524 -0.011847 -0.00286697)
(1.20696 -0.0339008 -0.0273543)
(1.19403 -0.0156833 -0.0158383)
(1.19598 -0.00625126 -0.0091021)
(1.19744 -0.00306833 -0.00543434)
(1.19836 -0.00169807 -0.00331964)
(1.19894 -0.00100936 -0.0020585)
(1.19931 -0.000623955 -0.00128887)
(1.19955 -0.000392865 -0.000813556)
(1.1997 -0.000249173 -0.000515809)
(1.19981 -0.000158397 -0.000328352)
(1.19988 -9.93802e-05 -0.000209511)
(1.19992 -6.04388e-05 -0.000132921)
(1.19995 -3.30991e-05 -8.19145e-05)
(1.19996 -1.46367e-05 -4.79935e-05)
(1.232 -0.00137998 -0.00346051)
(1.21557 -0.0121456 -0.0117172)
(1.20408 -0.0100972 -0.00964061)
(1.20059 -0.00638655 -0.0065535)
(1.19966 -0.00393173 -0.00431153)
(1.19953 -0.00245191 -0.00279224)
(1.1996 -0.00155523 -0.00179659)
(1.1997 -0.000997059 -0.00115513)
(1.19979 -0.000643117 -0.000743708)
(1.19987 -0.000417358 -0.000477167)
(1.19991 -0.000269779 -0.000307859)
(1.19995 -0.000175612 -0.000199381)
(1.19997 -0.000112245 -0.000127204)
(1.19999 -6.75817e-05 -7.94638e-05)
(1.19999 -3.58331e-05 -4.71972e-05)
(1.22651 0.00440382 -0.0100621)
(1.21108 -0.00193597 -0.0125146)
(1.205 -0.00541166 -0.00745436)
(1.20263 -0.0049421 -0.00476058)
(1.20131 -0.00364621 -0.00325855)
(1.20066 -0.00251955 -0.00221294)
(1.20034 -0.00169702 -0.00148196)
(1.20019 -0.00112773 -0.000985393)
(1.20012 -0.00074747 -0.000650311)
(1.20008 -0.000492049 -0.000426855)
(1.20006 -0.000322747 -0.000281443)
(1.20005 -0.000212791 -0.00018307)
(1.20004 -0.000134481 -0.000120049)
(1.20003 -8.26109e-05 -7.64308e-05)
(1.20003 -4.54291e-05 -4.49876e-05)
(1.26489 -0.0133664 0.0371814)
(1.19495 -0.00472468 -0.0265619)
(1.19825 -0.0013905 -0.0175308)
(1.19881 -0.000495802 -0.00873143)
(1.19897 -0.000207336 -0.00481482)
(1.19898 -0.00010238 -0.00281075)
(1.19899 -6.45486e-05 -0.00169823)
(1.19903 -4.6027e-05 -0.00104715)
(1.19908 -3.35494e-05 -0.000653601)
(1.19913 -2.73044e-05 -0.000410576)
(1.19919 -2.73977e-05 -0.000260309)
(1.19926 -2.84163e-05 -0.000166001)
(1.19935 -3.18883e-05 -0.000105825)
(1.19945 -4.02586e-05 -6.44476e-05)
(1.19956 -4.72452e-05 -3.72311e-05)
(1.23536 -0.00582028 -0.00136097)
(1.21301 -0.0121617 -0.0171167)
(1.20348 -0.00700917 -0.0120963)
(1.20089 -0.0037189 -0.00716522)
(1.20017 -0.00212583 -0.00426936)
(1.19996 -0.00129562 -0.00259565)
(1.1999 -0.000821275 -0.00160508)
(1.1999 -0.000530762 -0.00100303)
(1.19992 -0.000346322 -0.000631542)
(1.19994 -0.000224447 -0.00040082)
(1.19995 -0.000144653 -0.000254605)
(1.19997 -9.25025e-05 -0.000162607)
(1.19998 -5.59031e-05 -0.000102886)
(1.19999 -3.10684e-05 -6.4032e-05)
(1.19999 -1.40791e-05 -3.72671e-05)
(1.22003 -0.00093656 -0.00145884)
(1.21361 -0.00590299 -0.00705278)
(1.20672 -0.00578543 -0.00684955)
(1.20312 -0.00422723 -0.00498545)
(1.2015 -0.00286614 -0.00333054)
(1.20075 -0.00191642 -0.0021659)
(1.2004 -0.00127967 -0.00139734)
(1.20022 -0.000853266 -0.000897752)
(1.20012 -0.000567642 -0.000578056)
(1.20008 -0.000375949 -0.00037266)
(1.20005 -0.000247332 -0.000238877)
(1.20004 -0.000163078 -0.00015386)
(1.20003 -0.000106553 -9.86432e-05)
(1.20003 -6.48497e-05 -6.18692e-05)
(1.20003 -3.50162e-05 -3.56839e-05)
(1.21528 -0.000171702 -0.00153679)
(1.21137 -0.00284249 -0.00478414)
(1.2071 -0.00389648 -0.00448694)
(1.20424 -0.00354773 -0.00345033)
(1.20253 -0.00276275 -0.00247168)
(1.20154 -0.00200768 -0.00170257)
(1.20095 -0.00140969 -0.00114878)
(1.20061 -0.000971903 -0.000766658)
(1.20039 -0.000660448 -0.000507721)
(1.20026 -0.000443939 -0.00033351)
(1.20018 -0.000297035 -0.000217014)
(1.20013 -0.000197884 -0.000142208)
(1.2001 -0.000127904 -9.36789e-05)
(1.20008 -7.9761e-05 -5.91437e-05)
(1.20007 -4.43518e-05 -3.44983e-05)
(1.2211 -0.00103647 0.00302262)
(1.21163 -0.000879556 -0.00649309)
(1.20606 -0.000407184 -0.00656393)
(1.20276 -0.000226962 -0.00409072)
(1.20101 -0.000126212 -0.00239188)
(1.2001 -7.97618e-05 -0.00142104)
(1.19964 -5.83867e-05 -0.00086251)
(1.19942 -4.3235e-05 -0.000532228)
(1.19931 -3.22723e-05 -0.000330711)
(1.19928 -2.7237e-05 -0.000208453)
(1.19929 -2.76813e-05 -0.000130291)
(1.19933 -2.87917e-05 -8.39246e-05)
(1.19939 -3.11772e-05 -5.35676e-05)
(1.19947 -4.09574e-05 -3.2166e-05)
(1.19958 -4.78984e-05 -1.75787e-05)
(1.21828 -0.000917604 0.000134458)
(1.21264 -0.00321533 -0.00510112)
(1.20714 -0.00288309 -0.00509224)
(1.20372 -0.00214231 -0.00344657)
(1.20193 -0.00148936 -0.00214077)
(1.20102 -0.00102006 -0.00131718)
(1.20054 -0.000694956 -0.000815014)
(1.20029 -0.000469872 -0.000508421)
(1.20016 -0.000314911 -0.000318261)
(1.20009 -0.000209887 -0.000201296)
(1.20005 -0.000137036 -0.000126728)
(1.20003 -8.82488e-05 -8.11999e-05)
(1.20002 -5.36885e-05 -5.07125e-05)
(1.20002 -3.08408e-05 -2.95883e-05)
(1.20001 -1.45211e-05 -1.63333e-05)
(1.21435 -0.000336731 -0.000462005)
(1.21167 -0.00261462 -0.00286793)
(1.20764 -0.00319101 -0.00315837)
(1.20456 -0.00279149 -0.00245053)
(1.20266 -0.00214093 -0.00167423)
(1.20156 -0.00155569 -0.00109421)
(1.20093 -0.00109834 -0.00070596)
(1.20056 -0.000760189 -0.000451356)
(1.20034 -0.000519251 -0.000286433)
(1.20022 -0.000350391 -0.000183977)
(1.20014 -0.000233119 -0.000116814)
(1.2001 -0.000155632 -7.40096e-05)
(1.20008 -0.000104093 -4.62454e-05)
(1.20006 -6.45867e-05 -2.71824e-05)
(1.20005 -3.6133e-05 -1.44152e-05)
(1.21194 -0.000237748 -0.00040495)
(1.21027 -0.00187655 -0.00175466)
(1.20751 -0.00264007 -0.00200365)
(1.20506 -0.00259525 -0.00167511)
(1.20329 -0.0021728 -0.00122782)
(1.20212 -0.00166857 -0.000850041)
(1.20136 -0.00122067 -0.000575615)
(1.20088 -0.000870409 -0.000381247)
(1.20058 -0.000605258 -0.000247359)
(1.20038 -0.000412936 -0.000161233)
(1.20026 -0.00028049 -0.000102866)
(1.20019 -0.000190436 -6.64221e-05)
(1.20014 -0.000124874 -4.15711e-05)
(1.2001 -7.90956e-05 -2.4979e-05)
(1.20009 -4.50184e-05 -1.2096e-05)
(0.767103 -0.349919 -0.0210559)
(1.38741 -0.00929747 -0.000988652)
(1.21982 -0.135766 -0.0114949)
(1.31358 0.0810648 -0.0166267)
(1.18531 -0.00187888 -0.0126308)
(0.769202 -0.346115 -0.0272734)
(1.38077 -0.0118326 -0.00258232)
(1.21809 -0.134393 -0.0166051)
(0.807659 -0.33042 -0.086175)
(1.34926 -0.0130449 -0.00221704)
(1.21235 -0.111336 -0.0288061)
(1.18713 0.00112888 -0.0197623)
(1.23797 0.00754236 -0.0154408)
(1.21049 0.000824356 -0.0138077)
(0.826313 -0.326952 -0.0618575)
(1.32986 -0.0115858 -0.00408799)
(1.2123 -0.0907501 -0.0361516)
(1.22896 0.0047749 -0.141874)
(1.23044 -0.00687083 -0.0652131)
(1.24784 0.00761158 -0.00379014)
(1.22537 -0.0163372 -0.0248102)
(1.25257 0.000715917 -0.00125456)
(1.22544 -0.0149633 -0.00713976)
(1.25748 0.022374 -0.00281088)
(1.2099 0.0348993 -0.00539269)
(1.19201 -0.00358209 -0.0109467)
(1.19366 -0.00558311 -0.00767173)
(1.66158 -0.386745 -0.0234551)
(-0.418399 -0.0513718 -0.0488517)
(1.92539 0.000265166 0.0262217)
(1.67893 -0.394909 0.00788477)
(1.90149 -0.000241589 -0.0040656)
(-0.405402 -0.0532351 -0.0530508)
(1.22458 -0.0144658 -0.0133108)
(1.25174 0.0216289 -0.0143022)
(1.21023 0.0313548 -0.0112389)
(1.23598 -0.00132912 -0.00391294)
(1.22156 -0.0121991 -0.0118845)
(1.23166 0.00526911 -0.00778242)
(1.21544 -0.00112271 -0.0067167)
(1.22456 0.0640136 -0.0200192)
(1.287 0.0221101 -0.0113092)
(1.22939 0.029903 -0.0355826)
(1.19611 -0.00498232 -0.0102077)
(1.20826 -0.000981243 -0.012749)
(1.20386 -0.00467781 -0.00993003)
(1.26085 -0.174687 -0.0878317)
(-0.35696 -0.115443 -0.181571)
(1.82583 -0.0159847 0.0626678)
(0.578055 0.065839 -0.253855)
(1.57437 -0.365596 0.00254431)
(1.46876 -0.0710879 0.0132779)
(0.585658 -0.0428198 -0.0796188)
(1.213 0.000272263 -0.0139914)
(1.21715 7.02534e-05 -0.00211464)
(1.21297 -0.00211928 -0.00533642)
(-0.423594 -0.0513374 -0.0185795)
(1.92867 0.00108082 -0.0149372)
(1.68505 -0.395984 -0.0221621)
(1.22834 0.0640864 -0.0170602)
(1.18908 0.0254734 -0.0146462)
(1.16922 0.0312937 -0.0125743)
(1.64952 -0.383735 0.00656647)
(-0.382705 -0.0849363 -0.150557)
(1.84431 -0.00699789 0.023202)
(1.89491 -0.00230378 0.03711)
(1.60552 -0.372232 -0.0244625)
(-0.395107 -0.0529142 -0.0853977)
(1.18979 0.0250797 -0.0247767)
(1.17304 0.0318409 -0.0198047)
(1.19553 -0.00256351 -0.027802)
(1.19945 0.0167311 -0.0372216)
(1.17808 0.0316098 -0.0162185)
(1.26093 0.0228503 -0.0182914)
(1.22598 0.00775726 -0.0205769)
(1.2418 0.00034248 -0.0280062)
(1.22374 0.016577 -0.0404411)
(1.22462 -0.000972186 -0.0327396)
(1.20291 -0.00616815 -0.0272492)
(1.21582 0.00413629 -0.017815)
(1.20832 -0.00744389 -0.0184107)
(1.20583 -0.00234047 -0.0349555)
(1.19771 -0.00838964 -0.0169613)
(1.21182 -0.00480687 -0.0272432)
(1.01369 -0.209675 -0.0183694)
(1.16877 0.00538353 -0.0155892)
(1.20034 -0.104324 -0.0124598)
(1.18112 -0.0329436 -0.0124884)
(1.32532 -0.0119081 -0.000873831)
(1.23544 -0.0625853 -0.00993327)
(1.25364 0.00273559 0.00189339)
(1.22977 -0.0165592 -0.00356011)
(1.17053 0.00548818 -0.0180906)
(1.20003 -0.103092 -0.0173828)
(1.18263 -0.0324079 -0.0155306)
(1.03658 -0.195904 -0.0559682)
(1.18289 0.00757085 -0.0277164)
(1.20086 -0.0841635 -0.0270213)
(1.18803 -0.0255664 -0.0199525)
(1.23363 -0.0623235 -0.0155295)
(1.24954 0.00245076 -0.00354795)
(1.22905 -0.0166848 -0.01006)
(1.29711 -0.0128116 -0.00184131)
(1.22654 -0.0490422 -0.0240893)
(1.24006 0.000281724 -0.000836449)
(1.22409 -0.0159923 -0.00904642)
(1.19522 0.0109144 -0.0300346)
(1.20268 -0.0676924 -0.0302295)
(1.19143 -0.0217563 -0.0208952)
(1.21915 -0.00247279 -0.0446472)
(1.19977 -0.00107028 -0.026826)
(1.21707 -0.0166849 -0.0247019)
(1.20256 -0.0104001 -0.0182962)
(1.22436 -0.041738 -0.0284407)
(1.23607 -0.000179221 -0.00137528)
(1.22256 -0.0146545 -0.00985683)
(1.24133 0.003784 -0.00236479)
(1.22379 -0.0112997 -0.0214789)
(1.22474 0.000266115 -0.00120558)
(1.21842 -0.00738908 -0.00820434)
(1.1936 -0.00741031 -0.0221954)
(1.24146 -0.0103974 -0.000565458)
(1.21688 -0.0185252 -0.018596)
(1.22031 0.00043477 -0.0097794)
(1.21954 -0.000547994 -0.0160474)
(1.22065 0.0017653 -0.00287126)
(1.21746 -0.00201483 -0.00897362)
(-0.149879 -0.261794 -0.0306183)
(1.20459 -0.337192 -0.0157094)
(1.37474 -0.493215 -0.0140873)
(1.62238 0.00517067 -0.000324345)
(1.34224 -0.0892344 -0.0056244)
(1.44602 -0.158974 -0.00738292)
(1.35937 -0.480504 -0.0240288)
(-0.145697 -0.259474 -0.0426074)
(1.20176 -0.333688 -0.020504)
(0.773529 -0.340214 -0.0369069)
(1.36802 -0.48872 -0.0184068)
(1.19895 -0.327218 -0.0255686)
(-0.13031 -0.25241 -0.0627484)
(1.42834 -0.155077 -0.0114241)
(1.61671 0.00458327 0.00334262)
(1.33673 -0.0900526 -0.00900364)
(1.37357 -0.0109209 -0.00115325)
(1.43795 -0.1584 -0.00994112)
(1.60007 0.00419453 0.00501879)
(1.33 -0.0873269 -0.0092817)
(1.34665 -0.468018 -0.0354344)
(0.781396 -0.331004 -0.0496198)
(-0.057879 -0.275662 -0.147305)
(1.19612 -0.299306 -0.0465664)
(1.19621 -0.316968 -0.0358057)
(1.32416 -0.444329 -0.051096)
(-0.120403 -0.247111 -0.0851377)
(1.41398 -0.151712 -0.015331)
(1.36326 -0.0119208 -0.0015038)
(1.55305 -0.00237613 0.0154952)
(1.30897 -0.0802088 -0.0169948)
(1.58894 0.00329275 0.00985671)
(1.32121 -0.0849678 -0.0125665)
(1.39154 -0.146512 -0.0217768)
(1.17675 -0.273212 -0.194185)
(0.0456207 -0.367406 -0.179656)
(1.18907 -0.23305 -0.0897142)
(0.976046 -0.111091 -0.163342)
(1.28941 -0.393307 -0.127396)
(1.1899 -0.170373 -0.148215)
(0.843771 0.0897685 -0.262242)
(1.31899 -0.105967 -0.0717131)
(1.524 -0.00677561 0.0193792)
(1.29398 -0.0696376 -0.0245929)
(1.30166 -0.0129789 -0.00790927)
(1.3599 -0.13543 -0.0403578)
(1.39708 -0.0338506 0.00369007)
(1.27124 -0.0531903 -0.0322041)
(1.26137 -0.0786892 -0.102554)
(1.41612 -0.114476 -0.253104)
(1.23723 0.00131296 -0.164828)
(1.31318 0.0316396 -0.0765577)
(1.40471 0.00275351 -0.0218238)
(1.30728 0.0299274 -0.108347)
(1.44516 -0.0843925 -0.275581)
(-0.179036 0.198453 -0.0659076)
(0.703544 -0.401639 -0.0378601)
(-0.41616 -0.052184 -0.0311096)
(-0.164904 0.186673 0.0122595)
(0.701332 -0.399869 -0.0422539)
(-0.0194856 -0.0315853 -0.0305466)
(1.80653 -0.212746 0.0200014)
(1.91727 0.00039196 -0.0107258)
(-0.0123315 -0.0322354 -0.0172109)
(1.7995 -0.211059 -0.0201075)
(-0.0119369 -0.0316291 -0.0235978)
(1.78414 -0.208302 -0.0170134)
(1.91284 -0.000558046 0.0304934)
(1.79406 -0.210875 0.021674)
(-0.0212267 -0.0310265 -0.0422614)
(-0.162237 0.185464 0.00198716)
(0.693262 -0.393091 -0.0610167)
(-0.408866 -0.0520897 -0.0621103)
(0.697459 -0.39594 -0.0506494)
(-0.180784 0.201072 -0.0754356)
(1.34193 0.152959 -0.0131602)
(1.26221 0.101983 -0.0708286)
(1.2543 0.141231 -0.0350433)
(1.29853 0.0532079 -0.0488948)
(1.38809 0.164545 -0.0408614)
(1.52945 0.153883 0.02919)
(1.39636 0.174542 0.00724449)
(1.50851 0.143208 -0.0307396)
(1.34461 0.161497 -0.0428694)
(1.24831 0.163761 -0.0200265)
(1.34861 0.168921 0.00230432)
(1.24845 0.160133 -0.0264173)
(1.38313 0.155153 -0.00532392)
(1.41882 8.24292e-05 0.00627015)
(1.50047 0.139816 0.0324511)
(1.32286 0.0469285 -0.0389049)
(0.148501 -0.115835 -0.347838)
(0.671549 -0.440468 -0.191565)
(-0.24274 -0.345926 0.139367)
(-0.13895 0.181901 -0.028138)
(0.728959 -0.614159 -0.516656)
(0.177472 -0.190713 -0.187446)
(1.69877 -0.212661 0.0304061)
(1.77663 -0.012884 0.041502)
(0.0195177 -0.0544098 -0.063025)
(1.65562 -0.212768 -0.0162803)
(0.661778 -0.0450832 0.272436)
(0.513178 0.075904 -0.217896)
(0.855673 -0.12235 -0.00741904)
(0.223333 -0.209015 -0.18439)
(1.36936 -0.147234 -0.0944775)
(1.71549 -0.0407578 0.0704485)
(1.2576 -0.263619 0.265327)
(1.58164 -0.215921 -0.0054991)
(1.34952 -0.37409 -0.0892731)
(0.180112 -0.172811 -0.322853)
(1.27816 -0.240228 -0.358708)
(-0.162541 -0.289169 0.258488)
(0.537552 0.0634537 -0.217175)
(0.647812 -0.456447 -0.596131)
(1.04112 -0.210773 -0.0812702)
(-0.166808 0.187579 0.0190583)
(0.706115 -0.404105 -0.0305947)
(-0.424963 -0.0507403 -0.0411006)
(-0.177854 0.196775 -0.0595793)
(0.707411 -0.405148 -0.0296924)
(-0.0125471 -0.0326908 -0.0131061)
(1.93483 0.000576864 0.0244346)
(1.81059 -0.212661 -0.0222635)
(-0.0180751 -0.0321683 -0.0227161)
(1.81574 -0.214233 0.0202742)
(-0.0172031 -0.0325816 -0.01787)
(1.81806 -0.214903 -0.0223803)
(-0.177187 0.195773 -0.0558568)
(0.709527 -0.407599 -0.0232744)
(1.35547 0.169596 -0.0272409)
(1.40349 0.17574 0.0157229)
(1.53419 0.15259 -0.0385045)
(1.39967 0.174901 -0.0347585)
(1.54057 0.153418 0.0322255)
(1.40502 0.175619 -0.0287935)
(1.54256 0.152617 -0.0361003)
(1.35419 0.169583 0.0117461)
(1.24916 0.165813 -0.0135513)
(1.3512 0.169271 -0.0337622)
(1.25095 0.165216 -0.0112996)
(1.17285 0.05259 -0.0107598)
(1.18798 0.108341 -0.0162064)
(1.18868 0.107824 -0.0109757)
(1.17331 0.052428 -0.0167427)
(-0.154542 0.183854 -0.0238689)
(0.666888 -0.415832 -0.1533)
(-0.376714 -0.0566289 -0.126994)
(-0.175836 0.208205 -0.0812518)
(0.675071 -0.390181 -0.102229)
(-0.00453338 -0.0352486 -0.0441923)
(1.86863 -0.00722842 0.04795)
(1.72422 -0.206829 -0.00410459)
(-0.00206999 -0.0496389 -0.0793896)
(1.74666 -0.208528 0.0278641)
(-0.0191377 -0.0339016 -0.0571784)
(1.77561 -0.208704 0.0239726)
(1.87885 -0.00311386 0.00696043)
(-0.0108167 -0.031323 -0.0328709)
(1.76077 -0.206664 -0.0113365)
(-0.181922 0.2046 -0.0841335)
(0.687615 -0.38827 -0.0707066)
(-0.391175 -0.0560766 -0.0922376)
(-0.158879 0.184298 -0.0119059)
(0.681486 -0.3898 -0.0899066)
(1.18471 0.0436207 -0.0213063)
(1.22286 0.0549718 -0.0507724)
(1.20145 0.0885526 -0.0235473)
(1.20227 0.027996 -0.040306)
(1.17664 0.0500656 -0.0222577)
(1.1885 0.107328 -0.0179546)
(1.19038 0.104294 -0.0239458)
(1.17469 0.0524233 -0.0171505)
(1.22955 0.0219091 -0.0392987)
(1.1939 0.0573353 -0.0675172)
(1.21246 0.0691668 -0.080592)
(1.21747 0.0119401 -0.0288166)
(1.24458 0.0324601 -0.050136)
(1.30059 0.00222436 -0.0466224)
(1.23495 0.0294558 -0.07253)
(1.2593 0.0358291 -0.039803)
(1.20184 -0.00423024 -0.0125476)
(1.1899 0.0394453 -0.0415755)
(1.19376 0.017403 -0.0280344)
(1.20765 -0.000986711 -0.013132)
(1.22139 -0.0521904 -0.0645189)
(1.21718 0.00593568 -0.041833)
(1.24777 -0.00716338 -0.108974)
(1.24565 0.00164645 -0.0655133)
(1.20181 -0.0212504 -0.0616987)
(1.27835 0.0115284 -0.0928655)
(1.26016 -0.0376007 -0.0705839)
(1.28522 -0.0428744 -0.0680177)
(1.27067 -0.0149568 -0.0198628)
(1.26663 0.0261722 -0.00833457)
(1.24469 -0.00310482 -0.0164676)
(1.32191 -0.0289767 -0.026083)
(1.25476 -0.0400836 -0.039919)
(1.26178 0.0172985 -0.0362347)
(0.269673 0.0456849 -0.041144)
(1.66725 -0.389973 0.0074611)
(1.81401 -0.258787 -0.00279887)
(1.29623 -0.513132 -0.0251872)
(1.30199 -0.517135 -0.0290046)
(1.8212 -0.260788 -0.000189448)
(0.266899 0.0459029 -0.0517892)
(0.269299 0.0466964 -0.0374154)
(1.67506 -0.392736 -0.0226242)
(1.31183 -0.522872 -0.0234126)
(1.83374 -0.263501 -0.0014814)
(0.271606 0.0461649 -0.0305106)
(1.30799 -0.520242 -0.0173791)
(1.82876 -0.262175 -0.00409691)
(0.661895 -0.385834 -0.397544)
(1.44252 -0.257333 -0.0559708)
(1.37666 -0.201823 -0.0764445)
(1.16206 -0.367568 -0.269689)
(1.12156 -0.530456 -0.36139)
(1.59846 -0.244955 -0.0428229)
(1.42027 -0.412413 -0.171692)
(0.647327 0.111036 0.0694141)
(0.546637 0.0865072 -0.247434)
(0.749364 0.172709 0.00430097)
(0.610772 -0.318248 -0.252699)
(1.54994 -0.339202 -0.0447339)
(1.23191 -0.505199 -0.0918442)
(1.7228 -0.273097 0.00664091)
(0.325479 -0.0406299 -0.106085)
(1.22821 -0.536569 -0.214907)
(1.69347 -0.270873 -0.0122497)
(0.272935 0.046623 -0.0237396)
(1.6879 -0.397598 0.00940924)
(1.31616 -0.524537 -0.0124024)
(1.83961 -0.263954 -0.00485636)
(0.271168 0.0470768 -0.0278381)
(1.31893 -0.526341 -0.019272)
(1.84331 -0.2651 -0.00124567)
(0.269873 0.0379191 -0.0700396)
(1.80243 -0.258043 0.00184646)
(1.64048 -0.379937 -0.0243635)
(1.28769 -0.509317 -0.0373557)
(0.268156 0.0436563 -0.0565147)
(1.27945 -0.504387 -0.0365473)
(1.79153 -0.256725 6.48805e-06)
(0.275775 0.0300049 -0.0751525)
(1.61929 -0.37774 0.00550727)
(1.25052 -0.49799 -0.0614808)
(1.75565 -0.260699 0.00387102)
(0.299521 -0.00592739 -0.0975092)
(1.26599 -0.502595 -0.0501169)
(1.77264 -0.259408 0.0059676)
(1.65868 -0.132782 -0.111223)
(1.46348 -0.11071 -0.318614)
(1.66533 -0.124737 -0.206807)
(1.62535 -0.0717693 0.0293709)
(1.16027 -0.107678 0.0317661)
(1.67046 -0.0622132 0.0898168)
(1.15485 -0.116361 0.0197541)
(1.37483 -0.0320551 -0.0893747)
(1.56531 -0.0752315 -0.119611)
(1.52389 -0.104607 -0.225645)
(1.36951 -0.130759 0.027355)
(1.38268 -0.056471 0.0274743)
(1.41362 -0.106938 0.0693407)
(1.3464 -0.0877664 -0.0157931)
(1.59883 -0.0636713 -0.257226)
(1.45474 -0.100568 -0.312877)
(1.64978 -0.104968 -0.242695)
(1.56239 -0.0890118 0.00685662)
(1.17566 -0.16456 0.105234)
(1.4697 -0.0965532 -0.045612)
(1.13596 -0.140419 0.0779334)
(-0.242236 0.657334 -0.0416976)
(-0.163121 0.185882 0.00710473)
(-0.00176686 0.338217 -0.0549406)
(-0.000436808 0.336224 -0.0506792)
(-0.254339 0.674603 -0.0904398)
(-0.261425 0.552242 -0.0672842)
(-0.0511111 0.094554 -0.0046923)
(-0.254949 0.543147 -0.0261073)
(-0.0518646 0.0967939 -0.0270422)
(-0.254237 0.676358 -0.080588)
(-0.177651 0.197141 -0.0621484)
(-0.00155588 0.339885 -0.0444028)
(-0.000628849 0.337877 -0.0476299)
(-0.246387 0.665161 -0.031113)
(-0.250644 0.537257 -0.0350225)
(-0.0517033 0.0961891 -0.0305161)
(-0.260383 0.550783 -0.0759364)
(-0.0507433 0.093803 -0.00732763)
(1.32814 -0.242228 -0.0476173)
(-0.0139649 -0.0313786 -0.0195755)
(1.14777 -0.259639 -0.014925)
(1.14963 -0.26106 -0.0116968)
(1.32743 -0.241311 0.0303543)
(1.28999 -0.208681 0.0338062)
(1.23853 0.082328 -0.0365174)
(1.29109 -0.208128 -0.0486641)
(1.23623 0.0810959 0.0273135)
(1.3318 -0.243075 0.0316694)
(-0.0197452 -0.0316953 -0.0270573)
(1.15371 -0.261791 -0.0101718)
(1.15179 -0.261436 -0.0131164)
(1.33311 -0.24251 -0.0469717)
(1.28638 -0.208002 -0.0492482)
(1.23276 0.0811998 0.0271693)
(1.28583 -0.207237 0.0327531)
(1.23386 0.0814836 -0.0365851)
(1.32296 -0.240655 0.0300654)
(1.14669 -0.259302 -0.0129947)
(-0.0215592 -0.0308971 -0.0367634)
(1.14413 -0.258579 -0.016007)
(1.32476 -0.240252 -0.0475922)
(1.2767 -0.205815 -0.0495662)
(1.22346 0.0804176 0.0267788)
(1.2257 0.0812216 -0.0362593)
(1.27593 -0.205479 0.0312136)
(1.28158 -0.206771 0.0321662)
(1.2316 0.0821424 -0.0364087)
(1.28314 -0.206299 -0.049166)
(1.22845 0.0806149 0.0265862)
(1.31786 -0.239477 -0.0479953)
(-0.0139528 -0.0303552 -0.0274353)
(1.13859 -0.256611 -0.018201)
(1.14068 -0.257952 -0.0147344)
(1.317 -0.239021 0.0287206)
(-0.250783 0.667394 -0.103181)
(-0.000619924 0.334971 -0.0601712)
(-0.179206 0.199296 -0.0700843)
(6.02713e-05 0.332987 -0.0650184)
(-0.240462 0.652428 -0.0528646)
(-0.242792 0.525889 -0.058161)
(-0.0514603 0.0949162 -0.039554)
(-0.254604 0.543443 -0.100712)
(-0.050277 0.0916367 -0.0155736)
(-0.235869 0.643033 -0.0688721)
(-0.160225 0.184657 -0.00496635)
(-0.000840542 0.332225 -0.0757611)
(0.000208054 0.3309 -0.0697423)
(-0.250143 0.664026 -0.118456)
(-0.256594 0.545785 -0.0869349)
(-0.0507135 0.0927982 -0.0110318)
(-0.247923 0.533153 -0.0443608)
(-0.0516156 0.0956307 -0.0339849)
(-0.0983609 0.437544 0.0757229)
(-0.0840347 0.164246 -0.0507273)
(0.36869 -0.2901 -0.367033)
(0.233362 -0.0701288 -0.242369)
(0.0345621 0.152875 0.200472)
(-0.202363 0.475279 0.0128287)
(-0.0587666 0.0990596 -0.0308939)
(-0.230666 0.51425 -0.0405555)
(-0.0812593 0.100971 -0.0205385)
(-0.128784 0.48933 -0.0277178)
(-0.158423 0.209083 -0.0764637)
(0.0614978 0.21429 -0.124626)
(0.114028 0.127987 -0.158243)
(-0.195202 0.581301 -0.0509831)
(-0.187486 0.466173 0.10348)
(-0.109948 0.0990459 0.142223)
(-0.0696763 0.248677 0.174732)
(-0.0892703 0.120747 0.0251234)
(1.33311 -0.274103 -0.0577858)
(0.0574191 -0.091013 -0.0753731)
(1.22343 -0.33225 -0.115367)
(1.18381 -0.306445 -0.0519867)
(1.37463 -0.306579 -0.0721917)
(1.3021 -0.229411 0.00876913)
(1.22032 0.0810015 -0.0334798)
(1.27529 -0.217173 -0.0476325)
(1.23354 0.078041 0.0155952)
(1.34605 -0.270325 0.00682453)
(0.029275 -0.0779592 -0.0878375)
(1.15308 -0.277048 -0.0273819)
(1.17154 -0.289177 -0.0355997)
(1.31795 -0.254682 -0.0457479)
(1.28712 -0.231205 -0.0609703)
(1.22884 0.0720761 -0.012344)
(1.32325 -0.255446 -0.0599626)
(1.22184 0.0803073 -0.0428838)
(0.499686 -0.152963 -0.0455642)
(0.650498 -0.00384582 0.183441)
(0.579295 -0.096351 -0.119818)
(0.522777 0.0927009 -0.231689)
(0.998658 0.158074 -0.10657)
(0.868278 0.178912 -0.031789)
(0.71527 -0.0928415 0.142394)
(0.839759 -0.0411993 -0.195367)
(0.691848 -0.0882567 -0.156564)
(1.53924 -0.3287 -0.26191)
(1.29475 -0.37136 -0.206896)
(0.196697 -0.190764 -0.0482528)
(1.32335 -0.367819 -0.321245)
(1.41055 -0.324172 -0.135229)
(1.57864 -0.216907 -0.24818)
(1.69917 -0.156555 0.0992336)
(1.21174 -0.276856 0.150245)
(1.66001 -0.214161 0.0233205)
(1.58959 0.123078 -0.127876)
(1.50334 -0.270506 -0.237097)
(1.26209 0.0852263 -0.0662883)
(1.35399 -0.267465 -0.126006)
(1.34049 0.0911649 -0.0637196)
(1.57956 -0.281896 -0.256085)
(0.206513 -0.0304689 -0.264166)
(1.5396 -0.318487 -0.0903058)
(1.31841 -0.375227 0.0546987)
(1.62963 -0.297994 -0.011374)
(1.26166 -0.322314 -0.257202)
(-0.140876 0.515539 0.145501)
(0.296287 -0.261251 -0.421828)
(0.026027 0.0330224 0.231432)
(0.139329 0.0807562 -0.217089)
(0.0185246 0.198054 0.28982)
(0.242319 0.0522113 -0.0782533)
(0.577999 0.0429392 -0.206279)
(1.1765 0.114451 -0.178336)
(1.32793 0.0801429 -0.239097)
(0.168399 0.0133696 -0.0555351)
(0.111751 0.264606 -0.195415)
(0.122584 0.299414 -0.104504)
(1.16923 -0.240486 -0.223686)
(1.03961 -0.0658965 -0.2602)
(1.20473 -0.0592116 -0.295542)
(0.667119 0.166623 -0.320733)
(-0.0756476 0.427681 0.266348)
(-0.095805 0.120065 0.192292)
(-0.10336 0.313763 0.298384)
(-0.0252489 0.0426744 -0.00190337)
(-0.256824 0.68302 -0.0669939)
(-0.176697 0.195796 -0.0571154)
(-0.00248738 0.343672 -0.0344175)
(-0.00142772 0.341715 -0.036369)
(-0.250785 0.674332 -0.017884)
(-0.256346 0.545464 -0.0207699)
(-0.0519383 0.0971534 -0.0252583)
(-0.264726 0.556561 -0.0609254)
(-0.0510568 0.0951036 -0.0024392)
(-0.247121 0.667932 -0.0245988)
(-0.165336 0.186934 0.0154988)
(-0.00259897 0.342585 -0.0408202)
(-0.257569 0.682537 -0.0729558)
(-0.00121972 0.340361 -0.0381024)
(-0.264881 0.557085 -0.0556559)
(-0.0514105 0.0958102 -0.000909098)
(-0.259985 0.550217 -0.0151384)
(-0.0519835 0.097405 -0.023013)
(1.33905 -0.244932 0.033219)
(-0.0185148 -0.0322524 -0.0206927)
(1.15933 -0.263572 -0.0081076)
(1.33994 -0.244271 -0.0462899)
(1.15787 -0.263444 -0.0108446)
(1.29374 -0.209621 -0.0485585)
(1.24 0.0817562 0.0278944)
(1.2935 -0.208794 0.0343419)
(1.2404 0.0817727 -0.0364067)
(1.33585 -0.244209 -0.0468474)
(-0.0140699 -0.0320218 -0.0143429)
(1.15461 -0.261919 -0.0122725)
(1.33545 -0.243271 0.0319891)
(1.15605 -0.263087 -0.00917198)
(1.29695 -0.210189 0.0353553)
(1.24447 0.082587 -0.0363728)
(1.24283 0.0815807 0.0281185)
(1.29765 -0.20958 -0.0480379)
(1.34193 -0.244948 0.03319)
(1.24604 0.0822296 0.0285527)
(1.29975 -0.210131 0.0355691)
(-0.260032 0.688438 -0.0628378)
(-0.0521029 0.0977969 -0.0222462)
(-0.267947 0.560926 -0.0523098)
(-0.241644 0.645035 -0.153474)
(-0.180078 0.206041 -0.0828873)
(0.00830054 0.307929 -0.10261)
(0.0143087 0.296509 -0.104493)
(-0.22638 0.619776 -0.118949)
(-0.235809 0.511705 -0.106219)
(-0.0619555 0.0982929 -0.0503113)
(-0.255 0.537487 -0.0978194)
(-0.0537493 0.0904042 -0.0457072)
(-0.220673 0.610412 -0.113325)
(-0.149918 0.1832 -0.0251575)
(0.0371633 0.256988 -0.111481)
(-0.225692 0.621468 -0.110453)
(0.0234075 0.278442 -0.106744)
(-0.252698 0.53958 -0.141283)
(-0.0508155 0.0887702 -0.0378432)
(-0.23221 0.510379 -0.105948)
(-0.0550207 0.0955835 -0.0630986)
(1.31254 -0.242699 0.0276581)
(-0.015744 -0.0380488 -0.0670786)
(1.13475 -0.257979 -0.01903)
(1.30864 -0.239389 -0.0458346)
(1.13509 -0.258817 -0.0215847)
(1.26103 -0.207536 -0.0464906)
(1.21164 0.0768698 0.0259715)
(1.26951 -0.214678 0.0254311)
(1.21286 0.0805143 -0.0330985)
(1.30112 -0.241789 -0.044222)
(-0.00241367 -0.0378222 -0.0517555)
(1.13389 -0.265804 -0.0262534)
(1.3103 -0.250501 0.0223758)
(1.12901 -0.26088 -0.0200639)
(1.27182 -0.208462 0.0293586)
(1.21868 0.081739 -0.0335156)
(1.2176 0.0794384 0.026487)
(1.26778 -0.205547 -0.0473072)
(1.30774 -0.237949 -0.0471135)
(-0.0121058 -0.0306832 -0.0379397)
(1.13146 -0.255919 -0.0210004)
(1.13206 -0.25605 -0.0175162)
(1.30909 -0.239666 0.0277639)
(1.2732 -0.205537 0.0308521)
(1.22362 0.0819296 -0.0356775)
(1.27366 -0.204483 -0.049109)
(1.22059 0.0800638 0.0264344)
(1.31404 -0.239028 0.0287928)
(-0.0225404 -0.0311121 -0.0502193)
(1.1383 -0.256692 -0.0163304)
(1.31474 -0.237996 -0.0476788)
(1.136 -0.256047 -0.0191081)
(1.26726 -0.204627 -0.0487439)
(1.21554 0.07932 0.027266)
(1.21813 0.0809538 -0.0350422)
(1.26847 -0.206126 0.0303537)
(-0.228995 0.626349 -0.105519)
(-0.156722 0.183803 -0.0187209)
(0.0036528 0.318594 -0.0980698)
(0.00264837 0.320694 -0.0927073)
(-0.245802 0.652693 -0.151042)
(-0.251072 0.538837 -0.117373)
(-0.0503046 0.0904335 -0.0216873)
(-0.238947 0.520161 -0.0729645)
(-0.0516423 0.0944682 -0.0458724)
(-0.246696 0.65628 -0.136165)
(-0.181048 0.202498 -0.080071)
(0.000689394 0.327676 -0.0823539)
(-0.233274 0.635951 -0.0858027)
(0.00163665 0.324776 -0.0878319)