/*--------------------------------*- C++ -*----------------------------------*\
| =========                 |                                                 |
| \\      /  F ield         | OpenFOAM: The Open Source CFD Toolbox           |
|  \\    /   O peration     | Version:  2012                                  |
|   \\  /    A nd           | Website:  www.openfoam.com                      |
|    \\/     M anipulation  |                                                 |
\*---------------------------------------------------------------------------*/
FoamFile
{
    version     2.0;
    format      ascii;
    class       surfaceVectorField;
    location    "0.104/fluid";
    object      Uf;
}
// * * * * * * * * * * * * * * * * * * * * * * * * * * * * * * * * * * * * * //

dimensions      [0 1 -1 0 0 0 0];


internalField   nonuniform List<vector> 
47129
(
(0.899879 -0.276608 -0.0251365)
(1.01453 -0.208416 -0.0210138)
(1.07356 -0.184206 -0.0217336)
(1.01711 -0.205301 -0.0259344)
(1.07671 -0.147849 -0.0219808)
(1.17027 0.00574083 -0.0172155)
(1.16906 0.00596555 -0.015561)
(1.16622 0.000632787 -0.0161798)
(1.17118 0.006066 -0.0171749)
(1.17119 0.00361447 -0.0154362)
(1.18423 -0.00159897 -0.00965094)
(1.18312 -0.00176989 -0.0105598)
(1.18614 -0.0013325 -0.00928865)
(1.18551 -0.00278883 -0.00977155)
(1.18558 -0.00152197 -0.0100986)
(1.19184 -0.000513209 -0.00585898)
(1.19159 -0.000560258 -0.00635379)
(1.19273 -0.000447366 -0.00560369)
(1.19254 -0.00106454 -0.00590708)
(1.19263 -0.000480754 -0.0060255)
(1.19515 -0.000208705 -0.00356638)
(1.19509 -0.000226911 -0.00385433)
(1.19562 -0.000182915 -0.00340634)
(1.19571 -0.000493375 -0.00359718)
(1.19561 -0.000195453 -0.00364523)
(1.1968 -9.57533e-05 -0.00218865)
(1.19678 -0.000102592 -0.00236061)
(1.19706 -8.69101e-05 -0.00209205)
(1.19738 -0.000256708 -0.00221289)
(1.19707 -9.17316e-05 -0.00223324)
(1.19771 -5.42691e-05 -0.00135837)
(1.1977 -5.7129e-05 -0.0014624)
(1.19787 -5.09156e-05 -0.00129966)
(1.19834 -0.000149804 -0.00137521)
(1.19787 -5.31375e-05 -0.00138492)
(1.19826 -3.71582e-05 -0.000851165)
(1.19826 -3.85824e-05 -0.000915322)
(1.19836 -3.56683e-05 -0.000815335)
(1.19892 -9.54645e-05 -0.000862394)
(1.19837 -3.6861e-05 -0.000867718)
(1.19863 -2.92959e-05 -0.000538337)
(1.19862 -2.97108e-05 -0.000578251)
(1.19869 -2.85317e-05 -0.000515855)
(1.19928 -6.50322e-05 -0.000544932)
(1.19869 -2.88643e-05 -0.000548492)
(1.19888 -2.84016e-05 -0.00034089)
(1.19887 -2.81623e-05 -0.000366386)
(1.19892 -2.85752e-05 -0.000326672)
(1.1995 -4.96401e-05 -0.000345331)
(1.19891 -2.81675e-05 -0.000347757)
(1.19907 -2.92531e-05 -0.000216382)
(1.19906 -2.90457e-05 -0.000232355)
(1.19911 -2.93246e-05 -0.000207403)
(1.19964 -3.99668e-05 -0.000219011)
(1.1991 -2.89817e-05 -0.00022055)
(1.19923 -3.11267e-05 -0.000135563)
(1.19922 -3.09919e-05 -0.000146043)
(1.19925 -3.17415e-05 -0.000129824)
(1.19972 -3.48077e-05 -0.000138015)
(1.19924 -3.14398e-05 -0.000138577)
(1.19937 -3.70618e-05 -8.35033e-05)
(1.19935 -3.62224e-05 -9.01665e-05)
(1.19939 -3.83047e-05 -7.94242e-05)
(1.19978 -3.37688e-05 -8.50631e-05)
(1.19938 -3.7403e-05 -8.50015e-05)
(1.1995 -4.52521e-05 -4.84132e-05)
(1.19949 -4.4539e-05 -5.28828e-05)
(1.19952 -4.56198e-05 -4.53074e-05)
(1.19981 -3.58667e-05 -4.95624e-05)
(1.19951 -4.55948e-05 -4.93322e-05)
(1.3503 -0.0118805 -0.00296447)
(1.3226 -0.0127039 -0.00228358)
(1.31119 -0.0331875 -0.005906)
(1.31711 -0.0130111 -0.00227674)
(1.30082 -0.00775013 -0.00327921)
(1.20313 -0.0748031 -0.0170343)
(1.22016 -0.0567245 -0.0161072)
(1.20637 -0.0512884 -0.0143932)
(1.20579 -0.0494466 -0.0165828)
(1.20059 -0.0471036 -0.0166566)
(1.21144 -0.0516251 -0.0151892)
(1.18575 -0.0230023 -0.0124722)
(1.18407 -0.0222373 -0.013826)
(1.18663 -0.0261358 -0.0140936)
(1.18717 -0.0219923 -0.0133015)
(1.1875 -0.0201187 -0.0127811)
(1.19062 -0.0223381 -0.0128152)
(1.1907 -0.00877334 -0.00841125)
(1.19033 -0.00816054 -0.00882046)
(1.19079 -0.00964701 -0.0091432)
(1.19176 -0.00778466 -0.00813852)
(1.19233 -0.00892454 -0.00836715)
(1.19178 -0.00832049 -0.00868573)
(1.1942 -0.00410948 -0.00531761)
(1.19419 -0.0037031 -0.00549388)
(1.19419 -0.00439241 -0.00573198)
(1.19484 -0.00369568 -0.00509646)
(1.19493 -0.00426847 -0.00528002)
(1.19488 -0.00389598 -0.0054491)
(1.19638 -0.00217224 -0.00332042)
(1.19644 -0.00193213 -0.00341116)
(1.19638 -0.00229438 -0.00357635)
(1.19678 -0.0019791 -0.00317779)
(1.19677 -0.0022897 -0.0033098)
(1.19681 -0.00207106 -0.00339053)
(1.19772 -0.00124035 -0.00207408)
(1.19778 -0.00109813 -0.00212406)
(1.19772 -0.00130271 -0.00223201)
(1.19797 -0.00114071 -0.00198531)
(1.19795 -0.00132099 -0.0020737)
(1.19799 -0.00119007 -0.00211544)
(1.19855 -0.00074014 -0.00130264)
(1.1986 -0.00065484 -0.00133113)
(1.19856 -0.000776143 -0.00140048)
(1.19871 -0.000685099 -0.00124767)
(1.19869 -0.000794285 -0.00130556)
(1.19872 -0.000714612 -0.00132805)
(1.19908 -0.000453357 -0.000823154)
(1.1991 -0.000401486 -0.000839889)
(1.19908 -0.00047519 -0.00088427)
(1.19917 -0.000421727 -0.000788986)
(1.19916 -0.00048948 -0.000826529)
(1.19918 -0.000440006 -0.000839136)
(1.19941 -0.000282513 -0.000522536)
(1.19942 -0.000250599 -0.000532512)
(1.19941 -0.000296235 -0.000561029)
(1.19947 -0.000263584 -0.000500884)
(1.19946 -0.000306906 -0.000525248)
(1.19947 -0.000275252 -0.000532456)
(1.19962 -0.000176472 -0.000332417)
(1.19963 -0.000157752 -0.000338515)
(1.19962 -0.000185492 -0.000356808)
(1.19966 -0.000164643 -0.000318709)
(1.19965 -0.000193787 -0.000334549)
(1.19966 -0.00017251 -0.000338801)
(1.19975 -0.000107865 -0.000211475)
(1.19976 -9.83581e-05 -0.000215319)
(1.19975 -0.000113874 -0.000227137)
(1.19978 -0.000100603 -0.000202932)
(1.19977 -0.000121201 -0.000213273)
(1.19978 -0.00010582 -0.000215845)
(1.19984 -6.52453e-05 -0.000134442)
(1.19984 -6.19699e-05 -0.000136848)
(1.19984 -6.92007e-05 -0.000144512)
(1.19986 -6.06747e-05 -0.000128712)
(1.19985 -7.69732e-05 -0.00013585)
(1.19986 -6.4248e-05 -0.000137162)
(1.1999 -3.58341e-05 -8.26116e-05)
(1.19989 -3.81391e-05 -8.43553e-05)
(1.1999 -3.88048e-05 -8.92359e-05)
(1.19991 -3.25758e-05 -7.86665e-05)
(1.1999 -4.68424e-05 -8.37949e-05)
(1.19991 -3.52743e-05 -8.41336e-05)
(1.19992 -1.52449e-05 -4.84636e-05)
(1.19993 -2.15596e-05 -4.96053e-05)
(1.19993 -1.72315e-05 -5.29336e-05)
(1.19993 -1.33354e-05 -4.54968e-05)
(1.19993 -2.54125e-05 -4.94242e-05)
(1.19993 -1.50638e-05 -4.95334e-05)
(1.25046 0.000758257 -0.00386441)
(1.24895 0.00144641 -0.00474765)
(1.24549 -0.00193339 -0.00768224)
(1.24452 0.00474076 -0.00546267)
(1.24657 5.16147e-05 -0.00436466)
(1.22021 -0.0153144 -0.0135215)
(1.21581 -0.0164787 -0.0112105)
(1.2184 -0.0171998 -0.0123791)
(1.21724 -0.00817479 -0.0116743)
(1.21578 -0.0158231 -0.0123383)
(1.21285 -0.0163586 -0.0135617)
(1.1996 -0.0141389 -0.00936309)
(1.20115 -0.0141032 -0.0104251)
(1.20156 -0.0144534 -0.0110558)
(1.19996 -0.0131039 -0.00999704)
(1.20259 -0.0120147 -0.00966679)
(1.20076 -0.0133941 -0.00973283)
(1.19717 -0.00870826 -0.00655421)
(1.19726 -0.00856226 -0.00696226)
(1.19786 -0.00908337 -0.00717675)
(1.19763 -0.00796818 -0.00641841)
(1.19843 -0.00821925 -0.00649662)
(1.198 -0.00824426 -0.00665165)
(1.19734 -0.00516507 -0.00434214)
(1.19724 -0.0050054 -0.00452752)
(1.19756 -0.00538471 -0.00464327)
(1.19766 -0.00473376 -0.00417533)
(1.19793 -0.00502566 -0.00426592)
(1.19785 -0.00490399 -0.00442477)
(1.19798 -0.00310358 -0.00282211)
(1.19794 -0.00296712 -0.00292794)
(1.19807 -0.0032358 -0.00302246)
(1.19822 -0.00285699 -0.00270995)
(1.19834 -0.00307302 -0.00278624)
(1.19832 -0.00296207 -0.00287653)
(1.1986 -0.00189883 -0.0018179)
(1.19859 -0.0018045 -0.00187794)
(1.19864 -0.00198055 -0.00194855)
(1.19877 -0.00175695 -0.00174502)
(1.19883 -0.00190289 -0.00180253)
(1.19882 -0.00182347 -0.0018528)
(1.19906 -0.00118067 -0.00116923)
(1.19906 -0.00111943 -0.00120383)
(1.19909 -0.00123282 -0.00125337)
(1.19917 -0.00109687 -0.0011222)
(1.19921 -0.00119241 -0.0011633)
(1.1992 -0.00114016 -0.00119171)
(1.19938 -0.00074186 -0.000752706)
(1.19938 -0.000703018 -0.000772573)
(1.1994 -0.000775653 -0.000806301)
(1.19946 -0.000691991 -0.000722571)
(1.19947 -0.000754021 -0.000751086)
(1.19947 -0.000720387 -0.000766668)
(1.1996 -0.000470671 -0.0004844)
(1.1996 -0.00044611 -0.000496012)
(1.19961 -0.000492781 -0.000519106)
(1.19965 -0.000439959 -0.000464677)
(1.19966 -0.000480216 -0.000484364)
(1.19966 -0.000459029 -0.00049314)
(1.19974 -0.000297417 -0.000311808)
(1.19974 -0.000282234 -0.000318875)
(1.19974 -0.000312115 -0.000334095)
(1.19977 -0.000278494 -0.000299444)
(1.19978 -0.000304424 -0.000312572)
(1.19978 -0.000291118 -0.000317825)
(1.19983 -0.000190942 -0.000200634)
(1.19983 -0.000180655 -0.000205103)
(1.19984 -0.000200177 -0.000215345)
(1.19986 -0.000179495 -0.000192982)
(1.19986 -0.000196748 -0.000201846)
(1.19986 -0.000187685 -0.000205073)
(1.1999 -0.000120391 -0.000129309)
(1.1999 -0.000114442 -0.000131693)
(1.1999 -0.000127237 -0.000138665)
(1.19991 -0.000112664 -0.000123754)
(1.19992 -0.000123898 -0.000130052)
(1.19992 -0.000118751 -0.000131595)
(1.19993 -7.14486e-05 -8.03418e-05)
(1.19993 -6.85508e-05 -8.18852e-05)
(1.19994 -7.62142e-05 -8.66352e-05)
(1.19994 -6.61674e-05 -7.66201e-05)
(1.19995 -7.40215e-05 -8.09132e-05)
(1.19995 -7.0477e-05 -8.18747e-05)
(1.19996 -3.87484e-05 -4.69121e-05)
(1.19996 -3.87949e-05 -4.81707e-05)
(1.19996 -4.17842e-05 -5.13815e-05)
(1.19996 -3.52082e-05 -4.40726e-05)
(1.19997 -4.12944e-05 -4.74285e-05)
(1.19997 -3.8006e-05 -4.811e-05)
(1.31005 0.0810058 -0.00713032)
(1.29146 0.0574294 -0.00261374)
(1.29502 0.0806799 -0.00230526)
(1.31203 0.0704289 -0.00439003)
(1.30402 0.076069 -0.00606028)
(1.19303 0.000299572 -0.0177373)
(1.19292 -0.00204163 -0.0137218)
(1.20214 0.0071713 -0.0129517)
(1.19008 0.00883009 -0.0161747)
(1.19602 -0.0017063 -0.0184056)
(1.19589 -0.000520612 -0.0146381)
(1.19699 -0.00557432 -0.00940074)
(1.19681 -0.00649974 -0.00791753)
(1.20109 -0.00710487 -0.00815185)
(1.20175 -0.00868016 -0.00780711)
(1.19847 -0.00627271 -0.00824808)
(1.19877 -0.00643918 -0.0079653)
(1.20004 -0.00655185 -0.00497193)
(1.20047 -0.0065614 -0.00523395)
(1.20051 -0.00650068 -0.00539734)
(1.20032 -0.00613927 -0.00483466)
(1.20078 -0.00630211 -0.00485368)
(1.20067 -0.00616936 -0.00503091)
(1.19966 -0.00474176 -0.00334386)
(1.19962 -0.00469975 -0.0035049)
(1.1999 -0.00484496 -0.00355839)
(1.19981 -0.00440968 -0.00322601)
(1.20007 -0.00454273 -0.00326371)
(1.20003 -0.00450082 -0.00340028)
(1.19952 -0.00316486 -0.00225085)
(1.19947 -0.00311656 -0.00235134)
(1.19966 -0.00326344 -0.00239883)
(1.19964 -0.00293999 -0.00217054)
(1.19981 -0.00305785 -0.00220886)
(1.19977 -0.00302256 -0.00229311)
(1.19957 -0.0020607 -0.00150293)
(1.19955 -0.00202143 -0.00156261)
(1.19965 -0.00213568 -0.00160339)
(1.19967 -0.00191719 -0.00144839)
(1.19975 -0.00198023 -0.00153168)
(1.19968 -0.00133016 -0.000997324)
(1.19966 -0.0013027 -0.00103202)
(1.19973 -0.00138341 -0.00106452)
(1.19975 -0.00124052 -0.000960117)
(1.19979 -0.00128553 -0.0010156)
(1.19977 -0.000858152 -0.000660964)
(1.19976 -0.000840103 -0.000680933)
(1.1998 -0.000894815 -0.000705015)
(1.19982 -0.000802295 -0.000635953)
(1.19985 -0.000833783 -0.000672246)
(1.19984 -0.000551976 -0.00043408)
(1.19984 -0.000540432 -0.000446177)
(1.19986 -0.000577103 -0.000464289)
(1.19988 -0.000516816 -0.000417171)
(1.1999 -0.000538583 -0.000442042)
(1.1999 -0.000356973 -0.000283521)
(1.1999 -0.000348806 -0.000291336)
(1.19991 -0.000373035 -0.000303372)
(1.19993 -0.000335497 -0.000273274)
(1.19994 -0.000349362 -0.000289685)
(1.19994 -0.000230822 -0.000186988)
(1.19994 -0.000226581 -0.000191154)
(1.19995 -0.000242615 -0.000199636)
(1.19996 -0.000216591 -0.00018007)
(1.19997 -0.000227113 -0.000190424)
(1.19997 -0.000143757 -0.000122068)
(1.19997 -0.000141169 -0.0001245)
(1.19997 -0.000151834 -0.00013082)
(1.19998 -0.000134442 -0.000116649)
(1.19998 -0.000141582 -0.000124014)
(1.19999 -8.66024e-05 -7.60333e-05)
(1.19998 -8.48458e-05 -7.77602e-05)
(1.19999 -9.20735e-05 -8.2001e-05)
(1.19999 -8.06706e-05 -7.28142e-05)
(1.2 -8.55652e-05 -7.79443e-05)
(1.2 -4.87896e-05 -4.41758e-05)
(1.2 -4.782e-05 -4.51442e-05)
(1.2 -5.25839e-05 -4.8347e-05)
(1.2 -4.43557e-05 -4.14309e-05)
(1.20001 -4.80439e-05 -4.50705e-05)
(0.954655 -0.253361 -0.0503952)
(1.04645 -0.187869 -0.0494577)
(1.10173 -0.142214 -0.0467093)
(1.06858 -0.134844 -0.0706774)
(1.1072 -0.123428 -0.0418256)
(1.19188 0.00893049 -0.0256778)
(1.18438 0.00679415 -0.0219328)
(1.18362 0.00281584 -0.0216331)
(1.18618 0.00391269 -0.0187893)
(1.18632 0.00402594 -0.0191981)
(1.19051 -0.00120811 -0.0109224)
(1.19025 -0.00133885 -0.0118671)
(1.19222 -0.000958657 -0.0101815)
(1.19194 -0.00203764 -0.0108005)
(1.19241 -0.00104304 -0.0110006)
(1.19522 -0.000370298 -0.00613123)
(1.19533 -0.000396363 -0.00654821)
(1.19593 -0.000315324 -0.00570274)
(1.19597 -0.000784952 -0.0060328)
(1.19611 -0.000331121 -0.00599792)
(1.19704 -0.000154593 -0.00362388)
(1.19713 -0.000164395 -0.00383288)
(1.19739 -0.000135056 -0.0033724)
(1.19767 -0.000380445 -0.00356791)
(1.19751 -0.000141266 -0.00352353)
(1.19789 -7.89298e-05 -0.00220226)
(1.19795 -8.2539e-05 -0.00231847)
(1.19809 -7.24075e-05 -0.00205158)
(1.19855 -0.000212339 -0.00217173)
(1.19816 -7.50026e-05 -0.00213595)
(1.19837 -5.00194e-05 -0.0013612)
(1.19841 -5.21928e-05 -0.00142938)
(1.19849 -4.74209e-05 -0.00126918)
(1.19905 -0.000131884 -0.00134402)
(1.19853 -4.91917e-05 -0.00131873)
(1.19867 -3.59437e-05 -0.000852702)
(1.19869 -3.71236e-05 -0.000893555)
(1.19875 -3.44412e-05 -0.000795935)
(1.19936 -8.69044e-05 -0.000841794)
(1.19877 -3.54505e-05 -0.000825438)
(1.19888 -2.7752e-05 -0.000537627)
(1.19889 -2.84596e-05 -0.000562895)
(1.19893 -2.72199e-05 -0.000501738)
(1.19955 -5.96968e-05 -0.0005306)
(1.19894 -2.75805e-05 -0.000519953)
(1.19904 -2.74637e-05 -0.000340327)
(1.19904 -2.73535e-05 -0.000356339)
(1.19907 -2.75023e-05 -0.000318023)
(1.19967 -4.6601e-05 -0.000336131)
(1.19908 -2.73671e-05 -0.000329403)
(1.19917 -2.84007e-05 -0.00021608)
(1.19916 -2.80988e-05 -0.00022596)
(1.19919 -2.87745e-05 -0.000201898)
(1.19974 -3.80897e-05 -0.000213334)
(1.19919 -2.84337e-05 -0.00020907)
(1.19929 -3.17624e-05 -0.000137034)
(1.19928 -3.13933e-05 -0.000143661)
(1.19931 -3.23363e-05 -0.000127651)
(1.19979 -3.44715e-05 -0.000135521)
(1.1993 -3.18617e-05 -0.000132598)
(1.1994 -3.86968e-05 -8.37882e-05)
(1.19939 -3.77976e-05 -8.86649e-05)
(1.19942 -3.99152e-05 -7.79426e-05)
(1.19982 -3.44401e-05 -8.34874e-05)
(1.19941 -3.89598e-05 -8.14656e-05)
(1.19953 -4.66102e-05 -4.83484e-05)
(1.19952 -4.59192e-05 -5.1526e-05)
(1.19955 -4.69367e-05 -4.40327e-05)
(1.19984 -3.68473e-05 -4.81631e-05)
(1.19954 -4.68515e-05 -4.69406e-05)
(1.30752 -0.0111485 -0.00348186)
(1.29118 -0.0123292 -0.00226885)
(1.27845 -0.0256841 -0.00933015)
(1.27719 -0.0115172 -0.00200601)
(1.272 -0.00714931 -0.00259424)
(1.20482 -0.0493983 -0.0287934)
(1.21607 -0.0378168 -0.0278967)
(1.20635 -0.0368236 -0.0261017)
(1.20863 -0.0306341 -0.0273613)
(1.20366 -0.0312954 -0.0259099)
(1.21055 -0.0348364 -0.022477)
(1.19278 -0.0167657 -0.0156945)
(1.19218 -0.0152862 -0.0168251)
(1.19419 -0.0178813 -0.0171335)
(1.19532 -0.0145741 -0.0157564)
(1.19445 -0.0139231 -0.0147644)
(1.19649 -0.0154999 -0.0146503)
(1.19533 -0.00657243 -0.00912202)
(1.19533 -0.00593284 -0.00940182)
(1.19578 -0.00696707 -0.00975407)
(1.1962 -0.00570385 -0.00854048)
(1.1967 -0.0065213 -0.00875122)
(1.19664 -0.00592217 -0.00898844)
(1.19707 -0.00319136 -0.0054806)
(1.19719 -0.00282792 -0.00554707)
(1.19729 -0.00334281 -0.00580064)
(1.19758 -0.00284557 -0.00511497)
(1.19773 -0.00327418 -0.0053001)
(1.19781 -0.00294455 -0.00534588)
(1.19814 -0.00175207 -0.0033568)
(1.19825 -0.00154336 -0.00336862)
(1.19827 -0.00182538 -0.00353412)
(1.19845 -0.00159066 -0.00313106)
(1.1985 -0.00183294 -0.00326111)
(1.19858 -0.00164467 -0.00325985)
(1.1988 -0.00103512 -0.0020835)
(1.19888 -0.000911357 -0.00208166)
(1.19888 -0.00107675 -0.0021879)
(1.19899 -0.000950947 -0.00194409)
(1.19901 -0.0010974 -0.0020306)
(1.19907 -0.000984116 -0.00202001)
(1.19922 -0.000636809 -0.00130507)
(1.19927 -0.000561439 -0.0013004)
(1.19927 -0.000662956 -0.00136832)
(1.19934 -0.000589582 -0.00121843)
(1.19935 -0.000681752 -0.00127497)
(1.19939 -0.000611396 -0.00126429)
(1.1995 -0.00039947 -0.000823899)
(1.19953 -0.000353199 -0.000819444)
(1.19952 -0.000416746 -0.000862833)
(1.19957 -0.000371626 -0.000769686)
(1.19957 -0.000430623 -0.000806484)
(1.1996 -0.000386517 -0.0007979)
(1.19967 -0.000252822 -0.000522324)
(1.19969 -0.000224061 -0.000519011)
(1.19969 -0.0002641 -0.000546845)
(1.19972 -0.00023586 -0.000488189)
(1.19972 -0.000274439 -0.000511894)
(1.19974 -0.000245707 -0.000505991)
(1.19979 -0.000160373 -0.000332561)
(1.1998 -0.000143411 -0.000330065)
(1.1998 -0.000167931 -0.000347929)
(1.19982 -0.000149816 -0.000310865)
(1.19982 -0.000176237 -0.000326195)
(1.19983 -0.000156503 -0.000321977)
(1.19986 -0.000100271 -0.000212228)
(1.19987 -9.16795e-05 -0.000210378)
(1.19987 -0.000105618 -0.000221924)
(1.19988 -9.37885e-05 -0.000198399)
(1.19988 -0.000113089 -0.00020859)
(1.19989 -9.84834e-05 -0.000205384)
(1.19991 -6.10101e-05 -0.000134691)
(1.19991 -5.84081e-05 -0.000133652)
(1.19992 -6.46857e-05 -0.000141091)
(1.19992 -5.65097e-05 -0.000125513)
(1.19993 -7.23801e-05 -0.000132482)
(1.19993 -5.98401e-05 -0.000130293)
(1.19994 -3.34181e-05 -8.2822e-05)
(1.19994 -3.62526e-05 -8.24679e-05)
(1.19995 -3.60291e-05 -8.7315e-05)
(1.19995 -3.04254e-05 -7.70501e-05)
(1.19995 -4.4564e-05 -8.18566e-05)
(1.19996 -3.28067e-05 -8.04801e-05)
(1.19996 -1.46846e-05 -4.85001e-05)
(1.19996 -2.16044e-05 -4.81904e-05)
(1.19996 -1.65841e-05 -5.16302e-05)
(1.19996 -1.27978e-05 -4.44932e-05)
(1.19997 -2.45334e-05 -4.80785e-05)
(1.19997 -1.45725e-05 -4.71619e-05)
(1.23399 -0.00135465 -0.003736)
(1.23403 -0.000756614 -0.00241818)
(1.23082 -0.0034651 -0.00518934)
(1.22976 -0.000162537 -0.00237019)
(1.23021 -0.00130404 -0.00316373)
(1.21789 -0.0117053 -0.0114238)
(1.21567 -0.0126951 -0.0120959)
(1.21626 -0.0135539 -0.011283)
(1.21576 -0.00982226 -0.0097784)
(1.21541 -0.011209 -0.0111665)
(1.21354 -0.0121744 -0.0116773)
(1.2036 -0.0106053 -0.00978742)
(1.20386 -0.0105497 -0.00988339)
(1.205 -0.0105683 -0.0100459)
(1.20342 -0.00959377 -0.00922398)
(1.20491 -0.00926284 -0.00879329)
(1.2045 -0.00952076 -0.00938111)
(1.20021 -0.00666502 -0.00663062)
(1.20018 -0.00648514 -0.00682199)
(1.20085 -0.00679655 -0.00690154)
(1.20041 -0.00602071 -0.00623404)
(1.201 -0.00622354 -0.00625941)
(1.20094 -0.00610325 -0.00642377)
(1.19941 -0.00407351 -0.00436388)
(1.19941 -0.0039002 -0.00445437)
(1.19973 -0.00418366 -0.00455415)
(1.19963 -0.00370994 -0.00409159)
(1.1999 -0.00392931 -0.00417125)
(1.19991 -0.00379076 -0.00422922)
(1.19935 -0.00252489 -0.00282726)
(1.19937 -0.00239469 -0.00286396)
(1.19953 -0.00260318 -0.00295376)
(1.19953 -0.00231842 -0.00264702)
(1.19967 -0.00248709 -0.00271924)
(1.19969 -0.00238032 -0.00273891)
(1.19949 -0.00159331 -0.00181937)
(1.19951 -0.00150635 -0.00183342)
(1.19959 -0.00164769 -0.00190164)
(1.19961 -0.00147315 -0.0017025)
(1.19969 -0.00159089 -0.00175815)
(1.19971 -0.00151809 -0.00176229)
(1.19963 -0.00101715 -0.00117)
(1.19965 -0.000961659 -0.00117437)
(1.19969 -0.00105554 -0.00122234)
(1.19971 -0.000944852 -0.00109506)
(1.19976 -0.00102453 -0.00113477)
(1.19977 -0.000977578 -0.00113282)
(1.19975 -0.00065403 -0.0007528)
(1.19976 -0.000618162 -0.000753991)
(1.19978 -0.000679982 -0.000787196)
(1.1998 -0.000610194 -0.000704619)
(1.19983 -0.000663373 -0.000732647)
(1.19984 -0.000632694 -0.000729775)
(1.19984 -0.000423258 -0.000483139)
(1.19984 -0.000400196 -0.00048281)
(1.19986 -0.000441269 -0.000505032)
(1.19987 -0.000395814 -0.000452304)
(1.19989 -0.000431437 -0.000471192)
(1.19989 -0.000411647 -0.000468295)
(1.1999 -0.00027276 -0.000311861)
(1.1999 -0.000258512 -0.000310765)
(1.19991 -0.000285298 -0.000325572)
(1.19992 -0.000255931 -0.00029202)
(1.19993 -0.000279233 -0.000304798)
(1.19993 -0.000266796 -0.000301862)
(1.19994 -0.000177354 -0.000201995)
(1.19994 -0.00016768 -0.000200989)
(1.19995 -0.000185494 -0.000210839)
(1.19995 -0.000166657 -0.000189008)
(1.19996 -0.000182344 -0.000197544)
(1.19996 -0.00017391 -0.000195356)
(1.19997 -0.000113163 -0.000128842)
(1.19997 -0.000107259 -0.000128067)
(1.19997 -0.000119212 -0.000134928)
(1.19998 -0.000105859 -0.000120241)
(1.19998 -0.000116504 -0.000126308)
(1.19998 -0.000111403 -0.000124746)
(1.19998 -6.79498e-05 -8.04271e-05)
(1.19998 -6.54561e-05 -7.98837e-05)
(1.19999 -7.24287e-05 -8.44887e-05)
(1.19999 -6.30875e-05 -7.49176e-05)
(1.19999 -7.07478e-05 -7.91478e-05)
(1.19999 -6.72142e-05 -7.8042e-05)
(1.19999 -3.60865e-05 -4.78099e-05)
(1.19999 -3.65495e-05 -4.73665e-05)
(1.19999 -3.91953e-05 -5.07233e-05)
(1.2 -3.28087e-05 -4.3739e-05)
(1.2 -3.87003e-05 -4.68986e-05)
(1.2 -3.56186e-05 -4.62346e-05)
(1.23224 0.00597422 -0.0125259)
(1.2259 0.00258064 -0.0067627)
(1.22315 0.00430768 -0.0123711)
(1.22669 0.00242365 -0.00914342)
(1.22488 0.00276358 -0.00771424)
(1.20967 -0.00145853 -0.0125443)
(1.21225 -0.000832527 -0.0132526)
(1.21228 -0.00382997 -0.010154)
(1.21021 -0.00366001 -0.0111682)
(1.21033 -0.00273127 -0.0118851)
(1.21105 -0.00223636 -0.0106625)
(1.20418 -0.00542672 -0.0078456)
(1.20558 -0.00587525 -0.00711838)
(1.20553 -0.00527492 -0.00803372)
(1.20539 -0.00576032 -0.00689407)
(1.20463 -0.00544236 -0.00699846)
(1.20531 -0.00519475 -0.00699416)
(1.20235 -0.00512259 -0.00485451)
(1.20253 -0.00509499 -0.00491211)
(1.20287 -0.00507562 -0.00500691)
(1.20243 -0.00478626 -0.00454348)
(1.20283 -0.0048529 -0.00454602)
(1.20287 -0.00475762 -0.00462764)
(1.20114 -0.00376762 -0.00330758)
(1.20114 -0.00370833 -0.00338076)
(1.20144 -0.00380792 -0.00342035)
(1.20121 -0.00349159 -0.00311022)
(1.20147 -0.00357781 -0.00314041)
(1.20148 -0.00352754 -0.00318778)
(1.20053 -0.0025906 -0.00224312)
(1.20052 -0.00253599 -0.00228411)
(1.20072 -0.00264608 -0.00232685)
(1.20061 -0.00240285 -0.00210876)
(1.20078 -0.00249094 -0.00214377)
(1.20078 -0.00245038 -0.00216843)
(1.20026 -0.00173687 -0.00150177)
(1.20025 -0.00169665 -0.00152159)
(1.20037 -0.00178657 -0.00156107)
(1.20032 -0.00161526 -0.00141021)
(1.20043 -0.00168737 -0.00144286)
(1.20042 -0.0016582 -0.0014527)
(1.20013 -0.00114993 -0.000997686)
(1.20013 -0.00112244 -0.00100717)
(1.2002 -0.00118874 -0.00103837)
(1.20018 -0.00107269 -0.000937372)
(1.20025 -0.00112624 -0.000963658)
(1.20024 -0.00110644 -0.000966486)
(1.20008 -0.000759654 -0.000658223)
(1.20008 -0.000741769 -0.000662388)
(1.20012 -0.000788137 -0.000686367)
(1.20011 -0.000710538 -0.000617725)
(1.20015 -0.000735561 -0.000638547)
(1.20005 -0.000498566 -0.000432375)
(1.20005 -0.000487531 -0.000433346)
(1.20008 -0.000519249 -0.000450299)
(1.20008 -0.000467466 -0.000405942)
(1.2001 -0.000485631 -0.000418902)
(1.20004 -0.000326455 -0.000285137)
(1.20004 -0.000319031 -0.000284996)
(1.20006 -0.000340619 -0.000297157)
(1.20006 -0.000306826 -0.000267158)
(1.20008 -0.000319215 -0.000275786)
(1.20004 -0.000214902 -0.000185715)
(1.20003 -0.000210318 -0.000185233)
(1.20005 -0.000224695 -0.000193433)
(1.20005 -0.000201723 -0.00017385)
(1.20006 -0.000210664 -0.000179397)
(1.20003 -0.000135438 -0.00012154)
(1.20003 -0.000133187 -0.000120959)
(1.20004 -0.000142946 -0.000126712)
(1.20004 -0.00012692 -0.000113987)
(1.20005 -0.000133567 -0.000117773)
(1.20003 -8.30016e-05 -7.72671e-05)
(1.20003 -8.1297e-05 -7.68379e-05)
(1.20003 -8.81923e-05 -8.13159e-05)
(1.20003 -7.73621e-05 -7.19643e-05)
(1.20004 -8.2218e-05 -7.50819e-05)
(1.20003 -4.57698e-05 -4.52704e-05)
(1.20003 -4.47166e-05 -4.52767e-05)
(1.20003 -4.93633e-05 -4.84658e-05)
(1.20003 -4.18161e-05 -4.15547e-05)
(1.20004 -4.51801e-05 -4.43577e-05)
(1.24701 -0.00433979 -0.0480432)
(1.24501 -0.0137172 0.032491)
(1.26912 -0.0232039 0.026793)
(1.24436 -0.00493647 0.000894094)
(1.20705 -0.0035985 -0.0348489)
(1.19549 -0.00606656 -0.0243762)
(1.19842 -0.00795071 -0.0262535)
(1.19697 -0.00397858 -0.0263431)
(1.20755 -0.00299842 -0.02847)
(1.19741 -0.00133852 -0.0195543)
(1.19861 -0.00159743 -0.0192138)
(1.1989 -0.00271453 -0.0171792)
(1.19831 -0.00122334 -0.0160551)
(1.20071 -0.00107468 -0.0165188)
(1.19801 -0.000546715 -0.00913975)
(1.19875 -0.000559689 -0.00950735)
(1.19885 -0.000446556 -0.00810032)
(1.1991 -0.00104392 -0.00858939)
(1.1995 -0.00045029 -0.00820882)
(1.1986 -0.000223489 -0.00504106)
(1.19896 -0.000231684 -0.00518348)
(1.19898 -0.000188619 -0.00450281)
(1.19931 -0.000505558 -0.00477173)
(1.1993 -0.000193531 -0.00455056)
(1.19879 -0.000107029 -0.00294068)
(1.19899 -0.000110824 -0.00300704)
(1.19898 -9.59314e-05 -0.00264118)
(1.19947 -0.000279023 -0.00279962)
(1.19916 -9.85226e-05 -0.00266087)
(1.19888 -6.57702e-05 -0.00177675)
(1.19899 -6.79392e-05 -0.00180995)
(1.199 -6.1719e-05 -0.00160046)
(1.19958 -0.000174629 -0.00169611)
(1.19909 -6.35581e-05 -0.00160827)
(1.19896 -4.64986e-05 -0.00109561)
(1.19902 -4.79616e-05 -0.00111368)
(1.19904 -4.42417e-05 -0.000988455)
(1.19967 -0.000116002 -0.00104659)
(1.19909 -4.55892e-05 -0.00099167)
(1.19904 -3.38622e-05 -0.000684196)
(1.19907 -3.48505e-05 -0.000694202)
(1.19908 -3.24587e-05 -0.00061757)
(1.19974 -7.84043e-05 -0.000653316)
(1.19911 -3.33308e-05 -0.000618521)
(1.19911 -2.72523e-05 -0.000430003)
(1.19912 -2.78039e-05 -0.000435787)
(1.19914 -2.70442e-05 -0.00038822)
(1.19978 -5.66681e-05 -0.00041101)
(1.19915 -2.73292e-05 -0.000388511)
(1.19918 -2.73775e-05 -0.000272372)
(1.19919 -2.73112e-05 -0.000275937)
(1.1992 -2.74118e-05 -0.000246323)
(1.19982 -4.51478e-05 -0.000260486)
(1.19921 -2.73667e-05 -0.00024631)
(1.19926 -2.84954e-05 -0.000173883)
(1.19926 -2.8091e-05 -0.000175697)
(1.19928 -2.886e-05 -0.000157107)
(1.19984 -3.69436e-05 -0.000166046)
(1.19927 -2.84499e-05 -0.000156973)
(1.19934 -3.19685e-05 -0.000110468)
(1.19934 -3.13565e-05 -0.000112289)
(1.19936 -3.26893e-05 -9.97303e-05)
(1.19985 -3.34757e-05 -0.000105603)
(1.19935 -3.17782e-05 -0.000100361)
(1.19944 -4.00605e-05 -6.73017e-05)
(1.19943 -3.90427e-05 -6.85405e-05)
(1.19946 -4.12933e-05 -6.06696e-05)
(1.19986 -3.53183e-05 -6.49637e-05)
(1.19945 -4.03829e-05 -6.12547e-05)
(1.19956 -4.72147e-05 -3.89902e-05)
(1.19955 -4.65405e-05 -4.02274e-05)
(1.19958 -4.73499e-05 -3.44523e-05)
(1.19987 -3.74028e-05 -3.7339e-05)
(1.19956 -4.72769e-05 -3.52431e-05)
(1.23834 -0.00101766 -0.00163171)
(1.23841 -0.00797259 -0.000963093)
(1.23307 -0.00842906 -0.00477084)
(1.23215 -0.00457955 -0.00151233)
(1.23108 -0.0015693 -0.00250243)
(1.21446 -0.0122499 -0.0189012)
(1.21231 -0.0135852 -0.0181762)
(1.21556 -0.0127133 -0.0167467)
(1.21123 -0.0115002 -0.0168031)
(1.21362 -0.0119382 -0.0148432)
(1.21442 -0.00891723 -0.0159077)
(1.20271 -0.00784963 -0.0128251)
(1.20291 -0.00686067 -0.0128885)
(1.20418 -0.00761577 -0.0128856)
(1.20302 -0.00647828 -0.0113612)
(1.20414 -0.00713961 -0.011237)
(1.20434 -0.0061984 -0.0112943)
(1.20035 -0.00400864 -0.00753015)
(1.2006 -0.00347931 -0.00741802)
(1.20109 -0.00402427 -0.00766975)
(1.20076 -0.00346435 -0.00672446)
(1.20122 -0.00391754 -0.00687292)
(1.20136 -0.00346352 -0.00674227)
(1.19986 -0.00223474 -0.0044701)
(1.20003 -0.00194595 -0.00436462)
(1.20023 -0.00227691 -0.00455985)
(1.20014 -0.0019973 -0.00401609)
(1.20034 -0.0022782 -0.00415711)
(1.20045 -0.00202722 -0.00403707)
(1.19978 -0.00134195 -0.00271581)
(1.19988 -0.00117391 -0.00263624)
(1.19998 -0.00137757 -0.00276491)
(1.19995 -0.00122427 -0.00244714)
(1.20005 -0.00140222 -0.00254761)
(1.20012 -0.00125334 -0.00245758)
(1.19979 -0.000842693 -0.00167939)
(1.19986 -0.00074077 -0.00162376)
(1.1999 -0.000869729 -0.00170641)
(1.1999 -0.000778371 -0.00151557)
(1.19995 -0.000894235 -0.00158282)
(1.2 -0.000801776 -0.00152004)
(1.19983 -0.000541312 -0.0010495)
(1.19987 -0.000477623 -0.00101211)
(1.1999 -0.000561042 -0.00106518)
(1.1999 -0.000503761 -0.000947928)
(1.19993 -0.000580518 -0.00099205)
(1.19996 -0.000521255 -0.000949959)
(1.19988 -0.000351564 -0.000661137)
(1.1999 -0.000311451 -0.000636124)
(1.19992 -0.000365832 -0.000669973)
(1.19992 -0.000328629 -0.000597429)
(1.19994 -0.000379974 -0.000626034)
(1.19996 -0.000341479 -0.000597808)
(1.19991 -0.000227134 -0.000419633)
(1.19992 -0.000202165 -0.000403105)
(1.19993 -0.000237326 -0.000424803)
(1.19994 -0.000212863 -0.00037941)
(1.19995 -0.000247191 -0.000398019)
(1.19996 -0.000222051 -0.000379326)
(1.19994 -0.00014617 -0.000266557)
(1.19994 -0.0001312 -0.000255882)
(1.19995 -0.000153104 -0.000269937)
(1.19996 -0.000137072 -0.000240988)
(1.19996 -0.000161218 -0.000253048)
(1.19997 -0.000143336 -0.000240988)
(1.19996 -9.33157e-05 -0.000170109)
(1.19996 -8.55777e-05 -0.000163365)
(1.19997 -9.80597e-05 -0.000172188)
(1.19997 -8.73975e-05 -0.000153988)
(1.19998 -0.000105658 -0.000161777)
(1.19998 -9.1728e-05 -0.000154095)
(1.19998 -5.64157e-05 -0.000107738)
(1.19998 -5.45357e-05 -0.0001035)
(1.19998 -5.99446e-05 -0.000109242)
(1.19998 -5.22529e-05 -9.72221e-05)
(1.19999 -6.7774e-05 -0.000102516)
(1.19999 -5.54314e-05 -9.74442e-05)
(1.19999 -3.12931e-05 -6.71004e-05)
(1.19998 -3.44603e-05 -6.44691e-05)
(1.19999 -3.36896e-05 -6.81846e-05)
(1.19999 -2.86479e-05 -6.02108e-05)
(1.19999 -4.25342e-05 -6.40035e-05)
(1.2 -3.08271e-05 -6.0577e-05)
(1.19999 -1.41635e-05 -3.92092e-05)
(1.19999 -2.09792e-05 -3.71026e-05)
(1.19999 -1.59271e-05 -4.01865e-05)
(1.19999 -1.24181e-05 -3.44034e-05)
(1.2 -2.43372e-05 -3.67729e-05)
(1.2 -1.38333e-05 -3.5411e-05)
(1.22118 -0.000699495 -0.00156197)
(1.22104 -0.000978743 -0.00132671)
(1.21958 -0.00183228 -0.00244855)
(1.21911 -0.000700517 -0.00116524)
(1.21901 -0.000535485 -0.0013614)
(1.21396 -0.00645396 -0.0076035)
(1.2139 -0.00643902 -0.00755162)
(1.21461 -0.00558601 -0.00668503)
(1.21343 -0.00534424 -0.00631326)
(1.21257 -0.00604688 -0.0072161)
(1.21339 -0.00521587 -0.0065153)
(1.20649 -0.00626703 -0.00728143)
(1.20654 -0.00600971 -0.00730167)
(1.20742 -0.0059269 -0.00702267)
(1.20614 -0.00560495 -0.00663344)
(1.2069 -0.00552516 -0.00639087)
(1.20691 -0.00535634 -0.00639201)
(1.20285 -0.00447643 -0.00524416)
(1.20289 -0.0042568 -0.0052318)
(1.20345 -0.00442528 -0.0052233)
(1.20286 -0.00403815 -0.00475713)
(1.20331 -0.00416633 -0.00475781)
(1.20336 -0.00400253 -0.00469615)
(1.20129 -0.00298895 -0.0034915)