/*--------------------------------*- C++ -*----------------------------------*\
| =========                 |                                                 |
| \\      /  F ield         | OpenFOAM: The Open Source CFD Toolbox           |
|  \\    /   O peration     | Version:  2012                                  |
|   \\  /    A nd           | Website:  www.openfoam.com                      |
|    \\/     M anipulation  |                                                 |
\*---------------------------------------------------------------------------*/
FoamFile
{
    version     2.0;
    format      ascii;
    class       surfaceVectorField;
    location    "0.104/fluid";
    object      Uf_0;
}
// * * * * * * * * * * * * * * * * * * * * * * * * * * * * * * * * * * * * * //

dimensions      [0 1 -1 0 0 0 0];


internalField   nonuniform List<vector> 
47129
(
(0.900753 -0.27601 -0.025099)
(1.01521 -0.207742 -0.0209917)
(1.07371 -0.183647 -0.0217098)
(1.01777 -0.204634 -0.0259088)
(1.07705 -0.147241 -0.0219624)
(1.17016 0.0057205 -0.0172026)
(1.16898 0.00590259 -0.0155506)
(1.16622 0.000558769 -0.0161645)
(1.1711 0.00600427 -0.0171626)
(1.17114 0.00355922 -0.0154234)
(1.18423 -0.00159684 -0.0096429)
(1.18313 -0.00176961 -0.0105508)
(1.18615 -0.00133068 -0.00928085)
(1.18552 -0.00278725 -0.00976315)
(1.18559 -0.00151984 -0.0100902)
(1.19184 -0.000512962 -0.0058541)
(1.19159 -0.000560022 -0.00634845)
(1.19274 -0.000447113 -0.00559896)
(1.19254 -0.0010643 -0.00590209)
(1.19264 -0.000480523 -0.00602038)
(1.19516 -0.000208563 -0.00356335)
(1.19509 -0.000226754 -0.00385103)
(1.19563 -0.000182802 -0.00340341)
(1.19571 -0.000493123 -0.0035941)
(1.19562 -0.00019533 -0.00364207)
(1.1968 -9.57288e-05 -0.00218677)
(1.19678 -0.000102563 -0.00235856)
(1.19706 -8.68929e-05 -0.00209024)
(1.19738 -0.000256569 -0.00221098)
(1.19707 -9.17124e-05 -0.00223129)
(1.19771 -5.42677e-05 -0.00135719)
(1.1977 -5.71263e-05 -0.00146112)
(1.19787 -5.09143e-05 -0.00129852)
(1.19834 -0.000149718 -0.001374)
(1.19788 -5.31354e-05 -0.00138369)
(1.19827 -3.71541e-05 -0.000850413)
(1.19826 -3.85787e-05 -0.000914511)
(1.19837 -3.56633e-05 -0.000814611)
(1.19892 -9.54088e-05 -0.000861626)
(1.19837 -3.68561e-05 -0.000866944)
(1.19863 -2.9291e-05 -0.000537854)
(1.19862 -2.97055e-05 -0.000577734)
(1.19869 -2.85273e-05 -0.000515392)
(1.19928 -6.5001e-05 -0.000544441)
(1.19869 -2.88593e-05 -0.000547998)
(1.19888 -2.83956e-05 -0.000340581)
(1.19887 -2.81576e-05 -0.000366055)
(1.19892 -2.85683e-05 -0.000326378)
(1.1995 -4.96244e-05 -0.000345019)
(1.19891 -2.81623e-05 -0.000347444)
(1.19907 -2.92383e-05 -0.000216192)
(1.19907 -2.90312e-05 -0.000232149)
(1.19911 -2.93089e-05 -0.00020722)
(1.19964 -3.99556e-05 -0.000218817)
(1.1991 -2.89666e-05 -0.000220354)
(1.19923 -3.11043e-05 -0.000135445)
(1.19922 -3.09702e-05 -0.000145915)
(1.19925 -3.17193e-05 -0.000129711)
(1.19972 -3.4807e-05 -0.000137895)
(1.19924 -3.14173e-05 -0.000138457)
(1.19937 -3.70415e-05 -8.34291e-05)
(1.19936 -3.62018e-05 -9.00867e-05)
(1.19939 -3.82843e-05 -7.9353e-05)
(1.19978 -3.37784e-05 -8.49878e-05)
(1.19938 -3.73828e-05 -8.49255e-05)
(1.1995 -4.52288e-05 -4.83576e-05)
(1.19949 -4.45145e-05 -5.28245e-05)
(1.19952 -4.55941e-05 -4.52495e-05)
(1.19981 -3.58822e-05 -4.94962e-05)
(1.19951 -4.55669e-05 -4.92693e-05)
(1.35024 -0.0119716 -0.00296215)
(1.32254 -0.0127726 -0.00228185)
(1.3111 -0.0332432 -0.00589959)
(1.31705 -0.0130758 -0.002277)
(1.30076 -0.00780187 -0.0032729)
(1.20311 -0.0747104 -0.0170106)
(1.22009 -0.0566962 -0.0160842)
(1.20633 -0.0512733 -0.014377)
(1.20575 -0.0494321 -0.0165625)
(1.20057 -0.0470956 -0.0166312)
(1.2114 -0.0515922 -0.0151661)
(1.18578 -0.0229907 -0.0124591)
(1.18408 -0.0222264 -0.0138079)
(1.18665 -0.0261234 -0.0140728)
(1.18719 -0.0219805 -0.0132866)
(1.18752 -0.0201067 -0.0127631)
(1.19063 -0.0223232 -0.0127969)
(1.19071 -0.00877134 -0.00840322)
(1.19034 -0.00815853 -0.0088113)
(1.1908 -0.00964374 -0.00913277)
(1.19176 -0.00778239 -0.00812997)
(1.19233 -0.00892141 -0.00835776)
(1.19179 -0.00831828 -0.00867761)
(1.1942 -0.0041081 -0.00531292)
(1.19419 -0.00370184 -0.00548901)
(1.1942 -0.004391 -0.00572678)
(1.19485 -0.00369439 -0.0050919)
(1.19494 -0.00426689 -0.00527522)
(1.19489 -0.00389468 -0.00544415)
(1.19638 -0.00217121 -0.00331753)
(1.19644 -0.00193122 -0.00340817)
(1.19638 -0.00229334 -0.0035732)
(1.19678 -0.00197814 -0.00317499)
(1.19677 -0.00228857 -0.00330686)
(1.19681 -0.00207008 -0.00338749)
(1.19772 -0.00123962 -0.00207227)
(1.19778 -0.00109749 -0.0021222)
(1.19772 -0.00130197 -0.00223004)
(1.19797 -0.00114003 -0.00198356)
(1.19795 -0.00132021 -0.00207186)
(1.19799 -0.00118937 -0.00211355)
(1.19856 -0.000739637 -0.00130149)
(1.1986 -0.0006544 -0.00132995)
(1.19856 -0.000775626 -0.00139924)
(1.19871 -0.000684629 -0.00124656)
(1.19869 -0.000793744 -0.00130441)
(1.19872 -0.00071413 -0.00132686)
(1.19908 -0.00045302 -0.000822422)
(1.1991 -0.00040119 -0.000839141)
(1.19908 -0.000474841 -0.000883483)
(1.19918 -0.000421412 -0.000788282)
(1.19916 -0.000489116 -0.000825792)
(1.19918 -0.000439682 -0.000838384)
(1.19941 -0.000282288 -0.000522065)
(1.19943 -0.0002504 -0.000532032)
(1.19941 -0.000296001 -0.000560523)
(1.19947 -0.000263373 -0.000500432)
(1.19946 -0.000306661 -0.000524774)
(1.19947 -0.000275034 -0.000531974)
(1.19962 -0.000176321 -0.000332117)
(1.19963 -0.000157618 -0.00033821)
(1.19962 -0.000185335 -0.000356487)
(1.19966 -0.000164501 -0.000318423)
(1.19965 -0.000193618 -0.000334248)
(1.19966 -0.000172363 -0.000338496)
(1.19975 -0.00010777 -0.000211288)
(1.19976 -9.82708e-05 -0.000215129)
(1.19975 -0.000113774 -0.000226936)
(1.19978 -0.000100517 -0.000202754)
(1.19977 -0.000121092 -0.000213087)
(1.19978 -0.000105729 -0.000215656)
(1.19984 -6.51954e-05 -0.000134329)
(1.19984 -6.19206e-05 -0.000136732)
(1.19984 -6.91477e-05 -0.00014439)
(1.19986 -6.06296e-05 -0.000128603)
(1.19986 -7.69081e-05 -0.000135736)
(1.19986 -6.42003e-05 -0.000137045)
(1.1999 -3.58101e-05 -8.25406e-05)
(1.1999 -3.81115e-05 -8.42828e-05)
(1.1999 -3.87787e-05 -8.91594e-05)
(1.19991 -3.25561e-05 -7.85998e-05)
(1.1999 -4.68025e-05 -8.37242e-05)
(1.19991 -3.52521e-05 -8.40623e-05)
(1.19993 -1.52373e-05 -4.8412e-05)
(1.19993 -2.15385e-05 -4.95513e-05)
(1.19993 -1.72291e-05 -5.28829e-05)
(1.19993 -1.33325e-05 -4.54431e-05)
(1.19993 -2.53938e-05 -4.93697e-05)
(1.19993 -1.50557e-05 -4.9484e-05)
(1.25038 0.00067789 -0.00386007)
(1.24887 0.00140106 -0.00473194)
(1.24541 -0.00201748 -0.00766929)
(1.24442 0.00468745 -0.00543448)
(1.24649 -1.60188e-05 -0.00435942)
(1.22018 -0.0153609 -0.0134952)
(1.21578 -0.0165167 -0.011194)
(1.21838 -0.0172208 -0.0123527)
(1.21724 -0.00822148 -0.0116433)
(1.21576 -0.0158565 -0.0123154)
(1.21283 -0.0163893 -0.0135338)
(1.19961 -0.0141419 -0.00935048)
(1.20115 -0.0141048 -0.0104059)
(1.20157 -0.0144588 -0.0110333)
(1.19997 -0.0131054 -0.00997751)
(1.2026 -0.0120204 -0.00964733)
(1.20077 -0.0133969 -0.0097169)
(1.19718 -0.00870537 -0.00654686)
(1.19726 -0.00856026 -0.00695246)
(1.19786 -0.00908065 -0.00716543)
(1.19763 -0.00796532 -0.00640929)
(1.19844 -0.00821679 -0.00648702)
(1.198 -0.00824158 -0.00664374)
(1.19734 -0.00516259 -0.00433792)
(1.19725 -0.00500319 -0.00452303)
(1.19757 -0.00538222 -0.00463842)
(1.19766 -0.00473142 -0.00417118)
(1.19793 -0.00502311 -0.00426157)
(1.19786 -0.00490166 -0.00442027)
(1.19798 -0.00310172 -0.00281953)
(1.19795 -0.00296542 -0.00292523)
(1.19807 -0.00323391 -0.00301963)
(1.19822 -0.00285526 -0.00270744)
(1.19835 -0.00307113 -0.00278363)
(1.19832 -0.00296031 -0.0028738)
(1.1986 -0.00189755 -0.00181627)
(1.19859 -0.00180331 -0.00187624)
(1.19864 -0.00197924 -0.00194677)
(1.19877 -0.00175576 -0.00174344)
(1.19883 -0.00190158 -0.00180089)
(1.19882 -0.00182224 -0.0018511)
(1.19906 -0.00117981 -0.00116818)
(1.19906 -0.00111862 -0.00120276)
(1.19909 -0.00123192 -0.00125225)
(1.19918 -0.00109606 -0.0011212)
(1.19921 -0.00119152 -0.00116226)
(1.1992 -0.00113933 -0.00119063)
(1.19938 -0.00074128 -0.000752039)
(1.19939 -0.000702473 -0.000771886)
(1.1994 -0.000775054 -0.000805584)
(1.19946 -0.000691448 -0.000721929)
(1.19948 -0.00075343 -0.000750421)
(1.19948 -0.000719828 -0.000765983)
(1.1996 -0.000470279 -0.000483963)
(1.1996 -0.000445741 -0.000495565)
(1.19961 -0.000492376 -0.000518639)
(1.19965 -0.000439588 -0.000464258)
(1.19966 -0.000479813 -0.000483927)
(1.19966 -0.000458648 -0.000492694)
(1.19974 -0.000297149 -0.00031153)
(1.19974 -0.00028198 -0.000318592)
(1.19974 -0.000311837 -0.000333799)
(1.19977 -0.000278244 -0.00029918)
(1.19978 -0.000304152 -0.000312297)
(1.19978 -0.000290858 -0.000317544)
(1.19984 -0.000190767 -0.000200464)
(1.19984 -0.000180491 -0.000204929)
(1.19984 -0.000199998 -0.000215161)
(1.19986 -0.00017933 -0.00019282)
(1.19986 -0.000196569 -0.000201677)
(1.19986 -0.000187516 -0.0002049)
(1.1999 -0.000120268 -0.000129204)
(1.1999 -0.000114327 -0.000131586)
(1.1999 -0.000127108 -0.000138553)
(1.19991 -0.000112548 -0.000123653)
(1.19992 -0.000123768 -0.000129948)
(1.19992 -0.00011863 -0.000131489)
(1.19993 -7.13729e-05 -8.02771e-05)
(1.19993 -6.84775e-05 -8.1819e-05)
(1.19994 -7.61339e-05 -8.65658e-05)
(1.19994 -6.60973e-05 -7.65585e-05)
(1.19995 -7.39395e-05 -8.08491e-05)
(1.19995 -7.04034e-05 -8.18097e-05)
(1.19996 -3.87035e-05 -4.68759e-05)
(1.19996 -3.87341e-05 -4.81231e-05)
(1.19996 -4.17361e-05 -5.13295e-05)
(1.19996 -3.5161e-05 -4.4019e-05)
(1.19997 -4.12956e-05 -4.73766e-05)
(1.19997 -3.79569e-05 -4.80405e-05)
(1.30966 0.0804258 -0.00708231)
(1.29108 0.0570101 -0.00258458)
(1.29467 0.0800435 -0.00232042)
(1.31146 0.0698934 -0.00435528)
(1.30365 0.0755086 -0.00599761)
(1.19322 0.000271353 -0.0176599)
(1.19307 -0.00200129 -0.0136824)
(1.20226 0.00710313 -0.0128952)
(1.19024 0.00881636 -0.0161118)
(1.19614 -0.00167015 -0.0183354)
(1.196 -0.000500362 -0.0145873)
(1.19703 -0.005582 -0.00937532)
(1.19686 -0.00650212 -0.00790225)
(1.20112 -0.00710724 -0.00813161)
(1.20178 -0.0086839 -0.00778685)
(1.19851 -0.0062751 -0.00822595)
(1.1988 -0.00644103 -0.00794542)
(1.20006 -0.00654754 -0.00496567)
(1.20048 -0.0065579 -0.00522577)
(1.20052 -0.0064974 -0.00538813)
(1.20033 -0.00613572 -0.00482726)
(1.20079 -0.00629706 -0.00484616)
(1.20068 -0.00616578 -0.00502379)
(1.19967 -0.00473807 -0.00334041)
(1.19962 -0.00469642 -0.00350113)
(1.1999 -0.00484128 -0.00355438)
(1.19981 -0.00440626 -0.00322257)
(1.20008 -0.00453888 -0.00326016)
(1.20004 -0.00449735 -0.00339646)
(1.19952 -0.00316232 -0.00224873)
(1.19948 -0.00311417 -0.00234906)
(1.19966 -0.00326084 -0.00239647)
(1.19964 -0.00293764 -0.00216844)
(1.19981 -0.00305531 -0.0022067)
(1.19977 -0.00302015 -0.0022908)
(1.19957 -0.00205903 -0.00150157)
(1.19955 -0.00201984 -0.00156117)
(1.19966 -0.00213396 -0.0016019)
(1.19967 -0.00191565 -0.00144706)
(1.19975 -0.00197863 -0.00153024)
(1.19968 -0.00132908 -0.000996438)
(1.19966 -0.00130166 -0.00103109)
(1.19973 -0.00138229 -0.00106356)
(1.19975 -0.00123951 -0.000959257)
(1.19979 -0.00128449 -0.00101468)
(1.19977 -0.00085744 -0.00066039)
(1.19976 -0.000839415 -0.000680338)
(1.1998 -0.000894078 -0.0007044)
(1.19982 -0.000801628 -0.000635398)
(1.19985 -0.000833096 -0.000671655)
(1.19984 -0.000551497 -0.000433692)
(1.19984 -0.000539965 -0.000445778)
(1.19986 -0.000576608 -0.000463877)
(1.19988 -0.000516368 -0.000416799)
(1.1999 -0.00053812 -0.000441649)
(1.1999 -0.000356659 -0.00028328)
(1.1999 -0.0003485 -0.000291089)
(1.19991 -0.000372709 -0.000303114)
(1.19993 -0.000335201 -0.000273044)
(1.19994 -0.000349058 -0.000289441)
(1.19994 -0.000230592 -0.000186843)
(1.19994 -0.000226358 -0.000191004)
(1.19995 -0.000242379 -0.000199479)
(1.19996 -0.000216372 -0.000179933)
(1.19997 -0.000226889 -0.000190276)
(1.19997 -0.000143598 -0.000121974)
(1.19997 -0.000141012 -0.000124402)
(1.19997 -0.000151668 -0.000130719)
(1.19998 -0.000134292 -0.000116558)
(1.19998 -0.000141426 -0.000123918)
(1.19999 -8.64968e-05 -7.59764e-05)
(1.19998 -8.47436e-05 -7.77023e-05)
(1.19999 -9.1963e-05 -8.19402e-05)
(1.19999 -8.05714e-05 -7.27586e-05)
(1.2 -8.5461e-05 -7.78869e-05)
(1.2 -4.87171e-05 -4.41295e-05)
(1.2 -4.77506e-05 -4.50961e-05)
(1.2 -5.25093e-05 -4.82976e-05)
(1.2 -4.42864e-05 -4.13855e-05)
(1.20001 -4.79726e-05 -4.50224e-05)
(0.955268 -0.25288 -0.0504391)
(1.04697 -0.187212 -0.0495415)
(1.10182 -0.141776 -0.0467737)
(1.06901 -0.134486 -0.0708741)
(1.10751 -0.122846 -0.0420206)
(1.19175 0.00888303 -0.0256426)
(1.18429 0.00672405 -0.0219112)
(1.18358 0.00274319 -0.0216099)
(1.18612 0.00387267 -0.0187583)
(1.18625 0.00396647 -0.019184)
(1.19052 -0.00120583 -0.010914)
(1.19025 -0.00133712 -0.0118596)
(1.19223 -0.00095692 -0.0101735)
(1.19194 -0.00203552 -0.0107922)
(1.19242 -0.00104148 -0.0109914)
(1.19523 -0.000370112 -0.00612582)
(1.19533 -0.000396177 -0.00654247)
(1.19594 -0.000315147 -0.00569766)
(1.19598 -0.000784729 -0.00602744)
(1.19611 -0.000330944 -0.00599263)
(1.19704 -0.000154522 -0.00362058)
(1.19713 -0.000164315 -0.00382938)
(1.19739 -0.000135004 -0.00336931)
(1.19767 -0.000380266 -0.00356465)
(1.19751 -0.000141209 -0.00352028)
(1.19789 -7.89242e-05 -0.00220025)
(1.19795 -8.25321e-05 -0.00231634)
(1.19809 -7.2405e-05 -0.00204969)
(1.19855 -0.000212237 -0.00216973)
(1.19816 -7.49998e-05 -0.00213397)
(1.19837 -5.00152e-05 -0.00135996)
(1.19841 -5.21894e-05 -0.00142806)
(1.19849 -4.74162e-05 -0.00126802)
(1.19905 -0.000131815 -0.00134278)
(1.19853 -4.91872e-05 -0.00131751)
(1.19867 -3.59365e-05 -0.000851927)
(1.1987 -3.71162e-05 -0.000892742)
(1.19875 -3.44329e-05 -0.00079521)
(1.19936 -8.68586e-05 -0.000841025)
(1.19877 -3.54421e-05 -0.000824683)
(1.19888 -2.77448e-05 -0.000537139)
(1.19889 -2.84515e-05 -0.000562382)
(1.19893 -2.72134e-05 -0.000501283)
(1.19955 -5.96676e-05 -0.000530116)
(1.19894 -2.75727e-05 -0.000519479)
(1.19904 -2.74557e-05 -0.000340022)
(1.19904 -2.73468e-05 -0.000356019)
(1.19907 -2.74923e-05 -0.000317739)
(1.19967 -4.65843e-05 -0.000335828)
(1.19908 -2.73584e-05 -0.000329107)
(1.19917 -2.83863e-05 -0.000215889)
(1.19917 -2.80846e-05 -0.00022576)
(1.19919 -2.87598e-05 -0.000201721)
(1.19974 -3.80823e-05 -0.000213145)
(1.19919 -2.84193e-05 -0.000208885)
(1.19929 -3.17412e-05 -0.000136914)
(1.19928 -3.13729e-05 -0.000143536)
(1.19931 -3.23155e-05 -0.000127539)
(1.19979 -3.44723e-05 -0.000135404)
(1.1993 -3.18413e-05 -0.000132481)
(1.1994 -3.8677e-05 -8.37137e-05)
(1.19939 -3.77782e-05 -8.85872e-05)
(1.19942 -3.98946e-05 -7.78734e-05)
(1.19982 -3.44519e-05 -8.34142e-05)
(1.19941 -3.894e-05 -8.13941e-05)
(1.19953 -4.6577e-05 -4.83092e-05)
(1.19952 -4.58906e-05 -5.14824e-05)
(1.19955 -4.69072e-05 -4.39948e-05)
(1.19984 -3.68527e-05 -4.81333e-05)
(1.19954 -4.68241e-05 -4.69026e-05)
(1.30748 -0.0111934 -0.00350542)
(1.29113 -0.0123665 -0.00228303)
(1.27839 -0.0257078 -0.00934284)
(1.27714 -0.0115408 -0.00202057)
(1.27196 -0.00717283 -0.00260352)
(1.2048 -0.0493479 -0.0287629)
(1.21602 -0.0378041 -0.0278667)
(1.20631 -0.0368168 -0.0260674)
(1.2086 -0.0306316 -0.0273294)
(1.20365 -0.0312951 -0.0258751)
(1.21052 -0.0348167 -0.0224515)
(1.19279 -0.0167571 -0.0156758)
(1.19218 -0.0152809 -0.0168085)
(1.1942 -0.0178751 -0.0171128)
(1.19533 -0.0145666 -0.0157386)
(1.19446 -0.0139163 -0.0147479)
(1.19649 -0.0154905 -0.0146345)
(1.19534 -0.00657081 -0.00911289)
(1.19534 -0.00593146 -0.00939286)
(1.19578 -0.00696518 -0.00974431)
(1.19621 -0.00570238 -0.00853199)
(1.1967 -0.0065193 -0.00874227)
(1.19664 -0.00592057 -0.00897947)
(1.19707 -0.00319027 -0.00547525)
(1.19719 -0.00282693 -0.00554174)
(1.19729 -0.00334169 -0.00579494)
(1.19758 -0.00284454 -0.00510996)
(1.19773 -0.00327294 -0.00529481)
(1.19781 -0.00294351 -0.00534059)
(1.19814 -0.00175124 -0.0033536)
(1.19825 -0.00154264 -0.00336541)
(1.19827 -0.00182455 -0.00353071)
(1.19845 -0.00158988 -0.00312806)
(1.1985 -0.00183204 -0.00325794)
(1.19858 -0.00164388 -0.00325668)
(1.1988 -0.00103453 -0.00208155)
(1.19888 -0.000910838 -0.00207971)
(1.19888 -0.00107615 -0.00218583)
(1.19899 -0.000950388 -0.00194226)
(1.19901 -0.00109676 -0.00202867)
(1.19907 -0.000983546 -0.00201809)
(1.19923 -0.000636391 -0.00130386)
(1.19927 -0.000561075 -0.0012992)
(1.19927 -0.000662528 -0.00136705)
(1.19934 -0.000589191 -0.0012173)
(1.19935 -0.000681302 -0.00127378)
(1.19939 -0.000610997 -0.0012631)
(1.1995 -0.00039918 -0.000823145)
(1.19953 -0.000352946 -0.000818693)
(1.19952 -0.000416448 -0.00086204)
(1.19957 -0.000371355 -0.000768981)
(1.19957 -0.00043031 -0.000805744)
(1.1996 -0.00038624 -0.000797166)
(1.19967 -0.000252625 -0.000521848)
(1.19969 -0.000223887 -0.000518538)
(1.19969 -0.000263897 -0.000546346)
(1.19972 -0.000235676 -0.000487745)
(1.19972 -0.000274224 -0.000511427)
(1.19974 -0.000245517 -0.000505529)
(1.19979 -0.000160241 -0.000332262)
(1.1998 -0.000143294 -0.000329768)
(1.1998 -0.000167795 -0.000347616)
(1.19982 -0.000149694 -0.000310586)
(1.19982 -0.00017609 -0.000325902)
(1.19983 -0.000156377 -0.000321687)
(1.19986 -0.00010019 -0.000212043)
(1.19987 -9.16038e-05 -0.000210194)
(1.19987 -0.000105532 -0.00022173)
(1.19988 -9.37144e-05 -0.000198226)
(1.19988 -0.000112994 -0.000208409)
(1.19989 -9.84052e-05 -0.000205204)
(1.19991 -6.09668e-05 -0.000134575)
(1.19991 -5.83645e-05 -0.000133537)
(1.19992 -6.46393e-05 -0.00014097)
(1.19992 -5.64706e-05 -0.000125406)
(1.19993 -7.23224e-05 -0.000132368)
(1.19993 -5.97979e-05 -0.000130181)
(1.19994 -3.34021e-05 -8.27533e-05)
(1.19994 -3.62331e-05 -8.23979e-05)
(1.19995 -3.6011e-05 -8.72419e-05)
(1.19995 -3.04135e-05 -7.6986e-05)
(1.19995 -4.45302e-05 -8.17888e-05)
(1.19996 -3.27929e-05 -8.04127e-05)
(1.19996 -1.46812e-05 -4.84526e-05)
(1.19996 -2.14972e-05 -4.81317e-05)
(1.19996 -1.65923e-05 -5.15659e-05)
(1.19996 -1.28011e-05 -4.44206e-05)
(1.19997 -2.4479e-05 -4.80226e-05)
(1.19997 -1.4572e-05 -4.70561e-05)
(1.23394 -0.00137548 -0.00373048)
(1.23399 -0.000768609 -0.0024109)
(1.23077 -0.00348429 -0.00517998)
(1.2297 -0.00017386 -0.00235551)
(1.23016 -0.00131717 -0.00315897)
(1.21787 -0.0117177 -0.0113999)
(1.21565 -0.0127082 -0.0120704)
(1.21624 -0.0135579 -0.0112615)
(1.21574 -0.00983325 -0.00975223)
(1.21539 -0.0112174 -0.0111436)
(1.21353 -0.0121829 -0.0116527)
(1.2036 -0.0106054 -0.00976954)
(1.20386 -0.0105488 -0.00986785)
(1.205 -0.0105686 -0.010027)
(1.20343 -0.00959269 -0.00920764)
(1.20491 -0.00926301 -0.00877691)
(1.2045 -0.00951996 -0.00936426)
(1.20022 -0.00666277 -0.00662135)
(1.20018 -0.00648335 -0.00681307)
(1.20085 -0.00679434 -0.00689153)
(1.20041 -0.00601852 -0.00622554)
(1.201 -0.00622132 -0.00625055)
(1.20095 -0.00610108 -0.00641472)
(1.19941 -0.00407155 -0.00435882)
(1.19941 -0.00389841 -0.00444927)
(1.19973 -0.0041817 -0.00454872)
(1.19963 -0.00370808 -0.00408686)
(1.19991 -0.00392731 -0.00416624)
(1.19992 -0.00378889 -0.00422419)
(1.19936 -0.00252339 -0.00282429)
(1.19938 -0.00239332 -0.00286096)
(1.19953 -0.00260167 -0.00295059)
(1.19953 -0.00231702 -0.00264424)
(1.19968 -0.00248557 -0.00271632)
(1.19969 -0.0023789 -0.00273596)
(1.19949 -0.00159225 -0.00181758)
(1.19951 -0.00150538 -0.00183161)
(1.19959 -0.00164661 -0.00189973)
(1.19961 -0.00147217 -0.00170082)
(1.19969 -0.00158982 -0.00175638)
(1.19971 -0.00151709 -0.00176051)
(1.19963 -0.00101642 -0.00116889)
(1.19965 -0.000960976 -0.00117326)
(1.19969 -0.00105479 -0.00122118)
(1.19972 -0.000944167 -0.00109402)
(1.19976 -0.00102379 -0.00113369)
(1.19977 -0.000976877 -0.00113173)
(1.19975 -0.000653536 -0.000752104)
(1.19976 -0.000617698 -0.000753294)
(1.19978 -0.000679473 -0.000786465)
(1.1998 -0.000609732 -0.000703966)
(1.19983 -0.000662871 -0.000731967)
(1.19984 -0.000632218 -0.000729096)
(1.19984 -0.000422914 -0.000482702)
(1.19984 -0.000399874 -0.000482372)
(1.19986 -0.000440916 -0.000504573)
(1.19987 -0.000395492 -0.000451897)
(1.19989 -0.000431086 -0.000470768)
(1.19989 -0.000411317 -0.00046787)
(1.1999 -0.000272526 -0.000311589)
(1.1999 -0.000258292 -0.000310493)
(1.19991 -0.000285055 -0.000325287)
(1.19992 -0.000255712 -0.000291766)
(1.19993 -0.000278996 -0.000304533)
(1.19993 -0.00026657 -0.000301597)
(1.19994 -0.000177199 -0.000201825)
(1.19994 -0.000167534 -0.00020082)
(1.19995 -0.000185333 -0.000210662)
(1.19995 -0.000166511 -0.00018885)
(1.19996 -0.000182185 -0.00019738)
(1.19996 -0.000173759 -0.000195193)
(1.19997 -0.000113052 -0.000128736)
(1.19997 -0.000107157 -0.000127961)
(1.19997 -0.000119098 -0.000134817)
(1.19998 -0.000105756 -0.000120143)
(1.19998 -0.000116388 -0.000126206)
(1.19998 -0.000111297 -0.000124644)
(1.19998 -6.78826e-05 -8.0366e-05)
(1.19998 -6.53916e-05 -7.98224e-05)
(1.19999 -7.23576e-05 -8.4424e-05)
(1.19999 -6.30248e-05 -7.48606e-05)
(1.19999 -7.06727e-05 -7.90876e-05)
(1.19999 -6.71481e-05 -7.79825e-05)
(1.19999 -3.60427e-05 -4.77658e-05)
(1.19999 -3.65174e-05 -4.73187e-05)
(1.19999 -3.91578e-05 -5.06831e-05)
(1.2 -3.27686e-05 -4.36953e-05)
(1.2 -3.86413e-05 -4.68553e-05)
(1.2 -3.55792e-05 -4.61931e-05)
(1.23212 0.00596254 -0.0124535)
(1.22581 0.00256357 -0.00671685)
(1.22307 0.00428784 -0.0123133)
(1.22658 0.00241393 -0.00910072)
(1.22479 0.00276041 -0.00767678)
(1.20968 -0.00146911 -0.012494)
(1.21226 -0.000853143 -0.0131933)
(1.21229 -0.00384408 -0.010107)
(1.21022 -0.0036714 -0.0111156)
(1.21034 -0.00274368 -0.0118374)
(1.21104 -0.00224595 -0.0106161)
(1.20419 -0.00542687 -0.00782087)
(1.20559 -0.00587422 -0.00709824)
(1.20553 -0.00527447 -0.00800814)
(1.2054 -0.00575591 -0.00687276)
(1.20463 -0.00544075 -0.0069784)
(1.20531 -0.00519356 -0.00697309)
(1.20236 -0.00511926 -0.00484546)
(1.20254 -0.005092 -0.00490336)
(1.20287 -0.00507245 -0.00499688)
(1.20243 -0.00478298 -0.00453522)
(1.20284 -0.00484889 -0.0045374)
(1.20287 -0.00475441 -0.00461875)
(1.20114 -0.00376472 -0.00330303)
(1.20114 -0.00370567 -0.00337613)
(1.20144 -0.003805 -0.0034154)
(1.20121 -0.00348888 -0.00310597)
(1.20147 -0.00357484 -0.00313595)
(1.20148 -0.00352481 -0.00318322)
(1.20053 -0.00258855 -0.00224053)
(1.20052 -0.00253406 -0.00228146)
(1.20072 -0.00264399 -0.00232406)
(1.20061 -0.00240095 -0.00210632)
(1.20078 -0.00248889 -0.00214123)
(1.20078 -0.00244845 -0.00216584)
(1.20026 -0.00173549 -0.00150021)
(1.20025 -0.00169533 -0.00152)
(1.20037 -0.00178516 -0.0015594)
(1.20032 -0.00161398 -0.00140874)
(1.20043 -0.001686 -0.00144133)
(1.20042 -0.00165688 -0.00145115)
(1.20013 -0.00114901 -0.000996728)
(1.20013 -0.00112156 -0.0010062)
(1.2002 -0.00118779 -0.00103736)
(1.20018 -0.00107184 -0.000936474)
(1.20025 -0.00112534 -0.000962727)
(1.20024 -0.00110556 -0.000965546)
(1.20008 -0.000759043 -0.000657615)
(1.20008 -0.000741181 -0.000661772)
(1.20012 -0.00078751 -0.000685726)
(1.20011 -0.000709966 -0.000617154)
(1.20015 -0.000734975 -0.00063795)
(1.20005 -0.000498152 -0.000431997)
(1.20005 -0.000487129 -0.000432965)
(1.20008 -0.000518822 -0.000449901)
(1.20008 -0.000467077 -0.00040559)
(1.2001 -0.000485231 -0.000418534)
(1.20004 -0.000326175 -0.000284895)
(1.20004 -0.000318758 -0.000284754)
(1.20006 -0.000340327 -0.000296904)
(1.20006 -0.000306563 -0.000266933)
(1.20008 -0.000318942 -0.000275553)
(1.20004 -0.000214701 -0.00018557)
(1.20003 -0.000210125 -0.000185086)
(1.20005 -0.000224491 -0.000193279)
(1.20005 -0.000201532 -0.000173716)
(1.20006 -0.00021047 -0.000179256)
(1.20003 -0.000135293 -0.000121453)
(1.20003 -0.000133045 -0.000120872)
(1.20004 -0.000142795 -0.000126622)
(1.20004 -0.000126784 -0.000113907)
(1.20005 -0.000133426 -0.000117691)
(1.20003 -8.29009e-05 -7.72075e-05)
(1.20003 -8.11997e-05 -7.67772e-05)
(1.20003 -8.80888e-05 -8.12531e-05)
(1.20003 -7.72652e-05 -7.19067e-05)
(1.20004 -8.21188e-05 -7.50218e-05)
(1.20003 -4.57011e-05 -4.52238e-05)
(1.20003 -4.46489e-05 -4.52311e-05)
(1.20003 -4.92894e-05 -4.84191e-05)
(1.20003 -4.17506e-05 -4.15091e-05)
(1.20004 -4.51105e-05 -4.43126e-05)
(1.24698 -0.00431998 -0.0479818)
(1.24492 -0.0137013 0.0325565)
(1.26901 -0.0231889 0.0268328)
(1.24431 -0.0049285 0.000964585)
(1.20711 -0.00357495 -0.0348281)
(1.19554 -0.00605376 -0.0244014)
(1.19847 -0.00793481 -0.026273)
(1.19701 -0.00397097 -0.0263545)
(1.20757 -0.00298903 -0.0284631)
(1.1974 -0.0013393 -0.0195395)
(1.19861 -0.0015959 -0.019202)
(1.1989 -0.00271289 -0.0171648)
(1.19831 -0.00122202 -0.0160429)
(1.20071 -0.00107432 -0.0165058)
(1.19801 -0.000546426 -0.00913284)
(1.19875 -0.000559309 -0.00949941)
(1.19885 -0.000446278 -0.00809342)
(1.1991 -0.00104357 -0.00858205)
(1.1995 -0.00045001 -0.00820163)
(1.1986 -0.000223353 -0.00503641)
(1.19896 -0.000231538 -0.00517873)
(1.19898 -0.000188518 -0.00449863)
(1.19931 -0.000505334 -0.00476732)
(1.1993 -0.000193423 -0.00454633)
(1.19879 -0.00010701 -0.00293789)
(1.19899 -0.000110802 -0.00300419)
(1.19898 -9.59209e-05 -0.00263866)
(1.19947 -0.000278903 -0.00279696)
(1.19916 -9.85102e-05 -0.00265832)
(1.19888 -6.57686e-05 -0.00177506)
(1.19899 -6.79374e-05 -0.00180823)
(1.199 -6.17164e-05 -0.00159894)
(1.19958 -0.00017455 -0.00169449)
(1.19909 -6.35553e-05 -0.00160673)
(1.19897 -4.64906e-05 -0.00109457)
(1.19902 -4.7954e-05 -0.00111263)
(1.19904 -4.42325e-05 -0.000987524)
(1.19967 -0.000115942 -0.0010456)
(1.19909 -4.558e-05 -0.000990731)
(1.19904 -3.38527e-05 -0.000683561)
(1.19907 -3.48407e-05 -0.000693555)
(1.19908 -3.24493e-05 -0.000616997)
(1.19974 -7.8366e-05 -0.000652707)
(1.19911 -3.33212e-05 -0.000617943)
(1.19911 -2.72434e-05 -0.000429611)
(1.19912 -2.77948e-05 -0.000435389)
(1.19914 -2.7035e-05 -0.000387868)
(1.19978 -5.66436e-05 -0.000410634)
(1.19915 -2.73196e-05 -0.000388156)
(1.19918 -2.73656e-05 -0.000272128)
(1.19919 -2.72998e-05 -0.00027569)
(1.1992 -2.73984e-05 -0.000246102)
(1.19982 -4.51323e-05 -0.000260252)
(1.19921 -2.73539e-05 -0.000246089)
(1.19926 -2.84814e-05 -0.000173731)
(1.19926 -2.80767e-05 -0.000175543)
(1.19928 -2.88453e-05 -0.000156971)
(1.19984 -3.6939e-05 -0.000165901)
(1.19927 -2.84353e-05 -0.000156837)
(1.19934 -3.19508e-05 -0.000110373)
(1.19934 -3.13389e-05 -0.000112192)
(1.19936 -3.26724e-05 -9.96432e-05)
(1.19985 -3.34802e-05 -0.000105513)
(1.19936 -3.17615e-05 -0.000100274)
(1.19944 -4.00405e-05 -6.72425e-05)
(1.19943 -3.90236e-05 -6.84803e-05)
(1.19946 -4.12713e-05 -6.0616e-05)
(1.19986 -3.53314e-05 -6.49068e-05)
(1.19945 -4.03622e-05 -6.12015e-05)
(1.19956 -4.71875e-05 -3.89488e-05)
(1.19955 -4.65149e-05 -4.01842e-05)
(1.19958 -4.73199e-05 -3.4414e-05)
(1.19987 -3.74183e-05 -3.72974e-05)
(1.19957 -4.72489e-05 -3.52041e-05)
(1.23831 -0.001017 -0.00163597)
(1.23837 -0.00796584 -0.000964553)
(1.23303 -0.00841744 -0.00476803)
(1.23211 -0.00457415 -0.00151204)
(1.23105 -0.00156678 -0.00250262)
(1.21444 -0.0122493 -0.0188814)
(1.2123 -0.0135661 -0.0181655)
(1.21554 -0.0126966 -0.0167304)
(1.21122 -0.0114878 -0.0167848)
(1.2136 -0.0119236 -0.0148301)
(1.21441 -0.00891421 -0.0158916)
(1.2027 -0.0078463 -0.0128123)
(1.20291 -0.00685627 -0.012876)
(1.20418 -0.00761097 -0.0128717)
(1.20301 -0.00647473 -0.0113493)
(1.20414 -0.00713485 -0.0112253)
(1.20433 -0.00619589 -0.0112817)
(1.20035 -0.0040072 -0.00752252)
(1.2006 -0.00347796 -0.00741073)
(1.20109 -0.00402271 -0.00766195)
(1.20076 -0.00346304 -0.0067176)
(1.20121 -0.00391594 -0.00686572)
(1.20136 -0.00346218 -0.00673535)
(1.19986 -0.00223381 -0.00446554)
(1.20003 -0.00194512 -0.00436026)
(1.20023 -0.00227596 -0.00455518)
(1.20013 -0.00199642 -0.00401199)
(1.20034 -0.00227718 -0.00415277)
(1.20045 -0.00202633 -0.00403292)
(1.19978 -0.00134127 -0.00271309)
(1.19988 -0.00117332 -0.00263362)
(1.19998 -0.00137688 -0.00276212)
(1.19995 -0.00122362 -0.00244468)
(1.20005 -0.00140148 -0.00254501)
(1.20012 -0.00125269 -0.00245509)
(1.19979 -0.0008422 -0.00167774)
(1.19986 -0.000740342 -0.00162217)
(1.1999 -0.000869227 -0.00170473)
(1.1999 -0.000777908 -0.00151408)
(1.19995 -0.000893705 -0.00158125)
(1.2 -0.000801304 -0.00151854)
(1.19983 -0.000540965 -0.00104849)
(1.19987 -0.00047732 -0.00101115)
(1.1999 -0.000560686 -0.00106416)
(1.1999 -0.000503436 -0.00094702)
(1.19993 -0.000580143 -0.000991093)
(1.19996 -0.000520922 -0.000949041)
(1.19988 -0.00035132 -0.000660519)
(1.1999 -0.000311237 -0.000635529)
(1.19992 -0.000365583 -0.000669344)
(1.19992 -0.000328399 -0.000596872)
(1.19994 -0.000379708 -0.000625448)
(1.19996 -0.000341244 -0.000597245)
(1.19991 -0.000226962 -0.00041925)
(1.19992 -0.000202013 -0.000402737)
(1.19993 -0.000237149 -0.000424415)
(1.19994 -0.000212702 -0.000379065)
(1.19995 -0.000247003 -0.000397657)
(1.19996 -0.000221885 -0.00037898)
(1.19994 -0.000146056 -0.000266316)
(1.19994 -0.000131096 -0.000255651)
(1.19995 -0.000152985 -0.000269693)
(1.19996 -0.000136966 -0.000240772)
(1.19996 -0.000161089 -0.00025282)
(1.19997 -0.000143225 -0.000240771)
(1.19996 -9.32464e-05 -0.000169962)
(1.19996 -8.55121e-05 -0.000163224)
(1.19997 -9.79869e-05 -0.00017204)
(1.19997 -8.73332e-05 -0.000153855)
(1.19998 -0.000105576 -0.000161638)
(1.19998 -9.16608e-05 -0.000153963)
(1.19998 -5.63772e-05 -0.000107646)
(1.19998 -5.44966e-05 -0.000103412)
(1.19998 -5.99028e-05 -0.000109149)
(1.19998 -5.22194e-05 -9.71403e-05)
(1.19999 -6.77227e-05 -0.000102429)
(1.19999 -5.53946e-05 -9.73608e-05)
(1.19999 -3.12841e-05 -6.70453e-05)
(1.19998 -3.44462e-05 -6.44157e-05)
(1.19999 -3.36784e-05 -6.81291e-05)
(1.19999 -2.86402e-05 -6.01608e-05)
(1.19999 -4.25077e-05 -6.39509e-05)
(1.2 -3.08189e-05 -6.05267e-05)
(1.19999 -1.41546e-05 -3.91737e-05)
(1.19999 -2.09673e-05 -3.70645e-05)
(1.19999 -1.59177e-05 -4.01527e-05)
(1.19999 -1.24099e-05 -3.43693e-05)
(1.2 -2.43184e-05 -3.67369e-05)
(1.2 -1.38266e-05 -3.53775e-05)
(1.22115 -0.00070066 -0.00155908)
(1.22101 -0.000977454 -0.00132405)
(1.21955 -0.0018313 -0.00244403)
(1.21908 -0.000699641 -0.00116156)
(1.21899 -0.000535504 -0.00135872)
(1.21395 -0.00645424 -0.00759059)
(1.21388 -0.00643601 -0.00754053)
(1.21459 -0.00558433 -0.00667346)
(1.21342 -0.00534298 -0.00630121)
(1.21255 -0.00604512 -0.00720365)
(1.21337 -0.00521514 -0.00650401)
(1.20648 -0.00626514 -0.00726966)
(1.20653 -0.00600776 -0.00729118)
(1.20741 -0.00592489 -0.0070113)
(1.20613 -0.00560288 -0.00662305)
(1.20689 -0.00552323 -0.00638031)
(1.2069 -0.00535437 -0.00638194)
(1.20285 -0.00447446 -0.00523683)
(1.20289 -0.00425497 -0.00522488)
(1.20345 -0.00442331 -0.00521592)
(1.20285 -0.00403625 -0.00475061)
(1.20331 -0.00416434 -0.00475094)
(1.20335 -0.00400063 -0.00468963)
(1.20129 -0.00298733 -0.00348716)