/*--------------------------------*- C++ -*----------------------------------*\
| =========                 |                                                 |
| \\      /  F ield         | OpenFOAM: The Open Source CFD Toolbox           |
|  \\    /   O peration     | Version:  2012                                  |
|   \\  /    A nd           | Website:  www.openfoam.com                      |
|    \\/     M anipulation  |                                                 |
\*---------------------------------------------------------------------------*/
FoamFile
{
    version     2.0;
    format      ascii;
    class       volScalarField::Internal;
    location    "0.104/fluid";
    object      V0;
}
// * * * * * * * * * * * * * * * * * * * * * * * * * * * * * * * * * * * * * //

dimensions      [0 3 0 0 0 0 0];


value           nonuniform List<scalar> 
16422
(
4.24156e-05
4.25107e-05
4.25095e-05
4.25e-05
4.2496e-05
4.24974e-05
4.25018e-05
4.25067e-05
4.25111e-05
4.25137e-05
4.25152e-05
4.25166e-05
4.25174e-05
4.25167e-05
4.26541e-05
4.25903e-05
4.25336e-05
4.2508e-05
4.24984e-05
4.2496e-05
4.24983e-05
4.2502e-05
4.25073e-05
4.25111e-05
4.25128e-05
4.25142e-05
4.25142e-05
4.25145e-05
4.25138e-05
4.27121e-05
4.2611e-05
4.25124e-05
4.24918e-05
4.24869e-05
4.24908e-05
4.24949e-05
4.25007e-05
4.25077e-05
4.25114e-05
4.25119e-05
4.2513e-05
4.25129e-05
4.25118e-05
4.25107e-05
5.34459e-06
4.23851e-05
4.24448e-05
4.24734e-05
4.24846e-05
4.24926e-05
4.24976e-05
4.25011e-05
4.25086e-05
4.25105e-05
4.25114e-05
4.25131e-05
4.25115e-05
4.25105e-05
4.251e-05
4.24111e-05
4.2496e-05
4.25043e-05
4.25004e-05
4.24985e-05
4.25003e-05
4.25043e-05
4.25086e-05
4.2512e-05
4.25147e-05
4.25161e-05
4.25167e-05
4.25161e-05
4.25167e-05
4.2597e-05
4.25426e-05
4.25157e-05
4.25034e-05
4.24986e-05
4.24978e-05
4.25007e-05
4.25048e-05
4.25085e-05
4.25109e-05
4.25135e-05
4.25149e-05
4.25144e-05
4.2514e-05
4.25145e-05
4.25845e-05
4.2546e-05
4.25005e-05
4.24892e-05
4.24909e-05
4.24957e-05
4.24995e-05
4.25044e-05
4.25093e-05
4.25116e-05
4.25126e-05
4.25125e-05
4.25127e-05
4.25122e-05
4.25121e-05
4.25728e-05
4.24482e-05
4.24632e-05
4.24796e-05
4.24899e-05
4.24957e-05
4.25018e-05
4.25062e-05
4.2511e-05
4.2511e-05
4.25128e-05
4.25129e-05
4.25122e-05
4.25108e-05
4.25101e-05
4.28229e-05
4.24808e-05
4.25011e-05
4.25042e-05
4.25012e-05
4.25003e-05
4.25025e-05
4.25065e-05
4.25097e-05
4.25133e-05
4.25149e-05
4.25168e-05
4.2517e-05
4.25176e-05
4.25171e-05
4.25279e-05
4.25157e-05
4.25092e-05
4.25036e-05
4.24996e-05
4.24994e-05
4.25026e-05
4.25067e-05
4.25092e-05
4.25129e-05
4.25148e-05
4.25157e-05
4.25144e-05
4.25153e-05
4.25145e-05
4.25228e-05
4.25165e-05
4.24998e-05
4.24934e-05
4.24961e-05
4.25001e-05
4.25027e-05
4.25071e-05
4.25096e-05
4.25123e-05
4.25143e-05
4.25131e-05
4.25124e-05
4.25139e-05
4.25127e-05
4.25101e-05
4.24976e-05
4.24885e-05
4.24925e-05
4.24974e-05
4.25005e-05
4.25052e-05
4.25095e-05
4.25121e-05
4.25139e-05
4.25136e-05
4.25123e-05
4.25114e-05
4.25132e-05
4.25112e-05
4.25717e-05
4.25353e-05
4.25155e-05
4.25072e-05
4.25025e-05
4.25018e-05
4.25042e-05
4.25079e-05
4.25106e-05
4.2513e-05
4.25153e-05
4.25176e-05
4.25172e-05
4.25181e-05
4.25172e-05
4.25382e-05
4.25271e-05
4.25135e-05
4.25067e-05
4.25021e-05
4.25013e-05
4.25033e-05
4.2507e-05
4.25105e-05
4.25136e-05
4.25157e-05
4.25168e-05
4.25148e-05
4.25153e-05
4.25144e-05
4.25153e-05
4.25112e-05
4.25031e-05
4.25006e-05
4.25012e-05
4.25025e-05
4.25043e-05
4.25077e-05
4.25104e-05
4.25132e-05
4.25158e-05
4.25155e-05
4.25128e-05
4.25129e-05
4.25136e-05
4.2498e-05
4.24993e-05
4.24968e-05
4.24985e-05
4.25021e-05
4.25038e-05
4.25063e-05
4.25095e-05
4.25112e-05
4.25137e-05
4.25145e-05
4.25149e-05
4.25121e-05
4.25116e-05
4.25123e-05
4.23474e-05
4.26824e-05
4.25942e-05
5.33762e-06
4.24714e-05
4.23473e-05
4.26817e-05
4.25891e-05
4.23722e-05
4.26945e-05
4.25668e-05
4.24753e-05
4.25285e-05
4.24254e-05
4.23765e-05
4.26628e-05
4.25427e-05
4.32154e-05
4.24183e-05
4.24995e-05
4.24958e-05
4.27284e-05
4.26719e-05
4.28278e-05
4.26473e-05
4.23833e-05
4.24274e-05
5.31842e-06
6.4702e-07
6.68604e-07
5.31803e-06
6.68644e-07
6.47019e-07
4.26551e-05
4.28785e-05
4.26367e-05
4.26151e-05
4.25841e-05
4.25757e-05
4.2518e-05
5.39506e-06
5.35878e-06
5.39897e-06
4.24277e-05
4.24153e-05
4.24469e-05
5.27756e-06
6.47966e-07
6.69581e-07
6.7102e-07
5.32864e-06
6.54334e-07
6.43033e-07
4.2468e-05
4.25169e-05
4.25022e-05
6.47e-07
6.68597e-07
5.31777e-06
5.39098e-06
4.32217e-05
4.19176e-05
5.31915e-06
6.47594e-07
6.69212e-07
6.68665e-07
5.32408e-06
6.47034e-07
4.32376e-05
4.19355e-05
4.24445e-05
4.31239e-05
4.19832e-05
5.32821e-06
4.27564e-05
4.27683e-05
4.30576e-05
4.29655e-05
4.23927e-05
4.25586e-05
4.22738e-05
4.273e-05
4.20411e-05
4.23953e-05
4.24177e-05
4.25078e-05
4.25743e-05
4.25411e-05
4.26595e-05
4.26192e-05
4.27336e-05
4.26752e-05
4.25032e-05
4.25681e-05
4.25358e-05
4.24175e-05
4.24904e-05
4.25435e-05
4.25192e-05
4.26113e-05
4.27155e-05
4.2659e-05
4.26284e-05
4.25774e-05
4.26267e-05
4.2594e-05
4.24866e-05
4.25265e-05
4.25136e-05
4.24391e-05
4.24905e-05
4.24997e-05
4.25064e-05
4.25561e-05
4.2594e-05
4.25717e-05
4.25176e-05
4.25138e-05
4.2534e-05
4.25293e-05
4.24893e-05
4.25314e-05
4.25099e-05
4.25898e-05
4.25434e-05
4.25481e-05
4.2533e-05
5.24386e-06
4.24731e-05
4.26038e-05
5.3315e-06
4.26245e-05
4.24449e-05
4.26088e-05
5.24395e-06
4.24723e-05
4.23505e-05
4.26043e-05
4.24743e-05
5.24441e-06
4.24503e-05
5.33159e-06
4.26224e-05
4.26844e-05
4.24455e-05
5.33241e-06
4.26231e-05
4.26207e-05
4.23586e-05
5.25169e-06
4.24849e-05
4.24796e-05
4.26456e-05
5.24497e-06
4.24631e-05
4.26909e-05
5.34121e-06
4.26244e-05
5.33318e-06
4.26258e-05
4.24889e-05
4.24415e-05
5.26018e-06
4.24696e-05
4.23001e-05
4.26581e-05
4.24006e-05
5.2047e-06
4.23556e-05
5.34819e-06
4.25948e-05
4.25571e-05
4.25028e-05
5.27451e-06
4.25173e-05
5.26792e-06
5.50288e-06
4.27504e-05
4.27018e-05
5.21282e-06
4.25217e-05
5.22899e-06
5.14895e-08
6.69186e-07
6.4702e-07
5.14895e-08
6.69179e-07
5.4241e-08
6.56661e-07
6.68609e-07
5.4241e-08
6.56663e-07
5.4241e-08
6.56705e-07
6.68619e-07
6.56677e-07
5.42411e-08
5.14895e-08
6.6922e-07
6.47006e-07
6.69199e-07
5.14897e-08
6.75763e-07
5.67146e-06
5.62019e-06
6.79901e-07
6.68245e-07
6.73179e-07
6.64837e-07
6.76492e-07
6.73071e-07
5.57616e-06
6.6973e-07
5.58794e-06
6.70958e-07
6.87282e-07
6.79416e-07
6.75091e-07
5.1497e-08
6.70273e-07
6.54463e-07
5.14934e-08
6.72435e-07
5.42508e-08
6.57719e-07
6.72255e-07
5.42457e-08
6.59069e-07
7.10814e-07
7.02226e-07
6.97383e-07
5.42153e-08
6.52562e-07
6.736e-07
7.13082e-07
6.59274e-07
6.12437e-07
5.14801e-08
6.56138e-07
6.61996e-07
7.30151e-07
6.72804e-07
6.19414e-07
5.14895e-08
6.69171e-07
6.47003e-07
5.14895e-08
6.69189e-07
5.4241e-08
6.68604e-07
6.56649e-07
5.4241e-08
6.56662e-07
5.42398e-08
6.56646e-07
5.14883e-08
6.69167e-07
6.69098e-07
6.64169e-07
6.73068e-07
6.64696e-07
6.72627e-07
6.64181e-07
6.72644e-07
6.69087e-07
5.57122e-06
6.69589e-07
5.5691e-06
5.30271e-06
5.51467e-06
5.5131e-06
5.30408e-06
5.14902e-08
6.69898e-07
6.47153e-07
5.14922e-08
6.69412e-07
5.42418e-08
6.68824e-07
6.5737e-07
5.42448e-08
6.5694e-07
5.42417e-08
6.56737e-07
6.68749e-07
5.42412e-08
6.56841e-07
5.14901e-08
6.69242e-07
6.4711e-07
5.14897e-08
6.69334e-07
5.30932e-06
5.4463e-06
5.51064e-06
5.29806e-06
5.3082e-06
5.51728e-06
5.52013e-06
5.30482e-06
5.39221e-06
5.50127e-06
5.38015e-06
5.40482e-06
5.30058e-06
6.62477e-07
6.63788e-07
5.27765e-06
5.27965e-06
5.35419e-06
5.28142e-06
5.3322e-06
4.22844e-05
4.22921e-05
4.24515e-05
4.2442e-05
4.23766e-05
4.24457e-05
4.20832e-05
4.22813e-05
4.24676e-05
4.2492e-05
4.24934e-05
4.22028e-05
4.24643e-05
4.24613e-05
6.72519e-07
5.31829e-06
5.27124e-06
5.32678e-06
5.32657e-06
5.27098e-06
6.72528e-07
6.72521e-07
5.31792e-06
5.32637e-06
5.27073e-06
6.72519e-07
5.32642e-06
5.2708e-06
6.78988e-07
5.31558e-06
5.23856e-06
5.266e-06
5.34253e-06
5.29192e-06
6.22853e-07
6.76742e-07
6.73988e-07
6.81679e-07
6.75508e-07
5.32918e-06
5.34024e-06
5.2846e-06
6.73e-07
5.35104e-06
5.29492e-06
6.72518e-07
5.31806e-06
5.32633e-06
5.27068e-06
6.72516e-07
5.32638e-06
5.27072e-06
6.72571e-07
5.27173e-06
5.31989e-06
5.32725e-06
6.72531e-07
5.32804e-06
5.27258e-06
6.72596e-07
5.32173e-06
5.33312e-06
5.27772e-06
6.72805e-07
5.32974e-06
5.27432e-06
5.57324e-06
5.57251e-06
5.53938e-06
5.4092e-06
5.45524e-06
5.43982e-06
5.45052e-06
5.20385e-06
5.32059e-06
5.23843e-06
5.31881e-06
5.29549e-06
5.34737e-06
5.28549e-06
5.22333e-06
5.47007e-06
5.29119e-06
5.34015e-06
5.30834e-06
5.29253e-06
5.3931e-06
1.00904e-07
5.14895e-08
7.05148e-07
7.05141e-07
1.00907e-07
8.43823e-08
7.12558e-08
8.43885e-08
7.12936e-08
1.00903e-07
5.14895e-08
7.05145e-07
7.0514e-07
1.00906e-07
8.43824e-08
7.12662e-08
8.43884e-08
7.12872e-08
7.92731e-08
5.4241e-08
6.53945e-07
6.53939e-07
7.92738e-08
7.73539e-08
7.45398e-08
7.73544e-08
7.45398e-08
7.92727e-08
5.4241e-08
6.53942e-07
6.53935e-07
7.92735e-08
7.73539e-08
7.454e-08
7.73545e-08
7.45399e-08
7.92733e-08
6.53946e-07
5.42406e-08
6.53947e-07
7.92738e-08
7.73544e-08
7.45403e-08
7.45393e-08
7.7355e-08
7.73539e-08
7.454e-08
7.73547e-08
7.45392e-08
7.92743e-08
5.42402e-08
6.53962e-07
6.5395e-07
7.9274e-08
1.00909e-07
7.05154e-07
5.14895e-08
7.05154e-07
1.00908e-07
8.43935e-08
7.12402e-08
8.43926e-08
7.12306e-08
1.00908e-07
5.14884e-08
7.05161e-07
7.05157e-07
1.00909e-07
8.43947e-08
7.12497e-08
8.43926e-08
7.12432e-08
1.00965e-07
5.15003e-08
7.08654e-07
7.06921e-07
1.01296e-07
8.44268e-08
7.12669e-08
8.44007e-08
7.12596e-08
1.00957e-07
5.14978e-08
7.05687e-07
7.06093e-07
1.00923e-07
8.44303e-08
7.17244e-08
8.48259e-08
7.12951e-08
7.93618e-08
5.42545e-08
6.57456e-07
6.55853e-07
7.94725e-08
7.7408e-08
7.45498e-08
7.73814e-08
7.45607e-08
7.93369e-08
5.42511e-08
6.54583e-07
6.55021e-07
7.93052e-08
7.74288e-08
7.46908e-08
7.75369e-08
7.45707e-08
6.87977e-07
7.22364e-07
6.97054e-07
6.82038e-07
7.19852e-07
6.94751e-07
7.27701e-07
7.33797e-07
7.14478e-07
8.0412e-08
6.60796e-07
5.4137e-08
6.64999e-07
7.95847e-08
7.80512e-08
6.06853e-07
7.12276e-07
5.96959e-07
8.12416e-08
7.86413e-08
7.48153e-08
7.76599e-08
7.61825e-08
7.9924e-08
5.43042e-08
6.27704e-07
6.59886e-07
6.11015e-07
6.45345e-07
1.02468e-07
7.12489e-07
5.23793e-08
7.17033e-07
1.01544e-07
7.99826e-08
6.88466e-07
7.40006e-07
6.45784e-07
3.50004e-08
1.03238e-07
5.35595e-08
6.33425e-07
6.92295e-07
6.13685e-07
7.01806e-07
8.43082e-08
7.2269e-08
8.51726e-08
1.10195e-07
1.00911e-07
5.14895e-08
7.05147e-07
7.05146e-07
1.00906e-07
8.43988e-08
7.12898e-08
8.43864e-08
7.12137e-08
1.00911e-07
5.14895e-08
7.05145e-07
1.00906e-07
7.05148e-07
8.43998e-08
7.13007e-08
8.43862e-08
7.12089e-08
7.92724e-08
5.4241e-08
6.53941e-07
7.92734e-08
6.53936e-07
7.73542e-08
7.45398e-08
7.73543e-08
7.45398e-08
7.92733e-08
5.4241e-08
6.53939e-07
7.92734e-08
6.53935e-07
7.73537e-08
7.45398e-08
7.45398e-08
7.73543e-08
7.92734e-08
7.45386e-08
7.73539e-08
1.00906e-07
7.12726e-08
8.43875e-08
1.00912e-07
5.14907e-08
7.05233e-07
7.05273e-07
1.0091e-07
8.43902e-08
7.12402e-08
8.44024e-08
7.12846e-08
1.00912e-07
5.1491e-08
7.05468e-07
1.00923e-07
7.05344e-07
8.43924e-08
7.12425e-08
8.43931e-08
7.12546e-08
7.92826e-08
5.42425e-08
6.54053e-07
7.92796e-08
6.54107e-07
7.73655e-08
7.45475e-08
7.73742e-08
7.45444e-08
7.92865e-08
5.42428e-08
6.54337e-07
7.9297e-08
6.54192e-07
7.73623e-08
7.45419e-08
7.45431e-08
7.73593e-08
7.9277e-08
5.42413e-08
6.54023e-07
6.53992e-07
7.92774e-08
7.73556e-08
7.45403e-08
7.73557e-08
7.45399e-08
7.92757e-08
5.42405e-08
6.53968e-07
7.92751e-08
6.53977e-07
7.73572e-08
7.45412e-08
7.45408e-08
7.73578e-08
1.00908e-07
5.14897e-08
7.05203e-07
7.05188e-07
1.00909e-07
8.43893e-08
7.12658e-08
8.43912e-08
7.1265e-08
1.00907e-07
5.14885e-08
7.05168e-07
1.00908e-07
7.05173e-07
8.43907e-08
7.12697e-08
8.43912e-08
7.12691e-08
5.35642e-06
5.35587e-06
5.36154e-06
5.35595e-06
5.366e-06
5.33877e-06
5.38036e-06
4.2563e-05
4.25605e-05
4.25113e-05
4.25308e-05
4.25259e-05
4.25177e-05
4.25073e-05
5.32514e-06
5.33276e-06
5.34945e-06
5.35228e-06
5.34497e-06
5.32985e-06
5.3475e-06
4.3009e-05
4.27735e-05
4.28432e-05
6.70245e-07
6.37916e-07
6.60532e-07
6.47022e-07
6.60528e-07
6.70263e-07
6.37942e-07
6.51744e-07
6.79836e-07
6.61244e-07
6.6859e-07
6.61229e-07
6.51747e-07
6.79832e-07
6.51768e-07
6.61285e-07
6.68623e-07
6.79865e-07
6.61261e-07
6.79854e-07
6.51779e-07
6.70301e-07
6.60561e-07
6.47014e-07
6.37897e-07
6.60559e-07
6.70298e-07
6.37879e-07
4.30364e-05
4.28595e-05
4.3011e-05
4.28005e-05
4.27783e-05
4.28379e-05
4.27483e-05
4.26487e-05
4.26722e-05
4.28282e-05
4.27162e-05
4.26004e-05
4.26649e-05
4.26368e-05
5.38412e-06
5.36745e-06
5.36918e-06
5.40777e-06
5.37652e-06
5.41134e-06
5.38184e-06
6.71524e-07
6.38446e-07
6.61532e-07
6.48874e-07
6.62365e-07
6.7094e-07
6.3899e-07
6.53216e-07
6.80619e-07
6.62243e-07
6.70044e-07
6.62688e-07
6.52633e-07
6.81162e-07
6.45508e-07
6.52232e-07
6.6194e-07
6.40214e-07
6.57869e-07
6.35663e-07
6.58972e-07
6.19347e-07
6.4606e-07
6.32844e-07
6.35381e-07
6.4614e-07
6.32865e-07
5.65997e-07
6.70301e-07
6.3791e-07
6.60526e-07
6.46992e-07
6.60543e-07
6.70262e-07
6.37844e-07
6.51741e-07
6.79835e-07
6.68593e-07
6.61233e-07
6.61233e-07
6.51744e-07
6.7983e-07
6.70491e-07
6.38212e-07
6.61153e-07
6.47352e-07
6.60899e-07
6.70663e-07
6.3811e-07
6.52108e-07
6.80319e-07
6.69038e-07
6.61876e-07
6.61694e-07
6.52297e-07
6.80151e-07
6.51806e-07
6.61306e-07
6.79872e-07
6.68669e-07
6.61311e-07
6.51788e-07
6.79887e-07
6.70305e-07
6.60575e-07
6.37903e-07
6.47054e-07
6.60588e-07
6.70306e-07
6.37914e-07
5.31574e-06
5.31019e-06
5.3436e-06
5.30081e-06
5.32263e-06
5.31165e-06
5.29173e-06
5.33475e-06
5.24387e-06
5.33481e-06
5.30567e-06
5.26962e-06
5.30533e-06
5.26985e-06
5.3315e-06
5.27964e-06
5.27968e-06
5.31393e-06
5.31688e-06
5.31704e-06
5.31362e-06
5.33482e-06
5.244e-06
5.33486e-06
5.30547e-06
5.26986e-06
5.30564e-06
5.26976e-06
5.33536e-06
5.24415e-06
5.33508e-06
5.3059e-06
5.27023e-06
5.30598e-06
5.27009e-06
5.27974e-06
5.3317e-06
5.27984e-06
5.31376e-06
5.31704e-06
5.31386e-06
5.31704e-06
5.28054e-06
5.33198e-06
5.28013e-06
5.31412e-06
5.31759e-06
5.31733e-06
5.31429e-06
5.34226e-06
5.24787e-06
5.33883e-06
5.30931e-06
5.27625e-06
5.31087e-06
5.27372e-06
5.33595e-06
5.24592e-06
5.33689e-06
5.30738e-06
5.27097e-06
5.3068e-06
5.27173e-06
5.33695e-06
5.28881e-06
5.28493e-06
5.31691e-06
5.32202e-06
5.32043e-06
5.31794e-06
5.28131e-06
5.33452e-06
5.28259e-06
5.31559e-06
5.3182e-06
5.31898e-06
5.31495e-06
5.34868e-06
5.27781e-06
5.35559e-06
5.31323e-06
5.28166e-06
5.31456e-06
5.28608e-06
5.27238e-06
5.28877e-06
5.33893e-06
5.3059e-06
5.26058e-06
5.283e-06
5.28615e-06
5.29473e-06
5.35482e-06
5.29904e-06
5.31611e-06
5.32396e-06
5.31906e-06
5.32242e-06
5.24988e-06
5.33866e-06
5.28637e-06
5.30798e-06
5.30151e-06
5.31349e-06
5.29981e-06
5.23997e-06
5.24694e-06
5.20184e-06
5.29257e-06
5.29066e-06
5.28679e-06
5.28689e-06
5.42907e-08
5.14894e-08
9.12175e-08
9.12166e-08
5.42909e-08
6.77755e-07
6.68243e-07
6.72909e-07
6.69155e-07
6.68231e-07
6.72902e-07
6.77762e-07
6.70236e-07
6.47038e-07
6.60528e-07
6.37933e-07
6.60532e-07
6.70254e-07
6.37959e-07
5.42907e-08
5.14894e-08
9.12173e-08
9.12165e-08
5.42908e-08
6.77758e-07
6.72913e-07
6.69174e-07
6.68238e-07
6.6824e-07
6.72911e-07
6.77765e-07
7.0999e-08
5.42408e-08
1.01113e-07
1.01113e-07
7.09993e-08
6.51747e-07
6.68601e-07
6.79843e-07
6.61246e-07
6.61238e-07
6.51753e-07
6.79834e-07
7.0999e-08
5.42408e-08
1.01113e-07
1.01112e-07
7.09991e-08
7.09991e-08
1.01113e-07
5.42408e-08
1.01112e-07
7.09994e-08
6.51758e-07
6.68611e-07
6.79845e-07
6.61259e-07
6.61249e-07
6.51755e-07
6.79844e-07
7.09993e-08
5.42409e-08
1.01114e-07
1.01113e-07
7.09995e-08
5.42909e-08
9.12176e-08
5.14894e-08
9.12163e-08
5.4291e-08
6.77791e-07
6.6827e-07
6.69203e-07
6.72938e-07
6.68267e-07
6.72934e-07
6.77792e-07
6.70308e-07
6.46996e-07
6.6055e-07
6.37871e-07
6.60551e-07
6.70299e-07
6.37852e-07
6.77786e-07
6.72925e-07
6.69181e-07
6.68259e-07
6.68253e-07
6.72924e-07
6.77783e-07
5.42908e-08
5.14895e-08
9.12181e-08
9.12171e-08
5.42909e-08
6.38895e-07
6.6626e-07
6.60956e-07
6.70391e-07
6.58992e-07
6.68777e-07
6.40397e-07
6.52956e-07
6.90281e-07
6.65139e-07
6.73843e-07
6.65832e-07
6.52605e-07
6.90604e-07
6.38219e-07
6.65546e-07
6.57626e-07
6.67629e-07
6.58319e-07
6.68041e-07
6.37831e-07
6.53579e-07
6.68517e-07
6.74482e-07
6.92502e-07
6.66495e-07
6.55005e-07
6.9117e-07
6.50801e-07
6.63662e-07
6.73842e-07
6.75534e-07
6.81276e-07
6.43637e-07
6.68518e-07
6.80678e-07
7.31058e-07
6.91571e-07
6.79683e-07
6.82505e-07
7.21619e-07
6.87448e-07
6.6604e-07
6.71357e-07
6.95691e-07
6.85334e-07
6.58196e-07
6.76831e-07
7.04251e-07
6.61554e-07
6.79346e-07
6.86644e-07
6.6953e-07
6.91743e-07
6.72827e-07
6.58785e-07
5.43077e-08
5.15006e-08
9.1379e-08
9.13279e-08
5.43041e-08
6.79228e-07
6.69241e-07
6.73766e-07
6.7081e-07
6.69956e-07
6.74351e-07
6.78584e-07
6.72866e-07
6.50665e-07
6.66712e-07
6.44665e-07
6.63881e-07
6.76696e-07
6.40426e-07
5.42955e-08
5.14939e-08
9.12388e-08
9.12445e-08
5.42949e-08
6.80534e-07
6.77224e-07
6.7169e-07
6.72868e-07
6.71127e-07
6.75429e-07
6.83303e-07
7.10256e-08
5.4258e-08
1.01286e-07
1.01248e-07
7.10116e-08
6.54351e-07
6.71011e-07
6.84707e-07
6.64658e-07
6.63582e-07
6.56568e-07
6.8229e-07
7.10078e-08
5.4246e-08
1.01139e-07
1.01145e-07
7.10065e-08
7.10036e-08
1.01341e-07
5.42238e-08
1.01565e-07
7.09779e-08
6.63443e-07
6.70597e-07
6.8943e-07
6.65895e-07
6.6405e-07
6.60727e-07
6.90835e-07
5.43181e-08
9.14155e-08
5.15455e-08
9.16755e-08
5.42808e-08
6.58489e-07
6.526e-07
6.61926e-07
6.51445e-07
6.58718e-07
6.44608e-07
6.62738e-07
6.87111e-07
6.67962e-07
6.70674e-07
6.58735e-07
6.67098e-07
6.86048e-07
7.02016e-07
6.85629e-07
6.79353e-07
6.68723e-07
6.7441e-07
6.70079e-07
6.76995e-07
6.87798e-07
5.42907e-08
5.14893e-08
9.12173e-08
9.12164e-08
5.42908e-08
6.77775e-07
6.68234e-07
6.72913e-07
6.69169e-07
6.68246e-07
6.77767e-07
6.72913e-07
6.70313e-07
6.46974e-07
6.60538e-07
6.37902e-07
6.60534e-07
6.70269e-07
6.37829e-07
5.42895e-08
5.14882e-08
9.12173e-08
9.12149e-08
5.42908e-08
6.7778e-07
6.72913e-07
6.69162e-07
6.68248e-07
6.6824e-07
6.72911e-07
6.7777e-07
7.0999e-08
5.42408e-08
1.01113e-07
1.01112e-07
7.09991e-08
6.5174e-07
6.6858e-07
6.79834e-07
6.61245e-07
6.6122e-07
6.79828e-07
6.51744e-07
7.09979e-08
5.42396e-08
1.01113e-07
1.01111e-07
7.09992e-08
1.01112e-07
7.0998e-08
6.61236e-07
9.12157e-08
5.42896e-08
6.72913e-07
6.68234e-07
6.37427e-07
6.64311e-07
6.57008e-07
6.67126e-07
6.57151e-07
6.37368e-07
6.67188e-07
6.52303e-07
6.90141e-07
6.6501e-07
6.72789e-07
6.64701e-07
6.52436e-07
6.9003e-07
6.37509e-07
6.64364e-07
6.57497e-07
6.67441e-07
6.57192e-07
6.37649e-07
6.67281e-07
6.52237e-07
6.64522e-07
6.72764e-07
6.89932e-07
6.64668e-07
6.89976e-07
6.5219e-07
6.57018e-07
6.67105e-07
6.37346e-07
6.6453e-07
6.89915e-07
6.52166e-07
5.42911e-08
5.14898e-08
9.12208e-08
9.12199e-08
5.42915e-08
6.78061e-07
6.68877e-07
6.73433e-07
6.69637e-07
6.68626e-07
6.78255e-07
6.73235e-07
6.70418e-07
6.47247e-07
6.60693e-07
6.37978e-07
6.60785e-07
6.70374e-07
6.38033e-07
5.42931e-08
5.14917e-08
9.12334e-08
9.1229e-08
5.42937e-08
6.77958e-07
6.73057e-07
6.69489e-07
6.68417e-07
6.68502e-07
6.73125e-07
6.77898e-07
7.10003e-08
5.42415e-08
1.01117e-07
1.01117e-07
7.10001e-08
6.51986e-07
6.68879e-07
6.79984e-07
6.61476e-07
6.6153e-07
6.80043e-07
6.51918e-07
7.10033e-08
5.42433e-08
1.01134e-07
1.01128e-07
7.10054e-08
7.1e-08
5.42414e-08
1.01117e-07
1.01116e-07
7.10004e-08
6.51832e-07
6.68709e-07
6.79937e-07
6.61394e-07
6.6135e-07
6.7991e-07
6.51862e-07
7.09994e-08
5.42411e-08
1.01115e-07
1.01113e-07
7.09995e-08
5.42911e-08
5.14898e-08
9.122e-08
9.12189e-08
5.42914e-08
6.77807e-07
6.68285e-07
6.7295e-07
6.69243e-07
6.68296e-07
6.77801e-07
6.7296e-07
6.7032e-07
6.47078e-07
6.6065e-07
6.37955e-07
6.60613e-07
6.70343e-07
6.37937e-07
5.42909e-08
5.14896e-08
9.12181e-08
9.12169e-08
5.4291e-08
6.77829e-07
6.73008e-07
6.69281e-07
6.6836e-07
6.68324e-07
6.72983e-07
6.77852e-07
6.45416e-07
6.47638e-07
6.60846e-07
6.56736e-07
6.34001e-07
6.49793e-07
6.56819e-07
6.44903e-07
6.60224e-07
6.49261e-07
6.58182e-07
6.28846e-07
6.55051e-07
6.5619e-07
6.59859e-07
6.62269e-07
6.72517e-07
6.62267e-07
6.59849e-07
6.62888e-07
6.62935e-07
6.72521e-07
6.62288e-07
6.59867e-07
6.62274e-07
6.59858e-07
6.6291e-07
6.62948e-07
6.72513e-07
6.5986e-07
6.62269e-07
6.59849e-07
6.62256e-07
6.62888e-07
6.62923e-07
6.72514e-07
6.59856e-07
6.62263e-07
6.59844e-07
6.62251e-07
6.62876e-07
6.62923e-07
6.66508e-07
6.68796e-07
6.85088e-07
6.69644e-07
6.67066e-07
6.64806e-07
6.67086e-07
6.75127e-07
6.4424e-07
6.43422e-07
6.57482e-07
6.54235e-07
6.58652e-07
6.51882e-07
7.28085e-08
7.34499e-08
7.30182e-08
7.30681e-08
7.30924e-08
7.41709e-08
7.30693e-08
7.41735e-08
7.27236e-08
7.27601e-08
7.26802e-08
7.2845e-08
7.31296e-08
7.43038e-08
7.32977e-08
7.41869e-08
6.74057e-07
6.63657e-07
6.66032e-07
6.61952e-07
6.64369e-07
6.65075e-07
6.6606e-07
6.73354e-07
6.60563e-07
6.62996e-07
6.61038e-07
6.63469e-07
6.64303e-07
6.63871e-07
6.5985e-07
6.62259e-07
6.62907e-07
6.72513e-07
6.59858e-07
6.62264e-07
6.59844e-07
6.6225e-07
6.62873e-07
6.62927e-07
6.72514e-07
6.59856e-07
6.62262e-07
6.59848e-07
6.62252e-07
6.62882e-07
6.62915e-07
6.72549e-07
6.59935e-07
6.62358e-07
6.6232e-07
6.599e-07
6.6298e-07
6.6306e-07
6.72538e-07
6.62296e-07
6.59876e-07
6.62304e-07
6.59884e-07
6.62947e-07
6.62971e-07
6.72634e-07
6.59979e-07
6.62397e-07
6.60029e-07
6.62451e-07
6.63166e-07
6.63129e-07
6.72699e-07
6.60288e-07
6.62715e-07
6.60126e-07
6.6255e-07
6.63308e-07
6.63543e-07
7.23967e-08
4.27322e-08
8.2132e-08
1.00902e-07
7.23976e-08
8.21312e-08
4.27311e-08
5.42894e-08
5.14882e-08
9.12172e-08
9.1215e-08
5.42907e-08
7.23981e-08
1.00904e-07
8.21337e-08
4.27334e-08
8.21323e-08
4.27325e-08
7.23988e-08
8.43836e-08
7.42222e-08
7.42227e-08
7.13892e-08
7.12632e-08
7.13864e-08
8.43871e-08
7.42325e-08
7.42313e-08
7.13678e-08
7.12997e-08
7.13618e-08
7.23981e-08
4.27323e-08
8.21322e-08
1.00904e-07
7.23981e-08
4.27325e-08
8.21321e-08
5.42906e-08
5.14894e-08
9.12167e-08
9.12164e-08
5.42907e-08
7.23983e-08
1.00905e-07
4.27333e-08
8.21336e-08
4.2733e-08
8.2132e-08
7.23986e-08
8.43794e-08
7.42227e-08
7.42162e-08
7.13803e-08
7.12942e-08
7.13671e-08
8.43834e-08
7.42306e-08
7.42232e-08
7.13745e-08
7.13142e-08
7.13521e-08
7.09974e-08
5.42396e-08
1.01113e-07
1.01111e-07
7.09991e-08
4.25154e-08
4.25155e-08
4.25145e-08
4.25154e-08
3.60313e-08
5.87648e-08
7.73534e-08
9.63913e-08
9.63906e-08
5.87648e-08
3.60313e-08
8.15297e-08
7.45386e-08
8.1529e-08
3.60313e-08
7.73534e-08
9.63912e-08
5.87649e-08
9.63906e-08
5.87648e-08
3.60313e-08
8.15297e-08
7.45386e-08
8.1529e-08
7.0999e-08
5.42408e-08
1.01113e-07
1.01112e-07
7.09991e-08
4.25154e-08
4.25154e-08
4.25154e-08
4.25154e-08
3.60305e-08
5.87649e-08
7.73526e-08
9.63903e-08
5.87635e-08
3.60313e-08
9.63896e-08
8.15298e-08
7.45387e-08
8.15291e-08
3.60313e-08
7.73535e-08
5.8765e-08
9.63914e-08
5.87648e-08
9.63907e-08
3.60314e-08
8.15292e-08
7.4537e-08
8.15277e-08
4.25155e-08
4.25155e-08
7.09991e-08
5.42408e-08
1.01112e-07
1.01113e-07
7.09988e-08
4.25155e-08
4.25155e-08
3.60314e-08
5.87642e-08
9.63905e-08
7.73542e-08
9.6391e-08
3.60306e-08
5.8765e-08
7.4539e-08
8.15301e-08
8.15294e-08
8.1529e-08
7.4539e-08
8.15293e-08
3.60314e-08
7.73543e-08
9.6392e-08
5.87653e-08
9.63911e-08
5.87651e-08
3.60315e-08
3.60313e-08
7.73538e-08
5.87647e-08
9.63906e-08
5.87649e-08
9.63909e-08
3.60314e-08
8.15298e-08
7.45388e-08
8.15292e-08
3.60313e-08
7.73534e-08
5.8765e-08
9.63914e-08
3.60314e-08
5.87649e-08
9.63908e-08
8.15289e-08
7.45388e-08
8.15292e-08
7.09992e-08
5.42409e-08
1.01113e-07
1.01113e-07
7.09982e-08
4.25156e-08
4.25157e-08
4.25155e-08
4.25146e-08
7.23994e-08
8.21349e-08
1.00909e-07
4.27348e-08
8.21348e-08
7.23991e-08
4.27349e-08
5.42909e-08
5.14894e-08
9.1217e-08
9.12172e-08
5.4291e-08
7.23993e-08
1.00909e-07
8.21354e-08
4.27342e-08
7.23992e-08
8.21342e-08
4.27347e-08
8.43918e-08
7.42392e-08
7.42342e-08
7.13955e-08
7.1266e-08
7.13767e-08
8.43911e-08
7.42375e-08
7.42334e-08
7.13966e-08
7.12639e-08
7.13769e-08
7.23992e-08
8.21352e-08
4.27338e-08
1.00908e-07
7.23983e-08
8.21345e-08
4.27344e-08
5.42908e-08
5.14894e-08
9.1216e-08
9.1217e-08
5.42897e-08
7.23992e-08
1.00908e-07
8.21351e-08
4.27342e-08
8.21345e-08
4.27341e-08
7.23993e-08
8.43949e-08
7.42387e-08
7.42397e-08
7.13861e-08
7.12289e-08
7.14004e-08
8.43951e-08
7.42367e-08
7.42424e-08
7.13863e-08
7.12441e-08
7.13875e-08
7.24376e-08
4.27438e-08
8.22384e-08
1.01025e-07
7.24241e-08
8.23071e-08
4.27511e-08
5.43053e-08
5.15012e-08
9.12818e-08
9.13066e-08
5.4303e-08
7.24532e-08
1.01089e-07
8.25232e-08
4.28044e-08
8.23616e-08
4.27675e-08
7.24786e-08
8.44094e-08
7.42638e-08
7.4249e-08
7.13819e-08
7.12743e-08
7.13872e-08
8.44065e-08
7.42388e-08
7.4244e-08
7.14217e-08
7.12451e-08
7.14054e-08
7.24121e-08
4.27417e-08
8.22205e-08
1.00935e-07
7.2418e-08
4.27396e-08
8.21872e-08
5.42975e-08
5.14957e-08
9.12679e-08
9.12516e-08
5.42999e-08
7.24088e-08
1.00932e-07
4.27373e-08
8.21652e-08
4.27376e-08
8.21807e-08
7.24066e-08
8.44882e-08
7.42625e-08
7.43176e-08
7.19915e-08
7.14781e-08
7.15638e-08
8.45704e-08
7.47817e-08
7.44268e-08
7.14136e-08
7.13996e-08
7.14533e-08
7.10248e-08
5.42571e-08
1.01192e-07
1.01213e-07
7.10205e-08
4.25236e-08
4.25169e-08
4.25256e-08
4.25254e-08
3.60363e-08
5.87796e-08
7.7397e-08
9.64279e-08
9.64211e-08
5.87767e-08
3.6037e-08
8.15411e-08
7.45498e-08
8.15414e-08
3.60344e-08
7.73849e-08
9.64103e-08
5.87722e-08
9.64114e-08
5.8773e-08
3.60344e-08
8.15534e-08
7.45548e-08
8.15483e-08
7.10115e-08
5.42486e-08
1.01171e-07
1.01157e-07
7.10156e-08
4.25198e-08
4.25195e-08
4.25219e-08
4.25233e-08
3.6037e-08
5.87836e-08
7.74463e-08
9.64423e-08
5.87859e-08
3.60374e-08
9.64545e-08
8.1666e-08
7.46245e-08
8.16173e-08
3.60357e-08
7.74835e-08
5.87753e-08
9.65444e-08
5.87846e-08
9.64878e-08
3.60372e-08
8.15654e-08
7.45872e-08
8.15821e-08
7.47823e-08
7.42104e-08
7.3554e-08
7.57124e-08
7.57572e-08
7.69513e-08
7.84235e-08
7.5055e-08
7.67592e-08
8.16227e-08
7.80523e-08
8.01057e-08
7.4188e-08
7.30465e-08
7.322e-08
7.38333e-08
7.43683e-08
7.40738e-08
7.34689e-08
7.52701e-08
7.51785e-08
7.69699e-08
7.72303e-08
7.54025e-08
7.57674e-08
7.99681e-08
7.70813e-08
7.82238e-08
7.4161e-08
7.44126e-08
7.35317e-08
7.47952e-08
7.88627e-08
7.5128e-08
7.70039e-08
7.66774e-08
8.63894e-08
7.72553e-08
9.51455e-08
1.00257e-07
8.18954e-08
8.47978e-08
7.98315e-08
8.49135e-08
8.19757e-08
8.20979e-08
7.89075e-08
8.62608e-08
4.25851e-08
4.25134e-08
7.12739e-08
5.4297e-08
1.03008e-07
1.02135e-07
7.16187e-08
4.28987e-08
4.36305e-08
6.884e-08
7.35811e-08
6.79324e-08
1.0072e-07
9.63894e-08
4.20396e-08
8.20996e-08
9.53838e-08
7.88181e-08
8.29288e-08
7.77484e-08
1.04806e-07
8.58724e-08
8.59245e-08
8.78353e-08
5.48371e-08
8.22988e-08
9.51984e-08
9.37785e-08
6.81125e-08
3.6645e-08
7.84657e-08
6.10397e-08
9.89337e-08
5.94301e-08
9.79272e-08
3.78843e-08
8.17541e-08
7.50755e-08
8.19537e-08
3.61867e-08
7.79461e-08
5.87701e-08
9.66947e-08
3.6059e-08
5.88769e-08
9.70777e-08
8.20569e-08
7.55819e-08
8.23624e-08
8.22695e-08
7.60777e-08
1.06277e-07
9.88303e-08
6.65523e-08
7.18772e-08
7.45253e-08
1.01069e-07
9.28911e-08
4.87544e-08
6.65488e-08
7.28507e-08
8.30651e-08
1.02514e-07
4.35798e-08
8.32872e-08
7.30872e-08
4.32512e-08
5.44565e-08
5.18119e-08
9.37312e-08
9.22925e-08
5.43846e-08
7.25847e-08
1.02034e-07
8.2674e-08
4.28679e-08
7.24915e-08
8.29997e-08
4.2999e-08
8.96346e-08
9.31204e-08
6.97198e-08
9.28874e-08
6.62478e-08
8.64635e-08
7.97942e-08
8.05941e-08
8.59418e-08
8.55997e-08
8.48843e-08
8.17831e-08
1.00226e-07
1.06524e-07
4.66303e-08
1.04234e-07
9.07187e-08
1.01896e-07
8.48262e-08
9.9013e-08
8.28705e-08
4.74486e-08
7.38085e-08
7.72808e-08
7.50736e-08
7.75657e-08
7.67118e-08
9.77105e-08
9.27329e-08
7.77125e-08
5.46271e-08
6.80752e-08
8.56827e-08
9.5456e-08
9.50419e-08
8.61311e-08
7.83264e-08
7.84012e-08
7.28817e-08
7.41606e-08
7.5039e-08
8.57612e-08
7.54196e-08
7.66591e-08
9.19048e-08
7.91674e-08
8.00001e-08
7.23993e-08
4.27355e-08
8.21353e-08
1.0091e-07
7.23997e-08
8.21348e-08
4.27348e-08
5.42908e-08
5.14893e-08
9.12167e-08
9.12164e-08
5.42909e-08
7.23988e-08
1.00907e-07
8.21339e-08
4.27333e-08
8.21329e-08
4.27338e-08
7.23986e-08
8.43928e-08
7.42468e-08
7.42381e-08
7.1364e-08
7.12892e-08
7.13621e-08
8.43859e-08
7.42251e-08
7.42252e-08
7.14048e-08
7.12432e-08
7.13898e-08
7.23986e-08
4.27354e-08
1.00907e-07
8.21355e-08
7.23995e-08
4.27344e-08
8.2133e-08
5.42908e-08
5.14893e-08
9.12176e-08
9.12159e-08
5.42909e-08
7.23975e-08
1.00905e-07
4.27331e-08
8.21336e-08
7.23986e-08
4.27325e-08
8.21326e-08
8.43958e-08
7.42485e-08
7.42437e-08
7.1355e-08
7.12732e-08
7.13734e-08
8.43894e-08
7.42227e-08
7.42305e-08
7.14066e-08
7.12251e-08
7.14015e-08
7.0999e-08
5.42408e-08
1.01112e-07
1.01112e-07
7.09991e-08
4.25154e-08
4.25154e-08
4.25154e-08
4.25154e-08
3.60313e-08
5.87649e-08
7.73524e-08
9.63912e-08
9.63894e-08
5.87644e-08
3.60313e-08
8.15297e-08
7.45373e-08
8.15277e-08
3.60305e-08
7.73529e-08
9.63912e-08
5.87649e-08
9.63894e-08
3.60313e-08
5.87638e-08
8.15296e-08
7.45382e-08
8.15285e-08
7.09985e-08
5.42408e-08
1.01113e-07
1.01112e-07
7.09991e-08
4.25145e-08
4.25154e-08
4.25154e-08
4.25154e-08
3.60313e-08
5.87649e-08
9.63912e-08
7.73533e-08
5.87648e-08
3.60313e-08
9.63904e-08
7.45386e-08
8.15297e-08
8.1529e-08
8.15296e-08
7.45386e-08
8.1529e-08
3.60313e-08
7.73533e-08
5.87649e-08
9.63911e-08
5.87648e-08
9.63904e-08
3.60313e-08
4.25145e-08
8.15283e-08
5.87639e-08
9.639e-08
3.60305e-08
8.21338e-08
4.27326e-08
7.23977e-08
7.13716e-08
7.4228e-08
7.2399e-08
4.27345e-08
8.21439e-08
1.00909e-07
7.2401e-08
8.21403e-08
4.27334e-08
5.42909e-08
5.14895e-08
9.12236e-08
9.12211e-08
5.42921e-08
7.24004e-08
1.0091e-07
8.214e-08
4.27344e-08
8.21394e-08
4.27343e-08
7.24002e-08
8.43918e-08
7.42285e-08
7.42293e-08
7.1404e-08
7.12563e-08
7.13916e-08
8.43955e-08
7.42452e-08
7.4238e-08
7.13705e-08
7.12945e-08
7.13668e-08
7.24021e-08
4.27344e-08
1.00914e-07
8.21455e-08
7.24013e-08
4.27347e-08
8.2149e-08
5.42926e-08
5.14913e-08
9.12257e-08
9.12266e-08
5.42923e-08
7.24032e-08
1.00916e-07
4.27367e-08
8.21622e-08
7.24051e-08
4.27357e-08
8.21515e-08
8.43902e-08
7.42352e-08
7.42317e-08
7.13967e-08
7.12699e-08
7.13779e-08
8.43916e-08
7.42377e-08
7.42333e-08
7.13923e-08
7.12721e-08
7.13765e-08
7.10002e-08
5.42412e-08
1.01121e-07
1.01118e-07