/*--------------------------------*- C++ -*----------------------------------*\
| =========                 |                                                 |
| \\      /  F ield         | OpenFOAM: The Open Source CFD Toolbox           |
|  \\    /   O peration     | Version:  2012                                  |
|   \\  /    A nd           | Website:  www.openfoam.com                      |
|    \\/     M anipulation  |                                                 |
\*---------------------------------------------------------------------------*/
FoamFile
{
    version     2.0;
    format      ascii;
    class       volVectorField;
    location    "0.108/fluid";
    object      cellMotionU;
}
// * * * * * * * * * * * * * * * * * * * * * * * * * * * * * * * * * * * * * //

dimensions      [0 1 -1 0 0 0 0];


internalField   nonuniform List<vector> 
16422
(
(0.000162504 -5.57013e-05 1.09317e-05)
(0.000795123 9.86238e-05 0.000182094)
(0.00153506 0.000238351 0.000417001)
(0.00242041 0.00023948 0.000664339)
(0.00361175 -8.30959e-05 0.000887849)
(0.00495841 -0.000569513 0.00107728)
(0.00642393 -0.00113806 0.00119921)
(0.00798129 -0.00182926 0.00121293)
(0.00955755 -0.00248463 0.00108757)
(0.0110581 -0.00287766 0.000806116)
(0.0125934 -0.00284268 0.000356293)
(0.0143588 -0.00239624 -0.000278911)
(0.015887 -0.00164444 -0.00102519)
(0.0174904 -0.000163321 -0.00191345)
(0.0188474 -4.49742e-05 -0.00264763)
(0.000261828 -6.46685e-05 1.19433e-05)
(0.00140871 -5.40038e-06 0.000181689)
(0.00258569 -9.09353e-06 0.000371612)
(0.00386883 -0.000192774 0.000550953)
(0.00525983 -0.000492686 0.000706715)
(0.00679415 -0.000962976 0.000820088)
(0.00840573 -0.00152017 0.000864888)
(0.0100688 -0.00213665 0.000815379)
(0.0115586 -0.00261456 0.000677159)
(0.012887 -0.00295428 0.00041067)
(0.0141257 -0.00309218 -3.63151e-06)
(0.0151452 -0.00343429 -0.000477192)
(0.0160135 -0.00402834 -0.00100255)
(0.0166764 -0.00511029 -0.00148991)
(0.0170925 -0.00748839 -0.0018264)
(0.000319443 -4.52935e-05 1.22258e-05)
(0.00186977 -9.93704e-05 0.000169665)
(0.00323953 -0.000156891 0.000335605)
(0.00472459 -0.000283729 0.000473281)
(0.00626513 -0.000458338 0.000579884)
(0.00790302 -0.00072834 0.000637439)
(0.00948623 -0.00106224 0.000637382)
(0.0109944 -0.00139168 0.000566396)
(0.0123291 -0.0017261 0.00042568)
(0.0135345 -0.00190828 0.000177365)
(0.0144665 -0.0023186 -0.000141667)
(0.0151359 -0.00282276 -0.00048896)
(0.0155691 -0.00358212 -0.000832157)
(0.0158261 -0.0047537 -0.00113866)
(0.0159186 -0.00648748 -0.00137985)
(0.000179912 -7.49665e-06 8.48284e-06)
(0.00112692 0.000246289 0.000141157)
(0.00195843 0.000562631 0.00034572)
(0.00301864 0.000602351 0.000530435)
(0.00424135 0.000481089 0.000699074)
(0.00566253 0.000231559 0.000832516)
(0.00708753 -2.51271e-05 0.000921093)
(0.00860069 -0.000241315 0.000912363)
(0.0100586 -0.000356656 0.000778464)
(0.01141 -0.000288737 0.000500334)
(0.0128198 -0.000118193 4.0037e-05)
(0.0142279 0.000492109 -0.000583699)
(0.015406 0.00137382 -0.00129522)
(0.0163972 0.00188246 -0.00198721)
(0.0172635 0.000984282 -0.00252762)
(0.000282278 -3.43818e-05 8.99495e-06)
(0.00167535 9.62273e-05 0.000146645)
(0.00288748 0.000227163 0.000317549)
(0.00420632 0.000200663 0.000464909)
(0.00557608 0.000103315 0.000589824)
(0.00714067 -0.000176868 0.000662868)
(0.00868627 -0.000412348 0.000687779)
(0.010197 -0.000676363 0.000628097)
(0.0116074 -0.000924324 0.000474724)
(0.01284 -0.000971649 0.000207072)
(0.0140087 -0.000993117 -0.000197531)
(0.0149751 -0.00108229 -0.000670375)
(0.0157853 -0.00128321 -0.00118853)
(0.0163912 -0.00197723 -0.00166549)
(0.0167147 -0.00378405 -0.00197277)
(0.000315477 -2.41045e-05 1.17437e-05)
(0.00213801 -4.61897e-05 0.000139757)
(0.00352489 -2.76784e-06 0.00029328)
(0.00496223 -4.39029e-05 0.000416067)
(0.00646238 -0.000152259 0.000500509)
(0.00799658 -0.00026187 0.000540161)
(0.00951729 -0.000439212 0.00052379)
(0.0109284 -0.000673403 0.000444243)
(0.0122145 -0.000890333 0.00029342)
(0.0133417 -0.00100665 5.84189e-05)
(0.0143057 -0.00118204 -0.000257546)
(0.0150329 -0.00148452 -0.000609521)
(0.0155419 -0.0020099 -0.000958844)
(0.0158592 -0.00290704 -0.00126391)
(0.0159699 -0.00417149 -0.00148234)
(0.000197497 1.49047e-05 4.64518e-06)
(0.00129356 0.000363262 8.80746e-05)
(0.00229032 0.000670079 0.000214424)
(0.0033978 0.00080945 0.000337337)
(0.00460462 0.00082909 0.000448177)
(0.00595504 0.000760299 0.000528104)
(0.00736752 0.000692377 0.000569219)
(0.00875761 0.000602433 0.000539684)
(0.0100711 0.000572222 0.000426377)
(0.0113219 0.000639615 0.000198587)
(0.0125386 0.000758554 -0.000165306)
(0.0136875 0.000953899 -0.000635791)
(0.0145138 0.000992166 -0.00111891)
(0.0151522 0.000591201 -0.00156105)
(0.0155805 -0.000727165 -0.00186729)
(0.000279085 -1.11416e-05 5.56736e-06)
(0.00173743 0.000214859 9.92255e-05)
(0.00305542 0.000403704 0.000216619)
(0.00446401 0.000447051 0.000317749)
(0.00585718 0.000431791 0.000398328)
(0.00729692 0.000358625 0.000441378)
(0.00880212 0.000182749 0.000425784)
(0.0101695 5.64938e-05 0.000359243)
(0.0114489 -2.69115e-05 0.000234436)
(0.0126436 4.9171e-08 2.399e-05)
(0.0137553 -3.63522e-05 -0.000314466)
(0.0146012 -0.000153153 -0.0006899)
(0.0152795 -0.000519068 -0.00108565)
(0.0157025 -0.00123743 -0.00142179)
(0.015881 -0.00259902 -0.00162715)
(0.00030597 -1.09143e-05 8.3364e-06)
(0.00215869 2.16192e-05 9.69712e-05)
(0.00367873 7.57601e-05 0.000202106)
(0.00513904 6.27386e-05 0.000287447)
(0.00659966 -3.99525e-06 0.000338606)
(0.0080904 -9.37649e-05 0.000349692)
(0.00943772 -0.000178798 0.000331369)
(0.0107548 -0.000289687 0.000256236)
(0.011947 -0.000326873 0.000134722)
(0.0130997 -0.0003516 -5.78001e-05)
(0.0140383 -0.000476495 -0.00031272)
(0.01477 -0.000748942 -0.000605594)
(0.0152928 -0.00123906 -0.000899678)
(0.0155901 -0.00196738 -0.00113872)
(0.015669 -0.00291852 -0.00129506)
(0.000199963 2.84143e-05 1.03066e-06)
(0.00138555 0.00040788 3.21165e-05)
(0.00244264 0.000736176 8.70135e-05)
(0.00360308 0.000909602 0.000143409)
(0.00481803 0.000980703 0.000188457)
(0.00613657 0.000966305 0.000207758)
(0.00747515 0.000936181 0.000205547)
(0.00877602 0.000909352 0.000163061)
(0.00997236 0.000903746 8.96311e-05)
(0.0111296 0.000920952 -4.67047e-05)
(0.0122127 0.000940628 -0.000251696)
(0.013107 0.000847025 -0.000502436)
(0.013748 0.0005008 -0.000774393)
(0.0141594 -0.000184782 -0.00102431)
(0.0143583 -0.00142108 -0.00119264)
(0.000266113 9.48213e-06 1.84031e-06)
(0.00183913 0.000250186 3.85724e-05)
(0.00318488 0.000464623 8.71314e-05)
(0.004644 0.000525594 0.000127368)
(0.00607187 0.000525621 0.000156879)
(0.0074708 0.000500404 0.000162115)
(0.00879897 0.000450641 0.000142654)
(0.0100149 0.000415825 9.90555e-05)
(0.0112356 0.000374078 3.40125e-06)
(0.0123693 0.000353751 -0.000129012)
(0.0133904 0.000317151 -0.00030999)
(0.0142079 0.000121057 -0.000527007)
(0.0147682 -0.000303294 -0.000737475)
(0.0150867 -0.000981663 -0.000917103)
(0.0151928 -0.00205223 -0.00102817)
(0.000331551 -1.05821e-05 1.81404e-06)
(0.00213232 7.28037e-05 4.05654e-05)
(0.00370831 0.000156318 8.39569e-05)
(0.00523134 0.000157878 0.000122151)
(0.00672601 0.000116555 0.000141709)
(0.00813953 5.63634e-05 0.000141888)
(0.00943028 -1.53213e-05 0.00011674)
(0.0105265 -1.15131e-05 8.11322e-05)
(0.0117806 8.10217e-06 -1.60136e-05)
(0.0128715 -1.76623e-05 -0.000148579)
(0.0137456 -0.000107122 -0.000288678)
(0.0144601 -0.000316701 -0.000441972)
(0.0149679 -0.00074614 -0.000592855)
(0.0152604 -0.00138537 -0.000729484)
(0.0153315 -0.00207112 -0.000851946)
(0.0193863 0.000929328 -0.00251575)
(0.0188095 -0.00728446 -0.0027064)
(0.0181471 0.00328939 -0.00256994)
(0.0185681 -0.00526491 -0.00275258)
(0.0173693 0.00338244 -0.00266104)
(0.0175383 -0.00231859 -0.00267699)
(0.0174542 -0.000810618 -0.00165716)
(0.0189771 0.000570162 -0.00231426)
(0.0193692 -0.00234343 -0.00247803)
(0.0188088 -0.00864031 -0.00256505)
(0.0176012 -0.00886631 -0.0018523)
(0.0173175 -0.0127433 -0.00195673)
(0.0172296 0.00101047 -0.00183933)
(0.0181524 0.00285517 -0.00244969)
(0.0163591 0.00293959 -0.00198882)
(0.0171458 0.00357396 -0.0025264)
(0.0154855 0.0058811 -0.00193032)
(0.0147852 0.00700416 -0.00204322)
(0.0184297 -0.00570252 -0.00265832)
(0.0175991 -0.00673696 -0.00202057)
(0.0173361 -0.0104497 -0.00210559)
(0.0175822 0.00158111 -0.00263489)
(0.0175577 -0.00346465 -0.00264293)
(0.0171491 -0.00326267 -0.00217561)
(0.0170021 -0.00643001 -0.00222932)
(0.0170024 0.00218711 -0.00251356)
(0.01699 -0.00292181 -0.00250644)
(0.0156816 5.66586e-05 -0.00201093)
(0.0156279 -0.00330313 -0.00203265)
(0.0167268 0.00373112 -0.00179756)
(0.0182358 0.00396279 -0.00217404)
(0.0192586 0.00121676 -0.00261355)
(0.0195908 -0.00106317 -0.00276014)
(0.0166254 0.00609874 -0.00220826)
(0.0177845 0.00354213 -0.00262154)
(0.0173507 0.00464143 -0.00262936)
(0.0158549 0.00721365 -0.00230665)
(0.0171402 0.00480588 -0.00271504)
(0.0189199 0.00112454 -0.00279338)
(0.0182854 -0.0033434 -0.00290755)
(0.0182642 0.00274614 -0.00296233)
(0.0161099 0.0141942 -0.00267288)
(0.0156222 0.00439706 -0.00215897)
(0.0151738 0.00644746 -0.00215181)
(0.0156083 0.00445746 -0.00223423)
(0.0159466 0.0133982 -0.00260275)
(0.0155489 -0.0013024 -0.00219203)
(0.0156587 -0.00238523 -0.00222576)
(0.0155737 0.00282811 -0.00225526)
(0.0170479 0.0141796 -0.00291673)
(0.0173399 0.00454873 -0.00269353)
(0.0165866 0.00473835 -0.00247864)
(0.0174794 0.00269388 -0.00273392)
(0.0161777 0.00665811 -0.00245555)
(0.0174568 0.00464107 -0.00283079)
(0.0167886 0.00474037 -0.00259194)
(0.0171897 0.0133911 -0.00292702)
(0.018295 -0.00297235 -0.00292422)
(0.0170439 -0.00120077 -0.00252699)
(0.0176566 0.0010313 -0.00276088)
(0.0168146 -0.00241076 -0.00260464)
(0.0182614 0.00263307 -0.00297367)
(0.0170934 0.00309439 -0.00262772)
(0.0132355 0.00749329 -0.00179252)
(0.0114242 0.00731494 -0.00156426)
(0.0142208 0.00985936 -0.00220382)
(0.0111659 0.00715647 -0.00147555)
(0.0143696 0.00956097 -0.00214238)
(0.0132064 0.00764517 -0.00184932)
(0.0135309 0.00658045 -0.00170781)
(0.0116729 0.0061603 -0.00134835)
(0.0153212 0.00804857 -0.00202706)
(0.0138791 0.00623956 -0.00166538)
(0.0112184 0.00666228 -0.00139635)
(0.0146101 0.00878894 -0.00205233)
(0.0122516 0.0052429 -0.0012771)
(0.0164512 0.00664203 -0.00199515)
(0.0146609 0.00473666 -0.00157946)
(0.0172981 0.00668038 -0.00213587)
(0.0158462 0.00527077 -0.00205863)
(0.017357 0.00493381 -0.00222047)
(0.0203488 -0.00811204 -0.00322869)
(0.0206459 -0.00122463 -0.00315484)
(0.0193117 0.00423899 -0.00275411)
(0.0209744 0.000894742 -0.00315128)
(0.015289 0.0076734 -0.002304)
(0.0148912 0.00980591 -0.00228701)
(0.0142023 0.007422 -0.00225502)
(0.0149734 0.00949905 -0.00219562)
(0.0139 0.00718307 -0.00210214)
(0.0151669 0.00789006 -0.00235564)
(0.0156583 0.00681272 -0.00222266)
(0.0157644 0.00813242 -0.00206555)
(0.0145074 0.00633494 -0.00197269)
(0.0151609 0.00877177 -0.00209543)
(0.015831 0.00659744 -0.00213779)
(0.0139882 0.00676021 -0.00199355)
(0.0200334 0.00427394 -0.00333873)
(0.0179509 0.00765699 -0.00308083)
(0.0180512 0.00705675 -0.00293224)
(0.0200184 0.00516592 -0.00351876)
(0.0201003 0.00146577 -0.00330266)
(0.0204215 -0.00735681 -0.003283)
(0.0207651 -0.000579995 -0.00324592)
(0.0199616 -0.00507312 -0.00330948)
(0.0205631 0.00341662 -0.00336813)
(0.018627 0.00532769 -0.0027303)
(0.0211109 0.0015321 -0.00325786)
(0.0181187 0.00644712 -0.00285111)
(0.0204101 0.0020172 -0.00344351)
(0.0198555 -0.00279456 -0.00347642)
(0.0202808 0.0029733 -0.0035886)
(0.0200447 -0.00442436 -0.0033836)
(0.0148281 0.00659004 -0.00210321)
(0.0134181 0.00772223 -0.00189435)
(0.0146872 0.00905011 -0.0022517)
(0.0154261 0.00795042 -0.00234236)
(0.0141547 0.00734678 -0.00202075)
(0.0145818 0.00649512 -0.00207817)
(0.0152757 0.00752576 -0.00227235)
(0.0147795 0.00391256 -0.00202373)
(0.0158166 0.00594679 -0.0024088)
(0.0155867 0.00729143 -0.00235751)
(0.014756 0.00555622 -0.00205164)
(0.0156006 0.00530221 -0.00230699)
(0.0147406 0.00110761 -0.00194994)
(0.0157903 0.00489499 -0.00238305)
(0.0155675 -0.00141062 -0.0021679)
(0.0155384 0.00196738 -0.0022204)
(0.0148262 -0.00187801 -0.00190349)
(0.0166207 0.00690306 -0.00265833)
(0.0154951 0.00907094 -0.002475)
(0.0162294 0.00797592 -0.00270501)
(0.0164968 0.00803735 -0.00267899)
(0.0160664 0.00768175 -0.00257193)
(0.0160736 0.00766035 -0.00255798)
(0.0168537 0.00683744 -0.00274044)
(0.0184498 0.00418191 -0.00305185)
(0.0170239 0.00591695 -0.00274798)
(0.0182207 0.00722402 -0.0031275)
(0.0172399 0.00735752 -0.0028123)
(0.0196905 0.00465144 -0.00343756)
(0.0176356 0.00534788 -0.00285326)
(0.0179527 0.00581981 -0.00298525)
(0.0185147 0.00124181 -0.00302551)
(0.0170038 0.0048654 -0.0027299)
(0.0194532 -0.00254354 -0.00336144)
(0.0174624 -0.00134763 -0.00270428)
(0.0197928 0.00262321 -0.00346038)
(0.0176898 0.0019745 -0.002813)
(0.018274 -0.00164417 -0.00293852)
(0.0107543 0.00911324 -0.00171236)
(0.00552111 0.00661376 -0.000967738)
(0.0151548 0.012521 -0.00248746)
(0.00512969 0.00668122 -0.000903026)
(0.0153558 0.0123496 -0.00246826)
(0.0108329 0.00921568 -0.00174446)
(0.011137 0.00841197 -0.00154478)
(0.00538536 0.00852968 -0.000840798)
(0.0160113 0.0098169 -0.00216757)
(0.0111374 0.00849367 -0.0015148)
(0.00529856 0.00822752 -0.000847413)
(0.0157616 0.0102259 -0.00220505)
(0.0131888 -0.00946024 -0.000848344)
(0.0132185 -0.00816846 -0.000968768)
(0.0131771 -0.00347975 -0.00136294)
(0.0132181 -0.00458641 -0.00127837)
(0.0122572 0.00771319 -0.00150807)
(0.00545115 0.00881001 -0.00082851)
(0.016246 0.00927432 -0.00211772)
(0.0113556 0.00815387 -0.00147765)
(0.00548679 0.00914223 -0.0008149)
(0.0163233 0.00895461 -0.00205738)
(0.0127886 -0.0064164 -0.000724472)
(0.013077 -0.00876397 -0.000807628)
(0.0130178 -0.0101101 -0.000674437)
(0.0128564 -0.00520611 -0.00085926)
(0.0134797 0.0045077 -0.00128705)
(0.0132523 0.00774151 -0.00155738)
(0.0133933 0.00712067 -0.00146008)
(0.0135347 0.00531653 -0.00140844)
(0.0135836 0.0075756 -0.00156819)
(0.0167503 0.00925634 -0.0021431)
(0.00599168 0.00861078 -0.000417532)
(0.0167556 0.00899847 -0.00206921)
(0.00602395 0.00898289 -0.000393046)
(0.0124219 0.0080116 -0.00143596)
(0.0208694 -0.00656673 -0.00323602)
(0.0202787 -0.00889957 -0.0032442)
(0.0204993 -0.0102455 -0.00325039)
(0.02064 -0.00535764 -0.00325031)
(0.0206088 0.00435864 -0.00285133)
(0.0175572 0.00760092 -0.00238922)
(0.0179761 0.0069841 -0.00235146)
(0.0203976 0.00516408 -0.00293733)
(0.0131748 -0.00990615 -0.000806342)
(0.013119 -0.0112967 -0.00067488)
(0.0201361 -0.0100356 -0.00322775)
(0.020353 -0.0114262 -0.00323939)
(0.0135449 0.00895404 -0.00175867)
(0.0129092 0.0107276 -0.00190591)
(0.0129749 0.0103107 -0.00184103)
(0.0134784 0.00986825 -0.00183829)
(0.0129135 -0.00367456 -0.00101901)
(0.0130921 -0.00833165 -0.00084995)
(0.0131246 -0.00707704 -0.00097059)
(0.0128741 -0.00481544 -0.000901301)
(0.0135763 0.00638999 -0.00153921)
(0.0131461 0.00808212 -0.00159041)
(0.0130944 0.00844732 -0.0016468)
(0.0135484 0.00558412 -0.00144428)
(0.0129276 -0.00042308 -0.00131171)
(0.0130861 -0.00248972 -0.00136346)
(0.0131289 -0.00357779 -0.00127819)
(0.0128809 0.000608461 -0.0013968)
(0.0116373 0.00893585 -0.00168455)
(0.015656 0.0124152 -0.00253927)
(0.0063414 0.00643487 -0.000714371)
(0.0157333 0.0121913 -0.00248553)
(0.0055864 0.00633859 -0.000526176)
(0.0118251 0.00910808 -0.00177414)
(0.0119804 0.00830767 -0.00148393)
(0.016306 0.0098491 -0.00216066)
(0.0057973 0.0083435 -0.00041558)
(0.0161406 0.0101892 -0.00220573)
(0.0117776 0.00849015 -0.0014043)
(0.00573444 0.00799236 -0.000432192)
(0.0196684 0.00879658 -0.00337832)
(0.016603 0.010613 -0.00283082)
(0.0167964 0.0101487 -0.00278373)
(0.0195701 0.00971066 -0.00347132)
(0.0203563 -0.00382747 -0.00329021)
(0.0202079 -0.00846732 -0.0032453)
(0.0205665 -0.00496734 -0.00325807)
(0.020005 -0.00721295 -0.00325815)
(0.0201357 0.00623414 -0.00306463)
(0.0173039 0.00794879 -0.00238841)
(0.0203297 0.0054307 -0.00296782)
(0.017192 0.00830156 -0.00249492)
(0.019843 -0.000579277 -0.00345402)
(0.0194046 -0.00262912 -0.00344149)
(0.0197456 0.000449434 -0.00352345)
(0.0195036 -0.00371533 -0.00337841)
(0.0141876 0.00939742 -0.00216856)
(0.0121781 0.00989684 -0.00186885)
(0.0144242 0.0111092 -0.00231232)
(0.015189 0.0104525 -0.00240525)
(0.0131011 0.0097095 -0.00203343)
(0.0139133 0.00949373 -0.00212868)
(0.0148979 0.0100483 -0.00233346)
(0.0145674 0.00843241 -0.00208676)
(0.0131349 0.0102445 -0.00193833)
(0.0158815 0.0102149 -0.00250708)
(0.0155588 0.0103841 -0.00245283)
(0.0115703 0.00873542 -0.00167458)
(0.0144395 0.00927735 -0.00213807)
(0.0156419 0.0094602 -0.00243121)
(0.0144781 -0.000359825 -0.00183439)
(0.0157114 0.000718545 -0.00229083)
(0.0109361 -0.000978901 -0.00132418)
(0.0155386 -0.00197455 -0.00216535)
(0.0110502 0.00130349 -0.00137455)
(0.0155221 -8.17322e-05 -0.00220159)
(0.0145456 -0.00219288 -0.00183117)
(0.0156857 0.00938506 -0.00257481)
(0.0150717 0.0111051 -0.00247476)
(0.0143275 0.00981851 -0.00235875)
(0.0160772 0.0104844 -0.0026676)
(0.0145676 0.00968136 -0.00235604)
(0.0155537 0.0100899 -0.00255674)
(0.0158408 0.0094944 -0.00261925)
(0.0184059 0.00839108 -0.00315043)
(0.0175125 0.0102935 -0.00294201)
(0.0166524 0.010166 -0.00283084)
(0.0169369 0.0104051 -0.00282984)
(0.0164676 0.00862326 -0.00276801)
(0.0173866 0.00947913 -0.00288634)
(0.0173546 0.00925983 -0.00293865)
(0.0187607 -0.000411839 -0.00314375)
(0.0168985 0.000691175 -0.00265694)
(0.0154856 -0.00107932 -0.00250618)
(0.0172535 -0.00201903 -0.00270692)
(0.0161515 0.00118598 -0.00265995)
(0.0173088 -0.000106337 -0.00274347)
(0.018442 -0.00222507 -0.0030472)
(0.0200664 -0.00958969 -0.0032271)
(0.0198665 -0.00829796 -0.00323484)
(0.0192701 -0.00361161 -0.00340567)
(0.0193708 -0.00471716 -0.00334368)
(0.0111568 -0.00195377 -0.00133219)
(0.0154737 -0.00196186 -0.00249939)
(0.010717 0.0089222 -0.00166461)
(0.00520889 0.00732683 -0.00088229)
(0.015627 0.011505 -0.00238021)
(0.0106249 0.0089634 -0.00162404)
(0.00511784 0.00700316 -0.000886563)
(0.0154012 0.011902 -0.0024101)
(0.0108618 0.00872866 -0.00157042)
(0.0052287 0.00761958 -0.00086974)
(0.0155978 0.0110232 -0.00231127)
(0.010625 0.00873575 -0.00157728)
(0.00523306 0.00794059 -0.000856407)
(0.0155681 0.0107058 -0.00225055)
(0.013233 -0.00653617 -0.00111598)
(0.0132246 -0.00775169 -0.00100702)
(0.0132329 -0.00614097 -0.00115034)
(0.0132243 -0.00497433 -0.00124761)
(0.0127473 -0.00518092 -0.000756277)
(0.012836 -0.000435585 -0.00102882)
(0.0127636 -0.00146546 -0.000897783)
(0.0128171 -0.00401573 -0.000890673)
(0.0132516 0.00342023 -0.0011979)
(0.0128987 0.000757506 -0.00109024)
(0.0128272 -0.000227085 -0.00096093)
(0.0133132 0.00427 -0.00132118)
(0.0209581 -0.00533525 -0.00321793)
(0.0208526 -0.000600188 -0.00317199)
(0.0210852 -0.0016275 -0.00312575)
(0.0207268 -0.0041716 -0.00323982)
(0.0207919 0.00326453 -0.00291537)
(0.0208389 0.000591945 -0.00313699)
(0.0210701 -0.000389777 -0.00308235)
(0.0205732 0.00411091 -0.00299447)
(0.0135578 0.00865191 -0.00173449)
(0.0130826 0.00955096 -0.00177505)
(0.0129716 0.0100985 -0.00182638)
(0.0135807 0.00777602 -0.00166579)
(0.0133447 0.00802277 -0.00168032)
(0.0129137 0.00586414 -0.00157048)
(0.0129674 0.00488879 -0.0014869)
(0.0132888 0.00897942 -0.00176354)
(0.013356 0.00771478 -0.00165556)
(0.0129852 0.00360767 -0.00138113)
(0.0133746 0.00682007 -0.001585)
(0.0129756 0.00456458 -0.00146009)
(0.0128765 -0.00253568 -0.00104819)
(0.012855 -0.000100237 -0.00106861)
(0.0128354 -0.00363888 -0.000932311)
(0.0128978 0.00089 -0.00117714)
(0.0129224 -0.0033031 -0.0010556)
(0.0131419 -0.00548587 -0.00111692)
(0.0131315 -0.00667143 -0.00100872)
(0.0129375 -0.00220866 -0.00115822)
(0.0128858 -0.0021755 -0.001084)
(0.0129239 0.00219109 -0.0013008)
(0.0129075 0.00121639 -0.00121005)
(0.0129019 -0.00111116 -0.00118404)
(0.0135813 0.00666158 -0.00156716)
(0.0130639 0.00931905 -0.00175338)
(0.0130708 0.00880142 -0.00168637)
(0.0135839 0.0074924 -0.00164258)
(0.0133623 0.00539014 -0.0014548)
(0.0129175 0.001079 -0.00112924)
(0.0133289 0.00455016 -0.0013577)
(0.0129594 0.00203149 -0.0012349)
(0.013369 0.00567184 -0.00148348)
(0.0129843 0.00329158 -0.00135404)
(0.0133763 0.00652905 -0.00156108)
(0.0129689 0.00234664 -0.00126671)
(0.012892 0.000635193 -0.00133401)
(0.0128574 0.00480696 -0.00152212)
(0.01291 0.00382415 -0.00143827)
(0.0128438 0.00165176 -0.00141879)
(0.0129336 -0.000779374 -0.00128207)
(0.0131422 -0.00509952 -0.00115097)
(0.0131348 -0.00395727 -0.00124755)
(0.0129391 -0.00184913 -0.00119035)
(0.0128981 0.000285959 -0.00130486)
(0.0129253 0.00251572 -0.00132901)
(0.0129174 0.00349429 -0.00141082)
(0.0129036 -0.000760428 -0.0012153)
(0.0115437 0.00873324 -0.00160869)
(0.0159935 0.0113927 -0.00239462)
(0.00563003 0.00700449 -0.000489132)
(0.0157426 0.0117648 -0.00241752)
(0.0114059 0.00877687 -0.00154489)
(0.00552282 0.00665864 -0.000490643)
(0.011699 0.00857708 -0.00149574)
(0.0159777 0.0109305 -0.00232019)
(0.00564705 0.00732586 -0.000466821)
(0.01593 0.0106384 -0.00224807)
(0.0113918 0.0085767 -0.00148311)
(0.00565384 0.00767388 -0.000444722)
(0.0197108 0.00849401 -0.00334458)
(0.0169497 0.00938162 -0.00265044)
(0.0167416 0.00993644 -0.00272274)
(0.0198525 0.00761798 -0.00323925)
(0.0198212 0.00785736 -0.00341473)
(0.0199477 0.00568938 -0.00355874)
(0.0200457 0.00471566 -0.00347687)
(0.0197157 0.00881396 -0.00350347)
(0.0198648 0.00754943 -0.00338222)
(0.0202461 0.00343653 -0.00336265)
(0.0200109 0.00665518 -0.00328097)
(0.0200914 0.00439205 -0.00344852)
(0.0204411 -0.00269327 -0.00328936)
(0.0207781 -0.00026558 -0.00319009)
(0.0206527 -0.00379521 -0.00325008)
(0.0205658 0.00072271 -0.00325207)
(0.0202902 -0.00345633 -0.00330374)
(0.0197603 -0.00562223 -0.00329681)
(0.0201045 -0.00236282 -0.00335207)
(0.0199409 -0.00680744 -0.00326553)
(0.0203745 -0.00233347 -0.00330517)
(0.0203128 0.00202174 -0.0033497)
(0.0204992 0.00104854 -0.00327506)
(0.0201878 -0.00127024 -0.00335979)
(0.0200747 0.00650511 -0.00309851)
(0.0169304 0.00915953 -0.00259869)
(0.0170481 0.0086533 -0.00250675)
(0.0199046 0.00733462 -0.00320361)
(0.0203027 0.00522766 -0.00311413)
(0.0207649 0.000912623 -0.00315777)
(0.020503 0.00439011 -0.00302287)
(0.020554 0.00186298 -0.00322743)
(0.0202398 0.00550873 -0.00314632)
(0.0203028 0.00312091 -0.00333432)
(0.0200645 0.00636451 -0.0032468)
(0.0204878 0.00217754 -0.00325288)
(0.0199259 0.000473816 -0.00346933)
(0.0199562 0.00463327 -0.00356309)
(0.0200533 0.00365228 -0.00348367)
(0.019829 0.00148782 -0.00354125)
(0.0198895 -0.000935052 -0.00343178)
(0.0197043 -0.00523603 -0.00331018)
(0.020047 -0.00200362 -0.0033705)
(0.0195497 -0.00409445 -0.00335911)
(0.0199724 0.000125172 -0.00344595)
(0.0202555 0.00234592 -0.00337597)
(0.0200993 0.00332305 -0.00345666)
(0.0201302 -0.000919898 -0.00338011)
(0.0145138 0.00722021 -0.00204175)
(0.0158831 0.00913501 -0.00248588)
(0.0111573 0.00560764 -0.00151836)
(0.015608 0.0059948 -0.00232895)
(0.0110055 0.0079685 -0.00160633)
(0.0144234 0.00563616 -0.00197334)
(0.0156627 0.00779746 -0.00239906)
(0.014285 0.00175135 -0.00184364)
(0.0157275 0.00175785 -0.00231239)
(0.0109823 0.00471552 -0.00145557)
(0.0155169 0.00400226 -0.00227106)
(0.0109637 0.00224641 -0.00139403)
(0.0142099 0.00360727 -0.00188462)
(0.0154838 0.00205712 -0.00223139)
(0.0187354 0.0071581 -0.00319735)
(0.0170956 0.00910611 -0.00281171)
(0.0164691 0.00547282 -0.00273465)
(0.017521 0.00596022 -0.00286862)
(0.0158241 0.00785067 -0.00261059)
(0.0174313 0.0077821 -0.00286254)
(0.0188903 0.0055632 -0.00321875)
(0.0188436 0.00167375 -0.00318622)
(0.0169282 0.00172976 -0.00267544)
(0.0164997 0.00458125 -0.00274443)
(0.0175398 0.00396161 -0.00284512)
(0.0161685 0.00212265 -0.00266243)
(0.0173999 0.00202063 -0.00279129)
(0.0188733 0.00352463 -0.0032018)
(0.019625 -0.0066659 -0.00326732)
(0.0198033 -0.00788124 -0.00324058)
(0.0195696 -0.00627083 -0.00327937)
(0.0194166 -0.00510476 -0.00332511)
(0.017134 -0.00365608 -0.00250886)
(0.0169376 -0.00291568 -0.00213364)
(0.0167886 -0.00586085 -0.00217448)
(0.0159772 -0.000413885 -0.00203739)
(0.015951 -0.00361372 -0.0020813)
(0.0161817 -0.00237892 -0.00185793)
(0.0160778 -0.00466157 -0.00189808)
(0.0192433 -0.00651281 -0.0029011)
(0.0189088 -0.00451016 -0.00268231)
(0.0194264 -0.00257816 -0.00287083)
(0.0188071 9.66426e-06 -0.00295543)
(0.0191215 -0.00512066 -0.00295924)
(0.0186249 -0.00269973 -0.0027421)
(0.0183808 -0.00456795 -0.00279097)
(0.0185473 -0.00198386 -0.00282384)
(0.0193928 -0.00135208 -0.00297992)
(0.0190574 -0.00394654 -0.00303636)
(0.0192716 -0.00508427 -0.00258922)
(0.0184172 -0.0107291 -0.00238274)
(0.0187777 -0.00808125 -0.00238979)
(0.0124783 0.0114133 -0.00201935)
(0.0153894 0.0137876 -0.00245225)
(0.0162818 0.0143665 -0.00270596)
(0.015437 0.0134421 -0.00241941)
(0.0163353 0.0140274 -0.00267075)
(0.0124444 0.0114097 -0.00203161)
(0.0131149 0.00982757 -0.00176929)
(0.0156886 0.00989533 -0.00201789)
(0.0166822 0.0105522 -0.00222562)
(0.0130936 0.0097618 -0.00174127)
(0.0156777 0.0101113 -0.00205114)
(0.0166598 0.0107601 -0.00226009)
(0.0187244 -0.00234992 -0.00270366)
(0.0181438 -0.00408752 -0.00273834)
(0.0182849 -0.000807852 -0.00278377)
(0.0181466 -0.00353295 -0.00260609)
(0.0181828 -0.00794763 -0.00249663)
(0.018455 -0.00533476 -0.00252527)
(0.0179409 -0.00607806 -0.00257533)
(0.0179765 -0.0035975 -0.00276392)
(0.0176904 -0.00101933 -0.00269348)
(0.018074 -0.00045046 -0.00281191)
(0.0178724 -0.00272721 -0.00262618)
(0.0174255 -0.0046957 -0.00252679)
(0.0177182 -0.00514408 -0.0025907)
(0.0175604 -0.00260365 -0.0025631)
(0.0131663 0.00953384 -0.00168982)
(0.0156982 0.00968147 -0.00198296)
(0.0167039 0.0103473 -0.00218996)
(0.0131005 0.00962826 -0.00171111)
(0.0157066 0.00946986 -0.0019464)
(0.0167248 0.0101446 -0.00215307)
(0.0142209 0.00946377 -0.00177646)
(0.0175147 0.0103099 -0.00234335)
(0.0184631 0.00959386 -0.00251741)
(0.0175461 0.0101071 -0.00230635)
(0.0185067 0.00938253 -0.00248088)
(0.0141194 0.00954616 -0.00179285)
(0.0191877 -0.00194895 -0.00269211)
(0.0196324 0.00164472 -0.00279249)
(0.0196765 0.000533534 -0.00284374)
(0.0134364 0.0111867 -0.00214593)
(0.0169939 0.0143301 -0.00289079)
(0.0178415 0.0137164 -0.00309062)
(0.0170606 0.0139975 -0.00285848)
(0.017877 0.013373 -0.0030539)
(0.0135811 0.0112688 -0.00220402)
(0.0140596 0.00973008 -0.00184957)
(0.017483 0.0105148 -0.00237955)
(0.0184194 0.00980753 -0.00255373)
(0.0174511 0.0107228 -0.00241499)
(0.0140491 0.00968015 -0.00181755)
(0.0183763 0.0100234 -0.00258977)
(0.0190786 0.00280559 -0.00299078)
(0.0187881 -0.000115421 -0.00275496)
(0.0189654 0.00331209 -0.00282895)
(0.0186308 0.00166564 -0.00283858)
(0.0186985 0.000578309 -0.00284707)
(0.0195726 0.00176754 -0.00296721)
(0.0187691 0.00403539 -0.00292316)
(0.0188208 0.000847813 -0.00307177)
(0.0182504 -0.00356127 -0.00284639)
(0.0188265 -0.00226013 -0.00313603)
(0.018334 -0.000844693 -0.00293597)
(0.0184559 -0.000946036 -0.00290596)
(0.0190842 0.00111815 -0.00321579)
(0.0190716 -0.00297367 -0.00313428)
(0.0189119 0.00368551 -0.00308532)
(0.0183688 0.00507947 -0.0030658)
(0.0182654 0.00298962 -0.00289606)
(0.0183554 0.00159813 -0.00295728)
(0.0185155 0.00162867 -0.00292612)
(0.0184971 0.00504693 -0.00300767)
(0.0190086 0.0040272 -0.00320135)
(0.0138859 0.0111737 -0.00222136)
(0.0118184 0.0110643 -0.00193127)
(0.0135242 0.0120137 -0.00221054)
(0.0157045 0.0124833 -0.00256128)
(0.0128795 0.0113258 -0.00208523)
(0.0137988 0.0113698 -0.0022208)
(0.0146341 0.0117488 -0.00236312)
(0.0150888 0.0114774 -0.00234417)
(0.0150533 0.0132547 -0.00236191)
(0.015962 0.0123349 -0.00257585)
(0.0158891 0.0123144 -0.00257565)
(0.0148101 0.0123634 -0.0022713)
(0.0150485 0.0119234 -0.00236739)
(0.0159437 0.0117609 -0.00256717)
(0.0148101 -0.00140771 -0.00198075)
(0.0156805 -0.0013522 -0.00224866)
(0.0145537 -0.00235724 -0.00186338)
(0.015693 -0.00237975 -0.00222586)
(0.0145627 -0.00132661 -0.00188945)
(0.0157179 -0.00141797 -0.00225056)
(0.0148247 -0.00240197 -0.00197556)
(0.0151171 0.0111497 -0.00250999)
(0.0140576 0.0120175 -0.00235222)
(0.0134297 0.0110446 -0.00221123)
(0.0164341 0.0125025 -0.00276528)
(0.0140935 0.0112747 -0.00232358)
(0.0151762 0.0117709 -0.00253895)
(0.0153299 0.0113499 -0.0025528)
(0.0178722 0.0114497 -0.00304551)
(0.0171327 0.0123128 -0.00288231)
(0.018092 0.0132119 -0.00315545)
(0.016868 0.0123443 -0.00284321)
(0.0182923 0.0122926 -0.00318414)
(0.017023 0.0117678 -0.00285293)
(0.0173717 0.0119051 -0.00295503)
(0.0184073 -0.000116153 -0.00299202)
(0.0180503 -0.00298517 -0.00285614)
(0.0188654 -0.00221382 -0.00314536)
(0.0184208 -0.000811224 -0.00297064)
(0.0181946 -0.00121786 -0.00290787)
(0.0190942 0.000739038 -0.00322266)
(0.0182583 -0.00240834 -0.00293738)
(0.0178323 -0.00147667 -0.00290189)
(0.0168382 -0.00137812 -0.00262054)
(0.0179188 -0.00243165 -0.00296662)
(0.0168306 -0.002397 -0.00261064)
(0.0179549 -0.00140265 -0.00297925)
(0.0168489 -0.0014364 -0.00262227)
(0.0177439 -0.00245948 -0.00286727)
(0.0184028 0.00230568 -0.00302677)
(0.0184656 0.00458795 -0.00310363)
(0.018416 0.00149447 -0.00299183)
(0.0180664 0.00236321 -0.00293928)
(0.0181871 0.00123898 -0.00293572)
(0.0189904 0.00345756 -0.00321601)
(0.0181262 0.00363713 -0.00300112)
(0.0145027 -0.00338471 -0.00182353)
(0.0179244 -0.00345929 -0.00296779)
(0.0129437 0.0108311 -0.00194832)
(0.015573 0.0117535 -0.0022496)
(0.0164919 0.0123567 -0.00247726)
(0.0129342 0.0107254 -0.00192522)
(0.0155542 0.0120128 -0.00227522)
(0.0164667 0.0126118 -0.00250649)
(0.0129958 0.0104567 -0.00188509)
(0.0155908 0.011501 -0.00222374)
(0.0165167 0.0121093 -0.00244791)
(0.0129387 0.0105586 -0.00190044)
(0.0156076 0.0112557 -0.00219743)
(0.0165413 0.0118692 -0.00241828)
(0.014461 -0.00936044 -0.000708508)
(0.0145688 -0.0107551 -0.000785688)
(0.0145598 -0.0119814 -0.000680623)
(0.0145663 -0.00842418 -0.000811792)
(0.0144158 -0.0066061 -0.00077292)
(0.0144661 -0.00281918 -0.000983574)
(0.0144676 -0.00378981 -0.000879566)
(0.0145242 -0.00571664 -0.00087709)
(0.0139525 0.00415511 -0.00130282)
(0.0137529 0.00589425 -0.0014524)
(0.0138047 0.00550475 -0.00138954)
(0.0139522 0.00475672 -0.00138692)
(0.0146925 0.00173887 -0.00119608)
(0.0146776 -0.000126562 -0.00112901)
(0.0146689 -0.00100974 -0.00102762)
(0.0147757 0.00242644 -0.00129083)