/*--------------------------------*- C++ -*----------------------------------*\
| =========                 |                                                 |
| \\      /  F ield         | OpenFOAM: The Open Source CFD Toolbox           |
|  \\    /   O peration     | Version:  2012                                  |
|   \\  /    A nd           | Website:  www.openfoam.com                      |
|    \\/     M anipulation  |                                                 |
\*---------------------------------------------------------------------------*/
FoamFile
{
    version     2.0;
    format      ascii;
    class       surfaceScalarField;
    location    "0.108/fluid";
    object      meshPhi;
}
// * * * * * * * * * * * * * * * * * * * * * * * * * * * * * * * * * * * * * //

dimensions      [0 3 -1 0 0 0 0];
oriented        oriented;


internalField   nonuniform List<scalar> 
47046
(
-6.49673e-08
4.42683e-06
5.15713e-08
5.28214e-07
-5.39921e-08
-1.68005e-05
2.05517e-05
-1.0898e-08
4.32654e-06
1.02872e-06
-3.09663e-05
3.41196e-05
-1.10067e-06
7.33244e-06
2.80539e-06
-4.27364e-05
4.53815e-05
-2.84474e-06
9.85625e-06
5.41879e-06
-5.27536e-05
5.49961e-05
-5.38346e-06
1.2005e-05
8.87992e-06
-6.10754e-05
6.28127e-05
-8.8053e-06
1.36994e-05
1.33551e-05
-6.72351e-05
6.83973e-05
-1.31972e-05
1.46612e-05
1.88243e-05
-7.09728e-05
7.14755e-05
-1.8537e-05
1.46557e-05
2.50618e-05
-7.20461e-05
7.185e-05
-2.45826e-05
1.34512e-05
3.16436e-05
-7.02792e-05
6.93775e-05
-3.09989e-05
1.0883e-05
3.804e-05
-6.57554e-05
6.42424e-05
-3.73278e-05
6.80289e-06
-1.89775e-06
4.34293e-05
-5.87618e-05
5.66075e-05
-4.29705e-05
1.11315e-06
4.93045e-06
4.66067e-05
-4.9332e-05
4.6737e-05
-4.696e-05
-5.71995e-06
4.41648e-05
1.28756e-05
-3.92272e-05
3.69994e-05
-1.3583e-05
-4.72033e-05
3.45323e-05
2.05786e-05
-3.25223e-05
3.23741e-05
-2.12756e-05
-4.62083e-05
-2.80427e-08
4.28464e-06
2.00862e-08
3.97463e-07
1.47382e-07
-1.6068e-05
1.9654e-05
-1.62457e-07
3.21798e-06
1.07599e-06
-2.95108e-05
3.24825e-05
-1.00357e-06
5.41564e-06
2.59586e-06
-4.06284e-05
4.31009e-05
-2.4073e-06
7.14959e-06
4.79312e-06
-4.97438e-05
5.17221e-05
-4.45065e-06
8.45489e-06
7.84227e-06
-5.69416e-05
5.84167e-05
-7.25384e-06
9.25914e-06
1.16094e-05
-6.2007e-05
6.29029e-05
-1.06945e-05
9.4307e-06
1.6135e-05
-6.48065e-05
6.51555e-05
-1.48054e-05
8.84316e-06
2.12638e-05
-6.52674e-05
6.49957e-05
-1.95179e-05
7.46418e-06
2.68781e-05
-6.33817e-05
6.25664e-05
-2.47562e-05
5.23063e-06
-2.44986e-06
3.29119e-05
-5.94041e-05
5.81211e-05
-3.05847e-05
2.07226e-06
1.3926e-06
3.93439e-05
-5.36656e-05
5.20312e-05
-3.70598e-05
-1.84356e-06
5.69131e-06
4.59897e-05
-4.70192e-05
4.53748e-05
-4.4251e-05
-6.21457e-06
9.87094e-06
5.33882e-05
-4.09801e-05
3.97959e-05
-5.29541e-05
-1.04029e-05
6.63768e-05
1.21963e-05
-3.73546e-05
3.68823e-05
-1.26381e-05
-6.70762e-05
-5.47843e-09
4.17335e-06
2.92634e-09
3.07904e-07
1.31006e-07
-1.54976e-05
1.889e-05
-1.04129e-07
2.49021e-06
6.2901e-07
-2.80767e-05
3.08406e-05
-4.70771e-07
4.15747e-06
1.54934e-06
-3.85671e-05
4.08932e-05
-1.17603e-06
5.38492e-06
2.83595e-06
-4.69414e-05
4.87175e-05
-2.13975e-06
6.18102e-06
4.62003e-06
-5.32871e-05
5.45374e-05
-3.54764e-06
6.50412e-06
6.87856e-06
-5.74601e-05
5.81514e-05
-5.3238e-06
6.30958e-06
9.50557e-06
-5.94539e-05
5.96506e-05
-7.3626e-06
5.55864e-06
1.25911e-05
-5.95152e-05
5.92471e-05
-9.7812e-06
4.23518e-06
-2.49491e-06
1.6209e-05
-5.78742e-05
5.72173e-05
-1.26598e-05
2.32767e-06
-1.2522e-07
2.05817e-05
-5.47112e-05
5.37133e-05
-1.62041e-05
-1.01723e-07
2.56007e-06
2.59368e-05
-5.03362e-05
4.91364e-05
-2.06671e-05
-2.84961e-06
5.19884e-06
3.26674e-05
-4.55346e-05
4.43875e-05
-2.64161e-05
-5.54853e-06
7.26409e-06
4.14546e-05
-4.13043e-05
4.04295e-05
-3.39874e-05
-7.64556e-06
7.9809e-06
5.34454e-05
-3.82663e-05
3.76749e-05
-4.39496e-05
-8.34e-06
-4.71108e-07
-6.91253e-08
3.91317e-06
6.22333e-08
4.42507e-07
-3.83458e-06
-8.26533e-08
-1.48164e-05
1.81543e-05
1.65075e-08
3.59498e-06
-6.46516e-06
8.82213e-07
-2.72183e-05
2.99445e-05
-9.56934e-07
6.06183e-06
-8.67654e-06
2.36559e-06
-3.74298e-05
3.96902e-05
-2.40362e-06
8.12567e-06
-1.04927e-05
4.4706e-06
-4.59121e-05
4.77897e-05
-4.46541e-06
9.81015e-06
-1.18345e-05
7.21966e-06
-5.28262e-05
5.42363e-05
-7.18944e-06
1.10221e-05
-1.24881e-05
1.06195e-05
-5.77129e-05
5.85961e-05
-1.0536e-05
1.15839e-05
-1.22818e-05
1.45916e-05
-6.04987e-05
6.08394e-05
-1.4387e-05
1.13437e-05
-1.09932e-05
1.91105e-05
-6.10152e-05
6.07304e-05
-1.88106e-05
1.00755e-05
-8.4616e-06
2.38259e-05
-5.89407e-05
5.80339e-05
-2.34716e-05
7.63536e-06
-4.56487e-06
2.85016e-05
-5.46005e-05
5.31941e-05
-2.81912e-05
3.90377e-06
6.67896e-07
3.23519e-05
-4.82246e-05
4.6294e-05
-3.22889e-05
-1.02823e-06
6.72841e-06
3.42578e-05
-3.98359e-05
3.74766e-05
-3.48377e-05
-6.64109e-06
1.30371e-05
3.22107e-05
-3.00309e-05
2.75384e-05
-3.44261e-05
-1.22184e-05
1.78252e-05
2.90203e-05
-2.1103e-05
1.96387e-05
-3.50936e-05
-1.58094e-05
-3.6415e-07
-3.03356e-08
3.9596e-06
1.68971e-08
3.45366e-07
-2.95833e-06
9.43844e-08
-1.47226e-05
1.79902e-05
-9.15258e-08
2.8072e-06
-4.943e-06
9.35795e-07
-2.68183e-05
2.94491e-05
-8.58468e-07
4.68786e-06
-6.49752e-06
2.20878e-06
-3.66333e-05
3.87921e-05
-2.06466e-06
6.14653e-06
-7.61833e-06
4.06559e-06
-4.45631e-05
4.62569e-05
-3.80439e-06
7.18947e-06
-8.26353e-06
6.48744e-06
-5.07659e-05
5.20334e-05
-6.0303e-06
7.77715e-06
-8.30366e-06
9.37872e-06
-5.50883e-05
5.58257e-05
-8.66849e-06
7.78132e-06
-7.65064e-06
1.26585e-05
-5.72672e-05
5.74919e-05
-1.16899e-05
7.13137e-06
-6.25567e-06
1.64541e-05
-5.74519e-05
5.71758e-05
-1.5177e-05
5.76709e-06
-4.04876e-06
2.06591e-05
-5.56183e-05
5.487e-05
-1.91086e-05
3.62801e-06
-9.72504e-07
2.52675e-05
-5.20465e-05
5.08988e-05
-2.35437e-05
6.63856e-07
2.7869e-06
3.00579e-05
-4.68599e-05
4.53722e-05
-2.83652e-05
-2.93392e-06
6.86506e-06
3.46873e-05
-4.06702e-05
3.90302e-05
-3.34271e-05
-6.78692e-06
1.0502e-05
3.921e-05
-3.42193e-05
3.27285e-05
-3.90463e-05
-1.01245e-05
4.75505e-05
1.2094e-05
-2.90002e-05
2.80553e-05
-1.14591e-05
-4.82944e-05
-2.86823e-07
-5.23857e-09
3.89459e-06
4.66035e-09
2.74201e-07
-2.34495e-06
6.61338e-08
-1.44758e-05
1.76331e-05
-5.3965e-08
2.24321e-06
-3.89296e-06
5.51677e-07
-2.61049e-05
2.86252e-05
-4.19033e-07
3.72086e-06
-5.01636e-06
1.38565e-06
-3.55388e-05
3.75986e-05
-1.04777e-06
4.78412e-06
-5.72165e-06
2.54044e-06
-4.29839e-05
4.45555e-05
-1.90221e-06
5.44328e-06
-5.96676e-06
3.93122e-06
-4.8571e-05
4.96521e-05
-3.02432e-06
5.65952e-06
-5.70546e-06
5.63978e-06
-5.21998e-05
5.27974e-05
-4.372e-06
5.38806e-06
-4.92824e-06
7.63961e-06
-5.38964e-05
5.40516e-05
-5.93841e-06
4.6275e-06
-3.61143e-06
9.95186e-06
-5.39326e-05
5.37053e-05
-7.7487e-06
3.34996e-06
-1.72896e-06
1.26292e-05
-5.24732e-05
5.18922e-05
-9.86577e-06
1.523e-06
6.78813e-07
1.58888e-05
-4.9661e-05
4.87559e-05
-1.24982e-05
-8.12422e-07
3.38701e-06
1.9856e-05
-4.56458e-05
4.45169e-05
-1.57972e-05
-3.43527e-06
6.00875e-06
2.46942e-05
-4.10213e-05
3.98582e-05
-1.99442e-05
-5.96129e-06
7.97274e-06
3.07807e-05
-3.65551e-05
3.55551e-05
-2.52289e-05
-7.82722e-06
8.53295e-06
3.90372e-05
-3.29732e-05
3.22679e-05
-3.2151e-05
-8.33567e-06
-3.38225e-07
-5.36559e-08
3.48255e-06
4.59209e-08
2.99851e-07
-2.75144e-06
-7.26456e-08
-1.30875e-05
1.59973e-05
1.87051e-08
2.44084e-06
-4.63757e-06
7.15024e-07
-2.39315e-05
2.63225e-05
-7.78132e-07
4.11195e-06
-6.19151e-06
1.99361e-06
-3.28155e-05
3.47636e-05
-2.03314e-06
5.48304e-06
-7.429e-06
3.7543e-06
-4.00321e-05
4.16007e-05
-3.77824e-06
6.56582e-06
-8.27101e-06
5.95623e-06
-4.57126e-05
4.68773e-05
-5.97962e-06
7.2957e-06
-8.6233e-06
8.52237e-06
-4.97064e-05
5.04131e-05
-8.51047e-06
7.59636e-06
-8.3627e-06
1.14431e-05
-5.18436e-05
5.20891e-05
-1.13737e-05
7.35436e-06
-7.31164e-06
1.47196e-05
-5.20479e-05
5.17518e-05
-1.45868e-05
6.41217e-06
-5.32549e-06
1.82535e-05
-5.01831e-05
4.94163e-05
-1.8072e-05
4.61888e-06
-2.33571e-06
2.193e-05
-4.65671e-05
4.54278e-05
-2.17975e-05
1.9375e-06
1.46913e-06
2.54593e-05
-4.15019e-05
4.00051e-05
-2.54951e-05
-1.44912e-06
5.5619e-06
2.86824e-05
-3.51585e-05
3.34562e-05
-2.90402e-05
-5.03624e-06
9.12795e-06
3.18113e-05
-2.83145e-05
2.66625e-05
-3.26663e-05
-8.05644e-06
1.05825e-05
3.83202e-05
-2.24434e-05
2.13677e-05
-3.96268e-05
-9.16593e-06
-2.71968e-07
-2.52543e-08
3.61286e-06
2.16411e-08
2.4378e-07
-2.22097e-06
2.92481e-09
-1.33292e-05
1.62862e-05
2.22519e-08
1.98685e-06
-3.69329e-06
7.09302e-07
-2.42802e-05
2.66688e-05
-6.23872e-07
3.29799e-06
-4.80261e-06
1.8576e-06
-3.31683e-05
3.50933e-05
-1.72882e-06
4.28183e-06
-5.57273e-06
3.47382e-06
-4.02145e-05
4.17188e-05
-3.24688e-06
4.95356e-06
-5.97161e-06
5.45993e-06
-4.55605e-05
4.66291e-05
-5.08189e-06
5.29514e-06
-5.92918e-06
7.68925e-06
-4.92073e-05
4.97968e-05
-7.13728e-06
5.25221e-06
-5.36676e-06
1.01639e-05
-5.09889e-05
5.11567e-05
-9.42191e-06
4.74473e-06
-4.2263e-06
1.29326e-05
-5.10744e-05
5.08299e-05
-1.19701e-05
3.71482e-06
-2.46971e-06
1.60178e-05
-4.94931e-05
4.88614e-05
-1.48105e-05
2.13061e-06
-3.13371e-08
1.9637e-05
-4.64801e-05
4.55073e-05
-1.82741e-05
-7.79459e-08
2.86978e-06
2.36572e-05
-4.21725e-05
4.09521e-05
-2.22596e-05
-2.70136e-06
5.8709e-06
2.80707e-05
-3.70822e-05
3.57464e-05
-2.67778e-05
-5.3876e-06
8.24624e-06
3.31215e-05
-3.17913e-05
3.0554e-05
-3.2066e-05
-7.45746e-06
8.98517e-06
4.09262e-05
-2.73731e-05
2.65337e-05
-3.97867e-05
-8.06722e-06
-2.21603e-07
-1.75646e-08
3.58999e-06
1.53176e-08
2.00334e-07
-1.81665e-06
-5.19769e-08
-1.33442e-05
1.62599e-05
5.23565e-08
1.63667e-06
-2.99865e-06
3.43053e-07
-2.41759e-05
2.65142e-05
-2.4875e-07
2.69707e-06
-3.81769e-06
1.10906e-06
-3.28886e-05
3.47522e-05
-8.25379e-07
3.42367e-06
-4.3106e-06
2.07679e-06
-3.96257e-05
4.104e-05
-1.57089e-06
3.85217e-06
-4.45297e-06
3.29826e-06
-4.46243e-05
4.55753e-05
-2.52817e-06
3.97217e-06
-4.20751e-06
4.67794e-06
-4.77584e-05
4.82698e-05
-3.61971e-06
3.75323e-06
-3.56279e-06
6.23427e-06
-4.92712e-05
4.93939e-05
-4.85282e-06
3.16891e-06
-2.49361e-06
7.90222e-06
-4.92858e-05
4.90925e-05
-6.15726e-06
2.1997e-06
-9.7252e-07
9.75791e-06
-4.80777e-05
4.7581e-05
-7.62693e-06
8.19335e-07
9.8027e-07
1.22265e-05
-4.56028e-05
4.48005e-05
-9.57765e-06
-9.55838e-07
3.17458e-06
1.53677e-05
-4.20881e-05
4.1104e-05
-1.2154e-05
-2.95988e-06
5.26727e-06
1.92011e-05
-3.80343e-05
3.70009e-05
-1.53743e-05
-4.86935e-06
6.75275e-06
2.38635e-05
-3.40094e-05
3.30853e-05
-1.93071e-05
-6.20806e-06
7.12611e-06
2.98767e-05
-3.06597e-05
2.99884e-05
-2.42341e-05
-6.54258e-06
-1.77214e-07
-4.44617e-08
3.18305e-06
3.81736e-08
1.34288e-07
-1.44825e-06
-7.13709e-08
-1.19763e-05
1.46426e-05
2.51243e-08
1.09804e-06
-2.43949e-06
6.06894e-07
-2.19127e-05
2.41008e-05
-6.67296e-07
1.85001e-06
-3.24497e-06
1.75237e-06
-2.99973e-05
3.17464e-05
-1.80156e-06
2.46029e-06
-3.87755e-06
3.31058e-06
-3.63987e-05
3.77626e-05
-3.34885e-06
2.94371e-06
-4.30272e-06
5.15352e-06
-4.12937e-05
4.22666e-05
-5.18985e-06
3.27037e-06
-4.47766e-06
7.23288e-06
-4.46495e-05
4.52551e-05
-7.25353e-06
3.4062e-06
-4.33691e-06
9.54863e-06
-4.64403e-05
4.66049e-05
-9.53948e-06
3.30299e-06
-3.75653e-06
1.21028e-05
-4.64636e-05
4.62019e-05
-1.20397e-05
2.85666e-06
-2.64766e-06
1.49083e-05
-4.48551e-05
4.42164e-05
-1.48121e-05
2.00663e-06
-1.00228e-06
1.79774e-05
-4.18439e-05
4.09099e-05
-1.79056e-05
7.40706e-07
1.06017e-06
2.14275e-05
-3.77826e-05
3.66437e-05
-2.14669e-05
-8.52746e-07
3.20298e-06
2.53385e-05
-3.30879e-05
3.188e-05
-2.55545e-05
-2.51514e-06
4.9074e-06
3.00748e-05
-2.83646e-05
2.72692e-05
-3.04262e-05
-3.83621e-06
5.48622e-06
3.705e-05
-2.44405e-05
2.36874e-05
-3.74164e-05
-4.30376e-06
-1.4731e-07
-3.20568e-08
3.34124e-06
3.46769e-08
1.11905e-07
-1.19546e-06
-5.14415e-09
-1.25153e-05
1.52747e-05
3.35536e-08
9.08583e-07
-1.98267e-06
6.38017e-07
-2.27765e-05
2.50365e-05
-5.59415e-07
1.50697e-06
-2.56843e-06
1.6895e-06
-3.11195e-05
3.28979e-05
-1.56876e-06
1.95095e-06
-2.95808e-06
3.10539e-06
-3.75585e-05
3.88893e-05
-2.90969e-06
2.24872e-06
-3.15402e-06
4.7923e-06
-4.22902e-05
4.3216e-05
-4.47297e-06
2.39943e-06
-3.12214e-06
6.6376e-06
-4.54257e-05
4.59556e-05
-6.16887e-06
2.37708e-06
-2.8221e-06
8.64803e-06
-4.69756e-05
4.71149e-05
-8.02512e-06
2.15065e-06
-2.20058e-06
1.07515e-05
-4.70219e-05
4.68069e-05
-9.93604e-06
1.67741e-06
-1.2087e-06
1.31768e-05
-4.56505e-05
4.51003e-05
-1.21777e-05
9.13426e-07
1.82246e-07
1.61113e-05
-4.30377e-05
4.22194e-05
-1.49623e-05
-1.6475e-07
1.85602e-06
1.97586e-05
-3.94911e-05
3.85061e-05
-1.85116e-05
-1.47165e-06
3.53479e-06
2.4095e-05
-3.54322e-05
3.43818e-05
-2.27584e-05
-2.78161e-06
4.76643e-06
2.90213e-05
-3.13268e-05
3.03687e-05
-2.75497e-05
-3.74275e-06
5.137e-06
3.55859e-05
-2.78452e-05
2.71512e-05
-3.37627e-05
-4.04777e-06
-1.23658e-07
-3.42483e-08
3.37621e-06
2.9325e-08
9.43729e-08
-1.00263e-06
-1.34267e-07
-1.25743e-05
1.53456e-05
1.35096e-07
7.6462e-07
-1.64403e-06
1.95825e-07
-2.29644e-05
2.52487e-05
-1.11723e-07
1.25277e-06
-2.07303e-06
9.35419e-07
-3.13698e-05
3.31313e-05
-6.94842e-07
1.57816e-06
-2.31592e-06
1.90034e-06
-3.76662e-05
3.8953e-05
-1.46681e-06
1.7621e-06
-2.38074e-06
2.94885e-06
-4.21467e-05
4.30085e-05
-2.28003e-06
1.81156e-06
-2.2518e-06
4.04839e-06
-4.49873e-05
4.54524e-05
-3.14188e-06
1.71368e-06
-1.89604e-06
5.27307e-06
-4.62894e-05
4.63929e-05
-4.1028e-06
1.44423e-06
-1.30773e-06
6.50311e-06
-4.63282e-05
4.61606e-05
-5.09095e-06
9.95075e-07
-4.37558e-07
8.02351e-06
-4.52621e-05
4.48085e-05
-6.28679e-06
3.23163e-07
6.93545e-07
9.92921e-06
-4.30182e-05
4.2311e-05
-7.76079e-06
-5.58125e-07
1.99753e-06
1.25747e-05
-3.99493e-05
3.91019e-05
-9.88399e-06
-1.57888e-06
3.24033e-06
1.58206e-05
-3.64764e-05
3.5591e-05
-1.25373e-05
-2.55402e-06
4.08577e-06
1.94835e-05
-3.30212e-05
3.22144e-05
-1.55178e-05
-3.21807e-06
4.3235e-06
2.38733e-05
-3.00784e-05
2.94787e-05
-1.9039e-05
-3.41694e-06
-2.25323e-05
-3.6981e-05
-4.73328e-05
3.67257e-05
3.76747e-05
-4.30275e-06
-2.25561e-05
2.20267e-05
-1.07702e-05
-2.94866e-05
2.27619e-05
2.87765e-05
-2.34458e-05
-2.00566e-05
1.94591e-05
-9.46178e-06
-4.41644e-06
-1.86991e-05
-2.49828e-05
-1.88729e-05
2.13613e-05
1.6949e-05
1.67961e-05
-4.86651e-05
-1.45718e-05
4.19793e-05
-1.61029e-05
4.84213e-06
4.04082e-06
4.65319e-06
4.12925e-06
-1.29967e-05
-4.28109e-05
-5.12758e-05
4.91419e-05
4.05277e-05
-2.0319e-05
-4.75532e-05
4.04638e-05
-3.73673e-05
-3.91914e-05
4.00132e-05
-5.78652e-05
-1.68807e-05
1.89378e-05
-4.41942e-05
-9.54515e-05
-1.39223e-05
-4.0777e-05
-7.48358e-05
7.21453e-05
4.07437e-05
-1.16619e-05
-9.9634e-05
0.000100876
-4.05582e-05
-3.85532e-05
4.17886e-05
3.58051e-05
-1.37562e-05
-3.6474e-05
2.86595e-05
-2.10929e-05
-3.10413e-05
-3.01479e-05
-3.30691e-05
-1.31164e-05
1.37516e-05
3.09778e-05
2.71115e-05
-2.62968e-05
-1.78438e-05
1.96857e-05
2.05762e-05
-2.12225e-05
-2.17275e-05
2.05942e-05
-1.67226e-05
3.41019e-06
5.13789e-06
4.51543e-06
3.95519e-06
-2.20274e-05
-6.03576e-06
-2.17763e-05
2.43335e-06
2.1216e-06
2.88751e-06
1.76766e-06
-1.61894e-05
1.65871e-05
1.77714e-05
1.44378e-05
-3.51515e-05
-1.75077e-05
-7.86984e-05
-3.67943e-05
6.2657e-05
3.64062e-05
-1.43863e-05
-8.85451e-05
8.80429e-05
-3.57752e-05
-1.19839e-05
-2.17372e-05
1.97266e-05
2.02433e-05
-3.35499e-05
-1.4097e-05
1.59423e-05
-1.90371e-05
-5.56284e-05
-1.33997e-05
-2.86693e-05
-5.02028e-05
1.40708e-05
4.66901e-05
2.76667e-05
-1.11947e-05
-6.63573e-05
1.1714e-05
6.47543e-05
-2.61895e-05
-1.85979e-05
2.36795e-05
1.68536e-05
-1.64074e-05
-5.04476e-05
4.64144e-05
-1.50137e-05
-1.26151e-05
-3.7411e-05
-2.03927e-05
-1.05627e-05
1.22487e-05
3.57002e-05
1.91069e-05
-5.17279e-05
-8.60875e-06
9.74974e-06
5.04805e-05
-1.7256e-05
-3.1177e-05
6.37981e-06
5.6881e-06
-2.96009e-05
-2.29973e-05
7.3456e-06
8.12371e-06
-3.33647e-05
1.00978e-05
-2.39655e-05
7.81031e-06
7.49291e-06
9.92305e-06
-5.11342e-05
-5.86351e-06
-1.34436e-05
1.05547e-05
1.18942e-05
-2.41195e-05
5.65358e-06
6.06204e-06
4.85139e-06
6.84196e-06
-2.55071e-05
-2.51125e-05
8.82325e-06
3.6557e-06
5.74404e-06
5.51354e-06
3.77331e-06
8.57204e-06
7.64824e-06
7.31765e-06
-3.64612e-05
1.28539e-05
2.15412e-05
-2.31883e-05
-2.57297e-05
-2.34663e-05
-2.40287e-05
4.59835e-06
2.94136e-06
3.76121e-06
3.79065e-06
-1.93245e-05
5.64872e-06
-2.49496e-05
1.95097e-06
5.4179e-07
1.85585e-06
8.78438e-07
5.13439e-06
6.53783e-06
6.1245e-06
-2.6019e-05
-1.13512e-05
9.26108e-06
9.73901e-06
-6.0461e-06
-4.4932e-06
-1.42302e-05
4.56032e-06
1.31793e-05
-5.991e-06
-6.06829e-06
-6.76312e-06
4.72887e-06
6.21179e-06
5.90044e-06
3.28802e-08
3.66987e-07
-2.347e-07
8.21865e-09
-3.86543e-07
2.00198e-05
9.62734e-06
-1.32283e-05
-1.75354e-05
-1.33758e-05
-5.45407e-06
1.73921e-06
1.88941e-06
1.59941e-06
2.02442e-06
-1.34817e-05
6.65073e-06
-1.04717e-05
5.02679e-06
5.47024e-06
4.87706e-06
5.51295e-06
-1.73241e-05
3.24024e-07
-3.75689e-07
6.41367e-08
-4.16001e-07
-4.78261e-06
-3.89144e-05
3.0349e-06
2.89703e-06
3.74824e-06
2.2556e-06
-1.15914e-05
-6.59473e-07
-2.94595e-08
6.72771e-07
-1.78348e-07
-1.84209e-05
3.81872e-06
5.15399e-06
4.44625e-06
4.56824e-06
-1.53239e-05
2.24059e-07
6.31646e-08
2.80362e-07
-4.34673e-07
1.13361e-05
1.77344e-05
-1.99617e-05
-2.28411e-05
2.18495e-05
1.28483e-05
-1.56163e-05
-1.89057e-05
2.23703e-05
1.60508e-05
1.61677e-05
-2.68516e-05
-1.90339e-05
3.30827e-06
2.60883e-06
3.40436e-06
2.64279e-06
-1.6178e-05
4.98782e-06
1.61111e-06
5.16355e-07
8.11062e-07
1.62846e-06
4.43959e-06
4.57076e-06
4.06507e-06
-2.32121e-05
1.16126e-05
5.94591e-06
5.94073e-06
5.8708e-06
6.03292e-06
-1.90513e-05
1.47158e-07
4.02307e-07
-4.82814e-07
-1.33353e-05
-4.29471e-06
1.22712e-05
-5.15452e-06
-1.13477e-05
4.87199e-06
3.57367e-06
4.48952e-06
4.05066e-06
-1.37175e-05
2.40524e-05
-3.42888e-05
5.41442e-06
5.44211e-06
5.14664e-06
5.73824e-06
-1.76742e-05
-1.05951e-07
-6.74313e-07
-1.92714e-07
-6.39186e-06
4.45561e-06
5.14187e-06
-5.81229e-06
5.55141e-06
5.7767e-06
5.29426e-06
5.9402e-06
-1.73851e-05
1.46587e-06
-3.83154e-07
-5.55543e-06
5.41649e-06
5.26846e-06
-7.00635e-07
-5.28393e-06
3.63119e-07
5.67039e-07
3.88657e-07
5.07344e-07
-1.96362e-07
-9.88112e-08
6.21142e-06
-9.04869e-07
2.25469e-06
-6.18007e-06
2.22535e-07
2.99231e-07
4.25718e-07
1.30374e-07
5.11096e-06
1.22251e-07
-1.32414e-07
-1.22972e-07
1.28316e-07
2.02909e-07
5.39609e-08
6.04955e-06
8.34916e-07
3.57507e-07
7.23101e-07
5.10122e-07
5.71692e-07
-5.49406e-06
5.2999e-06
2.5621e-06
-2.25438e-06
-3.74453e-06
-4.968e-06
4.78358e-06
-9.02411e-07
-1.16787e-06
-1.15235e-06
-9.18683e-07
8.05796e-07
6.55829e-07
4.21897e-06
-5.90034e-06
5.70513e-06
-3.16058e-06
9.65791e-07
1.33327e-06
1.12824e-06
1.17391e-06
5.09973e-06
-6.41276e-07
-4.00565e-07
-3.88344e-07
-6.58189e-07
3.5478e-07
5.02776e-07
-1.16093e-06
8.13858e-07
8.67993e-07
6.53927e-07
1.02208e-06
-4.97314e-06
-1.6552e-06
-1.4197e-06
-1.40764e-06
-1.6633e-06
9.59767e-07
1.10647e-06
6.23623e-06
-5.18301e-06
1.44979e-06
1.48868e-06
1.28387e-06
1.6473e-06
-6.08924e-06
-6.19727e-06
1.95581e-06
1.68035e-06
1.8438e-06
1.77768e-06
-8.02212e-06
2.36358e-06
-6.46415e-06
1.62324e-06
1.38565e-06
1.62394e-06
1.37391e-06
2.21853e-06
2.53724e-06
2.38986e-06
-6.32781e-06
-1.11604e-06
-5.54646e-06
5.54707e-06
1.10294e-06
-2.78639e-06
-2.81781e-06
-1.42348e-06
-3.83045e-06
1.40657e-06
2.81756e-06
3.80446e-06
-1.65097e-06
-2.07265e-06
1.84937e-06
1.62731e-06
2.54759e-06
-1.52276e-06
-3.31454e-06
1.50194e-06
3.27452e-06
-2.83264e-06
2.22501e-07
4.26158e-06
-6.81364e-06
6.67307e-06
6.7331e-06
1.12797e-06
-6.66824e-06
7.12727e-07
4.73733e-07
6.09479e-07
5.97406e-07
7.04936e-06
-3.37618e-06
1.11009e-06
-6.97404e-06
-3.99707e-07
-6.66768e-07
-4.26107e-07
-5.79197e-07
9.66024e-07
1.23103e-06
1.10587e-06
6.5596e-06
8.42801e-07
9.04321e-07
7.53353e-07
9.92809e-07
6.8545e-06
1.52006e-06
-1.50527e-07
1.25437e-07
1.09087e-07
-1.40824e-07
1.39895e-06
1.37592e-06
1.25305e-06
-6.68919e-06
2.11691e-06
6.53353e-06
5.40733e-06
-6.40108e-06
-4.08355e-06
1.44544e-06
1.52007e-06
1.35822e-06
1.61259e-06
-6.66582e-06
-6.66967e-06
2.17107e-06
8.77312e-07
1.1415e-06
1.12923e-06
8.97534e-07
2.04173e-06
2.00869e-06
1.87744e-06
1.29518e-06
1.04973e-06
1.20543e-06
1.13361e-06
1.68697e-06
6.25529e-07
3.89787e-07
3.67105e-07
6.4394e-07
1.55495e-06
1.84189e-06
1.71192e-06
1.61411e-06
1.96322e-06
-1.8436e-06
1.75575e-06
-1.96633e-06
-1.64017e-06
-1.7693e-06
-1.62095e-07
-1.92145e-07
1.81145e-06
1.24868e-06
1.75409e-06
-7.48547e-07
1.70897e-06
5.04558e-07
-1.78272e-06
1.47842e-06
-1.62074e-06
-1.13167e-06
1.67526e-06
9.08867e-07
-1.46826e-06
-2.12725e-06
-1.50479e-06
-2.61906e-06
1.4899e-06
2.56359e-06
2.12231e-06
-5.21368e-06
5.21053e-06
-2.61005e-06
-1.13087e-06
-2.64521e-06
-3.52582e-06
-1.45124e-06
2.64667e-06
3.49684e-06
-1.17091e-06
-4.2346e-06
-2.09495e-06
1.15883e-06
4.21294e-06
-2.13682e-06
1.59618e-06
2.0617e-06
-2.13512e-06
-1.8042e-06
1.58719e-06
2.36842e-06
-1.68124e-06
-3.01851e-06
-1.55172e-06
2.97467e-06
-2.65993e-06
-1.01165e-06
1.86995e-06
7.78231e-07
1.73213e-06
-2.32131e-06
2.25493e-06
-1.53189e-06
1.96529e-06
-1.21431e-06
-3.11868e-06
3.02479e-06
-1.42435e-06
1.22552e-06
-1.52548e-06
-1.6024e-06
1.56857e-06
1.41373e-06
1.48435e-06
-3.92072e-06
-1.93271e-06
3.89056e-06
-1.18696e-06
5.33843e-06
1.12508e-06
-2.47512e-07
-7.27929e-07
-5.14923e-06
4.05437e-07
5.80403e-07
5.29642e-07
4.33178e-07
-1.35491e-07
-2.62044e-08
-8.63989e-07
-5.90874e-06
1.91664e-06
2.24676e-07
2.87007e-07
1.56803e-07
3.28584e-07
-1.4743e-07
-1.5065e-06
1.1393e-06
1.01452e-06
1.45957e-06
1.534e-06
1.42105e-06
1.54799e-06
5.01433e-07
3.49542e-07
7.94485e-08
-3.15136e-06
-3.92156e-07
1.01958e-06
9.00872e-07
4.1737e-08
-1.52162e-07
-4.4776e-08
1.55334e-07
-3.15421e-07
7.1937e-07
7.89405e-07
9.91467e-08
1.24921e-06
1.50019e-06
1.34109e-06
1.44215e-06
1.13589e-06
1.22971e-06
5.40995e-07
-2.71201e-06
1.13994e-06
1.21569e-06
1.02726e-06
1.33204e-06
-6.6064e-06
-5.4533e-07
6.61601e-07
7.76466e-07
-2.15294e-07
3.75639e-08
2.19571e-07
-2.97821e-07
-3.88937e-07
1.04235e-05
-1.05044e-05
6.8045e-07
7.11567e-07
8.32671e-07
5.70249e-07
-6.49682e-06
7.91483e-07
1.08851e-06
9.05911e-07
9.6185e-07
5.50966e-07
4.43286e-07
6.381e-06
8.76913e-08
3.10861e-06
1.07085e-06
-6.33353e-06
6.01608e-07
4.43357e-07
5.80974e-07
4.72707e-07
-3.0689e-06
-6.56069e-06
1.01301e-06
-4.45603e-07
-6.43959e-07
-5.90539e-07
-4.55245e-07
8.72203e-07
9.57937e-07
8.49204e-07
-2.34347e-06
2.67426e-07
2.44338e-06
1.65938e-06
1.64135e-06
1.62849e-06
1.6745e-06
3.41153e-06
3.28222e-06
-3.83606e-06
3.93703e-06
-4.84515e-06
1.61323e-06
1.51099e-06
1.53264e-06
1.58508e-06
1.26622e-07
-1.26149e-07
-1.56035e-07
-3.53608e-07
-1.71946e-07
-1.52754e-07
1.11692e-06
-1.72122e-06
2.73023e-06
-7.17811e-07
1.66946e-06
1.6511e-06
1.62652e-06
1.68284e-06
1.27383e-06
-1.09468e-06
-1.57564e-06
9.04851e-07
-1.26225e-06
2.75287e-06
1.60691e-06
1.41657e-06
1.52828e-06
1.51304e-06
-2.72722e-06
1.66736e-06
1.65274e-06
1.68238e-06
1.63302e-06
6.77935e-06
3.83725e-06
-7.81312e-06
1.31357e-06
1.42048e-06
1.42989e-06
1.31831e-06
1.27382e-07
-2.2031e-07
-3.37632e-07
-2.98791e-06
2.86047e-06
-1.20804e-06
-1.14536e-06
-2.59814e-06
-1.05399e-05
1.09714e-06
8.36023e-07
9.83954e-07
9.46203e-07
-1.54551e-06
-1.48189e-06
1.38162e-06
1.27166e-06
1.25293e-06
1.28376e-06
1.14125e-06
1.3922e-06
-1.11447e-05
1.18536e-06
1.08635e-06
1.2047e-06
1.05356e-06
-2.33272e-08
7.32518e-07
-1.5427e-06
1.51749e-06
1.56876e-06
1.35774e-07
-7.46096e-08
-1.61316e-06
2.57483e-07
3.82259e-07
3.3117e-07
2.77846e-07
-1.44441e-07
-6.90906e-08
-1.00539e-07
1.64341e-06
-9.13521e-07
1.18853e-06
-1.63077e-06
1.72119e-08
5.68266e-08
9.01455e-08
-4.10036e-09
-1.92158e-08
1.52299e-06
2.21325e-07
2.20278e-07
2.80754e-07
1.79898e-07
-1.68884e-08
-4.05614e-08
-5.65161e-08
9.89367e-07
1.60908e-06
4.33663e-08
1.39005e-07
1.17477e-07
7.18349e-08
-1.53848e-06
1.40868e-06
7.81437e-07
-6.36577e-07
-1.43051e-06
-9.40295e-07
-1.41392e-06
1.38897e-06
2.23264e-07
-2.0378e-07
-3.31293e-07
-2.37886e-07
-2.83957e-07
3.74773e-07
2.07143e-07
3.42705e-07
8.95581e-07
-1.49398e-06
1.46986e-06
-6.63004e-07
2.83897e-07
3.50129e-07
3.05344e-07
3.3201e-07
1.38566e-06
1.68745e-07
-1.43464e-06
-1.72837e-07
-1.97185e-07
-2.45492e-07
-1.3815e-07
2.79514e-07
1.84354e-07
3.11866e-07
-4.06197e-07
-1.51616e-06
2.66931e-07
2.96409e-07
3.14671e-07
2.4521e-07
1.03797e-08
-1.10558e-07
-1.22093e-08
-6.3302e-08
-1.86796e-08
1.63011e-08
1.59419e-07
-2.25648e-07
1.11225e-07
8.6227e-08
4.02449e-08
-4.14715e-08
-1.36117e-06
1.25845e-06
-1.40425e-06
-1.09869e-06
1.36467e-06
2.47605e-07
-3.01614e-07
-3.68985e-07
-2.6831e-07
-4.15388e-07
4.05263e-07
2.62898e-07
4.367e-07
1.15193e-06
1.44437e-06
-9.1711e-07
3.43501e-07
3.67313e-07
3.22102e-07
3.85341e-07
3.0087e-07
-3.31152e-07
-4.98069e-07
-4.52308e-07
-3.64261e-07
4.97921e-07
2.84975e-07
4.6663e-07
-1.16655e-06
3.60237e-07
4.19862e-07
4.02246e-07
3.81296e-07
-1.57182e-07
1.3196e-06
1.58841e-07
-5.17383e-08
1.26099e-07
-2.14783e-08
1.42319e-06
1.9189e-08
-1.24836e-07
1.71977e-07
1.55708e-06
-1.69646e-07
-1.50421e-08
-5.83531e-08
-1.13728e-07
1.19299e-06
5.61287e-08
1.15094e-07
2.65946e-07
6.06582e-07
-4.13879e-07
-2.29927e-07
-2.92535e-07
3.38031e-07
-2.80689e-07
2.89761e-07
2.3667e-07
4.28204e-07
2.88155e-07
-3.69678e-07
-2.8384e-07
-2.3921e-07
2.09012e-07
5.04301e-07
2.35948e-07
-3.31004e-07
1.36087e-06
1.82902e-06
-1.59856e-06
1.52839e-06
-1.11442e-06
-1.55466e-06
4.37933e-07
4.08872e-07
4.28619e-07
4.15457e-07
1.70748e-06
-1.66498e-06
5.33935e-07
-1.73681e-06
2.70775e-07
1.60233e-07
1.85063e-07
2.43756e-07
6.0102e-07
5.4993e-07
6.19726e-07
4.53566e-07
4.66451e-07
4.47084e-07
4.75339e-07
5.91653e-07
3.02845e-07
2.46074e-07
2.21569e-07
3.29749e-07
6.55517e-07
5.75556e-07
6.3637e-07
-1.62681e-06
-6.51279e-07
-1.28306e-06
6.46394e-07
-2.68628e-07
6.03121e-07
-2.38193e-07
-1.38865e-06
2.35757e-07
-5.80178e-07
6.65169e-07
-1.51745e-06
-6.39364e-07
-2.33214e-07
-2.73748e-07
-5.93074e-07
-1.16353e-06
2.7209e-07
5.8791e-07
6.94713e-07
-5.82734e-07
-7.355e-07
-4.16746e-07
-4.11671e-07
-3.57051e-07
3.40639e-07
4.08308e-07
5.88553e-07
-4.51709e-07
6.52786e-07
4.29693e-07
-4.01406e-07
-4.28524e-07
6.3502e-07
-4.8218e-07
4.23941e-07
-6.78437e-07
8.12384e-09
-3.98924e-09
-2.30754e-07
2.28574e-07
-2.26239e-07
2.6754e-07
-5.53767e-08
3.16771e-08
5.24165e-08
-2.69982e-07
-3.27244e-07
-1.51821e-07
1.90393e-07
3.32953e-07
-6.63353e-08
3.22001e-07
-8.86132e-08
-1.15241e-09
1.22511e-07
-3.25342e-07
-3.02585e-07
-1.5335e-07
-2.68384e-08
2.90739e-07
1.66768e-07
-5.38632e-08
-6.65395e-08
1.02458e-06
5.49387e-08
6.44192e-08
1.37862e-06
-2.32296e-08
-1.0966e-07
-2.9653e-08
1.24676e-06
-6.34961e-08
2.72697e-08
-9.89422e-08
1.15095e-06
-6.03387e-08
1.00237e-07
-2.49262e-07
1.30746e-07
3.63801e-07
-2.17401e-07
2.4639e-07
3.04886e-07
-2.54293e-07
-2.95367e-07
2.18405e-07
-3.0265e-07
2.12584e-07
1.65668e-07
-1.62564e-07
3.00278e-07
1.89645e-07
4.68303e-07
-2.41412e-07
-3.02877e-07
8.87142e-08
8.57447e-08
6.56354e-07
-8.82397e-08
-8.82673e-08
-2.24085e-07
8.10405e-07
1.18313e-07
1.58205e-07
5.02779e-08
8.70333e-07
8.23431e-08
-5.15586e-08
-2.273e-07
1.66768e-07
6.04981e-07
1.45803e-07
-1.65575e-07
-7.50645e-07
6.03954e-07
-1.80653e-06
1.78264e-06
1.75216e-06
9.71503e-07
-1.7248e-06
1.3108e-07
6.50418e-08
1.05665e-07
9.56863e-08
1.96839e-06
-4.85349e-07
2.09467e-07
-1.9852e-06
-2.79581e-07
-4.46704e-07
-3.97367e-07
-3.11594e-07
3.61778e-07
2.25673e-07
3.73713e-07
1.70724e-06
1.5416e-07
1.57971e-07
1.34723e-07
1.79051e-07
2.66454e-07
1.91209e-06
-2.28151e-07
-2.97374e-07
-3.37368e-07
-1.86883e-07
3.95243e-07
2.53408e-07
3.84404e-07
-1.77175e-06
6.11942e-07
1.64954e-06
1.34684e-06
-1.67735e-06
-1.57944e-06
-8.65701e-07
3.77336e-07
3.89918e-07
3.69965e-07
3.99456e-07
-1.50342e-06
-1.76416e-06
5.05746e-07
1.83139e-07
1.22943e-07
2.10905e-07
9.74115e-08
5.84261e-07
4.90244e-07
5.65499e-07
-1.60317e-06
3.61966e-07
3.31105e-07
3.51048e-07
3.39835e-07
4.49568e-07
-1.79199e-06
1.4951e-07
3.28774e-08
5.91604e-08
1.21125e-07
5.31106e-07
4.64642e-07
5.49276e-07
4.71008e-07
3.9588e-07
-2.96558e-08
-4.57722e-07
-4.7497e-07
-4.28735e-07
1.87437e-07
-2.39674e-07
4.6158e-07
2.38197e-07
4.53975e-07
8.1976e-08
3.21912e-07
-1.02051e-07
-4.59079e-07
-5.45915e-07
3.66292e-07
1.08653e-07
5.09757e-07
-4.42539e-07
-5.15562e-07
-2.81213e-07
-1.0035e-06
2.79479e-07
5.10178e-07
5.82382e-07
-1.34831e-06
-5.60498e-07
-2.38579e-07
-5.73617e-07
-1.12289e-06
-2.75747e-07
5.68422e-07
5.20852e-07
-2.44179e-07
-1.22123e-06
-5.01832e-07
2.41562e-07
-4.42785e-07
5.56042e-07
-3.48042e-07
4.38227e-07
-6.0375e-07
-3.26218e-07
3.0545e-07
5.65915e-07
-4.1535e-07
6.15084e-07
-4.51075e-07
-4.31131e-07
-6.59509e-07
-4.25153e-07
-2.29176e-07
5.02989e-07
2.13738e-07
4.22028e-07
-3.55418e-07
2.95544e-07
-6.50563e-07
-3.00079e-07
3.49635e-07
-1.98705e-07
3.48166e-07
-7.46001e-07
-3.4432e-07
2.38344e-07
-2.9998e-07
-3.688e-07
-5.3068e-07
3.02261e-07
3.61218e-07
3.50768e-07
2.5536e-07
-8.65648e-07
-3.39872e-07
-2.58285e-07
1.5062e-06
1.25652e-07
6.64293e-07
1.29876e-08
-1.45547e-06
-5.64413e-08
2.23524e-07
2.60943e-07
2.4225e-07
2.20187e-07
-1.57547e-07
-2.88909e-08
-2.04495e-08
-8.40001e-07
-1.59667e-06
9.9831e-07
3.2904e-08
6.1388e-08
1.20318e-08
6.49512e-08
-7.20203e-07
-2.70379e-07
2.68787e-07
8.38369e-07
3.89925e-07
3.99726e-07
3.7167e-07
4.03183e-07
4.00246e-08
7.41704e-07
5.61858e-08
3.76332e-07
-1.50258e-07
-7.41784e-08
3.05024e-07
2.83221e-07
2.96295e-07
2.94464e-07
-1.47378e-07
1.78708e-07
-4.9997e-08
-3.31224e-07
1.10264e-07
5.3077e-08
-6.00799e-08
-1.18589e-07
-3.99495e-07
-6.56356e-07
2.3463e-07
7.56769e-07
3.60002e-07
4.06029e-07
3.63382e-07
4.08013e-07
-1.53109e-07
-2.94431e-08
-2.77234e-07
1.96509e-07
-1.79752e-08
-3.20426e-07
3.26652e-07
3.31871e-07
3.46206e-07
3.15228e-07
4.04981e-07
1.80187e-07
3.52571e-07
3.90117e-07
4.02709e-07
3.40762e-07
-2.24847e-06
-2.75624e-07
2.82662e-07
2.22464e-06
1.87985e-07
1.4201e-07
1.99833e-07
1.29991e-07
-4.66372e-07
-3.44142e-08
3.26753e-08
4.75567e-07
-2.28674e-07
-1.60485e-07
7.04867e-07
-8.49073e-07
1.64074e-07
-7.93315e-08
-6.77579e-08
2.8127e-06
-2.89404e-06
1.89e-07
1.78192e-07
1.93043e-07
1.76796e-07
1.71761e-07
5.10058e-07
-1.19427e-07
-6.16694e-07
-1.70946e-07
-2.31975e-06
-7.5508e-08
2.02496e-07
2.2792e-07
2.10498e-07
2.16183e-07
2.75144e-06
1.76387e-07
1.03357e-07
1.64358e-07
1.16298e-07