/*--------------------------------*- C++ -*----------------------------------*\
| =========                 |                                                 |
| \\      /  F ield         | OpenFOAM: The Open Source CFD Toolbox           |
|  \\    /   O peration     | Version:  2012                                  |
|   \\  /    A nd           | Website:  www.openfoam.com                      |
|    \\/     M anipulation  |                                                 |
\*---------------------------------------------------------------------------*/
FoamFile
{
    version     2.0;
    format      ascii;
    class       pointVectorField;
    location    "0.108/fluid";
    object      pointMotionU;
}
// * * * * * * * * * * * * * * * * * * * * * * * * * * * * * * * * * * * * * //

dimensions      [0 1 -1 0 0 0 0];


internalField   nonuniform List<vector> 
19865
(
(0 0 0)
(0.000561029 8.31569e-05 0.000159287)
(0.00118314 0.000242413 0.000394983)
(0.00201474 0.000225458 0.000648437)
(0.00310692 -6.29198e-05 0.000889239)
(0.00437254 -0.000550991 0.00109797)
(0.00577974 -0.00120781 0.00124236)
(0.00729564 -0.0019561 0.00128459)
(0.0088389 -0.00268026 0.00118872)
(0.0103414 -0.00317876 0.000939985)
(0.0119187 -0.00332476 0.000528791)
(0.0137891 -0.00306015 -6.52806e-05)
(0.0154816 -0.00237149 -0.000788056)
(0.0172028 -0.00081834 -0.00165699)
(0.0188011 0.000435008 -0.00247133)
(0.0186027 -0.00877022 -0.00270288)
(0 0 0)
(0.00118785 -3.8756e-05 0.000159287)
(0.002277 -1.71689e-05 0.00035463)
(0.00347904 -0.000160854 0.00054624)
(0.00482971 -0.000489185 0.000714909)
(0.00633816 -0.000973157 0.000845072)
(0.00793725 -0.0015945 0.000911915)
(0.00960758 -0.00230726 0.000883141)
(0.011158 -0.00287836 0.000762877)
(0.0125794 -0.00332479 0.000507313)
(0.013829 -0.00351867 0.000121784)
(0.0149517 -0.00386301 -0.000350419)
(0.015903 -0.0044025 -0.000880684)
(0.0166921 -0.00536779 -0.00140663)
(0.0172978 -0.00767637 -0.00180939)
(0.0169985 -0.0125517 -0.00196211)
(0 0 0)
(0.00160889 -9.67709e-05 0.000151534)
(0.00294285 -0.000145639 0.000321056)
(0.00440497 -0.000299328 0.000466076)
(0.00594004 -0.000516656 0.000582353)
(0.00755362 -0.000822636 0.000654141)
(0.00915416 -0.00121105 0.000668625)
(0.0107048 -0.00158697 0.00061149)
(0.012115 -0.0019343 0.000478435)
(0.0133431 -0.00216887 0.000249992)
(0.014327 -0.0026375 -6.10199e-05)
(0.0150484 -0.00318139 -0.000409912)
(0.015527 -0.00398325 -0.000761941)
(0.0158173 -0.0052096 -0.00108087)
(0.015955 -0.00705692 -0.00133907)
(0.0157608 -0.00987498 -0.00150496)
(0 0 0)
(0.00175167 0 0.00014808)
(0.003157 0 0.000309382)
(0.00471062 0 0.000437318)
(0.00629982 0 0.000534745)
(0.0079405 0 0.000587136)
(0.00953537 0 0.000583877)
(0.0109173 0 0.000530741)
(0.0122739 0 0.000392823)
(0.0134502 0 0.000176737)
(0.0143377 0 -9.71542e-05)
(0.0149695 0 -0.000402202)
(0.0153349 0 -0.000697813)
(0.015513 0 -0.000961837)
(0.0155426 0 -0.00117729)
(0.0153301 0 -0.00131798)
(0 0 0)
(0.000925288 0.000192963 0.000122302)
(0.00165428 0.000538584 0.000333331)
(0.00264406 0.000599626 0.00053192)
(0.00378294 0.000516418 0.000721491)
(0.00514135 0.000254221 0.000874812)
(0.00655099 -4.54318e-05 0.000982516)
(0.00805351 -0.000323213 0.000995562)
(0.00951878 -0.000497887 0.000885243)
(0.0109106 -0.000501557 0.000626406)
(0.0123322 -0.000338836 0.000191962)
(0.0138446 0.000257685 -0.00042535)
(0.0151367 0.0012902 -0.00114947)
(0.0162309 0.00224762 -0.00189174)
(0.0172016 0.00221459 -0.00252467)
(0.0171699 -0.00467289 -0.00253905)
(0 0 0)
(0.00144803 7.05429e-05 0.000130235)
(0.00261032 0.000227095 0.000308757)
(0.0038936 0.000199251 0.000467138)
(0.00524674 8.46707e-05 0.000604401)
(0.00674857 -0.000158152 0.000701809)
(0.00831908 -0.000458197 0.000741909)
(0.00984641 -0.000752782 0.0006996)
(0.0112916 -0.00104293 0.000561125)
(0.0125718 -0.00112393 0.000303448)
(0.0137763 -0.00110105 -9.63204e-05)
(0.0148409 -0.00111012 -0.000590655)
(0.015752 -0.00120053 -0.00114476)
(0.0164495 -0.00161461 -0.00167162)
(0.0168942 -0.00321619 -0.00204206)
(0.0166971 -0.00710379 -0.00211679)
(0 0 0)
(0.00187382 -4.67222e-05 0.000126419)
(0.00326176 -2.5743e-06 0.000284035)
(0.00467114 -2.00129e-05 0.000418355)
(0.00617747 -0.000148052 0.000512767)
(0.00772153 -0.000295201 0.000564396)
(0.00924066 -0.000491778 0.000563342)
(0.0106871 -0.00073594 0.000495546)
(0.0120192 -0.00098298 0.000353959)
(0.0131788 -0.00111809 0.000125142)
(0.0141805 -0.00128255 -0.000193539)
(0.0149626 -0.0015669 -0.000559108)
(0.0155278 -0.00206972 -0.000930743)
(0.0158996 -0.00294717 -0.0012649)
(0.0160652 -0.00429835 -0.00151245)
(0.0158747 -0.00645713 -0.00161594)
(0 0 0)
(0.00189884 0 0.000133948)
(0.00343199 0 0.000278559)
(0.00503528 0 0.000388656)
(0.0065418 0 0.000471881)
(0.00804549 0 0.000515218)
(0.00947978 0 0.000506246)
(0.0108633 0 0.000435357)
(0.012117 0 0.000296341)
(0.0132569 0 7.41465e-05)
(0.0142161 0 -0.000212189)
(0.0149208 0 -0.000527245)
(0.0153826 0 -0.00083469)
(0.0156517 0 -0.0011036)
(0.0157333 0 -0.00130747)
(0.0155346 0 -0.00140819)
(0 0 0)
(0.00109177 0.000315222 7.89115e-05)
(0.00201684 0.000647105 0.000212013)
(0.00306189 0.000804824 0.000345868)
(0.00422667 0.000823292 0.000468217)
(0.00553696 0.000751978 0.000564371)
(0.00693355 0.000663259 0.000623324)
(0.00831779 0.000580934 0.000615449)
(0.00966092 0.000520887 0.000511792)
(0.0109154 0.00058939 0.000297046)
(0.0121423 0.000719828 -5.31863e-05)
(0.0133566 0.000982709 -0.000533142)
(0.0142837 0.00117344 -0.00104895)
(0.0150266 0.000988817 -0.00154127)
(0.0155604 -0.000139819 -0.00190101)
(0.0155113 -0.00417924 -0.00194793)
(0 0 0)
(0.00155451 0.000172427 8.81269e-05)
(0.00282244 0.000385074 0.000213039)
(0.00415743 0.00045734 0.000326985)
(0.00552697 0.000437554 0.000419466)
(0.00696164 0.000347579 0.000475965)
(0.00846716 0.000205031 0.000481947)
(0.00984918 7.65377e-05 0.000429529)
(0.011176 -1.92536e-05 0.000308647)
(0.0123937 6.24392e-06 9.96034e-05)
(0.0135537 -4.93735e-06 -0.000244801)
(0.0144834 -5.21257e-05 -0.000644534)
(0.0152331 -0.000325929 -0.0010787)
(0.0157427 -0.000966788 -0.00146384)
(0.0160063 -0.00229165 -0.00171958)
(0.0158701 -0.00502987 -0.00177495)
(0 0 0)
(0.00191797 2.24284e-05 8.97048e-05)
(0.00343636 9.07363e-05 0.000201628)
(0.00486373 0.000106605 0.000299861)
(0.0063306 5.04141e-05 0.000362447)
(0.00783125 -5.89518e-05 0.000382967)
(0.00923828 -0.000177174 0.00036861)
(0.0105621 -0.000289399 0.000303818)
(0.0117781 -0.000356434 0.000185958)
(0.0129488 -0.000387789 -5.19106e-06)
(0.0139317 -0.000482046 -0.000269158)
(0.0147016 -0.000719379 -0.000577831)
(0.0152735 -0.00118519 -0.000897002)
(0.0156233 -0.00193237 -0.00116932)
(0.0157494 -0.00299174 -0.00135495)
(0.0155738 -0.004538 -0.00141003)
(0 0 0)
(0.00197884 0 9.5525e-05)
(0.00358872 0 0.000202786)
(0.00519574 0 0.000284426)
(0.00668028 0 0.000334962)
(0.00813446 0 0.000352844)
(0.00946113 0 0.000339848)
(0.0107394 0 0.000267036)
(0.0118751 0 0.00014925)
(0.0129811 0 -3.13113e-05)
(0.0139542 0 -0.000267336)
(0.0147046 0 -0.000533346)
(0.0152174 0 -0.000799765)
(0.0155112 0 -0.00102973)
(0.0155945 0 -0.00119237)
(0.0154127 0 -0.00124941)
(0 0 0)
(0.00119628 0.000358913 3.06344e-05)
(0.00219252 0.000716577 9.24567e-05)
(0.00328739 0.000919431 0.000159177)
(0.00446064 0.00100806 0.000217106)
(0.00574786 0.00100196 0.000249303)
(0.00707252 0.000971185 0.00025763)
(0.00837971 0.000934584 0.000223864)
(0.00958364 0.000920362 0.000153433)
(0.0107469 0.000933899 1.52896e-05)
(0.0118421 0.000970117 -0.000197575)
(0.0127821 0.000934501 -0.00046639)
(0.0134761 0.00067031 -0.000760867)
(0.0139504 5.73935e-05 -0.00104099)
(0.0142085 -0.00112441 -0.00123892)
(0.0141986 -0.0035282 -0.00128859)
(0 0 0)
(0.00162076 0.000224919 3.83893e-05)
(0.00293516 0.000466728 9.58216e-05)
(0.00434972 0.000555042 0.000147274)
(0.00574791 0.000574118 0.000188717)
(0.00714613 0.000546941 0.000201787)
(0.00850445 0.000496344 0.000187571)
(0.00977298 0.000456492 0.00014477)
(0.0110069 0.000418312 5.35575e-05)
(0.0121602 0.000402293 -8.42546e-05)
(0.0132192 0.000380846 -0.000283691)
(0.0140884 0.000227063 -0.00053056)
(0.0147063 -0.000169871 -0.000784376)
(0.0150655 -0.000802874 -0.000993841)
(0.0152125 -0.00186102 -0.00113412)
(0.0150933 -0.00376939 -0.00118753)
(0 0 0)
(0.0018917 7.57008e-05 4.13703e-05)
(0.00345681 0.000173669 9.2627e-05)
(0.00498607 0.000197736 0.000137843)
(0.00649016 0.000165477 0.000164766)
(0.00792947 8.83416e-05 0.000168147)
(0.00923717 2.05782e-05 0.000148195)
(0.0103939 -7.82141e-06 0.000107014)
(0.0116022 9.54801e-06 1.35576e-05)
(0.0127346 -5.63432e-06 -0.00012345)
(0.0136498 -7.16871e-05 -0.000281128)
(0.0143933 -0.000269475 -0.000457956)
(0.0149431 -0.00069495 -0.000645717)
(0.0152635 -0.0013445 -0.000805208)
(0.0153641 -0.00208442 -0.000930255)
(0.0152111 -0.00330358 -0.000963453)
(0 0 0)
(0.00191589 0 4.51021e-05)
(0.00360825 0 9.5396e-05)
(0.00525575 0 0.000136434)
(0.00675753 0 0.000160608)
(0.00819626 0 0.000157562)
(0.0094633 0 0.000131697)
(0.0105781 0 9.01761e-05)
(0.0117169 0 2.04023e-05)
(0.0127719 0 -9.58164e-05)
(0.013666 0 -0.000250242)
(0.0144336 0 -0.000410179)
(0.0149823 0 -0.000572713)
(0.0152842 0 -0.000715283)
(0.0153615 0 -0.000823181)
(0.015197 0 -0.000861183)
(0 0 0)
(0.00120299 0.000380432 0)
(0.00225986 0.000718006 0)
(0.0034032 0.000911941 0)
(0.00458888 0.00100546 0)
(0.00585618 0.00102331 0)
(0.00709103 0.001037 0)
(0.00837876 0.00101554 0)
(0.00953542 0.00101418 0)
(0.0106445 0.00101355 0)
(0.0116648 0.000991899 0)
(0.0125047 0.000842474 0)
(0.0131137 0.000459884 0)
(0.0134924 -0.000189474 0)
(0.0136844 -0.00127245 0)
(0.0136485 -0.00318185 0)
(0 0 0)
(0.00162058 0.00024613 0)
(0.00299942 0.000473345 0)
(0.00445845 0.000559285 0)
(0.00587695 0.000564739 0)
(0.0072182 0.000543828 0)
(0.0085157 0.000531821 0)
(0.00975749 0.000518663 0)
(0.0109201 0.000510724 0)
(0.0120342 0.00049953 0)
(0.0130467 0.00046468 0)
(0.0138756 0.000282999 0)
(0.0144259 -9.76638e-05 0)
(0.014758 -0.000699402 0)
(0.014885 -0.00169693 0)
(0.0147491 -0.00330797 0)
(0 0 0)
(0.00188348 9.44427e-05 0)
(0.00348799 0.00018251 0)
(0.00504731 0.000181294 0)
(0.00656227 0.000135959 0)
(0.00794576 0.000101264 0)
(0.00928527 7.27006e-05 0)
(0.0103855 8.75888e-05 0)
(0.0115667 7.1342e-05 0)
(0.0126095 5.62654e-05 0)
(0.0135263 2.71397e-05 0)
(0.0142415 -0.00011004 0)
(0.014755 -0.000432031 0)
(0.0150884 -0.00113263 0)
(0.0151934 -0.00189184 0)
(0.015048 -0.00280918 0)
(0 0 0)
(0.00189542 0 0)
(0.00362572 0 0)
(0.00527962 0 0)
(0.00679182 0 0)
(0.0081606 0 0)
(0.00945476 0 0)
(0.0106013 0 0)
(0.0117177 0 0)
(0.0126842 0 0)
(0.0135504 0 0)
(0.0143076 0 0)
(0.0148493 0 0)
(0.0151599 0 0)
(0.0152313 0 0)
(0.0150884 0 0)
(0.0165678 0.0138239 -0.00278021)
(0.0168313 0.00419355 -0.00197331)
(0.0189836 -0.000568327 -0.00268115)
(0.0175889 0.00314253 -0.00259746)
(0.0181097 -0.00516049 -0.00282603)
(0.0159337 0.00364542 -0.00220258)
(0.0160157 -0.0040107 -0.00222978)
(0.017394 0.000368237 -0.00263697)
(0.0156997 0.00611774 -0.00219286)
(0.0162254 -0.00291286 -0.00240562)
(0.0179757 0.00216186 -0.00284655)
(0.0161281 0.00261529 -0.00234819)
(0.0159964 0.00406159 -0.00193269)
(0.0139781 0.0054024 -0.0017089)
(0.0178701 -0.00336289 -0.00250853)
(0.015401 -0.000364998 -0.00203774)
(0.0149182 0.00198668 -0.00128119)
(0.0183299 0.00232089 -0.00217457)
(0.0164827 0.00585238 -0.00241086)
(0.0198192 0.00247149 -0.00325077)
(0.0148806 0.00447075 -0.00199209)
(0.0146868 0.000963707 -0.00193912)
(0.0169374 0.00502469 -0.00264022)
(0.0180744 0.00132089 -0.00289905)
(0.015951 0.000352382 -0.00127574)
(0.0156284 0.00266791 -0.00158029)
(0.0181057 -0.00014812 -0.00209451)
(0.0167372 0.00170518 -0.00188113)
(0.0183844 -0.00474295 -0.00222317)
(0.019138 -0.00191371 -0.00224255)
(0.0180488 0.00310093 -0.00230027)
(0.0188216 0.000429001 -0.00257789)
(0.0180603 0.00232107 -0.00256047)
(0.0179071 -0.0114776 -0.00234195)
(0.0189853 -0.0124918 -0.00266712)
(0.0198892 -0.00877686 -0.00313594)
(0.0188545 -0.00336029 -0.00268828)
(0.0182832 -0.00630244 -0.00277834)
(0.017304 -0.00960932 -0.0019139)
(0.0171986 -0.00454232 -0.00202862)
(0.0169657 -0.009035 -0.00213483)
(0.0150561 0.00282075 -0.0015836)
(0.0150226 0.00275065 -0.00189304)
(0.014974 -0.00442061 -0.00192355)
(0.0167336 0.00237788 -0.0022281)
(0.0172722 -0.000773595 -0.00235893)
(0.0163956 0.00077481 -0.00222945)
(0.0174222 0.0029353 -0.00259781)
(0.0167229 0.00335641 -0.00243455)
(0.0173367 0.00160566 -0.00260915)
(0.0170923 -0.00597735 -0.00239539)
(0.0163343 -0.00453358 -0.0022624)
(0.0176838 -0.00474898 -0.00271054)
(0.016848 -0.00415993 -0.00245786)
(0.0173621 -0.00176546 -0.00261188)
(0.0168971 -0.00475593 -0.00211714)
(0.0144123 0.000167194 -0.00166803)
(0.0144145 -0.00408632 -0.00170371)
(0.0156245 -0.00165696 -0.00196796)
(0.0133266 0.0062466 -0.00173637)
(0.0150494 0.00857262 -0.00228286)
(0.0164088 0.00540564 -0.0025673)
(0.0174347 0.00661567 -0.00292441)
(0.0162129 0.00636736 -0.0025075)
(0.0132102 0.00390824 -0.00134093)
(0.0170799 0.00231504 -0.00169963)
(0.0163947 0.00656011 -0.00204651)
(0.0159496 0.00577282 -0.00208911)
(0.0148684 0.00471961 -0.00186509)
(0.0194385 -0.002973 -0.00252095)
(0.0181427 0.00423364 -0.00258075)
(0.0182268 0.00152548 -0.00276547)
(0.0167623 0.00529184 -0.00246299)
(0.0176072 0.00312882 -0.00270763)
(0.0191961 -0.0039237 -0.00326655)
(0.0182943 -0.000507036 -0.00290074)
(0.0150528 0.00149759 -0.00200665)
(0.015906 0.00516547 -0.00224821)
(0.0160512 0.00355474 -0.00230103)
(0.0163029 -0.00354472 -0.00234567)
(0.0161442 -5.22715e-06 -0.00232362)
(0.0177657 0.00153958 -0.002792)
(0.017014 0.00196502 -0.00258122)
(0.0166775 0.00173082 -0.0016701)
(0.0157429 0.000661999 -0.00129333)
(0.018409 0.00104029 -0.00205401)
(0.0183895 -0.00686095 -0.00233407)
(0.0192056 -0.00180218 -0.00237293)
(0.0194128 -0.00629984 -0.00260889)
(0.0155159 0.00263274 -0.00153786)
(0.0150404 0.00426132 -0.00174586)
(0.0172912 0.00238191 -0.00227021)
(0.0155419 0.00320856 -0.00191655)
(0.0171231 0.0047952 -0.00238554)
(0.0150237 0.00399606 -0.00192095)
(0.0168156 0.00460068 -0.00249976)
(0.0146827 0.0038111 -0.00155657)
(0.0127788 0.00570675 -0.00152727)
(0.0150808 0.00828955 -0.00212168)
(0.014097 0.00585589 -0.00187028)
(0.017789 -0.00146488 -0.00240303)
(0.0175714 -0.00756729 -0.00247594)
(0.0172043 -0.00627095 -0.00211831)
(0.0173212 -0.00258151 -0.00243684)
(0.0179858 0.00232887 -0.00265146)
(0.0185015 -0.00119959 -0.0028242)
(0.017547 0.00264251 -0.00270571)
(0.0179259 -0.000977308 -0.00280382)
(0.0152601 0.00133264 -0.00195069)
(0.0152737 -0.00436811 -0.00197843)
(0.0164894 -0.00106849 -0.00230602)
(0.0144996 -0.00137391 -0.00172912)
(0.0150732 0.00248178 -0.00196877)
(0.0150141 -0.000870992 -0.00199044)
(0.016886 0.00304881 -0.00253647)
(0.0170443 -0.000524222 -0.00255303)
(0.0166523 0.00510963 -0.00177721)
(0.0187178 0.00244628 -0.00240836)
(0.0175836 0.00420658 -0.00234234)
(0.0204208 -3.51776e-05 -0.00310668)
(0.01721 0.00602414 -0.00269423)
(0.0163809 0.00636222 -0.00254894)
(0.0196427 0.00334116 -0.00340479)
(0.0195494 -0.00582398 -0.00322168)
(0.0146915 0.00396136 -0.00198596)
(0.0158655 0.0061824 -0.00237326)
(0.0165154 0.00271717 -0.00249901)
(0.0147531 -0.00409525 -0.00185208)
(0.0174856 0.00443802 -0.00281818)
(0.0177152 -0.0038128 -0.00275225)
(0.0120654 0.0085077 -0.00177881)
(0.0124298 0.00767262 -0.00164319)
(0.0136584 0.00624027 -0.00153149)
(0.0132901 -0.00681763 -0.000705866)
(0.0136616 0.00341954 -0.00121253)
(0.0156872 0.00622702 -0.00188197)
(0.0219064 -0.00701595 -0.00343448)
(0.0212658 0.00327829 -0.00298394)
(0.0137404 0.00817624 -0.00171559)
(0.0134593 -0.00347049 -0.0010601)
(0.0137703 0.0057722 -0.00151326)
(0.0134796 -0.000393785 -0.00132894)
(0.013492 0.00847869 -0.00201124)
(0.0138374 0.00771411 -0.00184661)
(0.020233 0.00804038 -0.00348854)
(0.0213125 -0.00366863 -0.00350972)
(0.0206832 0.00562751 -0.00321717)
(0.0208314 -0.000571313 -0.00366653)
(0.0145277 0.00794406 -0.00214465)
(0.0146528 0.00664886 -0.00204577)
(0.0145621 0.000254426 -0.00185946)
(0.0161336 0.008106 -0.0026152)
(0.0184691 0.00672359 -0.00313304)
(0.0187077 0.000274753 -0.00312134)
(0.0121643 0.00933203 -0.00177668)
(0.0149899 0.0109977 -0.00240317)
(0.0165 0.00965482 -0.00266117)
(0.0154045 0.0093009 -0.00257209)
(0.0160193 0.0095089 -0.00257462)
(0.0135222 -0.00964392 -0.000829536)
(0.02083 -0.00988205 -0.00338099)
(0.0114337 0.00747103 -0.00136118)
(0.016289 0.00882963 -0.00211706)
(0.0149559 0.00740051 -0.00198069)
(0.0163166 0.0012234 -0.00248387)
(0.0126296 -0.00268176 -0.00137201)
(0.018106 -0.00278435 -0.00311646)
(0.0163478 -0.00320676 -0.00239757)
(0.0141304 0.00511397 -0.00164846)
(0.0125762 0.00616581 -0.00157104)
(0.0142175 0.00771123 -0.00193812)
(0.0136736 0.00628773 -0.00178957)
(0.0151494 0.00310856 -0.00148528)
(0.0156203 0.00447315 -0.00155817)
(0.017459 0.00464069 -0.00196141)
(0.0172637 0.00355156 -0.0020725)
(0.0184114 0.0033474 -0.00233771)
(0.0208665 -0.00153131 -0.00307334)
(0.0135272 0.00270012 -0.00136415)
(0.0154991 0.00782637 -0.00221703)
(0.0166016 0.00554845 -0.00231863)
(0.015346 0.00643252 -0.002274)
(0.0159795 0.0067043 -0.00243658)
(0.0204437 0.00111016 -0.00324748)
(0.0212349 0.0025117 -0.00357118)
(0.0195926 0.00512104 -0.00318451)
(0.0200791 0.00324441 -0.00343891)
(0.0200983 -0.0016436 -0.00334347)
(0.0145373 0.00583688 -0.00198318)
(0.0147349 0.00505862 -0.00202415)
(0.0152527 0.00611474 -0.00218492)
(0.0141899 0.00221594 -0.00179171)
(0.0146365 0.00312068 -0.00195541)
(0.0152574 0.00252433 -0.00214814)
(0.0146556 -0.00127306 -0.00188236)
(0.0166559 0.0063235 -0.00263675)
(0.0164293 0.00636484 -0.00256026)
(0.0169757 0.0055245 -0.00270859)
(0.0189317 0.00248475 -0.00318856)
(0.0178357 0.00265554 -0.00285122)
(0.0180354 0.00354391 -0.00294214)
(0.0181168 -0.000968489 -0.00288788)
(0.0201818 -0.0107039 -0.00314676)
(0.0205282 -0.00448492 -0.00321969)
(0.0198631 -0.00734042 -0.00320635)
(0.0112014 0.00844806 -0.00151455)
(0.0154619 0.0105324 -0.00227548)
(0.0143928 0.00832179 -0.00214982)
(0.0127294 0.00639585 -0.00160984)
(0.0132166 0.00669103 -0.00179711)
(0.0141464 0.00558789 -0.0018952)
(0.0147807 0.00907379 -0.00219966)
(0.0142834 0.0080589 -0.00208513)
(0.0155508 0.00821377 -0.002413)
(0.0154522 0.00790745 -0.00236906)
(0.0125272 0.00501799 -0.00153997)
(0.0190046 0.00489057 -0.00332967)
(0.0165698 0.00453488 -0.00256838)
(0.017074 0.00671391 -0.00279468)
(0.0158541 0.00704706 -0.00254205)
(0.0191838 0.00586788 -0.00330531)
(0.0176616 0.00597801 -0.00295038)
(0.0152069 0.00607061 -0.0022163)
(0.0159059 0.0070571 -0.00245148)
(0.0164732 0.00555317 -0.00254998)
(0.0170886 0.00628066 -0.00275796)
(0.0132952 0.00473423 -0.00142945)
(0.0128313 0.00507609 -0.00143758)
(0.01339 0.00304355 -0.00121807)
(0.015318 0.00603509 -0.00182734)
(0.015412 0.00786053 -0.00206231)
(0.0170516 0.00581341 -0.00199724)
(0.0167667 0.00621862 -0.00215202)
(0.0134444 -0.000129856 -0.00108693)
(0.0217966 -0.00032756 -0.00337512)
(0.013602 -0.00619236 -0.0011457)
(0.0203173 -0.00639012 -0.00343624)
(0.0143973 -0.00391455 -0.00169676)
(0.0188036 0.00326045 -0.00255339)
(0.0164946 0.00500098 -0.0022173)
(0.0201379 0.00293874 -0.00298094)
(0.0174506 0.00539225 -0.0026049)
(0.0197178 -0.000239315 -0.00341614)
(0.0195612 -0.00473512 -0.00331275)
(0.0184405 -0.00364349 -0.00301606)
(0.0165025 -6.44118e-05 -0.00244931)
(0.0152576 -0.00363198 -0.0020343)
(0.0174182 -0.0034866 -0.00266556)
(0.0209566 -0.00626226 -0.00322181)
(0.0206131 -0.00326421 -0.00334247)
(0.0120703 0.00816124 -0.00169743)
(0.0124637 0.00682287 -0.00165552)
(0.013946 0.00833501 -0.00200508)
(0.0111225 0.00888284 -0.00157682)
(0.0152456 0.0112667 -0.00236644)
(0.0129085 0.00867686 -0.00193505)
(0.012764 0.00578964 -0.00150895)
(0.0145447 0.00713052 -0.00187503)
(0.0129313 0.00703037 -0.00158826)
(0.0112483 0.00797132 -0.00143735)
(0.01564 0.00977674 -0.00217204)
(0.013583 -0.0078762 -0.000996163)
(0.0135903 -0.00458408 -0.00127871)
(0.0137074 0.00411385 -0.00135251)
(0.0159186 0.0051022 -0.00174854)
(0.0116005 0.00691862 -0.00125289)
(0.0166789 0.00800383 -0.00201615)
(0.0133507 -0.00161649 -0.000902811)
(0.0134473 -0.0116135 -0.000645603)
(0.0134106 -0.00512517 -0.000895235)
(0.0137373 0.0046048 -0.00138153)
(0.0177351 0.00522597 -0.00216265)
(0.0173258 0.00422256 -0.00221264)
(0.0154453 0.00684923 -0.00193122)
(0.0145144 0.00708861 -0.00182958)
(0.0221349 -0.00181949 -0.00330984)
(0.0211323 -0.011823 -0.00339477)
(0.0216435 -0.00534391 -0.00346946)
(0.0207059 0.00155566 -0.00294029)
(0.0209694 0.00445711 -0.0030936)
(0.0137849 0.00695793 -0.00162078)
(0.0135291 0.00407691 -0.00147694)
(0.012716 0.00854409 -0.00173017)
(0.0135217 0.00127932 -0.00123835)
(0.0134994 -0.00192345 -0.00120251)
(0.0124753 0.00109624 -0.00141676)
(0.0134677 0.00813766 -0.00189901)
(0.0152233 0.00843753 -0.00228963)
(0.0150804 0.00706395 -0.00233537)
(0.0142583 0.00874963 -0.00225256)
(0.0144967 0.00874109 -0.00229356)
(0.0157911 0.00730558 -0.00214475)
(0.0154857 0.0060888 -0.00217625)
(0.0145599 0.00787878 -0.00204904)
(0.0204636 0.0068132 -0.00335792)
(0.0210395 0.00389744 -0.00369017)
(0.0195352 0.00594116 -0.00331188)
(0.0183829 0.00845935 -0.00319417)
(0.0215315 0.00108152 -0.0034716)
(0.0210928 -0.00212147 -0.00358889)
(0.0205742 -0.00809583 -0.00339911)
(0.0200224 0.00402482 -0.00311808)
(0.0203449 -0.000810478 -0.00350881)
(0.0187499 0.000958947 -0.00327427)
(0.0201075 -0.0047682 -0.0035004)
(0.0142178 0.00648163 -0.00198008)
(0.0148176 0.00740996 -0.0021602)
(0.0151302 0.00667098 -0.00220538)
(0.0144248 0.00798892 -0.00210131)
(0.0154355 0.00895963 -0.00243596)
(0.0142358 0.00437605 -0.00185082)
(0.0144718 0.00383231 -0.00194046)
(0.0152488 0.00504415 -0.00219702)
(0.0165254 0.00786044 -0.00262392)
(0.0142574 -0.000668248 -0.00173274)
(0.0152336 -0.000275601 -0.00208301)
(0.0164741 0.000743723 -0.00248669)
(0.0146842 -0.00346982 -0.00183119)
(0.016085 0.00761242 -0.00254541)
(0.0166197 0.00687667 -0.00269725)
(0.0165597 0.00690123 -0.00264718)
(0.0169939 0.00811682 -0.00283566)
(0.0187124 0.00386822 -0.00315202)
(0.0185976 0.00475916 -0.00313906)
(0.0176921 0.00522406 -0.00287345)
(0.0188522 -0.000464854 -0.00314562)
(0.0178212 -0.000167099 -0.00281037)
(0.0181712 -0.00338433 -0.00295359)
(0.0112203 0.0101398 -0.00182325)
(0.0116416 0.00931121 -0.00161702)
(0.0119167 0.00897935 -0.0015436)
(0.0141305 0.00707517 -0.0015572)
(0.0127544 0.00889442 -0.00149096)
(0.0199733 0.00694357 -0.00274831)
(0.0140694 0.011298 -0.00199138)
(0.0141616 0.00804406 -0.00169605)
(0.0119658 0.00992578 -0.00180565)
(0.0122963 0.00921172 -0.00153877)
(0.0191536 0.0111707 -0.00332314)
(0.0197284 0.00790874 -0.00288528)
(0.0139675 0.0102774 -0.0021892)
(0.0144634 0.0101246 -0.00218935)
(0.0145703 -0.00100668 -0.00189512)
(0.0152648 0.0102668 -0.0025148)
(0.0175415 0.0100957 -0.00297961)
(0.018168 -0.00107445 -0.00300352)
(0.01136 0.00988866 -0.00175825)
(0.0114362 0.00959789 -0.00168369)
(0.0141329 0.0101234 -0.00189471)
(0.014162 0.00904871 -0.00180424)
(0.0119994 0.00965416 -0.0017034)
(0.0120946 0.00941772 -0.00161484)
(0.019315 0.0099856 -0.00318229)
(0.0195062 0.00891111 -0.00303136)
(0.0146385 0.00709279 -0.00210387)
(0.0142946 0.00308438 -0.00191424)
(0.0183949 0.00701114 -0.00311259)
(0.0185463 0.00298975 -0.00313264)
(0.0148781 0.0134535 -0.00232177)
(0.0150923 0.0126337 -0.00249634)
(0.0165376 0.0118075 -0.00271461)
(0.0183075 0.0133684 -0.00321585)
(0.0161257 0.0117555 -0.00265335)
(0.0151026 0.00929115 -0.00187473)
(0.0168409 0.0101379 -0.0022389)
(0.0189814 0.00919072 -0.00263616)
(0.0162708 -0.000848994 -0.00244437)
(0.0140209 -0.00285801 -0.0016753)
(0.0184284 -0.00295482 -0.00313506)
(0.016277 -0.00301395 -0.00240833)
(0.0150363 0.01117 -0.0021003)
(0.0165179 0.0118817 -0.00248227)
(0.0186092 0.0110672 -0.0029299)
(0.016455 0.00751692 -0.0026124)
(0.0163625 0.00330832 -0.00252464)
(0.0140454 0.0054656 -0.00189656)
(0.0187704 0.00534931 -0.00323801)
(0.0164688 0.00523301 -0.00257337)
(0.0117628 0.00852109 -0.00172154)
(0.00877068 0.00779133 -0.00135299)
(0.0133369 0.0103639 -0.00208779)
(0.011844 0.00873204 -0.00179872)
(0.0118932 0.00806169 -0.00164404)
(0.0123417 0.00766087 -0.00160268)
(0.00896104 0.00788705 -0.00125091)
(0.0137057 0.00925747 -0.00192584)
(0.0130891 0.00677573 -0.00155317)
(0.00973351 0.00768274 -0.00116781)
(0.0148096 0.00776588 -0.00178907)
(0.013262 -0.00421364 -0.0007869)
(0.0133966 -0.00938311 -0.000658298)
(0.0133531 -0.0059541 -0.000803836)
(0.0139792 0.00552055 -0.00138945)
(0.0135211 0.000971111 -0.00105098)
(0.0137023 0.00401955 -0.00130201)
(0.0156911 0.00775859 -0.00185024)
(0.011331 0.00757451 -0.0012153)
(0.0148603 0.00674401 -0.00181072)
(0.0220727 -0.00441707 -0.00338626)
(0.0216535 -0.00958651 -0.00345255)
(0.0217668 -0.00616224 -0.00344767)
(0.0202306 0.00544563 -0.00274021)
(0.0219368 0.000791858 -0.0031836)
(0.0211089 0.00387654 -0.00303547)
(0.0138028 0.00970597 -0.00185051)
(0.0137686 0.00756714 -0.0016683)
(0.0136651 0.00626158 -0.00159274)
(0.013663 0.00874054 -0.0017628)
(0.0135521 -0.00580789 -0.00101549)
(0.0134425 -0.00429149 -0.000980661)
(0.0134362 -0.00109408 -0.00113347)
(0.0134806 -0.00268783 -0.00113378)
(0.0139185 0.00761821 -0.00166582)
(0.0137582 0.00518827 -0.00145141)
(0.0137836 0.00636047 -0.00156958)
(0.0136778 0.0036201 -0.00137187)
(0.0135671 -0.00259021 -0.00129488)
(0.0134583 0.00183809 -0.00138829)
(0.013499 -0.00115526 -0.00126727)
(0.0133934 0.000346846 -0.00138599)
(0.0139529 0.0102258 -0.00209251)
(0.01305 0.00844598 -0.00187965)
(0.00991641 0.0076084 -0.00134661)
(0.0132048 0.00870615 -0.00200745)
(0.0142872 0.00919826 -0.00190911)
(0.013571 0.00773039 -0.00174229)
(0.0131878 0.00803025 -0.00178725)
(0.0101118 0.00777486 -0.00121311)
(0.0190778 0.00961713 -0.00322997)
(0.0203454 0.00742591 -0.00342506)
(0.0208559 0.00609726 -0.0036351)
(0.0200693 0.00861495 -0.00353081)
(0.0214804 -0.00450165 -0.00348791)
(0.0214702 -0.00129326 -0.00350375)
(0.0211918 -0.00288502 -0.0035454)
(0.0210724 -0.00601461 -0.00348897)
(0.0208233 0.00504111 -0.00315372)
(0.0195347 0.00753072 -0.00296429)
(0.0205718 0.00621493 -0.0032872)
(0.0213462 0.00344122 -0.0033879)
(0.020991 0.00165721 -0.0036929)
(0.0209676 -0.0013442 -0.00362877)
(0.0206253 0.000174411 -0.00368377)
(0.0205937 -0.00276894 -0.00361606)
(0.0138585 0.00882418 -0.00207929)
(0.0142521 0.00847464 -0.00212826)
(0.0148269 0.00897682 -0.00226944)
(0.0135918 0.00773198 -0.00185831)
(0.0145385 0.00773612 -0.00206083)
(0.0144894 0.00560799 -0.00197525)
(0.0152078 0.00776788 -0.00225962)
(0.0133466 0.000769089 -0.00160874)
(0.0143412 0.00215822 -0.00185591)
(0.0150813 0.00070462 -0.00206518)
(0.0145503 -0.00151703 -0.00181402)
(0.0155146 0.00891125 -0.00252268)
(0.0158141 0.00902323 -0.00256826)
(0.0161242 0.00857904 -0.00264952)
(0.0184384 0.00771673 -0.00318601)
(0.017865 0.00776181 -0.00298045)
(0.0180013 0.00782289 -0.00306007)
(0.0187817 0.00566065 -0.00319417)
(0.0185962 0.000697753 -0.00318538)
(0.017967 0.000676421 -0.00291906)
(0.0188443 0.00215074 -0.00318069)
(0.0185992 -0.00147936 -0.00308954)
(0.0149707 0.0122512 -0.00219677)
(0.0163655 0.0128667 -0.00259732)
(0.018455 0.0121523 -0.00307839)
(0.0111345 0.00915765 -0.00162326)
(0.0109506 0.0085804 -0.00168153)
(0.0130191 0.0096155 -0.00184469)
(0.0135807 0.00914054 -0.00197429)
(0.015257 0.0117675 -0.00243595)
(0.0136308 0.0103521 -0.00216348)
(0.0144976 0.0103037 -0.00230907)
(0.0150112 0.0102281 -0.00240609)
(0.0134237 0.00987042 -0.00183774)
(0.0195902 0.00971251 -0.00349241)
(0.0165602 0.00920473 -0.00266564)
(0.0142893 0.00905906 -0.00231508)
(0.0126501 0.00854806 -0.00197531)
(0.0177657 0.00960487 -0.00305981)
(0.0166727 0.00917403 -0.0028248)
(0.0149459 0.00935852 -0.00229708)
(0.0155519 0.00974503 -0.00249534)
(0.0163869 0.00933643 -0.00263491)
(0.0166235 0.00938339 -0.00275869)
(0.0135548 -0.00874069 -0.000914887)
(0.0134877 -0.010605 -0.00073986)
(0.0134907 -0.0075274 -0.000847507)
(0.0209732 -0.0108264 -0.00338339)
(0.0213566 -0.00775115 -0.00345901)
(0.0207003 -0.00897809 -0.00338702)
(0.0151002 0.00841864 -0.0017206)
(0.0169857 0.0093462 -0.00209616)
(0.0191862 0.0083209 -0.00249155)
(0.0150804 0.0101942 -0.00199842)
(0.0166089 0.0110006 -0.00235668)
(0.0187862 0.0100919 -0.0027819)
(0.00923596 0.00784346 -0.00120646)
(0.0112814 0.0078495 -0.00140495)
(0.0114706 0.00731465 -0.0013149)
(0.0139546 0.0065883 -0.00154632)
(0.0141935 0.00856035 -0.00186312)
(0.0159348 0.00956765 -0.00215229)
(0.0166025 0.00854373 -0.00208954)
(0.0148253 0.0085515 -0.00185842)
(0.0151403 0.00723838 -0.00194338)
(0.0105063 0.00776539 -0.00118517)
(0.0198414 0.00651179 -0.00284044)
(0.0146529 0.00777229 -0.00199624)
(0.013989 0.00127268 -0.0017723)
(0.0186415 0.00116413 -0.00319442)
(0.0163663 0.00109584 -0.00248737)
(0.0135216 -0.00378863 -0.00133825)
(0.0124952 -0.000793678 -0.00138432)
(0.01377 -0.00320651 -0.00160224)
(0.0184112 -0.000920098 -0.00319433)
(0.0199124 -0.00395718 -0.00351293)
(0.0181917 -0.00316015 -0.00306008)
(0.0164308 -0.00112511 -0.00245008)
(0.015159 -0.00327281 -0.00201875)
(0.0176118 -0.00325356 -0.00278594)
(0.0136877 0.00493765 -0.00148813)
(0.0135343 0.00339016 -0.00142119)
(0.013526 0.00199554 -0.0013039)
(0.0134605 0.000392161 -0.00126827)
(0.0210821 0.0047636 -0.00351069)
(0.0211348 0.00320675 -0.00363153)
(0.0213725 0.00180251 -0.00351851)
(0.0212103 0.000198202 -0.00359264)
(0.00873573 0.00788473 -0.00129155)
(0.0111322 0.00877841 -0.00155057)
(0.0111844 0.00831885 -0.0014822)
(0.0139084 0.00865965 -0.00176721)
(0.0134297 0.0098461 -0.00200077)
(0.015452 0.0111462 -0.00234632)
(0.0155615 0.0103454 -0.00223364)
(0.0140059 0.00973342 -0.00198332)
(0.00984412 0.0077174 -0.00125195)
(0.0142788 0.00863323 -0.00219326)
(0.0144191 0.00820094 -0.00208682)
(0.0193264 0.00856476 -0.00310559)
(0.0134312 0.00474013 -0.00152957)
(0.0125604 0.00692571 -0.00163592)
(0.0123923 0.0030763 -0.0014579)
(0.0133283 0.00455062 -0.00170451)
(0.0208145 0.00457035 -0.00371185)
(0.0186681 0.00681651 -0.00325127)
(0.0189151 0.00293924 -0.00331147)
(0.0187843 0.00449353 -0.00324368)
(0.0150828 0.00452992 -0.00214803)
(0.01657 0.00652734 -0.00260682)