/*--------------------------------*- C++ -*----------------------------------*\
| =========                 |                                                 |
| \\      /  F ield         | OpenFOAM: The Open Source CFD Toolbox           |
|  \\    /   O peration     | Version:  2012                                  |
|   \\  /    A nd           | Website:  www.openfoam.com                      |
|    \\/     M anipulation  |                                                 |
\*---------------------------------------------------------------------------*/
FoamFile
{
    version     2.0;
    format      ascii;
    class       volVectorField;
    location    "0.108/fluid";
    object      U;
}
// * * * * * * * * * * * * * * * * * * * * * * * * * * * * * * * * * * * * * //

dimensions      [0 1 -1 0 0 0 0];


internalField   nonuniform List<vector> 
16422
(
(1.19923 -0.127783 -0.103696)
(1.18946 -0.142477 -0.114736)
(1.17725 -0.182502 -0.144816)
(1.15959 -0.255211 -0.198677)
(1.13065 -0.373062 -0.284268)
(1.08076 -0.55553 -0.413501)
(0.991472 -0.830652 -0.602521)
(0.82741 -1.23536 -0.870435)
(0.521907 -1.81062 -1.2334)
(-0.0443258 -2.58232 -1.68713)
(-1.06118 -3.51007 -2.16569)
(-2.75749 -4.38167 -2.46633)
(-5.19657 -4.67371 -2.17767)
(-7.75909 -3.61407 -0.823384)
(-8.82128 -1.14951 1.36178)
(1.1974 -0.0987805 -0.0962087)
(1.16396 -0.110015 -0.105565)
(1.1246 -0.140499 -0.130744)
(1.07094 -0.195515 -0.174794)
(0.991701 -0.283758 -0.242383)
(0.870762 -0.418137 -0.339631)
(0.683179 -0.615718 -0.472994)
(0.390566 -0.895621 -0.64645)
(-0.0640769 -1.27157 -0.855158)
(-0.75795 -1.73402 -1.07327)
(-1.77454 -2.21599 -1.2346)
(-3.14861 -2.54846 -1.21451)
(-4.74257 -2.45109 -0.846373)
(-6.10998 -1.67399 -0.0374762)
(-6.64 -0.329181 1.04002)
(1.19621 -0.0505764 -0.0913037)
(1.14735 -0.056306 -0.0995727)
(1.09041 -0.0717416 -0.121603)
(1.01375 -0.0995067 -0.159416)
(0.903056 -0.143727 -0.215732)
(0.739066 -0.210319 -0.293396)
(0.494783 -0.306598 -0.393796)
(0.133836 -0.439556 -0.513926)
(-0.388401 -0.61133 -0.641472)
(-1.11646 -0.810103 -0.748061)
(-2.07189 -0.996223 -0.783244)
(-3.20969 -1.09082 -0.677198)
(-4.36478 -0.98941 -0.366029)
(-5.24318 -0.627272 0.154015)
(-5.53839 -0.0664257 0.781134)
(1.19769 -0.119456 -0.100726)
(1.16804 -0.132274 -0.111339)
(1.13348 -0.166838 -0.140151)
(1.08708 -0.228597 -0.191482)
(1.01939 -0.326344 -0.272326)
(0.916849 -0.472999 -0.392744)
(0.757948 -0.68554 -0.56536)
(0.508128 -0.983249 -0.803034)
(0.112944 -1.38159 -1.11206)
(-0.507731 -1.87698 -1.47657)
(-1.45399 -2.4167 -1.82963)
(-2.80105 -2.85414 -2.01487)
(-4.47453 -2.92065 -1.77669)
(-6.06277 -2.31501 -0.884292)
(-6.85167 -1.02094 0.54068)
(1.19609 -0.0923908 -0.0935048)
(1.14587 -0.102209 -0.102517)
(1.08825 -0.128599 -0.126707)
(1.01236 -0.1755 -0.168862)
(0.90532 -0.249088 -0.23311)
(0.750129 -0.358006 -0.324615)
(0.523025 -0.512665 -0.448275)
(0.191423 -0.722831 -0.605809)
(-0.286853 -0.991601 -0.789994)
(-0.959205 -1.30361 -0.975026)
(-1.8615 -1.60678 -1.10409)
(-2.97785 -1.79506 -1.08247)
(-4.17563 -1.71822 -0.798371)
(-5.16212 -1.26023 -0.198383)
(-5.57994 -0.473155 0.614843)
(1.19504 -0.0473217 -0.0887725)
(1.13139 -0.0523406 -0.0967516)
(1.0588 -0.0657187 -0.117966)
(0.963994 -0.0894424 -0.15427)
(0.83215 -0.126453 -0.20808)
(0.644665 -0.180737 -0.281758)
(0.37752 -0.256773 -0.376065)
(0.00133003 -0.357993 -0.487443)
(-0.515584 -0.483506 -0.603726)
(-1.19827 -0.622328 -0.699021)
(-2.0465 -0.746157 -0.7302)
(-3.00625 -0.805565 -0.641385)
(-3.94241 -0.740993 -0.384889)
(-4.64536 -0.517977 0.0409284)
(-4.90567 -0.169013 0.562458)
(1.19635 -0.112229 -0.077927)
(1.14954 -0.123442 -0.0860655)
(1.09582 -0.153366 -0.108083)
(1.02509 -0.205909 -0.147124)
(0.925235 -0.286971 -0.208149)
(0.780298 -0.404515 -0.29796)
(0.567795 -0.567625 -0.424431)
(0.256569 -0.784051 -0.594128)
(-0.194349 -1.05484 -0.806725)
(-0.832397 -1.3645 -1.04422)
(-1.69707 -1.66646 -1.25504)
(-2.78362 -1.86961 -1.33991)
(-3.98091 -1.84418 -1.16329)
(-5.01999 -1.47878 -0.626753)
(-5.53608 -0.790307 0.207431)
(1.19495 -0.0868425 -0.0723757)
(1.1302 -0.0954497 -0.0793033)
(1.05686 -0.118353 -0.0978328)
(0.96205 -0.158404 -0.130011)
(0.831697 -0.21977 -0.178773)
(0.648496 -0.307823 -0.247609)
(0.390332 -0.428124 -0.339429)
(0.0302824 -0.584124 -0.454238)
(-0.461144 -0.772797 -0.58496)
(-1.1088 -0.977585 -0.711272)
(-1.91739 -1.1602 -0.793176)
(-2.84518 -1.2566 -0.770512)
(-3.77449 -1.18968 -0.579716)
(-4.50721 -0.909782 -0.195639)
(-4.82662 -0.448381 0.32317)
(1.19403 -0.0444944 -0.0687358)
(1.11754 -0.0489024 -0.0748798)
(1.03144 -0.0605305 -0.0911617)
(0.921093 -0.0808372 -0.118954)
(0.771354 -0.111818 -0.159978)
(0.564384 -0.155958 -0.215797)
(0.278901 -0.215633 -0.286628)
(-0.108447 -0.291831 -0.369263)
(-0.618885 -0.381889 -0.454181)
(-1.26282 -0.476163 -0.522259)
(-2.02552 -0.55486 -0.543368)
(-2.84957 -0.587888 -0.48059)
(-3.62366 -0.542844 -0.304467)
(-4.19528 -0.403279 -0.0153271)
(-4.42013 -0.187906 0.340627)
(1.19548 -0.107487 -0.0399223)
(1.13745 -0.11766 -0.0440813)
(1.07128 -0.144586 -0.0552535)
(0.984895 -0.191224 -0.0750212)
(0.864685 -0.261716 -0.105766)
(0.693548 -0.361118 -0.150663)
(0.449158 -0.494112 -0.213142)
(0.103676 -0.662544 -0.29554)
(-0.374008 -0.861136 -0.396207)
(-1.01114 -1.07143 -0.504531)
(-1.81535 -1.25556 -0.594736)
(-2.74856 -1.35471 -0.622516)
(-3.69806 -1.30115 -0.533991)
(-4.47062 -1.05101 -0.296272)
(-4.84665 -0.627093 0.0613673)
(1.1942 -0.0832002 -0.0370903)
(1.11994 -0.0910213 -0.0406387)
(1.03636 -0.11167 -0.0500527)
(0.929311 -0.147322 -0.0663842)
(0.784086 -0.200917 -0.0910404)
(0.583376 -0.275886 -0.125648)
(0.306448 -0.375036 -0.171403)
(-0.0696504 -0.49852 -0.227907)
(-0.566196 -0.640569 -0.291098)
(-1.19477 -0.785433 -0.350479)
(-1.94378 -0.903927 -0.386808)
(-2.76122 -0.954575 -0.372969)
(-3.5422 -0.894532 -0.282403)
(-4.1379 -0.701968 -0.106344)
(-4.40043 -0.399642 0.12931)
(1.19337 -0.0426378 -0.0352329)
(1.10847 -0.0466503 -0.0383869)
(1.01354 -0.0571459 -0.0466678)
(0.893099 -0.0752572 -0.060802)
(0.731864 -0.102393 -0.0816069)
(0.51258 -0.140142 -0.109802)
(0.215842 -0.189681 -0.145354)
(-0.177766 -0.250676 -0.186513)
(-0.682941 -0.319694 -0.22833)
(-1.30151 -0.388276 -0.261321)
(-2.01105 -0.441676 -0.270967)
(-2.75372 -0.460098 -0.240258)
(-3.43294 -0.424589 -0.156162)
(-3.92777 -0.327279 -0.0193629)
(-4.12936 -0.180674 0.149169)
(-10.2642 -1.28512 1.89352)
(-9.93246 0.975842 3.50034)
(-9.52743 -1.42038 1.42623)
(-9.59191 0.766108 3.28105)
(-7.78515 -1.28295 0.602024)
(-7.61993 0.270829 2.01355)
(-8.97936 -4.85757 -1.13781)
(-10.3639 -2.27177 1.12779)
(-9.43199 -1.04267 1.71397)
(-9.15163 1.08581 3.22645)
(-7.43034 -0.361006 1.28209)
(-7.04095 1.09789 2.20573)
(-8.31403 -4.33336 -1.24481)
(-9.55339 -2.21647 0.750654)
(-6.74853 -2.9929 -1.24771)
(-7.67555 -1.77458 0.118389)
(-11.9386 -1.70827 1.74838)
(-10.7554 -1.77907 1.10297)
(-8.60822 0.788632 2.83138)
(-7.07257 -0.464088 1.12419)
(-6.73773 0.836755 2.02496)
(-7.28566 -1.07818 0.672329)
(-7.07413 0.268215 1.89948)
(-6.1118 -0.581272 0.722746)
(-5.89265 0.307315 1.48717)
(-7.28128 -1.20188 0.470669)
(-7.08942 0.103474 1.79674)
(-6.06287 -0.960364 0.203891)
(-5.93376 -0.184904 1.10511)
(-13.4572 -1.55526 2.55679)
(-11.2724 -1.32382 2.18785)
(-10.0309 -0.72995 2.56497)
(-10.0233 -0.371687 2.66087)
(-10.2958 -1.53876 1.55413)
(-9.41625 -0.942946 2.03356)
(-8.88225 -1.43179 1.04904)
(-9.52839 -1.59992 1.03204)
(-8.84647 -0.961252 1.5653)
(-9.57438 -0.449826 2.41673)
(-8.59501 0.582955 2.65411)
(-8.85368 -0.527573 1.7631)
(-10.3049 -0.354521 -0.839724)
(-9.0574 -1.77754 0.435251)
(-9.86932 -1.81176 0.704702)
(-9.15266 -1.05437 1.10113)
(-11.2392 -0.255873 -0.280098)
(-8.92879 0.34265 2.66157)
(-10.7667 2.96488 0.330153)
(-9.13287 -0.332217 1.83137)
(-10.1353 -0.521698 -0.745204)
(-8.31677 -1.35997 0.780824)
(-8.36104 -1.49991 0.516739)
(-7.80707 -0.783981 1.06413)
(-8.94586 -1.53813 0.718476)
(-8.32194 -0.823327 1.26462)
(-8.42066 -0.90218 1.01347)
(-11.0409 -0.264758 -0.224584)
(-8.27462 0.461302 2.45849)
(-8.23826 0.339652 2.18264)
(-7.77446 -0.264849 1.50604)
(-10.5915 1.84314 0.247112)
(-8.43073 -0.391077 1.64241)
(-8.39441 -0.286419 1.55835)
(-11.1326 -0.398156 2.00713)
(-11.231 0.554339 1.99056)
(-9.83277 -0.70924 1.15169)
(-11.9125 1.10992 2.76037)
(-9.8326 -0.387609 1.75685)
(-10.8873 -0.577679 1.60541)
(-12.1611 -0.0551457 2.47881)
(-13.738 1.85079 3.94122)
(-10.9851 0.194473 2.6834)
(-12.5538 0.0561857 2.93606)
(-12.8569 1.47347 3.16818)
(-10.6625 -0.170249 2.10496)
(-14.8785 2.23954 4.32953)
(-12.1066 0.482788 3.0177)
(-13.8706 0.4622 3.48205)
(-9.9338 -0.326198 2.65755)
(-10.1599 -1.56945 2.72013)
(-10.5736 -0.955166 2.40213)
(-10.985 0.876911 3.74987)
(-11.2129 -0.0250457 3.23535)
(-10.5824 -1.79783 2.7263)
(-11.2615 -0.526849 3.10057)
(-9.35176 -1.28343 1.45195)
(-8.83217 -1.11263 1.04912)
(-9.18159 -1.64591 1.22499)
(-8.68507 -1.01895 1.55355)
(-9.33781 -1.86996 1.70493)
(-9.29884 -1.30044 1.15348)
(-9.82589 -1.2895 1.7533)
(-9.26552 -0.617385 2.36271)
(-9.83987 -1.7826 2.44293)
(-9.1658 -0.872891 1.88383)
(-9.9816 -1.10808 2.08109)
(-9.63197 -1.84504 2.02784)
(-10.3975 -0.590953 2.4526)
(-9.49939 -1.5204 1.32568)
(-9.80526 -1.82447 1.88201)
(-9.70352 -0.44924 2.01846)
(-10.51 -0.0930689 2.71556)
(-10.7802 0.807017 3.67736)
(-11.0432 -0.0520068 3.17703)
(-10.1915 0.744489 3.274)
(-10.5953 -0.576028 2.55127)
(-10.3268 -1.84084 2.57393)
(-11.097 -0.575741 3.00977)
(-10.065 -1.89553 2.08067)
(-10.3074 -0.0980502 2.6558)
(-9.38718 0.641412 2.8979)
(-9.6211 -0.0870696 2.25528)
(-9.98005 0.68055 3.21221)
(-10.1185 -1.13276 1.28843)
(-10.6126 -0.330381 1.74894)
(-9.7984 -0.967652 1.0425)
(-9.6804 -0.612927 1.2473)
(-10.2226 -0.99806 1.35308)
(-10.2085 -0.748152 1.468)
(-9.79362 -1.17676 1.04687)
(-10.2975 0.23294 2.43068)
(-11.5674 1.31098 0.0904901)
(-9.73509 -0.135202 1.63087)
(-10.3076 -0.201864 2.07772)
(-9.77073 0.373356 1.99173)
(-10.2508 0.680369 3.25569)
(-11.4865 1.53235 0.112219)
(-9.6106 1.29795 3.03587)
(-9.71637 0.850717 2.62741)
(-9.99105 1.01631 3.66284)
(-8.98165 -1.08165 1.00174)
(-9.00464 -1.05152 0.944336)
(-9.03981 -1.03295 1.11753)
(-9.15969 -0.768741 1.04933)
(-9.01661 -1.07473 1.03325)
(-9.08742 -1.12244 1.02685)
(-8.88513 -0.86849 1.14065)
(-8.85534 -0.162808 1.63855)
(-11.3731 0.720328 0.0561878)
(-9.32877 -0.957267 1.27777)
(-9.22208 -0.357332 1.35493)
(-9.49585 -0.395717 1.88802)
(-9.25701 0.0500771 1.52377)
(-8.85065 -0.526737 1.414)
(-8.81072 0.194703 2.07673)
(-11.2934 0.855659 0.0716487)
(-9.2695 0.514833 2.6971)
(-9.13164 0.85846 2.26561)
(-9.43995 -0.0935867 2.13301)
(-9.21145 0.471979 2.03779)
(-8.71611 0.572057 2.35948)
(-9.6471 1.02541 1.49809)
(-9.58556 2.76716 0.792789)
(-8.02888 0.173427 0.343557)
(-9.75665 3.42582 1.76934)
(-7.75292 0.461603 1.23782)
(-9.74803 0.660711 1.07092)
(-11.297 2.40983 3.12188)
(-12.5326 5.52543 3.91795)
(-9.01253 2.17691 3.12991)
(-11.4359 2.55917 3.274)
(-12.0742 5.21119 3.45013)
(-8.91093 1.85806 2.74455)
(-13.3438 -1.30059 8.12002)
(-12.4799 -1.20083 7.5531)
(-10.2674 0.160842 8.82503)
(-11.777 -1.03099 7.17714)
(-12.4372 3.10633 3.81305)
(-13.1697 5.95167 3.96592)
(-9.68407 2.50656 3.14492)
(-12.2572 2.95638 3.55278)
(-13.6878 6.29341 4.52294)
(-9.83522 2.85239 3.64797)
(-15.7188 -0.806029 8.15537)
(-14.865 -1.33783 8.36068)
(-15.9325 -1.43812 8.99713)
(-14.6114 -0.734154 7.53824)
(-20.438 4.49734 5.70441)
(-13.6102 4.84943 4.36177)
(-14.221 5.09842 4.82535)
(-19.4276 4.25258 5.0321)
(-9.31474 -0.918672 2.93208)
(-7.90285 0.0318807 2.8304)
(-8.63453 -2.66373 2.80969)
(-7.84666 0.308743 3.27043)
(-8.60269 -2.5355 3.10502)
(-9.29314 -1.09033 2.73307)
(-11.9245 0.602699 3.56451)
(-12.475 1.10837 3.79713)
(-13.0101 1.15222 3.92682)
(-11.514 0.578261 3.42636)
(-13.5907 -3.04805 3.00967)
(-8.65766 -2.74056 2.80829)
(-8.55552 -2.6314 3.03212)
(-13.5088 -3.03286 2.64177)
(-12.8133 -1.23497 8.25305)
(-13.713 -1.33405 8.90068)
(-11.2245 1.1294 3.78492)
(-11.7176 1.18163 3.92931)
(-14.9272 3.14065 3.08004)
(-9.75926 2.70048 0.935185)
(-10.137 2.94809 2.04573)
(-12.4995 2.29483 1.95519)
(-14.083 -0.699997 6.84835)
(-15.3949 -1.38613 8.19458)
(-14.3727 -1.28637 7.64474)
(-15.1262 -0.772687 7.3826)
(-18.1631 3.94704 4.42447)
(-13.0802 4.51538 4.18137)
(-12.5392 4.29578 3.8091)
(-19.0997 4.16955 5.03105)
(-12.9793 -0.585855 6.24389)
(-11.3872 0.0317407 8.94538)
(-13.2662 -1.09113 7.23374)
(-11.395 0.127484 7.67234)
(-8.58294 -1.81823 1.06534)
(-7.618 -1.24502 0.28167)
(-8.44828 -2.78802 0.300012)
(-7.3063 -1.26397 1.0712)
(-8.31618 -3.0977 1.05217)
(-8.77967 -1.6364 0.690361)
(-8.96359 -1.42693 2.40396)
(-7.55023 -0.240864 2.80548)
(-8.55124 -2.82442 2.69733)
(-7.61518 -0.457117 2.47351)
(-8.97014 -1.29571 2.5159)
(-8.56878 -2.91944 2.4576)
(-12.2524 -2.69776 1.48502)
(-8.59489 -2.71295 0.24255)
(-8.43742 -2.77144 1.12479)
(-10.8283 -2.08779 0.50675)
(-11.2702 0.560702 3.15402)
(-12.6363 1.11891 3.66958)
(-11.6706 0.589197 3.30791)
(-12.1184 1.07329 3.51645)
(-13.3027 -2.99396 2.3441)
(-8.59467 -2.7739 2.6465)
(-13.4086 -3.01687 2.69332)
(-8.67653 -2.86024 2.4741)
(-10.6988 0.516052 2.65014)
(-10.2057 0.908262 3.1133)
(-9.79322 0.460588 2.74348)
(-11.3695 0.980259 3.01844)
(-10.057 -0.416922 1.12146)
(-10.3321 0.510885 0.78338)
(-9.8483 -0.412466 0.473438)
(-9.96937 -0.281917 0.778416)
(-10.0513 -0.218643 0.995644)
(-10.2592 -0.0106109 1.05314)
(-9.83232 -0.629396 0.844921)
(-10.5339 0.527803 1.42697)
(-10.8914 0.719784 0.809492)
(-11.5993 0.483985 0.125377)
(-9.98906 -0.0706266 0.962792)
(-11.2449 1.65079 1.95408)
(-10.3823 0.266448 1.25495)
(-10.0745 0.225774 1.19723)
(-10.5733 2.31741 3.26063)
(-11.0642 2.33203 0.229796)
(-10.7164 6.16195 7.53334)
(-10.0344 2.18383 2.44672)
(-10.8523 5.2632 6.51493)
(-10.0353 1.88332 2.22574)
(-10.4434 2.56145 3.52019)
(-9.32107 -1.03015 0.820447)
(-9.29681 -0.907398 0.382887)
(-9.41725 -1.23425 0.281031)
(-9.62878 -0.692392 0.606686)
(-9.28997 -1.09976 0.663461)
(-9.32267 -0.902827 0.76031)
(-9.45232 -1.01044 0.712137)
(-9.59519 -0.478476 0.935635)
(-11.4615 0.101951 0.111226)
(-9.82047 -1.20527 0.189263)
(-9.67499 -0.351509 0.794927)
(-9.85047 -0.872787 0.595321)
(-9.75525 -0.0782011 0.94421)
(-9.47897 -0.740433 0.820128)
(-9.58802 0.504064 1.93394)
(-10.8813 1.40203 0.167008)
(-9.65851 -0.493221 2.79663)
(-9.69315 1.40892 1.79262)
(-9.65186 -0.685207 2.45281)
(-9.70163 1.17824 1.6647)
(-9.55382 0.72693 2.09896)
(-11.3896 1.1463 3.67705)
(-10.917 1.09295 3.50556)
(-9.37613 0.981665 3.03253)
(-10.3274 1.00738 2.99951)
(-10.3669 6.24603 7.71514)
(-9.58077 -0.323419 2.86955)
(-9.86957 1.45429 1.96705)
(-10.5882 4.18539 2.73752)
(-7.90805 1.0232 2.0968)
(-9.99651 1.58836 2.20812)
(-10.1882 3.89371 2.16613)
(-7.8234 0.766795 1.59101)
(-10.7833 2.02608 2.76214)
(-11.1264 4.54694 2.84862)
(-8.40161 1.27681 2.18055)
(-10.613 1.91422 2.52312)
(-11.5655 4.8296 3.37235)
(-8.52879 1.53767 2.65839)
(-12.0689 -1.15257 7.01506)
(-12.9467 -1.25851 7.46997)
(-12.4756 -1.19508 7.01771)
(-11.4553 -1.03601 6.902)
(-18.4644 -0.648079 8.18871)
(-16.3638 0.492732 6.64192)
(-17.4149 0.507792 7.2429)
(-17.2665 -0.606659 7.59484)
(-19.0743 3.58177 6.07823)
(-19.1399 1.12826 6.52398)
(-20.2843 1.19575 7.09763)
(-18.1192 3.40088 5.34528)
(-13.6093 0.452186 3.56441)
(-11.9422 -0.351311 3.10738)
(-12.1717 -0.352098 3.30326)
(-13.1852 0.440711 3.42801)
(-12.6053 -2.41889 3.11126)
(-13.7853 -0.821397 3.05829)
(-14.0301 -0.83437 3.25328)
(-12.5478 -2.40381 2.71872)
(-15.51 3.30217 3.13925)
(-11.0784 3.50937 2.96807)
(-10.5432 3.33693 2.52492)
(-16.5087 3.54426 3.79989)
(-14.0987 2.49494 3.55971)
(-13.1682 0.816546 5.00598)
(-15.3998 0.915363 4.67023)
(-11.9968 1.82716 2.87839)
(-14.6525 2.64265 3.53892)
(-16.9245 0.998442 5.07417)
(-15.5713 2.82507 4.16538)
(-15.7998 0.940218 4.72737)
(-16.5147 -0.572336 6.88627)
(-16.5675 0.481689 6.49271)
(-17.6451 -0.614745 7.39444)
(-15.5964 0.472176 5.96784)
(-14.5229 -0.733185 6.72906)
(-13.8054 -1.22493 7.10109)
(-14.8302 -1.32734 7.52764)
(-13.4918 -0.662827 6.3041)
(-16.82 -0.576709 6.72062)
(-14.7762 0.448531 5.38815)
(-15.7347 0.459481 5.84242)
(-15.6948 -0.537364 6.32079)
(-17.8264 3.85897 4.42671)
(-11.5411 3.80165 3.20408)
(-12.0811 3.99901 3.61926)
(-16.9045 3.64195 3.80715)
(-17.0192 3.16207 4.72746)
(-19.1808 1.13049 6.33546)
(-17.8942 3.32646 5.3856)
(-18.1198 1.07061 5.83176)
(-16.7656 3.08164 4.7714)
(-17.0553 1.00816 5.21172)
(-15.9072 2.91961 4.12523)
(-18.0983 1.06853 5.66898)
(-14.7187 -0.446496 6.13813)
(-12.0199 0.51264 5.63724)
(-13.654 0.411625 4.99797)
(-12.6372 0.117477 7.44157)
(-12.7021 -0.587034 6.10587)
(-14.1859 -1.25262 7.06855)
(-13.0136 -1.10778 6.9998)
(-13.8525 -0.6881 6.25049)
(-14.6607 -0.474459 6.0761)
(-14.8147 0.431483 5.29414)
(-13.7862 0.434799 4.99076)
(-15.907 -0.535362 6.21411)
(-8.53259 -1.8662 1.45494)
(-7.21147 -1.05475 1.86481)
(-8.40292 -3.16175 1.84407)
(-7.24087 -1.18391 1.42318)
(-8.5456 -1.79603 1.668)
(-8.37466 -3.18642 1.46124)
(-8.82508 -1.58549 2.13257)
(-7.47104 -0.892867 1.97948)
(-8.51316 -3.10233 2.0137)
(-7.45019 -0.69851 2.38764)
(-8.78584 -1.71042 1.9345)
(-8.53039 -3.03238 2.32745)
(-12.5682 -2.80169 1.53297)
(-8.54374 -2.89347 1.84771)
(-8.53557 -2.94892 1.55114)
(-12.8395 -2.8803 2.01006)
(-11.4072 -2.09874 1.72073)
(-11.1639 -0.615856 1.82244)
(-12.3397 -0.719231 2.07771)
(-10.2961 -1.63777 0.945674)
(-11.7385 -2.193 1.7012)
(-13.0059 -0.76853 2.3869)
(-11.9479 -2.25285 2.16277)
(-12.6361 -0.750136 2.15406)
(-12.8635 0.426916 3.15641)
(-11.9679 -0.346221 3.02954)
(-13.2814 0.441259 3.30052)
(-11.7393 -0.34877 2.83144)
(-11.4132 0.57126 3.05132)
(-11.7531 1.03868 3.2316)
(-11.0024 0.544935 2.88166)
(-12.2689 1.08494 3.41099)
(-12.9452 0.426864 3.03883)
(-11.4777 -0.339651 2.54768)
(-11.7445 -0.341682 2.7574)
(-12.5054 0.415174 2.88711)
(-13.1841 -2.96767 2.38148)
(-8.64993 -2.93516 2.06242)
(-8.62396 -2.86806 2.30215)
(-13.0172 -2.92591 1.99588)
(-12.3772 -2.36396 2.42927)
(-13.7432 -0.817864 2.96914)
(-12.4508 -2.38301 2.80804)
(-13.4948 -0.805926 2.77386)
(-12.2583 -2.33466 2.50765)
(-13.1375 -0.781869 2.4724)
(-12.1306 -2.30024 2.10262)
(-13.4281 -0.799647 2.68677)
(-11.9881 0.385721 2.6144)
(-10.1663 -0.275657 2.09567)
(-10.9494 -0.305257 2.23247)
(-10.8183 0.327618 2.7018)
(-10.6246 0.509476 2.67416)
(-11.8852 1.04791 3.15502)
(-11.1224 0.554032 2.80506)
(-11.3003 0.978515 3.02625)
(-12.0269 0.38963 2.66882)
(-11.4348 -0.326491 2.48086)
(-11.0954 -0.333277 2.2721)
(-12.5541 0.414312 2.78821)
(-10.6394 0.899352 1.89551)
(-11.7152 0.707225 0.094952)
(-11.1321 3.37338 4.44867)
(-10.1224 0.932085 1.53953)
(-11.0221 2.02712 2.75009)
(-10.6206 1.27851 2.1493)
(-10.0484 0.572295 1.41275)
(-10.5929 1.99351 2.83777)
(-11.1731 2.13213 0.200349)
(-11.0455 3.82311 4.97027)
(-10.0665 1.25041 1.79036)
(-11.1367 4.98848 6.21982)
(-10.6261 1.66275 2.61317)
(-10.1263 1.58215 1.96351)
(-9.63289 -0.264068 1.18643)
(-11.5355 0.275361 0.0721598)
(-9.71175 -0.849389 1.70713)
(-9.78416 0.410337 1.15979)
(-9.67855 -0.831823 0.999626)
(-9.73139 0.174455 1.1179)
(-9.632 -0.0839023 1.3494)
(-9.62534 0.291593 1.72613)
(-10.9844 1.25382 0.143335)
(-9.66054 -0.831993 1.91572)
(-9.73445 0.677983 1.36343)
(-9.74397 -0.794592 2.36214)
(-9.77749 0.917072 1.4477)
(-9.61269 0.0981239 1.58238)
(-10.6026 1.05739 3.21244)
(-11.0758 1.11189 3.42009)
(-10.7537 1.07438 3.15384)
(-10.2157 0.992669 2.98502)
(-6.65572 0.134119 1.67016)
(-5.83579 -0.583146 0.617541)
(-5.64473 0.19157 1.3232)
(-5.8015 -0.844993 0.2683)
(-5.67204 -0.134449 1.04994)
(-5.15373 -0.544847 0.371188)
(-5.02729 -0.0339408 0.885019)
(-10.5338 0.934322 3.64974)
(-9.98278 0.58812 3.19816)
(-10.5713 0.366348 3.34262)
(-9.89949 0.219251 2.84102)
(-10.1692 0.820184 3.40583)
(-9.66178 0.451339 3.01156)
(-9.26853 0.734145 3.05745)
(-9.35369 0.378598 2.7507)
(-10.2309 0.272147 3.08827)
(-9.80507 0.741099 3.15962)
(-9.27799 0.296096 2.74811)
(-8.28786 1.16104 2.85514)
(-8.49297 0.491449 2.44516)
(-6.16515 2.62123 0.292505)
(-7.92367 4.27137 -3.02576)
(-4.96537 0.991649 -1.51335)
(-6.59321 4.4765 -0.595529)
(-4.23534 1.34991 0.417423)
(-6.26299 2.39596 -0.68939)
(-7.77638 5.64337 3.17004)
(-10.2118 8.3329 3.30417)
(-5.03449 4.72725 3.45169)
(-7.80908 5.79658 3.4916)
(-10.1851 8.27974 3.18072)
(-5.04125 4.50177 2.85573)
(-8.74485 0.0649017 2.35194)
(-8.07585 0.568668 2.4727)
(-8.22196 -0.0689236 2.00124)
(-7.58767 0.0901181 1.87075)
(-7.84348 0.854086 2.55074)
(-8.03348 0.252936 2.14521)
(-7.41074 0.621469 2.26287)
(-7.56582 0.402271 2.16412)
(-7.22896 -0.190015 1.48855)
(-7.71802 -0.147077 1.71668)
(-7.16349 -0.0238002 1.62788)
(-6.6191 0.29022 1.76125)
(-7.00055 0.436619 1.99848)
(-6.76902 -0.106173 1.41756)
(-8.34069 6.30919 3.71138)
(-10.8131 8.85688 3.33126)
(-5.41744 5.09776 2.96147)
(-8.24854 6.18965 3.29414)
(-10.8265 8.87412 3.53601)
(-5.4972 5.29676 3.67919)
(-5.28191 -1.80801 3.16244)
(-4.09649 -0.467078 2.7686)
(-7.70741 -5.76509 2.32377)
(-4.02567 -0.210466 3.41631)
(-7.50419 -5.50379 2.61149)
(-5.33585 -1.97823 2.64513)
(-10.0274 -0.00393115 2.94483)
(-10.3304 -0.666068 2.82663)
(-10.5173 -0.264907 3.07222)
(-5.78298 -3.27825 0.118801)
(-5.07008 -1.99887 -1.4126)
(-8.19907 -5.15277 -3.14069)
(-4.56173 -2.27104 0.392883)
(-7.00446 -5.26407 -0.917419)
(-5.98983 -3.06846 -0.911575)
(-5.33107 -2.26688 2.53592)
(-3.91684 -0.618107 3.19445)
(-7.53239 -5.68689 2.42094)
(-4.05276 -0.82692 2.66005)
(-5.22934 -2.14102 2.96637)
(-7.72212 -5.90753 2.20588)
(-9.89984 -0.386597 2.54459)
(-9.68747 -0.150884 2.71732)
(-9.87661 -0.773382 2.48041)
(-9.43766 -0.536831 2.18302)
(-9.42014 -0.17489 2.48255)
(-10.1828 -0.353 2.79919)
(-9.74758 -0.812077 2.28179)
(-9.5379 0.165372 2.60045)
(-8.92923 0.579285 2.85167)
(-9.06144 0.570122 2.7079)
(-8.69688 0.2741 2.34911)
(-9.023 0.306895 2.57461)
(-9.16586 0.146484 2.37553)
(-9.43833 0.650463 2.93146)
(-9.53919 -0.403814 2.27909)
(-9.09774 -0.722945 1.75236)
(-8.99415 -0.499385 1.96622)
(-8.78864 -0.202437 2.07265)
(-9.07429 -0.235454 2.27136)
(-9.29297 -0.809192 1.95068)
(-9.19754 -0.346876 2.04016)
(-9.88737 0.0213646 0.227724)
(-9.82745 0.444818 -1.21629)
(-9.78961 -0.150663 -0.563702)
(-9.33459 -0.0864321 0.632775)
(-9.794 0.105784 -0.561186)
(-10.0288 0.389834 0.00309329)
(-9.69365 -0.259186 0.125372)
(-9.40123 0.197268 0.880481)
(-10.8692 0.2922 -0.0878341)
(-11.0006 0.00649584 0.373491)
(-8.88137 -0.0294245 0.989433)
(-10.8774 0.102317 -0.178113)
(-9.42442 0.2521 0.62854)
(-9.40506 -0.0579668 0.663737)
(-10.1739 3.32252 1.66806)
(-10.8623 2.74454 0.292463)
(-10.752 4.42684 0.522088)
(-10.1265 2.59477 1.46226)
(-10.863 4.13231 0.467765)
(-10.1106 2.40926 1.37366)
(-10.1682 3.51666 1.74941)
(-9.51109 -1.06693 0.0498489)
(-9.48561 -0.978071 -0.580619)
(-9.61646 -1.21272 -1.44371)
(-9.14916 -0.708932 0.574451)
(-9.47355 -1.0405 -0.67825)
(-9.38112 -0.921058 0.0569334)
(-9.63337 -1.14565 -0.149936)
(-9.02938 -0.297062 0.664949)
(-10.8632 -0.135333 0.338954)
(-10.3881 -0.616842 -0.129717)
(-8.79344 -0.373707 0.861979)
(-10.4235 -0.12017 -0.208703)
(-9.27878 -0.077671 0.551269)
(-9.01295 -0.62321 0.462838)
(-8.41225 0.188172 2.12112)
(-7.96375 0.488722 2.32502)
(-8.69658 0.496615 2.49518)
(-8.37512 0.240397 2.20148)
(-8.08024 0.227037 2.08778)
(-8.78409 0.134685 2.18069)
(-8.30428 0.49176 2.30547)
(-9.70026 0.872457 1.08695)
(-10.6893 1.7011 0.216974)
(-10.2859 0.793362 0.273669)
(-9.93771 1.78951 1.12197)
(-10.3787 0.694069 0.240381)
(-9.93931 1.64656 1.07455)
(-9.71004 0.993057 1.16068)
(-8.47318 -0.164162 1.72926)
(-8.62283 -0.587224 1.5646)
(-8.4493 -0.194163 1.9024)
(-8.35264 -0.375479 1.57093)
(-8.20552 -0.129602 1.78128)
(-8.79741 -0.267187 1.84753)
(-8.4575 -0.460109 1.58044)
(-10.6769 4.78622 0.593758)
(-10.2057 0.840919 0.328215)
(-6.42009 3.90271 2.05492)
(-8.18174 6.41455 2.05813)
(-3.99239 2.74006 2.41331)
(-6.44848 4.00599 2.36907)
(-8.2104 6.43837 1.835)
(-4.02243 2.579 1.80848)
(-6.86178 4.40455 2.64101)
(-8.71493 6.9024 2.14601)
(-4.28496 3.03055 1.99963)
(-6.78272 4.32641 2.27329)
(-8.68483 6.86108 2.37234)
(-4.33887 3.17123 2.68413)
(-16.4066 -0.543852 8.65021)
(-15.0485 -0.807087 8.60069)
(-15.432 -0.806892 9.0531)
(-15.9559 -0.549506 8.2005)
(-17.2886 -0.12814 8.19628)
(-17.4215 0.414378 7.24138)
(-17.9917 0.457004 7.68045)
(-16.7738 -0.149832 7.75023)
(-17.6169 2.93236 5.80124)
(-16.511 2.84298 4.89273)
(-16.7871 3.0164 5.05785)
(-17.0707 2.75341 5.47788)
(-18.0755 2.05631 6.4382)
(-17.7953 1.12513 6.67102)
(-18.4017 1.20308 7.09775)
(-17.4756 1.92756 6.06662)
(-11.805 0.647223 3.75922)
(-11.4918 0.906999 3.80064)
(-11.1735 0.892112 3.93502)
(-11.0557 0.646071 3.56221)
(-11.2364 0.684595 3.77353)
(-11.7035 0.929871 3.94751)
(-11.6064 0.630025 3.61224)
(-11.8953 0.282047 3.58759)
(-11.3709 0.00712046 3.45145)
(-11.1612 0.258135 3.40319)
(-11.7877 -0.147283 3.27648)
(-11.331 0.269227 3.58987)
(-11.9533 -0.141142 3.43175)
(-11.7119 0.271631 3.43745)
(-11.0028 -1.77272 3.04825)
(-10.693 -1.94126 2.80883)
(-10.5995 -1.73898 2.90947)
(-11.0152 -1.54283 2.84393)
(-10.6836 -1.88212 2.91229)
(-11.1104 -1.5171 3.06092)
(-10.9343 -1.79252 2.89377)
(-11.4101 -1.19875 3.15257)
(-11.4042 -0.51572 3.29747)
(-11.7475 -0.675875 3.12814)
(-11.1381 -0.959291 2.95817)
(-11.8889 -0.672802 3.2897)
(-11.2589 -0.928353 3.18466)
(-11.3069 -1.20528 3.00393)
(-13.8304 1.31971 4.14371)
(-14.7973 0.802724 5.03242)
(-14.4326 1.42063 4.42554)
(-14.1619 0.761435 4.77608)
(-12.7165 1.64381 3.13139)
(-11.8737 1.05964 2.23053)
(-12.2735 1.39133 2.55019)
(-12.0857 1.40036 2.69948)
(-13.4134 1.85236 3.55991)
(-13.2954 1.91413 3.24889)
(-13.0154 1.74616 3.09855)
(-13.944 2.00626 3.84228)
(-13.124 1.22721 3.82323)
(-12.5021 0.935153 4.34481)
(-13.4095 0.756737 4.5653)
(-12.3825 1.17296 3.48366)
(-15.2908 -0.200426 6.67029)
(-15.2213 0.270409 5.8496)
(-15.7811 0.288505 6.17004)
(-14.7733 -0.195061 6.36421)
(-15.09 -0.558567 7.43725)
(-14.6741 -0.809683 8.21469)
(-14.3102 -0.801265 7.83706)
(-15.5167 -0.560764 7.815)
(-14.6545 -0.554992 7.1205)
(-13.5364 -0.749158 7.24737)
(-13.9354 -0.785599 7.52606)
(-14.1933 -0.528558 6.8297)
(-15.7843 -0.187226 6.99135)
(-16.8611 0.36767 6.86652)
(-16.2716 -0.17205 7.36824)
(-16.3234 0.331157 6.49337)
(-15.6381 1.60248 5.03954)
(-15.4306 0.848897 5.2953)
(-15.0722 1.50052 4.7306)
(-16.0171 0.906061 5.62654)
(-15.8076 2.44659 4.83878)
(-15.512 2.64568 4.45582)
(-15.2669 2.45921 4.33945)
(-16.3192 2.60956 5.10505)
(-15.1279 2.28178 4.4583)
(-14.1461 2.11446 3.66406)
(-14.4141 2.2496 3.80626)
(-14.6244 2.14031 4.17808)
(-16.2514 1.71044 5.37729)
(-17.1792 1.05552 6.30941)
(-16.82 1.83161 5.69028)
(-16.6059 0.982042 5.94674)
(-13.661 -0.0979235 5.97785)
(-14.6257 0.260685 5.60803)
(-14.01 0.280852 5.39612)
(-14.2261 -0.168446 6.14649)
(-12.5822 -0.0879463 6.5007)
(-11.3214 0.602273 7.02523)
(-12.1383 -0.182507 7.00031)
(-11.71 0.596505 6.50611)
(-13.2004 -0.363841 6.50413)
(-13.1148 -0.68157 7.07164)
(-12.6792 -0.535922 6.9659)
(-13.7053 -0.47955 6.63535)
(-12.9859 0.0943552 5.91932)
(-12.3597 0.76474 5.16221)
(-13.2835 0.373066 5.26729)
(-12.0749 0.646339 5.88067)
(-5.43232 -3.23149 1.56136)
(-3.90958 -1.90187 2.222)
(-7.59366 -6.09446 1.43242)
(-4.03578 -2.08084 1.70847)
(-5.34895 -3.13009 1.99942)
(-7.78495 -6.30987 1.09078)
(-5.40886 -2.92428 2.25816)
(-4.07078 -1.84363 1.90496)
(-7.82503 -6.28952 1.36929)
(-4.00856 -1.62885 2.48926)
(-5.44968 -3.0632 1.77139)
(-7.63041 -6.04534 1.71105)
(-10.4232 -1.11899 2.03505)
(-10.9118 -0.628634 2.41459)
(-10.3325 -0.977197 2.28412)
(-10.1896 -0.557598 2.28179)
(-10.6018 -1.16271 2.22183)
(-10.7048 -0.601759 2.24637)
(-10.1426 -0.959017 2.06521)
(-9.94894 -1.59195 1.56248)
(-9.60375 -1.57367 1.17281)
(-9.55678 -1.58712 1.49234)
(-9.70073 -1.1909 1.52684)
(-9.74953 -1.77775 1.39238)
(-9.87332 -1.35443 1.71644)
(-9.73055 -1.37878 1.26797)
(-10.1564 -1.71707 1.85357)
(-10.2375 -1.55688 2.08974)
(-9.99699 -1.99869 1.87181)
(-9.7555 -1.8338 1.7283)
(-9.94544 -1.97992 1.75984)
(-10.2983 -1.76381 2.05233)
(-10.0814 -1.51497 1.88151)
(-10.183 -1.04162 1.80033)
(-9.96113 -0.521417 2.16939)
(-10.0483 -0.492434 1.90817)
(-9.69698 -0.750795 1.7597)
(-10.4242 -0.552749 2.0781)
(-9.9183 -0.851366 1.95267)
(-9.91901 -0.887407 1.56889)
(-11.1807 0.257974 3.05307)
(-10.693 -0.0674225 2.91621)
(-11.0947 -0.136708 2.72644)
(-10.4261 0.177416 2.90454)
(-10.6143 0.179957 3.07193)
(-11.2884 -0.139812 2.87936)
(-10.9784 0.253686 2.90969)
(-11.2343 0.604438 3.35529)
(-11.29 0.885449 3.68742)
(-10.8656 0.607857 3.51369)
(-10.5871 0.80991 3.50483)
(-10.6769 0.588705 3.3164)
(-11.4155 0.61619 3.49669)
(-11.1004 0.868297 3.54602)
(-11.3624 0.258539 3.17522)
(-10.872 -0.0644469 2.9762)
(-10.9808 0.205167 3.32464)
(-11.6216 -0.15003 3.155)
(-10.8015 0.21413 3.15218)
(-11.5335 0.262567 3.31939)
(-11.4612 -0.148037 3.00614)
(-11.0457 0.597348 3.23602)
(-10.2919 0.533056 3.08114)
(-10.3808 0.753197 3.43321)
(-10.6963 0.834807 3.29359)
(-10.4813 0.56614 3.26668)
(-10.8395 0.583876 3.09884)
(-10.9055 0.853644 3.42896)
(-10.9264 -1.19718 2.55157)
(-10.7679 -0.578657 2.73895)
(-11.1185 -0.647499 2.54854)
(-10.5261 -0.999197 2.37616)
(-10.7842 -1.18435 2.39088)
(-11.2928 -0.657736 2.71379)
(-10.6782 -0.9822 2.6)
(-10.7168 -1.81374 2.59443)
(-10.4545 -1.99188 2.5863)
(-10.839 -1.58776 2.73966)
(-10.3072 -1.86417 2.43856)
(-10.7972 -1.81255 2.73345)
(-10.4619 -2.01325 2.51819)
(-10.7261 -1.58793 2.55248)
(-11.0644 -1.20699 2.71126)
(-10.9391 -0.565541 2.83215)
(-11.5957 -0.678326 3.0018)
(-10.9807 -0.985914 2.88156)
(-11.1765 -1.21533 2.85164)
(-11.4531 -0.670406 2.8475)
(-10.8405 -0.99559 2.67579)
(-10.5824 -1.80384 2.4089)
(-10.4377 -1.58528 2.22364)
(-10.24 -2.04994 2.13931)
(-10.1045 -1.84584 2.25296)
(-10.2688 -2.01455 2.23397)
(-10.4738 -1.79983 2.24517)
(-10.5629 -1.58142 2.4366)
(-10.5402 0.242254 2.68169)
(-10.876 -0.125086 2.6088)
(-10.0941 -0.101425 2.4791)
(-10.2197 0.13672 2.83148)
(-10.6563 -0.119285 2.46833)
(-10.7566 0.25375 2.80336)
(-10.0101 0.157333 2.69288)
(-10.1441 0.496134 2.79086)
(-9.66745 0.520899 2.90714)
(-9.46914 0.440392 2.70409)
(-9.57874 0.618646 3.01522)
(-9.67453 0.453892 2.836)
(-9.76318 0.341119 2.71472)
(-10.027 0.708124 2.98396)
(-10.2599 0.221766 2.57701)