/*--------------------------------*- C++ -*----------------------------------*\
| =========                 |                                                 |
| \\      /  F ield         | OpenFOAM: The Open Source CFD Toolbox           |
|  \\    /   O peration     | Version:  2012                                  |
|   \\  /    A nd           | Website:  www.openfoam.com                      |
|    \\/     M anipulation  |                                                 |
\*---------------------------------------------------------------------------*/
FoamFile
{
    version     2.0;
    format      ascii;
    class       surfaceVectorField;
    location    "0.108/fluid";
    object      Uf_0;
}
// * * * * * * * * * * * * * * * * * * * * * * * * * * * * * * * * * * * * * //

dimensions      [0 1 -1 0 0 0 0];


internalField   nonuniform List<vector> 
47046
(
(1.19998 2.2624e-05 2.60543e-05)
(1.2 2.66037e-05 3.23702e-05)
(1.19998 2.17344e-05 2.56819e-05)
(1.19998 2.19592e-05 2.59908e-05)
(1.19999 9.54275e-05 0.000116038)
(1.20001 7.9401e-05 9.94474e-05)
(1.20001 0.000106743 0.000126875)
(1.2 9.14518e-05 0.00011499)
(1.2 9.30657e-05 0.000115463)
(1.19981 0.000159993 0.000154379)
(1.20002 0.000152386 0.000151594)
(1.20002 0.000163403 0.000156733)
(1.19982 0.000153763 0.000152198)
(1.19982 0.000156132 0.00015443)
(1.19998 0.000224104 0.000195075)
(1.20003 0.000211089 0.000186962)
(1.20004 0.000231024 0.000200649)
(1.2 0.000216021 0.000191546)
(1.2 0.000218787 0.000194458)
(1.20004 0.000326082 0.000270262)
(1.20006 0.000305822 0.000255837)
(1.20007 0.000336889 0.000279273)
(1.20007 0.000313708 0.00026368)
(1.20007 0.000317207 0.000268254)
(1.20008 0.000482031 0.000391326)
(1.20009 0.000451473 0.000367945)
(1.20011 0.000498202 0.000404773)
(1.20012 0.000463183 0.000379664)
(1.20012 0.000467722 0.000387344)
(1.20012 0.000717617 0.000575978)
(1.20015 0.000671445 0.000539681)
(1.20017 0.000741766 0.000594008)
(1.2002 0.000689198 0.000555537)
(1.20019 0.000694568 0.000568324)
(1.20021 0.00106952 0.000852122)
(1.20025 0.000999116 0.000794338)
(1.20028 0.00110304 0.000876012)
(1.20032 0.00102332 0.000815223)
(1.20031 0.00103001 0.000836249)
(1.20036 0.00158981 0.00126138)
(1.20042 0.0014825 0.00117201)
(1.20048 0.00163469 0.00128886)
(1.20052 0.00151456 0.00119634)
(1.20051 0.00152266 0.00123103)
(1.20064 0.0023363 0.00183493)
(1.20071 0.00217792 0.00170017)
(1.20081 0.0023909 0.00186053)
(1.20087 0.00221611 0.00172263)
(1.20085 0.0022242 0.00177987)
(1.20113 0.00336077 0.00263192)
(1.2012 0.00313395 0.0024281)
(1.20137 0.00341673 0.00264872)
(1.20143 0.00317126 0.00244269)
(1.20141 0.00317685 0.00253255)
(1.20195 0.00470045 0.00354937)
(1.20192 0.00466739 0.00371676)
(1.202 0.00437166 0.00341587)
(1.20224 0.0047272 0.00371296)
(1.20231 0.00440869 0.00340789)
(1.20228 0.00439124 0.00355011)
(1.2028 0.00647384 0.00497032)
(1.20276 0.00630567 0.00526214)
(1.20295 0.00597322 0.00479307)
(1.20312 0.00650864 0.00524759)
(1.20334 0.00608669 0.00474841)
(1.2033 0.00595944 0.00500853)
(1.20171 0.00996911 0.00819827)
(1.2023 0.0107406 0.00734894)
(1.20292 0.00939611 0.00718784)
(1.20248 0.0114264 0.00814235)
(1.20334 0.00955038 0.00780065)
(1.20388 0.00998871 0.00701091)
(1.19821 0.0399292 0.0149255)
(1.20821 0.0332359 0.0110297)
(1.20445 0.0271834 0.0116989)
(1.21483 0.0398776 0.0117592)
(1.20827 0.0284365 0.0143293)
(1.21147 0.0254467 0.010118)
(1.19998 1.7243e-05 2.46488e-05)
(1.2 1.76876e-05 3.08003e-05)
(1.19997 1.46781e-05 2.43644e-05)
(1.19998 1.56355e-05 2.46052e-05)
(1.2 7.15605e-05 0.000112213)
(1.20002 5.38756e-05 9.61153e-05)
(1.20002 7.56259e-05 0.00012254)
(1.20001 6.23621e-05 0.000111321)
(1.20001 6.48559e-05 0.000112014)
(1.19985 0.000122932 0.000146071)
(1.20005 0.000111567 0.000143987)
(1.20006 0.000120617 0.000147967)
(1.19986 0.000109254 0.000144223)
(1.19986 0.000114561 0.000145743)
(1.20005 0.000176571 0.000181756)
(1.2001 0.000160144 0.000174594)
(1.20011 0.000176071 0.00018679)
(1.20007 0.000158685 0.000178924)
(1.20007 0.000166373 0.000181341)
(1.20016 0.000256365 0.000246451)
(1.20016 0.000233106 0.000234485)
(1.20018 0.00025636 0.00025452)
(1.20018 0.000230911 0.000241709)
(1.20018 0.000241713 0.00024521)
(1.20025 0.000376623 0.000348744)
(1.20026 0.000342016 0.000329589)
(1.20029 0.000377137 0.00036042)
(1.20029 0.000339422 0.00034022)
(1.20029 0.000354373 0.00034618)
(1.20039 0.000558611 0.000501698)
(1.2004 0.00050656 0.000472507)
(1.20045 0.000558369 0.000516953)
(1.20045 0.000501832 0.000486717)
(1.20045 0.00052375 0.000496053)
(1.20061 0.000822274 0.000718939)
(1.20062 0.000745648 0.000674987)
(1.20069 0.000820741 0.000737549)
(1.20069 0.000737727 0.000692367)
(1.20069 0.000768131 0.000707896)
(1.20094 0.00120476 0.00102531)
(1.20095 0.00109191 0.000959198)
(1.20106 0.0011995 0.00104457)
(1.20106 0.00107793 0.000978349)
(1.20105 0.00111989 0.0010042)
(1.20145 0.00174505 0.00143179)
(1.20145 0.00158217 0.00133636)
(1.20162 0.00173081 0.00144624)
(1.20161 0.00155699 0.00135212)
(1.20159 0.00161392 0.00139365)
(1.20225 0.00240685 0.00187173)
(1.20221 0.00247197 0.00195405)
(1.20221 0.00224512 0.00181662)
(1.20245 0.00244148 0.0019536)
(1.20243 0.00220051 0.00182082)
(1.2024 0.00227355 0.00188608)
(1.20339 0.00335548 0.0024677)
(1.20334 0.00343173 0.00259879)
(1.20332 0.00311909 0.00240236)
(1.20366 0.00337971 0.00256306)
(1.20362 0.00304649 0.00237779)
(1.20358 0.00313436 0.00248252)
(1.20508 0.00466392 0.00312646)
(1.20495 0.00475776 0.00335108)
(1.20492 0.00430168 0.00306518)
(1.20544 0.00466864 0.00323197)
(1.20534 0.00417728 0.00297465)
(1.20527 0.00428729 0.00315349)
(1.20784 0.00651614 0.00365169)
(1.20767 0.00674607 0.00407685)
(1.20747 0.00596308 0.00366222)
(1.20836 0.00640515 0.00374945)
(1.20815 0.00569482 0.00341008)
(1.20795 0.00584889 0.003749)
(1.21448 0.00802981 0.00364717)
(1.21325 0.00684168 0.00326734)
(1.21225 0.00667785 0.00352218)
(1.21402 0.00578136 0.00314237)
(1.21286 0.00598402 0.00347798)
(1.21353 0.00591922 0.00278825)
(1.19997 7.20862e-06 2.36524e-05)
(1.2 -4.70353e-06 2.96073e-05)
(1.19998 2.07776e-06 2.35217e-05)
(1.19998 9.75707e-07 2.36149e-05)
(1.20002 2.55904e-05 0.000108545)
(1.20003 -3.39051e-06 9.28522e-05)
(1.20004 1.13512e-05 0.000118642)
(1.20003 1.1603e-05 0.000107612)
(1.20002 3.1859e-06 0.000108416)
(1.19988 6.33345e-05 0.000140555)
(1.20008 4.21318e-05 0.000139479)
(1.20009 4.90896e-05 0.000142878)
(1.19989 4.66156e-05 0.000139915)
(1.19988 4.52348e-05 0.00014094)
(1.2001 9.49494e-05 0.000172544)
(1.20014 7.2057e-05 0.000166765)
(1.20016 8.05458e-05 0.00017786)
(1.20011 7.14086e-05 0.000170904)
(1.20011 7.52912e-05 0.000172938)
(1.20024 0.000139774 0.000230842)
(1.20023 0.000111837 0.000221136)
(1.20026 0.000124654 0.000239141)
(1.20025 0.000105951 0.000228284)
(1.20025 0.000116625 0.000230674)
(1.20037 0.000207897 0.000321107)
(1.20036 0.000171271 0.000306019)
(1.20041 0.000189313 0.000333078)
(1.20039 0.000158248 0.000316676)
(1.2004 0.000177702 0.000320617)
(1.20057 0.000303184 0.000452214)
(1.20056 0.000253235 0.000429783)
(1.20062 0.000279353 0.000467671)
(1.2006 0.000230018 0.000444345)
(1.20061 0.000261692 0.000450358)
(1.20087 0.000445073 0.00063225)
(1.20085 0.000374536 0.000600164)
(1.20094 0.000412303 0.000651455)
(1.20091 0.000337626 0.00061914)
(1.20092 0.000386088 0.000627982)
(1.20131 0.00064582 0.000872386)
(1.20128 0.000545667 0.000827304)
(1.20141 0.00059806 0.000893094)
(1.20137 0.000489177 0.00084924)
(1.20138 0.000559128 0.000863204)
(1.20195 0.000838496 0.00113993)
(1.20196 0.000926497 0.00117202)
(1.2019 0.000783976 0.00111106)
(1.2021 0.000856172 0.00119018)
(1.20203 0.000700377 0.00113259)
(1.20204 0.000799048 0.00115422)
(1.2029 0.00118285 0.00147389)
(1.20289 0.00130253 0.00152217)
(1.20281 0.00110478 0.00144244)
(1.2031 0.00119878 0.00152942)
(1.20299 0.000983734 0.00145734)
(1.203 0.00111801 0.00149015)
(1.20424 0.00162468 0.00181329)
(1.20422 0.00178365 0.00188636)
(1.2041 0.00151498 0.00178606)
(1.2045 0.00163132 0.00186526)
(1.20434 0.00134281 0.00178096)
(1.20434 0.00151928 0.00183101)
(1.20613 0.00214217 0.00205953)
(1.20608 0.00235214 0.00216911)
(1.20589 0.00199843 0.00205296)
(1.20643 0.00211763 0.00208834)
(1.2062 0.00175206 0.00200364)
(1.20618 0.00197671 0.00207859)
(1.20866 0.00250081 0.00200369)
(1.20863 0.0027674 0.00215233)
(1.20829 0.0023711 0.00205161)
(1.20896 0.00237105 0.00197553)
(1.20863 0.00202502 0.00192385)
(1.20859 0.00227238 0.00202747)
(1.21126 0.00162827 0.00137757)
(1.21172 0.00207519 0.00141746)
(1.21086 0.0017538 0.00150648)
(1.21138 0.00125785 0.00126551)
(1.21119 0.00149326 0.00125011)
(1.21101 0.00146127 0.0014012)
(1.19998 2.08674e-05 2.4856e-05)
(1.19998 2.11533e-05 2.45302e-05)
(1.2 2.50244e-05 2.98639e-05)
(1.19998 2.03032e-05 2.41823e-05)
(1.19998 2.05205e-05 2.38232e-05)
(1.2 8.97199e-05 0.000108622)
(1.2 9.05984e-05 0.000106763)
(1.20002 7.54771e-05 9.08394e-05)
(1.20002 0.000101591 0.000118062)
(1.20001 8.72192e-05 0.000105975)
(1.20001 8.87614e-05 0.000103687)
(1.19985 0.000148755 0.000151069)
(1.19985 0.000150537 0.000149862)
(1.20005 0.000143146 0.000146618)
(1.20007 0.000153165 0.00015202)
(1.19986 0.000143892 0.000147389)
(1.19986 0.000146295 0.000145412)
(1.20005 0.000208364 0.000189834)
(1.20005 0.000209939 0.000188934)
(1.2001 0.000197881 0.000181044)
(1.20011 0.000216022 0.000194251)
(1.20007 0.000202212 0.000185456)
(1.20007 0.000204881 0.000183742)
(1.20015 0.000297704 0.00026044)
(1.20015 0.000299606 0.000259571)
(1.20016 0.000281664 0.000246158)
(1.20018 0.00030904 0.000268169)
(1.20018 0.000288439 0.000253505)
(1.20018 0.000291629 0.000251425)
(1.20024 0.000433354 0.000374917)
(1.20024 0.000435325 0.000374514)
(1.20025 0.000408928 0.000352448)
(1.20028 0.000448725 0.000387291)
(1.20028 0.000418605 0.000363763)
(1.20028 0.000422587 0.00036159)
(1.20037 0.000632712 0.000549401)
(1.20037 0.000633502 0.000550488)
(1.20038 0.000594627 0.000515562)
(1.20042 0.000653167 0.000567725)
(1.20043 0.000608973 0.000530696)
(1.20043 0.000612892 0.000529038)
(1.20056 0.000920853 0.000805026)
(1.20056 0.00092053 0.000809412)
(1.20058 0.000863404 0.000756077)
(1.20064 0.000946977 0.000831071)
(1.20065 0.000882448 0.000775193)
(1.20065 0.000886587 0.000775175)
(1.20087 0.00133303 0.00117451)
(1.20086 0.00133099 0.00118382)
(1.20088 0.00124639 0.00110212)
(1.20098 0.00136382 0.00120916)
(1.20099 0.00126939 0.00112486)
(1.20098 0.00127401 0.00112763)
(1.20136 0.00190047 0.00168939)
(1.20135 0.00189372 0.00170854)
(1.20136 0.00177342 0.00158677)
(1.20152 0.00193005 0.00173307)
(1.20152 0.00179791 0.00160876)
(1.20151 0.00180059 0.00161755)
(1.2021 0.00263733 0.00237577)
(1.2021 0.00262202 0.0024116)
(1.2021 0.0024579 0.00223515)
(1.20234 0.00265166 0.00242548)
(1.20231 0.00247547 0.00224727)
(1.20232 0.00247284 0.00226798)
(1.20323 0.00351975 0.00328492)
(1.20326 0.00348208 0.00334189)
(1.20321 0.00327595 0.00308509)
(1.20356 0.00349359 0.00333989)
(1.20349 0.00327816 0.00307918)
(1.20351 0.00325683 0.00311541)
(1.20481 0.00448935 0.00457356)
(1.20492 0.00436632 0.00464938)
(1.2048 0.00415322 0.0042554)
(1.20529 0.00437529 0.00463463)
(1.20516 0.00414637 0.00421661)
(1.20523 0.00405624 0.00426768)
(1.20709 0.00577673 0.00690298)
(1.20743 0.00524177 0.00695858)
(1.20715 0.00511183 0.00617647)
(1.20802 0.00541147 0.00687762)
(1.20775 0.00515976 0.00601329)
(1.20786 0.0048306 0.00605934)
(1.21396 0.00800187 0.0108583)
(1.21495 0.00591353 0.0106967)
(1.21299 0.00608346 0.00916065)
(1.21606 0.00564361 0.00917554)
(1.21448 0.00566989 0.00783589)
(1.214 0.00513409 0.00781268)
(1.19998 1.47845e-05 2.35582e-05)
(1.19998 1.60183e-05 2.32264e-05)
(1.2 1.64059e-05 2.84726e-05)
(1.19998 1.35646e-05 2.29525e-05)
(1.19998 1.45111e-05 2.2576e-05)
(1.20002 6.22852e-05 0.000105971)
(1.20002 6.80736e-05 0.000103985)
(1.20003 5.08756e-05 8.84581e-05)
(1.20004 7.18322e-05 0.000114616)
(1.20002 5.90495e-05 0.000103341)
(1.20002 6.15364e-05 0.000100969)
(1.19988 0.000108505 0.000141512)
(1.19988 0.000114517 0.000140337)
(1.20009 0.000104105 0.000137839)
(1.2001 0.000112215 0.000142405)
(1.19989 0.000101871 0.00013844)
(1.19989 0.000106621 0.000136446)
(1.20011 0.00015754 0.000176604)
(1.20012 0.000164264 0.000175579)
(1.20016 0.000148984 0.000168656)
(1.20018 0.000163597 0.000180182)
(1.20013 0.000147692 0.000172616)
(1.20013 0.000154574 0.00017071)
(1.20025 0.00022695 0.000238076)
(1.20025 0.000235921 0.000236957)
(1.20025 0.000214791 0.000225444)
(1.20028 0.000235315 0.000244645)
(1.20027 0.000212255 0.000232173)
(1.20027 0.00022216 0.000229862)
(1.20039 0.000329121 0.000336299)
(1.20039 0.000341205 0.000335367)
(1.20039 0.000310591 0.000317194)
(1.20043 0.000340867 0.000346307)
(1.20042 0.000307592 0.000327321)
(1.20043 0.000321065 0.000324514)
(1.20059 0.000478947 0.000478657)
(1.20059 0.000495506 0.000478326)
(1.20059 0.000450819 0.000450627)
(1.20065 0.000494383 0.000492962)
(1.20064 0.000445881 0.0004641)
(1.20064 0.000464705 0.000460919)
(1.20089 0.000690145 0.000683907)
(1.20089 0.000712578 0.00068604)
(1.20088 0.000648601 0.000644718)
(1.20097 0.000709155 0.000703818)
(1.20095 0.000640134 0.000661663)
(1.20095 0.000665743 0.000659293)
(1.20132 0.000983228 0.000964927)
(1.20132 0.00101269 0.00097093)
(1.2013 0.000921858 0.000910289)
(1.20143 0.0010043 0.000989364)
(1.2014 0.000906706 0.000928576)
(1.2014 0.000940839 0.000927914)
(1.20195 0.00138111 0.00133277)
(1.20195 0.00141799 0.00134722)
(1.20191 0.00129116 0.00125964)
(1.20211 0.00140008 0.00136122)
(1.20206 0.00126559 0.00127499)
(1.20206 0.00130884 0.00127918)
(1.20285 0.00188937 0.00178958)
(1.20284 0.00193152 0.00181835)
(1.20279 0.00176362 0.00169648)
(1.20306 0.00189658 0.00181791)
(1.20299 0.00172028 0.00170041)
(1.20299 0.00177137 0.00171412)
(1.2041 0.00250107 0.00233138)
(1.20409 0.00254077 0.0023833)
(1.204 0.00232685 0.00221237)
(1.20437 0.00247874 0.0023524)
(1.20426 0.00225603 0.00219122)
(1.20426 0.00230894 0.00222095)
(1.20583 0.00319494 0.00292932)
(1.20582 0.00321077 0.00302692)
(1.20567 0.00294736 0.00278249)
(1.20618 0.00310226 0.00292247)
(1.20599 0.00283111 0.00270262)
(1.20599 0.00287055 0.00276268)
(1.20833 0.00383054 0.00342775)
(1.20837 0.00378342 0.00360503)
(1.20803 0.003487 0.00326277)
(1.20876 0.0035365 0.00331684)
(1.20842 0.0032781 0.00304139)
(1.2084 0.00326675 0.00315224)
(1.2124 0.00308682 0.00308699)
(1.21183 0.00309601 0.00308969)
(1.21124 0.00294196 0.0030289)
(1.21208 0.00230825 0.00267719)
(1.21147 0.00241134 0.0026753)
(1.21172 0.00260026 0.00240213)
(1.19998 4.94874e-07 2.26447e-05)
(1.19998 6.585e-06 2.22875e-05)
(1.20001 -5.64066e-06 2.73795e-05)
(1.19998 1.33139e-06 2.21255e-05)
(1.19998 3.32577e-07 2.16955e-05)
(1.20003 7.13146e-07 0.000103318)
(1.20003 2.24986e-05 0.000101368)
(1.20004 -6.18418e-06 8.62983e-05)
(1.20005 7.96942e-06 0.000111764)
(1.20004 9.0604e-06 0.000100763)
(1.20003 1.84658e-07 9.86756e-05)
(1.19991 4.32696e-05 0.000136232)
(1.19991 6.02836e-05 0.000134424)
(1.20011 3.94184e-05 0.000132907)
(1.20013 4.6141e-05 0.000136866)
(1.19992 4.4991e-05 0.00013351)
(1.19992 4.23446e-05 0.000131353)
(1.20015 7.0602e-05 0.000168253)
(1.20016 8.85638e-05 0.000166191)
(1.20019 6.64128e-05 0.000160814)
(1.20022 7.37398e-05 0.00017118)
(1.20017 6.63002e-05 0.000164807)
(1.20017 6.9218e-05 0.000162274)
(1.20032 0.000108863 0.000223229)
(1.20032 0.000128577 0.000221051)
(1.20031 0.000101969 0.000211808)
(1.20035 0.000113642 0.000228848)
(1.20033 9.76142e-05 0.000218468)
(1.20034 0.000106279 0.000215447)
(1.20049 0.000163611 0.000310495)
(1.2005 0.00018772 0.000308015)
(1.20048 0.000153848 0.000293226)
(1.20053 0.000169268 0.000318965)
(1.20051 0.0001428 0.000303384)
(1.20052 0.000158978 0.000299404)
(1.20074 0.000239236 0.000436188)
(1.20075 0.000270159 0.000432824)
(1.20072 0.000224957 0.00041139)
(1.2008 0.000247505 0.000448354)
(1.20077 0.000204898 0.000425957)
(1.20078 0.000232365 0.000420157)
(1.20109 0.000347892 0.000609411)
(1.2011 0.000387642 0.000606897)
(1.20107 0.000327097 0.000576629)
(1.20118 0.00035746 0.000625366)
(1.20114 0.0002944 0.000595037)
(1.20115 0.000336023 0.000588181)
(1.2016 0.000490918 0.000833751)
(1.20161 0.000543631 0.000832238)
(1.20156 0.000460848 0.000790421)
(1.20171 0.000500719 0.000851855)
(1.20165 0.000411666 0.000810895)
(1.20167 0.000469563 0.000803122)
(1.20231 0.000683968 0.00111015)
(1.20232 0.000753838 0.00111157)
(1.20225 0.000639969 0.00105528)
(1.20246 0.00069292 0.00112911)
(1.20238 0.000570167 0.00107595)
(1.20239 0.000648338 0.00106786)
(1.20329 0.000930348 0.0014267)
(1.2033 0.00102057 0.00143455)
(1.2032 0.000869264 0.00136231)
(1.20349 0.000932922 0.00144154)
(1.20337 0.000771401 0.00137665)
(1.20338 0.000872439 0.00137048)
(1.20461 0.00121479 0.00174093)
(1.20461 0.00132485 0.00176036)
(1.20447 0.0011328 0.00167162)
(1.20484 0.00120101 0.00174136)
(1.20468 0.000998663 0.00166752)
(1.20469 0.00112196 0.00166641)
(1.20631 0.00149655 0.00196087)
(1.2063 0.00162126 0.00200195)
(1.20611 0.00139313 0.00190153)
(1.20657 0.001445 0.00192881)
(1.20636 0.00121333 0.00185726)
(1.20635 0.00135189 0.00186782)
(1.20838 0.00159854 0.00189314)
(1.20837 0.00172061 0.0019597)
(1.20809 0.0015034 0.00187593)
(1.20861 0.00146487 0.00179806)
(1.20833 0.00127039 0.0017611)
(1.20831 0.0014 0.00178706)
(1.21029 0.000958136 0.00128038)
(1.21047 0.00111431 0.00125989)
(1.20999 0.00101078 0.00134245)
(1.21033 0.000717046 0.00111397)
(1.21015 0.000838452 0.00111816)
(1.21006 0.000816603 0.00118579)
(1.19998 1.95768e-05 1.89988e-05)
(1.19998 1.98816e-05 1.75919e-05)
(1.2 2.36606e-05 2.02055e-05)
(1.19998 1.9075e-05 1.73156e-05)
(1.19998 1.93001e-05 1.61783e-05)
(1.20002 8.66034e-05 7.98315e-05)
(1.20002 8.77078e-05 7.27535e-05)
(1.20003 7.28446e-05 6.06752e-05)
(1.20004 9.81617e-05 8.18242e-05)
(1.20002 8.45139e-05 7.21433e-05)
(1.20002 8.58852e-05 6.94538e-05)
(1.19989 0.000140018 0.000117107)
(1.19989 0.000142217 0.000110623)
(1.20009 0.000135437 0.000107313)
(1.20011 0.000144349 0.000113204)
(1.19989 0.000135585 0.000108775)
(1.19989 0.000138167 0.000103993)
(1.20012 0.000194774 0.000153254)
(1.20012 0.000196578 0.000147674)
(1.20016 0.000185186 0.000140952)
(1.20018 0.000201905 0.000151588)
(1.20014 0.000188923 0.000144565)
(1.20014 0.00019166 0.000138972)
(1.20025 0.000275851 0.000206858)
(1.20025 0.000278133 0.0001994)
(1.20026 0.00026208 0.000189395)
(1.20028 0.000286127 0.000206192)
(1.20028 0.000267758 0.000195025)
(1.20028 0.000271467 0.000186935)
(1.20039 0.000393201 0.000297003)
(1.20039 0.000395351 0.000287303)
(1.20039 0.000372408 0.000270697)
(1.20043 0.000406637 0.00029661)
(1.20042 0.000380497 0.000278883)
(1.20042 0.000384768 0.000267888)
(1.20058 0.000560059 0.000432199)
(1.20058 0.000561738 0.000419211)
(1.20058 0.000529053 0.00039286)
(1.20064 0.000577653 0.000432469)
(1.20063 0.000540472 0.000404521)
(1.20063 0.000545347 0.000389665)
(1.20086 0.000795838 0.000633684)
(1.20086 0.000796829 0.000616659)
(1.20085 0.000750256 0.000576575)
(1.20094 0.000817297 0.000633192)
(1.20093 0.00076484 0.000591513)
(1.20093 0.000770659 0.000571282)
(1.20129 0.00111682 0.000913743)
(1.20128 0.00111622 0.000891854)
(1.20127 0.00105043 0.00083179)
(1.2014 0.00113982 0.000909823)
(1.20138 0.00106658 0.000847828)
(1.20137 0.00107275 0.000821077)
(1.20192 0.00153802 0.00129934)
(1.20192 0.00153445 0.00127212)
(1.20189 0.00144456 0.00118391)
(1.20208 0.00155708 0.00128915)
(1.20204 0.00145877 0.00119952)
(1.20203 0.00146535 0.00116508)
(1.20286 0.00204437 0.00180644)
(1.20286 0.00203532 0.00177482)
(1.20279 0.00191929 0.00164894)
(1.20308 0.0020458 0.00178271)
(1.203 0.00192228 0.00165732)
(1.203 0.00192678 0.00161562)
(1.2042 0.00258107 0.00242802)
(1.20422 0.00255998 0.00238996)
(1.20409 0.00242338 0.00221936)
(1.20449 0.00254106 0.00237469)
(1.20435 0.00240217 0.00220748)
(1.20436 0.00239849 0.00215621)
(1.20609 0.00299876 0.00312868)
(1.20616 0.00294808 0.00306661)
(1.20592 0.00282047 0.00285076)
(1.20648 0.00287375 0.00300281)
(1.20622 0.00275481 0.00279641)
(1.20626 0.00272849 0.00272488)
(1.20876 0.00300006 0.00370382)
(1.20886 0.00287545 0.00356356)
(1.20844 0.00283036 0.00334501)
(1.20919 0.00272195 0.0033747)
(1.20875 0.00269897 0.00318738)
(1.2088 0.00262389 0.00307378)
(1.21227 0.00202295 0.00309663)
(1.21229 0.00177122 0.00280125)
(1.21161 0.00197589 0.00285826)
(1.21235 0.00155025 0.0023661)
(1.21183 0.00172852 0.00240716)
(1.21175 0.00162907 0.00233964)
(1.19998 1.3739e-05 1.79902e-05)
(1.19998 1.49808e-05 1.65613e-05)
(1.2 1.51825e-05 1.90624e-05)
(1.19998 1.25921e-05 1.63249e-05)
(1.19998 1.35022e-05 1.52316e-05)
(1.20003 5.97355e-05 7.71055e-05)
(1.20003 6.58587e-05 6.99018e-05)
(1.20004 4.88041e-05 5.80528e-05)
(1.20005 6.90058e-05 7.86599e-05)
(1.20003 5.68752e-05 6.92297e-05)
(1.20003 5.91939e-05 6.70408e-05)
(1.19992 0.000101959 0.000110569)
(1.19992 0.00010786 0.000103978)
(1.20012 9.83078e-05 0.000101549)
(1.20014 0.000105601 0.000106196)
(1.19993 9.61603e-05 0.000102683)
(1.19993 0.000100658 9.84706e-05)
(1.20017 0.000146197 0.000141297)
(1.20018 0.00015273 0.000135593)
(1.20021 0.000138616 0.000129714)
(1.20024 0.000151684 0.000139175)
(1.20019 0.000137134 0.000133028)
(1.20019 0.000143629 0.000127822)
(1.20034 0.000208972 0.000189783)
(1.20034 0.000217752 0.000182875)
(1.20033 0.000198164 0.000174062)
(1.20037 0.000216649 0.000188562)
(1.20036 0.000195567 0.000179098)
(1.20036 0.00020519 0.00017177)
(1.20052 0.000299271 0.000265665)
(1.20052 0.000310794 0.000256145)
(1.20051 0.000283354 0.000242404)
(1.20056 0.00030969 0.000264382)
(1.20054 0.000279894 0.000249877)
(1.20055 0.000292995 0.000239228)
(1.20077 0.000426205 0.000378174)
(1.20077 0.000441345 0.000366306)
(1.20075 0.000403026 0.000345206)
(1.20082 0.000439545 0.000377661)
(1.2008 0.000398103 0.000355709)
(1.2008 0.000415595 0.000341819)
(1.20112 0.000600398 0.000539626)
(1.20112 0.000620377 0.000524072)
(1.20109 0.000566959 0.000492728)
(1.2012 0.000615804 0.000537006)
(1.20117 0.000558345 0.000505335)
(1.20117 0.000581644 0.000486564)
(1.20163 0.000828995 0.000754472)
(1.20163 0.000855433 0.000734245)
(1.20159 0.000782337 0.000689602)
(1.20174 0.000844799 0.000748213)
(1.2017 0.000766526 0.000703351)
(1.20169 0.000798078 0.000678265)
(1.20235 0.00111988 0.00103386)
(1.20235 0.00115239 0.0010106)
(1.20229 0.00105469 0.000947198)
(1.2025 0.00113178 0.00102111)
(1.20243 0.00102899 0.000958826)
(1.20243 0.00106808 0.000928404)
(1.20334 0.00146441 0.00137706)
(1.20334 0.00149986 0.00135271)
(1.20325 0.00137775 0.00126536)
(1.20353 0.00146236 0.00135243)
(1.20343 0.00133585 0.001269)
(1.20343 0.00138067 0.00123463)
(1.20465 0.00181772 0.00175332)
(1.20466 0.0018496 0.00173065)
(1.20452 0.00170901 0.00161738)
(1.20489 0.00178377 0.00170416)
(1.20474 0.00164147 0.0015995)
(1.20474 0.00168654 0.00156299)
(1.20633 0.00208322 0.00209527)
(1.20635 0.00209653 0.00207628)
(1.20614 0.00195672 0.0019383)
(1.20661 0.00198722 0.00199714)
(1.20638 0.00185187 0.00187866)
(1.2064 0.0018856 0.0018425)
(1.2084 0.00204929 0.00218716)
(1.20843 0.00202385 0.00217183)
(1.20812 0.00193375 0.00204384)
(1.20865 0.00184594 0.00199122)
(1.20833 0.00177402 0.00190419)
(1.20835 0.00178171 0.00187272)
(1.21045 0.00123468 0.00156224)
(1.21056 0.00118606 0.00146275)
(1.2101 0.00125836 0.00152845)
(1.21047 0.000935082 0.00125648)
(1.21021 0.00107442 0.00125031)
(1.21017 0.00102239 0.00127312)
(1.19998 -7.56967e-08 1.7304e-05)
(1.19998 5.9669e-06 1.58138e-05)
(1.20001 -6.4955e-06 1.82443e-05)
(1.19998 9.06514e-07 1.56999e-05)
(1.19998 -1.90738e-07 1.46001e-05)
(1.20004 -9.64792e-07 7.57379e-05)
(1.20004 2.12186e-05 6.80049e-05)
(1.20004 -7.70539e-06 5.66892e-05)
(1.20007 6.47422e-06 7.69277e-05)
(1.20005 8.15423e-06 6.75287e-05)
(1.20004 -1.24227e-06 6.59636e-05)
(1.19994 3.94167e-05 0.00010647)
(1.19994 5.64226e-05 9.96065e-05)
(1.20014 3.60128e-05 9.78874e-05)
(1.20016 4.18822e-05 0.000101654)
(1.19995 4.1734e-05 9.86955e-05)
(1.19995 3.84866e-05 9.47429e-05)
(1.20021 6.50617e-05 0.000133525)
(1.20021 8.25943e-05 0.000127167)
(1.20025 6.09716e-05 0.000122417)
(1.20028 6.80125e-05 0.000131081)
(1.20022 6.21482e-05 0.000125808)
(1.20022 6.37033e-05 0.000120669)
(1.20039 9.89625e-05 0.000177544)
(1.2004 0.000118201 0.000170137)
(1.20039 9.30315e-05 0.0001629)
(1.20043 0.000103123 0.000176118)
(1.20041 8.97759e-05 0.000167977)
(1.20041 9.68009e-05 0.000160778)
(1.2006 0.000146889 0.000245556)
(1.2006 0.000170027 0.000235453)
(1.20058 0.00013861 0.00022445)
(1.20064 0.000152427 0.000244199)
(1.20062 0.000129229 0.000232313)
(1.20062 0.000143747 0.000221438)
(1.20088 0.000214082 0.000345)
(1.20089 0.000243016 0.000331903)
(1.20086 0.000201993 0.00031569)
(1.20094 0.000221363 0.000343407)
(1.20091 0.000184242 0.0003266)
(1.20091 0.000208775 0.00031177)
(1.20129 0.00030428 0.00048135)
(1.20129 0.000339936 0.000463389)
(1.20125 0.000287535 0.000440365)
(1.20137 0.000311867 0.000477304)
(1.20132 0.000258554 0.000454255)
(1.20133 0.000295139 0.000433593)
(1.20185 0.000413439 0.000656127)
(1.20186 0.000459788 0.000633454)
(1.2018 0.000390937 0.000602142)
(1.20196 0.000420848 0.000648844)
(1.20189 0.000348225 0.00061817)
(1.2019 0.000398146 0.000590826)
(1.20261 0.000555366 0.000869932)
(1.20262 0.000614109 0.000842435)
(1.20254 0.000523371 0.000801374)
(1.20276 0.00056107 0.000855942)
(1.20266 0.000464769 0.000817102)
(1.20267 0.00053002 0.000782545)
(1.20362 0.000721067 0.00110964)
(1.20363 0.000792673 0.00107915)
(1.20351 0.00067908 0.00102691)
(1.2038 0.000718927 0.00108399)
(1.20367 0.000599048 0.00103765)
(1.20368 0.000679569 0.00099738)
(1.2049 0.000883811 0.00133472)
(1.20491 0.000964973 0.00130381)
(1.20476 0.000832287 0.00124338)
(1.20511 0.000865653 0.00128897)
(1.20494 0.000727872 0.00123989)
(1.20495 0.000819895 0.00119527)
(1.20643 0.000992635 0.00146771)
(1.20644 0.00107379 0.00144181)
(1.20625 0.000936431 0.00138138)
(1.20665 0.000944743 0.00138997)
(1.20645 0.000807047 0.00134965)
(1.20645 0.000900503 0.00130575)
(1.20809 0.000932703 0.00135918)
(1.20809 0.000998032 0.00134359)
(1.20786 0.000892484 0.00130908)
(1.20825 0.000840062 0.00123683)
(1.20803 0.000744593 0.00123142)
(1.20802 0.000820588 0.00119638)
(1.20944 0.000505215 0.000843135)
(1.20947 0.00054783 0.000809258)
(1.20923 0.00053735 0.000864708)
(1.20945 0.000382296 0.00069414)
(1.2093 0.000422995 0.000738525)
(1.20927 0.000434558 0.000726678)
(1.19998 1.87044e-05 8.18505e-06)
(1.19998 1.9113e-05 2.15965e-06)
(1.2 2.29396e-05 -2.54935e-06)
(1.19998 1.832e-05 2.00224e-06)
(1.19998 1.85465e-05 3.64309e-06)
(1.20003 8.46343e-05 2.9039e-05)
(1.20003 8.67637e-05 1.26521e-05)
(1.20004 7.18959e-05 5.04218e-06)
(1.20005 9.69336e-05 1.91153e-05)
(1.20003 8.33507e-05 1.19487e-05)
(1.20004 8.4019e-05 1.38812e-05)
(1.19992 0.000134448 5.95098e-05)
(1.19991 0.000137573 4.54793e-05)
(1.20011 0.000131551 4.26704e-05)
(1.20013 0.000139416 4.7554e-05)
(1.19992 0.000131394 4.44612e-05)
(1.19992 0.000133418 4.36311e-05)
(1.20017 0.000184887 8.45898e-05)
(1.20017 0.000188419 6.92473e-05)
(1.2002 0.000177162 6.52577e-05)
(1.20023 0.000192898 7.15868e-05)
(1.20018 0.000180211 6.75536e-05)
(1.20018 0.00018319 6.34287e-05)
(1.20033 0.000261555 0.000115551)
(1.20032 0.000264718 9.85999e-05)
(1.20032 0.000250042 9.32727e-05)
(1.20036 0.000272145 0.000101556)
(1.20035 0.00025532 9.60075e-05)
(1.20034 0.000258957 8.83969e-05)
(1.2005 0.00036522 0.000162641)
(1.20049 0.000369442 0.000141184)
(1.20048 0.000348759 0.000132387)
(1.20053 0.000379076 0.000145749)
(1.20052 0.000355385 0.000136275)
(1.20051 0.000360302 0.000123294)
(1.20073 0.000512311 0.00023857)
(1.20072 0.000517138 0.000210156)
(1.20071 0.000488136 0.000196433)
(1.20078 0.000530941 0.000216972)
(1.20077 0.00049818 0.000202565)
(1.20075 0.000504709 0.000181445)
(1.20107 0.000713398 0.000348164)
(1.20106 0.000719372 0.000310333)
(1.20104 0.000679549 0.000289959)
(1.20114 0.00073556 0.000318325)
(1.20112 0.000690822 0.000297351)
(1.2011 0.000700403 0.000265511)
(1.20157 0.000972328 0.000496912)
(1.20155 0.000979322 0.000446408)
(1.20152 0.000925436 0.00041658)
(1.20167 0.000997185 0.000454967)
(1.20163 0.000937258 0.000424134)
(1.20161 0.000950035 0.000377661)
(1.20229 0.0013002 0.000703086)
(1.20227 0.00130796 0.000636887)
(1.20221 0.00123737 0.000592352)
(1.20243 0.00132306 0.000645384)
(1.20236 0.00124599 0.000600338)
(1.20234 0.00126363 0.000533769)
(1.20331 0.00166164 0.00096967)
(1.2033 0.00167143 0.000882606)
(1.2032 0.00158533 0.000821626)
(1.20351 0.00167189 0.000885)
(1.2034 0.00158077 0.000825002)
(1.20338 0.00160401 0.00073489)
(1.20472 0.00199156 0.00126842)
(1.20472 0.00200064 0.00115875)
(1.20457 0.00190763 0.00108075)
(1.20497 0.00197106 0.00114539)
(1.2048 0.00187776 0.00107127)
(1.2048 0.00190406 0.000957885)
(1.20655 0.00214834 0.00153312)
(1.20658 0.00215287 0.00140151)
(1.20634 0.00207582 0.00131575)
(1.20684 0.00207071 0.00135602)
(1.20658 0.00200231 0.00128049)
(1.20661 0.00202731 0.00114683)
(1.2087 0.00190521 0.00156739)
(1.20875 0.0019004 0.00142759)
(1.20842 0.0018824 0.00137184)
(1.20895 0.00175032 0.0013242)
(1.20862 0.00175115 0.00128933)
(1.20867 0.00176699 0.00115013)
(1.21067 0.00103912 0.000999914)
(1.21072 0.00102843 0.000894875)
(1.21036 0.00111849 0.000945289)
(1.21072 0.000833334 0.000730992)
(1.21041 0.000941053 0.000800049)
(1.21047 0.000944363 0.000705239)
(1.19998 1.29632e-05 7.66398e-06)
(1.19998 1.43408e-05 1.59599e-06)
(1.20001 1.43328e-05 -3.20749e-06)
(1.19998 1.19661e-05 1.46992e-06)
(1.19998 1.28367e-05 3.25005e-06)
(1.20004 5.79952e-05 2.70944e-05)
(1.20004 6.45856e-05 9.93709e-06)
(1.20004 4.74859e-05 2.62759e-06)
(1.20007 6.74706e-05 1.64014e-05)
(1.20004 5.57879e-05 9.32475e-06)
(1.20005 5.74857e-05 1.20858e-05)
(1.19995 9.79341e-05 5.63541e-05)
(1.19994 0.000104394 4.1853e-05)
(1.20014 9.53099e-05 3.94358e-05)
(1.20017 0.00010174 4.37144e-05)
(1.19995 9.29022e-05 4.11077e-05)
(1.19995 9.71785e-05 4.12695e-05)
(1.20022 0.000137903 7.82956e-05)
(1.20021 0.000145137 6.30608e-05)
(1.20025 0.000131746 5.94979e-05)
(1.20028 0.000144004 6.53427e-05)
(1.20023 0.000130195 6.17484e-05)
(1.20022 0.000136589 5.91711e-05)
(1.2004 0.000196866 0.000106159)
(1.2004 0.000206717 8.90037e-05)