/*--------------------------------*- C++ -*----------------------------------*\
| =========                 |                                                 |
| \\      /  F ield         | OpenFOAM: The Open Source CFD Toolbox           |
|  \\    /   O peration     | Version:  2012                                  |
|   \\  /    A nd           | Website:  www.openfoam.com                      |
|    \\/     M anipulation  |                                                 |
\*---------------------------------------------------------------------------*/
FoamFile
{
    version     2.0;
    format      ascii;
    class       volScalarField;
    location    "0.107/fluid";
    object      p;
}
// * * * * * * * * * * * * * * * * * * * * * * * * * * * * * * * * * * * * * //

dimensions      [0 2 -2 0 0 0 0];


internalField   nonuniform List<scalar> 
16422
(
-0.0819456
-0.0108126
-0.0111765
-0.00918529
-0.00638697
-0.00386175
-0.002136
-0.00104502
-0.000373885
2.30269e-05
0.000235178
0.000315859
0.000312474
0.00024696
0.000125478
0.0191248
0.00217375
-0.00356411
-0.00508524
-0.00437621
-0.00295713
-0.00176819
-0.000910879
-0.000335575
2.2103e-05
0.000219391
0.000296254
0.000298294
0.000237426
0.000121806
0.0379431
0.0162132
0.00454889
-0.000726958
-0.00206668
-0.00189002
-0.00130692
-0.000723418
-0.000270879
3.67826e-05
0.000215337
0.00029099
0.000297386
0.00023962
0.000126092
-0.118712
-0.0377746
-0.0182721
-0.0109346
-0.00676324
-0.00384007
-0.00200057
-0.000914282
-0.00027308
9.51584e-05
0.00028393
0.000349775
0.000333274
0.000257386
0.000131202
0.0169672
-0.00383143
-0.00644643
-0.00602347
-0.00453145
-0.00283475
-0.0016003
-0.000767297
-0.000229766
9.6108e-05
0.000269111
0.000332027
0.000318405
0.000248763
0.000127906
0.0380046
0.0153234
0.00391962
-0.000886356
-0.00194954
-0.00168711
-0.00111505
-0.000572467
-0.000160519
0.000112487
0.000266451
0.000325984
0.000316504
0.00025153
0.000131095
-0.155193
-0.090225
-0.0333716
-0.014614
-0.00715941
-0.00342008
-0.00153273
-0.000543752
-7.7092e-06
0.000277594
0.000407541
0.000432978
0.000387234
0.000289656
0.000147249
0.0157833
-0.0129611
-0.0112126
-0.00716069
-0.00422982
-0.00226022
-0.0010831
-0.000375562
4.71224e-05
0.000286227
0.000397753
0.00041747
0.000372107
0.000281368
0.000144708
0.0388215
0.0147024
0.00357409
-0.000484553
-0.00126208
-0.00101336
-0.000569242
-0.000169879
0.000122633
0.000307019
0.000397706
0.000412383
0.000369984
0.000283616
0.000147289
-0.110677
0.0406047
-0.119205
-0.0469384
-0.12619
-0.0376481
-0.176592
-0.125923
-0.18075
-0.139185
0.112783
0.29612
0.00430578
-0.0112934
-0.0388304
-0.0281848
-0.00676177
0.017342
0.00464786
-0.112177
-0.0500171
0.0123368
-0.00675652
-0.140068
0.000726009
-0.0334018
-0.0237058
-0.0986842
-0.0504253
-0.0503398
0.0129036
-0.00630154
-0.150875
-0.106929
0.00890989
-0.0205296
-0.538668
-0.343175
-0.104683
-0.0485464
-0.115532
0.00978927
-0.0216197
0.0495685
0.137495
0.00249623
0.170306
0.0928125
-0.0502144
-0.0967209
-0.031137
0.146376
0.0263434
0.0694882
0.0467194
-0.0275528
-0.0284928
-0.067886
0.101196
0.104864
0.00918822
0.0451343
-0.0675881
0.0592396
-0.0493587
0.083321
-0.102243
-0.0711799
-0.0355989
-0.0247868
0.0170473
0.00944742
-0.0492606
-0.0691871
0.0419036
-0.013226
-0.0818469
-0.186976
-0.0552437
-0.188357
-0.0790482
-0.150421
-0.0332913
-0.126825
-0.229506
-0.0201612
-0.072538
-0.0849258
-0.0894508
-0.0940215
-0.121848
-0.151048
-0.329984
-0.195732
-0.356821
-0.199229
-0.157509
-0.18446
-0.138444
-0.373755
-0.239134
-0.0905671
-0.145139
-0.181046
-0.0919198
-0.14079
-0.399148
-0.538093
-0.367637
-0.551
-0.196175
-0.188038
-0.38544
-0.230565
-0.563874
-0.160117
-0.205894
-0.162412
-0.409646
-0.195462
-0.234765
-0.552154
-0.548717
-0.5616
-0.187741
-0.237317
-0.573145
-0.170475
-0.208873
-0.251035
0.138527
0.18135
-0.0695478
-0.056763
-0.44793
-0.433693
0.0740318
0.0752174
-0.00385984
0.091454
0.171973
0.205688
-0.091933
0.00810735
0.125749
0.00490504
-0.103956
-0.134678
-0.204994
-0.217558
-0.176548
-0.135065
-0.224261
-0.219616
-0.142703
-0.0863133
0.143375
0.0681515
0.0428635
-0.160807
0.0291706
0.0866203
0.0503601
0.064396
0.0236062
0.0509427
0.0345005
0.122382
0.0882077
0.102437
0.112971
0.196669
0.109174
0.0960933
0.0716509
0.0572276
0.0629197
0.00856172
0.0740512
0.000596721
-0.00739576
-7.04854e-05
-0.131482
-0.0106122
0.0449254
-0.109814
-0.02173
-0.179195
-0.264923
-0.24573
-0.209084
-0.169014
-0.226764
-0.239817
-0.147821
-0.143722
0.0329146
-0.0709344
-0.0505424
-0.174653
0.0299907
0.0653812
0.0430263
-0.015792
0.0375241
0.0724428
0.0313547
-0.00796606
-0.0305017
0.00441306
-0.0181462
0.0152159
0.000114246
-0.0223931
-0.120564
-0.0835653
-0.0611972
-0.110548
-0.000796711
-0.0167987
-0.236232
-0.11227
-0.177114
-0.148707
-0.276229
-0.254506
-0.271724
-0.219488
-0.294044
-0.222446
-0.099363
-0.0927877
-0.185369
-0.118075
-0.267862
-0.324508
-0.301705
-0.305498
-0.0740574
-0.160707
-0.0774868
-0.109691
-0.0554768
-0.0845849
-0.0945273
-0.0422357
-0.147997
0.00227061
-0.0319335
-0.0247999
-0.0161287
-0.0541496
-0.229322
-0.242892
-0.0915449
-0.267037
-0.114791
-0.278419
-0.176246
-0.150276
-0.329463
-0.204378
-0.278786
-0.289051
-0.233508
-0.367758
-0.376337
-0.358829
-0.403861
-0.355546
-0.331623
-0.352549
-0.31768
-0.342728
-0.291457
-0.293227
-0.26412
-0.381875
-0.124645
-0.0892644
-0.130244
-0.310961
-0.105087
-0.112705
-0.155953
-0.152528
-0.32336
-0.168906
-0.211128
-0.144014
-0.184807
-0.173336
-0.459124
-0.270243
-0.246738
-0.447454
-0.193708
-0.218635
-0.440072
-0.476777
-0.39687
-0.37333
-0.469924
-0.44703
-0.381168
-0.414877
-0.394231
-0.429302
-0.464958
-0.320517
-0.393901
-0.347528
-0.456652
-0.4056
-0.397573
-0.483215
-0.227551
-0.494243
-0.255749
-0.303689
-0.234719
-0.281959
-0.244677
-0.207777
-0.483326
-0.186876
-0.233765
-0.188369
-0.210037
-0.258413
-0.633224
-0.64533
-0.287216
-0.617685
-0.304392
-0.626574
-0.317488
-0.498729
-0.417173
-0.622981
-0.478245
-0.434116
-0.511701
-0.407616
-0.50813
-0.407067
-0.408672
-0.490508
-0.503165
-0.631985
-0.446222
-0.26747
-0.271265
-0.320963
-0.630815
-0.256399
-0.286063
-0.33631
-0.274379
-0.638226
-0.296581
-0.346543
-0.045187
0.0508278
0.114425
0.0634953
-0.0608291
-0.42882
-0.396977
-0.38749
-0.0432007
0.184573
0.413136
0.0499197
0.071045
-0.246339
-0.110991
-0.151375
-0.134166
-0.265103
-0.396858
-0.389602
-0.162235
-0.0197093
-0.0385989
-0.149206
-0.0509674
-0.438962
-0.458937
-0.597804
-0.50115
-0.481615
-0.459958
-0.622484
-0.625404
-0.597497
-0.47717
-0.380939
-0.328073
-0.453788
-0.349772
-0.7192
-0.752558
0.0984269
0.0420377
0.10313
0.0600463
0.0522191
0.108128
0.0922915
0.161532
0.142095
0.133815
0.256641
0.0959484
0.109345
0.138439
-0.0607345
0.0369018
0.100482
0.0481094
-0.071324
-0.285278
-0.268634
-0.32949
-0.33473
-0.0694709
0.150766
0.128126
0.0606076
0.0474801
0.096116
0.10679
0.033066
0.0317602
0.113979
0.0429558
0.0896012
0.137941
0.109243
0.174892
0.0818203
0.105245
0.0744443
0.0872242
-0.0679008
0.0490285
0.0961359
-0.0632266
0.0452495
-0.37602
-0.385047
-0.373262
-0.388389
-0.127602
0.0267275
-0.0307606
-0.141009
-0.0185578
0.0919103
0.0425278
0.0972776
0.0336908
0.0918496
0.0417462
0.093707
0.0312002
-0.0297872
-0.03313
0.0220285
-0.0216604
0.0302185
0.0216674
-0.0900226
0.0295566
0.0721082
-0.0805422
0.0210376
-0.395796
-0.416326
-0.346563
-0.338785
-0.161481
-0.00190744
-0.0614064
-0.047183
-0.177866
0.0804663
0.0985083
0.0287736
0.00959403
0.0854231
0.0953785
0.0225454
0.0212902
-0.0632934
0.0239995
-0.0529486
0.0331985
-0.0412571
0.0120704
-0.0589833
-0.158986
-0.14111
-0.0809562
-0.125649
-0.067381
-0.0721745
0.0127551
-0.0760402
-0.0366254
0.0188676
-0.0469004
0.0210243
0.00969972
-0.308512
-0.156464
-0.200389
-0.181715
-0.329447
-0.442526
-0.423392
-0.210363
-0.0587533
-0.0749218
-0.193632
-0.0901801
-0.50961
-0.533872
-0.0759541
-0.201116
-0.0815848
-0.17276
-0.0678411
-0.156827
-0.089159
-0.00247603
-0.11024
0.0191896
-0.0624135
0.00726037
0.00900809
-0.0746172
-0.300243
-0.166508
-0.182171
-0.281268
-0.184504
-0.55847
-0.587925
-0.484934
-0.465944
-0.408418
-0.293249
-0.308047
-0.43203
-0.286716
-0.0927571
-0.152199
-0.0905938
-0.224547
-0.0799072
-0.167571
-0.104661
-0.172089
-0.323365
-0.277371
-0.205779
-0.2589
-0.189499
-0.187596
-0.369517
-0.218181
-0.232065
-0.349154
-0.237153
-0.627023
-0.648713
-0.562391
-0.541397
-0.475535
-0.339382
-0.35625
-0.336528
-0.497187
-0.112044
-0.0917814
-0.186866
-0.26799
-0.0989016
-0.105985
-0.202794
-0.188702
-0.367401
-0.203457
-0.308366
-0.187861
-0.291094
-0.203272
-0.292494
-0.50506
-0.42328
-0.332821
-0.405378
-0.317796
-0.306807
-0.214901
-0.401194
-0.293398
-0.219514
-0.311638
-0.199885
-0.235735
-0.633816
-0.520821
-0.50226
-0.48531
-0.652356
-0.672453
-0.655096
-0.537447
-0.41947
-0.374866
-0.517176
-0.394162
-0.722215
-0.737716
-0.29812
-0.53517
-0.321879
-0.436355
-0.308193
-0.421502
-0.310428
-0.229412
-0.440753
-0.216745
-0.324067
-0.215429
-0.232199
-0.340756
-0.667353
-0.501532
-0.587836
-0.644708
-0.521875
-0.791979
-0.762915
-0.331261
-0.439048
-0.345821
-0.579529
-0.3187
-0.455343
-0.359374
-0.684557
-0.517602
-0.589256
-0.668604
-0.532902
-0.752264
-0.74199
-0.331272
-0.333761
-0.449394
-0.599139
-0.320693
-0.346013
-0.46249
-0.160617
-0.143269
-0.142982
-0.16933
-0.0490914
0.117573
0.0603897
-0.047157
0.0656072
-0.161103
-0.141086
-0.144019
-0.149822
-0.435329
-0.47144
-0.372023
-0.217774
-0.3685
-0.19937
-0.390253
-0.219634
-0.332222
-0.184522
-0.186396
-0.326418
-0.405337
-0.454375
-0.33985
-0.195739
-0.189037
-0.375412
0.0784106
0.210253
0.102744
0.0157095
0.1946
-0.0998983
-0.160353
-0.112101
-0.136518
-0.120288
-0.159691
-0.229338
-0.0997438
-0.100069
-0.211726
-0.117639
-0.343262
-0.31304
-0.288043
-0.361864
-0.325955
-0.25695
-0.309222
-0.27994
-0.351512
-0.235564
-0.250393
-0.341401
-0.401804
-0.414464
-0.356419
-0.276093
-0.256871
-0.371349
-0.175188
-0.0298968
-0.0801286
-0.1923
-0.0639196
-0.262784
-0.20497
-0.220804
-0.249073
-0.275832
-0.248041
-0.291143
-0.227675
-0.399093
-0.33823
-0.313742
-0.420481
-0.432929
-0.41957
-0.392896
-0.284317
-0.306002
-0.376919
-0.574267
-0.48724
-0.416001
-0.549738
-0.438622
-0.704559
-0.671701
-0.634653
-0.729849
-0.679571
-0.585258
-0.65418
-0.622365
-0.59777
-0.509384
-0.543829
-0.56777
-0.635617
-0.668033
-0.608196
-0.592289
-0.555644
-0.641869
-0.500387
-0.394695
-0.393718
-0.525609
-0.371095
-0.579108
-0.488551
-0.523636
-0.554784
-0.603575
-0.572666
-0.629004
-0.535679
-0.695486
-0.690143
-0.653228
-0.729914
-0.708589
-0.678429
-0.684729
-0.604606
-0.641131
-0.652562
0.0895432
0.0676541
0.0386796
0.0924527
0.0488604
0.0824464
0.0809452
0.194249
0.134515
0.0790449
0.166044
0.148391
0.138475
0.234012
-0.161752
-0.134876
-0.125495
-0.169569
-0.0609516
0.103174
0.0718928
-0.0393329
0.0483501
-0.15697
-0.117956
-0.120889
-0.139594
-0.302372
-0.326048
-0.238401
-0.179304
-0.151989
-0.24214
-0.255836
-0.161502
-0.272894
-0.155704
-0.276268
-0.16763
-0.158857
-0.283042
-0.32444
-0.324192
-0.271994
-0.152779
-0.154129
-0.268722
-0.00701847
0.176691
0.0714213
-0.0580411
0.114223
-0.176832
-0.168706
-0.123249
-0.0777961
-0.132945
-0.127426
-0.173954
-0.119444
0.0819243
0.0321529
0.103242
0.0607536
0.0907193
0.0379459
0.101985
0.18745
0.120349
0.1666
0.0867375
0.236332
0.125411
0.150871
-0.179124
-0.143022
-0.170367
-0.1466
-0.0722117
0.0880533
0.0265248
-0.0857799
0.039615
-0.1835
-0.160443
-0.150405
-0.19143
-0.373005
-0.372998
-0.326613
-0.231046
-0.337316
-0.217599
-0.32374
-0.20173
-0.319946
-0.212934
-0.316219
-0.183492
-0.325517
-0.184523
-0.374409
-0.370775
-0.316954
-0.195545
-0.187747
-0.317567
-0.117263
0.0358651
0.00548323
-0.104681
-0.00759948
-0.227494
-0.200233
-0.240123
-0.186254
-0.216906
-0.167887
-0.206144
-0.181134
0.0894216
0.0296946
0.0296077
0.0840046
0.0399384
0.0818979
0.0913677
0.0405496
-0.0231823
0.000236446
0.0493362
-0.0113735
0.0491257
0.0393282
-0.189197
-0.141112
-0.179121
-0.154069
-0.10047
0.0651776
-0.00109175
-0.114121
0.0116111
-0.200283
-0.178026
-0.160193
-0.213516
-0.388983
-0.373575
-0.34887
-0.267663
-0.244663
-0.37023
-0.341906
-0.216815
-0.324876
-0.236881
-0.297005
-0.173548
-0.287325
-0.185924
-0.351999
-0.367611
-0.302276
-0.209463
-0.191943
-0.318698
-0.145949
0.00748803
-0.0180498
-0.131015
-0.0328981
-0.260587
-0.237668
-0.214459
-0.277031
-0.244567
-0.185844
-0.229486
-0.206544
0.077449
0.00199598
0.0843056
0.00420567
0.0932941
0.0159411
0.0672745
0.0309617
-0.0530267
0.0540515
-0.0156707
0.0430191
-0.0290894
0.0428729
-0.0452665
-0.149735
-0.0945771
-0.0384679
-0.110408
-0.0317581
-0.0530286
0.00232741
-0.0835631
-0.0725965
-0.014985
-0.0583603
-0.00986439
-0.0016267
-0.288474
-0.145037
-0.144238
-0.268479
-0.163198
-0.409797
-0.382923
-0.35401
-0.430448
-0.389431
-0.31697
-0.369321
-0.344436
-0.398366
-0.275939
-0.377593
-0.300013
-0.449791
-0.473373
-0.40595
-0.335694
-0.308657
-0.430567
-0.228185
-0.068934
-0.124279
-0.247985
-0.106432
-0.311069
-0.246117
-0.293745
-0.270616
-0.329461
-0.306924
-0.348904
-0.279447
-0.469642
-0.409888
-0.381473
-0.495174
-0.501986
-0.480879
-0.461606
-0.345079
-0.372155
-0.438553
-0.0622826
-0.190016
-0.0386021
-0.123738
-0.0534858
-0.140715
-0.0475966
-0.0139287
-0.120216
-0.01675
-0.104619
-0.00283397
-0.0885152
-0.0281353
-0.398498
-0.321553
-0.378905
-0.348319
-0.319505
-0.194397
-0.223117
-0.341582
-0.202747
-0.418404
-0.388513
-0.358114
-0.439922
-0.549455
-0.525403
-0.527226
-0.498129
-0.557926
-0.464405
-0.517955
-0.422305
-0.491655
-0.453659
-0.448888
-0.346492
-0.427598
-0.372418
-0.492705
-0.517143
-0.456877
-0.411596
-0.381904
-0.482967
-0.386409
-0.280052
-0.244739
-0.364011
-0.266143
-0.507947
-0.477061
-0.531797
-0.442964
-0.485031
-0.399663
-0.462448
-0.431937
-0.106494
-0.234543
-0.20146
-0.136026
-0.183571
-0.12173
-0.119436
-0.156616
-0.312287
-0.222062
-0.155967
-0.240806
-0.140848
-0.173205
-0.471222
-0.392611
-0.450683
-0.420977
-0.390072
-0.24379
-0.276319
-0.412133
-0.256161
-0.492057
-0.459952
-0.430651
-0.513415
-0.620169
-0.6004
-0.596633
-0.557933
-0.53064
-0.620103
-0.589217
-0.494215
-0.567029
-0.521586
-0.526338
-0.419251
-0.503192
-0.44691
-0.569772
-0.593308
-0.534226
-0.484868
-0.45627
-0.559324
-0.454762
-0.327306
-0.296618
-0.43344
-0.317057
-0.576293
-0.535643
-0.507551
-0.597102
-0.555536
-0.469719
-0.534534
-0.498112
-0.125853
-0.27884
-0.136498
-0.237173
-0.120542
-0.219275
-0.141315
-0.17407
-0.356181
-0.155747
-0.255882
-0.172214
-0.273928
-0.158537
-0.27791
-0.493725
-0.36844
-0.285824
-0.38748
-0.262394
-0.30251
-0.229941
-0.412537
-0.349061
-0.268636
-0.329796
-0.245966
-0.251645
-0.615925
-0.50958
-0.449979
-0.596908
-0.468362
-0.730356
-0.668112
-0.645779
-0.747624
-0.712841
-0.614278
-0.694575
-0.638114
-0.64708
-0.566662
-0.627115
-0.59207
-0.678469
-0.697457
-0.653662
-0.625315
-0.600366
-0.6746
-0.557119
-0.431265
-0.431775
-0.57786
-0.41267
-0.636908
-0.544779
-0.617056
-0.571347
-0.656403
-0.605924
-0.675982
-0.580069
-0.703191
-0.684393
-0.662984
-0.72071
-0.71722
-0.70291
-0.697703
-0.633197
-0.655774
-0.680668
-0.285579
-0.524966
-0.278737
-0.39031
-0.294176
-0.406565
-0.271769
-0.243088
-0.451561
-0.262951
-0.374057
-0.247134
-0.357038
-0.257687
-0.777459
-0.683698
-0.753611
-0.718787
-0.688335
-0.600816
-0.558935
-0.709884
-0.540485
-0.800059
-0.762594
-0.730014
-0.822161
-0.861794
-0.840216
-0.843582
-0.790171
-0.82036
-0.816626
-0.771329
-0.701971
-0.740396
-0.736673
-0.801888
-0.831552
-0.781209
-0.780323
-0.747757
-0.811796
-0.745407
-0.575098
-0.728254
-0.590161
-0.860089
-0.772602
-0.841941
-0.79935
-0.342729
-0.589557
-0.484852
-0.383185
-0.470252
-0.353673
-0.371568
-0.370673
-0.497434
-0.393321
-0.508781
-0.362965
-0.401936
-0.778577
-0.675097
-0.763395
-0.694455
-0.698971
-0.599165
-0.559642
-0.713635
-0.546465
-0.792573
-0.717042
-0.700409
-0.805887
-0.772802
-0.769091
-0.763699
-0.734688
-0.757628
-0.738436
-0.690909
-0.72547
-0.709056
-0.755882
-0.766544
-0.742353
-0.730374
-0.714571
-0.75488
-0.735888
-0.570717
-0.725384
-0.580757
-0.826766
-0.721798
-0.817072
-0.340609
-0.607705
-0.36708
-0.485312
-0.356902
-0.474092
-0.349449
-0.362304
-0.375892
-0.494461
-0.383249
-0.502555
-0.356518
-0.0427644
-0.09674
-0.0652738
-0.0140245
-0.00865857
-0.0141887
-0.000944981
-0.0993331
-0.132547
-0.121804
-0.0413076
-0.0228323
-0.027296
-0.0308125
-0.165366
-0.158522
-0.176021
-0.0681351
-0.0402042
-0.0632514
-0.0406404
-0.11716
-0.160364
-0.111168
-0.0988332
-0.0770407
-0.167341
-0.131805
-0.155843
-0.113144
-0.191929
-0.117949
-0.110241
-0.182024
-0.169273
-0.199715
-0.203018
-0.128252
-0.133923
-0.139358
-0.184059
-0.214814
-0.287012
-0.170949
-0.283835
-0.208783
-0.198104
-0.274272
-0.30274
-0.33047
-0.292124
-0.217514
-0.184414
-0.226247
-0.317115
-0.299221
-0.366864
-0.182447
-0.243429
-0.309473
0.0349685
0.134686
0.109089
0.127683
0.0332922
0.153543
0.300776
0.253325
0.220611
0.200016
-0.0999115
-0.0897862
-0.0680783
-0.00998997
-0.0207285
-0.0123183
-0.0240886
-0.201683
-0.13176
-0.101266
-0.0942181
-0.211803
-0.0784042
-0.00434387
0.0305461
-0.0721803
0.0262876
-0.140351
-0.15374
-0.13498
-0.0475602
-0.0388114
-0.0340408
-0.0577622
-0.604637
-0.527537
-0.47988
-0.470215
-0.617808
-0.428885
-0.355437
-0.294631
-0.415941
-0.306456
-0.156006
-0.179134
-0.0687866
-0.038387
0.11328
0.0466437
0.16914
0.0533453
0.0476154
0.16592
0.114972
0.210128
0.164308
0.181532
0.199446
0.120687
0.292035
0.207499
0.0183516
0.120718
0.0929937
0.120593
0.0157956
-0.118811
-0.10021
-0.159225
-0.0870749
-0.0903301
-0.156062
-0.123714
0.071425
0.186574
0.134009
0.195227
0.0760994
0.101568
0.160929
0.0290382
0.0234778
0.156839
0.0259788
0.104058
0.182952
0.0779984
0.190277
0.0721543
0.279575
0.0692161
0.108093
0.0267758
0.127199
0.105175
0.0277906
0.129801
-0.0589842
0.0126963
0.0392818
-0.06525
0.0413911
0.107594
0.0418346
0.161722
0.0411066
0.110276
0.0389656
0.161419
0.0309256
-0.0432909
-0.0451539
0.0810875
-0.0410981
0.0825311
0.0294118
0.00535379
0.112042
0.0808024
0.00912751
0.108598
-0.140325
-0.104396
-0.165445
-0.0931189
-0.0975062
-0.171297
-0.131407
-0.0947523
-0.0181457
0.00888512
0.0152157
-0.103177
0.093946
0.151409
0.0214153
0.0179116
0.0974591
0.151937
0.0191561
0.0146416
-0.0770138
0.0698617
-0.073689
0.071399
-0.0694383
0.0126454
-0.0822348
-0.178049
-0.173337
-0.0420412
-0.166368
-0.036969
-0.0866437
0.0188807
-0.0623005
-0.0505453
0.074346
-0.0572312
0.0252239
0.0696862
-0.258232
-0.178608
-0.147324
-0.138314
-0.269218
-0.219555
-0.142619
-0.240162
-0.164404
-0.152302
-0.228135
-0.236341
-0.120377
-0.0414667
0.000722125
-0.111659
-0.00794172
-0.105926
-0.220949
-0.0565567
-0.213149
-0.0514494
-0.205886
-0.110734
0.000355367
-0.0954312
0.0630559
-0.0802096
0.00770785
0.0582689
-0.0878235
-0.232189
-0.112195
-0.160654
-0.221928
-0.121338
-0.390411
-0.318824
-0.28171
-0.403258
-0.271865
-0.103045
-0.181477
-0.0507688
-0.205545
-0.093547
-0.191337
-0.0588533
-0.222195
-0.34611
-0.332867
-0.190188
-0.32407
-0.183489
-0.22815
-0.291103
-0.157791
-0.21023
-0.280021
-0.168813
-0.270142
-0.16471
-0.252009
-0.175393
-0.187213
-0.26339
-0.253159
-0.442601
-0.363234
-0.323275
-0.313783
-0.453986
-0.128
-0.0653184
-0.221925
-0.248618
-0.11803
-0.0735736
-0.232234
-0.246705
-0.389284
-0.205217
-0.372064
-0.198737
-0.36381
-0.252548
-0.369591
-0.527764
-0.503247
-0.340875
-0.494839
-0.335536
-0.37468
-0.248089
-0.37916
-0.343045
-0.200401
-0.35476
-0.236995
-0.209891
-0.617103
-0.542273
-0.489482
-0.482041
-0.626741
-0.342453
-0.186714
-0.309261
-0.239138
-0.233114
-0.305059
-0.35261
-0.476504
-0.397011
-0.334473
-0.465202
-0.345698
-0.38484
-0.555171
-0.352321
-0.524324
-0.347424
-0.517363
-0.389338
-0.271888
-0.420249
-0.215316
-0.381738
-0.261128
-0.224773
-0.392715
-0.643519
-0.493046
-0.563849
-0.630653
-0.504196
-0.393461
-0.51327
-0.351193
-0.559543
-0.383477
-0.524283
-0.358852
-0.645523
-0.499703
-0.571022
-0.636262
-0.508455
-0.365553
-0.185943
-0.311741
-0.242704
-0.244551
-0.311954
-0.360467
-0.406243
-0.362312
-0.53283
-0.582332
-0.397272
-0.369755
-0.542064
-0.114351
-0.118416
0.0613888
0.124993
0.156543
0.0592965
0.153236
-0.107183
-0.0890115
0.0975764
0.185733
0.201246
0.101691
0.187876
-0.0932482
-0.0666437
-0.0795391
-0.150464
-0.0792691
-0.0353996
-0.140754
-0.0440609
-0.330623
-0.343963
-0.2804
-0.27365
-0.120623
-0.0487242
-0.0224292
-0.129656
-0.0164634
-0.212148
-0.207147
-0.251959
-0.263658
-0.536897
-0.460954
-0.394286
-0.523188
-0.406715
-0.760338
-0.778203
-0.685252
-0.672894
-0.495835
-0.421656
-0.380343
-0.509487
-0.369815
-0.567672
-0.556282
-0.640394
-0.658194
0.121798
0.0776115
0.0632787
0.190697
0.0712163
0.127221
0.175285
0.160713
0.105817
0.0930587
0.220309
0.0872839
0.167658
0.221153
-0.117325
-0.124365
0.0468345
0.113204
0.148852
0.0495251
0.139698
-0.0961255
-0.0962867
-0.224947
-0.163356
-0.180791
-0.135994
-0.180504
-0.230562
-0.160675
-0.222945
-0.231945
-0.213935
-0.203999
-0.20193
-0.250331
-0.219526
-0.217199
-0.202317
-0.21009
-0.257429
-0.198622
-0.237508
-0.228652
-0.216
-0.139485
-0.194173
-0.178734
-0.182467
-0.155641
-0.220408
-0.222613
-0.154333
-0.177721
-0.138661
-0.157895
-0.2193
-0.178691
-0.233321
-0.258306
-0.221712
-0.20655
-0.25658
-0.203606
-0.237069
-0.230975
-0.201891
-0.24885
-0.220799
-0.255516
-0.224459
-0.202501
-0.225923
-0.13946
-0.166352
-0.183005
-0.160501
-0.180038
-0.23128
0.0568303
0.150491
0.163711
0.0595675
0.162788
-0.0623115
-0.0849092
-0.107478
-0.109217
0.113489
0.0493526
0.183432
0.0646558
0.164554
0.0505796
0.131263
0.165349
0.0952818
0.2245
0.0847281
0.229702
0.0844267
0.162559
-0.121751
-0.115403
-0.000320297
0.0758206
0.0977125
-0.00558914
0.0985572
-0.141137
-0.150173
-0.0224324
0.0511533
0.0824785
-0.0162174
0.0786648
-0.193271
-0.202713
-0.16134
-0.15715
0.0871512
0.0162266
0.0117924
0.13583
0.015714
0.0850105
0.138301
0.0607722
-0.00822616
0.000122415
0.120306
-0.00766946
0.0687173
0.115103
-0.133048
-0.131311
-0.0262363
0.0515443
0.0742589
-0.0338324
0.0802622
-0.166317
-0.177062
-0.281521
-0.215413
-0.210657
-0.188132
-0.223732
-0.270856
-0.222312
-0.291662
-0.310658
-0.257902
-0.25818
-0.24911
-0.302
-0.302417
-0.281663
-0.234199
-0.251704
-0.28558
-0.241414
-0.293609
-0.272066
-0.29268
-0.197844
-0.242749
-0.247371
-0.232577
-0.234437
-0.304732
-0.251611
-0.206574
-0.160153
-0.199352
-0.189159
-0.198872
-0.260945
-0.247591
-0.26115
-0.230856
-0.210003
-0.26599
-0.241051
-0.215177
-0.255154
-0.226792
-0.234733
-0.278597
-0.272348
-0.219968
-0.263404
-0.243756
-0.15397
-0.17275
-0.187484
-0.23646
-0.18074
-0.193482
-0.05178
0.0239977
0.0644101
-0.0434379
0.055325
-0.235804
-0.248466
-0.191026
-0.18612
0.0740492
-0.0109166
0.128752
-0.0116219
0.130991
-0.00693889
0.0705368
0.0464526
-0.0372704
0.111333
-0.0239452
0.104852
-0.0327366
0.0559792
-0.0417813
-0.130859
-0.111492
0.0144645
-0.121708
-0.0315567
0.00632939
-0.0147877
-0.101316
-0.100604
0.027461
-0.0939364
-0.0192362
0.032717
-0.202879
-0.123522
-0.0749584
-0.191857
-0.0858775
-0.40677
-0.421027
-0.349843
-0.341642
-0.34236
-0.303355
-0.241323
-0.284378
-0.272553
-0.288272
-0.356154
-0.324676
-0.319919
-0.266578
-0.27896
-0.275143
-0.313362
-0.329531
-0.32941
-0.230074
-0.252368
-0.260485
-0.262267
-0.316871
-0.27411
-0.336282
-0.294527
-0.286193
-0.349201
-0.284143
-0.33932
-0.348477
-0.16944
-0.0898172
-0.0625892
-0.18008
-0.0541834
-0.264491
-0.257909
-0.316155
-0.330565
-0.383753
-0.31878
-0.296032
-0.279767
-0.334057
-0.369963
-0.307025
-0.384892
-0.389324
-0.316733
-0.333502
-0.379416
-0.323066
-0.397283
-0.372767
-0.304214
-0.35915
-0.309438
-0.369416
-0.360543
-0.313704
-0.39758
-0.291999
-0.365023
-0.330085
-0.349383
-0.31807
-0.411756
-0.0637652
-0.170487
0.00174352
-0.147818
-0.00720703
-0.15828
-0.0528536
-0.035645
-0.139412
0.0148155
-0.136306
0.0206972
-0.128866
-0.0411941
-0.361925
-0.35366
-0.289273
-0.218426
-0.185999
-0.301369
-0.176694
-0.420565
-0.435893
-0.326576
-0.255186
-0.199384
-0.314104
-0.210994
-0.526172
-0.542904
-0.458945
-0.448816
-0.146194
-0.256329
-0.247876
-0.111924
-0.239263
-0.152296
-0.105041
-0.175064
-0.290161
-0.259178
-0.123956
-0.271078
-0.163492
-0.133961
-0.440879
-0.432324
-0.348414
-0.267718
-0.233596
-0.360207
-0.223562
-0.498983
-0.513284
-0.493157
-0.385249
-0.441969
-0.37957
-0.395677
-0.480049
-0.457001
-0.477797
-0.460752
-0.370716
-0.404699
-0.395954
-0.453032
-0.488333
-0.467136
-0.379477
-0.365095
-0.436163
-0.387874
-0.444824
-0.455945
-0.505973
-0.391283
-0.416516
-0.486474
-0.405804
-0.471771
-0.518738
-0.452899
-0.374598
-0.342107
-0.426715
-0.411102
-0.362902
-0.466736
-0.42126
-0.399121
-0.338928
-0.342737
-0.408936
-0.409286
-0.351926
-0.432999
-0.370819
-0.345665
-0.427414
-0.418344
-0.360949
-0.444764
-0.439252
-0.329814
-0.380349
-0.341025
-0.425524
-0.395714
-0.352022
-0.384073
-0.303739
-0.245475
-0.37218
-0.257444
-0.591139
-0.604878
-0.533743
-0.524937
-0.171688
-0.30083
-0.126438
-0.289754
-0.120023
-0.281073
-0.177984
-0.200586
-0.334496
-0.139503
-0.300959
-0.149356
-0.312691
-0.188951
-0.323515
-0.471136
-0.429207
-0.27786
-0.441435
-0.312038
-0.287394
-0.29537
-0.436222
-0.41792
-0.266451
-0.408663
-0.301633
-0.259589
-0.565234
-0.488035
-0.420509
-0.554437
-0.431167
-0.757074
-0.768717
-0.708656
-0.701023
-0.553759
-0.540813
-0.435852
-0.45302
-0.443789
-0.527607
-0.564907
-0.507758
-0.468144
-0.412037
-0.385852
-0.419007
-0.498224
-0.475237
-0.542437
-0.42543
-0.425925
-0.500528
-0.435027
-0.530773
-0.514236
-0.516913
-0.432916
-0.390016
-0.487704
-0.425677
-0.481827
-0.525739
-0.532547
-0.45469
-0.40924
-0.543508
-0.400185
-0.624215
-0.61584
-0.678006
-0.69092
-0.585052
-0.553264
-0.460959
-0.465555
-0.565191
-0.575227
-0.468389
-0.54876
-0.506923
-0.403118
-0.45428
-0.503239
-0.448996
-0.555419
-0.541549
-0.438755
-0.493318
-0.40061
-0.498559
-0.533879
-0.444077
-0.594373
-0.474155
-0.587532
-0.482517
-0.576569
-0.475343
-0.603302
-0.342775
-0.504911
-0.291322
-0.460278
-0.300712
-0.47113
-0.332063
-0.31661
-0.473378
-0.280058
-0.450248
-0.273576
-0.441999
-0.322516
-0.804402
-0.792164
-0.704943
-0.624272
-0.5687
-0.716311
-0.561366
-0.874219
-0.890582
-0.737824
-0.654341
-0.580488
-0.727243
-0.588777
-0.91267
-0.90222
-0.43221
-0.609242
-0.577078
-0.402465
-0.570604
-0.435088
-0.399922
-0.450156
-0.635139
-0.585445
-0.412027
-0.594147
-0.442676
-0.416308
-0.783614
-0.777232
-0.688633
-0.616849
-0.555821
-0.696061
-0.551151
-0.823177
-0.832784
-0.637164
-0.503778
-0.628124
-0.51329
-0.504529
-0.634494
-0.632316
-0.578872
-0.466928
-0.405746
-0.517861
-0.466408
-0.517515
-0.577574
-0.624781
-0.501499
-0.502466
-0.622255
-0.614864
-0.497451
-0.630395
-0.566538
-0.510411
-0.408137
-0.458067
-0.513405
-0.561292
-0.461171
-0.571213
-0.466158
-0.40853
-0.517027
-0.51591
-0.463669
-0.574946
-0.618366
-0.496763
-0.59746
-0.488241
-0.61118
-0.606589
-0.493204
-0.710161
-0.638329
-0.564591
-0.703442
-0.570121
-0.843073
-0.838733
-0.44029
-0.624169
-0.411104
-0.584801
-0.409045
-0.579965
-0.442535
-0.455472
-0.645002
-0.420332
-0.591508
-0.424386
-0.59829
-0.44911
-0.00374391
-0.0320157
-0.00598203
-0.0287157
0.0402398
0.117338
0.130373
0.134061
0.0418151
0.000181722
-0.0228584
-0.0259199
0.002596
-0.422838
-0.447901
-0.408675
-0.407865
-0.439009
-0.41905
-0.396148
-0.487964
-0.471489
-0.281974
-0.303549
-0.400749
-0.385197
-0.392224
-0.292839
-0.289155
-0.375046
-0.384645
-0.404037
-0.387179
-0.284878
-0.383085
-0.394559
-0.277798
-0.276474
-0.390416
-0.288681
0.112846
0.15654
0.184436
0.169521
0.112796
0.121293
0.108815
0.0984338
0.141806
0.0805828
0.0414444
0.0726764
0.0424715
0.180067
0.17586
0.031159
0.111506
0.251477
0.11021
0.120972
-0.191373
-0.120356
-0.0743588
-0.0831501
-0.181279
-0.242225
-0.279236
-0.253407
-0.267306
-0.231922
-0.246652
-0.221699
-0.257294
-0.289567
-0.394139
-0.280575
-0.41621
-0.279544
-0.413769
-0.291931
-0.353542
-0.3519
-0.283532
-0.39055
-0.274529
-0.406628
-0.283389
-0.272476
-0.411116
-0.356769
-0.356401
-0.0866851
-0.0147036
0.0122692
0.0154052
-0.0934763
-0.11723
-0.134667
-0.110698
-0.141816
-0.125217
-0.158245
-0.133274
-0.149242
-0.342956
-0.323078
-0.462449
-0.443772
-0.470595
-0.338125
-0.325956
-0.404783
-0.398414
-0.389097
-0.392138
-0.35046
-0.450248
-0.484664
-0.339018
-0.356986
-0.477594
-0.332572
-0.591296
-0.51365
-0.444845
-0.456857
-0.577645
-0.662159
-0.71524
-0.676792
-0.699431
-0.648332
-0.670605
-0.634134
-0.68553
-0.522876
-0.614684
-0.499776
-0.669034
-0.489794
-0.658999
-0.533529
-0.524444
-0.53127
-0.511728
-0.605256
-0.471613
-0.637716
-0.502708
-0.478612
-0.649375
-0.549675
-0.540462
-0.442138
-0.369372
-0.330353
-0.320264
-0.455204
-0.478038
-0.495251
-0.464653
-0.509352
-0.491673
-0.53864
-0.506111
-0.523072
-0.645514
-0.592812
-0.772228
-0.729001
-0.785643
-0.635022
-0.601289
-0.666206
-0.655149
-0.635736
-0.644432
-0.657871
-0.739727
-0.809146
-0.623518
-0.6695
-0.797406
-0.61228
0.116021
0.0566017
0.0536053
0.170709
0.0509715
0.172004
0.116174
0.147482
0.139882
0.111671
0.239069
0.111609
0.211399
0.165015
-0.0188852
-0.0466203
-0.0223474
-0.0423756
0.0250142
0.0994046
0.12863
0.126383
0.0275976
-0.0119409
-0.033619
-0.0354859
-0.0101371
-0.192965
-0.292834
-0.202643
-0.31132
-0.191221
-0.207662
-0.321354
-0.270173
-0.286592
-0.276119
-0.267876
-0.161152
-0.314574
-0.221213
-0.270998
-0.190219
-0.324329
-0.203195
-0.222525
-0.339413
-0.223862
-0.327549
-0.341012
-0.222924
-0.219955
-0.312312
-0.311702
-0.308601
-0.305408
-0.227938
-0.332743
-0.346037
-0.227289
-0.229613
-0.34541
-0.226612
0.0733235
0.143612
0.177706
0.178112
0.0747431
0.0361361
0.00947558
0.0237249
0.0430122
0.0266126
0.000510338
0.0295235
0.00172022
0.107732
0.0333365
0.162571
0.0358161
0.165202
0.0338288
0.109176
0.148368
0.0767926
0.213007
0.100966
0.185955
0.0786216
0.163422
-0.0116246
-0.0342519
-0.00964281
-0.037573
0.02019
0.0951223
0.120884
0.117172
0.0187156
-0.0178815
-0.047251
-0.042143
-0.0211593
-0.274235
-0.376275
-0.26914
-0.389787
-0.266718
-0.274243
-0.393564
-0.350843
-0.348979
-0.279015
-0.379363
-0.272156
-0.400727
-0.280385
-0.270983
-0.396569
-0.347437
-0.345409
-0.269445
-0.380348
-0.258321
-0.387045
-0.391775
-0.267626
-0.263572
-0.372352
-0.36116
-0.264779
-0.381677
-0.400074
-0.272573