/*--------------------------------*- C++ -*----------------------------------*\
| =========                 |                                                 |
| \\      /  F ield         | OpenFOAM: The Open Source CFD Toolbox           |
|  \\    /   O peration     | Version:  2012                                  |
|   \\  /    A nd           | Website:  www.openfoam.com                      |
|    \\/     M anipulation  |                                                 |
\*---------------------------------------------------------------------------*/
FoamFile
{
    version     2.0;
    format      ascii;
    class       surfaceScalarField;
    location    "0.107/fluid";
    object      phi;
}
// * * * * * * * * * * * * * * * * * * * * * * * * * * * * * * * * * * * * * //

dimensions      [0 3 -1 0 0 0 0];
oriented        oriented;


internalField   nonuniform List<scalar> 
46515
(
3.57807e-05
0.00157261
-7.36214e-06
-4.78546e-05
3.14137e-05
1.4624e-05
1.91712e-05
1.0714e-05
-0.0015377
4.51103e-06
0.00153856
-1.65365e-05
2.00352e-05
-0.0015292
-4.476e-08
0.00152629
-1.74802e-05
1.38912e-05
-0.00152181
0.00152129
-1.31541e-05
-2.89345e-07
1.0444e-05
-0.0015209
0.00152104
-1.0107e-05
-2.83502e-07
7.51506e-06
-0.00152183
0.00152215
-7.24919e-06
-2.22985e-07
5.16694e-06
-0.00152321
0.00152358
-4.9186e-06
-1.38086e-07
3.45475e-06
-0.00152471
0.00152508
-3.21478e-06
-1.07342e-07
2.22393e-06
-0.00152614
0.00152648
-2.00422e-06
-8.59415e-08
1.49529e-06
-0.00152738
0.00152765
-1.30407e-06
-6.96111e-08
1.20616e-06
-0.00152833
0.00152851
-1.08725e-06
-4.90341e-08
1.02895e-06
-0.00152896
0.0015291
-9.89909e-07
-3.90608e-08
7.02875e-07
-0.00152944
0.00152953
-6.58139e-07
-3.52764e-08
4.63717e-07
-0.00152966
0.00152968
-4.27514e-07
-2.752e-08
2.77699e-07
-0.00152979
0.00152986
-2.47877e-07
-2.59488e-08
7.8507e-06
0.00154945
-5.65748e-08
-5.57677e-06
1.55073e-05
-0.00154182
6.90584e-07
0.00153929
-1.38801e-05
1.46893e-05
-0.00153146
0.00152932
-1.2625e-05
8.2231e-08
1.15796e-05
-0.00152501
0.00152418
-1.0294e-05
-1.19367e-07
8.60244e-06
-0.00152313
0.00152308
-7.84581e-06
-1.59952e-07
6.01365e-06
-0.00152338
0.00152357
-5.45266e-06
-1.27913e-07
3.87029e-06
-0.00152436
0.00152466
-3.44245e-06
-9.66841e-08
2.28708e-06
-0.00152562
0.00152595
-1.94904e-06
-8.49108e-08
1.23294e-06
-0.00152689
0.00152718
-9.70047e-07
-7.50518e-08
6.79774e-07
-0.00152793
0.00152815
-4.83601e-07
-6.05294e-08
5.92991e-07
-0.00152865
0.00152875
-4.18158e-07
-4.52101e-08
6.81261e-07
-0.00152901
0.00152916
-5.3317e-07
-4.32397e-08
4.11284e-07
-0.00152954
0.00152958
-3.27223e-07
-3.30767e-08
2.99607e-07
-0.00152958
0.00152957
-2.25876e-07
-2.73207e-08
1.51723e-07
-0.00152968
0.00152977
-1.00457e-07
-2.91406e-08
2.57268e-06
0.00153956
-2.27074e-06
1.60807e-07
7.2962e-06
-0.00153685
0.00153546
-5.63286e-06
2.5879e-07
7.94628e-06
-0.00153105
0.00152971
-5.99905e-06
1.11526e-07
6.66758e-06
-0.00152665
0.00152598
-5.10056e-06
-1.23551e-08
5.00761e-06
-0.00152486
0.00152469
-3.86552e-06
-5.7678e-08
3.42597e-06
-0.00152464
0.00152474
-2.63181e-06
-6.34648e-08
2.05388e-06
-0.00152527
0.0015255
-1.5587e-06
-6.25149e-08
1.01671e-06
-0.00152631
0.00152659
-7.43451e-07
-6.33395e-08
3.60129e-07
-0.00152743
0.00152769
-2.33799e-07
-6.69239e-08
8.47065e-08
-0.00152834
0.00152852
-2.77137e-08
-5.70818e-08
8.81723e-08
-0.00152893
0.00152902
-3.4013e-08
-4.87725e-08
1.70639e-07
-0.00152926
0.00152933
-1.02397e-07
-4.10391e-08
1.21119e-07
-0.00152946
0.00152946
-8.44317e-08
-2.62461e-08
4.19178e-08
-0.00152946
0.00152948
-1.39376e-08
-1.95928e-08
-1.80056e-08
-0.00152964
0.00152975
3.71788e-08
-2.70571e-08
1.73625e-05
1.86908e-06
0.00157193
3.41428e-07
-3.41473e-05
1.86835e-05
1.73645e-05
1.8697e-05
2.85741e-05
-0.00153434
-3.30399e-07
8.98189e-07
0.00153714
-3.21258e-05
1.44169e-06
1.61437e-05
-0.00153089
-5.83372e-07
0.0015288
-1.50567e-05
1.20151e-06
1.34015e-05
-0.00152465
0.0015238
-1.27623e-05
-9.07425e-07
7.66353e-07
1.04563e-05
-0.00152266
0.0015226
-1.00907e-05
-7.80054e-07
5.04666e-07
7.66367e-06
-0.00152293
0.00152315
-7.35856e-06
-6.0852e-07
3.66307e-07
5.33298e-06
-0.00152403
0.00152437
-5.04622e-06
-4.60144e-07
2.97787e-07
3.57894e-06
-0.00152542
0.00152577
-3.29184e-06
-3.71438e-07
2.48189e-07
2.315e-06
-0.00152679
0.00152711
-2.05381e-06
-3.00821e-07
1.88635e-07
1.57413e-06
-0.00152798
0.00152824
-1.36741e-06
-2.32267e-07
1.35556e-07
1.24017e-06
-0.0015289
0.00152908
-1.11154e-06
-1.73553e-07
1.02045e-07
1.08504e-06
-0.00152954
0.00152965
-1.0112e-06
-1.28559e-07
6.59956e-08
8.02945e-07
-0.00152989
0.00152994
-7.68823e-07
-8.27402e-08
3.37836e-08
5.48324e-07
-0.00153004
0.00153007
-5.28655e-07
-4.44848e-08
1.73977e-08
3.05805e-07
-0.00153018
0.00153024
-2.7721e-07
-2.18078e-08
7.58413e-06
-4.84497e-07
0.00154839
8.32344e-07
-6.0098e-06
-2.55948e-07
1.70274e-05
-0.00154169
5.29361e-07
0.00153943
-1.50359e-05
1.74626e-07
1.45676e-05
-0.00153256
0.00153064
-1.26874e-05
4.16088e-08
3.0362e-07
1.15098e-05
-0.00152653
0.00152569
-1.03148e-05
-2.41784e-07
2.50681e-07
8.53846e-06
-0.00152447
0.00152436
-7.8104e-06
-3.00966e-07
2.10521e-07
6.02025e-06
-0.00152444
0.00152457
-5.45045e-06
-2.65524e-07
2.13288e-07
3.87865e-06
-0.00152523
0.00152552
-3.42733e-06
-2.70732e-07
2.1409e-07
2.22592e-06
-0.00152644
0.00152676
-1.86586e-06
-2.76258e-07
2.05961e-07
1.16285e-06
-0.00152769
0.00152796
-8.81147e-07
-2.5672e-07
1.6994e-07
6.66537e-07
-0.00152869
0.00152889
-4.51549e-07
-2.15278e-07
1.26904e-07
5.89986e-07
-0.00152936
0.00152948
-4.08043e-07
-1.69074e-07
9.26248e-08
6.58554e-07
-0.00152973
0.00152981
-5.12535e-07
-1.20293e-07
5.06999e-08
5.4577e-07
-0.00152999
0.00153001
-4.59717e-07
-7.0442e-08
2.74046e-08
4.66188e-07
-0.00152997
0.00152996
-4.12703e-07
-3.59882e-08
1.24555e-08
1.94656e-07
-0.00153009
0.00153018
-1.72301e-07
-1.79901e-08
-5.5703e-07
2.94497e-06
0.00153896
-2.59851e-06
7.17896e-07
-3.52854e-07
7.652e-06
-0.00153667
0.00153547
-5.92677e-06
4.61413e-07
-1.59364e-07
8.11768e-06
-0.00153159
0.00153039
-6.16025e-06
2.22203e-07
-4.16597e-08
6.762e-06
-0.00152761
0.00152698
-5.1852e-06
4.8217e-08
2.53934e-08
5.04254e-06
-0.0015259
0.00152573
-3.9079e-06
-4.22079e-08
7.46541e-08
3.45307e-06
-0.00152564
0.00152571
-2.67675e-06
-1.00641e-07
1.21127e-07
2.06059e-06
-0.00152621
0.00152643
-1.58259e-06
-1.56634e-07
1.5411e-07
9.62212e-07
-0.00152722
0.0015275
-7.12379e-07
-1.98423e-07
1.67533e-07
2.81124e-07
-0.00152832
0.00152856
-1.69691e-07
-2.12836e-07
1.46398e-07
2.74403e-08
-0.00152919
0.00152935
2.53037e-08
-1.91078e-07
1.27561e-07
2.56432e-08
-0.00152972
0.00152981
2.62671e-08
-1.60405e-07
8.9433e-08
1.42063e-07
-0.00152997
0.00152999
-6.725e-08
-1.16846e-07
4.36764e-08
2.01965e-07
-0.00152999
0.00152996
-1.33308e-07
-6.29561e-08
4.80199e-09
1.97446e-07
-0.00152987
0.00152986
-1.34144e-07
-1.44524e-08
7.86407e-10
9.13047e-08
-0.00152999
0.00153009
-6.87231e-08
-1.61747e-09
1.78211e-05
-1.89344e-06
0.0015622
1.72131e-06
-3.56846e-05
1.92046e-05
1.80721e-05
1.94881e-05
3.60801e-05
-0.00152776
3.84255e-07
-6.42306e-07
0.0015299
-3.74668e-05
1.86605e-06
1.84245e-05
-0.00152526
-1.85123e-06
0.00152409
-1.67954e-05
1.75041e-06
1.38956e-05
-0.00152229
0.00152197
-1.30867e-05
-1.72918e-06
1.28705e-06
1.05888e-05
-0.00152174
0.00152183
-1.01286e-05
-1.37106e-06
9.20992e-07
7.93504e-06
-0.00152234
0.00152257
-7.56719e-06
-1.01352e-06
7.12272e-07
5.68953e-06
-0.00152342
0.00152375
-5.33077e-06
-7.85816e-07
5.75462e-07
3.90778e-06
-0.0015248
0.00152515
-3.56353e-06
-6.25214e-07
4.56145e-07
2.64462e-06
-0.0015262
0.00152653
-2.33979e-06
-4.92654e-07
3.56435e-07
1.85983e-06
-0.0015275
0.0015278
-1.63306e-06
-3.91594e-07
2.78337e-07
1.40825e-06
-0.0015286
0.00152882
-1.2667e-06
-3.05342e-07
2.01857e-07
1.1383e-06
-0.00152933
0.00152945
-1.07119e-06
-2.23773e-07
1.27176e-07
9.47785e-07
-0.00152968
0.00152972
-9.21926e-07
-1.39154e-07
6.75492e-08
7.16847e-07
-0.00152986
0.00152991
-6.99271e-07
-7.31076e-08
3.58732e-08
3.78806e-07
-0.00153013
0.00153022
-3.41152e-07
-3.85536e-08
9.88892e-06
-1.28784e-06
0.00154223
1.45719e-06
-7.95619e-06
-3.69961e-07
1.8814e-05
-0.00153656
4.12528e-07
0.00153466
-1.63981e-05
3.82122e-07
1.51767e-05
-0.00152915
0.00152771
-1.31323e-05
-3.86489e-07
5.89904e-07
1.12944e-05
-0.0015249
0.00152436
-1.01014e-05
-6.52146e-07
5.32532e-07
8.35823e-06
-0.00152361
0.00152355
-7.62335e-06
-6.09177e-07
4.64433e-07
6.04548e-06
-0.0015238
0.00152398
-5.45016e-06
-5.32538e-07
4.49711e-07
3.97472e-06
-0.00152474
0.00152505
-3.50321e-06
-5.06967e-07
4.40239e-07
2.35825e-06
-0.00152602
0.00152634
-1.97807e-06
-4.82247e-07
3.99577e-07
1.33608e-06
-0.00152729
0.00152758
-1.02941e-06
-4.39744e-07
3.395e-07
8.6856e-07
-0.00152837
0.00152859
-6.28392e-07
-3.69198e-07
2.70415e-07
7.52441e-07
-0.00152915
0.00152929
-5.73521e-07
-2.96474e-07
2.00793e-07
8.00362e-07
-0.00152959
0.00152965
-6.91126e-07
-2.21042e-07
1.20471e-07
7.7725e-07
-0.00152976
0.00152977
-7.10631e-07
-1.34592e-07
6.26205e-08
6.27943e-07
-0.0015298
0.00152985
-5.8765e-07
-6.94963e-08
2.90765e-08
2.37058e-07
-0.00153007
0.00153017
-2.21785e-07
-3.0579e-08
-1.0344e-06
3.98878e-06
0.00153524
-3.34949e-06
1.13732e-06
-5.41017e-07
8.14126e-06
-0.00153328
0.00153229
-6.27822e-06
5.63298e-07
-1.61891e-07
8.20904e-06
-0.00152922
0.0015283
-6.2293e-06
1.26829e-07
4.88484e-08
6.65968e-06
-0.00152621
0.00152575
-5.13259e-06
-1.01078e-07
1.48731e-07
4.97884e-06
-0.00152501
0.00152491
-3.89395e-06
-1.97913e-07
2.19562e-07
3.49983e-06
-0.00152498
0.0015251
-2.74268e-06
-2.63128e-07
2.7956e-07
2.16408e-06
-0.00152569
0.00152594
-1.68756e-06
-3.21336e-07
3.3163e-07
1.06747e-06
-0.00152681
0.00152711
-8.13432e-07
-3.70126e-07
3.41403e-07
3.94412e-07
-0.00152802
0.0015283
-2.75388e-07
-3.77737e-07
3.06384e-07
1.41555e-07
-0.00152899
0.00152918
-6.59639e-08
-3.37822e-07
2.57543e-07
1.55646e-07
-0.00152961
0.00152971
-7.67496e-08
-2.81229e-07
1.88442e-07
3.34559e-07
-0.00152983
0.00152983
-2.36263e-07
-2.07565e-07
1.13475e-07
4.41115e-07
-0.00152978
0.00152974
-3.38092e-07
-1.22353e-07
4.17965e-08
3.87069e-07
-0.00152966
0.00152966
-3.02078e-07
-4.69352e-08
8.53845e-09
1.88855e-07
-0.00152986
0.00152999
-1.64533e-07
-9.09337e-09
3.81768e-05
0.000307518
-9.00566e-06
0.0015282
-1.34235e-05
1.10719e-05
-0.00155123
2.50896e-05
2.88957e-07
-1.74298e-05
-4.23613e-07
2.32589e-05
0.000415839
3.73916e-06
0.00151756
-4.92086e-05
-5.13211e-06
5.12349e-05
-0.0015183
2.29432e-05
0.00041594
3.61128e-07
0.00150916
-3.97629e-05
3.63759e-05
-0.00150379
1.72049e-06
-3.03225e-07
-1.77524e-05
1.99393e-07
2.31283e-05
0.000412734
-1.38769e-06
0.00150811
-4.77253e-05
1.11337e-07
4.74097e-05
-0.00150621
2.32012e-05
0.000412096
-4.36291e-07
0.00150275
-4.60899e-05
4.47102e-05
-0.0014997
-2.5563e-06
5.08219e-06
-1.93923e-07
-5.12676e-06
2.38769e-07
3.09401e-06
1.47996e-07
-3.24134e-06
-2.35136e-06
2.206e-05
0.00151882
0.00151426
-2.03644e-05
1.96761e-05
-0.00151401
-2.02615e-08
2.64327e-06
-4.30696e-05
-6.56923e-06
4.60238e-05
0.00151832
-2.72869e-06
0.00151232
-2.75634e-05
-6.98423e-08
3.05362e-05
-0.0015128
-0.0015335
3.7858e-06
-2.17705e-05
1.3e-05
0.00156272
1.22424e-07
0.00153653
-1.48949e-05
2.02197e-05
-0.00154414
1.91444e-06
1.75001e-05
1.85969e-05
1.86736e-05
3.13561e-06
0.00157646
-3.41315e-05
3.54223e-07
0.00154008
-9.65767e-07
-0.00153847
-5.03979e-05
8.41317e-07
-7.8911e-06
-1.0792e-06
1.20742e-05
0.001565
7.99941e-07
0.00153801
-1.80739e-05
-1.39012e-06
2.72496e-05
-0.00154682
5.17171e-06
-2.70687e-08
3.26486e-08
-5.17731e-06
7.63674e-08
5.05644e-06
-7.63265e-08
-5.05633e-06
2.28884e-05
1.2393e-06
0.00151611
0.00151779
-1.71926e-05
1.48358e-05
-0.00151697
-1.39407e-06
-1.82972e-06
-3.9417e-05
7.72682e-07
3.82415e-05
0.00151059
-3.02112e-06
0.00151084
-2.37245e-05
2.24747e-06
2.3068e-05
-0.00150919
-0.00153071
1.03657e-06
-4.41874e-05
1.17196e-05
0.00156275
8.80038e-07
0.0015363
-1.65802e-05
2.48668e-05
-0.00154464
7.07927e-07
1.75494e-05
1.91259e-05
1.8895e-05
-1.81407e-06
0.00156599
-3.51825e-05
3.09082e-07
0.00153207
-8.05924e-07
-0.00152907
-4.99166e-05
-2.11597e-07
-9.39702e-06
-2.2163e-07
1.36588e-05
0.00155776
-1.13803e-06
0.00153284
-1.87075e-05
3.46588e-07
2.79067e-05
-0.00154095
5.02568e-06
-4.35708e-09
9.72512e-09
-5.03118e-06
6.22812e-09
5.0457e-06
-7.12891e-09
-5.04501e-06
3.29652e-05
-2.82739e-06
0.00150729
0.0015115
-2.03611e-05
1.84499e-05
-0.00150899
-3.22422e-06
-0.00152432
4.82225e-09
-4.87071e-05
1.41037e-05
0.00155527
-5.72811e-07
0.00153114
-1.84888e-05
2.74269e-05
-0.00153894
-1.78176e-06
-6.81974e-07
-5.35278e-06
1.03966e-05
7.20555e-07
-2.20821e-05
3.40428e-05
-0.000343445
-0.000342509
0.00146769
-3.17605e-05
-4.01728e-05
-0.0003473
-0.000345965
0.00145989
3.28403e-08
-6.80038e-06
9.86365e-06
5.38189e-06
9.0557e-09
-5.39676e-06
6.2724e-09
0.00035669
-2.33299e-05
-0.000328746
-2.49337e-05
2.03154e-05
-3.61427e-07
-2.03501e-05
3.09856e-06
2.57774e-05
0.000418756
0.000393479
-2.89394e-06
-2.07668e-05
2.82662e-05
-2.37126e-06
-0.000395713
3.15572e-06
-5.09681e-08
-3.10422e-06
2.30284e-08
1.11534e-05
-5.79923e-06
6.03263e-09
2.88367e-05
-0.000395047
-0.000372798
-0.00035034
-0.000382007
0.00151626
-3.62181e-06
2.17935e-05
2.90259e-05
3.76823e-05
2.4833e-05
-4.40879e-05
-0.000455487
-0.000364899
-0.000439967
4.59964e-05
-0.00151291
1.51552e-05
0.0015269
-5.02847e-05
1.04939e-05
-0.000378663
-0.000360371
-0.000359001
-0.000382077
0.00151255
1.19183e-05
1.74159e-05
3.01945e-05
2.62721e-05
1.55747e-05
-6.96795e-05
-0.00038221
-0.0003926
-0.000380033
3.22878e-07
6.18759e-06
-3.35331e-06
4.89967e-06
-4.91167e-06
-1.81728e-07
5.17863e-06
8.68194e-08
-5.18889e-06
-5.04164e-06
9.87123e-06
-6.11703e-07
1.52172e-05
-3.32455e-05
-0.000356203
-0.000354704
0.00148263
1.97389e-05
-0.000340713
-0.000342228
0.00146118
-3.08138e-07
2.90576e-07
-5.39108e-06
1.05866e-05
5.36121e-06
-5.34816e-06
-3.53895e-09
-1.7737e-05
-3.22389e-08
2.35834e-05
0.000419134
0.000393373
-6.7122e-07
-1.82936e-05
-0.000398341
-8.68841e-07
2.4804e-05
0.00038919
-1.90317e-05
2.48693e-05
-0.000398642
7.21971e-07
5.43586e-06
-7.85557e-09
1.15443e-08
-5.43908e-06
1.12113e-05
-5.80568e-06
-2.0046e-08
3.03101e-05
-0.00150088
0.00151321
-3.27817e-05
-8.20919e-06
3.58138e-06
-0.000378611
-0.000359527
-0.000359078
-0.000379085
0.00149885
-2.3684e-06
3.25223e-06
1.86468e-05
3.03231e-05
2.98882e-05
1.85809e-05
-6.56324e-05
-0.000393261
-0.000382255
-0.000382063
-0.00036911
-0.000348886
-0.000368638
-0.000349175
0.00148805
1.99333e-05
3.10291e-05
2.0041e-05
3.21444e-05
-6.1857e-05
-0.000378
-0.000388391
-0.000377066
-4.51888e-08
4.76412e-08
1.1278e-05
-5.84302e-06
-1.23521e-07
1.11707e-07
-5.38454e-06
1.05672e-05
-2.7033e-07
-5.28446e-06
1.03024e-05
5.43848e-06
-4.38407e-09
6.88363e-09
-5.44052e-06
0.000390429
-1.86486e-05
-0.000397676
2.49415e-05
2.86622e-07
3.77319e-08
-1.73265e-05
-2.29351e-07
2.29235e-05
0.000414502
5.4205e-06
-8.86977e-09
-5.41901e-06
0.000391922
-4.70316e-07
-1.8577e-05
2.48192e-05
-2.78492e-07
-0.000397406
-2.27489e-08
2.20266e-08
1.12892e-05
-5.84814e-06
1.76698e-06
-0.000370498
-0.00035109
-0.000370862
-0.000350636
0.00148245
1.80426e-06
1.95838e-05
3.11587e-05
1.95498e-05
3.12754e-05
-6.48875e-05
-0.000379321
-0.000390123
-0.000379041
4.86497e-05
-0.00151352
6.62984e-07
0.00151412
-4.81352e-05
-5.27609e-08
1.12677e-05
-5.83803e-06
3.00322e-07
-0.000376213
-0.000356736
-0.000356698
-0.000376217
0.00149241
6.78335e-07
1.91369e-05
3.06451e-05
3.04928e-05
1.92312e-05
-6.59919e-05
-0.000380779
-0.000392066
-0.000380941
5.09447e-06
-5.0941e-06
-2.7221e-08
5.10633e-06
1.08526e-08
-5.11117e-06
-5.31988e-06
1.03952e-05
-1.05255e-07
-4.37023e-08
3.94901e-08
-5.31097e-06
1.04201e-05
5.41956e-06
-5.4197e-06
-3.77888e-09
-1.7498e-05
-1.50337e-08
2.29965e-05
0.000414082
0.000390274
-6.50323e-07
-1.91878e-05
-0.000395941
2.86106e-07
2.52477e-05
0.000390104
-1.88692e-05
2.50976e-05
-0.000396606
-1.83794e-07
5.44693e-06
-3.16599e-09
6.30073e-09
-5.44961e-06
1.1259e-05
-5.83487e-06
-2.54394e-08
4.11079e-05
-0.00150283
0.00150624
-4.35744e-05
4.66232e-07
-1.97058e-06
-0.000373566
-0.000353904
-0.000353978
-0.000373436
0.00148487
-1.44108e-07
-1.28636e-06
1.96778e-05
3.12185e-05
3.10205e-05
1.98265e-05
-6.71624e-05
-0.000390487
-0.000378906
-0.000379231
-0.000371006
-0.000351784
-0.000371484
-0.00035125
0.00148022
1.97536e-05
3.116e-05
1.96648e-05
3.1259e-05
-6.63788e-05
-0.000378956
-0.000389798
-0.000378578
-9.80758e-09
9.92852e-09
1.13309e-05
-5.88196e-06
-3.88615e-08
3.84972e-08
-5.21252e-06
1.02359e-05
-3.67584e-08
-5.25541e-06
1.02928e-05
5.47495e-06
-8.52205e-09
1.35191e-08
-5.47952e-06
0.000389252
-1.92935e-05
-0.000395263
2.54271e-05
-7.37249e-07
-6.73741e-07
-1.83069e-05
6.2729e-07
2.34401e-05
0.000410496
5.42187e-06
-3.00737e-09
-5.42158e-06
0.00038872
-1.43432e-06
-1.98071e-05
2.57697e-05
1.12116e-06
-0.000394308
-2.94286e-08
3.02813e-08
1.14204e-05
-5.94414e-06
-2.95204e-06
-0.000370751
-0.00035148
-0.000371141
-0.000351069
0.00147758
-2.56489e-06
2.02519e-05
3.15194e-05
2.00768e-05
3.16992e-05
-6.77049e-05
-0.000377899
-0.000388956
-0.000377506
4.79923e-05
-0.00149964
-4.78174e-06
0.00150258
-4.79804e-05
-1.29599e-08
1.12878e-05
-5.86069e-06
-5.31751e-06
-0.000371522
-0.000351718
-0.000351931
-0.000371286
0.00147864
-5.30592e-06
2.03502e-05
3.19338e-05
3.17025e-05
2.05539e-05
-6.83081e-05
-0.000377137
-0.000388914
-0.000377481
4.95067e-06
-4.94687e-06
-8.65399e-09
-5.13722e-06
1.00889e-05
-4.25459e-08
5.42533e-06
-5.42209e-06
-1.13363e-08
-1.82709e-05
-8.58011e-07
2.34326e-05
0.000409623
0.00038807
-1.97062e-05
2.58039e-05
-0.00039365
-1.87879e-06
1.13319e-05
-5.89633e-06
-3.75124e-08
4.77377e-05
-0.00149616
0.00149964
-4.73545e-05
-0.000370079
-0.000350756
-0.000370352
-0.000350492
0.00147522
2.08752e-05
3.20375e-05
2.06737e-05
3.22581e-05
-6.82537e-05
-0.000376555
-0.000387946
-0.000376256
-2.46278e-07
4.95642e-06
1.86306e-07
-4.89609e-06
5.65093e-06
-1.82753e-08
-5.87857e-06
2.3233e-10
5.08532e-06
-6.14392e-09
-5.0794e-06
5.18999e-06
1.73905e-08
-5.20712e-06
-4.93907e-09
5.00196e-06
2.75647e-09
-4.99982e-06
5.06398e-06
1.83577e-09
-5.07061e-06
1.62723e-05
8.43762e-08
-2.45013e-05
-8.84827e-05
-7.0682e-05
-7.12112e-05
-8.87118e-05
-8.92563e-07
6.03408e-07
-4.80655e-06
1.00528e-05
2.88326e-06
-1.82416e-05
-9.03168e-05
-7.17278e-05
-9.20779e-05
-7.02565e-05
-3.69753e-07
-6.71401e-06
1.18429e-05
-2.34342e-05
-1.0396e-06
-8.65634e-05
-7.38083e-05
-6.68351e-05
-8.28549e-05
3.2547e-05
-8.72454e-05
-7.16081e-05
-8.67534e-05
-7.39948e-05
-0.000114381
2.1559e-06
-1.10255e-05
1.56983e-05
0.000109655
-2.09889e-06
1.54274e-06
0.000398193
-2.30408e-06
1.22229e-05
1.70909e-05
1.69567e-05
1.23442e-05
-3.84022e-05
-0.000106255
-0.000102506
-0.000102711
-0.000106131
-1.55297e-07
5.09479e-06
1.13269e-07
-5.05231e-06
2.8103e-06
0.00039741
1.16498e-05
1.57403e-05
1.15169e-05
1.59795e-05
-3.37522e-05
-0.000105468
-0.000105217
-0.000102207
-0.000106882
-0.000111737
-8.62565e-07
-1.1201e-05
1.47782e-06
1.54386e-05
0.000106888
-2.50101e-06
0.000137132
-8.68901e-06
1.06602e-05
-0.000139346
2.74603e-06
-1.27088e-05
1.77936e-05
-1.33137e-06
8.15406e-05
-1.96574e-06
-7.99806e-06
0.000146707
2.52339e-06
1.06166e-05
7.54593e-05
-1.10644e-05
-3.5875e-06
-7.48681e-05
1.40638e-05
-1.12397e-05
1.38319e-05
-0.000117004
-2.46703e-06
-5.59108e-07
-1.03318e-05
1.40217e-05
1.03728e-06
0.000124986
-1.15374e-05
0.000126319
1.52272e-05
-1.6741e-06
-8.86908e-07
-1.07318e-05
1.52409e-06
1.32721e-05
-0.000114912
-9.63476e-06
1.42419e-05
0.000131811
2.87322e-06
5.0799e-06
-1.3202e-07
-5.10273e-06
-1.92545e-05
0.000402947
7.50913e-06
1.56973e-05
1.25063e-05
1.04402e-05
-2.21884e-05
-0.000109991
-8.45154e-05
-0.000117564
-9.55579e-05
0.000450756
1.35908e-05
1.83651e-05
1.21955e-05
1.96586e-05
-3.69551e-05
-0.000123214
-0.000125006
-0.000122535
-0.000123267
-1.00753e-05
-5.76692e-06
1.38345e-05
7.74714e-05
3.00239e-05
-0.000381214
7.34104e-06
-1.7378e-05
-6.08107e-06
-2.35169e-05
-2.29745e-06
-9.05415e-05
-7.36364e-05
-7.37693e-05
-9.04086e-05
-4.45472e-06
0.000381438
-2.11982e-07
1.06507e-05
1.51294e-05
1.50517e-05
1.08366e-05
-8.73778e-07
6.86878e-07
1.0826e-05
-5.54313e-06
-1.88142e-05
-9.16299e-05
-7.51484e-05
-7.65853e-05
-9.10848e-05
-8.34105e-06
9.67059e-06
1.3474e-05
1.36244e-05
9.63406e-06
-1.21988e-06
2.01425e-05
-0.000409625
-1.13717e-06
-6.98366e-07
1.03502e-05
-5.44463e-06
9.9858e-07
-3.07414e-05
-0.000100084
-8.03263e-05
-7.90003e-05
-8.4658e-05
-9.36076e-06
0.000389045
1.12574e-05
1.70006e-05
1.24136e-05
1.16485e-05
-8.85052e-05
-6.95288e-05
-6.90214e-05
-8.83788e-05
1.26354e-05
1.72793e-05
1.86432e-05
1.25935e-05
-1.18472e-08
5.20203e-06
5.3244e-08
-5.24319e-06
4.94665e-06
-2.97317e-08
-4.92852e-06
-1.09348e-05
-3.43998e-06
-8.96555e-05
-7.11475e-05
-8.9931e-05
-7.14095e-05
-3.40668e-08
1.22762e-07
-5.58228e-06
1.06955e-05
3.55888e-07
2.15295e-06
-8.84021e-05
-7.15763e-05
-8.89978e-05
-7.1089e-05
-5.20016e-08
-5.11954e-06
1.00839e-05
4.77859e-06
-4.4824e-06
-1.11356e-05
-9.11424e-05
-7.29568e-05
-7.29539e-05
-9.114e-05
-5.954e-06
-9.16271e-05
-7.27348e-05
-9.13171e-05
-7.31264e-05
-0.000111964
9.31001e-08
-1.06846e-05
6.91645e-08
1.49098e-05
0.000107579
-1.62653e-07
0.000399911
1.17478e-05
1.63899e-05
1.16855e-05
1.64828e-05
-3.55748e-05
-0.000107104
-0.000104081
-0.000107096
-0.000104458
3.50908e-08
5.37023e-06
-1.93771e-08
-5.38548e-06
-0.000112697
-1.06422e-05
-6.3378e-07
1.49367e-05
0.000108177
1.13618e-06
0.000399515
1.19116e-05
1.68186e-05
1.20247e-05
1.67117e-05
-3.71759e-05
-0.000106772
-0.00010352
-0.00010393
-0.000106838
-5.38304e-10
0.000111856
-1.00352e-05
-0.000114356
1.25396e-05
-2.37461e-09
2.48328e-09
-9.7268e-06
1.33876e-05
5.72e-08
0.000123072
7.99099e-08
-9.7723e-06
0.000123279
-2.02191e-08
1.34658e-05
0.000111732
-3.24069e-08
-1.00716e-05
4.88785e-08
-0.000114207
1.25313e-05
-1.0168e-05
-0.000114628
1.54301e-07
1.26791e-05
-1.01091e-05
1.37418e-05
-2.85069e-07
0.000124789
-9.69385e-06
0.000123727
1.32e-07
1.34145e-05
-1.02833e-05
-6.21149e-07
1.27788e-05
-0.000115456
-1.04369e-05
1.47019e-05
0.000107647
4.01986e-08
5.42175e-06
2.61154e-08
-5.41231e-06
-6.43639e-07
0.000402306
-4.11717e-08
1.16927e-05
1.658e-05
1.65067e-05
1.17691e-05
-3.60096e-05
-0.000107073
-0.000103772
-0.000104139
-0.000107131
0.000402239
1.16461e-05
1.64083e-05
1.16504e-05
1.64112e-05
-3.54644e-05
-0.0001071
-0.000103888
-0.000107168
-0.000104197
-2.7946e-08
-1.0514e-05
6.54515e-09
1.47167e-05
0.000107553
-1.68927e-06
2.54431e-05
-0.000378431
5.52433e-06
-2.74449e-05
1.65657e-06
-9.05549e-05
-7.38808e-05
-9.05613e-05
-7.38011e-05
0.000378924
1.27886e-06
1.05974e-05
1.46662e-05
1.05393e-05
1.47802e-05
1.93305e-07
-1.20027e-07
1.1066e-05
-5.7676e-06
6.24015e-06
-8.99439e-05
-7.31088e-05
-7.29284e-05
-9.01479e-05
2.77738e-06
1.08023e-05
1.51299e-05
1.50386e-05
1.08172e-05
2.72763e-05
-0.000383445
1.7601e-06
1.39136e-07
1.13159e-05
-5.83849e-06
-1.92488e-06
-2.67731e-05
-2.54011e-06
-9.16347e-05
-7.46822e-05
-7.48417e-05
-9.15815e-05
-1.33735e-06
0.00038347
-2.70072e-07
1.05927e-05
1.48307e-05
1.47731e-05
1.06306e-05
-9.18033e-05
-7.4844e-05
-7.50904e-05
-9.16661e-05
1.04475e-05
1.4619e-05
1.46353e-05
1.04832e-05
-2.02077e-06
-4.80436e-09
-5.41704e-10
-5.2963e-06
1.03863e-05
2.01945e-06
-4.28582e-06
-5.3874e-06
-9.10478e-05
-7.3205e-05
-7.3231e-05
-9.10401e-05
-8.69807e-07
-4.31802e-06
-9.11507e-05
-7.31277e-05
-9.1038e-05
-7.32586e-05
3.20127e-08
-5.46214e-06
1.06147e-05
-5.01159e-06
-2.38373e-06
-9.00925e-05
-7.23941e-05
-9.02374e-05
-7.23747e-05
-1.76977e-06
-8.99268e-05
-7.24937e-05
-9.01647e-05
-7.23087e-05
-1.52635e-07
-0.000111501
-1.04504e-05
1.46502e-05
0.000107364
9.25254e-08
-1.54392e-08
5.42697e-06
1.31902e-08
-5.42425e-06
-4.61887e-07
0.000401175
9.56995e-09
1.16305e-05
1.65398e-05
1.64916e-05
1.16806e-05
-3.59284e-05
-0.000106821
-0.000103509
-0.000103894
-0.000106861
-8.52225e-07
0.000401368
1.16308e-05
1.65067e-05
1.1678e-05
1.64756e-05
-3.58739e-05
-0.000106847
-0.000103621
-0.000106969
-0.000103908
-0.000111367
6.70451e-09
-1.04813e-05
-5.90211e-08
1.46569e-05
0.000107245
0.000111572
1.24556e-07
-1.00392e-05
1.24987e-05
-1.02707e-07
-0.000114053
-9.64866e-06
1.32941e-05
0.000123179
8.57786e-08
0.000111777
-1.00378e-05
1.33775e-08
-0.000114284
1.25004e-05
1.02826e-07
-9.60752e-06
0.000122891
-7.30726e-08
1.32756e-05
-1.05234e-05
1.47045e-05
-1.44468e-07
0.000107384
5.40992e-06
-6.9496e-09
-5.41794e-06
4.08373e-07
0.000400805
1.17204e-05
1.65741e-05
1.17629e-05
1.65475e-05
-3.61098e-05
-0.000106926
-0.000103719
-0.000107075
-0.000103983
-1.04995e-05
-1.11043e-08
1.47023e-05
0.00010756
0.000400475
1.1715e-05
1.66119e-05
1.17759e-05
1.65559e-05
-3.62531e-05
-0.000106862
-0.000103556
-0.00010693
-0.000103929
-9.9868e-06
1.24532e-05
-0.000113941
9.84165e-08
1.24294e-08
-9.6084e-06
1.32566e-05
7.94387e-09
0.000122549
-9.60096e-06
0.000122716
1.32703e-05
1.10191e-07
4.95055e-09
-1.0012e-05
-2.48658e-08
1.2459e-05
-0.000113794
2.69275e-05
-0.000381994
7.00287e-07
-2.66954e-06
-8.47151e-08
6.84598e-08
1.12822e-05
-5.83727e-06
-8.07282e-07
-2.69669e-05
-1.61444e-06
-9.13924e-05
-7.43704e-05
-7.44783e-05
-9.13602e-05
-6.37521e-07
0.000381862
-2.55547e-07
1.06282e-05
1.48404e-05
1.48008e-05
1.06533e-05
-3.06784e-06
-9.14272e-05
-7.44411e-05
-7.45172e-05
-9.14072e-05
-1.38857e-06
1.05717e-05
1.47674e-05
1.47599e-05
1.05894e-05
-1.35562e-06
-2.37507e-07
2.64189e-05
-0.000379736
-5.81709e-08
1.11971e-05
-5.81201e-06
-2.66334e-05
1.37715e-07
-9.07693e-05
-7.39863e-05
-9.09332e-05
-7.37944e-05
0.000380169
5.05396e-07
1.06694e-05
1.48792e-05
1.06685e-05
1.4868e-05
-9.06782e-05
-7.37478e-05
-7.36756e-05
-9.07846e-05
1.06897e-05
1.49281e-05
1.48796e-05
1.06978e-05
6.21819e-09
5.14208e-06
3.1868e-09
-5.15145e-06
5.07852e-06
3.96366e-09
-5.07627e-06
-2.57801e-06
-3.03498e-06
-9.02475e-05
-7.27779e-05
-9.03836e-05
-7.271e-05
1.79642e-08
-6.13003e-11
-5.37848e-06
1.05009e-05
2.52368e-07
-2.97095e-06
-9.01489e-05
-7.27133e-05
-9.02581e-05
-7.26622e-05
1.63352e-08
-5.29047e-06
1.03687e-05
1.19213e-06
-4.3347e-06
-2.84453e-06
-9.05405e-05
-7.29672e-05
-7.29924e-05
-9.0562e-05
-4.15409e-06
-9.06088e-05
-7.29906e-05
-9.05965e-05
-7.30163e-05
-0.000111148
3.02746e-08
-1.05374e-05
-5.00442e-08
1.46869e-05
0.00010702
1.28363e-07
0.000399958
1.16474e-05
1.65701e-05
1.17082e-05
1.6529e-05
-3.61571e-05
-0.000106569
-0.000103383
-0.000106717
-0.00010365
6.49791e-09
5.42594e-06
-1.5688e-09
-5.43041e-06
-0.000111304
-1.05048e-05
-1.91985e-08
1.46749e-05
0.000107161
2.98629e-07
0.000399569
1.16459e-05
1.6582e-05
1.16919e-05
1.65377e-05
-3.61803e-05
-0.000106526
-0.000103246
-0.000103614
-0.000106573
-1.71025e-08
0.000111083
-1.00318e-05
-0.000113502
1.2473e-05
-4.77625e-09
-4.22991e-08
-9.62117e-06
1.3236e-05
6.81469e-08
0.000122041
-1.53342e-08
-9.60206e-06
0.000122215
2.66036e-08
1.32409e-05
0.000110942
-6.40899e-08
-1.00639e-05
4.89893e-08
-0.000113352
1.24886e-05
-1.00509e-05
-0.000113582
-1.49618e-08
1.24828e-05
-9.60473e-06
1.32486e-05
4.6662e-08
0.000122525
-9.61147e-06
0.00012233
1.41352e-08
1.32452e-05
-1.00262e-05
6.01988e-09
1.24714e-05
-0.000113749
-1.05157e-05
1.46766e-05
0.000106976
-2.15824e-08
5.42195e-06
6.39334e-09
-5.42139e-06
-5.87618e-08
0.000399446
-2.2269e-07
1.16095e-05
1.65891e-05
1.65414e-05
1.16574e-05
-3.61703e-05
-0.000106346
-0.000103113
-0.000103487
-0.00010638
0.000399732
1.16042e-05
1.65595e-05
1.16652e-05
1.65206e-05
-3.61246e-05
-0.000106381
-0.000103235
-0.000106517
-0.000103521
-6.13068e-08
-1.05568e-05
1.68466e-08
1.46956e-05
0.000106849
2.21715e-07
2.68128e-05
-0.000379193
9.4872e-07
-2.68018e-05
-2.74178e-07
-9.07619e-05
-7.39e-05
-9.09058e-05
-7.37523e-05
0.000379707
5.8236e-08
1.06998e-05
1.48982e-05
1.07014e-05
1.48767e-05
4.16903e-08
-2.79739e-08
1.12579e-05
-5.8437e-06
1.14744e-06
-9.06903e-05
-7.36859e-05
-7.36784e-05
-9.07413e-05
4.95429e-07
1.07187e-05
1.49336e-05
1.48917e-05
1.07343e-05
2.71241e-05
-0.000380043
3.64453e-08
3.32444e-08
1.1278e-05
-5.84557e-06
-1.15334e-07
-2.72809e-05
-1.0818e-06
-9.09282e-05
-7.39e-05
-7.39604e-05
-9.09357e-05
-1.08976e-07
0.000379801
-3.67325e-07
1.07568e-05
1.49656e-05
1.49192e-05
1.07878e-05
-9.09641e-05
-7.39864e-05
-7.39869e-05
-9.09983e-05
1.07055e-05
1.48892e-05
1.48766e-05
1.0712e-05
-9.9984e-07
-2.42717e-09
9.66223e-10
-5.19885e-06
1.02e-05
1.51898e-06
-4.94992e-06
-2.44809e-06
-9.00192e-05
-7.26404e-05
-7.2661e-05
-9.00555e-05
7.40538e-07
-4.70047e-06
-9.0112e-05
-7.27128e-05
-9.01335e-05
-7.27008e-05
5.99778e-09
-5.27095e-06
1.0325e-05
-1.78223e-06
-3.90547e-06
-9.01046e-05
-7.2736e-05
-9.0194e-05
-7.26798e-05
-4.05681e-06
-9.00128e-05
-7.26378e-05
-9.00806e-05
-7.26334e-05
1.05355e-07
-0.000110601
-1.06041e-05
1.473e-05
0.000106536
-1.64366e-07
1.35002e-09
5.42326e-06
-1.98144e-09
-5.42218e-06
6.19206e-07
0.000397614
-9.27499e-07
1.15798e-05
1.66485e-05
1.65953e-05
1.16302e-05
-3.65246e-05
-0.000105729
-0.00010265
-0.000103024
-0.000105747
3.64351e-07
0.000397987
1.15787e-05
1.66223e-05
1.16464e-05
1.65825e-05
-3.64463e-05
-0.000105799
-0.000102804
-0.000105949
-0.000103085
-0.000110414
-2.05964e-07
-1.06474e-05
1.55002e-07
1.47486e-05
0.000106365
0.00011069
-1.06906e-07
-1.01018e-05
1.25105e-05
9.82318e-08
-0.00011309
-9.62149e-06
1.32377e-05
0.000121953
-1.88224e-08
0.000110859
-1.00682e-05
-7.91942e-08
-0.00011327
1.24951e-05
-5.253e-08
-9.64029e-06
0.000121745
8.74082e-08
1.32303e-05
-1.0612e-05
1.47291e-05
7.04526e-08
0.000106608
5.45159e-06
5.98984e-09
-5.45579e-06
-2.9109e-07
0.000398652
1.16057e-05
1.66082e-05
1.16713e-05
1.65673e-05
-3.63383e-05
-0.000106086
-0.000103013
-0.000106239
-0.000103289
-1.0567e-05
-1.06963e-07
1.47058e-05
0.000106767
0.000398275
1.1611e-05
1.66303e-05
1.16586e-05
1.65813e-05
-3.64092e-05
-0.000106032
-0.000102867
-0.000106062
-0.000103238
-1.0096e-05
1.25131e-05
-0.000112994
-1.29822e-07
-6.76434e-08
-9.64879e-06
1.32092e-05
1.04812e-07
0.000121377
-9.63791e-06
0.000121626
1.32326e-05
-3.32087e-08
-1.86323e-07
-1.01285e-05
1.66987e-07
1.25233e-05
-0.000112789
2.76882e-05
-0.000378256
-8.00215e-07
2.82525e-07
-5.48711e-09
-1.42676e-09
1.131e-05
-5.87771e-06
7.84406e-07
-2.78944e-05
-1.49786e-06
-9.04994e-05
-7.34775e-05
-7.35026e-05
-9.05341e-05
6.88109e-07
0.000377926
-1.07363e-06