/*--------------------------------*- C++ -*----------------------------------*\
| =========                 |                                                 |
| \\      /  F ield         | OpenFOAM: The Open Source CFD Toolbox           |
|  \\    /   O peration     | Version:  2012                                  |
|   \\  /    A nd           | Website:  www.openfoam.com                      |
|    \\/     M anipulation  |                                                 |
\*---------------------------------------------------------------------------*/
FoamFile
{
    version     2.0;
    format      ascii;
    class       pointVectorField;
    location    "0.107/fluid";
    object      pointMotionU;
}
// * * * * * * * * * * * * * * * * * * * * * * * * * * * * * * * * * * * * * //

dimensions      [0 1 -1 0 0 0 0];


internalField   nonuniform List<vector> 
21899
(
(7.8705e-07 -2.21308e-06 2.14891e-26)
(1.35527e-06 -5.64414e-06 4.91438e-27)
(1.24315e-05 -2.00165e-05 -1.12244e-35)
(6.15539e-06 -5.49268e-05 -2.93744e-48)
(-3.63051e-05 -0.000104963 1.67805e-60)
(-0.000102208 -0.000152531 2.90892e-72)
(-0.000175731 -0.000185501 -1.28356e-75)
(-0.000246745 -0.000199382 -6.72777e-76)
(-0.000303021 -0.000192693 -1.36111e-76)
(-0.00033865 -0.000169361 -6.39578e-78)
(-0.000346711 -0.000136373 -1.29428e-79)
(-0.000326746 -0.000101491 1.213e-79)
(-0.000281126 -7.14816e-05 4.23161e-80)
(-0.000212028 -4.57676e-05 2.40484e-81)
(-0.000116502 -2.193e-05 1.99329e-83)
(0 0 0)
(6.24426e-06 -9.28546e-06 -1.12916e-34)
(2.51422e-06 -1.40983e-05 6.03387e-38)
(4.33999e-06 -2.95584e-05 8.76491e-40)
(-1.40093e-05 -6.09648e-05 2.75268e-48)
(-6.59252e-05 -0.000103488 7.63377e-60)
(-0.000140705 -0.000142601 4.12429e-63)
(-0.00022632 -0.000170545 -2.35663e-62)
(-0.000307396 -0.000180881 -2.06927e-62)
(-0.000370262 -0.00017191 -2.4271e-63)
(-0.000406768 -0.000147977 -2.15468e-66)
(-0.000411307 -0.000115511 6.49961e-67)
(-0.000384268 -8.30053e-05 1.41593e-65)
(-0.000329733 -5.71622e-05 5.09854e-66)
(-0.000246452 -3.5883e-05 3.77703e-67)
(-0.000134124 -1.71658e-05 -4.01462e-69)
(0 0 0)
(6.11322e-06 -1.05524e-05 -1.48355e-47)
(-2.77149e-06 -1.46926e-05 -3.13169e-48)
(-9.17875e-06 -2.56739e-05 2.10863e-50)
(-3.665e-05 -4.52324e-05 -3.30182e-50)
(-9.45048e-05 -6.96569e-05 -2.25289e-50)
(-0.00017453 -9.15473e-05 3.18626e-50)
(-0.000264656 -0.000106801 -5.382e-50)
(-0.000349568 -0.000111337 -6.23303e-50)
(-0.00041481 -0.000104349 -1.71065e-55)
(-0.00045039 -8.83339e-05 -2.00691e-58)
(-0.000451914 -6.75979e-05 -1.25342e-53)
(-0.000420316 -4.74895e-05 2.47591e-52)
(-0.000357743 -3.16863e-05 1.16469e-52)
(-0.00026628 -1.95504e-05 4.79081e-54)
(-0.00014466 -9.49157e-06 -1.81794e-54)
(0 0 0)
(5.52717e-06 0 0)
(-5.71514e-06 0 0)
(-1.67575e-05 0 0)
(-4.81432e-05 0 0)
(-0.000107542 0 0)
(-0.00018861 0 0)
(-0.000279207 0 0)
(-0.000364352 0 0)
(-0.000429366 0 0)
(-0.000464089 0 0)
(-0.000464704 0 0)
(-0.000431759 0 0)
(-0.000366586 0 0)
(-0.000272402 0 0)
(-0.000147853 0 0)
(0 0 0)
(-3.00933e-06 -5.42012e-06 1.08579e-06)
(-4.33734e-06 -1.3224e-05 3.33508e-06)
(2.09071e-07 -3.09939e-05 -4.14334e-07)
(-1.66548e-05 -6.95606e-05 6.82931e-06)
(-6.34526e-05 -0.000119746 1.50796e-05)
(-0.00012841 -0.000164642 1.98214e-05)
(-0.000199038 -0.000194948 2.20627e-05)
(-0.000265246 -0.000206403 2.28019e-05)
(-0.000318 -0.000198414 2.23862e-05)
(-0.000350273 -0.000174125 2.08749e-05)
(-0.000355758 -0.000139975 1.84407e-05)
(-0.00033322 -0.000104196 1.51322e-05)
(-0.000285912 -7.32091e-05 1.16171e-05)
(-0.00021508 -4.62608e-05 7.87651e-06)
(-0.00011788 -2.20285e-05 3.85417e-06)
(0 0 0)
(5.08241e-06 -1.07678e-05 3.16447e-06)
(-2.66043e-06 -1.78104e-05 -9.20191e-07)
(-9.29118e-06 -3.82898e-05 -8.15642e-07)
(-3.71433e-05 -7.30262e-05 6.54215e-06)
(-9.39099e-05 -0.000116286 1.5046e-05)
(-0.000169614 -0.000154372 2.08068e-05)
(-0.000252194 -0.000179606 2.4336e-05)
(-0.000328746 -0.000187655 2.59559e-05)
(-0.000387613 -0.000177289 2.58261e-05)
(-0.000420636 -0.000152296 2.41561e-05)
(-0.000422421 -0.000118895 2.12235e-05)
(-0.000392556 -8.53435e-05 1.73896e-05)
(-0.000335045 -5.81477e-05 1.32723e-05)
(-0.000250402 -3.57844e-05 8.92511e-06)
(-0.000135491 -1.68313e-05 4.2885e-06)
(0 0 0)
(8.69682e-06 -1.26054e-05 3.66737e-06)
(-6.13942e-06 -1.82517e-05 -2.59441e-06)
(-2.26522e-05 -3.16768e-05 -2.27554e-06)
(-5.92904e-05 -5.29249e-05 4.78161e-06)
(-0.000122002 -7.75256e-05 1.33795e-05)
(-0.000203182 -9.86434e-05 2.02634e-05)
(-0.000291044 -0.000112137 2.4871e-05)
(-0.000372171 -0.000115203 2.71449e-05)
(-0.000433506 -0.000107245 2.73136e-05)
(-0.000465865 -9.06521e-05 2.57364e-05)
(-0.000464521 -6.95168e-05 2.27201e-05)
(-0.000429712 -4.88268e-05 1.87352e-05)
(-0.000364035 -3.20329e-05 1.41762e-05)
(-0.00027055 -1.92248e-05 9.47566e-06)
(-0.000146595 -9.07048e-06 4.60639e-06)
(0 0 0)
(8.86424e-06 0 3.36565e-06)
(-8.44478e-06 0 -2.42257e-06)
(-2.95855e-05 0 -2.41308e-06)
(-6.99605e-05 0 3.91375e-06)
(-0.000134422 0 1.23034e-05)
(-0.000216476 0 1.94987e-05)
(-0.000305204 0 2.44907e-05)
(-0.000386989 0 2.71225e-05)
(-0.000448434 0 2.75776e-05)
(-0.00048019 0 2.61938e-05)
(-0.000477737 0 2.31449e-05)
(-0.000441191 0 1.90125e-05)
(-0.000372834 0 1.43129e-05)
(-0.000276793 0 9.56243e-06)
(-0.000149609 0 4.68005e-06)
(0 0 0)
(-1.13879e-05 -1.5632e-05 1.35724e-06)
(-1.92199e-05 -2.86987e-05 3.38762e-06)
(-3.60198e-05 -5.53034e-05 -1.6427e-06)
(-8.06604e-05 -0.00010184 1.18237e-05)
(-0.000138586 -0.000152849 2.64355e-05)
(-0.000200463 -0.000192768 3.53311e-05)
(-0.000261391 -0.000216628 4.0037e-05)
(-0.000315479 -0.000222347 4.19453e-05)
(-0.000357082 -0.000210568 4.14273e-05)
(-0.000380205 -0.000184382 3.86683e-05)
(-0.000379031 -0.000150044 3.41351e-05)
(-0.000351018 -0.000113435 2.82421e-05)
(-0.000298448 -7.89758e-05 2.16906e-05)
(-0.000222556 -4.86297e-05 1.47352e-05)
(-0.000122017 -2.29042e-05 7.44072e-06)
(0 0 0)
(-4.8613e-07 -1.60254e-05 5.01919e-06)
(-1.95046e-05 -2.81461e-05 -2.84309e-06)
(-5.00585e-05 -5.97224e-05 -2.48959e-06)
(-0.000103292 -0.000104047 1.12034e-05)
(-0.000170889 -0.000147229 2.61135e-05)
(-0.000245399 -0.000179814 3.68343e-05)
(-0.00031955 -0.000198647 4.36348e-05)
(-0.000384198 -0.000201014 4.68673e-05)
(-0.000431436 -0.000186968 4.687e-05)
(-0.000455186 -0.000160471 4.40623e-05)
(-0.000449657 -0.000126949 3.89331e-05)
(-0.000413557 -9.27395e-05 3.22489e-05)
(-0.000348915 -6.21325e-05 2.46673e-05)
(-0.000258241 -3.67176e-05 1.65474e-05)
(-0.000139781 -1.69128e-05 8.17706e-06)
(0 0 0)
(8.01796e-06 -2.07989e-05 6.34323e-06)
(-2.113e-05 -2.98228e-05 -4.46609e-06)
(-6.20771e-05 -4.8268e-05 -4.01726e-06)
(-0.00012121 -7.31039e-05 8.33031e-06)
(-0.000195696 -9.70039e-05 2.3457e-05)
(-0.00027799 -0.000114317 3.59617e-05)
(-0.000359858 -0.000123392 4.46489e-05)
(-0.000431047 -0.000122831 4.92192e-05)
(-0.000481927 -0.000112693 4.98907e-05)
(-0.000505083 -9.52224e-05 4.71917e-05)
(-0.000495484 -7.38219e-05 4.17973e-05)
(-0.000452379 -5.23114e-05 3.44993e-05)
(-0.000378713 -3.35621e-05 2.61076e-05)
(-0.000278809 -1.91395e-05 1.73868e-05)
(-0.000150586 -8.62888e-06 8.55959e-06)
(0 0 0)
(7.66649e-06 0 5.83474e-06)
(-2.30416e-05 0 -3.94405e-06)
(-6.771e-05 0 -4.02976e-06)
(-0.000129299 0 6.92473e-06)
(-0.000205711 0 2.17352e-05)
(-0.000289994 0 3.48219e-05)
(-0.000373879 0 4.42311e-05)
(-0.000446696 0 4.93755e-05)
(-0.000498366 0 5.03709e-05)
(-0.000521046 0 4.78356e-05)
(-0.00050964 0 4.23823e-05)
(-0.000463668 0 3.48274e-05)
(-0.000386973 0 2.62091e-05)
(-0.000284135 0 1.74332e-05)
(-0.000154139 0 8.69315e-06)
(0 0 0)
(-2.04763e-06 -5.06151e-06 2.89012e-06)
(-1.16624e-05 -2.59914e-05 6.03809e-06)
(-2.41897e-05 -4.57488e-05 7.02163e-06)
(6.29693e-07 -2.758e-06 -4.15004e-23)
(-1.93484e-08 -3.36725e-06 8.17157e-24)
(-3.46211e-07 -2.8442e-06 3.39951e-07)
(-1.43277e-07 -7.72374e-06 1.87367e-06)
(-6.1785e-06 -1.13881e-05 4.54226e-06)
(-4.86027e-06 -1.02275e-05 4.54763e-06)
(-6.73309e-06 -1.03072e-05 1.53903e-06)
(-1.13284e-05 -2.1047e-05 3.9722e-06)
(-2.17876e-05 -2.98298e-05 5.66483e-06)
(-1.57913e-05 -2.4531e-05 5.68437e-06)
(-1.67236e-05 -1.55826e-05 2.62511e-07)
(-2.74525e-05 -3.20076e-05 2.05683e-06)
(-1.28223e-06 -5.11033e-06 2.57329e-06)
(-1.40626e-06 -5.36409e-06 2.42832e-06)
(-5.85971e-06 -1.29794e-05 4.99258e-06)
(-1.3499e-05 -2.09465e-05 5.65469e-06)
(-1.00262e-05 -1.77574e-05 5.52668e-06)
(-1.81846e-05 -4.03002e-05 6.76404e-06)
(-2.99838e-05 -3.26037e-05 5.06244e-06)
(-2.20262e-05 -2.64941e-05 4.51808e-06)
(-6.00344e-08 -3.90353e-09 3.87662e-08)
(4.57071e-06 -9.08802e-06 2.9206e-07)
(6.40712e-07 -8.46239e-06 1.37666e-06)
(-1.08923e-05 -2.65427e-05 3.09731e-07)
(-7.78114e-06 -1.53631e-05 3.04877e-06)
(-3.36956e-05 -4.31643e-05 -1.72016e-06)
(-2.0013e-05 -2.24112e-05 1.6126e-06)
(-4.355e-07 -2.17098e-06 1.24634e-06)
(-3.71801e-07 -2.12377e-06 1.05087e-06)
(-7.96135e-07 -3.18408e-06 1.65123e-06)
(-4.25744e-06 -6.84758e-06 4.23148e-06)
(-2.78765e-06 -6.22597e-06 2.44858e-06)
(-4.04703e-06 -7.78612e-06 4.54708e-06)
(-6.57986e-06 -1.25687e-05 3.76765e-06)
(-9.87872e-06 -1.54582e-05 6.52952e-06)
(-1.13098e-05 -2.18911e-05 4.35542e-06)
(-1.69209e-05 -2.56269e-05 7.3211e-06)
(-1.66789e-05 -2.79601e-05 3.75099e-06)
(-2.47824e-05 -3.16609e-05 7.06311e-06)
(-2.26538e-05 -2.62565e-05 2.73249e-06)
(-3.15037e-05 -3.01404e-05 6.07664e-06)
(1.02771e-06 -2.1336e-06 5.51026e-24)
(1.42639e-05 -1.50044e-05 -1.01645e-35)
(3.45823e-06 -5.951e-06 -5.10068e-29)
(1.42115e-07 -5.78173e-07 -7.13151e-19)
(3.45686e-07 -2.76978e-06 1.12601e-26)
(4.60413e-07 -2.344e-06 1.70388e-07)
(6.12053e-06 -1.06415e-05 5.11555e-30)
(2.60031e-06 -1.02419e-05 -9.62244e-31)
(7.23765e-07 -3.82179e-06 7.66137e-23)
(2.40152e-07 -4.34509e-06 1.01107e-23)
(9.76933e-07 -6.17157e-06 9.3799e-07)
(9.19501e-06 -2.30264e-05 -2.37044e-07)
(2.78006e-06 -1.08155e-05 7.87728e-36)
(5.96041e-06 -9.59612e-06 1.60813e-06)
(1.22066e-06 -1.50409e-05 -4.08792e-07)
(-5.64411e-06 -1.08364e-05 3.98651e-06)
(2.65503e-06 -2.65819e-05 -5.66424e-07)
(4.55665e-07 -8.6276e-06 2.0774e-06)
(-1.55202e-06 -3.72374e-06 6.71688e-07)
(-3.03998e-06 -4.49663e-06 9.80411e-07)
(-3.97505e-06 -8.078e-06 3.09539e-06)
(-4.69096e-06 -7.41672e-06 1.38952e-06)
(-1.4024e-06 -1.94032e-05 2.60578e-07)
(-2.75576e-06 -1.55038e-05 1.25816e-06)
(-1.86674e-06 -1.01483e-05 2.68886e-06)
(-5.57655e-06 -1.22053e-05 4.21975e-06)
(-5.2014e-06 -1.17951e-05 4.52076e-06)
(-7.60752e-06 -1.688e-05 3.78002e-06)
(-1.59542e-05 -4.2471e-05 -6.21293e-07)
(-2.64866e-07 -1.31388e-05 1.19383e-06)
(2.68767e-06 -1.29565e-05 4.33348e-06)
(-1.0133e-05 -2.23818e-05 -1.46914e-06)
(-3.0934e-05 -5.12705e-05 -1.48142e-06)
(-7.86391e-06 -1.51309e-05 2.96513e-06)
(-8.82182e-06 -1.32373e-05 1.61295e-06)
(-9.2525e-06 -1.68645e-05 1.36839e-06)
(-1.34895e-05 -2.10043e-05 3.91156e-06)
(-1.36622e-05 -1.63498e-05 8.48152e-07)
(-2.39156e-05 -3.87907e-05 -1.22835e-06)
(-1.88217e-05 -2.67239e-05 1.76177e-07)
(-1.51547e-05 -2.5213e-05 3.82717e-06)
(-2.07239e-05 -3.00113e-05 4.93368e-06)
(-1.82196e-05 -2.64504e-05 5.38488e-06)
(-2.3551e-05 -3.10267e-05 2.79147e-06)
(-5.75129e-05 -6.56302e-05 -2.68254e-06)
(-1.0607e-05 -2.0015e-05 1.06306e-06)
(-4.11398e-06 -2.09768e-05 4.97418e-06)
(-2.97961e-05 -3.55005e-05 -4.31686e-06)
(-1.93535e-05 -1.3344e-05 -3.41217e-08)
(-3.05114e-05 -3.20219e-05 1.19415e-06)
(-2.64287e-06 -4.02601e-06 3.78054e-06)
(-1.85717e-06 -5.10646e-06 2.84791e-06)
(-3.71887e-06 -8.53478e-06 4.02193e-06)
(-8.92131e-07 -2.02072e-06 1.46752e-06)
(-8.70745e-06 -1.86883e-05 5.47267e-06)
(-1.55252e-05 -2.04687e-05 8.33298e-06)
(-1.06921e-05 -2.17347e-05 6.32641e-06)
(-1.43198e-05 -3.37371e-05 6.83609e-06)
(-2.08816e-05 -4.46961e-05 7.09141e-06)
(-3.2948e-05 -3.20046e-05 8.67062e-06)
(-2.29836e-05 -3.51011e-05 6.05244e-06)
(-2.82477e-05 -4.38716e-05 7.01263e-06)
(1.39279e-07 -3.37438e-06 1.27413e-06)
(-3.59897e-07 -1.35455e-06 9.18469e-21)
(-8.35312e-07 -4.49746e-06 2.18323e-06)
(-3.79442e-07 -3.93301e-06 1.24985e-06)
(-2.74748e-07 -1.5539e-06 -4.18423e-21)
(-7.99483e-07 -2.0912e-06 4.27252e-07)
(-9.34957e-07 -4.18594e-06 1.55868e-06)
(-9.61732e-07 -6.15809e-06 2.37937e-06)
(-1.23651e-06 -6.46837e-06 2.48775e-06)
(-3.39455e-06 -7.79097e-06 3.68073e-06)
(-8.02191e-06 -1.01104e-05 6.65616e-06)
(-9.6169e-06 -1.58926e-05 5.20891e-06)
(-2.95733e-06 -7.47645e-06 3.53461e-06)
(-5.52564e-06 -1.15273e-05 5.00685e-06)
(-7.33095e-06 -1.37801e-05 5.123e-06)
(-5.88435e-06 -1.00861e-05 1.74675e-06)
(-8.36034e-06 -1.46661e-05 3.86264e-06)
(-1.26623e-05 -2.12463e-05 5.17554e-06)
(-1.1331e-05 -1.94139e-05 5.47384e-06)
(-1.7581e-05 -2.58745e-05 5.78559e-06)
(-2.41864e-05 -3.01833e-05 8.91786e-06)
(-2.6042e-05 -3.21054e-05 5.4358e-06)
(-1.28926e-05 -2.1712e-05 5.70765e-06)
(-1.66204e-05 -3.21005e-05 6.71289e-06)
(-1.90452e-05 -2.65168e-05 5.12765e-06)
(-1.34811e-05 -1.66667e-05 -8.30022e-08)
(-1.92208e-05 -2.23774e-05 2.76096e-06)
(-2.89179e-05 -3.29921e-05 3.99675e-06)
(-2.53362e-05 -2.88193e-05 4.25893e-06)
(-3.32676e-05 -3.18958e-05 4.51756e-06)
(-2.43532e-05 -2.503e-05 3.97715e-06)
(1.10978e-05 -1.81461e-05 -2.99165e-07)
(4.17556e-06 -1.30405e-05 2.4678e-07)
(-1.38443e-06 -1.62584e-05 6.19761e-07)
(5.63406e-07 -2.74408e-06 1.02337e-06)
(2.99874e-07 -4.43376e-06 1.19124e-06)
(-2.94024e-06 -7.22316e-06 3.21175e-06)
(-2.88871e-06 -8.79582e-06 3.40275e-06)
(2.61509e-06 -6.49865e-06 1.02143e-06)
(1.25131e-06 -1.16309e-05 7.46706e-07)
(2.03339e-06 -1.1361e-05 6.37068e-07)
(-2.53722e-06 -1.13528e-05 2.53117e-06)
(-8.88051e-09 -3.16556e-06 8.08443e-07)
(-1.35515e-07 -4.90755e-06 1.27633e-06)
(-2.3295e-06 -5.81268e-06 2.32564e-06)
(-2.8941e-06 -8.82524e-06 3.59613e-06)
(-1.27912e-05 -3.83742e-05 -6.4714e-07)
(-1.16362e-05 -2.87501e-05 1.36675e-07)
(-2.23965e-05 -3.6808e-05 -2.41727e-07)
(-8.93561e-06 -1.64123e-05 4.82707e-06)
(-1.65643e-05 -2.60827e-05 5.17882e-06)
(-3.30035e-06 -1.17689e-05 2.76786e-06)
(-1.01112e-05 -2.1048e-05 1.22566e-06)
(-4.85349e-06 -1.61509e-05 1.44896e-06)
(-1.39214e-05 -1.96988e-05 2.72476e-06)
(-6.04038e-06 -1.11419e-05 3.54665e-06)
(-8.11421e-06 -1.53423e-05 5.14765e-06)
(-1.08707e-05 -1.83163e-05 3.99608e-06)
(-1.46661e-05 -2.33412e-05 5.56763e-06)
(-5.05074e-05 -6.01693e-05 -2.03836e-06)
(-3.68969e-05 -4.50358e-05 -2.68516e-06)
(-2.50336e-05 -3.23575e-05 4.55751e-06)
(-3.20389e-05 -3.23702e-05 3.27437e-06)
(-1.2282e-05 -1.77626e-05 2.63199e-06)
(-2.79169e-05 -3.1808e-05 -1.50839e-06)
(-1.65967e-05 -2.56825e-05 1.97531e-07)
(-1.63246e-05 -2.26102e-05 3.3437e-06)
(-2.196e-05 -2.83737e-05 4.8994e-06)
(-2.17497e-05 -2.06726e-05 2.34981e-06)
(-2.79325e-05 -2.8025e-05 3.57076e-06)
(-1.16552e-07 -1.13423e-06 3.40938e-07)
(-1.83162e-06 -3.12323e-06 6.29438e-07)
(-1.01729e-06 -2.20988e-06 1.96741e-06)
(-2.01192e-06 -4.14113e-06 2.80879e-06)
(-7.49299e-07 -2.74033e-06 1.55384e-06)
(-1.34777e-06 -4.12588e-06 1.78289e-06)
(-2.13004e-06 -5.09729e-06 3.19319e-06)
(-5.00048e-06 -6.60383e-06 5.38343e-06)
(-7.02761e-06 -1.04207e-05 5.28383e-06)
(-3.48084e-06 -8.0195e-06 3.98405e-06)
(-4.52761e-06 -8.99727e-06 3.14554e-06)
(-6.71986e-06 -1.11886e-05 5.68682e-06)
(-4.40597e-06 -6.79591e-06 1.4497e-06)
(-7.44048e-06 -1.38596e-05 1.78686e-06)
(-1.16297e-05 -1.4842e-05 7.6556e-06)
(-7.99337e-06 -1.62292e-05 5.75211e-06)
(-8.86552e-06 -1.71958e-05 4.1674e-06)
(-1.33163e-05 -2.0613e-05 7.06303e-06)
(-1.97696e-05 -2.60364e-05 8.76809e-06)
(-1.36225e-05 -2.75202e-05 6.63204e-06)
(-1.38963e-05 -2.58363e-05 4.21679e-06)
(-2.0821e-05 -2.9585e-05 7.33989e-06)
(-1.11585e-05 -1.79085e-05 7.16114e-07)
(-1.59272e-05 -1.3324e-05 -6.61121e-07)
(-2.8711e-05 -3.22197e-05 8.90591e-06)
(-1.98464e-05 -3.49295e-05 6.42547e-06)
(-1.96293e-05 -2.81156e-05 3.2018e-06)
(-2.85741e-05 -3.18443e-05 6.67561e-06)
(-3.67417e-05 -3.03753e-05 8.32036e-06)
(-2.59031e-05 -3.31756e-05 5.66737e-06)
(1.63697e-06 -7.37136e-06 -3.78752e-31)
(6.12857e-06 -6.77158e-06 2.66581e-29)
(-1.67482e-08 -1.00374e-06 1.45415e-22)
(-3.24487e-07 -2.40947e-06 4.20829e-22)
(2.97959e-08 -1.21098e-06 -6.74351e-21)
(-9.63944e-07 -3.85126e-06 8.37652e-07)
(-1.48069e-07 -3.42493e-07 -5.3581e-08)
(-1.32004e-06 -2.44196e-06 2.45216e-07)
(-1.63045e-07 -6.77233e-07 9.89892e-08)
(-8.47123e-06 -2.01408e-05 2.78343e-06)
(-8.36424e-06 -8.84955e-06 1.02077e-06)
(-6.01477e-06 -1.45888e-05 2.53255e-06)
(-1.18126e-05 -1.23018e-05 9.99418e-07)
(-1.97991e-05 -3.97608e-05 4.27479e-06)
(-2.34105e-05 -2.30476e-05 1.94553e-06)
(-1.69203e-05 -3.76783e-05 3.81425e-06)
(-2.72256e-05 -2.38159e-05 2.50991e-06)
(-1.64812e-06 -2.93244e-06 2.64147e-06)
(-5.04124e-07 -1.04873e-06 8.67486e-07)
(-8.02882e-07 -4.02813e-06 1.62233e-06)
(-7.79992e-08 -6.42799e-07 5.70003e-07)
(-7.75541e-07 -2.49179e-06 1.20079e-06)
(-2.04905e-07 -1.1059e-06 6.9011e-07)
(-1.86295e-06 -3.02009e-06 2.99286e-06)
(-7.33734e-07 -1.24985e-06 1.09578e-06)
(-2.24849e-06 -6.9273e-06 1.61631e-06)
(-5.43277e-06 -6.26707e-06 9.52839e-07)
(-3.07379e-06 -4.34272e-06 6.99809e-07)
(-3.90732e-06 -1.03109e-05 2.1536e-06)
(-3.76419e-06 -5.15665e-06 4.39785e-06)
(-6.27236e-06 -8.32127e-06 5.75073e-06)
(-1.79641e-06 -7.21356e-06 2.31447e-06)
(-3.84998e-06 -6.28202e-06 2.03063e-06)
(-2.07719e-06 -4.37834e-06 1.57761e-06)
(-3.0967e-06 -1.06203e-05 2.98574e-06)
(-3.71088e-06 -5.45557e-06 4.65513e-06)
(-6.21563e-06 -8.59247e-06 6.08383e-06)
(-1.30936e-05 -1.7888e-05 7.60587e-06)
(-9.55852e-06 -1.24331e-05 6.82893e-06)
(-6.50113e-06 -2.0446e-05 4.20408e-06)
(-5.92899e-06 -8.83883e-06 2.56451e-06)
(-4.70456e-06 -1.48906e-05 3.6367e-06)
(-8.275e-06 -1.23072e-05 3.05444e-06)
(-1.29147e-05 -1.81637e-05 8.11896e-06)
(-9.41186e-06 -1.2701e-05 7.25341e-06)
(-1.11711e-05 -2.66015e-05 3.02768e-06)
(-1.95005e-05 -2.03999e-05 1.39879e-06)
(-1.55481e-05 -1.64601e-05 1.06469e-06)
(-1.39908e-05 -3.29754e-05 3.36734e-06)
(-1.71201e-05 -2.37999e-05 8.17995e-06)
(-2.12389e-05 -2.91757e-05 8.54537e-06)
(-8.4942e-06 -2.69746e-05 4.57351e-06)
(-1.35394e-05 -2.05063e-05 3.2238e-06)
(-1.07963e-05 -1.65178e-05 3.32337e-06)
(-1.06162e-05 -3.34053e-05 4.67747e-06)
(-1.67242e-05 -2.44043e-05 8.71284e-06)
(-2.08075e-05 -2.99396e-05 9.03817e-06)
(-2.97541e-05 -3.35679e-05 8.77178e-06)
(-2.56108e-05 -3.25953e-05 8.74859e-06)
(-1.52354e-05 -4.06159e-05 4.15438e-06)
(-1.64692e-05 -2.32387e-05 2.82657e-06)
(-1.28682e-05 -3.8319e-05 4.50938e-06)
(-1.96147e-05 -2.40426e-05 2.27996e-06)
(-2.92517e-05 -3.4826e-05 8.89852e-06)
(-2.50428e-05 -3.37004e-05 9.10077e-06)
(-2.26323e-05 -3.91127e-05 4.64049e-06)
(-3.40641e-05 -2.00064e-05 3.17011e-06)
(-3.07782e-05 -2.26646e-05 2.95304e-06)
(-2.52987e-05 -3.56873e-05 4.89761e-06)
(-3.3903e-05 -3.26532e-05 8.67711e-06)
(-3.73384e-05 -3.0503e-05 8.48846e-06)
(-1.76834e-05 -4.00604e-05 3.77162e-06)
(-2.62432e-05 -2.03168e-05 1.50243e-06)
(-2.28639e-05 -2.28686e-05 1.7781e-06)
(-2.03075e-05 -3.68205e-05 3.47024e-06)
(-3.33336e-05 -3.37187e-05 8.64734e-06)
(-3.67811e-05 -3.12423e-05 8.24591e-06)
(-2.13062e-06 -4.89478e-06 2.69276e-06)
(-3.18381e-06 -3.27614e-06 4.49576e-06)
(-2.0923e-06 -5.07437e-06 3.08846e-06)
(-2.82046e-06 -6.71436e-06 3.47407e-06)
(-1.40735e-06 -3.47029e-06 2.11862e-06)
(-1.01523e-05 -2.22317e-05 5.77292e-06)
(-1.23756e-05 -2.34457e-05 6.02362e-06)
(-1.74414e-05 -2.01622e-05 9.8259e-06)
(-1.1437e-05 -2.38146e-05 6.78178e-06)
(-1.32279e-05 -2.98068e-05 6.26799e-06)
(-2.32721e-05 -4.54186e-05 6.99197e-06)
(-2.64516e-05 -3.90652e-05 7.16092e-06)
(-3.69079e-05 -3.26506e-05 1.05723e-05)
(-2.45003e-05 -4.00589e-05 7.00404e-06)
(-2.66048e-05 -4.50807e-05 7.01523e-06)
(1.8157e-08 -1.20957e-07 -5.58042e-14)
(-3.95432e-06 -6.41622e-06 1.21061e-06)
(-1.22399e-05 -1.79815e-05 1.50352e-06)
(-1.05181e-06 -3.08133e-06 8.3476e-07)
(-4.73499e-06 -1.06201e-05 4.52939e-06)
(-7.34234e-06 -1.55736e-05 5.13657e-06)
(-6.37659e-06 -1.19497e-05 4.81309e-06)
(-9.13769e-06 -9.05023e-06 7.80763e-06)
(-5.98364e-06 -1.22074e-05 5.29821e-06)
(-7.76135e-06 -1.19167e-05 1.85404e-06)
(-1.5925e-05 -3.73278e-05 6.96799e-06)
(-1.92187e-05 -4.29463e-05 7.09224e-06)
(-1.93246e-05 -3.54757e-05 6.7616e-06)
(-2.70607e-05 -3.09719e-05 1.06697e-05)
(-1.77984e-05 -3.61553e-05 7.33046e-06)
(-1.75111e-05 -1.83894e-05 2.9127e-07)
(-5.05123e-07 -8.33815e-07 7.88759e-07)
(-1.83373e-07 -2.11668e-07 -1.47789e-15)
(-4.70721e-07 -5.28078e-07 -4.44055e-15)
(-2.80891e-07 -6.01914e-07 -4.36503e-16)
(-6.93225e-07 -1.71347e-06 3.69987e-07)
(-9.40171e-06 -1.31861e-05 2.25241e-06)
(-2.37963e-05 -3.01349e-05 3.71629e-06)
(-7.77915e-07 -2.19e-06 1.68008e-06)
(-1.09078e-06 -3.02542e-06 2.03853e-06)
(-1.0572e-07 -1.34591e-06 5.71398e-07)
(-4.54217e-07 -1.8697e-06 1.23313e-06)
(-2.57255e-07 -1.68132e-06 7.40966e-07)
(-5.22421e-07 -2.53573e-06 1.29235e-06)
(-8.13084e-07 -3.07055e-06 1.45514e-06)
(-1.09676e-07 -1.34745e-06 5.78665e-07)
(-1.08005e-06 -2.37109e-06 1.95186e-06)
(-1.01094e-06 -2.67917e-06 1.80516e-06)
(-1.4003e-06 -3.83915e-06 2.49021e-06)
(-4.68153e-07 -2.33455e-06 8.66421e-07)
(-3.93241e-06 -6.45462e-06 1.70399e-06)
(-3.15224e-06 -5.30587e-06 3.65686e-06)
(-4.83187e-06 -6.60829e-06 5.0142e-06)
(-5.6149e-06 -8.46316e-06 4.89092e-06)
(-2.58693e-06 -4.9834e-06 1.60606e-06)
(-2.02075e-06 -5.22337e-06 2.11968e-06)
(-2.99786e-06 -6.53649e-06 2.60061e-06)
(-2.88718e-06 -7.6432e-06 3.14108e-06)
(-3.63102e-06 -7.5226e-06 2.80395e-06)
(-3.0918e-06 -6.18605e-06 3.98565e-06)
(-4.7708e-06 -6.98635e-06 5.24045e-06)
(-4.25234e-06 -7.75328e-06 4.79091e-06)
(-5.34352e-06 -9.27375e-06 5.251e-06)
(-1.12362e-05 -1.4874e-05 7.12027e-06)
(-7.09619e-06 -1.31954e-05 3.96763e-06)
(-5.49223e-06 -1.07441e-05 3.46923e-06)
(-6.26351e-06 -1.00121e-05 2.61466e-06)
(-6.60009e-06 -1.536e-05 4.6267e-06)
(-7.72155e-06 -1.48372e-05 4.00425e-06)
(-8.40339e-06 -1.30773e-05 6.28344e-06)
(-1.11751e-05 -1.50907e-05 7.50213e-06)
(-9.87596e-06 -1.57852e-05 6.86954e-06)
(-1.16797e-05 -1.79445e-05 6.96971e-06)
(-1.63887e-05 -2.33623e-05 2.67677e-06)
(-1.92055e-05 -2.55952e-05 8.16593e-06)
(-1.08307e-05 -1.78634e-05 3.0398e-06)
(-1.006e-05 -1.96651e-05 4.30136e-06)
(-1.2103e-05 -2.34675e-05 4.66116e-06)
(-1.13387e-05 -2.61273e-05 5.36294e-06)
(-1.26377e-05 -2.40789e-05 4.33784e-06)
(-1.52739e-05 -2.3357e-05 7.38864e-06)
(-1.89158e-05 -2.63935e-05 8.55844e-06)
(-1.66906e-05 -2.67272e-05 7.8435e-06)
(-1.89791e-05 -2.812e-05 7.54336e-06)
(-2.77897e-05 -3.14611e-05 8.40787e-06)
(-1.78595e-05 -3.0458e-05 4.06962e-06)
(-1.52202e-05 -2.72434e-05 4.01328e-06)
(-1.60818e-05 -2.27362e-05 2.27839e-06)
(-1.65533e-05 -3.34488e-05 4.95458e-06)
(-1.81814e-05 -2.83606e-05 3.47828e-06)
(-2.30385e-05 -3.13331e-05 7.44276e-06)
(-2.74981e-05 -3.2899e-05 8.56505e-06)
(-2.42583e-05 -3.33409e-05 7.74495e-06)
(-2.69712e-05 -3.24423e-05 7.08433e-06)
(-3.06518e-05 -2.80768e-05 4.54538e-06)
(-3.54728e-05 -2.98492e-05 7.98817e-06)
(-2.21111e-05 -2.01386e-05 1.27321e-06)
(-2.11167e-05 -2.73475e-05 2.96963e-06)
(-2.41732e-05 -2.86088e-05 3.13203e-06)
(-2.21632e-05 -3.18981e-05 4.05e-06)
(-2.40508e-05 -2.49107e-05 2.57636e-06)
(-3.05378e-05 -3.15476e-05 6.64998e-06)
(-3.51445e-05 -3.08908e-05 7.81348e-06)
(-3.10775e-05 -3.13846e-05 6.94902e-06)
(-3.31487e-05 -2.94582e-05 6.05131e-06)
(8.42312e-08 -7.71685e-07 2.23541e-07)
(8.00195e-08 -8.1045e-07 -1.85062e-19)
(-2.45854e-06 -3.8642e-06 7.95366e-07)
(-4.29041e-06 -7.0667e-06 2.12519e-06)
(-3.67131e-06 -5.72926e-06 1.2173e-06)
(-8.42846e-06 -1.56388e-05 1.61596e-06)
(-1.33532e-05 -2.11163e-05 2.80894e-06)
(-1.0147e-05 -1.7784e-05 1.05963e-06)
(-1.73566e-05 -1.11988e-05 -8.59162e-07)
(-2.01579e-06 -4.14579e-06 1.06834e-06)
(-1.4641e-06 -4.23899e-06 1.95611e-06)
(-1.74877e-06 -2.93613e-06 2.95292e-06)
(-2.47459e-06 -4.01723e-06 3.4589e-06)
(-2.59526e-06 -4.31974e-06 3.70729e-06)
(-3.84408e-06 -5.07208e-06 4.74321e-06)
(-1.21848e-06 -3.79642e-06 2.21342e-06)
(-1.47139e-06 -4.96471e-06 2.26006e-06)
(-2.34833e-06 -4.88416e-06 3.39636e-06)
(-2.61479e-06 -6.47984e-06 3.41858e-06)
(-4.02984e-06 -8.02501e-06 3.89353e-06)
(-5.79502e-06 -5.64212e-06 6.32774e-06)
(-3.7979e-06 -8.28208e-06 4.27436e-06)
(-8.09323e-07 -2.09602e-06 1.28343e-06)
(-1.38895e-06 -1.51157e-06 2.4278e-06)
(-9.18341e-07 -2.2381e-06 1.73421e-06)
(-9.23071e-06 -1.713e-05 5.4872e-06)
(-1.31241e-05 -1.39837e-05 8.97796e-06)
(-8.56601e-06 -1.74099e-05 6.14237e-06)
(-1.27671e-05 -1.80341e-05 2.36202e-06)
(-9.49698e-06 -1.8121e-05 4.46763e-06)
(-1.36612e-05 -1.75486e-05 8.20192e-06)
(-1.50699e-05 -2.03403e-05 7.74317e-06)
(-1.49131e-05 -2.07728e-05 8.17027e-06)
(-1.78314e-05 -2.33699e-05 8.78895e-06)
(-9.24766e-06 -1.89368e-05 6.04161e-06)
(-8.89594e-06 -2.06659e-05 5.08708e-06)
(-1.31757e-05 -2.12594e-05 7.48078e-06)
(-1.20596e-05 -2.48394e-05 6.47183e-06)
(-1.57501e-05 -3.00473e-05 6.45864e-06)
(-2.21338e-05 -2.63417e-05 1.04195e-05)
(-1.45524e-05 -3.05332e-05 7.18973e-06)
(-2.28835e-05 -3.86766e-05 7.0259e-06)
(-3.20542e-05 -3.31244e-05 1.07372e-05)
(-2.1148e-05 -3.95601e-05 7.24092e-06)
(-2.73169e-05 -3.0193e-05 4.16284e-06)
(-2.09578e-05 -3.0617e-05 3.56714e-06)
(-3.11564e-05 -3.25363e-05 9.03984e-06)
(-3.18866e-05 -3.14119e-05 8.2552e-06)
(-3.16795e-05 -3.28311e-05 8.29613e-06)
(-3.54187e-05 -3.15088e-05 8.79123e-06)
(-2.12822e-05 -3.5648e-05 6.22503e-06)
(-1.94039e-05 -3.38571e-05 4.46971e-06)
(-2.80112e-05 -3.34157e-05 7.42962e-06)
(-2.44006e-05 -3.4756e-05 5.85621e-06)
(-2.98895e-05 -3.72187e-05 7.25739e-06)
(-4.15711e-05 -3.06787e-05 1.03388e-05)
(-2.77639e-05 -3.8149e-05 6.72806e-06)
(-2.13541e-07 -1.3024e-06 6.8127e-07)
(-4.69196e-08 -2.54293e-07 -2.6709e-15)
(-5.69229e-07 -1.43716e-06 1.0424e-06)
(-4.68385e-07 -1.54059e-06 3.77017e-21)
(-1.92921e-07 -1.25699e-06 -5.72755e-21)
(-4.07674e-07 -1.78196e-06 8.22753e-07)
(-1.34742e-07 -1.23151e-06 -1.30633e-20)
(-4.79377e-07 -1.69991e-06 2.37422e-20)
(-4.16986e-07 -1.69672e-06 4.2314e-07)
(-1.27118e-06 -2.75055e-06 5.35619e-07)
(-1.18764e-06 -3.27296e-06 1.1914e-06)
(-2.35006e-06 -4.68684e-06 9.43468e-07)
(-6.38579e-06 -9.28851e-06 2.03771e-06)
(-4.89991e-06 -9.34304e-06 3.3047e-06)
(-5.77747e-06 -8.80543e-06 1.57339e-06)
(-6.47731e-06 -8.11611e-06 6.18394e-06)
(-7.773e-06 -1.01941e-05 6.19479e-06)
(-7.72941e-06 -1.0456e-05 6.5179e-06)
(-9.9482e-06 -1.21741e-05 7.36487e-06)
(-4.40499e-06 -9.64987e-06 4.49728e-06)
(-4.5754e-06 -1.10222e-05 3.9452e-06)
(-6.84644e-06 -1.12418e-05 5.97463e-06)
(-6.69237e-06 -1.37701e-05 5.38399e-06)
(-5.18748e-06 -8.52869e-06 1.62107e-06)
(-6.62622e-06 -1.21947e-05 1.80804e-06)
(-8.46689e-06 -1.37838e-05 2.96773e-06)
(-9.89744e-06 -1.52997e-05 1.85023e-06)
(-2.00901e-05 -2.77179e-05 3.12871e-06)
(-1.48841e-05 -2.79226e-05 4.50381e-06)
(-1.47878e-05 -1.9155e-05 9.20317e-07)
(-2.21563e-05 -2.85362e-05 9.0822e-06)
(-2.34953e-05 -2.9606e-05 8.35111e-06)
(-2.31855e-05 -3.07232e-05 8.68696e-06)
(-2.67639e-05 -3.17577e-05 9.18027e-06)
(-1.49942e-05 -3.0216e-05 6.70864e-06)
(-1.38648e-05 -3.07514e-05 5.31075e-06)
(-2.04376e-05 -3.10131e-05 7.94811e-06)
(-1.81029e-05 -3.41205e-05 6.58355e-06)
(-1.2381e-05 -1.77288e-05 3.25405e-07)
(-1.46334e-05 -1.54168e-05 -3.82113e-07)
(-1.90352e-05 -2.23456e-05 1.70985e-06)
(-2.03913e-05 -1.593e-05 -1.86756e-07)
(-3.88955e-05 -2.94554e-05 8.39931e-06)
(-2.70637e-05 -3.19427e-05 5.51572e-06)
(-4.23047e-09 -1.06954e-06 4.20375e-07)
(-3.43477e-06 -5.82016e-06 1.86646e-06)
(-5.19535e-06 -8.34562e-06 2.39546e-06)
(-1.20973e-05 -1.95944e-05 2.9933e-06)
(-1.4572e-05 -2.21678e-05 2.59036e-06)
(-2.3578e-05 -1.85515e-05 1.1447e-06)
(-1.27323e-06 -2.97235e-06 6.92019e-07)
(-5.26e-07 -2.23782e-06 4.40908e-07)
(-1.37895e-06 -3.50155e-06 1.99021e-06)
(-1.54828e-06 -5.40819e-06 1.22777e-06)
(-6.79708e-07 -1.40883e-06 4.12281e-08)
(-2.18091e-07 -4.3463e-07 1.09179e-07)
(-2.13331e-06 -3.41323e-06 4.88429e-07)
(-4.10465e-07 -8.29325e-07 6.03699e-07)
(-7.20659e-06 -1.72156e-05 2.63887e-06)
(-1.10445e-05 -1.55012e-05 2.28092e-06)
(-1.07795e-05 -2.02322e-05 5.75986e-06)
(-9.79679e-06 -2.32983e-05 2.85862e-06)
(-7.83708e-06 -1.10902e-05 2.14141e-06)
(-1.00554e-05 -1.0522e-05 1.02885e-06)
(-6.82859e-06 -7.45989e-06 1.01394e-06)
(-4.90845e-06 -1.23133e-05 2.33764e-06)
(-7.78184e-06 -1.43986e-05 5.16609e-06)
(-1.36538e-05 -1.43269e-05 1.01697e-06)
(-1.83592e-05 -3.91447e-05 4.01644e-06)
(-2.5574e-05 -3.04672e-05 3.9272e-06)
(-2.4679e-05 -3.92059e-05 7.1072e-06)
(-2.12051e-05 -3.98518e-05 4.40925e-06)
(-2.19654e-05 -2.92321e-05 3.39224e-06)
(-2.53691e-05 -2.37112e-05 2.26039e-06)
(-2.1473e-05 -2.19428e-05 1.67282e-06)
(-1.54392e-05 -3.56151e-05 3.54434e-06)
(-2.11031e-05 -3.74657e-05 6.91478e-06)
(-2.90614e-05 -2.34764e-05 2.76255e-06)
(-7.55277e-09 -5.17943e-07 4.34458e-07)
(-5.67419e-07 -2.21439e-06 7.92817e-07)
(-3.12379e-06 -5.51393e-06 1.05935e-06)
(-1.65229e-06 -3.91612e-06 8.77585e-07)
(-1.51622e-06 -2.98683e-06 2.58553e-06)
(-9.41276e-07 -1.93833e-06 1.73783e-06)
(-2.17445e-06 -2.32897e-06 3.47393e-06)
(-2.60863e-06 -4.00557e-06 3.5547e-06)
(-3.72152e-07 -1.40762e-06 8.45108e-07)
(-8.06247e-07 -8.31646e-07 1.30073e-06)
(-8.89635e-07 -3.05223e-06 1.63326e-06)
(-9.4102e-07 -3.67698e-06 1.80059e-06)
(-4.57242e-07 -2.45002e-06 1.20362e-06)
(-1.43553e-06 -3.61863e-06 2.43445e-06)
(-1.24809e-06 -5.62527e-06 1.97012e-06)
(-3.49048e-07 -1.50183e-06 9.50263e-07)
(-1.68524e-07 -8.19717e-07 7.23684e-07)
(-2.4627e-07 -1.60171e-06 6.94425e-07)
(-6.7046e-07 -2.41756e-06 9.90637e-07)
(-1.36236e-06 -3.44476e-06 1.3985e-06)
(-5.18496e-07 -1.1188e-06 9.51444e-07)
(-1.75362e-06 -3.18237e-06 2.86772e-06)
(-1.60676e-06 -3.60387e-06 2.63824e-06)
(-1.19553e-06 -2.03571e-06 2.08219e-06)
(-2.70179e-06 -4.19762e-06 3.85174e-06)
(-6.64634e-07 -1.63217e-06 1.01989e-06)
(-6.44817e-07 -1.80121e-06 9.45861e-07)
(-2.90878e-06 -5.28119e-06 1.40744e-06)
(-3.04501e-06 -8.52414e-06 1.90422e-06)
(-3.04854e-06 -6.39075e-06 3.32472e-06)
(-4.18076e-06 -5.2914e-06 8.6788e-07)
(-5.087e-06 -7.76431e-06 1.877e-06)
(-5.12025e-06 -9.92131e-06 4.37155e-06)
(-3.65369e-06 -5.11201e-06 4.32517e-06)
(-4.94016e-06 -6.68092e-06 5.12604e-06)
(-4.42662e-06 -4.30339e-06 5.44078e-06)
(-6.22449e-06 -8.22731e-06 5.67334e-06)
(-7.34816e-06 -7.18547e-06 7.08912e-06)
(-7.84435e-06 -1.02612e-05 6.32727e-06)
(-2.17767e-06 -5.37165e-06 2.2771e-06)
(-2.14282e-06 -6.28388e-06 2.69792e-06)
(-2.41702e-06 -8.80969e-06 2.64354e-06)
(-2.88797e-06 -6.63429e-06 3.6955e-06)
(-1.82589e-06 -4.06349e-06 1.39535e-06)