/*--------------------------------*- C++ -*----------------------------------*\
| =========                 |                                                 |
| \\      /  F ield         | OpenFOAM: The Open Source CFD Toolbox           |
|  \\    /   O peration     | Version:  2012                                  |
|   \\  /    A nd           | Website:  www.openfoam.com                      |
|    \\/     M anipulation  |                                                 |
\*---------------------------------------------------------------------------*/
FoamFile
{
    version     2.0;
    format      ascii;
    class       volVectorField;
    location    "0.107/fluid";
    object      U;
}
// * * * * * * * * * * * * * * * * * * * * * * * * * * * * * * * * * * * * * //

dimensions      [0 1 -1 0 0 0 0];


internalField   nonuniform List<vector> 
16422
(
(1.25502 -0.0449764 -0.00492801)
(1.20895 -0.0110839 0.00630732)
(1.20259 -0.0123683 0.00203948)
(1.19875 -0.00789098 0.000256618)
(1.19821 -0.00545242 -0.000199701)
(1.19839 -0.00362192 -0.000184465)
(1.19864 -0.00235922 -0.000119459)
(1.19886 -0.00151876 -7.75257e-05)
(1.19904 -0.000972093 -5.45629e-05)
(1.19919 -0.000617067 -4.19371e-05)
(1.19931 -0.000389412 -3.15226e-05)
(1.19941 -0.000245322 -2.75051e-05)
(1.19951 -0.000153321 -2.66842e-05)
(1.1996 -9.37924e-05 -2.523e-05)
(1.19968 -5.13014e-05 -2.69829e-05)
(1.21889 -0.00635602 3.04696e-05)
(1.21218 -0.0131216 0.000900792)
(1.20564 -0.00877371 0.000247735)
(1.20168 -0.00564962 -0.000131384)
(1.20026 -0.00381685 -0.000184945)
(1.19976 -0.00257912 -0.000143572)
(1.19951 -0.00171425 -9.78147e-05)
(1.1994 -0.00112372 -7.03779e-05)
(1.19937 -0.000728943 -5.24162e-05)
(1.19938 -0.000466331 -4.07245e-05)
(1.19942 -0.000297421 -3.34727e-05)
(1.19948 -0.000188018 -3.08975e-05)
(1.19955 -0.000120546 -2.87848e-05)
(1.19962 -7.26525e-05 -2.83923e-05)
(1.19969 -3.85205e-05 -3.11814e-05)
(1.21252 -0.00187583 4.22995e-05)
(1.21018 -0.00446258 0.000165397)
(1.20622 -0.00370406 1.04293e-05)
(1.2032 -0.00259334 -9.74664e-05)
(1.20155 -0.00182538 -0.000118328)
(1.20062 -0.00125511 -0.000102685)
(1.20006 -0.000845117 -7.90323e-05)
(1.19975 -0.000559412 -6.11675e-05)
(1.19958 -0.000362321 -5.01024e-05)
(1.19952 -0.000229652 -4.12946e-05)
(1.19951 -0.000144766 -3.39819e-05)
(1.19954 -8.80892e-05 -3.20721e-05)
(1.19958 -5.06235e-05 -2.87261e-05)
(1.19963 -2.27298e-05 -3.03462e-05)
(1.1997 -7.7236e-06 -3.34823e-05)
(1.25411 -0.0281538 -0.00142692)
(1.20907 -0.0321267 -0.00292439)
(1.20578 -0.00835375 -0.00267931)
(1.20172 -0.00692947 -0.00183434)
(1.20012 -0.00513197 -0.0012271)
(1.19974 -0.00347466 -0.000843919)
(1.19968 -0.0022759 -0.000587736)
(1.19972 -0.00147286 -0.000402895)
(1.19978 -0.000948437 -0.000273502)
(1.19984 -0.000605467 -0.000183917)
(1.19989 -0.000384601 -0.000123401)
(1.19993 -0.000242939 -8.27027e-05)
(1.19996 -0.00015228 -5.34984e-05)
(1.19998 -9.29011e-05 -3.05673e-05)
(1.19999 -5.1501e-05 -1.63309e-05)
(1.21948 -0.00630484 4.50043e-05)
(1.21368 -0.0138403 -0.000895048)
(1.20769 -0.00819795 -0.00115672)
(1.20364 -0.00526953 -0.00105131)
(1.20184 -0.00362466 -0.000828055)
(1.20103 -0.0024673 -0.000626525)
(1.20056 -0.00165063 -0.000462945)
(1.20031 -0.00108957 -0.000331489)
(1.20017 -0.000710144 -0.000233302)
(1.20009 -0.000457255 -0.000162661)
(1.20005 -0.000292382 -0.00011255)
(1.20004 -0.000186393 -7.58356e-05)
(1.20003 -0.000118606 -4.86478e-05)
(1.20003 -7.11723e-05 -2.7592e-05)
(1.20003 -3.86773e-05 -1.34224e-05)
(1.21306 -0.00192556 0.00010215)
(1.21111 -0.00444252 -0.000439213)
(1.20754 -0.00357097 -0.000684774)
(1.20462 -0.00246582 -0.00070443)
(1.20288 -0.00173597 -0.000618223)
(1.20179 -0.00119971 -0.000500771)
(1.2011 -0.000813325 -0.000386876)
(1.20067 -0.000541349 -0.000287552)
(1.20041 -0.000353407 -0.000208123)
(1.20026 -0.000226649 -0.000148799)
(1.20017 -0.000142388 -0.000104564)
(1.20011 -8.56577e-05 -7.16788e-05)
(1.20008 -4.87749e-05 -4.60329e-05)
(1.20006 -2.28149e-05 -2.57039e-05)
(1.20005 -7.70408e-06 -1.18187e-05)
(1.25125 -0.0249907 0.000175577)
(1.20856 -0.0342298 -0.00394994)
(1.20477 -0.00785103 -0.00436361)
(1.2019 -0.00623685 -0.00307793)
(1.20065 -0.0045959 -0.00207207)
(1.20021 -0.00313407 -0.0014445)
(1.20003 -0.0020808 -0.00100633)
(1.19996 -0.00136173 -0.000694289)
(1.19995 -0.000886879 -0.000473535)
(1.19996 -0.000572051 -0.000319587)
(1.19997 -0.000367972 -0.000213705)
(1.19999 -0.000234024 -0.000145102)
(1.2 -0.000147417 -9.52164e-05)
(1.2 -9.04435e-05 -5.98298e-05)
(1.20001 -4.8934e-05 -3.51331e-05)
(1.21803 -0.00599719 0.000379968)
(1.21281 -0.0133322 -0.00137999)
(1.20731 -0.00755944 -0.00201506)
(1.20379 -0.004703 -0.00182062)
(1.20216 -0.00322601 -0.00143771)
(1.20133 -0.00222554 -0.00108559)
(1.20081 -0.00150827 -0.000798126)
(1.2005 -0.00100858 -0.000575313)
(1.20031 -0.000664114 -0.00040587)
(1.2002 -0.000432717 -0.000281871)
(1.20013 -0.000279635 -0.000194422)
(1.20008 -0.000179607 -0.000134522)
(1.20006 -0.000114054 -8.91612e-05)
(1.20005 -6.88163e-05 -5.66547e-05)
(1.20005 -3.63333e-05 -3.26072e-05)
(1.21228 -0.00185154 0.000187306)
(1.21052 -0.00408559 -0.000723873)
(1.20733 -0.00321167 -0.00118725)
(1.2047 -0.00218498 -0.00123237)
(1.20306 -0.00154893 -0.00107416)
(1.202 -0.00108417 -0.000866286)
(1.20129 -0.00074419 -0.000668296)
(1.20083 -0.000501407 -0.00049979)
(1.20053 -0.000330584 -0.000362452)
(1.20035 -0.000213931 -0.000257541)
(1.20023 -0.00013397 -0.000180798)
(1.20015 -8.12194e-05 -0.000128471)
(1.20011 -4.72423e-05 -8.71481e-05)
(1.20008 -2.19049e-05 -5.57776e-05)
(1.20007 -6.33228e-06 -3.0726e-05)
(0.954417 -0.163177 -0.0363299)
(1.19766 0.00381188 0.00854827)
(1.31749 -0.0791702 -0.00848867)
(1.19205 -0.0159515 0.00673755)
(1.3183 -0.0780909 0.00903327)
(1.18137 -0.00625576 -0.00376845)
(1.31231 -0.0776037 -0.0110914)
(1.18746 -0.0110078 -0.00156279)
(1.31109 -0.0775899 0.00685244)
(1.18393 -0.0084603 -0.00565103)
(0.295403 0.0700442 -0.0347879)
(0.123596 0.0613132 -0.0088867)
(1.1968 -0.000656356 0.0181131)
(1.19092 -0.0153732 0.00427875)
(1.19566 -0.0226588 0.00556449)
(1.19103 -0.0226552 -0.00171542)
(1.20564 -0.0185594 0.00361445)
(1.23084 -0.00507056 0.000196552)
(1.2102 -0.00593479 0.0018331)
(1.25636 -0.0274448 -0.00289216)
(1.21057 -0.0566242 0.000409647)
(1.23304 -0.00393337 0.000479818)
(1.21304 -0.00790198 0.000368499)
(0.304812 0.0722729 -0.0065744)
(0.29446 0.0694547 -0.0122952)
(1.19181 -0.00659696 -0.0042714)
(1.19568 -0.011911 -0.00453204)
(1.19311 -0.01486 -0.0013905)
(1.19247 -0.0166727 -0.00247322)
(1.20569 -0.0492236 -0.00268022)
(1.23208 -0.0031928 0.000145775)
(1.21213 -0.00597531 -0.000823794)
(1.25248 -0.0259821 0.000796332)
(1.20793 -0.0526507 -0.0008742)
(1.23069 -0.0035293 -0.000558063)
(1.21199 -0.00665876 -0.00179527)
(0.302681 0.0733745 -0.0047485)
(0.300094 0.0719019 -0.0049907)
(1.19084 -0.010221 -0.00627234)
(1.19379 -0.0126269 -0.00619206)
(1.20561 -0.0501409 -0.00312504)
(1.22973 -0.00347038 -0.00118113)
(1.21154 -0.00596898 -0.00302349)
(0.559229 0.130936 -0.0498542)
(1.12544 0.0624403 -0.00480858)
(1.15074 -0.00841222 -0.038181)
(0.393506 0.178202 -0.0257668)
(0.310401 -0.072451 0.00151797)
(1.06815 -0.0864516 -0.108284)
(1.32924 -0.0938996 -0.0114303)
(1.22558 -0.0812115 -0.0235565)
(0.181176 -0.0474234 -0.030073)
(0.593787 -0.143579 0.00565128)
(1.18474 -0.0101528 0.0246093)
(1.2284 -0.025789 -0.0336886)
(1.19502 -0.0165331 0.0287135)
(1.20013 -0.0468477 0.0178191)
(1.19802 -0.0309427 0.0242988)
(0.340095 -0.089381 0.00512077)
(0.284302 0.0664126 -0.0226307)
(0.302634 0.0714214 -0.0140805)
(0.539943 0.122203 -0.0426069)
(1.18204 0.0032719 -0.00818371)
(1.13179 0.0692929 -0.0260075)
(0.572131 0.133937 -0.0198662)
(0.308454 -0.0716607 -0.00203071)
(1.32781 -0.0817011 0.00790266)
(1.23406 -0.0671111 -0.00269733)
(1.22788 -0.0711742 0.00113939)
(0.315309 -0.0724829 -0.00182608)
(0.592613 -0.144324 -0.0057226)
(1.17882 -0.00267651 -0.00263329)
(1.18964 -0.0560677 0.00753441)
(1.19875 -0.0317264 0.00398972)
(1.15866 -0.036171 0.000164856)
(1.17898 -0.0363595 -0.00397553)
(0.601146 -0.144748 -0.000297325)
(0.574306 0.13514 -0.00677602)
(0.560111 0.130902 -0.0249533)
(0.318138 -0.0717747 -0.00241268)
(1.22992 -0.0674619 -0.00483671)
(1.3152 -0.0772776 -0.0093836)
(0.314402 -0.072135 -0.00532318)
(1.23301 -0.0664216 -0.00143731)
(0.60378 -0.144606 1.54499e-05)
(1.16433 -0.0404364 -0.00530555)
(1.18695 -0.0345792 -0.00225314)
(1.19019 -0.0132999 0.00147114)
(0.599761 -0.144476 -0.0113371)
(1.18359 -0.0513824 0.00218311)
(1.19637 -0.0319708 7.50778e-06)
(0.299698 0.0711292 -0.00742217)
(0.304056 0.0727557 -0.00419254)
(0.56685 0.133337 -0.0153958)
(0.570962 0.135013 -0.0023506)
(0.317069 -0.0714402 -0.00519611)
(1.31461 -0.0775215 0.00775591)
(1.23139 -0.0670743 -0.00299538)
(1.23023 -0.066992 -0.00568343)
(0.321966 -0.0711406 -0.00309797)
(0.602069 -0.144144 -0.00979908)
(1.1831 -0.00809902 -0.00474791)
(1.17847 -0.0476069 -0.00151127)
(1.19367 -0.0320057 -0.00238674)
(1.16907 -0.0425502 -0.00633433)
(1.18951 -0.0333897 -0.00336493)
(0.607584 -0.145174 -0.000191511)
(0.566394 0.134703 -0.00307938)
(0.565293 0.133547 -0.0106468)
(0.327423 -0.0708167 -0.00458356)
(1.22998 -0.0671523 -0.00601674)
(1.30799 -0.0780182 -0.0131118)
(0.320458 -0.0707208 -0.00523002)
(1.22988 -0.0676224 -0.00669147)
(0.613613 -0.146587 -0.00233091)
(1.17179 -0.0433323 -0.00683257)
(1.19053 -0.0323905 -0.00492509)
(1.18567 -0.00927184 -0.00496863)
(0.605372 -0.144538 -0.008841)
(1.17555 -0.0452668 -0.00518384)
(1.19184 -0.0317087 -0.00555881)
(0.297695 0.0722823 -0.00467064)
(0.559556 0.132723 -0.0101265)
(0.324158 -0.070008 -0.00598072)
(1.30575 -0.0777253 0.00594697)
(1.22886 -0.0671856 -0.00769177)
(0.609153 -0.145258 -0.00981405)
(1.18458 -0.00808007 -0.00818326)
(1.17371 -0.0432843 -0.0091111)
(1.1908 -0.0313325 -0.00858522)
(0.286137 0.0671404 0.0449221)
(0.32623 0.0823094 0.0116656)
(0.297575 0.0702993 -0.00328737)
(0.304419 0.0720429 -0.00290301)
(0.299113 0.0721169 -0.00349026)
(0.303191 0.0730011 -0.00307642)
(1.07211 0.0895066 -0.115494)
(0.545331 0.118667 0.0705072)
(1.1037 -0.005481 0.0119298)
(0.62007 0.166351 0.0404203)
(1.06544 0.0668667 -0.108294)
(1.04788 0.255909 -0.0400168)
(1.40202 -0.174459 -0.00836142)
(1.25946 -0.171166 -0.0139603)
(0.288953 -0.0680943 0.0188246)
(1.26585 -0.159348 0.00376667)
(1.36666 -0.173441 -0.0361192)
(1.73249 -0.169862 -0.0543924)
(1.0392 -0.200619 0.013651)
(1.8428 -0.133173 -0.0603354)
(0.937753 -0.165874 -0.0271946)
(1.4516 -0.18765 -0.0137817)
(1.57812 -0.154688 -0.0446275)
(1.59126 -0.176002 0.00830844)
(1.42261 -0.180156 -0.0385426)
(1.68652 -0.172053 -0.0510448)
(0.292301 -0.0681965 0.0181139)
(1.26388 -0.121135 -0.099647)
(1.46106 -0.190415 -0.024837)
(0.938904 -0.141645 -0.0564782)
(1.1855 -0.0626805 0.0580723)
(1.10121 -0.0888536 -0.0165146)
(1.2029 -0.117879 -0.00524861)
(0.568421 -0.138052 0.0527778)
(1.13113 -0.116176 0.0620458)
(1.20283 -0.0976985 0.0342296)
(1.19398 -0.051706 -0.00717348)
(1.25948 -0.0818211 0.0481446)
(0.559462 -0.131755 0.0546854)
(1.19187 -0.0803472 -0.0417059)
(1.22005 -0.115566 -0.0723282)
(1.05185 -0.0389657 0.050552)
(1.32276 -0.154202 0.013851)
(1.22141 -0.100585 -0.0393212)
(0.302533 0.0717504 -0.00604959)
(0.286436 0.0670858 -0.00208257)
(1.077 0.0745264 -0.065272)
(0.573782 0.138291 -0.0031876)
(1.07005 0.104834 -0.00941966)
(0.547877 0.126172 -0.00504652)
(1.10835 0.0702593 -0.0419479)
(1.11133 0.0626487 0.0061805)
(1.37357 -0.166395 -0.0215511)
(1.2748 -0.162631 -0.00447931)
(0.310815 -0.0721202 0.00409709)
(1.38131 -0.167662 0.010887)
(1.27129 -0.166388 0.00111159)
(1.42069 -0.170005 0.022905)
(1.55282 -0.143662 -0.0344876)
(1.55496 -0.145221 0.0330566)
(1.41971 -0.169625 -0.0249573)
(1.42289 -0.17183 -0.0252001)
(1.5742 -0.151667 0.0293771)
(1.5607 -0.144083 -0.0362799)
(1.43195 -0.174615 0.0129163)
(1.37338 -0.16356 0.0215486)
(0.31331 -0.0723471 0.000700751)
(1.27853 -0.162218 -0.00183856)
(1.27865 -0.161052 0.00217656)
(1.37268 -0.163653 -0.022626)
(1.17462 -0.0650802 0.0125203)
(1.09844 -0.0968396 -0.00576498)
(1.20358 -0.115959 0.000757547)
(0.592285 -0.142348 0.0147465)
(1.17394 -0.0685972 -0.00391935)
(1.08724 -0.0873047 0.0147382)
(1.20241 -0.120979 0.00452297)
(1.19434 -0.0641058 0.0181424)
(0.599357 -0.144723 0.00447837)
(1.11743 -0.0956533 -0.0104879)
(1.21523 -0.114139 -0.00371858)
(1.11993 -0.0986433 0.0197275)
(1.2148 -0.112165 0.00810194)
(1.19556 -0.0632339 -0.0102725)
(0.564667 0.132107 -0.00655091)
(1.10955 0.0719113 -0.0204869)
(1.10942 0.0713141 0.00123188)
(0.574749 0.136373 0.00128171)
(1.09076 0.0811346 -0.0377508)
(1.09028 0.0840399 -0.00152769)
(1.37161 -0.162272 0.0204934)
(0.316095 -0.0718678 -0.002288)
(1.278 -0.160587 -0.00174732)
(1.27803 -0.160673 -0.000344548)
(1.37103 -0.162083 -0.0222749)
(1.41895 -0.168742 -0.0226729)
(1.55456 -0.142618 0.0332383)
(1.42074 -0.169307 0.0213746)
(1.55166 -0.141649 -0.0326464)
(1.37184 -0.163196 -0.0202202)
(0.315165 -0.0718734 0.000574198)
(1.27651 -0.162082 -0.00267836)
(1.37329 -0.163521 0.0187577)
(1.27596 -0.162118 0.000793399)
(1.41817 -0.168009 0.0228202)
(1.54852 -0.14121 -0.0340237)
(1.54965 -0.14164 0.0337633)
(1.41742 -0.167669 -0.0244279)
(1.1911 -0.0638246 0.00775813)
(0.601551 -0.144347 -0.00252492)
(1.11497 -0.0929907 -0.00730879)
(1.21349 -0.112998 -0.00400098)
(1.1151 -0.0935204 0.00683284)
(1.21337 -0.112709 0.00240592)
(1.19146 -0.0636933 -0.00870038)
(1.1803 -0.0645724 0.00363343)
(0.599111 -0.143566 0.00717421)
(1.10206 -0.0923542 -0.0113476)
(1.20889 -0.115697 -0.00258784)
(1.18115 -0.0650442 -0.00715695)
(1.10046 -0.0905205 0.00684576)
(1.20826 -0.115713 0.000527287)
(0.304499 0.0725406 -0.0022688)
(0.300367 0.0715733 -0.00321296)
(1.09819 0.0787387 -0.0212882)
(0.572806 0.135758 0.00179223)
(1.09781 0.0794934 -0.00289478)
(0.566866 0.133505 -0.00657413)
(1.10661 0.0740027 -0.0118021)
(1.10649 0.0740264 -0.00259912)
(1.36979 -0.161986 -0.0223828)
(1.27582 -0.160789 -0.00341024)
(0.319082 -0.071273 -0.0014675)
(1.37053 -0.162221 0.0183285)
(1.27552 -0.160571 -0.00136843)
(1.41574 -0.166961 0.0210714)
(1.5452 -0.140368 -0.0353505)
(1.54623 -0.140714 0.0324539)
(1.41511 -0.166559 -0.0260186)
(1.41623 -0.167334 -0.0246253)
(1.54868 -0.141187 0.0324542)
(1.5473 -0.140791 -0.0342381)
(1.41712 -0.167725 0.0209955)
(1.36957 -0.161584 0.0184988)
(0.318772 -0.0710778 -0.00381269)
(1.27591 -0.159806 -0.00293315)
(1.27601 -0.159962 -0.00277971)
(1.3691 -0.16137 -0.0239185)
(1.18245 -0.0637467 -0.00192085)
(1.10546 -0.0907358 -0.00921616)
(1.20936 -0.114013 -0.00318578)
(0.603617 -0.144236 0.00351629)
(1.18331 -0.0640412 -0.0056117)
(1.10453 -0.0900719 0.000940604)
(1.20878 -0.113764 -0.00246892)
(1.1876 -0.0634772 0.00196027)
(0.603871 -0.144314 -0.00541354)
(1.11118 -0.0911014 -0.00585592)
(1.21091 -0.112595 -0.004845)
(1.11126 -0.0911882 0.000226438)
(1.21095 -0.112486 -0.000955331)
(1.18762 -0.0633854 -0.00788492)
(0.562666 0.133161 -0.00759013)
(1.104 0.0746028 -0.0101696)
(1.10398 0.0747944 -0.00683174)
(0.568414 0.135019 1.60515e-05)
(1.10111 0.0769509 -0.0135105)
(1.10074 0.0771082 -0.00567686)
(1.36733 -0.160759 0.0167672)
(0.322284 -0.0703723 -0.00500182)
(1.27319 -0.158987 -0.00516269)
(1.27365 -0.159129 -0.00532461)
(1.36623 -0.160384 -0.0264562)
(1.41363 -0.165925 -0.0269696)
(1.54458 -0.140378 0.0318482)
(1.41455 -0.166417 0.0200522)
(1.54317 -0.139918 -0.0359026)
(1.36781 -0.161044 -0.0249115)
(0.324146 -0.0708704 -0.00324065)
(1.27449 -0.159736 -0.00467696)
(1.36858 -0.161282 0.0172795)
(1.27415 -0.15958 -0.00364695)
(1.41295 -0.165657 0.01963)
(1.54019 -0.139202 -0.0364635)
(1.54212 -0.139941 0.0318885)
(1.4116 -0.164951 -0.0283152)
(1.18519 -0.063026 -0.00271826)
(0.607204 -0.144888 -0.00768389)
(1.10856 -0.0899878 -0.00711281)
(1.20858 -0.112301 -0.0070342)
(1.1086 -0.0900578 -0.00495593)
(1.2088 -0.112188 -0.00411249)
(1.18509 -0.0629548 -0.00913935)
(1.18337 -0.0631706 -0.00609601)
(0.609509 -0.145553 0.00028052)
(1.10679 -0.0899122 -0.00775466)
(1.20884 -0.11289 -0.00403703)
(1.18395 -0.0633185 -0.0047721)
(1.10623 -0.0896601 -0.0035246)
(1.20842 -0.112806 -0.0051977)
(0.302958 0.074002 -0.00641909)
(0.296172 0.072461 -0.00528234)
(1.10218 0.0755202 -0.0129047)
(0.565581 0.13507 -0.00562263)
(1.10209 0.0754281 -0.0111394)
(0.556498 0.13223 -0.011241)
(1.10355 0.0743107 -0.0144048)
(1.36344 -0.159412 -0.0288496)
(1.27202 -0.158458 -0.00731545)
(0.331007 -0.07081 -0.0062361)
(1.36543 -0.160127 0.0155619)
(1.27106 -0.15826 -0.00734387)
(1.40669 -0.163328 0.016491)
(1.53333 -0.1384 0.0315834)
(1.40816 -0.16356 -0.0304064)
(1.5389 -0.139398 0.0319295)
(1.53533 -0.137991 -0.0370835)
(1.41063 -0.16473 0.0187091)
(1.36227 -0.15912 0.0129295)
(0.325827 -0.0695548 -0.0067609)
(1.27013 -0.157303 -0.0102168)
(1.18363 -0.0624344 -0.0107342)
(1.10728 -0.0891686 -0.00969375)
(1.20764 -0.111908 -0.00665608)
(0.617693 -0.147537 -0.00485836)
(1.18399 -0.0625658 -0.00662652)
(1.10709 -0.0888167 -0.0091149)
(1.20701 -0.111955 -0.00925483)
(1.18439 -0.0620033 -0.0085103)
(0.610967 -0.14551 -0.0111648)
(1.10821 -0.0883171 -0.012055)
(1.20694 -0.111134 -0.00924903)
(1.10972 0.213048 -0.111837)
(1.12462 0.191184 -0.104154)
(0.266993 0.0649981 -0.0301945)
(1.0916 0.185362 -0.107927)
(1.15281 0.225523 -0.114134)
(0.541904 0.00941195 -0.128286)
(1.00639 0.180297 -0.145711)
(1.06651 0.188616 -0.134478)
(0.952581 0.067932 -0.137124)
(0.218392 0.0441322 -0.117731)
(0.729632 0.363613 -0.260171)
(1.01451 0.0144739 -0.0505974)
(0.367476 0.11968 -0.038018)
(1.17406 0.218701 -0.0137798)
(0.298392 0.0706409 -0.0062248)
(1.15015 0.176841 -0.0143515)
(1.14664 0.175626 -0.0162745)
(1.1792 0.220305 -0.0177421)
(1.05092 0.185756 -0.0067583)
(1.05619 0.186645 -0.0571192)
(1.17525 0.221739 -0.023607)
(0.303156 0.0717822 -0.00961862)
(1.14784 0.181463 -0.0334239)
(1.1818 0.223791 -0.0310587)
(1.14428 0.181035 -0.0205872)
(1.02583 0.181657 -0.0382378)
(1.0421 0.184224 0.00380663)
(1.16816 0.222279 -0.00951056)
(0.297938 0.0721288 -0.00423142)
(1.14373 0.177344 -0.00881027)
(1.1407 0.176673 -0.0125068)
(1.17281 0.223501 -0.0126864)
(1.02975 0.186472 0.0141421)
(1.03709 0.186548 -0.0341994)
(1.17022 0.222067 -0.0087122)
(0.302847 0.0727948 -0.00373182)
(1.14574 0.178535 -0.0113585)
(1.17573 0.223389 -0.00751231)
(1.14246 0.177792 -0.00583339)
(1.01968 0.186352 -0.0328728)
(1.03451 0.188868 0.00824453)
(1.13489 0.13119 -0.116877)
(1.15789 0.154008 -0.10198)
(0.855578 0.100223 -0.0601707)
(0.525819 0.124824 -0.0517155)
(1.13599 0.153379 -0.114572)
(0.85756 0.109668 -0.0863969)
(1.14563 0.12719 -0.10215)
(1.09736 0.0356317 -0.0617338)
(0.455357 0.0874499 -0.169165)
(0.926928 0.297836 -0.21589)
(0.867673 0.209212 -0.101882)
(1.09221 0.00130668 -0.0396019)
(0.8046 0.0702238 -0.12211)
(1.04428 0.154963 -0.181256)
(1.16879 -0.226618 -0.0236487)
(1.14706 -0.189263 -0.00390665)
(0.307481 -0.0717705 -0.00514668)
(1.14106 -0.188177 -0.0180944)
(1.17407 -0.228505 -0.013293)
(0.878166 -0.11786 0.0943424)
(0.548863 -0.149468 0.0349925)
(1.02435 -0.187834 -0.0589147)
(1.0381 -0.185105 -0.011107)
(1.1153 -0.152159 -0.0194312)
(0.25648 -0.0523353 -0.0405882)
(0.995546 -0.210079 0.00806804)
(1.14144 -0.121089 -0.0279964)
(1.05337 -0.228001 -0.0104564)
(1.16508 -0.120395 -0.0150838)
(0.897825 -0.127893 0.00560521)
(1.17804 -0.150267 0.00467045)
(0.592494 -0.144844 -0.0123405)
(0.89322 -0.127004 -0.0135831)
(1.17441 -0.150442 -0.0170855)
(1.16577 -0.12245 0.00740118)
(1.301 -0.13612 -0.0485607)
(0.525853 -0.112057 -0.0627769)
(0.951972 -0.0517548 -0.0151024)
(0.984794 -0.19601 0.00949605)
(0.97299 -0.136642 -0.0267858)
(1.24862 -0.0973366 -0.0306083)
(1.03217 -0.129516 -0.0193808)
(1.17836 0.224154 -0.0577025)
(1.15346 0.190052 -0.0855703)
(0.298559 0.0703243 -0.0231765)
(1.19928 0.237296 -0.0899771)
(1.14033 0.184596 -0.0534442)
(1.0202 0.178604 -0.0525457)
(1.04419 0.182555 -0.0256367)
(1.08799 0.1928 -0.0653544)
(1.10902 0.202821 -0.124338)
(1.16888 0.215243 -0.0303848)
(0.290194 0.0682798 -0.0104988)
(1.14757 0.176259 -0.0328311)
(1.17624 0.21807 -0.0370559)
(1.14184 0.17392 -0.0315083)
(1.15643 0.119234 -0.0521008)
(1.1779 0.140811 -0.0867629)
(0.858321 0.093662 -0.0609409)
(0.565353 0.133664 -0.0366979)
(1.1591 0.108531 -0.0793817)
(1.16961 0.14372 -0.0485949)
(0.864576 0.104451 -0.0539843)
(1.16982 0.102151 -0.0331172)
(0.554582 0.128308 -0.0206394)
(1.18104 0.131868 -0.0297848)
(0.882552 0.0985026 -0.0321919)
(1.17741 0.129652 -0.0358165)
(0.881059 0.0975466 -0.0282858)
(1.17191 0.10383 -0.0352455)
(1.17096 -0.221667 -0.00808269)
(1.14411 -0.181188 -0.00596828)
(0.308277 -0.0718741 -0.000620392)
(1.17045 -0.220525 -0.00577583)
(1.14587 -0.182763 -0.00269885)
(1.02434 -0.179602 -0.0349079)
(1.03821 -0.18091 0.022226)
(1.02025 -0.180369 0.00454753)
(1.02373 -0.181254 -0.0451697)
(1.17895 -0.219684 -0.00358512)
(0.314816 -0.0725294 -0.003693)
(1.15824 -0.182381 -0.001947)
(1.15494 -0.181416 -0.00556035)
(1.18464 -0.221041 -0.00529263)
(1.16601 -0.119546 0.00256713)
(0.89802 -0.126346 -0.00325625)
(1.17584 -0.143616 -0.00968816)
(0.589923 -0.142272 0.00180005)
(1.16542 -0.118988 -0.00729474)
(0.896396 -0.125649 -0.00594025)
(1.17712 -0.145498 0.00379351)
(1.17933 -0.118741 -0.00854639)
(0.602627 -0.146036 -0.00690648)
(0.9094 -0.126764 -0.00706708)
(1.19018 -0.144907 0.00240576)
(0.910938 -0.127912 -0.00469326)
(1.18863 -0.144292 -0.0100444)
(1.17927 -0.118927 -0.00080097)
(1.17134 0.102787 -0.0192681)
(0.56588 0.132366 -0.0123786)
(1.1819 0.13121 -0.0102839)
(0.889858 0.100153 -0.0160539)
(1.17975 0.130223 -0.0214706)
(0.889285 0.0998241 -0.0147459)
(1.17255 0.103548 -0.0144983)
(1.163 0.116247 -0.0183556)
(0.573554 0.136156 -0.0117525)
(1.17679 0.13936 -0.0401553)
(0.879837 0.103278 -0.0351062)
(1.17435 0.140675 -0.0159936)
(1.16399 0.113586 -0.041299)
(0.880909 0.10585 -0.0216339)
(1.18064 -0.216153 -0.00379704)
(0.316616 -0.0717218 -0.00413911)
(1.15885 -0.179669 -0.00213535)
(1.15594 -0.179231 -0.00618152)
(1.18575 -0.21683 -0.00515317)
(1.02714 -0.17893 0.0237107)
(1.03549 -0.179855 -0.0325002)
(1.17892 -0.219261 -0.00231934)
(0.313542 -0.0718824 -0.00113907)
(1.15672 -0.182163 -0.00560307)
(1.18411 -0.220577 -0.00209153)
(1.15321 -0.181496 0.000423411)
(1.02609 -0.176979 -0.0329007)
(1.03831 -0.177862 0.0238344)
(1.17919 -0.117728 -0.00929336)
(0.603062 -0.144902 -0.00702728)
(0.907826 -0.125192 -0.00547081)
(1.19091 -0.143504 0.00231927)
(0.908817 -0.125788 -0.00496462)
(1.18934 -0.143172 -0.010759)
(1.17952 -0.117717 -0.000223559)
(1.17209 -0.118898 0.00332776)
(0.597249 -0.143442 0.00216964)
(0.902687 -0.125422 -0.0114847)
(1.18726 -0.14521 -0.0115968)
(1.17429 -0.11905 -0.0128913)
(0.900414 -0.124553 -0.00342603)
(1.18455 -0.144871 0.0049122)
(1.17348 0.221593 -0.0119806)
(1.14812 0.179487 -0.0169997)
(0.303959 0.0723682 -0.00482229)
(1.17918 0.222899 -0.0133807)
(1.14475 0.17899 -0.00921372)
(1.02498 0.184102 -0.0334482)
(1.03936 0.186466 0.0122168)
(1.03779 0.185139 0.0108936)
(1.04443 0.185506 -0.0405724)
(1.17227 0.220835 -0.00868487)
(0.299843 0.0716734 -0.00444689)
(1.14768 0.177403 -0.00821254)
(1.17696 0.222169 -0.0116571)
(1.14472 0.17657 -0.0116382)
(1.16547 0.110375 -0.00687636)
(1.17772 0.135667 -0.0239214)
(0.88738 0.102823 -0.0200162)
(0.573114 0.135987 -0.00338556)
(1.1666 0.109444 -0.0245287)
(1.17544 0.135843 -0.00443578)
(0.887462 0.103731 -0.0110685)
(1.1682 0.103666 -0.0151433)
(0.565978 0.133415 -0.00914896)
(1.1784 0.130749 -0.00321867)
(0.891273 0.0996336 -0.00923764)
(1.1766 0.13035 -0.0171279)
(0.891067 0.0998525 -0.0107209)
(1.16923 0.103839 -0.00630226)
(1.17942 -0.214741 -0.00294838)
(1.15746 -0.179769 -0.00604422)
(0.317358 -0.0713289 -0.00210989)
(1.1848 -0.216618 -0.0027272)
(1.15397 -0.178684 -0.000474978)
(1.02371 -0.173068 -0.0336683)
(1.03635 -0.173887 0.0203961)
(1.02725 -0.1759 0.0239529)
(1.0362 -0.177199 -0.032468)
(1.18002 -0.211448 -0.00595224)
(0.319299 -0.070888 -0.00471894)
(1.15818 -0.176907 -0.00347037)
(1.15517 -0.176666 -0.00804459)
(1.18506 -0.21188 -0.00663443)
(1.17434 -0.117838 0.0023246)
(0.903591 -0.124686 -0.00947709)
(1.18874 -0.144019 -0.0114544)
(0.601901 -0.144077 0.00122972)
(1.17605 -0.118031 -0.0118216)
(0.902109 -0.124412 -0.00332164)
(1.18635 -0.143438 0.00389814)
(1.17766 -0.117473 -0.0106946)
(0.604921 -0.144725 -0.00751037)
(0.905424 -0.125668 -0.00440517)
(1.1906 -0.142882 0.00131997)
(0.90587 -0.125898 -0.00608135)
(1.18873 -0.142627 -0.0122091)
(1.17842 -0.117424 -0.000256741)
(1.16428 0.102979 -0.0158924)
(0.560867 0.132948 -0.00906405)
(1.17404 0.129082 -0.00300897)
(0.891357 0.0977167 -0.00876655)
(1.17203 0.128983 -0.0179762)
(0.891022 0.0980988 -0.011504)
(1.16561 0.102828 -0.00541024)
(1.16488 0.106469 -0.00318538)
(0.569084 0.135246 -0.00144209)
(1.17557 0.132588 -0.0178196)
(0.889957 0.100597 -0.0134399)
(1.17352 0.13214 -0.000705829)
(1.16577 0.106315 -0.0172385)
(0.889834 0.100823 -0.00767079)
(1.17899 -0.205339 -0.0099203)
(0.322769 -0.0701524 -0.00563145)
(1.15779 -0.17329 -0.00694953)
(1.15433 -0.173071 -0.0115135)
(1.18426 -0.205722 -0.0104121)
(1.0249 -0.171618 0.0194876)
(1.0332 -0.173014 -0.0336043)
(1.1789 -0.209245 -0.00502589)
(0.322043 -0.0708631 -0.00318904)
(1.15717 -0.176717 -0.00742665)
(1.18416 -0.211394 -0.00465609)
(1.15402 -0.175453 -0.0024548)
(1.01915 -0.167889 -0.0356067)
(1.03332 -0.168846 0.0113214)
(1.17647 -0.117342 -0.0134974)
(0.608062 -0.145241 -0.00894168)
(0.903995 -0.127248 -0.00618991)
(1.19074 -0.142069 -0.00186402)
(0.903778 -0.127199 -0.00888927)
(1.18834 -0.141783 -0.01512)
(1.17786 -0.117297 -0.00272157)
(1.17549 -0.11736 0.000799463)
(0.607367 -0.145221 -0.000115811)
(0.903457 -0.125605 -0.00836708)
(1.18929 -0.143036 -0.0120619)
(1.17655 -0.11757 -0.0114793)
(0.902665 -0.125719 -0.00397509)
(1.18744 -0.142422 0.00207605)
(1.16613 0.222499 -0.0121248)
(1.14189 0.177538 -0.0125754)
(0.301858 0.0735477 -0.00544491)
(1.17124 0.223966 -0.00893227)
(1.13916 0.176595 -0.00875189)
(1.02256 0.18846 0.0055033)
(1.02894 0.188222 -0.0337397)
(1.16315 0.103119 -0.00532479)
(1.17183 0.129384 -0.0185224)
(0.89078 0.0978033 -0.0134556)
(0.565128 0.134909 -0.00423242)
(1.16333 0.103428 -0.0169703)
(1.17046 0.128563 -0.00300988)
(0.89102 0.0978077 -0.00971307)
(1.17836 -0.202408 -0.0100394)
(1.15659 -0.172565 -0.0113056)
(0.328234 -0.0706788 -0.00528313)
(1.18312 -0.204754 -0.00920773)
(1.15417 -0.171182 -0.00713789)
(1.02164 -0.166285 0.00775361)
(1.02805 -0.167508 -0.0360797)
(1.1764 -0.116747 -0.00322988)
(0.903127 -0.127146 -0.0105501)
(1.18951 -0.14166 -0.0151452)
(0.614694 -0.146988 -0.00349718)
(1.17656 -0.11705 -0.0138823)
(0.903187 -0.127466 -0.00740773)
(1.1885 -0.140985 -0.00235318)
(1.09965 0.218538 -0.113974)
(1.18607 0.23218 -0.121697)
(1.11089 0.214322 -0.119106)
(1.1416 0.232944 -0.123603)
(1.09664 0.163804 -0.093609)
(0.264105 0.0614838 -0.0392826)
(1.12629 0.143596 -0.0400652)
(1.15795 0.215808 -0.0782287)
(1.07086 0.112577 -0.0809329)
(1.08506 0.198845 -0.103828)
(1.21632 0.275666 -0.198048)
(1.12776 0.208868 -0.120546)
(1.14875 0.256519 -0.11897)
(0.836207 0.0663901 -0.173465)
(1.09975 0.184692 -0.273192)
(0.617482 0.0145723 -0.144765)
(0.790114 0.0658487 -0.209617)
(0.89624 0.0603102 -0.190984)
(1.17414 0.253854 -0.244788)
(1.16363 0.197758 -0.266574)
(0.911653 0.0946204 -0.227286)
(1.06877 0.184661 -0.142637)
(1.14555 0.211864 -0.12273)
(1.0708 0.197906 -0.127355)
(1.13219 0.194488 -0.129472)
(1.03557 0.175322 -0.156386)
(1.13652 0.213838 -0.246041)
(1.09586 0.178164 -0.148104)
(1.18472 0.253462 -0.217083)
(1.09023 0.193822 -0.131076)
(1.19846 0.22428 -0.247726)
(1.0732 0.308308 -0.238585)
(0.249522 0.0754043 -0.0840878)
(1.12594 0.330081 -0.0587861)
(1.14146 0.326604 -0.108071)
(1.08473 0.368228 -0.233297)
(0.82905 0.0823657 -0.197867)
(0.863508 0.0821804 -0.223071)
(1.05291 0.224374 -0.246426)
(1.21114 0.286394 -0.22917)
(1.14464 0.294143 -0.176473)
(0.982097 0.130414 -0.234106)
(1.17411 0.21773 -0.0120762)
(0.303182 0.0717824 -0.0045975)
(1.14829 0.175771 -0.0084523)
(1.17812 0.218988 -0.00637362)
(1.14709 0.174561 -0.00863596)
(1.15908 0.232121 -0.0118257)
(1.17633 0.221762 -0.00748678)
(1.16142 0.21856 -0.0238569)
(1.16518 0.233922 -0.0202891)
(1.15837 0.231595 -0.0145098)
(1.1729 0.220733 -0.0186737)
(1.16515 0.233169 -0.00496522)
(1.16541 0.219332 -0.00241604)
(1.11892 0.192488 -0.00860828)
(1.14215 0.20729 -0.0461989)
(1.13609 0.20497 -0.0130161)
(1.12519 0.193539 -0.0546011)
(1.04329 0.185182 -0.0450413)
(1.05744 0.186978 0.00925319)
(1.11149 0.19196 -0.0421933)
(1.14421 0.206654 0.00147717)
(1.12958 0.205034 -0.0339985)
(1.12649 0.194199 0.00685709)
(1.17544 0.223422 -0.0199017)
(0.295565 0.0699632 -0.00834203)
(1.14918 0.182951 -0.00760403)
(1.18208 0.224668 -0.0122149)
(1.14361 0.182487 -0.0219225)
(1.16339 0.234133 -0.0267301)
(1.18538 0.225641 -0.0424124)
(1.17872 0.223049 -0.0153228)
(1.17273 0.237543 -0.028819)
(1.16477 0.235719 -0.0174294)
(1.18714 0.224971 -0.00127756)
(1.17105 0.237259 -0.016014)
(1.17303 0.223208 -0.0300099)
(1.09422 0.188447 -0.0354561)
(1.13256 0.203469 -0.00414529)
(1.11672 0.200585 -0.0277721)
(1.11109 0.191412 0.00118069)
(1.03146 0.18281 0.00849542)
(1.03857 0.182807 -0.0345887)
(1.09956 0.189669 0.00607108)
(1.12865 0.202418 -0.0234012)
(1.1214 0.201431 0.000595776)
(1.10759 0.189586 -0.03154)
(1.16839 0.221823 -0.00857473)
(0.302065 0.0730333 -0.00371694)
(1.14394 0.17757 -0.00882911)
(1.17344 0.223289 -0.00535464)
(1.14126 0.176491 -0.00534504)
(1.15226 0.236041 -0.00736114)
(1.16769 0.223415 -0.00164496)
(1.15447 0.220697 -0.0196802)
(1.15779 0.237621 -0.0153129)
(1.15211 0.235552 -0.0109394)
(1.16656 0.222569 -0.0173725)
(1.15933 0.237341 -0.00307334)
(1.15831 0.221263 0.00209908)
(1.0977 0.194138 0.0113606)
(1.12682 0.204489 -0.0237203)
(1.11881 0.203492 0.00585259)
(1.10603 0.194272 -0.0310695)
(1.02523 0.185925 -0.0330489)
(1.03914 0.188144 0.0140846)
(1.09343 0.193578 -0.0301007)
(1.12854 0.205444 0.00576729)
(1.11513 0.203122 -0.0232589)
(1.10791 0.196143 0.0112468)
(1.17028 0.222666 -0.00867028)
(0.299026 0.0719553 -0.00440026)
(1.14527 0.178608 -0.00582161)
(1.17511 0.223819 -0.00970024)
(1.14209 0.17809 -0.011705)