/*--------------------------------*- C++ -*----------------------------------*\
| =========                 |                                                 |
| \\      /  F ield         | OpenFOAM: The Open Source CFD Toolbox           |
|  \\    /   O peration     | Version:  2012                                  |
|   \\  /    A nd           | Website:  www.openfoam.com                      |
|    \\/     M anipulation  |                                                 |
\*---------------------------------------------------------------------------*/
FoamFile
{
    version     2.0;
    format      ascii;
    class       volVectorField;
    location    "0.107/fluid";
    object      U_0;
}
// * * * * * * * * * * * * * * * * * * * * * * * * * * * * * * * * * * * * * //

dimensions      [0 1 -1 0 0 0 0];


internalField   nonuniform List<vector> 
16422
(
(1.25476 -0.0450469 -0.00494488)
(1.20897 -0.0110837 0.00629528)
(1.20258 -0.0123618 0.00202806)
(1.19875 -0.00788425 0.000252575)
(1.19822 -0.00544732 -0.000200411)
(1.19839 -0.00361867 -0.000184341)
(1.19864 -0.00235723 -0.000119317)
(1.19886 -0.00151754 -7.74317e-05)
(1.19904 -0.000971343 -5.4504e-05)
(1.19919 -0.000616606 -4.18951e-05)
(1.19931 -0.000389128 -3.14894e-05)
(1.19941 -0.000245155 -2.74842e-05)
(1.19951 -0.000153217 -2.66642e-05)
(1.1996 -9.37239e-05 -2.52183e-05)
(1.19968 -5.12507e-05 -2.69675e-05)
(1.21882 -0.00636916 3.00926e-05)
(1.21216 -0.0131007 0.000896642)
(1.20562 -0.0087544 0.000244984)
(1.20168 -0.00563875 -0.000132321)
(1.20026 -0.0038111 -0.000184946)
(1.19976 -0.00257589 -0.000143431)
(1.19951 -0.00171241 -9.76976e-05)
(1.1994 -0.00112265 -7.02976e-05)
(1.19937 -0.000728319 -5.23562e-05)
(1.19938 -0.000465961 -4.06807e-05)
(1.19943 -0.000297208 -3.34422e-05)
(1.19948 -0.000187899 -3.08735e-05)
(1.19955 -0.000120477 -2.87625e-05)
(1.19962 -7.26094e-05 -2.83808e-05)
(1.19969 -3.84948e-05 -3.11652e-05)
(1.21248 -0.00187379 4.22985e-05)
(1.21015 -0.00445055 0.00016471)
(1.20621 -0.00369284 9.87093e-06)
(1.20319 -0.002587 -9.75767e-05)
(1.20155 -0.00182204 -0.000118271)
(1.20062 -0.00125326 -0.000102579)
(1.20007 -0.000844098 -7.89405e-05)
(1.19975 -0.000558845 -6.10976e-05)
(1.19959 -0.000362004 -5.00511e-05)
(1.19952 -0.000229481 -4.12511e-05)
(1.19951 -0.00014468 -3.39512e-05)
(1.19954 -8.80432e-05 -3.20444e-05)
(1.19958 -5.05967e-05 -2.87062e-05)
(1.19963 -2.27208e-05 -3.03342e-05)
(1.1997 -7.72697e-06 -3.34658e-05)
(1.2538 -0.0281429 -0.001491)
(1.20915 -0.0319714 -0.00298444)
(1.20579 -0.00834945 -0.0026975)
(1.20172 -0.00692415 -0.00183827)
(1.20013 -0.00512737 -0.00122713)
(1.19974 -0.00347144 -0.000843252)
(1.19968 -0.00227394 -0.00058703)
(1.19972 -0.00147166 -0.000402324)
(1.19978 -0.000947702 -0.000273088)
(1.19984 -0.000605012 -0.00018363)
(1.19989 -0.000384324 -0.000123202)
(1.19993 -0.000242774 -8.25712e-05)
(1.19996 -0.000152177 -5.3405e-05)
(1.19998 -9.28339e-05 -3.05061e-05)
(1.19999 -5.14536e-05 -1.63012e-05)
(1.2194 -0.00630884 3.92403e-05)
(1.21367 -0.0138014 -0.000907793)
(1.20768 -0.00817383 -0.00116347)
(1.20363 -0.00525795 -0.00105289)
(1.20184 -0.00361868 -0.00082782)
(1.20103 -0.00246403 -0.000625858)
(1.20056 -0.00164881 -0.000462282)
(1.20031 -0.00108853 -0.000330955)
(1.20017 -0.000709529 -0.000232913)
(1.20009 -0.000456894 -0.000162392)
(1.20005 -0.000292176 -0.000112358)
(1.20004 -0.000186272 -7.57063e-05)
(1.20003 -0.000118537 -4.85591e-05)
(1.20003 -7.1133e-05 -2.75348e-05)
(1.20003 -3.86536e-05 -1.33944e-05)
(1.21302 -0.00192265 0.000101787)
(1.21108 -0.00442772 -0.000441193)
(1.20753 -0.00355815 -0.000685944)
(1.20461 -0.00245883 -0.000704417)
(1.20288 -0.00173244 -0.00061763)
(1.20179 -0.00119784 -0.000500048)
(1.2011 -0.000812311 -0.000386229)
(1.20067 -0.000540792 -0.000287041)
(1.20041 -0.000353099 -0.000207748)
(1.20026 -0.000226483 -0.000148541)
(1.20017 -0.000142299 -0.000104377)
(1.20011 -8.56147e-05 -7.15525e-05)
(1.20008 -4.87561e-05 -4.59487e-05)
(1.20006 -2.28024e-05 -2.56487e-05)
(1.20005 -7.70438e-06 -1.17915e-05)
(1.25073 -0.0248011 0.000157454)
(1.20871 -0.033987 -0.00399417)
(1.2048 -0.00782948 -0.00436954)
(1.20191 -0.00622852 -0.00307592)
(1.20065 -0.00459063 -0.00206969)
(1.20022 -0.00313094 -0.00144257)
(1.20003 -0.00207894 -0.00100483)
(1.19996 -0.0013606 -0.000693203)
(1.19995 -0.000886185 -0.000472775)
(1.19996 -0.000571616 -0.000319062)
(1.19997 -0.00036771 -0.000213357)
(1.19999 -0.00023386 -0.000144862)
(1.2 -0.000147323 -9.50547e-05)
(1.2 -9.03799e-05 -5.97252e-05)
(1.20001 -4.88882e-05 -3.50713e-05)
(1.21794 -0.00599051 0.000382826)
(1.21279 -0.01327 -0.00138523)
(1.2073 -0.00752578 -0.0020162)
(1.20379 -0.00468884 -0.00181918)
(1.20217 -0.0032196 -0.00143578)
(1.20133 -0.0022223 -0.00108384)
(1.20081 -0.00150652 -0.000796757)
(1.2005 -0.00100759 -0.000574307)
(1.20031 -0.000663528 -0.000405156)
(1.2002 -0.000432376 -0.000281371)
(1.20013 -0.000279435 -0.000194088)
(1.20008 -0.000179493 -0.00013429)
(1.20006 -0.00011399 -8.90076e-05)
(1.20005 -6.87816e-05 -5.65549e-05)
(1.20005 -3.63068e-05 -3.25478e-05)
(1.21223 -0.00184791 0.000188371)
(1.21049 -0.00406712 -0.000723397)
(1.20731 -0.00319644 -0.00118621)
(1.20469 -0.00217717 -0.00123057)
(1.20306 -0.00154524 -0.00107225)
(1.20199 -0.00108231 -0.000864647)
(1.20129 -0.000743211 -0.000667015)
(1.20083 -0.000500875 -0.000498839)
(1.20053 -0.00033029 -0.000361766)
(1.20035 -0.00021377 -0.000257059)
(1.20023 -0.000133887 -0.000180471)
(1.20016 -8.11853e-05 -0.000128252)
(1.20011 -4.72264e-05 -8.69973e-05)
(1.20008 -2.18919e-05 -5.56807e-05)
(1.20007 -6.32792e-06 -3.0663e-05)
(0.954767 -0.16282 -0.0365416)
(1.19755 0.00368507 0.00865483)
(1.31723 -0.0788152 -0.00852839)
(1.19215 -0.0159721 0.00662385)
(1.318 -0.0776914 0.00888738)
(1.18154 -0.00625579 -0.00387285)
(1.31165 -0.0769282 -0.0110884)
(1.18771 -0.0108817 -0.00168072)
(1.31038 -0.076876 0.00675169)
(1.18424 -0.00829296 -0.00574665)
(0.295751 0.0700909 -0.034771)
(0.123789 0.0613381 -0.00889931)
(1.19678 -0.000795605 0.0180705)
(1.19092 -0.0153826 0.00425704)
(1.19573 -0.0227432 0.00546645)
(1.19104 -0.022613 -0.00174849)
(1.20572 -0.0185459 0.00361168)
(1.23077 -0.00501594 0.000194232)
(1.21015 -0.00589748 0.0018242)
(1.25608 -0.0274778 -0.00295223)
(1.21069 -0.0565013 0.000340025)
(1.23296 -0.00386858 0.000470115)
(1.21297 -0.00784251 0.000348292)
(0.305282 0.0721214 -0.00691241)
(0.294821 0.0694092 -0.0125223)
(1.19192 -0.00669686 -0.00435038)
(1.1957 -0.011899 -0.00456057)
(1.19328 -0.0148709 -0.00147769)
(1.19253 -0.0166258 -0.00250524)
(1.20584 -0.0490891 -0.00275432)
(1.23199 -0.00312393 0.000136678)
(1.21207 -0.00591118 -0.000843291)
(1.25202 -0.0258321 0.00075892)
(1.20811 -0.0524093 -0.000951299)
(1.23058 -0.00344548 -0.000562119)
(1.21192 -0.00656038 -0.00181154)
(0.303943 0.0729451 -0.00514842)
(0.300875 0.0716052 -0.0053982)
(1.19106 -0.0102186 -0.00633525)
(1.19387 -0.0125909 -0.00620433)
(1.20581 -0.0498725 -0.00318421)
(1.22961 -0.00338643 -0.00118104)
(1.21147 -0.00586448 -0.00303157)
(0.560026 0.131054 -0.049794)
(1.12531 0.0622184 -0.00475834)
(1.15065 -0.00859882 -0.0381942)
(0.394017 0.178269 -0.0257821)
(0.311078 -0.0725864 0.00134225)
(1.06877 -0.086103 -0.10812)
(1.32898 -0.0937256 -0.0114914)
(1.2254 -0.0808195 -0.023482)
(0.181938 -0.0476185 -0.0301037)
(0.594983 -0.143778 0.00546986)
(1.18462 -0.010006 0.0245846)
(1.22821 -0.0257374 -0.0334511)
(1.19513 -0.0165722 0.0285953)
(1.20009 -0.0467789 0.0176741)
(1.19802 -0.0307779 0.0243113)
(0.341285 -0.0895845 0.00505597)
(0.284556 0.0664261 -0.0226692)
(0.303017 0.07139 -0.0142947)
(0.540585 0.122265 -0.0426143)
(1.182 0.00312543 -0.00829978)
(1.13183 0.0691021 -0.0260763)
(0.573192 0.133962 -0.0201271)
(0.309188 -0.0718073 -0.00220722)
(1.32763 -0.0814551 0.00777298)
(1.23391 -0.0666743 -0.00271613)
(1.22767 -0.0708398 0.00105196)
(0.316237 -0.0726254 -0.00213703)
(0.593925 -0.144559 -0.00587894)
(1.17896 -0.002725 -0.00266102)
(1.18966 -0.0559451 0.00739661)
(1.19877 -0.0314964 0.00386466)
(1.1587 -0.0360684 7.75791e-05)
(1.17902 -0.0361662 -0.00401739)
(0.602894 -0.144971 -0.000650276)
(0.575869 0.13506 -0.00719658)
(0.561166 0.130909 -0.0252113)
(0.319361 -0.0719273 -0.00278822)
(1.22977 -0.0669721 -0.00506408)
(1.31476 -0.0767566 -0.00941396)
(0.315351 -0.0722805 -0.00562456)
(1.23287 -0.0657984 -0.00148939)
(0.60622 -0.144826 -0.000429135)
(1.16445 -0.0403119 -0.00545264)
(1.18703 -0.034276 -0.00240485)
(1.19036 -0.0132535 0.0013428)
(0.601561 -0.144704 -0.0116404)
(1.18374 -0.0512289 0.00201635)
(1.19647 -0.0315992 -0.000161386)
(0.300173 0.0709672 -0.00775901)
(0.304815 0.0724676 -0.00461107)
(0.568453 0.133247 -0.015785)
(0.573429 0.134868 -0.00286494)
(0.318304 -0.0715941 -0.00555468)
(1.31412 -0.076951 0.00761738)
(1.23126 -0.0662411 -0.00303841)
(1.23009 -0.0663006 -0.00592768)
(0.323378 -0.0713036 -0.00346257)
(0.604552 -0.144362 -0.0101831)
(1.18333 -0.00802292 -0.004861)
(1.17878 -0.0474015 -0.00167768)
(1.19385 -0.0314609 -0.00254849)
(1.16933 -0.0423823 -0.00649174)
(1.18966 -0.0329305 -0.00352874)
(0.610616 -0.145335 -0.000653746)
(0.570156 0.134544 -0.00357987)
(0.567834 0.133397 -0.0111182)
(0.328857 -0.0709886 -0.00485114)
(1.22984 -0.0662518 -0.00623686)
(1.30711 -0.0772309 -0.0130705)
(0.321871 -0.070885 -0.00557346)
(1.22973 -0.066592 -0.00668743)
(0.617037 -0.146628 -0.00272444)
(1.1722 -0.0431005 -0.00697736)
(1.19075 -0.0317548 -0.00506706)
(1.18601 -0.00905622 -0.00504218)
(0.608434 -0.144691 -0.00923539)
(1.17602 -0.0449943 -0.00530501)
(1.19207 -0.0309885 -0.00567056)
(0.298994 0.0718457 -0.00505014)
(0.563417 0.132564 -0.0105771)
(0.325584 -0.070182 -0.0062239)
(1.30483 -0.0769151 0.00589068)
(1.22871 -0.0661014 -0.0078419)
(0.612598 -0.145287 -0.0101352)
(1.18494 -0.00782812 -0.00820558)
(1.17427 -0.0429818 -0.00917213)
(1.19107 -0.0305363 -0.00863948)
(0.286588 0.0672186 0.0449421)
(0.326448 0.0823297 0.0116597)
(0.297985 0.0702044 -0.00359369)
(0.304816 0.0719505 -0.00320832)
(0.300133 0.0717508 -0.00390632)
(0.304179 0.0726417 -0.00350877)
(1.07247 0.0891575 -0.115353)
(0.546094 0.118771 0.0705631)
(1.10416 -0.00584533 0.0117943)
(0.620467 0.166351 0.0404526)
(1.06614 0.0663266 -0.108128)
(1.04782 0.255481 -0.0399487)
(1.40164 -0.174069 -0.00814818)
(1.25909 -0.170824 -0.0138997)
(0.289772 -0.0682574 0.0188876)
(1.26541 -0.158889 0.00407658)
(1.36598 -0.173172 -0.0361753)
(1.73192 -0.169842 -0.0544485)
(1.03982 -0.200562 0.0135378)
(1.84253 -0.133222 -0.0604617)
(0.938751 -0.165659 -0.0273921)
(1.45118 -0.187336 -0.0137655)
(1.57748 -0.154534 -0.0447696)
(1.59075 -0.17592 0.00806654)
(1.4219 -0.179918 -0.0386459)
(1.68563 -0.171968 -0.0510347)
(0.293155 -0.068396 0.0181521)
(1.26436 -0.121015 -0.0995874)
(1.4591 -0.190354 -0.0246691)
(0.940086 -0.141323 -0.0566458)
(1.18524 -0.0625149 0.0577557)
(1.10163 -0.088533 -0.0165135)
(1.20262 -0.117608 -0.00520681)
(0.569792 -0.138335 0.0526932)
(1.13152 -0.115923 0.0617736)
(1.20233 -0.0974447 0.03423)
(1.1938 -0.0515173 -0.00715278)
(1.25861 -0.0814868 0.04835)
(0.560798 -0.132025 0.0545988)
(1.19231 -0.080028 -0.0414656)
(1.21989 -0.115695 -0.0717967)
(1.05227 -0.0385371 0.0506234)
(1.32089 -0.15403 0.0141853)
(1.22085 -0.100493 -0.0387464)
(0.302887 0.071761 -0.00623409)
(0.286813 0.0670972 -0.00227885)
(1.07733 0.0741337 -0.065319)
(0.57465 0.13836 -0.00341294)
(1.07043 0.104445 -0.00955925)
(0.548815 0.126244 -0.00526947)
(1.10878 0.0698658 -0.0420598)
(1.11172 0.0622788 0.00598608)
(1.37305 -0.166012 -0.0216802)
(1.27438 -0.162199 -0.00455293)
(0.311604 -0.0722591 0.00383368)
(1.38074 -0.167337 0.0107523)
(1.27094 -0.165917 0.000958753)
(1.42017 -0.16959 0.0226723)
(1.55212 -0.143188 -0.0346156)
(1.55436 -0.144864 0.0328724)
(1.41917 -0.169101 -0.0251353)
(1.42235 -0.171483 -0.0253294)
(1.57367 -0.151427 0.0291735)
(1.56013 -0.14379 -0.0363874)
(1.43137 -0.174325 0.0127432)
(1.3729 -0.163118 0.021308)
(0.314122 -0.0724882 0.000444951)
(1.27824 -0.161587 -0.00206222)
(1.27833 -0.160501 0.00197089)
(1.3722 -0.163097 -0.0228038)
(1.17443 -0.0648387 0.0123968)
(1.09886 -0.0965399 -0.0058801)
(1.20316 -0.11564 0.000677932)
(0.593734 -0.142564 0.0144331)
(1.17373 -0.0683689 -0.00403087)
(1.0877 -0.0869947 0.0145995)
(1.20206 -0.12064 0.00437917)
(1.19414 -0.063857 0.0179689)
(0.600857 -0.144947 0.00420535)
(1.11792 -0.0953225 -0.0106311)
(1.21492 -0.113726 -0.00391729)
(1.12039 -0.0983184 0.0195235)
(1.21444 -0.111783 0.00792604)
(1.19539 -0.0629675 -0.0104162)
(0.565965 0.132066 -0.00691107)
(1.1102 0.071484 -0.020692)
(1.11003 0.070894 0.000973157)
(0.575999 0.136338 0.00089151)
(1.09126 0.0807223 -0.0379199)
(1.09082 0.0836119 -0.00173867)
(1.37111 -0.161461 0.0201656)
(0.317198 -0.0720207 -0.00263924)
(1.27785 -0.159556 -0.0020408)
(1.27785 -0.15975 -0.000646299)
(1.3705 -0.161124 -0.0224937)
(1.41835 -0.168029 -0.0228921)
(1.55381 -0.142103 0.0330208)
(1.42017 -0.168723 0.021092)
(1.55079 -0.141006 -0.0327755)
(1.37134 -0.162447 -0.0204484)
(0.316227 -0.0720142 0.000207344)
(1.27625 -0.161355 -0.00294342)
(1.37279 -0.162904 0.0184674)
(1.27574 -0.161297 0.00051285)
(1.41756 -0.167233 0.0225065)
(1.54745 -0.140374 -0.0341373)
(1.54874 -0.140936 0.0335452)
(1.41676 -0.166754 -0.0246363)
(1.19107 -0.0634728 0.00753905)
(0.603686 -0.144574 -0.00289799)
(1.11571 -0.0926115 -0.00750805)
(1.21335 -0.112372 -0.0042593)
(1.11579 -0.0931584 0.00656818)
(1.21318 -0.112121 0.00214917)
(1.19146 -0.063316 -0.00889536)
(1.18024 -0.0642481 0.00342975)
(0.601209 -0.143791 0.00674378)
(1.10264 -0.0920124 -0.0115501)
(1.20862 -0.115214 -0.00280691)
(1.18105 -0.0647403 -0.00733389)
(1.10109 -0.0901711 0.0066344)
(1.20803 -0.115199 0.000277845)
(0.305087 0.0723204 -0.00266259)
(0.300973 0.0713472 -0.00359865)
(1.09896 0.0782955 -0.0215376)
(0.574762 0.135638 0.00129793)
(1.09863 0.0790477 -0.00314569)
(0.568888 0.13338 -0.0070282)
(1.10759 0.0735636 -0.012038)
(1.10741 0.0735826 -0.0028966)
(1.36922 -0.160808 -0.0225949)
(1.2757 -0.159643 -0.00371642)
(0.320424 -0.0714316 -0.0018497)
(1.36999 -0.16119 0.0180003)
(1.27543 -0.159311 -0.00166624)
(1.41497 -0.165767 0.0207732)
(1.54367 -0.139185 -0.0354024)
(1.54489 -0.139649 0.0322703)
(1.41427 -0.165237 -0.0261908)
(1.41548 -0.166211 -0.0248237)
(1.54756 -0.1403 0.0322452)
(1.54601 -0.139778 -0.0343248)
(1.41644 -0.166736 0.0206868)
(1.36899 -0.160336 0.0181767)
(0.320115 -0.0712371 -0.00417429)
(1.27587 -0.158311 -0.0032173)
(1.27595 -0.158584 -0.00308298)
(1.36847 -0.159978 -0.0241064)
(1.18258 -0.0632815 -0.00214007)
(1.10631 -0.0903253 -0.00947495)
(1.20927 -0.113292 -0.00344948)
(0.60639 -0.144438 0.00304434)
(1.1834 -0.0636134 -0.00581265)
(1.10543 -0.0896349 0.0007157)
(1.20874 -0.112998 -0.00273405)
(1.18777 -0.0629781 0.00173945)
(0.606659 -0.144505 -0.00582285)
(1.11222 -0.0906041 -0.00606408)
(1.21094 -0.111684 -0.00509816)
(1.11225 -0.0907244 -5.9679e-05)
(1.21095 -0.111624 -0.00122779)
(1.18784 -0.0628455 -0.00808528)
(0.565828 0.133001 -0.00807924)
(1.10538 0.0741906 -0.0103618)
(1.10528 0.0743671 -0.00711748)
(0.571486 0.134861 -0.000519496)
(1.10222 0.0765049 -0.0137919)
(1.10192 0.0766727 -0.00591906)
(1.36663 -0.159097 0.0165005)
(0.323722 -0.0705411 -0.00531015)
(1.27323 -0.157019 -0.00537809)
(1.27367 -0.157276 -0.00557421)
(1.36547 -0.158597 -0.0265665)
(1.41268 -0.164416 -0.0271094)
(1.54299 -0.139149 0.0316972)
(1.41367 -0.165026 0.0197804)
(1.54139 -0.138583 -0.0359214)
(1.36712 -0.159446 -0.0250672)
(0.32559 -0.0710375 -0.00357142)
(1.27448 -0.15812 -0.00495911)
(1.36794 -0.159821 0.0169813)
(1.27415 -0.157846 -0.00390602)
(1.41197 -0.164085 0.0193903)
(1.53819 -0.137738 -0.0364481)
(1.54029 -0.138567 0.0317688)
(1.41054 -0.163274 -0.0284123)
(1.18557 -0.0623371 -0.00289578)
(0.610479 -0.144985 -0.00805985)
(1.10991 -0.0893217 -0.00725982)
(1.20876 -0.111069 -0.00722025)
(1.10991 -0.0894329 -0.00521941)
(1.20896 -0.111011 -0.00435158)
(1.1855 -0.0622253 -0.00929165)
(1.18369 -0.0625359 -0.00629074)
(0.612762 -0.14566 -0.000165708)
(1.10795 -0.0893717 -0.00802536)
(1.20892 -0.111873 -0.00429749)
(1.18424 -0.0627225 -0.00496708)
(1.10744 -0.0890824 -0.0037225)
(1.20853 -0.111736 -0.00542867)
(0.304514 0.0735024 -0.00672694)
(0.297772 0.0719548 -0.00556161)
(1.1037 0.0751107 -0.0131305)
(0.570073 0.134914 -0.00603254)
(1.10367 0.0750347 -0.0112588)
(0.561093 0.132075 -0.0115979)
(1.10525 0.0739277 -0.0145355)
(1.36263 -0.157453 -0.0288903)
(1.27208 -0.156375 -0.00750838)
(0.332406 -0.0709897 -0.00639128)
(1.36466 -0.158279 0.0153427)
(1.27113 -0.156068 -0.00748593)
(1.40552 -0.161449 0.0163676)
(1.53107 -0.136795 0.0315259)
(1.40701 -0.161732 -0.0304419)
(1.53684 -0.137902 0.0318413)
(1.53311 -0.136415 -0.0370342)
(1.40954 -0.162994 0.018514)
(1.36145 -0.157107 0.0127909)
(0.32722 -0.0697371 -0.00688772)
(1.27023 -0.155006 -0.0103058)
(1.18414 -0.0616121 -0.0108255)
(1.10874 -0.0884545 -0.00990081)
(1.20787 -0.11057 -0.00684577)
(0.621261 -0.147505 -0.00515446)
(1.18447 -0.0617818 -0.00674722)
(1.10861 -0.0880629 -0.00918784)
(1.20726 -0.110563 -0.00936637)
(1.18495 -0.0611362 -0.00854796)
(0.61456 -0.145468 -0.0113862)
(1.10981 -0.0875227 -0.0121711)
(1.20722 -0.109651 -0.0093472)
(1.11042 0.213089 -0.111854)
(1.12504 0.191014 -0.104099)
(0.267494 0.0650889 -0.0302414)
(1.09224 0.185287 -0.107964)
(1.15331 0.225489 -0.114156)
(0.544046 0.009958 -0.128658)
(1.00698 0.180376 -0.145599)
(1.06707 0.188679 -0.134439)
(0.954828 0.068688 -0.137305)
(0.219308 0.0443448 -0.117586)
(0.73115 0.363054 -0.260553)
(1.01632 0.0149044 -0.0506642)
(0.368511 0.119722 -0.0382211)
(1.17479 0.217823 -0.0142105)
(0.298846 0.0705164 -0.00654202)
(1.15093 0.175755 -0.0146351)
(1.14742 0.174608 -0.0167034)
(1.17992 0.219358 -0.0180714)
(1.05117 0.185597 -0.00692937)
(1.05645 0.186527 -0.0572495)
(1.17587 0.221228 -0.023849)
(0.303551 0.071724 -0.00987947)
(1.14839 0.180813 -0.0337124)
(1.18236 0.2233 -0.0313321)
(1.1449 0.180362 -0.0207976)
(1.02593 0.181291 -0.0384862)
(1.04214 0.183794 0.00350979)
(1.1695 0.219647 -0.0101475)
(0.299105 0.0717306 -0.00463461)
(1.14546 0.17472 -0.00916928)
(1.14237 0.174142 -0.0130883)
(1.17417 0.220771 -0.0131167)
(1.0293 0.185245 0.0136424)
(1.03668 0.185445 -0.0346097)
(1.1713 0.220086 -0.00916432)
(0.30373 0.0724738 -0.00416233)
(1.14695 0.176613 -0.0119235)
(1.17672 0.221482 -0.00810695)
(1.14378 0.175805 -0.00622493)
(1.01905 0.184638 -0.0333491)
(1.03385 0.187018 0.00771084)
(1.13515 0.130851 -0.116856)
(1.15809 0.153701 -0.101844)
(0.856416 0.100009 -0.0600374)
(0.526774 0.12498 -0.0517385)
(1.13638 0.153176 -0.114608)
(0.858447 0.109465 -0.0863249)
(1.14574 0.126766 -0.101949)
(1.0979 0.0349737 -0.0614886)
(0.456699 0.087806 -0.169041)
(0.928461 0.297326 -0.216269)
(0.869119 0.209078 -0.102053)
(1.09347 0.00122593 -0.0395473)
(0.805638 0.0699068 -0.121967)
(1.04575 0.154597 -0.181527)
(1.16943 -0.226501 -0.0236211)
(1.14771 -0.18902 -0.00387776)
(0.308164 -0.0719094 -0.00524004)
(1.14171 -0.18793 -0.0180817)
(1.1747 -0.228396 -0.0132855)
(0.878297 -0.117843 0.0939589)
(0.549585 -0.149524 0.034896)
(1.02494 -0.187844 -0.0590665)
(1.03868 -0.185076 -0.0111819)
(1.11676 -0.15239 -0.02006)
(0.257448 -0.0525342 -0.0403229)
(0.996708 -0.21044 0.00818656)
(1.14295 -0.121244 -0.0280246)
(1.05453 -0.228368 -0.0104198)
(1.16541 -0.120006 -0.0151166)
(0.898682 -0.12778 0.00551678)
(1.17852 -0.149965 0.00472703)
(0.593685 -0.145061 -0.0123973)
(0.894089 -0.126873 -0.0136007)
(1.17489 -0.150123 -0.0171021)
(1.1661 -0.122081 0.00742398)
(1.30206 -0.136414 -0.0477078)
(0.527482 -0.112462 -0.0622078)
(0.95318 -0.0516395 -0.0153214)
(0.985523 -0.196203 0.00957448)
(0.974221 -0.13692 -0.0263514)
(1.25001 -0.0975909 -0.0300359)
(1.03263 -0.129142 -0.0195236)
(1.17888 0.22399 -0.0577831)
(1.15378 0.189653 -0.0856289)
(0.298936 0.0703621 -0.0233212)
(1.19966 0.237089 -0.0900658)
(1.14078 0.184253 -0.053505)
(1.02067 0.178568 -0.0526564)
(1.04461 0.182483 -0.0257546)
(1.08851 0.192844 -0.0653472)
(1.10951 0.202884 -0.124314)
(1.16956 0.214921 -0.0306419)
(0.290586 0.0682692 -0.0107071)
(1.14817 0.175721 -0.0329757)
(1.17688 0.2177 -0.0372306)
(1.14246 0.173434 -0.0317777)
(1.15662 0.118689 -0.0521511)
(1.17805 0.140265 -0.0868082)
(0.85908 0.0933919 -0.0609499)
(0.566198 0.133765 -0.0368641)
(1.1592 0.107937 -0.0794209)
(1.16988 0.143248 -0.0486385)
(0.865402 0.104194 -0.0540868)
(1.17016 0.101581 -0.0333473)
(0.555604 0.128353 -0.0208751)
(1.18147 0.131294 -0.0298915)
(0.8836 0.0981926 -0.0323568)
(1.17785 0.129114 -0.0360865)
(0.882096 0.0972465 -0.028474)
(1.17225 0.103226 -0.0353333)
(1.17171 -0.221519 -0.00820794)
(1.14479 -0.180913 -0.0061186)
(0.309036 -0.072017 -0.000828698)
(1.17116 -0.220373 -0.00591998)
(1.14659 -0.18248 -0.00279591)
(1.02484 -0.179226 -0.0351613)
(1.03867 -0.18046 0.0219334)
(1.02085 -0.18025 0.00438982)
(1.02428 -0.181183 -0.0452813)
(1.17979 -0.219268 -0.0039349)
(0.315695 -0.0726749 -0.00397121)
(1.15912 -0.181831 -0.00219616)
(1.15581 -0.18091 -0.00589161)
(1.18546 -0.220579 -0.00558126)
(1.16634 -0.119186 0.00252601)
(0.898922 -0.126282 -0.00339304)
(1.17633 -0.143325 -0.00984633)
(0.591285 -0.142498 0.00156318)
(1.16575 -0.118643 -0.00744943)
(0.897297 -0.125567 -0.00605227)
(1.17763 -0.145198 0.00374172)
(1.17979 -0.11831 -0.00881387)
(0.604271 -0.146258 -0.00719033)
(0.910465 -0.126658 -0.00725876)
(1.19089 -0.144459 0.00223145)
(0.911989 -0.12781 -0.00491441)
(1.18932 -0.143867 -0.0103592)
(1.17974 -0.118473 -0.000938975)
(1.17197 0.102007 -0.0196051)
(0.567344 0.132305 -0.012747)
(1.1826 0.130299 -0.0105066)
(0.891305 0.0997489 -0.0163259)
(1.18042 0.129351 -0.0218746)
(0.890701 0.0994252 -0.0150513)
(1.17319 0.102736 -0.0146941)
(1.16342 0.115587 -0.0185076)
(0.574714 0.136155 -0.0120755)
(1.17719 0.138706 -0.0404452)
(0.880928 0.102937 -0.0353208)
(1.17483 0.140014 -0.0161605)
(1.16434 0.11294 -0.0415471)
(0.882039 0.105501 -0.0218585)
(1.18165 -0.215225 -0.00424847)
(0.317798 -0.0718768 -0.00449168)
(1.16006 -0.178663 -0.00247504)
(1.15713 -0.178276 -0.00660212)
(1.18674 -0.215851 -0.00552145)
(1.02756 -0.178352 0.0234083)
(1.03595 -0.179363 -0.0327808)
(1.17982 -0.218689 -0.00264219)
(0.314566 -0.0720305 -0.00147825)
(1.15764 -0.181544 -0.00597176)
(1.18496 -0.220032 -0.00248165)
(1.15421 -0.180849 0.000133793)
(1.02633 -0.176081 -0.0331921)
(1.03849 -0.176883 0.0235175)
(1.17998 -0.117141 -0.00963175)
(0.60539 -0.145129 -0.00740715)
(0.90926 -0.125029 -0.00572396)
(1.192 -0.142799 0.00206714)
(0.910225 -0.125639 -0.00528029)
(1.19041 -0.142498 -0.01116)
(1.18032 -0.117098 -0.000430188)
(1.17266 -0.118411 0.00314998)
(0.599194 -0.143674 0.00177726)
(0.903817 -0.125312 -0.0117366)
(1.18801 -0.14472 -0.0119467)
(1.17481 -0.118577 -0.0131876)
(0.901584 -0.124441 -0.00365796)
(1.18537 -0.144372 0.00469798)
(1.17425 0.220464 -0.0123522)
(1.14892 0.178288 -0.0174529)
(0.304492 0.0721857 -0.00519182)
(1.17989 0.221822 -0.0138346)
(1.14563 0.177743 -0.00953828)
(1.02468 0.183176 -0.0338392)
(1.03901 0.185435 0.0117514)
(1.03768 0.184568 0.0105423)
(1.04437 0.185018 -0.0408428)
(1.17322 0.21917 -0.00925876)
(0.300545 0.0714152 -0.00484217)
(1.14884 0.175609 -0.00858425)
(1.17792 0.220415 -0.0120903)
(1.14585 0.17486 -0.0121847)
(1.16623 0.109503 -0.00711364)
(1.17845 0.13468 -0.0243449)
(0.888909 0.102401 -0.0203378)
(0.574877 0.135889 -0.00384536)
(1.1673 0.108591 -0.024876)
(1.17625 0.134837 -0.00469651)
(0.889043 0.10331 -0.0113755)
(1.16926 0.102673 -0.0155294)
(0.568263 0.13328 -0.00960989)
(1.17956 0.129455 -0.00350923)
(0.893284 0.0992317 -0.0095506)
(1.17771 0.129096 -0.0176142)
(0.89303 0.0994419 -0.0110843)
(1.17033 0.102814 -0.00655498)
(1.18048 -0.213631 -0.00332303)
(1.1587 -0.178675 -0.00647316)
(0.31866 -0.0714873 -0.0024935)
(1.18581 -0.215538 -0.00318528)
(1.15529 -0.177558 -0.00083015)
(1.02355 -0.171665 -0.0339097)
(1.0361 -0.172417 0.0201417)
(1.02733 -0.17479 0.023649)
(1.03635 -0.176172 -0.0327551)
(1.18116 -0.209957 -0.00640291)
(0.320696 -0.0710527 -0.00507085)
(1.15969 -0.175381 -0.00381922)
(1.15667 -0.175189 -0.00846255)
(1.18618 -0.210341 -0.00699342)
(1.17526 -0.117163 0.00209231)
(0.905106 -0.1245 -0.00980924)
(1.18989 -0.143249 -0.0118676)
(0.60453 -0.144293 0.000767938)
(1.17692 -0.117377 -0.0121698)
(0.903667 -0.124213 -0.00359959)
(1.18758 -0.142655 0.00362739)
(1.1788 -0.116637 -0.0110432)
(0.607873 -0.144904 -0.00790909)
(0.90728 -0.125314 -0.00466401)
(1.1921 -0.141823 0.00106285)
(0.9077 -0.125573 -0.00643803)
(1.19021 -0.141604 -0.0126244)
(1.17959 -0.116549 -0.00047495)
(1.16592 0.101794 -0.0162556)
(0.564385 0.132791 -0.00953767)
(1.17584 0.127395 -0.00327639)
(0.894054 0.097425 -0.00903063)
(1.17377 0.127335 -0.0184655)
(0.893661 0.0977868 -0.0118484)
(1.16729 0.101613 -0.00563615)
(1.16614 0.105391 -0.00346307)
(0.571861 0.135096 -0.00197369)
(1.1768 0.131217 -0.0183167)
(0.892078 0.100195 -0.0138093)
(1.17485 0.130751 -0.00101676)
(1.16695 0.105255 -0.0176266)
(0.89202 0.100436 -0.00799997)
(1.18018 -0.203307 -0.0102945)
(0.324217 -0.0703264 -0.00590995)
(1.15952 -0.171244 -0.0072354)
(1.15607 -0.17107 -0.0118549)
(1.18542 -0.203648 -0.0106929)
(1.02453 -0.170038 0.0192556)
(1.03291 -0.1715 -0.0338257)
(1.18007 -0.207578 -0.00537446)
(0.323493 -0.0710312 -0.00354338)
(1.1587 -0.175097 -0.00783556)
(1.18529 -0.209753 -0.00509354)
(1.15563 -0.173804 -0.00280262)
(1.01849 -0.166084 -0.0357601)
(1.03258 -0.166996 0.0111573)
(1.17796 -0.116187 -0.013791)
(0.611441 -0.145308 -0.00929243)
(0.906273 -0.126579 -0.00637683)
(1.19258 -0.140598 -0.00205187)
(0.906033 -0.126572 -0.00921983)
(1.19017 -0.140351 -0.0154823)
(1.17937 -0.116096 -0.00288202)
(1.17677 -0.116411 0.000569147)
(0.610539 -0.145361 -0.000576812)
(0.905398 -0.125211 -0.00873049)
(1.19084 -0.141902 -0.0124756)
(1.17778 -0.116649 -0.0118258)
(0.904646 -0.125297 -0.00424247)
(1.18907 -0.141269 0.00181579)
(1.16765 0.219519 -0.0125249)
(1.14369 0.174777 -0.0131394)
(0.303283 0.0730866 -0.00581251)
(1.17266 0.221065 -0.00955247)
(1.14109 0.173761 -0.00908467)
(1.02184 0.186376 0.00499074)
(1.02823 0.18629 -0.0342065)
(1.16502 0.101862 -0.00553768)
(1.17373 0.127621 -0.0189902)
(0.893601 0.0975234 -0.0137779)
(0.569273 0.134756 -0.00470205)
(1.16511 0.102186 -0.0173075)
(1.17248 0.126784 -0.00325651)
(0.89391 0.0975519 -0.00995473)
(1.17957 -0.200215 -0.0102866)
(1.15835 -0.170427 -0.0116148)
(0.329669 -0.0708572 -0.00550639)
(1.18429 -0.202581 -0.00954663)
(1.156 -0.169019 -0.00739704)
(1.02079 -0.164356 0.00761914)
(1.02727 -0.165626 -0.0362059)
(1.17802 -0.115465 -0.00337538)
(0.90549 -0.126428 -0.010863)
(1.19141 -0.14011 -0.0154829)
(0.618215 -0.146997 -0.00385469)
(1.17813 -0.1158 -0.014152)
(0.905585 -0.12671 -0.00757099)
(1.19045 -0.139415 -0.00251692)
(1.10035 0.218559 -0.113955)
(1.18653 0.232148 -0.121773)
(1.11145 0.214305 -0.118983)
(1.14212 0.232934 -0.123679)
(1.09743 0.163728 -0.0933983)
(0.264616 0.0615746 -0.0393371)
(1.12701 0.143258 -0.0396759)
(1.15866 0.215714 -0.0777625)
(1.07168 0.112321 -0.0807786)
(1.08574 0.198836 -0.103573)
(1.21676 0.275907 -0.197719)
(1.12831 0.20886 -0.120338)
(1.14936 0.256597 -0.118525)
(0.837507 0.0665891 -0.173927)
(1.10058 0.185033 -0.273388)
(0.619914 0.0152109 -0.145046)
(0.792716 0.0665301 -0.209697)
(0.897666 0.0605294 -0.191358)
(1.17476 0.254161 -0.244527)
(1.16442 0.198142 -0.266657)
(0.913103 0.0948589 -0.227411)
(1.06936 0.184736 -0.142514)
(1.14603 0.211841 -0.122774)
(1.07137 0.1979 -0.127219)
(1.13274 0.194541 -0.129452)
(1.03617 0.175433 -0.156268)
(1.13707 0.214129 -0.246078)
(1.09646 0.178281 -0.147968)
(1.18522 0.253747 -0.216815)
(1.0908 0.193841 -0.130873)
(1.19898 0.224622 -0.247691)
(1.07363 0.308512 -0.238469)
(0.249968 0.0755218 -0.0839021)
(1.12586 0.329981 -0.0583046)
(1.14153 0.326635 -0.107513)
(1.08478 0.36831 -0.233204)
(0.831633 0.0831545 -0.197981)
(0.866109 0.0828543 -0.223164)
(1.05373 0.224629 -0.246286)
(1.21165 0.286644 -0.228821)
(1.14497 0.294236 -0.175968)
(0.983526 0.130667 -0.234174)
(1.17484 0.216958 -0.0123988)
(0.303633 0.0716664 -0.00492106)
(1.14898 0.174897 -0.00887978)
(1.17879 0.218263 -0.00679411)
(1.14785 0.173642 -0.0089186)
(1.15967 0.231377 -0.0122228)
(1.17663 0.220986 -0.00784448)
(1.16177 0.217883 -0.0241978)
(1.16575 0.233095 -0.0206698)
(1.15897 0.230928 -0.0148749)
(1.17327 0.220194 -0.018997)
(1.16571 0.232569 -0.00534738)
(1.16579 0.218704 -0.00276207)
(1.1192 0.192235 -0.00879486)
(1.1425 0.206972 -0.0463904)
(1.13646 0.204592 -0.0132431)
(1.12549 0.193347 -0.0547456)
(1.04349 0.184988 -0.0452157)
(1.0576 0.186742 0.00901508)
(1.11173 0.191669 -0.0423881)
(1.14452 0.20616 0.00117406)
(1.12992 0.204607 -0.034254)
(1.12669 0.193846 0.00660271)
(1.17606 0.222817 -0.0202616)
(0.295955 0.0698947 -0.00860733)
(1.14981 0.182135 -0.00787357)
(1.18268 0.224013 -0.0125245)
(1.14424 0.181726 -0.0222894)
(1.16394 0.233713 -0.0269985)
(1.18572 0.225306 -0.0426084)
(1.17909 0.222654 -0.0155725)
(1.17322 0.237161 -0.0290607)
(1.1653 0.235228 -0.0177571)
(1.18746 0.224459 -0.00160774)
(1.17156 0.236708 -0.0163607)
(1.17338 0.222765 -0.0302744)
(1.09439 0.187941 -0.0357285)
(1.13283 0.202713 -0.00448074)
(1.11705 0.199926 -0.0281077)
(1.11119 0.190818 0.000876861)
(1.0316 0.182484 0.00822878)
(1.03875 0.182546 -0.0348088)
(1.09976 0.189204 0.00579278)
(1.129 0.201897 -0.0237146)
(1.12175 0.20082 0.000274443)
(1.10783 0.189209 -0.0317835)
(1.16967 0.219354 -0.00902972)
(0.303201 0.0726422 -0.00414283)
(1.14543 0.175242 -0.00942306)
(1.17463 0.220899 -0.00599307)
(1.14287 0.174092 -0.00573454)
(1.15316 0.233602 -0.00795296)
(1.16783 0.220989 -0.00218661)
(1.15463 0.218434 -0.0202459)
(1.15868 0.235054 -0.0158734)
(1.15297 0.233242 -0.0115112)
(1.16668 0.220542 -0.0179321)
(1.16012 0.235149 -0.00366578)
(1.15848 0.21908 0.00154145)
(1.09736 0.192614 0.0108728)
(1.12686 0.202923 -0.0242322)
(1.11887 0.201783 0.00534016)
(1.10572 0.192899 -0.031516)
(1.02475 0.184626 -0.0334948)
(1.03861 0.186722 0.0135529)
(1.09306 0.19198 -0.0305867)
(1.12855 0.203509 0.00523342)
(1.11517 0.201337 -0.0238074)
(1.10749 0.194401 0.0107311)
(1.1714 0.22053 -0.00929264)
(0.299934 0.0716262 -0.00481439)
(1.14669 0.176406 -0.00621293)
(1.17624 0.221588 -0.0101592)