/*--------------------------------*- C++ -*----------------------------------*\
| =========                 |                                                 |
| \\      /  F ield         | OpenFOAM: The Open Source CFD Toolbox           |
|  \\    /   O peration     | Version:  2012                                  |
|   \\  /    A nd           | Website:  www.openfoam.com                      |
|    \\/     M anipulation  |                                                 |
\*---------------------------------------------------------------------------*/
FoamFile
{
    version     2.0;
    format      ascii;
    class       surfaceVectorField;
    location    "0.107/fluid";
    object      Uf_0;
}
// * * * * * * * * * * * * * * * * * * * * * * * * * * * * * * * * * * * * * //

dimensions      [0 1 -1 0 0 0 0];


internalField   nonuniform List<vector> 
46515
(
(0.876353 -0.120189 -0.020383)
(1.23099 -0.0500981 -0.00568095)
(1.25895 -0.0372997 -0.00638668)
(1.25496 -0.0396376 -0.00275778)
(0.892016 -0.1043 -0.036529)
(1.54006 -0.0495518 -0.0142671)
(1.51693 -0.063384 -0.0198514)
(1.20288 -0.00537224 0.0121872)
(1.20882 -0.014805 0.00495472)
(1.21188 -0.0257995 0.00334145)
(1.21018 -0.0107451 0.00613945)
(1.20303 -0.0101837 0.00624563)
(1.19752 -0.0138088 0.00249405)
(1.20396 -0.0125341 0.00251666)
(1.20452 -0.0135999 -0.000311306)
(1.20194 -0.0117088 0.00169721)
(1.19997 -0.0113348 0.00157426)
(1.19785 -0.0083417 0.000372912)
(1.19897 -0.00825866 0.00038788)
(1.19862 -0.00756002 0.000153845)
(1.19861 -0.00753164 0.000151996)
(1.20042 -0.00824749 -0.00043315)
(1.19791 -0.00562075 -0.000186587)
(1.19822 -0.00572789 -0.000179876)
(1.19822 -0.00518874 -0.000207589)
(1.19848 -0.00525458 -0.000206653)
(1.1996 -0.005487 -0.000370273)
(1.1982 -0.00371671 -0.000186821)
(1.19836 -0.00381815 -0.000192205)
(1.19842 -0.00343719 -0.000175807)
(1.19858 -0.00350632 -0.000180409)
(1.19945 -0.00361361 -0.00027775)
(1.19852 -0.00241268 -0.000121246)
(1.19861 -0.00249234 -0.00012665)
(1.19867 -0.00223521 -0.000112877)
(1.19876 -0.00229084 -0.000116937)
(1.19946 -0.00235304 -0.000185262)
(1.19878 -0.00154869 -7.81143e-05)
(1.19883 -0.00160654 -8.15932e-05)
(1.19888 -0.00143779 -7.37437e-05)
(1.19893 -0.00147832 -7.66654e-05)
(1.19954 -0.00151659 -0.000122987)
(1.19899 -0.000989086 -5.46018e-05)
(1.19902 -0.00102914 -5.66403e-05)
(1.19906 -0.0009193 -5.26021e-05)
(1.19908 -0.000947389 -5.45302e-05)
(1.19962 -0.000971915 -8.49891e-05)
(1.19916 -0.000626776 -4.15574e-05)
(1.19917 -0.000653941 -4.31167e-05)
(1.1992 -0.000583511 -4.06941e-05)
(1.19922 -0.000603012 -4.19449e-05)
(1.1997 -0.000617566 -6.16941e-05)
(1.1993 -0.00039542 -3.11162e-05)
(1.1993 -0.000413324 -3.2642e-05)
(1.19933 -0.00036792 -3.06485e-05)
(1.19933 -0.000380546 -3.17962e-05)
(1.19976 -0.000390358 -4.3823e-05)
(1.19941 -0.000248894 -2.71226e-05)
(1.1994 -0.000260246 -2.7643e-05)
(1.19942 -0.000231568 -2.74205e-05)
(1.19942 -0.000239933 -2.79195e-05)
(1.1998 -0.000246467 -3.47664e-05)
(1.19951 -0.000154857 -2.61561e-05)
(1.1995 -0.000162801 -2.6855e-05)
(1.19952 -0.00014446 -2.63448e-05)
(1.19952 -0.000150719 -2.70261e-05)
(1.19984 -0.000154584 -2.95607e-05)
(1.19959 -9.51193e-05 -2.47566e-05)
(1.19959 -9.98797e-05 -2.52037e-05)
(1.1996 -8.78138e-05 -2.54305e-05)
(1.1996 -9.18665e-05 -2.57216e-05)
(1.19987 -9.52029e-05 -2.3702e-05)
(1.19967 -5.13756e-05 -2.62925e-05)
(1.19967 -5.61319e-05 -2.69234e-05)
(1.19969 -4.64303e-05 -2.64318e-05)
(1.19968 -5.04325e-05 -2.75259e-05)
(1.19988 -5.31148e-05 -2.31997e-05)
(1.22479 -0.00529621 0.000112186)
(1.21752 -0.00867758 0.000194011)
(1.22018 -0.00640671 -0.000151547)
(1.21942 -0.00320393 7.39956e-05)
(1.20898 -0.00960615 0.00131126)
(1.21284 -0.0133926 0.000887772)
(1.21389 -0.013969 0.000335069)
(1.21136 -0.0125653 0.000836856)
(1.21035 -0.00835761 0.000739527)
(1.20312 -0.00854992 0.000314699)
(1.20639 -0.00927553 0.000328886)
(1.20499 -0.00828014 0.000176767)
(1.20443 -0.00687429 0.000176971)
(1.20748 -0.00898221 -0.000167897)
(1.20093 -0.00599537 -0.000123357)
(1.20203 -0.00595015 -0.000104879)
(1.20141 -0.00536747 -0.000149241)
(1.20167 -0.00504051 -0.000135487)
(1.20333 -0.00566914 -0.00029601)
(1.20002 -0.00404327 -0.000192873)
(1.20036 -0.00400326 -0.000186316)
(1.20018 -0.0036358 -0.00018136)
(1.20046 -0.0035646 -0.000175867)
(1.2016 -0.00379182 -0.000277291)
(1.19961 -0.00272265 -0.000149323)
(1.1998 -0.00271059 -0.000149742)
(1.19972 -0.00245272 -0.000137034)
(1.19989 -0.00241995 -0.00013756)
(1.20081 -0.00256146 -0.000211402)
(1.19941 -0.00180623 -0.000100518)
(1.19953 -0.0018058 -0.000102628)
(1.19949 -0.00162755 -9.34168e-05)
(1.1996 -0.00161165 -9.50182e-05)
(1.20038 -0.00170591 -0.000148466)
(1.19934 -0.00118119 -7.1324e-05)
(1.19941 -0.00118576 -7.30354e-05)
(1.19939 -0.0010655 -6.77294e-05)
(1.19945 -0.00105881 -6.90917e-05)
(1.20014 -0.00112029 -0.000106581)
(1.19933 -0.000765442 -5.27861e-05)
(1.19937 -0.000770362 -5.43724e-05)
(1.19937 -0.000690338 -5.05878e-05)
(1.1994 -0.000687249 -5.19137e-05)
(1.20002 -0.000727566 -7.72946e-05)
(1.19936 -0.000489794 -4.08826e-05)
(1.19938 -0.000493841 -4.19927e-05)
(1.19939 -0.000441045 -3.95865e-05)
(1.1994 -0.000439622 -4.07548e-05)
(1.19995 -0.000466087 -5.72194e-05)
(1.19941 -0.000311503 -3.33071e-05)
(1.19942 -0.000314875 -3.41543e-05)
(1.19943 -0.00028103 -3.28167e-05)
(1.19944 -0.000281088 -3.35132e-05)
(1.19993 -0.000297697 -4.36653e-05)
(1.19947 -0.000196803 -3.05396e-05)
(1.19947 -0.000199046 -3.09399e-05)
(1.19949 -0.000177821 -3.086e-05)
(1.19949 -0.00017779 -3.10737e-05)
(1.19992 -0.0001888 -3.65234e-05)
(1.19954 -0.000126077 -2.85757e-05)
(1.19954 -0.000127342 -2.91415e-05)
(1.19956 -0.000114145 -2.85578e-05)
(1.19955 -0.000114621 -2.89175e-05)
(1.19992 -0.000121044 -3.01583e-05)
(1.19961 -7.76163e-05 -2.81175e-05)
(1.19961 -7.79764e-05 -2.81397e-05)
(1.19962 -6.76156e-05 -2.88287e-05)
(1.19962 -7.00583e-05 -2.86126e-05)
(1.19992 -7.33798e-05 -2.52373e-05)
(1.19969 -4.35175e-05 -3.08207e-05)
(1.19968 -4.18334e-05 -3.09843e-05)
(1.1997 -3.53429e-05 -3.08814e-05)
(1.19969 -4.0107e-05 -3.1579e-05)
(1.19992 -3.96443e-05 -2.58959e-05)
(1.21367 -0.000582401 5.20192e-05)
(1.21238 -0.00242859 6.96952e-05)
(1.21241 -0.000536849 3.88996e-05)
(1.21329 -0.00189077 3.53644e-05)
(1.20967 -0.0035319 0.00019914)
(1.21057 -0.00435726 0.000165889)
(1.20966 -0.00443594 0.000152694)
(1.20969 -0.00258855 0.00013855)
(1.21119 -0.00454233 4.02121e-05)
(1.20554 -0.00379146 1.59019e-05)
(1.20669 -0.00384109 3.2508e-05)
(1.20576 -0.00354056 -9.71211e-06)
(1.20599 -0.00269307 5.09498e-06)
(1.20749 -0.0037131 -0.000104162)
(1.20296 -0.00295055 -0.000104879)
(1.2035 -0.00270756 -8.98071e-05)
(1.20294 -0.00247915 -0.000102807)
(1.20328 -0.00216149 -9.13622e-05)
(1.20449 -0.00257049 -0.000188089)
(1.20143 -0.00207728 -0.000125148)
(1.20171 -0.00190722 -0.00011802)
(1.20141 -0.00174267 -0.000117353)
(1.20165 -0.00156239 -0.000112831)
(1.20271 -0.00180606 -0.000190632)
(1.20054 -0.00142656 -0.00010669)
(1.20071 -0.00131618 -0.000105394)
(1.20053 -0.00119539 -9.94919e-05)
(1.20068 -0.00107626 -9.93477e-05)
(1.20162 -0.00124372 -0.00015925)
(1.20001 -0.000959708 -8.08687e-05)
(1.20012 -0.000888726 -8.16803e-05)
(1.20002 -0.000803376 -7.64179e-05)
(1.20011 -0.000725696 -7.74052e-05)
(1.20093 -0.000839765 -0.000122195)
(1.19972 -0.000636095 -6.20835e-05)
(1.19978 -0.000589716 -6.31011e-05)
(1.19972 -0.000530816 -5.93942e-05)
(1.19978 -0.000481813 -6.03175e-05)
(1.20051 -0.000556703 -9.23662e-05)
(1.19956 -0.000413762 -5.01723e-05)
(1.1996 -0.000383149 -5.11533e-05)
(1.19957 -0.000343195 -4.89192e-05)
(1.19961 -0.00031401 -4.99049e-05)
(1.20026 -0.000361896 -7.17612e-05)
(1.19951 -0.000266188 -4.10855e-05)
(1.19952 -0.000243539 -4.23363e-05)
(1.19952 -0.000216977 -4.01908e-05)
(1.19953 -0.000201824 -4.15218e-05)
(1.20012 -0.000230302 -5.5839e-05)
(1.1995 -0.000171399 -3.38695e-05)
(1.19951 -0.000153592 -3.46579e-05)
(1.19951 -0.000136642 -3.3615e-05)
(1.19952 -0.000130753 -3.39528e-05)
(1.20004 -0.0001449 -4.26902e-05)
(1.19953 -0.000109269 -3.20122e-05)
(1.19953 -9.40286e-05 -3.23177e-05)
(1.19954 -8.33895e-05 -3.16514e-05)
(1.19955 -8.309e-05 -3.2016e-05)
(1.19999 -8.81017e-05 -3.68607e-05)
(1.19958 -7.05803e-05 -2.86732e-05)
(1.19957 -5.51066e-05 -2.89867e-05)
(1.19958 -4.64816e-05 -2.86752e-05)
(1.19958 -5.26484e-05 -2.86294e-05)
(1.19997 -5.05603e-05 -2.91661e-05)
(1.19963 -4.21841e-05 -3.00649e-05)
(1.19962 -2.56471e-05 -2.98817e-05)
(1.19964 -2.01597e-05 -3.09051e-05)
(1.19963 -3.15608e-05 -3.05288e-05)
(1.19995 -2.3431e-05 -2.65142e-05)
(1.1997 -2.57777e-05 -3.33574e-05)
(1.19969 -8.97786e-06 -3.32991e-05)
(1.19972 -6.68942e-06 -3.31646e-05)
(1.19971 -2.25025e-05 -3.35191e-05)
(1.19994 -7.97505e-06 -2.7643e-05)
(1.29942 -0.0577655 0.00561135)
(1.25494 -0.0278107 -0.00238294)
(1.23264 -0.0384265 -0.00187849)
(1.25381 -0.0276855 -0.000665876)
(1.25606 -0.0271646 -0.000724322)
(1.27682 -0.0606457 0.00244328)
(1.29805 -0.0575475 -0.00587394)
(1.27571 -0.0604435 -0.00412963)
(1.20053 -0.01869 -0.00366789)
(1.20862 -0.0405158 -0.00286928)
(1.21058 -0.0368526 -0.00134457)
(1.21045 -0.0357545 -0.00117126)
(1.21127 -0.0247847 -0.00300026)
(1.20355 -0.0217607 -0.00236114)
(1.20424 -0.0112783 -0.00228241)
(1.20141 -0.00960328 -0.00338568)
(1.20682 -0.00849758 -0.00277677)
(1.20445 -0.010332 -0.001808)
(1.20527 -0.00822645 -0.00259036)
(1.20291 -0.00841871 -0.00244772)
(1.20089 -0.00770167 -0.00175559)
(1.20102 -0.00733865 -0.00201164)
(1.20211 -0.00711892 -0.00193673)
(1.20142 -0.00671641 -0.001749)
(1.20142 -0.00667309 -0.00171801)
(1.2011 -0.0074076 -0.00167828)
(1.19993 -0.00526974 -0.00116086)
(1.19986 -0.00528477 -0.00129373)
(1.20023 -0.00535906 -0.00129129)
(1.20004 -0.00490307 -0.00117014)
(1.20034 -0.00495246 -0.00116733)
(1.20006 -0.00514332 -0.00128949)
(1.1997 -0.00350289 -0.000775013)
(1.19955 -0.00356781 -0.00087666)
(1.19976 -0.00365891 -0.000883361)
(1.19973 -0.00329975 -0.000806897)
(1.19993 -0.00336198 -0.00081209)
(1.19979 -0.00343835 -0.000941466)
(1.19966 -0.0022902 -0.00053726)
(1.19955 -0.00232861 -0.000605538)
(1.19969 -0.00240257 -0.000615148)
(1.19969 -0.00215764 -0.000561018)
(1.19981 -0.00220897 -0.000569526)
(1.19972 -0.0022542 -0.000657498)
(1.1997 -0.00148118 -0.000366985)
(1.19963 -0.00150211 -0.000412957)
(1.19971 -0.0015568 -0.000422567)
(1.19973 -0.00139525 -0.000383809)
(1.1998 -0.00143366 -0.000392254)
(1.19974 -0.00146049 -0.000450523)
(1.19977 -0.000953116 -0.000249023)
(1.19973 -0.00096487 -0.000278971)
(1.19978 -0.00100313 -0.000287027)
(1.19979 -0.00089778 -0.000260297)
(1.19984 -0.000924975 -0.00026753)
(1.1998 -0.000941691 -0.000306333)
(1.19983 -0.000608015 -0.000168502)
(1.19981 -0.000615141 -0.000186835)
(1.19984 -0.00064118 -0.000193192)
(1.19985 -0.000572662 -0.000175019)
(1.19988 -0.000591199 -0.000180653)
(1.19986 -0.00060184 -0.000206759)
(1.19988 -0.000385981 -0.000113652)
(1.19987 -0.000390371 -0.000124808)
(1.19989 -0.000407552 -0.000129785)
(1.1999 -0.000363474 -0.000117236)
(1.19991 -0.000375865 -0.00012172)
(1.1999 -0.000382898 -0.000139808)
(1.19992 -0.000244005 -7.75579e-05)
(1.19991 -0.000246456 -8.35144e-05)
(1.19993 -0.000257522 -8.68543e-05)
(1.19993 -0.000229568 -7.86003e-05)
(1.19994 -0.000237654 -8.16198e-05)
(1.19993 -0.000242114 -9.46289e-05)
(1.19995 -0.00015317 -5.18002e-05)
(1.19995 -0.000154162 -5.39727e-05)
(1.19995 -0.000161746 -5.67504e-05)
(1.19996 -0.000143586 -5.02379e-05)
(1.19997 -0.000149284 -5.2807e-05)
(1.19996 -0.000152005 -6.29715e-05)
(1.19997 -9.38281e-05 -3.13804e-05)
(1.19997 -9.3932e-05 -3.09694e-05)
(1.19997 -9.91904e-05 -3.30524e-05)
(1.19998 -8.70191e-05 -2.82353e-05)
(1.19998 -9.11545e-05 -3.00878e-05)
(1.19998 -9.29458e-05 -3.86767e-05)
(1.19999 -5.25005e-05 -1.91025e-05)
(1.19998 -5.20413e-05 -1.67083e-05)
(1.19999 -5.60069e-05 -1.76383e-05)
(1.19999 -4.71851e-05 -1.50367e-05)
(1.19999 -5.06751e-05 -1.58673e-05)
(1.19999 -5.16591e-05 -2.31549e-05)
(1.2257 -0.00435744 8.79223e-05)
(1.21977 -0.00649146 9.21177e-06)
(1.21833 -0.00878227 -0.000119898)
(1.21941 -0.00649322 0.000217289)
(1.22004 -0.0029501 8.72796e-05)
(1.21381 -0.0145188 -0.000692054)
(1.21039 -0.0100122 -0.000973607)
(1.21427 -0.0142329 -0.000830298)
(1.21367 -0.0143573 -0.000647898)
(1.21292 -0.0130185 -0.000962295)
(1.2117 -0.00860549 -0.00081066)
(1.20746 -0.00870643 -0.00104871)
(1.20523 -0.00781091 -0.00128006)
(1.2084 -0.00873893 -0.00115209)
(1.20706 -0.00770421 -0.00116285)
(1.20634 -0.00637159 -0.00107692)
(1.20745 -0.00850364 -0.00105449)
(1.2035 -0.00543576 -0.000987948)
(1.20297 -0.0055571 -0.00112381)
(1.20402 -0.00553425 -0.00107735)
(1.20332 -0.00501803 -0.0010253)
(1.20353 -0.00470289 -0.000990444)
(1.20355 -0.00530237 -0.00109087)
(1.2018 -0.00365791 -0.000762421)
(1.20163 -0.0038377 -0.000867857)
(1.20198 -0.00379483 -0.000855621)
(1.20171 -0.00345591 -0.000800771)
(1.202 -0.00338483 -0.000793432)
(1.20186 -0.00358348 -0.000920527)
(1.201 -0.00248212 -0.000575173)
(1.20089 -0.00260512 -0.000648885)
(1.20111 -0.00259069 -0.000649191)
(1.20096 -0.00234796 -0.000603771)
(1.20115 -0.00231439 -0.000605777)
(1.20106 -0.00243902 -0.000704033)
(1.20055 -0.00165964 -0.000423618)
(1.20047 -0.00173912 -0.000475847)
(1.20061 -0.00173721 -0.000481149)
(1.20053 -0.00156833 -0.000444389)
(1.20065 -0.00155178 -0.000450275)
(1.20059 -0.00163407 -0.000519099)
(1.20029 -0.00109489 -0.000302868)
(1.20024 -0.00114573 -0.000338661)
(1.20033 -0.00114872 -0.000345846)
(1.20029 -0.00103392 -0.000317166)
(1.20036 -0.00102608 -0.000324097)
(1.20033 -0.00108033 -0.000371947)
(1.20016 -0.000713285 -0.000213486)
(1.20012 -0.000745859 -0.000237353)
(1.20018 -0.0007501 -0.000243743)
(1.20016 -0.000672866 -0.000222848)
(1.2002 -0.00066954 -0.000228987)
(1.20018 -0.000704927 -0.000262741)
(1.20008 -0.000459039 -0.000149813)
(1.20006 -0.000479859 -0.000164721)
(1.2001 -0.000483732 -0.000169932)
(1.20009 -0.000432724 -0.00015553)
(1.20012 -0.000431462 -0.000160257)
(1.2001 -0.000454581 -0.00018373)
(1.20005 -0.000293449 -0.000104456)
(1.20004 -0.000306545 -0.000113616)
(1.20006 -0.000309394 -0.000118062)
(1.20005 -0.000276753 -0.000107105)
(1.20007 -0.000276224 -0.000111201)
(1.20006 -0.000291035 -0.000128419)
(1.20003 -0.000187139 -7.21989e-05)
(1.20003 -0.000195185 -7.64295e-05)
(1.20004 -0.000197444 -7.97036e-05)
(1.20004 -0.000176328 -7.19763e-05)
(1.20005 -0.000176251 -7.50776e-05)
(1.20004 -0.000185787 -8.79069e-05)
(1.20003 -0.000119382 -4.79528e-05)
(1.20002 -0.00012419 -4.91745e-05)
(1.20003 -0.000125726 -5.16753e-05)
(1.20003 -0.000111884 -4.55778e-05)
(1.20004 -0.000112381 -4.79528e-05)
(1.20003 -0.000118159 -5.8561e-05)
(1.20003 -7.19325e-05 -2.92008e-05)
(1.20002 -7.63605e-05 -2.78303e-05)
(1.20003 -7.63368e-05 -2.98072e-05)
(1.20003 -6.63589e-05 -2.54097e-05)
(1.20003 -6.89498e-05 -2.70159e-05)
(1.20003 -7.11178e-05 -3.6368e-05)
(1.20003 -3.94275e-05 -1.73818e-05)
(1.20002 -4.35462e-05 -1.35731e-05)
(1.20003 -4.19434e-05 -1.47463e-05)
(1.20003 -3.57551e-05 -1.22152e-05)
(1.20003 -4.07558e-05 -1.29225e-05)
(1.20003 -3.87768e-05 -2.08142e-05)
(1.21314 -0.00194841 9.14553e-05)
(1.21421 -0.000564869 0.000102081)
(1.21295 -0.00246693 2.39216e-05)
(1.21297 -0.000560067 9.39027e-05)
(1.21297 -0.00195633 0.00014163)
(1.21112 -0.00452531 -0.000369227)
(1.21063 -0.00346647 -0.000477128)
(1.21144 -0.00434782 -0.00038615)
(1.21065 -0.00439552 -0.000485872)
(1.21059 -0.00256231 -0.000416214)
(1.21102 -0.00446429 -0.000416865)
(1.20751 -0.00362685 -0.000611663)
(1.20691 -0.00361168 -0.000719885)
(1.20797 -0.00371456 -0.000668565)
(1.20711 -0.00340258 -0.00069612)
(1.20726 -0.00258036 -0.000652969)
(1.20749 -0.00355998 -0.000716556)
(1.2046 -0.00248435 -0.000636514)
(1.20442 -0.00279905 -0.000731445)
(1.20492 -0.00257563 -0.000708904)
(1.20435 -0.00235527 -0.00069668)
(1.20466 -0.00205078 -0.000682174)
(1.20462 -0.00243512 -0.000776294)
(1.20286 -0.0017454 -0.000562196)
(1.20278 -0.00197495 -0.000636106)
(1.20306 -0.00181262 -0.000630999)
(1.20272 -0.00165779 -0.000603394)
(1.20295 -0.0014854 -0.000603868)
(1.20289 -0.00171318 -0.00069044)
(1.20178 -0.00120558 -0.000457187)
(1.20172 -0.00136356 -0.000511402)
(1.20191 -0.00125702 -0.000514936)
(1.20169 -0.00114336 -0.000485334)
(1.20185 -0.00102864 -0.000491468)
(1.20181 -0.00118565 -0.000560726)
(1.20109 -0.000817217 -0.0003532)
(1.20105 -0.00092361 -0.000393188)
(1.20117 -0.000854517 -0.000399895)
(1.20104 -0.000773644 -0.000373005)
(1.20114 -0.000698207 -0.000381025)
(1.20112 -0.000805058 -0.000433302)
(1.20066 -0.000543724 -0.000262643)
(1.20064 -0.000615493 -0.000291123)
(1.20072 -0.000570233 -0.000298543)
(1.20063 -0.000513935 -0.00027617)
(1.2007 -0.000466151 -0.000284072)
(1.20069 -0.000536677 -0.000322875)
(1.2004 -0.000354922 -0.000190914)
(1.20039 -0.000403742 -0.000210096)
(1.20044 -0.00037329 -0.00021671)
(1.20039 -0.000334844 -0.000199351)
(1.20043 -0.000306005 -0.000206026)
(1.20043 -0.000350854 -0.000234839)
(1.20025 -0.000227551 -0.000137941)
(1.20024 -0.000261976 -0.000149895)
(1.20027 -0.000240027 -0.000154892)
(1.20024 -0.000214289 -0.000142692)
(1.20027 -0.000199168 -0.000147682)
(1.20027 -0.000225339 -0.00016862)
(1.20016 -0.00014302 -9.78327e-05)
(1.20016 -0.000168887 -0.000105249)
(1.20017 -0.00015131 -0.000109532)
(1.20016 -0.000134095 -9.97103e-05)
(1.20017 -0.000128602 -0.000103724)
(1.20017 -0.000141494 -0.000119759)
(1.20011 -8.61705e-05 -6.86897e-05)
(1.20011 -0.0001072 -7.17673e-05)
(1.20012 -9.15795e-05 -7.52423e-05)
(1.20011 -8.03392e-05 -6.80269e-05)
(1.20012 -8.08969e-05 -7.07901e-05)
(1.20011 -8.51928e-05 -8.38016e-05)
(1.20008 -4.90731e-05 -4.56356e-05)
(1.20008 -6.878e-05 -4.56566e-05)
(1.20008 -5.27739e-05 -4.88361e-05)
(1.20008 -4.51161e-05 -4.31925e-05)
(1.20008 -5.16196e-05 -4.51627e-05)
(1.20008 -4.85793e-05 -5.62407e-05)
(1.20006 -2.32337e-05 -2.78277e-05)
(1.20006 -4.22457e-05 -2.53585e-05)
(1.20006 -2.57053e-05 -2.79228e-05)
(1.20006 -2.0248e-05 -2.35816e-05)
(1.20007 -3.22439e-05 -2.49251e-05)
(1.20006 -2.28008e-05 -3.49453e-05)
(1.20005 -7.95997e-06 -1.65188e-05)
(1.20005 -2.54901e-05 -1.1693e-05)
(1.20005 -9.00454e-06 -1.31681e-05)
(1.20005 -6.54522e-06 -1.06257e-05)
(1.20006 -2.24189e-05 -1.15282e-05)
(1.20006 -7.79551e-06 -1.92592e-05)
(1.29318 -0.056178 0.00485956)
(1.25137 -0.0253179 0.000403901)
(1.23016 -0.0345251 -0.000350298)
(1.25029 -0.0239984 0.000216695)
(1.25256 -0.0253758 -0.00111185)
(1.27242 -0.0589407 0.00183178)
(1.29233 -0.0564281 -0.0078844)
(1.27185 -0.0592587 -0.00671072)
(1.19988 -0.0213814 -0.00516556)
(1.20833 -0.0419164 -0.00358934)
(1.20956 -0.0355354 -0.00280484)
(1.20885 -0.0344543 -0.00310177)
(1.2101 -0.0266052 -0.00424599)
(1.20329 -0.0230422 -0.00451965)
(1.20428 -0.0090723 -0.00347312)
(1.20047 -0.00942037 -0.00503729)
(1.20565 -0.0081797 -0.00448438)
(1.20457 -0.00823502 -0.0035887)
(1.20445 -0.00762754 -0.00421661)
(1.20222 -0.00802259 -0.00419)
(1.20151 -0.00665801 -0.0027974)
(1.20131 -0.00664865 -0.0033162)
(1.2022 -0.006413 -0.00323568)
(1.20168 -0.00603617 -0.00292818)
(1.20169 -0.00602415 -0.00290501)
(1.20184 -0.00624652 -0.00286855)
(1.20052 -0.00470188 -0.00198486)
(1.20041 -0.00473819 -0.00217098)
(1.20074 -0.00479936 -0.00217341)
(1.20057 -0.00438994 -0.00197855)
(1.20085 -0.00443016 -0.00197784)
(1.20073 -0.00450888 -0.00211141)
(1.20015 -0.00318121 -0.00138179)
(1.20005 -0.00321858 -0.00149619)
(1.20026 -0.00329398 -0.00150999)
(1.20019 -0.00298116 -0.00138068)
(1.20038 -0.00303189 -0.0013921)
(1.20029 -0.00307721 -0.00149368)
(1.19998 -0.00210752 -0.000962359)
(1.19991 -0.00212927 -0.00103535)
(1.20005 -0.00219289 -0.0010528)
(1.20002 -0.00197539 -0.000960714)
(1.20014 -0.00201921 -0.000975863)
(1.20008 -0.00204809 -0.00104094)
(1.19992 -0.00137685 -0.000663405)
(1.19988 -0.00138869 -0.000710467)
(1.19996 -0.00143727 -0.000727247)
(1.19996 -0.00129164 -0.000661967)
(1.20004 -0.00132559 -0.000676766)
(1.2 -0.00134317 -0.000718123)
(1.19993 -0.000895412 -0.00045219)
(1.1999 -0.000901912 -0.000482706)
(1.19995 -0.000936589 -0.000496803)
(1.19995 -0.000840641 -0.000450873)
(1.2 -0.00086533 -0.000463339)
(1.19998 -0.000876054 -0.000490375)
(1.19995 -0.00057665 -0.000305137)
(1.19993 -0.000580921 -0.000324453)
(1.19996 -0.000605072 -0.000335823)
(1.19996 -0.000541631 -0.000303666)
(1.19999 -0.000558701 -0.000313915)
(1.19998 -0.00056612 -0.000330767)
(1.19996 -0.000370303 -0.000204467)
(1.19995 -0.000373401 -0.000216167)
(1.19997 -0.000389112 -0.000224361)
(1.19998 -0.000348354 -0.000203582)
(1.2 -0.000359735 -0.000210687)
(1.19999 -0.000364827 -0.000220971)
(1.19998 -0.000235237 -0.000138618)
(1.19997 -0.00023747 -0.000146297)
(1.19998 -0.000248095 -0.000152399)
(1.19999 -0.000221094 -0.000137804)
(1.2 -0.000228835 -0.000143434)
(1.19999 -0.000232378 -0.000150067)
(1.19999 -0.000148134 -9.11213e-05)
(1.19999 -0.000149345 -9.59217e-05)
(1.19999 -0.000156358 -0.00010041)
(1.2 -0.00013914 -9.0139e-05)
(1.2 -0.000144419 -9.42053e-05)
(1.2 -0.000146419 -9.84954e-05)
(1.2 -9.08571e-05 -5.72649e-05)
(1.2 -9.13085e-05 -6.01999e-05)
(1.2 -9.65058e-05 -6.36001e-05)
(1.20001 -8.46668e-05 -5.62321e-05)
(1.20001 -8.88035e-05 -5.9274e-05)
(1.20001 -8.99314e-05 -6.21514e-05)
(1.20001 -4.9406e-05 -3.41804e-05)
(1.20001 -4.97415e-05 -3.54705e-05)
(1.20001 -5.34243e-05 -3.77725e-05)
(1.20001 -4.48224e-05 -3.2489e-05)
(1.20002 -4.81952e-05 -3.46263e-05)
(1.20002 -4.85617e-05 -3.67147e-05)
(1.22377 -0.00433097 -0.00039917)
(1.21823 -0.00616195 0.000403444)
(1.21695 -0.00831178 0.00013292)
(1.21771 -0.00582105 0.000486844)
(1.21854 -0.00295103 -6.69264e-05)
(1.21297 -0.0136787 -0.00119013)
(1.20972 -0.00966174 -0.00227809)
(1.21335 -0.0136532 -0.00120213)
(1.21264 -0.0130528 -0.00124488)
(1.2121 -0.0124983 -0.0015233)
(1.21098 -0.00827468 -0.0016513)
(1.20726 -0.00783919 -0.00184796)
(1.20496 -0.00721407 -0.002409)
(1.20795 -0.00810693 -0.00199159)
(1.20676 -0.00705463 -0.00201465)
(1.20609 -0.00585118 -0.00199058)
(1.20725 -0.00742113 -0.00194398)
(1.20372 -0.00482175 -0.00173556)
(1.20318 -0.00496412 -0.00196025)
(1.20412 -0.00494695 -0.0018613)
(1.20351 -0.00446878 -0.00177258)
(1.20369 -0.00418808 -0.00173332)
(1.20382 -0.00459493 -0.00185771)
(1.20211 -0.00328018 -0.0013731)
(1.20199 -0.00341486 -0.0015024)
(1.20231 -0.00337298 -0.00148369)
(1.20204 -0.00307926 -0.00138916)
(1.2023 -0.00301137 -0.00137806)
(1.20222 -0.00315592 -0.0014889)
(1.20129 -0.00225762 -0.00103712)
(1.20121 -0.00234926 -0.00112274)
(1.20142 -0.00233222 -0.00112498)
(1.20125 -0.00212107 -0.0010448)
(1.20144 -0.00208772 -0.00104936)
(1.20138 -0.00218429 -0.00112352)
(1.20078 -0.0015273 -0.000762554)
(1.20073 -0.00158893 -0.000819585)
(1.20087 -0.00158468 -0.000829493)
(1.20077 -0.00143516 -0.000766073)
(1.20089 -0.0014181 -0.000776439)
(1.20085 -0.00148417 -0.000825799)
(1.20047 -0.00101956 -0.000549189)
(1.20044 -0.00106031 -0.000587453)
(1.20053 -0.00106147 -0.000599376)
(1.20047 -0.000958451 -0.000550803)
(1.20055 -0.000949931 -0.000562535)
(1.20053 -0.000994651 -0.00059538)
(1.20029 -0.000670313 -0.000387946)
(1.20027 -0.000697849 -0.000412589)
(1.20033 -0.000700705 -0.000423926)
(1.20029 -0.000629881 -0.000387832)
(1.20035 -0.000625959 -0.000398439)
(1.20033 -0.000656173 -0.000419794)
(1.20018 -0.000436139 -0.00026933)
(1.20017 -0.000454002 -0.000285567)
(1.20021 -0.000456847 -0.000295111)
(1.20019 -0.000410231 -0.000268669)
(1.20022 -0.000408319 -0.000277631)
(1.20021 -0.000428207 -0.00029163)
(1.20011 -0.000281376 -0.000186255)
(1.20011 -0.000293365 -0.000196217)
(1.20013 -0.00029566 -0.00020322)
(1.20012 -0.000264839 -0.000185776)
(1.20014 -0.000263864 -0.000192139)
(1.20014 -0.000277301 -0.000200802)
(1.20008 -0.000180558 -0.000128478)
(1.20007 -0.000187976 -0.000135477)
(1.20009 -0.000189996 -0.000140973)
(1.20008 -0.000170067 -0.000128)
(1.20009 -0.000169896 -0.000133224)
(1.20009 -0.000178305 -0.000139144)
(1.20006 -0.0001146 -8.53166e-05)
(1.20006 -0.000119724 -8.96389e-05)
(1.20007 -0.000121058 -9.39442e-05)
(1.20006 -0.000107524 -8.45202e-05)
(1.20007 -0.000108321 -8.83991e-05)
(1.20007 -0.000113362 -9.23695e-05)
(1.20005 -6.91568e-05 -5.44096e-05)
(1.20005 -7.42883e-05 -5.68418e-05)
(1.20005 -7.36794e-05 -6.01683e-05)
(1.20005 -6.42051e-05 -5.32659e-05)
(1.20006 -6.70523e-05 -5.61121e-05)
(1.20006 -6.84271e-05 -5.90011e-05)
(1.20004 -3.6778e-05 -3.17104e-05)
(1.20004 -4.12655e-05 -3.25808e-05)
(1.20005 -3.97475e-05 -3.5299e-05)
(1.20005 -3.32867e-05 -2.98267e-05)
(1.20005 -3.88962e-05 -3.18858e-05)
(1.20005 -3.60828e-05 -3.45901e-05)
(1.21236 -0.00188586 0.000182077)
(1.2133 -0.000614828 -1.26731e-06)
(1.21217 -0.0023337 6.10572e-05)
(1.21219 -0.000586521 8.03245e-05)
(1.2121 -0.0018036 0.000204589)
(1.21057 -0.00415926 -0.000683015)
(1.21007 -0.00319187 -0.000960087)
(1.21082 -0.00400247 -0.000626389)
(1.2101 -0.00402791 -0.000804994)
(1.21005 -0.00236574 -0.000767731)
(1.2104 -0.00396678 -0.000740272)
(1.20733 -0.00326856 -0.00112962)
(1.20674 -0.00324108 -0.00131131)
(1.20771 -0.00334737 -0.00115145)
(1.20694 -0.00304875 -0.00120749)
(1.20707 -0.00231183 -0.001162)
(1.20728 -0.00311936 -0.00123155)
(1.20467 -0.00222139 -0.00117383)
(1.20451 -0.00247689 -0.00128605)
(1.20497 -0.00228226 -0.00123884)
(1.20445 -0.00208576 -0.00121617)
(1.20473 -0.00181249 -0.00119342)
(1.20471 -0.00212885 -0.00127987)
(1.20303 -0.0015729 -0.00102462)
(1.20298 -0.0017605 -0.00110524)
(1.20323 -0.00161426 -0.00109623)
(1.20291 -0.0014809 -0.00104695)
(1.20312 -0.00132468 -0.00104748)
(1.20309 -0.00151518 -0.0011132)
(1.20196 -0.00109919 -0.000826955)
(1.20193 -0.00123152 -0.000884846)
(1.20211 -0.00113386 -0.000890803)
(1.20189 -0.00103466 -0.000838873)
(1.20204 -0.000929383 -0.000849698)
(1.20203 -0.00106406 -0.000896848)
(1.20126 -0.000753305 -0.000638126)
(1.20124 -0.000844782 -0.000679039)
(1.20136 -0.000780548 -0.000690481)
(1.20122 -0.000708901 -0.000644507)
(1.20132 -0.000638939 -0.000658065)
(1.20132 -0.00073234 -0.000691588)
(1.20081 -0.000506777 -0.000477062)
(1.2008 -0.000569852 -0.000505882)
(1.20088 -0.000527352 -0.000518361)
(1.20079 -0.000476596 -0.000480262)
(1.20085 -0.000431572 -0.000493584)
(1.20085 -0.000494484 -0.000517208)
(1.20052 -0.000333711 -0.000346237)
(1.20051 -0.000377601 -0.000365803)
(1.20057 -0.000348728 -0.000377393)
(1.20051 -0.000313614 -0.00034721)
(1.20055 -0.000286392 -0.000358677)
(1.20055 -0.000326588 -0.000374976)
(1.20033 -0.000215708 -0.000246193)
(1.20033 -0.000247227 -0.000259401)
(1.20037 -0.000226387 -0.000268763)
(1.20033 -0.000202286 -0.000246182)
(1.20036 -0.000187455 -0.000255396)
(1.20036 -0.000211705 -0.000266386)
(1.20022 -0.000135083 -0.000173169)
(1.20022 -0.000159771 -0.000181835)
(1.20024 -0.000142436 -0.000188758)
(1.20022 -0.000126164 -0.000172915)
(1.20024 -0.000120884 -0.000179336)
(1.20024 -0.000132585 -0.000186895)
(1.20015 -8.1845e-05 -0.00012278)
(1.20015 -0.000103191 -0.000128429)
(1.20016 -8.66635e-05 -0.000133854)
(1.20015 -7.63117e-05 -0.000122868)
(1.20016 -7.79011e-05 -0.000127045)
(1.20016 -8.04612e-05 -0.00013278)
(1.20011 -4.7414e-05 -8.33056e-05)
(1.20011 -6.73867e-05 -8.65002e-05)
(1.20012 -5.09254e-05 -9.17852e-05)
(1.20011 -4.37669e-05 -8.26128e-05)
(1.20012 -5.11939e-05 -8.60865e-05)
(1.20012 -4.70008e-05 -9.03297e-05)
(1.20008 -2.20081e-05 -5.3634e-05)
(1.20008 -4.16919e-05 -5.52745e-05)
(1.20009 -2.47781e-05 -5.91967e-05)
(1.20008 -1.92938e-05 -5.23097e-05)
(1.20009 -3.17022e-05 -5.51464e-05)
(1.20009 -2.18802e-05 -5.80355e-05)
(1.20007 -6.69148e-06 -2.99691e-05)
(1.20007 -2.38883e-05 -3.02522e-05)
(1.20007 -7.60966e-06 -3.34753e-05)
(1.20007 -5.32243e-06 -2.80339e-05)
(1.20008 -2.13995e-05 -2.9586e-05)
(1.20007 -6.02555e-06 -3.29248e-05)
(1.0009 -0.12566 -0.0178329)
(0.964416 -0.149146 -0.0461359)
(1.2754 -0.109591 -0.0304158)
(1.20222 0.00146888 0.0133664)
(1.20164 -0.00652767 0.00612317)
(1.19108 -0.00386882 0.01664)
(1.21893 -0.0108323 -0.0122362)
(1.19634 -0.00644376 0.0205025)
(1.31761 -0.0782547 0.000191783)
(1.29955 -0.0581899 -0.00662002)
(1.31776 -0.0790735 0.000718114)
(1.32876 -0.0741447 -0.00677917)
(1.30516 -0.0802352 -0.0079985)
(1.18685 -0.0111148 0.00102083)
(1.19583 -0.0193507 0.00604395)
(1.20141 -0.0350711 0.00348468)
(1.18556 -0.00934935 0.00262107)
(1.1909 -0.0360171 0.00701118)
(1.19515 -0.023667 0.00525277)
(1.32971 -0.0728814 0.00584718)
(1.30597 -0.0794578 0.00710525)
(1.31719 -0.0775423 0.000362405)
(1.19008 -0.00646024 -0.00411141)
(1.19367 -0.0265242 -0.00331364)
(1.17296 -0.0228449 -0.0046651)
(1.18474 -0.0201437 -0.00314422)
(1.18595 -0.00975531 -0.000977943)
(1.31101 -0.0769036 -0.00217649)
(1.29419 -0.05651 -0.00715173)
(1.3119 -0.0767822 -0.00179853)
(1.32302 -0.0707764 -0.00806862)
(1.30047 -0.078582 -0.0101949)
(1.18597 -0.00958784 -0.00406445)
(1.19317 -0.0128647 -0.00157861)
(1.19789 -0.030434 -0.00131641)
(1.18552 -0.00945303 -0.002915)
(1.18323 -0.0290705 -0.00167947)
(1.19077 -0.0210821 -0.00211051)
(1.32189 -0.0704427 0.00439359)
(1.2993 -0.0785014 0.00503194)
(1.31 -0.0770518 -0.00263105)
(1.19043 -0.0092429 -0.00604012)
(1.19501 -0.0279198 -0.0044662)
(1.17819 -0.0255425 -0.00636401)
(1.18722 -0.019926 -0.00540812)
(1.18512 -0.00867544 -0.00508112)
(0.43219 0.0981782 -0.0420146)
(0.290198 0.0682683 -0.0269864)
(0.348866 0.118504 -0.0437855)
(0.281839 0.06664 -0.0328389)
(0.251101 0.114544 -0.0175202)
(0.179725 0.0753484 0.0231754)
(0.105502 0.102873 -0.0156446)
(1.19789 0.00498241 0.0192701)
(1.20096 -0.0114424 0.0180238)
(1.19512 -0.00552244 0.0152041)
(1.19205 -0.015098 0.0036086)
(1.19799 -0.0141644 0.00363118)
(1.19363 -0.0140506 0.00489623)
(1.19163 -0.014903 0.00555252)
(1.19379 -0.0193726 -0.000331433)
(1.19383 -0.0147206 0.00039078)
(1.20386 -0.0314493 0.00314162)
(1.19581 -0.0119945 0.00408167)
(1.19455 -0.0346523 0.00652471)
(1.19634 -0.0251236 0.0039611)
(1.19337 -0.0172562 -0.00351407)
(1.19154 -0.0206641 -0.00201104)
(1.19791 -0.0195671 -0.00136979)
(1.19451 -0.0170574 -0.000868988)
(1.19528 -0.0225191 -0.001337)
(1.19183 -0.0244752 -0.000980759)
(1.20417 -0.027736 0.000906113)
(1.20803 -0.0388502 0.00266872)
(1.20315 -0.014213 0.00537339)
(1.22904 -0.00987231 -5.99886e-05)
(1.22696 -0.00596311 0.000492279)