/*--------------------------------*- C++ -*----------------------------------*\
| =========                 |                                                 |
| \\      /  F ield         | OpenFOAM: The Open Source CFD Toolbox           |
|  \\    /   O peration     | Version:  2012                                  |
|   \\  /    A nd           | Website:  www.openfoam.com                      |
|    \\/     M anipulation  |                                                 |
\*---------------------------------------------------------------------------*/
FoamFile
{
    version     2.0;
    format      ascii;
    class       volScalarField::Internal;
    location    "0.107/fluid";
    object      V0;
}
// * * * * * * * * * * * * * * * * * * * * * * * * * * * * * * * * * * * * * //

dimensions      [0 3 0 0 0 0 0];


value           nonuniform List<scalar> 
16422
(
4.26923e-05
4.24758e-05
4.24289e-05
4.2459e-05
4.24803e-05
4.24944e-05
4.25012e-05
4.25055e-05
4.25067e-05
4.25069e-05
4.25105e-05
4.25101e-05
4.25071e-05
4.25074e-05
4.25067e-05
4.25906e-05
4.2563e-05
4.25037e-05
4.24934e-05
4.2498e-05
4.2506e-05
4.25111e-05
4.25124e-05
4.25116e-05
4.25102e-05
4.2512e-05
4.25082e-05
4.25071e-05
4.25077e-05
4.2506e-05
4.25844e-05
4.25757e-05
4.25477e-05
4.25288e-05
4.25219e-05
4.2521e-05
4.25205e-05
4.25187e-05
4.25161e-05
4.2515e-05
4.25139e-05
4.251e-05
4.25089e-05
4.25089e-05
4.2506e-05
4.26995e-05
4.24821e-05
4.24366e-05
4.24631e-05
4.24802e-05
4.24917e-05
4.24996e-05
4.25038e-05
4.25062e-05
4.25081e-05
4.25099e-05
4.25092e-05
4.2508e-05
4.25077e-05
4.25088e-05
4.2592e-05
4.25648e-05
4.25079e-05
4.24958e-05
4.24987e-05
4.25048e-05
4.25089e-05
4.25099e-05
4.25108e-05
4.25107e-05
4.25106e-05
4.25092e-05
4.25094e-05
4.25066e-05
4.25064e-05
4.25849e-05
4.25759e-05
4.25482e-05
4.25292e-05
4.25215e-05
4.252e-05
4.25193e-05
4.25172e-05
4.25154e-05
4.25147e-05
4.25131e-05
4.25108e-05
4.25096e-05
4.25084e-05
4.25067e-05
4.27022e-05
4.24829e-05
4.24497e-05
4.24724e-05
4.24854e-05
4.24942e-05
4.2499e-05
4.25019e-05
4.25057e-05
4.25086e-05
4.25103e-05
4.25101e-05
4.25108e-05
4.25107e-05
4.25079e-05
4.25982e-05
4.25706e-05
4.25156e-05
4.25033e-05
4.25027e-05
4.25061e-05
4.25085e-05
4.25086e-05
4.25094e-05
4.25106e-05
4.25116e-05
4.25103e-05
4.25099e-05
4.25085e-05
4.25072e-05
4.2584e-05
4.25759e-05
4.25502e-05
4.25321e-05
4.25231e-05
4.25197e-05
4.25177e-05
4.2515e-05
4.25141e-05
4.25148e-05
4.25138e-05
4.25109e-05
4.25095e-05
4.25088e-05
4.25077e-05
5.32453e-06
4.24409e-05
5.32505e-06
4.2444e-05
5.32492e-06
4.24465e-05
5.32441e-06
4.24387e-05
5.32402e-06
4.24352e-05
3.36874e-08
3.25171e-08
4.23591e-05
4.2395e-05
4.23612e-05
4.24005e-05
4.25954e-05
4.26029e-05
4.2592e-05
4.27003e-05
4.26024e-05
4.26043e-05
4.25937e-05
3.36843e-08
3.36833e-08
4.23642e-05
4.24043e-05
4.23603e-05
4.24135e-05
4.26056e-05
4.26052e-05
4.25953e-05
4.27016e-05
4.26049e-05
4.26101e-05
4.26004e-05
3.3685e-08
3.36849e-08
4.23576e-05
4.24151e-05
4.26029e-05
4.26123e-05
4.26006e-05
6.80586e-08
4.19998e-05
4.20073e-05
7.86171e-08
3.375e-08
5.38015e-06
5.32549e-06
5.38126e-06
3.25073e-08
6.82391e-08
4.19411e-05
4.31666e-05
4.24452e-05
4.19492e-05
4.31726e-05
7.89083e-08
3.36871e-08
3.36827e-08
6.8059e-08
4.19562e-05
4.19768e-05
6.80535e-08
3.37501e-08
5.32523e-06
5.38164e-06
5.38135e-06
3.37505e-08
6.82392e-08
4.24441e-05
4.19342e-05
4.31691e-05
4.19402e-05
4.31689e-05
6.82482e-08
6.80557e-08
6.80538e-08
3.37506e-08
5.38187e-06
5.32467e-06
3.3751e-08
5.38183e-06
6.82405e-08
4.19349e-05
4.31724e-05
4.24472e-05
6.82489e-08
4.19345e-05
4.31736e-05
3.36846e-08
3.36848e-08
6.80565e-08
6.80541e-08
3.37504e-08
5.32457e-06
5.38131e-06
5.38167e-06
3.37507e-08
6.82389e-08
4.24435e-05
4.19183e-05
4.31648e-05
4.19267e-05
4.31694e-05
6.82343e-08
6.80368e-08
6.80531e-08
3.37499e-08
5.38063e-06
5.32494e-06
3.37506e-08
5.38102e-06
6.8209e-08
4.19134e-05
4.31603e-05
4.24319e-05
6.82323e-08
4.19074e-05
4.31583e-05
3.36844e-08
6.80355e-08
3.37494e-08
5.3255e-06
5.38097e-06
6.82086e-08
4.24331e-05
4.19029e-05
4.31631e-05
3.37057e-08
3.37162e-08
3.36832e-08
3.36831e-08
3.36849e-08
3.36852e-08
5.16783e-06
6.80968e-08
5.17415e-06
6.81142e-08
5.16477e-06
5.17814e-06
6.68997e-07
5.5638e-06
3.37507e-08
5.56495e-06
6.68857e-07
6.64287e-07
6.72564e-07
6.7282e-07
6.63636e-07
6.64191e-07
6.72504e-07
6.7267e-07
6.64039e-07
6.69082e-07
3.37524e-08
5.55586e-06
5.56683e-06
6.68495e-07
5.30531e-06
5.16399e-06
5.5123e-06
6.82398e-08
5.1666e-06
5.5139e-06
5.30435e-06
5.30508e-06
6.82457e-08
5.15565e-06
5.52109e-06
5.16745e-06
5.51777e-06
5.30147e-06
3.36846e-08
3.36846e-08
5.16478e-06
6.80536e-08
5.16225e-06
6.80547e-08
5.16061e-06
5.16157e-06
6.68828e-07
5.5635e-06
3.37501e-08
6.68852e-07
5.56341e-06
6.6402e-07
6.72476e-07
6.72464e-07
6.6406e-07
6.64004e-07
6.72493e-07
6.72467e-07
6.6403e-07
6.68842e-07
3.37499e-08
5.5637e-06
5.56351e-06
6.68886e-07
5.30343e-06
5.16287e-06
5.51192e-06
6.82425e-08
5.30376e-06
5.16195e-06
5.51202e-06
5.30362e-06
6.82428e-08
5.16152e-06
5.51248e-06
5.16197e-06
5.51226e-06
5.30364e-06
6.80517e-08
5.16096e-06
5.16137e-06
6.80526e-08
5.16105e-06
5.16092e-06
6.68859e-07
3.37512e-08
5.56377e-06
5.5639e-06
6.68848e-07
6.64005e-07
6.72471e-07
6.64053e-07
6.72453e-07
6.68874e-07
3.37512e-08
5.56404e-06
6.68889e-07
5.56394e-06
6.63973e-07
6.72445e-07
6.72442e-07
6.63989e-07
5.30429e-06
6.82478e-08
5.16203e-06
5.51293e-06
5.16237e-06
5.51308e-06
5.30411e-06
5.30407e-06
6.82479e-08
5.16206e-06
5.51284e-06
5.3039e-06
5.16205e-06
5.513e-06
3.36846e-08
3.36844e-08
5.16055e-06
6.8055e-08
5.15951e-06
6.80535e-08
5.15919e-06
5.15936e-06
6.68836e-07
5.56356e-06
3.37502e-08
6.68832e-07
5.56322e-06
6.63962e-07
6.72426e-07
6.72424e-07
6.63972e-07
6.63989e-07
6.72445e-07
6.72444e-07
6.63972e-07
6.68818e-07
3.37503e-08
5.56275e-06
5.563e-06
6.68808e-07
5.30295e-06
5.16156e-06
5.51247e-06
6.82348e-08
5.30361e-06
5.16069e-06
5.51196e-06
5.30244e-06
6.82346e-08
5.1602e-06
5.5115e-06
5.16041e-06
5.51156e-06
5.30235e-06
6.80435e-08
5.15759e-06
5.15833e-06
6.80457e-08
5.1591e-06
5.15884e-06
6.68694e-07
3.37501e-08
5.56213e-06
5.56213e-06
6.68802e-07
6.63879e-07
6.72412e-07
6.63922e-07
6.72416e-07
6.68733e-07
3.37502e-08
5.56261e-06
6.68763e-07
5.56238e-06
6.63847e-07
6.72435e-07
6.72394e-07
6.63953e-07
5.30125e-06
6.8218e-08
5.15843e-06
5.50993e-06
5.15911e-06
5.51027e-06
5.30105e-06
5.30198e-06
6.82204e-08
5.16005e-06
5.5112e-06
5.30195e-06
5.15977e-06
5.51089e-06
3.36845e-08
3.36849e-08
5.15666e-06
6.80258e-08
5.15693e-06
6.80246e-08
5.15689e-06
6.68924e-07
5.56225e-06
3.37495e-08
6.68793e-07
5.56272e-06
6.64047e-07
6.72536e-07
6.64062e-07
6.72429e-07
6.72556e-07
6.63943e-07
6.689e-07
3.37499e-08
5.56348e-06
5.30097e-06
5.15745e-06
5.50958e-06
6.82007e-08
5.30025e-06
5.15762e-06
5.50971e-06
5.30058e-06
6.81995e-08
5.15738e-06
5.50992e-06
6.79786e-07
7.43414e-07
3.36908e-08
7.44266e-07
6.79276e-07
8.0427e-08
7.63741e-08
7.62675e-08
7.58475e-07
3.39738e-08
7.54397e-07
7.65443e-07
4.8837e-08
6.78556e-07
3.36837e-08
7.42753e-07
7.42764e-07
6.78554e-07
7.62431e-08
7.62483e-08
6.78557e-07
3.3683e-08
7.42819e-07
6.78584e-07
7.4275e-07
7.62448e-08
7.6245e-08
6.7859e-07
3.36852e-08
7.42696e-07
7.42688e-07
6.78594e-07
7.62489e-08
7.625e-08
6.78584e-07
3.36848e-08
7.42786e-07
6.78584e-07
7.4278e-07
7.62488e-08
7.62517e-08
6.62372e-07
7.20209e-07
6.23867e-07
6.80668e-08
7.21044e-07
6.24236e-07
6.61604e-07
6.66117e-07
6.982e-08
7.33859e-07
6.22368e-07
7.36422e-07
6.2631e-07
6.64069e-07
6.78078e-07
7.41776e-07
3.37494e-08
7.41798e-07
6.78061e-07
7.63463e-08
7.59641e-08
7.62438e-08
7.62444e-08
6.78482e-07
3.38408e-08
7.40656e-07
7.44288e-07
6.74269e-07
6.61377e-07
6.24211e-07
7.19618e-07
6.82371e-08
6.2444e-07
7.19653e-07
6.61235e-07
6.62121e-07
6.94404e-08
6.20695e-07
7.28629e-07
6.24199e-07
7.25028e-07
6.61396e-07
6.78873e-07
7.43454e-07
3.36861e-08
6.79074e-07
7.43028e-07
7.62488e-08
7.62443e-08
7.62519e-08
7.62909e-08
6.7861e-07
3.36841e-08
7.4275e-07
6.78574e-07
7.42842e-07
6.61294e-07
7.20282e-07
6.23841e-07
6.80557e-08
6.61689e-07
7.19844e-07
6.23785e-07
6.61143e-07
6.80543e-08
7.19581e-07
6.23649e-07
7.19666e-07
6.23758e-07
6.61012e-07
6.78059e-07
7.41785e-07
3.37499e-08
6.78064e-07
7.41779e-07
7.62427e-08
7.62422e-08
7.62418e-08
7.62439e-08
6.78083e-07
3.37506e-08
7.41864e-07
7.41848e-07
6.78087e-07
6.61277e-07
6.24229e-07
7.19633e-07
6.82403e-08
6.61258e-07
6.24251e-07
7.19652e-07
6.61399e-07
6.82452e-08
6.24259e-07
7.19808e-07
6.24354e-07
7.19782e-07
6.61361e-07
6.61174e-07
6.80524e-08
7.19581e-07
6.23711e-07
7.19617e-07
6.23844e-07
6.61038e-07
6.61086e-07
6.80537e-08
7.19654e-07
6.23722e-07
7.19624e-07
6.61102e-07
6.23779e-07
6.7808e-07
3.37509e-08
7.41841e-07
7.41847e-07
6.7808e-07
7.62426e-08
7.62438e-08
6.78091e-07
3.37511e-08
7.41891e-07
6.78099e-07
7.41866e-07
7.6242e-08
7.62437e-08
6.61478e-07
6.82427e-08
6.24294e-07
7.19776e-07
6.24433e-07
7.19816e-07
6.61371e-07
6.61432e-07
6.82488e-08
6.24327e-07
7.19829e-07
6.61384e-07
6.24397e-07
7.19852e-07
6.78566e-07
7.4278e-07
3.36845e-08
6.78566e-07
7.42756e-07
7.62468e-08
7.62495e-08
7.62426e-08
7.62446e-08
6.78573e-07
3.36844e-08
7.42789e-07
6.78581e-07
7.42769e-07
6.61014e-07
7.19594e-07
6.2372e-07
6.80567e-08
6.61058e-07
7.19567e-07
6.23754e-07
6.61012e-07
6.80519e-08
7.19598e-07
6.23684e-07
7.19577e-07
6.23745e-07
6.60993e-07
6.78075e-07
7.41822e-07
3.37501e-08
6.7808e-07
7.41799e-07
7.62425e-08
7.6245e-08
7.62428e-08
7.62437e-08
6.78067e-07
3.37507e-08
7.41793e-07
7.41777e-07
6.7807e-07
6.61336e-07
6.24283e-07
7.19739e-07
6.82354e-08
6.61344e-07
6.24317e-07
7.19712e-07
6.61252e-07
6.82347e-08
6.2424e-07
7.19675e-07
6.24308e-07
7.19661e-07
6.61228e-07
6.60763e-07
6.80387e-08
7.19293e-07
6.23355e-07
7.19325e-07
6.23504e-07
6.60655e-07
6.61005e-07
6.80499e-08
7.19579e-07
6.23678e-07
7.19577e-07
6.60969e-07
6.23744e-07
6.78047e-07
3.37499e-08
7.41661e-07
7.41643e-07
6.78058e-07
7.6244e-08
7.62449e-08
6.7806e-07
3.37505e-08
7.41774e-07
6.78065e-07
7.41755e-07
7.62458e-08
7.62479e-08
6.61e-07
6.82117e-08
6.23912e-07
7.19337e-07
6.2404e-07
7.19355e-07
6.60912e-07
6.6123e-07
6.82274e-08
6.24229e-07
7.19632e-07
6.6119e-07
6.24282e-07
7.19617e-07
6.78599e-07
7.42664e-07
3.36848e-08
6.78583e-07
7.42691e-07
7.62494e-08
7.62499e-08
6.60692e-07
7.19269e-07
6.23293e-07
6.80329e-08
6.60604e-07
7.193e-07
6.23418e-07
6.78066e-07
7.41638e-07
3.37502e-08
6.78056e-07
7.41664e-07
7.62483e-08
7.62476e-08
6.60938e-07
6.23858e-07
7.19305e-07
6.82084e-08
6.60852e-07
6.23977e-07
7.19339e-07
6.25942e-07
8.52865e-08
8.54175e-08
6.25445e-07
6.80597e-07
3.36915e-08
7.46948e-07
6.82788e-07
7.44572e-07
6.26862e-07
8.59815e-08
8.53793e-08
6.29139e-07
8.07181e-08
7.75402e-08
8.4736e-08
9.02158e-08
8.30556e-08
8.62166e-08
7.89134e-08
9.00085e-08
7.78151e-08
8.51842e-08
8.53057e-08
7.76993e-08
7.63382e-08
7.70995e-08
7.77794e-08
8.59005e-08
8.52688e-08
7.85213e-08
7.08346e-07
3.38858e-08
7.50106e-07
6.88713e-07
7.60285e-07
7.11989e-07
8.90968e-08
6.51685e-07
8.62194e-08
6.3527e-07
8.91235e-08
6.78541e-07
3.36833e-08
7.42772e-07
6.7855e-07
7.42733e-07
6.24682e-07
8.52394e-08
8.52402e-08
6.24679e-07
6.24674e-07
8.52416e-08
6.24679e-07
8.52398e-08
7.76665e-08
8.51521e-08
8.51485e-08
7.76724e-08
7.62453e-08
7.62466e-08
7.76681e-08
8.5149e-08
8.51514e-08
7.76699e-08
6.78563e-07
3.36833e-08
7.42732e-07
6.78549e-07
7.42785e-07
6.24699e-07
8.52443e-08
8.52404e-08
6.24716e-07
6.24697e-07
8.52372e-08
6.24687e-07
8.52419e-08
7.76682e-08
8.51484e-08
8.51485e-08
7.76686e-08
7.62446e-08
7.6247e-08
7.76666e-08
8.51519e-08
8.51479e-08
7.76702e-08
6.78593e-07
3.36849e-08
7.42719e-07
6.78581e-07
7.42713e-07
6.24703e-07
8.52463e-08
8.52437e-08
6.24701e-07
6.24703e-07
8.5243e-08
6.24699e-07
8.52455e-08
7.76702e-08
8.51536e-08
8.51528e-08
7.76726e-08
7.62479e-08
7.62497e-08
7.76692e-08
8.51515e-08
8.51513e-08
7.7672e-08
6.78582e-07
3.36848e-08
7.42751e-07
6.7859e-07
7.42753e-07
6.24703e-07
8.52431e-08
8.52438e-08
6.24703e-07
6.24704e-07
8.52442e-08
6.24703e-07
8.52427e-08
7.76699e-08
8.51514e-08
8.51509e-08
7.76737e-08
7.62498e-08
7.62492e-08
7.76712e-08
8.51502e-08
8.51524e-08
7.76714e-08
6.62473e-07
6.80678e-08
7.23091e-07
6.25105e-07
7.21185e-07
6.63775e-07
6.24474e-07
6.66394e-07
6.84371e-08
7.24658e-07
6.26122e-07
7.30179e-07
6.64441e-07
6.27844e-07
6.24581e-07
8.52367e-08
8.52387e-08
6.24568e-07
6.78103e-07
3.37486e-08
7.41955e-07
6.78178e-07
7.41826e-07
6.24607e-07
8.5247e-08
8.52391e-08
6.24672e-07
7.63011e-08
7.6255e-08
7.77543e-08
8.52601e-08
8.52736e-08
7.72102e-08
7.77179e-08
8.51609e-08
7.76777e-08
8.52209e-08
7.76652e-08
8.51442e-08
8.51467e-08
7.7667e-08
7.62448e-08
7.6251e-08
7.76656e-08
8.5155e-08
8.51466e-08
7.76733e-08
6.78663e-07
3.37909e-08
7.42268e-07
6.78351e-07
7.43092e-07
6.25429e-07
8.55481e-08
8.53715e-08
6.22478e-07
6.25122e-07
8.52532e-08
6.24815e-07
8.53156e-08
6.61445e-07
6.82362e-08
6.24895e-07
7.19878e-07
6.24558e-07
7.197e-07
6.61657e-07
6.6246e-07
6.84841e-08
6.25586e-07
7.20358e-07
6.26599e-07
7.21743e-07
6.62038e-07
6.25016e-07
8.53116e-08
6.25197e-07
8.52601e-08
6.78803e-07
3.36856e-08
7.4286e-07
6.787e-07
7.43102e-07
6.24921e-07
8.52491e-08
8.52738e-08
6.24833e-07
7.6244e-08
7.62556e-08
7.7673e-08
8.51488e-08
7.76684e-08
8.51548e-08
7.76677e-08
8.51626e-08
7.76809e-08
8.5149e-08
7.76788e-08
8.52096e-08
7.77229e-08
8.5163e-08
7.62638e-08
7.62472e-08
7.76906e-08
8.51543e-08
8.5177e-08
7.76734e-08
6.78613e-07
3.36848e-08
7.42938e-07
6.78676e-07
7.42775e-07
6.24737e-07
8.52419e-08
6.24711e-07
8.52485e-08
6.24747e-07
8.52575e-08
6.24797e-07
8.52426e-08
6.61401e-07
6.80559e-08
7.19663e-07
6.23614e-07
7.1993e-07
6.61075e-07
6.23801e-07
6.61016e-07
6.80537e-08
7.19762e-07
6.23682e-07
7.19575e-07
6.61199e-07
6.23701e-07
6.24561e-07
8.52367e-08
6.24567e-07
8.52358e-08
6.78064e-07
3.375e-08
7.41796e-07
6.78062e-07
7.41795e-07
6.24563e-07
8.52354e-08
8.52362e-08
6.24563e-07
7.62425e-08
7.62417e-08
7.76645e-08
8.51445e-08
8.51458e-08
7.7665e-08
7.76643e-08
8.51428e-08
7.76647e-08
8.51452e-08
7.7663e-08
8.51449e-08
7.76665e-08
8.51442e-08
7.6242e-08
7.62433e-08
7.76637e-08
8.51445e-08
8.51444e-08
7.76659e-08
6.78068e-07
3.37505e-08
7.41819e-07
6.78067e-07
7.41817e-07
6.24586e-07
8.52369e-08
8.52385e-08
6.24581e-07
6.24576e-07
8.52347e-08
6.24567e-07
8.52377e-08
6.61338e-07
6.82406e-08
6.24144e-07
7.19671e-07
6.24291e-07
7.19678e-07
6.61256e-07
6.61325e-07
6.82435e-08
6.24221e-07
7.19709e-07
6.24284e-07
7.19729e-07
6.6131e-07
6.61132e-07
6.80514e-08
7.19623e-07
6.23726e-07
7.19588e-07
6.61124e-07
6.23815e-07
6.61195e-07
6.80541e-08
7.19579e-07
6.23663e-07
7.1966e-07
6.61046e-07
6.23829e-07
6.78085e-07
3.37509e-08
7.41873e-07
6.78094e-07
7.41855e-07
6.24566e-07
8.52373e-08
8.52372e-08
6.24566e-07
6.24571e-07
8.52365e-08
6.24576e-07
8.52374e-08
7.76647e-08
8.5146e-08
7.76671e-08
8.51451e-08
7.62423e-08
7.62433e-08
7.76643e-08
8.51439e-08
8.51448e-08
7.76662e-08
6.78096e-07
3.37511e-08
7.41859e-07
6.78086e-07
7.41871e-07
6.24581e-07
8.52387e-08
6.24587e-07
8.52386e-08
6.24582e-07
8.52381e-08
6.24571e-07
8.52385e-08
7.76639e-08
8.51442e-08
8.51437e-08
7.76666e-08
7.62421e-08
7.62432e-08
7.7664e-08
8.51428e-08
8.51437e-08
7.76664e-08
6.61472e-07
6.82427e-08
6.24314e-07
7.19811e-07
6.24421e-07
7.19828e-07
6.61401e-07
6.61489e-07
6.82475e-08
6.24257e-07
7.198e-07
6.24432e-07
7.19853e-07
6.61372e-07
6.24686e-07
8.52403e-08
6.24683e-07
8.524e-08
6.78573e-07
3.36843e-08
7.42762e-07
6.78572e-07
7.42768e-07
6.24696e-07
8.5243e-08
8.52408e-08
6.24694e-07
7.62465e-08
7.62472e-08
7.76684e-08
8.51531e-08
7.7672e-08
8.51516e-08
7.76689e-08
8.51513e-08
7.76706e-08
8.51513e-08
7.76652e-08
8.51481e-08
7.7668e-08
8.51488e-08
7.62438e-08
7.62468e-08
7.76667e-08
8.51517e-08
8.51492e-08
7.76698e-08
6.78566e-07
3.3684e-08
7.4276e-07
6.78574e-07
7.42748e-07
6.24701e-07
8.52429e-08
6.247e-07
8.52423e-08
6.24694e-07
8.52417e-08
6.24701e-07
8.5242e-08
6.61019e-07
6.80558e-08
7.19523e-07
6.23592e-07
7.19567e-07
6.60902e-07
6.23751e-07
6.60973e-07
6.80511e-08
7.19523e-07
6.23599e-07
7.19536e-07
6.60924e-07
6.23712e-07
6.24563e-07
8.52368e-08
6.24566e-07
8.52373e-08
6.78067e-07
3.37494e-08
7.41784e-07
6.78069e-07
7.4178e-07
6.24559e-07
8.52378e-08
8.52362e-08
6.24559e-07
7.62426e-08
7.62441e-08
7.76638e-08
8.51453e-08
8.51437e-08
7.76673e-08
7.7664e-08
8.51443e-08
7.76671e-08
8.51439e-08
7.76649e-08
8.51437e-08
7.76671e-08
8.51442e-08
7.62411e-08
7.62443e-08
7.76629e-08
8.5145e-08
8.51428e-08
7.76669e-08
6.78061e-07
3.37498e-08
7.41775e-07
6.78066e-07
7.41774e-07
6.24562e-07
8.52379e-08
8.52364e-08
6.2456e-07
6.24556e-07
8.52371e-08
6.24561e-07
8.52367e-08
6.61312e-07
6.8234e-08
6.24158e-07
7.19643e-07
6.24309e-07
7.19679e-07
6.61204e-07
6.61248e-07
6.82326e-08
6.24161e-07
7.19621e-07
6.24274e-07
7.19649e-07
6.61185e-07
6.60839e-07
6.8039e-08
7.19402e-07
6.23498e-07
7.19376e-07
6.60816e-07
6.23561e-07
6.60966e-07
6.80484e-08
7.19473e-07
6.23555e-07
7.19521e-07
6.6088e-07
6.23701e-07
6.7805e-07
3.375e-08
7.41681e-07
6.7805e-07
7.41674e-07
6.24546e-07
8.52402e-08
8.52378e-08
6.24551e-07
6.24544e-07
8.52364e-08
6.24543e-07
8.5238e-08
7.76644e-08
8.51444e-08
7.76675e-08
8.51444e-08
7.62437e-08
7.62465e-08
7.76643e-08
8.51435e-08
8.51426e-08
7.76678e-08
6.78058e-07
3.37504e-08
7.41721e-07
6.78058e-07
7.41723e-07
6.24546e-07
8.52369e-08
6.24555e-07
8.52367e-08
6.24547e-07
8.52366e-08
6.24546e-07
8.52353e-08
7.76659e-08
8.51453e-08
8.51437e-08
7.76689e-08
7.62464e-08
7.62464e-08
7.76656e-08
8.51433e-08
8.51445e-08
7.76681e-08
6.61071e-07
6.82133e-08
6.24039e-07
7.19432e-07
6.24094e-07
7.19408e-07
6.61036e-07
6.61184e-07
6.82256e-08
6.24098e-07
7.19512e-07
6.24236e-07
7.19551e-07
6.61105e-07
6.24695e-07
8.52439e-08
6.24694e-07
8.52442e-08
6.78596e-07
3.36849e-08
7.42683e-07
6.78616e-07
7.42653e-07
6.24694e-07
8.52471e-08
8.52426e-08
6.24713e-07
7.62545e-08
7.62502e-08
7.76738e-08
8.51485e-08
7.76709e-08
8.51563e-08
7.76712e-08
8.5149e-08
7.7672e-08
8.51492e-08
7.62484e-08
7.62519e-08
7.76686e-08
8.51511e-08
8.51478e-08
7.76735e-08
6.78634e-07
7.42641e-07
6.78609e-07
7.42705e-07
6.24738e-07
8.52469e-08
6.24716e-07
8.52545e-08
6.60629e-07
6.80317e-08
7.19239e-07
6.23292e-07
7.19247e-07
6.60624e-07
6.23375e-07
6.60706e-07
7.19175e-07
6.23235e-07
7.19223e-07
6.60562e-07
6.23389e-07
6.24558e-07
8.52394e-08
6.24551e-07
8.52412e-08
6.78067e-07
3.37502e-08
7.41663e-07
6.78076e-07
7.41638e-07
6.24558e-07
8.52431e-08
8.52398e-08
6.24568e-07
7.62535e-08
7.62497e-08
7.76724e-08
8.51452e-08
7.76702e-08
7.76678e-08
8.51435e-08
7.76695e-08
8.51458e-08
7.62475e-08
7.62509e-08
7.76682e-08
8.51469e-08
8.51448e-08
7.7672e-08
6.78095e-07
7.41615e-07
6.78075e-07
7.41663e-07
6.24596e-07
8.52409e-08
6.24575e-07
6.60857e-07
6.82068e-08
6.23859e-07
7.1928e-07
6.23932e-07
7.19281e-07
6.60853e-07
6.60898e-07
6.23788e-07
7.19195e-07
6.23926e-07
7.1923e-07
6.6077e-07
4.28886e-05
4.26993e-05
4.28959e-05
4.27437e-05
4.26534e-05
4.26563e-05
4.27408e-05
4.2901e-05
4.26993e-05
4.29016e-05
4.27496e-05
4.26594e-05
4.27486e-05
4.26602e-05
4.29023e-05
4.27096e-05
4.29061e-05
4.2756e-05
4.26655e-05
4.27528e-05
4.26717e-05
5.32036e-06
5.34007e-06
5.33791e-06
5.32569e-06
5.33863e-06
5.3434e-06
5.31742e-06
5.31891e-06
5.32507e-06
5.34124e-06
5.33841e-06
5.33829e-06
5.34124e-06
5.31897e-06
5.31867e-06
5.34114e-06
5.33835e-06
5.32478e-06
5.33826e-06
5.31888e-06
5.34095e-06
5.31825e-06
5.32444e-06
5.34039e-06
5.33769e-06
5.33785e-06
5.34054e-06
5.31801e-06
5.31762e-06
5.34024e-06
5.33712e-06
5.32417e-06
5.33714e-06
5.31768e-06
5.34023e-06
5.32272e-06
5.32961e-06
5.3422e-06
5.34541e-06
8.75313e-08
1.10081e-07
3.36874e-08
1.10087e-07
8.75253e-08
9.03068e-08
3.40533e-08
1.09347e-07
1.12074e-07
1.02258e-07
4.27004e-05
4.28996e-05
4.28984e-05
4.27457e-05
4.26589e-05
4.2658e-05
4.27473e-05
8.75175e-08
3.36831e-08
1.10072e-07
1.10062e-07
8.75203e-08
8.75146e-08
3.36821e-08
1.10074e-07
8.75205e-08
1.10058e-07
4.27003e-05
4.29033e-05
4.2902e-05
4.27507e-05
4.2663e-05
4.26614e-05
4.27518e-05
8.75196e-08
3.36842e-08
1.1007e-07
1.10059e-07
8.75232e-08
8.75186e-08
3.36838e-08
1.10075e-07
8.75221e-08
1.10063e-07
4.27301e-05
4.29206e-05
4.27641e-05
4.2684e-05
8.27697e-08
9.80602e-08
9.70175e-08
6.80599e-08
9.80631e-08
9.70469e-08
8.27363e-08
8.39311e-08
7.489e-08
1.03685e-07
9.81279e-08
1.02765e-07
9.70539e-08
8.38496e-08
8.73571e-08
1.10033e-07
3.37483e-08
1.10026e-07
8.73584e-08
5.32017e-06
5.32576e-06
5.34199e-06
5.33854e-06
5.33871e-06
5.34285e-06
5.31946e-06
8.74525e-08
3.37314e-08
1.0976e-07
1.10633e-07
8.80478e-08
8.28506e-08
9.72472e-08
9.80163e-08
6.8237e-08
9.72727e-08
9.8004e-08
8.28372e-08
8.35141e-08
7.50531e-08
9.82647e-08
1.0317e-07
9.71549e-08
1.02063e-07
8.35345e-08
8.75211e-08
1.10097e-07
3.3685e-08
8.7531e-08
1.10069e-07
8.75174e-08
3.36822e-08
1.10066e-07
8.75162e-08
1.10063e-07
8.27369e-08
9.8076e-08
9.70249e-08
6.80555e-08
8.27516e-08
9.80418e-08
9.7036e-08
8.2737e-08
6.80523e-08
9.80471e-08
9.70291e-08
9.80353e-08
9.70516e-08
8.2723e-08
8.73567e-08
1.10034e-07
3.37482e-08
8.7359e-08
1.10025e-07
5.31885e-06
5.32511e-06
5.34149e-06
5.33836e-06
5.33828e-06
5.34126e-06
5.31901e-06
8.73587e-08
3.37494e-08
1.10041e-07
1.10032e-07
8.736e-08
8.2848e-08
9.72526e-08
9.80186e-08
6.82377e-08
8.28422e-08
9.72661e-08
9.80053e-08
8.2878e-08
6.82465e-08
9.72694e-08
9.80372e-08
9.72924e-08
9.80223e-08
8.28669e-08
8.27359e-08
6.80534e-08
9.8047e-08
9.70234e-08
9.80331e-08
9.7045e-08
8.27243e-08
8.27292e-08
6.80527e-08
9.80515e-08
9.70372e-08
9.80319e-08
8.27313e-08
9.7048e-08
8.73591e-08
3.37495e-08
1.10039e-07
1.10031e-07
8.73616e-08
5.31847e-06
5.3246e-06
5.34077e-06
5.33813e-06
5.33805e-06
5.3408e-06
5.31848e-06
8.73589e-08
3.37499e-08
1.10044e-07
8.73622e-08
1.10033e-07
8.28722e-08
6.82405e-08
9.72579e-08
9.80269e-08
9.72809e-08
9.80158e-08
8.28569e-08
8.2875e-08
6.82483e-08
9.72773e-08
9.80389e-08
8.287e-08
9.72912e-08
9.80243e-08
8.75181e-08
1.10072e-07
3.36834e-08
8.75203e-08
1.10064e-07
8.75189e-08
3.36835e-08
1.10074e-07
8.75218e-08
1.10064e-07
8.27316e-08
9.8047e-08
9.70237e-08
6.8055e-08
8.27255e-08
9.80336e-08
9.70412e-08
8.27315e-08
6.80525e-08
9.80402e-08
9.7014e-08
9.80268e-08
9.70339e-08
8.27224e-08
8.73588e-08
1.10038e-07
3.37491e-08
8.73614e-08
1.10029e-07
5.31841e-06
5.32465e-06
5.34079e-06
5.338e-06
5.33809e-06
5.3407e-06
5.31845e-06
8.73598e-08
3.37495e-08
1.10038e-07
1.10029e-07
8.73625e-08
8.2862e-08
9.7257e-08
9.80242e-08
6.82364e-08
8.28559e-08
9.72713e-08
9.80095e-08
8.2859e-08
6.82338e-08
9.72447e-08
9.80161e-08
9.72665e-08
9.80038e-08
8.2849e-08
8.26798e-08
6.80367e-08
9.80034e-08
9.694e-08
9.79894e-08
9.69622e-08
8.26687e-08
8.27243e-08
6.80507e-08
9.80394e-08
9.70118e-08
9.80218e-08
8.27202e-08
9.70236e-08
8.73594e-08
3.37488e-08
1.1003e-07
1.10018e-07
8.73626e-08
5.3176e-06
5.32409e-06
5.34082e-06
5.33781e-06
5.33697e-06
5.3403e-06
5.3182e-06
8.736e-08
3.37494e-08
1.10038e-07
8.73624e-08
1.10028e-07
8.28013e-08
6.82083e-08
9.71677e-08
9.7971e-08
9.71875e-08
9.79549e-08
8.27937e-08
8.28506e-08
6.82293e-08
9.72415e-08
9.80122e-08
8.28455e-08
9.72545e-08
9.79968e-08
8.75197e-08
1.10066e-07
3.36837e-08
8.75214e-08
1.10059e-07
8.26794e-08
9.8001e-08
9.69354e-08
6.80342e-08
8.2667e-08
9.79885e-08
9.69584e-08
8.73604e-08
1.10026e-07
3.37487e-08
8.73612e-08
1.1002e-07
5.32044e-06
5.32761e-06
5.34164e-06
5.33833e-06
5.34037e-06
5.34304e-06
5.31901e-06
8.28035e-08
9.7163e-08
9.79676e-08
6.82078e-08
8.27901e-08
9.71861e-08
9.79556e-08
3.56259e-08
3.56243e-08
8.75504e-08
3.36956e-08
1.10243e-07
8.7619e-08
1.10127e-07
3.5647e-08
3.56798e-08
8.78751e-08
3.37433e-08
1.10251e-07
8.76485e-08
1.1047e-07
9.20609e-09
3.59362e-08
3.57589e-08
8.75148e-08
3.36822e-08
1.1007e-07
8.75184e-08
1.10058e-07
3.56223e-08
3.56223e-08
3.56219e-08
3.5622e-08
8.75158e-08
3.36816e-08
1.10067e-07
8.75178e-08
1.10061e-07
3.56216e-08
3.56216e-08
3.56214e-08
3.56219e-08
8.7518e-08
3.3683e-08
1.1007e-07
8.75219e-08
1.10059e-07
3.56228e-08
3.56228e-08
3.56217e-08
3.56226e-08
8.75194e-08
3.36839e-08
1.10072e-07
8.75225e-08
1.10062e-07
3.56222e-08
3.56223e-08
3.56225e-08
3.56224e-08
8.28296e-08
6.80784e-08
9.82205e-08
9.71024e-08
9.81096e-08
8.29204e-08
9.70826e-08
8.31021e-08
6.81594e-08
9.82149e-08
9.71277e-08
9.83758e-08
8.29263e-08
9.72438e-08
3.5619e-08
3.56189e-08
8.73579e-08
3.37485e-08
1.10044e-07
8.73631e-08
1.10029e-07
3.56197e-08
3.562e-08
6.37938e-07
6.67382e-07
6.57116e-07
6.64358e-07
6.57201e-07
6.37618e-07
6.6771e-07
6.53249e-07
6.9194e-07
6.73157e-07
6.63629e-07
6.64744e-07
6.91648e-07
6.5094e-07
6.52867e-07
6.64713e-07
6.73036e-07
6.9025e-07
6.6485e-07
6.90737e-07
6.52465e-07
6.38013e-07
6.64232e-07
6.56143e-07
6.66517e-07
6.57016e-07
6.67873e-07
6.36183e-07
6.37331e-07
6.6718e-07
6.57012e-07
6.64104e-07
6.67077e-07
6.37427e-07
6.56937e-07
6.52114e-07
6.89882e-07
6.72532e-07
6.64422e-07
6.89906e-07
6.64451e-07
6.52095e-07
6.52158e-07
6.64585e-07
6.90039e-07
6.72579e-07
6.89949e-07
6.52263e-07
6.64496e-07
6.37284e-07
6.64062e-07
6.67002e-07
6.56864e-07
6.67024e-07
6.56896e-07
6.37254e-07
8.73743e-08
3.37558e-08
1.10054e-07
8.73672e-08
1.10071e-07
3.5902e-08
3.69281e-08
3.56231e-08
3.56206e-08
8.28571e-08
6.82363e-08
9.72928e-08
9.80289e-08
9.72865e-08
9.80062e-08
8.28692e-08
8.29514e-08
6.82624e-08
9.73105e-08
9.80427e-08
9.73994e-08
9.80685e-08
8.28848e-08
3.5623e-08
3.56239e-08
8.75201e-08
3.3684e-08
1.10068e-07
8.75196e-08
1.10066e-07
3.56228e-08
3.56216e-08
8.7517e-08
3.36835e-08
1.10078e-07
8.75212e-08
1.1006e-07
3.56222e-08
3.56216e-08
3.56217e-08
3.56217e-08
8.27366e-08
6.80536e-08
9.80447e-08
9.70152e-08
9.80384e-08
8.27176e-08
9.70393e-08
8.27262e-08
6.80534e-08
9.80553e-08
9.70241e-08
9.80315e-08
8.27292e-08
9.70389e-08
3.56189e-08
3.56191e-08
8.73582e-08
3.37492e-08
1.10034e-07
8.73583e-08
1.10028e-07
3.56194e-08
3.56193e-08
6.37244e-07
6.56848e-07
6.66973e-07
6.64029e-07
6.5686e-07
6.3723e-07
6.6699e-07
6.52071e-07
6.89858e-07
6.72478e-07
6.64406e-07
6.64404e-07
6.89863e-07
6.52075e-07
6.52067e-07
6.64393e-07
6.72472e-07
6.89851e-07
6.64397e-07
6.89861e-07
6.52065e-07
6.37254e-07
6.64048e-07
6.56865e-07
6.67011e-07
6.56869e-07
6.67008e-07
6.37247e-07
6.37234e-07
6.56834e-07
6.64002e-07
6.6697e-07
6.66972e-07
6.56842e-07
6.37228e-07
6.52065e-07
6.89868e-07
6.72479e-07
6.64412e-07
6.89861e-07
6.5208e-07
6.64397e-07
6.52062e-07
6.64386e-07
6.72473e-07
6.89858e-07
6.89858e-07
6.64393e-07
6.52069e-07
6.37238e-07
6.64005e-07
6.66989e-07
6.56854e-07
6.37242e-07
6.66978e-07
6.56844e-07
8.73578e-08
3.37493e-08
1.10036e-07
8.73588e-08
1.10028e-07
3.56198e-08
3.56189e-08
3.56194e-08
3.56186e-08
8.28587e-08
6.82407e-08
9.72513e-08
9.80243e-08
9.72734e-08
9.80106e-08
8.28479e-08
8.28585e-08
6.82429e-08
9.72598e-08
9.80259e-08
9.72767e-08
9.8012e-08
8.2852e-08
8.27305e-08
6.80509e-08
9.80466e-08
9.70309e-08
9.80294e-08
8.27264e-08
9.70455e-08
8.27359e-08
6.80511e-08
9.80437e-08
9.70252e-08
9.80337e-08
8.27211e-08
9.7049e-08
8.73594e-08
3.375e-08
1.10043e-07
8.73623e-08
1.10033e-07
3.56206e-08
3.56205e-08
3.56201e-08
3.56202e-08
6.3723e-07
6.66964e-07
6.64025e-07
6.56807e-07
6.56837e-07
6.66986e-07
6.37206e-07
6.52068e-07
6.89863e-07
6.64401e-07
6.7247e-07
6.64392e-07
6.52082e-07
6.89861e-07
6.3724e-07
6.64028e-07
6.56862e-07
6.67006e-07
6.56852e-07
6.37246e-07
6.66991e-07
6.52061e-07
6.6436e-07
6.72465e-07
6.89845e-07
6.64379e-07
6.89858e-07
6.52055e-07
8.73581e-08
3.37494e-08
1.10042e-07
8.73618e-08
1.10033e-07
3.56197e-08
3.56198e-08
3.56193e-08
3.562e-08
6.3721e-07
6.66951e-07
6.5679e-07
6.63966e-07
6.6695e-07
6.37205e-07
6.56794e-07
6.52043e-07
6.89841e-07
6.7244e-07
6.64358e-07
6.89839e-07
6.64344e-07
6.52055e-07
6.52046e-07
6.64348e-07
6.89848e-07
6.72447e-07
6.89844e-07
6.52056e-07
6.64343e-07
6.37211e-07
6.63976e-07
6.66961e-07
6.56808e-07
6.66957e-07
6.56799e-07
6.37215e-07
8.28766e-08
6.82464e-08
9.72711e-08
9.80368e-08
9.72877e-08
9.80219e-08
8.28684e-08
8.28773e-08
6.8246e-08
9.7265e-08
9.80361e-08
9.72904e-08
9.80232e-08
8.28642e-08
3.56224e-08
3.56224e-08
8.75183e-08
3.36837e-08
1.10072e-07
8.7521e-08
1.10064e-07
3.56223e-08
3.56217e-08
8.75184e-08
3.36832e-08
1.10071e-07
8.75208e-08
1.10063e-07
3.56221e-08
3.56221e-08
3.56218e-08
3.56218e-08
8.27275e-08
6.80552e-08
9.80403e-08
9.7012e-08
9.80296e-08
8.27143e-08
9.70359e-08
8.27203e-08
6.8051e-08
9.80382e-08
9.70104e-08
9.80236e-08
8.27131e-08
9.70257e-08
3.56206e-08
3.56207e-08
8.73587e-08
3.37491e-08
1.10037e-07
8.73616e-08
1.10027e-07
3.5621e-08
3.5621e-08
6.37203e-07
6.56782e-07
6.66943e-07
6.63957e-07
6.56791e-07
6.37201e-07
6.6694e-07
6.52038e-07
6.8983e-07
6.72423e-07
6.64339e-07
6.64329e-07
6.89828e-07
6.5205e-07
6.5204e-07
6.64333e-07
6.72432e-07
6.89831e-07
6.64337e-07
6.89832e-07
6.52046e-07
6.37206e-07
6.6395e-07
6.56795e-07
6.66952e-07
6.56783e-07
6.66945e-07
6.37207e-07
6.37214e-07
6.56804e-07
6.63976e-07
6.66955e-07
6.66955e-07
6.56808e-07
6.3721e-07
6.52055e-07
6.89844e-07
6.72448e-07
6.64362e-07
6.89846e-07
6.52061e-07
6.6436e-07
6.52047e-07
6.64353e-07
6.7244e-07
6.8984e-07
6.8984e-07
6.64351e-07
6.52054e-07
6.37219e-07
6.63971e-07
6.66952e-07
6.56804e-07
6.37213e-07
6.66955e-07
6.56813e-07
8.73591e-08
3.37493e-08
1.10036e-07
8.73615e-08
1.10027e-07
3.56216e-08
3.56215e-08
3.56211e-08
3.56212e-08
8.28543e-08
6.82338e-08
9.72424e-08
9.80157e-08
9.72656e-08
9.80035e-08
8.28428e-08
8.28506e-08
6.82333e-08
9.72422e-08
9.80141e-08
9.72595e-08
9.80016e-08
8.28413e-08
8.26947e-08
6.80389e-08
9.80165e-08
9.69683e-08
9.79981e-08
8.26912e-08
9.69802e-08
8.27086e-08
6.80455e-08
9.80221e-08
9.6976e-08
9.80093e-08
8.26967e-08
9.70009e-08
8.73588e-08
3.37484e-08
1.1003e-07
8.7362e-08
1.10021e-07
3.56224e-08
3.56223e-08
3.56212e-08
3.56221e-08
6.3719e-07
6.66898e-07
6.63886e-07
6.56731e-07
6.56743e-07
6.66907e-07
6.37178e-07
6.52033e-07
6.89828e-07
6.64316e-07
6.72419e-07
6.64318e-07
6.52046e-07
6.89822e-07
6.372e-07
6.63917e-07
6.56763e-07
6.66931e-07
6.56774e-07
6.37202e-07
6.66922e-07
6.5203e-07
6.64297e-07
6.724e-07
6.89822e-07
6.64293e-07
6.89823e-07
6.52035e-07
8.73595e-08
3.37492e-08
1.10033e-07
8.73624e-08
1.10023e-07
3.56216e-08
3.56217e-08
3.5622e-08
3.56219e-08
6.37197e-07
6.66894e-07
6.56722e-07
6.6389e-07
6.66911e-07
6.37181e-07
6.56765e-07
6.52036e-07
6.89823e-07
6.72398e-07
6.64342e-07