/*--------------------------------*- C++ -*----------------------------------*\
| =========                 |                                                 |
| \\      /  F ield         | OpenFOAM: The Open Source CFD Toolbox           |
|  \\    /   O peration     | Version:  2012                                  |
|   \\  /    A nd           | Website:  www.openfoam.com                      |
|    \\/     M anipulation  |                                                 |
\*---------------------------------------------------------------------------*/
FoamFile
{
    version     2.0;
    format      ascii;
    class       volVectorField;
    location    "0.108/solid";
    object      D_0_0_0;
}
// * * * * * * * * * * * * * * * * * * * * * * * * * * * * * * * * * * * * * //

dimensions      [0 1 0 0 0 0 0];


internalField   nonuniform List<vector> 
3124
(
(2.12064e-11 6.34968e-11 4.70474e-11)
(1.0364e-11 -9.80107e-12 1.2241e-11)
(8.99891e-10 -1.56001e-10 4.64667e-11)
(7.0434e-12 -3.43357e-12 1.98522e-11)
(9.13754e-12 -1.91649e-13 1.24242e-11)
(8.34255e-12 -1.40672e-14 1.23332e-11)
(1.03435e-11 -6.24398e-12 1.06434e-11)
(3.28388e-12 4.54885e-11 6.32936e-11)
(1.10614e-10 2.58418e-10 2.81928e-11)
(4.93699e-10 -5.52243e-11 5.65453e-11)
(6.06199e-12 -3.02461e-12 2.13887e-11)
(8.38578e-10 3.41535e-11 6.02849e-11)
(1.16287e-11 2.42799e-11 6.37947e-11)
(-9.13013e-13 -2.22082e-12 5.17157e-11)
(4.74618e-10 2.81603e-11 6.63152e-11)
(1.22342e-10 2.61523e-10 5.48774e-12)
(3.32955e-12 -5.55348e-12 4.62336e-11)
(6.75855e-12 -4.55025e-13 3.18237e-11)
(8.37655e-12 -1.14051e-13 1.23461e-11)
(9.03158e-12 -6.71075e-14 1.24178e-11)
(5.72816e-12 -1.70999e-13 3.13481e-11)
(6.55193e-12 -3.33973e-13 3.17512e-11)
(5.67918e-12 -1.52931e-13 3.12654e-11)
(1.96694e-11 -8.666e-12 1.13574e-11)
(2.37336e-10 -7.10669e-12 1.07531e-10)
(8.56117e-11 -9.86303e-11 3.43882e-11)
(-1.33795e-10 5.24423e-10 7.02647e-11)
(3.03344e-11 4.15545e-11 3.54809e-11)
(4.69033e-11 1.72595e-10 1.09547e-10)
(2.75748e-11 6.92612e-10 2.25117e-10)
(3.40089e-11 2.61281e-11 2.70649e-11)
(6.17515e-11 1.30785e-10 7.97599e-11)
(1.16854e-12 -1.14791e-12 6.56999e-11)
(1.58955e-11 1.35487e-11 7.12663e-11)
(1.62971e-10 4.84807e-10 1.33524e-11)
(2.08768e-10 1.02884e-09 -1.91243e-11)
(5.09871e-13 -4.47574e-12 6.15478e-11)
(3.03694e-12 -3.96223e-12 5.01701e-11)
(-1.54633e-12 -4.3817e-13 4.00902e-11)
(-1.23402e-12 -6.97139e-13 4.1022e-11)
(-1.6052e-12 -3.35382e-13 3.98839e-11)
(-1.68868e-12 -9.71588e-14 3.95747e-11)
(9.62788e-12 -1.42469e-11 1.33281e-11)
(1.2999e-10 -1.39565e-10 3.84246e-11)
(1.05099e-10 -2.16761e-10 2.42175e-11)
(2.81474e-10 -8.68684e-11 1.11123e-10)
(2.01971e-10 -1.06412e-10 1.15886e-10)
(2.57613e-10 -2.17281e-10 4.34843e-11)
(4.29106e-09 -1.6485e-09 1.13762e-09)
(2.754e-10 -4.26798e-10 4.22835e-11)
(9.70592e-12 -1.10433e-12 1.29967e-11)
(9.59472e-12 -7.13213e-13 1.27995e-11)
(8.35717e-12 -9.12174e-14 1.22438e-11)
(8.37386e-12 7.94314e-15 1.22336e-11)
(1.31833e-11 5.73194e-12 9.21735e-12)
(9.74024e-11 -8.3371e-11 3.60695e-11)
(3.4819e-11 1.03477e-11 2.12937e-11)
(4.2145e-11 4.43296e-11 3.28116e-11)
(5.07654e-11 1.21565e-11 6.63751e-11)
(-4.51435e-11 9.82496e-10 1.33522e-11)
(2.23116e-11 3.51688e-11 3.45048e-11)
(-1.39145e-10 5.65833e-10 6.36896e-11)
(8.22811e-11 2.35416e-10 7.24479e-11)
(1.18776e-10 1.0236e-09 2.27112e-11)
(1.86637e-10 1.7996e-10 2.27219e-11)
(5.79156e-11 8.92666e-10 1.19972e-10)
(9.27214e-12 5.76466e-10 4.17434e-11)
(1.3243e-10 1.74568e-10 4.4468e-11)
(8.68065e-11 1.30662e-09 9.19193e-12)
(2.49415e-11 1.12124e-09 8.32962e-11)
(1.76337e-10 -1.20134e-10 4.33209e-11)
(8.86992e-11 7.6075e-12 6.35554e-11)
(3.55926e-11 1.73064e-11 3.71157e-11)
(1.30317e-10 4.84828e-11 1.62214e-11)
(7.13776e-11 4.94767e-11 2.38612e-11)
(1.68979e-11 2.71914e-11 2.60197e-11)
(4.50837e-09 -1.1022e-09 1.46677e-09)
(4.74648e-11 2.94693e-11 3.55167e-11)
(4.9266e-11 1.49448e-11 6.51784e-11)
(3.08949e-11 2.23699e-11 6.69503e-11)
(-1.56708e-13 -7.01552e-13 7.02172e-11)
(2.61686e-11 2.38998e-11 6.3457e-11)
(2.17511e-11 2.23602e-11 7.54303e-11)
(8.68951e-11 1.57672e-11 6.54881e-11)
(1.13586e-10 8.5087e-11 4.96176e-11)
(4.77256e-11 3.45797e-11 6.81452e-11)
(1.41074e-10 5.00321e-10 1.75757e-11)
(1.3888e-10 2.58306e-10 -7.5076e-12)
(1.35457e-10 1.01876e-09 8.09523e-12)
(2.00787e-10 1.8378e-10 5.86981e-12)
(3.46264e-12 5.90785e-10 3.85054e-11)
(1.92822e-10 1.02565e-09 -1.17366e-11)
(2.25892e-10 1.73688e-10 -7.64052e-12)
(1.60767e-10 4.7042e-11 -2.99807e-12)
(1.87285e-10 1.33062e-09 -1.31901e-11)
(1.08749e-10 1.29421e-09 3.2142e-12)
(1.71645e-10 1.32183e-09 -6.43084e-12)
(1.33165e-10 5.19075e-11 1.14207e-11)
(1.55468e-10 4.88843e-11 -1.98639e-12)
(-7.7184e-13 -5.01232e-12 6.60357e-11)
(6.946e-12 -2.53169e-12 3.32517e-11)
(1.80496e-12 -4.18739e-12 5.08957e-11)
(-1.30376e-13 -1.71066e-12 4.37423e-11)
(2.01765e-12 -3.46012e-12 4.82174e-11)
(7.1587e-12 -1.40257e-12 3.24729e-11)
(-8.19767e-13 -1.50196e-12 4.65525e-11)
(1.22861e-12 -2.87881e-12 4.95545e-11)
(8.57792e-12 -1.60107e-14 1.24217e-11)
(8.63094e-12 -1.1079e-13 1.24283e-11)
(-4.05538e-13 -1.32093e-12 4.30082e-11)
(-1.06519e-12 -8.10749e-13 4.14232e-11)
(-2.44262e-12 -3.95441e-13 4.36537e-11)
(5.97524e-12 -1.95877e-13 3.15924e-11)
(-2.13289e-12 -6.18837e-13 4.44448e-11)
(-1.17667e-12 -1.16068e-12 4.59652e-11)
(6.08012e-12 -1.87346e-13 3.16436e-11)
(-1.94163e-12 -6.84862e-13 4.47482e-11)
(-2.49859e-12 -3.30709e-13 4.34692e-11)
(5.69262e-12 -8.0462e-14 3.10991e-11)
(-2.5664e-12 -8.34642e-14 4.31954e-11)
(-1.68962e-12 -1.25544e-14 3.95862e-11)
(5.73974e-12 -6.70301e-14 3.10746e-11)
(-2.56285e-12 -3.47534e-14 4.32112e-11)
(2.01747e-10 1.23817e-12 1.5404e-10)
(8.21647e-11 3.49805e-11 2.89351e-11)
(9.9291e-13 -8.45819e-13 5.0896e-11)
(1.84999e-12 1.04536e-12 5.23166e-11)
(1.37524e-12 -2.86101e-12 4.83825e-11)
(2.01807e-12 -2.63417e-12 4.53962e-11)
(-1.54714e-12 -3.74362e-13 3.05615e-11)
(-1.49084e-12 -4.73062e-13 3.08329e-11)
(-1.59216e-12 -2.99586e-13 3.03541e-11)
(-1.6388e-12 -2.17236e-13 3.01969e-11)
(9.1043e-11 -1.87628e-10 1.48514e-10)
(9.88115e-12 -1.2903e-11 1.3288e-11)
(2.91199e-11 -3.41077e-11 2.42429e-11)
(1.44584e-11 -2.03021e-11 4.89774e-11)
(9.86097e-11 -1.3325e-10 1.34302e-10)
(3.02014e-11 -4.60312e-11 2.50674e-11)
(1.17094e-11 -2.63358e-11 5.92585e-11)
(3.31543e-09 -2.03762e-09 7.77269e-10)
(2.30648e-09 -3.86167e-10 3.30544e-10)
(7.21828e-10 -2.93407e-10 5.54786e-11)
(1.75029e-09 -4.01687e-10 -8.36192e-12)
(1.53772e-09 -6.72836e-10 5.12842e-10)
(5.78605e-09 -9.80799e-10 1.06656e-09)
(1.2411e-09 -6.04864e-10 3.75283e-11)
(5.30122e-12 -2.29913e-13 1.47969e-12)
(9.83492e-12 -2.95539e-12 1.54398e-11)
(9.53207e-12 -2.59279e-13 7.60228e-13)
(9.4269e-12 -2.19142e-13 1.24828e-11)
(8.44347e-12 -2.96451e-14 5.75512e-13)
(8.97298e-12 -4.96875e-14 5.46615e-13)
(7.32562e-12 -9.79684e-15 6.0479e-13)
(8.3489e-12 -1.04719e-13 1.23115e-11)
(7.39432e-12 -7.09414e-15 5.78965e-13)
(8.51449e-12 -2.69267e-15 1.22073e-11)
(7.66281e-12 -8.40253e-15 5.37856e-13)
(7.80773e-11 -4.47728e-11 6.87666e-11)
(1.03449e-11 -2.38906e-12 9.05441e-12)
(2.5888e-11 -2.21034e-11 2.05381e-11)
(1.48395e-11 -1.76985e-11 4.47617e-11)
(9.65488e-11 -1.11741e-10 1.16629e-10)
(2.37079e-11 -1.19564e-11 1.60854e-11)
(1.52098e-11 -7.17356e-12 3.10168e-11)
(9.23562e-11 1.47712e-10 2.79949e-10)
(8.09162e-12 3.07078e-11 7.02515e-11)
(9.0485e-12 8.08898e-11 2.25075e-10)
(-6.39765e-12 4.56395e-11 6.81078e-11)
(5.20333e-10 -1.43098e-10 2.66116e-10)
(1.52524e-09 -1.42859e-10 5.12964e-10)
(4.16023e-10 -1.26583e-10 5.62392e-11)
(2.69673e-10 -1.565e-11 6.35417e-11)
(1.17539e-09 -4.62537e-10 4.17214e-10)
(6.29548e-10 -1.71162e-11 3.57228e-10)
(2.4044e-10 -5.21403e-11 5.36192e-11)
(3.04262e-12 -1.6805e-13 1.64362e-12)
(-1.5387e-12 -5.20659e-14 2.57694e-11)
(-1.07124e-11 -1.58414e-13 3.56681e-12)
(2.75072e-09 7.75936e-10 8.42865e-10)
(2.0331e-09 -7.8026e-12 5.75677e-10)
(1.54111e-09 2.21141e-11 1.84002e-11)
(6.32226e-10 1.46664e-10 7.46538e-11)
(5.07821e-09 -2.20214e-10 1.0288e-09)
(1.32043e-09 4.18596e-10 4.80691e-10)
(9.91689e-10 1.76969e-10 9.86109e-11)
(-2.04256e-12 -7.3424e-13 6.34296e-11)
(-5.26158e-12 4.0936e-12 5.61883e-11)
(-1.92459e-12 6.30958e-12 6.59504e-11)
(5.54388e-10 1.44691e-10 2.51326e-10)
(1.50669e-09 2.09406e-11 5.02522e-10)
(2.67369e-10 2.26398e-11 6.87125e-11)
(3.72706e-10 9.24098e-11 6.8657e-11)
(6.18665e-10 3.56061e-11 3.65484e-10)
(1.03695e-09 3.16204e-10 4.15332e-10)
(2.21026e-10 5.10364e-11 6.43718e-11)
(-1.62526e-13 -5.42908e-12 5.91892e-11)
(5.74154e-12 -5.92609e-12 4.00638e-11)
(1.62873e-12 -6.94273e-12 5.28203e-11)
(-7.60218e-13 -1.36032e-12 3.41248e-11)
(-6.81438e-13 -1.93071e-12 3.48969e-11)
(6.9799e-12 -6.25744e-13 3.19669e-11)
(1.43432e-12 -6.89266e-13 4.31518e-11)
(1.74955e-12 -9.00017e-13 4.33644e-11)
(7.35579e-12 -1.02581e-14 6.00442e-13)
(8.46814e-12 -2.25761e-14 1.23978e-11)
(7.5173e-12 -1.17944e-14 5.80328e-13)
(8.26883e-12 -2.5696e-14 5.92724e-13)
(8.86376e-12 -1.30656e-13 1.24368e-11)
(8.05381e-12 -1.72996e-14 5.7599e-13)
(-8.51994e-13 -1.10105e-12 3.35446e-11)
(-9.74807e-13 -9.5939e-13 3.2985e-11)
(2.48874e-13 -2.46274e-13 4.21455e-11)
(5.77624e-12 -1.80297e-13 3.144e-11)
(3.0417e-13 -2.88364e-13 4.22727e-11)
(1.17298e-12 -5.41335e-13 4.30084e-11)
(6.35472e-12 -2.69317e-13 3.1716e-11)
(9.55995e-13 -4.46301e-13 4.28716e-11)
(2.11805e-13 -2.28778e-13 4.20198e-11)
(5.64165e-12 -1.32502e-13 3.12062e-11)
(1.88334e-13 -1.74749e-13 4.191e-11)
(-1.64777e-12 4.1615e-14 3.01882e-11)
(5.86412e-12 -7.9856e-14 3.1059e-11)
(3.01096e-13 -3.92231e-14 4.18863e-11)
(1.26111e-10 -2.89247e-11 8.29073e-11)
(4.092e-11 2.9606e-11 1.58231e-11)
(3.57605e-11 -2.86596e-11 1.87015e-11)
(3.61091e-11 -2.89154e-11 5.36719e-11)
(8.11041e-11 -1.38452e-10 1.22938e-10)
(7.70921e-11 7.29492e-12 2.34087e-11)
(6.96918e-11 2.62826e-11 6.2791e-11)
(2.43849e-10 -2.66291e-11 1.55817e-10)
(6.35102e-10 -2.83241e-11 2.83521e-10)
(2.21362e-10 -3.81249e-11 4.04919e-11)
(4.7805e-10 -1.43088e-10 1.98062e-10)
(8.35432e-11 1.5124e-11 2.11847e-11)
(1.95606e-10 -6.17681e-11 1.33881e-10)
(1.88465e-10 -3.67263e-10 1.30484e-10)
(5.05804e-11 -6.41855e-11 2.3638e-11)
(1.54927e-10 -1.15316e-11 4.36595e-11)
(1.00107e-10 -1.95487e-10 1.4316e-10)
(4.00977e-10 -1.45873e-10 1.97401e-10)
(9.11182e-11 -2.19282e-11 2.656e-11)
(7.64324e-11 3.07758e-10 1.49828e-10)
(-2.73616e-11 7.30534e-10 1.33247e-10)
(-1.2878e-10 3.49487e-10 2.49101e-11)
(9.71772e-11 3.75319e-10 9.16947e-11)
(8.38656e-11 2.25648e-10 1.11543e-10)
(-3.42366e-11 5.2705e-10 1.59437e-10)
(8.89941e-11 5.12533e-10 1.14689e-10)
(7.19713e-11 1.60974e-10 1.22871e-10)
(1.13449e-10 6.32906e-11 9.77706e-11)
(3.34149e-11 2.38254e-11 2.76389e-11)
(2.57142e-11 5.24179e-11 3.46771e-11)
(9.52009e-11 8.96167e-11 9.04197e-11)
(4.97051e-11 2.07728e-10 1.10199e-10)
(2.93952e-11 4.35154e-11 3.69308e-11)
(5.93113e-12 1.72436e-12 5.62859e-11)
(4.1544e-12 4.05339e-12 5.31256e-11)
(2.15542e-12 -1.14379e-12 5.92937e-11)
(2.98395e-12 3.24961e-12 6.85524e-11)
(3.27971e-12 2.05595e-12 6.14808e-11)
(1.15033e-11 6.44052e-12 6.46663e-11)
(7.13914e-12 1.01179e-11 7.00561e-11)
(6.11835e-12 6.65767e-12 6.25485e-11)
(2.52207e-10 8.43392e-10 -1.2043e-11)
(4.08577e-10 3.82535e-10 -1.14711e-11)
(3.49239e-10 6.01259e-10 -1.91888e-11)
(1.81794e-12 -3.78374e-12 5.56476e-11)
(9.20164e-13 -5.34704e-12 5.66543e-11)
(1.97062e-12 -3.85649e-12 5.15946e-11)
(1.62115e-12 -3.76367e-12 4.27877e-11)
(2.38186e-12 -2.40049e-12 4.46405e-11)
(2.43612e-12 -4.80497e-12 5.27897e-11)
(3.18054e-12 -3.78501e-12 4.78552e-11)
(3.14046e-12 -3.31696e-12 4.96574e-11)
(-1.31462e-12 -6.45034e-13 3.15279e-11)
(-1.41509e-12 -5.47592e-13 3.11511e-11)
(-8.80212e-13 -4.27155e-13 3.57881e-11)
(-1.45146e-12 -5.3902e-13 4.03729e-11)
(-8.09324e-13 -5.30219e-13 3.60828e-11)
(-6.02873e-13 -7.05814e-13 3.67778e-11)
(-1.35333e-12 -6.05526e-13 4.0683e-11)
(-7.19265e-13 -6.06155e-13 3.64098e-11)
(-9.34014e-13 -3.2761e-13 3.55731e-11)
(-1.6328e-12 -2.51861e-13 3.97469e-11)
(-9.77928e-13 -2.43517e-13 3.54291e-11)
(-1.6776e-12 -6.60895e-14 3.00201e-11)
(-1.66661e-12 -1.60418e-13 3.00839e-11)
(-1.66036e-12 -1.83617e-13 3.96429e-11)
(-1.02347e-12 -8.75234e-14 3.52434e-11)
(-1.00828e-12 -1.78404e-13 3.53178e-11)
(8.29144e-11 -1.94391e-10 1.46311e-10)
(9.19189e-12 -1.43681e-11 1.28901e-11)
(2.71216e-11 -4.58537e-11 2.06102e-11)
(2.06087e-11 -3.82405e-11 6.05239e-11)
(7.13014e-11 -1.6342e-10 1.28496e-10)
(2.79131e-11 -5.14393e-11 2.32786e-11)
(1.0671e-11 -2.69625e-11 6.05137e-11)
(1.34014e-10 -2.66001e-10 1.65927e-10)
(6.35007e-11 -7.9264e-11 3.20189e-11)
(3.84378e-10 -3.99849e-10 2.38997e-10)
(1.50909e-10 -2.06233e-10 3.34146e-11)
(4.5951e-10 -6.95274e-10 2.52632e-10)
(1.388e-10 -1.8285e-10 1.57255e-10)
(6.83681e-11 -1.08667e-10 3.04956e-11)
(1.22077e-10 -2.77955e-10 1.64001e-10)
(2.77929e-10 -7.04849e-10 2.02905e-10)
(4.81993e-11 -1.07664e-10 2.41197e-11)
(1.37702e-10 -2.41664e-10 2.71602e-11)
(9.28898e-11 -2.34654e-10 1.47374e-10)
(4.34909e-10 -7.67284e-10 2.51134e-10)
(6.0422e-11 -1.23088e-10 2.6661e-11)
(7.63845e-10 -7.56803e-11 2.88415e-10)
(1.97923e-10 -4.66027e-11 2.9918e-11)
(6.34247e-10 -1.83391e-10 2.40829e-10)
(8.40492e-10 -2.54892e-10 6.05856e-10)
(4.88322e-09 -4.6047e-09 3.38349e-09)
(3.71457e-10 -7.54657e-10 2.77648e-10)
(4.21027e-10 -6.53087e-11 1.21409e-10)
(7.12298e-10 -2.02081e-10 5.25551e-10)
(6.26719e-10 -1.69113e-10 2.10177e-10)
(2.23649e-09 -2.90911e-09 1.63189e-09)
(2.24773e-09 -1.73299e-09 5.79861e-10)
(4.47906e-10 -2.77576e-10 5.19083e-11)
(5.28069e-10 -4.86125e-10 2.74959e-10)
(3.15608e-10 -3.34509e-10 3.95803e-11)
(6.98079e-10 -9.27799e-10 3.19791e-10)
(1.23472e-09 -6.85381e-10 4.36699e-10)
(6.47169e-10 -4.88982e-10 4.43814e-11)
(4.07858e-09 -2.83516e-09 9.80902e-10)
(3.27069e-09 -1.0441e-09 -7.65027e-11)
(2.98313e-08 -1.0415e-08 -1.30023e-12)
(2.4309e-09 -2.03037e-09 4.16069e-10)
(5.77197e-09 -5.41377e-09 2.31916e-09)
(8.13731e-09 -1.54468e-09 1.56305e-09)
(1.76771e-09 -1.17446e-09 6.10194e-11)
(2.163e-09 -2.21008e-09 3.4488e-10)
(4.26042e-10 -9.68574e-10 2.82996e-10)
(3.20737e-10 -4.47219e-10 2.85392e-11)
(8.50601e-10 -9.46706e-10 1.19137e-10)
(6.86158e-10 -1.06482e-09 3.20327e-10)
(2.90572e-09 -3.72684e-09 1.20409e-09)
(7.80597e-10 -7.90388e-10 4.85856e-11)
(9.45709e-12 -2.33975e-12 1.45387e-11)
(9.72099e-12 -1.3869e-13 6.14247e-13)
(9.57582e-12 -2.54733e-13 7.78775e-13)
(9.52599e-12 -3.93224e-13 1.25269e-11)
(9.52964e-12 -1.13162e-13 6.04356e-13)
(9.17548e-12 -5.92014e-14 5.4484e-13)
(8.34486e-12 -2.63047e-15 1.22991e-11)
(7.37175e-12 -5.41056e-15 5.87251e-13)
(7.40661e-12 -7.35965e-15 5.74434e-13)
(8.48068e-12 -9.59313e-14 1.22189e-11)
(7.40234e-12 -5.3054e-15 5.82341e-13)
(7.60925e-12 -6.69863e-15 5.46198e-13)
(1.30995e-10 2.47216e-10 8.10827e-11)
(9.20859e-11 1.20485e-10 9.06236e-11)
(9.21937e-11 -3.57365e-11 5.28089e-11)
(1.1588e-11 1.65994e-12 8.34041e-12)
(2.73622e-11 1.17889e-11 1.81479e-11)
(2.19484e-11 1.60602e-11 2.96665e-11)
(8.39174e-11 2.51193e-11 6.95413e-11)
(2.57967e-11 -2.25873e-12 1.44121e-11)
(9.53895e-12 5.3138e-12 1.99454e-11)
(9.8787e-11 -6.24186e-11 7.28873e-11)
(5.1051e-11 -4.99109e-11 2.79276e-11)
(3.38078e-10 -3.1443e-10 2.16628e-10)
(6.74224e-11 -4.06679e-11 2.97336e-11)
(1.32365e-10 -1.51572e-10 1.38415e-10)
(1.92798e-10 -1.23357e-10 1.49304e-10)
(3.96819e-11 -2.59473e-11 2.06228e-11)
(9.88311e-11 -3.62098e-11 5.2322e-11)
(7.69859e-11 5.09162e-11 5.55247e-11)
(3.72003e-11 7.69954e-12 1.95308e-11)
(4.51638e-11 -9.32684e-12 2.37448e-11)
(9.60723e-11 6.70773e-11 7.92268e-11)
(1.50256e-10 -7.6785e-11 1.28022e-10)
(3.49954e-11 -7.47087e-12 1.58332e-11)
(1.32353e-10 1.28826e-10 6.48974e-11)
(3.27506e-11 3.49032e-11 4.07417e-11)
(1.11226e-10 9.28629e-11 8.08035e-11)
(-1.8719e-10 9.93491e-10 6.56934e-11)
(-5.87714e-11 5.22114e-10 1.60162e-10)
(-4.28646e-11 1.57658e-10 2.84876e-10)
(7.99966e-11 8.91227e-11 3.20059e-10)
(2.74086e-11 5.02202e-11 4.35781e-11)
(-4.61322e-12 2.74136e-10 1.64483e-10)
(-4.01518e-12 5.67322e-11 4.91307e-11)
(7.0881e-11 9.71504e-11 3.07865e-10)
(2.69709e-11 1.61074e-11 6.99158e-11)
(1.51393e-10 2.88232e-11 2.63306e-10)
(4.66824e-11 1.88413e-11 6.77733e-11)
(1.21878e-10 3.0994e-11 2.73756e-10)
(7.13239e-11 4.5509e-11 2.11534e-10)
(2.2996e-11 3.41964e-11 7.30156e-11)
(-1.28245e-10 1.02753e-09 7.69796e-11)
(1.32202e-11 3.17659e-10 1.51435e-10)
(-4.94605e-11 5.13224e-10 1.86063e-10)
(2.99681e-11 1.53518e-10 3.10669e-10)
(5.19196e-11 1.00411e-10 3.8989e-11)
(2.3632e-11 3.98933e-11 3.50662e-11)
(2.822e-11 3.73682e-11 5.60246e-11)
(3.6401e-11 1.63112e-10 1.9757e-10)
(1.03745e-10 3.25092e-11 2.79162e-10)
(1.23478e-11 5.74813e-11 5.48223e-11)
(1.77495e-10 6.27099e-10 6.24728e-11)
(-1.54013e-12 8.4461e-10 8.26249e-11)
(-5.45199e-11 5.77455e-10 6.7852e-11)
(1.42691e-10 4.18644e-10 7.5097e-11)
(1.20481e-10 5.74996e-10 9.70059e-11)
(4.71899e-11 8.97532e-10 5.90827e-11)
(2.1638e-10 4.37924e-10 4.64662e-11)
(2.2071e-10 6.39673e-10 4.57231e-11)
(-2.12184e-11 5.64821e-10 6.14613e-11)
(1.13194e-10 9.19181e-10 3.30712e-11)
(2.98037e-10 4.4132e-10 4.56003e-11)
(9.13429e-11 9.14488e-10 4.2247e-11)
(2.77942e-10 4.31751e-10 4.34323e-11)
(2.45066e-10 6.46777e-10 3.52817e-11)
(-1.71309e-10 1.05761e-09 4.45485e-11)
(-1.24285e-10 1.13684e-09 3.99556e-11)
(6.70992e-11 1.298e-09 2.40041e-11)
(-8.77092e-12 1.21244e-09 1.95983e-11)
(-4.48587e-11 1.21032e-09 3.41693e-11)
(-1.04326e-10 1.08784e-09 6.35492e-11)
(4.16412e-11 1.25485e-09 3.67174e-11)
(-5.98412e-11 1.19498e-09 3.9617e-11)
(-7.07197e-11 1.1458e-09 2.69771e-11)
(-1.06574e-10 1.1462e-09 3.48767e-11)
(4.5163e-10 -1.60558e-10 2.53063e-10)
(2.89103e-10 -1.43151e-10 4.87857e-11)
(4.52849e-10 -3.73621e-10 2.47862e-10)
(1.14906e-10 -5.70726e-11 4.04982e-11)
(9.73891e-10 -4.86928e-10 3.56442e-10)
(2.42766e-10 -1.41764e-10 1.85374e-10)
(1.78036e-10 -6.59789e-11 4.69244e-11)
(3.94732e-10 -9.05018e-11 2.57115e-10)
(1.53506e-10 1.31484e-12 6.22133e-11)
(1.96972e-10 2.50381e-11 2.64982e-10)
(8.1228e-11 3.16686e-12 6.18482e-11)
(1.6439e-10 7.08716e-12 2.65307e-10)
(4.7045e-10 -1.7048e-12 3.15685e-10)
(1.39458e-10 -1.63714e-11 5.63958e-11)
(3.44643e-10 -1.03256e-10 2.46654e-10)
(6.588e-11 5.37129e-11 1.20964e-10)
(6.98701e-11 -1.38507e-11 3.94808e-11)
(6.10417e-11 1.02369e-11 5.56039e-11)
(1.86644e-10 -8.99278e-11 1.67275e-10)
(1.39486e-10 6.33353e-12 2.67107e-10)
(1.07719e-10 -2.06119e-11 5.08635e-11)
(1.62739e-10 2.5947e-10 7.45809e-11)
(2.99608e-10 2.48867e-10 4.62986e-11)
(4.07206e-10 1.15038e-10 3.98369e-11)
(1.19843e-10 4.69804e-11 1.36954e-11)
(3.89606e-10 1.07199e-10 3.42943e-11)
(3.6947e-10 2.54012e-10 4.89258e-11)
(3.42172e-10 2.40038e-10 4.40689e-11)
(2.10946e-10 1.44937e-10 5.70684e-11)
(9.89448e-11 4.80749e-11 1.63855e-11)
(3.1037e-10 1.26413e-10 3.87942e-11)
(-2.34223e-12 2.50275e-12 2.70509e-11)
(-2.20256e-11 -8.27267e-12 1.28568e-11)
(-1.61828e-11 3.99582e-13 4.51475e-12)
(3.4318e-09 7.61627e-10 1.06808e-09)
(2.78201e-09 -1.75017e-10 1.59137e-10)
(1.78674e-08 -3.76623e-09 2.29594e-09)
(2.22327e-09 -6.78208e-10 9.03189e-10)
(7.35831e-09 3.85154e-11 1.18314e-09)
(6.62856e-09 -1.19441e-09 2.65208e-09)
(1.66283e-09 6.65391e-11 2.40674e-10)
(2.129e-09 8.62821e-10 6.50669e-10)
(2.23234e-10 6.08817e-11 2.26381e-11)
(1.58388e-11 2.59474e-11 1.71679e-11)
(1.08964e-09 4.50037e-10 4.50271e-10)
(3.53419e-10 6.8157e-11 3.24045e-11)
(2.59559e-09 8.46994e-10 7.91742e-10)
(1.57355e-09 -5.41553e-10 6.64845e-10)
(4.37779e-09 -6.78358e-10 1.66978e-09)
(4.53607e-10 6.00411e-11 4.86809e-11)
(4.35635e-11 5.3798e-11 2.33432e-10)
(1.9822e-11 9.91637e-12 5.43157e-11)
(1.72941e-11 2.04476e-11 6.02273e-11)
(5.9577e-11 5.41952e-11 2.39515e-10)
(1.96716e-11 1.49327e-11 6.16734e-11)
(3.91454e-11 2.23729e-11 6.56932e-11)
(1.12867e-10 6.60427e-11 2.62342e-10)
(2.26299e-11 1.98648e-11 6.31038e-11)
(-9.00313e-13 -3.46824e-13 6.96664e-11)
(2.19199e-12 4.93589e-12 7.31269e-11)
(1.0956e-12 6.43611e-12 7.22765e-11)
(-1.08345e-12 2.2246e-11 5.69614e-11)
(2.9587e-11 3.8814e-11 6.922e-11)
(3.97843e-12 2.04872e-11 6.71436e-11)
(8.228e-12 1.43286e-11 7.4881e-11)
(2.76796e-11 3.13711e-11 7.46879e-11)
(8.34081e-12 1.83687e-11 7.38914e-11)
(3.22115e-10 9.38444e-11 2.37345e-10)
(1.52007e-10 1.87665e-11 6.69828e-11)
(2.12912e-10 3.5987e-11 2.15892e-10)
(7.64057e-11 2.43453e-11 6.52581e-11)
(4.66168e-10 3.61416e-11 3.31906e-10)
(1.8778e-10 6.8959e-11 2.10308e-10)
(1.30335e-10 3.31259e-11 6.55032e-11)
(4.17426e-10 1.52692e-10 2.92697e-10)
(2.78633e-10 1.31322e-10 6.12237e-11)
(7.99713e-11 7.68168e-11 5.68249e-11)
(8.59903e-10 3.0712e-10 4.15075e-10)
(1.60606e-10 6.99589e-11 5.82199e-11)
(3.12375e-10 1.25632e-10 3.08623e-10)
(6.54454e-11 2.9408e-11 6.57692e-11)
(6.89659e-11 5.1595e-11 6.50446e-11)
(1.49744e-10 7.34007e-11 2.65403e-10)
(1.06515e-10 4.1989e-11 6.41036e-11)
(2.92962e-10 6.23405e-10 -8.12796e-12)
(7.53537e-11 5.45831e-10 2.91339e-11)
(2.20551e-10 8.55373e-10 -6.36109e-12)
(3.76378e-10 3.98843e-10 -1.06359e-11)
(3.24758e-10 6.08263e-10 -1.52178e-11)
(1.85899e-10 8.70264e-10 -1.68663e-12)
(3.37935e-10 4.2287e-10 -6.92371e-13)
(2.67375e-10 6.34359e-10 2.69083e-12)
(5.07405e-11 5.6368e-10 3.21444e-11)
(1.2556e-10 9.0904e-10 1.7707e-11)
(2.93362e-10 4.50713e-10 3.46688e-11)
(2.51078e-10 6.44694e-10 2.02192e-11)
(1.51276e-10 8.88662e-10 7.97158e-12)
(3.07761e-10 4.41275e-10 9.54098e-12)
(4.60561e-10 2.18246e-10 -3.44007e-12)
(4.72239e-10 1.06844e-10 -5.47293e-12)
(5.63182e-11 1.07096e-09 -2.04632e-12)
(1.08052e-10 1.16811e-09 -6.20282e-12)
(4.36488e-11 1.07446e-09 1.60647e-12)
(1.27064e-12 1.08988e-09 9.42711e-12)
(2.21838e-12 1.2038e-09 1.55493e-11)
(1.30633e-10 1.29013e-09 1.32937e-12)
(4.42306e-11 1.17545e-09 7.21901e-12)
(-6.00967e-11 1.13728e-09 2.15121e-11)
(-1.45182e-11 1.09776e-09 1.35984e-11)
(9.70981e-11 1.16904e-09 -3.79673e-12)
(1.521e-10 1.30371e-09 -9.2562e-13)
(5.86626e-11 1.1713e-09 4.47727e-12)
(4.44666e-10 2.25708e-10 -2.6981e-12)
(3.84041e-10 2.58864e-10 8.95536e-12)
(3.76898e-10 1.4375e-10 3.04195e-11)
(1.40353e-10 5.27386e-11 3.95125e-12)
(3.92377e-10 1.45452e-10 1.21748e-11)
(3.56418e-10 2.66654e-10 4.36724e-11)
(3.69491e-10 2.66533e-10 1.27482e-11)
(4.48164e-10 1.1856e-10 -3.66072e-12)
(1.47428e-10 5.13651e-11 7.80642e-13)
(4.17468e-10 1.34608e-10 4.2288e-12)
(-5.74925e-13 -5.28278e-12 6.56247e-11)
(-2.21401e-15 -6.80339e-12 6.01685e-11)
(5.56474e-13 -7.40523e-12 5.92597e-11)
(6.59205e-12 -4.3472e-12 3.55615e-11)
(2.35326e-12 -3.20813e-12 4.43911e-11)
(2.28833e-12 -5.58784e-12 4.72281e-11)
(1.29291e-12 -6.20796e-12 5.44538e-11)
(1.38537e-12 -3.97908e-12 4.93698e-11)
(1.32094e-12 -6.5158e-12 5.29725e-11)
(3.25807e-13 -3.98859e-12 3.91137e-11)
(-4.35347e-13 -2.90486e-12 3.62941e-11)
(1.60482e-13 -1.65594e-12 3.96483e-11)
(2.43308e-13 -2.28693e-12 4.48076e-11)
(3.48091e-13 -2.29263e-12 4.06874e-11)
(1.80833e-12 -3.95805e-12 4.4998e-11)
(8.80999e-13 -2.94082e-12 4.63305e-11)
(7.65219e-13 -3.19119e-12 4.23566e-11)
(7.14809e-12 -9.04925e-13 3.21616e-11)
(2.31618e-12 -1.71128e-12 4.37636e-11)
(2.09321e-12 -1.1738e-12 4.35884e-11)
(-5.44842e-13 -1.11107e-12 4.68507e-11)
(-3.39522e-13 -1.95585e-12 4.74042e-11)
(-7.61499e-14 -1.43123e-12 4.73585e-11)
(1.07949e-12 -2.31326e-12 4.84284e-11)
(3.5043e-13 -2.40319e-12 4.84997e-11)
(5.1914e-13 -1.76768e-12 4.79525e-11)
(8.50341e-12 -1.23933e-13 1.24119e-11)
(7.59714e-12 -1.29202e-14 6.14442e-13)
(7.54695e-12 -1.1806e-14 5.82065e-13)
(8.79992e-12 -2.05029e-14 1.24353e-11)
(7.67698e-12 -1.27637e-14 6.05806e-13)
(7.96301e-12 -1.57498e-14 5.79482e-13)
(-1.2122e-12 -7.35733e-13 3.19521e-11)
(-1.09682e-12 -8.64368e-13 3.24407e-11)
(1.07851e-14 -1.29174e-12 3.8922e-11)
(-6.42788e-13 -1.09593e-12 4.24263e-11)
(-1.54638e-13 -1.09333e-12 3.83083e-11)
(-4.71486e-13 -8.23212e-13 3.72166e-11)
(-8.61717e-13 -9.50604e-13 4.18963e-11)
(-3.20765e-13 -9.64066e-13 3.77338e-11)
(-2.07748e-12 -3.30398e-13 4.4953e-11)
(-2.34036e-12 -4.83262e-13 4.38702e-11)
(-2.01685e-12 -3.98011e-13 4.51174e-11)
(5.85036e-12 -2.01259e-13 3.15256e-11)
(4.91757e-13 -3.3858e-13 4.2614e-11)
(3.82604e-13 -3.22533e-13 4.2426e-11)
(-2.24132e-12 -5.55459e-13 4.41396e-11)
(-1.81445e-12 -4.89429e-13 4.55886e-11)
(-1.92523e-12 -4.56507e-13 4.53327e-11)
(-9.03741e-13 -8.6657e-13 4.64994e-11)
(-1.45723e-12 -9.5619e-13 4.55046e-11)
(-1.18004e-12 -7.14802e-13 4.62076e-11)
(6.19561e-12 -2.10998e-13 3.16772e-11)
(6.11992e-13 -2.70118e-13 4.26972e-11)
(7.62789e-13 -3.66299e-13 4.27437e-11)
(-1.70316e-12 -8.12361e-13 4.50929e-11)
(-1.64229e-12 -4.77334e-13 4.57686e-11)
(-1.41619e-12 -5.95847e-13 4.59457e-11)
(-2.12438e-12 -2.93104e-13 4.47972e-11)
(-2.51245e-12 -2.52829e-13 4.33157e-11)
(-2.161e-12 -2.24554e-13 4.46554e-11)
(5.64665e-12 -9.95088e-14 3.11522e-11)
(1.98069e-13 -6.9417e-14 4.18219e-11)
(1.83539e-13 -1.24839e-13 4.18438e-11)
(-2.53354e-12 -1.65037e-13 4.32225e-11)
(-2.16393e-12 -7.66725e-14 4.456e-11)
(-2.17437e-12 -1.47601e-13 4.45749e-11)
(-1.67839e-12 -6.86632e-15 3.00256e-11)
(-1.67502e-12 4.61624e-14 3.00851e-11)
(-1.6293e-12 1.09826e-14 3.97757e-11)
(-9.79833e-13 2.73772e-14 3.54439e-11)
(-1.02246e-12 -5.65538e-15 3.52516e-11)
(-1.65777e-12 2.6507e-14 3.96671e-11)
(-1.0088e-12 3.89191e-14 3.53332e-11)
(5.78661e-12 -7.15499e-14 3.10678e-11)
(2.21192e-13 -5.75721e-14 4.18229e-11)
(2.56632e-13 -3.34048e-14 4.18378e-11)
(-2.48986e-12 9.61421e-15 4.33509e-11)
(-2.09989e-12 -8.26285e-15 4.46668e-11)
(-2.14667e-12 -5.02145e-14 4.45692e-11)
(-2.51703e-12 -6.34631e-16 4.32511e-11)
(-2.1332e-12 -1.89575e-14 4.45882e-11)
(-2.74072e-12 -2.47166e-12 3.30527e-11)
(9.61988e-12 -2.86434e-12 1.41795e-11)
(-1.33734e-11 -4.00143e-12 7.2107e-11)
(8.78732e-12 -3.49078e-12 1.81458e-11)
(-7.69905e-12 -2.49309e-12 3.76176e-11)
(-7.91396e-12 -3.94329e-12 6.51091e-11)
(1.12603e-11 -2.76179e-12 1.2769e-11)
(4.00412e-12 -1.80934e-13 2.12463e-11)
(-7.80127e-13 -2.60473e-13 4.76772e-11)
(9.2166e-12 -1.41493e-13 1.24561e-11)
(1.14947e-11 -9.38008e-14 8.22243e-12)
(-7.15557e-13 -3.58483e-13 4.79907e-11)
(3.84631e-12 -1.75867e-13 2.1028e-11)
(1.16318e-11 -3.41541e-14 8.25235e-12)
(2.57669e-12 -7.78287e-14 2.10299e-11)
(1.05666e-11 4.9444e-15 8.19521e-12)
(-2.02447e-12 -1.07201e-13 4.72739e-11)
(8.33876e-12 -8.59281e-14 1.23494e-11)
(2.55313e-12 -4.33127e-14 2.09078e-11)
(-2.03267e-12 -5.8785e-14 4.73474e-11)
(1.05881e-11 -7.61883e-14 8.21255e-12)
(-1.78162e-11 -2.06955e-12 4.5638e-11)
(8.11329e-12 -2.98655e-12 1.54815e-11)
(-1.61679e-11 -2.78601e-12 7.54528e-11)
(3.35446e-12 -2.52048e-12 2.30577e-11)
(-1.07224e-11 -2.14277e-12 4.01393e-11)
(-2.28156e-11 -2.34564e-12 8.11898e-11)
(5.01663e-12 -2.98529e-12 1.7161e-11)
(3.5128e-11 5.36348e-11 1.86038e-10)
(6.09138e-12 2.03612e-11 6.02218e-11)
(3.59804e-11 7.08705e-11 1.7444e-10)
(1.85859e-11 1.9291e-11 6.42126e-11)
(5.21489e-11 4.31862e-11 1.90984e-10)
(2.20433e-11 4.77754e-11 1.7826e-10)
(1.24771e-11 1.74374e-11 6.12629e-11)
(2.63765e-12 -4.04802e-14 2.11045e-11)
(1.06018e-11 -7.10273e-14 8.19757e-12)
(-1.9717e-12 -8.79101e-14 4.72884e-11)
(8.39432e-12 -4.21878e-14 1.2389e-11)
(2.61161e-12 -6.92241e-14 2.08854e-11)
(-2.01202e-12 -1.38806e-13 4.75676e-11)
(1.066e-11 5.1736e-15 8.23481e-12)
(3.54652e-12 -1.46172e-13 2.11672e-11)
(-9.78187e-13 -2.41432e-13 4.77496e-11)
(1.13665e-11 -3.18192e-15 8.22898e-12)
(8.96687e-12 -1.30051e-13 1.24466e-11)
(3.64364e-12 -1.27442e-13 2.10629e-11)
(-1.09922e-12 -1.70826e-13 4.78008e-11)
(1.13109e-11 -8.07516e-14 8.25307e-12)
(8.96606e-12 5.21141e-10 1.11816e-10)
(-1.09805e-10 6.77323e-10 7.86677e-11)
(-1.53341e-10 4.87608e-10 4.47579e-11)
(2.45468e-12 4.59496e-10 8.36094e-11)
(-1.29153e-11 4.18513e-10 8.00934e-11)
(-1.27471e-10 6.30021e-10 5.94438e-11)
(1.41253e-11 5.89418e-10 9.24607e-11)
(7.54528e-11 1.84978e-10 1.37346e-10)
(-7.74094e-12 3.29983e-10 1.43078e-10)
(1.89317e-11 5.97595e-11 4.45403e-11)
(2.00794e-11 1.94162e-10 1.34252e-10)
(2.6686e-11 5.12524e-11 4.33279e-11)
(1.74465e-10 6.68824e-10 2.44851e-12)
(3.17886e-10 4.21838e-10 3.85861e-12)
(3.10028e-10 5.95656e-10 -7.42575e-12)
(3.91369e-09 -1.24554e-09 2.11529e-09)
(1.0211e-08 -1.8963e-09 5.28841e-09)
(3.93679e-12 -1.31477e-12 2.36248e-11)
(9.58586e-12 -1.38471e-12 1.33279e-11)
(-3.25925e-13 -1.5764e-12 4.89513e-11)
(1.22943e-11 -7.39484e-13 8.75206e-12)
(4.30718e-12 -1.03221e-12 2.27612e-11)
(-9.61267e-13 -2.05113e-12 5.00946e-11)
(1.23146e-11 -9.28226e-13 9.02438e-12)
(4.51673e-12 -6.82752e-13 2.19268e-11)
(9.61608e-12 -6.12625e-13 1.26869e-11)
(-3.37229e-13 -1.25499e-12 4.86698e-11)
(1.21774e-11 -4.77558e-13 8.57721e-12)
(4.37501e-12 -8.31504e-13 2.22633e-11)
(-1.72221e-13 -9.6511e-13 4.83586e-11)
(1.21566e-11 -4.26717e-13 8.46612e-12)
(2.66533e-12 -3.26236e-14 2.08834e-11)
(8.3418e-12 -2.07934e-14 1.22855e-11)
(-1.90339e-12 -6.27578e-14 4.69881e-11)
(1.05868e-11 -7.55354e-14 8.11793e-12)
(2.68093e-12 -6.54752e-14 2.0691e-11)
(-1.96571e-12 -1.11715e-13 4.71738e-11)
(1.06026e-11 2.36533e-15 8.15678e-12)
(2.79435e-12 -7.55032e-14 2.07984e-11)
(8.4018e-12 -6.47904e-14 1.22534e-11)
(-1.86363e-12 -8.44255e-14 4.69628e-11)
(1.06111e-11 1.94454e-16 8.10498e-12)
(2.7342e-12 -4.09098e-14 2.0647e-11)
(-1.84953e-12 -3.92033e-14 4.71261e-11)
(1.06743e-11 -7.87612e-14 8.12294e-12)
(-7.3738e-12 3.2772e-10 8.12035e-11)
(-2.55849e-11 2.99905e-10 6.53126e-11)
(-2.33083e-10 7.4626e-10 5.51685e-11)
(-2.58821e-10 7.08366e-10 8.32793e-12)
(5.59459e-11 6.4649e-10 6.68389e-11)
(-1.15129e-10 7.30229e-10 6.03682e-11)
(-1.06983e-10 5.72131e-10 7.23278e-11)
(9.08628e-12 4.91795e-10 7.59058e-11)
(3.26433e-11 6.19412e-10 8.137e-11)
(-8.2991e-11 7.40202e-10 6.44256e-11)
(4.29277e-11 4.98961e-10 7.03999e-11)
(1.80853e-10 6.71372e-10 4.40826e-11)
(7.74295e-12 5.67704e-10 4.79909e-11)
(2.76029e-11 7.66465e-10 4.15763e-11)
(1.82928e-10 5.01006e-10 4.67991e-11)
(2.51961e-11 7.64174e-10 4.39139e-11)
(1.91054e-10 4.89591e-10 5.17541e-11)
(1.81699e-10 6.74353e-10 4.28015e-11)
(-2.49051e-10 8.07125e-10 4.16535e-11)
(-2.20068e-10 8.19019e-10 5.77449e-11)
(-1.27266e-10 8.46279e-10 4.02896e-11)
(-1.38034e-10 8.46431e-10 4.26736e-11)
(-6.35291e-12 3.61914e-10 8.10976e-11)
(2.8611e-11 3.63362e-10 8.51678e-11)
(1.78123e-10 3.42958e-10 4.05352e-11)
(1.87436e-10 3.25795e-10 5.08776e-11)
(-3.0267e-11 3.41613e-11 6.64291e-11)
(-1.51599e-12 9.66346e-12 3.06541e-11)