/*--------------------------------*- C++ -*----------------------------------*\
| =========                 |                                                 |
| \\      /  F ield         | OpenFOAM: The Open Source CFD Toolbox           |
|  \\    /   O peration     | Version:  2012                                  |
|   \\  /    A nd           | Website:  www.openfoam.com                      |
|    \\/     M anipulation  |                                                 |
\*---------------------------------------------------------------------------*/
FoamFile
{
    version     2.0;
    format      ascii;
    class       volScalarField;
    location    "0.108/solid";
    object      epsilonEq;
}
// * * * * * * * * * * * * * * * * * * * * * * * * * * * * * * * * * * * * * //

dimensions      [0 0 0 0 0 0 0];


internalField   nonuniform List<scalar> 
3124
(
0.00333727
0.0121564
0.246959
0.0418188
0.0143668
0.00513194
0.00941453
0.00741096
0.00419904
0.146169
0.0461687
0.232513
0.00837056
0.0182745
0.148174
0.00224824
0.0165702
0.011861
0.00541374
0.0131655
0.00435754
0.00960649
0.003928
0.010519
0.0700352
0.0821175
0.00823824
0.00550543
0.00522314
0.0042652
0.011937
0.00868432
0.00646958
0.0141103
0.000986119
0.00180331
0.00390784
0.00293572
0.00266618
0.00272513
0.00255343
0.00207508
0.0134221
0.0735361
0.112464
0.061199
0.155182
0.116904
2.87485
0.216308
0.0252074
0.0240187
0.00294755
0.00270517
0.00418391
0.0519321
0.0155599
0.0109391
0.0208725
0.0049706
0.0138084
0.00847258
0.00567587
0.00360359
0.00605925
0.00376241
0.00498939
0.00895215
0.00280271
0.00303167
0.0777429
0.0329305
0.0199234
0.00130383
0.0106718
0.0654101
2.53394
0.087531
0.0219769
0.0171558
0.00632317
0.067986
0.0169666
0.0355749
0.129158
0.0225448
0.00119373
0.00184496
0.00310474
0.00314497
0.00502858
0.00193921
0.00318817
0.00682421
0.00110127
0.00247557
0.00136059
0.00279292
0.00689042
0.00557024
0.0236019
0.00663438
0.00257725
0.00275597
0.0207646
0.00374871
0.00557437
0.00765401
0.00803152
0.00258248
0.00270209
0.00291553
0.00565854
0.00309861
0.00340333
0.00628427
0.0031447
0.00276422
0.00257563
0.00217124
0.00190131
0.00219759
0.00196844
0.0346486
0.0328842
0.003667
0.00463326
0.00265233
0.00191403
0.00231432
0.00234685
0.00224526
0.00214878
0.0401343
0.0142615
0.0240789
0.0220153
0.030483
0.0288772
0.0275677
0.475583
0.232346
0.222404
0.426145
0.197499
0.495206
0.386175
0.103242
0.0265576
0.0467441
0.018712
0.0157251
0.0191766
0.00552085
0.00418407
0.00446491
0.00192873
0.00195623
0.0154
0.00670903
0.0183801
0.0193678
0.0266578
0.0127852
0.0110713
0.00592939
0.00564669
0.00596765
0.00549976
0.0652887
0.157284
0.134736
0.0888171
0.147987
0.0784643
0.0801265
0.128149
0.0486203
0.192664
0.512706
0.192646
0.339118
0.239604
0.355201
0.207909
0.335768
0.01029
0.0238735
0.0142047
0.0733556
0.157037
0.0881358
0.150095
0.0824648
0.168139
0.0864211
0.0165179
0.0193401
0.0235493
0.00165503
0.00145871
0.0147012
0.00789916
0.00998389
0.00583967
0.00629905
0.00683337
0.0146151
0.0102671
0.0118311
0.00183436
0.00197561
0.00375476
0.00473578
0.00396686
0.0065181
0.00809633
0.00572856
0.0034671
0.00346675
0.00312187
0.00150553
0.00162822
0.00165098
0.0343536
0.0235483
0.0231834
0.0178453
0.034603
0.0260964
0.0506899
0.0338622
0.0290576
0.0377536
0.0347456
0.0273151
0.0378569
0.0851343
0.045632
0.0448566
0.0457196
0.0429245
0.0295961
0.00937073
0.0101089
0.0118879
0.00888204
0.00981614
0.00797439
0.0101277
0.0079288
0.0132843
0.0100464
0.00876676
0.00988064
0.00771797
0.00780082
0.00657967
0.00544813
0.00595346
0.00923782
0.00803261
0.0103377
0.0114866
0.00915036
0.00138516
0.00255497
0.00219508
0.00370559
0.00340253
0.00239322
0.0010076
0.00138408
0.00338381
0.00164
0.00190999
0.00227055
0.00233332
0.00247267
0.00273166
0.00251807
0.00246421
0.00274464
0.00251364
0.00238588
0.00240916
0.00226967
0.0019057
0.00203351
0.00224702
0.00198765
0.00213463
0.0420853
0.0149318
0.0291417
0.0213943
0.0378247
0.0311443
0.0285315
0.0520424
0.043626
0.077162
0.097198
0.123456
0.0381212
0.0544973
0.0550601
0.141129
0.0588726
0.115582
0.0508573
0.135432
0.0611667
0.0205415
0.0886571
0.0473366
1.06392
0.745334
0.168833
0.102018
0.324337
0.0689691
0.522707
0.371252
0.172716
0.0983406
0.171837
0.169989
0.173736
0.264699
0.638967
1.18262
2.93808
1.24523
1.07275
0.712123
0.795745
0.443272
0.200565
0.212233
0.483311
0.188001
0.714805
0.406169
0.0267398
0.0262877
0.0391108
0.0200417
0.0240753
0.0205704
0.00386834
0.0030571
0.00404584
0.00208195
0.00278574
0.00213114
0.00799659
0.00914397
0.0141687
0.00488548
0.00790211
0.00634102
0.00689334
0.00896295
0.00813867
0.0183106
0.0323524
0.0632366
0.0346038
0.03305
0.0326659
0.022143
0.0144164
0.0133415
0.0118905
0.0218083
0.0100613
0.0234552
0.0146607
0.00355068
0.00823091
0.00690685
0.00931874
0.00480625
0.00379164
0.0108344
0.00599667
0.00702942
0.00600823
0.00886974
0.0111992
0.0240278
0.0188809
0.0186394
0.0111136
0.0101057
0.0071775
0.0149313
0.00716952
0.00547358
0.0128479
0.00912355
0.0161445
0.00629716
0.0162745
0.00931633
0.00990167
0.0109568
0.00762477
0.00843984
0.0104225
0.00996774
0.00790856
0.00888954
0.00693294
0.00719962
0.00568759
0.00873555
0.00668409
0.00733983
0.00815201
0.00688439
0.00287164
0.00513397
0.0062815
0.00759536
0.00279793
0.00697159
0.00435696
0.00565917
0.059357
0.107801
0.0790129
0.0495384
0.13234
0.0386617
0.0658825
0.0489437
0.050767
0.0283531
0.0301302
0.0231852
0.0575621
0.0473466
0.044275
0.0125857
0.0305123
0.0251787
0.0282907
0.0204142
0.0397976
0.00760031
0.00688295
0.00246779
0.00426245
0.00306252
0.00468531
0.00615502
0.00367509
0.00782152
0.00342505
0.0511347
0.308615
0.217557
0.78742
0.900442
12.3419
1.4063
0.641248
2.12928
0.629084
0.522402
0.234364
0.344177
0.194247
0.513625
0.731447
1.76059
1.2026
0.736244
0.0113948
0.0105063
0.0103913
0.0128093
0.0139785
0.0209152
0.0190099
0.0151288
0.00758678
0.00951202
0.0107736
0.040786
0.0319741
0.0209259
0.013314
0.0224558
0.0154429
0.041484
0.052554
0.0315839
0.0365318
0.0606184
0.0289993
0.0545303
0.0604291
0.15428
0.0459455
0.163971
0.0700244
0.042906
0.0316836
0.0364533
0.0233119
0.0492743
0.00322518
0.00258796
0.00201343
0.00252908
0.00240534
0.0029271
0.00285528
0.00433696
0.00266185
0.00572387
0.00448508
0.00595341
0.00424023
0.00359076
0.00291678
0.00170046
0.00105506
0.00114408
0.00126778
0.00210497
0.00441394
0.00208225
0.00293785
0.00377096
0.00252311
0.00137543
0.00169761
0.00239609
0.00264354
0.0030902
0.00175291
0.0049023
0.00113641
0.00420129
0.0030069
0.00122124
0.00628481
0.00134631
0.012193
0.00797554
0.0184742
0.0237717
0.0202784
0.0240177
0.00827557
0.0150554
0.0187483
0.000974139
0.00121094
0.00205619
0.00264367
0.00195633
0.00163359
0.00269192
0.00178753
0.0176386
0.0160391
0.012681
0.00602419
0.00432766
0.00758564
0.0117272
0.00494551
0.00948368
0.00657995
0.00844935
0.00717983
0.00959924
0.00898184
0.0109027
0.00218201
0.00208801
0.00215543
0.00262901
0.00224723
0.00240081
0.00267057
0.00233071
0.00326029
0.00301245
0.00340032
0.00513935
0.00446582
0.00418084
0.00305992
0.00364807
0.00350922
0.00496059
0.00327056
0.00439498
0.00705791
0.00479886
0.00521005
0.00319754
0.00381739
0.0040512
0.00305568
0.00257852
0.00280803
0.00300539
0.00244248
0.00277095
0.00237726
0.00229151
0.00254758
0.0017718
0.00163701
0.00157425
0.00154163
0.00183595
0.00173354
0.00168607
0.00188591
0.00213963
0.00187867
0.00160153
0.00162697
0.00204703
0.00177835
0.00182644
0.0326293
0.0622002
0.0235942
0.0332895
0.044822
0.0175724
0.0472426
0.0100971
0.0101448
0.0158176
0.0135862
0.0111147
0.00937063
0.0145194
0.00387755
0.00509451
0.00405188
0.00481509
0.00410754
0.00382403
0.00480115
0.0702041
0.0748194
0.0229193
0.046052
0.0549713
0.0281722
0.0847358
0.0084484
0.00878199
0.00730481
0.00687344
0.00656826
0.00811058
0.00752301
0.00455346
0.00539373
0.0042648
0.00572647
0.00432398
0.00447114
0.00569017
0.00825214
0.00916835
0.0126437
0.0120114
0.00889407
0.00841932
0.0118005
0.0112816
0.00728252
0.00999869
0.005858
0.00634727
0.00756625
0.0125035
0.00585696
0.00468747
0.0063249
0.00561399
0.00610604
0.000941105
0.00123245
0.00163155
2.11809
2.27517
0.0145227
0.0263215
0.0187068
0.0195433
0.0137803
0.0192399
0.0198324
0.0130098
0.0226235
0.017672
0.0192555
0.0136043
0.016687
0.0189146
0.00259824
0.00324882
0.00239527
0.00289836
0.00237209
0.00262117
0.00317677
0.00197978
0.00245885
0.00220078
0.00264005
0.0021631
0.00201525
0.00241506
0.00477699
0.00680055
0.0101042
0.0104205
0.0115198
0.007222
0.00678637
0.00550108
0.0122524
0.00702788
0.00549033
0.00881648
0.00625611
0.00496669
0.00402543
0.0042332
0.00338734
0.00814815
0.0101933
0.00923305
0.00512722
0.00661324
0.00523269
0.00401679
0.00262936
0.00300664
0.124063
0.0489295
0.0985774
0.153913
0.143112
0.096142
0.132554
0.259711
0.134967
0.109554
0.180434
0.162612
0.118606
0.209824
0.0111552
0.0117783
0.0197894
0.0225713
0.0114525
0.0186311
0.0126263
0.00251408
0.00160672
0.00122559
0.00130379
0.00188202
0.00135719
0.00150755
0.00611537
0.00357382
0.00359758
0.00300246
0.00721146
0.00382014
0.00311721
0.00142009
0.000876737
0.0010078
0.00141321
0.00501973
0.00356493
0.0015007
0.00152636
0.00260294
0.00230047
0.00563568
0.00726062
0.00566407
0.00770553
0.00586588
0.00545412
0.00733493
0.00635229
0.00849748
0.00591206
0.00811111
0.00607661
0.00615203
0.00854588
0.0350971
0.0290695
0.0316466
0.0325132
0.038834
0.0319459
0.00341964
0.00857326
0.00467581
0.00666033
0.00259508
0.00224507
0.00249847
0.0031879
0.00339418
0.00548955
0.00281776
0.00628537
0.00191263
0.00284508
0.00271927
0.00193267
0.0018613
0.00226043
0.00200111
0.00159554
0.00245154
0.00432859
0.00246869
0.00413451
0.00226487
0.00228108
0.00225946
0.00229163
0.0021475
0.00213369
0.00216218
0.0021574
0.00223979
0.00225318
0.00222737
0.00226726
0.00209515
0.00207952
0.00212057
0.00206256
0.00207238
0.00209845
0.00202129
0.00198707
0.00215727
0.00220928
0.0021817
0.00217903
0.0290631
0.0375018
0.03858
0.0335074
0.031265
0.0361674
0.0314174
0.0218857
0.0171661
0.0223842
0.0242045
0.0197311
0.0245592
0.0189212
0.0268894
0.0340846
0.0293829
0.025922
0.0239208
0.0325992
0.0287686
0.0236806
0.0280071
0.0214072
0.0261257
0.0251913
0.0265282
0.0202454
0.37116
0.355422
0.532886
0.443514
0.392877
0.329394
0.510668
0.273222
0.261766
0.208423
0.190494
0.203774
0.285004
0.247385
0.385318
0.555387
0.345442
0.521659
0.3474
0.3983
0.555183
0.0524798
0.0769917
0.0830678
0.0707611
0.0588932
0.0196102
0.0277026
0.0158397
0.025921
0.0143173
0.0140602
0.0341307
0.0322305
0.0609272
0.0304442
0.0203787
0.042429
0.0106053
0.0171472
0.013411
0.0164947
0.0122919
0.0114734
0.0155102
0.0134718
0.0140382
0.0168022
0.0125997
0.0148877
0.0140139
0.0166068
0.0178721
0.0148495
0.0157342
0.00392937
0.00504243
0.00520879
0.00416664
0.00474485
0.00364432
0.00453249
0.00334444
0.00415636
0.00360039
0.00338015
0.00449112
0.00366293
0.0048525
0.00408233
0.0033812
0.00442843
0.00159383
0.00187407
0.00155289
0.00136194
0.00181008
0.00148594
0.0147735
0.0194182
0.0145005
0.0136891
0.0120246
0.018028
0.0163886
0.0147693
0.0153458
0.0199098
0.0164846
0.0172965
0.0170966
0.013266
0.0178722
0.0231249
0.0254891
0.0228227
0.0211759
0.0220521
0.0195099
0.0121568
0.0120249
0.00942923
0.0137032
0.0101815
0.0141407
0.0112835
0.00624776
0.00486659
0.00899004
0.00569732
0.004724
0.0101855
0.00699027
0.0908653
0.0849487
0.0695956
0.0653136
0.0909284
0.0848343
0.0704449
0.125693
0.157981
0.158616
0.125615
0.161545
0.126679
0.123508
0.121247
0.112628
0.157911
0.145221
0.155725
0.119606
0.112204
0.0964709
0.0743769
0.100475
0.0766547
0.09887
0.0966467
0.0735912
0.115629
0.0945081
0.148252
0.094021
0.109233
0.0874399
0.0466102
0.054137
0.105517
0.0428415
0.107681
0.0948094
0.136249
0.167373
0.136036
0.154167
0.122084
0.266041
0.347256
0.35428
0.475318
0.268094
0.33044
0.331102
0.215134
0.188889
0.23867
0.191743
0.240501
0.189666
0.224669
0.249254
0.301177
0.294655
0.438121
0.307868
0.264041
0.30368
0.236082
0.263355
0.198171
0.215324
0.203874
0.230148
0.26128
0.0129816
0.011822
0.0077114
0.0162381
0.00978317
0.0157796
0.0188136
0.0082502
0.0137806
0.0268997
0.0230447
0.0174824
0.0137716
0.0075503
0.00976271
0.0098721
0.123426
0.155613
0.127931
0.156632
0.125263
0.1543
0.126912
0.0959752
0.0800855
0.102824
0.0759774
0.0975902
0.101233
0.0753308
0.12401
0.116219
0.164253
0.171335
0.160366
0.124766
0.122605
0.01705
0.0236745
0.0295589
0.0120756
0.0178213
0.0132587
0.0110775
0.016557
0.025329
0.01733
0.0122283
0.0231013
0.00841648
0.0206114
0.0135428
0.0175486
0.00165475
0.000990431
0.00108094
0.00150734
0.00111445
0.00163805
0.00146651
0.000852133
0.00127809
0.00172901
0.0018082
0.00123436
0.00647539
0.0106161
0.00782369
0.00866166
0.00948566
0.0106523
0.0125132
0.00860524
0.0106895
0.0155713
0.0135352
0.0122901
0.00589916
0.00697291
0.00568266
0.00771832
0.0047112
0.00534403
0.00616241
0.00442891
0.00565632
0.00475212
0.00599829
0.00484376
0.00630251
0.00466699
0.00498632
0.00599501
0.0050172
0.00649585
0.00633046
0.00536517
0.00598543
0.0111698
0.0131829
0.0135772
0.0119455
0.0123575
0.00782446
0.0111158
0.00725287
0.0102804
0.00775196
0.00731406
0.0109965
0.0104848
0.0126349
0.0108016
0.00974994
0.0115612
0.00172037
0.00199326
0.00200776
0.00171387
0.00176511
0.00137607
0.00191695
0.00147929
0.00149685
0.00188461
0.00160841
0.00186025
0.00364762
0.00340126
0.00340599
0.00359287
0.00364803
0.00370845
0.00396151
0.00357388
0.00385386
0.00427897
0.00405437
0.0038715
0.00346822
0.00321898
0.00345257
0.00327365
0.00436046
0.00499717
0.00472976
0.00488391
0.00709841
0.00968631
0.00738804
0.00844232
0.00517916
0.00571787
0.00472198
0.00579106
0.00618744
0.00701129
0.00785189
0.00610492
0.00292334
0.00268887
0.00280511
0.00282387
0.00324236
0.00357907
0.00330929
0.00336386
0.00301303
0.00290159
0.00317754
0.00287276
0.003164
0.00306937
0.00324125
0.00297371
0.00148886
0.00148038
0.00145158
0.00154684
0.00154243
0.00148895
0.00135014
0.00150881
0.0239884
0.0163816
0.0284366
0.0340487
0.0244566
0.021603
0.0185961
0.0272124
0.034238
0.0338253
0.0271236
0.0329635
0.027738
0.0259771
0.0309428
0.0393435
0.0397913
0.0338014
0.0355843
0.0337376
0.026638
0.0279608
0.0211158
0.0302896
0.0324158
0.0240469
0.0248138
0.0299106
0.0438913
0.0946368
0.036818
0.0274411
0.0300494
0.0265324
0.0332988
0.0288947
0.0181296
0.0351014
0.0327797
0.0303649
0.0376401
0.0276938
0.0358708
0.0348399
0.0372261
0.0305184
0.0360384
0.0304114
0.0185204
0.0287044
0.0410311
0.0457569
0.0415913
0.0388251
0.0375965
0.0474348
0.0412052
0.0369561
0.0523148
0.0424487
0.0609587
0.046382
0.0538505
0.0423486
0.0633342
0.049625
0.0414564
0.0603202
0.0385461
0.049935
0.0402085
0.0571021
0.00911272
0.00524731
0.00857052
0.0075783
0.00997783
0.00876864
0.00885324
0.0106945
0.0105643
0.0127378
0.0109622
0.0108492
0.0105791
0.00981986
0.00590996
0.00738896
0.00391313
0.00974103
0.00591317
0.00608604
0.00508182
0.00333323
0.00632985
0.00939879
0.00921494
0.00826915
0.0101779
0.00841664
0.00621551
0.0124364
0.00508579
0.0105485
0.00539629
0.00984561
0.00919278
0.00510866
0.00584686
0.00842099
0.0066894
0.0133318
0.00841208
0.0121845
0.013584
0.00672885
0.00998704
0.0108373
0.0122096
0.0144313
0.0170135
0.0103106
0.0107828
0.0117444
0.00948608
0.0121889
0.0121193
0.012371
0.00788267
0.0149317
0.00230732
0.0026472
0.00211169
0.00348427
0.00432182
0.00523555
0.00336976
0.00724579
0.00576813
0.00307583
0.00364937
0.00518313
0.00430441
0.00386325
0.00374866
0.00201335
0.0013837
0.00186947
0.00152744
0.00182183
0.00118115
0.00100774
0.00126481
0.00168587
0.00116899
0.00111309
0.00127942
0.00112912
0.00212037
0.00196401
0.00148506
0.0019966
0.0033125
0.00176522
0.00175235
0.00279527
0.00310276
0.00205104
0.00418669
0.00229067
0.00120892
0.00176712
0.00168549
0.00138775
0.00223568
0.00228411
0.00226461
0.0022398
0.00209263
0.00202407
0.00211825
0.00215
0.00222486
0.00214217
0.0022255
0.00215272
0.00244516
0.002379
0.00238676
0.00242858
0.00250664
0.00255086
0.00248518
0.00257006
0.00240853
0.00233627
0.00235347
0.0023928
0.00255442
0.0026002
0.00254469
0.00262327
0.00238727
0.00239696
0.00235745
0.00244657
0.0025741
0.00250391
0.00247297
0.00262729
0.00240233
0.00228127
0.0023657
0.00230332
0.0025305
0.00263946
0.00258202
0.00256741
0.00223074
0.00213862
0.00218509
0.00218074
0.00237685
0.0024777
0.00242035
0.00243274
0.00230011
0.00228498
0.00225013
0.0023369
0.00229946
0.00228666
0.00224207
0.00234697
0.0019502
0.00201017
0.0019876
0.00196214
0.00181229
0.00177061
0.00188412
0.00192333
0.00186703
0.00183391
0.00188603
0.00182715
0.00204369
0.00206363
0.00210223
0.00200986
0.00200209
0.00195437
0.00202931
0.00193179
0.00209106
0.00219386
0.00215675
0.00212455
0.0019602
0.0018713
0.0019291
0.00189653
0.0322538
0.042425
0.0404729
0.0350099
0.0320682
0.0406686
0.0346572
0.0316025
0.0410958
0.037185
0.0302242
0.0293542
0.0397261
0.0333357
0.0252502
0.0290433
0.0218552
0.0275087
0.0257214
0.028251
0.0215568
0.0609418
0.0675315
0.0481478
0.0512252
0.0468161
0.061803
0.066013
0.0705759
0.0763239
0.0918139
0.0611856
0.0714164
0.0889978
0.0599015
0.0805395
0.091454
0.108355
0.119133
0.0822769
0.0903306
0.106193
0.0532657
0.0431991
0.0370273
0.0476438
0.0423591
0.0546399
0.0470365
0.0725243
0.056139
0.0720804
0.0538421
0.0742085
0.0551758
0.0710775
0.101485
0.134873
0.0978083
0.145648
0.0956881
0.103145
0.14118
0.0721771
0.0550077
0.0692482
0.0504807
0.0683998
0.0734965
0.0543435
0.101709
0.0987521
0.143993
0.132743
0.103172
0.0972784
0.139503
0.0996862
0.137996
0.0477465
0.0282437
0.0308943
0.0385093
0.0321073
0.0839538
0.0881016
0.0404136
0.0526653
0.0478067
0.070641
0.104212
0.221389
0.172213
1.94275
2.04362
0.735101
1.68829
0.857776
0.735763
0.551885
1.00353
1.08819
0.602841
0.438252
1.19115
0.815793
0.498319
0.442039
1.29881
0.194702
0.172311
0.271369
0.17255
0.228392
0.334801
0.150663
0.163477
0.125504
0.241179
0.114335
0.176048
0.230805
0.179589
0.294068
0.354379
0.527215
0.215539
0.278415
0.351488
0.257932
0.282639
0.473831
0.267166
0.427856
0.305388
0.224485
0.287289
0.293023
0.354894
0.278143
0.234491
0.270874
0.144265
0.095772
0.119698
0.121348
0.116955
0.150859
0.119169
0.182798
0.234257
0.143616
0.164918
0.138685
0.188912
0.221388
0.179629
0.225656
0.169319
0.147052
0.21392
0.186061
0.142701
1.09834
0.836483
0.743791
0.599423
0.736109
1.04622
0.819562
2.14295
4.5455
2.05684
2.02739
2.34578
1.75676
2.76949
1.66623
0.997022
1.71614
1.09023
1.89855
1.52784
0.992183
1.27598
0.777209
0.805496
1.21587
0.797836
1.09331
1.52683
0.293421
0.189937
0.213607
0.296614
0.204516
0.272501
0.313786
0.278006
0.258368
0.206111
0.182839
0.198982
0.28997
0.246306
0.431125
0.710766
0.459835
0.685346
0.41784
0.468802
0.677485
0.0143543
0.0268288
0.0179766
0.0221279
0.0140379
0.0191474
0.0204703
0.0122889
0.0184683
0.0298711
0.0136335
0.0187638
0.0112808
0.0236067
0.0345659
0.0137465
0.0201319
0.0127939
0.0214149
0.0145711
0.0174905
0.0120577
0.0155838
0.0182774
0.0161123
0.0186096
0.0231393
0.0155107
0.0186402
0.0161113
0.0174737
0.0218958
0.0153246
0.0182195
0.00283431
0.00352488
0.00309671
0.00380466
0.00309288
0.00284077
0.00347717
0.00252561
0.00281484
0.00334616
0.0023043
0.00308904
0.00277825
0.00372172
0.00367917
0.00303913
0.00338846
0.00182833
0.00227538
0.00172095
0.00203926
0.00168166
0.00186425
0.00221696
0.00191365
0.00256434
0.00254013
0.00209246
0.00234277
0.00176014
0.00197129
0.00232463
0.00161269
0.00214753
0.0126136
0.00539399
0.00892554
0.0050139
0.0076933
0.004675
0.00614643
0.00535944
0.0087156
0.00501068
0.00913775
0.00951379
0.00751397
0.0089965
0.0124655
0.00644522
0.00892687
0.0118778
0.0120813
0.0130811
0.0105213
0.0107455
0.00940974
0.00734987
0.0106686
0.00798487
0.00576838
0.00864672
0.00728797
0.00693683
0.0278221
0.0234198
0.0225133
0.0175144
0.0228362
0.0281702
0.0222778
0.0420759
0.0619719
0.0511551
0.0517614
0.0508425
0.042685
0.0518294
0.0342461
0.0284238
0.032516
0.0405913
0.0274114
0.0397842
0.0343726
0.0347781
0.0281928
0.0412952
0.0334912
0.0348073
0.0275827
0.0411154
0.0124385
0.0121673
0.0157245
0.0135126
0.0121916
0.0111994
0.0155949
0.0125751
0.0121613
0.0147068
0.0123892
0.0111127
0.0139549
0.0138227
0.0112951
0.0111171
0.0132643
0.0104923
0.0105217
0.0150648
0.010211
0.0145619
0.0200929
0.0142709
0.0238586
0.0120096
0.0196146
0.0175577
0.00637115
0.0140319
0.00531605
0.0106898
0.00682881
0.00873381
0.00703882
0.00740714
0.00537449
0.00331291
0.00364989
0.00498742
0.0058812
0.0040096
0.00775926
0.00487216
0.00606157
0.00941731
0.0124565
0.00682463
0.0112378
0.00881528
0.0060497
0.00475148
0.00572666
0.00558422
0.00683381
0.00537004
0.00440837
0.00736397
0.0189867
0.00571317
0.00650325
0.0182057
0.00524249
0.00351568
0.00525342
0.00770208
0.00660358
0.00593662
0.0117423
0.00557257
0.00649087
0.0329845
0.0102056
0.0324623
0.0132823
0.0118365
0.0106871
0.00896655
0.00994386
0.012952
0.0118737
0.0179838
0.0238934
0.0224436
0.0191034
0.0170087
0.0219952
0.0188871
0.017
0.015241
0.0200227
0.0194868
0.015921
0.0157415
0.0209189
0.0156349
0.00316296
0.0101783
0.0462458
0.00938704
0.00735138
0.00930903
0.007794
0.00850899
0.00771265
0.0102009
0.0110772
0.0116746
0.0119697
0.0126127
0.0099369
0.0112552
0.0134239
0.00842551
0.00742932
0.00784121
0.00733005
0.00791088
0.00923179
0.00748997
0.0122763
0.0127775
0.0139624
0.017391
0.0101179
0.0139432
0.0152279
0.0116914
0.00810661
0.00635265
0.00500831
0.011601
0.00621507
0.00470319
0.00925525
0.00521528
0.00572015
0.00441831
0.0104825
0.00570704
0.00432983
0.00676188
0.0110037
0.00769055
0.00541776
0.0104929
0.00871173
0.0092828
0.00876999
0.00681495
0.00504294
0.00546066
0.00915661
0.00238596
0.00237058
0.0026808
0.00293843
0.00399386
0.00560389
0.00373082
0.00300172
0.00822795
0.0064971
0.00381692
0.00482301
0.00499478
0.00360315
0.00594283
0.00719417
0.00487443
0.00516357
0.00451758
0.00628515
0.0678586
0.0770778
0.0525652
0.0597733
0.076064
0.0681397
0.0523678
0.0755048
0.0779615
0.095662
0.0634557
0.0930172
0.0623251
0.0757722
0.0880167
0.10187
0.128356
0.114321
0.101774
0.112394
0.0892142
0.0577053
0.0452412
0.0496352
0.0388467
0.0495904
0.0584501
0.0458448
0.0400433
0.0377073
0.0520638
0.0485994
0.0513269
0.0401279
0.0375129
0.0325126
0.0297905
0.0278077
0.0346739
0.0284907
0.0334608
0.0334922
0.031015
0.0287107
0.0251879
0.0244092
0.0269522
0.0308329
0.0290937
0.0405991
0.0555602
0.0534143
0.0428563
0.0529596
0.0428281
0.0404898
0.0303029
0.0391048
0.0338414
0.0439473
0.029629
0.0394374
0.0344497
0.0194975
0.0139107
0.013648
0.0130857
0.0165016
0.0163672
0.0177872
0.0263789
0.0334129
0.0202004
0.0292738
0.0216823
0.0248495
0.033887
0.0232066
0.0254232
0.0173211
0.0220803
0.019018
0.0219172
0.0260736
0.00373139
0.00425508
0.00593183
0.00500125
0.00465791
0.00647574
0.00729309
0.00480177
0.00414699
0.00651048
0.0038427
0.0040393
0.00663414
0.00375743
0.00580754
0.00388194
0.00313194
0.00266377
0.0022873
0.00397681
0.00200212
0.00356858
0.00184795
0.00253461
0.00283215
0.0025134
0.00250787
0.00247265
0.0025995
0.00211808
0.00323527
0.00198591
0.00384907
0.00296373
0.00427396
0.00308435
0.00498545
0.00288655
0.00262889
0.00284243
0.00326382
0.0037235
0.00360056
0.00347983
0.00520328
0.00349383
0.00530487
0.00314477
0.00512796
0.00289355
0.00328636
0.00438707
0.00618758
0.0082733
0.0070595
0.00673383
0.00493456
0.00352988
0.00554019
0.00325963
0.00555484
0.00332282
0.00451257
0.00512562
0.127571
0.0501466
0.0703921
0.116172
0.117864
0.0758341
0.124243
0.216162
0.217507
0.267477
0.245588
0.184119
0.188446
0.150325
0.244348
0.174909
0.16596
0.813737
0.628674
1.16312
0.742399
0.549507
0.983197
1.14818
3.26595
6.79789
2.64903
4.33636
3.05917
6.24086
2.15761
0.345642
0.49906
0.394611
0.471363
0.353023
0.374682
0.398302
0.260997
0.19317
0.219769
0.286352
0.269062
0.165335
0.254061
0.429703
0.256744
0.471013
0.322155
0.324098
0.245722
0.274225
0.205202
0.218893
0.265021
0.264374
0.189533
0.38593
0.470845
0.378585
0.490704
0.351613
0.445731
0.358751
0.968731
1.05263
0.705394
0.697938
0.994614
1.07644
0.610611
1.22915
1.85256
1.44899
1.50051
1.26384
1.30194
1.50655
1.17887
1.1743
1.12312
1.85925
1.0908
1.18583
1.33002
0.917539
0.668485
1.09175
0.697352
1.01666
0.567184
1.08305
0.020561
0.0191575
0.0114587
0.0111013
0.0104672
0.0174139
0.0188188
0.02618
0.00976282
0.00724173
0.0153287
0.0185037
0.014882
0.0083823
0.00626688
0.00799948
0.0105778
0.0179573
0.0129954
0.0148441
0.0134086
0.0185764
0.0212204
0.0164292
0.0220778
0.00917999
0.018448
0.0161759
0.0119601
0.0197495
0.01416
0.0125022
0.0215386
0.0173236
0.0197104
0.0219325
0.0153887
0.0199601
0.0169281
0.00684775
0.0149906
0.0109406
0.0103766
0.0083621
0.00473835
0.00385271
0.0107122
0.0126972
0.00860504
0.00677371
0.0139595
0.00554946
0.00819531
0.0094466
0.00476868
0.0199765
0.0179504
0.0193113
0.0165254
0.0541177
0.126873
0.0761573
0.0609047
0.034056
0.0344139
0.0226741
0.0534073
0.0284299
0.0222704
0.0239628
0.0253796
0.0163086
0.012201
0.0102833
0.0150734
0.0120639
0.0236464
0.0152007
0.015673
0.0170137
0.0097545
0.0162067
0.0119451
0.0191967
0.0177945
0.024341
0.0248855
0.0406322
0.0598711
0.0519183
0.043726
0.053853
0.0396962
0.0422414
0.0620172
0.0794441
0.0708579
0.0706086
0.0748226
0.0704181
0.0779387
0.200784
0.123123
0.340458
0.106214
0.155275
0.105135
0.173719
0.256919
0.110604
0.243198
0.129173
0.0522364
0.0482614
0.0273993
0.0690333
0.0478789
0.034431
0.0532377
0.0453495
0.0482502
0.0426911
0.0499276
0.0265378
0.0198629
0.0395948
0.0178133
0.0272843
0.0271794
0.0275221
0.0296401
0.0284954
0.0318959
0.0312154
0.0509079
0.0333766
0.031818
0.0471888
0.00292961
0.00181182
0.00188886
0.00182848
0.00365503
0.00188801
0.00173473
0.00538101
0.00369897
0.00282035
0.00247011
0.00437644
0.00271331
0.00249401
0.00155844
0.00164871
0.00198681
0.00403502
0.0067307
0.00426665
0.00635078
0.00211877
0.00201809
0.00298215
0.000692079
0.000849735
0.000877882
0.0022417
0.00148823
0.000904859
0.00151756
0.00107029
0.00105503
0.0013638
0.00207855
0.00157291
0.00182655
0.00140777
0.00167757
0.00207414
0.0021775
0.00186737
0.00173304
0.00238893
0.00349264
0.00298778
0.00430398
0.00335495
0.00293044
0.00354694
0.00252835
0.00214209
0.00285165
0.00220955
0.00311641
0.00118867
0.00100966
0.00134582
0.00153337
0.00180004
0.00174316
0.00182205
0.0014161
0.00257631
0.00158906
0.00164061
0.00192413
0.00159776
0.0019441
0.00194875
0.00199222
0.00254492
0.00179429
0.00188558
0.00181999
0.00222566
0.00237731
0.00234036
0.00239194
0.00257345
0.00449761
0.00227522
0.00534429
0.00251878
0.00246689
0.00233205
0.00249052
0.00323109
0.00647152
0.00344278
0.0059708
0.00196605
0.00215691
0.00228323
0.00243322
0.00252804
0.00365202
0.00302641
0.00244031
0.00230731
0.00218497
0.0019824
0.00198665
0.00344102
0.00218069
0.00200089
0.00207798
0.00286065
0.00250148
0.00246212
0.00268925
0.00430523
0.00693263
0.0042289
0.00705496
0.00283151
0.00215528
0.00287193
0.00225028
0.00400545
0.00682273
0.0039438
0.00700651
0.019807
0.015745
0.0217593
0.0158544
0.00646637
0.00604044
0.00518298
0.00550692
0.00739506
0.00707473
0.00945072
0.00511422
0.0107298
0.0142907
0.0104528
0.0126076
0.0131494
0.0299804
0.0182724
0.0233611
0.0244021
0.0222525
0.0230648
0.020824
0.0235236
0.019908
0.0270986
0.0224202
0.0151636
0.0191724
0.024465
0.0114864
0.0152376
0.0219419
0.0202236
0.0160981
0.00620936
0.00516146
0.00684949
0.0040969
0.00508919
0.00937274
0.00631862
0.00845388
0.015949
0.0133012
0.017542
0.0120051
0.000941712
0.00121565
0.00144719
0.000792272
0.00103175
0.000735992
0.00118461
0.000790847
0.000895374
0.000905373
0.000685984
0.00126301
0.00178376
0.00166736
0.00205133
0.00139114
0.00224384
0.00233491
0.00190246
0.00259032
0.00257206
0.0019369
0.00250614
0.00203149
0.00154811
0.00214017
0.00171218
0.00202144
0.00123413
0.00190322
0.00164093
0.00140088
0.00252401
0.00158392
0.00277718
0.00146239
0.00107834
0.00150207
0.000964107
0.00171157
0.00279511
0.00166135
0.00254139
0.00194733
0.00993468
0.0110235
0.00774467
0.0141952
0.0167405
0.0214697
0.0194365
0.0197665
0.0156055
0.0165258
0.0132951
0.0183539
0.00942883
0.0185205
0.0120053
0.0144488
0.0060855
0.00786158
0.00662683
0.00727092
0.00318231
0.00333239
0.00324897
0.00336215
0.00344843
0.00405223
0.00359173
0.00387112
0.00541028
0.00559572
0.00582007
0.00502987
0.00941305
0.00806684
0.0103004
0.00742557
0.00367418
0.00527649
0.00452702
0.00435364
0.00923286
0.0128827
0.0114816
0.0100492
0.00449777
0.00391683
0.00485548
0.00353853
0.00542356
0.00692357
0.00503836
0.00662703
0.0051837
0.0052344
0.00696775
0.00654024
0.00791197
0.00800464
0.0069394
0.00748841
0.00611358
0.00669346
0.00756449
0.00572305
0.00707953
0.00661442
0.00897652
0.00681377
0.00961433
0.00698743
0.00647393
0.0090482
0.00789919
0.00837326
0.00951931
0.00741366
0.0088731
0.00842756
0.0100727
0.0101347
0.00902398
0.009431
0.00208032
0.00188514
0.00188966
0.0020766
0.00190989
0.00201275
0.0020345
0.00214873
0.00215531
0.00202862
0.00193355
0.0017731
0.00190241
0.0022169
0.00193433
0.00223579
0.00257227
0.00192849
0.00214694
0.00247794
0.00214765
0.00178962
0.00217829
0.00168728
0.00223706
0.00255423
0.00256305
0.00213347
0.00230184
0.00205663
0.00226137
0.00206003
0.00240595
0.00261297
0.00255769
0.0024174
0.00220199
0.00231047
0.00235038
0.00218037
0.00255728
0.00228276
0.00231347
0.00259257
0.00302055
0.00314016
0.00317711
0.00301153
0.00277676
0.00265429
0.0026844
0.00275049
0.00285281
0.0027419
0.0027514
0.00282386
0.00292756
0.00304043
0.0030699
0.00288394
0.00375026
0.00357346
0.00382964
0.00355268
0.00446055
0.00517761
0.00480294
0.00449529
0.00414922
0.00437173
0.00411771
0.00465796
0.00405843
0.00373506
0.00379642
0.00391604
0.00306902
0.00327841
0.00311823
0.00320696
0.00294434
0.00272884
0.00283936
0.00280469
0.00282676
0.0028067
0.00274907
0.00290062
0.00322514
0.00326823
0.0034097
0.00312327
0.0034992
0.00426037
0.00377671
0.00386185
0.0032406
0.00270898
0.00266348
0.00314521
0.00428621
0.00434829
0.0047961
0.00402913
0.00267413
0.00304125
0.00266748
0.00315431
0.00460689
0.00427817
0.00426875
0.00446755
0.00491672
0.00535741
0.00580013
0.00490247
0.00542202
0.00660567
0.0054454
0.00602695
0.00410088
0.00409531
0.0043338
0.00397311
0.00357529
0.00350834
0.00329168
0.00383813
0.00276765
0.00289019
0.00271253
0.00300084
0.00306364
0.0026729
0.00295674
0.00270643