/*--------------------------------*- C++ -*----------------------------------*\
| =========                 |                                                 |
| \\      /  F ield         | OpenFOAM: The Open Source CFD Toolbox           |
|  \\    /   O peration     | Version:  2012                                  |
|   \\  /    A nd           | Website:  www.openfoam.com                      |
|    \\/     M anipulation  |                                                 |
\*---------------------------------------------------------------------------*/
FoamFile
{
    version     2.0;
    format      ascii;
    class       volVectorField;
    location    "0.108/solid";
    object      sigmaMaxDir;
}
// * * * * * * * * * * * * * * * * * * * * * * * * * * * * * * * * * * * * * //

dimensions      [1 -1 -2 0 0 0 0];


internalField   nonuniform List<vector> 
3124
(
(0.6775 -0.536039 -0.503643)
(-0.366987 0.888062 0.276887)
(0.795308 -0.187987 -0.576321)
(-0.667404 -0.100575 0.737873)
(-0.35742 -0.072947 0.931091)
(-0.380609 -0.0476358 0.923508)
(-0.432341 0.857294 0.279515)
(-0.262181 0.15226 0.952931)
(0.71992 -0.627403 0.296784)
(0.787423 -0.186417 -0.587549)
(0.710649 0.0183945 -0.703307)
(0.791315 -0.185733 -0.582515)
(-0.212467 0.0545798 0.975643)
(0.761731 0.0419898 -0.646531)
(0.793455 -0.177165 -0.582273)
(-0.594185 0.645776 -0.479498)
(-0.555947 -0.104686 0.824599)
(-0.324158 -0.0500939 0.944676)
(-0.382372 -0.0469825 0.922813)
(-0.36757 -0.0671735 0.927567)
(-0.297961 -0.0285981 0.95415)
(-0.331739 -0.0466337 0.942218)
(-0.29244 -0.033192 0.955708)
(-0.471631 0.830353 0.29678)
(0.751856 0.651137 -0.103598)
(-0.0938464 0.778449 0.620653)
(-0.446947 0.89439 -0.017453)
(-0.583327 0.655607 0.479489)
(0.733985 -0.67027 -0.109566)
(0.973661 -0.179991 -0.139959)
(-0.64192 0.368764 0.672274)
(-0.615711 0.781746 0.0988598)
(0.965955 -0.028491 -0.257137)
(0.863472 0.428935 -0.265388)
(0.440287 0.616603 0.652647)
(0.530165 -0.191927 0.825887)
(0.897203 -0.130622 -0.421859)
(-0.60122 -0.100531 0.792735)
(-0.0420923 -0.0248342 0.998805)
(-0.0755825 -0.0180574 0.996976)
(-0.0346274 -0.029608 0.998962)
(-0.0137665 -0.0409312 0.999067)
(-0.20906 0.920256 0.330791)
(-0.527699 0.618239 0.582507)
(-0.21729 0.753257 0.620797)
(-0.40954 0.906116 0.105976)
(-0.232069 0.783057 0.577032)
(0.601119 -0.54243 -0.586878)
(-0.641775 0.367245 0.673244)
(-0.324514 0.744049 0.584022)
(-0.26544 -0.0442246 0.963113)
(-0.274771 -0.0393876 0.960703)
(-0.360591 -0.0760935 0.929615)
(-0.356575 -0.0755314 0.931209)
(-0.473702 0.73319 0.487892)
(0.58636 -0.571018 -0.574561)
(-0.627525 0.422347 0.654091)
(-0.679736 0.732842 0.0300124)
(0.800042 -0.144419 -0.582302)
(0.932746 -0.122166 -0.339205)
(0.688673 -0.321811 -0.649743)
(-0.472811 0.87796 -0.0750692)
(0.742227 -0.656894 0.132625)
(0.826419 0.112951 0.55161)
(-0.533928 0.81334 -0.231082)
(0.972098 -0.174821 0.156408)
(-0.514636 0.856122 -0.0469548)
(-0.609329 0.788183 -0.0865173)
(0.823169 0.251154 0.50923)
(0.948804 -0.269155 0.165306)
(0.642919 -0.493185 -0.586024)
(0.76239 -0.159418 -0.627174)
(0.671145 -0.371952 -0.641261)
(-0.264077 0.943729 -0.199097)
(-0.689306 0.722099 -0.0585683)
(0.797265 0.00254848 -0.603623)
(-0.595583 0.108141 0.795981)
(0.759386 -0.0566174 -0.648172)
(0.762203 -0.0994712 -0.639651)
(0.85404 0.330156 -0.402011)
(0.911086 -0.0135236 -0.411994)
(-0.564303 0.0687058 0.822704)
(0.822911 0.35107 -0.446729)
(0.717984 -0.13389 -0.683061)
(-0.46625 0.0116225 0.884577)
(0.73451 0.227349 -0.63938)
(0.279835 0.866565 0.413228)
(0.281281 0.929643 -0.238004)
(0.786307 0.157804 0.597344)
(-0.231555 0.909177 -0.346093)
(-0.542164 0.83775 -0.0650657)
(0.67002 -0.0645576 0.739531)
(0.402352 0.906511 -0.12787)
(0.656399 0.754198 -0.0180273)
(0.565257 -0.137098 0.813442)
(0.784174 0.252243 0.566961)
(0.670715 -0.0637969 0.738967)
(0.54206 0.833159 0.109616)
(0.651175 0.758796 0.0141629)
(0.702875 -0.124137 -0.700398)
(-0.260732 -0.0306159 0.964926)
(-0.450227 -0.103854 0.886854)
(-0.239036 -0.0610351 0.96909)
(-0.497756 -0.0833557 0.863302)
(-0.275378 -0.0359272 0.960664)
(-0.303374 -0.087547 0.948841)
(-0.420627 -0.0893911 0.902819)
(-0.391878 -0.0424802 0.919036)
(-0.392765 -0.0474066 0.918416)
(-0.184687 -0.0412834 0.98193)
(-0.0941279 -0.0217553 0.995322)
(-0.0938912 -0.0298546 0.995135)
(-0.318208 -0.0299974 0.947546)
(-0.133316 -0.0268832 0.990709)
(-0.255512 -0.0620079 0.964815)
(-0.32384 -0.0318958 0.945574)
(-0.153876 -0.0312975 0.987594)
(-0.0850968 -0.0351241 0.995753)
(-0.27415 -0.0457778 0.960597)
(-0.0586273 -0.0469198 0.997177)
(-0.00744805 -0.0432539 0.999036)
(-0.267422 -0.0461562 0.962473)
(-0.050476 -0.0490257 0.997521)
(0.686906 0.72649 -0.0193171)
(0.760825 0.601773 -0.242928)
(0.98208 -0.187835 -0.0154248)
(0.996947 0.0763034 0.0165864)
(0.970208 -0.21381 -0.113935)
(0.964345 -0.125544 -0.232975)
(0.0388107 -0.0154377 0.999127)
(0.0339665 -0.0109144 0.999363)
(0.0431934 -0.0197026 0.998872)
(0.0472893 -0.0235908 0.998603)
(-0.311699 0.94417 0.106714)
(-0.296513 0.913262 0.279343)
(-0.417111 0.751489 0.511158)
(-0.362066 0.931186 -0.0424483)
(-0.463742 0.879883 0.103677)
(-0.332784 0.788809 0.516754)
(-0.264226 0.963882 -0.033417)
(0.846958 -0.525567 -0.0802654)
(0.957415 -0.172773 -0.231314)
(0.748785 -0.325265 -0.577515)
(0.842552 -0.174689 -0.509499)
(0.903478 -0.406388 -0.136294)
(0.999308 0.0367341 0.00591154)
(0.757298 -0.393551 -0.52117)
(0.793305 0.0415341 -0.607406)
(-0.418149 -0.0436891 0.907327)
(0.831519 0.0407311 -0.554002)
(-0.320319 -0.0587918 0.945484)
(0.73532 0.0174433 -0.677496)
(0.744729 0.016983 -0.667151)
(0.734583 0.0130673 -0.678393)
(-0.37489 -0.0649963 0.924788)
(0.734928 0.0201235 -0.677847)
(-0.344668 -0.0735006 0.935843)
(0.729106 0.0216566 -0.684058)
(-0.57993 0.810438 0.0828983)
(-0.483864 0.816791 0.31421)
(-0.49325 0.709372 0.503484)
(-0.394313 0.917615 -0.0500019)
(-0.506711 0.85611 0.101581)
(-0.546839 0.660602 0.514366)
(-0.493865 0.86948 -0.0100707)
(0.967377 -0.000737858 0.253339)
(-0.604273 0.176633 0.776952)
(0.985613 -0.015389 0.168314)
(-0.594028 0.288053 0.751103)
(0.931781 -0.337714 -0.133166)
(0.979307 -0.16491 -0.117311)
(0.751528 -0.28934 -0.592864)
(0.796346 -0.172219 -0.579804)
(0.91129 -0.38605 -0.143236)
(0.979022 -0.171918 -0.10936)
(0.759555 -0.260282 -0.596096)
(0.792852 0.0329499 -0.608523)
(0.907121 -0.0229986 -0.42024)
(0.816329 0.0233195 -0.577116)
(0.772665 -0.634584 -0.0170929)
(0.983546 -0.143745 -0.109426)
(0.854484 -0.0446346 -0.517557)
(0.710441 -0.309816 -0.631893)
(0.97064 0.237743 -0.0365644)
(0.917666 -0.281766 -0.280173)
(0.677896 -0.512226 -0.527334)
(-0.677366 -0.0404538 0.734533)
(0.793192 0.0540122 -0.606572)
(0.763901 0.213033 -0.609157)
(0.966116 -0.0797119 -0.24549)
(0.980883 -0.149983 -0.123988)
(0.794836 -0.160501 -0.585214)
(0.744149 -0.206785 -0.635203)
(0.985369 -0.130463 -0.109667)
(0.949259 -0.214151 -0.230317)
(0.733157 -0.151634 -0.662939)
(-0.296224 0.0523261 0.953684)
(-0.316068 -0.00296232 0.948732)
(-0.160135 -0.00242637 0.987092)
(-0.109091 -0.00529075 0.994018)
(-0.187792 -0.00391416 0.982201)
(-0.312077 -0.0452123 0.94898)
(-0.267119 -0.0798477 0.96035)
(-0.244305 -0.079167 0.966461)
(0.733128 0.0126889 -0.679973)
(-0.387962 -0.0390793 0.920847)
(0.725707 0.0118252 -0.687903)
(0.731243 0.0180234 -0.681879)
(-0.388617 -0.0628425 0.919254)
(0.7259 0.0177157 -0.687572)
(-0.0582845 -0.00336384 0.998294)
(-0.0273241 -0.00466501 0.999616)
(-0.224058 -0.035031 0.973946)
(-0.305282 -0.0250264 0.951933)
(-0.234851 -0.0308003 0.971543)
(-0.283098 -0.0666336 0.956773)
(-0.332922 -0.0410154 0.942062)
(-0.285696 -0.0535554 0.956823)
(-0.214208 -0.0424429 0.975865)
(-0.287505 -0.0387963 0.956993)
(-0.203667 -0.0488169 0.977822)
(0.065602 -0.0356352 0.997209)
(-0.25498 -0.0447228 0.965911)
(-0.150344 -0.0575136 0.986959)
(0.656763 0.747505 0.0994934)
(0.874982 0.347383 -0.33724)
(0.0535442 0.88561 0.461332)
(-0.357995 0.931492 0.0645223)
(0.177192 0.979701 0.0937451)
(0.731958 0.676025 -0.085012)
(0.906031 0.417809 0.0674038)
(0.504414 0.862422 0.0423723)
(0.903646 0.422545 0.0698542)
(0.573835 0.818738 0.0195069)
(0.0956538 0.994908 0.0317403)
(0.797523 0.547684 -0.252981)
(0.469534 0.880409 0.0664746)
(0.0411747 0.964538 0.260713)
(0.00398764 0.81389 0.581006)
(-0.0899093 0.844031 0.528705)
(0.124834 0.985081 0.118453)
(0.116971 0.992018 0.0470989)
(0.356956 0.874808 0.327556)
(0.759426 -0.601389 -0.248199)
(0.825115 -0.548793 -0.134208)
(0.79284 -0.576674 -0.197109)
(0.758308 -0.644724 -0.096437)
(0.717068 -0.650703 -0.249798)
(0.835097 -0.434462 -0.337426)
(0.762244 -0.639638 -0.0992286)
(0.744964 -0.48484 -0.458212)
(0.777229 -0.439088 -0.450686)
(-0.596387 0.404335 0.693424)
(-0.650565 0.314718 0.691172)
(0.679002 -0.530984 -0.506963)
(0.780173 -0.343085 -0.523089)
(-0.618533 0.344358 0.706282)
(0.838552 0.506337 -0.20113)
(0.934203 0.353146 -0.0505305)
(0.981748 -0.0976571 -0.163201)
(0.942243 0.264475 -0.205504)
(0.966357 0.216242 -0.139262)
(0.829891 0.497344 -0.252843)
(0.884311 0.41697 -0.210074)
(0.888557 0.422204 -0.179471)
(0.357097 -0.493142 0.79328)
(-0.150527 -0.696813 0.70128)
(0.0583512 -0.642642 0.763941)
(0.949486 -0.167244 -0.26553)
(0.748991 -0.0285363 -0.661965)
(0.900274 -0.0712304 -0.429457)
(0.856594 -0.00668034 -0.515948)
(0.936025 -0.036928 -0.349991)
(-0.64813 -0.0790687 0.757414)
(0.722833 0.0630936 -0.688136)
(0.821447 0.0361118 -0.56914)
(0.0198057 -0.00273128 0.9998)
(0.02807 -0.00642014 0.999585)
(0.00182524 -0.0198644 0.999801)
(-0.0503014 -0.0201728 0.99853)
(-0.00459598 -0.0152408 0.999873)
(-0.0241894 -0.00958612 0.999661)
(-0.0608163 -0.0173335 0.997998)
(-0.0125994 -0.0113437 0.999856)
(0.00764341 -0.0243749 0.999674)
(-0.0274417 -0.0338757 0.999049)
(0.01315 -0.0284589 0.999508)
(0.0550318 -0.0300418 0.998033)
(0.0512061 -0.0270534 0.998322)
(-0.0204662 -0.0376585 0.999081)
(0.0235475 -0.0353217 0.999099)
(0.0184331 -0.0321285 0.999314)
(-0.246591 0.963132 0.107558)
(-0.235074 0.928382 0.287833)
(-0.141999 0.835449 0.530906)
(-0.185125 0.980026 0.072654)
(0.0135053 0.995004 0.0989165)
(-0.240782 0.81927 0.520405)
(-0.231682 0.972472 -0.0249233)
(-0.350652 0.928583 0.121558)
(-0.466697 0.680593 0.564789)
(-0.662583 0.737844 0.128728)
(-0.450734 0.66989 0.589988)
(-0.504858 0.852516 0.135405)
(-0.511841 0.851606 0.113079)
(-0.382249 0.723372 0.574995)
(-0.279871 0.951822 0.125328)
(-0.153019 0.975316 0.159198)
(-0.159021 0.783249 0.601027)
(-0.347715 0.717314 0.603784)
(-0.00298733 0.991838 0.127469)
(-0.427725 0.893203 0.138705)
(-0.280565 0.759374 0.587055)
(-0.174531 0.984648 -0.00261566)
(-0.590938 0.64404 0.485803)
(-0.346642 0.937177 -0.0392334)
(-0.555266 0.630014 0.542921)
(-0.479034 0.876297 -0.0512842)
(-0.0862024 0.984496 0.152764)
(-0.567573 0.680308 0.463727)
(-0.63123 0.648183 0.42592)
(-0.205498 0.967045 0.150315)
(-0.295866 0.954398 -0.0398488)
(0.784183 -0.613746 -0.0915084)
(0.67673 -0.444519 -0.58689)
(0.714518 -0.687664 -0.128771)
(-0.54701 0.604062 0.57956)
(-0.572628 0.810151 0.125506)
(0.858245 -0.494792 -0.136373)
(0.643302 -0.511074 -0.570058)
(0.823497 -0.565604 -0.0440999)
(0.811502 -0.246641 -0.529749)
(0.980999 -0.0847366 -0.174529)
(0.670111 -0.590852 -0.449272)
(-0.589183 0.807709 -0.0216879)
(0.995727 0.0244319 0.0890526)
(0.73587 -0.478453 -0.479144)
(-0.659479 0.730162 0.17875)
(-0.203787 0.967589 0.149142)
(-0.454214 0.668566 0.588821)
(-0.465062 0.736827 0.490717)
(-0.496636 0.857853 0.132065)
(-0.45809 0.888739 0.0172184)
(-0.586013 0.607554 0.536159)
(-0.334059 -0.0273553 0.942155)
(0.8119 0.0170298 -0.583548)
(0.84939 0.0264019 -0.527105)
(-0.312947 -0.0586005 0.947961)
(0.781037 0.0111359 -0.624385)
(0.751275 0.0158732 -0.659798)
(-0.370079 -0.0677875 0.926524)
(0.732007 0.0214478 -0.68096)
(0.733106 0.0216322 -0.67977)
(-0.349209 -0.0743952 0.934087)
(0.731913 0.0219636 -0.681044)
(0.729448 0.0213702 -0.683703)
(-0.627821 0.778357 0.000739079)
(0.72994 -0.649814 -0.211963)
(-0.56937 0.821372 0.0341434)
(-0.496355 0.778586 0.383972)
(-0.53767 0.531723 0.654355)
(-0.502479 0.854377 0.132498)
(-0.654039 0.704833 0.274668)
(-0.554581 0.599349 0.577253)
(-0.54678 0.834897 -0.0630721)
(-0.626495 0.776251 0.0702696)
(-0.537618 0.636426 0.553108)
(-0.69871 0.703318 0.130952)
(0.630284 -0.531725 -0.565695)
(-0.55449 0.824064 0.116014)
(0.767974 -0.622578 -0.150375)
(-0.591884 0.594 0.544827)
(-0.584863 0.810562 0.0304083)
(0.743753 -0.425342 -0.51567)
(-0.584431 0.460046 0.66843)
(0.636971 -0.495493 -0.590555)
(0.685757 -0.599754 -0.41235)
(0.784756 -0.609214 -0.114087)
(0.59532 -0.545255 -0.590162)
(-0.396693 0.91483 0.0756386)
(-0.611521 0.789809 0.0473595)
(-0.701032 0.707549 0.0890451)
(0.948469 -0.311434 0.058438)
(0.95516 -0.210882 -0.207843)
(0.695914 -0.202708 -0.688922)
(-0.225779 0.928485 0.294855)
(-0.618561 0.330579 0.712812)
(0.953478 0.171499 -0.247928)
(-0.535478 0.403832 0.741743)
(0.99047 -0.112401 -0.0795992)
(0.813735 -0.136638 -0.564947)
(0.978052 -0.146028 -0.148625)
(0.789874 -0.187478 -0.583911)
(0.947163 -0.246839 -0.204822)
(0.969514 -0.113849 -0.216984)
(0.824151 -0.17573 -0.538418)
(0.928582 -0.370767 0.016333)
(-0.211202 0.972141 -0.101664)
(0.944136 0.247617 -0.217471)
(0.957451 -0.152612 -0.244943)
(0.815179 -0.331059 -0.475272)
(0.700483 -0.288612 -0.652707)
(0.74403 -0.257567 -0.616505)
(0.896699 -0.25367 -0.362744)
(0.936885 -0.278114 -0.211892)
(0.76802 -0.232848 -0.596597)
(0.750872 -0.643049 0.150597)
(0.831822 -0.551304 0.0643168)
(-0.536084 0.842638 -0.0507364)
(0.749105 -0.661192 0.0408298)
(0.755191 -0.654106 0.0427999)
(0.844465 -0.519859 0.128937)
(0.732595 -0.66892 0.125898)
(0.747437 -0.627667 0.21765)
(-0.524692 0.844675 -0.105938)
(0.833923 -0.49899 0.235756)
(-0.657796 0.719006 -0.224354)
(0.844239 -0.4944 0.206953)
(0.706058 -0.673111 0.220007)
(0.721612 -0.632286 0.281941)
(0.948463 -0.31384 0.0438353)
(0.948644 -0.197907 0.246794)
(0.889561 0.179234 0.420186)
(0.924945 -0.240206 0.294579)
(0.929289 -0.300991 0.214073)
(0.918478 -0.388333 0.0748007)
(0.950685 0.126177 0.283333)
(0.937933 -0.304133 0.166688)
(0.913799 -0.173614 0.367192)
(0.947698 -0.201897 0.247197)
(0.907855 -0.397485 -0.133433)
(0.69919 -0.399409 -0.592964)
(0.746621 -0.6525 -0.129619)
(0.672006 -0.453148 -0.585718)
(0.874099 -0.464699 -0.141439)
(0.811435 -0.567585 -0.139357)
(0.716744 -0.361391 -0.596384)
(0.936747 -0.323499 -0.133619)
(0.783121 -0.166399 -0.599194)
(0.965644 -0.147032 -0.214273)
(0.748186 -0.216875 -0.627043)
(0.942069 -0.264826 -0.205848)
(0.984988 -0.162697 -0.0576914)
(0.752616 -0.239926 -0.613192)
(0.915325 -0.379634 -0.134381)
(0.812612 -0.375011 -0.446126)
(0.677733 -0.42131 -0.60264)
(0.71406 -0.298203 -0.633398)
(0.825412 -0.547121 -0.139118)
(0.929369 -0.304285 -0.209006)
(0.716411 -0.332605 -0.613294)
(-0.61188 0.789711 -0.0442683)
(-0.605666 0.785368 -0.127928)
(-0.615111 0.787066 -0.0465402)
(-0.617248 0.769582 -0.163548)
(-0.588503 0.799109 -0.122835)
(-0.492381 0.861657 -0.122915)
(-0.576845 0.797211 -0.178055)
(-0.480823 0.875803 -0.0421642)
(-0.671611 0.734089 -0.100259)
(-0.547105 0.833701 -0.0749583)
(0.927372 -0.00997941 -0.374007)
(0.82658 0.00385745 -0.562806)
(0.826991 0.018517 -0.56191)
(0.752865 -0.658157 0.00479199)
(0.827747 0.189661 -0.528075)
(-0.0905465 0.00477386 0.995881)
(0.909991 -0.317785 -0.266324)
(0.838217 0.537629 -0.0913603)
(0.705623 -0.674653 -0.216654)
(0.679849 -0.658788 -0.322185)
(0.904138 -0.427232 -0.00253783)
(-0.622769 0.216833 0.751759)
(0.794996 -0.0515448 -0.604421)
(0.945664 -0.157649 -0.28437)
(-0.582544 0.51074 0.632287)
(0.915392 -0.402559 -0.00199609)
(0.946596 -0.10632 -0.304388)
(0.918942 -0.257442 -0.298779)
(0.624114 -0.515368 -0.587263)
(0.996629 0.0280933 0.0770827)
(0.853331 0.474824 -0.215332)
(0.692209 0.550169 -0.467076)
(0.996992 0.0761775 -0.0142685)
(0.883153 0.37818 -0.277525)
(0.796903 0.208359 -0.567038)
(0.966228 0.189359 -0.174778)
(0.837398 0.325317 -0.439241)
(0.773718 -0.0205901 -0.633195)
(0.907461 0.306408 -0.287453)
(0.878582 0.258958 -0.401291)
(-0.659091 -0.0969557 0.745787)
(-0.587504 -0.107123 0.802099)
(-0.676525 -0.192482 0.710819)
(0.857329 0.426961 -0.287562)
(-0.689831 -0.216827 0.690738)
(0.813783 0.324503 -0.482136)
(0.930438 -0.021972 -0.36579)
(0.756189 -0.159709 -0.634563)
(0.883988 -0.114823 -0.453189)
(-0.685008 0.0290154 0.727957)
(0.99281 -0.115482 -0.0315089)
(0.848441 0.0406199 -0.527729)
(-0.688251 0.0934492 0.719429)
(0.968847 0.0997396 -0.226688)
(-0.610398 0.161764 0.775401)
(-0.548029 -0.0480195 0.83508)
(0.950448 -0.181191 -0.252623)
(-0.673943 0.0362439 0.737894)
(0.976535 0.154902 -0.149616)
(-0.700405 -0.108854 0.705396)
(-0.59379 -0.125615 0.794754)
(0.952259 0.144986 -0.268666)
(-0.651297 -0.0293957 0.758254)
(-0.520092 0.666357 -0.534296)
(-0.473844 0.879907 -0.0351613)
(0.569767 -0.565835 0.595984)
(-0.0509885 0.861751 -0.504762)
(0.283912 -0.674922 0.681083)
(0.699453 -0.550818 0.455374)
(-0.233225 0.90979 -0.343349)
(-0.610611 0.663266 -0.432704)
(-0.397557 0.917372 -0.0194352)
(0.809697 -0.498716 0.309312)
(-0.588129 0.738832 -0.328987)
(0.693909 -0.633215 0.342824)
(0.765187 -0.530706 0.364472)
(-0.452251 0.834549 -0.314639)
(0.323079 0.850069 0.415936)
(0.336768 0.537223 0.773291)
(0.674171 -0.207997 0.708682)
(0.629263 -0.241728 0.738645)
(0.712083 -0.24517 0.657898)
(0.846267 -0.183432 0.500185)
(0.912331 -0.22016 0.345228)
(0.751628 0.221781 0.621183)
(0.858919 -0.128497 0.495729)
(0.916346 -0.162536 0.365913)
(0.85489 -0.1946 0.480931)
(0.696711 -0.224056 0.681464)
(0.727989 0.116852 0.675557)
(0.832408 -0.122307 0.540498)
(0.269954 0.928889 0.253555)
(0.0792147 0.928987 0.361536)
(0.266384 0.582208 0.768162)
(0.623502 0.779229 0.0636275)
(0.240063 0.560179 0.792824)
(-0.399926 0.907805 -0.126287)
(-0.111961 0.986389 0.120421)
(0.308909 0.497471 0.810615)
(0.637602 0.76979 0.0297905)
(0.296488 0.514486 0.804611)
(-0.443283 0.100058 0.89078)
(-0.494643 0.0173417 0.868923)
(-0.312385 0.00709759 0.949929)
(-0.261213 -0.0172765 0.965126)
(-0.16575 -0.0652279 0.984008)
(-0.143243 -0.0433892 0.988736)
(-0.443841 -0.0776461 0.892735)
(-0.303174 -0.0862564 0.949023)
(-0.28808 -0.0585421 0.955815)
(-0.58876 0.016377 0.808142)
(-0.32536 0.00368678 0.945583)
(-0.173589 -0.033109 0.984261)
(-0.307261 -0.071736 0.948917)
(-0.244407 -0.0372936 0.968955)
(-0.532894 -0.0451602 0.844976)
(-0.397032 -0.0792855 0.914374)
(-0.359554 -0.0396355 0.932282)
(-0.29511 -0.0367659 0.954756)
(-0.196216 -0.0672505 0.978252)
(-0.220264 -0.072776 0.972722)
(-0.290361 -0.0911897 0.952562)
(-0.343048 -0.0935978 0.934643)
(-0.294677 -0.090379 0.951313)
(-0.307765 -0.0795419 0.948132)
(-0.381331 -0.0927604 0.919773)
(-0.300226 -0.085602 0.950019)
(-0.390976 -0.04158 0.919461)
(0.719416 0.0134752 -0.694449)
(0.722095 0.0120289 -0.691689)
(-0.390181 -0.0553288 0.919074)
(0.719921 0.0139311 -0.693916)
(0.721433 0.0182928 -0.692243)
(0.00791993 -0.00325652 0.999963)
(-0.0070596 -0.00371953 0.999968)
(-0.122286 -0.0229813 0.992229)
(-0.146075 -0.0329504 0.988725)
(-0.0867344 -0.0188062 0.996054)
(-0.0402068 -0.0120898 0.999118)
(-0.116818 -0.0253165 0.992831)
(-0.0602787 -0.0139241 0.998084)
(-0.152981 -0.0335717 0.987659)
(-0.103486 -0.0251256 0.994313)
(-0.162894 -0.02889 0.98622)
(-0.312372 -0.0274185 0.949564)
(-0.259748 -0.0377556 0.964938)
(-0.247393 -0.0340698 0.968316)
(-0.116295 -0.0240154 0.992924)
(-0.192793 -0.0342011 0.980643)
(-0.176399 -0.0302478 0.983854)
(-0.277486 -0.0722083 0.958012)
(-0.212793 -0.047604 0.975937)
(-0.255137 -0.0568016 0.965235)
(-0.329167 -0.0363954 0.94357)
(-0.271565 -0.041395 0.96153)
(-0.28087 -0.046964 0.958596)
(-0.17962 -0.0373065 0.983028)
(-0.211286 -0.0390256 0.976645)
(-0.232317 -0.0466637 0.97152)
(-0.143882 -0.0398503 0.988792)
(-0.0762087 -0.039764 0.996299)
(-0.133976 -0.0453218 0.989948)
(-0.281611 -0.0430139 0.958564)
(-0.180324 -0.0561744 0.982002)
(-0.192122 -0.0529225 0.979943)
(-0.0672825 -0.0436426 0.996779)
(-0.113091 -0.0526491 0.992189)
(-0.123498 -0.0493563 0.991117)
(0.0587627 -0.0324431 0.997745)
(0.062284 -0.0342742 0.99747)
(0.00357757 -0.0460054 0.998935)
(0.0371251 -0.040891 0.998474)
(0.0284225 -0.0377677 0.998882)
(-0.00166262 -0.0447906 0.998995)
(0.0329401 -0.039533 0.998675)
(-0.260724 -0.0449108 0.964368)
(-0.169091 -0.0576557 0.983913)
(-0.159006 -0.0572549 0.985616)
(-0.03653 -0.051091 0.998026)
(-0.086574 -0.055538 0.994696)
(-0.103225 -0.0544728 0.993165)
(-0.0430818 -0.0501262 0.997813)
(-0.0943032 -0.0549122 0.994028)
(0.877936 0.209721 -0.430402)
(0.709658 0.104088 -0.696815)
(0.903122 0.222003 -0.36754)
(-0.625356 -0.127746 0.769812)
(0.876516 0.180646 -0.446191)
(0.900064 0.216937 -0.377919)
(-0.69564 -0.131331 0.706284)
(-0.394032 -0.0441059 0.918038)
(-0.284006 -0.065878 0.956557)
(-0.342774 -0.0651137 0.937158)
(-0.452399 -0.0516659 0.890318)
(-0.2504 -0.0491337 0.966895)
(-0.426979 -0.0499932 0.902879)
(-0.441491 -0.0492909 0.895911)
(-0.443595 -0.0354053 0.895528)
(-0.450532 -0.0383481 0.891936)
(-0.391672 -0.0343777 0.919463)
(-0.380348 -0.0531644 0.923314)
(-0.444921 -0.0327615 0.89497)
(-0.392882 -0.0365402 0.918863)
(-0.449469 -0.0414744 0.892332)
(0.959084 0.0406979 -0.28018)
(0.74151 0.0487867 -0.669166)
(0.992917 0.107117 -0.0514019)
(0.780827 -0.0497665 -0.622762)
(0.909578 0.0743293 -0.408832)
(0.968401 0.0825531 0.23534)
(0.785336 0.0206318 -0.618726)
(-0.354973 -0.446203 0.821521)
(-0.179606 -0.130936 0.974986)
(-0.0994974 0.129047 0.986634)
(-0.52685 0.0461535 0.848704)
(0.968072 0.0748248 0.239244)
(-0.0972811 -0.221928 0.970198)
(-0.535499 -0.234175 0.81142)
(-0.44728 -0.0295137 0.893907)
(-0.451298 -0.0366471 0.89162)
(-0.391297 -0.0343659 0.919622)
(-0.383056 -0.0417789 0.92278)
(-0.445174 -0.0326716 0.894848)
(-0.390557 -0.0290216 0.920121)
(-0.452797 -0.0345277 0.890945)
(-0.473905 -0.0477402 0.879281)
(-0.304364 -0.0513609 0.95117)
(-0.462434 -0.0508071 0.885197)
(-0.378256 -0.0695048 0.923088)
(-0.452437 -0.0459582 0.890611)
(-0.326653 -0.0575972 0.943388)
(-0.469259 -0.0506885 0.881605)
(-0.681518 0.706648 0.190213)
(-0.622916 0.780397 -0.0543721)
(-0.533915 0.8315 0.153435)
(-0.552622 0.832343 -0.0425811)
(0.682596 -0.655468 -0.323147)
(-0.615079 0.688103 0.384958)
(-0.666765 0.74476 0.0275097)
(0.739186 -0.473038 -0.479415)
(0.758899 -0.286187 -0.584953)
(-0.626737 0.286442 0.724673)
(0.825181 -0.191623 -0.531373)
(-0.62219 0.325809 0.711848)
(0.497822 0.282932 0.819831)
(0.380758 0.571805 0.726679)
(0.253421 -0.610827 0.750112)
(0.663357 -0.509376 -0.548173)
(0.778299 -0.614103 -0.130876)
(-0.0442983 -0.0173585 0.998868)
(-0.264664 -0.0315583 0.963824)
(-0.120246 -0.0379081 0.99202)
(-0.365086 -0.0301721 0.930485)
(-0.0951687 -0.0201503 0.995257)
(-0.109011 -0.0124013 0.993963)
(-0.367188 -0.0335371 0.929542)
(-0.241437 -0.0262224 0.970062)
(-0.290651 -0.0505019 0.955495)
(-0.12956 -0.0243442 0.991273)
(-0.3782 -0.0284369 0.925287)
(-0.176538 -0.0179312 0.98413)
(-0.161348 -0.0445599 0.985891)
(-0.393811 -0.0325339 0.918615)
(-0.424422 -0.0511979 0.904016)
(-0.362352 -0.0724206 0.929224)
(-0.373147 -0.0534956 0.926229)
(-0.431803 -0.0609843 0.899904)
(-0.421906 -0.0532779 0.905073)
(-0.37612 -0.0500253 0.92522)
(-0.433662 -0.0594063 0.899115)
(-0.419899 -0.049234 0.906234)
(-0.355395 -0.0750665 0.931697)
(-0.369962 -0.0523477 0.927571)
(-0.430029 -0.0613269 0.90073)
(-0.422488 -0.0528145 0.904829)
(-0.367822 -0.0486281 0.928624)
(-0.428191 -0.0599087 0.9017)
(0.996819 0.0544839 -0.0581684)
(0.932219 -0.282603 -0.226061)
(0.737059 -0.675259 0.0277313)
(0.712669 -0.665393 -0.222158)
(-0.678212 0.732664 -0.0568548)
(-0.650741 0.755368 -0.0771672)
(-0.403496 0.914912 -0.0112199)
(-0.512719 0.854345 -0.0849363)
(-0.669899 0.741397 -0.039584)
(-0.702184 0.710886 -0.0397347)
(-0.542068 0.839836 -0.0289425)
(-0.676884 0.726081 -0.120971)
(-0.539887 0.841701 -0.0078534)
(0.732354 -0.665227 0.145362)
(-0.520501 0.85148 -0.0637296)
(0.716912 -0.69161 0.0878261)
(-0.461149 0.887111 0.0193882)
(-0.665741 0.732244 -0.143551)
(0.777755 -0.623867 0.076721)
(0.804768 -0.593139 0.0231192)
(0.840371 -0.524532 0.136538)
(0.796332 -0.60165 0.0622341)
(0.996065 0.0320539 0.0826254)
(0.895876 0.443441 0.0276834)
(0.66293 0.650775 0.370157)
(0.863311 0.400202 0.30746)
(0.990932 0.0797912 -0.108107)
(0.852383 0.0216815 -0.522469)
(0.729315 0.183635 0.659073)
(0.828712 0.00370529 -0.559663)
(0.9899 0.0554152 -0.130486)
(0.739223 -0.0127387 0.67334)
(0.8504 0.0174123 -0.525848)
(0.825543 -0.071648 -0.559773)
(-0.671365 0.0984966 0.734553)
(0.643076 -0.0417537 0.764663)
(0.774923 -0.066604 -0.628536)
(0.932633 -0.0178607 -0.360383)
(0.557846 0.219009 0.800527)
(-0.699249 0.143363 0.700356)
(0.936625 0.126856 -0.326561)
(0.775357 -0.0674975 -0.627906)
(0.911092 -0.139765 -0.387785)
(0.747797 0.034753 -0.663018)
(0.959237 -0.0638093 -0.275305)
(0.888487 0.0995182 -0.447981)
(0.777591 0.113171 -0.618502)
(-0.455712 0.780356 -0.428219)
(-0.38236 0.918879 -0.0972715)
(0.627129 -0.490552 0.605036)
(0.126138 0.954388 0.270614)
(-0.334065 0.737837 -0.586513)
(0.673171 -0.417984 0.610025)
(0.170339 0.928248 0.330665)
(-0.640097 0.728759 -0.243282)
(-0.460414 0.8849 -0.0705047)
(0.731401 -0.65362 0.194508)
(-0.423055 0.905072 -0.043239)
(-0.664164 0.728695 -0.167001)
(0.728705 -0.648768 0.21929)
(-0.46222 0.878329 -0.122029)
(0.358487 0.578833 0.73242)
(0.611341 0.387942 0.689756)
(0.736804 0.0433693 0.674714)
(0.67468 -0.669094 0.311642)
(0.795588 -0.593112 0.123524)
(0.840645 -0.507707 0.188544)
(0.374528 0.667057 0.644021)
(0.374803 0.734384 0.565864)
(0.647461 0.630354 0.428309)
(0.565552 0.700609 0.435083)
(-0.476318 -0.0296992 0.878771)
(-0.392652 -0.0442258 0.918623)
(-0.383324 -0.029633 0.923139)
(-0.46841 -0.0344535 0.882839)
(-0.479616 -0.0286917 0.877009)
(-0.390875 -0.0332926 0.919842)
(-0.465988 -0.0341112 0.884133)
(-0.487325 -0.0322932 0.872623)
(-0.391686 -0.0472723 0.918884)
(-0.379346 -0.0352639 0.924583)
(-0.47065 -0.0362885 0.881573)
(-0.484756 -0.0315201 0.874081)
(-0.371125 -0.032786 0.928004)
(-0.472855 -0.038011 0.88032)
(0.699688 0.712689 0.0501164)
(0.816289 0.576346 0.0386956)
(0.826797 0.558509 0.0668865)
(0.667621 0.740995 0.0721669)
(0.849852 0.475449 -0.227376)
(0.831016 0.556112 0.0123024)
(0.994965 0.0782485 0.0626294)
(0.830358 0.552266 0.0742154)
(0.918141 0.394679 0.0352897)
(0.974881 0.199324 0.0993797)
(0.977797 0.117642 0.173419)
(0.969629 -0.0431767 0.24074)
(0.968222 0.0474432 0.24555)
(0.941316 0.268445 0.204603)
(0.97942 0.201482 0.0118801)
(0.995688 0.0579031 0.0724688)
(0.997446 -0.0106864 -0.0706187)
(0.92807 0.356287 0.108376)
(0.955698 -0.0106201 -0.294156)
(0.995709 0.0794735 -0.0474081)
(0.999625 -0.0164545 0.0218786)
(0.921212 -0.0542913 -0.385254)
(0.954571 -0.0763135 0.288047)
(0.976607 0.00873126 0.214853)
(0.960681 -0.0426994 0.274352)
(0.923959 0.0323007 0.381125)
(0.963735 -0.0602273 -0.259977)
(0.991598 0.0966926 0.0859259)
(0.988821 0.0462602 -0.141748)
(0.999546 0.023365 0.0189975)
(0.0749808 -0.00418874 0.997176)
(0.0592248 -0.00415262 0.998236)
(0.0721825 -0.00435247 0.997382)
(0.0603756 -0.00741375 0.998148)
(0.0935067 -0.00530675 0.995605)
(0.0942879 -0.00591313 0.995527)
(0.093077 -0.00395346 0.995651)
(0.0921048 -0.00205783 0.995747)
(0.0750782 -0.00828979 0.997143)
(0.062304 -0.0102328 0.998005)
(0.0776168 -0.00682377 0.99696)
(0.0616345 -0.00864315 0.998061)
(0.0799327 -0.0135915 0.996708)
(0.0663127 -0.0158175 0.997674)
(0.0666997 -0.0147877 0.997664)
(0.082538 -0.0120738 0.996515)
(0.0955227 -0.00818656 0.995394)
(0.0948973 -0.00752346 0.995459)
(0.0962146 -0.00967343 0.995314)
(0.0967114 -0.0100288 0.995262)
(0.0801542 -0.00972187 0.996735)
(0.0642282 -0.0118751 0.997865)
(0.0775858 -0.0110492 0.996924)
(0.0643357 -0.0133202 0.997839)
(-0.327931 0.919607 0.216296)
(-0.366557 0.92445 0.105017)
(-0.306661 0.91814 0.250953)
(-0.278201 0.956734 0.0852301)
(-0.274767 0.937578 0.21319)
(-0.383675 0.888296 0.252437)
(-0.325227 0.941544 0.0878741)
(-0.339806 0.929902 0.140767)
(-0.361406 0.931624 -0.0382477)
(-0.389069 0.919256 0.0599403)
(-0.329457 0.943437 -0.0371979)
(-0.394068 0.908375 0.139877)
(-0.350479 0.934369 0.0641814)
(-0.328809 0.943879 -0.0312709)
(-0.367726 0.904739 0.214999)
(-0.418295 0.902271 0.104575)
(-0.477894 0.84188 0.250709)
(-0.413774 0.905963 0.089563)
(-0.417243 0.883058 0.214748)
(-0.413167 0.875736 0.249758)
(-0.371699 0.924048 0.089302)
(-0.314314 0.938283 0.144332)
(-0.269768 0.960945 0.0617328)
(-0.266221 0.963603 -0.0244096)
(-0.296625 0.954439 -0.0325461)
(-0.259513 0.955754 0.138517)
(-0.309872 0.948543 0.0651596)
(-0.297633 0.954271 -0.0279528)
(0.905948 -0.342872 -0.248388)
(0.874111 -0.474657 -0.103108)
(0.923408 -0.380881 -0.0473985)
(0.822397 -0.517537 -0.236259)
(0.934281 -0.346129 -0.0855178)
(0.846904 -0.460638 -0.265644)
(0.90292 -0.388628 -0.183586)
(0.890323 -0.338579 -0.304448)
(0.892845 -0.433056 -0.123653)
(0.939318 -0.317481 -0.129949)
(0.860761 -0.397275 -0.318218)
(0.893991 -0.304594 -0.328638)
(0.935218 -0.336211 -0.111043)
(0.852233 -0.430889 -0.296705)
(0.949832 -0.225917 -0.216289)
(0.976749 -0.214384 0.000364912)
(0.9981 -0.0107427 -0.0606704)
(0.99192 0.000821521 -0.126866)
(0.97739 -0.0401375 -0.207599)
(0.976166 -0.206249 -0.0675426)
(0.955578 -0.261189 -0.136569)
(0.750878 0.112897 -0.65072)
(-0.683652 -0.0818177 0.725208)
(0.805906 0.0487906 -0.590029)
(0.731307 0.0871795 -0.676454)
(-0.6935 -0.102275 0.71316)
(0.852817 0.222404 -0.472482)
(-0.541769 -0.085764 0.83614)
(-0.265861 0.0530451 0.962551)
(-0.567926 -0.0886316 0.818293)
(-0.601824 -0.0393027 0.797661)
(-0.520089 -0.0818632 0.85018)
(-0.655172 -0.128183 0.744526)
(0.769575 0.138698 -0.623311)
(0.815154 0.0562955 -0.576502)
(0.712098 0.0907901 -0.696185)
(0.773994 0.117313 -0.62223)
(0.705929 0.114468 -0.698972)
(-0.364332 -0.0446763 0.930197)
(-0.332805 -0.0680273 0.940539)
(-0.209058 -0.0425353 0.976978)
(-0.420683 -0.0468725 0.905996)
(-0.23393 -0.0568975 0.970587)
(-0.334251 -0.0437163 0.94147)
(-0.430284 -0.0484575 0.901392)
(-0.649336 -0.0122252 0.760403)
(-0.581474 -0.0270985 0.813114)
(0.737251 0.0161089 -0.675427)