/*--------------------------------*- C++ -*----------------------------------*\
| =========                 |                                                 |
| \\      /  F ield         | OpenFOAM: The Open Source CFD Toolbox           |
|  \\    /   O peration     | Version:  2012                                  |
|   \\  /    A nd           | Website:  www.openfoam.com                      |
|    \\/     M anipulation  |                                                 |
\*---------------------------------------------------------------------------*/
FoamFile
{
    version     2.0;
    format      ascii;
    class       volVectorField;
    location    "0.108/solid";
    object      sigmaMidDir;
}
// * * * * * * * * * * * * * * * * * * * * * * * * * * * * * * * * * * * * * //

dimensions      [1 -1 -2 0 0 0 0];


internalField   nonuniform List<vector> 
3124
(
(0.202325 0.794146 -0.573059)
(0.771632 0.456859 -0.442565)
(0.295845 0.950161 0.0983315)
(0.075253 0.976658 0.201189)
(-0.320942 0.945825 -0.0490994)
(-0.229691 0.972245 -0.0445138)
(0.701494 0.514543 -0.493104)
(0.946905 0.231016 0.223611)
(-0.0185491 0.410062 0.911869)
(0.259651 0.964794 0.0418709)
(0.150341 0.972597 0.177348)
(0.294168 0.950877 0.0964268)
(0.956096 0.217841 0.196024)
(0.460874 0.66625 0.586264)
(0.263653 0.962325 0.066474)
(0.356474 0.74583 0.562729)
(0.710325 0.455384 0.536716)
(0.914884 -0.27062 0.299585)
(-0.22488 0.97341 -0.0436216)
(-0.274554 0.960771 -0.0392203)
(0.953019 0.0481932 0.299052)
(0.943368 -0.0139534 0.331453)
(0.955124 0.0390692 0.293618)
(0.813319 0.539666 -0.217422)
(-0.634469 0.757261 0.154937)
(0.897533 0.335933 -0.285629)
(0.885729 0.439715 -0.148777)
(0.318236 0.727609 -0.607709)
(-0.189126 -0.356657 0.914892)
(0.0357488 0.726771 -0.685948)
(0.469423 0.882251 -0.0357147)
(-0.22829 -0.297053 0.927169)
(0.0370989 0.9989 0.0286859)
(-0.443827 0.896102 0.00428585)
(-0.36202 0.787104 -0.499409)
(0.445239 0.891961 -0.0785319)
(0.180582 0.980257 0.0805359)
(0.73019 0.333857 0.596123)
(0.986434 0.157731 0.0454927)
(0.972792 0.218262 0.0777022)
(0.985132 0.16729 0.0391063)
(0.977975 0.207561 0.0219795)
(0.90052 0.313049 -0.301767)
(0.732435 0.678482 -0.0565812)
(0.859856 0.448724 -0.243503)
(0.862018 0.422382 -0.280211)
(0.837299 0.462737 -0.291213)
(0.653931 0.756 -0.0289438)
(0.706054 0.625627 0.331781)
(0.777264 0.561622 -0.283621)
(-0.365125 0.929152 -0.0579654)
(-0.357751 0.931613 -0.0641258)
(-0.432998 0.896419 -0.0945808)
(-0.433617 0.89625 -0.0933431)
(-0.3131 -0.658004 0.684835)
(0.674737 0.736768 -0.043631)
(0.513938 0.855761 -0.0595019)
(-0.071179 -0.106636 0.991747)
(0.204001 0.978246 0.0376647)
(0.272178 0.85561 0.440285)
(0.456953 0.888386 0.0443233)
(0.88015 0.474636 0.00754552)
(-0.148502 0.0317619 0.988402)
(-0.460314 0.699714 0.546362)
(0.172395 0.372275 0.911971)
(-0.221533 -0.464954 0.85717)
(0.770556 0.485828 0.412571)
(0.0496313 0.146811 0.987919)
(-0.415958 0.87721 0.239752)
(0.311427 0.884555 -0.347239)
(0.602827 0.797809 -0.0100655)
(0.224393 0.974174 0.0251513)
(0.488232 0.872701 0.00479031)
(0.567298 0.318921 0.759251)
(0.0325253 0.111607 0.99322)
(0.221681 0.928879 0.296717)
(0.769192 0.362425 0.5263)
(0.310537 0.906957 0.284597)
(0.181562 0.981311 0.0637456)
(-0.372882 0.927376 -0.0305394)
(0.03546 0.998328 0.0456465)
(0.797743 0.301919 0.521968)
(-0.358408 0.930838 0.0712985)
(0.239955 0.968781 0.0623283)
(0.829087 0.354532 0.432344)
(-0.281836 0.959306 0.0173383)
(0.600772 -0.493795 0.628681)
(0.602635 0.02189 0.797716)
(-0.381089 0.88488 0.267878)
(0.365429 0.410998 0.83519)
(0.728289 0.507121 0.460893)
(0.178993 0.980868 -0.0765436)
(0.235864 0.0323147 0.971249)
(-0.0224157 0.043383 0.998807)
(0.299739 0.952828 -0.0476976)
(-0.358881 0.929709 0.0827434)
(0.0807012 0.996656 0.0127963)
(0.0841662 -0.183614 0.979389)
(-0.03144 0.00832578 0.999471)
(0.317385 0.935934 0.152625)
(0.960735 -0.10648 0.256222)
(0.800398 0.393321 0.452395)
(0.904965 0.347783 0.245123)
(0.79538 0.353039 0.492681)
(0.865365 -0.444501 0.231436)
(0.849613 0.425987 0.310953)
(0.780875 0.470928 0.41044)
(-0.159621 0.986923 -0.0224444)
(-0.180392 0.983241 -0.0263926)
(0.919951 0.344286 0.187504)
(0.964397 0.24619 0.0965844)
(0.983672 0.151369 0.0973508)
(0.945051 0.0690157 0.319555)
(0.965155 0.223596 0.135945)
(0.87276 0.414538 0.257775)
(0.941931 0.0829893 0.325391)
(0.953199 0.258562 0.156711)
(0.982921 0.160706 0.0896688)
(0.960584 0.0347823 0.275804)
(0.97793 0.197961 0.0668104)
(0.976689 0.214021 0.0165476)
(0.963433 0.00460454 0.26791)
(0.978101 0.199507 0.0592985)
(0.724426 -0.682348 0.0980234)
(-0.483637 0.775382 0.406051)
(0.187638 0.982147 -0.0133696)
(-0.0749207 0.994573 -0.0721912)
(0.216254 0.976292 0.00939277)
(0.136188 0.990225 0.0301106)
(0.988096 0.149552 -0.0360714)
(0.988654 0.146764 -0.0319997)
(0.985996 0.162041 -0.0394404)
(0.982939 0.178995 -0.042319)
(0.944147 0.320397 -0.0770266)
(0.826197 0.392011 -0.40463)
(0.807001 0.564938 -0.172032)
(0.929526 0.357255 -0.0913834)
(0.873698 0.473586 -0.111213)
(0.860626 0.478045 -0.175487)
(0.963444 0.262198 -0.0550358)
(-0.0219663 -0.185434 0.982411)
(0.214868 0.961528 0.171158)
(0.419104 0.907362 0.0323545)
(0.310989 0.930115 0.195375)
(0.292438 0.351937 0.889168)
(-0.0349557 0.872498 0.487366)
(0.453838 0.890984 -0.0133486)
(0.0639931 0.986455 0.151032)
(0.43672 0.866164 0.242973)
(0.0365919 0.991126 0.127791)
(-0.325116 0.944275 -0.0514291)
(-0.026123 0.999655 -0.00261471)
(-0.0196439 0.999801 0.00352282)
(-0.0150215 0.999883 0.00299412)
(-0.312546 0.948001 -0.060072)
(-0.00191092 0.999617 0.0276041)
(-0.537722 0.832622 -0.132648)
(-0.0412975 0.99907 -0.0123874)
(0.814651 0.576279 0.0651617)
(-0.546066 -0.562356 0.620941)
(0.746037 0.642624 -0.174538)
(0.91733 0.389768 -0.0811611)
(0.844719 0.516579 -0.139989)
(0.674438 0.711596 -0.196889)
(-0.230392 -0.119678 0.965711)
(-0.203608 -0.597305 0.775739)
(0.769132 0.383943 0.510905)
(-0.152738 0.345321 0.925972)
(0.770468 0.472212 0.428246)
(0.35885 0.912312 0.197263)
(0.146053 0.977155 -0.154393)
(0.37762 0.925568 0.0269676)
(0.23302 0.971967 0.0313431)
(0.409872 0.817124 0.405357)
(0.140359 0.95811 -0.24965)
(0.345173 0.938052 0.0302307)
(0.0531304 0.990998 0.122884)
(0.0474226 0.997732 0.0477621)
(0.0596729 0.990433 0.124427)
(0.503872 0.596688 0.624561)
(0.14343 0.989602 -0.0107824)
(0.197583 0.949348 0.244335)
(0.440486 0.896016 0.0559258)
(-0.222752 0.945787 0.236364)
(0.37352 0.852217 0.366346)
(0.580898 0.81285 -0.0428079)
(0.343627 0.865463 0.364548)
(-0.272497 0.922254 -0.274212)
(-0.142763 0.97634 0.162414)
(0.218605 0.758377 0.614065)
(0.140578 0.986713 -0.0814544)
(0.261954 0.960655 0.0923153)
(0.340201 0.935647 0.0939583)
(0.131172 0.991359 -0.000756157)
(0.272117 0.926437 0.260128)
(0.305458 0.944383 0.121803)
(0.79998 0.5591 0.217806)
(0.809899 0.519984 0.27144)
(0.885331 0.441869 0.144712)
(0.963585 0.245037 0.107055)
(0.957638 0.221541 0.183979)
(0.887414 -0.370573 0.274176)
(0.921615 0.269999 0.278794)
(0.934956 0.24516 0.256424)
(-0.0151122 0.999883 0.00236513)
(-0.145232 0.989211 -0.0192073)
(-0.0178801 0.999839 -0.00167517)
(-0.0196385 0.999793 0.00536625)
(-0.222451 0.974558 -0.0274186)
(-0.0163347 0.99983 0.008516)
(0.966556 0.24998 0.0572738)
(0.971102 0.237059 0.027651)
(0.965534 0.127837 0.226721)
(0.949848 0.0631249 0.306273)
(0.961258 0.141041 0.236836)
(0.908399 0.3014 0.289775)
(0.93555 0.110583 0.335436)
(0.914592 0.282924 0.288922)
(0.967011 0.131788 0.217997)
(0.955847 0.0518097 0.289261)
(0.966816 0.147309 0.208729)
(0.964982 0.25663 -0.0543113)
(0.966435 -0.0442773 0.253068)
(0.982964 0.0980709 0.15545)
(0.752575 -0.641329 -0.149426)
(-0.438747 0.863443 -0.248932)
(0.921483 0.134168 -0.364511)
(0.93136 0.361149 -0.0462631)
(0.975113 -0.161865 -0.151507)
(-0.579209 0.683077 0.444884)
(-0.416995 0.908525 -0.0264007)
(0.858579 -0.506168 0.0814629)
(-0.421005 0.906336 -0.0361986)
(0.764964 -0.527335 -0.369794)
(0.994667 -0.0967689 0.0356789)
(-0.455483 0.821601 0.342792)
(0.882409 -0.47048 -0.0016043)
(0.795986 0.12605 -0.592046)
(0.903504 0.246068 -0.3509)
(0.943257 0.242547 -0.226799)
(0.965875 -0.0933481 -0.241602)
(0.993049 -0.116205 -0.018694)
(0.86752 -0.180423 -0.463526)
(0.392275 0.727615 -0.562758)
(-0.241577 -0.557456 0.794282)
(0.594913 0.802528 0.0450227)
(0.604012 0.750527 -0.268102)
(0.537915 0.744545 -0.395348)
(0.364675 0.896462 -0.25173)
(-0.429956 -0.614923 0.661066)
(0.285461 0.852488 -0.437923)
(0.551545 0.820158 0.152113)
(0.456246 0.881505 -0.121606)
(0.430372 0.902632 -0.00591666)
(0.386099 0.845626 -0.36857)
(0.387637 0.921439 -0.0262067)
(0.394377 0.913491 -0.100006)
(-0.540856 0.818107 -0.195388)
(-0.356743 0.924775 -0.132387)
(0.10114 0.994785 0.0131486)
(-0.263189 0.964142 0.0340799)
(-0.218501 0.975836 -0.00094973)
(-0.525798 0.848743 -0.0563101)
(-0.42185 0.906368 0.0232353)
(-0.433071 0.901027 -0.0244711)
(0.231727 0.869496 0.436209)
(0.31512 0.638542 0.702114)
(0.452593 0.699111 0.553536)
(0.184611 0.981928 0.0416648)
(0.504687 0.671901 0.542071)
(0.112102 0.991185 0.0706013)
(0.276077 0.850688 0.447338)
(0.0738993 0.992932 0.092873)
(0.746467 0.130878 0.652425)
(0.552639 0.545055 0.630479)
(0.123001 0.963285 0.238648)
(0.982968 0.182795 -0.0189729)
(0.987076 0.158013 -0.0267038)
(0.988109 0.153751 0.00125089)
(0.985301 0.162424 0.0529163)
(0.987954 0.154595 0.00689764)
(0.979174 0.201398 0.0256249)
(0.980421 0.186568 0.0629856)
(0.984972 0.172117 0.0143645)
(0.986395 0.164353 -0.0035345)
(0.98271 0.182157 0.0331695)
(0.983724 0.179514 -0.00783104)
(0.975127 0.21655 -0.0472504)
(0.97922 0.197776 -0.0448668)
(0.980171 0.196242 0.0274758)
(0.977657 0.209623 -0.0156312)
(0.98069 0.195209 -0.0118135)
(0.963787 0.255346 -0.0768972)
(0.856091 0.33799 -0.390988)
(0.909108 0.322257 -0.263958)
(0.968743 0.194416 -0.154079)
(0.977392 0.00773907 -0.211293)
(0.892506 0.397588 -0.212973)
(0.969034 0.228462 -0.0936961)
(0.91646 0.366955 -0.159514)
(0.781646 0.616189 -0.0966414)
(0.674573 0.662559 -0.325526)
(0.789768 0.607318 -0.0862082)
(-0.195186 -0.265545 0.944134)
(0.843343 0.523172 -0.122733)
(0.83806 0.533521 -0.114065)
(0.944163 0.296529 -0.143618)
(-0.338093 -0.203041 0.918949)
(0.892792 0.37397 -0.251135)
(0.837039 0.527634 -0.1448)
(0.949053 0.0429782 -0.312173)
(-0.203643 -0.244726 0.947966)
(0.878816 0.449173 -0.161015)
(0.887382 0.158441 0.432954)
(0.597215 0.754097 -0.273262)
(0.918426 0.330613 -0.217228)
(0.673691 0.723513 -0.150567)
(-0.466079 -0.204407 0.860807)
(-0.280482 -0.171114 0.944484)
(0.639774 0.718944 -0.271679)
(0.582511 0.758779 -0.291439)
(0.880758 0.249708 -0.402383)
(-0.269897 -0.0435067 0.961906)
(-0.0465905 -0.205286 0.977592)
(0.544895 0.838477 -0.00676853)
(0.644751 0.718684 -0.260364)
(0.709387 0.702069 -0.0622039)
(-0.103655 -0.22341 0.969198)
(0.282306 0.233202 0.930548)
(0.598566 0.799986 -0.0417373)
(-0.0753454 -0.186082 0.979641)
(0.422634 0.873779 0.240603)
(0.184092 0.690527 0.699487)
(0.54806 0.802056 -0.237352)
(-0.277217 -0.176858 0.94439)
(0.0119859 0.922012 -0.386976)
(0.489825 0.864702 -0.111182)
(-0.238417 -0.428672 0.871434)
(-0.202876 -0.190769 0.960442)
(0.750465 0.643306 -0.151524)
(0.712322 0.640588 -0.286783)
(-0.121085 -0.219144 0.96815)
(-0.276633 -0.160942 0.947403)
(0.645469 0.750013 -0.144397)
(0.483371 0.853155 0.19616)
(0.0577276 0.992334 0.109277)
(0.0205808 0.996331 0.0830691)
(-0.368577 0.927368 -0.0643492)
(0.0209982 0.998807 0.0440801)
(-0.021532 0.999768 -0.000465231)
(-0.3142 0.947694 -0.0561637)
(-0.0229689 0.999713 0.00679668)
(-0.00256479 0.999575 0.0290433)
(-0.537552 0.832408 -0.134667)
(-0.0254167 0.999665 0.00492389)
(-0.0398222 0.999143 -0.0112568)
(0.776954 0.626746 -0.0594263)
(0.546557 0.741126 -0.389882)
(-0.424109 -0.329062 0.843712)
(-0.335636 -0.58002 0.742243)
(0.496513 0.826918 -0.263972)
(-0.112096 -0.216334 0.969863)
(0.485637 0.66962 -0.561931)
(0.56093 0.781665 -0.272686)
(-0.38214 -0.181819 0.906041)
(0.750073 0.624955 -0.216383)
(0.718909 0.688756 -0.0937316)
(0.676758 0.709146 -0.197766)
(0.629016 0.776838 -0.0293552)
(0.811696 0.566301 -0.143011)
(0.634714 0.771222 0.0485322)
(0.659955 0.745209 -0.0955118)
(-0.471455 -0.370207 0.800423)
(0.562184 0.815366 0.138299)
(0.510942 0.848579 -0.137299)
(0.592401 0.804824 -0.036309)
(0.484611 0.798952 -0.356128)
(0.617121 0.750899 0.235187)
(0.592413 0.794064 -0.136049)
(0.826344 0.391772 -0.404561)
(-0.0936758 -0.131705 0.986853)
(0.618891 0.665667 -0.416967)
(-0.145074 -0.262837 0.953871)
(0.164558 0.961643 -0.219462)
(0.707749 0.356092 0.610156)
(0.936031 0.290632 -0.198441)
(0.592282 0.792295 0.146528)
(0.0114715 0.801179 0.598315)
(0.756924 0.619043 0.209408)
(0.0770643 0.931266 -0.356097)
(0.262723 0.953482 0.14781)
(0.152909 0.987588 0.0359089)
(0.240344 0.970594 0.0134888)
(0.18396 0.941153 -0.28353)
(0.192747 0.901097 0.388424)
(0.301073 0.941137 0.153679)
(-0.279839 -0.67059 0.687021)
(0.924199 0.164755 -0.344545)
(-0.253238 0.967402 0.00208766)
(0.177635 -0.357274 0.916952)
(0.546232 0.712327 0.440705)
(0.468245 0.876064 0.115143)
(0.346225 0.93779 0.0260471)
(0.336988 0.922576 0.187864)
(0.127764 0.836447 -0.532948)
(0.417562 0.888388 0.19081)
(0.124536 0.361789 0.923905)
(-0.169617 -0.142152 0.975204)
(0.818503 0.533555 0.213009)
(0.650954 0.746138 0.139776)
(-0.24537 -0.221536 0.943777)
(-0.0272584 0.198703 0.979681)
(0.332096 0.51272 0.791726)
(0.141199 0.470232 0.871174)
(0.797778 0.531312 0.285058)
(0.0584786 0.504678 0.861325)
(0.241611 0.483558 0.841306)
(0.00481918 0.393117 0.919476)
(0.237189 0.517517 0.822142)
(0.156339 0.545565 0.823357)
(-0.124254 -0.241071 0.962521)
(-0.220452 0.145937 0.964419)
(-0.258519 0.955871 0.139567)
(-0.0563602 0.679766 0.73126)
(-0.0721993 0.420374 0.904474)
(-0.319014 -0.61575 0.720474)
(-0.140223 0.989672 0.0297684)
(-0.00651628 0.465084 0.885243)
(-0.236441 0.507695 0.828457)
(-0.223261 0.134137 0.965485)
(0.418688 0.876387 0.238006)
(0.503396 0.863978 0.0116163)
(0.647088 0.757536 -0.086119)
(0.565742 0.824506 0.0111972)
(0.437676 0.62717 0.644281)
(0.58323 0.801747 0.130556)
(0.468011 0.883304 0.0272071)
(0.343612 0.77733 0.526962)
(0.239125 0.97003 0.0431441)
(0.185613 0.967324 0.17272)
(0.273816 0.961764 -0.00592739)
(0.0981909 0.804559 -0.585699)
(0.141958 0.953592 -0.265537)
(0.324127 0.945604 0.0278339)
(0.375558 0.68421 0.625151)
(0.565781 0.691271 0.449484)
(0.540088 0.84139 0.019165)
(0.38886 0.921285 0.00464069)
(0.55861 0.755968 0.341274)
(0.0799884 -0.386737 0.918714)
(0.442344 0.896323 0.0306184)
(0.785121 0.613201 0.0869965)
(0.524939 0.515186 0.677512)
(0.415853 0.374016 0.828962)
(0.140547 0.312385 0.939501)
(0.483585 0.469672 0.738616)
(0.376871 0.338357 0.862254)
(0.473588 0.504 0.722287)
(0.829855 0.47007 0.300623)
(0.0200842 0.153308 0.987974)
(0.60766 0.457158 0.649427)
(0.000773656 0.999693 -0.0247559)
(0.329539 0.807326 0.48952)
(0.0761983 0.986544 0.144655)
(0.532719 0.61362 0.582822)
(0.0853336 0.887642 0.45256)
(0.423245 0.905372 0.0341418)
(0.304136 0.948159 -0.0921767)
(-0.529696 0.842505 0.0980161)
(0.663792 0.522371 0.535265)
(0.676052 0.733252 -0.0727674)
(0.426001 0.901049 0.0814531)
(0.413235 0.907041 0.0807083)
(0.450259 0.717842 0.531009)
(0.320811 0.594722 0.737148)
(0.654826 0.755746 -0.00715651)
(0.376473 0.854298 0.358388)
(0.141397 0.985331 0.0955541)
(0.300619 -0.0331548 0.953168)
(0.653388 0.756405 0.0305857)
(-0.0409705 -0.643583 0.764279)
(-0.481246 0.876228 0.0250413)
(0.69584 -0.68047 0.229711)
(0.0612337 -0.661394 0.747535)
(-0.395518 0.918431 -0.00710215)
(-0.335836 0.933027 -0.129135)
(-0.256848 0.7625 -0.59382)
(-0.446812 0.870287 -0.207266)
(0.145861 0.978411 0.146415)
(-0.291124 0.951895 0.0956155)
(-0.21155 0.964326 0.159127)
(0.74821 -0.184788 0.637209)
(0.608293 0.595238 0.525045)
(-0.107003 0.980687 0.163719)
(-0.418702 0.903353 0.0929573)
(-0.118829 0.975068 0.187406)
(-0.32047 0.94263 0.0935282)
(0.345398 0.386037 0.85538)
(0.294736 0.948946 0.112394)
(0.415388 0.637705 0.64868)
(-0.0291145 0.997318 -0.0671486)
(0.118611 0.984536 0.128919)
(0.529254 -0.076771 0.844983)
(0.22267 0.971014 0.086892)
(0.137885 0.543101 0.828269)
(0.603232 0.729364 0.322706)
(0.717161 0.486866 0.49864)
(0.222524 0.963961 0.145815)
(0.507998 0.747937 0.427234)
(0.171637 -0.140175 0.975137)
(-0.21444 0.974735 -0.0625052)
(0.534915 0.676229 0.506537)
(0.304511 -0.513908 0.80198)
(0.345503 0.878175 0.330812)
(0.248238 0.716486 0.65194)
(0.696646 0.39898 0.596238)
(0.161713 0.788228 0.593755)
(0.242227 0.500999 0.830858)
(0.329699 0.735716 0.591625)
(0.117059 0.716866 0.687314)
(0.291909 0.402304 0.867722)
(0.194944 0.655467 0.72963)
(0.756034 0.339494 0.559603)
(0.0624768 0.597333 0.799556)
(0.239198 0.54748 0.801904)
(0.178661 0.612622 0.769918)
(0.0975873 0.655187 0.749137)
(0.259889 0.460778 0.848612)
(-0.0981855 -0.407026 0.908124)
(-0.535991 -0.565842 0.626527)
(-0.12526 0.913427 0.387249)
(0.0433643 0.959841 0.277173)
(-0.0877429 0.898627 0.429849)
(-0.21897 0.736132 0.640439)
(-0.106363 0.686767 0.719053)
(-0.288846 0.957345 0.00770003)
(-0.176263 0.834686 0.521758)
(-0.248761 0.484987 0.838394)
(-0.188244 0.74747 0.637066)
(-0.0282187 0.940676 0.338131)
(-0.151338 0.988451 -0.00789035)
(-0.183017 0.859941 0.476453)
(-0.0162888 -0.258889 0.96577)
(0.238159 -0.36981 0.898065)
(-0.591628 0.727928 -0.346549)
(-0.0236647 -0.0625363 0.997762)
(-0.664003 0.690523 -0.286841)
(0.405688 0.298882 0.863763)
(0.297172 -0.082402 0.951262)
(0.484805 0.650899 -0.584204)
(-0.025261 -0.0177579 0.999523)
(0.313372 0.743438 -0.590845)
(0.599579 0.771815 0.211676)
(0.85572 0.184458 0.483445)
(0.816094 0.513821 0.264534)
(0.842694 0.483554 0.236733)
(0.963601 0.201525 0.175671)
(0.946671 0.28533 0.149671)
(0.881015 0.144248 0.45056)
(0.640995 0.718461 0.270073)
(0.838845 0.466015 0.281369)
(0.776238 0.290283 0.559634)
(0.925049 0.208541 0.317481)
(0.934848 0.308775 0.175261)
(0.888274 0.336122 0.313035)
(0.923088 0.297052 0.24427)
(0.785861 0.343856 0.51399)
(0.854562 0.331482 0.399804)
(0.887328 0.294631 0.354742)
(0.875973 -0.409451 0.254992)
(0.945566 0.25117 0.206926)
(0.943754 0.236205 0.231377)
(0.797895 0.526455 0.293613)
(0.833862 0.427725 0.348891)
(0.773024 0.562706 0.29291)
(0.633884 0.726003 0.266667)
(0.813995 0.437908 0.38164)
(0.722826 0.629456 0.285145)
(-0.158262 0.987137 -0.0226563)
(-0.0116745 0.999905 0.00730804)
(-0.0166285 0.999862 2.87679e-05)
(-0.187177 0.982116 -0.0203395)
(-0.0141891 0.999885 0.00535288)
(-0.00733162 0.999797 0.0187793)
(0.978761 0.204881 -0.00708478)
(0.97523 0.22106 0.00770722)
(0.945171 0.302329 0.123488)
(0.938836 0.310436 0.14905)
(0.956909 0.276559 0.0885473)
(0.973149 0.22633 0.0419005)
(0.952867 0.278977 0.119229)
(0.965907 0.251393 0.0618426)
(0.977722 0.140211 0.156208)
(0.981358 0.160193 0.106186)
(0.974307 0.152866 0.165405)
(0.94719 0.0672838 0.313534)
(0.945783 0.191832 0.262098)
(0.953877 0.166827 0.249573)
(0.974537 0.190204 0.118742)
(0.956129 0.218097 0.19558)
(0.966251 0.185308 0.17894)
(0.826864 0.489785 0.276415)
(0.908882 0.35701 0.215587)
(0.88218 0.394973 0.256427)
(0.936976 0.111388 0.331163)
(0.936883 0.217253 0.273957)
(0.926216 0.248436 0.283554)
(0.934665 0.305196 0.182365)
(0.942487 0.256629 0.214151)
(0.919862 0.314018 0.235047)
(0.977596 0.1494 0.148274)
(0.980901 0.176344 0.0820691)
(0.976137 0.166239 0.139717)
(0.957291 0.0555863 0.283731)
(0.969226 0.159949 0.187128)
(0.96694 0.160405 0.198235)
(0.979048 0.189555 0.0743851)
(0.97567 0.182891 0.120913)
(0.975206 0.178784 0.130419)
(0.971233 0.232904 -0.049628)
(0.967907 0.245873 -0.0519896)
(0.977208 0.21219 0.00627253)
(0.972465 0.231519 -0.0266765)
(0.975183 0.220547 -0.0194092)
(0.976613 0.21471 0.011252)
(0.973544 0.227327 -0.0231123)
(0.965344 -0.0240705 0.259867)
(0.973464 0.146407 0.175875)
(0.978751 0.121783 0.164972)
(0.981965 0.183545 0.0453382)
(0.985224 0.143336 0.0937525)
(0.977855 0.177199 0.111353)
(0.979778 0.193212 0.0520093)
(0.981594 0.161436 0.102042)
(0.318906 0.41436 0.852411)
(0.0595607 0.976623 0.206543)
(0.360359 0.0735616 0.929909)
(0.143404 0.950895 0.274289)
(0.310159 0.496921 0.810476)
(0.31987 0.260032 0.91108)
(0.0725234 0.965287 0.250922)
(0.919057 -0.00961813 0.394007)
(0.95637 0.0518476 0.287521)
(-0.315016 0.947802 -0.0493667)
(-0.347407 0.929668 -0.122579)
(0.965186 0.0653261 0.253277)
(0.904043 -0.00163384 0.427439)
(-0.403553 0.90271 -0.1492)
(0.895695 0.0169261 0.444347)
(-0.198569 0.978355 -0.0582369)
(0.915972 0.0800376 0.393178)
(-0.273251 0.960236 -0.0572721)
(0.895148 0.0143978 0.445537)
(0.915505 0.0785231 0.394569)
(-0.215864 0.97436 -0.0634444)
(0.0519573 0.947507 0.315486)
(0.109557 0.975162 0.192498)
(0.00620299 0.385308 0.922767)
(0.165203 0.977787 0.128996)
(0.195897 0.790974 0.579642)
(-0.217049 0.743745 0.632244)
(0.097293 0.982911 0.156268)
(0.929447 -0.0738731 0.361483)
(0.957494 0.204137 0.203798)
(0.986773 0.140329 0.0811571)
(0.845917 0.125723 0.518283)
(-0.249693 0.203578 0.946683)
(0.961459 0.230929 0.149229)
(0.843122 -0.203812 0.497601)
(0.893905 0.0182995 0.447883)
(-0.177081 0.982964 -0.049229)
(0.917471 0.0632275 0.392745)
(-0.176041 0.983969 -0.0285274)
(0.894996 0.0153766 0.445809)
(0.917346 0.0714221 0.391632)
(-0.151855 0.987637 -0.0389008)
(0.880204 0.00334672 0.474585)
(0.949407 0.0647721 0.307297)
(-0.297354 0.949426 -0.100846)
(-0.265765 0.963352 -0.0363668)
(0.89164 -0.0046381 0.452721)
(0.942456 0.0553822 0.329712)
(-0.248874 0.965473 -0.0769598)
(0.603329 0.689664 -0.400446)
(0.758661 0.585688 -0.28531)
(0.806017 0.55534 -0.204778)
(0.831391 0.546976 -0.0980135)
(0.670167 0.737788 -0.0809003)
(0.674152 0.712161 -0.195823)
(0.656532 0.604444 -0.451235)
(0.339281 0.876444 -0.341665)
(0.49044 0.842122 0.224274)
(0.47984 0.874616 0.0692821)
(0.33111 0.926231 0.180173)
(0.38012 0.920633 -0.0891258)
(-0.135515 0.959056 -0.248692)
(-0.0659861 0.800674 -0.595455)
(0.266974 0.789472 0.552683)
(0.483723 0.850817 -0.205237)
(0.580879 0.62507 0.521409)
(0.995142 0.0872317 0.0456489)
(-0.013806 0.999486 0.0289348)
(0.991726 0.0406484 0.121763)
(0.913066 -0.206695 0.351549)
(0.995406 0.00858432 0.0953568)
(0.988226 0.106639 0.109713)
(0.925715 0.0842651 0.368717)
(0.970271 -0.0238259 0.240845)
(-0.412175 0.907811 -0.0773975)
(0.990834 0.0353698 0.130371)
(0.830781 -0.451357 0.3257)
(0.983857 -0.0329956 0.175888)
(0.986512 0.0206326 0.162382)
(0.754479 -0.582288 0.302823)
(0.904361 0.0253089 0.426017)
(-0.377335 0.923018 -0.0752053)
(0.919095 0.114905 0.376909)
(-0.347767 0.931826 -0.103722)
(0.905693 0.020848 0.423422)
(0.916578 0.126172 0.379429)
(-0.318384 0.943563 -0.0912203)
(0.907044 0.0112504 0.420886)
(-0.480725 0.869519 -0.113315)
(0.919671 0.120847 0.373632)
(-0.370336 0.921871 -0.11404)
(0.905629 0.0157321 0.42378)
(0.922851 0.103608 0.370961)
(-0.385845 0.914398 -0.122474)
(-0.059785 0.993807 -0.0936637)
(0.29294 0.956044 0.0128446)
(0.656302 0.705369 -0.26781)
(0.624903 0.746073 -0.229938)
(0.024866 0.100203 0.994656)
(0.757338 0.638399 -0.137429)
(0.914313 0.40364 0.0332724)
(0.85808 0.513216 -0.0175534)
(-0.525731 -0.436035 0.730397)
(0.710757 0.70316 0.0197537)
(0.838639 0.54284 0.0448233)
(0.24795 0.379646 0.891286)
(0.790065 0.509942 0.340231)
(0.440697 0.625794 0.643559)
(0.692251 0.464503 0.552291)
(0.488872 0.588528 0.643924)
(0.775958 0.392577 0.493733)
(0.261253 0.408938 0.874366)
(0.626714 0.760298 -0.170809)
(0.592492 0.805038 0.0294449)
(0.402759 0.772904 0.49031)
(0.507985 0.721094 0.471141)
(-0.0205751 0.990467 -0.136207)
(-0.442925 0.896265 -0.0229255)
(-0.623251 0.75364 -0.20877)
(-0.436588 0.89784 0.0572236)
(-0.0731174 0.995245 0.0643567)
(-0.131004 0.976132 -0.173219)
(-0.456931 0.847714 0.269435)
(0.0918493 0.98552 0.142529)
(-0.0519293 0.998201 0.0299698)
(0.157109 0.975496 -0.154026)
(0.024084 0.997116 0.071966)
(0.501378 0.548407 0.66923)
(0.471757 0.821198 0.32106)
(0.733355 0.321151 -0.59921)
(0.162904 0.981882 0.0967972)
(-0.0874996 0.957768 -0.273907)
(0.768682 0.227366 -0.597857)
(0.408812 0.883876 0.227236)
(0.331717 -0.620952 0.710198)
(0.286322 0.923782 0.254256)
(0.363085 0.717484 0.594463)
(-0.201495 0.963408 -0.176761)
(0.263919 0.550603 0.791949)
(0.403188 -0.635492 0.658475)
(-0.464195 0.766827 -0.443283)
(0.282389 0.582969 0.761842)
(0.666063 0.347051 0.660239)
(0.205736 0.853502 0.478755)
(0.457825 -0.29801 0.837607)
(0.222884 0.666453 0.711452)
(0.151811 0.885473 0.439194)
(0.542947 -0.368449 0.754622)
(0.224316 0.480125 0.848034)
(0.748716 0.429769 0.504701)
(0.405035 0.645828 0.647188)
(0.707168 0.359632 0.608752)
(0.27262 0.444082 0.853504)
(0.382756 0.651364 0.655151)
(0.635314 0.424007 0.645442)
(-0.0360555 0.792566 -0.608719)
(-0.303367 0.919899 -0.248503)
(-0.0566926 0.998389 -0.0022648)
(0.482267 0.719233 0.500122)
(0.473279 0.73574 0.484453)
(0.367984 0.790882 0.488971)
(-0.185465 0.734434 -0.652847)
(-0.414515 0.678694 -0.60626)
(-0.612829 0.764728 -0.199077)
(-0.521838 0.71252 -0.469042)
(0.878559 0.0242018 0.477021)
(-0.171158 0.984907 -0.025742)
(0.920549 0.0691043 0.384467)
(-0.123833 0.991936 -0.0269911)
(0.876802 0.0235607 0.480274)
(0.918048 0.0579591 0.39221)
(-0.12006 0.992452 -0.0249882)
(0.872583 0.0201656 0.488049)
(-0.169897 0.985222 -0.0217354)
(0.922787 0.0585165 0.380841)
(-0.129199 0.991218 -0.0281741)
(0.87391 0.023617 0.485513)
(0.925176 0.072471 0.372554)
(-0.139999 0.989619 -0.0324685)
(0.707127 -0.680794 -0.191024)
(-0.576336 0.808108 0.12165)
(-0.562013 0.815269 0.139564)
(0.684742 -0.573091 -0.450217)
(-0.405284 0.86538 0.294724)
(-0.535669 0.794116 0.28712)
(-0.0700719 0.989864 -0.123525)
(-0.55167 0.833517 -0.0301744)
(-0.39444 0.918818 -0.0137908)
(-0.191795 0.978137 -0.0803882)
(-0.1027 0.990376 -0.0927828)
(0.0671062 0.993486 -0.0921023)
(0.00543562 0.977617 -0.21032)
(-0.239397 0.958316 -0.155945)
(-0.201727 0.979112 0.0254183)
(-0.0573671 0.998308 -0.00945669)
(0.00754922 0.998979 -0.044542)
(-0.361471 0.931833 0.0320245)
(-0.00436677 0.998727 -0.0502452)
(-0.0740987 0.991601 0.106)
(0.0154971 0.998945 0.0432287)
(0.1127 0.984999 0.130677)
(0.0808182 0.996722 -0.00376075)
(0.00130074 0.998917 -0.0465067)
(0.0486834 0.998701 -0.0150365)
(-0.0572368 0.996884 0.0542717)
(0.058801 0.998182 -0.0132675)
(-0.104914 0.989743 0.0969647)
(-0.0370202 0.997056 0.0671451)
(-0.0238803 0.99934 0.0273685)
(0.988761 0.130022 -0.0738018)
(0.990903 0.121304 -0.0582851)
(0.989619 0.124909 -0.0710756)
(0.987867 0.143784 -0.0586857)
(0.990423 0.102525 -0.0924735)
(0.986027 0.138503 -0.0925654)
(0.986805 0.133432 -0.0917202)
(0.990426 0.103454 -0.0913988)
(0.990583 0.115433 -0.0736246)
(0.988725 0.137056 -0.0603194)
(0.988976 0.127008 -0.0761259)
(0.992214 0.108961 -0.0603298)
(0.98985 0.118958 -0.0777606)
(0.987937 0.141269 -0.0634259)
(0.991944 0.108902 -0.0647032)
(0.987578 0.135141 -0.0801605)
(0.984586 0.147961 -0.0932686)
(0.989573 0.109548 -0.0935084)
(0.988322 0.119633 -0.0943761)
(0.982617 0.160162 -0.0938688)
(0.988481 0.12956 -0.0782268)
(0.992337 0.106529 -0.0626046)
(0.990468 0.115005 -0.0758087)
(0.988569 0.137477 -0.0619028)
(0.90588 0.371063 -0.204191)
(0.918328 0.377611 -0.118676)
(0.908165 0.361175 -0.211635)
(0.959848 0.280234 -0.0126623)
(0.937175 0.310715 -0.158613)
(0.86645 0.44084 -0.234361)
(0.942162 0.330589 -0.0551603)
(0.925127 0.357435 -0.127987)
(0.787682 0.283102 -0.547185)
(0.919963 0.391102 -0.0265909)
(0.941828 0.325611 -0.0832953)
(0.898088 0.412924 -0.151434)
(0.935474 0.352561 -0.0242751)
(0.83147 0.273631 -0.483513)
(0.896843 0.406159 -0.175238)
(0.89653 0.428607 -0.111934)
(0.818203 0.530471 -0.221686)
(0.905803 0.419549 -0.0591586)
(0.867137 0.457565 -0.196743)
(0.859925 0.465452 -0.209482)
(0.924344 0.377308 -0.0568073)
(0.931998 0.333902 -0.141027)
(0.962845 0.270019 0.00439036)
(0.904865 0.241106 -0.350838)
(0.953102 0.293721 -0.0729729)
(0.956784 0.273936 -0.0975842)
(0.949708 0.312046 -0.0261097)
(0.861807 0.255966 -0.437915)
(0.41845 0.814444 0.40197)
(0.0842979 -0.0608107 0.994583)
(0.0184327 -0.0793426 0.996677)
(0.335733 0.776753 -0.532859)
(0.11718 0.0715661 0.990529)
(0.350282 0.859146 -0.373056)
(0.299441 0.875197 -0.379955)
(0.423793 0.860691 0.282154)
(0.184962 0.102255 0.977411)
(0.255551 0.394876 0.882477)
(0.475641 0.8504 0.224911)
(0.394112 0.883479 0.25326)
(0.218314 0.300637 0.928416)
(0.484482 0.864041 0.136789)
(0.305788 0.816012 0.490529)
(0.00667988 0.0321353 0.999461)
(0.0206622 0.986022 0.165326)
(0.0795444 0.774989 0.626949)
(0.120499 0.912515 0.390893)
(0.148609 0.408425 0.900613)
(0.293972 0.878 0.377752)
(0.556492 0.422449 0.71544)
(0.125719 0.965638 0.227458)
(0.0692118 0.982001 0.175738)
(0.577612 0.448263 0.682221)
(0.128355 0.956497 0.261989)
(0.375143 0.36849 0.850578)
(0.31861 0.899588 0.298712)
(0.920043 0.312071 0.236923)
(0.404611 0.835705 0.371332)
(0.727673 0.384583 0.567968)
(0.786958 0.340956 0.514244)
(0.196192 0.922821 0.331527)
(0.523864 0.421023 0.740477)
(0.059113 0.981985 0.179475)
(0.171711 0.938967 0.298087)
(0.562564 0.323611 0.760788)
(0.150429 0.940109 0.305885)
(0.931173 -0.00317101 0.364563)
(-0.353318 0.933735 -0.057485)
(0.974869 0.0695796 0.211636)
(-0.514011 0.835217 -0.195461)
(0.970239 0.0505694 0.23681)
(0.942353 0.00113357 0.334617)
(-0.45063 0.876765 -0.167977)
(0.760412 0.0049618 0.649423)
(-0.0851574 0.995982 -0.0277047)
(-0.030813 0.999477 -0.00979587)
(0.762026 0.0195919 0.64725)
(-0.103266 0.993698 -0.0435887)
(0.758008 0.00808762 0.652195)
(-0.0957633 0.99464 -0.0390033)
(-0.0268657 0.999626 -0.00511312)
(0.754724 0.0125405 0.655923)
(-0.102688 0.993759 -0.0435702)
(0.799828 0.0173465 0.599978)
(-0.0557923 0.998388 -0.0103777)
(-0.0125528 0.999892 0.0076911)
(0.799228 0.0137847 0.60087)
(-0.0542249 0.998506 -0.00670413)
(0.896464 0.0255486 0.44238)
(-0.27389 0.960299 -0.0530079)
(0.913525 0.108474 0.392054)
(-0.23387 0.970486 -0.0588368)
(0.913716 0.10225 0.393279)
(0.898133 0.035711 0.438271)
(-0.227146 0.971801 -0.0633102)
(0.800668 0.0271969 0.59849)
(-0.0067837 0.999821 0.0176833)
(-0.0310801 0.999332 0.0192051)
(0.801932 0.0364566 0.596301)
(-0.0431629 0.999055 0.00514806)
(0.927234 0.0990796 0.361138)
(-0.465215 0.870812 -0.15894)
(0.910277 0.000654492 0.414)