/*--------------------------------*- C++ -*----------------------------------*\
| =========                 |                                                 |
| \\      /  F ield         | OpenFOAM: The Open Source CFD Toolbox           |
|  \\    /   O peration     | Version:  2012                                  |
|   \\  /    A nd           | Website:  www.openfoam.com                      |
|    \\/     M anipulation  |                                                 |
\*---------------------------------------------------------------------------*/
FoamFile
{
    version     2.0;
    format      ascii;
    class       volScalarField;
    location    "0.108/solid";
    object      sigmaEq;
}
// * * * * * * * * * * * * * * * * * * * * * * * * * * * * * * * * * * * * * //

dimensions      [1 -1 -2 0 0 0 0];


internalField   nonuniform List<scalar> 
3124
(
1.50177e+08
5.47038e+08
1.11131e+10
1.88185e+09
6.46506e+08
2.30937e+08
4.23654e+08
3.33493e+08
1.88957e+08
6.57761e+09
2.07759e+09
1.04631e+10
3.76675e+08
8.22354e+08
6.66781e+09
1.01171e+08
7.4566e+08
5.33745e+08
2.43618e+08
5.9245e+08
1.96089e+08
4.32292e+08
1.7676e+08
4.73357e+08
3.15158e+09
3.69529e+09
3.70721e+08
2.47744e+08
2.35041e+08
1.91934e+08
5.37164e+08
3.90795e+08
2.91131e+08
6.34966e+08
4.43754e+07
8.11487e+07
1.75853e+08
1.32107e+08
1.19978e+08
1.22631e+08
1.14904e+08
9.33784e+07
6.03993e+08
3.30913e+09
5.06086e+09
2.75395e+09
6.98317e+09
5.26067e+09
1.29368e+11
9.73384e+09
1.13433e+09
1.08084e+09
1.3264e+08
1.21733e+08
1.88276e+08
2.33695e+09
7.00198e+08
4.92258e+08
9.39264e+08
2.23677e+08
6.21378e+08
3.81266e+08
2.55414e+08
1.62162e+08
2.72666e+08
1.69308e+08
2.24523e+08
4.02847e+08
1.26122e+08
1.36425e+08
3.49843e+09
1.48187e+09
8.96552e+08
5.86722e+07
4.8023e+08
2.94346e+09
1.14027e+11
3.9389e+09
9.88962e+08
7.72009e+08
2.84543e+08
3.05937e+09
7.63496e+08
1.60087e+09
5.81211e+09
1.01452e+09
5.3718e+07
8.30232e+07
1.39713e+08
1.41524e+08
2.26286e+08
8.72644e+07
1.43467e+08
3.07089e+08
4.95572e+07
1.114e+08
6.12263e+07
1.25681e+08
3.10069e+08
2.50661e+08
1.06209e+09
2.98547e+08
1.15976e+08
1.24019e+08
9.34408e+08
1.68692e+08
2.50847e+08
3.4443e+08
3.61419e+08
1.16212e+08
1.21594e+08
1.31199e+08
2.54634e+08
1.39438e+08
1.5315e+08
2.82792e+08
1.41512e+08
1.2439e+08
1.15903e+08
9.7706e+07
8.55591e+07
9.88913e+07
8.85799e+07
1.55919e+09
1.47979e+09
1.65015e+08
2.08497e+08
1.19355e+08
8.61315e+07
1.04145e+08
1.05608e+08
1.01037e+08
9.66953e+07
1.80604e+09
6.41768e+08
1.08355e+09
9.90687e+08
1.37174e+09
1.29948e+09
1.24055e+09
2.14012e+10
1.04556e+10
1.00082e+10
1.91765e+10
8.88746e+09
2.22843e+10
1.73779e+10
4.64589e+09
1.19509e+09
2.10349e+09
8.42041e+08
7.0763e+08
8.62947e+08
2.48438e+08
1.88283e+08
2.00921e+08
8.67928e+07
8.80304e+07
6.92999e+08
3.01906e+08
8.27103e+08
8.7155e+08
1.1996e+09
5.75335e+08
4.98208e+08
2.66823e+08
2.54101e+08
2.68544e+08
2.47489e+08
2.93799e+09
7.07779e+09
6.06314e+09
3.99677e+09
6.65941e+09
3.53089e+09
3.60569e+09
5.76671e+09
2.18792e+09
8.66988e+09
2.30718e+10
8.66907e+09
1.52603e+10
1.07822e+10
1.5984e+10
9.35591e+09
1.51096e+10
4.6305e+08
1.07431e+09
6.39213e+08
3.301e+09
7.06665e+09
3.96611e+09
6.75429e+09
3.71092e+09
7.56626e+09
3.88895e+09
7.43304e+08
8.70303e+08
1.05972e+09
7.44763e+07
6.56418e+07
6.61556e+08
3.55462e+08
4.49275e+08
2.62785e+08
2.83457e+08
3.07502e+08
6.57679e+08
4.6202e+08
5.32398e+08
8.25461e+07
8.89025e+07
1.68964e+08
2.1311e+08
1.78509e+08
2.93314e+08
3.64335e+08
2.57785e+08
1.56019e+08
1.56004e+08
1.40484e+08
6.77489e+07
7.327e+07
7.42941e+07
1.54591e+09
1.05967e+09
1.04325e+09
8.03039e+08
1.55713e+09
1.17434e+09
2.28105e+09
1.5238e+09
1.30759e+09
1.69891e+09
1.56355e+09
1.22918e+09
1.70356e+09
3.83105e+09
2.05344e+09
2.01855e+09
2.05738e+09
1.9316e+09
1.33182e+09
4.21683e+08
4.54899e+08
5.34956e+08
3.99692e+08
4.41727e+08
3.58848e+08
4.55745e+08
3.56796e+08
5.97794e+08
4.52086e+08
3.94504e+08
4.44629e+08
3.47308e+08
3.51037e+08
2.96085e+08
2.45166e+08
2.67906e+08
4.15702e+08
3.61468e+08
4.65195e+08
5.16896e+08
4.11766e+08
6.23323e+07
1.14973e+08
9.87788e+07
1.66751e+08
1.53114e+08
1.07695e+08
4.53422e+07
6.22838e+07
1.52271e+08
7.37999e+07
8.59498e+07
1.02175e+08
1.04999e+08
1.1127e+08
1.22925e+08
1.13313e+08
1.1089e+08
1.23509e+08
1.13114e+08
1.07364e+08
1.08412e+08
1.02135e+08
8.57567e+07
9.15077e+07
1.01116e+08
8.94442e+07
9.60585e+07
1.89384e+09
6.71932e+08
1.31138e+09
9.62745e+08
1.70211e+09
1.40149e+09
1.28392e+09
2.34191e+09
1.96317e+09
3.47229e+09
4.37391e+09
5.55551e+09
1.71545e+09
2.45238e+09
2.4777e+09
6.3508e+09
2.64927e+09
5.20121e+09
2.28858e+09
6.09444e+09
2.7525e+09
9.24367e+08
3.98957e+09
2.13015e+09
4.78762e+10
3.354e+10
7.59748e+09
4.5908e+09
1.45952e+10
3.10361e+09
2.35218e+10
1.67063e+10
7.77221e+09
4.42533e+09
7.73267e+09
7.64951e+09
7.8181e+09
1.19115e+10
2.87535e+10
5.32179e+10
1.32213e+11
5.60353e+10
4.82736e+10
3.20456e+10
3.58085e+10
1.99472e+10
9.02542e+09
9.5505e+09
2.1749e+10
8.46006e+09
3.21662e+10
1.82776e+10
1.20329e+09
1.18295e+09
1.75999e+09
9.01875e+08
1.08339e+09
9.25668e+08
1.74075e+08
1.3757e+08
1.82063e+08
9.36879e+07
1.25358e+08
9.59014e+07
3.59847e+08
4.11479e+08
6.37591e+08
2.19847e+08
3.55595e+08
2.85346e+08
3.102e+08
4.03333e+08
3.6624e+08
8.23975e+08
1.45586e+09
2.84565e+09
1.55717e+09
1.48725e+09
1.46997e+09
9.96436e+08
6.48736e+08
6.00367e+08
5.35071e+08
9.81376e+08
4.52757e+08
1.05548e+09
6.5973e+08
1.5978e+08
3.70391e+08
3.10808e+08
4.19344e+08
2.16281e+08
1.70624e+08
4.87546e+08
2.6985e+08
3.16324e+08
2.7037e+08
3.99138e+08
5.03964e+08
1.08125e+09
8.49642e+08
8.38774e+08
5.00112e+08
4.54757e+08
3.22987e+08
6.7191e+08
3.22628e+08
2.46311e+08
5.78157e+08
4.1056e+08
7.26503e+08
2.83372e+08
7.32351e+08
4.19235e+08
4.45575e+08
4.93055e+08
3.43114e+08
3.79793e+08
4.69011e+08
4.48548e+08
3.55885e+08
4.00029e+08
3.11982e+08
3.23983e+08
2.55942e+08
3.931e+08
3.00784e+08
3.30292e+08
3.6684e+08
3.09797e+08
1.29224e+08
2.31029e+08
2.82668e+08
3.41791e+08
1.25907e+08
3.13721e+08
1.96063e+08
2.54663e+08
2.67107e+09
4.85106e+09
3.55558e+09
2.22923e+09
5.95529e+09
1.73978e+09
2.96471e+09
2.20246e+09
2.28452e+09
1.27589e+09
1.35586e+09
1.04333e+09
2.59029e+09
2.1306e+09
1.99237e+09
5.66359e+08
1.37306e+09
1.13304e+09
1.27308e+09
9.1864e+08
1.79089e+09
3.42014e+08
3.09733e+08
1.1105e+08
1.9181e+08
1.37813e+08
2.10839e+08
2.76976e+08
1.65379e+08
3.51969e+08
1.54127e+08
2.30106e+09
1.38877e+10
9.79005e+09
3.54339e+10
4.05199e+10
5.55383e+11
6.32837e+10
2.88562e+10
9.58178e+10
2.83088e+10
2.35081e+10
1.05464e+10
1.5488e+10
8.74113e+09
2.31131e+10
3.29151e+10
7.92267e+10
5.4117e+10
3.3131e+10
5.12766e+08
4.72783e+08
4.67607e+08
5.76419e+08
6.29035e+08
9.41183e+08
8.55448e+08
6.80794e+08
3.41405e+08
4.28041e+08
4.84814e+08
1.83537e+09
1.43883e+09
9.41664e+08
5.9913e+08
1.01051e+09
6.94929e+08
1.86678e+09
2.36493e+09
1.42128e+09
1.64393e+09
2.72783e+09
1.30497e+09
2.45386e+09
2.71931e+09
6.94258e+09
2.06755e+09
7.37868e+09
3.1511e+09
1.93077e+09
1.42576e+09
1.6404e+09
1.04904e+09
2.21734e+09
1.45133e+08
1.16458e+08
9.06045e+07
1.13808e+08
1.0824e+08
1.31719e+08
1.28488e+08
1.95163e+08
1.19783e+08
2.57574e+08
2.01828e+08
2.67904e+08
1.9081e+08
1.61584e+08
1.31255e+08
7.65208e+07
4.74775e+07
5.14835e+07
5.70502e+07
9.47234e+07
1.98627e+08
9.37013e+07
1.32203e+08
1.69693e+08
1.1354e+08
6.18944e+07
7.63924e+07
1.07824e+08
1.18959e+08
1.39059e+08
7.88808e+07
2.20603e+08
5.11384e+07
1.89058e+08
1.3531e+08
5.49557e+07
2.82816e+08
6.05839e+07
5.48685e+08
3.58899e+08
8.3134e+08
1.06973e+09
9.12526e+08
1.0808e+09
3.724e+08
6.77495e+08
8.43673e+08
4.38363e+07
5.44925e+07
9.25284e+07
1.18965e+08
8.8035e+07
7.35113e+07
1.21136e+08
8.04388e+07
7.93736e+08
7.2176e+08
5.70646e+08
2.71088e+08
1.94745e+08
3.41354e+08
5.27723e+08
2.22548e+08
4.26766e+08
2.96098e+08
3.80221e+08
3.23092e+08
4.31966e+08
4.04183e+08
4.90623e+08
9.81903e+07
9.39606e+07
9.69943e+07
1.18305e+08
1.01125e+08
1.08036e+08
1.20175e+08
1.04882e+08
1.46713e+08
1.3556e+08
1.53014e+08
2.31271e+08
2.00962e+08
1.88138e+08
1.37697e+08
1.64163e+08
1.57915e+08
2.23227e+08
1.47175e+08
1.97774e+08
3.17606e+08
2.15949e+08
2.34452e+08
1.43889e+08
1.71782e+08
1.82304e+08
1.37506e+08
1.16033e+08
1.26362e+08
1.35243e+08
1.09912e+08
1.24693e+08
1.06977e+08
1.03118e+08
1.14641e+08
7.97309e+07
7.36655e+07
7.08412e+07
6.93734e+07
8.26177e+07
7.80093e+07
7.58732e+07
8.4866e+07
9.62834e+07
8.45401e+07
7.20687e+07
7.32136e+07
9.21164e+07
8.00258e+07
8.219e+07
1.46832e+09
2.79901e+09
1.06174e+09
1.49803e+09
2.01699e+09
7.90756e+08
2.12592e+09
4.54368e+08
4.56517e+08
7.11794e+08
6.11377e+08
5.00161e+08
4.21679e+08
6.53371e+08
1.7449e+08
2.29253e+08
1.82335e+08
2.16679e+08
1.84839e+08
1.72081e+08
2.16052e+08
3.15918e+09
3.36687e+09
1.03137e+09
2.07234e+09
2.47371e+09
1.26775e+09
3.81311e+09
3.80178e+08
3.95189e+08
3.28717e+08
3.09305e+08
2.95572e+08
3.64976e+08
3.38535e+08
2.04906e+08
2.42718e+08
1.91916e+08
2.57691e+08
1.94579e+08
2.01201e+08
2.56057e+08
3.71346e+08
4.12576e+08
5.68969e+08
5.40511e+08
4.00233e+08
3.78869e+08
5.31024e+08
5.0767e+08
3.27713e+08
4.49941e+08
2.6361e+08
2.85627e+08
3.40481e+08
5.6266e+08
2.63563e+08
2.10936e+08
2.8462e+08
2.5263e+08
2.74772e+08
4.23497e+07
5.54604e+07
7.34199e+07
9.5314e+10
1.02383e+11
6.53522e+08
1.18447e+09
8.41806e+08
8.7945e+08
6.20113e+08
8.65794e+08
8.92457e+08
5.85439e+08
1.01806e+09
7.95241e+08
8.66496e+08
6.12193e+08
7.50913e+08
8.51156e+08
1.16921e+08
1.46197e+08
1.07787e+08
1.30426e+08
1.06744e+08
1.17953e+08
1.42954e+08
8.90899e+07
1.10648e+08
9.9035e+07
1.18802e+08
9.73394e+07
9.06862e+07
1.08678e+08
2.14965e+08
3.06025e+08
4.54688e+08
4.68925e+08
5.18389e+08
3.2499e+08
3.05387e+08
2.47549e+08
5.51358e+08
3.16254e+08
2.47065e+08
3.96742e+08
2.81525e+08
2.23501e+08
1.81144e+08
1.90494e+08
1.5243e+08
3.66667e+08
4.587e+08
4.15487e+08
2.30725e+08
2.97596e+08
2.35471e+08
1.80756e+08
1.18321e+08
1.35299e+08
5.58283e+09
2.20183e+09
4.43598e+09
6.92608e+09
6.44003e+09
4.32639e+09
5.96492e+09
1.1687e+10
6.07351e+09
4.92993e+09
8.11951e+09
7.31754e+09
5.33726e+09
9.44209e+09
5.01985e+08
5.30022e+08
8.90524e+08
1.01571e+09
5.15363e+08
8.38399e+08
5.68183e+08
1.13134e+08
7.23023e+07
5.51516e+07
5.86706e+07
8.46911e+07
6.10736e+07
6.78397e+07
2.75191e+08
1.60822e+08
1.61891e+08
1.35111e+08
3.24516e+08
1.71906e+08
1.40274e+08
6.3904e+07
3.94532e+07
4.53512e+07
6.35943e+07
2.25888e+08
1.60422e+08
6.75313e+07
6.86861e+07
1.17132e+08
1.03521e+08
2.53606e+08
3.26728e+08
2.54883e+08
3.46749e+08
2.63965e+08
2.45435e+08
3.30072e+08
2.85853e+08
3.82386e+08
2.66043e+08
3.65e+08
2.73447e+08
2.76841e+08
3.84564e+08
1.57937e+09
1.30813e+09
1.4241e+09
1.46309e+09
1.74753e+09
1.43757e+09
1.53884e+08
3.85797e+08
2.10412e+08
2.99715e+08
1.16779e+08
1.01028e+08
1.12431e+08
1.43455e+08
1.52738e+08
2.4703e+08
1.26799e+08
2.82842e+08
8.60685e+07
1.28029e+08
1.22367e+08
8.69702e+07
8.37585e+07
1.01719e+08
9.005e+07
7.17995e+07
1.10319e+08
1.94787e+08
1.11091e+08
1.86053e+08
1.01919e+08
1.02649e+08
1.01676e+08
1.03124e+08
9.66373e+07
9.60159e+07
9.72982e+07
9.70829e+07
1.00791e+08
1.01393e+08
1.00232e+08
1.02027e+08
9.42816e+07
9.35786e+07
9.54257e+07
9.28152e+07
9.32571e+07
9.443e+07
9.09582e+07
8.9418e+07
9.7077e+07
9.94177e+07
9.81766e+07
9.80565e+07
1.30784e+09
1.68758e+09
1.7361e+09
1.50783e+09
1.40692e+09
1.62753e+09
1.41378e+09
9.84855e+08
7.72476e+08
1.00729e+09
1.0892e+09
8.87899e+08
1.10516e+09
8.51453e+08
1.21002e+09
1.53381e+09
1.32223e+09
1.16649e+09
1.07644e+09
1.46696e+09
1.29459e+09
1.06563e+09
1.26032e+09
9.63326e+08
1.17565e+09
1.13361e+09
1.19377e+09
9.11041e+08
1.67022e+10
1.5994e+10
2.39799e+10
1.99581e+10
1.76794e+10
1.48227e+10
2.29801e+10
1.2295e+10
1.17795e+10
9.37904e+09
8.57224e+09
9.16981e+09
1.28252e+10
1.11323e+10
1.73393e+10
2.49924e+10
1.55449e+10
2.34746e+10
1.5633e+10
1.79235e+10
2.49832e+10
2.36159e+09
3.46463e+09
3.73805e+09
3.18425e+09
2.65019e+09
8.82458e+08
1.24662e+09
7.12789e+08
1.16645e+09
6.44277e+08
6.3271e+08
1.53588e+09
1.45037e+09
2.74172e+09
1.36999e+09
9.17043e+08
1.9093e+09
4.77241e+08
7.71624e+08
6.03496e+08
7.42262e+08
5.53137e+08
5.16303e+08
6.97958e+08
6.06233e+08
6.31719e+08
7.56097e+08
5.66986e+08
6.69946e+08
6.30627e+08
7.47306e+08
8.04245e+08
6.68228e+08
7.08039e+08
1.76822e+08
2.2691e+08
2.34396e+08
1.87499e+08
2.13518e+08
1.63995e+08
2.03962e+08
1.505e+08
1.87036e+08
1.62018e+08
1.52107e+08
2.021e+08
1.64832e+08
2.18363e+08
1.83705e+08
1.52154e+08
1.99279e+08
7.17223e+07
8.4333e+07
6.98802e+07
6.12874e+07
8.14535e+07
6.68675e+07
6.64808e+08
8.7382e+08
6.52522e+08
6.1601e+08
5.41109e+08
8.1126e+08
7.37487e+08
6.64617e+08
6.90561e+08
8.9594e+08
7.41807e+08
7.78341e+08
7.69349e+08
5.96969e+08
8.04251e+08
1.04062e+09
1.14701e+09
1.02702e+09
9.52918e+08
9.92347e+08
8.77945e+08
5.47054e+08
5.41121e+08
4.24315e+08
6.16643e+08
4.58166e+08
6.3633e+08
5.07756e+08
2.81149e+08
2.18997e+08
4.04552e+08
2.56379e+08
2.1258e+08
4.58347e+08
3.14562e+08
4.08894e+09
3.82269e+09
3.1318e+09
2.93911e+09
4.09178e+09
3.81754e+09
3.17002e+09
5.65618e+09
7.10915e+09
7.13772e+09
5.65267e+09
7.26954e+09
5.70056e+09
5.55785e+09
5.45611e+09
5.06828e+09
7.10601e+09
6.53494e+09
7.00761e+09
5.38227e+09
5.04917e+09
4.34119e+09
3.34696e+09
4.52137e+09
3.44946e+09
4.44915e+09
4.3491e+09
3.3116e+09
5.20329e+09
4.25287e+09
6.67134e+09
4.23094e+09
4.91548e+09
3.93479e+09
2.09746e+09
2.43617e+09
4.74829e+09
1.92787e+09
4.84566e+09
4.26642e+09
6.13119e+09
7.53178e+09
6.1216e+09
6.93752e+09
5.49376e+09
1.19718e+10
1.56265e+10
1.59426e+10
2.13893e+10
1.20642e+10
1.48698e+10
1.48996e+10
9.68105e+09
8.50002e+09
1.07402e+10
8.62842e+09
1.08225e+10
8.53497e+09
1.01101e+10
1.12164e+10
1.3553e+10
1.32595e+10
1.97154e+10
1.38541e+10
1.18819e+10
1.36656e+10
1.06237e+10
1.1851e+10
8.9177e+09
9.68957e+09
9.17433e+09
1.03566e+10
1.17576e+10
5.8417e+08
5.31989e+08
3.47013e+08
7.30713e+08
4.40243e+08
7.10084e+08
8.46614e+08
3.71259e+08
6.20127e+08
1.21048e+09
1.03701e+09
7.8671e+08
6.19721e+08
3.39764e+08
4.39322e+08
4.44245e+08
5.55415e+09
7.0026e+09
5.7569e+09
7.04842e+09
5.63683e+09
6.94352e+09
5.71104e+09
4.31888e+09
3.60385e+09
4.62706e+09
3.41898e+09
4.39156e+09
4.5555e+09
3.38989e+09
5.58045e+09
5.22984e+09
7.3914e+09
7.71007e+09
7.21649e+09
5.61447e+09
5.51721e+09
7.6725e+08
1.06535e+09
1.33015e+09
5.43403e+08
8.01958e+08
5.96641e+08
4.98488e+08
7.45066e+08
1.13981e+09
7.7985e+08
5.50273e+08
1.03956e+09
3.78742e+08
9.27514e+08
6.09428e+08
7.89687e+08
7.44639e+07
4.45694e+07
4.86421e+07
6.78304e+07
5.01501e+07
7.37124e+07
6.59928e+07
3.8346e+07
5.75141e+07
7.78056e+07
8.13692e+07
5.5546e+07
2.91392e+08
4.77726e+08
3.52066e+08
3.89775e+08
4.26855e+08
4.79355e+08
5.63096e+08
3.87236e+08
4.81029e+08
7.00708e+08
6.09085e+08
5.53054e+08
2.65462e+08
3.13781e+08
2.5572e+08
3.47324e+08
2.12004e+08
2.40481e+08
2.77308e+08
1.99301e+08
2.54535e+08
2.13846e+08
2.69923e+08
2.17969e+08
2.83613e+08
2.10015e+08
2.24385e+08
2.69776e+08
2.25774e+08
2.92313e+08
2.84871e+08
2.41433e+08
2.69345e+08
5.0264e+08
5.93232e+08
6.10973e+08
5.37546e+08
5.56086e+08
3.52101e+08
5.00211e+08
3.26379e+08
4.62619e+08
3.48838e+08
3.29133e+08
4.94841e+08
4.71818e+08
5.68569e+08
4.8607e+08
4.38747e+08
5.20256e+08
7.74167e+07
8.96968e+07
9.03493e+07
7.71243e+07
7.94298e+07
6.19232e+07
8.62627e+07
6.65682e+07
6.73581e+07
8.48075e+07
7.23786e+07
8.37111e+07
1.64143e+08
1.53057e+08
1.5327e+08
1.61679e+08
1.64161e+08
1.6688e+08
1.78268e+08
1.60824e+08
1.73424e+08
1.92554e+08
1.82447e+08
1.74217e+08
1.5607e+08
1.44854e+08
1.55366e+08
1.47314e+08
1.96221e+08
2.24873e+08
2.12839e+08
2.19776e+08
3.19428e+08
4.35884e+08
3.32462e+08
3.79904e+08
2.33062e+08
2.57304e+08
2.12489e+08
2.60598e+08
2.78435e+08
3.15508e+08
3.53335e+08
2.74721e+08
1.3155e+08
1.20999e+08
1.2623e+08
1.27074e+08
1.45906e+08
1.61058e+08
1.48918e+08
1.51374e+08
1.35586e+08
1.30571e+08
1.42989e+08
1.29274e+08
1.4238e+08
1.38122e+08
1.45856e+08
1.33817e+08
6.69988e+07
6.66173e+07
6.5321e+07
6.96078e+07
6.94093e+07
6.70029e+07
6.07561e+07
6.78965e+07
1.07948e+09
7.3717e+08
1.27965e+09
1.53219e+09
1.10055e+09
9.72136e+08
8.36824e+08
1.22456e+09
1.54071e+09
1.52214e+09
1.22056e+09
1.48336e+09
1.24821e+09
1.16897e+09
1.39242e+09
1.77046e+09
1.79061e+09
1.52106e+09
1.60129e+09
1.51819e+09
1.19871e+09
1.25824e+09
9.50209e+08
1.36303e+09
1.45871e+09
1.08211e+09
1.11662e+09
1.34598e+09
1.97511e+09
4.25865e+09
1.65681e+09
1.23485e+09
1.35222e+09
1.19396e+09
1.49844e+09
1.30026e+09
8.15832e+08
1.57956e+09
1.47509e+09
1.36642e+09
1.6938e+09
1.24622e+09
1.61418e+09
1.56779e+09
1.67517e+09
1.37333e+09
1.62173e+09
1.36851e+09
8.3342e+08
1.2917e+09
1.8464e+09
2.05906e+09
1.87161e+09
1.74713e+09
1.69184e+09
2.13456e+09
1.85423e+09
1.66302e+09
2.35416e+09
1.91019e+09
2.74314e+09
2.08719e+09
2.42327e+09
1.90569e+09
2.85004e+09
2.23312e+09
1.86554e+09
2.71441e+09
1.73458e+09
2.24707e+09
1.80938e+09
2.56959e+09
4.10072e+08
2.36129e+08
3.85674e+08
3.41023e+08
4.49002e+08
3.94589e+08
3.98396e+08
4.81254e+08
4.75395e+08
5.73201e+08
4.933e+08
4.88212e+08
4.76057e+08
4.41894e+08
2.65948e+08
3.32503e+08
1.76091e+08
4.38346e+08
2.66093e+08
2.73872e+08
2.28682e+08
1.49995e+08
2.84843e+08
4.22946e+08
4.14672e+08
3.72112e+08
4.58006e+08
3.78749e+08
2.79698e+08
5.59638e+08
2.28861e+08
4.74682e+08
2.42833e+08
4.43052e+08
4.13675e+08
2.2989e+08
2.63109e+08
3.78944e+08
3.01023e+08
5.99931e+08
3.78544e+08
5.48303e+08
6.11278e+08
3.02798e+08
4.49417e+08
4.87681e+08
5.49434e+08
6.49409e+08
7.65606e+08
4.63979e+08
4.85226e+08
5.28497e+08
4.26874e+08
5.48499e+08
5.45367e+08
5.56696e+08
3.5472e+08
6.71926e+08
1.0383e+08
1.19124e+08
9.5026e+07
1.56792e+08
1.94482e+08
2.356e+08
1.51639e+08
3.26061e+08
2.59566e+08
1.38412e+08
1.64222e+08
2.33241e+08
1.93698e+08
1.73846e+08
1.6869e+08
9.06008e+07
6.22663e+07
8.41263e+07
6.8735e+07
8.19822e+07
5.31515e+07
4.53483e+07
5.69165e+07
7.58643e+07
5.26046e+07
5.0089e+07
5.7574e+07
5.08104e+07
9.54165e+07
8.83803e+07
6.68279e+07
8.98469e+07
1.49062e+08
7.94348e+07
7.88559e+07
1.25787e+08
1.39624e+08
9.22967e+07
1.88401e+08
1.0308e+08
5.44013e+07
7.95205e+07
7.58468e+07
6.24489e+07
1.00605e+08
1.02785e+08
1.01907e+08
1.00791e+08
9.41684e+07
9.10831e+07
9.53211e+07
9.67502e+07
1.00119e+08
9.63978e+07
1.00148e+08
9.68724e+07
1.10032e+08
1.07055e+08
1.07404e+08
1.09286e+08
1.12799e+08
1.14789e+08
1.11833e+08
1.15653e+08
1.08384e+08
1.05132e+08
1.05906e+08
1.07676e+08
1.14949e+08
1.17009e+08
1.14511e+08
1.18047e+08
1.07427e+08
1.07863e+08
1.06085e+08
1.10096e+08
1.15835e+08
1.12676e+08
1.11284e+08
1.18228e+08
1.08105e+08
1.02657e+08
1.06457e+08
1.03649e+08
1.13872e+08
1.18775e+08
1.16191e+08
1.15534e+08
1.00383e+08
9.62379e+07
9.8329e+07
9.81332e+07
1.06958e+08
1.11497e+08
1.08916e+08
1.09473e+08
1.03505e+08
1.02824e+08
1.01256e+08
1.05161e+08
1.03476e+08
1.029e+08
1.00893e+08
1.05613e+08
8.77588e+07
9.04577e+07
8.94422e+07
8.82964e+07
8.15531e+07
7.96772e+07
8.47855e+07
8.655e+07
8.40164e+07
8.25258e+07
8.48713e+07
8.22216e+07
9.19659e+07
9.28635e+07
9.46002e+07
9.04437e+07
9.00939e+07
8.79468e+07
9.1319e+07
8.69304e+07
9.40975e+07
9.87237e+07
9.70537e+07
9.56046e+07
8.82091e+07
8.42086e+07
8.68096e+07
8.53438e+07
1.45142e+09
1.90913e+09
1.82128e+09
1.57545e+09
1.44307e+09
1.83009e+09
1.55958e+09
1.42211e+09
1.84931e+09
1.67332e+09
1.36009e+09
1.32094e+09
1.78767e+09
1.50011e+09
1.13626e+09
1.30695e+09
9.83484e+08
1.23789e+09
1.15746e+09
1.27129e+09
9.70054e+08
2.74238e+09
3.03892e+09
2.16665e+09
2.30513e+09
2.10673e+09
2.78114e+09
2.97059e+09
3.17591e+09
3.43458e+09
4.13163e+09
2.75335e+09
3.21374e+09
4.0049e+09
2.69557e+09
3.62428e+09
4.11543e+09
4.87597e+09
5.36097e+09
3.70246e+09
4.06488e+09
4.77869e+09
2.39696e+09
1.94396e+09
1.66623e+09
2.14397e+09
1.90616e+09
2.4588e+09
2.11664e+09
3.26359e+09
2.52626e+09
3.24362e+09
2.42289e+09
3.33938e+09
2.48291e+09
3.19849e+09
4.56683e+09
6.06931e+09
4.40138e+09
6.55418e+09
4.30597e+09
4.64153e+09
6.35312e+09
3.24797e+09
2.47534e+09
3.11617e+09
2.27163e+09
3.07799e+09
3.30734e+09
2.44546e+09
4.57689e+09
4.44384e+09
6.4797e+09
5.97343e+09
4.64273e+09
4.37753e+09
6.27763e+09
4.48588e+09
6.20983e+09
2.14859e+09
1.27097e+09
1.39024e+09
1.73292e+09
1.44483e+09
3.77792e+09
3.96457e+09
1.81861e+09
2.36994e+09
2.1513e+09
3.17884e+09
4.68954e+09
9.96249e+09
7.74959e+09
8.74237e+10
9.1963e+10
3.30796e+10
7.59729e+10
3.85999e+10
3.31093e+10
2.48348e+10
4.51587e+10
4.89683e+10
2.71278e+10
1.97213e+10
5.36017e+10
3.67107e+10
2.24244e+10
1.98918e+10
5.84464e+10
8.76159e+09
7.754e+09
1.22116e+10
7.76475e+09
1.02776e+10
1.5066e+10
6.77984e+09
7.35645e+09
5.64767e+09
1.08531e+10
5.14505e+09
7.92217e+09
1.03862e+10
8.08152e+09
1.32331e+10
1.59471e+10
2.37247e+10
9.69925e+09
1.25287e+10
1.5817e+10
1.16069e+10
1.27188e+10
2.13224e+10
1.20225e+10
1.92535e+10
1.37424e+10
1.01018e+10
1.2928e+10
1.3186e+10
1.59702e+10
1.25164e+10
1.05521e+10
1.21893e+10
6.49193e+09
4.30974e+09
5.38643e+09
5.46066e+09
5.26297e+09
6.78868e+09
5.36262e+09
8.2259e+09
1.05416e+10
6.4627e+09
7.42133e+09
6.24081e+09
8.50106e+09
9.96246e+09
8.08331e+09
1.01545e+10
7.61934e+09
6.61733e+09
9.62641e+09
8.37276e+09
6.42153e+09
4.94252e+10
3.76417e+10
3.34706e+10
2.6974e+10
3.31249e+10
4.70799e+10
3.68803e+10
9.64325e+10
2.04548e+11
9.25578e+10
9.12326e+10
1.0556e+11
7.90541e+10
1.24627e+11
7.49803e+10
4.4866e+10
7.72262e+10
4.90605e+10
8.54346e+10
6.87526e+10
4.46483e+10
5.74193e+10
3.49744e+10
3.62473e+10
5.47143e+10
3.59026e+10
4.91991e+10
6.87072e+10
1.32039e+10
8.54717e+09
9.61231e+09
1.33476e+10
9.20323e+09
1.22625e+10
1.41204e+10
1.25103e+10
1.16266e+10
9.275e+09
8.22776e+09
8.95419e+09
1.30486e+10
1.10838e+10
1.94006e+10
3.19845e+10
2.06926e+10
3.08406e+10
1.88028e+10
2.10961e+10
3.04868e+10
6.45945e+08
1.2073e+09
8.08949e+08
9.95757e+08
6.31704e+08
8.61632e+08
9.21163e+08
5.52998e+08
8.31076e+08
1.3442e+09
6.13506e+08
8.44371e+08
5.07634e+08
1.0623e+09
1.55547e+09
6.18593e+08
9.05936e+08
5.75725e+08
9.63672e+08
6.55701e+08
7.87073e+08
5.42595e+08
7.01269e+08
8.22485e+08
7.25056e+08
8.37431e+08
1.04127e+09
6.9798e+08
8.3881e+08
7.25009e+08
7.86316e+08
9.85311e+08
6.89606e+08
8.19878e+08
1.27544e+08
1.5862e+08
1.39352e+08
1.7121e+08
1.39179e+08
1.27835e+08
1.56473e+08
1.13652e+08
1.26668e+08
1.50577e+08
1.03694e+08
1.39007e+08
1.25021e+08
1.67478e+08
1.65562e+08
1.36761e+08
1.52481e+08
8.22749e+07
1.02392e+08
7.74427e+07
9.17669e+07
7.56747e+07
8.38914e+07
9.97634e+07
8.61143e+07
1.15395e+08
1.14306e+08
9.41608e+07
1.05425e+08
7.92062e+07
8.87081e+07
1.04608e+08
7.2571e+07
9.66388e+07
5.67611e+08
2.4273e+08
4.01649e+08
2.25626e+08
3.46199e+08
2.10375e+08
2.76589e+08
2.41175e+08
3.92202e+08
2.25481e+08
4.11199e+08
4.28121e+08
3.38129e+08
4.04842e+08
5.60947e+08
2.90035e+08
4.01709e+08
5.34501e+08
5.43659e+08
5.88648e+08
4.73457e+08
4.83548e+08
4.23438e+08
3.30744e+08
4.80087e+08
3.59319e+08
2.59577e+08
3.89103e+08
3.27959e+08
3.12158e+08
1.252e+09
1.05389e+09
1.0131e+09
7.88146e+08
1.02763e+09
1.26766e+09
1.0025e+09
1.89341e+09
2.78873e+09
2.30198e+09
2.32926e+09
2.28791e+09
1.92083e+09
2.33232e+09
1.54107e+09
1.27907e+09
1.46322e+09
1.82661e+09
1.23352e+09
1.79029e+09
1.54677e+09
1.56501e+09
1.26868e+09
1.85829e+09
1.50711e+09
1.56633e+09
1.24122e+09
1.85019e+09
5.59733e+08
5.47528e+08
7.07601e+08
6.08066e+08
5.48622e+08
5.03972e+08
7.0177e+08
5.6588e+08
5.47258e+08
6.61807e+08
5.57513e+08
5.00073e+08
6.2797e+08
6.22023e+08
5.08281e+08
5.00271e+08
5.96894e+08
4.72154e+08
4.73475e+08
6.77917e+08
4.59494e+08
6.55288e+08
9.0418e+08
6.42189e+08
1.07364e+09
5.40432e+08
8.82656e+08
7.90096e+08
2.86702e+08
6.31434e+08
2.39222e+08
4.81039e+08
3.07297e+08
3.93021e+08
3.16747e+08
3.33321e+08
2.41852e+08
1.49081e+08
1.64245e+08
2.24434e+08
2.64654e+08
1.80432e+08
3.49167e+08
2.19247e+08
2.72771e+08
4.23779e+08
5.60544e+08
3.07109e+08
5.057e+08
3.96688e+08
2.72237e+08
2.13816e+08
2.577e+08
2.5129e+08
3.07522e+08
2.41652e+08
1.98377e+08
3.31379e+08
8.54403e+08
2.57093e+08
2.92646e+08
8.19255e+08
2.35912e+08
1.58206e+08
2.36404e+08
3.46594e+08
2.97161e+08
2.67148e+08
5.28404e+08
2.50766e+08
2.92089e+08
1.4843e+09
4.59253e+08
1.46081e+09
5.97703e+08
5.32643e+08
4.80919e+08
4.03495e+08
4.47474e+08
5.82839e+08
5.34318e+08
8.09273e+08
1.0752e+09
1.00996e+09
8.59654e+08
7.65394e+08
9.89785e+08
8.4992e+08
7.65002e+08
6.85845e+08
9.01023e+08
8.76905e+08
7.16447e+08
7.08367e+08
9.41349e+08
7.0357e+08
1.42333e+08
4.58023e+08
2.08106e+09
4.22417e+08
3.30812e+08
4.18906e+08
3.5073e+08
3.82904e+08
3.47069e+08
4.59042e+08
4.98473e+08
5.25357e+08
5.38637e+08
5.67573e+08
4.47161e+08
5.06486e+08
6.04075e+08
3.79148e+08
3.3432e+08
3.52854e+08
3.29852e+08
3.5599e+08
4.15431e+08
3.37049e+08
5.52435e+08
5.74987e+08
6.2831e+08
7.82593e+08
4.55304e+08
6.27445e+08
6.85255e+08
5.26112e+08
3.64798e+08
2.85869e+08
2.25374e+08
5.22047e+08
2.79678e+08
2.11644e+08
4.16486e+08
2.34688e+08
2.57407e+08
1.98824e+08
4.71711e+08
2.56817e+08
1.94842e+08
3.04285e+08
4.95165e+08
3.46075e+08
2.43799e+08
4.72183e+08
3.92028e+08
4.17726e+08
3.9465e+08
3.06673e+08
2.26932e+08
2.4573e+08
4.12047e+08
1.07368e+08
1.06676e+08
1.20636e+08
1.32229e+08
1.79724e+08
2.52175e+08
1.67887e+08
1.35077e+08
3.70258e+08
2.9237e+08
1.71762e+08
2.17035e+08
2.24765e+08
1.62142e+08
2.67427e+08
3.23737e+08
2.1935e+08
2.32361e+08
2.03291e+08
2.82832e+08
3.05364e+09
3.4685e+09
2.36543e+09
2.6898e+09
3.42288e+09
3.06629e+09
2.35655e+09
3.39772e+09
3.50827e+09
4.30479e+09
2.85551e+09
4.18577e+09
2.80463e+09
3.40975e+09
3.96075e+09
4.58415e+09
5.776e+09
5.14447e+09
4.57985e+09
5.05774e+09
4.01464e+09
2.59674e+09
2.03585e+09
2.23358e+09
1.7481e+09
2.23157e+09
2.63026e+09
2.06302e+09
1.80195e+09
1.69683e+09
2.34287e+09
2.18697e+09
2.30971e+09
1.80576e+09
1.68808e+09
1.46307e+09
1.34057e+09
1.25134e+09
1.56032e+09
1.28208e+09
1.50574e+09
1.50715e+09
1.39568e+09
1.29198e+09
1.13346e+09
1.09841e+09
1.21285e+09
1.38748e+09
1.30922e+09
1.82696e+09
2.50021e+09
2.40365e+09
1.92853e+09
2.38318e+09
1.92726e+09
1.82204e+09
1.36363e+09
1.75972e+09
1.52286e+09
1.97763e+09
1.3333e+09
1.77468e+09
1.55024e+09
8.77386e+08
6.25983e+08
6.14159e+08
5.88858e+08
7.4257e+08
7.36524e+08
8.00426e+08
1.18705e+09
1.50358e+09
9.09019e+08
1.31732e+09
9.75704e+08
1.11823e+09
1.52492e+09
1.0443e+09
1.14404e+09
7.79451e+08
9.93612e+08
8.55812e+08
9.86274e+08
1.17331e+09
1.67913e+08
1.91479e+08
2.66933e+08
2.25056e+08
2.09606e+08
2.91409e+08
3.28189e+08
2.1608e+08
1.86615e+08
2.92971e+08
1.72921e+08
1.81768e+08
2.98536e+08
1.69084e+08
2.61339e+08
1.74687e+08
1.40937e+08
1.1987e+08
1.02929e+08
1.78957e+08
9.00954e+07
1.60586e+08
8.31579e+07
1.14057e+08
1.27447e+08
1.13103e+08
1.12854e+08
1.11269e+08
1.16978e+08
9.53134e+07
1.45587e+08
8.9366e+07
1.73208e+08
1.33368e+08
1.92328e+08
1.38796e+08
2.24345e+08
1.29895e+08
1.183e+08
1.2791e+08
1.46872e+08
1.67558e+08
1.62025e+08
1.56592e+08
2.34147e+08
1.57223e+08
2.38719e+08
1.41514e+08
2.30758e+08
1.3021e+08
1.47886e+08
1.97418e+08
2.78441e+08
3.72298e+08
3.17677e+08
3.03022e+08
2.22055e+08
1.58844e+08
2.49308e+08
1.46684e+08
2.49968e+08
1.49527e+08
2.03066e+08
2.30653e+08
5.7407e+09
2.2566e+09
3.16765e+09
5.22772e+09
5.30388e+09
3.41253e+09
5.59092e+09
9.72727e+09
9.7878e+09
1.20364e+10
1.10515e+10
8.28536e+09
8.48006e+09
6.76462e+09
1.09956e+10
7.87093e+09
7.46819e+09
3.66182e+10
2.82904e+10
5.23402e+10
3.3408e+10
2.47278e+10
4.42439e+10
5.16679e+10
1.46968e+11
3.05905e+11
1.19206e+11
1.95136e+11
1.37663e+11
2.80839e+11
9.70923e+10
1.55539e+10
2.24577e+10
1.77575e+10
2.12114e+10
1.5886e+10
1.68607e+10
1.79236e+10
1.17449e+10
8.69266e+09
9.88959e+09
1.28858e+10
1.21078e+10
7.44008e+09
1.14328e+10
1.93366e+10
1.15535e+10
2.11956e+10
1.4497e+10
1.45844e+10
1.10575e+10
1.23401e+10
9.23409e+09
9.8502e+09
1.19259e+10
1.18968e+10
8.52899e+09
1.73669e+10
2.1188e+10
1.70363e+10
2.20817e+10
1.58226e+10
2.00579e+10
1.61438e+10
4.35929e+10
4.73685e+10
3.17427e+10
3.14072e+10
4.47576e+10
4.84399e+10
2.74775e+10
5.53117e+10
8.3365e+10
6.52047e+10
6.75231e+10
5.68727e+10
5.85874e+10
6.77947e+10
5.30492e+10
5.28435e+10
5.05406e+10
8.3666e+10
4.90859e+10
5.33624e+10
5.98509e+10
4.12893e+10
3.00818e+10
4.91288e+10
3.13808e+10
4.57499e+10
2.55233e+10
4.87372e+10
9.25246e+08
8.62089e+08
5.1564e+08
4.9956e+08
4.71025e+08
7.83626e+08
8.46846e+08
1.1781e+09
4.39327e+08
3.25878e+08
6.89792e+08
8.32668e+08
6.69688e+08
3.77203e+08
2.8201e+08
3.59976e+08
4.76002e+08
8.08081e+08
5.84792e+08
6.67984e+08
6.03385e+08
8.35937e+08
9.54918e+08
7.39316e+08
9.93501e+08
4.13099e+08
8.30162e+08
7.27917e+08
5.38206e+08
8.88727e+08
6.37202e+08
5.62598e+08
9.69237e+08
7.7956e+08
8.86968e+08
9.86961e+08
6.92493e+08
8.98205e+08
7.61763e+08
3.08149e+08
6.74579e+08
4.92325e+08
4.66946e+08
3.76295e+08
2.13226e+08
1.73372e+08
4.82047e+08
5.71374e+08
3.87227e+08
3.04817e+08
6.28179e+08
2.49726e+08
3.68789e+08
4.25097e+08
2.14591e+08
8.98942e+08
8.07767e+08
8.69008e+08
7.43643e+08
2.4353e+09
5.70928e+09
3.42708e+09
2.74071e+09
1.53252e+09
1.54863e+09
1.02033e+09
2.40333e+09
1.27934e+09
1.00217e+09
1.07833e+09
1.14208e+09
7.33889e+08
5.49044e+08
4.6275e+08
6.78303e+08
5.42876e+08
1.06409e+09
6.8403e+08
7.05283e+08
7.65616e+08
4.38952e+08
7.293e+08
5.37529e+08
8.63851e+08
8.00754e+08
1.09534e+09
1.11985e+09
1.82845e+09
2.6942e+09
2.33633e+09
1.96767e+09
2.42339e+09
1.78633e+09
1.90086e+09
2.79077e+09
3.57498e+09
3.1886e+09
3.17739e+09
3.36702e+09
3.16881e+09
3.50724e+09
9.0353e+09
5.54053e+09
1.53206e+10
4.77964e+09
6.98738e+09
4.73109e+09
7.81737e+09
1.15613e+10
4.97719e+09
1.09439e+10
5.8128e+09
2.35064e+09
2.17176e+09
1.23297e+09
3.1065e+09
2.15455e+09
1.5494e+09
2.3957e+09
2.04073e+09
2.17126e+09
1.9211e+09
2.24674e+09
1.1942e+09
8.93833e+08
1.78177e+09
8.01598e+08
1.22779e+09
1.22307e+09
1.23849e+09
1.3338e+09
1.28229e+09
1.43531e+09
1.40469e+09
2.29086e+09
1.50195e+09
1.43181e+09
2.12349e+09
1.31832e+08
8.15318e+07
8.49985e+07
8.22818e+07
1.64476e+08
8.49604e+07
7.80626e+07
2.42146e+08
1.66453e+08
1.26916e+08
1.11155e+08
1.9694e+08
1.22099e+08
1.1223e+08
7.01297e+07
7.4192e+07
8.94067e+07
1.81576e+08
3.02882e+08
1.91999e+08
2.85785e+08
9.53444e+07
9.08141e+07
1.34197e+08
3.11436e+07
3.82381e+07
3.95047e+07
1.00876e+08
6.69703e+07
4.07187e+07
6.82901e+07
4.81629e+07
4.74761e+07
6.13711e+07