/*--------------------------------*- C++ -*----------------------------------*\
| =========                 |                                                 |
| \\      /  F ield         | OpenFOAM: The Open Source CFD Toolbox           |
|  \\    /   O peration     | Version:  2012                                  |
|   \\  /    A nd           | Website:  www.openfoam.com                      |
|    \\/     M anipulation  |                                                 |
\*---------------------------------------------------------------------------*/
FoamFile
{
    version     2.0;
    format      ascii;
    class       volSymmTensorField;
    location    "0.108/solid";
    object      sigma;
}
// * * * * * * * * * * * * * * * * * * * * * * * * * * * * * * * * * * * * * //

dimensions      [1 -1 -2 0 0 0 0];


internalField   nonuniform List<symmTensor> 
3124
(
(-7.42356e+07 5.36945e+07 6.21058e+07 -7.12917e+07 -2.52575e+07 -5.24606e+07)
(-2.17471e+08 1.52422e+08 1.01445e+08 -5.61633e+08 -1.2262e+08 -1.35117e+08)
(-5.71683e+09 7.94282e+08 5.62826e+09 -1.36498e+09 -1.715e+09 -1.65684e+09)
(-1.20416e+09 -1.71472e+08 1.01021e+09 -7.29042e+08 6.5422e+07 -1.42423e+09)
(-4.60864e+08 3.43745e+06 2.24698e+08 -4.32893e+08 4.93154e+07 -9.5539e+08)
(-1.7373e+08 -748144 8.36777e+07 -1.54011e+08 1.11865e+07 -3.41796e+08)
(-1.82112e+08 1.37843e+08 8.80258e+07 -4.14398e+08 -8.72255e+07 -1.08672e+08)
(-2.33533e+08 -1.9163e+06 7.51721e+07 -1.53407e+08 -5.68076e+07 -4.75884e+08)
(-8.97058e+07 9.57975e+07 -4.41291e+07 -7.30965e+07 1.76818e+07 -4.69593e+07)
(-3.24738e+09 4.95908e+08 3.41432e+09 -9.48073e+08 -9.10477e+08 -1.04775e+09)
(-1.23474e+09 -1.18932e+08 1.14006e+09 -6.27287e+08 -7.46956e+07 -1.2161e+09)
(-5.55331e+09 2.89797e+08 5.40532e+09 -2.7529e+09 -1.78962e+09 -1.68694e+09)
(-2.99651e+08 -1.11081e+07 7.05023e+07 -2.16456e+08 -2.50246e+07 -6.03789e+08)
(-1.12606e+09 -6.87345e+07 3.9789e+08 -6.4735e+08 -2.77118e+07 -1.00058e+09)
(-3.54189e+09 3.27413e+08 3.47468e+09 -1.49311e+09 -9.75291e+08 -1.13323e+09)
(-4.38742e+07 3.22358e+07 -4.2324e+07 -7.11252e+07 1.65358e+07 -3.83467e+07)
(-9.99756e+08 -1.33936e+08 2.85609e+08 -6.70844e+08 8.43839e+06 -1.25497e+09)
(-4.82714e+08 -6.57078e+06 1.62371e+08 -4.20841e+08 2.61721e+07 -8.99813e+08)
(-1.84797e+08 -716932 8.86962e+07 -1.64132e+08 1.16577e+07 -3.61598e+08)
(-4.13366e+08 1.73274e+06 2.11435e+08 -3.87048e+08 4.12094e+07 -8.59837e+08)
(-1.9284e+08 -2.37511e+06 5.36263e+07 -1.62236e+08 5.32945e+06 -3.47888e+08)
(-4.03159e+08 -6.6419e+06 1.33811e+08 -3.48736e+08 1.92116e+07 -7.36085e+08)
(-1.74366e+08 -2.29019e+06 4.7361e+07 -1.46409e+08 5.65467e+06 -3.14715e+08)
(-3.53784e+08 6.20509e+07 1.35924e+08 -4.80009e+08 -9.31948e+07 -7.18104e+07)
(-1.49502e+09 -7.56841e+08 4.90087e+08 -1.3447e+09 -3.87187e+06 1.31446e+09)
(-6.46736e+08 -1.37084e+08 6.22639e+08 -2.13701e+09 -1.89011e+09 -1.16266e+09)
(-7.69975e+08 1.12212e+08 1.57091e+07 -9.37522e+08 1.60035e+07 -5.76085e+08)
(-1.28774e+08 8.93622e+07 8.97986e+07 -1.82201e+08 -5.64854e+07 -1.16544e+08)
(-1.24171e+08 1.23618e+08 3.15581e+07 -1.06572e+08 1.04929e+06 -3.67792e+07)
(-1.65824e+08 3.46841e+07 3.3247e+07 -3.95111e+07 6.4456e+07 -2.86159e+07)
(-2.21086e+08 6.39e+07 2.6514e+08 -1.61007e+08 -1.44391e+08 -2.03101e+08)
(-2.33428e+08 1.97628e+08 3.98104e+07 -3.33326e+08 -1.39333e+07 -1.32619e+08)
(1.81356e+06 -512835 7.902e+07 4.93985e+07 -9.52799e+06 2.78694e+08)
(-4.6985e+07 -8.29955e+07 1.66661e+08 7.74844e+07 8.05649e+07 5.3303e+08)
(5.09849e+07 -2.68682e+06 -2.08468e+07 2.36118e+07 -5.07608e+06 3.51798e+07)
(-1.69573e+06 -1.98656e+07 -3.58516e+07 -2.35828e+07 1.89736e+07 -2.29298e+07)
(-8.69179e+07 6.50487e+06 7.54171e+07 -1.76186e+07 -1.88961e+07 4.2921e+07)
(-1.67758e+08 -1.51873e+07 5.67218e+07 -1.06086e+08 6.10926e+06 -2.01294e+08)
(-1.08239e+08 -1.704e+06 4.78939e+06 -9.8505e+07 3.02092e+06 -2.22614e+08)
(-1.16727e+08 -2.74505e+06 8.74801e+06 -1.05158e+08 2.1033e+06 -2.32073e+08)
(-1.02752e+08 -1.64978e+06 3.76823e+06 -9.39776e+07 3.46669e+06 -2.12638e+08)
(-8.17621e+07 -1.31122e+06 1.19166e+06 -7.62496e+07 3.91058e+06 -1.71965e+08)
(-3.02946e+08 7.72251e+07 9.75145e+07 -7.12081e+08 -1.87928e+08 -2.12733e+08)
(-1.01046e+09 7.24601e+08 1.17185e+09 -1.31952e+09 -1.28948e+09 -7.22777e+08)
(-7.90785e+08 3.93215e+08 1.03963e+09 -2.97432e+09 -2.47087e+09 -1.76215e+09)
(6.60884e+08 2.32994e+08 7.13769e+08 6.62176e+07 -1.96708e+06 2.73584e+09)
(-6.54339e+08 1.74822e+08 1.88185e+09 -3.5291e+09 -3.17886e+09 -8.52714e+08)
(-1.91948e+09 1.18598e+09 2.08524e+09 -1.73643e+09 -1.82522e+09 -1.20268e+09)
(-9.0785e+10 1.7838e+10 5.35649e+10 -4.71168e+10 -4.30358e+10 -8.26473e+10)
(-1.15551e+09 1.49853e+09 2.58917e+09 -5.24703e+09 -4.26849e+09 -2.37428e+09)
(-8.26273e+08 6.92402e+06 2.9615e+08 -7.90861e+08 5.28226e+07 -1.81561e+09)
(-7.66022e+08 1.08936e+07 2.92387e+08 -7.34613e+08 4.62521e+07 -1.70123e+09)
(-1.06907e+08 -426079 4.54777e+07 -9.51996e+07 1.03973e+07 -2.05748e+08)
(-9.7128e+07 -460617 4.13047e+07 -8.6524e+07 9.441e+06 -1.88512e+08)
(-8.88549e+07 6.24423e+07 5.76461e+07 -1.69001e+08 -5.33958e+07 -1.08664e+08)
(-7.90167e+08 5.04306e+08 9.04724e+08 -8.09322e+08 -8.35434e+08 -4.1421e+08)
(-2.66709e+08 9.89993e+07 3.32477e+08 -2.1412e+08 -2.0577e+08 -2.28052e+08)
(-2.92833e+08 2.71333e+08 2.0967e+07 -3.34729e+08 2.67281e+06 -1.76682e+08)
(-5.09692e+08 5.49726e+07 4.92031e+08 -1.62783e+08 -1.01789e+08 -1.76474e+08)
(-1.02165e+08 -6.64721e+06 6.2708e+07 1.5832e+07 -6.8675e+07 7.30696e+07)
(-2.79478e+08 6.79486e+07 3.09009e+08 -1.44625e+08 -1.54895e+08 -1.98529e+08)
(-7.35929e+08 1.0903e+08 -1.66674e+07 -8.79905e+08 2.81903e+07 -5.0636e+08)
(-1.34288e+08 1.38957e+08 -1.71002e+07 -9.87861e+07 2.24392e+07 -5.34828e+07)
(-8.1531e+07 -283693 -6.98193e+07 2.58845e+07 -3.11205e+07 -1.71969e+07)
(-8.60271e+07 1.27496e+08 -5.32989e+07 -2.12557e+08 2.48422e+07 -9.27244e+07)
(-1.43176e+08 2.47936e+07 -1.43431e+07 2.12803e+07 3.72843e+07 -1.91251e+07)
(-3.83299e+08 7.05492e+07 -4.31754e+07 -4.62897e+08 -1.2875e+07 -2.66135e+08)
(-2.16395e+08 2.09076e+08 -2.68923e+07 -3.27018e+08 1.8293e+07 -1.34607e+08)
(-8.57365e+07 -1.69448e+07 -5.51029e+07 -1.95487e+07 -2.46149e+07 -2.37804e+07)
(-1.84391e+08 1.67218e+07 -1.54694e+07 -1.12516e+08 3.31608e+07 -4.90469e+07)
(-1.39204e+09 7.35908e+08 1.47607e+09 -1.01292e+09 -1.11909e+09 -7.40829e+08)
(-8.17016e+08 9.52654e+07 7.93245e+08 -3.31859e+08 -1.78449e+08 -4.79868e+08)
(-4.03472e+08 1.30933e+08 4.31129e+08 -2.37133e+08 -2.4047e+08 -2.97267e+08)
(-4.27762e+07 1.11263e+07 -1.7242e+07 -9.13629e+07 5.02966e+06 -4.88271e+07)
(-2.93242e+08 2.64236e+08 -2.56658e+07 -3.19338e+08 8.09414e+06 -1.70369e+08)
(-2.43316e+09 -1.24235e+08 1.49633e+09 -8.72468e+08 -1.52715e+08 -1.59074e+09)
(-7.94112e+10 -1.27293e+10 3.14116e+10 5.2817e+08 -2.57744e+10 -9.20758e+10)
(-2.75857e+09 6.07458e+07 1.99612e+09 -6.91424e+08 -2.58615e+08 -2.10568e+09)
(-5.81635e+08 3.9884e+07 5.269e+08 -1.82997e+08 -8.40386e+07 -3.88103e+08)
(-1.87854e+08 -9.60252e+07 3.00943e+08 4.13186e+07 1.31038e+08 3.8031e+08)
(-1.00708e+08 -3.51845e+06 1.21048e+08 -4.32946e+07 -1.14603e+07 1.12669e+08)
(-2.91032e+09 -3.74568e+07 1.26469e+09 -1.48182e+09 -2.9859e+08 -3.85717e+09)
(-2.64208e+08 -1.27224e+08 3.32808e+08 -5.76082e+07 1.12639e+08 2.02424e+08)
(-9.25185e+08 7.35382e+07 8.6056e+08 -4.10961e+08 -1.86663e+08 -8.16455e+08)
(-5.15576e+09 -2.88374e+08 2.19789e+09 -3.17477e+09 -2.32721e+08 -8.15691e+09)
(-6.64497e+08 -1.24902e+08 5.20997e+08 -3.10948e+08 1.57237e+08 -5.02254e+08)
(2.40579e+07 900495 -2.53462e+07 -8.48494e+06 -5.00699e+06 1.70825e+07)
(-7.20297e+06 -2.48117e+07 -2.79986e+07 -5.31535e+07 1.89632e+07 -2.45351e+07)
(-6.77666e+07 757264 -6.88472e+07 -1.18608e+07 -2.95426e+07 -2.14859e+07)
(3.26335e+07 2.01886e+07 -4.16643e+07 -9.65197e+07 1.9037e+07 -3.10227e+07)
(-3.63653e+08 7.78296e+07 -4.58444e+07 -4.39929e+08 -1.13492e+07 -2.53541e+08)
(-1.91153e+07 -8.85534e+06 -4.66372e+07 -4.52896e+07 1.01572e+07 -2.65973e+07)
(9.2653e+07 -5.95689e+07 -1.79545e+07 -7.28788e+06 1.50598e+07 1.44173e+07)
(1.26777e+08 -1.73608e+08 9.04663e+06 7.80377e+07 -4.69391e+06 6.00787e+07)
(-1.29521e+07 -4.31766e+06 -2.58514e+07 -2.08165e+07 7.76836e+06 -2.98334e+07)
(-8.43748e+07 -9.662e+06 -5.51302e+07 -4.84282e+07 -2.17454e+07 -4.1416e+07)
(-3.99945e+07 -311959 -3.49071e+07 -4.93928e+07 2.78949e+06 -4.65002e+07)
(3.86792e+07 -6.40348e+07 -1.54161e+07 -2.14204e+07 1.67686e+06 627228)
(1.28549e+08 -1.75204e+08 3.62852e+06 7.49273e+07 -5.63905e+06 5.97566e+07)
(-2.28489e+08 7.85736e+06 1.31884e+08 -1.39436e+08 -3.14367e+07 -2.23374e+08)
(-9.04419e+08 -6.72863e+06 2.65038e+08 -8.16408e+08 3.21209e+07 -1.81343e+09)
(-3.06221e+08 -2.59759e+07 1.12754e+08 -2.28429e+08 2.26335e+07 -4.74424e+08)
(-1.34475e+08 -9.43324e+06 2.38688e+07 -1.10898e+08 5.40443e+06 -2.27424e+08)
(-1.60882e+08 -1.43794e+07 4.65347e+07 -1.12229e+08 4.43224e+06 -2.1674e+08)
(-7.96742e+08 -440665 2.4556e+08 -7.13463e+08 3.50274e+07 -1.58174e+09)
(-1.84741e+08 -1.46495e+07 4.48086e+07 -1.5479e+08 1.14004e+07 -3.13734e+08)
(-2.69828e+08 -2.41373e+07 8.94268e+07 -2.09747e+08 1.4216e+07 -4.23828e+08)
(-2.5101e+08 -1.01142e+06 1.29221e+08 -2.26415e+08 1.47183e+07 -4.98389e+08)
(-2.66172e+08 -977942 1.35922e+08 -2.4067e+08 1.731e+07 -5.251e+08)
(-1.28103e+08 -7.22511e+06 1.92235e+07 -1.09643e+08 3.78216e+06 -2.2815e+08)
(-1.18674e+08 -3.37282e+06 1.07353e+07 -1.06209e+08 2.45171e+06 -2.31901e+08)
(-1.2237e+08 -2.25176e+06 1.16012e+07 -1.09435e+08 3.88595e+06 -2.44834e+08)
(-2.49184e+08 -3.3586e+06 7.46875e+07 -2.11179e+08 7.12606e+06 -4.46594e+08)
(-1.36967e+08 -3.68318e+06 1.73862e+07 -1.21569e+08 3.44828e+06 -2.64478e+08)
(-1.67197e+08 -1.09556e+07 3.50783e+07 -1.43517e+08 7.30428e+06 -2.92553e+08)
(-2.75202e+08 -3.96525e+06 8.46049e+07 -2.34148e+08 8.37292e+06 -4.93371e+08)
(-1.42003e+08 -4.59907e+06 2.02487e+07 -1.25366e+08 3.95877e+06 -2.69617e+08)
(-1.15009e+08 -2.21288e+06 9.97728e+06 -1.03366e+08 4.37199e+06 -2.31664e+08)
(-1.16114e+08 -1.81499e+06 2.92295e+07 -9.88832e+07 5.19838e+06 -2.10245e+08)
(-8.83844e+07 -1.74582e+06 5.42553e+06 -8.13081e+07 4.63814e+06 -1.81526e+08)
(-7.44959e+07 -1.12445e+06 570499 -6.98939e+07 3.78671e+06 -1.57381e+08)
(-9.97411e+07 -1.30298e+06 2.43484e+07 -8.5147e+07 4.55108e+06 -1.80614e+08)
(-7.96333e+07 -1.46652e+06 4.2429e+06 -7.37943e+07 4.40375e+06 -1.64476e+08)
(-8.3197e+08 -5.50378e+08 -2.52099e+07 -8.91075e+08 7.11032e+07 3.64292e+08)
(-7.32806e+08 -4.73019e+08 4.77644e+08 -6.65369e+08 -9.8101e+06 2.12177e+08)
(1.89518e+07 5.66561e+06 3.06913e+06 4.73254e+07 1.42184e+06 1.95913e+08)
(2.54218e+07 -2.36627e+06 -4.69717e+06 5.31185e+07 1.36206e+07 2.44833e+08)
(-4.50761e+06 7.75811e+06 1.46194e+07 2.94732e+07 -4.13458e+06 1.24315e+08)
(-2.70163e+07 4.64155e+06 2.20815e+07 1.11142e+07 -4.53528e+06 6.08899e+07)
(-8.79862e+07 -774867 -3.94162e+06 -8.24351e+07 1.67896e+06 -1.88971e+08)
(-9.00032e+07 -849765 -3.49039e+06 -8.40276e+07 1.21272e+06 -1.92292e+08)
(-8.47978e+07 -737257 -4.26548e+06 -7.97583e+07 2.07034e+06 -1.82878e+08)
(-8.07044e+07 -702469 -4.47926e+06 -7.62226e+07 2.36539e+06 -1.74674e+08)
(-4.4905e+08 4.96385e+08 7.84386e+07 -1.79457e+09 -1.86424e+08 -1.00989e+08)
(-2.50524e+08 1.46415e+08 1.01451e+08 -7.01471e+08 -1.57093e+08 -1.75785e+08)
(-2.73811e+08 2.1839e+08 3.09204e+08 -6.30598e+08 -4.32788e+08 -1.57607e+08)
(-2.18339e+08 2.85191e+08 4.41115e+06 -8.3807e+08 5.12898e+07 1.3622e+08)
(-4.71218e+08 5.12461e+08 9.00429e+07 -1.17912e+09 -1.22666e+08 -1.98738e+07)
(-2.91709e+08 2.14522e+08 3.11429e+08 -8.27326e+08 -5.58629e+08 -2.30503e+08)
(-2.65628e+08 2.59856e+08 7.13302e+06 -1.13971e+09 4.97767e+07 1.66695e+08)
(-1.6065e+10 9.85321e+09 1.54e+09 -6.34802e+09 -6.45529e+08 -1.8483e+09)
(-1.05982e+10 1.55339e+09 2.40011e+09 -1.96424e+09 -6.6184e+08 -1.02988e+09)
(-5.08062e+09 1.65861e+09 4.76016e+09 -1.81116e+09 -2.16448e+09 -2.08157e+09)
(-9.47198e+09 1.33842e+09 8.86281e+09 2.96006e+08 -3.06847e+09 5.99514e+08)
(-8.19001e+09 3.2761e+09 1.06131e+09 -2.35628e+09 -5.48724e+08 -1.15226e+09)
(-2.13054e+10 -7.90557e+08 -1.02382e+08 3.12097e+08 -8.7599e+08 1.41533e+09)
(-8.39944e+09 3.91278e+09 7.59354e+09 -2.99231e+09 -3.8792e+09 -1.69541e+09)
(-5.18433e+09 -2.05697e+08 2.37722e+09 -2.73496e+09 2.40336e+07 -3.90884e+09)
(-9.19836e+08 -9.9373e+07 4.65373e+08 -8.1032e+08 8.59958e+06 -1.72513e+09)
(-2.42128e+09 -8.84579e+07 1.03559e+09 -1.19842e+09 8.18304e+06 -1.56063e+09)
(-5.84028e+08 5.97122e+06 2.64155e+08 -5.54683e+08 5.22628e+07 -1.26989e+09)
(-7.63999e+08 -7.46946e+06 3.70625e+08 -4.41239e+08 8.99961e+06 -7.03168e+08)
(-9.47722e+08 -9.61486e+06 4.50186e+08 -5.3932e+08 9.93517e+06 -8.48445e+08)
(-2.71641e+08 -2.11521e+06 1.29661e+08 -1.56728e+08 2.23027e+06 -2.50978e+08)
(-1.45872e+08 -1.09913e+06 6.70669e+07 -1.29226e+08 1.23654e+07 -2.83448e+08)
(-2.21769e+08 -3.06831e+06 1.04616e+08 -1.28005e+08 2.32395e+06 -2.04849e+08)
(-7.15174e+07 -93370.3 2.83977e+07 -6.33663e+07 6.66316e+06 -1.3766e+08)
(-9.86467e+07 -1.1318e+06 4.56784e+07 -5.75935e+07 1.45123e+06 -9.28041e+07)
(-3.39582e+08 3.09679e+08 3.13529e+07 -5.50022e+08 -5.09571e+07 -5.93269e+07)
(-1.49077e+08 1.1089e+08 7.03035e+07 -2.92011e+08 -6.2953e+07 -1.10009e+08)
(-2.4154e+08 1.87232e+08 2.69574e+08 -4.42362e+08 -3.00702e+08 -9.8215e+07)
(-2.15801e+08 2.77699e+08 -5.05653e+06 -7.40664e+08 4.93236e+07 8.23589e+07)
(-4.5726e+08 4.71485e+08 8.96739e+07 -9.81199e+08 -9.75275e+07 -2.57085e+06)
(-2.07307e+08 1.40221e+08 2.08065e+08 -3.06311e+08 -1.92677e+08 -1.03752e+08)
(-1.8022e+08 2.23998e+08 1.07405e+07 -4.46998e+08 1.15383e+07 -1.04892e+08)
(-3.37603e+08 -9.62615e+06 -6.02323e+07 -8.43221e+07 3.75411e+07 -1.23262e+08)
(-2.59806e+08 3.34778e+06 9.85681e+07 -1.22726e+08 -5.75948e+07 -2.97765e+08)
(-4.02899e+08 1.54009e+07 -2.15202e+07 -1.27171e+08 -6.46168e+07 -2.86705e+08)
(-2.16094e+08 -4.5377e+06 7.90338e+07 -8.45431e+07 -9.152e+07 -2.16221e+08)
(-2.98797e+09 9.02177e+08 3.63177e+08 -8.15436e+08 -1.5785e+08 -4.25344e+08)
(-7.90326e+09 1.06985e+09 8.89245e+08 -1.84387e+09 1.006e+07 -7.80676e+08)
(-3.07672e+09 8.61659e+08 2.98519e+09 -1.06816e+09 -1.1992e+09 -1.39405e+09)
(-2.12589e+09 2.91121e+08 2.07625e+09 -6.86109e+08 -4.95524e+08 -7.01663e+08)
(-6.29956e+09 2.32614e+09 8.58734e+08 -1.7786e+09 -4.05331e+08 -8.64102e+08)
(-3.47385e+09 5.54867e+08 4.29885e+08 -5.11035e+08 8.10246e+07 1.01787e+08)
(-1.89794e+09 4.47315e+08 1.80914e+09 -6.67373e+08 -6.54224e+08 -8.80137e+08)
(-6.52867e+09 -2.01453e+08 2.94788e+09 -3.46062e+09 2.66141e+07 -4.9573e+09)
(-1.15289e+09 -4.34924e+06 9.60021e+08 -2.73373e+08 -8.18554e+07 4.79235e+08)
(-1.02722e+10 -2.37143e+08 4.30419e+09 -5.21802e+09 -7.9853e+06 -7.23395e+09)
(-1.66294e+10 1.0865e+10 -1.17e+09 -1.22426e+10 -2.04992e+09 -2.31096e+09)
(-9.34522e+09 9.89539e+08 1.04743e+09 -2.74138e+09 -1.23837e+08 -2.91578e+07)
(-7.86624e+09 -1.10913e+09 7.32659e+09 -3.23298e+09 -2.60845e+09 7.51233e+07)
(-5.72748e+09 9.83999e+08 5.40477e+09 -3.35975e+09 -2.62193e+09 -3.60165e+09)
(-1.41963e+10 -3.05513e+09 9.05737e+08 -2.65767e+09 -9.89861e+08 2.62889e+09)
(-1.13183e+10 2.03728e+09 2.35534e+09 -4.66274e+09 -1.37292e+09 -3.56769e+09)
(-6.38518e+09 2.12348e+09 6.44194e+09 -5.63889e+09 -4.42129e+09 -4.25053e+08)
(-5.35361e+08 -6.07822e+07 2.3963e+08 -3.95835e+08 -3.38562e+07 -5.7973e+08)
(-1.39914e+09 -3.86969e+07 5.21986e+08 -7.41323e+08 4.37517e+07 -1.11447e+09)
(-4.79272e+08 -8.35691e+07 3.43626e+08 -3.20025e+08 5.48723e+07 -3.26488e+08)
(-4.17673e+09 1.51866e+08 7.5508e+08 -1.2274e+09 -4.26371e+08 -1.27109e+09)
(-7.47292e+09 9.0391e+08 9.64555e+08 -1.81656e+09 -5.98383e+06 -9.50955e+07)
(-2.30687e+09 1.80953e+08 2.06005e+09 -9.12556e+08 -5.62644e+08 -9.07894e+08)
(-3.83214e+09 3.77344e+08 3.53599e+09 -1.83186e+09 -1.22583e+09 -2.41379e+09)
(-3.39007e+09 4.20117e+08 4.35529e+08 -2.73083e+08 -5.70897e+07 4.87017e+08)
(-7.73103e+09 1.16141e+09 1.68589e+09 -2.24237e+09 -9.40573e+08 -5.79098e+08)
(-2.52451e+09 1.69748e+08 2.05634e+09 -1.16278e+09 -5.57069e+08 -2.01746e+09)
(-7.38146e+08 -6.46561e+07 1.99988e+08 -6.12341e+08 -6.16853e+07 -1.30508e+09)
(-9.64788e+08 -8.54021e+07 2.41688e+08 -7.92212e+08 -2.5645e+07 -1.61062e+09)
(-8.71677e+08 -4.3179e+07 1.61475e+08 -7.78902e+08 -4.32856e+06 -1.8415e+09)
(-8.08126e+07 -3.15307e+06 7.33706e+06 -6.84336e+07 76498.3 -1.47014e+08)
(-7.80316e+07 -3.2833e+06 1.05823e+07 -6.22799e+07 -344141 -1.31426e+08)
(-5.84062e+08 -5.43978e+06 1.94746e+08 -5.12549e+08 2.98697e+07 -1.11158e+09)
(-3.54736e+08 -1.4249e+07 8.76927e+07 -3.10853e+08 2.62527e+07 -6.47695e+08)
(-4.29927e+08 -1.60734e+07 1.0212e+08 -3.79929e+08 3.35513e+07 -8.10557e+08)
(-2.85829e+08 -2.14735e+06 1.37308e+08 -1.6528e+08 2.31156e+06 -2.65134e+08)
(-2.09633e+08 -1.18897e+06 1.05024e+08 -1.87606e+08 1.1018e+07 -4.14317e+08)
(-3.27809e+08 -2.16444e+06 1.61295e+08 -1.91698e+08 2.68528e+06 -3.10532e+08)
(-7.03044e+08 -7.6413e+06 3.45119e+08 -4.08525e+08 8.10157e+06 -6.54735e+08)
(-3.35735e+08 -1.31546e+06 1.72734e+08 -3.08158e+08 2.92761e+07 -6.69517e+08)
(-5.62415e+08 -6.19231e+06 2.79951e+08 -3.29495e+08 6.29996e+06 -5.32016e+08)
(-8.34427e+07 -2.72861e+06 4.4748e+06 -7.33635e+07 133445 -1.59983e+08)
(-8.53774e+07 -2.22674e+06 2.29061e+06 -7.67775e+07 372114 -1.69492e+08)
(-1.63542e+08 -3.25313e+06 3.50953e+07 -1.41033e+08 5.56654e+06 -3.0833e+08)
(-2.09501e+08 -2.52067e+06 5.97871e+07 -1.7655e+08 4.96459e+06 -3.76833e+08)
(-1.74961e+08 -3.4488e+06 3.88507e+07 -1.50853e+08 5.04013e+06 -3.26581e+08)
(-2.99593e+08 -1.14509e+07 7.66204e+07 -2.61266e+08 1.75031e+07 -5.37348e+08)
(-3.47863e+08 -6.08789e+06 1.12648e+08 -2.98834e+08 1.38939e+07 -6.26956e+08)
(-2.62838e+08 -8.91124e+06 6.79473e+07 -2.27716e+08 1.21357e+07 -4.71103e+08)
(-1.50033e+08 -3.2789e+06 3.10119e+07 -1.29899e+08 6.32889e+06 -2.84881e+08)
(-1.54558e+08 -2.42155e+06 4.10918e+07 -1.30088e+08 5.82276e+06 -2.79083e+08)
(-1.34849e+08 -3.25371e+06 2.66017e+07 -1.17597e+08 6.59867e+06 -2.57476e+08)
(-5.5494e+07 -394651 -4.38604e+06 -5.33438e+07 2.47765e+06 -1.21574e+08)
(-7.46446e+07 -596519 1.72194e+07 -6.38933e+07 3.36541e+06 -1.35278e+08)
(-7.01511e+07 -1.18382e+06 1.05787e+07 -6.35144e+07 4.27966e+06 -1.38189e+08)
(-1.23347e+09 -5.43994e+08 -4.00384e+07 -1.35466e+09 -1.95831e+08 -1.23093e+08)
(-9.28532e+08 -1.65132e+08 3.0094e+08 -4.41772e+08 2.59971e+08 -6.14916e+07)
(-5.03218e+08 -1.43202e+08 2.04933e+08 -8.59965e+08 -4.55812e+08 -2.54837e+08)
(-6.31817e+08 7.69863e+07 4.90269e+07 -8.08418e+08 -4.27795e+07 4.86473e+07)
(-7.93481e+08 -2.21349e+08 4.83247e+07 -1.9351e+09 -1.73717e+08 -2.67632e+08)
(-8.30799e+08 -3.80271e+08 2.73131e+08 -8.20217e+08 -1.44871e+08 -1.40904e+07)
(-2.02992e+09 -4.16777e+08 -1.76916e+08 -1.32546e+09 -3.73906e+07 3.74569e+08)
(-5.82998e+08 -4.21771e+08 -9.26308e+07 -1.06366e+09 -3.17064e+07 4.3614e+08)
(2.07313e+08 -9.25743e+07 -1.06932e+08 3.54279e+08 -3.28196e+06 1.5589e+09)
(-2.35989e+08 -2.93741e+08 3.89052e+08 -4.28547e+08 -3.12483e+08 1.02884e+09)
(-5.30691e+08 -1.00542e+08 -3.13656e+07 -1.57546e+09 -5.41647e+07 2.05479e+08)
(-4.4969e+08 -2.87963e+08 4.1973e+08 -3.84656e+08 -5.06489e+07 4.3296e+08)
(-7.91771e+08 -5.21767e+08 -5.95087e+07 -1.49168e+09 -1.13874e+08 1.49965e+08)
(-1.0283e+09 -2.31553e+08 2.74069e+08 -4.44062e+09 -9.86609e+08 -1.1104e+09)
(-5.28879e+08 -2.05397e+08 2.76593e+08 -1.41203e+09 -1.03361e+09 -7.0488e+08)
(-5.36748e+08 -1.36016e+08 4.01956e+08 -1.03685e+09 -9.59759e+08 -2.30361e+07)
(-7.41251e+08 -2.37795e+08 6.09907e+07 -2.49735e+09 -2.69165e+08 -3.85699e+08)
(-7.50261e+08 -1.78836e+08 -243030 -2.24108e+09 -1.02665e+08 -1.04054e+08)
(-5.86332e+08 -3.34508e+08 1.88035e+08 -9.04545e+08 -5.1422e+08 -6.51567e+07)
(-3.87321e+08 1.83395e+08 1.08024e+08 -3.23994e+08 -2.97386e+07 -1.65272e+08)
(-4.42975e+08 2.10965e+08 6.98909e+07 -2.77456e+08 -56209.4 -1.64735e+08)
(-6.89231e+08 1.50344e+08 8.89725e+07 -5.86645e+08 -8.00381e+07 -2.28659e+08)
(-4.55566e+08 1.80872e+08 4.11391e+07 -3.99717e+08 -1.42009e+07 -1.96152e+08)
(-3.78602e+08 1.85928e+08 1.07217e+08 -3.60731e+08 -4.96247e+07 -1.47629e+08)
(-3.49109e+08 1.13216e+08 1.2028e+08 -2.10266e+08 -3.69887e+07 -1.11302e+08)
(-4.07255e+08 2.19649e+08 5.29653e+07 -3.35635e+08 -6.98257e+06 -1.46596e+08)
(-2.81262e+08 1.18476e+08 1.48133e+08 -2.20104e+08 -5.00892e+07 -1.55647e+08)
(-4.85349e+08 1.12663e+08 2.1744e+08 -3.02284e+08 -1.68911e+08 -1.35532e+08)
(-1.78175e+08 6.23198e+07 2.18349e+08 -1.65654e+08 -1.26374e+08 -2.1282e+08)
(-1.74423e+08 3.39405e+07 2.01447e+08 -1.22823e+08 -9.64773e+07 -1.71321e+08)
(-2.68862e+08 1.39652e+08 1.85058e+08 -2.45494e+08 -9.65326e+07 -1.67276e+08)
(-2.73926e+08 6.34425e+07 1.60393e+08 -1.62564e+08 -6.72495e+07 -1.26036e+08)
(-1.55005e+08 4.03357e+07 1.77706e+08 -1.3337e+08 -8.5108e+07 -1.83254e+08)
(-2.72334e+07 -2.3188e+07 2.72838e+07 2.00768e+07 7.41487e+07 2.52639e+08)
(1.2684e+07 -1.46193e+07 2.0868e+06 5.02469e+07 3.16491e+07 2.66814e+08)
(4.57137e+07 3.28414e+06 4.58228e+07 8.37415e+07 -7.75285e+06 3.18059e+08)
(5.35028e+07 -1.63889e+07 8.99578e+07 9.69941e+07 1.19979e+07 4.57184e+08)
(8.07927e+07 -8.02137e+06 5.13326e+07 1.15055e+08 1.18145e+07 4.4615e+08)
(7.21257e+06 -4.58425e+07 9.78388e+07 6.88228e+07 8.33949e+07 4.35099e+08)
(3.97663e+07 -4.313e+07 1.10257e+08 1.05242e+08 4.07575e+07 5.38264e+08)
(6.91187e+07 -2.49339e+07 6.73e+07 1.13951e+08 4.18685e+07 4.75373e+08)
(5.01404e+07 3.53487e+06 -2.46885e+07 1.05166e+07 1.09054e+07 8.3071e+06)
(1.628e+08 -3.42914e+07 -1.08662e+07 7.3529e+07 1.13651e+07 6.36437e+07)
(8.58435e+07 -2.28222e+07 -2.61191e+07 1.73276e+07 2.03254e+07 1.43312e+07)
(-1.35343e+07 7.31002e+06 4.67431e+07 3.50965e+07 -1.35353e+07 1.47776e+08)
(-1.58567e+08 472757 7.56083e+07 -7.21868e+07 -6.07024e+06 -1.39599e+08)
(-6.24577e+07 2.94476e+06 4.71231e+07 -6.58723e+06 -6.8607e+06 1.47527e+07)
(-5.46133e+07 -1.97179e+06 2.06354e+07 -2.46026e+07 -3.82294e+06 -3.27181e+07)
(-4.34145e+07 476487 2.31516e+07 -7.63242e+06 -3.41645e+06 1.01879e+07)
(-1.78371e+08 -1.05258e+07 6.86707e+07 -9.8998e+07 7.79042e+06 -2.00329e+08)
(-9.23515e+07 -7.28972e+06 3.5111e+07 -5.12119e+07 -762220 -8.96019e+07)
(-8.55065e+07 -4.028e+06 4.22176e+07 -3.44509e+07 -707021 -5.40458e+07)
(-8.98682e+07 -1.24678e+06 -1.95872e+06 -8.33254e+07 312218 -1.88534e+08)
(-9.0615e+07 -1.00298e+06 -2.86097e+06 -8.43108e+07 721540 -1.92181e+08)
(-9.73426e+07 -1.19726e+06 -219659 -8.98533e+07 2.28269e+06 -2.04589e+08)
(-1.1228e+08 -1.85307e+06 5.8654e+06 -1.01839e+08 2.48486e+06 -2.29111e+08)
(-1.00207e+08 -1.3041e+06 481300 -9.21527e+07 1.77873e+06 -2.0921e+08)
(-1.01861e+08 -1.91731e+06 2.54928e+06 -9.30009e+07 1.05612e+06 -2.07901e+08)
(-1.14891e+08 -2.21637e+06 7.11521e+06 -1.03915e+08 2.09447e+06 -2.31813e+08)
(-1.01628e+08 -1.54539e+06 1.35078e+06 -9.31435e+07 1.30873e+06 -2.10182e+08)
(-9.3177e+07 -1.15067e+06 -821382 -8.64016e+07 2.70392e+06 -1.96863e+08)
(-9.62178e+07 -1.58507e+06 2.80946e+06 -8.85486e+07 3.75103e+06 -2.00252e+08)
(-8.80395e+07 -1.102e+06 -1.33308e+06 -8.20602e+07 3.00187e+06 -1.86877e+08)
(-7.09215e+07 -603324 -4.64112e+06 -6.75337e+07 2.65891e+06 -1.54426e+08)
(-7.60026e+07 -658810 -4.59963e+06 -7.20821e+07 2.56069e+06 -1.65024e+08)
(-8.91066e+07 -1.46925e+06 1.94298e+06 -8.2553e+07 3.89398e+06 -1.86472e+08)
(-7.62079e+07 -931060 -2.0846e+06 -7.1789e+07 3.25574e+06 -1.63095e+08)
(-8.22921e+07 -1.02868e+06 -1.75363e+06 -7.71151e+07 3.18431e+06 -1.75434e+08)
(-4.01342e+08 4.14398e+08 7.20813e+07 -1.92256e+09 -2.03029e+08 -6.80555e+07)
(-2.76611e+08 1.18033e+08 9.79242e+07 -7.78015e+08 -1.76622e+08 -2.13005e+08)
(-3.42741e+08 2.79327e+07 2.34118e+08 -9.8532e+08 -6.17395e+08 -3.48236e+08)
(-4.91868e+08 1.3847e+08 5.97278e+07 -1.21718e+09 -6.76651e+07 -1.83431e+08)
(-6.17007e+08 -2.87882e+07 9.21326e+07 -2.04443e+09 -1.84712e+08 -2.17734e+08)
(-3.06291e+08 1.5031e+08 2.82383e+08 -9.82555e+08 -6.31785e+08 -3.02776e+08)
(-2.77368e+08 2.34036e+08 2.85778e+07 -1.19977e+09 4.35454e+07 1.76784e+08)
(-6.02247e+08 7.31324e+08 1.28291e+08 -2.27274e+09 -2.63459e+08 -2.00752e+08)
(-5.2115e+08 4.04448e+08 6.24558e+08 -9.19249e+08 -8.07625e+08 -3.77488e+08)
(-1.85754e+09 1.67615e+09 3.23049e+08 -2.22716e+09 -3.12388e+08 -3.33517e+08)
(-1.1306e+09 9.05343e+08 1.3648e+09 -2.02342e+09 -1.85077e+09 -1.11851e+09)
(-1.95243e+09 2.44324e+09 4.53461e+08 -4.66158e+09 -5.74834e+08 -8.89836e+08)
(-6.48508e+08 7.00053e+08 1.24887e+08 -1.39869e+09 -1.61213e+08 -6.1459e+07)
(-5.57785e+08 4.39115e+08 6.6686e+08 -1.29215e+09 -1.09161e+09 -5.75274e+08)
(-5.28911e+08 6.30152e+08 1.16305e+08 -2.49955e+09 -2.98186e+08 -1.99754e+08)
(-8.11461e+08 9.47181e+08 4.01728e+08 -6.97157e+09 -8.97017e+08 -1.38494e+09)
(-4.98368e+08 9.57041e+07 4.66551e+08 -1.70272e+09 -1.31746e+09 -8.92772e+08)
(-1.06886e+09 8.5456e+08 1.36008e+09 -2.77468e+09 -2.38144e+09 -1.58098e+09)
(-5.97229e+08 -7.96619e+06 1.11574e+08 -2.674e+09 -3.05034e+08 -3.37084e+08)
(-1.66234e+09 2.38884e+09 4.64187e+08 -5.55272e+09 -6.74451e+08 -1.02678e+09)
(-5.35769e+08 3.44953e+08 6.13394e+08 -1.61519e+09 -1.30677e+09 -7.69373e+08)
(1.15235e+09 1.26548e+08 -1.50321e+08 4.58528e+08 -2.40352e+07 1.4185e+09)
(5.96047e+08 4.23123e+08 1.77993e+09 -3.18049e+08 -8.247e+08 1.9301e+09)
(-2.18172e+08 5.71174e+08 1.01291e+08 -1.53397e+09 1.35818e+08 5.98441e+08)
(-3.99121e+09 4.2495e+09 1.97572e+10 -1.10261e+10 -1.55024e+10 1.00649e+10)
(-6.96974e+09 1.4461e+10 7.28457e+08 -2.53061e+10 2.28913e+09 -1.03501e+09)
(-8.58322e+08 6.35733e+08 3.56566e+08 -8.53153e+09 -1.05411e+09 -1.75625e+09)
(2.15058e+08 7.17962e+08 1.89451e+09 -8.39844e+08 -1.10697e+09 1.74934e+09)
(-8.60081e+08 2.16328e+09 6.26669e+09 -3.71066e+09 -2.27139e+09 5.43429e+09)
(-8.14558e+08 5.06582e+08 3.85153e+08 -3.30753e+09 -4.1817e+08 -2.63356e+08)
(-2.00257e+09 7.07618e+09 7.10206e+08 -2.24926e+10 1.12161e+09 -3.14306e+09)
(-1.10444e+10 8.37036e+09 1.32024e+09 -6.95485e+09 -6.69842e+08 -1.94305e+09)
(-3.39421e+09 1.63734e+09 3.42339e+09 -1.99929e+09 -2.23186e+09 -1.80075e+09)
(-2.5986e+09 2.15748e+09 4.23483e+08 -2.43825e+09 -3.80899e+08 -3.67434e+08)
(-2.52195e+09 1.85364e+09 2.78412e+09 -3.06116e+09 -2.89647e+09 -1.87203e+09)
(-3.00893e+09 3.65447e+09 6.22117e+08 -5.62611e+09 -6.87207e+08 -1.04117e+09)
(-6.53081e+09 3.335e+09 8.9373e+08 -2.65818e+09 -5.53595e+08 -9.62363e+08)
(-4.44429e+09 2.84629e+09 4.89962e+09 -3.30603e+09 -3.72828e+09 -2.17564e+09)
(-1.92336e+10 1.39907e+10 1.31404e+09 -8.52705e+09 -2.08308e+08 -1.70402e+09)
(-3.1114e+10 6.9958e+09 2.38232e+10 -3.63332e+09 -1.03084e+10 -7.4988e+09)
(-4.97779e+10 -4.30848e+09 7.70381e+09 2.75205e+10 -6.22315e+10 2.27398e+10)
(-1.68521e+10 1.75867e+10 2.08652e+10 -1.6156e+10 -1.34746e+10 2.49484e+09)
(-1.25219e+10 2.42687e+10 1.47751e+09 -2.79735e+10 2.2733e+09 -1.21304e+09)
(-2.63627e+10 -8.12688e+08 -2.89698e+09 4.85135e+09 4.46675e+08 5.62784e+09)
(-1.57611e+10 1.00558e+10 1.44109e+10 -8.02803e+09 -8.17677e+09 -1.3853e+09)
(-9.59305e+09 9.84022e+09 2.86154e+09 -1.18876e+10 -1.99477e+09 -2.55796e+09)
(-1.05567e+09 1.83722e+09 5.11988e+08 -9.58656e+09 -1.16808e+09 -1.87577e+09)
(-2.1141e+09 2.06074e+09 3.07464e+09 -4.29255e+09 -3.90652e+09 -2.32579e+09)
(-2.86407e+09 5.17598e+09 6.986e+09 -1.01509e+10 -7.53513e+09 -5.01095e+08)
(-2.59317e+09 3.73798e+09 6.69847e+08 -6.93552e+09 -8.34404e+08 -1.28896e+09)
(-5.17873e+09 1.38467e+10 1.7663e+09 -2.49785e+10 3.38683e+08 -2.59875e+09)
(-5.69415e+09 4.86478e+09 6.79515e+09 -6.91491e+09 -6.05969e+09 -2.66123e+09)
(-9.21195e+08 -6.28889e+07 3.84985e+08 -8.43009e+08 1.16467e+07 -1.87528e+09)
(-1.42434e+09 -2.4772e+07 5.8833e+08 -7.34821e+08 -1.98764e+06 -1.02923e+09)
(-2.12397e+09 -4.72652e+07 8.38519e+08 -1.02708e+09 4.91486e+06 -1.29435e+09)
(-6.45131e+08 8.37166e+06 2.76177e+08 -6.10729e+08 5.65088e+07 -1.38548e+09)
(-1.25113e+09 -1.23951e+07 5.54859e+08 -6.75802e+08 2.67034e+06 -1.00077e+09)
(-1.03023e+09 -9.4583e+06 4.81308e+08 -5.80866e+08 1.02151e+07 -9.0485e+08)
(-1.33701e+08 -1.21241e+06 6.12956e+07 -1.18787e+08 1.18507e+07 -2.62032e+08)
(-1.52388e+08 -1.95589e+06 7.15891e+07 -8.8501e+07 2.00907e+06 -1.42023e+08)
(-2.00195e+08 -2.97279e+06 9.48593e+07 -1.15856e+08 2.27974e+06 -1.85866e+08)
(-7.82515e+07 34671 3.10328e+07 -6.93218e+07 7.33478e+06 -1.49067e+08)
(-1.39214e+08 -1.80575e+06 6.51953e+07 -8.08778e+07 1.89888e+06 -1.29806e+08)
(-1.07133e+08 -1.21861e+06 4.9803e+07 -6.25107e+07 1.55476e+06 -1.00664e+08)
(-4.82906e+08 1.50454e+08 4.25404e+06 -5.48087e+08 3.05583e+06 -2.74018e+08)
(-4.00064e+08 1.6176e+08 1.02543e+08 -3.84874e+08 -2.22685e+07 -1.52448e+08)
(-2.83836e+08 3.06039e+08 6.6371e+07 -5.18052e+08 2.13749e+07 -1.36721e+08)
(-1.21515e+08 8.34868e+07 5.70544e+07 -2.17887e+08 -5.17033e+07 -1.18016e+08)
(-1.43569e+08 6.78285e+07 1.54748e+08 -1.90015e+08 -1.14068e+08 -1.79134e+08)
(-1.24245e+08 1.3203e+08 2.7367e+07 -2.74839e+08 -2.23514e+07 -1.08044e+08)
(-2.55177e+08 1.24327e+08 9.47712e+07 -3.04073e+08 -2.44257e+07 -1.40611e+08)
(-1.75721e+08 9.5046e+07 1.63554e+08 -2.36122e+08 -1.29381e+08 -1.57217e+08)
(-1.58084e+08 1.7704e+08 1.45999e+07 -3.0817e+08 3.45943e+07 -9.53658e+07)
(-4.15915e+08 3.72691e+08 5.66452e+07 -5.80308e+08 -3.25544e+07 -1.93997e+07)
(-4.29316e+08 3.14249e+08 5.21126e+08 -5.98364e+08 -5.44983e+08 -2.03852e+08)
(-1.70165e+09 1.37043e+09 2.80983e+08 -1.7256e+09 -2.51026e+08 -2.86348e+08)
(-5.68698e+08 3.1896e+08 6.37107e+08 -4.82287e+08 -5.16251e+08 -2.145e+08)
(-6.21438e+08 6.26021e+08 1.26039e+08 -1.13806e+09 -1.34164e+08 -2.27873e+07)
(-9.56118e+08 6.43044e+08 1.74194e+08 -6.80944e+08 -1.54688e+08 1.85315e+07)
(-3.32564e+08 2.16437e+08 3.86728e+08 -3.79248e+08 -3.38897e+08 -1.16143e+08)
(-3.63476e+08 3.1098e+08 6.24228e+07 -5.74138e+08 2.18082e+07 -1.78406e+08)
(-4.05802e+08 1.03388e+08 2.43312e+08 -2.37099e+08 -1.77952e+08 -1.35914e+08)
(-1.94057e+08 8.04967e+07 2.49152e+08 -2.02273e+08 -1.637e+08 -2.11876e+08)
(-3.80357e+08 1.82957e+08 4.24467e+08 -3.0665e+08 -3.14105e+08 -1.94841e+08)
(-3.05356e+08 1.58348e+08 1.63344e+08 -2.99961e+08 -8.87951e+07 -1.41266e+08)
(-7.36133e+08 4.56964e+08 7.4719e+07 -4.92165e+08 -1.11816e+08 9.30923e+06)
(-2.42021e+08 1.31063e+08 2.80798e+08 -2.65335e+08 -2.14341e+08 -1.59143e+08)