/*--------------------------------*- C++ -*----------------------------------*\
| =========                 |                                                 |
| \\      /  F ield         | OpenFOAM: The Open Source CFD Toolbox           |
|  \\    /   O peration     | Version:  2012                                  |
|   \\  /    A nd           | Website:  www.openfoam.com                      |
|    \\/     M anipulation  |                                                 |
\*---------------------------------------------------------------------------*/
FoamFile
{
    version     2.0;
    format      ascii;
    class       volScalarField;
    location    "0.108/solid";
    object      sigmaMid;
}
// * * * * * * * * * * * * * * * * * * * * * * * * * * * * * * * * * * * * * //

dimensions      [1 -1 -2 0 0 0 0];


internalField   nonuniform List<scalar> 
3124
(
3.93859e+07
1.8541e+08
1.29515e+09
7.28777e+08
4.36619e+08
1.54346e+08
1.42881e+08
2.16248e+08
3.81102e+07
8.54125e+08
6.59292e+08
2.84473e+09
2.87727e+08
7.19281e+08
1.47078e+09
4.32417e+07
8.69818e+08
4.27601e+08
1.64488e+08
3.89226e+08
1.76133e+08
3.56046e+08
1.599e+08
3.48947e+08
7.1138e+08
8.96192e+08
7.16906e+08
9.5939e+07
4.3712e+07
9.86405e+07
1.21163e+08
1.37957e+08
-4.91058e+07
-1.18976e+08
-2.80683e+07
3.51696e+07
1.79727e+07
1.28395e+08
1.0829e+08
1.16644e+08
1.02882e+08
8.20136e+07
3.08778e+08
4.2976e+08
8.79995e+08
-5.43028e+08
1.21223e+09
6.40688e+08
4.98084e+10
1.01751e+09
7.96877e+08
7.4198e+08
9.60908e+07
8.72844e+07
8.37154e+07
2.98001e+08
1.40358e+08
1.78474e+08
1.55238e+08
2.16218e+07
1.17403e+08
6.77275e+08
5.01925e+07
-1.77109e+06
9.26589e+07
3.56423e+07
3.61935e+08
1.3324e+08
1.82413e+07
1.19647e+08
4.42748e+08
3.14522e+08
1.65203e+08
5.95973e+07
1.703e+08
9.509e+08
6.39164e+10
7.51777e+08
1.81077e+08
-7.56134e+07
4.39436e+07
2.097e+09
-5668.24
4.04756e+08
4.13294e+09
2.71411e+08
3.20581e+06
4.51663e+07
2.11303e+07
3.98844e+07
3.38471e+08
4.76982e+07
-1.05582e+07
-5.96718e+07
2.25636e+07
4.66339e+07
4.93822e+07
1.01197e+06
-5.95955e+07
1.41898e+08
8.32989e+08
2.55256e+08
1.31635e+08
1.38439e+08
7.30842e+08
1.75686e+08
2.3738e+08
2.26586e+08
2.40955e+08
1.26889e+08
1.18459e+08
1.21569e+08
2.24174e+08
1.35371e+08
1.6204e+08
2.46324e+08
1.39922e+08
1.14461e+08
1.07788e+08
8.83672e+07
7.47326e+07
9.29766e+07
7.96752e+07
3.16972e+08
3.75465e+08
-4.83885e+07
-5.23081e+07
-3.11519e+07
-1.16146e+07
8.79596e+07
9.00163e+07
8.47484e+07
8.06394e+07
2.87001e+08
2.30739e+08
1.86842e+08
1.09162e+08
2.04901e+08
2.36053e+08
1.95317e+08
1.76088e+09
1.73492e+09
1.12225e+09
-9.89648e+07
1.0204e+09
1.45547e+08
9.41154e+08
2.74462e+09
8.58011e+08
1.20063e+09
5.59585e+08
4.41067e+08
5.39096e+08
1.56689e+08
1.29647e+08
1.27935e+08
6.43675e+07
5.75647e+07
1.18009e+08
1.14822e+08
1.43328e+08
9.73606e+07
1.83789e+08
1.20101e+08
1.08884e+08
1.36359e+08
1.9266e+08
3.07252e+08
1.74946e+08
4.94703e+08
1.68555e+09
7.51551e+08
6.32295e+08
8.12875e+08
4.50862e+08
5.23858e+08
3.46812e+09
2.77498e+08
5.23331e+09
5.2133e+09
2.59661e+09
4.13516e+09
3.03966e+09
2.1855e+09
4.36e+09
3.88852e+09
4.34229e+08
7.42898e+08
2.98677e+08
1.52886e+09
1.68728e+09
9.17281e+08
1.81775e+09
2.17451e+08
2.16533e+09
1.17973e+09
7.28884e+08
9.38616e+08
8.66834e+08
8.07993e+07
7.67581e+07
5.21622e+08
3.32383e+08
4.06134e+08
1.65242e+08
1.87645e+08
1.91664e+08
4.08331e+08
3.08682e+08
3.2934e+08
8.38832e+07
8.58558e+07
1.55731e+08
1.90391e+08
1.65895e+08
2.78951e+08
3.08193e+08
2.44129e+08
1.43489e+08
1.42254e+08
1.29602e+08
5.53521e+07
7.01082e+07
6.85963e+07
7.61935e+08
4.32812e+08
6.05133e+08
6.04399e+08
7.64247e+08
5.92124e+08
1.13308e+09
3.43136e+08
-3.97412e+08
2.2157e+08
5.22035e+08
2.46146e+08
5.13469e+08
1.26882e+09
6.92241e+08
6.68371e+08
7.33525e+08
7.2933e+08
6.17232e+08
2.02121e+08
1.85953e+08
4.79686e+08
2.49081e+08
2.00053e+08
1.53825e+08
1.74549e+08
1.54701e+08
2.57847e+08
1.15966e+08
1.06008e+08
1.39657e+08
1.33962e+08
1.06638e+08
-1.76976e+07
-5.13557e+07
-8.39729e+07
-1.01892e+08
-1.1684e+08
-9.16894e+07
-1.26361e+08
-1.24798e+08
-1.69297e+07
-6.91029e+07
-1.86459e+07
-3.58965e+07
7.6729e+07
6.74286e+06
2.72528e+07
7.91651e+06
1.20197e+08
5.94847e+07
3.51404e+07
9.00623e+07
9.06981e+07
9.75292e+07
1.1227e+08
1.00407e+08
1.02188e+08
1.14855e+08
1.01878e+08
9.33658e+07
9.64168e+07
8.823e+07
7.08306e+07
7.59249e+07
8.93463e+07
7.63742e+07
8.24757e+07
2.97302e+08
2.74735e+08
4.00816e+08
4.73578e+08
6.37152e+08
3.06715e+08
2.24955e+08
3.31751e+08
2.79534e+08
3.67137e+08
5.8338e+08
8.21906e+08
2.32402e+08
3.69002e+08
3.48694e+08
1.33455e+09
5.89517e+08
7.65464e+08
6.3429e+08
9.52382e+08
4.71845e+08
-1.10161e+09
-3.15894e+08
3.652e+07
3.84308e+09
1.97301e+09
1.67116e+09
-2.17365e+08
1.17751e+09
8.46895e+08
3.39307e+09
1.86531e+09
9.17228e+08
3.64726e+08
9.31563e+08
9.49302e+08
8.29962e+08
9.81865e+08
1.76551e+09
3.08805e+09
3.66671e+10
1.51201e+08
2.07248e+09
-4.65331e+09
1.28042e+09
2.3596e+09
1.75191e+09
9.68402e+08
1.02191e+09
1.18387e+09
3.17203e+09
1.56158e+09
8.75962e+08
7.36481e+08
1.02765e+09
6.17978e+08
6.75944e+08
5.80667e+08
1.19088e+08
8.84424e+07
1.15782e+08
7.05308e+07
8.08225e+07
6.24796e+07
3.61865e+08
2.53867e+08
1.7842e+08
1.03413e+08
1.12875e+08
1.06222e+08
1.93408e+08
1.22781e+08
1.08466e+08
1.21732e+08
1.96192e+08
3.47749e+08
2.04513e+08
2.06885e+08
1.61455e+08
1.44136e+08
2.2526e+08
1.95997e+08
1.27318e+08
1.57812e+08
1.64334e+08
1.51635e+08
1.30832e+08
2.17642e+08
1.48426e+08
2.75181e+08
1.90768e+08
1.66222e+08
2.3737e+08
3.41504e+08
1.31071e+08
1.94976e+08
1.70327e+08
2.43849e+07
1.06136e+08
-7.19549e+06
1.25825e+08
1.32969e+08
7.15115e+07
8.50847e+07
2.65361e+08
6.13983e+08
1.18128e+08
1.18439e+08
1.30506e+08
1.11782e+08
1.15919e+08
2.43441e+08
1.49341e+08
9.19533e+07
1.7343e+08
1.78525e+08
6.0811e+08
2.33027e+08
1.60236e+08
1.49868e+08
2.13246e+08
1.53455e+08
5.25398e+08
1.27905e+08
1.40025e+08
1.38816e+08
1.70513e+08
1.51934e+08
1.03294e+08
2.81486e+07
1.12537e+07
1.24202e+08
1.11997e+08
2.41052e+08
2.14559e+06
1.35168e+08
3.44442e+07
1.48954e+07
4.36241e+08
6.10716e+08
3.49831e+08
3.05168e+08
6.93124e+08
2.21012e+08
4.20573e+08
4.65826e+08
4.65946e+08
2.10068e+08
2.48181e+08
2.61095e+08
4.08859e+08
3.7584e+08
4.22772e+08
1.57098e+08
2.24933e+08
2.0487e+08
2.22479e+08
2.71215e+08
3.02881e+08
3.50543e+08
2.77158e+08
9.13972e+07
8.87435e+07
1.31592e+08
1.30908e+08
2.26787e+08
2.33856e+08
1.43413e+08
1.94018e+08
3.09375e+08
7.39052e+09
5.92362e+09
4.59219e+08
5.34389e+09
4.04968e+11
1.49479e+10
6.53886e+09
-2.85675e+10
5.10292e+09
6.96611e+09
2.74512e+09
9.68096e+09
5.28114e+09
3.8532e+09
5.49662e+09
2.52488e+10
5.7355e+10
4.21192e+09
-1.21617e+08
-1.62264e+08
1.13791e+07
-2.66896e+08
-1.64994e+08
9.77587e+07
2.46002e+07
-1.73708e+07
2.16812e+08
-2.76281e+07
1.16409e+08
1.43209e+09
8.9841e+08
4.94449e+08
-6.19189e+07
4.06e+08
1.55576e+08
1.30943e+09
6.43942e+08
6.29293e+08
4.72128e+08
1.66484e+08
8.19472e+08
8.19502e+08
1.70759e+09
3.16498e+09
1.5167e+09
3.28722e+09
1.34012e+09
1.33572e+09
4.21305e+08
9.4289e+08
4.7123e+08
9.14651e+08
3.8183e+07
1.41554e+08
1.95363e+07
-3.72151e+07
1.05357e+07
5.41118e+07
-1.26949e+07
8.54745e+07
1.55097e+08
1.08176e+08
7.54945e+07
1.05709e+08
8.70966e+07
4.37517e+07
-9.62085e+07
-7.58537e+07
-3.49154e+06
9.55547e+06
2.28945e+07
4.6989e+07
1.08726e+08
6.3383e+07
9.88624e+07
3.69438e+07
5.59248e+07
3.79131e+07
6.64032e+07
7.94696e+07
-8.09129e+07
-4.82328e+07
1.17844e+07
-2.72663e+07
-1.3623e+07
8.03029e+07
-6.60702e+06
-7.76001e+07
-5.12929e+07
-8.57445e+07
4.00587e+08
2.55803e+08
5.55342e+08
9.1624e+08
7.23164e+08
8.3862e+08
2.84735e+08
4.82573e+08
5.6432e+08
5.50236e+07
6.93139e+07
1.01897e+08
1.3759e+08
1.0122e+08
8.44271e+07
1.39831e+08
9.61553e+07
6.23083e+08
5.98678e+08
4.94703e+08
2.44863e+08
1.95528e+08
2.92156e+08
4.10364e+08
2.16129e+08
3.47436e+08
1.97776e+08
2.34506e+08
2.00584e+08
2.84175e+08
2.49424e+08
3.01268e+08
8.8738e+07
8.74204e+07
1.02167e+08
1.23198e+08
1.02033e+08
1.02127e+08
1.20614e+08
1.0212e+08
1.36894e+08
1.27081e+08
1.44358e+08
2.05323e+08
1.87917e+08
1.75827e+08
1.31302e+08
1.58243e+08
1.50885e+08
2.12041e+08
1.52352e+08
1.91259e+08
2.73475e+08
2.02003e+08
2.20021e+08
1.4544e+08
1.6665e+08
1.77202e+08
1.27619e+08
1.06173e+08
1.1698e+08
1.24396e+08
1.0165e+08
1.15309e+08
9.73181e+07
9.48984e+07
1.05852e+08
6.55893e+07
6.03819e+07
6.12716e+07
5.8431e+07
7.01958e+07
6.77856e+07
6.41714e+07
8.06428e+07
8.90498e+07
7.81385e+07
6.4172e+07
6.67333e+07
8.45116e+07
7.15972e+07
7.51481e+07
1.17374e+09
1.26034e+09
1.39807e+09
7.37991e+08
1.46586e+09
1.24021e+09
1.07927e+09
6.32587e+08
6.5983e+08
4.6931e+08
4.34219e+08
7.1792e+08
5.8749e+08
4.70802e+08
2.23452e+08
1.58331e+08
2.21224e+08
1.47431e+08
2.36059e+08
2.09591e+08
1.49333e+08
1.0353e+09
1.39412e+09
1.32939e+09
5.86864e+08
1.66104e+09
8.51805e+08
1.41352e+09
5.05059e+08
2.76126e+08
4.51956e+08
2.4557e+08
4.07828e+08
4.51045e+08
2.28686e+08
2.61754e+08
1.67237e+08
2.34908e+08
1.71218e+08
2.49019e+08
2.46696e+08
1.75991e+08
5.06809e+08
5.92041e+08
3.99715e+08
3.62757e+08
5.47024e+08
5.44145e+08
3.69162e+08
3.19539e+08
4.70433e+08
6.82844e+08
5.78085e+08
4.70367e+08
3.81899e+08
3.13652e+08
1.26139e+08
3.7444e+07
1.04282e+08
1.5103e+08
9.0332e+07
-3.21015e+07
-6.06999e+07
-3.23121e+07
2.89555e+10
9.60032e+10
8.9052e+08
8.12952e+08
1.17943e+09
7.41508e+08
8.63894e+08
1.22373e+09
7.80376e+08
8.43997e+08
7.12174e+08
1.10538e+09
7.04302e+08
8.62761e+08
1.05843e+09
6.68458e+08
1.5049e+08
1.02293e+08
1.30786e+08
9.39174e+07
1.38204e+08
1.42035e+08
1.02136e+08
1.16251e+08
8.20753e+07
1.19098e+08
8.63239e+07
1.26246e+08
1.09981e+08
7.94699e+07
6.22418e+08
5.85763e+08
7.0449e+08
6.551e+08
3.10557e+08
4.10828e+08
5.95914e+08
5.14525e+08
3.06053e+08
4.05188e+08
5.11582e+08
2.10834e+08
4.39461e+08
2.42518e+08
2.7075e+08
2.26744e+08
2.67661e+08
2.04593e+08
5.76207e+08
5.19238e+08
2.81986e+08
3.49843e+08
5.77656e+08
4.52433e+08
2.26531e+08
3.23881e+08
-7.61232e+08
8.01118e+08
-3.9734e+08
1.73514e+09
-1.76167e+09
7.12802e+08
1.73448e+09
1.26192e+09
1.4066e+09
1.94229e+09
1.78498e+09
-6.29586e+08
5.3037e+09
2.00749e+09
2.5934e+08
9.87252e+07
2.67981e+08
1.9149e+08
1.51334e+08
3.80596e+08
1.10588e+08
1.06149e+07
5.31285e+07
1.12834e+07
-1.84359e+07
-4.89715e+06
2.35567e+07
-3.94922e+06
1.50056e+08
2.46067e+08
1.78279e+08
1.98752e+08
1.61608e+08
1.80486e+08
1.84035e+08
-1.01762e+08
6.25643e+06
2.55762e+07
7.29151e+07
2.75684e+08
2.09062e+08
-7.787e+07
-4.73835e+07
2.11466e+08
1.02314e+08
3.26362e+08
2.176e+08
3.31321e+08
2.35776e+08
3.40778e+08
3.15578e+08
2.24329e+08
3.73489e+08
2.51891e+08
3.51543e+08
2.48493e+08
3.56045e+08
3.70328e+08
2.62348e+08
4.19575e+08
9.69992e+08
1.08769e+09
4.50277e+08
9.70394e+08
1.28917e+09
1.70462e+07
-1.01857e+08
1.73128e+07
-9.54576e+07
1.02069e+07
1.90653e+07
4.33932e+07
4.31502e+07
1.65099e+06
-7.56242e+07
1.27581e+07
-9.71131e+07
1.08723e+07
-3.16115e+07
-3.41827e+07
1.39597e+07
6.34333e+06
-7.33546e+06
-1.58588e+07
3.3915e+06
1.23071e+07
-6.26436e+07
7.65661e+06
-4.9128e+07
9.42641e+07
9.94268e+07
9.45738e+07
9.91932e+07
8.86131e+07
8.7743e+07
8.99713e+07
9.02734e+07
9.24887e+07
9.62111e+07
9.15933e+07
9.72329e+07
8.50058e+07
8.72272e+07
8.9114e+07
8.34812e+07
8.45341e+07
8.57909e+07
8.20262e+07
8.05122e+07
8.7941e+07
9.36892e+07
8.9223e+07
9.21376e+07
2.78254e+08
2.5252e+08
2.48526e+08
2.46083e+08
2.98586e+08
2.68797e+08
2.19948e+08
1.67813e+08
2.72842e+08
1.24757e+08
1.36538e+08
1.7699e+08
1.55595e+08
3.0708e+08
2.37721e+08
2.36487e+08
2.23449e+08
1.74173e+08
2.20021e+08
2.00965e+08
2.01961e+08
2.20437e+08
2.12286e+08
3.88568e+08
1.63696e+08
2.15713e+08
1.80706e+08
3.57588e+08
9.46599e+08
1.31612e+09
1.22661e+09
5.3879e+08
1.33211e+09
8.28496e+08
-7.90969e+08
6.85122e+08
1.26822e+09
1.38775e+09
1.02403e+09
1.11136e+09
1.62211e+09
8.52009e+08
1.07984e+09
4.79447e+08
1.83781e+09
1.05504e+09
2.00052e+09
1.03674e+09
-9.24331e+07
2.25851e+09
1.98062e+09
2.1898e+09
3.02518e+09
1.5313e+09
1.18706e+09
8.49487e+08
1.33839e+09
9.00699e+08
1.3628e+09
1.23088e+09
9.73853e+08
1.57029e+09
1.55419e+09
9.13261e+08
1.19931e+09
1.16113e+09
6.74487e+08
5.25648e+08
8.54348e+08
5.4763e+08
7.94284e+08
7.24351e+08
5.09102e+08
6.25038e+08
4.20725e+08
4.7169e+08
5.84001e+08
4.49417e+08
6.5626e+08
5.08122e+08
5.01165e+08
7.0166e+08
4.77879e+08
2.0849e+08
1.54233e+08
1.48452e+08
2.20069e+08
1.45492e+08
2.09596e+08
1.36884e+08
1.83085e+08
1.30094e+08
1.96064e+08
1.94781e+08
1.39898e+08
1.95199e+08
1.38732e+08
1.25967e+08
1.80794e+08
1.36166e+08
8.61781e+07
6.26339e+07
9.14051e+07
7.58164e+07
5.80515e+07
8.23896e+07
1.42674e+08
1.06341e+08
1.45052e+08
1.00101e+08
1.30809e+08
1.27961e+08
1.05657e+08
1.33792e+08
2.20019e+08
1.03525e+08
9.53222e+07
1.30802e+08
9.75538e+07
1.89431e+08
1.64424e+08
1.40955e+08
1.59387e+08
1.51775e+08
1.82235e+08
1.80217e+08
1.36217e+08
9.98738e+07
1.03465e+08
1.48547e+08
9.52995e+07
1.0451e+08
9.78738e+07
1.62418e+08
2.84074e+08
6.32167e+08
-1.05541e+08
1.88937e+08
3.0041e+08
1.48077e+08
1.30674e+08
5.24779e+08
5.85233e+08
5.76399e+08
5.58133e+08
7.08051e+08
5.36663e+08
5.9578e+08
9.89872e+08
1.58627e+09
1.31482e+09
1.02791e+09
1.2729e+09
1.22368e+09
9.48527e+08
8.36642e+08
6.78385e+08
9.9912e+08
7.56363e+08
6.99861e+08
8.1514e+08
7.75602e+08
7.01524e+08
5.34314e+08
6.94368e+08
7.55414e+08
7.87238e+08
7.32288e+08
6.81982e+08
4.10122e+09
2.38316e+09
3.99862e+09
3.75428e+09
2.65771e+09
5.20097e+08
3.93592e+08
-5.43402e+07
1.31512e+09
1.96013e+08
-1.66613e+08
1.34791e+09
4.51091e+09
4.50478e+09
3.14144e+09
4.77675e+09
2.88789e+09
7.26106e+09
6.41921e+09
7.12156e+09
3.06615e+09
8.22367e+09
8.03778e+09
3.20759e+09
5.30134e+09
2.91206e+09
3.79846e+09
3.03173e+09
3.68436e+09
3.58478e+09
4.64624e+09
8.27525e+09
1.0884e+10
5.14266e+09
2.10679e+09
4.29076e+09
7.88875e+09
9.34525e+09
5.75281e+09
6.5397e+09
3.74533e+09
3.26196e+09
3.92172e+09
6.15563e+09
3.85167e+09
3.35741e+08
2.70932e+08
3.20413e+08
2.71145e+08
7.01089e+08
1.54335e+09
1.0197e+09
8.40932e+08
6.35538e+08
2.05927e+09
1.72701e+09
7.44852e+08
4.67186e+08
6.1868e+08
3.97054e+08
6.79476e+08
1.77422e+09
1.9022e+09
9.73135e+08
1.74261e+09
1.5742e+09
2.2215e+09
1.01863e+09
1.21535e+09
6.37999e+08
5.46169e+08
9.48819e+08
1.05205e+09
7.80347e+08
1.2122e+09
2.11174e+09
1.61145e+09
1.76332e+09
2.53433e+09
2.82335e+09
1.24322e+09
2.03261e+09
1.24621e+09
1.22328e+09
1.41642e+09
9.69987e+08
7.99335e+08
9.94445e+08
9.62943e+08
9.20708e+08
1.00392e+09
9.45216e+08
8.75715e+08
8.65108e+08
8.03914e+08
1.07111e+09
1.05332e+09
1.07501e+09
9.38912e+07
8.45815e+07
7.41137e+07
9.82996e+07
6.82312e+07
8.30995e+07
7.85183e+07
6.04348e+07
7.9438e+07
1.0033e+08
9.56607e+07
8.81559e+07
4.61477e+08
5.39923e+08
5.26136e+08
4.72423e+08
4.05528e+08
5.60737e+08
6.27705e+08
3.80322e+08
4.45366e+08
7.32336e+08
6.62248e+08
4.90342e+08
4.22226e+08
3.8343e+08
3.90149e+08
4.21705e+08
2.44527e+08
1.62929e+08
1.7386e+08
2.32268e+08
1.71744e+08
2.73879e+08
1.80788e+08
2.71092e+08
1.93877e+08
2.59802e+08
2.86603e+08
1.84865e+08
2.57031e+08
1.82666e+08
1.9022e+08
2.7047e+08
1.8079e+08
5.11412e+08
3.92488e+08
3.78369e+08
5.49488e+08
3.65768e+08
4.7389e+08
3.28472e+08
4.58688e+08
3.17612e+08
4.94575e+08
4.42318e+08
3.41649e+08
4.78651e+08
3.50942e+08
3.1768e+08
4.46089e+08
3.40804e+08
8.77916e+07
1.01018e+08
9.60898e+07
9.35178e+07
8.66053e+07
7.53615e+07
9.67337e+07
9.11199e+07
8.4307e+07
1.01521e+08
8.04966e+07
8.78193e+07
2.06433e+08
1.90427e+08
1.89475e+08
2.07008e+08
2.10181e+08
2.38222e+08
2.51669e+08
2.05461e+08
2.20665e+08
2.72904e+08
2.6065e+08
2.23117e+08
1.95767e+08
1.7717e+08
1.92634e+08
1.80518e+08
3.06658e+08
2.84524e+08
2.82526e+08
3.09151e+08
3.42173e+08
5.29111e+08
3.49793e+08
4.83027e+08
3.42749e+08
3.33723e+08
3.49332e+08
3.24434e+08
3.18522e+08
4.28e+08
4.60765e+08
3.17803e+08
1.62846e+08
1.46273e+08
1.52432e+08
1.5638e+08
1.85969e+08
2.26851e+08
2.12235e+08
1.93409e+08
1.72917e+08
1.85515e+08
2.00874e+08
1.64513e+08
1.75412e+08
1.67732e+08
1.8089e+08
1.62448e+08
6.07765e+07
5.86482e+07
5.74992e+07
8.19017e+07
8.34718e+07
9.27554e+07
8.52487e+07
8.65188e+07
6.25099e+08
1.16141e+08
5.59119e+08
1.31021e+09
9.68653e+08
3.14481e+08
3.34541e+08
8.51504e+08
7.56691e+08
6.58893e+08
7.45789e+08
6.80877e+08
8.64685e+08
6.98603e+08
7.58876e+08
1.16922e+09
1.35013e+09
3.22716e+08
1.28101e+09
6.75409e+08
4.14372e+08
2.71845e+08
9.85228e+07
4.56179e+08
4.49143e+08
7.09446e+07
1.93578e+08
5.52516e+08
7.15116e+08
2.16906e+09
3.18019e+08
-3.9339e+08
-2.03149e+08
-1.93575e+07
4.10569e+06
9.66571e+07
-5.08629e+07
3.44938e+08
5.92434e+08
5.10543e+07
3.70802e+08
2.59979e+08
5.29138e+08
4.29282e+07
4.51146e+08
6.05658e+08
3.84031e+08
1.86535e+08
-9.31501e+07
6.23571e+08
1.23763e+08
6.01383e+08
5.71353e+08
5.71183e+08
6.20405e+08
7.11352e+08
5.54126e+08
6.25143e+08
8.81964e+08
6.84542e+08
9.02277e+08
7.64465e+08
9.33429e+08
7.95366e+08
8.99715e+08
7.37234e+08
6.7764e+08
1.06935e+09
8.31595e+08
8.81091e+08
7.74151e+08
1.10737e+09
2.30746e+08
4.35475e+08
3.54061e+08
3.30908e+08
1.5569e+08
5.2252e+08
4.43833e+08
1.45566e+08
1.68237e+08
2.73493e+08
2.63112e+08
1.21619e+08
1.56952e+08
1.53566e+08
6.97766e+07
-1.31844e+08
-1.7974e+07
-2.95055e+07
2.25372e+07
1.65854e+08
1.21003e+08
5.75595e+07
-1.31727e+08
1.50008e+08
-1.70458e+08
2.1626e+08
-1.5445e+08
-6.56794e+07
-5.16472e+07
-1.67526e+08
6.5559e+07
-1.24985e+08
3.93785e+07
-9.23668e+07
-1.33983e+08
-1.26869e+07
-2.52063e+07
-1.20854e+08
-1.92689e+07
-1.64064e+08
-3.57794e+07
-1.56195e+08
-9.77071e+07
-9.45094e+07
-3.74006e+07
-1.57195e+08
-1.28109e+08
-1.64155e+08
-9.40547e+07
-9.00173e+07
-1.08596e+08
9.49806e+07
-1.5705e+08
5.72503e+07
-9.0254e+07
-1.43858e+08
-5.53993e+07
-1.8854e+08
-9.70821e+06
5.0213e+07
7.15474e+07
-3.74467e+07
1.09295e+08
-1.43695e+07
1.58111e+08
-5.39289e+07
-6.75094e+07
3.17182e+07
2.76232e+07
-6.75951e+07
2.49212e+08
-1.14043e+07
1.40478e+08
8.57573e+07
2.66637e+07
-7.37564e+06
1.8993e+07
-7.81308e+06
3.41165e+06
2.87715e+07
1.30555e+07
-6.81306e+06
2.32548e+07
2.69563e+07
9.62689e+06
5.49383e+07
-1.07814e+07
1.10982e+08
3.38441e+07
6.92394e+07
2.15886e+08
6.45849e+07
1.49716e+08
1.571e+08
1.46514e+08
1.70144e+08
2.55501e+08
132752
5.55437e+07
1.00978e+08
1.11854e+08
3.44175e+07
9.51659e+07
1.0079e+08
9.57575e+07
9.99057e+07
9.07296e+07
8.88326e+07
9.04016e+07
9.09878e+07
9.61034e+07
9.87119e+07
1.0105e+08
9.39868e+07
1.11472e+08
1.07287e+08
1.06884e+08
1.11642e+08
1.1765e+08
1.21507e+08
1.16068e+08
1.23101e+08
1.08696e+08
1.03112e+08
1.0435e+08
1.07446e+08
1.21258e+08
1.27176e+08
1.21715e+08
1.27031e+08
1.12749e+08
1.0942e+08
1.08733e+08
1.13953e+08
1.28258e+08
1.30812e+08
1.25757e+08
1.33811e+08
1.152e+08
1.08619e+08
1.10883e+08
1.12538e+08
1.24219e+08
1.30844e+08
1.25178e+08
1.29315e+08
9.84063e+07
9.25641e+07
9.47418e+07
9.60141e+07
1.09668e+08
1.17063e+08
1.12028e+08
1.14528e+08
1.02171e+08
1.00072e+08
9.82552e+07
1.04137e+08
1.05218e+08
1.0662e+08
1.02409e+08
1.09667e+08
7.84893e+07
8.38575e+07
8.01453e+07
8.17685e+07
7.27258e+07
7.09964e+07
7.59379e+07
7.76034e+07
7.48573e+07
7.59741e+07
7.81525e+07
7.31591e+07
8.93225e+07
8.874e+07
9.19658e+07
8.63532e+07
8.98967e+07
8.9712e+07
9.31223e+07
8.67595e+07
9.46787e+07
1.01558e+08
9.7733e+07
9.82423e+07
8.50982e+07
7.98538e+07
8.23237e+07
8.2347e+07
4.19244e+08
3.73292e+08
3.34928e+08
2.5494e+08
3.62147e+08
3.81176e+08
3.37461e+08
4.94542e+08
4.77653e+08
5.80585e+08
6.45822e+08
6.21626e+08
4.90299e+08
4.56568e+08
3.31368e+08
2.29821e+08
4.41844e+08
3.27444e+08
2.89502e+08
3.31031e+08
4.56711e+08
3.90584e+08
4.43589e+08
2.83692e+08
4.14749e+08
3.89547e+08
3.5394e+08
3.35307e+08
4.41263e+08
4.46332e+08
4.76228e+08
2.93727e+08
3.48021e+08
3.26322e+08
4.23198e+08
5.72495e+08
5.2943e+08
5.66562e+08
4.60022e+08
3.83315e+08
6.07865e+08
5.79742e+08
2.57979e+08
2.66202e+08
3.01225e+08
2.74239e+08
3.2093e+08
3.25354e+08
3.10205e+08
4.91511e+08
4.20731e+08
4.80307e+08
4.95761e+08
5.83378e+08
5.70706e+08
4.83472e+08
1.03746e+09
1.06884e+09
1.02717e+09
1.24239e+09
1.0616e+09
8.5803e+08
1.01748e+09
6.6023e+08
5.1083e+08
8.14588e+08
7.71094e+08
7.38757e+08
6.69524e+08
6.67321e+08
8.75834e+08
6.15792e+08
1.17184e+09
8.09393e+08
7.55949e+08
7.8629e+08
8.14715e+08
-5.44849e+08
-9.40751e+07
-9.32204e+08
-9.92174e+08
-6.58843e+08
-9.57084e+08
-1.04436e+09
-3.77592e+08
-6.85375e+08
-5.12424e+08
7.59444e+07
-5.49544e+08
-6.7091e+08
-1.84833e+08
1.06321e+09
9.2509e+08
1.44906e+10
6.24835e+10
1.74672e+10
6.78982e+09
1.0599e+10
-4.38306e+09
6.89902e+09
1.70111e+10
-2.09571e+09
5.81162e+09
-2.20849e+09
5.75768e+08
7.90099e+09
8.94351e+08
-5.0925e+08
1.57536e+10
-2.89389e+07
-5.14968e+08
-9.81492e+08
-5.46253e+08
-3.45091e+08
-1.65734e+09
1.65524e+09
1.03236e+09
1.33915e+09
2.28378e+09
1.43409e+09
1.43823e+09
1.39932e+09
1.89527e+09
8.4215e+08
3.21935e+09
1.49009e+09
1.83553e+09
2.41763e+09
7.09497e+08
6.01872e+08
-1.28349e+09
-2.33086e+09
-1.0977e+08
-5.15185e+08
-1.45363e+09
8.88164e+08
1.77953e+09
1.23129e+09
5.74342e+08
8.74468e+08
1.02491e+09
1.10774e+09
4.0612e+08
5.84077e+08
5.05966e+08
4.80464e+08
5.83466e+08
7.40087e+08
6.29997e+08
8.12139e+08
1.45231e+09
6.11912e+08
8.67591e+08
7.8125e+08
8.79558e+08
7.18133e+08
7.52156e+08
1.13393e+09
8.68281e+08
5.89396e+08
6.27329e+08
8.49513e+08
7.62907e+08
2.62532e+09
1.15069e+09
9.33369e+08
1.08282e+09
5.73875e+08
8.89223e+08
2.90923e+09
7.26072e+09
1.79885e+11
-7.53074e+09
1.09778e+10
4.9131e+10
1.80031e+09
6.76144e+10
3.17316e+09
2.09613e+09
2.02068e+09
4.65926e+09
4.59726e+09
2.66283e+09
3.09313e+09
2.56224e+09
-1.92797e+09
3.67752e+08
-1.14542e+10
1.83272e+09
-4.11927e+09
2.13763e+10
1.28236e+09
1.51573e+09
1.73908e+09
2.33699e+09
1.32845e+09
1.70948e+09
2.53013e+09
1.41042e+09
1.94277e+09
1.54544e+09
1.28652e+09
1.35212e+09
2.31806e+09
1.68959e+09
1.90895e+09
2.95113e+09
3.08972e+09
2.63976e+09
2.13872e+09
3.23773e+09
2.71268e+09
9.40641e+08
8.43155e+08
1.31849e+09
8.54445e+08
1.08213e+09
1.27863e+09
8.16468e+08
8.61055e+08
6.25672e+08
8.2468e+08
8.20115e+08
6.70184e+08
8.85094e+08
7.77107e+08
9.32162e+08
9.94561e+08
7.10639e+08
8.16016e+08
6.50391e+08
9.32492e+08
5.88299e+08
7.72449e+08
9.83838e+08
6.2751e+08
8.01884e+08
6.02608e+08
6.55117e+08
8.19978e+08
5.88455e+08
7.81876e+08
5.3904e+08
6.17977e+08
7.38181e+08
5.66615e+08
1.6411e+08
1.12183e+08
1.68067e+08
1.20258e+08
1.78419e+08
1.55208e+08
1.10919e+08
1.37205e+08
8.85722e+07
9.63978e+07
1.25736e+08
9.67453e+07
1.50209e+08
1.15368e+08
1.0566e+08
1.63851e+08
1.05615e+08
1.07209e+08
7.47895e+07
9.37972e+07
6.77457e+07
9.91223e+07
1.01017e+08
7.3339e+07
1.05308e+08
8.10562e+07
7.39154e+07
1.14707e+08
7.43623e+07
9.7053e+07
6.30152e+07
6.79487e+07
8.93289e+07
6.84325e+07
5.06074e+08
4.41361e+08
5.65995e+08
4.64414e+08
3.36768e+08
4.77079e+08
3.89595e+08
4.41159e+08
6.27379e+08
4.0415e+08
3.99246e+08
4.20041e+08
3.11946e+08
5.08189e+08
4.26034e+08
4.70812e+08
1.61619e+08
2.26224e+08
1.25026e+08
1.49587e+08
1.25371e+08
1.72054e+08
1.5402e+08
1.2049e+08
1.45746e+08
1.31625e+08
1.2631e+08
9.42238e+07
1.50035e+08
1.22106e+08
1.49843e+08
1.27821e+08
9.81274e+07
1.71909e+08
1.67886e+08
1.55764e+08
1.87182e+08
3.09592e+08
2.59828e+08
2.73058e+08
2.75365e+08
3.24308e+08
2.02039e+08
3.31926e+08
2.33522e+08
1.51258e+08
2.38587e+08
2.52816e+08
2.23319e+08
1.97074e+08
1.88591e+08
2.36507e+08
6.32495e+07
2.37687e+08
2.38445e+08
1.58173e+08
2.28143e+08
2.00984e+08
1.92787e+08
2.50329e+08
1.25061e+08
1.5532e+08
1.93253e+08
2.0552e+08
1.59777e+08
2.43128e+08
2.09183e+08
3.17697e+08
1.56958e+08
2.10848e+08
2.14666e+08
1.96386e+08
2.0307e+08
2.96366e+08
3.31078e+08
1.58026e+08
1.71487e+08
2.71975e+08
1.93428e+08
1.87964e+08
1.16585e+08
2.34319e+08
1.83233e+08
2.34923e+08
2.02469e+08
1.90269e+08
2.39846e+08
3.2957e+08
3.85908e+08
1.35099e+08
2.54113e+08
1.04551e+08
2.80731e+08
6.43832e+07
3.60804e+08
5.24204e+08
4.76024e+08
4.03379e+08
1.81588e+08
5.88311e+07
2.19212e+08
2.455e+07
5.14185e+08
1.06714e+08
4.01082e+08
3.87606e+08
3.41678e+08
1.94789e+08
2.2992e+08
1.40558e+08
2.49674e+08
1.30185e+08
4.03711e+08
1.07237e+08
2.76187e+08
1.4568e+08
7.10582e+07
2.33707e+08
2.80622e+08
1.92334e+07
2.11403e+08
1.81911e+08
1.74601e+08
3.85741e+07
1.69455e+08
2.48801e+08
3.68541e+08
1.5483e+08
2.43462e+08
-1.6312e+08
4.16301e+08
3.41191e+08
5.26033e+07
1.21815e+06
-7.96572e+07
8.19838e+07
7.88725e+07
-1.1253e+07
7.25249e+07
1.42912e+08
1.86346e+08
6.69535e+07
-3.43906e+07
6.47275e+07
1.99778e+08
1.38918e+08
1.22837e+08
3.28215e+07
1.38066e+08
1.53391e+08
5.50944e+07
1.27205e+08
1.43077e+08
2.97123e+08
5.00736e+08
4.40918e+08
-8.22226e+08
1.04852e+08
1.11636e+08
9.24199e+07
1.01546e+08
1.21748e+08
1.3732e+08
8.0455e+07
1.44164e+08
1.69247e+08
1.90086e+08
1.2794e+08
1.62241e+08
1.16876e+08
1.27033e+08
1.2513e+08
1.37046e+08
2.1591e+08
1.33696e+08
1.32222e+08
1.2362e+08
1.29896e+08
1.13901e+08
7.57395e+07
1.45131e+08
1.19683e+08
1.31505e+08
1.18532e+08
1.35128e+08
2.78918e+08
6.42141e+08
3.46572e+08
4.42287e+08
2.8827e+08
3.47281e+08
4.51055e+08
2.54751e+08
4.15368e+08
2.8361e+08
3.64669e+08
2.44478e+08
2.87896e+08
3.41468e+08
4.31671e+08
2.42472e+08
7.27998e+07
3.41368e+08
2.54418e+08
4.72029e+08
4.99583e+08
2.17788e+08
5.71755e+07
2.60682e+08
3.10633e+08
2.00546e+08
1.22354e+08
1.37826e+08
1.3701e+08
1.38973e+08
2.81335e+08
2.63326e+08
2.15487e+08
2.25866e+08
3.9341e+08
3.17115e+08
1.92281e+08
2.99434e+07
1.40852e+08
1.81904e+08
1.62093e+08
1.48431e+08
2.16896e+08
2.09269e+07
2.13178e+08
1.36021e+08
4.28301e+08
5.06962e+08
3.59234e+08
4.85226e+08
3.89952e+08
4.05941e+08
4.39263e+08
4.75815e+08
4.41822e+08
4.55314e+08
2.90892e+08
3.47175e+08
4.35427e+08
3.78062e+08
5.90853e+08
5.62497e+08
4.87574e+08
5.25275e+08
6.58459e+08
5.73866e+08
4.39516e+08
2.8254e+08
3.07342e+08
2.66944e+08
3.20921e+08
3.26201e+08
3.53489e+08
3.52195e+08
4.31674e+08
4.35772e+08
5.24769e+08
4.05533e+08
3.84444e+08
5.07344e+08
4.25048e+08
3.6261e+08
3.42594e+08
2.40282e+08
4.79803e+08
3.22382e+08
4.07269e+08
3.92244e+08
2.69221e+08
4.03154e+08
3.14056e+08
2.60513e+08
2.65995e+08
4.89116e+08
2.80044e+08
5.07292e+08
4.6628e+08
5.46126e+08
6.37478e+08
5.08547e+08
4.45198e+08
5.28615e+08
3.3425e+08
3.61779e+08
4.01788e+08
3.10349e+08
3.49895e+08
3.27506e+08
3.57309e+08
1.84741e+08
2.05489e+08
2.34201e+08
2.62241e+08
2.01447e+08
1.68267e+08
2.84579e+08
2.6382e+08
3.13582e+08
2.27151e+08
2.53402e+08
2.50437e+08
2.96345e+08
2.33897e+08
2.30571e+08
4.0097e+08
2.30223e+08
2.17729e+08
2.05789e+08
3.40099e+08
2.1491e+08
4.92727e+08
5.3873e+08
4.84784e+08
4.30919e+08
4.45515e+08
3.24221e+08
5.35963e+08
4.34782e+08
4.21427e+08
4.99723e+08
3.61595e+08
3.68101e+08
2.97162e+08
3.70486e+08
4.59538e+08
3.9514e+08
6.53802e+07
2.11814e+08
1.33997e+08
1.3362e+08
-4.95898e+07
-1.29279e+08
-9.79374e+07
-1.35873e+08
3.15901e+07
3.38398e+07
9.01366e+07
-4.43611e+07
1.80051e+07
-8.59064e+07
5.29788e+07
-1.40829e+08
4.0168e+08
2.48719e+08
2.83849e+08
2.05268e+08
1.55212e+08
1.34733e+08
1.94229e+08
1.62008e+08
2.17762e+08
2.80921e+08
2.74815e+08
2.86974e+08
2.0197e+08
2.7902e+08
3.85607e+08
2.06978e+08
2.65291e+08
3.25937e+08
3.95851e+08
1.8934e+08
2.06645e+08
7.08414e+07
2.48645e+08
3.19326e+07
3.0631e+08
4.79225e+08
3.77314e+08
4.35991e+08
1.6199e+08
-3.98182e+07
1.10035e+08
-2.26546e+06
-1.01849e+09
4.4983e+08
-2.08771e+08
1.371e+09
-3.45996e+08
-2.00582e+08
1.45965e+09
6.42115e+09
3.97678e+09
7.14335e+09
5.86866e+09
4.16935e+09
5.4879e+09
3.47179e+09
6.55009e+09
5.43215e+09
3.70331e+09
1.78219e+09
-1.85641e+09
-9.38167e+09
1.34018e+09
1.84338e+09
-2.51888e+10
7.25432e+08
-2.49045e+10
1.83395e+11
6.09068e+10
2.88129e+10
1.42535e+10
3.946e+10
-2.80648e+10
4.62865e+09
1.19932e+10
8.25381e+09
6.64398e+09
4.6719e+09
1.04734e+10
1.24201e+10
2.51707e+09
2.26295e+09
2.89164e+09
2.81793e+09
3.58068e+09
5.91494e+09
2.61995e+09
2.31193e+09
5.82539e+09
1.5176e+09
9.41289e+09
3.84392e+09
3.53176e+09
8.04559e+09
3.65009e+09
6.04114e+09
4.33397e+09
7.67224e+09
5.92598e+09
3.07644e+09
6.42631e+09
3.13836e+09
6.47893e+08
4.48644e+09
6.35163e+09
1.87536e+09
1.70873e+10
4.64153e+09
1.05781e+10
6.3293e+09
1.35887e+10
6.50804e+09
1.63811e+10
2.54612e+10
3.11162e+10
4.10489e+10
5.2868e+09
3.56385e+10
1.48447e+10
2.33756e+10
2.08962e+10
9.38243e+09
2.64641e+10
5.13375e+10
2.86688e+10
1.8103e+10
1.26456e+10
2.07535e+10
7.27928e+09
5.36493e+09
6.16258e+09
8.8227e+09
1.45535e+10
1.71119e+10
-1.33163e+08
8.34479e+07
7.83839e+07
2.36965e+08
2.45207e+08
2.00693e+08
2.12805e+08
8.41347e+08
-4.22344e+07
2.65831e+07
-4.12786e+07
-3.62607e+08
7.60608e+08
2.69217e+08
1.80538e+08
3.34567e+08
-3.1975e+07
1.70446e+08
1.35431e+08
-2.28314e+08
1.33705e+08
-1.00488e+08
-2.38774e+07
8.0736e+07
-1.04167e+08
2.65365e+07
-1.72757e+08
3.25805e+08
6.06735e+08
-2.23799e+08
-1.07408e+07
-7.32469e+07
-110926
3.68588e+07
-1.71575e+08
2.58054e+08
1.84803e+08
1.66292e+08
3.34908e+08
2.03749e+08
3.10757e+06
9.03427e+07
1.47334e+08
3.3264e+07
1.15488e+08
2.12827e+08
-7.49814e+07
-6.1213e+07
4.13492e+07
7.12935e+07
-8.56448e+07
4.20401e+08
1.24565e+08
2.85783e+08
2.51039e+08
6.00003e+08
6.32393e+08
8.29694e+08
3.94877e+08
1.77283e+09
5.44774e+09
5.70387e+09
7.96593e+08
8.97388e+08
3.15486e+09
1.31154e+09
3.45732e+09
1.72325e+09
1.23421e+09
1.52023e+09
1.26397e+09
-5.20415e+07
2.71595e+08
1.99413e+08
2.75639e+07
2.69614e+08
-1.86179e+08
2.04974e+07
-5.69945e+07
-2.04345e+08
3.45733e+07
-1.25014e+08
-1.87083e+07
5.57615e+08
6.1279e+08
1.02152e+09
1.61944e+08
9.69364e+08
7.01005e+08
7.742e+08
8.19201e+08
1.12107e+09
7.63175e+08
1.03922e+09
1.14172e+09
2.85701e+09
1.69338e+09
1.87186e+09
1.55973e+09
3.91133e+09
3.316e+09
4.75587e+09
6.80945e+09
-4.06765e+09
2.69256e+09
5.20978e+09
1.87799e+09
2.71357e+09
3.36209e+09
2.75449e+09
5.67434e+09
2.72922e+08
-9.33561e+08
3.05969e+09
1.4422e+09
2.33728e+09
2.07698e+09
1.26357e+09
1.50057e+09
1.19417e+09
5.94943e+08
1.09616e+09
1.96681e+09
-7.31069e+07
3.42409e+08
-1.49842e+08
9.11026e+08
1.16355e+09
8.49096e+08
2.06307e+08
4.56859e+08
7.16863e+08
2.71281e+08
6.95127e+08
5.76517e+08
1.99894e+09
1.67616e+09
-4.17895e+08
4.0896e+07
8.48276e+07
7.56244e+07
4.47038e+07
5.96994e+07
6.58902e+07
4.1853e+07
1.11229e+08
2.22848e+08
1.2464e+08
1.04922e+08
9.70485e+07
1.23643e+08
1.17035e+08
-1.08271e+08
-1.8487e+08
-1.56948e+08