/*--------------------------------*- C++ -*----------------------------------*\
| =========                 |                                                 |
| \\      /  F ield         | OpenFOAM: The Open Source CFD Toolbox           |
|  \\    /   O peration     | Version:  2012                                  |
|   \\  /    A nd           | Website:  www.openfoam.com                      |
|    \\/     M anipulation  |                                                 |
\*---------------------------------------------------------------------------*/
FoamFile
{
    version     2.0;
    format      ascii;
    class       volVectorField;
    location    "0.105/fluid";
    object      cellMotionU;
}
// * * * * * * * * * * * * * * * * * * * * * * * * * * * * * * * * * * * * * //

dimensions      [0 1 -1 0 0 0 0];


internalField   nonuniform List<vector> 
16422
(
(-1.03512e-05 -5.14718e-06 8.24448e-07)
(-9.47081e-05 -4.61212e-05 7.32896e-06)
(-0.000184718 -8.06083e-05 1.30033e-05)
(-0.0002603 -0.000105173 1.80448e-05)
(-0.000304897 -0.000120145 2.26263e-05)
(-0.000316916 -0.000126242 2.64375e-05)
(-0.000300034 -0.000123407 2.89525e-05)
(-0.000261052 -0.000111975 2.94324e-05)
(-0.000205687 -9.26035e-05 2.76065e-05)
(-0.000137814 -6.70699e-05 2.33924e-05)
(-6.30627e-05 -3.91707e-05 1.65782e-05)
(5.89992e-08 -1.37411e-05 5.47799e-06)
(2.28614e-05 7.60583e-06 -1.25589e-05)
(-4.83986e-06 1.1684e-05 -2.55796e-05)
(1.85871e-05 -1.22112e-05 -7.2863e-06)
(-1.2456e-05 -4.00632e-06 8.52809e-07)
(-0.000114585 -3.64251e-05 7.59951e-06)
(-0.000222396 -6.2948e-05 1.31606e-05)
(-0.000312083 -8.1559e-05 1.7886e-05)
(-0.000369052 -9.32008e-05 2.20331e-05)
(-0.000390215 -9.77958e-05 2.52443e-05)
(-0.000379989 -9.5056e-05 2.67408e-05)
(-0.000342616 -8.55054e-05 2.60136e-05)
(-0.000282831 -7.01106e-05 2.2852e-05)
(-0.000211494 -5.01878e-05 1.69901e-05)
(-0.000137967 -2.78037e-05 8.47126e-06)
(-7.23102e-05 -5.9055e-06 -3.65252e-06)
(-3.69161e-05 1.07495e-05 -1.95212e-05)
(-3.59452e-05 1.272e-05 -3.13342e-05)
(-2.93238e-05 5.86572e-07 -2.54879e-05)
(-1.39127e-05 -2.06229e-06 8.51116e-07)
(-0.000128396 -1.86429e-05 7.48434e-06)
(-0.00024839 -3.24748e-05 1.29265e-05)
(-0.000346047 -4.21488e-05 1.73362e-05)
(-0.000410621 -4.8234e-05 2.09937e-05)
(-0.00043892 -5.06847e-05 2.35119e-05)
(-0.000433739 -4.91437e-05 2.41391e-05)
(-0.000398594 -4.39911e-05 2.22632e-05)
(-0.000340436 -3.58642e-05 1.76259e-05)
(-0.000271284 -2.58183e-05 1.03478e-05)
(-0.000200884 -1.41335e-05 5.89431e-08)
(-0.000139892 -1.91339e-06 -1.29607e-05)
(-9.92051e-05 8.09834e-06 -2.70324e-05)
(-7.92652e-05 1.2648e-05 -3.62105e-05)
(-6.33671e-05 1.1757e-05 -3.24625e-05)
(-1.05925e-05 -4.45971e-06 7.88723e-07)
(-9.6117e-05 -3.96131e-05 6.96872e-06)
(-0.000186799 -7.03012e-05 1.24672e-05)
(-0.000257168 -9.18751e-05 1.70927e-05)
(-0.000292911 -0.000106303 2.13616e-05)
(-0.00029261 -0.000114227 2.4966e-05)
(-0.000258922 -0.000115061 2.72695e-05)
(-0.000202288 -0.000108383 2.75538e-05)
(-0.000130945 -9.44687e-05 2.54368e-05)
(-5.06168e-05 -7.48406e-05 2.10181e-05)
(2.92204e-05 -5.18076e-05 1.43862e-05)
(8.84611e-05 -2.8586e-05 4.62049e-06)
(0.000100693 -7.46446e-06 -1.00687e-05)
(4.91045e-05 2.44099e-06 -2.35404e-05)
(1.98584e-05 -1.15475e-05 -1.56618e-05)
(-1.23776e-05 -3.44054e-06 8.20964e-07)
(-0.000113201 -3.0957e-05 7.26209e-06)
(-0.000220634 -5.45159e-05 1.27142e-05)
(-0.000306628 -7.15029e-05 1.72268e-05)
(-0.000355602 -8.30142e-05 2.11981e-05)
(-0.000363881 -8.85761e-05 2.41701e-05)
(-0.000337118 -8.87078e-05 2.55856e-05)
(-0.000281955 -8.32728e-05 2.4766e-05)
(-0.000206622 -7.2671e-05 2.13846e-05)
(-0.00012249 -5.69167e-05 1.53196e-05)
(-4.26694e-05 -3.7978e-05 7.0576e-06)
(1.87031e-05 -1.87183e-05 -3.8703e-06)
(4.20875e-05 -3.19606e-06 -1.75995e-05)
(2.42525e-05 2.70468e-06 -2.84001e-05)
(8.04815e-06 -2.79792e-06 -2.56557e-05)
(-1.37321e-05 -1.7861e-06 8.43669e-07)
(-0.000124664 -1.57447e-05 7.21632e-06)
(-0.000242015 -2.81281e-05 1.2594e-05)
(-0.000337035 -3.69259e-05 1.68731e-05)
(-0.000396 -4.26657e-05 2.03365e-05)
(-0.00041267 -4.58198e-05 2.27077e-05)
(-0.00039117 -4.5966e-05 2.33308e-05)
(-0.000337359 -4.32142e-05 2.15624e-05)
(-0.000262531 -3.79253e-05 1.70574e-05)
(-0.000181526 -3.00193e-05 9.72328e-06)
(-0.000107408 -1.98983e-05 -1.47376e-07)
(-5.07363e-05 -9.25353e-06 -1.21126e-05)
(-2.08463e-05 -4.65584e-07 -2.47046e-05)
(-1.45101e-05 3.937e-06 -3.30119e-05)
(-1.00296e-05 3.5873e-06 -3.17329e-05)
(-1.09169e-05 -3.87557e-06 6.07721e-07)
(-9.78021e-05 -3.42461e-05 5.36886e-06)
(-0.000185864 -6.03963e-05 9.53056e-06)
(-0.000251757 -7.96288e-05 1.3089e-05)
(-0.000280998 -9.32652e-05 1.63709e-05)
(-0.000271301 -0.000101795 1.9164e-05)
(-0.000226829 -0.000105065 2.0989e-05)
(-0.000157324 -0.000102314 2.12276e-05)
(-7.61621e-05 -9.40851e-05 1.95284e-05)
(9.4067e-06 -8.05969e-05 1.59249e-05)
(8.77811e-05 -6.32487e-05 1.07921e-05)
(0.000139404 -4.32258e-05 3.29671e-06)
(0.000147982 -2.32938e-05 -7.76328e-06)
(0.000109199 -9.88729e-06 -1.85524e-05)
(7.80842e-05 -9.61433e-06 -1.95447e-05)
(-1.25194e-05 -2.96873e-06 6.36669e-07)
(-0.000113186 -2.66589e-05 5.63855e-06)
(-0.000217509 -4.70608e-05 9.85082e-06)
(-0.000298325 -6.20057e-05 1.33293e-05)
(-0.000340709 -7.27557e-05 1.64135e-05)
(-0.000340566 -7.91874e-05 1.8856e-05)
(-0.000302293 -8.07327e-05 1.99894e-05)
(-0.000233774 -7.82464e-05 1.93953e-05)
(-0.000147368 -7.21917e-05 1.67271e-05)
(-5.68236e-05 -6.15586e-05 1.19641e-05)
(2.27639e-05 -4.70477e-05 5.60012e-06)
(7.94561e-05 -3.03541e-05 -2.94759e-06)
(0.00010095 -1.59431e-05 -1.33586e-05)
(8.89199e-05 -7.42493e-06 -2.19975e-05)
(7.80167e-05 -6.64231e-06 -2.33771e-05)
(-1.37228e-05 -1.52722e-06 6.58529e-07)
(-0.000123149 -1.3457e-05 5.62817e-06)
(-0.000235367 -2.39509e-05 9.78175e-06)
(-0.000326566 -3.17461e-05 1.31443e-05)
(-0.000379558 -3.71212e-05 1.58439e-05)
(-0.00038849 -4.05036e-05 1.7777e-05)
(-0.000354555 -4.14657e-05 1.84228e-05)
(-0.000288694 -4.04963e-05 1.72372e-05)
(-0.000202113 -3.78338e-05 1.37645e-05)
(-0.000114129 -3.25605e-05 8.00311e-06)
(-3.8166e-05 -2.45136e-05 3.58501e-07)
(1.64834e-05 -1.53743e-05 -8.82933e-06)
(4.46088e-05 -7.66727e-06 -1.84663e-05)
(5.29066e-05 -3.51471e-06 -2.52134e-05)
(6.14721e-05 -3.28333e-06 -2.67324e-05)
(-1.11497e-05 -3.49329e-06 3.06122e-07)
(-9.85796e-05 -3.05336e-05 2.70774e-06)
(-0.000184059 -5.37024e-05 4.83286e-06)
(-0.000246564 -7.10076e-05 6.67809e-06)
(-0.00027217 -8.38821e-05 8.37834e-06)
(-0.000258474 -9.24195e-05 9.81259e-06)
(-0.000209398 -9.65214e-05 1.08166e-05)
(-0.000134543 -9.63369e-05 1.10075e-05)
(-4.65234e-05 -9.1961e-05 1.02197e-05)
(3.97377e-05 -8.26833e-05 8.3784e-06)
(0.000112902 -6.89906e-05 5.67543e-06)
(0.000160347 -5.18852e-05 1.55848e-06)
(0.000174372 -3.46195e-05 -4.26937e-06)
(0.000163971 -2.2197e-05 -9.87716e-06)
(0.000163164 -1.90588e-05 -1.24048e-05)
(-1.27687e-05 -2.69168e-06 3.2207e-07)
(-0.000113954 -2.37096e-05 2.83702e-06)
(-0.000214705 -4.17295e-05 4.9589e-06)
(-0.000291015 -5.49416e-05 6.73853e-06)
(-0.000329021 -6.50604e-05 8.36596e-06)
(-0.000324664 -7.17248e-05 9.67817e-06)
(-0.000280389 -7.38758e-05 1.04064e-05)
(-0.000203765 -7.31224e-05 1.02557e-05)
(-0.000112044 -7.02042e-05 8.89999e-06)
(-2.04323e-05 -6.29115e-05 6.48634e-06)
(5.71251e-05 -5.11379e-05 3.14898e-06)
(0.000111217 -3.69878e-05 -1.44229e-06)
(0.000137154 -2.42556e-05 -7.10207e-06)
(0.00014201 -1.64269e-05 -1.19586e-05)
(0.000152549 -1.53169e-05 -1.43223e-05)
(-1.3875e-05 -1.33775e-06 3.20327e-07)
(-0.000123962 -1.20193e-05 2.84425e-06)
(-0.000232655 -2.12905e-05 4.96024e-06)
(-0.000317991 -2.81104e-05 6.71125e-06)
(-0.000365993 -3.34055e-05 8.1979e-06)
(-0.000370448 -3.68117e-05 9.30793e-06)
(-0.00033122 -3.77733e-05 9.70764e-06)
(-0.000258254 -3.75878e-05 9.18259e-06)
(-0.000167274 -3.65759e-05 7.45749e-06)
(-7.49412e-05 -3.31751e-05 4.47884e-06)
(2.10901e-06 -2.64717e-05 5.29007e-07)
(5.70528e-05 -1.85617e-05 -4.31359e-06)
(8.92969e-05 -1.18929e-05 -9.53998e-06)
(0.000106263 -8.48243e-06 -1.35822e-05)
(0.000127834 -8.71006e-06 -1.54647e-05)
(2.70453e-05 -1.15436e-05 -1.54083e-06)
(6.44748e-05 -1.78346e-05 -3.84695e-07)
(3.62849e-05 -1.18795e-05 -1.04691e-06)
(6.59778e-05 -1.7665e-05 -4.88403e-07)
(2.51191e-05 -1.32818e-05 -9.3727e-06)
(5.34711e-05 -1.31295e-05 -1.59783e-06)
(-1.47206e-05 1.17338e-05 -2.49311e-05)
(6.78353e-06 -6.9811e-06 -9.67567e-06)
(1.46916e-05 -1.11971e-05 -6.70358e-06)
(5.52132e-05 -1.69313e-05 -8.70935e-07)
(-2.48008e-05 -3.33839e-06 -2.20658e-05)
(1.29954e-05 -4.92971e-06 -1.00168e-05)
(-1.61531e-06 9.95499e-06 -2.44635e-05)
(1.50984e-05 -7.40876e-06 -9.33416e-06)
(3.89003e-05 4.22328e-06 -2.30442e-05)
(1.81021e-05 -9.07021e-06 -1.48523e-05)
(4.8049e-05 -1.05198e-05 2.51081e-06)
(5.20396e-05 -1.08024e-05 1.95765e-06)
(5.83796e-05 -1.67883e-05 -9.12958e-07)
(-1.8732e-05 -4.45256e-06 -2.19786e-05)
(1.45636e-05 -6.42432e-06 -1.03702e-05)
(2.00745e-05 -1.22937e-05 -1.25109e-05)
(4.483e-05 -1.42217e-05 -3.84354e-06)
(1.23375e-06 -5.51274e-06 -2.30378e-05)
(2.07389e-05 -8.78512e-06 -1.29787e-05)
(2.3891e-05 -1.22473e-05 -1.29007e-05)
(4.5453e-05 -1.37263e-05 -4.4548e-06)
(5.61779e-05 -9.52141e-06 -1.86995e-05)
(6.74084e-05 -1.58569e-05 -1.24708e-05)
(3.92696e-05 -1.06435e-05 2.06908e-06)
(4.14232e-05 -1.04562e-05 3.36611e-06)
(4.79315e-05 -1.291e-05 4.76841e-06)
(5.038e-05 -1.24858e-05 3.48245e-06)
(5.31292e-05 -9.98839e-06 4.29222e-06)
(5.91884e-05 -1.30624e-05 5.53494e-06)
(3.94612e-05 -1.22312e-05 -1.94505e-06)
(5.63913e-05 -1.05999e-05 3.41778e-06)
(6.25997e-05 -1.42152e-05 4.76551e-06)
(5.41288e-05 -1.21117e-05 3.62227e-06)
(6.49728e-05 -1.5208e-05 -4.12585e-07)
(5.70512e-05 -1.37006e-05 2.57126e-06)
(7.59507e-05 3.38961e-06 1.04124e-05)
(2.70252e-05 -1.41454e-05 -7.297e-06)
(3.97646e-05 -1.27418e-05 -2.0152e-06)
(4.15829e-05 -1.43597e-05 -1.81061e-06)
(7.6075e-05 2.56021e-06 9.85534e-06)
(6.09321e-05 -1.06916e-05 -7.92497e-07)
(7.59061e-05 -1.4563e-05 -1.55157e-06)
(5.60128e-05 -1.14968e-05 8.71857e-07)
(7.68848e-05 3.43864e-06 1.04596e-05)
(3.41462e-05 -1.29245e-05 -4.80999e-06)
(3.12633e-05 -1.31577e-05 -6.55083e-06)
(3.80421e-05 -1.4739e-05 -4.03855e-06)
(4.48889e-05 -1.19437e-05 -7.63993e-07)
(5.05985e-05 -1.38914e-05 8.95303e-07)
(4.57726e-05 -1.34099e-05 -9.31335e-07)
(7.73259e-05 2.65122e-06 9.9299e-06)
(6.1916e-05 -1.37315e-05 -5.50849e-07)
(6.24874e-05 -1.08549e-05 -3.36093e-07)
(4.88831e-05 -1.37168e-05 -1.3952e-06)
(7.7295e-05 -1.4551e-05 -1.55012e-06)
(5.44692e-05 -1.45408e-05 1.49823e-06)
(5.88548e-05 -1.08534e-05 1.58904e-06)
(6.61345e-05 -1.11487e-05 6.18514e-06)
(8.45367e-05 -1.20487e-05 9.18001e-06)
(7.5021e-05 -6.97107e-06 8.408e-06)
(8.55139e-05 -1.04714e-05 1.00457e-05)
(7.65851e-05 -6.12251e-06 9.39661e-06)
(6.59482e-05 -1.12829e-05 5.47088e-06)
(6.49158e-05 -1.08631e-05 6.56131e-06)
(7.64251e-05 -9.28252e-06 9.75096e-06)
(6.80773e-05 -5.88192e-06 9.10811e-06)
(6.09642e-05 -9.94329e-06 6.535e-06)
(8.26649e-05 -9.27519e-06 1.01939e-05)
(7.44258e-05 -5.43384e-06 9.6573e-06)
(7.18067e-05 -9.4206e-06 9.5404e-06)
(6.33663e-05 -7.14632e-06 8.86519e-06)
(5.73114e-05 -1.07638e-05 6.3871e-06)
(6.39896e-05 -7.28128e-06 9.58317e-06)
(7.42522e-05 -1.00466e-05 1.09677e-05)
(6.00442e-05 -1.08325e-05 7.8353e-06)
(6.36417e-05 -1.57321e-05 -5.46224e-07)
(6.30306e-05 -6.62016e-06 3.45464e-06)
(6.35133e-05 -5.46241e-06 8.14108e-06)
(6.2623e-05 -3.72806e-06 4.5378e-06)
(7.12399e-05 -1.11621e-05 7.84623e-06)
(7.68986e-05 -7.20885e-06 9.06532e-06)
(8.91883e-05 -1.23631e-05 1.05566e-05)
(7.84496e-05 -6.40899e-06 1.00966e-05)
(9.01312e-05 -1.10621e-05 1.14281e-05)
(7.17151e-05 -1.09868e-05 6.98141e-06)
(7.01931e-05 -1.07309e-05 8.29299e-06)
(7.06202e-05 -5.46536e-06 1.00768e-05)
(8.15117e-05 -9.04934e-06 1.14292e-05)
(7.65018e-05 -5.50539e-06 1.03983e-05)
(6.68245e-05 -9.00695e-06 8.38545e-06)
(8.74471e-05 -9.62996e-06 1.16421e-05)
(6.95484e-05 -4.86235e-06 4.23475e-06)
(7.30525e-05 -8.95385e-06 7.34869e-06)
(7.37208e-05 -6.24512e-06 8.38322e-06)
(7.27332e-05 -6.0233e-06 4.19492e-06)
(6.84031e-05 -7.43975e-06 3.15298e-06)
(6.4629e-05 -1.53809e-05 -5.93626e-07)
(6.38855e-05 -6.60938e-06 3.37016e-06)
(6.86859e-05 -1.57385e-05 -7.67939e-07)
(6.79148e-05 -4.70177e-06 4.27324e-06)
(6.61443e-05 -4.74443e-06 8.26157e-06)
(6.34705e-05 -3.94935e-06 4.45185e-06)
(7.2876e-05 -5.71854e-06 8.43309e-06)
(6.91094e-05 -7.53716e-06 3.0869e-06)
(7.12218e-05 -1.30297e-05 -7.1128e-07)
(7.25448e-05 -7.60894e-06 3.13666e-06)
(6.95298e-05 -1.52574e-05 -7.77071e-07)
(4.15898e-05 -1.36829e-05 -1.03864e-06)
(6.56656e-05 -1.17982e-05 5.61483e-06)
(6.34476e-05 -9.79139e-06 5.67731e-06)
(5.98643e-05 -1.11157e-05 4.57874e-06)
(5.74016e-05 -1.22994e-05 3.44197e-06)
(5.50702e-05 -1.29275e-05 2.56611e-06)
(5.24675e-05 -1.18299e-05 2.17011e-06)
(6.42449e-05 -1.0227e-05 2.68106e-06)
(7.60725e-05 -4.97804e-06 4.50124e-06)
(6.74993e-05 -7.95058e-06 5.64157e-06)
(5.97672e-05 -1.15719e-05 3.25639e-06)
(7.10407e-05 -7.05929e-06 4.24342e-06)
(6.63856e-05 -9.96415e-06 1.18614e-06)
(7.60408e-05 -6.1061e-06 3.74441e-06)
(7.15675e-05 -1.03053e-05 -6.90566e-07)
(7.21036e-05 -8.44206e-06 1.98779e-06)
(6.63819e-05 -9.98578e-06 -9.05073e-07)
(4.81932e-05 -1.25262e-05 2.78018e-07)
(6.60577e-05 -9.39584e-06 6.34857e-06)
(7.06644e-05 -1.09999e-05 6.95322e-06)
(6.24426e-05 -1.04309e-05 5.2043e-06)
(6.29869e-05 -1.14153e-05 4.84605e-06)
(5.52317e-05 -1.11407e-05 2.76031e-06)
(6.04775e-05 -1.17955e-05 3.8531e-06)
(6.80014e-05 -9.50317e-06 3.72657e-06)
(7.73764e-05 -4.98382e-06 4.53764e-06)
(7.05263e-05 -1.05067e-05 6.66816e-06)
(6.93307e-05 -7.54336e-06 6.12513e-06)
(7.45902e-05 -7.44138e-06 4.37011e-06)
(7.25191e-05 -6.85437e-06 4.64956e-06)
(6.47253e-05 -1.05157e-05 4.49428e-06)
(6.9366e-05 -9.79484e-06 2.02155e-06)
(7.73669e-05 -6.1158e-06 3.77733e-06)
(7.16302e-05 -1.09513e-05 -5.78523e-07)
(7.24609e-05 -1.04653e-05 -4.01288e-07)
(7.48378e-05 -8.20302e-06 3.29168e-06)
(7.35858e-05 -8.40118e-06 2.31519e-06)
(6.80554e-05 -1.05621e-05 -2.12108e-07)
(9.29395e-05 -6.6207e-06 1.14586e-05)
(0.000115603 -5.49405e-06 1.4487e-05)
(7.81578e-05 -4.44944e-07 1.02287e-05)
(0.000117448 -5.26631e-06 1.50339e-05)
(7.82892e-05 2.5706e-07 1.05092e-05)
(8.94392e-05 -6.12043e-06 1.06453e-05)
(8.40428e-05 -4.37813e-06 1.16051e-05)
(0.000101522 -1.49573e-06 1.47638e-05)
(6.77363e-05 1.76183e-06 1.0405e-05)
(8.15676e-05 -3.36336e-06 1.15746e-05)
(0.000104459 -2.05655e-06 1.4835e-05)
(7.01085e-05 1.83052e-06 1.0519e-05)
(6.03813e-05 -1.47714e-05 -2.62917e-06)
(6.27981e-05 -1.514e-05 -2.52887e-06)
(7.25067e-05 -1.57822e-05 -2.24782e-06)
(7.00787e-05 -1.57244e-05 -2.28775e-06)
(7.50114e-05 -4.80237e-06 1.10406e-05)
(9.88051e-05 -9.15527e-07 1.47396e-05)
(6.58865e-05 1.7786e-06 1.03895e-05)
(7.97076e-05 -3.27057e-06 1.15847e-05)
(9.58903e-05 -2.17718e-07 1.47112e-05)
(6.39212e-05 2.21085e-06 1.03796e-05)
(5.69672e-05 -8.98456e-06 1.40922e-07)
(5.95054e-05 -1.33531e-05 -1.96037e-06)
(5.70702e-05 -1.28555e-05 -2.05366e-06)
(5.94057e-05 -9.48745e-06 2.259e-07)
(5.8003e-05 1.47381e-06 6.7948e-06)
(6.8182e-05 3.32566e-07 9.62806e-06)
(6.50647e-05 6.91595e-07 9.58694e-06)
(6.04563e-05 9.36986e-07 6.82411e-06)
(7.56602e-05 -5.73322e-06 1.20006e-05)
(6.76014e-05 1.70524e-06 1.08025e-05)
(0.000102707 -2.26919e-06 1.59192e-05)
(6.57527e-05 2.34325e-06 1.08173e-05)
(9.97427e-05 -1.44483e-06 1.59009e-05)
(8.16357e-05 -4.24809e-06 1.25453e-05)
(6.52233e-05 -8.92241e-06 1.19248e-06)
(6.74759e-05 -1.32694e-05 -1.14775e-06)
(6.50551e-05 -1.27746e-05 -1.08406e-06)
(6.7641e-05 -9.42365e-06 1.12879e-06)
(6.45656e-05 1.40721e-06 7.76129e-06)
(7.2247e-05 7.85771e-10 1.05007e-05)
(6.88135e-05 3.62665e-07 1.04898e-05)
(6.69875e-05 8.64608e-07 7.69669e-06)
(5.95727e-05 -1.46255e-05 -2.66232e-06)
(5.71384e-05 -1.41286e-05 -2.7577e-06)
(6.73915e-05 -1.45397e-05 -1.87948e-06)
(6.49693e-05 -1.4046e-05 -1.81647e-06)
(7.08827e-05 -6.88268e-07 7.14925e-06)
(8.07759e-05 -3.95117e-06 9.44171e-06)
(8.03663e-05 -1.92589e-06 9.96947e-06)
(7.32389e-05 -8.6624e-07 7.2144e-06)
(6.26322e-05 -1.00369e-05 3.50637e-07)
(6.03142e-05 -1.35003e-05 -1.92754e-06)
(6.27315e-05 -1.38752e-05 -1.82829e-06)
(6.02147e-05 -9.63781e-06 2.56191e-07)
(6.36937e-05 3.11885e-07 6.89167e-06)
(6.91312e-05 4.47767e-07 9.65911e-06)
(7.22932e-05 -1.87824e-07 9.79574e-06)
(6.12691e-05 7.69909e-07 6.83837e-06)
(6.98675e-05 -1.07827e-05 6.11964e-07)
(7.24241e-05 -1.45906e-05 -1.54326e-06)
(7.00036e-05 -1.4515e-05 -1.58378e-06)
(7.22756e-05 -1.08989e-05 6.61295e-07)
(9.52077e-05 -7.67946e-06 1.22782e-05)
(7.98221e-05 -3.77495e-07 1.04837e-05)
(0.000118609 -6.44327e-06 1.51544e-05)
(8.02657e-05 2.24653e-07 1.0809e-05)
(0.000121461 -6.85407e-06 1.58804e-05)
(9.22104e-05 -6.60563e-06 1.13586e-05)
(8.68519e-05 -5.04704e-06 1.26818e-05)
(6.9922e-05 2.08588e-06 1.08713e-05)
(0.000105984 -2.66674e-06 1.59809e-05)
(7.21699e-05 1.87294e-06 1.09226e-05)
(8.47517e-05 -3.55915e-06 1.2688e-05)
(0.000108869 -3.41138e-06 1.59921e-05)
(7.71924e-05 -7.07797e-07 7.47809e-06)
(8.41306e-05 -3.98111e-06 1.00382e-05)
(8.43271e-05 -2.27177e-06 1.04767e-05)
(7.95364e-05 -8.17863e-07 7.46453e-06)
(7.08055e-05 -9.97187e-06 1.03468e-06)
(6.82742e-05 -1.34141e-05 -1.17142e-06)
(6.84381e-05 -9.57362e-06 1.1059e-06)
(7.06437e-05 -1.37865e-05 -1.24595e-06)
(7.01642e-05 2.30103e-07 7.61159e-06)
(7.34368e-05 1.7007e-07 1.05188e-05)
(6.77873e-05 6.95672e-07 7.67478e-06)
(7.6537e-05 -5.23226e-07 1.05743e-05)
(7.78184e-05 -1.07269e-05 8.39437e-07)
(8.00037e-05 -1.45251e-05 -1.51682e-06)
(8.02008e-05 -1.0858e-05 7.83635e-07)
(7.7637e-05 -1.44257e-05 -1.45728e-06)
(6.25221e-05 -9.98197e-06 5.34661e-06)
(8.40627e-05 -8.51594e-06 9.52722e-06)
(7.64886e-05 -4.79217e-06 9.33051e-06)
(7.15725e-05 -6.09366e-06 8.16965e-06)
(7.81719e-05 -8.33684e-06 8.63913e-06)
(7.22524e-05 -8.45966e-06 7.33774e-06)
(6.81841e-05 -7.69719e-06 7.14779e-06)
(7.32015e-05 -6.49797e-06 6.56622e-06)
(8.05462e-05 -5.85333e-06 9.01532e-06)
(7.61638e-05 -6.18911e-07 7.52522e-06)
(7.36415e-05 -3.19682e-06 8.351e-06)
(8.35135e-05 -3.31823e-06 7.83922e-06)
(7.27962e-05 -6.9233e-06 7.28992e-06)
(7.46437e-05 -2.9495e-06 7.41107e-06)
(7.46414e-05 -9.33157e-06 1.06181e-07)
(7.59534e-05 -1.08644e-05 7.14734e-07)
(8.47996e-05 -1.46387e-05 -1.80485e-06)
(7.45598e-05 -1.25014e-05 -1.2019e-06)
(8.38279e-05 -1.15326e-05 7.27077e-07)
(7.49833e-05 -1.0694e-05 3.22432e-07)
(7.40959e-05 -1.04003e-05 -1.37593e-06)
(6.59811e-05 -9.65395e-06 6.16728e-06)
(7.7981e-05 -4.51922e-06 9.63781e-06)
(8.55306e-05 -8.71121e-06 1.02436e-05)
(7.31276e-05 -5.69867e-06 8.49635e-06)
(8.02458e-05 -8.3419e-06 9.36909e-06)
(6.99444e-05 -7.22673e-06 7.47024e-06)
(7.47792e-05 -8.17243e-06 8.10132e-06)
(7.5586e-05 -6.2327e-06 7.34245e-06)
(7.78402e-05 -4.61636e-07 7.68261e-06)
(8.31601e-05 -5.80999e-06 9.7274e-06)
(7.5044e-05 -2.96824e-06 8.57789e-06)
(8.87486e-05 -3.20209e-06 8.3409e-06)
(7.63134e-05 -2.74561e-06 7.64645e-06)
(7.5345e-05 -6.59746e-06 8.02157e-06)
(7.64692e-05 -9.39627e-06 6.39045e-07)
(7.73214e-05 -1.08578e-05 7.33441e-07)
(9.057e-05 -1.4654e-05 -1.54939e-06)
(7.58323e-05 -1.25319e-05 -1.07465e-06)
(9.02852e-05 -1.1509e-05 1.01942e-06)
(7.65533e-05 -1.07209e-05 4.35364e-07)
(7.53402e-05 -1.06225e-05 -8.43868e-07)
(6.81902e-05 -1.46837e-05 -1.903e-06)
(7.05611e-05 -1.50493e-05 -1.9784e-06)
(7.991e-05 -1.57153e-05 -2.25866e-06)
(7.7549e-05 -1.56346e-05 -2.19395e-06)
(8.42234e-05 -1.53554e-05 -2.54971e-06)
(8.99557e-05 -1.55675e-05 -2.32882e-06)
(9.27596e-05 -5.9955e-06 1.17429e-05)
(0.00011241 -3.94985e-06 1.49659e-05)
(7.52026e-05 6.24982e-07 1.05465e-05)
(9.15347e-05 -4.79747e-06 1.19366e-05)
(0.000115163 -4.41294e-06 1.50463e-05)
(7.71369e-05 7.65981e-07 1.05939e-05)
(8.67822e-05 -4.14911e-06 1.17843e-05)
(0.000109967 -3.26722e-06 1.49415e-05)
(7.37911e-05 1.21243e-06 1.05768e-05)
(9.00092e-05 -4.2044e-06 1.19877e-05)
(0.000107321 -2.51943e-06 1.49103e-05)
(7.20871e-05 1.85386e-06 1.05846e-05)
(6.60146e-05 -1.54916e-05 -2.40705e-06)
(6.36019e-05 -1.52423e-05 -2.49662e-06)
(6.68199e-05 -1.55559e-05 -2.38013e-06)
(6.92536e-05 -1.56947e-05 -2.3085e-06)
(5.69742e-05 -7.72534e-06 8.78938e-07)
(5.9585e-05 -4.58406e-06 3.18032e-06)
(5.71404e-05 -4.06967e-06 3.11336e-06)
(5.94139e-05 -8.2308e-06 9.59779e-07)
(5.77647e-05 4.76473e-07 6.11048e-06)
(5.9695e-05 -3.41423e-06 3.92595e-06)
(5.72485e-05 -2.89659e-06 3.86508e-06)
(6.02169e-05 -5.55412e-08 6.1484e-06)
(6.52452e-05 -7.67351e-06 1.94923e-06)
(6.76038e-05 -4.57207e-06 4.14596e-06)
(6.51866e-05 -4.05707e-06 4.2091e-06)
(6.76626e-05 -8.17757e-06 1.88606e-06)
(6.47518e-05 4.27805e-07 7.12594e-06)
(6.75389e-05 -3.41736e-06 4.89217e-06)
(6.51213e-05 -2.89808e-06 4.95533e-06)
(6.71719e-05 -1.09125e-07 7.06186e-06)
(7.00793e-05 -6.07366e-07 7.11845e-06)
(7.66947e-05 -1.2092e-06 9.84604e-06)
(7.96145e-05 -1.61279e-06 9.94302e-06)
(6.7693e-05 -3.11567e-07 7.02049e-06)
(7.06436e-05 -1.63872e-06 6.49838e-06)
(7.2521e-05 -4.96354e-06 4.39863e-06)
(7.01263e-05 -4.85672e-06 4.31403e-06)
(7.30172e-05 -1.77486e-06 6.58482e-06)
(6.98403e-05 -1.56237e-06 6.46606e-06)
(6.6927e-05 -4.56185e-06 4.18291e-06)
(6.74527e-05 -1.27738e-06 6.36486e-06)
(6.93207e-05 -4.79551e-06 4.28175e-06)
(6.26411e-05 -8.78942e-06 1.08165e-06)
(6.03956e-05 -4.7413e-06 3.20564e-06)
(6.02233e-05 -8.38301e-06 9.89593e-07)
(6.28149e-05 -5.16831e-06 3.28913e-06)
(6.34351e-05 -1.01525e-05 3.82234e-07)
(6.5946e-05 -1.42442e-05 -1.70614e-06)
(6.35352e-05 -1.39802e-05 -1.79611e-06)
(6.58409e-05 -1.04492e-05 4.74468e-07)
(6.34438e-05 -8.90758e-06 1.11331e-06)
(6.60182e-05 -5.6203e-06 3.41286e-06)
(6.36176e-05 -5.29433e-06 3.3188e-06)
(6.58476e-05 -9.21339e-06 1.20587e-06)
(6.44971e-05 1.72082e-07 6.91303e-06)
(7.59728e-05 -9.38995e-07 9.83333e-06)
(7.32017e-05 -2.19622e-07 9.7985e-06)
(6.68966e-05 -2.00794e-07 6.99053e-06)
(6.34528e-05 -6.72627e-07 6.22645e-06)
(6.05062e-05 -3.57363e-06 3.94966e-06)
(6.10293e-05 -2.20711e-07 6.16511e-06)
(6.29263e-05 -4.00737e-06 4.02875e-06)
(6.42561e-05 -8.09598e-07 6.25007e-06)
(6.61293e-05 -4.46856e-06 4.15033e-06)
(6.66561e-05 -1.17144e-06 6.33365e-06)
(6.37292e-05 -4.1358e-06 4.05759e-06)
(6.98656e-05 -9.56044e-06 1.34991e-06)
(7.24151e-05 -6.09595e-06 3.65067e-06)
(7.00185e-05 -5.99239e-06 3.57279e-06)
(7.22698e-05 -9.67648e-06 1.4046e-06)
(6.90537e-05 -1.07311e-05 5.87059e-07)
(6.67505e-05 -1.43144e-05 -1.67861e-06)
(6.91803e-05 -1.44755e-05 -1.60529e-06)
(6.66418e-05 -1.05313e-05 5.03975e-07)
(6.90544e-05 -9.50669e-06 1.32299e-06)
(6.68159e-05 -5.71094e-06 3.44511e-06)
(6.92121e-05 -5.93549e-06 3.54183e-06)
(6.66475e-05 -9.29867e-06 1.23659e-06)
(9.52184e-05 -7.11727e-06 1.25838e-05)
(7.7164e-05 6.18128e-07 1.08856e-05)
(0.000116657 -5.53399e-06 1.59447e-05)
(7.91946e-05 7.60522e-07 1.0901e-05)
(9.42406e-05 -5.81108e-06 1.27941e-05)
(0.000119454 -6.03409e-06 1.59541e-05)
(8.95609e-05 -5.04035e-06 1.27614e-05)
(7.57918e-05 1.18179e-06 1.0927e-05)
(0.000114278 -4.77612e-06 1.59792e-05)
(7.41629e-05 1.86671e-06 1.09514e-05)
(9.28297e-05 -5.14308e-06 1.2877e-05)
(0.000111712 -3.94913e-06 1.60019e-05)
(7.64035e-05 -6.52855e-07 7.48685e-06)
(8.08051e-05 -1.60522e-06 1.04756e-05)
(8.37296e-05 -1.98017e-06 1.04699e-05)
(7.407e-05 -4.1097e-07 7.52356e-06)
(7.73653e-05 -1.6551e-06 6.83522e-06)
(8.00985e-05 -5.00496e-06 4.60771e-06)
(7.77277e-05 -4.90121e-06 4.63698e-06)
(7.97032e-05 -1.72849e-06 6.83217e-06)
(7.65789e-05 -1.60246e-06 6.84471e-06)
(7.46046e-05 -4.59405e-06 4.70265e-06)
(7.42484e-05 -1.36254e-06 6.88406e-06)
(7.69397e-05 -4.84089e-06 4.65235e-06)
(7.08266e-05 -8.73576e-06 1.79326e-06)
(6.84009e-05 -4.73012e-06 4.12389e-06)
(6.84593e-05 -8.32968e-06 1.8631e-06)
(7.07692e-05 -5.16007e-06 4.05711e-06)
(7.15879e-05 -1.00874e-05 1.01084e-06)
(7.37546e-05 -1.41532e-05 -1.34569e-06)
(7.39198e-05 -1.03842e-05 9.42338e-07)
(7.14259e-05 -1.38906e-05 -1.27142e-06)
(7.16091e-05 -8.85438e-06 1.76979e-06)
(7.38906e-05 -5.6242e-06 3.97229e-06)
(7.15526e-05 -5.28793e-06 4.03521e-06)
(7.39428e-05 -9.16143e-06 1.70327e-06)
(7.09504e-05 8.67691e-08 7.59241e-06)
(8.01544e-05 -1.32593e-06 1.0487e-05)
(7.7499e-05 -5.59463e-07 1.05449e-05)
(7.32933e-05 -3.00986e-07 7.53862e-06)
(7.03455e-05 -7.34698e-07 6.97588e-06)
(6.83361e-05 -3.57787e-06 4.87017e-06)
(6.79709e-05 -2.75853e-07 7.03999e-06)
(7.07056e-05 -4.01574e-06 4.80424e-06)
(7.11309e-05 -8.75107e-07 6.95607e-06)
(7.38282e-05 -4.49327e-06 4.72135e-06)
(7.34719e-05 -1.25399e-06 6.90011e-06)
(7.14891e-05 -4.14671e-06 4.78278e-06)
(7.78442e-05 -9.52236e-06 1.60304e-06)
(8.01702e-05 -6.14094e-06 3.8441e-06)
(7.77924e-05 -6.02633e-06 3.88273e-06)
(8.02286e-05 -9.65221e-06 1.5511e-06)
(7.70283e-05 -1.0673e-05 8.58724e-07)
(7.45268e-05 -1.42228e-05 -1.3697e-06)
(7.46944e-05 -1.04672e-05 9.2073e-07)
(7.68492e-05 -1.43851e-05 -1.43686e-06)
(7.70539e-05 -9.46555e-06 1.62205e-06)
(7.46673e-05 -5.72161e-06 3.95291e-06)
(7.70034e-05 -5.96509e-06 3.89928e-06)
(7.47179e-05 -9.2487e-06 1.68205e-06)
(7.3844e-05 -6.06032e-06 5.52059e-06)
(7.61354e-05 -1.70476e-06 6.76518e-06)
(8.35906e-05 -6.2474e-06 4.79929e-06)
(7.47811e-05 -5.35257e-06 4.64282e-06)
(8.4956e-05 -3.72931e-06 7.30851e-06)
(7.44419e-05 -6.3097e-06 4.21821e-06)
(7.48335e-05 -3.86485e-06 6.12856e-06)
(7.47083e-05 -8.44453e-06 1.50152e-06)
(7.59692e-05 -9.64991e-06 1.4717e-06)
(8.32344e-05 -7.1832e-06 4.0248e-06)
(7.48631e-05 -6.96445e-06 3.21242e-06)
(8.35275e-05 -1.05305e-05 1.54108e-06)
(7.45922e-05 -7.2953e-06 2.97014e-06)
(7.50634e-05 -8.85901e-06 1.74078e-06)
(7.63628e-05 -5.84977e-06 6.20805e-06)
(7.74043e-05 -1.68026e-06 6.81331e-06)
(8.978e-05 -6.22648e-06 5.20419e-06)
(7.63039e-05 -5.2822e-06 4.82576e-06)
(9.07982e-05 -3.64851e-06 7.7603e-06)
(7.65562e-05 -3.73429e-06 6.315e-06)
(7.70161e-05 -6.17255e-06 4.84749e-06)
(7.73871e-05 -8.44589e-06 2.02411e-06)
(7.7334e-05 -9.64701e-06 1.49453e-06)
(9.00138e-05 -7.17703e-06 4.39169e-06)
(7.66358e-05 -6.95444e-06 3.37309e-06)
(9.03877e-05 -1.04986e-05 1.83353e-06)
(7.68778e-05 -8.86344e-06 1.86451e-06)
(7.77604e-05 -7.22997e-06 3.51185e-06)
(7.36716e-05 -1.53989e-05 -2.08028e-06)
(7.13435e-05 -1.515e-05 -2.00408e-06)
(7.4443e-05 -1.54625e-05 -2.10492e-06)
(7.67625e-05 -1.56027e-05 -2.17375e-06)
(4.07219e-05 -1.39137e-05 -6.33279e-06)
(1.18084e-05 -5.36363e-06 -2.33201e-05)
(2.80833e-05 -9.08527e-06 -1.43999e-05)
(5.76552e-05 -8.89273e-06 -1.96521e-05)
(6.96818e-05 -1.51839e-05 -1.36826e-05)
(6.01356e-05 -6.10812e-06 -2.3161e-05)
(7.40095e-05 -1.1772e-05 -1.86659e-05)
(6.43255e-05 -1.60024e-05 1.37059e-07)
(6.17244e-05 -1.41927e-05 1.76349e-06)
(6.33191e-05 -1.03499e-05 2.64898e-06)
(6.85836e-05 -1.11318e-05 2.3762e-06)
(6.64977e-05 -1.56819e-05 2.55094e-08)
(6.35739e-05 -1.39052e-05 1.67805e-06)
(6.69128e-05 -1.71873e-05 -4.90733e-07)
(6.50341e-05 -1.36295e-05 1.55336e-06)
(6.53144e-05 -1.00192e-05 2.49335e-06)
(6.83967e-05 -1.53915e-05 -8.59981e-08)
(4.5309e-05 -1.41812e-05 3.94359e-07)
(4.24603e-05 -1.47769e-05 -3.66222e-06)
(3.18221e-05 -1.41251e-05 -4.26812e-06)
(8.9024e-05 5.4532e-07 1.18374e-05)
(7.49262e-05 3.09401e-06 1.01215e-05)
(7.56161e-05 3.75601e-06 1.05515e-05)
(7.43086e-05 3.10898e-06 9.96003e-06)
(7.50648e-05 3.7621e-06 1.03998e-05)
(8.95606e-05 -8.12427e-07 1.1774e-05)
(7.57383e-05 2.99607e-06 1.15532e-05)
(6.33766e-05 4.85764e-06 9.8291e-06)
(6.43241e-05 5.48213e-06 1.0385e-05)
(7.47677e-05 3.30725e-06 1.15655e-05)
(6.41864e-05 4.68747e-06 9.82639e-06)
(6.5133e-05 5.30806e-06 1.03756e-05)
(5.01408e-05 -1.42732e-05 3.87556e-07)
(5.76121e-05 -1.57593e-05 -1.11732e-06)
(5.11815e-05 -1.43041e-05 -2.3647e-07)
(3.4892e-05 -1.47942e-05 -5.13504e-06)
(4.41785e-05 -1.50879e-05 -3.81283e-06)
(3.50101e-05 -1.43184e-05 -4.45766e-06)
(4.34563e-05 -1.45519e-05 -4.18076e-06)
(5.16127e-05 -1.43125e-05 -2.00489e-06)
(3.89344e-05 -1.46727e-05 -4.9693e-06)
(4.62905e-05 -1.44342e-05 -2.00235e-06)
(3.26897e-05 -1.42334e-05 -6.51828e-06)
(3.59774e-05 -1.36823e-05 -6.7311e-06)
(4.05432e-05 -1.37594e-05 -5.1001e-06)
(3.02293e-05 -1.36161e-05 -8.64602e-06)
(7.27526e-05 3.67669e-06 1.1561e-05)
(6.25638e-05 5.03382e-06 9.83366e-06)
(6.35137e-05 5.6605e-06 1.03957e-05)
(7.3858e-05 3.53915e-06 1.15735e-05)
(6.17509e-05 5.21516e-06 9.84017e-06)
(6.27019e-05 5.84206e-06 1.04083e-05)
(7.59096e-05 3.25962e-06 1.22069e-05)
(6.42757e-05 5.62419e-06 1.0493e-05)
(6.5163e-05 4.9538e-06 1.01866e-05)
(6.34651e-05 5.80659e-06 1.05092e-05)
(6.43547e-05 5.13727e-06 1.02058e-05)
(7.70941e-05 3.13252e-06 1.22133e-05)
(5.84209e-05 -1.12011e-05 3.1818e-06)
(5.99243e-05 -5.7214e-06 6.57412e-06)
(6.18035e-05 -5.24393e-06 4.79186e-06)
(9.18026e-05 2.12195e-07 1.22077e-05)
(7.63291e-05 3.75524e-06 1.05682e-05)
(7.73916e-05 3.18356e-06 1.02255e-05)
(7.57867e-05 3.76437e-06 1.0427e-05)
(7.67662e-05 3.15682e-06 1.00712e-05)
(9.15354e-05 -9.70184e-07 1.20839e-05)
(7.91047e-05 2.67886e-06 1.21934e-05)
(6.50843e-05 5.44558e-06 1.04783e-05)
(6.59699e-05 4.77655e-06 1.01682e-05)
(6.58908e-05 5.27166e-06 1.04646e-05)
(7.8135e-05 2.99646e-06 1.22125e-05)
(6.67722e-05 4.60612e-06 1.01508e-05)
(6.72338e-05 -6.17876e-06 4.59394e-06)
(6.09054e-05 -1.0928e-05 3.13132e-06)
(6.42164e-05 -5.50994e-06 6.69463e-06)
(5.82358e-05 -1.2128e-05 3.73768e-06)
(6.30994e-05 -1.09764e-05 3.01782e-06)
(6.4314e-05 -5.33887e-06 4.67851e-06)
(6.78296e-05 -5.91996e-06 6.68712e-06)
(6.99296e-05 -1.07813e-05 2.24977e-06)
(6.70672e-05 -1.62271e-05 -4.88529e-07)
(7.03593e-05 -1.37584e-05 -6.67722e-08)
(6.45611e-05 -1.31723e-05 1.24522e-06)
(6.57179e-05 -1.31659e-05 1.40875e-06)
(7.04905e-05 -1.01462e-05 2.18169e-06)
(6.96971e-05 -1.45139e-05 -1.10933e-07)
(6.93823e-05 -6.60807e-06 4.42106e-06)
(6.92724e-05 -8.36414e-06 5.85386e-06)
(5.9818e-05 -1.21088e-05 3.48564e-06)
(6.2897e-05 -1.17746e-05 2.36761e-06)
(6.42318e-05 -1.09337e-05 2.80126e-06)
(7.00209e-05 -6.48063e-06 6.4901e-06)
(7.02306e-05 -7.27888e-06 4.17129e-06)
(7.36932e-05 -5.71835e-06 8.51373e-06)
(8.98823e-05 6.08302e-07 1.171e-05)
(8.50247e-05 1.55972e-07 1.13563e-05)
(7.57125e-05 -1.17207e-06 9.73871e-06)
(8.53442e-05 -3.15734e-06 1.07828e-05)
(7.92321e-05 -2.85998e-06 9.64221e-06)
(7.70349e-05 -3.2e-06 9.65509e-06)
(7.58852e-05 -1.34952e-06 8.73652e-06)
(7.51359e-05 2.33995e-06 9.71687e-06)
(7.63057e-05 1.48397e-06 9.08283e-06)