/*--------------------------------*- C++ -*----------------------------------*\
| =========                 |                                                 |
| \\      /  F ield         | OpenFOAM: The Open Source CFD Toolbox           |
|  \\    /   O peration     | Version:  2012                                  |
|   \\  /    A nd           | Website:  www.openfoam.com                      |
|    \\/     M anipulation  |                                                 |
\*---------------------------------------------------------------------------*/
FoamFile
{
    version     2.0;
    format      ascii;
    class       surfaceScalarField;
    location    "0.105/fluid";
    object      meshPhi;
}
// * * * * * * * * * * * * * * * * * * * * * * * * * * * * * * * * * * * * * //

dimensions      [0 3 -1 0 0 0 0];
oriented        oriented;


internalField   nonuniform List<scalar> 
47046
(
3.56901e-08
-1.32196e-06
-3.58728e-08
-6.46025e-09
2.64026e-07
5.00835e-06
-6.14556e-06
-2.62789e-07
-5.41833e-08
3.67402e-07
9.28013e-06
-1.02312e-05
-3.57543e-07
-9.73397e-08
3.60475e-07
1.28171e-05
-1.35882e-05
-3.43531e-07
-1.3949e-07
2.46054e-07
1.56549e-05
-1.62648e-05
-2.26845e-07
-1.87136e-07
7.72474e-09
1.78909e-05
-1.83659e-05
1.60006e-08
-2.53683e-07
-3.82567e-07
1.96303e-05
-2.00019e-05
4.11504e-07
-3.55196e-07
-9.47645e-07
2.10094e-05
-2.13045e-05
9.76227e-07
-5.12002e-07
-1.64523e-06
2.20806e-05
-2.22975e-05
1.66315e-06
-7.25895e-07
-2.41902e-06
2.28782e-05
-2.30578e-05
2.42383e-06
-1.00055e-06
-3.28245e-06
2.36568e-05
-2.38914e-05
3.28481e-06
-1.35957e-06
1.83195e-06
-4.24114e-06
2.48307e-05
-2.52528e-05
4.25039e-06
-1.83186e-06
2.50884e-06
-5.31487e-06
2.70338e-05
-2.78366e-05
5.2963e-06
-2.47337e-06
-6.61689e-06
3.41858e-06
3.09671e-05
-3.22359e-05
-3.31582e-06
6.45231e-06
-7.79792e-06
4.01393e-06
3.61909e-05
-3.72564e-05
-3.87601e-06
7.29062e-06
3.43502e-08
-1.48391e-06
-3.23062e-08
-7.34652e-09
2.35731e-07
5.68449e-06
-7.00946e-06
-2.13086e-07
-6.58428e-08
2.88065e-07
1.06848e-05
-1.17964e-05
-2.52584e-07
-1.25961e-07
2.60908e-07
1.48146e-05
-1.57147e-05
-2.26883e-07
-1.84233e-07
1.54278e-07
1.81334e-05
-1.88495e-05
-1.28931e-07
-2.47684e-07
-7.6089e-08
2.0771e-05
-2.13311e-05
8.82311e-08
-3.30613e-07
-4.41772e-07
2.28035e-05
-2.32327e-05
4.28358e-07
-4.46402e-07
-9.57783e-07
2.43699e-05
-2.46884e-05
9.11096e-07
-6.12757e-07
-1.57878e-06
2.54833e-05
-2.56919e-05
1.49723e-06
-8.25575e-07
-2.26431e-06
2.62067e-05
-2.63452e-05
2.14451e-06
-1.08345e-06
1.37715e-06
-3.04903e-06
2.67443e-05
-2.68855e-05
2.88137e-06
-1.39223e-06
1.73634e-06
-3.93568e-06
2.74226e-05
-2.7653e-05
3.71237e-06
-1.74278e-06
2.10504e-06
-4.84647e-06
2.8571e-05
-2.89586e-05
4.56056e-06
-2.08966e-06
2.29226e-06
-5.63276e-06
3.03478e-05
-3.08547e-05
5.25334e-06
-2.24386e-06
-5.87998e-06
1.62603e-06
3.22544e-05
-3.25824e-05
-1.56421e-06
5.41286e-06
1.82069e-08
-1.61264e-06
-1.29427e-08
-8.66257e-09
1.13465e-07
6.16524e-06
-7.58653e-06
-8.16723e-08
-7.61045e-08
1.35382e-07
1.15118e-05
-1.27012e-05
-1.00135e-07
-1.41494e-07
1.28456e-07
1.59576e-05
-1.69422e-05
-9.81957e-08
-2.08363e-07
6.94577e-08
1.96182e-05
-2.04143e-05
-5.48961e-08
-2.85522e-07
-7.84076e-08
2.25289e-05
-2.31346e-05
5.8796e-08
-3.79079e-07
-3.06883e-07
2.47151e-05
-2.51712e-05
2.39344e-07
-4.98947e-07
-6.43355e-07
2.63461e-05
-2.66633e-05
5.08559e-07
-6.61239e-07
-1.06343e-06
2.74402e-05
-2.76428e-05
8.46033e-07
-8.62804e-07
1.0822e-06
-1.52833e-06
2.81221e-05
-2.82424e-05
1.22001e-06
-1.09884e-06
1.33522e-06
-2.04417e-06
2.85553e-05
-2.86512e-05
1.63263e-06
-1.35212e-06
1.57304e-06
-2.63104e-06
2.89606e-05
-2.90722e-05
2.10581e-06
-1.58482e-06
1.70858e-06
-3.22698e-06
2.94568e-05
-2.95976e-05
2.58936e-06
-1.70881e-06
1.56954e-06
-3.67344e-06
3.00363e-05
-3.01676e-05
2.95057e-06
-1.55551e-06
8.97087e-07
-3.72854e-06
3.04185e-05
-3.04201e-05
2.99586e-06
-8.77944e-07
7.17234e-09
1.75294e-08
-1.39677e-06
-1.74868e-08
-7.19506e-09
5.89231e-08
1.30047e-07
5.25726e-06
-6.43152e-06
-1.28469e-07
-5.8714e-08
1.03124e-07
1.65004e-07
9.63725e-06
-1.06019e-05
-1.59287e-07
-1.0223e-07
1.47616e-07
1.24596e-07
1.32057e-05
-1.39758e-05
-1.13911e-07
-1.46115e-07
1.98056e-07
1.25478e-08
1.60168e-05
-1.66113e-05
1.80364e-09
-1.962e-07
2.66063e-07
-1.84835e-07
1.81837e-05
-1.86405e-05
2.04681e-07
-2.63106e-07
3.65255e-07
-5.03833e-07
1.98484e-05
-2.02017e-05
5.27239e-07
-3.59478e-07
5.12828e-07
-9.70197e-07
2.11583e-05
-2.14436e-05
9.85232e-07
-5.01097e-07
7.15688e-07
-1.57152e-06
2.22362e-05
-2.2482e-05
1.57114e-06
-6.96234e-07
9.75755e-07
-2.27237e-06
2.32247e-05
-2.34846e-05
2.26697e-06
-9.45032e-07
1.29762e-06
-3.09795e-06
2.4394e-05
-2.4755e-05
3.09687e-06
-1.24688e-06
1.6919e-06
-4.03932e-06
2.61294e-05
-2.67092e-05
4.03906e-06
-1.60668e-06
2.16623e-06
-5.04658e-06
2.89734e-05
-2.9934e-05
5.0234e-06
-2.016e-06
2.66149e-06
-6.14372e-06
3.3485e-05
-3.48505e-05
6.02741e-06
-2.37983e-06
2.5556e-06
-6.94136e-06
3.89139e-05
-3.99869e-05
6.63443e-06
-2.05539e-06
8.48838e-09
1.57963e-08
-1.57552e-06
-1.43638e-08
-8.60972e-09
7.24091e-08
1.07398e-07
5.9706e-06
-7.32167e-06
-9.40262e-08
-7.24578e-08
1.30352e-07
1.23854e-07
1.10178e-05
-1.21275e-05
-1.08227e-07
-1.28665e-07
1.88142e-07
7.77591e-08
1.51464e-05
-1.60513e-05
-6.82603e-08
-1.85084e-07
2.5306e-07
-3.40231e-08
1.8463e-05
-1.91672e-05
3.84865e-08
-2.48984e-07
3.3641e-07
-2.33009e-07
2.10374e-05
-2.15811e-05
2.27494e-07
-3.30235e-07
4.47979e-07
-5.21966e-07
2.29854e-05
-2.33872e-05
4.8592e-07
-4.37839e-07
6.0533e-07
-9.15853e-07
2.44934e-05
-2.48034e-05
8.5506e-07
-5.8832e-07
8.08037e-07
-1.42471e-06
2.55954e-05
-2.58324e-05
1.33295e-06
-7.83727e-07
1.05637e-06
-2.06329e-06
2.65184e-05
-2.67415e-05
1.93818e-06
-1.02382e-06
1.34106e-06
-2.84306e-06
2.74576e-05
-2.77211e-05
2.67674e-06
-1.29427e-06
1.63925e-06
-3.72228e-06
2.86673e-05
-2.90464e-05
3.50916e-06
-1.56937e-06
1.89183e-06
-4.5864e-06
3.04381e-05
-3.09884e-05
4.31615e-06
-1.78674e-06
1.91966e-06
-5.30647e-06
3.28545e-05
-3.35036e-05
4.95327e-06
-1.7721e-06
-5.53394e-06
1.21729e-06
3.52226e-05
-3.56148e-05
-1.07631e-06
5.11183e-06
9.44479e-09
7.65048e-09
-1.68297e-06
-5.56631e-09
-9.45195e-09
8.12e-08
4.68574e-08
6.3909e-06
-7.8407e-06
-3.44841e-08
-8.06871e-08
1.45393e-07
6.31082e-08
1.18065e-05
-1.29858e-05
-4.96717e-08
-1.43484e-07
2.10856e-07
5.38843e-08
1.62412e-05
-1.72453e-05
-4.64774e-08
-2.07724e-07
2.87533e-07
-2.16406e-08
1.99329e-05
-2.07151e-05
1.0324e-08
-2.82345e-07
3.76925e-07
-1.43942e-07
2.27698e-05
-2.33545e-05
1.03126e-07
-3.67971e-07
4.907e-07
-3.0492e-07
2.48575e-05
-2.52952e-05
2.33634e-07
-4.77436e-07
6.49126e-07
-5.6888e-07
2.64844e-05
-2.68079e-05
4.42388e-07
-6.29905e-07
8.45464e-07
-9.16709e-07
2.7612e-05
-2.78427e-05
7.2366e-07
-8.20251e-07
1.07447e-06
-1.35515e-06
2.84782e-05
-2.86717e-05
1.07578e-06
-1.04221e-06
1.31161e-06
-1.88335e-06
2.92456e-05
-2.94378e-05
1.49996e-06
-1.2691e-06
1.51246e-06
-2.48643e-06
3.00639e-05
-3.02905e-05
1.98873e-06
-1.45595e-06
1.59306e-06
-3.0623e-06
3.10423e-05
-3.13083e-05
2.45875e-06
-1.52176e-06
1.40634e-06
-3.46784e-06
3.2105e-05
-3.23412e-05
2.78446e-06
-1.32931e-06
7.60897e-07
-3.51548e-06
3.28249e-05
-3.28694e-05
2.81686e-06
-7.09436e-07
6.49102e-09
5.78e-09
-1.43595e-06
-5.80297e-09
-6.01523e-09
5.26354e-08
3.95419e-08
5.39236e-06
-6.58824e-06
-3.90692e-08
-4.88036e-08
9.09963e-08
2.70599e-08
9.83253e-06
-1.08033e-05
-2.40934e-08
-8.4329e-08
1.29574e-07
-4.48849e-08
1.3411e-05
-1.41801e-05
5.19838e-08
-1.19936e-07
1.73901e-07
-1.76242e-07
1.62165e-05
-1.68078e-05
1.87227e-07
-1.60617e-07
2.31967e-07
-3.76131e-07
1.83601e-05
-1.88058e-05
3.93335e-07
-2.13874e-07
3.12716e-07
-6.4824e-07
1.99559e-05
-2.02819e-05
6.75568e-07
-2.87031e-07
4.2911e-07
-1.02707e-06
2.11571e-05
-2.14229e-05
1.04522e-06
-3.92194e-07
5.89373e-07
-1.54241e-06
2.21612e-05
-2.23879e-05
1.5412e-06
-5.37435e-07
7.92047e-07
-2.09436e-06
2.3082e-05
-2.33284e-05
2.09748e-06
-7.22316e-07
1.02286e-06
-2.74196e-06
2.41836e-05
-2.45174e-05
2.76856e-06
-9.2797e-07
1.27314e-06
-3.47464e-06
2.57376e-05
-2.62294e-05
3.51364e-06
-1.14318e-06
1.50337e-06
-4.21505e-06
2.80226e-05
-2.87285e-05
4.24518e-06
-1.32547e-06
1.56582e-06
-4.86675e-06
3.1091e-05
-3.19052e-05
4.85932e-06
-1.32994e-06
9.85507e-07
-5.10921e-06
3.40347e-05
-3.45231e-05
5.05659e-06
-7.65891e-07
7.86957e-09
5.28e-09
-1.61972e-06
-4.81777e-09
-7.30806e-09
6.53857e-08
3.13767e-08
6.11079e-06
-7.47945e-06
-2.7044e-08
-6.06974e-08
1.15059e-07
1.22068e-08
1.12108e-05
-1.23306e-05
-9.07379e-09
-1.06928e-07
1.63869e-07
-5.69167e-08
1.53553e-05
-1.62565e-05
5.0792e-08
-1.51806e-07
2.18166e-07
-1.83613e-07
1.86702e-05
-1.93755e-05
1.68402e-07
-2.01107e-07
2.85948e-07
-3.77006e-07
2.12298e-05
-2.17618e-05
3.46316e-07
-2.62614e-07
3.75343e-07
-6.37259e-07
2.31343e-05
-2.35184e-05
5.83828e-07
-3.43369e-07
4.96373e-07
-9.60168e-07
2.45028e-05
-2.47789e-05
8.85366e-07
-4.52568e-07
6.59474e-07
-1.38022e-06
2.55261e-05
-2.57595e-05
1.28251e-06
-6.01436e-07
8.6091e-07
-1.91691e-06
2.64664e-05
-2.67067e-05
1.79455e-06
-7.85577e-07
1.07815e-06
-2.57542e-06
2.74852e-05
-2.77663e-05
2.42385e-06
-9.82544e-07
1.27906e-06
-3.29673e-06
2.87201e-05
-2.90793e-05
3.11465e-06
-1.15887e-06
1.40053e-06
-3.96077e-06
3.03049e-05
-3.07561e-05
3.73959e-06
-1.25501e-06
1.297e-06
-4.43832e-06
3.21639e-05
-3.26117e-05
4.16868e-06
-1.13964e-06
6.93665e-07
-4.51618e-06
3.36676e-05
-3.38589e-05
4.21622e-06
-5.8893e-07
8.47302e-09
2.87845e-09
-1.71627e-06
-2.27338e-09
-7.85323e-09
7.19728e-08
1.45762e-08
6.50189e-06
-7.97103e-06
-1.16302e-08
-6.66179e-08
1.28738e-07
6.9328e-09
1.19966e-05
-1.32055e-05
-7.06664e-09
-1.19545e-07
1.84583e-07
-1.90273e-08
1.64871e-05
-1.74778e-05
1.09936e-08
-1.70933e-07
2.45687e-07
-9.28427e-08
2.01423e-05
-2.09209e-05
6.54018e-08
-2.25785e-07
3.15623e-07
-2.01565e-07
2.29556e-05
-2.35335e-05
1.47047e-07
-2.89048e-07
4.05844e-07
-3.53577e-07
2.50221e-05
-2.54437e-05
2.66948e-07
-3.70594e-07
5.30173e-07
-5.68674e-07
2.65347e-05
-2.68381e-05
4.39571e-07
-4.83433e-07
6.90665e-07
-8.57362e-07
2.76335e-05
-2.78695e-05
6.69939e-07
-6.29767e-07
8.78615e-07
-1.22633e-06
2.85469e-05
-2.87635e-05
9.64436e-07
-8.02079e-07
1.06535e-06
-1.68893e-06
2.94217e-05
-2.9642e-05
1.33936e-06
-9.73033e-07
1.2065e-06
-2.20617e-06
3.03298e-05
-3.05656e-05
1.7622e-06
-1.09855e-06
1.23498e-06
-2.65335e-06
3.12998e-05
-3.15435e-05
2.12556e-06
-1.11811e-06
1.04848e-06
-2.92446e-06
3.22199e-05
-3.24007e-05
2.33964e-06
-9.42153e-07
5.42382e-07
-2.91121e-06
3.2692e-05
-3.26734e-05
2.32075e-06
-4.84244e-07
3.92348e-09
7.20094e-10
-1.4399e-06
-8.05083e-10
-3.03673e-09
3.20594e-08
-5.76133e-09
5.42017e-06
-6.62599e-06
5.94302e-09
-2.48507e-08
5.54219e-08
-5.37285e-08
9.89427e-06
-1.08697e-05
5.74361e-08
-4.29633e-08
7.8344e-08
-1.53165e-07
1.34854e-05
-1.42564e-05
1.61148e-07
-6.06345e-08
1.04493e-07
-3.09954e-07
1.63009e-05
-1.68958e-05
3.17712e-07
-8.08883e-08
1.38568e-07
-5.29425e-07
1.8451e-05
-1.8892e-05
5.40112e-07
-1.07302e-07
1.83787e-07
-7.92254e-07
2.00076e-05
-2.03142e-05
8.2195e-07
-1.4215e-07
2.47579e-07
-1.11111e-06
2.10999e-05
-2.13226e-05
1.15093e-06
-1.91314e-07
3.41523e-07
-1.49475e-06
2.19194e-05
-2.21062e-05
1.53356e-06
-2.64051e-07
4.60926e-07
-1.94203e-06
2.26929e-05
-2.29064e-05
1.98341e-06
-3.56863e-07
5.8892e-07
-2.43476e-06
2.36269e-05
-2.3896e-05
2.49022e-06
-4.56827e-07
7.11867e-07
-2.94191e-06
2.4813e-05
-2.51591e-05
3.01445e-06
-5.51669e-07
7.93697e-07
-3.41451e-06
2.63249e-05
-2.67491e-05
3.49146e-06
-6.11823e-07
7.34373e-07
-3.75326e-06
2.80372e-05
-2.84355e-05
3.81418e-06
-5.58112e-07
3.51592e-07
-3.79237e-06
2.93308e-05
-2.94797e-05
3.83189e-06
-2.58416e-07
4.80579e-09
1.10205e-09
-1.6253e-06
-1.17307e-09
-3.73279e-09
4.0072e-08
-4.61373e-09
6.13687e-06
-7.51277e-06
3.72271e-09
-3.11221e-08
7.07357e-08
-5.66501e-08
1.12692e-05
-1.23991e-05
5.18011e-08
-5.49096e-08
9.96223e-08
-1.58903e-07
1.54489e-05
-1.63535e-05
1.4692e-07
-7.71724e-08
1.3015e-07
-2.94467e-07
1.87661e-05
-1.94709e-05
2.69435e-07
-1.006e-07
1.68311e-07
-4.8687e-07
2.13226e-05
-2.18514e-05
4.41431e-07
-1.29725e-07
2.18382e-07
-7.68352e-07
2.32042e-05
-2.35758e-05
7.03566e-07
-1.68264e-07
2.86328e-07
-1.09912e-06
2.45018e-05
-2.47539e-05
1.02096e-06
-2.20874e-07
3.81908e-07
-1.45893e-06
2.54149e-05
-2.56174e-05
1.36456e-06
-2.95126e-07
5.0235e-07
-1.88743e-06
2.62424e-05
-2.64611e-05
1.77339e-06
-3.8965e-07
6.30072e-07
-2.37709e-06
2.71775e-05
-2.7433e-05
2.24362e-06
-4.90115e-07
7.3552e-07
-2.90091e-06
2.82488e-05
-2.85339e-05
2.75158e-06
-5.71845e-07
7.7915e-07
-3.34934e-06
2.94273e-05
-2.97277e-05
3.17402e-06
-6.04319e-07
6.80062e-07
-3.60857e-06
3.05679e-05
-3.08002e-05
3.40613e-06
-5.24501e-07
3.30711e-07
-3.57587e-06
3.12198e-05
-3.12311e-05
3.36148e-06
-2.53214e-07
5.15526e-09
9.84291e-10
-1.72238e-06
-8.18491e-10
-3.99942e-09
4.36402e-08
-1.56956e-09
6.52555e-06
-8.00104e-06
9.85292e-10
-3.38249e-08
7.84262e-08
-3.08832e-08
1.20561e-05
-1.32812e-05
2.29358e-08
-6.07712e-08
1.11244e-07
-8.5647e-08
1.66007e-05
-1.75901e-05
6.26017e-08
-8.59159e-08
1.44615e-07
-1.57925e-07
2.0236e-05
-2.10093e-05
1.1663e-07
-1.11345e-07
1.8357e-07
-2.62558e-07
2.30401e-05
-2.36187e-05
1.97449e-07
-1.41229e-07
2.3481e-07
-4.30535e-07
2.51044e-05
-2.55184e-05
3.27168e-07
-1.80779e-07
3.05275e-07
-6.46017e-07
2.65645e-05
-2.68469e-05
4.91987e-07
-2.35178e-07
3.96603e-07
-8.59141e-07
2.75581e-05
-2.77636e-05
6.45275e-07
-3.04462e-07
5.08836e-07
-1.13428e-06
2.84048e-05
-2.86232e-05
8.52233e-07
-3.91813e-07
6.25612e-07
-1.52839e-06
2.92823e-05
-2.94984e-05
1.19204e-06
-4.85739e-07
7.04288e-07
-1.95314e-06
3.01388e-05
-3.03424e-05
1.55664e-06
-5.48145e-07
7.09621e-07
-2.25066e-06
3.09233e-05
-3.10979e-05
1.79705e-06
-5.5212e-07
5.89564e-07
-2.38527e-06
3.1522e-05
-3.16085e-05
1.89936e-06
-4.5815e-07
3.02135e-07
-2.32097e-06
3.1622e-05
-3.15219e-05
1.84093e-06
-2.35525e-07
-4.91512e-06
3.38999e-05
7.60101e-06
-8.06321e-06
-3.47092e-05
3.99161e-08
1.50411e-06
-1.48318e-06
9.03503e-06
3.71934e-05
-8.28133e-06
-3.85291e-05
-4.78677e-06
1.52814e-06
-1.50571e-06
9.57089e-06
3.93041e-08
4.04597e-05
7.37964e-06
-2.97749e-06
3.66806e-06
-7.70557e-06
-4.19891e-05
6.32939e-06
-2.37309e-08
-6.51894e-06
4.35229e-05
2.63111e-07
-6.90936e-08
2.04579e-07
-6.72423e-08
-3.62658e-06
2.91107e-05
6.50109e-06
-6.5711e-06
-3.03231e-05
-4.66266e-06
7.45359e-06
-7.79612e-06
3.2814e-05
3.32543e-05
-3.39724e-05
7.12151e-06
-3.24685e-07
-1.64057e-06
3.45784e-05
5.9598e-06
-2.01245e-06
3.10722e-05
5.78191e-06
-6.21305e-06
-3.14175e-05
1.21829e-07
5.10238e-06
-5.40599e-06
3.17346e-05
3.09165e-05
-6.69255e-06
-3.24069e-05
-3.51404e-06
7.62265e-06
-7.98016e-06
-4.50704e-06
3.56357e-05
3.34027e-05
6.37968e-06
-2.78515e-06
3.07705e-06
-6.42873e-06
-3.50803e-05
7.22765e-06
-3.07889e-06
3.64408e-06
-7.46491e-06
3.86934e-05
-5.43252e-06
5.52221e-06
8.75001e-06
-1.01803e-05
-9.61289e-06
-9.668e-06
-1.01463e-05
3.76829e-05
8.82015e-06
-4.85376e-06
-1.06589e-05
-1.10873e-05
-1.06734e-05
-1.09761e-05
4.02273e-05
-1.66742e-06
-1.54901e-06
-1.69306e-06
3.8276e-05
-2.99695e-07
6.13717e-06
3.30563e-05
-6.33166e-06
-3.35222e-05
-1.93106e-06
5.21329e-06
-5.5378e-06
3.39765e-05
1.44387e-07
3.94819e-05
3.08e-06
-4.0725e-05
6.97562e-06
8.60038e-08
7.19117e-08
4.20105e-05
6.06933e-06
-1.45071e-06
3.60391e-05
5.71417e-06
1.63807e-06
-6.13832e-06
-3.66129e-05
2.19414e-07
5.16127e-06
-1.96629e-07
-5.48888e-06
3.71788e-05
3.95818e-05
-7.15872e-06
-4.08663e-05
-2.33162e-06
6.05544e-06
-6.19368e-06
4.22608e-05
1.52558e-07
5.53932e-06
3.52565e-05
-1.04047e-06
1.36662e-06
-5.55286e-06
-3.59541e-05
5.04538e-06
3.23997e-07
-3.1072e-07
-5.04731e-06
3.66877e-05
8.49908e-06
-9.07897e-06
-9.14666e-06
3.41926e-05
-5.61826e-06
-9.01601e-06
-9.0412e-06
3.42349e-05
-9.04982e-06
-4.71965e-06
-1.96403e-06
-2.04828e-06
-9.10864e-06
7.45431e-06
-9.04269e-07
1.85592e-06
-9.05357e-06
-1.9242e-06
-5.52903e-06
-1.00809e-05
-9.54848e-06
-1.0082e-05
-9.56201e-06
3.77632e-05
-4.67029e-06
-9.56588e-06
-2.10573e-06
-1.98898e-06
-2.07566e-06
-2.01797e-06
-9.6657e-06
-1.00528e-05
-1.0209e-05
7.67438e-06
-8.38046e-06
-4.15154e-05
-4.32541e-06
7.86211e-06
3.9596e-05
-4.90519e-06
-1.05743e-05
-1.10485e-05
-1.06136e-05
-1.0931e-05
4.03814e-05
-1.07791e-05
-4.18503e-06
-2.13682e-06
-2.14237e-06
-2.06228e-06
-2.16426e-06
-1.11315e-05
-1.04961e-05
-1.07534e-05
7.82535e-06
1.88323e-06
-9.58299e-06
-1.955e-06
-9.02276e-07
5.20383e-08
1.57247e-06
-4.38181e-08
-1.56517e-06
1.08695e-05
-8.0576e-07
1.94977e-06
-2.04204e-06
8.6949e-07
-1.08583e-05
-9.7559e-07
1.46884e-07
1.70299e-07
7.72818e-07
-1.67569e-07
4.02163e-06
-4.25069e-05
7.80234e-06
-3.20487e-06
4.05507e-05
8.39746e-06
-1.09052e-05
-1.11432e-05
-1.10372e-05
-1.10215e-05
4.10799e-05
-4.39916e-05
7.89565e-06
1.03458e-06
1.13532e-06
1.03617e-06
1.10414e-06
-2.88194e-06
1.5198e-07
-2.49319e-07
-7.95782e-07
-1.84906e-07
4.49159e-05
6.64839e-06
2.89009e-07
-1.11622e-07
3.26649e-07
-9.04445e-08
-7.75429e-08
8.88957e-08
6.88681e-07
-8.53463e-08
2.36136e-08
7.568e-06
6.61482e-07
1.04313e-06
9.08692e-07
7.49188e-07
-1.90684e-06
-9.27448e-07
8.26388e-07
3.75824e-07
-1.81163e-07
-8.18254e-06
-4.25103e-05
4.06243e-05
7.71588e-06
4.07158e-06
-4.27636e-05
4.09378e-05
-3.24868e-06
3.40993e-06
-7.78614e-06
-4.30679e-05
7.3517e-06
-2.56863e-06
-1.09423e-05
-1.11348e-05
-1.10359e-05
-1.10292e-05
4.13438e-05
-1.08934e-05
-2.08595e-06
-2.1723e-06
-2.14671e-06
-2.09499e-06
-1.11455e-05
-1.08626e-05
-1.10773e-05
7.74398e-06
-4.41317e-05
1.04951e-06
1.14999e-06
1.11694e-06
1.05534e-06
-2.92521e-06
-7.93165e-07
1.18639e-07
-2.04757e-07
1.57321e-06
6.35652e-08
-1.5725e-06
1.09809e-05
4.49273e-05
3.18519e-07
-8.40819e-08
3.6112e-07
-7.23204e-08
-1.07026e-07
-7.47459e-06
7.0319e-06
5.8034e-07
6.53628e-07
4.83048e-07
7.8193e-07
-1.61205e-06
6.85314e-07
9.61596e-08
1.93045e-08
1.93366e-06
-2.02175e-06
-1.09597e-05
-7.43689e-07
6.94394e-07
1.07088e-06
7.84985e-07
9.35019e-07
-1.95115e-06
-1.09625e-05
2.39363e-06
-1.41642e-06
1.43722e-06
1.40431e-06
1.14173e-05
-1.27394e-06
6.24959e-07
5.79898e-07
6.12796e-07
5.99391e-07
-3.03792e-06
-2.97974e-06
1.55889e-06
-2.36329e-06
2.37403e-06
-1.3232e-06
-2.88608e-06
-2.92819e-06
-2.82416e-06
-2.94246e-06
1.39962e-06
6.20558e-07
5.89002e-07
6.12358e-07
6.00777e-07
-2.76105e-06
-2.86088e-06
1.57366e-06
2.36022e-06
-2.79304e-06
-2.62315e-06
-2.69838e-06
-2.71651e-06
-1.26911e-06
1.44399e-06
-1.03864e-05
2.35516e-06
9.82808e-06
-1.39233e-06
1.37948e-06
5.92617e-07
5.66459e-07
5.87762e-07
5.71094e-07
-2.45802e-06
-2.52893e-06
-2.31421e-06
-1.55918e-06
1.54245e-06
2.28082e-06
-2.48154e-06
-2.3402e-06
-2.40824e-06
-2.41012e-06
1.42972e-06
5.98395e-07
5.81531e-07
6.04915e-07
5.76038e-07
-2.67761e-06
-2.6022e-06
2.31764e-06
-2.54801e-06
-2.55077e-06
-2.62705e-06
-2.47686e-06
9.27493e-06
5.76818e-07
5.61506e-07
5.81982e-07
5.56532e-07
-2.38666e-06
-2.31642e-06
-2.27223e-06
2.24374e-06
-2.26969e-06
-2.27457e-06
-2.34253e-06
-2.205e-06
2.10152e-06
-1.55167e-06
-2.22042e-06
-2.24692e-06
-2.17773e-06
-2.29244e-06
9.08797e-06
-2.32654e-06
-1.42153e-06
-5.04738e-07
-4.77241e-07
-4.74631e-07
-5.08581e-07
-2.3182e-06
-2.25603e-06
-2.24871e-06
-1.47128e-06
3.84098e-08
3.45438e-07
-3.08953e-07
-3.80214e-08
2.32187e-06
2.27915e-06
-1.30959e-07
4.51236e-07
1.30983e-07
-2.27329e-06
-4.58559e-07
-3.16853e-07
4.99591e-07
-5.10498e-07
3.15371e-07
-2.32121e-06
-1.84799e-07
4.99261e-07
1.85371e-07
-5.33585e-07
2.31161e-06
-2.19006e-06
-1.07748e-05
-1.4556e-06
1.48258e-06
1.57499e-06
2.22943e-06
-1.31426e-06
-2.83303e-06
-2.91047e-06
-2.79216e-06
-2.90745e-06
1.45417e-06
1.12805e-05
-2.88333e-06
-1.25283e-06
-5.43088e-07
-5.66808e-07
-5.11792e-07
-5.64382e-07
-2.98201e-06
-2.85561e-06
-2.90851e-06
1.58633e-06
-2.73717e-06
-2.59209e-06
-2.68417e-06
-2.64281e-06
1.45106e-06
-2.69238e-06
-5.30342e-07
-4.88563e-07
-5.22042e-07
-4.94718e-07
-2.68944e-06
-2.77792e-06
-2.78815e-06
-1.27881e-06
-2.15768e-06
1.48578e-06
-1.01933e-05
-1.56933e-06
2.1299e-06
-2.42967e-06
-2.31187e-06
-2.38115e-06
-2.35706e-06
9.63749e-06
-1.4362e-06
-2.39829e-06
-5.1406e-07
-4.79236e-07
-5.1048e-07
-4.81391e-07
-2.3886e-06
-2.47001e-06
-2.45888e-06
-2.49505e-06
-2.52072e-06
-2.4472e-06
-2.57282e-06
-2.61451e-06
-5.15541e-07
-4.85664e-07
-5.19608e-07
-4.83251e-07
-2.60681e-06
-2.53846e-06
-2.53192e-06
1.86885e-07
-2.64379e-06
5.2559e-07
-5.63126e-07
2.68188e-06
-1.90006e-07
-2.86053e-07
5.536e-07
-5.80059e-07
3.14044e-07
-2.89761e-06
3.22279e-07
5.17215e-07
-2.68935e-06
-5.30038e-07
-3.21922e-07
-2.8384e-06
-1.78285e-07
5.41296e-07
1.91886e-07
-6.01084e-07
2.88451e-06
2.56641e-06
-1.33457e-07
4.65981e-07
1.32181e-07
-4.73855e-07
-2.55925e-06
3.47526e-07
-3.09869e-07
2.39279e-06
3.84625e-08
2.34827e-06
4.54899e-07
-1.3133e-07
-2.34276e-06
-4.62364e-07
3.91287e-08
3.55123e-07
2.61409e-06
-3.86284e-08
-3.1283e-07
5.19849e-07
1.86819e-07
-5.56288e-07
2.60166e-06
5.01362e-07
-5.13972e-07
-2.39092e-06
-3.16851e-07
5.04028e-07
-1.85836e-07
-5.392e-07
2.38202e-06
5.14274e-07
-2.61011e-06
-5.25204e-07
3.18897e-07
4.70529e-07
-4.78667e-07
-1.34183e-07
-2.63809e-06
4.58699e-08
3.60035e-07
-3.22235e-07
2.89727e-06
-4.382e-08
-1.1841e-07
4.92564e-07
1.32846e-07
-5.09914e-07
-2.83883e-06
3.5775e-07
2.69531e-06
-3.14386e-07
3.88545e-08
1.16931e-06
-1.11576e-05
2.10278e-06
1.13201e-05
-1.17137e-06
5.32598e-07
5.01348e-07
5.59069e-07
5.04604e-07
-2.89031e-06
-2.85686e-06
-2.19852e-06
-1.21727e-06
2.22497e-06
-2.84169e-06
-2.87388e-06
-2.89837e-06
-2.8399e-06
-2.04558e-06
1.12337e-05
-1.14351e-05
2.12338e-06
3.16551e-07
3.73731e-07
3.46036e-07
3.26317e-07
-1.12675e-05
2.13132e-06
1.13946e-05
1.86982e-06
-1.1418e-05
2.29898e-07
1.7679e-07
-7.13439e-07
1.11555e-07
7.08777e-07
-1.084e-07
-4.57541e-08
-1.98051e-06
-1.17871e-05
2.12213e-06
3.15142e-07
3.91951e-07
3.42281e-07
3.53951e-07
2.76988e-07
2.96418e-07
-1.19779e-05
2.02288e-06
2.53879e-07
1.98274e-07
1.84517e-07
2.85556e-07
1.82581e-06
-1.14668e-05
5.99104e-08
1.16088e-07
1.08489e-07
-7.15542e-07
-1.07727e-07
-3.80729e-08
1.19859e-05
-1.71244e-06
1.65893e-06
-1.07087e-08
-8.17996e-08
-4.1327e-10
-7.63905e-08
1.84475e-06
5.37546e-08
1.35702e-07
1.17894e-07
5.91582e-08
-9.47874e-10
-5.72224e-08
1.18335e-06
-2.1379e-06
-1.11628e-05
2.20506e-06
-1.2186e-06
-2.83463e-06
-2.87159e-06
-2.88148e-06
-2.83728e-06
1.12812e-05
-1.17109e-06
-2.85559e-06
-5.57412e-07
-5.93636e-07
-5.66657e-07
-5.73438e-07
-2.86159e-06
-2.82156e-06
-2.83479e-06
1.123e-05
2.16756e-06
-1.14225e-05
3.12468e-07
3.80613e-07
3.29375e-07
3.46119e-07
-1.12388e-05
-2.06773e-06
1.13088e-05
-1.12972e-05
1.97642e-06
2.43768e-07
1.7493e-07
1.92139e-07
2.12707e-07
-7.09634e-07
7.05082e-07
1.19345e-07
-5.08257e-08
5.52546e-07
-5.73542e-07
-2.84709e-06
-2.83034e-07
-1.17332e-05
2.16017e-06
3.38355e-07
4.08067e-07
3.74477e-07
3.51769e-07
-2.77617e-06
5.24425e-07
-1.78353e-07
-5.56236e-07
2.80887e-06
-1.18982e-05
2.85216e-07
2.17687e-07
3.06142e-07
2.18138e-07
2.07084e-06
2.868e-07
2.6638e-07
3.01144e-07
2.56112e-07
-1.79188e-06
-1.13298e-05
1.77248e-06
7.386e-08
1.15742e-07
1.31111e-07
6.88174e-08
-7.11632e-07
1.13822e-07
-4.30186e-08
3.63077e-07
-3.3288e-07
2.81773e-06
4.55624e-08
1.1903e-05
1.55156e-06
1.80376e-08
-6.60341e-08
1.60889e-08
-5.10113e-08
4.84999e-07
-1.2214e-07
-4.84424e-07
-2.77584e-06
8.48432e-08
1.54169e-07
7.6804e-08
1.50646e-07
1.56208e-06
1.12609e-08
-4.12039e-08
6.74194e-09
-4.75741e-08
-2.97136e-06
6.81284e-07
-3.98174e-07
4.11223e-07
4.24626e-07
3.09436e-06
-8.15097e-07
-4.59962e-07
1.90979e-07
4.42154e-07
3.99844e-07
1.8054e-07
-1.06091e-06
-8.0959e-07
-1.0198e-06
4.2313e-07
-6.65092e-07
6.4032e-07
-2.75146e-07
-7.66048e-07
-7.88738e-07
-7.30396e-07
-7.92804e-07
-7.59328e-07
4.20009e-07
1.89333e-07
3.61836e-07
3.76959e-07
1.82117e-07
-9.47855e-07
-7.85168e-07
-9.82141e-07
6.33614e-07
4.32181e-07
-7.35331e-07
-6.67454e-07
-6.93681e-07
-7.06397e-07
-3.25911e-07
3.935e-07
-2.51188e-06
6.25037e-07
-3.95545e-07
2.44068e-06
-4.04466e-07
4.03218e-07
-6.26081e-07
1.65933e-07
3.18544e-07
1.64608e-07
3.22697e-07
-7.88241e-07
-6.34248e-07
-7.99562e-07
-6.19366e-07
-3.98402e-07
3.97568e-07
5.82601e-07
-5.96058e-07
-5.57002e-07
-5.86764e-07
-5.65427e-07
3.92608e-07
-6.52231e-07
-4.05185e-07
1.66235e-07
3.28315e-07
3.24159e-07
1.67703e-07
-8.21739e-07
-6.43848e-07
-8.10392e-07
5.87055e-07
-4.0055e-07
-6.0384e-07
-5.81835e-07
-5.73408e-07
-6.13366e-07
-2.1882e-08
5.55636e-07
2.1851e-08
5.79952e-07
2.18858e-08
-2.18555e-08
8.40528e-07
6.87932e-08
-4.06586e-08
6.71829e-07
-2.24148e-08
2.29715e-08
-3.91315e-07
-2.30006e-06
6.07501e-07
2.37094e-06
4.02557e-07
-6.15755e-07
1.62792e-07
3.17058e-07
1.64256e-07
3.12839e-07
-7.77414e-07
-6.07633e-07
-7.66089e-07
-6.13502e-07
3.96201e-07
5.77976e-07
-5.69721e-07
-5.49083e-07
-5.79034e-07
-5.40743e-07
-5.89883e-07
1.62418e-07
3.07089e-07
3.11315e-07
1.61036e-07
-7.43945e-07
-5.97986e-07
-7.55282e-07
5.72967e-07
-5.61877e-07
-5.2436e-07
-5.32742e-07
-5.52662e-07
4.96081e-07
-1.29627e-07
-4.9767e-07
-4.76141e-09
-5.476e-07
1.47483e-08
-1.25922e-07
-1.47111e-08
5.27894e-07
-5.23324e-07
-1.23246e-07
5.04558e-07
1.47133e-08
-4.87115e-09
5.1902e-07
-1.32213e-07
4.82734e-09
-5.2067e-07
-5.78102e-07
-1.46249e-07
7.10069e-07
-7.17094e-08
-8.67428e-08
-1.18055e-07
9.03706e-08
8.66019e-08
-5.88247e-07
-1.17197e-07
-5.62328e-07
8.97066e-08
-8.63783e-08
-7.21062e-08
-6.0457e-07
-1.48376e-07
7.19306e-08
7.41926e-07
-5.07287e-07
-2.2244e-06
-3.94541e-07
3.93647e-07
5.10157e-07
-3.95014e-07
-5.50225e-07
-5.39383e-07
-5.3118e-07
-5.59475e-07
4.04555e-07
2.29414e-06
-5.98741e-07
-4.05156e-07
-1.08421e-07
3.90642e-09
6.14785e-10
-1.07816e-07
-6.90437e-07
-5.90753e-07
-6.79418e-07
-5.4276e-07
-5.1525e-07
-5.23391e-07
-5.33524e-07
-5.73112e-07
-1.07704e-07
-3.10363e-09
1.47027e-10
-1.08289e-07
-6.57955e-07
-5.81061e-07
-6.68961e-07
-3.96227e-07
4.77724e-07
7.14735e-08
-4.79568e-07
-6.95439e-09
-5.30769e-07
1.29512e-08
5.89282e-08
-1.28901e-08
5.10055e-07
-5.06718e-07
5.94151e-08
4.86941e-07
1.28278e-08
-6.93304e-09
5.00429e-07
7.12825e-08
6.93148e-09
-5.02334e-07
-5.44066e-07
1.03855e-07
6.34619e-07
-7.44161e-08
-8.85947e-08
1.39666e-07
-1.61392e-07
8.83361e-08
-5.77033e-07
1.37296e-07
-5.51263e-07
-1.59177e-07
-8.81983e-08
-7.46362e-08
-5.70124e-07
1.04706e-07
7.44971e-08
6.65598e-07
-2.18353e-08
2.18313e-08
2.01589e-08
-2.00828e-08
2.0008e-08
7.19667e-08
-7.39527e-07
-1.6127e-07
9.03693e-07
-7.24114e-08
-9.1851e-08
-1.09938e-07
5.97786e-08
9.6427e-08
-7.69565e-07
9.00994e-08
-1.25772e-07
-7.23722e-07
9.00143e-08
-9.04844e-08
-8.35844e-08
-8.9576e-07
-1.31198e-07
8.49818e-08
1.03216e-06
5.49611e-07
-4.97676e-09
-1.35564e-07
-5.51315e-07
4.92959e-09
-1.26652e-07
1.47032e-08
5.35658e-07
1.47796e-08
-1.29252e-07
5.5899e-07
-1.47022e-08
5.26634e-07
-1.33036e-07
-4.88808e-09
-5.28318e-07
-7.23712e-08
-6.39862e-07
-1.51488e-07
7.84393e-07
7.22649e-08
-1.18524e-07
8.94529e-08
-8.67876e-08
-5.97039e-07
-8.71646e-08
-1.19283e-07
-6.23064e-07
8.99768e-08
8.69521e-08
-6.13339e-07
-1.49509e-07
-7.21114e-08
7.52522e-07
6.32683e-07
3.82816e-09
-1.45967e-07
-6.35144e-07
-2.49136e-09
5.27046e-08
-1.60051e-07
-3.27984e-08
8.24222e-07
-1.67989e-08
-1.38637e-07
6.46342e-07
1.74735e-08
2.51771e-08
8.1386e-07
-1.54457e-07
-1.0781e-08
-8.18356e-07
-5.41357e-07
-2.87655e-06
-4.02974e-07
4.20317e-07
4.29892e-07
5.66396e-07
-2.66962e-07
-7.41946e-07
-7.89035e-07
-7.14226e-07
-7.83481e-07
4.32916e-07
3.02641e-06
-7.99171e-07
-4.49329e-07
-1.19377e-07
7.22296e-08
4.86642e-08
-1.36493e-07
-9.52483e-07
-7.89441e-07
-9.18513e-07
4.34124e-07
-7.09182e-07
-6.54083e-07
-6.78731e-07
-6.81246e-07
-7.39579e-07
4.30728e-07
-1.11017e-07
2.99659e-08
3.67619e-08
-1.0948e-07
-8.54037e-07
-7.6427e-07
-8.85244e-07
-3.07653e-07
-5.14959e-07
3.96685e-07
-2.43274e-06
-3.99541e-07
-3.95764e-07
5.12519e-07
-5.76174e-07
-5.47083e-07
-5.55243e-07
-5.6685e-07
2.36267e-06
-4.06118e-07
-6.09051e-07
-1.0784e-07
4.41894e-09
-1.08487e-07
7.74834e-09
-7.00924e-07
-6.17057e-07
-7.11949e-07
-3.97936e-07
-5.83609e-07
-5.713e-07
-5.63006e-07
-5.93056e-07
-6.34974e-07
-4.07102e-07
-1.08467e-07
1.16498e-08
8.28754e-09
-1.07815e-07
-7.3354e-07
-6.26719e-07
-7.22468e-07
7.57657e-08
-7.02629e-07
1.08306e-07
8.2194e-07
-7.62622e-08
-7.94664e-08
1.75058e-07
-2.29296e-07
9.71775e-08
-7.63422e-07
9.41909e-08
1.49229e-07
-7.10985e-07
-1.78292e-07
-9.42618e-08
-1.40087e-07
-8.58642e-07
1.62658e-07
1.06819e-07
9.29194e-07
5.30783e-07
-6.93033e-09
7.09316e-08
6.8939e-09
-5.32743e-07
-5.38744e-07
5.88679e-08
5.17754e-07
1.29387e-08
5.07984e-07
7.1214e-08
-6.90836e-09
-5.09917e-07
-5.62891e-07
1.30441e-08
5.83301e-08
5.40922e-07
-1.29727e-08
-7.4716e-08
-6.04973e-07
1.05198e-07
7.45952e-08
7.07042e-07
1.39799e-07
-1.63171e-07
-5.85795e-07
-8.84509e-08
-5.7879e-07
1.04462e-07
-7.45447e-08
6.7594e-07
-8.89734e-08
1.42046e-07
-6.11732e-07
-1.65218e-07
8.8577e-08
6.13231e-07
6.79992e-09
7.04221e-08
-5.65775e-09
-6.15935e-07
9.02215e-09
-8.18384e-07
5.34288e-08
8.00299e-07
-1.47601e-08
-2.11444e-08
7.88886e-07
8.18065e-08
9.68331e-09
-7.93531e-07
-6.54113e-07
-1.40511e-08
5.88218e-08
6.27524e-07
1.47546e-08
3.29848e-07
-2.86194e-06
5.41503e-07
2.91019e-06
-3.51121e-07
-7.4033e-07
1.29588e-07
2.70642e-07
1.45416e-07
1.13457e-07
-1.01559e-06
-7.09953e-07
-7.09688e-07
-5.6634e-07
-3.14911e-07
5.53394e-07
-7.033e-07
-7.0545e-07
-7.24065e-07
-7.02079e-07
-4.98066e-07
2.83414e-06
-2.90889e-06
5.39931e-07
8.68822e-08
1.33195e-07
1.13218e-07
9.30433e-08
-2.84458e-06
5.46275e-07
2.82413e-06
5.7211e-07
-2.88571e-06
-4.99949e-07
8.16511e-08
8.42873e-08
7.27299e-08
8.54572e-08
-1.05857e-07
6.11825e-08
-6.95492e-07
-9.13472e-08
1.30895e-07
-7.41448e-07
7.99422e-07
-1.71271e-07
-1.02514e-07
-4.57381e-07
-3.10882e-06
5.67924e-07
1.11376e-07
1.45435e-07
1.2195e-07
1.25525e-07
-8.93664e-07
-1.04964e-07
-9.03556e-08
9.65444e-07
4.07194e-08
-4.82731e-07
9.43936e-08
8.51425e-08
1.00442e-07
8.69314e-08
5.70909e-07
-3.14336e-06
9.9915e-08
9.87835e-08
1.14547e-07
9.53014e-08
4.70164e-07
-2.96219e-06
2.98089e-06
-4.7387e-07
-1.50273e-08
-2.64449e-10
-5.01577e-09
-4.21271e-09
9.67334e-08
7.06492e-07
-6.98935e-07
-1.06247e-07
-4.8907e-09
-8.65046e-07
-1.32935e-07
1.78121e-07
8.516e-07
2.13956e-08
3.13163e-06
-4.17935e-07