/*--------------------------------*- C++ -*----------------------------------*\
| =========                 |                                                 |
| \\      /  F ield         | OpenFOAM: The Open Source CFD Toolbox           |
|  \\    /   O peration     | Version:  2012                                  |
|   \\  /    A nd           | Website:  www.openfoam.com                      |
|    \\/     M anipulation  |                                                 |
\*---------------------------------------------------------------------------*/
FoamFile
{
    version     2.0;
    format      ascii;
    class       volScalarField;
    location    "0.105/fluid";
    object      p;
}
// * * * * * * * * * * * * * * * * * * * * * * * * * * * * * * * * * * * * * //

dimensions      [0 2 -2 0 0 0 0];


internalField   nonuniform List<scalar> 
16422
(
-0.0695077
-0.0699297
-0.0697667
-0.0699623
-0.0700408
-0.0701621
-0.0703986
-0.0708162
-0.0715582
-0.0729518
-0.0757509
-0.081738
-0.09548
-0.130336
-0.216688
-0.0695606
-0.0699715
-0.0698144
-0.0700378
-0.0701646
-0.0703586
-0.070693
-0.0712245
-0.0720517
-0.0733538
-0.0754671
-0.0789717
-0.0845821
-0.0910449
-0.0836243
-0.0695869
-0.0699934
-0.0698452
-0.070089
-0.0702445
-0.0704779
-0.070858
-0.0714247
-0.0722187
-0.0732702
-0.0745516
-0.0758009
-0.0760487
-0.0725544
-0.0599972
-0.0694996
-0.0699163
-0.0697452
-0.0699327
-0.0700002
-0.0701044
-0.0703095
-0.0706594
-0.0712497
-0.0722985
-0.0742745
-0.0781484
-0.0858041
-0.0996874
-0.108548
-0.0695503
-0.0699577
-0.06979
-0.0699991
-0.0701062
-0.070271
-0.0705557
-0.0709945
-0.0716417
-0.0725939
-0.0740113
-0.0760926
-0.0787446
-0.0798313
-0.0696856
-0.0695745
-0.069979
-0.0698201
-0.0700457
-0.0701758
-0.0703724
-0.0706935
-0.0711576
-0.0717705
-0.0725077
-0.0732616
-0.0736804
-0.072795
-0.0683913
-0.0569909
-0.0694821
-0.0698975
-0.0697238
-0.0699052
-0.0699612
-0.0700438
-0.0702057
-0.0704635
-0.0708454
-0.0714231
-0.0723188
-0.0736636
-0.075284
-0.0752845
-0.0665296
-0.0695314
-0.0699382
-0.0697662
-0.0699647
-0.0700531
-0.0701854
-0.0704126
-0.0707404
-0.0711656
-0.071675
-0.0722115
-0.0725682
-0.072049
-0.068667
-0.0584478
-0.069554
-0.0699589
-0.0697959
-0.0700077
-0.0701145
-0.0702726
-0.0705298
-0.0708771
-0.0712779
-0.0716359
-0.0717427
-0.0711484
-0.0689532
-0.0636588
-0.0537
-0.0694626
-0.0698764
-0.0697082
-0.0698887
-0.0699364
-0.070001
-0.0701272
-0.0703087
-0.0705238
-0.070733
-0.070841
-0.0705728
-0.0692247
-0.0652743
-0.0565675
-0.069512
-0.0699161
-0.069749
-0.0699444
-0.07002
-0.0701274
-0.0703096
-0.0705512
-0.0708027
-0.0709696
-0.0708558
-0.0700556
-0.0677822
-0.0627576
-0.0537104
-0.0695347
-0.069936
-0.0697784
-0.0699853
-0.0700767
-0.0702068
-0.0704152
-0.0706732
-0.0709089
-0.070976
-0.070597
-0.0692807
-0.0662552
-0.0605719
-0.0516695
-0.311655
-0.065648
-0.301307
-0.0660509
-0.155686
-0.0790519
-0.143715
-0.246851
-0.225297
-0.137277
-0.101458
-0.0512024
-0.139879
-0.23769
-0.113724
-0.146365
-0.407371
-0.339749
-0.13198
-0.0990342
-0.0515539
-0.131057
-0.0686845
-0.082582
-0.0501244
-0.122134
-0.0674578
-0.0748577
-0.0519927
-0.419487
-0.401884
-0.369111
-0.334947
-0.393562
-0.36184
-0.260235
-0.330516
-0.305035
-0.330426
-0.0704745
-0.254134
-0.919186
-0.175932
-0.258671
-0.180874
-0.885977
-0.0903701
-0.0567284
-0.156503
-0.915862
-0.211526
-0.173208
-0.153742
-0.253729
-0.232655
-0.17662
-0.884657
-0.0699951
-0.0838443
-0.127943
-0.0555578
-0.213815
-0.149766
-0.502886
-0.488909
-0.446406
-0.638489
-0.548501
-0.407269
-0.55487
-0.729032
-0.61377
-0.576402
-0.704757
-0.598322
-0.731252
-0.6117
-0.583257
-0.581283
-0.66912
-0.540804
-0.0246679
-0.400239
-0.652314
-0.518235
-0.475872
-0.434302
-0.461899
-0.531034
-0.599682
-0.387868
-0.522655
-0.587305
-0.673785
-0.577742
-0.538537
-0.657497
-0.474668
-0.433284
-0.604635
-0.354025
-0.3782
-0.0226097
-0.398727
-0.0173962
-0.493854
-0.654093
-0.517621
-0.630351
-0.365391
-0.0584749
-0.284413
-0.0229911
-0.256394
-0.386708
-0.381402
-0.299292
-0.338001
-0.264721
-0.278491
-0.228037
-0.35167
-0.305247
-0.253526
-0.276726
-0.169844
-0.291707
-0.0965626
-0.201743
-0.0889258
-0.247811
-0.375512
-0.370662
-0.295482
-0.325031
-0.275373
-0.253964
-0.215737
-0.349055
-0.385451
-0.300277
-0.307537
-0.269848
-0.241166
-0.159186
-0.289252
-0.0558376
-0.0914594
-0.250516
-0.196191
-0.0809619
-0.726095
-0.823493
-0.485862
-1.08844
-0.615059
-0.586009
-0.91301
-1.2893
-0.782343
-0.910036
-1.29539
-0.793266
0.083687
0.113292
-0.0428591
0.125571
-0.895104
-1.27941
-0.772044
-0.905397
-1.26432
-0.755492
-0.402972
-0.0397971
-0.068094
-0.37812
-1.35569
-1.39807
-1.37956
-1.36365
-0.828763
-0.757451
-1.185
-0.740929
-1.16624
-0.841756
-0.25485
0.0471991
0.0395743
-0.247571
-1.17747
-1.27843
-1.25237
-1.19795
0.0737476
0.0449636
0.14748
0.139173
-1.12457
-0.725891
-1.17765
-0.809007
-0.336979
-0.0293226
0.00128939
-0.366995
-1.35549
-1.40055
-1.40184
-1.36271
-0.248628
-0.10147
0.0337476
-0.273844
-0.689575
-0.477293
-0.787587
-0.601765
-1.03706
-0.560763
-0.854471
-0.767924
-1.19881
-0.779436
-0.848895
-1.20927
-1.03403
-0.687092
-1.10949
-0.756906
-0.231184
0.0509455
-0.243927
0.0612022
-1.20848
-1.28358
-1.20163
-1.29385
-0.201775
-0.0832664
-0.232678
0.0455555
-0.395156
-0.57201
-0.509727
-0.390155
-0.499813
-0.413188
-0.403226
-0.413108
-0.560098
-0.522464
-0.394112
-0.650131
-0.418203
-0.409432
-0.120494
-0.124564
-0.0715446
-0.0619514
-0.209565
-0.118384
-0.0658803
-0.384595
-0.505563
-0.553371
-0.387969
-0.483754
-0.400742
-0.399639
-0.399466
-0.517212
-0.535482
-0.391674
-0.621779
-0.40584
-0.402838
-0.110867
-0.122324
-0.0586733
-0.060459
-0.182517
-0.115286
-0.059675
0.150784
0.160374
-0.0304062
0.127715
-0.0319002
-0.022483
-0.811909
-1.24347
-0.747751
-0.861898
-1.18745
-0.704494
-0.906467
-1.27553
-0.781602
-0.892396
-1.29019
-0.791291
0.141754
0.122126
0.144503
0.139175
-0.527546
-0.899053
-0.912815
-0.505166
-1.34623
-1.03548
-1.04555
-1.35004
-0.364457
-0.706778
-0.702415
-0.360786
-1.1534
-0.833887
-0.826953
-1.171
-1.18418
-1.34691
-1.24073
-1.28585
-1.10784
-0.650856
-0.806043
-0.812576
-1.16346
-0.922528
-1.2616
-0.855465
-0.465201
-0.889945
-0.494359
-0.864422
-0.324002
0.0346352
0.0116258
-0.29152
-0.452272
-0.809789
-0.850313
-0.417119
-1.34764
-1.3678
-1.39694
-1.30928
-1.33492
-1.02683
-1.34738
-1.00305
-1.32492
-0.946739
-1.28494
-0.988225
-0.352524
-0.562374
-0.686602
-0.341543
-0.256979
0.0398962
0.0410523
-0.280326
-0.367916
-0.788296
-0.728168
-0.403863
-0.768937
-0.737369
-1.17389
-0.692232
-0.814319
-1.12584
-0.851195
-0.770041
-1.19992
-0.778295
-0.84123
-1.20893
-1.08525
-1.257
-1.16645
-1.16619
-1.00844
-0.58724
-0.692233
-0.749817
-1.05531
-0.78079
-1.13184
-0.735491
-0.347233
-0.704306
-0.357086
-0.698538
-0.227582
0.0687159
-0.216605
0.0648016
-0.342018
-0.671366
-0.691429
-0.327898
-1.2057
-1.27405
-1.29206
-1.18359
-1.17597
-0.831775
-1.17331
-0.827323
-1.17137
-0.798038
-1.14887
-0.819577
-0.295166
-0.507483
-0.584445
-0.295719
-0.204998
0.0684647
-0.213182
0.0566059
-0.305205
-0.657094
-0.619171
-0.321906
-0.374337
-0.476904
-0.486215
-0.288552
-0.623649
-0.319885
-0.360834
-0.18515
-0.152916
-0.422593
-0.231817
-0.252598
-0.253414
-0.177249
-0.36082
-0.471738
-0.448302
-0.283926
-0.589019
-0.355701
-0.303512
-0.173816
-0.151113
-0.39233
-0.22925
-0.222815
-0.174678
-0.238485
0.164242
0.162801
0.161818
0.144227
-0.0632248
-0.0767014
-0.0494767
-0.0720129
-0.0503838
-0.0633028
-0.0468549
-0.114172
-0.18309
-0.326816
-0.308473
-0.112785
-0.181024
-0.0652678
-0.175379
-0.323557
-0.107441
-0.211395
-0.0647251
-0.120574
-0.664683
-0.764027
-0.538482
-0.813152
-0.568155
-0.555509
-0.953888
-1.15249
-0.753978
-0.935457
-1.16813
-0.785258
-0.203441
-0.111082
-0.172962
-0.108672
-0.0651209
-0.117832
-0.0643546
-0.0912868
-0.103214
-0.139805
-0.096955
-0.0576784
-0.0611217
-0.0833829
-0.924934
-1.1434
-0.743617
-0.926926
-1.13112
-0.7482
-0.847568
-0.746353
-1.00886
-0.751813
-0.99505
-0.848861
-0.284409
-0.476809
-0.468001
-0.616107
-0.532587
-0.707211
-0.577414
-0.723788
-0.523694
-0.879368
-0.756936
-1.01932
-0.789149
-0.858345
-1.03695
-0.447032
-0.280485
-0.475507
-0.319691
-0.27134
-0.465004
-0.461279
-0.284552
-0.0694596
-0.0864888
-0.150993
-0.167524
-0.229435
-0.102667
-0.410935
-0.348739
-0.29353
-0.218639
-0.25195
-0.425578
-0.330743
-0.502431
-0.791249
-0.70648
-0.589304
-0.580401
-0.522684
-0.532361
-0.534172
-0.901389
-0.665704
-0.561314
-0.790271
-0.555129
-0.501611
-0.0820357
-0.0778364
-0.051965
-0.0516615
-0.0814551
-0.0764446
-0.0490584
-0.494801
-0.706011
-0.77616
-0.587394
-0.566249
-0.530725
-0.51008
-0.525257
-0.666706
-0.901134
-0.559982
-0.787438
-0.49889
-0.545749
-0.140792
-0.0636644
-0.0769459
-0.130928
-0.105713
-0.175498
-0.0774947
-0.0766139
-0.0762323
-0.0480415
-0.051356
-0.0753614
-0.0757789
-0.0458926
-0.187996
-0.287848
-0.180573
-0.171643
-0.141487
-0.253311
-0.21346
-0.0178012
-0.015361
-0.925854
-1.15919
-0.772314
-0.935524
-1.1462
-0.774456
-0.965071
-1.18072
-0.790089
-0.951536
-1.18721
-0.80852
-0.320067
-0.0893168
-0.105027
-0.305659
-0.51551
-0.682438
-0.691734
-0.503155
-1.26656
-0.925357
-0.923071
-1.26796
-1.14827
-0.891365
-0.897102
-1.14634
-0.235174
-0.0238277
-0.0269568
-0.152134
-0.151759
-0.0286261
-0.229727
-0.415615
-0.40048
-0.28672
-0.580541
-0.287615
-0.580503
-0.412581
-1.13088
-0.820453
-0.647337
-0.720763
-0.812766
-0.71551
-1.13896
-1.01557
-0.516671
-0.777294
-0.642619
-0.774069
-0.638988
-1.02183
-0.971564
-0.788873
-1.03879
-0.732
-0.984212
-0.524407
-0.686317
-0.750675
-1.10382
-0.847455
-0.78862
-1.17192
-0.867253
-0.513479
-0.652207
-0.6717
-0.461254
-0.618036
-0.642561
-0.438902
-0.276882
-0.0752318
-0.0596018
-0.292801
-0.263701
-0.0332937
-0.0470246
-0.245593
-0.476445
-0.672811
-0.491849
-0.659158
-1.11246
-0.827599
-1.08411
-0.854125
-1.26021
-0.926423
-0.92565
-1.266
-1.24538
-0.887907
-0.913649
-1.2182
-1.13043
-0.883603
-1.14072
-0.871804
-0.383651
-0.588345
-0.543366
-0.41825
-0.186493
0.0014212
-0.0120096
-0.137352
-0.207115
-0.0237073
-0.0140974
-0.230905
-0.343628
-0.38524
-0.486086
-0.267239
-0.862021
-0.777825
-1.04162
-0.780736
-0.868946
-1.03179
-0.896925
-0.794676
-1.0613
-0.813703
-0.88345
-1.06513
-0.906462
-0.723547
-0.592823
-0.444601
-0.961621
-0.679354
-0.555228
-0.919004
-0.484862
-0.50632
-0.470707
-0.632348
-0.569185
-0.70294
-1.02631
-0.669641
-0.77462
-0.568764
-0.724567
-1.08346
-0.629622
-0.814455
-0.410806
-0.483285
-0.425675
-0.609943
-0.506828
-0.636523
-0.399808
-0.389443
-0.555873
-0.267998
-0.276354
-0.569787
-0.38759
-0.21871
-0.0206572
-0.148991
-0.019938
-0.148862
-0.228328
-0.0150939
-0.405213
-0.395277
-0.284231
-0.580454
-0.280713
-0.411568
-0.576572
-0.213513
-0.141744
-0.0193775
-0.0087027
-0.146964
-0.205145
-0.0126379
-1.01479
-0.507175
-0.751449
-0.617395
-0.996549
-0.767577
-0.632636
-1.14573
-0.826901
-0.722122
-0.654028
-1.14403
-0.832117
-0.720592
-1.02343
-0.51442
-0.778445
-0.643146
-1.02476
-0.775874
-0.640669
-1.13884
-0.696588
-0.807796
-0.645814
-0.826328
-1.12041
-0.7122
-0.350706
-0.536586
-0.344085
-0.261317
-0.502825
-0.376882
-0.248614
-0.168842
0.00605271
-0.136555
-0.0426997
-0.14262
-0.123948
-0.00937557
-0.320357
-0.323741
-0.360682
-0.218266
-0.454014
-0.240753
-0.249568
-0.183772
-0.142241
-0.00838855
-0.0250429
-0.199228
-0.137135
-0.00663925
-0.366515
-0.477603
-0.517422
-0.366474
-0.431953
-0.405506
-0.378551
-0.361221
-0.43202
-0.379846
-0.41971
-0.34614
-0.378308
-0.473845
-0.296697
-0.262412
-0.236047
-0.318538
-0.297532
-0.262107
-0.315894
-0.242645
-0.115414
-0.0325046
-0.109749
-0.0576186
-0.175639
-0.278373
-0.187721
-0.234997
-0.423584
-0.401889
-0.368981
-0.359538
-0.420032
-0.417608
-0.372967
-0.34917
-0.453597
-0.388104
-0.324368
-0.491274
-0.351277
-0.311247
-0.329629
-0.247337
-0.36022
-0.357821
-0.45187
-0.281268
-0.286346
-0.253427
-0.233524
-0.307481
-0.29526
-0.249885
-0.240673
-0.307612
-0.106241
-0.0322442
-0.124635
-0.0555841
-0.104754
-0.101872
-0.0519101
-0.164147
-0.199193
-0.26523
-0.193921
-0.178238
-0.220852
-0.152892
-0.771756
-1.02579
-0.676257
-0.960444
-0.654114
-0.82284
-0.962763
-1.18841
-0.791249
-1.17704
-0.796591
-0.960743
0.093644
0.103832
0.0703199
0.106578
-0.915817
-1.10717
-0.7052
-1.12349
-0.739715
-0.893206
-0.287146
-0.396381
-0.2798
-0.0486414
-0.145691
-0.154517
-0.17354
-0.0585953
-0.165057
-0.385996
-0.260492
-0.268927
-2.00381
-1.50483
-1.36423
-2.00055
-1.51678
-1.94099
-1.76358
-1.42361
-1.44801
-1.77588
-1.93619
-1.46428
-1.93383
-1.43258
-1.73789
-1.41986
-1.76904
-1.91512
-1.46045
-2.01144
-1.36578
-1.5179
-2.01763
-1.52102
-0.837784
-0.70754
-0.968956
-0.743061
-0.986553
-0.812826
-0.154149
-0.255118
-0.152942
0.0453954
-0.0446795
-0.0462564
-0.051919
0.0422308
-0.0501025
-0.250707
-0.147424
-0.14844
-1.79679
-1.34612
-1.18951
-1.79079
-1.36118
-1.75804
-1.6029
-1.30082
-1.31341
-1.61193
-1.75671
-1.32633
-1.74735
-1.28893
-1.56915
-1.29434
-1.60246
-1.72599
-1.31925
-1.80929
-1.19553
-1.37016
-1.81927
-1.36942
0.0645719
0.0550413
0.145204
0.14242
-1.66319
-1.28085
-1.05158
-1.76553
-1.20228
-1.4482
-1.01183
-0.974877
-0.762093
-1.3193
-1.17383
-1.00807
-1.60224
-1.2079
-1.55164
-1.13284
-1.47889
-1.69139
-1.14661
-1.52099
-0.950731
-0.901139
-1.36413
-1.08388
-0.218507
-0.346619
-0.228528
-0.019499
-0.134575
-0.125447
-0.103469
-0.00830858
-0.113423
-0.359017
-0.249549
-0.241018
-2.01743
-1.51405
-1.36378
-2.01372
-1.52466
-1.95229
-1.7693
-1.43302
-1.44987
-1.7909
-1.94072
-1.47132
-1.95356
-1.44853
-1.77478
-1.43496
-1.79563
-1.94035
-1.47199
-2.01797
-1.36589
-1.51934
-2.02187
-1.52529
-0.152301
-0.247706
-0.156842
-0.00767403
-0.15842
-0.0788798
-0.0538271
0.0193152
-0.0632914
-0.234514
-0.210872
-0.156016
-0.716453
-0.682445
-0.919621
-0.659421
-0.862392
-0.762828
-0.889401
-0.79445
-1.061
-0.800748
-1.0471
-0.88726
-1.5519
-1.20264
-0.970914
-1.64094
-1.13432
-1.36313
-0.955546
-0.925709
-0.719285
-1.24171
-1.10334
-0.954495
-1.50191
-1.13341
-1.44879
-1.07392
-1.38766
-1.5787
-1.08208
-1.43106
-0.881552
-0.855513
-1.27941
-1.02711
-0.237214
-0.132514
-0.135337
-0.0403625
0.0539993
-0.0377717
-0.243987
-0.143544
-0.14057
-0.0298239
0.0585144
-0.0325116
-1.83148
-1.21174
-1.3829
-1.83267
-1.38904
-1.77997
-1.61139
-1.31853
-1.31862
-1.76469
-1.63593
-1.34332
-1.8278
-1.20913
-1.37559
-1.82744
-1.38553
-1.78492
-1.32781
-1.62643
-1.32348
-1.64358
-1.77577
-1.34744
-0.206911
-0.11712
-0.126875
-0.131976
0.00287475
-0.0588676
-0.194289
-0.177745
-0.126719
-0.0301836
0.0277873
-0.0437949
-0.56577
-0.813515
-0.604232
-0.529701
-0.807495
-0.565241
-0.526471
-0.494426
-0.563726
-0.577355
-0.511907
-0.639694
-0.495996
-0.49531
-0.554768
-0.51596
-0.683862
-0.626017
-0.743381
-0.532873
-0.53792
-0.113683
-0.0998913
-0.140164
-0.129529
-0.109472
-0.102054
-0.146498
-0.0664261
-0.0552479
-0.122051
-0.0571045
-0.0851238
-0.0331032
-0.101575
-0.100861
-0.188931
-0.146667
-0.15753
-0.114207
-0.132883
-0.142421
-0.485623
-0.559845
-0.567838
-0.505886
-0.636966
-0.490791
-0.483374
-0.547931
-0.789414
-0.576135
-0.509385
-0.782868
-0.547962
-0.50539
-0.539378
-0.49216
-0.612268
-0.656832
-0.729179
-0.522216
-0.510108
-0.107033
-0.0977895
-0.129155
-0.129041
-0.101042
-0.101493
-0.137716
-0.0637006
-0.0491119
-0.10368
-0.0481961
-0.0760359
-0.0324965
-0.0881357
-0.0945743
-0.166723
-0.132269
-0.135853
-0.10226
-0.125816
-0.125339
0.153977
0.157579
0.0729142
0.106255
-0.0256545
-0.000205543
-0.0221014
-0.0134012
-0.000607087
-0.903765
-1.09248
-0.724296
-0.872184
-1.11706
-0.754165
-0.970753
-1.1917
-0.795783
-0.962584
-1.19619
-0.815487
0.136709
0.129769
0.144608
0.143354
-0.654288
-0.521655
-0.648903
-0.903901
-0.766188
-0.771703
-0.783031
-0.910433
-0.779665
-0.511791
-0.634464
-0.640236
-1.3102
-1.35045
-1.31051
-1.03896
-1.18469
-1.18636
-1.19065
-1.04439
-1.18988
-1.3506
-1.30878
-1.30858
-0.473327
-0.365204
-0.474284
-0.704903
-0.589022
-0.587783
-0.587122
-0.705282
-0.589409
-0.361602
-0.472518
-0.472005
-1.10133
-1.16159
-1.10599
-0.83119
-0.977685
-0.973348
-0.967745
-0.830787
-0.971415
-1.16638
-1.1149
-1.10912
-1.882
-1.34272
-1.23015
-1.82778
-1.39651
-1.86387
-1.72862
-1.3497
-1.3875
-1.71698
-1.37964
-1.88464
-1.82722
-1.27734
-1.61712
-1.316
-1.76368
-1.68691
-1.34495
-1.91978
-1.26224
-1.45209
-1.42956
-1.95474
-1.06075
-1.04215
-1.01238
-0.699687
-0.748042
-0.816147
-0.942633
-0.784281
-0.912949
-0.947173
-0.813114
-0.920368
-1.20374
-1.115
-1.145
-1.0738
-0.906063
-1.05419
-1.23715
-1.20345
-1.18092
-0.995956
-0.875213
-1.01995
-0.474192
-0.595634
-0.604408
-0.756305
-0.884092
-0.749911
-0.486425
-0.624074
-0.61615
-0.72942
-0.873153
-0.738316
-0.204879
-0.314541
-0.196749
0.0286867
-0.0648179
-0.0718165
-0.0914691
0.0199765
-0.0827212
-0.301174
-0.176378
-0.183161
-0.582207
-0.442002
-0.571423
-0.823512
-0.676434
-0.68945
-0.715607
-0.840262
-0.705684
-0.427935
-0.545014
-0.556897
-1.99639
-1.50851
-1.34215
-2.01021
-1.50555
-1.92916
-1.74789
-1.40762
-1.40992
-1.77731
-1.90455
-1.44311
-1.93848
-1.44309
-1.77335
-1.41897
-1.9371
-1.7846
-1.45482
-1.98725
-1.32909
-1.4728
-1.97109
-1.49474
-1.34165
-1.28439
-1.29008
-1.17741
-1.02176
-1.17217
-1.34654
-1.30306
-1.29858
-1.15521
-1.011
-1.16213
-1.31661
-1.2709
-1.26026
-1.09839
-0.96056
-1.11235
-1.30197
-1.22877
-1.24291
-1.14073
-0.978361
-1.12993
-0.459535
-0.348462
-0.4507
-0.59363
-0.488236
-0.498807
-0.571821
-0.668488
-0.559729
-0.320799
-0.411199
-0.406265
-0.154741
-0.263379
-0.156992
0.0417536
-0.057522
-0.054848
-0.0514271
0.0431253
-0.0516615
-0.273203
-0.166812
-0.162967
-0.48319
-0.37789
-0.496305
-0.773034
-0.657373
-0.643563
-0.604797
-0.746288
-0.620378
-0.392754
-0.528948
-0.515266
-0.841309
-0.729665
-0.983634
-0.810227
-0.76063
-1.00392
-0.901311
-0.799324
-1.06605
-0.890408
-0.82003
-1.07285
-1.7404
-1.25638
-1.12358
-1.69474
-1.30264
-1.7286
-1.59992
-1.26449
-1.28798
-1.59368
-1.28555
-1.74326
-1.69826
-1.1956
-1.50641
-1.23584
-1.64228
-1.56912
-1.25655
-1.77154
-1.14882
-1.3457
-1.32924
-1.79974
-0.94838
-0.951836
-0.905942
-0.606657
-0.665185
-0.720351
-0.821633
-0.684279
-0.799238
-0.866822
-0.737594
-0.825475
-1.0875
-0.995434
-1.01846
-0.924508
-0.770702
-0.911134
-1.11367
-1.06348
-1.04702
-0.86881
-0.74633
-0.883313
-0.350516
-0.460724
-0.463077
-0.58588
-0.704389
-0.585713
-0.356452
-0.469133
-0.468098
-0.578946
-0.70018
-0.580878
-0.226861
-0.127949
-0.125692
-0.0182802
0.06872
-0.0193055
-0.220253
-0.118886
-0.120775
-0.0251511
0.0665303
-0.0231531
-0.454786
-0.339545
-0.45115
-0.677976
-0.553665
-0.559664
-0.57219
-0.687631
-0.568807
-0.332247
-0.438198
-0.44352
-1.82547
-1.38185
-1.20528
-1.83349
-1.38372
-1.77785
-1.61485
-1.30992
-1.30579
-1.63987
-1.75812
-1.33455
-1.78265
-1.32615
-1.62826
-1.31762
-1.77654
-1.64341
-1.34207
-1.82118
-1.19764
-1.36104
-1.81077
-1.37776
-1.17716
-1.11366
-1.11284
-0.976664
-0.832517
-0.976748
-1.17695
-1.11484
-1.11561
-0.972996
-0.82852
-0.973246
-1.16836
-1.10591
-1.10167
-0.942544
-0.805048
-0.949572
-1.15945
-1.0833
-1.08979
-0.965428
-0.81594
-0.96057
-0.387316
-0.298283
-0.387477
-0.515964
-0.437051
-0.432519
-0.484711
-0.580698
-0.485359
-0.272325
-0.361413
-0.34826
-0.205809
-0.114847
-0.111743
-0.0167088
0.0656648
-0.0180801
-0.210795
-0.115989
-0.114293
-0.0234029
0.0626286
-0.0191903
-0.40513
-0.308873
-0.41114
-0.648124
-0.541867
-0.534751
-0.511374
-0.628182
-0.518591
-0.317517
-0.429593
-0.423059
-0.468195
-0.441278
-0.504157
-0.493965
-0.481375
-0.470681
-0.466987
-0.400288
-0.394207
-0.541369
-0.394846
-0.468667
-0.420613
-0.356316
-0.44713
-0.481388
-0.562145
-0.59963
-0.489083
-0.529661
-0.45534
-0.219015
-0.189863
-0.174887
-0.161531
-0.181919
-0.214547
-0.198393
-0.256788
-0.32822
-0.362418
-0.353417
-0.271161
-0.303757
-0.318045
-0.21083
-0.234534
-0.181917
-0.308818
-0.171261
-0.222983
-0.274866
-0.456775
-0.436753
-0.492585
-0.489006
-0.468176
-0.459907
-0.46375
-0.384689
-0.379349
-0.507069
-0.366235
-0.44868
-0.392984
-0.342338
-0.431239
-0.456757
-0.539373
-0.562152
-0.473126
-0.502059
-0.429947
-0.210015
-0.187771
-0.161937
-0.160808
-0.172313
-0.201526
-0.197318
-0.244762
-0.30786
-0.331491
-0.326178
-0.254427
-0.290121
-0.291666
-0.2008
-0.209413
-0.165894
-0.27714
-0.162683
-0.206744
-0.249016
0.164851
0.164054
0.157255
0.151918
-0.0800865
-0.0822813
-0.0927685
-0.0982801
-0.126969
-0.0751341
-0.0801134
-0.0758795
-0.0789142
-0.0821642
-0.0917046
-0.0802736
-0.0858315
-0.096583
-0.120663
-0.0882886
-0.0975939
-0.133671
-0.198047
-0.101049
-0.105824
-0.073123
-0.0750327
-0.0734487
-0.0745714
-0.0756939
-0.0782738
-0.0749925
-0.0763541
-0.0793784
-0.0836098
-0.0768147
-0.0779758
-0.0853392
-0.0909352
-0.0781771
-0.0773549
-0.0924158
-0.0902979
-0.0762882
-0.0688494
-0.0852172
-0.0514125
-0.0644468
-0.0451945
-0.0721102
-0.0731102
-0.0723312
-0.0730754
-0.0734136
-0.0744202
-0.0733447
-0.0741693
-0.0747786
-0.0758386
-0.0744309
-0.0750292
-0.0761476
-0.0766436
-0.0751127
-0.0746508
-0.0765443
-0.0746298
-0.0741376
-0.0708519
-0.0731543
-0.0647384
-0.0689991
-0.0605819
-0.0604093
-0.0435745
-0.0567762
-0.0429733
-0.0694907
-0.0713812
-0.0694859
-0.0713731
-0.0699167
-0.070641
-0.0699075
-0.0706276
-0.0697523
-0.0701667
-0.0697373
-0.0701479
-0.0699406
-0.0700174
-0.0699205
-0.0699929
-0.0700046
-0.0700719
-0.0699784
-0.0700393
-0.0701029
-0.0702423
-0.0700675
-0.0701953
-0.0703056
-0.0705628
-0.0702529
-0.0704835
-0.0706773
-0.0711492
-0.0705847
-0.0709941
-0.0713642
-0.0722808
-0.0711776
-0.0719454
-0.0727125
-0.0746194
-0.0723012
-0.0738388
-0.0755444
-0.0797635
-0.0745691
-0.0778005
-0.0818717
-0.091892
-0.0793638
-0.0864156
-0.0971292
-0.124176
-0.0898836
-0.105817
-0.159655
-0.145762
-0.171913
-0.137941
-0.0713952
-0.0695499
-0.0714294
-0.0695026
-0.071387
-0.0695437
-0.0714208
-0.0706548
-0.0699616
-0.0706899
-0.0699204
-0.0706407
-0.069952
-0.0706746
-0.0701861
-0.0698038
-0.0702382
-0.0697508
-0.0701656
-0.0697861
-0.0702133
-0.0700492
-0.0700211
-0.0701346
-0.0699402
-0.0700213
-0.0699936
-0.0700976
-0.0701245
-0.0701374
-0.0702623
-0.0700107
-0.0700858
-0.0700966
-0.070208
-0.0703258
-0.0703163
-0.0705373
-0.0701198
-0.0702686
-0.0702563
-0.0704544
-0.070689
-0.0706317
-0.0709926
-0.0703345
-0.0705931
-0.0705386
-0.0708564
-0.0713292
-0.071144
-0.0717226
-0.0707049
-0.0711476
-0.070988
-0.0714815
-0.0725121
-0.0719666
-0.0729137
-0.0713421
-0.0721371
-0.071686
-0.0724635
-0.0748491
-0.0733215
-0.0749432
-0.0724978
-0.0740204
-0.0727917
-0.0740648
-0.0797702
-0.0756573
-0.0785579
-0.074729
-0.077794
-0.0746116
-0.0767593
-0.090847
-0.0798536
-0.0851248
-0.079247
-0.0856319
-0.0776833
-0.0812277
-0.118163
-0.0874408
-0.0961116
-0.0886875
-0.102037
-0.0826741
-0.0873595
-0.190714
-0.0992755
-0.103304
-0.108187
-0.128645
-0.0886592
-0.0871046
-0.231569
-0.191569
-0.199528
-0.134557
-0.156574
-0.147625
-0.143468
-0.0714399
-0.0695683
-0.0714439
-0.0695539
-0.0714311
-0.069561
-0.0714349
-0.0707001
-0.0699767
-0.0707133
-0.0699618
-0.0706846
-0.0699669
-0.0706972
-0.070253
-0.0698304
-0.070283
-0.0697963
-0.070227
-0.0698114
-0.0702543
-0.0701588
-0.0700731
-0.0702129
-0.0700088
-0.0701193
-0.0700407
-0.0701674
-0.0703004
-0.0702257
-0.0703862
-0.0701209
-0.0702417
-0.0701751
-0.0703171
-0.0705936
-0.0704537
-0.0707183
-0.0702936
-0.0705038
-0.0703771
-0.0706126
-0.0710689
-0.0708277
-0.0712299
-0.0705922
-0.0709224
-0.0707094
-0.071061
-0.0718096
-0.0713911
-0.0719698
-0.0710573
-0.0715547
-0.0712
-0.0716882
-0.0729689
-0.0721972
-0.0729977
-0.0717568
-0.0725055
-0.0718758
-0.0725165
-0.0748359
-0.073307
-0.0743682
-0.0728126
-0.0739631
-0.0727557
-0.0735393
-0.0779236
-0.0747638
-0.0760316
-0.0744394
-0.0762224
-0.073815
-0.0746169
-0.0829636
-0.0764543
-0.077482
-0.0769502
-0.0795305
-0.0748434
-0.0751461
-0.0897347
-0.0776335
-0.0766663
-0.080479
-0.0828755
-0.0750164
-0.0731998
-0.0886055
-0.0755607
-0.0681263
-0.083083
-0.0781989
-0.0718664
-0.0644512
-0.0511449
-0.063804
-0.0451287
-0.0734981
-0.0479002
-0.060558
-0.0447607
-0.0714632
-0.0694483
-0.0714462
-0.0695786
-0.0714543
-0.0694375
-0.0714384
-0.0707286
-0.0699798
-0.0707239
-0.0699834
-0.0707127
-0.0699719
-0.0707069
-0.0702986
-0.0698413
-0.0703009
-0.0698265
-0.0702698
-0.0698212
-0.0702706
-0.0702309
-0.0700951
-0.0702441
-0.0700565
-0.0701847
-0.0700601
-0.0701954
-0.070409
-0.0702612
-0.0704353
-0.070193
-0.0703381
-0.0702069
-0.0703591
-0.0707472
-0.0705071
-0.0707868
-0.0703994
-0.0706385
-0.0704225
-0.0706719
-0.0712635
-0.0709012
-0.0713155
-0.0707364
-0.0710901
-0.0707727
-0.0711353
-0.0719971
-0.0714768
-0.0720294
-0.0712288
-0.0717105
-0.0712742
-0.0717405
-0.0729828
-0.0722392
-0.0729444
-0.0718928
-0.0725005
-0.0719108
-0.0724596
-0.0742174
-0.0731975
-0.0739638
-0.0727203
-0.0734049
-0.0726478
-0.0731701
-0.0755254
-0.0742027
-0.074725
-0.0736286
-0.0741866
-0.0733111
-0.0734889
-0.0761862
-0.0747809
-0.0742392
-0.074294
-0.0740938
-0.0734164
-0.0724803
-0.0740408
-0.0737033
-0.0703815
-0.0737457
-0.0711855
-0.0718257
-0.0682944
-0.0642382
-0.0685336
-0.0602178
-0.069609
-0.0616912
-0.0664607
-0.0585813
-0.0435937
-0.0564807
-0.0429857
-0.0578705
-0.0435658
-0.0551544
-0.0430243
-0.0694831
-0.0713693
-0.0694708
-0.0713534
-0.0699034
-0.0706227
-0.0698877
-0.0706067
-0.0697319
-0.0701414
-0.0697156
-0.0701228
-0.0699136
-0.0699844
-0.0698939
-0.0699599
-0.0699693
-0.0700273
-0.0699426
-0.0699913
-0.0700542
-0.0701767
-0.0700139
-0.0701175
-0.0702316
-0.07045
-0.0701631
-0.0703395
-0.0705451
-0.0709255
-0.0704136
-0.0706952
-0.0710944
-0.0717934
-0.0708149
-0.071283
-0.0721143
-0.0734833
-0.0714877
-0.0723085
-0.0741254
-0.0769191
-0.0726705
-0.0741219
-0.0782461
-0.0840535
-0.0747526
-0.0771419
-0.086807
-0.0985708
-0.0780834
-0.0808109
-0.103847
-0.120709
-0.0813427
-0.0785396
-0.133228
-0.129982
-0.0975709
-0.104531
-0.0713831
-0.0695403
-0.0714172
-0.069487
-0.0713671
-0.0695267
-0.0714005
-0.0706356
-0.0699479
-0.0706691
-0.0699003
-0.0706191
-0.0699312
-0.0706511
-0.0701587
-0.0697799
-0.070205
-0.0697281
-0.0701387
-0.0697609
-0.0701813
-0.0700118
-0.0699844
-0.0700853
-0.0699113
-0.0699844
-0.0699585
-0.0700504
-0.070072
-0.0700829
-0.0701891
-0.0699702
-0.0700308
-0.0700441
-0.0701345
-0.0702468
-0.0702352
-0.0704244
-0.0700582
-0.0701788
-0.0701737
-0.0703344
-0.0705545
-0.0705045
-0.0708051
-0.070231
-0.0704298
-0.0704017
-0.0706469
-0.0710707
-0.0709286
-0.0713868
-0.070512
-0.0708184
-0.0707444
-0.0710888
-0.0719734
-0.0715747
-0.0722802
-0.0709459
-0.0714326
-0.0712231
-0.0716946
-0.0736524
-0.072574
-0.073696
-0.07164
-0.0724483
-0.0718776
-0.0725136
-0.0769184
-0.0741697
-0.0759899
-0.0727955
-0.0741465
-0.072756
-0.0735612
-0.0833883
-0.0767533
-0.0795665
-0.0747164
-0.0767899
-0.0738419
-0.0745679
-0.0956166
-0.0806543
-0.0837735
-0.077566
-0.0795505
-0.0746924
-0.0740305
-0.10981
-0.0843829
-0.0810842
-0.0797478
-0.0758705
-0.0731811
-0.0670185
-0.101195
-0.0958579
-0.0912011
-0.0878181
-0.0836452
-0.0766035
-0.0839068
-0.0714275
-0.0695572
-0.0714307
-0.0695364
-0.0714108
-0.0695425
-0.071414
-0.070679
-0.0699626
-0.0706914
-0.0699408
-0.0706607
-0.0699453
-0.0706724
-0.0702184
-0.0698048
-0.0702448
-0.0697706
-0.0701937
-0.0697845
-0.0702178
-0.0701062
-0.07003
-0.0701524
-0.0699721
-0.0700693
-0.0699999
-0.0701105
-0.0702215
-0.0701582
-0.0702937
-0.070065
-0.0701632
-0.0701113
-0.0702268
-0.0704717
-0.0703508
-0.0705756
-0.0702053
-0.070376
-0.0702755
-0.0704672
-0.070868
-0.0706675
-0.0709999
-0.0704466
-0.0707015
-0.0705447
-0.0708164
-0.0714562
-0.0711302
-0.0715827
-0.0708016
-0.071149
-0.0709196
-0.07126
-0.0723197
-0.0717543
-0.0723304
-0.0712813
-0.0717312
-0.0713811
-0.0717509
-0.0736021
-0.0725408
-0.073209
-0.071899
-0.0724512
-0.0718698
-0.0721705
-0.0755029
-0.0734343
-0.0740385
-0.0726479
-0.0732337
-0.0722359
-0.0722202
-0.078074
-0.0741813
-0.0741763
-0.0734052
-0.0736561
-0.0721047
-0.0711774
-0.0800413
-0.0739283
-0.0717643
-0.0735664
-0.0721198
-0.0705887
-0.0674941
-0.0741657
-0.0703441
-0.0629655
-0.070992
-0.0642107
-0.065879
-0.0587809
-0.047267
-0.0592551
-0.0446065
-0.0605256
-0.045533
-0.0556147
-0.0440724
-0.0714501
-0.0694323
-0.0714345
-0.0695593
-0.0714329
-0.0694143
-0.0714177
-0.070707
-0.0699678
-0.0707006
-0.0699613
-0.0706883
-0.0699518
-0.0706824
-0.0702604
-0.0698144
-0.0702616
-0.0698001
-0.0702335
-0.0697947
-0.0702321
-0.0701695
-0.070049
-0.0701796
-0.0700157
-0.0701272
-0.0700163
-0.0701355
-0.0703142
-0.0701891
-0.0703339
-0.0701283
-0.0702459
-0.0701393
-0.0702625
-0.0706006
-0.0703941
-0.0706321
-0.0702955
-0.07049
-0.0703137
-0.0705159
-0.0710277
-0.0707286
-0.0710701
-0.0705681
-0.070841
-0.0705976
-0.0708761
-0.071604
-0.0712007
-0.0716327
-0.0709438
-0.0712792
-0.0709789
-0.0713032
-0.0723155
-0.0717883
-0.0722767
-0.0713963
-0.0717416
-0.071412
-0.0717138
-0.0730842
-0.0724387
-0.072863
-0.0718465
-0.0720791
-0.071794
-0.07191
-0.0736444
-0.0729638
-0.0729997
-0.07211
-0.0719419
-0.071884
-0.0714729
-0.0732321
-0.0728735
-0.0717713
-0.0717564
-0.0705559
-0.0711787
-0.0695657
-0.0700052
-0.0710664
-0.0674467
-0.0698585
-0.0664386
-0.0687098
-0.064834
-0.0606389
-0.0656183
-0.0579184
-0.0647405
-0.0575556
-0.0630304
-0.055905
-0.0435352
-0.0546161
-0.043027
-0.0544313
-0.0434186
-0.0529803
-0.0429974
-0.0694659
-0.0713506
-0.0694372
-0.0713234
-0.0698848
-0.070603
-0.06986
-0.070584
-0.0697114
-0.0701176
-0.0696935
-0.0701009
-0.0698882
-0.0699526
-0.0698711
-0.0699327
-0.0699345
-0.0699801
-0.0699129
-0.0699506
-0.0700012
-0.0700983
-0.0699679
-0.0700478
-0.0701407
-0.0703027
-0.0700819
-0.070206
-0.0703696
-0.0706181
-0.0702543
-0.0704171
-0.0707212
-0.0711129
-0.0704775
-0.0706743
-0.0712795
-0.0719252
-0.0707448
-0.0709572
-0.0721999
-0.0732506
-0.071022
-0.071144
-0.073683
-0.0751772
-0.0711368
-0.0707875
-0.0756894
-0.0766463
-0.0704885
-0.0685526
-0.0764574
-0.0719935
-0.0673967
-0.0616126
-0.0684627
-0.0504902
-0.0587757
-0.0477173
-0.0713642
-0.0695217
-0.0713972
-0.0694534
-0.0713367
-0.0694925
-0.0713686
-0.0706153
-0.0699284
-0.0706473
-0.0698726
-0.0705955
-0.069902
-0.0706254
-0.0701332
-0.0697565
-0.0701751
-0.0697051
-0.0701153
-0.0697355
-0.0701544
-0.0699764
-0.0699514
-0.0700405
-0.0698868
-0.0699546
-0.0699298