/*--------------------------------*- C++ -*----------------------------------*\
| =========                 |                                                 |
| \\      /  F ield         | OpenFOAM: The Open Source CFD Toolbox           |
|  \\    /   O peration     | Version:  2012                                  |
|   \\  /    A nd           | Website:  www.openfoam.com                      |
|    \\/     M anipulation  |                                                 |
\*---------------------------------------------------------------------------*/
FoamFile
{
    version     2.0;
    format      ascii;
    class       pointVectorField;
    location    "0.105/fluid";
    object      pointMotionU;
}
// * * * * * * * * * * * * * * * * * * * * * * * * * * * * * * * * * * * * * //

dimensions      [0 1 -1 0 0 0 0];


internalField   nonuniform List<vector> 
19865
(
(0 0 0)
(-8.11108e-05 -4.21359e-05 6.40847e-06)
(-0.000168598 -7.88179e-05 1.21253e-05)
(-0.00024488 -0.00010506 1.71453e-05)
(-0.000292911 -0.000121475 2.17764e-05)
(-0.00030935 -0.000128504 2.57127e-05)
(-0.000297542 -0.000126376 2.84587e-05)
(-0.00026333 -0.00011535 2.93498e-05)
(-0.000212696 -9.6193e-05 2.80337e-05)
(-0.000148735 -7.06788e-05 2.43815e-05)
(-7.61547e-05 -4.27087e-05 1.82212e-05)
(-1.13789e-05 -1.69219e-05 7.92948e-06)
(1.73002e-05 5.18717e-06 -9.44426e-06)
(-5.60624e-06 1.222e-05 -2.44076e-05)
(1.52085e-05 -9.23247e-06 -7.78965e-06)
(6.27882e-05 -1.8269e-05 -1.78575e-06)
(0 0 0)
(-9.9328e-05 -3.44213e-05 6.70335e-06)
(-0.000204952 -6.36689e-05 1.23785e-05)
(-0.000296529 -8.43964e-05 1.71891e-05)
(-0.000357375 -9.7366e-05 2.14241e-05)
(-0.000383173 -0.000102931 2.48347e-05)
(-0.000377783 -0.00010067 2.66928e-05)
(-0.000345704 -9.10362e-05 2.64297e-05)
(-0.000290904 -7.52044e-05 2.38743e-05)
(-0.000222732 -5.45695e-05 1.87342e-05)
(-0.000149427 -3.11535e-05 1.08433e-05)
(-8.16206e-05 -8.23285e-06 -6.25788e-07)
(-4.0824e-05 1.00752e-05 -1.64823e-05)
(-3.62369e-05 1.40157e-05 -2.96458e-05)
(-3.00012e-05 4.67859e-07 -2.5302e-05)
(1.15425e-05 -1.88124e-06 -1.04675e-05)
(0 0 0)
(-0.00011271 -1.91576e-05 6.64274e-06)
(-0.000231781 -3.55071e-05 1.21818e-05)
(-0.000332415 -4.70814e-05 1.66781e-05)
(-0.000401054 -5.44283e-05 2.04447e-05)
(-0.000434661 -5.75596e-05 2.31801e-05)
(-0.000435008 -5.60977e-05 2.41555e-05)
(-0.000405466 -5.04642e-05 2.27607e-05)
(-0.00035218 -4.13734e-05 1.87251e-05)
(-0.000285253 -3.00154e-05 1.20214e-05)
(-0.000214431 -1.69362e-05 2.4042e-06)
(-0.000150527 -3.17602e-06 -1.01315e-05)
(-0.000105468 8.40555e-06 -2.43801e-05)
(-8.21869e-05 1.38693e-05 -3.48662e-05)
(-6.56209e-05 1.26732e-05 -3.26742e-05)
(-3.49222e-05 1.05745e-05 -2.02141e-05)
(0 0 0)
(-0.000118321 0 6.55739e-06)
(-0.00024106 0 1.20118e-05)
(-0.000343656 0 1.63536e-05)
(-0.000414888 0 1.98818e-05)
(-0.000451046 0 2.23246e-05)
(-0.000453382 0 2.29443e-05)
(-0.000424867 0 2.09638e-05)
(-0.000373438 0 1.62909e-05)
(-0.000307244 0 8.91649e-06)
(-0.000238488 0 -1.50436e-06)
(-0.000178163 0 -1.43022e-05)
(-0.000132874 0 -2.75808e-05)
(-0.000103759 0 -3.61574e-05)
(-8.16266e-05 0 -3.3986e-05)
(-5.20341e-05 0 -2.40282e-05)
(0 0 0)
(-8.27729e-05 -3.62529e-05 6.21834e-06)
(-0.000171287 -6.88203e-05 1.18901e-05)
(-0.000243433 -9.20987e-05 1.66491e-05)
(-0.000282992 -0.000107811 2.10727e-05)
(-0.000287323 -0.000116491 2.486e-05)
(-0.000259005 -0.000117943 2.74714e-05)
(-0.000207023 -0.000111626 2.81495e-05)
(-0.000139485 -9.77508e-05 2.64829e-05)
(-6.25221e-05 -7.7939e-05 2.24872e-05)
(1.67111e-05 -5.43124e-05 1.62287e-05)
(7.91146e-05 -3.06521e-05 6.85795e-06)
(9.76258e-05 -8.74022e-06 -7.70486e-06)
(5.15969e-05 3.09484e-06 -2.22217e-05)
(2.06492e-05 -1.03325e-05 -1.47854e-05)
(4.82522e-05 -1.33411e-05 -4.10939e-06)
(0 0 0)
(-9.85042e-05 -2.94244e-05 6.55296e-06)
(-0.000204199 -5.53056e-05 1.22318e-05)
(-0.000292606 -7.40623e-05 1.69117e-05)
(-0.000345949 -8.68293e-05 2.10495e-05)
(-0.000359299 -9.34966e-05 2.43416e-05)
(-0.00033757 -9.41001e-05 2.61159e-05)
(-0.000287336 -8.86049e-05 2.57159e-05)
(-0.000215999 -7.75092e-05 2.28102e-05)
(-0.000133927 -6.10373e-05 1.72364e-05)
(-5.33496e-05 -4.09917e-05 9.33841e-06)
(1.15221e-05 -2.0542e-05 -1.2695e-06)
(4.01981e-05 -3.43379e-06 -1.51922e-05)
(2.46926e-05 3.72872e-06 -2.71582e-05)
(4.63885e-06 -2.85709e-06 -2.54817e-05)
(2.70402e-05 -7.4838e-06 -1.3944e-05)
(0 0 0)
(-0.00010969 -1.62433e-05 6.5466e-06)
(-0.000226637 -3.07469e-05 1.21297e-05)
(-0.000325142 -4.14416e-05 1.66203e-05)
(-0.000388318 -4.84207e-05 2.02813e-05)
(-0.000410898 -5.22098e-05 2.29113e-05)
(-0.000395033 -5.25312e-05 2.38645e-05)
(-0.000346687 -4.94964e-05 2.24723e-05)
(-0.000275402 -4.34892e-05 1.83854e-05)
(-0.000195464 -3.44905e-05 1.14435e-05)
(-0.000119924 -2.30139e-05 1.89519e-06)
(-5.96872e-05 -1.08112e-05 -9.93875e-06)
(-2.58226e-05 -5.26963e-07 -2.29261e-05)
(-1.81228e-05 4.78031e-06 -3.24186e-05)
(-1.61214e-05 4.4888e-06 -3.20151e-05)
(8.73898e-06 8.735e-07 -2.41968e-05)
(0 0 0)
(-0.000115535 0 6.5484e-06)
(-0.000234828 0 1.20037e-05)
(-0.000334627 0 1.63021e-05)
(-0.000401666 0 1.97513e-05)
(-0.000427666 0 2.21216e-05)
(-0.000413607 0 2.27046e-05)
(-0.000365911 0 2.08544e-05)
(-0.000296607 0 1.62398e-05)
(-0.000219932 0 8.81381e-06)
(-0.000147729 0 -1.32898e-06)
(-9.08065e-05 0 -1.35508e-05)
(-5.5884e-05 0 -2.59494e-05)
(-4.04096e-05 0 -3.41563e-05)
(-2.85367e-05 0 -3.39589e-05)
(3.14465e-08 0 -2.83234e-05)
(0 0 0)
(-8.45798e-05 -3.13649e-05 4.95293e-06)
(-0.00017114 -5.90906e-05 9.38108e-06)
(-0.000239123 -7.97202e-05 1.31496e-05)
(-0.000272177 -9.42781e-05 1.6598e-05)
(-0.000267136 -0.000103567 1.96052e-05)
(-0.000227208 -0.000107535 2.17198e-05)
(-0.000162022 -0.000105241 2.22804e-05)
(-8.37738e-05 -9.6946e-05 2.08651e-05)
(-2.13512e-07 -8.32966e-05 1.74692e-05)
(7.93495e-05 -6.56224e-05 1.24542e-05)
(0.000134357 -4.53165e-05 5.08206e-06)
(0.000147306 -2.45447e-05 -6.0499e-06)
(0.000108585 -9.7496e-06 -1.77428e-05)
(6.87534e-05 -8.96953e-06 -1.9618e-05)
(8.4056e-05 -1.75006e-05 -1.30756e-05)
(0 0 0)
(-9.86265e-05 -2.5233e-05 5.22929e-06)
(-0.000201719 -4.75697e-05 9.75515e-06)
(-0.000285587 -6.41755e-05 1.34931e-05)
(-0.000332251 -7.59767e-05 1.67896e-05)
(-0.000336821 -8.32441e-05 1.94838e-05)
(-0.000303231 -8.55361e-05 2.09627e-05)
(-0.000239083 -8.31248e-05 2.06628e-05)
(-0.000155722 -7.67318e-05 1.82861e-05)
(-6.57605e-05 -6.5579e-05 1.37113e-05)
(1.59496e-05 -5.03917e-05 7.43306e-06)
(7.63782e-05 -3.28955e-05 -1.02276e-06)
(0.000100943 -1.70326e-05 -1.18315e-05)
(8.75636e-05 -7.24216e-06 -2.15395e-05)
(6.93454e-05 -6.01945e-06 -2.35915e-05)
(9.03199e-05 -1.33024e-05 -1.92643e-05)
(0 0 0)
(-0.000108304 -1.38553e-05 5.26593e-06)
(-0.00022066 -2.62709e-05 9.74184e-06)
(-0.000315369 -3.56846e-05 1.33698e-05)
(-0.000372752 -4.21739e-05 1.63059e-05)
(-0.000387257 -4.61886e-05 1.84683e-05)
(-0.000359247 -4.7434e-05 1.93663e-05)
(-0.000297602 -4.638e-05 1.84248e-05)
(-0.000213685 -4.32261e-05 1.5169e-05)
(-0.000125647 -3.72515e-05 9.52633e-06)
(-4.74218e-05 -2.82429e-05 1.87827e-06)
(1.06798e-05 -1.78367e-05 -7.4652e-06)
(4.14724e-05 -8.75459e-06 -1.76456e-05)
(4.91824e-05 -3.55326e-06 -2.53158e-05)
(5.31146e-05 -2.69053e-06 -2.72548e-05)
(8.1043e-05 -7.17473e-06 -2.54116e-05)
(0 0 0)
(-0.000112821 0 5.25628e-06)
(-0.000227552 0 9.67131e-06)
(-0.000323603 0 1.31622e-05)
(-0.000385216 0 1.59195e-05)
(-0.000403216 0 1.78849e-05)
(-0.000377171 0 1.85264e-05)
(-0.000317127 0 1.72489e-05)
(-0.000234747 0 1.35789e-05)
(-0.000149747 0 7.56468e-06)
(-7.48704e-05 0 -5.43635e-07)
(-1.92437e-05 0 -1.01656e-05)
(1.31533e-05 0 -1.98875e-05)
(2.78779e-05 0 -2.67293e-05)
(4.14239e-05 0 -2.85436e-05)
(7.31813e-05 0 -2.76967e-05)
(0 0 0)
(-8.54798e-05 -2.78133e-05 2.70257e-06)
(-0.000169893 -5.2245e-05 5.1418e-06)
(-0.000234547 -7.07227e-05 7.24708e-06)
(-0.000263828 -8.43953e-05 9.19103e-06)
(-0.000254167 -9.36829e-05 1.08739e-05)
(-0.000209068 -9.85397e-05 1.20958e-05)
(-0.000137953 -9.87832e-05 1.24613e-05)
(-5.27104e-05 -9.44942e-05 1.17688e-05)
(3.28415e-05 -8.53321e-05 9.88349e-06)
(0.000107596 -7.17643e-05 7.03013e-06)
(0.000157759 -5.45462e-05 2.7063e-06)
(0.000173673 -3.63746e-05 -3.62469e-06)
(0.000160691 -2.25033e-05 -1.01236e-05)
(0.000151626 -1.77369e-05 -1.32339e-05)
(0.000183034 -2.70206e-05 -1.35754e-05)
(0 0 0)
(-9.96022e-05 -2.23616e-05 2.86263e-06)
(-0.000199701 -4.20133e-05 5.33829e-06)
(-0.00027877 -5.66074e-05 7.39519e-06)
(-0.000320795 -6.76179e-05 9.2716e-06)
(-0.0003209 -7.51104e-05 1.08252e-05)
(-0.000281042 -7.79943e-05 1.17613e-05)
(-0.000208649 -7.74183e-05 1.17572e-05)
(-0.000118435 -7.43614e-05 1.04783e-05)
(-2.65772e-05 -6.69824e-05 7.94926e-06)
(5.30293e-05 -5.50408e-05 4.41189e-06)
(0.000109997 -4.03151e-05 -4.73065e-07)
(0.000137438 -2.63056e-05 -6.78212e-06)
(0.000140216 -1.70291e-05 -1.25373e-05)
(0.00014431 -1.46116e-05 -1.53965e-05)
(0.000179476 -2.24359e-05 -1.63766e-05)
(0 0 0)
(-0.000109154 -1.22854e-05 2.88642e-06)
(-0.000218317 -2.31893e-05 5.34892e-06)
(-0.000307173 -3.13764e-05 7.36741e-06)
(-0.00035951 -3.75865e-05 9.0885e-06)
(-0.000369286 -4.16975e-05 1.04104e-05)
(-0.000335153 -4.31385e-05 1.10134e-05)
(-0.000266099 -4.29113e-05 1.06052e-05)
(-0.000176639 -4.16207e-05 8.84821e-06)
(-8.36895e-05 -3.79111e-05 5.69895e-06)
(-4.27151e-06 -3.07243e-05 1.44828e-06)
(5.36358e-05 -2.1769e-05 -3.86571e-06)
(8.77004e-05 -1.38726e-05 -9.75127e-06)
(0.000103658 -9.37065e-06 -1.45353e-05)
(0.000120427 -8.78982e-06 -1.69226e-05)
(0.000158621 -1.36128e-05 -1.81161e-05)
(0 0 0)
(-0.000113529 0 2.88303e-06)
(-0.000224202 0 5.31915e-06)
(-0.000314834 0 7.30172e-06)
(-0.000371419 0 8.94151e-06)
(-0.000384391 0 1.01106e-05)
(-0.000352558 0 1.05395e-05)
(-0.000285717 0 9.96219e-06)
(-0.000197394 0 8.02836e-06)
(-0.000107065 0 4.63831e-06)
(-2.96521e-05 0 6.30656e-08)
(2.67693e-05 0 -5.35148e-06)
(6.163e-05 0 -1.09555e-05)
(8.27875e-05 0 -1.53033e-05)
(0.000105964 0 -1.7318e-05)
(0.00014681 0 -1.83772e-05)
(0 0 0)
(-8.58802e-05 -2.64909e-05 0)
(-0.000168449 -4.94331e-05 0)
(-0.000231297 -6.696e-05 0)
(-0.000259528 -8.00301e-05 0)
(-0.000248973 -8.91759e-05 0)
(-0.000201697 -9.43476e-05 0)
(-0.00012964 -9.54957e-05 0)
(-4.30727e-05 -9.2636e-05 0)
(4.18142e-05 -8.50157e-05 0)
(0.000113623 -7.29285e-05 0)
(0.000162115 -5.72801e-05 0)
(0.000181665 -4.09089e-05 0)
(0.000182024 -2.82899e-05 0)
(0.000190191 -2.40649e-05 0)
(0.000228911 -3.24805e-05 0)
(0 0 0)
(-0.000100152 -2.12744e-05 0)
(-0.000197808 -3.97247e-05 0)
(-0.0002745 -5.36083e-05 0)
(-0.000315134 -6.41357e-05 0)
(-0.000313922 -7.13492e-05 0)
(-0.000271796 -7.44793e-05 0)
(-0.000197168 -7.45608e-05 0)
(-0.000105919 -7.25057e-05 0)
(-1.46503e-05 -6.64689e-05 0)
(6.33496e-05 -5.5781e-05 0)
(0.000119505 -4.24311e-05 0)
(0.000150184 -2.98491e-05 0)
(0.000162528 -2.1431e-05 0)
(0.00017819 -1.94978e-05 0)
(0.000219292 -2.68016e-05 0)
(0 0 0)
(-0.000109873 -1.17207e-05 0)
(-0.000216615 -2.19188e-05 0)
(-0.000302804 -2.95831e-05 0)
(-0.000352938 -3.55846e-05 0)
(-0.000360336 -3.9694e-05 0)
(-0.000324243 -4.10954e-05 0)
(-0.000252863 -4.11349e-05 0)
(-0.000161625 -4.03876e-05 0)
(-6.94591e-05 -3.74291e-05 0)
(1.00745e-05 -3.09387e-05 0)
(6.85389e-05 -2.27921e-05 0)
(0.00010522 -1.56287e-05 0)
(0.000125935 -1.16176e-05 0)
(0.00014997 -1.14458e-05 0)
(0.00019366 -1.62396e-05 0)
(0 0 0)
(-0.000114221 0 0)
(-0.000222584 0 0)
(-0.000310506 0 0)
(-0.000364033 0 0)
(-0.000374862 0 0)
(-0.00034199 0 0)
(-0.000272661 0 0)
(-0.000183137 0 0)
(-9.21831e-05 0 0)
(-1.36548e-05 0 0)
(4.37687e-05 0 0)
(8.01439e-05 0 0)
(0.00010543 0 0)
(0.000134114 0 0)
(0.000180219 0 0)
(7.6597e-05 3.04033e-06 1.01809e-05)
(3.25016e-05 -9.15379e-06 -1.56909e-06)
(4.86075e-05 -1.30657e-05 2.33588e-06)
(2.39558e-05 -1.02722e-05 -9.04387e-06)
(6.05532e-05 -1.48403e-05 -1.70899e-06)
(2.43321e-05 -1.15979e-05 -1.1525e-05)
(5.6715e-05 -1.1884e-05 -2.78566e-06)
(3.65835e-05 -1.40582e-05 -6.43941e-06)
(3.78059e-05 -1.03842e-05 -3.48553e-06)
(7.65938e-05 -1.51727e-05 -1.93088e-06)
(5.14383e-05 -1.41292e-05 5.65824e-07)
(4.52489e-05 -1.29946e-05 -2.59641e-06)
(1.17816e-05 -1.82256e-06 -1.82645e-05)
(5.32676e-05 -1.20058e-05 3.06724e-06)
(2.23669e-05 -1.27173e-05 -9.61356e-06)
(3.92081e-05 -1.33983e-05 -1.07548e-05)
(4.02038e-05 -9.49654e-06 3.22067e-06)
(4.30591e-05 -9.23634e-06 4.58681e-06)
(5.89702e-05 -1.15788e-05 4.72408e-06)
(6.87561e-05 -6.98563e-06 3.5934e-06)
(3.5606e-05 -1.42284e-05 -3.66622e-06)
(5.93427e-05 -1.129e-05 6.29619e-07)
(4.0694e-05 -1.3155e-05 -2.77836e-06)
(6.25846e-05 -1.10359e-05 1.40783e-06)
(-4.46508e-07 8.49326e-06 -2.2806e-05)
(2.32127e-05 -1.02657e-05 -4.41491e-06)
(-9.12082e-06 2.60501e-06 -2.04459e-05)
(2.32333e-05 7.75997e-06 -2.32101e-05)
(-7.50994e-06 -6.46686e-06 -1.71064e-05)
(1.01089e-05 -7.50391e-06 -7.34596e-06)
(2.80246e-05 -9.16491e-06 -3.10106e-06)
(3.47679e-05 -1.24801e-05 -1.03019e-06)
(2.14016e-05 -9.82016e-06 -7.9528e-06)
(3.93791e-05 -1.21893e-05 -5.28046e-06)
(5.76304e-05 -1.69407e-05 -1.63181e-06)
(6.50852e-05 -1.64905e-05 -1.29021e-06)
(5.81918e-05 -1.35522e-05 1.5425e-06)
(6.42478e-05 -1.72306e-05 -1.78684e-06)
(-9.03482e-06 -3.59139e-06 -1.69131e-05)
(-1.39774e-05 -1.66735e-06 -2.49833e-05)
(1.69794e-05 -5.20111e-06 -1.17039e-05)
(5.53776e-05 3.60403e-07 -2.02679e-05)
(2.03677e-05 -1.22233e-05 -1.24644e-05)
(5.24881e-05 -1.17697e-05 -3.01876e-06)
(2.49611e-05 -2.0652e-06 -2.1636e-05)
(1.41938e-05 -7.31392e-06 -2.00322e-05)
(3.60574e-05 -8.8203e-06 -1.85209e-05)
(2.1784e-05 -1.05704e-05 -1.16967e-05)
(2.42437e-05 -1.10261e-05 -1.23738e-05)
(2.712e-05 -1.32209e-05 -1.02514e-05)
(3.74609e-05 -1.20869e-05 -8.3763e-06)
(5.27505e-05 -1.46279e-05 -8.67239e-06)
(5.36126e-05 -1.34017e-05 -2.49163e-06)
(5.43705e-05 -1.26169e-05 -3.03384e-06)
(4.36425e-05 -1.38826e-05 -4.52172e-06)
(1.23835e-05 -6.42247e-06 -1.94032e-05)
(6.56495e-05 -9.88782e-06 -1.78011e-05)
(7.97204e-05 -1.77983e-05 -1.09573e-05)
(7.01468e-05 -1.26876e-05 -1.63079e-05)
(6.42672e-05 -1.15954e-05 5.14092e-06)
(6.29703e-05 -9.40623e-06 5.12616e-06)
(7.67154e-05 -5.53994e-06 4.14157e-06)
(7.0899e-05 -1.06e-05 6.5374e-06)
(6.00272e-05 -1.03551e-05 3.56594e-06)
(5.92246e-05 -8.08593e-06 6.69706e-06)
(2.65154e-05 -7.14864e-06 -1.23219e-06)
(5.95282e-05 -7.757e-06 7.30152e-06)
(3.92543e-05 -9.45689e-06 -1.61495e-06)
(2.93497e-05 -1.14855e-05 -5.94335e-06)
(4.31707e-05 -1.09919e-05 2.52057e-06)
(6.58977e-05 -7.08402e-06 8.18812e-06)
(5.41281e-05 -1.32495e-05 2.19901e-06)
(3.45961e-05 -1.03476e-05 -4.88114e-06)
(3.9519e-05 -1.32127e-05 -2.95908e-06)
(7.01589e-05 -1.25427e-05 -1.20805e-06)
(5.88829e-05 -1.3332e-05 5.62589e-07)
(3.99624e-05 -1.39829e-05 -3.92782e-06)
(2.95843e-05 -1.1476e-05 -7.42317e-06)
(3.3227e-05 -1.35661e-05 -6.4887e-06)
(6.83688e-05 -1.14639e-05 -1.84476e-06)
(5.34844e-05 -1.1928e-05 -1.59287e-06)
(4.32937e-05 -1.4156e-05 -2.73315e-06)
(4.35029e-05 -1.33457e-05 -3.56372e-06)
(-4.16518e-06 -1.20718e-07 -1.77954e-05)
(1.79803e-05 -8.32993e-06 -4.01847e-06)
(2.20151e-05 -7.28055e-06 -2.79181e-06)
(1.9991e-05 -1.20469e-05 -8.08087e-06)
(2.97417e-05 -1.03315e-05 -6.49777e-07)
(5.2685e-05 -1.21615e-05 1.68257e-06)
(2.85359e-05 4.67321e-06 -2.13621e-05)
(2.92352e-05 -1.07372e-05 -4.52489e-06)
(9.79382e-06 -2.55662e-07 -1.99304e-05)
(2.61262e-05 -4.14863e-06 -1.94148e-05)
(3.4824e-05 -9.57308e-06 -3.17417e-06)
(2.3705e-05 -1.23023e-05 -9.09893e-06)
(2.83063e-05 -1.1078e-05 -8.50121e-06)
(4.7444e-05 -1.14161e-05 3.22324e-06)
(6.72539e-05 -8.72808e-06 7.02668e-06)
(6.84898e-05 -7.39877e-06 7.61498e-06)
(5.01144e-05 -1.27896e-05 1.16472e-06)
(5.03161e-06 -7.2894e-06 -1.7446e-05)
(3.91432e-05 -1.23163e-05 -5.99205e-06)
(1.24181e-07 -5.47095e-06 -1.76057e-05)
(2.42959e-05 -1.161e-05 -1.29863e-05)
(4.02985e-05 -1.30076e-05 -1.30123e-06)
(6.11231e-05 -1.32118e-05 1.30663e-06)
(3.27275e-05 -1.34067e-05 -6.34021e-06)
(5.07671e-05 -1.36917e-05 -1.61684e-06)
(3.4862e-05 -1.00817e-05 -1.64088e-05)
(5.23367e-05 -1.46165e-05 -6.82133e-06)
(4.07576e-05 -1.2606e-05 -1.27517e-05)
(6.66097e-05 -1.33994e-05 -1.43059e-05)
(2.84613e-05 -1.4337e-05 -7.74082e-06)
(4.83737e-05 -1.27335e-05 -2.53485e-06)
(3.25311e-05 -1.33391e-05 -7.41883e-06)
(5.09145e-05 -1.27086e-05 -2.31555e-06)
(5.2156e-05 -5.32236e-06 7.43109e-06)
(5.84863e-05 -4.69306e-06 8.27204e-06)
(5.18608e-05 -1.09549e-05 4.77835e-06)
(6.33976e-05 -6.068e-06 3.85216e-06)
(7.44265e-05 -7.85472e-06 8.34444e-06)
(5.5721e-05 -1.20633e-05 2.51359e-06)
(7.22703e-05 -7.97279e-06 3.49685e-06)
(6.97236e-05 -1.6185e-05 -1.45471e-06)
(5.08346e-05 -1.3178e-05 6.32395e-07)
(4.45781e-05 -1.25688e-05 -9.47913e-07)
(6.80529e-05 -8.78644e-06 2.30932e-06)
(6.15499e-05 -1.07808e-05 -2.05805e-06)
(5.56089e-05 -1.22172e-05 1.65844e-06)
(6.31847e-05 -1.17256e-05 -1.57159e-06)
(8.24661e-05 -8.33921e-06 9.50058e-06)
(7.68909e-05 -6.78201e-06 9.85498e-06)
(6.63747e-05 -6.95184e-06 9.29093e-06)
(5.41622e-05 -8.18304e-06 5.13086e-07)
(5.60932e-05 8.11196e-07 6.28028e-06)
(6.76418e-05 -7.46174e-06 1.03651e-05)
(6.24011e-05 -8.05201e-06 1.5563e-06)
(6.28644e-05 8.31948e-07 7.27515e-06)
(6.88297e-05 -1.35011e-06 6.63752e-06)
(6.03793e-05 -9.29252e-06 7.42743e-07)
(6.25123e-05 -4.35163e-07 6.41349e-06)
(6.66222e-05 -9.87003e-06 9.6922e-07)
(8.5803e-05 -8.88883e-06 1.05622e-05)
(8.05724e-05 -6.96403e-06 1.11075e-05)
(7.53536e-05 -1.2933e-06 7.00377e-06)
(6.8497e-05 -9.16712e-06 1.37719e-06)
(6.9202e-05 -4.2455e-07 7.12214e-06)
(7.45067e-05 -9.78485e-06 1.21416e-06)
(5.78398e-05 -1.14876e-05 3.74574e-06)
(6.99482e-05 -7.91346e-06 5.05769e-06)
(7.22438e-05 -9.12865e-06 6.30916e-07)
(6.20008e-05 -1.07775e-05 4.73113e-06)
(7.29353e-05 -7.38971e-06 5.9133e-06)
(7.43591e-05 -9.19529e-06 1.22237e-06)
(8.27539e-05 -6.32735e-06 9.29126e-06)
(7.54997e-05 -4.49645e-06 9.06232e-06)
(7.67843e-05 -1.15192e-06 7.1667e-06)
(8.62037e-05 -6.24948e-06 1.00966e-05)
(7.04818e-05 -6.09422e-06 7.39481e-06)
(5.81928e-05 -1.3866e-05 -2.22925e-06)
(6.60251e-05 -1.37521e-05 -1.46241e-06)
(7.49499e-05 -1.18607e-06 1.04784e-05)
(6.73642e-05 -9.06937e-07 1.0217e-05)
(7.95305e-05 -1.51271e-06 1.15395e-05)
(7.66445e-05 -1.02507e-05 1.10321e-06)
(7.6281e-05 -1.40828e-05 -1.98622e-06)
(8.21252e-05 -1.41703e-05 -1.77076e-06)
(7.39355e-05 -1.28683e-05 -1.82768e-06)
(5.34298e-05 -1.13799e-05 3.94487e-06)
(6.99762e-05 -1.12412e-05 7.11899e-06)
(6.5681e-05 -8.93351e-06 6.60007e-06)
(5.68881e-05 -1.20346e-05 3.30552e-06)
(4.50973e-05 -1.1284e-05 3.58804e-06)
(4.97409e-05 -6.91997e-06 6.35566e-06)
(5.15979e-05 -6.87202e-06 7.48856e-06)
(5.69389e-05 -8.44067e-06 8.3432e-06)
(4.73562e-05 -1.1276e-05 4.8671e-06)
(6.03348e-05 -5.73781e-06 3.93347e-06)
(6.36379e-05 -5.00712e-06 3.63684e-06)
(6.95406e-05 -8.89103e-06 7.90901e-06)
(5.93653e-05 -1.0728e-05 5.73096e-06)
(7.53747e-05 -1.13361e-05 8.7249e-06)
(6.24669e-05 -1.1692e-05 4.83732e-06)
(6.56509e-05 -6.37693e-06 3.7028e-06)
(7.13683e-05 -4.96519e-06 4.12979e-06)
(6.94714e-05 -4.04729e-06 6.13678e-06)
(7.03342e-05 -7.06898e-06 3.49776e-06)
(6.84637e-05 -1.18631e-05 1.18998e-06)
(4.3872e-05 -1.34731e-05 -6.48741e-07)
(4.44707e-05 -1.40704e-05 -6.38343e-07)
(4.17775e-05 -1.32344e-05 -1.49275e-06)
(6.43849e-05 -1.02225e-05 1.96329e-06)
(5.70871e-05 -1.18841e-05 1.56734e-06)
(6.60639e-05 -9.443e-06 1.9337e-06)
(6.19267e-05 -1.07389e-05 -3.98329e-07)
(4.96206e-05 -1.24284e-05 5.74565e-07)
(4.63786e-05 -1.23168e-05 -5.37464e-07)
(4.98312e-05 -1.30364e-05 4.46883e-07)
(6.86805e-05 -9.72779e-06 2.87535e-06)
(6.8439e-05 -9.16774e-06 2.57271e-06)
(6.14321e-05 -1.10672e-05 2.5738e-06)
(6.4335e-05 -1.10901e-05 2.71552e-07)
(6.21057e-05 -1.59354e-05 -1.1638e-06)
(6.36017e-05 -1.15335e-05 1.43455e-06)
(6.73369e-05 -1.61143e-05 -1.39496e-06)
(8.3585e-05 -2.61744e-06 1.07233e-05)
(7.5818e-05 -1.33053e-06 1.04544e-05)
(8.82555e-05 -3.08708e-06 1.15645e-05)
(6.96508e-05 -9.38795e-06 6.86096e-06)
(6.41851e-05 -1.24852e-05 4.87361e-06)
(5.73004e-05 -1.25039e-05 3.02497e-06)
(7.14173e-05 -7.62875e-06 7.69296e-06)
(6.0805e-05 -1.04915e-05 4.37606e-06)
(6.49559e-05 -1.01156e-05 5.50809e-06)
(5.52885e-05 -1.09657e-05 2.90845e-06)
(7.55239e-05 -6.23218e-06 4.00644e-06)
(8.21715e-05 -6.16578e-06 4.34824e-06)
(7.45278e-05 -6.65718e-06 3.77514e-06)
(7.66473e-05 -8.56325e-06 8.12804e-06)
(6.96649e-05 -1.2041e-05 6.28633e-06)
(7.17777e-05 -7.25687e-06 5.53864e-06)
(6.33235e-05 -1.13537e-05 4.36941e-06)
(5.77582e-05 -1.13761e-05 2.94796e-06)
(5.43175e-05 -1.17643e-05 2.51523e-06)
(6.71684e-05 -8.23569e-06 4.26034e-06)
(6.14092e-05 -1.05618e-05 3.83023e-06)
(6.2499e-05 -1.0574e-05 7.02407e-06)
(6.46117e-05 -7.66244e-06 7.16577e-06)
(5.6319e-05 -7.08707e-06 6.7617e-06)
(5.80039e-05 -8.94388e-06 6.44214e-06)
(6.72778e-05 -6.67266e-06 8.30341e-06)
(5.63844e-05 -7.39938e-06 7.64422e-06)
(6.11132e-05 -8.63774e-06 7.76045e-06)
(5.74721e-05 -4.04192e-06 3.41233e-06)
(6.5336e-05 -3.96864e-06 4.29829e-06)
(6.44565e-05 -1.4594e-05 -1.98189e-06)
(7.20888e-05 -1.45234e-05 -1.65954e-06)
(6.50721e-05 -1.05342e-05 -1.86792e-06)
(6.16735e-05 -6.38768e-06 8.16925e-06)
(6.66958e-05 -1.04823e-05 8.61276e-06)
(6.34431e-05 -3.04645e-06 6.26019e-06)
(7.19779e-05 -6.61492e-06 8.5771e-06)
(7.19329e-05 -1.03901e-05 1.21846e-06)
(7.0981e-05 -1.50442e-05 -1.42474e-06)
(6.66716e-05 -1.13765e-05 -1.16906e-06)
(6.99521e-05 -9.72161e-06 4.84632e-07)
(6.68171e-05 -1.08912e-05 -1.95505e-06)
(6.80799e-05 -1.1478e-05 -1.55013e-06)
(6.06655e-05 -1.09885e-05 1.54287e-06)
(6.5729e-05 -1.13036e-05 1.29987e-06)
(8.13089e-05 -7.1412e-06 9.98512e-06)
(7.20348e-05 -1.1779e-05 6.90284e-06)
(6.74218e-05 -9.24312e-06 6.36193e-06)
(8.72146e-05 -3.4842e-06 1.07476e-05)
(7.80677e-05 -1.87541e-06 1.02205e-05)
(7.46521e-05 -9.3254e-06 7.62178e-06)
(6.78923e-05 -1.04812e-05 7.45262e-06)
(6.35903e-05 -8.49342e-06 6.96068e-06)
(7.20224e-05 -6.58591e-06 9.64517e-06)
(7.95779e-05 -1.69002e-06 1.06527e-05)
(7.2221e-05 -6.00779e-07 1.04354e-05)
(6.13306e-05 -1.42959e-05 -2.09732e-06)
(6.76574e-05 -1.47358e-05 -1.88568e-06)
(5.87413e-05 -1.01524e-05 7.04913e-06)
(5.38651e-05 -8.98148e-06 6.41251e-06)
(7.07021e-05 -4.85574e-07 1.04361e-05)
(6.30884e-05 -4.47112e-07 1.01316e-05)
(5.43455e-05 -3.38843e-06 3.32343e-06)
(5.50455e-05 -1.32074e-05 -2.3467e-06)
(5.72998e-05 -8.77531e-06 6.23321e-07)
(5.93484e-05 1.56619e-07 6.33291e-06)
(5.53726e-05 -9.0202e-06 7.5042e-06)
(6.08915e-05 -1.05322e-05 8.38074e-06)
(7.47274e-05 -8.66432e-07 1.15053e-05)
(7.49723e-05 -6.7456e-06 1.0869e-05)
(6.22262e-05 -3.31283e-06 4.38002e-06)
(6.28826e-05 -1.31191e-05 -1.37658e-06)
(6.54324e-05 -8.61511e-06 1.46978e-06)
(5.9765e-05 -2.7284e-06 6.26539e-06)
(6.60761e-05 1.74161e-07 7.19785e-06)
(6.56748e-05 -9.17561e-07 6.51736e-06)
(6.67825e-05 -5.28299e-06 3.75576e-06)
(7.68933e-05 -3.23194e-06 6.91383e-06)
(6.05694e-05 -4.57173e-06 3.51399e-06)
(6.3472e-05 -9.63185e-06 8.61286e-07)
(7.56435e-05 -1.0265e-05 1.05071e-06)
(8.47875e-05 -7.64995e-06 1.1101e-05)
(7.12139e-05 -9.25372e-06 7.55718e-06)
(7.7381e-05 -1.18876e-05 8.41765e-06)
(9.17674e-05 -3.95039e-06 1.14757e-05)
(7.81736e-05 -9.23795e-06 8.60747e-06)
(6.77495e-05 -8.10578e-06 8.37081e-06)
(7.34422e-05 -1.02083e-05 9.16279e-06)
(8.43786e-05 -2.05599e-06 1.16186e-05)
(7.22641e-05 -9.24707e-07 7.05088e-06)
(7.43728e-05 -5.2673e-06 4.06812e-06)
(7.1455e-05 -4.83908e-06 5.94037e-06)
(8.26456e-05 -3.01891e-06 7.36919e-06)
(6.83305e-05 -4.51249e-06 4.21101e-06)
(7.14388e-05 -9.50737e-06 1.289e-06)
(6.90674e-05 -1.4196e-05 -1.56195e-06)
(6.65191e-05 -3.4823e-06 6.21813e-06)
(6.99874e-05 -1.10387e-05 1.16114e-06)
(8.24519e-05 -1.02136e-05 1.31075e-06)
(7.5099e-05 -1.46683e-05 -1.74494e-06)
(5.32015e-05 -1.30538e-05 2.13494e-06)
(5.1143e-05 -1.20561e-05 1.71569e-06)
(5.03864e-05 -1.27329e-05 1.39168e-06)
(6.68538e-05 -9.48999e-06 5.72477e-06)
(6.35875e-05 -9.3506e-06 5.60077e-06)
(6.13757e-05 -1.10266e-05 3.00079e-06)
(7.19046e-05 -7.83455e-06 3.12129e-06)
(6.39329e-05 -9.6109e-06 3.4128e-06)
(7.37448e-05 -4.67277e-06 6.30451e-06)
(6.54007e-05 -1.01974e-05 1.8686e-07)
(6.76613e-05 -9.85459e-06 1.83895e-07)
(7.47181e-05 -9.65895e-06 9.92882e-07)
(7.14046e-05 -1.06448e-05 -1.95977e-06)
(5.56666e-05 -1.12719e-05 2.75763e-06)
(5.88431e-05 -1.20693e-05 3.4451e-06)
(5.46965e-05 -1.18116e-05 2.33285e-06)
(7.03812e-05 -8.80535e-06 6.65669e-06)
(7.48865e-05 -7.58118e-06 3.78424e-06)
(6.69152e-05 -9.87059e-06 4.19632e-06)
(6.69145e-05 -9.00378e-06 4.19371e-06)
(6.87637e-05 -1.04488e-05 9.40551e-07)
(6.93851e-05 -9.99221e-06 7.06963e-07)
(7.26147e-05 -1.11196e-05 -1.4163e-06)
(9.28296e-05 -2.18734e-06 1.19789e-05)
(8.16882e-05 3.14458e-07 1.20198e-05)
(7.70618e-05 9.05003e-07 1.19332e-05)
(5.98523e-05 3.20223e-06 8.21059e-06)
(7.97414e-05 2.9723e-07 1.27178e-05)
(6.52786e-05 3.11213e-06 8.99537e-06)
(7.27223e-05 1.09692e-06 8.50258e-06)
(6.31061e-05 2.51917e-06 8.24003e-06)
(9.5642e-05 -2.7569e-06 1.25094e-05)
(8.49818e-05 -1.39275e-07 1.28267e-05)
(7.7932e-05 1.14503e-06 8.75548e-06)
(6.84858e-05 2.42057e-06 8.90919e-06)
(7.3373e-05 -7.24812e-06 8.05554e-06)
(7.62638e-05 -3.21456e-06 8.09387e-06)
(7.47923e-05 -1.14683e-05 -5.08827e-07)
(7.5288e-05 -7.07767e-06 8.6047e-06)
(7.89023e-05 -3.02213e-06 8.55049e-06)
(7.77743e-05 -1.14959e-05 -2.77722e-07)
(9.02752e-05 -1.28161e-06 1.21693e-05)
(8.63353e-05 -3.10268e-07 1.21454e-05)
(6.95017e-05 1.46225e-06 8.40135e-06)
(6.63198e-05 1.93835e-06 8.30174e-06)
(9.34391e-05 -2.02319e-06 1.28022e-05)
(8.95563e-05 -9.7887e-07 1.2853e-05)
(7.47563e-05 1.37536e-06 8.78363e-06)
(7.16391e-05 1.82664e-06 8.83769e-06)
(7.48154e-05 -4.54085e-06 5.34086e-06)
(7.46489e-05 -7.83241e-06 2.44454e-06)
(7.79871e-05 -4.46589e-06 5.68264e-06)
(7.85467e-05 -7.82871e-06 2.72011e-06)
(7.48778e-05 2.52856e-06 9.85227e-06)
(8.00239e-05 3.22092e-07 1.06302e-05)
(7.69511e-05 9.99359e-07 8.71714e-06)
(7.83499e-05 2.72492e-06 1.00119e-05)
(7.53193e-05 -1.7861e-06 9.27067e-06)
(6.24086e-05 4.47396e-06 9.43507e-06)
(6.54601e-05 4.3165e-06 1.04979e-05)
(6.60745e-05 4.38555e-06 9.93622e-06)
(7.66188e-05 -1.26996e-05 -4.14959e-07)
(7.39318e-05 -1.52015e-05 -1.9144e-06)
(7.92594e-05 -1.51572e-05 -1.9204e-06)
(7.58446e-05 -1.43779e-05 -1.89316e-06)
(6.88284e-05 3.27004e-06 9.49485e-06)
(7.22777e-05 3.18701e-06 1.05038e-05)
(7.24098e-05 3.17079e-06 9.8151e-06)
(7.67524e-05 -3.32376e-06 5.65857e-06)
(7.66756e-05 -7.8521e-06 2.62276e-06)
(7.41442e-05 -5.52951e-06 4.06977e-06)
(7.92663e-05 -5.56494e-06 4.20007e-06)
(7.6189e-05 -5.81664e-06 4.08096e-06)
(8.43941e-05 -7.26005e-06 1.02497e-05)
(9.979e-05 -6.90869e-06 1.24239e-05)
(8.30996e-05 -3.76506e-06 1.05711e-05)
(8.34033e-05 -8.18452e-06 9.41686e-06)
(8.14603e-05 -6.27579e-06 1.04019e-05)
(7.5897e-05 -6.04715e-06 1.00828e-05)
(9.16988e-05 -4.69031e-06 1.24819e-05)
(7.66419e-05 -2.26148e-06 1.07183e-05)
(7.09898e-05 -6.49126e-06 9.84235e-06)
(8.06775e-05 -3.69283e-06 1.20863e-05)
(6.67396e-05 -2.29909e-06 1.02683e-05)
(5.41812e-05 -5.7512e-06 1.91675e-06)
(5.43478e-05 -1.0635e-05 -8.97427e-07)
(5.57344e-05 -8.50196e-06 5.66802e-07)
(5.79907e-05 1.89307e-06 7.75692e-06)
(5.48178e-05 -1.14962e-06 4.76622e-06)
(5.77195e-05 4.67769e-07 6.30221e-06)
(6.78872e-05 -2.58674e-06 1.09796e-05)
(8.28778e-05 -4.63382e-06 1.32232e-05)
(7.2587e-05 -7.12129e-06 1.09163e-05)
(6.23502e-05 -5.63647e-06 2.9754e-06)
(6.24377e-05 -1.04985e-05 1.11706e-07)
(6.39331e-05 -8.35456e-06 1.51491e-06)
(6.3767e-05 1.95561e-06 8.70343e-06)
(6.22449e-05 -1.1126e-06 5.80228e-06)
(6.44823e-05 4.89338e-07 7.23689e-06)
(7.14799e-05 -2.67633e-07 8.08881e-06)
(6.72234e-05 -1.13479e-06 6.57788e-06)
(6.73e-05 -3.17421e-06 5.16847e-06)
(7.06967e-05 -1.64374e-06 6.68669e-06)
(6.05765e-05 -1.17295e-05 -6.56125e-07)
(5.88436e-05 -9.0438e-06 6.82021e-07)
(6.03978e-05 -6.89426e-06 2.13007e-06)
(6.19252e-05 -9.48355e-06 8.03519e-07)
(6.47985e-05 8.22198e-07 7.88872e-06)
(6.09366e-05 -1.49381e-07 6.3701e-06)
(6.41036e-05 -6.88e-07 6.46218e-06)
(6.10819e-05 -2.37459e-06 4.92788e-06)
(6.68451e-05 -1.22498e-05 -4.39307e-07)
(6.66269e-05 -7.53433e-06 2.36522e-06)
(6.50092e-05 -9.76236e-06 9.17028e-07)
(6.86062e-05 -9.95686e-06 1.01061e-06)
(8.5218e-05 -4.24642e-06 1.11665e-05)
(8.75902e-05 -7.9585e-06 1.12899e-05)
(0.000103318 -8.04538e-06 1.33948e-05)
(8.66876e-05 -8.62502e-06 1.0384e-05)
(7.90457e-05 -2.5031e-06 1.14611e-05)
(7.96132e-05 -6.01907e-06 1.13716e-05)
(8.48578e-05 -6.79926e-06 1.1514e-05)
(9.55598e-05 -5.5348e-06 1.36652e-05)
(7.71728e-05 -1.53127e-07 8.51261e-06)
(7.37908e-05 -1.1242e-06 7.0234e-06)
(7.44653e-05 -3.15429e-06 5.50724e-06)
(7.71302e-05 -1.52369e-06 7.00222e-06)
(6.69644e-05 -8.8988e-06 1.42361e-06)
(6.8445e-05 -6.79201e-06 2.80075e-06)
(6.99789e-05 -9.36017e-06 1.33148e-06)
(6.85538e-05 -1.15875e-05 -7.00368e-08)
(6.76473e-05 -1.35737e-07 7.15908e-06)
(7.07071e-05 8.90513e-07 8.60542e-06)
(7.07385e-05 -6.88587e-07 7.08459e-06)
(6.83929e-05 -2.35485e-06 5.63802e-06)
(7.44624e-05 -7.48219e-06 2.64749e-06)
(7.29361e-05 -9.65622e-06 1.24965e-06)
(7.63941e-05 -9.88259e-06 1.18914e-06)
(7.45632e-05 -1.21417e-05 -2.43579e-07)
(6.63954e-05 -1.01899e-05 5.98744e-06)
(6.40015e-05 -1.05054e-05 5.35705e-06)
(6.20943e-05 -9.83732e-06 5.23234e-06)
(7.48467e-05 -6.26809e-06 6.10217e-06)
(6.94109e-05 -8.26176e-06 5.91029e-06)
(7.18265e-05 -7.33041e-06 4.32732e-06)
(7.29662e-05 -5.49374e-06 6.05758e-06)
(7.59933e-05 -9.33652e-06 8.65724e-07)
(7.27599e-05 -8.3557e-06 2.00137e-06)
(7.41307e-05 -9.33753e-06 8.51557e-07)
(7.24059e-05 -9.77443e-06 -6.80488e-07)
(6.99498e-05 -9.77242e-06 6.93769e-06)
(6.47206e-05 -9.34647e-06 5.83048e-06)
(6.76192e-05 -9.93187e-06 6.28565e-06)
(7.84742e-05 -5.88098e-06 6.9079e-06)
(7.49442e-05 -5.26618e-06 6.52604e-06)
(7.26912e-05 -7.60218e-06 6.8356e-06)
(7.47417e-05 -6.95005e-06 5.08726e-06)
(7.96123e-05 -9.34238e-06 1.40628e-06)
(7.59191e-05 -9.3704e-06 1.17342e-06)
(7.56731e-05 -8.24372e-06 2.60916e-06)
(7.39524e-05 -1.00253e-05 -9.19226e-08)
(7.19838e-05 2.85299e-06 9.57425e-06)
(7.54201e-05 2.78247e-06 1.05022e-05)
(7.55254e-05 2.79352e-06 9.7827e-06)
(8.82875e-05 -3.79915e-06 1.06275e-05)
(8.75642e-05 -8.26243e-06 9.97009e-06)
(7.79305e-05 -3.49485e-06 8.12107e-06)
(7.32338e-05 -8.2092e-06 7.33086e-06)
(7.83807e-05 -1.74843e-06 1.00872e-05)
(7.78636e-05 -5.76406e-06 9.07256e-06)
(7.99189e-05 -5.76891e-06 9.61331e-06)