/*--------------------------------*- C++ -*----------------------------------*\
| =========                 |                                                 |
| \\      /  F ield         | OpenFOAM: The Open Source CFD Toolbox           |
|  \\    /   O peration     | Version:  2012                                  |
|   \\  /    A nd           | Website:  www.openfoam.com                      |
|    \\/     M anipulation  |                                                 |
\*---------------------------------------------------------------------------*/
FoamFile
{
    version     2.0;
    format      ascii;
    class       volVectorField;
    location    "0.105/fluid";
    object      U;
}
// * * * * * * * * * * * * * * * * * * * * * * * * * * * * * * * * * * * * * //

dimensions      [0 1 -1 0 0 0 0];


internalField   nonuniform List<vector> 
16422
(
(1.19995 3.56304e-06 7.65466e-06)
(1.19989 7.51782e-05 9.68361e-05)
(1.19976 0.000130824 0.000126434)
(1.19998 0.000184042 0.000157124)
(1.20005 0.000267226 0.000215445)
(1.20008 0.000394158 0.000310569)
(1.20013 0.000586227 0.00045607)
(1.20021 0.000872726 0.000674424)
(1.20035 0.00129982 0.00100134)
(1.20057 0.0019217 0.00146273)
(1.20095 0.00279691 0.00212186)
(1.20155 0.00397763 0.00306411)
(1.20216 0.00564247 0.00449652)
(1.20167 0.00969354 0.00719796)
(1.20711 0.0301349 0.0119169)
(1.19995 1.53737e-06 7.4977e-06)
(1.1999 5.13627e-05 9.45207e-05)
(1.19979 9.5414e-05 0.000120583)
(1.20004 0.000140026 0.000148101)
(1.20014 0.000203638 0.000199385)
(1.20023 0.000298912 0.000281547)
(1.20035 0.000443372 0.000405679)
(1.20054 0.000653824 0.000582791)
(1.20082 0.00096325 0.000835606)
(1.20125 0.00141029 0.00117563)
(1.2019 0.00203169 0.00162243)
(1.20287 0.00289133 0.00219193)
(1.20433 0.00412429 0.0028726)
(1.20684 0.00589196 0.00351108)
(1.2118 0.00620768 0.00332297)
(1.19995 -6.16597e-06 7.33184e-06)
(1.19991 -2.81848e-06 9.17892e-05)
(1.19982 3.55584e-05 0.000117379)
(1.20007 6.2059e-05 0.000142292)
(1.2002 9.75743e-05 0.000189476)
(1.20032 0.00015008 0.000263831)
(1.20049 0.000221884 0.000372864)
(1.20074 0.000329966 0.000524578)
(1.20112 0.000483704 0.000729745)
(1.20167 0.000703781 0.000990229)
(1.20248 0.00100852 0.001302)
(1.20366 0.00141358 0.00163505)
(1.20534 0.00190608 0.0019022)
(1.20766 0.00226913 0.00190256)
(1.21007 0.00149685 0.0013602)
(1.19995 3.47306e-06 6.69453e-06)
(1.1999 7.23232e-05 8.84796e-05)
(1.19979 0.000123659 0.000122809)
(1.20004 0.000174537 0.000152476)
(1.20014 0.000248924 0.000207396)
(1.20021 0.000361832 0.000298385)
(1.20033 0.000527455 0.000438729)
(1.20049 0.000768116 0.000647228)
(1.20075 0.0011159 0.000952958)
(1.20116 0.00160153 0.00138992)
(1.20179 0.00224583 0.00199148)
(1.20276 0.00304258 0.00282457)
(1.2042 0.0039423 0.00404911)
(1.20652 0.00501869 0.00615702)
(1.21303 0.00592857 0.00907879)
(1.19995 1.4514e-06 6.60499e-06)
(1.19991 4.92878e-05 8.72146e-05)
(1.19982 8.93665e-05 0.000115739)
(1.20009 0.000131574 0.000143034)
(1.20022 0.000189706 0.000191775)
(1.20034 0.0002751 0.000271547)
(1.20051 0.000400564 0.000387858)
(1.20077 0.000578039 0.000559962)
(1.20114 0.000826544 0.000798595)
(1.20168 0.0011699 0.00111919)
(1.20246 0.00161894 0.00153036)
(1.20356 0.00217365 0.00203755)
(1.20512 0.00280997 0.00262156)
(1.20742 0.00336116 0.00311709)
(1.21057 0.00261608 0.00280986)
(1.19995 -6.29047e-06 6.47282e-06)
(1.19992 -5.39083e-06 8.56833e-05)
(1.19984 3.3903e-05 0.000111934)
(1.20012 5.747e-05 0.000137029)
(1.20027 9.01e-05 0.000181183)
(1.20042 0.000136155 0.000252911)
(1.20064 0.000200187 0.000357925)
(1.20094 0.000292431 0.000505982)
(1.20138 0.000413814 0.000699983)
(1.202 0.000581695 0.000945423)
(1.20286 0.000801181 0.00123616)
(1.20403 0.00106022 0.00153665)
(1.20556 0.00132205 0.00176524)
(1.20745 0.00142122 0.00173533)
(1.2092 0.000858556 0.00119749)
(1.19995 3.39891e-06 3.81393e-06)
(1.19991 7.08793e-05 5.89019e-05)
(1.19982 0.000117574 9.00786e-05)
(1.20009 0.000164835 0.000119703)
(1.20022 0.00023426 0.000159761)
(1.20034 0.000333738 0.000229686)
(1.2005 0.000475828 0.000335927)
(1.20074 0.000678517 0.000497974)
(1.2011 0.000956813 0.000725604)
(1.20165 0.00132854 0.00104901)
(1.20246 0.00178302 0.00148954)
(1.20365 0.00227682 0.00204893)
(1.20538 0.00267279 0.00269171)
(1.20783 0.00267999 0.00319022)
(1.21091 0.00178967 0.0025837)
(1.19995 1.31596e-06 3.70528e-06)
(1.19991 4.80566e-05 5.71238e-05)
(1.19985 8.4878e-05 8.53549e-05)
(1.20014 0.000123208 0.000110588)
(1.20029 0.000176956 0.000148301)
(1.20045 0.000254176 0.000207545)
(1.20066 0.000362908 0.000298387)
(1.20096 0.000512864 0.000429974)
(1.2014 0.000711775 0.000608134)
(1.20203 0.000968408 0.000846861)
(1.2029 0.00127819 0.00115026)
(1.20407 0.00160189 0.0014935)
(1.2056 0.00184833 0.00181539)
(1.20749 0.00181713 0.0019107)
(1.20934 0.00110085 0.0013605)
(1.19995 -6.37306e-06 3.61703e-06)
(1.19992 -6.22266e-06 5.63939e-05)
(1.19987 3.08261e-05 8.2349e-05)
(1.20017 5.33978e-05 0.000104709)
(1.20034 8.27031e-05 0.000139598)
(1.20051 0.000124164 0.000193619)
(1.20076 0.000182454 0.000275029)
(1.20111 0.000260653 0.000387457)
(1.2016 0.000355201 0.000535364)
(1.20226 0.000480999 0.000720711)
(1.20316 0.00063007 0.000935222)
(1.20431 0.000779307 0.00114445)
(1.2057 0.000881345 0.0012794)
(1.20721 0.00083115 0.00120133)
(1.20846 0.000460687 0.000755788)
(1.19995 3.40789e-06 -4.83791e-06)
(1.19992 7.08235e-05 5.95188e-06)
(1.19985 0.000114548 3.51818e-05)
(1.20013 0.000158679 5.50422e-05)
(1.20028 0.000225497 7.83589e-05)
(1.20042 0.000314991 0.000111846)
(1.20062 0.000443748 0.000168524)
(1.2009 0.000621285 0.000251336)
(1.20133 0.000852284 0.000364958)
(1.20195 0.00115104 0.000529417)
(1.20286 0.00148655 0.000747761)
(1.20412 0.00180132 0.00100056)
(1.2058 0.00196379 0.00123426)
(1.20778 0.00176183 0.00128134)
(1.20959 0.000992542 0.000827093)
(1.19995 1.19469e-06 -4.90978e-06)
(1.19992 4.74087e-05 3.88867e-06)
(1.19987 8.25653e-05 3.25425e-05)
(1.20017 0.000117714 5.0465e-05)
(1.20034 0.000169297 7.13962e-05)
(1.20052 0.000240718 9.91399e-05)
(1.20076 0.000339238 0.000148375)
(1.2011 0.00046945 0.000216498)
(1.20157 0.000637959 0.000303196)
(1.20225 0.000840363 0.000425435)
(1.20317 0.0010653 0.000578815)
(1.20436 0.00126093 0.00073544)
(1.20579 0.00133846 0.000853099)
(1.20734 0.00116718 0.000829398)
(1.20861 0.000628424 0.000512705)
(1.19995 -6.44047e-06 -4.90481e-06)
(1.19993 -6.82993e-06 2.31356e-06)
(1.19989 2.87598e-05 3.08886e-05)
(1.2002 5.04346e-05 4.71468e-05)
(1.20038 7.79157e-05 6.71774e-05)
(1.20057 0.00011742 9.24726e-05)
(1.20084 0.000169919 0.000134481)
(1.20122 0.000237833 0.000193596)
(1.20174 0.000318081 0.000264807)
(1.20244 0.0004181 0.000360946)
(1.20335 0.000523955 0.000474739)
(1.20447 0.000611362 0.000572149)
(1.20576 0.000639966 0.000622546)
(1.20704 0.000546005 0.000565048)
(1.20801 0.000279561 0.000334083)
(1.18544 0.0531757 0.0125371)
(1.30791 -0.0526005 -0.00823576)
(1.18767 0.0481599 0.0171731)
(1.30145 -0.0514189 0.00911585)
(1.21274 0.0106411 0.0155146)
(1.23883 -0.00101377 -0.00344768)
(1.19828 0.0101571 0.00758197)
(1.19099 0.0294543 0.0113346)
(1.2066 0.0340962 0.00953351)
(1.27233 0.0164611 0.00142479)
(1.21528 0.0110148 0.00344295)
(1.22598 0.00185671 -0.000248234)
(1.19957 0.00922899 0.0082837)
(1.19334 0.0264044 0.0143466)
(1.20499 0.00589498 0.00794441)
(1.20873 0.00888356 0.0134804)
(1.12833 -0.0228635 0.0253084)
(1.14497 -0.0177278 0.0456214)
(1.26595 0.0153795 -0.00270024)
(1.21466 0.00969912 0.00379635)
(1.22402 0.00133329 -0.00035544)
(1.21232 0.00969379 0.0115574)
(1.22705 -1.56058e-06 -0.000607589)
(1.21265 0.0048177 0.0035781)
(1.21694 0.000901988 -0.00060842)
(1.21426 0.0057977 0.0115175)
(1.22544 -0.00237521 -0.000628108)
(1.21213 0.0021912 0.00383765)
(1.21484 -0.000154193 -5.37858e-05)
(1.12392 -0.0256509 0.0167834)
(1.12312 0.0335779 0.0161234)
(1.20152 0.0869629 0.0124848)
(1.26641 0.0863353 0.0128176)
(1.12769 0.0306326 0.0244923)
(1.20071 0.0813242 0.0199074)
(1.19236 0.0391822 0.0269349)
(1.14444 0.0250556 0.0441216)
(1.20356 0.0694745 0.038189)
(1.26204 0.0838045 0.012487)
(1.28187 -0.0127912 0.00215357)
(1.2548 0.062509 0.0362982)
(1.21021 -0.0192615 0.552673)
(1.20919 -0.00248363 0.0251831)
(1.19715 -0.00730066 0.0451908)
(1.21966 -0.00635296 0.0316322)
(0.931801 -0.00291143 0.378152)
(1.24826 -0.00107624 -0.0129835)
(0.629128 -0.0320509 -0.0665377)
(1.23835 -0.00470437 0.016409)
(1.21787 0.0181158 0.549699)
(1.2113 0.0184037 0.025445)
(1.20869 0.00884138 0.0243094)
(1.22042 0.0123909 0.0162443)
(1.19649 0.0140336 0.0438439)
(1.22325 0.0255458 0.0354673)
(1.21874 0.0108666 0.03082)
(0.942379 0.00141592 0.376808)
(1.25941 -0.0200342 -0.0012001)
(1.24649 0.000922649 -0.0127585)
(1.23212 0.00847653 0.0098279)
(0.647531 0.00767113 -0.0688943)
(1.24287 0.0265801 0.0314405)
(1.23693 0.0069949 0.0160308)
(1.10044 -0.111337 0.0497566)
(1.13729 -0.132343 0.0948881)
(1.11196 -0.0655246 0.118407)
(1.13307 -0.172571 0.0586045)
(1.11473 -0.0771552 0.0723841)
(1.11796 -0.0948103 0.0720483)
(1.09508 -0.123514 0.0379908)
(1.13166 -0.200922 0.0238033)
(1.10142 -0.089159 0.0283348)
(1.09041 -0.128167 0.0218671)
(1.12967 -0.195341 0.0392887)
(1.10321 -0.0852756 0.0440611)
(1.13545 -0.205203 0.0198339)
(1.10129 -0.0910229 0.0219112)
(1.09203 -0.131708 0.0231525)
(1.1083 0.0957488 0.0210532)
(1.13242 0.209112 0.0195758)
(1.09132 0.136664 0.0225417)
(1.54684 -0.122414 -0.0339689)
(1.56415 0.0218612 -0.0194826)
(1.26911 0.254482 0.0155465)
(1.51966 0.0876568 -0.0109893)
(1.10017 0.11636 0.0483219)
(1.11698 0.0707382 0.117117)
(1.13616 0.136367 0.0936553)
(1.12128 0.0821979 0.071649)
(1.13113 0.176742 0.0579071)
(1.11751 0.0995083 0.0705782)
(1.09475 0.12858 0.0371615)
(1.10853 0.0940718 0.0283232)
(1.12902 0.205194 0.0235442)
(1.11006 0.0903241 0.0430762)
(1.09009 0.13338 0.021201)
(1.12744 0.199529 0.0389057)
(1.48399 0.0784544 0.06537)
(1.22526 0.159977 0.11268)
(1.25354 0.228834 0.0535698)
(1.40433 0.0695162 0.0864244)
(1.53667 0.0247327 0.00278037)
(1.54234 -0.123138 0.034478)
(1.5593 0.0211331 0.0420897)
(1.51801 -0.113118 -0.0214109)
(1.49369 0.0874241 0.0117705)
(1.26524 0.252346 0.0238031)
(1.5147 0.0869363 0.0386995)
(1.25791 0.243442 0.0391301)
(1.52692 0.0173209 0.0658166)
(1.43064 -0.0127707 0.0206897)
(1.43526 0.0374286 0.0767922)
(1.51085 -0.113368 0.0429183)
(1.21077 -0.0183331 0.0581828)
(1.2118 -0.0314591 0.0966958)
(1.19807 -0.0211923 0.105035)
(1.2276 -0.00919847 0.0849469)
(1.19347 -0.0321056 0.0704526)
(1.21979 -0.0194325 0.0661313)
(1.20729 -0.00611022 0.0644655)
(1.26808 0.00669288 0.0286604)
(0.0709974 -0.0507751 -0.106795)
(1.26903 -0.00262632 0.0699244)
(1.24255 -0.0124067 0.0532976)
(1.3118 0.00954046 0.0408757)
(1.27649 0.0264253 0.00239345)
(0.128853 -0.040948 -0.108457)
(1.2844 0.0267127 -0.00814822)
(1.30467 0.0247895 0.0216308)
(1.2716 0.0358219 -0.0209627)
(1.20914 0.0231756 0.0568172)
(1.19804 0.0260738 0.10371)
(1.20968 0.0356299 0.0953169)
(1.22725 0.0130747 0.0835769)
(1.19225 0.03669 0.0691219)
(1.20683 0.0112781 0.0629444)
(1.2178 0.0229348 0.0647238)
(1.26544 -0.00624091 0.028668)
(0.0845605 0.0364197 -0.104899)
(1.23123 0.0561665 0.112067)
(1.26784 0.00531655 0.0693949)
(1.31126 -0.00419742 0.0850861)
(1.30957 -0.00844827 0.0409658)
(1.23994 0.0143674 0.0527707)
(1.27353 -0.0270814 0.00293577)
(0.142757 0.0230481 -0.107468)
(1.31188 -0.0095221 -0.0195735)
(1.28225 -0.0285821 -0.00859997)
(1.32248 -0.0123283 0.0671613)
(1.30184 -0.0251498 0.0212023)
(1.26874 -0.0375461 -0.020032)
(1.08802 -0.136798 0.120974)
(1.05951 -0.477217 0.279476)
(0.903204 -0.0799278 0.194866)
(1.06079 -0.591152 0.140801)
(0.801258 -0.10535 0.129323)
(1.10148 -0.123392 0.132679)
(1.06114 -0.190707 0.0334655)
(1.06486 -0.649842 0.00829207)
(0.767151 -0.130113 0.00873188)
(1.06975 -0.189867 0.0227763)
(1.0555 -0.64834 0.0527227)
(0.760346 -0.130297 0.0472643)
(0.583626 0.108384 -0.0937639)
(0.59894 0.11204 -0.0746901)
(1.1258 -0.0623185 -0.360463)
(0.600973 0.114733 -0.230447)
(1.06369 -0.193615 0.0171788)
(1.06601 -0.651313 0.0389779)
(0.768127 -0.130966 0.0384825)
(1.07089 -0.192575 0.0253929)
(1.06174 -0.652651 -0.00207395)
(0.760697 -0.132701 0.00117316)
(0.497647 0.0520655 -0.0716464)
(0.523766 0.0885266 -0.0178524)
(0.502056 0.0873503 -0.0726416)
(0.519971 0.0515326 -0.0130947)
(0.7989 -0.157288 0.0205895)
(1.3096 -0.819244 0.0449529)
(1.30702 -0.823262 -0.00628985)
(0.798576 -0.157156 -0.0146041)
(1.06536 0.185983 0.0172894)
(0.760626 0.137903 0.0392924)
(1.06566 0.647179 0.0390243)
(0.752674 0.139245 -0.000771373)
(1.0611 0.648129 -0.00232228)
(1.07297 0.185085 0.0238168)
(0.49113 -0.0486934 -0.0679961)
(0.522048 -0.0855975 -0.016212)
(0.499848 -0.0843606 -0.0690931)
(0.512121 -0.0481574 -0.010744)
(0.781692 0.162052 0.0221045)
(1.29811 0.826843 0.0446857)
(1.2953 0.830309 -0.00576956)
(0.781011 0.162229 -0.0141908)
(0.613381 0.112604 -0.0228947)
(0.58672 0.110712 -0.078371)
(0.613866 -0.111009 -0.0197457)
(0.587298 -0.10927 -0.0754753)
(0.769788 -0.152709 0.0832713)
(1.26473 -0.53902 0.293636)
(1.27581 -0.777232 0.139522)
(0.937281 -0.166258 0.108752)
(0.497157 0.0533403 -0.0530435)
(0.496468 0.0854065 -0.0861923)
(0.509246 0.0890969 -0.0644814)
(0.485515 0.0498233 -0.0858502)
(0.779588 -0.153288 -0.0081301)
(1.31071 -0.820671 0.00335692)
(1.29282 -0.814378 0.0610642)
(0.799329 -0.158604 0.0233682)
(0.478824 0.0665659 -0.163025)
(1.05015 -0.0342236 -0.311283)
(0.512487 0.0984749 -0.194971)
(1.06354 3.72563e-05 -0.258368)
(1.09074 0.131735 0.119364)
(0.898802 0.085586 0.187757)
(1.06161 0.478117 0.281061)
(0.793827 0.113169 0.122593)
(1.06239 0.591771 0.140118)
(1.1038 0.121431 0.129296)
(1.06311 0.183542 0.0322939)
(0.759542 0.137311 0.00703748)
(1.06464 0.646066 0.00834008)
(0.752642 0.137346 0.0481987)
(1.07207 0.182628 0.0233643)
(1.05542 0.644745 0.0530553)
(0.753424 0.158373 0.0872535)
(1.26082 0.546082 0.298953)
(1.26734 0.787598 0.141067)
(0.929734 0.172605 0.120326)
(0.49116 -0.0501396 -0.0509301)
(0.494885 -0.0822135 -0.0817223)
(0.479452 -0.0465676 -0.0811181)
(0.508363 -0.0856977 -0.0622179)
(0.762483 0.158499 -0.00757284)
(1.2993 0.828475 0.00408813)
(0.781745 0.163817 0.0251012)
(1.28187 0.822306 0.0608953)
(0.47792 -0.0640166 -0.150891)
(1.05424 0.0392223 -0.286767)
(1.06753 0.0068872 -0.232238)
(0.514761 -0.0960697 -0.183082)
(1.2203 -0.027108 0.122453)
(1.23527 -0.0952325 0.191888)
(1.16735 -0.0246271 0.160259)
(1.23117 -0.0152565 0.149248)
(1.19735 -0.0413265 0.142334)
(1.24088 -0.0375883 0.136037)
(1.20989 -0.0092193 0.145225)
(1.32276 -0.0116163 0.0812494)
(1.27924 -0.145124 0.207106)
(0.223199 -0.0482312 0.0174118)
(1.34055 -0.0220147 0.134394)
(1.33189 -0.0696869 0.175188)
(1.28158 -0.0335687 0.118288)
(1.42429 -0.0182309 0.120794)
(1.32724 0.0321008 -0.0961926)
(0.442894 -0.0330094 -0.0810018)
(1.25504 -0.118891 -0.277326)
(1.42165 -0.0337734 -0.105631)
(1.32205 -0.0882811 -0.238254)
(1.44733 -0.0356049 -0.102734)
(1.31579 0.0297203 -0.106366)
(1.21862 0.030225 0.11997)
(1.16755 0.0281758 0.154822)
(1.23452 0.0955793 0.191342)
(1.22979 0.0182432 0.145762)
(1.19737 0.0434633 0.139908)
(1.20981 0.0128939 0.142792)
(1.23866 0.0391027 0.133473)
(1.32175 0.0117567 0.0803747)
(0.238514 0.0345727 0.0224777)
(1.27907 0.146009 0.210249)
(1.33769 0.0245305 0.13046)
(1.33142 0.0594036 0.181509)
(1.42261 0.0192701 0.118383)
(1.2799 0.0341671 0.116425)
(1.3246 -0.0345786 -0.0904882)
(0.459165 0.012246 -0.0828266)
(1.25689 0.105193 -0.260042)
(1.42234 0.0288472 -0.105693)
(1.31763 0.0756053 -0.22061)
(1.44707 0.0308947 -0.103051)
(1.31365 -0.0328523 -0.101521)
(0.584926 -0.10686 -0.0897097)
(0.600505 -0.110341 -0.0709812)
(1.13362 0.0653364 -0.337129)
(0.605406 -0.113898 -0.219525)
(1.23785 -0.129431 -0.296949)
(1.24221 0.114323 -0.280016)
(1.07446 -0.166908 0.0910203)
(1.06108 -0.634304 0.0616538)
(0.778608 -0.120459 0.0593496)
(1.07708 -0.171203 0.0691316)
(1.04797 -0.624718 0.131672)
(0.780269 -0.116806 0.108431)
(1.05743 -0.187288 0.039826)
(1.05211 -0.643192 0.0724047)
(0.766984 -0.126556 0.0673)
(1.06634 -0.185226 0.0569521)
(1.05064 -0.646377 0.0244465)
(0.756704 -0.129962 0.0252604)
(0.5783 0.108804 -0.159622)
(0.557965 0.104476 -0.124222)
(0.533087 0.101043 -0.190506)
(0.601498 0.129107 -0.238366)
(0.472984 0.0294805 -0.052841)
(0.606733 -0.0291774 -0.0104085)
(0.595816 -0.0280132 -0.0302529)
(0.48956 0.028491 -0.00782136)
(0.79846 -0.132277 0.0165609)
(0.605234 -0.0509936 -0.0116261)
(0.600131 -0.0504649 -0.0132892)
(0.798757 -0.132824 -0.0184531)
(0.462923 -0.0243746 -0.0487214)
(0.595164 0.0333271 -0.00856988)
(0.585217 0.0321596 -0.0275271)
(0.478303 -0.0233686 -0.00635578)
(0.787491 0.124197 0.021053)
(0.593796 0.0592272 -0.00993506)
(0.589304 0.0584508 -0.0111813)
(0.787584 0.124278 -0.020827)
(0.740389 -0.143813 0.0297483)
(1.29579 -0.807862 0.0564364)
(1.26216 -0.779029 0.157943)
(0.776111 -0.156344 0.0432017)
(0.768735 -0.130742 0.0594054)
(0.810817 -0.056449 -0.029041)
(0.571361 -0.0494575 -0.0129502)
(0.942054 -0.152905 0.0821011)
(0.73317 -0.120695 0.0118863)
(0.551354 -0.051345 -0.0257839)
(0.768127 -0.132959 0.028571)
(0.551773 -0.0399634 -0.0243984)
(0.46722 0.0296929 -0.0339865)
(0.585906 -0.0299993 -0.0383574)
(0.462338 0.0272266 -0.0635642)
(0.580612 -0.0268375 -0.0239821)
(0.451905 0.0511479 -0.109163)
(0.486154 0.0876501 -0.13733)
(0.472707 0.0833885 -0.112323)
(0.464048 0.0521984 -0.109583)
(0.429678 0.0284177 -0.080099)
(0.555554 -0.0264255 -0.0402852)
(0.549062 -0.0271004 -0.0482023)
(0.440162 0.0280463 -0.0693738)
(0.777984 -0.154579 0.0291194)
(1.2849 -0.80571 0.0855134)
(1.29146 -0.816658 0.0200395)
(0.763768 -0.150379 0.000891592)
(0.77666 -0.129148 -0.0150328)
(0.59341 -0.0520268 -0.0180285)
(0.797507 -0.134269 0.0171784)
(0.582054 -0.048689 -0.018419)
(0.772103 -0.130206 0.0202677)
(0.561251 -0.047727 -0.0253998)
(0.757809 -0.126951 -0.00988897)
(0.562968 -0.0495612 -0.0228283)
(0.44419 0.0378587 -0.112801)
(0.882955 -0.0311134 -0.0692719)
(0.560191 -0.0276529 -0.0468576)
(0.938119 0.0085634 -0.183692)
(0.483011 0.0676001 -0.152833)
(0.449457 0.0820904 -0.165349)
(0.510262 0.106338 -0.19823)
(0.419235 0.0507557 -0.144823)
(0.449183 0.0392327 -0.096627)
(0.529491 -0.0292887 -0.057811)
(0.551577 -0.0164967 -0.049293)
(0.40219 0.0267397 -0.101596)
(1.07653 0.161325 0.0890845)
(0.771187 0.128607 0.0561817)
(1.06205 0.632272 0.0612763)
(0.773474 0.124793 0.106756)
(1.07983 0.164773 0.0687214)
(1.04941 0.624093 0.132171)
(1.05957 0.180363 0.0396184)
(0.759952 0.134303 0.0671653)
(1.05289 0.640476 0.0725002)
(0.748853 0.137238 0.022863)
(1.06886 0.178546 0.0548703)
(1.05076 0.643038 0.024112)
(0.724955 0.149563 0.0323089)
(1.28604 0.816679 0.0570687)
(1.25357 0.788903 0.158787)
(0.759478 0.162204 0.0456596)
(0.760356 0.120161 0.0695849)
(0.817529 0.0639591 -0.00600554)
(0.561385 0.0574291 -0.00489996)
(0.939611 0.14753 0.0956652)
(0.725903 0.111046 0.0131234)
(0.542341 0.0590339 -0.0220631)
(0.759638 0.123338 0.0355553)
(0.542148 0.0479726 -0.0191561)
(0.456892 -0.0246817 -0.0318439)
(0.575658 0.0339945 -0.0349554)
(0.452115 -0.0222963 -0.0584161)
(0.571051 0.0304713 -0.0219149)
(0.44819 -0.0482338 -0.103572)
(0.485681 -0.0837586 -0.134003)
(0.459833 -0.0493654 -0.107548)
(0.472216 -0.0798552 -0.106952)
(0.420808 -0.023891 -0.0740987)
(0.547608 0.0296678 -0.0373768)
(0.541131 0.0304597 -0.0440981)
(0.430382 -0.0235328 -0.0667494)
(0.761037 0.159884 0.0310764)
(1.27513 0.81436 0.0854342)
(1.28071 0.824613 0.020615)
(0.74747 0.156039 0.00212698)
(0.766899 0.120061 -0.0172385)
(0.582761 0.0600793 -0.0152626)
(0.786647 0.125689 0.0222297)
(0.571853 0.0568198 -0.015969)
(0.762911 0.12108 0.025975)
(0.551952 0.0557472 -0.0220737)
(0.749553 0.117571 -0.0111461)
(0.553772 0.0573095 -0.0196325)
(0.438457 -0.0335708 -0.101288)
(0.887497 0.0386661 -0.0517661)
(0.552551 0.0304116 -0.0379079)
(0.939382 -0.00137383 -0.165263)
(0.481338 -0.0649241 -0.146658)
(0.448775 -0.078167 -0.158485)
(0.417026 -0.0482582 -0.137969)
(0.510827 -0.102734 -0.193137)
(0.442114 -0.0343354 -0.0919436)
(0.522029 0.0323837 -0.0528516)
(0.543944 0.0197883 -0.0440875)
(0.394029 -0.0227658 -0.0944891)
(1.35314 0.00932922 0.0346877)
(0.111189 -0.0295282 -0.0268092)
(1.32409 -0.041085 -0.0298338)
(1.45088 -0.0210329 -0.0101356)
(1.34798 -0.0595907 0.146939)
(1.35844 0.0227953 -0.00830094)
(1.47514 -0.0183724 0.0613977)
(1.33957 0.033422 -0.0738647)
(0.368213 -0.0325802 -0.0881208)
(1.339 -0.0457871 -0.0852931)
(1.46821 -0.0318596 -0.0651629)
(1.32243 -0.0698912 -0.201659)
(1.35253 0.0277032 -0.0459037)
(1.44401 -0.0296904 -0.0857543)
(1.3513 -0.00916144 0.0354923)
(0.130053 0.0181348 -0.0227649)
(1.33488 0.0268664 -0.00656296)
(1.45376 0.0192483 -0.0143071)
(1.34777 0.0472966 0.155261)
(1.4745 0.0182028 0.0587473)
(1.35714 -0.0235788 -0.00713396)
(1.3386 -0.0362323 -0.0695619)
(0.383456 0.0109657 -0.0894861)
(1.35394 0.0314705 -0.0648126)
(1.4709 0.0296024 -0.0689748)
(1.31965 0.0565113 -0.186521)
(1.44578 0.0257978 -0.0875503)
(1.35218 -0.0300535 -0.0439186)
(0.581052 -0.107088 -0.155426)
(0.560824 -0.103032 -0.119047)
(0.536725 -0.0995635 -0.18438)
(0.604155 -0.127444 -0.234448)
(1.22088 0.000223268 0.00204625)
(1.21204 0.00355227 0.00314289)
(1.21501 0.000411147 -0.000378634)
(1.21143 0.00225227 0.00344393)
(1.21356 0.000241919 0.000543667)
(1.21027 0.00162221 0.00177876)
(1.21144 9.58947e-05 -0.000156007)
(1.3679 -0.00870878 -0.00443758)
(1.30732 -0.00842752 -0.00137141)
(1.38727 0.0471185 0.000997853)
(1.36736 0.0477088 0.00592276)
(1.35894 -0.00564186 0.000283321)
(1.30058 -0.00850703 0.0123097)
(1.2954 -0.0439119 -0.00321044)
(1.29533 -0.00453743 0.00629118)
(1.37827 0.0476639 0.00930145)
(1.34898 -0.00303882 -0.00796724)
(1.25717 0.0455881 0.00644815)
(1.2477 -0.00364966 0.000407135)
(1.23608 0.0184806 0.00374312)
(0.771109 -0.501999 0.37447)
(0.424028 -0.3718 0.453655)
(0.773084 -0.166404 0.598223)
(0.426815 -0.357936 0.313456)
(0.886581 -0.211589 0.457784)
(0.853131 -0.394806 0.492309)
(0.730268 -0.594425 0.00801683)
(0.422166 -0.422164 0.0473347)
(0.772349 -0.248385 0.0562665)
(0.734593 -0.598095 0.0471993)
(0.414 -0.415574 -0.0140701)
(0.762759 -0.247452 0.00445238)
(1.25238 0.0412973 0.00732749)
(1.25274 0.0112103 0.000904196)
(1.24158 0.0336908 0.014993)
(1.22933 0.0150254 0.00829718)
(1.24314 -0.00376566 0.000810731)
(1.23309 0.0162017 0.00488774)
(1.2377 0.000587685 0.00303331)
(1.23665 0.000320956 0.00207512)
(1.22346 0.00679852 0.00761271)
(1.23234 0.0119377 0.0151331)
(1.2253 0.00606814 0.0075231)
(1.22397 0.000328421 -0.000522658)
(1.2298 -0.0027077 0.00199757)
(1.22127 0.00479277 0.00380155)
(0.736282 -0.598554 0.0455536)
(0.418878 -0.419081 -0.021952)
(0.762754 -0.246769 -0.00103689)
(0.732141 -0.59558 0.00526434)
(0.420606 -0.420026 0.0400367)
(0.775101 -0.24968 0.0516126)
(0.750408 0.58079 0.0483475)
(0.781572 0.267405 0.00129079)
(0.419741 0.403881 -0.0240837)
(0.795902 0.271384 0.0516734)
(0.421725 0.404654 0.0434839)
(0.744849 0.577207 0.00407463)
(1.29205 0.0512102 0.00706148)
(1.26985 0.130435 0.0100018)
(1.35395 0.0964662 0.00610294)
(0.781707 0.485636 0.370003)
(0.781719 0.169624 0.588892)
(0.426638 0.364218 0.460895)
(0.90494 0.233425 0.445098)
(0.428181 0.343891 0.317494)
(0.857399 0.385172 0.487581)
(0.743937 0.577062 0.00535671)
(0.791391 0.269263 0.0545222)
(0.423303 0.406985 0.0500229)
(0.783177 0.26938 0.00478858)
(0.747566 0.579841 0.0487415)
(0.414928 0.400625 -0.0172983)
(1.33726 0.0932209 0.0181964)
(1.2861 0.0498582 0.0119942)
(1.26453 0.127957 0.0230182)
(1.2609 0.0798747 0.0216536)
(1.28287 0.0485408 0.0153815)
(1.34598 0.0950803 0.0178839)
(1.26081 0.123947 0.0254161)
(1.34358 0.0406783 0.0133094)
(1.2849 -0.0379152 0.0124888)
(1.30028 -0.0183125 -0.0181506)
(1.28213 0.0111333 0.0152501)
(1.28445 -0.00219284 0.0199609)
(1.31344 0.0264276 0.0109957)
(1.32583 -0.0053383 -0.00974539)
(1.31862 0.0826771 0.0349522)
(1.24317 0.0918149 0.0578923)
(1.25286 0.0754214 0.0279779)
(1.27157 0.0424823 0.0272796)
(1.27283 0.0459228 0.0237657)
(1.2524 0.111646 0.0484686)
(1.29418 0.0662704 0.0402399)
(1.26627 -0.0318025 0.264969)
(1.17971 -0.104203 0.58299)
(1.15896 -0.0755647 0.582255)
(1.40144 -0.00955065 0.33672)
(1.23162 -0.0834496 0.414226)
(1.30175 -0.00476867 0.301712)
(1.24273 -0.0155166 0.238715)
(1.42215 -0.0112727 0.266877)
(1.09622 -0.0462388 0.470774)
(0.593329 -0.0325856 0.216343)
(1.49229 -0.00818355 0.341006)
(0.885581 -0.0293221 0.314711)
(1.42422 -0.000280992 0.306504)
(1.40178 -0.0219394 0.284151)
(1.34866 0.0291352 -0.105456)
(0.571414 -0.0335261 -0.0702132)
(0.814415 -0.00555727 -0.102258)
(1.21068 -0.00903331 -0.0527694)
(0.763374 0.00694191 -0.100991)
(1.21235 -0.00467203 -0.047913)
(1.33973 0.021824 -0.11054)
(1.26258 0.0346131 0.257881)
(1.16215 0.0739159 0.576789)
(1.18402 0.0998566 0.587717)
(1.40192 0.0104039 0.328475)
(1.23139 0.0805432 0.408211)
(1.24271 0.0176558 0.231737)
(1.2984 0.00551548 0.296576)
(1.42786 0.00445407 0.261913)
(0.610084 0.0195199 0.218036)
(1.10452 0.0405224 0.476589)
(1.49626 0.00806465 0.332562)
(0.900087 0.0182534 0.31745)
(1.41011 0.0173149 0.276795)
(1.42718 -0.00239523 0.302618)
(1.26406 -0.00420334 0.00426365)
(1.25291 -0.0228169 -0.0138432)
(1.2583 -0.0334382 -0.0134327)
(1.2607 -0.00805839 0.0120631)
(1.2537 -0.0125432 -0.00135497)
(1.26799 -0.00944511 0.0105542)
(1.25932 -0.0173899 -0.0095504)
(1.354 -0.0414051 -0.103843)
(0.589953 0.011355 -0.0725643)
(0.831438 -0.0122471 -0.10415)
(1.2303 0.00462854 -0.0563376)
(0.780732 -0.0251466 -0.102381)
(1.22956 -0.000442659 -0.0501088)
(1.34647 -0.0308682 -0.110332)
(1.25782 0.0109794 0.0214981)
(1.24432 0.0349373 0.0565391)
(1.25272 0.0105642 0.0238341)
(1.24291 0.0153058 0.0239893)
(1.24706 0.00406414 0.0139856)
(1.2641 0.0162106 0.0381097)
(1.24425 0.0218897 0.0350051)
(0.862817 -0.0168282 -0.104075)
(0.879711 -0.00102811 -0.106024)
(0.727423 -0.583923 0.0785596)
(0.417684 -0.418174 0.0738614)
(0.786485 -0.246986 0.108537)
(0.734851 -0.593221 0.0973862)
(0.40357 -0.405066 0.0253174)
(0.763698 -0.242533 0.0765748)
(0.728242 -0.596354 0.0791566)
(0.406891 -0.410872 0.000167223)
(0.75364 -0.243009 0.0405118)
(0.721291 -0.587853 0.0470239)
(0.414437 -0.418434 0.0586703)
(0.773508 -0.249419 0.086769)
(1.40788 0.0445395 -0.000280758)
(1.38389 0.10935 -0.0192965)
(1.37905 0.108495 -0.00199158)
(1.41225 0.0453314 -0.0155057)
(1.42972 -0.0233482 0.00300788)
(1.44963 -0.102287 -0.00729272)
(1.44644 -0.103926 0.00707584)
(1.43363 -0.0223347 -0.0116493)
(1.51127 -0.400073 0.0219544)
(1.36091 -0.437884 0.00975261)
(1.36159 -0.445284 0.0256946)
(1.51174 -0.394469 0.00615458)
(1.5032 -0.312246 0.016459)
(1.47172 -0.201712 -0.00260169)
(1.46926 -0.204256 0.0115632)
(1.50479 -0.308401 0.00179539)
(1.40573 -0.0292758 0.00132278)
(1.38244 -0.0941351 -0.0168405)
(1.55302 -0.116415 0.0329917)
(1.57701 -0.0886906 -0.0318293)
(1.58325 -0.0818816 0.0374984)
(1.37744 -0.0937064 -0.000224995)
(1.41017 -0.0296536 -0.0132269)
(1.42772 0.0413638 0.0042459)
(1.56957 0.0298322 0.0365881)
(1.56537 -0.0302893 -0.024638)
(1.44668 0.123636 -0.00559947)
(1.57062 -0.0230138 0.0348399)
(1.44341 0.124923 0.00806136)
(1.43163 0.0406018 -0.00962242)
(1.50675 0.412738 0.0221271)
(1.35568 0.448773 0.00993829)
(1.27165 0.262095 0.0187536)
(1.40224 0.223158 0.00665428)
(1.35628 0.455791 0.0254854)
(1.40507 0.231036 0.0241385)
(1.50741 0.407452 0.00680681)
(1.50018 0.327662 0.0171038)
(1.52397 0.0954517 0.0325996)
(1.46772 0.222862 -0.00138008)
(1.48892 0.146825 -0.00379802)
(1.46517 0.22501 0.0123897)
(1.49282 0.155124 0.0311933)
(1.50196 0.324149 0.00290017)
(1.4447 -0.294325 0.05843)
(1.43162 -0.20495 0.0395928)
(1.46901 -0.30202 0.0572451)
(1.40681 -0.197902 0.0384353)
(1.44812 -0.342091 0.122133)
(1.28905 -0.293788 0.182959)
(1.31625 -0.368127 0.146744)
(1.4254 -0.27914 0.154163)
(1.46413 -0.37005 0.0778291)
(1.34304 -0.413387 0.0809373)
(1.3321 -0.402699 0.0866662)
(1.48354 -0.37868 0.0742504)
(1.43748 -0.273963 0.0832801)
(1.43569 -0.135665 0.069323)
(1.40705 -0.183884 0.0495996)
(1.44464 -0.218634 0.10828)
(1.38987 -0.0362925 0.00201981)
(1.40433 -0.111956 -0.000637736)
(1.41069 -0.113556 0.0125259)
(1.38268 -0.0361599 -0.0134401)
(1.38405 0.0372719 -0.0136708)
(1.37716 0.104079 -0.00226679)
(1.35551 0.100238 -0.0194713)
(1.40567 0.0404953 0.00077899)
(1.36574 0.028789 -0.00731766)
(1.32927 0.0882572 -0.0350886)
(1.33701 0.0900883 -0.014079)
(1.35815 0.0279333 -0.0249463)
(1.40681 -0.0293842 -0.00727854)
(1.444 -0.105366 0.0118077)
(1.42738 -0.0264163 0.00576521)
(1.4258 -0.10816 1.63341e-05)
(1.476 -0.313394 0.0334038)
(1.43153 -0.205956 0.0118601)
(1.46993 -0.30666 0.0236916)
(1.43757 -0.209855 0.022947)
(1.49844 -0.396063 0.0196274)
(1.35783 -0.436461 0.0349134)
(1.35224 -0.439054 0.0221817)
(1.50796 -0.394043 0.0316671)
(1.49017 -0.397394 0.0437114)
(1.34329 -0.426717 0.0407598)
(1.34654 -0.439485 0.0489576)
(1.48508 -0.38755 0.0346569)
(1.48697 -0.31092 0.0137609)
(1.46661 -0.20365 0.0180346)
(1.50028 -0.309125 0.0247242)
(1.45081 -0.205924 0.0071272)
(1.35696 -0.0346281 -0.00594011)
(1.4051 -0.114703 0.0221328)
(1.37995 -0.107819 0.0174887)
(1.38278 -0.0425221 0.00398087)
(1.33903 0.0329068 -0.0514244)
(1.37989 0.143404 -0.101888)
(1.313 0.0910321 -0.0856944)
(1.3914 0.0831031 -0.0607014)
(1.32916 0.0268834 -0.0294651)
(1.32431 0.0751005 -0.0265003)
(1.29832 0.0833952 -0.0512294)
(1.35591 0.0180114 -0.0127729)
(1.3644 -0.028448 -0.0157425)
(1.42463 -0.0552502 0.0313053)
(1.38476 -0.099135 0.0182046)
(1.41016 0.0170387 -0.0134944)
(0.741153 0.568215 0.0749954)
(0.806176 0.269248 0.107137)
(0.419677 0.404095 0.0769205)
(0.784112 0.265615 0.0764913)
(0.748521 0.576474 0.0984901)
(0.405031 0.391586 0.0217898)
(0.743022 0.579714 0.0817024)
(0.77279 0.264805 0.0428124)
(0.408308 0.396912 -0.00188987)
(0.794781 0.272015 0.0869438)
(0.73437 0.570968 0.0455402)
(0.416328 0.403969 0.062357)
(1.44419 0.311129 0.0611042)
(1.42862 0.226731 0.0418768)
(1.45552 0.130119 0.0682747)
(1.46876 0.0829672 0.0424003)
(1.46807 0.318665 0.0590905)
(1.40379 0.219522 0.0416336)
(1.44346 0.130823 0.0513326)
(1.44689 0.354202 0.124165)
(1.28726 0.300989 0.18533)
(1.2325 0.196809 0.0929454)
(1.31497 0.148552 0.110844)