/*--------------------------------*- C++ -*----------------------------------*\
| =========                 |                                                 |
| \\      /  F ield         | OpenFOAM: The Open Source CFD Toolbox           |
|  \\    /   O peration     | Version:  2012                                  |
|   \\  /    A nd           | Website:  www.openfoam.com                      |
|    \\/     M anipulation  |                                                 |
\*---------------------------------------------------------------------------*/
FoamFile
{
    version     2.0;
    format      ascii;
    class       surfaceVectorField;
    location    "0.105/fluid";
    object      Uf_0;
}
// * * * * * * * * * * * * * * * * * * * * * * * * * * * * * * * * * * * * * //

dimensions      [0 1 -1 0 0 0 0];


internalField   nonuniform List<vector> 
47046
(
(1.19995 3.65697e-06 7.76664e-06)
(1.2 7.91547e-06 1.39966e-05)
(1.19995 3.44531e-06 7.73386e-06)
(1.19995 3.5001e-06 7.71407e-06)
(1.19988 7.66891e-05 9.73575e-05)
(1.20001 6.12125e-05 8.14734e-05)
(1.20001 8.74132e-05 0.000107115)
(1.19988 7.3395e-05 9.67139e-05)
(1.19988 7.4876e-05 9.68409e-05)
(1.19975 0.000133043 0.00012721)
(1.20002 0.000126764 0.000125457)
(1.20002 0.000135993 0.000129071)
(1.19976 0.000127772 0.000125689)
(1.19976 0.000129993 0.000127393)
(1.19997 0.000186943 0.000158445)
(1.20003 0.000176146 0.000152324)
(1.20003 0.000192765 0.000162996)
(1.19999 0.000180195 0.000156023)
(1.19999 0.000182846 0.000158117)
(1.20003 0.000271764 0.000217978)
(1.20005 0.000254983 0.00020679)
(1.20005 0.000280815 0.000225497)
(1.20006 0.000261421 0.000213345)
(1.20006 0.000264879 0.000216616)
(1.20006 0.000400919 0.000314991)
(1.20008 0.000375788 0.000296739)
(1.20009 0.000414529 0.000326499)
(1.2001 0.000385347 0.000306792)
(1.2001 0.000389977 0.00031239)
(1.2001 0.00059621 0.000463747)
(1.20012 0.000558379 0.000435541)
(1.20014 0.000616828 0.000479562)
(1.20016 0.000573189 0.000449463)
(1.20016 0.00057892 0.000458884)
(1.20016 0.000889102 0.000688403)
(1.2002 0.000831316 0.000643123)
(1.20022 0.000918291 0.000710364)
(1.20026 0.000851928 0.0006623)
(1.20025 0.00085945 0.000677979)
(1.20027 0.00132679 0.00102584)
(1.20033 0.00123817 0.000955616)
(1.20037 0.00136745 0.00105301)
(1.20041 0.00126682 0.000979495)
(1.2004 0.00127648 0.00100594)
(1.20047 0.00196535 0.00150566)
(1.20054 0.00183345 0.00139891)
(1.20061 0.00201844 0.00153563)
(1.20067 0.00187062 0.00142455)
(1.20065 0.0018812 0.0014696)
(1.20081 0.00286779 0.00219594)
(1.20089 0.00267518 0.00203017)
(1.20101 0.00293029 0.00222706)
(1.20108 0.00271838 0.00205562)
(1.20105 0.00272754 0.00212862)
(1.20138 0.00410172 0.00304882)
(1.20135 0.00407653 0.00319023)
(1.20145 0.00381725 0.00293398)
(1.20162 0.00415887 0.00321768)
(1.20172 0.00387393 0.00294999)
(1.20169 0.00386116 0.00307135)
(1.20189 0.00587232 0.00445887)
(1.20185 0.00571591 0.00472175)
(1.20209 0.0054066 0.00429135)
(1.20217 0.00596044 0.00475782)
(1.20245 0.00555674 0.00428687)
(1.2024 0.00543676 0.00452468)
(1.20053 0.00952812 0.00777358)
(1.20111 0.0102836 0.00695611)
(1.20178 0.00895254 0.00678047)
(1.20129 0.0110205 0.00777578)
(1.2022 0.00915977 0.00741706)
(1.20274 0.00958147 0.00665273)
(1.19719 0.0391342 0.0146597)
(1.20681 0.0325626 0.010914)
(1.20318 0.0266422 0.0114887)
(1.21339 0.0391619 0.0116403)
(1.20696 0.0278587 0.0140787)
(1.21022 0.0249788 0.00993742)
(1.19995 2.23274e-06 7.61901e-06)
(1.2 3.35429e-06 1.36686e-05)
(1.19995 1.15796e-06 7.59711e-06)
(1.19995 1.49245e-06 7.56114e-06)
(1.19989 5.68998e-05 9.50392e-05)
(1.20001 4.02562e-05 7.95665e-05)
(1.20002 6.1103e-05 0.000104323)
(1.19989 4.91865e-05 9.4463e-05)
(1.19989 5.12634e-05 9.48776e-05)
(1.19979 0.000101657 0.0001213)
(1.20004 9.20835e-05 0.000120031)
(1.20005 9.97866e-05 0.000122784)
(1.19979 9.01078e-05 0.000119941)
(1.19979 9.46848e-05 0.000121039)
(1.20003 0.000147294 0.000149233)
(1.20008 0.000133555 0.000143696)
(1.20009 0.000146924 0.000153405)
(1.20004 0.000132308 0.000147251)
(1.20004 0.000139007 0.000149012)
(1.20013 0.000213734 0.000201286)
(1.20014 0.000194446 0.000191865)
(1.20015 0.000213801 0.000208153)
(1.20015 0.000192528 0.000197988)
(1.20015 0.000201935 0.000200475)
(1.20021 0.000313691 0.000284984)
(1.20022 0.00028505 0.000269715)
(1.20024 0.00031437 0.000295195)
(1.20024 0.000282902 0.000278974)
(1.20024 0.000295908 0.000283354)
(1.20033 0.000465846 0.000411636)
(1.20033 0.000422658 0.000388307)
(1.20037 0.000466046 0.000425382)
(1.20037 0.000418741 0.00040102)
(1.20037 0.000437999 0.000407873)
(1.2005 0.000687395 0.000593494)
(1.20051 0.000623617 0.000558082)
(1.20057 0.000687239 0.000611128)
(1.20057 0.000617497 0.000574298)
(1.20057 0.000644239 0.000586008)
(1.20077 0.00101404 0.000854869)
(1.20078 0.000919159 0.000800939)
(1.20087 0.00101217 0.000874709)
(1.20087 0.000908924 0.000820046)
(1.20086 0.000946025 0.000840179)
(1.20118 0.00148676 0.00120886)
(1.20119 0.00134766 0.00112989)
(1.20132 0.00147989 0.00122743)
(1.20132 0.00132993 0.00114827)
(1.20131 0.00138061 0.0011816)
(1.20183 0.00208673 0.00161107)
(1.2018 0.00214493 0.00168012)
(1.20181 0.00194658 0.00156298)
(1.202 0.00212879 0.00168994)
(1.20199 0.00191569 0.00157457)
(1.20197 0.00198111 0.00162892)
(1.20278 0.00299022 0.00217847)
(1.20272 0.00305934 0.00229309)
(1.20273 0.00277547 0.00211806)
(1.20302 0.00303128 0.0022763)
(1.20299 0.00272521 0.00210781)
(1.20296 0.00280482 0.00219944)
(1.20423 0.00430852 0.00285174)
(1.2041 0.00439626 0.00305865)
(1.20411 0.00396159 0.00278941)
(1.20457 0.00433977 0.002967)
(1.20451 0.00386772 0.0027206)
(1.20443 0.00397026 0.00288565)
(1.20678 0.00623916 0.00345428)
(1.20662 0.00646241 0.00386214)
(1.20645 0.00569053 0.00345307)
(1.20729 0.00615616 0.00356697)
(1.20712 0.00545895 0.00322696)
(1.20692 0.0056035 0.00355286)
(1.21329 0.00786603 0.00356947)
(1.212 0.00666923 0.00321899)
(1.21105 0.00650198 0.00344679)
(1.21277 0.00562768 0.0031131)
(1.21167 0.00583159 0.00341846)
(1.21236 0.0058151 0.0027303)
(1.19995 -1.04873e-06 7.48786e-06)
(1.2 -1.20258e-05 1.32859e-05)
(1.19995 -4.17648e-06 7.48346e-06)
(1.19995 -6.18588e-06 7.38447e-06)
(1.1999 1.79801e-05 9.23986e-05)
(1.20002 -9.79679e-06 7.71971e-05)
(1.20003 4.6566e-06 0.00010145)
(1.19991 6.07876e-06 9.16201e-05)
(1.1999 -3.05395e-06 9.22291e-05)
(1.19981 5.18476e-05 0.000117417)
(1.20007 3.25589e-05 0.000116976)
(1.20008 3.87487e-05 0.00011931)
(1.19982 3.79711e-05 0.000117032)
(1.19981 3.54176e-05 0.000117771)
(1.20007 7.88674e-05 0.000142788)
(1.20012 5.86186e-05 0.000138253)
(1.20013 6.58377e-05 0.000147208)
(1.20008 5.91662e-05 0.000141556)
(1.20008 6.1449e-05 0.000143163)
(1.2002 0.000116534 0.000190419)
(1.20019 9.24309e-05 0.000182623)
(1.20022 0.000103318 0.000197488)
(1.20021 8.83177e-05 0.000188591)
(1.20021 9.6674e-05 0.000190347)
(1.20031 0.000173775 0.000265565)
(1.2003 0.000142755 0.000253253)
(1.20034 0.000157874 0.000275991)
(1.20033 0.000132361 0.000262375)
(1.20033 0.000148415 0.000265387)
(1.20048 0.000253348 0.000376279)
(1.20047 0.00021146 0.000357769)
(1.20052 0.000233558 0.000390025)
(1.2005 0.000192264 0.000370524)
(1.20051 0.00021905 0.000375166)
(1.20072 0.000373739 0.000530544)
(1.20071 0.000314558 0.000503776)
(1.20078 0.0003469 0.000548265)
(1.20076 0.000283704 0.000520923)
(1.20077 0.000325225 0.000527783)
(1.20109 0.000546835 0.000740491)
(1.20106 0.000462071 0.000702327)
(1.20118 0.000507884 0.000760586)
(1.20114 0.000414577 0.000722888)
(1.20115 0.000475049 0.000734072)
(1.20163 0.000719868 0.000981738)
(1.20163 0.000795908 0.00100881)
(1.20159 0.000673099 0.000956233)
(1.20176 0.000738321 0.00102836)
(1.2017 0.00060235 0.000977762)
(1.20171 0.00068881 0.000995631)
(1.20244 0.00103667 0.00129171)
(1.20243 0.00114211 0.00133346)
(1.20237 0.000967428 0.00126282)
(1.20261 0.00105593 0.00134546)
(1.20252 0.000863862 0.00128024)
(1.20253 0.000983444 0.0013083)
(1.20361 0.0014628 0.00162322)
(1.20359 0.00160649 0.00168861)
(1.20349 0.00136128 0.00159637)
(1.20384 0.00147652 0.00167669)
(1.20371 0.00121103 0.00159744)
(1.20371 0.00137162 0.00164204)
(1.20532 0.00198898 0.00188895)
(1.20527 0.00218482 0.00199071)
(1.20511 0.00185023 0.001879)
(1.20561 0.00197533 0.00192337)
(1.2054 0.00162822 0.00183981)
(1.20538 0.0018381 0.00190926)
(1.2077 0.00238903 0.0018863)
(1.20768 0.00264509 0.00202863)
(1.20736 0.00225846 0.00192612)
(1.208 0.00227221 0.00186712)
(1.20769 0.00193498 0.00181126)
(1.20765 0.00217173 0.00191013)
(1.21021 0.0015861 0.00134305)
(1.21068 0.00203305 0.00137834)
(1.20983 0.00170461 0.00145953)
(1.21034 0.00122734 0.00124164)
(1.21017 0.0014653 0.00121557)
(1.20999 0.00142373 0.00136462)
(1.19995 3.43417e-06 6.99664e-06)
(1.19995 3.57605e-06 6.80222e-06)
(1.2 7.72138e-06 1.20438e-05)
(1.19995 3.355e-06 6.7837e-06)
(1.19995 3.41675e-06 6.55332e-06)
(1.19989 7.27468e-05 9.05998e-05)
(1.19989 7.35002e-05 8.8888e-05)
(1.20001 5.88429e-05 7.35727e-05)
(1.20002 8.39591e-05 9.92037e-05)
(1.19989 7.0763e-05 8.84944e-05)
(1.19989 7.21837e-05 8.63309e-05)
(1.19979 0.000124578 0.000124805)
(1.19979 0.000126258 0.000123736)
(1.20004 0.000119971 0.000121527)
(1.20005 0.000128559 0.000125395)
(1.19979 0.000120456 0.00012189)
(1.19979 0.000122746 0.000120076)
(1.20003 0.000175738 0.000154607)
(1.20003 0.000177271 0.000153794)
(1.20008 0.00016709 0.000147788)
(1.20009 0.000182469 0.000158135)
(1.20004 0.00017071 0.000151363)
(1.20004 0.000173302 0.000149761)
(1.20012 0.000251125 0.000210572)
(1.20012 0.000253095 0.000209707)
(1.20013 0.000237952 0.000199294)
(1.20015 0.000261207 0.000216919)
(1.20015 0.000243635 0.000205437)
(1.20015 0.000246848 0.000203406)
(1.2002 0.000365684 0.000303161)
(1.2002 0.000367972 0.000302542)
(1.2002 0.000345789 0.000285163)
(1.20023 0.000379478 0.000313542)
(1.20023 0.000353845 0.000294926)
(1.20023 0.000358055 0.000292626)
(1.2003 0.000534744 0.000445925)
(1.2003 0.00053627 0.000446466)
(1.20031 0.000503562 0.00041867)
(1.20035 0.000553499 0.000461728)
(1.20035 0.000515845 0.000432067)
(1.20035 0.000520322 0.000430016)
(1.20046 0.000780823 0.000657551)
(1.20045 0.00078207 0.000660702)
(1.20047 0.000733673 0.00061803)
(1.20052 0.00080577 0.000680765)
(1.20053 0.000750365 0.000635662)
(1.20053 0.000755743 0.000634732)
(1.2007 0.00113826 0.000969531)
(1.2007 0.00113908 0.00097658)
(1.20071 0.00106642 0.000910211)
(1.2008 0.00116956 0.00100182)
(1.20081 0.00108741 0.000932662)
(1.2008 0.00109428 0.00093374)
(1.20109 0.0016406 0.0014153)
(1.20108 0.0016386 0.00143073)
(1.2011 0.00153366 0.00132982)
(1.20123 0.00167477 0.00145893)
(1.20124 0.001558 0.00135453)
(1.20123 0.0015643 0.00136064)
(1.20169 0.0023132 0.00203119)
(1.20169 0.00230516 0.00206159)
(1.2017 0.00215848 0.00191086)
(1.20189 0.00233963 0.00208629)
(1.20189 0.00218014 0.00193137)
(1.20189 0.00218283 0.00194847)
(1.20261 0.0031575 0.00289291)
(1.20264 0.0031297 0.00294312)
(1.20261 0.00293904 0.002713)
(1.20291 0.00315448 0.00296237)
(1.20287 0.0029527 0.00272416)
(1.20289 0.00293832 0.00275619)
(1.20395 0.00415145 0.00418919)
(1.20406 0.00404059 0.00425848)
(1.20398 0.00383329 0.00388459)
(1.20441 0.00407171 0.00427457)
(1.20431 0.00384594 0.00387186)
(1.20438 0.00376449 0.00391916)
(1.20603 0.00554709 0.00658862)
(1.20636 0.00502824 0.00664139)
(1.20612 0.00488718 0.00586923)
(1.20694 0.00522121 0.00659106)
(1.20672 0.0049562 0.00573497)
(1.20682 0.00463981 0.0057801)
(1.21272 0.00790468 0.0106061)
(1.21369 0.00586254 0.0104241)
(1.21177 0.00601363 0.00893055)
(1.21477 0.00563094 0.00897718)
(1.21328 0.00561912 0.00762688)
(1.21279 0.00510074 0.00764088)
(1.19995 1.4297e-06 6.90523e-06)
(1.19995 2.10974e-06 6.71763e-06)
(1.2 3.13368e-06 1.18573e-05)
(1.19995 1.03485e-06 6.69481e-06)
(1.19995 1.40735e-06 6.46798e-06)
(1.1999 4.9639e-05 8.93879e-05)
(1.1999 5.47429e-05 8.75603e-05)
(1.20002 3.84752e-05 7.2564e-05)
(1.20003 5.86175e-05 9.71853e-05)
(1.1999 4.70643e-05 8.72143e-05)
(1.1999 4.91879e-05 8.49865e-05)
(1.19981 9.01057e-05 0.000117527)
(1.19981 9.53026e-05 0.000116526)
(1.20007 8.64497e-05 0.000114823)
(1.20008 9.35036e-05 0.000118194)
(1.19982 8.45903e-05 0.000115109)
(1.19982 8.87011e-05 0.000113317)
(1.20008 0.000132674 0.000145174)
(1.20008 0.00013849 0.000144271)
(1.20013 0.000125515 0.000138887)
(1.20015 0.000138017 0.000148043)
(1.20009 0.000124457 0.000142088)
(1.20009 0.000130488 0.000140355)
(1.20021 0.00019144 0.000194768)
(1.20021 0.000199284 0.000193715)
(1.20021 0.00018145 0.000184586)
(1.20024 0.000198866 0.000200287)
(1.20023 0.000179242 0.00019028)
(1.20023 0.000188001 0.000188116)
(1.20033 0.000278033 0.000275805)
(1.20033 0.000288638 0.00027479)
(1.20032 0.00026283 0.000260227)
(1.20036 0.000288617 0.000284333)
(1.20035 0.000260333 0.000269041)
(1.20035 0.000272276 0.000266289)
(1.20049 0.000405804 0.000394497)
(1.20049 0.000420527 0.000393796)
(1.20049 0.000382657 0.000371324)
(1.20054 0.000420014 0.000407076)
(1.20053 0.000378577 0.000383453)
(1.20053 0.000395448 0.000380132)
(1.20074 0.000587287 0.000568873)
(1.20074 0.000607453 0.000570121)
(1.20073 0.000552916 0.000536274)
(1.20081 0.000605473 0.000586998)
(1.20079 0.000546139 0.000552122)
(1.20079 0.000569266 0.000549284)
(1.2011 0.000843238 0.000812373)
(1.20109 0.000870119 0.000816657)
(1.20108 0.00079174 0.000766169)
(1.20119 0.000864744 0.000835566)
(1.20117 0.000779744 0.000784374)
(1.20117 0.000810923 0.000782681)
(1.20163 0.00119977 0.00113945)
(1.20162 0.00123396 0.00115101)
(1.2016 0.00112252 0.00107636)
(1.20176 0.00122185 0.00116834)
(1.20173 0.00110266 0.00109386)
(1.20173 0.00114257 0.00109623)
(1.20239 0.00167049 0.00156008)
(1.20239 0.00171025 0.00158451)
(1.20235 0.0015594 0.00147758)
(1.20258 0.00168543 0.00159209)
(1.20252 0.00152563 0.00148737)
(1.20252 0.0015733 0.00149841)
(1.20348 0.00226386 0.00208447)
(1.20347 0.00230202 0.00213083)
(1.2034 0.00210367 0.00197438)
(1.20373 0.00225537 0.00211394)
(1.20363 0.00204715 0.00196416)
(1.20363 0.00209713 0.00199042)
(1.20503 0.00297579 0.00269864)
(1.20502 0.00299164 0.00279008)
(1.20489 0.00273795 0.00255614)
(1.20536 0.00290275 0.00270509)
(1.2052 0.00264002 0.00249226)
(1.2052 0.00267788 0.00254846)
(1.20737 0.00367195 0.00325389)
(1.20741 0.00362726 0.00342442)
(1.2071 0.00333207 0.0030867)
(1.2078 0.00340054 0.00315928)
(1.20748 0.00314296 0.00288461)
(1.20747 0.003132 0.00299132)
(1.21134 0.0030328 0.00299645)
(1.21075 0.00302703 0.00301802)
(1.21019 0.00287372 0.00294503)
(1.21101 0.00226739 0.00262543)
(1.21043 0.0023651 0.0026103)
(1.21069 0.00256109 0.00233426)
(1.19995 -6.28539e-06 6.77193e-06)
(1.19995 -1.08239e-06 6.6023e-06)
(1.2 -1.24607e-05 1.15393e-05)
(1.19995 -4.4789e-06 6.56677e-06)
(1.19995 -6.32135e-06 6.33863e-06)
(1.19991 -5.07629e-06 8.76649e-05)
(1.19991 1.55801e-05 8.59306e-05)
(1.20003 -1.2015e-05 7.13074e-05)
(1.20004 1.94669e-06 9.52917e-05)
(1.19992 4.05342e-06 8.54756e-05)
(1.19991 -5.45175e-06 8.36019e-05)
(1.19983 3.42276e-05 0.000113723)
(1.19984 4.99575e-05 0.000112173)
(1.20009 3.08516e-05 0.000111247)
(1.20011 3.68673e-05 0.000114193)
(1.19984 3.72459e-05 0.000111498)
(1.19984 3.35407e-05 0.000109625)
(1.20011 5.79698e-05 0.000139249)
(1.20012 7.43313e-05 0.000137453)
(1.20016 5.44878e-05 0.000133283)
(1.20018 6.07697e-05 0.000141592)
(1.20013 5.54346e-05 0.00013647)
(1.20013 5.69864e-05 0.000134254)
(1.20026 9.10674e-05 0.000184064)
(1.20027 0.000108582 0.0001822)
(1.20026 8.52517e-05 0.000174747)
(1.20029 9.53578e-05 0.000188829)
(1.20028 8.24713e-05 0.000180281)
(1.20028 8.91465e-05 0.000177657)
(1.20041 0.000137943 0.000257107)
(1.20041 0.000159091 0.000254955)
(1.2004 0.000129836 0.000242769)
(1.20045 0.000143017 0.000264432)
(1.20043 0.000121056 0.00025146)
(1.20043 0.000134445 0.000247954)
(1.20062 0.00020276 0.000364024)
(1.20063 0.00022964 0.000360962)
(1.20061 0.000190909 0.000343105)
(1.20067 0.000210454 0.000374916)
(1.20065 0.000174186 0.000356017)
(1.20065 0.000197812 0.000350758)
(1.20092 0.000297005 0.000513867)
(1.20093 0.000331449 0.00051155)
(1.2009 0.000279664 0.000486041)
(1.20099 0.000306144 0.000528616)
(1.20096 0.000251857 0.000502728)
(1.20097 0.000288174 0.000496511)
(1.20135 0.000422484 0.000711736)
(1.20136 0.000468441 0.000710172)
(1.20132 0.000396998 0.000674314)
(1.20144 0.000432526 0.000729191)
(1.2014 0.000354851 0.00069353)
(1.20141 0.000405829 0.000686378)
(1.20196 0.000596943 0.000962107)
(1.20197 0.000658638 0.000963077)
(1.20191 0.000558638 0.000913668)
(1.20209 0.000607362 0.000981734)
(1.20202 0.000498471 0.000934296)
(1.20203 0.000568144 0.00092675)
(1.20281 0.000827356 0.00125904)
(1.20282 0.000908456 0.00126586)
(1.20274 0.000772599 0.0012007)
(1.20299 0.000833397 0.0012767)
(1.20288 0.000687195 0.00121711)
(1.2029 0.000778584 0.00121129)
(1.20398 0.00110518 0.00156867)
(1.20399 0.00120603 0.00158651)
(1.20386 0.00102892 0.00150358)
(1.2042 0.00109747 0.00157484)
(1.20406 0.000909678 0.00150449)
(1.20407 0.00102316 0.00150343)
(1.20554 0.00139678 0.00180735)
(1.20553 0.00151368 0.00184639)
(1.20536 0.00129702 0.00174877)
(1.20579 0.0013537 0.0017839)
(1.20559 0.00113298 0.00171268)
(1.20559 0.0012631 0.00172291)
(1.20749 0.00152894 0.00178537)
(1.20748 0.00164626 0.00184977)
(1.20722 0.00143393 0.00176438)
(1.20771 0.00140519 0.00170065)
(1.20745 0.00121485 0.00166015)
(1.20743 0.00133938 0.00168527)
(1.20933 0.000937794 0.0012424)
(1.20952 0.0010943 0.00121917)
(1.20904 0.000986691 0.00129571)
(1.20938 0.000706508 0.00108653)
(1.20921 0.000824794 0.0010827)
(1.20912 0.000801534 0.00114925)
(1.19995 3.35607e-06 4.75698e-06)
(1.19995 3.50022e-06 3.90559e-06)
(1.2 7.55072e-06 6.44093e-06)
(1.19995 3.2832e-06 3.87673e-06)
(1.19995 3.32684e-06 3.31453e-06)
(1.1999 7.10995e-05 6.56975e-05)
(1.1999 7.20606e-05 5.92217e-05)
(1.20002 5.75983e-05 4.75419e-05)
(1.20003 8.19929e-05 6.75744e-05)
(1.1999 6.9461e-05 5.89285e-05)
(1.1999 7.06892e-05 5.66621e-05)
(1.19982 0.00011813 9.64464e-05)
(1.19982 0.000120193 9.08469e-05)
(1.20007 0.000114319 8.83151e-05)
(1.20009 0.000122101 9.30523e-05)
(1.19982 0.000114311 8.94655e-05)
(1.19982 0.000116749 8.5398e-05)
(1.20009 0.000166002 0.000125423)
(1.20009 0.000167714 0.000120866)
(1.20014 0.000157881 0.000115632)
(1.20015 0.000172368 0.000123983)
(1.2001 0.000161069 0.00011855)
(1.2001 0.000163681 0.000113918)
(1.20021 0.000235838 0.000167658)
(1.20021 0.000238109 0.000161464)
(1.20021 0.000224342 0.000153664)
(1.20024 0.00024509 0.000167252)
(1.20023 0.000229174 0.000158426)
(1.20023 0.000232793 0.000151595)
(1.20032 0.000336931 0.000241023)
(1.20032 0.000339252 0.000232982)
(1.20032 0.000319564 0.000219822)
(1.20035 0.00034917 0.000240983)
(1.20035 0.000326479 0.000226842)
(1.20035 0.00033078 0.000217561)
(1.20048 0.000481532 0.000352686)
(1.20048 0.000483712 0.000341842)
(1.20048 0.000455514 0.000320572)
(1.20052 0.000498009 0.000353716)
(1.20052 0.000465536 0.000330994)
(1.20052 0.000470666 0.000318387)
(1.20071 0.000688425 0.000522441)
(1.20071 0.000690516 0.000508119)
(1.2007 0.000649918 0.000475394)
(1.20078 0.000709321 0.000523504)
(1.20077 0.00066303 0.00048925)
(1.20076 0.000669528 0.000471905)
(1.20106 0.00097471 0.000762749)
(1.20106 0.000976183 0.000744114)
(1.20105 0.000917864 0.00069408)
(1.20116 0.000998688 0.000762117)
(1.20114 0.000933001 0.000709986)
(1.20114 0.000940539 0.000686828)
(1.20159 0.00135909 0.00110391)
(1.20159 0.00135895 0.00108044)
(1.20157 0.00127772 0.00100508)
(1.20173 0.00138204 0.00110002)
(1.2017 0.00129223 0.00102256)
(1.2017 0.00130115 0.000992468)
(1.20239 0.00183485 0.00157031)
(1.20239 0.00183082 0.00154282)
(1.20234 0.00172339 0.00143157)
(1.20259 0.00184492 0.00155752)
(1.20253 0.00172942 0.00144536)
(1.20252 0.00173731 0.00140868)
(1.20356 0.00236207 0.00217017)
(1.20358 0.00234743 0.00213638)
(1.20348 0.00221691 0.0019794)
(1.20384 0.00233666 0.00213366)
(1.20372 0.00220278 0.00197784)
(1.20373 0.00220344 0.00193199)
(1.20528 0.00280827 0.00288653)
(1.20534 0.00276463 0.00282898)
(1.20513 0.00263726 0.00262143)
(1.20565 0.00270317 0.00278288)
(1.20541 0.00258302 0.00258232)
(1.20546 0.00256152 0.00251638)
(1.20779 0.00288686 0.0035243)
(1.20789 0.00276876 0.00338998)
(1.20749 0.00271497 0.00317019)
(1.20821 0.00263042 0.00322043)
(1.2078 0.00259741 0.0030302)
(1.20785 0.00252707 0.00292283)
(1.2112 0.00203058 0.00303006)
(1.21122 0.00178192 0.00274084)
(1.21056 0.00196948 0.00278419)
(1.2113 0.00157584 0.00232594)
(1.21079 0.00173553 0.0023488)
(1.21071 0.00163872 0.00229032)
(1.19995 1.30311e-06 4.69047e-06)
(1.19995 2.01474e-06 3.7924e-06)
(1.2 2.81187e-06 6.20121e-06)
(1.19995 9.07179e-07 3.74267e-06)
(1.19995 1.25297e-06 3.21543e-06)
(1.19991 4.8198e-05 6.41348e-05)
(1.19991 5.36643e-05 5.75296e-05)
(1.20003 3.74625e-05 4.59914e-05)
(1.20004 5.68981e-05 6.55801e-05)
(1.19991 4.59145e-05 5.70972e-05)
(1.19991 4.79001e-05 5.52907e-05)
(1.19984 8.53094e-05 9.16374e-05)
(1.19984 9.04174e-05 8.58988e-05)
(1.2001 8.22354e-05 8.41003e-05)
(1.20012 8.86745e-05 8.77948e-05)
(1.19985 8.04619e-05 8.49519e-05)
(1.19985 8.43556e-05 8.14187e-05)
(1.20013 0.000124189 0.000116406)
(1.20013 0.000129868 0.000111687)
(1.20018 0.000117736 0.000107009)
(1.2002 0.000129081 0.00011461)
(1.20014 0.000116517 0.000109715)
(1.20014 0.000122216 0.000105409)
(1.20028 0.000178409 0.000155585)
(1.20028 0.000186161 0.000149845)
(1.20028 0.000169319 0.000142831)
(1.20031 0.000185318 0.000154674)
(1.2003 0.00016707 0.000147079)
(1.2003 0.000175639 0.000140917)
(1.20043 0.00025656 0.000218205)
(1.20043 0.00026677 0.000210165)
(1.20042 0.000243196 0.000199078)
(1.20047 0.00026608 0.000217394)
(1.20046 0.000240274 0.000205586)
(1.20046 0.000251975 0.000196486)
(1.20064 0.000367064 0.000312841)
(1.20064 0.000380607 0.000302845)
(1.20063 0.000347533 0.000285544)
(1.20069 0.000379556 0.000313184)
(1.20067 0.00034351 0.000295022)
(1.20067 0.000359229 0.00028316)
(1.20094 0.000520364 0.000451438)
(1.20094 0.000538487 0.000438093)
(1.20092 0.000491963 0.000412023)
(1.20101 0.000535344 0.000450339)
(1.20098 0.000484901 0.000423799)
(1.20098 0.000506056 0.000407499)
(1.20137 0.000724596 0.000639476)
(1.20137 0.000749079 0.000621756)
(1.20134 0.000684532 0.000583985)
(1.20147 0.000741069 0.000636068)
(1.20143 0.000671362 0.000597687)
(1.20143 0.000700506 0.000575548)
(1.20199 0.000991025 0.000891179)
(1.20199 0.00102163 0.0008706)
(1.20194 0.000933777 0.000815549)
(1.20213 0.00100559 0.00088335)
(1.20207 0.000912508 0.000828601)
(1.20207 0.000948996 0.000801538)
(1.20286 0.00131679 0.00121203)
(1.20286 0.00135078 0.00119027)
(1.20278 0.00123869 0.00111198)
(1.20303 0.00132046 0.00119511)
(1.20294 0.00120355 0.00111945)
(1.20294 0.00124594 0.0010886)
(1.20402 0.00166614 0.00157985)
(1.20403 0.00169736 0.00155945)
(1.20391 0.00156497 0.00145428)
(1.20425 0.00164162 0.00154172)
(1.20411 0.0015068 0.00144335)
(1.20412 0.00155001 0.00141024)
(1.20556 0.00195197 0.00193713)
(1.20559 0.00196577 0.00191999)
(1.2054 0.00182978 0.00178696)
(1.20583 0.00186872 0.00185275)
(1.20563 0.00173634 0.0017373)
(1.20564 0.00176927 0.00170411)
(1.20752 0.00196693 0.00207211)
(1.20755 0.0019436 0.00205835)
(1.20725 0.00185075 0.00193028)
(1.20776 0.00177796 0.00189117)
(1.20746 0.00170254 0.00180249)
(1.20748 0.00171111 0.00177337)
(1.2095 0.00122589 0.00151898)
(1.20961 0.00118125 0.00141943)
(1.20916 0.00124332 0.00147902)
(1.20953 0.000939761 0.00122738)
(1.20928 0.00106998 0.00121263)
(1.20924 0.00101923 0.00123708)
(1.19995 -6.38075e-06 4.62022e-06)
(1.19995 -1.18849e-06 3.66638e-06)
(1.2 -1.28696e-05 5.97433e-06)
(1.19995 -4.50452e-06 3.65392e-06)
(1.19995 -6.39461e-06 3.13583e-06)
(1.19991 -6.1551e-06 6.35463e-05)
(1.19992 1.49656e-05 5.6436e-05)
(1.20003 -1.29579e-05 4.53645e-05)
(1.20005 1.04794e-06 6.46125e-05)
(1.19993 3.65573e-06 5.60855e-05)
(1.19992 -6.30498e-06 5.48994e-05)
(1.19986 3.12045e-05 8.86375e-05)
(1.19987 4.70091e-05 8.26663e-05)
(1.20012 2.8189e-05 8.14369e-05)
(1.20014 3.34732e-05 8.43655e-05)
(1.19987 3.46564e-05 8.19283e-05)
(1.19987 3.04477e-05 7.86781e-05)
(1.20016 5.39324e-05 0.00011053)
(1.20017 6.99997e-05 0.000105215)
(1.20021 5.04233e-05 0.0001014)
(1.20023 5.65835e-05 0.000108448)
(1.20017 5.25567e-05 0.000104156)
(1.20017 5.28738e-05 9.99527e-05)
(1.20033 8.35786e-05 0.000146545)
(1.20033 0.000100862 0.000140422)
(1.20032 7.84899e-05 0.000134535)
(1.20036 8.73507e-05 0.000145498)
(1.20034 7.66213e-05 0.000138757)
(1.20034 8.19123e-05 0.00013282)
(1.2005 0.000125397 0.000203501)
(1.2005 0.00014598 0.000195011)
(1.20049 0.000118392 0.00018593)
(1.20054 0.000130509 0.000202687)
(1.20052 0.000110963 0.000192732)
(1.20052 0.000123116 0.000183517)
(1.20074 0.000184509 0.000288482)
(1.20075 0.00021004 0.000277464)
(1.20072 0.000174218 0.000263885)
(1.20079 0.000191353 0.000287769)
(1.20077 0.000159226 0.000273512)
(1.20077 0.000180554 0.000260929)
(1.20109 0.000264326 0.00040727)
(1.20109 0.000295719 0.00039184)
(1.20106 0.000250068 0.000372247)
(1.20116 0.000271663 0.000404708)
(1.20112 0.000225039 0.000384871)
(1.20112 0.000257351 0.000367014)
(1.20157 0.000361707 0.000562561)
(1.20158 0.000402832 0.00054292)
(1.20153 0.000342304 0.000515754)
(1.20167 0.000369464 0.000557853)
(1.20161 0.000305112 0.000530869)
(1.20162 0.000349648 0.000506999)
(1.20224 0.000492374 0.000757836)
(1.20224 0.000545104 0.000733681)
(1.20217 0.000464054 0.000697232)
(1.20237 0.000499333 0.000747921)
(1.20228 0.000412626 0.000712888)
(1.20229 0.000471569 0.000682337)
(1.20313 0.000649721 0.000984529)
(1.20314 0.000714936 0.00095748)
(1.20304 0.00061156 0.000909715)
(1.20329 0.000650214 0.000964845)
(1.20318 0.000540395 0.000921824)
(1.20319 0.000614058 0.000885864)
(1.20428 0.000811339 0.00120785)
(1.20429 0.000886423 0.00118012)
(1.20416 0.000763069 0.00112307)
(1.20448 0.000797503 0.00117013)
(1.20433 0.000668732 0.00112295)
(1.20434 0.000754165 0.00108251)
(1.20569 0.000930231 0.00135592)
(1.2057 0.00100666 0.00133256)
(1.20552 0.000875783 0.00127331)
(1.2059 0.000888141 0.0012877)
(1.20571 0.000756547 0.00124704)
(1.20571 0.000844739 0.00120668)
(1.20725 0.000893422 0.0012812)
(1.20725 0.000956315 0.00126721)
(1.20704 0.000852674 0.00123084)
(1.20741 0.000807337 0.00116873)
(1.2072 0.000713194 0.00116025)
(1.2072 0.000786517 0.00112756)
(1.20856 0.000501167 0.000814902)
(1.20859 0.000544012 0.000782089)
(1.20835 0.000529914 0.00083187)
(1.20858 0.000384243 0.000674355)
(1.20843 0.000419871 0.000713487)
(1.2084 0.000432643 0.00070199)
(1.19995 3.30745e-06 3.01828e-07)
(1.19995 3.51266e-06 -4.77614e-06)
(1.2 7.61798e-06 -9.49475e-06)
(1.19995 3.28393e-06 -4.80565e-06)
(1.19995 3.27736e-06 -2.33414e-06)
(1.19991 7.01585e-05 2.15021e-05)
(1.19991 7.21423e-05 6.33701e-06)
(1.20003 5.75894e-05 -1.12694e-06)
(1.20004 8.17608e-05 1.24453e-05)
(1.19991 6.92324e-05 5.81072e-06)
(1.19992 6.97205e-05 8.55972e-06)
(1.19984 0.000114074 4.83494e-05)
(1.19984 0.000116958 3.56353e-05)
(1.20009 0.000111732 3.32642e-05)
(1.20011 0.000118654 3.7502e-05)
(1.19985 0.000111483 3.48507e-05)
(1.19985 0.000113279 3.52326e-05)
(1.20013 0.000158703 6.9408e-05)
(1.20012 0.000161996 5.57618e-05)
(1.20017 0.000152087 5.25271e-05)
(1.20019 0.000165932 5.77047e-05)
(1.20013 0.000154689 5.44718e-05)
(1.20013 0.00015741 5.18934e-05)
(1.20027 0.000225932 9.40269e-05)
(1.20027 0.00022882 7.93929e-05)
(1.20027 0.000216129 7.52091e-05)
(1.2003 0.000235422 8.18046e-05)
(1.20029 0.000220712 7.746e-05)
(1.20028 0.000223996 7.20643e-05)
(1.20041 0.000316364 0.000132219)
(1.2004 0.000320344 0.000113909)
(1.2004 0.000302303 0.000106776)
(1.20044 0.000328937 0.00011785)
(1.20043 0.00030803 0.000110115)
(1.20042 0.000312564 0.000100196)
(1.20061 0.00044628 0.000195753)
(1.2006 0.000450908 0.000171629)
(1.20059 0.000425436 0.000160396)
(1.20065 0.00046356 0.000177757)
(1.20064 0.000434464 0.000165915)
(1.20062 0.000440556 0.000149016)
(1.20089 0.000626189 0.000288869)
(1.20088 0.000632143 0.000256776)
(1.20086 0.000596747 0.000239899)
(1.20095 0.00064724 0.00026422)
(1.20093 0.000607016 0.000246765)
(1.20092 0.000616167 0.000220652)
(1.20131 0.000861774 0.000417678)
(1.20129 0.000869056 0.000374574)
(1.20127 0.000820272 0.000349365)
(1.2014 0.000886486 0.000383202)
(1.20136 0.000831647 0.000356869)
(1.20135 0.000844052 0.000317823)
(1.20192 0.00116766 0.000602853)
(1.20191 0.00117623 0.000545755)
(1.20186 0.00111102 0.000506882)
(1.20205 0.00119204 0.000555448)
(1.20199 0.00112016 0.000515774)
(1.20198 0.00113766 0.000458406)
(1.20282 0.00151435 0.000851383)
(1.20281 0.00152556 0.000774683)
(1.20273 0.00144409 0.000719847)
(1.203 0.00152892 0.000780145)
(1.2029 0.00144199 0.000725693)
(1.20289 0.00146534 0.000646216)
(1.20408 0.0018458 0.00114255)
(1.20409 0.00185684 0.00104372)
(1.20395 0.00176629 0.00097099)
(1.20432 0.00183297 0.00103588)
(1.20416 0.00174142 0.0009661)
(1.20416 0.00176815 0.000863914)
(1.20577 0.00202864 0.00141875)
(1.2058 0.00203532 0.00129704)
(1.20558 0.00195699 0.00121388)
(1.20604 0.00196166 0.00125925)
(1.20581 0.00189115 0.00118529)
(1.20583 0.00191687 0.00106183)
(1.20781 0.00183961 0.00148855)
(1.20785 0.00183651 0.00135611)
(1.20754 0.00181252 0.00129848)
(1.20805 0.00169648 0.00126131)
(1.20773 0.00169064 0.00122376)
(1.20779 0.00170728 0.00109207)
(1.20972 0.00104943 0.000979457)
(1.20976 0.00103939 0.000877635)
(1.20942 0.00111912 0.000920721)
(1.20977 0.000853329 0.000721027)
(1.20947 0.000950609 0.000782747)
(1.20953 0.000954592 0.000690993)
(1.19995 1.14402e-06 3.02212e-07)
(1.19995 1.99325e-06 -4.86511e-06)
(1.2 2.54164e-06 -9.69062e-06)
(1.19995 8.32985e-07 -4.89662e-06)
(1.19995 1.112e-06 -2.32848e-06)
(1.19992 4.72553e-05 2.02469e-05)
(1.19992 5.31574e-05 4.23077e-06)
(1.20003 3.68551e-05 -3.00534e-06)
(1.20005 5.61217e-05 1.03593e-05)
(1.19992 4.55168e-05 3.74184e-06)
(1.19993 4.68694e-05 7.2735e-06)
(1.19987 8.24232e-05 4.61328e-05)
(1.19987 8.8049e-05 3.28682e-05)
(1.20012 8.02387e-05 3.08377e-05)
(1.20014 8.59205e-05 3.45424e-05)
(1.19987 7.81958e-05 3.23039e-05)
(1.19987 8.18489e-05 3.3585e-05)
(1.20017 0.000117844 6.47099e-05)
(1.20017 0.000124166 5.10393e-05)
(1.20021 0.000112544 4.80898e-05)
(1.20024 0.000123334 5.29698e-05)
(1.20017 0.000111277 5.00201e-05)
(1.20017 0.000116823 4.88639e-05)