/*--------------------------------*- C++ -*----------------------------------*\
| =========                 |                                                 |
| \\      /  F ield         | OpenFOAM: The Open Source CFD Toolbox           |
|  \\    /   O peration     | Version:  2012                                  |
|   \\  /    A nd           | Website:  www.openfoam.com                      |
|    \\/     M anipulation  |                                                 |
\*---------------------------------------------------------------------------*/
FoamFile
{
    version     2.0;
    format      ascii;
    class       volVectorField;
    location    "0.107/fluid";
    object      cellMotionU;
}
// * * * * * * * * * * * * * * * * * * * * * * * * * * * * * * * * * * * * * //

dimensions      [0 1 -1 0 0 0 0];


internalField   nonuniform List<vector> 
16421
(
(1.5744e-07 8.44026e-08 -1.99415e-09)
(1.35037e-06 7.55515e-07 -2.05531e-08)
(2.6505e-06 1.41467e-06 -4.18346e-08)
(3.81754e-06 2.02224e-06 -6.11106e-08)
(4.58012e-06 2.55695e-06 -8.19907e-08)
(4.90741e-06 2.84382e-06 -1.02829e-07)
(4.91095e-06 2.87998e-06 -1.19099e-07)
(4.87723e-06 2.68748e-06 -1.28537e-07)
(5.03602e-06 2.1911e-06 -1.24723e-07)
(5.2896e-06 1.39525e-06 -1.03456e-07)
(5.31234e-06 4.23802e-07 -5.97976e-08)
(4.59249e-06 -3.22488e-07 -6.64917e-10)
(2.80612e-06 -4.75238e-07 3.87021e-08)
(8.67249e-07 -1.68241e-07 2.81301e-08)
(2.21581e-10 -3.36503e-09 6.73138e-10)
(1.41895e-06 7.52771e-07 -1.80083e-08)
(1.20148e-05 6.8193e-06 -1.97854e-07)
(2.41653e-05 1.25123e-05 -3.87661e-07)
(3.48864e-05 1.7788e-05 -5.57698e-07)
(4.20682e-05 2.2123e-05 -7.3428e-07)
(4.5233e-05 2.48389e-05 -9.06608e-07)
(4.56119e-05 2.54655e-05 -1.04934e-06)
(4.56198e-05 2.36785e-05 -1.11972e-06)
(4.67794e-05 1.91909e-05 -1.09296e-06)
(4.82349e-05 1.19292e-05 -9.19563e-07)
(4.7447e-05 3.08337e-06 -5.54446e-07)
(4.05397e-05 -3.69745e-06 -5.16994e-08)
(2.54128e-05 -5.01418e-06 3.33356e-07)
(9.27792e-06 -2.12025e-06 3.16583e-07)
(4.54332e-07 -1.05216e-07 2.12518e-08)
(2.72474e-06 1.31208e-06 -3.1534e-08)
(2.41124e-05 1.17036e-05 -3.48854e-07)
(4.85793e-05 2.14304e-05 -6.62477e-07)
(7.00697e-05 3.03485e-05 -9.26147e-07)
(8.45341e-05 3.79295e-05 -1.23496e-06)
(9.18288e-05 4.30947e-05 -1.59851e-06)
(9.41131e-05 4.47266e-05 -1.8476e-06)
(9.46564e-05 4.19144e-05 -1.95773e-06)
(9.58647e-05 3.38067e-05 -1.95785e-06)
(9.60807e-05 1.99881e-05 -1.68597e-06)
(9.17157e-05 2.98482e-06 -1.08288e-06)
(7.73325e-05 -1.03898e-05 -2.2337e-07)
(5.00772e-05 -1.27997e-05 5.92014e-07)
(2.00422e-05 -5.78206e-06 7.00778e-07)
(1.17543e-06 -2.81952e-07 5.49274e-08)
(4.18674e-06 1.59957e-06 -3.96119e-08)
(3.75755e-05 1.45236e-05 -4.33541e-07)
(7.61014e-05 2.67624e-05 -8.4088e-07)
(0.000110368 3.79281e-05 -1.24198e-06)
(0.000134014 4.73975e-05 -1.58483e-06)
(0.000147927 5.44981e-05 -2.0204e-06)
(0.000154502 5.75038e-05 -2.28577e-06)
(0.000155976 5.43817e-05 -2.5051e-06)
(0.000154789 4.35928e-05 -2.53124e-06)
(0.000149265 2.44011e-05 -2.23299e-06)
(0.000136352 7.60177e-07 -1.46904e-06)
(0.000111648 -1.78793e-05 -3.35799e-07)
(7.29322e-05 -2.17875e-05 9.17679e-07)
(3.13422e-05 -1.10948e-05 1.35213e-06)
(1.97109e-06 -5.15568e-07 6.27263e-08)
(1.57457e-07 9.54553e-08 -1.96774e-08)
(1.32126e-06 8.7039e-07 -1.96092e-07)
(2.60356e-06 1.60267e-06 -3.78166e-07)
(3.71436e-06 2.2512e-06 -5.47327e-07)
(4.4053e-06 2.75966e-06 -7.23499e-07)
(4.59907e-06 3.03165e-06 -8.928e-07)
(4.4256e-06 3.00135e-06 -1.03348e-06)
(4.13729e-06 2.70922e-06 -1.12662e-06)
(4.06522e-06 2.15538e-06 -1.09329e-06)
(4.15106e-06 1.32798e-06 -8.98457e-07)
(4.20854e-06 3.37555e-07 -5.13345e-07)
(3.90766e-06 -4.1618e-07 -3.75412e-09)
(2.84378e-06 -5.59704e-07 3.75177e-07)
(1.33434e-06 -2.65062e-07 3.49268e-07)
(1.38672e-07 -2.20873e-08 5.98327e-08)
(1.35849e-06 8.87695e-07 -1.89626e-07)
(1.17321e-05 7.88566e-06 -1.82839e-06)
(2.35133e-05 1.43041e-05 -3.4844e-06)
(3.365e-05 1.9945e-05 -4.98685e-06)
(4.00046e-05 2.42402e-05 -6.51023e-06)
(4.21242e-05 2.66096e-05 -7.96615e-06)
(4.08459e-05 2.67139e-05 -9.26581e-06)
(3.86097e-05 2.42154e-05 -1.00436e-05)
(3.76881e-05 1.91553e-05 -9.8187e-06)
(3.76584e-05 1.15394e-05 -8.19867e-06)
(3.70304e-05 2.30963e-06 -4.86173e-06)
(3.32756e-05 -4.61759e-06 -5.44094e-07)
(2.45552e-05 -6.12404e-06 3.05332e-06)
(1.28124e-05 -3.32898e-06 3.65436e-06)
(3.30051e-06 -6.97298e-07 1.56661e-06)
(2.69455e-06 1.52167e-06 -3.2949e-07)
(2.35567e-05 1.36301e-05 -3.25161e-06)
(4.71708e-05 2.4624e-05 -6.15688e-06)
(6.74457e-05 3.40706e-05 -8.71632e-06)
(8.03029e-05 4.16497e-05 -1.14559e-05)
(8.5683e-05 4.63673e-05 -1.414e-05)
(8.53241e-05 4.70535e-05 -1.6395e-05)
(8.22667e-05 4.30129e-05 -1.78593e-05)
(7.92048e-05 3.38376e-05 -1.78529e-05)
(7.54934e-05 1.91338e-05 -1.54757e-05)
(6.97998e-05 1.02822e-06 -9.97651e-06)
(5.94363e-05 -1.30616e-05 -2.36952e-06)
(4.47155e-05 -1.63632e-05 5.41834e-06)
(2.79426e-05 -9.78808e-06 8.54919e-06)
(8.64404e-06 -3.15607e-06 3.96662e-06)
(4.10278e-06 1.91569e-06 -4.65181e-07)
(3.68454e-05 1.69822e-05 -4.3128e-06)
(7.37443e-05 3.06853e-05 -8.16304e-06)
(0.000105822 4.24851e-05 -1.17294e-05)
(0.000127116 5.19868e-05 -1.52769e-05)
(0.000138571 5.83844e-05 -1.85803e-05)
(0.000141646 6.0108e-05 -2.15768e-05)
(0.000138651 5.5542e-05 -2.36641e-05)
(0.000131563 4.33406e-05 -2.39405e-05)
(0.000120375 2.29496e-05 -2.11091e-05)
(0.000104455 -2.06585e-06 -1.43461e-05)
(8.37255e-05 -2.2248e-05 -4.02198e-06)
(6.12487e-05 -2.76336e-05 7.98493e-06)
(4.14319e-05 -1.73139e-05 1.41672e-05)
(8.9316e-07 -4.12789e-06 -3.39833e-07)
(1.48792e-07 1.28626e-07 -3.54897e-08)
(1.22713e-06 1.16215e-06 -3.45635e-07)
(2.4129e-06 2.09906e-06 -6.62647e-07)
(3.41196e-06 2.85786e-06 -9.51209e-07)
(3.93247e-06 3.36003e-06 -1.24332e-06)
(3.84937e-06 3.49877e-06 -1.51904e-06)
(3.27604e-06 3.2664e-06 -1.75701e-06)
(2.44014e-06 2.80615e-06 -1.91463e-06)
(1.77154e-06 2.09417e-06 -1.86652e-06)
(1.46646e-06 1.18271e-06 -1.53742e-06)
(1.45115e-06 2.00854e-07 -8.99566e-07)
(1.77394e-06 -4.81003e-07 -4.20036e-08)
(2.00015e-06 -5.54481e-07 6.34157e-07)
(1.39866e-06 -2.56062e-07 6.71096e-07)
(2.20638e-07 -2.19705e-08 1.26361e-07)
(1.28958e-06 1.17632e-06 -3.29895e-07)
(1.09929e-05 1.03708e-05 -3.15782e-06)
(2.18389e-05 1.85398e-05 -5.99177e-06)
(3.08763e-05 2.50913e-05 -8.52212e-06)
(3.54937e-05 2.94635e-05 -1.11353e-05)
(3.47943e-05 3.09795e-05 -1.36645e-05)
(2.97347e-05 2.95961e-05 -1.59362e-05)
(2.29354e-05 2.54185e-05 -1.72574e-05)
(1.68343e-05 1.89953e-05 -1.69548e-05)
(1.28499e-05 1.04189e-05 -1.41881e-05)
(1.08633e-05 8.13497e-07 -8.66079e-06)
(1.18341e-05 -5.79642e-06 -1.41305e-06)
(1.47561e-05 -7.01019e-06 5.52941e-06)
(1.35209e-05 -4.15777e-06 7.48394e-06)
(5.79143e-06 -1.17811e-06 3.57601e-06)
(2.50294e-06 2.0642e-06 -6.02096e-07)
(2.189e-05 1.81106e-05 -5.6975e-06)
(4.35812e-05 3.21623e-05 -1.07653e-05)
(6.14478e-05 4.3162e-05 -1.52717e-05)
(7.11117e-05 5.07114e-05 -1.98243e-05)
(7.1879e-05 5.40814e-05 -2.42979e-05)
(6.50439e-05 5.24404e-05 -2.82776e-05)
(5.33014e-05 4.56803e-05 -3.10612e-05)
(4.0092e-05 3.39945e-05 -3.12658e-05)
(2.75662e-05 1.68919e-05 -2.71374e-05)
(1.59384e-05 -2.74482e-06 -1.80946e-05)
(1.09084e-05 -1.70107e-05 -5.36253e-06)
(1.73635e-05 -2.07347e-05 9.33992e-06)
(3.09442e-05 -1.46453e-05 1.8235e-05)
(1.899e-05 -9.05481e-06 1.16628e-05)
(3.92576e-06 2.51183e-06 -8.03021e-07)
(3.42783e-05 2.27165e-05 -7.64775e-06)
(6.78234e-05 3.99239e-05 -1.42277e-05)
(9.58798e-05 5.34598e-05 -2.03858e-05)
(0.000112475 6.2931e-05 -2.63388e-05)
(0.000117307 6.76182e-05 -3.20111e-05)
(0.000111936 6.63758e-05 -3.71126e-05)
(9.7314e-05 5.80725e-05 -4.08138e-05)
(7.64895e-05 4.27185e-05 -4.15207e-05)
(5.22897e-05 1.96002e-05 -3.69169e-05)
(2.74307e-05 -7.4661e-06 -2.56251e-05)
(1.1465e-05 -2.775e-05 -8.79472e-06)
(1.71506e-05 -3.23219e-05 1.14851e-05)
(4.25753e-05 -2.07097e-05 2.34733e-05)
(-3.00003e-06 -1.06379e-05 1.85697e-06)
(8.34029e-09 -8.42153e-09 3.27996e-09)
(6.63159e-06 -1.42691e-06 2.21339e-07)
(8.93441e-07 -2.04347e-07 6.83497e-08)
(1.19148e-06 -2.45446e-07 2.42299e-07)
(2.77766e-07 -5.61465e-08 8.61686e-08)
(8.76374e-06 -2.00777e-06 1.90674e-06)
(2.75889e-06 -5.82545e-07 9.42622e-07)
(3.7935e-07 -9.5508e-08 2.12299e-08)
(1.13114e-07 -2.17418e-08 4.18478e-08)
(1.61078e-06 -3.34017e-07 6.2554e-07)
(1.50215e-07 -4.74472e-08 7.76816e-08)
(1.06195e-06 -2.493e-07 4.92536e-08)
(2.43242e-06 -5.45535e-07 9.68502e-07)
(3.32109e-07 -1.05956e-07 1.78554e-07)
(5.16374e-06 -1.5622e-06 2.09742e-06)
(2.71246e-07 -6.45e-07 4.74778e-07)
(1.86249e-06 -4.24441e-07 6.55625e-08)
(6.00995e-06 -2.06714e-06 2.32099e-06)
(-2.37855e-07 -1.15407e-06 4.73891e-07)
(4.73407e-06 -3.76995e-06 1.01014e-06)
(-4.58907e-06 -3.11382e-06 -1.89321e-07)
(1.31301e-06 -3.12939e-06 -6.43511e-07)
(-5.92922e-06 -3.03369e-06 1.8816e-07)
(2.06519e-06 -3.91248e-07 9.49924e-07)
(2.40672e-07 -5.72209e-08 1.28226e-07)
(2.03983e-07 -2.17867e-08 1.12606e-07)
(3.21046e-06 -5.25428e-07 1.87092e-06)
(4.85272e-07 -1.21041e-07 2.6507e-07)
(-7.01408e-06 -4.15205e-06 9.126e-08)
(-2.79247e-06 -8.23144e-06 9.45398e-07)
(-1.99657e-05 -1.21612e-05 1.23389e-07)
(3.44787e-06 -5.97731e-07 2.06747e-06)
(5.91662e-07 -1.86664e-07 2.92623e-07)
(-2.09982e-05 -1.28216e-05 4.44133e-07)
(1.18777e-07 -3.49817e-08 5.04598e-08)
(2.73254e-07 -9.10476e-08 2.82595e-08)
(4.06331e-08 -1.39611e-08 1.13746e-08)
(3.88087e-07 -1.08196e-07 9.96952e-08)
(3.74159e-10 -2.8416e-09 3.6097e-09)
(1.32235e-06 -2.9764e-07 9.12621e-08)
(1.72168e-05 -4.74913e-06 5.9694e-07)
(2.73058e-06 -6.84139e-07 1.92838e-07)
(1.17299e-05 -2.93386e-06 2.61008e-06)
(3.96174e-06 -9.17663e-07 1.38067e-06)
(2.19837e-05 -6.84797e-06 5.17559e-06)
(8.28459e-06 -2.39102e-06 2.93908e-06)
(3.91242e-07 -9.51472e-08 1.48987e-07)
(7.00693e-07 -1.53219e-07 3.15394e-08)
(7.46513e-07 -1.63875e-07 1.75391e-07)
(2.48599e-07 -6.0366e-08 8.83828e-08)
(1.00088e-06 -2.26171e-07 2.3957e-07)
(3.23441e-06 -8.28054e-07 2.29888e-07)
(2.8247e-05 -9.47616e-06 1.1409e-06)
(4.82405e-06 -1.34705e-06 3.26654e-07)
(2.55112e-05 -8.31898e-06 6.04242e-06)
(9.76009e-06 -2.9995e-06 3.37866e-06)
(3.62021e-05 -1.4016e-05 9.71727e-06)
(1.1863e-05 -5.70828e-06 3.70294e-06)
(7.1401e-07 -3.65417e-07 2.28718e-07)
(1.46942e-06 -3.50888e-07 6.64083e-08)
(1.85574e-06 -4.89215e-07 4.46212e-07)
(6.43053e-07 -2.53914e-07 2.31293e-07)
(2.12388e-06 -5.87124e-07 4.8473e-07)
(5.23919e-06 -1.70876e-06 3.32307e-07)
(3.83082e-05 -1.58352e-05 1.07068e-05)
(9.85748e-06 -5.94602e-06 2.96805e-06)
(1.97508e-06 -1.01809e-06 -6.39597e-08)
(-5.22274e-07 -6.47197e-07 -8.9643e-07)
(-1.34755e-06 -1.73159e-06 9.2884e-07)
(4.85834e-06 -5.04535e-06 1.48895e-06)
(-7.5014e-06 -4.71842e-06 -3.14815e-07)
(1.62611e-05 -7.5481e-06 9.82073e-06)
(-6.40225e-06 -4.09784e-06 2.54179e-06)
(5.17923e-06 -1.01947e-05 4.10001e-06)
(-1.75484e-05 -1.07747e-05 -9.54936e-08)
(1.13621e-05 -7.35767e-06 4.14708e-06)
(4.36432e-05 -2.02371e-05 2.15501e-05)
(1.42177e-05 -1.1734e-05 7.92027e-06)
(-6.91876e-06 -1.20781e-06 -3.59731e-06)
(-2.60879e-07 -5.13021e-06 -7.53899e-08)
(-1.00001e-05 -2.03699e-06 -3.92962e-06)
(-7.12057e-06 -5.25887e-06 2.86797e-06)
(5.18585e-06 -1.22385e-05 5.08602e-06)
(-2.03333e-05 -1.17141e-05 3.55613e-07)
(1.44538e-05 -1.32724e-05 8.84682e-06)
(-1.94327e-05 -7.06846e-06 -3.53061e-06)
(-4.46047e-06 -1.27255e-05 2.47812e-06)
(-2.23141e-05 -9.14716e-06 -2.97593e-06)
(8.29082e-07 -1.71982e-07 1.16124e-07)
(1.95562e-07 -4.24181e-08 1.20864e-08)
(1.71286e-07 -5.11526e-08 2.39807e-08)
(6.49018e-08 -1.71411e-08 1.43191e-08)
(4.91305e-07 -1.17338e-07 1.08422e-07)
(5.49881e-07 -1.18076e-07 3.35905e-08)
(2.9093e-07 -6.0973e-08 4.03805e-08)
(3.15015e-08 -4.21985e-09 2.23103e-08)
(-1.22513e-08 1.55166e-08 6.22105e-10)
(-2.94337e-09 -6.17596e-10 5.11729e-10)
(1.60602e-07 -3.37263e-08 5.81978e-08)
(3.68406e-07 -1.27365e-07 5.87462e-08)
(5.43084e-07 -1.24136e-07 1.27297e-07)
(5.15676e-07 -1.31537e-07 1.25668e-07)
(2.07604e-07 -4.20491e-08 7.56351e-08)
(6.75484e-08 -9.4218e-09 3.20879e-08)
(1.65492e-08 -1.08822e-08 1.47315e-08)
(-9.07537e-09 1.0379e-08 3.41092e-09)
(1.17518e-07 -2.51954e-08 4.97106e-08)
(2.65712e-08 -1.43429e-09 2.04968e-08)
(-2.95064e-10 -1.69896e-10 5.28188e-10)
(-4.64025e-09 8.30847e-09 6.06136e-10)
(-1.17022e-08 1.42454e-08 3.96281e-10)
(4.84013e-08 -3.95058e-10 3.17194e-08)
(-2.76706e-09 -4.94004e-10 4.60753e-10)
(2.32062e-07 -6.37261e-08 9.9181e-08)
(3.15199e-08 -2.47996e-08 1.84943e-08)
(1.46278e-07 -3.94086e-08 5.88205e-08)
(5.57514e-08 -4.37668e-08 3.44062e-08)
(4.49416e-07 -1.22894e-07 1.68606e-07)
(7.8912e-07 -1.77414e-07 3.53856e-08)
(1.54427e-06 -3.89238e-07 3.77056e-07)
(1.25074e-06 -3.00916e-07 3.01912e-07)
(5.82871e-07 -1.90494e-07 2.22027e-07)
(2.65523e-07 -8.73993e-08 1.10425e-07)
(4.91093e-08 -1.264e-07 5.08962e-08)
(6.51647e-08 -6.48005e-08 3.94215e-08)
(3.42682e-07 -1.5079e-07 1.47238e-07)
(3.34053e-07 -3.07342e-07 1.13324e-07)
(4.66379e-08 -1.96121e-07 4.9483e-08)
(3.6807e-07 -2.05782e-07 1.46818e-07)
(-1.10542e-07 -3.7742e-07 4.15064e-08)
(6.83571e-07 -4.48928e-07 1.63685e-07)
(1.5637e-06 -3.72573e-07 6.75284e-08)
(2.33731e-06 -8.296e-07 3.21403e-07)
(2.26626e-06 -6.88314e-07 4.43759e-07)
(-3.98157e-09 -4.03171e-07 -3.77804e-07)
(2.68774e-07 -3.99371e-07 5.40143e-08)
(-7.77602e-07 -7.42927e-07 3.17473e-08)
(-1.91142e-07 -4.9468e-07 2.61546e-08)
(-3.92885e-07 -3.52578e-07 -4.05572e-07)
(-9.48104e-07 -9.16877e-07 9.79328e-08)
(-7.56808e-07 -5.51358e-07 -7.61315e-07)
(1.73419e-06 -2.15034e-06 -5.48214e-07)
(-4.32594e-06 -8.05386e-07 -3.0804e-06)
(-2.10051e-06 -6.01101e-07 -2.19103e-06)
(-1.65347e-06 -1.63757e-06 1.94066e-07)
(-4.57414e-06 -6.89541e-07 -2.20394e-06)
(-1.17916e-06 -1.04871e-06 -1.17795e-06)
(9.17992e-08 -1.65148e-09 5.74372e-08)
(-1.96217e-10 -1.61136e-10 5.58861e-10)
(-3.34675e-09 7.85322e-09 9.53901e-10)
(5.97883e-08 -1.11442e-09 3.82354e-08)
(3.31808e-09 5.52512e-09 2.25766e-09)
(8.07688e-10 -8.03694e-11 7.98838e-10)
(1.02614e-07 -2.22886e-09 6.442e-08)
(1.81102e-09 -1.13743e-10 1.18215e-09)
(9.38142e-09 2.47264e-09 3.98566e-09)
(4.13455e-09 5.12641e-09 2.48376e-09)
(1.30151e-07 -4.01068e-09 8.14257e-08)
(6.55207e-10 -9.5348e-11 7.67929e-10)
(-5.33765e-06 -1.35851e-06 -2.39346e-06)
(-1.28366e-05 -7.43182e-06 -3.14704e-07)
(-9.96492e-06 -3.07249e-06 -2.98873e-06)
(-2.50235e-06 -6.20573e-06 9.33387e-08)
(-1.68257e-05 -4.89223e-06 -4.02556e-06)
(-1.38281e-05 -3.07582e-06 -4.18486e-06)
(-1.38953e-05 -8.87443e-06 -3.73265e-07)
(-1.54818e-05 -6.88838e-06 -2.76834e-06)
(-1.09891e-05 -3.86903e-06 -3.03772e-06)
(1.67635e-07 -1.06517e-08 1.0142e-07)
(1.77993e-09 -1.26187e-10 1.21117e-09)
(1.01944e-08 2.09215e-09 4.20142e-09)
(1.38843e-07 -5.7549e-09 8.61682e-08)
(1.61931e-08 -5.29605e-10 4.77666e-09)
(2.46128e-09 -1.81211e-10 1.45018e-09)
(1.84918e-07 -1.84666e-08 1.08438e-07)
(1.83095e-08 -1.77735e-09 4.8817e-09)
(2.46182e-09 -2.60731e-10 1.46442e-09)
(-1.6305e-05 -7.39651e-06 -2.45792e-06)
(-2.67496e-05 -1.17912e-05 1.0262e-06)
(-1.97317e-05 -9.34625e-06 -1.42739e-06)
(-2.78156e-05 -1.04986e-05 1.34119e-06)
(-1.99071e-05 -8.9508e-06 -9.72995e-07)
(3.68693e-08 -4.83592e-08 2.70686e-08)
(5.17911e-09 -6.55182e-09 3.85033e-09)
(4.35655e-08 -2.15285e-08 1.33321e-08)
(1.33944e-09 -4.76963e-09 5.73111e-09)
(3.20706e-07 -5.66459e-08 1.2553e-07)
(9.55118e-06 -2.24238e-06 2.65058e-06)
(3.39196e-06 -6.92922e-07 1.40054e-06)
(1.38439e-06 -2.64084e-07 6.00015e-07)
(4.39163e-07 -6.02787e-08 2.32978e-07)
(1.04571e-05 -2.59228e-06 4.88919e-06)
(4.82257e-06 -8.72616e-07 2.71386e-06)
(1.893e-07 -1.96821e-08 1.02573e-07)
(6.72528e-09 -9.46862e-10 4.00526e-09)
(5.10174e-07 -8.22632e-08 2.25098e-07)
(1.60965e-07 -2.17238e-08 7.79978e-08)
(1.53861e-07 -1.91461e-08 7.72767e-08)
(5.934e-07 -8.60696e-08 2.92117e-07)
(8.57129e-09 -9.37558e-10 5.14552e-09)
(5.02309e-07 -1.25381e-07 3.02683e-07)
(7.3411e-06 -2.33287e-06 3.49752e-06)
(-1.01537e-07 -9.09093e-07 9.10088e-07)
(5.21032e-06 -1.02926e-06 3.14948e-06)
(9.5306e-07 -2.98513e-07 6.55921e-07)
(1.41074e-05 -5.19635e-06 8.82948e-06)
(-2.2327e-06 -2.322e-06 2.49262e-06)
(4.59515e-07 -6.21705e-08 2.56715e-07)
(1.0183e-05 -2.65345e-06 5.36192e-06)
(5.07875e-06 -9.5409e-07 2.99886e-06)
(2.9716e-07 -3.21932e-08 1.76908e-07)
(1.53285e-08 -1.13142e-09 8.69525e-09)
(8.01855e-07 -9.61907e-08 4.67065e-07)
(2.24276e-07 -2.69646e-08 1.31523e-07)
(2.7193e-07 -2.68555e-08 1.61338e-07)
(8.33157e-07 -1.04223e-07 5.02115e-07)
(1.76754e-08 -1.43891e-09 9.99534e-09)
(1.17078e-06 -4.79389e-07 7.22778e-07)
(1.59331e-05 -6.17714e-06 1.02346e-05)
(-2.39159e-06 -3.27439e-06 2.78187e-06)
(1.20599e-07 -3.03959e-08 1.68422e-08)
(3.74751e-08 -1.13728e-08 2.59664e-09)
(1.49957e-08 -3.38672e-09 7.54914e-09)
(1.95085e-08 -1.18457e-08 6.97395e-09)
(6.18272e-08 -2.29624e-08 1.60501e-08)
(7.73827e-08 -2.01492e-08 6.55793e-09)
(4.93956e-08 -1.39112e-08 6.99174e-09)
(1.59657e-06 -3.42688e-07 2.24723e-07)
(5.07513e-07 -1.32044e-07 5.382e-08)
(2.12314e-06 -4.69443e-07 1.12393e-07)
(1.28271e-06 -2.83539e-07 2.32255e-07)
(7.84806e-07 -1.79805e-07 1.44998e-07)
(2.54625e-06 -5.6538e-07 3.65518e-07)
(1.23903e-06 -2.72564e-07 6.7206e-08)
(3.26112e-09 1.54386e-09 7.70399e-09)
(8.64519e-10 -1.29381e-09 3.76019e-09)
(7.613e-10 1.09828e-09 5.64026e-09)
(2.63575e-09 -9.92942e-10 4.62581e-09)
(1.07412e-07 -2.61914e-08 4.47558e-08)
(9.36968e-08 -2.45584e-08 2.93077e-08)
(4.98487e-09 -8.77967e-10 3.34771e-09)
(4.20489e-07 -8.12935e-08 1.56179e-07)
(3.42874e-07 -8.50881e-08 1.03425e-07)
(1.21392e-07 -1.8839e-08 5.53651e-08)
(3.68275e-10 -1.65365e-09 2.58196e-09)
(7.01936e-08 -9.6884e-09 3.73961e-08)
(7.07374e-08 -2.56084e-08 3.79052e-08)
(3.26767e-09 1.31608e-09 6.0839e-09)
(3.76801e-07 -8.277e-08 1.87102e-07)
(-9.24725e-09 9.22615e-09 2.9691e-09)
(2.02157e-07 -4.68223e-08 8.96755e-08)
(1.1291e-07 -1.61337e-08 6.11568e-08)
(3.95068e-09 -2.1234e-09 4.41766e-09)
(1.35184e-09 -2.09003e-09 3.7209e-09)
(2.24005e-09 -2.90133e-09 3.70855e-09)
(3.07116e-09 -1.57904e-09 4.48933e-09)
(8.80365e-09 -8.18088e-09 5.45449e-09)
(5.03225e-09 -1.2997e-08 4.83872e-09)
(6.63001e-09 -1.17556e-08 4.30368e-09)
(1.04098e-08 -1.06099e-08 6.00892e-09)
(9.01579e-09 -1.38899e-08 6.33164e-09)
(4.90064e-09 -1.48391e-08 4.91305e-09)
(2.06549e-09 -1.84099e-08 5.05722e-09)
(1.03908e-08 -1.19712e-08 6.14099e-09)
(-1.33309e-09 -5.75183e-08 -5.66341e-09)
(-2.41815e-08 -1.00201e-07 9.07678e-09)
(-2.05545e-09 -7.77451e-08 1.36501e-09)
(-1.26323e-08 -7.99088e-08 -1.42504e-08)
(-1.13071e-07 -1.06597e-07 -1.46176e-08)
(-2.57964e-08 -1.43481e-07 6.81878e-09)
(-1.2519e-07 -2.50903e-07 6.25535e-08)
(-1.59226e-08 -1.09445e-07 -1.77216e-08)
(2.10832e-07 -2.30419e-08 1.23008e-07)
(1.02785e-08 -1.53802e-10 8.56451e-09)
(5.35615e-07 -1.0059e-07 2.90106e-07)
(3.15749e-07 -6.36443e-08 1.75618e-07)
(1.6084e-07 -2.00312e-08 9.02889e-08)
(2.72523e-08 -3.43482e-09 1.39068e-08)
(6.79511e-07 -1.13971e-07 3.94083e-07)
(2.21052e-07 -2.05549e-08 1.25528e-07)
(1.80706e-07 -2.19732e-08 9.44205e-08)
(1.41774e-08 -1.06101e-09 8.07932e-09)
(7.47719e-07 -9.1e-08 4.19374e-07)
(6.66624e-07 -8.86942e-08 3.54678e-07)
(2.47178e-07 -2.34401e-08 1.44296e-07)
(1.04951e-08 -9.33143e-10 6.1585e-09)
(2.56999e-07 -2.72173e-08 1.52811e-07)
(3.89009e-07 -8.06647e-08 2.22708e-07)
(4.98953e-08 -1.17271e-08 2.11616e-08)
(9.76408e-07 -1.76179e-07 5.89074e-07)
(3.28631e-08 -5.03946e-09 1.59168e-08)
(8.14022e-07 -1.36107e-07 4.94292e-07)
(2.99434e-07 -3.60038e-08 1.77423e-07)
(3.92446e-07 -6.62557e-08 2.15696e-07)
(5.57683e-08 -1.40462e-08 2.26036e-08)
(1.12078e-06 -2.42746e-07 6.50756e-07)
(7.05304e-07 -2.67349e-07 3.06866e-07)
(3.38238e-07 -4.91562e-08 1.96274e-07)
(7.82235e-08 -2.37699e-08 2.50412e-08)
(1.25953e-06 -3.30413e-07 6.90979e-07)
(1.8832e-08 -1.73955e-09 1.08045e-08)
(9.14388e-08 -2.97434e-08 2.64967e-08)
(3.74741e-08 -5.09385e-08 3.04719e-08)
(1.16901e-09 -3.07608e-09 6.40674e-09)
(2.28961e-08 -2.21192e-08 2.44463e-08)
(1.73934e-09 -4.718e-09 6.6452e-09)
(8.34963e-08 -8.29896e-08 4.71377e-08)
(3.50576e-07 -1.16094e-07 7.71495e-08)
(2.48799e-07 -9.49472e-08 1.11296e-07)
(7.52359e-08 -3.12086e-08 2.09832e-08)
(6.63905e-07 -2.44257e-07 1.37587e-07)
(8.28453e-08 -8.84807e-08 5.056e-08)
(1.19378e-07 -2.17978e-08 5.06473e-08)
(4.20427e-08 -3.14497e-08 3.15197e-08)
(5.93991e-07 -2.14197e-07 1.35724e-07)
(8.17151e-08 -1.80835e-08 1.81074e-08)
(2.49187e-08 -6.37883e-09 1.64607e-09)
(2.29933e-08 -5.82856e-09 8.84547e-09)
(7.13733e-08 -1.61328e-08 1.58426e-08)
(2.81709e-08 -7.29887e-09 1.07193e-08)
(3.06628e-08 -6.88322e-09 1.84446e-09)
(9.55906e-08 -2.1198e-08 2.09173e-08)
(3.91082e-08 -1.05549e-08 1.41821e-08)
(4.01655e-08 -9.36522e-09 2.28321e-09)
(3.10166e-08 -8.35952e-09 1.1518e-08)
(1.07948e-07 -2.39905e-08 2.39423e-08)
(3.29474e-08 -7.59199e-09 1.89555e-09)
(2.04921e-07 -5.08128e-08 4.75825e-08)
(6.64998e-08 -1.62616e-08 3.80292e-09)
(6.48104e-08 -2.37322e-08 2.24645e-08)
(1.84075e-07 -4.60323e-08 4.18171e-08)
(7.34112e-08 -2.89482e-08 2.54946e-08)
(7.57427e-08 -1.75852e-08 4.5816e-09)
(2.22729e-07 -5.85243e-08 5.04781e-08)
(8.77291e-08 -4.02368e-08 2.71909e-08)
(8.91918e-08 -2.22717e-08 5.16624e-09)
(7.70846e-08 -3.34774e-08 2.54902e-08)
(2.3573e-07 -6.24417e-08 5.23417e-08)
(7.81875e-08 -1.92529e-08 4.5143e-09)
(2.05099e-07 -1.20315e-07 -9.24189e-08)
(1.22956e-07 -3.14887e-08 4.64129e-09)
(6.92211e-08 -1.58509e-07 -3.08971e-08)
(2.57961e-07 -1.16667e-07 -4.37718e-09)
(-1.41144e-07 -1.3365e-07 -2.67713e-07)
(1.34166e-07 -2.17663e-08 1.44169e-10)
(-3.60356e-07 -2.0828e-08 -5.43598e-07)
(1.57927e-07 -4.33477e-08 -4.61837e-09)
(1.98916e-07 -4.79926e-08 2.73196e-08)
(1.61197e-08 -4.15091e-09 9.47929e-09)
(2.50554e-07 -7.57539e-08 5.0638e-08)
(2.99174e-07 -7.20483e-08 1.64991e-08)
(8.89155e-08 -2.94683e-08 2.21467e-08)
(3.72699e-07 -8.90893e-08 4.77914e-08)
(1.29877e-07 -3.21891e-08 1.17121e-08)
(-2.67752e-08 1.88215e-08 -2.87988e-10)
(-1.34958e-09 -2.13197e-09 4.78884e-09)
(1.21999e-08 -1.16985e-08 1.9462e-08)
(-2.40167e-08 2.05295e-08 -2.19894e-10)
(-1.93386e-09 5.55217e-09 5.89932e-09)
(3.78936e-09 2.91574e-09 1.13493e-08)
(-2.48887e-08 2.04294e-08 2.77272e-10)
(-1.60999e-08 1.49831e-08 3.86169e-09)
(-6.46717e-09 1.1458e-08 3.13204e-09)
(-1.58237e-09 7.15647e-09 9.03825e-09)
(-2.28416e-08 1.59883e-08 6.09107e-10)
(-3.05911e-08 2.33073e-08 8.73585e-10)
(6.80197e-08 -9.41165e-09 3.41202e-08)
(2.53211e-08 -1.69188e-08 2.43399e-08)
(9.45556e-09 1.69649e-09 1.40033e-08)
(-2.74439e-08 1.84553e-08 2.96018e-10)
(-1.12636e-08 4.0624e-09 6.46887e-09)
(-2.72407e-09 -1.42869e-09 1.77104e-09)
(3.64001e-09 -6.0431e-09 1.51527e-08)
(-2.4207e-08 1.38757e-08 6.32965e-10)
(2.16626e-07 -6.53726e-08 5.80649e-08)
(2.50459e-07 -9.37031e-08 3.49395e-08)
(4.31625e-07 -1.40841e-07 8.42148e-08)
(2.38681e-07 -8.3223e-08 9.73724e-08)
(5.71895e-07 -1.83885e-07 8.60858e-08)
(3.43369e-07 -1.05221e-07 6.69234e-08)
(8.92394e-08 -6.13463e-08 4.62385e-08)
(1.05134e-07 -1.41972e-08 2.9e-08)
(2.3261e-08 -6.67383e-09 1.78771e-09)
(2.19565e-08 -4.45956e-09 8.86942e-09)
(7.04968e-08 -1.47734e-08 1.7162e-08)
(3.85717e-08 4.96858e-09 1.575e-08)
(4.10718e-08 -2.11447e-08 1.19613e-08)
(1.70583e-07 -3.80188e-08 4.90003e-08)
(1.10748e-07 -3.09014e-09 4.53151e-08)
(4.82888e-07 -1.28388e-07 7.89666e-08)
(5.6706e-08 1.45673e-08 2.15579e-08)
(4.49819e-08 -3.53541e-08 1.48104e-08)
(4.44429e-09 3.11071e-09 1.04016e-08)
(-2.28222e-11 2.79778e-09 7.24475e-09)
(5.69604e-09 2.30651e-09 1.13152e-08)
(7.63806e-10 2.65277e-09 7.31792e-09)
(4.89561e-09 1.79421e-09 8.42112e-09)
(1.17482e-08 -2.64468e-09 6.60504e-09)
(2.15525e-08 4.24661e-09 1.22705e-08)
(3.65308e-09 -1.05992e-09 4.98959e-09)
(7.14597e-09 3.97667e-09 1.16394e-08)
(6.41303e-08 7.44488e-10 3.10851e-08)
(1.0999e-08 2.16424e-09 1.36256e-08)
(3.38017e-08 1.04544e-08 1.76489e-08)
(-1.65292e-08 9.54766e-09 1.46145e-10)
(1.79438e-09 3.52037e-09 6.97421e-09)
(-1.19054e-09 -3.15572e-10 4.46505e-10)
(-4.22398e-09 3.95689e-09 5.69225e-09)
(-1.25822e-08 7.87486e-09 -1.12268e-10)
(-1.58086e-08 1.12128e-08 6.99242e-11)
(-7.93254e-09 1.00015e-08 6.6106e-11)
(-6.39235e-10 8.25748e-09 7.62372e-09)
(-7.0118e-09 9.66257e-09 5.49192e-09)
(-1.20373e-08 9.28613e-09 -1.97281e-10)
(-1.649e-08 1.15683e-08 1.2506e-10)
(-1.46373e-08 1.37868e-08 3.992e-09)
(-9.12122e-09 1.1427e-08 8.45149e-11)
(-2.2063e-08 1.53185e-08 5.56755e-10)
(-9.5119e-09 1.11229e-08 4.79531e-09)
(-1.72378e-08 9.84638e-09 1.99507e-10)
(-1.13997e-08 4.72299e-09 5.70397e-09)
(-1.57078e-09 -4.07985e-10 3.96763e-10)
(-2.33246e-08 1.3259e-08 5.85045e-10)
(-6.54964e-09 4.26781e-09 5.29748e-09)
(5.29477e-09 -2.30352e-09 4.86638e-09)
(1.26247e-08 -3.62391e-09 6.56366e-09)
(1.59921e-08 -4.64376e-09 7.66591e-09)
(4.21382e-09 -1.68392e-09 4.88277e-09)
(4.75908e-09 -2.79358e-09 4.52716e-09)
(3.58477e-09 -4.91233e-09 4.0584e-09)
(2.88623e-09 -3.59907e-09 3.83721e-09)
(6.51279e-09 -4.22381e-09 4.74535e-09)
(6.14057e-09 -2.8688e-09 5.03099e-09)
(2.24325e-08 -7.37582e-09 9.54718e-09)
(1.77147e-08 -5.43361e-09 8.15655e-09)
(8.27014e-09 -4.47796e-09 5.28046e-09)
(1.52342e-07 -3.58249e-08 3.43183e-08)
(6.2137e-08 -1.48481e-08 3.50981e-09)
(6.00615e-08 -1.97717e-08 2.14682e-08)
(1.64479e-07 -3.99885e-08 3.71161e-08)
(5.14942e-08 -1.64247e-08 1.87377e-08)
(5.39043e-08 -1.23889e-08 3.00941e-09)
(1.36892e-07 -3.0811e-08 3.10314e-08)
(4.20402e-08 -1.22684e-08 1.49536e-08)
(4.31293e-08 -9.9898e-09 2.41769e-09)
(1.21631e-07 -2.76414e-08 2.68799e-08)
(4.84522e-08 -1.42349e-08 1.78855e-08)
(4.99374e-08 -1.13078e-08 2.83919e-09)
(7.6528e-09 -6.10874e-09 5.53977e-09)
(4.27285e-09 -6.2603e-09 4.1498e-09)
(6.96836e-09 -4.9035e-09 4.95579e-09)
(5.5286e-09 -9.0779e-09 4.40044e-09)
(1.08342e-08 -7.62144e-09 6.53544e-09)
(3.51944e-08 -1.54789e-08 1.38038e-08)
(2.99165e-08 -1.16364e-08 1.25795e-08)
(1.3094e-08 -1.08589e-08 6.83348e-09)
(9.75494e-09 -6.12235e-09 6.31841e-09)
(2.42137e-08 -8.59054e-09 1.00734e-08)
(8.90361e-09 -5.16732e-09 5.56815e-09)
(2.79146e-08 -9.92846e-09 1.20741e-08)
(1.29425e-08 -1.45021e-08 7.27751e-09)
(3.76127e-08 -1.82839e-08 1.42118e-08)
(4.18979e-08 -2.15071e-08 1.60346e-08)
(1.33715e-08 -1.237e-08 7.03151e-09)
(1.00262e-08 -1.85572e-08 5.92148e-09)
(-7.29083e-10 -3.42277e-08 4.44657e-09)
(2.48488e-09 -2.35035e-08 4.88364e-09)
(1.04132e-08 -2.88828e-08 3.54857e-09)
(1.31444e-08 -1.81918e-08 6.74922e-09)
(4.96244e-08 -3.46806e-08 1.44805e-08)
(4.37538e-08 -2.52818e-08 1.57539e-08)
(1.41793e-08 -2.83479e-08 3.9631e-09)
(2.72521e-07 -8.34429e-08 4.35391e-08)
(1.14972e-07 -2.62526e-08 4.70656e-09)
(7.16169e-08 -9.43244e-08 -1.12238e-08)
(2.59451e-07 -8.66274e-08 2.36671e-08)
(8.19235e-08 -6.8781e-08 1.09062e-08)
(1.03048e-07 -2.44757e-08 5.19223e-09)
(2.63626e-07 -6.82699e-08 5.00361e-08)
(8.91751e-08 -4.82449e-08 2.48268e-08)
(9.25185e-08 -2.22877e-08 5.17312e-09)
(2.46897e-07 -6.78456e-08 5.02083e-08)
(8.37765e-08 -5.26021e-08 1.6372e-08)
(9.90411e-08 -2.0927e-08 5.29315e-09)
(-2.26181e-09 -4.19821e-08 -2.33559e-09)
(-6.12517e-10 -4.23832e-08 3.58204e-09)
(7.74811e-09 -3.29898e-08 2.42018e-09)
(-5.08058e-09 -5.85979e-08 2.42313e-09)
(-1.31387e-09 -5.18083e-08 -7.32879e-09)
(3.18975e-08 -1.01972e-07 -1.94994e-08)
(4.04961e-08 -5.79621e-08 8.56761e-10)
(-9.84998e-09 -8.15684e-08 -1.80267e-08)
(2.57181e-10 -3.98463e-08 -3.42984e-09)
(4.93074e-08 -4.03271e-08 1.25247e-08)
(1.18248e-08 -3.22633e-08 2.80622e-09)
(4.16849e-08 -4.44125e-08 5.52074e-09)
(-4.04104e-07 -6.21933e-07 -3.06362e-07)
(-5.65705e-07 -5.64867e-07 -8.53106e-07)
(-1.55244e-06 -3.64259e-07 -5.24545e-07)
(-1.24787e-07 -1.02065e-07 -4.44102e-08)
(2.38797e-08 -1.4736e-07 -3.62162e-08)
(-1.31738e-07 -1.42718e-07 -2.00217e-07)
(-1.47252e-08 -1.06867e-07 -2.20511e-08)
(-1.94913e-07 -3.18984e-07 -1.50545e-07)
(-4.09064e-07 -6.74202e-07 -2.96173e-07)
(-1.44962e-06 -6.81153e-07 -4.34235e-07)
(-2.2493e-07 -3.08978e-07 -2.02259e-07)
(-2.96072e-07 -1.25273e-07 -4.04092e-07)
(-3.02176e-06 -3.45465e-07 -7.52887e-07)
(-1.75859e-06 -6.5849e-07 -5.88535e-07)
(-3.30655e-06 -5.80604e-07 -6.19388e-07)
(-5.14649e-06 -4.00252e-07 -9.40663e-07)
(-2.96174e-06 -1.00783e-06 -6.32556e-07)
(-1.68468e-06 -9.57357e-07 -4.95816e-07)
(-3.38027e-06 -7.76827e-07 -8.76823e-07)
(-7.11502e-06 1.01352e-06 -3.66243e-06)
(-5.20168e-06 -3.56037e-07 -1.16694e-06)
(-1.00792e-08 6.85216e-09 -2.46096e-10)
(3.43241e-09 3.30845e-09 7.60837e-09)
(3.66389e-10 -1.77908e-10 6.4675e-10)
(6.97992e-09 2.61231e-09 8.71294e-09)
(-1.21842e-08 7.72824e-09 -1.40641e-10)
(-9.61556e-09 8.07549e-09 -3.09948e-10)
(2.41604e-09 7.66597e-09 8.74664e-09)
(-1.26193e-10 6.92066e-09 1.65724e-09)
(-1.16474e-08 9.10533e-09 -2.22577e-10)
(1.00396e-08 7.00327e-09 1.1442e-08)
(-9.41641e-09 7.97193e-09 -3.14381e-10)
(1.80015e-08 5.94345e-09 1.46022e-08)
(9.3604e-10 6.49541e-09 1.85988e-09)
(1.25641e-08 6.37659e-09 1.24792e-08)
(-8.37713e-09 7.36362e-09 -3.08434e-10)
(-9.87681e-09 6.76902e-09 -2.5467e-10)
(1.14196e-08 2.58387e-09 1.08395e-08)
(2.54913e-10 -1.96621e-10 6.23086e-10)
(8.28571e-09 2.50566e-09 9.43197e-09)
(-8.80234e-09 6.25544e-09 -2.64716e-10)
(-8.0779e-09 5.84818e-09 -2.40706e-10)
(2.32659e-08 1.94201e-09 1.64264e-08)
(1.44072e-09 -1.62262e-10 1.03742e-09)
(1.9431e-08 1.90261e-09 1.46652e-08)
(-7.76345e-09 5.58323e-09 -2.11356e-10)
(-7.67865e-09 6.87907e-09 -2.66113e-10)
(7.53399e-09 3.52233e-09 3.41814e-09)
(3.33835e-08 3.02714e-09 2.13924e-08)
(2.94021e-08 3.82248e-09 1.94421e-08)
(-7.38052e-09 6.56796e-09 -2.29783e-10)
(-7.73216e-09 6.92392e-09 -2.71613e-10)
(2.05016e-08 5.34513e-09 1.57364e-08)
(6.46142e-09 4.23212e-09 3.19565e-09)
(-8.27421e-09 7.30264e-09 -3.05517e-10)
(2.69216e-08 4.37662e-09 1.84439e-08)
(-8.13282e-09 5.88476e-09 -2.43454e-10)
(1.30914e-08 2.57079e-09 1.1788e-08)
(1.238e-09 -1.68997e-10 9.79605e-10)
(-8.6977e-09 6.2063e-09 -2.64544e-10)
(1.75261e-08 1.95747e-09 1.37166e-08)
(-8.60761e-06 -1.17163e-06 -1.79163e-06)
(-1.37467e-05 4.59331e-07 -4.79957e-06)
(-1.08189e-05 7.97325e-07 -4.35552e-06)
(-1.1109e-05 -2.11175e-06 -2.15357e-06)
(-7.92076e-06 -1.62912e-06 -1.43126e-06)
(-5.6027e-06 -1.0111e-06 -1.05967e-06)
(-8.02426e-06 -1.41302e-06 -1.68571e-06)
(-7.54694e-06 1.13136e-06 -3.72885e-06)
(-1.04214e-05 1.19936e-06 -4.25758e-06)
(-5.69742e-06 -9.09494e-07 -1.2878e-06)
(-8.47921e-06 -2.78424e-06 -1.5321e-06)