/*--------------------------------*- C++ -*----------------------------------*\
| =========                 |                                                 |
| \\      /  F ield         | OpenFOAM: The Open Source CFD Toolbox           |
|  \\    /   O peration     | Version:  2012                                  |
|   \\  /    A nd           | Website:  www.openfoam.com                      |
|    \\/     M anipulation  |                                                 |
\*---------------------------------------------------------------------------*/
FoamFile
{
    version     2.0;
    format      ascii;
    class       surfaceScalarField;
    location    "0.107/fluid";
    object      meshPhi;
}
// * * * * * * * * * * * * * * * * * * * * * * * * * * * * * * * * * * * * * //

dimensions      [0 3 -1 0 0 0 0];
oriented        oriented;


internalField   nonuniform List<scalar> 
47458
(
2.75142e-08
6.59116e-09
-5.57576e-11
-1.00281e-07
1.21501e-07
4.82028e-08
-4.53259e-10
-1.8047e-07
1.99156e-07
7.62688e-08
-7.32551e-10
-2.54273e-07
2.72409e-07
1.06309e-07
-8.65162e-10
-3.28139e-07
3.44672e-07
1.42469e-07
-8.69377e-10
-3.74018e-07
3.80064e-07
1.57147e-07
-8.59966e-10
-3.96206e-07
4.00663e-07
1.59332e-07
-7.86737e-10
-4.08697e-07
4.09903e-07
1.52913e-07
-4.86088e-10
-4.10033e-07
4.09121e-07
1.37736e-07
2.55415e-10
-4.02465e-07
3.98294e-07
1.16094e-07
1.58881e-09
-3.76767e-07
3.65577e-07
8.78865e-08
3.33799e-09
-3.16804e-07
2.94763e-07
5.718e-08
4.84331e-09
-2.11771e-07
1.79662e-07
3.09468e-08
4.80313e-09
-8.03028e-08
5.05894e-08
1.04064e-08
2.43768e-09
-6.77838e-12
-1.01573e-11
-8.29589e-13
1.35068e-12
5.07815e-13
1.1312e-12
5.70574e-13
-2.26805e-08
2.27826e-07
2.64778e-08
-5.03474e-10
-1.72812e-07
-8.55293e-07
1.04772e-06
2.05471e-07
-3.87851e-09
-2.88095e-07
-1.59295e-06
1.76208e-06
3.47177e-07
-6.14104e-09
-3.98246e-07
-2.24356e-06
2.39456e-06
4.80316e-07
-7.5458e-09
-5.03318e-07
-2.79997e-06
2.91538e-06
5.97495e-07
-8.05838e-09
-5.57008e-07
-3.17855e-06
3.24374e-06
6.59566e-07
-8.5417e-09
-5.7447e-07
-3.423e-06
3.47565e-06
6.89562e-07
-7.81759e-09
-5.70376e-07
-3.60547e-06
3.63959e-06
6.93718e-07
-4.42801e-09
-5.35995e-07
-3.71634e-06
3.73231e-06
6.62526e-07
3.62665e-09
-4.66999e-07
-3.73424e-06
3.71429e-06
5.83979e-07
1.70024e-08
-3.59038e-07
-3.56348e-06
3.47591e-06
4.50233e-07
3.39653e-08
-2.3338e-07
-3.07678e-06
2.89506e-06
2.90534e-07
5.01886e-08
-1.2826e-07
-2.1998e-06
1.92172e-06
1.58961e-07
5.56861e-08
-4.71644e-08
-1.02048e-06
7.32063e-07
3.70383e-08
5.86913e-08
-7.92991e-10
-1.67065e-08
8.03315e-09
9.59279e-10
5.06292e-10
-3.60526e-08
4.02799e-07
3.95747e-08
-9.91855e-10
-2.8686e-07
-1.53051e-06
1.88147e-06
3.12224e-07
-7.43071e-09
-4.7845e-07
-2.85546e-06
3.15513e-06
5.13065e-07
-1.21953e-08
-6.59201e-07
-4.01262e-06
4.28276e-06
7.02124e-07
-1.56443e-08
-8.21683e-07
-5.01328e-06
5.22468e-06
8.8077e-07
-1.63291e-08
-9.31304e-07
-5.79111e-06
5.95545e-06
1.01585e-06
-1.55013e-08
-1.00201e-06
-6.38845e-06
6.51612e-06
1.1023e-06
-1.30496e-08
-1.0346e-06
-6.86441e-06
6.97042e-06
1.14234e-06
-7.36605e-09
-1.01785e-06
-7.26106e-06
7.34297e-06
1.12516e-06
8.18983e-09
-9.139e-07
-7.50202e-06
7.51308e-06
1.00758e-06
3.63637e-08
-6.94659e-07
-7.3729e-06
7.25623e-06
7.54391e-07
7.52107e-08
-4.19538e-07
-6.65808e-06
6.36904e-06
4.38398e-07
1.23252e-07
-2.0269e-07
-5.17036e-06
4.64595e-06
1.89808e-07
1.62005e-07
-5.11505e-08
-2.75168e-06
2.06942e-06
2.46577e-08
1.44888e-07
-6.15346e-10
-6.12573e-08
3.02641e-08
1.19831e-10
3.13287e-09
-4.94226e-08
5.92606e-07
-1.31336e-09
-3.81324e-07
-2.23012e-06
2.73127e-06
-9.77809e-09
-6.10461e-07
-4.12033e-06
4.54915e-06
-1.53615e-08
-8.14624e-07
-5.7559e-06
6.13411e-06
-1.95544e-08
-1.02982e-06
-7.20492e-06
7.54128e-06
-2.22087e-08
-1.22401e-06
-8.48094e-06
8.76444e-06
-2.21145e-08
-1.35445e-06
-9.50932e-06
9.72279e-06
-1.8625e-08
-1.41233e-06
-1.02884e-05
1.04566e-05
-9.76884e-09
-1.38296e-06
-1.09078e-05
1.1036e-05
9.41401e-09
-1.213e-06
-1.13025e-05
1.13329e-05
4.97017e-08
-8.60651e-07
-1.11903e-05
1.10521e-05
1.172e-07
-4.35376e-07
-1.0312e-05
9.93261e-06
2.07133e-07
-8.8305e-08
-8.28594e-06
7.55197e-06
2.96435e-07
1.32791e-07
-4.83923e-06
3.81339e-06
3.65961e-07
1.65905e-08
-1.55312e-07
8.34412e-08
-2.27935e-08
2.66051e-08
2.19954e-10
2.66972e-08
6.74689e-09
-2.67724e-10
1.69853e-09
-9.87186e-08
1.19928e-07
5.06757e-08
-2.03637e-09
2.68727e-09
-1.77834e-07
1.96269e-07
7.98884e-08
-3.23323e-09
3.24134e-09
-2.49624e-07
2.66829e-07
1.10013e-07
-3.95141e-09
3.50371e-09
-3.13424e-07
3.27104e-07
1.37597e-07
-4.30623e-09
3.51694e-09
-3.61812e-07
3.71039e-07
1.56797e-07
-4.35247e-09
3.18343e-09
-3.93001e-07
3.98617e-07
1.63457e-07
-3.89689e-09
1.82814e-09
-4.11515e-07
4.14725e-07
1.59717e-07
-2.14706e-09
-1.24997e-09
-4.22296e-07
4.24165e-07
1.51231e-07
1.73794e-09
-6.48683e-09
-4.26243e-07
4.25137e-07
1.37623e-07
8.21167e-09
-1.32625e-08
-4.14362e-07
4.0749e-07
1.14804e-07
1.65422e-08
-1.94651e-08
-3.7428e-07
3.57935e-07
8.75637e-08
2.44157e-08
-2.05361e-08
-2.91595e-07
2.63698e-07
6.19574e-08
2.63872e-08
-1.28414e-08
-1.66892e-07
1.32917e-07
3.65994e-08
1.72414e-08
-2.13285e-09
-4.16414e-08
9.15412e-09
2.99448e-09
6.42848e-09
1.47164e-09
5.38639e-09
1.74623e-09
1.89874e-09
-2.43921e-08
2.29543e-07
2.91273e-08
-2.30629e-09
1.44199e-08
-1.86899e-07
-8.59938e-07
1.05173e-06
2.24964e-07
-1.72974e-08
2.24986e-08
-3.04719e-07
-1.58991e-06
1.75978e-06
3.72015e-07
-2.7021e-08
2.82705e-08
-4.17407e-07
-2.22983e-06
2.37282e-06
5.0567e-07
-3.40157e-08
3.17887e-08
-5.08341e-07
-2.75383e-06
2.86354e-06
6.11233e-07
-3.85881e-08
3.3686e-08
-5.68469e-07
-3.14655e-06
3.22624e-06
6.79979e-07
-4.09262e-08
3.03232e-08
-5.97455e-07
-3.43699e-06
3.498e-06
7.19849e-07
-3.65345e-08
1.60385e-08
-5.99972e-07
-3.65628e-06
3.70185e-06
7.31111e-07
-1.87569e-08
-1.52016e-08
-5.84496e-07
-3.82437e-06
3.85997e-06
7.19305e-07
1.94569e-08
-6.65328e-08
-5.43256e-07
-3.93094e-06
3.93698e-06
6.71751e-07
8.22139e-08
-1.32567e-07
-4.53967e-07
-3.87698e-06
3.82682e-06
5.59028e-07
1.63539e-07
-1.99965e-07
-3.36927e-07
-3.57246e-06
3.45224e-06
4.11409e-07
2.49602e-07
-2.35028e-07
-2.44154e-07
-2.96764e-06
2.76175e-06
3.03296e-07
3.00306e-07
-1.87186e-07
-1.69759e-07
-2.02876e-06
1.76272e-06
2.25137e-07
2.52513e-07
-7.25703e-08
-1.03521e-07
-1.03183e-06
8.4937e-07
1.65052e-07
1.05665e-07
3.52612e-09
-4.07578e-08
4.10274e-07
4.43646e-08
-4.21174e-09
2.63029e-08
-3.17007e-07
-1.54797e-06
1.89969e-06
3.426e-07
-3.10091e-08
4.17829e-08
-5.27986e-07
-2.88896e-06
3.19493e-06
5.64893e-07
-4.85203e-08
5.46054e-08
-7.06742e-07
-4.03496e-06
4.29356e-06
7.56652e-07
-6.36274e-08
6.09342e-08
-8.57479e-07
-5.01381e-06
5.22929e-06
9.25412e-07
-7.28922e-08
6.46907e-08
-9.65002e-07
-5.80494e-06
5.97265e-06
1.05486e-06
-7.83818e-08
5.69885e-08
-1.04323e-06
-6.42819e-06
6.56629e-06
1.14493e-06
-6.97199e-08
2.96668e-08
-1.08557e-06
-6.95214e-06
7.07249e-06
1.19617e-06
-3.59312e-08
-3.2111e-08
-1.08858e-06
-7.41771e-06
7.52379e-06
1.20009e-06
3.91237e-08
-1.39003e-07
-1.01662e-06
-7.77715e-06
7.82668e-06
1.11342e-06
1.68419e-07
-2.89154e-07
-8.18652e-07
-7.83799e-06
7.7959e-06
8.83896e-07
3.53567e-07
-4.83705e-07
-5.75541e-07
-7.54709e-06
7.42941e-06
6.07838e-07
5.99321e-07
-6.739e-07
-4.40359e-07
-6.91085e-06
6.65892e-06
4.55438e-07
8.5464e-07
-7.32674e-07
-3.51993e-07
-5.67861e-06
5.31059e-06
3.50022e-07
9.88292e-07
-5.07089e-07
-3.45086e-07
-4.32034e-06
4.10517e-06
3.39104e-07
7.77039e-07
4.45386e-09
-5.26365e-08
5.9211e-07
-5.27865e-09
3.36131e-08
-4.1004e-07
-2.23079e-06
2.7322e-06
-3.95321e-08
5.21618e-08
-6.62344e-07
-4.12611e-06
4.557e-06
-6.12554e-08
6.68434e-08
-8.77789e-07
-5.76399e-06
6.14176e-06
-7.86105e-08
7.66842e-08
-1.08861e-06
-7.21288e-06
7.54819e-06
-9.06309e-08
8.04543e-08
-1.27731e-06
-8.48236e-06
8.7655e-06
-9.58487e-08
7.05906e-08
-1.40875e-06
-9.52464e-06
9.7505e-06
-8.49027e-08
3.75476e-08
-1.47874e-06
-1.03643e-05
1.05493e-05
-4.44419e-08
-3.6541e-08
-1.46773e-06
-1.10491e-05
1.11943e-05
4.67077e-08
-1.82107e-07
-1.32051e-06
-1.15346e-05
1.16064e-05
2.22441e-07
-4.31046e-07
-1.00441e-06
-1.1676e-05
1.16461e-05
5.21001e-07
-7.79606e-07
-6.3065e-07
-1.13941e-05
1.12489e-05
9.45648e-07
-1.18e-06
-3.75492e-07
-1.05799e-05
1.02675e-05
1.45124e-06
-1.64415e-06
-1.22405e-07
-9.08145e-06
8.62741e-06
2.04954e-06
-2.24331e-06
3.71003e-07
-7.40869e-06
7.17968e-06
2.75099e-06
3.75307e-10
2.63991e-08
7.82526e-09
-4.05351e-10
2.87432e-09
-9.80615e-08
1.1928e-07
5.93056e-08
-3.10897e-09
4.55839e-09
-1.77656e-07
1.9572e-07
9.41781e-08
-4.87865e-09
5.76548e-09
-2.45218e-07
2.61231e-07
1.24207e-07
-6.16318e-09
6.30295e-09
-3.08035e-07
3.22386e-07
1.52925e-07
-6.82222e-09
6.45024e-09
-3.59983e-07
3.70481e-07
1.73088e-07
-7.00452e-09
5.74489e-09
-3.97134e-07
4.05447e-07
1.79437e-07
-6.24411e-09
2.72501e-09
-4.30612e-07
4.3928e-07
1.86103e-07
-2.85315e-09
-3.67414e-09
-4.67809e-07
4.77625e-07
2.01521e-07
4.38217e-09
-1.35431e-08
-5.01893e-07
5.07964e-07
2.13757e-07
1.51675e-08
-2.60715e-08
-5.19463e-07
5.21502e-07
2.08287e-07
2.88265e-08
-3.87102e-08
-5.18095e-07
5.12592e-07
1.93595e-07
4.27773e-08
-4.3109e-08
-4.69573e-07
4.4446e-07
1.67119e-07
4.75272e-08
-2.91927e-08
-3.2707e-07
2.74256e-07
1.14528e-07
3.20536e-08
-5.31685e-09
-9.82806e-08
2.98155e-08
5.87637e-09
1.50728e-08
3.77935e-09
1.39502e-08
4.0772e-09
3.30949e-09
-2.84878e-08
2.29114e-07
3.44863e-08
-3.58845e-09
2.49254e-08
-2.15368e-07
-8.54254e-07
1.04163e-06
2.60479e-07
-2.71858e-08
3.89162e-08
-3.44822e-07
-1.56309e-06
1.72884e-06
4.19555e-07
-4.22755e-08
4.8766e-08
-4.7209e-07
-2.19872e-06
2.34384e-06
5.73919e-07
-5.25822e-08
5.49932e-08
-5.7278e-07
-2.74351e-06
2.86159e-06
6.90636e-07
-5.9154e-08
5.75405e-08
-6.34727e-07
-3.17448e-06
3.26771e-06
7.65315e-07
-6.16364e-08
5.09529e-08
-6.5662e-07
-3.51089e-06
3.58926e-06
8.03563e-07
-5.45917e-08
2.4472e-08
-6.78395e-07
-3.81677e-06
3.88787e-06
8.31266e-07
-2.62486e-08
-3.13331e-08
-7.19411e-07
-4.1262e-06
4.21275e-06
8.66735e-07
3.48408e-08
-1.23901e-07
-7.70766e-07
-4.46162e-06
4.53018e-06
9.18988e-07
1.35316e-07
-2.46246e-07
-7.45106e-07
-4.67547e-06
4.70631e-06
8.83978e-07
2.68154e-07
-3.87441e-07
-6.98666e-07
-4.79617e-06
4.82063e-06
8.39834e-07
4.23907e-07
-4.88817e-07
-6.89814e-07
-4.78753e-06
4.71231e-06
8.77977e-07
5.35805e-07
-6.02479e-07
-4.3251e-07
-4.18107e-06
3.89093e-06
4.74146e-07
8.46264e-07
-3.94286e-07
-1.93193e-07
-2.79794e-06
2.4337e-06
2.13551e-07
6.90973e-07
5.80331e-09
-4.97623e-08
4.16896e-07
5.41375e-08
-6.22186e-09
4.28701e-08
-3.80424e-07
-1.56429e-06
1.91355e-06
4.14661e-07
-4.6234e-08
6.59358e-08
-6.1577e-07
-2.89218e-06
3.19764e-06
6.69486e-07
-7.10472e-08
8.53097e-08
-8.2145e-07
-4.05147e-06
4.31529e-06
8.8716e-07
-9.11249e-08
9.94918e-08
-9.77737e-07
-5.04621e-06
5.2686e-06
1.05793e-06
-1.0569e-07
1.05288e-07
-1.09367e-06
-5.88005e-06
6.07082e-06
1.18777e-06
-1.11127e-07
9.24814e-08
-1.18074e-06
-6.59243e-06
6.7488e-06
1.28105e-06
-9.70273e-08
4.65563e-08
-1.21913e-06
-7.19709e-06
7.34388e-06
1.32705e-06
-4.79562e-08
-5.61017e-08
-1.25329e-06
-7.79639e-06
7.95272e-06
1.36048e-06
6.0749e-08
-2.36251e-07
-1.27222e-06
-8.42058e-06
8.57052e-06
1.364e-06
2.52012e-07
-5.09412e-07
-1.20695e-06
-9.00308e-06
9.15726e-06
1.28401e-06
5.44159e-07
-8.9279e-07
-1.19168e-06
-9.74008e-06
9.9897e-06
1.26471e-06
9.5655e-07
-1.33235e-06
-1.41614e-06
-1.08853e-05
1.12141e-05
1.51987e-06
1.4336e-06
-1.66773e-06
-1.71921e-06
-1.22122e-05
1.25335e-05
1.89589e-06
1.80133e-06
-1.43299e-06
-2.11925e-06
-1.33818e-05
1.357e-05
2.43325e-06
1.55256e-06
7.28707e-09
-6.44079e-08
5.98994e-07
-7.86024e-09
5.35385e-08
-4.97901e-07
-2.24285e-06
2.74392e-06
-5.71058e-08
8.28118e-08
-7.97919e-07
-4.14275e-06
4.57708e-06
-8.84848e-08
1.05015e-07
-1.04153e-06
-5.79471e-06
6.17502e-06
-1.11852e-07
1.22117e-07
-1.25076e-06
-7.24616e-06
7.58175e-06
-1.29607e-07
1.28469e-07
-1.43099e-06
-8.52576e-06
8.81729e-06
-1.35311e-07
1.12392e-07
-1.55897e-06
-9.62011e-06
9.86515e-06
-1.17391e-07
5.42911e-08
-1.62972e-06
-1.05478e-05
1.07613e-05
-5.52443e-08
-7.48984e-08
-1.65147e-06
-1.13679e-05
1.15605e-05
8.13189e-08
-3.17446e-07
-1.5971e-06
-1.21121e-05
1.22889e-05
3.36915e-07
-7.22516e-07
-1.45079e-06
-1.28269e-05
1.30238e-05
7.61679e-07
-1.31848e-06
-1.34341e-06
-1.37461e-05
1.40528e-05
1.39032e-06
-2.06538e-06
-1.52129e-06
-1.52188e-05
1.56873e-05
2.18381e-06
-2.94207e-06
-1.86364e-06
-1.7259e-05
1.77871e-05
3.11312e-06
-3.80814e-06
-1.97803e-06
-1.9088e-05
1.94142e-05
4.02264e-06
-2.74919e-10
1.02498e-11
1.54061e-11
8.62944e-12
2.12498e-11
-1.95461e-11
-1.87222e-11
-2.68994e-11
-1.68634e-11
-7.01286e-07
-3.39764e-08
4.88497e-07
2.37063e-08
1.25206e-08
9.29402e-09
-4.76519e-09
-1.5755e-07
6.67314e-09
8.38446e-09
1.58731e-08
1.08173e-08
-1.34144e-07
-8.71766e-09
1.02755e-07
2.55074e-08
2.87836e-08
4.41165e-09
-2.8196e-09
-4.91792e-08
9.99424e-09
1.14111e-07
1.21419e-07
-1.12845e-06
-8.29231e-08
-8.13724e-08
9.16639e-07
3.98979e-07
6.87246e-08
5.92342e-08
-3.66063e-08
-4.27586e-08
-5.44981e-07
-4.86428e-10
5.79667e-09
3.71387e-10
-1.32371e-09
5.62471e-09
3.5127e-09
1.21735e-09
4.46071e-09
9.6771e-10
5.81357e-08
3.94914e-08
-2.35844e-08
-3.29717e-08
2.87104e-07
4.85714e-08
-3.05065e-10
2.57987e-10
-1.61929e-07
-3.04822e-09
-4.04679e-09
-2.93871e-09
-4.22188e-09
-5.44651e-08
-9.56635e-10
2.67022e-08
2.52167e-09
-6.61768e-07
-4.20461e-08
5.12377e-07
8.87799e-08
-1.40292e-09
9.84897e-10
-3.58586e-07
9.4553e-08
1.5801e-07
-1.96422e-06
3.19799e-07
-1.7698e-07
-1.47032e-07
1.6868e-06
2.82956e-07
-5.63252e-09
4.54233e-09
-2.14835e-07
-1.4417e-06
-1.37224e-07
1.11631e-08
7.18296e-08
1.93254e-08
-2.59893e-06
-2.81308e-07
2.29303e-06
1.35011e-07
8.15539e-10
2.95328e-09
-2.03263e-06
3.46977e-07
-4.46452e-07
-4.75533e-06
1.71228e-06
-1.15517e-06
1.50573e-07
4.49032e-06
8.57552e-08
1.96974e-07
-1.16279e-07
-3.38575e-07
-4.34408e-06
5.19204e-08
1.37001e-08
-8.79383e-09
-5.09452e-06
-1.64042e-06
4.76864e-06
-3.02409e-09
7.69179e-09
-1.29841e-06
6.38964e-08
-6.07617e-07
-5.65107e-08
4.59275e-07
5.62936e-08
8.57157e-08
-2.73146e-07
-1.04893e-10
-6.87477e-09
-5.16544e-09
-5.44022e-09
-6.51077e-09
-8.40861e-08
-4.62686e-09
2.37501e-08
1.1765e-08
3.4918e-09
1.2914e-08
3.18699e-09
1.01374e-07
-1.32848e-06
3.09774e-07
-8.80048e-08
-1.58755e-07
1.04903e-06
2.5539e-09
2.34958e-07
-1.36107e-09
-6.57352e-07
-1.53124e-08
-1.604e-08
-1.42047e-08
-1.73225e-08
-1.30189e-07
-1.60916e-06
1.04973e-07
2.05035e-09
-1.08117e-06
-1.59015e-05
-3.527e-06
1.60582e-05
5.37776e-08
-8.05071e-07
-4.67101e-08
-4.30409e-06
7.72169e-07
-1.56858e-06
-2.00711e-07
1.24488e-06
1.12109e-07
2.92092e-07
-7.85402e-07
3.88881e-09
-2.13827e-08
-1.77552e-08
-1.92495e-08
-1.96959e-08
-9.54791e-07
-4.74487e-06
9.22972e-07
6.13498e-08
1.42298e-09
2.82683e-10
1.73932e-10
-2.13921e-09
-1.45258e-10
-9.54339e-11
-4.05304e-10
-9.73262e-11
1.1186e-10
2.31336e-11
3.06127e-10
-8.94435e-10
8.90873e-11
-5.87961e-11
5.59601e-11
5.27199e-10
-8.25558e-09
6.40397e-10
8.00031e-10
5.19166e-09
-4.68231e-10
-2.67763e-10
2.26044e-12
1.19085e-11
6.41935e-12
-1.14775e-11
-1.75045e-10
1.20744e-11
9.66938e-13
7.23396e-12
2.13043e-08
2.10279e-08
2.68324e-08
-2.56695e-07
1.30447e-08
1.18106e-08
-2.27486e-06
-6.39179e-08
1.69374e-06
1.07811e-07
8.24453e-09
4.77905e-08
6.94726e-08
6.07405e-08
-1.38278e-08
4.3631e-08
-6.53374e-07
-1.62467e-06
-1.28452e-07
1.35062e-06
1.48193e-07
1.0228e-07
-6.24203e-08
-8.58085e-07
9.89113e-08
2.03981e-07
-3.67999e-06
5.46238e-07
-3.75162e-07
-2.00115e-07
3.21653e-06
1.55432e-07
3.983e-07
-2.36829e-07
-1.5066e-07
-2.33199e-06
2.53186e-08
3.35564e-09
2.9229e-09
-2.72364e-09
-2.97881e-08
-1.38432e-09
1.29159e-09
-3.10686e-08
-1.20302e-09
1.06063e-09
1.50152e-08
1.42577e-08
-9.80526e-09
-9.90732e-10
-1.22898e-09
-1.63264e-09
-7.53325e-10
1.87386e-08
-1.87952e-07
1.39753e-08
2.19836e-08
1.08531e-08
2.82717e-08
-1.61577e-09
1.24576e-08
1.28484e-09
1.89545e-09
-6.24988e-10
-1.5144e-08
1.77654e-08
3.07797e-08
-2.81442e-07
1.72274e-08
4.26879e-08
2.09847e-08
3.48837e-08
-1.25089e-09
-2.63884e-09
-2.06359e-09
-1.60114e-09
6.91181e-08
7.82539e-08
8.86206e-08
-4.22596e-09
6.54113e-08
-8.20173e-07
-4.29065e-06
7.09311e-08
3.33998e-06
3.05545e-07
-1.27798e-07
1.21376e-07
1.78788e-07
1.57679e-07
6.61363e-08
2.38113e-07
-1.48188e-06
-4.48503e-06
-5.03568e-07
3.97808e-06
1.85464e-07
6.00625e-07
-3.5767e-07
1.27463e-07
-3.00527e-06
-2.60023e-08
-6.85104e-06
1.44356e-06
-1.03415e-06
-6.38318e-08
6.26197e-06
-3.47215e-07
1.70362e-06
-1.16343e-06
1.20041e-07
-5.16859e-06
9.77991e-08
-1.5193e-09
2.61272e-08
-1.29719e-09
-1.0794e-07
-1.21222e-08
-3.21054e-09
-8.66652e-08
1.62793e-09
6.35155e-09
4.33563e-08
4.98134e-09
-1.61166e-08
-6.25913e-09
-7.78819e-09
-9.91261e-09
-4.86124e-09
1.20618e-07
-6.74492e-07
5.24111e-08
9.42066e-08
4.54281e-08
1.09276e-07
-4.17885e-09
5.97456e-08
1.04276e-08
3.58591e-09
-4.93958e-09
-6.80367e-08
-2.15452e-08
1.96295e-07
-8.61667e-07
6.00009e-08
1.45563e-07
6.9341e-08
1.25292e-07
-7.90495e-09
-1.60028e-08
-1.23484e-08
-1.04371e-08
1.78098e-07
2.02084e-07
2.29495e-07
3.68962e-07
-1.77553e-06
-7.48106e-06
-1.20497e-06
6.82881e-06
2.113e-06
-1.5349e-06
-5.58364e-06
1.88354e-07
9.5106e-07
-7.80251e-08
-6.4095e-08
-8.73596e-08
-5.17987e-08
-1.6647e-06
1.93985e-07
3.20446e-07
1.61102e-07
3.60033e-07
4.75914e-08
2.75041e-07
1.78907e-07
-7.79017e-08
-1.00393e-07
-2.72464e-07
-5.85413e-07
-3.91764e-06
7.26732e-07
1.34212e-08
-7.13411e-06
1.51689e-08
6.99553e-06
2.18512e-06
4.67545e-08
1.86637e-07
9.31841e-08
-7.20984e-07
-6.94231e-06
2.8125e-07
-1.56502e-06
-1.11622e-05
-1.2662e-06
1.12655e-05
1.75343e-06
9.28699e-08
-2.18394e-06
-6.21782e-08
-1.13337e-05
2.68582e-06
3.14326e-06
-1.55148e-05
-2.89056e-06
1.57475e-05
-1.48247e-06
5.26437e-07
6.6854e-07
6.57864e-07
5.29019e-07
-4.49466e-07
-1.60683e-05
-2.92314e-06
2.53297e-07
2.61159e-06
-7.75467e-06
-1.24453e-06
-1.50656e-05
-2.70301e-06
1.53221e-05
3.65266e-06
-1.12206e-06
-3.37704e-06
-1.57438e-05
2.6649e-06
-2.18596e-06
1.6238e-06
1.61796e-06
1.95113e-06
1.94179e-06
3.74151e-07
9.89086e-06
3.17633e-06
9.76745e-08
-1.00101e-05
2.66701e-06
3.07037e-06
2.65975e-06
2.30279e-06
2.29514e-06
7.48145e-08
-2.8229e-06
-1.37051e-05
3.50574e-06
1.23315e-07
-1.85591e-05
1.89491e-05
3.3351e-06
-2.33126e-06
7.99887e-07
1.11501e-06
9.53364e-07
-1.94414e-05
5.91307e-07
-3.99926e-06
-1.95585e-06
3.859e-06
-1.87174e-05
3.89436e-06
-3.68241e-06
4.72231e-06
4.7416e-06
5.16177e-06
5.18582e-06
-2.15374e-06
2.28621e-05
-3.03928e-06
-2.23303e-05
6.06084e-06
6.10279e-06
5.6116e-06
5.64704e-06
-3.29128e-06
-3.23454e-09
-4.50376e-09
1.02581e-08
7.99897e-09
7.51113e-09
1.73519e-08
1.22828e-08
1.10775e-08
-1.13507e-07
2.70131e-09
9.86521e-10
3.01096e-09
7.55894e-10
2.30759e-09
9.68666e-10
-2.6157e-08
-1.15465e-10
1.41621e-10
-3.20353e-09
2.29312e-11
5.13987e-11
6.02986e-11
2.02842e-11
2.27881e-10
4.24558e-10
2.62275e-10
1.24302e-10
-8.14934e-11
1.48674e-10
-1.39376e-09
9.44005e-10
1.04422e-09
-1.13099e-08
-6.14032e-10
-5.309e-10
6.7285e-09
5.15502e-09
7.53965e-09
9.0904e-09
4.03233e-09
-8.7152e-08
2.47286e-09
4.45132e-09
2.13371e-09
6.63604e-09
1.44178e-09
-3.50115e-08
2.30419e-10
9.16396e-11
6.93796e-10
-7.00889e-11
-8.75709e-11
2.43932e-11
-1.1122e-12
-4.47928e-11
5.09376e-13
-1.21566e-11
4.06742e-13
3.29572e-13
-3.89233e-13
-1.55467e-12
2.5143e-09
2.86947e-10
-3.4167e-09
4.53406e-10
-1.80791e-10
-2.81681e-09
-5.14389e-11
-2.60083e-11
2.09285e-10
2.68529e-10
2.29571e-10
2.10546e-10
9.28867e-11
1.49423e-10
1.30385e-10
-1.08893e-07
-4.01033e-10
-9.23216e-10
-5.78926e-10
-6.272e-10
1.04498e-08
-4.53752e-10
-1.59839e-09
-7.69169e-10
-1.21534e-09
5.43913e-09
1.67481e-08
8.13867e-09
1.18564e-08
-1.20598e-08
1.12093e-09
7.75186e-09
-6.05136e-10
1.01049e-09
9.35012e-09
9.58244e-10
-1.11228e-09
-4.65813e-10
-1.14432e-08
1.63017e-10
1.53842e-09
3.7956e-10
-9.96335e-11
1.60584e-09
-1.62375e-10
5.4868e-11
-9.87897e-10
-5.7677e-09
-1.01329e-11
-2.71563e-11
-1.82515e-11
-2.02241e-11
-9.04757e-10
-1.49374e-12
3.22653e-10
1.42634e-09
6.14449e-10
-9.59266e-10
-2.50963e-10
6.89806e-09
-2.38226e-09
4.13466e-10
1.1498e-09
1.2056e-10
-1.61078e-10
9.15968e-13
-1.56923e-11
5.05781e-12
3.5323e-12
-7.80117e-13
-5.30768e-12
9.07925e-11
-3.08573e-11
4.54706e-12
-2.39454e-10
3.02918e-11
-6.25858e-11
-1.37707e-11
-1.78799e-12
3.22418e-10
-6.52598e-09
1.28254e-09
-2.31417e-10
-4.44494e-10
3.17496e-09
-3.74063e-12
7.284e-13
-7.56015e-13
4.12111e-13
3.2085e-09
1.9078e-09
-2.54461e-09
1.96994e-08
-7.68409e-10
-2.36352e-10
8.51914e-11
-8.15801e-09
2.01168e-09
8.29047e-10
1.70567e-09
-3.39204e-10
9.41021e-09
4.31645e-09
-6.41112e-10
-1.80253e-08
2.34345e-10
-3.26739e-09
3.04368e-08
3.71614e-09
-3.56781e-08
3.48974e-09
-1.77497e-09
-3.6171e-08
1.24701e-09
1.31705e-09
1.7625e-08
-1.91011e-08
-3.08558e-09
-6.32674e-09
-5.02117e-09
-3.91486e-09
7.61984e-08
-5.2039e-07
3.40599e-08
8.18912e-08
3.95805e-08
7.0084e-08
4.86745e-08
-3.91244e-07
2.93573e-08
5.07119e-08
2.48559e-08
6.02389e-08
-2.50372e-09
-3.25259e-09
-4.0964e-09
-1.98003e-09
5.13143e-08
8.08669e-09
-3.94959e-09
-3.78248e-09
-5.86416e-08
2.43704e-09
2.39129e-08
3.38952e-09
-9.97437e-10
7.73978e-09
-1.70038e-09
6.41358e-10
-6.31801e-09
-3.8601e-08
-8.10012e-10
-2.20724e-08
3.07267e-10
4.72269e-09
4.49667e-09
5.50076e-09
-4.04727e-09
-2.23902e-09
4.09728e-08
6.61459e-10
1.9229e-08
-2.65089e-09
8.0456e-08
-7.97507e-09
-2.06828e-09
8.05111e-10
-4.55864e-08
7.9482e-09
7.1785e-09
4.10855e-09
-2.98927e-09
4.81169e-08
1.06583e-08
-4.03818e-09
-7.78193e-08
1.59024e-09
-9.38029e-09
1.15487e-07
3.59697e-08
-1.26443e-07
-5.46964e-09
-1.7103e-08
-9.65953e-08
-4.93985e-09
8.17731e-09
4.88359e-08
7.80264e-08
-2.50445e-08
-4.79504e-08
-3.51003e-08
-3.60811e-08
5.76291e-07
-1.37519e-06
1.10098e-07
2.7376e-07
1.32524e-07
2.31991e-07
3.33021e-07
-1.09471e-06
9.36032e-08
1.67918e-07
7.99475e-08
1.9758e-07
-1.85493e-08
-2.03065e-08
-2.69779e-08
-1.35402e-08
2.16226e-07
1.1884e-07
2.44594e-08
-6.03916e-08
-2.22839e-07
2.70364e-08
9.6376e-08
-2.54713e-09
-1.16381e-08
5.35136e-09
-8.79427e-09
4.75155e-09
-8.48097e-09
-1.99245e-07
-4.87606e-09
-9.39577e-08
2.00603e-09
1.00735e-08
-4.05343e-08
1.00873e-07
1.8627e-08
-4.69502e-08
1.99001e-07
-1.07351e-08
7.02695e-09
-2.68398e-07
-1.52319e-09
1.6014e-07
-6.96002e-08
-8.28847e-08
2.69011e-07
2.69983e-06
3.58399e-07
-3.13692e-06
-1.61568e-06
1.31154e-06
4.61988e-07
1.02244e-06
1.30973e-06
1.03183e-06
4.97034e-07
3.62253e-07
-2.59701e-07
-1.93387e-07
-2.67705e-07
5.38894e-07
7.48945e-07
7.722e-07
-1.24727e-08
-1.17689e-08
-4.9155e-07
2.95528e-09
4.20504e-07
9.45005e-08
1.30842e-06
-3.67081e-07
-1.36411e-07
7.08906e-08
-1.02182e-07
4.95336e-07
2.40421e-07
6.06203e-10
-1.33469e-08
2.97445e-09
-4.84479e-10
6.62016e-09
-1.00684e-09
-1.76153e-11
5.87598e-12
4.02496e-12
9.4557e-13
1.01481e-10
-3.44094e-11
-2.69699e-10
-5.19949e-12
-8.04639e-09
1.62905e-09
3.55674e-10
-5.64705e-10
3.95e-09
-7.17071e-12
1.92726e-10
-5.0168e-10
6.35103e-12
-6.26794e-11
1.59282e-12
-3.10229e-11
7.85213e-12
-1.40783e-12
1.11054e-11
-1.5091e-08
3.4596e-09
7.5256e-09
6.09165e-10
-1.17698e-09
2.22992e-12
-4.68758e-11
1.68685e-11
1.3266e-11
-2.01877e-12
-6.78103e-12
3.19269e-10
-1.02687e-10
6.13247e-12
-7.8346e-10
2.06894e-10
-5.36261e-10
-6.73446e-11
-6.45983e-12
8.62444e-10
-2.07697e-08
5.21168e-09
-7.25441e-10
-1.75331e-09
1.03985e-08
-3.3054e-11
8.48073e-12
1.1873e-11
1.57799e-12
7.94955e-08
1.61924e-06
-1.24506e-07
4.72557e-07
2.27286e-08
-3.38185e-07
-1.5335e-08
-2.66327e-06
3.05823e-07
6.01784e-07
-5.27871e-08
-2.68531e-09
-5.62616e-07
2.67005e-06
1.28658e-05
-3.85763e-07
-1.28565e-05
-3.40851e-06
4.28577e-06
3.86445e-06
4.29618e-06
3.8713e-06
-1.19448e-06
3.05348e-06
3.05103e-06
3.44944e-06
3.4493e-06
-4.47748e-07
-4.34594e-07
3.07508e-08
-3.05199e-06
4.00834e-07
7.31854e-07
-4.29288e-07
4.30217e-06
-7.05017e-07
3.73199e-07
-1.23892e-07
6.80729e-08
3.05725e-06
6.40049e-07
1.09057e-09
-2.85458e-08
7.97258e-09
-9.23599e-10
1.46879e-08
-2.76049e-09
-4.89123e-11
1.76147e-11
1.40561e-11
2.15759e-12
3.35926e-10
-1.08327e-10
-8.18457e-10
-5.78778e-12
-2.25139e-08
5.79853e-09
8.26574e-10
-1.9618e-09
1.13023e-08
-4.25371e-12
4.73049e-10
-1.08783e-09
4.03937e-12
-1.52096e-10
2.89166e-12
-6.62453e-11
2.11291e-11
-2.58467e-12
2.38939e-11
1.59712e-08
-3.08633e-09
4.95277e-10
-1.13119e-09
-1.5966e-10
-3.3131e-12
-6.99398e-11
2.26221e-11
2.51892e-11
2.81758e-12
-5.57335e-07
4.74079e-06
5.04368e-07
7.57331e-07
7.64946e-08
-1.46362e-06
-7.30426e-08
-6.10569e-06
1.44035e-06
8.10438e-07
-1.01524e-06
9.72285e-07
-7.96645e-07
6.09369e-06
-6.5694e-06
1.62942e-06
1.14742e-06
6.55369e-06
7.40815e-11
-8.99601e-11
2.69761e-11
-7.82458e-11
-2.07136e-11
5.47351e-11
-2.40179e-11
2.68148e-12
-1.11579e-12
-1.49568e-11
1.26873e-11
-1.46311e-10
-6.04035e-11
2.83872e-11
1.01454e-10
4.11328e-11
-3.12015e-12
-5.61291e-12
-3.32332e-12
-5.70018e-12
6.16505e-12
2.5234e-12
-1.35139e-11
-2.46643e-12
-6.41173e-12
-6.8928e-08
1.60008e-08
6.08548e-09
-1.40961e-06
-1.19428e-07
1.19465e-06
1.6405e-07
1.18194e-07
-7.15641e-08
-7.86001e-07
8.32676e-08
-2.85393e-07
-2.56354e-08
2.38116e-07
9.04719e-08
1.0612e-08
-9.27578e-09
4.14493e-08
-1.34511e-07
2.81146e-07
-2.4944e-06
4.68671e-07
-2.46817e-07
-3.16411e-07
2.23193e-06
1.47244e-07
3.52754e-07
-1.28415e-07
-2.01052e-07
-1.63327e-06
-4.74036e-09
-1.08929e-07
6.14101e-09
1.14669e-08
4.79094e-09
4.15542e-09
-8.13986e-10
-6.85718e-10
-1.37657e-09
-1.64645e-09
2.26519e-08
-3.56432e-11
6.96882e-11
1.95585e-11
7.74348e-11
1.74646e-10
4.31016e-11
-8.10671e-10
7.9854e-08
1.16553e-08
-8.30821e-09
2.62415e-08
-1.48249e-07
1.33373e-08
3.83831e-09
7.4216e-09
2.30713e-09
8.52046e-09
2.0191e-09
-5.53192e-08
-3.31186e-09
9.79845e-09
2.93962e-09
3.53426e-09
-4.58962e-10
-5.68383e-10
-1.15019e-09
-9.20393e-10
1.53016e-08
1.49668e-08
3.89118e-08
-1.98605e-07
6.47566e-11
1.22304e-10
2.90086e-11
1.14187e-10
3.06482e-10
-5.7756e-11
-1.28428e-09
-6.33043e-07
1.76145e-07
-1.15921e-09
-3.25021e-06
-2.99198e-07
3.01353e-06
4.96393e-07
-4.32649e-07
-2.78618e-06
-1.20428e-09
-2.35733e-06
-1.6736e-07
2.04034e-06
5.37509e-07
5.11979e-09
-2.15726e-09
-1.59942e-06
5.17501e-07
9.77238e-07
-8.60187e-06
-8.50118e-07
8.52825e-06
-1.21845e-06
4.79501e-08
-2.74003e-08
-8.35649e-06
-1.53064e-06
5.20936e-08
1.16946e-08
-1.56437e-07
-2.87311e-06
-4.0429e-07
2.58749e-06
3.08553e-07
4.50573e-07
-2.54965e-07
1.62269e-07
-1.91724e-06
-9.55514e-09
-2.29978e-07
2.62963e-08
1.0378e-08
9.46093e-09
-2.19758e-09
-1.95786e-09
-3.93909e-09
-4.38916e-09
6.24546e-08
-9.03865e-11
1.93213e-10
5.10269e-11
2.01921e-10
5.94188e-10
9.58528e-11
-2.12377e-09
2.00397e-07
2.29113e-08
-2.07149e-08
8.84898e-08
-3.56437e-07
3.63898e-08
1.61215e-08
4.73544e-09
1.73609e-08
4.37496e-09
-1.11956e-07
-8.59291e-09
2.44645e-08
8.05898e-09
8.73196e-09
-1.58199e-09
-1.76307e-09
-3.57507e-09
-3.19581e-09
5.12322e-08
1.07697e-07
-4.06296e-07
1.15408e-10
2.63627e-10
6.27008e-11
2.47868e-10
8.34664e-10
-1.06743e-10
-2.7159e-09
-1.91703e-06
8.4399e-09
6.47408e-07
-1.0344e-05
1.03054e-05
1.0676e-06
-1.61973e-06
-1.01343e-05
6.90136e-08
-1.95971e-06
-7.63628e-11
-2.8437e-11
1.07385e-10
1.84785e-10
1.95326e-10
3.79464e-10
2.48429e-10
2.84219e-10
-5.26994e-12
2.4526e-11
-3.38321e-12
2.09667e-11
-5.65982e-11
-4.86762e-12
-5.55513e-12
-7.11716e-12
2.05885e-12
4.22103e-12
2.22246e-12
3.14028e-12
4.73709e-12
8.28566e-12
-4.55137e-10
3.78448e-11
1.3345e-11
6.90968e-11
3.46159e-11
-1.90871e-11
-2.32069e-11
-2.80428e-11
-1.23578e-11
-4.01433e-11
2.90827e-11
-2.2413e-10
-1.80939e-11
3.20903e-11
5.03578e-11
1.44141e-10
1.45896e-10
1.76504e-10
1.22584e-10
6.11254e-11
1.2056e-07
1.82953e-08
-6.67165e-09
-2.2024e-07
1.60645e-08
3.33677e-09
-8.05234e-08
-2.16267e-12
-3.96712e-10
-5.37415e-10
5.17186e-09
3.97605e-09
6.94439e-09
1.20942e-08
-1.23632e-08
1.91858e-08
-3.03243e-07
-9.78975e-09
-2.2139e-07
1.72908e-08
1.85816e-08
-1.52775e-09
-3.51215e-10
-8.95477e-10
7.0217e-09
1.75896e-08
1.0826e-08
9.76519e-09
2.78368e-08
-3.72155e-07
2.85391e-08
-1.75226e-07
-8.44057e-12
-5.2927e-11
4.74109e-12
4.33413e-11
9.7883e-12
-3.12113e-12
2.70326e-11
-5.26556e-12
1.40304e-12
-1.98606e-11
-9.35722e-11
-1.04757e-11
-1.22846e-12
-4.42937e-11
-6.3006e-13
1.26624e-11
1.96842e-11
-1.04483e-10
6.82687e-12
-1.46582e-11
-3.00716e-12
8.74286e-11
-2.8351e-08
1.9619e-09
3.65417e-09
9.37033e-10
1.3567e-09
4.28628e-09
-3.55977e-10
-9.48702e-11
-2.02374e-10
-1.12311e-10
-2.01777e-10
-1.90546e-10
-3.7708e-10
2.5521e-09
-1.63639e-08
-2.97843e-10
-5.07468e-11
-1.76224e-10
5.29877e-10
1.86542e-09
2.69701e-09
7.43744e-10
6.22232e-11
1.38048e-11
5.4845e-11
1.37226e-10
-2.83897e-11
-6.63457e-10
-5.14118e-09
5.2965e-08
-1.01371e-07
1.57944e-08
-5.7292e-08
7.33706e-09
-5.30819e-10
-5.16673e-10
-3.31538e-10
4.96807e-09
2.37618e-09
1.8455e-09
9.21229e-09
-3.61196e-10
-2.71036e-10
-5.37301e-10
-7.2919e-10
1.74623e-11
5.29887e-12
2.31759e-11
4.14622e-11
-2.80398e-10
1.56065e-11
8.56979e-09
1.99081e-09
-2.73673e-10
-6.68109e-10
-4.10488e-10
-3.95007e-08
-6.70713e-11
-2.80378e-10
-1.15551e-10
2.15961e-09
5.06606e-09
3.37819e-09
8.40232e-09
-7.15743e-08
2.05699e-08
8.13391e-11
-1.25045e-10
-7.83425e-11
-1.23802e-09
-1.21966e-09
-2.08394e-09
-2.04774e-09
-5.77098e-11
-7.958e-11
-1.02765e-10
-9.00127e-11
4.74121e-11
-5.10879e-09
1.81178e-09
-5.33306e-09
-1.91982e-08
9.73074e-09
-2.095e-07
4.71533e-08
-3.39101e-11
-3.72718e-11
-4.16631e-11
-1.7189e-09
6.07306e-10
-2.28839e-11
-9.58905e-08
1.94503e-08
-4.28077e-10
-3.07567e-10
-1.99789e-10
3.48429e-09
-9.40052e-10
-7.69878e-10
-5.76104e-10
-8.12158e-08
6.34042e-09
4.80201e-09
1.20671e-08
1.63175e-08
-1.88022e-10
3.33164e-11
1.06459e-11
1.59483e-10
-2.62905e-11
-3.76675e-12
-6.59986e-12
2.06238e-12
2.83323e-11
-1.11487e-10
4.73664e-11
-1.21545e-11
-1.74145e-10
4.22982e-12
-3.70713e-11
-1.2275e-10
7.52211e-12
2.04146e-11
-3.11818e-12
1.03506e-10
-6.46581e-11
-4.72624e-10
2.95804e-11
4.06788e-10
6.10266e-11
-9.71854e-12
1.28716e-10
-5.68765e-11
1.99299e-11
-1.07445e-10
-5.85232e-10
-9.88806e-11
-3.94656e-11
-4.49437e-10
1.42219e-11
9.46009e-11
7.86595e-11
-6.14484e-10
4.36263e-11
-6.71129e-11
-1.38601e-11
5.29206e-10
-8.61312e-10
8.47161e-11
7.69348e-11
7.44438e-10
-7.52199e-11
-2.36346e-11
-6.2932e-11
2.2336e-11
1.21544e-10
-6.36379e-10