/*--------------------------------*- C++ -*----------------------------------*\
| =========                 |                                                 |
| \\      /  F ield         | OpenFOAM: The Open Source CFD Toolbox           |
|  \\    /   O peration     | Version:  2012                                  |
|   \\  /    A nd           | Website:  www.openfoam.com                      |
|    \\/     M anipulation  |                                                 |
\*---------------------------------------------------------------------------*/
FoamFile
{
    version     2.0;
    format      ascii;
    class       volScalarField;
    location    "0.107/fluid";
    object      p;
}
// * * * * * * * * * * * * * * * * * * * * * * * * * * * * * * * * * * * * * //

dimensions      [0 2 -2 0 0 0 0];


internalField   nonuniform List<scalar> 
16421
(
0.122943
0.122183
0.122353
0.122384
0.122794
0.123568
0.124821
0.126825
0.130013
0.13512
0.143735
0.160275
0.2
0.303558
0.236209
0.12281
0.122139
0.122302
0.122311
0.122692
0.123424
0.124608
0.126488
0.129422
0.134023
0.14134
0.153528
0.176145
0.22711
0.283231
0.122734
0.12205
0.122186
0.122153
0.122468
0.123094
0.124118
0.125731
0.128241
0.13211
0.13801
0.146851
0.159879
0.179356
0.170315
0.122654
0.121944
0.122038
0.121943
0.122161
0.122635
0.123426
0.124666
0.126593
0.129556
0.13412
0.141273
0.153631
0.182546
0.234333
0.122751
0.122128
0.122288
0.122292
0.122657
0.123355
0.124498
0.126313
0.129182
0.133717
0.141054
0.153766
0.178318
0.224932
0.311782
0.122619
0.122083
0.122236
0.122221
0.122558
0.123215
0.124291
0.125992
0.128641
0.132739
0.139011
0.148374
0.160675
0.161884
0.0698301
0.122542
0.121991
0.12212
0.122064
0.122338
0.122898
0.12382
0.125278
0.127547
0.131037
0.136274
0.143651
0.152051
0.15021
0.0932726
0.122462
0.121883
0.121973
0.121856
0.122039
0.122457
0.123155
0.124266
0.126003
0.128717
0.13298
0.13986
0.151928
0.175082
0.210684
0.122625
0.122003
0.122139
0.122084
0.122342
0.122876
0.123762
0.125166
0.127361
0.130818
0.136262
0.14534
0.163145
0.210158
0.342627
0.122493
0.121958
0.122087
0.122013
0.122249
0.122746
0.123572
0.124882
0.126917
0.130031
0.134684
0.141187
0.148172
0.14482
0.079684
0.122415
0.121867
0.121973
0.121862
0.122041
0.122451
0.123141
0.124246
0.12598
0.128673
0.132772
0.138641
0.145337
0.145547
0.102589
0.122334
0.121759
0.121828
0.121662
0.121758
0.12204
0.122532
0.123338
0.124637
0.126756
0.130361
0.137071
0.151965
0.19548
0.334729
0.175888
0.2415
0.372554
0.232851
0.266273
0.173438
0.143268
0.483323
0.265376
0.0873726
-0.2631
0.170369
0.076484
-0.190823
0.0481358
-0.132183
0.218179
0.0518313
-0.116475
0.113045
-0.18123
0.173592
-0.12748
0.0802866
-0.15509
0.341588
0.086962
-0.155191
-0.114117
0.298562
-0.112095
0.0903728
-0.13458
-0.115396
-0.343127
1.5789
0.131514
-0.0664467
0.133003
0.335518
0.18373
0.176837
0.165512
0.124548
0.142393
0.0883078
-0.0798084
0.189432
0.148348
-0.114383
0.124039
0.173151
0.182407
0.202398
0.141963
0.0901163
0.158081
0.141461
-0.08067
0.179271
0.0989295
-0.0860287
0.105817
0.219796
0.164054
0.177224
0.179551
-0.00942293
0.0167331
0.15646
-0.0683312
0.0839681
-0.0143169
0.1969
-0.0972268
0.205151
0.188712
0.263903
0.200828
0.230898
0.230825
0.012014
0.226085
-0.0757959
0.289777
0.361768
0.35889
0.394804
0.254255
0.341734
0.796133
0.136743
0.227357
0.404119
0.268603
-0.471964
-0.809486
0.253821
-0.656975
2.89219
0.234521
-0.14259
-0.18073
-0.59176
-0.350712
-0.625418
-0.27907
-0.289101
0.324014
-0.751508
-0.782325
-0.133012
0.224632
-0.156977
-0.311243
-0.214035
-0.231621
-0.08323
0.181745
0.0990307
0.10475
-0.0871934
-0.156006
-0.189083
-0.217974
-0.152003
-0.147305
-0.185792
-0.150325
-0.187768
-0.0724936
0.184401
0.143835
0.118102
-0.0453964
-0.141034
-0.251755
-0.185104
-0.141949
-0.226075
-0.109504
0.164373
0.145645
0.1219
-0.157928
0.0242759
-0.0136061
-0.0222171
0.328706
-0.733865
-0.0820808
-0.69649
0.362174
-0.0117577
0.376053
-0.666684
-0.689481
0.00819696
0.363926
0.0557841
-0.104993
0.102232
0.271899
0.317119
0.281699
-0.103645
0.165899
0.122922
0.0200558
0.376913
-0.662777
0.0115777
-0.644573
0.381904
0.0229385
-0.641245
0.382375
0.181957
-0.133432
0.217283
-0.137751
0.228123
-0.372962
0.0861458
-0.0660567
-0.0945875
0.28814
0.165698
0.120547
0.212571
0.304139
0.148685
0.116524
0.176806
0.298109
0.171464
0.328835
0.148305
0.190362
0.327785
-0.0888068
0.0846812
0.00878075
0.0725102
-0.0894231
0.0699913
-0.0314885
0.304202
0.146794
0.118062
0.193164
0.344451
0.193747
0.344409
0.189763
0.195812
0.348478
-0.0688224
0.0878297
0.00151287
0.0722651
0.368201
0.246048
0.138211
0.0854938
0.309349
0.244624
0.226508
0.786744
0.290048
0.248824
0.291407
0.227518
0.422017
-0.56452
-0.404021
-0.479327
-0.488493
0.0942591
0.2544
0.283598
0.160883
0.100108
0.125149
0.169551
0.0550137
-0.143755
-0.523005
-0.147307
-0.527311
-0.031675
-0.175242
-0.409111
-0.404586
-0.337223
-0.472778
-0.332314
-0.22207
-0.230804
-0.324364
-0.320221
-0.220433
-0.217467
-0.322935
-0.344822
-0.287662
-0.246052
-0.380827
-0.496485
-0.300663
-0.413135
-0.390834
-0.0768473
-0.487324
-0.0542833
-0.186042
-0.0699097
-0.4654
-0.0685395
0.175595
0.332644
0.342657
0.195088
0.183642
0.188224
0.332046
-0.0599958
-0.146312
-0.435325
-0.0443376
-0.450138
-0.0433661
-0.0516501
-0.0406155
-0.427225
-0.0312362
-0.13828
-0.0441475
-0.415798
-0.0327086
0.349427
-0.409775
-0.226662
0.0391781
-0.0802962
-0.0821122
-0.480315
-0.493143
6.31237
-0.185478
-2.78238
-0.511052
-1.05605
-0.355955
0.563172
0.0520773
0.0917127
-0.256416
0.0434419
-0.191202
0.136583
0.066761
-0.167048
0.116781
-0.181058
0.0657428
0.130559
0.0668314
0.107575
-0.159303
0.0650203
-0.156503
0.110102
0.069398
-0.151911
0.117636
-0.155194
0.0732335
0.111469
0.171142
0.169379
-0.12144
0.130808
-0.0637561
0.216624
-0.0060469
0.236091
0.22804
0.275951
-0.396182
0.708346
0.0116633
0.19582
0.499457
-0.254203
0.118915
-0.0377525
-0.737171
-0.861396
-0.609471
-0.825451
-0.597416
-0.784918
-0.479035
-0.788391
-0.427007
-0.785152
-0.235138
-0.581914
-0.334498
0.00970126
0.183048
0.040433
-0.230297
-1.22191
1.65334
-0.0586816
8.07683
-3.93601
0.215767
0.893369
-0.119912
-0.0769804
-0.286083
-0.128039
-0.57247
-0.758293
-1.46425
-1.12415
-3.30361
-0.860349
-0.713334
-0.593804
-0.66535
-0.617382
-0.51628
-0.57665
-0.369017
-0.583462
-0.50196
-0.597835
-0.866105
-0.630401
-0.837438
-0.149061
0.20124
0.297271
0.183597
-0.141215
-0.597378
-0.772915
-0.387498
-0.378532
-0.606695
-0.651493
-0.510656
-0.763711
-0.892557
-0.356458
-0.196944
-0.030169
0.286849
-0.320123
0.16161
-0.407711
-0.338316
-0.261464
-0.484234
-0.401453
-0.260045
-0.308101
-0.360437
-0.402162
-0.237625
-0.252871
-0.372459
0.0637903
0.107547
-0.159934
0.0641762
-0.16228
0.108051
0.0638207
-0.165628
0.11374
0.0648118
-0.163038
0.109014
-0.335438
-0.251433
-0.352488
-0.234391
-0.353453
-0.229149
-0.232009
-0.347199
-0.35516
-0.235898
-0.367177
-0.232726
-0.343327
-0.228467
-0.225883
-0.345807
-0.320612
-0.221349
-0.217589
-0.32356
-0.343496
-0.22331
-0.22502
-0.345485
0.0935877
0.160157
-0.130417
0.10912
-0.143697
0.136483
0.0840308
-0.150751
0.119715
0.077475
-0.146686
0.131292
-0.339274
-0.223562
-0.325338
-0.239372
-0.363375
-0.216432
-0.22057
-0.391669
-0.358513
-0.222525
-0.347168
-0.222254
-0.359535
-0.0522604
-0.293761
-0.490819
-0.210264
-0.182694
-0.400918
-0.511361
-0.402773
-0.334539
-0.487581
-0.156775
-0.198298
-0.250439
-0.234558
-0.201452
-0.244663
-0.293761
-0.188164
0.132734
-0.148619
-0.116934
0.201735
0.346485
0.232976
-0.156663
-0.57382
-0.36533
-0.709924
-0.622831
-0.324399
-0.563317
-0.32337
-0.70918
-0.326873
-0.556385
-0.106388
0.246755
0.352123
0.240304
-0.0992398
-0.0835554
0.262191
0.372127
0.258561
-0.0792391
-0.536959
-0.675568
-0.296166
-0.301154
-0.530431
-0.538825
-0.315855
-0.67711
-0.556765
-0.301271
-0.0860146
0.248079
0.37022
-0.100273
0.256722
-0.0896636
0.26819
0.216698
-0.058678
-0.161995
-0.187912
-0.0972947
0.159377
0.206274
-0.131564
-0.156168
-0.134762
-0.0198894
0.287931
-0.0467877
0.339042
-0.106869
-0.320529
-0.300047
-0.0949121
-0.110842
-0.280666
-0.126878
-0.294786
-0.0127996
0.403105
0.352482
0.010725
-0.0712492
0.263376
0.379402
0.26665
-0.0783882
-0.51945
-0.292
-0.654349
-0.529209
-0.284756
-0.518308
-0.278844
-0.652472
-0.284161
-0.51186
-0.0700499
0.269425
0.380095
0.267243
-0.0661817
-0.276292
-0.510671
0.270209
-0.0650148
0.0443341
0.527281
0.4824
0.0610384
-0.0830569
-0.32758
-0.353303
-0.0907468
0.0387446
0.420723
0.468704
0.0189757
-0.0811049
-0.389559
-0.361616
-0.0761504
0.541172
0.0665872
-0.397512
-0.0742863
0.192799
0.200759
0.23248
0.157872
0.14255
-0.267314
-0.334041
-0.167938
-0.165639
-0.235117
-0.275466
0.199591
0.00844075
0.819247
0.198569
0.324041
0.112245
0.0837151
-0.577689
-0.403521
-0.402849
-0.564054
-0.259254
-0.249795
-0.495882
-0.404667
-0.416442
-0.56749
-0.379052
-0.260242
-0.263204
-0.373509
-0.168901
-0.171612
-0.369869
-0.259152
-0.256569
-0.373347
-0.42607
-0.328596
-0.301881
-0.450323
-0.232952
-0.204858
-0.505972
-0.334833
-0.375597
-0.463201
-0.0784255
-0.408623
-0.162261
-0.305152
-0.0363049
-0.249537
-0.254147
-0.0353646
-0.199001
-0.205335
-0.0332938
-0.245374
-0.0336001
-0.243633
-0.027683
-0.238863
-0.239881
-0.0237409
-0.1699
-0.165026
0.0380304
-0.213019
0.0170763
-0.197986
-0.454826
-0.467349
0.0780142
-0.217607
-0.0416427
-0.16552
-0.426568
-0.442473
-0.432183
-0.219891
-0.528706
-0.684087
-0.427288
-0.498706
-0.648841
-0.356243
-0.309413
0.203641
-0.153738
-0.508617
0.116106
-0.0928643
-0.292057
0.0307367
0.012287
-0.239331
0.10839
-0.201171
-0.289327
-0.544032
-0.421629
-0.328431
-0.672884
-0.418867
-0.288815
-0.294035
-0.402152
-0.493487
-0.263734
-0.269497
-0.48096
-0.0352503
-0.24545
-0.0338331
-0.247395
-0.0360109
-0.251052
-0.0353312
-0.248822
-0.392652
-0.287023
-0.405893
-0.279512
-0.482645
-0.257812
-0.259735
-0.477696
-0.481563
-0.265618
-0.491412
-0.261997
-0.195655
-0.187967
-0.475002
-0.257888
-0.255654
-0.47932
-0.372511
-0.261249
-0.256777
-0.374597
-0.475192
-0.251953
-0.252263
-0.47654
-0.00134871
-0.220532
0.0131026
-0.226906
-0.0206937
-0.237796
-0.0231604
-0.236759
-0.381226
-0.261438
-0.376027
-0.26756
-0.494659
-0.241642
-0.244326
-0.506507
-0.479503
-0.251298
-0.476471
-0.250616
-0.169655
-0.176357
-0.515649
-0.234771
-0.225488
-0.498005
-0.254621
0.00432781
-0.165049
0.0835463
0.0962259
-0.159373
-0.246678
-0.267861
0.013524
0.0254222
-0.197139
0.0884995
-0.301976
-0.152753
-0.233323
-0.152606
0.00697741
0.0873621
-0.245204
0.101162
-0.141246
-0.230409
0.0101521
0.105572
-0.136655
0.105144
-0.138063
-0.225014
-0.214881
0.018329
-0.12207
0.115393
0.113473
-0.124721
-0.210211
-0.216381
0.0167124
0.107975
-0.131627
0.112114
-0.222724
-0.127227
-0.118263
0.117423
-0.208362
0.24934
0.177271
-0.294268
-0.344416
-0.165554
-0.164929
-0.347338
-0.28199
0.224008
0.224312
0.22739
0.275551
0.24132
0.262078
0.252019
-0.576341
-0.501798
-0.43359
-0.613544
-0.603868
-0.623319
-0.582121
-0.65659
-0.601563
-0.632387
-0.622781
-0.65143
-0.377359
-0.299905
-0.510008
-0.624399
-0.582127
-0.543169
-0.50888
-0.371144
-0.425247
-0.487752
-0.51643
-0.488433
-0.530076
-0.501279
-0.377829
-0.270055
-0.264232
-0.386073
-0.391367
-0.421234
-0.384897
-0.428027
-0.389667
-0.433232
-0.397317
-0.425025
-0.178239
-0.172693
-0.381833
-0.422159
-0.384796
-0.418278
-0.371105
-0.256587
-0.256109
-0.369463
-0.383211
-0.417604
-0.42021
-0.380803
-0.416129
-0.281309
-0.298501
-0.400201
-0.437331
-0.488017
-0.459433
-0.464182
-0.426707
-0.444383
-0.411276
-0.459106
-0.187264
-0.20498
-0.515043
-0.492657
-0.47335
-0.533671
-0.52785
-0.461927
-0.389933
-0.596448
-0.535294
-0.600378
-0.538823
-0.599899
-1.5171
-0.258449
-0.785478
-0.503825
-5.16564
-5.40927
9.64187
-10.7177
-0.865484
-3.06993
-0.310921
-1.33453
-1.17223
-1.53477
-1.55574
-1.4008
-1.52258
-0.0709659
-0.261943
-0.0452245
-0.295344
-0.0369736
-0.26081
-0.042907
-0.253146
-0.256646
-0.21419
-0.0325972
-0.24208
-0.0301364
-0.243465
-0.0283926
-0.241647
-0.0293855
-0.240553
-0.164339
-0.165717
0.0460309
-0.147237
0.0881376
-0.183887
-0.118542
0.105215
-0.377202
-1.60005
-1.5797
-1.60319
-1.58529
-1.59256
-1.60606
-1.60143
0.165209
0.244085
0.246907
0.316844
0.320987
0.00617346
0.187481
0.182971
0.0611237
-0.36439
-0.00285836
0.184059
0.168145
0.150711
0.122928
0.152361
-1.31595
-0.801717
-0.72156
-1.21756
-0.684248
-1.28662
-1.31694
-1.13031
-1.2692
-1.20994
-0.818494
-0.798767
-0.772416
-1.19496
-1.28957
-1.49962
-1.51249
-1.28031
-1.2907
-1.38124
-1.48571
-1.25937
-1.2037
-0.735988
-0.810903
-0.783097
-1.19858
0.333253
0.0523651
-0.21858
0.105756
0.187989
0.335182
0.277645
0.301297
0.280292
0.420643
-0.141758
0.0967619
0.165575
0.343599
0.27378
0.181557
0.143866
0.248372
2.42979
2.17154
32.2696
5.31252
-0.670872
1.41489
1.28862
0.920414
-0.624976
-0.0157177
3.9722
0.0119041
-0.824574
1.55875
-0.563622
-0.621548
-0.679914
-0.538493
-0.670344
-0.805042
-1.12717
-0.753504
-0.921879
-0.578866
-0.659657
-0.658571
-0.666788
-0.673294
-0.638428
-0.672491
-0.641454
-0.658189
-0.575463
-0.499922
-0.622022
-0.654806
-0.64445
-0.666623
-0.625472
-0.659398
-0.645394
-0.656033
-0.621158
0.334486
0.151431
-0.10668
0.175602
0.295035
0.306631
0.319686
0.309692
0.310247
0.335778
-0.125156
0.169981
0.170123
0.337227
0.304182
0.287413
0.272678
0.305297
-1.14605
-0.687883
-0.563857
-1.15451
-0.677662
-1.2588
-1.56887
-1.63088
-1.22987
-1.25809
-1.66669
-1.26461
-1.65462
-1.15014
-0.592609
-0.679543
-0.686163
-1.12516
-1.14189
-0.712825
-0.710572
-0.722992
-1.15384
-1.25753
-1.49268
-1.28025
-1.51151
-1.1698
-0.776995
-0.83144
-1.20881
-0.782445
-1.23938
-1.64673
-1.2604
-1.54637
0.266255
-0.268022
0.102239
0.0888501
0.272135
0.245957
0.257822
0.217805
0.265487
0.254494
-0.320453
-0.0254832
0.22292
0.0506851
0.252111
0.280646
0.257824
0.270725
-0.4656
-1.62134
-1.68908
-1.73402
-1.71041
-1.52145
-1.54647
-1.71069
-1.59624
-0.548362
-0.642242
-0.552631
-0.660844
-0.530433
-0.279996
-0.319355
-0.476162
-0.532756
-0.485475
-0.534036
-0.47407
-0.419304
-0.337001
-0.471582
-0.299998
-0.434125
-0.444764
-0.465115
-0.415073
-0.435002
-0.489385
-0.487031
-0.461438
-0.481214
-0.279384
-0.267862
-0.491151
-0.483672
-0.452809
-0.472759
-0.46948
-0.472981
-0.490406
-0.48412
-0.468582
-0.0356564
-0.24903
-0.0353429
-0.247199
-0.0357868
-0.24837
-0.0354769
-0.249988
-0.396311
-0.271809
-0.384951
-0.278372
-0.404775
-0.450127
-0.417813
-0.436396
-0.408126
-0.43063
-0.396357
-0.441698
-0.467507
-0.432888
-0.439459
-0.46181
-0.479825
-0.262112
-0.25946
-0.487734
-0.464506
-0.444211
-0.436427
-0.472098
-0.468091
-0.458881
-0.47869
-0.446094
-0.488776
-0.261272
-0.263318
-0.485388
-0.474946
-0.441236
-0.451701
-0.468035
-0.180072
-0.186245
-0.459436
-0.434023
-0.430083
-0.463498
-0.476507
-0.254525
-0.255597
-0.474718
-0.461152
-0.429307
-0.432149
-0.458763
-0.370168
-0.255643
-0.369661
-0.256743
-0.384581
-0.421758
-0.420985
-0.385648
-0.382005
-0.418589
-0.381113
-0.41845
-0.474907
-0.254138
-0.252851
-0.475526
-0.459995
-0.433046
-0.432556
-0.461001
-0.459361
-0.430621
-0.459641
-0.430289
-0.0042256
-0.232871
-0.0114033
-0.230832
-0.0196425
-0.234896
-0.0133658
-0.235469
-0.385968
-0.280548
-0.395012
-0.268772
-0.392696
-0.423535
-0.387332
-0.427958
-0.397837
-0.439456
-0.405518
-0.431866
-0.48241
-0.494145
-0.472063
-0.498435
-0.497098
-0.248391
-0.248031
-0.485212
-0.485216
-0.45418
-0.468306
-0.472076
-0.465268
-0.434942
-0.461441
-0.439009
-0.478846
-0.250339
-0.249543
-0.487
-0.465014
-0.44979
-0.442114
-0.473294
-0.188585
-0.176132
-0.515002
-0.497205
-0.534212
-0.491687
-0.502977
-0.189981
-0.212202
-0.531794
-0.506408
-0.593195
-0.536888
-0.546929
-0.50055
-0.609293
-0.601514
-0.607147
-0.162858
-0.512173
-0.59265
-0.532483
0.340086
0.186181
-0.142424
0.175624
0.352926
0.313381
0.321657
0.307223
0.329237
0.334784
-0.157295
0.159378
0.331016
0.162497
0.317624
0.341278
0.328807
0.332339
-1.09186
-0.588641
-0.643788
-0.651377
-1.08674
-1.20328
-1.5497
-1.53044
-1.22105
-1.19532
-1.54688
-1.53244
-1.19154
-1.10083
-0.608061
-0.677002
-1.11831
-0.666997
-1.07741
-0.636187
-0.552828
-0.631769
-1.08517
-1.18232
-1.51939
-1.53681
-1.17118
-1.18353
-1.5489
-1.5441
-1.19058
-1.07698
-0.557669
-0.625781
-0.63075
-1.06675
0.368004
0.198727
-0.0984285
0.203708
0.359305
0.343106
0.356713
0.345972
0.353095
0.36816
-0.101877
0.206755
0.203661
0.371336
0.342273
0.34428
0.333441
0.351137
0.382067
0.218649
-0.0834977
0.219046
0.380412
0.358142
0.370452
0.359585
0.36911
0.382251
-0.0838277
0.222314
0.219697
0.38446
0.357705
0.36591
0.355113
0.368385
-1.04088
-0.605378
-0.530372
-1.04622
-0.603164
-1.14337
-1.48532
-1.49281
-1.13731
-1.14493
-1.50168
-1.1502
-1.49636
-1.03956
-0.531168
-0.597956
-0.601134
-1.03406
-1.05132
-0.541386
-0.607978
-0.612003
-1.04723
-1.1587
-1.51308
-1.16693
-1.50494
-1.05467
-0.54686
-0.621475
-1.0628
-0.617374
-1.15546
-1.50319
-1.1513
-1.50331
0.373908
-0.096177
0.215637
0.211101
0.378871
0.348632
0.357699
0.346182
0.360899
0.372137
-0.10039
0.206647
0.37086
0.207261
0.350118
0.364779
0.353868
0.361933
0.38564
0.2275
-0.0775094
0.224634
0.38819
0.361086
0.371008
0.359954
0.372428
0.384867
-0.0791786
0.223373
0.38472
0.223113
0.361796
0.37389
0.363249
0.372951
-1.02413
-0.519716
-0.58656
-0.589375
-1.02065
-1.1293
-1.48206
-1.47631
-1.13479
-1.12729
-1.47094
-1.47421
-1.12332
-1.02608
-0.521792
-0.59462
-1.03151
-0.592172
-1.01478
-0.584678
-0.512346
-0.582953
-1.01947
-1.1156
-1.45509
-1.46074
-1.11056
-1.11721
-1.46887
-1.46346
-1.12196
-1.01332
-0.512288
-0.577998
-0.580835
-1.00879
0.388757
0.228717
-0.0715085
0.228139
0.388794
0.364988
0.376444
0.365838
0.375873
0.388935
-0.0711204
0.231174
0.228693
0.390738
0.364667
0.374397
0.363717
0.375464
-1.10294
-1.45236
-1.10852
-1.44604
-1.0014
-0.503571
-0.575292
-1.0069
-0.573016
0.3668
0.376718
0.366143
0.377513
0.390773
-0.066104
0.23217
0.391038
0.231644
0.168643
0.421776
0.24499
0.158399
0.0760843
0.280079
0.192876
0.115945
0.0608101
0.171626
0.0222963
0.0229656
0.114621
0.0624153
0.206868
0.132483
0.252611
0.0819205
0.0948275
0.18059
0.159065
0.211169
0.265948
0.262865
0.195854
0.171821
0.206356
0.263482
0.0423656
0.134796
0.109721
-0.0148651
0.235702
0.016187
-0.000306087
0.115235
0.171932
0.0605831
0.0232298
0.0253042
0.114435
0.0615875
0.0262013
0.102347
-0.0028263
0.0621602
-0.00348641
0.0904037
-0.00901614
-0.00721963
-0.102452
-0.10906
-0.161772
-0.0535842
-0.0281855
-0.098045
0.0332594
0.090104
0.0513081
-0.0147752
0.0846444
0.0493628
-0.0140194
0.0089259
0.0207122
-0.140399
-0.0877016
-0.00438805
0.0326853
-0.0911945
0.145191
0.202585
0.111405
0.0655226
0.0515593
0.159875
0.095309
0.0619586
0.093476
-0.00786837
0.0603646
0.0552886
0.101855
-0.00407558
0.0399183
0.0258854
-0.0763879
-0.13071
0.0390616
0.0180382
-0.0818842
0.068886
0.132114
0.084356
0.0445662
0.112175
0.077722
0.0267721
0.0324639
-0.0636456
-0.0976794
-0.0735224
0.00016637
0.0127309
-0.0498437
-0.228151
-0.138421
-0.0964545
-0.220758
-0.109194
-0.228845
-0.214459
-0.174622
-0.0732921
-0.201056
-0.108536
-0.0619778
-0.195627
-0.188056
-0.13375
-0.108657
-0.0286724
-0.210644
-0.0322693
-0.204809
-0.12928
-0.121613
-0.0240176
-0.215454
-0.121173
-0.0224532
-0.223832
-0.123625
-0.264549
-0.316495
0.0211896
-0.231829
0.00516331
-0.236737
-0.161366
-1.99272
-0.041438
-0.48686
4.09226
-1.82607
4.70679
-0.478537
-0.144773
0.0820686
0.108807
0.088615
-0.0133092
-0.00242782
0.0204437
-0.472726
-0.432221
-0.424318
0.00500116
-0.236822
-1.06881
-0.130906
-0.0288297
0.0421007
0.0765501
0.0995092
0.115426
-0.00114583
0.0349518
0.271834
0.224624
0.188701
0.191739
0.147681
0.162624
0.228699
0.191729
0.114921
0.124738
0.144406
0.197852
0.134942
0.208829
0.0303815
-0.0770025
0.0176323
-0.0575213
-0.062123
0.0260677
0.0283642
0.145064
0.204251
0.0434052
0.0854602
0.0555203
0.128052
0.116911
0.0266691
-0.0789799
-0.0922299
0.00392023
0.0311416
-0.0788546
0.027787
0.177288
0.112395
0.117907
0.135555
0.193823
0.131764
0.195981
0.185705
0.147376
0.127352
0.141958
0.21136
0.156384
0.200967
0.0344008
-0.0834192
0.0148362
-0.0286317
-0.0319326
0.0394478
0.00915394
0.118448
0.174215
0.0306706
0.0695991
0.0254909
0.122741
0.0652079
0.0311339
-0.085123
-0.0371083
0.00617136
0.0291316
-0.0351735
0.00700741
0.169003
0.217518
0.167593
0.138207
0.0282724
0.0169628
0.0907101
0.0964159
0.0490845
0.136383
0.00351007
0.0321231
-0.122199
0.050124
0.00180522
0.0225181
-0.0306447
-0.0695542
0.0474038
0.0574686
0.0662225
-0.00760989
0.00815496
0.0577509
0.0785145
-0.0924613
0.0768289
0.0762661
0.00871799
0.0788129
-0.000428888
0.088219
0.0996762
0.199179
0.267299
0.135793
0.149984
0.251212
0.166463
0.259744
0.049908
0.165247
0.0549467
0.2051
0.215999
-1.09585
-0.776825
-0.811621
-1.24617
-1.25735
-0.779377
-1.0862
0.2774
0.180689
0.245929
0.21696
0.187402
0.257765
0.220725
0.0460109
-0.807821
-0.577802
0.695739
1.39987
-0.258514
-0.548633
0.0231666
-0.823206
0.256684
0.139685
2.4963
0.147201
-0.35811
-0.000121073
-0.270987
-0.100827
-0.0208607
0.0579013
-0.0872242
-0.109501
-0.201826
-0.551989
-0.505387
0.0790925
-0.159829
-0.217576
-0.47559
-0.349932
-0.343361
-0.412676
-0.359991
-0.414668
-0.401163
-0.304764
-0.424915
-0.586904
-0.590464
-0.47464
-0.461448
-0.471529
-0.494187
-0.242419
-0.360425
-0.198496
-0.340147
-0.159761
-0.402557
-0.244041
0.310333
0.306832
0.306352
0.3167
0.299031
0.316263
0.298626
-1.00682
-1.1613
-0.762477
-0.675671
-0.679493
-1.1745
-0.99573
-1.04429
-0.734586
-1.2191
-0.773976
-0.707361
-1.07064
-1.19936
0.222076
0.161174
0.192113
0.274782
0.262843
0.171266
0.237388
-0.192798
-0.164505
-0.219842
-0.130726
-0.144458
-0.172555
-0.236014
-0.261746
-0.324713
-0.310251
-0.277885
-0.286245
-0.298622
-0.276025
-0.224103
-0.173518
-0.189674
-0.288116
-0.170218
-0.244996
-0.249309
-0.222025
-0.235603
-0.21369
-0.256244
-0.233045
-0.200272
-0.257249
0.0249721
0.0116681
-0.0851803
-0.0509847
0.0241597
-0.0471344
0.0079688
0.117144
0.175329
0.0371552
0.0710819
0.0292038
0.121782
0.0649176
0.0266809
-0.0871242
-0.0393852
0.00558877
0.0281775
-0.0419034
0.00620432
-0.145984
-0.214947
-0.153768
-0.118157
-0.156146
-0.111081
-0.207722
-0.165276
-0.173693
-0.196023
-0.20335
-0.20933
-0.179461
-0.160021
-0.173815
-0.226513
-0.198487
-0.204303
-0.184252
-0.214861
-0.188405
-0.136582
-0.153711
-0.0996274
-0.200942
-0.103318
-0.205123
-0.131834
-0.125382
-0.147008
-0.197235
-0.0909135
-0.0922362
-0.126027
-0.194306
-0.154141
-0.169772
-0.200522
-0.184805
-0.167928
-0.156169
-0.199018
-0.125809
-0.148913
-0.0963722
-0.198752
-0.0943622
-0.127859
-0.197057
-0.153273
-0.200667
-0.170285
-0.183015
-0.167235
-0.155452
-0.19603
0.049514
0.0221353
-0.0693508
-0.0264893
0.0425482
-0.0221645
0.0290842
0.1347
0.19276
0.0351764
0.0755383
0.0413385
0.127823
0.0839018
0.0586358
-0.0597049
-0.00156145
0.0626614
0.0790303
-0.0154319
0.038931
-0.130863
-0.193649
-0.144152
-0.090016
-0.126129
-0.0894035
-0.206014
-0.17607
-0.229874
-0.203761
-0.262519
-0.213123
-0.196536
-0.207903
-0.168886
-0.19864
-0.17369
-0.205995
-0.158432
-0.21747
-0.187123
-0.13552
-0.136423
-0.0866369
-0.229689
-0.0880813
-0.198863
-0.152464
-0.330661
-0.245977
-0.232584
-0.321655
-0.328865
-0.220468
-0.358412
-0.247621
-0.119274
-0.0797211
-0.19465
-0.0873996
-0.163031
-0.297617
-0.247962
-0.148424
-0.133174
-0.24681
-0.126074
-0.255824
-0.234537
-0.151816
-0.0461095
0.00297148
0.0392144
-0.0627443
0.013568
-0.13256
-0.177737
-0.0153962
-0.0871408
-0.00588995
-0.0868217
-0.179234
-0.00373832
0.322829
0.312526
0.309741
0.33614
0.319504
0.315826
0.319906
-0.972011
-1.145
-0.65647
-0.726299
-0.648566
-1.13538
-0.980826
-0.939951
-0.617598
-0.700882
-1.09857
-0.619472
-1.10416
-0.935002
0.350911
0.344752
0.359973
0.346475
0.342973
0.352911
0.343851
0.365853
0.360814
0.358639
0.37553
0.358597
0.366454
0.359884
-0.904941
-1.06339
-0.669439
-0.58765
-0.588627
-1.06691
-0.901946
-0.923322
-0.609794
-1.09082
-0.685542
-0.60515
-0.927788
-1.08598
0.356517
0.346421
0.34876
0.366645
0.349647
0.354132
0.351145
-0.0790188
-0.0220034
0.0756083
0.0712943
-0.00815293
0.098729
-0.0983846
-0.168404
-0.107802
-0.049647
-0.199215
-0.057884
-0.200736
-0.157425
-0.065685
0.140978
0.0807445
0.0189546
0.00346913
0.114532
-0.0459504
-0.136118
-0.105126
-0.0403142
-0.19449
-0.034912
-0.143713
-0.196742
0.00475255
0.0640974
0.148231
0.232979
0.0528948
0.209614
0.0198224
-0.00758782
0.169203
0.032857
0.136491
0.0431547
-0.0237067
0.191341
0.368504
0.361812
0.359537
0.378257
0.361366
0.367285
0.362893
-0.894432
-1.05858
-0.583345
-0.659949
-0.579885
-1.05524
-0.897412
-0.880047
-0.566609
-0.646958
-1.03634
-0.567609
-1.03956
-0.877257
0.372157
0.364563
0.381842
0.366865
0.364922
0.372411
0.366443
-0.870371
-0.563314
-1.03237
-0.638147
-0.559572
-0.87365
-1.02882
0.373684
0.365044
0.367315
0.383328
0.366513
0.372796
0.368023
0.0477005
0.0740009
0.25635
0.193601
0.0814945
0.275902
0.0355439
-0.121974
-0.12736
-0.0212437
-0.244032
-0.0215032
-0.234494
-0.121661
0.0576003
0.311778
0.204434
0.0961763
0.0889381
0.293036
0.0682529
-0.0199754
-0.252001
-0.120563
0.328925
0.102472
0.0787418
-0.260852
-0.378694
-0.272343
-0.209601
-0.206143
-0.560753
-0.20142
-0.327984
0.167687
0.0264208
0.000288209
0.0220104
0.0194261
0.0377487
-0.301367
-0.269281
-0.274516
0.031236
0.0623506
-0.521632
-0.0915165
-0.135732
-0.126319
-0.116288
-0.060198
-0.157875
-0.0953611
-0.0702602
0.315106
0.312184
0.33468
0.239768
0.333773
0.20391
0.353186
0.342923
0.321773
0.33841
0.239193
0.363495
0.236936
0.360046
0.36028
0.346026
0.36199
0.259585
0.379124
0.257075
0.380939
0.364318
0.347243
0.363178
0.260577
0.382916
0.261314
0.381921
0.216482
0.14092
0.0538112
0.129917
0.131275
0.200154
0.16656
-0.527472
-0.537172
-0.539345
-0.600728
-0.571629
-0.546388
-0.507107
-0.489572
-0.427293
-0.421728
-0.438251
-0.437485
-0.479994
-0.457475
-0.495518
-0.513949
-0.503303
-0.442379
-0.453948
-0.542022
-0.478852
-0.522669
-0.513834
-0.516251
-0.465248
-0.508105
-0.534022
-0.48597
0.295797
0.258443
0.271689
0.164802
0.318174
0.176735
0.294752
0.203585
0.213684
0.253963
0.0553724
0.301151
0.223454
0.290382
-0.52618
-0.391909
-0.354172
-0.243894
-0.369677
-0.365168
-0.293054
-0.3674
-0.400613
-0.520684
-0.285327
-0.289967
-0.210025
-0.382366
-0.478905
-0.398845
-0.440151
-0.420228
-0.472264
-0.413781
-0.434319
-0.482673
-0.423909
-0.397973
-0.434357
-0.417733
-0.484182
-0.42891
-0.464761
-0.37891
-0.3554
-0.381418
-0.411785
-0.394593
-0.418105
-0.513471
-0.45388
-0.527191
-0.457348
-0.518247
-0.51569
-0.445507
-0.316609
-0.309068
-0.328771
-0.345548
-0.320151
-0.342818
-0.304965
-0.282174
-0.236064
-0.22446
-0.265333
-0.238558
-0.279746
-0.268501
-0.284784
-0.274926
-0.245111
-0.226805
-0.241202
-0.288774
-0.270893
-0.314151
-0.326911
-0.337412
-0.298887
-0.311621
-0.340471
-0.302479
-0.307546
-0.294219
-0.320946
-0.332738
-0.334159
-0.30695
-0.29594
-0.276127
-0.234417
-0.21813
-0.263952
-0.232652
-0.278121
-0.262071
-0.275427
-0.260565
-0.231476
-0.217782
-0.231973
-0.275069
-0.261782
-0.308285
-0.321237
-0.335923
-0.297748
-0.309999
-0.334919
-0.296236
-0.342302
-0.320349
-0.353886
-0.354899
-0.332613
-0.364276
-0.331982
-0.326668
-0.305067
-0.269327
-0.333049
-0.286765
-0.343794
-0.313426
-0.313828
-0.288608
-0.261926
-0.257382
-0.273279
-0.30341
-0.300884
-0.354202
-0.365423
-0.386513
-0.364349
-0.368948
-0.37468
-0.345318
-0.435917
-0.488945
-0.443612
-0.496134
-0.448797
-0.484813
-0.434229
-0.386309
-0.321949
-0.332085
-0.343943
-0.350239
-0.359811
-0.376439
-0.414852
-0.461393
-0.416535
-0.358091
-0.378963
-0.459144
-0.405031
-0.407275
-0.415893
-0.40061
-0.374469
-0.384082
-0.421164
-0.405783
-0.343311
-0.466015
-0.304498
-0.201384
-0.342193
-0.250331
-0.315272
-0.315567
-0.470687
-0.312664
-0.212438
-0.315628
-0.219476
-0.318385
0.358379
0.340164
0.356366
0.255079
0.378018
0.255487
0.376213
0.347898
0.336357
0.353037
0.251976
0.367103
0.242636
0.372827
-0.440382
-0.285744
-0.289102
-0.192604
-0.287849
-0.291811
-0.19014
-0.302863
-0.440558
-0.289551
-0.192126
-0.304169
-0.207539
-0.293893
-0.279378
-0.422095
-0.274025
-0.179363
-0.282159
-0.184319
-0.2777
-0.268871
-0.420279
-0.272922
-0.178756
-0.271409
-0.174963
-0.27518
0.365523
0.383697
0.262342
-0.264084
-0.266532
-0.170414
-0.102181
-0.135195
-0.155756
-0.155793
-0.178412
-0.0489896
-0.10864
-0.0989072
0.0268665
-0.00416213
-0.0264469
-0.0722081
-0.0358582
-0.0777506
-0.0918594
-0.104652
-0.141366
-0.0702201
-0.0510843
-0.0942986
-0.0853047
-0.106595
-0.0865864
-0.108064
-0.0731036
-0.147185
-0.053897
-0.112741
-2.27366
-0.526034
-1.54932
-0.364585
-0.769684
-1.22611
-2.25378
-2.47807
0.490812
16.6015
-2.19246
-3.86468
-1.36116
-0.426582
-0.314121
-0.366526
-0.675837
-0.717836
-0.483458
-3.86525
-2.73447
-1.86907
-29.796
-1.99126
-3.60146
-6.35038
0.171715
-0.522571
-0.532202
-0.216459
-0.459285
-0.0328399
-0.705556
-0.0930616
-0.23356
-0.601237
-1.19534
-0.613072
-0.574563
-0.518583
-0.0481421
-0.447105
-0.407335
-0.146241
-0.469134
-0.0443988
-0.341528
-0.0684588
-0.708934
-2.05153
-11.4052
-0.437958
-0.77948
-0.348571
0.0280722
-0.0253658
0.0961151
0.108772
0.0720964
-0.0100013
0.0564861
-0.115078
-0.300537
-0.160915
-0.232615
-0.148802
-0.155095
-0.267731
-0.0916488
-0.111043
-0.215678
-0.216271
-0.141651
-0.0567843
-0.24518
0.0607661
0.0647555
0.141241
0.0775193
0.0877203
0.0659725
0.0630399
-0.0416728
-0.184205
-0.175559
-0.093343
-0.106463
-0.192037
-0.0314231
0.0669595
0.0715006
0.0297453
0.123306
0.0402046
0.0638629
0.0752146
-0.0437755
-0.101812
-0.178793
-0.203772
-0.107852
-0.0451836
-0.196587
0.0680738
0.0539006
0.0768885
0.127473
0.0678978
0.0467746
0.0765696
0.0617667
0.0661136
0.0188768
0.111219
0.0248773
0.0599996
0.067829
-0.033128
-0.172428
-0.0872202
-0.164655
-0.100494
-0.0239796
-0.176179
-0.0323952
-0.0840126
-0.163923
-0.169521
-0.0996861
-0.0211148
-0.175263
0.0626014
0.0214633
0.112118
0.0691265
0.0257948
0.062647
0.0683138
-0.0283287
-0.164686
-0.160172
-0.0771746
-0.0956241
-0.171063
-0.0147071
0.0686326
0.0764772
0.029187
0.118273
0.0318144
0.0696556
0.0742829
-0.0297457
-0.081986
-0.161033
-0.168127
-0.0970559
-0.0194277
-0.172257
0.0667565
0.0228452
0.0698337
0.116364
0.0639647
0.0299248
0.0732702
0.134689
0.126131
0.0854555