/*--------------------------------*- C++ -*----------------------------------*\
| =========                 |                                                 |
| \\      /  F ield         | OpenFOAM: The Open Source CFD Toolbox           |
|  \\    /   O peration     | Version:  2012                                  |
|   \\  /    A nd           | Website:  www.openfoam.com                      |
|    \\/     M anipulation  |                                                 |
\*---------------------------------------------------------------------------*/
FoamFile
{
    version     2.0;
    format      ascii;
    class       pointVectorField;
    location    "0.107/fluid";
    object      pointMotionU;
}
// * * * * * * * * * * * * * * * * * * * * * * * * * * * * * * * * * * * * * //

dimensions      [0 1 -1 0 0 0 0];


internalField   nonuniform List<vector> 
23354
(
(0 0 0)
(0 0 0)
(0 0 0)
(0 0 0)
(0 0 0)
(0 0 0)
(0 0 0)
(0 0 0)
(0 0 0)
(0 0 0)
(0 0 0)
(0 0 0)
(0 0 0)
(0 0 0)
(0 0 0)
(0 0 0)
(9.43575e-06 5.43631e-06 -9.86317e-144)
(2.00574e-05 1.05612e-05 -7.98787e-141)
(2.98214e-05 1.53418e-05 7.60646e-134)
(3.65753e-05 1.93993e-05 -6.59541e-130)
(3.97632e-05 2.20374e-05 -1.13693e-126)
(4.02755e-05 2.27699e-05 -2.32809e-124)
(4.01916e-05 2.14231e-05 2.16822e-119)
(4.10758e-05 1.77283e-05 4.0206e-106)
(4.24784e-05 1.15865e-05 4.87878e-93)
(4.22385e-05 3.82431e-06 2.05313e-79)
(3.69951e-05 -2.56991e-06 6.77497e-65)
(2.43169e-05 -4.38416e-06 5.38425e-50)
(9.54731e-06 -2.12882e-06 1.62415e-34)
(6.47076e-07 -1.50569e-07 -1.08375e-21)
(0 0 0)
(1.99056e-05 9.96774e-06 -4.99477e-129)
(4.24986e-05 1.93425e-05 -5.21629e-126)
(6.31807e-05 2.79722e-05 -5.64816e-124)
(7.75182e-05 3.53624e-05 2.61757e-117)
(8.49954e-05 4.05402e-05 -9.19216e-114)
(8.73821e-05 4.24946e-05 -5.21833e-111)
(8.78421e-05 4.0321e-05 -3.60195e-109)
(8.89035e-05 3.32743e-05 1.34906e-103)
(8.95551e-05 2.09131e-05 2.05678e-91)
(8.65098e-05 5.11705e-06 -2.2992e-77)
(7.47034e-05 -8.19321e-06 -7.75863e-64)
(5.05153e-05 -1.19386e-05 -3.76613e-50)
(2.19634e-05 -6.21729e-06 -9.81589e-40)
(1.74021e-06 -4.29181e-07 5.00347e-29)
(0 0 0)
(3.16503e-05 1.2761e-05 1.21171e-116)
(6.79628e-05 2.48791e-05 2.09817e-113)
(0.000101502 3.6016e-05 3.30894e-111)
(0.000125189 4.55671e-05 1.19995e-109)
(0.000139258 5.27988e-05 -3.36831e-103)
(0.000145957 5.61871e-05 8.35219e-100)
(0.00014773 5.38648e-05 3.72696e-97)
(0.000147194 4.43143e-05 2.85517e-95)
(0.00014313 2.66258e-05 1.54363e-90)
(0.00013242 3.88429e-06 -4.85109e-77)
(0.000110713 -1.52601e-05 -1.93145e-64)
(7.49982e-05 -2.09552e-05 1.17968e-54)
(3.4584e-05 -1.19444e-05 1.23238e-41)
(2.95554e-06 -8.22797e-07 6.00218e-28)
(0 0 0)
(0 0 0)
(0 0 0)
(0 0 0)
(0 0 0)
(0 0 0)
(0 0 0)
(0 0 0)
(0 0 0)
(0 0 0)
(0 0 0)
(0 0 0)
(0 0 0)
(0 0 0)
(0 0 0)
(0 0 0)
(9.24269e-06 6.11437e-06 -1.27961e-06)
(1.96319e-05 1.17869e-05 -2.60642e-06)
(2.90211e-05 1.68609e-05 -3.8133e-06)
(3.52381e-05 2.08851e-05 -5.01858e-06)
(3.77016e-05 2.32916e-05 -6.20736e-06)
(3.70738e-05 2.37117e-05 -7.2574e-06)
(3.54206e-05 2.18748e-05 -7.93241e-06)
(3.48118e-05 1.7753e-05 -7.85307e-06)
(3.51425e-05 1.1353e-05 -6.70437e-06)
(3.48737e-05 3.3281e-06 -4.22036e-06)
(3.16994e-05 -3.21068e-06 -8.05003e-07)
(2.34118e-05 -5.1532e-06 2.15685e-06)
(1.20552e-05 -2.98901e-06 2.79086e-06)
(3.06962e-06 -6.6359e-07 1.24402e-06)
(2.42567e-07 -7.51082e-08 1.10618e-07)
(0 0 0)
(1.95551e-05 1.12725e-05 -2.41548e-06)
(4.1553e-05 2.16836e-05 -4.90881e-06)
(6.13558e-05 3.08222e-05 -7.10003e-06)
(7.45014e-05 3.82263e-05 -9.39876e-06)
(8.05414e-05 4.31295e-05 -1.17275e-05)
(8.09941e-05 4.43761e-05 -1.36943e-05)
(7.87974e-05 4.12735e-05 -1.49935e-05)
(7.67374e-05 3.33917e-05 -1.51077e-05)
(7.44777e-05 2.03721e-05 -1.332e-05)
(7.02482e-05 3.77511e-06 -8.96913e-06)
(6.12142e-05 -1.01314e-05 -2.65056e-06)
(4.57549e-05 -1.44873e-05 3.83528e-06)
(2.71453e-05 -9.16985e-06 6.76804e-06)
(8.65182e-06 -2.75528e-06 3.51953e-06)
(-7.35283e-07 -1.12393e-06 5.84467e-07)
(0 0 0)
(3.11526e-05 1.44931e-05 -3.29456e-06)
(6.63425e-05 2.78475e-05 -6.64661e-06)
(9.82564e-05 3.95579e-05 -9.74529e-06)
(0.000120169 4.91525e-05 -1.27988e-05)
(0.00013236 5.59247e-05 -1.57539e-05)
(0.000136476 5.84309e-05 -1.84344e-05)
(0.000134852 5.49834e-05 -2.03466e-05)
(0.000129838 4.43009e-05 -2.07671e-05)
(0.000121293 2.56645e-05 -1.86447e-05)
(0.000107956 1.83565e-06 -1.31681e-05)
(8.87878e-05 -1.85063e-05 -4.59238e-06)
(6.46915e-05 -2.55336e-05 5.62288e-06)
(4.1565e-05 -1.72182e-05 1.17739e-05)
(7.28079e-06 -5.27766e-06 2.1568e-06)
(-6.42624e-06 -4.65999e-06 5.50111e-07)
(0 0 0)
(0 0 0)
(0 0 0)
(0 0 0)
(0 0 0)
(0 0 0)
(0 0 0)
(0 0 0)
(0 0 0)
(0 0 0)
(0 0 0)
(0 0 0)
(0 0 0)
(0 0 0)
(0 0 0)
(0 0 0)
(8.7293e-06 7.97996e-06 -2.37197e-06)
(1.83796e-05 1.51607e-05 -4.79914e-06)
(2.68436e-05 2.10835e-05 -6.97955e-06)
(3.16335e-05 2.52544e-05 -9.20437e-06)
(3.19093e-05 2.69979e-05 -1.13652e-05)
(2.81764e-05 2.62173e-05 -1.33371e-05)
(2.27363e-05 2.29638e-05 -1.45778e-05)
(1.78164e-05 1.76702e-05 -1.44887e-05)
(1.47185e-05 1.04584e-05 -1.23869e-05)
(1.32518e-05 2.03784e-06 -7.90033e-06)
(1.36077e-05 -4.28961e-06 -1.80352e-06)
(1.49215e-05 -5.96638e-06 4.15848e-06)
(1.25885e-05 -3.74806e-06 6.19431e-06)
(5.33278e-06 -1.06124e-06 3.15909e-06)
(5.92537e-07 -2.72233e-07 3.14371e-07)
(0 0 0)
(1.83231e-05 1.48637e-05 -4.56077e-06)
(3.86542e-05 2.81309e-05 -9.21307e-06)
(5.63863e-05 3.87324e-05 -1.33067e-05)
(6.67604e-05 4.63397e-05 -1.74285e-05)
(6.88277e-05 5.0176e-05 -2.15257e-05)
(6.37352e-05 4.94483e-05 -2.51821e-05)
(5.4062e-05 4.38876e-05 -2.78229e-05)
(4.31819e-05 3.37523e-05 -2.82652e-05)
(3.29639e-05 1.86587e-05 -2.49979e-05)
(2.34386e-05 4.98383e-07 -1.72314e-05)
(1.78497e-05 -1.38586e-05 -5.97924e-06)
(2.0619e-05 -1.86282e-05 7.17409e-06)
(2.83329e-05 -1.37512e-05 1.56613e-05)
(1.92316e-05 -7.57961e-06 1.13624e-05)
(-6.19807e-06 -3.5711e-06 2.13265e-06)
(0 0 0)
(2.93e-05 1.9198e-05 -6.27407e-06)
(6.15753e-05 3.60473e-05 -1.24823e-05)
(8.98454e-05 4.95143e-05 -1.82125e-05)
(0.000107529 5.93146e-05 -2.38042e-05)
(0.000113928 6.47018e-05 -2.91574e-05)
(0.000110563 6.46005e-05 -3.40124e-05)
(9.87563e-05 5.77625e-05 -3.76483e-05)
(8.11567e-05 4.4064e-05 -3.86995e-05)
(6.03393e-05 2.28141e-05 -3.50421e-05)
(3.83586e-05 -3.0566e-06 -2.52604e-05)
(2.19481e-05 -2.41066e-05 -1.00229e-05)
(2.21896e-05 -3.09739e-05 8.87938e-06)
(4.0145e-05 -2.14071e-05 2.14962e-05)
(8.82693e-06 -1.14967e-05 6.12337e-06)
(-2.0231e-05 -1.37082e-05 1.06587e-06)
(1.95737e-06 -4.12809e-07 3.15034e-07)
(9.85197e-08 -2.03488e-08 4.26804e-08)
(4.91165e-07 -1.41682e-07 2.00006e-07)
(6.10426e-07 -5.65842e-07 1.75963e-07)
(2.60315e-07 -2.81601e-08 1.48859e-07)
(4.12999e-07 -6.43043e-08 2.40546e-07)
(0 0 0)
(4.21902e-06 -8.56737e-07 2.43999e-34)
(0 0 0)
(2.98103e-07 -9.49241e-08 -5.294e-17)
(0 0 0)
(3.79736e-06 -8.60058e-07 6.91293e-27)
(1.02574e-05 -2.37771e-06 1.2067e-06)
(1.16259e-06 -2.69454e-07 1.20939e-29)
(1.46262e-06 -3.31156e-07 3.6553e-07)
(4.42187e-08 -2.57019e-08 2.03768e-08)
(2.33243e-06 -5.93989e-07 1.45878e-28)
(3.88713e-06 -1.09161e-06 9.96075e-07)
(3.51116e-08 -2.51027e-07 7.72856e-08)
(4.94548e-06 -2.38851e-06 7.75033e-07)
(-1.24007e-06 -1.48035e-06 2.61278e-07)
(0 0 0)
(5.68188e-06 -1.21624e-06 1.25875e-06)
(0 0 0)
(1.07919e-06 -2.0461e-07 4.1342e-07)
(0 0 0)
(-1.34321e-10 5.20243e-09 2.08941e-09)
(6.78725e-06 -1.61502e-06 2.11129e-06)
(9.78928e-07 -2.06467e-07 4.92742e-07)
(5.69131e-06 -1.50736e-06 2.37028e-06)
(4.31858e-06 -8.76273e-07 2.25878e-06)
(2.93437e-07 -2.77227e-07 3.53823e-07)
(3.87872e-07 -1.06426e-07 2.25056e-07)
(2.3405e-06 -1.46069e-06 1.4916e-06)
(1.00816e-05 -4.44313e-06 3.68541e-06)
(-3.73582e-06 -3.32816e-06 6.54945e-07)
(-4.34372e-06 -1.63611e-06 -2.06112e-06)
(7.3934e-06 -7.79535e-06 3.73637e-06)
(-1.32275e-05 -9.43165e-06 3.84401e-07)
(0 0 0)
(1.716e-06 -2.56748e-07 9.75407e-07)
(0 0 0)
(2.21741e-08 -3.25366e-09 7.73226e-09)
(2.12446e-06 -4.53071e-07 1.32917e-06)
(5.72885e-06 -1.38729e-06 3.63885e-06)
(8.93545e-07 -6.10418e-07 3.49099e-07)
(-1.45831e-05 -7.686e-06 -1.98501e-06)
(7.90432e-06 -1.51525e-05 7.82738e-06)
(-2.6858e-05 -1.30326e-05 1.77335e-06)
(4.64854e-06 -9.72496e-07 5.25483e-07)
(5.85294e-07 -1.3892e-07 1.42978e-07)
(4.71133e-06 -1.09375e-06 7.94205e-07)
(2.91092e-06 -6.07259e-07 8.58104e-07)
(-9.8134e-09 1.23915e-08 1.15958e-09)
(2.64469e-07 -6.18959e-08 1.02027e-07)
(1.64681e-07 -2.29563e-08 8.32665e-08)
(2.60341e-06 -6.61262e-07 6.67371e-07)
(9.03534e-08 -7.83634e-08 5.02556e-08)
(6.79645e-07 -3.0437e-07 2.7222e-07)
(1.96174e-06 -6.04011e-07 1.09526e-06)
(4.93664e-06 -1.64961e-06 1.13638e-06)
(-3.41607e-07 -6.62742e-07 9.82998e-08)
(-6.93114e-07 -6.6387e-07 -8.1884e-07)
(4.39168e-07 -2.76292e-06 7.20017e-07)
(1.43429e-06 -2.35033e-07 7.13336e-07)
(1.16565e-08 1.87425e-09 4.88663e-09)
(1.5585e-06 -2.90378e-07 9.41416e-07)
(3.36408e-07 -4.01763e-08 1.99675e-07)
(-9.59552e-06 -4.02369e-06 -2.51585e-06)
(1.80382e-06 -3.21316e-07 1.11376e-06)
(3.63144e-08 -1.01014e-08 9.0541e-09)
(2.57085e-06 -7.7097e-07 1.52871e-06)
(-1.85904e-05 -1.04428e-05 -6.82506e-07)
(1.39477e-06 -2.968e-07 -3.34046e-25)
(0 0 0)
(0 0 0)
(0 0 0)
(0 0 0)
(7.27804e-08 -6.60035e-08 4.07226e-08)
(8.20089e-06 -2.15439e-06 1.42901e-06)
(3.10288e-07 -7.08257e-08 6.81181e-08)
(1.57353e-05 -5.0072e-06 2.88419e-06)
(7.20438e-07 -2.03848e-07 1.5582e-07)
(3.90129e-07 -3.81388e-07 -4.40308e-07)
(-1.19449e-06 -5.73315e-06 1.99101e-06)
(-7.07474e-06 -1.11157e-06 -3.28387e-06)
(-2.45738e-06 -1.21257e-05 5.1245e-06)
(-1.87197e-05 -6.62179e-06 -2.68358e-06)
(2.90784e-07 -6.52038e-08 3.73756e-08)
(-2.6029e-08 1.98515e-08 2.60942e-10)
(2.19376e-07 -5.44502e-08 5.70624e-08)
(7.18822e-09 2.0482e-09 1.01875e-08)
(-1.6621e-08 1.0604e-08 1.37063e-10)
(1.17192e-08 -5.26928e-09 7.4628e-09)
(5.00721e-07 -1.25352e-07 1.12117e-07)
(1.99574e-08 -1.35052e-08 1.08448e-08)
(2.24459e-08 -3.41084e-08 1.1283e-08)
(8.51814e-07 -3.02201e-07 1.23098e-07)
(-1.53438e-08 -8.59387e-08 -1.23026e-08)
(-2.7178e-07 -3.47076e-07 -1.6748e-07)
(-2.41237e-06 -8.31912e-07 -2.47042e-06)
(-3.20711e-06 -4.29673e-07 -7.3312e-07)
(-9.81296e-09 7.44844e-09 -2.8213e-10)
(-7.9626e-09 6.41047e-09 -2.56945e-10)
(-8.41419e-06 -1.53416e-06 -1.65245e-06)
(-1.35065e-05 -2.8844e-06 -3.51346e-06)
(-1.46914e-05 -5.18229e-06 -2.18752e-06)
(-7.359e-09 5.85368e-09 -1.84707e-10)
(-2.13409e-05 -6.18331e-06 -1.05953e-06)
(0 0 0)
(4.01515e-09 5.63131e-10 3.46799e-09)
(0 0 0)
(1.55513e-05 -3.97551e-06 -1.44786e-35)
(4.20451e-07 -1.19258e-07 -7.52528e-21)
(5.91363e-08 -1.57396e-08 -5.1653e-21)
(8.93607e-07 -2.02025e-07 2.07789e-28)
(8.8271e-07 -1.9936e-07 1.32863e-07)
(2.44106e-09 -3.28188e-09 4.45782e-09)
(9.54601e-06 -2.63013e-06 -9.56321e-37)
(2.79736e-05 -8.72057e-06 1.5997e-42)
(2.35545e-05 -7.00274e-06 2.89921e-06)
(1.42763e-06 -3.44463e-07 2.55656e-29)
(1.54766e-07 -3.67406e-08 -1.57496e-20)
(2.02128e-06 -5.10832e-07 8.69766e-29)
(2.34982e-06 -5.96571e-07 3.60723e-07)
(8.44471e-09 -2.81515e-08 7.70351e-09)
(1.57426e-05 -5.32845e-06 -5.52966e-35)
(3.67393e-05 -1.36352e-05 5.35394e-06)
(2.61791e-06 -6.86219e-07 2.84213e-28)
(2.69313e-07 -6.63107e-08 -2.43422e-20)
(3.1848e-06 -1.0061e-06 9.88964e-28)
(3.67824e-06 -1.2155e-06 3.85978e-07)
(-8.49122e-08 -2.28082e-07 2.69843e-08)
(1.9197e-05 -5.69748e-06 4.63487e-06)
(1.71838e-05 -5.40184e-06 5.59565e-06)
(3.46401e-05 -1.30269e-05 9.11891e-06)
(1.40108e-05 -5.12873e-06 7.30929e-06)
(-3.70371e-06 -2.20431e-06 1.4545e-06)
(2.56015e-05 -1.0856e-05 8.73473e-06)
(4.28567e-05 -1.98331e-05 1.71562e-05)
(6.21896e-06 -3.85079e-06 1.35565e-06)
(-3.76197e-07 -2.9348e-06 -9.17909e-07)
(4.11354e-06 -4.54794e-06 8.04863e-07)
(7.67838e-06 -6.54067e-06 2.96961e-06)
(-3.47316e-06 -2.82828e-06 4.95915e-07)
(-5.68229e-06 -1.94805e-06 -1.09811e-06)
(-5.71324e-06 -4.70338e-06 2.91843e-07)
(-9.71943e-06 -6.83297e-06 4.65991e-07)
(4.64014e-06 -5.35019e-06 5.65513e-06)
(1.84605e-05 -1.1371e-05 1.05134e-05)
(2.16845e-05 -9.84806e-06 1.35953e-05)
(-1.48858e-05 -8.75727e-06 1.94552e-06)
(-6.99409e-06 -5.92402e-06 2.32056e-06)
(3.39321e-05 -1.59198e-05 1.72939e-05)
(2.93185e-05 -2.06911e-05 2.30459e-05)
(7.90747e-06 -9.49131e-06 4.85674e-06)
(-6.11446e-06 -8.91462e-06 5.67166e-07)
(1.44611e-06 -9.45552e-06 3.36681e-06)
(8.65489e-06 -1.32945e-05 7.05389e-06)
(-1.65416e-05 -1.19181e-05 5.75749e-07)
(-1.80529e-05 -8.95516e-06 -1.2291e-06)
(-1.88422e-05 -1.6456e-05 4.91478e-07)
(-2.33137e-05 -1.41183e-05 1.48263e-06)
(1.08511e-06 -2.32492e-07 2.11817e-07)
(1.55971e-06 -3.29551e-07 1.37493e-07)
(9.38189e-07 -1.94464e-07 1.47952e-07)
(3.28939e-07 -8.93574e-08 9.93331e-08)
(-4.12653e-09 1.01e-08 8.24071e-09)
(1.77942e-07 -3.4649e-08 6.79533e-08)
(1.22959e-07 -2.03097e-08 5.6731e-08)
(9.35156e-08 -1.19461e-08 4.08861e-08)
(6.32171e-09 -1.58653e-09 1.21081e-08)
(3.72537e-07 -9.63823e-08 1.46608e-07)
(1.17762e-06 -2.93166e-07 3.83346e-07)
(2.01046e-07 -8.93216e-08 1.00151e-07)
(5.91781e-07 -2.08279e-07 2.41463e-07)
(6.08888e-08 -1.77295e-08 2.1856e-08)
(7.08189e-07 -4.2859e-07 2.62451e-07)
(2.03864e-06 -8.27861e-07 5.30387e-07)
(-7.02671e-08 -5.39758e-07 4.81978e-08)
(1.46371e-07 -6.34306e-07 -1.28159e-07)
(1.18074e-07 -7.28036e-08 3.06321e-08)
(-2.37948e-06 2.34893e-07 -2.25204e-06)
(2.13043e-07 -2.55275e-08 1.15782e-07)
(5.3322e-08 -1.28832e-09 3.39961e-08)
(3.00453e-07 -3.27772e-08 1.76559e-07)
(4.11817e-08 -9.16305e-10 2.66945e-08)
(-1.52976e-05 6.43649e-07 -5.29565e-06)
(3.73315e-07 -4.97855e-08 2.20378e-07)
(1.14322e-07 -1.90742e-08 5.79466e-08)
(7.55177e-08 -5.63861e-09 4.65577e-08)
(-3.11011e-05 -3.85791e-06 -4.55263e-06)
(6.3442e-07 -1.31897e-07 -2.00765e-25)
(0 0 0)
(0 0 0)
(3.95491e-07 -1.18629e-07 8.0327e-08)
(5.80341e-07 -1.33661e-07 -8.89541e-21)
(9.61136e-08 -3.43766e-08 6.49131e-08)
(2.51342e-07 -6.40393e-08 6.28141e-08)
(0 0 0)
(0 0 0)
(-2.52874e-09 6.2253e-09 5.25522e-09)
(3.36706e-08 -7.82197e-09 1.29974e-08)
(1.57129e-06 -3.72474e-07 2.35475e-07)
(1.01502e-07 -2.27886e-08 -1.07432e-20)
(9.6243e-07 -2.13399e-07 2.3588e-07)
(6.60835e-07 -1.46329e-07 2.04096e-07)
(2.02016e-06 -4.81777e-07 5.13141e-07)
(7.94816e-09 -1.07765e-08 5.98741e-09)
(1.2446e-08 -6.57451e-09 9.94505e-09)
(1.03404e-07 -3.21964e-08 4.88418e-08)
(7.7456e-08 -4.71004e-08 3.37277e-08)
(9.21498e-08 -3.59136e-08 3.18652e-08)
(3.1059e-06 -8.4836e-07 4.42791e-07)
(2.13417e-07 -5.1155e-08 -1.76836e-20)
(3.23475e-06 -8.65893e-07 8.35769e-07)
(1.73351e-06 -5.26771e-07 5.54011e-07)
(4.49082e-06 -1.34541e-06 1.10923e-06)
(-8.81116e-09 -7.68553e-08 7.21846e-09)
(8.34462e-08 -1.38455e-07 6.48671e-08)
(2.24462e-07 -2.41906e-07 1.33231e-07)
(-8.68196e-08 -4.199e-07 8.63666e-08)
(3.62489e-08 -1.82293e-07 -7.3537e-08)
(5.19619e-06 -2.02575e-06 1.06714e-06)
(9.18456e-07 -9.61593e-07 -4.21888e-07)
(3.98852e-06 -2.56364e-06 1.80238e-07)
(-7.62519e-07 -9.85752e-07 1.40637e-07)
(-1.14179e-06 -6.30767e-07 -3.55776e-07)
(-1.6092e-06 -2.00161e-06 2.13469e-07)
(2.24659e-08 1.13445e-10 1.59739e-08)
(0 0 0)
(0 0 0)
(-6.13538e-09 8.39747e-09 7.9485e-10)
(2.22989e-08 2.46283e-09 1.84904e-08)
(6.44209e-09 3.79356e-09 3.6973e-09)
(-2.3219e-06 -1.01504e-06 -1.54568e-06)
(-7.83189e-06 1.36842e-06 -4.07829e-06)
(-6.8463e-06 -2.58799e-06 -2.33434e-06)
(-3.66237e-06 -5.13356e-06 -6.33007e-07)
(2.34328e-06 -6.19455e-06 1.68791e-06)
(-1.177e-05 -5.29818e-06 -1.6897e-06)
(-1.21048e-05 -1.02692e-05 -1.36792e-07)
(5.84113e-08 -2.28048e-09 3.69227e-08)
(0 0 0)
(0 0 0)
(1.69795e-08 -2.96121e-10 6.37897e-09)
(8.05039e-08 -7.4941e-09 4.71672e-08)
(2.72738e-08 -5.59295e-09 8.46685e-09)
(-1.24172e-05 -5.64938e-06 -2.4013e-06)
(-2.36643e-05 -1.72061e-06 -5.4101e-06)
(-1.70081e-05 -8.9695e-06 -1.3606e-06)
(-8.8811e-06 -1.31397e-05 1.9816e-06)
(-1.00538e-06 -1.34993e-05 4.5983e-06)
(-2.3538e-05 -8.60621e-06 -1.11605e-07)
(-2.56434e-05 -1.59839e-05 1.82445e-06)
(7.25524e-07 -1.50195e-07 6.41992e-08)
(8.85393e-08 -3.22651e-08 2.27318e-08)
(2.39193e-08 -1.83324e-08 2.35136e-08)
(5.05986e-07 -1.68775e-07 1.06342e-07)
(1.20596e-07 -4.31842e-08 4.34182e-08)
(1.66638e-05 -4.46041e-06 1.9976e-06)
(1.21593e-06 -2.7685e-07 1.80343e-07)
(1.17357e-05 -3.38967e-06 2.08149e-06)
(1.15323e-05 -3.24736e-06 3.70927e-06)
(1.94014e-06 -4.7924e-07 2.95152e-07)
(2.33846e-07 -5.387e-08 5.21519e-08)
(4.49431e-08 -1.1991e-08 1.65029e-08)
(3.99079e-07 -9.52425e-08 8.82082e-08)
(9.05347e-07 -2.09792e-07 2.88069e-07)
(5.6383e-09 -6.22414e-09 4.9518e-09)
(2.99798e-05 -9.92965e-06 3.91389e-06)
(2.73645e-06 -7.17775e-07 4.11789e-07)
(1.88509e-05 -7.17484e-06 3.71104e-06)
(2.23408e-05 -8.09118e-06 7.28857e-06)
(3.43024e-06 -1.00377e-06 4.41737e-07)
(6.02759e-07 -1.61679e-07 1.33123e-07)
(1.06125e-07 -5.01726e-08 3.44751e-08)
(7.92922e-07 -2.46231e-07 1.51865e-07)
(1.96142e-06 -6.7359e-07 5.88632e-07)
(2.15932e-09 -4.36137e-08 8.10505e-09)
(3.58973e-06 -1.4169e-06 1.4262e-07)
(4.08276e-06 -3.63972e-06 3.54927e-07)
(7.74832e-07 -3.89228e-07 -3.33578e-09)
(-4.24654e-07 -1.3712e-07 -6.08478e-07)
(-7.4785e-07 -6.0457e-07 -1.67455e-06)
(-3.33098e-07 -7.31762e-07 3.81637e-09)
(3.19738e-08 -6.76071e-10 2.10829e-08)
(3.24923e-06 -3.19977e-06 3.49962e-06)
(1.40785e-05 -7.86555e-06 6.92737e-06)
(3.0025e-05 -1.35601e-05 1.30746e-05)
(-9.5205e-06 -6.46107e-06 1.32932e-06)
(-1.73182e-06 -3.95065e-06 -8.14972e-07)
(-2.53052e-06 -9.07988e-06 3.49383e-06)
(-8.56453e-06 -3.4315e-06 -1.39023e-06)
(-5.18377e-06 -6.80786e-06 -1.7569e-07)
(-1.48258e-05 -7.33033e-06 -1.57537e-06)
(3.62592e-06 -5.35437e-06 1.2911e-06)
(1.62825e-06 -7.6047e-06 2.42491e-06)
(-4.6642e-06 -7.0194e-07 -3.04644e-06)
(-1.14267e-05 1.2842e-06 -4.74787e-06)
(-1.05663e-05 -1.58559e-06 -3.60654e-06)
(-8.80674e-06 -7.55789e-06 9.40739e-08)
(6.48214e-08 -3.52307e-09 4.08731e-08)
(5.84024e-06 -7.89002e-06 6.90796e-06)
(1.99531e-05 -1.43318e-05 1.28783e-05)
(3.1923e-05 -1.67853e-05 1.94238e-05)
(-1.86164e-05 -1.03304e-05 2.27185e-06)
(-7.38835e-06 -1.0949e-05 1.30973e-06)
(-2.07544e-05 -9.35875e-06 -6.07122e-07)
(4.43213e-07 -1.12427e-05 4.03229e-06)
(-1.65228e-05 -4.38447e-06 -3.2456e-06)
(-2.78572e-05 -2.72737e-06 -5.06864e-06)
(-2.19255e-05 -9.02753e-06 -2.34831e-06)
(-2.21147e-05 -1.73862e-05 1.21753e-06)
(7.23311e-07 -1.62288e-07 8.90994e-08)
(5.02294e-07 -1.07082e-07 9.62848e-08)
(5.80834e-07 -1.44442e-07 9.79144e-08)
(5.99506e-09 3.69342e-09 1.19438e-08)
(-2.32747e-08 1.47318e-08 6.0175e-10)
(4.87875e-08 4.17938e-09 1.99735e-08)
(4.61183e-07 -1.01907e-07 1.37453e-07)
(5.05395e-08 -1.04992e-08 2.81341e-08)
(8.81539e-10 1.71261e-09 6.33473e-09)
(7.84686e-09 -2.70969e-09 6.64584e-09)
(1.22243e-08 3.32263e-10 1.20089e-08)
(7.19203e-09 5.85506e-09 1.188e-08)
(-1.21905e-08 8.53797e-09 -1.67657e-10)
(1.64374e-08 -8.60657e-09 9.01157e-09)
(1.57247e-07 -5.69384e-08 7.32464e-08)
(7.46864e-08 -2.44076e-08 2.6972e-08)
(1.45287e-06 -3.9856e-07 4.72619e-07)
(2.2824e-07 -1.46531e-07 1.22761e-07)
(1.05372e-08 -1.85026e-08 6.724e-09)
(2.31531e-08 -2.16016e-08 1.19082e-08)
(1.33994e-08 -5.49743e-08 4.95208e-09)
(1.46453e-07 -3.78044e-07 1.1554e-07)
(9.34617e-08 -9.61516e-08 4.37199e-09)
(1.74191e-06 -9.47625e-07 2.4104e-07)
(-5.15049e-07 -6.81681e-07 -1.12053e-07)
(-2.81793e-08 -1.27219e-07 7.69625e-09)
(-6.54623e-08 -1.38153e-07 -3.83915e-08)
(4.85562e-07 -1.98466e-06 -8.2344e-07)
(-3.09382e-06 -1.15326e-06 -7.00455e-07)
(-1.59129e-06 -5.18571e-07 -4.82885e-07)
(-4.78671e-06 8.50607e-07 -3.22792e-06)
(-3.2847e-06 -3.09774e-06 3.15545e-07)
(-5.49332e-06 -4.36294e-07 -1.138e-06)
(3.87696e-08 5.03823e-10 2.63687e-08)
(-8.59814e-09 6.80959e-09 -2.8717e-10)
(5.02525e-08 -1.68589e-09 3.20984e-08)
(6.78516e-08 -3.99546e-09 4.13059e-08)
(-7.61016e-09 6.08442e-09 -2.20202e-10)
(-1.14059e-05 -3.21365e-06 -2.11113e-06)
(-1.97164e-05 -4.10199e-07 -5.56084e-06)
(-1.52708e-05 -1.37032e-05 -1.02837e-07)
(-1.79615e-05 -6.38695e-06 -1.73927e-06)
(9.43024e-08 -1.19057e-08 5.21336e-08)
(-7.16716e-09 5.63128e-09 -1.53536e-10)
(-2.43468e-05 -3.81231e-06 -3.71992e-07)
(6.55473e-06 -1.66629e-06 2.19992e-31)
(1.24e-05 -3.73902e-06 -7.24808e-36)
(7.71376e-08 -1.7287e-08 -7.97538e-21)
(1.81411e-07 -4.39722e-08 -1.65522e-20)
(2.92882e-07 -7.87195e-08 -2.56024e-20)
(1.92453e-07 -4.40132e-08 -2.24731e-20)
(6.45315e-08 -4.07393e-08 -1.23689e-15)
(1.24659e-07 -2.86575e-08 -1.27058e-20)
(2.34127e-07 -5.60223e-08 -1.96919e-20)
(0 0 0)
(0 0 0)
(-2.65443e-10 -1.22383e-08 8.23402e-09)
(3.55168e-06 -6.96153e-07 1.5031e-06)
(2.1193e-07 -2.91039e-08 1.02117e-07)
(3.3119e-06 -1.05656e-06 2.42875e-06)
(3.8277e-06 -7.91945e-07 2.32477e-06)
(3.26886e-07 -3.56517e-08 1.92117e-07)
(5.76123e-06 -2.88058e-06 4.31022e-06)
(4.71862e-08 -1.57392e-08 7.81284e-09)
(1.37185e-06 -3.06264e-07 1.5864e-07)
(9.12318e-10 3.24535e-10 4.56975e-09)
(1.43548e-07 -3.03441e-08 5.31807e-08)
(1.16094e-07 -2.5364e-08 6.17173e-08)
(5.62593e-10 -3.47454e-11 3.64251e-09)
(5.69746e-10 -1.83422e-10 3.46617e-09)
(5.4941e-10 -2.28932e-10 3.70293e-09)
(4.08675e-10 -1.92687e-09 4.87728e-09)
(-2.89644e-10 -9.78174e-09 6.57019e-09)
(2.64384e-07 -4.2687e-08 1.50551e-07)
(2.78062e-07 -3.09545e-08 1.53277e-07)
(4.04726e-07 -6.73258e-08 2.38253e-07)
(5.57696e-07 -1.37742e-07 2.95016e-07)
(7.46211e-09 -1.51687e-08 1.90799e-08)
(2.07276e-07 -9.16259e-08 9.53771e-08)
(1.59333e-07 -1.0966e-07 7.56885e-08)
(1.53255e-08 -3.75774e-09 4.53755e-09)
(2.04896e-08 -5.00567e-09 5.86876e-09)
(4.04115e-08 -1.07107e-08 1.12947e-08)
(4.82581e-08 -1.361e-08 1.31776e-08)
(5.52771e-08 -3.21856e-08 -3.52309e-09)
(1.84914e-07 -4.90128e-08 2.58902e-08)
(-2.58778e-09 -1.83436e-09 8.68067e-09)
(8.45258e-10 2.61441e-09 9.14954e-09)
(-1.73514e-08 2.01257e-08 6.94234e-10)
(2.019e-08 -5.57702e-09 2.03374e-08)
(-2.28903e-08 4.02276e-09 6.06827e-10)
(3.04958e-07 -1.12767e-07 6.78613e-08)
(1.93894e-08 -2.64823e-09 6.15167e-09)
(1.07276e-07 3.08404e-08 3.59004e-08)
(2.19089e-09 1.62291e-09 8.88833e-09)
(1.27752e-10 9.95867e-10 5.09792e-09)
(1.76663e-08 5.64173e-09 1.52461e-08)
(-1.1282e-08 2.04668e-09 2.08241e-10)
(-1.03657e-08 1.26885e-08 -2.06209e-10)
(-1.46716e-08 1.59197e-08 1.00243e-10)
(-1.62831e-08 2.54773e-09 3.59323e-10)
(-3.19632e-10 -1.42148e-11 3.61837e-09)
(5.23735e-10 -7.16925e-11 3.34421e-09)
(-3.13598e-10 -8.02031e-11 3.46476e-09)
(3.2449e-08 -8.30707e-09 8.99313e-09)
(2.62921e-08 -6.48883e-09 7.4157e-09)
(5.35464e-10 -1.13298e-10 3.33083e-09)
(-2.91333e-10 -1.84845e-10 3.88125e-09)
(-3.08129e-10 -1.22482e-10 3.61815e-09)
(-2.76007e-10 -2.87451e-10 4.21831e-09)
(5.52731e-10 -4.41977e-10 4.00276e-09)
(-2.66112e-10 -4.60912e-10 4.58578e-09)
(5.78255e-08 -2.07416e-08 1.09492e-08)
(5.46025e-08 -1.58813e-08 1.364e-08)
(4.97207e-10 -8.35449e-10 4.36392e-09)
(-8.78748e-10 -1.73251e-09 5.1625e-09)
(-4.34876e-10 -7.76173e-10 4.9156e-09)
(-4.24034e-09 -8.08361e-09 5.18532e-09)
(-8.49027e-09 1.85148e-09 1.20612e-10)
(-7.39827e-09 1.09179e-08 -1.02874e-10)
(-5.6041e-09 9.82167e-09 1.26764e-10)
(-7.03432e-09 1.72037e-09 1.01132e-10)
(-5.66657e-09 1.54242e-09 2.10217e-10)
(-3.77299e-09 8.54618e-09 6.17811e-10)
(-4.49405e-09 9.0967e-09 3.65563e-10)
(-6.20558e-09 1.62755e-09 1.44636e-10)
(-5.32271e-09 1.4552e-09 2.76351e-10)
(-3.3008e-09 8.09689e-09 7.96724e-10)
(-2.807e-09 7.69502e-09 9.31666e-10)
(-5.0334e-09 1.37183e-09 3.31255e-10)
(-2.36282e-09 7.2939e-09 9.69693e-10)
(-4.69893e-09 1.29872e-09 4.16708e-10)
(0 0 0)
(-3.43524e-10 1.70313e-10 -4.69223e-10)
(4.71963e-09 -4.40175e-09 -1.79668e-17)
(0 0 0)
(1.88399e-06 -4.26933e-07 7.88002e-27)
(8.04445e-10 -4.28864e-11 3.45177e-09)
(7.06244e-10 -5.6732e-10 3.04433e-09)
(-1.17337e-09 -5.56458e-09 4.69589e-09)
(0 0 0)
(0 0 0)
(0 0 0)
(4.6525e-07 -8.60837e-08 1.74634e-07)
(0 0 0)
(1.29008e-05 -3.49981e-06 4.58429e-06)
(1.43278e-07 -5.49312e-08 5.7609e-08)
(8.00802e-08 -2.48938e-08 3.4603e-08)
(4.80999e-07 -1.13723e-07 2.62204e-07)
(3.2367e-07 -8.43774e-08 1.68247e-07)
(0 0 0)
(6.07433e-06 -1.37697e-06 2.77122e-06)
(0 0 0)
(0 0 0)
(0 0 0)
(7.28882e-07 -9.65313e-08 4.07865e-07)
(0 0 0)
(9.10205e-06 -2.2376e-06 5.0104e-06)
(1.05831e-05 -3.9817e-06 6.98646e-06)
(1.12961e-05 -3.20244e-06 6.96962e-06)
(-4.84724e-09 -1.0618e-06 1.18723e-06)
(4.7145e-07 -1.64683e-07 2.76926e-07)
(2.40744e-07 -8.57071e-08 9.57242e-08)
(1.1639e-06 -3.17898e-07 7.26058e-07)
(7.38968e-07 -4.25331e-07 3.35304e-07)
(3.19359e-06 -7.0097e-07 5.26642e-07)
(7.27382e-07 -1.04861e-07 3.85548e-07)
(7.79978e-07 -1.22922e-07 4.47105e-07)
(9.99239e-07 -1.67714e-07 6.06612e-07)
(1.24063e-06 -2.9466e-07 7.1222e-07)
(1.54373e-10 -1.74608e-09 4.6852e-09)
(7.57524e-08 -2.81448e-08 -4.32012e-17)
(3.63177e-07 -1.16327e-07 -3.29405e-17)
(3.36529e-07 -1.09264e-07 6.44288e-08)
(3.04194e-07 -7.94085e-08 -4.27947e-17)
(3.85924e-07 -1.31551e-07 -5.37479e-14)
(7.33772e-10 3.92533e-10 8.06757e-09)
(4.04422e-06 -9.21989e-07 3.60482e-07)
(2.4606e-06 -5.36843e-07 -9.94861e-27)
(-1.35737e-10 -6.13382e-12 -1.28754e-10)
(-6.76057e-11 -7.75797e-11 2.84958e-09)
(2.77277e-06 -6.37709e-07 5.64549e-07)
(7.42062e-10 -2.3548e-10 2.92357e-09)
(-6.03768e-10 -9.61044e-13 -2.50845e-10)
(9.53615e-10 -8.75175e-10 3.95798e-09)
(3.1738e-10 -1.52213e-09 3.43195e-09)
(-7.85148e-10 1.09517e-11 -3.61673e-10)
(9.98012e-10 -6.11223e-09 4.01849e-09)
(0 0 0)
(3.15694e-09 4.15094e-10 4.52063e-09)
(0 0 0)
(0 0 0)
(8.48611e-07 -1.77048e-07 2.63723e-07)
(5.14774e-07 -9.09449e-08 2.2109e-07)
(1.26892e-06 -2.20609e-07 5.67338e-07)
(6.09592e-07 -9.25863e-08 2.98285e-07)
(0 0 0)
(-5.0478e-09 1.13965e-08 -8.76901e-10)
(-3.11039e-09 6.49231e-09 1.2589e-09)
(2.61841e-09 5.37356e-09 6.11781e-09)
(3.46811e-09 4.55995e-09 2.97427e-09)
(6.23809e-07 -1.42733e-07 2.74133e-07)
(5.00474e-07 -9.3352e-08 2.44499e-07)
(1.28731e-06 -2.47116e-07 7.21286e-07)
(1.55576e-07 -3.71217e-08 6.78182e-08)
(8.02693e-07 -1.61245e-07 5.15365e-07)
(0 0 0)
(1.5395e-08 -2.32591e-10 1.0343e-08)
(0 0 0)
(0 0 0)
(1.59005e-06 -2.45147e-07 8.5477e-07)
(9.01693e-07 -1.232e-07 5.24217e-07)
(1.78655e-06 -2.81475e-07 1.05887e-06)
(7.63638e-07 -1.15554e-07 4.6651e-07)
(0 0 0)
(-2.21677e-09 8.24101e-09 -1.87743e-10)
(1.96418e-08 -1.76028e-09 7.11928e-09)
(3.48415e-08 -3.50419e-09 1.75892e-08)
(2.44342e-08 -4.15798e-09 8.14622e-09)
(1.83598e-06 -3.54992e-07 1.15037e-06)
(1.03562e-06 -1.79915e-07 6.16028e-07)
(2.38127e-06 -5.91832e-07 1.45254e-06)
(3.64254e-07 -1.795e-07 1.08022e-07)
(1.54428e-06 -6.35816e-07 8.27759e-07)
(-1.19978e-08 1.34703e-08 2.78691e-09)
(-8.10223e-09 1.23101e-08 2.29812e-09)
(-1.04196e-08 1.63019e-08 1.34329e-11)
(-8.35277e-09 1.06431e-08 7.81289e-10)
(1.96134e-08 1.64338e-09 1.2122e-08)
(9.28011e-09 2.97061e-09 4.28001e-09)
(-2.78415e-09 9.3181e-09 -4.73345e-10)
(1.42663e-08 1.08574e-09 5.60581e-09)
(5.5316e-08 -1.16351e-08 2.13792e-08)
(3.11025e-08 -7.5173e-09 8.71007e-09)
(-1.932e-09 7.46446e-09 -7.29142e-11)
(4.08325e-08 -1.25644e-08 9.28048e-09)
(8.4757e-08 -3.78713e-09 3.71889e-08)
(3.14857e-10 -4.69545e-10 3.18639e-09)
(-4.83113e-10 -1.14617e-12 -2.05994e-10)
(1.82438e-09 -1.77979e-09 4.77209e-09)
(-7.14191e-10 -8.8289e-13 -2.98037e-10)
(-5.69402e-09 -2.88587e-10 3.89659e-09)
(0 0 0)
(0 0 0)
(0 0 0)
(9.13186e-09 1.19323e-10 7.15763e-09)
(0 0 0)
(0 0 0)
(0 0 0)
(2.07812e-08 -1.17086e-09 1.31907e-08)
(0 0 0)
(0 0 0)
(0 0 0)
(7.40678e-08 -4.66634e-08 2.92917e-08)
(5.605e-08 -4.92804e-08 3.69703e-08)
(2.90577e-07 -1.60121e-07 1.19275e-07)
(2.86556e-08 -6.06567e-08 2.71268e-08)
(1.65507e-08 -2.15861e-08 1.68597e-08)
(2.38509e-07 -5.43438e-08 5.14853e-08)
(1.14812e-07 -2.73355e-08 3.16111e-08)
(3.18137e-07 -7.3846e-08 6.9201e-08)
(1.34007e-07 -2.96306e-08 1.87012e-08)
(5.96025e-07 -1.63782e-07 1.29147e-07)
(2.71563e-07 -9.0687e-08 7.26914e-08)
(6.88322e-07 -2.02835e-07 1.41235e-07)
(3.14563e-07 -7.73007e-08 4.5761e-08)
(6.01592e-07 -3.89664e-07 -1.54873e-07)
(-3.03471e-07 -5.84128e-08 -6.76381e-07)
(-2.22274e-07 -3.80429e-07 -1.17916e-06)
(3.73372e-07 -1.18097e-07 -8.99598e-08)
(-6.48202e-06 -4.02655e-07 -3.50103e-06)
(-1.25443e-05 1.81058e-06 -5.59778e-06)
(-9.52169e-06 -8.2499e-07 -3.79652e-06)
(-1.9116e-05 -4.79371e-06 -3.46656e-06)
(-3.04611e-05 -2.89705e-06 -6.06437e-06)
(-2.20134e-05 -6.90681e-06 -3.02749e-06)
(1.54451e-07 -4.03724e-08 2.7179e-08)
(4.24172e-07 -9.59704e-08 5.61326e-08)
(1.87985e-07 -4.37865e-08 1.72997e-08)
(1.39739e-07 -3.26362e-08 1.87729e-08)
(-1.78493e-08 9.17703e-09 7.7591e-09)
(-1.02116e-08 1.23482e-08 6.53567e-09)
(-2.61811e-08 1.76899e-08 6.90349e-10)
(-4.38394e-09 4.22488e-09 2.37743e-09)
(2.85431e-07 -7.85849e-08 7.0575e-08)
(2.00204e-07 -4.62333e-08 4.77967e-08)
(3.42462e-07 -9.60767e-08 7.32721e-08)
(1.16146e-07 -6.75751e-09 3.36489e-08)
(1.30465e-07 -4.98614e-08 4.44977e-08)
(8.60874e-09 3.43521e-09 1.17978e-08)
(1.88339e-08 2.98787e-09 1.34127e-08)
(2.70851e-09 1.5821e-09 7.75607e-09)
(6.60189e-09 -7.84043e-10 7.31326e-09)
(2.93607e-09 2.35086e-09 7.62192e-09)
(-1.97795e-08 1.23237e-08 3.61789e-10)
(-2.1709e-08 1.005e-08 2.26143e-09)
(-1.4907e-08 1.25831e-08 2.16995e-09)
(-1.40955e-08 9.39416e-09 -4.28977e-11)
(2.1102e-08 -6.82492e-09 1.03063e-08)
(7.41378e-09 -5.14534e-09 5.89488e-09)
(9.68215e-09 -3.97534e-09 6.94516e-09)
(1.41776e-08 -6.66034e-09 8.28565e-09)
(1.74679e-10 -3.82201e-11 3.68891e-09)
(4.00902e-07 -9.80697e-08 8.79977e-08)
(4.92839e-07 -1.28128e-07 1.0796e-07)
(1.87623e-07 -5.04534e-08 5.27305e-08)
(2.16432e-07 -4.96695e-08 3.08957e-08)
(1.8019e-08 -1.03703e-08 1.00939e-08)
(3.52515e-08 -1.5574e-08 1.58703e-08)
(1.27594e-08 -1.43016e-08 8.17714e-09)
(2.16906e-08 -1.67981e-08 1.16709e-08)
(1.81305e-10 -9.09768e-11 3.7431e-09)
(4.60243e-08 -3.64403e-08 1.77433e-08)
(9.40488e-09 -3.61233e-08 8.54756e-09)
(2.27393e-08 -2.63268e-08 1.21466e-08)
(1.93e-08 -4.32029e-08 9.17279e-09)
(1.65558e-10 -2.1852e-10 4.336e-09)
(7.44062e-07 -2.41487e-07 1.26284e-07)
(7.52844e-07 -3.0518e-07 6.7139e-08)
(2.99907e-07 -1.49447e-07 4.20166e-08)
(3.97989e-07 -1.00844e-07 4.56875e-08)
(-5.22739e-10 -6.52699e-08 -1.39444e-09)
(1.40394e-08 -7.95003e-08 -1.06654e-08)
(-2.56861e-08 -9.69609e-08 -3.62299e-09)
(-3.65738e-08 -1.04692e-07 -2.32863e-08)
(-2.03631e-10 -8.88316e-10 5.07968e-09)
(-3.30819e-07 -3.00416e-07 -3.42946e-07)
(-2.64366e-07 -4.94922e-07 -1.0343e-07)
(-1.41054e-07 -1.66121e-07 -5.93908e-08)
(-8.94458e-07 -6.24661e-07 -3.89227e-07)
(-1.67999e-08 -2.80045e-08 4.04199e-09)