/*--------------------------------*- C++ -*----------------------------------*\
| =========                 |                                                 |
| \\      /  F ield         | OpenFOAM: The Open Source CFD Toolbox           |
|  \\    /   O peration     | Version:  2012                                  |
|   \\  /    A nd           | Website:  www.openfoam.com                      |
|    \\/     M anipulation  |                                                 |
\*---------------------------------------------------------------------------*/
FoamFile
{
    version     2.0;
    format      ascii;
    class       volVectorField;
    location    "0.107/fluid";
    object      U;
}
// * * * * * * * * * * * * * * * * * * * * * * * * * * * * * * * * * * * * * //

dimensions      [0 1 -1 0 0 0 0];


internalField   nonuniform List<vector> 
16421
(
(1.19993 2.24888e-05 2.26224e-05)
(1.19952 6.85833e-05 3.10908e-05)
(1.19906 4.05134e-05 8.50108e-06)
(1.19899 3.75953e-05 1.42661e-05)
(1.19871 3.87435e-05 2.04689e-05)
(1.19829 4.54854e-05 3.28864e-05)
(1.19765 6.05718e-05 5.0807e-05)
(1.19668 9.13859e-05 8.4856e-05)
(1.19508 0.000156999 0.000141931)
(1.19227 0.000314381 0.000253845)
(1.18684 0.000738373 0.000535807)
(1.17431 0.00208556 0.00158255)
(1.13653 0.00689675 0.00670383)
(0.986413 0.0182796 0.0319189)
(0.0647709 0.0218189 0.0498951)
(1.19995 1.50221e-06 2.21894e-05)
(1.19975 3.5042e-05 3.49594e-05)
(1.19943 7.09393e-05 1.31421e-05)
(1.19945 0.000107392 1.59559e-05)
(1.19927 0.00016166 2.1701e-05)
(1.19895 0.000249091 3.20073e-05)
(1.19844 0.000387648 5.04559e-05)
(1.19765 0.000622539 8.24238e-05)
(1.19636 0.00102556 0.000135416)
(1.19424 0.00176948 0.000235548)
(1.19059 0.00325453 0.000473467)
(1.18366 0.0066144 0.00128134)
(1.16825 0.0158269 0.00484561)
(1.12699 0.0460178 0.0213521)
(0.569194 -0.00479157 0.0838291)
(1.19995 4.27585e-06 2.16786e-05)
(1.19974 6.75028e-05 4.12453e-05)
(1.19942 0.000123568 1.85324e-05)
(1.19945 0.00018191 1.91909e-05)
(1.19931 0.000271739 2.40758e-05)
(1.19904 0.000412433 3.2297e-05)
(1.19864 0.000638195 4.91316e-05)
(1.19803 0.00100736 7.62975e-05)
(1.19708 0.0016232 0.000124422)
(1.19559 0.00267953 0.000207164)
(1.19328 0.00452959 0.000383107)
(1.18956 0.00780923 0.000932663)
(1.18244 0.0133391 0.00334246)
(1.1609 0.0200377 0.0152244)
(0.69135 0.0175687 0.0944844)
(1.19995 5.03355e-06 2.11878e-05)
(1.19974 8.20867e-05 4.74464e-05)
(1.19942 0.000146791 2.33178e-05)
(1.19947 0.000213362 2.30821e-05)
(1.19937 0.000319517 2.59273e-05)
(1.1992 0.000483073 3.21338e-05)
(1.19893 0.000741792 4.64975e-05)
(1.19854 0.00115685 6.80712e-05)
(1.19796 0.00182668 0.000109994)
(1.19708 0.00289337 0.000175922)
(1.19577 0.00458107 0.000301453)
(1.19361 0.00713906 0.000655806)
(1.18819 0.0106382 0.00223584)
(1.16424 0.0134617 0.0112131)
(0.67049 -0.00869025 0.0953484)
(1.19995 2.2592e-05 4.92134e-06)
(1.19972 6.83489e-05 6.36951e-05)
(1.19931 4.06948e-05 7.68166e-05)
(1.19925 3.75179e-05 9.41837e-05)
(1.19901 3.89225e-05 0.00013442)
(1.19864 4.41901e-05 0.000204477)
(1.19811 5.966e-05 0.00031974)
(1.19729 8.9371e-05 0.000509126)
(1.19596 0.000151083 0.000827727)
(1.1937 0.000296683 0.00138066)
(1.1895 0.000687629 0.00238842)
(1.18074 0.00191087 0.00437452)
(1.15947 0.00642154 0.00871349)
(1.09836 0.0247177 0.0186687)
(0.843269 0.0945031 0.0226071)
(1.19997 1.19276e-06 5.18628e-06)
(1.19996 3.62375e-05 6.23986e-05)
(1.19969 7.20466e-05 7.46218e-05)
(1.19974 0.000106719 9.26474e-05)
(1.1996 0.00015996 0.000132139)
(1.19934 0.000244364 0.000198785)
(1.19892 0.000378847 0.000309341)
(1.19828 0.000602311 0.000490712)
(1.19726 0.000988962 0.000791085)
(1.19561 0.0016912 0.00130194)
(1.19296 0.00306296 0.00220916)
(1.18877 0.00601789 0.0039098)
(1.18333 0.0130848 0.00723368)
(1.18578 0.0303182 0.013574)
(1.24147 0.0528576 0.0197421)
(1.19997 4.12404e-06 5.12079e-06)
(1.19995 6.85527e-05 6.06574e-05)
(1.1997 0.000124029 7.12593e-05)
(1.19978 0.000180411 8.7969e-05)
(1.19968 0.000267547 0.000124652)
(1.19948 0.000404338 0.00018656)
(1.19917 0.000621904 0.000286318)
(1.1987 0.000976912 0.00044848)
(1.19797 0.00156592 0.000711207)
(1.19689 0.00256422 0.00114416)
(1.19536 0.00427985 0.00188063)
(1.19354 0.00719964 0.00318509)
(1.19277 0.0116806 0.00554141)
(1.19956 0.0155762 0.00986767)
(1.23118 0.0103805 0.0114007)
(1.19997 4.92122e-06 5.19091e-06)
(1.19996 8.26527e-05 5.86285e-05)
(1.19973 0.000145968 6.72521e-05)
(1.19984 0.000211507 8.15437e-05)
(1.19979 0.000314618 0.000114636)
(1.19967 0.000473536 0.000169153)
(1.19949 0.000724275 0.000256121)
(1.19922 0.00112271 0.00039401)
(1.19883 0.00175921 0.00060793)
(1.19828 0.00276818 0.000947533)
(1.19757 0.00432839 0.00149927)
(1.19673 0.00656292 0.00243077)
(1.1956 0.00900893 0.00404193)
(1.19401 0.00757613 0.00699441)
(1.19966 -0.0396461 0.00962714)
(1.19995 2.3079e-05 7.39302e-06)
(1.19972 6.81748e-05 9.00033e-05)
(1.19933 4.0548e-05 0.000121981)
(1.19929 3.7807e-05 0.000157465)
(1.19909 3.85713e-05 0.000226079)
(1.19877 4.29202e-05 0.000344484)
(1.19832 5.71247e-05 0.000536528)
(1.19764 8.4379e-05 0.000851218)
(1.19657 0.000137527 0.00137109)
(1.19477 0.000262148 0.00223663)
(1.19147 0.000603962 0.00368991)
(1.18459 0.00170395 0.00611499)
(1.16686 0.00597285 0.00981856)
(1.10566 0.024275 0.0134035)
(0.835372 0.0864821 0.00936028)
(1.19997 1.14533e-06 7.54695e-06)
(1.19995 3.54773e-05 9.02121e-05)
(1.19971 6.99669e-05 0.00012019)
(1.19978 0.000103155 0.00015538)
(1.19968 0.000154109 0.000222444)
(1.19946 0.000232281 0.000335646)
(1.19913 0.000356136 0.000520436)
(1.19862 0.000559942 0.00082072)
(1.19781 0.000907791 0.00131032)
(1.19655 0.00153083 0.00211178)
(1.19459 0.0027269 0.00342734)
(1.19168 0.00525815 0.00554656)
(1.18833 0.0112755 0.00859366)
(1.19019 0.0271354 0.0110211)
(1.22828 0.0613377 0.00687216)
(1.19997 4.0969e-06 7.51738e-06)
(1.19995 6.77631e-05 8.90308e-05)
(1.19972 0.000121106 0.000116721)
(1.19982 0.000174575 0.00014929)
(1.19975 0.000256651 0.000212016)
(1.1996 0.000384144 0.000315631)
(1.19936 0.000585193 0.000483638)
(1.19899 0.000908346 0.000751381)
(1.19845 0.00143865 0.00118028)
(1.19768 0.0023206 0.00186202)
(1.19667 0.00380798 0.00294151)
(1.19577 0.00627718 0.0046113)
(1.19663 0.00995209 0.00690652)
(1.20459 0.0129655 0.00836817)
(1.2307 0.00885892 0.00320503)
(1.19997 4.78642e-06 7.44857e-06)
(1.19995 8.11973e-05 8.72586e-05)
(1.19974 0.000142452 0.000111952)
(1.19987 0.000204113 0.000140976)
(1.19986 0.000301606 0.00019712)
(1.19977 0.000449957 0.000288261)
(1.19965 0.00068176 0.00043348)
(1.19947 0.00104583 0.000661091)
(1.19922 0.00161658 0.00101467)
(1.1989 0.00250304 0.00155406)
(1.19856 0.00383824 0.00237964)
(1.19835 0.00565449 0.00363063)
(1.1984 0.00727969 0.00541357)
(1.19773 0.00427724 0.00703368)
(1.19417 -0.0459507 0.00491726)
(0.235814 -0.052087 0.124427)
(1.1042 0.0559289 0.025749)
(1.16553 0.250883 0.0594629)
(1.09125 0.0242748 0.0287675)
(0.950565 0.0602964 0.0331011)
(1.17535 0.0405725 0.0239796)
(1.1948 0.0904133 0.0349731)
(0.37474 -0.179762 0.0472215)
(0.868252 0.0593109 0.00471404)
(1.2225 0.123896 0.0165644)
(1.44635 0.121439 -0.0246474)
(0.692145 0.00870174 0.0937878)
(1.24446 0.0827314 0.0238378)
(1.38856 0.0764563 -0.0015175)
(1.25896 0.0269506 0.0305779)
(1.34016 0.0174468 0.0327046)
(0.681466 -0.0187717 0.0940228)
(1.25837 0.013019 0.0302874)
(1.33381 0.00692053 0.0346057)
(1.23668 -0.0271289 0.0249551)
(1.35945 -0.0601267 0.0232526)
(1.206 -0.0511028 0.0216847)
(1.35942 0.0139844 -0.0325782)
(1.23576 0.0798729 0.0272701)
(1.38633 0.0456293 -0.0038076)
(0.836245 0.0857526 0.00689162)
(1.21894 0.100377 0.00893227)
(1.38852 0.0848347 -0.000258747)
(1.35138 0.0815775 -0.0171355)
(1.19738 -0.0501536 0.00757521)
(1.33385 0.0479108 -0.0146129)
(1.21468 0.0955582 0.0088461)
(1.3768 0.071189 -0.00236595)
(1.33245 0.0630616 0.00355991)
(1.43478 0.135559 -0.439479)
(-1.53588 0.315999 -1.18585)
(0.630865 0.0223951 0.036326)
(1.20679 0.105822 -0.13325)
(0.570037 0.0187467 0.0155935)
(1.06635 0.117917 0.0509959)
(1.15741 0.0255392 0.016027)
(1.08701 0.0307826 0.0298782)
(1.18491 0.033384 0.0208343)
(1.21642 0.0678508 0.0314445)
(1.20085 0.0214116 0.016446)
(1.23443 0.0266577 0.028708)
(1.38059 0.0571567 0.0525272)
(0.687824 0.0319177 0.0935144)
(1.30527 0.0880803 0.109371)
(1.39849 0.108688 0.0609788)
(1.30174 0.0615885 0.0769274)
(1.08869 0.0187248 0.0289116)
(1.16282 0.0124525 0.0125437)
(1.07973 -0.00035825 0.0246645)
(1.20243 0.0164607 0.0154176)
(1.23479 0.0149778 0.0279406)
(1.19754 0.00713392 0.0121672)
(1.21492 -0.0128608 0.0231227)
(1.36392 0.0029999 0.0328829)
(0.691169 -0.00529628 0.093864)
(1.29248 0.0168242 0.0534921)
(1.36828 0.0123455 0.0382449)
(1.28692 0.00641241 0.0493756)
(1.07088 -0.000490439 0.0218587)
(1.19538 0.00677496 0.0110169)
(1.19972 -0.0204376 0.0207285)
(1.24108 -0.0407996 0.0529683)
(1.3401 -0.0926411 0.0414691)
(1.25226 0.00438926 -0.0392736)
(1.21642 -0.0164661 0.00904499)
(1.29035 0.021339 -0.034203)
(1.24025 0.00939463 0.0109564)
(1.26909 0.00440154 0.00965451)
(1.22226 -0.0265484 0.00943688)
(1.30254 -0.0220112 0.00738979)
(1.19713 -0.0140743 0.00949674)
(1.19806 0.00431144 0.00772744)
(1.19825 -0.0216854 0.00827018)
(1.22946 -0.0727409 0.00536459)
(1.20173 -0.0515526 0.0108056)
(1.22605 -0.0937114 0.00823083)
(1.25608 0.00425743 -0.00933365)
(1.21522 -0.0227057 0.00393349)
(1.2904 -0.00607271 -0.00595254)
(1.19588 -0.0192992 0.00614661)
(1.21716 -0.0817343 0.00303343)
(1.19397 -0.0486023 0.0079529)
(1.21511 -0.0863119 0.00647913)
(1.23337 0.127613 0.178241)
(0.789087 -0.00212544 0.0556007)
(-0.0931655 -0.231111 0.280359)
(0.646561 0.0510419 0.044736)
(1.22395 0.0783177 0.0795572)
(0.86197 0.116127 0.0900051)
(1.01245 0.0324332 0.113459)
(1.62924 0.221484 -0.363153)
(2.00668 0.228821 -0.0137518)
(0.242389 0.0926935 0.094883)
(1.46441 0.42486 -0.554792)
(-1.63364 0.34914 -0.959003)
(1.29995 0.0529365 0.0908556)
(1.28531 0.215391 0.0388904)
(1.41438 0.130517 0.0424497)
(1.61511 0.40608 -0.376507)
(1.50978 0.0741489 -0.0457976)
(1.70277 0.200838 -0.106087)
(1.46121 0.149371 0.0279399)
(1.24176 0.514177 0.0444092)
(0.0961087 0.0740247 -0.0112258)
(1.94137 0.152179 -0.0246549)
(1.91244 0.240005 0.0392181)
(1.37884 0.356495 -0.0539682)
(0.0991106 0.109708 0.14823)
(1.41509 0.0646238 0.0403501)
(1.47869 0.0240061 -0.0600583)
(1.44512 0.111336 0.0337231)
(1.4194 0.0656819 0.0188138)
(1.3762 0.0440723 0.0455526)
(0.688425 0.0371812 0.0948121)
(1.29461 0.0303794 0.0552608)
(1.29874 0.0452038 0.0638474)
(1.3692 0.0286201 0.0377665)
(1.40927 0.0399237 0.0352834)
(1.38009 0.0474937 0.00673477)
(1.40544 0.0103219 0.0166822)
(1.39906 0.035421 0.0321725)
(1.39493 0.0091456 0.0284601)
(1.37728 -0.0175091 0.0118256)
(1.39768 0.00470306 0.0336097)
(1.37506 0.0346982 0.00544004)
(1.36497 -0.016145 0.0382499)
(0.68866 0.0036738 0.0943558)
(1.26684 -0.0198378 0.0492373)
(1.28289 -0.00859521 0.052931)
(1.35702 -0.0497954 0.0334871)
(1.39714 -0.0234605 0.0359781)
(1.41891 -0.0122369 0.0199994)
(1.37823 -0.0233824 0.0194345)
(1.40737 -0.0533815 0.0312513)
(1.40943 -0.0223633 -0.0280172)
(1.39655 -0.103661 0.03037)
(1.20666 -0.0330689 0.0353942)
(1.23854 -0.097638 0.0157885)
(1.24794 -0.0652886 0.0228976)
(1.37491 0.101201 -0.0808542)
(1.31547 -0.10746 0.00359717)
(1.33542 -0.059682 -0.00169151)
(1.34618 0.372162 -0.000811351)
(0.0738286 0.0732029 0.0199403)
(1.94088 0.139913 0.00215693)
(1.3344 0.397025 0.0184406)
(1.92899 0.126573 -0.022619)
(0.0825877 0.0720391 -0.0179252)
(1.33927 0.374147 0.0084364)
(0.0795965 0.0714617 -0.0169484)
(1.91814 0.118135 -0.0173666)
(1.92668 0.118834 0.00696874)
(1.33365 0.372944 0.00644324)
(0.0782626 0.0714103 0.0117944)
(1.30681 -0.068945 -0.00423339)
(1.34215 0.0355722 -0.0199253)
(1.29819 -0.0977936 0.00336211)
(1.19655 -0.0436461 0.00470435)
(1.21971 -0.0895379 0.00587251)
(1.22191 -0.0784754 0.00213341)
(1.34029 0.0686653 -0.00204712)
(1.29012 -0.091163 0.0038758)
(1.29557 -0.0767095 -0.00306467)
(1.32622 0.369574 0.010406)
(0.0787637 0.0712523 0.0127344)
(1.91567 0.11429 0.0123689)
(1.33193 0.370111 0.00524606)
(1.90669 0.114186 -0.0130467)
(0.0786683 0.0712159 -0.0157058)
(1.32404 0.367772 0.00773148)
(1.90441 0.1127 0.0168002)
(0.0783826 0.0712263 0.0141599)
(1.28858 -0.0808893 -0.00112341)
(1.32696 0.0553698 -0.0129485)
(1.28393 -0.0867546 0.00552105)
(1.3241 0.0618175 0.00598584)
(1.28167 -0.0821712 0.00182699)
(1.18221 0.047848 0.250344)
(0.451655 0.0480422 0.226651)
(1.32448 0.093912 0.2988)
(0.428946 -0.00398289 0.258941)
(0.962058 0.0783064 0.0260045)
(1.17895 0.0379741 0.0156845)
(1.21109 0.0713517 0.0252811)
(1.10426 0.0243673 0.0139745)
(0.949891 0.0744439 0.0111899)
(1.18335 0.0363993 0.0129041)
(1.19988 0.0804447 0.0115222)
(1.23963 0.27352 -0.00832961)
(0.283357 0.0849575 0.0090967)
(1.25191 0.193613 0.0607239)
(0.843038 0.0818201 0.00544182)
(1.24675 0.302406 0.0595396)
(1.21888 0.184315 0.00151099)
(0.299233 0.0833034 -0.00773827)
(1.32408 0.00708821 -0.0184054)
(1.23031 0.0209851 0.0120358)
(1.24977 0.00746237 -0.0408451)
(1.23454 0.0669022 0.00973021)
(1.32968 0.0443321 0.00305303)
(1.24001 0.0224651 0.0114674)
(1.27075 0.011374 0.0107964)
(0.949934 0.0747924 0.0121099)
(1.18372 0.0354162 0.0120173)
(1.19745 0.0772576 0.0106787)
(1.2234 0.275258 0.00998016)
(0.289927 0.0825116 0.00238018)
(1.2155 0.18246 0.0135105)
(0.834003 0.0861109 0.00919541)
(1.22698 0.275272 0.0112406)
(1.21238 0.182295 0.0120928)
(0.290055 0.0822469 -0.00215594)
(1.31875 0.0324177 -0.00482336)
(1.22936 0.0209732 0.00354969)
(1.25464 0.0105097 -0.00971501)
(1.14128 0.0529675 0.214782)
(0.269312 0.0490175 0.112999)
(0.137754 -0.134025 -0.0165443)
(0.658362 0.0270535 0.206745)
(1.2468 0.0695969 0.324511)
(0.56469 0.00955321 0.13426)
(0.690819 0.0765389 0.137009)
(1.23029 0.0911004 0.0883398)
(1.06094 0.0852248 0.105105)
(1.01832 0.0828566 0.0484082)
(1.26237 0.0854926 0.148644)
(1.38102 0.152523 0.282206)
(1.22152 0.0640079 0.067889)
(0.830621 0.178017 0.0628737)
(1.6468 0.18663 0.0619274)
(1.68999 0.0978242 -0.235359)
(1.58997 0.185004 -0.132945)
(1.73853 0.0694597 -0.0854808)
(1.27017 0.418835 0.222837)
(0.865458 0.13622 0.0316522)
(0.324503 0.0834624 -0.00931924)
(1.20485 0.179012 -0.0332118)
(1.40571 0.214501 0.219252)
(1.25811 0.247676 -0.0888116)
(0.209183 0.0940233 0.0617819)
(1.32077 0.123205 0.0847827)
(1.40481 -0.00388367 -0.0162935)
(1.65662 0.171254 -0.0243495)
(1.36385 0.157927 -0.0192427)
(1.64047 0.131632 -0.00734849)
(1.34003 0.0350697 0.0333914)
(1.42403 0.251801 -0.0621951)
(1.57892 0.0846268 0.0461955)
(1.65814 0.0528284 -0.256262)
(1.52818 0.187766 0.0178391)
(1.69329 -0.00652038 -0.112453)
(1.65097 0.0150529 0.00555879)
(1.55926 0.0516353 -0.0718672)
(1.57217 0.00743281 -0.0666231)
(1.64077 0.055038 0.00217022)
(1.64025 0.0420814 0.00246122)
(1.56348 -0.00761893 -0.0698707)
(1.55705 0.0423602 -0.0715213)
(1.64553 -0.0041034 0.00362525)
(1.65703 -0.04287 0.00496151)
(1.6031 0.0307981 -0.0553549)
(1.5715 -0.0297232 -0.0727009)
(1.68559 -0.00209104 0.0153718)
(1.75839 -0.0811976 0.0196933)
(1.59799 -0.0281251 -0.0645461)
(1.70538 -0.00163616 -0.0413786)
(1.67699 -0.0677886 0.0178676)
(1.38553 0.225579 -0.0117944)
(1.63391 0.132708 -0.00764711)
(1.32048 0.0964069 0.0150073)
(1.40719 0.0949447 -0.00728674)
(1.37439 0.199449 0.0257267)
(1.63055 0.145536 -0.0116289)
(1.33179 0.13676 -0.00456491)
(1.23475 0.279506 0.0193376)
(0.838859 0.0877472 0.0124399)
(0.292384 0.0826789 -0.0047436)
(1.21668 0.184071 0.00890557)
(1.22438 0.184617 0.0224527)
(1.22955 0.277066 0.0054606)
(0.290245 0.0831081 0.00150221)
(1.37278 0.207964 0.0083712)
(1.38192 0.0643702 -0.0039681)
(1.61723 0.137142 -0.00492453)
(1.3164 0.128745 0.00252353)
(1.62316 0.129073 -0.00399979)
(1.31314 0.1146 0.00434532)
(1.37059 0.218109 0.000976464)
(1.36181 0.213606 0.00528199)
(1.61345 0.12958 -0.000418749)
(1.30696 0.119628 0.00238552)
(1.37746 0.0797661 0.00208132)
(1.36537 0.209713 0.00487581)
(1.60672 0.132845 -0.00087501)
(1.30708 0.124641 0.00503664)
(0.288844 0.082182 0.00450112)
(1.60312 0.129924 0.00299989)
(1.09587 0.0875157 0.254152)
(0.0751898 0.0405267 -0.2529)
(1.26339 0.315724 -0.0679021)
(0.279447 -0.00781853 0.169659)
(0.39521 0.31985 0.239317)
(1.32729 0.39556 0.519877)
(0.0605861 -0.766366 2.54009)
(1.13768 0.109861 0.411335)
(0.47818 0.641904 -1.58314)
(0.331672 0.0826104 0.305466)
(1.18337 0.165394 -0.581708)
(0.984068 0.0642904 0.242211)
(0.372985 0.545157 -1.69014)
(1.33906 0.105192 0.162476)
(0.432989 -0.00343135 0.066865)
(1.54024 0.043295 0.161392)
(1.37666 0.0956325 0.213461)
(1.49418 0.0764635 0.153276)
(0.353262 0.0203906 0.0722774)
(1.34543 0.0717358 0.139494)
(1.5076 0.0743718 0.136275)
(0.336995 0.00520863 0.0746212)
(1.50817 0.0675669 0.147087)
(1.34161 0.0774858 0.129237)
(0.337524 0.0402937 0.0747325)
(1.35163 0.0254615 0.120525)
(0.333646 0.0154529 0.0761683)
(1.52547 0.0145835 0.126686)
(1.35416 0.0117534 0.121136)
(1.5228 0.022518 0.125658)
(0.333749 -0.0125574 0.0760897)
(1.35425 -0.00274238 0.119732)
(1.52625 0.0109173 0.123503)
(0.334831 -0.0167659 0.0760162)
(1.52613 -0.000549935 0.124367)
(1.35369 0.013758 0.119016)
(0.334009 0.0107158 0.0761791)
(1.29189 -0.0479441 0.120929)
(0.326102 -0.0257042 0.0757468)
(1.50466 -0.0677099 0.130075)
(1.31497 -0.0570865 0.123424)
(1.48105 -0.109552 0.121323)
(0.305077 -0.0643336 0.0753674)
(1.43394 -0.17104 0.106567)
(0.293403 -0.0463509 0.074736)
(0.995152 0.0719182 0.247817)
(0.0148919 -0.144877 -0.048573)
(1.0637 -0.039707 0.707604)
(0.134288 -0.079644 0.26941)
(1.0963 0.0502907 0.418046)
(0.984264 0.0554787 0.332066)
(0.373374 -0.0477005 0.157463)
(0.46424 0.514328 0.0500453)
(0.0538024 0.065579 -0.22399)
(1.30851 0.382113 -0.24735)
(0.833352 0.798397 0.0702295)
(2.16488 0.438047 -0.215171)
(1.7012 0.447812 -0.160346)
(0.735315 0.738948 0.0123721)
(1.75108 0.360436 -0.0857811)
(1.97297 0.297548 -0.0696101)
(1.6312 0.347859 -0.0834631)
(0.827366 0.771138 0.281467)
(1.3259 0.884677 -0.105805)
(1.15698 0.376443 -0.467474)
(1.22036 0.261754 0.00547371)
(1.55279 0.394006 -0.0746577)
(0.415156 0.503631 0.0479195)
(1.24113 0.281487 -0.00419436)
(0.0171856 0.102443 -0.105377)
(1.11808 0.498067 -0.0574984)
(0.483887 0.541944 0.232465)
(1.39792 0.040718 -0.13397)
(-0.451505 -1.25198 -0.297015)
(1.57491 0.0379205 -0.332547)
(0.421384 -0.903436 1.32615)
(1.70129 -0.0308122 -0.538382)
(1.40203 -0.134986 -0.339862)
(0.683527 2.22017 0.154517)
(1.15129 0.17168 0.171196)
(0.552697 0.0621875 0.0353016)
(1.54755 0.0417772 0.146095)
(1.36206 0.195356 0.343006)
(1.30373 -0.0144351 0.245925)
(0.52872 0.508293 0.270151)
(1.42831 0.0968957 -0.284512)
(1.18851 0.314674 -0.474745)
(0.870101 0.253488 -1.69194)
(1.35169 0.135728 0.102025)
(0.536124 0.724188 0.147006)
(1.51042 0.254938 0.0993115)
(1.85798 0.314067 -0.190942)
(1.55008 0.300049 -0.0689425)
(1.48805 0.227269 -0.138626)
(1.6333 0.216317 0.110865)
(1.60648 0.0589273 0.0743116)
(1.38283 0.10452 0.298016)
(1.72862 0.0835525 -0.0408312)
(1.52463 0.308563 0.218767)
(1.19641 0.347404 -0.403003)
(1.44211 0.221552 0.0392221)
(1.46201 0.318754 0.37683)
(0.412629 0.465433 -0.0772345)
(0.912441 0.358734 0.0265635)
(0.0919689 0.0773858 -0.00914009)
(0.888875 0.349426 -0.0370706)
(0.416383 0.475109 0.0344058)
(0.768324 0.696817 -0.105611)
(1.9786 0.093054 0.0422591)
(1.58907 0.362294 -0.00453258)
(1.67118 0.337347 0.030668)
(0.748486 0.705132 0.0559529)
(0.763921 0.71024 -0.107723)
(1.4862 0.423243 0.0114661)
(2.0055 0.0760983 0.0156048)
(0.771888 0.769562 0.283228)
(1.67128 0.309677 0.00816819)
(0.416212 0.48088 -0.0960847)
(0.829415 0.518386 0.0544969)
(0.0558128 0.0762639 -0.0307423)
(0.474182 0.55227 0.292092)
(0.822868 0.454086 -0.0521113)
(1.57969 0.0802414 0.0531407)
(1.59653 0.0400625 0.0997922)
(1.54011 0.073531 0.116687)
(1.68723 0.011157 -0.0456414)
(1.61005 0.073004 0.0492049)
(1.56623 0.0921927 -0.0288979)
(1.50294 0.129399 0.0472129)
(1.63237 0.0966682 0.0221838)
(1.61287 0.0731857 0.0495828)
(1.562 0.0765362 0.100293)
(1.55859 0.0692768 0.110411)
(1.62761 0.091955 0.0363545)
(1.35513 0.0276669 0.121904)
(0.335004 -0.00795622 0.0759087)
(1.52304 0.0377575 0.125543)
(1.35253 0.0396936 0.120259)
(1.52586 0.0310504 0.128176)
(0.334411 0.0196218 0.076044)
(1.34869 0.0560833 0.123009)
(1.5194 0.0532026 0.1346)
(0.334374 0.0261303 0.0757566)
(1.35166 0.0484926 0.126049)
(1.51862 0.0542784 0.129664)
(0.335835 -0.00297495 0.0755885)
(1.64134 0.0721718 0.00727355)
(1.57916 0.0376444 -0.0425511)
(1.65014 0.0477858 0.0161681)
(1.56489 0.063725 -0.065069)
(1.64974 0.0196255 0.0234277)
(1.58118 0.0385836 0.0882812)
(1.58484 0.0313593 0.0907826)
(1.642 0.049878 0.0202771)
(1.64029 0.0675535 0.025623)
(1.57659 0.0554382 0.0976463)
(1.64471 0.0507863 0.0317256)
(1.57626 0.0556669 0.092754)
(1.64175 0.0357984 0.0203946)
(1.58416 0.0141278 0.0894225)
(1.58115 0.0232299 0.0884647)
(1.64603 0.000977845 0.021641)
(1.64555 -0.0191688 0.00146361)
(1.56128 0.0420347 -0.0724293)
(1.56048 -0.0200204 -0.0728536)
(1.64715 0.0361725 0.00158255)
(1.64679 -0.0142837 0.0188471)
(1.58608 0.0122015 0.0862413)
(1.58526 -0.00144476 0.0870909)
(1.64861 0.0286202 0.0187386)
(1.34321 -0.0348992 0.12013)
(0.330906 -0.0408043 0.0758864)
(1.52074 -0.0361198 0.125514)
(1.33966 -0.022371 0.120243)
(1.52179 -0.0347351 0.125481)
(0.334738 -0.00655715 0.0759043)
(1.34611 -0.0027776 0.122137)
(1.52228 -0.0132742 0.12618)
(0.333822 0.00578601 0.076001)
(1.34826 -0.0162972 0.120943)
(1.52205 -0.00883738 0.127817)
(0.333233 -0.026048 0.0761443)
(1.65517 0.020621 0.00841053)
(1.56053 -0.0217921 -0.070876)
(1.64478 -0.0268799 0.00403037)
(1.57103 0.0339834 -0.0646742)
(1.65758 -0.0420292 0.0210701)
(1.58981 -0.037705 0.0884369)
(1.58479 -0.0355856 0.0880109)
(1.68119 -0.0156534 0.0291153)
(1.65506 0.0106252 0.0251693)
(1.58195 -0.0136034 0.0889931)
(1.64593 -0.0229427 0.0214402)
(1.58431 -0.00817547 0.0904938)
(1.74084 -0.0481799 -0.0405769)
(1.47283 -0.220854 0.0316448)
(1.63279 -0.120259 -0.0393229)
(1.73934 -0.09897 0.0344334)
(1.57423 -0.0716928 0.0937211)
(1.56912 -0.131336 0.0867492)
(1.67303 -0.0732301 0.0328441)
(1.85535 -0.112573 -0.0530878)
(1.77735 0.0174092 -0.0701426)
(1.67616 -0.0650732 -0.0574553)
(1.8223 -0.136667 -0.0216554)
(1.54248 -0.210219 0.0705862)
(1.58043 -0.0676527 -0.00837415)
(1.59619 -0.0550671 0.00038031)
(1.62288 -0.0242679 0.040009)
(1.61604 -0.029412 -0.0442314)
(1.62126 -0.00356573 -0.0183341)
(1.63429 0.0137161 -0.00805158)
(1.57963 -0.0881291 0.0375198)
(1.3103 -0.259497 -0.000519119)
(1.57211 -0.0929143 -0.0345455)
(0.414262 0.475455 -0.0290287)
(0.88537 0.400296 0.0165075)
(0.0764426 0.0716307 -0.0268667)
(0.885855 0.390671 0.00358868)
(0.413966 0.479062 0.0384349)
(0.751653 0.702057 -0.0163117)
(1.58522 0.357935 0.00903087)
(1.9458 0.102061 -0.0072405)
(0.739446 0.704647 0.0241433)
(1.60979 0.336747 0.00355662)
(0.753692 0.700333 -0.0312109)
(1.58654 0.348131 -0.0054367)
(1.94072 0.110021 0.0227428)
(1.60429 0.340422 0.0109317)
(0.744608 0.699646 0.0175587)
(0.414192 0.471678 -0.0152962)
(0.890842 0.375898 0.00882635)
(0.085117 0.0721102 0.00232026)
(0.897701 0.373093 -0.00730321)
(0.412285 0.472045 0.0024863)
(0.411482 0.470342 0.000447203)
(0.884137 0.377036 0.00929626)
(0.0805163 0.0714719 0.0106673)
(0.888843 0.376427 2.56407e-05)
(0.409646 0.46912 -0.00227116)
(0.745909 0.697064 -0.0147629)
(1.92394 0.113562 0.0193091)
(1.57924 0.342061 -0.00325882)
(1.58529 0.339901 0.010395)
(0.740814 0.69502 0.0134166)
(0.745075 0.697183 0.00509204)
(1.58701 0.342749 0.00483828)
(1.92512 0.108552 -0.0110392)
(0.741827 0.698095 -0.00786337)
(1.58851 0.336439 0.00223119)
(0.41122 0.471136 -0.0108202)
(0.886276 0.381037 -0.00130986)
(0.0791961 0.0712037 -0.0195368)
(0.4111 0.471984 0.0096841)
(0.887335 0.378107 0.0116455)
(1.55589 -0.0861649 0.0322508)
(1.29663 -0.255561 -0.00201174)
(1.298 -0.255311 0.0111704)
(1.55322 -0.0862852 -0.0294019)
(1.59767 -0.00485024 -0.0222119)
(1.60498 -0.00313444 0.0142728)
(1.55611 -0.0704713 -0.0152864)
(1.30517 -0.244708 0.00124889)
(1.2999 -0.24485 0.00782836)
(1.56362 -0.0692047 0.0117014)
(1.59898 -0.0214039 0.0376306)
(1.59621 -0.0213352 -0.0369697)
(1.54619 -0.0748008 -0.018665)
(1.29484 -0.246966 0.000875309)
(1.55006 -0.0743888 0.0175671)
(1.2918 -0.246724 0.00404003)
(1.58817 -0.0170347 0.0345627)
(1.56756 0.123988 -0.0382434)
(1.5694 0.123149 0.0354241)
(1.5862 -0.0164671 -0.0320664)
(1.58811 -0.00915032 -0.0254679)
(1.57228 0.128968 0.0227449)
(1.5919 -0.00871856 0.0222813)
(1.56925 0.128768 -0.0325448)
(1.54562 -0.0824729 0.0289094)
(1.28988 -0.251924 2.57416e-05)
(1.29063 -0.252166 0.00755883)
(1.54384 -0.0821411 -0.0249589)
(0.408644 0.468018 -0.00583913)
(0.882848 0.377119 -0.00121503)
(0.0789846 0.0711259 -0.0170053)
(0.882787 0.375475 0.0129752)
(0.409489 0.469286 0.00621448)
(0.739912 0.693133 0.0104252)
(1.57817 0.338571 0.00621944)
(1.91252 0.111253 -0.0118303)
(0.740198 0.694681 -0.0101149)
(1.57623 0.336032 0.00172638)
(0.740568 0.69338 -0.0108684)
(1.57046 0.337537 0.000509662)
(1.91132 0.113112 0.0183334)
(1.57439 0.337445 0.0106143)
(0.736817 0.690805 0.0138194)
(0.409066 0.468142 0.00435152)
(0.880496 0.375314 0.0135656)
(0.0790564 0.0712603 0.013164)
(0.883731 0.375551 0.00188351)
(0.407166 0.466264 -0.00267072)
(1.56874 0.335905 0.00995994)
(0.737467 0.6914 -0.00869057)
(0.880429 0.37527 0.00309914)
(0.407756 0.466969 0.00650973)
(1.5382 -0.0796943 0.0282058)
(1.28435 -0.248901 0.0041261)
(1.28573 -0.249398 0.00753415)
(1.53557 -0.0793234 -0.0205781)
(1.58109 -0.0107246 -0.0264725)
(1.56504 0.128416 0.0296197)
(1.56263 0.128958 -0.0338763)
(1.584 -0.0108506 0.0278359)
(1.53922 -0.0768022 -0.0194162)
(1.28878 -0.247763 0.00325076)
(1.28677 -0.247326 0.00395255)
(1.54208 -0.0767729 0.0223491)
(1.58028 -0.0135369 0.0338207)
(1.55905 0.12816 -0.0359722)
(1.56175 0.127415 0.035109)
(1.57748 -0.0129551 -0.0279564)
(1.28292 -0.247131 0.00775594)
(1.53361 -0.0773452 0.0270802)
(1.55699 0.130297 0.0334679)
(1.57536 -0.0107794 0.0325076)
(0.00641444 -0.0452872 0.0196448)
(0.110162 -0.135923 0.0494636)
(0.265413 -0.014387 0.159607)
(0.367061 -0.218226 0.292754)
(0.17271 -0.140181 0.359826)
(1.29375 0.514193 -0.15817)
(0.706399 0.307854 -0.0555295)
(0.915635 -0.0414073 -0.136138)
(0.919334 0.051741 -0.138589)
(1.02744 0.040507 -0.151635)
(1.0414 0.104581 -0.14783)
(1.08092 0.197494 0.216025)
(-0.00371435 -0.513988 -0.0507912)
(0.325539 0.68204 0.200815)
(1.38471 0.169188 0.0930447)
(1.19478 0.26388 0.399561)
(1.46859 -0.0845886 -0.120826)
(0.339675 1.79047 0.11049)
(1.3832 0.420828 -0.171537)
(1.1909 0.401528 -0.166798)
(1.37513 0.351417 -0.236072)
(1.1792 0.438263 -0.105099)
(1.4175 0.437456 -0.227993)
(1.59296 0.363654 -0.306369)
(0.371141 0.381229 0.0418925)
(1.13471 0.465133 -0.103356)
(0.492663 0.237037 -0.00780643)
(1.20835 0.518368 -0.0544914)
(0.8121 -0.0643804 -0.0164234)
(0.748241 0.0598613 -0.0794857)
(0.762803 -0.0555192 -0.0738791)
(0.79526 0.0688572 -0.0172063)
(0.912508 0.050223 -0.139017)
(0.925559 -0.0421431 -0.136071)
(0.796029 0.0710378 -0.017241)
(0.753245 -0.0539808 -0.0753644)
(0.75539 0.0621081 -0.0774748)
(0.806842 -0.0645261 -0.0148818)
(0.893247 -0.0308325 -0.0239687)
(0.824389 0.0929411 -0.0754862)
(0.834248 -0.000976371 -0.0782852)
(0.914699 0.0914542 -0.0158683)
(0.991264 0.0843884 -0.143791)
(0.998157 0.0151681 -0.145342)
(0.980328 0.0812253 -0.0153583)
(0.861769 0.0213507 -0.0830843)
(0.873889 0.111167 -0.073612)
(0.927088 -0.0199319 -0.027345)
(0.884255 0.00664141 0.214299)
(0.904543 0.0171629 0.182538)
(0.96764 -0.0831312 0.206745)
(0.819102 0.00734456 0.166167)
(0.868603 0.0429286 0.187661)
(0.894821 0.0310553 0.166034)
(0.895619 0.0386795 0.169516)
(0.859836 0.0501104 0.185919)
(0.91122 0.0769372 -0.140602)
(0.937887 0.0635512 -0.140953)
(0.87015 0.0161369 0.183201)
(0.905271 0.00857965 0.16494)
(0.861827 0.00385062 0.182727)
(0.90689 0.00198368 0.168931)
(0.874144 -0.0145668 0.183134)
(0.910802 -0.00889083 0.165089)
(0.911049 -0.00442297 0.16969)
(0.865061 -0.0017089 0.182177)
(0.915327 0.0571098 -0.138577)
(0.9269 -0.0348024 -0.137026)
(0.844964 -0.0956678 0.186819)
(0.915345 -0.0810944 0.170363)
(0.851258 -0.083949 0.18699)
(0.916198 -0.132066 0.175108)
(1.16446 0.912249 -0.0522698)
(1.68656 0.311052 -0.197412)
(1.14389 0.396287 0.321616)
(1.42984 0.290104 -0.108936)
(1.28622 0.593143 0.0301809)
(1.41933 0.382909 0.0387391)
(1.35525 0.866787 0.201388)
(1.02737 -0.183632 0.20796)
(0.948461 -0.000629018 0.17447)
(1.03831 -0.0852605 0.213258)
(0.916124 -0.024061 0.147873)
(1.0636 0.179132 0.0927253)
(0.914927 0.0632518 0.146181)
(0.917512 0.0507132 0.127426)
(0.967636 0.200461 0.0825102)
(1.12185 0.806122 -0.0819784)
(1.28698 0.520451 0.0400921)
(1.28602 0.467748 0.126613)
(1.09549 0.622128 0.0646806)
(1.08993 0.936597 0.25137)
(1.10872 0.53931 0.0955909)
(1.43246 0.420123 0.0339358)
(1.20075 0.769457 -0.0576097)
(1.41663 0.349494 -0.000266256)
(1.22498 0.393792 -0.0348352)
(1.46075 0.396565 -0.0192011)
(1.23416 0.369469 -0.0126734)
(1.53077 0.379351 0.0235707)
(1.16565 0.806722 0.0281567)
(0.702472 0.0730719 0.0948366)
(0.882798 0.0705848 0.158275)
(0.745886 0.0248366 0.138849)
(1.00311 0.185138 0.105908)
(0.827111 0.0574331 -0.0261476)
(0.740407 0.076856 -0.0833842)
(0.777278 0.039636 -0.0775099)
(0.75539 0.0807353 -0.0271763)
(0.871929 0.0358128 0.0957876)
(0.857197 0.0283166 0.146609)
(0.858326 0.0385633 0.149958)
(0.860979 0.0506541 0.0907368)
(0.873224 0.0077232 0.183199)
(0.906125 0.00730108 0.164948)
(0.863668 0.0204013 0.18212)
(0.910581 0.0118831 0.169378)
(0.86937 0.0430135 0.185083)
(0.899704 0.0336478 0.166487)
(0.860612 0.0339312 0.185989)
(0.904256 0.0224494 0.169619)
(0.782147 0.0697897 -0.0218509)
(0.766706 -0.0141382 -0.0727577)
(0.82293 -0.0059552 -0.0170846)
(0.755537 0.0632519 -0.0808641)
(0.898213 -0.00948977 0.0927379)
(0.876764 0.00495402 0.147033)
(0.878593 0.010426 0.150805)
(0.9013 0.0224766 0.0897938)
(0.873448 0.0370318 0.092409)
(0.870217 0.0323329 0.148315)
(0.899997 0.0205157 0.0938015)
(0.866901 0.0189866 0.150152)
(0.929224 0.000173422 -0.134435)
(0.923193 0.0573865 -0.140468)
(0.889156 0.0186925 0.0916735)
(0.877302 0.00764726 0.147103)
(0.873423 0.000215772 0.150085)