/*--------------------------------*- C++ -*----------------------------------*\
| =========                 |                                                 |
| \\      /  F ield         | OpenFOAM: The Open Source CFD Toolbox           |
|  \\    /   O peration     | Version:  2012                                  |
|   \\  /    A nd           | Website:  www.openfoam.com                      |
|    \\/     M anipulation  |                                                 |
\*---------------------------------------------------------------------------*/
FoamFile
{
    version     2.0;
    format      ascii;
    class       volVectorField;
    location    "0.107/fluid";
    object      U_0;
}
// * * * * * * * * * * * * * * * * * * * * * * * * * * * * * * * * * * * * * //

dimensions      [0 1 -1 0 0 0 0];


internalField   nonuniform List<vector> 
16421
(
(1.19993 2.25074e-05 2.26096e-05)
(1.19951 6.84563e-05 3.09709e-05)
(1.19906 4.04637e-05 8.49876e-06)
(1.19899 3.75517e-05 1.42434e-05)
(1.19872 3.86956e-05 2.04347e-05)
(1.19829 4.54342e-05 3.28333e-05)
(1.19766 6.05165e-05 5.07221e-05)
(1.19668 9.13017e-05 8.47198e-05)
(1.19508 0.000156807 0.000141707)
(1.19228 0.000313976 0.000253436)
(1.18685 0.000737365 0.000534876)
(1.17433 0.00208252 0.00157963)
(1.13658 0.00688807 0.00669379)
(0.98651 0.0182766 0.0319092)
(0.0645165 0.0218026 0.0499195)
(1.19995 1.47944e-06 2.21781e-05)
(1.19975 3.50854e-05 3.48431e-05)
(1.19943 7.08996e-05 1.31339e-05)
(1.19945 0.000107341 1.59321e-05)
(1.19927 0.000161582 2.16668e-05)
(1.19895 0.00024898 3.19581e-05)
(1.19845 0.000387492 5.03749e-05)
(1.19765 0.000622337 8.22975e-05)
(1.19636 0.00102535 0.000135207)
(1.19425 0.00176936 0.000235177)
(1.1906 0.00325473 0.000472666)
(1.18367 0.0066154 0.00127896)
(1.16829 0.0158288 0.00483717)
(1.12712 0.0460193 0.0213253)
(0.569793 -0.0061512 0.0839946)
(1.19995 4.25299e-06 2.16718e-05)
(1.19973 6.75821e-05 4.11314e-05)
(1.19941 0.000123492 1.85161e-05)
(1.19945 0.000181814 1.91651e-05)
(1.19931 0.000271595 2.40413e-05)
(1.19905 0.000412221 3.2251e-05)
(1.19865 0.000637889 4.90605e-05)
(1.19803 0.00100694 7.61896e-05)
(1.19708 0.00162265 0.000124244)
(1.19559 0.00267888 0.000206863)
(1.19328 0.00452903 0.000382512)
(1.18957 0.00780914 0.00093104)
(1.18246 0.0133394 0.00333688)
(1.16094 0.0200348 0.0152064)
(0.691388 0.0175685 0.0944931)
(1.19994 5.01875e-06 2.11837e-05)
(1.19973 8.21929e-05 4.73336e-05)
(1.19942 0.000146696 2.3296e-05)
(1.19947 0.000213247 2.30526e-05)
(1.19938 0.000319337 2.58916e-05)
(1.1992 0.0004828 3.20895e-05)
(1.19893 0.000741368 4.64381e-05)
(1.19854 0.00115622 6.79833e-05)
(1.19796 0.00182571 0.000109853)
(1.19708 0.00289189 0.0001757)
(1.19578 0.00457886 0.00030108)
(1.19362 0.00713587 0.000654899)
(1.18821 0.010634 0.00223279)
(1.16428 0.0134597 0.0112025)
(0.670541 -0.00865387 0.0953607)
(1.19995 2.26101e-05 4.86854e-06)
(1.19971 6.82201e-05 6.36797e-05)
(1.19931 4.06468e-05 7.66654e-05)
(1.19925 3.74742e-05 9.40326e-05)
(1.19901 3.88758e-05 0.000134215)
(1.19865 4.41425e-05 0.000204181)
(1.19811 5.96046e-05 0.000319309)
(1.19729 8.92897e-05 0.000508481)
(1.19597 0.00015091 0.000826747)
(1.19371 0.000296312 0.00137921)
(1.18951 0.000686715 0.00238625)
(1.18076 0.0019081 0.00437135)
(1.1595 0.00641276 0.00870851)
(1.09842 0.0246966 0.0186626)
(0.843422 0.0945251 0.0227731)
(1.19997 1.16427e-06 5.13004e-06)
(1.19995 3.62827e-05 6.23789e-05)
(1.19969 7.20049e-05 7.44736e-05)
(1.19974 0.00010667 9.2498e-05)
(1.1996 0.000159886 0.000131938)
(1.19934 0.000244257 0.000198495)
(1.19892 0.000378701 0.000308915)
(1.19828 0.000602131 0.00049008)
(1.19726 0.000988791 0.00079015)
(1.19562 0.00169117 0.00130057)
(1.19296 0.00306344 0.0022072)
(1.18878 0.00601978 0.00390712)
(1.18333 0.0130896 0.0072291)
(1.18578 0.0303243 0.0135547)
(1.24138 0.0528206 0.0197181)
(1.19997 4.10105e-06 5.05988e-06)
(1.19994 6.86326e-05 6.06346e-05)
(1.1997 0.000123952 7.11151e-05)
(1.19978 0.000180318 8.78238e-05)
(1.19968 0.000267408 0.000124458)
(1.19948 0.000404135 0.000186279)
(1.19917 0.000621614 0.000285906)
(1.1987 0.000976518 0.000447878)
(1.19798 0.00156543 0.000710338)
(1.19689 0.00256372 0.00114295)
(1.19536 0.00427972 0.00187912)
(1.19355 0.00720101 0.00318386)
(1.19279 0.0116866 0.00554214)
(1.19956 0.0155948 0.00987317)
(1.23112 0.0104181 0.0114138)
(1.19997 4.90516e-06 5.12464e-06)
(1.19995 8.27585e-05 5.86025e-05)
(1.19972 0.000145874 6.71105e-05)
(1.19984 0.000211395 8.14043e-05)
(1.19979 0.000314445 0.000114452)
(1.19967 0.000473272 0.000168888)
(1.19949 0.000723871 0.000255734)
(1.19923 0.0011221 0.000393449)
(1.19883 0.0017583 0.000607144)
(1.19829 0.00276685 0.000946521)
(1.19758 0.00432655 0.00149828)
(1.19674 0.00656076 0.00243118)
(1.19562 0.00900829 0.00404915)
(1.19406 0.00759054 0.00702944)
(1.19973 -0.0394522 0.00976906)
(1.19995 2.30979e-05 7.29941e-06)
(1.19971 6.80423e-05 8.99907e-05)
(1.19932 4.04999e-05 0.000121751)
(1.19929 3.77607e-05 0.00015721)
(1.19909 3.85272e-05 0.000225728)
(1.19877 4.28808e-05 0.000343976)
(1.19832 5.70731e-05 0.000535769)
(1.19764 8.4305e-05 0.000850078)
(1.19657 0.000137406 0.00136935)
(1.19477 0.000261843 0.002234)
(1.19148 0.00060319 0.00368596)
(1.1846 0.00170151 0.00610909)
(1.16688 0.00596443 0.00981014)
(1.10573 0.0242503 0.0133957)
(0.835575 0.0864474 0.00935935)
(1.19997 1.11462e-06 7.44898e-06)
(1.19995 3.552e-05 9.01957e-05)
(1.1997 6.99261e-05 0.000119962)
(1.19978 0.000103109 0.000155128)
(1.19968 0.00015404 0.000222097)
(1.19946 0.00023218 0.000335145)
(1.19913 0.000356005 0.00051969)
(1.19862 0.000559789 0.0008196)
(1.19781 0.000907676 0.00130864)
(1.19655 0.00153094 0.00210926)
(1.19459 0.00272773 0.0034236)
(1.19169 0.00526105 0.00554112)
(1.18833 0.0112829 0.00858611)
(1.19018 0.0271475 0.0110128)
(1.22824 0.061337 0.00686272)
(1.19997 4.06944e-06 7.4137e-06)
(1.19994 6.78392e-05 8.90119e-05)
(1.19971 0.000121032 0.000116497)
(1.19982 0.000174486 0.000149044)
(1.19975 0.000256521 0.000211679)
(1.1996 0.000383957 0.000315144)
(1.19936 0.000584928 0.000482915)
(1.199 0.000908002 0.000750304)
(1.19846 0.00143825 0.00117868)
(1.19768 0.00232033 0.00185967)
(1.19667 0.00380845 0.00293818)
(1.19578 0.00628044 0.00460696)
(1.19664 0.00996498 0.00690236)
(1.20461 0.0130082 0.00836948)
(1.23064 0.0089398 0.00321309)
(1.19997 4.7668e-06 7.33883e-06)
(1.19995 8.13022e-05 8.72369e-05)
(1.19974 0.000142359 0.000111735)
(1.19987 0.000204008 0.000140739)
(1.19986 0.000301445 0.000196798)
(1.19978 0.000449713 0.000287795)
(1.19965 0.000681393 0.000432795)
(1.19947 0.00104528 0.00066008)
(1.19922 0.00161579 0.00101319)
(1.1989 0.00250194 0.00155193)
(1.19857 0.00383692 0.00237683)
(1.19836 0.00565377 0.00362768)
(1.19843 0.00728413 0.0054141)
(1.19783 0.00431754 0.00705768)
(1.19442 -0.0454694 0.00506086)
(0.235384 -0.0522459 0.124518)
(1.10436 0.0559558 0.0257294)
(1.16664 0.250837 0.0592908)
(1.09131 0.0242571 0.028759)
(0.950581 0.0602601 0.0331095)
(1.17537 0.0405707 0.0239428)
(1.19473 0.0904844 0.0347954)
(0.374409 -0.180027 0.0467702)
(0.868471 0.059282 0.004688)
(1.22234 0.12406 0.0162721)
(1.44632 0.121323 -0.0247621)
(0.69218 0.00869018 0.0937968)
(1.24436 0.0827593 0.0236605)
(1.38846 0.0764391 -0.00148263)
(1.25888 0.0269492 0.03056)
(1.34002 0.0174505 0.0327333)
(0.681513 -0.018732 0.0940341)
(1.2583 0.0130345 0.030288)
(1.33367 0.00690193 0.0346442)
(1.23663 -0.0270156 0.0250162)
(1.35909 -0.0600154 0.0232894)
(1.20603 -0.0509602 0.0217958)
(1.35907 0.0139839 -0.0325334)
(1.23569 0.0797945 0.0272713)
(1.38627 0.045597 -0.00376879)
(0.836444 0.0857211 0.00689918)
(1.2189 0.100361 0.00893065)
(1.38844 0.0847591 -0.000248419)
(1.35098 0.0815585 -0.0171444)
(1.19758 -0.0497454 0.00772932)
(1.33302 0.0478631 -0.01466)
(1.21465 0.0955462 0.00883561)
(1.37675 0.0711181 -0.00236523)
(1.33155 0.0629582 0.00344324)
(1.43889 0.133158 -0.444364)
(-1.53942 0.336901 -1.18872)
(0.630793 0.0221526 0.0369554)
(1.20301 0.105773 -0.133994)
(0.570801 0.0186832 0.0162547)
(1.06659 0.117685 0.0508852)
(1.15746 0.0255282 0.0160075)
(1.08709 0.0307499 0.0298423)
(1.18493 0.0333835 0.0208014)
(1.21638 0.0678528 0.0313147)
(1.20085 0.0214155 0.0164367)
(1.23438 0.0266556 0.0286913)
(1.38027 0.0571644 0.0525047)
(0.687905 0.0317644 0.0935264)
(1.30494 0.0877982 0.108993)
(1.398 0.109387 0.0606033)
(1.30155 0.0614458 0.076822)
(1.08876 0.0187204 0.0288775)
(1.16286 0.0124558 0.0125308)
(1.0798 -0.000333833 0.0246396)
(1.20243 0.0164717 0.0154157)
(1.23474 0.0149938 0.0279403)
(1.19755 0.00715263 0.0121857)
(1.21491 -0.012789 0.0231725)
(1.36373 0.003038 0.0328589)
(0.691208 -0.00527253 0.0938727)
(1.29234 0.016823 0.0534487)
(1.36809 0.0123417 0.0382283)
(1.28678 0.00643363 0.0493301)
(1.07096 -0.000472893 0.021841)
(1.1954 0.00678674 0.0110421)
(1.19976 -0.0203668 0.0208071)
(1.241 -0.0407373 0.0529851)
(1.3399 -0.0925319 0.041532)
(1.25216 0.00437494 -0.0392598)
(1.21638 -0.0163171 0.00912596)
(1.28996 0.0214726 -0.0342072)
(1.24018 0.00946267 0.0109662)
(1.26894 0.00437688 0.00964703)
(1.22224 -0.0262414 0.00952392)
(1.30191 -0.0218857 0.00736661)
(1.19721 -0.0139805 0.00959918)
(1.19814 0.00434702 0.00775728)
(1.19846 -0.0214841 0.00837823)
(1.22945 -0.0723411 0.00555265)
(1.20184 -0.0512902 0.0109561)
(1.22605 -0.0931701 0.00842856)
(1.25594 0.00423026 -0.00933727)
(1.21522 -0.0223491 0.00401172)
(1.28971 -0.00597881 -0.00597912)
(1.19612 -0.0190643 0.00624436)
(1.21718 -0.0807327 0.00322185)
(1.19427 -0.0480395 0.0080615)
(1.21513 -0.0851438 0.00663321)
(1.23288 0.127828 0.178372)
(0.788936 -0.00211602 0.0556408)
(-0.0912685 -0.229059 0.281003)
(0.646127 0.0508955 0.0450822)
(1.22132 0.0781688 0.0785525)
(0.861965 0.116653 0.0900227)
(1.01224 0.0324702 0.113604)
(1.63196 0.220733 -0.36445)
(2.0061 0.228744 -0.0145393)
(0.242577 0.0926549 0.0954498)
(1.46971 0.426566 -0.561422)
(-1.66799 0.35505 -0.980635)
(1.29902 0.0535691 0.0899334)
(1.27716 0.217648 0.0335193)
(1.41362 0.131695 0.042085)
(1.61759 0.406092 -0.375317)
(1.50976 0.0739599 -0.046048)
(1.70207 0.200232 -0.106755)
(1.46105 0.149869 0.0279325)
(1.24068 0.513855 0.0461826)
(0.0961839 0.074083 -0.0110989)
(1.9416 0.151959 -0.0248628)
(1.91372 0.239728 0.0387333)
(1.37904 0.356592 -0.0534891)
(0.098857 0.109695 0.14886)
(1.41479 0.0646629 0.040387)
(1.47859 0.023723 -0.0600852)
(1.44488 0.111787 0.0334998)
(1.41915 0.0657455 0.0190991)
(1.37594 0.044053 0.0455032)
(0.688463 0.0371037 0.0948226)
(1.29446 0.030351 0.0552031)
(1.29857 0.0451312 0.0637752)
(1.369 0.0286273 0.0377397)
(1.409 0.0399242 0.0352928)
(1.37984 0.0474898 0.00685809)
(1.40519 0.0103265 0.0168845)
(1.39882 0.0354329 0.0321904)
(1.39469 0.00918265 0.0284757)
(1.37702 -0.0175041 0.0119587)
(1.39745 0.0046994 0.0336388)
(1.37477 0.0347155 0.00553922)
(1.36477 -0.0161086 0.0382574)
(0.688699 0.0037039 0.0943653)
(1.26672 -0.0197851 0.049213)
(1.28276 -0.008556 0.0529094)
(1.35683 -0.0497059 0.033489)
(1.39689 -0.0234271 0.0360288)
(1.41854 -0.0121584 0.0201092)
(1.37793 -0.0233416 0.0195872)
(1.40711 -0.0532916 0.0312916)
(1.40905 -0.0223006 -0.0279063)
(1.39629 -0.103552 0.0304522)
(1.20665 -0.0329745 0.0354815)
(1.2385 -0.0973572 0.0159436)
(1.24786 -0.0651134 0.0230191)
(1.37466 0.101159 -0.0808104)
(1.31526 -0.107182 0.003724)
(1.3352 -0.059536 -0.00160509)
(1.34607 0.372183 -0.000721773)
(0.0738704 0.0732557 0.02007)
(1.94121 0.139698 0.00204534)
(1.33426 0.396863 0.0187972)
(1.9292 0.126307 -0.0226391)
(0.0826445 0.0720968 -0.017899)
(1.33918 0.374095 0.00848335)
(0.0796521 0.0715181 -0.0169448)
(1.91834 0.117862 -0.0173722)
(1.9269 0.11858 0.00698181)
(1.33354 0.37293 0.00644892)
(0.0783192 0.0714663 0.0118391)
(1.30658 -0.0685987 -0.00410177)
(1.34159 0.0355786 -0.0199253)
(1.29787 -0.0972853 0.00349919)
(1.19671 -0.0433187 0.00486653)
(1.21973 -0.0886906 0.00607175)
(1.22192 -0.0777917 0.00234215)
(1.33966 0.0686338 -0.00211518)
(1.28963 -0.0904173 0.00399606)
(1.2952 -0.0761305 -0.00293005)
(1.32612 0.369547 0.0104007)
(0.0788209 0.0713084 0.0127591)
(1.91587 0.114031 0.0123967)
(1.33183 0.370083 0.0052422)
(1.9069 0.113916 -0.013057)
(0.0787265 0.0712714 -0.0157069)
(1.32394 0.367747 0.00772501)
(1.90462 0.112437 0.0168248)
(0.0784407 0.0712819 0.0141792)
(1.28803 -0.0800751 -0.0010124)
(1.32587 0.0551981 -0.0130215)
(1.28324 -0.0857911 0.0055959)
(1.32295 0.0615808 0.00585153)
(1.28093 -0.0811524 0.0018823)
(1.183 0.044812 0.252105)
(0.451529 0.0479042 0.227087)
(1.3233 0.0926722 0.299545)
(0.429752 -0.00411891 0.259576)
(0.96221 0.0782988 0.0260999)
(1.17895 0.0379742 0.015663)
(1.21107 0.0713141 0.0252508)
(1.10433 0.0243427 0.0139658)
(0.950052 0.0744055 0.0111932)
(1.18333 0.0363969 0.0128923)
(1.19986 0.0804348 0.0115162)
(1.23959 0.273503 -0.00835592)
(0.283495 0.0849754 0.00920212)
(1.25176 0.193665 0.0609213)
(0.843236 0.0817946 0.00544581)
(1.24648 0.302473 0.0596683)
(1.21877 0.184285 0.0014237)
(0.299345 0.083307 -0.0077062)
(1.32402 0.007048 -0.0183877)
(1.23024 0.0210152 0.0120323)
(1.24967 0.00748782 -0.0408488)
(1.2345 0.0668946 0.00973141)
(1.3296 0.0442787 0.00306236)
(1.23994 0.0225116 0.0114708)
(1.27061 0.0113888 0.0107909)
(0.950093 0.0747512 0.0121064)
(1.18372 0.0354147 0.0120083)
(1.19742 0.0772502 0.0106681)
(1.22334 0.275232 0.0099765)
(0.290047 0.0825171 0.00237938)
(1.21539 0.182414 0.0134992)
(0.834208 0.0860755 0.00919429)
(1.22692 0.275244 0.0112335)
(1.21228 0.182249 0.0120849)
(0.29018 0.0822523 -0.00213912)
(1.31869 0.0323768 -0.00482139)
(1.22929 0.0210296 0.00355064)
(1.25452 0.0105252 -0.0097133)
(1.14098 0.0529805 0.21507)
(0.268737 0.0489005 0.113052)
(0.137724 -0.134414 -0.0165555)
(0.658046 0.0268483 0.207064)
(1.24611 0.0689556 0.32492)
(0.564109 0.00982257 0.134296)
(0.690471 0.0764833 0.137207)
(1.23074 0.0912331 0.0881428)
(1.06934 0.0849382 0.103761)
(1.01873 0.0826153 0.0483868)
(1.26225 0.0850685 0.148562)
(1.38093 0.153298 0.28153)
(1.22163 0.0639644 0.0678716)
(0.830996 0.178125 0.0625872)
(1.64712 0.186164 0.0606437)
(1.68997 0.0988238 -0.236181)
(1.59049 0.18555 -0.134095)
(1.73902 0.0694153 -0.086612)
(1.26894 0.419684 0.224292)
(0.865462 0.136465 0.0322732)
(0.3246 0.0834416 -0.0091804)
(1.20467 0.178998 -0.03378)
(1.40564 0.215343 0.221093)
(1.25834 0.247479 -0.0892728)
(0.209373 0.0941786 0.0627051)
(1.32011 0.123514 0.0854018)
(1.4047 -0.00384829 -0.0161742)
(1.65635 0.171157 -0.0243695)
(1.36381 0.157935 -0.0192392)
(1.64112 0.131496 -0.00691601)
(1.33987 0.035341 0.0338655)
(1.42411 0.251636 -0.0619647)
(1.57846 0.0852715 0.0468509)
(1.6583 0.0545942 -0.25631)
(1.52851 0.190395 0.018599)
(1.69358 -0.00616432 -0.113788)
(1.65095 0.0150582 0.00553714)
(1.55904 0.0516146 -0.0719177)
(1.57196 0.00740883 -0.0666851)
(1.64075 0.0550614 0.00214355)
(1.64021 0.042101 0.00243557)
(1.56323 -0.00762358 -0.069931)
(1.5568 0.0423447 -0.0715737)
(1.64549 -0.00409737 0.00359775)
(1.65693 -0.0428458 0.00494036)
(1.60274 0.0308683 -0.0554268)
(1.57118 -0.0296976 -0.0727404)
(1.68547 -0.00200218 0.0153418)
(1.75828 -0.0812174 0.019693)
(1.59769 -0.0280479 -0.0645445)
(1.705 -0.0015424 -0.0414191)
(1.67687 -0.0677201 0.0178706)
(1.38542 0.225522 -0.0117588)
(1.63396 0.132524 -0.00756893)
(1.32041 0.0964179 0.0150827)
(1.40711 0.0948698 -0.00728587)
(1.3742 0.199467 0.025802)
(1.6304 0.145409 -0.0116206)
(1.33172 0.136725 -0.00455864)
(1.23466 0.279481 0.0193437)
(0.839057 0.0877177 0.0124644)
(0.292504 0.0826853 -0.00472256)
(1.21658 0.184031 0.00889994)
(1.22426 0.18458 0.022464)
(1.22949 0.277051 0.00546595)
(0.290365 0.0831149 0.00151642)
(1.37267 0.207917 0.00837336)
(1.38186 0.0643063 -0.00396152)
(1.61712 0.136999 -0.00492307)
(1.31634 0.128707 0.0025334)
(1.62308 0.12892 -0.00399304)
(1.31309 0.114582 0.00434881)
(1.37048 0.218062 0.000991993)
(1.36171 0.213555 0.00528161)
(1.61335 0.129443 -0.00041941)
(1.30691 0.119599 0.0023807)
(1.3774 0.0796881 0.00208266)
(1.36527 0.209662 0.00486931)
(1.60662 0.132698 -0.000876344)
(1.30703 0.124604 0.0050367)
(0.288969 0.0821871 0.00449887)
(1.60302 0.129785 0.00299826)
(1.09911 0.0861507 0.254738)
(0.0761157 0.0403797 -0.252443)
(1.26795 0.31441 -0.0719912)
(0.280504 -0.00776543 0.170106)
(0.397785 0.308977 0.245188)
(1.3198 0.412554 0.523168)
(0.19099 -0.53713 2.66985)
(1.13515 0.108978 0.4133)
(0.491816 0.578884 -1.41703)
(0.337691 0.0752745 0.309244)
(1.192 0.162546 -0.588092)
(0.989731 0.0654823 0.236286)
(0.40121 0.496657 -1.60623)
(1.33877 0.104701 0.162134)
(0.432067 -0.00485185 0.0670918)
(1.5398 0.0440269 0.160764)
(1.37608 0.0948352 0.212377)
(1.49394 0.0767119 0.153206)
(0.352673 0.0200922 0.0723942)
(1.34531 0.0715903 0.139379)
(1.50758 0.074463 0.136227)
(0.336941 0.00516072 0.0746175)
(1.50796 0.0677291 0.147017)
(1.34157 0.0774067 0.129184)
(0.33729 0.0401315 0.0747654)
(1.35173 0.0254764 0.120503)
(0.333678 0.0154709 0.0761611)
(1.52556 0.0145884 0.126631)
(1.35426 0.0117428 0.121114)
(1.52289 0.022538 0.125603)
(0.333781 -0.0125433 0.0760818)
(1.35436 -0.00273968 0.119707)
(1.52634 0.0109593 0.123448)
(0.334862 -0.0167392 0.0760086)
(1.52623 -0.000541833 0.124308)
(1.35379 0.0137957 0.118992)
(0.334042 0.0107419 0.076171)
(1.29201 -0.0478824 0.120929)
(0.326145 -0.0256439 0.0757409)
(1.50474 -0.0676391 0.130037)
(1.31507 -0.0570302 0.123417)
(1.48112 -0.10949 0.121301)
(0.305141 -0.0642935 0.0753605)
(1.43399 -0.170988 0.106589)
(0.293477 -0.046293 0.0747315)
(0.993802 0.071984 0.247772)
(0.0145944 -0.145814 -0.0485719)
(1.06447 -0.0390816 0.708559)
(0.133979 -0.078634 0.268887)
(1.09472 0.0497964 0.419024)
(0.981259 0.0565513 0.332517)
(0.37129 -0.0472898 0.157153)
(0.464427 0.514481 0.0514691)
(0.054751 0.065504 -0.223365)
(1.3112 0.381596 -0.248683)
(0.834122 0.798411 0.0723421)
(2.16642 0.439841 -0.215375)
(1.70425 0.449592 -0.161799)
(0.736642 0.740157 0.0147238)
(1.75083 0.36097 -0.0828398)
(1.97304 0.296664 -0.0697926)
(1.63184 0.349132 -0.0831913)
(0.827156 0.771395 0.280557)
(1.32684 0.884241 -0.103897)
(1.16303 0.373399 -0.470351)
(1.22648 0.264229 0.00116432)
(1.55794 0.39382 -0.0734915)
(0.415896 0.504423 0.0497202)
(1.24159 0.281478 -0.00305213)
(0.0174669 0.102554 -0.104788)
(1.11678 0.499109 -0.0575277)
(0.483833 0.541954 0.231881)
(1.38618 0.0318609 -0.145879)
(-0.465039 -1.26052 -0.306564)
(1.57384 0.049169 -0.348386)
(0.426764 -0.841634 1.31117)
(1.64939 -0.0113439 -0.66069)
(1.39466 -0.135479 -0.352315)
(0.677999 2.22512 0.161293)
(1.15221 0.172465 0.176596)
(0.552791 0.0592565 0.0355112)
(1.5471 0.0435742 0.144845)
(1.36304 0.192961 0.341793)
(1.30559 -0.00856965 0.248881)
(0.526147 0.495089 0.266811)
(1.43648 0.0965162 -0.296066)
(1.20247 0.320435 -0.477858)
(0.901306 0.243504 -1.65768)
(1.35225 0.145811 0.118079)
(0.525769 0.712245 0.146304)
(1.51042 0.254007 0.0965732)
(1.85955 0.315224 -0.190462)
(1.55245 0.302375 -0.0727433)
(1.48903 0.227969 -0.138661)
(1.63489 0.214603 0.109252)
(1.60683 0.0608187 0.0739718)
(1.38699 0.110946 0.297302)
(1.72932 0.0834807 -0.0415005)
(1.52366 0.305245 0.213542)
(1.20457 0.342922 -0.400003)
(1.44464 0.223223 0.0385194)
(1.46512 0.326322 0.387284)
(0.412982 0.465864 -0.0768224)
(0.912677 0.35883 0.0266489)
(0.092081 0.0774481 -0.00904456)
(0.889105 0.349604 -0.0367836)
(0.416626 0.475404 0.0344226)
(0.768641 0.69733 -0.105033)
(1.97863 0.0926489 0.0428193)
(1.58907 0.362193 -0.00414509)
(1.67055 0.33739 0.0301681)
(0.748836 0.70554 0.0558219)
(0.764231 0.710628 -0.107018)
(1.48749 0.422728 0.0139298)
(2.00579 0.0758948 0.0163396)
(0.771644 0.769534 0.28156)
(1.67175 0.309809 0.00765288)
(0.41653 0.481274 -0.0956781)
(0.830225 0.518561 0.0560348)
(0.0557503 0.0763483 -0.0306596)
(0.474164 0.55229 0.290899)
(0.823397 0.454302 -0.0514641)
(1.57923 0.0806579 0.0536394)
(1.59648 0.040774 0.0994276)
(1.53984 0.0738253 0.116799)
(1.68749 0.011271 -0.0466619)
(1.60953 0.073423 0.0498277)
(1.56627 0.0923388 -0.0287933)
(1.50298 0.13119 0.0479876)
(1.63239 0.0968547 0.0223341)
(1.61254 0.0735372 0.0500211)
(1.56199 0.0766693 0.100272)
(1.5584 0.0695062 0.110452)
(1.62764 0.0921486 0.0364692)
(1.35522 0.0276374 0.121879)
(0.335033 -0.00795078 0.0759015)
(1.52313 0.0377769 0.125486)
(1.35263 0.039694 0.120236)
(1.52595 0.0310583 0.128117)
(0.334436 0.0196283 0.0760364)
(1.34875 0.0560627 0.122983)
(1.51942 0.0532539 0.134543)
(0.334361 0.026105 0.0757509)
(1.35169 0.0484419 0.126011)
(1.5187 0.0543099 0.129606)
(0.335852 -0.00298037 0.0755813)
(1.64134 0.0722184 0.00726799)
(1.57907 0.0376639 -0.0425359)
(1.65016 0.0478758 0.0162405)
(1.56473 0.0636975 -0.0651269)
(1.64979 0.0196359 0.0233957)
(1.58128 0.038611 0.088212)
(1.58495 0.031376 0.0907135)
(1.64204 0.0499094 0.0202314)
(1.64035 0.0676104 0.0256069)
(1.57663 0.0555219 0.0975977)
(1.64476 0.0508958 0.0317769)
(1.57635 0.0557151 0.0926896)
(1.64178 0.0358213 0.020348)
(1.58426 0.0141351 0.0893546)
(1.58125 0.0232541 0.0883977)
(1.64606 0.000987708 0.021598)
(1.64549 -0.0191602 0.00143861)
(1.56099 0.0420265 -0.0724805)
(1.5602 -0.0200105 -0.0729084)
(1.64708 0.0362 0.00156047)
(1.64682 -0.0142711 0.018802)
(1.58618 0.0122463 0.0861726)
(1.58537 -0.0014375 0.0870186)
(1.64862 0.0286523 0.0186975)
(1.34332 -0.0348622 0.120109)
(0.330943 -0.0407561 0.0758792)
(1.52082 -0.036038 0.12546)
(1.33977 -0.0222985 0.120227)
(1.52188 -0.0346967 0.125423)
(0.334772 -0.00650866 0.0758969)
(1.34621 -0.00272976 0.12212)
(1.52236 -0.0132421 0.126132)
(0.333853 0.00582598 0.0759936)
(1.34836 -0.0162705 0.120925)
(1.52214 -0.00879094 0.127766)
(0.333265 -0.0260131 0.0761369)
(1.65507 0.0206567 0.00838671)
(1.56025 -0.0217687 -0.070925)
(1.64471 -0.0268602 0.00400925)
(1.57073 0.0339839 -0.0647349)
(1.65757 -0.0420044 0.0210252)
(1.58989 -0.0376177 0.0883662)
(1.58488 -0.0355517 0.0879375)
(1.68115 -0.0155611 0.0290635)
(1.65506 0.0106636 0.0251301)
(1.58203 -0.0135739 0.0889312)
(1.64594 -0.022918 0.0213989)
(1.5844 -0.0081284 0.0904294)
(1.74057 -0.0480879 -0.0405569)
(1.47273 -0.220727 0.0317379)
(1.63244 -0.120079 -0.0391799)
(1.73929 -0.0989761 0.0344221)
(1.57431 -0.0716233 0.0936685)
(1.56918 -0.131289 0.0867115)
(1.673 -0.073154 0.0328247)
(1.85519 -0.112654 -0.0530667)
(1.77701 0.0174548 -0.0701555)
(1.67577 -0.0649511 -0.057326)
(1.8222 -0.136732 -0.0216384)
(1.54249 -0.210189 0.0706026)
(1.58 -0.0673443 -0.0082269)
(1.59585 -0.0548124 0.000515953)
(1.62238 -0.0240404 0.0401244)
(1.61541 -0.029115 -0.0441291)
(1.62081 -0.00338995 -0.0182249)
(1.63392 0.0138811 -0.0079399)
(1.57916 -0.0877601 0.0376786)
(1.31013 -0.2588 -0.000234295)
(1.57149 -0.0924218 -0.0343826)
(0.414468 0.475706 -0.028928)
(0.885764 0.400394 0.0166077)
(0.0764803 0.0716886 -0.0268166)
(0.886188 0.39078 0.00374172)
(0.41416 0.479299 0.038438)
(0.75194 0.70237 -0.016133)
(1.58549 0.357793 0.00935115)
(1.94601 0.101792 -0.00711541)
(0.739756 0.70495 0.0239823)
(1.60981 0.336629 0.00357557)
(0.753996 0.700682 -0.0310662)
(1.58652 0.348018 -0.00543535)
(1.94091 0.109734 0.0228852)
(1.60418 0.340312 0.0109476)
(0.744897 0.699984 0.0176026)
(0.414416 0.471947 -0.0151876)
(0.891145 0.376018 0.00883223)
(0.085165 0.0721709 0.00238868)
(0.897985 0.373241 -0.00720039)
(0.412499 0.472302 0.0025289)
(0.411691 0.470595 0.000473028)
(0.884457 0.377146 0.00931335)
(0.0805691 0.0715289 0.0107016)
(0.889164 0.376538 6.16052e-05)
(0.409854 0.469371 -0.00224792)
(0.746202 0.697396 -0.0147476)
(1.92414 0.113288 0.0193519)
(1.57923 0.341939 -0.00327348)
(1.58527 0.339778 0.0104276)
(0.741103 0.695353 0.0134626)
(0.745361 0.697512 0.00513665)
(1.58702 0.342629 0.00486082)
(1.92532 0.108293 -0.0110303)
(0.742112 0.698427 -0.00785616)
(1.58849 0.336314 0.00225302)
(0.411425 0.471386 -0.0108005)
(0.886594 0.381132 -0.00130806)
(0.0792506 0.0712585 -0.0195245)
(0.411308 0.472238 0.00972787)
(0.887645 0.378203 0.0117061)
(1.55497 -0.0854335 0.0324473)
(1.29632 -0.254233 -0.00169808)
(1.29775 -0.254213 0.0114812)
(1.55208 -0.085419 -0.0292514)
(1.5968 -0.00447844 -0.022112)
(1.60429 -0.00282486 0.0144023)
(1.55525 -0.0698154 -0.0151193)
(1.30496 -0.243947 0.00153077)
(1.29968 -0.243866 0.00813349)
(1.56295 -0.0686793 0.0118879)
(1.59804 -0.020972 0.0377686)
(1.59505 -0.0208496 -0.0368997)
(1.54472 -0.0737702 -0.0185443)
(1.29451 -0.245526 0.00119991)
(1.54885 -0.0734916 0.0177525)
(1.29138 -0.245043 0.00436216)
(1.5866 -0.0164555 0.0346535)
(1.56596 0.123504 -0.0384064)
(1.568 0.122759 0.0352261)
(1.58437 -0.0158588 -0.0320725)
(1.58663 -0.00861711 -0.0254409)
(1.57115 0.12868 0.0226094)
(1.59067 -0.00823259 0.0223967)
(1.56793 0.128414 -0.0326765)
(1.54407 -0.0813777 0.0290735)
(1.28933 -0.249861 0.00033739)
(1.29018 -0.250358 0.00788026)
(1.542 -0.0809223 -0.0248669)
(0.408851 0.468271 -0.00583111)
(0.883163 0.377222 -0.00121371)
(0.0790421 0.0711811 -0.017007)
(0.883104 0.375575 0.0129972)
(0.4097 0.469543 0.00624302)
(0.740201 0.693468 0.010452)
(1.57816 0.33845 0.00622429)
(1.91272 0.110995 -0.0118449)
(0.740488 0.695018 -0.0101018)
(1.57622 0.335911 0.0017219)
(0.74086 0.693716 -0.0108725)
(1.57044 0.337413 0.000498803)
(1.91153 0.112842 0.0183545)
(1.57438 0.33732 0.010626)
(0.737107 0.69114 0.0138534)
(0.409276 0.468397 0.00436475)
(0.88082 0.375416 0.0135844)
(0.0791137 0.0713159 0.0131841)
(0.884057 0.375653 0.00188896)
(0.407375 0.466518 -0.00265995)
(1.56873 0.335784 0.00996605)
(0.737762 0.69174 -0.00868772)
(0.880752 0.375373 0.00310096)
(0.407968 0.467228 0.00652691)
(1.5359 -0.0782858 0.0283166)
(1.28346 -0.246079 0.00438175)
(1.28496 -0.246834 0.00781796)
(1.53299 -0.077815 -0.0205564)
(1.57889 -0.0101013 -0.0265261)
(1.56338 0.12785 0.0293858)
(1.56079 0.128281 -0.0340894)
(1.58208 -0.0102454 0.0279039)
(1.53702 -0.0754405 -0.0193638)
(1.28818 -0.245584 0.00356049)
(1.28606 -0.24489 0.00424408)
(1.54017 -0.0755244 0.0224929)
(1.57798 -0.0128936 0.0338573)
(1.55695 0.127281 -0.0361906)
(1.55983 0.126668 0.0348307)
(1.57491 -0.0123108 -0.0280382)
(1.28198 -0.244194 0.00799671)
(1.53094 -0.075811 0.0271646)
(1.55482 0.129327 0.0331851)
(1.57271 -0.0101407 0.0325269)
(0.00641624 -0.0452999 0.0196083)
(0.110058 -0.13609 0.0494136)
(0.265239 -0.0144392 0.159564)
(0.367061 -0.218536 0.292595)
(0.172776 -0.140341 0.359815)
(1.28927 0.514883 -0.156122)
(0.707763 0.305769 -0.0562221)
(0.916152 -0.0414514 -0.136289)
(0.919896 0.0517988 -0.138764)
(1.02772 0.0405666 -0.151727)
(1.04164 0.104703 -0.147955)
(1.07684 0.202432 0.220788)
(-0.0123415 -0.525694 -0.0513586)
(0.324933 0.675674 0.200336)
(1.3833 0.168575 0.093004)
(1.19538 0.26228 0.400064)
(1.46467 -0.0888961 -0.121324)
(0.326318 1.78906 0.113804)
(1.3864 0.421663 -0.172489)
(1.19111 0.401985 -0.16598)
(1.37782 0.351714 -0.236434)
(1.17992 0.439348 -0.105343)
(1.41701 0.438191 -0.226779)
(1.59564 0.363938 -0.306739)
(0.369801 0.381101 0.0418331)
(1.13099 0.465541 -0.101462)
(0.494645 0.234504 -0.00870768)
(1.20648 0.519329 -0.0544441)
(0.81257 -0.0643862 -0.0163449)
(0.748576 0.0599158 -0.0795975)
(0.763217 -0.0555291 -0.073984)
(0.795455 0.0688858 -0.0171471)
(0.91303 0.0502932 -0.139165)
(0.926128 -0.042156 -0.136231)
(0.796492 0.0710934 -0.0171752)
(0.753586 -0.0540045 -0.0754767)
(0.755809 0.0621644 -0.0776021)
(0.807076 -0.0644998 -0.0148162)
(0.893658 -0.0308401 -0.0238713)
(0.824532 0.0930168 -0.0755831)
(0.834532 -0.000991741 -0.0783553)
(0.914728 0.0916135 -0.0157876)
(0.99158 0.0844649 -0.143915)
(0.99856 0.0151501 -0.145466)
(0.980577 0.0816218 -0.015269)
(0.861922 0.021415 -0.0831376)
(0.874026 0.111354 -0.0737044)
(0.927279 -0.019854 -0.027242)
(0.882041 0.00615275 0.214271)
(0.904352 0.0201715 0.182461)
(0.965314 -0.083116 0.206764)
(0.817919 0.00888425 0.165922)
(0.868419 0.0428986 0.187583)
(0.894867 0.0312088 0.166002)
(0.895544 0.038931 0.169456)
(0.859787 0.0501195 0.185863)
(0.912183 0.0769524 -0.140843)
(0.938993 0.0629831 -0.141163)
(0.870255 0.0161537 0.183196)
(0.905485 0.00861106 0.164946)
(0.861956 0.00385461 0.182709)
(0.90707 0.00200503 0.168943)
(0.874243 -0.0145409 0.183126)
(0.911005 -0.00885363 0.16509)
(0.911219 -0.00438459 0.169702)
(0.865185 -0.00166162 0.182154)
(0.915806 0.0571558 -0.138719)
(0.927426 -0.0348317 -0.137184)
(0.845095 -0.0955608 0.186814)
(0.915544 -0.0809693 0.170369)
(0.851393 -0.0838677 0.186973)
(0.916395 -0.131921 0.17512)
(1.16522 0.913195 -0.0504787)
(1.68708 0.311322 -0.195665)
(1.14374 0.394832 0.317647)
(1.43054 0.290581 -0.107835)
(1.28568 0.594175 0.0306971)
(1.41983 0.38279 0.0371861)
(1.35491 0.867196 0.201019)
(1.02632 -0.184458 0.206621)
(0.948775 0.00306505 0.174182)
(1.03557 -0.0857554 0.212463)
(0.918248 -0.0198039 0.147901)
(1.0658 0.181243 0.093357)
(0.915668 0.0669996 0.14615)
(0.920333 0.0543629 0.127885)
(0.968556 0.203098 0.0826319)
(1.12247 0.806566 -0.0816662)
(1.28721 0.519708 0.0421534)
(1.28483 0.467279 0.12566)
(1.09504 0.622507 0.0660183)
(1.09034 0.93669 0.250592)
(1.10796 0.539403 0.0958122)
(1.43263 0.419694 0.0330172)
(1.20112 0.77028 -0.057256)
(1.41671 0.349641 -0.000787807)
(1.22534 0.393895 -0.0346618)
(1.46069 0.396704 -0.0186325)
(1.23451 0.369717 -0.0127249)
(1.53045 0.379654 0.023098)
(1.16606 0.807207 0.028133)
(0.701962 0.0755122 0.095057)
(0.883527 0.074033 0.158385)
(0.744905 0.0266665 0.138853)
(1.00456 0.18864 0.10614)
(0.82803 0.0571998 -0.0261332)
(0.741199 0.0769046 -0.0835716)
(0.778092 0.039081 -0.0776447)
(0.756167 0.0807683 -0.0271887)
(0.872233 0.0362231 0.095802)
(0.857313 0.0285075 0.14661)
(0.858369 0.0388772 0.149949)
(0.861219 0.0508866 0.0907447)
(0.87332 0.00772693 0.183192)
(0.906332 0.00732162 0.164954)
(0.863792 0.0204227 0.182101)
(0.910756 0.0119144 0.169388)
(0.869411 0.0430221 0.185062)
(0.899806 0.0337874 0.166467)
(0.860617 0.0339233 0.185946)
(0.904379 0.0225258 0.169617)
(0.78278 0.0698625 -0.0218215)
(0.767237 -0.0144396 -0.0728915)
(0.823446 -0.00618935 -0.0170473)
(0.756094 0.0633323 -0.0810054)
(0.898592 -0.00946833 0.0927549)
(0.877029 0.00497702 0.147051)
(0.878835 0.0104604 0.150828)
(0.901667 0.0225095 0.0898103)
(0.87379 0.037146 0.0924196)
(0.870413 0.0325021 0.148328)
(0.900383 0.0207165 0.0938243)
(0.867094 0.0190821 0.15017)
(0.929958 -0.000126328 -0.134628)
(0.923889 0.057457 -0.140661)
(0.889524 0.0187277 0.0916877)
(0.87758 0.00768114 0.147122)
(0.873666 0.000240985 0.150108)
(0.906811 -0.0125838 0.090376)