/*--------------------------------*- C++ -*----------------------------------*\
| =========                 |                                                 |
| \\      /  F ield         | OpenFOAM: The Open Source CFD Toolbox           |
|  \\    /   O peration     | Version:  2012                                  |
|   \\  /    A nd           | Website:  www.openfoam.com                      |
|    \\/     M anipulation  |                                                 |
\*---------------------------------------------------------------------------*/
FoamFile
{
    version     2.0;
    format      ascii;
    class       surfaceVectorField;
    location    "0.107/fluid";
    object      Uf;
}
// * * * * * * * * * * * * * * * * * * * * * * * * * * * * * * * * * * * * * //

dimensions      [0 1 -1 0 0 0 0];


internalField   nonuniform List<vector> 
47458
(
(1.19995 3.91148e-05 3.68919e-05)
(1.19994 2.48678e-05 2.26206e-05)
(1.19994 2.24865e-05 2.68649e-05)
(1.19961 7.18428e-05 3.86164e-05)
(1.19952 6.29824e-05 2.41443e-05)
(1.19971 6.40788e-05 3.13845e-05)
(1.19965 6.8872e-05 3.98665e-05)
(1.19932 4.18255e-05 7.96774e-06)
(1.19926 3.96242e-05 9.21589e-06)
(1.19937 4.39059e-05 8.91367e-06)
(1.1992 4.09279e-05 1.89966e-05)
(1.19907 3.77972e-05 1.36668e-05)
(1.199 3.73956e-05 1.48411e-05)
(1.19938 4.80023e-05 1.42922e-05)
(1.19913 3.76208e-05 2.69422e-05)
(1.19876 3.82771e-05 1.96445e-05)
(1.19867 3.93057e-05 2.15448e-05)
(1.19918 5.81142e-05 2.04109e-05)
(1.19888 3.86838e-05 3.82396e-05)
(1.19835 4.4397e-05 3.10394e-05)
(1.19822 4.68535e-05 3.49178e-05)
(1.19882 7.84615e-05 3.26223e-05)
(1.19849 4.52188e-05 6.01599e-05)
(1.19775 5.83638e-05 4.85186e-05)
(1.19755 6.33482e-05 5.39457e-05)
(1.19826 0.00011292 5.09695e-05)
(1.19791 6.07294e-05 9.31926e-05)
(1.19682 8.63905e-05 8.00857e-05)
(1.19652 9.73498e-05 9.02276e-05)
(1.19738 0.000176983 8.46571e-05)
(1.19704 9.11796e-05 0.000152755)
(1.19532 0.000146172 0.000133038)
(1.1948 0.000170409 0.000152292)
(1.19594 0.00030123 0.000141388)
(1.19561 0.000156445 0.000253189)
(1.19271 0.00028723 0.000235535)
(1.19177 0.000348949 0.000276655)
(1.19347 0.000566846 0.000251783)
(1.19312 0.000312298 0.00044219)
(1.18774 0.000662619 0.000484764)
(1.18579 0.000839382 0.000606169)
(1.18894 0.00121246 0.000528417)
(1.18838 0.000730944 0.000870654)
(1.17655 0.00183297 0.00137221)
(1.17157 0.00243445 0.00189548)
(1.17917 0.00311222 0.00155138)
(1.17797 0.00205442 0.00221514)
(1.14394 0.00598969 0.00563427)
(1.12689 0.00809987 0.00831418)
(1.15088 0.00998952 0.0066956)
(1.14942 0.00689117 0.00825346)
(1.01801 0.0170256 0.0268864)
(0.946963 0.0190392 0.0397716)
(1.0258 0.0340769 0.0351621)
(1.04364 0.021691 0.0416269)
(0.111975 0.00667397 0.0499212)
(0.0892849 -0.0522869 0.050398)
(0.166204 0.00332432 0.100378)
(0.0669503 0.0206019 0.0603938)
(0.0525136 0.0060131 0.0231933)
(0.0478133 -0.00134144 0.0506431)
(0.0742539 -0.000616453 0.0619796)
(1.19995 3.41852e-06 2.22921e-05)
(1.19997 3.60346e-06 3.65295e-05)
(1.19995 4.46978e-06 2.21202e-05)
(1.19996 1.24301e-06 2.61118e-05)
(1.19975 4.45831e-05 3.42653e-05)
(1.19982 2.84599e-05 4.18317e-05)
(1.19977 4.1576e-05 2.83956e-05)
(1.19975 4.86978e-05 3.56465e-05)
(1.19989 3.71187e-05 4.27565e-05)
(1.19944 7.02227e-05 1.24527e-05)
(1.19967 6.78158e-05 1.27546e-05)
(1.19964 7.45788e-05 1.37171e-05)
(1.19943 8.45706e-05 1.37976e-05)
(1.19959 7.29605e-05 2.26319e-05)
(1.19945 0.000101109 1.55893e-05)
(1.19952 0.000102068 1.57224e-05)
(1.19947 0.000113163 1.65733e-05)
(1.19945 0.000122708 1.632e-05)
(1.19962 0.000108497 2.75829e-05)
(1.19927 0.000148587 2.14404e-05)
(1.1993 0.000153696 2.10196e-05)
(1.19924 0.000170701 2.26543e-05)
(1.19927 0.000181061 2.19952e-05)
(1.19947 0.000162506 3.87433e-05)
(1.19894 0.000226659 3.20046e-05)
(1.19899 0.000236179 3.0267e-05)
(1.19889 0.000263516 3.4187e-05)
(1.19895 0.00027564 3.20315e-05)
(1.19918 0.000249155 5.80487e-05)
(1.19843 0.000351401 5.05051e-05)
(1.19851 0.000367157 4.81363e-05)
(1.19836 0.000411415 5.34342e-05)
(1.19846 0.000427179 5.05219e-05)
(1.19874 0.00038772 9.13001e-05)
(1.19761 0.000562343 8.299e-05)
(1.19777 0.000587487 7.74115e-05)
(1.19751 0.000662288 8.77934e-05)
(1.19769 0.00068384 8.15779e-05)
(1.19804 0.000620519 0.00014788)
(1.1963 0.000929448 0.000136548)
(1.19655 0.000963385 0.000127225)
(1.19615 0.00109778 0.00014497)
(1.19644 0.00112339 0.000134219)
(1.19692 0.00102229 0.000241463)
(1.19412 0.00161414 0.000238518)
(1.19457 0.00165286 0.000219542)
(1.19388 0.00190785 0.000255283)
(1.19439 0.00193185 0.000232162)
(1.19509 0.00176053 0.000412729)
(1.19032 0.00301407 0.000483598)
(1.19116 0.00301401 0.00043124)
(1.18994 0.00354842 0.000530388)
(1.19091 0.00353579 0.000462095)
(1.19202 0.00322399 0.000782199)
(1.18298 0.00631746 0.00133035)
(1.18479 0.00604333 0.00112331)
(1.18233 0.00734519 0.00151044)
(1.18448 0.00710755 0.00123465)
(1.18675 0.00647744 0.00183831)
(1.1658 0.0159243 0.00519043)
(1.17092 0.0141521 0.00412026)
(1.16496 0.018104 0.00591316)
(1.17063 0.0163695 0.00461833)
(1.17762 0.0150098 0.00593429)
(1.11562 0.0498997 0.0235501)
(1.13431 0.0405762 0.0180116)
(1.11667 0.0540781 0.0257915)
(1.16414 0.0413624 0.0255532)
(1.13438 0.0431698 0.0201376)
(0.471064 -0.0811269 0.0655925)
(0.760643 0.0162946 0.055577)
(0.553651 0.132549 0.100567)
(0.614303 0.012936 0.088828)
(0.971935 0.048039 0.124018)
(1.19995 4.17149e-06 2.17351e-05)
(1.19998 8.83483e-06 3.61664e-05)
(1.19995 4.50202e-06 2.16115e-05)
(1.19996 4.08918e-06 2.52074e-05)
(1.19974 6.55558e-05 4.04129e-05)
(1.19981 5.56966e-05 4.72088e-05)
(1.19976 7.84426e-05 3.49546e-05)
(1.19974 7.06913e-05 4.20191e-05)
(1.19988 6.98973e-05 4.75952e-05)
(1.19942 0.000119061 1.78663e-05)
(1.19965 0.000118877 1.84472e-05)
(1.19962 0.000129308 1.8867e-05)
(1.19942 0.000127826 1.91963e-05)
(1.1996 0.000125576 2.6279e-05)
(1.19945 0.000174924 1.87629e-05)
(1.19951 0.000173485 1.89897e-05)
(1.19948 0.000191286 1.97823e-05)
(1.19945 0.000187917 1.96573e-05)
(1.19966 0.000183269 2.90932e-05)
(1.1993 0.000261077 2.37833e-05)
(1.19934 0.000258619 2.35099e-05)
(1.19928 0.00028634 2.49008e-05)
(1.19931 0.000280748 2.4356e-05)
(1.19955 0.000272626 3.91884e-05)
(1.19903 0.000396026 3.22476e-05)
(1.19908 0.00039151 3.09137e-05)
(1.199 0.00043597 3.40092e-05)
(1.19906 0.000426386 3.22442e-05)
(1.19933 0.000412477 5.60883e-05)
(1.19861 0.000613565 4.94676e-05)
(1.1987 0.000604891 4.66587e-05)
(1.19858 0.000675955 5.19067e-05)
(1.19868 0.000658783 4.88187e-05)
(1.19899 0.000637312 8.63772e-05)
(1.19798 0.000970264 7.71849e-05)
(1.19812 0.000952039 7.20781e-05)
(1.19793 0.00107001 8.12263e-05)
(1.19809 0.00103825 7.52648e-05)
(1.19847 0.00100466 0.000135154)
(1.19697 0.00156856 0.000125877)
(1.19722 0.00153029 0.000117313)
(1.19692 0.00172953 0.000132562)
(1.19718 0.00166762 0.000122877)
(1.19767 0.00161909 0.000218673)
(1.19541 0.00260439 0.000210858)
(1.19581 0.00251904 0.000194339)
(1.19535 0.00286415 0.00022253)
(1.19577 0.00273687 0.000203455)
(1.19644 0.00266933 0.000361084)
(1.19294 0.00445059 0.000394011)
(1.19362 0.00424672 0.000352954)
(1.1929 0.00485633 0.000422864)
(1.1936 0.00457802 0.000372592)
(1.1946 0.00449982 0.000643545)
(1.18891 0.00782963 0.000971945)
(1.19013 0.00730859 0.000826428)
(1.18892 0.00838252 0.00108625)
(1.19014 0.00774391 0.000896192)
(1.19207 0.00770299 0.0013813)
(1.18123 0.0139053 0.00348588)
(1.18365 0.0125312 0.00284859)
(1.18092 0.0142074 0.00407699)
(1.18336 0.0127729 0.00321185)
(1.18919 0.0129606 0.00405763)
(1.15915 0.0227496 0.0156261)
(1.16479 0.0193112 0.0127275)
(1.15351 0.0204601 0.0183168)
(1.16166 0.0178763 0.0148452)
(1.187 0.0190753 0.0168978)
(0.691756 0.0131088 0.0941321)
(0.808445 0.0164279 0.0585773)
(0.691288 0.0163903 0.0778494)
(0.691338 0.00936684 0.094321)
(1.05621 0.0140959 0.125945)
(1.19995 5.00063e-06 2.12375e-05)
(1.19998 1.01762e-05 3.59788e-05)
(1.19996 4.89367e-06 2.46927e-05)
(1.19974 8.09728e-05 4.67073e-05)
(1.19981 6.72586e-05 5.26184e-05)
(1.19976 9.53548e-05 4.12672e-05)
(1.19989 8.41587e-05 5.18895e-05)
(1.19942 0.000145255 2.27768e-05)
(1.19966 0.000141672 2.34406e-05)
(1.19963 0.000153279 2.35189e-05)
(1.19962 0.000148388 2.91008e-05)
(1.19947 0.000211363 2.25835e-05)
(1.19954 0.00020344 2.29588e-05)
(1.1995 0.000224423 2.35104e-05)
(1.19972 0.00021483 3.10864e-05)
(1.19937 0.000316749 2.57457e-05)
(1.1994 0.000304145 2.56028e-05)
(1.19936 0.000336523 2.65809e-05)
(1.19967 0.00032005 3.86525e-05)
(1.19918 0.000479309 3.21645e-05)
(1.19922 0.00045874 3.13797e-05)
(1.19917 0.000510086 3.35166e-05)
(1.19954 0.000483136 5.27292e-05)
(1.19889 0.000736621 4.68706e-05)
(1.19897 0.000703593 4.4316e-05)
(1.19889 0.000784522 4.87108e-05)
(1.19933 0.000740927 7.89196e-05)
(1.19848 0.00114968 6.89728e-05)
(1.1986 0.00109534 6.4505e-05)
(1.19848 0.00122617 7.23306e-05)
(1.19902 0.00115438 0.000118916)
(1.19785 0.0018196 0.000112281)
(1.19804 0.00172771 0.000103679)
(1.19786 0.00193756 0.000117101)
(1.19857 0.00181985 0.000188997)
(1.19689 0.00289502 0.000179995)
(1.1972 0.00273563 0.000166266)
(1.19694 0.00307043 0.000187291)
(1.19792 0.00288206 0.000300603)
(1.19548 0.00460977 0.00031145)
(1.19597 0.00433411 0.000280487)
(1.19556 0.00485564 0.000328255)
(1.19701 0.00455361 0.000504605)
(1.19316 0.0072256 0.000689332)
(1.19396 0.00677312 0.000588559)
(1.19321 0.00753646 0.00075304)
(1.1957 0.00704482 0.000992567)
(1.18757 0.010727 0.00238855)
(1.18926 0.0101666 0.00190416)
(1.1868 0.0111118 0.00274553)
(1.19315 0.0101798 0.00274847)
(1.16353 0.0131102 0.0118786)
(1.16924 0.0133147 0.00923505)
(1.15549 0.0129617 0.0137366)
(1.18395 0.0110416 0.0125149)
(0.675934 -0.0136006 0.0946789)
(0.788052 -0.00386018 0.0571542)
(0.668926 -0.0191266 0.079611)
(0.6664 -0.0136376 0.0952637)
(1.0278 -0.0193739 0.124552)
(1.19995 2.26261e-05 6.96877e-06)
(1.19998 3.93493e-05 9.65838e-06)
(1.19997 2.48079e-05 5.0576e-06)
(1.19995 2.27172e-05 6.88876e-06)
(1.19972 6.85285e-05 6.41522e-05)
(1.1998 7.18245e-05 5.44248e-05)
(1.19973 6.24838e-05 6.9499e-05)
(1.19991 6.39669e-05 6.34331e-05)
(1.19972 6.82997e-05 7.09913e-05)
(1.19931 4.08172e-05 6.98042e-05)
(1.19956 4.17473e-05 7.70486e-05)
(1.1995 3.99704e-05 7.77503e-05)
(1.19961 4.46418e-05 7.65784e-05)
(1.19931 4.06526e-05 8.42034e-05)
(1.19925 3.75316e-05 8.51654e-05)
(1.19933 3.76715e-05 9.09535e-05)
(1.19927 3.75274e-05 9.80587e-05)
(1.19964 4.79942e-05 9.42256e-05)
(1.19926 3.75466e-05 0.000103986)
(1.19901 3.89392e-05 0.000121211)
(1.19906 3.863e-05 0.000128142)
(1.19898 3.93061e-05 0.000141645)
(1.19948 5.81885e-05 0.000134374)
(1.19902 3.88882e-05 0.000148621)
(1.19863 4.43667e-05 0.000184624)
(1.1987 4.31887e-05 0.000194106)
(1.19859 4.55781e-05 0.000216231)
(1.19918 7.60237e-05 0.000204016)
(1.19866 4.40249e-05 0.00022596)
(1.19809 5.99757e-05 0.000288934)
(1.19819 5.72924e-05 0.000302415)
(1.19802 6.24037e-05 0.00033901)
(1.19872 0.000110797 0.000318908)
(1.19813 5.93625e-05 0.000353247)
(1.19726 8.98092e-05 0.000460384)
(1.19741 8.45767e-05 0.000480516)
(1.19715 9.51707e-05 0.000541492)
(1.19799 0.000172552 0.000507826)
(1.19733 8.88382e-05 0.000562492)
(1.19591 0.000152141 0.000749736)
(1.19616 0.000141053 0.000779584)
(1.19574 0.000163528 0.000883031)
(1.19682 0.00028983 0.000824443)
(1.19603 0.000149747 0.000914022)
(1.19361 0.00029967 0.00125556)
(1.19405 0.000271657 0.00129614)
(1.1933 0.000328586 0.00147876)
(1.19487 0.000537713 0.00137143)
(1.19381 0.000293054 0.00152102)
(1.18932 0.000695234 0.00219791)
(1.19017 0.000618039 0.00223082)
(1.18872 0.000779883 0.00257501)
(1.19149 0.00113257 0.00236506)
(1.18972 0.000678331 0.00262512)
(1.18043 0.00193199 0.0041915)
(1.18222 0.00168215 0.00405522)
(1.17899 0.00222729 0.004762)
(1.18521 0.00282347 0.00431088)
(1.18127 0.00188449 0.00483577)
(1.1588 0.00649297 0.0093133)
(1.16324 0.00554514 0.00798953)
(1.15477 0.00766328 0.00961491)
(1.17251 0.00870457 0.00855005)
(1.16084 0.0063573 0.0096787)
(1.09483 0.0244964 0.0237405)
(1.10962 0.0210969 0.0170775)
(1.08333 0.0301041 0.0204154)
(1.14588 0.0333463 0.0190323)
(1.09954 0.0245492 0.0185357)
(0.855659 0.0769462 0.0130071)
(0.898337 0.0863991 0.0243039)
(1.04735 0.149716 0.0416483)
(0.843088 0.0881642 0.0137842)
(0.964539 0.223965 0.0237846)
(0.550356 0.0914369 0.0174491)
(0.968471 0.222038 0.0181317)
(0.546706 0.0927935 -0.000581514)
(1.19997 1.07837e-06 7.42772e-06)
(1.19997 3.23483e-06 5.06359e-06)
(1.2 3.09788e-06 9.95911e-06)
(1.19997 4.12151e-06 5.13588e-06)
(1.19997 1.15154e-06 7.22712e-06)
(1.19995 3.70751e-05 6.36385e-05)
(1.19996 4.55093e-05 6.25351e-05)
(1.2 2.93579e-05 5.34581e-05)
(1.19999 4.30477e-05 6.79071e-05)
(1.19995 5.00679e-05 6.21733e-05)
(1.19995 3.65498e-05 7.05023e-05)
(1.19969 7.27778e-05 6.85355e-05)
(1.19969 7.13626e-05 7.4977e-05)
(1.19993 6.91868e-05 7.4782e-05)
(1.1999 7.54613e-05 7.56602e-05)
(1.19969 8.55895e-05 7.42529e-05)
(1.19969 7.20634e-05 8.26976e-05)
(1.19974 0.000107374 8.42075e-05)
(1.19974 0.000100534 9.3075e-05)
(1.1998 0.000101608 8.93639e-05)
(1.19977 0.000112338 9.65624e-05)
(1.19974 0.000121913 9.21802e-05)
(1.19974 0.000106476 0.00010285)
(1.1996 0.000160701 0.000119658)
(1.19959 0.000147271 0.000132698)
(1.19963 0.000152145 0.000126144)
(1.19958 0.000168768 0.000138954)
(1.19961 0.000179036 0.000131459)
(1.19961 0.000159455 0.000146375)
(1.19933 0.000245484 0.000179642)
(1.19932 0.000222275 0.000199832)
(1.19938 0.000231965 0.000188808)
(1.19929 0.000258254 0.000210108)
(1.19935 0.000270526 0.000197559)
(1.19935 0.000243199 0.000220084)
(1.19891 0.000380862 0.000279739)
(1.1989 0.000343149 0.000311259)
(1.19898 0.000358806 0.000292826)
(1.19886 0.000401588 0.000328005)
(1.19895 0.000417434 0.000306984)
(1.19894 0.000376566 0.000342128)
(1.19825 0.000605941 0.000443939)
(1.19824 0.000544888 0.000494244)
(1.19837 0.000568626 0.000463665)
(1.19817 0.000640928 0.000521376)
(1.19832 0.000661718 0.000486371)
(1.19831 0.000598034 0.000542451)
(1.19721 0.000995754 0.00071662)
(1.19719 0.000896149 0.000797808)
(1.19741 0.000929823 0.000745983)
(1.19709 0.00105751 0.000842537)
(1.19733 0.00108335 0.000782834)
(1.19731 0.000980724 0.000873535)
(1.19553 0.00170471 0.00118335)
(1.19549 0.00154195 0.00131533)
(1.19586 0.00158167 0.00122431)
(1.19534 0.00182048 0.00139144)
(1.19575 0.00184645 0.00128527)
(1.19571 0.00167455 0.00143443)
(1.19281 0.00309146 0.00202807)
(1.19272 0.00283448 0.00223808)
(1.19335 0.00284295 0.0020689)
(1.19252 0.00332901 0.00237329)
(1.19325 0.00332919 0.00217301)
(1.19314 0.0030262 0.00242733)
(1.18854 0.00608053 0.00371057)
(1.18826 0.00574391 0.00398235)
(1.18938 0.00552756 0.0036427)
(1.18811 0.00662723 0.00422564)
(1.18944 0.00649587 0.00382529)
(1.18917 0.00592295 0.00432059)
(1.1831 0.0132815 0.00753377)
(1.18207 0.0132269 0.0074819)
(1.18393 0.0118794 0.0067063)
(1.18274 0.0146031 0.00785778)
(1.18498 0.0138823 0.00702969)
(1.18434 0.0128276 0.008156)
(1.18535 0.0318512 0.016621)
(1.18236 0.0333838 0.0146292)
(1.18401 0.0274767 0.0126117)
(1.18841 0.0336218 0.0146024)
(1.18898 0.0304435 0.0131474)
(1.18749 0.0303671 0.0148485)
(1.24296 0.0677942 0.0223598)
(1.23861 0.0657621 0.023506)
(1.23107 0.0514087 0.0195528)
(1.25483 0.0522316 0.0177395)
(1.24003 0.046971 0.0182865)
(1.24123 0.0627033 0.0156433)
(1.19997 4.10337e-06 6.87796e-06)
(1.19997 3.97828e-06 5.1248e-06)
(1.2 8.68444e-06 9.71765e-06)
(1.19997 4.37278e-06 5.118e-06)
(1.19997 4.09723e-06 7.53311e-06)
(1.19995 6.9646e-05 6.31988e-05)
(1.19995 6.67243e-05 6.08817e-05)
(1.2 5.65819e-05 5.2003e-05)
(1.19999 7.95446e-05 6.58531e-05)
(1.19995 7.15813e-05 6.03857e-05)
(1.19995 6.90319e-05 6.97401e-05)
(1.1997 0.000125012 6.65411e-05)
(1.1997 0.000119555 7.17307e-05)
(1.19993 0.000119553 7.14959e-05)
(1.19991 0.000129556 7.22194e-05)
(1.1997 0.000128166 7.07963e-05)
(1.1997 0.000124084 8.03101e-05)
(1.19977 0.000181431 8.07331e-05)
(1.19977 0.000173572 8.86398e-05)
(1.19984 0.000172065 8.49389e-05)
(1.19981 0.000189615 9.15756e-05)
(1.19978 0.000186313 8.72307e-05)
(1.19978 0.000180019 9.8724e-05)
(1.19967 0.000268902 0.000113426)
(1.19967 0.000257113 0.000125806)
(1.1997 0.000254813 0.000119045)
(1.19966 0.000281807 0.000131019)
(1.19969 0.000276456 0.000123424)
(1.19969 0.000266514 0.000139091)
(1.19947 0.000406221 0.000169125)
(1.19946 0.000388617 0.00018838)
(1.19951 0.000384174 0.000177354)
(1.19945 0.000426939 0.000196898)
(1.1995 0.000417724 0.000184551)
(1.19949 0.000402379 0.000207088)
(1.19915 0.000625144 0.000259316)
(1.19913 0.000598126 0.000289649)
(1.19921 0.000589659 0.000271499)
(1.19912 0.000658354 0.000303068)
(1.19921 0.000642025 0.000282755)
(1.19919 0.000618226 0.000317311)
(1.19867 0.000982633 0.000406148)
(1.19864 0.000941031 0.000454589)
(1.19877 0.000923899 0.000424406)
(1.19862 0.001037 0.000475612)
(1.19876 0.00100673 0.000442001)
(1.19873 0.000970005 0.000496327)
(1.19793 0.00157684 0.000644844)
(1.19787 0.0015131 0.000722755)
(1.19808 0.0014774 0.000672129)
(1.19786 0.00166691 0.000755447)
(1.19808 0.00160869 0.0006989)
(1.19802 0.00155291 0.000786218)
(1.19682 0.00258523 0.00103995)
(1.19672 0.00249205 0.0011666)
(1.19705 0.00241326 0.00107916)
(1.19672 0.00273711 0.00121834)
(1.19707 0.00261907 0.0011205)
(1.19697 0.002539 0.0012619)
(1.19524 0.00432139 0.00172202)
(1.19505 0.00420363 0.00192591)
(1.19557 0.00401992 0.00176866)
(1.19513 0.00457725 0.00200991)
(1.19565 0.00432645 0.00183382)
(1.1955 0.00422904 0.00206709)
(1.19337 0.00728039 0.0029926)
(1.19302 0.00721395 0.00327977)
(1.19376 0.00676286 0.00298472)
(1.19333 0.00768929 0.00341721)
(1.19401 0.00714165 0.00309011)
(1.19384 0.00709025 0.00352006)
(1.1928 0.0118383 0.00565034)
(1.19199 0.0121656 0.005744)
(1.19269 0.0110599 0.00517719)
(1.19296 0.012307 0.00596667)
(1.19332 0.0111749 0.00534752)
(1.19365 0.0114411 0.00635089)
(1.201 0.0160187 0.0119388)
(1.19885 0.0179514 0.0102443)
(1.19782 0.015311 0.00920463)
(1.20191 0.0155343 0.0105619)
(1.19907 0.0138199 0.00945165)
(1.20246 0.0152284 0.0116921)
(1.24477 0.0117019 0.0191601)
(1.23075 0.0159125 0.0117192)
(1.22621 0.0116174 0.0121746)
(1.23707 0.00903218 0.00743548)
(1.22787 0.00781064 0.0105387)
(1.24008 0.0105536 0.0155972)
(1.19997 4.86957e-06 6.57418e-06)
(1.19997 4.92224e-06 5.1805e-06)
(1.2 1.00974e-05 9.61007e-06)
(1.19997 4.88013e-06 7.65571e-06)
(1.19995 8.37322e-05 6.24918e-05)
(1.19996 8.16693e-05 5.88825e-05)
(1.2 6.77319e-05 5.03079e-05)
(1.19999 9.58474e-05 6.35132e-05)
(1.19995 8.30279e-05 6.87253e-05)
(1.19973 0.000147089 6.39307e-05)
(1.19972 0.000144583 6.77854e-05)
(1.19995 0.000141029 6.77119e-05)
(1.19994 0.000152298 6.79594e-05)
(1.19973 0.000146005 7.71042e-05)
(1.19983 0.00021274 7.57736e-05)
(1.19983 0.000209655 8.23963e-05)
(1.19989 0.000201721 7.8858e-05)
(1.19987 0.000222369 8.47828e-05)
(1.19984 0.000210995 9.28121e-05)
(1.19979 0.000316048 0.000105073)
(1.19978 0.000311814 0.000115906)
(1.19981 0.000299591 0.000109589)
(1.19978 0.0003313 0.000120292)
(1.1998 0.00031348 0.000128941)
(1.19966 0.000475787 0.000154078)
(1.19965 0.000469742 0.000171436)
(1.19969 0.000450182 0.00016105)
(1.19965 0.000499729 0.000178241)
(1.19968 0.000471236 0.000188618)
(1.19948 0.000727915 0.000232586)
(1.19945 0.000718938 0.000260036)
(1.19952 0.000687386 0.000243267)
(1.19946 0.000765645 0.000270595)
(1.19951 0.000720085 0.000284613)
(1.1992 0.00112923 0.000357456)
(1.19916 0.00111598 0.000401078)
(1.19926 0.00106373 0.000373859)
(1.19918 0.00118901 0.000416448)
(1.19925 0.00111496 0.000436538)
(1.1988 0.00177127 0.000551597)
(1.19872 0.00175301 0.000621244)
(1.19889 0.00166531 0.000576501)
(1.19877 0.00186465 0.000643177)
(1.19887 0.00174458 0.000673656)
(1.19823 0.00279093 0.000861647)
(1.19811 0.00276982 0.000972715)
(1.19836 0.00261994 0.000897204)
(1.1982 0.00293365 0.00100432)
(1.19835 0.00274058 0.00104759)
(1.19749 0.00437169 0.001371)
(1.19731 0.00435602 0.00154733)
(1.19767 0.00410249 0.00141685)
(1.19747 0.00457637 0.00159329)
(1.19768 0.00427587 0.00165186)
(1.19661 0.0066418 0.00226645)
(1.19639 0.00664679 0.00252414)
(1.19684 0.00625436 0.00228977)
(1.19662 0.00688365 0.00259218)
(1.19694 0.00645591 0.00268771)
(1.19561 0.00909002 0.00405963)
(1.19536 0.00914117 0.004225)
(1.19577 0.00873935 0.00379562)
(1.1954 0.00919562 0.00432884)
(1.1962 0.00872148 0.00464171)
(1.19469 0.00717579 0.00852935)
(1.19453 0.00778186 0.00731866)
(1.19419 0.00828059 0.00653749)
(1.19389 0.0059953 0.00748293)
(1.19572 0.0064386 0.00834785)
(1.20282 -0.0453656 0.0149112)
(1.20802 -0.0272301 0.00933685)
(1.19791 -0.0268613 0.0095625)
(1.20546 -0.0561912 0.0074873)
(1.20069 -0.045597 0.0108127)
(1.19995 2.30556e-05 7.33598e-06)
(1.19998 3.9986e-05 1.38382e-05)
(1.19997 2.55414e-05 7.50176e-06)
(1.19995 2.31285e-05 7.58466e-06)
(1.19972 6.81379e-05 8.77358e-05)
(1.19979 7.17836e-05 7.58277e-05)
(1.19973 6.22255e-05 0.000100027)
(1.19991 6.3593e-05 9.0271e-05)
(1.19972 6.8233e-05 9.21798e-05)
(1.19932 4.05216e-05 0.000117526)
(1.19957 4.15356e-05 0.000120826)
(1.19952 3.98872e-05 0.000124752)
(1.19963 4.40171e-05 0.000122117)
(1.19933 4.06041e-05 0.000125696)
(1.19929 3.77596e-05 0.000151016)
(1.19937 3.79321e-05 0.000151598)
(1.19931 3.78091e-05 0.000164314)
(1.19968 4.7948e-05 0.000157704)
(1.1993 3.78981e-05 0.000163059)
(1.19907 3.85336e-05 0.000216608)
(1.19912 3.85065e-05 0.000215713)
(1.19905 3.86606e-05 0.000238045)
(1.19955 5.70455e-05 0.000226207)
(1.1991 3.85848e-05 0.000234232)
(1.19875 4.3128e-05 0.000330239)
(1.19882 4.18693e-05 0.00032677)
(1.19872 4.42234e-05 0.000364495)
(1.19931 7.28344e-05 0.000343842)
(1.19879 4.26432e-05 0.000356866)
(1.19829 5.7469e-05 0.000514405)
(1.19839 5.48353e-05 0.000508111)
(1.19825 5.97911e-05 0.000568767)
(1.19893 0.000104978 0.000535522)
(1.19836 5.6701e-05 0.000555579)
(1.19759 8.50935e-05 0.000816719)
(1.19774 8.01414e-05 0.000804182)
(1.19753 8.93573e-05 0.000904511)
(1.19834 0.000161754 0.000849209)
(1.1977 8.35807e-05 0.00088112)
(1.19648 0.000139511 0.00131735)
(1.19673 0.000128929 0.00129334)
(1.19639 0.000148158 0.00145944)
(1.1974 0.000264687 0.00136559)
(1.19666 0.000135515 0.00141733)
(1.19462 0.000267121 0.00215387)
(1.19504 0.00024068 0.00210679)
(1.19445 0.00028957 0.00238446)
(1.19588 0.000480447 0.00222226)
(1.19493 0.000256828 0.00230694)
(1.1912 0.000615592 0.00357042)
(1.192 0.000542507 0.00347151)
(1.19086 0.000685757 0.00393853)
(1.19329 0.001001 0.0036567)
(1.19175 0.00059151 0.00379027)
(1.18412 0.00173032 0.00597346)
(1.18576 0.00149619 0.00575393)
(1.18319 0.00199487 0.00651901)
(1.18861 0.00249412 0.00604386)
(1.18505 0.00167595 0.00623378)
(1.16615 0.00602549 0.00976524)
(1.17015 0.00512904 0.00930337)
(1.1627 0.00718867 0.0103454)
(1.17882 0.00785277 0.00970119)
(1.16753 0.00591454 0.00989695)
(1.10496 0.0243209 0.0135982)
(1.11807 0.0206278 0.0130912)
(1.08886 0.0295757 0.0135008)
(1.15094 0.0315258 0.0134879)
(1.10605 0.0241857 0.0133478)
(0.835767 0.0861202 0.00837401)
(0.886143 0.0806384 0.0107321)
(1.02526 0.1401 0.0114327)
(0.83465 0.0862986 0.00927918)
(0.960986 0.209112 0.0180797)
(0.547322 0.0881306 0.00719242)
(0.961486 0.209443 0.00199984)
(0.547151 0.0880338 0.000183812)
(1.19997 1.14729e-06 7.48967e-06)
(1.19997 3.10031e-06 7.51107e-06)
(1.2 3.08186e-06 1.39961e-05)
(1.19997 4.1644e-06 7.51085e-06)
(1.19997 1.14841e-06 7.80186e-06)
(1.19995 3.57163e-05 8.79247e-05)
(1.19995 4.48519e-05 9.02938e-05)
(1.2 2.87736e-05 7.60904e-05)
(1.19999 4.212e-05 9.99543e-05)
(1.19995 4.93238e-05 9.0104e-05)
(1.19995 3.53047e-05 9.25609e-05)
(1.19971 7.03328e-05 0.000115766)
(1.19971 6.94523e-05 0.000120639)
(1.19994 6.72665e-05 0.000119173)
(1.19992 7.32133e-05 0.000122881)
(1.19971 8.3486e-05 0.000119865)
(1.19971 6.9574e-05 0.000124018)
(1.19977 0.000103717 0.000149087)
(1.19978 9.75498e-05 0.000156009)
(1.19984 9.82403e-05 0.000149553)
(1.19981 0.000108562 0.000162109)
(1.19978 0.000118051 0.000154828)
(1.19979 0.000102531 0.000160835)
(1.19967 0.000155023 0.000213294)
(1.19967 0.000142251 0.000223372)
(1.1997 0.000146694 0.000212282)
(1.19966 0.000162358 0.000234022)
(1.19968 0.000172509 0.000221445)
(1.19969 0.000153086 0.000230332)
(1.19944 0.000234093 0.000321729)
(1.19945 0.000211415 0.000337378)
(1.19949 0.000220862 0.000318727)
(1.19943 0.000245062 0.000354746)
(1.19948 0.000257432 0.000333632)
(1.19948 0.000230326 0.000347696)
(1.1991 0.000359441 0.000498986)
(1.19911 0.000322702 0.00052353)
(1.19918 0.000337673 0.000492977)
(1.19907 0.000377021 0.000551446)
(1.19915 0.000392576 0.000516691)
(1.19916 0.00035257 0.000539057)
(1.19857 0.000566183 0.000787547)
(1.19858 0.000506778 0.000826554)
(1.19869 0.000529394 0.000776088)
(1.19853 0.000594832 0.000871158)
(1.19866 0.000615233 0.00081362)
(1.19867 0.000553201 0.000849401)
(1.19773 0.000919678 0.00125883)
(1.19776 0.000822588 0.00132137)
(1.19793 0.000854771 0.00123743)
(1.19768 0.00096901 0.00139274)
(1.19788 0.000994435 0.00129676)
(1.1979 0.000894994 0.00135451)
(1.19642 0.00155397 0.00203349)
(1.19645 0.00139493 0.00213311)
(1.19674 0.00143414 0.00199228)
(1.19635 0.00164446 0.00224705)
(1.19668 0.00167067 0.00208536)
(1.19669 0.0015061 0.00217823)
(1.19437 0.00277385 0.00331578)
(1.19438 0.0025219 0.00347017)
(1.19487 0.00253619 0.00323128)
(1.19427 0.00295653 0.00364866)
(1.19484 0.00296299 0.00337386)
(1.19481 0.0026773 0.00352047)
(1.19133 0.00535632 0.00541557)
(1.19126 0.0050255 0.0056369)
(1.19209 0.00484043 0.00523618)
(1.19125 0.00577549 0.00588887)
(1.19226 0.00568964 0.00543801)
(1.19203 0.0051568 0.00565344)
(1.18787 0.0114817 0.00853593)
(1.18734 0.0114977 0.00879813)
(1.18867 0.0102433 0.00818235)
(1.18801 0.0125943 0.00899961)
(1.18986 0.0120874 0.00838913)
(1.18875 0.0110705 0.00865095)
(1.18696 0.0304536 0.0115192)
(1.19031 0.0277388 0.0113379)
(1.1891 0.0243808 0.0108709)
(1.1918 0.0305983 0.0109712)
(1.19042 0.0268969 0.011257)
(1.19363 0.0276426 0.0106851)
(1.22147 0.0772293 0.00785954)
(1.23141 0.0641204 0.00795297)
(1.21951 0.0567205 0.00792897)
(1.24008 0.0642593 0.00535318)
(1.22865 0.0625219 0.00840562)
(1.22994 0.0546866 0.00627667)
(1.19997 4.09195e-06 7.37791e-06)
(1.19997 3.95349e-06 7.5127e-06)
(1.2 8.69562e-06 1.38675e-05)
(1.19997 4.29681e-06 7.51162e-06)
(1.19997 4.09197e-06 7.75315e-06)
(1.19995 6.80861e-05 8.6937e-05)
(1.19995 6.59293e-05 8.92019e-05)
(1.19999 5.60572e-05 7.51635e-05)
(1.19998 7.84408e-05 9.83838e-05)
(1.19995 7.05962e-05 8.88072e-05)
(1.19995 6.75141e-05 9.15316e-05)
(1.19971 0.000121627 0.000112454)
(1.19971 0.00011677 0.000117232)
(1.19994 0.000116835 0.000115881)
(1.19993 0.000126395 0.000119194)
(1.19972 0.000125151 0.000116171)
(1.19972 0.000120574 0.00012048)
(1.19981 0.000175478 0.000143251)
(1.19981 0.000167957 0.000150189)
(1.19987 0.000166713 0.000143877)
(1.19985 0.000183239 0.000155585)
(1.19982 0.000180253 0.000148329)
(1.19982 0.000173612 0.000154509)
(1.19974 0.000258235 0.000203274)
(1.19974 0.000246716 0.000213573)
(1.19977 0.000244666 0.000202574)
(1.19974 0.000270004 0.000222663)
(1.19976 0.000265165 0.000210313)
(1.19976 0.000254964 0.000219547)
(1.19958 0.000387118 0.000302578)
(1.19958 0.000369364 0.000318586)
(1.19962 0.000365379 0.000300158)
(1.19957 0.000405168 0.000333107)
(1.19962 0.000396745 0.000312431)
(1.19961 0.00038094 0.000326949)
(1.19933 0.000590622 0.000463596)
(1.19932 0.000562769 0.000489036)
(1.19939 0.000555591 0.000458845)
(1.19932 0.0006185 0.000511488)
(1.19939 0.000604091 0.000477777)
(1.19939 0.000579325 0.000500936)
(1.19895 0.000918398 0.00072091)
(1.19894 0.000874828 0.000761458)
(1.19905 0.000860191 0.000711789)
(1.19894 0.000962852 0.000795984)
(1.19905 0.000936321 0.000740656)
(1.19904 0.000897534 0.000777738)
(1.19838 0.00145719 0.00113376)
(1.19836 0.0013899 0.0011989)
(1.19853 0.00135951 0.00111697)
(1.19837 0.00152848 0.00125137)
(1.19855 0.00147812 0.00116056)
(1.19853 0.00141875 0.00122025)
(1.19756 0.0023558 0.00179262)
(1.19752 0.00225525 0.00189746)
(1.19779 0.00218798 0.00176158)
(1.19756 0.00247179 0.00197469)
(1.19783 0.00237015 0.00182485)
(1.19779 0.00228301 0.00192083)
(1.19649 0.00387429 0.00284418)
(1.19641 0.00374075 0.0030084)
(1.1968 0.00358431 0.00278263)
(1.19653 0.00406228 0.00311906)
(1.19692 0.00384827 0.00287243)
(1.19685 0.00373802 0.0030221)
(1.19549 0.00639897 0.00449603)
(1.19532 0.00629602 0.00473411)
(1.19584 0.00591124 0.00437045)
(1.19572 0.00668425 0.00487414)
(1.19616 0.00621855 0.00448791)
(1.19604 0.00615222 0.00470338)
(1.19631 0.0101564 0.00683851)
(1.19597 0.0104183 0.00711159)
(1.19631 0.00944945 0.0066035)
(1.19708 0.0104532 0.00719422)
(1.19705 0.00946385 0.00671102)
(1.19695 0.00975494 0.00696801)
(1.20525 0.0132738 0.00887196)
(1.20389 0.0153551 0.00863575)
(1.20293 0.012777 0.00833242)
(1.20673 0.0129103 0.00821378)
(1.20404 0.0112168 0.00814201)
(1.20514 0.012781 0.00893635)
(1.23547 0.00912673 0.00649387)
(1.23003 0.0150147 0.00337759)
(1.22651 0.0098082 0.00442888)
(1.23571 0.00786059 0.00149221)
(1.22791 0.00538472 0.0030663)
(1.23237 0.00882429 0.00623448)
(1.19997 4.79386e-06 7.2727e-06)
(1.19997 4.79158e-06 7.45905e-06)
(1.2 9.82879e-06 1.36938e-05)
(1.19997 4.77318e-06 7.66096e-06)
(1.19995 8.16234e-05 8.5579e-05)
(1.19995 8.03404e-05 8.74622e-05)
(1.2 6.65234e-05 7.37758e-05)
(1.19999 9.42462e-05 9.61038e-05)
(1.19995 8.08196e-05 8.99108e-05)
(1.19974 0.00014306 0.000107855)
(1.19974 0.000141025 0.000112582)
(1.19997 0.000137956 0.000111345)
(1.19996 0.000148302 0.000114143)
(1.19974 0.000141859 0.00011571)
(1.19987 0.000205228 0.000135217)
(1.19986 0.000202413 0.000142086)
(1.19993 0.000194823 0.000136134)
(1.19991 0.000214428 0.000146621)
(1.19988 0.000202952 0.000145992)
(1.19985 0.00030357 0.000188939)
(1.19984 0.000298968 0.000199126)
(1.19987 0.00028746 0.000188687)
(1.19985 0.000317246 0.000206583)
(1.19987 0.000299478 0.000204146)
(1.19976 0.000453415 0.000276211)
(1.19975 0.000446213 0.000291836)
(1.19979 0.000428226 0.000274761)
(1.19976 0.000474257 0.000303426)
(1.19979 0.000446236 0.000298656)
(1.19963 0.000688064 0.00041561)
(1.19961 0.00067658 0.000440043)
(1.19967 0.000647738 0.000412103)
(1.19963 0.000719835 0.000457399)
(1.19968 0.000674907 0.000448922)
(1.19943 0.00105712 0.000634174)
(1.19941 0.00103937 0.000672783)
(1.1995 0.000992313 0.000627745)