/*--------------------------------*- C++ -*----------------------------------*\
| =========                 |                                                 |
| \\      /  F ield         | OpenFOAM: The Open Source CFD Toolbox           |
|  \\    /   O peration     | Version:  2012                                  |
|   \\  /    A nd           | Website:  www.openfoam.com                      |
|    \\/     M anipulation  |                                                 |
\*---------------------------------------------------------------------------*/
FoamFile
{
    version     2.0;
    format      ascii;
    class       volVectorField;
    location    "0.105/fluid";
    object      cellMotionU;
}
// * * * * * * * * * * * * * * * * * * * * * * * * * * * * * * * * * * * * * //

dimensions      [0 1 -1 0 0 0 0];


internalField   nonuniform List<vector> 
16422
(
(-8.83276e-06 -6.00733e-06 3.65907e-08)
(-8.25742e-05 -5.67609e-05 3.80157e-07)
(-0.000170715 -0.000100716 7.00468e-07)
(-0.000253918 -0.000128326 9.66294e-07)
(-0.000319125 -0.000140296 1.21121e-06)
(-0.000364029 -0.000138961 1.42465e-06)
(-0.000388698 -0.000125857 1.5813e-06)
(-0.000392638 -0.000103373 1.61686e-06)
(-0.000374496 -7.73018e-05 1.61817e-06)
(-0.000336177 -5.4757e-05 1.44859e-06)
(-0.000276722 -3.59502e-05 1.16298e-06)
(-0.000199839 -1.89464e-05 5.08617e-07)
(-0.000118456 -2.27514e-06 -5.81858e-07)
(-5.22749e-05 5.33739e-06 -1.44852e-06)
(-8.76559e-06 6.71642e-07 -2.42314e-07)
(-1.11544e-05 -4.79525e-06 3.97404e-08)
(-0.00010351 -4.49913e-05 3.94215e-07)
(-0.000206921 -7.94187e-05 7.08685e-07)
(-0.000301406 -0.000101295 9.73081e-07)
(-0.000376433 -0.000111267 1.21157e-06)
(-0.00043079 -0.000109944 1.41067e-06)
(-0.000461908 -9.84819e-05 1.51677e-06)
(-0.00046788 -7.92297e-05 1.5005e-06)
(-0.000450128 -5.67917e-05 1.39456e-06)
(-0.000409373 -3.73195e-05 1.20834e-06)
(-0.000343566 -2.20963e-05 8.37281e-07)
(-0.000256048 -9.44439e-06 1.60207e-07)
(-0.000162992 2.75019e-06 -8.59023e-07)
(-8.74153e-05 9.28178e-06 -1.76399e-06)
(-3.53893e-05 6.58773e-06 -1.49491e-06)
(-1.30087e-05 -2.47746e-06 4.13808e-08)
(-0.000119493 -2.30935e-05 3.94364e-07)
(-0.000232645 -4.09896e-05 6.94607e-07)
(-0.00033354 -5.29129e-05 9.48074e-07)
(-0.000413611 -5.86544e-05 1.16905e-06)
(-0.000473196 -5.79136e-05 1.33212e-06)
(-0.000508619 -5.15124e-05 1.40513e-06)
(-0.000516725 -4.09205e-05 1.33575e-06)
(-0.000500366 -2.86263e-05 1.13927e-06)
(-0.000459636 -1.76315e-05 8.05402e-07)
(-0.000393201 -8.87201e-06 2.87782e-07)
(-0.00030554 -1.95271e-06 -4.49754e-07)
(-0.000210227 4.87013e-06 -1.34572e-06)
(-0.000125734 9.77729e-06 -1.9684e-06)
(-6.47125e-05 1.07536e-05 -1.69461e-06)
(-9.30863e-06 -6.11555e-06 3.83715e-07)
(-8.60727e-05 -5.50717e-05 3.4941e-06)
(-0.000174973 -9.76288e-05 6.43164e-06)
(-0.000256597 -0.000124525 8.98167e-06)
(-0.000317851 -0.000137174 1.12779e-05)
(-0.000356853 -0.000137471 1.31888e-05)
(-0.000374587 -0.000125911 1.45084e-05)
(-0.000371078 -0.000105032 1.4997e-05)
(-0.000347194 -7.96693e-05 1.45521e-05)
(-0.000304219 -5.56806e-05 1.32001e-05)
(-0.00024452 -3.41656e-05 1.03321e-05)
(-0.000172513 -1.37784e-05 4.39503e-06)
(-0.000105524 4.34387e-06 -5.81943e-06)
(-5.65657e-05 1.055e-05 -1.39046e-05)
(-5.27109e-06 5.49281e-07 -2.23371e-06)
(-1.18252e-05 -4.95668e-06 4.1711e-07)
(-0.000107789 -4.3946e-05 3.66188e-06)
(-0.000211811 -7.6737e-05 6.49011e-06)
(-0.000305306 -9.78049e-05 8.88368e-06)
(-0.000377114 -0.000108154 1.10049e-05)
(-0.000425138 -0.000108101 1.26953e-05)
(-0.000448493 -9.81463e-05 1.36225e-05)
(-0.000447451 -8.02267e-05 1.35091e-05)
(-0.000423453 -5.88953e-05 1.23894e-05)
(-0.000377772 -3.85202e-05 1.02376e-05)
(-0.000311744 -2.12626e-05 6.68146e-06)
(-0.000231532 -5.59208e-06 5.66903e-07)
(-0.000152444 8.25113e-06 -8.34536e-06)
(-8.83446e-05 1.39944e-05 -1.59673e-05)
(-3.92955e-05 8.09384e-06 -1.30652e-05)
(-1.37299e-05 -2.56586e-06 4.18149e-07)
(-0.000123965 -2.26187e-05 3.62214e-06)
(-0.000238063 -3.95556e-05 6.32089e-06)
(-0.000338038 -5.07808e-05 8.56976e-06)
(-0.000415488 -5.65733e-05 1.05049e-05)
(-0.000469024 -5.66303e-05 1.19112e-05)
(-0.000496575 -5.1244e-05 1.24238e-05)
(-0.000497746 -4.14375e-05 1.17559e-05)
(-0.000474593 -2.97191e-05 9.86604e-06)
(-0.000428771 -1.86025e-05 6.62466e-06)
(-0.000361948 -9.03337e-06 1.7677e-06)
(-0.000281539 -4.69078e-07 -4.90879e-06)
(-0.0001992 7.62639e-06 -1.26966e-05)
(-0.000126368 1.31095e-05 -1.80318e-05)
(-7.32292e-05 1.41447e-05 -1.54199e-05)
(-1.00404e-05 -5.73e-06 6.88922e-07)
(-9.15143e-05 -5.11524e-05 6.10057e-06)
(-0.000180869 -8.99676e-05 1.09215e-05)
(-0.0002593 -0.000115746 1.51896e-05)
(-0.000312764 -0.000129815 1.90875e-05)
(-0.000339084 -0.000132994 2.23187e-05)
(-0.000340249 -0.000125979 2.44613e-05)
(-0.000320643 -0.00010939 2.51043e-05)
(-0.000282335 -8.61945e-05 2.40016e-05)
(-0.000227096 -5.94074e-05 2.10088e-05)
(-0.000161124 -3.30319e-05 1.55679e-05)
(-9.6011e-05 -8.30741e-06 5.53515e-06)
(-5.48332e-05 1.15886e-05 -1.11782e-05)
(-4.68555e-05 1.40432e-05 -2.35646e-05)
(2.98906e-06 -4.03666e-06 -5.17669e-06)
(-1.24954e-05 -4.59385e-06 7.32204e-07)
(-0.000112804 -4.02597e-05 6.27466e-06)
(-0.000218905 -7.03142e-05 1.10072e-05)
(-0.000310386 -9.01792e-05 1.50223e-05)
(-0.000374888 -0.000101295 1.85525e-05)
(-0.000409992 -0.000103674 2.12751e-05)
(-0.000417348 -9.72498e-05 2.26449e-05)
(-0.000399183 -8.32251e-05 2.23159e-05)
(-0.000359316 -6.44064e-05 2.00806e-05)
(-0.000302039 -4.32782e-05 1.57357e-05)
(-0.000231582 -2.19701e-05 8.924e-06)
(-0.000162324 -1.33346e-06 -1.63698e-06)
(-0.000107566 1.51571e-05 -1.65696e-05)
(-7.56449e-05 1.74871e-05 -2.76898e-05)
(-4.19728e-05 6.6025e-06 -2.21582e-05)
(-1.42595e-05 -2.38358e-06 7.30045e-07)
(-0.000128381 -2.08331e-05 6.20248e-06)
(-0.000245738 -3.62689e-05 1.07235e-05)
(-0.000344307 -4.65261e-05 1.44507e-05)
(-0.000415224 -5.24627e-05 1.7586e-05)
(-0.000456505 -5.3847e-05 1.97933e-05)
(-0.000468649 -5.03128e-05 2.04512e-05)
(-0.000453436 -4.26578e-05 1.90876e-05)
(-0.000414931 -3.24994e-05 1.5512e-05)
(-0.000357468 -2.1583e-05 9.6238e-06)
(-0.000289305 -1.04949e-05 1.17312e-06)
(-0.000220849 8.66831e-07 -1.00723e-05)
(-0.000161368 1.09512e-05 -2.28156e-05)
(-0.000115973 1.62374e-05 -3.12581e-05)
(-8.05094e-05 1.62282e-05 -2.71098e-05)
(-4.31748e-06 2.2995e-07 2.03959e-07)
(6.17933e-07 1.05764e-07 -1.00593e-07)
(-1.68965e-07 6.89262e-07 1.36764e-06)
(1.23871e-05 2.93418e-07 -3.83522e-07)
(2.87703e-06 1.20637e-06 1.67147e-06)
(1.46528e-05 1.69043e-07 -3.07353e-07)
(1.27915e-05 -9.71776e-07 9.09682e-07)
(3.80188e-05 -8.63275e-06 9.35415e-09)
(1.75387e-05 -2.43922e-06 7.33952e-07)
(4.07876e-05 -9.60481e-06 -2.63388e-09)
(-4.62537e-05 4.42584e-06 -1.33272e-06)
(-1.12223e-05 1.22958e-06 -3.49337e-07)
(-5.07413e-05 8.15709e-06 -1.04707e-05)
(-1.11048e-05 2.05317e-06 -2.64635e-06)
(-2.45375e-06 1.66152e-07 8.42346e-08)
(-2.66824e-07 4.27521e-07 1.69534e-06)
(4.67692e-07 1.28644e-07 -1.03268e-07)
(-2.80552e-05 4.4486e-06 -1.3013e-06)
(-8.6811e-06 3.51119e-06 -5.86281e-07)
(-6.19286e-06 8.1144e-07 -1.42558e-06)
(9.45881e-06 -5.04705e-07 -2.72303e-07)
(-2.97884e-05 4.91523e-06 -8.91753e-06)
(-5.93103e-06 3.95019e-06 -4.26428e-06)
(-5.15457e-05 9.47916e-06 -1.33509e-05)
(-1.01068e-05 2.37394e-06 -3.35389e-06)
(-4.84165e-05 1.25352e-05 -2.11503e-05)
(-6.68933e-06 7.96285e-07 -6.54337e-06)
(8.36872e-06 2.32052e-06 4.43642e-06)
(1.26936e-05 2.30352e-06 4.77549e-06)
(1.42595e-05 -1.39695e-06 -2.05689e-07)
(-3.06117e-05 4.89498e-06 -1.12494e-05)
(-4.04224e-06 3.82172e-06 -5.31514e-06)
(1.93462e-06 -1.99043e-06 -3.95731e-06)
(3.22596e-05 -8.25913e-06 -2.51439e-07)
(-3.21976e-05 3.17706e-06 -1.75778e-05)
(3.30978e-06 1.86203e-06 -8.17572e-06)
(-4.28426e-05 1.22213e-05 -2.26213e-05)
(-3.74786e-06 -3.04506e-07 -7.20838e-06)
(2.70246e-05 -5.29084e-07 4.33929e-06)
(3.2032e-05 -2.55987e-06 3.93127e-06)
(3.82441e-05 -1.03404e-05 -3.57623e-07)
(-3.14808e-05 1.77597e-06 -1.90711e-05)
(6.21833e-06 4.26498e-07 -8.73174e-06)
(-1.59946e-06 2.44435e-08 5.49975e-07)
(-5.85491e-07 -1.55892e-07 6.56939e-07)
(-3.6149e-06 1.14579e-07 6.97996e-07)
(-3.94933e-07 1.07731e-07 1.96508e-06)
(9.39209e-07 -1.89347e-07 1.94818e-06)
(-2.43636e-07 -2.56465e-08 1.50863e-07)
(3.64408e-06 6.81644e-07 -4.93564e-07)
(2.14967e-06 7.69156e-07 1.19874e-06)
(4.96436e-06 1.97657e-06 4.01616e-06)
(2.07578e-06 1.02396e-06 3.16967e-06)
(-1.95502e-06 5.29405e-08 1.26074e-06)
(5.07437e-06 1.57825e-06 4.22222e-06)
(7.4942e-06 9.87075e-07 4.32257e-06)
(1.97316e-06 7.88699e-08 3.34933e-06)
(3.71248e-06 -8.28947e-08 3.22792e-06)
(5.16129e-06 1.06065e-06 -5.38328e-07)
(9.21189e-06 2.33476e-06 2.88222e-06)
(3.40485e-06 1.2766e-06 1.63103e-06)
(9.35432e-06 2.39706e-06 5.06771e-06)
(1.23656e-05 1.66935e-06 5.32787e-06)
(6.07747e-06 1.00791e-06 1.63509e-06)
(1.39598e-05 2.50287e-06 5.50485e-06)
(1.76353e-05 1.444e-06 5.96778e-06)
(1.12259e-05 2.87315e-06 3.27042e-06)
(2.42209e-05 -2.63027e-06 2.53362e-08)
(1.92344e-05 1.94668e-06 4.204e-06)
(2.26417e-05 1.02229e-06 4.84094e-06)
(1.80603e-05 2.07728e-06 5.13162e-06)
(1.04478e-05 5.63696e-07 1.73681e-06)
(2.42553e-05 1.26671e-06 5.64767e-06)
(2.92808e-05 -5.82156e-07 6.53719e-06)
(1.97944e-05 2.23749e-06 5.99574e-06)
(2.39444e-05 9.53055e-07 6.5362e-06)
(2.70179e-05 -3.62932e-06 7.46197e-08)
(3.02743e-05 -1.55461e-06 4.55335e-06)
(2.18848e-05 1.73845e-06 4.46445e-06)
(3.0371e-05 3.37937e-08 5.68031e-06)
(3.58551e-05 -2.05026e-06 6.63799e-06)
(2.10727e-05 -4.50593e-06 9.87384e-08)
(3.53921e-05 -2.03718e-06 5.27261e-06)
(4.12936e-05 -4.44822e-06 6.32337e-06)
(3.30692e-05 -2.09654e-06 4.62256e-06)
(5.15643e-05 -1.34031e-05 8.36698e-09)
(4.11739e-05 -6.27344e-06 4.26851e-06)
(3.66112e-05 -5.86133e-06 3.33279e-06)
(2.48684e-05 -7.74492e-06 -4.92425e-07)
(3.9966e-05 -5.42923e-06 4.76446e-06)
(4.61658e-05 -7.85525e-06 5.88479e-06)
(5.43798e-05 -1.45083e-05 -6.38995e-08)
(4.38725e-05 -7.34798e-06 4.20525e-06)
(1.00976e-06 3.18435e-07 1.85202e-06)
(3.50353e-06 1.24622e-06 4.25822e-06)
(3.059e-06 1.43968e-06 3.89263e-06)
(1.92095e-06 6.11012e-07 2.81244e-06)
(1.72932e-06 7.63328e-07 2.72488e-06)
(2.44519e-06 9.34619e-07 3.2419e-06)
(1.1422e-07 1.09714e-08 5.31331e-07)
(-9.44329e-08 -4.1279e-08 7.57045e-08)
(6.00857e-07 1.34445e-07 1.21772e-06)
(1.71238e-05 3.07444e-06 7.16771e-06)
(2.59158e-05 3.51955e-06 9.91549e-06)
(2.32681e-05 5.60474e-06 9.34564e-06)
(2.2296e-05 3.86186e-06 9.57096e-06)
(2.00984e-05 5.65352e-06 9.03652e-06)
(2.09788e-05 3.26262e-06 7.75295e-06)
(1.48151e-05 3.20622e-06 6.95099e-06)
(1.55614e-05 3.71608e-06 8.52012e-06)
(1.39573e-05 5.12345e-06 7.94252e-06)
(1.22234e-05 3.41684e-06 6.71649e-06)
(1.90705e-05 4.03423e-06 9.15495e-06)
(1.72043e-05 5.59091e-06 8.64602e-06)
(4.17295e-05 -1.31361e-06 7.49694e-06)
(5.76236e-05 -1.54426e-06 1.05148e-05)
(5.16302e-05 1.59384e-06 9.98268e-06)
(5.41247e-05 -3.76139e-08 1.07974e-05)
(4.8709e-05 2.86541e-06 1.03006e-05)
(4.62521e-05 -2.28094e-06 7.61344e-06)
(3.9295e-05 -2.52509e-07 7.73907e-06)
(4.56675e-05 1.56251e-06 1.08388e-05)
(4.10865e-05 4.24978e-06 1.03016e-05)
(3.67381e-05 1.14711e-06 8.16082e-06)
(5.04665e-05 1.05438e-06 1.09394e-05)
(4.55163e-05 3.7542e-06 1.04785e-05)
(2.9738e-06 2.24655e-06 3.64349e-06)
(3.10474e-07 2.59748e-07 -1.60178e-10)
(2.10158e-06 1.35443e-06 -1.47824e-07)
(6.67844e-07 5.493e-07 -1.45084e-08)
(1.19281e-06 5.84358e-08 2.27759e-06)
(3.10315e-06 9.11309e-07 3.83661e-06)
(3.80224e-06 3.75968e-07 4.00979e-06)
(1.84284e-06 5.85069e-07 2.7711e-06)
(2.31322e-06 2.4381e-07 2.92527e-06)
(2.56946e-06 2.24589e-07 3.29328e-06)
(3.83379e-07 -6.71026e-08 1.40518e-06)
(1.09561e-07 -8.94073e-08 3.71993e-07)
(3.67527e-07 -2.41499e-07 6.19188e-07)
(8.10173e-07 9.72111e-08 1.57382e-06)
(1.15736e-06 -1.4964e-07 1.79731e-06)
(-1.2427e-07 -1.03064e-07 4.01815e-07)
(1.48469e-06 1.27083e-06 1.57886e-07)
(3.68005e-06 1.90177e-06 2.60974e-06)
(1.58524e-06 6.95748e-07 1.49952e-06)
(3.64728e-06 3.07139e-06 6.22717e-07)
(1.01106e-06 7.6317e-07 -8.04462e-08)
(1.72229e-07 1.2044e-07 -8.18544e-08)
(9.88237e-07 5.10374e-07 -5.20679e-07)
(1.56144e-07 1.12396e-07 -3.13402e-08)
(1.46788e-06 1.16323e-06 -2.73487e-08)
(3.58226e-06 1.57115e-06 -8.38157e-07)
(3.6143e-06 2.76737e-06 2.74264e-07)
(1.4382e-06 7.40332e-07 -6.27942e-07)
(1.00124e-06 7.39364e-07 1.20106e-07)
(2.34848e-07 -1.1815e-07 1.5987e-07)
(1.16644e-06 3.41967e-07 1.18689e-06)
(1.50227e-07 8.14884e-08 -4.04963e-09)
(5.66271e-06 1.81914e-06 4.92993e-06)
(5.30447e-06 2.09597e-06 5.42748e-06)
(4.60182e-06 1.92703e-06 4.92479e-06)
(3.84474e-06 1.61227e-06 4.21519e-06)
(7.59085e-06 2.77812e-06 6.44681e-06)
(6.69373e-06 2.81233e-06 5.90248e-06)
(7.47076e-06 2.61931e-06 5.58426e-06)
(1.27372e-05 3.61077e-06 7.95391e-06)
(1.14069e-05 4.74818e-06 7.38197e-06)
(1.01568e-05 3.28018e-06 6.34492e-06)
(9.96276e-06 3.49236e-06 7.27816e-06)
(8.91592e-06 4.04258e-06 6.71912e-06)
(3.53204e-06 2.95443e-06 4.06082e-06)
(6.11614e-06 4.39114e-06 5.13941e-06)
(8.16749e-06 2.0562e-06 -1.00768e-06)
(5.3231e-06 2.35873e-06 -5.53314e-07)
(2.5665e-06 1.6469e-06 -1.76162e-07)
(4.6371e-06 2.23173e-06 -4.39184e-07)
(6.87907e-06 4.86512e-06 5.38661e-06)
(5.74095e-06 -9.84645e-08 4.89755e-06)
(4.6753e-06 8.85803e-07 4.87105e-06)
(5.66184e-06 4.23246e-07 5.07748e-06)
(4.09605e-06 3.08021e-07 4.20018e-06)
(6.89218e-06 2.02408e-06 5.89158e-06)
(8.17586e-06 1.29816e-06 6.16397e-06)
(7.89164e-06 1.7515e-06 5.57382e-06)
(1.17815e-05 4.34246e-06 7.43163e-06)
(1.39053e-05 2.93354e-06 7.97203e-06)
(9.27986e-06 3.67939e-06 6.73396e-06)
(1.09864e-05 2.63131e-06 7.13118e-06)
(1.09875e-05 2.80569e-06 6.51727e-06)
(7.4665e-06 5.34584e-06 1.47646e-06)
(4.35412e-06 2.23892e-06 2.96351e-06)
(4.39072e-06 3.57842e-06 8.1029e-07)
(7.57804e-06 3.67313e-06 4.20282e-06)
(8.48067e-06 5.36794e-06 1.09235e-06)
(1.22143e-05 2.41354e-06 -6.27297e-07)
(8.33516e-06 2.57762e-06 -8.18363e-07)
(1.22743e-05 6.35958e-06 1.68766e-06)
(7.40315e-06 4.59005e-06 9.47491e-07)
(4.2989e-06 1.82099e-06 -8.49639e-07)
(4.34107e-06 3.21317e-06 4.23332e-07)
(7.30117e-06 2.37525e-06 -8.36613e-07)
(8.38861e-06 5.58434e-06 1.70562e-06)
(1.25195e-05 5.61034e-06 5.58921e-06)
(8.60138e-06 4.51698e-06 4.5101e-06)
(1.2163e-05 6.94003e-06 2.39077e-06)
(9.00215e-06 1.88459e-06 -1.14984e-06)
(1.26801e-05 9.65997e-07 -1.48499e-06)
(1.76533e-05 -1.18621e-06 -1.87598e-06)
(1.37825e-05 3.96587e-07 -1.55355e-06)
(1.88009e-05 3.15456e-06 7.85871e-06)
(2.41199e-05 5.36185e-06 9.6441e-06)
(2.81525e-05 3.28987e-06 1.05701e-05)
(2.09215e-05 5.42692e-06 9.30524e-06)
(2.44505e-05 3.57607e-06 1.01218e-05)
(2.2996e-05 3.42734e-06 8.52774e-06)
(1.63087e-05 3.21834e-06 7.55035e-06)
(1.4615e-05 4.96533e-06 8.1461e-06)
(1.72214e-05 3.43968e-06 8.79907e-06)
(1.79833e-05 5.44924e-06 8.87681e-06)
(1.36497e-05 3.46216e-06 7.1566e-06)
(2.10035e-05 3.72987e-06 9.57738e-06)
(1.91401e-05 7.45265e-06 3.49306e-06)
(2.4518e-05 6.5061e-06 7.73008e-06)
(1.96452e-05 6.58866e-06 7.07579e-06)
(2.39339e-05 7.04049e-06 4.04808e-06)
(1.78428e-05 6.39026e-06 2.47253e-06)
(1.33304e-05 2.3033e-06 -5.64865e-07)
(1.33576e-05 6.43173e-06 1.88243e-06)
(1.7692e-05 1.69178e-06 -4.38086e-07)
(1.76355e-05 7.09321e-06 3.27164e-06)
(1.37569e-05 6.12528e-06 5.89115e-06)
(1.32505e-05 6.9605e-06 2.60983e-06)
(1.8464e-05 6.57665e-06 6.85271e-06)
(1.90524e-05 5.87762e-06 2.64174e-06)
(2.39733e-05 -2.72054e-07 -2.06275e-07)
(2.3803e-05 5.42722e-06 3.12307e-06)
(1.89768e-05 1.32398e-06 -3.85889e-07)
(2.67392e-05 2.41601e-06 7.9006e-06)
(2.97379e-05 3.52748e-06 1.03163e-05)
(2.67788e-05 5.66482e-06 9.77414e-06)
(2.40409e-05 3.34234e-06 8.07604e-06)
(3.3977e-05 3.26404e-06 1.06319e-05)
(3.05926e-05 5.51077e-06 1.0102e-05)
(2.98021e-05 2.18579e-06 8.05149e-06)
(4.19092e-05 2.28623e-06 1.08582e-05)
(3.77445e-05 4.85806e-06 1.03402e-05)
(3.41483e-05 1.91353e-06 8.30372e-06)
(3.80137e-05 3.0489e-06 1.08622e-05)
(3.43311e-05 5.35675e-06 1.03684e-05)
(2.89306e-05 2.59532e-06 8.81613e-06)
(2.77557e-05 5.47505e-06 1.01006e-05)
(3.23231e-05 3.29613e-06 1.10661e-05)
(2.64389e-05 3.50812e-06 8.94148e-06)
(3.16658e-05 5.29579e-06 1.04553e-05)
(3.66792e-05 3.06684e-06 1.14458e-05)
(3.22687e-05 2.30423e-06 9.01236e-06)
(3.87172e-05 4.5354e-06 1.06797e-05)
(4.48522e-05 2.0184e-06 1.18044e-05)
(3.54999e-05 5.19259e-06 1.07307e-05)
(4.10656e-05 2.84674e-06 1.17451e-05)
(3.69127e-05 2.07177e-06 9.32677e-06)
(3.03594e-05 5.54603e-06 4.54007e-06)
(2.61173e-05 6.63591e-06 7.93144e-06)
(2.52251e-05 6.616e-06 4.16693e-06)
(3.15641e-05 5.86569e-06 8.4206e-06)
(3.19674e-05 3.23212e-06 3.63718e-06)
(3.74063e-05 -5.89935e-06 -1.03302e-08)
(3.19305e-05 -3.34141e-06 -8.14732e-08)
(3.71917e-05 1.77493e-06 3.80192e-06)
(3.02086e-05 3.42193e-06 3.51367e-06)
(2.5288e-05 -7.64281e-07 -1.67665e-07)
(2.50654e-05 4.91014e-06 3.21086e-06)
(3.02849e-05 -2.60599e-06 -1.19458e-07)
(3.16242e-05 4.86259e-06 4.55549e-06)
(3.84252e-05 4.57659e-06 8.72135e-06)
(3.3234e-05 5.76941e-06 8.53021e-06)
(3.68944e-05 3.89562e-06 4.77358e-06)
(4.56635e-05 -7.22044e-07 8.96184e-06)
(5.31432e-05 1.45354e-06 1.06045e-05)
(6.15072e-05 -1.39642e-06 1.1902e-05)
(5.02866e-05 2.75291e-06 1.08803e-05)
(5.80214e-05 7.57514e-08 1.20865e-05)
(5.0472e-05 -1.67696e-06 9.11498e-06)
(4.31993e-05 3.07619e-07 9.18337e-06)
(4.26827e-05 4.20903e-06 1.08533e-05)
(4.945e-05 1.68416e-06 1.20148e-05)
(4.71381e-05 3.71467e-06 1.10231e-05)
(4.07454e-05 1.78212e-06 9.5139e-06)
(5.43179e-05 1.15107e-06 1.21616e-05)
(4.52878e-05 9.13241e-07 4.94563e-06)
(5.19023e-05 8.36415e-07 8.79334e-06)
(4.71708e-05 2.71865e-06 8.94242e-06)
(5.04384e-05 -6.7501e-07 4.92241e-06)
(4.39109e-05 -9.79491e-07 3.88101e-06)
(3.87749e-05 -6.36035e-06 -2.20021e-08)
(3.84768e-05 1.22081e-06 3.80579e-06)
(4.39849e-05 -8.40659e-06 -7.27302e-08)
(4.34461e-05 1.41281e-06 4.86638e-06)
(4.02287e-05 4.53824e-06 8.81333e-06)
(3.8178e-05 3.25262e-06 4.77921e-06)
(4.59796e-05 3.21343e-06 8.94415e-06)
(4.5113e-05 -1.68979e-06 3.83111e-06)
(5.08305e-05 -1.12739e-05 -1.45932e-07)
(5.01879e-05 -3.18712e-06 3.82708e-06)
(4.53599e-05 -8.77935e-06 -1.03465e-07)
(4.81589e-05 -7.35395e-06 6.18699e-06)
(6.15716e-05 -2.72164e-06 1.04119e-05)
(5.51519e-05 3.77189e-07 9.89522e-06)
(4.94786e-05 -3.54772e-06 7.5306e-06)
(6.4858e-05 -4.93208e-06 1.00459e-05)
(5.74467e-05 -2.15937e-06 9.43606e-06)
(4.94899e-05 -1.08131e-05 5.5976e-06)
(6.77342e-05 -7.64517e-06 9.65758e-06)
(5.84575e-05 -5.6812e-06 8.72174e-06)
(5.10463e-05 -7.17029e-06 7.70723e-06)
(5.67501e-05 2.55994e-07 1.05681e-05)
(6.56468e-05 -2.64292e-06 1.18592e-05)
(5.37933e-05 -3.00957e-06 9.06555e-06)
(5.87934e-05 -2.3218e-06 1.01462e-05)
(6.83325e-05 -5.02633e-06 1.15028e-05)
(5.05554e-05 -1.10409e-05 6.85664e-06)
(5.94382e-05 -5.61463e-06 9.46301e-06)
(6.98293e-05 -8.18095e-06 1.0951e-05)
(5.6676e-05 -2.74381e-06 4.73519e-06)
(5.36888e-05 5.18086e-07 8.79662e-06)
(5.16173e-05 -1.17144e-06 4.8665e-06)
(5.72076e-05 -2.25034e-06 8.35758e-06)
(5.83612e-05 -5.92364e-06 3.61151e-06)
(5.87596e-05 -1.43692e-05 -3.65224e-07)
(5.64523e-05 -5.43706e-06 3.6161e-06)
(5.20904e-05 -1.15453e-05 -1.77179e-07)
(5.13237e-05 -3.63104e-06 3.75388e-06)
(5.69715e-05 -1.31938e-05 -3.17998e-07)
(5.77368e-05 -3.11927e-06 4.65122e-06)
(5.82335e-05 -3.32733e-06 8.22053e-06)
(3.44294e-06 1.98262e-06 4.51754e-06)
(5.33244e-06 3.58742e-06 6.50912e-06)
(3.6348e-06 3.13058e-06 4.39115e-06)
(4.27953e-06 2.85504e-06 5.76235e-06)
(2.91379e-06 2.51122e-06 3.86544e-06)
(4.40941e-06 2.61429e-06 5.22181e-06)
(1.08434e-07 -3.1335e-09 1.72822e-07)
(6.09142e-08 7.7523e-09 1.44554e-08)
(9.81323e-08 6.05038e-08 3.34309e-08)
(3.79246e-07 -1.03926e-07 6.26101e-07)
(7.98074e-08 3.46083e-08 -9.34438e-08)
(2.63561e-06 7.40263e-07 -8.03969e-07)
(1.76072e-06 5.51821e-07 -6.11527e-07)
(2.67097e-05 7.44852e-06 1.11226e-05)
(3.52878e-05 9.98633e-06 1.40799e-05)
(2.38537e-05 9.59335e-06 9.86051e-06)
(3.28169e-05 1.00383e-05 1.38086e-05)
(2.22051e-05 9.74514e-06 9.67559e-06)
(2.90565e-05 7.76994e-06 1.14536e-05)
(1.77227e-05 6.90045e-06 9.75719e-06)
(1.94784e-05 8.99201e-06 1.16188e-05)
(1.32071e-05 8.28855e-06 8.06816e-06)
(1.59555e-05 7.00937e-06 9.43068e-06)
(2.15596e-05 9.3228e-06 1.20605e-05)
(1.46655e-05 8.79244e-06 8.41182e-06)
(1.03276e-05 3.9417e-07 -2.01658e-06)
(1.21137e-05 -6.98518e-09 -2.21063e-06)
(2.0276e-05 -2.49701e-06 -2.79933e-06)
(1.81006e-05 -1.76707e-06 -2.68497e-06)
(6.09291e-05 3.54457e-06 1.22829e-05)
(7.81541e-05 5.12342e-06 1.53357e-05)
(5.24378e-05 6.38846e-06 1.08442e-05)
(7.54635e-05 5.78668e-06 1.54153e-05)
(5.07434e-05 7.04265e-06 1.09206e-05)
(6.36441e-05 3.28106e-06 1.23134e-05)
(5.03376e-05 5.77243e-06 1.24626e-05)
(5.90212e-05 8.46997e-06 1.54662e-05)
(3.97105e-05 8.79067e-06 1.08942e-05)
(4.81853e-05 6.45915e-06 1.25328e-05)
(6.18404e-05 8.16558e-06 1.55153e-05)
(4.1718e-05 8.71762e-06 1.09598e-05)
(3.37743e-05 -7.14806e-06 -3.11731e-06)
(3.62869e-05 -7.99573e-06 -3.12312e-06)
(4.63881e-05 -1.12316e-05 -3.03938e-06)
(4.38692e-05 -1.0455e-05 -3.07499e-06)
(2.02056e-06 2.40008e-06 3.02591e-06)
(3.71382e-06 3.22258e-06 4.65091e-06)
(2.64385e-06 2.29722e-06 3.88864e-06)
(2.87684e-06 3.35146e-06 3.56696e-06)
(3.79954e-08 5.35452e-08 7.81746e-08)
(4.67462e-08 3.35432e-08 -2.551e-08)
(1.68222e-06 1.13619e-06 5.11874e-07)
(2.60148e-06 9.33693e-07 -4.82896e-07)
(1.73071e-06 6.89467e-07 -3.45228e-07)
(2.54193e-06 1.55302e-06 5.48777e-07)
(1.55831e-07 1.06984e-07 3.13902e-07)
(6.9421e-08 1.21861e-07 -8.31321e-08)
(3.60617e-06 1.3938e-06 4.1305e-06)
(3.82282e-06 2.94847e-06 4.1309e-06)
(5.86265e-06 2.96632e-06 5.77131e-06)
(3.08153e-06 2.40772e-06 3.60603e-06)
(4.70047e-06 2.31185e-06 5.02962e-06)
(4.59722e-06 1.90027e-06 4.77147e-06)
(5.66772e-07 -2.80298e-07 1.00022e-06)
(1.60423e-07 -2.68915e-08 1.37094e-07)
(3.06793e-07 -2.32341e-07 4.5843e-07)
(4.50475e-07 -1.38314e-07 7.1796e-07)
(7.33344e-07 -4.41606e-07 1.24803e-06)
(2.71896e-07 -1.60433e-07 2.7558e-07)
(2.76214e-06 2.10372e-06 1.54559e-06)
(4.3535e-06 2.83879e-06 3.57665e-06)
(3.07422e-06 1.94213e-06 2.86134e-06)
(3.98546e-06 3.07189e-06 2.0485e-06)
(2.15354e-07 8.967e-08 -1.36107e-07)
(8.34401e-09 4.38359e-08 -4.7327e-08)
(2.32499e-07 1.37315e-07 -2.62252e-07)
(2.0482e-09 1.18043e-08 -2.14524e-08)
(2.58812e-06 1.10678e-06 -2.7476e-07)
(3.79024e-06 1.00064e-06 -8.9093e-07)
(3.82425e-06 1.5266e-06 -2.24528e-07)
(2.5718e-06 7.59978e-07 -7.92872e-07)
(3.25077e-07 -1.20656e-07 3.71441e-07)
(1.60469e-07 -1.5601e-07 1.28001e-07)
(5.43233e-07 -2.41522e-07 8.34013e-07)
(2.93041e-08 -9.90376e-08 8.66509e-08)
(6.38572e-06 3.52769e-06 6.33348e-06)
(6.46544e-06 4.42877e-06 7.20758e-06)
(4.37419e-06 3.76809e-06 4.87942e-06)
(5.25694e-06 3.29839e-06 5.78132e-06)
(7.75412e-06 5.15828e-06 7.88169e-06)
(5.27702e-06 4.44081e-06 5.37865e-06)
(1.28263e-05 6.11436e-06 8.64557e-06)
(1.7562e-05 8.62933e-06 1.11864e-05)
(1.19426e-05 8.02235e-06 7.76366e-06)
(1.45658e-05 6.7808e-06 9.12852e-06)
(1.5666e-05 8.23832e-06 1.07085e-05)
(1.06482e-05 7.61969e-06 7.41286e-06)
(4.26765e-06 4.59304e-06 4.16876e-06)
(4.05333e-06 3.61288e-06 4.86403e-06)
(3.19786e-06 3.66873e-06 3.72896e-06)
(5.39429e-06 4.5358e-06 5.56228e-06)
(7.97693e-06 2.67531e-06 3.81696e-07)
(9.70279e-06 1.03293e-06 -1.41011e-06)
(8.07964e-06 1.22809e-06 -1.23217e-06)
(9.59373e-06 2.67611e-06 3.07232e-07)
(3.92616e-06 2.05671e-06 5.42189e-07)
(2.92617e-06 1.0078e-06 -5.3317e-07)
(2.8628e-06 1.68711e-06 5.52629e-07)
(4.00097e-06 1.19206e-06 -6.95215e-07)
(8.38051e-06 6.8693e-06 5.18584e-06)
(1.21e-05 7.40586e-06 7.57595e-06)
(1.0146e-05 6.9094e-06 7.15924e-06)
(1.00265e-05 7.41353e-06 5.44791e-06)
(6.5559e-06 1.98253e-06 5.90832e-06)
(4.63071e-06 3.54289e-06 4.63049e-06)
(7.13796e-06 3.7033e-06 6.49034e-06)
(5.56244e-06 2.4317e-06 5.33744e-06)
(5.58996e-06 4.26926e-06 5.14117e-06)
(8.55129e-06 4.37201e-06 7.20054e-06)
(1.3609e-05 5.46299e-06 8.4968e-06)
(1.26037e-05 7.90831e-06 7.69134e-06)
(1.93103e-05 7.76314e-06 1.10208e-05)
(1.12756e-05 7.58877e-06 7.31403e-06)
(1.72909e-05 7.42829e-06 1.04589e-05)
(1.55291e-05 6.09761e-06 9.03784e-06)
(5.87724e-06 4.3331e-06 2.74069e-06)
(4.77169e-06 3.11708e-06 3.79253e-06)
(4.43173e-06 3.39414e-06 2.2203e-06)
(6.29509e-06 3.82252e-06 4.54679e-06)
(1.10715e-05 2.663e-06 2.81423e-07)
(1.30046e-05 1.09227e-06 -9.61007e-07)
(1.09742e-05 1.28857e-06 -9.8086e-07)
(1.31125e-05 2.66706e-06 4.22058e-07)
(5.74815e-06 2.03422e-06 -1.05468e-07)
(4.23713e-06 1.07382e-06 -9.15164e-07)
(4.27692e-06 1.66155e-06 -1.99699e-07)
(5.69187e-06 1.25621e-06 -9.65927e-07)
(1.10865e-05 6.64984e-06 4.25342e-06)
(1.40342e-05 7.08933e-06 7.09066e-06)
(1.18485e-05 6.57018e-06 6.52066e-06)
(1.30833e-05 7.20668e-06 4.7211e-06)
(1.18312e-08 5.48626e-08 -5.61677e-08)
(2.41439e-07 1.48557e-07 -3.0435e-07)
(3.78346e-06 8.30251e-07 -1.11264e-06)
(2.57203e-06 6.46774e-07 -9.66509e-07)
(9.75813e-06 5.04749e-07 -1.94887e-06)
(8.13173e-06 7.6473e-07 -1.73804e-06)
(2.96179e-06 7.94824e-07 -8.71347e-07)
(4.04077e-06 9.18708e-07 -1.08142e-06)
(1.29637e-05 5.80657e-07 -1.4145e-06)
(1.09386e-05 8.42883e-07 -1.39543e-06)
(4.22785e-06 8.83515e-07 -1.15284e-06)
(5.67568e-06 1.00419e-06 -1.25052e-06)
(1.84926e-05 8.39383e-06 6.29369e-06)
(2.43021e-05 8.62847e-06 9.29391e-06)
(2.17328e-05 8.66554e-06 9.08198e-06)
(2.07022e-05 8.34705e-06 6.43177e-06)
(1.19375e-05 2.50648e-06 2.05895e-07)
(1.02711e-05 9.43719e-07 -1.46767e-06)
(1.20544e-05 6.06229e-07 -1.63298e-06)
(1.016e-05 2.65198e-06 2.81772e-07)
(1.24145e-05 7.94578e-06 5.74901e-06)
(1.2691e-05 7.65402e-06 7.69606e-06)
(1.48869e-05 8.03744e-06 8.14133e-06)
(1.06031e-05 7.56763e-06 5.52788e-06)
(1.79029e-05 1.47709e-06 1.7489e-08)
(2.02067e-05 -1.64988e-06 -2.13402e-06)
(1.80338e-05 -9.7465e-07 -2.03747e-06)
(2.00722e-05 9.77294e-07 -2.54011e-08)
(2.81774e-05 6.8485e-06 1.14128e-05)
(2.49526e-05 9.65243e-06 1.00139e-05)
(3.80754e-05 9.05223e-06 1.44777e-05)
(2.32857e-05 9.77414e-06 9.80905e-06)
(3.55287e-05 9.10509e-06 1.41576e-05)
(3.07045e-05 7.24121e-06 1.17785e-05)
(1.88614e-05 6.34927e-06 9.84429e-06)
(1.39657e-05 8.42148e-06 8.04937e-06)
(2.14277e-05 8.17946e-06 1.1569e-05)
(1.54771e-05 8.82252e-06 8.41614e-06)
(1.71512e-05 6.60931e-06 9.4609e-06)
(2.36403e-05 8.45662e-06 1.20891e-05)
(2.29148e-05 8.24048e-06 6.39399e-06)
(2.72979e-05 8.36357e-06 9.48571e-06)
(2.4556e-05 8.38792e-06 9.16526e-06)
(2.54027e-05 8.20123e-06 6.68977e-06)
(1.6013e-05 2.50222e-06 6.0427e-07)
(1.3708e-05 1.00297e-06 -9.53284e-07)
(1.38193e-05 2.64408e-06 4.68539e-07)
(1.58925e-05 6.65156e-07 -9.28963e-07)
(1.5919e-05 7.75586e-06 5.30611e-06)
(1.4739e-05 7.35674e-06 7.2609e-06)
(1.37747e-05 7.36502e-06 4.87199e-06)
(1.7123e-05 7.7375e-06 7.86004e-06)
(2.31609e-05 1.48425e-06 9.44296e-07)
(2.55476e-05 -1.58874e-06 -8.67044e-07)
(2.56994e-05 9.88276e-07 1.02898e-06)
(2.30173e-05 -9.17408e-07 -8.72639e-07)
(3.30469e-05 7.40544e-06 1.17951e-05)
(3.77872e-05 1.00032e-05 1.43465e-05)
(2.55217e-05 9.84711e-06 1.00641e-05)
(3.09559e-05 7.95351e-06 1.1675e-05)
(4.03733e-05 9.94453e-06 1.45843e-05)
(2.73219e-05 9.8818e-06 1.02511e-05)
(4.36756e-05 6.68013e-06 1.23974e-05)
(5.63611e-05 8.81991e-06 1.54248e-05)
(3.79922e-05 9.13427e-06 1.08671e-05)
(4.63234e-05 6.87669e-06 1.25343e-05)
(5.36171e-05 9.10419e-06 1.53575e-05)
(3.61753e-05 9.39643e-06 1.08237e-05)
(2.37666e-05 8.15231e-06 6.58783e-06)
(2.50881e-05 8.71504e-06 9.36112e-06)
(2.14557e-05 8.30887e-06 6.47408e-06)
(2.78593e-05 8.60074e-06 9.63261e-06)
(3.02637e-05 -1.69848e-06 -1.23031e-07)
(3.28693e-05 -5.76114e-06 -2.394e-06)
(3.03921e-05 -4.94582e-06 -2.37485e-06)
(3.27415e-05 -2.39711e-06 -1.29157e-07)
(2.30884e-05 2.34102e-07 -6.92094e-08)
(2.09492e-05 -1.87958e-06 -2.16205e-06)
(2.08136e-05 7.99064e-07 -3.75799e-08)
(2.32219e-05 -2.59983e-06 -2.23717e-06)
(3.10407e-05 7.27398e-06 6.82616e-06)
(3.88026e-05 7.56877e-06 1.00493e-05)
(3.59685e-05 7.97508e-06 1.00442e-05)
(3.35485e-05 6.87468e-06 6.86354e-06)
(3.46865e-05 6.82186e-06 1.21731e-05)
(2.66897e-05 9.87943e-06 1.02372e-05)
(4.0724e-05 9.07219e-06 1.47991e-05)
(3.27661e-05 7.42377e-06 1.20456e-05)
(2.8546e-05 9.91321e-06 1.04419e-05)
(4.34113e-05 9.01765e-06 1.508e-05)
(4.55062e-05 6.08284e-06 1.28817e-05)
(3.94082e-05 9.035e-06 1.11309e-05)
(5.98942e-05 7.897e-06 1.61414e-05)
(3.76178e-05 9.40436e-06 1.10844e-05)
(5.71235e-05 8.20763e-06 1.60349e-05)
(4.83733e-05 6.24169e-06 1.30718e-05)
(2.8811e-05 8.02552e-06 7.02708e-06)
(2.81861e-05 8.45512e-06 9.58719e-06)
(2.62459e-05 8.16872e-06 6.77923e-06)
(3.10627e-05 8.34979e-06 9.94202e-06)
(3.7227e-05 -1.67032e-06 1.26516e-06)
(3.97849e-05 -5.70264e-06 -8.85337e-07)
(3.70628e-05 -4.88784e-06 -8.77863e-07)
(3.99518e-05 -2.36511e-06 1.29505e-06)
(2.91689e-05 2.50584e-07 1.12244e-06)
(2.64048e-05 -1.82114e-06 -8.66526e-07)
(2.65585e-05 8.11494e-07 1.0542e-06)
(2.9013e-05 -2.54257e-06 -8.66377e-07)
(3.67552e-05 7.18044e-06 7.55998e-06)
(4.2572e-05 7.36071e-06 1.06515e-05)
(3.96061e-05 7.75301e-06 1.05637e-05)
(3.94485e-05 6.79026e-06 7.68177e-06)
(1.36652e-05 4.69347e-07 -1.41934e-06)
(1.58448e-05 6.6762e-08 -1.43095e-06)
(2.54821e-05 -2.42617e-06 -1.48495e-06)
(2.29559e-05 -1.69881e-06 -1.46558e-06)
(3.29413e-05 -6.86309e-06 -3.11245e-06)
(3.04634e-05 -6.00884e-06 -3.08869e-06)
(2.10185e-05 -2.74504e-06 -2.8329e-06)
(2.3292e-05 -3.52108e-06 -2.92249e-06)
(3.9706e-05 -6.79943e-06 -1.59213e-06)
(3.69859e-05 -5.94496e-06 -1.57308e-06)
(2.63384e-05 -2.67727e-06 -1.49204e-06)
(2.89437e-05 -3.45484e-06 -1.51306e-06)
(4.45935e-05 4.6612e-06 6.8635e-06)
(5.38858e-05 4.68135e-06 9.96601e-06)
(5.10785e-05 5.43962e-06 1.00862e-05)
(4.71419e-05 4.07182e-06 6.83888e-06)
(3.60858e-05 -3.34955e-06 -1.28541e-07)
(3.37018e-05 -6.03451e-06 -2.39759e-06)
(3.62141e-05 -6.84932e-06 -2.40102e-06)
(3.35739e-05 -2.63333e-06 -1.3003e-07)
(3.69315e-05 6.26533e-06 6.88858e-06)
(3.96643e-05 7.5133e-06 1.00572e-05)
(4.26878e-05 7.07544e-06 1.01508e-05)
(3.43909e-05 6.72957e-06 6.87222e-06)
(4.36731e-05 -5.50692e-06 -9.55946e-08)
(4.63161e-05 -9.99105e-06 -2.32203e-06)
(4.37967e-05 -9.23244e-06 -2.3548e-06)
(4.6197e-05 -6.2143e-06 -7.40991e-08)
(6.32012e-05 3.03738e-06 1.31024e-05)
(5.41759e-05 6.43159e-06 1.12377e-05)
(8.21943e-05 4.20975e-06 1.64246e-05)
(5.25012e-05 7.06851e-06 1.13004e-05)
(7.95134e-05 4.89575e-06 1.64578e-05)