/*--------------------------------*- C++ -*----------------------------------*\
| =========                 |                                                 |
| \\      /  F ield         | OpenFOAM: The Open Source CFD Toolbox           |
|  \\    /   O peration     | Version:  2012                                  |
|   \\  /    A nd           | Website:  www.openfoam.com                      |
|    \\/     M anipulation  |                                                 |
\*---------------------------------------------------------------------------*/
FoamFile
{
    version     2.0;
    format      ascii;
    class       surfaceScalarField;
    location    "0.105/fluid";
    object      phi;
}
// * * * * * * * * * * * * * * * * * * * * * * * * * * * * * * * * * * * * * //

dimensions      [0 3 -1 0 0 0 0];
oriented        oriented;


internalField   nonuniform List<scalar> 
46880
(
-1.87038e-07
0.00153149
1.82286e-07
1.72851e-08
-1.19414e-06
-0.00153392
0.00153471
1.16818e-06
5.48049e-08
-1.78917e-06
-0.00153705
0.0015378
1.75617e-06
3.04617e-08
-2.08655e-06
-0.00153991
0.00154057
2.05758e-06
3.27533e-08
-2.1114e-06
-0.00154243
0.001543
2.07778e-06
4.10088e-08
-1.91414e-06
-0.0015445
0.00154493
1.86097e-06
6.20664e-08
-1.60645e-06
-0.00154602
0.00154631
1.52518e-06
9.49528e-08
-1.28231e-06
-0.00154694
0.00154705
1.16906e-06
1.54379e-07
-1.18742e-06
-0.00154708
0.00154697
1.00801e-06
2.52821e-07
-1.56777e-06
-0.00154629
0.00154592
1.32009e-06
4.05371e-07
-2.70218e-06
-0.00154442
0.00154376
2.35803e-06
6.0617e-07
-5.04808e-06
-0.00154121
0.00154011
4.59456e-06
9.73486e-07
-9.90706e-06
-0.00153563
0.00153357
9.33454e-06
1.83664e-06
-2.4466e-05
-0.0015252
0.00152203
4.38789e-06
2.23032e-05
-9.7946e-05
-0.00153096
0.00156387
6.0873e-06
5.83241e-05
-1.52169e-07
0.0015317
1.37461e-07
1.8748e-08
-9.79154e-07
-0.00153473
0.00153571
8.86147e-07
5.89677e-08
-1.5009e-06
-0.00153857
0.00153947
1.36556e-06
3.52421e-08
-1.77353e-06
-0.00154203
0.00154284
1.61641e-06
4.22479e-08
-1.78289e-06
-0.00154513
0.00154584
1.61934e-06
5.81914e-08
-1.5682e-06
-0.00154777
0.00154835
1.42082e-06
7.8365e-08
-1.19292e-06
-0.00154987
0.00155029
1.06413e-06
1.10117e-07
-7.67506e-07
-0.00155134
0.0015516
6.31882e-07
1.67493e-07
-4.54189e-07
-0.00155212
0.00155219
2.83047e-07
2.48573e-07
-5.06764e-07
-0.00155209
0.00155194
2.52324e-07
3.50302e-07
-1.18282e-06
-0.00155116
0.0015508
7.98146e-07
4.89832e-07
-2.85006e-06
-0.00154947
0.00154897
2.23061e-06
6.77936e-07
-6.21815e-06
-0.00154758
0.00154725
5.02865e-06
9.10761e-07
-1.2257e-05
-0.0015477
0.00154864
9.53437e-06
1.12121e-06
-1.58785e-05
-0.00155559
0.00155928
6.58975e-07
1.10448e-05
-8.5023e-08
0.00153184
6.24273e-08
2.02382e-08
-5.3873e-07
-0.00153527
0.00153639
4.04902e-07
6.3002e-08
-8.45672e-07
-0.00153961
0.00154063
6.46554e-07
3.92719e-08
-1.00323e-06
-0.00154352
0.00154443
7.63975e-07
4.85375e-08
-1.01086e-06
-0.00154696
0.00154774
7.75323e-07
6.78611e-08
-8.86866e-07
-0.00154989
0.00155053
6.82908e-07
9.28674e-08
-6.33489e-07
-0.00155227
0.00155278
4.78187e-07
1.25301e-07
-2.84438e-07
-0.00155411
0.00155449
1.89449e-07
1.70753e-07
7.42786e-08
-0.00155538
0.0015556
-1.13747e-07
2.3947e-07
2.53728e-07
-0.001556
0.00155603
-2.86329e-07
3.26533e-07
3.52455e-08
-0.0015559
0.00155579
-1.48582e-07
4.19336e-07
-7.04287e-07
-0.00155539
0.00155528
3.88805e-07
5.06466e-07
-2.00524e-06
-0.00155528
0.00155546
1.29326e-06
5.61644e-07
-3.38875e-06
-0.00155684
0.00155759
2.1906e-06
5.02539e-07
-2.47774e-06
-0.00156035
0.00156125
1.48766e-06
2.63605e-07
3.2447e-08
-1.77211e-07
0.00153155
1.734e-07
-3.88731e-08
-3.88777e-08
-1.1123e-06
-0.00153427
0.00153514
1.08786e-06
3.74283e-08
-4.9977e-08
-1.67198e-06
-0.00153762
0.00153839
1.63561e-06
6.02768e-08
-6.72741e-08
-1.97249e-06
-0.00154055
0.00154122
1.93114e-06
8.43303e-08
-1.07767e-07
-2.02935e-06
-0.00154307
0.00154363
1.98328e-06
1.36409e-07
-1.83693e-07
-1.87877e-06
-0.00154513
0.00154557
1.82135e-06
2.26536e-07
-3.04095e-07
-1.6049e-06
-0.00154667
0.00154697
1.52259e-06
3.7885e-07
-5.08799e-07
-1.28798e-06
-0.00154767
0.00154782
1.1686e-06
6.33531e-07
-8.13582e-07
-1.09972e-06
-0.00154807
0.00154807
9.23471e-07
9.96717e-07
-1.25545e-06
-1.30147e-06
-0.00154783
0.00154766
1.05691e-06
1.51469e-06
-1.84776e-06
-2.13298e-06
-0.00154686
0.0015465
1.80817e-06
2.22812e-06
-2.71364e-06
-3.88064e-06
-0.00154512
0.00154454
3.48387e-06
3.25063e-06
-4.07378e-06
-7.25598e-06
-0.00154229
0.00154132
6.93623e-06
4.80604e-06
-1.58738e-05
-6.16028e-06
-0.00153773
0.00153653
6.86765e-06
1.58047e-05
-6.21773e-05
-6.66819e-06
-0.00154338
0.00156326
6.80203e-06
4.1971e-05
3.25182e-08
-1.45947e-07
0.00153176
1.31924e-07
-3.95538e-08
-4.87508e-08
-9.14384e-07
-0.00153507
0.00153613
8.28533e-07
5.11989e-08
-6.67322e-08
-1.38846e-06
-0.00153913
0.00154006
1.26671e-06
8.19398e-08
-9.90516e-08
-1.64365e-06
-0.00154269
0.0015435
1.49965e-06
1.22088e-07
-1.54911e-07
-1.67952e-06
-0.0015458
0.00154651
1.52955e-06
1.85651e-07
-2.34542e-07
-1.51477e-06
-0.00154843
0.00154901
1.37247e-06
2.87335e-07
-3.60586e-07
-1.19158e-06
-0.00155051
0.00155095
1.0557e-06
4.4192e-07
-5.42879e-07
-7.57593e-07
-0.00155206
0.00155237
6.18041e-07
6.64713e-07
-8.14774e-07
-3.75355e-07
-0.00155308
0.00155322
2.12396e-07
9.88711e-07
-1.15569e-06
-2.9881e-07
-0.00155342
0.00155339
7.14797e-08
1.39979e-06
-1.57342e-06
-7.52103e-07
-0.00155307
0.00155288
4.29305e-07
1.90855e-06
-2.09506e-06
-2.03231e-06
-0.00155224
0.00155201
1.5323e-06
2.52713e-06
-2.67589e-06
-4.69166e-06
-0.00155153
0.00155154
3.76672e-06
3.20959e-06
-3.06216e-06
-9.46996e-06
-0.00155287
0.00155394
7.44472e-06
3.65353e-06
-1.26272e-05
-2.31525e-06
-0.00156031
0.0015635
2.79269e-06
8.7561e-06
2.95768e-08
-8.1731e-08
0.0015319
5.97688e-08
-3.61443e-08
-5.76187e-08
-5.03536e-07
-0.0015356
0.00153678
3.77253e-07
6.12547e-08
-8.07252e-08
-7.86859e-07
-0.00154012
0.00154117
6.01522e-07
9.88206e-08
-1.17312e-07
-9.34436e-07
-0.00154411
0.00154503
7.13727e-07
1.44333e-07
-1.83596e-07
-9.56084e-07
-0.0015476
0.00154838
7.34373e-07
2.27966e-07
-2.74371e-07
-8.51222e-07
-0.00155054
0.00155119
6.53162e-07
3.40121e-07
-4.02309e-07
-6.14757e-07
-0.00155296
0.00155348
4.64491e-07
4.8516e-07
-5.62101e-07
-2.59e-07
-0.00155484
0.00155522
1.71513e-07
6.88657e-07
-8.01563e-07
1.27095e-07
-0.00155621
0.00155647
-1.56337e-07
9.74599e-07
-1.09175e-06
3.64601e-07
-0.00155705
0.00155716
-3.74509e-07
1.32077e-06
-1.39622e-06
2.43564e-07
-0.00155733
0.00155733
-3.06614e-07
1.69323e-06
-1.70341e-06
-3.25977e-07
-0.00155735
0.0015574
9.84343e-08
2.06235e-06
-1.93161e-06
-1.36347e-06
-0.00155785
0.00155816
8.19021e-07
2.33757e-06
-1.89781e-06
-2.48003e-06
-0.00155983
0.00156061
1.54418e-06
2.2922e-06
-1.31297e-06
-1.64943e-06
-0.00156323
0.00156404
8.81492e-07
1.59543e-06
6.00977e-08
-1.62286e-07
0.00153162
1.5975e-07
-6.4658e-08
-5.16134e-08
-9.35132e-07
-0.0015345
0.00153541
9.20576e-07
5.66645e-08
-8.89341e-08
-1.4153e-06
-0.00153798
0.00153877
1.38002e-06
9.98547e-08
-1.35511e-07
-1.69442e-06
-0.00154093
0.00154159
1.64748e-06
1.50757e-07
-2.12086e-07
-1.79108e-06
-0.00154336
0.00154388
1.73815e-06
2.33121e-07
-3.50867e-07
-1.72072e-06
-0.00154527
0.00154567
1.65552e-06
3.87472e-07
-5.73416e-07
-1.52098e-06
-0.00154669
0.00154698
1.43583e-06
6.28733e-07
-9.36107e-07
-1.21741e-06
-0.00154771
0.0015479
1.10506e-06
1.01339e-06
-1.44711e-06
-9.36463e-07
-0.00154832
0.00154841
7.87492e-07
1.5548e-06
-2.15089e-06
-8.73638e-07
-0.00154851
0.00154849
6.82253e-07
2.30236e-06
-3.11463e-06
-1.16816e-06
-0.00154842
0.00154838
9.09896e-07
3.31361e-06
-4.43136e-06
-2.01397e-06
-0.0015482
0.00154813
1.70405e-06
4.68408e-06
-6.19698e-06
-3.83444e-06
-0.0015477
0.00154742
3.7131e-06
6.52337e-06
-9.60198e-06
-8.10101e-06
-0.0015456
0.00154457
8.66532e-06
1.01808e-05
-5.42612e-05
-7.81396e-06
-0.00154929
0.00156782
8.96892e-06
3.49874e-05
6.13467e-08
-1.38526e-07
0.0015318
1.26226e-07
-6.65583e-08
-6.18564e-08
-7.89263e-07
-0.00153522
0.00153632
7.17584e-07
6.58442e-08
-1.24972e-07
-1.16795e-06
-0.00153943
0.00154039
1.06045e-06
1.34291e-07
-1.8248e-07
-1.38168e-06
-0.00154305
0.00154385
1.25361e-06
2.00695e-07
-2.85182e-07
-1.44859e-06
-0.00154606
0.00154672
1.314e-06
3.07879e-07
-4.34533e-07
-1.35497e-06
-0.00154852
0.00154906
1.22112e-06
4.71462e-07
-6.5369e-07
-1.10551e-06
-0.00155047
0.00155088
9.74603e-07
7.08151e-07
-9.71164e-07
-7.20484e-07
-0.00155197
0.00155228
5.91321e-07
1.04985e-06
-1.42456e-06
-3.21792e-07
-0.00155305
0.00155325
1.8332e-07
1.52973e-06
-1.99464e-06
-9.59278e-08
-0.00155365
0.00155374
-7.27167e-08
2.13283e-06
-2.70587e-06
-1.74772e-07
-0.00155393
0.00155397
-3.49721e-08
2.89272e-06
-3.54269e-06
-7.67616e-07
-0.00155414
0.00155423
4.64825e-07
3.77757e-06
-4.41059e-06
-2.38759e-06
-0.0015548
0.00155516
1.80027e-06
4.69382e-06
-4.91598e-06
-5.91195e-06
-0.00155729
0.00155849
4.4959e-06
5.24771e-06
-8.86519e-06
-3.81554e-06
-0.00156481
0.00156788
4.19884e-06
5.65518e-06
5.70141e-08
-7.73063e-08
0.00153193
5.55914e-08
-6.12214e-08
-7.23963e-08
-4.27337e-07
-0.00153572
0.00153694
3.16047e-07
7.57417e-08
-1.45563e-07
-6.51551e-07
-0.00154037
0.00154143
4.97251e-07
1.57828e-07
-2.1927e-07
-7.78482e-07
-0.00154437
0.00154527
5.97441e-07
2.38206e-07
-3.27927e-07
-8.27809e-07
-0.00154776
0.00154852
6.40583e-07
3.55086e-07
-4.93352e-07
-7.61e-07
-0.00155059
0.00155121
5.82768e-07
5.34116e-07
-7.08846e-07
-5.63543e-07
-0.00155287
0.00155336
4.23775e-07
7.67162e-07
-1.00056e-06
-2.52051e-07
-0.00155464
0.00155501
1.70289e-07
1.07807e-06
-1.39758e-06
1.10961e-07
-0.00155596
0.00155622
-1.35812e-07
1.49864e-06
-1.88043e-06
3.81295e-07
-0.00155688
0.00155705
-3.742e-07
2.01818e-06
-2.41317e-06
4.37323e-07
-0.00155753
0.00155768
-4.40189e-07
2.58942e-06
-2.94074e-06
2.29818e-07
-0.00155828
0.00155853
-3.11196e-07
3.15064e-06
-3.31727e-06
-3.19474e-07
-0.00155964
0.00156015
4.16687e-08
3.5504e-06
-3.24286e-06
-9.99971e-07
-0.00156226
0.00156311
4.61345e-07
3.46898e-06
-2.27972e-06
-2.66513e-07
-0.00156576
0.00156654
-1.38726e-07
2.45829e-06
-0.00148672
-0.000107653
0.00147721
1.86452e-05
-2.58104e-05
2.53035e-05
-0.000297176
-4.9142e-06
1.02609e-05
-0.00152152
6.21086e-05
-1.20688e-05
-6.40774e-05
0.00152505
4.24381e-07
-8.04853e-06
-4.78844e-07
9.25492e-06
-0.00042475
-0.00152234
-6.49881e-05
0.00152612
9.16503e-06
-7.85065e-06
8.91512e-06
-0.000425076
3.60009e-07
8.95395e-06
-0.00152697
5.49214e-05
-8.51863e-06
-5.65812e-05
0.00152848
-1.67842e-07
-8.41896e-06
8.30727e-08
9.31798e-06
-0.000425106
-0.00152838
-5.65339e-05
0.00152969
1.03439e-05
-8.45072e-06
9.34886e-06
-0.000425088
-2.29974e-07
-0.00151597
-2.45514e-05
0.00150865
6.47384e-06
6.54249e-05
-7.67326e-05
1.48177e-05
-0.00149096
7.44897e-06
-0.00153215
1.62633e-05
-7.1753e-06
-1.43945e-05
0.00152935
1.01166e-05
4.10782e-05
-1.12712e-05
-3.90722e-05
-0.00152279
1.13317e-05
-0.000245511
-3.12315e-06
3.55286e-05
0.000201717
3.07159e-05
4.01686e-05
0.000382174
0.000360098
0.000374075
0.00036696
-0.00148518
-2.71785e-05
-2.7605e-05
-2.77765e-05
-2.35032e-05
1.93623e-05
1.77314e-06
-7.62719e-06
-0.00164678
-8.8316e-06
-3.91027e-06
-0.00155703
-2.52004e-05
0.00156446
1.30262e-06
-5.6574e-07
-8.55964e-07
-0.00157784
-2.2766e-08
-0.00154259
-7.04177e-06
0.00156267
4.20772e-05
-5.83056e-07
7.98607e-06
8.60409e-08
-9.69202e-08
1.106e-06
-0.00164413
4.74531e-06
3.123e-06
-0.00156226
1.3052e-05
-2.87251e-06
-2.04103e-05
0.00156897
9.07551e-07
-7.23146e-07
-1.1405e-06
-1.12061e-06
-0.00158167
-0.00153298
-1.41289e-05
0.0015301
8.05292e-06
4.10945e-05
-3.96313e-05
9.5426e-06
-0.00152352
8.98529e-06
-0.00153995
1.07392e-05
-8.65282e-06
-8.57867e-06
0.0015374
9.60568e-06
3.38394e-05
-9.20509e-06
-3.12232e-05
-0.00152983
1.2646e-05
-1.58624e-05
5.89783e-06
0.000356041
0.000353549
0.000355938
0.000353606
-0.00147252
-2.42428e-06
9.98816e-06
0.000355877
0.000352824
0.000352983
0.000355567
-0.00147508
-3.00691e-07
7.9046e-06
-2.31238e-07
-0.00164366
9.39901e-07
4.70359e-06
-0.00156318
-2.00143e-05
0.00156985
3.56251e-06
-6.86019e-07
-1.09627e-06
-0.00158226
9.99883e-07
-0.00154757
-7.23385e-06
0.00156618
3.60009e-05
2.15423e-06
8.29735e-06
3.69205e-07
2.61469e-07
-1.98569e-06
-0.00164648
2.69738e-06
4.30196e-06
-0.00156679
9.70172e-06
-4.04482e-06
-1.61999e-05
0.00157315
2.47233e-07
-2.39463e-06
-4.97039e-07
8.40908e-07
-0.00158526
-0.00154195
-7.52684e-06
0.00153938
9.60329e-06
3.29152e-05
-3.07343e-05
1.08647e-05
-0.0015315
1.17431e-05
-9.96787e-06
-3.49671e-06
0.000355783
0.000353007
0.000355464
0.00035324
-0.00147665
-5.68598e-06
1.46713e-05
0.000355684
0.000353243
0.000353089
0.000355904
-0.00147892
3.61031e-07
8.57605e-06
4.59776e-07
-0.00164808
2.42684e-06
2.35217e-06
-0.00156801
-1.51962e-05
0.00157422
4.66372e-06
-2.70734e-06
1.16474e-06
-0.00158603
3.67757e-08
3.22892e-05
0.000405407
0.000245008
0.000394142
0.000263483
-1.85463e-05
-7.0016e-06
-1.36979e-05
-0.00139797
1.82995e-05
0.000302651
-5.10096e-05
-4.67047e-05
-6.23348e-05
-3.61095e-05
0.000466636
0.000300513
0.000461717
0.000123146
-8.12813e-05
0.00154899
1.50125e-05
7.1124e-05
-0.00153566
2.41553e-05
0.000360884
0.000364623
0.000363327
0.000364775
-0.00149638
0.000416532
1.86445e-05
-4.54973e-05
-6.09608e-05
-6.35023e-05
-4.24108e-05
0.000413062
0.000413206
0.000410804
0.000107101
1.64643e-05
0.000288304
1.36612e-05
-1.57973e-05
6.22057e-07
-9.48034e-06
1.574e-06
1.01709e-05
-0.000430321
3.70704e-06
2.35452e-05
-3.51233e-05
-7.62971e-07
0.000425153
-2.6711e-05
3.48887e-06
0.000357161
0.000353552
0.00035664
0.000353821
-0.00147269
1.71003e-05
0.000356779
0.000357663
0.000360882
0.000354057
-0.0014728
-7.59237e-05
0.00152547
-0.00151886
7.18993e-05
-1.51112e-05
1.21315e-05
0.000353529
0.000352393
0.000352804
0.000353297
-0.00146989
-1.19456e-05
0.000406559
9.27808e-06
-3.77132e-05
-5.5518e-05
-5.60415e-05
-3.72263e-05
0.000406644
0.000401857
0.000401935
9.71473e-05
0.000354528
0.000354701
0.000355044
0.000353509
-0.00146786
0.000407984
-3.95141e-05
-5.86525e-05
-4.06044e-05
-5.79125e-05
0.000404136
0.000407155
0.000402948
0.000106431
-7.5601e-06
3.33057e-07
9.07345e-06
-0.000427563
1.78052e-06
2.26949e-05
0.000416829
-2.17952e-06
-3.25624e-05
2.52054e-05
-3.49069e-05
0.000418969
2.41511e-06
1.00724e-05
0.000353939
0.000352776
0.000352881
0.000353633
-0.00147045
7.75964e-06
0.000406688
-3.74375e-05
-5.60653e-05
-3.7748e-05
-5.57401e-05
0.000401966
0.000406804
0.000402054
9.71793e-05
-5.89924e-05
0.00152644
8.40625e-06
5.75801e-05
-0.00152426
9.16972e-06
0.000353318
0.000352279
0.00035231
0.000353323
-0.00147185
0.000406517
6.98177e-06
-3.64181e-05
-5.45874e-05
-5.47836e-05
-3.61991e-05
0.000401632
0.000406439
0.000401531
9.32936e-05
2.29256e-05
0.000417044
-3.29879e-05
1.49543e-06
8.8284e-08
-8.1105e-06
-2.43854e-07
9.1425e-06
-0.000424751
1.29796e-06
2.21193e-05
-3.21033e-05
-1.45608e-06
0.000416681
-9.73226e-06
-4.538e-06
0.000355542
0.000352871
0.000355496
0.000352856
-0.0014763
9.21993e-08
0.000355649
0.000352999
0.000355387
0.000353194
-0.00147407
-5.97724e-05
0.00152757
-0.00152511
5.73525e-05
-9.2069e-06
9.75104e-06
0.000353618
0.000352625
0.000352504
0.000353777
-0.00147409
-6.89657e-06
0.000406956
7.26387e-06
-3.58908e-05
-5.42052e-05
-5.43086e-05
-3.57595e-05
0.000406781
0.000402011
0.000401848
9.11394e-05
0.000353866
0.000352564
0.000353583
0.000352748
-0.00147249
0.000406726
-3.6409e-05
-5.49273e-05
-3.65622e-05
-5.47627e-05
0.000401853
0.00040694
0.000402053
9.30809e-05
-8.1794e-06
4.25791e-08
9.15796e-06
-0.000424961
1.29749e-06
2.17658e-05
0.000417047
-1.28893e-06
-3.18261e-05
2.21204e-05
-3.22211e-05
0.000416956
1.19613e-06
1.14941e-05
0.000354193
0.000352757
0.000352984
0.000353873
-0.00147535
8.48453e-06
0.000407002
-3.57835e-05
-5.43163e-05
-3.58798e-05
-5.42154e-05
0.000402088
0.000407251
0.000402292
9.06013e-05
-5.47377e-05
0.00153092
1.25637e-05
5.2643e-05
-0.00153047
1.44012e-05
0.000354067
0.00035311
0.000352897
0.000354393
-0.00147742
0.000407325
1.07697e-05
-3.55192e-05
-5.38994e-05
-5.39882e-05
-3.5417e-05
0.000402318
0.000407079
0.00040214
8.92795e-05
2.17507e-05
0.000417126
-3.18559e-05
1.32142e-06
-3.39728e-07
-8.70663e-06
3.06333e-07
9.44796e-06
-0.000425144
1.88141e-06
2.14941e-05
-3.15914e-05
-1.63644e-06
0.00041723
-5.66427e-06
0.000356341
0.000353255
0.000355759
0.000353605
-0.00148129
-5.36003e-05
0.00153262
-0.00153305
5.09525e-05
0.000354891
0.000353127
0.000354313
0.000353471
-0.00148019
0.00040709
-3.51683e-05
-5.37807e-05
-3.52895e-05
-5.36409e-05
0.000402126
0.000407427
0.000402333
8.77819e-05
-8.70514e-06
-3.57534e-07
9.40505e-06
-0.000424787
2.13782e-05
-3.15329e-05
0.000416997
2.18422e-06
0.000401511
-2.83401e-05
1.48e-05
-3.03317e-05
-1.19285e-05
-0.000375481
0.000104432
7.30749e-06
-1.35958e-05
-3.44331e-05
-3.42392e-05
-1.38719e-05
0.000105911
0.000106827
0.000107683
-8.76846e-06
3.14109e-05
7.94205e-06
8.18167e-06
8.84621e-05
7.24052e-05
7.30678e-05
8.74303e-05
-1.26411e-05
-3.40807e-05
-1.18811e-05
-3.33723e-05
-5.05807e-06
-5.46037e-06
0.000112273
0.000116547
0.000112743
-1.43033e-05
1.0639e-05
9.22301e-05
7.74857e-05
9.50156e-05
7.59485e-05
9.44619e-06
-2.0211e-05
-0.000404112
9.78765e-05
0.000109889
-1.11078e-05
-1.01034e-05
-4.22646e-07
-2.90058e-05
2.0662e-05
6.99263e-06
1.76962e-06
2.51092e-05
9.2023e-05
8.41882e-05
0.000101441
7.70562e-05
-0.000388807
-7.11147e-06
-6.21615e-06
-7.22556e-06
-4.92407e-06
0.000359039
-4.0929e-05
2.72643e-06
-3.3411e-06
-2.14879e-06
-0.000359148
1.12564e-06
-1.53219e-05
-3.4756e-05
-3.47788e-05
-1.52631e-05
0.000102048
0.000101951
-2.58221e-06
4.12748e-05
-1.81837e-06
2.0657e-06
8.54822e-05
7.14621e-05
7.10254e-05
8.59128e-05
-3.09531e-06
-1.52967e-05
-3.46952e-05
-1.51662e-05
-3.47651e-05
0.000102047
0.000101917
-2.82127e-06
-1.50556e-06
8.54539e-05
7.14317e-05
8.59147e-05
7.10034e-05
1.76442e-06
-2.95243e-06
0.000359631
-3.8778e-05
-0.000359938
2.33974e-06
-2.00307e-06
-1.45851e-05
-3.42445e-05
-1.45805e-05
-3.42312e-05
0.000102512
0.000102382
3.85598e-05
2.80838e-06
-3.28126e-06
4.25729e-07
8.58145e-05
7.1694e-05
8.62405e-05
7.1298e-05
-3.05397e-06
-1.46094e-05
-3.42388e-05
-1.46508e-05
-3.42347e-05
0.000102234
0.000102256
1.30433e-07
8.57506e-05
7.16052e-05
8.60892e-05
7.12436e-05
0.000358648
-4.13663e-05
2.93547e-06
-2.67933e-06
-2.46738e-06
-0.000358826
2.68077e-06
-1.52854e-05
-3.47234e-05
-3.474e-05
-1.52571e-05
0.00010181
0.000101731
-2.96927e-06
4.1434e-05
-2.40696e-06
3.39347e-06
8.54387e-05
7.14564e-05
7.10279e-05
8.58697e-05
-2.32684e-06
-1.5295e-05
-3.4701e-05
-1.52226e-05
-3.4742e-05
0.0001018
0.000101719
-2.63794e-06
-2.29754e-06
8.5431e-05
7.14086e-05
8.58273e-05
7.10247e-05
3.21058e-06
-2.16931e-06
0.000358812
-4.08446e-05
-0.000358782
1.81226e-06
-1.44642e-06
-1.51156e-05
-3.45698e-05
-1.50782e-05
-3.45942e-05
0.00010189
0.000101823
4.07977e-05
2.246e-06
-2.15615e-06
-1.81158e-06
8.55014e-05
7.14594e-05
8.58838e-05
7.10858e-05
-1.94598e-06
-1.51241e-05
-3.46001e-05
-1.51155e-05
-3.46052e-05
0.00010186
0.000101795
-1.91346e-06
8.54818e-05
7.1477e-05
8.58902e-05
7.10636e-05
9.38936e-07
-2.82071e-05
-1.69903e-06
0.000116406
-1.02251e-05
-2.31686e-06
-4.89597e-06
3.16375e-06
3.71436e-06
-0.000133789
7.2113e-06
-6.61943e-06
-5.18066e-05
0.00036798
3.7136e-06
-4.49472e-06
-6.23901e-06
4.82681e-05
7.16698e-06
8.82456e-05
7.34542e-05
7.30912e-05
8.86003e-05
-3.20635e-06
-0.000368824
0.000101929
4.89149e-06
-1.69793e-05
-3.64779e-05
-3.71627e-05
-1.65432e-05
0.000104401
0.000102428
0.00010461
-6.44467e-06
8.66671e-05
7.43048e-05
7.19248e-05
8.95014e-05
-2.75652e-06
0.000103821
-1.71715e-05
-3.84612e-05
-1.73355e-05
-3.79377e-05
0.000101325
0.000106277
0.000103538
5.52471e-06
-6.22453e-05
0.000426844
-1.46972e-05
1.59019e-05
3.25404e-05
7.12952e-05
3.24111e-05
5.03462e-05
4.39545e-05
-1.07586e-06
-8.5549e-07
5.48881e-08
4.132e-06
-0.000245202
5.28111e-05
-1.47906e-05
-3.03308e-05
-3.18668e-05
-1.66857e-05
6.16074e-05
8.46561e-05
8.89807e-05
9.69053e-05
8.67404e-05
7.91555e-05
0.000103694
0.000121435
-1.69685e-05
-3.80739e-05
-1.78411e-05
-3.6391e-05
0.000121919
0.000115489
0.000116342
0.000128327
1.45286e-06
5.25262e-06
-7.2577e-06
-0.000127249
-5.21942e-07
1.17658e-06
1.71373e-05
-2.87019e-05
-1.36705e-06
0.000113688
2.77461e-07
1.75362e-05
0.000116193
-2.00988e-07
-2.99814e-05
0.000126866
3.78664e-07
5.71726e-06
-2.61043e-07
-7.23718e-06
-0.000125461
-1.6093e-06
-0.00014404
4.51034e-06
-7.45177e-06
0.000146137
2.45568e-06
-8.82857e-06
1.13876e-05
-1.14052e-06
-8.74069e-05
-1.94304e-06
-2.53238e-06
-0.000149298
2.60264e-06
1.21471e-06
-8.29038e-05
-2.41143e-06
-1.64693e-06
8.57827e-05
1.18212e-06
1.10613e-06
-3.52243e-06
-6.6497e-07
0.000129801
-4.97619e-07
-5.21523e-06
5.64039e-06
-0.000129942
9.1922e-07
1.83801e-07
1.90953e-06
1.78241e-09
-3.82802e-06
0.000128601
-6.33614e-06
-0.000130934
6.67848e-06
-1.55398e-06
7.91263e-06
-9.9664e-06
-0.000142742
2.21332e-06
7.83463e-06
-1.83241e-05
1.74458e-06
6.15598e-05
1.80614e-05
0.00013197
-2.86048e-05
2.89695e-07
7.17328e-07
-1.67418e-06
-2.84872e-06
-7.90939e-05
-9.69591e-06
0.000362479
-3.7277e-05
8.05818e-06
-0.000365179
7.90083e-06
0.000102324
-1.45392e-05
-3.46232e-05
-1.4429e-05
-3.45232e-05
0.000104309
0.000101597
0.00010379
3.64474e-05
8.19474e-06
2.70177e-06
8.67272e-05
7.24368e-05
8.74406e-05
7.19251e-05
7.29903e-06
0.000101122
-1.4321e-05
-3.41912e-05
-1.43648e-05
-3.42256e-05
0.000101562
0.000103337
0.000103535
6.47597e-06
2.209e-06
8.63721e-05
7.18344e-05
8.65309e-05
7.15718e-05
5.34081e-06
0.000361592
-3.98008e-05
-0.000360914
-4.47025e-06
-1.52624e-05
-3.48386e-05
-1.52051e-05
-3.48806e-05
0.000102731
0.000102726
4.05097e-05
-4.69433e-06
-6.50465e-07
8.58917e-05
7.16823e-05
8.62589e-05
7.12836e-05
0.000101
-1.51527e-05
-3.47145e-05
-1.49685e-05
-3.48068e-05
0.000103105
0.000100825
0.000102879
1.61051e-07
8.59803e-05
7.18099e-05
8.65077e-05
7.13611e-05
-2.68277e-05
0.000114065
1.29178e-06
1.78966e-06
0.000112853
-1.78975e-06
-2.66387e-05
-1.72517e-06
4.3883e-06
1.32846e-06
1.45047e-07
-3.66449e-07
4.63696e-06
7.18229e-06
-0.00013002
-3.32487e-06
7.86083e-07
5.62448e-06
0.000112701
-2.75449e-05
1.33724e-06
-3.37315e-06
-4.29546e-05
0.00035819
3.15718e-06
4.41469e-05
4.94799e-06
8.58101e-05
7.18806e-05
8.67851e-05
7.10216e-05
-0.000360748
3.23401e-06
0.000100468
-1.54239e-05
-3.55904e-05
-1.5542e-05
-3.54575e-05
0.000102899
0.000100111
0.000102318
4.41953e-06
8.55288e-05
7.11335e-05
7.07965e-05
8.58481e-05
2.68955e-06
9.93215e-05
-1.54858e-05
-3.53339e-05
-1.53663e-05
-3.54694e-05
9.96061e-05
0.000101726
0.000101853
-4.11536e-05
0.000356966
3.17578e-06
-3.9034e-06
4.03884e-05
2.99405e-06
8.51872e-05
7.09543e-05
7.05052e-05
8.56279e-05
-2.50413e-06
-0.000357049
9.90444e-05
2.18625e-06
-1.47717e-05
-3.4733e-05
-3.47495e-05
-1.47375e-05
0.000101406
9.91055e-05
0.000101319
8.51859e-05
7.0978e-05
7.05214e-05
8.56594e-05
9.90605e-05
-1.49189e-05
-3.49795e-05
-1.49832e-05
-3.48862e-05
0.000101453
9.90885e-05
0.00010131
2.59676e-06
0.000124522
2.3026e-07
5.42268e-06
-3.06747e-07
-6.96363e-06
-0.000122901
1.65987e-05
-2.80481e-05
0.000112363
7.3455e-07
0.000125827
5.15817e-06
4.60819e-07
-6.77954e-06
-0.000124285
5.53451e-07
1.63648e-05
0.000110953
-7.11489e-07
-2.78336e-05
-1.33149e-07
-0.00012412
1.53969e-06
-3.4832e-06
0.000126026
1.72709e-07
-2.36308e-08
-4.89595e-06
5.27812e-06
1.02146e-07
-0.000127697
1.30495e-07
-4.91897e-06
-0.000127805
-5.11296e-08
5.3335e-06
-0.000123991
2.05797e-07
1.44132e-06
-1.27351e-07
0.000125896
-3.42371e-06
1.88807e-06
-1.91258e-07
-3.73743e-06
0.000126431
-5.17206e-06
5.5019e-06
-0.000129373
-2.21878e-07
1.45764e-06
3.37619e-07
-3.48691e-06
0.000127705
-4.74398e-06
-0.000128235
1.66003e-07
5.22255e-06
5.07141e-06
-6.6946e-06
-0.000122512
2.49492e-07
4.39796e-07
1.58161e-05
-2.72357e-05
-5.35203e-07
0.000110564
1.60577e-05
0.00011064
-2.75073e-05
4.26933e-07
2.76823e-07
4.9126e-06
-2.12179e-07
-6.57832e-06
-0.000122387
5.59493e-06
-1.20884e-06
1.84058e-07
2.60502e-07
5.47813e-06
4.76332e-06
6.65623e-07
4.77475e-06
-2.18751e-09
-3.94275e-05
0.00035641
2.17966e-06
-2.23126e-06
-2.38275e-06
3.91544e-05
2.04598e-06
8.50223e-05
7.08047e-05
7.03525e-05
8.54743e-05
-1.78103e-06
-0.000356522
9.88677e-05
1.65984e-06
-1.45099e-05
-3.44754e-05
-3.44689e-05
-1.44893e-05
0.000101185
9.89126e-05
0.000101078
-2.54214e-06
8.49974e-05
7.07726e-05
7.03372e-05
8.54441e-05
-1.87909e-06
9.88318e-05
-1.45485e-05
-3.45446e-05
-1.45652e-05
-3.44988e-05
0.000101156
9.88894e-05
0.000101051
1.96329e-06
-4.07077e-05
-2.20972e-06
0.000357206
2.51429e-06
4.11091e-05
8.52746e-05
7.10139e-05
7.05921e-05
8.57078e-05
-0.000357404
1.94193e-06
9.91235e-05
-1.4951e-05
-3.48765e-05
-1.48935e-05
-3.48892e-05
0.000101489
9.92166e-05
0.000101405
8.52071e-05
7.09401e-05
7.05282e-05
8.56104e-05
9.90171e-05
-1.48874e-05
-3.47516e-05
-1.47935e-05
-3.48294e-05
0.000101347
9.9145e-05
0.000101322
-2.46628e-07
0.000123788
4.95377e-06
-6.60018e-06
-0.000122152
2.6064e-07
3.39477e-07
1.56592e-05
-2.70502e-05
-4.18774e-07
0.000110343
-4.14546e-07
1.57446e-05
0.000110315
-2.71273e-05
3.1731e-07
0.000123816
2.0645e-07
4.89664e-06
-1.71699e-07
-6.56773e-06
-0.000122177
-0.000123971
1.98995e-07
1.60992e-06
-1.74896e-07
-3.5497e-06
0.000125888
-4.80516e-06
5.18088e-06
-0.000127871
6.8544e-08
-0.000124146
1.61187e-06
2.63644e-07
0.000126058
-3.57957e-06
5.23522e-08
-4.78278e-06
-0.000127729
-1.16756e-08
5.1897e-06
5.05867e-06
-2.33681e-07
-6.69262e-06
-0.000122347
1.5955e-05
-2.73953e-05
0.000110662
3.44443e-07
5.08394e-06
3.12426e-07
-6.73584e-06
-0.000122527
1.58752e-05
0.000110508
-2.72886e-05
-4.87274e-07
1.52282e-06
-3.47448e-06
2.20744e-07
0.00012572
-1.64572e-08
-4.83117e-06
5.21731e-06
-0.00012763
5.73859e-08
1.51062e-07
1.4822e-06
-1.09104e-07
-3.45525e-06
0.000125749
-4.81155e-06
-0.00012759
5.21521e-06
7.81362e-08
-1.86923e-06
0.000358872
-4.00267e-05
2.3724e-06
-0.000358975
1.51867e-06
-1.48853e-05
-3.43982e-05
-1.48702e-05
-3.44115e-05
0.000102034
0.000101957
3.99159e-05
1.92205e-06
-9.36823e-07
8.55691e-05
7.15107e-05
8.5958e-05
7.11277e-05
2.14362e-06
-1.49115e-05
-3.44347e-05
-1.4924e-05
-3.443e-05
0.000101936
0.000101894
2.17331e-06
-1.10898e-06
8.55308e-05
7.14852e-05
8.59137e-05
7.10913e-05
2.27597e-06
0.000358607
-4.12527e-05
-0.00035881
-1.83131e-06
-1.53043e-05
-3.4733e-05
-1.52642e-05
-3.4747e-05
0.000101898
0.000101793
4.1449e-05
-2.24461e-06
-2.20071e-06
8.54217e-05
7.14325e-05
8.58564e-05
7.09949e-05
-1.52972e-05
-3.46863e-05
-1.52038e-05
-3.47396e-05
0.000101841
0.000101751
-2.02278e-06
8.53907e-05
7.13782e-05
8.58112e-05
7.0974e-05
-1.91069e-06
-3.95677e-05
0.000356913
2.05688e-06
3.97594e-05
1.96642e-06
8.51256e-05
7.08563e-05
8.55371e-05
7.04445e-05
-0.000356874
1.66426e-06
9.89344e-05
-1.46573e-05
-3.45873e-05
-1.46036e-05
-3.46019e-05
0.000101261
9.90476e-05
0.000101202
2.14851e-06
8.51033e-05
7.08478e-05
7.04163e-05
8.55339e-05
1.73967e-06
9.89452e-05
-1.46197e-05
-3.45303e-05
-1.45518e-05
-3.45728e-05
9.90297e-05
0.000101246
0.000101178
-3.88775e-05
0.000356607
2.10334e-06
-2.17788e-06
3.87278e-05
2.16984e-06
8.50518e-05
7.08067e-05
7.03573e-05
8.55035e-05
-1.75658e-06
-0.000356758
9.8916e-05
1.796e-06
-1.44244e-05
-3.44027e-05
-3.44032e-05
-1.43966e-05
0.000101205
9.89655e-05
0.000101106
8.50313e-05
7.07619e-05
7.03463e-05
8.54538e-05
9.88611e-05
-1.44434e-05
-3.44293e-05
-1.44331e-05
-3.44121e-05
0.000101163
9.89487e-05
0.000101084
2.1336e-06
0.000123904
2.17751e-07
4.95531e-06
-1.87431e-07
-6.62574e-06
-0.000122262
1.57291e-05
-2.71483e-05
0.000110427
2.69299e-07
0.000123912
4.96525e-06
2.4441e-07
-6.63637e-06
-0.000122276
3.8303e-07
1.57007e-05
0.000110419
-4.4066e-07
-2.71114e-05
-1.6385e-07
-0.000123838
1.51246e-06
-3.48652e-06
0.00012578
1.98389e-07
-4.37123e-08
-4.85691e-06
5.25387e-06
8.72934e-08
-0.000127755
8.18888e-09
-4.84131e-06
-0.000127687
2.79706e-08
5.24535e-06
-0.000123885
1.53938e-07
1.5029e-06
-1.07108e-07
0.000125829
-3.49235e-06
1.53463e-06
-1.25018e-07
-3.5052e-06
0.000125838
-4.82421e-06
5.21458e-06
-0.000127704
3.73907e-08
1.53837e-06
2.01571e-07
-3.51274e-06
0.000125838
-4.83231e-06
-0.00012773
5.25883e-08
5.22843e-06
4.92702e-06
-6.60079e-06
-0.000122186
2.43253e-07
3.79296e-07
1.56141e-05
-2.70181e-05
-4.3853e-07
0.000110385
1.56484e-05
0.00011034
-2.70419e-05
3.01205e-07
2.13245e-07
4.90963e-06
-1.75312e-07
-6.6014e-06
-0.000122229
-3.85687e-05
0.000356899
2.83569e-06
-2.55247e-06
-2.91312e-06
3.84435e-05
3.35316e-06
8.50973e-05
7.08234e-05
7.03754e-05
8.55501e-05
-2.43132e-06
-0.000357065
9.89495e-05
2.80773e-06
-1.43658e-05
-3.43662e-05
-3.43765e-05
-1.43341e-05
0.000101207
9.90059e-05
0.000101129
-2.61738e-06
8.50946e-05
7.0782e-05
7.0379e-05
8.55062e-05
-2.16834e-06
9.89079e-05
-1.43897e-05
-3.43881e-05
-1.4359e-05
-3.43883e-05
0.000101197
9.90095e-05
0.000101122
3.24976e-06
-3.88741e-05
-2.25326e-06
0.000357035
2.28425e-06
3.89881e-05
8.51144e-05
7.08168e-05
7.04122e-05
8.55218e-05
-0.000356919
1.9417e-06
9.89288e-05
-1.44877e-05
-3.44536e-05
-1.44418e-05
-3.44663e-05
0.000101229
9.90405e-05
0.000101169
8.51047e-05
7.0835e-05
7.03942e-05
8.55484e-05
9.8965e-05
-1.44615e-05
-3.44277e-05
-1.44136e-05
-3.44508e-05
0.000101242
9.90323e-05
0.000101163
-2.70256e-07
0.000123874
4.94198e-06
-6.64776e-06
-0.000122216
3.20965e-07
6.15217e-07
1.5597e-05
-2.70114e-05
-6.28566e-07
0.000110383
-4.73436e-07
1.56152e-05
0.000110379
-2.70301e-05
4.20698e-07
0.000123849
3.69358e-07
4.94073e-06
-3.05763e-07
-6.66209e-06
-0.000122189
-0.000123913
2.0241e-07
1.52713e-06
-1.48163e-07
-3.52261e-06
0.000125856
-4.86407e-06
5.2703e-06
-0.000127764
4.53636e-09
-0.000123908
1.52363e-06
2.08713e-07
0.000125848
-3.51608e-06
-3.91186e-08
-4.87442e-06
-0.000127801
8.66945e-08
5.27732e-06
4.94061e-06
-2.25086e-07
-6.63921e-06
-0.000122258
1.56431e-05
-2.70623e-05
0.000110412
3.19457e-07
4.93994e-06
2.58554e-07
-6.63322e-06
-0.000122257
1.56314e-05
0.000110427
-2.70493e-05
-5.11451e-07
1.52964e-06
-3.52903e-06
2.59657e-07
0.000125818
-3.18081e-08
-4.88711e-06
5.291e-06
-0.000127762
7.99414e-08
2.84247e-07
1.53634e-06
-2.12839e-07
-3.54354e-06
0.000125786
-4.8855e-06
-0.000127768
5.29665e-06
9.16952e-09
-3.84548e-06
0.00035874
-4.1076e-05
4.8917e-06
-0.000358631
3.34404e-06
-1.52264e-05
-3.46575e-05