/*--------------------------------*- C++ -*----------------------------------*\
| =========                 |                                                 |
| \\      /  F ield         | OpenFOAM: The Open Source CFD Toolbox           |
|  \\    /   O peration     | Version:  2012                                  |
|   \\  /    A nd           | Website:  www.openfoam.com                      |
|    \\/     M anipulation  |                                                 |
\*---------------------------------------------------------------------------*/
FoamFile
{
    version     2.0;
    format      ascii;
    class       pointVectorField;
    location    "0.105/fluid";
    object      pointMotionU;
}
// * * * * * * * * * * * * * * * * * * * * * * * * * * * * * * * * * * * * * //

dimensions      [0 1 -1 0 0 0 0];


internalField   nonuniform List<vector> 
22592
(
(0 0 0)
(-7.03798e-05 -5.0967e-05 -1.83458e-82)
(-0.000155058 -9.68965e-05 -1.99282e-80)
(-0.000237792 -0.000126816 -2.3514e-79)
(-0.000303743 -0.000140719 -5.96578e-79)
(-0.000349706 -0.000140939 -3.4996e-79)
(-0.000375807 -0.000129254 2.89031e-77)
(-0.000382005 -0.000107852 2.55302e-77)
(-0.000366593 -8.20805e-05 -5.43274e-75)
(-0.000331257 -5.89131e-05 -1.73497e-74)
(-0.000275765 -3.94918e-05 7.31023e-69)
(-0.000202654 -2.2005e-05 5.48156e-57)
(-0.000123187 -4.76803e-06 2.53775e-45)
(-5.63617e-05 4.6523e-06 -1.49123e-34)
(-1.0155e-05 1.0174e-06 -3.68579e-23)
(7.27599e-07 1.54822e-07 4.58272e-28)
(0 0 0)
(-8.9251e-05 -4.18305e-05 -1.00676e-68)
(-0.000190265 -7.90761e-05 -2.78148e-66)
(-0.000285375 -0.000103407 -3.29561e-65)
(-0.000361853 -0.000115149 -4.85153e-65)
(-0.00041769 -0.000115166 -8.61661e-66)
(-0.000450917 -0.000104569 7.12482e-69)
(-0.000459614 -8.55174e-05 1.186e-63)
(-0.000444492 -6.2514e-05 -5.57269e-63)
(-0.000406532 -4.1891e-05 -3.63976e-62)
(-0.000344291 -2.57201e-05 -2.34485e-62)
(-0.000259849 -1.22053e-05 1.20861e-56)
(-0.000167911 6.82248e-07 2.45166e-45)
(-9.04493e-05 8.47733e-06 -1.52962e-36)
(-3.67176e-05 6.0951e-06 -3.67398e-34)
(-9.99565e-06 5.26372e-06 5.2395e-35)
(0 0 0)
(-0.000104397 -2.33214e-05 -9.32345e-66)
(-0.000216548 -4.41744e-05 -2.36562e-54)
(-0.000318913 -5.83152e-05 -7.12891e-53)
(-0.000401075 -6.557e-05 -3.45136e-53)
(-0.000462772 -6.56071e-05 -4.90876e-58)
(-0.000500888 -5.91524e-05 9.17221e-67)
(-0.000511932 -4.77463e-05 2.32235e-56)
(-0.000498215 -3.40434e-05 -1.90912e-50)
(-0.000460432 -2.14967e-05 2.5884e-49)
(-0.000397014 -1.1454e-05 1.62197e-49)
(-0.00031122 -3.554e-06 1.7163e-49)
(-0.000216139 4.01827e-06 -1.35428e-50)
(-0.000130574 9.74188e-06 -8.08066e-47)
(-6.71932e-05 1.09324e-05 -1.17138e-46)
(-3.51536e-05 1.17118e-05 1.07107e-47)
(0 0 0)
(-0.0001114 0 0)
(-0.000226972 0 0)
(-0.000331433 0 0)
(-0.000414996 0 0)
(-0.000477603 0 0)
(-0.000516977 0 0)
(-0.000528862 0 0)
(-0.000515621 0 0)
(-0.000477621 0 0)
(-0.000414113 0 0)
(-0.000329676 0 0)
(-0.000236003 0 0)
(-0.000149001 0 0)
(-8.41849e-05 0 0)
(-5.12311e-05 0 0)
(0 0 0)
(-7.29109e-05 -4.98377e-05 2.7375e-06)
(-0.000158469 -9.4584e-05 5.38302e-06)
(-0.000240088 -0.00012385 7.68451e-06)
(-0.000303053 -0.000138172 9.76732e-06)
(-0.000344484 -0.000139694 1.15462e-05)
(-0.000365377 -0.000129292 1.28121e-05)
(-0.00036556 -0.000109186 1.33813e-05)
(-0.000345297 -8.40532e-05 1.31925e-05)
(-0.000306485 -5.98744e-05 1.21435e-05)
(-0.000250169 -3.8316e-05 9.85252e-06)
(-0.000180178 -1.8187e-05 5.0189e-06)
(-0.000111423 3.93709e-07 -3.68487e-06)
(-5.91716e-05 9.24977e-06 -1.1694e-05)
(-7.93843e-06 1.64247e-06 -2.14535e-06)
(1.31055e-05 -8.30246e-07 -1.22706e-06)
(0 0 0)
(-9.25137e-05 -4.11852e-05 2.90634e-06)
(-0.000194253 -7.70197e-05 5.5047e-06)
(-0.00028861 -0.000100599 7.69481e-06)
(-0.000362719 -0.000112577 9.63598e-06)
(-0.000413762 -0.000113585 1.12337e-05)
(-0.000440903 -0.000104183 1.2202e-05)
(-0.000443822 -8.62153e-05 1.22855e-05)
(-0.00042368 -6.41675e-05 1.14952e-05)
(-0.000381746 -4.29814e-05 9.84465e-06)
(-0.000318774 -2.51146e-05 7.00135e-06)
(-0.000239159 -9.17941e-06 1.94613e-06)
(-0.000157784 5.33761e-06 -5.92369e-06)
(-9.05591e-05 1.26385e-05 -1.33598e-05)
(-3.97117e-05 7.27187e-06 -1.16911e-05)
(-6.81013e-06 6.53049e-06 -4.86973e-06)
(0 0 0)
(-0.000107865 -2.30039e-05 2.89574e-06)
(-0.000220992 -4.29869e-05 5.38238e-06)
(-0.000322731 -5.64854e-05 7.44327e-06)
(-0.000403038 -6.37063e-05 9.23159e-06)
(-0.000460145 -6.43626e-05 1.059e-05)
(-0.000491961 -5.88028e-05 1.12049e-05)
(-0.000497349 -4.81221e-05 1.08008e-05)
(-0.000478201 -3.49732e-05 9.33674e-06)
(-0.000436064 -2.23606e-05 6.73601e-06)
(-0.000371671 -1.16139e-05 2.74112e-06)
(-0.000291094 -2.28017e-06 -2.94804e-06)
(-0.000206358 6.49021e-06 -9.95915e-06)
(-0.000129997 1.27132e-05 -1.54814e-05)
(-7.34235e-05 1.38331e-05 -1.42828e-05)
(-4.01896e-05 1.48613e-05 -7.14399e-06)
(0 0 0)
(-0.000114666 0 2.87413e-06)
(-0.000231262 0 5.28987e-06)
(-0.000334938 0 7.28909e-06)
(-0.000416757 0 8.97961e-06)
(-0.000475209 0 1.01916e-05)
(-0.000508383 0 1.0623e-05)
(-0.000514685 0 1.00085e-05)
(-0.000496049 0 8.20895e-06)
(-0.00045395 0 5.12651e-06)
(-0.000389953 0 5.79129e-07)
(-0.000310557 0 -5.36821e-06)
(-0.000226209 0 -1.17997e-05)
(-0.00014919 0 -1.58526e-05)
(-9.14867e-05 0 -1.4069e-05)
(-5.85793e-05 0 -7.83238e-06)
(0 0 0)
(-7.78082e-05 -4.6409e-05 5.12543e-06)
(-0.000164317 -8.76446e-05 9.83194e-06)
(-0.000243189 -0.000115557 1.39792e-05)
(-0.000299265 -0.000131062 1.7787e-05)
(-0.000329254 -0.000135318 2.10164e-05)
(-0.000334954 -0.000128912 2.32707e-05)
(-0.00031975 -0.000112849 2.41825e-05)
(-0.000285993 -8.99226e-05 2.34956e-05)
(-0.000235489 -6.34601e-05 2.10483e-05)
(-0.000172871 -3.7338e-05 1.63732e-05)
(-0.000107935 -1.27539e-05 7.49028e-06)
(-6.15939e-05 7.82934e-06 -7.87071e-06)
(-4.84038e-05 1.3739e-05 -2.15576e-05)
(-3.52374e-07 -1.04007e-06 -5.27081e-06)
(3.83517e-05 -1.01433e-05 -1.45034e-06)
(0 0 0)
(-9.72516e-05 -3.79937e-05 5.35465e-06)
(-0.000201132 -7.09593e-05 1.00289e-05)
(-0.000293914 -9.31547e-05 1.39834e-05)
(-0.000361621 -0.000105724 1.74809e-05)
(-0.000400811 -0.000109005 2.02689e-05)
(-0.000412838 -0.000103018 2.18672e-05)
(-0.000399514 -8.87745e-05 2.19189e-05)
(-0.000364462 -6.93348e-05 2.01872e-05)
(-0.000310976 -4.74517e-05 1.65024e-05)
(-0.000242857 -2.57193e-05 1.05653e-05)
(-0.000172193 -4.79683e-06 1.0801e-06)
(-0.000113071 1.28409e-05 -1.31213e-05)
(-7.69542e-05 1.73605e-05 -2.50701e-05)
(-4.21751e-05 6.18933e-06 -2.11837e-05)
(2.1362e-06 5.00881e-06 -8.63315e-06)
(0 0 0)
(-0.000112135 -2.12898e-05 5.32165e-06)
(-0.000228441 -3.95861e-05 9.79781e-06)
(-0.000329344 -5.19752e-05 1.34772e-05)
(-0.000404046 -5.92076e-05 1.66058e-05)
(-0.000449914 -6.1195e-05 1.89121e-05)
(-0.000467066 -5.75986e-05 1.98359e-05)
(-0.000456963 -4.91596e-05 1.89012e-05)
(-0.000423004 -3.77739e-05 1.59202e-05)
(-0.000369291 -2.54256e-05 1.0771e-05)
(-0.000302065 -1.3127e-05 3.21436e-06)
(-0.000231656 -7.51041e-07 -7.14389e-06)
(-0.000168201 1.04423e-05 -1.95556e-05)
(-0.000118454 1.65762e-05 -2.89026e-05)
(-8.00539e-05 1.64335e-05 -2.65919e-05)
(-4.61872e-05 1.65387e-05 -1.46983e-05)
(0 0 0)
(-0.000118172 0 5.24755e-06)
(-0.000238357 0 9.63137e-06)
(-0.000341263 0 1.31958e-05)
(-0.000417699 0 1.61379e-05)
(-0.000465482 0 1.81936e-05)
(-0.000484397 0 1.88059e-05)
(-0.000475747 0 1.74469e-05)
(-0.000442604 0 1.38614e-05)
(-0.000389243 0 7.97087e-06)
(-0.000323662 0 -4.08561e-07)
(-0.000255123 0 -1.10587e-05)
(-0.00019154 0 -2.23785e-05)
(-0.000138772 0 -2.95975e-05)
(-9.86073e-05 0 -2.68718e-05)
(-6.68971e-05 0 -1.6815e-05)
(0 0 0)
(-8.11108e-05 -4.21359e-05 6.40847e-06)
(-0.000168598 -7.88179e-05 1.21253e-05)
(-0.00024488 -0.00010506 1.71453e-05)
(-0.000292911 -0.000121475 2.17764e-05)
(-0.00030935 -0.000128504 2.57127e-05)
(-0.000297542 -0.000126376 2.84587e-05)
(-0.00026333 -0.00011535 2.93498e-05)
(-0.000212696 -9.6193e-05 2.80337e-05)
(-0.000148735 -7.06788e-05 2.43815e-05)
(-7.61547e-05 -4.27087e-05 1.82212e-05)
(0 0 0)
(-9.9328e-05 -3.44213e-05 6.70335e-06)
(-0.000204952 -6.36689e-05 1.23785e-05)
(-0.000296529 -8.43964e-05 1.71891e-05)
(-0.000357375 -9.7366e-05 2.14241e-05)
(-0.000383173 -0.000102931 2.48347e-05)
(-0.000377783 -0.00010067 2.66928e-05)
(-0.000345704 -9.10362e-05 2.64297e-05)
(-0.000290904 -7.52044e-05 2.38743e-05)
(-0.000222732 -5.45695e-05 1.87342e-05)
(0 0 0)
(-0.00011271 -1.91576e-05 6.64274e-06)
(-0.000231781 -3.55071e-05 1.21818e-05)
(-0.000332415 -4.70814e-05 1.66781e-05)
(-0.000401054 -5.44283e-05 2.04447e-05)
(-0.000434661 -5.75596e-05 2.31801e-05)
(-0.000435008 -5.60977e-05 2.41555e-05)
(-0.000405466 -5.04642e-05 2.27607e-05)
(-0.00035218 -4.13734e-05 1.87251e-05)
(0 0 0)
(-0.000118321 0 6.55739e-06)
(-0.00024106 0 1.20118e-05)
(-0.000343656 0 1.63536e-05)
(-0.000414888 0 1.98818e-05)
(-0.000451046 0 2.23246e-05)
(-0.000453382 0 2.29443e-05)
(-0.000424867 0 2.09638e-05)
(-4.01933e-06 3.83981e-07 -7.36755e-21)
(-1.07409e-06 5.74845e-09 7.66401e-22)
(-9.38743e-06 1.10886e-06 -8.29429e-07)
(4.31864e-06 4.44408e-07 -8.99449e-07)
(8.1761e-07 2.12709e-06 1.79569e-06)
(8.60391e-06 1.50888e-06 2.66331e-06)
(-3.68779e-06 1.37627e-06 -3.19912e-06)
(2.49175e-05 -4.47164e-06 -1.2249e-06)
(1.44424e-05 4.22104e-07 7.17959e-07)
(2.89648e-05 -2.88017e-06 3.6123e-06)
(6.72548e-06 -4.91661e-06 -6.53275e-06)
(5.15698e-05 -1.4785e-05 -1.47113e-06)
(-2.87999e-06 8.22544e-07 1.2457e-06)
(1.69842e-06 5.55123e-07 1.31937e-06)
(7.50161e-06 2.30332e-06 1.79437e-06)
(1.84606e-05 6.48179e-07 3.59196e-06)
(2.30648e-05 -3.7349e-06 -3.16225e-07)
(3.93915e-05 -7.70178e-06 3.12535e-06)
(-2.33189e-05 3.37447e-06 -3.55954e-06)
(-1.80957e-07 1.06856e-07 7.17653e-07)
(-7.05403e-06 1.01508e-06 -1.63437e-06)
(-2.81665e-05 5.70263e-06 -1.18104e-05)
(1.18717e-05 2.09601e-06 4.98871e-06)
(1.15511e-06 -1.43553e-06 -4.73548e-06)
(-1.94256e-05 2.55086e-06 -1.74281e-05)
(3.18139e-05 -2.43147e-06 4.63256e-06)
(1.30591e-05 -8.94844e-06 -7.45055e-06)
(-6.42619e-07 1.11817e-08 1.33797e-06)
(1.28916e-06 9.89174e-07 6.00728e-08)
(4.38432e-06 1.62065e-06 3.84856e-06)
(4.33878e-06 6.60693e-07 3.86801e-06)
(7.98609e-06 5.05143e-06 1.29671e-06)
(1.32465e-05 2.29558e-06 5.59735e-06)
(1.85001e-05 6.41583e-06 2.93963e-06)
(2.20861e-05 1.00152e-06 5.38427e-06)
(2.42875e-05 1.32437e-06 6.29982e-06)
(3.11747e-05 3.79591e-06 4.01469e-06)
(3.5919e-05 -1.63057e-06 6.10138e-06)
(4.45963e-05 -7.32034e-07 4.31183e-06)
(4.02038e-05 -9.49654e-06 3.22067e-06)
(4.30591e-05 -9.23634e-06 4.58681e-06)
(5.74447e-05 -5.19622e-06 4.04974e-06)
(-4.58012e-05 3.24478e-06 -1.03997e-33)
(-3.43018e-06 3.39998e-07 -8.13614e-28)
(-2.94852e-05 3.62281e-06 1.45026e-27)
(-5.72884e-05 6.01167e-06 -5.59208e-06)
(-2.18601e-05 2.84968e-06 -1.06954e-27)
(-6.12276e-06 5.76799e-07 -1.12368e-20)
(-4.27194e-06 2.21401e-07 3.31452e-21)
(-1.00039e-05 1.03855e-06 -4.70399e-07)
(-1.92955e-06 1.46332e-06 -9.06906e-30)
(2.66666e-07 1.37707e-07 1.03273e-19)
(1.43777e-07 1.55316e-07 1.27338e-25)
(1.69227e-06 3.02864e-07 -5.24357e-07)
(-1.96863e-05 4.6064e-06 1.72831e-34)
(-3.7402e-05 6.54247e-06 -5.85215e-06)
(-9.22125e-06 5.78656e-06 -2.45016e-06)
(-5.05371e-05 7.24471e-06 -1.10404e-05)
(-1.54964e-06 1.69455e-06 4.47665e-07)
(8.99167e-06 1.2118e-06 -1.61672e-06)
(-3.337e-05 6.09968e-06 -9.27855e-06)
(-5.63665e-05 1.18742e-05 -1.69411e-05)
(-2.26226e-05 3.14911e-06 -7.45062e-06)
(-8.75155e-06 1.34975e-06 -1.4064e-06)
(-1.74104e-06 1.85104e-06 6.51463e-07)
(2.37133e-06 8.39238e-07 1.41304e-06)
(-6.26405e-06 1.69685e-06 -2.72956e-06)
(6.22821e-06 1.84357e-07 -2.82348e-06)
(8.18867e-06 2.97329e-07 -1.14246e-06)
(1.29952e-05 1.49079e-06 -1.05327e-06)
(1.17531e-05 1.89523e-06 1.30785e-06)
(1.86152e-05 -2.05184e-06 -1.25056e-06)
(-1.97134e-05 5.203e-06 -7.60118e-06)
(-4.12278e-05 7.41444e-06 -1.65527e-05)
(-2.71977e-06 6.3018e-06 -6.92473e-06)
(-4.2191e-05 1.04409e-05 -2.04216e-05)
(7.54006e-06 -9.26439e-07 -1.91818e-06)
(-3.2424e-05 6.51575e-06 -1.73494e-05)
(-3.01553e-05 1.34069e-05 -2.37093e-05)
(-2.08764e-05 1.19466e-07 -1.38829e-05)
(-1.92901e-06 4.13491e-07 -4.14383e-06)
(1.04968e-05 -3.2098e-08 -8.48505e-07)
(1.75987e-05 -2.50943e-06 9.00483e-07)
(2.92878e-06 -2.74926e-06 -5.93146e-06)
(2.45297e-05 -5.71115e-06 -4.60167e-06)
(3.14122e-05 -6.98183e-06 -1.32895e-06)
(3.86682e-05 -7.25928e-06 -7.98159e-07)
(3.52336e-05 -4.92923e-06 2.24847e-06)
(4.47698e-05 -1.21569e-05 -1.45809e-06)
(-1.73058e-05 2.93271e-06 -1.37946e-05)
(-3.84345e-05 3.48453e-06 -2.38957e-05)
(7.47714e-06 1.71658e-06 -9.59168e-06)
(1.01089e-05 -7.50391e-06 -7.34596e-06)
(5.76304e-05 -1.69407e-05 -1.63181e-06)
(3.25597e-06 2.08508e-06 3.69366e-06)
(2.85953e-06 9.98347e-07 3.77167e-06)
(3.93893e-06 1.52399e-06 2.99494e-06)
(2.18398e-05 4.4526e-06 7.22716e-06)
(2.23754e-05 4.44892e-06 8.26732e-06)
(2.5671e-05 5.17728e-06 8.00821e-06)
(4.71831e-05 -2.22472e-06 7.20756e-06)
(4.8138e-05 -7.03492e-07 8.2919e-06)
(5.36554e-05 -9.90469e-07 8.82769e-06)
(-3.83817e-06 5.27974e-07 5.17293e-07)
(-3.19775e-07 -4.08973e-08 1.3871e-16)
(-3.4672e-06 9.07782e-07 5.34637e-07)
(2.44114e-06 1.18065e-06 -5.0787e-07)
(-3.33146e-07 1.80393e-07 6.23096e-07)
(1.61653e-07 -1.08929e-07 -3.33529e-17)
(-4.94031e-06 7.02827e-07 6.26805e-07)
(-2.35334e-06 2.3079e-07 8.85284e-07)
(4.05735e-06 1.3598e-06 -1.02724e-06)
(3.54137e-06 1.29395e-06 3.97057e-07)
(1.09392e-05 4.56285e-06 6.12435e-06)
(-1.32068e-06 1.44172e-06 1.67739e-06)
(1.09484e-05 3.88963e-06 6.6334e-06)
(3.72502e-06 2.40885e-06 1.81406e-06)
(3.06776e-06 1.3733e-06 -2.54564e-07)
(1.88621e-05 -2.25614e-06 -2.46121e-06)
(4.80679e-06 1.20645e-06 2.03555e-06)
(1.31764e-05 4.78477e-06 5.96051e-06)
(1.33036e-05 1.5098e-06 3.20827e-06)
(4.45087e-06 1.97078e-06 4.54742e-07)
(1.00338e-05 3.83975e-07 1.65796e-06)
(2.50146e-05 -1.66399e-06 -8.39285e-07)
(2.28687e-05 -9.83187e-08 2.11797e-06)
(3.4622e-05 2.24866e-06 7.55762e-06)
(1.09652e-05 1.62614e-06 1.3568e-06)
(3.54152e-05 3.13039e-06 8.74557e-06)
(1.87756e-05 -1.26618e-06 2.63521e-07)
(1.45363e-05 -5.27832e-06 -3.19042e-06)
(2.3962e-05 -6.60522e-07 3.74528e-06)
(3.99108e-05 3.10763e-06 8.88201e-06)
(3.46453e-05 -4.79676e-06 3.4802e-06)
(1.87511e-05 -4.08358e-06 -1.89641e-06)
(2.63084e-05 -7.03494e-06 4.40462e-08)
(5.22526e-05 -1.23747e-05 -9.17848e-07)
(4.74321e-05 -9.69312e-06 2.03892e-06)
(2.65154e-05 -7.14864e-06 -1.23219e-06)
(4.31707e-05 -1.09919e-05 2.52057e-06)
(-4.73398e-05 4.44795e-06 -5.06298e-06)
(-3.66729e-06 5.09955e-07 1.31631e-07)
(-3.04047e-05 4.35433e-06 -4.34712e-06)
(-2.58518e-05 4.73983e-06 -7.45754e-06)
(-5.87828e-06 6.12374e-07 2.56966e-07)
(-2.64989e-06 1.39555e-06 7.13125e-07)
(-3.63669e-06 1.17034e-06 7.24959e-07)
(6.19694e-07 3.09724e-07 9.96003e-07)
(5.56461e-07 2.9947e-07 1.73618e-06)
(1.65505e-06 8.59841e-07 2.61038e-06)
(4.72453e-07 2.75829e-07 -1.38833e-07)
(-2.18609e-05 3.05924e-06 -3.63823e-06)
(2.78055e-07 1.36918e-06 -1.50159e-06)
(-1.97121e-05 4.94283e-06 -3.81626e-06)
(-3.55881e-06 5.73983e-07 -3.09338e-06)
(-3.79675e-06 2.06356e-07 4.12696e-07)
(1.0531e-06 5.13329e-07 1.04385e-07)
(-2.53981e-07 5.11272e-07 1.23665e-06)
(7.15856e-06 1.93221e-06 8.04152e-07)
(-4.86562e-05 9.23431e-06 -1.59573e-05)
(2.54396e-07 1.67647e-06 6.52733e-08)
(-3.31961e-05 6.82928e-06 -1.31179e-05)
(-2.55546e-05 4.63364e-06 -1.47546e-05)
(9.71058e-07 2.13777e-06 5.77248e-07)
(5.45317e-06 5.30417e-07 -9.69845e-07)
(7.37396e-06 1.19242e-06 -1.34849e-07)
(7.91027e-06 2.24532e-06 4.65865e-06)
(1.61148e-05 4.84445e-06 6.77301e-06)
(1.64101e-05 4.48471e-06 7.63161e-06)
(1.71298e-05 1.94004e-06 5.43374e-06)
(1.37414e-05 -1.76356e-07 -2.10893e-06)
(-2.16386e-05 2.61894e-06 -1.05587e-05)
(1.47974e-05 -2.14059e-06 -3.81152e-06)
(-1.86204e-05 4.81365e-06 -1.07867e-05)
(7.49667e-06 -4.44325e-06 -5.98618e-06)
(5.76936e-06 8.07682e-07 1.5454e-06)
(1.69439e-05 1.39848e-06 1.72447e-06)
(1.39816e-05 -7.63205e-07 1.41794e-06)
(2.88931e-05 -2.15857e-06 2.22226e-06)
(-2.44714e-05 9.64943e-06 -2.2118e-05)
(1.07592e-05 -2.83327e-06 -2.57448e-06)
(-2.28847e-05 4.62305e-06 -1.91746e-05)
(1.47283e-05 -1.66604e-06 -1.29277e-06)
(1.79803e-05 -8.32993e-06 -4.01847e-06)
(2.20151e-05 -7.28055e-06 -2.79181e-06)
(2.72549e-05 -2.50905e-07 5.18086e-06)
(4.1397e-05 4.37376e-07 7.49947e-06)
(4.23663e-05 1.76318e-06 8.72385e-06)
(3.74747e-05 -4.89421e-06 4.32166e-06)
(-1.56173e-05 -3.14959e-06 -1.58443e-05)
(3.37488e-05 -9.37578e-06 -4.94915e-06)
(-1.38182e-05 -1.75936e-07 -1.56521e-05)
(2.19329e-05 -4.49214e-06 4.90049e-07)
(4.12547e-05 -6.97979e-06 2.1627e-06)
(2.97417e-05 -1.03315e-05 -6.49777e-07)
(5.2685e-05 -1.21615e-05 1.68257e-06)
(1.28411e-06 3.89738e-07 1.47374e-06)
(1.39835e-06 1.14124e-07 2.74244e-06)
(4.02934e-06 3.08028e-06 5.34097e-07)
(1.32511e-06 5.48379e-07 -6.47641e-07)
(6.66557e-06 3.8998e-06 5.21557e-06)
(6.47697e-06 2.48383e-06 5.44125e-06)
(5.24647e-06 1.74156e-06 -9.71548e-07)
(8.04957e-06 3.26709e-06 4.57398e-06)
(8.62469e-06 2.10403e-06 4.93071e-06)
(7.99954e-06 1.87464e-06 -1.14637e-06)
(1.28063e-05 6.45781e-06 2.11535e-06)
(1.92084e-05 5.36651e-06 7.15411e-06)
(1.90686e-05 2.25539e-06 6.22896e-06)
(2.45702e-05 5.70903e-06 3.58455e-06)
(1.86256e-05 4.97163e-07 -9.74443e-07)
(2.84076e-05 3.74942e-06 7.56612e-06)
(2.90935e-05 4.11465e-06 8.75089e-06)
(3.28554e-05 4.44452e-06 8.61243e-06)
(3.05337e-05 2.92957e-07 6.37992e-06)
(3.1615e-05 -4.14073e-06 -8.22637e-07)
(3.77894e-05 2.03834e-06 4.22171e-06)
(4.7314e-05 1.52114e-06 9.01579e-06)
(4.17194e-05 -4.14349e-06 5.81838e-06)
(5.09896e-05 -2.75732e-06 4.25087e-06)
(4.53359e-05 -9.59552e-06 -8.62039e-07)
(5.27122e-05 -5.59246e-06 6.757e-06)
(5.2156e-05 -5.32236e-06 7.43109e-06)
(5.84863e-05 -4.69306e-06 8.27204e-06)
(5.87904e-05 -1.47342e-05 -1.07726e-06)
(-2.08547e-05 2.42871e-06 2.85254e-27)
(-3.05871e-07 -6.39351e-09 2.00667e-20)
(-8.15478e-06 1.21745e-06 3.32445e-28)
(-1.34885e-06 -2.17081e-08 1.55608e-20)
(2.14613e-07 1.37389e-07 1.06176e-19)
(2.60518e-06 1.20556e-06 3.55986e-06)
(1.74168e-07 1.24135e-08 3.33474e-07)
(2.33051e-05 5.48119e-06 9.68769e-06)
(1.6696e-05 5.33684e-06 8.75996e-06)
(5.40137e-05 1.46237e-06 1.06004e-05)
(4.64509e-05 3.41864e-06 1.08414e-05)
(1.81944e-06 2.15201e-06 2.74257e-06)
(7.13165e-08 9.09581e-08 1.19218e-07)
(1.48397e-06 1.13276e-06 6.37588e-07)
(1.85821e-07 1.62007e-07 4.34086e-07)
(2.78009e-06 7.18736e-07 3.45027e-06)
(5.77301e-07 -1.32284e-07 1.13069e-06)
(2.5218e-06 1.87322e-06 1.32425e-06)
(2.87444e-07 1.21025e-07 -1.29592e-07)
(2.32867e-06 1.0908e-06 -1.94273e-07)
(3.96964e-07 -2.80281e-08 3.6666e-07)
(6.13438e-06 2.84239e-06 5.81577e-06)
(1.09336e-05 4.54801e-06 7.51214e-06)
(4.32721e-06 4.53518e-06 3.97645e-06)
(7.36191e-06 2.91165e-06 6.65544e-07)
(3.92774e-06 2.26142e-06 7.52444e-07)
(7.88762e-06 6.45563e-06 4.80415e-06)
(6.39108e-06 1.48399e-06 5.57701e-06)
(1.1654e-05 3.92136e-06 7.45121e-06)
(6.01111e-06 4.26329e-06 2.59662e-06)
(1.03623e-05 2.89758e-06 4.55262e-07)
(5.80258e-06 2.22966e-06 5.67053e-08)
(1.05659e-05 6.24779e-06 3.86864e-06)
(1.76429e-05 7.89371e-06 5.80998e-06)
(1.16926e-05 2.8221e-06 5.07383e-07)
(1.23818e-05 7.58236e-06 5.38069e-06)
(1.67712e-05 1.98835e-06 3.69905e-07)
(2.48631e-05 5.17016e-06 1.01198e-05)
(1.7977e-05 5.0323e-06 9.02357e-06)
(2.20975e-05 7.79024e-06 5.93429e-06)
(1.57909e-05 2.82867e-06 8.71247e-07)
(1.5987e-05 7.42792e-06 5.01126e-06)
(2.19038e-05 2.028e-06 1.2155e-06)
(3.07959e-05 5.32511e-06 1.04285e-05)
(3.86824e-05 4.69376e-06 1.08284e-05)
(2.35224e-05 7.55731e-06 6.11059e-06)
(2.85487e-05 -1.0161e-06 2.55255e-07)
(2.244e-05 6.58385e-07 2.9344e-07)
(2.98353e-05 6.71983e-06 6.29819e-06)
(3.26725e-05 5.04649e-06 1.099e-05)
(4.07664e-05 4.39742e-06 1.14721e-05)
(2.871e-05 7.48903e-06 6.62447e-06)
(3.54032e-05 -9.30723e-07 1.60599e-06)
(2.85019e-05 7.13264e-07 1.45437e-06)
(3.56382e-05 6.68184e-06 7.07326e-06)
(4.30387e-05 4.04977e-06 6.34231e-06)
(3.49177e-05 -2.84843e-06 2.51634e-07)
(3.63993e-05 5.52492e-06 6.36114e-06)
(4.13929e-05 -4.72407e-06 2.83257e-07)
(5.68384e-05 1.38509e-06 1.16085e-05)
(4.92549e-05 3.36993e-06 1.17491e-05)
(4.96422e-05 4.08262e-06 7.43449e-06)
(4.23844e-05 -2.74761e-06 1.68385e-06)
(4.26787e-05 5.52347e-06 7.33606e-06)
(4.92744e-05 -4.60689e-06 1.70183e-06)
(6.09184e-05 -1.5777e-06 1.01395e-05)
(6.63747e-05 -6.95184e-06 9.29093e-06)
(4.96363e-05 2.43851e-06 6.28902e-06)
(5.41622e-05 -8.18304e-06 5.13086e-07)
(4.78285e-05 -6.55016e-06 3.59326e-07)
(5.60932e-05 8.11196e-07 6.28028e-06)
(6.35718e-05 -1.77571e-06 1.12445e-05)
(6.76418e-05 -7.46174e-06 1.03651e-05)
(5.64044e-05 2.48094e-06 7.4081e-06)
(6.24011e-05 -8.05201e-06 1.5563e-06)
(5.59496e-05 -6.40503e-06 1.66638e-06)
(6.28644e-05 8.31948e-07 7.27515e-06)
(4.29773e-06 3.38727e-06 5.13124e-06)
(4.03111e-06 2.66662e-06 4.46627e-06)
(4.95791e-06 2.78003e-06 4.19238e-06)
(2.71768e-05 8.38508e-06 1.02283e-05)
(2.53292e-05 8.34681e-06 9.93541e-06)
(3.03146e-05 8.07668e-06 1.05764e-05)
(5.94646e-05 3.80665e-06 1.08934e-05)
(5.42203e-05 4.51653e-06 1.0783e-05)
(6.40071e-05 3.63908e-06 1.19546e-05)
(2.48984e-08 5.6049e-08 -5.92426e-14)
(9.70979e-06 7.83144e-07 -1.65451e-06)
(1.29869e-05 8.57827e-07 -1.14682e-06)
(3.23209e-05 -6.32197e-06 -2.69455e-06)
(3.91292e-05 -6.22298e-06 -1.17069e-06)
(2.70067e-06 8.88517e-07 -6.39443e-07)
(3.91324e-06 9.65538e-07 -9.95035e-07)
(1.3691e-05 7.39611e-06 8.34407e-06)
(1.29332e-05 7.04578e-06 7.83771e-06)
(1.56983e-05 7.02159e-06 8.02248e-06)
(2.00034e-05 -2.0819e-06 -2.41875e-06)
(2.52547e-05 -1.98907e-06 -1.11967e-06)
(4.30758e-05 7.09448e-06 1.10304e-05)
(3.97546e-05 7.48782e-06 1.08668e-05)
(4.71085e-05 6.87263e-06 1.17878e-05)
(4.53949e-05 -1.0587e-05 -2.60844e-06)
(5.304e-05 -1.04698e-05 -1.24359e-06)
(8.51049e-08 -1.40828e-08 -6.32624e-15)
(2.23257e-07 -1.7991e-07 -8.47194e-14)
(5.07767e-07 1.10716e-07 9.6583e-07)
(3.68936e-07 2.43861e-07 1.31844e-06)
(7.28396e-07 4.18879e-07 1.78053e-06)
(-3.52737e-07 -5.07235e-09 1.55454e-07)
(1.04832e-05 2.44414e-06 5.24313e-06)
(1.71134e-05 3.02372e-06 7.46998e-06)
(1.57107e-05 3.89093e-06 7.16056e-06)
(1.52109e-05 2.26388e-06 5.64526e-06)
(3.11251e-05 -9.08434e-07 5.49876e-06)
(4.34336e-05 -1.06635e-06 8.21618e-06)
(4.04412e-05 5.97326e-07 7.85416e-06)
(3.64613e-05 -3.19094e-06 5.0892e-06)
(4.91108e-07 6.27198e-07 8.83671e-07)
(7.25009e-07 8.43386e-07 1.15878e-06)
(5.72612e-07 1.43789e-07 1.82957e-06)
(1.01003e-06 -2.34342e-08 1.9164e-06)
(4.82285e-07 7.80989e-08 2.18347e-06)
(-9.7695e-07 -2.84734e-08 6.93994e-07)
(1.13417e-06 6.46915e-07 2.02894e-07)
(1.27629e-06 8.89591e-07 6.52793e-07)
(2.47663e-06 1.91524e-06 2.70759e-07)
(1.28033e-06 7.97898e-07 -2.91894e-07)
(4.84983e-07 3.221e-07 -1.76055e-09)
(3.24413e-06 1.33788e-06 3.58657e-06)
(6.61187e-06 2.25716e-06 4.6793e-06)
(7.08473e-06 2.36789e-06 5.51931e-06)
(6.32094e-06 2.51025e-06 5.26661e-06)
(5.42468e-06 5.35038e-06 3.97825e-06)
(5.56613e-06 4.14957e-06 2.5645e-06)
(3.14912e-06 6.18953e-08 3.61564e-06)
(6.52638e-06 1.59948e-06 5.30556e-06)
(7.59603e-06 1.17627e-06 5.44037e-06)
(6.88422e-06 1.70219e-06 4.72443e-06)
(5.80737e-06 3.96459e-06 9.08603e-07)
(8.02904e-06 4.00042e-06 1.63115e-06)
(7.88399e-06 5.17872e-06 2.79605e-06)
(7.91731e-06 3.55524e-06 1.23082e-07)
(1.023e-05 5.66638e-06 1.70858e-06)
(1.42017e-05 5.21474e-06 2.96259e-06)
(1.68918e-05 3.8721e-06 7.66473e-06)
(1.17138e-05 2.57615e-06 5.74825e-06)
(1.89477e-05 2.99014e-06 8.05278e-06)
(1.68814e-05 2.49953e-06 6.35066e-06)
(1.53965e-05 6.40502e-06 2.51516e-06)
(1.88034e-05 5.13989e-06 3.18107e-06)
(1.83608e-05 7.48444e-06 4.94618e-06)
(2.13323e-05 5.94195e-06 3.26451e-06)
(1.83922e-05 3.55801e-06 1.10198e-06)
(2.0882e-05 1.86671e-06 6.0083e-06)
(2.61685e-05 8.19238e-07 5.89796e-06)
(3.01585e-05 2.04625e-06 8.45111e-06)
(2.80029e-05 3.31778e-06 8.13288e-06)
(2.55431e-05 3.6171e-06 3.14866e-06)
(2.30508e-05 2.18253e-06 6.89258e-06)
(2.97212e-05 3.3516e-06 8.82741e-06)
(3.28503e-05 2.12302e-06 9.394e-06)
(2.85789e-05 1.08538e-06 6.85471e-06)
(2.75718e-05 4.73022e-06 3.77934e-06)
(3.18944e-05 3.61969e-06 4.12996e-06)
(3.11051e-05 6.20682e-06 6.28112e-06)
(3.10892e-05 -1.77405e-07 1.7628e-06)
(3.42672e-05 2.85837e-06 4.08399e-06)
(3.82872e-05 6.53141e-07 3.2091e-06)
(4.33487e-05 9.18594e-07 8.94391e-06)
(3.52048e-05 -1.76745e-07 6.94088e-06)
(4.75789e-05 -5.92704e-07 9.64485e-06)
(4.06117e-05 -2.3896e-06 6.56246e-06)
(4.08385e-05 7.79926e-07 4.22755e-06)
(4.57706e-05 7.20385e-07 4.49225e-06)
(4.45957e-05 2.86576e-06 6.70785e-06)
(4.75172e-05 -1.71917e-06 4.26061e-06)
(4.45208e-05 -5.38505e-06 1.90487e-06)
(4.10983e-05 -6.54912e-06 4.46523e-06)
(4.50973e-05 -1.1284e-05 3.58804e-06)
(5.42455e-05 -8.32983e-06 6.94107e-06)
(4.97409e-05 -6.91997e-06 6.35566e-06)
(5.11821e-05 -2.67027e-06 3.2669e-06)
(4.49956e-05 -6.01732e-06 5.9782e-06)
(5.15979e-05 -6.87202e-06 7.48856e-06)
(5.69389e-05 -8.44067e-06 8.3432e-06)
(4.73562e-05 -1.1276e-05 4.8671e-06)
(5.37621e-05 -3.8131e-06 4.12531e-06)
(5.90851e-05 -2.5779e-06 4.4476e-06)
(5.67745e-05 -1.70577e-06 6.38766e-06)
(5.75621e-05 -1.02197e-05 1.64393e-06)
(6.03348e-05 -5.73781e-06 3.93347e-06)
(5.3512e-07 2.56156e-07 -3.36319e-07)
(2.35781e-07 1.48377e-07 1.4629e-19)
(1.12553e-05 7.56906e-07 -1.87369e-06)
(7.0508e-06 1.57372e-06 -1.28726e-06)
(1.03828e-05 1.75772e-06 -1.11247e-06)
(1.28093e-05 4.08558e-06 6.26164e-07)
(1.56317e-05 1.13661e-06 -1.01772e-06)
(3.50823e-05 -5.59367e-06 -8.1976e-07)
(3.79032e-05 -2.76738e-06 1.90953e-06)
(4.18263e-05 -8.21072e-06 -8.39433e-07)
(6.21057e-05 -1.59354e-05 -1.1638e-06)
(1.88814e-06 1.12642e-06 2.55226e-06)
(3.13287e-06 1.16186e-06 3.58996e-06)
(2.61324e-06 3.13513e-06 2.97485e-06)
(4.90666e-06 3.22985e-06 4.6144e-06)
(1.78232e-06 7.69993e-07 2.95862e-06)
(2.8781e-06 1.30068e-06 3.68231e-06)
(2.94674e-06 4.66739e-07 3.72202e-06)
(4.84702e-06 1.59188e-06 4.89437e-06)
(2.63428e-06 2.56297e-06 2.08103e-06)
(3.98219e-06 2.3885e-06 8.18493e-07)
(2.52529e-06 1.04158e-06 2.24936e-06)
(3.63699e-06 2.24766e-07 3.78534e-06)
(3.98342e-06 3.03131e-06 1.61781e-06)
(5.91776e-06 2.30796e-06 3.8318e-06)
(8.41258e-06 5.80436e-06 6.96453e-06)
(7.98451e-06 5.06689e-06 6.35394e-06)
(9.72799e-06 5.17285e-06 6.24825e-06)
(1.50393e-06 8.84808e-07 2.59595e-06)
(1.43494e-06 6.98993e-07 2.23982e-06)
(1.73725e-06 5.6468e-07 2.06995e-06)
(2.00546e-05 8.24469e-06 9.43213e-06)
(1.88662e-05 8.06803e-06 9.08042e-06)
(2.26734e-05 7.90651e-06 9.4963e-06)
(1.90964e-05 4.91331e-06 7.11156e-06)
(2.35683e-05 2.80942e-06 8.16436e-06)
(2.54346e-05 4.48224e-06 7.55811e-06)
(2.00377e-05 4.78049e-06 8.3466e-06)
(2.1788e-05 3.92929e-06 7.8442e-06)
(2.33393e-05 3.9537e-06 8.46681e-06)
(2.67822e-05 4.70344e-06 9.03906e-06)
(1.96094e-05 4.67788e-06 3.07361e-06)
(2.51544e-05 4.63597e-06 3.74002e-06)
(2.26191e-05 5.52416e-06 7.69176e-06)
(2.59277e-05 2.87877e-06 8.96129e-06)
(2.45896e-05 7.38987e-06 5.75402e-06)
(2.96541e-05 5.16779e-06 8.47187e-06)
(3.50431e-05 7.99994e-06 1.07982e-05)
(3.25715e-05 8.19981e-06 1.06056e-05)
(3.86307e-05 7.72074e-06 1.13555e-05)
(5.14617e-05 5.73808e-06 1.10795e-05)
(4.73624e-05 6.36758e-06 1.09935e-05)
(5.57904e-05 5.56743e-06 1.20002e-05)
(4.4955e-05 -5.03974e-07 7.52651e-06)
(5.02475e-05 -3.53983e-06 7.94898e-06)
(5.07938e-05 -3.28168e-06 7.20531e-06)
(4.68902e-05 1.1163e-06 9.06859e-06)
(4.67825e-05 -1.7332e-06 7.54653e-06)
(4.98082e-05 -1.4499e-06 8.70381e-06)
(5.26274e-05 -2.0634e-06 8.60931e-06)
(4.47733e-05 -1.02231e-06 3.22111e-06)
(5.25398e-05 -9.31282e-07 4.51534e-06)
(5.11375e-05 6.51949e-07 9.0749e-06)
(5.45821e-05 -3.09523e-06 9.47192e-06)
(5.11767e-05 8.21275e-07 6.66693e-06)
(5.74713e-05 -2.07794e-06 8.81873e-06)
(6.70791e-05 1.16536e-06 1.05887e-05)
(5.99899e-05 1.18775e-06 1.03138e-05)
(7.13928e-05 8.7648e-07 1.16815e-05)
(-3.45058e-08 1.09704e-08 6.99593e-07)
(-2.5859e-07 -1.727e-08 9.52756e-18)
(-4.2963e-07 -6.41594e-08 1.31765e-16)
(7.1267e-07 2.89533e-07 -2.47533e-07)
(1.11596e-06 3.84132e-07 -6.0751e-07)
(1.42298e-08 -3.64463e-08 -5.01641e-14)
(1.36427e-06 7.16439e-07 -3.18826e-07)
(2.18267e-06 2.13531e-06 7.90958e-07)
(3.72905e-06 1.58131e-06 -7.08896e-07)
(5.0218e-07 4.65248e-09 7.44336e-07)
(-5.95128e-08 -1.67783e-07 -3.39695e-17)
(1.97362e-07 4.83801e-08 -1.16413e-20)
(3.99646e-06 2.30865e-06 -2.30681e-07)
(2.5082e-06 9.35262e-07 -8.7313e-07)
(5.84884e-06 1.69922e-06 -1.11322e-06)
(1.17743e-05 3.05425e-06 6.73228e-06)
(1.35997e-05 5.0663e-06 6.56963e-06)
(8.78604e-06 4.4979e-06 5.80903e-06)
(9.21968e-06 6.63968e-06 4.51948e-06)
(1.06933e-05 3.67071e-06 6.41914e-06)
(1.42748e-05 4.59447e-06 7.54404e-06)
(9.09276e-06 3.63237e-06 6.37322e-06)
(1.14539e-05 3.44415e-06 6.68459e-06)
(5.7316e-06 1.17566e-06 -1.13405e-06)
(7.94913e-06 1.24606e-06 -1.1376e-06)
(9.46973e-06 5.09489e-06 2.82011e-06)
(1.30284e-05 4.96724e-06 2.45469e-06)
(1.45308e-05 -3.61922e-07 -2.09974e-06)
(1.88169e-05 -2.68044e-07 -1.12385e-06)
(1.628e-05 -1.16388e-06 -2.3051e-06)
(1.06743e-05 4.36154e-06 5.35062e-06)
(1.30116e-05 2.73867e-06 6.96714e-06)
(1.27563e-05 7.01785e-06 3.91848e-06)
(1.637e-05 5.4599e-06 6.68614e-06)
(2.45341e-05 2.18276e-06 1.51825e-06)
(2.16966e-05 -4.50724e-07 -9.17033e-07)
(2.81199e-05 -2.69788e-06 -8.43065e-07)
(3.70548e-05 8.81895e-07 8.53074e-06)
(3.85261e-05 1.78278e-06 7.69819e-06)
(3.19546e-05 3.38688e-06 7.73954e-06)
(3.44586e-05 2.38021e-06 8.17058e-06)
(4.0482e-05 2.9871e-06 9.33427e-06)
(3.34859e-05 4.08213e-06 9.2865e-06)
(3.68349e-05 2.55949e-06 9.05058e-06)
(2.59844e-05 -4.11193e-06 -2.60567e-06)
(3.2086e-05 -4.02298e-06 -1.14347e-06)
(3.18285e-05 2.25935e-06 3.19403e-06)
(3.88259e-05 2.2894e-06 4.37052e-06)
(3.88636e-05 -8.46518e-06 -2.68632e-06)
(4.61562e-05 -8.39514e-06 -1.20733e-06)
(3.67932e-05 4.06853e-06 8.88276e-06)
(4.05753e-05 1.15189e-06 9.72187e-06)
(3.79065e-05 4.91496e-06 6.58356e-06)
(4.43196e-05 2.7714e-06 9.13733e-06)
(5.10529e-05 -7.70124e-06 1.83863e-06)
(4.86728e-05 -1.07343e-05 -8.98361e-07)
(5.52262e-05 -1.30826e-05 -9.99428e-07)
(5.6319e-05 -7.08707e-06 6.7617e-06)
(5.63844e-05 -7.39938e-06 7.64422e-06)
(5.18585e-05 -1.2426e-05 -2.45404e-06)
(5.96678e-05 -1.23175e-05 -1.31648e-06)
(6.16735e-05 -6.38768e-06 8.16925e-06)
(4.98506e-07 3.01043e-07 -1.68656e-07)
(1.02197e-05 3.77547e-06 3.75306e-07)
(1.53883e-05 3.83486e-06 8.5959e-07)
(3.43475e-05 -1.42278e-06 1.80946e-06)