/*--------------------------------*- C++ -*----------------------------------*\
| =========                 |                                                 |
| \\      /  F ield         | OpenFOAM: The Open Source CFD Toolbox           |
|  \\    /   O peration     | Version:  2012                                  |
|   \\  /    A nd           | Website:  www.openfoam.com                      |
|    \\/     M anipulation  |                                                 |
\*---------------------------------------------------------------------------*/
FoamFile
{
    version     2.0;
    format      ascii;
    class       volVectorField;
    location    "0.105/fluid";
    object      U;
}
// * * * * * * * * * * * * * * * * * * * * * * * * * * * * * * * * * * * * * //

dimensions      [0 1 -1 0 0 0 0];


internalField   nonuniform List<vector> 
16422
(
(1.19992 3.84238e-06 2.10438e-05)
(1.19967 8.05547e-05 5.07134e-05)
(1.19941 0.000140954 2.6165e-05)
(1.19952 0.000204232 2.61575e-05)
(1.19947 0.000300676 2.74234e-05)
(1.19937 0.000452995 3.29241e-05)
(1.19922 0.000694414 4.39286e-05)
(1.19904 0.00107492 6.02567e-05)
(1.19879 0.0016674 8.89603e-05)
(1.19844 0.00258764 0.000140027)
(1.19794 0.00399847 0.000222352)
(1.1971 0.00621389 0.000397899)
(1.19513 0.0102337 0.00094954)
(1.19036 0.0212632 0.00285989)
(1.20908 0.0615131 0.00458321)
(1.19992 1.54195e-06 2.11952e-05)
(1.19967 5.45628e-05 5.30031e-05)
(1.19944 0.000105396 2.77448e-05)
(1.19958 0.00015487 2.7115e-05)
(1.19957 0.000228188 2.93465e-05)
(1.19952 0.000344548 3.26786e-05)
(1.19948 0.000524231 4.04589e-05)
(1.19946 0.000803831 5.44102e-05)
(1.19946 0.00123858 7.42983e-05)
(1.19953 0.00190182 0.000105961)
(1.19969 0.00291423 0.00015689)
(1.20006 0.00449197 0.000229098)
(1.20104 0.00704618 0.000336053)
(1.20425 0.010887 0.000466036)
(1.21312 0.0115491 0.00023834)
(1.19992 -6.66013e-06 2.14287e-05)
(1.19968 -1.02326e-06 5.42435e-05)
(1.19946 4.16285e-05 2.80693e-05)
(1.19962 7.12077e-05 2.6984e-05)
(1.19964 0.000112732 2.98753e-05)
(1.19963 0.000172097 3.29213e-05)
(1.19965 0.00026466 3.91832e-05)
(1.19972 0.000405431 5.03539e-05)
(1.19988 0.000622179 6.48542e-05)
(1.20019 0.000951913 8.59455e-05)
(1.20075 0.00144666 0.000113544)
(1.20177 0.00217317 0.0001388)
(1.20361 0.00314361 0.000147288)
(1.20679 0.00395333 0.000106954)
(1.21071 0.00279593 -1.2298e-06)
(1.19995 3.7765e-06 5.02354e-06)
(1.19989 8.03151e-05 5.68819e-05)
(1.19973 0.00013911 6.24352e-05)
(1.1999 0.000201492 7.41229e-05)
(1.19991 0.000297044 0.000104366)
(1.19988 0.00044539 0.000151804)
(1.19982 0.000677325 0.000225643)
(1.19974 0.0010425 0.000337397)
(1.19964 0.00160771 0.000504112)
(1.19953 0.0024726 0.0007529)
(1.19943 0.00377623 0.00113117)
(1.19934 0.0057273 0.00171606)
(1.19901 0.00888378 0.00259611)
(1.19816 0.0162153 0.00369835)
(1.21127 0.0424246 0.00346164)
(1.19995 1.60351e-06 4.89341e-06)
(1.1999 5.49464e-05 5.50628e-05)
(1.19976 0.000103471 5.82913e-05)
(1.19997 0.000152296 6.87524e-05)
(1.20002 0.00022508 9.58668e-05)
(1.20005 0.000337377 0.000138422)
(1.20008 0.000511735 0.000200552)
(1.20015 0.000780463 0.000290069)
(1.20028 0.00119411 0.00041852)
(1.20051 0.00181739 0.000596036)
(1.20092 0.00275601 0.000838946)
(1.20165 0.0041798 0.00116267)
(1.20309 0.00640136 0.00154146)
(1.20652 0.0096151 0.00178322)
(1.21427 0.010065 0.00135305)
(1.19995 -6.41992e-06 4.76324e-06)
(1.19991 -7.1925e-07 5.40895e-05)
(1.19978 4.03136e-05 5.55638e-05)
(1.20001 6.95255e-05 6.5937e-05)
(1.20009 0.000109835 9.0117e-05)
(1.20015 0.000168969 0.000129639)
(1.20025 0.000259092 0.000184497)
(1.20041 0.000393988 0.000260269)
(1.20068 0.000599588 0.000363817)
(1.20111 0.000910435 0.000497224)
(1.20183 0.00137013 0.000660947)
(1.20301 0.0020346 0.000841448)
(1.20496 0.00291017 0.000988785)
(1.20803 0.00363079 0.000988559)
(1.21151 0.00252262 0.000683438)
(1.19995 3.68954e-06 7.21431e-06)
(1.19988 7.85331e-05 8.58374e-05)
(1.19974 0.000135769 0.000106537)
(1.19993 0.000193843 0.000131031)
(1.19997 0.000284624 0.000180182)
(1.19996 0.000424562 0.000259762)
(1.19995 0.000639237 0.000382396)
(1.19994 0.00097059 0.000568213)
(1.19994 0.00147602 0.000844811)
(1.19998 0.00223301 0.00124744)
(1.20011 0.00333954 0.00183389)
(1.20035 0.00491734 0.0026822)
(1.20045 0.00729346 0.00384206)
(1.19936 0.0130483 0.00500148)
(1.20845 0.0383209 0.00437477)
(1.19995 1.60675e-06 7.07676e-06)
(1.19989 5.39319e-05 8.31594e-05)
(1.19977 9.97253e-05 0.000102278)
(1.19999 0.000147232 0.000122899)
(1.20007 0.000215974 0.000166667)
(1.20012 0.000321744 0.000236015)
(1.20019 0.000483009 0.000340836)
(1.20031 0.000726903 0.000490092)
(1.20051 0.00109537 0.000703351)
(1.20083 0.00164106 0.000995759)
(1.20135 0.0024379 0.00138657)
(1.20218 0.00360531 0.00188764)
(1.20362 0.00538385 0.00244303)
(1.20656 0.0080091 0.0027691)
(1.21312 0.00852939 0.00218501)
(1.19995 -6.24187e-06 6.95296e-06)
(1.1999 -1.34217e-06 8.09811e-05)
(1.19979 3.80655e-05 9.88742e-05)
(1.20003 6.6374e-05 0.000118079)
(1.20013 0.000104569 0.000158224)
(1.20022 0.000161262 0.000221743)
(1.20035 0.000243811 0.000313157)
(1.20055 0.000366857 0.00044002)
(1.20086 0.000550276 0.000612696)
(1.20135 0.000821606 0.000835361)
(1.20211 0.00121293 0.00110341)
(1.20329 0.00176295 0.00139308)
(1.20513 0.00247409 0.00162064)
(1.20786 0.0030528 0.00159966)
(1.21089 0.00206458 0.00110966)
(1.17443 0.0945204 0.0124876)
(0.925092 -0.14409 -0.0180483)
(1.19147 0.0602489 0.00969886)
(1.32773 -0.0542256 -0.00629389)
(1.191 0.0611715 0.00510766)
(1.3283 -0.0526683 0.0088648)
(1.18869 0.0569025 0.00501993)
(1.32236 -0.052586 -0.0083379)
(1.18759 0.0570247 0.00473088)
(1.32125 -0.0526131 0.0075791)
(1.18277 0.0223 0.00442184)
(1.16661 0.0602903 0.0102886)
(1.19509 0.0155163 0.00592294)
(1.19286 0.036711 0.0092504)
(0.652412 0.0179423 0.090677)
(1.15723 -0.00544164 0.0342886)
(1.28988 0.00633595 -0.00522907)
(1.21697 0.0171674 0.000683954)
(1.23218 0.00143723 -6.49251e-06)
(1.21195 0.0417859 0.00538961)
(1.28427 0.0146156 -0.00123189)
(1.21917 0.0151175 0.00198669)
(1.23343 0.00264549 0.000804414)
(1.19466 0.0157155 0.00443727)
(1.19225 0.0375237 0.00534846)
(1.19638 0.0127726 0.00552323)
(1.19177 0.0331077 0.00563851)
(1.13237 -0.0211246 0.00821065)
(1.13103 -0.028087 0.00897733)
(1.28254 0.0147322 -0.000154098)
(1.21887 0.015162 0.00181866)
(1.23272 0.00313912 0.000635376)
(1.20915 0.0385652 0.00424746)
(1.27987 0.0149481 0.00178699)
(1.21777 0.0136372 0.00227592)
(1.23103 0.00253709 0.000276972)
(1.1965 0.0122663 0.00561639)
(1.19101 0.0329442 0.00543465)
(1.12624 -0.0261919 0.00493111)
(1.12503 -0.0274874 0.00788533)
(1.27902 0.0153471 0.0016168)
(1.21723 0.0132164 0.00238)
(1.23005 0.00240916 -7.73819e-05)
(1.06926 0.0806905 0.0222202)
(1.1664 0.105696 0.0108503)
(1.20733 0.067683 0.0168506)
(1.15699 0.0602505 0.0307407)
(1.23994 0.0993947 0.0217243)
(0.847741 0.0538431 0.0474618)
(1.34395 -0.0638395 -0.00494398)
(1.31492 0.092167 0.020665)
(1.13336 -0.0247423 0.017181)
(1.13608 -0.0129973 0.0275546)
(1.19102 0.0689974 0.00791744)
(1.13018 0.0391294 0.0126273)
(1.214 0.0915842 0.00871108)
(1.13144 0.0487331 0.0102731)
(1.217 0.0991801 0.00896973)
(1.33832 -0.0549087 0.00840802)
(1.28328 0.0888057 0.00752119)
(1.29138 0.0958462 0.00494416)
(1.12987 0.0411151 0.00561569)
(1.21341 0.09263 0.00421951)
(1.19052 0.0577428 0.00609373)
(1.12844 0.0360335 0.00694009)
(1.21137 0.0902145 0.00480337)
(1.28318 0.0904077 0.00198127)
(1.32503 -0.0523956 -0.00733431)
(1.27992 0.0888726 0.00488721)
(1.12781 -0.0281637 0.00651389)
(1.12915 -0.0245824 0.00424408)
(1.18947 0.0583905 0.00394191)
(1.12614 0.0356676 0.0054884)
(1.20888 0.0899976 0.00372401)
(1.12744 0.0382025 0.00415562)
(1.21056 0.0908473 0.00286439)
(1.32473 -0.0523208 0.00795628)
(1.27729 0.0891842 0.00426858)
(1.27988 0.0894104 0.000400983)
(1.125 0.0366289 0.00506055)
(1.2076 0.090234 0.00348216)
(1.18667 0.0561462 0.00643391)
(1.1239 0.0353617 0.00724155)
(1.20581 0.0897189 0.00509174)
(1.27665 0.0894791 0.000473394)
(1.31802 -0.053322 -0.00922678)
(1.27359 0.0892027 0.00559315)
(1.12406 -0.0263353 0.00986391)
(1.18588 0.0552064 0.00827384)
(1.12316 0.0350224 0.00966197)
(1.2039 0.0889915 0.00705095)
(1.31566 -0.0533586 0.00750021)
(1.2719 0.0890994 0.00259949)
(1.20136 -0.0898125 0.0743466)
(1.20668 -0.189198 0.0291094)
(1.13384 -0.0672637 0.0224579)
(1.28632 -0.160504 0.0506564)
(1.18155 -0.0557607 0.043755)
(1.14137 -0.100643 0.0268302)
(1.25111 -0.086846 0.100182)
(0.284551 -0.031915 0.0637079)
(1.18621 -0.0067941 0.0453216)
(1.10508 -0.137307 0.00500946)
(1.15341 -0.21278 0.00482485)
(1.11398 -0.0942951 0.00702907)
(1.15378 -0.212174 0.00590176)
(1.11495 -0.0935801 0.00610712)
(1.10442 -0.138106 0.00958312)
(1.10699 -0.129792 0.0134083)
(1.15993 -0.201069 0.00146173)
(1.11858 -0.087667 0.00641732)
(1.1077 -0.129385 0.00284084)
(1.15769 -0.20146 0.0107005)
(1.11725 -0.0879586 0.00853645)
(1.09631 -0.135317 0.00221222)
(1.14312 -0.208549 0.00780581)
(1.10535 -0.093076 0.00853315)
(1.14389 -0.20853 0.0030448)
(1.10626 -0.0930347 0.00474047)
(1.09573 -0.135306 0.0112907)
(1.09772 -0.133667 0.0092843)
(1.1471 -0.206252 -0.00017473)
(1.10868 -0.0918333 0.0024113)
(1.09848 -0.133843 -0.000878674)
(1.14587 -0.206247 0.00667269)
(1.10772 -0.0917799 0.00608444)
(1.35645 -0.267286 0.0143835)
(1.83 0.00012461 -0.107542)
(1.6384 0.0735599 -0.0904949)
(1.71675 0.155575 -0.128346)
(1.13645 0.176926 -0.00938413)
(1.16562 0.126534 0.0348242)
(1.19171 0.232733 0.0253411)
(1.16586 0.134018 0.00727126)
(1.18964 0.243966 -0.00225462)
(1.14255 0.162303 0.0321976)
(1.34508 0.205228 0.0475027)
(0.682449 0.0651279 0.0544368)
(0.784216 0.168213 0.0173641)
(1.30443 0.177026 0.0495521)
(1.3897 0.224463 0.0198297)
(0.736659 0.130251 0.0457196)
(1.60975 0.0845678 0.00985629)
(1.33164 0.270141 0.0158286)
(1.36579 0.278763 -0.00550939)
(1.58871 0.0907679 -0.0200637)
(1.85305 0.0569461 -0.0581193)
(1.07024 -0.192902 0.0161965)
(1.84186 -0.105574 -0.0618583)
(1.08416 -0.0615124 0.00437448)
(1.64702 0.00598033 0.0148833)
(1.60017 -0.135346 -0.0438884)
(1.63066 0.0190681 -0.0299085)
(1.61366 -0.157113 0.0095559)
(1.8018 0.124569 -0.0492419)
(0.631582 0.141899 0.0321843)
(1.56636 0.261887 -0.000391443)
(1.01154 0.00435145 -0.00334672)
(1.1137 -0.126737 0.034043)
(1.17518 -0.197927 0.0262055)
(1.13215 -0.0821686 0.0326743)
(1.11969 -0.121676 0.0338469)
(1.17028 -0.198886 0.0278126)
(1.12268 -0.0833216 0.0253154)
(1.11239 -0.135529 0.0179335)
(1.16351 -0.214497 0.00998808)
(1.12013 -0.0927648 0.0133306)
(1.1111 -0.137669 0.0165448)
(1.16617 -0.212225 0.0183334)
(1.12151 -0.0905445 0.01652)
(1.33001 -0.240833 0.0166768)
(1.31981 -0.243572 0.0220579)
(1.59522 0.111677 -0.0546212)
(1.59847 0.115261 0.0302714)
(1.59561 0.155085 -0.0405586)
(1.59531 0.129408 -0.0345138)
(1.31723 -0.256441 0.0238514)
(1.10794 0.148535 0.0134566)
(1.13478 0.109512 0.016859)
(1.16673 0.221785 0.00770612)
(1.11497 0.153148 0.00640383)
(1.12817 0.107206 0.0151329)
(1.15732 0.219668 0.0113213)
(1.10486 0.14335 0.00585914)
(1.12335 0.0993803 0.0116412)
(1.15203 0.211756 0.00888309)
(1.12485 0.101564 0.0126015)
(1.15238 0.213855 0.00486371)
(1.10447 0.141335 0.0127927)
(1.55698 0.0879458 -0.0213266)
(1.31547 0.264037 0.0134375)
(1.57468 0.0831978 0.0291825)
(1.29765 0.261972 0.0045306)
(1.59522 0.0162564 0.031264)
(1.57262 -0.125599 -0.0343271)
(1.57469 -0.127234 0.0330478)
(1.59254 0.0157568 -0.0283282)
(1.60089 0.0205321 -0.0289523)
(1.59418 -0.13362 0.0308972)
(1.61807 0.0133283 0.0340291)
(1.57996 -0.1254 -0.0365617)
(1.55187 0.0835267 0.0258945)
(1.29247 0.255427 0.00223281)
(1.29402 0.258152 0.00768025)
(1.54937 0.082041 -0.0213686)
(1.58305 0.135023 0.00965122)
(1.57737 0.133287 -0.0303331)
(1.57714 0.121428 -0.0432576)
(1.57936 0.120792 0.0365191)
(1.10114 0.139805 0.00118864)
(1.11857 0.0970455 0.00612182)
(1.14665 0.210237 0.00564319)
(1.11936 0.0974227 0.00535787)
(1.14714 0.210604 0.0016952)
(1.10049 0.139286 0.00875946)
(1.10407 0.143239 0.00917498)
(1.12383 0.102188 0.00549331)
(1.15242 0.214511 0.00222933)
(1.12256 0.101413 0.00709625)
(1.10481 0.144137 0.00119743)
(1.15072 0.21367 0.00657227)
(1.54466 0.0836304 0.0256523)
(1.28668 0.254914 0.000163068)
(1.28767 0.255342 0.00546021)
(1.54366 0.0835385 -0.0222873)
(1.59096 0.0190006 -0.0279765)
(1.57426 -0.124235 0.0338891)
(1.59433 0.0184388 0.0321372)
(1.57153 -0.123189 -0.0326245)
(1.54742 0.0849492 -0.021502)
(1.29318 0.2575 0.00607668)
(1.5508 0.0847346 0.02652)
(1.29029 0.257011 0.00142206)
(1.58825 0.017923 0.0314825)
(1.56876 -0.123023 -0.0334723)
(1.58731 0.0180535 -0.0287652)
(1.56955 -0.123446 0.0342956)
(1.10182 -0.132281 0.00897662)
(1.15245 -0.204289 -0.0012905)
(1.11313 -0.090371 0.00208104)
(1.10266 -0.132361 -0.00156937)
(1.15085 -0.2044 0.00667807)
(1.11207 -0.0904115 0.00526776)
(1.10039 -0.136459 0.00152249)
(1.14804 -0.210361 0.00479387)
(1.10946 -0.0937854 0.00588205)
(1.09978 -0.136788 0.00857287)
(1.14835 -0.21015 0.00257704)
(1.11032 -0.0934682 0.00348884)
(1.09989 0.141356 0.00792532)
(1.11879 0.0995616 0.00252452)
(1.14686 0.212294 0.000464189)
(1.1005 0.141538 -0.000743007)
(1.11791 0.099317 0.00491962)
(1.14585 0.212151 0.00534035)
(1.09811 0.139681 -4.72778e-05)
(1.11528 0.0971402 0.00524251)
(1.14315 0.210818 0.00536573)
(1.11595 0.0972417 0.00348103)
(1.14375 0.210814 0.000840372)
(1.09748 0.139493 0.00829651)
(1.54275 0.0850702 -0.0221159)
(1.28717 0.25609 0.00438883)
(1.54438 0.084703 0.0251132)
(1.28568 0.256315 0.000476361)
(1.58536 0.0191755 0.0309691)
(1.56619 -0.122845 -0.0339327)
(1.56694 -0.122897 0.0337816)
(1.58444 0.0194543 -0.028839)
(1.58662 0.0194286 -0.0285635)
(1.56906 -0.122972 0.0334952)
(1.5881 0.0190201 0.0308926)
(1.56797 -0.122719 -0.033331)
(1.54138 0.0847498 0.0251382)
(1.28327 0.255784 0.000255133)
(1.28426 0.255657 0.00473764)
(1.54031 0.085021 -0.0223047)
(1.09487 0.139714 0.00143136)
(1.11191 0.0972603 0.00787433)
(1.13917 0.211253 0.00790546)
(1.11269 0.0974427 0.00491907)
(1.14001 0.211302 0.0022838)
(1.09431 0.139442 0.0109584)
(1.09629 0.140428 0.00892892)
(1.11486 0.0984011 0.00295214)
(1.14258 0.211785 0.000870295)
(1.11405 0.0982809 0.00572019)
(1.09688 0.140527 -0.000236405)
(1.14168 0.211792 0.00617907)
(1.53734 0.0858727 0.0259902)
(1.27895 0.256441 0.0029892)
(1.28056 0.256367 0.00589003)
(1.53511 0.0861161 -0.0203676)
(1.58271 0.0200221 -0.0282525)
(1.56568 -0.12309 0.0336088)
(1.58424 0.0197866 0.030957)
(1.56447 -0.123126 -0.0340195)
(1.5384 0.0858325 -0.0215727)
(1.28307 0.256287 0.00469307)
(1.5401 0.0855185 0.0251704)
(1.28165 0.256574 0.00133095)
(1.58174 0.0199896 0.0317045)
(1.5616 -0.123452 -0.0341237)
(1.57963 0.0201617 -0.0272897)
(1.56346 -0.123494 0.0340039)
(1.09358 -0.133313 0.0149174)
(1.14122 -0.206804 0.00433426)
(1.10421 -0.0923296 0.00706022)
(1.09405 -0.13388 0.00374253)
(1.13975 -0.20645 0.0117661)
(1.10322 -0.0919353 0.0123163)
(1.09137 -0.132903 0.0106171)
(1.13665 -0.206214 0.0109385)
(1.10169 -0.0919778 0.0143299)
(1.0926 0.138917 0.0145653)
(1.11091 0.0975866 0.0073919)
(1.1375 0.211305 0.00467356)
(1.09299 0.139433 0.00381592)
(1.11003 0.0971976 0.011696)
(1.13624 0.211013 0.0115217)
(1.09063 0.137995 0.010007)
(1.10864 0.0967522 0.0144184)
(1.13351 0.210207 0.0105475)
(1.52963 0.0867911 -0.0176574)
(1.2778 0.256462 0.00790163)
(1.53388 0.0863063 0.0274735)
(1.27508 0.256341 0.00688061)
(1.57207 0.0206585 0.0353616)
(1.55438 -0.124209 0.0344203)
(1.57425 0.020702 -0.025123)
(1.56032 -0.124001 0.034385)
(1.57847 0.0202091 0.0329722)
(1.55648 -0.123445 -0.0342708)
(1.5273 0.0868807 0.0305065)
(1.2729 0.255972 0.0126265)
(1.12168 -0.173102 0.0227998)
(1.11322 -0.663294 0.051237)
(0.797809 -0.119116 0.0427577)
(1.12685 -0.658683 0.0274956)
(0.809126 -0.106096 0.0146981)
(1.10797 -0.181044 0.0234799)
(0.727392 -0.126718 0.0861959)
(0.155041 0.182018 0.0236917)
(0.858873 -0.494863 0.156208)
(0.678346 0.0628329 0.0178378)
(0.0759831 0.0375441 -0.0456002)
(0.663118 0.111634 -0.13859)
(0.58053 0.112345 -0.188267)
(1.08013 -0.1978 0.0039986)
(1.08766 -0.655519 0.0197103)
(0.784485 -0.133852 0.0216338)
(1.08122 -0.656191 -0.0157349)
(0.776625 -0.135624 -0.0125677)
(1.08816 -0.196213 0.00746477)
(1.08742 -0.18992 0.00690747)
(1.09699 -0.652787 -0.0137937)
(0.791666 -0.129148 -0.0122305)
(1.09632 -0.189727 0.00259772)
(1.08838 -0.652106 0.0252992)
(0.783318 -0.129323 0.0223959)
(0.624178 0.110527 -0.084698)
(0.631802 0.110741 0.0175847)
(0.619485 0.108918 0.0359649)
(0.602521 0.109124 -0.070639)
(1.07078 -0.195802 0.00497794)
(1.07685 -0.654327 0.0238898)
(0.774292 -0.132803 0.0244585)
(1.07099 -0.654754 -0.0142775)
(0.767057 -0.134076 -0.0113688)
(1.07824 -0.1949 0.0102586)
(1.07465 -0.194155 0.00382977)
(1.08272 -0.6531 -0.0160154)
(0.779555 -0.13187 -0.0158503)
(1.08333 -0.193353 -0.00114925)
(1.0749 -0.653277 0.0225757)
(0.771194 -0.132781 0.0197266)
(0.611037 0.110366 -0.0697541)
(0.614013 0.111986 0.0431794)
(0.616571 0.111988 0.0354091)
(0.600282 0.111513 -0.0674502)
(0.90792 -0.179167 0.0405763)
(1.3729 -0.852054 0.0588606)
(1.40463 -0.855748 0.03611)
(0.869407 -0.167194 -0.0124407)
(0.094712 0.0065903 -0.0215228)
(0.0464816 -0.0116081 -0.0270933)
(0.562631 0.0453283 -0.16004)
(0.584245 0.0834441 -0.117119)
(0.518559 0.0852416 -0.168492)
(0.620201 0.04277 -0.0936133)
(0.951318 -0.292447 -0.0069304)
(1.0503 -0.677902 0.0863319)
(1.12373 0.219914 0.0207741)
(0.813917 0.161107 0.0418766)
(1.13106 0.670128 0.0413176)
(0.802551 0.176314 0.000318694)
(1.12399 0.684505 5.90376e-05)
(1.13548 0.210229 0.027212)
(1.00764 0.205967 0.0882621)
(0.309077 0.224876 0.0501628)
(0.609929 0.557456 -0.121209)
(0.636868 0.232999 0.0794639)
(1.0177 0.590532 -0.131006)
(0.477261 0.255805 0.0654357)
(0.813341 0.163199 0.0157286)
(1.36902 0.85241 0.0434525)
(1.35986 0.872995 -0.00718006)
(0.836156 0.167133 -0.0210837)
(0.332461 -0.0465059 0.0917464)
(0.233572 -0.10058 0.0389411)
(0.395141 -0.068504 0.134595)
(0.311526 -0.0775602 0.0439891)
(0.499687 -0.0511833 -0.0722163)
(0.521306 -0.0864263 0.0127069)
(0.522506 -0.0469757 0.00879423)
(0.50888 -0.0879345 -0.0744405)
(0.783093 0.172324 -0.104148)
(0.625942 0.450118 -0.0750075)
(1.32142 0.786922 -0.184465)
(0.622834 0.0620257 -0.0187045)
(1.10154 -0.191612 0.0306643)
(1.11282 -0.663892 0.0126782)
(0.80001 -0.12982 0.00996146)
(1.10883 -0.188315 0.0259319)
(1.1059 -0.661685 0.046703)
(0.792776 -0.131219 0.0421026)
(1.08923 -0.197906 0.0109552)
(1.09687 -0.658852 0.0240525)
(0.791146 -0.133558 0.0264095)
(1.09655 -0.196526 0.0125448)
(1.09161 -0.65991 -0.00921925)
(0.783772 -0.135106 -0.00570739)
(0.862314 -0.164718 -0.0186788)
(1.37506 -0.851037 0.0095174)
(0.876744 -0.168811 0.0208848)
(1.36199 -0.843868 0.0492234)
(0.530067 0.0475904 -0.0753895)
(0.539693 0.0826871 0.0039764)
(0.515369 0.0833943 -0.0763861)
(0.555887 0.0445898 0.00681098)
(0.628983 0.0469991 -0.0472156)
(0.594929 0.0885712 -0.134877)
(0.626541 0.048831 -0.138076)
(0.591148 0.0873392 -0.0586511)
(0.831773 -0.161926 0.0173413)
(1.3485 -0.838547 0.0257406)
(1.34252 -0.841202 -0.013195)
(0.837616 -0.163766 -0.0242732)
(1.09471 0.19418 0.0121405)
(0.79787 0.147064 0.00133806)
(1.11421 0.657384 0.0027677)
(1.11444 0.195799 0.013607)
(0.781753 0.147078 0.0347867)
(1.09682 0.654715 0.036343)
(1.08614 0.187357 0.00875849)
(0.783461 0.140367 0.0275361)
(1.0931 0.646498 0.02467)
(0.77532 0.141037 -0.00878128)
(1.08644 0.64641 -0.0116743)
(1.09444 0.186845 0.010472)
(0.817676 0.161296 -0.0146991)
(1.35983 0.846257 -0.00142164)
(0.835512 0.166715 0.0192708)
(1.332 0.838161 0.0407715)
(0.523971 -0.0468994 -0.059255)
(0.527802 -0.0832739 0.0494244)
(0.518038 -0.0842009 -0.0641495)
(0.534156 -0.0451146 0.0438378)
(0.518185 -0.0490325 0.0228178)
(0.503401 -0.0861983 -0.0735324)
(0.499578 -0.0486551 -0.0736977)
(0.51522 -0.0861482 0.0263686)
(0.816743 0.161793 0.019562)
(1.33106 0.830703 0.028826)
(1.32271 0.830839 -0.0155138)
(0.82215 0.163478 -0.0178445)
(0.252291 -0.117513 0.0512879)
(0.467068 -0.0846888 0.156861)
(0.606898 -0.11248 0.0124583)
(0.591494 -0.11433 -0.0814598)
(0.622285 0.108432 0.000906226)
(0.593843 0.108343 -0.0831405)
(0.678027 0.115883 -0.147861)
(0.672731 0.113901 -0.0707269)
(0.612786 -0.108897 0.0544498)
(0.600788 -0.109561 -0.0697357)
(0.587141 -0.111714 -0.0792353)
(0.597812 -0.111487 0.0283245)
(0.819718 -0.159682 0.0169489)
(1.33721 -0.831755 0.0227156)
(1.32856 -0.833146 -0.0198218)
(0.828148 -0.161997 -0.0224605)
(0.566885 0.0474981 0.0198767)
(0.541004 0.0849059 -0.0775049)
(0.549091 0.0853113 0.0187658)
(0.557389 0.0465738 -0.0761096)
(0.833835 -0.161404 -0.0196767)
(1.34992 -0.834145 -0.0201596)
(1.33732 -0.831368 0.0293778)
(0.843498 -0.163822 0.0130789)
(0.532539 0.0484713 -0.060932)
(0.535346 0.0836441 0.0345159)
(0.521259 0.0843668 -0.064941)
(0.547128 0.0462379 0.0316913)
(1.08033 0.185864 0.00403986)
(0.777631 0.138789 0.0234138)
(1.08632 0.645474 0.0211153)
(0.769779 0.138984 -0.0139513)
(1.07954 0.644864 -0.0159857)
(1.08853 0.185641 0.00661773)
(1.08591 0.190897 0.0052604)
(0.783914 0.143028 -0.0134221)
(1.09402 0.648741 -0.0119696)
(0.775157 0.14449 0.0237409)
(1.09509 0.189171 0.00317085)
(1.08596 0.649369 0.025113)
(0.811064 0.16174 0.0188325)
(1.32399 0.829553 0.0254602)
(1.31521 0.828674 -0.019454)
(0.816706 0.163682 -0.0190419)
(0.528996 -0.047093 0.0434313)
(0.522458 -0.0827373 -0.0636395)
(0.528095 -0.0447601 -0.0571414)
(0.523583 -0.084168 0.0491236)
(0.81108 0.161198 -0.0177787)
(1.3322 0.832841 -0.0152138)
(0.822687 0.164278 0.0211349)
(1.32065 0.832538 0.0293612)
(0.527665 -0.0463345 -0.0555458)
(0.528769 -0.0830444 0.0520123)
(0.534688 -0.044694 0.0461799)
(0.521395 -0.0837238 -0.061673)
(1.08017 -0.192217 0.00340651)
(1.08858 -0.652017 -0.0168297)
(0.78528 -0.130759 -0.0160546)
(1.08884 -0.191871 -0.00135784)
(1.08056 -0.651923 0.0221625)
(0.776865 -0.131317 0.0193292)
(1.07531 -0.19661 0.00276013)
(1.08248 -0.654534 0.0202168)
(0.779453 -0.133333 0.0213534)
(1.08316 -0.195413 0.00710171)
(1.07604 -0.654935 -0.0166401)
(0.771816 -0.134783 -0.0136958)
(0.823257 -0.159965 -0.0191906)
(1.33877 -0.829335 -0.0223307)
(0.831508 -0.162195 0.0148451)
(1.32768 -0.827967 0.026537)
(0.530409 0.0496638 -0.0576226)
(0.532662 0.0853074 0.0419718)
(0.521178 0.0857208 -0.0622605)
(0.54212 0.0478545 0.0379381)
(0.549362 0.048874 0.0358291)
(0.532336 0.0847019 -0.0672243)
(0.544576 0.0473769 -0.0631923)
(0.53665 0.0857571 0.0388762)
(0.815959 -0.159092 0.0171746)
(1.33157 -0.828246 0.0240727)
(1.32293 -0.829157 -0.020568)
(0.823906 -0.161244 -0.0207936)
(1.07991 0.189 0.00310231)
(0.777722 0.140863 -0.0165845)
(1.08688 0.647415 -0.014947)
(1.08886 0.187424 0.000217654)
(0.768902 0.142117 0.0211868)
(1.07912 0.648032 0.0226546)
(1.07626 0.18664 0.00318312)
(0.772356 0.138828 0.0229796)
(1.08139 0.647043 0.0209511)
(0.764664 0.139284 -0.0149976)
(1.07486 0.6467 -0.0167158)
(1.08427 0.186191 0.00627921)
(0.806339 0.161448 -0.0188081)
(1.32477 0.831131 -0.018384)
(0.816984 0.164157 0.0199616)
(1.31401 0.831167 0.0267745)
(0.523269 -0.0466749 -0.0549232)
(0.527032 -0.0837367 0.0486662)
(0.518767 -0.0841519 -0.0605506)
(0.530972 -0.0450794 0.0438149)
(0.529791 -0.0467998 0.0449509)
(0.524616 -0.0827264 -0.0623087)
(0.53042 -0.044522 -0.055562)
(0.524489 -0.0842154 0.0503659)
(0.804427 0.162033 0.0185253)
(1.31899 0.830647 0.0251714)
(1.31063 0.830203 -0.0201072)
(0.810316 0.164056 -0.0195539)
(0.607341 -0.108253 -0.0696289)
(0.607134 -0.109519 0.0541282)
(0.614514 -0.108721 0.057412)
(0.605025 -0.109095 -0.0674794)
(0.617867 0.110396 0.0440512)
(0.603617 0.110336 -0.0674092)
(0.616074 0.109801 -0.073275)
(0.619734 0.110797 0.040629)
(0.613901 -0.10954 0.0533308)
(0.603267 -0.109608 -0.0663374)
(0.610177 -0.108315 -0.0684073)
(0.608802 -0.109683 0.055447)
(0.811561 -0.158622 0.0179662)
(1.32523 -0.825635 0.0282881)
(1.31785 -0.826861 -0.0181856)
(0.817855 -0.160234 -0.0190401)
(0.53913 0.0505125 0.0382176)
(0.526574 0.0855421 -0.0643385)
(0.530154 0.0871799 0.0414968)
(0.535859 0.0484542 -0.0595795)
(0.816342 -0.159006 -0.0187622)
(1.33234 -0.827425 -0.020682)
(1.32149 -0.82646 0.0270583)
(0.825203 -0.161378 0.0165548)
(0.522524 0.0511868 -0.0584851)
(0.530129 0.0872044 0.0347855)
(0.516926 0.0872254 -0.0626153)
(0.536064 0.0498677 0.0331056)
(1.07196 0.187231 0.00536279)
(0.766772 0.138937 0.0257794)
(1.0758 0.64859 0.0240549)
(0.759292 0.139643 -0.0129096)
(1.0698 0.648606 -0.014443)
(1.07971 0.186597 0.00912941)
(1.07511 0.1883 0.00354966)
(0.771941 0.139816 -0.0166073)
(1.08134 0.648136 -0.0149719)
(0.763161 0.140856 0.0215734)
(1.08408 0.186994 0.000283495)
(1.07356 0.648572 0.0229944)
(0.796427 0.162333 0.0192133)
(1.31277 0.831154 0.0282584)
(1.30552 0.831602 -0.0178221)
(0.801388 0.164118 -0.0187479)
(0.525725 -0.0474066 0.0421445)
(0.521323 -0.0833413 -0.0616564)
(0.525057 -0.0449971 -0.0556116)
(0.522683 -0.0850756 0.0459041)
(0.80003 0.161788 -0.018894)
(1.31941 0.831656 -0.0185015)
(0.810353 0.164438 0.0195058)
(1.30857 0.83138 0.0269932)
(0.514357 -0.0477331 -0.0561498)
(0.52552 -0.0849328 0.0372519)
(0.525536 -0.0464627 0.0358655)
(0.513518 -0.0849242 -0.0606002)
(1.06873 -0.195039 0.00849471)
(1.07632 -0.653849 -0.0119134)
(0.77351 -0.132264 -0.0118762)
(1.07756 -0.193938 0.00281625)
(1.06826 -0.654001 0.0270757)
(0.765193 -0.133313 0.0241149)
(0.807528 -0.157683 -0.0175656)
(1.32554 -0.825894 -0.0160077)
(0.818425 -0.160662 0.0185448)
(1.31377 -0.824453 0.0317561)
(0.530595 0.0525363 0.0283085)
(0.51958 0.0867145 -0.065136)
(0.524241 0.0498533 -0.0610719)
(0.526195 0.0888827 0.0285727)
(1.06981 0.187836 0.00792142)
(0.765754 0.139225 -0.0130138)
(1.07518 0.648998 -0.0115169)
(1.07895 0.186622 0.00392199)
(0.757111 0.14011 0.0257594)
(1.06714 0.649201 0.0273745)
(0.790197 0.161664 -0.0175907)
(1.31305 0.832051 -0.0149767)
(0.801756 0.164711 0.0203134)
(1.30133 0.830853 0.0314903)
(0.520164 -0.0490197 0.0307326)
(0.515538 -0.0841549 -0.0624227)
(0.514816 -0.0461994 -0.0578939)
(0.521485 -0.0862757 0.0303189)
(0.607784 -0.109024 -0.0677275)
(0.608189 -0.110665 0.0499002)
(0.61392 -0.11071 0.0397724)
(0.599167 -0.110353 -0.0662998)
(0.604937 0.111137 -0.0702902)
(0.611355 0.113319 0.0282069)
(0.603196 -0.109754 -0.0684238)
(0.608697 -0.111805 0.0316961)
(1.1711 -0.167257 0.0381193)
(1.18738 -0.657868 0.0281611)
(0.860753 -0.0991956 -0.00425741)
(1.19994 -0.151308 0.0262753)
(1.16672 -0.652039 0.0693175)
(0.843255 -0.101677 0.0463322)
(1.07442 -0.0866786 0.0755338)
(1.2635 -0.540651 0.0161127)
(0.960207 -0.0320177 0.0268989)
(1.27599 -0.0882719 0.0393867)
(1.10768 -0.464778 -0.0886072)
(0.826914 -0.000415479 -0.0731132)
(0.74073 -0.122963 0.133442)
(0.83616 -0.365998 0.191677)
(0.681878 0.00198549 -0.0538979)
(0.69806 0.106757 -0.278871)
(0.367454 0.0617946 -0.0689943)
(0.724238 0.122808 -0.25882)
(0.630846 0.113875 -0.203552)
(1.08006 -0.197886 0.00639282)
(1.08882 -0.65538 -0.0102489)
(0.785621 -0.133101 -0.0121127)
(1.08933 -0.195332 0.00276038)
(1.08117 -0.656302 0.0248072)
(0.77663 -0.135671 0.0220489)
(1.08601 -0.189868 0.00572265)
(1.09217 -0.651379 0.0263449)
(0.788793 -0.129366 0.0248837)
(1.09268 -0.190207 0.0108189)
(1.08668 -0.651689 -0.0128671)
(0.782298 -0.129403 -0.0104946)
(0.63407 0.11001 0.0355607)
(0.616337 0.110829 -0.0774594)
(0.608726 0.108107 -0.072896)
(0.614881 0.110032 0.0364629)
(1.07106 -0.196088 0.0059352)
(1.07897 -0.654246 -0.0132116)
(0.775958 -0.132711 -0.0138416)
(1.07989 -0.194612 0.000909127)
(1.07129 -0.654749 0.0245184)
(0.76746 -0.134218 0.0216753)
(1.0739 -0.194184 0.00298297)
(1.08013 -0.653237 0.0228001)
(0.777441 -0.131958 0.0227695)
(1.08119 -0.193627 0.00843933)
(1.07413 -0.653476 -0.0158567)
(0.770364 -0.132865 -0.0132236)
(0.618881 0.111458 0.043947)
(0.604686 0.111353 -0.0674296)
(0.607602 0.110613 -0.0685709)
(0.611364 0.112558 0.039431)
(0.922044 -0.151553 0.028225)
(0.705301 -0.0609456 -0.0285973)
(0.714267 -0.0671493 -0.0395526)
(0.883391 -0.139336 -0.0230344)
(0.934372 -0.181576 0.00388381)
(1.47391 -0.851875 0.0258243)
(1.43091 -0.84963 0.0850525)
(0.973629 -0.194485 0.0457395)
(0.951738 -0.155976 -0.00850372)
(0.786366 -0.0771109 -0.0505978)
(0.754262 -0.0720166 -0.0309717)
(0.996507 -0.168984 0.0292801)
(0.986536 -0.0692301 -0.0214692)
(0.640059 -0.0304921 -0.0120566)
(0.472747 -0.00840964 -0.103616)
(0.599963 0.0725466 -0.211274)
(0.348185 0.0415409 -0.064258)
(0.575688 0.0142378 -0.123109)
(0.103487 0.0191635 -0.0212279)
(0.244812 -0.0380873 -0.0454586)
(0.518601 -0.0225903 -0.101571)
(0.790928 -0.0891293 -0.0577533)
(0.557596 -0.0103923 -0.0804638)
(0.81615 -0.0856075 -0.0994275)
(1.00972 -0.100088 -0.0354212)
(1.4424 -0.300115 -0.0316809)
(0.549983 0.0227696 -0.120787)
(0.719537 -0.0378028 -0.0416444)
(0.709334 -0.0419919 -0.0769344)
(0.585997 0.0211777 -0.0634043)
(0.613346 0.0425558 -0.132277)
(0.650573 0.0934458 -0.222466)
(0.563303 0.0872447 -0.172142)
(0.681319 0.0477223 -0.188844)
(0.594104 0.0182857 -0.0870911)
(0.792907 -0.051609 -0.0907054)
(0.758937 -0.0483193 -0.0510904)
(0.64041 0.0217716 -0.140184)
(1.06156 -0.218096 -0.0142374)
(1.52394 -0.74899 0.0343591)
(1.32674 -0.660051 -0.0579352)
(1.08272 -0.222661 -0.015906)
(1.48684 -0.569348 0.0734677)
(0.948684 -0.451782 0.189302)
(0.84541 -0.229536 -0.0267887)
(0.375979 -0.0667181 -0.0357543)
(1.09637 -0.198411 -0.040067)
(0.823352 -0.110515 -0.0408912)
(1.10343 -0.204902 -0.0268972)
(0.831791 -0.102098 -0.0647228)
(1.73811 -0.607189 0.0486932)
(1.36801 -0.319425 -0.0155088)
(1.09222 0.218201 0.000368195)
(0.822793 0.178881 -0.0135926)
(1.16044 0.707485 0.00791113)
(0.777383 0.180014 0.0291013)
(1.1555 0.218967 -0.0105443)
(1.10473 0.695304 0.03517)
(1.25361 0.213228 0.0337111)
(1.00659 0.199052 0.0502832)
(1.34379 0.70861 0.0143875)
(0.894485 0.200848 -0.0260474)
(1.37202 0.234338 0.0354914)
(1.25367 0.667965 -0.135216)
(0.803552 0.130664 0.0114973)
(0.629463 0.0587307 -0.0125671)
(0.594208 0.0530672 -0.0182761)
(0.832719 0.136248 -0.0261932)
(0.797524 0.154723 -0.021056)
(1.43484 0.901191 -0.00117622)
(1.34039 0.874094 0.039616)
(0.829005 0.166405 0.026061)
(0.79317 0.122764 -0.0255772)
(0.602136 0.0550618 -0.00290531)
(0.607613 0.0502178 -0.00933722)
(0.815183 0.132164 0.0251131)