/*--------------------------------*- C++ -*----------------------------------*\
| =========                 |                                                 |
| \\      /  F ield         | OpenFOAM: The Open Source CFD Toolbox           |
|  \\    /   O peration     | Version:  2012                                  |
|   \\  /    A nd           | Website:  www.openfoam.com                      |
|    \\/     M anipulation  |                                                 |
\*---------------------------------------------------------------------------*/
FoamFile
{
    version     2.0;
    format      ascii;
    class       volVectorField;
    location    "0.105/fluid";
    object      U_0;
}
// * * * * * * * * * * * * * * * * * * * * * * * * * * * * * * * * * * * * * //

dimensions      [0 1 -1 0 0 0 0];


internalField   nonuniform List<vector> 
16422
(
(1.19992 3.79952e-06 2.10482e-05)
(1.19966 8.06946e-05 5.06101e-05)
(1.19941 0.000140933 2.61536e-05)
(1.19952 0.000204219 2.61404e-05)
(1.19947 0.00030064 2.74058e-05)
(1.19937 0.000452935 3.29015e-05)
(1.19922 0.000694318 4.39039e-05)
(1.19904 0.00107479 6.02167e-05)
(1.19879 0.0016673 8.8887e-05)
(1.19844 0.00258771 0.000139888)
(1.19794 0.00399914 0.000222066)
(1.19709 0.00621626 0.00039711)
(1.19513 0.0102403 0.000947049)
(1.19038 0.0212793 0.00285276)
(1.20914 0.0615436 0.00457294)
(1.19992 1.51291e-06 2.11999e-05)
(1.19967 5.47038e-05 5.2899e-05)
(1.19943 0.000105394 2.77322e-05)
(1.19958 0.00015487 2.70967e-05)
(1.19957 0.000228173 2.93279e-05)
(1.19952 0.000344518 3.26588e-05)
(1.19948 0.000524217 4.04373e-05)
(1.19946 0.000803873 5.43764e-05)
(1.19946 0.00123883 7.42433e-05)
(1.19953 0.00190259 0.000105872)
(1.19969 0.00291629 0.000156723)
(1.20006 0.00449682 0.000228729)
(1.20105 0.00705624 0.000335209)
(1.20427 0.0109036 0.000464422)
(1.21316 0.0115597 0.000237105)
(1.19992 -6.66557e-06 2.1432e-05)
(1.19967 -9.00473e-07 5.41381e-05)
(1.19945 4.16509e-05 2.80557e-05)
(1.19962 7.12157e-05 2.69656e-05)
(1.19964 0.00011274 2.98565e-05)
(1.19963 0.000172095 3.29023e-05)
(1.19965 0.000264672 3.91631e-05)
(1.19972 0.000405499 5.03255e-05)
(1.19988 0.0006224 6.48125e-05)
(1.20019 0.000952523 8.58844e-05)
(1.20075 0.00144811 0.000113446)
(1.20177 0.00217627 0.000138633)
(1.20362 0.00314918 0.000147021)
(1.20681 0.00396061 0.000106629)
(1.21074 0.00279959 -1.29214e-06)
(1.19995 3.73136e-06 5.06366e-06)
(1.19988 8.04532e-05 5.6965e-05)
(1.19972 0.000139088 6.24291e-05)
(1.1999 0.000201483 7.41719e-05)
(1.19991 0.000297014 0.000104448)
(1.19988 0.000445332 0.000151919)
(1.19982 0.000677236 0.000225804)
(1.19974 0.00104238 0.000337608)
(1.19964 0.00160763 0.000504362)
(1.19953 0.00247273 0.000753073)
(1.19943 0.00377711 0.00113086)
(1.19933 0.00573044 0.00171385)
(1.19899 0.00889381 0.00258722)
(1.19814 0.0162499 0.00366722)
(1.21131 0.042558 0.00338611)
(1.19995 1.57271e-06 4.93063e-06)
(1.19989 5.50849e-05 5.51408e-05)
(1.19975 0.000103471 5.82864e-05)
(1.19997 0.000152296 6.88034e-05)
(1.20002 0.000225067 9.59564e-05)
(1.20005 0.000337355 0.000138544)
(1.20008 0.000511723 0.000200718)
(1.20015 0.000780515 0.000290293)
(1.20028 0.00119438 0.000418791)
(1.20051 0.00181823 0.00059627)
(1.20092 0.00275829 0.000838888)
(1.20165 0.00418546 0.00116153)
(1.20309 0.00641439 0.0015373)
(1.20653 0.00964048 0.00177321)
(1.21431 0.0100874 0.00134207)
(1.19994 -6.42867e-06 4.80221e-06)
(1.1999 -5.97154e-07 5.41635e-05)
(1.19978 4.03337e-05 5.55615e-05)
(1.20001 6.95366e-05 6.59864e-05)
(1.20009 0.000109841 9.02087e-05)
(1.20015 0.000168973 0.000129767)
(1.20025 0.000259108 0.000184667)
(1.20041 0.000394058 0.000260499)
(1.20068 0.000599818 0.000364097)
(1.20111 0.000911076 0.000497508)
(1.20183 0.0013717 0.000661095)
(1.20301 0.00203809 0.000841122)
(1.20497 0.00291684 0.000987418)
(1.20805 0.00364031 0.00098592)
(1.21154 0.00252799 0.000681074)
(1.19995 3.64221e-06 7.28922e-06)
(1.19988 7.86669e-05 8.59983e-05)
(1.19973 0.000135744 0.000106551)
(1.19993 0.000193835 0.000131106)
(1.19997 0.000284604 0.000180311)
(1.19996 0.000424514 0.000259953)
(1.19995 0.00063916 0.000382676)
(1.19994 0.000970495 0.000568615)
(1.19994 0.00147597 0.000845365)
(1.19998 0.0022332 0.00124813)
(1.20011 0.00334063 0.00183451)
(1.20034 0.00492136 0.00268189)
(1.20042 0.00730809 0.00383716)
(1.19929 0.0131119 0.00497646)
(1.20847 0.0386556 0.00428123)
(1.19995 1.57444e-06 7.14944e-06)
(1.19988 5.40657e-05 8.33156e-05)
(1.19977 9.97269e-05 0.000102291)
(1.19999 0.000147233 0.000122978)
(1.20007 0.000215965 0.000166803)
(1.20012 0.00032173 0.000236217)
(1.20019 0.000483003 0.000341126)
(1.20031 0.000726963 0.000490506)
(1.20051 0.00109565 0.000703918)
(1.20083 0.00164195 0.000996472)
(1.20134 0.00244039 0.0013873)
(1.20218 0.00361197 0.00188788)
(1.20361 0.005401 0.00244124)
(1.20657 0.00804892 0.00276207)
(1.21317 0.00857691 0.00217369)
(1.19994 -6.25016e-06 7.02626e-06)
(1.1999 -1.22556e-06 8.1133e-05)
(1.19979 3.8086e-05 9.88875e-05)
(1.20003 6.63853e-05 0.000118161)
(1.20013 0.000104577 0.000158364)
(1.20022 0.000161269 0.00022195)
(1.20035 0.000243831 0.000313452)
(1.20055 0.000366929 0.000440436)
(1.20086 0.000550511 0.00061326)
(1.20135 0.00082227 0.00083607)
(1.20211 0.00121461 0.00110419)
(1.20329 0.00176689 0.00139368)
(1.20513 0.00248225 0.00162051)
(1.20788 0.0030657 0.00159819)
(1.21092 0.00207336 0.00110729)
(1.17454 0.0945422 0.0124678)
(0.925573 -0.143967 -0.0181955)
(1.1915 0.0603726 0.00959386)
(1.32809 -0.0542842 -0.00620606)
(1.19102 0.0613448 0.00498247)
(1.3287 -0.0527708 0.00891842)
(1.1886 0.0572889 0.00485262)
(1.32318 -0.0528552 -0.00829732)
(1.18745 0.0574863 0.00457093)
(1.32213 -0.0529054 0.00758849)
(1.18279 0.0223109 0.00441226)
(1.16667 0.0603136 0.0102696)
(1.19507 0.015541 0.00588896)
(1.19285 0.0367911 0.00916802)
(0.652478 0.0179521 0.090676)
(1.15718 -0.0054407 0.0341603)
(1.28986 0.00617988 -0.00521495)
(1.21703 0.017188 0.000681788)
(1.23226 0.00146127 -6.31046e-06)
(1.21199 0.0418861 0.00532634)
(1.28436 0.0144818 -0.00120137)
(1.21922 0.0151524 0.00197262)
(1.23351 0.00265895 0.000809517)
(1.19463 0.0157425 0.00440005)
(1.19221 0.0376268 0.00525194)
(1.1963 0.0128188 0.00548412)
(1.19163 0.0333183 0.00551834)
(1.1321 -0.021187 0.0079879)
(1.13062 -0.0281736 0.00872677)
(1.28269 0.014577 -0.000123008)
(1.21893 0.015203 0.00180177)
(1.23282 0.00314719 0.000640504)
(1.20917 0.0388472 0.00414699)
(1.28023 0.0147502 0.0017897)
(1.21784 0.01371 0.0022543)
(1.23116 0.00253778 0.000273324)
(1.1964 0.0123168 0.00558607)
(1.19082 0.0331895 0.00532594)
(1.12539 -0.0264231 0.00467451)
(1.12402 -0.027773 0.00765856)
(1.27945 0.0151499 0.00160843)
(1.2173 0.0132996 0.00236092)
(1.23019 0.00240905 -8.3522e-05)
(1.06935 0.0806936 0.0221941)
(1.16655 0.105711 0.0108341)
(1.20736 0.0677358 0.0167991)
(1.15696 0.0603087 0.0306674)
(1.24002 0.0994634 0.0216618)
(0.847927 0.0538439 0.0474624)
(1.34409 -0.0638793 -0.0049256)
(1.31508 0.0921916 0.0206188)
(1.1332 -0.0247722 0.0169915)
(1.13599 -0.0130186 0.0274073)
(1.19106 0.0690711 0.00783965)
(1.13007 0.0392583 0.0124598)
(1.21414 0.0917907 0.00859207)
(1.1314 0.0488148 0.010152)
(1.21712 0.0992979 0.00887746)
(1.33856 -0.0549239 0.00840257)
(1.28358 0.0889191 0.00745491)
(1.29159 0.0958891 0.00488767)
(1.12967 0.0412897 0.00541802)
(1.21357 0.0929324 0.00407534)
(1.19051 0.0579836 0.00594737)
(1.12813 0.0362691 0.0067094)
(1.21155 0.0906408 0.00463152)
(1.28353 0.0905584 0.00190425)
(1.3256 -0.0525706 -0.00724949)
(1.28039 0.0891237 0.004785)
(1.12712 -0.0283367 0.0062424)
(1.12861 -0.0247146 0.00398137)
(1.18943 0.0586989 0.00378405)
(1.12558 0.0360199 0.00522618)
(1.20906 0.0907129 0.00351039)
(1.12701 0.0384918 0.00390736)
(1.21075 0.0914087 0.00267125)
(1.32536 -0.0525335 0.00800277)
(1.27794 0.089642 0.00412642)
(1.28041 0.0897231 0.000284096)
(1.12428 0.0370343 0.00480602)
(1.20778 0.0911105 0.00326374)
(1.18647 0.056684 0.00629417)
(1.12302 0.035822 0.00701183)
(1.20596 0.0907642 0.00488252)
(1.27736 0.0900193 0.000319076)
(1.31908 -0.0536324 -0.00924178)
(1.27438 0.0899286 0.00544346)
(1.12289 -0.0266826 0.00971227)
(1.18563 0.0558092 0.00818576)
(1.12212 0.0355252 0.00950027)
(1.204 0.0901999 0.00688815)
(1.31677 -0.0536726 0.00746533)
(1.27272 0.0899151 0.00245402)
(1.20139 -0.0898419 0.0742355)
(1.20666 -0.189373 0.0289418)
(1.13367 -0.0672619 0.0222628)
(1.28639 -0.160595 0.0505607)
(1.18151 -0.0557525 0.0436161)
(1.14131 -0.100712 0.0266637)
(1.25131 -0.0868805 0.100112)
(0.284656 -0.0317718 0.0636609)
(1.18636 -0.0067928 0.0452325)
(1.10462 -0.137803 0.00470699)
(1.15306 -0.21405 0.00445362)
(1.11281 -0.0944098 0.00665915)
(1.15347 -0.213301 0.00545459)
(1.11391 -0.0936765 0.00566251)
(1.10389 -0.138668 0.00924662)
(1.10663 -0.130195 0.0131009)
(1.15974 -0.201861 0.00107291)
(1.11787 -0.0877288 0.00603959)
(1.1074 -0.129731 0.00257171)
(1.15746 -0.202377 0.010347)
(1.11643 -0.0880323 0.00819131)
(1.09513 -0.136634 0.00192009)
(1.14238 -0.211567 0.00752896)
(1.1026 -0.0935853 0.00821323)
(1.14317 -0.211366 0.00253205)
(1.10366 -0.0934865 0.00419779)
(1.09447 -0.136717 0.0109783)
(1.09665 -0.134846 0.00893464)
(1.14647 -0.208634 -0.000695789)
(1.10649 -0.0921755 0.00187067)
(1.09749 -0.134931 -0.00119489)
(1.14521 -0.208806 0.0063379)
(1.10538 -0.0921707 0.00571348)
(1.35652 -0.26747 0.014243)
(1.83 0.000147325 -0.107609)
(1.63852 0.0736399 -0.0904313)
(1.71657 0.155574 -0.128477)
(1.13647 0.177033 -0.00945849)
(1.16552 0.126644 0.034674)
(1.1918 0.232948 0.025214)
(1.1658 0.134092 0.00715868)
(1.18972 0.244102 -0.00236278)
(1.14254 0.162449 0.032098)
(1.3452 0.20526 0.0474629)
(0.68244 0.0652019 0.0544361)
(0.784411 0.168388 0.0173389)
(1.30454 0.177046 0.0494932)
(1.38991 0.224524 0.0197541)
(0.736726 0.130287 0.0457221)
(1.60995 0.0843967 0.00972125)
(1.33185 0.270333 0.0157069)
(1.36598 0.278832 -0.00559669)
(1.58905 0.0907546 -0.0201451)
(1.8534 0.0568081 -0.0582592)
(1.07122 -0.192933 0.0161298)
(1.84215 -0.105758 -0.0619249)
(1.08506 -0.0614701 0.0043605)
(1.64717 0.00573895 0.014742)
(1.60023 -0.135455 -0.0438489)
(1.63095 0.0189723 -0.0299661)
(1.6137 -0.157235 0.00942251)
(1.80218 0.124493 -0.0493843)
(0.631935 0.142053 0.0321681)
(1.56664 0.26193 -0.000474747)
(1.01234 0.00448483 -0.00336733)
(1.11359 -0.126891 0.0338311)
(1.17514 -0.198189 0.0259713)
(1.13191 -0.0821864 0.032437)
(1.1196 -0.121799 0.0336686)
(1.17024 -0.199229 0.0275575)
(1.12239 -0.0833403 0.0250707)
(1.11223 -0.13574 0.0177102)
(1.16339 -0.215092 0.00968214)
(1.1196 -0.0927973 0.0130346)
(1.11089 -0.137928 0.016284)
(1.16608 -0.212716 0.0180166)
(1.12109 -0.0905704 0.0162128)
(1.33011 -0.241042 0.0165011)
(1.31994 -0.24394 0.0218062)
(1.59578 0.111817 -0.0545897)
(1.59886 0.115371 0.0302402)
(1.59584 0.155137 -0.040548)
(1.59568 0.129468 -0.0344834)
(1.31737 -0.256893 0.0235887)
(1.10794 0.148773 0.0133006)
(1.13464 0.109653 0.0166594)
(1.16686 0.222096 0.00753942)
(1.11498 0.153339 0.00627817)
(1.12799 0.107388 0.0149201)
(1.15747 0.22006 0.0111454)
(1.10482 0.143667 0.00568143)
(1.12298 0.099676 0.0113685)
(1.15219 0.212387 0.00866047)
(1.12455 0.101804 0.0123279)
(1.15252 0.214383 0.0046369)
(1.1044 0.141708 0.0125842)
(1.55756 0.088003 -0.0213615)
(1.31575 0.264276 0.0133186)
(1.57511 0.0832444 0.0291342)
(1.29802 0.262311 0.00438532)
(1.5958 0.01619 0.0312788)
(1.57306 -0.125888 -0.0341379)
(1.57502 -0.127436 0.033179)
(1.59329 0.0156701 -0.0283016)
(1.60144 0.0204624 -0.028937)
(1.59437 -0.133692 0.0309278)
(1.61847 0.0133012 0.0340055)
(1.58025 -0.125577 -0.0364042)
(1.55248 0.083593 0.0258663)
(1.29296 0.255959 0.00204914)
(1.29442 0.258549 0.00753284)
(1.55016 0.0821453 -0.0214059)
(1.58366 0.135143 0.0096466)
(1.57817 0.133446 -0.0303187)
(1.57821 0.121693 -0.0431946)
(1.58022 0.121008 0.0365097)
(1.10092 0.140448 0.000933588)
(1.11771 0.0976029 0.00576636)
(1.14682 0.211497 0.00534446)
(1.11859 0.0979169 0.00496307)
(1.1473 0.211725 0.00135083)
(1.10023 0.140003 0.00847111)
(1.10391 0.143771 0.00892805)
(1.12331 0.102541 0.00515429)
(1.15258 0.215307 0.00194396)
(1.12196 0.101826 0.00678437)
(1.10469 0.144602 0.000980512)
(1.15089 0.21459 0.00631314)
(1.5458 0.0838124 0.0255922)
(1.2875 0.255962 -0.000102778)
(1.28837 0.256195 0.00523373)
(1.54503 0.0837921 -0.0223686)
(1.59196 0.018877 -0.0279516)
(1.57474 -0.124587 0.0340408)
(1.59514 0.0183383 0.0321487)
(1.57214 -0.123641 -0.0324221)
(1.54847 0.0851061 -0.0215513)
(1.29372 0.2581 0.00589093)
(1.55165 0.0848436 0.0264795)
(1.29093 0.257773 0.00120102)
(1.58933 0.0178049 0.0314833)
(1.56958 -0.123631 -0.0332793)
(1.58862 0.0179253 -0.0287643)
(1.57022 -0.123952 0.0344602)
(1.10112 -0.133034 0.00862077)
(1.15203 -0.205809 -0.00177337)
(1.11174 -0.0905337 0.00159849)
(1.10203 -0.133038 -0.00188659)
(1.15039 -0.206078 0.00629836)
(1.11054 -0.0906048 0.00488012)
(1.09958 -0.137328 0.00119397)
(1.14747 -0.212461 0.00442812)
(1.10753 -0.0940612 0.00549632)
(1.09889 -0.137739 0.00821126)
(1.14782 -0.21208 0.00206327)
(1.10853 -0.0937054 0.00296181)
(1.0995 0.142275 0.00760733)
(1.11771 0.100184 0.00206916)
(1.14701 0.213779 5.92962e-05)
(1.10017 0.142375 -0.00102897)
(1.11671 0.0999991 0.00454512)
(1.146 0.213791 0.00501286)
(1.09765 0.140729 -0.000356629)
(1.11373 0.09796 0.00485438)
(1.14326 0.21287 0.00501778)
(1.11454 0.0980042 0.00298866)
(1.14387 0.212703 0.000384333)
(1.09694 0.140626 0.00795585)
(1.54444 0.0854393 -0.0222328)
(1.28803 0.257236 0.00411728)
(1.54582 0.084978 0.0250128)
(1.28665 0.257685 0.000168808)
(1.58705 0.0190656 0.0308962)
(1.56746 -0.12375 -0.03381)
(1.56803 -0.123715 0.0339122)
(1.58639 0.019369 -0.0289021)
(1.58824 0.0193026 -0.0285932)
(1.56993 -0.123639 0.0336514)
(1.58947 0.0188899 0.0308587)
(1.569 -0.123485 -0.0331696)
(1.54316 0.0851603 0.0249967)
(1.28438 0.257517 -8.75123e-05)
(1.28528 0.257142 0.00442604)
(1.54235 0.0855511 -0.0224586)
(1.09405 0.141192 0.00112415)
(1.10955 0.0983154 0.00754286)
(1.13909 0.214182 0.00758048)
(1.11048 0.098453 0.00439287)
(1.13997 0.214059 0.00176441)
(1.0934 0.14101 0.0106345)
(1.09558 0.141779 0.00858522)
(1.11306 0.0992853 0.00243005)
(1.14264 0.214098 0.000372957)
(1.11211 0.0992178 0.00535159)
(1.09625 0.14179 -0.000553762)
(1.14171 0.214274 0.00582934)
(1.53979 0.0866545 0.0257679)
(1.28027 0.258984 0.00262811)
(1.28183 0.258625 0.00552901)
(1.53781 0.0870603 -0.0205694)
(1.58499 0.0200029 -0.0283475)
(1.567 -0.124043 0.0337067)
(1.58626 0.0197215 0.0308392)
(1.56596 -0.12415 -0.0339439)
(1.54077 0.0865521 -0.0217585)
(1.28422 0.258142 0.00434923)
(1.54222 0.0860957 0.0249846)
(1.28288 0.258698 0.000966074)
(1.58409 0.0200038 0.0315453)
(1.56333 -0.12457 -0.0340956)
(1.58221 0.0202422 -0.0274042)
(1.56502 -0.124557 0.0340626)
(1.09214 -0.134969 0.0146904)
(1.14042 -0.210111 0.00386625)
(1.10119 -0.092915 0.00655889)
(1.09269 -0.135435 0.00351446)
(1.13892 -0.209939 0.0115927)
(1.10005 -0.0925792 0.0120947)
(1.08983 -0.134688 0.0105149)
(1.13577 -0.209969 0.0105805)
(1.09826 -0.0926932 0.0139515)
(1.09147 0.14069 0.0143132)
(1.10826 0.0987 0.00690102)
(1.13733 0.214506 0.00416944)
(1.09195 0.141122 0.00355567)
(1.10722 0.0983524 0.0114679)
(1.13601 0.214383 0.0112728)
(1.08937 0.139873 0.00985791)
(1.10555 0.0979583 0.0140313)
(1.13317 0.21384 0.0101299)
(1.53261 0.0879811 -0.0178455)
(1.27913 0.25914 0.00755397)
(1.53665 0.0873213 0.0272324)
(1.27643 0.25931 0.0065702)
(1.57498 0.0209088 0.03517)
(1.55633 -0.125411 0.0344008)
(1.57711 0.020905 -0.0252352)
(1.5621 -0.125149 0.0344054)
(1.58113 0.0203309 0.0327839)
(1.55841 -0.124631 -0.0342919)
(1.53033 0.0881477 0.0302826)
(1.27426 0.259074 0.012348)
(1.12154 -0.173237 0.0226232)
(1.11315 -0.663613 0.0509701)
(0.797473 -0.11912 0.0425163)
(1.12681 -0.658957 0.0272819)
(0.808865 -0.106099 0.0144916)
(1.10778 -0.181204 0.0232464)
(0.727627 -0.126711 0.0861211)
(0.15536 0.182456 0.0236073)
(0.859057 -0.494831 0.156102)
(0.678437 0.0630882 0.017597)
(0.0779599 0.0374324 -0.0458523)
(0.66447 0.111725 -0.138376)
(0.581811 0.112426 -0.188099)
(1.07866 -0.198887 0.00351134)
(1.08668 -0.657787 0.0191127)
(0.782038 -0.133945 0.0211179)
(1.08029 -0.658333 -0.0164236)
(0.774331 -0.135688 -0.0132139)
(1.08659 -0.197363 0.00693101)
(1.0865 -0.190598 0.00643661)
(1.09647 -0.654051 -0.0143641)
(0.79032 -0.129182 -0.0127556)
(1.09548 -0.190352 0.00219009)
(1.08781 -0.653469 0.024766)
(0.781863 -0.129357 0.0219226)
(0.626091 0.110681 -0.0846447)
(0.633903 0.110909 0.017733)
(0.62218 0.109164 0.0361472)
(0.605047 0.109342 -0.0705212)
(1.06738 -0.198612 0.00449998)
(1.07492 -0.659852 0.023369)
(0.768619 -0.133603 0.023981)
(1.06908 -0.660097 -0.0150566)
(0.761542 -0.13482 -0.0121893)
(1.07473 -0.197813 0.00970191)
(1.07186 -0.19634 0.00321101)
(1.08112 -0.657142 -0.0168039)
(0.775282 -0.132295 -0.016649)
(1.08064 -0.195452 -0.00167117)
(1.07326 -0.657475 0.021962)
(0.766784 -0.133238 0.0191602)
(0.614473 0.110756 -0.0694715)
(0.6176 0.112405 0.0435279)
(0.620693 0.112551 0.0358625)
(0.604256 0.112038 -0.067105)
(0.908301 -0.179285 0.0404018)
(1.37298 -0.852358 0.0585714)
(1.40474 -0.855969 0.0359386)
(0.869855 -0.167338 -0.0127205)
(0.096591 0.00658294 -0.0215533)
(0.0483681 -0.0116935 -0.0276206)
(0.563839 0.0453955 -0.160112)
(0.585473 0.0835151 -0.116935)
(0.519717 0.0853152 -0.168375)
(0.62144 0.0428193 -0.0935387)
(0.95213 -0.292627 -0.00690352)
(1.05065 -0.677862 0.086171)
(1.12364 0.220167 0.0206139)
(0.813636 0.161318 0.0416474)
(1.13115 0.670601 0.0410968)
(0.802312 0.176495 0.000110552)
(1.12406 0.68492 -0.000138618)
(1.13537 0.210518 0.0270252)
(1.0077 0.20633 0.0882084)
(0.30957 0.225297 0.050067)
(0.610411 0.557914 -0.1212)
(0.637062 0.233396 0.0792866)
(1.01797 0.591042 -0.131214)
(0.477544 0.256199 0.0653884)
(0.813883 0.163261 0.0156166)
(1.36931 0.852857 0.04323)
(1.36011 0.873346 -0.00734776)
(0.83679 0.167199 -0.0212419)
(0.333054 -0.0465615 0.0919116)
(0.234424 -0.100657 0.0388653)
(0.395412 -0.0685155 0.134589)
(0.312123 -0.0776756 0.0439423)
(0.500991 -0.0512889 -0.0722088)
(0.522611 -0.0865445 0.0130054)
(0.523844 -0.0471202 0.00910569)
(0.510129 -0.0880477 -0.0743708)
(0.78335 0.172397 -0.104366)
(0.626447 0.450498 -0.0750058)
(1.32182 0.787447 -0.18473)
(0.623272 0.0621253 -0.0187189)
(1.10126 -0.191839 0.0303662)
(1.11271 -0.664298 0.0123374)
(0.799593 -0.129832 0.00966025)
(1.10859 -0.188515 0.0256784)
(1.10577 -0.66215 0.0463512)
(0.792301 -0.131228 0.0417917)
(1.08859 -0.198403 0.0105761)
(1.09644 -0.659947 0.0235679)
(0.789991 -0.133573 0.0259927)
(1.09584 -0.197057 0.0121312)
(1.09123 -0.660918 -0.00974554)
(0.782731 -0.135111 -0.00618415)
(0.862878 -0.164926 -0.0190147)
(1.37513 -0.851382 0.00920758)
(0.877232 -0.168981 0.0206264)
(1.36206 -0.844336 0.0488413)
(0.531903 0.0476434 -0.0755149)
(0.541605 0.0827956 0.00406475)
(0.517136 0.0834939 -0.0763758)
(0.557862 0.0446504 0.00674316)
(0.63036 0.0470639 -0.0471466)
(0.596125 0.0886501 -0.134797)
(0.627801 0.0488815 -0.138115)
(0.592534 0.0874173 -0.0584865)
(0.832569 -0.162315 0.0169601)
(1.34849 -0.839698 0.0252154)
(1.34254 -0.842173 -0.0136913)
(0.838539 -0.16421 -0.0247945)
(1.09458 0.194577 0.0119093)
(0.797538 0.14731 0.00105322)
(1.11432 0.657959 0.00250123)
(1.11432 0.19615 0.0134006)
(0.781387 0.147363 0.0345063)
(1.09696 0.655367 0.03608)
(1.08577 0.18813 0.00843939)
(0.782549 0.141001 0.0271331)
(1.09328 0.647866 0.0243039)
(0.774474 0.141625 -0.00921605)
(1.08661 0.647665 -0.0120688)
(1.09403 0.187697 0.0101321)
(0.818473 0.161379 -0.0148686)
(1.36016 0.846744 -0.00165123)
(0.836163 0.166786 0.0191543)
(1.3324 0.838757 0.0405271)
(0.525542 -0.0471549 -0.0591872)
(0.529369 -0.0835238 0.0498002)
(0.519527 -0.0844261 -0.0639527)
(0.53583 -0.0453901 0.0442291)
(0.519549 -0.0492078 0.023117)
(0.50468 -0.0863198 -0.0733688)
(0.50087 -0.0488072 -0.0736166)
(0.516563 -0.0862878 0.0266875)
(0.817991 0.161898 0.0194186)
(1.33176 0.831842 0.0284739)
(1.32332 0.831827 -0.0158368)
(0.823594 0.163598 -0.0181033)
(0.253305 -0.117596 0.0512124)
(0.467289 -0.0846859 0.156734)
(0.608293 -0.112594 0.0127822)
(0.59282 -0.114448 -0.0813686)
(0.624304 0.108587 0.00104402)
(0.595715 0.108481 -0.0830981)
(0.679321 0.11599 -0.147748)
(0.674233 0.114 -0.0705244)
(0.614366 -0.109133 0.0548396)
(0.602311 -0.10977 -0.0694955)
(0.588507 -0.11183 -0.0790364)
(0.599242 -0.11162 0.0286668)
(0.821199 -0.160461 0.0165209)
(1.33707 -0.834081 0.022044)
(1.32842 -0.835236 -0.0204345)
(0.829797 -0.162842 -0.0231407)
(0.568994 0.0475604 0.0198143)
(0.542846 0.0850121 -0.0774858)
(0.55111 0.0854229 0.0188655)
(0.559329 0.0466296 -0.0762313)
(0.834906 -0.161939 -0.0202545)
(1.34989 -0.835372 -0.0206787)
(1.33727 -0.832788 0.0287971)
(0.844438 -0.164299 0.0126852)
(0.535194 0.048526 -0.061015)
(0.537997 0.083807 0.0346479)
(0.523739 0.0845125 -0.0648565)
(0.549977 0.0463161 0.0316486)
(1.07944 0.187417 0.00359804)
(0.775649 0.140001 0.0228923)
(1.0865 0.64815 0.0206168)
(0.767905 0.140146 -0.0145852)
(1.07972 0.647387 -0.0165552)
(1.08756 0.187292 0.00615006)
(1.08538 0.19193 0.00488105)
(0.782848 0.143725 -0.013909)
(1.0942 0.650283 -0.0124098)
(0.774015 0.145247 0.0233112)
(1.0946 0.190135 0.00281946)
(1.08616 0.651026 0.0247111)
(0.813402 0.161945 0.0186278)
(1.32515 0.831716 0.024954)
(1.31628 0.830633 -0.0199103)
(0.819268 0.163909 -0.0194872)
(0.530811 -0.0474179 0.0438178)
(0.52407 -0.0830076 -0.0634433)
(0.529815 -0.0450639 -0.057093)
(0.525261 -0.0844561 0.0495235)
(0.812789 0.161339 -0.0180758)
(1.33291 0.834048 -0.0155695)
(0.824188 0.164405 0.0209835)
(1.32147 0.833895 0.0289693)
(0.529815 -0.0467625 -0.0555532)
(0.53082 -0.0834643 0.052426)
(0.53698 -0.0451484 0.0465837)
(0.523341 -0.0841167 -0.0614923)
(1.07837 -0.193547 0.0028263)
(1.08749 -0.654515 -0.0175485)
(0.782587 -0.130903 -0.0167315)
(1.08712 -0.193138 -0.0018551)
(1.07943 -0.654548 0.021541)
(0.774039 -0.131473 0.0187729)
(1.07289 -0.198474 0.00223665)
(1.08097 -0.658306 0.0196025)
(0.775448 -0.1337 0.0208046)
(1.08062 -0.197356 0.00650995)
(1.07457 -0.658548 -0.0174159)
(0.767986 -0.135095 -0.0144588)
(0.825133 -0.16092 -0.0199057)
(1.33861 -0.831767 -0.02295)
(0.833185 -0.163081 0.0144448)
(1.32752 -0.830629 0.0258372)
(0.534047 0.0497819 -0.0575916)
(0.536161 0.0855832 0.0422337)
(0.524493 0.0859698 -0.0620469)
(0.545963 0.0480018 0.0380311)
(0.552417 0.0489562 0.0358135)
(0.534978 0.0848662 -0.0671145)
(0.547435 0.0474458 -0.0632744)
(0.53947 0.0859361 0.0390372)
(0.818404 -0.16032 0.0168328)
(1.33144 -0.831958 0.0233599)
(1.32277 -0.832621 -0.021208)
(0.826574 -0.162543 -0.021537)
(1.07877 0.190885 0.00259788)
(0.775545 0.142134 -0.0172511)
(1.08704 0.650318 -0.0155637)
(1.08778 0.189227 -0.000250741)
(0.766622 0.143442 0.0206572)
(1.07928 0.65108 0.0221277)
(1.07462 0.189131 0.00265825)
(0.769008 0.140566 0.0224185)
(1.08142 0.651296 0.0203681)
(0.761452 0.140984 -0.0157711)
(1.0749 0.650783 -0.0174363)
(1.08253 0.188793 0.00572702)
(0.809217 0.161713 -0.0192946)
(1.32595 0.833384 -0.0188826)
(0.819611 0.164396 0.0197343)
(1.31528 0.833629 0.0262289)
(0.526159 -0.0472505 -0.0550632)
(0.529726 -0.0843176 0.0490292)
(0.521331 -0.0847083 -0.060474)
(0.534027 -0.0456785 0.0441643)
(0.532254 -0.0472945 0.0453319)
(0.526711 -0.0831659 -0.0621568)
(0.532761 -0.0449906 -0.0556263)
(0.52669 -0.0846741 0.0507736)
(0.807977 0.162402 0.0182639)
(1.32052 0.834111 0.0245318)
(1.31209 0.833423 -0.020688)
(0.814097 0.164458 -0.0202136)
(0.608958 -0.108506 -0.0693814)
(0.608795 -0.10979 0.0545465)
(0.616452 -0.109121 0.0578459)
(0.606881 -0.109465 -0.0672405)
(0.6213 0.110779 0.0443602)
(0.606882 0.110683 -0.0671604)
(0.618734 0.110046 -0.0731263)
(0.622567 0.111067 0.0408397)
(0.616353 -0.110112 0.0537222)
(0.605609 -0.110149 -0.0661979)
(0.61215 -0.108732 -0.0681911)
(0.610854 -0.110123 0.0558819)
(0.815224 -0.16031 0.0177836)
(1.32529 -0.830849 0.0276393)
(1.31785 -0.83181 -0.0187625)
(0.821789 -0.161999 -0.0197638)
(0.543243 0.0506962 0.0383601)
(0.530095 0.0858284 -0.0640957)
(0.533834 0.0874901 0.0417985)
(0.539742 0.048606 -0.059529)
(0.819306 -0.160423 -0.0195199)
(1.3322 -0.831254 -0.0213106)
(1.32138 -0.830547 0.0263404)
(0.827921 -0.162718 0.0162496)
(0.527184 0.0514548 -0.058354)
(0.534461 0.087655 0.0351953)
(0.521091 0.0876427 -0.0623067)
(0.540919 0.0501755 0.0333746)
(1.06934 0.190697 0.00484115)
(0.761779 0.141129 0.0252986)
(1.07543 0.654535 0.0234871)
(0.754464 0.141799 -0.0137261)
(1.06948 0.654384 -0.0152401)
(1.07697 0.190158 0.00858196)
(1.07314 0.191134 0.00297116)
(0.768339 0.141625 -0.0173775)
(1.0813 0.652644 -0.015722)
(0.75943 0.142716 0.0210207)
(1.0822 0.189743 -0.000245962)
(1.07351 0.653234 0.0223985)
(0.801125 0.162924 0.0189399)
(1.31445 0.836091 0.027576)
(1.30719 0.836268 -0.018458)
(0.806301 0.164749 -0.0195688)
(0.528977 -0.048039 0.0424439)
(0.524061 -0.0839382 -0.0616175)
(0.528166 -0.0456035 -0.0558145)
(0.525552 -0.0856887 0.0462396)
(0.804114 0.162242 -0.0195931)
(1.32094 0.835228 -0.0191067)
(0.814192 0.164856 0.0192361)
(1.31016 0.835194 0.0263277)
(0.51808 -0.0484189 -0.0564203)
(0.52892 -0.0856398 0.037518)
(0.529422 -0.0471728 0.0361356)
(0.516786 -0.0856134 -0.0606531)
(1.06497 -0.198221 0.00794546)
(1.07432 -0.659662 -0.0126747)
(0.767555 -0.133137 -0.0126864)
(1.0739 -0.197022 0.00236552)
(1.06624 -0.659991 0.0265909)
(0.759096 -0.134236 0.023665)
(0.811788 -0.15956 -0.0182723)
(1.3256 -0.831223 -0.0165518)
(0.822416 -0.162463 0.0184261)
(1.3139 -0.830047 0.0311388)
(0.535651 0.0528813 0.028609)
(0.523946 0.0871834 -0.0648227)
(0.529141 0.0501727 -0.0609373)
(0.530711 0.0893782 0.0290125)
(1.06679 0.191628 0.00737669)
(0.760467 0.141485 -0.0138104)
(1.07471 0.65521 -0.0123118)
(1.07604 0.190325 0.00342566)
(0.751671 0.14241 0.0253055)
(1.06663 0.65557 0.0268253)
(0.795362 0.16236 -0.0184484)
(1.31471 0.837097 -0.0156058)
(0.806715 0.165365 0.0200938)
(1.30301 0.836164 0.0308168)
(0.52425 -0.0497458 0.0309247)
(0.518977 -0.0848749 -0.0625126)
(0.518753 -0.0469132 -0.0582477)
(0.52506 -0.087004 0.0305613)
(0.61027 -0.109611 -0.0676225)
(0.610786 -0.111275 0.0502713)
(0.616978 -0.111434 0.0400756)
(0.602101 -0.111051 -0.0662968)
(0.609069 0.111715 -0.0699364)
(0.615617 0.113927 0.0286935)
(0.606281 -0.110491 -0.0684565)
(0.611902 -0.112558 0.0319814)
(1.17104 -0.167357 0.037971)
(1.18744 -0.658057 0.0280526)
(0.860675 -0.0992057 -0.00437653)
(1.19995 -0.151393 0.0261662)
(1.16675 -0.652247 0.0691578)
(0.843112 -0.101678 0.0461744)
(1.07468 -0.0866658 0.0754074)
(1.26357 -0.540798 0.0159499)
(0.960223 -0.0320227 0.0267293)
(1.27606 -0.0883552 0.039231)
(1.10791 -0.46489 -0.0884925)
(0.827018 -0.000376525 -0.0732341)
(0.740978 -0.122946 0.133392)
(0.836556 -0.366003 0.191565)
(0.682221 0.00197695 -0.0542109)
(0.699698 0.106908 -0.279335)
(0.368868 0.0617782 -0.0697644)
(0.725643 0.122944 -0.25901)
(0.63225 0.113924 -0.203304)
(1.07872 -0.198871 0.0058507)
(1.08802 -0.65721 -0.0109154)
(0.783637 -0.133171 -0.0127528)
(1.08807 -0.19624 0.00228528)
(1.08033 -0.658244 0.0242126)
(0.77455 -0.135716 0.0214947)
(1.08498 -0.19063 0.00527774)
(1.09146 -0.653016 0.0257833)
(0.787028 -0.129417 0.0243921)
(1.09156 -0.191023 0.0103248)
(1.08603 -0.653225 -0.0134884)
(0.780654 -0.129451 -0.0110647)
(0.63634 0.110202 0.0357105)
(0.618434 0.110995 -0.0773823)
(0.611084 0.108305 -0.0727963)
(0.617381 0.110247 0.0366229)
(1.0678 -0.198745 0.00532949)
(1.07716 -0.659147 -0.0140049)
(0.770854 -0.133346 -0.0146572)
(1.07672 -0.197177 0.000404302)
(1.06945 -0.659815 0.0239477)
(0.762222 -0.134891 0.0211413)
(1.07098 -0.19651 0.00246769)
(1.0784 -0.657869 0.0222139)
(0.772609 -0.132523 0.0222441)
(1.07816 -0.196051 0.00784856)
(1.07242 -0.657934 -0.0166475)
(0.765698 -0.13338 -0.0140344)
(0.622657 0.111925 0.0443243)
(0.608299 0.111782 -0.067121)
(0.611413 0.111093 -0.0682398)
(0.615313 0.113069 0.0398518)
(0.922523 -0.151635 0.0280426)
(0.706093 -0.0610041 -0.0288134)
(0.714957 -0.0671746 -0.0397433)
(0.883961 -0.139442 -0.0232936)
(0.934718 -0.181665 0.00371189)
(1.47404 -0.852032 0.0257447)
(1.43104 -0.849817 0.0848921)
(0.973881 -0.194549 0.0456262)
(0.952164 -0.156028 -0.00867455)
(0.786957 -0.0770706 -0.0507615)
(0.754909 -0.0720108 -0.0311319)
(0.996833 -0.16901 0.0291541)
(0.986709 -0.0683907 -0.0206247)
(0.639838 -0.0306524 -0.0122239)
(0.474122 -0.00838692 -0.103571)
(0.601547 0.0726704 -0.211689)
(0.349477 0.0415021 -0.0648177)
(0.577231 0.0143565 -0.123246)
(0.105241 0.0192983 -0.0210748)
(0.246209 -0.0380767 -0.045427)
(0.519732 -0.0225662 -0.101492)
(0.791577 -0.0890418 -0.0578185)
(0.558755 -0.010287 -0.0805231)
(0.817142 -0.0856319 -0.0996825)
(1.01063 -0.0993918 -0.0346996)
(1.4444 -0.299897 -0.0313895)
(0.551012 0.0228145 -0.120905)
(0.720513 -0.0378401 -0.0418269)
(0.710219 -0.041996 -0.0771465)
(0.587059 0.0211941 -0.063412)
(0.614714 0.0426433 -0.132246)
(0.651925 0.0935548 -0.22269)
(0.5646 0.0872977 -0.171943)
(0.682861 0.0478594 -0.1891)
(0.595216 0.0183612 -0.0871433)
(0.793768 -0.0515368 -0.0908995)
(0.759805 -0.0482831 -0.0512533)
(0.641623 0.0218938 -0.140387)
(1.06197 -0.218129 -0.0142017)
(1.52406 -0.749135 0.0342304)
(1.32707 -0.660099 -0.0577602)
(1.08292 -0.222707 -0.0159936)
(1.48762 -0.569234 0.0735369)
(0.94916 -0.451738 0.18922)
(0.84631 -0.229739 -0.0267487)
(0.377198 -0.0668514 -0.0358485)
(1.09695 -0.198437 -0.0401032)
(0.823784 -0.110462 -0.0409656)
(1.10366 -0.204911 -0.026974)
(0.832696 -0.102101 -0.0649586)
(1.73923 -0.607091 0.0488344)
(1.36957 -0.319284 -0.0153496)
(1.09215 0.218393 0.000222966)
(0.82268 0.17899 -0.0137397)
(1.16052 0.707767 0.00776532)
(0.777226 0.180161 0.0289381)
(1.15548 0.219116 -0.0106679)
(1.10481 0.695635 0.0350079)
(1.25378 0.21335 0.0336173)
(1.00666 0.199157 0.0501429)
(1.34401 0.708877 0.0142454)
(0.894607 0.200974 -0.0261757)
(1.37216 0.234448 0.0353798)
(1.25395 0.668263 -0.135381)
(0.804218 0.130756 0.0113798)
(0.630335 0.0587216 -0.0125503)
(0.595056 0.0530594 -0.0183378)
(0.833477 0.136354 -0.026303)
(0.798091 0.154789 -0.0212062)
(1.43506 0.901446 -0.001327)
(1.34062 0.874414 0.0394445)
(0.829484 0.166444 0.0259024)
(0.793886 0.122861 -0.0256946)
(0.602961 0.0550563 -0.00316962)
(0.608526 0.0502253 -0.00935628)
(0.815805 0.132227 0.0249266)