/*--------------------------------*- C++ -*----------------------------------*\
| =========                 |                                                 |
| \\      /  F ield         | OpenFOAM: The Open Source CFD Toolbox           |
|  \\    /   O peration     | Version:  2012                                  |
|   \\  /    A nd           | Website:  www.openfoam.com                      |
|    \\/     M anipulation  |                                                 |
\*---------------------------------------------------------------------------*/
FoamFile
{
    version     2.0;
    format      ascii;
    class       surfaceVectorField;
    location    "0.105/fluid";
    object      Uf_0;
}
// * * * * * * * * * * * * * * * * * * * * * * * * * * * * * * * * * * * * * //

dimensions      [0 1 -1 0 0 0 0];


internalField   nonuniform List<vector> 
46880
(
(1.19992 3.9698e-06 2.10465e-05)
(1.19998 8.46047e-06 3.60802e-05)
(1.19992 3.67905e-06 2.10652e-05)
(1.19994 3.82665e-06 2.44739e-05)
(1.19966 8.19676e-05 5.02001e-05)
(1.19981 6.5655e-05 5.55818e-05)
(1.19977 9.34036e-05 4.44459e-05)
(1.19966 7.8798e-05 5.09394e-05)
(1.19981 8.18235e-05 5.36874e-05)
(1.1994 0.000143148 2.58733e-05)
(1.19968 0.000135938 2.64132e-05)
(1.19965 0.000147333 2.61506e-05)
(1.19941 0.000137929 2.64163e-05)
(1.19962 0.000141761 3.00003e-05)
(1.19952 0.000207278 2.5871e-05)
(1.19959 0.000194904 2.61339e-05)
(1.19956 0.000214566 2.62939e-05)
(1.19953 0.000199865 2.63511e-05)
(1.19979 0.000204965 3.23741e-05)
(1.19946 0.000305896 2.71651e-05)
(1.19949 0.000286691 2.68952e-05)
(1.19947 0.000316285 2.82514e-05)
(1.19949 0.000293997 2.76349e-05)
(1.1998 0.000301386 3.83506e-05)
(1.19935 0.000460702 3.27319e-05)
(1.19938 0.00043035 3.24876e-05)
(1.19935 0.000478119 3.38804e-05)
(1.19939 0.000443015 3.29017e-05)
(1.19975 0.000453262 5.08494e-05)
(1.19919 0.000706523 4.42993e-05)
(1.19924 0.000658449 4.22219e-05)
(1.1992 0.000734546 4.55939e-05)
(1.19926 0.000678799 4.34218e-05)
(1.19966 0.000693128 7.17065e-05)
(1.19898 0.00109483 6.11318e-05)
(1.19907 0.00101903 5.75098e-05)
(1.19901 0.00113712 6.32249e-05)
(1.1991 0.00104934 5.93624e-05)
(1.19956 0.00107236 0.000102738)
(1.1987 0.00170182 9.1258e-05)
(1.19883 0.00158021 8.42967e-05)
(1.19876 0.00176463 9.45047e-05)
(1.19889 0.00162562 8.68204e-05)
(1.19942 0.00166107 0.000153838)
(1.19828 0.00264497 0.000144466)
(1.19849 0.00245369 0.000132846)
(1.19839 0.00273672 0.000147735)
(1.19859 0.00251952 0.000135198)
(1.19924 0.00257469 0.000238057)
(1.19768 0.00409509 0.000231236)
(1.19801 0.00379306 0.000208914)
(1.19786 0.0042292 0.00023772)
(1.19818 0.00388871 0.000213221)
(1.19903 0.00397399 0.000371643)
(1.19667 0.00636035 0.000425159)
(1.19723 0.00588591 0.000367245)
(1.19693 0.00659637 0.000436957)
(1.19751 0.00604913 0.00037195)
(1.19871 0.00614074 0.000629316)
(1.19417 0.0104212 0.0010817)
(1.19548 0.00958514 0.000841896)
(1.19469 0.0110736 0.0010933)
(1.19603 0.00997643 0.000837767)
(1.19793 0.00988567 0.00129169)
(1.18659 0.0219298 0.00363258)
(1.19098 0.0191837 0.00251391)
(1.18958 0.0242481 0.00324435)
(1.19625 0.0193922 0.00333157)
(1.19325 0.0200923 0.00234576)
(1.19182 0.0797203 0.008524)
(1.1994 0.0544075 0.00469932)
(1.22495 0.0724756 0.002908)
(1.2155 0.0542245 0.00475701)
(1.21134 0.0474691 0.00367316)
(1.19992 2.46636e-06 2.11758e-05)
(1.19998 3.49961e-06 3.64893e-05)
(1.19992 1.24975e-06 2.12444e-05)
(1.19994 1.61507e-06 2.46094e-05)
(1.19967 6.07532e-05 5.26658e-05)
(1.19982 4.28312e-05 5.77332e-05)
(1.19977 6.51638e-05 4.67064e-05)
(1.19967 5.2488e-05 5.31009e-05)
(1.19982 5.53856e-05 5.48657e-05)
(1.19943 0.000111593 2.75937e-05)
(1.1997 0.000101361 2.81107e-05)
(1.19969 0.000110217 2.76234e-05)
(1.19944 9.98079e-05 2.77995e-05)
(1.19966 0.000105714 3.02359e-05)
(1.19957 0.000162924 2.70973e-05)
(1.19964 0.000147472 2.71009e-05)
(1.19963 0.000162788 2.72224e-05)
(1.19959 0.000146215 2.70613e-05)
(1.19986 0.000154836 3.18506e-05)
(1.19956 0.000239391 2.90772e-05)
(1.19958 0.000217149 2.88431e-05)
(1.19957 0.000240799 2.97786e-05)
(1.19958 0.000216129 2.94273e-05)
(1.19991 0.000228732 3.88177e-05)
(1.19951 0.000361412 3.28554e-05)
(1.19953 0.000327855 3.20182e-05)
(1.19952 0.000363029 3.34157e-05)
(1.19954 0.000325665 3.25068e-05)
(1.19992 0.000344053 4.85191e-05)
(1.19945 0.000550611 4.08176e-05)
(1.19949 0.00049743 3.92618e-05)
(1.19948 0.000553613 4.18357e-05)
(1.19951 0.00049537 4.01478e-05)
(1.19994 0.000523312 6.43257e-05)
(1.19941 0.000845113 5.50859e-05)
(1.19946 0.000762928 5.24871e-05)
(1.19946 0.000849577 5.64928e-05)
(1.1995 0.000758918 5.37973e-05)
(1.19999 0.000802116 9.00083e-05)
(1.19939 0.00130346 7.5872e-05)
(1.19946 0.0011753 7.13917e-05)
(1.19947 0.00130922 7.74962e-05)
(1.19953 0.00116886 7.27482e-05)
(1.20009 0.00123446 0.000127653)
(1.19941 0.00200437 0.000109555)
(1.19951 0.00180602 0.000101217)
(1.19954 0.00200972 0.000111185)
(1.19963 0.00179347 0.000102704)
(1.20028 0.00189292 0.000182597)
(1.1995 0.00307526 0.000164142)
(1.19966 0.00276819 0.000149383)
(1.19972 0.00308158 0.000164707)
(1.19986 0.00274659 0.000149938)
(1.20064 0.00289618 0.000265251)
(1.19974 0.0047539 0.000245893)
(1.2 0.00426375 0.00021858)
(1.20014 0.00475973 0.00023993)
(1.20034 0.00422268 0.000213991)
(1.20131 0.0044514 0.000381046)
(1.20048 0.00753904 0.000382891)
(1.20086 0.00667451 0.000319537)
(1.20128 0.00748464 0.000352458)
(1.20151 0.00655131 0.00030005)
(1.20271 0.00693704 0.000540659)
(1.20351 0.0120505 0.000599661)
(1.20367 0.0103894 0.00045226)
(1.20503 0.0113693 0.000466027)
(1.2049 0.00988657 0.000385848)
(1.20635 0.0105935 0.000700565)
(1.21509 0.0141181 0.00045948)
(1.21175 0.0120423 0.000299148)
(1.2148 0.0103574 0.000156332)
(1.21498 0.0111889 0.000374964)
(1.2139 0.010478 0.000200537)
(1.19992 -1.34894e-06 2.14283e-05)
(1.19998 -1.23778e-05 3.69422e-05)
(1.19992 -3.83806e-06 2.15147e-05)
(1.19993 -6.53623e-06 2.48338e-05)
(1.19967 1.95377e-05 5.40496e-05)
(1.19982 -8.37557e-06 5.89451e-05)
(1.19978 7.0366e-06 4.79072e-05)
(1.19968 7.13327e-06 5.42032e-05)
(1.19983 -6.66964e-07 5.57502e-05)
(1.19945 5.80292e-05 2.80344e-05)
(1.19972 3.82324e-05 2.86221e-05)
(1.19971 4.51043e-05 2.77865e-05)
(1.19946 4.25454e-05 2.79841e-05)
(1.19968 4.15792e-05 2.98551e-05)
(1.19962 8.79129e-05 2.69812e-05)
(1.19967 6.72825e-05 2.69811e-05)
(1.19967 7.53757e-05 2.71108e-05)
(1.19962 6.65691e-05 2.68891e-05)
(1.1999 7.10871e-05 3.09552e-05)
(1.19963 0.000131999 2.98461e-05)
(1.19965 0.000106441 2.93417e-05)
(1.19964 0.000119391 2.99696e-05)
(1.19964 0.000100197 2.97733e-05)
(1.19998 0.000112648 3.80813e-05)
(1.19962 0.000196899 3.28108e-05)
(1.19963 0.00016357 3.20155e-05)
(1.19963 0.000181759 3.38242e-05)
(1.19964 0.000149722 3.29137e-05)
(1.20003 0.000172278 4.72548e-05)
(1.19964 0.000300538 3.92077e-05)
(1.19965 0.000251162 3.84983e-05)
(1.19966 0.000279297 4.03926e-05)
(1.19967 0.000228078 3.92146e-05)
(1.20012 0.000264734 6.06161e-05)
(1.1997 0.000458905 5.07556e-05)
(1.19971 0.000384562 4.90435e-05)
(1.19973 0.000428631 5.17398e-05)
(1.19974 0.000348156 5.00123e-05)
(1.20026 0.000404474 8.19118e-05)
(1.19984 0.00070252 6.5697e-05)
(1.19986 0.000590796 6.26269e-05)
(1.19991 0.000657477 6.71583e-05)
(1.19991 0.000532774 6.40435e-05)
(1.2005 0.00062008 0.000110686)
(1.20013 0.00107438 8.77556e-05)
(1.20014 0.000904577 8.29179e-05)
(1.20024 0.00100552 8.91194e-05)
(1.20024 0.000813956 8.43669e-05)
(1.20091 0.000947732 0.00014933)
(1.20066 0.00163496 0.000117445)
(1.20067 0.00137657 0.000109884)
(1.20085 0.00152691 0.000116949)
(1.20083 0.00123587 0.000110355)
(1.20162 0.00143802 0.000198601)
(1.20162 0.00246637 0.000146509)
(1.20161 0.00207255 0.000135863)
(1.20195 0.00228838 0.000141001)
(1.20189 0.00185452 0.000132809)
(1.2028 0.00215672 0.000248027)
(1.20342 0.00360217 0.000160891)
(1.20334 0.00302034 0.000147548)
(1.20395 0.00327599 0.000144976)
(1.20377 0.0026689 0.00013726)
(1.2048 0.00311553 0.000276934)
(1.20671 0.00461154 0.000125431)
(1.20635 0.0038972 0.000114861)
(1.20732 0.00396737 9.56849e-05)
(1.2069 0.00333634 9.55292e-05)
(1.20802 0.00391867 0.000234726)
(1.21159 0.00363341 1.43495e-05)
(1.21028 0.0031209 1.29175e-05)
(1.21115 0.00233898 -1.08247e-05)
(1.21087 0.00261776 5.5742e-07)
(1.21172 0.00278247 9.21661e-05)
(1.19995 3.75644e-06 6.35567e-06)
(1.19995 3.8748e-06 5.08088e-06)
(1.2 8.41549e-06 9.29892e-06)
(1.19995 3.6414e-06 5.04666e-06)
(1.19995 3.72216e-06 7.56788e-06)
(1.19988 8.12868e-05 6.16763e-05)
(1.19988 8.18734e-05 5.72638e-05)
(1.20001 6.55387e-05 4.90389e-05)
(1.2 9.30181e-05 6.12723e-05)
(1.19988 7.85311e-05 5.66932e-05)
(1.19988 8.07014e-05 6.75879e-05)
(1.19972 0.000140065 6.00579e-05)
(1.19972 0.000141272 6.29402e-05)
(1.19998 0.000134412 6.31794e-05)
(1.19998 0.000145226 6.27635e-05)
(1.19973 0.000136073 6.19122e-05)
(1.19972 0.000139033 7.29063e-05)
(1.1999 0.00020259 6.98758e-05)
(1.19989 0.000204696 7.5036e-05)
(1.19996 0.000192304 7.1694e-05)
(1.19995 0.000211589 7.72056e-05)
(1.19991 0.000197171 7.33818e-05)
(1.1999 0.000200934 8.56137e-05)
(1.19991 0.000298312 9.66393e-05)
(1.1999 0.000302169 0.000105645)
(1.19992 0.000283079 9.99127e-05)
(1.19991 0.000312557 0.000109472)
(1.19993 0.000290389 0.000103285)
(1.19992 0.000295946 0.00011826)
(1.19987 0.000447232 0.000139166)
(1.19985 0.000453106 0.000153905)
(1.19988 0.000423569 0.000144963)
(1.19987 0.000469577 0.000159698)
(1.1999 0.000435367 0.000150068)
(1.19988 0.000443385 0.000170143)
(1.19981 0.000680555 0.000205828)
(1.19978 0.000689397 0.000229417)
(1.19983 0.000643021 0.000215028)
(1.19981 0.000715606 0.000237735)
(1.19985 0.000661857 0.000222345)
(1.19983 0.000673468 0.000251496)
(1.19972 0.00104852 0.00030658)
(1.19968 0.00106195 0.000344396)
(1.19975 0.000988942 0.000321491)
(1.19973 0.00110201 0.00035536)
(1.1998 0.00101776 0.000331035)
(1.19976 0.00103512 0.000374852)
(1.19961 0.00161832 0.000457473)
(1.19954 0.00164033 0.000516683)
(1.19965 0.00152517 0.000480217)
(1.19962 0.00169941 0.000530971)
(1.19973 0.00156759 0.000492591)
(1.19967 0.00159418 0.000559461)
(1.19949 0.00249263 0.000684485)
(1.19938 0.00252808 0.000776052)
(1.19954 0.00234721 0.000717114)
(1.19951 0.00261181 0.000792992)
(1.19967 0.00240713 0.000731282)
(1.19957 0.00244779 0.000834277)
(1.19937 0.00381484 0.00103177)
(1.19921 0.0038676 0.00117408)
(1.19944 0.00358858 0.00107575)
(1.19942 0.00398542 0.00119229)
(1.19964 0.003673 0.00108991)
(1.1995 0.00373057 0.00124968)
(1.19925 0.00580083 0.00158042)
(1.19901 0.00585643 0.00179742)
(1.19935 0.00544717 0.00162874)
(1.19931 0.00604772 0.00180829)
(1.19965 0.00558331 0.00163524)
(1.19945 0.00563848 0.00189303)
(1.19894 0.00898795 0.0024803)
(1.19842 0.0089861 0.00275458)
(1.19907 0.008404 0.0024634)
(1.1989 0.00948967 0.0027196)
(1.19958 0.00872684 0.00243267)
(1.19922 0.00866583 0.00291232)
(1.19638 0.0160644 0.00403367)
(1.19827 0.0162059 0.00392117)
(1.19819 0.0149059 0.00353723)
(1.19806 0.0181667 0.0037674)
(1.19853 0.0155436 0.00427405)
(1.19987 0.0158453 0.00337101)
(1.20115 0.051363 0.00418507)
(1.21165 0.0422224 0.00419653)
(1.20543 0.0381061 0.00360265)
(1.2205 0.0513781 0.00294658)
(1.21094 0.0411751 0.00398522)
(1.21494 0.0353434 0.00315207)
(1.19995 1.60851e-06 6.21731e-06)
(1.19995 2.45861e-06 4.95156e-06)
(1.2 3.60527e-06 9.00766e-06)
(1.19994 1.29518e-06 4.9411e-06)
(1.19995 1.59853e-06 7.49477e-06)
(1.19989 5.54718e-05 6.04443e-05)
(1.19989 6.09419e-05 5.52987e-05)
(1.20001 4.32375e-05 4.74798e-05)
(1.20002 6.53037e-05 5.90873e-05)
(1.19989 5.28007e-05 5.51437e-05)
(1.19989 5.51973e-05 6.61799e-05)
(1.19975 0.000104202 5.67047e-05)
(1.19975 0.000109725 5.88053e-05)
(1.20001 9.95916e-05 5.91853e-05)
(1.20001 0.000108387 5.85584e-05)
(1.19976 9.79242e-05 5.78106e-05)
(1.19975 0.000103218 6.90588e-05)
(1.19996 0.000152959 6.55358e-05)
(1.19996 0.000160311 6.93425e-05)
(1.20002 0.000145231 6.66339e-05)
(1.20002 0.000159996 7.14085e-05)
(1.19997 0.000143771 6.83501e-05)
(1.19997 0.000151965 8.01509e-05)
(1.20002 0.000226087 8.95667e-05)
(1.20001 0.000236321 9.68906e-05)
(1.20003 0.000214429 9.17539e-05)
(1.20003 0.00023691 0.000100572)
(1.20003 0.000212802 9.50834e-05)
(1.20003 0.000224277 0.000109411)
(1.20004 0.000338786 0.000127511)
(1.20003 0.00035423 0.000140059)
(1.20004 0.000320922 0.000132433)
(1.20005 0.000355708 0.000145275)
(1.20006 0.000318882 0.000137147)
(1.20005 0.000335869 0.000155671)
(1.20007 0.000514134 0.000183273)
(1.20005 0.00053743 0.000203489)
(1.20008 0.000486222 0.000191897)
(1.20009 0.000540116 0.000210313)
(1.20011 0.000483647 0.000198245)
(1.20009 0.000508879 0.00022419)
(1.20014 0.00078501 0.00026415)
(1.20011 0.000820746 0.000295468)
(1.20014 0.00074127 0.000277401)
(1.20016 0.000824294 0.000304316)
(1.20019 0.000737008 0.00028564)
(1.20017 0.000775164 0.000323096)
(1.20026 0.00120241 0.000380346)
(1.20021 0.00125691 0.000428304)
(1.20026 0.00113426 0.00040054)
(1.2003 0.00126084 0.000438551)
(1.20034 0.00112667 0.000410252)
(1.2003 0.00118433 0.000464725)
(1.20048 0.00183269 0.000541067)
(1.2004 0.00191527 0.000613533)
(1.20047 0.00172779 0.00057149)
(1.20055 0.00191846 0.000623111)
(1.2006 0.00171412 0.000580815)
(1.20054 0.00179994 0.000661159)
(1.20088 0.00278452 0.000763205)
(1.20075 0.00290794 0.000870587)
(1.20085 0.00262227 0.000804952)
(1.20099 0.00290912 0.000875385)
(1.20106 0.00259815 0.000810856)
(1.20096 0.00272475 0.000929372)
(1.2016 0.00423363 0.00106128)
(1.20139 0.00442037 0.00122037)
(1.20153 0.00397707 0.00111748)
(1.20178 0.00441851 0.00120758)
(1.20187 0.00393415 0.00111013)
(1.2017 0.00412333 0.00128419)
(1.20305 0.0064947 0.00141735)
(1.20267 0.00682584 0.00164449)
(1.20284 0.00608679 0.00149069)
(1.20337 0.0067787 0.00158057)
(1.20342 0.00597642 0.0014462)
(1.20315 0.00629632 0.00170035)
(1.20654 0.00972777 0.00167174)
(1.20611 0.0105307 0.00195299)
(1.20594 0.00921531 0.00176235)
(1.20723 0.0100209 0.00176267)
(1.20698 0.00883232 0.00164096)
(1.20655 0.00941575 0.00198129)
(1.21662 0.0123845 0.00157196)
(1.21444 0.0101117 0.00126717)
(1.21311 0.0105071 0.00144258)
(1.21568 0.00904504 0.00120979)
(1.2142 0.00979753 0.00152872)
(1.21509 0.00937165 0.00125844)
(1.19994 -6.40974e-06 6.15473e-06)
(1.19994 -1.22526e-06 4.87641e-06)
(1.2 -1.21566e-05 8.75506e-06)
(1.19994 -3.80824e-06 4.90836e-06)
(1.19994 -6.37831e-06 7.36644e-06)
(1.1999 -4.74675e-07 5.98585e-05)
(1.1999 1.99375e-05 5.44007e-05)
(1.20002 -8.09923e-06 4.66735e-05)
(1.20003 7.27009e-06 5.78217e-05)
(1.19991 7.36185e-06 5.42386e-05)
(1.1999 -5.77615e-07 6.52537e-05)
(1.19978 4.05955e-05 5.44101e-05)
(1.19978 5.68204e-05 5.57081e-05)
(1.20004 3.72471e-05 5.64655e-05)
(1.20004 4.35721e-05 5.60148e-05)
(1.19979 4.15322e-05 5.52903e-05)
(1.19978 4.01735e-05 6.63228e-05)
(1.20001 6.99161e-05 6.31975e-05)
(1.20001 8.6362e-05 6.61904e-05)
(1.20006 6.55605e-05 6.4108e-05)
(1.20006 7.37913e-05 6.822e-05)
(1.20001 6.52026e-05 6.55382e-05)
(1.20001 6.92634e-05 7.71583e-05)
(1.20009 0.000110442 8.45825e-05)
(1.20009 0.000129182 9.06776e-05)
(1.20009 0.000103951 8.63856e-05)
(1.2001 0.000116221 9.4456e-05)
(1.2001 9.79154e-05 8.95984e-05)
(1.20009 0.000109362 0.000103476)
(1.20015 0.000169755 0.000119799)
(1.20015 0.000193729 0.0001305)
(1.20015 0.000160358 0.000124089)
(1.20016 0.000178613 0.000135909)
(1.20016 0.000147029 0.000128992)
(1.20016 0.000168245 0.000146431)
(1.20024 0.00026045 0.000169088)
(1.20024 0.000294114 0.000186211)
(1.20024 0.000246153 0.000177041)
(1.20027 0.000273364 0.000192906)
(1.20026 0.000223545 0.000183398)
(1.20026 0.000257633 0.000206682)
(1.2004 0.00039624 0.000237577)
(1.20039 0.000445839 0.000263252)
(1.20039 0.000374323 0.000249717)
(1.20044 0.000415961 0.000272114)
(1.20043 0.000338334 0.000258379)
(1.20043 0.000391361 0.000290278)
(1.20066 0.000603838 0.000330737)
(1.20064 0.000677191 0.000369144)
(1.20064 0.000569933 0.000349761)
(1.20072 0.000633025 0.000379367)
(1.20071 0.000513313 0.000360141)
(1.20069 0.000594827 0.000404355)
(1.20109 0.00091823 0.000451052)
(1.20106 0.00102791 0.000506611)
(1.20105 0.000866124 0.0004794)
(1.20118 0.000960655 0.000516597)
(1.20115 0.000778689 0.000490322)
(1.20114 0.000901933 0.000551929)
(1.20181 0.00138431 0.000599847)
(1.20175 0.00154863 0.000677325)
(1.20172 0.00130564 0.000639382)
(1.20195 0.00144423 0.000683396)
(1.20189 0.00117083 0.000648329)
(1.20186 0.0013553 0.000732335)
(1.20299 0.00206012 0.000763223)
(1.20289 0.00230851 0.000869778)
(1.20284 0.00194372 0.00081877)
(1.20321 0.00213982 0.00086258)
(1.20311 0.00173742 0.000819087)
(1.20304 0.00200942 0.000929868)
(1.20495 0.00295283 0.000895778)
(1.20482 0.00333148 0.00103454)
(1.20468 0.00280101 0.000973175)
(1.2053 0.00303065 0.000997236)
(1.20507 0.00247424 0.000951912)
(1.20499 0.00287019 0.00108785)
(1.20806 0.00368883 0.000893695)
(1.20803 0.00422279 0.00105134)
(1.20762 0.00358506 0.000997607)
(1.20851 0.00364237 0.000963971)
(1.2081 0.00307703 0.000939598)
(1.20803 0.00357713 0.00108043)
(1.21159 0.00256983 0.000612126)
(1.21244 0.00334383 0.000747833)
(1.21115 0.00283067 0.00073479)
(1.21189 0.00209467 0.000618616)
(1.21166 0.00241444 0.000649001)
(1.21147 0.00247102 0.000743889)
(1.19995 3.65436e-06 7.09578e-06)
(1.19995 3.77792e-06 7.30338e-06)
(1.2 8.22232e-06 1.33851e-05)
(1.19995 3.56818e-06 7.27681e-06)
(1.19995 3.62897e-06 7.48543e-06)
(1.19987 7.90935e-05 8.44618e-05)
(1.19987 8.00444e-05 8.62692e-05)
(1.2 6.40455e-05 7.30488e-05)
(1.2 9.10397e-05 9.39963e-05)
(1.19988 7.67686e-05 8.56863e-05)
(1.19988 7.83391e-05 8.88965e-05)
(1.19973 0.000136306 0.000102758)
(1.19973 0.000137997 0.000107116)
(1.2 0.0001314 0.000106194)
(1.19999 0.000141401 0.000108375)
(1.19974 0.000132613 0.000105986)
(1.19974 0.00013519 0.000110217)
(1.19993 0.00019499 0.000125667)
(1.19992 0.000196944 0.00013229)
(1.19999 0.000185221 0.000126974)
(1.19998 0.000203375 0.000135968)
(1.19994 0.000189754 0.000129949)
(1.19994 0.000192645 0.000135893)
(1.19996 0.000286473 0.000172843)
(1.19995 0.000289515 0.000182299)
(1.19997 0.000271308 0.000172823)
(1.19997 0.000299424 0.000188682)
(1.19998 0.000278342 0.00017843)
(1.19998 0.000282597 0.000186801)
(1.19995 0.000427683 0.000249075)
(1.19994 0.000431731 0.000263334)
(1.19996 0.00040417 0.000248262)
(1.19996 0.000447123 0.000272953)
(1.19998 0.000415109 0.000256697)
(1.19997 0.000421034 0.000269288)
(1.19993 0.000644788 0.000366926)
(1.19991 0.000650459 0.000388665)
(1.19995 0.000607754 0.000364792)
(1.19995 0.00067417 0.000402517)
(1.19998 0.000624735 0.000376948)
(1.19997 0.00063305 0.000396154)
(1.19991 0.000981041 0.000545437)
(1.19988 0.000988881 0.00057975)
(1.19994 0.000922236 0.00054174)
(1.19994 0.00102407 0.000598299)
(1.19999 0.00094741 0.000557882)
(1.19997 0.000959134 0.00058852)
(1.19989 0.00149519 0.000811583)
(1.19985 0.00150614 0.000865692)
(1.19994 0.00140249 0.000805614)
(1.19994 0.00155729 0.000888917)
(1.20002 0.00143902 0.000825893)
(1.19999 0.00145533 0.000874329)
(1.19992 0.00226771 0.00119983)
(1.19986 0.00228346 0.00128454)
(1.19997 0.00212443 0.00119045)
(1.19999 0.0023529 0.00131156)
(1.2001 0.00217374 0.00121335)
(1.20005 0.00219641 0.00128896)
(1.20001 0.00340239 0.00176702)
(1.19993 0.00342101 0.00189921)
(1.20009 0.00318257 0.00175074)
(1.20013 0.00351334 0.00192652)
(1.20028 0.00324846 0.00177271)
(1.20021 0.00327572 0.00189126)
(1.2002 0.00503115 0.00259162)
(1.20008 0.00502844 0.0027957)
(1.20031 0.00469732 0.00256162)
(1.20037 0.00516751 0.00281225)
(1.20059 0.00479692 0.00257242)
(1.20048 0.0048076 0.00275692)
(1.20025 0.00750257 0.00371693)
(1.2 0.00735334 0.00403524)
(1.20045 0.00694515 0.00367995)
(1.20038 0.00775049 0.00399798)
(1.20087 0.00720025 0.00364367)
(1.20061 0.00711045 0.00394287)
(1.19785 0.0127383 0.0052813)
(1.19923 0.0133901 0.00481206)
(1.19951 0.0119975 0.00486642)
(1.19896 0.014797 0.00503349)
(1.19943 0.0127724 0.00523347)
(1.20084 0.0129032 0.00466553)
(1.19795 0.0475408 0.00442665)
(1.20882 0.0387521 0.00412387)
(1.20321 0.0340763 0.00453668)
(1.21694 0.0478634 0.00389808)
(1.20814 0.0381818 0.00493265)
(1.2123 0.0319346 0.00384723)
(1.19995 1.58552e-06 6.96426e-06)
(1.19995 2.39244e-06 7.17696e-06)
(1.2 3.58972e-06 1.30198e-05)
(1.19995 1.25146e-06 7.16112e-06)
(1.19995 1.56897e-06 7.35245e-06)
(1.19988 5.43512e-05 8.21851e-05)
(1.19988 5.97383e-05 8.36769e-05)
(1.20001 4.24435e-05 7.07504e-05)
(1.20001 6.39073e-05 9.10392e-05)
(1.19989 5.16996e-05 8.30939e-05)
(1.19988 5.38439e-05 8.6264e-05)
(1.19976 0.000100252 9.86026e-05)
(1.19976 0.000105934 0.000102791)
(1.20002 9.60168e-05 0.000102221)
(1.20003 0.000104591 0.00010365)
(1.19977 9.43219e-05 0.000101797)
(1.19977 9.92485e-05 0.000106069)
(1.19999 0.000148019 0.000117834)
(1.19999 0.000154882 0.000123831)
(1.20004 0.000140491 0.000119323)
(1.20005 0.000154512 0.000127311)
(1.2 0.000139071 0.000122211)
(1.2 0.000146397 0.000127643)
(1.20006 0.000217336 0.000159899)
(1.20006 0.000226815 0.000168286)
(1.20007 0.000205912 0.000160148)
(1.20008 0.000227142 0.000174186)
(1.20008 0.000204109 0.000165456)
(1.20008 0.000214501 0.000172813)
(1.20011 0.000324094 0.000226569)
(1.2001 0.000337797 0.000238851)
(1.20011 0.000306282 0.000226078)
(1.20013 0.000338895 0.000247531)
(1.20014 0.000304223 0.000233877)
(1.20013 0.000319113 0.00024449)
(1.20018 0.000487273 0.000327138)
(1.20017 0.000507331 0.000345758)
(1.20018 0.000459614 0.000326193)
(1.20021 0.000508916 0.000357361)
(1.20022 0.000456442 0.000336894)
(1.20021 0.000478397 0.000353107)
(1.20029 0.000734878 0.000470394)
(1.20027 0.000764276 0.000499168)
(1.20029 0.000691477 0.00046918)
(1.20033 0.00076639 0.000513856)
(1.20035 0.000686494 0.000482737)
(1.20034 0.000718427 0.000507763)
(1.20047 0.00111006 0.000675373)
(1.20045 0.00115306 0.00071963)
(1.20048 0.00104254 0.00067382)
(1.20054 0.00115422 0.000736402)
(1.20056 0.00103359 0.000689799)
(1.20054 0.0010802 0.000728344)
(1.20078 0.00166747 0.000956872)
(1.20074 0.00172949 0.00102427)
(1.20078 0.00156338 0.000955588)
(1.20088 0.00172824 0.00104045)
(1.20091 0.00154793 0.000971546)
(1.20088 0.0016147 0.00103016)
(1.20128 0.00248586 0.00133363)
(1.20121 0.00257256 0.00143673)
(1.20127 0.00232618 0.00133339)
(1.20143 0.00256594 0.00144485)
(1.20147 0.00229906 0.00134308)
(1.20141 0.00239216 0.00143278)
(1.2021 0.00369261 0.00181728)
(1.20198 0.00381195 0.00197551)
(1.20205 0.00344276 0.00182069)
(1.20232 0.00380002 0.00195718)
(1.20236 0.00339754 0.00180994)
(1.20226 0.00352695 0.00194702)
(1.20354 0.00553923 0.00235042)
(1.20328 0.00573512 0.00259304)
(1.20338 0.00513862 0.00237408)
(1.20387 0.00569414 0.00250251)
(1.20388 0.00504182 0.00230865)
(1.20369 0.00525469 0.00251935)
(1.20656 0.00825432 0.00264933)
(1.20624 0.00876853 0.00299369)
(1.20607 0.00769174 0.00274916)
(1.20714 0.00837837 0.0027461)
(1.20698 0.00740435 0.00256439)
(1.20658 0.00782474 0.00287003)
(1.21523 0.010714 0.00226737)
(1.21333 0.00874166 0.00205883)
(1.2121 0.00891048 0.00230897)
(1.21439 0.00768943 0.00199687)
(1.21301 0.0083749 0.00231184)
(1.21395 0.00800597 0.00189943)
(1.19994 -6.25981e-06 6.83866e-06)
(1.19994 -1.12791e-06 7.09435e-06)
(1.2 -1.19944e-05 1.28632e-05)
(1.19995 -3.92916e-06 7.11824e-06)
(1.19995 -6.23706e-06 7.26555e-06)
(1.19989 -1.10309e-06 8.02563e-05)
(1.1999 1.93904e-05 8.14998e-05)
(1.20002 -8.48676e-06 6.89555e-05)
(1.20003 6.31906e-06 8.86285e-05)
(1.19991 6.9556e-06 8.10649e-05)
(1.1999 -1.33582e-06 8.40509e-05)
(1.19979 3.84559e-05 9.52895e-05)
(1.19979 5.44239e-05 9.91637e-05)
(1.20005 3.50462e-05 9.89656e-05)
(1.20005 4.13024e-05 0.000100082)
(1.1998 3.98041e-05 9.84429e-05)
(1.19979 3.7719e-05 0.000102725)
(1.20003 6.68312e-05 0.000113241)
(1.20003 8.32267e-05 0.000118498)
(1.20008 6.25773e-05 0.000114716)
(1.20009 7.04844e-05 0.000122192)
(1.20004 6.26959e-05 0.000117592)
(1.20004 6.59252e-05 0.000122697)
(1.20013 0.00010537 0.000151725)
(1.20013 0.000123756 0.000159023)
(1.20013 9.90491e-05 0.000152271)
(1.20015 0.000110694 0.00016519)
(1.20014 9.38744e-05 0.000157411)
(1.20014 0.000103756 0.000164196)
(1.20021 0.000162424 0.000213005)
(1.20021 0.000185567 0.000223096)
(1.20021 0.000153149 0.000212828)
(1.20023 0.000170159 0.000231934)
(1.20023 0.000140971 0.000220658)
(1.20023 0.000159982 0.000229613)
(1.20034 0.000246118 0.000300631)
(1.20034 0.000277249 0.000316035)
(1.20033 0.000231936 0.000300515)
(1.20037 0.000256957 0.000327444)
(1.20036 0.000210529 0.000311233)
(1.20037 0.000241309 0.000324456)
(1.20053 0.000370941 0.000422432)
(1.20053 0.000415292 0.000445107)
(1.20052 0.000349096 0.000422568)
(1.20058 0.000386605 0.000459735)
(1.20057 0.000315192 0.000436772)
(1.20057 0.000362597 0.000455904)
(1.20084 0.000557785 0.000588242)
(1.20083 0.000621743 0.000621673)
(1.20082 0.000524007 0.000589303)
(1.20091 0.00057978 0.00063879)
(1.20089 0.000471379 0.000606593)
(1.20089 0.000542695 0.000634719)
(1.20132 0.000835185 0.000802256)
(1.2013 0.000928087 0.000851014)
(1.20128 0.000783333 0.000805932)
(1.20143 0.000864947 0.000867638)
(1.20139 0.000702899 0.000824295)
(1.20139 0.00080846 0.000864939)
(1.20207 0.00123728 0.00106002)
(1.20204 0.00137186 0.00113034)
(1.202 0.00115889 0.00106886)
(1.20224 0.00127533 0.00114033)
(1.20217 0.00103765 0.00108349)
(1.20216 0.00119043 0.00114173)
(1.20325 0.00180574 0.00133878)
(1.2032 0.00200109 0.00143869)
(1.20312 0.0016893 0.00135806)
(1.20349 0.00185012 0.0014276)
(1.20337 0.00150744 0.0013585)
(1.20334 0.00172555 0.00143997)
(1.20511 0.0025441 0.0015568)
(1.20501 0.00283323 0.00169299)
(1.20486 0.0023883 0.00159919)
(1.20543 0.00257451 0.00163428)
(1.20522 0.00210755 0.00156494)
(1.20516 0.00241606 0.00167425)
(1.2079 0.00314698 0.00153411)
(1.20787 0.00355409 0.00169442)
(1.2075 0.00302228 0.00161969)
(1.20828 0.0030635 0.00156117)
(1.20792 0.00259766 0.001525)
(1.20785 0.00297761 0.0016532)
(1.21101 0.00213274 0.00105981)
(1.21173 0.00281033 0.00114217)
(1.21057 0.00233927 0.00119259)
(1.21123 0.00169249 0.00100819)
(1.21104 0.00201987 0.00101961)
(1.21082 0.00201046 0.00114971)
(1.16735 0.0774197 0.0113661)
(1.12191 0.0873581 0.0173515)
(1.15999 0.100063 0.0116547)
(1.19094 0.0811484 0.0152467)
(0.872867 -0.0886628 -0.0137067)
(0.989362 -0.0911496 -0.00295786)
(0.932373 -0.127456 -0.0124465)
(1.25735 -0.0817544 -0.0166331)
(1.19126 0.0608576 0.0070197)
(1.19175 0.0485851 0.00937875)
(1.20173 0.0505715 0.00746153)
(1.19129 0.0647213 0.00900006)
(1.16071 0.0513096 0.0110301)
(1.19399 0.0760579 0.00908894)
(1.32839 -0.0535333 0.00138317)
(1.31275 -0.0285891 -0.00492563)
(1.32831 -0.0543792 0.00155141)
(1.35806 -0.0381696 -0.00482722)
(1.32991 -0.0319232 -0.00427602)
(1.19116 0.0494887 0.00511641)
(1.16027 0.0528847 0.0052006)
(1.19353 0.0771159 0.00452575)
(1.19076 0.0596628 0.00568012)
(1.31276 -0.0276277 0.00591406)
(1.35892 -0.0367347 0.00629671)
(1.33032 -0.0302012 0.00822936)
(1.32802 -0.0526486 0.00120143)
(1.18803 0.0573866 0.00457743)
(1.18964 0.0453073 0.0051848)
(1.19887 0.0474952 0.00450045)
(1.18901 0.0579926 0.00447042)
(1.15701 0.0482969 0.00503951)
(1.18997 0.0739821 0.00417757)
(1.32265 -0.0528863 -0.000363177)
(1.30818 -0.027646 -0.00524157)
(1.32332 -0.0527185 -0.000126555)
(1.35334 -0.0362428 -0.00571511)
(1.3246 -0.0303807 -0.00664569)
(1.18865 0.0453412 0.00494787)
(1.15579 0.0489092 0.00468844)
(1.18873 0.0742793 0.00391291)
(1.18696 0.0570842 0.00551337)
(1.30743 -0.0275538 0.00566661)
(1.35256 -0.0361456 0.00562023)
(1.32358 -0.0303354 0.00673581)
(1.32182 -0.0530604 -0.000573747)
(1.18471 0.0199856 0.00379384)
(1.17853 0.0221337 0.00539764)
(1.18018 0.0259369 0.00522091)
(1.19119 0.0197253 0.00503877)
(1.18022 0.0541005 0.00754966)
(1.15119 0.0640536 0.0138711)
(1.18523 0.0507926 0.0118349)
(1.1692 0.0505758 0.00918976)
(1.19485 0.0156418 0.00491193)
(1.19561 0.01438 0.00540516)
(1.19674 0.0159118 0.00520008)
(1.19374 0.0171178 0.00495688)
(1.19352 0.014598 0.00666825)
(1.19442 0.0173759 0.00644293)
(1.19253 0.0372092 0.00690685)
(1.19789 0.0347064 0.00746775)
(1.19187 0.0404789 0.00822986)
(1.18147 0.0335653 0.0107382)
(1.19165 0.0310256 0.0086705)
(0.667668 0.0408924 0.0539414)
(0.774408 0.0200649 0.0488876)
(0.650751 0.0121109 0.0919127)
(1.00941 0.0411466 0.116227)
(0.637503 0.00792461 0.0666636)
(1.15703 0.0290115 0.0323936)
(1.14657 -0.00920758 0.0327275)
(1.18935 -0.0625533 0.0693358)
(1.13837 -0.0343621 0.0242253)
(1.17811 -0.0212115 0.0392739)
(1.14454 -0.0732327 0.0257158)
(1.16504 -0.00218944 0.0382713)
(1.21952 -0.0310549 0.0842298)
(1.28337 0.0493796 0.0887032)
(1.2855 -0.00770111 0.0875099)
(1.18441 0.0165856 0.0766636)
(0.87266 -0.0665833 -0.00316812)
(1.54949 -0.00957641 -0.0113301)
(1.54091 0.0232106 -0.00557282)
(1.2885 0.0288142 -0.0033796)
(1.29276 0.010209 -0.00746929)
(1.27593 -0.00412624 -0.00306803)
(1.21446 0.0173137 0.000747646)
(1.2157 0.0213678 0.000864928)
(1.2204 0.0159969 0.000566082)
(1.21959 0.0166161 0.000883757)
(1.22609 0.000634133 -6.57759e-05)
(1.23331 0.0013798 -0.000380263)
(1.23075 0.00537147 7.58226e-05)
(1.23407 0.00196851 -4.52882e-05)
(1.20603 0.0374905 0.00554532)
(1.21269 0.0450062 0.00486436)
(1.22128 0.0507014 0.00468082)
(1.21548 0.0348066 0.00472157)
(1.28352 0.0145277 -0.000718705)
(1.31325 -0.0286941 0.00593583)
(1.31312 -0.000836263 -0.00140395)
(1.31332 -0.000549212 0.00499056)
(1.28582 0.0162052 -0.00112492)
(1.28391 0.0318882 0.00023627)
(1.27272 0.00428111 0.000204579)
(1.21908 0.0151777 0.0018265)
(1.21689 0.0151518 0.00206561)
(1.2169 0.0123811 0.00161967)
(1.21935 0.0157522 0.00180199)
(1.21776 0.018106 0.00219623)
(1.2222 0.0143732 0.00181207)
(1.23317 0.00290298 0.000667411)
(1.22718 0.00109057 0.000554973)
(1.23355 0.00277042 0.000883264)
(1.2344 0.0023356 0.000432687)
(1.23199 0.0060743 0.00101998)
(1.19523 0.0145015 0.00420075)
(1.19298 0.014899 0.00478589)
(1.1939 0.0176778 0.00459374)
(1.19528 0.0148899 0.0051753)
(1.1973 0.0353876 0.00453644)
(1.18068 0.0347751 0.00572813)
(1.19248 0.036038 0.00606946)
(1.19102 0.0317576 0.00518178)
(1.19635 0.0125679 0.00544746)
(1.19696 0.0118454 0.00531603)
(1.19774 0.0132653 0.00512335)
(1.19602 0.0132867 0.0052906)
(1.19493 0.0118463 0.00583956)
(1.19548 0.0144645 0.0056026)
(1.19123 0.0332547 0.00527675)
(1.19652 0.0313242 0.00508386)
(1.1917 0.0340531 0.00517983)