/*--------------------------------*- C++ -*----------------------------------*\
| =========                 |                                                 |
| \\      /  F ield         | OpenFOAM: The Open Source CFD Toolbox           |
|  \\    /   O peration     | Version:  2012                                  |
|   \\  /    A nd           | Website:  www.openfoam.com                      |
|    \\/     M anipulation  |                                                 |
\*---------------------------------------------------------------------------*/
FoamFile
{
    version     2.0;
    format      ascii;
    class       volScalarField::Internal;
    location    "0.105/fluid";
    object      V0;
}
// * * * * * * * * * * * * * * * * * * * * * * * * * * * * * * * * * * * * * //

dimensions      [0 3 0 0 0 0 0];


value           nonuniform List<scalar> 
16422
(
4.25466e-05
4.25442e-05
4.25387e-05
4.25377e-05
4.2536e-05
4.25302e-05
4.25254e-05
4.25233e-05
4.2521e-05
4.25225e-05
4.25257e-05
4.25299e-05
4.25297e-05
4.25008e-05
4.23988e-05
4.25515e-05
4.25486e-05
4.25445e-05
4.25413e-05
4.25361e-05
4.25337e-05
4.25294e-05
4.25281e-05
4.2527e-05
4.25279e-05
4.25309e-05
4.25325e-05
4.25313e-05
4.25237e-05
4.25246e-05
4.25544e-05
4.2552e-05
4.25475e-05
4.25425e-05
4.25374e-05
4.25351e-05
4.25327e-05
4.25326e-05
4.2532e-05
4.25331e-05
4.25362e-05
4.25402e-05
4.25447e-05
4.25518e-05
4.25659e-05
4.25458e-05
4.25444e-05
4.25387e-05
4.25369e-05
4.25342e-05
4.25294e-05
4.25239e-05
4.25218e-05
4.25209e-05
4.25225e-05
4.25243e-05
4.25295e-05
4.25324e-05
4.25122e-05
4.24366e-05
4.25511e-05
4.25486e-05
4.25436e-05
4.25405e-05
4.25361e-05
4.25314e-05
4.25284e-05
4.25278e-05
4.2527e-05
4.25274e-05
4.25289e-05
4.25304e-05
4.25314e-05
4.2529e-05
4.25305e-05
4.25543e-05
4.25514e-05
4.25465e-05
4.25426e-05
4.25376e-05
4.25333e-05
4.25323e-05
4.25319e-05
4.2531e-05
4.25317e-05
4.25345e-05
4.25376e-05
4.2543e-05
4.25522e-05
4.25671e-05
4.25466e-05
4.25424e-05
4.25393e-05
4.25355e-05
4.25324e-05
4.25256e-05
4.25223e-05
4.25188e-05
4.25203e-05
4.25205e-05
4.25215e-05
4.25244e-05
4.25266e-05
4.25218e-05
4.24547e-05
4.25504e-05
4.25473e-05
4.25437e-05
4.25389e-05
4.25343e-05
4.2529e-05
4.2526e-05
4.25254e-05
4.25261e-05
4.25253e-05
4.25251e-05
4.25266e-05
4.25293e-05
4.25319e-05
4.254e-05
4.25527e-05
4.25506e-05
4.25466e-05
4.25419e-05
4.25358e-05
4.25314e-05
4.25296e-05
4.25299e-05
4.253e-05
4.25303e-05
4.25313e-05
4.25348e-05
4.25412e-05
4.2551e-05
4.25665e-05
4.2337e-05
5.31167e-06
4.2433e-05
5.31166e-06
4.24329e-05
5.3115e-06
4.24422e-05
5.31127e-06
4.24514e-05
5.31105e-06
4.2502e-05
4.23952e-05
4.25098e-05
4.24525e-05
5.27679e-06
4.25317e-05
4.25065e-05
4.2506e-05
4.25683e-05
4.24355e-05
4.25117e-05
4.25127e-05
4.25715e-05
4.25127e-05
4.24538e-05
4.25208e-05
4.24644e-05
4.23879e-05
4.23856e-05
4.25102e-05
4.25146e-05
4.25727e-05
4.24462e-05
4.25141e-05
4.25232e-05
4.25787e-05
4.25235e-05
4.24734e-05
4.24004e-05
4.24163e-05
4.25182e-05
4.25278e-05
4.25821e-05
4.20559e-05
4.22266e-05
4.24162e-05
4.23262e-05
4.22234e-05
5.29865e-06
5.31229e-06
5.29786e-06
4.23986e-05
4.24339e-05
4.24322e-05
4.23158e-05
4.21998e-05
4.23239e-05
4.22058e-05
5.31198e-06
5.29696e-06
5.29756e-06
4.2314e-05
4.21981e-05
4.2434e-05
4.23152e-05
4.21988e-05
5.29689e-06
5.31135e-06
5.29692e-06
4.23914e-05
4.23869e-05
4.2437e-05
4.23237e-05
4.22048e-05
4.23183e-05
4.22008e-05
5.31124e-06
5.29748e-06
5.29685e-06
4.23329e-05
4.2211e-05
4.24676e-05
4.2349e-05
4.22227e-05
5.29729e-06
5.31208e-06
5.29922e-06
4.24446e-05
4.24958e-05
4.23785e-05
4.22461e-05
5.31254e-06
5.29938e-06
5.37027e-06
5.2893e-06
5.27091e-06
5.37509e-06
5.29838e-06
5.33952e-06
5.38298e-06
6.35779e-07
5.35664e-06
5.30143e-06
5.23812e-06
5.24993e-06
5.23852e-06
5.25022e-06
5.30017e-06
5.30041e-06
5.23947e-06
5.25053e-06
5.30264e-06
5.23863e-06
5.24993e-06
5.30155e-06
5.23865e-06
5.25187e-06
5.23826e-06
5.25098e-06
5.30268e-06
5.30127e-06
5.23796e-06
5.25036e-06
5.30089e-06
5.2381e-06
5.25078e-06
6.60602e-07
7.20573e-07
6.74414e-07
7.01019e-07
5.29545e-06
5.24096e-06
5.22278e-06
5.25155e-06
5.22917e-06
5.29256e-06
5.29047e-06
5.08419e-06
5.26281e-06
5.24619e-06
5.24175e-06
5.26217e-06
6.56042e-07
6.57045e-07
6.57568e-07
6.55846e-07
6.52422e-07
6.70482e-07
6.71462e-07
6.51749e-07
6.52261e-07
6.71142e-07
6.52077e-07
6.71314e-07
6.56213e-07
6.58692e-07
6.57682e-07
6.55504e-07
5.30848e-06
5.26413e-06
5.25992e-06
5.32262e-06
5.24821e-06
5.25377e-06
5.30656e-06
5.2403e-06
5.25044e-06
5.30173e-06
5.24309e-06
5.25214e-06
6.6062e-07
6.57877e-07
6.71292e-07
6.71859e-07
6.74002e-07
6.71672e-07
6.58092e-07
5.28822e-06
5.23564e-06
5.22029e-06
5.28977e-06
5.23277e-06
5.21935e-06
5.28776e-06
5.23117e-06
5.21877e-06
5.23208e-06
5.21895e-06
5.28717e-06
6.55802e-07
6.57037e-07
6.55826e-07
6.56938e-07
6.52032e-07
6.71106e-07
6.71112e-07
6.52019e-07
6.52035e-07
6.71131e-07
6.52062e-07
6.7111e-07
6.55799e-07
6.5692e-07
6.56952e-07
6.55787e-07
6.71403e-07
6.71212e-07
6.71163e-07
6.71266e-07
5.28724e-06
5.23108e-06
5.21888e-06
5.23121e-06
5.21876e-06
5.28728e-06
5.28711e-06
5.23132e-06
5.21876e-06
5.23097e-06
5.28726e-06
5.21876e-06
6.55781e-07
6.56927e-07
6.56945e-07
6.55789e-07
6.52018e-07
6.71105e-07
6.52018e-07
6.71096e-07
6.55785e-07
6.56918e-07
6.55782e-07
6.5694e-07
6.52014e-07
6.71085e-07
6.52018e-07
6.71093e-07
5.3002e-06
5.23806e-06
5.25007e-06
5.30086e-06
5.23788e-06
5.24993e-06
5.30072e-06
5.23792e-06
5.25021e-06
5.30058e-06
5.23794e-06
5.25008e-06
5.28757e-06
5.2313e-06
5.21898e-06
5.28736e-06
5.23133e-06
5.21908e-06
5.28753e-06
5.23163e-06
5.21919e-06
5.23142e-06
5.21905e-06
5.28798e-06
6.55795e-07
6.56921e-07
6.5579e-07
6.56931e-07
6.52013e-07
6.7108e-07
6.71071e-07
6.52027e-07
6.5202e-07
6.71081e-07
6.52019e-07
6.71083e-07
6.55783e-07
6.56938e-07
6.56928e-07
6.55805e-07
5.28853e-06
5.23322e-06
5.2199e-06
5.23232e-06
5.21947e-06
5.2899e-06
5.28863e-06
5.23171e-06
5.2192e-06
5.23218e-06
5.28787e-06
5.2194e-06
6.55803e-07
6.57006e-07
6.56953e-07
6.55843e-07
6.52036e-07
6.71072e-07
6.52019e-07
6.71103e-07
6.55815e-07
6.56914e-07
6.55791e-07
6.56968e-07
6.52023e-07
6.71102e-07
6.52065e-07
6.71083e-07
5.30557e-06
5.2391e-06
5.25224e-06
5.30303e-06
5.24029e-06
5.25412e-06
5.307e-06
5.24195e-06
5.2555e-06
5.29251e-06
5.23346e-06
5.22009e-06
5.28989e-06
5.23525e-06
5.22089e-06
5.29331e-06
5.23648e-06
5.22191e-06
6.55931e-07
6.56961e-07
6.55825e-07
6.57115e-07
6.52161e-07
6.71188e-07
6.52162e-07
6.71086e-07
6.52051e-07
6.71197e-07
6.55927e-07
6.57048e-07
6.6462e-07
6.91145e-07
6.43451e-07
6.92153e-07
6.44353e-07
6.6242e-07
8.76939e-08
9.18224e-08
1.05253e-07
8.0074e-08
1.00999e-07
7.62325e-08
7.63036e-08
6.61093e-07
6.90101e-07
6.42892e-07
6.90119e-07
6.42849e-07
6.61108e-07
6.61066e-07
6.90198e-07
6.42878e-07
6.61213e-07
6.90166e-07
6.42815e-07
7.62232e-08
7.62214e-08
7.62202e-08
7.622e-08
6.6116e-07
6.89892e-07
6.42981e-07
6.89881e-07
6.42896e-07
6.61276e-07
6.61104e-07
6.89985e-07
6.42863e-07
6.61145e-07
6.89961e-07
6.42837e-07
7.62222e-08
7.62227e-08
7.62218e-08
7.62221e-08
8.30974e-08
7.92166e-08
7.94276e-08
8.30317e-08
6.69268e-08
9.17002e-08
7.14592e-08
7.3529e-08
7.35936e-08
7.1402e-08
7.72164e-08
8.55749e-08
6.58727e-07
6.3642e-07
6.82954e-07
6.36943e-07
6.83094e-07
6.58306e-07
6.62417e-07
6.91515e-07
7.09493e-07
6.38654e-07
6.87079e-07
6.77385e-07
8.29952e-08
7.90871e-08
7.91023e-08
8.2994e-08
7.14616e-08
7.52061e-08
7.35901e-08
7.31264e-08
7.13917e-08
7.35226e-08
7.13912e-08
7.35231e-08
8.30979e-08
7.96693e-08
7.90651e-08
8.52655e-08
6.6156e-07
6.90871e-07
6.43381e-07
6.62626e-07
6.90537e-07
6.43009e-07
6.61221e-07
6.90193e-07
6.42837e-07
6.61113e-07
6.90223e-07
6.42856e-07
8.30218e-08
7.92588e-08
8.30474e-08
7.91848e-08
7.13946e-08
7.35213e-08
7.35249e-08
7.13909e-08
7.13959e-08
7.35437e-08
7.14148e-08
7.35245e-08
8.3017e-08
7.91644e-08
7.91755e-08
8.30118e-08
6.58069e-07
6.36394e-07
6.82913e-07
6.58283e-07
6.36134e-07
6.82866e-07
6.58005e-07
6.36055e-07
6.82822e-07
6.36043e-07
6.82817e-07
6.58016e-07
8.29942e-08
7.90912e-08
8.29944e-08
7.9086e-08
7.13915e-08
7.35207e-08
7.35224e-08
7.13898e-08
7.13911e-08
7.35227e-08
7.13913e-08
7.35225e-08
8.29944e-08
7.90843e-08
7.90847e-08
8.29932e-08
7.86131e-08
7.63078e-08
7.62217e-08
7.62222e-08
7.62206e-08
7.6225e-08
7.62479e-08
7.62256e-08
7.62202e-08
7.62219e-08
7.62218e-08
7.62216e-08
8.30095e-08
7.91606e-08
7.91629e-08
8.30095e-08
7.13906e-08
7.35239e-08
7.3522e-08
7.1393e-08
8.30115e-08
7.91699e-08
7.91622e-08
8.30151e-08
7.13919e-08
7.35213e-08
7.3522e-08
7.1392e-08
6.58012e-07
6.36058e-07
6.82831e-07
6.36023e-07
6.82802e-07
6.58059e-07
6.57984e-07
6.36087e-07
6.82821e-07
6.36014e-07
6.58042e-07
6.82812e-07
8.29947e-08
7.9085e-08
7.90839e-08
8.29945e-08
7.13915e-08
7.35223e-08
7.13915e-08
7.35223e-08
8.29947e-08
7.90848e-08
8.29945e-08
7.90838e-08
7.13914e-08
7.35221e-08
7.13914e-08
7.35222e-08
6.61056e-07
6.90085e-07
6.42887e-07
6.61138e-07
6.90063e-07
6.42799e-07
6.61086e-07
6.90005e-07
6.42861e-07
6.61142e-07
6.90005e-07
6.42815e-07
8.30095e-08
7.91623e-08
8.30101e-08
7.91603e-08
7.13925e-08
7.35233e-08
7.3523e-08
7.13926e-08
7.13913e-08
7.3522e-08
7.1392e-08
7.35213e-08
8.30093e-08
7.91594e-08
7.91591e-08
8.30096e-08
6.58044e-07
6.36094e-07
6.82837e-07
6.58074e-07
6.36075e-07
6.82831e-07
6.58066e-07
6.36169e-07
6.82785e-07
6.36103e-07
6.82782e-07
6.58129e-07
8.29946e-08
7.90843e-08
8.29944e-08
7.90843e-08
7.1391e-08
7.3522e-08
7.35216e-08
7.13913e-08
7.13914e-08
7.35221e-08
7.13914e-08
7.3522e-08
8.29936e-08
7.90832e-08
7.90812e-08
8.29945e-08
7.62219e-08
7.62219e-08
7.62216e-08
7.62217e-08
7.62226e-08
7.62222e-08
7.6221e-08
7.62204e-08
7.62214e-08
7.62211e-08
7.62217e-08
7.62216e-08
8.30058e-08
7.91539e-08
7.91519e-08
8.3005e-08
7.13925e-08
7.35234e-08
7.35235e-08
7.13925e-08
8.30088e-08
7.91592e-08
7.91583e-08
8.30089e-08
7.13914e-08
7.35219e-08
7.35226e-08
7.13918e-08
6.58159e-07
6.36281e-07
6.82697e-07
6.36185e-07
6.82691e-07
6.58267e-07
6.5811e-07
6.3617e-07
6.8277e-07
6.36135e-07
6.58123e-07
6.82755e-07
8.29943e-08
7.90801e-08
7.90773e-08
8.29949e-08
7.13913e-08
7.35225e-08
7.13914e-08
7.35225e-08
8.29944e-08
7.90807e-08
8.29948e-08
7.90801e-08
7.13914e-08
7.35223e-08
7.13913e-08
7.35225e-08
6.61285e-07
6.89872e-07
6.42976e-07
6.61255e-07
6.89863e-07
6.42987e-07
8.30048e-08
7.91516e-08
8.3003e-08
7.91542e-08
7.13918e-08
7.35205e-08
7.13905e-08
7.35216e-08
6.58271e-07
6.36272e-07
6.82674e-07
6.58235e-07
6.36268e-07
6.82663e-07
8.29953e-08
7.90767e-08
8.29939e-08
7.90789e-08
7.13917e-08
7.35216e-08
7.13906e-08
7.35226e-08
7.62214e-08
7.62214e-08
7.62212e-08
7.62214e-08
7.62202e-08
7.62215e-08
7.62205e-08
7.62217e-08
6.66071e-07
7.02096e-07
6.49838e-07
6.73774e-07
6.94286e-07
6.45521e-07
7.09577e-07
7.19446e-07
6.59028e-07
6.8554e-07
7.56627e-07
6.81355e-07
8.59263e-08
1.02645e-07
1.09618e-07
7.8088e-08
8.62897e-08
7.71878e-08
7.62802e-08
6.61066e-07
6.90158e-07
6.42878e-07
6.61165e-07
6.90132e-07
6.42834e-07
6.61124e-07
6.90152e-07
6.42852e-07
6.61099e-07
6.90164e-07
6.42837e-07
7.62204e-08
7.62218e-08
7.62211e-08
7.62196e-08
6.61165e-07
6.89921e-07
6.42906e-07
6.61177e-07
6.89897e-07
6.42895e-07
6.61113e-07
6.89947e-07
6.42906e-07
6.61185e-07
6.89949e-07
6.42841e-07
7.62221e-08
7.62221e-08
7.62219e-08
7.62222e-08
7.4876e-08
7.097e-08
7.10119e-08
7.48208e-08
8.30756e-08
8.08092e-08
7.93783e-08
8.36632e-08
7.48551e-08
7.13635e-08
7.09953e-08
7.52893e-08
7.31545e-08
9.21797e-08
7.39142e-08
7.54249e-08
8.31709e-08
7.29586e-08
6.25701e-08
5.62878e-08
7.13731e-08
7.1889e-08
7.26778e-08
6.69909e-08
7.03807e-08
6.70612e-08
7.1395e-08
7.10588e-08
7.11031e-08
7.13433e-08
7.14403e-08
7.44942e-08
7.35726e-08
7.22264e-08
7.13741e-08
7.15153e-08
7.10875e-08
7.20642e-08
8.46661e-08
8.14974e-08
9.0731e-08
8.41749e-08
7.44068e-08
8.6889e-08
6.53093e-08
5.61274e-08
7.43767e-08
7.1673e-08
7.56282e-08
6.66909e-08
7.19849e-08
6.71805e-08
6.59136e-07
6.39829e-07
6.83975e-07
6.37558e-07
6.60496e-07
6.83346e-07
6.64057e-07
6.44145e-07
6.85036e-07
6.49886e-07
6.62317e-07
6.86175e-07
7.48036e-08
7.09678e-08
7.09679e-08
7.48022e-08
8.29956e-08
7.91471e-08
7.90976e-08
8.29999e-08
7.48039e-08
7.09706e-08
7.09683e-08
7.48078e-08
7.1422e-08
7.3528e-08
7.13956e-08
7.35587e-08
7.14067e-08
7.29178e-08
7.11299e-08
7.312e-08
7.13653e-08
7.10582e-08
7.13399e-08
7.10848e-08
7.13362e-08
7.10543e-08
7.10544e-08
7.13362e-08
7.13927e-08
7.35259e-08
7.13943e-08
7.35232e-08
7.13367e-08
7.10571e-08
7.10545e-08
7.13387e-08
8.30415e-08
7.91418e-08
7.91285e-08
8.30033e-08
7.48849e-08
7.27828e-08
7.10389e-08
7.67306e-08
7.48423e-08
7.09717e-08
7.48097e-08
7.09969e-08
6.61698e-07
6.90324e-07
6.42888e-07
6.61266e-07
6.90453e-07
6.43022e-07
6.61124e-07
6.90302e-07
6.42938e-07
6.61424e-07
6.90227e-07
6.42819e-07
7.4813e-08
7.09806e-08
7.48339e-08
7.09645e-08
8.30302e-08
7.91737e-08
7.92073e-08
8.30173e-08
7.48201e-08
7.09618e-08
7.097e-08
7.48094e-08
7.13921e-08
7.35261e-08
7.1396e-08
7.35231e-08
7.13378e-08
7.10479e-08
7.10512e-08
7.13343e-08
7.13358e-08
7.10524e-08
7.13394e-08
7.10492e-08
7.13388e-08
7.10691e-08
7.13563e-08
7.10524e-08
7.14023e-08
7.35226e-08
7.13936e-08
7.35319e-08
7.13449e-08
7.10497e-08
7.10579e-08
7.13371e-08
8.30141e-08
7.91862e-08
7.91662e-08
8.30208e-08
7.48118e-08
7.096e-08
7.0964e-08
7.48074e-08
7.48086e-08
7.0965e-08
7.48132e-08
7.09625e-08
6.58105e-07
6.36087e-07
6.82839e-07
6.36157e-07
6.58039e-07
6.82859e-07
6.57979e-07
6.36133e-07
6.82835e-07
6.36017e-07
6.58077e-07
6.82817e-07
7.48022e-08
7.09678e-08
7.48025e-08
7.09668e-08
8.29944e-08
7.90842e-08
7.90883e-08
8.29936e-08
7.48024e-08
7.09672e-08
7.0967e-08
7.48019e-08
7.13915e-08
7.35207e-08
7.13899e-08
7.35223e-08
7.13364e-08
7.10525e-08
7.10541e-08
7.13348e-08
7.13364e-08
7.10525e-08
7.13348e-08
7.10541e-08
7.13361e-08
7.10544e-08
7.13363e-08
7.10538e-08
7.13913e-08
7.35223e-08
7.13915e-08
7.35227e-08
7.13363e-08
7.10541e-08
7.10539e-08
7.13364e-08
8.29946e-08
7.90866e-08
7.9084e-08
8.29936e-08
7.48022e-08
7.09657e-08
7.09672e-08
7.48006e-08
7.48023e-08
7.09656e-08
7.4801e-08
7.09673e-08
7.6228e-08
7.62633e-08
7.62257e-08
7.62223e-08
7.62265e-08
7.62224e-08
7.62235e-08
7.62332e-08
7.62202e-08
7.62219e-08
7.62218e-08
7.62218e-08
8.30099e-08
7.91653e-08
7.91615e-08
8.30105e-08
7.48067e-08
7.09596e-08
7.09607e-08
7.48066e-08
7.48064e-08
7.09611e-08
7.48071e-08
7.09604e-08
7.13344e-08
7.10498e-08
7.13363e-08
7.10483e-08
7.13918e-08
7.35221e-08
7.35228e-08
7.13911e-08
7.13356e-08
7.10482e-08
7.10494e-08
7.1335e-08
8.30125e-08
7.91627e-08
7.91671e-08
8.30094e-08
7.48084e-08
7.09628e-08
7.48105e-08
7.09608e-08
7.48085e-08
7.09609e-08
7.48065e-08
7.0962e-08
7.13358e-08
7.1048e-08
7.10483e-08
7.1336e-08
7.1391e-08
7.35233e-08
7.35216e-08
7.13919e-08
7.1335e-08
7.10485e-08
7.10479e-08
7.13358e-08
6.58006e-07
6.3608e-07
6.82817e-07
6.36019e-07
6.5805e-07
6.82809e-07
6.57999e-07
6.36066e-07
6.82817e-07
6.36031e-07
6.58027e-07
6.82806e-07
8.29948e-08
7.90848e-08
7.90837e-08
8.29946e-08
7.48023e-08
7.09674e-08
7.09674e-08
7.48026e-08
7.48024e-08
7.09673e-08
7.48023e-08
7.09674e-08
7.13365e-08
7.10541e-08
7.13364e-08
7.10542e-08
7.13915e-08
7.35223e-08
7.13914e-08
7.35223e-08
7.13365e-08
7.10541e-08
7.10541e-08
7.13365e-08
8.29945e-08
7.90851e-08
7.90839e-08
8.29948e-08
7.48023e-08
7.09672e-08
7.48022e-08
7.09673e-08
7.48022e-08
7.09673e-08
7.48024e-08
7.09673e-08
7.13365e-08
7.10541e-08
7.10541e-08
7.13364e-08
7.13914e-08
7.35223e-08
7.13914e-08
7.35222e-08
7.13365e-08
7.10541e-08
7.10541e-08
7.13365e-08
6.61077e-07
6.90053e-07
6.42842e-07
6.61111e-07
6.90053e-07
6.42801e-07
6.61077e-07
6.90043e-07
6.42852e-07
6.61133e-07
6.90017e-07
6.4281e-07
7.48063e-08
7.09603e-08
7.48073e-08
7.09592e-08
8.30084e-08
7.91607e-08
7.91616e-08
8.30098e-08
7.48056e-08
7.09605e-08
7.09596e-08
7.48064e-08
7.13913e-08
7.3522e-08
7.1392e-08
7.35222e-08
7.13356e-08
7.10486e-08
7.10481e-08
7.13357e-08
7.13344e-08
7.10476e-08
7.13352e-08
7.10466e-08
7.13344e-08
7.10487e-08
7.1336e-08
7.10472e-08
7.13913e-08
7.3522e-08
7.13921e-08
7.35209e-08
7.13344e-08
7.10477e-08
7.10472e-08
7.13353e-08
8.30086e-08
7.91604e-08
7.91591e-08
8.30109e-08
7.48061e-08
7.09611e-08
7.0961e-08
7.4806e-08
7.48054e-08
7.09605e-08
7.48071e-08
7.09602e-08
6.58046e-07
6.36143e-07
6.82826e-07
6.36085e-07
6.58101e-07
6.82817e-07
6.58071e-07
6.36154e-07
6.82813e-07
6.36103e-07
6.58096e-07
6.82796e-07
7.48026e-08
7.09674e-08
7.48025e-08
7.09674e-08
8.29927e-08
7.90842e-08
7.90819e-08
8.29947e-08
7.48009e-08
7.09674e-08
7.09658e-08
7.48026e-08
7.13901e-08
7.3522e-08
7.13914e-08
7.35208e-08
7.13361e-08
7.10547e-08
7.10538e-08
7.13364e-08
7.13352e-08
7.10542e-08
7.13364e-08
7.1053e-08
7.13364e-08
7.10542e-08
7.13364e-08
7.10542e-08
7.13898e-08
7.3522e-08
7.13913e-08
7.35204e-08
7.13348e-08
7.10542e-08
7.10526e-08
7.13364e-08
8.29937e-08
7.90834e-08
7.90826e-08
8.29946e-08
7.48021e-08
7.09679e-08
7.0967e-08
7.48026e-08
7.48013e-08
7.09674e-08
7.48026e-08
7.09662e-08
7.62218e-08
7.62219e-08
7.62218e-08
7.62217e-08
7.62212e-08
7.62214e-08
7.62212e-08
7.622e-08
7.62215e-08
7.62202e-08
7.62215e-08
7.622e-08
8.3006e-08
7.91557e-08
7.91537e-08
8.30081e-08
7.48077e-08
7.09667e-08
7.0965e-08
7.48073e-08
7.48077e-08
7.0964e-08
7.48066e-08
7.09648e-08
7.13358e-08
7.10486e-08
7.13357e-08
7.10489e-08
7.13925e-08
7.35232e-08
7.35233e-08
7.13915e-08
7.13359e-08
7.10503e-08
7.1049e-08
7.1335e-08
8.30093e-08
7.91565e-08
7.91566e-08
8.3009e-08
7.48057e-08
7.0961e-08
7.48054e-08
7.09614e-08
7.48065e-08
7.09633e-08
7.48067e-08
7.09617e-08
7.13356e-08
7.10539e-08
7.10521e-08
7.13364e-08
7.13915e-08
7.35229e-08
7.35227e-08
7.13914e-08
7.13356e-08
7.10507e-08
7.10519e-08
7.13355e-08
6.58168e-07
6.36208e-07
6.82721e-07
6.36182e-07
6.58169e-07
6.82707e-07
6.581e-07
6.36212e-07
6.82741e-07
6.36136e-07
6.58182e-07
6.82735e-07
8.29954e-08
7.90791e-08
7.90796e-08
8.29949e-08
7.48021e-08
7.09683e-08
7.09679e-08
7.48027e-08
7.4803e-08
7.09679e-08
7.48025e-08
7.09679e-08
7.13365e-08
7.10547e-08
7.13365e-08
7.10547e-08
7.13913e-08
7.35226e-08
7.13912e-08
7.35225e-08
7.13365e-08
7.10547e-08
7.10548e-08
7.13365e-08
8.29944e-08
7.90803e-08
7.90788e-08
8.2995e-08
7.48026e-08
7.09679e-08
7.48025e-08
7.09678e-08
7.4802e-08
7.09679e-08
7.48026e-08
7.09679e-08
7.13366e-08
7.10548e-08
7.10548e-08
7.13364e-08
7.13913e-08
7.35226e-08
7.13913e-08
7.35225e-08
7.13364e-08
7.10547e-08
7.10547e-08
7.13365e-08
6.6127e-07
6.89882e-07
6.43117e-07
6.61457e-07
6.89852e-07
6.42982e-07
6.61568e-07
6.89874e-07
6.43101e-07
6.61419e-07
6.89903e-07
6.43178e-07
7.48077e-08
7.09654e-08
7.48059e-08
7.09666e-08
8.30035e-08
7.91589e-08
7.91509e-08
8.30038e-08
7.48064e-08
7.09668e-08
7.09665e-08
7.48068e-08
7.13935e-08
7.35225e-08
7.13914e-08
7.35236e-08
7.13376e-08
7.10539e-08
7.13364e-08
7.10544e-08
7.13364e-08
7.10526e-08
7.13351e-08
7.1054e-08
7.13918e-08
7.35217e-08
7.1391e-08
7.35215e-08
7.13363e-08
7.10531e-08
7.10538e-08
7.13356e-08
8.30062e-08
7.9154e-08
7.91619e-08
8.30033e-08
7.48085e-08
7.09674e-08
7.48064e-08
7.09685e-08
6.58223e-07
6.36396e-07
6.82648e-07
6.36262e-07
6.58382e-07
6.82636e-07
6.58444e-07
6.36361e-07
6.82618e-07
6.36414e-07
6.58301e-07
6.82641e-07
7.48032e-08
7.09676e-08
7.48019e-08
7.09687e-08
8.29939e-08
7.90803e-08
7.90749e-08
8.29953e-08
7.48023e-08
7.09676e-08
7.0968e-08
7.48033e-08
7.13932e-08
7.35228e-08
7.13929e-08
7.35241e-08
7.13374e-08
7.1055e-08
7.1337e-08
7.10567e-08
7.13368e-08
7.10541e-08
7.13357e-08
7.10553e-08
7.1391e-08
7.35219e-08
7.13915e-08
7.3522e-08
7.13361e-08
7.10541e-08
7.10545e-08
7.13361e-08
8.29981e-08
7.90737e-08
7.90814e-08
8.29952e-08
7.48055e-08
7.09684e-08
7.48032e-08
7.09705e-08
7.62213e-08
7.62214e-08
7.62213e-08
7.62213e-08
7.62218e-08
7.62232e-08
7.62206e-08
7.62213e-08
7.62218e-08
7.62235e-08
7.62209e-08
7.6221e-08
5.25666e-06
5.31725e-06
5.28725e-06
5.31266e-06
5.28816e-06
5.32089e-06
5.25399e-06
5.25354e-06
5.31175e-06
5.31825e-06
5.28667e-06
5.28681e-06
5.31831e-06
5.25342e-06
5.25329e-06
5.31814e-06
5.28649e-06
5.31141e-06
5.28646e-06
5.25332e-06
5.31807e-06
5.25325e-06
5.31121e-06
5.3178e-06
5.28668e-06
5.28644e-06
5.31782e-06
5.2533e-06
5.25354e-06
5.31781e-06
5.28658e-06
5.31133e-06
5.28704e-06
5.25335e-06
5.31794e-06
5.25879e-06
5.31678e-06
5.29283e-06
5.323e-06
4.24596e-05
4.25083e-05
4.25049e-05
4.24864e-05
9.67279e-08
5.46355e-08
7.72118e-08
5.46381e-08
7.7222e-08
9.66854e-08
5.33712e-06
5.29047e-06
5.30412e-06
5.23099e-06
5.31599e-06
5.30424e-06
5.28066e-06
4.24317e-05
4.25124e-05
4.24386e-05
4.24792e-05
4.25486e-05
4.25516e-05
4.24759e-05
4.25126e-05
4.24373e-05
4.2438e-05
4.24811e-05
4.25538e-05
4.25533e-05
4.2482e-05
9.6662e-08
5.46215e-08
7.7232e-08
5.46246e-08
7.72196e-08
9.6667e-08
9.66669e-08
5.46366e-08
7.72155e-08
9.66796e-08
5.46352e-08
7.721e-08
4.24361e-05
4.25101e-05
4.24365e-05
4.24832e-05
4.2554e-05
4.24824e-05
4.25547e-05
4.25114e-05
4.24425e-05
4.24384e-05
4.24855e-05
4.25594e-05
4.25564e-05
4.24898e-05
9.66214e-08
5.45844e-08
7.71605e-08
5.45845e-08
7.71548e-08
9.66284e-08
9.66373e-08
5.46029e-08
7.71731e-08
9.66492e-08
5.46009e-08
7.71678e-08
4.24487e-05
4.25282e-05
4.24605e-05
4.25056e-05
4.25639e-05
4.24957e-05
4.25724e-05
4.25507e-05
4.24838e-05
4.25216e-05
4.25875e-05
9.52441e-08
7.36182e-08
5.24806e-08
7.36222e-08
5.24811e-08
9.52372e-08
1.06258e-07
9.34135e-08
5.41364e-08
9.71939e-08
5.33657e-08
1.0715e-07
5.27703e-06
5.28866e-06
5.29886e-06
5.29276e-06
5.28907e-06
5.29287e-06
5.27496e-06
5.25565e-06
5.31262e-06
5.31921e-06
5.28748e-06
5.28795e-06
5.25457e-06
5.32018e-06
5.27563e-06
5.28889e-06
5.29861e-06
5.28805e-06
5.28866e-06
5.29072e-06
5.27432e-06
9.66752e-08
5.4638e-08
7.72217e-08
9.67201e-08
5.46346e-08
7.72074e-08
9.66702e-08
5.4635e-08
7.72137e-08
9.66739e-08
5.46357e-08
7.72102e-08
9.52288e-08
7.36259e-08
5.24812e-08
9.5247e-08
7.36103e-08
5.24799e-08
9.52277e-08
7.3612e-08
5.24788e-08
7.36072e-08
5.24786e-08
9.52336e-08
5.25367e-06
5.31183e-06
5.31866e-06
5.28709e-06
5.28693e-06
5.25395e-06
5.3184e-06
5.27309e-06
5.28711e-06
5.29718e-06
5.28707e-06
5.28726e-06
5.28726e-06
5.27295e-06
5.27325e-06
5.28789e-06
5.28761e-06
5.29718e-06
5.28738e-06
5.27359e-06
5.28743e-06
9.52245e-08
7.35886e-08
5.24857e-08
7.35896e-08
5.24811e-08
9.52335e-08
9.52248e-08
7.36152e-08
5.24793e-08
7.36065e-08
9.52354e-08
5.24781e-08
5.27282e-06
5.28694e-06
5.28694e-06
5.29681e-06
5.28691e-06
5.27284e-06
5.28691e-06
5.25326e-06
5.31129e-06
5.31798e-06
5.28646e-06
5.28638e-06
5.25328e-06
5.31802e-06
5.2728e-06
5.28694e-06
5.29682e-06
5.28694e-06
5.28686e-06
5.28694e-06
5.27281e-06
9.66549e-08
5.46198e-08
7.72349e-08
9.66672e-08
5.46177e-08
7.72048e-08
9.66419e-08
5.4604e-08
7.71743e-08
9.66494e-08
5.46041e-08
7.717e-08
9.52275e-08
7.35877e-08
5.24863e-08
9.5235e-08
7.36008e-08
5.24855e-08
9.52201e-08
7.36219e-08
5.24749e-08
7.3615e-08
5.24751e-08
9.52263e-08
5.25326e-06
5.31134e-06
5.31793e-06
5.28634e-06
5.28654e-06
5.25325e-06
5.31789e-06
5.27292e-06
5.28723e-06
5.29707e-06
5.28721e-06
5.28699e-06
5.28713e-06
5.27297e-06
5.2729e-06
5.28697e-06
5.28684e-06
5.29713e-06
5.28708e-06
5.27283e-06
5.28706e-06
9.51988e-08
7.36046e-08
5.2456e-08
7.35971e-08
5.24563e-08
9.52055e-08
9.52161e-08
7.36207e-08
5.24738e-08
7.36124e-08
9.52266e-08
5.24723e-08
5.27328e-06
5.28711e-06
5.28722e-06
5.29802e-06
5.28763e-06
5.27302e-06
5.2875e-06
5.25367e-06
5.31125e-06
5.31845e-06
5.28788e-06
5.28697e-06
5.25413e-06
5.31805e-06
5.27346e-06
5.28825e-06
5.29787e-06
5.28852e-06
5.28757e-06
5.28774e-06
5.2739e-06
9.66163e-08
5.45824e-08
7.71573e-08
9.66272e-08
5.4581e-08
7.71522e-08
9.51931e-08
7.36013e-08
5.24536e-08
9.5204e-08
7.35937e-08
5.2452e-08
5.25617e-06
5.31462e-06
5.31915e-06
5.28832e-06
5.29047e-06
5.25481e-06
5.32052e-06
5.27866e-06
5.30357e-06
5.29345e-06
5.29266e-06
5.27599e-06
5.28889e-06
5.28893e-06
5.30212e-06
5.29111e-06
5.27457e-06
5.29039e-06
9.69424e-08
5.49499e-08
7.75616e-08
9.75732e-08
5.47421e-08
7.73364e-08
9.952e-08
5.53586e-08
7.77747e-08
9.79039e-08
5.62048e-08
7.84051e-08
6.72026e-07
6.20837e-07
6.51842e-07
6.44191e-07
6.64144e-07
6.40395e-07
7.29067e-08
6.86158e-07
6.87249e-07
6.83506e-07
6.96812e-07
6.66793e-07
6.50427e-07
6.66441e-07
7.61806e-08
9.66647e-08
5.46338e-08
7.72164e-08
9.66769e-08
5.46321e-08
7.72097e-08
9.66676e-08
5.46348e-08
7.7215e-08
9.66742e-08
5.46338e-08
7.72098e-08
9.66262e-08
5.45932e-08
7.7165e-08
9.66386e-08
5.45901e-08
7.71587e-08
9.66323e-08
5.45946e-08
7.71664e-08
9.66387e-08
5.45949e-08
7.71616e-08
6.74367e-07
6.60076e-07
6.69556e-07
6.55842e-07
6.79648e-07
6.72186e-07
6.46991e-07
6.64641e-07
6.65461e-07
6.49075e-07
6.68742e-07
6.70534e-07
6.75185e-07
6.81674e-07
6.67617e-07
6.62632e-07
6.5286e-07
6.7164e-07
6.82821e-07
6.72204e-07
6.64611e-07
6.52918e-07
6.67523e-07
6.54059e-07
6.70901e-07
7.00542e-07
6.63793e-07
6.76153e-07
6.74736e-07
7.5024e-07
7.26947e-07
7.93897e-07
6.99847e-07
6.53203e-07
6.54141e-07
6.49333e-07
6.60094e-07
6.61526e-07
6.80717e-07
6.78878e-07
6.6409e-07
6.82523e-07
6.68335e-07
6.59875e-07
6.64797e-07
6.97139e-07
6.83664e-07
6.86185e-07
6.7444e-07
6.72743e-07
6.50712e-07
6.46237e-07
6.47417e-07
6.49328e-07
7.02342e-07
6.68016e-07
6.90788e-07
6.74544e-07
7.23366e-07
6.82971e-07
7.15163e-07
7.00229e-07
9.52973e-08
7.37625e-08
5.25086e-08
7.3656e-08
9.54153e-08
5.24935e-08
9.56468e-08
7.38184e-08
5.25205e-08
7.40893e-08
9.5447e-08
5.25328e-08
6.69399e-07
6.51643e-07
6.62207e-07
6.55927e-07
6.51548e-07
6.62074e-07
6.69511e-07
6.68439e-07
6.43594e-07
6.57201e-07
6.62346e-07
6.43673e-07
6.62409e-07
6.68397e-07
6.68511e-07
6.6266e-07
6.57247e-07
6.44016e-07
6.43779e-07
6.62482e-07
6.6866e-07
6.69346e-07
6.55875e-07
6.51477e-07
6.61961e-07
6.51504e-07
6.6201e-07
6.69314e-07
6.48497e-07
6.45098e-07
6.54724e-07
6.52653e-07
6.54931e-07
6.48059e-07
6.4555e-07
6.59531e-07
6.78175e-07
6.71622e-07
6.60097e-07
6.61308e-07
6.80197e-07
6.57675e-07
6.58851e-07
6.61145e-07
6.71648e-07
6.79162e-07
6.61335e-07
6.5842e-07
6.79605e-07
6.49318e-07
6.52747e-07
6.53956e-07
6.45252e-07
6.54986e-07
6.46439e-07
6.47933e-07
6.47791e-07
6.44907e-07
6.52159e-07
6.54573e-07
6.44821e-07
6.47874e-07
6.54474e-07
6.5811e-07
6.78815e-07
6.60831e-07
6.71165e-07
6.6086e-07
6.58089e-07
6.78836e-07
6.47749e-07
6.52111e-07
6.44753e-07
6.54404e-07
6.44778e-07
6.5443e-07
6.47726e-07
6.58147e-07
6.60999e-07
6.78964e-07
6.71214e-07
6.58232e-07
6.60906e-07
6.78875e-07
6.70241e-07
6.51844e-07
6.62401e-07
6.56457e-07
6.6974e-07
6.52306e-07
6.62687e-07
6.70654e-07
6.46622e-07
6.58344e-07
6.63365e-07
6.45477e-07
6.63584e-07
6.70783e-07
6.69465e-07
6.62869e-07
6.44306e-07
6.58101e-07
6.44686e-07
6.68921e-07
6.63228e-07
6.71069e-07
6.56541e-07
6.5155e-07
6.61919e-07
6.53097e-07
6.62842e-07
6.69665e-07
9.66793e-08
5.46355e-08
7.721e-08
9.66761e-08
5.46351e-08
7.72092e-08
9.66677e-08
5.46352e-08
7.72135e-08
9.66856e-08
5.46347e-08
7.7206e-08
6.6972e-07
6.62472e-07
6.51682e-07
6.63207e-07
6.51875e-07
6.69511e-07
6.69299e-07
6.46236e-07
6.65239e-07
6.58672e-07
6.69869e-07
6.4552e-07
6.63714e-07
6.69896e-07
6.6447e-07
6.52458e-07
6.70372e-07
6.63083e-07
6.52026e-07
6.69075e-07
6.63026e-07
6.58817e-07
6.44953e-07
6.45263e-07
6.63804e-07
6.68823e-07
6.47859e-07
6.44943e-07
6.4796e-07
6.44843e-07
6.5823e-07
6.78914e-07
6.71535e-07
6.78969e-07
6.58178e-07
6.58255e-07
6.71413e-07
6.79098e-07
6.58359e-07
6.78995e-07
6.47836e-07
6.44763e-07
6.4482e-07
6.47781e-07
6.48207e-07
6.44996e-07
6.4519e-07
6.48009e-07
6.58783e-07
6.80062e-07
6.63706e-07
6.72329e-07
6.59275e-07
6.62066e-07
6.79539e-07
6.48357e-07
6.45769e-07
6.4881e-07
6.45337e-07
6.58618e-07
6.72454e-07
6.79155e-07
6.62181e-07
6.58413e-07
6.79366e-07
6.69329e-07
6.62629e-07
6.51624e-07
6.69441e-07
6.5152e-07
6.68567e-07
6.44573e-07
6.62555e-07
6.44655e-07
6.62827e-07
6.6849e-07
6.686e-07
6.63172e-07
6.44861e-07
6.57501e-07
6.44693e-07
6.68736e-07
6.6271e-07
6.69304e-07
6.51441e-07
6.51499e-07
6.69237e-07
9.52297e-08
7.36157e-08
5.24801e-08
7.36109e-08
9.52345e-08
5.24792e-08
9.52266e-08
7.36177e-08
5.24791e-08
7.36084e-08
9.52372e-08
5.24792e-08
6.69282e-07
6.55801e-07
6.5145e-07
6.61897e-07
6.51452e-07
6.61903e-07
6.69276e-07
6.68362e-07
6.43569e-07
6.62317e-07
6.56946e-07
6.68377e-07
6.43537e-07
6.62283e-07
6.69286e-07
6.55805e-07
6.51462e-07
6.61934e-07
6.69297e-07
6.51454e-07
6.61909e-07
6.68353e-07
6.62276e-07
6.56962e-07
6.43516e-07
6.43531e-07
6.62278e-07
6.68346e-07
6.477e-07
6.44724e-07
6.54363e-07
6.52024e-07
6.54359e-07
6.47698e-07
6.44725e-07
6.58066e-07
6.78789e-07
6.71106e-07
6.60788e-07
6.60796e-07
6.78796e-07
6.58059e-07
6.58066e-07
6.60797e-07
6.71105e-07
6.78786e-07
6.60794e-07
6.58061e-07
6.78793e-07
6.47698e-07
6.52025e-07
6.54358e-07
6.44716e-07
6.54363e-07
6.44724e-07
6.47691e-07
6.47703e-07
6.52042e-07
6.44727e-07
6.54366e-07
6.44729e-07
6.54368e-07
6.47701e-07
6.58071e-07
6.78803e-07
6.60817e-07
6.71109e-07
6.58079e-07
6.60803e-07
6.78795e-07
6.47706e-07
6.52048e-07
6.44739e-07
6.5439e-07
6.47714e-07
6.44732e-07
6.54375e-07
6.58068e-07
6.60795e-07
6.71105e-07
6.78793e-07
6.60798e-07
6.58065e-07
6.78792e-07
6.69267e-07
6.51445e-07
6.61895e-07
6.55784e-07
6.69272e-07
6.51442e-07
6.61884e-07
6.68334e-07
6.43499e-07
6.56939e-07
6.62254e-07
6.43506e-07
6.62246e-07
6.68331e-07
6.68337e-07
6.62272e-07
6.43517e-07
6.56928e-07
6.43505e-07
6.68342e-07
6.62254e-07
6.69268e-07
6.55783e-07
6.51439e-07
6.61879e-07
6.51444e-07
6.61878e-07
6.69263e-07
6.69142e-07
6.51374e-07
6.69162e-07
6.51354e-07
6.68374e-07
6.44434e-07
6.44443e-07
6.68364e-07
6.68375e-07
6.44472e-07
6.4444e-07
6.68398e-07
6.69146e-07
6.51345e-07
6.51358e-07
6.69135e-07
6.4774e-07
6.447e-07
6.44716e-07
6.47723e-07
6.5814e-07
6.78906e-07
6.71231e-07
6.78871e-07
6.58168e-07
6.58134e-07
6.71305e-07
6.78854e-07
6.78871e-07
6.58116e-07
6.47744e-07
6.44753e-07
6.47773e-07
6.44721e-07
6.69184e-07
6.51373e-07
6.6916e-07
6.51392e-07
6.68434e-07
6.4457e-07
6.44506e-07
6.6848e-07
6.68423e-07
6.44467e-07
6.44501e-07
6.68397e-07
6.69192e-07
6.51433e-07
6.69228e-07
6.51399e-07
6.47707e-07
6.447e-07
6.44681e-07
6.47722e-07
6.58101e-07
6.78822e-07
6.7121e-07
6.78833e-07
6.58094e-07
6.58097e-07
6.78851e-07
6.71171e-07
6.78831e-07
6.58114e-07
6.47711e-07
6.44671e-07
6.44683e-07
6.47702e-07
9.52246e-08
7.36103e-08
5.24795e-08
7.36019e-08
9.52338e-08
5.24782e-08