/*--------------------------------*- C++ -*----------------------------------*\
| =========                 |                                                 |
| \\      /  F ield         | OpenFOAM: The Open Source CFD Toolbox           |
|  \\    /   O peration     | Version:  2012                                  |
|   \\  /    A nd           | Website:  www.openfoam.com                      |
|    \\/     M anipulation  |                                                 |
\*---------------------------------------------------------------------------*/
FoamFile
{
    version     2.0;
    format      ascii;
    class       volVectorField;
    location    "0.104/solid";
    object      D_0;
}
// * * * * * * * * * * * * * * * * * * * * * * * * * * * * * * * * * * * * * //

dimensions      [0 1 0 0 0 0 0];


internalField   nonuniform List<vector> 
3125
(
(6.93276e-12 -2.59641e-13 1.42753e-11)
(1.33597e-06 -1.18013e-06 1.57778e-06)
(-1.23871e-11 2.55657e-12 1.34373e-11)
(3.28307e-08 6.51871e-09 3.69391e-08)
(9.01475e-06 -1.06444e-05 3.81688e-06)
(4.70059e-06 -5.28962e-06 2.93819e-06)
(3.57484e-12 -4.00042e-13 3.50827e-11)
(-6.80259e-12 -2.81242e-12 1.37446e-11)
(6.92807e-12 -2.42451e-13 1.42641e-11)
(-2.92358e-11 -1.65806e-11 3.50368e-11)
(3.52573e-12 -7.45291e-13 3.51149e-11)
(1.30907e-06 -1.20054e-06 1.45286e-06)
(-5.42956e-11 6.65379e-13 3.49511e-11)
(-1.60181e-09 -1.01087e-08 -1.27467e-08)
(1.09435e-06 -1.40543e-06 -3.56842e-07)
(3.45184e-08 2.02516e-08 7.14436e-08)
(1.36773e-06 -1.20257e-06 1.70248e-06)
(5.72821e-08 -9.0998e-09 5.88263e-08)
(1.35393e-06 -1.23225e-06 1.63825e-06)
(-1.58493e-09 5.51174e-09 3.58165e-09)
(1.10972e-06 -1.39739e-06 -4.26981e-09)
(3.58392e-08 -1.52287e-08 4.97569e-08)
(1.47967e-06 -1.34617e-06 1.66891e-06)
(4.45303e-06 -4.9814e-06 2.86909e-06)
(1.45279e-06 -1.36771e-06 1.53709e-06)
(4.18285e-06 -5.42726e-06 -6.52053e-07)
(1.38463e-06 -1.78547e-06 -3.99811e-07)
(4.42805e-06 -5.01385e-06 2.64761e-06)
(1.51254e-06 -1.36827e-06 1.80171e-06)
(4.49596e-06 -4.99838e-06 3.10273e-06)
(1.49934e-06 -1.39892e-06 1.73439e-06)
(4.24236e-06 -5.42111e-06 -2.7962e-08)
(1.40568e-06 -1.7777e-06 -7.32502e-09)
(4.49015e-06 -5.03783e-06 2.9936e-06)
(8.99324e-06 -1.0682e-05 3.5275e-06)
(4.68117e-06 -6.06871e-06 -6.81871e-07)
(4.6758e-06 -5.32254e-06 2.71165e-06)
(8.73362e-06 -1.11966e-05 -8.52245e-07)
(9.0614e-06 -1.06563e-05 4.11951e-06)
(4.74391e-06 -5.30628e-06 3.17724e-06)
(9.06144e-06 -1.06988e-05 3.97545e-06)
(4.74536e-06 -6.06279e-06 -3.11275e-08)
(4.73851e-06 -5.34605e-06 3.06561e-06)
(8.82372e-06 -1.11922e-05 -5.50625e-08)
(9.33744e-06 -1.10418e-05 3.86517e-06)
(9.31617e-06 -1.10797e-05 3.57244e-06)
(9.38419e-06 -1.10534e-05 4.17099e-06)
(9.38456e-06 -1.1096e-05 4.0251e-06)
(-2.71296e-11 -1.46159e-10 4.83773e-11)
(-3.47881e-12 -1.89968e-11 4.56284e-11)
(-5.58035e-11 -2.86934e-10 4.92763e-11)
(2.32145e-10 -1.48426e-09 1.37025e-10)
(-2.68468e-10 -1.91429e-09 8.803e-12)
(5.42326e-07 -3.35867e-07 8.98513e-07)
(2.35616e-10 4.23539e-10 6.97015e-11)
(4.59406e-07 -2.62723e-07 7.95331e-07)
(3.05075e-10 5.80652e-10 1.04384e-10)
(6.87059e-06 -7.99073e-06 3.44325e-06)
(6.58196e-06 -7.63204e-06 3.38472e-06)
(-1.95993e-12 -3.62201e-13 4.30462e-11)
(-3.22956e-12 -4.08062e-13 4.69625e-11)
(5.52573e-12 -2.66204e-12 1.40152e-11)
(6.11864e-12 -2.08119e-12 1.41103e-11)
(-1.895e-12 -9.19414e-13 4.33557e-11)
(-2.33973e-12 -9.4397e-12 4.48751e-11)
(-4.43479e-11 -1.28774e-10 5.1258e-11)
(-5.38782e-13 -7.27517e-12 3.5453e-11)
(-6.84231e-12 -1.80922e-11 4.92962e-11)
(-3.22101e-12 -1.00683e-12 4.72306e-11)
(1.76792e-12 -4.36365e-12 3.53461e-11)
(-4.60535e-12 -9.17594e-12 4.86143e-11)
(1.11478e-06 -1.29738e-06 5.34984e-07)
(5.155e-07 -3.45852e-07 8.22966e-07)
(4.30198e-07 -4.81102e-07 3.19843e-07)
(-8.47593e-11 -2.43786e-10 5.12427e-11)
(1.76368e-10 5.69911e-10 2.1476e-11)
(-2.90088e-10 -1.49708e-09 -6.41823e-11)
(5.75609e-12 -3.6004e-09 1.71885e-10)
(2.45261e-07 -2.96328e-07 -1.57997e-07)
(1.19315e-09 -2.80261e-09 1.78748e-08)
(2.48433e-07 -2.99012e-07 1.36626e-07)
(-3.82349e-11 -3.82173e-09 -3.811e-10)
(1.09733e-06 -1.33509e-06 2.98936e-07)
(4.08683e-07 -5.10795e-07 -2.14611e-07)
(4.12163e-07 -4.95644e-07 1.77177e-07)
(4.32832e-07 -2.70605e-07 7.26803e-07)
(5.24717e-10 2.94894e-09 1.06134e-09)
(4.75245e-09 -3.37822e-09 2.90657e-08)
(2.65352e-07 -2.93945e-07 2.44059e-07)
(3.98994e-11 -2.24814e-09 -3.01855e-10)
(5.63658e-07 -3.60897e-07 9.63029e-07)
(4.78823e-07 -2.88541e-07 8.50978e-07)
(1.15952e-06 -1.32779e-06 8.92899e-07)
(5.45021e-07 -3.81351e-07 9.21109e-07)
(4.53029e-07 -5.15941e-07 5.39925e-07)
(2.46555e-07 -2.86126e-07 8.10219e-09)
(2.11189e-09 -1.90537e-08 4.1158e-08)
(2.61284e-07 -3.25696e-07 3.16156e-07)
(1.13488e-06 -1.35617e-06 6.72549e-07)
(4.10908e-07 -4.99686e-07 5.32231e-09)
(4.29209e-07 -5.19534e-07 4.08201e-07)
(4.59493e-07 -3.07708e-07 8.12292e-07)
(7.60294e-09 -2.66351e-08 5.33173e-08)
(2.83039e-07 -3.31373e-07 4.16736e-07)
(2.68494e-06 -2.79316e-06 2.26756e-06)
(2.88423e-06 -3.03766e-06 2.34752e-06)
(1.40411e-06 -1.65243e-06 6.02507e-07)
(2.65868e-06 -2.82092e-06 2.09067e-06)
(2.44401e-06 -2.94817e-06 7.93301e-07)
(2.82851e-06 -3.67208e-06 -5.53652e-07)
(4.18324e-06 -5.23163e-06 5.83535e-07)
(2.82959e-06 -3.51712e-06 4.83863e-07)
(1.38713e-06 -1.69667e-06 3.37847e-07)
(2.42696e-06 -3.14864e-06 -5.17729e-07)
(2.42832e-06 -3.00894e-06 4.48779e-07)
(2.8581e-06 -3.06611e-06 2.16465e-06)
(4.19742e-06 -5.15431e-06 1.02187e-06)
(2.84489e-06 -3.4517e-06 8.53159e-07)
(2.72374e-06 -2.81284e-06 2.45218e-06)
(2.92367e-06 -3.05699e-06 2.53885e-06)
(1.45598e-06 -1.68182e-06 1.00402e-06)
(2.71432e-06 -2.8487e-06 2.3643e-06)
(2.51447e-06 -2.97469e-06 1.31583e-06)
(2.87255e-06 -3.66526e-06 -1.89365e-08)
(4.26807e-06 -5.24745e-06 1.26455e-06)
(2.89944e-06 -3.53483e-06 1.06293e-06)
(1.43183e-06 -1.71703e-06 7.55982e-07)
(2.46541e-06 -3.14159e-06 -1.60435e-08)
(2.49245e-06 -3.0273e-06 9.90273e-07)
(2.91474e-06 -3.09341e-06 2.44817e-06)
(4.2868e-06 -5.17718e-06 1.68127e-06)
(2.92065e-06 -3.47729e-06 1.41254e-06)
(6.84746e-06 -8.02662e-06 3.18021e-06)
(8.7437e-06 -1.08276e-05 1.39297e-06)
(6.89661e-06 -8.53676e-06 1.26722e-06)
(4.68137e-06 -5.86117e-06 6.14889e-07)
(6.30419e-06 -8.14107e-06 -7.62859e-07)
(6.30381e-06 -7.90223e-06 7.03252e-07)
(6.55861e-06 -7.66762e-06 3.12586e-06)
(4.69517e-06 -5.78047e-06 1.07452e-06)
(6.31648e-06 -7.81293e-06 1.22173e-06)
(8.73255e-06 -1.09254e-05 8.07481e-07)
(6.88487e-06 -8.87635e-06 -7.87137e-07)
(6.88431e-06 -8.62848e-06 7.30779e-07)
(6.91616e-06 -8.00479e-06 3.72008e-06)
(6.62732e-06 -7.64642e-06 3.65734e-06)
(6.91383e-06 -8.04645e-06 3.59001e-06)
(8.85663e-06 -1.08436e-05 2.24692e-06)
(7.00252e-06 -8.55525e-06 2.05967e-06)
(4.77052e-06 -5.87637e-06 1.32638e-06)
(6.3809e-06 -8.13582e-06 -4.10867e-08)
(6.40417e-06 -7.91561e-06 1.49607e-06)
(6.62462e-06 -7.68791e-06 3.52943e-06)
(4.78842e-06 -5.80245e-06 1.76379e-06)
(6.41962e-06 -7.83228e-06 1.99076e-06)
(8.84431e-06 -1.09364e-05 1.68689e-06)
(6.96528e-06 -8.87132e-06 -4.45328e-08)
(6.98788e-06 -8.64126e-06 1.54749e-06)
(9.24112e-12 -1.16103e-10 4.00708e-11)
(4.76458e-12 -5.78748e-11 3.77274e-11)
(1.66872e-11 -2.38301e-10 4.38088e-11)
(6.85635e-11 -4.29219e-10 5.35985e-11)
(3.01786e-11 -4.76434e-10 5.60163e-11)
(4.77719e-12 -5.49729e-14 9.86312e-13)
(9.49917e-07 -7.48371e-07 1.29578e-06)
(3.26459e-12 3.2868e-12 -1.3624e-12)
(-1.09323e-11 5.44877e-11 1.69818e-11)
(1.59655e-11 2.47448e-11 1.92998e-12)
(1.73684e-07 -7.96485e-08 3.20725e-07)
(1.15682e-09 3.84912e-09 -5.61615e-11)
(2.01883e-09 1.66318e-09 7.40492e-10)
(8.07039e-06 -9.47825e-06 3.66442e-06)
(5.47598e-06 -6.25551e-06 3.1375e-06)
(-1.54629e-12 -1.52434e-13 3.2806e-11)
(-1.29384e-12 -3.82077e-13 4.57141e-11)
(2.93752e-12 8.45531e-13 -1.24195e-12)
(6.6301e-13 -5.44301e-12 1.36303e-11)
(3.88179e-12 -1.05329e-12 -3.49221e-13)
(4.81947e-12 -7.47584e-14 9.72957e-13)
(6.86916e-12 -7.27821e-13 1.42481e-11)
(4.99501e-12 -1.82266e-13 8.82379e-13)
(-1.40317e-12 -5.46192e-13 3.31021e-11)
(-1.18713e-12 -1.38152e-12 3.34969e-11)
(-4.4402e-11 -4.86093e-11 4.65733e-11)
(-1.3942e-11 -1.5552e-11 3.54963e-11)
(-2.26704e-11 -3.01167e-11 4.71061e-11)
(-1.33599e-12 -8.14e-13 4.58422e-11)
(3.32473e-12 -1.38093e-12 3.51843e-11)
(-1.52827e-12 -1.59763e-12 4.60158e-11)
(1.24848e-06 -1.29947e-06 1.07483e-06)
(9.23029e-07 -7.64929e-07 1.19202e-06)
(8.59277e-07 -8.48451e-07 8.76123e-07)
(-8.38382e-11 -6.99431e-11 4.60316e-11)
(-7.74046e-11 5.45247e-11 2.99506e-11)
(-1.46647e-10 -1.04941e-10 4.0921e-11)
(1.84832e-08 -4.8391e-08 -3.67761e-08)
(2.33556e-08 -1.61831e-09 1.46605e-09)
(-2.10782e-09 -1.71329e-09 -2.80232e-09)
(1.8579e-08 -1.68664e-08 7.30817e-09)
(1.3446e-08 -1.41262e-08 -1.72725e-08)
(1.08762e-06 -1.38837e-06 -1.43564e-07)
(8.3424e-07 -1.06527e-06 -3.11916e-07)
(8.27547e-07 -1.05397e-06 -1.26378e-07)
(1.46105e-07 -1.01326e-07 2.79972e-07)
(2.87473e-08 7.83062e-09 1.87597e-08)
(2.80407e-08 3.68377e-10 4.98282e-08)
(9.57183e-08 -9.10022e-08 2.1577e-07)
(2.01437e-08 1.14408e-08 2.09535e-08)
(9.77789e-07 -7.71866e-07 1.39523e-06)
(2.01764e-07 -1.10137e-07 3.83174e-07)
(1.28196e-06 -1.32312e-06 1.2642e-06)
(9.62052e-07 -7.98133e-07 1.34043e-06)
(8.86772e-07 -8.73297e-07 1.02977e-06)
(3.42872e-08 -1.51152e-08 -1.37563e-10)
(-1.11538e-09 -3.14028e-09 1.64981e-08)
(3.27394e-08 -3.43128e-08 4.17027e-08)
(1.10949e-06 -1.38979e-06 2.23477e-07)
(8.44329e-07 -1.05676e-06 -1.14417e-09)
(8.43318e-07 -1.05533e-06 1.96655e-07)
(1.88674e-07 -1.19583e-07 3.6578e-07)
(1.1036e-08 -1.04453e-08 3.40414e-08)
(1.13526e-07 -1.18958e-07 2.67482e-07)
(1.95439e-06 -1.90726e-06 1.93386e-06)
(3.7446e-06 -4.10082e-06 2.65369e-06)
(1.39312e-06 -1.47116e-06 1.13796e-06)
(1.92771e-06 -1.93177e-06 1.78205e-06)
(1.87095e-06 -2.0469e-06 1.32415e-06)
(3.70736e-06 -4.81296e-06 -6.2077e-07)
(4.17662e-06 -5.36769e-06 -2.4821e-07)
(3.70104e-06 -4.75791e-06 -2.37849e-07)
(1.37789e-06 -1.76252e-06 -1.59676e-07)
(1.70412e-06 -2.20374e-06 -4.40878e-07)
(1.69741e-06 -2.17494e-06 -1.74797e-07)
(3.71909e-06 -4.13174e-06 2.44807e-06)
(4.38191e-06 -5.15935e-06 1.97965e-06)
(3.67026e-06 -4.27143e-06 1.82787e-06)
(1.99015e-06 -1.9283e-06 2.08991e-06)
(3.78622e-06 -4.1188e-06 2.87019e-06)
(1.42848e-06 -1.49439e-06 1.33897e-06)
(1.97866e-06 -1.9615e-06 2.01356e-06)
(1.91119e-06 -2.06903e-06 1.55854e-06)
(3.76195e-06 -4.8066e-06 -2.48795e-08)
(4.24505e-06 -5.3687e-06 4.07754e-07)
(3.76448e-06 -4.75897e-06 3.87973e-07)
(1.4061e-06 -1.76389e-06 2.4956e-07)
(1.73098e-06 -2.19622e-06 -1.0274e-08)
(1.73196e-06 -2.17627e-06 2.74862e-07)
(3.77913e-06 -4.15712e-06 2.76873e-06)
(4.43594e-06 -5.17717e-06 2.32677e-06)
(3.72162e-06 -4.29028e-06 2.15003e-06)
(8.04818e-06 -9.51521e-06 3.38571e-06)
(8.96047e-06 -1.08456e-05 2.64807e-06)
(8.01286e-06 -9.67655e-06 2.53971e-06)
(4.67505e-06 -6.00489e-06 -2.5789e-07)
(5.20144e-06 -6.73582e-06 -7.10257e-07)
(5.19542e-06 -6.66799e-06 -2.66913e-07)
(5.45179e-06 -6.28968e-06 2.89645e-06)
(4.63042e-06 -5.46969e-06 2.02768e-06)
(5.40907e-06 -6.44147e-06 2.16839e-06)
(8.72824e-06 -1.11096e-05 -3.08611e-07)
(8.10047e-06 -1.04054e-05 -8.31798e-07)
(8.09497e-06 -1.03211e-05 -3.03027e-07)
(8.11667e-06 -9.49105e-06 3.95677e-06)
(5.5203e-06 -6.27118e-06 3.39182e-06)
(8.11572e-06 -9.53326e-06 3.81845e-06)
(9.02383e-06 -1.0858e-05 3.09614e-06)
(8.07505e-06 -9.68992e-06 2.97275e-06)
(4.74818e-06 -6.00585e-06 4.26577e-07)
(5.27005e-06 -6.73012e-06 -3.43739e-08)
(5.27298e-06 -6.6689e-06 4.4445e-07)
(5.5161e-06 -6.3118e-06 3.27299e-06)
(4.68534e-06 -5.48713e-06 2.38274e-06)
(5.46618e-06 -6.4579e-06 2.54571e-06)
(8.82701e-06 -1.11102e-05 5.32714e-07)
(8.18756e-06 -1.04008e-05 -5.1535e-08)
(8.1908e-06 -1.03217e-05 5.20151e-07)
(9.28408e-06 -1.12437e-05 2.68194e-06)
(9.34784e-06 -1.12558e-05 3.13473e-06)
(6.62914e-13 -1.40224e-11 3.53422e-11)
(2.19741e-12 -2.85421e-11 3.63643e-11)
(-5.29771e-12 -1.41554e-10 4.45268e-11)
(-1.28254e-11 -7.46783e-11 4.7358e-11)
(-1.5898e-12 -7.0913e-11 4.30589e-11)
(-2.13737e-13 -1.74351e-11 4.10475e-11)
(-6.29815e-12 -3.77794e-11 4.64876e-11)
(-4.12173e-13 -3.52139e-11 4.20021e-11)
(-1.50392e-11 -2.87312e-10 4.61207e-11)
(-1.09807e-10 -5.49069e-10 5.17111e-11)
(-3.74867e-11 -5.65813e-10 5.28098e-11)
(1.01266e-10 -8.89908e-10 5.68916e-11)
(9.82672e-11 -2.04741e-09 1.36074e-10)
(4.14354e-11 -1.07237e-09 6.22589e-11)
(-1.84503e-10 -1.07475e-09 4.21622e-11)
(-1.02945e-10 -2.10482e-09 7.75232e-11)
(-7.88193e-11 -1.19103e-09 4.84459e-11)
(8.36545e-07 -6.27368e-07 1.19893e-06)
(-6.27683e-12 1.1132e-10 1.74043e-11)
(1.59557e-10 1.70873e-10 5.20353e-11)
(2.86764e-11 4.35219e-11 6.41491e-12)
(2.44925e-07 -1.12483e-07 4.49342e-07)
(3.87058e-09 2.73462e-09 4.71073e-10)
(2.71847e-10 2.75962e-10 9.46012e-11)
(1.27456e-09 9.63114e-10 4.71969e-10)
(7.76387e-06 -9.09881e-06 3.61106e-06)
(5.74497e-06 -6.59053e-06 3.20128e-06)
(-1.01305e-12 -2.66269e-13 3.83963e-11)
(-3.23875e-12 -4.13398e-13 4.84916e-11)
(2.91154e-12 -4.7036e-12 1.38661e-11)
(4.81227e-12 -6.59532e-13 5.13022e-13)
(4.22035e-12 -1.05675e-12 -6.73226e-14)
(6.75517e-12 -8.97147e-13 1.42189e-11)
(4.87519e-12 -5.28808e-13 6.42863e-13)
(5.02568e-12 -2.41666e-13 8.37509e-13)
(-2.50349e-13 -6.76455e-12 3.45772e-11)
(-8.32159e-13 -3.17867e-12 3.39841e-11)
(-8.95219e-13 -7.56188e-13 3.87122e-11)
(-1.84828e-12 -2.1289e-12 4.37838e-11)
(-7.38035e-13 -1.83153e-12 3.91472e-11)
(-3.33716e-13 -8.52461e-12 4.0264e-11)
(-1.9295e-12 -4.6019e-12 4.42859e-11)
(-5.40072e-13 -4.07848e-12 3.96612e-11)
(-5.16877e-11 -9.28323e-11 5.11159e-11)
(-2.25564e-11 -6.74944e-11 5.0705e-11)
(-2.68498e-11 -5.08934e-11 5.12274e-11)
(-5.14636e-12 -1.13452e-11 3.55151e-11)
(-5.88737e-12 -1.03107e-11 4.67897e-11)
(-1.14338e-11 -1.79671e-11 4.7037e-11)
(-1.18504e-11 -3.51147e-11 5.00045e-11)
(-8.06596e-12 -1.48448e-11 5.0299e-11)
(-1.42178e-11 -2.76994e-11 5.08084e-11)
(-3.28105e-12 -9.64401e-13 4.8698e-11)
(-3.28892e-12 -2.20009e-12 4.75787e-11)
(-3.47939e-12 -1.9992e-12 4.89611e-11)
(2.8364e-12 -2.49131e-12 3.52697e-11)
(-3.2423e-12 -5.70486e-12 4.65142e-11)
(-2.04268e-12 -3.07163e-12 4.62418e-11)
(-3.63704e-12 -4.56842e-12 4.80368e-11)
(-5.24106e-12 -7.78873e-12 4.97863e-11)
(-3.99625e-12 -4.00343e-12 4.93227e-11)
(1.14089e-06 -1.2514e-06 7.81434e-07)
(8.55537e-07 -9.83153e-07 4.65394e-07)
(8.82322e-07 -9.44619e-07 6.81491e-07)
(8.09737e-07 -6.42441e-07 1.1024e-06)
(4.47219e-07 -4.02014e-07 5.94925e-07)
(7.44876e-07 -7.19842e-07 8.08717e-07)
(6.27202e-07 -7.10861e-07 3.93651e-07)
(4.57488e-07 -4.60246e-07 4.70677e-07)
(6.5442e-07 -6.80728e-07 5.77998e-07)
(-9.67663e-11 -1.6545e-10 5.0189e-11)
(-1.54509e-10 -4.57726e-10 4.79853e-11)
(-1.70831e-10 -3.03098e-10 4.28864e-11)
(-9.16219e-11 2.98486e-10 4.7063e-11)
(-2.17539e-10 -2.20624e-10 8.20635e-12)
(-2.22876e-10 -6.7265e-11 4.77197e-11)
(-2.35793e-10 -8.38586e-10 2.97219e-11)
(-2.94199e-10 -9.4919e-10 -9.31712e-11)
(-2.51425e-10 -5.09e-10 2.33268e-11)
(4.23525e-09 1.59088e-09 5.67043e-09)
(2.01091e-10 -6.12803e-09 -4.26981e-10)
(4.44573e-09 -5.22718e-09 1.48191e-10)
(1.14742e-07 -1.31546e-07 -9.18361e-08)
(2.38864e-07 -2.98205e-07 -6.15225e-08)
(1.07098e-07 -1.33827e-07 -3.22582e-08)
(-4.45368e-10 -2.52555e-09 7.0606e-09)
(2.99634e-08 -3.41877e-08 6.50301e-08)
(3.90941e-09 -4.60013e-09 -9.26707e-10)
(2.29488e-08 -2.46679e-08 3.38969e-08)
(3.67697e-09 -1.04925e-08 -1.01695e-08)
(2.40212e-07 -3.00358e-07 3.54029e-08)
(1.17599e-07 -1.47321e-07 9.68932e-08)
(1.09546e-07 -1.41392e-07 3.04413e-08)
(1.82962e-11 -4.9382e-09 -4.26705e-10)
(8.10982e-10 -3.92173e-09 -1.0021e-09)
(7.27136e-10 -5.33632e-09 -1.13818e-09)
(1.0887e-06 -1.36531e-06 7.344e-08)
(8.37657e-07 -1.01375e-06 2.59068e-07)
(8.28788e-07 -1.0372e-06 6.2501e-08)
(6.05377e-07 -7.66375e-07 -2.64569e-07)
(4.02093e-07 -5.09318e-07 -8.70142e-08)
(5.98814e-07 -7.60496e-07 -1.07664e-07)
(6.09083e-07 -7.33671e-07 2.18426e-07)
(4.03438e-07 -5.0484e-07 4.23536e-08)
(6.00137e-07 -7.50035e-07 5.20413e-08)
(2.10928e-07 -1.18367e-07 4.01997e-07)
(3.62768e-07 -3.18583e-07 5.21754e-07)
(1.5085e-07 -1.33645e-07 2.90402e-07)
(4.13293e-09 -6.96793e-09 -7.80474e-12)
(5.05957e-10 5.91879e-10 2.60791e-10)
(1.10639e-09 -5.43635e-10 -1.30968e-10)
(1.09017e-08 -2.86134e-09 3.98043e-08)
(4.04672e-08 -4.571e-08 9.7965e-08)
(6.56119e-09 2.38198e-09 9.46043e-09)
(5.37793e-08 -5.86562e-08 1.27033e-07)
(1.05919e-08 1.06884e-08 1.92986e-08)
(2.90826e-07 -2.83661e-07 3.57906e-07)
(1.31891e-07 -1.50749e-07 1.6856e-07)
(1.56807e-07 -1.49471e-07 2.44196e-07)
(3.17509e-10 -8.6065e-10 -2.17122e-10)
(1.3963e-09 -2.39218e-09 -8.56464e-10)
(2.40452e-09 -1.11667e-09 -9.27777e-10)
(8.62903e-07 -6.51224e-07 1.28966e-06)
(2.65896e-07 -1.42021e-07 5.00727e-07)
(1.19156e-06 -1.28821e-06 1.11846e-06)
(8.92817e-07 -1.0147e-06 7.78332e-07)
(9.25531e-07 -9.82772e-07 9.75228e-07)
(8.46486e-07 -6.76195e-07 1.23808e-06)
(4.66108e-07 -4.2929e-07 7.00337e-07)
(7.70217e-07 -7.4518e-07 9.50118e-07)
(6.56936e-07 -7.43716e-07 6.60457e-07)
(4.85428e-07 -5.02445e-07 6.76288e-07)
(6.89825e-07 -7.20438e-07 8.27629e-07)
(1.18934e-07 -1.12551e-07 1.41239e-08)
(2.43113e-07 -3.0125e-07 1.12202e-07)
(1.15031e-07 -1.34759e-07 8.5028e-08)
(-6.63053e-10 -1.09495e-08 2.88892e-08)
(4.24858e-08 -7.31492e-08 1.25493e-07)
(3.52703e-08 -5.45221e-08 8.48906e-08)
(2.4827e-07 -3.14963e-07 2.14824e-07)
(1.30249e-07 -1.76238e-07 2.25263e-07)
(1.19455e-07 -1.56879e-07 1.55736e-07)
(1.11822e-06 -1.37642e-06 4.49362e-07)
(8.6793e-07 -1.03557e-06 5.86611e-07)
(8.51506e-07 -1.04865e-06 3.92767e-07)
(6.10888e-07 -7.57282e-07 2.12412e-09)
(4.08041e-07 -5.09773e-07 1.41249e-07)
(6.09044e-07 -7.61751e-07 1.69211e-07)
(6.32271e-07 -7.56378e-07 4.98345e-07)
(4.14479e-07 -5.16853e-07 2.75543e-07)
(6.16455e-07 -7.61852e-07 3.34738e-07)
(2.45351e-07 -1.56727e-07 4.76438e-07)
(3.80339e-07 -3.4663e-07 6.15581e-07)
(1.66896e-07 -1.64824e-07 3.53162e-07)
(1.73048e-08 -3.41447e-08 6.67474e-08)
(5.57826e-08 -8.92544e-08 1.66339e-07)
(7.33252e-08 -1.00241e-07 2.0714e-07)
(3.13162e-07 -3.28426e-07 5.21331e-07)
(1.48588e-07 -1.91581e-07 2.94372e-07)
(1.75872e-07 -1.99894e-07 3.66144e-07)
(2.1268e-06 -2.11445e-06 2.01937e-06)
(3.52025e-06 -3.8227e-06 2.5792e-06)
(1.42954e-06 -1.59981e-06 8.78184e-07)
(1.7227e-06 -2.04693e-06 6.68021e-07)
(1.74746e-06 -1.98836e-06 9.71909e-07)
(2.1002e-06 -2.13985e-06 1.86111e-06)
(2.60555e-06 -2.9486e-06 1.55778e-06)
(2.04429e-06 -2.25841e-06 1.38335e-06)
(2.06964e-06 -2.47938e-06 7.31601e-07)
(2.46751e-06 -2.87935e-06 1.15075e-06)
(2.09375e-06 -2.41543e-06 1.06274e-06)
(3.25561e-06 -4.22738e-06 -5.87983e-07)
(2.82201e-06 -3.62681e-06 -2.14975e-07)
(3.2492e-06 -4.17709e-06 -2.2678e-07)
(4.1767e-06 -5.30278e-06 1.6111e-07)
(3.70797e-06 -4.63006e-06 5.51243e-07)
(3.70121e-06 -4.69725e-06 1.50384e-07)
(2.82237e-06 -3.57548e-06 1.28651e-07)
(3.25644e-06 -4.05802e-06 5.18018e-07)
(3.24946e-06 -4.12095e-06 1.39559e-07)
(1.37881e-06 -1.73329e-06 8.44896e-08)
(1.70617e-06 -2.09716e-06 3.75785e-07)
(1.69816e-06 -2.13977e-06 9.5577e-08)
(2.05186e-06 -2.65866e-06 -4.80161e-07)
(2.42038e-06 -3.10865e-06 -2.02401e-07)
(2.04521e-06 -2.62417e-06 -1.89023e-07)
(2.05354e-06 -2.53509e-06 4.12757e-07)
(2.42086e-06 -3.06241e-06 1.17674e-07)
(2.04581e-06 -2.58332e-06 1.06644e-07)
(3.49458e-06 -3.85305e-06 2.3791e-06)
(2.80578e-06 -3.19647e-06 1.61318e-06)
(3.44498e-06 -3.99065e-06 1.77618e-06)
(4.21855e-06 -5.06993e-06 1.47551e-06)
(3.72251e-06 -4.5564e-06 9.67435e-07)
(3.74423e-06 -4.47539e-06 1.39837e-06)
(2.86779e-06 -3.37844e-06 1.23601e-06)
(3.27136e-06 -3.98832e-06 9.112e-07)
(3.29367e-06 -3.91101e-06 1.31854e-06)
(2.1634e-06 -2.13515e-06 2.18282e-06)
(3.56139e-06 -3.84102e-06 2.78965e-06)
(1.48712e-06 -1.6354e-06 1.25725e-06)
(1.78124e-06 -2.07534e-06 1.11157e-06)
(1.81135e-06 -2.02277e-06 1.39151e-06)
(2.15245e-06 -2.16908e-06 2.10352e-06)
(2.65132e-06 -2.96926e-06 1.83352e-06)
(2.08608e-06 -2.28015e-06 1.62849e-06)
(2.13437e-06 -2.50683e-06 1.2155e-06)
(2.54242e-06 -2.91149e-06 1.64648e-06)
(2.16341e-06 -2.4487e-06 1.52125e-06)
(3.30504e-06 -4.22079e-06 -2.18746e-08)
(2.87464e-06 -3.62798e-06 3.4553e-07)
(3.30738e-06 -4.1782e-06 3.6723e-07)
(4.25406e-06 -5.31108e-06 8.39447e-07)
(3.78814e-06 -4.64651e-06 1.20005e-06)
(3.77365e-06 -4.70588e-06 7.97082e-07)
(2.88403e-06 -3.5848e-06 7.06825e-07)
(3.33164e-06 -4.0751e-06 1.13285e-06)
(3.31667e-06 -4.12993e-06 7.52877e-07)
(1.41518e-06 -1.74402e-06 5.04362e-07)
(1.75772e-06 -2.11684e-06 8.36783e-07)
(1.74126e-06 -2.15014e-06 5.57666e-07)
(2.08457e-06 -2.65138e-06 -1.31694e-08)
(2.46721e-06 -3.10986e-06 3.22885e-07)
(2.08599e-06 -2.62544e-06 2.99317e-07)
(2.11157e-06 -2.5541e-06 9.14889e-07)
(2.47663e-06 -3.07207e-06 6.5893e-07)
(2.0954e-06 -2.59333e-06 6.09201e-07)
(3.55385e-06 -3.87891e-06 2.69084e-06)
(2.85283e-06 -3.21675e-06 1.89873e-06)
(3.49528e-06 -4.00987e-06 2.08948e-06)
(4.31035e-06 -5.09766e-06 2.10301e-06)
(3.80771e-06 -4.58016e-06 1.59523e-06)
(3.83235e-06 -4.50421e-06 1.99546e-06)
(2.9475e-06 -3.40946e-06 1.76723e-06)
(3.35203e-06 -4.01299e-06 1.50567e-06)
(3.37777e-06 -3.94093e-06 1.88355e-06)
(7.74143e-06 -9.13553e-06 3.33612e-06)
(6.80884e-06 -8.18435e-06 2.38341e-06)
(7.70539e-06 -9.29616e-06 2.50238e-06)
(8.76013e-06 -1.07249e-05 1.99729e-06)
(8.1111e-06 -1.00454e-05 1.35284e-06)
(8.12811e-06 -9.94433e-06 1.94125e-06)
(6.91481e-06 -8.43937e-06 1.82136e-06)
(7.49511e-06 -9.28139e-06 1.31092e-06)
(7.51272e-06 -9.18204e-06 1.88261e-06)
(4.67504e-06 -5.936e-06 1.7172e-07)
(5.20144e-06 -6.51712e-06 6.45299e-07)
(5.19533e-06 -6.59537e-06 1.82199e-07)
(5.74274e-06 -7.42709e-06 -7.37242e-07)
(6.29837e-06 -8.06595e-06 -2.83089e-07)
(5.73682e-06 -7.3555e-06 -2.75304e-07)
(5.74255e-06 -7.19797e-06 6.74756e-07)
(6.29812e-06 -7.98661e-06 2.027e-07)
(5.73666e-06 -7.2794e-06 1.92531e-07)
(5.72098e-06 -6.62508e-06 2.95561e-06)
(6.51926e-06 -7.82438e-06 2.34256e-06)
(5.679e-06 -6.77815e-06 2.2128e-06)
(4.71572e-06 -5.69299e-06 1.54999e-06)
(5.21487e-06 -6.43331e-06 1.12538e-06)
(5.23484e-06 -6.343e-06 1.6218e-06)
(6.33528e-06 -7.71768e-06 1.75748e-06)
(5.75561e-06 -7.1113e-06 1.17445e-06)
(5.77499e-06 -7.0184e-06 1.69096e-06)
(8.72771e-06 -1.10194e-05 2.41424e-07)
(8.09956e-06 -1.01414e-05 7.829e-07)
(8.09452e-06 -1.02333e-05 2.32066e-07)
(7.48393e-06 -9.63157e-06 -8.10106e-07)
(6.87916e-06 -8.79794e-06 -2.90288e-07)
(7.47832e-06 -9.55009e-06 -2.96926e-07)
(7.48319e-06 -9.37532e-06 7.57331e-07)
(6.87884e-06 -8.71558e-06 2.12689e-07)
(7.47794e-06 -9.46493e-06 2.22482e-07)
(7.80999e-06 -9.11192e-06 3.89973e-06)
(5.78958e-06 -6.60587e-06 3.46039e-06)
(7.80871e-06 -9.15402e-06 3.76342e-06)
(6.86908e-06 -8.19905e-06 2.79372e-06)
(7.7671e-06 -9.30988e-06 2.92998e-06)
(8.87191e-06 -1.07443e-05 2.8119e-06)
(8.22189e-06 -1.00622e-05 2.1877e-06)
(8.23815e-06 -9.9647e-06 2.73752e-06)
(7.02079e-06 -8.46179e-06 2.57684e-06)
(7.60358e-06 -9.29902e-06 2.12531e-06)
(7.62083e-06 -9.20344e-06 2.65919e-06)
(4.75701e-06 -5.94397e-06 8.79984e-07)
(5.29461e-06 -6.5317e-06 1.38555e-06)
(5.28161e-06 -6.60301e-06 9.18711e-07)
(5.81553e-06 -7.42161e-06 -3.76967e-08)
(6.38398e-06 -8.06676e-06 4.77403e-07)
(5.81854e-06 -7.35636e-06 4.61386e-07)
(5.83946e-06 -7.21194e-06 1.4421e-06)
(6.39219e-06 -7.99361e-06 9.90827e-07)
(5.82696e-06 -7.28672e-06 9.5565e-07)
(5.78577e-06 -6.64674e-06 3.33922e-06)
(6.57891e-06 -7.83944e-06 2.74665e-06)
(5.73685e-06 -6.79421e-06 2.59718e-06)
(4.81089e-06 -5.71964e-06 2.20623e-06)
(5.31169e-06 -6.4544e-06 1.84286e-06)
(5.33308e-06 -6.36858e-06 2.30518e-06)
(6.43891e-06 -7.74115e-06 2.49043e-06)
(5.85572e-06 -7.13151e-06 1.9185e-06)
(5.87605e-06 -7.04292e-06 2.3999e-06)
(8.83431e-06 -1.10252e-05 1.11454e-06)
(8.20881e-06 -1.0153e-05 1.64286e-06)
(8.19833e-06 -1.02394e-05 1.08609e-06)
(7.56779e-06 -9.62676e-06 -4.80198e-08)
(6.96842e-06 -8.7987e-06 4.9252e-07)
(7.57099e-06 -9.55081e-06 5.06761e-07)
(7.58972e-06 -9.38751e-06 1.59641e-06)
(6.9764e-06 -8.72226e-06 1.02427e-06)
(7.57874e-06 -9.4713e-06 1.05602e-06)
(-2.10945e-12 -2.57023e-13 2.55601e-11)
(-6.50971e-12 -4.74883e-13 5.28774e-11)
(6.92315e-12 -1.44523e-13 1.43179e-11)
(8.82648e-12 -2.09946e-13 9.87919e-12)
(-6.531e-12 -4.17638e-13 5.30423e-11)
(-2.11426e-12 -3.76774e-13 2.53497e-11)
(8.84396e-12 -9.5896e-14 9.9242e-12)
(1.19971e-06 -1.02498e-06 1.48521e-06)
(-2.80821e-11 3.00617e-11 1.72417e-11)
(-2.39297e-12 6.37142e-12 8.41486e-12)
(-5.13138e-11 1.2039e-11 4.89655e-11)
(-1.38127e-11 1.11429e-11 1.44705e-11)
(-3.08204e-11 1.39915e-11 2.03753e-11)
(-5.35454e-11 2.94613e-11 4.40663e-11)
(-1.71285e-12 1.43832e-11 8.75246e-12)
(2.37366e-08 1.01236e-08 -4.48617e-09)
(7.31648e-08 2.17406e-09 1.49067e-07)
(1.78558e-08 1.74188e-08 1.44395e-08)
(3.82478e-08 9.28611e-10 2.23117e-08)
(3.86557e-08 2.36211e-08 3.68493e-08)
(5.98483e-08 -2.95205e-09 3.90384e-08)
(2.90785e-08 8.17625e-09 9.45939e-09)
(8.69593e-06 -1.02512e-05 3.76732e-06)
(4.95368e-06 -5.60485e-06 3.00596e-06)
(-2.11063e-11 -4.01332e-12 2.21864e-11)
(2.14176e-13 6.64311e-13 8.41686e-12)
(-3.92161e-11 -3.15207e-12 4.93137e-11)
(-4.61743e-12 -4.99559e-12 1.33864e-11)
(-2.38419e-11 5.60663e-13 2.07955e-11)
(-3.41089e-11 -8.52341e-12 5.08026e-11)
(1.4487e-12 -1.58236e-12 8.52575e-12)
(-2.18347e-12 -6.68875e-13 2.55148e-11)
(-6.54958e-12 -6.82705e-13 5.28589e-11)
(8.83627e-12 -1.83072e-13 9.86802e-12)
(6.92449e-12 -4.01155e-13 1.42872e-11)
(-2.14512e-12 -4.7307e-13 2.5342e-11)
(-6.65027e-12 -8.34902e-13 5.30736e-11)
(8.87499e-12 -3.34561e-13 9.88291e-12)
(1.11315e-06 -1.05857e-06 1.08663e-06)
(1.2735e-06 -1.19008e-06 1.29723e-06)
(1.28781e-06 -1.23736e-06 1.3236e-06)
(1.17279e-06 -1.0442e-06 1.36725e-06)
(1.13847e-06 -1.03319e-06 1.22157e-06)
(1.15115e-06 -1.07945e-06 1.2449e-06)
(1.24813e-06 -1.21682e-06 1.15438e-06)
(1.23027e-06 -1.04778e-06 1.60165e-06)
(1.11159e-07 -3.15057e-08 1.9361e-07)
(1.22025e-06 -1.13915e-06 1.57278e-06)
(1.32742e-06 -1.26553e-06 1.50799e-06)
(1.37868e-06 -1.26485e-06 1.74722e-06)
(1.21585e-06 -1.0764e-06 1.54053e-06)
(1.18893e-06 -1.10807e-06 1.41741e-06)
(1.23919e-06 -1.10915e-06 1.64218e-06)
(1.36048e-06 -1.29614e-06 1.67402e-06)
(7.86484e-08 -7.52636e-08 1.65582e-07)
(7.70845e-08 -4.25772e-08 1.43991e-07)
(2.36957e-08 -1.02413e-08 4.31113e-08)
(4.60414e-08 -3.85249e-08 6.63157e-08)
(6.83137e-08 -3.94139e-08 1.2962e-07)
(9.36591e-08 -6.92846e-08 1.81085e-07)
(3.63002e-08 -3.99215e-08 5.63941e-08)
(1.63071e-06 -1.52287e-06 1.75864e-06)
(4.21109e-06 -4.68038e-06 2.79864e-06)
(1.54065e-06 -1.56525e-06 1.2867e-06)
(1.41607e-06 -1.35778e-06 1.37172e-06)
(1.43185e-06 -1.40598e-06 1.40093e-06)
(1.60389e-06 -1.54547e-06 1.62006e-06)
(1.39064e-06 -1.38581e-06 1.22101e-06)
(1.56608e-06 -1.53603e-06 1.44513e-06)
(1.58331e-06 -1.58509e-06 1.47717e-06)
(4.11447e-06 -4.74772e-06 2.05368e-06)
(4.18593e-06 -4.71235e-06 2.58233e-06)
(4.3809e-06 -5.00997e-06 2.35952e-06)
(4.41194e-06 -5.0655e-06 2.42069e-06)
(4.1392e-06 -4.70814e-06 2.30107e-06)
(4.1695e-06 -4.76344e-06 2.36069e-06)
(4.35629e-06 -5.05008e-06 2.10621e-06)
(1.66461e-06 -1.54462e-06 1.89936e-06)
(4.25362e-06 -4.6977e-06 3.02673e-06)
(1.66255e-06 -1.64203e-06 1.87143e-06)
(1.47325e-06 -1.4337e-06 1.597e-06)
(1.52542e-06 -1.43137e-06 1.85052e-06)
(1.65201e-06 -1.57618e-06 1.829e-06)
(1.50794e-06 -1.46384e-06 1.7735e-06)
(1.62633e-06 -1.61236e-06 1.68468e-06)
(1.67932e-06 -1.60845e-06 1.95214e-06)
(4.27681e-06 -4.80875e-06 2.99537e-06)
(4.2474e-06 -4.73679e-06 2.92011e-06)
(4.47012e-06 -5.08676e-06 2.76317e-06)
(4.52904e-06 -5.06648e-06 3.19837e-06)
(4.22696e-06 -4.78511e-06 2.69508e-06)
(4.28571e-06 -4.76574e-06 3.12004e-06)
(4.52066e-06 -5.10994e-06 3.07069e-06)
(8.6013e-06 -1.03344e-05 2.78423e-06)
(8.67419e-06 -1.02886e-05 3.4814e-06)
(8.94247e-06 -1.06829e-05 3.15361e-06)
(8.9819e-06 -1.0739e-05 3.22928e-06)
(8.62352e-06 -1.02892e-05 3.11167e-06)
(8.66255e-06 -1.03454e-05 3.18685e-06)
(8.92044e-06 -1.07283e-05 2.8222e-06)
(4.85683e-06 -5.67607e-06 2.20848e-06)
(4.92908e-06 -5.63822e-06 2.77448e-06)
(4.62827e-06 -5.31899e-06 2.41691e-06)
(4.65998e-06 -5.37472e-06 2.47946e-06)
(4.88119e-06 -5.63499e-06 2.47328e-06)
(4.60377e-06 -5.3596e-06 2.15778e-06)
(4.91358e-06 -5.69088e-06 2.53721e-06)
(8.74247e-06 -1.02634e-05 4.06665e-06)
(4.99735e-06 -5.62118e-06 3.25025e-06)
(8.78535e-06 -1.03772e-05 4.0182e-06)
(8.74219e-06 -1.03058e-05 3.92446e-06)
(9.04744e-06 -1.07538e-05 3.67239e-06)
(9.10633e-06 -1.07223e-05 4.23932e-06)
(8.72782e-06 -1.03606e-05 3.62515e-06)
(8.78684e-06 -1.03296e-05 4.18555e-06)
(9.10525e-06 -1.077e-05 4.06975e-06)
(5.02495e-06 -5.73358e-06 3.21659e-06)
(4.99236e-06 -5.66126e-06 3.13619e-06)
(4.71886e-06 -5.39555e-06 2.82982e-06)
(4.77793e-06 -5.37439e-06 3.27507e-06)
(4.77007e-06 -5.41828e-06 3.14438e-06)
(4.97311e-06 -5.7113e-06 2.8952e-06)
(5.0323e-06 -5.68929e-06 3.35019e-06)
(9.26531e-06 -1.10808e-05 3.19452e-06)
(9.30511e-06 -1.11368e-05 3.27058e-06)
(9.24348e-06 -1.11264e-05 2.85923e-06)
(9.3709e-06 -1.11512e-05 3.71835e-06)
(9.42966e-06 -1.11192e-05 4.29163e-06)
(9.42898e-06 -1.1167e-05 4.11985e-06)
(6.32922e-07 -4.20988e-07 1.00063e-06)
(1.65255e-10 5.70044e-10 2.45119e-11)
(1.45284e-10 3.12398e-10 1.69637e-11)
(4.95565e-10 6.7432e-10 -1.0332e-10)
(2.47572e-10 3.53323e-10 5.13652e-11)
(5.20036e-10 6.76124e-10 -2.66404e-11)
(2.28797e-10 7.47826e-10 9.22514e-11)
(1.16085e-10 2.49444e-10 2.6318e-11)
(3.82149e-07 -2.01589e-07 6.86954e-07)
(1.65055e-09 1.54865e-09 -6.3275e-11)
(5.79935e-10 8.65904e-10 2.25597e-10)
(5.70905e-10 1.69965e-09 6.01842e-10)
(3.40946e-10 5.37608e-10 8.57929e-11)
(5.12953e-10 1.28749e-09 1.71545e-10)
(1.51557e-09 8.80407e-10 1.48343e-10)
(6.40898e-10 8.02868e-10 1.3751e-10)
(7.16386e-06 -8.35488e-06 3.50047e-06)
(6.29807e-06 -7.27899e-06 3.32488e-06)
(-6.05466e-12 -5.1362e-12 2.47005e-11)
(5.03058e-12 -3.26026e-12 1.40291e-11)
(-1.04225e-11 -5.96564e-12 5.28528e-11)
(7.96338e-12 -1.80819e-12 9.48578e-12)
(-4.9116e-12 -4.20411e-12 2.46627e-11)
(-1.18774e-11 -7.03546e-12 5.31748e-11)
(7.57789e-12 -2.27986e-12 9.40791e-12)
(-3.3691e-12 -2.6139e-12 2.51504e-11)
(6.35907e-12 -1.62459e-12 1.41566e-11)
(-9.033e-12 -4.52234e-12 5.30474e-11)
(8.31918e-12 -1.51309e-12 9.58851e-12)
(-3.98394e-12 -3.34713e-12 2.49037e-11)
(-8.30779e-12 -3.71239e-12 5.30533e-11)
(8.54826e-12 -1.12455e-12 9.68777e-12)