/*--------------------------------*- C++ -*----------------------------------*\
| =========                 |                                                 |
| \\      /  F ield         | OpenFOAM: The Open Source CFD Toolbox           |
|  \\    /   O peration     | Version:  2012                                  |
|   \\  /    A nd           | Website:  www.openfoam.com                      |
|    \\/     M anipulation  |                                                 |
\*---------------------------------------------------------------------------*/
FoamFile
{
    version     2.0;
    format      ascii;
    class       volScalarField;
    location    "0.104/solid";
    object      sigmaHyd;
}
// * * * * * * * * * * * * * * * * * * * * * * * * * * * * * * * * * * * * * //

dimensions      [1 -1 -2 0 0 0 0];


internalField   nonuniform List<scalar> 
3125
(
216.077
132685
131.121
184430
70881.9
99051.1
270.497
155.733
215.994
202.313
270.352
118692
159.176
-87328.8
-48212.2
88253
151037
222089
150759
54458.2
14249.2
265635
130639
100979
116893
-31988.6
-45850.3
91231.1
148518
112546
148187
6381.25
12995.9
111626
64912.3
-30255.8
89557.9
-19385.1
77139.6
110242
75994.2
5628.83
109294
1498.21
69060.9
63307.6
75039.1
73898.3
219.133
303.132
131.09
430.345
-1598.22
147999
747.777
151614
744.944
83840.7
85717.2
302.558
320.433
208.206
210.679
304.039
306.381
234.897
260.713
319.058
321.609
266.154
322.85
39060.8
132548
41925.4
147.576
788.206
-1317.8
7558.21
-56550
43950
17243.6
-1548.17
16559.9
-57405.7
15789.2
138583
787.489
79292.3
44491.6
-1578.02
169647
173121
98955.5
169501
111866
23104.4
157972
93132.5
77984.2
18512.1
88720.4
173279
188874
116560
116595
114623
38275.8
104741
36096.2
-37475.8
16328
16613
16595.2
-39421.2
16654.4
103036
33034.1
35353.8
131376
128980
95099.9
130728
84285.7
8906.59
54862.7
63007.1
74761.6
9846.34
65835.4
128294
70847.7
80837.4
76298.8
26025.8
28797.2
16180.5
-25323.3
15582.8
77943
32225.2
29683.1
14418
-23768.2
15330.4
92230.6
94434.2
91120.3
46700.2
55309.4
52252.7
3620.59
44734.5
93345.3
67628.2
58302.3
35480.8
3031.25
42337.1
215.23
243.524
180.581
7.81225
83.9946
22.236
138935
-56.1425
116.492
-87.2201
184552
20010.9
7852.49
76398.5
93309.8
256.384
323.495
-42.7428
186.934
-12.9691
21.6979
215.271
18.6416
258.109
260.104
257.966
231.67
290.581
323.963
269.993
324.287
87848.3
124216
90885.4
202.612
130.122
124.745
239666
-84185.9
-20976.7
-43682.6
4583.67
-25557.5
-50919.6
-27368.7
166655
-54176.3
144442
121679
25781.8
158724
171576
125721
158597
133009
20740.9
92831.7
51564.3
35438.7
15513.3
37446.9
182335
240878
166814
124571
106802
85895.8
111631
82843
-33767.1
-15085.9
-16192.8
-23996.9
-43571.8
-22487.6
96271.6
68376.3
71733.5
141091
119531
123516
140609
116857
7176.56
22577.6
23983.1
33526.6
11893.2
31780.8
118696
92310.1
98002.4
69766.7
49416
52952.9
-14018.4
-28567.4
-12988.8
84563.5
67034.9
63604.1
-7609.27
-20798.2
-8408.53
83530.8
103407
82381.3
62574.3
67424.7
21216.8
4918.33
19900.7
102383
90033.4
84558.2
12925.1
1970.91
13976.5
48295.5
60387.5
261.656
256.351
212.474
270.169
257.911
286.097
293.081
277.698
136.305
-87.2745
-76.0778
166.991
-854.327
190.983
-305.104
-1877.3
-262.99
141122
60.7484
182.98
-79.8192
178814
7822.02
576.584
3815.28
78247.8
91403.2
283.419
333.87
195.638
9.06137
-5.59844
214.743
12.3839
17.3232
262.721
261.886
285.072
305.709
286.976
288.492
306.793
288.412
254.478
284.603
297.809
250.219
318.688
309.095
308.135
330.73
319.894
334.724
322.724
335.413
268.855
322.709
324.105
323.45
334.769
335.715
59794.1
39884
61367.6
126338
97381
93369.2
41062
65597.6
63296.2
177.412
-48.4788
25.1059
103.624
-17.8559
-15.2004
-286.472
-914.358
-204.302
61838.2
1028.09
-23694.2
-118167
-31946.6
-75454.4
9323.56
31395.9
3206.22
-5177.46
-2354.51
-9209.93
-2908.98
-37717
-984.338
-20106
-20689.6
-5067.96
16434
-6077.73
-53047
-31890.3
-28788.7
16635.7
-9074.39
-6807.47
159022
101345
119041
15279.9
-626.798
-2141.28
115423
64698.5
14741.8
94936.1
24973.4
69669.9
34631.5
75072.7
-1443.83
-14525.4
-8711.4
161392
193638
121401
102988
126121
161352
144053
135526
107331
136610
131125
14302.6
46059.4
42654.4
124745
102933
77434
69354.8
95459
70052.6
56981.6
81345.3
59676.4
17503.6
42188.1
40035.8
85087.6
65595.3
62797.7
193864
147663
160801
222857
128073
152466
142082
121389
150014
122567
108748
58325.4
37551.1
56928.8
109895
77977
81139.4
36824.9
54187.1
55552.7
-35593.8
-18536.3
-17341.3
236.161
16448.8
-279.008
-1413.57
16544.1
-827.55
-4243.31
16650.9
-3438.05
-41449.6
-19783.6
-21099.3
16665.2
-2038.91
-2714.31
97957.7
76431.1
73162.6
48673.2
33824.1
50066.3
52820.2
34597.4
51447.7
138640
121876
116869
91401.2
112480
138116
108425
114671
87801.3
103983
108190
8017.66
26937
25435.9
38891.4
57524.5
40937.7
45180.4
60239
43033.2
54402.8
71699.9
51985.8
10836.5
28491.1
30099.5
68726.5
47383.4
49645.7
121078
106203
100265
87811
74122.1
91763.7
99847
77451.4
95775.3
71393.2
57636.3
54115.8
37013.8
26967.1
38519.6
41493
27891.4
40012.7
718.022
16007.3
1167.55
-26923.3
-11042.1
-11996.7
15807.6
1970
1584.85
82904
58848
62333.7
47266.9
31397.3
45845.9
42958.7
30549.8
44409.8
3179.53
14747.4
2926.97
-22259.1
-10125.6
-9247.63
15052.1
2322.19
2641.25
85681
101147
84545.3
74731.8
69680.4
58436.6
49505.9
61871.4
68957
52377
65380.5
36893.8
49694.3
34944.5
4249.04
17399.5
18627.9
47188.1
31191.4
33043.4
100102
77013.1
82276.2
83918.2
64463.3
80084
72602.4
61354.5
76312.3
24287.2
37707.7
25935.8
2480.89
16215
15074.1
39993.6
29388.6
27636.2
152.205
206.673
216.51
142.454
207.661
151.384
142.765
134754
50.7796
73.2249
84.2557
125.809
56.4841
93.8701
63.7905
44091.5
223771
104600
91712.4
80945.8
161411
36936.3
72719.1
97140.1
88.2085
86.6671
122.94
164.594
75.5011
131.088
97.4777
151.196
206.421
142.251
216.049
151.137
206.585
142.018
75931.3
91162.7
112081
120493
92303.2
113787
75099.3
153578
239083
179886
139966
175889
153346
142387
179130
176572
219236
181385
272395
233809
211805
211412
264518
128614
102924
73516
90049.5
110352
115134
74298.8
88960.7
108687
63391.8
92910.9
73667.8
86022.4
74791.9
87605.1
62567.2
146036
114873
170014
137561
172674
145646
173263
135195
169502
129881
113973
103698
127373
105860
130249
126959
49415.3
66527.3
55252.5
61148.7
56451.2
62667.6
48468.3
60922.5
87894.1
72553.3
84434.1
71447
61748.6
82860.8
79263.5
107960
85946.5
78107.4
70754
84392.9
72696.9
86899.5
83430.2
121175
106981
101536
124520
124048
99402.4
121690
54065.9
59633.9
47524.1
68807.3
81914
80933.6
145788
145.55
154.328
1177.58
404.514
549.575
-235.301
142.586
153946
2034
248.951
-474.355
588.133
634.865
3005.74
1330.32
81976.3
87614.8
134.31
205.469
193.082
133.605
138.266
189.164
130.423
144.982
212.658
196.985
135.891
141.803
200.339
137.932
82154.1
131082
101070
125553
99562.5
82931.3
124004
87499.5
138357
105886
131036
106917
89056.2
131855
166906
176701
196925
166993
158159
199154
155482
195738
200454
206772
176316
161859
202204
165614
205807
203422
118586
112666
69678.3
106453
82430.9
98822.3
83527.8
68896.6
100436
67355.5
101343
81350.2
97198.1
80274.3
68130.1
95598
133792
126610
154096
133179
121362
150929
123625
153970
150996
144854
125879
119105
147911
116874
144921
147904
54000
74662.1
63458.4
71895.5
62312.6
54887.8
70349.5
56658.1
79595.4
64612.3
73452.1
65774.1
55771.9
75008.9
90040.9
96669.8
98979.5
88918.8
84733.7
102465
82702.8
99808.9
101662
107114
95584.9
86798.5
105141
88859.7
107848
104379
384.643
61.2106
31.6593
342.35
-256.644
559.653
348.577
39.4219
-305.158
475.266
609.028
-234.619
-3183.05
1945.21
-2597.44
3056.8
1202.47
-1000.39
-2890.85
3073.92
1265.74
-938.527
-1134.99
878.099
152.671
216.686
208.069
142.93
45.8711
65.5654
21.3548
45.9531
65.6719
21.2363
65.7634
136846
-50.8502
4.13738
-69.988
-39.6095
-3.58833
26.5332
89.8431
107.718
53.7218
19.1052
51.249
47.3671
-61.9824
-82.1827
-9.48094
-57.6664
-13.5562
384427
19838
47272.6
-21096.4
8551.93
-78238.6
11117.2
24531.1
2015.24
24293.2
5124.26
5750.94
15358.5
3931.47
11708.8
74557
95226.7
259.862
271.075
233.864
235.326
233.532
259.599
272.254
261.697
270.223
339.268
360.279
312.155
233.225
233.832
311.882
311.989
339.688
360.555
339.483
360.322
-14.0821
14.6191
-31.8918
-25.833
23.0986
102.288
179.726
162.245
114.96
153.408
111.908
107.008
-3.04034
-22.1253
37.8379
6.23673
31.1786
44.4587
65.2524
19.8864
45.587
64.6426
150.633
215.92
204.808
140.837
206.18
149.084
141.592
43.223
18.6741
63.069
42.189
63.8894
260.244
276.268
265.541
271.061
236.621
235.273
263.101
271.025
260.79
273.93
235.161
239.186
286.73
261.731
301.784
248.977
158.98
120.386
127.35
248.929
266.444
173.577
166.348
234.806
155.86
263.603
260.904
158.838
339.053
359.996
360.069
338.081
311.431
232.575
312.024
233.06
339.028
360.621
339.816
360.366
311.322
231.175
232.202
310.453
23168
22951.2
76830.4
122381
94684.9
117362
93489.6
115612
77729.4
23387.4
23457.7
-395.756
208.699
-423.02
348.997
260.485
50.2736
63.0756
12.8896
-281.984
28.045
-83.0321
425.323
252.841
-41.6396
-28.2628
221.547
-170352
-245468
-202737
-605576
-238105
-117506
-156881
-138237
-330546
-98402.7
-90368
-90645.1
-97280.8
-102477
-101424
-108526
-107852
-92146.8
-84452.5
-91743.4
-85471.2
134868
53893.3
11631.6
38730.6
23765.6
145930
201281
291903
163022
296532
175230
229548
146045
-35219.3
333772
-89062.5
156155
218309
196455
193100
183263
155982
147350
185692
144871
182410
186629
185497
188817
134343
150484
146405
139177
103659
121252
111599
125473
127129
163592
135841
144491
100622
106922
104700
102064
77081.3
75203.1
96232.4
98892.1
94850.6
101018
80334.6
82279.7
222018
223321
208218
175324
191220
203639
208318
200348
203120
249003
216030
126592
104865
24564.8
24538.6
72747.6
113373
86769
105358
87867.8
107002
71965.8
23967.6
23967.3
-59598.1
-55895.8
-60932
-54354.2
-65188.5
-63488.4
-67500.7
-69249.8
-57123.9
-50800.9
-55802.2
-52286.3
-82231.1
-74407.8
-76080.6
-80993.6
-95408.9
-97115.4
-86068.2
-80683.8
-87095.4
-79156.3
-91935.3
-90043.7
26939.7
26941.5
64195.1
94593.2
76988.2
90788.1
75899.3
89202.1
64992.9
27233.3
27249.3
143557
117201
170779
174003
166768
143120
130515
163216
132843
166348
163569
181328
178059
62640.4
67961.7
63933.6
66215.9
45770.3
44335.9
47605.5
49083.9
60006.2
62214.4
58726.7
63901.3
85860.5
88472
90481.3
84524.5
70536.4
72333.5
89527.9
95584.2
90873.4
93525.3
67938.8
66188.6
139445
136439
132837
116332
110227
136058
108045
133146
135800
129938
132905
27370.3
27176.2
50346.8
68145.6
58801.2
65724.9
57632.9
64195.8
51269
26855
27079.8
-49887.8
-44050.3
-45422.9
-48594.9
-59609.5
-61253.3
-57442
-55850.2
-52134.2
-48796.7
-53444.6
-47366.7
27597.4
27658.4
60088.9
86228.2
69182.7
79711.1
70324.9
81280.5
59234.3
27489
27452.1
-32754.1
-30354.1
-29258.4
-33921.6
-37130.8
-35881.1
-38896.3
-40202.5
-31099.7
-26672.9
-29963.9
-27705.2
81389.2
105682
90664.1
88071.4
88499.8
80240.6
76650.4
91990.4
74676.6
89430.7
91073.4
82650.9
85183.4
52546.9
54583.8
56152.9
51294.9
41198.6
42577.8
54942.2
59966.6
56214.9
58336.6
39510.1
38176
117314
120188
118313
104675
95152.6
116091
97263.9
118882
115481
126483
123565
34968.5
39004.4
37721.7
36097.9
23578
22571.6
33188.4
34744.9
32097.1
35959.6
24884.4
25931.8
26708.1
170.122
298.707
307.839
186.45
253.884
208.1
159.347
278.038
281.508
238.854
284.784
227.317
305.292
77.9326
328.042
93.1972
-130.069
275.043
315.225
-82.7541
-166.953
411.078
-207.051
350.76
297.499
136.168
113.741
284.021
207.893
303.319
201.431
295.72
305.286
280.646
271.863
308.023
295.367
254.414
297.081
257.584
223.33
298.043
300.009
236.052
-2095.18
1394.11
-2395.25
1038.53
426.346
-563.893
-676.612
322.784
527.985
-869.868
679.706
-759.879
-1886.48
546.457
788.452
-1609.97
8077.81
-6623.34
-8407.49
4900.21
-21691.6
25355.2
8902.27
-7965.82
-21331.9
10951.2
-15813.8
19230
2719.83
-6023.16
-5208.59
3518.71
-10730.6
4296.43
-8994.79
5090.5
2099.2
-3960.67
-4663.38
1532.43
-12010
8113.51
-14248.3
6816.51
143287
170.915
147.079
-62.9066
39.1189
24.6241
260.35
115.483
104.943
270.779
31.5477
308.035
101.387
10.8216
-6.1285
-46.7374
-42.3756
38.9282
166422
3130.56
1817.92
18217.8
2021.28
1347.6
-4492.66
2625.13
1142.9
584.994
1218.61
825.708
862.867
2697.52
3155.92
2164.45
3879.08
2004.34
80112.9
89513.4
291.222
288.316
304.095
313.327
311.064
306.693
305.637
312.759
289.724
289.672
287.209
292.047
344.667
353.931
333.364
328.835
326.575
335.359
334.485
327.894
344.149
354.492
353.798
345.538
128.687
200.726
174.784
121.146
120.988
182.164
126.605
26.7793
55.4827
4.32313
31.4262
52.2631
21.1258
43.6052
-0.629659
14.5648
48.3664
147.194
214.014
203.774
140.141
148.014
202.688
139.207
37.5089
57.9809
13.5967
35.3122
59.7829
39.2571
62.1642
15.0135
40.8253
61.0845
267.814
268.958
258.204
278.016
226.908
245.697
249.719
280.069
272.307
260.471
241.421
233.94
290.236
293.043
287.607
295.59
307.966
311.433
304.638
314.54
293.691
287.978
291.164
290.212
304.213
315.764
309.273
311.406
296.267
285.088
294.26
287.797
292.735
313.023
308.336
300.306
278.941
295.31
295.822
276.368
309.498
308.851
301.428
315.46
285.614
238.622
287.791
217.143
19.5059
261.233
-26.2929
235.163
277.769
166.559
285.77
188.537
75.6053
236.902
114.996
241.008
297.542
328.564
308.536
314.645
297.333
216.028
213.339
294.935
274.719
194.909
284.419
201.443
324.032
340.725
345.582
321.287
286.987
319.257
314.309
302.006
322.921
298.172
319.938
307.426
269.591
306.544
256.716
305.868
331.662
332.05
338.718
320.512
343.837
353.996
353.568
345.06
335.512
327.04
333.958
329.54
345.54
354.189
354.386
344.639
333.326
329.934
326.527
335.463
335.916
358.314
337.297
357.897
304.775
222.804
224.788
304.686
308.577
229.047
309.319
229.255
332.358
353.891
331.98
352.733
343.739
351.677
341.548
351.965
323.805
326.613
316.349
331.325
334.572
323.975
329.232
330.77
335.331
347.839
340.383
345.642
-1381.6
12463.9
11925.2
-680.344
-17793.3
-25490.3
-25551.9
-16847.8
-19293
-27681.8
-19604.9
-28531.4
338.904
12964.6
12955.9
320.011
22884.3
23418.5
79931.9
128178
96079.1
119426
78930.4
97438.9
121198
25011.9
23873.5
-920.991
10886.9
-3292.57
12738.8
-26040.7
-28834.5
-37300.7
-20218.7
-20615.1
-32276.1
-22186
-29030.1
-5503.58
14508
9968.54
355.633
-788.097
86.1009
-614.807
144.696
194.174
-441.383
267.613
-336.159
-1074.12
387.289
-1322.16
202.025
187.719
-132.761
167.221
-213.085
741.838
-1145.93
-1134.19
280.921
-2589.47
1030.86
-996.132
3856.74
1043.42
-301.819
-911.367
124.424
-2805.05
467.554
-2459.15
2166.93
254.013
-1542.3
-1963.85
39.0352
-5836.42
2591.71
-7416.55
1602.08
548.631
-3268.76
1041.35
-2641.23
-4241.61
-109.812
-3261.01
424.766
-130453
112036
-8413.35
-76858.2
75080.8
-64412
37991.3
-37556.7
-54632.3
30077.3
-201975
272294
-171172
-128975
-149278
-156517
-93066
-154010
-202877
-150504
-93517.2
-126540
-90306
-138558
-103724
-232713
-330560
-134310
-210318
-210794
-95891.7
-160728
-168227
-188462
-225917
-73610.1
-130455
-103095
-141034
-90255
-50536.9
-69337.3
-79995.4
-44082.2
-69366
-110026
-75552.4
-100266
-107314
-56229.8
-66980.2
-94257.2
-56808.1
8084.37
-85147.2
52801
13983.1
-20542.5
-26168.5
14019.7
20825.2
-35406.7
-27417.9
20509.8
-64254.7
22963.4
11140.7
-45285.7
-69841.8
-75819.8
-76858.3
-69712.7
-49397.7
-42399.8
-43330
-49305.2
-53654.5
-46311.1
-46250.3
-52635
-65681.3
-71300.9
-71523.8
-64732.6
-101406
-98556.5
-107036
-94460
-131068
-111625
-111709
-117794
-118967
-96850.8
-103029
-109406
-72976.5
-83973.8
-76322.5
-79414.3
-66747.5
-49267.7
-57723.6
-56003.2
-55099.7
-51059.4
-48502.3
-59168.3
-85238.7
-81420.2
-74698.8
-93746.5
38624.6
36003.7
113730
158944
126736
150159
100548
124849
147637
26934.8
29382.3
-12956.4
-14140
2539.11
-6141.87
12007.7
-2204.16
4417.16
-6954.8
-24048.7
34042.8
55192.3
-13627.7
5013.51
-4683.51
-5970.62
-268.982
-11268.7
-4986.76
-385.48
22587.4
-47412.6
-56003.3
-32249.5
-125498
-141547
-54464.3
-90953.2
-95412.1
-17583.1
29417.6
8307.01
6710.73
-15391.7
-46229.4
-32689.3
-23735
4739.58
9216.61
-9113
19656.6
-48356.4
-31486.8
-65023
-19023.9
-21000.5
-13719.8
-12072.7
-12490.6
5563.44
-17739.8
-12998.4
7418.24
800.849
-6302.67
-9427.54
-674.62
-29458.8
1976.79
-42920.4
1615.12
164033
184074
179260
183430
180158
181951
161648
156055
158241
158294
165330
165402
168876
163244
174513
172868
176133
171804
200833
204186
193502
163967
149983
189036
190065
152531
192382
211711
208543
189619
187703
187033
190902
180485
181479
178984
184875
176521
170836
172706
173001
195140
198538
195459
197692
136801
149477
146711
139965
110084
102651
129947
128542
135122
124212
114291
126320
164095
168005
159380
172564
181505
235697
187996
221751
180851
191219
188139
183986
164136
185650
155873
202524
162890
166896
159308
170851
173014
172258
169612
177407
157828
147989
152347
152075
179708
188668
185643
181883
127480
125006
123448
130056
139654
141018
143860
137856
144685
150782
147780
146474
123565
117103
118639
121119
108826
111164
106985
113778
93092.6
96751.8
114510
122521
117541
118693
88515.5
86105.2
137397
130359
134423
132184
160134
167101
162949
162734
153943
155014
158355
152009
142314
141065
146331
138251
221769
220475
207841
180585
180324
204952
206136
169898
206799
215772
218244
209003
215377
206888
218543
206629
251158
201779
261208
198830
204605
197527
206003
216232
275192
219554
271415
211277
211651
210000
213451
193605
188000
189096
190435
205152
203374
203738
205384
197100
201208
196965
202527
120576
110710
2998.42
14944.6
14597.7
3414.92
-14624.7
-23242.3
-15776.3
-22776.7
1917.68
13729.9
13980.5
1624.9
-13717.8
-20276.6
-12546.1
-20909.4
25106.3
25143.1
70439.4
108174
85686.5
103701
71206.3
84612.4
102076
25677.2
25642.8
4831.12
15470.9
4360.96
15853.3
-9759.15
-15690.1
-16431.9
-8692.38
-10574.6
-18632.3
-11704.1
-17922.2
5682.16
16699.8
16312.7
6166.43
-64869.7
-58040.5
-63525.8
-59628.4
-75936.3
-77792.7
-67599.9
-63501.4
-61861.9
-68949
-73450
-71642.6
-39364.1
-45175.7
-44056.4
-40684.7
-25810.2
-20268.2
-21307
-24888.2
-27450.2
-23708.3
-28387.8
-22608.6
-37631.2
-40840.8
-41955.6
-36364.2
-43853.9
-47386.5
-48516.1
-42480.5
-32913.8
-28809.1
-33851.4
-27584.8
-45717.8
-51972.7
-50850.9
-47142.6
-31064.3
-25045.2
-30126.4
-26209.5
-57814.9
-62232.8
-63213.2
-56331.3
-45520.3
-40271.3
-46107
-39014.3
-60319.8
-67296.1
-66528
-61687.1
-42868.8
-35918.5
-37248.3
-42084.2
-76287.1
-71705.6
-77605.3
-69998.1
-82305.6
-80402.8
-73184.6
-65836.8
-71843
-67518.8
-85083.1
-87009.7
-52609.1
-59308.4
-54113.2
-58239.2
-36741.3
-30237.2
-31513.8
-35822
-38869.6
-34329.2
-33004.6
-39748.4
-50559.4
-54459.1
-49085.8
-55568.5
26582.3
26565.9
66580.5
99648.8
78084.3
92391.3
65782.3
79188.6
93985.9
26131.8
26160.5
9710.98
18520
18856.2
9251.9
-2793.51
-7757.74
-8484.34
-2017.02
-3561.84
-10335.6
-9596.89
-4407.56
10298.3
19435.7
19127.8
10733.8
8131.59
18204
17845.6
8608.96
-6899.66
-14312.4
-7893.78
-13563.2
7427.77
17107.7
6939.05
17485.3
-6108.3
-11531.9
-12281.4
-5188.76
136215
124242
160302
158896
162096
157611
151517
151380
154717
149179
164601
169025
165789
167312
148014
142540
144946
144752
166827
163652
157236
135641
128199
160109
160378
125908
157033
156658
159794
150799
155320
153466
152163
135141
129839
132041
132301
138551
138313
141496
136104
146780
145574
148687
144145
67993.5
70358.5
66689.1
72151.4
54539.3
56122.7
70884.9
76487.8
74637.6
72197.5
52536.1
50998.5
83921.8
81935
80387.2
85909.3
93675.7
94776.7
96947.1
91868.6
97060
102287
98893.4
100045
81168.2
75797.1
77338.2
79238.5
90784.7
85103
86668.1
88736.6
107862
113348
109715
110954
93687.3
91529
89965.2
95795.8
104234
105434
102394
107753
111783
105549
107107
109484
131400
137316
133218
134586
115159
112714
111178
117519
127055
128407
131045
125214
79779.7
85625.4
81100.7
83666.3
59871.1
58234
76557.5
79066.3
75243.1
80970.9
62108.3
63795
104037
101727
106275
100169
115330
116618
119085
113474
119253
124979
122426
121104
100955
94980.4
98780.8
96547.3
143055
146108
141810
123473
112435
138991
138800
114643
141949
152887
149796
124992
129529
126558
127527
111087
106197
108315
108618
114355
114049
111908
116909
121356
120460
123381
118865
133818
132776
135795
131247
126192
125910
128934
123728
137628
142179
140236
139113
122857
117751
119917
120211
27418.2
27582.7
53102.2
73027.6
59974.7
67262.7
52185.4
61153.2
68802.3
27716.9
27580.2
15491.9
21305.9
21362.1
15270
6787.3
3397.12
2896.36
7050.45
6246.68
1830.21
5929.7
2360.56
15629.1
21318.5
21299.8
15813
14823.1
21324.8
21230.8
15078.5
4357.21
-621.434
3917.25
-27.5343
14576.3
21072.9
21205.7
14284.1
4969.95
1219.74
5351.75
655.513
-31851.3
-34772.7
-35862.1
-30701.8
-22427.6
-19009.6
-23339.2
-18031.6
-33479.7
-38850.4
-37749.9
-34683.4
-20969.5
-15898.1
-20079.8
-16815.4
-45177.1
-42173.8
-46447.7
-40849
-50179.9
-48700.2
-52215.1
-53749
-43130.7
-37773.5
-39038.6
-41880
-28036.8
-32980.1
-29131.9
-31917.5
-16550.2
-11936.4
-12729.8
-15707.8
-17835.7
-14720.6
-18708.2
-13867.8
-26524.9
-29170.6
-30215.3
-25486.6
27753.6
27668.5
57525.9
81250.4
68049.8
78137.6
58384.3
66922
76575.6
27662.8
27773.8
12146
20375.6
20133.9
12529.4
-560.989
-6718.89
-1266.59
-6017.01
11675.5
19667.9
19943.5
11261.7
168.302
-4367.44
-5049.34
806.064
13298.8
20524
20731.8
12946.5
2761.94
-1371.38
3266.42
-2001.59
13660.7
21008.8
13980.9
20838
2082.42
-3475.67
-2820.96
1512.95
-18529.4
-22626
-21671.7
-19391.1
-9030.5
-5306.74
-5859.44
-8304.96
-9984.67
-7416.1
-6801.53
-10742.1
-17252.1
-19407.9
-20336.6
-16447.8
-36868.3
-31976.6
-35667.4
-33123
-45308.3
-46729.6
-43404.3
-42039.2
-38709.6
-36021.7
-39937.3
-34813.9
-21648.7
-24047.7
-20734.8
-25040.9
-13684.9
-10851.2
-10115.4
-14501.5
-12566.7
-8404.94
-9075.71
-11778.4
-23053.3
-27567.3
-24027.8
-26551.1
87859.8
98906.8
93635.4
96295.6
96315.5
86722.9
78659.6
94569
93683
80664
97180
102064
99351.3
79644.9
83780.2
81283.4
81790.7
69239.1
65369.6
67154.5
67421.2
72086.9
71802.1
73982
69974.4
76693.9
76233
78659.6
74613.4
87029.9
86478.9
89043.1
84832
81843.5
81551.7
83901.6
79632.3
90160.3
94447.4
91817
92419.3
78875.2
74728.5
76891.3
76604.2
72060.2
67025
68534
70260.6
86799.7
91741.5
88589.7
89638.7
74688.5
72870.4
71347.8
76547.3
83627.6
84633.8
81869.3
86664.3
47771.2
52474.7
49001.9
50953.4
33723
32500.3
45584
47458.7
48916.3
44376.4
35284.2
36554.2
65964.3
64316.7
67702.3
62841.7
74103.5
75008
76892.3
72407.4
77065.1
81713.5
78801.9
79757.9
63475.7
58777.9
60233
61799.3
114014
111195
109883
97840.6
93037.1
113322
112664
90951.3
110575
105203
107973
109391
108623
111435
106987
103005
102698
105392
100620
112860
117348
114480
115313
99823.5
95164.1
97212.4
97519.8
101243
105645
102890
103600
89074.4
84668.2
86938.7
86641
97939.6
97286.8
95635.4
99980.5
92163.2
91858.6
89850.3
94381.2
50113.1
48779.1
47431.1
51590.2
56698.5
57423.8
59014
55157.1
59251.1
63277.3
61605.4
60835.5
47907.1
43916.1
45236.1
46495.9
39133.8
40841.3
37972.6
42173.9
29841.8
31007.1
41107
45483.3
42297.1
44085.5
28413.1
27297.3
55411.8
51072.4
53876.1
52468.5
67878.2
72217.1
70397.8
69538.6
65117.5
65932.7
67671.4
63493.8
57770.8
56281.4
59375
54860.6
3866.75
7544.31
21213
15897.6
57943.4
98332.5
88337.1
54091.4
99761.7
57413.2
53982.3
58439.8
55078.5
90490.7
102883
101391
55195.9
59075.3
144971
98776.1
140771
129585
146497
155723
99067.7
179472
133119
128156
156912
135462
176128
160137
182988
166438
130450
140347
137918
163050
186388
217050
254713
199182
279636
201524
212976
267415
211729
194763
174729
174469
187088
205768
201284
56533
96808.9
53068.7
85316
57012.9
95417.4
53132.8
56158.6
52229.7
83505.9
92576
93946.9
52225.9
55692.6
50812.7
76080.3
69382.9
46663.6
77417.3
50292.6
46997.3
51277.2
47939
80136
70766
78797.6
51778.9
47651.3
169410
130755
154017
121218
172688
128474
150934
166042
145091
119038
123939
126171
148050
162816
128504
98109.7
93993.9
112119
100157
125562
114557
131524
119902
104355
96267.5
102283
134505
117396
41493.6
54648.1
50619.3
37460.7
55956.6
40809.2
38101.9
42155.5
39351.8
58604.1
51760.5
57288.3
42817.8
38738.4
49265.3
74706.4
46022.5
65986.6
49803.9
73371.5
45639.3
48754.5
44582.6
70669.3
64683
72002.9
48194
45007.5
84200.2
66622.5
63870.8
73215
68440.5
81680.6
75140.7
86764.2
79713.9
72204.7
66104.3
70354.2
89335.6
77730.8
119706
96007.8
109299
88414.5
122593
93988
106930
116787
101826
89913.9
86131.6
91909.4
113940
104130
53326.1
36815.1
40125.8
64742.5
62391.9
110534
59209.2
96712.7
58917.3
63319.8
108822
60676.9
56647.2
104752
93736.6
59861.1
56640.4
106347
68343.9
114769
63191.1
104003
68112.3
64791.1
117078
86002.8
73979.7
137107
109584
92907.5
72624.2
126867
196959
151322
141167
179759
148400
175901
200436
193435
169386
142956
138191
189963
145536
172950
206523
154540
150881
182485
158827
203441
186314
207820
193412
170581
155714
208933
161985
188497
54471.4
87007.5
50449.1
78781.2
50570
54004.8
88357.6
54857.6
51402.3
91135.9
80398.8
55317.2
51341.5
89777.8
53129.1
85601.9
49720.9
75564.4
53602.6
49540.4
84258.1
52709.5
48608.9
81522.3
74080
52220.2
48844.2
82863.3
153114
115100
110401
133737
117259
136488
149989
156350
142211
121678
112606
159518
119486
139363
143738
112902
104318
130866
110775
146810
128203
140611
122758
106503
102077
137579
108603
125339
44708.2
63934.8
41733.3
56477.5
41187.9
45328
62609.9
44097.4
39982.4
59943.1
55290.2
43454.6
40561.4
61264.2
46515.5
65286.8
42356.9
59982.1
45915.3
42863.2
66616.1
47078.6
43955.4
69306.1
61221.9
47656.8
43487.5
67974.3
97298.2
79919.2
73321.5
89182
78008.4
87073.3
99982.5
94605.1
82350
74150
71056.4
91967.3
76033.6
84396.5
105481
81921.6
78479.7
91896
83863.3
102734
94069.3
108286
99053
87859.9
80765.5
111077
85892.4
96814.7
)
;

boundaryField
{
    left
    {
        type            zeroGradient;
    }
    bottom
    {
        type            zeroGradient;
    }
    interface
    {
        type            zeroGradient;
    }
    procBoundary2to0
    {
        type            processor;
        value           nonuniform List<scalar> 
47
(
270.519
301.441
319.262
216.58
22.5999
255.029
255.029
255.029
270.519
270.519
270.519
322.967
322.967
322.967
282.19
301.441
301.441
282.19
282.19
332.911
319.262
319.262
332.911
332.911
152.196
45.7947
207.79
142.966
45.7947
45.7947
65.9575
258.772
269.668
233.252
339.24
360.104
234.59
234.59
311.917
289.296
286.431
303.41
310.664
343.183
353.268
332.448
325.769
)
;
    }
    procBoundary2to3
    {
        type            processor;
        value           nonuniform List<scalar> 
328
(
146.104
146.104
146.104
96.9355
96.9355
96.9355
96.9355
-85829.6
-75488.5
-49101.9
198.245
198.245
198.245
199.826
199.826
199.826
-112623
-113354
15608.8
101417
97883.2
-1348.77
71697
73134.9
-51684.7
-71153.4
-72902.9
-72019.7
-107585
-106054
-6359.73
40960.2
42067.9
-2268.95
68355.2
67027
-68619.7
-66895.7
-42290.1
-6719.35
38960.8
37872.9
-741.927
201.952
201.952
201.952
3566.86
-8652.37
-1494.29
1947.15
-5386.73
-3080.23
-88194.4
-89117.7
-41696
-39342.3
203.761
203.761
203.761
-30650
22445.2
1576.97
-18029.8
15996
-174802
-95433.2
-121100
-145884
6471.18
98053.7
106710
2025.94
92847.6
89261.6
-59808
-86605.2
-84782.6
-62666.7
-89666.7
-91508.8
-4978.08
52218.5
51049.6
-4402.58
54725.2
55921
-54914.7
-56558.3
-52792.1
-51184.2
-7516.7
29373
30392.6
-7699.03
27779.9
26787.5
-129.315
179.592
179.592
179.592
-38.119
-1039.71
-101.806
-165.207
-590.605
-117346
-84793.6
-79419.4
-46576.1
-34818.8
196.905
201.579
201.579
201.579
-1.45134e+06
-227594
-166721
185261
7422.25
-299528
-227594
-119020
-120404
6397.15
120698
106206
-410.767
78371.1
76812.3
-54326.5
-77321.5
-75543.6
-68725.9
-100202
-101969
-5954.99
45307.6
44175.8
-3046.7
62674.6
63947.6
-62771.3
-64471.8
-45656.4
-44122.3
-7029.72
34913.9
35978.3
-7936.68
22923.2
21985.2
-514.337
195.366
195.366
195.366
-3027.9
450.082
-303.925
-1821.55
19.6732
-32266.4
-133247
-82974.1
-44105.9
-37049.5
203.158
203.158
203.158
207882
-141796
5820.97
99793.1
-66474.5
-100857
-239969
-130775
-122679
1548.39
123693
109882
1176.74
82461.2
84650.7
-57031.6
-80085.1
-81881.3
-65631.4
-96622.8
-94780.8
-5495.74
47539.1
48684.1
-3763.83
59817.9
58588.4
-60452.6
-58777.9
-47586.1
-49159.2
-7298.17
33127.6
32077.1
-7839.73
24325.8
25287.1
-28.7567
69.1906
123.611
93.0314
-9.31566
-322.996
-1039.71
-38.119
173.799
176.315
173.786
176.399
176.144
175.775
178.674
-227594
-1.45134e+06
-299528
-113354
-112623
-120404
-119020
97883.2
101417
106206
120698
73134.9
71697
76812.3
78371.1
-72902.9
-71153.4
-75543.6
-77321.5
-106054
-107585
-101969
-100202
42067.9
40960.2
44175.8
45307.6
67027
68355.2
63947.6
62674.6
-66895.7
-68619.7
-64471.8
-62771.3
-42290.1
-44122.3
-45656.4
37872.9
38960.8
35978.3
34913.9
21985.2
22923.2
169.828
165.995
143.882
155.806
-8652.37
3566.86
450.082
-3027.9
173.633
177.588
177.84
176.972
22445.2
-30650
-141796
207882
-95433.2
-174802
-239969
-100857
-145884
-121100
-122679
-130775
106710
98053.7
109882
123693
89261.6
92847.6
84650.7
82461.2
-84782.6
-86605.2
-81881.3
-80085.1
-91508.8
-89666.7
-94780.8
-96622.8
51049.6
52218.5
48684.1
47539.1
55921
54725.2
58588.4
59817.9
-56558.3
-54914.7
-58777.9
-60452.6
-51184.2
-52792.1
-49159.2
-47586.1
30392.6
29373
32077.1
33127.6
26787.5
27779.9
25287.1
24325.8
)
;
    }
    procBoundary2to6
    {
        type            processor;
        value           nonuniform List<scalar> 
65
(
-18019.1
1062.71
67269.6
61715.7
72977.1
71831.6
25068.1
14062.3
43962.1
33313.5
25068.1
25068.1
-6850.1
11917.2
35495.7
47082.8
55076.5
70676.7
59128.4
35495.7
3398.9
55076.5
22691.1
35495.7
35495.7
35495.7
46576.3
52887.8
58131.5
78475.2
66898.6
79471
79168.1
-34174.9
-25182.4
-28408.4
79849.8
21330.5
33047.1
30416.5
26456.4
-4417.96
-7428.22
-18164.3
-15228.9
62640.9
64650
73687.1
71751.5
54914.1
52700.7
41824.5
44360.6
7750.97
4327.71
-4417.96
16046
21193.9
70676.7
79168.1
39425
52025.8
36144.8
79168.1
62956
)
;
    }
    procBoundary2to7
    {
        type            processor;
        value           nonuniform List<scalar> 8(-32650.9 -40783.5 -7997.33 19768.4 20671.3 -40783.5 20671.3 19768.4);
    }
}


// ************************************************************************* //
