/*--------------------------------*- C++ -*----------------------------------*\
| =========                 |                                                 |
| \\      /  F ield         | OpenFOAM: The Open Source CFD Toolbox           |
|  \\    /   O peration     | Version:  2012                                  |
|   \\  /    A nd           | Website:  www.openfoam.com                      |
|    \\/     M anipulation  |                                                 |
\*---------------------------------------------------------------------------*/
FoamFile
{
    version     2.0;
    format      ascii;
    class       volScalarField;
    location    "0.104/solid";
    object      sigmaDiff;
}
// * * * * * * * * * * * * * * * * * * * * * * * * * * * * * * * * * * * * * //

dimensions      [1 -1 -2 0 0 0 0];


internalField   nonuniform List<scalar> 
3125
(
-189.208
-401595
-397.825
-361291
-215284
-299797
-238.728
-344.564
-189.347
-489.803
-240.444
-361031
-671.982
-142432
-172122
-265168
-461562
-482814
-465181
-112416
-100381
-499632
-395319
-305592
-355569
-119574
-164411
-278091
-453828
-343541
-457194
-84073.6
-98560.7
-343972
-199002
-114063
-273064
-86474.7
-235649
-336500
-234210
-82033.1
-336774
-68864.4
-209850
-194180
-229299
-227781
-948.998
-357.419
-1623.5
-7899.32
-10545.5
-450357
-1590.92
-462518
-2313.75
-254095
-259741
-274.327
-290.178
-199.726
-197.491
-278.478
-317.485
-907.007
-279.176
-369.836
-294.043
-259.8
-331.698
-110108
-406061
-119856
-1498.21
-2212.38
-8646.41
-14268.3
-216277
-80509.6
-66403.8
-16490.6
-62097.2
-200527
-64704.5
-418419
-2736.04
-131661
-124560
-14020.6
-518516
-528982
-326106
-524524
-361205
-106490
-285309
-304734
-267314
-104889
-295970
-534826
-338721
-371425
-352681
-346718
-107981
-318760
-103476
-137302
-65726.6
-64024.7
-62079.9
-143645
-63402.3
-313621
-98686
-102264
-401200
-393859
-314199
-403040
-279096
-90369
-190914
-218658
-257469
-92482.3
-228198
-395505
-234377
-267678
-233207
-86060.7
-91498.8
-66146.7
-100298
-66758.8
-238152
-97410.8
-93113.5
-65828.5
-96617.2
-66721.8
-281513
-288252
-280732
-154259
-182561
-182002
-76157.1
-156507
-287580
-223620
-192507
-126041
-74283.4
-148486
-831.914
-525.498
-1448.19
-2025.33
-2773
-40.9521
-420927
-147.579
-587.017
-213.719
-487493
-27014.8
-22971.8
-231759
-282511
-237.458
-298.572
-121.417
-242.424
-62.2227
-41.103
-191.339
-41.2643
-241.258
-247.432
-683.252
-378.555
-500.589
-301.264
-243.623
-305.842
-277693
-378107
-291607
-1014.51
-947.678
-1579.86
-279982
-222786
-59378.1
-100852
-87416.5
-116216
-180488
-122576
-489763
-70647.3
-243555
-371354
-50567.5
-485145
-508824
-369693
-489613
-389994
-135320
-167205
-196538
-146292
-101968
-151232
-543410
-361704
-449846
-376823
-323092
-272642
-339565
-260741
-125283
-82058.3
-84790.8
-110596
-157148
-105438
-293236
-214520
-225219
-430986
-364883
-363715
-433654
-344767
-86149.3
-108082
-112384
-141179
-96611.2
-136069
-365808
-274001
-291234
-213564
-155718
-166115
-79721.9
-108809
-77621.6
-258038
-210230
-199609
-67564.1
-89714.8
-69031.5
-255018
-315589
-253831
-187498
-202862
-103915
-80032.4
-99878
-315430
-268285
-251472
-78427.5
-70645
-81675.2
-151746
-182374
-309.884
-379.851
-926.741
-604.64
-581.64
-339.316
-438.251
-417.909
-1618.5
-2990.83
-3087.73
-3784.57
-11805
-5201.73
-5334.06
-12228.1
-5716.72
-427827
-657.906
-1286.95
-270.973
-509853
-16440.5
-2470.19
-12798.1
-237307
-276791
-259.076
-304.144
-227.068
-39.3164
-51.1535
-191.727
-39.4938
-41.1134
-275.472
-257.579
-263.172
-285.454
-269.981
-300.827
-296.939
-281.095
-817.509
-598.102
-566.423
-314.701
-355.095
-404.748
-445.233
-374.622
-438.898
-307.516
-300.407
-313.085
-249.336
-328.419
-313.934
-311.531
-341.065
-323.029
-171306
-112725
-176562
-384361
-318767
-297879
-116005
-191771
-183114
-1287.42
-2643.26
-2153.02
-1287.72
-3729.38
-2494.32
-4587.88
-6342.39
-3615.62
-151256
-19139.8
-74353.6
-170525
-155401
-133438
-38918.6
-75198.4
-23275.8
-46704
-46647.6
-90926.8
-86917.6
-87636.2
-18882.7
-48469.8
-56801.3
-65571.5
-62480.5
-69152.9
-189968
-139628
-130267
-63303.4
-80788.7
-74065.8
-463925
-329761
-371225
-24833.1
-5681.12
-7760.67
-187224
-139743
-23736.9
-221337
-40799.2
-203526
-141755
-223731
-10544.8
-37002.6
-22617.2
-493298
-569161
-389017
-337994
-403328
-498059
-419891
-396026
-349647
-431826
-417645
-130754
-165493
-189808
-227313
-328079
-263565
-235221
-325039
-257728
-206048
-277038
-213481
-103160
-160802
-155740
-286442
-228046
-220541
-560529
-426403
-453377
-394371
-387388
-452411
-444649
-388784
-457340
-370740
-328967
-166842
-106249
-162877
-334319
-244916
-256082
-104778
-155748
-159220
-131189
-91944.2
-88107.9
-59279.5
-65217.5
-59284.2
-59525.1
-64642.2
-59354.7
-63037.6
-62358.1
-61386.8
-150247
-96141.8
-100639
-62825
-59849.2
-60415.6
-298309
-240438
-229589
-142442
-99903.2
-145762
-152383
-101087
-149066
-423471
-372075
-374862
-302370
-360903
-425921
-320615
-338815
-290663
-333584
-347145
-88252.9
-121413
-116825
-147048
-200003
-153940
-168276
-209255
-161023
-198438
-247630
-190794
-94571.6
-126152
-131043
-237861
-175673
-183189
-373170
-314722
-297041
-281216
-245311
-294026
-320211
-256414
-307025
-218453
-180677
-170184
-113917
-87973.4
-117710
-125098
-89785.8
-121438
-59309.5
-66466
-59353.6
-104217
-73875
-75683.6
-66671.7
-59406.2
-59390.6
-253049
-184828
-195388
-139086
-96063.6
-135680
-128691
-94633.3
-132217
-58976.4
-66259.3
-59180.3
-93095.2
-72174.1
-70564.5
-66556.1
-59384.6
-59312.9
-261577
-308697
-260477
-224053
-208146
-186522
-163405
-197495
-220251
-172850
-208742
-140367
-173284
-133906
-78073
-92199.8
-95973
-164777
-121641
-127665
-308400
-229502
-245874
-268601
-213049
-256187
-232000
-202674
-243984
-99582.5
-133254
-104800
-72446.5
-88560.9
-85051.6
-140733
-115827
-110213
-150.869
-185.24
-189.431
-140.852
-185.163
-149.881
-141.435
-407926
-367.423
-288.794
-456.097
-458.892
-328.525
-518.214
-333.149
-183183
-529420
-177193
-271549
-233250
-402691
-127329
-220746
-294017
-259.527
-250.338
-396.155
-300.67
-290.49
-351.405
-217.759
-151.684
-185.84
-140.909
-190.318
-150.164
-187.415
-141.519
-244463
-295434
-324510
-366570
-299543
-329571
-241253
-469339
-547812
-526643
-434769
-510974
-473225
-442382
-520056
-517347
-545570
-553315
-439598
-583694
-497813
-545231
-549447
-389110
-311404
-235292
-291427
-319554
-350183
-238204
-287511
-314710
-200684
-283124
-235328
-250947
-239025
-255377
-198029
-446159
-350615
-498800
-427213
-501926
-449285
-508045
-419760
-492944
-383309
-351207
-320985
-372930
-327751
-381151
-374829
-155911
-203834
-175080
-181034
-178887
-185313
-152958
-192658
-268044
-231619
-246510
-227900
-195351
-242086
-242050
-329489
-255551
-240692
-218469
-249531
-224505
-256744
-248199
-358042
-329615
-314247
-364761
-366400
-307549
-356651
-171262
-176750
-149978
-212481
-242393
-240926
-442777
-1007.74
-836.392
-2673.11
-1382.25
-1746.52
-1032.94
-790.503
-471723
-4755.11
-3641.51
-1654.24
-2274.54
-2728.77
-6222.19
-4365.75
-248475
-265400
-175.396
-207.035
-214.105
-145.143
-167.198
-225.885
-149.051
-159.285
-194.497
-206.626
-143.285
-162.435
-200.548
-142.594
-268450
-398493
-333246
-368748
-326196
-275729
-360537
-300051
-427763
-347428
-381473
-355894
-290021
-393409
-510129
-538425
-571813
-515558
-492091
-574326
-483158
-565629
-579622
-591556
-544823
-502049
-582652
-512006
-589893
-586341
-358670
-340777
-221689
-323917
-264892
-286802
-268600
-219063
-291354
-213824
-308498
-261190
-282261
-257491
-216441
-277744
-408577
-386555
-453270
-410615
-376314
-440206
-383412
-448855
-444334
-426616
-388015
-369245
-431606
-362227
-423067
-435442
-170435
-228272
-201662
-211322
-197879
-173282
-206962
-178914
-243102
-205436
-215700
-209195
-176113
-220068
-274822
-295017
-293510
-273928
-261860
-301498
-255507
-293870
-301328
-317191
-294472
-268257
-309195
-274693
-316953
-309229
-711.639
-587.91
-537.916
-704.594
-776.752
-1138.4
-648.033
-476.198
-874.415
-1160.1
-1219.14
-961.116
-3740.89
-4288.2
-3655.52
-5031.76
-2278.71
-1511.56
-3395.2
-5000.53
-2377.06
-1792.68
-1685.46
-2141.81
-151.3
-189.541
-184.966
-141.639
-39.671
-56.4843
-41.7583
-39.4983
-56.6019
-41.8512
-56.5548
-414401
-212.553
-191.674
-173.741
-182.212
-223.766
-415.864
-526.539
-690.013
-421.787
-601.05
-450.081
-377.163
-239.764
-196.624
-278.574
-312.793
-252.951
-642394
-46817.2
-75676.5
-62273.5
-23077.2
-89484.4
-22337.9
-55845.4
-64100.4
-73995.2
-37651.3
-21215.8
-44718.4
-15547.4
-41182.9
-226240
-288254
-234.961
-240.329
-201.826
-203.356
-200.612
-235.933
-243.222
-238.301
-240.856
-284.314
-301.551
-267.263
-200.021
-199.498
-268.056
-266.089
-285.974
-304.193
-286.665
-303.135
-128.617
-160.609
-97.3067
-154.496
-132.631
-234.171
-269.02
-281.877
-174.761
-312.375
-212.232
-193.494
-106.853
-77.435
-91.6909
-88.2927
-109.582
-40.0794
-56.5012
-41.9593
-39.6491
-56.603
-152.623
-190.665
-190.408
-141.483
-188.577
-152.795
-141.758
-40.3666
-42.1649
-56.3686
-40.4904
-56.5267
-246.39
-259.928
-253.577
-252.432
-208.474
-205.565
-243.818
-245.318
-240.336
-249.385
-211.524
-217.219
-572.233
-548.567
-635.372
-487.99
-574.746
-526.239
-472.14
-708.139
-511.743
-352.867
-391.352
-440.632
-646.545
-913.705
-809.129
-750.376
-294.182
-316.613
-312.689
-297.07
-271.326
-200.88
-269.819
-203.051
-290.712
-306.488
-288.951
-308.971
-274.091
-207.459
-204.827
-277.035
-113391
-111313
-247976
-372279
-308402
-340354
-303883
-334867
-251785
-108777
-109753
-1421.1
-2308.8
-1774.01
-2017.64
-1058.72
-673.15
-741.059
-806.027
-1219.91
-1168.11
-1015.14
-1723.26
-1237.55
-1115.61
-923.35
-1416.39
-485807
-508168
-391477
-690941
-566155
-383192
-762286
-713887
-908090
-251799
-225618
-219984
-259449
-267816
-261625
-274706
-281587
-246556
-209057
-239634
-214021
-278899
-219479
-114276
-80462.7
-164222
-438190
-536272
-637409
-446717
-662104
-429103
-517850
-415346
-86742.9
-569113
-139706
-477226
-613315
-548590
-538016
-535969
-481385
-458014
-538329
-450156
-529194
-545215
-518981
-529377
-307045
-363287
-320666
-352149
-232927
-211418
-282502
-295485
-259215
-286546
-301360
-245920
-244584
-293667
-289461
-250645
-212305
-209662
-240862
-278335
-234855
-282585
-218380
-221082
-577746
-565358
-570136
-534292
-521979
-573175
-502087
-557992
-579088
-571355
-543410
-382941
-317240
-107058
-106982
-232467
-344847
-279850
-305230
-283653
-309932
-229713
-107869
-107564
-166527
-146561
-171494
-142610
-177692
-172951
-182909
-187746
-162042
-134213
-157296
-138111
-223194
-188634
-193068
-217036
-249156
-254957
-228072
-203268
-234563
-198628
-242781
-237261
-106718
-107079
-203331
-288174
-246420
-264286
-242724
-259830
-205964
-106912
-106624
-438544
-357732
-480692
-490607
-489581
-441436
-405053
-475138
-412363
-484009
-480431
-509970
-499813
-169636
-204273
-173827
-200047
-144886
-142863
-150437
-152572
-165242
-189552
-161207
-193680
-221049
-255692
-260065
-215125
-200914
-203549
-225048
-271394
-231013
-267084
-194727
-192084
-396643
-387673
-391855
-358486
-341423
-397753
-334568
-389426
-400454
-369793
-378576
-101076
-100606
-158854
-208690
-186504
-193935
-182695
-189622
-161776
-98887.8
-99483.6
-144085
-118335
-122342
-139802
-163299
-167956
-158557
-153972
-148381
-130004
-152897
-126118
-106086
-105984
-189946
-263033
-220446
-233260
-224173
-237661
-187220
-106384
-106587
-104338
-92901.3
-90735.4
-106629
-111881
-108891
-115040
-118363
-100808
-86361.9
-98865
-88309.6
-248513
-322518
-261071
-253571
-262983
-247232
-236754
-271379
-230601
-264026
-270492
-238455
-245746
-148558
-169444
-173331
-144790
-135508
-137443
-152917
-183361
-156812
-179349
-130234
-128382
-334896
-343329
-349734
-322498
-294284
-340593
-300891
-348591
-341502
-360807
-352187
-107860
-127973
-124808
-110894
-92448.1
-91140.4
-104228
-116920
-101354
-119932
-96628.3
-98049.9
-97679.2
-387.03
-480.805
-474.594
-414.286
-314.155
-274.396
-340.059
-422.571
-358.931
-330.41
-366.938
-315.532
-760.469
-610.087
-746.781
-628.335
-996.665
-1237
-1251.09
-980.635
-1001.88
-1223.07
-977.856
-1240.72
-775.557
-636.93
-636.138
-774.522
-446.508
-510.463
-435.217
-519.898
-409.481
-373.146
-367.733
-413.933
-396.155
-349.444
-389.98
-355.919
-457.689
-537.29
-534.165
-462.807
-3430.79
-4325.55
-3552.03
-4261.17
-2207.68
-1671.38
-1738.59
-2155.34
-2232.1
-1775.9
-2224.41
-1787.57
-3242.55
-3941.93
-4101.8
-3050.04
-11620.3
-8248.53
-9009.91
-9498.08
-21947.3
-29823.1
-12106
-8356.71
-22095.5
-21526
-18203.4
-25757.7
-8665.14
-7717.13
-7075.34
-9082.26
-12782.6
-14178.4
-11553.5
-15040.7
-7982.12
-5920.49
-6468.54
-7565.15
-14380.6
-18616.6
-16173.8
-17214.3
-434698
-813.14
-733.334
-766.457
-466.479
-545.903
-1197.04
-593.288
-911.425
-1334.41
-711.077
-1493.81
-753.469
-624.077
-318.084
-424.53
-405.791
-474.943
-500712
-6913.56
-6814.33
-26706.8
-11703.6
-8297.54
-4301.12
-8168.61
-4316.15
-2506.94
-4535.64
-2736.19
-4498.43
-8149.28
-12729.9
-7903.26
-9864.61
-8214.04
-242877
-271084
-257.411
-255.48
-268.341
-276.364
-273.301
-271.597
-268.172
-273.291
-257.571
-258.762
-255.909
-260.404
-294.102
-304.549
-287.611
-285.978
-282.691
-290.744
-287.391
-282.486
-294.938
-307.724
-306.058
-297.434
-184.561
-213.521
-258.287
-162.738
-196.765
-239.61
-154.431
-56.8421
-60.7309
-40.426
-50.8562
-64.2893
-64.5721
-78.9452
-43.9581
-75.0147
-70.0906
-157.062
-193.82
-192.591
-141.609
-154.174
-196.556
-142.188
-45.0787
-58.8841
-40.7631
-47.4935
-57.8452
-43.0234
-56.4794
-41.4158
-41.1582
-57.0369
-269.929
-264.975
-257.693
-276.95
-240.183
-259.854
-277.99
-307.763
-300.398
-287.715
-232.348
-221.754
-270.304
-276.14
-267.899
-278.895
-278.295
-278.208
-273.402
-283.149
-267.226
-260.735
-265.135
-262.387
-281.144
-294.68
-289.799
-286.477
-297.414
-280.929
-294.157
-284.183
-320.632
-348.526
-343.864
-326.217
-309.194
-327.22
-331.263
-304.938
-308.87
-300.788
-295.095
-313.736
-715.597
-579.003
-685.348
-601.935
-907.573
-1200.71
-956.869
-1149.99
-744.157
-633.435
-765.032
-616.266
-868.695
-1009.95
-807.41
-1081.93
-398.536
-484.235
-441.993
-436.698
-340.958
-244.352
-259.795
-320.615
-363.888
-308.194
-401.964
-284.131
-371.379
-376.605
-401.946
-348.725
-460.094
-510.443
-520.443
-455.496
-418.224
-380.848
-419.689
-382.066
-463.367
-538.281
-467.283
-530.46
-416.757
-388.003
-417.325
-384.261
-306.686
-321.299
-316.675
-312.187
-296.405
-287.702
-292.594
-292.258
-302.906
-309.979
-312.824
-299.441
-300.24
-303.011
-295.542
-306.56
-308.97
-323.871
-303.81
-330.257
-296.163
-231.522
-222.995
-306.586
-287.312
-210.847
-282.144
-216.492
-320.395
-355.508
-331.07
-342.983
-329.167
-329.118
-319.845
-336.565
-338.143
-356.415
-334.997
-358.084
-324.762
-309.674
-321.769
-313.855
-342.998
-365.199
-360.498
-350.439
-30935.6
-71716.1
-70100.1
-30494.6
-26359.4
-62047.6
-64044.6
-25845.3
-26677.1
-67892.2
-27199.8
-65645.4
-30834.8
-69156.1
-69485.5
-32959.8
-116109
-119918
-261329
-390754
-313528
-346373
-256327
-318885
-352711
-130635
-124791
-32870.7
-73315.9
-30894.3
-76796.9
-29150.7
-77147.8
-72996.9
-32125.1
-28703.4
-69438.9
-27886.6
-71992.7
-33907.2
-85497.6
-79970
-38297.5
-2301.59
-2700.34
-1974.14
-3039.11
-1928.91
-1593.56
-2044.88
-1466.81
-2528.27
-3648.33
-2828.59
-3391.52
-1770.36
-1222.75
-1611.57
-1371.22
-3422.7
-2957.68
-2366.61
-3832.64
-3582.58
-4494.25
-2620.49
-6303.49
-3046.03
-1563.79
-2017.98
-2163.97
-4182.28
-6240.39
-5067.89
-5921.1
-5389.24
-3357.4
-4041.85
-4668.31
-8567.67
-12213
-10012.1
-11130.3
-6214.05
-5308.59
-6750.23
-4612.54
-7176.13
-7811.51
-5831.96
-9462.79
-126807
-160200
-195298
-97942.4
-75543.5
-61628.9
-54074.2
-40859.4
-55184.9
-55298.1
-204734
-537312
-274228
-252004
-248436
-250823
-336312
-322130
-286710
-248253
-315500
-262877
-276846
-297618
-285231
-406780
-378901
-341592
-349323
-287329
-244697
-231288
-199347
-290371
-256972
-195831
-190967
-228324
-229067
-201843
-172523
-116915
-163395
-122326
-203700
-235003
-248827
-194454
-161095
-131104
-170864
-114549
-71340.9
-89421.5
-70138.7
-86672.2
-28707.1
-24376.9
-25965.7
-28167
-36709.1
-33731.7
-30997.6
-36507.1
-57561.6
-57400.6
-61991.6
-54610.1
-160355
-202263
-195895
-164317
-131210
-89588.4
-91438.6
-127088
-134115
-96954.9
-94966.5
-138721
-155490
-186074
-191763
-151987
-274053
-232223
-265362
-238886
-303132
-313472
-297032
-289216
-278713
-254068
-290451
-244438
-174354
-206889
-169677
-214226
-149788
-110413
-106366
-157363
-147158
-100779
-103026
-141880
-179076
-228123
-186228
-217979
-164384
-160062
-337878
-458730
-394247
-431483
-341449
-397137
-417899
-138596
-145589
-15151.4
-22298.4
-24652.8
-14668.7
-14170.5
-4287.08
-10007.6
-6860.51
-19123.9
-76184.3
-70939.7
-18786
-10858
-8082.38
-6975.54
-9788.93
-83078.4
-150729
-119229
-124809
-120268
-104730
-111027
-179673
-156329
-147211
-131034
-116419
-52658.7
-107070
-103630
-52446.8
-40834.3
-80688.2
-33918
-86078.3
-47078.5
-89556.4
-38922.6
-96967
-40023.8
-91749.2
-80375.8
-55974.8
-25625.1
-29900.4
-17602.6
-32650.5
-20798.7
-19851.3
-17081.8
-22450.7
-16840.6
-9965.2
-13162.1
-13754
-36452.5
-45466.6
-42121.1
-39255
-501377
-552649
-496987
-538991
-528996
-507233
-470711
-427496
-436989
-463049
-480664
-453282
-487907
-443829
-489067
-509589
-519630
-478781
-556553
-566940
-563296
-506537
-466143
-547515
-554400
-474373
-556577
-582753
-573520
-524398
-547854
-514532
-557428
-513402
-482932
-474369
-518531
-504158
-459534
-497640
-468796
-530497
-573319
-565036
-539226
-308533
-365951
-323204
-354113
-257113
-247731
-289065
-324958
-333997
-276919
-283561
-297814
-416909
-387471
-376096
-426301
-390227
-420745
-424271
-387921
-438445
-483475
-448052
-474652
-367071
-320257
-328327
-357786
-420733
-390795
-378351
-429604
-433460
-466189
-423810
-471631
-406086
-353193
-364416
-398716
-442779
-487933
-452710
-482131
-358837
-322841
-315440
-364255
-377090
-407943
-414649
-368561
-382843
-429919
-423528
-391378
-351005
-303366
-310713
-345413
-260689
-300331
-254149
-304886
-237179
-241179
-265250
-317538
-272386
-312508
-230140
-226898
-377318
-327251
-371881
-335006
-410588
-458472
-453192
-419073
-405301
-438556
-444572
-396668
-385480
-348160
-390844
-340052
-588152
-588261
-592011
-555885
-527792
-590902
-588838
-520937
-592364
-586248
-591325
-539953
-575432
-566980
-546627
-473297
-447021
-443720
-475562
-524893
-500842
-492715
-532842
-488814
-529340
-517395
-500043
-549390
-583545
-582180
-553886
-529528
-487124
-526167
-495085
-549295
-578188
-542978
-583228
-536230
-507144
-499929
-538620
-364689
-334860
-35943.5
-70878.8
-69907.1
-39473.5
-26345.3
-60261.7
-26478.8
-58415
-36031.6
-69145
-69634.8
-32939
-28358.6
-54943.4
-28915
-56624.8
-106646
-106933
-224335
-329102
-276078
-300565
-227007
-272327
-295944
-106974
-106587
-42956.1
-71269.8
-39294
-72499.5
-33738.8
-49767.4
-50414.1
-34656.3
-31791.7
-53269.7
-30985.3
-51887.6
-42701.4
-74267.3
-72912.6
-46339.6
-181245
-151290
-176058
-155318
-203728
-208777
-185874
-164350
-160244
-191286
-198108
-193171
-99866.7
-129962
-126015
-102949
-80840.6
-58348.3
-59208.7
-79029.9
-83534.6
-61301.6
-85937.2
-60228.6
-96985.3
-118551
-122261
-94201.1
-109614
-133818
-137977
-106548
-94486.2
-66791.7
-97556.2
-65205.9
-113582
-146279
-141908
-116670
-91548.2
-62488.8
-88738.6
-63786.1
-139273
-167639
-172663
-136041
-120219
-86071.5
-124080
-84213
-143885
-181986
-176673
-147217
-117172
-78946.8
-80812.8
-113526
-206348
-183216
-212237
-178917
-219759
-214585
-201615
-169456
-195970
-173652
-225751
-231078
-128362
-163627
-131535
-158833
-103874
-69001.2
-70839.1
-100601
-106970
-75682.1
-73813.3
-110430
-123994
-150256
-120868
-154833
-107116
-106710
-211208
-303394
-250111
-268762
-208591
-253798
-273239
-106643
-107064
-55337.3
-77973.1
-79270.3
-52172.8
-44470.7
-48107.5
-46001.5
-45508.6
-42927.2
-46174.7
-47922.4
-41881.2
-54929.8
-80646
-79437.2
-57893.9
-49195.4
-77723.4
-76358.7
-52553.5
-37480
-48262.8
-36492.1
-48630.9
-49546.3
-74649.2
-46027.4
-76034.7
-39215.2
-48078.2
-46884.7
-40241.3
-416000
-379292
-452060
-470757
-480562
-442047
-445243
-420326
-453137
-410912
-460398
-500058
-490113
-470576
-435456
-394255
-427420
-403536
-471390
-461688
-462271
-418242
-397780
-466316
-471317
-390574
-457559
-442862
-452360
-423999
-461262
-433669
-451612
-400321
-361369
-370170
-392162
-409707
-386782
-417826
-377684
-415481
-432712
-442210
-406506
-182607
-210801
-178147
-215111
-166347
-168748
-186754
-226158
-221793
-191705
-160516
-158260
-250492
-225070
-219351
-256289
-261874
-283395
-290394
-255181
-268471
-305380
-275440
-298313
-243311
-208358
-213816
-237591
-269498
-230507
-236675
-263643
-295860
-336050
-303712
-328917
-277015
-248692
-241990
-282903
-289403
-313496
-281962
-320607
-323854
-278735
-285951
-318032
-354048
-399025
-362510
-392128
-331794
-298414
-291125
-337519
-347756
-376202
-383229
-339392
-205261
-248697
-211082
-244300
-177240
-174711
-201239
-232975
-195693
-237371
-183319
-185932
-304269
-273445
-310138
-266333
-318267
-344533
-351662
-310195
-324745
-367409
-360318
-332976
-296463
-254022
-290576
-260990
-405828
-414968
-417834
-380569
-348321
-406139
-409121
-355247
-414574
-433550
-424228
-354848
-386707
-377641
-363316
-332356
-299229
-306822
-324312
-340872
-322203
-314467
-348980
-346398
-359868
-368791
-338033
-380457
-395713
-404923
-371891
-374826
-353807
-382988
-345511
-389130
-423426
-397776
-414075
-365865
-329907
-337825
-357720
-102117
-102468
-167566
-223352
-190303
-198271
-164684
-194090
-202603
-103645
-103415
-68664.8
-83657.7
-83913.6
-67250.4
-59388.1
-54789.3
-52896.6
-59836.6
-58817
-51883.1
-58252.5
-53951.1
-67946.5
-83404.6
-83296
-69151.6
-66277.9
-84180.3
-83771.2
-67914
-56047.2
-49694.7
-55290.8
-52033.8
-66894.5
-83638.5
-84191.4
-65040.6
-56887.1
-53022.5
-57549.3
-50803.6
-87174.1
-104985
-108020
-85072.7
-75186.1
-57480.4
-76348.3
-56839.3
-89436.6
-114927
-111491
-91823.1
-72476.4
-55692.9
-71867.8
-56131.1
-131607
-115316
-135636
-111791
-140913
-136457
-144997
-149521
-127587
-105995
-109004
-123882
-81069.5
-101641
-82929.6
-99138.6
-66372.2
-54381.1
-54466.1
-66530.9
-68999.1
-55133
-69169.5
-54885
-79067.4
-93919.8
-95858.7
-77439.4
-105399
-105397
-181704
-248070
-216704
-228851
-184469
-212953
-224460
-104509
-104625
-59737.3
-82763.7
-81792.2
-62261.6
-47962.4
-46243.2
-46949
-48565.1
-60199.4
-80717.5
-81810.8
-57457.8
-49292.8
-49251.3
-46819.8
-50263
-64063.2
-82642.9
-83478.6
-61765.5
-53483
-51042.2
-54322.8
-48617.9
-63532.7
-83960.9
-65613.3
-83259.9
-52390
-47634.7
-50093
-51477.1
-68708.6
-81854.8
-80984.7
-69725.2
-59189.2
-54324.2
-54055.1
-60032.2
-61235.7
-53925.5
-54158.2
-60482.6
-67304.4
-77450.6
-78087.9
-66465.8
-113011
-95463.4
-110275
-97870.2
-128637
-132819
-125316
-121598
-116755
-103223
-120012
-100553
-72477.1
-84894.7
-71268.4
-86031.5
-64440.2
-54074.4
-54130
-64026.3
-62079
-54074.5
-53916.5
-62686.1
-74172.3
-90682.6
-75587.8
-89189.1
-268170
-301836
-269092
-276784
-285757
-267176
-242955
-278805
-278089
-249204
-286302
-292894
-285001
-229155
-252773
-245084
-236384
-211257
-188220
-194473
-204389
-217983
-207272
-225056
-200814
-222149
-230239
-237726
-215103
-251040
-260340
-268238
-243611
-246466
-234026
-253892
-227188
-258471
-284098
-276009
-266073
-239268
-213808
-232020
-220457
-218180
-186916
-192050
-212661
-242113
-275676
-248609
-268763
-224965
-202823
-197529
-230606
-235621
-254442
-229277
-261250
-136880
-163605
-140512
-159854
-116551
-114869
-132701
-150583
-154194
-129205
-121492
-123271
-200682
-181533
-206064
-176538
-210490
-226843
-233384
-204477
-216731
-247147
-222902
-240461
-194285
-166447
-171276
-189054
-326177
-317919
-325227
-301412
-287710
-332651
-333327
-281179
-324772
-301285
-309355
-313328
-325278
-333891
-305232
-308056
-291689
-316008
-284216
-321492
-351182
-342412
-329719
-299969
-269489
-276810
-292119
-289300
-316938
-308492
-297239
-268896
-240949
-261304
-247953
-281486
-292062
-273700
-300337
-276527
-262227
-255050
-284260
-156424
-142361
-138031
-161135
-164249
-176272
-182103
-158972
-169788
-194314
-188298
-175255
-150860
-129257
-133394
-146343
-117873
-133049
-114682
-136372
-108506
-110101
-121804
-145115
-125146
-141646
-103928
-102426
-171809
-147169
-166907
-151667
-192559
-219975
-213591
-198398
-186647
-200733
-206953
-180987
-177783
-161320
-182867
-156644
-53804.6
-60283.7
-82686.2
-68381.5
-193124
-294886
-281643
-157989
-299601
-190926
-159846
-195678
-164985
-287114
-309777
-304556
-162223
-198461
-302268
-265307
-395297
-358458
-383334
-341171
-222915
-514128
-402261
-376610
-497313
-409304
-505127
-506990
-523126
-525733
-382596
-423900
-416560
-515999
-531878
-529408
-400263
-412490
-486151
-460318
-516180
-518340
-558097
-563762
-484030
-435238
-473118
-568112
-550936
-186900
-290328
-156098
-269006
-188822
-285889
-154789
-185006
-152138
-264194
-277278
-281547
-153126
-183219
-163956
-228647
-217704
-138825
-232599
-162147
-139503
-165753
-141743
-240555
-222032
-236581
-167526
-141102
-486965
-395273
-488247
-357110
-496018
-388443
-478713
-477870
-460310
-351140
-374976
-381647
-469675
-468865
-372492
-297736
-279688
-355020
-303963
-364105
-363427
-381006
-380491
-316557
-285451
-310254
-389526
-371926
-132373
-166121
-158902
-116176
-169948
-130203
-117444
-134507
-120664
-177673
-162925
-173820
-136631
-119482
-158456
-224679
-137175
-207050
-160311
-220738
-136446
-156580
-133950
-212854
-202793
-216780
-154684
-134742
-246142
-203124
-192523
-230652
-208690
-238956
-237700
-253482
-252256
-219996
-197721
-214322
-260854
-245016
-347439
-291513
-346640
-262664
-355714
-285344
-338386
-339180
-322040
-273105
-257003
-279193
-331049
-330132
-162270
-114088
-128019
-197590
-211918
-337563
-184168
-311297
-177793
-218512
-329245
-206020
-168289
-315522
-303386
-201986
-172573
-321739
-241035
-349008
-192767
-340583
-230225
-201685
-361801
-268170
-231113
-396446
-355153
-281952
-218041
-380289
-556398
-456118
-410393
-560352
-447557
-551834
-564632
-548383
-534470
-431538
-404176
-540431
-439317
-543966
-576582
-465139
-437107
-565935
-474786
-571567
-571134
-577425
-571419
-489758
-442318
-576104
-482698
-570856
-177948
-260696
-147592
-248187
-148285
-176237
-264782
-179696
-150590
-273068
-252743
-181428
-149792
-268906
-172779
-256626
-146090
-237211
-174499
-145449
-252588
-171033
-143299
-244557
-232792
-169294
-143927
-248557
-441953
-348654
-326682
-424209
-355149
-433240
-433118
-450897
-451333
-368305
-332605
-459834
-361726
-442137
-415525
-342150
-308757
-415400
-335714
-424270
-406527
-406784
-389099
-322919
-302902
-398157
-329281
-397816
-142841
-193236
-126698
-177488
-125683
-144873
-189346
-140796
-122653
-181566
-173378
-138721
-123752
-185437
-148863
-197160
-128576
-188018
-146877
-129512
-201060
-150821
-132190
-208908
-192204
-152766
-131329
-204993
-283567
-243172
-218740
-282429
-237312
-274832
-291271
-275893
-259748
-225725
-213361
-268363
-231486
-267167
-306944
-249083
-234881
-290250
-255016
-299102
-298014
-314925
-313921
-267030
-240407
-322925
-261010
-305989
)
;

boundaryField
{
    left
    {
        type            calculated;
        value           nonuniform List<scalar> 
290
(
-196.113
-411204
-420.185
-341.557
-196.212
-237.11
-495.666
-235.8
-654722
-125915
-490181
-712.242
-388090
-101199
-354.842
-1044.73
-1870.79
-11994.5
-7081.55
-2501.15
-1578.14
-198.678
-198.607
-283.028
-316.483
-250.917
-333.29
-300.772
-999.711
-370.229
-266.22
-297.522
-279.522
-253813
-301644
-2260.17
-9979.96
-1726.97
-135095
-19768.5
-7238.17
-11306.3
-25907.7
-99684.2
-527.499
-864.413
-1563.6
-2941.22
-2467.63
-75.2265
-38462.2
-28386.8
-124.812
-204.056
-635.892
-232.666
-65.3101
-103.235
-75.7985
-78.0117
-196.426
-243.293
-248.296
-239.379
-312.485
-308.892
-702.066
-500.086
-366.224
-306.719
-240.127
-155659
-322535
-1022.01
-1720.48
-1074.91
-250769
-105310
-120231
-513300
-217119
-94902.5
-301.602
-370.582
-441.446
-415.666
-333.348
-1004.34
-602.777
-635.518
-3432.29
-3469.14
-1839.21
-12888.5
-6975.21
-6592.47
-4606.51
-6068.46
-11788.5
-2813.5
-15420.8
-29059.4
-763.336
-264.664
-1436.04
-73.0741
-65.6354
-218.55
-196.35
-78.2686
-74.3826
-288.833
-271.046
-265.391
-297.219
-280.259
-298.469
-256.397
-271.059
-330.484
-318.835
-243.406
-315.45
-325.729
-341.449
-312.825
-317.422
-306.067
-629.46
-586.019
-884.318
-373.259
-440.828
-451.208
-298.674
-400.59
-353.427
-310.015
-261.916
-205191
-354581
-4250.71
-2707.69
-1441.42
-5657.84
-4348.77
-7380.87
-1454.92
-2490.6
-3072.7
-27217.5
-50411.8
-180230
-12777.5
-12732.6
-25072.4
-16700.4
-9551.69
-4858.62
-31938.2
-47383.2
-161732
-35711.1
-41540.9
-29445.2
-75508.4
-150738
-89729.9
-196.62
-199.968
-199.195
-243345
-224104
-347379
-252.935
-288.081
-480.196
-297.786
-197.094
-220.818
-199.238
-200.026
-196.444
-708371
-626675
-409819
-2975.03
-5533.25
-4510.69
-906.695
-959.566
-1668.7
-190.37
-187.613
-203.857
-196.962
-196.348
-193.719
-200.268
-196.629
-78.0409
-122.468
-120.452
-122.008
-77.6018
-44759.8
-87231.1
-95948.5
-63933.8
-60676.6
-28587.3
-136315
-150.458
-165.509
-144.253
-185.315
-179.616
-171.865
-586.993
-332.981
-354.208
-172.306
-182.668
-257.864
-71.6082
-101.436
-98.0639
-126.587
-109.944
-83.7728
-78.7933
-122.47
-120.703
-121.69
-123.071
-79.9698
-196.72
-200.267
-199.62
-262220
-304151
-218396
-719049
-5158.82
-5706.64
-3025.36
-16092.5
-10478.9
-9262.82
-10405.3
-8976.24
-22702.6
-456.581
-581.007
-795.202
-411.613
-463.552
-289.987
-1680.73
-913.355
-758.444
-72.6879
-111.321
-113.592
-101.378
-106.969
-70.1914
-207.326
-181.921
-176.445
-198.988
-198.463
-197.348
-79.8555
-121.599
-121.396
-116.04
-119.599
-78.2485
-423399
-457260
-346369
-384931
-552954
-596751
-490953
-520706
-365397
-565653
-479509
)
;
    }
    bottom
    {
        type            calculated;
        value           nonuniform List<scalar> 0();
    }
    interface
    {
        type            calculated;
        value           nonuniform List<scalar> 
2123
(
-394407
-212773
-295400
-456182
-491261
-388322
-301051
-448595
-340246
-233945
-333318
-207444
-227672
-441406
-453562
-250771
-256288
-512239
-522452
-346905
-341104
-396924
-389712