/*--------------------------------*- C++ -*----------------------------------*\
| =========                 |                                                 |
| \\      /  F ield         | OpenFOAM: The Open Source CFD Toolbox           |
|  \\    /   O peration     | Version:  2012                                  |
|   \\  /    A nd           | Website:  www.openfoam.com                      |
|    \\/     M anipulation  |                                                 |
\*---------------------------------------------------------------------------*/
FoamFile
{
    version     2.0;
    format      ascii;
    class       volScalarField;
    location    "0.104/solid";
    object      sigmaMin;
}
// * * * * * * * * * * * * * * * * * * * * * * * * * * * * * * * * * * * * * //

dimensions      [1 -1 -2 0 0 0 0];


internalField   nonuniform List<scalar> 
3125
(
-338.278
-393728
-335.629
-408232
-211991
-294717
-424.954
-337.885
-338.287
-454.044
-425.644
-355489
-475.166
28368.7
-14720.6
-246490
-453382
-517903
-458702
-116806
-75589.7
-583253
-387651
-300374
-350149
-9006.21
-13704.9
-274056
-445845
-338245
-450890
-55354
-73180.9
-339779
-195998
-8485.35
-269101
-11640.3
-232506
-331359
-231646
-53000.9
-332698
-38803.2
-206649
-191231
-226252
-225298
-688.641
-520.393
-890.659
-4187.71
-3115.77
-440577
-1715.63
-452337
-2242.69
-250048
-255567
-482.335
-510.469
-334.702
-335.919
-485.98
-506.313
-687.067
-432.51
-544.728
-513.617
-430.055
-532.077
-105433
-398559
-112267
-849.953
-1763.64
-2475.6
-14623.8
-29581
-92673.4
-45619.8
-6173.34
-47578.5
-19531.3
-45505.8
-412631
-1977.03
-160591
-115920
-4778.85
-509092
-519646
-311644
-515853
-342425
-82160
-329671
-280964
-250834
-79763.2
-274733
-526002
-394671
-349627
-346246
-340446
-103689
-314076
-99361.2
-10789.9
-52113.9
-50691.5
-48136.6
-11451.2
-50084.6
-309024
-93716.8
-97997.8
-394543
-387380
-300595
-397818
-267725
-62841.6
-180566
-206362
-241955
-65443.7
-215179
-390421
-225531
-256974
-229792
-79062.8
-85201.1
-52414.8
-8789.94
-52701.1
-234671
-92172.6
-87070.9
-51516.4
-9500.92
-52577.1
-277536
-284131
-277524
-149188
-176360
-172229
-46427.3
-148151
-284273
-215349
-185829
-118552
-44402.3
-140468
-632.147
-528.072
-864.346
-931.618
-1341.1
-46.2355
-412409
-5.17542
-378.097
13.891
-498740
-34690.3
-21161.2
-228172
-277845
-413.843
-521.209
-9.37216
-330.048
-18.7846
-45.7302
-338.432
-42.5342
-417.632
-422.792
-612.924
-441.987
-572.255
-523.018
-426.835
-525.519
-270109
-372078
-281613
-687.683
-529.775
-823.541
-401381
-8753.26
-4781.21
2206.43
-45983.6
-17572
-15836.3
-18873.3
-482847
20077.7
-294949
-340132
-56965.2
-476377
-510057
-370300
-482518
-390441
-87714.9
-191427
-159913
-128069
-77569.8
-132149
-530565
-468612
-441518
-369714
-317451
-265027
-334497
-254288
-9568.79
-13330
-12949.2
-16454.5
-12904.2
-15567.3
-288977
-209643
-220225
-423593
-359106
-364215
-427848
-345121
-57783.6
-91742.6
-96138.9
-123617
-70669.6
-119072
-361250
-273785
-290897
-210399
-151872
-162533
-13971.2
-8071.37
-14718.9
-254294
-205698
-195059
-19306.7
-10936.1
-18601.9
-251549
-310914
-251007
-186657
-201666
-87449.6
-50727.3
-83267.2
-311701
-267709
-251102
-60830.3
-40594.7
-64237
-148354
-181012
-452.687
-477.835
-672.855
-592.859
-569.709
-493.437
-544.893
-519.003
-897.049
-1263.11
-1325.1
-1871.13
-4469.15
-2527.2
-2090.4
-3644.22
-2327.96
-419058
-346.716
-954.83
-28.2245
-511851
-16475.2
-2097.39
-11274.3
-233607
-272250
-454.01
-533.785
-331.929
-32.5888
-22.3753
-338.208
-35.7334
-41.1088
-438.504
-429.484
-457.85
-491.131
-463.222
-478.932
-497.59
-469.955
-669.262
-606.572
-608.792
-436.018
-541.143
-551.896
-565.678
-562
-577.982
-536.345
-517.809
-539.706
-428.289
-533.914
-529.002
-523.692
-551.659
-544.597
-169239
-107403
-173803
-378253
-302704
-287870
-109914
-186228
-179339
-785.492
-1140.03
-987.92
-579.963
-1434.59
-1022.86
-1742.19
-1813.7
-1361.51
-151366
-10553.3
-10371.9
55044.6
-31436.5
28584.2
-30819.8
-74186.5
-16711.8
-21941
-20762.3
-28136.5
-38278.7
5095.07
-8024.86
-1102.9
-4490.54
-18791.4
-46999.9
-19667.2
-18434.6
-23065.9
-21415.7
-46699.8
-22860.5
-21589.3
-460774
-312325
-342553
-30624.6
-1791.1
-2046.6
-232085
-146221
-28233.2
-223032
-49836.7
-195598
-115015
-208391
-3167.01
-1686.32
-1575.66
-484346
-566000
-377264
-322518
-390671
-490768
-417903
-396714
-332975
-416167
-403801
-79839
-142770
-147739
-260185
-294372
-227828
-211375
-289278
-219786
-189025
-259410
-195346
-79490.9
-139000
-136106
-267621
-206405
-201393
-558971
-424258
-441983
-466215
-358415
-426067
-425510
-358298
-434140
-363806
-323171
-165173
-102161
-161420
-329351
-239153
-249706
-100733
-154334
-157832
-10164.2
-13429.3
-13007.9
-24761.4
-51718.9
-23683.9
-21489.9
-51241.5
-22587.5
-18432.6
-48784.8
-18724.2
-12148.4
-14041.6
-14757.5
-49438.4
-20426.5
-19457.3
-293971
-234859
-224319
-140434
-95193.3
-143943
-150873
-96615.8
-147417
-416265
-366123
-363856
-289563
-350563
-420267
-320755
-339043
-278592
-324416
-337411
-60283.7
-105186
-100626
-135392
-189042
-141886
-155181
-197646
-148488
-182349
-233020
-175585
-68061.9
-109801
-114439
-224072
-161947
-168758
-368486
-314656
-297002
-274050
-235868
-286392
-311579
-246352
-298904
-215227
-176841
-166148
-110314
-81196.4
-114295
-122073
-83242.8
-118214
-25801.7
-52616.6
-26794.2
-8168.62
-16301.5
-15505.4
-52712.7
-28593.3
-27727.4
-249374
-180556
-191236
-136879
-90554
-133269
-125868
-88854.3
-129599
-31219
-51985.7
-30700.8
-10222.5
-17090.5
-17860.6
-52339.1
-29382.1
-30086.6
-257978
-304165
-257564
-223049
-207482
-182338
-158031
-193034
-215135
-167092
-203971
-129020
-164041
-122780
-48535.8
-75265.1
-79203.8
-156012
-110732
-116681
-304779
-228986
-245083
-261885
-205332
-249901
-226517
-195490
-238110
-88574.2
-125660
-93857.5
-42458.1
-71457.5
-67780.3
-132968
-104942
-99314.3
-251.308
-327.039
-338.945
-234.977
-328.144
-250
-235.584
-399861
-212.182
-220.506
-296.915
-351.172
-211.663
-317.684
-225.933
-164916
-551319
-218425
-257014
-214503
-419075
-115480
-217363
-289084
-222.783
-219.019
-314.977
-330.865
-218.39
-310.84
-217.829
-250.933
-327.142
-234.845
-338.815
-249.974
-328.069
-234.996
-238165
-285296
-326657
-360880
-289097
-331645
-235275
-460970
-580329
-528777
-428223
-515832
-466559
-435603
-525136
-519249
-559363
-525457
-550875
-591909
-516965
-557227
-601169
-381641
-306056
-229812
-281578
-321704
-344895
-232490
-277947
-316876
-196621
-279020
-228620
-252204
-232160
-256717
-194016
-438386
-345171
-500323
-420880
-506579
-443158
-509733
-413631
-497412
-383539
-346898
-316947
-375352
-323586
-383699
-375001
-152570
-200781
-170707
-180993
-174405
-185353
-149644
-188761
-264160
-225080
-247680
-221540
-191395
-243179
-238813
-324516
-254968
-238046
-216037
-250235
-221988
-257539
-247587
-358093
-325662
-310324
-367060
-366504
-303756
-358832
-167010
-176635
-146700
-210112
-243005
-240270
-433466
-637.649
-566.708
-2669.38
-1253.44
-1593.42
-189.2
-562.063
-460472
-5062.63
-2516.37
-378.869
-2013.26
-2237.77
-6750
-3942.4
-244551
-261116
-242.17
-334.276
-325.009
-227.825
-243.217
-325.217
-225.894
-247.642
-337.238
-325.891
-229.561
-245.251
-327.322
-231.564
-259538
-392160
-319513
-367965
-313693
-264693
-361474
-284128
-418550
-334081
-380995
-339483
-280017
-388157
-500869
-529499
-576423
-507683
-482382
-581447
-474490
-572289
-585278
-598281
-534775
-491504
-589857
-499870
-597497
-592575
-352079
-334674
-216979
-319144
-256691
-288687
-260203
-214450
-293299
-209405
-303995
-253195
-284069
-249705
-211928
-279489
-401748
-380266
-454143
-405257
-371193
-443697
-378140
-452497
-445115
-427219
-383071
-364269
-434953
-357401
-426275
-436123
-166905
-224925
-196363
-211834
-192734
-169704
-207397
-175257
-239562
-199992
-216292
-203617
-172491
-220744
-270981
-290778
-293150
-270827
-258810
-302897
-252567
-295162
-301012
-316969
-291064
-265118
-310696
-271444
-318565
-308963
-763.386
-338.159
-288.403
-709.382
-64.0399
-1143.69
-687.102
-263.183
-56.4279
-1055.65
-1240.24
-161.524
1796.54
-4092.57
1358.76
-5721.02
-2386.1
420.574
1577.08
-5753.07
-2499.02
281.522
506.105
-1937.27
-251.972
-339.22
-328.472
-235.836
-71.0101
-101.573
-45.5907
-70.6746
-101.857
-45.4788
-101.955
-406118
-28.3865
-93.0936
0.210216
-31.285
-96.6724
-200.795
-340.904
-355.353
-236.358
-270.051
-207.104
-223.858
-21.2758
6.64893
-100.831
-66.8363
-96.0907
-796896
-48806.9
-94377.5
-6289.61
-21291.1
31790.6
-22405.1
-58719.5
-36844.4
-68392.1
-26614.3
-17964.2
-41735.5
-14097.2
-36460.1
-222757
-283459
-413.769
-426.765
-362.261
-364.556
-361.271
-413.972
-429.429
-417.45
-426.024
-517.938
-549.59
-481.772
-359.632
-360.122
-481.765
-480.989
-519.221
-551.116
-519.287
-550.398
-39.5897
-90.8177
-11.8111
-36.3661
-88.0729
-228.672
-332.392
-318.29
-219.13
-319.279
-231.285
-218.029
-43.502
-14.8443
-86.2551
-46.326
-86.744
-69.8159
-101.277
-44.1231
-70.41
-100.82
-250.868
-338.948
-327.559
-233.862
-328.342
-249.319
-234.731
-68.698
-42.9055
-98.9537
-67.34
-100.007
-419.606
-441.725
-428.864
-432.343
-368.493
-365.656
-421.636
-429.026
-417.437
-434.231
-368.44
-375.514
-578.071
-543.294
-622.597
-503.788
-438.135
-354.731
-355.341
-582.034
-529.618
-358.489
-361.172
-469.031
-463.396
-688.246
-639.049
-508.479
-522.362
-556.102
-554.473
-522.541
-482.756
-359.352
-482.866
-361.011
-520.669
-552.266
-520.778
-553.085
-484.132
-361.012
-360.979
-484.309
-94808
-93738.8
-241322
-366468
-297217
-342160
-293106
-336887
-244625
-92950.8
-93285.3
-161.523
-1148.66
-257.665
-1172.89
-714.982
-349.035
-348.866
-366.142
-212.233
-459.706
-336.593
-1122.03
-785.413
-426.65
-366.431
-830.53
-63807.2
39324.6
58722.9
326326
-11804.8
-45691.6
-173001
-123970
-53634
5458.36
6088.21
9438.46
-243.635
4851.02
6763.93
8149.55
3743.83
797.009
8201.56
4209.94
6819.11
-292271
-186998
-76973
-78176.9
-119460
-431875
-540561
-711465
-437291
-717060
-431208
-561420
-406626
-7190.81
-671567
27544.5
-468665
-600030
-559858
-550014
-538406
-474534
-450662
-543919
-443125
-534524
-547995
-529861
-539828
-310228
-362703
-331710
-342104
-235769
-246614
-268439
-291306
-277592
-334626
-311706
-291635
-257491
-293464
-289783
-261136
-211558
-209081
-251006
-278353
-247115
-282331
-218113
-220332
-588394
-576635
-569660
-512224
-516922
-576967
-517586
-557909
-576765
-587991
-547880
-375659
-311750
-93460.7
-93207.3
-227185
-339669
-270773
-307342
-274343
-312068
-224596
-92954.9
-93016.7
1447.93
5292.14
450.454
5306.64
3703.11
3892.26
4139.92
3987.65
257.641
5021.11
1161.97
4924.06
1198.35
6988.54
6823.29
3045.68
6041.16
5196.27
3520.9
6969.58
1168.09
7491.72
5161.59
5566.07
-95865.2
-96074.2
-199206
-283997
-239190
-265792
-235685
-261259
-201770
-96251.4
-96125.8
-430965
-352126
-489664
-499474
-490941
-435474
-399289
-479257
-406422
-488301
-481659
-519602
-509684
-174363
-202355
-178600
-197899
-140456
-137543
-146020
-148984
-168692
-186993
-164533
-191373
-230332
-255140
-259530
-226102
-200008
-202677
-236660
-271016
-240739
-266805
-193682
-190842
-402499
-393407
-392160
-354057
-336999
-400561
-330283
-392105
-400822
-375019
-383957
-92579.9
-91955
-155477
-205583
-181759
-194133
-178088
-189741
-158361
-90492.2
-91232.3
-157.238
4465.35
3958.1
565.04
3651.98
3402.8
3078.45
3401.37
871.468
4507.52
58.7495
4740.76
-96050.9
-96121.3
-186102
-259221
-214397
-234186
-217978
-238670
-183419
-96215
-96246.1
-3278.44
-2573.16
-3071.45
-2788.61
-1543.06
-1817.21
-478.437
-357.971
-3914.63
-4647.41
-4591.31
-4108.58
-245158
-317700
-263642
-255962
-262449
-244504
-234072
-272373
-228017
-264920
-269997
-240504
-247980
-149600
-165967
-170148
-145644
-129305
-132145
-154953
-180631
-159019
-176343
-124081
-121315
-339209
-347820
-349726
-318659
-290720
-342545
-297207
-350658
-341445
-365727
-356950
-103706
-122405
-118876
-106991
-81664.3
-79542.7
-99453.3
-110511
-96325.1
-113885
-85733.8
-87966.7
-89666
-379.291
-563.56
-573.328
-406.261
-434.693
-365.78
-339.171
-509.011
-493.293
-429.823
-498.419
-413.002
-688.67
-364.723
-710.55
-389.425
-286.658
-848.582
-906.515
-334.65
-249.879
-1008.05
-194.298
-942.838
-685.539
-440.483
-414.593
-667.012
-443.595
-581.59
-431.931
-576.066
-539.315
-494.502
-482.593
-543.569
-522.85
-456.018
-522.773
-461.868
-465.053
-584.146
-586.371
-481.451
902.474
-3484.57
1171.81
-3028.93
-1441.45
-78.6516
25.8925
-1286.89
-1566.38
223.904
-1745.27
93.3718
766.744
-2303.67
-2681.56
508.366
-14419.1
3759.51
5010.57
-9853.92
13001.5
-42432.7
-15580.6
4706.63
12847
-22664.1
9337.12
-33815
-6954.92
3296.05
2740.79
-8108.7
6281.69
-11220.7
4720.3
-12875.9
-5955.75
1833.55
2460.53
-5036.76
6844.95
-18054.9
8461.01
-15741.1
-425664
-549.847
-466.721
-210.226
-232.448
-218.923
-781.159
-385.509
-614.093
-1061.33
-430.902
-1247.46
-514.479
-337.456
-117.287
-163.462
-134.24
-266.442
-492901
-7608.78
-5303.91
-34724.5
-7863.89
-5251.64
2616.42
-7218.93
-3957.26
-2105.72
-3985
-2550.63
-3547.61
-7900.56
-10345.5
-6889.45
-10016.1
-6772.45
-239071
-266680
-457.549
-453.73
-476.443
-490.157
-486.138
-480.961
-478.191
-488.148
-455.839
-456.793
-452.63
-459.815
-531.087
-548.08
-515.947
-510.438
-506.286
-519.703
-517.23
-507.77
-530.793
-550.217
-548.644
-533.546
-239.506
-332.64
-322.212
-220.976
-235.43
-323.466
-223.816
-56.9437
-92.3608
-28.5762
-59.5111
-90.359
-53.6251
-86.9487
-25.0295
-50.3053
-88.4652
-249.255
-338.143
-327.579
-233.297
-248.79
-327.976
-232.719
-64.1239
-94.3054
-37.2438
-62.3821
-95.9817
-65.4588
-98.0392
-38.8448
-66.1951
-97.1696
-438.778
-435.572
-422.407
-451.337
-372.07
-401.785
-421.848
-467.196
-457.291
-435.917
-384.913
-371.816
-462.175
-468.579
-458.544
-472.28
-485.453
-488.764
-479.373
-494.606
-464.823
-455.745
-461.444
-458.587
-482.302
-501.122
-492.091
-492.394
-481.186
-461.429
-477.947
-465.51
-486.349
-521.345
-514.592
-496.951
-466.235
-493.581
-495.364
-461.964
-500.719
-495.723
-485.222
-509.103
-640.231
-532.366
-630.326
-515.518
-417.11
-816.79
-385.535
-758.387
-642.763
-471.413
-663.721
-489.268
-463.757
-700.245
-484.501
-737.705
-521.253
-591.946
-550.925
-556.615
-496.951
-360.515
-363.514
-486.587
-482.218
-362.073
-507.207
-361.163
-539.198
-560.737
-576.9
-526.746
-536.287
-595.624
-592.78
-553.64
-560.14
-516.123
-558.009
-527.058
-518.078
-592.698
-505.093
-587.338
-569.251
-559.561
-579.58
-542.55
-535.717
-555.66
-553.096
-539.589
-522.379
-509.076
-518.876
-514.038
-536.011
-550.865
-552.368
-533.378
-521.535
-519.21
-511.909
-526.808
-525.465
-557.567
-524.848
-559.791
-486.917
-362.257
-361.023
-490.735
-486.732
-360.263
-485.684
-363.048
-526.778
-566.344
-530.813
-559.759
-545.497
-556.469
-538.916
-560.047
-527.065
-538.634
-517.39
-544.347
-533.711
-515.151
-526.602
-524.561
-541.837
-567.825
-555.226
-558.942
-14553
-55348
-54209.4
-14785.6
6916.42
1163.29
-978.676
6820.7
7676.73
-1419.11
7175.37
1892.37
-16707.4
-55140.1
-55128.6
-17843.8
-96152.5
-98574.3
-252802
-384236
-301958
-348056
-248713
-306731
-353812
-106374
-101929
-14979.2
-54537.9
-12147.3
-57890.2
11360.5
-6779.02
6053.48
4047.77
6402.61
3177.17
8775.81
-3002.06
-11305.6
-64078.4
-57107.6
-18337.2
-73.5595
-1186.13
-128.846
-1420.97
-1027.01
-177.668
-1176.61
-245.481
135.55
-1994.7
301.009
-1636.62
-953.88
-369.733
-854.389
-340.985
-2144.37
57.7753
196.065
-1806.3
947.006
-3592.87
-149.405
-6924.74
-2322.8
-315.717
73.3298
-1092.2
996.092
-3052.58
541.631
-4779.24
-2526.39
309.042
497.354
-1916.44
2566.36
-8457.26
3852.22
-6513.85
-3219.86
1400.97
-4108.94
944.709
1594.08
-3026.6
1008.31
-4517.94
76147.4
-197120
-110961
36020.9
-120654
41016.8
-70850.1
22563.8
33264.9
-60563.8
123456
-572761
73567.6
30962.5
60801.3
64550.4
-44839.4
33115.8
102794
47025
-36664.6
25990.9
-23176.9
25474.1
-20542.5
66740.8
180517
-20154.4
72784
106521
-13136
70592.7
96727.5
74269
129796
-15178
60517.8
11644.7
56903.6
7233.73
-23617.3
21965.2
15543.8
-9424.82
-15212.3
19601.9
-27810.1
25030.4
47595.4
-995.566
-5434.86
51836.1
29198.8
-65573.4
57766.3
-98985.4
-30769.9
11404.7
17305.9
-28803.8
-41188.5
23657.3
15940.6
-42677.8
42839.8
-52075.1
-48114.7
24653.9
9905.94
-1311.08
3737.44
7536.08
-1049.35
8601.2
8515.82
1643.38
2498.58
8256.36
9492.09
-1801
8020.55
2719.42
-413.843
8812.83
-3663.96
11695.8
7938.85
3290.41
18185.7
-9923.69
-300.882
10939.3
13943.8
-2845.63
-11416
17003
5363.68
5701.93
11860.2
-4007.78
7932.84
2862.17
14820.7
-9069.84
-4082.32
11060.6
6674.89
4109.54
16431.7
-9718.85
413.729
10442.5
-141534
-135819
-334277
-458006
-380675
-422474
-318744
-386994
-416653
-113029
-120497
6340.21
4023.54
-12564.9
-325.505
-20250.9
-26.695
-10751.1
3778.06
16325
-79469.5
-97707
3710.68
-10366.8
1685.83
2973.35
-3805
-25661.9
-77599.5
-60568.6
-83473
-9004.14
9368.46
-19980.8
55716.9
85612.9
-12542.4
38485.7
51846.3
-11432.2
-89124.7
-71098.7
-30137.1
-3863.61
11729.1
16177.4
-17222
-26456.3
-61854.3
-10280.7
-75433
32266.1
-10975.7
34202.8
-5954.66
11300.6
2888.34
4427.85
-1759.55
-15145.4
10875.5
6377.86
-19337.8
-8276.19
2361.22
4574.27
-4649.37
15328.2
-26449.3
28406.3
-19069.2
-492247
-547818
-508556
-539350
-530066
-516988
-471284
-438875
-446348
-463002
-480720
-462809
-488689
-455750
-498593
-510576
-520126
-489819
-569670
-578950
-567138
-498867
-458472
-553425
-557647
-466173
-562838
-595183
-587579
-534242
-548988
-526654
-557492
-513405
-492764
-487207
-519731
-505107
-471997
-497769
-478403
-543125
-572916
-566165
-549137
-318074
-364659
-334643
-350459
-259740
-249564
-302762
-327264
-336862
-292365
-275565
-294209
-409155
-398027
-379878
-427012
-414119
-488304
-441546
-454809
-441862
-484495
-458997
-467040
-381154
-377555
-349371
-416668
-419079
-400832
-388648
-429470
-443806
-467310
-437612
-473214
-408372
-367591
-375968
-400641
-453435
-487506
-461821
-480612
-359323
-332657
-327944
-364402
-386413
-407926
-414755
-380192
-395035
-430190
-423713
-400870
-351046
-315282
-320313
-345642
-271637
-301074
-267735
-304892
-237316
-241100
-279131
-318183
-284203
-313278
-229597
-227069
-377699
-340352
-372691
-345078
-423656
-459433
-453608
-429149
-414951
-438965
-445067
-409423
-386338
-358852
-391834
-353391
-598755
-602033
-597387
-544948
-516764
-593255
-590437
-506652
-598915
-600821
-603884
-538001
-574766
-555049
-558657
-492630
-520780
-469246
-547987
-515725
-512160
-494783
-533776
-514866
-596258
-537348
-575469
-561912
-580376
-582693
-561922
-530508
-500490
-526405
-504496
-558212
-579237
-556198
-581476
-534467
-515658
-511254
-537417
-357932
-328917
-23289.5
-58806.3
-57886.5
-25450.2
4814.3
-968.415
5499.7
653.843
-21606
-56186.2
-56808.7
-19751.3
2244.22
141.423
845.415
-1238.97
-93728.5
-94064.6
-219505
-324239
-267234
-302623
-222041
-263717
-297960
-94690.2
-94338.5
-29215.7
-59872.3
-26952
-60920.4
-5800.45
-2150.22
-2646.34
-7435.3
-3344.54
-1763.12
-1746.95
-638.86
-30566.9
-63019.4
-61936.2
-32820.2
635.021
5607.27
1731.63
5634.53
4642.9
4529.35
2024.29
5971.25
5915.8
809.304
4265.24
4386.12
5733.48
-642.662
302.127
5709.28
-2853.27
-1663.97
-764.628
-2660.99
-1500.83
1583.31
-2130.95
731.27
4704.43
-37.4788
-878.056
4573
6291.63
589.522
-444.038
6173.37
-247.391
5864.61
-1285.34
5232.66
6533.09
-282.214
864.59
6735.52
-1637.41
3063.06
-738.747
3847.91
7799.05
1749.4
9.26596
7666.25
1141.64
8401.27
-776.544
8041.8
8156.87
-59.9143
2151.23
8029.66
-760.736
7590.6
8086.47
768.172
2668.52
6583.81
1113.45
6586.49
4780.56
4913.97
970.516
6237.66
2333.4
6288.43
5214.14
5003.05
7256.52
-36.0999
7489.81
1429.49
-1035.37
6593.24
7074.18
118.981
443.927
7670.66
7157.56
-857.088
7129.5
1138.65
6886.25
-140.317
-95737
-95458.7
-206874
-298976
-242697
-270352
-204326
-246208
-274904
-94936.9
-95265.7
-42399.4
-67669.3
-68597.7
-40432.8
-20859.8
-12407.8
-10641.1
-22294.7
-18828.2
-8156.03
-9663.41
-17319.9
-43307.4
-70104.4
-69269.3
-45139.6
-37339.1
-66898.2
-65891.1
-39428.1
-11386.1
-4021.03
-9769.59
-4404.88
-36231.4
-63966.6
-34041.7
-65028.2
-13617.6
-6976.2
-5899.47
-15188
-408990
-373180
-460962
-471520
-481082
-452070
-445059
-429434
-453462
-421756
-470920
-500594
-490993
-479810
-435519
-404578
-427101
-412348
-479549
-469875
-463260
-412741
-392186
-470271
-472411
-385147
-461358
-450342
-459878
-433381
-461720
-442216
-452246
-399871
-370532
-378276
-391579
-409254
-395259
-417624
-387480
-423648
-433208
-442576
-414903
-188709
-209037
-184410
-213543
-163567
-166577
-194649
-224908
-220372
-198984
-157706
-154701
-249109
-231377
-225966
-254857
-267808
-281958
-288731
-261428
-275635
-303911
-282125
-297021
-241641
-213828
-219150
-235987
-268304
-238337
-243824
-262483
-304814
-335002
-311455
-327926
-276075
-256450
-250921
-281949
-296683
-312350
-290108
-319346
-323564
-289509
-294946
-317761
-365124
-398923
-371589
-391892
-331762
-307724
-302459
-337406
-356553
-375764
-382901
-349938
-215546
-247961
-219851
-243472
-175567
-172573
-209380
-231863
-205041
-236398
-181684
-184619
-303765
-282075
-309643
-276562
-326394
-343716
-350850
-319716
-334780
-366840
-359681
-341451
-295747
-263677
-289851
-269221
-412095
-421342
-418351
-375757
-343770
-409078
-409568
-350556
-417649
-440469
-431079
-360989
-386672
-377697
-369379
-331109
-305024
-312373
-323311
-339965
-328472
-321000
-347905
-351841
-359778
-368607
-343592
-387206
-395917
-405033
-378685
-374122
-361454
-382312
-353784
-396662
-423672
-405303
-414426
-364980
-337262
-344843
-356909
-93204.4
-93713.6
-164079
-220070
-185426
-198547
-161230
-189090
-202960
-94630.6
-94233.5
-57262.6
-74315.4
-74298
-56508.5
-41457.6
-31981.7
-30518.1
-42012.7
-40421.5
-28451.6
-39742.1
-30051.5
-57349.2
-73936.1
-74080.7
-57944.6
-55401.3
-74419
-74305.2
-56312.8
-36453.6
-23783.8
-35531.1
-25609.2
-55099.6
-74049.9
-74291.3
-54026.5
-37762.5
-27922.5
-38569.5
-26198.3
1498.96
-1141.68
-1598.88
1004.36
-4166.1
-3154.33
-3866.97
-4101.19
2825.03
-1183.2
-473.609
3196.99
-5171.39
-6570.2
-5861.94
-5589.71
204.397
3101.45
-415.966
3281.5
2243.86
2752.01
3126.72
2708.16
-738.44
1695.5
1864.29
-292.031
-836.732
-2217.79
-268.364
-2133.83
-8382.88
-11552.5
-10536.4
-9532.55
-7670.07
-8054.83
-6696.43
-9059.82
-2072.3
-3413.23
-3091.49
-2699.93
-95830.3
-95653.7
-178002
-244465
-210813
-229693
-180718
-207227
-225221
-95050.3
-95335.9
-48347
-72473.7
-71861.1
-49885.1
-25566.8
-13260.1
-24218.9
-15158.1
-47636.6
-70672.3
-71398.4
-45947.3
-27378
-17896.3
-15937.9
-28631.6
-51880.1
-72824.3
-73316.5
-50497.6
-33046.2
-23153.1
-34085.4
-21241.6
-52393
-73926.1
-53620.4
-73556
-31474.7
-18614.7
-20566.8
-30326.4
-8350.69
-6921
-7839.67
-7621.25
-15754.5
-20907.6
-20004.7
-17122.2
-15258.1
-17757.2
-18718.5
-13889
-9473.46
-9387.72
-8382.34
-10220.5
-1857.65
-1481.61
-2065.02
-1055.61
2002.82
1601.27
719.608
824.163
-1033.15
441.962
-1189.5
104.947
-5762
-6319.96
-6460.68
-5510.03
-11438.9
-12994.4
-14013.7
-10172.7
-12018.1
-16409.9
-15417.1
-13352.6
-4574.21
-4217.61
-3909.09
-4826
-264462
-297456
-271832
-279717
-285349
-264169
-240198
-279897
-277641
-246346
-287495
-296186
-288113
-231592
-251649
-244082
-238620
-209076
-189741
-195745
-202710
-216407
-208973
-222976
-202781
-224003
-229123
-236485
-217178
-253657
-259459
-267233
-246435
-245053
-236670
-252010
-230109
-261687
-283218
-275251
-269103
-237294
-216239
-230524
-222619
-216015
-190387
-195485
-210598
-247506
-273840
-253767
-267195
-223143
-207180
-201963
-228684
-240021
-252750
-233895
-259253
-136622
-159962
-140458
-155888
-108746
-106179
-131611
-146131
-150075
-127904
-113607
-116273
-198372
-184086
-203656
-179126
-213511
-224891
-231076
-207687
-220614
-244993
-226597
-238646
-191628
-168186
-173006
-186487
-330250
-321815
-325064
-297903
-284248
-334489
-333210
-277835
-326498
-304777
-313035
-317702
-324907
-333415
-309764
-306965
-296564
-314613
-289354
-326511
-350849
-342177
-334610
-298438
-274005
-281068
-290951
-293368
-316322
-307987
-301137
-267119
-244366
-259980
-251109
-284932
-291428
-277337
-299584
-275283
-265911
-259005
-282600
-153014
-141852
-137510
-157674
-164894
-173754
-179219
-159761
-171145
-191589
-185934
-176458
-147117
-128025
-132202
-142630
-114868
-127612
-111436
-131281
-99053.6
-101512
-119504
-140512
-123079
-136701
-94586.1
-92231.8
-168617
-147365
-163798
-151881
-195119
-217530
-211510
-200780
-188427
-198521
-204360
-182936
-174956
-162268
-179942
-157598
-32391.1
-42909.8
-73602
-57927.1
-185660
-293510
-273069
-154109
-297950
-183613
-154922
-187899
-158854
-278591
-307477
-302729
-157556
-190474
-320871
-259407
-377950
-339045
-373275
-362831
-231856
-520930
-400916
-377180
-483948
-407842
-511480
-493238
-530571
-511262
-383318
-422054
-414979
-501936
-540009
-546319
-507303
-451126
-578926
-485215
-528048
-586523
-562929
-546897
-475423
-439241
-478419
-567953
-541316
-180019
-289041
-151968
-262068
-181800
-284774
-151388
-178394
-149015
-257277
-276309
-280470
-149505
-176738
-159403
-227607
-212950
-135633
-231574
-157712
-136422
-161023
-138710
-239585
-216966
-235603
-162669
-138005
-492536
-393952
-475170
-357588
-501905
-387150
-466019
-483078
-448269
-351517
-373632
-380321
-457246
-473822
-375386
-296160
-279233
-346524
-302365
-366873
-354495
-384056
-371013
-314975
-285329
-308694
-392697
-362880
-129211
-164489
-155423
-112190
-168353
-127060
-113733
-131316
-117035
-176156
-158990
-172267
-133408
-115580
-154295
-223592
-134032
-202340
-156037
-219631
-133148
-152566
-130547
-211678
-198458
-215627
-150767
-131524
-247248
-201532
-191242
-225918
-207064
-239957
-232530
-254681
-246677
-218374
-196984
-212739
-262145
-239883
-349958
-289903
-338237
-262378
-358336
-283767
-330423
-341560
-314592
-271524
-256324
-277581
-333317
-322242
-160598
-110299
-124898
-195957
-202903
-331399
-174186
-298660
-170259
-207971
-325099
-197246
-162431
-312898
-291156
-193681
-164729
-318209
-226473
-341807
-183562
-318692
-220148
-190530
-350129
-259895
-215822
-382319
-330068
-271030
-208074
-367880
-567545
-451773
-410478
-544307
-444316
-536235
-575622
-558714
-519677
-429430
-403998
-549543
-436674
-528712
-586227
-459329
-430908
-549344
-467286
-581897
-554009
-585078
-554530
-480064
-435457
-581142
-471748
-553337
-172083
-259815
-144650
-242243
-145153
-170503
-263864
-173598
-147281
-272103
-246666
-175195
-146804
-268007
-167397
-255716
-143047
-231709
-168983
-142490
-251695
-165858
-140284
-243631
-227522
-164245
-140909
-247626
-446169
-347178
-326765
-413419
-353684
-422043
-437157
-455362
-439529
-366909
-332854
-464496
-360313
-430729
-419204
-340629
-308808
-404793
-334199
-428093
-396334
-410269
-379488
-321376
-302705
-401501
-327726
-387780
-139464
-191867
-123234
-173337
-121967
-141437
-187946
-137486
-118842
-180090
-169671
-135452
-120202
-183994
-145268
-195834
-124960
-184027
-143354
-126130
-199764
-147122
-128892
-207687
-187795
-148976
-127818
-203743
-285177
-241552
-218155
-275977
-235734
-268828
-292972
-277393
-254190
-224144
-212275
-269758
-229871
-261162
-308868
-247501
-233989
-283784
-253400
-300917
-291101
-316967
-306529
-265414
-239973
-325065
-259431
-299041
)
;

boundaryField
{
    left
    {
        type            calculated;
        value           nonuniform List<scalar> 
290
(
-338.775
-471108
-322.865
-322.129
-338.516
-420.523
-410.481
-420.449
-706700
-96895.4
-541640
-425.539
-398736
12187.6
-504.409
-588.343
-713.022
-1928.12
-1244.44
-2381.55
-1888.67
-326.619
-331.168
-493.564
-501.517
-417.518
-531.291
-524.817
-601.527
-533.425
-414.001
-522.736
-491.013
-278636
-337192
-1520.5
-1470.01
-702.61
-145202
-2269.23
-7406.77
-4613.49
-3835.56
-90056.4
-466.114
-522.933
-659.154
-926.245
-721.509
-50.9455
-34745.2
-28287.9
47.2119
57.1254
-410.97
-310.005
-0.520261
32.86
-50.5401
-47.8244
-337.637
-420.85
-424.246
-420.443
-537.84
-536.948
-548.323
-534.795
-406.577
-535.99
-417.987
-157439
-414625
-450.023
-655.578
-583.032
-284749
-105551
-134527
9391.5
34464.5
-25678
-434.625
-442.933
-511.743
-483.123
-474.698
-565.546
-507.367
-534.149
-930.152
-943.061
-702.419
-1927.19
-1615.1
-1516.86
-1134.96
-1700.12
-2337.41
-2617.34
-15419.7
-25485
-394.431
2.89407
-1192.45
-32.4557
-10.4132
-317.549
-336.356
-46.1626
-37.6101
-496.644
-465.249
-461.818
-471.123
-468.48
-499.403
-427.689
-430.807
-538.131
-538.405
-419.672
-529.321
-548.811
-550.057
-545.643
-547.22
-527.054
-556.134
-563.54
-595.683
-550.915
-552.914
-538.412
-409.354
-533.995
-536.635
-544.065
-458.994
-218600
-403414
-973.524
-753.15
-592.732
-1286.53
-1005.61
-1025.69
-665.564
-789.748
-878.403
17034.4
-41543.1
-206748
-993.923
2520.23
3489.31
-18930.4
-2585.65
-426.28
-6388.01
3118.91
-63046.8
4557.62
5868.84
-4900.53
-41148.6
36855.3
28650.5
-339.401
-265.866
-265.046
-253861
-179393
-313197
-187.841
-188.825
-352.14
-309.308
-201.002
-195.062
-264.802
-264.984
-338.79
-734696
-664316
-503995
-2668.41
-5032.8
-3397.39
-663.59
-785.691
-1579
-249.436
-244.798
-325.264
-333.04
-257.798
-254.12
-266.326
-339.74
-50.5755
-129.099
-128.093
-128.838
-50.5936
-34652.7
-75131.3
-76233.1
-65815.4
-47945.3
-22403.2
-118632
59.0419
-46.6002
-48.9398
-39.7678
-38.3072
69.4413
-348.256
-186.1
-192.757
-219.458
-211.637
-313.806
10.2483
-73.5614
-81.7833
-57.4758
-63.877
21.5584
-49.3123
-127.633
-127.798
-125.152
-126.821
-48.373
-338.378
-264.526
-263.132
-305290
-348745
-251191
-760995
-5091.04
-4789.82
-2685.46
-13530.2
-8717.29
-9152.1
-6030.9
-8188.8
-15870.6
-245.081
-438.598
-548.72
-156.774
-321.948
-124.393
-1426.87
-702.205
-508.068
-25.8103
-106.099
-111.258
-91.0297
-99.2151
-18.3707
-318.684
-237.587
-229.659
-261.83
-260.666
-335.836
-43.4694
-122.328
-123.724
-115.863
-119.676
-40.8111
-484664
-518856
-399597
-439220
-618142
-654212
-557384
-585536
-457208
-618262
-545261
)
;
    }
    bottom
    {
        type            calculated;
        value           nonuniform List<scalar> 0();
    }
    interface
    {
        type            calculated;
        value           nonuniform List<scalar> 
2123
(
-393675
-211880
-294602
-451969
-491133
-387588
-300261
-444461
-337283
-231941
-330424
-206540
-225711
-440592
-452666
-249929
-255450
-507470
-518191
-346152
-340348
-393360
-386226
-276804
-283376
-42.6127
-412382
20.9044
30.0176
-475125
-476415
-21375.7
-228055