/*--------------------------------*- C++ -*----------------------------------*\
| =========                 |                                                 |
| \\      /  F ield         | OpenFOAM: The Open Source CFD Toolbox           |
|  \\    /   O peration     | Version:  2012                                  |
|   \\  /    A nd           | Website:  www.openfoam.com                      |
|    \\/     M anipulation  |                                                 |
\*---------------------------------------------------------------------------*/
FoamFile
{
    version     2.0;
    format      ascii;
    class       volSymmTensorField;
    location    "0.104/solid";
    object      sigma;
}
// * * * * * * * * * * * * * * * * * * * * * * * * * * * * * * * * * * * * * //

dimensions      [1 -1 -2 0 0 0 0];


internalField   nonuniform List<symmTensor> 
3125
(
(160.818 -1.08333 2.42343 149.178 -1.3904 338.235)
(7813.11 -8290.29 -19.3237 -3477.27 1718.74 393720)
(57.5473 -54.7421 -115.403 71.897 -100.337 263.92)
(125180 46661.5 105259 75133.3 55055.4 352978)
(2438.99 -3041.24 2883.55 -1618.56 -5147.44 211825)
(4779.23 -5245.15 2461.65 -2262.73 -4136.8 294637)
(203.876 -0.36576 -28.1448 186.246 -0.869582 421.369)
(91.9133 -45.5593 -86.1164 88.9055 -87.6245 286.379)
(160.761 0.507832 2.30616 148.97 -1.12834 338.251)
(117.817 -91.9272 -102.619 75.5728 -84.9923 413.55)
(203.78 -0.885529 -28.4316 185.283 -1.43323 421.994)
(-4915.13 2606.79 2367.25 5521.67 1193.33 355470)
(39.4733 -162.786 -164.511 37.2135 -129.321 400.841)
(-62744.2 1506.4 476.99 -41860.6 41596.6 -157382)
(-7950.6 2519.02 29938 14157.6 -9299.4 -150844)
(32052.4 38934.6 54108.2 11204.4 41035.9 221502)
(-4254.26 -6873.56 2987.44 4035.76 3834.57 453331)
(80688.3 46147.7 95051.8 94213.3 39564.1 491365)
(-606.187 2121.65 6279.41 -5709.97 3210.75 458594)
(41878 3583.59 1045.35 5437.68 8974.49 116059)
(11741.5 1802.1 43078.2 -14205.1 -12074.7 45211.2)
(117280 24010.5 78208.6 109627 3782.88 569997)
(7643.18 -8104.07 284.183 -3375.54 1022.48 387648)
(4950.94 -5410.68 2394.5 -2315.31 -3991.85 300301)
(-4825.29 2496.4 2657.42 5377.02 491.531 350128)
(-3383.53 1412.69 31008.6 8701.46 -5702.6 -101284)
(-6774.72 2349.91 29932.8 13202.7 -8582.3 -143979)
(-3613.45 1499.68 4836.96 3406.31 -4430.35 273900)
(-4154.91 -6706.45 2678.52 3900.13 3114.23 445807)
(-2828.62 -4309.87 345.202 2236.22 -2049.94 338232)
(-654.501 2014.67 5904.81 -5584.84 2490.89 450799)
(2663.22 1003.27 39289.7 -8658.07 -8414.86 25138.6)
(9652.04 1679.32 43081.3 -13425.5 -11351.7 42761)
(-1075.83 1081.06 3087.12 -3778.55 -2580.45 339732)
(-2639.78 866.081 5253.03 1670.32 -5466.43 195706)
(-3140.3 1313.03 31175.6 8166.61 -5398.4 -95793.7)
(-3545.91 1452.6 4896.5 3283.94 -4571.51 268936)
(-1837.33 762.678 31259.1 4954.29 -3424.18 -61272.2)
(-1844.93 -2244.33 -356.331 806.717 -3356.41 232457)
(-2754.44 -4164.93 273.56 2137.31 -2206.57 331344)
(-1314.83 502.363 2055.61 -2270.31 -3761.83 231568)
(2257.11 926.737 38620.2 -8084.82 -8092.2 22714.2)
(-1096.09 1036.89 2990.63 -3672.5 -2730.18 332649)
(660.345 504.358 33644.1 -4599.76 -5929.39 8434.04)
(2295.43 -2917.21 2884.72 -1590.84 -5152.67 206478)
(-2587.46 834.966 5237.46 1577.24 -5465.33 190933)
(-1809.46 -2140.54 -376.072 725.977 -3377.78 226201)
(-1326.36 472.916 2008.94 -2195.92 -3773.71 225217)
(224.393 -42.4398 -34.5328 -151.851 -294.15 584.858)
(226.011 -1.29823 1.15282 167.425 -39.5379 515.959)
(219.899 -105.818 -87.2707 -483.34 -563.428 656.711)
(157.567 1530.61 484.153 -2014.46 -2532.82 3147.93)
(-700.983 -1018.3 -750.272 -5063.18 -4175.71 969.507)
(8716.71 -9220.66 -3378.48 -4974.56 11380.1 440256)
(286.473 26.8281 -151.579 1195.8 700.98 761.057)
(7957.23 -9478.91 -5263.42 -4945.61 14125.3 451831)
(29.6089 232.047 106.791 1296.52 1095.59 908.701)
(3479.98 -3998.12 2790.98 -1876.69 -4918.33 249919)
(3632.57 -4148.6 2763.13 -1924.66 -4855.91 255444)
(217.34 0.201805 1.89768 208.016 -0.997015 482.318)
(230.647 0.0159486 -5.48883 220.295 -1.04509 510.358)
(153.435 -5.05277 -5.95726 138.018 -16.4101 333.164)
(156.091 -5.17765 -3.25908 140.947 -13.0456 334.999)
(218.643 0.300414 2.08945 207.529 -2.23605 485.945)
(224.019 -0.0337795 2.22265 190.105 -20.0884 505.019)
(216.806 -84.862 -73.9737 -106.954 -263.862 594.84)
(194.44 -14.1303 -38.2117 162.202 -17.6711 425.496)
(236.772 -7.17026 -10.83 179.98 -38.089 540.421)
(231.741 -0.0639477 -5.46219 219.594 -2.40129 513.491)
(199.935 -7.26481 -33.04 173.527 -9.95891 425.001)
(235.942 -2.99426 -7.47729 201.876 -19.6045 530.733)
(-54.5701 2814.28 20061 16041.9 -6676.09 101195)
(-6067 4248.89 -479.702 5475.04 11265.2 398236)
(-388.082 7798.59 21222.4 18268.9 -7378.03 107895)
(189.052 -181.581 -152.198 -391.434 -491.603 645.111)
(-33.7452 -632.365 -579.076 1333.52 122.388 1064.84)
(-684.088 -1279.77 -926.088 -4001.68 -3336.57 732.369)
(5504.84 3391.79 541.382 3861.38 -3693.13 13308.4)
(-16286.2 2723.36 25377.7 29086.9 -9618.62 -182451)
(25006.4 6251.58 5192.59 15765.5 9077.65 91078.3)
(-1178.8 10434.9 25789.1 23158.5 -11526.5 29751.2)
(-812.476 -1403.02 -1068.11 -6142.12 -6887.15 2310.09)
(-1387.52 3138.97 23742.9 16386.5 -8074.04 34680.7)
(-15685.3 2855.19 28510 18631.8 -13018.8 -175164)
(-3042.87 7282.12 24317.4 19252.7 -11032.9 31157.8)
(-3774.02 5056.59 4.1125 7445.75 14963.8 412079)
(-739.432 228.413 0.157743 1920.23 172.891 1181.67)
(45753.5 7902.15 10372 32647.2 4055.87 159476)
(2395.89 11896.8 23974.5 20457 -7220.12 110622)
(-884.673 -1924.06 -1199.13 -5247.59 -5820.91 1398.22)
(-4801.74 -7794.85 7577.99 5146.94 14055.2 508595)
(-5076.25 -7369.18 8825.32 5540.26 17659.3 518900)
(3144.25 1740.01 34478.7 -13985.9 -5389.86 307708)
(35.3188 3940.91 11714.7 -6737.35 14023.5 515206)
(14822.2 7015.07 40200.4 -16641.6 -6017.71 337418)
(25734.3 1853.38 33362.4 -13226.3 -24259.7 56805.2)
(98857.9 8046.35 10173.8 47334.7 -20915.5 327723)
(25091.4 10232.6 40468.9 -19776.6 -13640.8 274083)
(5024.42 2258.01 39070.8 -15481.4 -7917.4 244410)
(19792.2 1975.98 38309.8 -16786.2 -17581.8 52530.5)
(17265.6 6619.29 41777.9 -18705.7 -11237.8 267601)
(1028.34 4821.99 13799.9 -6223.09 17874.4 525031)
(114503 11088.9 20211.3 61066.1 -27629.7 391053)
(23173.3 11545.3 40735 -17969.6 -6417.39 344476)
(6367.01 -6809.65 1630.42 -2807.68 -2191.04 346224)
(6188.94 -6628.68 1761.07 -2738.44 -2490.19 340418)
(406.534 2211.3 20464.5 15224.9 -6658.2 99196.1)
(-4205.61 1935.62 4051.8 4426.63 -2682.31 314001)
(1219.85 1344.17 21848.3 13027.5 -6572.89 94041.4)
(-4291.27 1754.01 30408.5 10439.2 -6695.69 -118575)
(651.749 1167.01 26304.6 10448.4 -6312.11 37883.9)
(496.648 1511.77 25395.3 12456.1 -6810.67 36886.1)
(-786.529 2563.9 23988.6 15476.8 -7706.56 35095.4)
(-4700.45 1886.23 30218.9 11072.9 -7074.55 -124636)
(335.636 1677.39 25039.6 13170.1 -6987.93 36457.5)
(-4127.34 1873.74 4179.25 4293.85 -2977.79 308940)
(1290.28 907.809 23229 10381.9 -6341.77 87430.3)
(1307.62 1194.64 22256.5 12336.3 -6532.23 92417.6)
(-3487.33 -5551.95 1206.14 3075.52 -180.35 394539)
(-3400.7 -5390.47 1069.05 2964.39 -492.863 387377)
(1644.43 1168.27 32794.1 -13253.7 -5402.52 296909)
(-890.065 1485.04 4153.48 -4700.38 -765.66 397773)
(-477.499 385.948 29010.4 -11150 -5390.02 264484)
(4502.39 1256.49 41213.1 -10508.5 -9455.25 32725.8)
(-973.385 516.949 30811.5 -9578.88 -6196.23 175140)
(-193.928 786.989 33235.9 -11601.7 -6689.54 200817)
(3146.61 1725.1 37695.4 -14659.7 -7550.41 235798)
(5422.26 1351.07 41803.9 -11175.4 -9847.72 35292.2)
(283.716 925.826 34189.4 -12319 -6864.98 209542)
(-915.543 1426.83 3981.79 -4580.7 -1071.42 390377)
(-1311.08 60.7534 25734.5 -8641.63 -5204.76 222496)
(-806.176 263.441 28056.5 -10495.2 -5362.7 253814)
(-3031.07 1114.03 5208.46 2374.68 -5294.2 229553)
(614.175 552.414 23837.4 6003.73 -5296.61 71459.5)
(901.617 650.624 23954.6 7497.54 -5771.47 77992.4)
(641.284 1081.45 26535.6 9819.46 -6143.3 38080.6)
(-2509.97 1047.08 31469.5 6676.28 -4526.17 -80136.1)
(529.739 873.765 26968.3 8053.82 -5608.48 38164.9)
(-3093.47 1152.16 5190.37 2481.75 -5236.96 234441)
(1231.77 842.028 23464.7 9767.49 -6252.15 85676.2)
(992.281 690.508 23900.4 8035.81 -5909.43 80021.1)
(298.606 670.203 26884.8 5989.95 -4820.11 36965.5)
(-2325.71 967.903 31486.8 6217.54 -4244.51 -75196.5)
(476.958 815.241 27020.7 7504.91 -5418.97 38009.4)
(-2207.88 -3071.96 -157.474 1397.58 -3055.91 277502)
(-2279.26 -3202.9 -119.59 1482.49 -2981.49 284099)
(-1227.45 727.543 2395.8 -2871.17 -3518.14 277460)
(-1454.6 -75.6975 21228.7 -4523.62 -4250.33 146079)
(-1470.48 -57.5564 22784.3 -5921.37 -4687.03 173320)
(-1101.94 454.852 30103.4 -8945.5 -6028.81 166806)
(1387.76 721.439 36549.2 -6478.85 -7151.65 15952.9)
(-1292.29 318.674 28137.5 -7166.65 -5497.61 142663)
(-1211.13 761.958 2456.95 -2963.44 -3451.62 284210)
(-1384.09 22.2823 25082.3 -8060.54 -5125.43 212329)
(-1467.99 -46.7102 23325.4 -6428.29 -4813.58 182803)
(-1344.62 204.611 25692 -5082.65 -4714.29 112870)
(1174.07 659.35 35839.6 -5981.68 -6843.61 13901.4)
(-1316.28 281.598 27515.8 -6612.55 -5309.39 134940)
(201.59 60.0459 54.718 -93.5017 -258.285 537.601)
(193.775 31.3052 35.1385 45.5692 -129.38 491.227)
(238.867 116.917 87.4597 -346.005 -507.819 648.882)
(0.976585 406.798 211.372 -692.219 -586.637 714.679)
(306.115 220.074 130.857 -909.544 -1044.65 855.413)
(6.18249 -0.235885 5.9925 15.1979 -0.552395 45.3278)
(8299.2 -8823.8 -1136.38 -3850.79 4510.16 412357)
(-56.7427 -16.8806 -56.043 -41.0185 -47.5996 -70.6662)
(-16.7571 -96.5333 -238.899 135.979 -85.2673 230.254)
(-95.0437 -8.61264 -103.047 -21.0338 -13.2295 -145.583)
(44616 3266.36 20530.6 20480.4 66368.1 488561)
(15787.3 3705.08 10090.7 23432.1 7478.46 20813.3)
(3162.93 2333.7 7028.52 9808.01 8390.64 10586.5)
(2884.96 -3433.72 2865.13 -1710.15 -5092.11 228021)
(4284.54 -4759.51 2615.68 -2101.08 -4509.35 277746)
(179.175 0.446803 8.9168 176.475 -0.603414 413.502)
(227.333 -0.217022 -14.4434 222.658 -1.02498 520.495)
(-46.0038 -15.1354 -41.8026 -34.3329 -43.3192 -47.8918)
(130.53 -19.0245 -32.184 114.412 -46.9302 315.86)
(-23.496 -8.13497 -12.1826 -14.453 -25.0184 -0.95834)
(5.54021 -0.0425311 6.05409 14.7567 -0.805639 44.7969)
(160.025 -1.91883 1.52521 147.459 -4.14714 338.329)
(2.26769 -0.624734 6.30114 12.2643 -2.07076 41.3927)
(180.516 0.751605 9.39245 176.562 -1.67585 417.248)
(182.203 1.41413 10.1281 175.795 -3.67034 422.312)
(171.939 -104.338 -108.354 49.6037 -160.853 552.357)
(160.18 -50.1753 -67.3275 114.082 -52.5254 420.749)
(202.573 -52.1019 -61.4043 122.868 -92.105 546.301)
(227.756 -0.587223 -14.6886 221.861 -2.20185 522.271)
(203.444 -1.79951 -29.115 183.526 -2.93576 423.011)
(228.137 -1.33012 -15.2727 220.044 -4.22372 524.678)
(-1678.65 3930.92 14192.1 -4038.9 -5570.31 269263)
(-5259.08 3027.15 1264.22 5876.69 4017 372030)
(-3423.26 5484.88 12344.3 -4999.3 -237.72 281079)
(112.216 -204.961 -196.348 -63.7251 -273.934 559.345)
(-76.9947 -280.811 -268.545 62.341 -168.916 405.019)
(10.2883 -394.025 -351.434 -215.797 -449.549 579.745)
(140808 27299.2 21899.3 196164 -61825.2 382027)
(-46972.5 6660.57 -1054.49 -62155.4 103415 -143430)
(-12018.3 -4325.69 -1005.92 -7348.13 22803.5 -43563.5)
(-23860.5 3935.5 6492.76 -30003.1 43292.3 -77184.4)
(1077.67 -7572.19 -17495.5 22876.1 -35779.7 -10202.8)
(-4334.26 2420.18 28597.4 16768.7 -9255.96 -89107)
(-9716.18 2688.16 29904.4 15183.7 -10316.9 -158226)
(-5631.13 2807.29 28491.6 17932 -10311.9 -94407.1)
(4095.9 17680.6 29450.1 21608.6 54771.3 474260)
(-27263.1 10935.4 14193.9 -47945.7 -623.254 -87320)
(85861.8 12949.7 27332.4 56340.3 6050.59 291124)
(29584.2 43466 36950.1 520.831 11204.9 334931)
(13166.8 3627.06 2155.83 13521.2 16178.8 50657.5)
(-4541.22 -7362.63 4248.82 4467.26 6698.64 476246)
(2932.13 2239.29 28935.5 7229.56 43817.9 504566)
(2722.96 2133.25 18168.8 5079.22 -3928.21 369361)
(-419.268 2542.13 7757.03 -6106.49 6120.7 482315)
(4538.56 3782.96 21218 5215.99 797.254 389272)
(25979.9 3844.27 15450.5 -46948.3 8435.77 83191.1)
(62358.8 4331.24 1053.44 24733.9 -1694.89 191402)
(32922.2 9217.12 17864.8 -35308.8 6593.21 157080)
(9988.14 1690.53 43265.1 -15101 -11236.2 111429)
(14108.1 1912 42565.5 -15101.7 -13016 47533.4)
(12762.2 2009.73 43261.3 -15996.2 -12257.6 115575)
(8824.77 23827.9 31088.1 13577.7 44624.6 524603)
(147387 11648.1 53716.1 118059 -31191.8 457187)
(45989.6 36346.8 34441 16370.5 10411.2 438083)
(7104.12 -7545.82 978.207 -3102.24 -648.592 369710)
(5484.23 -5918.35 2172.02 -2475.69 -3458.08 317397)
(-2497.07 3792.39 12777.9 -4212.94 -2459.21 264397)
(-4537.63 2221.01 3379.56 4970.04 -1163.71 334459)
(-1254.86 3114.12 14668.9 -3500.69 -6621.56 253285)
(-3649.99 1518.5 30817.9 9256.88 -6017.09 -106908)
(-937.275 1093.39 30087.9 10541.7 -5886.49 -54862)
(-1069.46 1182.49 29865.4 11194.7 -6163.84 -58703.7)
(-3401.15 2115.44 28667.6 15724.3 -8528.97 -84314)
(-5870.29 2184.34 29966.4 12452.5 -7983.97 -137298)
(-2663.57 1876.77 28776.7 14875 -7949.07 -79674.2)
(-3819.53 1650.11 4602.02 3782.74 -3919.75 288852)
(-858.816 2063.91 15458.7 -2265.97 -7494.28 208254)
(-1257.17 2146.06 14244.6 -2747.38 -4942.82 219205)
(-3848.42 -6209.83 1917.66 3540.1 1406.1 423580)
(-3053.69 -4761.47 608.876 2547.56 -1495.56 359098)
(2608.47 2137.4 18378.8 4664.74 -1493.47 363275)
(-765.689 1752.71 5007.56 -5194.89 795.661 427788)
(1795.82 1404.23 16366.6 4508.39 -5053.99 344268)
(3155.41 1082.59 39947.3 -9253.31 -8746.5 27627.6)
(1501.1 663.955 37747.5 -9159.43 -7807.65 75391.1)
(1891.36 728.187 38471.9 -9802.04 -8098.85 79860.1)
(7795.8 1446.65 42832.8 -14271.7 -10505.2 107056)
(7958.47 1562.17 42792.2 -12616 -10776.1 40337)
(6128.09 1256.27 42192.9 -13417.7 -9944.05 102632)
(-1007.73 1219.46 3416.21 -4110.63 -2047.02 361207)
(728.869 633.247 13635 3231.75 -6062.68 272970)
(661.275 759.698 14619.5 3240.28 -4005.19 290106)
(-2793.34 966.972 5256.49 1965.2 -5437.12 210128)
(-840.516 1319.61 15038.4 -1020.94 -6691.2 150109)
(-854.593 1231.9 14576.1 -1341.91 -5499.5 161055)
(-830.128 1012.54 30282.6 9909.91 -5617.54 -51135)
(-2915.36 1219.54 31311 7650.73 -5102.29 -90437.6)
(-741.281 939.057 30444.4 9298.77 -5354.52 -47523.8)
(-3342.16 1316.6 5054.89 2933.17 -4920.02 254099)
(-1100.75 1864.55 14488.1 -2350.58 -5272.08 204556)
(-832.193 1845.24 15502.4 -1918.12 -7435.02 193563)
(-430.696 598.766 30504 6078.42 -3829.28 -28475.5)
(-1990.77 826.303 31381.3 5356.8 -3693.32 -65760.8)
(-464.197 644.219 30613 6560.99 -4078.73 -31322.4)
(-1975.42 -2585.03 -286.015 1061.64 -3270.3 251506)
(-2528.23 -3739.29 77.801 1856.57 -2600.18 310892)
(-1276.08 593.304 2185.41 -2514.03 -3700.3 250934)
(19.4506 248.195 11660.4 1933.21 -5429.26 185770)
(-377.059 199.693 12234.2 1829.66 -4573.05 200821)
(1188.6 604.876 37032.6 -8539.42 -7524.46 71001.3)
(1918.42 854.627 37940 -7531.21 -7775.2 20367.8)
(936.199 552.273 36321.5 -7940.07 -7245.84 66705.8)
(-1144.36 912.397 2734.9 -3353.61 -3101.21 311647)
(334.987 567.938 13906.4 2849.3 -4334.99 266916)
(529.234 505.997 13071.3 2870.92 -6043.31 250274)
(72.0593 321.426 32039.7 -4782.15 -5600.68 43485.3)
(817.789 551.899 34389.3 -5042.49 -6232.29 10137.4)
(173.397 348.952 32764.7 -5256.78 -5874.12 47013)
(-830.423 1073.92 14390.9 -1062.65 -5377.25 146780)
(-542.127 125.158 11732 1560.82 -4462.16 180144)
(187.956 8.765 17.3284 148.863 -32.7172 448.149)
(190.102 16.4926 23.7724 114.332 -65.2346 464.618)
(218.083 11.7278 11.2479 -146.73 -295.687 566.069)
(228.188 -15.7268 -11.5561 30.0027 -150.787 552.316)
(215.468 10.4011 14.7295 29.8745 -148.631 528.39)
(210.605 4.60752 12.6496 159.055 -37.8485 488.633)
(227.462 -5.19371 -2.27412 121.077 -77.5303 530.705)
(212.664 7.23214 14.1055 116.003 -75.2351 504.426)
(233.358 2.79528 -4.75016 -477.387 -579.167 652.944)
(157.326 -250.305 -200.971 -1175.46 -1103.87 756.31)
(207.509 -52.6688 -59.4729 -1215.5 -1175.88 779.756)
(98.4273 866.419 395.4 -1071.64 -1075.21 1474.18)
(301.766 420.335 -59.123 -4951.31 -4720.15 2086.57)
(663.913 403.604 163.944 -1683.45 -1983.47 1592.49)
(123.346 -525.634 -413.467 -2167.81 -2007.93 1129.15)
(-803.896 -774.991 -592.915 -5944.26 -4914.84 1116.25)
(252.924 -221.474 -199.163 -2316.31 -2207.51 1274.42)
(8382.16 -9002.32 -1690.98 -3989.09 5751.2 418972)
(-113.408 -90.54 -283.786 124.929 -41.8198 170.724)
(-40.0253 169.91 88.6889 501.664 588.679 87.301)
(-100.215 7.49314 -106.283 16.5607 39.0434 -155.803)
(21470 -4720.67 26440.2 7489.78 38772.2 507483)
(9476.59 1868.97 7325.97 8031.43 2800.69 5958.04)
(125.037 358.091 399.726 1068.31 1121.91 536.402)
(1612.24 1400.57 3924.42 4783.09 4826.8 5050.52)
(3032.03 -3572.54 2848.64 -1749.95 -5063.17 233461)
(4119.9 -4604.67 2661.28 -2055.02 -4608.4 272145)
(201.586 0.357367 8.65596 194.96 -0.843311 453.71)
(238.989 -0.134497 -15.4482 229.648 -1.05378 532.972)
(140.893 -15.8609 -22.249 122.869 -37.6985 323.15)
(-6.06926 -2.63067 2.34601 3.78883 -9.07863 29.4646)
(-17.7655 -6.45303 -6.68917 -8.53313 -19.8157 9.5033)
(159.506 -0.727018 0.884514 146.642 -4.83386 338.082)
(-3.16873 -2.12726 3.66957 6.64157 -6.83503 33.6789)
(0.940752 -0.673249 6.12402 11.1381 -2.8159 39.8908)
(185.955 4.73316 13.6188 165.376 -16.2448 436.833)
(184.068 2.5552 11.4178 172.879 -7.97959 428.712)
(202.949 0.590921 9.00016 194.748 -1.99464 457.517)
(220.327 0.363447 2.30364 205.771 -4.83817 491.03)
(204.692 1.00985 9.49454 193.435 -4.40969 462.802)
(208.478 2.81272 11.2906 179.726 -18.9882 477.271)
(222.154 0.307957 2.42481 201 -10.0768 497.226)
(206.578 1.68143 10.2414 189.411 -9.39409 469.247)
(200.816 -106.961 -102.812 -28.7913 -216.464 591.408)
(230.996 -38.2928 -36.0409 53.0141 -138.998 569.798)
(225.382 -51.4183 -57.211 91.6528 -118.018 576.392)
(182.908 -26.8443 -48.2862 143.276 -31.1244 424.474)
(225.003 -12.5775 -25.3337 194.119 -28.4402 536.941)
(217.921 -25.7211 -37.3454 167.928 -51.8656 541.437)
(235.635 -16.781 -18.53 136.302 -73.157 552.468)
(240.98 -11.3225 -24.3336 194.065 -34.1167 557.146)
(236.402 -24.266 -34.9265 157.929 -64.0469 565.35)
(239.791 -0.40932 -15.6128 228.876 -2.39341 535.505)
(233.055 -0.379568 -5.51103 217.498 -4.97097 517.62)
(240.655 -1.02136 -16.0905 226.814 -4.74527 538.77)
(202.429 -3.71311 -30.438 180.043 -5.34223 424.093)
(227.6 -6.06006 -19.4658 208.535 -15.3153 531.991)
(228.259 -2.88263 -16.6128 216.177 -8.1921 527.878)
(234.537 -1.17822 -6.02126 212.566 -9.98953 523.247)
(241.944 -5.21124 -19.3196 212.823 -17.9066 549.541)
(241.513 -2.34597 -17.097 222.263 -9.33207 543.37)
(-103.101 2493.51 15071.1 11723.9 -4850.46 167762)
(-550.305 3764.14 19847 16853.2 -6742.97 103349)
(-617.118 3391.06 14489.2 12220 -4301.21 172500)
(-5253.14 3229.5 864.845 6093.15 5330.66 378174)
(-3113.69 10934.6 14725.5 -6641.91 4936.76 301899)
(-2198.68 5899.14 14215.3 -4838.18 -3190.19 287144)
(-670.849 5320.27 20129.7 17967.6 -6719 105889)
(-838.265 7706.7 15537.7 12714.6 -2540.07 184917)
(-968.025 4957.19 14414.9 12726.7 -3460.42 178130)
(152.313 -216.794 -192.251 -236.622 -389.571 616.545)
(99.5699 -372.286 -302.341 -954.383 -928.115 709.377)
(45.8515 -424.031 -356.098 -616.741 -701.403 646.207)
(-296.177 -414.764 -394.629 206.539 -204.2 400.509)
(-409.909 -1235.42 -939.892 -437.57 -1040.59 793.911)
(-199.807 -712.996 -592.052 -439.023 -731.945 593.23)
(-8.15772 -715.512 -562.243 -1783.54 -1656.26 932.28)
(-729.764 -1351.76 -1000.28 -2553.19 -2323.88 539.884)
(-135.658 -785.335 -630.979 -1204.59 -1221.62 727.345)
(34489.7 1259.27 7391.58 534.618 7771.72 150490)
(1263.46 371.169 -1131.93 -4702.64 -7656.51 6523.45)
(-18075.9 -4161.72 -7854.41 -41943.7 -32711.7 -11063)
(-59124.2 9382.72 21478.2 -81465.3 -34510.8 -213911)
(-9862.84 3969.05 27231.7 30208.2 -13096.5 -116185)
(-42335.6 10990 27610.9 -40454.7 -35625.5 -143573)
(5000.26 3939.31 1652.02 -657.935 14539.3 23628.4)
(11105.6 13892 13152.5 15189.8 11198.8 67892.3)
(-464.828 1934.35 -3748.86 9072.84 -10087.3 1010.65)
(-6368.62 8969.24 10606 -1761.15 19644.8 -7402.59)
(-2313.77 704.137 -5007.95 11193.9 -18287.7 -15943.7)
(-6355.94 8104.48 26813.3 25181.1 -13816.7 -46454.9)
(-13995.3 14971.3 25608.8 -12646.6 -26429.3 17914.9)
(-27471.4 11778.8 25942.5 -21736.9 -30988.3 -63942.6)
(-270.544 -963.534 -1114.36 -6233.31 -7950.75 3550.84)
(-14423.2 -2842.98 -2090.22 -26057.1 -23842.3 -19837.8)
(-14481.3 -2139.07 -2122.64 -29648.1 -27666.8 -17939.3)
(-2980.42 3015.71 26619.3 16544 -8928.28 -28767.4)
(-2096.13 4002.93 23636.9 17317.3 -8649.64 34080.7)
(-3948.01 3677.79 26527.8 17599.2 -9834.32 -31884.4)
(-11493.3 2797.11 29530.3 17720.5 -11127.7 -165368)
(-9334.28 3676.78 27520.7 21613.5 -13679 -107950)
(-6833.92 3275.58 28245.6 20331.9 -11367.7 -99864)
(-2449.1 5337.6 23840.1 18850.7 -9256.96 33505.5)
(-6340.82 6009.48 26397.5 20134.9 -13151 -41017.2)
(-4716.89 4646.69 26535.7 19520.1 -10811.9 -35225.7)
(4761.56 11818.4 15004.2 14889.7 35354.1 457413)
(-359.316 13254.3 18863.2 -6737.31 3390.92 311132)
(19129.3 36932.9 32554.2 37.5292 17405.8 337958)
(9451.47 1157.14 1919.73 21056.1 11882.7 15332.3)
(-1368.58 -1532.82 -1366.02 -1113.47 -1800.29 601.658)
(-5350.56 1059.41 -976.772 1425.61 -1299.73 -2498.91)
(66334.3 9925.92 17338.9 49698.9 1475.9 230236)
(25861.4 18503.3 15956.2 24779.7 6333.51 143454)
(6216.82 3172.61 -2502.86 10561.4 -2577.61 27447.1)
(37419.7 29361.4 20062 26716.9 2895.04 220672)
(12543 3526 -139.833 13458.8 5765.05 48918.4)
(2340.61 13148.2 19591 13057.4 -1012.97 193612)
(-979.397 17796.7 26073 -2660.83 -17644.5 107535)
(12214.9 23582.1 26867.7 8293.16 -2871.44 204710)
(-1206.56 -2155.79 -1437.91 -3627.24 -4253.27 502.307)
(-10488.2 -3244.58 -2071.34 -18133.4 -18123.3 -14954.7)
(-7321.05 -2471.71 -1855.96 -9081.29 -10950.1 -9731.87)
(-4647.58 -7498.2 4773.04 4655.04 8023.73 484167)
(-1303.67 3320.12 32022.5 21365.4 42468.4 560852)
(-173.111 2681.32 27277.8 -10906.6 -2205.76 375283)
(5460.98 2677.24 36393.3 -14759.4 -5403.58 318264)
(1403 3637.1 29522.1 -11467.7 -1536.54 388428)
(-275.627 2749.93 8446.31 -6177.71 7474.32 490509)
(10573.4 9424.68 27268.4 5630 6467.25 415955)
(5185.95 4074.14 21433.8 5854.51 -1374.79 395538)
(9142.65 4255.22 38459.5 -15484.8 -5490.19 328336)
(9271.44 8438.95 35729.4 -12465 803.604 413024)
(4180.7 5316.94 32338 -11991 -537.074 401184)
(23392.6 3329.78 26354.1 -41515.9 -29625.3 61031)
(26592 5113.03 37460.2 -16176.9 -23209 127763)
(26492.5 9848.79 31906.2 -34689.3 -26635.8 136160)
(80506.1 5701.66 3341.73 34207.1 -11758.2 259521)
(47190.2 15055.4 20884.2 -30904.2 4284.2 292513)
(40213.7 11384.5 17317.7 -34012.4 4759.68 226101)
(25718 7683.73 39301.1 -19374.4 -19161.9 201721)
(33077 15015.4 34650.9 -30719 -15552.5 284019)
(30159.3 11896.9 32351.4 -32823.4 -21103.7 212822)
(7567.88 1870.04 41974.9 -15498.3 -9915.53 178875)
(7730.03 3086.51 40425.7 -16380.4 -8472.32 252686)
(10439.3 2447.73 42645.6 -16424.7 -10815.2 185015)
(17275 1961.27 41138.7 -15179.6 -14610.4 50415.5)
(20780.4 3206.89 40425.3 -17746.8 -17152 123531)
(16571.8 2422.29 42525.8 -16314 -13968.9 119850)
(11781.6 4405.58 41560.4 -17122.9 -9413.92 260604)
(19372.1 4839.52 41774.2 -18796.7 -15030.1 196211)
(14480.2 3327.53 42822.6 -17058.2 -12313.8 190971)
(14536.5 15124.6 30584.4 12931.4 40468.8 554124)
(13865.2 11681.1 28679.8 6980.22 5932.13 422145)
(34820.1 31196.7 37065 9839.62 16466.3 437742)
(128685 14007.8 34696.3 79374.4 -30165.2 460512)
(52740.8 18896.3 25843.4 -24603 5919.39 356083)
(48768.5 29254.4 28304.6 -14949.5 10473.4 423578)
(17663.4 14350.2 38805 -13187.4 3193.48 421770)
(35042.3 17789.7 37382.3 -24763.4 -7853.35 353887)
(33547.9 22972.3 40037.2 -13554.3 4080.63 430048)
(6922.85 -7360.82 1170.56 -3022.31 -1091.01 363799)
(5660.08 -6095.12 2078.26 -2539.07 -3250.55 323124)
(301.73 1930.25 15758.5 11174.3 -5254.69 163500)
(789.264 1815.75 20934.3 14472.9 -6630.45 97391.1)
(601.112 1561.87 16430 10635.8 -5547.52 159549)
(-4453.02 2142.14 3570.13 4831.28 -1603.19 329305)
(-1027.33 2645.25 15053.3 -3049.43 -7156.44 238008)
(-1871.71 2993.46 13398.4 -3653.97 -3663.04 248944)
(1053.08 1541.64 21403.7 13737 -6605.36 95684.6)
(895.946 1117.37 17568.4 9576.41 -5938.49 152089)
(789.143 1304.23 17035.3 10099.3 -5769.71 155770)
(-3947.76 1631.72 30613.8 9835.91 -6346.17 -112669)
(-1453.94 1396.07 29381.2 12573.1 -6764.46 -66728)
(-1236.63 1282.17 29626.3 11871.4 -6454.06 -62658.6)
(-217.232 1277.13 28594.6 10445.2 -6156.9 -9519.5)
(637.965 1263.74 26033.9 11096.4 -6477.47 37612.1)
(-295.379 1376.94 28346.3 11095.2 -6388.87 -11636.8)
(-572.331 1621.98 27784.9 12463.4 -6882.32 -16131.7)
(590.89 1376.31 25729.5 11765.4 -6642.38 37275.9)
(-408.336 1490.21 28073.7 11767.9 -6628.6 -13842.2)
(-2222.84 2552.41 26759 15558.7 -8322.16 -26065.8)
(-281.022 2171.38 24315.5 14680 -7413.7 35553.7)
(-1597.27 2221.16 26963.2 14730.5 -7845.19 -23447.4)
(-5212.31 2029.79 30065.6 11736.7 -7498.17 -130873)
(-1741.63 1528.05 29146.4 13304.4 -7104.79 -70913.7)
(-2133.84 1685.43 28939.2 14064.5 -7492.65 -75228.6)
(83.1889 1889.06 24674 13907.8 -7185.39 36004.7)
(-806.317 1778.99 27493.1 13187 -7158.88 -18497.4)
(-1140.2 1972.83 27213.2 13936.6 -7473.57 -20939.4)
(-3892.46 1702.91 4512.98 3910.27 -3715.86 293855)
(-1495.31 2500.34 13886.6 -3177.64 -4430.43 233966)
(-913.944 2320.91 15311.1 -2644.05 -7417.32 223046)
(857.236 704.387 19067.2 7618.3 -6247.73 137544)
(1328.56 984.749 22947.8 11013.9 -6417.69 89129.8)
(909.092 777.293 18776.6 8087.1 -6215.48 141203)
(939.694 975.802 18032.1 9065.96 -6064.65 148455)
(1338.76 1078.06 22623.8 11665.9 -6481.04 90787.5)
(939.887 865.688 18433.3 8569.82 -6155.64 144833)
(-3756.43 -6043.74 1719.2 3419.6 948.194 416256)
(-3139.76 -4919.37 706.028 2651.98 -1276.4 366117)
(-1102.28 2097 25478.9 -10350.5 -2682.96 362060)
(660.496 800.879 31344.9 -12525.2 -5410.05 286068)
(-1665.32 1709.7 24013.4 -9797.67 -3031.48 348902)
(-796.859 1677.92 4765.22 -5069.63 343.818 420213)
(1301.97 1028.87 15176.3 4037.33 -5640.59 319935)
(1676.44 1424.97 16684.8 4140.14 -2716.65 338196)
(-11.4146 554.832 30095.9 -11827.5 -5405.36 275243)
(-2242.48 1236.51 21761 -8740.36 -3493.85 322931)
(-2019.1 1437.18 22794.2 -9261.87 -3292.75 335851)
(3758.64 1166.31 40590.8 -9869.46 -9091.46 30163.8)
(3008.96 886.558 39953.8 -11157.2 -8726 88959.2)
(2384.08 800.982 39206.9 -10466.9 -8402.67 84390.5)
(115.977 489.057 34881.8 -9502.85 -7110.12 126061)
(-791.981 588.33 31561.8 -10232.4 -6360.32 183598)
(401.926 554.384 35637.1 -10157 -7349.32 132568)
(1266.27 727.969 37259.5 -11532.1 -7856.86 145807)
(-540.067 675.564 32365.3 -10905.9 -6523.6 192163)
(775.684 632.23 36427.1 -10833 -7596.17 139157)
(5446.13 1479.02 41049.6 -14654.8 -9298.67 172417)
(1857.36 1364.34 36411.4 -13839.7 -7279.66 227082)
(3912.25 1201.31 40057.4 -13806.1 -8837.26 165851)
(6556.37 1452.36 42343.4 -11879.6 -10280.6 37832.8)
(3805.24 985.49 40709.4 -11874.9 -9079.87 93543)
(4820.68 1105.95 41465.5 -12629.6 -9477.68 98107.4)
(939.939 1110.71 35243.4 -13066.5 -7056.97 218306)
(1912.6 846.232 38141.2 -12257.5 -8140.95 152495)
(2767.31 998.739 39077 -13016.3 -8460.46 159186)
(-984.28 1268.11 3540.96 -4223.83 -1834.25 368443)
(1087.11 1022.62 15507 3670.62 -3491.01 313852)
(984.216 798.043 14308.7 3619.58 -5945.48 296191)
(-2490.27 773.091 18787.5 -6797.86 -3896.57 272721)
(-1199.51 109.316 26438.3 -9241 -5270.7 232807)
(-2485.8 857.634 19406.8 -7262.87 -3843.28 285040)
(-2376.91 1081.28 20872 -8233.62 -3647.11 310151)
(-1037.45 174.386 27206.2 -9858.8 -5323.48 243250)
(-2451.6 958.034 20094.4 -7741.5 -3762.13 297519)
(-2850.63 1001.87 5252.96 2065.73 -5413.43 214964)
(-909.546 1415.52 14651.6 -1650.03 -5529.81 175469)
(-822.313 1476.7 15291.6 -1295.19 -7019.96 164465)
(187.862 381.766 19713.6 4372.73 -5750.37 106481)
(711.386 581.359 23923.5 6479.39 -5464.61 73710.6)
(279.112 406.411 19786.2 4726.16 -5872.82 110554)
(458.989 466.547 19801.7 5479.46 -6070.94 118540)
(807.601 613.782 23962.5 6977.88 -5623.28 75888.6)
(369.064 434.617 19815.4 5095.11 -5980.41 114574)
(-164.834 1187.5 28809.8 9816.32 -5928.8 -7497.42)
(614.218 1005.48 26724.9 9210.99 -5970.28 38196.8)
(-130.732 1106.59 28987.8 9207.83 -5702.33 -5574.44)
(-2706.16 1130.91 31410.3 7153.8 -4811.78 -85217.5)
(-603.759 807.725 30648 8140.02 -4838.44 -40662.7)
(-666.667 870.791 30566.9 8708.74 -5095.26 -44032.2)
(575.465 936.115 26869.2 8621.53 -5792.21 38225.8)
(-99.0549 962.645 29215.7 8052.93 -5249.06 -2043.88)
(-110.055 1031.77 29123.5 8619.98 -5476.24 -3755.37)
(-3276.66 1274.2 5093.19 2818.42 -5014.38 249170)
(-823.042 1651.28 15446.5 -1594.41 -7270.84 178961)
(-988.453 1625.23 14623.6 -1986.84 -5458.85 189977)
(790.522 642.698 19306.8 7163.29 -6254.16 133847)
(1160.48 785.259 23655.9 9171.37 -6150.13 83860.1)
(715.104 589.824 19498.9 6721.28 -6238.04 130101)
(546.826 502.411 19745 5878.88 -6145.05 122450)
(1079.34 734.922 23800.8 8593.86 -6035.49 81976.1)
(632.83 543.341 19644.5 6293.12 -6200.93 126303)
(-121.096 732.973 29104.1 5996.15 -4327.93 3663.54)
(359.394 713.02 26979.8 6472.42 -5024.55 37410.5)
(-109.146 782.967 29206.5 6478.01 -4559.96 2412.05)
(-2152.05 893.916 31457.8 5777.82 -3966.76 -70403.1)
(-549.773 748.559 30684 7592.36 -4583.33 -37419.3)
(-503.456 694.18 30672.9 7065.46 -4329.88 -34304.9)
(419.687 761.61 27024.7 6978.06 -5224.03 37758.5)
(-96.3036 898.044 29261.2 7506.83 -5020.45 -443.95)
(-100.329 838.259 29258.6 6981.78 -4790.39 1042.28)
(-2037.6 -2705.34 -262.691 1142.88 -3228.22 257938)
(-2461.46 -3603.27 25.9477 1763.09 -2710.12 304141)
(-1260.22 624.769 2232.08 -2597.44 -3666.08 257494)
(-173.206 297.074 12747.6 2142.48 -4596.88 222226)
(198.251 317.514 12105.9 2225.97 -5711.78 206617)
(-2117.88 360.824 15143.1 -3598.78 -3586.09 181026)
(-1461.85 -74.0902 21739.1 -4968.72 -4405.07 154948)
(-2170.31 396.04 15528.8 -3946.65 -3680.42 191731)
(-2284.28 478.741 16338.6 -4686.45 -3827.49 213842)
(-1466.99 -69.2874 22256.1 -5434.46 -4550.8 164032)
(-2224.48 434.569 15925 -4307.91 -3762.17 202674)
(-103.139 431.994 34154 -8870.38 -6874.74 119655)
(-1191.04 402.61 29426 -8332.56 -5856.92 158606)
(-271.711 383.177 33445 -8258.29 -6640.43 113364)
(1632.43 785.168 37249.4 -6996.32 -7462.03 18111)
(557.492 460.274 34904.9 -6804.05 -6695.35 58445.1)
(728.947 503.099 35613.3 -7361.87 -6970.12 62516.7)
(-1251.81 355.845 28773.1 -7739.04 -5680.12 150555)
(-505.158 302.099 32065.5 -7095.61 -6170.04 101175)