/*--------------------------------*- C++ -*----------------------------------*\
| =========                 |                                                 |
| \\      /  F ield         | OpenFOAM: The Open Source CFD Toolbox           |
|  \\    /   O peration     | Version:  2012                                  |
|   \\  /    A nd           | Website:  www.openfoam.com                      |
|    \\/     M anipulation  |                                                 |
\*---------------------------------------------------------------------------*/
FoamFile
{
    version     2.0;
    format      ascii;
    class       volVectorField;
    location    "0.104/solid";
    object      sigmaMidDir;
}
// * * * * * * * * * * * * * * * * * * * * * * * * * * * * * * * * * * * * * //

dimensions      [1 -1 -2 0 0 0 0];


internalField   nonuniform List<vector> 
3125
(
(0.995796 -0.0904762 -0.0143163)
(0.884054 -0.467381 0.0021503)
(-0.657517 0.753437 -0.00196072)
(0.748391 0.513346 -0.419984)
(0.886395 -0.46232 -0.0237435)
(0.883667 -0.467897 -0.0143176)
(0.991449 -0.0335819 0.126097)
(0.715818 -0.69828 0.00304037)
(0.998939 0.044265 -0.0126975)
(0.740474 -0.666564 0.0859675)
(0.989449 -0.0708268 0.126386)
(0.228744 0.973474 -0.00487536)
(-0.672221 0.736426 -0.0761309)
(0.998945 -0.0436751 -0.0141728)
(0.979204 -0.0380735 0.199274)
(0.743017 0.573309 -0.345316)
(-0.492743 0.870165 -0.00418631)
(0.526583 0.821602 -0.218358)
(0.941057 0.337904 -0.0152532)
(0.995537 0.0909609 -0.0251355)
(0.581576 0.756609 -0.298853)
(0.653804 0.746659 -0.12264)
(0.883817 -0.467833 0.000604675)
(0.883555 -0.46813 -0.0136209)
(0.224932 0.974369 -0.00312826)
(0.959138 0.0680104 0.274643)
(0.977731 -0.0383003 0.206338)
(0.209423 0.977748 0.0122814)
(-0.493204 0.869908 -0.0031682)
(-0.497043 0.867706 0.00584735)
(0.942069 0.335119 -0.0141906)
(0.285703 0.953276 -0.0981787)
(0.519592 0.81563 -0.254502)
(0.94161 0.336652 -0.00598679)
(0.218615 0.975573 0.0215738)
(0.947883 0.149273 0.281487)
(0.209554 0.977711 0.0129748)
(0.10771 0.994182 -0.000563358)
(-0.499548 0.866205 0.011846)
(-0.497269 0.867574 0.00627347)
(0.916982 0.398924 -0.00165158)
(0.268897 0.959137 -0.0880413)
(0.941058 0.338197 -0.00567208)
(0.188834 0.9811 -0.0422528)
(0.886572 -0.46195 -0.024355)
(0.219883 0.975276 0.0220749)
(-0.499435 0.866265 0.0122085)
(0.913843 0.406065 -0.00134087)
(0.993589 -0.113009 0.0030076)
(0.999821 -0.017827 -0.00640651)
(0.988758 -0.149445 0.00495633)
(0.923346 0.340305 0.177836)
(0.981628 -0.187898 -0.0331811)
(0.896372 -0.442899 0.0188936)
(0.753679 0.42085 -0.50483)
(0.888838 -0.457519 0.0253695)
(0.733737 0.368833 -0.570606)
(0.884926 -0.465324 -0.01947)
(0.884685 -0.465809 -0.0188494)
(0.999724 0.022417 -0.00707508)
(0.999808 -0.000444049 0.0196103)
(0.95678 -0.290768 0.00520834)
(0.956218 -0.29263 -0.00395426)
(0.999563 0.0285588 -0.00757432)
(0.999964 0.00354062 -0.00765589)
(0.968031 -0.250347 0.0155394)
(0.894867 -0.431005 0.115959)
(0.990603 -0.135531 0.0183776)
(0.999772 -0.00915732 0.019297)
(0.937444 -0.325976 0.122226)
(0.995029 -0.0978067 0.0187439)
(0.202619 0.978824 0.0291376)
(0.319112 0.947336 -0.0268579)
(0.338699 0.940891 -0.00283517)
(0.958256 -0.285593 0.0134785)
(-0.0999523 -0.573386 0.813165)
(0.958202 -0.281352 -0.0518618)
(0.831492 0.497531 0.247151)
(0.988329 -0.0301603 0.149319)
(0.907503 0.399375 -0.130143)
(0.400962 0.913656 0.0667999)
(0.982861 -0.17548 -0.0564819)
(0.268324 0.960282 0.0765509)
(0.984852 -0.019351 0.172313)
(0.377138 0.920955 0.0980278)
(0.370171 0.928324 -0.0344587)
(-0.0254183 -0.210318 0.977302)
(0.898974 0.426555 -0.0994795)
(0.41433 0.909252 -0.0398979)
(0.965053 -0.233129 -0.119684)
(-0.491465 0.87073 -0.017051)
(-0.473245 0.880649 -0.0223108)
(0.980177 0.166875 -0.106796)
(0.918551 0.39403 -0.0316925)
(0.959107 0.259213 -0.113673)
(0.821558 0.429608 -0.374806)
(0.986262 0.162603 -0.0291129)
(0.951049 0.276605 -0.137823)
(0.964086 0.221395 -0.146703)
(0.771692 0.489684 -0.405834)
(0.956226 0.253886 -0.145511)
(0.908423 0.416299 -0.0382433)
(0.973934 0.221406 -0.0493255)
(0.949122 0.29355 -0.113998)
(0.883031 -0.469257 -0.00733934)
(0.883069 -0.46917 -0.00823488)
(0.188141 0.981619 0.0320612)
(0.211894 0.977276 0.00570172)
(0.173192 0.98433 0.0331602)
(0.970058 -0.0107615 0.242635)
(0.201645 0.978938 0.0319322)
(0.218242 0.974859 0.0449537)
(0.253243 0.964882 0.0697828)
(0.972371 -0.0221136 0.232392)
(0.224842 0.973096 0.0502968)
(0.21115 0.977431 0.00666576)
(0.172765 0.984538 0.0289401)
(0.172214 0.984525 0.0324427)
(-0.495448 0.868636 0.00194242)
(-0.495658 0.868514 0.00251205)
(0.983282 0.148551 -0.105302)
(0.944358 0.328791 -0.00921836)
(0.986872 0.123265 -0.104355)
(0.352958 0.92505 -0.140366)
(0.925399 0.349854 -0.145738)
(0.953802 0.262884 -0.145446)
(0.964312 0.221042 -0.145748)
(0.383836 0.909331 -0.160582)
(0.95841 0.245754 -0.145102)
(0.944331 0.328882 -0.00871921)
(0.98434 0.138866 -0.108582)
(0.986948 0.12213 -0.104963)
(0.212835 0.976924 0.0178983)
(0.173544 0.984688 0.0164816)
(0.174584 0.984413 0.0212669)
(0.196705 0.980052 0.0283847)
(0.266442 0.962736 0.0463524)
(0.182715 0.982973 0.0194766)
(0.212075 0.9771 0.0173264)
(0.173285 0.984487 0.0275115)
(0.174488 0.984394 0.0228732)
(0.164611 0.986301 0.0106268)
(0.18705 0.982124 0.0211143)
(0.178146 0.983857 0.0170066)
(-0.498802 0.866665 0.00936656)
(-0.498447 0.866874 0.00899184)
(0.932735 0.360545 -0.00347035)
(0.763422 0.639619 -0.0898616)
(0.951557 0.285326 -0.114577)
(0.907104 0.395332 -0.144481)
(0.228427 0.971434 -0.0643204)
(0.787736 0.602747 -0.127156)
(0.934298 0.356474 -0.00373537)
(0.982257 0.15175 -0.110193)
(0.96603 0.231678 -0.114505)
(0.465472 0.88257 -0.0663735)
(0.217315 0.97438 -0.0579552)
(0.716095 0.688578 -0.11432)
(0.980138 0.198172 -0.00754305)
(0.976112 0.21618 -0.0217297)
(0.983776 0.178966 0.0124904)
(0.920442 0.386177 0.0604562)
(0.989094 0.142387 0.037677)
(-0.0123564 0.999708 0.02078)
(0.885734 -0.464129 0.00776036)
(-0.681411 0.726113 0.0918644)
(-0.350993 0.932308 -0.0872081)
(-0.224131 0.971127 0.0817105)
(0.998875 0.00614705 -0.0470126)
(-0.471346 0.795873 -0.380025)
(-0.582939 0.741275 -0.332707)
(0.88581 -0.463531 -0.0219252)
(0.884079 -0.467053 -0.016305)
(0.981478 0.188 -0.0368248)
(0.996572 -0.0668414 0.0487498)
(0.745855 -0.653663 -0.128161)
(0.8309 -0.55641 0.00364277)
(0.807407 -0.530441 -0.258316)
(0.0114904 0.999634 0.0244767)
(0.98948 -0.144185 -0.011835)
(-0.0159212 0.997134 0.0739663)
(0.976602 0.21181 -0.0372171)
(0.97074 0.237216 -0.037314)
(0.855313 -0.517271 0.0295029)
(0.79675 -0.596553 0.09651)
(0.882718 -0.468624 0.0346649)
(0.990222 -0.13087 0.0483029)
(0.983328 -0.130507 0.126622)
(0.979189 -0.197305 0.0475449)
(0.774294 0.632213 -0.0278377)
(0.2462 0.969151 -0.0115051)
(0.739045 0.672895 -0.0320059)
(0.824947 -0.56473 0.0232995)
(-0.5651 0.818012 -0.107323)
(0.792187 -0.61009 0.0151672)
(0.499677 0.837838 0.219888)
(0.995743 -0.0571145 -0.0723488)
(0.967982 0.215218 0.1292)
(0.953763 -0.278177 -0.113818)
(0.910956 -0.282363 -0.300715)
(0.956674 0.0295672 0.289657)
(0.98073 -0.0340701 0.192372)
(0.959857 0.0128072 0.280198)
(0.536818 0.832599 -0.136403)
(-0.330663 0.932043 -0.14818)
(0.922017 0.363141 -0.134212)
(0.793724 0.594424 -0.129082)
(0.924543 0.325611 -0.197986)
(-0.491758 0.870695 -0.00800347)
(-0.132061 0.988107 -0.0787732)
(0.464256 0.885596 -0.0136495)
(0.93677 0.3494 -0.0195148)
(0.615625 0.78722 -0.0359189)
(0.968414 0.0235851 -0.248231)
(0.993549 0.113209 -0.00664894)
(0.981839 0.121228 -0.14593)
(0.867884 0.405473 -0.287001)
(0.64802 0.678379 -0.346225)
(0.888644 0.35245 -0.293412)
(0.680216 0.72501 -0.108011)
(0.878765 0.465468 -0.105411)
(0.819066 0.56628 -0.0919694)
(0.88324 -0.46891 -0.00325742)
(0.88333 -0.468612 -0.0114608)
(0.755229 0.654753 -0.0304407)
(0.217203 0.976126 0.00122154)
(0.78025 0.624798 -0.0289333)
(0.964014 0.028663 0.264302)
(0.491309 0.858022 0.149712)
(0.675484 0.700678 0.229721)
(0.952946 0.0528492 0.298499)
(0.976146 -0.035713 0.214156)
(0.947872 0.0829794 0.307657)
(0.209669 0.977721 0.0100701)
(0.741324 0.670433 -0.0309559)
(0.753136 0.656979 -0.0341223)
(-0.494425 0.86922 -0.000658023)
(-0.496565 0.867988 0.00452322)
(0.468823 0.883056 -0.0204161)
(0.943815 0.330268 -0.0116565)
(0.373675 0.92755 -0.00421022)
(0.304859 0.946033 -0.109918)
(0.46285 0.877162 -0.127891)
(0.514514 0.844696 -0.147525)
(0.839721 0.467666 -0.275966)
(0.465889 0.857953 -0.216481)
(0.801728 0.537987 -0.26039)
(0.943219 0.332097 -0.00702695)
(0.272224 0.962202 0.00786975)
(0.263311 0.964711 5.01428e-05)
(0.215894 0.976211 0.0200563)
(0.612017 0.790413 -0.0261193)
(0.638863 0.768674 -0.0315536)
(0.365625 0.925749 0.0964787)
(0.88265 0.389331 0.263343)
(0.289629 0.95491 0.0652874)
(0.210161 0.977553 0.0149317)
(0.734455 0.677778 -0.0345405)
(0.716007 0.697422 -0.0306037)
(0.135282 0.99076 0.00961723)
(0.124409 0.992225 0.0033637)
(0.148407 0.988835 0.0134479)
(-0.499647 0.866162 0.0108023)
(-0.498001 0.867144 0.00747279)
(0.925576 0.378554 -0.00246852)
(0.220029 0.97538 0.0148478)
(0.161784 0.986744 0.0127282)
(0.417751 0.901771 -0.110871)
(0.253977 0.963963 -0.0791884)
(0.378945 0.920393 -0.0963181)
(0.938797 0.344438 -0.00479834)
(0.230335 0.973104 0.00384644)
(0.256944 0.966374 0.0100331)
(0.233849 0.97133 -0.0428078)
(0.197648 0.979144 -0.0470341)
(0.250745 0.966818 -0.0488878)
(0.594319 0.803713 -0.0288108)
(0.146483 0.989098 0.0150867)
(0.970719 0.237657 -0.0349694)
(0.973079 0.228468 -0.0303204)
(0.9994 0.0345106 -0.0029827)
(0.99695 -0.078042 -0.000764606)
(0.9976 0.0676301 -0.0148583)
(0.993402 0.110648 -0.0301486)
(0.99895 -0.0456198 -0.00417559)
(0.995375 0.0929705 -0.024176)
(0.999966 -0.00249042 0.00788223)
(0.983858 -0.178952 0.000339315)
(0.998911 -0.0454886 0.0103753)
(0.902902 0.418174 0.0994931)
(0.997272 0.0148201 0.0723087)
(0.991533 0.111342 0.0668275)
(0.978553 -0.205772 -0.00962397)
(0.99167 -0.127168 -0.0204787)
(0.996091 -0.0882592 0.00354247)
(0.885856 -0.463847 0.0102628)
(-0.157507 0.973433 -0.166192)
(0.977384 -0.0956452 -0.188608)
(0.775016 0.353149 -0.524057)
(0.935947 -0.351393 -0.0229379)
(-0.367888 0.923457 -0.109023)
(0.936747 -0.348599 0.0313525)
(-0.647746 0.713084 -0.268209)
(0.885564 -0.464028 -0.0213104)
(0.884204 -0.466793 -0.016956)
(0.99758 0.0606357 -0.0340094)
(0.998388 -0.022181 0.0522407)
(0.863575 -0.50422 0.00118681)
(-0.227463 0.921055 0.316098)
(0.768353 -0.563702 -0.303107)
(0.998527 -0.0538853 -0.00640567)
(-0.135657 0.959334 0.247538)
(-0.00702024 0.995159 0.0980266)
(0.969065 0.244032 -0.0369029)
(0.969171 0.243545 -0.0373196)
(0.995967 0.0828104 -0.0345275)
(0.999586 0.0276379 -0.0080121)
(0.993879 0.104869 -0.0347377)
(0.992312 0.119206 -0.033256)
(0.999797 0.0184434 -0.0081373)
(0.992514 0.117159 -0.0344873)
(0.921193 -0.387885 0.0307926)
(0.976744 -0.213766 0.0165832)
(0.936458 -0.348807 0.0371421)
(0.847002 -0.520747 0.106816)
(0.927954 -0.370307 0.0421233)
(0.906761 -0.419875 0.0385901)
(0.984502 -0.174507 0.0174304)
(0.965282 -0.256978 0.0468345)
(0.951478 -0.304769 0.0424878)
(0.997254 -0.0526494 0.0520859)
(0.999355 -0.0305761 0.0188138)
(0.99399 -0.096341 0.051987)
(0.967114 -0.221105 0.125709)
(0.946951 -0.318252 0.0447088)
(0.96403 -0.261732 0.0462933)
(0.997895 -0.0621084 0.0186603)
(0.977594 -0.204595 0.0495086)
(0.987464 -0.149303 0.0512234)
(0.210332 0.977578 0.0101045)
(0.228159 0.973335 0.0237229)
(0.244602 0.969616 0.00392899)
(0.25642 0.966457 -0.0144723)
(0.751934 0.657466 -0.0483079)
(0.761269 0.647708 -0.0307315)
(0.268261 0.963266 0.0123911)
(0.396562 0.917727 -0.0226918)
(0.302781 0.953038 -0.00651164)
(0.905379 -0.423912 0.0242373)
(0.951717 -0.306921 0.0058679)
(0.894516 -0.446847 0.0129943)
(-0.45026 0.887858 -0.0947253)
(0.740178 -0.667565 -0.0805751)
(0.773919 -0.632752 -0.025969)
(0.945567 -0.325265 -0.0102934)
(0.908034 -0.410837 -0.0817754)
(0.887037 -0.461603 -0.00938783)
(0.997644 0.0224613 -0.0648224)
(0.991888 -0.0733312 0.103828)
(0.973344 -0.224994 0.0444801)
(-0.213012 0.94057 -0.264488)
(0.971268 -0.0224362 0.23693)
(0.917678 -0.242135 0.31502)
(0.968206 0.146396 -0.202844)
(0.583256 0.737762 -0.339881)
(0.914248 -0.366226 -0.173288)
(0.885946 -0.434445 -0.162352)
(0.976499 -0.191101 -0.099653)
(0.887864 -0.0481001 0.457585)
(0.710891 0.702929 0.0229005)
(0.904994 0.322702 0.277218)
(0.989641 -0.143232 -0.00980244)
(0.994153 -0.0665233 -0.0850537)
(0.996744 -0.0715005 -0.0372656)
(0.812024 0.386723 0.437107)
(0.291179 0.953019 0.0834883)
(0.851825 0.240256 0.46548)
(0.982458 -0.0294121 0.184148)
(0.96763 -0.00445907 0.252335)
(0.962865 -0.00442564 0.269949)
(0.317722 0.944345 0.0852346)
(0.884963 0.061233 0.461618)
(0.870545 0.122372 0.47663)
(0.570341 0.816948 -0.0854847)
(0.772399 0.632721 -0.0553517)
(0.778226 0.615952 -0.122341)
(0.970091 -0.213842 0.114869)
(0.761983 -0.61881 -0.190934)
(-0.207651 0.337906 0.917987)
(0.890883 0.443075 -0.10006)
(0.688679 0.709025 -0.151673)
(0.428895 0.878774 0.2093)
(0.751029 0.651775 -0.105573)
(0.706719 0.697364 -0.119295)
(0.529102 0.846762 -0.0551911)
(0.687763 0.723759 -0.0561575)
(0.70216 0.705298 -0.0976004)
(0.921833 -0.339135 -0.187646)
(0.986923 -0.0730944 -0.143667)
(0.974442 -0.110431 -0.195621)
(-0.490137 0.871591 -0.00978988)
(0.0381527 0.99605 -0.0801845)
(0.956777 0.282845 -0.0676459)
(0.975367 0.191815 -0.108934)
(0.950694 0.301864 -0.0711264)
(0.934101 0.35636 -0.0215403)
(0.764885 0.641122 -0.0625536)
(0.625047 0.779935 -0.0318998)
(0.96829 0.223508 -0.111618)
(0.930303 0.357267 -0.0830473)
(0.941735 0.327631 -0.0761194)
(0.903489 0.242761 -0.353236)
(0.918943 0.305607 -0.249295)
(0.944185 0.258585 -0.204079)
(0.992341 0.123081 -0.0104794)
(0.979477 0.181866 -0.0868925)
(0.984826 0.144933 -0.0954584)
(0.947155 0.267413 -0.177167)
(0.959827 0.25521 -0.116618)
(0.961396 0.23595 -0.141583)
(0.942651 0.263093 -0.205405)
(0.962709 0.22664 -0.147736)
(0.94645 0.248899 -0.205626)
(0.710578 0.589789 -0.383703)
(0.915916 0.28629 -0.281312)
(0.90301 0.314553 -0.292624)
(0.959801 0.238414 -0.148127)
(0.949753 0.244473 -0.195455)
(0.948217 0.243916 -0.203447)
(0.742996 0.662734 -0.0934892)
(0.777339 0.625734 -0.0648094)
(0.817211 0.567118 -0.102683)
(0.95028 0.302904 -0.0722245)
(0.970525 0.224494 -0.0876539)
(0.928484 0.362163 -0.0821894)
(0.916668 0.389011 -0.0916003)
(0.951171 0.29033 -0.104798)
(0.914931 0.391586 -0.097786)
(0.883154 -0.469062 -0.00437863)
(0.883237 -0.468806 -0.0106903)
(0.189778 0.981724 0.0142607)
(0.17989 0.983125 0.0332409)
(0.177783 0.983922 0.0170603)
(0.215388 0.976525 0.00245856)
(0.775145 0.631065 -0.0301193)
(0.76515 0.643069 -0.0317302)
(0.175439 0.98392 0.0335067)
(0.167081 0.98573 0.0204878)
(0.170782 0.985124 0.0190618)
(0.967353 0.00513099 0.253379)
(0.900006 0.295077 0.32081)
(0.830762 0.471008 0.296624)
(0.241498 0.969266 0.0469296)
(0.206795 0.977727 0.0358503)
(0.264546 0.962542 0.0594005)
(0.334965 0.93685 0.10055)
(0.212271 0.976384 0.0401767)
(0.294416 0.95262 0.0763843)
(0.726453 0.579078 0.370048)
(0.24154 0.96836 0.0627491)
(0.597722 0.752914 0.275407)
(0.974382 -0.0302689 0.222854)
(0.927279 0.190174 0.322472)
(0.940285 0.125825 0.316279)
(0.232468 0.970976 0.0562496)
(0.392787 0.909416 0.136679)
(0.478018 0.856987 0.192542)
(0.209857 0.977688 0.00927394)
(0.763786 0.644619 -0.0331282)
(0.761571 0.647348 -0.0308117)
(0.167584 0.985594 0.0227961)
(0.172275 0.984584 0.0302713)
(0.166129 0.985845 0.0225962)
(0.165461 0.985982 0.0214989)
(0.172012 0.984592 0.0314584)
(0.165311 0.985992 0.0221801)
(-0.494719 0.869053 6.47017e-05)
(-0.49634 0.868119 0.00404399)
(0.960646 0.270016 -0.0651981)
(0.985217 0.135781 -0.104452)
(0.962938 0.262145 -0.0634908)
(0.944222 0.329126 -0.0109698)
(0.323089 0.946367 0.00137784)
(0.371473 0.928378 -0.0110236)
(0.986355 0.127485 -0.104167)
(0.964019 0.258614 -0.0615344)
(0.964013 0.25845 -0.0623171)
(0.326993 0.936889 -0.123752)
(0.634287 0.748434 -0.193718)
(0.572349 0.802258 -0.169702)
(0.757481 0.631731 -0.164739)
(0.938289 0.313499 -0.146056)
(0.810129 0.558764 -0.177409)
(0.880647 0.432651 -0.193061)
(0.947394 0.284906 -0.145856)
(0.850712 0.491366 -0.186676)
(0.937085 0.283136 -0.204218)
(0.963447 0.225169 -0.14515)
(0.929075 0.309532 -0.202507)
(0.42097 0.887896 -0.185538)
(0.696314 0.683809 -0.218064)
(0.75347 0.611778 -0.240855)
(0.961538 0.233305 -0.144964)
(0.902347 0.38316 -0.197377)
(0.917929 0.342441 -0.20035)
(0.943613 0.330969 -0.00740958)
(0.307355 0.951584 -0.0046611)
(0.293356 0.95599 0.00508375)
(0.95467 0.291385 -0.0608331)
(0.98574 0.129758 -0.107138)
(0.958613 0.27815 -0.0607769)
(0.963167 0.261876 -0.0610674)
(0.986583 0.124244 -0.105911)
(0.961409 0.268312 -0.0608341)
(0.214945 0.976431 0.0195348)
(0.677194 0.735048 -0.033363)
(0.651273 0.758318 -0.0282265)
(0.184456 0.982643 0.0197183)
(0.174111 0.98456 0.0180711)
(0.182551 0.982984 0.02041)
(0.178292 0.983741 0.0215875)
(0.174441 0.984471 0.0196753)
(0.180487 0.983352 0.0210399)
(0.223027 0.974092 0.0374567)
(0.191941 0.981084 0.025145)
(0.207705 0.977731 0.0300189)
(0.498991 0.857535 0.125068)
(0.207761 0.977604 0.0335471)
(0.241187 0.96938 0.0461558)
(0.187282 0.982055 0.0221995)
(0.183288 0.982871 0.0192388)
(0.194675 0.980572 0.0240863)
(0.210607 0.977447 0.0155536)
(0.685748 0.727233 -0.0296854)
(0.709276 0.704093 -0.0343505)
(0.169407 0.985282 0.0228177)
(0.173806 0.984437 0.0260046)
(0.171526 0.984918 0.0226816)
(0.175998 0.984143 0.0220591)
(0.174201 0.984406 0.0244576)
(0.173728 0.984538 0.0224251)
(0.147614 0.989024 0.00652811)
(0.169084 0.985521 0.0126285)
(0.155504 0.987794 0.00902563)
(0.148277 0.988898 0.00972479)
(0.183151 0.982773 0.0247678)
(0.163967 0.986296 0.018326)
(0.173595 0.984707 0.0147373)
(0.173145 0.984778 0.0152404)
(0.163944 0.986398 0.01188)
(-0.49924 0.866401 0.0104428)
(-0.4982 0.867027 0.00786686)
(0.927895 0.372832 -0.00272447)
(0.180949 0.983441 0.0100606)
(0.232594 0.972482 0.0133998)
(0.7817 0.621461 -0.0522584)
(0.869502 0.48254 -0.105455)
(0.836223 0.545483 -0.0563865)
(0.900721 0.430202 -0.0602327)
(0.924799 0.363439 -0.112513)
(0.874589 0.481275 -0.0588979)
(0.693843 0.704571 -0.148868)
(0.880588 0.452241 -0.141573)
(0.623476 0.770804 -0.130913)
(0.240564 0.96801 -0.0713197)
(0.316783 0.945671 -0.0731792)
(0.345504 0.934666 -0.0838282)
(0.842204 0.521688 -0.136136)
(0.486465 0.868485 -0.0953245)
(0.552548 0.825845 -0.112562)
(0.937922 0.346817 -0.00453063)
(0.244128 0.969671 0.0118398)
(0.204 0.978945 0.00709281)
(0.949451 0.307938 -0.0609741)
(0.97907 0.170038 -0.111841)
(0.942388 0.328896 -0.061098)
(0.919557 0.388206 -0.0609088)
(0.974162 0.195323 -0.11339)
(0.932871 0.354985 -0.0611371)
(0.301604 0.952286 -0.0467619)
(0.54471 0.834629 -0.0817679)
(0.33648 0.940029 -0.0559108)
(0.207087 0.976929 -0.0521921)
(0.291707 0.954371 -0.0638935)
(0.269857 0.961279 -0.05585)
(0.631702 0.76893 -0.0984854)
(0.428067 0.900198 -0.0800094)
(0.378279 0.92327 -0.0669133)
(-0.0845596 0.99638 0.00869966)
(0.985604 -0.107953 0.130122)
(0.99821 0.0583084 -0.0132889)
(-0.040168 0.999133 0.0109893)
(0.990904 -0.0237184 0.132467)
(-0.13362 0.990966 0.0114737)
(-0.0298548 0.999518 0.00845725)
(0.884548 -0.466434 0.00380228)
(-0.546641 0.834846 0.0649291)
(-0.635878 0.77038 0.046633)
(-0.648797 0.758266 -0.063994)
(-0.593887 0.804447 -0.0127767)
(-0.61071 0.790804 0.0407744)
(-0.56152 0.823532 -0.08056)
(-0.5543 0.831545 0.0358485)
(-0.429842 0.902784 -0.0147119)
(0.661733 0.557651 -0.501133)
(0.482891 0.676676 -0.555811)
(0.600132 0.599829 -0.529194)
(0.837296 -0.0630575 -0.543101)
(-0.537418 -0.563667 0.627265)
(0.34033 0.736553 -0.584521)
(0.886324 -0.462487 -0.0231523)
(0.883864 -0.467505 -0.0149718)
(-0.693796 0.718644 0.046882)
(-0.689565 0.721985 0.056903)
(-0.672362 0.736218 -0.0768888)
(0.755937 -0.654644 0.000717547)
(-0.658762 0.750542 0.0521467)
(0.720494 -0.688471 0.0830465)
(0.732593 -0.677345 -0.0671686)
(-0.211759 0.977196 0.0156698)
(0.988404 -0.074589 0.132262)
(-0.0214216 0.999715 0.0105753)
(0.994464 -0.104277 -0.0129539)
(-0.163394 0.986492 0.0116216)
(0.977828 -0.163819 0.130447)
(-0.0360673 0.999231 0.0154104)
(0.439293 0.89834 -0.00244765)
(0.898752 0.438446 -0.00305254)
(0.298751 0.954324 -0.00375751)
(0.233149 0.972417 -0.00681275)
(0.896212 0.443623 -0.00151791)
(0.313701 0.949505 -0.00568997)
(0.429705 0.902968 -0.00166125)
(-0.492532 0.870278 -0.00528475)
(0.739067 0.627367 -0.245339)
(-0.109131 0.994006 -0.00654574)
(0.889147 0.456995 -0.0239494)
(-0.238863 0.971041 -0.00496384)
(0.940028 0.340701 -0.0164644)
(0.887316 0.460465 -0.0253389)
(-0.217314 0.976082 -0.00618945)
(-0.118087 0.992989 -0.00537273)
(0.885 0.452624 -0.109116)
(0.712266 0.697582 -0.0778215)
(0.857569 0.491117 -0.152906)
(0.811565 0.570854 -0.124451)
(0.890708 0.440308 -0.112996)
(0.821882 0.562664 -0.088995)
(0.876364 0.462307 -0.135122)
(0.883587 -0.468267 -0.000767312)
(0.883555 -0.468148 -0.0129369)
(0.414811 0.909907 -0.00038843)
(0.9004 0.435038 -0.00455902)
(0.284935 0.958545 -0.00198562)
(0.221882 0.975072 -0.00154724)
(0.424016 0.905654 -0.0011409)
(0.901616 0.432497 -0.00589724)
(0.274927 0.961465 -0.000449433)
(0.350714 0.936459 0.00664968)
(0.209442 0.977753 0.0115674)
(0.894152 0.447386 -0.0183963)
(0.22355 0.974612 0.01251)
(0.895466 0.444773 -0.0178047)
(0.224565 0.974387 0.0118806)
(0.34754 0.937637 0.00722364)
(-0.493762 0.869594 -0.00226681)
(-0.497106 0.867673 0.00542615)
(-0.131901 0.991257 -0.00339064)
(0.891733 0.451986 -0.022825)
(-0.258917 0.965892 -0.0038288)
(0.942709 0.333353 -0.0132488)
(-0.12553 0.992081 -0.00424006)
(0.892827 0.449872 -0.0217872)
(-0.274818 0.961492 -0.00297234)
(-0.162091 0.98677 0.00331675)
(0.942209 0.334965 -0.00632019)
(0.878842 0.476896 -0.0144104)
(-0.415627 0.90953 0.00312177)
(0.882156 0.470725 -0.0147959)
(-0.408192 0.912891 0.0029181)
(-0.161474 0.986871 0.00356379)
(0.329468 0.944093 0.0118061)
(0.217704 0.975787 0.0210732)
(0.853469 0.520563 -0.0246014)
(0.234795 0.971852 0.0193485)
(0.856752 0.515149 -0.0244237)
(0.234814 0.971855 0.0189697)
(0.328949 0.94427 0.0121348)
(0.343944 0.938956 0.00800137)
(0.209625 0.977686 0.0136518)
(0.892534 0.45058 -0.0189915)
(0.22334 0.974653 0.0130965)
(0.890687 0.4542 -0.0194924)
(0.345446 0.938408 0.00754044)
(0.223568 0.974593 0.013639)
(-0.500102 0.86589 0.0115108)
(-0.497744 0.867299 0.00667013)
(-0.172036 0.985058 0.00799454)
(0.920137 0.391592 -0.00192867)
(0.747465 0.664264 -0.00700625)
(-0.518375 0.855134 0.00581754)
(0.763784 0.645425 -0.00778392)
(-0.513018 0.858359 0.00572335)
(-0.169491 0.985498 0.00815425)
(-0.16382 0.986481 0.00422037)
(0.940329 0.340224 -0.00536224)
(0.875611 0.482812 -0.0140938)
(-0.425096 0.905142 0.00340137)
(-0.163191 0.986586 0.00397351)
(0.871882 0.489523 -0.0137278)
(-0.429759 0.902937 0.00356348)
(0.849423 0.527132 -0.0247637)
(0.237088 0.97129 0.0196018)
(0.327656 0.944716 0.0123543)
(0.730106 0.683306 -0.00617427)
(-0.523343 0.852101 0.00597653)
(-0.170865 0.985258 0.00849187)
(0.887761 -0.460014 0.0163614)
(-0.454986 -0.202744 0.867112)
(0.527362 0.667815 -0.525274)
(-0.14244 -0.321089 0.936276)
(0.905928 0.248697 -0.3427)
(-0.318088 -0.2533 0.913597)
(-0.433242 0.236918 0.869581)
(0.691285 0.46716 -0.551259)
(0.918647 -0.39439 0.023325)
(0.386815 -0.454763 0.802225)
(0.791038 -0.610172 0.0441529)
(0.180496 0.0584584 0.981837)
(0.966378 -0.2407 0.0904328)
(-0.262622 -0.286118 0.921502)
(0.209901 -0.51856 0.828877)
(0.823813 -0.542249 0.165223)
(0.885223 -0.464735 -0.0200674)
(0.884648 -0.465902 -0.0182376)
(0.742993 -0.66735 -0.0510428)
(0.917491 -0.397756 0.000380257)
(0.864889 -0.488373 0.11601)
(0.721041 -0.685452 -0.101267)
(0.736333 -0.674809 -0.0494549)
(0.841369 -0.529771 0.106962)
(0.76122 -0.640492 -0.101558)
(-0.67533 0.736043 0.0465826)
(0.987797 -0.155744 -9.92083e-05)
(0.885665 -0.450149 0.113854)
(-0.652281 0.751657 0.0976747)
(0.722309 -0.689833 -0.0489872)
(0.91131 -0.392807 0.123351)
(-0.513537 0.853674 0.0867148)
(0.514719 0.857329 -0.00717825)
(0.290827 0.956518 -0.0221987)
(0.853205 0.52154 0.00616381)
(0.532558 0.845932 -0.0279603)
(0.872432 0.488684 0.00709873)
(0.53342 0.845801 -0.00917815)
(0.473772 0.880365 -0.0222963)
(0.618735 0.785398 -0.0177947)
(0.450209 0.891996 -0.0406768)
(0.867863 0.4967 0.0101287)
(0.595221 0.802677 -0.0377045)
(0.836597 0.547819 7.31593e-05)
(0.606158 0.795257 -0.0117662)
(0.665365 0.74493 -0.0486622)
(-0.485919 0.873884 -0.0144813)
(-0.481311 0.876148 -0.026544)
(0.0760386 0.996835 -0.0231907)
(0.925382 0.378049 -0.0273285)
(0.855918 0.515185 -0.0446034)
(0.31656 0.947963 -0.0339942)
(0.86377 0.502392 -0.0387825)
(0.135598 0.990463 -0.0244297)
(0.232818 0.971911 -0.0344334)
(0.682011 0.728107 -0.0687151)
(0.890623 0.452146 -0.0485202)
(0.846395 0.529912 -0.052988)
(0.632838 0.77277 -0.0484126)
(0.831777 0.551293 -0.0649942)
(0.737306 0.672834 -0.0606113)
(0.493488 0.868189 -0.052135)
(0.883106 -0.46913 -0.0064211)
(0.883159 -0.468987 -0.00907106)
(0.382253 0.924054 0.00252994)
(0.212751 0.977095 0.00468393)
(0.902813 0.42985 -0.0125358)
(0.236576 0.971591 0.00659133)
(0.903076 0.429324 -0.0116236)
(0.375246 0.926919 0.00328933)
(0.24016 0.970717 0.00563516)
(0.366822 0.930281 0.00437646)
(0.210569 0.97755 0.00758106)
(0.902151 0.431211 -0.0134235)
(0.233104 0.972423 0.00751042)
(0.901307 0.432948 -0.0142138)
(0.371834 0.928292 0.00370568)
(0.231308 0.972845 0.00832876)
(-0.495366 0.868683 0.00136364)
(-0.49609 0.868266 0.00303531)
(-0.150254 0.988647 -1.19537e-05)
(0.944429 0.32857 -0.00976185)
(0.894541 0.446635 -0.0176742)
(-0.347136 0.937815 0.000591054)
(0.895625 0.444434 -0.0182545)
(-0.337626 0.94128 0.000194768)
(-0.151513 0.988455 0.000403489)
(-0.155526 0.987831 0.00132099)
(0.944078 0.32962 -0.00824631)
(0.893965 0.447805 -0.0172122)
(-0.357746 0.933818 0.00104647)
(0.892453 0.450831 -0.0167107)
(-0.36495 0.931026 0.00135874)
(-0.153795 0.988102 0.000949699)
(0.334266 0.94242 0.0105536)
(0.213422 0.976786 0.0184617)
(0.875575 0.48255 -0.022686)
(0.227562 0.973617 0.016892)
(0.872729 0.487663 -0.0229979)
(0.334278 0.942419 0.0102401)
(0.22856 0.973376 0.0172892)
(0.336478 0.941642 0.00960758)
(0.211579 0.977218 0.0167383)
(0.878134 0.477895 -0.022309)
(0.225955 0.973998 0.0165052)
(0.880307 0.473897 -0.0219155)
(0.335499 0.941987 0.0100037)
(0.226254 0.973936 0.0160236)
(-0.499146 0.866463 0.0097174)
(-0.498788 0.866681 0.00862575)
(-0.168328 0.985709 0.00656659)
(0.931254 0.364355 -0.00321695)
(0.831743 0.555049 -0.0111557)
(-0.481703 0.876321 0.00488149)
(0.823651 0.566996 -0.0106974)
(-0.483304 0.875438 0.00498707)
(-0.1683 0.985715 0.00636116)
(-0.168149 0.985745 0.00581112)
(0.935501 0.353302 -0.00400064)
(0.839409 0.543377 -0.0115635)
(-0.472673 0.881226 0.00468229)
(0.8463 0.532572 -0.0119901)
(-0.466876 0.884311 0.00456006)
(-0.166464 0.986029 0.00599585)
(0.93161 0.327416 -0.1578)
(0.988777 0.143101 -0.042926)
(0.989992 0.141083 -0.00326681)
(0.978371 0.193881 -0.0721102)
(0.975488 0.130569 0.177132)
(0.856944 0.440582 -0.267458)
(0.890328 0.417306 -0.18213)
(0.979113 0.19988 0.0372336)
(0.991975 0.0776127 0.0998048)
(0.980845 0.181434 -0.0708825)
(0.918234 0.332676 -0.214878)
(0.992296 0.122635 -0.0175872)
(0.649032 -0.315678 0.692174)
(0.993179 0.113402 -0.0271132)
(0.858969 -0.126002 0.496283)
(0.905923 0.311926 -0.286368)
(0.819012 0.459072 -0.344197)
(0.884923 -0.0441528 0.463639)
(0.715431 -0.232142 0.65899)
(0.786416 0.474033 -0.396034)
(0.906875 0.328218 -0.264294)
(0.995451 0.0836445 0.0456103)
(0.920615 -0.085638 0.380964)
(0.98547 0.159056 -0.0595909)
(-0.0455073 0.998958 0.00355961)
(0.996817 -0.0785031 -0.0138883)
(0.988828 -0.0701852 0.131502)
(-0.00622211 0.999973 0.00379182)
(0.985048 -0.116549 -0.12687)
(0.997152 -0.0455342 -0.0601219)
(-0.0141902 0.999772 0.0159525)
(0.987814 -0.10272 -0.116925)
(0.99654 -0.0512834 -0.0654011)
(0.00866172 0.999936 0.00726757)
(0.997729 0.0068007 -0.0670153)
(0.884802 -0.465933 0.00572832)
(-0.611227 0.733366 0.297618)
(-0.599031 0.800405 -0.0226526)
(-0.600582 0.79386 0.0953338)
(-0.619591 0.781062 0.0777761)
(-0.505297 0.862841 -0.0134299)
(-0.463495 0.885083 0.0424397)
(-0.508533 0.860681 -0.0249595)
(-0.239629 0.851269 -0.466817)
(-0.258952 0.963419 -0.069054)
(-0.55629 0.830712 -0.0214342)
(-0.380361 0.914775 0.136058)
(-0.455063 0.890313 0.0161174)
(-0.557832 0.745259 0.365256)
(-0.46687 0.880236 0.0849488)
(-0.110007 0.990092 -0.0872693)
(-0.529247 0.0536069 0.846773)
(-0.377482 0.925945 -0.0115867)
(0.898745 0.315503 -0.304492)
(0.279436 -0.61587 0.736628)
(-0.175548 0.831592 -0.526913)
(0.747835 -0.659822 -0.0733339)
(-0.563894 0.7205 -0.403613)
(-0.363978 0.928183 0.077442)
(0.777029 -0.45739 0.432458)
(-0.215118 0.793675 -0.569038)
(0.705209 -0.293756 -0.64528)
(-0.438925 0.845841 -0.303146)
(-0.643419 0.14229 0.752174)
(-0.675999 0.685991 -0.269149)
(-0.496901 0.779167 -0.382084)
(0.17225 -0.371498 0.912315)
(-0.500194 0.772158 -0.39189)
(0.886077 -0.462991 -0.0225109)
(0.884021 -0.467184 -0.0156615)
(0.993942 0.0867591 -0.0674712)
(0.995952 0.0630929 -0.0640179)
(0.999345 -0.00399608 -0.0359716)
(0.994841 0.094321 -0.0373394)
(0.996954 0.0694911 -0.0354042)
(0.99612 0.0567035 -0.0673082)
(0.994085 0.087128 -0.0648405)
(0.98928 0.129008 -0.068422)
(0.997646 0.02378 -0.0643202)
(0.998297 -0.0159411 0.0561112)
(0.996178 -0.0173201 0.0856157)
(0.99943 0.0169897 0.0291733)
(0.972516 -0.059707 0.225049)
(0.973795 -0.0241448 0.226142)
(0.996951 -0.0727864 0.0281088)
(0.998009 -0.0560257 0.028977)
(0.99835 -0.0097568 0.0565953)
(0.995913 -0.0276466 0.0859808)
(0.997989 -0.0296171 0.0560398)
(0.996329 -0.00498713 0.0854633)
(0.713451 -0.695382 -0.0862096)
(-0.665919 0.745736 -0.0207251)
(0.792217 -0.584327 -0.175939)
(-0.680803 0.722839 0.118367)
(0.724241 -0.689368 0.0156966)
(0.716167 -0.695989 -0.0520011)
(0.798845 -0.601534 0.00219781)
(0.773153 -0.626715 0.0972766)
(0.777492 -0.622958 -0.0861933)
(0.743794 -0.662699 0.0871852)
(0.73303 -0.678307 -0.0506521)
(0.759017 -0.64646 -0.0773513)
(0.744006 -0.657703 -0.117819)
(0.811581 -0.539116 -0.225147)
(0.810588 -0.58561 -0.00282833)
(0.769454 -0.629522 -0.107899)
(0.769566 -0.638555 0.00390671)
(0.985182 -0.120665 -0.121885)