/*--------------------------------*- C++ -*----------------------------------*\
| =========                 |                                                 |
| \\      /  F ield         | OpenFOAM: The Open Source CFD Toolbox           |
|  \\    /   O peration     | Version:  2012                                  |
|   \\  /    A nd           | Website:  www.openfoam.com                      |
|    \\/     M anipulation  |                                                 |
\*---------------------------------------------------------------------------*/
FoamFile
{
    version     2.0;
    format      ascii;
    class       volVectorField;
    location    "0.104/solid";
    object      sigmaMaxDir;
}
// * * * * * * * * * * * * * * * * * * * * * * * * * * * * * * * * * * * * * //

dimensions      [1 -1 -2 0 0 0 0];


internalField   nonuniform List<vector> 
3125
(
(0.0905716 0.995871 0.00615955)
(0.467385 0.884046 -0.00376111)
(0.681615 0.595944 0.42456)
(-0.550175 0.83413 0.0391708)
(0.462714 0.886381 0.0150072)
(0.468035 0.883671 0.00835266)
(0.0328816 0.99943 0.0076317)
(0.643141 0.660978 0.386624)
(-0.0441852 0.999002 0.00649256)
(0.623993 0.729357 0.280482)
(0.0695631 0.997474 0.0143898)
(0.973464 -0.22877 -0.00562707)
(0.680278 0.654977 0.328978)
(7.9093e-05 -0.307023 0.951702)
(-0.197017 0.0559491 0.978802)
(-0.610264 0.792195 0.0021309)
(0.870151 0.492689 -0.00972628)
(0.820468 -0.558413 -0.1225)
(-0.33797 0.941155 -0.00193423)
(-0.0926814 0.992565 -0.0789015)
(-0.595176 0.646182 0.477717)
(0.738158 -0.665008 -0.113523)
(0.467833 0.883813 -0.00262229)
(0.468253 0.883559 0.00787447)
(0.974346 -0.224949 -0.00697142)
(-0.278168 0.0491604 0.959274)
(-0.204158 0.0541061 0.977442)
(0.977672 -0.209151 -0.0203485)
(0.869894 0.493165 -0.00851903)
(0.867725 0.49704 0.00209405)
(-0.335164 0.94216 -0.0008045)
(0.752135 -0.286541 -0.593454)
(0.64805 -0.570329 -0.504735)
(-0.336584 0.941599 0.010086)
(0.975457 -0.217886 -0.0317807)
(-0.29138 0.0487063 0.955367)
(0.977634 -0.209258 -0.0210467)
(-0.393663 0.0431697 0.918241)
(0.866285 0.499478 0.00842591)
(0.867596 0.497263 0.00255556)
(-0.398831 0.916843 0.0182327)
(0.752076 -0.266191 -0.602929)
(-0.338126 0.941041 0.0106331)
(0.729103 -0.168895 -0.663237)
(0.462365 0.886555 0.0154251)
(0.975156 -0.21912 -0.0325192)
(0.86635 0.49936 0.00877888)
(-0.405971 0.913694 0.0187245)
(0.105663 0.937805 0.330691)
(0.0184292 0.993623 0.111236)
(0.136401 0.915043 0.379593)
(-0.382319 0.857733 0.343695)
(0.182496 0.873811 0.450721)
(0.443223 0.896203 -0.019335)
(0.655474 -0.424988 0.624291)
(0.458051 0.888655 -0.0219509)
(0.670344 -0.529895 0.519471)
(0.465585 0.884921 0.0120209)
(0.466054 0.884681 0.0115869)
(-0.0223906 0.999742 0.00378859)
(0.000373325 0.999993 0.00360997)
(0.289216 0.953245 0.0876228)
(0.292209 0.953923 0.0681526)
(-0.0284962 0.99956 0.00824082)
(-0.003048 0.997982 0.0634255)
(0.232524 0.918896 0.31869)
(0.418567 0.900586 0.117241)
(0.13284 0.985387 0.106616)
(0.00899781 0.999925 0.00833655)
(0.318319 0.944751 0.0782187)
(0.0965001 0.993453 0.0611395)
(0.961688 -0.193284 -0.194414)
(0.947717 -0.318957 0.00997624)
(0.923396 -0.332977 -0.190964)
(0.260608 0.89187 0.369664)
(0.899554 0.297188 0.320127)
(0.274109 0.850942 0.448065)
(-0.5508 0.796297 0.250062)
(-0.147859 0.0459041 0.987943)
(-0.410875 0.908395 -0.0774583)
(0.812049 -0.320725 -0.487557)
(0.180737 0.856945 0.482679)
(0.86755 -0.206339 -0.452527)
(-0.170694 0.0665532 0.983074)
(0.834613 -0.292069 -0.46703)
(0.928963 -0.369935 0.0132382)
(0.996316 -0.0854244 0.00752928)
(-0.428138 0.903694 0.00593966)
(0.887547 -0.413366 -0.203443)
(0.261712 0.833995 0.485757)
(0.87078 0.490982 -0.0260601)
(0.88078 0.472542 -0.0305127)
(-0.16413 0.985851 0.0340583)
(-0.394638 0.918701 -0.0157677)
(-0.255645 0.965715 0.0451671)
(-0.286186 0.879339 0.380605)
(-0.159919 0.984014 0.0783737)
(-0.267616 0.960171 0.0803339)
(-0.214462 0.974782 0.0617003)
(-0.352142 0.860347 0.368508)
(-0.245521 0.96663 0.0731209)
(-0.417207 0.908599 -0.0196369)
(-0.216222 0.971888 0.0931748)
(-0.289749 0.955849 0.0489714)
(0.469288 0.883039 0.00331663)
(0.469211 0.883077 0.00395949)
(0.963096 -0.177997 -0.201901)
(0.97721 -0.211797 -0.014207)
(0.960948 -0.161508 -0.224709)
(-0.241813 0.0504727 0.969009)
(0.870183 -0.164088 -0.464604)
(0.869233 -0.173243 -0.463056)
(0.868589 -0.195024 -0.455542)
(-0.231048 0.0510201 0.971604)
(0.869046 -0.176921 -0.462014)
(0.977363 -0.211033 -0.0150319)
(0.954651 -0.160142 -0.250988)
(0.959505 -0.160203 -0.231701)
(0.868632 0.495451 -0.00238869)
(0.868513 0.495663 -0.00173715)
(-0.145887 0.988764 0.0326106)
(-0.328756 0.944401 0.00518263)
(-0.120539 0.992191 0.0320632)
(0.739653 -0.367743 -0.563629)
(-0.34014 0.936269 0.087777)
(-0.255113 0.96437 0.0700574)
(-0.214178 0.974862 0.0614141)
(0.72844 -0.405056 -0.552544)
(-0.238373 0.968894 0.0665048)
(-0.328841 0.944367 0.00586958)
(-0.135553 0.990066 0.0373536)
(-0.119309 0.992316 0.0327724)
(0.976835 -0.212327 -0.0266642)
(0.941269 -0.160923 -0.296846)
(0.946272 -0.161771 -0.28)
(0.870525 -0.161255 -0.464955)
(-0.333494 0.0469623 0.941582)
(0.871314 -0.15272 -0.466357)
(0.977012 -0.211596 -0.0259714)
(0.95298 -0.160557 -0.257003)
(0.947945 -0.161653 -0.27435)
(0.871397 -0.140369 -0.470067)
(-0.348212 0.0461898 0.936277)
(0.87146 -0.149721 -0.467055)
(0.866716 0.498767 0.00589981)
(0.86692 0.498416 0.00551555)
(-0.36046 0.932658 0.0147677)
(-0.630655 0.768202 0.110176)
(-0.279995 0.95809 0.0605504)
(-0.384631 0.917969 0.0969143)
(0.745382 -0.217007 -0.630328)
(-0.587625 0.797191 0.138505)
(-0.356391 0.934228 0.0142608)
(-0.148195 0.988157 0.0398088)
(-0.226983 0.972475 0.0526466)
(0.859953 -0.468729 -0.201927)
(0.741794 -0.20345 -0.639023)
(-0.671553 0.724315 0.156157)
(-0.184087 0.923305 0.337076)
(-0.202935 0.942867 0.264234)
(-0.169873 0.906878 0.385637)
(-0.383937 0.864191 0.325217)
(-0.145026 0.896844 0.417898)
(0.988903 0.0152945 -0.147775)
(0.464184 0.885701 -0.00823799)
(0.552372 0.427855 0.71542)
(0.79444 0.345792 0.499293)
(0.615015 0.0759049 0.784853)
(-0.0125517 0.990467 -0.13718)
(0.74815 0.132646 -0.650136)
(0.729857 0.297779 -0.615334)
(0.463865 0.885799 0.0137368)
(0.467234 0.88408 0.00978885)
(-0.187773 0.982166 0.00956059)
(0.066595 0.997758 0.00666267)
(0.544104 0.486871 0.683306)
(0.539156 0.806717 0.241907)
(0.577374 0.620302 0.53091)
(0.98878 -0.00771297 -0.149177)
(0.144404 0.989311 0.0203026)
(0.987741 0.0271739 -0.153719)
(-0.211386 0.977287 0.0150419)
(-0.236437 0.971347 0.0241335)
(0.486639 0.821598 0.296917)
(0.566728 0.79305 0.223363)
(0.449853 0.864068 0.225874)
(0.130357 0.991373 0.0136352)
(0.128012 0.991386 0.0276796)
(0.196382 0.980248 0.0234084)
(-0.630698 0.774548 0.047916)
(0.969213 -0.246223 -0.000624812)
(-0.672265 0.739738 0.0291147)
(0.521163 0.775965 0.355341)
(0.745383 0.561974 0.358594)
(0.556403 0.73224 0.392734)
(0.86471 -0.467528 -0.183562)
(0.0276756 -0.563436 0.825696)
(-0.0230686 -0.436249 0.89953)
(-0.0453257 -0.507472 0.860475)
(0.405608 0.480405 0.77762)
(-0.291131 0.0825439 0.953116)
(-0.190171 0.0590625 0.979973)
(-0.280222 0.0875096 0.955938)
(0.841161 -0.54069 0.0100629)
(-0.229624 0.0728376 0.97055)
(-0.364126 0.931176 0.018013)
(-0.595354 0.802678 0.0355164)
(-0.373591 0.876932 -0.302358)
(0.870689 0.491623 -0.0144173)
(0.989594 0.126844 -0.067932)
(0.884327 -0.464339 -0.0485178)
(-0.349573 0.936889 -0.00617632)
(0.786123 -0.616667 -0.0416339)
(-0.0395829 0.997434 -0.0596541)
(-0.113134 0.993521 0.0107853)
(-0.125754 0.991814 -0.0221609)
(-0.359985 0.911462 0.199119)
(-0.524981 0.727196 0.442246)
(-0.309194 0.932977 0.184261)
(0.730275 -0.683 0.0144679)
(-0.449107 0.881245 0.147345)
(-0.566656 0.82359 0.0245102)
(0.468914 0.883244 0.000302985)
(0.468697 0.883336 0.00630461)
(-0.653731 0.755795 0.0375422)
(0.976076 -0.217178 -0.01046)
(-0.622866 0.780388 0.0550714)
(-0.265456 0.0495844 0.962847)
(-0.405568 0.0732531 0.911125)
(-0.388782 0.0737083 0.918377)
(-0.301985 0.0795631 0.949987)
(-0.212156 0.0526771 0.975815)
(-0.313922 0.0774372 0.946286)
(0.977647 -0.209466 -0.0181509)
(-0.667181 0.741166 0.0744531)
(-0.654748 0.753602 0.0582142)
(0.869209 0.494415 -0.00548072)
(0.867998 0.496567 0.000586888)
(0.881834 -0.469251 -0.0466069)
(-0.330267 0.943885 0.00208218)
(0.92634 -0.373413 -0.0495714)
(0.750509 -0.309683 -0.58381)
(0.79868 -0.475254 -0.369113)
(0.770355 -0.530904 -0.353119)
(-0.419074 0.88131 0.218335)
(0.685572 -0.504672 -0.524687)
(-0.485561 0.840297 0.241105)
(-0.332038 0.943229 0.00838003)
(0.960944 -0.271426 -0.0539855)
(0.963401 -0.26295 -0.0521191)
(0.976109 -0.215265 -0.0295429)
(0.784806 -0.611086 -0.103219)
(0.764206 -0.638803 -0.088997)
(-0.42254 0.0727306 0.903421)
(-0.305035 0.0482051 0.95112)
(-0.439577 0.0721137 0.895305)
(0.977472 -0.209789 -0.0231659)
(-0.675075 0.734853 0.0653064)
(-0.693666 0.715712 0.08114)
(-0.537175 0.0651847 0.840949)
(-0.37834 0.0443034 0.924606)
(-0.521886 0.0667611 0.850399)
(0.866228 0.499594 0.00737945)
(0.867176 0.497986 0.00388947)
(-0.378463 0.925465 0.0167545)
(0.973503 -0.218582 -0.0671885)
(0.984976 -0.160678 -0.0632876)
(0.819105 -0.426606 -0.383503)
(0.750737 -0.248093 -0.612245)
(0.833427 -0.384661 -0.396781)
(-0.344361 0.938758 0.0122174)
(0.971726 -0.229795 -0.0542424)
(0.965025 -0.255998 -0.0564993)
(0.853922 -0.226237 -0.468652)
(0.733515 -0.179554 -0.655527)
(0.855087 -0.244877 -0.457015)
(0.798514 -0.59398 -0.0977907)
(0.987112 -0.145161 -0.0673728)
(-0.232213 0.965645 0.116645)
(-0.219184 0.958047 0.184675)
(-0.0314498 0.9401 0.339444)
(0.0755775 0.96293 0.258947)
(-0.0612471 0.961948 0.266281)
(-0.106483 0.987553 0.115764)
(0.0456263 0.982627 0.179896)
(-0.0869114 0.978772 0.185613)
(-0.000765918 0.921522 0.388325)
(0.162949 0.896658 0.411646)
(0.0369237 0.906674 0.420212)
(-0.427049 0.846295 0.318455)
(-0.0456991 0.893268 0.447195)
(-0.129208 0.897309 0.422068)
(0.190319 0.885213 0.424473)
(0.122525 0.88227 0.454518)
(0.0781985 0.899777 0.429285)
(0.463939 0.88581 -0.0100761)
(0.831766 0.221489 0.509026)
(0.0975964 -0.587206 0.803532)
(0.596793 -0.136303 0.790733)
(0.348137 0.933134 -0.0897841)
(-0.589346 -0.140868 0.795504)
(-0.23501 -0.560064 0.794417)
(0.66402 0.35583 -0.657619)
(0.464344 0.885555 0.0133284)
(0.466989 0.884204 0.0102354)
(-0.0604908 0.998155 0.00527622)
(0.021971 0.999748 0.00459208)
(0.494176 0.846836 0.196617)
(0.970624 0.240586 -0.0025671)
(0.637603 0.632993 0.43907)
(0.0540291 0.998228 0.0249348)
(0.985282 0.156856 -0.0679354)
(0.988418 0.0217667 -0.150187)
(-0.241122 0.968008 0.0694257)
(-0.24203 0.969407 0.0408825)
(-0.0824977 0.996537 0.0103874)
(-0.0274973 0.999474 0.0171682)
(-0.104222 0.994354 0.0199374)
(-0.116778 0.990875 0.0672987)
(-0.0181558 0.999253 0.0341003)
(-0.115862 0.992558 0.0374867)
(0.360471 0.880524 0.307796)
(0.203123 0.947325 0.247623)
(0.3308 0.91338 0.237294)
(0.501023 0.849172 0.166984)
(0.364756 0.925571 0.101353)
(0.409468 0.898714 0.157002)
(0.168998 0.970563 0.1716)
(0.251055 0.962228 0.105301)
(0.294125 0.941323 0.165534)
(0.0521738 0.998583 0.0104495)
(0.0302553 0.999396 0.0171032)
(0.0954132 0.995236 0.0200479)
(0.216662 0.975059 0.0481511)
(0.315251 0.946901 0.0632126)
(0.260064 0.9648 0.0390785)
(0.061466 0.997556 0.033223)
(0.201374 0.977479 0.0631181)
(0.147548 0.988381 0.0365016)
(0.973645 -0.208531 -0.0923601)
(0.957175 -0.219778 -0.18845)
(0.966126 -0.243374 -0.0858455)
(0.966563 -0.256427 0.00138179)
(-0.657435 0.753278 0.0187517)
(-0.646602 0.761825 0.0391111)
(0.947155 -0.261383 -0.185946)
(0.914309 -0.39706 -0.0798851)
(0.949766 -0.302295 -0.0810137)
(0.387328 0.847935 0.361917)
(0.27856 0.871488 0.403624)
(0.405267 0.822863 0.398316)
(0.811255 0.4511 0.371986)
(0.634299 0.653425 0.413158)
(0.58424 0.697559 0.41482)
(0.29927 0.856703 0.420116)
(0.401983 0.799694 0.445981)
(0.42268 0.803724 0.418771)
(-0.0257486 0.998401 -0.0503323)
(0.0184738 0.891306 0.453025)
(0.166762 0.827435 0.53623)
(-0.137514 0.239146 0.961197)
(-0.23414 0.0882721 0.968187)
(-0.240388 0.292929 0.925422)
(-0.218004 0.891475 -0.397174)
(0.773505 -0.632198 -0.0448981)
(0.344714 0.478379 0.807667)
(-0.154282 -0.606187 0.780214)
(0.174953 0.432835 0.884333)
(-0.443063 0.178791 0.878481)
(0.623179 -0.614476 -0.483805)
(-0.399663 0.421594 0.813958)
(0.129848 0.863854 0.48672)
(0.106115 0.74764 0.655572)
(0.0790145 0.774166 0.628032)
(-0.521181 0.143439 0.841306)
(0.863791 -0.224397 -0.451123)
(-0.506648 0.152179 0.848616)
(-0.182145 0.0603968 0.981415)
(-0.250582 0.101973 0.96271)
(-0.268438 0.0911925 0.958971)
(0.856459 -0.247253 -0.453148)
(-0.46464 0.181769 0.866643)
(-0.49127 0.160274 0.856134)
(0.820668 -0.571149 0.0171071)
(-0.632223 0.774269 0.0283054)
(-0.618809 0.785343 0.0176618)
(-0.221781 -0.58845 0.777521)
(0.62885 0.636609 0.446404)
(0.962535 -0.096708 0.253326)
(-0.441967 0.896379 0.0342023)
(0.711004 -0.70138 -0.0503935)
(0.893201 -0.447174 0.0471842)
(-0.650645 0.757761 0.0495923)
(0.707406 -0.699181 0.103552)
(0.842529 -0.53197 -0.0845736)
(0.69757 -0.680323 -0.22485)
(-0.698929 0.708909 0.0945883)
(0.387052 0.780042 0.491656)
(0.151035 0.730719 0.665761)
(0.217376 0.683186 0.69714)
(0.871594 0.489954 -0.0164086)
(0.997665 -0.0425168 -0.0534423)
(-0.281756 0.959152 0.0253242)
(-0.18891 0.981316 0.0364886)
(-0.300776 0.953346 0.025791)
(-0.356592 0.934226 -0.00797674)
(-0.640654 0.767247 0.0299266)
(0.778673 -0.625853 -0.0444481)
(-0.220345 0.974598 0.0400718)
(-0.356191 0.933995 0.0279366)
(-0.326544 0.944806 0.0266661)
(-0.143412 0.947858 0.284602)
(-0.256935 0.943456 0.209465)
(-0.222701 0.957562 0.182972)
(-0.12236 0.991058 0.0532186)
(-0.182661 0.983175 -0.00121812)
(-0.14638 0.989194 -0.00830007)
(-0.247896 0.960714 0.124804)
(-0.247873 0.965974 0.0738394)
(-0.221574 0.968905 0.110126)
(-0.246819 0.963714 0.101665)
(-0.219475 0.97356 0.0633366)
(-0.232606 0.967382 0.10033)
(-0.444772 0.799064 0.404567)
(-0.242676 0.953261 0.180005)
(-0.271899 0.945793 0.177615)
(-0.230775 0.970696 0.0670277)
(-0.226435 0.967774 0.110189)
(-0.227011 0.968428 0.103019)
(-0.666776 0.745051 -0.017561)
(-0.625157 0.779869 0.0313539)
(-0.568628 0.822424 0.0167742)
(-0.295258 0.950159 0.100101)
(-0.225348 0.974278 0.000147096)
(-0.363302 0.931671 0.00116773)
(-0.388176 0.921175 0.0274919)
(-0.286823 0.956808 0.0474442)
(-0.390964 0.920032 0.0262522)
(0.46907 0.88316 0.00111796)
(0.468879 0.883244 0.00576607)
(0.977248 -0.187471 -0.0992023)
(0.963026 -0.169122 -0.209713)
(0.978849 -0.17503 -0.105919)
(0.97647 -0.215347 -0.0114618)
(-0.628713 0.775195 0.0615817)
(-0.641665 0.765684 0.0446578)
(0.962185 -0.164161 -0.217373)
(0.979403 -0.163547 -0.118419)
(0.979432 -0.167622 -0.112321)
(-0.253314 0.0500097 0.966091)
(-0.356443 0.0746265 0.931332)
(-0.372351 0.0741419 0.925126)
(-0.638204 0.12221 0.760105)
(0.869841 -0.166954 -0.464224)
(-0.62418 0.123947 0.771386)
(-0.59441 0.127307 0.794021)
(0.869514 -0.169955 -0.463746)
(-0.60953 0.125617 0.782747)
(-0.534689 0.138006 0.833703)
(0.868901 -0.187034 -0.45829)
(-0.548961 0.134021 0.825034)
(-0.22113 0.0517309 0.973871)
(-0.341267 0.0752407 0.93695)
(-0.327024 0.0761296 0.941944)
(0.868946 -0.181364 -0.460478)
(-0.579066 0.129121 0.804991)
(-0.563793 0.131275 0.815417)
(0.977616 -0.209676 -0.0174085)
(-0.642817 0.764293 0.0514005)
(-0.644561 0.761526 0.0679645)
(0.976573 -0.162795 -0.140719)
(0.956317 -0.159803 -0.244789)
(0.977525 -0.161625 -0.135358)
(0.979006 -0.161581 -0.124252)
(0.957945 -0.15974 -0.238379)
(0.978353 -0.161108 -0.129885)
(0.869044 0.494714 -0.00463593)
(0.868126 0.496344 5.54022e-05)
(-0.268914 0.962832 0.0252901)
(-0.133139 0.990584 0.0318941)
(-0.261017 0.964995 0.0255908)
(-0.329115 0.944285 0.00292026)
(0.945181 -0.322611 -0.0505449)
(0.927131 -0.371553 -0.0487571)
(-0.124821 0.991672 0.0317318)
(-0.257401 0.965927 0.0270284)
(-0.257286 0.965981 0.0261741)
(0.746621 -0.336395 -0.57393)
(0.682655 -0.659822 -0.314035)
(0.732122 -0.593156 -0.334906)
(-0.603401 0.773784 0.192782)
(-0.304584 0.949083 0.0804371)
(-0.533142 0.828054 0.173455)
(-0.411469 0.900451 0.141004)
(-0.276631 0.958075 0.0746097)
(-0.46815 0.869774 0.155976)
(-0.266526 0.958059 0.105299)
(-0.218241 0.97391 0.0622121)
(-0.292262 0.949872 0.111021)
(0.711249 -0.450053 -0.539979)
(-0.622541 0.726613 0.29065)
(-0.555044 0.788225 0.26576)
(-0.226205 0.971981 0.0639026)
(-0.363632 0.92262 0.128626)
(-0.324209 0.938508 0.118705)
(-0.330913 0.943629 0.00777913)
(0.950314 -0.307192 -0.0503603)
(0.954787 -0.29271 -0.0519935)
(-0.289858 0.956508 0.0327733)
(-0.126645 0.991317 0.03539)
(-0.27672 0.960452 0.0309612)
(-0.260603 0.965037 0.0281034)
(-0.121295 0.992038 0.0338754)
(-0.266967 0.963257 0.0294085)
(0.976332 -0.214347 -0.0288234)
(0.731236 -0.677341 -0.0806411)
(0.753395 -0.650599 -0.0954765)
(0.966993 -0.177857 -0.18246)
(0.942939 -0.161405 -0.29123)
(0.968287 -0.176143 -0.177182)
(0.970831 -0.172293 -0.166742)
(0.944608 -0.161669 -0.285621)
(0.969568 -0.174278 -0.171945)
(-0.651494 0.120362 0.749045)
(0.870837 -0.158445 -0.465337)
(-0.664001 0.11839 0.7383)
(-0.31909 0.0476282 0.946527)
(-0.47336 0.0704682 0.878046)
(-0.456548 0.0713661 0.886832)
(0.871108 -0.155595 -0.465791)
(-0.686595 0.113982 0.71805)
(-0.6757 0.116267 0.72795)
(0.977365 -0.210209 -0.0238564)
(0.722924 -0.685283 -0.0881351)
(-0.700866 0.709574 0.0727491)
(0.975539 -0.164351 -0.145989)
(0.951297 -0.161011 -0.262886)
(0.974427 -0.166217 -0.151209)
(0.972071 -0.170218 -0.161564)
(0.949623 -0.161371 -0.268654)
(0.973272 -0.168178 -0.156392)
(0.722573 -0.103334 -0.683528)
(0.871517 -0.143516 -0.468894)
(0.714666 -0.10619 -0.691358)
(-0.363175 0.0453036 0.930619)
(-0.489908 0.0693995 0.869007)
(-0.506108 0.0681627 0.859772)
(0.871534 -0.146641 -0.467894)
(-0.696703 0.111528 0.708637)
(0.706053 -0.108922 -0.699732)
(0.866463 0.499191 0.00703195)
(0.867062 0.498181 0.0043011)
(-0.372743 0.927792 0.0162567)
(0.981841 -0.180043 -0.0597759)
(0.970829 -0.23133 -0.0630742)
(-0.61827 0.783213 0.0657153)
(-0.475117 0.875463 0.088479)
(-0.542633 0.837919 0.0586686)
(-0.427895 0.902569 0.0477068)
(-0.35724 0.93125 0.0717865)
(-0.47872 0.876388 0.0526439)
(-0.673361 0.708053 0.212712)
(-0.440324 0.891284 0.108294)
(0.736694 -0.635255 -0.231804)
(0.748433 -0.231778 -0.621391)
(0.849521 -0.317195 -0.421547)
(0.843216 -0.348416 -0.409382)
(-0.508296 0.85247 0.12219)
(0.828788 -0.493234 -0.264255)
(0.788904 -0.561779 -0.249068)
(-0.346738 0.937876 0.012738)
(0.968191 -0.243029 -0.0595243)
(0.977472 -0.203282 -0.0567926)
(-0.306299 0.951297 0.0348504)
(-0.166187 0.985158 0.0429686)
(-0.327127 0.944245 0.0372778)
(-0.38611 0.921424 0.0435531)
(-0.191103 0.980441 0.0470663)
(-0.353066 0.934738 0.040126)
(0.901038 -0.300721 -0.312567)
(0.813795 -0.549614 -0.188847)
(0.891877 -0.337174 -0.301447)
(0.737805 -0.190987 -0.647431)
(0.853275 -0.289828 -0.433499)
(0.854993 -0.265891 -0.445297)
(0.749965 -0.638336 -0.173434)
(0.857762 -0.432571 -0.277718)
(0.878038 -0.380761 -0.289947)
(0.995447 0.0848593 -0.0434016)
(0.105863 0.994117 0.0228972)
(-0.058256 0.998292 0.00429798)
(0.994841 0.0410159 -0.0927798)
(0.0236691 0.999718 0.00194737)
(0.990059 0.133993 -0.0427725)
(0.995149 0.0305156 -0.093527)
(0.466449 0.884534 -0.00508012)
(0.804435 0.502029 0.317571)
(0.703544 0.553749 0.445407)
(0.721251 0.639572 0.265979)
(0.711796 0.532757 0.45773)
(0.764281 0.575192 0.291596)
(0.781804 0.559909 0.27438)
(0.739301 0.472111 0.480152)
(-0.545984 -0.246913 0.800585)
(-0.602674 0.793243 0.086889)
(0.756887 -0.641733 -0.123696)
(-0.647022 0.753007 0.119761)
(-0.242375 0.847583 -0.472077)
(-0.554708 0.796526 0.240513)
(0.789475 -0.5615 -0.247883)
(0.462861 0.886311 0.014584)
(0.467657 0.883866 0.00885646)
(0.708672 0.669682 0.222056)
(0.677942 0.615864 0.401381)
(0.703985 0.66809 0.240959)
(0.615223 0.710789 0.340999)
(0.735573 0.627965 0.25415)
(0.659851 0.71747 0.223234)
(0.653049 0.671613 0.349946)
(0.97643 0.212223 -0.0393051)
(0.0742647 0.997211 0.00739061)
(0.995477 0.0223077 -0.092347)
(0.104411 0.994483 0.0100984)
(0.985621 0.163741 -0.0417032)
(0.161234 0.986454 0.0302068)
(0.995101 0.0373301 -0.091545)
(0.898323 -0.4393 -0.00555162)
(-0.438447 0.898757 0.000253251)
(0.954129 -0.298767 -0.0194184)
(0.972425 -0.23318 -0.00413148)
(-0.443626 0.896207 -0.00291631)
(0.949343 -0.313752 -0.0175537)
(0.902913 -0.429698 -0.0104026)
(0.870266 0.492458 -0.0111074)
(-0.643258 0.765402 0.0194736)
(0.993581 0.108883 -0.0306714)
(-0.45692 0.889464 0.00880752)
(0.970882 0.238721 -0.0199827)
(-0.340794 0.940132 -0.00318403)
(-0.460421 0.887666 0.00789798)
(0.975903 0.217137 -0.0215774)
(0.992607 0.117885 -0.0288719)
(-0.453284 0.891139 0.0201205)
(-0.69953 0.714597 0.00306056)
(-0.474004 0.869981 0.135845)
(-0.564362 0.821051 0.0858519)
(-0.439017 0.897699 0.0374191)
(-0.563456 0.825942 0.0183596)
(-0.451317 0.886181 0.104863)
(0.468266 0.883586 -0.00154535)
(0.468259 0.883561 0.00735519)
(0.909742 -0.414744 -0.0188788)
(-0.435028 0.900412 0.0030706)
(0.958322 -0.284912 -0.0210726)
(0.975038 -0.221887 -0.00821979)
(0.905548 -0.423986 -0.0147883)
(-0.432467 0.901632 0.00569922)
(0.961216 -0.274866 -0.0226356)
(0.935248 -0.349879 -0.0538168)
(0.977677 -0.209193 -0.0196319)
(-0.446773 0.894152 0.0297751)
(0.974075 -0.222933 -0.0384525)
(-0.444211 0.895472 0.0284133)
(0.973872 -0.22399 -0.0374478)
(0.936341 -0.346629 -0.0557938)
(0.869581 0.493735 -0.0074039)
(0.867689 0.497105 0.00160391)
(0.990945 0.131771 -0.0257935)
(-0.451888 0.892023 0.00961115)
(0.965751 0.258806 -0.0185493)
(-0.333379 0.942793 0.000230629)
(0.991736 0.12537 -0.0272325)
(-0.449753 0.893093 0.0103916)
(0.961367 0.274729 -0.0172139)
(0.986657 0.162123 -0.0149648)
(-0.3349 0.942205 0.00953471)
(-0.476607 0.8789 0.0195059)
(0.909513 0.415639 -0.00556496)
(-0.470446 0.882227 0.0188845)
(0.912871 0.408202 -0.00614799)
(0.986765 0.161509 -0.01451)
(0.941304 -0.32747 -0.0819171)
(0.975676 -0.217009 -0.0310326)
(-0.519008 0.853293 0.0502133)
(0.970795 -0.233437 -0.0553486)
(-0.513662 0.856597 0.0489145)
(0.970841 -0.233511 -0.0542257)
(0.94137 -0.326865 -0.0835611)
(0.937481 -0.342897 -0.0595852)
(0.977609 -0.209305 -0.0217482)
(-0.449916 0.89253 0.0310797)
(0.974093 -0.222682 -0.0394354)
(-0.453484 0.890675 0.032417)
(0.937022 -0.344472 -0.057697)
(0.974009 -0.222869 -0.0404469)
(0.865966 0.500038 0.0080812)
(0.867324 0.497735 0.00302607)
(0.985026 0.172112 -0.0101058)
(-0.391499 0.920007 0.017744)
(-0.663809 0.747276 0.030605)
(0.855152 0.518375 0.00166668)
(-0.64498 0.763617 0.0298414)
(0.858376 0.513019 0.00131804)
(0.985467 0.169568 -0.0100273)
(0.986389 0.163863 -0.0136348)
(-0.340151 0.940305 0.0111639)
(-0.482513 0.875657 0.0201436)
(0.905129 0.425108 -0.0049948)
(0.986488 0.163232 -0.014038)
(-0.489215 0.871916 0.0207607)
(0.902927 0.429772 -0.00446039)
(-0.525509 0.849228 0.0515078)
(0.970187 -0.235678 -0.0564986)
(0.9417 -0.325496 -0.0851697)
(-0.682842 0.729893 0.0313642)
(0.852121 0.523341 0.00206243)
(0.985232 0.170945 -0.00981894)
(0.460242 0.887667 -0.014995)
(0.890472 -0.111137 0.441258)
(0.79812 -0.177361 0.575802)
(0.983251 0.0627638 0.171111)
(0.423412 -0.524456 0.738694)
(0.947997 -0.0961593 0.303404)
(0.896109 0.21641 0.387498)
(0.713056 -0.31756 0.625066)
(0.394982 0.918129 -0.0320767)
(0.859169 -0.138273 -0.492656)
(-0.476728 -0.569589 0.669551)
(0.980353 -0.0914306 -0.17478)
(-0.214738 -0.562055 0.798738)
(0.95326 -0.224822 0.201867)
(0.963708 -0.0332957 -0.264876)
(-0.447007 -0.442183 0.777598)
(0.465014 0.885215 0.0124756)
(0.46613 0.884646 0.0111301)
(0.669296 0.740593 0.059704)
(0.394902 0.911023 0.118699)
(0.478992 0.87208 0.100212)
(0.691361 0.721432 0.0394304)
(0.676543 0.735375 0.0388954)
(0.517455 0.846748 0.123522)
(0.647992 0.757407 0.0802596)
(0.737032 0.675827 0.00648262)
(0.155565 0.986631 0.0485746)
(0.441331 0.892314 0.0948834)
(0.755528 0.655104 0.00412776)
(0.691283 0.722237 0.0223853)
(0.386457 0.919432 0.0727762)
(0.855029 0.517596 -0.0319408)
(0.857194 -0.514437 0.0239515)
(0.956776 -0.290757 0.00636841)
(-0.521126 0.852899 -0.031478)
(0.846266 -0.532761 0.000235218)
(-0.488397 0.872276 -0.0245512)
(0.84559 -0.532955 0.0306089)
(0.880533 -0.473967 -0.00412787)
(0.785353 -0.617813 0.039091)
(0.892923 -0.449788 0.0194698)
(-0.49612 0.867558 -0.0347605)
(0.80335 -0.595486 0.00499277)
(-0.547279 0.835779 -0.0442616)
(0.795103 -0.605544 0.0335749)
(0.746134 -0.665698 0.0113711)
(0.873922 0.48558 -0.0217579)
(0.876267 0.480166 -0.0399541)
(0.996131 -0.0769714 -0.0424022)
(-0.378479 0.925524 -0.0125969)
(-0.515734 0.856748 -0.000957504)
(0.947885 -0.317492 -0.0266905)
(-0.502724 0.864446 0.00138392)
(0.990257 -0.136276 -0.0286472)
(0.971286 -0.23416 -0.0421028)
(0.728659 -0.684544 -0.0213472)
(-0.453601 0.890871 -0.0243939)
(-0.530825 0.847473 -0.00380635)
(0.773153 -0.634055 -0.0144211)
(-0.552858 0.833241 -0.00760717)
(-0.673719 0.73895 0.00748507)
(0.868003 -0.49541 -0.0337564)
(0.469153 0.883113 0.00261556)
(0.469038 0.883166 0.00459816)
(0.923517 -0.381934 -0.0352625)
(0.977032 -0.212673 -0.0133381)
(-0.429612 0.902836 0.0178955)
(0.971216 -0.23628 -0.0301807)
(-0.429127 0.9031 0.0161374)
(0.926303 -0.374862 -0.0379683)
(0.970362 -0.239904 -0.0290488)
(0.9295 -0.366312 -0.0429519)
(0.97748 -0.210431 -0.0158409)
(-0.430931 0.902173 0.0195421)
(0.97203 -0.232768 -0.0312448)
(-0.432624 0.901326 0.021163)
(0.927592 -0.371392 -0.0405091)
(0.972433 -0.230933 -0.032324)
(0.868678 0.495368 -0.00310062)
(0.868268 0.496094 -0.00109812)
(0.988445 0.150223 -0.0202579)
(-0.328541 0.944479 0.00446935)
(-0.446429 0.894702 0.0144833)
(0.937755 0.347121 -0.0110503)
(-0.44424 0.895801 0.0138317)
(0.941213 0.337604 -0.0119198)
(0.988268 0.151492 -0.0194242)
(0.98767 0.155525 -0.0179107)
(-0.329573 0.944108 0.00652576)
(-0.447588 0.894112 0.0151208)
(0.933766 0.357737 -0.0102372)
(-0.450603 0.892585 0.015749)
(0.930981 0.364946 -0.00946599)
(0.987929 0.153786 -0.0186211)
(0.940174 -0.332645 -0.0736299)
(0.976694 -0.212885 -0.0273728)
(-0.481442 0.875505 0.0412837)
(0.972834 -0.226552 -0.0476306)
(-0.486494 0.872646 0.0425671)
(0.940273 -0.332736 -0.0719246)
(0.972559 -0.227503 -0.0486994)
(0.939693 -0.335083 -0.0685273)
(0.977132 -0.211128 -0.0252751)
(-0.476845 0.878075 0.040042)
(0.973246 -0.224992 -0.0465841)
(-0.472906 0.880259 0.0387809)
(0.939943 -0.334025 -0.0702477)
(0.973215 -0.225337 -0.0455628)
(0.866518 0.499107 0.00629509)
(0.866724 0.498761 0.00510822)
(0.985658 0.168393 -0.0110884)
(-0.364269 0.931169 0.0152644)
(-0.554668 0.831683 0.0254274)
(0.876328 0.481714 -0.00106845)
(-0.566605 0.823576 0.0261153)
(0.875447 0.483313 -0.000662833)
(0.98566 0.168364 -0.0113199)
(0.98568 0.168208 -0.0118778)
(-0.35322 0.935439 0.0137619)
(-0.543008 0.839364 0.0247182)
(0.881231 0.472684 -0.00153079)
(-0.532212 0.846269 0.0240535)
(0.884314 0.466888 -0.00198401)
(0.985969 0.166525 -0.0116197)
(-0.332981 0.942886 -0.00946063)
(-0.1335 0.975272 0.17613)
(-0.13773 0.970993 0.195453)
(-0.194173 0.980963 0.00301068)
(-0.17492 0.948488 0.264148)
(-0.463405 0.885776 -0.0256319)
(-0.423748 0.905772 0.00389695)
(-0.203318 0.962425 0.180001)
(-0.103159 0.953252 0.284023)
(-0.184035 0.982398 -0.0320269)
(-0.350621 0.935156 -0.0504877)
(-0.1146 0.962531 0.245765)
(-0.0339254 0.896929 0.440871)
(-0.116105 0.983236 -0.140597)
(-0.0723108 0.929683 0.361194)
(-0.367799 0.914764 -0.167123)
(-0.508538 0.858589 -0.0649162)
(-0.137765 0.926132 0.351142)
(-0.101839 0.898468 0.427064)
(-0.552393 0.826627 -0.10747)
(-0.365605 0.924697 -0.106153)
(-0.0937003 0.946141 0.309899)
(-0.0670162 0.926522 0.370223)
(-0.163727 0.982918 -0.084053)
(0.997976 0.0456204 -0.0443067)
(0.0785523 0.996905 0.00303144)
(0.0687863 0.997516 0.0151556)
(0.995542 0.00655132 -0.0940914)
(0.117119 0.993113 -0.00298623)
(0.0461761 0.99889 0.00933062)
(0.986957 0.0165634 -0.16013)
(0.103795 0.994594 0.00312557)
(0.051745 0.998646 0.00538267)
(0.986545 -0.0073587 -0.163323)
(-0.00640761 0.999961 0.0060788)
(0.465964 0.88478 -0.00650244)
(0.760467 0.439995 0.477592)
(0.633379 0.490956 0.598159)
(0.573233 0.344382 0.743509)
(0.71815 0.524099 0.4578)
(0.669679 0.401898 0.624506)
(0.835814 0.420785 0.352638)
(0.747826 0.45585 0.482656)
(0.86689 0.404098 0.291902)
(0.811231 0.255736 0.525836)
(0.787 0.534948 0.307346)
(0.878047 0.310986 0.363759)
(0.769718 0.384194 0.509832)
(0.789912 0.341692 0.5092)
(0.593 0.240358 0.768491)
(0.734424 0.140133 0.664067)
(0.835519 0.206618 0.509133)
(0.701683 0.294177 0.648923)
(-0.357527 0.929325 -0.0923516)
(0.701973 -0.392394 -0.594358)
(0.882438 -0.104364 -0.458706)
(0.303178 0.241155 0.921915)
(0.717505 0.185432 -0.671417)
(0.209804 0.000695734 0.977743)
(-0.53712 -0.123552 0.834408)
(0.841987 -0.144464 -0.519796)
(-0.264455 0.735462 -0.623826)
(0.75368 0.162897 -0.636735)
(0.564458 -0.575546 0.591721)
(-0.592613 -0.288988 0.751862)
(0.805681 0.250614 -0.536723)
(0.897335 -0.322877 -0.300898)
(0.731615 0.13477 -0.668264)
(0.463345 0.886065 0.0141802)
(0.46735 0.884023 0.00931526)
(-0.0865459 0.996229 0.00608325)
(-0.0627917 0.998004 0.00670834)
(0.00383552 0.999982 -0.00453152)
(-0.0941474 0.995538 0.00638558)
(-0.069286 0.997572 0.00698721)
(-0.0565682 0.998391 0.00391561)
(-0.0868171 0.996195 0.00760286)
(-0.128765 0.991643 0.00795855)
(-0.0238616 0.999715 -0.000500986)
(0.0157449 0.999868 0.00393723)
(0.0169727 0.999845 0.00478371)
(-0.016955 0.999855 -0.0014356)
(0.0578479 0.998215 0.0148519)
(0.0232974 0.999708 0.00641575)
(0.0726521 0.997341 0.00577303)
(0.0559183 0.998425 0.00450627)
(0.00982753 0.999951 -0.000971636)
(0.0273114 0.999614 0.00507189)
(0.029411 0.999557 0.00450027)
(0.00509391 0.999986 -0.00103142)
(0.665664 0.634202 0.393294)
(0.607828 0.55846 0.564507)
(0.541764 0.540759 0.643484)
(0.692539 0.582604 0.425396)
(0.581154 0.622488 0.524184)
(0.692067 0.698543 0.181881)
(0.574737 0.764326 0.292374)
(0.606266 0.775365 0.176779)
(0.623558 0.745808 0.234404)
(0.638515 0.74303 0.200514)
(0.67715 0.720683 0.148602)
(0.63709 0.712969 0.292902)
(0.650367 0.672397 0.35342)
(0.552673 0.583473 0.595073)
(0.532063 0.734433 0.421328)
(0.626795 0.711787 0.316998)
(0.560109 0.677939 0.476107)
(0.12271 0.992398 0.0093895)
(0.0032215 0.99986 0.0164102)