/*--------------------------------*- C++ -*----------------------------------*\
| =========                 |                                                 |
| \\      /  F ield         | OpenFOAM: The Open Source CFD Toolbox           |
|  \\    /   O peration     | Version:  2012                                  |
|   \\  /    A nd           | Website:  www.openfoam.com                      |
|    \\/     M anipulation  |                                                 |
\*---------------------------------------------------------------------------*/
FoamFile
{
    version     2.0;
    format      ascii;
    class       volVectorField;
    location    "0.104/solid";
    object      U;
}
// * * * * * * * * * * * * * * * * * * * * * * * * * * * * * * * * * * * * * //

dimensions      [0 1 -1 0 0 0 0];


internalField   nonuniform List<vector> 
3125
(
(-6.43842e-09 -8.11101e-11 7.56567e-09)
(-0.00359859 9.80647e-05 -0.0043588)
(-4.108e-08 -1.42852e-07 -1.6835e-09)
(-8.48843e-05 -6.21226e-06 -9.69407e-05)
(-0.0240996 -0.00086069 -0.0105876)
(-0.0125766 -0.000539079 -0.00815591)
(-8.92377e-09 -1.93695e-10 1.39112e-08)
(-2.74001e-08 -9.00577e-08 2.40493e-09)
(-6.45996e-09 -1.65857e-10 7.58085e-09)
(-2.12503e-08 -1.61092e-07 1.70128e-08)
(-9.0158e-09 -5.16982e-10 1.40184e-08)
(-0.00354353 8.77874e-05 -0.00411044)
(-5.20999e-08 -3.66586e-07 1.58267e-08)
(3.53828e-07 8.6894e-06 2.41028e-05)
(-0.002924 0.000194039 0.000523814)
(-0.000103668 -4.71865e-05 -0.000198093)
(-0.00360074 0.000158023 -0.00433617)
(-0.000142687 3.59391e-05 -0.000152325)
(-0.00354694 0.000172653 -0.00408012)
(4.15003e-06 -1.45321e-05 2.59402e-05)
(-0.0029369 0.000172661 0.000498092)
(-8.55369e-05 4.76083e-05 -0.000126295)
(-0.00398184 6.1168e-05 -0.0046139)
(-0.0119156 -0.000505703 -0.00796381)
(-0.00392691 5.36055e-05 -0.00435235)
(-0.0111811 0.00039627 0.000952532)
(-0.00370044 0.000220215 0.000584623)
(-0.0118629 -0.00047256 -0.0075256)
(-0.00398691 0.000120209 -0.00459058)
(-0.0119641 -0.00046028 -0.00794274)
(-0.0039346 0.000137161 -0.00432095)
(-0.0112993 0.00038003 0.000922089)
(-0.00372524 0.000199589 0.000559879)
(-0.0119344 -0.000408284 -0.00749723)
(-0.0240494 -0.000787945 -0.0100071)
(-0.0125128 0.000427714 0.00099831)
(-0.0125239 -0.000503308 -0.00770738)
(-0.0233414 0.000772762 0.00127712)
(-0.02419 -0.000828985 -0.0105862)
(-0.0126278 -0.00049454 -0.00813562)
(-0.0241828 -0.000743068 -0.0100074)
(-0.0126445 0.000412075 0.00096477)
(-0.0125996 -0.000440282 -0.00768016)
(-0.0235622 0.00076126 0.00120743)
(-0.0249619 -0.000866819 -0.0107206)
(-0.0249118 -0.000791817 -0.0101326)
(-0.0250546 -0.000835933 -0.0107208)
(-0.0250487 -0.00074809 -0.0101354)
(3.92467e-08 2.05353e-08 1.30275e-08)
(3.84378e-09 -2.05796e-10 1.02267e-08)
(6.30878e-08 4.00055e-08 1.72434e-08)
(8.58827e-08 1.08492e-06 -7.32311e-08)
(-3.28e-07 1.4559e-07 4.26661e-07)
(-0.00147953 0.000310136 -0.00245787)
(-1.44161e-06 -1.70161e-06 -2.03405e-07)
(-0.00125702 0.000327314 -0.00217025)
(-1.84063e-06 -2.13404e-06 -3.44481e-07)
(-0.0183714 -0.000759036 -0.0095564)
(-0.0176005 -0.000736898 -0.00939446)
(-1.6707e-09 -1.35596e-10 9.82169e-09)
(-2.76224e-09 -1.91311e-10 1.10643e-08)
(-7.37948e-09 -5.54291e-09 7.57006e-09)
(-7.15503e-09 -3.46634e-09 7.68015e-09)
(-1.54825e-09 -2.15851e-10 9.83362e-09)
(8.49856e-10 -5.17605e-10 1.00689e-08)
(4.18568e-08 -1.56717e-08 1.59426e-08)
(-9.22729e-09 -1.47447e-08 1.48958e-08)
(3.34497e-09 -4.47783e-09 1.17618e-08)
(-2.64265e-09 -3.64765e-10 1.10923e-08)
(-9.25332e-09 -6.52085e-09 1.46014e-08)
(1.08761e-11 -2.45202e-09 1.1491e-08)
(-0.00302207 0.000117059 -0.00188408)
(-0.00142202 0.000283208 -0.00230055)
(-0.00118431 0.000156235 -0.00110786)
(6.17691e-08 -3.41459e-08 2.23412e-08)
(-2.05035e-06 -3.04798e-06 2.72106e-08)
(-8.14937e-07 -2.24443e-07 6.23704e-07)
(8.35872e-08 2.58416e-06 -2.75952e-07)
(-0.000651964 6.87485e-05 0.000244542)
(-4.79935e-06 9.19045e-06 -5.76362e-05)
(-0.000683751 0.000127611 -0.000549056)
(-2.01327e-06 -3.3552e-06 6.65528e-08)
(-0.00296442 0.000134387 -0.0012693)
(-0.00108951 0.000103998 0.000322956)
(-0.0011257 0.000138579 -0.000738555)
(-0.00119973 0.000298624 -0.0020256)
(-3.89694e-06 -1.10392e-05 -3.5339e-06)
(-1.48096e-05 1.23441e-05 -8.69242e-05)
(-0.000737691 0.000155216 -0.000826824)
(-3.25266e-06 -5.8899e-06 -3.13187e-08)
(-0.00146383 0.000376254 -0.00244919)
(-0.00123966 0.000394976 -0.00216536)
(-0.00303025 0.000198779 -0.00186668)
(-0.00140041 0.000377093 -0.0022932)
(-0.00116213 0.000251786 -0.00111703)
(-0.000640794 4.14834e-05 0.000225222)
(1.72926e-06 5.05669e-05 -7.22483e-05)
(-0.000665156 0.000196524 -0.000576644)
(-0.00297449 0.000191078 -0.00126317)
(-0.00107754 7.78869e-05 0.000297013)
(-0.00110635 0.000205192 -0.000752846)
(-0.00117557 0.000396189 -0.00202409)
(-9.9786e-06 7.27597e-05 -0.000107046)
(-0.000716654 0.00025323 -0.000856191)
(-0.00719684 -0.000209909 -0.0062876)
(-0.00772858 -0.000248761 -0.00651079)
(-0.00379611 9.36891e-05 -0.00212552)
(-0.00714294 -0.000198289 -0.00593849)
(-0.0065741 1.32486e-05 -0.00280095)
(-0.0075611 0.000316312 0.000805689)
(-0.0112085 3.563e-05 -0.00244417)
(-0.00759431 6.8454e-05 -0.00204393)
(-0.00373993 0.000123872 -0.00143527)
(-0.00648761 0.000292401 0.00075336)
(-0.0065226 8.25744e-05 -0.00189991)
(-0.00767481 -0.000234411 -0.00614987)
(-0.011254 -8.52441e-05 -0.003593)
(-0.00764428 -1.38951e-05 -0.00301038)
(-0.0072224 -0.000157294 -0.00626286)
(-0.00775705 -0.000197052 -0.00648624)
(-0.00381859 0.00017275 -0.00210414)
(-0.00718074 -0.000123835 -0.00590483)
(-0.00664227 8.4705e-05 -0.00277558)
(-0.00763867 0.000298262 0.000781028)
(-0.0113412 7.83979e-05 -0.00243872)
(-0.00768026 0.000116282 -0.00203148)
(-0.00376421 0.000178712 -0.00142566)
(-0.00655164 0.000273739 0.000729453)
(-0.00659286 0.000132117 -0.00188674)
(-0.00771691 -0.000161241 -0.00611647)
(-0.0113837 -2.35286e-05 -0.00357543)
(-0.00772794 5.5096e-05 -0.00298573)
(-0.01832 -0.000702904 -0.00903224)
(-0.0233868 -8.50676e-05 -0.00482433)
(-0.018457 -0.000129595 -0.00441602)
(-0.0125383 3.01611e-05 -0.00256712)
(-0.0168499 0.000544631 0.00112662)
(-0.0168693 3.90972e-05 -0.00290518)
(-0.0175489 -0.000683242 -0.00887912)
(-0.0125823 -0.000103298 -0.00377222)
(-0.0169088 -0.000131116 -0.00426588)
(-0.0233529 0.000131252 -0.00328621)
(-0.0184016 0.000592945 0.00116643)
(-0.0184189 5.24871e-05 -0.00300778)
(-0.0184443 -0.000721458 -0.00954463)
(-0.0176707 -0.000698461 -0.00938142)
(-0.0184275 -0.000649727 -0.00901746)
(-0.023631 -4.18475e-05 -0.00485516)
(-0.0186601 -7.96119e-05 -0.00442436)
(-0.0126863 7.12695e-05 -0.00256549)
(-0.0170209 0.000530786 0.00108048)
(-0.0170622 7.53158e-05 -0.00291907)
(-0.0176526 -0.000628844 -0.00886248)
(-0.012727 -4.39707e-05 -0.00375852)
(-0.0170977 -7.88298e-05 -0.0042678)
(-0.0236023 0.000161181 -0.0033289)
(-0.0185853 0.000579693 0.00111507)
(-0.0186263 8.71062e-05 -0.00302808)
(1.89133e-08 4.79033e-08 5.95307e-09)
(9.56127e-09 2.1067e-08 6.48534e-09)
(3.44198e-08 1.05764e-07 4.80109e-09)
(4.77133e-08 2.79241e-07 -4.19208e-09)
(5.93289e-08 2.31896e-07 3.93366e-09)
(-1.1332e-08 -3.71743e-11 1.72633e-09)
(-0.0025688 0.00020179 -0.0035692)
(-4.78621e-08 -4.36203e-08 -1.07803e-08)
(-1.81663e-07 -4.2451e-07 -1.90105e-08)
(-1.4615e-07 -1.37277e-07 -4.61178e-08)
(-0.000478738 0.00028112 -0.000862058)
(-2.38865e-06 -7.47219e-06 8.10374e-07)
(-5.03563e-06 -3.60998e-06 -1.85001e-06)
(-0.0215765 -0.000829222 -0.0101674)
(-0.0146469 -0.000632219 -0.00870937)
(-3.02453e-10 -5.96103e-11 7.06892e-09)
(-5.89309e-09 -2.06441e-10 1.2324e-08)
(-3.54133e-08 -2.87974e-08 -6.19129e-09)
(-1.12528e-08 -2.84872e-08 6.15994e-09)
(-1.837e-08 -8.46249e-09 -3.03321e-10)
(-1.13875e-08 -5.62744e-11 1.72619e-09)
(-6.63839e-09 -6.33872e-10 7.6643e-09)
(-1.16457e-08 -2.0436e-10 1.71145e-09)
(-2.66117e-10 -2.78877e-11 7.03951e-09)
(-1.5637e-10 1.05725e-10 7.00229e-09)
(1.84164e-08 -1.16939e-07 1.57071e-08)
(-1.18071e-08 -7.33719e-08 1.54667e-08)
(7.90228e-09 -5.62748e-08 1.29213e-08)
(-5.89471e-09 -5.13382e-10 1.23925e-08)
(-9.11157e-09 -1.23555e-09 1.41628e-08)
(-5.79623e-09 -1.14977e-09 1.24938e-08)
(-0.00336597 0.000107634 -0.00310117)
(-0.00251316 0.000183618 -0.00336085)
(-0.00232644 0.000173782 -0.00251905)
(2.7335e-08 -2.59466e-07 1.59199e-08)
(-1.90862e-07 -7.61874e-07 3.13246e-08)
(-5.34701e-09 -4.78992e-07 3.66407e-08)
(-2.03749e-05 4.27287e-05 3.3508e-05)
(-7.02253e-05 -1.59382e-05 4.48053e-05)
(2.4028e-06 3.44961e-06 -2.38697e-06)
(-6.11238e-05 1.68988e-05 -1.31589e-05)
(-1.73122e-05 2.50931e-06 2.05778e-06)
(-0.00291533 0.000173249 -6.91034e-05)
(-0.00222819 0.000166031 0.000460317)
(-0.00221909 0.000156509 -5.44895e-05)
(-0.000410331 0.000318698 -0.000758165)
(-8.92345e-05 -1.8059e-05 -5.76017e-05)
(-8.19735e-05 7.26507e-06 -0.000140092)
(-0.000263139 0.000217594 -0.000584906)
(-6.70652e-05 -4.49806e-05 -7.80578e-05)
(-0.0025624 0.00026446 -0.0035499)
(-0.000507017 0.000357537 -0.000985162)
(-0.00337069 0.000171154 -0.00308258)
(-0.00250417 0.000272339 -0.00333574)
(-0.00232002 0.000240481 -0.00250573)
(-8.5768e-05 -1.92291e-05 8.85806e-05)
(6.95494e-06 7.07974e-06 -6.68937e-06)
(-7.72878e-05 2.75877e-05 -1.62253e-05)
(-0.0029277 0.000177258 -8.48017e-05)
(-0.00223039 0.000143682 0.000433637)
(-0.00221993 0.000160601 -7.24399e-05)
(-0.000468705 0.000356467 -0.00092226)
(-2.24226e-05 3.59609e-05 -8.11486e-05)
(-0.000279071 0.000282082 -0.000639609)
(-0.00524799 -5.35118e-05 -0.00535518)
(-0.0100246 -0.000399812 -0.00736439)
(-0.00375213 8.37841e-05 -0.00328632)
(-0.00519352 -5.28635e-05 -0.00505507)
(-0.00502747 7.84675e-06 -0.00383062)
(-0.00991024 0.000367626 0.000905203)
(-0.0111727 0.000276509 -0.000175207)
(-0.00990197 0.000260192 -0.000163974)
(-0.00369204 0.000187499 -8.38218e-05)
(-0.00455485 0.000244957 0.000642991)
(-0.00454665 0.000199975 -9.83711e-05)
(-0.0099714 -0.000374644 -0.00695816)
(-0.0117295 -0.000290362 -0.005736)
(-0.00982978 -0.00022209 -0.00529703)
(-0.00526184 2.76721e-06 -0.00533059)
(-0.0100646 -0.000351715 -0.00734138)
(-0.00376097 0.000146228 -0.00326662)
(-0.0052141 2.67794e-05 -0.00502171)
(-0.00504844 6.73802e-05 -0.00380888)
(-0.010015 0.000350784 0.000877275)
(-0.0112981 0.000279473 -0.000194249)
(-0.010013 0.000263293 -0.000180262)
(-0.00371726 0.000191408 -9.76816e-05)
(-0.00459232 0.000225024 0.000618973)
(-0.00458551 0.000203764 -0.000110963)
(-0.0100305 -0.000306586 -0.00692699)
(-0.0117999 -0.000242336 -0.00571867)
(-0.00988819 -0.000171306 -0.00527708)
(-0.0215257 -0.000763442 -0.00960991)
(-0.0239568 -0.000458023 -0.00764976)
(-0.0214254 -0.000459293 -0.00734233)
(-0.0125043 0.000295745 -0.000185738)
(-0.0139032 0.000462547 0.00104257)
(-0.0138944 0.000318508 -0.00019556)
(-0.0145947 -0.000588665 -0.0082311)
(-0.0123929 -0.00031112 -0.00587485)
(-0.0144718 -0.000367575 -0.00628)
(-0.0233315 0.000559951 -0.000239976)
(-0.0216496 0.000706566 0.00124168)
(-0.0216399 0.000504721 -0.000234221)
(-0.0216596 -0.000795028 -0.0101613)
(-0.0147064 -0.000590318 -0.00869181)
(-0.0216483 -0.000715048 -0.00960334)
(-0.0240878 -0.000424475 -0.00765957)
(-0.021546 -0.000423186 -0.00734562)
(-0.012644 0.000298575 -0.000208178)
(-0.0140481 0.000447509 0.00100537)
(-0.0140483 0.000321208 -0.000222018)
(-0.0146825 -0.000529371 -0.00820786)
(-0.0124675 -0.000264099 -0.00585859)
(-0.0145582 -0.00032327 -0.0062675)
(-0.0235663 0.000561926 -0.000302013)
(-0.0218583 0.000694488 0.0011785)
(-0.0218618 0.000506811 -0.000289131)
(-0.0248213 -0.000453318 -0.00774574)
(-0.0249559 -0.000420699 -0.00775786)
(2.01207e-09 3.67174e-09 6.87087e-09)
(4.59619e-09 9.0191e-09 6.75191e-09)
(3.02751e-08 4.14886e-08 9.52047e-09)
(2.07833e-08 6.24379e-09 1.09673e-08)
(1.55316e-08 1.71593e-08 8.75218e-09)
(3.0961e-09 2.50916e-09 8.53011e-09)
(9.86833e-09 1.53376e-09 1.04891e-08)
(7.42943e-09 6.92211e-09 8.61869e-09)
(5.29424e-08 8.88162e-08 1.12316e-08)
(8.22607e-08 1.09571e-07 4.66249e-08)
(8.61469e-08 1.9991e-07 2.43532e-08)
(9.21287e-08 6.06758e-07 -9.00994e-09)
(3.60534e-08 1.05758e-06 2.03346e-08)
(7.65323e-08 5.10098e-07 8.32113e-09)
(-2.33923e-09 4.38946e-11 1.00132e-07)
(-3.54187e-08 6.22378e-07 2.05028e-07)
(7.70951e-08 3.23126e-07 5.32636e-08)
(-0.00226623 0.000233034 -0.00329809)
(-2.95222e-07 -6.77928e-07 -3.4602e-08)
(-7.17499e-07 -5.4181e-07 -2.5881e-07)
(-2.14935e-07 -2.02777e-07 -7.27613e-08)
(-0.000671515 0.000325599 -0.00120883)
(-1.2801e-05 -6.51825e-06 -1.33643e-06)
(-1.06559e-06 -7.81894e-07 -3.9708e-07)
(-3.52354e-06 -1.99533e-06 -1.34471e-06)
(-0.0207576 -0.000814574 -0.0100202)
(-0.0153652 -0.000660647 -0.00888626)
(-9.0128e-10 -8.22671e-11 8.42967e-09)
(-4.20864e-09 -2.19416e-10 1.19672e-08)
(-9.63319e-09 -1.80773e-08 6.95312e-09)
(-1.29843e-08 -1.60055e-09 1.4224e-09)
(-1.61487e-08 -5.56598e-09 4.47371e-10)
(-6.68393e-09 -1.0281e-09 7.67285e-09)
(-1.25201e-08 -1.05275e-09 1.54552e-09)
(-1.17784e-08 -3.06762e-10 1.69571e-09)
(7.27508e-10 1.39823e-09 6.92908e-09)
(1.15849e-10 4.64085e-10 6.96734e-09)
(-8.17933e-10 -9.49993e-11 8.42518e-09)
(-1.26013e-09 -3.11472e-10 9.87745e-09)
(-6.09195e-10 -4.67318e-11 8.42403e-09)
(9.21345e-10 7.96321e-10 8.48022e-09)
(-5.98034e-10 -4.45621e-10 9.95623e-09)
(-1.3117e-10 1.60817e-10 8.44488e-09)
(3.5389e-08 -6.66579e-08 1.74065e-08)
(2.27296e-08 -1.2377e-08 1.26506e-08)
(1.87276e-08 -3.62091e-08 1.32642e-08)
(-9.83523e-09 -3.29117e-08 1.51051e-08)
(-2.66362e-09 -1.24233e-08 1.35241e-08)
(1.0198e-09 -2.7351e-08 1.29696e-08)
(1.03672e-08 -7.5247e-09 1.20027e-08)
(9.63617e-10 -9.31353e-09 1.30461e-08)
(7.30623e-09 -1.89075e-08 1.28826e-08)
(-4.13437e-09 -4.9276e-10 1.20152e-08)
(-2.32476e-09 -6.81285e-10 1.11662e-08)
(-3.89394e-09 -1.0207e-09 1.20999e-08)
(-9.18876e-09 -2.86035e-09 1.43533e-08)
(-4.63742e-09 -5.63029e-09 1.29716e-08)
(-5.46731e-09 -2.56055e-09 1.2676e-08)
(-1.59628e-09 -1.3016e-09 1.12987e-08)
(-1.91368e-09 -4.44225e-09 1.25647e-08)
(-3.29091e-09 -2.13269e-09 1.22752e-08)
(-0.00310099 0.000104429 -0.00251911)
(-0.00232764 0.000136561 -0.00163428)
(-0.00240855 0.000137186 -0.00219039)
(-0.00221048 0.000212338 -0.00310327)
(-0.00122344 0.000237458 -0.00169392)
(-0.00202055 0.00019287 -0.00232107)
(-0.0017147 0.00015078 -0.00137529)
(-0.0012664 0.000181308 -0.00149521)
(-0.00179664 0.000164209 -0.00184914)
(5.13768e-08 -1.39764e-07 2.35967e-08)
(5.37105e-08 -1.34905e-08 6.5353e-08)
(2.49771e-08 -2.00732e-07 6.7177e-08)
(-5.10366e-07 -1.88932e-06 -4.05574e-08)
(-1.04734e-06 -1.42293e-06 1.52244e-07)
(-1.85991e-07 -1.24106e-06 -2.41644e-10)
(-1.30763e-07 -3.03367e-07 1.40216e-07)
(-1.07717e-06 -5.14714e-07 6.24437e-07)
(-2.10446e-07 -6.20007e-07 1.32037e-07)
(-4.95121e-06 1.38663e-07 -4.18943e-06)
(-4.27188e-07 2.81883e-06 2.79452e-07)
(-5.10276e-06 2.86194e-06 5.56238e-07)
(-0.000304183 3.69858e-05 0.000157273)
(-0.000641096 8.38716e-05 -1.85514e-05)
(-0.000291518 5.24214e-05 -1.14958e-05)
(1.21412e-07 6.39512e-06 -2.90319e-05)
(-8.49194e-05 7.72189e-05 -0.0001714)
(-1.86241e-05 -2.64657e-05 -4.48188e-05)
(-6.89464e-05 4.52414e-05 -8.89071e-05)
(-1.25743e-05 -1.08515e-05 -1.96833e-05)
(-0.000652563 0.000104433 -0.000281146)
(-0.000328635 0.000103908 -0.000360507)
(-0.000301745 7.64283e-05 -0.000183499)
(-9.97816e-07 -3.68603e-07 2.0348e-07)
(-5.43302e-06 -2.77935e-06 1.02608e-06)
(-3.08665e-06 4.54232e-07 1.47283e-06)
(-0.00292943 0.000153466 -0.00066502)
(-0.00226875 0.000141385 -0.00109785)
(-0.00223325 0.00014839 -0.000572126)
(-0.00161589 0.000135803 0.00039349)
(-0.00107897 0.000112847 -2.78093e-05)
(-0.00160629 0.000136552 -4.04899e-05)
(-0.00165538 0.000143655 -0.000920652)
(-0.00109176 0.00012457 -0.000379982)
(-0.00162009 0.000139285 -0.000476833)
(-0.000588407 0.000309637 -0.00109976)
(-0.000996195 0.000248148 -0.0014784)
(-0.000420958 0.000241567 -0.000799351)
(-1.64878e-05 2.287e-05 8.34479e-08)
(-4.50686e-06 -6.29323e-06 -1.17973e-06)
(-8.69675e-06 1.40058e-06 7.6824e-07)
(-3.15331e-05 1.27912e-05 -0.000114416)
(-0.000111847 0.000113965 -0.000259492)
(-2.97283e-05 -4.23966e-05 -7.00381e-05)
(-0.00014526 0.000166333 -0.000335878)
(-4.2018e-05 -5.92468e-05 -8.95221e-05)
(-0.000813305 0.000189825 -0.00112007)
(-0.000373118 0.000136826 -0.000545744)
(-0.000449519 0.000175927 -0.000740236)
(-4.5058e-06 -6.06317e-06 8.4889e-08)
(-9.8501e-06 -4.30184e-06 1.12742e-06)
(-1.42329e-05 -2.84387e-06 2.55677e-06)
(-0.00225708 0.000296617 -0.00328041)
(-0.000677192 0.000398171 -0.00128203)
(-0.00310732 0.000203316 -0.00249185)
(-0.00232274 0.000221494 -0.00162277)
(-0.00240177 0.000239754 -0.00216952)
(-0.00219747 0.000302469 -0.00308066)
(-0.00120716 0.000310552 -0.00169709)
(-0.00201086 0.000260796 -0.00231031)
(-0.001699 0.000239338 -0.00137233)
(-0.00124178 0.000295832 -0.00149914)
(-0.0017789 0.000270918 -0.00183809)
(-0.000304819 -7.12249e-07 0.000150594)
(-0.000628035 8.91914e-05 -3.95674e-05)
(-0.000292026 5.66884e-05 -3.05972e-05)
(6.99017e-06 2.82713e-05 -3.89309e-05)
(-9.61978e-05 0.000129527 -0.000230876)
(-8.0695e-05 7.75153e-05 -0.000122908)
(-0.000636467 0.000141053 -0.000305442)
(-0.000322314 0.000184223 -0.000399844)
(-0.000298539 0.00011893 -0.000213218)
(-0.00294087 0.000183449 -0.000670152)
(-0.002266 0.00020034 -0.00109664)
(-0.00223238 0.000179543 -0.000580872)
(-0.00160931 0.000112306 0.000366462)
(-0.0010648 0.000116996 -4.97935e-05)
(-0.00159771 0.00014073 -6.07216e-05)
(-0.00164217 0.000205196 -0.000926145)
(-0.0010749 0.00015959 -0.000398289)
(-0.00160918 0.000171767 -0.000490029)
(-0.000616118 0.000403801 -0.00119571)
(-0.000981298 0.000321943 -0.00148916)
(-0.000419433 0.000320422 -0.000844365)
(-3.20497e-05 9.57874e-05 -0.000146548)
(-0.00012679 0.000181778 -0.000344847)
(-0.0001736 0.000229846 -0.000458552)
(-0.000791794 0.000307629 -0.00115204)
(-0.000366227 0.000249701 -0.000593924)
(-0.000436427 0.000311056 -0.000800704)
(-0.00570787 -9.25154e-05 -0.00559424)
(-0.00942586 -0.000362913 -0.00715685)
(-0.00387291 6.76084e-05 -0.00283661)
(-0.00464765 6.79292e-05 -0.00235866)
(-0.00472227 2.82972e-05 -0.00314321)
(-0.00565353 -8.91187e-05 -0.00528159)
(-0.006988 -9.65609e-05 -0.00451212)
(-0.0054901 -1.79548e-05 -0.00400376)
(-0.00557443 4.08025e-05 -0.00258376)
(-0.00664448 -5.35293e-05 -0.00372506)
(-0.00564691 -1.24127e-05 -0.00343929)
(-0.00870278 0.000341179 0.000856275)
(-0.00755302 0.000233805 -0.000139487)
(-0.00869463 0.000246171 -0.000152058)
(-0.011182 0.000156517 -0.00130518)
(-0.00993968 4.42819e-05 -0.00231602)
(-0.00991202 0.000152612 -0.00123553)
(-0.00756444 0.00015135 -0.00108732)
(-0.00873413 5.54528e-05 -0.00218262)
(-0.00870537 0.000151112 -0.00116291)
(-0.00370579 0.000155492 -0.000755302)
(-0.00459304 0.000111117 -0.00159564)
(-0.00455991 0.00015548 -0.00084272)
(-0.00548472 0.000268821 0.000699176)
(-0.00647956 0.000222433 -0.000126305)
(-0.00547663 0.000211386 -0.000112572)
(-0.00552138 9.70583e-05 -0.0017505)
(-0.00649163 0.000152638 -0.00100875)
(-0.00548932 0.000154263 -0.000927219)
(-0.00937252 -0.000340435 -0.00676169)
(-0.00752239 -0.000122296 -0.00467361)
(-0.00922845 -0.000198098 -0.00514695)
(-0.0113163 -0.000205458 -0.00476805)
(-0.00998663 -6.38652e-05 -0.00340633)
(-0.0100509 -0.000170897 -0.0045221)
(-0.00771261 -9.41845e-05 -0.00400071)
(-0.00878259 -3.98462e-05 -0.00321215)
(-0.00884889 -0.000133563 -0.00426635)
(-0.00572466 -3.71535e-05 -0.00556947)
(-0.00946297 -0.000313916 -0.00713334)
(-0.00389337 0.000163331 -0.00280516)
(-0.00468509 0.000144394 -0.00233478)
(-0.00475738 0.000120913 -0.0031092)
(-0.00567844 -1.07766e-05 -0.00524794)
(-0.00702559 -4.09238e-05 -0.00448994)
(-0.00551537 4.05268e-05 -0.00398169)
(-0.00562716 0.000114751 -0.00255861)
(-0.00670949 3.30445e-05 -0.00368957)
(-0.00569692 7.717e-05 -0.003404)
(-0.00879395 0.000323734 0.000830276)
(-0.00763495 0.000237186 -0.000152254)
(-0.00879111 0.000249411 -0.000166248)
(-0.0113129 0.000179091 -0.00131227)
(-0.0100569 8.87219e-05 -0.00230747)
(-0.0100278 0.000176081 -0.00123965)
(-0.0076496 0.00017663 -0.00108769)
(-0.00883575 0.000101579 -0.00217172)
(-0.00880586 0.000175482 -0.00116479)
(-0.00373093 0.000184504 -0.000757727)
(-0.00463229 0.000164146 -0.00158379)
(-0.00459955 0.000183533 -0.000843352)
(-0.00553533 0.000249536 0.000675468)
(-0.00654696 0.000225955 -0.000138332)
(-0.00552963 0.000215045 -0.000124543)
(-0.00557603 0.000148336 -0.0017375)
(-0.00656146 0.000178834 -0.0010084)
(-0.00554393 0.000181385 -0.000926937)
(-0.00942735 -0.000271099 -0.00672979)
(-0.0075643 -6.76937e-05 -0.00465164)
(-0.0092826 -0.000146296 -0.00512634)
(-0.0114408 -0.000130662 -0.00474037)
(-0.0101011 2.55962e-07 -0.00338563)
(-0.0101607 -9.31895e-05 -0.0044913)
(-0.00779261 -1.05886e-05 -0.00396594)
(-0.0088817 2.67e-05 -0.00318907)
(-0.00894383 -5.29222e-05 -0.00423317)
(-0.0207067 -0.000751171 -0.00947071)
(-0.0182097 -0.000434712 -0.00689669)
(-0.0206042 -0.000456014 -0.00723598)
(-0.0234338 -0.000304018 -0.00639379)
(-0.0216983 -0.000107058 -0.00469514)
(-0.0217472 -0.000314464 -0.00622287)
(-0.0185097 -0.000313159 -0.00585391)
(-0.0200543 -0.000121743 -0.00455907)
(-0.020105 -0.000317353 -0.00604295)
(-0.0125129 0.000163468 -0.00137188)
(-0.0139266 2.85109e-05 -0.00268491)
(-0.0139023 0.000174088 -0.00143564)
(-0.0153497 0.000501337 0.00108533)
(-0.0168408 0.000376917 -0.00021308)
(-0.0153407 0.000345377 -0.000204671)
(-0.0153711 3.12939e-05 -0.00279757)
(-0.0168472 0.000208702 -0.00155445)
(-0.0153478 0.000188975 -0.00149649)
(-0.0153131 -0.000614536 -0.00839843)
(-0.0174364 -0.000424425 -0.00677972)
(-0.0151926 -0.000383731 -0.00640782)
(-0.0126426 -0.000236549 -0.0050043)
(-0.0139691 -0.000117377 -0.00394407)
(-0.0140275 -0.000263496 -0.00523091)
(-0.0169634 -0.000302409 -0.00565562)
(-0.0154121 -0.000126851 -0.00410859)
(-0.0154685 -0.000285657 -0.00544799)
(-0.0233351 0.00034648 -0.00175825)
(-0.021663 9.80861e-05 -0.00319822)
(-0.0216441 0.000302244 -0.00171142)
(-0.0200022 0.00064677 0.00120479)
(-0.0183922 0.000413656 -0.000220797)
(-0.0199927 0.000456101 -0.000227836)
(-0.0200176 7.19845e-05 -0.00310543)
(-0.0183979 0.000233818 -0.00160957)
(-0.0199977 0.000264839 -0.00166188)
(-0.0208382 -0.000779538 -0.0100125)
(-0.0154274 -0.000619615 -0.00886974)
(-0.0208255 -0.000701582 -0.00946198)
(-0.0183154 -0.000395037 -0.00689218)
(-0.020721 -0.000418958 -0.00723721)
(-0.0236686 -0.00025161 -0.00641381)
(-0.0219291 -6.16103e-05 -0.00471799)
(-0.0219691 -0.00025936 -0.00623504)
(-0.0187049 -0.000252565 -0.0058518)
(-0.0202714 -7.40414e-05 -0.00457441)
(-0.0203137 -0.00025952 -0.00604774)
(-0.0126588 0.000185157 -0.00138262)
(-0.0140898 6.79744e-05 -0.0026878)
(-0.0140631 0.000194901 -0.00145071)
(-0.0155077 0.000486897 0.00104392)
(-0.0170225 0.000379364 -0.000249336)
(-0.0155086 0.000347949 -0.000235746)
(-0.0155492 6.91264e-05 -0.00280565)
(-0.0170372 0.000227789 -0.00158006)
(-0.0155234 0.00020892 -0.00151653)
(-0.015405 -0.000556471 -0.00837671)
(-0.0175382 -0.000383779 -0.00677345)
(-0.015283 -0.000340415 -0.00639675)
(-0.0127816 -0.000164641 -0.00498043)
(-0.0141288 -6.04175e-05 -0.00393492)
(-0.0141809 -0.000194453 -0.00521155)
(-0.0171449 -0.000239023 -0.00564718)
(-0.0155865 -7.22388e-05 -0.00410466)
(-0.0156361 -0.000219456 -0.00543378)
(-0.0235806 0.000362227 -0.00181153)
(-0.0218987 0.00012956 -0.00323296)
(-0.0218762 0.000318811 -0.00175706)
(-0.0201986 0.000634107 0.00114773)
(-0.0185875 0.000415983 -0.000262777)
(-0.0202014 0.000458308 -0.000276048)
(-0.0202393 0.00010502 -0.0031327)
(-0.0186022 0.000252056 -0.00164133)
(-0.020216 0.000282236 -0.00170032)
(-1.95184e-08 -1.25641e-10 1.80228e-08)
(-1.83309e-08 -2.77954e-10 2.07668e-08)
(-6.37363e-09 -5.15032e-11 7.53051e-09)
(-8.0168e-09 -6.13686e-11 6.80248e-09)
(-1.81719e-08 -2.07668e-10 2.06526e-08)
(-1.95806e-08 -2.25847e-10 1.80243e-08)
(-7.95448e-09 -3.53443e-11 6.78267e-09)
(-0.00323518 0.000133974 -0.00409962)
(-1.90964e-07 -3.55632e-07 2.32715e-08)
(-5.08139e-08 -1.09988e-07 -2.8273e-09)
(-1.09834e-07 -3.32118e-07 2.53616e-08)
(-6.41973e-08 -1.98145e-07 -4.51145e-09)
(-1.19383e-07 -2.52082e-07 1.69216e-08)
(-1.75635e-07 -4.55104e-07 4.28717e-08)
(-7.88332e-08 -1.57371e-07 -7.74416e-09)
(-5.47778e-05 -1.84379e-05 1.17262e-05)
(-0.000197367 2.56611e-05 -0.000394164)
(-4.3965e-05 -3.96324e-05 -3.63397e-05)
(-0.000100241 2.10761e-06 -6.20017e-05)
(-9.67688e-05 -4.80017e-05 -9.58584e-05)
(-0.000163034 2.02091e-05 -0.000112535)
(-7.43905e-05 -1.7237e-05 -2.52688e-05)
(-0.0232478 -0.00085234 -0.0104511)
(-0.0132523 -0.00057135 -0.00834421)
(-6.07623e-08 -1.12915e-07 1.93751e-08)
(-3.59475e-08 -7.19726e-08 7.45406e-10)
(-7.73774e-08 -2.12025e-07 3.14313e-08)
(-1.93291e-08 -6.40029e-08 3.84293e-09)
(-8.72259e-08 -1.63361e-07 2.09781e-08)
(-5.373e-08 -1.49144e-07 2.5711e-08)
(-2.52601e-08 -4.94711e-08 2.9657e-09)
(-1.98733e-08 -5.17624e-10 1.82134e-08)
(-1.84095e-08 -4.5637e-10 2.0829e-08)
(-8.05764e-09 -1.07504e-10 6.82254e-09)
(-6.50526e-09 -2.51877e-10 7.60661e-09)
(-1.97019e-08 -3.00649e-10 1.81026e-08)
(-1.85247e-08 -6.68607e-10 2.09052e-08)
(-8.10388e-09 -1.77488e-10 6.84409e-09)
(-0.00310646 5.49104e-05 -0.00355467)
(-0.00352678 3.01951e-05 -0.00406958)
(-0.00347959 9.53594e-05 -0.00376246)
(-0.00317992 0.000121019 -0.00386451)
(-0.00316595 6.17725e-05 -0.00382623)
(-0.00311484 0.000125147 -0.0035353)
(-0.00346758 2.63491e-05 -0.00378266)
(-0.00323444 0.000194844 -0.00407788)
(-0.000278724 0.000123142 -0.000504397)
(-0.00310567 0.000271108 -0.00348275)
(-0.00348345 0.000171027 -0.00373577)
(-0.00353532 0.000230454 -0.00399641)
(-0.00317913 0.000207174 -0.00383556)
(-0.00311473 0.000201974 -0.00351)
(-0.00316433 0.000265118 -0.00375626)
(-0.00347821 0.000239247 -0.00370694)
(-0.000169383 0.000216697 -0.00039912)
(-0.000183858 0.000140705 -0.0003634)
(-5.43613e-05 3.41718e-05 -0.000107328)
(-0.000106258 0.000107851 -0.000168158)
(-0.000161629 0.000127209 -0.00032391)
(-0.000210887 0.000208774 -0.000454232)
(-7.95683e-05 0.000108871 -0.00013787)
(-0.00438468 2.34894e-05 -0.00486502)
(-0.0112698 -0.000471301 -0.00776786)
(-0.00424878 -3.3378e-05 -0.00422663)
(-0.00390737 -2.34616e-06 -0.00430878)
(-0.00386399 6.46514e-05 -0.0039856)
(-0.00432992 1.86531e-05 -0.00459047)
(-0.00384834 -3.10638e-06 -0.00400642)
(-0.00430757 -3.56639e-05 -0.00454407)
(-0.00426812 3.31874e-05 -0.00420544)
(-0.0111013 -0.000432715 -0.00675611)
(-0.0112169 -0.0004408 -0.0073401)
(-0.0118013 -0.000504812 -0.00743407)
(-0.0118152 -0.000409574 -0.00691259)
(-0.0111581 -0.000474581 -0.007252)
(-0.0111682 -0.000381175 -0.00674143)
(-0.0117448 -0.000459998 -0.00692605)
(-0.00439267 8.16104e-05 -0.00484114)
(-0.0113155 -0.000424987 -0.00774607)
(-0.00428281 0.000172878 -0.00414559)
(-0.00387204 0.000139121 -0.00395781)
(-0.00392622 0.000194813 -0.00423307)
(-0.00434189 0.000100909 -0.00455822)
(-0.00387069 0.000206436 -0.00392774)
(-0.00428025 0.000106496 -0.00417678)
(-0.00433674 0.000158404 -0.00446636)
(-0.011288 -0.000268478 -0.00668274)
(-0.0112843 -0.000375263 -0.0073107)
(-0.0118855 -0.00035231 -0.00688759)
(-0.0119744 -0.000353192 -0.00736599)
(-0.0112345 -0.000322807 -0.00671541)
(-0.0113211 -0.000319994 -0.0071814)
(-0.0119428 -0.0002989 -0.00685553)
(-0.0230433 -0.000705841 -0.00906898)
(-0.0231973 -0.000781889 -0.00987805)
(-0.0239472 -0.000797005 -0.00985932)
(-0.0240168 -0.000674651 -0.00920142)
(-0.0230975 -0.000792312 -0.00973386)
(-0.0231638 -0.00067149 -0.00908234)
(-0.0238932 -0.000707983 -0.00918575)
(-0.0130766 -0.000511517 -0.00725543)
(-0.0131998 -0.000532966 -0.00788559)
(-0.0124597 -0.00053404 -0.00761243)
(-0.0124772 -0.000436969 -0.00708016)
(-0.0131329 -0.00056218 -0.00778718)
(-0.0124032 -0.000486276 -0.00709237)
(-0.0131541 -0.000463301 -0.0072446)
(-0.0233358 -0.000819807 -0.0104481)
(-0.0133063 -0.000527692 -0.00832476)
(-0.0234024 -0.000590464 -0.00907077)
(-0.0233272 -0.000735842 -0.00987602)
(-0.0241478 -0.000634672 -0.00920438)
(-0.0242697 -0.00069118 -0.00986073)
(-0.0232914 -0.000630487 -0.00908301)
(-0.0234114 -0.000683735 -0.00972956)
(-0.0242621 -0.000595517 -0.00919403)
(-0.0132973 -0.000356689 -0.00719141)
(-0.0132795 -0.000471184 -0.0078596)
(-0.0125516 -0.000380834 -0.00705626)
(-0.0126427 -0.000385376 -0.00754711)
(-0.0126127 -0.000328332 -0.00702497)
(-0.0132325 -0.000408271 -0.00722191)
(-0.0133257 -0.000416463 -0.00772485)
(-0.0248073 -0.00079952 -0.00998138)
(-0.0248801 -0.000675642 -0.00931724)
(-0.0247534 -0.000707962 -0.00929925)
(-0.0250146 -0.00063671 -0.00932256)
(-0.0251384 -0.000696427 -0.00998865)
(-0.0251322 -0.000598416 -0.00931417)
(-0.00172222 0.000287887 -0.00274337)
(-1.56769e-06 -2.26791e-06 -8.01096e-08)
(-1.04541e-06 -1.40272e-06 -4.32849e-08)
(-3.29065e-06 -2.79388e-06 4.115e-07)
(-1.28606e-06 -1.23148e-06 -1.83e-07)
(-2.91929e-06 -2.43829e-06 5.77022e-08)
(-2.14884e-06 -3.18712e-06 -2.06005e-07)
(-7.84228e-07 -9.80025e-07 -9.79958e-08)
(-0.00104821 0.000338144 -0.00186768)
(-6.74367e-06 -4.14658e-06 7.42052e-08)
(-2.74717e-06 -2.70435e-06 -7.07134e-07)
(-3.90848e-06 -5.88817e-06 -2.01656e-06)
(-1.66229e-06 -1.66163e-06 -2.96438e-07)
(-3.05566e-06 -4.06518e-06 -6.46204e-07)
(-7.09345e-06 -2.43195e-06 -6.16512e-07)
(-2.58093e-06 -2.15281e-06 -4.47758e-07)
(-0.0191548 -0.000779411 -0.00971466)
(-0.0168423 -0.000713066 -0.00922879)
(-2.51857e-08 -1.44645e-08 1.9218e-08)
(-7.84179e-09 -7.96206e-09 7.49461e-09)
(-2.12958e-08 -1.30022e-08 2.2276e-08)
(-9.5358e-09 -4.18045e-09 6.78883e-09)
(-2.34103e-08 -9.61319e-09 1.8979e-08)
(-2.26908e-08 -1.91872e-08 2.26354e-08)
(-1.0235e-08 -6.26548e-09 6.65709e-09)
(-2.15258e-08 -4.24693e-09 1.8752e-08)
(-6.91191e-09 -2.39165e-09 7.67611e-09)
(-2.05632e-08 -8.47618e-09 2.19858e-08)
(-9.10655e-09 -2.71346e-09 6.86855e-09)
(-2.23357e-08 -6.37378e-09 1.8865e-08)
(-1.98216e-08 -5.74728e-09 2.16936e-08)
(-8.7511e-09 -1.8131e-09 6.89974e-09)
(-0.0016033 0.000172653 -0.00235233)
(-0.00166598 0.000262613 -0.00257487)
(-0.0014225 0.000213272 -0.00227126)
(-0.00134976 0.000268359 -0.00208773)
(-0.00166455 0.000194458 -0.0025455)
(-0.00135992 0.000189456 -0.00209243)
(-0.00159454 0.00025077 -0.00234231)
(-0.0009214 0.000209475 -0.00154208)
(-0.000986494 0.000309942 -0.0017271)
(-0.00120057 0.000225571 -0.00199584)
(-0.00112379 0.000282688 -0.00183073)