/*--------------------------------*- C++ -*----------------------------------*\
| =========                 |                                                 |
| \\      /  F ield         | OpenFOAM: The Open Source CFD Toolbox           |
|  \\    /   O peration     | Version:  2012                                  |
|   \\  /    A nd           | Website:  www.openfoam.com                      |
|    \\/     M anipulation  |                                                 |
\*---------------------------------------------------------------------------*/
FoamFile
{
    version     2.0;
    format      ascii;
    class       volScalarField;
    location    "0.105/fluid";
    object      p;
}
// * * * * * * * * * * * * * * * * * * * * * * * * * * * * * * * * * * * * * //

dimensions      [0 2 -2 0 0 0 0];


internalField   nonuniform List<scalar> 
16421
(
-0.0688997
-0.0696725
-0.0695479
-0.0696512
-0.0694865
-0.0691602
-0.0686286
-0.0676823
-0.0659331
-0.0625126
-0.0553287
-0.038498
0.00750511
0.149415
0.364682
-0.0690771
-0.0697198
-0.0695797
-0.0696919
-0.0695564
-0.069284
-0.0688531
-0.0681116
-0.0667902
-0.064313
-0.0594533
-0.04936
-0.0274839
0.0121274
-0.0903003
-0.0691713
-0.0697894
-0.0696448
-0.0697796
-0.0697059
-0.069551
-0.0693276
-0.0689799
-0.0684091
-0.0674606
-0.0658713
-0.0631029
-0.0574815
-0.0412102
-0.0216535
-0.0692544
-0.0698578
-0.0697186
-0.0698907
-0.0699009
-0.0698934
-0.069911
-0.0699852
-0.0701585
-0.0705602
-0.0714186
-0.0729157
-0.0733939
-0.0587999
0.00103398
-0.0690506
-0.069683
-0.0695529
-0.0696607
-0.0695086
-0.0692044
-0.0687081
-0.0678465
-0.0662791
-0.0632761
-0.0572195
-0.0441082
-0.013672
0.0554848
0.200711
-0.0692251
-0.0697276
-0.0695844
-0.0696996
-0.0695742
-0.0693239
-0.0689277
-0.0682649
-0.0671014
-0.0649924
-0.0610936
-0.0538323
-0.0413321
-0.032489
-0.0893262
-0.0693167
-0.0697971
-0.069647
-0.0697845
-0.0697179
-0.0695801
-0.0693871
-0.0690994
-0.0686568
-0.068007
-0.0672058
-0.066729
-0.0683128
-0.0782723
-0.106368
-0.0694001
-0.0698656
-0.069719
-0.0698922
-0.0699047
-0.069906
-0.0699481
-0.0700644
-0.070333
-0.070961
-0.0724695
-0.0760344
-0.0839085
-0.101841
-0.158435
-0.0690775
-0.0696987
-0.0695608
-0.0696719
-0.0695397
-0.0692687
-0.0688412
-0.0681217
-0.0668489
-0.0644707
-0.0597848
-0.0498064
-0.0260229
0.0388112
0.206037
-0.0692529
-0.0697403
-0.0695897
-0.0697092
-0.0695993
-0.0693805
-0.0690448
-0.0685043
-0.0675949
-0.0660277
-0.0633022
-0.0585918
-0.0510461
-0.043932
-0.071668
-0.0693454
-0.069809
-0.069649
-0.0697871
-0.0697307
-0.0696155
-0.0694665
-0.0692676
-0.0690129
-0.068778
-0.0689268
-0.070726
-0.0779497
-0.0976269
-0.123725
-0.0694289
-0.0698759
-0.0697169
-0.0698862
-0.0699014
-0.0699139
-0.0699802
-0.0701466
-0.0705303
-0.0714473
-0.0737308
-0.0795868
-0.0951267
-0.139316
-0.286439
0.283363
0.0316178
-0.056312
0.0658018
0.162612
-0.0181971
-0.0325296
-0.091027
0.188554
-0.0679481
-0.339801
-0.0207295
-0.0868399
-0.278751
-0.133953
-0.241595
-0.0084799
-0.142441
-0.230399
-0.158184
-0.31434
-0.144001
-0.236133
-0.0701227
-0.250416
0.207713
-0.0572091
-0.253034
-0.225049
-0.260359
-0.196846
-0.0543882
-0.234546
-0.189781
-0.221201
0.235107
0.171448
0.104379
0.177736
0.0498415
-0.0329946
-0.0249707
-0.0329777
-0.0576553
-0.0744027
-0.109326
-0.234334
-0.0258295
-0.0932947
-0.250158
-0.0783732
-0.0303543
-0.0549874
-0.0292333
-0.0832955
-0.119193
-0.0976919
-0.132301
-0.255181
-0.0227417
-0.0904415
-0.247773
-0.0921905
-0.0226248
-0.0995491
-0.125482
-0.0687346
-0.234365
-0.097688
-0.146605
-0.207103
-0.137489
-0.130175
-0.223019
-0.251252
-0.134868
-0.133638
-0.212848
-0.186057
-0.198393
-0.232046
-0.101251
-0.229138
-0.221264
-0.230358
-0.341882
-0.317331
-0.38124
0.125289
0.284407
0.949702
0.142828
0.20735
0.326472
0.179352
-0.419262
-0.839523
0.284613
-0.36705
-2.98114
-0.116986
-0.0350319
-0.285341
-0.488697
-0.409989
-0.645616
-0.360569
-0.313881
0.251054
-0.822389
-0.819982
-0.21355
0.240445
-0.295334
-0.385309
-0.323055
-0.329165
-0.238833
-0.0210969
-0.0866045
-0.0836652
-0.246386
-0.297093
-0.293636
-0.318116
-0.298364
-0.307131
-0.291118
-0.299091
-0.294638
-0.253461
-0.0229034
-0.0844832
-0.09316
-0.255346
-0.306193
-0.358216
-0.291998
-0.332121
-0.329475
-0.312984
-0.111764
-0.176045
-0.146517
-0.262797
-0.254411
-0.230191
-0.128097
0.248085
-0.808499
-0.17646
-0.784943
0.252993
-0.123218
0.255294
-0.762115
-0.779313
-0.108688
0.252386
-0.247275
-0.214765
-0.2875
-0.220865
-0.30792
-0.260243
-0.208891
-0.340093
-0.294564
-0.100172
0.255431
-0.758724
-0.106638
-0.742823
0.257661
-0.0974881
-0.739724
0.257988
-0.350359
-0.168088
-0.385732
-0.158058
-0.391724
-0.0912654
0.20111
0.17462
0.033895
0.16164
-0.0217804
-0.0448359
0.041094
0.159653
-0.0337849
-0.0402378
0.0657348
0.210328
0.050838
0.208463
0.041203
0.0667291
0.217036
-0.189458
-0.0992527
-0.101937
-0.0788685
-0.189313
-0.123642
-0.14154
0.157863
-0.0348758
-0.0385996
0.064153
0.219849
0.0551953
0.206638
0.0619511
0.0563132
0.221584
-0.170074
-0.107905
-0.106882
0.102906
0.407472
0.437449
0.228057
0.25666
0.371692
0.267139
-0.0239445
-0.0132084
-0.0127205
-0.0650221
-0.0802989
-0.0299712
0.141528
-0.579279
-0.462242
-0.511093
-0.554079
0.0808005
0.228713
0.211269
0.0717599
0.0684651
0.0501526
0.177807
0.000489253
-0.224366
-0.592588
-0.239774
-0.575
-0.127477
-0.248566
-0.512208
-0.469861
-0.420815
-0.551383
-0.452845
-0.322054
-0.329758
-0.446873
-0.445202
-0.320565
-0.31773
-0.446092
-0.478491
-0.382738
-0.343501
-0.518791
-0.640521
-0.393535
-0.500101
-0.53
-0.176741
-0.565711
-0.167439
-0.276109
-0.175153
-0.553326
-0.17327
0.0526927
0.201664
0.219497
0.0591842
0.0486638
0.0633569
0.216352
-0.170826
-0.244711
-0.530803
-0.158616
-0.541154
-0.15851
-0.164281
-0.156517
-0.523754
-0.147383
-0.23868
-0.158947
-0.514127
-0.149409
0.22227
-0.508526
-0.0543894
0.116644
0.0156319
0.0316046
-0.0763071
-0.603973
-5.21414
0.137085
-2.54574
-0.284362
-0.563541
-0.247188
-0.800859
-0.152813
-0.181822
-0.399031
-0.173071
-0.352108
-0.0854153
-0.127342
-0.326715
-0.0739928
-0.342528
-0.118478
-0.0815103
-0.109884
-0.0698656
-0.318686
-0.109202
-0.319533
-0.0708286
-0.110859
-0.322651
-0.071511
-0.319856
-0.111525
-0.0711514
-0.0598629
-0.0504522
-0.324015
-0.0905932
-0.283063
-0.0149275
-0.232273
0.00126381
0.26211
0.524149
-0.246527
0.674046
0.227245
0.111459
0.583264
-0.207059
0.190292
0.0466056
-0.69413
-0.885039
-0.569864
-0.799484
-0.593019
-0.807202
-0.47224
-0.789783
-0.375541
-0.540423
-0.135975
-0.499652
-0.295626
0.0442587
0.245164
0.0940195
-0.227753
-0.358951
-1.90411
-1.31618
-4.9938
0.615491
-1.01991
-1.01841
-0.220881
-0.413096
-0.41237
-0.321873
-0.501814
-1.26313
-0.42009
-0.45391
-1.1315
-0.700513
-1.62697
-0.589116
-0.680922
-0.574981
-0.54054
-0.59408
-0.472589
-0.546483
-0.574159
-0.594582
-0.486889
-0.546699
-0.708802
-0.197846
0.124213
0.254741
0.136467
-0.217784
-0.653961
-0.830983
-0.460711
-0.437267
-0.687564
-0.699858
-0.53022
-0.816178
-0.893768
-0.40882
-0.239155
-0.0139489
0.257112
-0.318803
0.128399
-0.518529
-0.45868
-0.407594
-0.568844
-0.508669
-0.353543
-0.394224
-0.47599
-0.51802
-0.388269
-0.401547
-0.496186
-0.10903
-0.0693657
-0.318503
-0.108664
-0.319754
-0.0695753
-0.110566
-0.324525
-0.0726868
-0.113265
-0.320607
-0.0698279
-0.45528
-0.3466
-0.469502
-0.332792
-0.481621
-0.381367
-0.382846
-0.477254
-0.482761
-0.386598
-0.492284
-0.383432
-0.476425
-0.381527
-0.382372
-0.47689
-0.44628
-0.321033
-0.317765
-0.451814
-0.477501
-0.386966
-0.383039
-0.483038
-0.110464
-0.0556911
-0.328153
-0.10318
-0.329307
-0.06801
-0.112666
-0.324028
-0.0720904
-0.112812
-0.328826
-0.0697425
-0.471707
-0.322938
-0.454544
-0.337478
-0.50892
-0.40499
-0.39787
-0.5437
-0.502264
-0.388468
-0.486162
-0.396364
-0.528689
-0.274303
-0.484761
-0.653806
-0.403382
-0.391899
-0.555137
-0.657221
-0.55141
-0.498184
-0.653894
-0.372728
-0.434099
-0.449848
-0.440455
-0.440707
-0.439912
-0.46416
-0.43828
-0.293776
-0.446155
-0.212406
0.117866
0.249864
0.135519
-0.235864
-0.671662
-0.446384
-0.792022
-0.705197
-0.415389
-0.663177
-0.420545
-0.792881
-0.419186
-0.664219
-0.2036
0.137672
0.251816
0.13941
-0.204844
-0.195941
0.142254
0.254186
0.14125
-0.194619
-0.651142
-0.769141
-0.401995
-0.404993
-0.647581
-0.652455
-0.415048
-0.769952
-0.665392
-0.404297
-0.197844
0.136723
0.253509
-0.206774
0.140526
-0.476791
-0.404925
-0.357373
-0.503152
-0.448515
-0.43709
-0.464989
-0.294109
-0.337419
-0.444876
-0.456923
-0.473595
-0.537214
-0.415996
-0.509072
-0.468817
-0.500708
-0.26614
-0.284871
-0.516488
-0.493788
-0.304988
-0.476358
-0.290204
-0.548111
-0.541258
-0.488676
-0.575398
-0.188675
0.142769
0.256297
0.144469
-0.194085
-0.638573
-0.398384
-0.7515
-0.646679
-0.392471
-0.637585
-0.387567
-0.749929
-0.392188
-0.632058
-0.187634
0.146159
0.256608
0.144696
-0.184663
-0.385172
-0.630959
0.146812
-0.183575
-0.614324
-0.67172
-0.625396
-0.632843
-0.532019
-0.258853
-0.23521
-0.519813
-0.606677
-0.555161
-0.608368
-0.582529
-0.535517
-0.198124
-0.226506
-0.54221
-0.684367
-0.63681
-0.187752
-0.542448
0.325347
0.337698
0.362277
0.300337
0.282269
-0.329529
-0.407518
-0.261012
-0.258485
-0.31575
-0.352885
-0.141934
-1.21861
0.481406
-0.261968
0.0211825
-0.561495
-0.554214
-0.621321
-0.457046
-0.445307
-0.620545
-0.313079
-0.289016
-0.575303
-0.462177
-0.490012
-0.626007
-0.488268
-0.358073
-0.360748
-0.483151
-0.261879
-0.264397
-0.480176
-0.357111
-0.354486
-0.483182
-0.537876
-0.418259
-0.393352
-0.561723
-0.314631
-0.288865
-0.616502
-0.423609
-0.461726
-0.574528
-0.275415
-0.55605
-0.35793
-0.467279
-0.216193
-0.411619
-0.417972
-0.210608
-0.286396
-0.289078
-0.203343
-0.405827
-0.202233
-0.405459
-0.205172
-0.410835
-0.408687
-0.204668
-0.260478
-0.256409
-0.179094
-0.412931
-0.193284
-0.404709
-0.42675
-0.441467
0.0759318
-0.168529
-0.0135828
-0.154658
-0.418306
-0.594707
-0.573752
-0.408539
-0.627015
-0.75019
-0.553749
-0.580545
-0.749984
-0.397581
-0.331357
0.176177
-0.155474
-0.508684
0.0915446
-0.130991
-0.345776
-0.031458
-0.0617157
-0.313108
0.0539015
-0.262856
-0.365558
-0.667608
-0.556506
-0.479484
-0.782052
-0.518113
-0.380926
-0.382262
-0.5055
-0.634537
-0.420633
-0.427297
-0.623433
-0.203069
-0.405528
-0.20214
-0.406753
-0.206995
-0.412718
-0.209259
-0.409175
-0.499021
-0.380043
-0.509932
-0.374498
-0.627736
-0.41425
-0.415412
-0.623464
-0.625265
-0.422312
-0.634351
-0.417954
-0.284145
-0.278316
-0.622613
-0.414704
-0.413861
-0.625475
-0.483767
-0.357695
-0.353795
-0.486002
-0.628657
-0.419949
-0.417228
-0.632316
-0.203427
-0.418292
-0.195089
-0.418689
-0.207178
-0.410983
-0.205392
-0.413844
-0.493059
-0.357778
-0.487563
-0.363041
-0.669767
-0.434484
-0.431439
-0.682898
-0.639618
-0.420457
-0.633258
-0.423537
-0.260014
-0.265488
-0.699934
-0.42973
-0.42715
-0.676273
-0.353197
-0.0977017
-0.266005
-0.0236785
-0.00616785
-0.256366
-0.352093
-0.363056
-0.0864195
-0.0651836
-0.285603
-0.00928558
-0.38357
-0.2472
-0.344963
-0.258034
-0.107332
-0.0248642
-0.352352
-0.014196
-0.249395
-0.343211
-0.105379
-0.0131781
-0.247737
-0.012056
-0.247728
-0.340291
-0.332581
-0.101511
-0.236403
-0.00690419
-0.0083827
-0.238619
-0.328666
-0.33373
-0.102512
-0.0121133
-0.24395
-0.00902542
-0.338609
-0.240492
-0.232875
-0.00511902
-0.326988
0.398304
0.343643
-0.371494
-0.419152
-0.257938
-0.25766
-0.42004
-0.357435
0.338304
0.371939
0.438078
0.430748
0.391273
0.412664
0.368805
-0.614985
-0.528893
-0.472923
-0.63615
-0.647549
-0.69334
-0.641985
-0.702682
-0.638678
-0.638283
-0.640951
-0.689378
-0.401856
-0.336011
-0.593015
-0.69833
-0.644912
-0.633983
-0.596166
-0.452863
-0.501595
-0.581291
-0.608358
-0.599012
-0.627307
-0.598867
-0.486796
-0.366946
-0.361658
-0.494161
-0.504019
-0.545872
-0.498134
-0.551918
-0.50214
-0.555892
-0.508857
-0.548693
-0.270507
-0.265388
-0.495915
-0.547048
-0.498263
-0.544206
-0.481522
-0.354206
-0.353955
-0.480141
-0.497481
-0.544741
-0.546482
-0.495465
-0.528036
-0.375044
-0.390702
-0.512064
-0.555671
-0.628452
-0.577915
-0.602771
-0.544934
-0.580028
-0.528945
-0.596808
-0.27412
-0.289839
-0.633567
-0.63411
-0.592072
-0.677658
-0.638649
-0.544628
-0.474634
-0.706361
-0.654585
-0.748176
-0.683981
-0.719352
1.48265
0.661056
-0.154688
1.64376
2.67563
-2.23638
13.5119
-0.120876
2.28959
2.04523
2.60818
-1.38179
-1.22753
-1.58483
-1.60024
-1.44621
-1.56489
-0.266729
-0.426856
-0.235225
-0.45729
-0.218809
-0.426023
-0.230769
-0.417401
-0.336243
-0.29608
-0.203207
-0.406501
-0.202881
-0.40586
-0.204827
-0.406867
-0.202958
-0.40836
-0.256709
-0.257382
-0.173398
-0.363733
-0.138214
-0.393012
-0.337536
-0.123474
-0.449189
-1.68427
-1.66795
-1.69586
-1.67472
-1.68973
-1.69974
-1.69775
0.417989
0.739549
0.478368
0.528557
0.521071
0.442632
0.465102
0.257074
0.121099
-0.307155
0.0682263
0.247837
0.237029
0.216373
0.187291
0.223374
-1.2863
-0.769931
-0.67201
-1.2251
-0.63828
-1.29526
-1.35853
-1.18532
-1.28101
-1.22443
-0.808912
-0.782107
-0.767949
-1.20363
-1.31184
-1.54659
-1.55382
-1.30891
-1.31019
-1.422
-1.52397
-1.27179
-1.22023
-0.727501
-0.814313
-0.78487
-1.21985
0.372129
0.0927019
-0.201571
0.139379
0.240159
0.367941
0.301552
0.323144
0.322724
0.452553
-0.130689
0.115533
0.191415
0.36297
0.316591
0.242121
0.20018
0.295501
3.91435
-4.49891
29.3911
-1.84294
-1.90417
-4.81641
-3.10899
-0.676827
-2.044
-2.6019
-1.14193
-2.02707
-7.65445
-1.77981
-0.68864
-0.592813
-0.76603
-0.611803
-0.627108
-0.893155
-1.68531
-1.11035
-1.06109
-0.605514
-0.68036
-0.657892
-0.681616
-0.733389
-0.712399
-0.721585
-0.734827
-0.70971
-0.534202
-0.560167
-0.590983
-0.701132
-0.648246
-0.707397
-0.605967
-0.601331
-0.553933
-0.65309
-0.573725
0.278506
0.105301
-0.169419
0.118963
0.25552
0.245971
0.246254
0.236489
0.24968
0.275042
-0.191639
0.0969343
0.104658
0.264168
0.248347
0.248683
0.233246
0.249765
-1.21503
-0.744786
-0.634706
-1.21352
-0.742526
-1.33101
-1.6515
-1.70889
-1.30923
-1.32729
-1.73743
-1.32492
-1.73099
-1.22202
-0.666352
-0.75638
-0.758108
-1.20438
-1.18378
-0.741605
-0.7576
-0.758641
-1.20819
-1.29989
-1.54105
-1.31056
-1.56811
-1.20802
-0.800912
-0.842382
-1.23137
-0.807672
-1.28524
-1.7143
-1.31707
-1.60471
0.251004
-0.293262
0.0680998
0.0658934
0.238717
0.239022
0.274843
0.234268
0.260484
0.24662
-0.339018
-0.0142431
0.239993
0.0414562
0.237838
0.248181
0.22446
0.25842
-0.490528
-1.70402
-1.76829
-1.81531
-1.79215
-1.57315
-1.60539
-1.78106
-1.65687
-0.663831
-0.719725
-0.646496
-0.761488
-0.655519
-0.436856
-0.471405
-0.610434
-0.650679
-0.600296
-0.634111
-0.601947
-0.517203
-0.420771
-0.564905
-0.38671
-0.537002
-0.563292
-0.58039
-0.521956
-0.536531
-0.601208
-0.58416
-0.575554
-0.621386
-0.436975
-0.425759
-0.627734
-0.618832
-0.575643
-0.592599
-0.606598
-0.607121
-0.60676
-0.614261
-0.587305
-0.203458
-0.408263
-0.203544
-0.406422
-0.205988
-0.407709
-0.204027
-0.410045
-0.502959
-0.368354
-0.492812
-0.373776
-0.514633
-0.569344
-0.525354
-0.557581
-0.518268
-0.553184
-0.507723
-0.563165
-0.608081
-0.561507
-0.567322
-0.603146
-0.62466
-0.417416
-0.414952
-0.631059
-0.604808
-0.570818
-0.564061
-0.611232
-0.606791
-0.582302
-0.616353
-0.571362
-0.632738
-0.416624
-0.419136
-0.626794
-0.61371
-0.567764
-0.577225
-0.607153
-0.272002
-0.277063
-0.602491
-0.562905
-0.560146
-0.60519
-0.624575
-0.41523
-0.414361
-0.624307
-0.604646
-0.560793
-0.562586
-0.60375
-0.481426
-0.353328
-0.480483
-0.354003
-0.500243
-0.552337
-0.550438
-0.501743
-0.497562
-0.546111
-0.495988
-0.547418
-0.627517
-0.415618
-0.416859
-0.625745
-0.608544
-0.56854
-0.566738
-0.611715
-0.607098
-0.562511
-0.605171
-0.563869
-0.204346
-0.417538
-0.205946
-0.420739
-0.207642
-0.417931
-0.206177
-0.413965
-0.497786
-0.374587
-0.506838
-0.363847
-0.509636
-0.554579
-0.503641
-0.560706
-0.514912
-0.574431
-0.523033
-0.56519
-0.648867
-0.641955
-0.617456
-0.667956
-0.668496
-0.428575
-0.433336
-0.651062
-0.649706
-0.595926
-0.612644
-0.632077
-0.619949
-0.571005
-0.613091
-0.577183
-0.640069
-0.428947
-0.423815
-0.651563
-0.620659
-0.590637
-0.581008
-0.632004
-0.275846
-0.264787
-0.691931
-0.646239
-0.686581
-0.662918
-0.688904
-0.401377
-0.416233
-0.7247
-0.684828
-0.750412
-0.690666
-0.731352
-0.584003
-0.7199
-0.750283
-0.727149
-0.376784
-0.707397
-0.750965
-0.718985
0.25173
0.0920168
-0.232311
0.0852268
0.258491
0.227143
0.244416
0.230335
0.242462
0.249004
-0.244666
0.0794974
0.254405
0.076972
0.228821
0.245006
0.233674
0.24286
-1.18077
-0.680557
-0.737516
-0.741918
-1.17981
-1.2903
-1.63405
-1.61911
-1.30249
-1.28397
-1.64024
-1.62242
-1.28408
-1.18795
-0.697384
-0.75914
-1.19946
-0.753784
-1.17477
-0.732557
-0.656768
-0.730381
-1.17952
-1.27987
-1.61945
-1.63483
-1.27118
-1.28008
-1.64331
-1.64126
-1.28423
-1.17533
-0.662692
-0.72834
-0.731502
-1.16764
0.266938
0.101168
-0.199716
0.103255
0.263037
0.239847
0.248292
0.238938
0.248567
0.265721
-0.204407
0.101497
0.100562
0.265224
0.24042
0.246167
0.236454
0.248092
0.266822
0.105349
-0.197411
0.104707
0.266794
0.241378
0.250855
0.241639
0.25073
0.266549
-0.19817
0.106404
0.104498
0.267625
0.24141
0.249639
0.24043
0.250487
-1.14856
-0.714737
-0.645964
-1.15268
-0.7134
-1.2503
-1.59226
-1.59894
-1.24516
-1.2515
-1.60631
-1.25556
-1.60215
-1.1476
-0.647178
-0.709634
-0.712122
-1.14305
-1.15568
-0.653042
-0.716309
-0.719205
-1.15322
-1.26145
-1.61371
-1.26771
-1.60715
-1.15838
-0.657734
-0.725744
-1.16445
-0.723184
-1.25882
-1.60735
-1.25622
-1.60606
0.2629
-0.20613
0.103496
0.100259
0.265843
0.23749
0.248118
0.238022
0.248314
0.261962
-0.209585
0.099264
0.263647
0.0980147
0.238144
0.249136
0.239788
0.248492
0.267206
0.109397
-0.194371
0.106914
0.269177
0.241823
0.251033
0.241656
0.251512
0.266691
-0.195798
0.106802
0.267536
0.105903
0.242273
0.252032
0.243092
0.251766
-1.13438
-0.638179
-0.700202
-0.702631
-1.13149
-1.23815
-1.58923
-1.58409
-1.24293
-1.23637
-1.5795
-1.58221
-1.23298
-1.1361
-0.640018
-0.706868
-1.14079
-0.704959
-1.12623
-0.698666
-0.632023
-0.697249
-1.13047
-1.22601
-1.56487
-1.57013
-1.22132
-1.22749
-1.57762
-1.5727
-1.23177
-1.12491
-0.632114
-0.692749
-0.695379
-1.12072
0.269017
0.110257
-0.189624
0.109321
0.269594
0.244008
0.253495
0.244596
0.253196
0.269068
-0.189365
0.11196
0.109623
0.270646
0.243814
0.252337
0.243375
0.252919
-1.21407
-1.56226
-1.21939
-1.55626
-1.11368
-0.624006
-0.690223
-1.11894
-0.688097
0.245293
0.253683
0.244831
0.25432
0.270377
-0.184927
0.112802
0.270879
0.112117
-0.0724842
0.105916
-0.0390094
-0.173237
-0.190857
-2.64216e-05
-0.0632395
-0.0704503
-0.123436
-0.0225741
-0.169945
-0.171681
-0.0693126
-0.124129
-0.031591
-0.0953099
0.0134216
-0.154638
-0.148167
-0.0499931
-0.0757721
0.067624
0.196536
0.132342
0.0794809
0.0738731
0.0642927
0.146671
-0.0952659
-0.0739828
-0.0205408
-0.132397
0.0219492
-0.129959
-0.0934278
-0.0678905
-0.0201639
-0.122709
-0.16783
-0.166502
-0.0682195
-0.122447
-0.133624
-0.0958727
-0.138362
-0.106004
-0.165474
-0.0947465
-0.152805
-0.138039
-0.201727
-0.217094
-0.259325
-0.181482
-0.132033
-0.217418
-0.12747
-0.0935268
-0.122518
-0.175971
-0.0974185
-0.113627
-0.166383
-0.126183
-0.0900548
-0.245047
-0.223935
-0.112716
-0.105194
-0.219751
-0.0690931
-0.01721
-0.108835
-0.163576
-0.170251
-0.0622469
-0.11756
-0.118518
-0.0971926
-0.1807
-0.15121
-0.114141
-0.100863
-0.193168
-0.110553
-0.086532
-0.221366
-0.249669
-0.103528
-0.0963867
-0.239321
-0.129135
-0.112865
-0.152196
-0.208666
-0.108566
-0.147221
-0.187061
-0.130891
-0.187509
-0.221595
-0.27784
-0.118111
-0.172747
-0.224396
-0.407921
-0.245765
-0.270771
-0.327679
-0.272886
-0.334193
-0.409275
-0.402106
-0.25973
-0.309037
-0.220209
-0.260097
-0.303635
-0.398916
-0.428401
-0.202276
-0.274143
-0.277035
-0.271899
-0.284268
-0.43185
-0.434973
-0.274566
-0.267028
-0.183091
-0.275413
-0.257578
-0.433507
-0.28593
-0.0418966
-0.0989052
-0.156762
0.0159737
-0.858402
-0.0491164
1.10396
0.629684
-1.72749
0.693918
-1.3233
0.925667
1.07586
-0.0104562
0.170418
0.170323
0.145878
0.116367
0.0849201
0.118784
-0.348556
-0.00479149
-0.345051
0.106206
-0.0626113
-0.849034
0.0493613
0.0508759
0.0893186
0.136745
0.153865
0.176863
0.0658092
0.111691
0.0118678
-0.00594825
-0.0646636
-0.0456975
-0.0708649
-0.0572956
7.33749e-05
-0.016786
-0.085745
-0.0792632
-0.0668779
-0.0127551
-0.0749127
-0.0058286
-0.154503
-0.229823
-0.154054
-0.218328
-0.225168
-0.152072
-0.146704
-0.0726132
-0.0343667
-0.16917
-0.118861
-0.177995
-0.0725096
-0.107164
-0.167493
-0.22853
-0.251405
-0.172433
-0.169762
-0.243413
-0.151398
-0.0328182
-0.0918265
-0.0945476
-0.0856517
-0.0189987
-0.0819296
-0.0229538
-0.0343386
-0.0910684
-0.0970245
-0.0893024
-0.0252654
-0.0857247
-0.0264869
-0.14528
-0.252782
-0.172009
-0.200649
-0.199459
-0.145156
-0.172086
-0.0716354
-0.0233934
-0.172233
-0.12483
-0.172807
-0.0719673
-0.124775
-0.144644
-0.250133
-0.198323
-0.166996
-0.143791
-0.199128
-0.169594
-0.08332
-0.0268221
-0.0842297
-0.100938
-0.21528
-0.195869
-0.147624
-0.130294
-0.177626
-0.118202
-0.123247
-0.198872
-0.269282
-0.138591
-0.260273
-0.181172
-0.161762
-0.219329
-0.270722
-0.232049
-0.150669
-0.138826
-0.12456
-0.174355
-0.260333
-0.233533
-0.281693
-0.172465
-0.121869
-0.16169
-0.124732
0.0789508
0.144332
0.215254
0.228712
0.201824
0.109413
0.240895
0.137452
0.124018
0.032095
0.177524
0.121372
0.081479
0.154106
-1.11561
-0.798932
-0.835471
-1.27748
-1.28281
-0.796778
-1.11137
0.319986
0.213786
0.289153
0.247191
0.232641
0.288737
0.262824
-0.144413
-0.111983
-0.465514
0.237188
-0.18787
-0.271062
-0.298086
-0.212341
0.158302
-0.49924
-0.0404432
-0.225943
-0.448627
-0.092029
-0.189385
-0.305984
-0.24549
-0.183862
-0.159833
-0.193872
-0.164969
-0.208318
-0.518901
-0.446667
-0.0288366
-0.171059
-0.151284
-0.472179
-0.393494
-0.405509
-0.456201
-0.421206
-0.455756
-0.445622
-0.374274
-0.45572
-0.587803
-0.609572
-0.505984
-0.491089
-0.49542
-0.517112
-0.288729
-0.390214
-0.292881
-0.411599
-0.214028
-0.442603
-0.319288
0.246791
0.234919
0.232699
0.252378
0.234042
0.244261
0.235328
-1.07547
-1.23354
-0.828963
-0.748332
-0.747397
-1.24144
-1.06978
-1.08619
-0.765465
-1.25806
-0.819189
-0.748091
-1.10245
-1.24738
0.221059
0.177533
0.207417
0.275034
0.262207
0.187283
0.236987
-0.313445
-0.298218
-0.343691
-0.273503
-0.285455
-0.297637
-0.35547
-0.358292
-0.401899
-0.39235
-0.36391
-0.372713
-0.387206
-0.375735
-0.33918
-0.298136
-0.313906
-0.38137
-0.307183
-0.347733
-0.358296
-0.32236
-0.346955
-0.309728
-0.350513
-0.323155
-0.309246
-0.369027
-0.146322
-0.15807
-0.241551
-0.210073
-0.149421
-0.205455
-0.161079
-0.0683644
-0.0201603
-0.164502
-0.122243
-0.165498
-0.0694582
-0.122107
-0.143818
-0.24464
-0.198731
-0.16509
-0.142938
-0.200259
-0.163148
-0.275248
-0.341804
-0.296612
-0.261647
-0.283646
-0.255266
-0.336754
-0.281947
-0.277802
-0.299567
-0.32185
-0.326327
-0.282669
-0.277962
-0.288856
-0.339875
-0.297996
-0.306494
-0.296994
-0.330314
-0.290215
-0.267359
-0.298202
-0.245928
-0.333547
-0.24831
-0.335917
-0.264107
-0.26346
-0.302437
-0.340952
-0.248263
-0.245838
-0.266786
-0.334449
-0.274435
-0.274444
-0.320549
-0.290703
-0.272959
-0.275241
-0.320609
-0.261811
-0.300574
-0.24448
-0.333382
-0.244938
-0.261739
-0.333947
-0.274832
-0.327389
-0.27563
-0.289259
-0.272466
-0.278502
-0.31967
-0.148287
-0.171752
-0.257999
-0.204099
-0.148177
-0.206326
-0.173044
-0.0721974
-0.0205439
-0.173388
-0.124272
-0.173506
-0.0726277
-0.122089
-0.14741
-0.258183
-0.202889
-0.161372
-0.136646
-0.207438
-0.173335
-0.278506
-0.340672
-0.315897
-0.25198
-0.270213
-0.256824
-0.358187
-0.304766
-0.333153
-0.310533
-0.399048
-0.34595
-0.301018
-0.338749
-0.295349
-0.325798
-0.279
-0.313408
-0.283111
-0.347608
-0.292185
-0.288099
-0.31657
-0.268827
-0.395533
-0.262287
-0.357253
-0.310464
-0.467201
-0.348092
-0.372724
-0.421686
-0.426786
-0.354816
-0.503559
-0.421756
-0.341065
-0.272343
-0.369864
-0.29308
-0.328726
-0.486373
-0.414733
-0.255164
-0.279297
-0.348011
-0.281533
-0.408451
-0.338046
-0.40065
-0.278696
-0.251798
-0.295315
-0.277204
-0.285886
-0.408153
-0.403219
-0.257164
-0.270813
-0.240983
-0.28673
-0.38129
-0.272691
0.236964
0.232873
0.228605
0.249314
0.231796
0.236284
0.234006
-1.05421
-1.22157
-0.733242
-0.80422
-0.728708
-1.21547
-1.0594
-1.03236
-0.709027
-0.787813
-1.18914
-0.709214
-1.19308
-1.02916
0.245772
0.235519
0.253434
0.238171
0.236378
0.245173
0.238161
0.247475
0.240909
0.237941
0.255574
0.238677
0.247293
0.240784
-1.00623
-1.1612
-0.764312
-0.686567
-0.686915
-1.16415
-1.00386
-1.02029
-0.702747
-1.18281
-0.776532
-0.699343
-1.02345
-1.17922
0.244476
0.234836
0.238146
0.253058
0.235978
0.24414
0.238504
-0.415536
-0.273828
-0.297038
-0.260075
-0.281498
-0.315179
-0.403513
-0.410832
-0.219721
-0.266588
-0.301411
-0.264806
-0.306223
-0.415278
-0.433716
-0.361072
-0.279087
-0.296455
-0.290333
-0.342043
-0.446516
-0.422672
-0.204643
-0.265395
-0.29252
-0.268019
-0.417921
-0.286854
-0.48986
-0.33001
-0.32921
-0.446797
-0.322443
-0.425988
-0.503632
-0.472114
-0.374805
-0.302482
-0.3117
-0.313078
-0.456562
-0.399146
0.247982
0.241187
0.238126
0.256124
0.239289
0.247415
0.241627
-0.997393
-1.15694
-0.682825
-0.756344
-0.679813
-1.15409
-0.999885
-0.984682
-0.668394
-0.744967
-1.13709
-0.669134
-1.14007
-0.982128
0.249698
0.240407
0.25777
0.243455
0.240912
0.249789
0.243218
-0.975651
-0.665313
-1.13338
-0.736829
-0.66172
-0.978744
-1.13006
0.250784
0.240743
0.24376
0.258828
0.242079
0.25003
0.244358
-0.528522
-0.336759
-0.466076
-0.364757
-0.345152
-0.487859
-0.515427
-0.436008
-0.17674
-0.273267
-0.236399
-0.27484
-0.248355
-0.434152
-0.541295
-0.526302
-0.377657
-0.354961
-0.350829
-0.509593
-0.55026
-0.270037
-0.222486
-0.430027
-0.540361
-0.356752
-0.556235
-0.0455181
-0.0354712
0.0263586
-0.0299884
-0.0265398
-0.0719674
0.00980112
-0.154371
0.295046
0.15804
0.129293
0.166183
0.172193
0.176976
-0.0962814
0.0470249
0.0288455
0.199495
0.23565
-0.0398164
0.110045
0.0351919
0.0205941
0.0205823
0.0748804
0.00236307
0.0638848
0.0685294
0.225494
0.214092
0.236095
0.135982
0.240506
0.10785
0.250503
0.231768
0.21703
0.233297
0.128805
0.248271
0.120289
0.250948
0.236022
0.220355
0.236671
0.1293
0.250602
0.12786
0.251376
0.237831
0.220815
0.237144
0.129629
0.25224
0.129961
0.251672
0.319453
0.247923
0.25942
0.258511
0.282866
0.33864
0.2486
-0.562298
-0.557239
-0.570544
-0.612556
-0.590827
-0.581568
-0.541721
-0.537271
-0.483809
-0.471164
-0.497745
-0.485038
-0.539883
-0.506532
-0.532461
-0.540444
-0.53399
-0.482796
-0.49386
-0.567812
-0.516408
-0.573386
-0.564305
-0.587213
-0.527387
-0.574281
-0.588214
-0.535521
0.218066
0.208141
0.215428
0.10429
0.239615
0.092014
0.238526
0.211819
0.224068
0.229616
0.067827
0.276597
0.19492
0.264752
-0.590994
-0.463618
-0.420922
-0.320475
-0.442552
-0.433626
-0.369658
-0.409762
-0.453513
-0.572774
-0.337284
-0.347196
-0.268237
-0.438273
-0.572274
-0.49468
-0.539425
-0.522599
-0.572592
-0.508108
-0.527493
-0.561282
-0.483392
-0.471264
-0.50416
-0.490834
-0.552089
-0.508233
-0.549965
-0.468361
-0.436234
-0.46163
-0.489143
-0.481712
-0.504987
-0.598835
-0.545493
-0.611035
-0.532316
-0.594789
-0.608792
-0.532257
-0.429954
-0.421932
-0.449913
-0.465756
-0.432909
-0.463677
-0.418356
-0.388531
-0.335364
-0.324196
-0.37261
-0.337628
-0.386528
-0.375372
-0.390729
-0.380879
-0.343407
-0.326215
-0.339963
-0.394221
-0.377343
-0.427992
-0.448687
-0.459264
-0.413446
-0.425915
-0.461877
-0.416412
-0.423142
-0.410592
-0.445171
-0.457001
-0.457869
-0.422959
-0.411772
-0.383416
-0.333859
-0.318373
-0.371536
-0.332191
-0.385199
-0.369935
-0.382916
-0.368908
-0.330947
-0.318061
-0.331502
-0.38281
-0.369889
-0.423461
-0.444833
-0.458286
-0.412775
-0.424724
-0.458009
-0.411616
-0.463224
-0.441626
-0.488836
-0.487353
-0.453021
-0.49804
-0.453896
-0.434437
-0.398465
-0.365221
-0.442077
-0.381243
-0.451303
-0.422626
-0.421901
-0.397921
-0.358191
-0.354129
-0.368802
-0.41169
-0.410223
-0.475595
-0.502037
-0.522704
-0.487602
-0.490859
-0.509539
-0.467949
-0.559269
-0.613564
-0.585726
-0.638345
-0.589726
-0.608082
-0.558606
-0.492777
-0.413917
-0.423722
-0.452226
-0.440755
-0.466796
-0.484209
-0.520717
-0.566878
-0.503304
-0.447873
-0.467945
-0.563694
-0.511723
-0.530284
-0.556335
-0.538382
-0.498149
-0.506508
-0.560643
-0.529785
-0.428876
-0.549076
-0.395681
-0.294704
-0.422992
-0.338755
-0.400005
-0.409701
-0.556163
-0.404352
-0.304728
-0.403251
-0.313566
-0.403654
0.235539
0.218826
0.235263
0.128898
0.25094
0.12767
0.250858
0.232159
0.217339
0.234094
0.127647
0.246965
0.121324
0.249547
-0.534792
-0.388843
-0.391143
-0.294057
-0.382483
-0.385526
-0.292395
-0.401195
-0.533685
-0.390362
-0.29298
-0.395036
-0.30603
-0.386691
-0.383538
-0.519451
-0.379065
-0.28349
-0.377652
-0.287661
-0.373887
-0.374903
-0.518168
-0.378561
-0.283328
-0.368427
-0.279827
-0.371847
0.238798
0.252815
0.130809
-0.3704
-0.363803
-0.275475
-0.00062206
-0.0304236
0.00460121
-0.0235087
-0.0233994
0.0325136
-0.00995941
-0.00814188
0.105124
0.0731413
0.0584617
0.0137285
0.042893
0.0141211
-0.00307975
-0.0102562
-0.057788
0.0174344
0.0196462
-0.00800546
-0.00356812
-0.00659955
0.0350718
0.0113717
0.0239326
-0.00368819
0.0434187
-0.0131574
0.0794493
-0.00891078
-0.733314
-0.0665846
-0.0285673
-0.0954393
-1.47326
-2.3759
-5.41179
-3.43483
-6.53699
-3.33531
0.560219
0.0442716
0.0610895
0.0628841
0.00338789
0.0704207
0.172986
-1.57694
-0.36904
0.0943779
-9.25932
0.505825
-2.54771
-2.0952
0.190267
-0.357387
-0.463984
-0.0177986
-0.181063
0.0394851
-0.490232
0.179248
0.192009
-0.351193
-0.278543
-0.298193
-0.270763
0.0896129
0.10598
-0.324135
-0.254265
-0.0561291
-0.231897
0.0167784
-0.147857
-0.0249208
1.09544
-0.644589
0.126913
0.602466
-0.666573
-0.170928
-0.186846
-0.263465
-0.178658
-0.13704
-0.171877
-0.230384
-0.167814
-0.293954
-0.452518
-0.331042
-0.386174
-0.323959
-0.331189
-0.427738
-0.272051
-0.287745
-0.373541
-0.381469
-0.317157
-0.237734
-0.408338
-0.150297
-0.15492
-0.0945094
-0.129096
-0.144296
-0.137605
-0.156144
-0.215078
-0.346261
-0.335962
-0.261806
-0.276691
-0.355218
-0.2026
-0.11958
-0.111686
-0.159984
-0.0730093
-0.154895
-0.118506
-0.114913
-0.220097
-0.276693
-0.33993
-0.368851
-0.280491
-0.224016
-0.360978
-0.123428
-0.156457
-0.125864
-0.0759894
-0.129603
-0.155081
-0.116311
-0.111862
-0.107085
-0.158472
-0.0671087
-0.153413
-0.112709
-0.106708
-0.200359
-0.332708
-0.252369
-0.325128