/*--------------------------------*- C++ -*----------------------------------*\
| =========                 |                                                 |
| \\      /  F ield         | OpenFOAM: The Open Source CFD Toolbox           |
|  \\    /   O peration     | Version:  2012                                  |
|   \\  /    A nd           | Website:  www.openfoam.com                      |
|    \\/     M anipulation  |                                                 |
\*---------------------------------------------------------------------------*/
FoamFile
{
    version     2.0;
    format      ascii;
    class       surfaceScalarField;
    location    "0.105/fluid";
    object      phi;
}
// * * * * * * * * * * * * * * * * * * * * * * * * * * * * * * * * * * * * * //

dimensions      [0 3 -1 0 0 0 0];
oriented        oriented;


internalField   nonuniform List<scalar> 
47458
(
0.00153057
4.74049e-08
3.1554e-08
-0.00153021
0.00153012
1.72473e-07
4.58176e-08
-0.00152994
0.00152989
1.8994e-07
2.20745e-08
-0.00152971
0.00152964
1.98326e-07
3.12205e-08
-0.00152938
0.00152927
2.03977e-07
4.45009e-08
-0.0015289
0.00152875
2.10348e-07
7.05606e-08
-0.00152816
0.00152792
2.14561e-07
1.10913e-07
-0.00152699
0.0015266
2.4023e-07
1.82682e-07
-0.00152506
0.00152439
3.36651e-07
3.04362e-07
-0.00152168
0.00152047
6.02864e-07
5.3412e-07
-0.00151526
0.00151276
1.33009e-06
1.05515e-06
-0.00150086
0.00149446
3.57316e-06
2.68783e-06
-0.00145888
0.00143688
1.18425e-05
1.0036e-05
-0.00129502
0.00120147
4.19003e-05
5.15955e-05
-9.09234e-06
-3.99234e-06
8.03282e-06
1.41468e-06
1.11315e-06
9.45702e-07
1.57832e-06
-6.82659e-08
0.00153081
8.26562e-08
2.73517e-08
-4.3017e-07
-0.0015313
0.00153148
5.16848e-07
4.53654e-08
-6.25557e-07
-0.00153204
0.00153221
7.79437e-07
2.1862e-08
-7.02458e-07
-0.00153269
0.00153282
8.82265e-07
2.57094e-08
-7.26291e-07
-0.00153305
0.00153307
9.09262e-07
3.76177e-08
-7.47045e-07
-0.00153306
0.00153304
9.24092e-07
6.16433e-08
-7.43665e-07
-0.00153279
0.00153264
9.20166e-07
1.05509e-07
-7.9836e-07
-0.00153197
0.00153165
9.7587e-07
1.79694e-07
-1.02658e-06
-0.00153034
0.00152976
1.24102e-06
3.01587e-07
-1.64538e-06
-0.0015275
0.00152652
1.95474e-06
5.16926e-07
-3.15568e-06
-0.00152267
0.00152096
3.65306e-06
9.74316e-07
-7.03511e-06
-0.00151381
0.00151045
7.80666e-06
2.26697e-06
-1.869e-05
-0.00149504
0.00148711
1.89968e-05
7.25848e-06
-5.98795e-05
-0.00144672
0.00142368
3.14311e-05
5.11803e-05
1.93286e-05
-0.000242017
0.000178235
4.5376e-06
3.99087e-05
-1.16401e-07
0.00153103
1.27824e-07
2.25961e-08
-7.85879e-07
-0.00153216
0.00153253
8.704e-07
4.74035e-08
-1.21419e-06
-0.00153364
0.001534
1.35063e-06
2.17612e-08
-1.40162e-06
-0.00153502
0.00153532
1.56052e-06
2.20723e-08
-1.43117e-06
-0.00153608
0.00153628
1.59265e-06
3.226e-08
-1.4065e-06
-0.00153669
0.00153676
1.55353e-06
5.1893e-08
-1.37656e-06
-0.00153681
0.00153677
1.48911e-06
9.76913e-08
-1.39925e-06
-0.00153641
0.00153619
1.49009e-06
1.69013e-07
-1.67337e-06
-0.00153524
0.0015348
1.74063e-06
2.90542e-07
-2.47951e-06
-0.00153307
0.00153234
2.52183e-06
4.86926e-07
-4.29011e-06
-0.00152957
0.00152841
4.26687e-06
8.50065e-07
-8.04437e-06
-0.00152398
0.00152207
7.71415e-06
1.76913e-06
-1.52415e-05
-0.001514
0.00150997
1.36162e-05
5.04339e-06
-2.61238e-05
-0.00148728
0.00147186
2.00587e-05
2.08437e-05
-3.88841e-06
-0.000255857
0.000217961
2.77575e-06
3.89837e-05
-1.66858e-07
0.00153125
1.86419e-08
-1.09499e-06
-0.00153302
0.0015336
5.10583e-08
-1.66721e-06
-0.00153534
0.0015359
2.57985e-08
-1.92238e-06
-0.00153746
0.00153795
2.36069e-08
-1.96226e-06
-0.00153926
0.00153964
3.15453e-08
-1.87293e-06
-0.00154058
0.00154083
4.93028e-08
-1.69943e-06
-0.00154138
0.0015415
9.21576e-08
-1.57435e-06
-0.00154164
0.00154159
1.53266e-07
-1.71251e-06
-0.00154112
0.00154085
2.75058e-07
-2.33952e-06
-0.00153968
0.00153916
4.55742e-07
-3.80766e-06
-0.00153711
0.00153624
7.36977e-07
-6.51256e-06
-0.0015328
0.00153125
1.36586e-06
-1.05096e-05
-0.00152408
0.00152007
3.52642e-06
-1.35286e-05
-0.00149457
0.00147581
1.54577e-05
4.02795e-06
-0.000249998
0.000211412
-4.10443e-06
3.86153e-05
-6.95413e-09
0.00153061
4.41302e-08
6.58505e-09
-7.47159e-08
-0.00153045
0.00153039
1.62039e-07
8.27115e-08
-8.04553e-08
-0.00153025
0.0015302
1.77411e-07
9.70059e-08
-9.86853e-08
-0.00153005
0.00152999
1.87382e-07
1.206e-07
-1.41389e-07
-0.00152978
0.00152968
1.87907e-07
1.77867e-07
-2.16633e-07
-0.00152936
0.00152923
1.9114e-07
2.65316e-07
-3.46603e-07
-0.00152874
0.00152853
2.0178e-07
4.18448e-07
-5.54858e-07
-0.00152774
0.00152741
2.29071e-07
6.76406e-07
-9.08431e-07
-0.00152613
0.00152557
3.19693e-07
1.10875e-06
-1.53191e-06
-0.00152338
0.0015224
5.66292e-07
1.85521e-06
-2.70242e-06
-0.00151837
0.0015165
1.23145e-06
3.22036e-06
-5.21089e-06
-0.00150816
0.00150402
3.2155e-06
5.98959e-06
-1.17288e-05
-0.00148396
0.00147321
1.02253e-05
1.21133e-05
-3.0088e-05
-0.00141631
0.00138346
3.97207e-05
2.31234e-05
-1.16145e-05
-0.00114988
0.000180829
1.37849e-05
0.000307377
0.000175728
0.000309604
0.000174134
4.07785e-09
-5.91972e-08
0.00153085
7.25926e-08
-6.86478e-09
-5.96404e-08
-3.82735e-07
-0.00153159
0.00153182
4.56463e-07
6.46654e-08
-6.37797e-08
-5.60097e-07
-0.00153244
0.00153263
6.95431e-07
7.73951e-08
-7.7676e-08
-6.49595e-07
-0.00153314
0.00153327
8.128e-07
9.66455e-08
-1.1607e-07
-6.83363e-07
-0.00153355
0.0015336
8.6681e-07
1.44223e-07
-1.87303e-07
-7.04245e-07
-0.00153362
0.0015336
8.89615e-07
2.27603e-07
-3.2183e-07
-7.13019e-07
-0.00153341
0.0015333
8.91133e-07
3.89845e-07
-5.44733e-07
-7.64129e-07
-0.00153275
0.0015325
9.39035e-07
6.63598e-07
-9.09064e-07
-9.81757e-07
-0.00153144
0.00153098
1.18003e-06
1.1059e-06
-1.51316e-06
-1.55017e-06
-0.0015292
0.00152845
1.83243e-06
1.83024e-06
-2.59125e-06
-2.91476e-06
-0.0015256
0.00152441
3.36125e-06
3.09852e-06
-4.74248e-06
-6.28264e-06
-0.00151999
0.00151822
6.976e-06
5.51033e-06
-9.65379e-06
-1.5288e-05
-0.00151244
0.00151081
1.58059e-05
1.04095e-05
-2.14432e-05
-3.97665e-05
-0.00151243
0.00151834
3.59248e-05
1.90122e-05
-2.84462e-05
-8.04764e-05
-0.00157599
0.00160836
5.72008e-05
1.90777e-05
1.67357e-08
-1.04015e-07
0.0015311
1.1625e-07
-2.0425e-08
-4.61581e-08
-6.88948e-07
-0.00153253
0.00153296
7.68689e-07
4.83124e-08
-4.55956e-08
-1.10539e-06
-0.00153414
0.00153451
1.23685e-06
5.55595e-08
-5.12709e-08
-1.31474e-06
-0.00153555
0.00153585
1.47962e-06
6.82691e-08
-8.53067e-08
-1.39535e-06
-0.00153659
0.00153677
1.55758e-06
1.07786e-07
-1.51817e-07
-1.40796e-06
-0.00153718
0.00153727
1.55104e-06
1.90226e-07
-2.89437e-07
-1.37025e-06
-0.0015374
0.00153739
1.48339e-06
3.56068e-07
-5.1704e-07
-1.36036e-06
-0.00153719
0.00153705
1.44474e-06
6.3457e-07
-8.87275e-07
-1.56793e-06
-0.00153638
0.00153607
1.61803e-06
1.07971e-06
-1.45808e-06
-2.2564e-06
-0.00153484
0.00153434
2.26079e-06
1.76448e-06
-2.38459e-06
-3.83708e-06
-0.0015325
0.00153179
3.75592e-06
2.86656e-06
-4.06493e-06
-7.03833e-06
-0.00152944
0.00152867
6.65138e-06
4.79055e-06
-7.56264e-06
-1.26506e-05
-0.00152714
0.00152726
1.10623e-05
8.51404e-06
-1.59168e-05
-1.93731e-05
-0.00153318
0.00153859
1.37336e-05
1.55775e-05
-2.59185e-05
-1.73297e-05
-0.00157243
0.0015881
6.3974e-06
2.06686e-05
2.80238e-08
-1.54181e-07
0.00153132
-3.31318e-08
-3.77513e-08
-1.00346e-06
-0.00153338
0.00153404
3.84343e-08
-4.01384e-08
-1.558e-06
-0.00153587
0.00153644
4.49979e-08
-4.79072e-08
-1.85175e-06
-0.00153802
0.00153851
6.04614e-08
-7.89815e-08
-1.92793e-06
-0.00153982
0.0015402
1.00708e-07
-1.43415e-07
-1.86083e-06
-0.00154115
0.00154141
1.84732e-07
-2.78554e-07
-1.70253e-06
-0.00154201
0.00154216
3.44444e-07
-4.95788e-07
-1.552e-06
-0.00154238
0.00154238
6.15386e-07
-8.48371e-07
-1.58929e-06
-0.00154216
0.00154202
1.03652e-06
-1.37282e-06
-2.04084e-06
-0.00154137
0.00154107
1.65919e-06
-2.14447e-06
-3.20818e-06
-0.0015399
0.00153942
2.57647e-06
-3.41606e-06
-5.31446e-06
-0.00153769
0.001537
4.06129e-06
-5.88272e-06
-7.68496e-06
-0.00153456
0.00153357
6.7698e-06
-1.17879e-05
-4.8444e-06
-0.00153034
0.0015294
1.17446e-05
-1.89958e-05
4.15972e-05
-0.00153419
0.0015475
1.43505e-05
-6.35492e-09
0.00153061
4.33598e-08
6.45695e-09
-1.02218e-07
-0.00153045
0.00153039
1.3995e-07
1.07491e-07
-1.35431e-07
-0.00153027
0.00153023
1.48636e-07
1.45017e-07
-1.75824e-07
-0.00153011
0.00153006
1.5705e-07
1.90051e-07
-2.53975e-07
-0.00152988
0.00152981
1.54993e-07
2.74882e-07
-3.88628e-07
-0.00152954
0.00152942
1.68525e-07
4.24301e-07
-6.12972e-07
-0.001529
0.00152883
1.91106e-07
6.59386e-07
-9.80574e-07
-0.00152818
0.0015279
2.13689e-07
1.05699e-06
-1.59159e-06
-0.00152685
0.00152641
2.85916e-07
1.7085e-06
-2.61192e-06
-0.00152466
0.00152389
4.95514e-07
2.79432e-06
-4.35365e-06
-0.00152074
0.00151929
1.07554e-06
4.60858e-06
-7.30615e-06
-0.0015128
0.00150955
2.82271e-06
7.59061e-06
-1.1923e-05
-0.00149307
0.00148365
9.19041e-06
1.19958e-05
-1.6183e-05
-0.00142695
0.00138966
3.75468e-05
1.57831e-05
-9.11456e-06
-0.00112962
0.000168096
1.04122e-05
0.00030587
0.000174125
0.000306132
0.000174031
1.30297e-08
-5.37008e-08
0.00153088
6.65521e-08
-1.39771e-08
-7.82155e-08
-2.97746e-07
-0.00153168
0.00153194
3.55351e-07
8.21985e-08
-1.08835e-07
-4.2703e-07
-0.00153263
0.00153283
5.34887e-07
1.19003e-07
-1.48046e-07
-5.29664e-07
-0.00153334
0.00153348
6.6605e-07
1.58354e-07
-2.16209e-07
-6.04388e-07
-0.00153375
0.0015338
7.71321e-07
2.35322e-07
-3.4034e-07
-6.63285e-07
-0.00153382
0.00153379
8.36899e-07
3.69588e-07
-5.72282e-07
-6.70154e-07
-0.00153364
0.00153355
8.36787e-07
6.15979e-07
-9.56248e-07
-7.08507e-07
-0.00153311
0.00153291
8.72503e-07
1.02792e-06
-1.57587e-06
-8.92907e-07
-0.00153206
0.0015317
1.084e-06
1.68996e-06
-2.57734e-06
-1.38364e-06
-0.00153033
0.00152977
1.63768e-06
2.75136e-06
-4.20522e-06
-2.54949e-06
-0.00152769
0.00152685
2.92463e-06
4.45331e-06
-6.85631e-06
-5.38193e-06
-0.00152395
0.00152286
5.92987e-06
7.12702e-06
-1.07437e-05
-1.30934e-05
-0.00151961
0.00151882
1.34452e-05
1.08239e-05
-3.6404e-05
-1.40144e-05
-0.00152051
0.0015241
1.37894e-05
3.25362e-05
-9.51885e-05
-9.32521e-06
-0.00156028
0.00158734
9.84375e-06
6.70134e-05
3.20384e-08
-9.75273e-08
0.00153114
1.10242e-07
-3.39705e-08
-5.64611e-08
-5.60744e-07
-0.0015327
0.00153316
6.38382e-07
6.05091e-08
-7.89845e-08
-9.15153e-07
-0.00153441
0.00153481
1.03945e-06
8.4911e-08
-1.12508e-07
-1.11013e-06
-0.00153589
0.00153619
1.26045e-06
1.23927e-07
-1.73422e-07
-1.24828e-06
-0.00153689
0.00153706
1.39189e-06
1.92448e-07
-2.93609e-07
-1.2931e-06
-0.00153744
0.00153752
1.42914e-06
3.21925e-07
-5.30405e-07
-1.26285e-06
-0.00153766
0.00153766
1.37615e-06
5.7596e-07
-9.20224e-07
-1.25176e-06
-0.00153752
0.00153742
1.33082e-06
9.88218e-07
-1.53021e-06
-1.42226e-06
-0.00153694
0.00153673
1.44265e-06
1.63501e-06
-2.48443e-06
-1.9144e-06
-0.00153597
0.00153568
1.85773e-06
2.64716e-06
-3.9303e-06
-3.0801e-06
-0.00153473
0.0015344
2.87672e-06
4.16185e-06
-6.1464e-06
-5.52497e-06
-0.00153363
0.00153355
5.00311e-06
6.41871e-06
-9.26766e-06
-9.76854e-06
-0.00153477
0.00153606
8.01842e-06
9.41991e-06
-1.19824e-05
-1.47288e-05
-0.00154515
0.00155086
8.61463e-06
1.19952e-05
-8.76473e-06
-1.38983e-05
-0.00157984
0.00159308
2.51789e-07
8.39905e-06
4.73505e-08
-1.48679e-07
0.0015314
-4.98088e-08
-4.4631e-08
-8.42538e-07
-0.00153363
0.00153433
4.71401e-08
-6.89519e-08
-1.32078e-06
-0.00153624
0.00153682
7.64776e-08
-9.75114e-08
-1.6145e-06
-0.00153841
0.00153888
1.1056e-07
-1.65903e-07
-1.72415e-06
-0.00154014
0.00154049
1.85243e-07
-2.90226e-07
-1.73072e-06
-0.00154136
0.00154159
3.21463e-07
-5.26907e-07
-1.60666e-06
-0.00154215
0.00154228
5.71809e-07
-9.09945e-07
-1.44389e-06
-0.00154254
0.00154258
9.85187e-07
-1.47647e-06
-1.35204e-06
-0.00154257
0.00154253
1.58412e-06
-2.3397e-06
-1.52935e-06
-0.00154231
0.00154222
2.49914e-06
-3.55409e-06
-2.17557e-06
-0.00154193
0.00154183
3.77224e-06
-5.35169e-06
-3.42996e-06
-0.00154161
0.0015416
5.61697e-06
-7.93614e-06
-4.26527e-06
-0.00154184
0.00154199
8.20392e-06
-1.07783e-05
1.56787e-06
-0.00154191
0.00154114
1.12432e-05
-9.48819e-06
5.30453e-05
-0.00153779
0.00154403
1.07568e-05
-8.26625e-05
5.07965e-05
1.15122e-05
1.93951e-05
2.56257e-05
-5.868e-06
-1.08247e-05
-1.08721e-05
-6.19466e-06
-0.00142182
-6.8369e-05
0.00139096
3.9116e-05
0.000213344
0.000217491
-0.000203351
-0.0013515
0.00013572
0.000122812
0.000424102
0.000441275
-0.00140878
-3.29526e-05
0.00137105
4.05194e-05
0.00115679
3.48154e-05
-5.3314e-05
-0.00125339
0.000115061
4.3099e-05
2.4784e-05
-0.00149999
-2.62087e-05
-4.34016e-05
0.00150145
0.00154497
9.43709e-05
3.89414e-05
-4.62478e-05
-0.000115503
-0.00151671
0.0001073
9.94575e-05
2.59084e-05
-1.98854e-05
0.000146831
0.000323605
0.000186783
0.000320587
0.000187231
0.000123989
2.72296e-05
-3.68453e-05
-0.000170041
0.0016005
0.000119678
-2.14237e-05
2.24347e-05
-0.00182491
-5.26302e-05
-4.16327e-05
-3.9261e-05
-5.52968e-05
-0.000255893
-5.15106e-06
0.00021829
3.88419e-05
-0.001572
-4.26868e-05
0.00162386
8.61807e-05
-1.40744e-05
2.28781e-05
-0.00176543
7.92824e-05
2.25107e-05
-0.00159347
2.6464e-05
-5.40499e-05
-3.93444e-05
0.00163753
1.30004e-05
-6.24213e-06
2.31933e-05
-2.98954e-05
-0.00171099
-0.000253142
3.38524e-06
0.000215325
3.84102e-05
-0.00159426
-5.35119e-05
0.00163704
6.9125e-06
-3.55851e-06
2.20687e-05
-0.00170546
-3.41816e-06
-5.38025e-05
-0.00156791
2.04601e-05
-4.42476e-05
2.83531e-05
0.00161686
-4.97087e-06
-8.37592e-06
2.74621e-05
4.07115e-05
-0.00174473
-5.70951e-06
-1.33823e-05
-1.36573e-05
-0.00153732
-3.59299e-05
0.00155894
-7.20535e-06
3.55979e-06
-0.000435505
-8.04111e-07
-0.00156748
-0.00010849
0.00160239
2.0142e-05
3.52488e-05
-0.00175004
-6.29401e-06
-3.24929e-05
-1.90941e-05
-3.37491e-05
-1.74618e-05
-0.00113039
-9.82632e-06
0.000168596
0.000306884
0.000174471
0.000306364
0.00017472
9.98148e-06
-0.00154405
0.000101322
-1.22308e-05
-0.000133374
0.00157797
-2.14738e-06
7.99924e-05
2.46702e-06
-0.00174362
-4.20787e-05
-2.81987e-05
-2.80176e-05
-4.21825e-05
-1.62301e-05
-0.000433703
1.46978e-05
-3.85058e-06
5.72329e-05
-0.00153893
-9.87659e-06
0.00154547
-1.88863e-06
-4.83496e-06
9.50153e-07
-0.000429401
6.35711e-06
-0.00153941
-0.00012767
0.00157052
1.09228e-05
6.5261e-05
-0.00172944
-2.76889e-07
-3.83553e-05
-2.447e-05
-3.86031e-05
-2.42482e-05
-9.11314e-06
-0.000429472
9.4324e-06
-1.23795e-06
0.000519685
8.83661e-05
-8.73948e-05
-0.00044193
-4.51575e-05
-3.35702e-05
0.000100183
2.55836e-05
1.3304e-05
-1.6275e-05
-0.000122796
-0.000200589
1.31501e-05
-3.11134e-05
1.27112e-05
0.00020584
-0.000392483
4.89599e-05
-7.02354e-07
0.00036295
9.85491e-06
-2.85825e-05
2.67824e-05
9.79297e-06
2.19127e-05
1.64565e-05
-0.000207889
5.03099e-05
2.84205e-05
5.42137e-05
0.000256064
0.000414088
0.000417058
-0.0013379
0.000122127
0.000103884
-0.00148245
-3.33992e-05
0.001467
2.21627e-05
2.92335e-05
0.000255677
0.00042489
0.000425052
-4.58873e-05
6.05712e-05
-0.00140579
-0.0015109
-2.29043e-05
0.00151615
3.89633e-05
3.31809e-05
-4.00539e-05
-0.001543
7.20025e-05
2.09692e-05
-0.00153178
1.69319e-05
-1.85305e-05
-2.71458e-05
0.001539
2.35225e-05
2.65788e-05
-3.88209e-05
-3.74105e-05
-0.00156778
0.000446231
1.51525e-05
1.45069e-05
-1.83407e-05
-0.000434465
-2.30904e-05
1.02555e-05
-0.000254244
-1.23551e-05
3.97834e-05
0.000216546
8.71408e-05
-8.90244e-05
-4.66431e-05
-4.20464e-05
-4.24951e-05
-5.86366e-05
0.000102965
-0.00162123
0.000432037
0.000423385
0.00043161
0.000422835
-3.83504e-05
0.000454177
1.72074e-05
2.93112e-05
-2.36661e-05
-0.000438682
6.39443e-05
8.67041e-05
-0.00161811
0.000430758
0.000422045
0.00043071
0.000422369
-3.96486e-05
-3.64516e-05
-3.75599e-05
-3.77608e-05
0.000255889
0.000425383
0.000425195
1.71012e-05
5.87661e-05
-0.0014094
-0.00149218
-1.31183e-05
0.00147387
1.70789e-05
-1.50652e-06
0.000253853
0.000421188
0.000421706
-5.98318e-07
5.33721e-05
-0.00140184
-0.00153454
-1.74589e-05
0.00154152
1.49323e-05
2.56471e-05
-3.78113e-05
1.03263e-05
-0.00156939
4.79529e-06
-0.0015319
1.2788e-05
-1.38652e-05
-6.06337e-06
0.00153367
-2.56649e-05
2.04939e-05
-3.02821e-05
1.49975e-05
-0.00154784
0.000441211
-2.20946e-06
9.25518e-06
-5.12233e-07
-0.00042965
-1.81063e-05
-1.9631e-07
-0.00025583
-7.76113e-07
3.85985e-05
0.000218168
1.35503e-05
-2.80043e-05
-3.41502e-05
-3.31445e-05
-3.30557e-05
-3.42788e-05
6.8663e-05
-0.00161206
0.000427204
0.000418799
0.000427506
0.000418662
-5.96214e-06
0.000441743
1.0578e-05
4.24606e-06
-1.97194e-05
-0.000430892
-1.32029e-06
6.52444e-05
-0.00160569
0.000426304
0.000417282
0.000425834
0.000417447
-3.3558e-05
-3.24051e-05
-3.25022e-05
-3.34452e-05
0.000248586
0.000416672
0.000415309
5.05092e-05
-0.0013955
-0.0015303
-1.24432e-05
0.00152978
1.87641e-05
-2.52886e-05
-0.00153121
3.7539e-05
5.97918e-05
-3.30049e-05
-3.23206e-05
-3.22337e-05
-3.34831e-05
-0.00156016
0.000409942
0.000406045
0.000416215
0.00039834
2.27014e-05
0.000444067
9.11668e-06
-3.23079e-05
-1.94011e-05
-0.000424158
-5.84506e-06
-0.00160907
1.17014e-05
-1.02326e-05
-0.00155097
1.98899e-05
0.00157667
1.61835e-05
7.24555e-06
1.6439e-05
7.4191e-06
-2.33387e-05
-0.00165893
-1.15765e-05
-1.5176e-05
-0.00158895
-1.09208e-05
0.0016055
5.14838e-08
-2.79743e-07
-6.08559e-06
4.88441e-06
-0.00163302
-2.10079e-06
9.36322e-06
-0.00156366
-1.00928e-05
0.00158859
3.27212e-05
2.19262e-07
4.85386e-06
-3.38682e-06
-3.3279e-06
4.1191e-06
-0.00167762
1.50508e-05
2.0174e-05
1.491e-05
-0.00152931
1.0116e-06
-0.00154026
-1.10382e-05
0.00153992
1.07537e-05
3.18513e-05
-1.13058e-05
-0.00153795
9.72763e-06
-1.23646e-05
0.000415089
0.000409279
0.000414269
0.000408795
7.5794e-05
0.00154836
1.04765e-05
5.68704e-05
-0.00153895
0.000412694
7.0674e-06
0.000407215
0.000413409
0.000407611
9.9572e-05
-5.37004e-06
-0.00161789
2.4261e-06
-2.87943e-06
-0.00155834
0.00158061
1.03064e-05
2.95582e-05
9.08042e-07
9.20458e-06
9.48391e-07
-0.00166528
-8.57771e-07
1.97508e-06
2.98046e-05
1.18504e-05
-0.00153765
8.03988e-06
-6.83594e-06
0.000411568
0.000406328
0.000411681
0.000406465
9.01794e-05
0.00154546
5.68445e-05
-0.00154051
0.000411328
0.000406169
0.000411295
0.000406126
9.5837e-05
-0.000175634
-9.54644e-05
0.000136627
0.000145454
0.000379984
0.000397489
0.000382724
0.000389904
-0.00156115
6.99883e-05
0.000112253
0.000331864
0.000131787
0.000196442
0.000225304
-0.00106766
-3.91489e-05
0.000171187
1.37314e-06
2.93249e-05
1.95036e-05
2.57837e-05
2.02196e-05
-9.75348e-05
-3.00497e-05
-4.78141e-07
1.56039e-05
-2.56319e-05
1.72006e-05
-0.000207762
2.89963e-05
3.24208e-05
-0.000388536
-4.95043e-05
-1.58632e-05
0.00018517
0.000303008
0.000114334
0.000295835
0.000156967
-0.00116102
0.000107862
0.00037538
0.000236146
0.000388644
0.000231588
-0.00132286
9.75026e-05
-5.57115e-05
0.000543931
2.0811e-05
-8.68483e-05
1.88899e-05
7.21549e-07
-0.000161091
1.52945e-06
-2.63361e-05
9.21316e-06
8.23337e-06
-3.57281e-06
1.29087e-05
0.00051213
-0.000113929
-0.000451373
0.000114269
2.7268e-05
0.000254396
-9.70868e-05
-0.000178162
5.87503e-05
3.58929e-05
4.46131e-05
5.35891e-05
-8.19086e-05
-1.28585e-05
-5.16431e-05
-0.00162411
-7.85917e-05
-2.82252e-05
-9.00769e-05
6.18838e-06
9.38807e-05
1.76559e-05
-1.84416e-05
-2.46713e-05
-4.00119e-05
0.000418011
0.000424339
0.000428246
0.000426718
-0.000421094
1.9332e-05
0.000362077
4.7886e-05
4.07554e-05
0.000458834
1.33493e-05
-5.06147e-05
-1.74362e-05
-0.000442485
-7.40268e-05
0.000538817
0.000106598
3.8244e-05
1.42002e-05
-1.26004e-05
2.35988e-05
-2.47402e-05
-0.000484946
-1.92219e-05
-2.62122e-05
-1.6638e-05
-2.47564e-05
-0.000562884
3.8756e-05
5.63357e-05
3.92891e-05
7.42405e-06
-5.63624e-05
-4.32627e-06
0.000472807
-0.000415256
0.000113419
0.000403644
1.98448e-05
-0.000177365
2.83637e-07
-1.28805e-05
4.6536e-06
7.63048e-06
3.12762e-07
-1.01908e-06
1.4271e-05
-2.0762e-05
2.67989e-07
-0.000152771
1.76503e-05
-0.00015232
-2.66804e-05
8.26583e-07
-5.91046e-06
-0.00043378
9.56297e-05
8.88825e-06
-0.000113883
0.000449052
-9.85967e-06
1.1971e-05
1.11838e-06
5.98349e-06
1.55944e-05
7.37155e-06
-1.90426e-05
0.000455293
-1.29919e-05
-1.74482e-05
2.46187e-05
-0.000474432
9.16909e-06
7.02326e-06
2.97896e-05
-1.00897e-05
0.00046674
1.16294e-05
-1.82976e-06
-0.00045539
9.51963e-06
-1.36533e-05
0.000444798
1.2602e-05
-0.000433161
1.26169e-05
-2.1708e-05
-0.000254802
8.31541e-06
3.9593e-05
0.000217134
-4.41533e-05
-3.45821e-05
-3.32748e-05
-3.34649e-05
-3.43152e-05
7.07355e-05
-0.00161381
0.000428181
0.000419165
0.000427817
0.00041945
7.74906e-05
-0.00161733
0.000429195
0.000420969
0.000429676
0.000420478
-3.55359e-05
-3.48431e-05
-3.44572e-05
-3.60472e-05
0.000442077
1.06466e-05
-8.12041e-06
-1.9403e-05
-0.000431171
5.46027e-06
0.000453427
1.30354e-05
-1.15359e-05
4.44537e-06
-7.16893e-06
1.53918e-05
-5.65604e-06
-0.000443947
-3.7083e-06
-0.000451382
1.20236e-05
9.52703e-06
5.91409e-06
4.11181e-06
-8.10232e-06
-9.44424e-06
0.000449586
-2.13764e-06
2.95692e-06
-3.61518e-07
0.000448936
-8.20166e-06
-6.00736e-06
1.43985e-05
-0.000443105
3.23207e-06
4.2512e-06
4.18645e-06
-9.95481e-06
0.000449165
1.36882e-06
-8.34805e-06
-0.000443061
1.6006e-05
-1.61626e-06
0.000441906
1.00306e-05
-0.000430054
-4.49178e-06
-1.96055e-05
-0.000254974
-1.30904e-06
3.87693e-05
0.000217281
1.77292e-05
-3.30544e-05
-3.20116e-05
-3.20721e-05
-3.30654e-05
6.35722e-05
-0.0015834
0.000422951
0.000411819
0.00042083
0.000413847
6.7059e-05
-0.00160175
0.000425169
0.000416912
0.000425742
0.000416651
-3.40613e-05
-3.28523e-05
-3.29048e-05
-3.39654e-05
0.000446413
8.81307e-06
1.30335e-05
-1.76266e-05
-0.000427936
4.17909e-06
0.000450103
-4.47682e-06
-1.00505e-05
-6.65376e-06
-3.88508e-06
1.53609e-05
5.0928e-06
-0.000461989
-5.0587e-06
-0.00044437
1.43968e-05
-9.32522e-08
-2.47549e-05
3.17114e-06
1.42469e-05
-7.54268e-06
0.000461271
-1.66679e-05
2.9233e-05
-0.000460957
-9.74186e-06
3.2857e-06
-3.54463e-05
-7.62101e-06
0.000459098
0.00156826
3.05954e-05
-0.00153554
-2.46528e-05
0.000417342
0.000100718
0.000419126
0.000411274
0.000412404
0.000424351
6.18997e-05
-7.77907e-06
-8.42319e-06
-6.75743e-06
0.000418738
0.000421334
0.000415915
-2.49604e-05
-1.1174e-05
-0.000446073
2.3879e-05
-1.7314e-07
2.97871e-05
0.000428043
-2.7471e-06
-3.75689e-05
1.19734e-05
-2.58684e-05
0.000438159
3.37991e-06
8.40884e-07
-0.000418719
9.63295e-05
4.90773e-07
0.000440223
-0.000119173
-1.06884e-05
3.30252e-06
7.62641e-06
4.30809e-08
1.2648e-05
-2.00347e-05
-0.000152986
-7.82513e-07
-0.00041871
9.83184e-05
6.53403e-06
-0.00012814
0.000436082
-6.19603e-07
1.23005e-05
-0.000151878
3.95845e-07
-1.90805e-05
-2.29735e-07
-1.15383e-05
7.50678e-06
3.21939e-07
3.93929e-06
-0.000415641
9.5066e-05
0.000438549
3.04774e-06
-0.000120189
-1.54464e-07
-1.12104e-05
3.77701e-06
7.43246e-06
1.55391e-07
-1.90906e-07
1.16397e-05
-1.85085e-05
1.40315e-07
-0.000151052
1.1479e-05
-0.000151768
-1.86418e-05
-3.88776e-07
1.54608e-06
-0.000413303
9.58612e-05
-1.46212e-06
-0.000119407
0.000436754
-1.10924e-05
7.43054e-06
3.71364e-06
-2.81549e-07
1.67423e-05
0.000426014
-2.84356e-05
5.88992e-07
-3.29015e-06
-1.8553e-06
1.43585e-06
-0.000430571
4.07727e-06
1.8063e-07
2.68941e-05
-3.58028e-05
-1.48655e-06
0.000422891
0.0015438
4.86494e-05
-0.00153535
-6.73043e-06
0.000411607
0.000411817
0.000406363
0.00040643
9.7438e-05
0.000412419
0.000406961
0.000412288
0.000406961
8.47097e-05
-1.14335e-05
-1.80247e-06
-0.000430697
1.12478e-05
6.50561e-07
2.53505e-05
0.000421433
-1.22504e-06
-3.46304e-05
2.01268e-05
-3.07659e-05
0.000422795
4.21635e-07
2.58707e-06
-0.000410858
9.47672e-05
-2.41411e-06
0.000434361
-0.000118458
-1.11071e-05
3.7307e-06
7.40198e-06
-1.80035e-07
1.12544e-05
-1.82966e-05
-0.000150873
-4.35231e-08
-0.000412691
9.44986e-05
2.29286e-06
-0.000118784
0.000436217
1.38216e-07
1.13158e-05
-0.000150161
-9.82396e-08
-1.82178e-05
-5.32266e-08
-1.11046e-05
7.38888e-06
5.40026e-08
3.71493e-06
0.000433631
-0.000118058
1.11684e-05
-0.000149982
-1.8141e-05
2.54442e-07
-1.1059e-05
7.38187e-06
3.69087e-06
-6.70663e-08
2.21853e-05
0.000421471
-3.22703e-05
8.01083e-07
-1.36123e-06
-6.36728e-06
9.23125e-07
-0.000428864
7.3906e-06
1.42811e-06
2.45604e-05
-3.3908e-05
-1.48593e-06
0.000420701
-0.000428378
8.4676e-06
-3.29647e-05
0.000420378
9.45229e-05
1.07763e-05
1.74331e-05
-0.000105962
-1.25398e-05
-4.23026e-06
-4.0085e-05
1.51428e-05
-1.82454e-05
3.79458e-06
3.9393e-05
-0.000101122
3.57107e-06
2.54169e-05
0.000112263
-4.69861e-06
-9.36724e-06
-8.99833e-06
-8.08058e-06
-8.9844e-06
2.92984e-05
1.68995e-05
3.23672e-06
-9.0946e-06
-4.034e-05
-0.0012676
0.000130238
2.22563e-05
-0.00150398
-4.0143e-05
0.00150802
2.0829e-05
7.21036e-05
-8.78244e-05
-0.00153658
2.35331e-05
-0.00142521
-1.74311e-05
0.00138832
3.80004e-05
1.33717e-05
-1.43958e-05
0.00012424
-0.00125369
1.49682e-05
-0.00151124
3.77037e-05
-1.6373e-05
-3.81282e-05
0.00151268
1.27269e-05
8.19104e-05
-1.48881e-05
-9.86478e-05
-0.00152556
-2.58547e-05
-0.00155097
4.79184e-06
0.0004179
0.000379578
0.000379315
-8.14445e-05
-8.15567e-05
-7.4889e-05
-7.46899e-05
0.000289024
5.02514e-07
2.10174e-05
1.02899e-05
2.03831e-05
5.1747e-05
-4.53414e-07
-0.000114176
0.00157973
3.28653e-05
-1.0638e-05
0.000175834
-0.00159704
0.000166218
9.26806e-06
0.000310434
0.000177076
0.000309576
0.000177319
-0.00113615
2.56167e-05
0.000413002
0.000378753
0.000375366
-8.97208e-05
-9.00872e-05
-8.33296e-05
-8.26828e-05
0.00028819
1.27317e-05
0.000184126
-0.00154885
-1.04337e-06
2.25936e-05
1.16839e-05
2.29246e-05
4.80907e-05
1.85833e-06
-0.000117647
-0.0016887
6.31764e-06
-8.73304e-06
-0.00157013
-2.76491e-05
0.00158539
2.10536e-05
-2.47101e-06
-0.00160462
-1.10758e-05
-0.0015672
-1.15132e-05
0.00159726
7.29241e-05
-1.55739e-06
3.62723e-06
-0.00168832
4.65488e-05
8.95718e-06
-0.00158643
-1.11655e-05
0.00160389
-3.13307e-05
1.43215e-07
4.96634e-06
-0.00163346
-1.53539e-05
0.000123612
1.38217e-05
-0.00125378
-0.0015121
-3.70705e-05
0.0015128
1.45317e-05
7.77588e-05
-9.49642e-05
1.29844e-05
-0.00152292
-1.20079e-05
-0.00153387
0.000411242
0.000373149
0.000373577
-8.25098e-05
-8.25317e-05
-7.59381e-05
-7.59098e-05
0.000280557
3.89655e-07
2.18438e-05
1.1076e-05
2.1853e-05
4.85979e-05
-1.47106e-07
-0.000114722
0.00153821
1.43072e-05
-1.2824e-05
0.00017476
-0.00154653
0.000167727
0.00030567
0.000173739
0.000305328
0.000173886
-0.00112798
-9.46893e-06
0.000412061
0.000374475
0.00037417
-8.27131e-05
-8.25798e-05
-7.59915e-05
-7.6089e-05
0.000279515
0.000175277
-0.00154272
3.41507e-07
2.18812e-05
1.11154e-05
2.19561e-05
4.84308e-05
-2.22528e-07
-0.000114609
-0.00167448
-1.15437e-06
3.34302e-05
-0.00157592
0.00158913
8.75861e-06
-2.79045e-05
-0.00161391
-1.94833e-06
-9.85193e-06
-5.65921e-05
-2.06678e-05
1.60417e-05
5.31477e-05
7.81536e-05
9.20683e-05
8.1036e-05
8.86751e-05
8.95701e-06
4.01668e-05
-2.38231e-06
1.19899e-05
-1.5599e-05
-1.6318e-06
-2.14561e-06
-2.70196e-06
2.33787e-06
1.46434e-06
2.05226e-06
2.19136e-06
1.43623e-06
2.9887e-06
-0.000212841
5.25403e-05
3.72095e-05
6.83335e-05
5.81319e-05
1.17072e-06
2.71872e-06
7.30893e-08
3.37451e-06
1.15859e-06
2.27553e-05
-9.64042e-05
-2.53322e-05
-3.29914e-06
-6.2454e-06
5.0803e-05
2.74517e-05
4.91306e-05
2.76652e-05
3.19611e-05
0.00164505
8.67919e-05
-0.000100648
-0.00156123
6.65611e-05
0.000260819
-0.00115741
1.34428e-05
6.20169e-06
-1.56768e-05
-7.46332e-06
0.000495843
0.000416074
7.45212e-05
-0.000152112
8.30739e-05
-0.00135713
-0.000127123
-0.00157378
9.38603e-05
0.000118544
-4.2717e-05
-4.16086e-05
-4.20705e-05
0.000462225
0.000434662
0.000438337
0.000177742
7.29501e-05
-0.00154773
6.21494e-05
-0.0012251
-1.50456e-05
-0.000126581
9.53684e-07
0.000126801
1.24551e-05
1.41642e-06
6.8087e-06
-1.667e-05
2.28728e-05
-8.57672e-06
-0.000138871
-1.53547e-05
-1.22971e-05
-0.000128173
1.74501e-05
1.27467e-05
2.29431e-06
-0.000135829
-4.84405e-06
-6.20703e-06
7.09554e-06
0.000137491
-0.00172817
7.43881e-05
0.000397798
0.000374874
0.000359285
0.000318458
0.000104952
3.47987e-05
3.80995e-05
-0.00012579
-0.000113632
-0.000122925
-0.000114808
0.000224417
-0.00120821
-1.87262e-05
-2.16277e-06
1.06962e-05
0.000183852
0.000326416
0.000305931
0.000171039
2.47475e-05
1.34177e-05
2.57844e-05
4.4032e-05
6.05291e-06
-0.000126413
-0.000110681
0.00156776
-0.00152461
0.000203677
-0.00177989
0.00015209
8.17093e-05
-5.34441e-05
-1.56348e-05
0.000433728
0.000395559
0.000389112
0.000295955
-7.22135e-05
-7.34465e-05
-6.81177e-05
-6.66351e-05
1.93984e-05
4.90339e-06
1.05969e-05
6.91884e-05
-0.000106137
1.98255e-06
0.000117066
1.24554e-05
-0.000119214
-0.000112239
-0.000104419
-0.00166402
2.95266e-05
7.58225e-06
-7.06787e-06
0.000476901
0.000475983
0.000465739
0.000461077
-0.00178938
-1.7081e-05
1.28873e-05
1.61938e-06
-1.04753e-06
-3.17075e-06
-1.6011e-05
-1.15654e-05
6.94062e-07
-5.2346e-06
-1.3481e-05
-2.1739e-05
-2.12621e-05
3.80817e-06
-0.000518997
4.97617e-05
-9.84714e-06
-0.000258767
-5.75048e-06
-0.00170644
0.000155821
-2.54096e-05
-1.63408e-05
-2.41464e-05
-0.000518358
2.61914e-05
1.842e-06
-0.00169053
3.41309e-05
-5.35687e-06
-5.34844e-06
-7.6687e-06
-2.7636e-05
-9.7909e-05
-0.00011035
-0.0001085
-0.00174424
0.000486539
0.000488451
0.00048189
0.000481022
-0.000123492
6.28663e-06
3.76731e-06
0.000123939
-4.44703e-06
-6.05445e-06
-1.73033e-05
1.9644e-05
7.93068e-06
-0.000136242
1.37575e-05
-1.63794e-06
-0.000125613
4.3223e-06
-1.48295e-05
-0.000132438
-5.81082e-06
3.68596e-07
5.95959e-06
0.000134215
-3.2228e-06
-0.000129304
5.48206e-07
0.000130049
2.65744e-06
-7.28007e-07
1.65819e-06
-8.20578e-06
1.25292e-05
-1.84032e-06
-0.000128689
-2.67223e-06
-7.90141e-06
-0.000129742
1.23014e-05
2.39723e-06
1.8822e-06
-0.000128595
3.53812e-07
-2.26717e-06
-5.076e-07
0.000129133
-0.000128577
8.62484e-07
3.93684e-07
0.000129061
-1.22153e-06
-5.19359e-07
-8.06555e-06
1.24129e-05
1.5104e-06
-0.000129044
8.35076e-07
-8.15266e-06
-0.000128531
1.24996e-05
-9.93474e-07
-0.00012893
4.49663e-07
1.46231e-06
-6.10466e-07
0.00012951
7.86298e-07
-0.000129941
1.21076e-07
0.000130444
-1.06646e-06
-3.44335e-07
-5.63348e-10
-7.90279e-06
1.25965e-05
-3.38149e-07
-0.000132839
-1.15264e-07
-8.9332e-06
-0.000129863
1.29742e-05
4.64375e-07
-2.52146e-06
-0.000132463
8.00098e-07
1.61738e-06
-6.8225e-07
0.000133248
-0.000140073
-7.42837e-06
1.06524e-06
0.000142528
5.62592e-06
-1.71951e-06
-9.41728e-06
1.32635e-05
4.55159e-07
-0.000132583
-6.84553e-06
-0.000146338
1.20356e-05
8.53202e-07
-0.000131764
3.80107e-07
-3.12719e-06