/*--------------------------------*- C++ -*----------------------------------*\
| =========                 |                                                 |
| \\      /  F ield         | OpenFOAM: The Open Source CFD Toolbox           |
|  \\    /   O peration     | Version:  2012                                  |
|   \\  /    A nd           | Website:  www.openfoam.com                      |
|    \\/     M anipulation  |                                                 |
\*---------------------------------------------------------------------------*/
FoamFile
{
    version     2.0;
    format      ascii;
    class       pointVectorField;
    location    "0.105/fluid";
    object      pointMotionU;
}
// * * * * * * * * * * * * * * * * * * * * * * * * * * * * * * * * * * * * * //

dimensions      [0 1 -1 0 0 0 0];


internalField   nonuniform List<vector> 
23354
(
(0 0 0)
(0 0 0)
(0 0 0)
(0 0 0)
(0 0 0)
(0 0 0)
(0 0 0)
(0 0 0)
(0 0 0)
(0 0 0)
(0 0 0)
(0 0 0)
(0 0 0)
(0 0 0)
(0 0 0)
(0 0 0)
(-1.7627e-05 -2.11278e-05 3.07424e-143)
(-3.88589e-05 -3.93366e-05 2.3991e-140)
(-6.03543e-05 -5.16103e-05 -2.20034e-133)
(-7.7531e-05 -5.80841e-05 1.75633e-129)
(-8.78616e-05 -5.88066e-05 2.68774e-126)
(-9.14685e-05 -5.5222e-05 4.84774e-124)
(-8.96717e-05 -4.87035e-05 5.84442e-121)
(-8.3503e-05 -4.04164e-05 9.27405e-106)
(-7.41035e-05 -3.13001e-05 5.72942e-92)
(-6.1567e-05 -2.18938e-05 3.08468e-78)
(-4.48922e-05 -1.26353e-05 2.34694e-64)
(-2.51195e-05 -4.61318e-06 2.44648e-50)
(-9.01905e-06 -4.98629e-07 -2.68358e-35)
(-5.53013e-07 4.08001e-08 8.03051e-22)
(0 0 0)
(-3.50946e-05 -3.88578e-05 1.17018e-128)
(-7.78657e-05 -7.27799e-05 1.20944e-125)
(-0.000120622 -9.50669e-05 1.23888e-123)
(-0.000154612 -0.00010605 -5.44133e-117)
(-0.000176232 -0.000107035 1.78384e-113)
(-0.000185601 -0.000100218 9.00741e-111)
(-0.000184277 -8.76376e-05 4.61107e-109)
(-0.000173881 -7.17606e-05 2.87566e-103)
(-0.000155485 -5.50244e-05 9.34828e-90)
(-0.000129134 -3.87834e-05 2.14776e-76)
(-9.47572e-05 -2.31044e-05 4.44458e-63)
(-5.5604e-05 -8.52877e-06 7.93535e-50)
(-2.25795e-05 -6.53279e-07 7.50588e-40)
(-1.79714e-06 7.881e-08 -4.86415e-29)
(0 0 0)
(-5.22017e-05 -4.97021e-05 -2.86019e-116)
(-0.000116884 -9.42076e-05 -4.99856e-113)
(-0.000181615 -0.000123633 -7.66333e-111)
(-0.000232447 -0.000137482 -2.54459e-109)
(-0.000266441 -0.000137949 7.13139e-103)
(-0.000284526 -0.000127605 -1.70232e-99)
(-0.000286753 -0.000109739 -7.34128e-97)
(-0.000273582 -8.72246e-05 -5.39307e-95)
(-0.000245842 -6.50802e-05 6.00569e-89)
(-0.000203596 -4.54556e-05 2.98508e-76)
(-0.000148511 -2.68569e-05 4.66133e-64)
(-8.83839e-05 -8.45264e-06 -8.38755e-55)
(-3.79524e-05 1.97878e-06 -9.51342e-42)
(-3.20974e-06 3.00383e-07 -5.36185e-28)
(0 0 0)
(0 0 0)
(0 0 0)
(0 0 0)
(0 0 0)
(0 0 0)
(0 0 0)
(0 0 0)
(0 0 0)
(0 0 0)
(0 0 0)
(0 0 0)
(0 0 0)
(0 0 0)
(0 0 0)
(0 0 0)
(-1.82567e-05 -2.04212e-05 9.06098e-07)
(-3.98708e-05 -3.85673e-05 1.85898e-06)
(-6.09389e-05 -5.08321e-05 2.73857e-06)
(-7.69899e-05 -5.74933e-05 3.60969e-06)
(-8.59668e-05 -5.8716e-05 4.38386e-06)
(-8.80191e-05 -5.55578e-05 4.9954e-06)
(-8.43646e-05 -4.92693e-05 5.41003e-06)
(-7.64432e-05 -4.09842e-05 5.48224e-06)
(-6.58569e-05 -3.17281e-05 4.98164e-06)
(-5.31833e-05 -2.22235e-05 3.5354e-06)
(-3.81527e-05 -1.31562e-05 1.06157e-06)
(-2.25468e-05 -5.30166e-06 -1.71158e-06)
(-1.03892e-05 -7.09464e-07 -2.74863e-06)
(-2.59361e-06 2.05211e-07 -1.3375e-06)
(-8.2684e-08 2.95341e-07 -1.15097e-07)
(0 0 0)
(-3.62924e-05 -3.7765e-05 1.74236e-06)
(-7.96863e-05 -7.14267e-05 3.51716e-06)
(-0.00012161 -9.36624e-05 5.05889e-06)
(-0.000153656 -0.000105173 6.64965e-06)
(-0.000172789 -0.00010706 8.15621e-06)
(-0.000178989 -0.000100928 9.33248e-06)
(-0.000174277 -8.88546e-05 1.00455e-05)
(-0.000160709 -7.30339e-05 1.01629e-05)
(-0.000140024 -5.5722e-05 9.46773e-06)
(-0.000112825 -3.868e-05 7.41753e-06)
(-8.03784e-05 -2.29011e-05 3.46423e-06)
(-4.93379e-05 -8.87657e-06 -2.29816e-06)
(-2.6868e-05 -5.60438e-07 -6.37419e-06)
(-8.34084e-06 -5.69675e-07 -3.89179e-06)
(1.87678e-06 6.72776e-07 -7.26474e-07)
(0 0 0)
(-5.38602e-05 -4.85548e-05 2.39183e-06)
(-0.000119249 -9.21101e-05 4.74059e-06)
(-0.000182683 -0.000121078 6.83771e-06)
(-0.000231102 -0.000135583 8.86749e-06)
(-0.000261594 -0.000137539 1.07435e-05)
(-0.000275104 -0.000128403 1.21977e-05)
(-0.000272374 -0.000111196 1.29552e-05)
(-0.00025494 -8.89415e-05 1.29768e-05)
(-0.000224297 -6.58772e-05 1.21518e-05)
(-0.000180768 -4.44311e-05 1.01169e-05)
(-0.000127877 -2.44617e-05 5.69728e-06)
(-7.82218e-05 -5.59827e-06 -2.51927e-06)
(-4.45807e-05 5.2269e-06 -1.01942e-05)
(-5.31805e-06 8.76584e-07 -1.57709e-06)
(9.36102e-06 -4.67308e-07 -1.5357e-06)
(0 0 0)
(0 0 0)
(0 0 0)
(0 0 0)
(0 0 0)
(0 0 0)
(0 0 0)
(0 0 0)
(0 0 0)
(0 0 0)
(0 0 0)
(0 0 0)
(0 0 0)
(0 0 0)
(0 0 0)
(0 0 0)
(-1.99132e-05 -1.85964e-05 1.67443e-06)
(-4.21853e-05 -3.55928e-05 3.37795e-06)
(-6.21223e-05 -4.78412e-05 4.95076e-06)
(-7.53602e-05 -5.52509e-05 6.52881e-06)
(-8.01038e-05 -5.72962e-05 7.9576e-06)
(-7.75879e-05 -5.50892e-05 9.10114e-06)
(-6.91309e-05 -4.95626e-05 9.78184e-06)
(-5.63236e-05 -4.17011e-05 9.81618e-06)
(-4.18731e-05 -3.2606e-05 8.81853e-06)
(-2.72863e-05 -2.33797e-05 6.17646e-06)
(-1.45183e-05 -1.52171e-05 1.87553e-06)
(-7.80621e-06 -7.37914e-06 -3.59085e-06)
(-6.89597e-06 -1.53617e-06 -6.34079e-06)
(-3.73067e-06 2.1671e-07 -3.49865e-06)
(1.05055e-10 6.60074e-07 -3.53914e-07)
(0 0 0)
(-3.92037e-05 -3.48245e-05 3.25317e-06)
(-8.38017e-05 -6.66165e-05 6.48958e-06)
(-0.000123801 -8.84767e-05 9.33381e-06)
(-0.000151046 -0.00010151 1.21682e-05)
(-0.000162716 -0.000105526 1.48134e-05)
(-0.000160458 -0.000101477 1.68886e-05)
(-0.000146417 -9.11298e-05 1.82293e-05)
(-0.000123771 -7.60817e-05 1.8432e-05)
(-9.559e-05 -5.78234e-05 1.69197e-05)
(-6.32715e-05 -3.9915e-05 1.31939e-05)
(-3.28546e-05 -2.45532e-05 6.37751e-06)
(-1.73811e-05 -1.05993e-05 -4.86583e-06)
(-2.35315e-05 -2.21523e-06 -1.52858e-05)
(-1.69552e-05 -5.06331e-06 -1.26406e-05)
(1.19363e-05 6.79244e-07 -2.57397e-06)
(0 0 0)
(-5.80293e-05 -4.5004e-05 4.45575e-06)
(-0.000124452 -8.57373e-05 8.7144e-06)
(-0.000185142 -0.000113842 1.25445e-05)
(-0.000227314 -0.000129956 1.62172e-05)
(-0.000247328 -0.000134648 1.95234e-05)
(-0.000248358 -0.000128919 2.20485e-05)
(-0.000232722 -0.000114453 2.33975e-05)
(-0.000203284 -9.35189e-05 2.34147e-05)
(-0.000162415 -6.85141e-05 2.16824e-05)
(-0.000111932 -4.38535e-05 1.78593e-05)
(-6.11848e-05 -2.1686e-05 9.89073e-06)
(-3.20342e-05 -2.13671e-06 -5.07896e-06)
(-3.92338e-05 7.02006e-06 -1.98407e-05)
(-1.72218e-06 -2.95571e-06 -5.58656e-06)
(3.14287e-05 -8.52393e-06 -2.56675e-06)
(-1.68691e-06 3.3523e-08 -3.14613e-07)
(-3.97221e-08 4.58203e-09 -2.468e-08)
(-4.18862e-07 3.15284e-08 -2.19926e-07)
(-3.78082e-07 -2.65752e-07 -2.29552e-07)
(-1.77516e-07 6.45724e-08 -1.64381e-07)
(-2.3405e-07 5.2408e-08 -2.71988e-07)
(0 0 0)
(-3.88342e-06 -2.1345e-07 -1.48632e-34)
(0 0 0)
(-7.40889e-08 2.09854e-09 1.06436e-17)
(0 0 0)
(-3.50909e-06 1.24605e-08 -7.81087e-27)
(-9.48934e-06 -5.47925e-07 -1.1704e-06)
(-1.1249e-06 6.67332e-08 -1.17907e-29)
(-1.27107e-06 8.92205e-08 -3.75543e-07)
(-1.56353e-08 3.63079e-08 -2.035e-08)
(-2.51544e-06 1.34166e-07 -1.35194e-28)
(-3.89893e-06 1.58938e-08 -1.08888e-06)
(1.5169e-07 7.20612e-08 -9.71084e-08)
(-4.68906e-06 6.67365e-07 -4.68703e-07)
(1.96203e-06 2.323e-07 -4.30023e-07)
(0 0 0)
(-4.67369e-06 -3.03891e-07 -1.24893e-06)
(0 0 0)
(-8.39989e-07 1.11619e-07 -4.36369e-07)
(0 0 0)
(6.99541e-09 -6.28264e-09 -3.04153e-09)
(-5.81363e-06 3.88363e-08 -2.19635e-06)
(-7.64548e-07 1.72856e-07 -5.35716e-07)
(-5.22079e-06 -3.57211e-08 -2.58546e-06)
(-3.3648e-06 2.62789e-07 -2.47087e-06)
(1.95354e-07 7.77995e-07 -3.87902e-07)
(-3.63681e-08 5.85748e-07 -2.44548e-07)
(-1.56309e-06 -5.72532e-07 -1.7462e-06)
(-9.31657e-06 -4.45977e-07 -3.92665e-06)
(5.96588e-06 -5.06279e-07 -1.17493e-06)
(7.1777e-06 1.35475e-06 2.88764e-06)
(-3.14128e-06 -5.30844e-08 -3.13691e-06)
(1.95786e-05 -3.81352e-06 -2.2069e-06)
(0 0 0)
(-1.05081e-06 1.9734e-07 -1.07849e-06)
(0 0 0)
(-2.76578e-09 4.0207e-09 -8.67132e-09)
(-1.39023e-06 3.09656e-07 -1.49059e-06)
(-3.54199e-06 -1.76172e-07 -4.06078e-06)
(-2.64219e-08 4.2936e-07 -4.02544e-07)
(2.44608e-05 -3.53235e-06 2.68219e-06)
(3.23934e-06 -7.39505e-06 -7.15545e-06)
(4.39946e-05 -1.27312e-05 -2.37764e-06)
(-4.16983e-06 -2.34753e-07 -5.1247e-07)
(-4.04611e-07 4.0756e-08 -1.15676e-07)
(-4.27632e-06 2.02873e-08 -8.09812e-07)
(-2.34344e-06 6.83472e-08 -8.89078e-07)
(7.88532e-09 -9.80294e-09 -1.50843e-09)
(-2.08225e-07 3.37198e-08 -1.04676e-07)
(-1.18884e-07 2.95538e-08 -8.8144e-08)
(-2.47158e-06 7.46043e-08 -7.18194e-07)
(-1.38011e-08 9.6273e-08 -5.4461e-08)
(-5.61654e-07 -6.94087e-08 -3.14371e-07)
(-1.55086e-06 1.10676e-07 -1.22131e-06)
(-4.99871e-06 1.52656e-07 -1.18755e-06)
(7.16849e-07 -1.05669e-07 -1.84508e-07)
(1.33291e-06 4.8614e-07 1.28642e-06)
(1.23708e-06 -1.10659e-06 -9.28984e-07)
(-1.01427e-06 1.70253e-07 -7.76764e-07)
(2.18259e-09 2.90557e-09 -5.59548e-09)
(-1.11862e-06 3.18001e-07 -1.04271e-06)
(-2.08093e-07 6.93044e-08 -2.23662e-07)
(1.54727e-05 -2.75373e-08 3.09315e-06)
(-9.22094e-07 1.06787e-07 -1.24314e-06)
(-1.12693e-08 -3.16699e-09 -1.00069e-08)
(-1.52104e-06 5.86944e-08 -1.72574e-06)
(3.32451e-05 -8.63494e-06 1.94134e-06)
(-1.21649e-06 5.50717e-09 2.2269e-25)
(0 0 0)
(0 0 0)
(0 0 0)
(0 0 0)
(-1.18442e-09 -4.67098e-10 -7.28034e-09)
(-7.90013e-06 -1.31219e-08 -1.46946e-06)
(-2.78178e-07 2.88591e-08 -7.19192e-08)
(-1.64881e-05 1.10797e-06 -2.79587e-06)
(-7.33447e-07 -4.2588e-10 -1.76636e-07)
(-1.80957e-07 1.06856e-07 7.17653e-07)
(5.18512e-06 -3.42652e-06 -2.53324e-06)
(1.18717e-05 2.09601e-06 4.98871e-06)
(1.27848e-05 -1.12211e-05 -5.73658e-06)
(3.18139e-05 -2.43147e-06 4.63256e-06)
(-2.19703e-07 1.46377e-08 -2.98272e-08)
(1.24803e-08 -9.17027e-09 -1.08906e-10)
(-1.01436e-07 -6.58372e-10 -2.13328e-08)
(-1.76789e-09 -9.46415e-10 -6.69561e-09)
(1.48687e-08 -8.39449e-09 -9.5842e-11)
(-7.51154e-09 1.16465e-09 -8.70684e-09)
(-4.85821e-07 2.57588e-08 -1.23596e-07)
(-1.07903e-08 -1.97247e-09 -1.30187e-08)
(-5.80791e-10 -1.33063e-08 -1.46627e-08)
(-8.57675e-07 -1.01003e-08 -1.28078e-07)
(5.74525e-08 -3.05748e-08 7.49572e-09)
(3.70576e-07 6.6519e-07 6.29041e-07)
(4.38432e-06 1.62065e-06 3.84856e-06)
(4.74682e-06 4.91189e-06 2.42731e-06)
(1.44758e-08 -8.28489e-09 -6.71055e-12)
(1.4288e-08 -8.28183e-09 4.00772e-11)
(1.26243e-05 5.61926e-06 2.54861e-06)
(2.20861e-05 1.00152e-06 5.38427e-06)
(2.28777e-05 2.81041e-06 2.58576e-06)
(1.41705e-08 -8.22236e-09 2.07816e-11)
(3.46159e-05 -1.86778e-06 2.64081e-06)
(0 0 0)
(1.57196e-09 3.92358e-10 9.7487e-10)
(0 0 0)
(-1.5332e-05 -7.8423e-07 1.64162e-35)
(-2.80585e-07 1.27297e-08 4.85498e-21)
(-4.42324e-08 4.47915e-09 3.824e-21)
(-8.29299e-07 5.62388e-08 -4.75926e-28)
(-7.58419e-07 5.69369e-08 -1.28144e-07)
(3.98827e-10 2.38115e-10 -4.25194e-09)
(-9.79957e-06 1.45608e-07 8.99089e-37)
(-2.983e-05 3.61434e-07 -1.27995e-42)
(-2.40286e-05 -6.27173e-07 -2.68123e-06)
(-1.42902e-06 6.75664e-08 -2.47401e-29)
(-1.57735e-07 1.14119e-08 1.56538e-20)
(-2.14027e-06 8.94263e-08 -8.25564e-29)
(-2.41076e-06 7.05145e-08 -3.95394e-07)
(1.05548e-08 -3.82267e-09 -9.53279e-09)
(-1.70575e-05 1.75127e-06 4.54494e-35)
(-4.0092e-05 2.92613e-06 -4.43055e-06)
(-2.84528e-06 2.13108e-07 -2.64161e-28)
(-2.90699e-07 8.69647e-09 2.4072e-20)
(-3.43018e-06 3.39998e-07 -8.13614e-28)
(-3.85773e-06 3.90816e-07 -2.99229e-07)
(1.6735e-07 3.87063e-09 -5.42712e-08)
(-1.77737e-05 -1.09537e-06 -4.4955e-06)
(-1.70221e-05 2.48763e-08 -5.76653e-06)
(-3.59988e-05 1.80968e-06 -8.23623e-06)
(-1.28893e-05 -2.21848e-06 -8.12246e-06)
(6.78913e-06 1.03142e-06 -1.78957e-06)
(-2.59811e-05 3.73775e-06 -8.0149e-06)
(-4.45821e-05 6.57028e-06 -1.54575e-05)
(-5.20641e-06 9.02105e-07 -8.55948e-07)
(3.0407e-06 5.84191e-07 1.64447e-06)
(-1.54964e-06 1.69455e-06 4.47665e-07)
(-4.65445e-06 5.54787e-07 -2.37291e-06)
(5.2092e-06 3.64921e-07 -9.82697e-07)
(8.20718e-06 1.75241e-06 1.45924e-06)
(8.99167e-06 1.2118e-06 -1.61672e-06)
(1.41903e-05 -1.74528e-06 -1.94137e-06)
(-7.15744e-07 -4.19841e-06 -6.57276e-06)
(-1.45109e-05 -5.92717e-06 -1.13541e-05)
(-1.7585e-05 -7.88628e-06 -1.50251e-05)
(2.42701e-05 -4.34383e-06 -2.83145e-06)
(1.55592e-05 -1.05829e-06 -2.83848e-06)
(-3.06934e-05 2.45031e-06 -1.67507e-05)
(-2.4221e-05 5.5548e-06 -2.18385e-05)
(-2.34134e-06 -1.20495e-06 -4.3022e-06)
(1.50255e-05 -3.59259e-06 1.81704e-07)
(7.54006e-06 -9.26439e-07 -1.91818e-06)
(3.82098e-07 -5.03413e-06 -6.4315e-06)
(2.51911e-05 -5.9286e-06 -2.44465e-06)
(2.8024e-05 -4.91941e-06 1.18912e-06)
(3.0353e-05 -7.45818e-06 -2.79134e-06)
(3.73888e-05 -1.03945e-05 -2.57404e-06)
(-8.88148e-07 5.3951e-08 -2.03638e-07)
(-1.35779e-06 1.62774e-08 -1.3254e-07)
(-7.97216e-07 1.97123e-08 -1.46618e-07)
(-1.5302e-07 1.94118e-08 -5.62084e-08)
(4.96417e-09 -7.60717e-09 -6.006e-09)
(-1.15994e-07 1.81116e-08 -5.8762e-08)
(-8.25555e-08 1.50631e-08 -5.37243e-08)
(-5.96691e-09 5.5958e-10 -8.33022e-09)
(2.65398e-09 -2.91987e-09 -5.64909e-09)
(-3.11862e-07 4.01847e-08 -1.58041e-07)
(-1.08906e-06 5.4898e-08 -4.18727e-07)
(-1.3167e-07 3.79559e-08 -1.10269e-07)
(-5.03182e-07 -6.07619e-09 -2.71356e-07)
(-5.2027e-08 5.47795e-09 -2.48427e-08)
(-5.4751e-07 -1.6438e-07 -3.1688e-07)
(-1.94115e-06 -1.86761e-07 -5.99481e-07)
(3.73709e-07 -1.94564e-07 -9.46459e-08)
(2.11057e-07 -1.03633e-07 1.88715e-07)
(-9.31434e-08 -2.72783e-08 -3.95074e-08)
(3.25597e-06 2.08508e-06 3.69366e-06)
(-1.51022e-07 4.7669e-08 -1.2623e-07)
(-2.81314e-08 1.57337e-08 -3.76328e-08)
(-1.95285e-07 7.08557e-08 -1.96521e-07)
(-2.20668e-08 9.11721e-09 -2.96378e-08)
(2.18398e-05 4.4526e-06 7.22716e-06)
(-2.20557e-07 6.27535e-08 -2.48179e-07)
(-6.03764e-08 9.13908e-09 -6.51915e-08)
(-3.34576e-08 1.29057e-08 -5.29543e-08)
(4.71831e-05 -2.22472e-06 7.20756e-06)
(-5.44419e-07 6.48664e-09 1.5258e-25)
(0 0 0)
(0 0 0)
(-1.5902e-07 1.14059e-08 -2.45381e-08)
(-4.40755e-07 1.71209e-08 5.85158e-21)
(-4.79508e-09 1.9978e-09 -4.30065e-09)
(-1.6575e-07 1.87948e-08 -4.86151e-08)
(0 0 0)
(0 0 0)
(1.88203e-09 -3.83705e-09 -3.26392e-09)
(-2.35563e-08 3.68693e-09 -1.30366e-08)
(-1.51299e-06 7.59003e-08 -2.52464e-07)
(-9.61731e-08 1.05794e-08 1.00391e-20)
(-7.665e-07 6.72031e-08 -2.23709e-07)
(-5.48608e-07 6.12578e-08 -2.07501e-07)
(-1.84893e-06 9.435e-08 -5.44462e-07)
(-1.48839e-10 2.33114e-09 -6.69548e-09)
(-1.28351e-09 7.86975e-09 -9.31948e-09)
(-7.0718e-08 2.39961e-08 -5.0518e-08)
(-2.78632e-08 7.22929e-08 -3.50956e-08)
(-7.88711e-08 -2.5476e-09 -3.70192e-08)
(-3.296e-06 1.36756e-07 -4.74135e-07)
(-2.30762e-07 7.68013e-09 1.81558e-20)
(-3.16716e-06 4.22665e-08 -9.08773e-07)
(-1.67558e-06 -5.84579e-08 -6.24369e-07)
(-4.5625e-06 3.46344e-08 -1.20351e-06)
(5.36508e-08 -2.66726e-08 -1.47178e-08)
(3.48115e-08 1.06148e-07 -7.44623e-08)
(-6.98348e-08 -3.23849e-08 -1.58873e-07)
(3.53274e-07 9.855e-09 -1.29747e-07)
(4.16379e-08 -4.81231e-09 1.1512e-07)
(-5.15638e-06 3.85891e-07 -1.00459e-06)
(-3.87832e-07 2.61576e-07 7.56886e-07)
(-3.4672e-06 9.07782e-07 5.34637e-07)
(1.27583e-06 -9.58942e-08 -2.85498e-07)
(1.66362e-06 8.93793e-07 8.23471e-07)
(2.44114e-06 1.18065e-06 -5.0787e-07)
(-1.21638e-08 2.721e-09 -1.67258e-08)
(0 0 0)
(0 0 0)
(8.59001e-09 -9.17439e-09 -1.70013e-09)
(-1.04241e-08 5.32036e-10 -1.99046e-08)
(4.12006e-09 -1.07119e-09 -4.49326e-09)
(3.96924e-06 1.39415e-06 2.40926e-06)
(1.09392e-05 4.56285e-06 6.12435e-06)
(1.10784e-05 1.00039e-06 3.05243e-06)
(9.099e-06 -4.61796e-07 1.37131e-06)
(3.06776e-06 1.3733e-06 -2.54564e-07)
(1.73772e-05 -5.39626e-07 1.36564e-06)
(1.88621e-05 -2.25614e-06 -2.46121e-06)
(-2.84558e-08 1.26255e-08 -4.15816e-08)
(0 0 0)
(0 0 0)
(-8.06605e-11 5.11636e-09 -7.18986e-09)
(-4.17109e-08 1.89343e-08 -5.28633e-08)
(-5.25499e-09 1.48862e-09 -9.57309e-09)
(2.0211e-05 -1.29932e-06 3.00554e-06)
(3.4622e-05 2.24866e-06 7.55762e-06)
(2.92377e-05 -5.61165e-06 2.3732e-06)
(2.21205e-05 -8.4129e-06 -9.82702e-07)
(1.45363e-05 -5.27832e-06 -3.19042e-06)
(3.89447e-05 -9.77524e-06 1.08228e-06)
(4.30096e-05 -1.26087e-05 -2.5947e-06)
(-6.21911e-07 1.14417e-08 -6.11e-08)
(-2.71199e-08 4.18532e-09 -9.09543e-09)
(2.44458e-09 -9.1211e-10 -5.94424e-09)
(-2.73366e-08 -2.52781e-09 -2.45305e-10)
(-5.1181e-08 6.88522e-09 -2.24566e-08)
(-1.61903e-05 -8.59312e-07 -1.90622e-06)
(-1.12397e-06 7.19232e-08 -1.88982e-07)
(-1.19256e-05 1.61953e-07 -2.1165e-06)
(-1.07108e-05 -1.80764e-07 -3.85917e-06)
(-1.93219e-06 6.99524e-08 -3.20553e-07)
(-1.84352e-07 1.88172e-08 -4.72555e-08)
(-3.70109e-08 5.42201e-09 -1.85804e-08)
(-3.75503e-07 2.84544e-08 -9.58668e-08)
(-8.06992e-07 6.86936e-08 -3.08465e-07)
(-8.2729e-10 2.32607e-09 -5.24556e-09)
(-3.17742e-05 7.64412e-07 -3.42742e-06)
(-2.87005e-06 7.96108e-08 -4.5091e-07)
(-1.99748e-05 2.43685e-06 -3.27109e-06)
(-2.2642e-05 1.46873e-06 -7.19031e-06)
(-3.64283e-06 2.53816e-07 -4.39864e-07)
(-6.0112e-07 1.36907e-08 -1.48912e-07)
(-8.96883e-08 -1.2396e-08 -4.13725e-08)
(-8.10559e-07 -1.13529e-08 -1.71327e-07)
(-1.9072e-06 -1.41351e-07 -6.72315e-07)
(2.58808e-08 -9.7915e-09 -1.14475e-08)
(-3.66729e-06 5.09955e-07 1.31631e-07)
(-2.64989e-06 1.39555e-06 7.13125e-07)
(-7.11517e-07 3.2002e-08 6.39548e-08)
(6.19694e-07 3.09724e-07 9.96003e-07)
(1.65505e-06 8.59841e-07 2.61038e-06)
(4.72453e-07 2.75829e-07 -1.38833e-07)
(-1.75301e-08 6.02249e-09 -2.30554e-08)
(-1.10859e-06 -1.81178e-06 -4.08492e-06)
(-1.18262e-05 -2.22395e-06 -7.45048e-06)
(-2.90079e-05 3.71761e-06 -1.24115e-05)
(1.49168e-05 -2.09718e-06 -2.26928e-06)
(5.68429e-06 2.01497e-07 1.54621e-06)
(9.56006e-06 -6.66558e-06 -4.12736e-06)
(1.25365e-05 1.01589e-06 1.39109e-06)
(1.22632e-05 -1.72085e-06 9.0124e-07)
(2.25725e-05 -2.33505e-06 1.25834e-06)
(2.54396e-07 1.67647e-06 6.52733e-08)
(5.45317e-06 5.30417e-07 -9.69845e-07)
(7.91027e-06 2.24532e-06 4.65865e-06)
(1.61148e-05 4.84445e-06 6.77301e-06)
(1.71298e-05 1.94004e-06 5.43374e-06)
(1.37414e-05 -1.76356e-07 -2.10893e-06)
(-2.98864e-08 1.25434e-08 -4.62794e-08)
(2.39155e-07 -6.68063e-06 -7.93796e-06)
(-1.31352e-05 -9.80691e-06 -1.36487e-05)
(-2.48384e-05 -4.54919e-07 -1.90011e-05)
(3.26251e-05 -7.11425e-06 -2.94251e-06)
(1.83755e-05 -5.81057e-06 -4.31305e-07)
(3.34487e-05 -6.98259e-06 1.06728e-06)
(1.07592e-05 -2.83327e-06 -2.57448e-06)
(2.72549e-05 -2.50905e-07 5.18086e-06)
(4.1397e-05 4.37376e-07 7.49947e-06)
(3.74747e-05 -4.89421e-06 4.32166e-06)
(3.66654e-05 -9.51062e-06 -2.77254e-06)
(-5.65354e-07 2.8364e-08 -7.22313e-08)
(-4.01485e-07 2.81756e-08 -9.07899e-08)
(-4.0856e-07 2.76045e-08 -6.6993e-08)
(1.29221e-09 -2.01449e-09 -5.27541e-09)
(1.4682e-08 -8.79965e-09 -1.95606e-10)
(-1.62246e-08 -1.30629e-09 -1.05743e-08)
(-3.22498e-07 3.85659e-08 -1.18055e-07)
(-3.04953e-08 7.25678e-09 -2.58679e-08)
(5.26183e-10 -1.71827e-09 -4.55381e-09)
(-4.58291e-09 7.81316e-10 -6.89078e-09)
(-4.89205e-09 -5.44286e-10 -1.04121e-08)
(-1.59406e-09 -5.18001e-09 -1.18251e-08)
(1.46717e-08 -8.28994e-09 -5.09584e-11)
(-1.03409e-08 1.03961e-09 -1.07642e-08)
(-1.08831e-07 3.77047e-08 -7.8833e-08)
(-6.48275e-08 2.34646e-09 -3.09171e-08)
(-1.37911e-06 8.34222e-09 -5.24463e-07)
(-1.2599e-07 1.78002e-08 -1.39493e-07)
(1.87254e-09 1.39724e-09 -7.94385e-09)
(-9.17876e-09 -5.02252e-09 -1.46648e-08)
(1.7457e-08 -2.22667e-08 -9.9293e-09)
(7.39672e-08 -1.12484e-07 -1.54163e-07)
(-5.73047e-08 -3.34976e-08 -7.34678e-09)
(-1.50266e-06 -5.09847e-08 -1.92753e-07)
(9.16439e-07 -3.98806e-08 1.3144e-07)
(9.21077e-08 -3.00086e-08 -2.39405e-08)
(1.18631e-07 6.63389e-08 8.494e-08)
(1.02677e-06 6.26986e-07 1.45754e-06)
(4.55041e-06 1.85315e-06 1.33952e-06)
(2.21436e-06 2.98188e-06 1.94751e-06)
(6.66557e-06 3.8998e-06 5.21557e-06)
(5.24647e-06 1.74156e-06 -9.71548e-07)
(8.32606e-06 6.07132e-06 2.57018e-06)
(-2.01503e-08 8.55527e-09 -2.89325e-08)
(1.43558e-08 -8.28459e-09 2.73986e-11)
(-2.57343e-08 1.14318e-08 -3.59177e-08)
(-3.55861e-08 1.94998e-08 -4.60345e-08)
(1.42224e-08 -8.26163e-09 3.97684e-11)
(1.75328e-05 4.70697e-06 2.57889e-06)
(2.84076e-05 3.74942e-06 7.56612e-06)
(2.43829e-05 -4.44363e-06 -2.62769e-06)
(2.8682e-05 9.28103e-07 2.58791e-06)
(-4.85283e-08 1.49488e-08 -5.86857e-08)
(1.40624e-08 -8.14089e-09 -1.28786e-11)
(4.06299e-05 -4.08761e-06 2.79914e-06)
(-6.40929e-06 -1.15358e-08 -1.69181e-31)
(-1.31617e-05 7.36625e-07 6.44202e-36)
(-6.91856e-08 8.26881e-09 7.08897e-21)
(-1.9128e-07 8.6065e-09 1.67746e-20)
(-3.05871e-07 -6.39351e-09 2.00667e-20)
(-1.38259e-07 7.39843e-09 1.62122e-20)
(-2.70328e-08 -8.35482e-09 1.8185e-16)
(-1.22977e-07 1.02222e-08 1.22883e-20)
(-2.55681e-07 7.6731e-09 2.01686e-20)
(0 0 0)
(0 0 0)
(6.31676e-09 2.39281e-09 -4.98784e-09)
(-2.46361e-06 1.22347e-07 -1.59315e-06)
(-1.50423e-07 3.91272e-08 -1.1052e-07)
(-2.29882e-06 1.25035e-07 -2.73442e-06)
(-1.47083e-06 -8.10876e-08 -2.53392e-06)
(-1.79694e-07 5.69861e-08 -2.15716e-07)
(-3.02888e-06 -1.34394e-06 -4.91255e-06)
(-2.29945e-08 3.83012e-09 -4.00363e-09)
(-1.16379e-06 4.90065e-08 -1.47108e-07)
(-4.07141e-10 -1.35412e-10 -3.63995e-09)
(-9.65441e-08 1.62836e-08 -4.83089e-08)
(-7.63762e-08 3.17793e-08 -6.36933e-08)
(-3.67791e-10 -2.38379e-11 -3.58558e-09)
(-3.20978e-10 -8.28595e-11 -3.74192e-09)
(-2.05727e-10 -1.28573e-10 -3.81614e-09)
(6.4171e-10 2.45983e-11 -3.95625e-09)
(2.14694e-10 5.53762e-09 -3.59249e-09)
(-1.66528e-07 1.19028e-07 -1.63559e-07)
(-1.76216e-07 5.5779e-08 -1.69836e-07)
(-2.31313e-07 1.81343e-07 -2.64534e-07)
(-2.96275e-07 1.45912e-07 -3.31839e-07)
(1.16112e-09 3.12291e-11 -7.01599e-09)
(6.90663e-09 -5.80883e-09 -3.33092e-09)
(1.3326e-09 8.9486e-10 -7.51737e-09)
(-1.1323e-08 2.23769e-09 -5.17943e-09)
(-1.7446e-08 3.08234e-09 -6.83301e-09)
(-3.96829e-08 2.61961e-09 -1.30353e-08)
(-4.84696e-08 8.31026e-10 -1.54429e-08)
(-4.5995e-08 -1.04939e-08 9.33502e-09)
(-9.30182e-08 7.51374e-09 -9.50102e-09)
(2.71047e-09 -4.15442e-10 -3.72552e-09)
(6.54541e-10 -1.59145e-09 -4.51512e-09)
(1.00018e-08 -1.1511e-08 -5.67925e-10)
(2.06477e-10 -4.25099e-11 -6.51443e-09)
(1.22032e-08 -1.98616e-09 -1.43639e-10)
(-7.45353e-08 -5.30196e-09 9.78814e-09)
(-7.94683e-09 -5.13568e-10 -4.02855e-09)
(-1.94952e-08 -6.17289e-09 -1.04571e-08)
(-1.11587e-10 -7.30935e-10 -5.25055e-09)
(8.00264e-10 -2.48742e-10 -4.50521e-09)
(-1.50952e-09 -5.14308e-10 -6.45173e-09)
(1.20508e-08 -1.44408e-09 -1.63175e-10)
(1.13496e-08 -1.11865e-08 -4.13492e-10)
(1.14009e-08 -1.1449e-08 -4.54253e-10)
(1.22781e-08 -1.56714e-09 -8.75512e-11)
(8.92928e-10 -1.2635e-11 -4.48442e-09)
(-3.68579e-10 -1.11826e-11 -3.61596e-09)
(8.74728e-10 1.06846e-12 -4.63264e-09)
(-3.06201e-08 3.20777e-09 -1.03503e-08)
(-2.38699e-08 3.30511e-09 -8.55573e-09)
(-3.56635e-10 -3.16716e-11 -3.67159e-09)
(8.92101e-10 -6.01211e-11 -5.05564e-09)
(8.71423e-10 -2.11774e-11 -4.82602e-09)
(9.44133e-10 -1.28576e-10 -5.32621e-09)
(-1.65197e-11 -2.25043e-10 -3.88602e-09)
(1.07593e-09 -2.29593e-10 -5.64806e-09)
(-5.67638e-08 -3.79599e-09 -1.20194e-08)
(-5.59378e-08 -2.26013e-09 -1.62547e-08)
(3.03211e-10 -3.32974e-10 -3.91584e-09)
(2.11277e-09 2.48834e-10 -5.88393e-09)
(1.43185e-09 -3.81468e-10 -5.85548e-09)
(5.12925e-09 8.91033e-09 -4.03797e-09)
(1.18088e-08 -1.41451e-09 -2.06331e-10)
(1.09016e-08 -1.08647e-08 -5.17192e-10)
(1.04644e-08 -1.05407e-08 -6.32071e-10)
(1.16597e-08 -1.40022e-09 -2.40304e-10)
(1.14339e-08 -1.34406e-09 -3.6394e-10)
(9.85748e-09 -1.02381e-08 -9.66922e-10)
(1.01386e-08 -1.03021e-08 -7.81082e-10)
(1.15435e-08 -1.37768e-09 -2.89722e-10)
(1.1355e-08 -1.31915e-09 -4.24023e-10)
(9.6816e-09 -1.03147e-08 -1.12781e-09)
(9.39177e-09 -1.05135e-08 -1.24414e-09)
(1.12583e-08 -1.2932e-09 -4.93586e-10)
(8.91489e-09 -1.08361e-08 -1.25718e-09)
(1.11008e-08 -1.22069e-09 -6.0119e-10)
(0 0 0)
(5.13592e-10 4.3924e-10 5.53353e-10)
(3.65783e-09 1.84085e-09 -5.5388e-17)
(0 0 0)
(-1.70125e-06 6.12129e-08 -1.85253e-26)
(-5.43821e-10 -7.57083e-11 -2.95693e-09)
(-2.31837e-10 -3.26594e-10 -3.02154e-09)
(3.19463e-09 -5.43912e-10 -4.12198e-09)
(0 0 0)
(0 0 0)
(0 0 0)
(-3.52266e-07 5.35053e-08 -1.83011e-07)
(0 0 0)
(-9.59254e-06 -1.03447e-06 -4.6033e-06)
(-5.97048e-08 1.47607e-07 -5.88827e-08)
(-2.67742e-08 7.96381e-08 -3.59583e-08)
(-3.15529e-07 1.99633e-07 -2.82963e-07)
(-7.38714e-08 4.55506e-07 -1.78489e-07)
(0 0 0)
(-2.91439e-06 -6.01569e-07 -2.8607e-06)
(0 0 0)
(0 0 0)
(0 0 0)
(-4.2584e-07 1.0235e-07 -4.51169e-07)
(0 0 0)
(-5.84878e-06 -2.31284e-07 -5.37978e-06)
(-2.86075e-06 -2.38248e-06 -7.27996e-06)
(-9.12298e-06 -1.28481e-06 -7.73451e-06)
(2.20462e-06 1.72216e-06 -1.37026e-06)
(-5.88574e-09 6.61253e-07 -3.06958e-07)
(-5.69267e-08 1.96417e-07 -1.06802e-07)
(-5.76355e-07 4.40845e-07 -8.14772e-07)
(-9.00636e-09 5.74149e-07 -3.82773e-07)
(-2.81696e-06 3.3111e-08 -5.31758e-07)
(-5.13645e-07 1.21982e-07 -4.2327e-07)
(-5.51701e-07 1.76693e-07 -4.93603e-07)
(-5.50456e-07 9.15014e-08 -6.82105e-07)
(-7.29524e-07 9.48596e-08 -8.02736e-07)
(1.01466e-11 7.27912e-10 -1.79055e-09)
(-7.48532e-09 -3.65614e-10 -1.82269e-18)
(-1.50455e-07 3.61488e-09 1.09456e-17)
(-7.69961e-08 2.50325e-09 -4.53352e-09)
(-1.72498e-07 1.02024e-08 2.09491e-17)
(-2.12298e-08 -1.28837e-09 2.21301e-15)
(6.82928e-11 -2.793e-10 -4.80402e-09)
(-3.71966e-06 1.61186e-08 -3.63933e-07)
(-2.20649e-06 8.14375e-09 -6.63442e-27)
(6.90619e-10 1.75892e-12 3.01283e-10)
(1.4911e-09 4.41413e-11 -3.91545e-09)
(-2.47935e-06 8.92509e-08 -5.81832e-07)
(-5.16007e-10 -6.32244e-11 -2.97197e-09)
(9.12677e-10 1.62413e-12 3.79952e-10)
(2.60728e-10 7.59287e-11 -5.29395e-09)
(9.27946e-10 -9.91894e-10 -3.06281e-09)
(1.21138e-09 -1.60548e-11 5.57457e-10)
(2.28542e-09 2.56984e-10 -4.86214e-09)
(0 0 0)
(1.11952e-09 8.69661e-10 -4.73325e-09)
(0 0 0)
(0 0 0)
(-6.61522e-07 7.20821e-08 -2.63491e-07)
(-3.90206e-07 7.16838e-08 -2.33449e-07)
(-9.48388e-07 1.46348e-07 -6.1125e-07)
(-4.17407e-07 8.46242e-08 -3.24593e-07)
(0 0 0)
(7.71046e-09 -1.06313e-08 -1.20111e-10)
(7.91032e-09 -7.91865e-09 -2.21947e-09)
(4.6382e-09 -6.09939e-09 -6.98856e-09)
(5.32416e-09 -3.45037e-09 -3.86322e-09)
(-4.97585e-07 9.09282e-08 -2.92613e-07)
(-3.79941e-07 9.38701e-08 -2.62678e-07)
(-9.68493e-07 2.59669e-07 -7.92463e-07)
(-4.13425e-08 1.76741e-07 -7.29764e-08)
(-4.51481e-07 4.101e-07 -5.68824e-07)
(0 0 0)
(-3.77825e-09 4.11628e-09 -1.17174e-08)
(0 0 0)
(0 0 0)
(-1.05055e-06 1.93453e-07 -9.38624e-07)
(-5.66425e-07 1.37286e-07 -5.83957e-07)
(-1.0075e-06 1.63524e-07 -1.17684e-06)
(-3.64601e-07 7.02703e-08 -5.21305e-07)
(0 0 0)
(7.27513e-09 -1.04003e-08 -6.24201e-11)
(-1.39916e-09 4.98414e-09 -7.98736e-09)
(-1.19243e-08 5.48115e-09 -1.95807e-08)
(-3.71535e-09 3.22214e-09 -9.19732e-09)
(-1.25718e-06 3.39493e-07 -1.28297e-06)
(-6.6941e-07 1.87042e-07 -6.89073e-07)
(-1.48507e-06 2.1145e-07 -1.63532e-06)
(-9.84426e-08 1.23036e-07 -1.22442e-07)
(-6.86987e-07 2.1347e-07 -9.37566e-07)
(9.08401e-09 -1.01014e-08 -2.38214e-09)
(5.55366e-09 -8.25662e-09 -1.8862e-09)
(7.22761e-09 -1.09309e-08 -6.73946e-10)
(8.46375e-09 -9.58407e-09 -1.49383e-09)
(-3.95952e-09 3.68468e-09 -1.34723e-08)
(2.99689e-09 1.30245e-09 -5.00975e-09)
(7.39931e-09 -1.04476e-08 -2.45481e-11)
(1.16553e-09 4.62386e-09 -6.37487e-09)
(-2.45123e-08 -1.66045e-09 -2.36825e-08)
(-7.55723e-09 -4.43858e-10 -9.79202e-09)
(7.06669e-09 -1.03586e-08 -9.79098e-11)
(-1.367e-08 -4.91679e-09 -1.01473e-08)
(-3.09239e-09 1.44017e-09 -7.6895e-09)
(8.75193e-10 2.00206e-10 -4.54267e-09)
(8.23124e-10 9.6821e-13 3.4237e-10)
(-3.25793e-10 -4.84145e-10 -6.22778e-09)
(1.04381e-09 2.95456e-12 4.40112e-10)
(5.73924e-09 -1.08919e-09 -1.68155e-09)
(0 0 0)
(0 0 0)
(0 0 0)
(-1.43039e-09 2.50911e-09 -8.00045e-09)
(0 0 0)
(0 0 0)
(0 0 0)
(-5.35592e-09 4.59368e-09 -1.50851e-08)
(0 0 0)
(0 0 0)
(0 0 0)
(-6.43213e-09 5.36401e-10 -7.269e-09)
(2.57277e-10 -1.65956e-10 -7.00362e-09)
(-5.7578e-09 -2.16943e-09 -7.70904e-09)
(3.14561e-09 -1.01479e-09 -6.82715e-09)
(6.61636e-10 5.00232e-10 -5.77513e-09)
(-2.04119e-07 2.27959e-08 -5.21125e-08)
(-9.96979e-08 1.32414e-08 -3.4008e-08)
(-2.92812e-07 2.76964e-08 -7.45214e-08)
(-1.202e-07 1.44401e-08 -1.9746e-08)
(-6.00933e-07 7.20835e-09 -1.45741e-07)
(-2.61712e-07 -9.5606e-09 -8.41821e-08)
(-7.02728e-07 -7.5638e-09 -1.61126e-07)
(-3.29088e-07 1.00182e-08 -5.18417e-08)
(-4.83995e-07 3.19101e-08 2.65029e-07)
(5.07767e-07 1.10716e-07 9.6583e-07)
(7.28396e-07 4.18879e-07 1.78053e-06)
(-3.52737e-07 -5.07235e-09 1.55454e-07)
(1.04832e-05 2.44414e-06 5.24313e-06)
(1.71134e-05 3.02372e-06 7.46998e-06)
(1.52109e-05 2.26388e-06 5.64526e-06)
(3.11251e-05 -9.08434e-07 5.49876e-06)
(4.34336e-05 -1.06635e-06 8.21618e-06)
(3.64613e-05 -3.19094e-06 5.0892e-06)
(-9.14521e-08 9.64796e-09 -1.63243e-08)
(-3.14088e-07 2.01285e-08 -4.24224e-08)
(-1.3159e-07 8.56809e-09 -1.06345e-08)
(-1.03071e-07 8.06161e-09 -1.48472e-08)
(1.12703e-08 -5.91846e-09 -2.52193e-09)
(7.1646e-09 -6.44276e-09 -2.66373e-09)
(1.41044e-08 -9.13969e-09 -2.20673e-10)
(3.36608e-09 -2.49502e-09 -1.13979e-09)
(-6.39087e-08 -4.22498e-09 2.0125e-09)
(-1.28996e-07 8.74358e-09 -3.17925e-08)
(-1.85149e-07 9.87086e-09 -3.22473e-08)
(-4.45903e-08 -3.78728e-09 -1.43456e-08)
(-5.26612e-08 -1.35609e-08 -8.44226e-09)
(-7.13722e-10 -1.42127e-09 -6.20902e-09)
(-5.64293e-09 -6.53615e-10 -8.15352e-09)
(-2.57032e-10 -1.29203e-09 -5.37024e-09)
(-3.09431e-09 1.32614e-10 -6.32555e-09)
(-2.12341e-10 -6.78403e-10 -4.97641e-09)
(1.48465e-08 -8.51764e-09 -1.43676e-10)
(1.69488e-08 -7.5348e-09 -1.88187e-09)
(1.29774e-08 -9.80797e-09 -2.18998e-09)
(1.47773e-08 -8.31245e-09 -7.99819e-11)
(-1.59717e-08 2.36417e-09 -1.2016e-08)
(-3.30681e-09 1.26072e-09 -6.62128e-09)
(-6.11186e-09 1.15765e-09 -7.77917e-09)
(-9.16862e-09 1.37649e-09 -9.76283e-09)
(9.29239e-11 -1.79241e-11 -4.26474e-09)
(-3.82794e-07 2.54342e-08 -9.64107e-08)
(-4.83742e-07 1.95473e-08 -1.19925e-07)
(-1.75267e-07 1.09253e-08 -5.87628e-08)
(-2.12615e-07 1.67347e-08 -3.40406e-08)
(-1.08207e-08 1.48076e-11 -1.20101e-08)
(-2.64786e-08 -8.04205e-10 -1.87848e-08)
(-2.69788e-09 -9.33682e-10 -9.72817e-09)
(-1.05035e-08 -3.17971e-09 -1.40789e-08)
(1.10147e-10 -7.22378e-11 -4.50995e-09)
(-2.7281e-08 -1.29365e-08 -2.23706e-08)
(1.44167e-08 -1.16005e-08 -1.13914e-08)
(-5.78593e-09 -8.29862e-09 -1.51244e-08)
(6.55518e-09 -1.76823e-08 -1.3267e-08)
(2.98351e-10 -2.17657e-10 -4.8594e-09)
(-7.57319e-07 -1.4614e-08 -1.40825e-07)
(-7.35079e-07 6.69476e-09 -5.13221e-08)