/*--------------------------------*- C++ -*----------------------------------*\
| =========                 |                                                 |
| \\      /  F ield         | OpenFOAM: The Open Source CFD Toolbox           |
|  \\    /   O peration     | Version:  2012                                  |
|   \\  /    A nd           | Website:  www.openfoam.com                      |
|    \\/     M anipulation  |                                                 |
\*---------------------------------------------------------------------------*/
FoamFile
{
    version     2.0;
    format      ascii;
    class       volVectorField;
    location    "0.105/fluid";
    object      U_0;
}
// * * * * * * * * * * * * * * * * * * * * * * * * * * * * * * * * * * * * * //

dimensions      [0 1 -1 0 0 0 0];


internalField   nonuniform List<vector> 
16421
(
(1.19991 2.24135e-05 2.25388e-05)
(1.19944 6.71079e-05 2.98393e-05)
(1.19904 3.9938e-05 8.54951e-06)
(1.19899 3.7109e-05 1.41231e-05)
(1.19873 3.82135e-05 2.02456e-05)
(1.19831 4.49089e-05 3.25245e-05)
(1.19768 5.99554e-05 5.02061e-05)
(1.1967 9.03337e-05 8.38398e-05)
(1.19511 0.000154819 0.000140165)
(1.19233 0.000309335 0.000250369)
(1.18695 0.000725589 0.00052716)
(1.17455 0.00204783 0.00155346)
(1.13716 0.00678561 0.00660128)
(0.987994 0.0180394 0.0318335)
(0.0656033 0.0214655 0.0510183)
(1.19993 3.57399e-07 2.21378e-05)
(1.19967 3.53056e-05 3.37556e-05)
(1.1994 7.06504e-05 1.31333e-05)
(1.19945 0.000107208 1.58094e-05)
(1.19927 0.000161324 2.14877e-05)
(1.19895 0.000248413 3.17041e-05)
(1.19845 0.000386244 4.99037e-05)
(1.19766 0.000619837 8.15066e-05)
(1.19638 0.00102058 0.000133781)
(1.19427 0.00176017 0.00023239)
(1.19064 0.0032372 0.000465986)
(1.18377 0.00658296 0.00125755)
(1.1685 0.0157753 0.00476132)
(1.12769 0.0462941 0.021155)
(0.580544 -0.0042993 0.0877886)
(1.19993 3.05734e-06 2.16677e-05)
(1.19966 6.81183e-05 4.00695e-05)
(1.19938 0.000122984 1.845e-05)
(1.19945 0.000181479 1.90288e-05)
(1.19931 0.000271043 2.38592e-05)
(1.19905 0.000411145 3.20189e-05)
(1.19865 0.000635822 4.86846e-05)
(1.19804 0.00100308 7.55791e-05)
(1.19709 0.00161551 0.000123081)
(1.19561 0.00266569 0.000204597)
(1.19331 0.00450446 0.000377282)
(1.18963 0.00776413 0.000914895)
(1.1826 0.0132636 0.00327933)
(1.16141 0.0199497 0.0150233)
(0.692443 0.0176111 0.0945975)
(1.19992 4.00406e-06 2.12303e-05)
(1.19966 8.30852e-05 4.62912e-05)
(1.19939 0.000146126 2.31841e-05)
(1.19947 0.000212885 2.28866e-05)
(1.19938 0.000318715 2.57015e-05)
(1.1992 0.000481653 3.18712e-05)
(1.19894 0.00073919 4.61547e-05)
(1.19855 0.00115246 6.75436e-05)
(1.19796 0.00181914 0.000108999)
(1.19708 0.0028807 0.000174066)
(1.19579 0.00455977 0.000297453)
(1.19364 0.00710303 0.000643635)
(1.18827 0.0105748 0.00219088)
(1.16459 0.0133457 0.0110508)
(0.671518 -0.00876124 0.0954281)
(1.19993 2.25282e-05 4.98733e-06)
(1.19964 6.6876e-05 6.4234e-05)
(1.19928 4.01375e-05 7.61162e-05)
(1.19925 3.70351e-05 9.38584e-05)
(1.19902 3.84108e-05 0.000134119)
(1.19866 4.36603e-05 0.000204128)
(1.19812 5.9028e-05 0.000319308)
(1.19731 8.83356e-05 0.000508401)
(1.19599 0.000149034 0.000826335)
(1.19374 0.000291955 0.00137822)
(1.18957 0.000675692 0.00238512)
(1.18091 0.00187567 0.00437528)
(1.15988 0.00631206 0.00873743)
(1.09953 0.0244283 0.0187109)
(0.846005 0.0946115 0.0232875)
(1.19995 5.79616e-08 5.20787e-06)
(1.19987 3.65261e-05 6.29089e-05)
(1.19965 7.17438e-05 7.39571e-05)
(1.19974 0.000106553 9.23395e-05)
(1.1996 0.000159659 0.000131871)
(1.19934 0.000243717 0.000198472)
(1.19893 0.000377532 0.000308927)
(1.19828 0.000599773 0.000490036)
(1.19726 0.000984172 0.000789885)
(1.19562 0.00168215 0.00129977)
(1.19298 0.00304588 0.00220587)
(1.18882 0.00598618 0.00390897)
(1.18342 0.0130258 0.00725115)
(1.18591 0.0301887 0.0136187)
(1.24135 0.0520903 0.0197949)
(1.19995 2.88718e-06 5.11646e-06)
(1.19987 6.91911e-05 6.11431e-05)
(1.19966 0.000123439 7.0636e-05)
(1.19977 0.000179995 8.76899e-05)
(1.19968 0.000266878 0.000124433)
(1.19948 0.00040312 0.000186305)
(1.19917 0.000619641 0.000285967)
(1.1987 0.000972831 0.00044795)
(1.19798 0.00155857 0.00071024)
(1.19689 0.0025509 0.00114223)
(1.19536 0.00425532 0.00187676)
(1.19355 0.00715372 0.00317895)
(1.1928 0.0115937 0.00553163)
(1.19962 0.0154201 0.00984195)
(1.23127 0.0101792 0.0113653)
(1.19995 3.89967e-06 5.15118e-06)
(1.19987 8.36604e-05 5.90958e-05)
(1.19969 0.000145307 6.66527e-05)
(1.19983 0.000211056 8.13038e-05)
(1.19979 0.000313868 0.000114477)
(1.19967 0.000472161 0.000168981)
(1.19949 0.000721798 0.000255901)
(1.19922 0.00111847 0.000393653)
(1.19883 0.00175202 0.00060726)
(1.19828 0.00275614 0.000946034)
(1.19757 0.00430833 0.0014954)
(1.19672 0.00652892 0.00242109)
(1.19557 0.0089476 0.00401275)
(1.19397 0.00745061 0.00689204)
(1.1999 -0.0399904 0.00931484)
(1.19993 2.30194e-05 7.48154e-06)
(1.19964 6.66999e-05 9.10764e-05)
(1.19929 4.00045e-05 0.00012107)
(1.1993 3.73101e-05 0.000156939)
(1.19909 3.81013e-05 0.000225564)
(1.19878 4.2457e-05 0.000343861)
(1.19834 5.65135e-05 0.000535604)
(1.19766 8.34056e-05 0.000849739)
(1.19659 0.000135758 0.00136845)
(1.1948 0.00025806 0.00223179)
(1.19153 0.000593319 0.00368131)
(1.18473 0.00167173 0.00609981)
(1.16723 0.00586824 0.00979059)
(1.10673 0.0239805 0.0133536)
(0.838027 0.0860841 0.00922558)
(1.19995 -3.2953e-08 7.59878e-06)
(1.19987 3.57389e-05 9.12703e-05)
(1.19967 6.96685e-05 0.0001193)
(1.19978 0.000103008 0.000154868)
(1.19968 0.000153832 0.000221955)
(1.19946 0.000231661 0.000335074)
(1.19913 0.000354913 0.000519608)
(1.19862 0.000557567 0.000819388)
(1.19782 0.000903299 0.00130804)
(1.19656 0.00152218 0.00210768)
(1.19461 0.00271 0.00341997)
(1.19172 0.00522508 0.00553341)
(1.18841 0.011207 0.00857059)
(1.19033 0.0269848 0.0109863)
(1.22838 0.061031 0.0067468)
(1.19995 2.83845e-06 7.51984e-06)
(1.19986 6.83737e-05 9.0065e-05)
(1.19968 0.000120544 0.000115872)
(1.19981 0.000174183 0.000148823)
(1.19975 0.000256031 0.000211584)
(1.1996 0.000383014 0.000315144)
(1.19936 0.000583064 0.00048295)
(1.199 0.000904554 0.000750338)
(1.19846 0.00143176 0.00117854)
(1.19768 0.002308 0.00185882)
(1.19667 0.00378411 0.00293554)
(1.19577 0.00622986 0.00459928)
(1.19662 0.00985219 0.0068822)
(1.20459 0.0127456 0.00832439)
(1.23084 0.00846226 0.00311544)
(1.19995 3.75103e-06 7.41354e-06)
(1.19987 8.22133e-05 8.82768e-05)
(1.1997 0.000141781 0.00011117)
(1.19987 0.000203705 0.000140567)
(1.19986 0.000300918 0.000196769)
(1.19977 0.00044868 0.000287877)
(1.19965 0.000679469 0.000433006)
(1.19947 0.00104189 0.000660439)
(1.19922 0.00160991 0.00101359)
(1.19889 0.00249186 0.00155195)
(1.19855 0.00381957 0.00237539)
(1.19832 0.00562239 0.00362044)
(1.19831 0.00721952 0.00538485)
(1.19749 0.00411129 0.00693228)
(1.19391 -0.0470342 0.00439492)
(0.237401 -0.054089 0.125947)
(1.10473 0.0561291 0.0256639)
(1.16378 0.266421 0.0615855)
(1.09243 0.0239995 0.0288489)
(0.952524 0.0596479 0.0321114)
(1.17559 0.0403255 0.0240202)
(1.19487 0.0907518 0.0344225)
(0.377111 -0.143351 0.0486554)
(0.872231 0.0587392 0.00216605)
(1.22244 0.124887 0.0147046)
(1.44649 0.119473 -0.026566)
(0.69324 0.00877142 0.093916)
(1.24462 0.082754 0.0227914)
(1.38828 0.0756042 -0.00132167)
(1.25897 0.0266372 0.0304454)
(1.33967 0.0173126 0.033029)
(0.682533 -0.0188206 0.0941087)
(1.25843 0.0127373 0.0301903)
(1.33358 0.00657834 0.035018)
(1.23668 -0.027265 0.0246819)
(1.35839 -0.058875 0.023546)
(1.20625 -0.0512694 0.0213642)
(1.35997 0.0144185 -0.0319614)
(1.23588 0.0784471 0.0276059)
(1.38627 0.0447434 -0.00388696)
(0.838918 0.0853853 0.00678611)
(1.21917 0.099951 0.00888214)
(1.38833 0.0839223 -0.000263404)
(1.35205 0.0819092 -0.0170494)
(1.19731 -0.0509744 0.00701738)
(1.33547 0.0488838 -0.014734)
(1.21484 0.0952155 0.00868714)
(1.37685 0.0703435 -0.00246493)
(1.3342 0.0636736 0.00291356)
(1.47255 0.11923 -0.493452)
(-1.92462 0.134113 -1.21504)
(0.635499 0.0202179 0.0390668)
(1.18833 0.105894 -0.142622)
(0.578424 0.0186626 0.0180474)
(1.06737 0.120999 0.0506838)
(1.15794 0.0254685 0.0158238)
(1.08832 0.0307519 0.0295261)
(1.18511 0.0332445 0.0208484)
(1.21665 0.0677629 0.0309749)
(1.20089 0.0212576 0.0163851)
(1.23449 0.0263743 0.0286024)
(1.37878 0.0571593 0.0528296)
(0.689731 0.0322787 0.0938266)
(1.30412 0.0882259 0.10783)
(1.39672 0.11376 0.0585357)
(1.30094 0.0613537 0.0767749)
(1.08992 0.0186734 0.0285447)
(1.16323 0.0123345 0.012365)
(1.08089 -0.000489205 0.0243174)
(1.20244 0.0163188 0.0153411)
(1.23484 0.0147335 0.0278419)
(1.19748 0.00702597 0.0120366)
(1.21489 -0.0130431 0.0228811)
(1.36292 0.00307709 0.0325527)
(0.692244 -0.00530378 0.0939578)
(1.29163 0.016699 0.0530369)
(1.36716 0.0121588 0.0381259)
(1.28613 0.00633958 0.04879)
(1.07197 -0.000639675 0.0215532)
(1.19531 0.00669186 0.0108807)
(1.19977 -0.020608 0.0204531)
(1.24061 -0.0408398 0.0524583)
(1.33946 -0.0925867 0.0413498)
(1.2525 0.00412312 -0.039128)
(1.21637 -0.0167651 0.00877934)
(1.28965 0.0227394 -0.0343701)
(1.24033 0.00900172 0.0108317)
(1.2692 0.0039698 0.00956301)
(1.22203 -0.027183 0.00906016)
(1.30207 -0.0207232 0.00711994)
(1.19716 -0.0143629 0.00924716)
(1.19784 0.00417073 0.00758144)
(1.19793 -0.0221909 0.00786922)
(1.23023 -0.0730187 0.00504191)
(1.20191 -0.0520019 0.0103536)
(1.22684 -0.0941883 0.00770665)
(1.25644 0.0038347 -0.00935706)
(1.21496 -0.0235475 0.00360207)
(1.29029 -0.00511655 -0.00619123)
(1.19543 -0.019945 0.0058018)
(1.21768 -0.0834435 0.00224199)
(1.19347 -0.0498232 0.00743074)
(1.21539 -0.088404 0.00564756)
(1.22938 0.12612 0.180369)
(0.790846 -0.00291461 0.0560829)
(-0.119209 -0.283414 0.308818)
(0.647472 0.0494795 0.0463771)
(1.21082 0.0699368 0.071653)
(0.861929 0.115692 0.0905416)
(1.01317 0.0321314 0.114986)
(1.64978 0.215912 -0.378122)
(1.9973 0.226507 -0.0252007)
(0.244336 0.0924588 0.0963873)
(1.49854 0.434508 -0.602843)
(-1.90165 0.41503 -0.950779)
(1.29894 0.0563525 0.0892421)
(1.23977 0.224088 0.00234808)
(1.41058 0.137158 0.0401434)
(1.62398 0.401279 -0.351598)
(1.50963 0.0704673 -0.0488322)
(1.69266 0.192806 -0.115823)
(1.46158 0.149485 0.0275966)
(1.22955 0.507959 0.0582577)
(0.0973725 0.0746309 -0.0119693)
(1.9439 0.149625 -0.027828)
(1.92406 0.236088 0.031015)
(1.3811 0.357213 -0.0496668)
(0.0964717 0.109581 0.150248)
(1.41335 0.0647091 0.0411011)
(1.47813 0.019229 -0.060234)
(1.44483 0.113245 0.0318118)
(1.41783 0.0658905 0.0218796)
(1.37474 0.0438258 0.0453834)
(0.689761 0.0375583 0.0950204)
(1.29372 0.0302026 0.0547761)
(1.29779 0.0449374 0.0634434)
(1.36805 0.0286103 0.0376012)
(1.40759 0.0397258 0.0356335)
(1.37847 0.0473485 0.008067)
(1.4038 0.0100321 0.0188656)
(1.3976 0.0354316 0.032472)
(1.39357 0.00927046 0.0285863)
(1.37564 -0.0175067 0.0132635)
(1.39621 0.00452282 0.0339913)
(1.3734 0.0349038 0.00648855)
(1.36401 -0.0161792 0.0381682)
(0.689717 0.0036705 0.0944521)
(1.26623 -0.0198961 0.0485696)
(1.28218 -0.00864321 0.0524825)
(1.35629 -0.0496662 0.0330334)
(1.3958 -0.0234299 0.0364271)
(1.41702 -0.0111476 0.0211187)
(1.37653 -0.0228721 0.0210458)
(1.4063 -0.0530951 0.0312832)
(1.40784 -0.0213367 -0.0267457)
(1.39575 -0.103424 0.0306244)
(1.2068 -0.0331744 0.0352228)
(1.23916 -0.0977093 0.0155281)
(1.24819 -0.0652695 0.0227737)
(1.37498 0.101045 -0.0802519)
(1.31638 -0.107038 0.00352446)
(1.33539 -0.0593192 -0.00163256)
(1.34531 0.372387 -0.000327008)
(0.0746675 0.0737556 0.0195177)
(1.94463 0.137368 2.67616e-05)
(1.33357 0.394624 0.0213329)
(1.93189 0.123617 -0.0232063)
(0.0834774 0.0726819 -0.0182803)
(1.33877 0.373542 0.00850093)
(0.0804302 0.0720984 -0.0171154)
(1.92112 0.11517 -0.0175896)
(1.92963 0.11604 0.00677584)
(1.33286 0.372853 0.00631117)
(0.0791479 0.0720342 0.0117146)
(1.30789 -0.0686204 -0.00441362)
(1.34317 0.036521 -0.0196484)
(1.29951 -0.0975495 0.00295494)
(1.19664 -0.0443377 0.00424756)
(1.2204 -0.0907277 0.00511115)
(1.2227 -0.0793517 0.00153974)
(1.34143 0.0693227 -0.00234372)
(1.29166 -0.0916603 0.0032195)
(1.29708 -0.0767475 -0.00356381)
(1.32559 0.369367 0.0102785)
(0.0796117 0.071886 0.0128141)
(1.91864 0.111492 0.0125323)
(1.33129 0.369882 0.00504303)
(1.90972 0.111277 -0.0132425)
(0.0795136 0.0718451 -0.0157819)
(1.3234 0.36759 0.00760915)
(1.90744 0.109865 0.0170007)
(0.0792247 0.0718563 0.0143077)
(1.29021 -0.0817751 -0.00189991)
(1.32921 0.055912 -0.0133248)
(1.28541 -0.0883228 0.00480357)
(1.32647 0.0620036 0.00523424)
(1.28313 -0.0841938 0.00106509)
(1.18922 0.0467737 0.263866)
(0.458157 0.0471565 0.231157)
(1.33058 0.087479 0.301075)
(0.441349 -0.00396046 0.263384)
(0.964802 0.0780608 0.0264472)
(1.17913 0.0377484 0.015737)
(1.21164 0.0704797 0.025483)
(1.10535 0.024071 0.0139162)
(0.95216 0.0739886 0.011111)
(1.1835 0.0361541 0.0128455)
(1.20014 0.0800678 0.0114653)
(1.23972 0.273178 -0.00919894)
(0.285547 0.0850858 0.00855376)
(1.25118 0.193555 0.0620169)
(0.845912 0.0814841 0.00489166)
(1.24454 0.302479 0.0597136)
(1.21845 0.183706 0.000100719)
(0.300898 0.0833205 -0.00807643)
(1.32412 0.00629739 -0.0184595)
(1.23027 0.0208954 0.011971)
(1.24983 0.00762406 -0.0408914)
(1.23467 0.066499 0.00973525)
(1.32948 0.0436302 0.00308053)
(1.23995 0.0221853 0.0113908)
(1.27048 0.0114078 0.010727)
(0.95211 0.0743106 0.0119941)
(1.18388 0.0351836 0.011975)
(1.19762 0.0769372 0.0105541)
(1.22316 0.274989 0.00986602)
(0.291573 0.0825777 0.00219751)
(1.21476 0.181885 0.013275)
(0.836663 0.08571 0.0091195)
(1.22674 0.274958 0.0110224)
(1.21165 0.181736 0.0119542)
(0.291734 0.0823137 -0.00203921)
(1.31877 0.0318926 -0.00487546)
(1.22938 0.0207239 0.00347543)
(1.25467 0.0105733 -0.00970221)
(1.14636 0.0503783 0.217924)
(0.269232 0.0472998 0.113686)
(0.141979 -0.140588 -0.0155935)
(0.663207 0.0251096 0.210093)
(1.25524 0.0647782 0.327886)
(0.565151 0.0092802 0.13493)
(0.693986 0.0755758 0.138806)
(1.23167 0.090294 0.0900524)
(1.06267 0.0865065 0.11677)
(1.01755 0.0825392 0.0492194)
(1.25916 0.0834469 0.153665)
(1.37999 0.154237 0.292396)
(1.22054 0.0643661 0.0705821)
(0.818102 0.175609 0.0611105)
(1.64734 0.180884 0.0465917)
(1.68931 0.107694 -0.244036)
(1.59422 0.187949 -0.145505)
(1.7444 0.0666224 -0.0987938)
(1.25708 0.425581 0.229991)
(0.868777 0.138863 0.0341921)
(0.326334 0.0830528 -0.0101796)
(1.20456 0.177408 -0.0417194)
(1.40873 0.220402 0.230172)
(1.26192 0.244632 -0.0965319)
(0.212012 0.0958507 0.066893)
(1.31511 0.124384 0.0864446)
(1.40401 -0.00526845 -0.0162309)
(1.65351 0.169945 -0.0257979)
(1.36441 0.156903 -0.0198664)
(1.64613 0.128382 -0.00517568)
(1.33977 0.035803 0.0367603)
(1.42542 0.248955 -0.061061)
(1.57551 0.0911506 0.0536603)
(1.66 0.0719494 -0.255946)
(1.53297 0.216607 0.0259646)
(1.69765 -0.00433365 -0.127084)
(1.65196 0.0149692 0.00528587)
(1.55785 0.0513033 -0.0725248)
(1.57082 0.00699317 -0.0674149)
(1.64164 0.055173 0.00184218)
(1.64101 0.0422074 0.00213734)
(1.56178 -0.00771627 -0.0706445)
(1.55543 0.0421678 -0.0722106)
(1.64629 -0.00410911 0.00327017)
(1.65764 -0.0427046 0.00464901)
(1.60106 0.0317776 -0.0562968)
(1.5696 -0.0292772 -0.0732785)
(1.68628 -0.00122412 0.0149204)
(1.75989 -0.0815163 0.0195289)
(1.59683 -0.0269706 -0.0646518)
(1.70358 -8.22863e-05 -0.041883)
(1.6779 -0.0671212 0.0177856)
(1.38487 0.224772 -0.0117978)
(1.63477 0.130297 -0.00783881)
(1.3206 0.0959948 0.0153643)
(1.4069 0.0939047 -0.0075303)
(1.3732 0.199086 0.0256307)
(1.62939 0.144063 -0.0119919)
(1.3317 0.136009 -0.00471953)
(1.23437 0.279094 0.0189914)
(0.841611 0.0873756 0.0123409)
(0.294043 0.082753 -0.00472901)
(1.216 0.183531 0.00870398)
(1.22363 0.184028 0.0222575)
(1.22925 0.276883 0.0053233)
(0.291974 0.0831744 0.00113288)
(1.37223 0.2073 0.00803039)
(1.38196 0.0634811 -0.00414419)
(1.61659 0.135569 -0.00508277)
(1.31636 0.128184 0.00253146)
(1.62288 0.127324 -0.00429793)
(1.31323 0.114186 0.00412693)
(1.36989 0.217557 0.000975254)
(1.36125 0.213053 0.00520319)
(1.61301 0.128087 -0.000570733)
(1.30706 0.119203 0.00223462)
(1.37741 0.0788711 0.00203358)
(1.36485 0.209147 0.00467887)
(1.60627 0.131263 -0.000968772)
(1.30713 0.124153 0.00498438)
(0.290513 0.0822475 0.00442344)
(1.6027 0.12844 0.00291477)
(1.12422 0.0931505 0.255419)
(0.0850482 0.0392568 -0.24962)
(1.30794 0.308942 -0.114618)
(0.292306 -0.006127 0.171973)
(0.425849 0.250474 0.283261)
(1.28941 0.476404 0.600488)
(0.0992251 0.142825 0.934097)
(1.14088 0.107039 0.420283)
(0.271763 -0.187195 -1.98029)
(0.384292 0.0173664 0.330784)
(1.21262 0.174726 -0.676247)
(1.03986 0.0910982 0.16963)
(0.536182 0.00996388 -2.31345)
(1.33967 0.101544 0.160495)
(0.430265 -0.00964531 0.0701788)
(1.54158 0.0487951 0.157061)
(1.37607 0.0883656 0.205014)
(1.49494 0.0789861 0.153774)
(0.350058 0.0202369 0.0738687)
(1.34665 0.0715094 0.139295)
(1.50922 0.0756073 0.136314)
(0.337822 0.00586203 0.0747066)
(1.50884 0.0694316 0.147325)
(1.34296 0.0776096 0.129317)
(0.337285 0.0408368 0.0753417)
(1.35363 0.0255087 0.1204)
(0.334719 0.0156795 0.0761324)
(1.52763 0.014583 0.12625)
(1.35615 0.011604 0.121042)
(1.52495 0.0225953 0.125192)
(0.334805 -0.0125314 0.0760422)
(1.35628 -0.00291971 0.119552)
(1.52843 0.0111157 0.122982)
(0.335875 -0.016761 0.0759659)
(1.52832 -0.000640184 0.123838)
(1.35572 0.013896 0.118827)
(0.335071 0.0108385 0.0761282)
(1.29411 -0.0480189 0.120606)
(0.327247 -0.0256301 0.0756951)
(1.50706 -0.067615 0.129515)
(1.31711 -0.0571508 0.12316)
(1.48349 -0.109825 0.120731)
(0.306364 -0.064508 0.0752822)
(1.43614 -0.171676 0.106237)
(0.294701 -0.0462821 0.0746632)
(0.989036 0.0647725 0.247842)
(0.0131978 -0.156667 -0.0486631)
(1.08383 -0.0626214 0.730921)
(0.125631 -0.0912855 0.264466)
(1.10098 0.0454873 0.4266)
(0.957528 0.0442243 0.344437)
(0.356188 -0.0537353 0.154765)
(0.464055 0.513784 0.0617635)
(0.0637163 0.0651085 -0.21898)
(1.33121 0.38252 -0.262257)
(0.838548 0.795654 0.0889484)
(2.17687 0.456306 -0.216626)
(1.72247 0.468961 -0.183548)
(0.745002 0.748356 0.0344886)
(1.7437 0.365479 -0.0584481)
(1.97159 0.285796 -0.0739443)
(1.63153 0.361134 -0.0830774)
(0.822532 0.772481 0.266912)
(1.33152 0.877489 -0.0887381)
(1.1905 0.340569 -0.508866)
(1.27958 0.297291 -0.0434547)
(1.59229 0.398303 -0.0707621)
(0.42036 0.509783 0.0641199)
(1.24327 0.283006 0.00275103)
(0.0199946 0.103908 -0.102035)
(1.10116 0.510382 -0.06204)
(0.482118 0.540898 0.221179)
(1.39222 0.113493 -0.160759)
(-0.591167 -1.0718 -0.311693)
(1.64844 0.0607684 -0.293502)
(0.267432 0.175753 0.878195)
(1.23358 0.0228703 -3.21402)
(1.32689 -0.0983654 -0.356312)
(0.70196 2.50104 0.250414)
(1.1871 0.142245 0.24462)
(0.566269 0.0398364 0.0395725)
(1.54975 0.0577211 0.136058)
(1.38172 0.166011 0.331446)
(1.32656 0.032298 0.269074)
(0.546042 0.388844 0.232573)
(1.52517 0.191447 -0.325507)
(1.24437 0.368919 -0.569359)
(1.52812 0.0705443 -1.96122)
(1.35068 0.219179 0.261713)
(0.560839 0.609585 0.128621)
(1.50845 0.245561 0.0746556)
(1.87034 0.325486 -0.185884)
(1.56705 0.322643 -0.113062)
(1.4974 0.231973 -0.139121)
(1.64454 0.19527 0.0944256)
(1.61644 0.0735393 0.0726817)
(1.42986 0.157633 0.279086)
(1.73697 0.0791415 -0.0490593)
(1.51648 0.27127 0.165889)
(1.23046 0.268577 -0.354101)
(1.45525 0.24079 0.0113382)
(1.47897 0.3752 0.468233)
(0.415989 0.469625 -0.0759404)
(0.915644 0.359591 0.0253244)
(0.0936036 0.0780203 -0.0114782)
(0.892161 0.35112 -0.0368906)
(0.419019 0.478321 0.0327932)
(0.77119 0.70185 -0.101885)
(1.97909 0.088138 0.0469754)
(1.58915 0.360721 -0.00235615)
(1.66375 0.336453 0.024027)
(0.752213 0.709589 0.0528344)
(0.766454 0.713529 -0.102809)
(1.49943 0.416985 0.0334491)
(2.00772 0.0726505 0.0218318)
(0.76719 0.767759 0.260331)
(1.67548 0.310779 0.00170291)
(0.418971 0.484392 -0.0950786)
(0.838019 0.519821 0.0652346)
(0.0555506 0.0771092 -0.0336919)
(0.472701 0.551235 0.274297)
(0.829235 0.455583 -0.0483053)
(1.57648 0.0837584 0.0589565)
(1.60102 0.0438656 0.0971851)
(1.54011 0.0759219 0.118827)
(1.69166 0.00985996 -0.057224)
(1.60561 0.0768916 0.0562972)
(1.56778 0.0932085 -0.0280729)
(1.50558 0.148761 0.0553384)
(1.63407 0.0982506 0.0238353)
(1.61085 0.0761471 0.0547525)
(1.56383 0.0780105 0.100499)
(1.55915 0.0713879 0.111552)
(1.62957 0.0936699 0.037727)
(1.3571 0.0275562 0.121863)
(0.33608 -0.0078029 0.0758762)
(1.52521 0.0379572 0.125098)
(1.35451 0.0397853 0.12018)
(1.52809 0.0312246 0.127776)
(0.335522 0.0200305 0.0760207)
(1.35053 0.0562661 0.123036)
(1.52136 0.0539873 0.134434)
(0.33541 0.0267823 0.0758005)
(1.3534 0.0485703 0.126092)
(1.52083 0.054756 0.129322)
(0.336935 -0.00258603 0.075578)
(1.64257 0.0724789 0.00719078)
(1.5792 0.0374131 -0.0426001)
(1.65173 0.0483969 0.0169389)
(1.56412 0.0631664 -0.0658219)
(1.65159 0.0196256 0.0231076)
(1.58352 0.038844 0.0876613)
(1.58731 0.0315648 0.0901989)
(1.64367 0.0500944 0.019789)
(1.64229 0.068025 0.0254982)
(1.57882 0.0563981 0.0974368)
(1.64679 0.0516804 0.0323701)
(1.57872 0.0562432 0.0922744)
(1.64337 0.0359517 0.0198987)
(1.58649 0.0141394 0.0887956)
(1.58346 0.0233596 0.0878266)
(1.64763 0.00101361 0.0211315)
(1.64615 -0.0191428 0.00114459)
(1.55932 0.041979 -0.0731215)
(1.5585 -0.0198795 -0.0735775)
(1.64772 0.0363808 0.00127747)
(1.64834 -0.0142327 0.0183629)
(1.5884 0.0124545 0.0855493)
(1.58761 -0.00153357 0.0863848)
(1.6501 0.0288129 0.0182624)
(1.34535 -0.0350123 0.119865)
(0.33202 -0.0408405 0.0758258)
(1.52313 -0.0358145 0.124863)
(1.34182 -0.0221654 0.11997)
(1.52408 -0.0347804 0.124853)
(0.335818 -0.00649328 0.075849)
(1.34815 -0.00268322 0.121964)
(1.52441 -0.0132353 0.125728)
(0.334865 0.00589928 0.0759506)
(1.35026 -0.0163668 0.120793)
(1.52427 -0.00873504 0.127313)
(0.334296 -0.0261 0.0760917)
(1.65577 0.0208837 0.00805428)
(1.55878 -0.0214435 -0.0715472)
(1.64545 -0.0267382 0.00373738)
(1.56929 0.0340899 -0.0654822)
(1.65917 -0.0419329 0.0205141)
(1.59238 -0.0372827 0.0875933)
(1.58723 -0.0356319 0.0872074)
(1.68284 -0.0148687 0.0284391)
(1.65661 0.0108511 0.024692)
(1.58423 -0.0135606 0.0883716)
(1.64748 -0.0228157 0.0209652)
(1.58669 -0.00802677 0.0898126)
(1.74093 -0.0474729 -0.0408094)
(1.474 -0.220761 0.0318381)
(1.63304 -0.118851 -0.0385493)
(1.7416 -0.0993777 0.0340956)
(1.57684 -0.0715486 0.0930173)
(1.57179 -0.131705 0.086003)
(1.67484 -0.0726264 0.0324793)
(1.8566 -0.113498 -0.0530473)
(1.7767 0.0180004 -0.0705795)
(1.67594 -0.0635267 -0.0565232)
(1.82422 -0.137687 -0.0217077)
(1.54484 -0.210993 0.0702528)
(1.58162 -0.0658015 -0.00813592)
(1.59696 -0.0531369 0.000976793)
(1.62388 -0.0219311 0.0403711)
(1.61753 -0.0265892 -0.0441099)
(1.62217 -0.0016446 -0.0179576)
(1.63466 0.0155934 -0.00737729)
(1.581 -0.085969 0.0377674)
(1.31249 -0.259578 -0.000794568)
(1.574 -0.0904786 -0.0344802)
(0.416702 0.478398 -0.0289266)
(0.890126 0.40099 0.0157731)
(0.0771805 0.0722512 -0.0274301)
(0.889931 0.391705 0.00433649)
(0.416113 0.481699 0.0367764)
(0.755116 0.705741 -0.0152634)
(1.58857 0.35611 0.0107935)
(1.9486 0.0989339 -0.00653292)
(0.742866 0.708076 0.0207541)
(1.61041 0.335271 0.00330651)
(0.757395 0.704438 -0.0304749)
(1.58675 0.34688 -0.00600012)
(1.9433 0.106775 0.0237473)
(1.60355 0.339077 0.0106692)
(0.748212 0.703731 0.017535)
(0.416882 0.474861 -0.0150459)
(0.894588 0.377295 0.0082517)
(0.0859215 0.0727778 0.00209875)
(0.901253 0.374745 -0.00700244)
(0.414949 0.475212 0.00239724)
(0.414161 0.473526 0.00040988)
(0.888019 0.378379 0.00928466)
(0.0813274 0.0721123 0.0107265)
(0.892748 0.377768 0.000135102)
(0.412329 0.47231 -0.00221163)
(0.749655 0.701165 -0.0149043)
(1.92685 0.110555 0.019546)
(1.57965 0.340804 -0.0036071)
(1.58558 0.338605 0.0105317)
(0.744529 0.69914 0.0137385)
(0.748743 0.701248 0.00526547)
(1.58765 0.341416 0.00459197)
(1.92802 0.105726 -0.0112124)
(0.745424 0.702158 -0.00827041)
(1.58893 0.335105 0.00222463)
(0.41384 0.474285 -0.0109329)
(0.890122 0.382128 -0.0018507)
(0.0800409 0.0718169 -0.0197552)
(0.413728 0.47516 0.00963321)
(0.891121 0.379254 0.0119899)
(1.55843 -0.0832917 0.0321776)
(1.29959 -0.256629 -0.00274999)
(1.30077 -0.256009 0.0105532)
(1.55615 -0.0833518 -0.029942)
(1.59972 -0.00172424 -0.0223914)
(1.60663 -0.000402358 0.014559)
(1.55852 -0.0678687 -0.0155592)
(1.30758 -0.245064 0.000866323)
(1.30259 -0.245428 0.00725564)
(1.56562 -0.0668036 0.0119027)
(1.60113 -0.0179212 0.037733)
(1.59876 -0.0176219 -0.0374477)
(1.54964 -0.0720934 -0.0196449)
(1.29795 -0.248433 3.04191e-06)
(1.5531 -0.071652 0.0173019)
(1.29504 -0.248624 0.00298265)
(1.5914 -0.0132811 0.0340755)
(1.56996 0.127385 -0.0385996)
(1.57129 0.126433 0.0349297)
(1.58979 -0.0127957 -0.0332654)
(1.59126 -0.00551494 -0.0264278)
(1.57357 0.131741 0.0227507)
(1.59462 -0.0052406 0.0221574)
(1.57106 0.131838 -0.0327612)
(1.54916 -0.079722 0.0282653)
(1.29309 -0.254677 -0.00124505)
(1.29389 -0.254299 0.00647552)
(1.54768 -0.0796323 -0.02617)
(0.411332 0.471239 -0.00587053)
(0.886666 0.378389 -0.00138086)
(0.0798317 0.0717514 -0.0171445)
(0.886626 0.376725 0.0130969)
(0.412205 0.472547 0.00633806)
(0.74364 0.69729 0.010606)
(1.57859 0.337336 0.00611419)
(1.91552 0.10847 -0.0121101)
(0.743941 0.698866 -0.0101479)
(1.57667 0.334799 0.00156117)
(0.744333 0.697554 -0.0110351)
(1.57092 0.336275 0.000317089)
(1.91432 0.110196 0.0184624)
(1.57485 0.336171 0.0106425)
(0.740569 0.69497 0.0141234)
(0.411779 0.471388 0.0043745)
(0.884396 0.376587 0.0137077)
(0.0798974 0.0718897 0.01327)
(0.887663 0.376813 0.0018374)
(0.40987 0.469494 -0.00262453)
(1.56919 0.33468 0.00996538)
(0.741271 0.695622 -0.00873214)
(0.884322 0.376552 0.00306315)
(0.4105 0.470254 0.00662271)
(1.5425 -0.0780081 0.0271426)
(1.28717 -0.253851 0.00269003)
(1.28878 -0.253579 0.00611401)
(1.54007 -0.0781455 -0.0221956)
(1.58519 -0.00755988 -0.0280667)
(1.56765 0.131595 0.0290516)
(1.56584 0.132146 -0.0346806)
(1.58772 -0.0075095 0.0272137)
(1.54344 -0.0749516 -0.0209787)
(1.29203 -0.25092 0.0019753)
(1.2899 -0.251172 0.00251259)
(1.54602 -0.0745849 0.0215777)
(1.58447 -0.0104968 0.0329225)
(1.56293 0.13118 -0.0368641)
(1.56507 0.130575 0.03419)
(1.58196 -0.0102799 -0.029635)
(1.28563 -0.252543 0.00636944)
(1.53818 -0.0765428 0.0260505)
(1.56103 0.133086 0.0325605)
(1.57997 -0.00846881 0.0316509)
(0.00699758 -0.0457904 0.0199)
(0.112025 -0.138673 0.0501878)
(0.268557 -0.0146738 0.162343)
(0.371482 -0.220901 0.295986)
(0.175241 -0.142503 0.366427)
(1.24035 0.518516 -0.135161)
(0.721173 0.285955 -0.0634033)
(0.922593 -0.0419806 -0.138008)
(0.926725 0.0524106 -0.140717)
(1.03263 0.0414556 -0.152954)
(1.04621 0.10624 -0.149515)
(1.07805 0.234338 0.309231)
(-0.0685229 -0.5125 -0.0365797)
(0.347775 0.631651 0.198432)
(1.37571 0.176207 0.104108)
(1.21756 0.251935 0.410989)
(1.43293 -0.0977177 -0.0876789)
(0.22294 1.81695 0.14968)
(1.41828 0.426975 -0.181492)
(1.18951 0.404121 -0.155559)
(1.40378 0.352451 -0.239546)
(1.18637 0.447338 -0.106978)
(1.40669 0.443882 -0.212334)
(1.62146 0.364816 -0.309938)
(0.363458 0.372743 0.0400123)
(1.08732 0.467113 -0.0800365)
(0.515504 0.209071 -0.0179708)
(1.18432 0.526293 -0.0530144)
(0.818393 -0.0645499 -0.0156957)
(0.753217 0.0604456 -0.0809411)
(0.768493 -0.0557366 -0.0752704)
(0.7986 0.0691132 -0.016711)
(0.919529 0.0509991 -0.140839)
(0.932981 -0.0424195 -0.138056)
(0.802293 0.0716198 -0.0166684)
(0.758262 -0.054331 -0.0768327)
(0.761178 0.0627388 -0.0791144)
(0.810624 -0.0643097 -0.0143181)
(0.899626 -0.0308471 -0.0230901)
(0.828078 0.0940251 -0.0768832)
(0.839192 -0.000944748 -0.0793869)
(0.917131 0.0932908 -0.0152202)
(0.996856 0.0855318 -0.145467)
(1.00444 0.0151968 -0.147011)
(0.985336 0.0857566 -0.0146177)
(0.865547 0.02231 -0.084008)
(0.877526 0.113476 -0.0749796)
(0.931303 -0.0189523 -0.0264442)
(0.865837 0.00371937 0.21697)
(0.911417 0.0487137 0.184522)
(0.950649 -0.0803382 0.212238)
(0.812308 0.0239461 0.16584)
(0.868753 0.0435767 0.187744)
(0.897607 0.033123 0.166382)
(0.89754 0.041914 0.169709)
(0.861109 0.0509288 0.186069)
(0.922805 0.0765387 -0.143413)
(0.951046 0.0560232 -0.14341)
(0.87229 0.0162564 0.18349)
(0.908993 0.00890068 0.165376)
(0.864253 0.003897 0.182883)
(0.910216 0.00214738 0.169426)
(0.876217 -0.0145188 0.18338)
(0.914432 -0.008745 0.16548)
(0.91429 -0.00422122 0.17016)
(0.867437 -0.00147962 0.182255)
(0.92214 0.0577651 -0.140381)
(0.934056 -0.0350789 -0.139014)
(0.847552 -0.0951641 0.187016)
(0.91926 -0.0802989 0.170817)
(0.853881 -0.0836651 0.187086)
(0.920175 -0.131104 0.175622)
(1.16995 0.920682 -0.036283)
(1.68459 0.31445 -0.179065)
(1.14081 0.374434 0.264671)
(1.43303 0.297177 -0.101317)
(1.2766 0.603579 0.0291843)
(1.4197 0.381394 0.0194088)
(1.34908 0.870889 0.192489)
(1.02564 -0.186915 0.20357)
(0.961165 0.0372879 0.17454)
(1.01888 -0.0885931 0.211777)
(0.950922 0.0136962 0.152276)
(1.08933 0.196009 0.0993777)
(0.930871 0.100332 0.147752)
(0.957635 0.0817606 0.134549)
(0.981239 0.225785 0.0839634)
(1.1281 0.80998 -0.0816596)
(1.28956 0.510255 0.0587177)
(1.2733 0.46011 0.110764)
(1.08987 0.624424 0.0740862)
(1.09282 0.936072 0.238133)
(1.10035 0.538663 0.0929039)
(1.43473 0.414421 0.0209784)
(1.20402 0.777906 -0.056402)
(1.41732 0.350723 -0.00905869)
(1.2292 0.394728 -0.0345206)
(1.46004 0.397453 -0.0147143)
(1.23822 0.371876 -0.0163234)
(1.52646 0.381735 0.0160209)
(1.17004 0.812026 0.0260093)
(0.700881 0.0994023 0.0976979)
(0.897942 0.10643 0.161048)
(0.740858 0.0443487 0.140497)
(1.02222 0.221119 0.108573)
(0.838478 0.0535476 -0.026105)
(0.750185 0.0768533 -0.0856558)
(0.78722 0.0323629 -0.0791894)
(0.765213 0.0805759 -0.0274366)
(0.877804 0.0401854 0.0961879)
(0.860802 0.0306385 0.147127)
(0.861594 0.0422628 0.150443)
(0.865826 0.0530929 0.0910397)
(0.875353 0.00786955 0.183522)
(0.909776 0.00752169 0.165378)
(0.86606 0.0206613 0.182283)
(0.913937 0.012278 0.169882)
(0.87127 0.0435605 0.185447)
(0.902988 0.0355339 0.166916)
(0.862328 0.0344883 0.186202)
(0.907463 0.023553 0.170138)
(0.790267 0.0702979 -0.0216496)
(0.773627 -0.0179877 -0.074449)
(0.829757 -0.00911702 -0.0167993)
(0.762725 0.0638387 -0.0826319)
(0.903936 -0.00928246 0.0930728)
(0.881123 0.00518398 0.147518)
(0.882751 0.0108285 0.151349)
(0.906837 0.0227766 0.0901214)
(0.879124 0.0382277 0.0927051)
(0.87458 0.034407 0.14892)
(0.90635 0.0226569 0.0942585)
(0.870947 0.0202043 0.150752)
(0.938349 -0.00367298 -0.136756)
(0.931909 0.057871 -0.142766)
(0.894717 0.0190099 0.0919734)
(0.881781 0.00798361 0.1476)
(0.877507 0.00041756 0.150612)
(0.912192 -0.0124003 0.0907255)