/*--------------------------------*- C++ -*----------------------------------*\
| =========                 |                                                 |
| \\      /  F ield         | OpenFOAM: The Open Source CFD Toolbox           |
|  \\    /   O peration     | Version:  2012                                  |
|   \\  /    A nd           | Website:  www.openfoam.com                      |
|    \\/     M anipulation  |                                                 |
\*---------------------------------------------------------------------------*/
FoamFile
{
    version     2.0;
    format      ascii;
    class       surfaceVectorField;
    location    "0.105/fluid";
    object      Uf;
}
// * * * * * * * * * * * * * * * * * * * * * * * * * * * * * * * * * * * * * //

dimensions      [0 1 -1 0 0 0 0];


internalField   nonuniform List<vector> 
47458
(
(1.19995 3.9007e-05 3.66352e-05)
(1.19992 2.45214e-05 2.25448e-05)
(1.19993 2.24222e-05 2.6817e-05)
(1.19962 7.06834e-05 3.74693e-05)
(1.19952 6.16427e-05 2.31982e-05)
(1.19963 6.27247e-05 3.02432e-05)
(1.19958 6.75228e-05 3.889e-05)
(1.19933 4.12295e-05 7.99617e-06)
(1.19927 3.91135e-05 9.2241e-06)
(1.19934 4.34345e-05 8.95533e-06)
(1.19917 4.0399e-05 1.89372e-05)
(1.19908 3.73465e-05 1.35448e-05)
(1.19901 3.69451e-05 1.46981e-05)
(1.19938 4.76522e-05 1.41611e-05)
(1.19914 3.71746e-05 2.6787e-05)
(1.19878 3.77954e-05 1.94494e-05)
(1.19869 3.8804e-05 2.13247e-05)
(1.19919 5.76201e-05 2.02037e-05)
(1.19889 3.81939e-05 3.80262e-05)
(1.19837 4.38627e-05 3.07275e-05)
(1.19824 4.63312e-05 3.45558e-05)
(1.19883 7.79401e-05 3.22926e-05)
(1.1985 4.46944e-05 5.98314e-05)
(1.19777 5.78273e-05 4.79928e-05)
(1.19757 6.2763e-05 5.33636e-05)
(1.19827 0.000112455 5.0413e-05)
(1.19793 6.01728e-05 9.26641e-05)
(1.19685 8.55175e-05 7.92258e-05)
(1.19654 9.63246e-05 8.92183e-05)
(1.1974 0.000176106 8.37276e-05)
(1.19706 9.02451e-05 0.000151883)
(1.19535 0.000144407 0.000131535)
(1.19484 0.000168256 0.000150534)
(1.19596 0.000299209 0.000139787)
(1.19563 0.000154523 0.000251658)
(1.19277 0.000283171 0.000232634)
(1.19183 0.000343862 0.000273141)
(1.19351 0.000561854 0.000248665)
(1.19316 0.000307831 0.000439243)
(1.18783 0.000652398 0.00047782)
(1.1859 0.000826262 0.000597091)
(1.18901 0.00120054 0.000520768)
(1.18845 0.000719671 0.000863894)
(1.17674 0.00180327 0.00134959)
(1.17182 0.00239511 0.00186415)
(1.1793 0.00308005 0.00152575)
(1.17812 0.00202118 0.00219561)
(1.14444 0.00590122 0.0055539)
(1.12753 0.00798748 0.00821008)
(1.15118 0.00989875 0.00660218)
(1.14975 0.00678982 0.00819871)
(1.01915 0.0168261 0.0267895)
(0.948394 0.0186662 0.0397401)
(1.02629 0.0335798 0.035075)
(1.04446 0.0214481 0.0418063)
(0.113202 0.00615574 0.0507288)
(0.0907497 -0.0540293 0.0513486)
(0.168271 0.00292792 0.102615)
(0.0681841 0.0186223 0.0619579)
(0.0529374 0.00576441 0.0237857)
(0.0485422 -0.00289848 0.0514482)
(0.0747187 -0.00101736 0.0636318)
(1.19993 2.38436e-06 2.2237e-05)
(1.19997 2.73261e-06 3.63261e-05)
(1.19993 3.34743e-06 2.20739e-05)
(1.19995 1.76342e-07 2.61036e-05)
(1.19968 4.45028e-05 3.31625e-05)
(1.19982 2.85416e-05 4.07502e-05)
(1.19978 4.17605e-05 2.74642e-05)
(1.19968 4.87793e-05 3.45548e-05)
(1.19981 3.73606e-05 4.18332e-05)
(1.1994 6.98481e-05 1.24531e-05)
(1.19967 6.75189e-05 1.27288e-05)
(1.19964 7.43442e-05 1.36784e-05)
(1.1994 8.41312e-05 1.37786e-05)
(1.19956 7.26556e-05 2.25474e-05)
(1.19945 0.000100835 1.54536e-05)
(1.19952 0.000101895 1.5589e-05)
(1.19947 0.000112965 1.64378e-05)
(1.19945 0.000122387 1.61821e-05)
(1.19962 0.000108311 2.74479e-05)
(1.19927 0.000148208 2.12418e-05)
(1.19931 0.000153395 2.0836e-05)
(1.19924 0.000170362 2.24495e-05)
(1.19928 0.000180596 2.17988e-05)
(1.19947 0.000162192 3.85659e-05)
(1.19895 0.000226016 3.17189e-05)
(1.199 0.000235617 3.00022e-05)
(1.1989 0.000262837 3.38877e-05)
(1.19896 0.000274855 3.17555e-05)
(1.19919 0.000248554 5.78179e-05)
(1.19844 0.000350193 4.99863e-05)
(1.19852 0.000366009 4.76607e-05)
(1.19837 0.000410065 5.28999e-05)
(1.19847 0.000425716 5.00254e-05)
(1.19874 0.000386509 9.08716e-05)
(1.19762 0.000560123 8.2126e-05)
(1.19778 0.00058532 7.66307e-05)
(1.19753 0.000659743 8.6879e-05)
(1.1977 0.000681149 8.07618e-05)
(1.19804 0.000618244 0.000147145)
(1.19632 0.000925424 0.000135034)
(1.19657 0.000959453 0.000125825)
(1.19617 0.00109321 0.000143355)
(1.19645 0.00111855 0.000132746)
(1.19693 0.00101813 0.000240126)
(1.19415 0.00160664 0.000235605)
(1.19459 0.00164568 0.000216901)
(1.19391 0.00189953 0.000252114)
(1.19442 0.00192288 0.000229349)
(1.1951 0.00175297 0.000410153)
(1.19037 0.00299982 0.000476677)
(1.1912 0.0030011 0.000425202)
(1.19 0.00353353 0.000522602)
(1.19096 0.00351895 0.000455502)
(1.19205 0.00321063 0.000776378)
(1.18308 0.00628992 0.00130803)
(1.18488 0.00602101 0.00110471)
(1.18244 0.0073199 0.00148494)
(1.18457 0.0070758 0.00121386)
(1.18679 0.00645592 0.00182218)
(1.16602 0.0158746 0.00510963)
(1.17112 0.0141188 0.00405436)
(1.1652 0.0180727 0.00582487)
(1.17084 0.0163174 0.00454456)
(1.17766 0.014986 0.00588823)
(1.11616 0.0502211 0.0234286)
(1.13476 0.0407527 0.0178457)
(1.11738 0.0543746 0.0255924)
(1.16421 0.0415612 0.0255274)
(1.13495 0.0432419 0.0199581)
(0.476972 -0.0648518 0.0680681)
(0.767969 0.0195856 0.0574486)
(0.569102 0.127594 0.100083)
(0.621866 0.0151092 0.0907981)
(0.97836 0.0455692 0.12941)
(1.19993 3.01429e-06 2.17182e-05)
(1.19998 7.87628e-06 3.60344e-05)
(1.19993 3.36081e-06 2.16194e-05)
(1.19994 2.98066e-06 2.52487e-05)
(1.19967 6.59757e-05 3.93393e-05)
(1.19981 5.6076e-05 4.6194e-05)
(1.19976 7.88053e-05 3.4005e-05)
(1.19967 7.12293e-05 4.0949e-05)
(1.19981 7.04385e-05 4.66617e-05)
(1.19939 0.000118504 1.77961e-05)
(1.19966 0.000118284 1.83464e-05)
(1.19962 0.000128818 1.87682e-05)
(1.19938 0.000127238 1.91107e-05)
(1.19956 0.000124998 2.61511e-05)
(1.19945 0.000174512 1.86141e-05)
(1.19952 0.000173086 1.88328e-05)
(1.19948 0.000190848 1.96387e-05)
(1.19945 0.00018749 1.9505e-05)
(1.19966 0.000182847 2.89641e-05)
(1.1993 0.000260449 2.35853e-05)
(1.19934 0.000258011 2.33207e-05)
(1.19929 0.000285634 2.46977e-05)
(1.19932 0.000280076 2.41559e-05)
(1.19956 0.000271971 3.90371e-05)
(1.19903 0.000394889 3.19891e-05)
(1.19909 0.000390411 3.06684e-05)
(1.19901 0.000434694 3.37414e-05)
(1.19907 0.000425176 3.19894e-05)
(1.19934 0.000411303 5.59136e-05)
(1.19862 0.000611506 4.90456e-05)
(1.19871 0.000602899 4.62718e-05)
(1.19859 0.000673649 5.1473e-05)
(1.19868 0.000656576 4.84207e-05)
(1.199 0.000635209 8.60912e-05)
(1.19798 0.000966577 7.65057e-05)
(1.19813 0.000948488 7.14621e-05)
(1.19794 0.00106591 8.05201e-05)
(1.1981 0.00103435 7.46348e-05)
(1.19848 0.00100093 0.000134702)
(1.19699 0.001562 0.000124614)
(1.19723 0.001524 0.000116186)
(1.19693 0.00172229 0.000131234)
(1.19719 0.00166077 0.0001217)
(1.19768 0.00161249 0.000217731)
(1.19542 0.00259277 0.000208457)
(1.19583 0.00250797 0.000192191)
(1.19537 0.00285138 0.000219979)
(1.19579 0.00272488 0.000201205)
(1.19645 0.00265771 0.00035913)
(1.19297 0.00442988 0.000388557)
(1.19365 0.00422712 0.000348246)
(1.19293 0.00483376 0.000416864)
(1.19363 0.00455694 0.000367548)
(1.19462 0.00447945 0.000639043)
(1.18898 0.00779343 0.000955309)
(1.19018 0.00727444 0.000812523)
(1.18898 0.00834353 0.00106731)
(1.1902 0.00770748 0.000880817)
(1.19209 0.00766838 0.00136849)
(1.18139 0.0138476 0.00342699)
(1.18379 0.0124757 0.00279938)
(1.18109 0.0141468 0.00400984)
(1.1835 0.0127139 0.0031568)
(1.18922 0.0129076 0.00401639)
(1.15962 0.0226958 0.0154435)
(1.16519 0.0192482 0.0125683)
(1.15405 0.0204055 0.0181205)
(1.16211 0.0178057 0.0146657)
(1.18708 0.0190151 0.0167668)
(0.692733 0.0131765 0.0942416)
(0.809424 0.0164686 0.0585482)
(0.692301 0.0164404 0.0777861)
(0.692303 0.00940902 0.0944218)
(1.05752 0.0140637 0.125931)
(1.19993 3.9969e-06 2.12739e-05)
(1.19998 9.3438e-06 3.59392e-05)
(1.19994 3.93192e-06 2.47675e-05)
(1.19967 8.18066e-05 4.56518e-05)
(1.19981 6.79828e-05 5.16657e-05)
(1.19976 9.59587e-05 4.02997e-05)
(1.19981 8.50441e-05 5.09856e-05)
(1.19939 0.000144621 2.26565e-05)
(1.19966 0.000140983 2.32837e-05)
(1.19963 0.000152726 2.33791e-05)
(1.19959 0.000147743 2.89558e-05)
(1.19947 0.000210906 2.24071e-05)
(1.19954 0.000202994 2.27715e-05)
(1.19951 0.000223938 2.33346e-05)
(1.19972 0.000214355 3.09468e-05)
(1.19937 0.000316 2.55383e-05)
(1.1994 0.000303444 2.53976e-05)
(1.19936 0.000335699 2.63747e-05)
(1.19967 0.000319294 3.85136e-05)
(1.19918 0.000477991 3.19214e-05)
(1.19922 0.000457506 3.11473e-05)
(1.19917 0.000508646 3.32741e-05)
(1.19954 0.000481818 5.26008e-05)
(1.1989 0.000734214 4.65479e-05)
(1.19898 0.000701341 4.40202e-05)
(1.1989 0.000781939 4.83787e-05)
(1.19933 0.000738554 7.87635e-05)
(1.19848 0.00114562 6.8478e-05)
(1.19861 0.00109154 6.4046e-05)
(1.19849 0.00122183 7.18201e-05)
(1.19903 0.00115039 0.000118668)
(1.19785 0.00181263 0.000111343)
(1.19805 0.00172124 0.00010285)
(1.19787 0.00193016 0.000116123)
(1.19857 0.00181307 0.000188507)
(1.1969 0.00288327 0.000178251)
(1.19721 0.00272479 0.000164711)
(1.19695 0.00305812 0.000185487)
(1.19792 0.00287077 0.000299519)
(1.19549 0.00459006 0.000307672)
(1.19598 0.00431605 0.000277278)
(1.19558 0.00483514 0.000324187)
(1.19701 0.00453505 0.000501732)
(1.19319 0.00719227 0.000677808)
(1.19399 0.00674288 0.000579146)
(1.19323 0.00750192 0.000740156)
(1.1957 0.00701468 0.000983421)
(1.18766 0.0106689 0.00234594)
(1.18933 0.010114 0.00186966)
(1.1869 0.0110507 0.0026976)
(1.19316 0.010131 0.00271579)
(1.16388 0.0130075 0.0117259)
(1.16952 0.013218 0.00911023)
(1.15589 0.0128504 0.0135782)
(1.18401 0.0109618 0.0123944)
(0.676876 -0.0136299 0.0947572)
(0.788971 -0.00391822 0.057128)
(0.66991 -0.0191497 0.07946)
(0.66731 -0.0137155 0.0953382)
(1.02909 -0.0194419 0.124524)
(1.19994 2.25637e-05 6.97072e-06)
(1.19998 3.92492e-05 9.6843e-06)
(1.19995 2.44628e-05 5.07718e-06)
(1.19994 2.26554e-05 6.88336e-06)
(1.19965 6.71776e-05 6.42984e-05)
(1.1998 7.06624e-05 5.4979e-05)
(1.19973 6.1152e-05 6.96172e-05)
(1.19983 6.26133e-05 6.38816e-05)
(1.19965 6.69489e-05 7.13624e-05)
(1.19928 4.03018e-05 6.9159e-05)
(1.19956 4.11737e-05 7.62779e-05)
(1.19951 3.94695e-05 7.71491e-05)
(1.19958 4.41897e-05 7.58953e-05)
(1.19928 4.01407e-05 8.34521e-05)
(1.19925 3.70854e-05 8.48224e-05)
(1.19934 3.72195e-05 9.05831e-05)
(1.19927 3.70836e-05 9.77093e-05)
(1.19964 4.7645e-05 9.38655e-05)
(1.19926 3.70993e-05 0.00010357)
(1.19902 3.846e-05 0.000120857)
(1.19907 3.8162e-05 0.000127791)
(1.19899 3.88288e-05 0.000141279)
(1.19948 5.77538e-05 0.000134033)
(1.19903 3.84202e-05 0.000148194)
(1.19864 4.38736e-05 0.000184185)
(1.19871 4.26997e-05 0.000193682)
(1.1986 4.50951e-05 0.000215789)
(1.19918 7.55842e-05 0.000203604)
(1.19867 4.35469e-05 0.000225425)
(1.1981 5.94089e-05 0.000288366)
(1.1982 5.67446e-05 0.00030189)
(1.19804 6.18018e-05 0.000338426)
(1.19872 0.000110303 0.000318346)
(1.19815 5.87877e-05 0.000352539)
(1.19728 8.88814e-05 0.000459474)
(1.19743 8.37113e-05 0.000479693)
(1.19717 9.41698e-05 0.000540565)
(1.198 0.000171699 0.000506963)
(1.19734 8.7913e-05 0.000561378)
(1.19593 0.000150304 0.000748166)
(1.19619 0.000139393 0.000778163)
(1.19576 0.000161513 0.000881424)
(1.19683 0.000287998 0.000823001)
(1.19605 0.000147958 0.000912085)
(1.19364 0.000295403 0.00125296)
(1.19408 0.000267867 0.00129383)
(1.19334 0.000323826 0.00147623)
(1.19489 0.000533107 0.00136916)
(1.19385 0.000288891 0.00151781)
(1.18939 0.000684467 0.00219426)
(1.19023 0.000608504 0.00222791)
(1.18879 0.000767642 0.00257232)
(1.19152 0.0011214 0.00236247)
(1.18979 0.000667776 0.00262022)
(1.18057 0.00190023 0.00418945)
(1.18235 0.00165445 0.00405617)
(1.17915 0.00219045 0.00476599)
(1.18527 0.00279335 0.00431369)
(1.18141 0.00185326 0.00483034)
(1.15915 0.00639365 0.00932822)
(1.16356 0.00545865 0.00801299)
(1.15519 0.00754949 0.0096487)
(1.17264 0.00861515 0.00857938)
(1.16119 0.00625914 0.00968618)
(1.09588 0.024243 0.0238781)
(1.11052 0.0208608 0.0171381)
(1.08455 0.0298264 0.0205037)
(1.14628 0.033098 0.0190817)
(1.1006 0.0242894 0.0185893)
(0.858752 0.0767353 0.0127345)
(0.901269 0.0863387 0.0248271)
(1.04829 0.149841 0.0425509)
(0.84565 0.0880608 0.0136184)
(0.967627 0.224863 0.0232216)
(0.552568 0.0914981 0.0181007)
(0.972035 0.22239 0.0194601)
(0.548714 0.0929763 -0.000693129)
(1.19996 1.73618e-08 7.42676e-06)
(1.19996 2.20158e-06 5.05188e-06)
(1.2 2.24732e-06 9.93682e-06)
(1.19996 3.00063e-06 5.11026e-06)
(1.19996 7.66766e-08 7.18113e-06)
(1.19988 3.73171e-05 6.37635e-05)
(1.19988 4.54496e-05 6.29602e-05)
(1.2 2.94761e-05 5.39815e-05)
(1.19999 4.32335e-05 6.80025e-05)
(1.19988 5.01718e-05 6.25902e-05)
(1.19988 3.67848e-05 7.08519e-05)
(1.19966 7.24716e-05 6.79082e-05)
(1.19966 7.09732e-05 7.43171e-05)
(1.19992 6.88714e-05 7.4039e-05)
(1.1999 7.5217e-05 7.50886e-05)
(1.19966 8.51415e-05 7.36023e-05)
(1.19966 7.17662e-05 8.19671e-05)
(1.19973 0.000107196 8.38673e-05)
(1.19973 0.000100274 9.27278e-05)
(1.1998 0.000101447 8.90084e-05)
(1.19977 0.000112158 9.62281e-05)
(1.19974 0.000121607 9.18394e-05)
(1.19974 0.000106304 0.000102442)
(1.1996 0.000160404 0.000119326)
(1.1996 0.000146917 0.000132365)
(1.19963 0.000151876 0.000125821)
(1.19958 0.000168459 0.000138619)
(1.19961 0.000178606 0.000131136)
(1.19961 0.000159168 0.000145973)
(1.19933 0.000244893 0.000179233)
(1.19932 0.000221663 0.000199431)
(1.19938 0.000231431 0.000188419)
(1.19929 0.000257607 0.000209694)
(1.19935 0.000269775 0.00019716)
(1.19935 0.000242611 0.000219585)
(1.19891 0.000379693 0.000279177)
(1.1989 0.00034202 0.000310715)
(1.19899 0.000357732 0.000292313)
(1.19886 0.000400323 0.000327438)
(1.19895 0.000416059 0.000306454)
(1.19895 0.000375412 0.000341443)
(1.19826 0.000603736 0.000443073)
(1.19825 0.0005428 0.00049341)
(1.19838 0.000566587 0.000462882)
(1.19818 0.00063855 0.000520497)
(1.19833 0.000659188 0.000485555)
(1.19832 0.000595851 0.000541389)
(1.19722 0.000991682 0.0007152)
(1.1972 0.000892285 0.00079645)
(1.19742 0.000926055 0.000744716)
(1.1971 0.00105311 0.000841099)
(1.19734 0.00107871 0.000781509)
(1.19732 0.000976689 0.000871797)
(1.19554 0.00169725 0.00118099)
(1.19551 0.00153468 0.00131315)
(1.19587 0.00157472 0.00122224)
(1.19535 0.0018124 0.00138912)
(1.19577 0.00183778 0.00128309)
(1.19572 0.0016671 0.00143154)
(1.19283 0.00307799 0.0020245)
(1.19274 0.00282049 0.00223528)
(1.19337 0.00283024 0.002066)
(1.19254 0.00331427 0.00237044)
(1.19327 0.00331262 0.00217003)
(1.19316 0.00301255 0.00242266)
(1.18858 0.00605741 0.00370753)
(1.1883 0.00571608 0.00398335)
(1.18942 0.0055049 0.00364223)
(1.18815 0.00660116 0.00422734)
(1.18947 0.00646334 0.00382506)
(1.18921 0.00589862 0.00431431)
(1.18317 0.0132424 0.00754116)
(1.18215 0.0131684 0.00750424)
(1.18401 0.0118394 0.00672258)
(1.18283 0.0145563 0.00788225)
(1.18506 0.0138186 0.00704596)
(1.18442 0.0127825 0.00815569)
(1.18549 0.0317505 0.016662)
(1.1825 0.0332467 0.014683)
(1.18412 0.0273905 0.0126592)
(1.18851 0.0334986 0.014645)
(1.18907 0.0303213 0.0131845)
(1.18762 0.0302495 0.0148762)
(1.24296 0.0674657 0.0222728)
(1.23861 0.064871 0.0236791)
(1.23114 0.0508423 0.0195811)
(1.2546 0.0516039 0.0177835)
(1.23994 0.046523 0.0182676)
(1.24126 0.0621793 0.0154329)
(1.19995 2.95348e-06 6.84037e-06)
(1.19995 2.80637e-06 5.07933e-06)
(1.2 7.71191e-06 9.67932e-06)
(1.19995 3.20993e-06 5.05998e-06)
(1.19995 2.93478e-06 7.46165e-06)
(1.19987 7.01927e-05 6.33118e-05)
(1.19988 6.71686e-05 6.12824e-05)
(1.2 5.69879e-05 5.25e-05)
(1.19998 7.99208e-05 6.59306e-05)
(1.19988 7.21391e-05 6.078e-05)
(1.19987 6.95741e-05 7.00763e-05)
(1.19966 0.000124433 6.59329e-05)
(1.19966 0.000118993 7.11068e-05)
(1.19993 0.000118954 7.07846e-05)
(1.19991 0.000129063 7.16847e-05)
(1.19967 0.000127574 7.01823e-05)
(1.19967 0.000123515 7.96086e-05)
(1.19977 0.000181015 8.04034e-05)
(1.19977 0.000173175 8.83188e-05)
(1.19984 0.000171676 8.461e-05)
(1.19981 0.000189192 9.12661e-05)
(1.19978 0.000185898 8.69155e-05)
(1.19978 0.000179609 9.83323e-05)
(1.19967 0.000268259 0.000113122)
(1.19967 0.000256507 0.000125515)
(1.1997 0.000254221 0.000118762)
(1.19966 0.000281132 0.000130728)
(1.19969 0.000275808 0.000123145)
(1.19969 0.000265882 0.000138723)
(1.19947 0.000405089 0.000168756)
(1.19946 0.000387542 0.000188019)
(1.19951 0.000383137 0.000177016)
(1.19945 0.000425727 0.00019653)
(1.1995 0.000416577 0.000184212)
(1.19949 0.000401269 0.000206633)
(1.19915 0.000623093 0.000258806)
(1.19913 0.000596166 0.000289157)
(1.19922 0.000587756 0.000271031)
(1.19912 0.000656156 0.000302562)
(1.19921 0.000639923 0.000282282)
(1.19919 0.000616195 0.000316686)
(1.19867 0.000978993 0.000405401)
(1.19864 0.000937523 0.000453867)
(1.19877 0.000920521 0.000423737)
(1.19862 0.0010331 0.000474865)
(1.19876 0.00100303 0.000441318)
(1.19873 0.000966406 0.000495417)
(1.19794 0.0015704 0.000643616)
(1.19788 0.00150686 0.000721576)
(1.19808 0.00147141 0.000671048)
(1.19786 0.00166 0.000754212)
(1.19808 0.00160215 0.000697778)
(1.19803 0.00154653 0.000784726)
(1.19683 0.00257383 0.00103779)
(1.19672 0.00248088 0.00116456)
(1.19705 0.00240264 0.00107728)
(1.19673 0.00272484 0.00121617)
(1.19707 0.00260757 0.00111853)
(1.19698 0.00252768 0.00125931)
(1.19525 0.00430111 0.0017181)
(1.19506 0.00418343 0.00192249)
(1.19558 0.00400091 0.00176538)
(1.19514 0.00455522 0.00200624)
(1.19566 0.00430602 0.0018303)
(1.19551 0.00420868 0.00206226)
(1.19338 0.00724446 0.00298572)
(1.19304 0.00717706 0.00327589)
(1.19377 0.00672847 0.00298031)
(1.19335 0.00764933 0.00341276)
(1.19402 0.00710489 0.00308516)
(1.19385 0.00705324 0.00351039)
(1.19282 0.0117754 0.00563628)
(1.19203 0.0120981 0.00574217)
(1.19272 0.0109972 0.0051727)
(1.193 0.0122344 0.00596177)
(1.19335 0.011108 0.00534051)
(1.19367 0.011373 0.00633042)
(1.20103 0.0159087 0.0119023)
(1.1989 0.0178439 0.0102378)
(1.19787 0.0152024 0.00919415)
(1.20196 0.0154138 0.0105477)
(1.19911 0.0137057 0.00943064)
(1.20249 0.0151038 0.0116577)
(1.24481 0.0115241 0.0191155)
(1.23074 0.0158337 0.0116864)
(1.22627 0.0114796 0.0121552)
(1.23713 0.00889049 0.00742885)
(1.22786 0.0077179 0.010485)
(1.24013 0.0103548 0.0155658)
(1.19995 3.91476e-06 6.52307e-06)
(1.19995 3.92881e-06 5.09854e-06)
(1.2 9.2882e-06 9.52693e-06)
(1.19995 3.9246e-06 7.5697e-06)
(1.19988 8.46164e-05 6.25908e-05)
(1.19988 8.25177e-05 5.92628e-05)
(1.2 6.84698e-05 5.07918e-05)
(1.19999 9.64553e-05 6.35815e-05)
(1.19988 8.3912e-05 6.90634e-05)
(1.19969 0.000146446 6.33323e-05)
(1.19969 0.000143951 6.71891e-05)
(1.19995 0.000140344 6.70219e-05)
(1.19994 0.000151752 6.74483e-05)
(1.19969 0.000145363 7.64226e-05)
(1.19983 0.000212282 7.54672e-05)
(1.19982 0.000209217 8.21068e-05)
(1.19989 0.000201298 7.85616e-05)
(1.19987 0.000221908 8.45123e-05)
(1.19984 0.000210552 9.24499e-05)
(1.19979 0.000315321 0.000104806)
(1.19978 0.000311107 0.000115666)
(1.19981 0.00029893 0.000109358)
(1.19978 0.000330528 0.00012005)
(1.1998 0.000312769 0.000128619)
(1.19966 0.000474492 0.00015377)
(1.19965 0.000468473 0.000171149)
(1.19969 0.000448985 0.000160776)
(1.19965 0.000498347 0.00017795)
(1.19968 0.00046996 0.000188234)
(1.19948 0.000725603 0.000232181)
(1.19945 0.000716648 0.000259649)
(1.19952 0.000685249 0.000242907)
(1.19946 0.000763181 0.000270213)
(1.19951 0.000717809 0.000284111)
(1.19921 0.00112532 0.000356851)
(1.19916 0.00111207 0.000400508)
(1.19926 0.00106007 0.000373338)
(1.19918 0.00118484 0.00041586)
(1.19925 0.00111108 0.000435821)
(1.1988 0.00176466 0.000550627)
(1.19872 0.00174636 0.000620317)
(1.19889 0.00165912 0.000575663)
(1.19877 0.00185762 0.000642219)
(1.19887 0.00173805 0.000672484)
(1.19823 0.00277996 0.000859877)
(1.19811 0.00275867 0.000971035)
(1.19836 0.00260965 0.000895703)
(1.1982 0.00292198 0.00100253)
(1.19835 0.00272972 0.00104551)
(1.19749 0.00435366 0.00136727)
(1.19731 0.00433738 0.00154385)
(1.19767 0.0040855 0.00141371)
(1.19747 0.00455712 0.0015895)
(1.19768 0.00425796 0.00164748)
(1.1966 0.00661231 0.00225775)
(1.19639 0.00661512 0.00251708)
(1.19684 0.00622604 0.00228317)
(1.19661 0.00685129 0.00258409)
(1.19693 0.00642616 0.00267696)
(1.1956 0.00904122 0.00403444)
(1.19536 0.0090842 0.00420683)
(1.19576 0.00868964 0.00377862)
(1.19539 0.00913756 0.00430621)
(1.19617 0.00867082 0.00461118)
(1.19468 0.00708884 0.00845071)
(1.19452 0.00767107 0.00725798)
(1.19418 0.00818458 0.0064819)
(1.19389 0.00587957 0.00740784)
(1.19568 0.00634165 0.00826053)
(1.20312 -0.0455035 0.0147411)
(1.20817 -0.0273075 0.00917468)
(1.19809 -0.0270661 0.00941101)
(1.20593 -0.0562608 0.00734398)
(1.201 -0.0458203 0.0106019)
(1.19994 2.29934e-05 7.34077e-06)
(1.19998 3.98763e-05 1.38123e-05)
(1.19995 2.51531e-05 7.51119e-06)
(1.19994 2.30667e-05 7.58815e-06)
(1.19964 6.67842e-05 8.8565e-05)
(1.19979 7.06113e-05 7.67962e-05)
(1.19973 6.0894e-05 0.000100475)
(1.19983 6.22097e-05 9.11751e-05)
(1.19964 6.68787e-05 9.31262e-05)
(1.19929 4.00188e-05 0.000116631)
(1.19958 4.09754e-05 0.000119824)
(1.19953 3.93928e-05 0.000123943)
(1.1996 4.35578e-05 0.000121207)
(1.1993 4.01034e-05 0.000124768)
(1.19929 3.73024e-05 0.00015045)
(1.19938 3.7466e-05 0.000151009)
(1.19932 3.73556e-05 0.000163731)
(1.19968 4.75714e-05 0.000157111)
(1.1993 3.74355e-05 0.000162457)
(1.19908 3.80963e-05 0.000216019)
(1.19913 3.80712e-05 0.000215109)
(1.19906 3.82306e-05 0.000237421)
(1.19956 5.67104e-05 0.000225603)
(1.19911 3.81545e-05 0.000233604)
(1.19877 4.27005e-05 0.000329494)
(1.19883 4.14524e-05 0.000326035)
(1.19874 4.37913e-05 0.000363691)
(1.19931 7.25076e-05 0.000343091)
(1.1988 4.22278e-05 0.000356077)
(1.1983 5.69075e-05 0.000513335)
(1.1984 5.4303e-05 0.000507043)
(1.19826 5.92095e-05 0.000567586)
(1.19893 0.000104514 0.000534423)
(1.19837 5.61564e-05 0.000554427)
(1.19761 8.42119e-05 0.000815062)
(1.19776 7.93212e-05 0.000802545)
(1.19755 8.8425e-05 0.000902657)
(1.19835 0.00016098 0.000847501)
(1.19771 8.27209e-05 0.00087932)
(1.1965 0.000137915 0.00131455)
(1.19675 0.000127487 0.0012906)
(1.19641 0.000146435 0.0014563)
(1.19741 0.000263263 0.00136276)
(1.19668 0.000133984 0.00141432)
(1.19465 0.000263399 0.00214909)
(1.19507 0.00023742 0.00210208)
(1.19449 0.000285444 0.00237908)
(1.19589 0.000476601 0.00221749)
(1.19495 0.000253282 0.00230174)
(1.19126 0.000605906 0.00356259)
(1.19205 0.00053404 0.00346363)
(1.19092 0.000674801 0.00392959)
(1.19332 0.000990914 0.00364881)
(1.1918 0.000582175 0.00378145)
(1.18425 0.00170103 0.00596096)
(1.18587 0.0014709 0.00574093)
(1.18333 0.00196095 0.00650418)
(1.18866 0.00246609 0.00603095)
(1.18518 0.0016474 0.0062187)
(1.16649 0.00593051 0.00974419)
(1.17044 0.00504664 0.0092809)
(1.16308 0.00707881 0.0103194)
(1.17895 0.00776582 0.00967827)
(1.16786 0.00582094 0.00986909)
(1.10593 0.0240539 0.0135507)
(1.11893 0.0203886 0.0130514)
(1.08997 0.0292796 0.0134516)
(1.15127 0.0312641 0.0134405)
(1.10699 0.0239192 0.013288)
(0.838177 0.085773 0.00828449)
(0.888312 0.0802397 0.0106172)
(1.02611 0.139689 0.0112628)
(0.837051 0.0859363 0.00920635)
(0.964111 0.20909 0.0180189)
(0.549276 0.0881205 0.00707796)
(0.964607 0.209425 0.00183487)
(0.549111 0.08802 0.000109449)
(1.19996 3.9529e-08 7.46205e-06)
(1.19996 2.0276e-06 7.48895e-06)
(1.2 2.19503e-06 1.39387e-05)
(1.19996 2.99245e-06 7.48005e-06)
(1.19996 3.20334e-08 7.7642e-06)
(1.19988 3.59372e-05 8.87285e-05)
(1.19988 4.47665e-05 9.11856e-05)
(1.2 2.88628e-05 7.70537e-05)
(1.19999 4.22859e-05 0.000100376)
(1.19988 4.94032e-05 9.09908e-05)
(1.19988 3.55233e-05 9.34844e-05)
(1.19967 7.00449e-05 0.000114888)
(1.19967 6.9069e-05 0.00011974)
(1.19994 6.69527e-05 0.00011818)
(1.19992 7.29744e-05 0.00012209)
(1.19967 8.30449e-05 0.000118972)
(1.19968 6.92917e-05 0.000123104)
(1.19977 0.000103563 0.000148531)
(1.19977 9.73073e-05 0.000155429)
(1.19984 9.80956e-05 0.000148977)
(1.19981 0.000108402 0.000161538)
(1.19978 0.000117764 0.000154257)
(1.19978 0.000102385 0.000160248)
(1.19967 0.000154753 0.000212728)
(1.19967 0.000141909 0.000222779)
(1.1997 0.000146448 0.0002117)
(1.19966 0.000162064 0.000233423)
(1.19968 0.000172106 0.00022086)
(1.19969 0.000152824 0.000229725)
(1.19944 0.000233521 0.000321034)
(1.19945 0.000210823 0.00033665)
(1.1995 0.000220344 0.000318029)
(1.19943 0.000244442 0.000353992)
(1.19948 0.000256713 0.000332917)
(1.19948 0.00022977 0.000346956)
(1.1991 0.000358346 0.000497992)
(1.19911 0.000321646 0.000522479)
(1.19918 0.00033667 0.000491983)
(1.19908 0.000375841 0.00055035)
(1.19915 0.000391278 0.000515663)
(1.19916 0.0003515 0.000537983)
(1.19857 0.000564104 0.000786005)
(1.19859 0.000504816 0.000824921)
(1.19869 0.000527485 0.00077456)
(1.19854 0.000592602 0.000869444)
(1.19866 0.000612864 0.000812029)
(1.19867 0.000551168 0.000847736)
(1.19774 0.000915829 0.00125632)
(1.19776 0.000818967 0.00131871)
(1.19794 0.000851238 0.00123496)
(1.19769 0.000964873 0.00138994)
(1.19789 0.000990094 0.00129419)
(1.1979 0.000891232 0.0013518)
(1.19643 0.00154675 0.00202928)
(1.19646 0.001388 0.00212867)
(1.19675 0.0014275 0.00198814)
(1.19636 0.00163668 0.00224233)
(1.19669 0.00166242 0.00208104)
(1.1967 0.00149901 0.00217369)
(1.19438 0.00276022 0.00330879)
(1.1944 0.00250813 0.00346279)
(1.19489 0.0025236 0.00322433)
(1.19429 0.00294178 0.00364078)
(1.19486 0.00294666 0.00336661)
(1.19483 0.00266382 0.00351278)
(1.19137 0.00533057 0.00540417)
(1.1913 0.00499654 0.00562469)
(1.19212 0.00481659 0.00522462)
(1.19129 0.00574735 0.0058757)
(1.1923 0.00565559 0.00542584)
(1.19207 0.00513113 0.00564035)
(1.18794 0.0114289 0.0085176)
(1.1874 0.0114305 0.00877742)
(1.18874 0.0101951 0.00816297)
(1.18809 0.0125358 0.00897822)
(1.18991 0.0120128 0.00836854)
(1.18882 0.0110179 0.00862768)
(1.18708 0.0302952 0.011485)
(1.19043 0.0276122 0.0112964)
(1.18922 0.0242725 0.0108428)
(1.19192 0.0304627 0.0109336)
(1.19052 0.0267733 0.0112076)
(1.19373 0.0274875 0.0106539)
(1.22157 0.0769337 0.00772783)
(1.23149 0.0638134 0.00788973)
(1.21957 0.0564759 0.00782451)
(1.24013 0.0639804 0.00523316)
(1.22871 0.0622409 0.00832624)
(1.22999 0.0544245 0.00617118)
(1.19995 2.91253e-06 7.30683e-06)
(1.19995 2.75694e-06 7.44174e-06)
(1.2 7.72129e-06 1.37709e-05)
(1.19995 3.12228e-06 7.42864e-06)
(1.19995 2.90052e-06 7.66521e-06)
(1.19987 6.8614e-05 8.77067e-05)
(1.19987 6.63503e-05 9.00717e-05)
(1.19999 5.64422e-05 7.61156e-05)
(1.19998 7.87958e-05 9.87841e-05)
(1.19987 7.11335e-05 8.96722e-05)
(1.19987 6.80401e-05 9.24199e-05)
(1.19968 0.000121085 0.000111611)
(1.19968 0.000116232 0.000116367)
(1.19994 0.000116257 0.000114922)
(1.19993 0.000125928 0.000118439)
(1.19968 0.000124585 0.000115319)
(1.19968 0.000120046 0.000119599)
(1.19981 0.00017509 0.000142731)
(1.19981 0.000167581 0.000149648)
(1.19987 0.000166345 0.000143336)
(1.19985 0.00018284 0.000155057)
(1.19982 0.000179861 0.000147801)
(1.19982 0.000173238 0.000153961)
(1.19974 0.00025764 0.000202756)
(1.19974 0.000246151 0.000213025)
(1.19977 0.000244115 0.000202044)
(1.19974 0.000269371 0.00022211)
(1.19976 0.00026456 0.000209782)
(1.19976 0.000254386 0.000218991)
(1.19958 0.000386067 0.000301951)
(1.19958 0.000368362 0.000317926)
(1.19962 0.000364409 0.000299524)
(1.19957 0.00040404 0.000332434)
(1.19962 0.000395672 0.000311792)
(1.19961 0.000379911 0.000326283)
(1.19933 0.00058868 0.000462711)
(1.19933 0.000560916 0.000488096)
(1.19939 0.000553801 0.000457965)
(1.19932 0.000616427 0.000510519)
(1.19939 0.000602116 0.000476878)
(1.19939 0.000577425 0.000499989)
(1.19895 0.000914989 0.000719601)
(1.19894 0.000871564 0.000760051)
(1.19905 0.000857039 0.000710482)
(1.19894 0.000959224 0.000794542)
(1.19905 0.000932874 0.000739326)
(1.19904 0.000894206 0.000776329)
(1.19839 0.00145111 0.00113168)
(1.19837 0.00138404 0.00119667)
(1.19853 0.00135391 0.00111493)
(1.19837 0.001522 0.00124906)
(1.19855 0.00147199 0.00115847)
(1.19853 0.00141281 0.00121803)
(1.19757 0.00234494 0.00178909)
(1.19753 0.00224467 0.00189369)
(1.19779 0.00217795 0.00175815)
(1.19756 0.00246016 0.00197076)
(1.19783 0.00235929 0.00182129)
(1.1978 0.00227236 0.00191709)
(1.1965 0.00385434 0.00283806)
(1.19641 0.00372106 0.00300197)
(1.1968 0.00356592 0.00277676)
(1.19654 0.00404076 0.00311231)
(1.19693 0.00382847 0.00286633)
(1.19686 0.0037184 0.00301575)
(1.1955 0.00636098 0.00448466)
(1.19533 0.00625789 0.00472249)
(1.19585 0.00587621 0.0043598)
(1.19572 0.00664275 0.00486159)
(1.19616 0.00618103 0.00447655)
(1.19605 0.0061145 0.00469187)
(1.19631 0.0100802 0.0068168)
(1.19598 0.0103407 0.0070905)
(1.19631 0.00937903 0.00658338)
(1.19708 0.010369 0.00717177)
(1.19705 0.00938837 0.00668926)
(1.19695 0.00967811 0.00694455)
(1.20525 0.0131182 0.00882076)
(1.20391 0.0152042 0.00860201)
(1.20294 0.012631 0.00829965)
(1.20675 0.0127363 0.00817385)
(1.20402 0.0110594 0.00810243)
(1.20513 0.0126196 0.00888515)
(1.23554 0.00884729 0.00640079)
(1.23007 0.01481 0.00330511)
(1.22658 0.00954448 0.00435657)
(1.23582 0.00756403 0.00141226)
(1.22791 0.00513459 0.00297528)
(1.23242 0.00852598 0.00613613)
(1.19995 3.82344e-06 7.16303e-06)
(1.19995 3.78338e-06 7.34874e-06)
(1.2 9.0139e-06 1.35703e-05)
(1.19995 3.79917e-06 7.5405e-06)
(1.19988 8.25145e-05 8.63183e-05)
(1.19988 8.11912e-05 8.83177e-05)
(1.2 6.72661e-05 7.47226e-05)
(1.19999 9.48739e-05 9.64929e-05)
(1.19988 8.17114e-05 9.07763e-05)
(1.1997 0.000142418 0.000107065)
(1.1997 0.000140398 0.000111778)
(1.19997 0.000137269 0.000110443)
(1.19996 0.000147755 0.000113448)
(1.19971 0.000141228 0.000114886)
(1.19986 0.000204821 0.000134747)
(1.19986 0.000202012 0.000141599)
(1.19992 0.000194435 0.000135646)
(1.19991 0.00021401 0.000146148)
(1.19987 0.000202559 0.000145498)
(1.19985 0.000302903 0.000188486)
(1.19984 0.000298313 0.000198647)
(1.19987 0.000286853 0.000188225)
(1.19985 0.000316531 0.000206102)
(1.19987 0.000298833 0.000203661)
(1.19976 0.000452206 0.00027567)
(1.19975 0.000445025 0.000291264)
(1.19979 0.000427109 0.000274214)
(1.19976 0.000472968 0.000302847)
(1.19979 0.000445055 0.000298087)
(1.19963 0.000685914 0.000414903)
(1.19961 0.000674455 0.000439285)
(1.19967 0.000645754 0.000411394)
(1.19963 0.000717553 0.000456638)
(1.19968 0.000672809 0.000448168)
(1.19943 0.00105344 0.000633195)
(1.19941 0.00103573 0.000671714)
(1.1995 0.000988904 0.000626761)
(1.19944 0.00110179 0.000697315)