/*--------------------------------*- C++ -*----------------------------------*\
| =========                 |                                                 |
| \\      /  F ield         | OpenFOAM: The Open Source CFD Toolbox           |
|  \\    /   O peration     | Version:  2012                                  |
|   \\  /    A nd           | Website:  www.openfoam.com                      |
|    \\/     M anipulation  |                                                 |
\*---------------------------------------------------------------------------*/
FoamFile
{
    version     2.0;
    format      ascii;
    class       volScalarField::Internal;
    location    "0.105/fluid";
    object      V0;
}
// * * * * * * * * * * * * * * * * * * * * * * * * * * * * * * * * * * * * * //

dimensions      [0 3 0 0 0 0 0];


value           nonuniform List<scalar> 
16421
(
4.25188e-05
4.25183e-05
4.25181e-05
4.25186e-05
4.25195e-05
4.25205e-05
4.2522e-05
4.25234e-05
4.25248e-05
4.25257e-05
4.25247e-05
4.25176e-05
4.24882e-05
4.23057e-05
6.9608e-07
4.25266e-05
4.25247e-05
4.25223e-05
4.25225e-05
4.25223e-05
4.25217e-05
4.25214e-05
4.25223e-05
4.25229e-05
4.25233e-05
4.2524e-05
4.25239e-05
4.25182e-05
4.24997e-05
5.28445e-06
4.25348e-05
4.25316e-05
4.25271e-05
4.2527e-05
4.25264e-05
4.25235e-05
4.25188e-05
4.25192e-05
4.25197e-05
4.252e-05
4.25229e-05
4.25307e-05
4.25442e-05
4.25578e-05
5.27394e-06
4.25416e-05
4.25377e-05
4.25323e-05
4.25331e-05
4.25329e-05
4.25261e-05
4.25211e-05
4.25196e-05
4.25196e-05
4.25201e-05
4.25233e-05
4.25311e-05
4.25416e-05
4.25403e-05
5.28612e-06
4.25188e-05
4.25182e-05
4.25178e-05
4.25188e-05
4.25188e-05
4.252e-05
4.25212e-05
4.25231e-05
4.25241e-05
4.25249e-05
4.25242e-05
4.25189e-05
4.25038e-05
4.24777e-05
4.23971e-05
4.25264e-05
4.25247e-05
4.25224e-05
4.25222e-05
4.2521e-05
4.25211e-05
4.25207e-05
4.25211e-05
4.25217e-05
4.25226e-05
4.25231e-05
4.25237e-05
4.25243e-05
4.2539e-05
4.26542e-05
4.25345e-05
4.25322e-05
4.2527e-05
4.25269e-05
4.2525e-05
4.25218e-05
4.25179e-05
4.25174e-05
4.25175e-05
4.25185e-05
4.25209e-05
4.25296e-05
4.25439e-05
4.25674e-05
4.26095e-05
4.25405e-05
4.25383e-05
4.25327e-05
4.25322e-05
4.25307e-05
4.25259e-05
4.25203e-05
4.25167e-05
4.25172e-05
4.25189e-05
4.25214e-05
4.25302e-05
4.25432e-05
4.2541e-05
4.25412e-05
4.25187e-05
4.2518e-05
4.25182e-05
4.25184e-05
4.25187e-05
4.252e-05
4.25218e-05
4.25224e-05
4.25231e-05
4.25237e-05
4.25227e-05
4.25184e-05
4.25068e-05
4.24701e-05
4.22817e-05
4.25259e-05
4.25246e-05
4.25232e-05
4.25218e-05
4.25205e-05
4.25198e-05
4.25198e-05
4.25189e-05
4.25191e-05
4.25205e-05
4.25214e-05
4.25218e-05
4.25238e-05
4.25357e-05
4.25971e-05
4.25338e-05
4.25318e-05
4.25289e-05
4.25265e-05
4.25248e-05
4.25201e-05
4.25157e-05
4.25145e-05
4.25145e-05
4.25155e-05
4.25177e-05
4.25257e-05
4.25416e-05
4.25734e-05
4.26339e-05
4.25404e-05
4.25378e-05
4.25345e-05
4.25313e-05
4.25289e-05
4.2523e-05
4.25167e-05
4.25143e-05
4.25152e-05
4.25148e-05
4.25173e-05
4.25256e-05
4.25399e-05
4.25501e-05
4.25313e-05
5.24585e-06
4.24682e-05
4.20638e-05
4.24591e-05
4.2537e-05
4.2515e-05
4.26046e-05
5.26059e-06
4.25657e-05
4.27035e-05
4.30298e-05
5.27436e-06
4.26374e-05
4.28695e-05
4.2562e-05
4.27016e-05
5.28168e-06
4.25651e-05
4.27182e-05
4.25882e-05
4.2784e-05
4.2571e-05
5.32333e-06
4.26653e-05
4.28648e-05
4.22872e-05
4.2574e-05
4.27029e-05
5.32228e-06
4.25243e-05
5.31405e-06
4.25626e-05
4.2688e-05
5.31436e-06
5.53523e-06
6.65058e-07
5.32079e-06
5.3251e-06
5.39281e-06
4.24265e-05
4.25532e-05
4.24931e-05
4.25308e-05
4.25876e-05
4.25604e-05
4.2569e-05
5.2789e-06
5.27947e-06
4.23696e-05
5.28669e-06
4.23712e-05
4.24822e-05
4.25516e-05
4.2512e-05
4.25635e-05
4.25709e-05
4.25525e-05
4.25744e-05
5.28452e-06
5.27445e-06
4.23389e-05
5.2792e-06
4.2351e-05
4.25266e-05
4.25407e-05
4.25429e-05
4.26039e-05
5.33448e-06
4.27504e-05
4.25599e-05
4.26768e-05
4.26356e-05
4.27327e-05
4.25345e-05
4.25893e-05
4.25282e-05
4.25468e-05
4.25218e-05
4.23372e-05
4.25279e-05
4.23175e-05
4.27237e-05
4.25389e-05
4.25869e-05
4.25293e-05
4.23122e-05
4.25461e-05
4.23234e-05
4.22627e-05
4.17137e-05
5.31932e-06
5.26776e-06
5.29745e-06
4.22156e-05
4.20338e-05
5.55478e-06
6.80205e-07
6.50956e-07
5.48988e-06
5.31684e-06
4.219e-05
5.32957e-06
5.2914e-06
5.52206e-06
5.34848e-06
5.59451e-06
5.2865e-06
5.46095e-06
6.469e-07
6.69163e-07
6.7764e-07
5.32966e-06
6.51666e-07
5.27287e-06
5.3399e-06
5.28043e-06
5.33061e-06
5.27951e-06
5.27792e-06
4.23401e-05
4.23519e-05
5.27921e-06
5.27361e-06
5.33246e-06
5.332e-06
5.27314e-06
5.27874e-06
5.33271e-06
5.27316e-06
5.33991e-06
5.28546e-06
5.27497e-06
4.2467e-05
4.23858e-05
5.31799e-06
5.28003e-06
5.3936e-06
5.34173e-06
5.32413e-06
5.41223e-06
5.34427e-06
4.26342e-05
4.23882e-05
4.25686e-05
5.38183e-06
5.30928e-06
5.34594e-06
5.31584e-06
6.47189e-07
6.69358e-07
5.32818e-06
6.68704e-07
6.46774e-07
5.31733e-06
6.46803e-07
6.6864e-07
6.6878e-07
5.31454e-06
6.4685e-07
5.30922e-06
5.31494e-06
5.30206e-06
4.25232e-05
4.23084e-05
4.23098e-05
5.31556e-06
5.30143e-06
5.30304e-06
5.31447e-06
6.46828e-07
6.68672e-07
5.31537e-06
6.68626e-07
6.46801e-07
5.3149e-06
6.68639e-07
6.46812e-07
5.302e-06
5.3147e-06
5.30331e-06
5.31526e-06
5.30398e-06
7.06645e-07
6.32705e-07
6.68085e-07
6.79941e-07
4.24664e-05
4.25247e-05
4.26065e-05
4.24745e-05
4.23717e-05
4.25224e-05
4.25506e-05
4.26008e-05
5.24694e-06
4.25602e-05
4.2329e-05
4.26694e-05
4.24815e-05
5.24145e-06
4.28197e-05
4.26096e-05
4.27402e-05
4.26076e-05
4.26917e-05
4.26568e-05
4.27593e-05
4.23631e-05
4.25188e-05
4.25409e-05
4.25557e-05
5.24059e-06
4.24206e-05
4.22799e-05
4.25575e-05
4.24168e-05
5.24053e-06
4.2675e-05
4.26545e-05
4.27501e-05
5.12282e-06
5.17181e-06
6.39917e-07
5.09997e-06
6.19533e-07
5.10542e-06
5.16418e-06
4.24427e-05
4.22439e-05
4.23513e-05
4.22637e-05
4.23504e-05
4.24157e-05
4.24527e-05
6.42463e-07
6.73552e-07
6.61635e-07
6.52079e-07
4.35994e-05
4.30656e-05
5.25134e-06
4.27422e-05
4.31885e-05
4.28649e-05
5.31524e-06
4.33864e-05
4.32585e-05
5.35299e-06
4.28864e-05
5.46194e-06
4.29895e-05
4.2742e-05
6.5356e-07
6.7449e-07
6.75138e-07
6.52931e-07
6.53765e-07
6.7547e-07
6.75439e-07
6.53786e-07
6.53852e-07
6.75464e-07
6.75551e-07
6.53779e-07
6.54367e-07
6.78584e-07
6.76182e-07
6.56244e-07
6.6834e-07
6.79198e-07
7.03797e-07
6.56523e-07
4.24703e-05
5.34506e-06
4.27594e-05
4.27762e-05
4.2546e-05
5.33497e-06
4.2685e-05
4.25739e-05
4.23e-05
5.24052e-06
4.24288e-05
4.24458e-05
4.25625e-05
5.24121e-06
4.24376e-05
4.2729e-05
5.33221e-06
4.26205e-05
5.3341e-06
4.26437e-05
4.24221e-05
4.24105e-05
5.33205e-06
4.26074e-05
4.26791e-05
4.24144e-05
5.3315e-06
4.25995e-05
5.24063e-06
5.33149e-06
6.89866e-07
7.0108e-07
7.00377e-07
6.80091e-07
7.1417e-07
6.50524e-07
4.45669e-08
6.74307e-07
6.52602e-07
6.9733e-07
6.81989e-07
6.90873e-07
6.80092e-07
5.25041e-06
6.49039e-07
6.56072e-07
5.25887e-06
6.56565e-07
6.45304e-07
5.24575e-06
6.5663e-07
6.44189e-07
6.56606e-07
5.24301e-06
6.44848e-07
5.24052e-06
6.43636e-07
6.56671e-07
5.24035e-06
6.56753e-07
6.43646e-07
5.24083e-06
6.56902e-07
6.43667e-07
6.56711e-07
5.24156e-06
6.43628e-07
5.30456e-06
6.43996e-07
6.5922e-07
5.27007e-06
6.70878e-07
6.47022e-07
6.80138e-07
6.49214e-07
5.20476e-06
2.46033e-08
5.23221e-06
5.33534e-06
6.13621e-07
5.29218e-06
5.22891e-06
5.40795e-08
7.27217e-07
7.33527e-07
5.72012e-08
7.70451e-07
7.30053e-07
5.57887e-08
6.71773e-07
7.48438e-07
7.30268e-07
5.42532e-08
7.37923e-07
6.82803e-07
7.12706e-07
7.11761e-07
5.28841e-08
6.78821e-07
6.8939e-07
7.31309e-07
5.14958e-08
6.55333e-07
5.2151e-06
5.19876e-06
7.73099e-08
6.64864e-07
5.17721e-06
6.58034e-07
5.21277e-06
6.53236e-07
6.55658e-07
5.27092e-06
6.46917e-07
7.24072e-07
6.53187e-07
6.89214e-07
6.79125e-07
6.39955e-07
9.60258e-08
6.3269e-07
7.35792e-07
7.12726e-07
6.4338e-07
6.39057e-07
6.58772e-07
6.49266e-07
6.48554e-07
6.30926e-07
6.88193e-07
7.02465e-07
6.38531e-07
5.14921e-08
6.69309e-07
6.48048e-07
6.71448e-07
5.14886e-08
5.42453e-08
6.7077e-07
6.572e-07
6.59715e-07
5.42405e-08
5.42433e-08
6.70105e-07
6.7056e-07
5.42635e-08
6.59254e-07
5.14908e-08
6.79668e-07
6.474e-07
5.15058e-08
6.7061e-07
6.50108e-07
6.59358e-07
6.59889e-07
6.49418e-07
6.53691e-07
6.75356e-07
6.75308e-07
6.53717e-07
6.50244e-07
6.59952e-07
6.59957e-07
6.50296e-07
5.24044e-06
6.43646e-07
6.56692e-07
5.24036e-06
6.56658e-07
6.43796e-07
5.24069e-06
6.56651e-07
6.44083e-07
5.24151e-06
6.5665e-07
6.43891e-07
6.53754e-07
6.75415e-07
6.53763e-07
6.75423e-07
6.50364e-07
6.59976e-07
6.5996e-07
6.50394e-07
6.50352e-07
6.59975e-07
6.50344e-07
6.5995e-07
6.50461e-07
6.59958e-07
6.60028e-07
6.50388e-07
6.53811e-07
6.75732e-07
6.75516e-07
6.54003e-07
6.50427e-07
6.60167e-07
6.59992e-07
6.50611e-07
5.24855e-06
6.44072e-07
6.58991e-07
5.25572e-06
6.57239e-07
6.43731e-07
5.24484e-06
6.56834e-07
6.43641e-07
5.24269e-06
6.57342e-07
6.43773e-07
6.54467e-07
6.75657e-07
6.53935e-07
6.76276e-07
6.50953e-07
6.62203e-07
6.60483e-07
6.52757e-07
6.51057e-07
6.60099e-07
6.50545e-07
6.60581e-07
6.68915e-07
6.79102e-07
6.58218e-07
6.65256e-07
6.62474e-07
6.77326e-07
6.53006e-07
6.71474e-07
6.67456e-07
6.54697e-07
6.70833e-07
6.86108e-07
6.56275e-07
6.58151e-07
6.52735e-07
6.52172e-07
6.52569e-07
6.54554e-07
6.56449e-07
6.57349e-07
6.55901e-07
5.14893e-08
6.69747e-07
6.46792e-07
6.69046e-07
5.14901e-08
5.4241e-08
6.57566e-07
6.68816e-07
5.4242e-08
6.56726e-07
5.42409e-08
6.56583e-07
6.6894e-07
6.56947e-07
5.42403e-08
5.14892e-08
6.68983e-07
6.46939e-07
6.69285e-07
5.14887e-08
5.1489e-08
6.68968e-07
6.46826e-07
6.69054e-07
5.1489e-08
5.42406e-08
6.68711e-07
6.56513e-07
6.56624e-07
5.42405e-08
5.42406e-08
6.56723e-07
6.68659e-07
5.42406e-08
6.56533e-07
5.1489e-08
6.69127e-07
6.46772e-07
5.14895e-08
6.68973e-07
6.55854e-07
6.57187e-07
6.57304e-07
6.55764e-07
6.52067e-07
6.52275e-07
6.55799e-07
6.57512e-07
6.57202e-07
6.56e-07
6.52123e-07
6.52031e-07
6.55761e-07
6.57252e-07
6.55797e-07
6.57185e-07
6.52048e-07
6.71185e-07
6.71187e-07
6.52031e-07
6.52029e-07
6.7119e-07
6.52066e-07
6.71169e-07
6.55781e-07
6.57182e-07
6.57217e-07
6.55758e-07
5.1489e-08
6.69026e-07
6.46796e-07
6.68976e-07
5.14891e-08
5.42405e-08
6.56578e-07
6.68627e-07
5.42405e-08
6.56512e-07
5.42401e-08
6.56514e-07
6.68653e-07
6.56552e-07
5.42401e-08
5.14886e-08
6.6899e-07
6.46813e-07
6.6902e-07
5.14886e-08
6.5654e-07
5.42397e-08
6.69018e-07
5.14883e-08
6.5579e-07
6.57261e-07
6.57183e-07
6.55824e-07
6.52056e-07
6.71197e-07
6.71187e-07
6.52041e-07
6.55794e-07
6.57204e-07
6.57185e-07
6.55767e-07
6.52057e-07
6.71178e-07
6.71175e-07
6.5209e-07
6.57252e-07
6.5581e-07
6.7116e-07
6.5208e-07
8.56186e-08
6.54045e-07
6.6966e-07
6.33434e-07
7.69568e-08
9.77968e-08
9.78095e-08
9.78243e-08
9.78238e-08
9.7861e-08
9.79785e-08
5.17334e-06
5.20308e-06
5.32825e-06
5.26301e-06
5.28993e-06
5.2003e-06
5.24759e-06
7.21371e-08
8.35293e-08
8.36155e-08
7.20843e-08
9.77945e-08
9.79171e-08
7.20944e-08
8.35322e-08
8.35388e-08
7.20875e-08
7.20982e-08
8.35481e-08
8.35473e-08
7.20984e-08
9.78243e-08
9.78231e-08
7.20982e-08
8.35481e-08
8.3548e-08
7.20985e-08
7.21048e-08
8.35822e-08
8.35554e-08
7.21229e-08
9.7878e-08
9.78398e-08
7.21658e-08
8.35669e-08
8.36455e-08
7.21148e-08
8.18603e-08
9.6701e-08
8.18946e-08
9.67163e-08
8.18136e-08
9.67211e-08
9.67204e-08
8.18105e-08
9.78225e-08
9.7821e-08
8.18203e-08
9.67198e-08
8.18181e-08
9.6719e-08
8.18211e-08
9.67196e-08
9.6717e-08
8.1829e-08
9.78276e-08
9.78244e-08
8.20001e-08
9.67405e-08
8.18835e-08
9.6814e-08
6.99169e-07
5.48379e-06
5.69936e-06
5.51445e-06
5.75212e-06
5.74727e-06
6.75492e-07
8.22383e-08
9.67097e-08
8.19623e-08
9.68382e-08
7.1069e-08
8.26892e-08
8.27993e-08
7.09957e-08
6.73049e-07
5.37522e-06
5.37742e-06
5.42138e-06
6.74508e-07
5.36627e-06
5.31612e-06
6.72913e-07
5.35371e-06
5.33455e-06
5.28115e-06
5.34569e-06
5.29344e-06
6.72624e-07
7.10088e-08
8.26849e-08
8.26895e-08
7.09979e-08
7.20985e-08
8.35466e-08
8.3546e-08
7.20983e-08
7.10143e-08
8.26897e-08
8.26901e-08
7.10151e-08
8.1817e-08
9.67198e-08
8.18193e-08
9.67188e-08
8.18086e-08
9.6721e-08
8.18097e-08
9.67197e-08
7.20973e-08
8.35477e-08
7.20982e-08
8.3547e-08
7.10155e-08
8.26878e-08
8.26872e-08
7.10161e-08
7.10146e-08
8.26896e-08
7.10153e-08
8.26883e-08
9.7824e-08
9.78239e-08
7.10161e-08
8.26877e-08
8.26878e-08
7.10161e-08
7.20985e-08
8.35504e-08
8.35477e-08
7.20999e-08
7.10172e-08
8.26888e-08
8.26868e-08
7.10185e-08
8.18525e-08
9.67554e-08
8.19083e-08
9.67276e-08
8.18341e-08
9.6717e-08
8.18243e-08
9.67201e-08
7.21015e-08
8.35478e-08
7.20985e-08
8.35527e-08
7.10231e-08
8.27113e-08
8.2692e-08
7.10369e-08
7.10201e-08
8.2686e-08
7.10171e-08
8.26896e-08
9.78252e-08
9.78309e-08
7.10703e-08
8.26981e-08
8.27479e-08
7.10276e-08
6.72516e-07
5.32033e-06
5.27073e-06
5.32542e-06
5.32669e-06
5.27215e-06
6.72489e-07
6.72523e-07
5.31887e-06
5.33073e-06
5.27676e-06
5.32747e-06
6.726e-07
5.27313e-06
6.7248e-07
5.27053e-06
5.31486e-06
5.32531e-06
6.7249e-07
5.32472e-06
5.26985e-06
6.7248e-07
5.31601e-06
5.32447e-06
5.26946e-06
5.32477e-06
5.26981e-06
6.72477e-07
6.72473e-07
5.31505e-06
5.26928e-06
5.32438e-06
5.32446e-06
5.26939e-06
6.72472e-07
6.72473e-07
5.31446e-06
5.32455e-06
5.2695e-06
5.32438e-06
6.72475e-07
5.26931e-06
5.26934e-06
5.32445e-06
6.72475e-07
1.04077e-07
1.01328e-07
9.78169e-08
9.78135e-08
9.78257e-08
9.78244e-08
9.89929e-08
9.79582e-08
6.31167e-07
6.52807e-07
6.73979e-08
6.17245e-07
6.49673e-07
6.12761e-07
6.32413e-07
7.23017e-08
8.55249e-08
8.38532e-08
7.29916e-08
7.1606e-08
7.13245e-08
7.1541e-08
7.14119e-08
7.17848e-08
7.15464e-08
7.22633e-08
7.16295e-08
9.94076e-08
9.8209e-08
7.15504e-08
7.13283e-08
7.15435e-08
7.13364e-08
7.20964e-08
8.35436e-08
8.35417e-08
7.20978e-08
7.15524e-08
7.13398e-08
7.13377e-08
7.1554e-08
7.20967e-08
8.35478e-08
8.35464e-08
7.20981e-08
7.15557e-08
7.13418e-08
7.15558e-08
7.13416e-08
7.15541e-08
7.13417e-08
7.15557e-08
7.134e-08
9.78242e-08
9.7823e-08
7.15555e-08
7.13418e-08
7.15559e-08
7.13416e-08
7.20982e-08
8.35487e-08
8.35476e-08
7.2099e-08
7.15555e-08
7.13422e-08
7.13416e-08
7.15566e-08
7.21099e-08
8.35517e-08
8.35637e-08
7.2102e-08
7.15629e-08
7.13627e-08
7.158e-08
7.13477e-08
7.15672e-08
7.1345e-08
7.15598e-08
7.13517e-08
9.7831e-08
9.78489e-08
7.16208e-08
7.13547e-08
7.15718e-08
7.13941e-08
7.21526e-08
8.4374e-08
8.36164e-08
7.25689e-08
7.16077e-08
7.17551e-08
7.13846e-08
7.19934e-08
6.64757e-08
6.70322e-07
8.61115e-08
7.4677e-08
8.77315e-08
7.544e-07
1.43362e-08
6.65466e-07
9.61307e-08
4.13448e-08
4.28227e-08
7.88173e-08
9.16259e-08
7.45647e-08
7.47919e-08
7.7117e-08
7.46893e-08
8.18403e-08
9.67197e-08
8.18306e-08
9.67152e-08
8.18167e-08
9.67189e-08
8.18227e-08
9.67207e-08
9.78198e-08
9.78211e-08
8.18193e-08
9.67188e-08
8.18223e-08
9.67192e-08
8.18252e-08
9.67169e-08
8.18195e-08
9.67185e-08
9.78236e-08
9.78263e-08
8.19628e-08
9.72706e-08
8.24498e-08
9.67885e-08
9.75857e-08
8.2644e-08
9.97836e-08
7.4546e-08
7.4541e-08
7.45406e-08
7.45433e-08
7.45415e-08
7.45421e-08
7.45399e-08
6.59547e-07
6.4442e-07
2.68182e-08
6.22524e-07
6.16466e-07
6.35336e-07
6.69975e-07
8.49163e-08
7.7646e-07
1.82568e-08
8.676e-08
1.05799e-07
5.53321e-08
7.04778e-08
8.78857e-08
2.99164e-08
9.45886e-08
7.42592e-07
2.01476e-08
8.4927e-08
8.20763e-08
9.15722e-08
7.88151e-08
9.19957e-08
8.22149e-08
7.98204e-08
6.89897e-07
5.43203e-08
6.69706e-07
8.35344e-08
7.7938e-08
7.45644e-08
7.47915e-08
7.74439e-08
7.77592e-08
7.71187e-08
7.46895e-08
8.09887e-08
8.00158e-08
5.43092e-08
6.5861e-07
6.62201e-07
7.94023e-08
1.01003e-07
7.32812e-07
5.15536e-08
7.15985e-07
1.04279e-07
8.45853e-08
7.11621e-08
8.4375e-08
7.12866e-08
1.01231e-07
5.15429e-08
7.08056e-07
7.10538e-07
1.00887e-07
8.43999e-08
7.14325e-08
8.67182e-08
7.11239e-08
6.38912e-07
7.07525e-07
3.25471e-08
8.6914e-08
6.2889e-07
4.065e-08
7.10799e-07
6.47373e-07
6.34809e-07
6.54246e-07
8.89673e-08
6.42124e-07
4.324e-08
6.96724e-07
8.26935e-08
9.83337e-08
8.34315e-08
9.71678e-08
9.46214e-08
8.47089e-08
7.65134e-08
8.12052e-08
8.60758e-08
8.33501e-08
6.92798e-08
6.41064e-08
6.73796e-08
7.09088e-08
7.12264e-08
7.1318e-08
7.08229e-08
7.12755e-08
8.43616e-08
8.30746e-08
7.13625e-08
7.11259e-08
7.13754e-08
7.15431e-08
7.10255e-08
8.02836e-08
6.48619e-08
6.35172e-08
6.36104e-08
1.00908e-07
7.05527e-07
5.149e-08
7.05371e-07
1.00935e-07
8.44132e-08
7.11902e-08
8.44011e-08
7.11979e-08
1.00925e-07
5.1491e-08
7.05238e-07
7.05313e-07
1.00909e-07
8.44004e-08
7.12248e-08
8.44161e-08
7.11912e-08
7.92878e-08
6.54579e-07
5.42422e-08
7.93304e-08
6.54357e-07
7.73772e-08
7.45411e-08
7.45506e-08
7.73578e-08
7.7363e-08
7.45583e-08
7.73978e-08
7.45433e-08
7.93041e-08
5.42432e-08
6.54143e-07
6.54251e-07
7.92803e-08
7.93864e-08
5.4251e-08
6.54805e-07
6.5528e-07
7.92994e-08
7.73922e-08
7.46222e-08
7.75529e-08
7.45513e-08
7.93279e-08
5.42466e-08
6.57007e-07
7.95276e-08
6.55851e-07
7.74423e-08
7.45465e-08
7.73715e-08
7.45771e-08
1.00961e-07
5.14968e-08
7.05655e-07
7.05985e-07
1.00904e-07
8.43886e-08
7.12309e-08
8.447e-08
7.12026e-08
1.00899e-07
5.14925e-08
7.071e-07
1.01019e-07
7.06318e-07
8.44338e-08
7.11994e-08
8.43951e-08
7.12189e-08
9.62654e-08
7.45405e-08
7.45501e-08
7.45579e-08
7.45428e-08
7.46224e-08
7.45511e-08
7.45461e-08
7.45769e-08
7.08343e-08
7.12303e-08
7.12389e-08
7.08254e-08
7.10098e-08
8.26899e-08
8.26896e-08
7.10129e-08
7.08352e-08
7.12428e-08
7.12403e-08
7.08376e-08
7.20978e-08
8.3545e-08
7.20988e-08
8.35454e-08
7.15552e-08
7.13414e-08
7.13412e-08
7.15551e-08
7.15544e-08
7.13409e-08
7.15551e-08
7.13403e-08
7.10141e-08
8.26899e-08
8.269e-08
7.10133e-08
7.08381e-08
7.12449e-08
7.12445e-08
7.08387e-08
7.08379e-08
7.12439e-08
7.08378e-08
7.12435e-08
8.18179e-08
9.67199e-08
8.1814e-08
9.67188e-08
8.18082e-08
9.67201e-08
8.18121e-08
9.67194e-08
7.20974e-08
8.35478e-08
7.20982e-08
8.35466e-08
7.15543e-08
7.13414e-08
7.15551e-08
7.13407e-08
7.15544e-08
7.13416e-08
7.15557e-08
7.13408e-08
7.08384e-08
7.12458e-08
7.12455e-08
7.08389e-08
7.10145e-08
8.26876e-08
8.26862e-08
7.10156e-08
7.08375e-08
7.12454e-08
7.12439e-08
7.08386e-08
7.08379e-08
7.1245e-08
7.08387e-08
7.12443e-08
7.10145e-08
8.26876e-08
8.26871e-08
7.10156e-08
7.08379e-08
7.12454e-08
7.12443e-08
7.08387e-08
9.78242e-08
9.78228e-08
7.08387e-08
7.12458e-08
7.12455e-08
7.08389e-08
7.10161e-08
8.26884e-08
8.26874e-08
7.10173e-08
7.08387e-08
7.12462e-08
7.12456e-08
7.08398e-08
7.20988e-08
8.35478e-08
7.20982e-08
8.35491e-08
7.15563e-08
7.13434e-08
7.13417e-08
7.15576e-08
7.15567e-08
7.13423e-08
7.15559e-08
7.13425e-08
7.10175e-08
8.26873e-08
8.26883e-08
7.10166e-08
7.08395e-08
7.12476e-08
7.12458e-08
7.08408e-08
7.08398e-08
7.12462e-08
7.0839e-08
7.12465e-08
8.18677e-08
9.67199e-08
8.18342e-08
9.67352e-08
8.18276e-08
9.67247e-08
8.18431e-08
9.67181e-08
7.21002e-08
8.35555e-08
7.21031e-08
8.35492e-08
7.15591e-08
7.13419e-08
7.15562e-08
7.13449e-08
7.15579e-08
7.13462e-08
7.15609e-08
7.13434e-08
7.08448e-08
7.12664e-08
7.12517e-08
7.08579e-08
7.1027e-08
8.26893e-08
8.26987e-08
7.10205e-08
7.08485e-08
7.1249e-08
7.12557e-08
7.08425e-08
7.08423e-08
7.12461e-08
7.08395e-08
7.12489e-08
7.10188e-08
8.26922e-08
8.26879e-08
7.10218e-08
7.08411e-08
7.12503e-08
7.12475e-08
7.08437e-08
9.7837e-08
9.78273e-08
7.08891e-08
7.12583e-08
7.12986e-08
7.08492e-08
7.10588e-08
8.30917e-08
8.27218e-08
7.16284e-08
7.08776e-08
7.1711e-08
7.1289e-08
7.14583e-08
8.50178e-08
7.29194e-08
7.2074e-08
7.22983e-08
8.33689e-08
7.21897e-08
7.20912e-08
7.20316e-08
1.00916e-07
7.05137e-07
5.14894e-08
7.05162e-07
1.0091e-07
8.44028e-08
7.11957e-08
8.44103e-08
7.11921e-08
1.0091e-07
5.14894e-08
7.05218e-07
1.0092e-07
7.05174e-07
8.44081e-08
7.11918e-08
8.44035e-08
7.11959e-08
7.92841e-08
5.42412e-08
6.5398e-07
6.5401e-07
7.92754e-08
7.73553e-08
7.45466e-08
7.45416e-08
7.73666e-08
7.73613e-08
7.45412e-08
7.45439e-08
7.73533e-08
7.92776e-08
5.42412e-08
6.54098e-07
7.92918e-08
6.54036e-07
7.92747e-08
6.53968e-07
5.42407e-08
6.53945e-07
7.92804e-08
7.73565e-08
7.45402e-08
7.45421e-08
7.73526e-08
7.73528e-08
7.45427e-08
7.45405e-08
7.73586e-08
7.9278e-08
5.42408e-08
6.53928e-07
6.53938e-07
7.92742e-08
1.00911e-07
7.05137e-07
5.14891e-08
7.05122e-07
1.00915e-07
8.44058e-08
7.11919e-08
8.44038e-08
7.11944e-08
1.00914e-07
5.14891e-08
7.0511e-07
7.05119e-07
1.00911e-07
8.44039e-08
7.11939e-08
8.44064e-08
7.1192e-08
1.00909e-07
7.051e-07
5.14882e-08
7.05095e-07
1.00913e-07
8.43987e-08
7.12102e-08
8.43986e-08
7.12233e-08
1.0091e-07
5.1489e-08
7.05093e-07
7.05095e-07
1.00909e-07
8.43996e-08
7.11927e-08
8.44045e-08
7.12035e-08
7.92726e-08
6.53908e-07
5.42397e-08
7.92748e-08
6.53899e-07
7.73536e-08
7.454e-08
7.45405e-08
7.73518e-08
7.73519e-08
7.45407e-08
7.73534e-08
7.45396e-08
7.92743e-08
5.42405e-08
6.53897e-07
6.53898e-07
7.9272e-08
7.92755e-08
5.42398e-08
6.53905e-07
6.53911e-07
7.92726e-08
7.73529e-08
7.45415e-08
7.73551e-08
7.45404e-08
7.92729e-08
5.42406e-08
6.53925e-07
7.92758e-08
6.53913e-07
7.73537e-08
7.45403e-08
7.73521e-08
7.45403e-08
1.00912e-07
5.14882e-08
7.05104e-07
7.05101e-07
1.00912e-07
8.44042e-08
7.11929e-08
8.44053e-08
7.11924e-08
1.00912e-07
5.1489e-08
7.05113e-07
1.00913e-07
7.05106e-07
8.44042e-08
7.11921e-08
8.44047e-08
7.11928e-08
1.00911e-07
7.05096e-07
5.1489e-08
7.05096e-07
1.0091e-07
8.44033e-08
7.12177e-08
8.43995e-08
7.11954e-08
1.00911e-07
5.1489e-08
7.05097e-07
1.0091e-07
7.05095e-07
8.44033e-08
7.12149e-08
8.44001e-08
7.11954e-08
7.92729e-08
5.42405e-08
6.53893e-07
6.53893e-07
7.92716e-08
7.73524e-08
7.45405e-08
7.45403e-08
7.7353e-08
7.73523e-08
7.45399e-08
7.45403e-08
7.73516e-08
7.9273e-08
5.42405e-08
6.53898e-07
7.92738e-08
6.53893e-07
7.92721e-08
6.53896e-07
5.42405e-08
6.53893e-07
7.92735e-08
7.73525e-08
7.45394e-08
7.45402e-08
7.73521e-08
7.73521e-08
7.45399e-08
7.45402e-08
7.73525e-08
7.9273e-08
5.42405e-08
6.53895e-07
6.53893e-07
7.92722e-08
1.00911e-07
7.05095e-07
5.1489e-08
7.05098e-07
1.0091e-07
8.44001e-08
7.11945e-08
8.44031e-08
7.12189e-08
1.0091e-07
5.1489e-08
7.05098e-07
7.05098e-07
1.00911e-07
8.44014e-08
7.12018e-08
8.44015e-08
7.1205e-08
7.73521e-08
7.45394e-08
7.73521e-08
7.45402e-08
7.92722e-08
5.42405e-08
6.53898e-07
7.92731e-08
6.53893e-07
8.4401e-08
7.1193e-08
8.44031e-08
7.12152e-08
1.00911e-07
5.1489e-08
7.05101e-07
1.00911e-07
7.051e-07
5.29614e-06
5.30145e-06
5.28444e-06
5.29632e-06
5.3017e-06
5.30359e-06
5.27868e-06
5.27973e-06
5.24938e-06
5.27389e-06
5.29703e-06
5.29726e-06
5.27966e-06
5.24921e-06
5.32191e-06
5.2637e-06
5.29039e-06
5.31001e-06
5.31544e-06
5.30444e-06
5.27564e-06
4.24736e-05
4.25671e-05
4.24754e-05
4.26127e-05
4.26503e-05
4.25208e-05
4.23897e-05
4.34575e-05
4.26595e-05
4.27858e-05
4.281e-05
4.2982e-05
4.28668e-05
4.29172e-05
5.28055e-06
5.27523e-06
5.24988e-06
5.29751e-06
5.29819e-06
5.27995e-06
5.25099e-06
4.25044e-05
4.25753e-05
4.26932e-05
4.25936e-05
4.2594e-05
4.25341e-05
4.26106e-05
4.24947e-05
4.28434e-05
4.27629e-05
4.27674e-05
4.2618e-05
4.27091e-05
4.26612e-05
4.24745e-05
4.25033e-05
4.25705e-05
4.25599e-05
4.25119e-05
4.24691e-05
4.25719e-05
4.24571e-05
4.26666e-05
4.27135e-05
4.25976e-05
4.26693e-05
4.24525e-05
4.26112e-05
5.28733e-06
5.27836e-06
5.25711e-06
5.30635e-06
5.30166e-06
5.29378e-06
5.25343e-06
4.25152e-05
4.25073e-05
4.25661e-05
4.25788e-05
4.24814e-05
4.25258e-05
4.25881e-05
4.2515e-05
4.2689e-05
4.26082e-05
4.27614e-05
4.24702e-05
4.2743e-05
4.26401e-05
4.25817e-05
4.26127e-05
4.25943e-05
4.25686e-05
4.25634e-05
4.26666e-05
4.26072e-05
4.2605e-05
4.29966e-05
4.28043e-05
4.2668e-05
4.28492e-05
4.27687e-05
4.26688e-05
5.26869e-06
5.33553e-06
5.29872e-06
5.32751e-06
5.31053e-06
5.33424e-06
5.26221e-06
5.25717e-06
5.29778e-06
5.32461e-06
5.31707e-06
5.29256e-06
5.32236e-06
5.2594e-06
5.25476e-06
5.31478e-06
5.28961e-06
5.31987e-06
5.29032e-06
5.31997e-06
5.25461e-06
5.25474e-06
5.28997e-06
5.31985e-06
5.31409e-06
5.28983e-06
5.31986e-06
5.25467e-06
5.61159e-06
5.4721e-06
5.6092e-06
5.55013e-06
5.66631e-06
5.54099e-06
5.51809e-06
6.41482e-07
6.62735e-07
6.54723e-07
6.74508e-07
6.60213e-07
6.47843e-07
6.69162e-07
5.60293e-06
5.24955e-06
5.35084e-06
5.41809e-06
5.38007e-06
5.4628e-06
5.47311e-06
5.53001e-06
5.39445e-06
5.25605e-06
5.34849e-06
5.34856e-06
5.35202e-06
5.44413e-06
5.61339e-06
5.51808e-06
5.59827e-06
5.46625e-06
5.69212e-06
5.51867e-06
5.56674e-06
4.24405e-05
4.25172e-05
4.24476e-05
4.24722e-05
4.25178e-05
4.25182e-05
4.25038e-05
4.25109e-05
4.25187e-05
4.25243e-05
4.25351e-05
4.25255e-05
4.25392e-05
4.25233e-05
5.27143e-06
5.28119e-06
5.29452e-06
5.27371e-06
5.27357e-06
5.27032e-06
5.29666e-06
5.28989e-06
5.28262e-06
5.30107e-06
5.25906e-06
5.30313e-06
5.28558e-06
5.2661e-06
5.27208e-06
5.2803e-06
5.27012e-06
5.29914e-06
5.2735e-06
5.27215e-06
5.29507e-06
4.24812e-05
4.25166e-05
4.25232e-05
4.25441e-05
4.25245e-05
4.25407e-05
4.25258e-05
4.24911e-05
4.25689e-05
4.25407e-05
4.25497e-05
4.25338e-05
4.25539e-05
4.253e-05
5.27082e-06
5.28079e-06
5.29861e-06
5.27815e-06
5.27619e-06
5.27255e-06
5.29534e-06
5.2799e-06
5.27385e-06
5.29808e-06
5.24949e-06
5.29689e-06
5.28065e-06
5.2492e-06
5.27014e-06
5.28079e-06
5.27459e-06
5.29415e-06
5.26954e-06
5.27534e-06
5.29549e-06
4.25847e-05
4.25251e-05
4.25444e-05
5.34864e-06
5.33817e-06
5.33779e-06
5.33783e-06
5.31836e-06
5.38362e-06
5.34471e-06
4.27493e-05
4.25899e-05
4.26252e-05
4.26514e-05
4.25487e-05
4.26208e-05
4.27023e-05
4.26001e-05
4.25197e-05
4.25282e-05
4.26017e-05
4.26625e-05
4.26761e-05
4.25918e-05
4.25195e-05
4.25933e-05
4.25286e-05
4.25936e-05
4.26573e-05
4.25893e-05
4.26592e-05
5.2018e-06
5.19347e-06
5.2736e-06
5.26014e-06
5.1795e-06
5.266e-06
5.20449e-06
5.23508e-06
5.2982e-06
5.2546e-06
5.28553e-06
5.20227e-06
5.27469e-06
5.27917e-06
6.65074e-07
6.73604e-07
6.92657e-07
6.86337e-07
6.91704e-07
6.86415e-07
6.59155e-07
6.74511e-07
6.65938e-07
6.58806e-07
6.39064e-07
6.74705e-07
6.72456e-07
6.40407e-07
5.3916e-06
5.43667e-06
5.39173e-06
5.57931e-06
5.50896e-06
5.3982e-06
5.36991e-06
5.2998e-06
5.37935e-06
5.28195e-06
5.30341e-06
5.34469e-06
5.25112e-06
5.34249e-06
5.27617e-06
5.32548e-06
5.26613e-06
5.2984e-06
5.27279e-06
5.27277e-06
5.31905e-06
5.39482e-06
5.5326e-06
5.40266e-06
5.61265e-06
5.68389e-06
5.38719e-06
5.42797e-06
5.28763e-06
5.35905e-06
5.40398e-06
5.31619e-06
5.37302e-06
5.3641e-06
5.27221e-06
5.44253e-06
5.54495e-06
5.86206e-06
5.49787e-06
5.77098e-06
5.46593e-06
5.49451e-06
5.2336e-06
5.32561e-06
5.25083e-06
5.29056e-06
5.25825e-06
5.3371e-06
5.21719e-06
6.70491e-07
6.37755e-07
6.60577e-07
6.4748e-07
6.61171e-07
6.70377e-07
6.37856e-07
6.52335e-07
6.80198e-07
6.69812e-07
6.61731e-07
6.62419e-07
6.80369e-07
6.52139e-07
6.54705e-07
6.70854e-07
6.84071e-07
6.72934e-07
6.65882e-07
6.56605e-07
6.82398e-07
6.71182e-07
6.66121e-07
6.3892e-07
6.48261e-07
6.62404e-07
6.71969e-07
6.38339e-07
5.22859e-06
5.27514e-06
5.27436e-06
5.26406e-06
5.26331e-06
5.22938e-06
5.2768e-06
5.27903e-06
5.36384e-06
5.3065e-06
5.33117e-06
5.36686e-06
5.27596e-06
5.2977e-06
5.22594e-06
5.27404e-06
5.25687e-06
5.28318e-06
5.26081e-06
5.22213e-06
5.27538e-06
5.28149e-06
5.29637e-06
5.37016e-06
5.33307e-06
5.36939e-06
5.2822e-06
5.29907e-06
5.2694e-06
5.29515e-06
5.27867e-06
5.27394e-06
5.26989e-06
5.2739e-06
5.29407e-06
5.28152e-06
5.27616e-06
5.30038e-06
5.25522e-06
5.29883e-06
5.28316e-06
5.25278e-06
5.26932e-06
5.27892e-06
5.27428e-06
5.29427e-06
5.26936e-06
5.27404e-06
5.29425e-06
5.23023e-06
5.27539e-06
5.27265e-06
5.26462e-06
5.23005e-06
5.26472e-06
5.27459e-06
5.28337e-06
5.37197e-06
5.33192e-06
5.29727e-06
5.29695e-06
5.37156e-06
5.28373e-06
5.28304e-06
5.29745e-06
5.37094e-06
5.33126e-06
5.28288e-06
5.29646e-06
5.37117e-06
5.23053e-06
5.27295e-06
5.26526e-06
5.27545e-06
5.26497e-06
5.27507e-06
5.23086e-06
5.23311e-06
5.27482e-06
5.28181e-06
5.26938e-06
5.26733e-06
5.23528e-06
5.27752e-06
5.28506e-06
5.37245e-06
5.29741e-06
5.33479e-06
5.37345e-06
5.28416e-06
5.29928e-06
5.23213e-06
5.27476e-06
5.26563e-06
5.27557e-06
5.26642e-06
5.23127e-06
5.27742e-06
5.28613e-06
5.30409e-06
5.37711e-06
5.33508e-06
5.3746e-06
5.28846e-06
5.29949e-06
5.27916e-06
5.2993e-06
5.29374e-06
5.28064e-06
5.27466e-06
5.2859e-06
5.30597e-06
5.28393e-06
5.27657e-06
5.29805e-06
5.25008e-06
5.30061e-06
5.28167e-06
5.25135e-06
5.28572e-06
5.29909e-06
5.30982e-06
5.32387e-06
5.29812e-06
5.29388e-06
5.3104e-06
5.24442e-06
5.28319e-06
5.28935e-06
5.27209e-06
5.23819e-06
5.27784e-06
5.29324e-06
5.3093e-06
5.42461e-06
5.36261e-06
5.35512e-06
5.32566e-06
5.39994e-06
5.33107e-06
5.29842e-06
5.30577e-06
5.38056e-06
5.35308e-06
5.29164e-06
5.31673e-06
5.38789e-06
5.25433e-06
5.29694e-06
5.30601e-06
5.32828e-06
5.28702e-06
5.30121e-06
5.27435e-06
5.39817e-06
5.46819e-06
5.3671e-06
5.41708e-06
5.53777e-06
5.36582e-06
5.33652e-06
5.36771e-06
5.36259e-06
5.34026e-06
5.34371e-06
5.41358e-06
5.30834e-06
5.34437e-06
5.27886e-06
5.34539e-06
5.35052e-06
5.36962e-06
5.31897e-06
5.30008e-06
5.34528e-06
5.28806e-06
5.29828e-06
5.31988e-06
5.29935e-06
5.30894e-06
5.30582e-06
5.28184e-06
5.2975e-06
5.33466e-06
5.33979e-06
5.32514e-06
5.31517e-06
5.31619e-06
5.3155e-06
6.70327e-07
6.37773e-07
6.60849e-07
6.46845e-07
6.60494e-07
6.70391e-07
6.37717e-07
6.51971e-07
6.80154e-07
6.61925e-07
6.68934e-07
6.61482e-07
6.80054e-07
6.52084e-07
6.51818e-07
6.61237e-07
6.68824e-07
6.79893e-07
6.61364e-07
6.79919e-07
6.51788e-07
6.70289e-07
6.60403e-07
6.46886e-07
6.37677e-07
6.60512e-07
6.70273e-07
6.37693e-07
6.70234e-07
6.37727e-07
6.60391e-07
6.46839e-07
6.60426e-07
6.70232e-07
6.37733e-07
6.51744e-07
6.79847e-07
6.68674e-07
6.61178e-07
6.61212e-07
6.79854e-07
6.51737e-07
6.51768e-07
6.61317e-07
6.79897e-07
6.6867e-07
6.61206e-07
6.51791e-07
6.79875e-07
6.70269e-07
6.60477e-07
6.37683e-07
6.46782e-07
6.60407e-07
6.70282e-07
6.37673e-07
5.27686e-06
5.29773e-06
5.29665e-06
5.30389e-06
5.29275e-06
5.29427e-06
5.27907e-06
5.25632e-06
5.31759e-06
5.29045e-06
5.32054e-06
5.29309e-06
5.3215e-06
5.25538e-06
5.27605e-06
5.29251e-06
5.30494e-06
5.2908e-06
5.29339e-06
5.29352e-06
5.2751e-06
5.25476e-06
5.31418e-06
5.29108e-06
5.32024e-06
5.28973e-06
5.25511e-06
5.31992e-06
5.27443e-06
5.28995e-06
5.30224e-06
5.29168e-06
5.2907e-06
5.29184e-06
5.27427e-06
5.27444e-06
5.29229e-06
5.29149e-06
5.30143e-06
5.2901e-06
5.27482e-06
5.29183e-06
6.70259e-07
6.37715e-07
6.60423e-07
6.46798e-07
6.60404e-07
6.70248e-07
6.37693e-07
6.51731e-07
6.79849e-07
6.61209e-07
6.68621e-07
6.61161e-07
6.79842e-07
6.51738e-07
6.51727e-07