/*--------------------------------*- C++ -*----------------------------------*\
| =========                 |                                                 |
| \\      /  F ield         | OpenFOAM: The Open Source CFD Toolbox           |
|  \\    /   O peration     | Version:  2012                                  |
|   \\  /    A nd           | Website:  www.openfoam.com                      |
|    \\/     M anipulation  |                                                 |
\*---------------------------------------------------------------------------*/
FoamFile
{
    version     2.0;
    format      ascii;
    class       volVectorField;
    location    "0.107/solid";
    object      D_0_0_0;
}
// * * * * * * * * * * * * * * * * * * * * * * * * * * * * * * * * * * * * * //

dimensions      [0 1 0 0 0 0 0];


internalField   nonuniform List<vector> 
3125
(
(6.78916e-12 -9.72432e-14 1.40216e-11)
(8.3115e-07 -2.0854e-07 1.00466e-06)
(1.05718e-11 2.81204e-11 1.49008e-11)
(1.9911e-08 3.64803e-09 2.27744e-08)
(5.61588e-06 -3.77507e-06 2.40751e-06)
(2.92411e-06 -1.48592e-06 1.86358e-06)
(3.41141e-12 -5.38797e-14 3.43205e-11)
(9.30912e-12 1.6785e-11 1.43708e-11)
(6.83336e-12 1.07216e-14 1.40049e-11)
(7.95864e-13 2.87458e-11 3.3624e-11)
(3.54647e-12 -1.53682e-14 3.42751e-11)
(8.12924e-07 -2.26141e-07 9.37181e-07)
(6.20442e-13 7.29003e-11 3.33767e-11)
(-1.03001e-09 -4.65822e-09 -7.01583e-09)
(6.69401e-07 -5.19678e-07 -1.834e-07)
(2.28676e-08 1.48813e-08 4.62573e-08)
(8.55703e-07 -2.22625e-07 1.03565e-06)
(3.39515e-08 -6.06665e-09 3.54451e-08)
(8.48405e-07 -2.46017e-07 9.85007e-07)
(1.1313e-11 3.24585e-09 -1.50048e-09)
(7.03815e-07 -5.14584e-07 -5.01512e-08)
(2.0786e-08 -9.24436e-09 2.95541e-08)
(9.20285e-07 -2.46616e-07 1.06268e-06)
(2.76985e-06 -1.3725e-06 1.82038e-06)
(9.01798e-07 -2.65936e-07 9.91295e-07)
(2.58167e-06 -2.14538e-06 -3.53874e-07)
(8.48505e-07 -6.62417e-07 -2.06373e-07)
(2.74812e-06 -1.41519e-06 1.69512e-06)
(9.46751e-07 -2.60483e-07 1.09697e-06)
(2.82213e-06 -1.38317e-06 1.90812e-06)
(9.40104e-07 -2.855e-07 1.04398e-06)
(2.68179e-06 -2.14149e-06 -7.9854e-08)
(8.90978e-07 -6.57498e-07 -5.60499e-08)
(2.82454e-06 -1.43023e-06 1.82651e-06)
(5.59184e-06 -3.83767e-06 2.23604e-06)
(2.89104e-06 -2.42867e-06 -3.73311e-07)
(2.9022e-06 -1.53001e-06 1.73507e-06)
(5.41079e-06 -4.92007e-06 -4.97194e-07)
(5.68987e-06 -3.78253e-06 2.55414e-06)
(2.97794e-06 -1.49638e-06 1.95502e-06)
(5.70042e-06 -3.84817e-06 2.45418e-06)
(2.99902e-06 -2.42492e-06 -8.11347e-08)
(2.9809e-06 -1.54476e-06 1.87192e-06)
(5.5695e-06 -4.91729e-06 -7.937e-08)
(5.81742e-06 -3.96631e-06 2.43707e-06)
(5.79327e-06 -4.02997e-06 2.26313e-06)
(5.89256e-06 -3.97358e-06 2.58724e-06)
(5.90357e-06 -4.0402e-06 2.4865e-06)
(-1.8678e-11 -3.01545e-11 4.63305e-11)
(-3.63843e-12 -2.50256e-12 4.34523e-11)
(-3.59779e-11 -6.18134e-11 4.73672e-11)
(-3.04577e-11 -5.6034e-10 8.00512e-11)
(-1.78527e-10 -4.14712e-10 -8.54209e-12)
(3.39742e-07 -5.89972e-08 5.7053e-07)
(2.94472e-10 4.31079e-10 6.06971e-11)
(2.88505e-07 -5.25115e-08 5.04466e-07)
(3.65957e-10 5.68519e-10 9.19329e-11)
(4.27734e-06 -2.57016e-06 2.17755e-06)
(4.09726e-06 -2.41743e-06 2.14134e-06)
(-2.49759e-12 1.67435e-13 4.12568e-11)
(-3.61662e-12 1.4856e-13 4.53337e-11)
(7.35451e-12 6.17603e-13 1.38603e-11)
(7.30051e-12 2.5758e-13 1.38751e-11)
(-2.45316e-12 2.052e-13 4.14704e-11)
(-2.82636e-12 -8.48383e-13 4.27421e-11)
(-2.32634e-11 -1.8256e-11 4.94261e-11)
(3.70312e-12 1.65011e-12 3.43185e-11)
(-5.14701e-12 -1.53166e-12 4.7297e-11)
(-3.56425e-12 1.69774e-13 4.55047e-11)
(3.84656e-12 6.0323e-13 3.42932e-11)
(-4.08913e-12 -4.37864e-13 4.66538e-11)
(6.84075e-07 -3.67235e-07 3.85269e-07)
(3.23152e-07 -6.42311e-08 5.29883e-07)
(2.63651e-07 -1.34427e-07 2.31088e-07)
(-4.19832e-11 -3.45821e-11 4.9647e-11)
(3.62033e-10 7.62174e-10 2.56727e-11)
(-9.97786e-11 -1.83628e-10 -5.59892e-11)
(-2.26433e-10 -1.43247e-09 1.21197e-10)
(1.47379e-07 -1.11483e-07 -8.13833e-08)
(4.5611e-10 -1.23661e-09 1.23683e-08)
(1.50684e-07 -9.36121e-08 1.07056e-07)
(-6.80183e-11 -3.64695e-10 -5.26248e-11)
(6.71883e-07 -4.10031e-07 2.37125e-07)
(2.47521e-07 -1.90214e-07 -1.09827e-07)
(2.51037e-07 -1.50892e-07 1.4152e-07)
(2.72307e-07 -5.59334e-08 4.67495e-07)
(6.85894e-10 2.78521e-09 8.50071e-10)
(2.7536e-09 -1.42818e-09 1.93714e-08)
(1.62436e-07 -8.59426e-08 1.74431e-07)
(1.48426e-10 6.10908e-10 1.0871e-12)
(3.50504e-07 -7.46037e-08 5.8115e-07)
(2.97299e-07 -6.85187e-08 5.12807e-07)
(7.33566e-07 -3.86222e-07 4.98016e-07)
(3.38645e-07 -8.63247e-08 5.48546e-07)
(2.86014e-07 -1.56475e-07 2.95524e-07)
(1.57086e-07 -1.05009e-07 -2.04791e-08)
(1.72015e-09 -1.0956e-08 2.07106e-08)
(1.65798e-07 -1.09809e-07 1.64135e-07)
(7.19249e-07 -4.23169e-07 3.61172e-07)
(2.61306e-07 -1.83546e-07 -2.85975e-08)
(2.72061e-07 -1.66107e-07 2.14078e-07)
(2.84897e-07 -7.8942e-08 4.82984e-07)
(4.74766e-09 -1.54673e-08 2.82083e-08)
(1.78546e-07 -1.08875e-07 2.26167e-07)
(1.6691e-06 -6.39851e-07 1.44223e-06)
(1.79306e-06 -7.14629e-07 1.4927e-06)
(8.621e-07 -4.76699e-07 4.32317e-07)
(1.64898e-06 -6.70631e-07 1.34453e-06)
(1.50331e-06 -9.08822e-07 5.61517e-07)
(1.74174e-06 -1.40395e-06 -2.93181e-07)
(2.57803e-06 -1.84639e-06 4.3311e-07)
(1.74036e-06 -1.17329e-06 3.69242e-07)
(8.50241e-07 -5.28184e-07 2.66259e-07)
(1.49303e-06 -1.1925e-06 -2.72148e-07)
(1.49242e-06 -9.85455e-07 3.45464e-07)
(1.77272e-06 -7.46968e-07 1.3914e-06)
(2.58778e-06 -1.73862e-06 7.07974e-07)
(1.75095e-06 -1.08861e-06 6.00812e-07)
(1.70826e-06 -6.52203e-07 1.50078e-06)
(1.83394e-06 -7.26768e-07 1.55484e-06)
(9.21436e-07 -4.95056e-07 5.63013e-07)
(1.70599e-06 -6.8805e-07 1.43292e-06)
(1.59181e-06 -9.25391e-07 7.49005e-07)
(1.81752e-06 -1.39964e-06 -7.30852e-08)
(2.70188e-06 -1.85627e-06 7.1499e-07)
(1.83653e-06 -1.18435e-06 5.89884e-07)
(9.07412e-07 -5.40885e-07 4.08797e-07)
(1.56049e-06 -1.18804e-06 -6.97499e-08)
(1.57901e-06 -9.96913e-07 5.46096e-07)
(1.83229e-06 -7.64085e-07 1.48507e-06)
(2.71279e-06 -1.75291e-06 9.75132e-07)
(1.84887e-06 -1.1046e-06 8.07907e-07)
(4.25416e-06 -2.62471e-06 2.02476e-06)
(5.40977e-06 -4.29834e-06 9.21429e-07)
(4.26195e-06 -3.19784e-06 8.5295e-07)
(2.88667e-06 -2.10782e-06 4.52002e-07)
(3.89948e-06 -3.3879e-06 -4.29139e-07)
(3.89306e-06 -3.0043e-06 5.01898e-07)
(4.07422e-06 -2.47075e-06 1.99142e-06)
(2.89616e-06 -1.9927e-06 7.40238e-07)
(3.90177e-06 -2.86826e-06 8.27148e-07)
(5.402e-06 -4.45965e-06 5.53892e-07)
(4.26054e-06 -3.74403e-06 -4.46872e-07)
(4.25349e-06 -3.34048e-06 5.1638e-07)
(4.34261e-06 -2.57899e-06 2.29871e-06)
(4.16118e-06 -2.42647e-06 2.2588e-06)
(4.34981e-06 -2.63715e-06 2.2054e-06)
(5.59758e-06 -4.30832e-06 1.34956e-06)
(4.42789e-06 -3.20939e-06 1.22155e-06)
(3.01936e-06 -2.1173e-06 7.54548e-07)
(4.03015e-06 -3.38457e-06 -8.24498e-08)
(4.051e-06 -3.01264e-06 8.66557e-07)
(4.16786e-06 -2.48348e-06 2.1666e-06)
(3.02979e-06 -2.00643e-06 1.02767e-06)
(4.05996e-06 -2.88034e-06 1.17554e-06)
(5.59058e-06 -4.46653e-06 9.99742e-07)
(4.39847e-06 -3.74085e-06 -8.2141e-08)
(4.41942e-06 -3.34846e-06 9.01616e-07)
(-5.13708e-12 -3.17344e-11 3.69249e-11)
(-3.17661e-12 -1.4461e-11 3.51265e-11)
(-9.65011e-12 -7.00416e-11 3.96271e-11)
(-4.89669e-12 -1.48975e-10 4.01501e-11)
(-1.95739e-11 -1.48789e-10 4.56725e-11)
(4.67452e-12 -2.38163e-15 9.77469e-13)
(5.91908e-07 -1.20216e-07 8.24759e-07)
(1.32937e-11 8.88488e-12 2.57822e-12)
(3.51404e-11 9.38131e-11 1.82602e-11)
(3.42523e-11 3.08574e-11 9.38303e-12)
(1.10411e-07 -4.30757e-08 2.01113e-07)
(4.34913e-10 2.40437e-09 -1.16816e-10)
(1.24866e-09 9.71917e-10 4.54302e-10)
(5.0262e-06 -3.22979e-06 2.31394e-06)
(3.40745e-06 -1.85564e-06 1.98787e-06)
(-2.17085e-12 1.78777e-13 3.0869e-11)
(-1.45821e-12 3.37182e-14 4.45857e-11)
(1.07404e-11 5.61602e-12 1.81261e-12)
(7.57e-12 4.45475e-12 1.39181e-11)
(7.31518e-12 1.40364e-12 9.59357e-13)
(4.75683e-12 -1.24751e-15 9.70482e-13)
(7.03609e-12 -4.66199e-14 1.39603e-11)
(5.12012e-12 1.019e-14 9.25325e-13)
(-2.12817e-12 1.83031e-13 3.10799e-11)
(-2.08521e-12 1.19354e-13 3.13839e-11)
(-1.45187e-11 1.58762e-11 4.59713e-11)
(2.01346e-12 1.15841e-11 3.41655e-11)
(-7.5192e-12 6.54302e-12 4.60111e-11)
(-1.36214e-12 6.26472e-14 4.46368e-11)
(3.66832e-12 5.22068e-14 3.42677e-11)
(-1.29927e-12 1.38746e-13 4.47374e-11)
(7.73607e-07 -3.09566e-07 6.98576e-07)
(5.74451e-07 -1.32559e-07 7.69069e-07)
(5.3282e-07 -1.95114e-07 5.69562e-07)
(-2.67529e-11 4.23143e-11 4.60854e-11)
(1.77264e-11 1.64339e-10 2.89254e-11)
(-4.15854e-11 8.80395e-11 4.19703e-11)
(7.48021e-09 -2.16363e-08 -1.63061e-08)
(1.40395e-08 6.51141e-10 -4.18419e-09)
(-1.44074e-09 -8.58522e-10 -7.10761e-10)
(1.13693e-08 -7.06165e-09 3.62676e-09)
(5.53556e-09 -4.86804e-09 -5.85908e-09)
(6.64934e-07 -4.85965e-07 -4.57104e-08)
(5.0913e-07 -3.93533e-07 -1.59802e-07)
(5.04814e-07 -3.67594e-07 -3.99113e-08)
(9.35564e-08 -5.68071e-08 1.75457e-07)
(2.00188e-08 6.04091e-09 1.34638e-08)
(1.83685e-08 1.01425e-09 3.22876e-08)
(5.9693e-08 -4.32689e-08 1.34875e-07)
(1.40418e-08 1.09672e-08 1.70153e-08)
(6.10589e-07 -1.34952e-07 8.46211e-07)
(1.2314e-07 -6.02252e-08 2.2954e-07)
(8.04455e-07 -3.24346e-07 7.53908e-07)
(6.01327e-07 -1.53359e-07 8.0297e-07)
(5.55637e-07 -2.10647e-07 6.11394e-07)
(2.29514e-08 -3.88184e-09 -9.26731e-09)
(-8.17142e-12 -1.6942e-09 6.04443e-09)
(2.1851e-08 -1.36845e-08 1.52747e-08)
(7.03981e-07 -4.86798e-07 8.7424e-08)
(5.35869e-07 -3.88172e-07 -4.35906e-08)
(5.35437e-07 -3.68411e-07 7.55583e-08)
(1.15198e-07 -6.39306e-08 2.16466e-07)
(6.35062e-09 -6.71002e-09 1.95828e-08)
(6.96148e-08 -5.85208e-08 1.54535e-07)
(1.21501e-06 -3.87624e-07 1.23102e-06)
(2.32857e-06 -1.06153e-06 1.68539e-06)
(8.63137e-07 -3.56264e-07 7.39424e-07)
(1.19579e-06 -4.11974e-07 1.14813e-06)
(1.15927e-06 -5.22157e-07 8.59312e-07)
(2.28662e-06 -1.88024e-06 -3.34038e-07)
(2.57579e-06 -2.04943e-06 -9.54213e-08)
(2.28092e-06 -1.7917e-06 -8.87211e-08)
(8.43871e-07 -6.20759e-07 -5.15134e-08)
(1.04586e-06 -8.21963e-07 -2.28779e-07)
(1.04105e-06 -7.72318e-07 -5.73829e-08)
(2.3074e-06 -1.0999e-06 1.57013e-06)
(2.7193e-06 -1.59792e-06 1.27452e-06)
(2.27664e-06 -1.26561e-06 1.17947e-06)
(1.24705e-06 -4.00837e-07 1.2755e-06)
(2.37611e-06 -1.07282e-06 1.76207e-06)
(8.96771e-07 -3.70789e-07 7.99521e-07)
(1.24231e-06 -4.30612e-07 1.2158e-06)
(1.20078e-06 -5.35995e-07 9.34059e-07)
(2.37875e-06 -1.87621e-06 -7.81058e-08)
(2.68548e-06 -2.05002e-06 1.87001e-07)
(2.3821e-06 -1.79233e-06 1.74411e-07)
(8.91705e-07 -6.21567e-07 9.94979e-08)
(1.0966e-06 -8.17209e-07 -6.12635e-08)
(1.09785e-06 -7.731e-07 1.11751e-07)
(2.37681e-06 -1.11582e-06 1.68522e-06)
(2.79027e-06 -1.60906e-06 1.41187e-06)
(2.34074e-06 -1.27739e-06 1.30083e-06)
(5.00249e-06 -3.28906e-06 2.15018e-06)
(5.5723e-06 -4.099e-06 1.68315e-06)
(4.98122e-06 -3.53731e-06 1.61818e-06)
(2.88498e-06 -2.32544e-06 -1.02249e-07)
(3.21417e-06 -2.73017e-06 -3.92343e-07)
(3.20794e-06 -2.61982e-06 -1.09188e-07)
(3.38503e-06 -1.90381e-06 1.8499e-06)
(2.8739e-06 -1.71831e-06 1.30445e-06)
(3.35864e-06 -2.10818e-06 1.39167e-06)
(5.40368e-06 -4.77007e-06 -1.51997e-07)
(5.01674e-06 -4.5103e-06 -4.80919e-07)
(5.00976e-06 -4.36653e-06 -1.44845e-07)
(5.0966e-06 -3.23783e-06 2.44977e-06)
(3.46575e-06 -1.86549e-06 2.09046e-06)
(5.10576e-06 -3.30039e-06 2.35242e-06)
(5.67566e-06 -4.10676e-06 1.90568e-06)
(5.07922e-06 -3.54566e-06 1.82514e-06)
(3.00303e-06 -2.326e-06 1.99544e-07)
(3.32987e-06 -2.72657e-06 -8.19751e-08)
(3.33418e-06 -2.62035e-06 2.12016e-07)
(3.47034e-06 -1.91768e-06 2.00318e-06)
(2.94723e-06 -1.72921e-06 1.4472e-06)
(3.43848e-06 -2.11845e-06 1.55053e-06)
(5.5753e-06 -4.77044e-06 2.83942e-07)
(5.16869e-06 -4.50739e-06 -8.05713e-08)
(5.17427e-06 -4.36692e-06 2.72425e-07)
(5.77417e-06 -4.2955e-06 1.70333e-06)
(5.87936e-06 -4.30303e-06 1.93101e-06)
(-2.08734e-12 -2.56059e-12 3.29775e-11)
(-2.3703e-12 -6.29127e-12 3.39086e-11)
(-1.10379e-11 -3.48341e-11 4.21689e-11)
(-9.7334e-12 -1.3941e-11 4.53034e-11)
(-5.56141e-12 -1.58978e-11 4.07892e-11)
(-2.11799e-12 -2.82608e-12 3.87443e-11)
(-5.52733e-12 -6.19114e-12 4.43187e-11)
(-3.14429e-12 -6.95515e-12 3.96737e-11)
(-2.2709e-11 -7.54131e-11 4.38179e-11)
(-6.86598e-11 -1.25663e-10 4.59491e-11)
(-4.75706e-11 -1.57574e-10 4.61026e-11)
(-2.26392e-11 -3.25431e-10 4.33059e-11)
(-7.8161e-11 -7.08568e-10 7.82389e-11)
(-4.33616e-11 -3.54856e-10 5.02064e-11)
(-1.13539e-10 -2.23273e-10 3.89415e-11)
(-1.59194e-10 -6.05303e-10 3.88372e-11)
(-9.1061e-11 -3.36035e-10 4.38382e-11)
(5.2173e-07 -9.91206e-08 7.62867e-07)
(5.46122e-11 1.54859e-10 2.07376e-11)
(1.6455e-10 1.3772e-10 5.61038e-11)
(4.93433e-11 4.69712e-11 1.49036e-11)
(1.54874e-07 -4.7019e-08 2.82504e-07)
(2.88143e-09 1.92075e-09 3.51562e-10)
(2.47647e-10 2.04247e-10 8.81952e-11)
(8.60757e-10 5.64588e-10 3.21824e-10)
(4.83485e-06 -3.0576e-06 2.28111e-06)
(3.57518e-06 -1.98872e-06 2.02754e-06)
(-1.64906e-12 1.80264e-13 3.64958e-11)
(-3.49952e-12 1.04289e-13 4.7082e-11)
(7.60099e-12 2.51391e-12 1.38688e-11)
(5.82151e-12 1.88812e-13 8.77696e-13)
(6.78123e-12 8.55544e-13 8.99162e-13)
(7.09844e-12 8.64989e-14 1.39491e-11)
(5.59757e-12 1.10123e-13 8.99049e-13)
(5.24612e-12 1.97411e-14 9.10964e-13)
(-2.00837e-12 -8.79896e-13 3.22926e-11)
(-2.03837e-12 -1.79784e-13 3.17836e-11)
(-1.60647e-12 2.04013e-13 3.67191e-11)
(-2.42499e-12 1.38574e-13 4.17994e-11)
(-1.57349e-12 1.22945e-13 3.70577e-11)
(-1.70805e-12 -9.84065e-13 3.80128e-11)
(-2.50261e-12 -1.50728e-13 4.22187e-11)
(-1.5803e-12 -2.08145e-13 3.74825e-11)
(-2.22016e-11 -1.14393e-12 4.97427e-11)
(-1.2759e-11 -8.47782e-12 4.88059e-11)
(-1.23117e-11 -6.88748e-13 4.95925e-11)
(3.15616e-12 4.39109e-12 3.42842e-11)
(-2.21665e-12 9.86041e-13 4.54766e-11)
(-3.89116e-12 2.42665e-12 4.57377e-11)
(-7.55123e-12 -3.86831e-12 4.79989e-11)
(-4.89518e-12 -1.70091e-13 4.85784e-11)
(-7.27236e-12 -5.46637e-13 4.90588e-11)
(-3.43637e-12 1.25446e-13 4.71975e-11)
(-3.53348e-12 1.54559e-13 4.57572e-11)
(-3.42438e-12 1.68653e-13 4.73729e-11)
(3.77785e-12 2.14867e-13 3.42859e-11)
(-1.53341e-12 4.67339e-13 4.51736e-11)
(-1.31701e-12 2.45924e-13 4.49161e-11)
(-3.65124e-12 8.56917e-15 4.6136e-11)
(-3.88549e-12 8.17854e-14 4.8083e-11)
(-3.51753e-12 1.70066e-13 4.76642e-11)
(7.01849e-07 -3.20855e-07 5.38831e-07)
(5.24745e-07 -2.74232e-07 3.3613e-07)
(5.42937e-07 -2.3709e-07 4.70791e-07)
(5.04564e-07 -1.09673e-07 7.11135e-07)
(2.78315e-07 -9.76372e-08 3.85501e-07)
(4.62135e-07 -1.6497e-07 5.25585e-07)
(3.84539e-07 -1.97024e-07 2.84701e-07)
(2.82164e-07 -1.16106e-07 3.25146e-07)
(4.02975e-07 -1.69292e-07 3.99615e-07)
(-3.93061e-11 2.79256e-12 4.93116e-11)
(-7.27476e-11 -7.18093e-11 4.41759e-11)
(-6.35785e-11 3.17677e-13 4.18732e-11)
(6.32012e-11 4.37003e-10 4.34209e-11)
(4.69175e-11 3.48012e-10 2.14824e-11)
(-4.62378e-11 2.61003e-10 5.05596e-11)
(-1.00793e-10 -8.59866e-11 3.14014e-11)
(-2.0787e-11 3.35471e-11 -6.81102e-11)
(-7.35942e-11 6.07529e-11 2.92815e-11)
(1.50843e-09 6.17839e-10 2.47818e-09)
(-1.17497e-10 -2.23069e-09 -1.27323e-10)
(1.60584e-09 -1.90549e-09 7.43518e-11)
(6.78159e-08 -5.06653e-08 -4.88129e-08)
(1.43434e-07 -1.05622e-07 -1.92989e-08)
(6.33724e-08 -4.86137e-08 -9.8593e-09)
(-6.19273e-10 -1.18123e-09 5.56028e-09)
(1.77381e-08 -1.72498e-08 3.97409e-08)
(2.18203e-09 2.71965e-09 5.61962e-09)
(1.36899e-08 -1.17348e-08 2.05483e-08)
(1.47559e-09 -1.62745e-09 -7.00055e-10)
(1.44709e-07 -1.00229e-07 4.28544e-08)
(7.05388e-08 -4.93365e-08 7.26925e-08)
(6.50066e-08 -4.91844e-08 3.05229e-08)
(-1.62432e-10 -1.2771e-09 -1.03575e-10)
(2.51337e-10 -3.21088e-10 -2.95554e-10)
(-2.20078e-11 -1.4301e-09 -4.38894e-10)
(6.65777e-07 -4.49614e-07 9.37251e-08)
(5.12247e-07 -3.08237e-07 2.06607e-07)
(5.05889e-07 -3.39355e-07 8.15409e-08)
(3.68332e-07 -2.8369e-07 -1.35327e-07)
(2.43402e-07 -1.78412e-07 -2.74355e-08)
(3.64178e-07 -2.65199e-07 -3.39031e-08)
(3.71878e-07 -2.22175e-07 1.74685e-07)
(2.44679e-07 -1.65549e-07 5.57434e-08)
(3.65407e-07 -2.44891e-07 6.88082e-08)
(1.33853e-07 -4.88299e-08 2.5546e-07)
(2.26113e-07 -8.23093e-08 3.37211e-07)
(9.48871e-08 -5.14251e-08 1.83835e-07)
(3.43317e-09 -4.5981e-09 4.20697e-11)
(6.37195e-10 1.54496e-09 3.20638e-10)
(1.1598e-09 3.87926e-10 -7.79143e-13)
(6.68292e-09 -9.66296e-10 2.60222e-08)
(2.41286e-08 -2.38796e-08 6.0217e-08)
(4.43157e-09 7.45304e-09 1.22981e-08)
(3.20478e-08 -3.33416e-08 7.78111e-08)
(7.40026e-09 1.26866e-08 1.80593e-08)
(1.79565e-07 -7.69623e-08 2.45501e-07)
(8.03892e-08 -4.90875e-08 1.17528e-07)
(9.76722e-08 -4.79898e-08 1.64489e-07)
(4.86288e-10 1.11517e-09 1.27957e-11)
(1.05052e-09 5.67806e-10 -2.31685e-10)
(2.09806e-09 8.44013e-10 -4.4691e-10)
(5.38401e-07 -1.14079e-07 7.81305e-07)
(1.63616e-07 -6.38389e-08 3.00404e-07)
(7.52354e-07 -3.43847e-07 6.39228e-07)
(5.64544e-07 -2.93957e-07 4.31658e-07)
(5.83803e-07 -2.60943e-07 5.5481e-07)
(5.28484e-07 -1.30813e-07 7.40658e-07)
(2.91091e-07 -1.14687e-07 4.12483e-07)
(4.82247e-07 -1.80799e-07 5.63183e-07)
(4.15097e-07 -2.17583e-07 3.64005e-07)
(3.05271e-07 -1.4268e-07 3.80696e-07)
(4.34522e-07 -1.94119e-07 4.68476e-07)
(7.63254e-08 -3.99966e-08 -1.07122e-08)
(1.55093e-07 -1.07099e-07 4.13669e-08)
(7.40502e-08 -4.92445e-08 3.11658e-08)
(2.06334e-10 -6.23218e-09 1.33451e-08)
(2.74361e-08 -3.39397e-08 6.48547e-08)
(2.32516e-08 -2.40199e-08 4.04824e-08)
(1.58125e-07 -1.08916e-07 1.02734e-07)
(8.28366e-08 -6.76155e-08 1.1493e-07)
(7.65066e-08 -5.88276e-08 7.30857e-08)
(7.09395e-07 -4.56512e-07 2.24447e-07)
(5.50064e-07 -3.2188e-07 3.1275e-07)
(5.40406e-07 -3.46494e-07 1.94228e-07)
(3.88043e-07 -2.78001e-07 -3.63545e-08)
(2.59644e-07 -1.78933e-07 5.26273e-08)
(3.87023e-07 -2.65986e-07 6.39461e-08)
(4.00717e-07 -2.36394e-07 2.63614e-07)
(2.63429e-07 -1.73322e-07 1.33361e-07)
(3.91447e-07 -2.52296e-07 1.63808e-07)
(1.50611e-07 -7.06758e-08 2.82022e-07)
(2.37224e-07 -9.96014e-08 3.61542e-07)
(1.03183e-07 -6.99978e-08 2.0448e-07)
(1.01883e-08 -2.00668e-08 3.66394e-08)
(3.50404e-08 -4.29577e-08 8.99243e-08)
(4.60916e-08 -5.01083e-08 1.14824e-07)
(1.96559e-07 -1.04497e-07 2.9151e-07)
(9.36017e-08 -7.49202e-08 1.57428e-07)
(1.1025e-07 -7.93568e-08 2.02385e-07)
(1.32212e-06 -4.43717e-07 1.28522e-06)
(2.18889e-06 -9.67585e-07 1.63859e-06)
(8.79449e-07 -4.21275e-07 6.04081e-07)
(1.05834e-06 -6.03186e-07 4.77322e-07)
(1.07527e-06 -5.38915e-07 6.66666e-07)
(1.30266e-06 -4.69705e-07 1.19857e-06)
(1.6151e-06 -8.06263e-07 1.00862e-06)
(1.26674e-06 -5.86445e-07 8.97284e-07)
(1.27225e-06 -7.4711e-07 5.20371e-07)
(1.51947e-06 -8.27441e-07 7.84279e-07)
(1.28879e-06 -6.74188e-07 7.26708e-07)
(2.00646e-06 -1.63314e-06 -3.13807e-07)
(1.7364e-06 -1.33065e-06 -7.57476e-08)
(2.00094e-06 -1.55216e-06 -8.21607e-08)
(2.57436e-06 -1.95003e-06 1.65666e-07)
(2.28372e-06 -1.60358e-06 4.13039e-07)
(2.27977e-06 -1.69974e-06 1.5913e-07)
(1.73582e-06 -1.254e-06 1.44019e-07)
(2.00431e-06 -1.37926e-06 3.91759e-07)
(2.00007e-06 -1.46778e-06 1.5192e-07)
(8.44439e-07 -5.76219e-07 1.05235e-07)
(1.04681e-06 -6.63214e-07 2.94003e-07)
(1.04133e-06 -7.19612e-07 1.16025e-07)
(1.26088e-06 -9.98577e-07 -2.50691e-07)
(1.48787e-06 -1.127e-06 -6.94835e-08)
(1.2559e-06 -9.40968e-07 -6.33657e-08)
(1.26105e-06 -8.15524e-07 3.20395e-07)
(1.48757e-06 -1.05821e-06 1.3541e-07)
(1.25589e-06 -8.80169e-07 1.26083e-07)
(2.16793e-06 -1.00448e-06 1.52676e-06)
(1.73941e-06 -8.88824e-07 1.04384e-06)
(2.13662e-06 -1.16429e-06 1.14693e-06)
(2.60252e-06 -1.62533e-06 9.90957e-07)
(2.29375e-06 -1.50333e-06 6.74005e-07)
(2.30883e-06 -1.39773e-06 9.42742e-07)
(1.76674e-06 -9.98961e-07 8.39445e-07)
(2.01462e-06 -1.28671e-06 6.38296e-07)
(2.03005e-06 -1.18899e-06 8.92251e-07)
(1.35598e-06 -4.56714e-07 1.33318e-06)
(2.23479e-06 -9.79088e-07 1.7116e-06)
(9.39635e-07 -4.43517e-07 7.2167e-07)
(1.1275e-06 -6.20932e-07 6.26534e-07)
(1.14505e-06 -5.60425e-07 8.02042e-07)
(1.35187e-06 -4.88037e-07 1.27135e-06)
(1.66689e-06 -8.19185e-07 1.10371e-06)
(1.31096e-06 -6.00036e-07 9.77073e-07)
(1.35116e-06 -7.64265e-07 6.88541e-07)
(1.60797e-06 -8.47531e-07 9.56484e-07)
(1.36802e-06 -6.94985e-07 8.80319e-07)
(2.09046e-06 -1.62897e-06 -7.58599e-08)
(1.82012e-06 -1.33134e-06 1.49201e-07)
(2.09346e-06 -1.55282e-06 1.61801e-07)
(2.69263e-06 -1.95519e-06 4.52133e-07)
(2.39854e-06 -1.61385e-06 6.74348e-07)
(2.38913e-06 -1.70511e-06 4.25378e-07)
(1.82685e-06 -1.2598e-06 3.7027e-07)
(2.1099e-06 -1.38992e-06 6.3264e-07)
(2.10034e-06 -1.47336e-06 3.98082e-07)
(8.9748e-07 -5.82888e-07 2.54393e-07)
(1.11385e-06 -6.7549e-07 4.55522e-07)
(1.10392e-06 -7.26058e-07 2.83992e-07)
(1.31998e-06 -9.93974e-07 -6.58213e-08)
(1.56268e-06 -1.12772e-06 1.36637e-07)
(1.32172e-06 -9.41719e-07 1.24142e-07)
(1.33792e-06 -8.27389e-07 5.01301e-07)
(1.56922e-06 -1.06422e-06 3.41965e-07)
(1.32805e-06 -8.86396e-07 3.13195e-07)
(2.23491e-06 -1.0207e-06 1.63646e-06)
(1.79381e-06 -9.01503e-07 1.14414e-06)
(2.19824e-06 -1.17631e-06 1.26296e-06)
(2.72613e-06 -1.64266e-06 1.23988e-06)
(2.40993e-06 -1.51818e-06 9.20983e-07)
(2.42398e-06 -1.41574e-06 1.17223e-06)
(1.86433e-06 -1.01835e-06 1.03053e-06)
(2.12177e-06 -1.30213e-06 8.65237e-07)
(2.13652e-06 -1.20769e-06 1.10244e-06)
(4.81127e-06 -3.11573e-06 2.12001e-06)
(4.23062e-06 -2.85431e-06 1.52352e-06)
(4.78953e-06 -3.35943e-06 1.59568e-06)
(5.42193e-06 -4.13074e-06 1.29958e-06)
(5.01649e-06 -3.91307e-06 9.00046e-07)
(5.02896e-06 -3.75154e-06 1.26809e-06)
(4.27504e-06 -3.04908e-06 1.19927e-06)
(4.63371e-06 -3.54616e-06 8.77235e-07)
(4.64648e-06 -3.39092e-06 1.23467e-06)
(2.88329e-06 -2.21876e-06 1.71548e-07)
(3.2091e-06 -2.38793e-06 4.69742e-07)
(3.20599e-06 -2.50602e-06 1.76799e-07)
(3.5505e-06 -3.04993e-06 -4.10957e-07)
(3.89292e-06 -3.26372e-06 -1.23327e-07)
(3.5441e-06 -2.93258e-06 -1.16221e-07)
(3.54475e-06 -2.68676e-06 4.86364e-07)
(3.89047e-06 -3.13615e-06 1.85513e-07)
(3.5419e-06 -2.81182e-06 1.81445e-07)
(3.5526e-06 -2.0382e-06 1.88651e-06)
(4.05019e-06 -2.69546e-06 1.49863e-06)
(3.52671e-06 -2.24781e-06 1.41905e-06)
(2.91056e-06 -1.87192e-06 1.03694e-06)
(3.21832e-06 -2.26565e-06 7.70831e-07)
(3.23238e-06 -2.13758e-06 1.08071e-06)
(3.91518e-06 -2.72619e-06 1.16184e-06)
(3.55371e-06 -2.55751e-06 7.99789e-07)
(3.56744e-06 -2.42234e-06 1.12234e-06)
(5.40035e-06 -4.61693e-06 1.9661e-07)
(5.0085e-06 -4.06834e-06 5.42338e-07)
(5.00663e-06 -4.21953e-06 1.94547e-07)
(4.63314e-06 -4.11822e-06 -4.64138e-07)
(4.25383e-06 -3.61317e-06 -1.30483e-07)
(4.6263e-06 -3.98083e-06 -1.37664e-07)
(4.62548e-06 -3.69522e-06 5.29847e-07)
(4.25115e-06 -3.47896e-06 1.89032e-07)
(4.62338e-06 -3.84014e-06 1.92032e-07)
(4.904e-06 -3.06584e-06 2.41329e-06)
(3.63492e-06 -1.99836e-06 2.13385e-06)
(4.91268e-06 -3.12733e-06 2.31689e-06)
(4.32091e-06 -2.86349e-06 1.70928e-06)
(4.88557e-06 -3.36801e-06 1.79735e-06)
(5.60535e-06 -4.14284e-06 1.70365e-06)
(5.19724e-06 -3.92356e-06 1.30856e-06)
(5.20569e-06 -3.76427e-06 1.65325e-06)
(4.43772e-06 -3.0631e-06 1.54594e-06)
(4.80716e-06 -3.55718e-06 1.26589e-06)
(4.8163e-06 -3.40428e-06 1.60068e-06)
(3.01028e-06 -2.22372e-06 4.78325e-07)
(3.35041e-06 -2.39703e-06 7.93006e-07)
(3.34151e-06 -2.51077e-06 5.03933e-07)
(3.67377e-06 -3.04646e-06 -8.24041e-08)
(4.03501e-06 -3.26419e-06 2.36645e-07)
(3.67836e-06 -2.93308e-06 2.24392e-07)
(3.69448e-06 -2.69548e-06 8.30348e-07)
(4.04248e-06 -3.1405e-06 5.53312e-07)
(3.68576e-06 -2.81637e-06 5.28936e-07)
(3.64005e-06 -2.05179e-06 2.04527e-06)
(4.13839e-06 -2.70487e-06 1.679e-06)
(3.60878e-06 -2.25784e-06 1.58333e-06)
(3.04242e-06 -1.88858e-06 1.3054e-06)
(3.36036e-06 -2.27883e-06 1.0786e-06)
(3.37228e-06 -2.15357e-06 1.36876e-06)
(4.07049e-06 -2.74086e-06 1.48904e-06)
(3.70394e-06 -2.57014e-06 1.12789e-06)
(3.71516e-06 -2.43766e-06 1.42998e-06)
(5.5829e-06 -4.6205e-06 6.4413e-07)
(5.18976e-06 -4.07558e-06 9.68223e-07)
(5.18186e-06 -4.22329e-06 6.22469e-07)
(4.77816e-06 -4.11517e-06 -8.15048e-08)
(4.40358e-06 -3.61361e-06 2.48752e-07)
(4.78352e-06 -3.98124e-06 2.60687e-07)
(4.79919e-06 -3.70282e-06 9.3551e-07)
(4.4111e-06 -3.48311e-06 5.7704e-07)
(4.79107e-06 -3.8441e-06 6.00099e-07)
(-2.07295e-12 -3.98751e-14 2.5125e-11)
(-6.33532e-12 -5.88764e-14 5.19341e-11)
(6.73048e-12 -3.36828e-14 1.4088e-11)
(8.6759e-12 -9.32715e-14 9.71117e-12)
(-6.48308e-12 -1.21123e-13 5.21637e-11)
(-1.97494e-12 -6.52814e-14 2.48909e-11)
(8.64346e-12 -2.2306e-14 9.76895e-12)
(7.46667e-07 -1.7483e-07 9.45665e-07)
(2.73099e-11 7.46158e-11 1.99949e-11)
(1.60204e-11 2.22894e-11 1.05281e-11)
(3.92794e-12 6.69986e-11 4.87125e-11)
(1.44512e-11 4.06062e-11 1.55312e-11)
(1.36179e-11 5.13173e-11 2.20855e-11)
(1.53531e-11 9.49591e-11 4.41503e-11)
(2.13322e-11 3.29861e-11 1.13777e-11)
(1.38664e-08 6.17583e-09 -2.89889e-09)
(4.53328e-08 7.51098e-10 9.30744e-08)
(1.04065e-08 1.09009e-08 8.74294e-09)
(2.34059e-08 6.33582e-10 1.39415e-08)
(2.32473e-08 1.58097e-08 2.30414e-08)
(3.69591e-08 -2.00455e-09 2.49811e-08)
(1.77773e-08 4.91769e-09 5.89924e-09)
(5.41678e-06 -3.58855e-06 2.37714e-06)
(3.08185e-06 -1.60425e-06 1.90589e-06)
(4.4891e-12 2.09024e-11 2.27708e-11)
(1.37883e-11 1.38029e-11 9.99234e-12)
(5.76642e-13 4.06076e-11 4.82648e-11)
(8.17726e-12 1.13608e-11 1.41553e-11)
(9.04249e-12 3.15131e-11 2.18179e-11)
(-2.93808e-12 2.72194e-11 5.00091e-11)
(1.19676e-11 9.09753e-12 9.72057e-12)
(-1.75343e-12 -5.30618e-14 2.49742e-11)
(-6.24369e-12 -6.77419e-14 5.18803e-11)
(8.73316e-12 -8.75126e-15 9.69342e-12)
(6.88886e-12 -5.47467e-14 1.40171e-11)
(-1.8812e-12 -2.78784e-14 2.48513e-11)
(-6.18005e-12 -2.88423e-15 5.20362e-11)
(8.83047e-12 -8.3618e-14 9.70397e-12)
(6.84668e-07 -2.04076e-07 7.63252e-07)
(7.84949e-07 -2.19796e-07 8.88403e-07)
(7.99077e-07 -2.55922e-07 8.55371e-07)
(7.28688e-07 -1.90698e-07 8.82099e-07)
(7.02681e-07 -1.83664e-07 8.37545e-07)
(7.14541e-07 -2.18121e-07 8.04641e-07)
(7.66694e-07 -2.42201e-07 8.09635e-07)
(7.69289e-07 -1.89133e-07 9.734e-07)
(6.65318e-08 -2.10532e-08 1.17509e-07)
(7.70603e-07 -2.54487e-07 8.8892e-07)
(8.32252e-07 -2.73541e-07 9.04743e-07)
(8.69514e-07 -2.66647e-07 1.00464e-06)
(7.61341e-07 -2.1088e-07 9.25164e-07)
(7.44999e-07 -2.36016e-07 8.49352e-07)
(7.80384e-07 -2.31249e-07 9.42216e-07)
(8.60415e-07 -2.91828e-07 9.48478e-07)
(4.48209e-08 -4.43742e-08 9.39629e-08)
(4.53005e-08 -2.61532e-08 8.50386e-08)
(1.37286e-08 -6.16088e-09 2.52967e-08)
(2.62811e-08 -2.30508e-08 3.87918e-08)
(4.05287e-08 -2.34698e-08 7.64794e-08)
(5.36811e-08 -4.16884e-08 1.05188e-07)
(2.04333e-08 -2.34989e-08 3.22488e-08)
(1.01402e-06 -2.8912e-07 1.11975e-06)
(2.61912e-06 -1.26397e-06 1.77628e-06)
(9.44684e-07 -3.31469e-07 8.99454e-07)
(8.71887e-07 -2.60265e-07 9.38247e-07)
(8.88198e-07 -2.98042e-07 9.05129e-07)
(9.9529e-07 -3.10137e-07 1.0445e-06)
(8.53352e-07 -2.84657e-07 8.54986e-07)
(9.6346e-07 -3.05132e-07 9.87139e-07)
(9.81981e-07 -3.4454e-07 9.54098e-07)
(2.52106e-06 -1.35774e-06 1.39779e-06)
(2.59757e-06 -1.30524e-06 1.6543e-06)
(2.6919e-06 -1.41869e-06 1.57537e-06)
(2.73827e-06 -1.4788e-06 1.55192e-06)
(2.54294e-06 -1.30817e-06 1.53906e-06)
(2.58746e-06 -1.36695e-06 1.51442e-06)
(2.66982e-06 -1.46987e-06 1.43035e-06)
(1.04237e-06 -3.02769e-07 1.1574e-06)
(2.66985e-06 -1.27484e-06 1.86032e-06)
(1.05381e-06 -3.79522e-07 1.06539e-06)
(9.24165e-07 -3.15377e-07 9.59268e-07)
(9.63255e-07 -3.0638e-07 1.06626e-06)
(1.03636e-06 -3.29391e-07 1.10211e-06)
(9.54852e-07 -3.33489e-07 1.00726e-06)
(1.02062e-06 -3.616e-07 1.01307e-06)
(1.06153e-06 -3.50514e-07 1.12711e-06)
(2.72171e-06 -1.39593e-06 1.75307e-06)
(2.67169e-06 -1.32057e-06 1.78025e-06)
(2.81166e-06 -1.4921e-06 1.68351e-06)
(2.8755e-06 -1.4541e-06 1.89411e-06)
(2.65862e-06 -1.3805e-06 1.64065e-06)
(2.72097e-06 -1.34428e-06 1.8446e-06)
(2.87685e-06 -1.50732e-06 1.80074e-06)
(5.29091e-06 -3.73378e-06 1.82758e-06)
(5.39284e-06 -3.65006e-06 2.20818e-06)
(5.51345e-06 -3.84914e-06 2.04619e-06)
(5.5855e-06 -3.92791e-06 2.04835e-06)
(5.31565e-06 -3.66109e-06 2.02251e-06)
(5.38628e-06 -3.73886e-06 2.02278e-06)
(5.48857e-06 -3.92305e-06 1.84839e-06)
(2.97794e-06 -1.70868e-06 1.49305e-06)
(3.05976e-06 -1.64972e-06 1.77419e-06)
(2.84441e-06 -1.53406e-06 1.61082e-06)
(2.89256e-06 -1.59551e-06 1.58858e-06)
(3.00043e-06 -1.65432e-06 1.64545e-06)
(2.82211e-06 -1.58685e-06 1.46208e-06)
(3.05037e-06 -1.71707e-06 1.62452e-06)
(5.4896e-06 -3.5962e-06 2.52019e-06)
(3.13718e-06 -1.6145e-06 2.00105e-06)
(5.58287e-06 -3.76054e-06 2.4238e-06)
(5.4997e-06 -3.66083e-06 2.42107e-06)
(5.6908e-06 -3.93716e-06 2.26532e-06)
(5.77505e-06 -3.87385e-06 2.57513e-06)
(5.48989e-06 -3.74835e-06 2.23458e-06)
(5.57304e-06 -3.68645e-06 2.5387e-06)
(5.7854e-06 -3.94914e-06 2.4592e-06)
(3.19752e-06 -1.74467e-06 1.89374e-06)
(3.1407e-06 -1.66417e-06 1.91651e-06)
(2.96824e-06 -1.60854e-06 1.72555e-06)
(3.03353e-06 -1.56879e-06 1.9428e-06)
(3.03549e-06 -1.62357e-06 1.84759e-06)
(3.12823e-06 -1.72984e-06 1.76687e-06)
(3.19497e-06 -1.68835e-06 1.99068e-06)
(5.71371e-06 -4.04187e-06 2.06913e-06)
(5.78712e-06 -4.12163e-06 2.07318e-06)
(5.68868e-06 -4.117e-06 1.86852e-06)
(5.89416e-06 -4.13064e-06 2.2953e-06)
(5.97946e-06 -4.06595e-06 2.61073e-06)
(5.99032e-06 -4.14241e-06 2.49379e-06)
(3.95778e-07 -6.87068e-08 6.35982e-07)
(3.05372e-10 5.62225e-10 3.2885e-11)
(2.10361e-10 3.40742e-10 2.18209e-11)
(6.51213e-10 7.46001e-10 -6.32632e-11)
(2.79313e-10 3.19324e-10 4.95025e-11)
(6.09451e-10 6.40611e-10 -3.3732e-12)
(4.0467e-10 7.87102e-10 8.62986e-11)
(1.66675e-10 2.43217e-10 2.98114e-11)
(2.40579e-07 -4.89333e-08 4.34813e-07)
(1.4803e-09 1.22023e-09 -1.71998e-11)
(5.67665e-10 7.62568e-10 1.81911e-10)
(7.53222e-10 1.55959e-09 4.89046e-10)
(3.59008e-10 4.48854e-10 7.61505e-11)
(6.25443e-10 1.08651e-09 1.5368e-10)
(1.47259e-09 9.04024e-10 1.54513e-10)
(5.73799e-10 6.14176e-10 1.13858e-10)
(4.46035e-06 -2.72777e-06 2.21291e-06)
(3.92015e-06 -2.26962e-06 2.10427e-06)
(-3.04286e-13 1.76963e-12 2.41866e-11)
(7.44238e-12 8.97396e-13 1.38827e-11)
(-5.39708e-12 1.39307e-12 5.16142e-11)
(9.5398e-12 4.57979e-13 9.4862e-12)
(-5.99932e-13 1.0668e-12 2.41473e-11)
(-5.29179e-12 2.41049e-12 5.17871e-11)
(9.73555e-12 6.93464e-13 9.49397e-12)
(-1.02425e-12 3.40333e-13 2.45561e-11)
(7.21682e-12 1.99188e-13 1.39261e-11)
(-5.48691e-12 8.1938e-13 5.17349e-11)
(9.39187e-12 1.73802e-13 9.52135e-12)
(-8.54827e-13 5.73143e-13 2.43235e-11)
(-5.62942e-12 4.04681e-13 5.18502e-11)
(9.29179e-12 1.42497e-13 9.57755e-12)
(3.46407e-07 -7.47174e-08 5.15427e-07)
(3.79147e-07 -7.56644e-08 5.91967e-07)