/*--------------------------------*- C++ -*----------------------------------*\
| =========                 |                                                 |
| \\      /  F ield         | OpenFOAM: The Open Source CFD Toolbox           |
|  \\    /   O peration     | Version:  2012                                  |
|   \\  /    A nd           | Website:  www.openfoam.com                      |
|    \\/     M anipulation  |                                                 |
\*---------------------------------------------------------------------------*/
FoamFile
{
    version     2.0;
    format      ascii;
    class       volSymmTensorField;
    location    "0.107/solid";
    object      epsilon;
}
// * * * * * * * * * * * * * * * * * * * * * * * * * * * * * * * * * * * * * //

dimensions      [0 0 0 0 0 0 0];


internalField   nonuniform List<symmTensor> 
3125
(
(2.0851e-10 -2.39075e-11 6.66015e-10 2.63407e-12 -1.77468e-11 4.87001e-09)
(-9.70728e-06 -1.44455e-07 7.94121e-08 -9.97359e-06 5.26517e-08 3.30241e-05)
(-1.40033e-09 2.11933e-09 2.81941e-09 4.89391e-09 9.0936e-09 4.22383e-09)
(-2.95122e-07 3.69462e-06 1.00591e-05 -6.06414e-06 3.60245e-06 2.26229e-05)
(-5.11054e-06 -1.0463e-07 1.19879e-07 -5.28272e-06 -7.30192e-08 1.74019e-05)
(-7.19037e-06 -1.27458e-07 1.10839e-07 -7.41097e-06 -3.27258e-08 2.44863e-05)
(3.27674e-10 4.78543e-12 -5.84136e-10 -2.33235e-12 -8.35103e-12 6.4115e-09)
(-9.1896e-10 1.10176e-09 1.82374e-09 3.65267e-09 6.0194e-09 4.39499e-09)
(2.06696e-10 3.09306e-11 6.72267e-10 2.50519e-12 1.6029e-12 4.86335e-09)
(-1.70963e-09 1.90727e-10 -7.17759e-10 5.03108e-09 2.79101e-09 5.00147e-09)
(3.22085e-10 1.47658e-12 -5.79858e-10 -3.88203e-13 -2.52725e-12 6.4043e-09)
(-9.70468e-06 4.64936e-08 3.5187e-07 -9.3848e-06 6.13172e-08 3.16719e-05)
(-3.9183e-09 1.66653e-09 2.19952e-10 1.15604e-08 6.52101e-09 2.99769e-09)
(2.24423e-07 1.41606e-07 4.86364e-07 9.07114e-07 1.04491e-06 -4.9607e-06)
(1.44518e-06 1.07733e-07 3.68144e-06 1.58588e-06 5.61963e-08 -4.98562e-06)
(-1.93513e-06 3.54253e-06 5.74875e-06 -6.44477e-06 1.64505e-06 1.44886e-05)
(-9.95575e-06 -7.28228e-09 2.09645e-07 -1.00242e-05 2.59013e-07 3.3494e-05)
(-7.21536e-06 3.46639e-06 8.33277e-06 -6.75429e-06 1.25663e-06 3.30957e-05)
(-9.88345e-06 6.0616e-09 4.92056e-07 -9.71996e-06 2.57829e-07 3.24813e-05)
(5.01319e-07 4.20513e-07 -1.38177e-07 2.17697e-07 6.73382e-07 -2.59076e-06)
(1.25115e-06 3.42879e-08 3.79719e-06 7.79936e-07 -2.30805e-07 -3.34015e-06)
(-6.47991e-06 1.87403e-06 6.02742e-06 -7.61434e-06 -2.4081e-06 3.66666e-05)
(-9.55413e-06 -1.44217e-07 8.4839e-08 -9.8198e-06 4.33785e-08 3.25099e-05)
(-7.33427e-06 -1.28745e-07 1.09308e-07 -7.55772e-06 -2.98584e-08 2.49751e-05)
(-9.55286e-06 4.53762e-08 3.54794e-07 -9.23596e-06 5.03403e-08 3.11709e-05)
(1.042e-06 4.45881e-08 3.49176e-06 1.23574e-06 9.86713e-08 -3.78458e-06)
(1.38987e-06 8.91122e-08 3.64952e-06 1.52615e-06 7.10001e-08 -4.80171e-06)
(-7.33919e-06 3.70448e-08 3.69495e-07 -7.07483e-06 -2.61264e-08 2.39039e-05)
(-9.80508e-06 -9.11968e-09 2.07224e-07 -9.87166e-06 2.49091e-07 3.29845e-05)
(-7.58066e-06 -2.38655e-08 1.69367e-07 -7.61172e-06 1.67856e-07 2.54436e-05)
(-9.73369e-06 5.32213e-09 4.88212e-07 -9.57435e-06 2.46901e-07 3.19893e-05)
(7.20286e-07 -1.88996e-10 3.66551e-06 5.5602e-07 -1.77504e-07 -2.23219e-06)
(1.16129e-06 2.05772e-08 3.80265e-06 7.52582e-07 -2.14641e-07 -3.17744e-06)
(-7.51989e-06 3.64092e-09 4.36909e-07 -7.40843e-06 1.62283e-07 2.47134e-05)
(-5.12161e-06 3.16006e-08 3.62039e-07 -4.91591e-06 -7.08917e-08 1.66268e-05)
(1.00153e-06 4.25729e-08 3.47137e-06 1.19882e-06 9.8524e-08 -3.65754e-06)
(-7.19596e-06 3.66705e-08 3.6953e-07 -6.93519e-06 -2.91848e-08 2.34335e-05)
(7.41567e-07 3.30836e-08 3.26014e-06 9.38486e-07 8.54648e-08 -2.79046e-06)
(-5.32938e-06 -3.13737e-08 1.37946e-07 -5.33098e-06 1.10045e-07 1.78187e-05)
(-7.43562e-06 -2.455e-08 1.67873e-07 -7.46474e-06 1.63889e-07 2.49527e-05)
(-5.28224e-06 3.98281e-09 3.84521e-07 -5.21267e-06 1.03436e-07 1.7347e-05)
(6.78123e-07 4.17301e-11 3.63807e-06 5.27362e-07 -1.7587e-07 -2.11814e-06)
(-7.37579e-06 3.65393e-09 4.33819e-07 -7.26727e-06 1.58348e-07 2.42394e-05)
(4.37477e-07 3.10317e-09 3.37742e-06 3.38008e-07 -1.70765e-07 -1.39787e-06)
(-4.97787e-06 -1.02902e-07 1.2054e-07 -5.14684e-06 -7.51624e-08 1.69499e-05)
(-4.9894e-06 3.12104e-08 3.60754e-07 -4.78751e-06 -7.32265e-08 1.6193e-05)
(-5.1941e-06 -3.14963e-08 1.36321e-07 -5.19462e-06 1.06458e-07 1.7362e-05)
(-5.14822e-06 3.92782e-09 3.80787e-07 -5.0809e-06 9.98794e-08 1.69052e-05)
(1.20284e-09 -1.97817e-09 -1.59469e-09 -5.12496e-09 -3.88706e-09 1.04317e-08)
(3.46618e-10 -2.23067e-10 -9.79406e-11 -5.98095e-10 -4.36263e-10 8.50749e-09)
(1.53285e-09 -3.7441e-09 -2.9433e-09 -1.03561e-08 -8.00171e-09 1.19522e-08)
(-6.22273e-09 1.67257e-08 9.53328e-09 -6.25527e-08 -6.46856e-08 7.40057e-08)
(-2.09173e-08 -8.85921e-09 1.33593e-08 -3.97018e-08 -5.62085e-08 1.75832e-08)
(-1.07862e-05 -1.00022e-07 8.78764e-08 -1.11058e-05 2.0684e-07 3.66811e-05)
(2.40001e-08 5.80882e-08 1.12564e-07 7.64012e-08 1.48055e-07 3.56721e-08)
(-1.11615e-05 -1.09189e-07 -5.31004e-08 -1.13118e-05 2.30156e-07 3.75967e-05)
(1.27417e-08 9.62713e-08 1.74561e-07 6.02597e-08 1.74318e-07 6.983e-08)
(-6.06143e-06 -1.15932e-07 1.16722e-07 -6.25694e-06 -5.5628e-08 2.0644e-05)
(-6.20054e-06 -1.17437e-07 1.15835e-07 -6.39903e-06 -5.30711e-08 2.11171e-05)
(1.91053e-10 4.18637e-13 6.84191e-11 -9.72306e-12 -9.3236e-13 7.85526e-09)
(1.99694e-10 -1.0421e-12 -1.21304e-10 -8.7433e-12 -6.50525e-13 8.31348e-09)
(1.22912e-10 5.74309e-11 7.35261e-10 1.37338e-10 2.0926e-10 4.78343e-09)
(1.5237e-10 -1.09994e-11 7.25453e-10 9.23336e-11 1.06995e-10 4.79882e-09)
(1.9494e-10 -3.14599e-12 6.931e-11 -2.66364e-11 -8.46855e-12 7.90871e-09)
(2.64032e-10 -9.97831e-11 4.60152e-12 -2.84199e-10 -1.98625e-10 8.26195e-09)
(6.18018e-10 -2.71223e-09 -2.10039e-09 -3.48081e-09 -2.26917e-09 9.96627e-09)
(1.24235e-10 -5.66784e-11 -6.40411e-10 3.06741e-10 1.34075e-10 6.34581e-09)
(2.75374e-10 -3.28541e-10 -3.47962e-10 -4.21474e-10 -2.94559e-10 8.83617e-09)
(2.01405e-10 -6.83232e-12 -1.21709e-10 -2.13103e-11 -9.08654e-12 8.35503e-09)
(2.37531e-10 -2.74627e-11 -6.0242e-10 1.07813e-10 3.51777e-11 6.38986e-09)
(2.3516e-10 -1.48368e-10 -2.14227e-10 -2.05065e-10 -1.3648e-10 8.64633e-09)
(-4.59647e-06 1.21984e-07 2.57982e-06 -4.44862e-06 -2.20539e-08 1.52502e-05)
(-1.08119e-05 7.0786e-08 3.7057e-07 -1.05851e-05 2.52072e-07 3.53709e-05)
(-4.73798e-06 3.64142e-07 2.99912e-06 -5.09822e-06 5.74246e-09 1.68155e-05)
(4.99828e-10 -4.674e-09 -3.41322e-09 -7.35965e-09 -4.73778e-09 1.04102e-08)
(7.96681e-09 5.56633e-08 4.60235e-08 1.40332e-07 1.08428e-07 1.52445e-08)
(-2.39505e-08 9.87689e-09 2.39168e-08 -1.6766e-08 -2.96212e-08 -2.67053e-10)
(-1.26232e-08 4.96982e-08 2.89485e-08 -4.64448e-08 -9.5634e-08 2.09406e-07)
(1.51542e-06 2.82859e-07 3.40975e-06 2.13693e-06 -1.63387e-08 -5.94974e-06)
(-5.40044e-07 2.29098e-07 7.89765e-07 -1.74482e-06 -1.27594e-06 8.59277e-06)
(-2.72824e-06 5.51136e-07 3.49664e-06 -3.58507e-06 -1.67133e-07 1.11024e-05)
(-6.81798e-08 1.79457e-08 8.28642e-08 -9.08607e-08 -1.652e-07 -4.52214e-09)
(-3.05936e-06 1.23901e-07 3.03245e-06 -2.94403e-06 -8.34637e-09 1.01456e-05)
(1.5348e-06 2.15225e-07 3.62208e-06 1.87409e-06 -6.37322e-08 -5.67508e-06)
(-3.03362e-06 3.48502e-07 3.3314e-06 -3.35627e-06 -4.80832e-08 1.10256e-05)
(-1.09626e-05 1.09802e-07 5.26466e-07 -1.08137e-05 3.87919e-07 3.64212e-05)
(8.86399e-09 2.84711e-07 2.22751e-07 1.20617e-07 1.15074e-07 3.51132e-08)
(-9.04579e-07 3.48018e-07 1.31474e-06 -2.61061e-06 -1.9445e-06 1.29512e-05)
(-4.44714e-06 5.84172e-07 3.32188e-06 -5.50508e-06 -1.13882e-07 1.71437e-05)
(-6.85607e-08 6.94013e-08 1.18149e-07 -9.78003e-08 -1.66259e-07 -5.0805e-08)
(-1.09638e-05 1.49067e-08 2.8673e-07 -1.10949e-05 4.30679e-07 3.69723e-05)
(-1.118e-05 7.70658e-08 2.7951e-07 -1.12852e-05 5.48571e-07 3.76216e-05)
(-4.94478e-06 1.47598e-08 2.83316e-06 -5.1708e-06 1.02192e-07 1.68832e-05)
(-1.08994e-05 4.04779e-08 5.65211e-07 -1.07426e-05 5.09038e-07 3.58471e-05)
(-4.91724e-06 2.71241e-07 2.93978e-06 -5.72245e-06 1.9802e-07 1.81397e-05)
(1.51608e-06 2.34218e-07 3.06508e-06 9.36926e-07 -5.57882e-07 -3.90037e-06)
(-6.83366e-07 4.87399e-07 2.44165e-08 -2.85329e-06 -2.48119e-06 1.18073e-05)
(-2.91285e-06 4.89963e-07 3.03605e-06 -4.36997e-06 6.92514e-08 1.26685e-05)
(-3.38434e-06 3.47833e-08 3.25915e-06 -3.71446e-06 3.30748e-09 1.18293e-05)
(1.4816e-06 1.41012e-07 3.45326e-06 8.56687e-07 -3.75412e-07 -3.80916e-06)
(-3.21342e-06 2.71232e-07 3.22213e-06 -4.13252e-06 7.04292e-09 1.25822e-05)
(-1.10193e-05 7.12027e-08 6.42147e-07 -1.08898e-05 6.53513e-07 3.64116e-05)
(-1.23e-06 6.59191e-07 7.07744e-07 -3.87696e-06 -3.51145e-06 1.67759e-05)
(-4.62432e-06 5.25302e-07 2.86422e-06 -6.02532e-06 3.60483e-07 1.83252e-05)
(-8.50361e-06 -1.38721e-07 1.00056e-07 -8.75089e-06 -8.18344e-10 2.89488e-05)
(-8.35536e-06 -1.37538e-07 1.02077e-07 -8.59993e-06 -4.94128e-09 2.84461e-05)
(-4.45284e-06 9.68782e-08 2.53112e-06 -4.28739e-06 -3.02253e-08 1.47368e-05)
(-8.50465e-06 4.03064e-08 3.66641e-07 -8.21173e-06 3.6111e-09 2.77297e-05)
(-4.01421e-06 6.45647e-08 2.45626e-06 -3.8449e-06 -4.36186e-08 1.32573e-05)
(1.17554e-06 5.40487e-08 3.54795e-06 1.34876e-06 9.52305e-08 -4.1823e-06)
(-2.31775e-06 4.74156e-08 2.81195e-06 -2.15213e-06 -1.54534e-08 7.55e-06)
(-2.59402e-06 5.70933e-08 2.86162e-06 -2.43839e-06 -1.23998e-08 8.49878e-06)
(-2.97301e-06 9.72623e-08 2.97759e-06 -2.83607e-06 -8.92961e-09 9.81128e-06)
(1.22537e-06 5.92434e-08 3.56825e-06 1.38846e-06 9.2235e-08 -4.32414e-06)
(-2.68799e-06 6.23911e-08 2.88176e-06 -2.53564e-06 -1.16837e-08 8.82105e-06)
(-8.35711e-06 3.98124e-08 3.67273e-07 -8.06777e-06 -7.39814e-10 2.72453e-05)
(-3.45875e-06 5.00163e-08 2.40198e-06 -3.28447e-06 -5.23072e-08 1.13793e-05)
(-3.87253e-06 5.95648e-08 2.44091e-06 -3.7026e-06 -4.60196e-08 1.27802e-05)
(-8.75648e-06 -1.74875e-08 1.86656e-07 -8.80558e-06 2.02495e-07 2.94292e-05)
(-8.60776e-06 -1.83409e-08 1.84808e-07 -8.65469e-06 1.97334e-07 2.89255e-05)
(-4.83537e-06 -7.66451e-09 2.79001e-06 -5.01301e-06 9.15442e-08 1.64082e-05)
(-8.6894e-06 3.57419e-09 4.62802e-07 -8.55395e-06 1.97449e-07 2.85594e-05)
(-4.44505e-06 -3.10476e-08 2.68602e-06 -4.56316e-06 7.57585e-08 1.4963e-05)
(8.71013e-07 1.16184e-09 3.73696e-06 6.41868e-07 -1.85527e-07 -2.59903e-06)
(-2.75225e-06 -1.94408e-08 2.99939e-06 -2.87154e-06 -3.77374e-09 9.25465e-06)
(-3.02071e-06 -1.71837e-08 3.08421e-06 -3.17789e-06 -3.12266e-10 1.02303e-05)
(-3.33444e-06 1.18908e-08 3.2219e-06 -3.60069e-06 2.54158e-09 1.1521e-05)
(9.32419e-07 3.03045e-09 3.75787e-06 6.70105e-07 -1.89892e-07 -2.73224e-06)
(-3.1066e-06 -1.44451e-08 3.11504e-06 -3.2815e-06 5.85434e-10 1.05555e-05)
(-8.54153e-06 3.51129e-09 4.59317e-07 -8.4093e-06 1.92276e-07 2.80734e-05)
(-3.89924e-06 -3.40206e-08 2.57947e-06 -3.98056e-06 6.32457e-08 1.30561e-05)
(-4.30932e-06 -3.30924e-08 2.65738e-06 -4.41611e-06 7.23121e-08 1.44835e-05)
(-6.07039e-06 3.40131e-08 3.67758e-07 -5.83873e-06 -5.27536e-08 1.97395e-05)
(-2.41796e-06 3.54494e-08 2.25976e-06 -2.23654e-06 -7.16782e-08 7.85412e-06)
(-2.79641e-06 4.03183e-08 2.32586e-06 -2.61629e-06 -6.39746e-08 9.13521e-06)
(-2.22707e-06 4.52107e-08 2.79572e-06 -2.05861e-06 -1.68744e-08 7.23936e-06)
(8.86989e-07 3.80305e-08 3.3975e-06 1.08796e-06 9.51893e-08 -3.28349e-06)
(-1.95959e-06 3.98631e-08 2.73978e-06 -1.78491e-06 -2.23809e-08 6.3267e-06)
(-6.20891e-06 3.43374e-08 3.68327e-07 -5.97355e-06 -5.00627e-08 2.01941e-05)
(-3.32363e-06 4.77269e-08 2.38903e-06 -3.14779e-06 -5.44496e-08 1.09212e-05)
(-2.92605e-06 4.20113e-08 2.34396e-06 -2.74669e-06 -6.14849e-08 9.57414e-06)
(-1.61814e-06 3.37573e-08 2.63694e-06 -1.43918e-06 -3.18249e-08 5.16633e-06)
(8.50175e-07 3.67668e-08 3.36765e-06 1.0508e-06 9.32637e-08 -3.15997e-06)
(-1.87233e-06 3.8308e-08 2.71752e-06 -1.69621e-06 -2.4561e-08 6.02989e-06)
(-6.29499e-06 -2.90363e-08 1.52308e-07 -6.30834e-06 1.3457e-07 2.10885e-05)
(-6.43574e-06 -2.85731e-08 1.53896e-07 -6.45082e-06 1.38269e-07 2.15648e-05)
(-6.24177e-06 3.99926e-09 4.08836e-07 -6.15517e-06 1.28565e-07 2.05076e-05)
(-2.81753e-06 -2.64752e-08 2.34914e-06 -2.85589e-06 3.51433e-08 9.3548e-06)
(-3.21779e-06 -2.97021e-08 2.44565e-06 -3.27103e-06 4.66251e-08 1.07202e-05)
(-2.66059e-06 -1.92177e-08 2.97151e-06 -2.77063e-06 -5.31589e-09 8.93017e-06)
(5.66224e-07 1.31942e-09 3.54208e-06 4.42878e-07 -1.72705e-07 -1.79386e-06)
(-2.38312e-06 -1.75166e-08 2.88238e-06 -2.47093e-06 -1.11516e-08 7.96221e-06)
(-6.38162e-06 3.98706e-09 4.12145e-07 -6.29232e-06 1.32226e-07 2.09679e-05)
(-3.76231e-06 -3.34559e-08 2.55421e-06 -3.83705e-06 6.01824e-08 1.25841e-05)
(-3.35308e-06 -3.07412e-08 2.47454e-06 -3.41128e-06 5.02305e-08 1.11821e-05)
(-2.01538e-06 -1.45427e-08 2.73999e-06 -2.07838e-06 -2.11094e-08 6.69329e-06)
(5.32341e-07 1.83763e-09 3.50502e-06 4.15622e-07 -1.72069e-07 -1.69105e-06)
(-2.29058e-06 -1.67254e-08 2.84973e-06 -2.37203e-06 -1.34483e-08 7.64217e-06)
(1.25419e-09 1.3787e-10 1.73596e-10 -5.14508e-09 -4.84709e-09 1.00844e-08)
(6.55784e-10 8.52348e-11 2.41898e-10 -2.52993e-09 -2.32309e-09 8.6897e-09)
(2.37885e-09 2.37339e-10 4.63113e-11 -1.03254e-08 -9.97739e-09 1.28533e-08)
(1.19603e-09 4.72945e-09 2.52557e-09 -1.84163e-08 -1.44177e-08 1.77077e-08)
(4.31705e-09 3.1687e-10 -1.0492e-10 -2.08875e-08 -2.08633e-08 1.84352e-08)
(-1.15414e-09 3.44868e-13 1.13499e-09 -9.55673e-14 -4.62147e-13 3.15007e-10)
(-1.01653e-05 -1.40977e-07 6.79882e-08 -1.04359e-05 9.4424e-08 3.45651e-05)
(-2.5846e-09 1.85533e-09 4.2685e-09 2.49477e-09 5.76961e-09 1.28229e-09)
(-2.23994e-09 9.03125e-09 1.33438e-08 1.89819e-08 3.24413e-08 4.14409e-09)
(-5.14872e-09 6.68227e-09 1.3785e-08 8.18798e-09 2.02601e-08 6.59223e-09)
(-9.2737e-06 9.34712e-07 3.56829e-06 -1.05308e-05 3.36251e-06 3.7832e-05)
(4.77819e-07 1.56958e-07 1.11169e-06 7.04086e-07 1.61976e-07 7.83707e-07)
(-1.956e-07 1.37836e-07 6.56577e-07 3.74025e-07 5.55851e-07 4.9929e-07)
(-5.51299e-06 -1.09569e-07 1.19006e-07 -5.69544e-06 -6.57256e-08 1.87755e-05)
(-6.7626e-06 -1.23316e-07 1.12837e-07 -6.97374e-06 -4.19047e-08 2.30307e-05)
(2.34474e-11 4.95156e-12 2.33529e-10 -9.74249e-12 2.16551e-12 6.74919e-09)
(-3.97973e-11 2.39449e-12 -2.56669e-10 -4.91391e-12 -3.42716e-12 8.46943e-09)
(-2.24762e-09 1.18133e-09 3.12538e-09 1.69917e-09 3.71542e-09 7.42825e-10)
(-2.02926e-10 2.70987e-10 8.81067e-10 8.88771e-10 1.51136e-09 4.64743e-09)
(-1.65666e-09 3.01361e-10 1.75722e-09 4.4712e-10 9.25424e-10 2.1051e-10)
(-1.16877e-09 9.12617e-12 1.14813e-09 4.75274e-13 -1.01022e-12 3.08751e-10)
(1.94096e-10 -2.06328e-11 6.96802e-10 1.23375e-11 -6.32101e-12 4.8497e-09)
(-1.23e-09 5.95765e-12 1.20778e-09 4.75376e-12 5.43924e-12 2.71435e-10)
(2.77658e-11 5.8946e-12 2.39742e-10 -2.64011e-11 -9.69166e-12 6.80991e-09)
(3.72007e-11 9.9364e-12 2.46361e-10 -6.10786e-11 -3.32704e-11 6.89939e-09)
(-1.56268e-09 -2.26123e-09 -1.46307e-09 2.54397e-09 1.79366e-09 7.93151e-09)
(-6.55189e-10 -5.97189e-11 -7.70112e-10 2.04277e-09 1.06031e-09 5.83791e-09)
(-7.86245e-10 -1.15332e-09 -9.81009e-10 9.79644e-10 6.01929e-10 8.43473e-09)
(-4.51366e-11 -3.13244e-12 -2.55032e-10 -6.10818e-12 -7.8868e-12 8.48256e-09)
(3.09989e-10 -9.31268e-13 -5.80277e-10 8.62154e-12 -5.2468e-12 6.40343e-09)
(-5.48453e-11 -1.56256e-11 -2.59167e-10 -5.22345e-12 -8.29535e-12 8.50447e-09)
(-7.39553e-06 1.36885e-07 1.52265e-06 -7.45483e-06 1.94123e-08 2.47343e-05)
(-1.01649e-05 5.04074e-08 3.40135e-07 -9.84224e-06 1.09653e-07 3.31875e-05)
(-7.78746e-06 1.91005e-07 1.52357e-06 -7.84974e-06 1.53672e-07 2.59748e-05)
(-3.08457e-09 -3.92838e-09 -1.56828e-09 5.33778e-09 4.00807e-09 6.42478e-09)
(-6.91514e-09 5.55538e-09 3.28535e-09 2.77699e-08 1.67755e-08 -1.2969e-10)
(-5.49416e-09 -5.8514e-09 5.23132e-10 1.39226e-08 1.12547e-08 3.85101e-09)
(-5.8307e-07 1.08193e-06 6.8579e-07 8.62517e-07 -1.65482e-06 4.53093e-06)
(9.13025e-07 2.96412e-07 1.35103e-06 6.84752e-07 2.54203e-06 -4.68298e-06)
(9.94379e-08 -2.6963e-08 3.47743e-07 2.6563e-08 9.10156e-08 1.10378e-08)
(3.15242e-07 2.64191e-07 1.51801e-06 -2.33135e-07 3.94358e-07 -1.54487e-07)
(-1.72287e-07 2.32223e-08 -3.72897e-07 1.88343e-07 -6.27213e-07 -4.1159e-08)
(-2.26411e-09 1.09565e-07 3.58265e-06 1.18495e-07 3.59382e-08 1.72715e-08)
(1.49382e-06 1.33741e-07 3.70483e-06 1.65762e-06 3.06274e-08 -5.18944e-06)
(2.16821e-08 1.42365e-07 3.62143e-06 1.31424e-07 1.484e-08 -2.25978e-08)
(-1.14675e-05 8.00016e-07 4.47347e-06 -1.0721e-05 1.87017e-06 3.89304e-05)
(2.39672e-06 1.42787e-06 2.36361e-06 -2.62804e-06 -7.71381e-07 -7.35544e-06)
(-1.37499e-06 7.21622e-07 2.98668e-06 -4.88379e-06 -2.02657e-06 1.97834e-05)
(-5.88147e-06 2.96419e-06 4.19846e-06 -6.95526e-06 2.58955e-07 2.73897e-05)
(-4.75011e-07 8.87198e-07 1.66387e-06 -2.08557e-06 1.84385e-06 3.61098e-06)
(-1.04e-05 -6.65093e-10 2.24265e-07 -1.04788e-05 2.97831e-07 3.50047e-05)
(-1.02652e-05 5.4619e-07 1.18812e-06 -1.07191e-05 1.02919e-06 3.53258e-05)
(-7.60341e-06 -3.49148e-08 1.66026e-06 -7.62186e-06 1.7929e-07 2.54593e-05)
(-1.03295e-05 1.03243e-08 5.03996e-07 -1.01538e-05 3.05712e-07 3.3942e-05)
(-7.94011e-06 2.75915e-08 1.69279e-06 -8.01188e-06 2.49004e-07 2.66548e-05)
(1.15969e-06 5.07243e-07 1.11619e-06 2.35709e-07 2.63128e-08 -3.14623e-06)
(9.72008e-08 3.90156e-07 -3.46012e-07 -7.02381e-07 -3.34777e-07 2.1819e-06)
(2.20762e-07 6.31911e-07 1.05607e-06 -1.19495e-06 -1.62082e-07 1.91086e-06)
(-2.43887e-07 3.59283e-08 3.7376e-06 -6.93803e-07 -1.70456e-07 1.68339e-06)
(1.34147e-06 5.54774e-08 3.76032e-06 8.06363e-07 -2.54358e-07 -3.50722e-06)
(-1.76807e-07 6.30984e-08 3.71784e-06 -7.16238e-07 -1.91811e-07 1.65923e-06)
(-1.1089e-05 1.40476e-06 1.36011e-06 -9.09525e-06 1.07821e-06 3.52605e-05)
(-1.85523e-06 5.4919e-07 3.57836e-06 -4.26543e-06 -5.36048e-06 2.4613e-05)
(-6.41459e-06 2.01873e-06 2.61854e-06 -8.17529e-06 -4.62551e-07 2.79526e-05)
(-9.10103e-06 -1.4264e-07 9.24446e-08 -9.35938e-06 2.02923e-08 3.09759e-05)
(-7.76845e-06 -1.32621e-07 1.06886e-07 -8.00122e-06 -1.99628e-08 2.64524e-05)
(-7.29735e-06 1.30025e-07 1.46067e-06 -7.33652e-06 7.23794e-08 2.43178e-05)
(-9.10032e-06 4.27596e-08 3.61928e-07 -8.79332e-06 2.5671e-08 2.96853e-05)
(-6.91937e-06 1.12449e-07 1.49582e-06 -6.97902e-06 -1.82896e-08 2.31472e-05)
(1.08421e-06 4.70341e-08 3.5108e-06 1.27285e-06 9.82495e-08 -3.91377e-06)
(-4.47577e-08 3.91562e-08 3.35972e-06 1.38146e-07 6.71337e-08 -2.68146e-08)
(-4.56257e-08 4.16181e-08 3.37902e-06 1.32487e-07 6.71994e-08 -9.64914e-09)
(-1.73306e-08 8.70255e-08 3.53986e-06 1.12455e-07 4.79403e-08 3.54431e-08)
(1.3334e-06 7.58259e-08 3.61851e-06 1.47565e-06 8.11731e-08 -4.63148e-06)
(-2.75324e-08 7.18881e-08 3.50138e-06 1.11324e-07 5.56072e-08 4.14709e-08)
(-7.77216e-06 3.81472e-08 3.68915e-07 -7.49716e-06 -1.61152e-08 2.53254e-05)
(-5.57541e-06 8.59854e-08 1.44675e-06 -5.61762e-06 -5.50091e-08 1.86288e-05)
(-5.92262e-06 8.90632e-08 1.41511e-06 -5.95579e-06 1.08733e-08 1.97289e-05)
(-9.35449e-06 -1.3337e-08 1.97268e-07 -9.41325e-06 2.25915e-07 3.14567e-05)
(-8.0179e-06 -2.16531e-08 1.75935e-07 -8.05569e-06 1.79576e-07 2.69264e-05)
(-7.50003e-06 -2.81587e-08 1.61765e-06 -7.51648e-06 1.65732e-07 2.50741e-05)
(-9.28455e-06 4.13779e-09 4.77249e-07 -9.13608e-06 2.21752e-07 3.05153e-05)
(-7.15039e-06 -5.12706e-08 1.61324e-06 -7.15175e-06 1.38851e-07 2.3902e-05)
(7.65923e-07 -1.64312e-10 3.69097e-06 5.84719e-07 -1.79567e-07 -2.34988e-06)
(-4.12269e-07 -7.60122e-09 3.54503e-06 -5.68831e-07 -1.28464e-07 1.58698e-06)
(-4.10508e-07 -7.39297e-09 3.57275e-06 -5.82573e-07 -1.2969e-07 1.6155e-06)
(-2.94689e-07 1.89457e-08 3.72801e-06 -6.74556e-07 -1.5695e-07 1.69543e-06)
(1.07738e-06 1.17622e-08 3.79324e-06 7.2557e-07 -2.03688e-07 -3.02085e-06)
(-3.32837e-07 7.99974e-09 3.70638e-06 -6.57066e-07 -1.47924e-07 1.69805e-06)
(-7.95481e-06 3.53477e-09 4.46195e-07 -7.83474e-06 1.74249e-07 2.61444e-05)
(-5.81168e-06 -4.91658e-08 1.51498e-06 -5.78708e-06 9.0887e-08 1.93742e-05)
(-6.15063e-06 -4.16299e-08 1.51703e-06 -6.1335e-06 1.05883e-07 2.04936e-05)
(-5.52336e-06 3.27003e-08 3.65058e-07 -5.30656e-06 -6.32997e-08 1.7945e-05)
(-3.90112e-06 6.47547e-08 1.35514e-06 -3.90988e-06 -8.57631e-08 1.29719e-05)
(-4.21924e-06 6.49663e-08 1.34493e-06 -4.22431e-06 -3.14375e-08 1.39919e-05)
(-4.29454e-08 3.71165e-08 3.33962e-06 1.43619e-07 6.66016e-08 -4.45129e-08)
(9.62421e-07 4.0869e-08 3.44911e-06 1.16192e-06 9.78635e-08 -3.53197e-06)
(-4.04534e-08 3.53841e-08 3.31806e-06 1.48759e-07 6.56394e-08 -6.22428e-08)
(-6.76933e-06 3.56452e-08 3.69414e-07 -6.51941e-06 -3.8502e-08 2.20335e-05)
(-5.48513e-06 8.22842e-08 1.40148e-06 -5.51158e-06 -6.57284e-13 1.82565e-05)
(-5.14426e-06 8.0281e-08 1.42916e-06 -5.17836e-06 -6.306e-08 1.71732e-05)
(-2.30033e-08 2.75849e-08 3.139e-06 1.69028e-07 5.28579e-08 -1.50201e-07)
(7.77563e-07 3.43163e-08 3.29912e-06 9.76008e-07 8.83608e-08 -2.91348e-06)
(-2.54295e-08 2.87975e-08 3.17586e-06 1.67109e-07 5.56638e-08 -1.38899e-07)
(-5.73872e-06 -3.0564e-08 1.44471e-07 -5.74515e-06 1.20495e-07 1.92052e-05)
(-7.00398e-06 -2.65219e-08 1.61583e-07 -7.02675e-06 1.52798e-07 2.349e-05)
(-5.689e-06 4.0856e-09 3.95373e-07 -5.6125e-06 1.1421e-07 1.86875e-05)
(-4.11039e-06 -3.37345e-08 1.37564e-06 -4.06142e-06 4.34216e-08 1.36382e-05)
(-4.43037e-06 -2.94376e-08 1.39451e-06 -4.38338e-06 6.30929e-08 1.46835e-05)
(-4.11357e-07 -7.48768e-09 3.51611e-06 -5.55228e-07 -1.27636e-07 1.55608e-06)
(6.38741e-07 3.98801e-10 3.60846e-06 4.98854e-07 -1.74562e-07 -2.00725e-06)
(-4.08339e-07 -7.20439e-09 3.48567e-06 -5.41687e-07 -1.27143e-07 1.52321e-06)
(-6.9465e-06 3.79518e-09 4.24677e-07 -6.84641e-06 1.47013e-07 2.28272e-05)
(-5.71164e-06 -3.91771e-08 1.48905e-06 -5.68575e-06 9.52146e-08 1.90088e-05)
(-5.37617e-06 -4.54875e-08 1.48432e-06 -5.34467e-06 7.89851e-08 1.7905e-05)
(-3.6614e-07 -4.30324e-09 3.25711e-06 -4.56701e-07 -1.28373e-07 1.29712e-06)
(4.6805e-07 2.71671e-09 3.42274e-06 3.63103e-07 -1.71128e-07 -1.49298e-06)
(-3.74885e-07 -4.74831e-09 3.30148e-06 -4.71631e-07 -1.27863e-07 1.33764e-06)
(-3.81624e-06 5.93697e-08 1.31736e-06 -3.81364e-06 -4.17976e-08 1.26327e-05)
(-4.01942e-06 -2.64479e-08 1.3554e-06 -3.96585e-06 5.17479e-08 1.32952e-05)
(1.78854e-10 3.30995e-11 2.71851e-10 -5.96024e-10 -5.08578e-10 7.48024e-09)
(3.40724e-10 5.36169e-11 2.67433e-10 -1.23471e-09 -1.09748e-09 7.92785e-09)
(1.4066e-09 -9.24848e-10 -7.39664e-10 -5.61127e-09 -4.80451e-09 1.05322e-08)
(7.8815e-10 -9.95564e-10 -7.65979e-10 -2.55862e-09 -1.93354e-09 9.45514e-09)
(8.20027e-10 -4.2591e-10 -2.07994e-10 -2.76276e-09 -2.32669e-09 9.269e-09)
(3.00316e-10 -8.44556e-11 1.80022e-10 -6.45157e-10 -5.11681e-10 8.12314e-09)
(5.0578e-10 -4.80479e-10 -3.18834e-10 -1.23768e-09 -9.26153e-10 8.87811e-09)
(4.80531e-10 -1.93135e-10 5.70845e-11 -1.34012e-09 -1.10233e-09 8.55684e-09)
(2.26209e-09 -2.01831e-09 -1.71407e-09 -1.13428e-08 -9.90187e-09 1.28508e-08)
(7.6143e-10 -6.58198e-09 -4.3845e-09 -1.86044e-08 -1.52397e-08 1.4457e-08)
(2.86373e-09 -4.58836e-09 -3.15541e-09 -2.21093e-08 -2.00753e-08 1.72018e-08)
(2.88042e-10 1.01903e-08 5.57837e-09 -3.31191e-08 -2.82771e-08 3.38932e-08)
(4.71263e-09 -5.58337e-09 1.80422e-09 -8.58418e-08 -9.48016e-08 5.63191e-08)
(7.23773e-09 4.20622e-10 3.07569e-10 -3.99548e-08 -4.18095e-08 3.11108e-08)
(-4.21368e-09 -9.71809e-09 -3.14244e-09 -3.59022e-08 -3.39047e-08 1.52751e-08)
(-1.37575e-08 -2.20443e-08 2.38622e-09 -7.14815e-08 -8.36782e-08 3.74282e-08)
(7.87264e-10 -1.00504e-08 -3.88478e-09 -4.21732e-08 -4.15197e-08 2.4709e-08)
(-1.0333e-05 -1.39895e-07 5.22084e-08 -1.05912e-05 1.11721e-07 3.51009e-05)
(-2.91759e-09 1.6828e-08 2.25493e-08 2.21046e-08 4.55537e-08 3.65173e-09)
(-1.62586e-08 2.76535e-08 7.5942e-08 2.87938e-08 8.52508e-08 4.71926e-08)
(-6.20959e-09 1.00586e-08 2.14196e-08 1.10682e-08 2.99188e-08 1.1171e-08)
(-1.10523e-05 7.58674e-08 4.09935e-06 -1.18052e-05 1.09157e-06 4.03748e-05)
(7.9437e-07 1.14777e-07 1.04723e-06 -1.68315e-08 -2.83872e-08 9.72818e-08)
(-2.38031e-08 4.38367e-08 1.20962e-07 4.7031e-08 1.26456e-07 7.93225e-08)
(-7.30181e-08 7.27799e-08 4.40152e-07 1.08208e-07 2.97365e-07 3.03699e-07)
(-5.64905e-06 -1.11143e-07 1.18125e-07 -5.83463e-06 -6.33567e-08 1.92388e-05)
(-6.62093e-06 -1.21862e-07 1.14073e-07 -6.82913e-06 -4.46348e-08 2.25492e-05)
(1.27311e-10 2.78977e-12 2.50173e-10 -9.98199e-12 -6.30252e-14 7.4002e-09)
(1.43167e-10 -2.50222e-13 -3.82047e-10 -7.03195e-12 -1.41668e-12 8.69401e-09)
(-6.71515e-11 1.00189e-10 8.02653e-10 6.22425e-10 9.37972e-10 4.69882e-09)
(-1.36544e-09 5.27466e-11 1.33906e-09 6.75467e-11 1.23467e-10 2.10846e-10)
(-1.55446e-09 1.86811e-10 1.58512e-09 2.87667e-10 5.71266e-10 1.84287e-10)
(1.87863e-10 3.32478e-11 7.0402e-10 1.8032e-11 2.2529e-11 4.8431e-09)
(-1.32138e-09 2.90859e-11 1.29416e-09 4.14234e-11 7.23777e-11 2.30228e-10)
(-1.2534e-09 1.4189e-11 1.22881e-09 8.44564e-12 1.17308e-11 2.59596e-10)
(9.72575e-11 2.18021e-11 2.65986e-10 -2.83412e-10 -2.26403e-10 7.20224e-09)
(5.68473e-11 1.38142e-11 2.55652e-10 -1.32919e-10 -9.69261e-11 7.02371e-09)
(1.31848e-10 1.70854e-12 2.53568e-10 -2.813e-11 -8.91067e-12 7.45968e-09)
(2.03345e-10 -1.44513e-11 6.59753e-11 -6.20736e-11 -3.17325e-11 7.99171e-09)
(1.41367e-10 -1.54756e-12 2.54712e-10 -6.62078e-11 -3.48868e-11 7.55111e-09)
(2.08548e-10 -3.41819e-11 2.32158e-10 -3.05816e-10 -2.30471e-10 7.84749e-09)
(2.22795e-10 -4.17646e-11 4.94526e-11 -1.34052e-10 -8.66747e-11 8.10292e-09)
(1.62936e-10 -1.16847e-11 2.50733e-10 -1.43634e-10 -9.90542e-11 7.67362e-09)
(-2.75898e-10 -2.94884e-09 -2.24176e-09 -7.33184e-10 -2.41007e-10 9.21922e-09)
(4.78216e-10 -1.42315e-09 -1.16436e-09 -1.76358e-09 -1.20151e-09 9.44292e-09)
(-5.40844e-11 -1.53144e-09 -1.4118e-09 -4.62324e-10 -2.86691e-10 9.23877e-09)
(-1.22901e-10 -8.76825e-11 -7.0684e-10 8.16006e-10 3.92958e-10 6.20802e-09)
(-2.03211e-10 -2.57034e-10 -4.27124e-10 1.19335e-10 4.19802e-11 8.62681e-09)
(-3.9218e-10 -5.58494e-10 -6.28834e-10 3.76169e-10 1.99188e-10 8.61238e-09)
(3.52643e-10 -7.00462e-10 -6.24419e-10 -8.52429e-10 -5.95797e-10 9.08977e-09)
(1.0094e-10 -3.48067e-10 -6.17196e-10 -1.51437e-10 -1.1982e-10 9.04353e-09)
(5.1841e-11 -7.48206e-10 -8.97246e-10 -2.49855e-10 -1.85374e-10 9.16108e-09)
(1.4161e-10 -7.33143e-12 -3.83931e-10 -1.36008e-11 -8.77678e-12 8.72255e-09)
(2.06283e-10 -2.37792e-11 -1.2727e-10 -4.65722e-11 -2.56772e-11 8.41505e-09)
(1.39634e-10 -2.48738e-11 -3.94354e-10 -2.50919e-11 -1.66511e-11 8.76296e-09)
(2.86756e-10 -1.17794e-11 -5.85617e-10 3.46791e-11 7.63064e-12 6.40146e-09)
(-1.14654e-10 -1.12149e-10 -3.2485e-10 2.93181e-11 1.58433e-12 8.58866e-09)
(-7.3949e-11 -4.55499e-11 -2.77593e-10 1.2746e-12 -1.03535e-11 8.54032e-09)
(2.15815e-10 -6.34218e-11 -1.51796e-10 -9.86723e-11 -6.15701e-11 8.50782e-09)
(1.24009e-10 -1.55027e-10 -4.80865e-10 -8.65276e-11 -6.31499e-11 8.92791e-09)
(1.34891e-10 -6.5123e-11 -4.20143e-10 -4.74408e-11 -3.38854e-11 8.82962e-09)
(-6.24813e-06 4.70855e-08 1.94247e-06 -6.07673e-06 -4.50828e-08 2.0564e-05)
(-4.72056e-06 1.64754e-07 2.65771e-06 -4.62499e-06 -7.85116e-09 1.57788e-05)
(-6.45196e-06 8.30767e-08 2.00134e-06 -6.30957e-06 -1.92708e-08 2.12918e-05)
(-1.03197e-05 5.35637e-08 3.43116e-07 -1.00004e-05 1.36667e-07 3.37293e-05)
(-8.14235e-06 4.78759e-07 1.87824e-06 -8.62093e-06 4.21156e-07 2.79244e-05)
(-7.88514e-06 2.15641e-07 1.62724e-06 -7.98974e-06 1.27973e-07 2.64539e-05)
(-4.79511e-06 2.38344e-07 2.78542e-06 -4.84812e-06 -5.8639e-09 1.62973e-05)
(-6.70666e-06 3.10669e-07 2.3861e-06 -6.95055e-06 5.13664e-08 2.28869e-05)
(-6.63654e-06 1.48523e-07 2.11581e-06 -6.5997e-06 4.094e-09 2.20545e-05)
(-8.07852e-10 -5.05094e-09 -3.16642e-09 -2.01846e-09 -5.24789e-10 8.5715e-09)
(-8.99781e-10 -6.62168e-09 -4.1154e-09 -1.2499e-08 -8.16696e-09 1.07482e-08)
(-2.15268e-09 -6.88887e-09 -2.75776e-09 -2.30832e-09 8.38071e-10 7.0688e-09)
(-1.34285e-08 2.52585e-08 1.86442e-08 5.49365e-08 3.12174e-08 -7.6747e-09)
(-1.40235e-08 2.05553e-08 4.71543e-08 7.76495e-08 7.45311e-08 -1.28355e-09)
(-1.0613e-08 -1.69217e-09 1.25371e-08 1.95536e-08 1.62909e-08 -4.84845e-09)
(-6.57403e-09 -5.37401e-09 -1.63043e-10 -2.81919e-08 -2.28764e-08 5.47187e-09)
(-2.34042e-08 2.77941e-08 3.65305e-08 6.25915e-09 6.81708e-09 -9.97553e-09)
(-6.78743e-09 -2.55141e-09 4.33531e-09 -1.36351e-08 -6.07429e-09 -1.372e-09)
(-2.81561e-07 -2.66281e-08 2.40863e-07 -9.92744e-07 2.60157e-07 2.66268e-06)
(-2.94417e-08 -9.38539e-09 1.33555e-08 -1.10534e-07 -1.64328e-07 1.15091e-07)
(-1.38126e-07 -1.59072e-07 -8.70012e-08 -4.1416e-07 -5.72558e-07 6.30204e-08)
(1.47561e-06 5.37944e-07 2.9182e-06 5.50066e-07 -6.99755e-07 -5.81611e-06)
(2.50097e-07 3.38002e-07 3.51319e-06 3.38821e-07 -1.27884e-07 -4.78851e-07)
(3.61056e-07 6.31069e-07 3.18015e-06 -2.11619e-07 -6.46065e-07 -7.10995e-07)
(-2.03645e-07 1.62147e-07 4.84297e-07 -9.28564e-07 -6.24073e-07 4.3097e-06)
(-1.33561e-06 5.9864e-07 1.91109e-06 -2.28778e-06 -1.63965e-06 9.41859e-06)
(-4.32335e-07 3.43019e-07 2.65012e-07 -1.02042e-06 6.29766e-07 2.76927e-06)
(-4.96964e-07 4.36481e-07 1.68068e-06 -1.14082e-06 -8.0111e-07 4.49903e-06)
(-2.59628e-07 2.41831e-07 4.4306e-08 -4.17969e-07 1.32531e-07 1.20759e-06)
(-1.19575e-06 4.91409e-07 3.54275e-06 -1.64198e-06 -1.82632e-07 5.2237e-06)
(-2.13087e-06 9.0363e-07 3.43059e-06 -2.85424e-06 -1.32663e-07 1.07103e-05)
(-8.60812e-07 7.42943e-07 3.27375e-06 -1.46013e-06 -3.89603e-07 4.89228e-06)
(-5.1437e-08 -1.50583e-08 4.58904e-08 -9.81757e-08 -1.72166e-07 4.33667e-08)
(-2.00287e-07 6.06502e-08 2.55801e-07 2.68447e-07 1.64936e-08 -1.09522e-07)
(-1.46481e-07 -2.79693e-08 1.44529e-07 2.58199e-08 -2.4688e-07 -1.13474e-07)
(-1.52728e-06 1.37219e-07 3.37043e-06 -1.41175e-06 1.318e-08 5.06e-06)
(-3.12294e-06 1.66818e-07 3.10645e-06 -3.06032e-06 -7.85938e-09 1.04763e-05)
(-1.54027e-06 1.77822e-07 3.4289e-06 -1.46359e-06 1.40791e-09 5.19854e-06)
(1.53108e-06 1.69451e-07 3.69856e-06 1.76244e-06 3.17843e-09 -5.41001e-06)
(1.3429e-07 2.49388e-07 3.60545e-06 1.99212e-07 -8.32729e-08 -2.38557e-07)
(6.31689e-08 1.90668e-07 3.64327e-06 1.61775e-07 -1.52237e-08 -9.61153e-08)
(-3.13432e-06 2.38563e-07 3.20957e-06 -3.20297e-06 -2.14687e-08 1.07755e-05)
(-1.4119e-06 3.33751e-07 3.52638e-06 -1.57925e-06 -7.79428e-08 5.32688e-06)
(-1.51325e-06 2.42183e-07 3.49224e-06 -1.52007e-06 -2.34313e-08 5.29768e-06)