/*--------------------------------*- C++ -*----------------------------------*\
| =========                 |                                                 |
| \\      /  F ield         | OpenFOAM: The Open Source CFD Toolbox           |
|  \\    /   O peration     | Version:  2012                                  |
|   \\  /    A nd           | Website:  www.openfoam.com                      |
|    \\/     M anipulation  |                                                 |
\*---------------------------------------------------------------------------*/
FoamFile
{
    version     2.0;
    format      ascii;
    class       pointVectorField;
    location    "0.107/solid";
    object      pointD;
}
// * * * * * * * * * * * * * * * * * * * * * * * * * * * * * * * * * * * * * //

dimensions      [0 1 0 0 0 0 0];


internalField   nonuniform List<vector> 
5184
(
(2.22098e-06 -6.76674e-07 2.5832e-06)
(1.44743e-05 -4.13677e-06 6.15194e-06)
(8.58547e-12 1.95672e-11 5.46196e-12)
(-1.35416e-08 4.90462e-09 4.90784e-09)
(7.0137e-06 -1.94783e-06 -9.05105e-07)
(1.95422e-06 -5.21904e-07 -5.01741e-07)
(7.21989e-06 -1.9901e-06 4.64641e-06)
(1.43285e-05 -4.15951e-06 -1.19613e-06)
(1.09713e-11 -3.99688e-14 -1.42971e-12)
(2.24229e-08 1.62451e-08 1.95757e-08)
(-6.85922e-12 -3.72845e-11 -4.2129e-12)
(-9.51785e-11 3.24761e-11 -4.10491e-10)
(1.98831e-06 -6.19035e-07 9.89424e-07)
(4.39338e-06 -1.22573e-06 3.68646e-06)
(7.86035e-07 -3.39136e-07 1.33364e-06)
(1.06099e-05 -2.96369e-06 5.46676e-06)
(1.43502e-05 -4.16839e-06 2.43745e-06)
(-3.30754e-12 2.35305e-13 8.79326e-13)
(1.12955e-11 3.34122e-13 -1.39124e-12)
(-2.06387e-11 1.13982e-09 2.50748e-10)
(5.05147e-07 -1.14521e-07 -2.4804e-07)
(-1.33877e-08 1.00969e-08 -7.9923e-09)
(4.15643e-06 -1.13397e-06 -7.18805e-07)
(7.04317e-06 -1.99149e-06 1.82494e-06)
(1.04343e-05 -2.95904e-06 -1.0637e-06)
(5.33494e-07 -2.35946e-07 4.85156e-07)
(4.18907e-06 -1.2022e-06 1.43583e-06)
(1.046e-05 -2.9831e-06 2.15823e-06)
(-3.39559e-12 -7.48246e-13 3.80557e-13)
(1.17672e-10 6.91149e-10 1.65808e-10)
(-1.57285e-12 -2.25604e-11 -1.35544e-11)
(-1.57599e-11 -4.42794e-11 -5.78196e-11)
(2.08165e-06 -6.54811e-07 1.77675e-06)
(3.21972e-06 -9.24065e-07 3.15295e-06)
(1.40777e-06 -4.83014e-07 1.97707e-06)
(1.24882e-05 -3.52607e-06 5.82592e-06)
(1.44004e-05 -4.15816e-06 4.30216e-06)
(-5.38613e-12 2.68184e-13 9.61553e-13)
(1.08093e-11 -3.26804e-12 4.32222e-12)
(-1.74877e-11 -5.97859e-12 1.07339e-11)
(1.10109e-11 2.73426e-12 -4.15764e-13)
(3.44063e-12 1.47604e-10 3.14132e-11)
(-1.76048e-09 -8.83144e-09 4.87004e-10)
(1.05032e-07 1.43621e-08 -9.86355e-08)
(-1.30548e-08 5.96543e-09 -1.66961e-09)
(5.50895e-06 -1.51588e-06 -8.15553e-07)
(7.01076e-06 -1.97505e-06 4.52893e-07)
(8.65927e-06 -2.42918e-06 -9.87755e-07)
(1.94747e-06 -5.74465e-07 2.36989e-07)
(1.12871e-06 -2.92427e-07 -3.80078e-07)
(2.96761e-06 -8.02536e-07 -6.14414e-07)
(5.73056e-06 -1.5813e-06 4.18413e-06)
(8.85007e-06 -2.45126e-06 5.07378e-06)
(7.11438e-06 -1.99731e-06 3.2359e-06)
(1.43269e-05 -4.16888e-06 6.14193e-07)
(1.23277e-05 -3.5363e-06 -1.13311e-06)
(6.68364e-12 3.48646e-15 -2.13605e-13)
(3.31921e-12 1.00496e-13 2.85598e-12)
(1.11202e-11 1.1666e-14 -1.45879e-12)
(3.30461e-07 -2.23585e-07 6.2713e-07)
(7.26646e-09 4.59623e-09 8.84958e-09)
(-8.99608e-10 1.39106e-08 -6.4531e-10)
(-5.30367e-12 -3.35222e-13 2.54193e-13)
(-4.52927e-12 -6.89888e-12 -9.48577e-13)
(1.15602e-11 -1.31988e-10 -2.45213e-12)
(1.71597e-10 -4.9656e-10 -4.46286e-10)
(1.16169e-06 -4.03708e-07 7.44455e-07)
(3.00131e-06 -8.8485e-07 1.21989e-06)
(4.27124e-06 -1.22077e-06 2.55705e-06)
(6.2952e-07 -2.95645e-07 8.86784e-07)
(1.05205e-05 -2.97951e-06 3.81651e-06)
(1.23514e-05 -3.55226e-06 2.30447e-06)
(-3.18983e-12 2.24419e-13 7.85096e-13)
(7.41098e-12 -9.55546e-14 -1.54666e-14)
(3.2626e-12 1.93343e-13 2.89835e-12)
(4.95652e-11 -1.52428e-11 1.52203e-10)
(-1.78441e-10 8.678e-10 3.46513e-10)
(4.95617e-07 -1.74365e-07 1.14523e-07)
(1.15835e-07 -1.07929e-07 2.13026e-07)
(1.57503e-09 1.61915e-08 -2.75581e-09)
(4.15215e-06 -1.17326e-06 3.5141e-07)
(5.54015e-06 -1.57119e-06 1.63746e-06)
(8.68686e-06 -2.46244e-06 1.99847e-06)
(1.04322e-05 -2.97633e-06 5.40469e-07)
(1.25955e-06 -4.50476e-07 1.34686e-06)
(8.99793e-08 -4.50338e-08 5.54881e-08)
(1.12036e-06 -3.50432e-07 1.76001e-07)
(1.87297e-07 -1.72449e-07 3.98022e-07)
(3.08908e-06 -9.11356e-07 2.17983e-06)
(5.50545e-06 -1.54888e-06 4.03863e-07)
(2.96227e-06 -8.48485e-07 2.95687e-07)
(5.6168e-06 -1.58292e-06 2.90894e-06)
(1.24067e-05 -3.54503e-06 4.07097e-06)
(8.65677e-06 -2.45116e-06 4.98431e-07)
(8.75269e-06 -2.46318e-06 3.5383e-06)
(1.23259e-05 -3.5494e-06 5.79034e-07)
(-4.93909e-12 -4.22296e-12 -2.23933e-12)
(2.2697e-11 -1.08198e-10 -6.89781e-11)
(1.00253e-10 4.034e-10 8.0225e-10)
(1.91512e-11 -1.20161e-11 2.85876e-11)
(8.37149e-12 -6.46027e-13 5.75566e-13)
(7.02462e-12 -6.25259e-15 -1.54528e-13)
(-5.35593e-12 2.96237e-13 8.50215e-13)
(3.47309e-12 2.08599e-13 2.83352e-12)
(3.19681e-13 -6.49089e-13 3.80922e-12)
(-1.08479e-10 -7.61045e-12 5.5643e-11)
(8.8027e-09 2.40058e-08 -6.44247e-11)
(3.51036e-09 2.41388e-09 -2.98996e-09)
(8.36417e-12 -6.489e-11 7.22116e-11)
(2.46296e-11 -2.71574e-10 1.34144e-10)
(2.27376e-12 -2.99321e-14 1.31998e-11)
(9.95017e-11 2.04389e-10 5.26073e-12)
(1.3821e-08 1.29127e-08 -1.43436e-08)
(2.5597e-12 3.54374e-14 5.25673e-11)
(-4.71188e-12 -7.1116e-14 7.23571e-11)
(1.57913e-11 3.52042e-11 8.99925e-12)
(2.82631e-12 -1.2027e-14 1.28444e-11)
(2.85191e-12 -4.24517e-13 5.35878e-11)
(-2.02994e-11 4.15165e-11 6.59404e-11)
(-4.60173e-12 -9.91483e-14 7.23448e-11)
(1.72232e-06 -4.78126e-07 1.82695e-06)
(-9.93802e-12 2.51348e-10 3.32857e-11)
(1.32735e-08 -1.0393e-08 -4.63734e-08)
(1.52842e-06 -4.39783e-07 -2.3457e-07)
(3.48812e-08 -9.64481e-09 5.70162e-08)
(1.69177e-06 -6.50647e-07 2.05271e-06)
(-3.52836e-09 1.31159e-09 2.52173e-09)
(1.47224e-06 -4.29682e-07 -4.8727e-09)
(1.20666e-07 -1.91934e-07 3.35181e-07)
(2.62875e-06 -7.0858e-07 2.30523e-06)
(6.24755e-06 -1.75031e-06 -4.3758e-07)
(2.44873e-06 -6.91242e-07 -2.89768e-07)
(6.38978e-06 -1.71957e-06 3.55007e-06)
(2.60965e-06 -8.70495e-07 2.5879e-06)
(6.21574e-06 -1.74267e-06 3.13447e-09)
(2.39735e-06 -6.81942e-07 -6.43141e-09)
(6.39632e-06 -1.85087e-06 4.00743e-06)
(1.34106e-05 -3.79234e-06 4.79563e-06)
(7.82214e-06 -2.20393e-06 -4.82265e-07)
(7.95264e-06 -2.16199e-06 3.90461e-06)
(1.33133e-05 -3.85586e-06 -6.03319e-07)
(1.34358e-05 -3.88498e-06 5.47293e-06)
(7.79627e-06 -2.1968e-06 9.62922e-09)
(7.96531e-06 -2.28337e-06 4.41898e-06)
(1.33019e-05 -3.85029e-06 3.52006e-08)
(4.73663e-12 -1.46521e-11 5.96366e-11)
(-2.1097e-11 -7.71889e-11 8.4303e-11)
(-2.44581e-12 -1.76189e-11 7.88828e-11)
(-8.78861e-11 -3.17312e-10 8.47533e-11)
(1.14515e-10 -1.10912e-09 5.38767e-10)
(-1.70149e-10 -1.1644e-09 -5.44096e-11)
(6.98279e-10 9.48453e-10 1.19131e-11)
(4.09982e-09 3.09041e-09 2.92394e-11)
(2.20183e-12 -4.67621e-14 7.22342e-11)
(-3.7619e-12 -5.56745e-14 8.55183e-11)
(5.38168e-12 5.10841e-12 1.12327e-11)
(3.57851e-12 5.66033e-13 1.23111e-11)
(3.42904e-12 -2.95882e-12 5.54358e-11)
(2.24757e-12 -5.98837e-13 7.3342e-11)
(1.63447e-12 -3.70394e-12 7.52219e-11)
(-4.2355e-11 -3.02816e-11 8.53417e-11)
(-8.79002e-12 5.47771e-12 7.21551e-11)
(-1.29231e-11 -7.94861e-12 8.91345e-11)
(-3.8937e-12 -4.01469e-13 8.61371e-11)
(-5.21046e-12 4.3358e-13 7.25598e-11)
(-5.35528e-12 -1.91132e-12 8.75018e-11)
(1.60314e-06 -4.76804e-07 1.09717e-06)
(1.00592e-06 -2.98646e-07 1.31255e-06)
(8.77623e-07 -2.85915e-07 7.73672e-07)
(-1.05724e-10 -1.16469e-10 2.74213e-11)
(6.36659e-10 1.30246e-09 -2.69303e-11)
(1.67556e-10 -4.43623e-10 -5.60146e-10)
(-6.22579e-10 -4.7627e-09 3.46642e-09)
(2.7544e-07 -9.19904e-08 -1.0098e-07)
(1.47907e-08 -6.13163e-09 4.67313e-08)
(2.85244e-07 -1.08857e-07 1.49644e-07)
(1.66348e-09 -3.16646e-09 -1.73128e-09)
(1.54082e-06 -4.61057e-07 4.12242e-07)
(8.00795e-07 -2.39487e-07 -1.74238e-07)
(8.12829e-07 -2.63168e-07 2.83068e-07)
(4.66076e-07 -1.56549e-07 7.40267e-07)
(8.62061e-09 5.13541e-09 2.67312e-09)
(3.31167e-08 -1.4518e-08 1.29234e-07)
(3.43199e-07 -1.32791e-07 4.23189e-07)
(4.31707e-09 -1.43186e-09 -5.215e-09)
(1.56201e-06 -5.84551e-07 1.32144e-06)
(9.64042e-07 -4.83064e-07 1.48803e-06)
(8.30217e-07 -4.03331e-07 9.5059e-07)
(2.38332e-07 -7.45394e-08 5.10947e-09)
(-2.3259e-09 -6.52696e-08 9.28097e-08)
(2.44582e-07 -1.7423e-07 2.83265e-07)
(1.4877e-06 -5.12672e-07 6.55211e-07)
(7.44837e-07 -2.27633e-07 -4.21397e-10)
(7.56731e-07 -3.19319e-07 4.71317e-07)
(4.35885e-07 -3.60615e-07 9.05625e-07)
(3.07007e-08 -1.28941e-07 1.86267e-07)
(3.08486e-07 -2.69537e-07 5.68498e-07)
(2.51821e-06 -7.15895e-07 1.39713e-06)
(3.71635e-06 -9.92291e-07 2.75105e-06)
(3.61377e-06 -1.00648e-06 1.67573e-06)
(4.81959e-06 -1.34669e-06 -3.90736e-07)
(6.2557e-06 -1.75198e-06 8.41978e-07)
(4.82878e-06 -1.3527e-06 7.47642e-07)
(2.46014e-06 -7.07476e-07 5.33005e-07)
(3.54957e-06 -9.9357e-07 -3.41581e-07)
(3.55984e-06 -1.0045e-06 6.4473e-07)
(4.97386e-06 -1.32943e-06 3.16574e-06)
(6.30204e-06 -1.74382e-06 2.17322e-06)
(4.87884e-06 -1.34919e-06 1.93419e-06)
(2.48633e-06 -8.16634e-07 1.67419e-06)
(3.70719e-06 -1.14385e-06 3.09212e-06)
(3.59077e-06 -1.10069e-06 2.00726e-06)
(4.78135e-06 -1.33852e-06 -1.94925e-09)
(6.23351e-06 -1.79097e-06 1.31142e-06)
(4.79937e-06 -1.39472e-06 1.16057e-06)
(2.41454e-06 -7.55715e-07 8.32105e-07)
(3.50462e-06 -9.84868e-07 -5.28602e-09)
(3.52253e-06 -1.04959e-06 1.00072e-06)
(4.97318e-06 -1.47079e-06 3.56523e-06)
(6.29392e-06 -1.8254e-06 2.61381e-06)
(4.86376e-06 -1.43703e-06 2.32044e-06)
(1.14742e-05 -3.1997e-06 4.52672e-06)
(1.33501e-05 -3.82626e-06 2.94411e-06)
(1.14072e-05 -3.2323e-06 2.77825e-06)
(7.8293e-06 -2.20184e-06 9.27943e-07)
(9.53209e-06 -2.70678e-06 -5.24823e-07)
(9.5383e-06 -2.70153e-06 1.00577e-06)
(9.65117e-06 -2.65576e-06 4.22995e-06)
(7.87201e-06 -2.18983e-06 2.39328e-06)
(9.57746e-06 -2.68636e-06 2.59481e-06)
(1.33178e-05 -3.84584e-06 1.13811e-06)
(1.13662e-05 -3.25786e-06 -5.65206e-07)
(1.13715e-05 -3.24997e-06 1.07572e-06)
(1.14961e-05 -3.30173e-06 5.15138e-06)
(1.33612e-05 -3.88379e-06 3.59164e-06)
(1.14146e-05 -3.29568e-06 3.37619e-06)
(7.81355e-06 -2.23786e-06 1.45314e-06)
(9.5116e-06 -2.70018e-06 1.72799e-08)
(9.52823e-06 -2.73462e-06 1.58567e-06)
(9.66895e-06 -2.76739e-06 4.80019e-06)
(7.86991e-06 -2.26523e-06 2.88746e-06)
(9.58054e-06 -2.7557e-06 3.14154e-06)
(1.33169e-05 -3.87326e-06 1.823e-06)
(1.13505e-05 -3.25177e-06 2.58703e-08)
(1.13664e-05 -3.2802e-06 1.70896e-06)
(-5.70518e-12 -2.45329e-11 -1.3754e-11)
(-5.84273e-12 -2.39494e-11 -2.35881e-11)
(2.14689e-06 -6.67418e-07 2.1807e-06)
(2.69779e-06 -7.93586e-07 2.87262e-06)
(1.79059e-06 -5.73234e-07 2.28468e-06)
(1.34685e-05 -3.82549e-06 5.99303e-06)
(1.44351e-05 -4.14856e-06 5.23661e-06)
(-8.36477e-12 2.64755e-13 1.73074e-12)
(1.19593e-11 4.41569e-12 1.30581e-12)
(-4.62437e-12 3.45012e-11 1.26162e-11)
(4.36086e-12 1.33558e-10 4.07822e-11)
(1.04777e-11 7.0337e-12 1.2058e-12)
(1.09775e-11 4.55869e-11 1.05385e-11)
(-5.14904e-09 -1.21386e-08 -1.28534e-08)
(-8.19996e-09 5.44722e-09 1.78034e-09)
(1.33925e-08 2.43482e-08 -4.01259e-08)
(-1.35941e-08 2.33003e-09 2.80931e-09)
(7.02654e-06 -1.96508e-06 -1.12662e-06)
(6.99428e-06 -1.93934e-06 -6.79961e-07)
(6.24302e-06 -1.72564e-06 -8.61208e-07)
(7.0082e-06 -1.96295e-06 -2.25769e-07)
(7.8196e-06 -2.18238e-06 -9.47279e-07)
(1.94544e-06 -5.49385e-07 -1.32584e-07)
(1.51714e-06 -4.00747e-07 -4.42091e-07)
(1.97711e-06 -5.44199e-07 -6.25426e-07)
(1.92234e-06 -5.10242e-07 -3.78953e-07)
(2.43824e-06 -6.55852e-07 -5.59161e-07)
(6.45692e-06 -1.7791e-06 4.41966e-06)
(8.01808e-06 -2.21419e-06 4.86442e-06)
(7.16381e-06 -1.99508e-06 3.94693e-06)
(1.43249e-05 -4.16556e-06 -2.90001e-07)
(1.33154e-05 -3.84226e-06 -1.16541e-06)
(1.43329e-05 -4.17237e-06 -1.50838e-06)
(1.43194e-05 -4.15422e-06 -8.76588e-07)
(-1.37464e-11 -7.14615e-14 5.83691e-11)
(1.08967e-11 -4.91623e-14 -1.36724e-12)
(9.85381e-12 -4.45407e-14 -1.48998e-12)
(1.28585e-11 -4.78888e-15 8.93332e-13)
(1.10255e-11 -2.06738e-14 -1.41513e-12)
(1.78334e-07 -1.08483e-07 3.43062e-07)
(8.35463e-09 3.17515e-08 1.90618e-09)
(6.69544e-09 2.58434e-08 1.79785e-08)
(-8.1718e-12 -5.77935e-13 1.04156e-12)
(-1.90082e-12 -3.32065e-11 -1.05828e-11)
(-1.29548e-11 -2.99746e-11 2.46399e-12)
(-6.62794e-11 -1.22502e-10 8.06412e-11)
(-5.91981e-12 -1.75724e-11 -2.73596e-12)
(-6.87226e-12 -9.40144e-11 -1.17713e-11)
(-1.97548e-11 -1.2008e-11 -1.35233e-10)
(5.71571e-11 1.9946e-09 -3.98613e-09)
(3.67119e-10 -1.91798e-09 1.55575e-09)
(1.72451e-10 -5.22352e-10 -7.95296e-10)
(2.02636e-06 -6.37747e-07 1.37559e-06)
(1.96185e-06 -5.97805e-07 6.1035e-07)
(1.55095e-06 -5.05183e-07 8.68766e-07)
(2.00127e-06 -5.84066e-07 8.56349e-07)
(1.95731e-06 -6.63804e-07 1.12188e-06)
(2.47225e-06 -7.45536e-07 1.10648e-06)
(3.78539e-06 -1.06812e-06 3.42422e-06)
(5.04223e-06 -1.39681e-06 3.93975e-06)
(4.32842e-06 -1.22476e-06 3.12521e-06)
(1.07314e-06 -4.05426e-07 1.66031e-06)
(5.42173e-07 -2.81061e-07 9.93225e-07)
(7.01842e-07 -3.20219e-07 1.10534e-06)
(1.15349e-05 -3.23873e-06 5.65053e-06)
(9.71446e-06 -2.70114e-06 5.27453e-06)
(1.05624e-05 -2.97284e-06 4.64943e-06)
(1.43709e-05 -4.16426e-06 3.3594e-06)
(1.43354e-05 -4.16987e-06 1.52284e-06)
(1.3338e-05 -3.85455e-06 2.3726e-06)
(1.43418e-05 -4.1516e-06 2.08503e-06)
(1.43489e-05 -4.19339e-06 2.78857e-06)
(-4.23832e-12 2.66274e-13 4.16284e-13)
(-1.00239e-12 1.78064e-13 1.01313e-12)
(-5.1129e-13 -1.88132e-13 8.06825e-11)
(-3.23959e-12 2.71333e-13 8.45442e-13)
(-3.34371e-12 1.74991e-13 9.07525e-13)
(1.12748e-11 9.67299e-13 -1.11037e-12)
(1.12041e-11 9.30139e-14 -1.42967e-12)
(-1.37826e-11 2.64415e-12 5.74036e-11)
(1.02414e-11 -1.71483e-14 -1.52234e-12)
(1.31282e-11 8.4345e-13 1.04086e-12)
(1.12854e-10 2.72366e-10 -2.50934e-11)
(1.4115e-10 -3.83202e-09 -1.20567e-09)
(1.88767e-09 3.3941e-09 8.75418e-10)
(7.53552e-11 1.29776e-10 2.91622e-11)
(-3.37602e-10 2.36059e-09 8.01151e-10)
(2.74884e-07 -4.66746e-08 -1.75797e-07)
(7.9082e-07 -1.97152e-07 -3.15717e-07)
(5.2553e-07 -1.43724e-07 -3.1718e-07)
(4.95359e-07 -1.44642e-07 -6.64229e-08)
(4.76612e-07 -1.01963e-07 -1.84003e-07)
(-1.32253e-08 7.85365e-09 -5.13077e-09)
(-1.18187e-08 1.25005e-08 -1.06557e-08)
(1.76947e-08 -4.6434e-08 9.57576e-08)
(-7.8224e-09 -7.36739e-09 -4.20614e-09)
(-2.38028e-09 2.10661e-08 9.34999e-09)
(4.81294e-06 -1.31864e-06 -7.68102e-07)
(3.54083e-06 -9.61919e-07 -6.67601e-07)
(4.14959e-06 -1.15508e-06 -1.83679e-07)
(4.17463e-06 -1.15348e-06 -8.92104e-07)
(4.13053e-06 -1.12381e-06 -5.44043e-07)
(7.02251e-06 -1.98463e-06 1.13593e-06)
(7.07238e-06 -1.99544e-06 2.52124e-06)
(6.27338e-06 -1.77497e-06 1.73296e-06)
(7.04239e-06 -1.96612e-06 1.57879e-06)
(7.03028e-06 -2.02616e-06 2.07013e-06)
(7.84814e-06 -2.22069e-06 1.91344e-06)
(9.53133e-06 -2.68811e-06 -1.02656e-06)
(1.13669e-05 -3.24183e-06 -1.09922e-06)
(1.04425e-05 -2.97409e-06 -1.33184e-06)
(1.04298e-05 -2.96914e-06 -2.60955e-07)
(1.04206e-05 -2.95221e-06 -7.89999e-07)
(5.48335e-07 -1.92631e-07 4.04394e-07)
(4.98507e-07 -2.87784e-07 5.67461e-07)
(8.219e-07 -3.14165e-07 6.16806e-07)
(5.71281e-07 -2.65653e-07 6.7904e-07)
(5.08312e-07 -2.05146e-07 2.97569e-07)
(2.97102e-07 -1.67398e-07 3.50301e-07)
(4.19446e-06 -1.17218e-06 1.24618e-06)
(4.16789e-06 -1.24183e-06 1.62472e-06)
(3.57406e-06 -1.03706e-06 1.32966e-06)
(4.2227e-06 -1.21247e-06 1.98812e-06)
(4.16541e-06 -1.18904e-06 8.90686e-07)
(4.8449e-06 -1.38025e-06 1.53842e-06)
(1.04547e-05 -2.96216e-06 1.85739e-06)
(1.04536e-05 -3.01289e-06 2.45792e-06)
(1.04848e-05 -2.98234e-06 2.97749e-06)
(1.13916e-05 -3.2617e-06 2.23303e-06)
(9.55794e-06 -2.71663e-06 2.08006e-06)
(1.04423e-05 -2.98104e-06 1.34634e-06)
(-3.84188e-12 -6.78388e-12 8.42679e-11)
(-4.15954e-12 -6.87366e-13 -2.5758e-13)
(-3.77288e-12 -2.66501e-12 -1.15279e-13)
(-3.22986e-12 -2.17534e-14 6.33229e-13)
(-1.15608e-12 -3.94792e-13 7.73553e-13)
(5.93472e-10 -1.1306e-09 -9.80402e-10)
(2.91033e-11 -3.61636e-10 -9.50851e-11)
(9.03898e-11 1.35903e-10 -1.03639e-10)
(1.26041e-10 9.30125e-10 3.08549e-10)
(-6.13103e-11 -6.14178e-10 -6.69804e-10)
(1.23859e-13 -3.64969e-11 7.52715e-11)
(-9.04423e-11 -6.7363e-10 1.58624e-10)
(3.77371e-12 -1.49719e-12 6.63101e-11)
(-2.29024e-11 1.97693e-12 8.78123e-11)
(-6.60493e-12 -3.54706e-13 8.775e-11)
(1.27048e-06 -3.84031e-07 1.24905e-06)
(9.16083e-12 1.56621e-10 -7.20796e-11)
(9.54986e-08 -3.74026e-08 1.51714e-08)
(-2.03533e-09 -5.29257e-09 -4.88499e-09)
(1.1397e-06 -3.45656e-07 6.81842e-08)
(1.71541e-07 -1.14152e-07 3.51823e-07)
(1.61997e-08 2.12147e-08 -3.22701e-08)
(1.23049e-06 -5.21537e-07 1.44125e-06)
(7.61695e-08 -6.84395e-08 9.60472e-08)
(1.08222e-06 -3.66311e-07 2.79876e-07)
(1.8323e-07 -2.48708e-07 4.85792e-07)
(3.09094e-06 -8.53974e-07 2.02838e-06)
(5.51404e-06 -1.54572e-06 1.85204e-07)
(2.97715e-06 -8.44346e-07 1.32341e-07)
(5.61177e-06 -1.53342e-06 2.70166e-06)
(3.07061e-06 -9.7436e-07 2.32426e-06)
(5.48287e-06 -1.56144e-06 6.18549e-07)
(2.93127e-06 -8.625e-07 4.55105e-07)
(5.60731e-06 -1.6381e-06 3.10592e-06)
(1.23937e-05 -3.51033e-06 3.75736e-06)
(8.66009e-06 -2.44899e-06 2.257e-07)
(8.74282e-06 -2.42124e-06 3.27656e-06)
(1.23252e-05 -3.54809e-06 2.54593e-07)
(1.24092e-05 -3.58507e-06 4.36902e-06)
(8.64148e-06 -2.46233e-06 7.67169e-07)
(8.75008e-06 -2.5107e-06 3.7869e-06)
(1.23166e-05 -3.55917e-06 8.9951e-07)
(-7.67283e-12 -5.13083e-12 -1.45731e-12)
(-1.68212e-11 -1.58071e-10 9.25049e-11)
(-4.14619e-12 -1.00982e-11 -5.87713e-12)
(4.55167e-12 -4.85972e-11 -2.99372e-11)
(1.01866e-10 -5.22982e-10 2.30107e-10)
(8.06844e-12 -1.01634e-10 -8.89162e-11)
(1.64686e-06 -5.4621e-07 1.56526e-06)
(2.08784e-06 -5.93253e-07 1.65295e-06)
(2.05785e-06 -7.21778e-07 1.89528e-06)
(2.56283e-06 -7.7649e-07 1.98157e-06)
(3.15024e-06 -9.19297e-07 2.66855e-06)
(1.32896e-06 -4.6861e-07 1.66088e-06)
(1.2445e-05 -3.53672e-06 4.95716e-06)
(1.33908e-05 -3.84575e-06 4.18944e-06)
(1.43864e-05 -4.12694e-06 3.96396e-06)
(1.44049e-05 -4.19455e-06 4.62373e-06)
(-8.29938e-12 2.54347e-13 1.60158e-12)
(3.61873e-12 -1.33765e-13 6.47582e-11)
(-5.37787e-12 3.22674e-13 9.08403e-13)
(-5.40781e-12 1.90525e-13 9.76812e-13)
(1.39832e-11 -6.5449e-12 1.1322e-11)
(9.35797e-12 -1.50327e-12 1.59721e-12)
(-6.03947e-11 2.81265e-11 6.95176e-11)
(-4.85741e-12 -3.83895e-12 5.04123e-12)
(-4.46503e-11 -4.04995e-11 1.30068e-11)
(-1.38245e-11 2.0916e-11 5.44494e-11)
(1.0739e-11 5.35587e-13 -1.18235e-12)
(1.09423e-11 5.20471e-12 2.60235e-12)
(2.32195e-10 7.43178e-10 7.87971e-12)
(1.86629e-11 2.72779e-11 1.27971e-11)
(-9.58432e-11 2.65721e-10 7.25715e-11)
(7.15735e-09 -2.94969e-08 7.91389e-08)
(6.82992e-09 -1.07003e-08 -8.96396e-09)
(1.02964e-07 1.87025e-08 -1.54727e-07)
(9.0817e-08 -1.54647e-08 -1.56998e-08)
(9.26282e-08 1.50174e-08 -8.57909e-08)
(4.07878e-09 -1.1292e-08 2.67216e-08)
(-8.10935e-09 -1.17727e-09 -1.2353e-09)
(-1.41556e-09 5.16576e-09 -2.86355e-09)
(5.50285e-06 -1.53388e-06 -2.05671e-07)
(5.52442e-06 -1.53424e-06 -1.01312e-06)
(5.48636e-06 -1.50655e-06 -6.15411e-07)
(6.23982e-06 -1.75568e-06 4.28812e-07)
(7.01657e-06 -1.97239e-06 2.06974e-07)
(6.992e-06 -1.98691e-06 6.94823e-07)
(7.81689e-06 -2.20691e-06 4.761e-07)
(8.66968e-06 -2.44532e-06 -1.23283e-06)
(8.6543e-06 -2.44166e-06 -2.4416e-07)
(8.6428e-06 -2.42152e-06 -7.38056e-07)
(1.50957e-06 -4.56289e-07 2.06706e-07)
(1.96529e-06 -5.69913e-07 1.01399e-07)
(1.91233e-06 -5.89299e-07 3.68656e-07)
(2.43223e-06 -7.05159e-07 2.66682e-07)
(1.15217e-06 -3.16965e-07 -4.77653e-07)
(1.11899e-06 -3.22286e-07 -1.0225e-07)
(1.0958e-06 -2.80132e-07 -2.84535e-07)
(2.95988e-06 -8.2689e-07 -1.59478e-07)
(2.98845e-06 -8.23309e-07 -7.63135e-07)
(2.93846e-06 -7.91593e-07 -4.65397e-07)
(5.67007e-06 -1.58355e-06 3.55119e-06)
(8.79832e-06 -2.45852e-06 4.31286e-06)
(6.3473e-06 -1.78363e-06 3.07551e-06)
(7.1067e-06 -1.95163e-06 3.00114e-06)
(7.10857e-06 -2.04864e-06 3.45889e-06)
(7.91665e-06 -2.22387e-06 3.39014e-06)
(1.33137e-05 -3.85344e-06 5.97035e-07)
(1.43247e-05 -4.16795e-06 2.65172e-07)
(1.43201e-05 -4.17794e-06 9.59282e-07)
(1.23339e-05 -3.55025e-06 -1.42369e-06)
(1.23237e-05 -3.54426e-06 -2.7622e-07)
(1.23165e-05 -3.53026e-06 -8.36078e-07)
(6.78286e-12 2.05536e-15 -2.96094e-13)
(6.98901e-12 4.26287e-15 -2.44258e-13)
(-6.14768e-12 -1.15645e-13 8.7208e-11)
(3.40389e-12 1.43671e-13 2.8284e-12)
(3.22529e-12 7.47871e-14 2.8558e-12)
(-1.35192e-11 1.54843e-13 5.81527e-11)
(1.00488e-11 -5.56506e-14 -1.53817e-12)
(1.30803e-11 1.52613e-13 8.62075e-13)
(2.47377e-07 -2.05743e-07 5.00767e-07)
(1.97826e-08 2.02736e-08 1.65865e-08)
(1.6859e-09 1.81178e-09 -2.78983e-10)
(2.12989e-08 1.44731e-08 2.04694e-08)
(6.08192e-08 -8.08109e-08 1.80057e-07)
(-1.20871e-09 -1.82673e-08 -1.46723e-09)
(1.4479e-08 3.80466e-08 1.96888e-08)
(3.42099e-12 -7.9271e-12 6.90596e-11)
(-5.22865e-12 -1.53216e-12 -5.57345e-13)
(-5.33678e-12 1.31045e-13 6.37392e-13)
(-1.75057e-11 -2.98736e-11 8.68578e-11)
(-4.14565e-12 -6.36802e-12 -2.40961e-12)
(-3.46277e-12 -4.86093e-12 5.21243e-13)
(-1.45992e-10 -4.44532e-10 -2.83796e-11)
(2.62188e-11 -1.24484e-10 -3.83017e-11)
(-2.97525e-11 -1.20107e-10 2.42328e-11)
(-2.31303e-10 -2.77714e-09 3.39434e-10)
(6.58101e-11 -1.73151e-10 -1.53522e-10)
(1.11218e-09 5.2644e-10 -4.35129e-10)
(1.17775e-06 -3.6567e-07 6.3822e-07)
(1.2012e-06 -4.27702e-07 1.03842e-06)
(1.13461e-06 -3.77749e-07 4.57521e-07)
(1.12633e-06 -4.514e-07 8.49897e-07)
(3.0104e-06 -8.5242e-07 1.05871e-06)
(3.03719e-06 -8.99031e-07 1.69198e-06)
(2.97618e-06 -8.67899e-07 7.54885e-07)
(2.97533e-06 -9.27014e-07 1.38041e-06)
(4.26937e-06 -1.16738e-06 2.37762e-06)
(3.65902e-06 -1.05945e-06 2.37164e-06)
(4.9243e-06 -1.39528e-06 2.73613e-06)
(4.25755e-06 -1.27984e-06 2.72777e-06)
(6.43057e-07 -2.20151e-07 8.10735e-07)
(9.20576e-07 -3.67181e-07 1.12119e-06)
(3.87178e-07 -2.33446e-07 6.43284e-07)
(5.99883e-07 -3.71487e-07 9.65686e-07)
(1.05089e-05 -2.94123e-06 3.52844e-06)
(1.14495e-05 -3.25621e-06 3.94668e-06)
(9.6211e-06 -2.71511e-06 3.6804e-06)
(1.05207e-05 -3.02326e-06 4.09019e-06)
(1.23444e-05 -3.53344e-06 1.97736e-06)
(1.23741e-05 -3.54965e-06 3.17755e-06)
(1.23352e-05 -3.55211e-06 1.43875e-06)
(1.23478e-05 -3.57964e-06 2.63034e-06)
(-8.80459e-13 -1.36941e-12 8.20154e-11)
(-4.15517e-12 2.49699e-13 3.11462e-13)
(-8.7438e-13 2.22816e-13 9.06928e-13)
(7.92707e-12 -2.58525e-13 1.15364e-13)
(7.32676e-12 -3.34875e-14 -1.5552e-13)
(-9.61478e-12 -6.88335e-13 8.87596e-11)
(3.47658e-12 2.46204e-13 2.81431e-12)
(2.47726e-12 -1.33354e-13 3.06457e-12)
(9.88999e-11 9.88591e-11 4.13166e-10)
(3.15811e-11 -1.55782e-11 6.93061e-11)
(2.2376e-09 6.3184e-10 -1.10554e-09)
(-2.2229e-10 -3.5912e-10 -6.23178e-11)
(-2.13438e-09 -3.0367e-09 -1.17507e-09)
(5.12154e-07 -1.69674e-07 3.57337e-08)
(2.63293e-07 -1.04337e-07 8.45863e-08)
(7.81511e-07 -2.56667e-07 1.45159e-07)
(4.59472e-07 -1.92374e-07 1.89487e-07)
(1.21899e-07 -8.63509e-08 1.77838e-07)
(9.88176e-08 -7.56709e-08 1.32361e-07)
(1.43277e-07 -1.41821e-07 2.95057e-07)
(1.02451e-07 -1.62518e-07 2.82191e-07)
(5.46843e-09 1.48796e-08 -1.48045e-08)
(4.19811e-09 2.42349e-08 -1.37234e-09)
(4.3762e-10 8.28469e-09 -3.38707e-09)
(4.16382e-06 -1.1696e-06 1.60322e-07)
(4.80908e-06 -1.35472e-06 3.78057e-07)
(3.53606e-06 -1.00451e-06 3.23944e-07)
(4.12545e-06 -1.18653e-06 5.38547e-07)
(5.54223e-06 -1.54352e-06 1.41941e-06)
(5.51798e-06 -1.56138e-06 1.01769e-06)
(5.57155e-06 -1.57808e-06 2.26443e-06)
(5.52333e-06 -1.60833e-06 1.85464e-06)
(8.68362e-06 -2.43932e-06 1.72467e-06)
(8.66771e-06 -2.45815e-06 1.24544e-06)
(8.71388e-06 -2.46385e-06 2.75883e-06)
(8.67746e-06 -2.49466e-06 2.27121e-06)
(1.04334e-05 -2.97461e-06 2.41512e-07)
(9.52901e-06 -2.70768e-06 5.19887e-07)
(1.1365e-05 -3.25696e-06 5.60182e-07)
(1.042e-05 -2.9868e-06 8.35438e-07)
(6.06652e-11 -2.53589e-10 1.25176e-10)
(1.31533e-11 -1.33674e-10 9.02848e-11)
(6.06255e-12 -3.11267e-11 6.40299e-11)
(-5.24506e-12 -7.62947e-11 8.13035e-11)
(-4.12012e-11 -3.26122e-10 1.14763e-10)
(5.0721e-11 -5.53169e-10 2.4017e-10)
(-1.39581e-11 -6.07662e-14 5.88533e-11)
(2.42841e-12 -3.68202e-14 1.28379e-11)
(3.73125e-11 8.64535e-11 7.13072e-12)
(6.33842e-11 3.1914e-10 2.32965e-11)
(2.623e-10 4.54541e-10 6.21981e-12)
(6.46242e-08 -5.18118e-08 -8.77441e-08)
(8.97249e-09 2.93128e-09 -2.32508e-09)
(1.65696e-08 7.47503e-10 -9.04737e-08)
(1.54058e-06 -4.2402e-07 -5.52912e-07)
(7.83119e-06 -2.19907e-06 -1.18063e-06)
(1.33206e-05 -3.85567e-06 -1.46693e-06)
(2.72675e-12 -7.72551e-14 5.31546e-11)
(3.51801e-12 -8.59656e-15 6.42941e-11)
(-4.60582e-12 -9.77505e-14 7.24158e-11)
(-6.17223e-12 -5.74047e-14 8.69846e-11)
(-1.04913e-11 5.37956e-11 5.00128e-11)
(8.16762e-12 1.37294e-11 1.01411e-11)
(-1.36658e-11 -4.31399e-14 5.8492e-11)
(3.18428e-12 1.28367e-13 1.23914e-11)
(3.13259e-12 -1.22056e-12 5.45086e-11)
(3.69777e-12 -5.40626e-13 6.5421e-11)
(-2.67883e-11 1.05928e-10 5.68721e-11)
(-3.83719e-11 8.82461e-12 8.2634e-11)
(-1.33299e-11 1.57277e-11 7.05439e-11)
(-6.24684e-12 -2.13751e-13 8.73604e-11)
(-4.71593e-12 1.77912e-14 7.2447e-11)
(1.71417e-06 -5.61466e-07 1.92487e-06)
(2.15222e-06 -5.86751e-07 2.07028e-06)
(1.65541e-06 -4.82373e-07 1.45479e-06)
(1.3401e-06 -3.82374e-07 1.57473e-06)
(-7.09808e-11 6.34801e-11 2.63494e-11)
(9.72788e-11 6.12235e-10 1.97241e-11)
(4.55703e-09 4.40847e-09 -2.46509e-09)
(-3.91185e-09 -2.32437e-08 6.87228e-09)
(9.43878e-08 -6.17922e-09 -6.67863e-08)
(1.05473e-08 -3.62724e-09 6.04331e-09)
(1.50783e-06 -4.29573e-07 -1.17925e-07)
(1.96528e-06 -5.5915e-07 -2.62662e-07)
(1.52846e-06 -4.51585e-07 8.49806e-08)
(1.13974e-06 -3.33148e-07 -2.05228e-07)
(9.93388e-08 -9.1377e-08 2.31434e-07)
(2.15773e-07 -1.18216e-07 3.90498e-07)
(3.74919e-08 2.16688e-08 1.9217e-08)
(3.94092e-08 -1.72208e-08 1.48289e-07)
(2.12757e-06 -7.53921e-07 2.32414e-06)
(1.62031e-06 -6.15195e-07 1.67132e-06)
(1.30353e-06 -5.60477e-07 1.77382e-06)
(4.52069e-09 2.84899e-08 -4.14585e-08)
(7.98266e-08 -2.26709e-08 4.6731e-09)
(-6.18282e-09 -3.1603e-08 4.73142e-08)
(1.91116e-06 -5.49496e-07 -6.01788e-09)
(1.48441e-06 -3.88744e-07 -3.32713e-07)
(1.47268e-06 -4.71595e-07 3.24505e-07)
(1.08266e-06 -3.22445e-07 -2.97317e-09)
(2.5021e-07 -2.97103e-07 6.21512e-07)
(6.4947e-08 -1.58804e-07 2.45672e-07)
(2.62601e-06 -7.86666e-07 2.42856e-06)
(2.56678e-06 -7.17055e-07 1.84404e-06)
(3.15059e-06 -8.43745e-07 2.53209e-06)
(6.23723e-06 -1.74216e-06 -2.15943e-07)
(6.25715e-06 -1.74344e-06 -1.07079e-06)
(7.01722e-06 -1.97091e-06 -4.60188e-07)
(5.51453e-06 -1.54221e-06 -4.14433e-07)
(6.24698e-06 -1.75278e-06 1.96476e-07)
(2.43e-06 -6.81811e-07 -1.46408e-07)
(2.46022e-06 -6.77339e-07 -6.95442e-07)
(2.44867e-06 -7.008e-07 1.1722e-07)
(2.9773e-06 -8.36049e-07 -3.16039e-07)
(6.39864e-06 -1.78277e-06 3.75281e-06)
(7.15355e-06 -1.93429e-06 3.73103e-06)
(5.66274e-06 -1.51791e-06 3.36166e-06)
(6.34089e-06 -1.73605e-06 2.85444e-06)
(2.54175e-06 -8.41471e-07 2.11295e-06)
(3.13665e-06 -1.00046e-06 2.84391e-06)
(6.22204e-06 -1.71672e-06 -6.48514e-07)
(6.98844e-06 -1.96353e-06 6.22265e-09)
(5.47956e-06 -1.53431e-06 3.97412e-10)
(6.21919e-06 -1.76789e-06 6.57166e-07)
(2.40761e-06 -6.44538e-07 -4.23179e-07)
(2.3991e-06 -7.19569e-07 4.12221e-07)
(2.92904e-06 -8.27061e-07 -6.16474e-09)
(7.16328e-06 -2.06062e-06 4.21702e-06)
(5.66581e-06 -1.65423e-06 3.79018e-06)
(6.33971e-06 -1.83688e-06 3.28554e-06)
(1.34272e-05 -3.83675e-06 5.10037e-06)
(1.44179e-05 -4.10639e-06 4.91987e-06)
(1.24289e-05 -3.49004e-06 4.66461e-06)
(1.33772e-05 -3.8128e-06 3.86341e-06)
(7.81437e-06 -2.19614e-06 -2.3517e-07)
(7.82141e-06 -2.2045e-06 2.16711e-07)
(8.6609e-06 -2.44926e-06 -5.03811e-07)
(7.96417e-06 -2.22037e-06 4.13359e-06)
(8.78565e-06 -2.40252e-06 4.07089e-06)
(7.90782e-06 -2.18007e-06 3.14182e-06)
(1.33115e-05 -3.84924e-06 -2.83293e-07)
(1.43258e-05 -4.17197e-06 -6.21486e-07)
(1.33122e-05 -3.85232e-06 2.6018e-07)
(1.23263e-05 -3.55109e-06 -5.84553e-07)
(1.44445e-05 -4.19441e-06 5.62274e-06)
(1.24526e-05 -3.58735e-06 5.31583e-06)
(1.33943e-05 -3.88396e-06 4.49937e-06)
(7.80168e-06 -2.1743e-06 -7.09796e-07)
(7.7999e-06 -2.21842e-06 7.31497e-07)
(8.63779e-06 -2.44239e-06 1.33241e-08)
(8.801e-06 -2.51901e-06 4.61336e-06)
(7.9125e-06 -2.27329e-06 3.626e-06)
(1.43164e-05 -4.16665e-06 4.00788e-08)
(1.33052e-05 -3.8366e-06 -8.5701e-07)
(1.33056e-05 -3.86285e-06 9.2994e-07)
(1.23128e-05 -3.54526e-06 3.04553e-08)
(2.03542e-10 -1.03086e-09 5.30974e-10)
(2.46529e-12 -1.7203e-11 7.15739e-11)
(3.9829e-12 -6.70883e-12 5.72012e-11)
(-8.55945e-12 -3.71464e-11 8.14354e-11)
(-4.51651e-11 -1.57443e-10 8.73034e-11)
(-3.5293e-11 -6.13326e-11 8.6266e-11)
(3.94473e-13 -8.176e-12 7.67903e-11)
(-8.30649e-12 -1.43956e-11 8.572e-11)
(-1.47276e-10 -6.13776e-10 6.53888e-11)
(-1.11761e-10 -2.43139e-10 5.30085e-11)
(-1.71173e-10 -1.37299e-09 2.50801e-10)
(5.50998e-11 -2.49966e-09 1.24377e-09)
(-5.7047e-11 -8.3471e-10 -3.54431e-10)
(1.32616e-10 -1.94483e-09 -3.4173e-10)
(1.56448e-09 1.73003e-09 1.06275e-10)
(8.17809e-10 1.61007e-09 3.21785e-11)
(6.49956e-09 6.56945e-09 4.08455e-09)
(1.04475e-09 -3.22716e-09 7.81113e-09)
(2.88499e-07 -8.07539e-08 -2.28607e-07)
(8.13545e-07 -2.23656e-07 -3.99385e-07)
(9.54059e-06 -2.70371e-06 -1.28324e-06)
(1.13741e-05 -3.25633e-06 -1.37866e-06)
(-5.01482e-13 -6.54186e-14 8.03315e-11)
(2.24407e-12 -1.78336e-13 7.26639e-11)
(-3.7724e-12 -1.60636e-13 8.58914e-11)
(4.11452e-12 1.78041e-12 1.16922e-11)
(-1.40954e-11 7.72153e-12 5.67258e-11)
(-1.36382e-11 8.04392e-13 5.8095e-11)
(3.7201e-12 -3.54777e-12 6.73628e-11)
(2.12358e-12 -1.5917e-12 7.42232e-11)
(-5.78105e-13 -5.43937e-13 8.12762e-11)
(-1.76985e-12 -3.12015e-12 8.29781e-11)
(-2.32915e-11 -1.54597e-11 8.88748e-11)
(-7.26521e-11 -5.76058e-11 7.30792e-11)
(-1.40874e-11 -3.10428e-13 8.87827e-11)
(-6.34953e-12 1.72403e-12 7.27003e-11)
(-7.76983e-12 -3.9682e-12 8.85841e-11)
(-4.30481e-12 -8.90356e-13 8.66363e-11)
(-7.5147e-12 -5.48397e-13 8.81704e-11)
(1.21629e-06 -3.75825e-07 9.38499e-07)
(1.56569e-06 -4.68795e-07 7.49315e-07)
(1.58993e-06 -5.26438e-07 1.20968e-06)
(2.03746e-06 -5.90019e-07 1.24993e-06)
(9.33549e-07 -2.97136e-07 1.03487e-06)
(7.17538e-07 -2.2493e-07 1.03772e-06)
(9.91811e-07 -3.88448e-07 1.38822e-06)
(8.38411e-07 -2.73799e-07 5.23197e-07)
(5.86739e-07 -2.06293e-07 6.01974e-07)
(8.61414e-07 -3.41004e-07 8.62014e-07)
(-8.70058e-11 -2.04662e-10 -9.53742e-11)
(4.87267e-10 1.90431e-10 -4.4798e-10)