/*--------------------------------*- C++ -*----------------------------------*\
| =========                 |                                                 |
| \\      /  F ield         | OpenFOAM: The Open Source CFD Toolbox           |
|  \\    /   O peration     | Version:  2012                                  |
|   \\  /    A nd           | Website:  www.openfoam.com                      |
|    \\/     M anipulation  |                                                 |
\*---------------------------------------------------------------------------*/
FoamFile
{
    version     2.0;
    format      ascii;
    class       volVectorField;
    location    "0.107/solid";
    object      sigmaMaxDir;
}
// * * * * * * * * * * * * * * * * * * * * * * * * * * * * * * * * * * * * * //

dimensions      [1 -1 -2 0 0 0 0];


internalField   nonuniform List<vector> 
3125
(
(0.177941 0.983823 -0.0207442)
(0.401624 0.915803 -0.00186043)
(-0.210203 -0.649125 0.731062)
(-0.49993 0.863792 0.0627239)
(0.426671 0.904406 0.000654968)
(0.415871 0.909423 -0.000511121)
(-0.0145352 0.999894 -2.18878e-05)
(-0.426026 -0.607469 0.670435)
(-0.249193 0.967854 0.0340894)
(0.98691 -0.0835863 0.137919)
(-0.00462162 0.999989 -2.38351e-05)
(0.990356 -0.138301 -0.00821525)
(0.983464 -0.147806 0.104651)
(-0.0840498 -0.166697 0.982419)
(-0.413617 -0.000801016 0.91045)
(-0.521328 0.850517 0.0695616)
(0.120858 0.992649 -0.00648991)
(0.797469 -0.588423 -0.133423)
(0.999767 -0.0182875 -0.0114992)
(0.0707207 -0.229509 0.970734)
(-0.49066 0.0347375 0.870659)
(-0.662571 0.738581 0.124486)
(0.401821 0.915717 -0.00174115)
(0.415241 0.909711 -0.000559252)
(0.990604 -0.136499 -0.0084597)
(-0.464348 -0.00973094 0.885599)
(-0.420151 -0.00336603 0.907448)
(0.990753 -0.135163 -0.0118266)
(0.148857 0.988838 -0.00646669)
(0.483895 0.875099 -0.0069201)
(0.999822 -0.0148698 -0.0116096)
(-0.559143 0.0279011 0.828601)
(-0.501695 0.0318758 0.864457)
(0.999833 -0.0123635 -0.0134876)
(0.988584 -0.149714 -0.0169361)
(-0.470404 -0.00997466 0.882395)
(0.990676 -0.135706 -0.0120776)
(-0.511602 -0.00996304 0.859165)
(0.699871 0.714229 -0.00755523)
(0.501537 0.865108 -0.00696747)
(0.999426 -0.0293879 -0.0168432)
(-0.565727 0.0281534 0.824112)
(0.999822 -0.0130277 -0.0136516)
(-0.606697 0.0318155 0.794296)
(0.427107 0.904201 0.000744104)
(0.988411 -0.150808 -0.0173457)
(0.705975 0.708196 -0.00759801)
(0.999404 -0.0299646 -0.0171154)
(0.280263 0.930209 0.236989)
(0.218559 0.97461 0.0486622)
(0.274481 0.910453 0.30941)
(-0.215773 0.905971 0.364223)
(0.011207 0.85334 0.521235)
(0.276331 0.961051 -0.00466505)
(-0.428985 -0.466103 0.77377)
(0.463539 0.886069 -0.0036621)
(-0.586226 -0.340677 0.735036)
(0.421506 0.906825 4.62286e-05)
(0.421034 0.907045 -2.29495e-05)
(-0.0021318 0.999998 0.00013709)
(0.00508807 0.999987 0.000152329)
(0.970042 -0.198136 -0.140573)
(0.901232 0.407915 -0.146241)
(0.0138977 0.999903 0.000945696)
(0.172137 0.98481 0.0227371)
(0.457435 0.868555 0.190695)
(0.981168 0.16746 0.0962648)
(0.377508 0.92501 0.0429358)
(0.0314721 0.999503 0.0015415)
(0.289914 0.95679 0.0224169)
(0.298579 0.954135 0.0218162)
(0.963699 -0.236816 -0.123295)
(0.963473 -0.267731 -0.00626658)
(0.7243 -0.682594 -0.097238)
(0.426361 0.86672 0.258869)
(-0.292826 -0.405393 0.865973)
(0.596168 -0.57413 -0.561211)
(-0.499295 0.816751 0.289176)
(-0.361991 0.0124982 0.932098)
(-0.227401 0.964613 0.133456)
(-0.680505 0.714189 0.163848)
(-0.36097 0.704006 0.611617)
(0.965569 -0.152252 -0.210939)
(-0.383978 0.0156215 0.92321)
(0.850702 -0.489941 -0.190433)
(0.889768 -0.456372 -0.00614195)
(0.791388 -0.457571 -0.405381)
(-0.247982 0.958955 0.137516)
(-0.53007 0.84411 0.0806442)
(-0.476208 0.629158 0.614318)
(-0.0913654 0.995782 -0.00837626)
(-0.449422 0.893288 -0.00744458)
(0.991876 -0.0125536 -0.126584)
(0.979048 -0.203404 -0.00961984)
(-0.405545 0.913101 0.0421883)
(-0.408952 0.0959083 0.907502)
(-0.178914 0.970896 0.15922)
(-0.389898 0.918564 0.0649674)
(0.974958 -0.0972402 -0.200005)
(-0.441535 0.0622766 0.89508)
(-0.502443 0.85931 0.0955921)
(0.927161 -0.37459 -0.00738599)
(-0.220659 0.961297 0.164981)
(-0.358518 0.933099 0.0281364)
(0.409285 0.912406 -0.00106469)
(0.40984 0.912157 -0.00100593)
(0.973378 -0.191204 -0.1264)
(0.991176 -0.13217 -0.0100136)
(0.981574 -0.133065 -0.137136)
(-0.445676 -0.00837964 0.895155)
(0.965208 -0.0544327 -0.255754)
(0.969512 -0.0682064 -0.235358)
(0.969418 -0.119057 -0.214604)
(-0.439311 -0.00761941 0.898303)
(0.97041 -0.0754123 -0.229385)
(0.991164 -0.132247 -0.010225)
(0.982534 -0.102388 -0.155381)
(0.982296 -0.123022 -0.141281)
(0.316286 0.948641 -0.00656692)
(0.336907 0.941515 -0.00659932)
(0.986303 0.104274 -0.127805)
(0.999891 -0.00800002 -0.012379)
(0.9781 0.159736 -0.133435)
(-0.537509 0.0278821 0.842797)
(0.972832 0.0306485 -0.229475)
(0.975877 0.0317498 -0.216)
(0.978763 -0.0276161 -0.203125)
(-0.529473 0.0282528 0.847856)
(0.976814 0.0283423 -0.212204)
(0.99989 -0.00802642 -0.012499)
(0.97958 0.138037 -0.146182)
(0.97813 0.157204 -0.136196)
(0.989719 -0.142301 -0.0143874)
(0.975781 -0.0747078 -0.205599)
(0.97936 -0.0824973 -0.184522)
(0.963352 -0.0513367 -0.263281)
(-0.488203 -0.0102821 0.87267)
(0.956668 -0.0445482 -0.287752)
(0.989864 -0.14132 -0.0140713)
(0.982199 -0.0973647 -0.160639)
(0.980278 -0.0856177 -0.178116)
(0.945172 -0.0389191 -0.324246)
(-0.494061 -0.0102707 0.869367)
(0.954075 -0.0428731 -0.296484)
(0.6262 0.779629 -0.00730414)
(0.613845 0.789394 -0.00726189)
(0.999642 -0.0220443 -0.015169)
(0.97986 0.0805274 -0.182727)
(0.980748 0.100588 -0.167376)
(0.971677 0.0286687 -0.234566)
(-0.584206 0.0293781 0.811073)
(0.967653 0.0213901 -0.251377)
(0.999667 -0.0210107 -0.0149596)
(0.980048 0.130421 -0.14999)
(0.980774 0.107738 -0.16271)
(0.960774 0.0111661 -0.277108)
(-0.59003 0.02992 0.806827)
(0.966108 0.0187175 -0.25746)
(-0.0231454 0.959799 0.279731)
(-0.0358228 0.980037 0.19556)
(-0.0145389 0.937416 0.347908)
(-0.201633 0.92326 0.327009)
(-0.00728778 0.918091 0.396302)
(0.878447 -0.000295682 -0.47784)
(0.392348 0.919814 -0.0025194)
(0.690161 0.301642 -0.657792)
(-0.266772 -0.552297 0.789811)
(-0.588931 -0.407392 0.697991)
(-0.408997 0.911944 -0.032861)
(0.754383 -0.0101143 -0.656356)
(0.798073 0.204886 -0.566657)
(0.4242 0.905568 0.000368508)
(0.41823 0.908341 -0.000303652)
(-0.1841 0.982889 0.00604515)
(0.998115 -0.0535074 0.0300575)
(0.753439 0.227953 -0.61674)
(0.985157 -0.00617768 -0.171543)
(0.845586 0.0738167 -0.528712)
(0.877806 -0.00473042 -0.478994)
(0.223399 0.974238 -0.0308778)
(0.874044 -0.00134547 -0.485846)
(-0.132579 0.991154 0.00605379)
(-0.121123 0.992596 0.00902962)
(0.921587 0.383063 0.0627756)
(0.992475 -0.0243636 0.119997)
(0.90399 0.422686 0.0643329)
(0.996985 0.0716234 0.0298549)
(0.00565825 0.999983 0.0013339)
(0.96788 0.249676 0.0295072)
(0.722625 -0.690423 -0.0336175)
(0.989049 -0.147405 -0.00738535)
(0.711853 -0.701741 -0.0287169)
(0.930237 0.366958 -0.00107759)
(-0.660417 -0.229288 0.715036)
(0.817051 0.411962 -0.403379)
(0.808931 -0.53705 -0.239181)
(-0.167883 -0.34887 0.922011)
(-0.630749 -0.244576 0.736436)
(-0.634691 -0.108416 0.765123)
(0.479468 0.492844 0.726096)
(0.708143 -0.0141343 -0.705928)
(-0.406379 0.00310374 0.913699)
(-0.705001 0.0239244 0.708802)
(0.904663 -0.421325 -0.0637949)
(-0.240466 0.196301 0.950601)
(-0.258453 0.959934 0.108301)
(-0.668565 0.740286 0.0706876)
(-0.21256 0.951699 -0.221557)
(0.0267407 0.99962 -0.00667718)
(-0.550217 0.83501 -0.00443134)
(0.88986 0.453807 -0.0469955)
(0.999213 -0.0380672 -0.0111109)
(0.799932 -0.599084 -0.0347356)
(-0.239411 0.0262272 0.970564)
(-0.353363 0.933411 0.0622778)
(-0.425038 0.88861 0.172378)
(0.788821 -0.054087 -0.612239)
(-0.477963 0.0391827 0.877506)
(0.784729 -0.0703217 -0.615836)
(0.891568 -0.452625 -0.015389)
(-0.325818 0.923551 0.202228)
(-0.564912 0.823662 0.0495529)
(0.405677 0.914015 -0.00138743)
(0.412766 0.910837 -0.000751469)
(0.744218 -0.667137 -0.03267)
(0.991031 -0.133319 -0.00915742)
(0.728569 -0.684003 -0.0364439)
(-0.458209 -0.00939922 0.888795)
(0.707995 0.00557113 -0.706195)
(0.708937 0.00505415 -0.705254)
(0.709789 -0.00768529 -0.704372)
(-0.426542 -0.00525642 0.904452)
(0.710608 -0.0033168 -0.70358)
(0.990972 -0.133606 -0.0111076)
(0.785607 -0.616857 -0.0480502)
(0.78782 -0.614406 -0.0429554)
(0.225269 0.974275 -0.00647203)
(0.42275 0.906221 -0.00677587)
(0.908274 0.415719 -0.0470807)
(0.999882 -0.00966781 -0.0119342)
(0.885543 0.462082 -0.0478962)
(-0.552282 0.0277557 0.833195)
(0.79674 -0.0282678 -0.60366)
(0.797165 -0.0285786 -0.603085)
(0.79188 -0.0444417 -0.609058)
(-0.511694 0.0300817 0.858641)
(0.794133 -0.0383227 -0.606535)
(0.999865 -0.0100369 -0.0130299)
(0.927235 0.370139 -0.0568568)
(0.929569 0.364648 -0.0541625)
(0.989074 -0.146573 -0.0157735)
(0.883002 -0.463713 -0.072648)
(0.884258 -0.462366 -0.0656203)
(-0.706966 -0.00591483 0.707223)
(-0.47639 -0.0101417 0.879176)
(-0.705885 -0.00611521 0.7083)
(0.990369 -0.137851 -0.012882)
(0.811814 -0.58197 -0.0476382)
(0.810756 -0.582962 -0.0532049)
(-0.699863 -0.00543341 0.714257)
(-0.505752 -0.0101061 0.86262)
(-0.700714 -0.00570177 0.71342)
(0.671419 0.741041 -0.00745787)
(0.555362 0.831579 -0.0070999)
(0.999504 -0.0270824 -0.0160802)
(0.97238 0.220883 -0.075421)
(0.974376 0.213295 -0.0713872)
(0.796125 -0.0281886 -0.604475)
(-0.572077 0.0284895 0.819705)
(0.795362 -0.0282757 -0.605474)
(0.99977 -0.0161057 -0.0141778)
(0.943883 0.325171 -0.0578623)
(0.94135 0.331899 -0.0608503)
(0.789075 -0.0308648 -0.613521)
(-0.601272 0.0311396 0.798437)
(0.790256 -0.0302864 -0.612027)
(0.905781 -0.417409 -0.0730098)
(0.980365 0.181625 -0.0767938)
(-0.0623657 0.995965 0.0645372)
(-0.0496498 0.991711 0.118505)
(0.127429 0.955482 0.266112)
(0.269958 0.949192 0.161732)
(0.111623 0.976681 0.183398)
(0.0753878 0.995562 0.056322)
(0.251523 0.963265 0.0941105)
(0.0943888 0.989642 0.108164)
(0.140435 0.931019 0.336869)
(0.271068 0.893006 0.359252)
(0.157183 0.909175 0.385609)
(-0.239583 0.910262 0.337673)
(0.0303206 0.89422 0.4466)
(-0.00767837 0.907603 0.41976)
(0.195858 0.879285 0.434162)
(0.170394 0.871189 0.46043)
(0.164015 0.890346 0.424715)
(0.401217 0.915979 -0.00269445)
(-0.264794 -0.549524 0.792406)
(0.665307 0.356946 -0.65571)
(-0.579956 -0.420693 0.697616)
(0.0216835 0.999509 -0.0226025)
(-0.583193 0.137199 0.800663)
(0.702647 0.310256 -0.640334)
(0.768828 0.241512 -0.592094)
(0.423622 0.905839 0.000292553)
(0.418697 0.908126 -0.000245565)
(-0.0216531 0.999765 0.000739521)
(0.00234157 0.999997 0.000265631)
(0.981015 0.0811019 -0.176156)
(0.867941 0.00706536 -0.496617)
(0.855466 0.0483446 -0.515598)
(-0.354888 0.933711 0.0473089)
(0.87003 0.00494994 -0.492974)
(0.873003 -0.00342126 -0.487703)
(-0.0781515 0.996399 0.0328727)
(-0.093677 0.995461 0.0168215)
(-0.0132743 0.999911 0.00163943)
(0.0533226 0.998571 0.00349726)
(0.00191253 0.999988 0.00451583)
(0.0534689 0.998213 0.0266681)
(0.113149 0.99353 0.00976859)
(0.028345 0.999529 0.0117539)
(0.696459 0.704959 0.134081)
(0.448848 0.88397 0.130893)
(0.676226 0.729279 0.104261)
(0.993293 0.0442919 0.106803)
(0.881808 0.469934 0.0397177)
(0.89182 0.449557 0.050555)
(0.427569 0.900627 0.0778187)
(0.59616 0.801367 0.0490387)
(0.651884 0.754898 0.0719463)
(0.0555223 0.998452 0.00344298)
(0.0949607 0.995471 0.00444785)
(0.166839 0.98594 0.00935018)
(0.0556232 0.998444 0.0039192)
(0.885861 0.462796 0.0327151)
(0.91495 0.40246 0.0298669)
(0.19464 0.980819 0.0104336)
(0.49696 0.867173 0.0322584)
(0.336789 0.941379 0.0194807)
(0.985286 -0.155356 -0.0712496)
(0.940401 -0.318288 -0.119741)
(0.9623 -0.263043 -0.0691843)
(0.987544 -0.157181 -0.00720292)
(-0.552056 0.8336 0.0186095)
(-0.682299 0.730484 0.029353)
(0.871794 -0.476747 -0.112642)
(-0.6739 0.736981 0.052133)
(0.876499 -0.477125 -0.0640433)
(0.677768 0.717003 0.162904)
(0.399032 0.866654 0.299473)
(0.711533 0.697553 0.0845048)
(0.739486 0.0274795 -0.672611)
(-0.562237 -0.314882 0.764682)
(-0.675099 -0.281418 0.681942)
(0.14259 0.885787 0.441645)
(0.78713 -0.278698 -0.55023)
(0.0885869 0.930527 0.355347)
(0.0606725 0.99538 -0.0744104)
(0.0124753 0.885032 0.465362)
(0.248548 0.807643 0.53473)
(-0.332137 0.111444 0.936624)
(-0.668872 0.0799288 0.739068)
(-0.626313 0.254381 0.7369)
(-0.257268 0.956945 0.134425)
(-0.511518 0.83822 0.189041)
(-0.355599 0.926616 -0.122195)
(-0.602898 0.754829 0.258353)
(-0.578051 0.814723 -0.0456426)
(0.851213 -0.366045 -0.376094)
(0.711871 -0.680384 -0.174121)
(0.778846 -0.516783 -0.355435)
(-0.0825432 0.822119 0.5633)
(0.768658 -0.0527045 -0.637485)
(-0.467611 0.458434 0.755763)
(0.919035 -0.0783817 -0.386305)
(0.955802 -0.208197 -0.207597)
(0.917287 -0.106117 -0.383827)
(-0.397415 0.0073426 0.91761)
(-0.688115 0.0598178 0.723131)
(-0.699305 0.0376721 0.713831)
(0.927026 -0.315331 -0.202953)
(0.895106 -0.231182 -0.381235)
(0.911055 -0.152927 -0.382874)
(0.815349 -0.578137 -0.0310244)
(-0.535219 0.844499 0.0190268)
(-0.598774 0.800186 0.0342299)
(-0.121114 -0.621746 0.773798)
(0.742114 -0.536349 -0.401991)
(0.851085 -0.262853 -0.454491)
(-0.321912 0.936749 0.137384)
(-0.488249 0.856169 0.169079)
(-0.296406 0.945084 -0.13769)
(-0.372985 0.919049 0.127401)
(-0.355807 0.926578 -0.121882)
(-0.472737 0.88014 0.0432892)
(0.703766 -0.701916 -0.109673)
(-0.607463 0.791832 0.0631738)
(-0.552998 0.604078 0.573831)
(0.746888 0.0261164 -0.664437)
(-0.699068 0.0702052 0.711601)
(-0.0508778 0.998683 -0.00667304)
(0.891365 -0.45295 -0.0174883)
(0.897431 -0.436249 -0.0656162)
(0.863416 -0.493066 -0.106766)
(0.770063 -0.635714 -0.0535815)
(0.998436 -0.0548288 -0.0109649)
(-0.475372 0.879719 0.0107716)
(-0.534475 0.844956 0.0196386)
(-0.492231 0.868665 0.0559409)
(-0.502823 0.863951 0.0275207)
(-0.60524 0.795125 0.0382177)
(-0.359819 0.155253 0.920015)
(0.741189 -0.292747 -0.604101)
(0.638824 -0.588325 -0.49576)
(-0.188956 0.971407 0.14375)
(-0.272621 0.960559 0.0548171)
(-0.292109 0.954054 0.0667361)
(-0.572122 0.797079 0.193237)
(-0.394359 0.91673 0.0639356)
(-0.451459 0.881624 0.137564)
(0.938802 -0.0568475 -0.339733)
(0.941792 -0.276715 -0.190936)
(0.935307 -0.110197 -0.336241)
(-0.462552 0.0471916 0.885335)
(0.768728 -0.161353 -0.618888)
(0.779013 -0.0988002 -0.619175)
(0.738388 -0.658189 -0.146865)
(0.806381 -0.519031 -0.283472)
(0.916967 -0.228262 -0.327212)
(0.893193 -0.449324 -0.017738)
(-0.450819 0.892591 0.00658783)
(-0.532846 0.84588 0.0237255)
(-0.270167 0.94864 0.164595)
(-0.296208 0.95373 0.051569)
(-0.394482 0.917778 0.0454659)
(-0.453761 0.890978 0.016091)
(-0.413564 0.909657 0.0385907)
(-0.452348 0.891597 0.0208707)
(0.406403 0.913693 -0.00130823)
(0.41222 0.911084 -0.000802795)
(0.991791 -0.104921 -0.0730957)
(0.977871 -0.164158 -0.129693)
(0.99424 -0.076458 -0.0751102)
(0.991114 -0.132682 -0.00937495)
(0.741535 -0.669741 -0.0396716)
(0.752296 -0.657863 -0.0355822)
(0.980255 -0.146075 -0.133271)
(0.995527 -0.0507741 -0.0796763)
(0.995177 -0.0603738 -0.077312)
(-0.451982 -0.00895888 0.891982)
(0.710376 0.00325123 -0.703815)
(0.709745 0.004307 -0.704445)
(0.899253 -0.0229792 -0.436824)
(0.966867 -0.0581197 -0.248575)
(0.903026 -0.0251396 -0.428849)
(0.909845 -0.0311481 -0.413778)
(0.968313 -0.0626073 -0.241767)
(0.906569 -0.0278026 -0.42114)
(0.918817 -0.0606768 -0.389992)
(0.970729 -0.0987357 -0.218943)
(0.917448 -0.0491786 -0.394805)
(-0.432922 -0.00660871 0.901407)
(0.710776 0.00176999 -0.703416)
(0.710883 -0.000322996 -0.70331)
(0.970895 -0.0850607 -0.223891)
(0.912804 -0.0354605 -0.406855)
(0.915379 -0.041197 -0.400481)
(0.991029 -0.133202 -0.0108809)
(0.767103 -0.640341 -0.038948)
(0.761584 -0.646602 -0.0435282)
(0.995023 -0.0409503 -0.0908417)
(0.98269 -0.108159 -0.150403)
(0.99529 -0.0411324 -0.0877811)
(0.995583 -0.0453595 -0.0822051)
(0.982631 -0.114922 -0.145703)
(0.995486 -0.0424217 -0.0849045)
(0.247738 0.968805 -0.00648358)
(0.402542 0.915377 -0.00672913)
(0.956804 -0.281603 -0.0722926)
(0.981247 0.143108 -0.129131)
(0.978656 -0.19101 -0.0758105)
(0.999891 -0.00856201 -0.0120436)
(0.896547 0.440091 -0.0502353)
(0.902476 0.428022 -0.0483185)
(0.978911 0.156713 -0.131049)
(0.991821 -0.0990872 -0.0804521)
(0.987755 -0.134935 -0.0783101)
(-0.54509 0.0277366 0.837919)
(0.797214 -0.030215 -0.60294)
(0.797345 -0.0291896 -0.602818)
(0.928938 -0.00153844 -0.370233)
(0.973909 0.0320391 -0.224667)
(0.930999 -0.00101813 -0.365021)
(0.934639 -0.00187278 -0.355593)
(0.974918 0.0325872 -0.220165)
(0.932904 -0.00103161 -0.360122)
(0.939139 -0.0307383 -0.342159)
(0.978578 0.00475396 -0.205821)
(0.938536 -0.0163306 -0.344794)
(-0.5209 0.0289371 0.853127)
(0.796696 -0.0318555 -0.60354)
(0.795702 -0.0344003 -0.604711)
(0.977741 0.0205463 -0.208806)
(0.936181 -0.0040528 -0.351496)
(0.9375 -0.00840419 -0.347883)
(0.99987 -0.00965081 -0.0128875)
(0.914426 0.401539 -0.0509159)
(0.911866 0.407012 -0.0532957)
(0.995473 -0.0330098 -0.0891284)
(0.979058 0.14529 -0.142602)
(0.995274 -0.04349 -0.0868192)
(0.993801 -0.0745047 -0.0825198)
(0.978533 0.151915 -0.139265)
(0.994788 -0.0568743 -0.0846247)
(0.98924 -0.145487 -0.0154127)
(0.860976 -0.505216 -0.0589559)
(0.860169 -0.505789 -0.0654695)
(0.990944 -0.0542926 -0.122809)
(0.977116 -0.0770771 -0.198253)
(0.991643 -0.0521716 -0.117995)
(0.992868 -0.047991 -0.109131)
(0.978307 -0.0796673 -0.191231)
(0.992282 -0.0500671 -0.113441)
(0.895281 -0.021197 -0.444998)
(0.961308 -0.0487169 -0.271135)
(0.891134 -0.0197235 -0.453311)
(-0.482317 -0.0102415 0.875937)
(-0.703699 -0.0061821 0.710471)
(-0.704787 -0.00619822 0.709392)
(0.959079 -0.0464789 -0.279297)
(0.882409 -0.0174927 -0.470158)
(0.886836 -0.0185019 -0.461713)
(0.99026 -0.138609 -0.0131647)
(0.835959 -0.545611 -0.0590101)
(0.836543 -0.545335 -0.0529689)
(0.994699 -0.0414795 -0.0940922)
(0.981704 -0.0929652 -0.166179)
(0.994321 -0.0425741 -0.09754)
(0.993403 -0.0459876 -0.105052)
(0.981061 -0.0890792 -0.172003)
(0.993888 -0.0441256 -0.101191)
(0.863761 -0.0149314 -0.503681)
(0.94833 -0.040105 -0.314742)
(0.86853 -0.0153985 -0.495398)
(-0.499907 -0.0102084 0.866019)
(-0.702645 -0.00608681 0.711514)
(-0.701645 -0.0059209 0.712502)
(0.951296 -0.0414093 -0.305485)
(0.877871 -0.016655 -0.478608)
(0.873238 -0.0159677 -0.487031)
(0.661499 0.74991 -0.00741587)
(0.56981 0.821746 -0.00714361)
(0.99953 -0.0262519 -0.0158422)
(0.966361 0.248456 -0.0664595)
(0.964249 0.255553 -0.0701227)
(0.993618 0.00536035 -0.112672)
(0.980301 0.0868696 -0.177377)
(0.994021 0.00239183 -0.109166)
(0.994706 -0.00423191 -0.102679)
(0.980604 0.0934885 -0.172265)
(0.994383 -0.000881954 -0.105839)
(0.926736 -0.00243165 -0.375706)
(0.970433 0.0263922 -0.239922)
(0.924403 -0.00355612 -0.381402)
(-0.578228 0.028902 0.815363)
(0.793519 -0.0288284 -0.607862)
(0.794485 -0.028502 -0.606615)
(0.969095 0.0238929 -0.245529)
(0.919376 -0.0062448 -0.393331)
(0.921947 -0.00485273 -0.387285)
(0.999751 -0.0170622 -0.0143641)
(0.953828 0.293177 -0.0652713)
(0.956184 0.286135 -0.0619593)
(0.995491 -0.0247842 -0.091559)
(0.98041 0.122778 -0.154016)
(0.995395 -0.0181211 -0.0941256)
(0.994986 -0.00816234 -0.0996798)
(0.98066 0.115157 -0.158257)
(0.99522 -0.0127327 -0.0968288)
(0.908001 -0.0122619 -0.418788)
(0.962674 0.0135857 -0.270323)
(0.911005 -0.0107601 -0.412254)
(-0.595715 0.0305118 0.802616)
(0.792484 -0.0292591 -0.60919)
(0.791393 -0.0297536 -0.610583)
(0.96445 0.0160911 -0.263776)
(0.916693 -0.00773212 -0.399517)
(0.913902 -0.00925108 -0.405829)
(0.988887 -0.00756908 -0.148473)
(0.997327 0.00353779 0.0729855)
(-0.231721 0.972238 0.0325384)
(0.962099 -0.0059984 -0.272635)
(0.99102 -0.111164 0.0743037)
(0.98859 -0.00660811 -0.150487)
(0.962747 -0.00603606 -0.270336)
(0.3985 0.917166 -0.00205383)
(0.944895 -0.235042 -0.227879)
(-0.468512 -0.500484 0.728019)
(0.965683 -0.24458 0.0873942)
(-0.222447 -0.606239 0.763539)
(0.955497 -0.273299 -0.111057)
(0.956495 -0.267542 0.116357)
(-0.383331 -0.520339 0.763088)
(-0.0914085 0.933139 -0.347701)
(-0.483154 0.871153 0.0874857)
(-0.691697 0.713015 0.114732)
(-0.638179 0.759515 0.125952)
(-0.189031 0.867092 -0.460889)
(-0.513075 0.829116 0.222081)
(0.762539 -0.605843 -0.226913)
(0.42553 0.904944 0.000548011)
(0.416689 0.909049 -0.000432867)
(0.967993 -0.209687 -0.137917)
(-0.637955 -0.413823 0.649433)
(0.974376 -0.201437 0.100075)
(0.861286 0.295899 -0.413075)
(0.964381 -0.208384 -0.162925)
(0.977589 -0.189134 0.0924595)
(0.811305 0.267556 -0.519806)
(0.988452 -0.0127575 -0.150996)
(0.993286 -0.0897669 0.0729693)
(0.961551 -0.0113428 -0.274391)
(0.177594 0.983836 -0.022934)
(0.988466 -0.0100619 -0.151106)
(0.997334 -0.000736305 0.0729724)
(0.961062 -0.013159 -0.276018)
(0.976753 -0.21373 -0.0165258)
(-0.498966 0.8666 0.00613656)
(0.997169 0.0724255 -0.020224)
(0.990093 -0.140191 -0.00794201)
(-0.500865 0.865507 0.00570121)
(0.999406 0.0281582 -0.0198735)
(0.977784 -0.208916 -0.0171103)
(0.0925465 0.995687 -0.006525)
(-0.515132 0.855988 0.0438648)
(0.98338 0.17956 -0.0268753)
(-0.659116 0.751963 0.0108626)
(0.536961 0.843466 -0.0154222)
(0.999686 -0.0223356 -0.0113803)
(-0.657803 0.753117 0.0104814)
(0.535257 0.844548 -0.0154496)
(0.982941 0.181934 -0.0269454)
(-0.389455 0.919622 0.0511841)
(-0.699677 0.713598 0.0350657)
(-0.341345 0.92522 0.165685)
(-0.535537 0.838761 0.0983918)
(-0.340822 0.934688 0.100987)
(-0.477591 0.877849 0.0358774)
(-0.40029 0.90762 0.126462)
(0.403513 0.914972 -0.00159461)
(0.414185 0.910193 -0.000633908)
(0.978338 -0.206217 -0.0181657)
(-0.4982 0.867038 0.00647126)
(0.993668 0.110465 -0.0205161)
(0.990782 -0.135188 -0.00870031)
(0.977679 -0.209365 -0.0176188)
(-0.497256 0.867577 0.00684555)
(0.991169 0.130964 -0.0208091)
(0.978695 -0.203813 -0.0248277)
(0.990849 -0.134478 -0.0115845)
(-0.498761 0.86667 0.0109874)
(0.992454 0.119775 -0.0262379)
(-0.498052 0.867082 0.0106523)
(0.991256 0.129417 -0.0257515)
(0.978962 -0.202457 -0.0254074)
(0.175112 0.984527 -0.00645933)
(0.462143 0.886779 -0.00687087)
(0.982068 0.186566 -0.0271254)
(-0.655615 0.755014 0.011066)
(0.539229 0.842018 -0.0153802)
(0.999849 -0.0128737 -0.011715)
(0.982324 0.185231 -0.0270144)
(-0.656836 0.753947 0.0113703)
(0.541033 0.840861 -0.0153976)
(0.980133 0.196095 -0.0297518)
(0.999845 -0.0115174 -0.0133338)
(0.731488 -0.681638 -0.0171645)
(0.565403 0.824648 -0.016573)
(0.720633 -0.693119 -0.0165308)
(0.56333 0.826069 -0.0164107)
(0.980185 0.195793 -0.0300549)
(0.975912 -0.215109 -0.0363772)
(0.98877 -0.148528 -0.0165408)
(-0.519879 0.854057 0.0176695)
(0.999337 -0.000960924 -0.0363982)
(-0.517814 0.855322 0.017108)
(0.999345 0.00628522 -0.0356243)
(0.976017 -0.214473 -0.037309)
(0.978723 -0.203455 -0.0266008)
(0.990594 -0.136277 -0.012334)
(-0.499346 0.866329 0.0112854)
(0.993111 0.114089 -0.0267377)
(-0.500325 0.865759 0.0116436)
(0.978557 -0.204331 -0.0259889)
(0.994139 0.104613 -0.0272538)
(0.689146 0.724584 -0.00753115)
(0.520024 0.854123 -0.00700775)
(0.978917 0.201084 -0.0358839)
(0.999447 -0.0288128 -0.0165892)
(0.891575 -0.451877 -0.0300223)
(0.606017 0.795206 -0.0197687)
(0.87992 -0.474238 -0.0289699)
(0.602199 0.798108 -0.019497)
(0.97899 0.200641 -0.0363702)
(0.980021 0.196513 -0.0306795)
(0.999803 -0.0142211 -0.0138151)
(0.738298 -0.674243 -0.017701)
(0.56725 0.823376 -0.0167031)
(0.979974 0.196799 -0.0303519)
(0.748953 -0.662368 -0.0183647)
(0.569463 0.821844 -0.0168789)
(-0.521772 0.852891 0.0181976)
(0.999289 -0.00614835 -0.0372073)
(0.97546 -0.216825 -0.0382596)
(0.900328 -0.434105 -0.031013)
(0.609025 0.792899 -0.0200137)
(0.978645 0.202224 -0.0368706)
(0.405534 0.914074 -0.00331865)
(0.128107 -0.557046 0.820541)
(-0.33693 -0.492807 0.802259)
(-0.319933 -0.290785 0.901713)
(-0.478146 -0.447665 0.755627)
(-0.467233 -0.208072 0.859302)
(0.780408 -0.52135 -0.345193)
(-0.422079 -0.450124 0.786917)
(0.00371173 0.999975 -0.00594129)
(-0.650046 0.10818 0.752155)
(0.745837 0.0171375 -0.665908)
(0.680546 -0.538758 -0.496585)
(-0.578767 -0.360282 0.731591)
(0.756156 -0.127192 -0.641912)
(0.0675157 -0.667972 0.741118)
(-0.635438 -0.226977 0.738037)
(0.422215 0.906496 0.000136508)
(0.420019 0.907515 -0.000107667)
(0.985018 -0.0673161 -0.158769)
(0.976762 0.141139 -0.161294)
(0.995401 -0.0640183 0.0712681)
(0.955149 0.00837223 -0.296006)
(0.985871 -0.0528099 -0.158966)
(0.99529 -0.0651697 0.0717693)
(0.953242 0.0226812 -0.301355)
(0.987393 -0.0251476 -0.15628)
(-0.612625 0.786225 0.0808713)
(0.997134 -0.0289356 0.0699041)
(0.956469 0.00388293 -0.291809)
(0.986743 -0.0360253 -0.158244)
(0.996289 -0.0480187 0.071433)
(0.95759 -0.000910437 -0.288134)
(0.958485 -0.284687 -0.0161115)
(0.977557 -0.210558 -0.00691011)
(-0.536778 0.843715 0.00369809)
(-0.535624 0.84444 0.00530307)
(-0.488049 0.872806 0.00416484)
(0.932862 -0.359853 -0.0165371)
(-0.66851 0.743646 0.00920956)
(0.798143 -0.60208 -0.0216005)
(-0.58975 0.807586 0.000823435)
(-0.328155 0.944607 0.00568849)
(-0.534531 0.845138 0.00424156)
(-0.524856 0.851171 0.00578606)
(0.846362 -0.532207 -0.0206682)
(-0.477606 0.878572 0.00207272)
(-0.226419 0.974006 -0.00682487)
(-0.253154 0.967361 -0.0111932)
(0.994165 0.104263 -0.0276469)
(0.992084 -0.125144 -0.0104382)
(-0.563781 0.825921 0.00254546)
(0.489185 0.871988 -0.0182846)
(-0.584983 0.81103 0.00504609)
(0.489084 0.872075 -0.0167693)
(0.999527 0.0133162 -0.0277275)
(0.790047 -0.61294 -0.0114079)
(0.801532 -0.59795 -0.00167075)
(-0.557729 0.830023 0.000380108)
(0.372079 0.928007 -0.0189957)
(-0.585276 0.810831 -0.00213325)
(0.190972 0.981378 -0.0206585)
(0.957919 -0.286116 -0.0230079)
(0.408119 0.912928 -0.00114946)
(0.410693 0.911773 -0.00092796)
(0.978851 -0.203525 -0.0206698)
(0.991194 -0.132058 -0.00980561)
(-0.495283 0.868689 0.00863565)
(0.98553 0.167965 -0.0227666)
(-0.495266 0.868702 0.00833329)
(0.979237 -0.201611 -0.0211704)
(0.984768 0.172427 -0.0224028)
(0.979228 -0.201547 -0.0221661)
(0.991139 -0.13242 -0.010437)
(-0.495358 0.868644 0.00889522)
(0.985676 0.167054 -0.0231413)
(-0.495794 0.868391 0.00919941)
(0.978952 -0.20294 -0.0216568)
(0.986828 0.16005 -0.0235365)
(0.292411 0.95627 -0.00653122)
(0.359478 0.93313 -0.00663934)
(0.980927 0.192372 -0.0278531)
(0.999894 -0.00784587 -0.012269)
(-0.674327 0.738313 0.0133093)
(0.551101 0.834291 -0.0156589)
(-0.667168 0.744796 0.0128791)
(0.549442 0.835387 -0.0155686)
(0.980921 0.192374 -0.0280486)
(0.980693 0.193468 -0.0284659)
(0.999883 -0.00863595 -0.0126179)
(-0.677779 0.735139 0.0136512)
(0.552641 0.833271 -0.0157208)
(-0.685585 0.727855 0.0141126)
(0.554486 0.832042 -0.0158327)
(0.980703 0.193451 -0.0282406)
(0.9774 -0.20894 -0.0321517)
(0.989588 -0.143176 -0.0147137)
(-0.507779 0.861369 0.0142772)
(0.998259 0.0499605 -0.0313657)
(-0.50949 0.86035 0.0147285)
(0.977332 -0.209372 -0.0313776)
(0.998644 0.0410535 -0.0320179)
(0.977696 -0.207882 -0.0299129)
(0.990024 -0.140222 -0.0137646)
(-0.506515 0.86212 0.0138798)
(0.997925 0.0565832 -0.0307274)
(-0.505314 0.86283 0.0134603)
(0.977854 -0.207035 -0.030641)
(0.997338 0.066416 -0.0301094)
(0.638145 0.769882 -0.00733417)
(0.598679 0.800957 -0.00722613)
(0.979481 0.198705 -0.0336494)
(0.999603 -0.0236078 -0.0153794)
(0.816986 -0.57618 -0.0234633)
(0.58519 0.810694 -0.0181362)
(0.828859 -0.558927 -0.0243494)
(0.587904 0.808722 -0.0183638)
(0.97939 0.199224 -0.0332298)
(0.979528 0.198678 -0.0324462)
(0.999701 -0.0195168 -0.0147604)
(0.808276 -0.588366 -0.0227023)
(0.582935 0.81232 -0.0179544)
(0.796071 -0.604809 -0.0218535)
(0.580319 0.814196 -0.0177396)
(0.979611 0.198203 -0.0328414)
(-0.0927224 0.995536 0.0176138)
(-0.0272057 0.997314 0.0680097)
(-0.0616306 0.993493 0.095779)
(0.0296244 0.99827 0.0507784)
(-0.113123 0.979711 0.165436)
(-0.241835 0.970123 -0.0194264)
(-0.210119 0.977611 0.0112953)
(-0.12335 0.987361 0.0995141)
(-0.0472607 0.986188 0.158746)
(0.0557342 0.99689 0.0557216)
(-0.0955654 0.995389 -0.00821366)
(-0.0263407 0.993675 0.109159)
(-0.0169733 0.948536 0.316213)
(0.151862 0.988063 0.0258866)
(-0.026177 0.979105 0.201665)
(-0.1167 0.983634 -0.137275)
(-0.293083 0.953206 -0.074172)
(-0.0948086 0.964287 0.24731)
(-0.0765308 0.940425 0.331276)
(-0.369553 0.918571 -0.140206)
(-0.10377 0.992651 -0.062258)
(-0.0264269 0.987398 0.156033)
(-0.0315987 0.970979 0.237069)
(0.0936585 0.994564 0.0454971)
(0.989099 -0.00528708 -0.147154)
(0.174816 0.98439 -0.0203867)
(0.997082 0.0138643 0.0750647)
(0.963212 -0.00606957 -0.268672)
(0.867029 0.000270413 -0.498257)
(0.872403 -0.00250092 -0.488781)
(0.878312 0.000745348 -0.478087)
(0.864046 -0.0018297 -0.50341)
(0.87386 -0.000359327 -0.486177)
(0.878414 -0.00297806 -0.477891)
(0.874711 -0.00736862 -0.484589)
(0.40029 0.916386 -0.00221142)
(0.740321 -0.0381412 -0.67117)
(-0.476046 -0.431917 0.766047)
(-0.642024 -0.351164 0.681534)
(0.74965 -0.0311982 -0.661099)
(-0.440521 -0.451531 0.775926)
(0.926124 -0.374436 -0.0457376)
(-0.203818 -0.596852 0.776032)
(0.951117 -0.299558 0.0751034)
(-0.356489 -0.511328 0.781958)
(0.942027 -0.327116 0.0747018)
(-0.674978 -0.0498228 0.736154)
(-0.344003 -0.52713 0.777043)
(-0.53572 -0.144402 0.831957)
(-0.59377 -0.400283 0.698005)
(-0.429561 -0.459028 0.77767)
(-0.663889 -0.0196256 0.747574)
(-0.417662 -0.466318 0.779812)
(-0.142397 0.988581 -0.0492998)
(-0.588726 0.361594 0.722946)
(0.874901 -0.249032 -0.415368)
(0.263238 0.358064 0.895821)
(0.766876 0.10687 -0.632834)
(0.213242 0.178975 0.960466)
(-0.539973 -0.185952 0.820884)
(0.855255 -0.252187 -0.452705)
(-0.224688 0.726636 -0.649242)
(0.798374 0.0771746 -0.597196)
(0.601815 -0.5025 0.620736)
(-0.685549 -0.164675 0.709158)
(0.843995 0.184322 -0.503684)
(0.761296 -0.172152 -0.625133)
(0.797414 0.0097897 -0.603353)
(0.424882 0.905249 0.000472983)
(0.417093 0.908864 -0.000380599)
(-0.0604153 0.998163 0.00453404)
(-0.0456333 0.998941 0.00582662)
(0.0303778 0.999513 -0.00708214)
(-0.0664212 0.997782 0.00450516)
(-0.0540078 0.998517 0.00691265)
(-0.00858726 0.999963 -0.000633494)
(-0.0524241 0.998613 0.00479931)
(-0.0798447 0.9968 0.00384566)
(0.010811 0.999933 -0.00425623)
(0.00803785 0.999962 0.0034908)
(0.0118797 0.99992 0.00436916)
(-0.0774007 0.996997 -0.00248858)
(0.0272367 0.9996 0.00757743)
(-0.0414492 0.99911 -0.00783367)
(0.076935 0.99703 0.00343251)
(0.0691905 0.997598 0.00336095)
(-0.0107315 0.999937 -0.00325007)
(0.0178674 0.999833 0.00373584)
(0.0140265 0.999897 0.00295031)
(-0.0109341 0.999933 -0.00368875)
(0.81085 -0.0681519 -0.581272)