/*--------------------------------*- C++ -*----------------------------------*\
| =========                 |                                                 |
| \\      /  F ield         | OpenFOAM: The Open Source CFD Toolbox           |
|  \\    /   O peration     | Version:  2012                                  |
|   \\  /    A nd           | Website:  www.openfoam.com                      |
|    \\/     M anipulation  |                                                 |
\*---------------------------------------------------------------------------*/
FoamFile
{
    version     2.0;
    format      ascii;
    class       volVectorField;
    location    "0.107/solid";
    object      sigmaMidDir;
}
// * * * * * * * * * * * * * * * * * * * * * * * * * * * * * * * * * * * * * //

dimensions      [1 -1 -2 0 0 0 0];


internalField   nonuniform List<vector> 
3125
(
(0.974212 -0.179096 -0.13724)
(0.915803 -0.401627 -0.00120885)
(0.953698 -0.300679 0.00723854)
(0.788523 0.483927 -0.379534)
(0.904391 -0.42666 -0.00621316)
(0.909417 -0.41587 -0.00361837)
(0.995398 0.0144719 0.0947281)
(0.886484 -0.428293 0.175246)
(0.958268 0.251511 -0.135884)
(0.156436 0.704014 -0.692742)
(0.995555 0.00460337 0.0940675)
(0.138283 0.990389 -0.00266467)
(-0.161498 -0.454257 0.87611)
(0.96629 -0.254407 0.0395021)
(-0.0717758 0.996916 -0.0317307)
(0.793401 0.513102 -0.327476)
(0.992658 -0.120886 -0.00406896)
(0.570012 0.807239 -0.153137)
(0.0182157 0.999814 -0.00632053)
(-0.634469 0.740586 0.221318)
(0.0449238 0.998885 -0.0145366)
(0.737028 0.67251 -0.0672338)
(0.915716 -0.401823 -0.00143469)
(0.909705 -0.415241 -0.0034677)
(0.136483 0.990639 -0.00243294)
(-0.0504846 0.998605 -0.0154981)
(-0.0655851 0.997491 -0.0266661)
(0.135164 0.990823 -0.000776651)
(0.988847 -0.148884 -0.0039222)
(0.875111 -0.483918 -0.00202918)
(0.0147996 0.999872 -0.00611316)
(0.0468188 0.998901 -0.00204211)
(0.0457459 0.9989 -0.0102842)
(0.012294 0.999911 -0.00521873)
(0.149748 0.988724 0.000737201)
(-0.0493123 0.998671 -0.0149994)
(0.135708 0.990749 -0.000699296)
(-0.0405456 0.999099 -0.0125577)
(0.714245 -0.699896 -0.000930345)
(0.865121 -0.50156 -0.00194692)
(0.0293061 0.999558 -0.00508236)
(0.0468706 0.998899 -0.00194932)
(0.0129577 0.999903 -0.00520364)
(0.0492855 0.998782 -0.00236106)
(0.904184 -0.427094 -0.00644844)
(0.150845 0.988557 0.000856732)
(0.708211 -0.706 -0.000949388)
(0.0298821 0.999541 -0.00505821)
(0.953661 -0.29797 0.0417676)
(0.975765 -0.218819 1.28732e-05)
(0.952577 -0.301406 0.041858)
(0.976109 0.209903 0.0561512)
(0.9786 0.0977487 -0.18107)
(0.961061 -0.276337 -0.000575421)
(0.784418 -0.617002 0.0632196)
(0.886076 -0.46353 0.0031567)
(-0.637202 0.754193 -0.158642)
(0.906815 -0.421501 -0.0048511)
(0.907035 -0.421029 -0.00467329)
(0.999958 0.00213294 -0.00892575)
(0.999875 -0.00508977 0.0149447)
(0.189273 0.979134 -0.0739784)
(-0.406324 0.912765 0.0419676)
(0.999863 -0.0138887 -0.00899857)
(0.985073 -0.172071 -0.00485062)
(0.872552 -0.479761 0.0920997)
(-0.16436 0.985616 -0.0393381)
(0.925171 -0.378731 0.0249376)
(0.999393 -0.0314916 0.01488)
(0.952169 -0.290718 0.0941137)
(0.954053 -0.299 0.0195454)
(0.234943 0.971554 -0.0297266)
(0.267684 0.963478 -0.00744611)
(0.676073 0.730794 -0.0941633)
(0.880035 -0.463634 0.102862)
(0.904235 -0.41182 0.112976)
(0.747878 0.651358 0.12811)
(0.865092 0.488491 0.113979)
(-0.286638 0.949973 -0.124057)
(0.97045 0.235839 -0.0510502)
(0.695092 0.699949 -0.164067)
(0.892734 0.450507 0.00832316)
(0.148456 0.988341 -0.0338111)
(-0.12792 0.989315 -0.0699442)
(0.477617 0.871754 -0.109215)
(0.456277 0.889751 -0.012406)
(0.0423416 -0.620509 0.783055)
(0.964704 0.257425 -0.0554804)
(0.834818 0.536169 -0.124908)
(0.819507 0.570827 0.0506504)
(0.995799 0.09131 -0.00677667)
(0.893301 0.449344 -0.0101748)
(0.0118694 0.999911 -0.00615799)
(0.203272 0.979034 -0.0131634)
(0.905542 0.407623 -0.117633)
(0.0469424 0.995356 -0.0840392)
(0.983855 0.175851 0.0332425)
(0.902089 0.39517 -0.173423)
(0.0951291 0.995261 -0.0201623)
(0.0429858 0.997911 -0.0482267)
(0.842903 0.511444 -0.167151)
(0.374418 0.927087 -0.0178976)
(0.974833 0.222875 0.00519179)
(0.925474 0.359214 -0.120264)
(0.912403 -0.409286 -0.00245052)
(0.912153 -0.409841 -0.00258941)
(0.18973 0.98155 -0.0237079)
(0.132163 0.991227 -0.00144801)
(0.132059 0.991105 -0.0164479)
(-0.0545211 0.998354 -0.017799)
(0.0526855 0.998517 -0.0136832)
(0.0662525 0.997671 -0.0162093)
(0.116041 0.992887 -0.0266432)
(-0.0563 0.998232 -0.0190662)
(0.0733327 0.997152 -0.0175897)
(0.13224 0.991217 -0.00135481)
(0.101588 0.99474 -0.0130974)
(0.122084 0.992402 -0.015316)
(0.948651 -0.316309 -0.00296016)
(0.941525 -0.336931 -0.00286493)
(-0.103942 0.99454 0.00928848)
(0.00793344 0.999954 -0.0054187)
(-0.158757 0.987153 0.0180145)
(0.046838 0.998897 -0.00317453)
(-0.0296842 0.99953 0.00765372)
(-0.0309379 0.999496 0.00714)
(0.0269768 0.999619 -0.00591592)
(0.0467985 0.998896 -0.00406088)
(-0.0276598 0.999598 0.00618478)
(0.0079598 0.999954 -0.00537015)
(-0.137016 0.990422 0.0170743)
(-0.156187 0.98756 0.0181885)
(0.142316 0.989821 -4.73391e-06)
(0.0743312 0.997188 -0.00956588)
(0.0819148 0.996581 -0.0107909)
(0.049635 0.998681 -0.0131153)
(-0.0457909 0.998855 -0.0138482)
(0.0429813 0.999007 -0.0117639)
(0.141333 0.989962 -9.54279e-05)
(0.0966041 0.995244 -0.0125571)
(0.0849839 0.996319 -0.0111996)
(0.0376412 0.999239 -0.0102147)
(-0.0445596 0.998915 -0.013522)
(0.0413608 0.99908 -0.0113746)
(0.779643 -0.626223 -0.00126005)
(0.789408 -0.613868 -0.00130842)
(0.0219683 0.999745 -0.00515742)
(-0.0795944 0.99675 0.0124466)
(-0.0996344 0.994924 0.0141041)
(-0.0276852 0.999589 0.00748532)
(0.0474285 0.998873 -0.00201818)
(-0.0203611 0.99977 0.006694)
(0.0209355 0.999767 -0.00516581)
(-0.129413 0.991453 0.0165011)
(-0.106774 0.994175 0.0146873)
(-0.0100241 0.999934 0.00553759)
(0.0477685 0.998856 -0.00210825)
(-0.0176727 0.999824 0.00637191)
(0.999654 0.0257199 -0.00553594)
(0.999021 0.0401991 -0.0184537)
(0.99989 0.0126689 0.00764933)
(0.978682 0.20323 0.0296629)
(0.999927 0.00288776 0.0116982)
(0.00038333 1 8.59132e-05)
(0.919816 -0.39235 -0.00057061)
(-0.63669 0.685148 -0.353834)
(0.920098 -0.389822 0.0381854)
(0.725538 -0.646976 0.234557)
(0.909373 0.404319 -0.0978129)
(-0.124768 0.979445 -0.158495)
(-0.457922 0.817468 -0.349361)
(0.905555 -0.424191 -0.00559648)
(0.908333 -0.418228 -0.00403604)
(0.982296 0.184199 -0.0341298)
(0.0534707 0.998567 0.00202338)
(-0.55984 0.714323 -0.419906)
(-0.0502674 0.945159 -0.32272)
(-0.345077 0.831245 -0.435837)
(0.00236676 0.999982 -0.00553822)
(0.963894 -0.225515 -0.141605)
(-0.00278517 0.999966 -0.00777979)
(0.990544 0.13271 -0.0347859)
(0.991991 0.121367 -0.0349872)
(-0.332272 0.862093 -0.38261)
(0.0531179 0.968657 -0.242658)
(-0.411803 0.901239 -0.134859)
(-0.0716188 0.997431 -0.00122502)
(0.99556 -0.00575855 0.0939575)
(-0.249589 0.968329 -0.00666061)
(0.689625 0.723406 -0.0331914)
(0.147381 0.989073 -0.00368605)
(0.700884 0.712416 -0.0349934)
(0.253175 -0.639667 0.725761)
(0.736543 -0.383117 0.557429)
(0.551275 -0.353251 0.75585)
(0.586083 0.768658 0.256263)
(0.811901 -0.579413 -0.071404)
(-0.241513 0.96377 0.113222)
(-0.243974 0.967582 -0.0652788)
(0.833927 -0.513535 -0.202107)
(-0.0108797 0.999462 -0.0309253)
(-0.0806597 0.995968 -0.0392576)
(-0.00575719 0.999205 -0.0394527)
(0.416912 0.90609 -0.0720099)
(-0.158876 0.95817 -0.238053)
(0.95677 0.269844 -0.108516)
(0.733109 0.672052 -0.104391)
(0.91928 0.117895 -0.375533)
(0.99963 -0.0267728 -0.0047617)
(0.834608 0.54977 -0.0343955)
(-0.453484 0.891084 0.0179413)
(0.0379868 0.999251 -0.00736157)
(0.598106 0.800654 -0.0349667)
(-0.325351 0.939673 -0.105647)
(0.918514 0.333558 0.212302)
(0.790674 0.457186 -0.407205)
(0.055841 0.998307 -0.0162468)
(0.0436017 0.998831 -0.0208511)
(0.0684322 0.997299 -0.0266808)
(0.451889 0.891345 -0.0360673)
(0.937498 0.343261 -0.0571885)
(0.821733 0.567017 -0.0569875)
(0.914014 -0.405679 -0.00190593)
(0.910832 -0.412766 -0.00309109)
(0.666346 0.744931 -0.0325679)
(0.133307 0.991073 -0.00191536)
(0.683177 0.729479 -0.0335965)
(-0.0517049 0.998533 -0.0160962)
(-0.0205964 0.999706 -0.0127623)
(-0.0204372 0.999702 -0.0133796)
(-0.0140659 0.999586 -0.0250804)
(-0.0615262 0.997835 -0.0232168)
(-0.0162838 0.999644 -0.0211589)
(0.133603 0.991034 -0.00101523)
(0.615863 0.787073 -0.0350629)
(0.613452 0.78899 -0.034224)
(0.974285 -0.225294 -0.00346244)
(0.906233 -0.422773 -0.0023907)
(-0.415442 0.909479 0.0160034)
(0.00960022 0.999938 -0.00570757)
(-0.461668 0.886827 0.0200375)
(0.0468089 0.998901 -0.00224853)
(0.0358768 0.999356 0.000554872)
(0.0360747 0.999349 0.000327421)
(0.0483824 0.998779 -0.00997346)
(0.046354 0.998898 -0.00737155)
(0.0436577 0.999029 -0.00596086)
(0.00996905 0.999936 -0.00525855)
(-0.369672 0.92897 0.0189187)
(-0.364269 0.931137 0.0170625)
(0.146597 0.989196 0.000391421)
(0.462582 0.885973 -0.0327033)
(0.461218 0.886688 -0.0325847)
(-0.0206216 0.999712 -0.012253)
(-0.0481542 0.998734 -0.014572)
(-0.0205233 0.999719 -0.0118221)
(0.137857 0.990452 -0.000448088)
(0.580956 0.81321 -0.0343407)
(0.581915 0.812496 -0.0350097)
(-0.0178363 0.999792 -0.00987136)
(-0.0419335 0.999037 -0.0128812)
(-0.0185007 0.999777 -0.0101808)
(0.741056 -0.671443 -0.00104972)
(0.831592 -0.555384 -0.0016245)
(0.027003 0.999622 -0.00513746)
(-0.220402 0.975298 0.0147443)
(-0.212961 0.976983 0.0123473)
(0.0358828 0.999356 0.000656325)
(0.0469836 0.998894 -0.00192714)
(0.0360475 0.99935 0.000682896)
(0.0160337 0.999858 -0.00518296)
(-0.324801 0.945648 0.0159486)
(-0.331428 0.943309 0.0179681)
(0.0392609 0.999229 0.000226172)
(0.048702 0.998811 -0.00227862)
(0.0385329 0.999257 0.000305425)
(0.416256 0.908716 -0.0310869)
(-0.181296 0.983364 0.0112915)
(0.99738 0.0645673 -0.0326077)
(0.998203 0.0532567 -0.027465)
(0.99083 -0.134781 0.00947316)
(0.96051 -0.277229 0.0237774)
(0.993649 -0.11234 -0.00651309)
(0.996877 -0.0739158 -0.0277797)
(0.967307 -0.253451 0.00893112)
(0.99549 -0.0927888 -0.0197422)
(0.98784 -0.154682 0.0156879)
(0.958248 -0.285644 -0.0129936)
(0.986271 -0.164528 -0.0141088)
(0.970014 0.239079 0.043751)
(0.998681 -0.00857714 -0.0506287)
(0.999968 0.00796589 0.0010679)
(0.979685 -0.155991 -0.126032)
(0.976836 -0.0879565 -0.195079)
(0.986264 -0.139482 -0.088472)
(0.915982 -0.401218 -6.60655e-05)
(0.897061 -0.441856 -0.00665535)
(-0.627087 0.743794 -0.231369)
(0.724114 -0.658556 0.204846)
(0.996643 -0.0233954 -0.0784527)
(0.0408785 0.989342 -0.139755)
(-0.578106 0.773583 -0.259545)
(-0.439676 0.871985 -0.215236)
(0.905826 -0.423615 -0.0053888)
(0.908117 -0.418695 -0.00419998)
(0.999176 0.0216657 -0.0343292)
(0.999005 -0.00235108 0.0445458)
(-0.115098 0.974564 -0.192294)
(-0.0767157 0.989806 -0.119995)
(-0.274182 0.886918 -0.371754)
(0.923381 0.357985 -0.138614)
(-0.0452081 0.996538 -0.0697797)
(-0.00593553 0.999827 -0.0176386)
(0.996247 0.0792854 -0.0347328)
(0.99493 0.0942212 -0.0351595)
(0.999315 0.013323 -0.0345223)
(0.998541 -0.0532907 -0.00867599)
(0.999409 -0.00175643 -0.0343228)
(0.998106 -0.0526109 -0.0318977)
(0.993558 -0.113078 -0.00748311)
(0.999042 -0.0279351 -0.0336835)
(-0.679701 0.707978 -0.191764)
(0.886654 -0.45879 0.057938)
(0.722083 -0.68419 0.102374)
(-0.0361539 0.996378 -0.0769654)
(-0.469121 0.882679 -0.028359)
(-0.446782 0.892789 -0.0575671)
(0.901551 -0.431146 0.0363188)
(0.799971 -0.598083 0.0484049)
(0.752202 -0.655735 0.0648385)
(0.99746 -0.0556205 0.0444852)
(0.995361 -0.0950178 0.0151356)
(0.98493 -0.167092 0.0446486)
(0.993971 -0.0557446 0.0944154)
(-0.462453 0.886464 -0.0178373)
(-0.402283 0.915437 -0.011996)
(0.980705 -0.194793 0.0165268)
(0.866075 -0.497969 0.0440563)
(0.940349 -0.337334 0.044143)
(0.155065 0.987857 -0.00963745)
(0.315655 0.947994 -0.0408615)
(0.262402 0.964784 -0.0183681)
(0.157153 0.987565 -0.00432026)
(0.832183 0.552235 -0.05007)
(0.729544 0.682919 -0.0372452)
(0.472648 0.87904 -0.0623961)
(0.734491 0.675909 -0.0605769)
(0.475814 0.878835 -0.0353584)
(-0.655316 0.689527 -0.308404)
(0.904279 -0.426023 0.0279767)
(-0.56353 0.638347 -0.524355)
(0.593492 -0.498151 0.632149)
(0.778298 -0.514039 0.360577)
(0.72868 -0.398693 0.556839)
(0.985029 -0.0833223 -0.150913)
(-0.191461 0.737616 -0.647506)
(0.895908 0.0814762 -0.436705)
(0.99497 -0.0662634 -0.0751228)
(0.997499 0.0213635 -0.0673701)
(0.968202 -0.190946 -0.16163)
(-0.0984055 0.983483 -0.151915)
(0.0135812 0.995351 -0.0953539)
(0.148448 0.966884 -0.207602)
(0.961211 0.267728 -0.0662945)
(0.844341 0.531149 -0.0704849)
(0.929788 0.337414 -0.147126)
(0.747197 0.647731 -0.148798)
(0.814815 0.573292 -0.0860994)
(0.333152 0.930589 -0.1517)
(0.658827 0.732829 -0.170025)
(0.47317 0.856093 -0.207879)
(0.974813 0.184115 -0.125866)
(0.602663 -0.274349 0.749353)
(0.838077 0.501746 0.21419)
(0.069034 0.996889 -0.0380354)
(0.203028 0.978085 -0.0461432)
(0.0945296 0.994316 -0.048987)
(-0.100141 0.993649 -0.0513219)
(0.0145195 0.997532 -0.0686999)
(0.000461628 0.998634 -0.0522502)
(0.307571 0.948979 -0.0695556)
(0.209834 0.972885 -0.0972886)
(0.137547 0.988199 -0.0674085)
(0.576775 0.815753 -0.0433272)
(0.842616 0.535341 -0.0583889)
(0.792787 0.598229 -0.116668)
(0.953463 -0.289706 -0.083543)
(-0.0645333 -0.65413 0.753624)
(0.227509 -0.595519 0.770452)
(0.941557 0.331957 -0.0572211)
(0.863612 0.501902 -0.0476377)
(0.945748 0.270365 -0.180175)
(0.923536 0.380946 -0.0442894)
(0.909267 0.313086 -0.274244)
(0.876402 0.474715 -0.0810308)
(0.689445 0.712034 -0.132943)
(0.783497 0.610367 -0.116552)
(0.220551 0.770286 -0.598345)
(0.564992 -0.551822 0.613414)
(-0.527775 0.620783 -0.579725)
(0.998693 0.0508436 -0.00519774)
(0.451845 0.890942 -0.0453611)
(0.434466 0.899795 -0.0400994)
(0.488582 0.869976 -0.0665591)
(0.633389 0.771879 -0.0549709)
(0.0547425 0.998468 -0.00802239)
(0.878167 0.475204 -0.0548156)
(0.843696 0.534768 -0.046905)
(0.861413 0.495349 -0.112237)
(0.860768 0.503374 -0.0754482)
(0.792331 0.606354 -0.0674294)
(-0.0132275 0.985111 -0.171411)
(0.243739 0.955848 -0.164152)
(0.476787 0.808467 -0.345043)
(0.980642 0.179011 0.0793463)
(0.958536 0.276079 -0.0706403)
(0.947957 0.298072 -0.111938)
(0.758225 0.603846 -0.245896)
(0.905027 0.399508 -0.146012)
(0.851767 0.471736 -0.227945)
(0.0560602 0.998354 -0.0121403)
(0.270989 0.960952 -0.0560092)
(0.106309 0.99388 -0.0300114)
(0.0434671 0.998589 -0.0305186)
(0.140294 0.986628 -0.0829676)
(0.0908796 0.994871 -0.0444094)
(0.644999 0.752849 -0.131127)
(0.492799 0.854717 -0.163121)
(0.217604 0.97357 -0.0693533)
(0.44822 0.892781 -0.0451689)
(0.890737 0.450336 -0.0615278)
(0.843076 0.533074 -0.0711023)
(0.960879 0.276487 -0.0163338)
(0.95227 0.299063 -0.0611779)
(0.917142 0.396306 -0.0423256)
(0.887451 0.453455 -0.0825208)
(0.90335 0.415251 -0.107356)
(0.888099 0.452468 -0.0809535)
(0.913691 -0.406405 -0.00206425)
(0.911079 -0.41222 -0.00295291)
(0.104803 0.994478 -0.00546257)
(0.162915 0.986433 -0.0202081)
(0.0764499 0.997069 -0.00298614)
(0.132671 0.991158 -0.00178302)
(0.668861 0.742594 -0.0343361)
(0.657031 0.753136 -0.0331238)
(0.144974 0.989272 -0.0179819)
(0.0508933 0.998704 -0.000535338)
(0.0604386 0.998171 -0.00150386)
(-0.0530277 0.998451 -0.0168418)
(-0.019613 0.999692 -0.0151779)
(-0.0201206 0.999697 -0.0141598)
(0.0172576 0.999705 -0.0170627)
(0.0563203 0.99831 -0.0143507)
(0.0193586 0.999653 -0.0178374)
(0.0251409 0.999485 -0.0199568)
(0.0607421 0.998038 -0.015168)
(0.0219331 0.999583 -0.0187756)
(0.0527235 0.998125 -0.0310771)
(0.0961826 0.995114 -0.0223164)
(0.0420806 0.998759 -0.0266228)
(-0.0585352 0.998069 -0.0207955)
(-0.0188663 0.999685 -0.0165482)
(-0.0177972 0.999671 -0.018448)
(0.0827946 0.996376 -0.0195073)
(0.0292384 0.999341 -0.0215021)
(0.0346362 0.999121 -0.0236105)
(0.133198 0.991089 -0.0010935)
(0.639449 0.76809 -0.0337961)
(0.645665 0.762826 -0.0348442)
(0.041215 0.99915 0.00103889)
(0.10732 0.99413 -0.0137107)
(0.0413646 0.999144 0.00082677)
(0.0455214 0.998963 9.5598e-05)
(0.114039 0.993371 -0.0144326)
(0.0426203 0.999091 0.000527507)
(0.968815 -0.247762 -0.00335505)
(0.915388 -0.402565 -0.00248671)
(0.28025 0.959506 -0.0284357)
(-0.142392 0.9897 0.0148046)
(0.18991 0.981565 -0.0215301)
(0.00849493 0.999948 -0.00560977)
(-0.439643 0.897945 0.0202401)
(-0.427661 0.903758 0.0181043)
(-0.155821 0.987637 0.0171017)
(0.0982381 0.995058 -0.0144543)
(0.133991 0.990833 -0.017218)
(0.0468217 0.9989 -0.00260651)
(0.03733 0.999303 -0.000719731)
(0.0365305 0.999333 -7.08566e-05)
(0.00469264 0.99996 0.00761896)
(-0.0311053 0.999486 0.0076953)
(0.00409069 0.999962 0.00764429)
(0.00469453 0.999964 0.00707263)
(-0.0317004 0.999469 0.00756064)
(0.0039994 0.999964 0.00749602)
(0.0315391 0.999497 -0.00322434)
(-0.00467587 0.999989 0.000865784)
(0.0180459 0.999836 0.00176577)
(0.0466571 0.998896 -0.00539369)
(0.0386156 0.999253 -0.00176763)
(0.0406066 0.999169 -0.00340822)
(-0.0200834 0.999789 0.0043369)
(0.00665499 0.999959 0.00619536)
(0.0106658 0.999933 0.0045864)
(0.00958338 0.99994 -0.00528416)
(-0.401158 0.915833 0.0179299)
(-0.406551 0.913415 0.019721)
(0.032306 0.999435 -0.00932731)
(-0.144262 0.989383 0.0175789)
(0.0427687 0.999033 -0.010152)
(0.073717 0.9972 -0.0125554)
(-0.150886 0.988388 0.0179809)
(0.0561265 0.998361 -0.0111926)
(0.145509 0.989357 0.000288088)
(0.5041 0.862992 -0.0335796)
(0.504667 0.862648 -0.0338885)
(0.0549116 0.99849 0.00165911)
(0.0766213 0.99701 -0.00998093)
(0.0527281 0.998608 0.00159699)
(0.0484435 0.998825 0.00149716)
(0.0791435 0.996809 -0.0103876)
(0.0505684 0.998719 0.00154393)
(0.0155202 0.999745 -0.0163972)
(0.0470582 0.998812 -0.0126196)
(0.0140858 0.999776 -0.0158098)
(-0.0469825 0.998795 -0.014192)
(-0.0199977 0.999738 -0.0111079)
(-0.0203128 0.999728 -0.011446)
(0.0448639 0.998919 -0.0121756)
(0.0119418 0.999819 -0.0147866)
(0.0129041 0.9998 -0.0152788)
(0.138616 0.990346 -0.000364121)
(0.54452 0.838033 -0.0346268)
(0.544265 0.838218 -0.0341468)
(0.0417772 0.999126 0.0011962)
(0.0922439 0.995663 -0.0120699)
(0.0429065 0.999078 0.00131238)
(0.0463964 0.998922 0.00144954)
(0.0883996 0.996017 -0.0116223)
(0.0444947 0.999009 0.00139288)
(0.0097365 0.999869 -0.0129436)
(0.0387331 0.999193 -0.0106146)
(0.0100792 0.999859 -0.0134078)
(-0.0432744 0.998976 -0.0132044)
(-0.0195886 0.99975 -0.0107919)
(-0.0190842 0.999763 -0.0104854)
(0.0399609 0.999141 -0.0109956)
(0.0111631 0.999835 -0.0143174)
(0.0105522 0.999848 -0.0138609)
(0.749925 -0.661523 -0.00107454)
(0.821759 -0.569833 -0.00156276)
(0.0261733 0.999644 -0.00515232)
(-0.24811 0.968637 0.0135369)
(-0.25508 0.966791 0.0157716)
(-0.00604816 0.999965 -0.00576358)
(-0.0859349 0.996216 0.0129601)
(-0.0030804 0.999976 -0.00613933)
(0.00354602 0.99997 -0.00686158)
(-0.0925478 0.995617 0.0135019)
(0.000193669 0.999979 -0.00651321)
(0.00565351 0.999956 0.00747332)
(-0.0253934 0.999651 0.00725411)
(0.0068416 0.99995 0.00725862)
(0.0471633 0.998885 -0.00196067)
(0.0367574 0.999324 0.000590331)
(0.0363465 0.999339 0.000648729)
(-0.0228815 0.999714 0.00697189)
(0.00966082 0.999931 0.00670568)
(0.00820049 0.999942 0.00699221)
(0.0169895 0.999842 -0.00517343)
(-0.292705 0.956054 0.0168935)
(-0.285776 0.958183 0.0147608)
(0.024091 0.999672 -0.0086681)
(-0.121784 0.992429 0.0159053)
(0.017434 0.999815 -0.00811755)
(0.00747759 0.999946 -0.00724118)
(-0.114178 0.993343 0.0152917)
(0.0120477 0.999898 -0.00765508)
(0.0160446 0.999856 0.00551203)
(-0.0124866 0.999905 0.00578533)
(0.0144286 0.999879 0.00578706)
(0.0481909 0.998836 -0.00220312)
(0.0372754 0.999305 0.000494663)
(0.0378739 0.999282 0.00039448)
(-0.0150238 0.999869 0.00606294)
(0.0112209 0.999917 0.00639432)
(0.0128228 0.999899 0.00608286)
(0.0080063 0.999965 0.00234735)
(-0.00417474 0.999955 0.0085764)
(0.963185 0.233993 -0.13237)
(0.00642511 0.999979 0.000672392)
(0.111079 0.993798 0.00529107)
(0.00691881 0.999975 0.00154112)
(0.00657945 0.999978 0.00110389)
(0.917166 -0.398503 -0.00103487)
(0.103216 -0.446692 0.888714)
(0.838829 -0.510607 0.188801)
(-0.163603 -0.311483 0.936062)
(0.947128 -0.320116 0.0217668)
(-0.0253675 -0.451187 0.892069)
(-0.190438 -0.270399 0.943725)
(0.877635 -0.462633 0.12541)
(-0.659004 0.205084 0.72364)
(0.755368 0.465279 -0.461449)
(0.562116 0.631288 -0.534323)
(0.627843 0.608107 -0.485818)
(0.81129 -0.126527 -0.570788)
(0.605957 0.533125 -0.590419)
(0.403701 0.719683 -0.564873)
(0.904929 -0.425519 -0.00601309)
(0.909042 -0.416688 -0.00374015)
(-0.0105217 -0.58294 0.812447)
(0.723359 -0.61129 0.321056)
(-0.167086 -0.350363 0.92159)
(-0.474272 0.759899 -0.444545)
(0.0402447 -0.493175 0.868999)
(-0.176653 -0.498059 0.848959)
(-0.515999 0.745687 -0.42154)
(0.0124501 0.999918 -0.00298127)
(0.0900554 0.995937 -0.000667135)
(0.0110792 0.999935 -0.00251064)
(0.973956 -0.179053 -0.139103)
(0.00981191 0.999949 -0.00239998)
(0.000332681 0.999985 0.00554318)
(0.0127174 0.999913 -0.00338986)
(0.213749 0.976888 -0.000670965)
(0.866582 0.498998 -0.00602889)
(-0.0724338 0.997373 0.000323709)
(0.140172 0.990123 -0.0029335)
(0.865489 0.500893 -0.00588489)
(-0.0281825 0.999602 -0.00094416)
(0.208942 0.977928 -0.000290296)
(0.995696 -0.0925754 -0.00428482)
(0.840356 0.51447 -0.170652)
(-0.179753 0.983699 -0.00494588)
(0.751672 0.659176 -0.0218105)
(0.843462 -0.537118 -0.00875799)
(0.0222619 0.999731 -0.00657071)
(0.752827 0.657854 -0.0218851)
(0.844544 -0.535415 -0.00878678)
(-0.182126 0.983263 -0.00481343)
(0.919954 0.391097 -0.0269806)
(0.714258 0.699801 0.0106451)
(0.925692 0.361481 -0.111471)
(0.838665 0.541893 -0.0547089)
(0.936782 0.346699 -0.0473287)
(0.878354 0.477999 -0.0032698)
(0.909287 0.410535 -0.0682514)
(0.914971 -0.403516 -0.00158414)
(0.910187 -0.414184 -0.00335392)
(0.206253 0.978499 0.000100373)
(0.867019 0.498236 -0.00626893)
(-0.110459 0.99388 0.00144206)
(0.135173 0.990819 -0.00223491)
(0.209395 0.977831 -0.000197011)
(0.867558 0.497295 -0.00641377)
(-0.130947 0.991387 0.00216327)
(0.203908 0.978989 0.00131498)
(0.134477 0.990916 -0.000856874)
(0.866639 0.498856 -0.00889757)
(-0.119695 0.9928 0.0045839)
(0.867052 0.498142 -0.00874243)
(-0.129339 0.991589 0.00465597)
(0.20256 0.979269 0.00152059)
(0.984537 -0.175138 -0.00374563)
(0.886791 -0.462166 -0.00217124)
(-0.186753 0.982397 -0.00449192)
(0.754721 0.655681 -0.021875)
(0.842012 -0.539386 -0.00879923)
(0.0128046 0.9999 -0.00595655)
(-0.185418 0.982649 -0.00453384)
(0.753652 0.656909 -0.0219024)
(0.840855 -0.54119 -0.00878024)
(-0.196292 0.980538 -0.00381282)
(0.0114486 0.999921 -0.00522659)
(0.681273 0.731672 -0.0228687)
(0.824637 -0.565584 -0.00937078)
(0.692759 0.720805 -0.0229052)
(0.826057 -0.563508 -0.00934682)
(-0.195995 0.980597 -0.00389895)
(0.215345 0.976534 0.00266655)
(0.148558 0.988904 0.000615973)
(0.854009 0.520108 -0.0125265)
(0.0011062 0.999992 0.00397142)
(0.855274 0.51803 -0.0123109)
(-0.00614588 0.999973 0.00401942)
(0.214728 0.97667 0.00291357)
(0.20357 0.979059 0.00167893)
(0.13628 0.99067 -0.000612558)
(0.866297 0.499446 -0.00912744)
(-0.114006 0.993469 0.00461334)
(0.865727 0.500431 -0.00928368)
(0.204438 0.978878 0.00147873)
(-0.104528 0.994512 0.0045408)
(0.724599 -0.68917 -0.000998275)
(0.854136 -0.520047 -0.00182313)
(-0.201339 0.979515 -0.00359346)
(0.0287317 0.999574 -0.00510281)
(0.451443 0.892068 -0.020335)
(0.795191 -0.606267 -0.0105261)
(0.473802 0.880385 -0.0208478)
(0.798093 -0.602443 -0.0105031)
(-0.200903 0.979604 -0.00368061)
(-0.196721 0.980452 -0.00387589)
(0.0141505 0.999886 -0.00520117)
(0.673871 0.738493 -0.0229465)
(0.823364 -0.567434 -0.00946594)
(-0.197001 0.980396 -0.00378939)
(0.661991 0.749162 -0.0228988)
(0.821832 -0.56965 -0.00949458)
(0.85284 0.522015 -0.0128356)
(0.00630129 0.999972 0.00399466)
(0.217091 0.976147 0.00288031)
(0.433669 0.900851 -0.0199724)
(0.792883 -0.609281 -0.0106397)
(-0.202488 0.979278 -0.00353723)
(0.91408 -0.405533 0.000956981)
(0.821976 -0.403302 -0.402123)
(0.793673 -0.607057 -0.0395753)
(0.873797 -0.458448 0.162188)
(0.744327 -0.663237 0.0780662)
(0.737525 -0.627731 0.249019)
(0.119609 -0.4174 0.900817)
(0.764083 -0.643776 0.0415851)
(0.999971 -0.00375134 -0.00666879)
(-0.41469 0.77893 -0.470425)
(-0.224478 0.947663 -0.227034)
(0.062872 -0.632304 0.772165)
(-0.636241 0.760675 -0.12873)
(-0.374402 0.720429 -0.583785)
(0.864285 -0.331946 -0.37792)
(-0.485519 0.860675 -0.153331)
(0.906485 -0.422209 -0.00501127)
(0.907506 -0.420015 -0.0045232)
(0.0553343 0.99536 -0.0787212)
(-0.150888 0.987295 -0.0498215)
(0.0660403 0.997468 -0.0263847)
(-0.0238775 0.998523 -0.0488055)
(0.0459386 0.997857 -0.0465966)
(0.0670542 0.997457 -0.0241673)
(-0.0494154 0.995457 -0.0813882)
(0.0235422 0.999649 -0.0121149)
(0.776266 0.617778 -0.125546)
(0.028958 0.99958 0.000693224)
(-0.0121725 0.999572 -0.0265973)
(0.0327039 0.999188 -0.0235437)
(0.0486765 0.998786 -0.00749628)
(-0.00349253 0.999885 -0.0147665)
(0.284665 0.95862 -0.00374643)
(0.210516 0.97757 -0.00638952)
(0.843686 0.53679 -0.0070301)
(0.84418 0.535599 -0.0222275)
(0.872792 0.488066 -0.00517955)
(0.359807 0.933009 -0.00579299)
(0.743424 0.668547 -0.0190977)
(0.601854 0.798436 -0.0165224)
(0.80749 0.589695 -0.0148113)
(0.944588 0.328189 -0.00670796)
(0.844735 0.53442 -0.0286085)
(0.851037 0.524879 -0.0154598)
(0.532067 0.846614 -0.0122424)
(0.878018 0.477386 -0.0344607)
(0.974018 0.226375 -0.00664398)
(0.967378 0.253008 -0.0129171)
(-0.104564 0.994471 -0.0096693)
(0.125034 0.992096 -0.0105625)
(0.825537 0.563608 -0.0288767)
(0.871999 -0.489403 -0.0101114)
(0.810687 0.584898 -0.026087)
(0.872078 -0.489272 -0.00968237)
(-0.0137097 0.999807 -0.0140505)
(0.61226 0.78984 -0.0359189)
(0.597731 0.801309 -0.0249194)
(0.829548 0.557425 -0.0335855)
(0.927996 -0.372349 -0.0134191)
(0.810208 0.584719 -0.0408197)
(0.981331 -0.191367 -0.0191681)
(0.285561 0.958043 -0.0246611)
(0.912925 -0.408121 -0.00233815)
(0.911769 -0.410694 -0.00269937)
(0.203581 0.979058 0.000633666)
(0.132049 0.991242 -0.0015522)
(0.868665 0.495344 -0.00747983)
(-0.16791 0.985793 0.00431661)
(0.868678 0.495323 -0.00734231)
(0.201673 0.979452 0.000850378)
(-0.172375 0.985022 0.00422106)
(0.201619 0.979463 0.00103023)
(0.132414 0.991194 -0.00126087)
(0.868618 0.495422 -0.00767956)
(-0.166994 0.985948 0.00448789)
(0.868366 0.495863 -0.00781598)
(0.203006 0.979177 0.000828584)
(-0.159988 0.987109 0.00451003)
(0.95628 -0.292435 -0.00311238)
(0.93314 -0.359502 -0.0027213)
(-0.192555 0.981278 -0.00401416)
(0.00777927 0.999955 -0.00546709)
(0.737992 0.674438 -0.0223945)
(0.834283 -0.551264 -0.0089575)
(0.744479 0.667271 -0.0223637)
(0.835378 -0.549603 -0.0089546)
(-0.192561 0.981277 -0.00407007)
(-0.193657 0.981061 -0.00400777)
(0.00856913 0.999949 -0.00533992)
(0.734813 0.677896 -0.0225198)
(0.833262 -0.552805 -0.00903032)
(0.727524 0.685711 -0.022552)
(0.832033 -0.554652 -0.00903879)
(-0.193636 0.981066 -0.00394299)
(0.209121 0.977887 0.00234612)
(0.143193 0.989695 9.51101e-05)
(0.861328 0.507934 -0.0108181)
(-0.049851 0.998748 0.00426592)
(0.860309 0.509654 -0.0110205)
(0.20954 0.977798 0.00213714)
(-0.0409404 0.999153 0.00417899)
(0.208033 0.97812 0.00196351)
(0.140232 0.990119 -0.000187386)
(0.86208 0.506662 -0.0105678)
(-0.0564781 0.998395 0.00427954)
(0.862792 0.505453 -0.0103707)
(0.207197 0.978297 0.00218136)
(-0.0663137 0.997789 0.0043852)
(0.769896 -0.638168 -0.00118477)
(0.800971 -0.598702 -0.00140787)
(-0.198941 0.980004 -0.00378901)
(0.0235309 0.99971 -0.00516179)
(0.575763 0.817308 -0.0224388)
(0.81068 -0.585404 -0.0100368)
(0.558507 0.829203 -0.0221943)
(0.808708 -0.588123 -0.0100757)
(-0.199454 0.9799 -0.00369456)
(-0.198899 0.980013 -0.00371448)
(0.0194425 0.999798 -0.00516325)
(0.587955 0.80858 -0.022513)
(0.812307 -0.583145 -0.0099277)
(0.604402 0.796356 -0.0227145)
(0.814183 -0.580525 -0.0098919)
(-0.198431 0.980107 -0.00380645)
(0.99366 0.0936482 -0.0622034)
(0.997319 0.0317031 -0.0659489)
(0.995873 0.0676152 -0.0605465)
(0.999409 -0.0286957 -0.018921)
(0.993578 0.111936 0.016508)
(0.963335 0.237649 -0.124533)
(0.974592 0.210359 -0.0769439)
(0.991899 0.125737 -0.0180641)
(0.997077 0.0561261 -0.051833)
(0.997637 -0.0578473 0.0370573)
(0.9936 0.0948879 -0.0612843)
(0.996462 0.0348172 -0.0764893)
(0.998034 -0.00300952 0.0625989)
(0.963038 -0.15381 0.221135)
(0.976296 0.0683976 -0.20535)
(0.992135 0.109162 -0.0612448)
(0.942847 0.275288 -0.187764)
(0.990841 0.0674129 0.116999)
(0.925705 -0.0564183 0.374015)
(0.910926 0.328349 -0.249803)
(0.993054 0.0999147 -0.0621383)
(0.993293 0.0435135 -0.107128)
(0.998863 0.0391506 -0.0272143)
(0.986882 -0.0987768 0.127699)
(0.00523738 0.999986 -0.000725231)
(0.975339 -0.175968 -0.13323)
(-0.0143263 0.999882 0.00561893)
(0.00618248 0.999981 -0.000425843)
(0.0030229 0.999979 0.00580293)
(0.0032139 0.999995 0.000619728)
(-8.71809e-05 0.999999 0.00139886)
(0.00357748 0.99999 0.00250577)
(0.00171011 0.999996 0.00233468)
(0.00155759 0.999993 -0.00336861)
(0.0062887 0.999973 -0.00385404)
(0.916387 -0.400293 -0.000729)
(0.540727 -0.559412 0.628229)
(0.807311 -0.560079 0.185902)
(0.685659 -0.660729 0.305466)
(0.535907 -0.557537 0.634001)
(0.827277 -0.539836 0.155531)
(-0.112465 -0.389815 0.914)
(0.935992 -0.351183 -0.024268)
(-0.159512 -0.268272 0.950045)
(0.874326 -0.477607 0.0862887)
(-0.164479 -0.256139 0.952544)
(0.646783 -0.52009 0.557834)
(0.881565 -0.466227 0.073997)
(0.729 -0.576285 0.369398)
(0.72308 -0.64599 0.244646)
(0.822071 -0.555182 0.126384)
(0.609935 -0.59262 0.5261)
(0.829628 -0.5457 0.118021)
(0.951258 0.122916 -0.282844)
(-0.320507 0.716636 -0.619442)
(-0.012948 0.845331 -0.534086)
(-0.570923 0.80633 -0.154528)
(-0.358645 0.889074 -0.284468)
(-0.222724 0.966097 -0.130575)
(0.491444 0.722123 0.486849)
(-0.0910324 0.786896 -0.610334)
(0.681773 -0.358809 -0.637528)
(-0.344719 0.871741 -0.348191)
(-0.632606 0.174477 0.754565)
(-0.539914 0.768442 -0.343497)
(-0.422851 0.806382 -0.413454)
(0.588975 -0.21961 0.77774)
(-0.383149 0.780667 -0.493717)
(0.905235 -0.424872 -0.00578153)
(0.908856 -0.417092 -0.00390305)
(0.996026 0.0605824 -0.0652858)
(0.996973 0.0459093 -0.0627407)
(0.999185 -0.0305546 -0.0263694)
(0.997404 0.0665206 -0.027589)
(0.998197 0.0541694 -0.0258436)
(0.997848 0.00852791 -0.0650066)
(0.996584 0.0526235 -0.0636533)
(0.994601 0.0799239 -0.0661943)
(0.997962 -0.0110572 -0.0628399)
(0.999191 -0.00816914 0.039382)
(0.996672 -0.0121932 0.0805986)
(0.996985 0.077413 0.00533782)