/*--------------------------------*- C++ -*----------------------------------*\
| =========                 |                                                 |
| \\      /  F ield         | OpenFOAM: The Open Source CFD Toolbox           |
|  \\    /   O peration     | Version:  2012                                  |
|   \\  /    A nd           | Website:  www.openfoam.com                      |
|    \\/     M anipulation  |                                                 |
\*---------------------------------------------------------------------------*/
FoamFile
{
    version     2.0;
    format      ascii;
    class       volScalarField;
    location    "0.107/solid";
    object      sigmaHyd;
}
// * * * * * * * * * * * * * * * * * * * * * * * * * * * * * * * * * * * * * //

dimensions      [1 -1 -2 0 0 0 0];


internalField   nonuniform List<scalar> 
3125
(
165.137
433656
250.816
528567
227781
321260
218.947
231.683
164.858
270.495
218.595
408928
345.794
-124448
-63523.4
198531
439205
621597
418533
-60831.5
-42544.4
733601
426918
327702
402417
-48972.3
-61284.9
308421
432503
333166
412141
-31066.2
-41066
318016
214151
-47358.4
302326
-36088.4
232647
326701
222693
-29661.3
311882
-20227.6
221818
208524
226632
216972
211.562
268.32
101.692
169.983
-1398.67
480648
4422.39
491510
4642.02
270582
276818
261.189
276.394
163.92
163.914
262.503
267.858
230.863
220.245
282.427
277.392
218.894
281.984
201667
454153
226827
115.389
5315.15
-1331.96
4885.98
-74665.2
205007
155646
-5315.79
134622
-73651
150662
475959
5349.3
306671
233724
-7057.89
484691
492582
219946
461669
243750
-47039.4
268796
175034
153741
-47803.5
170180
471331
379241
249454
380065
373450
194888
357934
175440
-53885.1
100104
112657
130071
-55584.9
116916
351662
150674
169163
385681
379049
213193
367771
193531
-35299.7
118003
131032
149042
-36715.7
135440
361484
168228
187138
254487
103988
120982
95994.6
-42527.4
83921.8
260380
144618
126795
68542.9
-40917.2
79993.9
275767
282044
263595
119645
137519
113716
-25504.6
101015
269552
162005
143577
84484.6
-24150.3
96835.5
201.289
221.505
159.467
15.8413
60.6016
-27.2748
453827
38.755
678.796
313.024
585894
63882.4
22025.8
245930
302065
219.794
273.803
6.31704
173.331
-32.4686
-27.9353
164.324
-30.9988
221.367
223.454
289.666
234.828
280.414
274.018
218.466
274.443
321229
428362
335972
282.035
673.566
399.082
156337
-100269
4453.76
-2352.35
-815.851
4338.83
-66235.2
4241.51
544112
-246570
439550
472971
34137.9
459092
466098
332607
437409
347841
-56902
51243.5
30441.9
24235.3
-44180.3
24901
489977
601001
434290
406754
347189
314729
383230
300588
-50593.3
2163.64
2509.39
4243.45
-59229.3
4071.04
326823
241664
255140
412393
352717
326870
393077
311997
-32475.3
19691.3
20228.5
23601
-39581.6
23014.7
336533
252701
266808
231241
167730
180322
1825.22
-45747.9
1497.04
284206
235945
222643
-135.751
-37697.1
90.3778
250943
307426
240046
177657
190766
19158.4
-28263.9
18628.4
293615
247372
233486
15414
-21509.5
15961.6
162593
172574
229.55
228.601
205.645
249.752
238.104
252.795
264.752
250.161
122.526
-110.045
-66.4211
34.5202
-806.328
-52.2047
-807.324
-1553.85
-542.002
460742
742.258
1941.15
520.961
569312
28431.6
3332.89
11013.9
252042
295721
244.32
286.98
170.758
-35.3291
-35.1814
164.092
-34.1163
-32.024
228.023
225.798
245.81
264.322
247.854
251.882
266.229
250.02
266.829
265.121
283.477
224.287
277.645
279.382
279.174
292.273
291.3
287.643
278.68
288.519
218.494
276.358
275.199
280.311
291.375
289.805
267770
209080
277235
435800
362736
343818
216257
299966
286593
186.719
-86.1452
84.7538
1099.58
2026.13
132.997
-952.056
-881.417
-708.323
45122.1
-808.743
-15901.1
-123189
3577.17
-18250.6
103268
188344
42786.9
92990.6
17224.9
77543.9
186068
83568.7
-3453
-1344.26
-7609.4
68931.5
139525
71327.1
-68786.3
3085.72
4186.94
144243
75911.1
73591.7
520526
378546
475205
70270.9
-2707.92
7690.94
404967
280544
66261
362044
69148.3
310461
289668
394717
-7520.51
6411.67
3745.02
465770
539618
286426
227202
295619
444011
371895
354517
234069
316476
304562
-59352.7
28379.1
25933.6
158247
194345
111678
100701
190849
108249
88682.1
158786
91538.1
-45395.9
26554.9
25815.3
163631
97888.8
94395
532875
382014
413685
504190
278282
360089
325282
275205
357072
400059
353720
258928
188247
250251
376862
280603
294445
181798
233394
241769
-52227.2
3199.31
2857
50666.5
104252
52898
57415.4
108436
55148.5
66606.2
125589
64282.3
-57355.8
3525.66
3821.42
121225
59693.9
61984.5
333007
274628
260983
200711
156783
208777
225115
162945
216911
405696
359271
277689
206514
269031
386725
291925
306502
199989
252061
260510
-33886.7
21320.5
20771.1
68639.2
122317
71050
75922.8
126658
73477.2
86017.1
144410
83416.3
-38142.4
21877.1
22440.1
139897
78389.8
80885.5
342746
286507
272176
218872
174490
227089
243681
180793
235358
237008
198497
185626
138933
109573
146342
161457
115240
153852
48458
91925.5
46275
-44137.7
883.489
1182.71
87900.7
41998.1
44121.1
278206
203949
217053
192712
138617
184783
169151
132675
176928
33864.8
72300.9
35840
-39307.5
600.991
336.194
76119.1
39908.8
37855.2
257104
301049
245894
209323
195917
155143
125550
162881
178577
131508
170694
66243.8
109456
63862.5
-26877
17570.3
18099.8
105222
59140
61495
287563
214544
228204
210705
155821
202590
186523
149678
194528
49847.5
88568.9
52150.9
-22817.2
17038.1
16502
92686.5
56797.9
54468.3
92.5143
149.046
165.702
91.7195
150.137
91.5843
92.2161
440391
349.42
168.893
285.907
338.179
223.801
447.761
244.658
125567
616347
311287
261722
148252
437339
115406
233804
314845
137.93
143.617
258.256
194.638
183.636
201.921
116.088
91.1651
148.728
91.3475
164.89
91.1992
148.895
91.0072
376512
397222
382401
415341
403748
388411
370341
445875
652146
406687
390772
422728
424838
396731
428944
400836
541699
486669
722218
640019
560731
552006
695941
420199
334188
358040
390728
376232
396024
364092
384327
370253
282289
314534
297699
288378
303735
294063
276643
425812
339676
389033
384720
416469
405799
394924
378764
410209
312750
324171
296699
322997
302428
329141
306980
195275
219811
205143
200361
210683
205627
190112
265433
296270
291701
282668
285733
271021
277030
238724
320262
222581
228446
207768
227661
213119
233452
217126
295496
305777
290961
316888
301222
285275
310804
199648
195091
184984
202419
221921
211697
474806
1614.83
1749.96
6627.45
2557.81
3298.92
493.983
1340.2
495281
8169.96
1236.89
-658.6
3067.36
3071.86
13450.2
5705.69
264376
283102
89.8669
165.571
147.855
88.233
88.1587
149.649
88.719
88.605
163.878
146.863
88.3848
88.1068
147.491
88.783
415016
451507
446918
426647
441065
417602
423402
430836
467394
466220
447229
464676
445116
444370
478892
499359
434651
456962
433889
464038
428194
458558
440063
447884
477557
443587
467634
453143
473358
442945
386722
366857
328296
364220
346556
334616
352785
322454
340466
310860
345428
340368
328737
334207
316640
322933
392348
372445
359462
374075
343156
372519
349033
378791
353574
341841
355224
337270
366272
331434
360050
347691
221639
248635
244659
238002
238914
227006
232555
237845
266293
250435
243522
256253
232411
249024
269525
288365
250217
257673
245905
268666
240392
262743
255799
267054
275534
251476
274622
257041
280614
261419
240.02
192.038
161.858
216.57
6.77705
297.787
230.826
136.549
37.8512
192.399
279.769
107.447
-1198.71
206.82
-649.094
1033.38
553.658
-350.376
-1343.25
1439.25
450.31
-107.333
-297.251
174.804
93.2637
166.107
150.764
92.6014
-10.3034
16.9147
-27.9528
-10.4321
17.2187
-27.913
17.4976
447161
177.948
83.3769
93.7416
97.8512
140.435
422.641
394.045
983.21
495.445
442.162
734.839
298.847
279.822
176.661
342.271
469.425
202.318
1.13359e+06
56388.2
151358
-108363
20536.3
-334468
29934
66273.3
2149.38
75670.7
5061.2
14399.4
43496.9
5456.11
31754.4
239851
308454
223.006
233.164
198.948
199.788
198.271
223.049
234.078
224.438
232.626
285.896
308.487
258.02
176.206
177.173
256.958
257.402
286.6
308.515
285.64
308.937
20.6916
56.3077
-14.8426
52.8375
34.2737
120.535
186.26
166.37
95.8754
184.521
103.341
105.475
3.27055
-26.589
16.2321
-8.1944
23.7441
-12.0816
16.4398
-29.8077
-10.9516
15.7176
90.6887
164.7
147.772
89.9217
148.699
89.5225
90.5326
-13.3122
-31.0419
14.1502
-14.1639
14.9085
225.727
237.821
227.702
235.507
200.929
200.683
225.659
233.957
224.723
235.559
201.717
203.262
218.51
408.511
228.932
381.556
417.75
276.668
235.806
239.868
234.581
198.185
208.981
329.257
503.581
109.938
142.165
545.526
288.072
308.181
310.9
284.215
256.402
175.791
258.008
176.217
284.996
309.783
287.199
308.23
258.51
175.084
175.999
255.609
312731
306830
383201
422069
417150
400795
410488
394856
389448
295417
300801
1364.49
-1013.48
1738.12
-279.01
300.253
323.798
465.68
605.255
882.435
1016.85
428.456
798.85
-32.3481
895.539
788.336
-217.082
-91077.2
-58894.2
-9268.35
-332355
-108749
-22075.7
-114905
-64470.4
-231557
-27636.7
-7903.1
-8373.65
-26788.1
-70120.7
-69818.4
-73335.7
-72725
-25735.9
-7724.33
-26029.6
-7544.6
729442
790669
489568
383266
257674
521290
648870
1.14245e+06
520578
1.02999e+06
552133
1.00302e+06
666571
-130384
1.37124e+06
-402246
452554
582593
358515
353968
412539
431267
408789
441184
402888
435126
418275
344225
348853
55330.6
77112.7
56856.3
72751.7
-9405.43
-10474.7
-1687.6
4066.63
52441.2
107863
78483.4
54337.9
36837.8
54293.4
53700.6
36693
-10870
-10658.7
35498.2
52101.7
35696.7
52620.9
-10908.3
-11064.3
382675
409955
474960
466746
527719
460072
562203
474596
436813
555773
442205
413477
340680
274717
279632
351984
389598
371602
358265
377946
364203
346011
289915
284830
-23240.9
-9103.31
-23206.7
-9232.64
-56091.1
-55522.4
-56963
-57536.8
-23084.2
-9624.45
-23104.2
-9497.95
-24373.7
-7576.96
-7491.29
-24425.7
-67163.7
-67769.8
-25044.5
-7429.22
-24947.8
-7523.12
-65667.8
-65012.6
231397
226836
287959
320674
315849
305539
309783
299816
293641
217578
222090
419107
346192
324495
329155
383105
399428
366826
397628
372765
403926
377191
339011
334360
31357.9
44967.3
31189.9
44488.8
-4952.61
-4701.97
-5558.35
-5811.97
30735.6
43533.7
30885.7
44013.9
33846
49561.3
50051.4
34071.8
-10169.8
-10422.8
34811.6
51249.2
34584.6
50752.4
-9804.48
-9543.09
280157
275562
318543
330347
313969
341446
308205
335290
324332
265899
270479
159770
155653
200477
225512
221869
216297
216255
210966
205713
147306
151349
-22811.7
-10355.2
-10242.5
-22795.6
-54085.4
-54652.5
-53212.1
-52644.5
-22959.5
-9879.36
-22954.7
-10000.7
199336
203752
259861
290222
273855
265767
279787
271365
254315
212873
208406
-21514.6
-11531.1
-11576.2
-21648.4
-44216.3
-43590.5
-45164.2
-45775.3
-21300.5
-11680.2
-21142.8
-11657.6
244822
313843
203996
199568
228065
234235
223938
245080
218531
239259
233556
190319
194718
29819.7
41617.8
42104.8
29930.3
-3854.58
-4096.25
30413.5
43060.4
30280.2
42578.5
-3254.41
-3016.94
246706
251251
289769
299685
273926
298662
279575
304732
284065
260842
256282
27214.2
37055.7
36539.3
27217.9
1197.1
1345.29
26609.4
35439.7
26576.1
35970.2
715.212
557.399
143078
207.317
231.633
232.928
223.747
209.143
199.137
182.988
214.333
231.729
234.574
237.821
223.127
162.131
232.463
191.49
259.115
356.542
-113.445
-60.7845
420.393
260.257
97.3122
192.755
18.2551
139.916
332.046
303.377
122.897
259.143
232.297
248.142
222.249
253.177
284.403
275.213
254.916
245.29
253.266
248.308
258.068
283.533
218.469
221.701
298.27
350.129
-600.762
-116.817
-1109.34
-558.846
667.57
507.877
-708.402
-322.899
99.112
-115.218
278.744
920.037
-2135.1
-1748.01
1320.25
2922.27
-2020.27
-3687.78
440.566
-12745.1
14595.5
4595.95
-4229
-10321.8
578.065
-5329.15
7267
-3006.32
-628.155
625.939
-1738.64
4898.9
-14110
7519.25
-11945.8
-4781.88
3128.1
2065.46
-5827.63
1380.06
-4590.2
-1807.74
-7201.55
467242
1656.37
1248.81
702.44
586.371
822.89
2176.55
1112.43
1519.4
1761.55
1291.51
2255.46
1089.81
1084.34
478.262
839.907
710.397
784.418
533712
9795.84
7329.11
73415.3
3670.63
-387.489
-21163.2
9238.52
4115.96
2722.07
5282.62
3895.45
3211.77
7940.28
8344.2
7451.03
9233.94
6202.12
258203
289401
251.048
248.771
262.828
270.325
268.761
264.503
263.697
269.959
249.965
249.847
248.112
251.577
296.337
304.033
287.784
283.675
282.219
288.81
288.152
283.059
296.329
304.323
304.477
296.852
91.8817
166.254
158.029
92.1965
96.6185
152.946
89.5822
-17.4631
11.2281
-36.8493
-17.3369
10.9759
-16.6859
13.0367
-37.1358
-13.6063
11.2648
89.2438
164.188
147.587
89.4812
89.016
147.653
89.1702
-16.2105
11.8326
-34.2808
-16.4573
12.349
-15.7885
13.4626
-33.7674
-15.099
12.8683
229.326
237.208
227.121
239.105
203.137
207.205
227.023
239.49
231.089
237.222
204.795
203.511
253.083
252.971
250.797
254.855
265.783
269.94
263.958
271.33
252.975
249.424
251.294
251.173
265.586
272.492
266.883
271.967
255.275
252.551
253.901
255.076
270.713
267.826
263.916
277.764
256.425
253.286
253.109
253.678
266.821
274.52
267.875
271.933
156.604
412.948
177.734
405.04
535.239
-131.887
500.798
-139.124
126.337
370.751
126.079
387.298
567.001
-27.5735
569.356
-77.3521
328.085
278.828
256.664
351.933
249.818
176.326
177.605
271.29
288.655
184.6
243.616
182.732
273.1
328.837
297.351
305.526
342.607
258.429
246.642
350.642
269.952
301.56
266.493
308.634
330.7
227.893
321.238
230.426
280.315
326.092
288.215
318.125
298.867
304.026
306.744
296.601
288.989
283.471
288.998
284.272
296.765
305.438
304.267
297.547
290.476
284.647
285.175
288.95
283.001
313.571
290.301
307.048
263.513
174.886
175.115
253.131
254.684
174.693
260.016
175.675
295.108
304.738
280.361
318.235
295.861
309.669
301.533
302.751
298.302
280.146
292.452
284.168
288.144
287.83
284.055
293.241
306.863
299.32
292.591
314.934
248027
274102
271603
249763
192010
172385
174332
190292
198657
181032
199239
179878
240811
260761
264475
237949
320116
326869
403194
441453
424598
408035
397371
431365
413436
344011
336316
257864
285222
260708
282915
223276
191499
200759
210047
205629
189003
209136
187088
277967
288905
304944
263162
2147.23
-2100.96
2060.89
-2406.01
-844.774
854.556
-804.276
937.752
1991.91
-2471.05
1784.2
-2623.52
-722.089
987.343
-598.761
1003.96
-1021.1
3986.26
2613.54
-3671.79
-1079.95
8068.01
-1273.2
12835.4
2440.02
572.691
1144.92
2501.48
4025.58
-10323.8
9377.89
-441.1
-7345.75
5066.56
5319.22
-6755.5
12215.5
-17828.1
10529.8
-19514.9
-7571.38
4313.87
-6982.08
4911.32
13499.1
-19163.3
12752.2
-20116.3
-69077.7
40550.1
-40359.5
-23398.3
47494.9
-41081.6
11933.8
-12772.5
-28228.4
3541.37
-138416
190128
-62120.7
-28028.2
-59286.4
-29510.3
-62194.7
-102929
-139482
-102987
-24416.1
-18513.1
-8435.16
-45734.1
50708
3582.81
-14269
-478.13
77639.4
92539.6
90065.7
224961
234927
147541
173193
135398
67916.5
39401.3
38687.7
64616.6
114960
154780
129899
131797
60097.2
41749.4
42741.5
66660.5
142624
154410
134121
174706
14775.4
-57067.5
-13996.6
-34385
-31461.5
19879.9
11777.4
-35665.4
-16666.6
-5337.02
4726.59
-12310.1
24525.5
-87387.5
-87554.5
46622.8
59437.6
42433.2
41537.3
59884.4
107952
122884
123990
106561
111149
128748
128319
112153
57693.2
40046
40906.4
57043
-27783.1
-9813.36
-30538.2
-8349.05
-86955.1
-74600.8
-74647
-78536.9
-35568.3
-9252.13
-28311.4
-12794.6
61733.6
42673.5
61944.4
43570.1
122460
135517
142873
118275
115846
134846
132950
116356
64313.3
43915.3
62431.8
43163.2
424013
392715
541918
546134
515837
501236
461601
532394
507114
360925
368558
11626
-145940
-28328.1
78986.3
45408.3
-5265.29
26253.1
-11064.5
-79256.1
161365
245074
-56433.4
-3053.47
26582.1
8469.89
-37432.6
271932
556923
625745
355573
483347
488667
231777
305137
338530
181392
381949
407172
358508
297290
433967
325208
203320
218543
246715
185991
252999
341512
308173
275398
292668
230952
251352
237759
94133.2
-177047
101710
-175025
-53028.2
26865.7
32784.8
-48954.5
-60046.4
36705.6
36913.7
-59062.7
79337
-129410
61220.2
-132821
472048
514670
298095
321887
317779
301273
246503
228072
230111
243378
250412
236784
253659
234728
292873
308852
312975
289700
363548
367813
429542
449713
415219
447217
423982
420935
453033
374920
371681
309175
326776
306747
330192
264777
249419
248484
266964
260469
241673
257709
243170
314844
337559
335310
316196
50854
72569.2
57119.4
68111.8
-2459.76
-6985.64
46644
62893.6
65763
44209.7
-2478.43
5240.28
149005
130729
132264
150663
229290
348112
255022
294845
208095
223333
204251
224100
166960
174280
141068
228150
138954
125703
122403
141046
185187
202701
186713
202415
134578
115991
116246
133321
192770
208497
193803
208424
119528
104193
103692
120943
166436
179708
181849
165238
170121
187213
184947
171341
117388
100664
101130
116084
38434.9
55774.4
38331.1
56579.6
-9778.04
-8617.53
40647.1
59961.5
41416.6
58505
-10495.3
-10756.6
124900
107097
123432
107582
180875
198242
196278
181636
176297
190570
192641
175345
127776
111886
129548
111090
370907
370141
445587
487859
499089
461638
439634
464072
468577
377700
378183
346276
361938
369011
343589
340953
413841
314616
465379
297373
274795
280924
295021
394715
578661
424889
527525
325633
343941
347045
321045
269375
255225
271833
251805
317223
342569
322687
338605
277393
259249
260725
274987
393382
360289
223826
242014
246150
220538
182865
167889
185033
165649
228950
255184
251095
232190
178231
159342
175952
161621
269666
264864
334169
370538
365297
352285
340063
359029
346393
255184
259911
212417
237349
215693
233231
165124
147311
149552
162805
169299
155530
171617
153258
207716
224631
228705
204477
-23336.2
-8835.76
-23380.1
-8708.75
-59916.6
-60517
-23539
-8324.81
-8447.11
-23488.8
-59005.1
-58423.3
40573.5
28319.1
27587.4
41379.8
76522
87202.9
88679.1
75141.1
78878
92898.5
80290
91413.2
39084.2
25788.2
26498.4
38283.1
43703.1
29405.8
30159.4
42893.2
86483.8
101479
87948.7
99979.5
45231.9
32007.1
31236.6
46043.6
84098.5
95671.5
82661.1
97165.7
53084.6
36667.9
37485.8
52301.2
102297
119326
103824
117933
54660.7
39239.7
38401.3
55411.3
99758.3
113274
114743
98226.1
-24018.2
-7687.4
-23972.7
-7785.78
-62102.2
-61478.8
-23690.8
-8089.08
-23739.8
-7976.54
-63153.7
-63802.8
49940.5
35685.7
50744
34882.8
91837.6
104339
105842
90346.9
94255
110260
108760
95772.4
48394
33067
47583.3
33853.7
236187
240799
305100
339204
321942
311333
299358
328073
317099
250296
245634
181294
203428
199485
184415
139989
124304
126416
137711
143874
132100
129957
146167
176819
191278
195179
173734
192092
207776
211760
188935
156414
143664
158727
141457
196659
220180
199853
216154
152411
135675
137848
150109
399020
365856
276319
291093
295240
273104
236436
223636
239544
221544
281354
304105
299944
284578
232648
215150
229601
217239
319292
314639
365370
380398
360865
391339
371267
354957
385066
304811
309456
264905
286420
268122
282279
219079
202559
204665
216095
222822
210928
225841
208826
259965
273508
277635
256754
31654.8
45448.5
31838.8
45930.3
-7243.96
-7504.85
32338.2
46905.2
46423.4
32138.6
-6667.66
-6406.24
95375
83612.1
83045.2
96590.5
131330
141131
143101
130018
134286
147808
135584
145824
93764
80682
81261.3
92557.3
99426.7
85425
85974
98203.6
142875
157291
144155
155276
101051
88358.7
87822.1
102281
139859
150539
138568
152537
111063
95248.7
95734.3
109806
160560
176749
161790
174634
112865
98355.2
97878.3
114145
157267
169699
171773
156031
33435.9
48947.6
33214.4
48463.9
-8319.59
-8055.54
32653.9
47425.1
32865.2
47907.5
-8829.61
-9093.64
106837
93220.4
108083
92715.6
148480
160039
162072
147213
151591
166894
164842
152846
105161
90248.3
103925
90767.9
285269
289882
335987
348975
319782
347628
330156
325585
353837
299648
295020
232540
251517
247435
235729
192389
177844
179960
189512
196112
186097
183980
199016
227723
238824
242891
224542
243772
256085
260184
240573
209403
198445
212358
196332
248644
268889
251850
264776
205670
190141
192256
202744
164142
168329
216298
242804
227511
221700
210986
233203
227094
177011
172765
123368
140034
136484
126151
93470.3
81912.7
83723.2
91387.4
96834.6
88733.1
98951.3
86883.3
119343
129114
132600
116615
133080
143985
147593
130248
108051
99068
110230
97137.8
137244
155271
151606
140124
104540
91961.5
102391
93852
34592.1
22286.5
22950.2
33815
71449
84513.1
72805.1
83048.3
36029.7
24707.1
24019
36817.2
69139.3
78953.3
67815.2
80404.1
-22609
-10574.7
-22645.8
-10678.7
-50297.8
-49716
-51188.2
-51764.1
-22450.7
-10965
-10874.3
-22391.9
31649.6
21233
32413.5
20597.9
61990.5
70963.6
72376.5
60733.4
64239.7
76356.5
65533.6
74924.9
30287.1
18955.9
19563.1
29538.5
194731
190370
243312
272244
267961
260147
248795
262096
254597
181508
185813
161869
175120
178936
158860
131616
120797
133882
118718
166254
187014
183153
169303
127847
113202
115246
125600
151556
170950
167180
154525
116014
102406
113812
104378
147273
159340
144349
163056
119662
109772
107763
121889
23572.3
14888.3
14374.6
24258.3
48578.6
55940.4
57247.6
47462.7
50655.9
60904
59564.1
51809.4
22384.5
12968.6
13454.2
21723.1
-21955.6
-11417.4
-21849.1
-11358
-48223.5
-48813.1
-47305.8
-46708.3
-22140.9
-11135.6
-22221.5
-11212.8
26202.1
15839.3
25497.7
16388.8
57294.2
68472.7
67081.3
58519.6
55125.3
63280.9
64643.9
53934.4
27487.7
17947
28213.4
17368.8
263310
294701
208883
213340
244640
251769
229406
250939
239089
234872
256837
222741
218261
169525
183619
179678
172631
140271
129509
131623
137564
143960
137597
146692
135473
164917
171420
175337
161824
180393
187991
191956
177268
156855
149603
159627
147474
185058
200340
196355
188192
153142
141463
150396
143589
88135.3
75961.2
76567.7
86933.9
125769
138406
127087
136451
89742.8
78914.8
78320.4
90950.2
122855
131780
121526
133723
29437.4
41132.6
29347.1
40646
-1626.96
-1415.44
28856.3
39653.3
40148
28924
-2206.15
-2426.51
84121.5
74221.4
85319.2
73594.5
114410
122471
124394
113060
117293
129053
118628
127119
82497.6
71226.3
71866.5
81303.5
241700
237176
272712
281543
268266
292625
278372
262660
286615
227692
232198
211813
221719
225754
208647
182934
173850
185789
171729
216578
234303
230253
219751
179211
165639
167761
176380
200750
217243
213223
203906
166131
153512
163338
155634
196032
204768
192885
208772
169846
161688
159565
172661
72794
64723.7
64027.9
73989.2
97555.8
103933
105823
96176.5
100392
110447
108555
101765
71129.9
61604.3
62311.3
69934
27794.5
37602.2
27815.4
38116
-663.57
-858.844
28385.8
39142.7
28339.3
38640.4
-131.865
51.5726
76838.2
66443.9
75637.6
67115.4
108836
119736
117826
110194
105977
113185
115092
104612
78474.8
69499.8
79673.5
68840.3
78818.6
88107.1
125301
112663
345462
349342
325117
307717
354832
339669
311728
351962
322756
332093
366509
361030
319190
357833
611530
467466
496200
425840
491462
792911
478062
380744
359807
337206
338406
365288
375321
343067
386213
353215
343301
376624
371107
348586
391535
502869
656545
497190
658971
520037
485117
662182
454425
412280
465666
448340
490425
418268
440027
328093
343507
301231
310787
333750
338075
297088
322436
286885
304506
327027
332405
291024
316878
257909
263013
245506
228882
268140
252695
232879
263139
242329
278638
251286
273473
268397
238307
364341
354137
333018
322205
369796
348696
328325
358808
318323
316624
337700
343106
322991
353342
293488
273375
257056
259498
278569
288152
263954
298886
273661
289149
262403
283920
304248
269166
177723
182601
171397
156936
187345
172979
160653
182503
169298
197083
176620
192278
187320
165532
242343
257722
223514
232114
247510
252633
219537
237208
210284
242337
226459
247385
232089
214233
209614
191830
181621
184257
196681
204553
188405
214739
197613
206606
186733
201700
219846
193415
277475
268059
254303
243058
282784
262900
249880
272137
240318
252496
237752
257619
266855
244705
177735
152144
168273
186867
383570
393020
346617
357692
350056
385982
388479
371344
332479
373568
347177
365843
334075
378863
403634
410264
379111
388462
412858
358209
416343
489829
399084
497422
423697
490144
450619
457741
406579
402002
366702
373597
395167
369206
411360
402018
358872
382704
358485
396830
388443
363166
417363
409521
389335
379188
422952
413675
382810
416254
400614
456657
405236
420552
431172
391811
300446
305331
267111
284490
271202
295032
310613
305881
281039
321452
290540
311356
276920
316125
284304
299870
261483
270754
289659
257417
294630
278983
247819
284012
264846
273673
251862
289214
336857
315970
296464
298498
321303
303100
331418
342363
313021
332165
301911
347818
326796
308381
320520
310514
282014
293233
305217
325935
288667
315065
278890
294534
276622
309675
299797
283419
201975
216903
186954
194738
183104
206922
211990
197060
174259
202078
189359
192171
178068
206938
216908
222009
192062
207731
211898
195947
226970
221941
205044
237133
213252
227004
201123
232127
235367
226752
205187
216256
221750
211974
240553
230160
202658
211676
199996
225012
216631
206897
251016
231916
218723
221361
236961
245797
225678
256295
235163
247252
223975
261546
242166
230809
)
;

boundaryField
{
    left
    {
        type            zeroGradient;
    }
    bottom
    {
        type            zeroGradient;
    }
    interface
    {
        type            zeroGradient;
    }
    procBoundary2to0
    {
        type            processor;
        value           nonuniform List<scalar> 
47
(
219.329
260.402
275.58
166.174
-26.4063
218.767
218.767
218.767
219.329
219.329
219.329
273.671
273.671
273.671
243.416
260.402
260.402
243.416
243.416
286.405
275.58
275.58
286.405
286.405
92.9263
-10.1332
150.618
92.8096
-10.1332
-10.1332
17.8455
222.161
232.103
198.35
286.17
308.716
178.001
178.001
257.804
249.503
247.188
261.897
268.255
295.382
303.803
286.694
281.274
)
;
    }
    procBoundary2to3
    {
        type            processor;
        value           nonuniform List<scalar> 
328
(
142.442
142.442
142.442
100.135
100.135
100.135
100.135
-188935
-131355
-96943.6
165.23
165.23
165.23
166.739
166.739
166.739
-94156.6
-94690.2
-176984
-61453.9
-35632
-106244
-31287.1
-32218.8
-100480
-73604.2
-74521.7
-126838
-91434.3
-90499.7
-79336.2
-20571
-21618.9
-102735
-31260.8
-30228.1
-72406.2
-71484.4
-57396
-76052.6
-20123.7
-19098.5
-799.818
174.009
174.009
174.009
2370.15
-6330.86
-1337.61
965.341
-4416.15
-3181.5
-153325
-150103
-86417.3
-82937.6
172.978
172.978
172.978
-23123.1
16929.2
-366.41
-14940.1
11097.8
-140232
-82860.1
-100471
-117156
-119920
-30966
-25200.9
-118235
-31455.1
-32425.6
-111236
-81040.9
-80103.9
-114918
-82396.1
-83356.8
-89249.3
-26055.5
-24965.6
-92571.3
-26379.1
-27475.5
-65100.8
-66060
-63923.9
-62949.9
-66336.7
-14795.6
-15741.2
-63159.3
-14341.2
-13429.3
-83.7529
164.258
164.258
164.258
-38.7878
-627.168
-52.0287
-165.657
-410.394
-123840
-168679
-136556
-93421.3
-76025.8
164.163
168.697
168.697
168.697
-1.10913e+06
-195506
-188142
110741
-43262.2
-253142
-195506
-98222.9
-98907.3
-132452
-22133
-24224.4
-109999
-32919.7
-32116.2
-104036
-76653
-75739.3
-122639
-87481.7
-88481
-82630.8
-23115
-22046.6
-99286.5
-29037.3
-30106.6
-69364.7
-70296.8
-59595.3
-58586.8
-72788.7
-17638.8
-18639.8
-56933.7
-11683.5
-10837.5
-417.633
172.381
172.381
172.381
-2047.95
219.153
-302.796
-1414.24
-192.579
-35207.3
-195869
-141891
-89913.7
-79472.1
170.906
170.906
170.906
165243
-108713
-473.444
75767.7
-56252
-83431.5
-193009
-105960
-100848
-133010
-15426.8
-25974.3
-113506
-32686.8
-32868
-107616
-77899.1
-78818.5
-118703
-85816.2
-84827.5
-85936
-23516.3
-24597.2
-95913.1
-28836.5
-27742.8
-68183.2
-67239.1
-60778.6
-61769.5
-69546.2
-17178.7
-16200.2
-60023.2
-12108.4
-12986.6
40.3887
84.4812
121.782
110.398
18.8886
-143.042
-627.168
-38.7878
141.712
144.144
141.737
144.418
144.128
144.493
147.203
-195506
-1.10913e+06
-253142
-94690.2
-94156.6
-98907.3
-98222.9
-35632
-61453.9
-24224.4
-22133
-32218.8
-31287.1
-32116.2
-32919.7
-74521.7
-73604.2
-75739.3
-76653
-90499.7
-91434.3
-88481
-87481.7
-21618.9
-20571
-22046.6
-23115
-30228.1
-31260.8
-30106.6
-29037.3
-71484.4
-72406.2
-70296.8
-69364.7
-57396
-58586.8
-59595.3
-19098.5
-20123.7
-18639.8
-17638.8
-10837.5
-11683.5
147.258
145.16
135.794
141.275
-6330.86
2370.15
219.153
-2047.95
146.601
150.189
147.779
147.017
16929.2
-23123.1
-108713
165243
-82860.1
-140232
-193009
-83431.5
-117156
-100471
-100848
-105960
-25200.9
-30966
-25974.3
-15426.8
-32425.6
-31455.1
-32868
-32686.8
-80103.9
-81040.9
-78818.5
-77899.1
-83356.8
-82396.1
-84827.5
-85816.2
-24965.6
-26055.5
-24597.2
-23516.3
-27475.5
-26379.1
-27742.8
-28836.5
-66060
-65100.8
-67239.1
-68183.2
-62949.9
-63923.9
-61769.5
-60778.6
-15741.2
-14795.6
-16200.2
-17178.7
-13429.3
-14341.2
-12986.6
-12108.4
)
;
    }
    procBoundary2to6
    {
        type            processor;
        value           nonuniform List<scalar> 
65
(
-34483.7
-18975.9
215893
202949
220652
211296
98488.4
64849.9
113798
80436.7
98488.4
98488.4
-342.388
14859.8
131636
158963
147484
179283
168670
131636
31932
147484
47558.2
131636
131636
131636
179911
194201
189901
206313
197139
216215
199482
-42634.4
-11732
-20907.8
185507
1794.54
34852.5
25958.8
139110
53689.6
45436.8
12085.1
20581
125687
133877
167109
157250
101196
93354.6
59886
68262.4
86061
77059.9
53689.6
109996
121883
179283
199482
163610
173058
148479
199482
182075
)
;
    }
    procBoundary2to7
    {
        type            processor;
        value           nonuniform List<scalar> 8(-72599.3 -56388.3 -53893.3 -9620.06 -10427 -56388.3 -10427 -9620.06);
    }
}


// ************************************************************************* //
