/*--------------------------------*- C++ -*----------------------------------*\
| =========                 |                                                 |
| \\      /  F ield         | OpenFOAM: The Open Source CFD Toolbox           |
|  \\    /   O peration     | Version:  2012                                  |
|   \\  /    A nd           | Website:  www.openfoam.com                      |
|    \\/     M anipulation  |                                                 |
\*---------------------------------------------------------------------------*/
FoamFile
{
    version     2.0;
    format      ascii;
    class       volScalarField;
    location    "0.107/solid";
    object      sigmaMax;
}
// * * * * * * * * * * * * * * * * * * * * * * * * * * * * * * * * * * * * * //

dimensions      [1 -1 -2 0 0 0 0];


internalField   nonuniform List<scalar> 
3125
(
-114.286
887.709
-33.8046
-127705
2269.32
1666.41
-151.507
-93.8564
-113.97
-132.483
-151.323
8318.39
-115.035
241544
243722
117005
-3260.11
-95319.9
6923.44
124915
194132
-216836
936.328
1623.79
8267.86
202399
237179
6937.69
-3185.12
-1866.16
6854.53
162857
190198
5610.27
5719.18
198064
6861.95
166967
-176.6
-1768.71
4493.08
159182
5534.78
133537
2299.27
5651.63
-83.984
4434.52
54.872
-165.663
355.723
2658.56
3192.85
1309.24
415.931
818.41
1291.81
1998.63
1962.86
-180.532
-191.087
-113.622
-114.369
-180.932
-176.253
2.39526
-154.029
-178.45
-191.394
-154.551
-187.581
9079.35
10604.4
7479.54
252.334
-2147.4
2601.43
-62.0149
269917
-82667.5
16701.7
10987.6
19041.1
266468
15098.3
1166.18
4392.26
-122927
14674.6
14266.2
-2557.08
-1160.57
6925.69
7783.13
6263.31
192783
-85589.4
16013.8
15256.3
199257
10893.2
5289.5
-123624
13789.5
1271.76
1309.37
9094.31
7611.51
9525.14
215794
22662.6
20788.3
19274.2
220580
20279.1
7528.02
11001.8
9818.88
-2625.65
-2539.76
8336.31
6243.6
10513.2
174093
22116.8
20403.6
16919.7
177977
19746.2
6160.94
12203.5
10982.4
6235.14
14913
13384.2
23348.5
185001
25466.1
6308.6
11452.6
12886.9
28271.5
180574
26175.8
-927.742
-1031.73
4952.78
14902.4
13940.8
22628.1
148200
24035.3
5022.94
12572.6
13610.4
25685.4
144539
24470.2
57.4783
-63.4517
310.562
725.706
854.921
72.0284
700.111
148.43
221.518
289.211
-73485.1
-29480.7
3543.52
2144.83
1793.04
-151.845
-188.126
129.083
-109.257
104.351
73.1996
-113.997
78.5016
-152.436
-152.821
-122.471
-140.169
-152.273
-188.115
-151.504
-187.996
5525.66
8690.56
8520.57
-56.2826
-210.012
-15.2057
-63109.4
246142
6427.46
45716.5
21958.5
104273
250968
105787
-12025.1
414081
-145102
-39214.8
57755.3
-3408.73
9852.02
1000.29
7244.34
215.525
142019
-9303.7
24784.2
77639.8
197589
75764.8
15554.3
-247089
-13032.1
1083.1
1477.65
6451.37
7969.39
4893.91
206769
100371
100467
102996
231159
102020
7181.27
4636.67
5441.61
-2967.62
-2174.38
1608.34
6578.53
1934.32
166555
79305.7
79390.4
78553.1
186058
78988.1
5835.68
2779.42
2947.33
5931.3
5278.23
5752.01
100240
193732
100050
6614.91
5444.42
4735.75
96884.4
171562
97696.6
-508.263
-1460.34
4678.45
3749.58
4100.59
79159.8
155518
78950.6
5305.29
3234.81
3000.9
76281.9
137207
76897.4
5929.45
4440.5
-139.987
-117.206
69.8122
-77.7687
-67.391
-154.597
-139.681
-128.818
372.075
878.18
988.496
1364.83
4559.56
1814.99
2203.15
4676.27
2290.15
607.716
550.361
944.186
379.686
-39291
427.804
1133.06
4048.82
2108.29
1829.51
-168.843
-198.467
-112.127
88.3943
99.3344
-113.798
85.2544
80.3682
-149.084
-152.246
-169.331
-181.103
-169.6
-164.966
-180.123
-168.737
-73.9588
-103.621
-138.553
-149.191
-181.433
-172.138
-156.181
-189.812
-174.26
-198.716
-191.463
-198.86
-152.287
-185.768
-187.431
-190.704
-196.39
-198.491
6501.24
8693.67
6624.6
8212.93
16732.7
7552.15
8844.22
9261.12
7749.42
78.1007
610.737
218.336
122.191
596.635
627.403
1873
2373.65
976.307
-823.886
6472.04
36274.4
293311
107689
121743
-39698.9
-39705.6
7431.48
-11469
5984.32
35486.8
-13807.4
27578.2
8829.39
13428.5
15847.6
40949.4
18425.3
40488.4
257976
108153
107083
17683.2
37446.7
39697.6
-12368.5
13283.9
-30774
-21386.8
8859.84
21531.6
-158862
-56798.1
13552
-50031.8
29417.7
20110
-41908.6
-51454.5
15340.2
11962.3
21542.8
-3490.42
7567.58
6884.47
4957.15
6628.27
7078.33
6766.07
-945.97
5824.99
8158.93
7943.11
185224
55895.9
49177.4
-47153.8
8655.53
15835
18972.6
9307.41
19636.6
31772.4
12738.8
28784.6
199253
65464.4
72051.8
10924.3
19159.8
24489.7
-25582.9
6324.66
1231.86
-170003
-1615.01
-62.4129
16304.5
-3082.32
-9424.39
1125.53
1436.64
6249.66
9180.05
6134.6
7885.15
4653.92
5789.81
9304.53
6100.73
6076.28
211215
100701
100561
46111.9
21998.4
45195.2
43458.5
21368.2
44302.1
41208.2
19539.9
41564.6
225669
100943
101358
19856.5
42698.6
42055.8
7260.34
5530.46
4596.88
6638.86
10572.5
6461.38
6180.71
10174.2
6305.68
-2887.46
-2269.42
7095.86
9304.66
7360.93
6493.23
2304.37
2276.93
9971.48
7744.51
7558.92
170293
79400.6
79420.3
39918
21578.7
39273.9
37836.6
21010.3
38581.8
33685.9
18115.1
35058.6
181969
79333.9
79211.1
19002.4
37026.4
36120.9
5914.68
2648.75
2555.55
8401.29
11818.3
8246.12
7917.25
11413.5
8084.93
6002.86
5608.55
5063.17
8454.88
14397.9
8198.46
7709.49
13888
7949.64
47031
24048.1
47937.2
189383
99422.3
99782.4
24755.2
49664.3
48818.3
6540.67
4881.83
5502.46
6832.31
11919.5
7037.64
7476.88
12398.3
7252.73
52537.5
27581.4
51910.1
176097
98959.5
98386.6
26881.9
50466.5
51217.6
-613.538
-1359.92
4744.36
3798.42
3486.37
9500.53
14585.9
9370.39
9105.64
14265.9
9240.1
40516.6
23116.8
41072.3
151859
78332.9
78674.9
23585
42061
41586.7
5233.05
3236.71
3514.7
8551.34
12928.3
8695.49
8972.54
13273.6
8835.94
43562.7
25294.6
43248
140874
77922.5
77444.7
24889.9
42495.5
42891.7
-39.4384
-99.4172
-114.475
-42.7299
-100.276
-38.9198
-43.072
817.481
-48.4134
41.9206
-44.7901
19.0026
-10.4031
-105.056
90.1555
62311.3
-31315.5
-118436
51751.3
160089
-33659.5
32376.9
2218.16
1702.31
-16.1926
-2.62046
-82.0645
-105.605
-24.254
-67.1406
-16.4616
-37.6734
-98.9527
-42.2123
-114.117
-38.3879
-98.8908
-41.4399
6863.78
8187.77
-1547.3
8458
8269.28
-1458.04
6670.28
-3323.7
-95581
4454.74
1731.03
3450.35
7035.36
1816.84
3481.94
4485.77
-33098.6
84431.5
-272757
-22503.4
-52755.1
-36294.1
-133403
979.567
1563.42
6492.26
8143.03
-1476.78
8147.92
6627.31
8046.71
-1501.16
5784.29
7016.53
7059.48
-717.837
7118.22
-772.807
5752.9
-3126.09
-1983.14
4493.86
1731.87
3413.33
6751.64
4511.79
1693.57
3350.76
4200.4
5681.32
1890.37
2676.94
1870.52
2712.6
4174.27
5423.64
5788.82
6048.87
534.022
6108.24
456.648
5407.25
5691.16
6772.32
6999.49
-629.082
6923.62
5729.73
-580.906
-301.093
-1674.73
3819.92
4552.14
2405.18
2119.33
2372.14
2131.86
3808.5
4111.91
5454.08
1924.68
2633.96
4152.83
1937.14
2577.47
5992.09
634.839
5400.07
2455.47
2099.86
3799.62
500.397
157.449
1204.6
-2733.26
1441.11
-34.4252
1434.13
1287.28
5923.79
-842.143
6356.8
6082.3
2364.76
604.114
-4866.15
2575.17
2029.92
1909.81
-27.772
-113.444
-90.9574
-35.1588
-29.4495
-89.7186
-33.6646
-32.7112
-114.2
-92.9396
-36.5032
-31.3375
-94.6018
-37.4625
4892.89
6971.58
9709.32
4493.55
7362.4
10027.7
-1154.03
17759.1
15563.3
4177.09
-1074.94
12783.3
-2474.43
14139.8
-3196.03
-1581.58
2690.23
6713.32
4524.83
2685.91
2798.6
3429.44
882.955
-1932.65
5872.87
4321.62
3707.27
4819.24
-265.863
66.0184
1212
1347.16
6133.82
7701.55
7606.76
-1223.42
7675.52
6075.12
-1258.24
5969.67
7431.29
7536.85
-1146.13
7453.83
6028.27
-1113.6
-2724.57
-2459.19
4409.68
6322.32
1726.05
3054.42
1717.44
3097.22
4384.27
4325.9
6074.58
1749.79
3007.03
1754.32
2945.1
4365.13
5503.34
6152.1
6488.34
-34.243
6415.18
5532.61
25.8566
5573.55
6385.45
6550.62
-127.865
6610.24
5549.41
-192.428
-831.415
-1152.81
3912
4878.57
2161.31
2319.91
2180.6
2272.36
3949.97
3988.86
5089.07
2119.07
2352.02
2091.86
2379.14
3966.15
-34.0279
-7.33782
17.1081
2.93893
275.899
23.1441
-39.0321
28.6944
264.324
171.305
58.8831
197.335
2457.58
1055.23
1780.03
155.885
39.5463
905.762
2567.1
-236.355
159.588
670.405
881.338
481.092
-39.9792
-114.859
-100.899
-43.4272
36.2442
11.2368
73.1706
35.8941
11.0311
73.0363
10.6611
752.821
85.0698
111.766
179.131
70.8176
158.499
-13.8591
160.96
-278.151
310.681
12.2242
-99.2633
212.918
78.8616
225.552
344.919
112.668
247.207
-438428
-11361.5
-74051.8
255918
5325.51
515796
-39.7991
-9349.55
83320.4
9634.64
37149.8
7557.56
5954.81
4119.17
10010.1
2177.91
1737.04
-154.064
-161.083
-137.144
-137.744
-136.9
-153.854
-161.352
-154.738
-160.455
-197.852
-213.466
-178.495
-121.836
-122.686
-177.649
-178.18
-198.258
-213.274
-197.535
-213.647
66.985
75.4702
118.369
72.3461
56.864
-21.1362
-111.46
-78.6719
-27.333
-79.9463
-20.3611
-25.2059
65.8616
111.189
37.1095
61.9209
44.0317
38.832
12.0232
76.4406
36.6754
13.4492
-36.745
-113.85
-97.3198
-39.8474
-98.3048
-35.5536
-40.6237
40.7471
78.538
15.8284
41.6021
14.7903
-153.617
-160.392
-153.75
-160.267
-137.396
-137.867
-154.441
-160.58
-154.312
-161.174
-137.211
-137.277
-98.8396
-250.566
-81.1026
-233.925
-206.662
-70.2975
-80.231
-44.8167
-111.172
-101.69
-91.0115
-195.185
-269.574
84.4328
20.7174
-295.74
-199.735
-212.307
-215.211
-196.407
-177.225
-121.734
-178.617
-122.043
-196.835
-214.388
-198.873
-212.635
-179.473
-121.614
-122.491
-176.907
9510.81
9614.04
6761.66
8395.24
8382.52
-1263.25
8237.91
-1600.87
7179.77
9477.45
9405.71
-650.644
1759.31
-907.341
1159.2
76.19
-44.9351
-54.011
-239.19
-240.957
-166.826
94.0618
85.5859
338.602
-453.423
-383.054
490.433
236046
228109
158868
542937
325859
143893
465468
460327
649953
163955
109876
111895
162034
238255
238070
246297
245841
157360
108885
158952
106888
-103033
-227137
-102555
-105467
184037
47329.5
-49493.8
-327487
-6807.61
-142682
-44605.6
-268449
16344.7
332728
-398571
762593
-3408.07
47615.3
391.719
848.254
4348.92
7048.04
2068.68
3511.67
1814.8
3493.19
4225.15
1481.26
1287.08
-12567.4
13797.8
-11218.6
22297.8
50555.6
77528.4
27637.7
25422.3
-8518.96
-26308.6
5998.11
1986.99
70513.4
46448.8
51988.9
66117.7
129245
132704
70026.4
55378.2
73352
51019.8
132436
127900
4600.86
-956.744
8829.99
53121.8
-33887.2
7127.22
-76883.7
14148.2
17724.8
-29540.5
2311.39
1023.97
1517.86
9029.94
8908.3
6425.76
8070.84
7904.36
-1423.71
7980.46
-1434.72
6332.59
9163.54
9254.35
145620
103078
143715
105544
201995
202297
205786
205433
142790
105840
144605
103473
150827
105753
103386
152608
231416
231619
155295
104734
153653
106924
225907
225882
8463.74
8641.48
5809.29
7092.05
7256.23
-906.698
7178.22
-862.08
5854.55
8658.14
8481.5
-3052.82
-2084.68
2039.55
1999.69
4492.55
6666.74
1689.18
3255.59
1699.96
3301.62
4472.05
1756.32
1839.58
75098.1
58132.2
73435.2
60474.5
115748
117557
119780
117858
73129.7
60453.6
74682.6
58231.6
73104.7
58646.4
55385
75502.6
131731
128848
74803.5
53722.5
72061.1
57410.6
127580
130147
2489.11
2515.5
4219.09
5755.74
1825.34
2811.81
1836.43
2753.18
4257.71
2576.54
2548.63
8942.3
9079.99
5432.72
5856.04
6233.26
285.603
6165.7
355.559
5454.36
9173.9
9038.29
140851
106288
104174
142427
198807
198580
195144
195279
143554
103851
141850
106099
8733.61
8565.15
5668.73
6696.24
6801.74
-435.214
6861.68
-492.316
5640.49
8518.86
8689.96
134902
104094
105421
134097
172714
172088
176258
176742
132291
104785
132928
103634
-409.765
-1578.65
2961.79
3006.78
3829.63
4611.95
2297.21
2191.18
2321.84
2150.9
3861.09
3086.42
3043.53
72315.5
60188.4
58192.3
73653.3
115311
113612
74196.4
58248.1
72754.1
60353.8
111457
113041
2687.28
2654.67
4091.51
5378.32
1993.62
2501.64
1972.4
2534.87
4063.73
2602.92
2633.5
70214.6
57136.7
58610
69380.2
98259.9
99180.1
68670.7
58177.3
69413
56798.3
101509
100470
9139.06
-84.5999
-84.5559
-93.8956
-96.0415
-114.015
-112.417
-71.13
-86.8368
-126.857
-134.521
-127.601
-127.066
83.168
-44.8908
43.0853
-76.2719
-83.882
535.198
492.87
-154.221
22.4072
295.947
106.371
400.314
111.342
-154.177
-122.229
123.942
-127.721
-76.1289
-115.602
-61.6146
-130.658
-176.692
-167.457
-132.546
-126.393
-148.133
-131.369
-153.083
-150.631
-55.461
-57.1477
-166.544
467.619
1973.07
1089.65
2591.29
1368.26
-235.634
-70.197
1500.4
1096.21
423.77
830.644
191.209
-179.806
3717.43
3334.36
-556.354
-384.122
4415.87
6660.99
2186.69
20930.7
-7609.52
-1796.21
7253.37
17671.8
5308.1
10370.3
-1725.07
5893.53
2460.46
761.045
4446.31
-2693.48
22143.6
-4240.67
18472.6
8048.78
-1679.34
-834.006
9326.54
859.423
9622.54
5108.15
12554.5
627.767
-196.389
750.319
273.966
590.159
31.1917
-590.675
710.482
178.784
1491.35
683.307
422.626
1130.81
188.486
539.214
508.894
83.9031
751.199
-4857.18
969.247
7451.37
-31753.3
14169
13807.1
42143.4
4524.51
1198.76
2068.24
1545
-298.971
4045.09
962.212
7045.54
2972.7
19.7563
5139.12
2059.17
1867.16
-173.46
-171.885
-181.398
-186.373
-185.567
-182.345
-182.221
-186.554
-172.448
-172.243
-171.178
-173.404
-204.943
-210.349
-198.938
-195.664
-195.001
-199.291
-199.183
-195.63
-204.899
-210.259
-210.538
-204.974
-25.4401
-111.924
-84.7265
-30.2392
-23.5929
-86.4808
-31.8391
52.9589
22.946
93.0039
49.5501
25.6651
56.0258
31.996
96.8205
58.8581
28.6955
-33.9022
-114.299
-96.513
-39.0672
-34.5888
-95.9659
-38.2628
45.8112
20.8229
84.8888
46.6772
19.5666
44.8986
17.0589
83.6024
43.1586
18.4344
-150.715
-158.315
-151.583
-156.844
-128.979
-128.65
-144.482
-147.941
-143.664
-151.135
-134.41
-135.824
-172.454
-170.622
-170.801
-171.794
-181.974
-185.686
-181.397
-185.908
-173.079
-171.231
-171.989
-172.454
-181.28
-184.315
-180.175
-185.981
-167.09
-168.897
-166.505
-170.825
-175.99
-165.307
-162.025
-182.26
-165.061
-156.045
-154.848
-162.61
-175.078
-185.272
-180.078
-179.057
45.233
-242.264
-12.305
-235.755
-269.07
549.163
-242.177
497.725
90.769
-196.539
116.784
-213.301
-305.753
257.42
-303.239
403.039
-221.259
-160.481
-159.509
-235.985
-170.063
-119.515
-116.441
-190.237
-191.214
-106.293
-150.505
-113.288
-185.986
-228.96
-194.012
-215.154
-216.563
-128.973
-102.798
-224.816
-151.203
-192.528
-143.257
-200.836
-201.344
-66.1828
-190.102
-79.6182
-164.55
-219.928
-178.325
-211.784
-205.933
-208.753
-211.864
-202.805
-198.56
-195.265
-199.323
-195.053
-204.195
-211.185
-209.66
-205.502
-199.611
-193.168
-195.492
-196.812
-195.741
-217.465
-202.135
-210.693
-186.567
-121.435
-123.382
-176.674
-176.995
-122.56
-181.627
-123.33
-207.268
-206.871
-194.216
-221.62
-199.334
-213.524
-206.878
-206.002
-200.416
-175.38
-194.362
-180.93
-192.484
-195.312
-188.287
-200.03
-208.675
-198.688
-189.916
-216.168
1860.84
17530.8
14909.9
3790.7
21951.5
9439.55
9863.88
20853.6
20840.7
9842.94
22711.8
9005.6
3569.93
15104.8
16365.4
2464.26
9108.67
8931.36
7810.64
9104.14
8088.14
-1605.68
6538.25
8557.55
-182.616
6832.5
7760.21
4299.35
13052.8
-490.426
19938.9
14080.3
7454.63
2154.55
29686.1
23513.2
7152.36
19242.6
9524.38
-6498.38
24443.1
6583.22
5199.67
-1267.56
3267.89
-1178.34
3879.46
1539.7
-431.76
1610.9
-482.426
-1124.7
4168.75
-1009.95
4186.21
1356.27
-521.751
1019.79
-549.448
3593.2
-2359.12
-1448.35
6306.76
2530.54
-1604.43
3395.71
-7661.69
-253.51
366.03
-141.409
-550.055
-2285.48
18042.3
-5893.53
6773.75
11484.3
-3263.03
-3421.91
10569.4
-7641.52
27610.8
-6616.4
30543.8
11750.2
-2732.44
11052.1
-3063.28
-8713.19
30337.9
-8516.07
31382.2
107020
-5529.09
103378
45137.8
-28790.3
65678.3
536.224
22726.3
46609.5
11781.7
223344
-13407.5
205780
121649
178870
137119
249952
292822
316076
244303
173512
128759
118802
194658
65995.1
126203
109587
87281.3
64381.9
44061.1
59348.3
23822.9
-4191.82
40021.5
2944.64
70742
45725.1
44822
67485.8
33042.4
19172.4
16742.7
11836.4
40557
51230
65186.4
61126.9
49878.5
-3763.96
-6451.09
-15883.6
-5773.11
2793.52
87610.6
28884.3
64062.9
46238.7
-10658
-4999.35
57093.3
27478.4
10084.8
-87.2558
19703.2
60.9684
151586
134009
-18329.2
51502.9
57852.6
60175
50514.9
21415.1
30546.1
30641.8
22223.3
22203.7
31351.2
30907.6
21537.9
49314.7
59000.1
56660.8
50441.3
167515
116147
171011
113651
271093
258653
253540
257045
180395
117071
172215
121801
51741.3
61906.7
52454.2
59595.6
19064.4
30738.4
27154.3
19935.7
21498.9
30213.4
31737.9
21524.2
52689
60501
51781.5
63822.5
-69141
20165
-50007.5
-28971.5
-11453.4
-6171.09
25175.7
-365.686
-21257.5
4569.95
-334.058
-1633.74
264360
107987
-52911.1
-24420.4
13770.7
-9089.04
18700.7
124499
-18499.6
-111531
106597
22932.3
-15919.4
-3256.48
64683.3
90713.7
-51217.1
-162698
82962
-49480.5
-98459
87702.3
3855.98
-54299.9
71664.5
-2081.68
-59605.1
-66446.1
63727.9
-87653.7
-47840.9
56808.7
-12370.2
-2760.24
17768.5
40100.1
-14827.6
-26580.7
60892.1
-44668.8
-44151.3
-46063.6
-6511.42
-51791.5
314027
-59168.8
292486
85484.2
-15645.7
-19783.1
75886.8
95113.1
-23771.3
-22952.3
95430.6
-38425
209019
-25650.7
232995
-3322
6036.4
-6939.69
9225.54
9672.28
-7685.64
13896.3
-1782.71
-2658.87
14647.3
14093.8
-5701.23
13506.7
-4399.19
-5615.37
10383.3
10097.9
-5154.33
-569.624
-1462.42
3451.71
7491.38
2088.27
3484.15
3957.33
2818.66
3356.44
-3995.14
-2743.05
-9580.11
8374.69
-9833.55
8453.24
12691.2
-10642.3
-12607.5
14796.4
13922.4
-8407.98
13484.7
-8965.18
-12793.5
8139.09
6070.59
-9728.75
9428.21
18111.3
-7484.42
19570.1
89398.4
107269
24998.3
23282.9
17477.7
37843.5
76389.5
40159
24210.7
-14348.4
-13240.1
11981.3
-38364
-88949.7
-15012.6
-84919.9
-11053.5
10432.3
-16267.5
26991.3
-4853.19
-53130.8
-28190.3
-57863.6
14294.2
-12819.5
-13376.1
18406.7
-8986.24
15177.8
-14140.8
19458.2
17103
-9575.63
-8540.5
15273.9
-17231.7
19193.1
-12783.8
11443.8
24993
14269.4
18040.8
21234.4
2250.66
19279.3
17694.6
3978.69
451.966
16522.7
17960.2
-1881.93
24786.4
22136.9
19260.6
27880
59046.8
46184.3
65201.1
38940.5
122626
111797
55348.9
26960.8
45603.9
36914.6
123223
129834
17628.2
11675.3
20851.7
6895.24
-11100.6
16467.4
15376.5
-10721
-7027.61
16450.6
16107.9
-4849.37
17166.6
-3483.95
16163.7
2141.56
3508.49
832.001
1986.1
6849.29
-15134.3
14994
10383.6
4780.88
3038.13
-5974.22
-5999.66
6805.93
4059.33
19292.7
-13547.5
-24819.7
-115196
-45722.5
-117148
29427
-16287.1
-6590.42
7133.55
-49682
-136243
-37123.1
-139437
-17461.8
7299
-4402.68
-4586.6
20379.6
-14004.7
13372.9
-6410.08
-2814.35
6349.39
-13326.9
13821.1
6247.68
-10599.9
-18563.3
18158.2
1167.51
1381.28
3281.58
14468.7
14888.5
2801.54
20503.5
9700.48
21139.5
9580.04
2678.3
15499
14830.5
3357.49
20504.1
9711.89
20104.5
9661.55
8716.43
8861.14
6188
7784.77
7833.57
-1354.59
6268.47
7745.3
-1333.67
8748.78
8582.35
2989.66
14425.3
3331.42
14144.3
19720.3
10355.4
10060.6
19597.9
19797.6
9778.42
20031.9
9968.75
3501.43
13882.4
14080.3
3254.13
144678
105256
146646
102719
212992
212642
147751
102463
105037
145756
208956
209329
51646.4
60603.2
63461.4
49737.1
26108.2
30394.7
29554.1
27710.4
26574.5
29209.5
24997.4
30028.2
50581.6
64792
61989.6
52481.3
48974
62161.3
59269.9
50875
24511.8
28776.1
23037.8
29507
50206.5
58049
60942.2
48340
23964.5
29725.2
25497.6
28941.5
47832.6
58523.3
55866
49374.9
22261.7
29851.2
21258
30056.5
49720.3
55968.4
58477.8
48361
21340.2
29654.1
29260.8
22489.3
150590
102663
148687
105161
216600
216876
147050
104970
149025
102405
221114
220965
49390.4
56245.7
47694
59027.9
22260.7
29399.6
28746.7
23652.4
22963.3
28893.3
29440.7
21677.4
47889.4
59868.6
49691.3
57010.5
8647.31
8466.89
5928.21
7347.26
7319.9
-991.052
5886.04
7383.02
-1034.62
8506.39
8679.05
4430.64
13468
13412.2
4491.51
19480.2
12794.9
12253.9
19577.3
19500.4
11599.9
12094.7
19436.2
4917.96
13325.5
13347.7
4900.95
4104.06
13527.2
13621.6
3990.25
19495.8
10479
19535.3
10854.5
3593.45
13821.5
3767.81
13679.9
19448.5
11441.8
11000.2
19468.8
-2812.21
-2373.03
-3284.67
10797.7
10662.7
-3125.78
15001.8
-629.384
14242.8
-12.7052
-3964.36
10486
10685.5
-4245.84
14518.4
1231.83
15183.7
799.543
2155.27
2179.15
4424.72
6404.69
1702.06
3206.5
4459.07
1697.01
3143
2285.08
2264.41
-2449.48
10708.5
-2545.66
10813.5
14764.2
3033.64
2754.91
15292.3
15269.2
1870.35
14672.5
2210.73
-1919.63
10784.6
10697.6
-1859.4
73658.6
60409.8
75434.7
57934.1
124124
121989
75677.8
57618.9
60234.9
73784.7
119942
121968
33911
30938.2
32381
32366.2
13452.3
22183.1
21394.8
14132.4
13365.7
21246.6
12650.2
22092.2
32715.7
33096.3
31733.2
34177.4
31947.5
31575.9
30055.4
33580.1
11649.3
20820.8
10833.5
21801.9
33169
29053.5
30667.5
31434.1
11780.4
21967.8
12546
21058.6
28841.7
26877.5
24826.9
31080.6
6400.13
18764.4
5044.07
20240.4
29805
22529.7
24902.9
27213.3
7035.51
20867.6
19566.3
8144.85
75778.1
56442.9
73596.9
59424.8
123985
126232
73783.6
59923.1
75807.5
57144.2
128263
125883
31981.1
26536.6
29967.7
28394.2
9770.91
21586.2
20519.8
10651.3
9512.48
20121.1
21288.1
8540.7
30796.3
29624
32649
27906.1
2448.58
2424.6
4305.65
5992.02
1795.15
2855.84
4276.92
1780.43
2896.98
2352.12
2372.75
-341.72
10512.2
10566.6
-332.088
14835.9
5632.25
5479.18
15165.7
15221.1
4867.63
5049.86
14846
140.586
10471.9
10424.4
118.853
-831.115
10653.7
10588.6
-818.367
15286.3
3523.03
14815.8
3765.56
-1322.58
10653.4
-1354.1
10726.5
14842.5
4430.79
4223.03
15259.4
8995
8848.96
5487.51
6077.62
6295.2
188.777
5468.12
6352.89
119.462
8769.9
8916.39
8646.31
13043.1
13193.9
8426.38
20845.4
19139.8
18407.1
21040
20801.4
17600.6
20614.5
18317.9
8973.83
13226.2
13056.1
9214.11
7891.28
13171.6
13043.1
8079.71
20367.7
15994.8
20190.2
16676.5
7523.6
13056.3
13163
7362.03
20393
17494.3
20579.1
16792.9
52401.5
67397.8
64758.2
54234.6
28890.8
29953.4
27268.8
30808.2
53349.8
63385.8
66114.7
51480.4
28465.1
31253.4
30091.6
30394.2
141199
104409
139763
106381
188086
187994
191681
191656
138559
106353
104536
139847
55111.6
66082.9
53327.9
68617.4
30903.5
32218.2
31365.7
32518.4
31307
30867.6
29679
31725.5
54241.2
69755.4
67334.4
55967.8
8624.79
8784.29
5588.3
6456.21
6741.17
-343.912
5621.22
6667.26
-287.507
8848.45
8693.2
5848.29
13216.4
13180.2
5908.71
19689.6
12952.8
19565.5
13529.3
5397.49
13254.1
13263.2
5371.94
19685
14292.5
13682.1
19827.9
6437.23
13123.4
13185
6338.94
20002.2
15870.7
20169
15206.4
6846.69
13167.4
6974.63
13084.1
19988.8
14435.6
15073.7
19832.9
58278.4
70484.7
72508.1
56776.2
35688.1
34261.8
33471
37194.6
36068.3
32932.7
33747.7
34524.2
57509.4
73168.1
71287.5
58922.4
135739
105885
136711
104393
184202
184420
180641
180294
138356
104534
137223
106193
55979.8
71715.1
57561.3
69548.4
33724
31877.1
32722.1
32124.7
33333.2
33231.1
32404.6
34909.2
56786.6
68495.4
55131.1
70792.5
-733.422
-1261.26
2933.25
2891.26
3895.73
4809.22
2251.55
2217.28
3874.13
2222.38
2239.5
2823.56
2865.89
3054.81
9725.08
9750.37
3157.6
14590.3
9678.98
9656.87
14680.2
14734.2
9160.1
14615.9
9202.59
3567.3
9664.38
9634.22
3467.52
2736.51
9846.54
9817.39
2649.9
14840.2
8166.15
14679.4
8239.21
2237.23
9918.52
9945.43
2323.04
14652.2
8722.65
14781.2
8666.97
33244.3
34329.9
33111.3
34568.8
14845.4
21518.3
14206.7
22251.1
34397.2
32451.9
33744.5
33000.7
14917.6
22306.3
15526.5
21619.8
73052.2
58079.3
71818.8
59962.9
107092
108453
71272.7
59691.9
57910.9
72404.2
110757
109280
34709.6
33710
33449.2
34867.7
16252.7
22372.2
21769.6
16796.5
16169.7
21702.5
15600.6
22345.6
33624.2
35352.1
34265.2
34821.2
2707.91
2743.93
4006.57
5157.19
2031.87
2463.11
4043.61
2049.06
2412.17
2803.4
2764.66
1039.64
10262.7
10227.3
990.851
15104.9
6052.6
14816.7
6191.34
558.594
10329.2
10367
599.591
14790.1
6719.86
6605.46
15040.4
1409.51
10123.8
10153.9
1474.4
14716.4
7740.09
14907.9
7661.06
1898.68
10049.5
1828.15
10018.1
14976.4
7138.37
7238.56
14752.1
35035.2
35695.8
36596.9
34008.5
18682.9
22471.7
22003
19104.2
18550.5
21957
22445.9
18099.7
34100.8
36934.1
36104.6
35071.8
70050.7
59013.5
70981.9
57432
106143
104891
71711
57693.8
70682
59372.7
102686
103825
33897.4
36215.9
34985.5
35259.6
17396.6
21837.9
22397.5
16883.1
17500
22425.9
21893
17982.5
34915.1
34777.3
33769.3
35804.5
19221.8
21084
13079.3
9525.44
864.417
2995.84
7196.37
8071.14
3370.99
894.378
9642.75
637.729
10085.8
6209.6
4067.44
3316.65
7902.4
725.359
-118005
-9836.18
-27529
-28785.5
-53512.2
-211465
-68094.2
-3091.51
2394.19
952.509
10761.2
2264.2
-2934.83
11488.6
-3272.81
11467.2
-204.032
1604.96
1835.08
10655.6
-3481.81
-33328.2
-261182
-94463.1
-212567
-71401.4
-47118.7
-161456
-62.1476
-6094.72
-14943.1
-39943.2
-43125.7
16459.8
-18874
973.478
3018.4
9182.67
5136.72
927.036
2775.19
7905.77
973.793
7703.66
6047.77
2650.49
2819.42
8831.89
1050.33
1645.63
2750.62
5434.23
7034.22
2801.49
1758.92
7843.56
1609.85
7926.56
2740.19
4607.74
2679.61
1504.02
7083.08
-2687.37
2626.45
11361.5
1598.83
-2794.9
2673.99
10686.6
-2559.96
10564
2016.21
2849.55
2832.62
11229.4
-2458.4
-1298.79
3385.52
3094.46
9555.85
3406.41
-1204.37
10222
-1410.07
10392.2
3329.01
2672.1
3309.66
-1503.52
9731.96
2977.68
3536.93
5837.29
7102.64
3549.5
3096.73
7656.31
2911
7639.26
3436.36
5166.48
3417.96
2796.68
7051.39
1908.47
2874.2
7776.71
4679.64
1799.3
2825.91
7000.87
1951.93
6979.95
2909.99
5466.7
2950.55
2067.53
7722.92
333.647
3968.31
4267.12
8218.73
3989.38
433.064
8869.07
221.183
9028.41
3908.63
3623.27
3885.83
118.788
8381.63
-1002.77
3480.92
10047.8
2893.71
-1097.28
3456.62
9385.14
-898.578
9210.66
3525.6
3377.29
3550.91
-803.667
9876.6
3667.73
7682.56
3168.21
4073.01
-3209.67
10480.2
10612.1
10463.2
2621.05
2520.58
5207.77
193.711
6905.83
3950.23
11776.2
-127.742
10578.2
5742.9
13822.5
7621.63
-5785.63
22007.8
-7379.99
30325.9
17312.6
-40381.9
-1763.56
-24832.4
-383.695
-24669.9
-43556.9
-2988.33
-3552.93
3582.6
1786.1
10837.6
2067.21
9617.98
-3383.54
-3958.6
10488.7
1106.75
2779.11
-3590.05
1448.26
11616.9
504.252
5968.55
11797.9
9702.99
3739.11
-281.934
10186.7
4497.23
-4887.02
-10204
4981.48
6064.79
4811.22
-442.072
1135.62
2571.09
7361.38
5630.25
8334.14
1233.68
2671.37
1130.43
8549.79
2715.05
4742.25
1047.8
7514.19
2585.82
1344.27
2670.16
8164.69
4608.89
1246.73
7240.84
2585.03
1364.89
7149.87
2623.86
5471.22
1474.23
8031.59
2693.54
-2126.39
3069.87
2479.98
10241.8
3078.97
10902.8
-2030.2
-2244.82
11067.1
2971.87
2149.69
-2338.73
2970.91
10408.5
-1821.38
3170.25
2437.17
10732.7
3153.91
-1915.08
10074.4
-1709.35
9903.39
3232.48
2804.29
-1614.05
3250.61
10564.6
2556.99
3228.25
7639.47
4967.16
6987.19
2446.78
3199.51
2615.36
7012.48
3306.31
5673.64
2733.64
7632.41
3327.92
2276.48
3099.66
6973.07
5548.91
2392.3
7655.68
3129.45
2224.72
7682.52
3036.75
4802.58
2114.63
6970.5
3000.37
-191.729
3763.53
3360.19
9358.9
3737.64
8705.36
-291.411
-86.0247
8541.66
3809.64
3955.97
12.8502
3835.26
9195.2
-492.98
3667.43
3659.24
8871.07
3692.76
-396.847
9531.8
-601.565
9702.77
3620.81
3121.62
-697.615
3595.99
9041.36
)
;

boundaryField
{
    left
    {
        type            calculated;
        value           nonuniform List<scalar> 
290
(
-86.099
-159526
-12.5588
-74.0849
-85.6427
-146.631
-154.025
-146.849
-147816
162795
-125659
-140.092
-63196.6
183045
-163.118
151.025
573.682
6363.22
4218.86
2599.41
1481.89
-81.4855
-81.817
-183.826
-176.968
-146.016
-190.109
-195.531
71.2269
-178.712
-144.784
-195.33
-183.559
-64806.9
-94443.5
711.92
6440.22
409.425
-99630.9
11431.3
784.554
4735.21
10618.2
-66049.2
-31.1596
139.061
505.639
1264.64
1184.61
115.159
9392.14
-795.463
156.514
155.848
209.546
-81.7225
148.846
155.987
116.605
123.095
-83.9041
-153.516
-153.676
-146.743
-192.587
-192.756
-141.117
-164.513
-144.735
-192.856
-152.841
12065.7
-217269
-0.37269
-119.702
-105.925
-149275
-19948.8
-52595.5
438627
106438
36810.2
-136.059
-105.513
-128.421
-115.753
-150.644
168.595
-30.1563
-43.722
1449.07
1523.08
604.531
6860.75
3372.52
3104.46
2475.85
2879.44
6303
-165.003
-840.17
15606.8
721.191
126.209
92.8832
134.546
145.089
-81.688
-83.3925
125.425
130.833
-183.711
-171.057
-171.085
-164.443
-169.597
-182.179
-152.59
-148.2
-190.604
-192.078
-146.95
-194.233
-201.515
-199.047
-202.032
-202.07
-195.408
-82.5454
-134.405
-50.6245
-191.802
-174.333
-150.431
-143.821
-179.462
-187.001
-201.865
-170.742
-35983.2
-125023
121.641
277.364
515.096
2591.84
1301.45
5346.26
126.29
476.257
1131.52
-23238.4
-35218
-131597
12651.3
32243.1
18859
-2294.63
18758.3
4852.55
16247.5
32269.7
71999.9
16603.4
21950.4
12415.8
-29155.8
7472.82
-9977.47
-86.8281
3.70651
4.30099
-32005.9
120462
86013
65.6981
94.3589
10.0433
-76.1157
27.0792
36.2267
5.00976
6.04527
-85.3514
-95823.8
-98265.9
-235859
2844.07
2910.3
7596.46
2407.45
1376.74
2018.02
14.358
15.8245
-81.4027
-82.5818
11.6481
12.8613
3.10042
-87.3896
117.431
80.295
80.5378
80.7565
117.369
33226.7
38694.2
62357.6
-4071.04
35832.7
15772.1
51194
161.382
203.557
162.705
371.321
276.507
155.686
218.125
205.666
283.949
20.1482
21.8094
-83.7039
153.892
116.398
110.504
137.981
124.207
154.806
121.315
84.1731
81.6513
87.3848
86.3428
123.982
-84.7987
7.2438
8.57685
34094.1
-11195.1
126111
-110688
-770
4102.6
1905.82
7679.01
6746.66
-498.634
24608.5
5483.87
26634.9
573.777
663.231
823.795
121.126
789.871
530.815
1745.3
1185.3
63.4167
140.265
100.367
96.7711
106.431
103.668
144.078
-81.5078
17.1334
18.7243
9.67673
10.5651
-83.1085
130.053
91.5067
89.2221
93.8796
92.8356
131.338
-73267.3
-78262.6
-41225.6
-49490.7
-118606
-115032
-100445
-102726
-226913
-116716
-137114
)
;
    }
    bottom
    {
        type            calculated;
        value           nonuniform List<scalar> 0();
    }
    interface
    {
        type            calculated;
        value           nonuniform List<scalar> 
2123
(
858.704
1287.2
1046.51
859.673
199.332
865.733
1029.66
865.803
1012.84
1273.64
1026.75
1306.57
1293.97
909.755
987.821
1165.89
1151.88
872.527
951.504
928.527
939.426
914.608
926.033
1144.71
1128.8
71.68
865.612
118.649
138.075
271.255
561.122
253.753
1224.18
1084
113.094
101.92
72.859
78.1393
834.634
505.412
881.717
979.915
872.414
966.402
1206.47
1060.79
875.287
173.495
146.371
726.279
185.969
232.578
1206.11
1099.49
87.8728
97.8147
84.7626
80.0339
819.638
685.272
893.31
966.288
881.31
952.521
1187.77
1075.89
-75.3827
-139.862
-140.779
-74.196
850.746
-69.9696
-86.3158
-38.1167
-116.732
59446
247.152
180689
254.324
94811.3
1258.5
1050.26
-55.166
-115.462
-59.2226
-109.014
-74.787
-139.584
-74.0672
-140.382
7755.03
6885.26
6997.49
7527.87
844.641
229.84
6687.78
4396.69
4414.05
6718.3
-388.249
-318.299
859.802
1004.09
7269.13
6832.34
7449.63
6217.31
6151.66
855.743
987.068
6716.42
4385.54
6750.13
6125.27
6066.39
5531
5180.74
5488.99
6044.12
5808.14
5748.92
6117.53
1242.55
1027.56
5267.54
5219.29
5946.16
6023.18
3670.38
5473.35
5187.02
882.728
67.3966
-211.873
-48.0359
703.98
6475.59
10.0731
2542
-21.9357
-146.476
1170.04
1126.08
-76.1731
-136.366
-76.2208
-136.083
-75.6332
-138.861
-76.0917
-139.921
6718.45
10298.1
14359.9