/*--------------------------------*- C++ -*----------------------------------*\
| =========                 |                                                 |
| \\      /  F ield         | OpenFOAM: The Open Source CFD Toolbox           |
|  \\    /   O peration     | Version:  2012                                  |
|   \\  /    A nd           | Website:  www.openfoam.com                      |
|    \\/     M anipulation  |                                                 |
\*---------------------------------------------------------------------------*/
FoamFile
{
    version     2.0;
    format      ascii;
    class       volVectorField;
    location    "0.105/fluid";
    object      cellMotionU;
}
// * * * * * * * * * * * * * * * * * * * * * * * * * * * * * * * * * * * * * //

dimensions      [0 1 -1 0 0 0 0];


internalField   nonuniform List<vector> 
16421
(
(-9.34951e-07 8.48544e-07 1.28129e-08)
(-1.69983e-06 2.68472e-06 -2.17974e-08)
(-5.09813e-07 4.71929e-06 -9.06325e-08)
(2.22434e-06 6.7221e-06 -1.4409e-07)
(5.26146e-06 8.46755e-06 -1.65479e-07)
(7.86863e-06 9.91804e-06 -1.64929e-07)
(9.74692e-06 1.081e-05 -1.52909e-07)
(1.084e-05 1.09722e-05 -1.33217e-07)
(1.11004e-05 1.04892e-05 -1.11567e-07)
(1.04015e-05 9.35881e-06 -8.79392e-08)
(8.82895e-06 7.59994e-06 -6.66788e-08)
(6.55004e-06 5.4235e-06 -4.42403e-08)
(3.38221e-06 2.51972e-06 -2.01636e-08)
(-1.55306e-06 1.51202e-06 6.66953e-08)
(-1.11616e-05 1.10419e-05 9.73515e-08)
(-1.57392e-05 2.59374e-05 -3.40595e-07)
(-2.81398e-06 4.25858e-05 -9.59606e-07)
(2.19923e-05 5.91357e-05 -1.36644e-06)
(4.84776e-05 7.4885e-05 -1.52439e-06)
(7.08949e-05 8.77881e-05 -1.5073e-06)
(8.75468e-05 9.54455e-05 -1.38301e-06)
(9.76355e-05 9.67625e-05 -1.21296e-06)
(0.000100102 9.19411e-05 -1.01627e-06)
(9.39527e-05 8.21472e-05 -8.1917e-07)
(7.97852e-05 6.77733e-05 -6.06325e-07)
(5.89653e-05 4.78433e-05 -4.01037e-07)
(3.06665e-05 2.24161e-05 -1.88534e-07)
(-3.92969e-06 5.35392e-06 6.78514e-08)
(-2.35672e-05 2.47588e-05 -9.96183e-08)
(-2.69795e-05 4.74344e-05 -1.14781e-06)
(1.27587e-06 7.50427e-05 -2.24031e-06)
(4.64543e-05 0.00010391 -2.78331e-06)
(9.29359e-05 0.000131905 -2.93762e-06)
(0.000132521 0.000154079 -2.82513e-06)
(0.000163413 0.000166463 -2.57734e-06)
(0.000182896 0.000167831 -2.26043e-06)
(0.000188 0.000159199 -1.89624e-06)
(0.000176464 0.000142746 -1.52825e-06)
(0.000149114 0.000118018 -1.15594e-06)
(0.00010955 8.2472e-05 -7.50578e-07)
(5.6808e-05 3.7221e-05 -3.31125e-07)
(-2.8819e-06 6.01549e-06 -5.90152e-07)
(-2.69944e-05 2.77056e-05 -3.54931e-07)
(-3.01114e-05 5.51208e-05 -1.86434e-06)
(7.95123e-06 9.2554e-05 -3.37973e-06)
(6.95037e-05 0.000132084 -4.12714e-06)
(0.000133653 0.000168223 -4.23535e-06)
(0.00019047 0.000195113 -4.01136e-06)
(0.000235297 0.000209357 -3.62895e-06)
(0.000264173 0.00020983 -3.18879e-06)
(0.00027124 0.000198477 -2.68054e-06)
(0.000253064 0.000177477 -2.11234e-06)
(0.000212501 0.000146981 -1.59094e-06)
(0.000155741 0.000103074 -1.04011e-06)
(8.11737e-05 4.73051e-05 -4.73919e-07)
(-1.23089e-07 2.15291e-07 9.41323e-08)
(-6.4975e-07 1.15768e-06 1.75971e-07)
(-3.1808e-07 2.58018e-06 -2.08095e-07)
(1.6885e-06 4.26505e-06 -8.44885e-07)
(4.57745e-06 6.05191e-06 -1.31227e-06)
(7.42758e-06 7.76515e-06 -1.51299e-06)
(9.68027e-06 9.18943e-06 -1.50984e-06)
(1.12382e-05 1.00425e-05 -1.39507e-06)
(1.20344e-05 1.01765e-05 -1.21718e-06)
(1.20272e-05 9.74123e-06 -1.01795e-06)
(1.11028e-05 8.69413e-06 -8.08906e-07)
(9.38575e-06 7.20936e-06 -6.1261e-07)
(6.89189e-06 5.11886e-06 -4.08253e-07)
(3.55096e-06 2.40841e-06 -1.92034e-07)
(2.84169e-08 6.63468e-07 -9.78861e-08)
(-1.12956e-06 3.83844e-06 1.14575e-06)
(-5.08833e-06 1.17163e-05 1.02016e-06)
(-2.10966e-07 2.3697e-05 -3.47548e-06)
(1.8322e-05 3.74655e-05 -8.90029e-06)
(4.36898e-05 5.31208e-05 -1.25759e-05)
(6.77995e-05 6.83152e-05 -1.39075e-05)
(8.70778e-05 8.08936e-05 -1.36793e-05)
(0.000100899 8.84582e-05 -1.25721e-05)
(0.000108405 8.9999e-05 -1.1007e-05)
(0.000108559 8.60353e-05 -9.2189e-06)
(0.000100379 7.73863e-05 -7.35865e-06)
(8.46255e-05 6.38763e-05 -5.54978e-06)
(6.21748e-05 4.52822e-05 -3.70395e-06)
(3.20737e-05 2.12526e-05 -1.73148e-06)
(4.31636e-06 1.31353e-06 -9.58813e-07)
(1.65402e-06 9.62727e-06 4.70627e-07)
(-3.55443e-06 1.94679e-05 -1.35436e-06)
(1.00501e-05 3.76677e-05 -1.16307e-05)
(4.50298e-05 6.40779e-05 -2.12483e-05)
(8.79336e-05 9.19717e-05 -2.59346e-05)
(0.000129365 0.00011982 -2.70552e-05)
(0.000162677 0.000141921 -2.58426e-05)
(0.000188105 0.00015468 -2.35213e-05)
(0.000202869 0.000156848 -2.0597e-05)
(0.000203414 0.000149427 -1.72057e-05)
(0.000187889 0.00013466 -1.36909e-05)
(0.000157873 0.000111665 -1.03214e-05)
(0.000115511 7.85449e-05 -6.82482e-06)
(5.9571e-05 3.59159e-05 -3.124e-06)
(1.08422e-05 -1.21743e-06 -2.54892e-06)
(1.10579e-05 1.42993e-06 -5.91699e-06)
(2.301e-06 1.47597e-05 -3.93267e-06)
(1.92243e-05 3.93785e-05 -1.81268e-05)
(6.59234e-05 7.61188e-05 -3.14549e-05)
(0.000125024 0.000115065 -3.76168e-05)
(0.000182666 0.000151865 -3.87174e-05)
(0.000231591 0.000179178 -3.68076e-05)
(0.000269422 0.00019429 -3.34103e-05)
(0.000291686 0.000196312 -2.92138e-05)
(0.000292516 0.000186759 -2.43992e-05)
(0.000269348 0.00016757 -1.93614e-05)
(0.000225022 0.00013859 -1.44603e-05)
(0.000164246 9.74476e-05 -9.56904e-06)
(8.4963e-05 4.48947e-05 -4.43471e-06)
(1.42136e-07 2.45765e-07 1.83015e-07)
(1.25816e-06 9.71222e-07 3.40518e-07)
(3.92877e-06 1.7781e-06 -4.5876e-07)
(7.36704e-06 2.89093e-06 -1.62123e-06)
(1.02583e-05 4.40477e-06 -2.37283e-06)
(1.24459e-05 6.06568e-06 -2.68241e-06)
(1.39171e-05 7.45923e-06 -2.66367e-06)
(1.46397e-05 8.20516e-06 -2.42862e-06)
(1.47458e-05 8.39927e-06 -2.10825e-06)
(1.41887e-05 8.15105e-06 -1.77186e-06)
(1.27979e-05 7.36923e-06 -1.42046e-06)
(1.05853e-05 6.15874e-06 -1.05988e-06)
(7.6711e-06 4.42076e-06 -7.04699e-07)
(3.87733e-06 2.08177e-06 -3.24615e-07)
(4.64467e-07 1.11616e-06 -2.6974e-07)
(4.73338e-06 4.38725e-06 2.41013e-06)
(1.75957e-05 8.49396e-06 1.82101e-06)
(4.25824e-05 1.42841e-05 -7.01349e-06)
(7.10052e-05 2.46226e-05 -1.6816e-05)
(9.54953e-05 3.84616e-05 -2.27026e-05)
(0.000113754 5.33405e-05 -2.48375e-05)
(0.000125452 6.54083e-05 -2.41499e-05)
(0.000131972 7.27502e-05 -2.19908e-05)
(0.000133297 7.49355e-05 -1.91683e-05)
(0.000127918 7.23763e-05 -1.60289e-05)
(0.000115174 6.57131e-05 -1.28114e-05)
(9.54712e-05 5.46808e-05 -9.60738e-06)
(6.91709e-05 3.90411e-05 -6.37934e-06)
(3.52811e-05 1.85728e-05 -2.98195e-06)
(1.93928e-05 1.45372e-06 -2.2046e-06)
(2.60174e-05 1.04848e-05 1.74326e-06)
(5.22229e-05 6.73268e-06 -3.05234e-06)
(9.75549e-05 1.52483e-05 -2.18194e-05)
(0.000145487 3.7254e-05 -3.83872e-05)
(0.00018525 6.42043e-05 -4.64971e-05)
(0.000213796 9.18286e-05 -4.79902e-05)
(0.000233779 0.000113785 -4.55987e-05)
(0.000245966 0.000127471 -4.12358e-05)
(0.000248949 0.000131992 -3.5882e-05)
(0.000239191 0.000127752 -2.99675e-05)
(0.000215174 0.000115732 -2.39031e-05)
(0.000177945 9.59036e-05 -1.78582e-05)
(0.000129058 6.79292e-05 -1.18789e-05)
(6.57398e-05 3.18952e-05 -5.51168e-06)
(3.39856e-05 -1.01792e-05 -3.72192e-06)
(4.02827e-05 -8.4404e-06 -6.95936e-06)
(7.12131e-05 -8.71183e-06 -7.39969e-06)
(0.000132192 8.02412e-06 -3.24363e-05)
(0.000195389 4.05639e-05 -5.46823e-05)
(0.000250301 7.75657e-05 -6.53656e-05)
(0.000292642 0.000114078 -6.71613e-05)
(0.000325397 0.000142054 -6.40224e-05)
(0.000347264 0.000159341 -5.82192e-05)
(0.00035404 0.00016556 -5.07244e-05)
(0.000340792 0.000160471 -4.22481e-05)
(0.00030613 0.000144801 -3.35307e-05)
(0.000253158 0.000119234 -2.50721e-05)
(0.000183941 8.38032e-05 -1.67379e-05)
(9.41548e-05 3.92673e-05 -7.83516e-06)
(-4.29215e-07 3.73304e-07 1.23162e-08)
(-5.55117e-08 7.27173e-08 2.9861e-08)
(-2.18818e-08 1.50462e-07 -1.39426e-08)
(-6.66933e-07 1.22735e-06 3.76066e-07)
(-5.66823e-07 4.85334e-07 1.13387e-08)
(-8.00745e-07 7.18993e-07 4.06724e-08)
(-5.81539e-06 5.30352e-06 1.01305e-07)
(-1.4829e-07 1.79e-07 6.27237e-08)
(-6.7458e-07 7.84953e-07 1.34601e-07)
(-1.32588e-06 2.03645e-06 5.7123e-07)
(-5.1252e-06 6.56471e-06 9.27224e-07)
(-5.50089e-07 5.59674e-07 3.57283e-08)
(-1.31906e-06 1.85022e-06 5.65539e-08)
(-3.12259e-08 3.92722e-07 -5.122e-08)
(-8.8146e-07 2.05995e-06 5.21182e-07)
(8.82025e-07 9.34643e-07 -3.17291e-07)
(-7.66011e-07 5.29457e-06 4.93833e-07)
(-1.43373e-06 2.29362e-06 3.34885e-08)
(-9.22496e-07 2.72713e-06 -3.27617e-07)
(1.78795e-06 7.73374e-07 -5.03043e-07)
(5.54075e-08 6.06908e-06 7.19775e-09)
(7.32447e-06 -6.55071e-07 -2.42053e-06)
(6.23363e-06 3.33373e-06 -4.83187e-06)
(-2.81909e-07 2.16019e-06 -6.85246e-07)
(8.7232e-06 -6.1745e-07 -2.25553e-06)
(8.2574e-06 3.92233e-07 -6.82087e-06)
(-4.78581e-08 9.17024e-08 4.41802e-08)
(-2.26604e-08 2.55862e-07 -2.61393e-08)
(-4.01824e-07 1.55531e-06 5.53602e-07)
(1.90053e-08 1.19671e-07 8.10157e-08)
(5.12832e-08 4.523e-07 -6.90232e-08)
(9.90332e-07 2.06253e-06 1.04569e-06)
(1.34278e-05 -2.05836e-06 -8.3074e-06)
(3.10996e-05 -8.95865e-06 -3.63934e-06)
(3.27235e-05 -9.35357e-06 -1.03014e-05)
(5.43382e-08 1.12381e-07 8.52433e-08)
(6.60603e-08 4.2237e-07 -7.62184e-08)
(1.57123e-06 1.9448e-06 1.11477e-06)
(3.9708e-05 -1.11164e-05 -1.03346e-05)
(-7.13144e-09 6.59467e-09 2.14641e-09)
(6.94508e-09 -1.00847e-08 -1.07432e-09)
(-3.34483e-10 -2.37947e-10 -5.47324e-11)
(-6.24154e-07 5.16597e-07 7.24596e-08)
(-5.56598e-08 4.31585e-08 8.63593e-10)
(-5.63105e-08 4.05652e-08 1.71063e-09)
(-3.67563e-08 3.02775e-08 7.06037e-09)
(-3.21124e-07 2.62015e-07 6.1472e-08)
(-4.00304e-07 3.17328e-07 1.66168e-08)
(-1.72291e-07 1.39682e-07 2.00599e-08)
(-7.27039e-08 1.64359e-07 1.93839e-08)
(-6.18872e-09 4.29355e-09 3.01327e-10)
(4.42117e-10 2.31594e-08 -1.23803e-08)
(-5.30858e-08 9.92214e-08 1.42927e-08)
(3.87282e-09 5.21579e-08 -2.63668e-08)
(-1.57083e-08 1.2868e-08 9.09306e-10)
(7.98138e-08 4.22228e-07 -9.59677e-08)
(-2.84082e-08 3.1658e-08 1.89351e-09)
(1.36227e-07 2.97319e-08 -5.77745e-08)
(-2.29815e-08 3.74977e-07 -2.40628e-08)
(4.10606e-07 -9.81246e-08 -1.10877e-07)
(-3.24075e-08 5.62989e-08 2.79994e-09)
(-5.01894e-09 5.69315e-08 -4.94735e-09)
(1.5524e-06 1.06492e-07 -6.89996e-07)
(2.02849e-06 3.24167e-07 -2.53836e-06)
(-2.03346e-05 2.17332e-05 -1.9075e-07)
(5.62619e-06 3.62224e-06 -4.86464e-06)
(-6.89614e-06 1.50974e-05 -1.72465e-06)
(-8.53963e-09 7.44884e-08 3.74562e-08)
(-4.39644e-10 1.97187e-10 3.6674e-10)
(7.33245e-09 -8.47996e-09 -1.47804e-09)
(-1.54833e-08 4.88148e-08 2.31687e-08)
(5.02328e-09 -4.13139e-09 -2.01256e-09)
(-5.84298e-10 6.48544e-10 7.82544e-10)
(3.23139e-06 7.36439e-06 -1.37892e-07)
(1.20081e-05 -1.69283e-06 -3.13206e-06)
(1.13724e-05 1.61496e-06 -6.07941e-06)
(1.59552e-05 1.67675e-06 -2.22161e-06)
(1.87522e-05 1.01765e-05 2.69194e-07)
(2.89743e-05 -7.18563e-06 -4.30213e-06)
(3.01718e-05 -2.66916e-06 -7.54046e-06)
(1.13344e-05 -2.11007e-06 -7.44146e-06)
(1.90888e-05 -4.30063e-06 -3.1703e-06)
(2.00357e-05 -5.79851e-06 -8.9705e-06)
(3.44986e-06 1.08737e-05 -2.31763e-06)
(3.28284e-05 -6.85716e-06 -7.26996e-06)
(4.40204e-05 -4.35404e-06 -3.52108e-06)
(5.00466e-08 6.74776e-08 5.45389e-08)
(-2.69255e-10 8.50413e-10 1.06745e-09)
(2.04232e-09 -3.64884e-09 -3.50499e-09)
(2.60448e-08 8.27784e-08 4.94384e-08)
(-1.26972e-09 -7.40629e-09 -3.93019e-09)
(2.81268e-10 6.80732e-10 1.13203e-09)
(2.38524e-05 9.69842e-06 5.32014e-07)
(3.49429e-05 -8.88025e-06 -4.39056e-06)
(3.69014e-05 -4.04645e-06 -7.45607e-06)
(3.44783e-05 -1.02636e-05 -1.01152e-05)
(4.43435e-05 -1.33725e-05 -3.49665e-06)
(4.48277e-05 -1.30147e-05 -9.61548e-06)
(5.89986e-05 -8.90616e-06 -3.94303e-06)
(-2.24294e-08 2.30435e-08 7.42721e-09)
(-2.79506e-08 1.88575e-08 3.48122e-10)
(-1.93383e-08 1.64061e-08 3.99322e-09)
(-1.8713e-07 1.55383e-07 4.10836e-08)
(-1.39782e-09 5.68032e-10 1.40374e-10)
(-1.66099e-08 2.09136e-08 6.13765e-09)
(-4.59566e-09 2.99974e-09 2.17757e-10)
(2.95258e-09 1.34813e-08 -8.82459e-09)
(6.25622e-09 -7.3262e-09 -2.41257e-09)
(-2.98625e-08 4.68464e-08 8.98269e-09)
(-4.0361e-08 4.55084e-08 1.36766e-08)
(-4.2719e-08 3.23594e-08 1.21391e-09)
(-2.5084e-08 2.12521e-08 1.71795e-09)
(-4.20767e-07 4.1847e-07 8.1738e-08)
(-2.80451e-07 2.48204e-07 6.21569e-08)
(-1.39966e-07 1.57027e-07 3.41528e-08)
(-1.17668e-08 1.46293e-08 6.16804e-09)
(-5.16504e-10 1.8245e-10 3.75576e-10)
(7.67774e-09 -9.03113e-09 -1.18657e-09)
(7.49526e-09 -1.02222e-08 -1.00207e-09)
(-1.78929e-08 3.9596e-08 1.94377e-08)
(-3.81696e-10 -1.92682e-10 1.16451e-11)
(-8.10565e-08 2.3808e-07 1.77023e-08)
(-2.6868e-08 2.85197e-08 1.8008e-09)
(9.18611e-08 5.04439e-08 -5.04881e-08)
(1.24975e-08 6.12401e-08 -3.08556e-08)
(-6.96206e-08 3.12738e-07 6.49673e-09)
(-1.72925e-08 1.48618e-08 1.00583e-09)
(2.83762e-07 3.81849e-07 -2.72805e-07)
(-1.15269e-08 6.86717e-08 -2.40117e-09)
(1.21147e-06 -1.71902e-07 -4.70424e-07)
(5.44442e-07 -1.31466e-07 -1.4789e-07)
(6.63736e-07 2.51794e-07 -7.03529e-07)
(-3.15077e-08 6.05469e-08 2.52828e-09)
(1.3154e-08 2.27754e-07 -8.23957e-08)
(1.09838e-06 2.34534e-06 -2.65815e-06)
(1.79561e-06 2.96836e-07 -2.76883e-06)
(2.94212e-06 3.02478e-07 -1.07093e-06)
(9.57584e-06 -1.29837e-06 -6.8377e-06)
(3.48383e-06 6.80574e-08 -3.81925e-06)
(4.16233e-06 1.69967e-06 -4.93385e-06)
(9.23208e-06 -1.9873e-06 -7.77614e-06)
(5.19192e-06 -5.2422e-07 -5.62509e-06)
(-1.29735e-09 7.97484e-08 4.03704e-08)
(-2.6686e-10 8.10817e-10 1.00775e-09)
(2.54492e-09 -3.4571e-09 -3.31282e-09)
(4.79943e-09 -3.63595e-09 -2.15386e-09)
(1.80195e-08 8.49743e-08 4.79527e-08)
(-3.52915e-10 5.47941e-10 6.729e-10)
(1.41439e-05 -4.46452e-06 -9.39263e-06)
(1.51317e-05 -5.53418e-06 -1.00682e-05)
(1.93897e-05 -4.90639e-06 -9.3484e-06)
(1.98786e-05 -7.49237e-06 -1.05765e-05)
(2.13801e-05 -9.40662e-06 -1.13493e-05)
(2.15582e-05 -5.0858e-06 -3.27808e-06)
(3.20374e-05 -9.50843e-06 -1.00018e-05)
(2.24294e-05 -7.06035e-06 -9.28936e-06)
(2.60546e-05 -7.7359e-06 -1.00193e-05)
(3.26498e-05 -1.25285e-05 -1.18989e-05)
(3.54218e-05 -1.61911e-05 -1.26126e-05)
(2.61595e-05 -1.04371e-05 -1.13759e-05)
(2.82938e-05 -1.32515e-05 -1.2241e-05)
(5.81348e-08 6.06773e-08 5.53315e-08)
(-2.53174e-09 -7.53491e-09 -3.95219e-09)
(3.79543e-10 6.28375e-10 1.11597e-09)
(3.93366e-05 -1.43323e-05 -1.2016e-05)
(4.28482e-05 -1.87828e-05 -1.27381e-05)
(4.64419e-05 -1.20406e-05 -9.95315e-06)
(4.60057e-05 -1.57541e-05 -1.17554e-05)
(5.00426e-05 -2.02228e-05 -1.25016e-05)
(4.7221e-05 -1.43756e-05 -3.35944e-06)
(4.75226e-05 -1.45137e-05 -9.51657e-06)
(5.27442e-05 -1.28145e-05 -9.27512e-06)
(5.24655e-05 -1.72463e-05 -1.13685e-05)
(5.68525e-05 -2.12686e-05 -1.202e-05)
(-6.3326e-08 4.35514e-08 5.38883e-09)
(-1.1086e-09 6.25894e-10 3.00721e-12)
(-4.67729e-10 3.02511e-11 5.25663e-12)
(-3.33046e-09 2.16174e-09 1.85651e-10)
(-2.53597e-08 1.50689e-08 2.29903e-09)
(-2.92093e-08 2.04367e-08 8.21309e-10)
(-1.47566e-08 1.02432e-08 1.2014e-09)
(-8.42181e-10 5.23835e-09 -1.34011e-09)
(9.04395e-10 -6.45609e-10 -3.52026e-09)
(-1.12164e-09 3.85683e-09 -1.27309e-09)
(5.25844e-10 -3.81647e-12 -3.86546e-09)
(-8.18928e-06 7.79707e-06 1.33087e-07)
(-3.47234e-06 4.34915e-06 9.50488e-08)
(-1.64043e-05 1.69187e-05 1.05521e-07)
(-1.82199e-06 3.17852e-06 7.59291e-07)
(-6.40913e-06 8.8657e-06 1.04573e-06)
(-2.39689e-06 7.48011e-06 8.07744e-07)
(-1.00137e-05 1.6402e-05 6.05273e-07)
(1.8439e-08 1.42808e-08 -7.37835e-09)
(7.28417e-09 -5.82498e-09 -6.34379e-09)
(5.06896e-09 1.95715e-08 -3.85583e-09)
(1.41719e-08 -8.18475e-09 -7.09577e-09)
(-1.80626e-05 1.90892e-05 3.71209e-08)
(-3.40584e-06 6.24412e-06 -3.28833e-07)
(-2.0028e-05 2.15783e-05 -1.64734e-07)
(-1.83738e-06 8.46984e-06 3.26114e-07)
(-1.00716e-05 1.76385e-05 9.3448e-08)
(3.86382e-06 5.90485e-06 -3.50953e-06)
(-7.29408e-06 1.61515e-05 -1.53278e-06)
(4.65454e-07 -2.05259e-08 -5.73926e-07)
(9.28847e-08 -9.87935e-09 -4.68055e-08)
(1.76077e-07 -2.45905e-08 -1.71837e-07)
(2.38925e-07 8.62833e-08 -1.4091e-07)
(-5.38004e-07 8.75324e-07 1.96789e-07)
(-9.15862e-07 2.4562e-06 8.35711e-07)
(-3.54551e-06 6.87732e-06 1.25065e-06)
(6.17101e-08 2.57641e-07 1.67152e-07)
(4.24469e-07 8.61288e-07 3.66781e-07)
(1.56572e-06 2.958e-06 1.58516e-06)
(5.16617e-06 6.40987e-06 2.30268e-06)
(-3.76582e-07 2.61056e-06 7.50508e-07)
(2.24833e-06 1.61848e-06 -6.42456e-07)
(1.47547e-06 6.58048e-06 6.01228e-07)
(4.11501e-07 1.17316e-06 -2.46942e-07)
(2.26619e-06 3.49333e-06 1.48355e-06)
(9.25387e-06 2.91642e-06 -1.63352e-06)
(1.32035e-05 9.42471e-06 1.51869e-06)
(8.34602e-07 7.78184e-07 3.83186e-07)
(2.58111e-06 2.77056e-06 1.68601e-06)
(8.55154e-06 5.74384e-06 2.40275e-06)
(3.26695e-06 3.30847e-06 1.58448e-06)
(1.11961e-05 2.59896e-06 -1.7571e-06)
(1.71886e-05 9.02801e-06 1.80699e-06)
(-1.75611e-09 8.21558e-10 -1.371e-09)
(-1.89014e-09 1.19106e-09 -1.90165e-10)
(-1.19149e-08 6.63969e-09 5.70917e-10)
(-2.90056e-10 2.10807e-10 -7.20501e-10)
(5.36245e-10 -1.56603e-09 -2.98029e-09)
(8.34569e-10 -6.42542e-10 -3.38061e-09)
(-8.85766e-10 2.77906e-09 -1.30948e-09)
(5.37685e-10 -1.69579e-09 -3.99904e-09)
(-4.49207e-08 5.18795e-08 1.93071e-08)
(-5.11525e-08 5.04578e-08 1.63162e-08)
(-2.82126e-09 3.64227e-09 2.21721e-09)
(-1.90701e-07 2.74746e-07 1.05307e-07)
(-1.73572e-07 1.8391e-07 5.55161e-08)
(-4.817e-08 8.19228e-08 3.44137e-08)
(-1.99016e-09 1.37292e-09 6.84552e-10)
(-2.38183e-08 4.97954e-08 1.45134e-08)
(-1.42584e-08 6.67934e-08 -5.2435e-09)
(7.20862e-09 -6.49228e-10 -3.41139e-09)
(-6.3816e-08 3.312e-07 6.55094e-08)
(8.24938e-09 -7.5625e-09 -1.97198e-09)
(-7.64375e-08 1.85135e-07 3.57939e-08)
(-2.4978e-08 9.06621e-08 2.64681e-08)
(-1.27498e-06 1.13554e-06 1.39636e-07)
(-3.20871e-07 2.6538e-07 1.76099e-08)
(-1.95335e-06 1.73298e-06 6.71604e-08)
(-1.02866e-06 1.01038e-06 1.44928e-07)
(-5.52362e-07 4.96065e-07 8.30343e-08)
(-2.15448e-06 2.0438e-06 2.28174e-07)
(-1.01342e-06 8.74848e-07 3.68604e-08)
(-3.77691e-07 5.71795e-07 7.94794e-08)
(-4.108e-08 3.84169e-08 2.4651e-09)
(-8.51579e-07 9.64449e-07 4.90133e-08)
(-7.55966e-07 8.87809e-07 1.33365e-07)
(-2.59735e-07 3.45121e-07 5.58768e-08)
(-1.0882e-06 1.43333e-06 1.70253e-07)
(-8.604e-08 9.51661e-08 5.35085e-09)
(4.58456e-10 1.25133e-08 -2.7539e-09)
(5.59414e-09 -4.43168e-09 -6.08855e-09)
(2.87418e-09 1.95313e-08 -3.13028e-09)
(1.60229e-09 -2.27725e-09 -5.36729e-09)
(-4.70167e-07 8.27831e-07 8.45481e-08)
(-1.08814e-06 1.37352e-06 5.36938e-08)
(-1.36497e-07 1.99654e-07 6.98249e-09)
(-1.60588e-06 2.68593e-06 1.74652e-07)
(-1.35827e-06 2.0144e-06 1.78452e-07)
(-5.26224e-07 1.10015e-06 6.48245e-08)
(-9.93243e-08 1.1774e-07 5.92085e-09)
(-3.83039e-07 1.59378e-06 -1.44581e-07)
(-1.43751e-07 2.2864e-07 6.04139e-09)
(-1.45636e-06 2.68718e-06 -2.28614e-08)
(-1.62867e-06 3.22761e-06 6.39887e-08)
(-4.89303e-07 1.333e-06 -5.81601e-09)
(-1.52538e-06 3.64032e-06 -1.6962e-07)
(-1.43341e-07 3.26683e-07 3.91721e-10)
(8.23324e-08 -1.38452e-08 -5.56082e-08)
(7.99428e-08 -1.95921e-08 -3.68456e-08)
(1.43049e-07 -2.28209e-08 -1.2844e-07)
(5.05716e-08 -2.39307e-08 -1.66932e-08)
(-3.60601e-08 1.58281e-06 -4.83102e-07)
(-1.25434e-06 2.76779e-06 -1.31502e-07)
(-3.48047e-08 2.96505e-07 -4.93951e-08)
(-1.76043e-07 3.34522e-06 -1.41905e-06)
(-9.72395e-07 3.57922e-06 -6.30154e-07)
(6.32752e-07 1.17711e-06 -1.17571e-06)
(-1.2805e-07 3.42116e-07 -5.98119e-09)
(-2.26918e-08 1.35059e-07 6.95812e-08)
(-3.24486e-09 4.68599e-09 2.98988e-09)
(-1.51377e-07 3.47087e-07 1.54988e-07)
(-3.13632e-08 1.07034e-07 5.8389e-08)
(-3.87412e-08 1.09287e-07 5.03867e-08)
(-7.95076e-08 4.04358e-07 2.03993e-07)
(-2.11569e-09 6.38101e-09 4.34903e-09)
(4.3424e-09 1.78659e-07 5.54415e-08)
(5.07268e-09 4.50812e-09 -4.73994e-09)
(-5.51039e-09 4.9291e-07 9.60623e-08)
(-8.78342e-10 3.57245e-07 -3.82243e-08)
(-1.46353e-08 1.354e-07 3.91679e-08)
(7.52467e-10 1.93154e-08 -6.97642e-09)
(8.99685e-08 6.31822e-07 1.23145e-07)
(3.30649e-09 1.51468e-07 8.42116e-08)
(-7.76442e-09 1.17171e-07 7.08305e-08)
(-5.22013e-10 8.08912e-09 6.55299e-09)
(1.22014e-07 4.46612e-07 2.81298e-07)
(2.19479e-08 4.32048e-07 2.39081e-07)
(3.67285e-08 1.53767e-07 9.26187e-08)
(-2.00942e-09 7.15876e-09 5.11872e-09)
(3.1959e-08 2.05888e-07 6.53124e-08)
(3.22362e-08 4.27776e-07 -5.51137e-08)
(-5.11736e-09 2.45591e-08 -1.16297e-08)
(3.09514e-07 7.74254e-07 1.72258e-07)
(-1.32536e-10 2.30558e-08 -7.79043e-09)
(2.05114e-07 7.24574e-07 1.4387e-07)
(6.3068e-08 2.11204e-07 6.99634e-08)
(1.08782e-07 1.32032e-07 1.07338e-07)
(4.42173e-10 7.91603e-09 6.69487e-09)
(2.49156e-07 4.21765e-07 2.99788e-07)
(9.03305e-08 1.00222e-07 8.83958e-08)
(7.44387e-08 1.45645e-07 9.85782e-08)
(3.86814e-07 3.75128e-07 3.09299e-07)
(3.62758e-09 6.86564e-09 7.28164e-09)
(1.19243e-07 1.75242e-07 8.34865e-08)
(-6.62978e-09 2.32369e-08 -1.22962e-08)
(4.20644e-07 7.32433e-07 1.83074e-07)
(5.83473e-08 3.52743e-07 -7.9413e-08)
(9.65249e-08 1.98804e-07 7.45854e-08)
(-1.6018e-08 1.09643e-08 -1.35457e-08)
(5.13285e-07 6.41929e-07 1.91131e-07)
(1.501e-07 1.09595e-07 1.08203e-07)
(1.276e-07 8.33778e-08 8.73386e-08)
(5.29558e-07 3.14217e-07 3.08427e-07)
(4.89069e-09 6.2475e-09 7.12949e-09)
(1.47387e-07 1.38079e-07 8.46244e-08)
(4.263e-08 2.56562e-07 -8.66544e-08)
(-2.14656e-08 7.69618e-09 -1.34528e-08)
(5.91511e-07 5.1413e-07 1.95287e-07)
(-2.16728e-10 -5.01832e-09 -1.64949e-09)
(-2.06566e-10 -2.65827e-11 -7.34763e-10)
(-2.09157e-10 -5.63703e-10 -2.24734e-09)
(1.75476e-10 -5.81406e-09 -1.57996e-09)
(1.1055e-09 -3.01658e-09 -3.30693e-09)
(1.48324e-10 -1.4112e-09 -3.3234e-09)
(5.59214e-10 -6.06332e-09 -1.66039e-09)
(3.66874e-09 -6.10198e-09 -1.02818e-09)
(3.11052e-09 -6.30943e-09 -2.0769e-09)
(6.21204e-10 -2.78434e-09 -2.77931e-09)
(2.45093e-09 -6.66723e-09 -1.12197e-09)
(-1.5865e-10 -6.2476e-09 -2.16556e-09)
(-4.67369e-10 -2.88693e-10 -2.34615e-09)
(-2.07122e-10 -4.31295e-10 -2.35344e-09)
(5.07144e-11 -1.10767e-09 -3.12734e-09)
(1.48945e-10 -5.20758e-09 -1.71848e-09)
(-2.0429e-09 -1.45348e-09 2.04305e-10)
(-2.8779e-10 -1.66864e-10 -3.42571e-10)
(-6.09807e-10 -1.43345e-09 -1.82649e-09)
(1.94617e-09 -5.76238e-09 -1.11296e-09)
(-1.26293e-07 9.05248e-08 1.07288e-08)
(-5.74582e-10 -8.40691e-11 6.50533e-11)
(-1.05365e-07 7.54197e-08 1.00325e-08)
(-1.92234e-07 1.41794e-07 5.00015e-09)
(-3.40166e-08 2.12553e-08 3.2945e-09)
(-2.5199e-07 1.86234e-07 2.07085e-08)
(-6.86067e-08 5.18005e-08 1.89706e-09)
(-5.6458e-09 9.7934e-09 3.87369e-10)
(-2.45221e-08 2.76375e-08 4.34095e-09)
(-1.01811e-08 7.54142e-09 4.99209e-10)
(-4.648e-09 7.63013e-09 3.73579e-11)
(-3.38712e-08 3.91065e-08 5.95956e-09)
(-1.4372e-09 7.02855e-09 -1.4323e-09)
(7.71404e-10 -1.99259e-10 -4.6462e-09)
(2.78938e-10 4.69344e-10 -3.96771e-09)
(-2.52664e-09 1.07634e-08 -1.31805e-09)
(-7.16928e-09 1.35824e-08 5.48523e-10)
(-4.89112e-08 6.48225e-08 8.766e-09)
(-1.16477e-08 9.09863e-09 5.94532e-10)
(-4.13678e-08 5.2176e-08 7.07048e-09)
(-8.52481e-09 1.69701e-08 7.70056e-10)
(-3.01894e-09 3.80567e-08 -3.48693e-09)
(-7.3433e-08 1.53156e-07 6.22812e-09)
(-3.09448e-08 4.07658e-08 2.31261e-09)
(-6.73626e-09 3.53483e-08 -2.08254e-09)
(-7.28134e-08 1.7659e-07 2.93822e-09)
(2.12991e-08 1.41049e-08 -9.36899e-09)
(2.83596e-08 -1.88773e-08 -9.03963e-09)
(1.65437e-08 -9.1475e-09 -7.34137e-09)
(3.73909e-08 1.16919e-08 -1.73931e-08)
(1.90461e-09 4.00906e-08 -7.04488e-09)
(-5.55305e-08 2.14272e-07 -1.28477e-08)
(-3.0962e-08 4.4647e-08 2.31747e-09)
(-6.49074e-08 1.93057e-07 -4.67091e-09)
(8.34511e-09 4.19781e-08 -1.16742e-08)
(1.12946e-06 -2.53515e-07 -1.67247e-06)
(2.88786e-06 -1.14958e-06 -4.02479e-06)
(1.73129e-06 -6.56226e-07 -2.76914e-06)
(2.8753e-06 -5.66656e-07 -3.197e-06)
(2.11243e-07 -4.06131e-08 -3.33892e-07)
(1.22428e-07 8.89663e-08 -2.62538e-07)
(2.95761e-08 7.59418e-08 -2.16191e-08)
(1.00969e-07 -1.76315e-10 -1.42735e-07)
(3.13232e-07 -1.39559e-08 -5.48766e-07)
(6.42596e-07 -6.28729e-08 -8.8037e-07)
(3.98774e-07 1.63643e-07 -2.26064e-07)
(1.06921e-06 -9.86752e-08 -1.36383e-06)
(2.27222e-06 7.84012e-07 -8.21651e-07)
(7.95971e-07 3.43974e-07 -3.81883e-07)
(2.82008e-06 -2.08584e-07 -2.62322e-06)
(6.9514e-07 -1.49911e-07 -1.06903e-06)
(6.04957e-08 7.08333e-08 -4.14654e-08)
(7.10213e-07 -2.13555e-07 -1.23198e-06)
(2.62992e-09 -5.84738e-09 3.54563e-11)
(-4.31855e-09 5.73004e-09 5.53545e-09)
(-6.11287e-10 4.54956e-10 5.8787e-10)
(2.66679e-09 -5.83894e-09 -4.48141e-11)
(-4.39932e-09 7.96811e-09 7.10236e-09)
(3.13544e-09 -6.69251e-09 3.37834e-11)
(3.27429e-09 3.40121e-09 2.56713e-09)
(6.27351e-09 -6.44571e-09 -1.79926e-09)
(3.18517e-09 -6.68505e-09 -5.06692e-11)
(1.92199e-09 8.87101e-09 4.02507e-09)
(3.13646e-09 -6.69233e-09 3.90242e-11)
(2.11607e-09 1.51403e-08 5.52783e-09)
(5.88043e-09 -5.69549e-09 -1.84421e-09)
(2.11138e-09 1.0764e-08 4.48107e-09)
(3.12259e-09 -6.67518e-09 5.30694e-11)
(2.63303e-09 -5.8471e-09 3.93236e-11)
(-3.57454e-09 1.06236e-08 9.2233e-09)
(-5.00434e-10 4.58719e-10 5.87039e-10)
(-4.16589e-09 8.91293e-09 7.81119e-09)
(2.62524e-09 -5.83336e-09 5.16218e-11)
(1.6236e-05 -6.60805e-06 -7.67208e-06)
(2.01617e-05 -1.18347e-05 -1.04719e-05)
(1.73352e-05 -9.96838e-06 -9.97415e-06)
(2.04511e-05 -8.64542e-06 -8.14743e-06)
(1.49133e-05 -4.41936e-06 -6.19768e-06)
(9.76762e-06 4.16279e-07 -2.2443e-06)
(1.09458e-05 -2.52821e-06 -5.44691e-06)
(1.34336e-05 -7.30407e-07 -2.62586e-06)
(1.49102e-05 -5.81838e-06 -7.39036e-06)
(1.21832e-05 -6.40348e-06 -8.7167e-06)
(1.10992e-05 -3.79137e-06 -6.53119e-06)
(1.468e-05 -8.11834e-06 -9.35822e-06)
(1.61545e-05 -5.05673e-06 -6.34295e-06)
(1.86557e-05 -2.92203e-06 -3.0551e-06)
(1.47369e-05 -1.30192e-06 -2.78211e-06)
(2.0497e-05 -6.867e-06 -6.83351e-06)
(2.71876e-09 -5.77525e-09 5.73573e-11)
(4.55236e-10 1.38603e-08 1.34904e-08)
(-3.70705e-11 7.96975e-10 1.08929e-09)
(2.68064e-09 -5.80009e-09 5.11463e-11)
(3.42318e-09 1.31052e-08 1.39284e-08)
(3.21376e-09 -6.60421e-09 5.82139e-11)
(5.11423e-09 1.72846e-08 6.17737e-09)
(1.57381e-09 -4.82224e-09 -3.78378e-09)
(3.17034e-09 -6.63382e-09 5.36933e-11)
(7.15057e-09 1.46108e-08 6.60733e-09)
(3.21323e-09 -6.59947e-09 6.01311e-11)
(8.59568e-09 8.81795e-09 6.38517e-09)
(1.02855e-09 -5.06622e-09 -3.75748e-09)
(7.40719e-09 1.37839e-08 6.83941e-09)
(3.1199e-09 -6.54194e-09 7.18473e-11)
(2.71737e-09 -5.77104e-09 5.85222e-11)
(7.03702e-09 1.19623e-08 1.50091e-08)
(9.68111e-11 7.29675e-10 1.08338e-09)
(4.87518e-09 1.22726e-08 1.38294e-08)
(2.63354e-09 -5.72071e-09 7.25413e-11)
(4.09769e-05 -1.81029e-05 -9.17795e-06)
(4.53971e-05 -2.48261e-05 -1.16865e-05)
(4.21254e-05 -2.35708e-05 -1.17439e-05)
(4.60909e-05 -1.98239e-05 -9.03043e-06)
(3.95016e-05 -1.50271e-05 -7.70953e-06)
(3.17445e-05 -8.52381e-06 -3.50966e-06)
(3.42892e-05 -1.28175e-05 -7.64663e-06)
(3.66435e-05 -9.85921e-06 -3.4775e-06)
(3.93536e-05 -1.74551e-05 -9.14263e-06)
(3.55848e-05 -2.06494e-05 -1.17394e-05)
(3.43568e-05 -1.54019e-05 -9.05988e-06)
(3.88638e-05 -2.21725e-05 -1.17356e-05)
(4.10555e-05 -1.56153e-05 -7.64423e-06)
(4.31011e-05 -1.29413e-05 -3.34699e-06)
(3.82789e-05 -1.04916e-05 -3.48051e-06)
(4.62747e-05 -1.72344e-05 -7.56832e-06)
(-1.02413e-09 4.20899e-10 -1.63229e-09)
(-6.40168e-11 7.00909e-11 -8.55782e-10)
(-2.62229e-10 -1.34686e-10 -2.15413e-09)
(-1.55931e-10 1.45875e-10 -7.9212e-10)
(-2.65525e-09 1.23754e-09 -1.1822e-09)
(-8.76939e-08 5.88298e-08 1.05188e-08)
(-4.39195e-10 -2.70551e-10 -1.26535e-10)
(-1.80392e-08 1.03849e-08 1.38894e-09)
(-1.26626e-08 7.04395e-09 7.64973e-10)
(-1.54091e-09 6.6472e-10 -1.52586e-09)
(-8.76308e-10 5.69393e-11 -2.07271e-09)
(-3.62035e-10 -5.74529e-11 -2.18802e-09)
(-5.79679e-09 2.80293e-09 -5.27569e-10)
(4.80168e-10 -3.05789e-09 -3.47453e-09)
(4.80254e-10 -1.763e-09 -4.0974e-09)
(1.06327e-10 -1.374e-09 -3.42297e-09)
(3.56302e-10 -2.58597e-09 -4.727e-09)
(-1.44559e-09 5.47926e-10 -1.47308e-09)
(-1.62071e-08 1.64252e-08 2.95634e-09)
(-6.95664e-10 -3.16135e-10 -1.57761e-10)
(-3.42728e-09 4.66124e-09 -2.30185e-10)
(-6.87853e-09 4.81042e-09 2.24694e-10)
(-1.05808e-10 -2.49255e-09 -2.85671e-09)
(-6.66895e-10 -3.9868e-10 -2.23975e-09)
(-1.67772e-10 -9.69096e-10 -3.06363e-11)
(1.36874e-11 -1.16969e-09 -3.16491e-09)
(-4.9966e-09 1.23637e-09 -5.27055e-10)
(-6.30821e-08 4.4677e-08 1.03196e-08)
(-1.01909e-07 7.80254e-08 3.92551e-09)
(-8.22934e-08 6.2463e-08 9.34452e-09)
(-4.66511e-10 -2.15606e-10 -1.58551e-10)
(-1.82413e-08 1.1324e-08 1.83349e-09)
(-1.53687e-07 1.21267e-07 1.76465e-08)
(-1.14592e-08 5.74837e-09 3.34634e-10)
(-3.77987e-08 2.46655e-08 6.15234e-09)
(-1.21894e-09 9.49241e-11 -1.92293e-09)
(-2.26471e-10 -1.0425e-09 -2.1774e-11)
(-8.45797e-09 4.59844e-09 5.61375e-11)
(-8.52092e-09 4.37071e-09 4.00864e-10)
(-4.0775e-10 -1.11831e-09 4.93051e-11)
(2.62317e-09 -5.84185e-09 -3.26701e-10)
(-4.24858e-09 4.69584e-09 4.87978e-09)
(-5.2487e-10 5.35772e-11 2.61052e-10)
(2.6711e-09 -5.83854e-09 -6.55685e-11)
(-4.49438e-09 2.87642e-09 3.53188e-09)
(3.15215e-09 -6.70063e-09 -3.40663e-10)
(8.36558e-09 -1.02036e-08 -8.35581e-10)
(3.08904e-09 1.89741e-09 2.52284e-09)
(3.19152e-09 -6.68564e-09 -7.2833e-11)
(3.64453e-09 -1.95163e-09 1.52941e-09)
(3.12643e-09 -6.70275e-09 -4.00653e-10)
(3.6371e-09 -5.26977e-09 -5.35506e-10)
(8.32846e-09 -1.02243e-08 -7.77221e-10)
(2.60355e-09 -6.68221e-09 -1.01212e-09)
(3.74496e-09 -3.15912e-09 1.18316e-09)
(2.59736e-09 -5.84037e-09 -3.84919e-10)
(-2.58987e-09 -5.5884e-10 7.94927e-10)
(-4.56527e-10 -2.55552e-11 1.81837e-10)
(2.09239e-09 -5.78303e-09 -1.00007e-09)
(-4.13176e-09 1.77938e-09 2.89329e-09)
(-5.09597e-10 1.2418e-08 -2.35572e-09)
(8.19064e-10 -2.72219e-10 -4.76392e-09)
(-3.24181e-09 1.28766e-08 -1.38881e-09)
(1.23523e-09 -1.02273e-09 -5.11031e-09)
(-8.73608e-09 2.71166e-08 -1.11563e-10)
(-7.19493e-08 1.34577e-07 8.98592e-09)
(-2.26753e-08 2.20845e-08 1.44787e-09)
(-9.11806e-09 3.26591e-08 -5.84363e-10)
(-6.76631e-08 1.14908e-07 9.38386e-09)
(-9.82867e-09 2.42716e-08 6.48271e-10)
(-5.61046e-08 8.07642e-08 9.26863e-09)
(-2.11694e-08 1.98638e-08 1.32621e-09)
(-9.68179e-09 2.12737e-08 6.07023e-10)
(-6.28459e-08 9.75371e-08 9.61308e-09)
(7.24305e-08 -9.60522e-09 -4.35348e-08)
(3.19328e-08 -2.03853e-08 -9.52151e-09)
(4.18512e-08 1.14668e-08 -2.19667e-08)
(4.60473e-08 -2.27915e-08 -1.42371e-08)
(4.78618e-08 2.50541e-08 -5.11773e-08)
(7.49778e-08 1.63224e-07 -1.60819e-07)
(-2.44742e-08 7.36474e-08 1.10391e-09)
(7.07881e-08 1.69809e-08 -8.2977e-08)
(2.70731e-08 2.06313e-07 -9.80176e-08)
(2.99825e-08 3.62329e-08 -3.10977e-08)
(-3.65406e-08 2.21487e-07 -3.16452e-08)
(-2.70937e-08 7.21443e-08 1.79805e-09)
(1.78723e-08 3.98522e-08 -1.99366e-08)