/*--------------------------------*- C++ -*----------------------------------*\
| =========                 |                                                 |
| \\      /  F ield         | OpenFOAM: The Open Source CFD Toolbox           |
|  \\    /   O peration     | Version:  2012                                  |
|   \\  /    A nd           | Website:  www.openfoam.com                      |
|    \\/     M anipulation  |                                                 |
\*---------------------------------------------------------------------------*/
FoamFile
{
    version     2.0;
    format      ascii;
    class       volScalarField;
    location    "0.105/fluid";
    object      p;
}
// * * * * * * * * * * * * * * * * * * * * * * * * * * * * * * * * * * * * * //

dimensions      [0 2 -2 0 0 0 0];


internalField   nonuniform List<scalar> 
16421
(
0.0379899
0.0136447
0.00734051
0.00471979
0.00313914
0.00200143
0.00118195
0.000613109
0.000242747
1.53673e-05
-0.000101153
-0.000132695
-8.90505e-05
-0.0690491
0.00607096
0.00891319
0.00689419
0.00481769
0.0032194
0.00203018
0.00118341
0.000601904
0.000227139
4.02939e-06
-0.0001098
-0.000137309
-9.31576e-05
-0.0302671
0.00589363
0.00991537
0.00788876
0.00535908
0.00344546
0.00210095
0.00118261
0.000579907
0.000198991
-1.7687e-05
-0.000118346
-0.000137865
-8.9885e-05
0.0370146
0.0256881
0.0156346
0.00964985
0.00591546
0.00359438
0.00210635
0.00114263
0.000534063
0.000160066
-4.56833e-05
-0.000133291
-0.000142074
-8.78357e-05
0.139394
0.0329002
0.0129343
0.00649693
0.00407903
0.00272411
0.00171819
0.000990679
0.000486433
0.000156743
-3.85483e-05
-0.000133353
-0.000148904
-9.63709e-05
-0.200112
-0.048135
0.00588718
0.00966089
0.00657893
0.00426244
0.00282179
0.00175272
0.000992317
0.000475399
0.000143311
-5.0343e-05
-0.000141752
-0.000155827
-0.000101597
-0.0764344
0.00162665
0.0145011
0.0126328
0.00817802
0.00495668
0.00308371
0.00183529
0.000999447
0.000454727
0.000117114
-7.13104e-05
-0.00015295
-0.000157528
-9.79013e-05
-0.169127
0.0839418
0.0387983
0.0191335
0.010127
0.00560636
0.0032683
0.00185379
0.000965139
0.000408857
7.63817e-05
-0.000100013
-0.000168622
-0.00016297
-9.70726e-05
0.133477
0.0229731
0.00765773
0.00391233
0.0026206
0.0017129
0.00102178
0.000518615
0.000173464
-4.87334e-05
-0.000169319
-0.00021327
-0.000192309
-0.000114625
-0.190198
-0.0537701
-0.000103405
0.00585307
0.00421102
0.00286284
0.0018365
0.00106678
0.000526587
0.000165127
-5.99655e-05
-0.000180837
-0.000222053
-0.000200405
-0.000118428
-0.0794494
0.00290681
0.0148316
0.0110284
0.00639973
0.00368601
0.00215045
0.00116966
0.000542921
0.000148692
-8.46228e-05
-0.000202012
-0.000234876
-0.00020411
-0.000116818
-0.0915203
0.139796
0.04883
0.0197228
0.00895567
0.00451279
0.00239259
0.00121365
0.0005201
0.000107835
-0.000123723
-0.000231075
-0.000252897
-0.000212695
-0.000117847
-0.0608713
0.0729005
-0.380548
-0.110858
0.0671014
-0.0834002
0.013403
0.101607
0.0191734
-0.0529365
-0.0149832
-0.219589
-0.0792843
-0.297548
-0.117993
-0.227228
-0.0775981
-0.082903
-0.00692431
-0.207704
-0.0585884
-0.250177
-0.0103471
0.0385556
-0.186878
0.0150195
0.135099
-0.286319
-0.05729
0.110921
-0.294951
-0.0801733
0.115765
-0.105299
0.131707
0.133819
-0.271555
-0.0572062
0.184691
-0.546431
-0.790359
-0.549241
0.0180854
0.22322
0.152232
0.134067
-0.0347696
0.166525
0.0742374
-0.436745
0.680994
-0.37294
-0.430834
-0.306366
0.737507
-0.342466
0.746025
-0.264135
-0.357257
-0.263102
0.75385
0.761661
-0.260761
-0.0160866
0.0291433
0.0360362
0.0217643
-0.32195
-0.478469
-0.794895
-0.321767
-0.775047
-0.44865
-0.000321512
-0.139395
0.0521745
-0.110498
-0.0412526
-0.145028
0.0513908
0.0208555
-0.147108
0.0456834
0.0470234
0.103826
0.0454062
-0.282998
-0.420646
-0.750351
-0.291508
-0.73406
-0.401214
-0.00879777
-0.103613
0.0938702
0.146129
-0.0530867
0.19764
0.0626109
-0.40917
0.0318574
0.18062
-0.0782988
-0.343107
-0.386523
0.940728
-0.398131
-0.660752
-0.494387
-0.336566
-0.166374
0.117063
-0.0795896
-0.125112
-0.35538
-0.410858
-0.48515
-0.808715
-0.780829
-0.355836
-0.551806
-0.394001
0.744769
-0.268344
-0.293548
-0.37225
0.741393
-0.303284
0.777921
-0.301582
-0.257175
-0.311258
0.754408
-0.0259668
0.0966607
-0.209225
-0.213053
-0.0209336
-0.0192042
0.102712
-0.0663285
0.142656
-0.305932
-0.423294
-0.753327
-0.770211
-0.300875
-0.445055
0.120455
0.160235
0.065932
0.0463051
0.123717
-0.133997
0.120966
0.0768263
0.144804
0.142518
0.20234
0.152977
0.202774
-0.276296
-0.731135
-0.399405
0.210327
0.258802
0.189284
0.226303
0.27363
-0.0384748
0.215903
0.216624
0.266341
0.304128
0.215269
0.272551
-0.00245809
0.106754
0.0502255
0.173077
0.34448
-0.0439656
-0.424437
-0.124605
-0.371781
0.000144589
-0.0311603
9.95045e-05
-0.0731195
-0.0221617
-0.0480034
-0.0167485
0.0424617
-0.268175
0.0391807
-0.264961
0.00163535
0.0301164
0.0235809
-0.0335047
-0.0117616
0.00967079
0.0135124
-0.0809072
-0.330993
-0.0136256
-0.421061
0.0447454
-0.0203337
0.0111748
0.116861
0.0213387
-0.0449708
-0.0113373
-0.0777873
-0.0866569
-0.0133506
-0.212205
-0.114602
-0.131978
-0.064917
0.0332886
-0.0233645
0.00359058
-0.0885324
-0.0956114
-0.0304038
-0.134773
0.115637
0.0425704
0.105766
-0.270525
-0.420373
-0.176594
-0.483753
-0.265051
0.126046
-0.307417
-0.0410374
0.0259654
-0.320181
-0.354254
-0.34677
-0.283651
-0.644392
-0.320814
-0.623789
-0.18249
-0.470276
-0.0322833
0.0391944
-0.010079
0.030438
-0.0859968
-0.0275861
0.0507633
-0.280536
-0.163845
-0.0831485
0.0425808
-0.295491
0.0844763
-0.0300273
0.0322062
-0.269828
0.0370507
-0.277495
-0.264072
-0.117916
-0.000613177
0.118988
0.1053
-0.249645
-0.0175354
-0.222081
0.00484999
-0.0544294
0.130856
-0.232797
0.138523
0.0230566
0.0340598
-0.319844
0.0124295
-0.285872
-0.193528
-0.0561725
0.0754263
0.157404
0.145754
-0.177501
0.0211202
-0.263676
-0.288169
0.03159
0.0922062
-0.227458
-0.0072419
-0.27238
-0.414656
-0.613795
-0.222233
-0.32179
-0.319868
-0.607461
-0.262864
-0.218459
0.135258
-0.24705
0.0120348
0.0318668
-0.232937
-0.260551
-0.332602
-0.280192
-0.583026
-0.237281
-0.591378
-0.220604
-0.374192
-0.211088
-0.239588
0.0332009
0.125089
-0.20903
0.0259035
-0.225253
-0.347979
-0.574174
-0.213759
-0.277032
-0.335104
-0.564217
-0.219902
-0.196909
0.137105
0.037397
-0.220753
-0.328641
-0.262093
-0.557836
-0.205263
-0.868928
-0.519084
-0.866781
-1.10465
-0.825295
-0.68676
-1.03829
-0.715442
-0.75051
-0.714499
-0.876233
-1.02035
-0.469231
-0.944501
-0.618584
-0.75785
-0.867328
-0.617385
-0.89659
-0.660698
0.160584
0.00348016
0.0775635
0.115643
0.0399519
0.136949
0.12204
0.130196
0.374542
0.670642
0.126595
0.360803
-0.016373
-0.297739
-0.334221
0.0144423
0.220019
0.431361
0.705869
0.422872
0.251069
0.268799
0.467015
0.748069
0.266767
0.470663
0.0433576
-0.266948
-0.264748
0.044063
0.270853
0.478479
0.749679
0.471751
0.273664
-0.129032
0.0960651
-0.049278
-0.0943878
0.183097
0.356065
0.788278
0.189934
0.37254
-0.147982
-0.459722
-0.200065
-0.359688
-0.423679
-0.163499
-0.0498813
0.810006
0.355954
-0.564001
-0.762254
-0.462316
-0.601401
-0.750318
-0.753605
-0.653671
-0.784923
-0.77777
-0.64485
-0.752854
-0.64049
-0.785554
-0.651313
-0.737127
-0.56304
-0.731616
-0.460698
-0.746965
-0.548063
0.0237303
0.213505
0.182465
0.0631797
-0.0495695
-0.268611
-0.0824449
-0.249368
0.0148205
0.142943
-0.020415
0.170438
-0.0400946
-0.223542
-0.243699
-0.00335217
-0.514128
-0.693612
-0.41154
-0.527534
-0.683356
-0.698967
-0.611612
-0.743287
-0.710028
-0.604792
-0.698601
-0.59722
-0.741445
-0.604084
-0.687962
-0.516908
-0.669924
-0.409439
-0.679806
-0.504271
0.275232
0.494221
0.457692
0.329933
0.180627
-0.145196
0.129099
-0.111943
0.257869
0.385724
0.204068
0.423011
0.197586
-0.0628899
-0.100273
0.250946
-0.233723
-0.408869
-0.712877
0.0274206
-0.157255
-0.00778236
-0.366164
0.0290993
-0.303413
-0.254343
-0.449642
-0.715934
-0.357891
-0.369129
-0.68472
-0.521643
-0.517829
-0.0627928
0.294315
0.8201
-0.0138955
0.163295
-0.330765
-0.398753
-0.0233072
-0.450908
-0.221998
-0.266849
-0.109696
-0.0255082
-0.375737
-0.325029
-0.057162
-0.132655
-0.314746
-0.398595
-0.0777831
-0.362739
-0.257946
-0.0609545
-0.584938
-0.772457
-0.512133
-0.585526
-0.804116
-0.801334
-0.831225
-0.672815
-0.783604
-0.695194
-0.804142
-0.690192
-0.817154
-0.871196
-0.681809
-0.600097
-0.843484
-0.512701
-0.693182
-0.812105
0.0281365
-0.291949
0.0244857
-0.28061
0.263397
0.46384
0.743949
0.26381
0.462721
0.254864
0.453389
0.741952
0.259677
0.451973
0.0397463
-0.268057
0.043333
-0.28036
0.260267
0.498915
0.760619
0.268738
0.473514
0.272994
0.472579
0.761395
0.265833
0.493576
0.0497159
0.1346
0.0180958
0.125478
0.157511
0.0811671
0.179255
0.0745007
-0.0605166
0.0613632
-0.0927005
0.108524
-0.12226
-0.276822
-0.0934832
-0.2983
-0.124483
-0.338448
-0.155382
-0.304748
-0.0633264
0.112749
-0.0326748
0.0785558
0.155467
0.117617
0.10858
0.174868
0.108545
0.156041
0.124943
0.133852
-0.537604
-0.698689
-0.432517
-0.524671
-0.709449
-0.721785
-0.760964
-0.617109
-0.71049
-0.624602
-0.722161
-0.63048
-0.76227
-0.736281
-0.622892
-0.535205
-0.724587
-0.434378
-0.553077
-0.71276
0.180018
0.245517
0.219097
0.20079
0.187816
0.191858
0.218184
0.165865
0.123304
0.250158
0.0781895
0.283196
0.065748
-0.155702
0.11259
-0.183839
0.0522299
-0.215695
0.0101477
-0.192008
0.136854
0.346499
0.186435
0.310675
0.260182
0.283761
0.235598
0.313567
0.26841
0.362275
0.33164
0.292236
-0.593346
-0.722801
-0.687568
-0.665507
-0.39566
-0.507275
0.362041
0.484431
0.454886
0.383246
0.346454
0.397899
0.429694
0.321907
0.529835
0.347625
0.561622
-0.0497853
0.268314
0.419163
0.512676
0.403337
0.53686
0.0366505
0.103441
-0.0816351
0.0512255
0.191812
0.0182214
0.0126847
0.0111848
0.0121204
0.00741203
-0.00679765
0.00218662
-0.382708
-0.374351
-0.232672
-0.235252
-0.333765
-0.298492
0.0989954
-0.0104478
0.023097
-0.405934
-0.363932
-0.25327
-0.183834
-0.0569505
0.0280534
-0.142668
-0.00269728
-0.180881
0.0150283
0.155381
0.0499053
0.0264601
0.0159239
0.0902038
0.0383734
-0.239692
-0.236019
-0.266751
-0.291383
-0.918197
-0.678719
-0.571851
-0.874031
-1.03395
-0.698462
-0.848036
0.192097
0.221068
0.0733148
0.211139
0.185023
0.167615
0.255397
-0.250586
0.0055957
-0.311771
0.607059
-0.242201
-0.3355
0.0584287
-0.268013
-0.26205
-0.186226
-0.248436
0.734314
0.103719
-0.247793
-0.19196
0.0895325
-0.13624
0.133041
-0.204756
0.748339
-0.198112
-0.149899
0.135403
-0.229785
-0.231798
-0.1249
-0.192596
0.754093
0.144857
-0.185661
-0.136694
0.144296
-0.250232
0.112557
-0.219207
0.772077
-0.248504
-0.199201
0.0907499
-0.74042
-0.334426
-0.503841
-0.777236
-0.779311
-0.516136
-0.729304
-0.749103
-0.324342
-0.81603
-0.506746
-0.774999
-0.784186
-0.50292
-0.689269
-0.287402
-0.459013
-0.71393
-0.719499
-0.463851
-0.680787
-0.691896
-0.289043
-0.731157
-0.468564
-0.700808
-0.72387
-0.46486
-0.548453
-0.108265
-0.508905
1.32215
-0.423568
-0.591445
-0.17204
-0.126631
-0.123772
-0.0520143
0.0360189
0.0780649
-0.0711763
-0.0530241
-0.803498
-0.600823
-0.36107
-0.931639
-0.868677
-0.815604
-0.536634
-0.775396
-0.393251
-0.823261
-0.536104
-0.772116
-0.783887
-0.567695
-0.254467
-0.260569
-0.143546
0.13143
-0.210502
0.746519
-0.205004
-0.154062
0.128569
-0.165307
-0.240044
0.107395
0.743879
-0.232492
-0.181277
0.114277
-0.236367
-0.232097
-0.143235
0.122919
-0.22328
0.771584
-0.203372
-0.16952
0.140958
-0.123009
-0.188303
0.146971
0.757671
-0.18364
-0.133593
0.146161
0.171811
-0.0504397
0.186669
0.0195027
0.21515
0.13443
0.00561364
-0.715652
-0.485253
-0.305289
-0.761896
-0.727592
-0.749758
-0.481933
-0.712097
-0.307073
-0.742162
-0.479372
-0.70324
-0.747234
-0.485706
-0.668952
-0.451685
-0.272667
-0.705461
-0.678166
-0.698864
-0.447065
0.043378
0.0879201
0.171954
0.00923285
0.254588
0.154433
0.0549125
0.0309708
-0.0232962
0.0720154
-0.0405596
0.0690369
0.0955762
-0.330419
-0.24034
-0.316824
-0.237502
-0.385145
-0.345553
-0.332511
-0.24836
-0.25459
-0.295134
-0.17522
-0.117793
-0.178313
-0.114308
-0.231788
-0.2306
-0.174364
-0.112911
-0.113353
-0.173502
-0.270279
-0.182849
-0.23693
-0.205814
-0.344262
-0.396756
-0.27887
-0.239491
-0.218411
-0.326078
0.0471985
0.10302
-0.426192
-0.495959
-0.352616
-0.252571
-0.311102
-0.306205
-0.371617
-0.375582
-0.44008
-0.332628
-0.17041
-0.0504032
-0.0376748
-0.0501881
-0.0685343
-0.10308
-0.152359
0.017946
-0.0345347
0.0101585
-0.0499126
-0.1314
-0.0413628
-0.136854
-0.241002
-0.245741
-0.182251
-0.119377
-0.179111
-0.121394
-0.18347
-0.127728
-0.188589
-0.123324
0.0540517
-0.00294274
0.0513717
-0.015846
-0.108461
-0.0120083
-0.112087
0.0356453
-0.0176744
0.0352089
-0.0339619
-0.127749
-0.0340698
-0.12794
0.0584461
0.00913316
0.0645367
-0.00158921
-0.102657
-0.00728866
-0.0975364
0.0784115
0.015654
0.0682084
0.005463
-0.0813489
0.0143282
-0.0896043
-0.263123
-0.248047
-0.204775
-0.160497
-0.229421
-0.141632
-0.2018
-0.124341
-0.187974
-0.133559
-0.0304597
0.132721
0.0252258
0.102145
0.0622376
0.0495697
-0.0644069
0.0719914
0.0428925
0.0986657
0.0341096
-0.0800775
0.0125498
-0.0610964
-0.895559
-0.850348
-1.03826
-1.02564
-0.833583
-0.792081
-0.486733
-0.746179
-0.44397
-1.12306
-1.25329
-1.05405
-1.04041
-1.0884
-1.14873
-1.12472
-1.09924
-1.05258
-0.877083
-0.989274
-1.03836
-1.20006
-1.19243
-1.2052
-1.13958
-1.08405
-0.899856
-1.00059
-1.00649
-1.06323
-0.832844
-0.748855
-0.685027
-0.690875
-0.834169
-0.766126
-0.52123
-0.775237
-0.518804
-0.838566
-0.673562
-0.706746
-0.684252
-0.841936
-0.765479
-0.546793
-0.774608
-0.52877
0.116248
0.0152392
-0.0554213
0.00674403
-0.00644755
-0.175351
0.0891039
-0.170315
-0.20582
-0.188406
-0.215285
-0.231011
0.631389
-0.256043
0.0625022
-0.252681
-0.234227
0.0542471
-0.184986
-0.20995
-0.214728
-0.182265
-0.27314
-0.322429
-0.212278
-0.152951
-0.162958
-0.205505
-0.218791
-0.21688
-0.273795
-0.18369
-0.193374
0.723736
-0.269811
0.065121
-0.255072
-0.215379
0.0871514
-0.108997
-0.119598
-0.127825
-0.107234
-0.124633
-0.176105
-0.151943
-0.146847
-0.0559321
-0.0809646
-0.075477
-0.0663954
-0.132938
0.749679
-0.199638
0.138605
-0.193694
-0.144715
0.137091
-0.0536017
-0.0759096
-0.0739543
-0.0612597
-0.230421
-0.230183
-0.17169
-0.110598
-0.109893
-0.173859
-0.172415
-0.111614
-0.172902
-0.11007
-0.128197
0.752451
-0.195376
0.141085
-0.18925
-0.140512
0.142266
-0.0473438
-0.0716039
-0.0689503
-0.05517
-0.0494176
-0.0739103
-0.0584342
-0.0700326
-0.156008
-0.155855
-0.176399
-0.140921
-0.251892
0.780547
-0.195798
0.088819
-0.254752
-0.194952
0.106222
-0.156202
-0.190488
-0.181235
-0.157465
-0.466708
-0.421585
-0.41354
-0.249835
-0.348763
-0.287376
-0.137551
0.726244
-0.17256
0.107978
-0.196513
-0.0956872
0.0831503
-0.0849742
-0.152501
-0.0826831
-0.177881
-0.754942
-0.586792
-0.618262
-0.62786
-0.743852
-0.700022
-0.462682
-0.704501
-0.456202
-0.758924
-0.590387
-0.638925
-0.636175
-0.764803
-0.696187
-0.446352
-0.685882
-0.453403
-1.01633
-0.773545
-0.876399
-0.888041
-1.0177
-1.17913
-1.19685
-1.01341
-0.769887
-0.904501
-0.900241
-1.02871
-1.18169
-1.18894
-1.01604
-0.870323
-0.740913
-0.862873
-1.01991
-1.18589
-1.67292
-1.17411
-1.18893
-1.19178
-1.01273
-0.739197
-0.860845
-0.860088
-1.0034
-0.731091
-0.609296
-0.549014
-0.602681
-0.739376
-0.672351
-0.432306
-0.666306
-0.439042
-0.728269
-0.55522
-0.598862
-0.599811
-0.722745
-0.67541
-0.444742
-0.681956
-0.44124
-0.682865
-0.522434
-0.562716
-0.56501
-0.677756
-0.632306
-0.406541
-0.635361
-0.403916
-0.685048
-0.519972
-0.570983
-0.568043
-0.689472
-0.630087
-0.397241
-0.624507
-0.402369
-0.970901
-0.704174
-0.822517
-0.8243
-0.967337
-1.14181
-1.6424
-1.14696
-1.63694
-0.972165
-0.704532
-0.831084
-0.827376
-0.976974
-1.14052
-1.63272
-1.13696
-1.63516
-0.961629
-0.819991
-0.693191
-0.815982
-0.966133
-1.12934
-1.61736
-1.62263
-1.12462
-1.13093
-1.63074
-1.13573
-1.62541
-0.960079
-0.692659
-0.811836
-0.813234
-0.955793
-0.6712
-0.559824
-0.509323
-0.556915
-0.675608
-0.617211
-0.38761
-0.612031
-0.392259
-0.669119
-0.512359
-0.5521
-0.554128
-0.664269
-0.619341
-0.39584
-0.622462
-0.393657
-0.144361
-0.0206964
-0.122118
-0.0862053
-0.176544
-0.347451
-0.351225
-0.551123
-0.171559
-0.151247
-0.110909
-0.555671
-0.415638
-0.490646
-0.344928
-0.234424
-0.311863
-0.252886
-0.543917
0.93391
-0.426085
-0.265258
-0.401261
-0.598658
-0.270095
-0.348269
-0.315067
-0.317921
-0.281221
-0.207633
-0.172505
-0.240854
-0.383351
-0.257641
-0.496003
-0.368173
-0.458815
-0.418943
-0.557596
-0.534174
-0.375446
-0.459129
-0.215464
-0.158871
-0.432437
-0.167615
-0.122512
-0.550533
-0.229987
-0.129642
-0.231755
-0.219072
-0.0613234
-0.244064
-0.769055
-0.558998
-0.634001
-0.617928
-0.785575
-0.710615
-0.466546
-0.706163
-0.477944
-0.767185
-0.584154
-0.635818
-0.76606
-0.626102
-0.714667
-0.492008
-0.729384
-0.48323
-1.08678
-0.784127
-0.922762
-1.09487
-0.909725
-1.25485
-1.20851
-1.07415
-0.77076
-0.909832
-1.03884
-0.902519
-1.26616
-1.27304
-1.05621
-0.857753
-0.937236
-0.971016
-1.08479
-1.19243
-1.18399
-1.0534
-0.862535
-1.0034
-1.0535
-1.01582
-1.20128
-1.25997
-0.824888
-0.66114
-0.660526
-0.693076
-0.796021
-0.767747
-0.526192
-0.777279
-0.513493
-0.830783
-0.673977
-0.714076
-0.83876
-0.713094
-0.760371
-0.493269
-0.737091
-0.504459
-0.25292
-0.247098
-0.196864
-0.14462
-0.203443
-0.13815
-0.195314
-0.131037
-0.189974
-0.134651
-0.0632088
-0.0832235
-0.0827769
-0.0694803
-0.147387
0.745833
-0.219125
0.12349
-0.211975
-0.161818
0.127242
-0.0660597
-0.0912935
-0.0848501
-0.0774066
-0.0827258
-0.109356
-0.0965371
-0.100318
-0.159833
0.743706
-0.226024
0.121225
-0.221171
-0.168654
0.11604
-0.0780437
-0.0954151
-0.0967863
-0.0824054
-0.237245
-0.24599
-0.17727
-0.111188
-0.173938
-0.11175
-0.177803
-0.119748
-0.186377
-0.113624
-0.0715998
-0.118072
-0.0962314
-0.0960486
-0.141974
0.764512
-0.196604
0.144652
-0.199033
-0.142206
0.135791
-0.0660972
-0.0829162
-0.0901193
-0.0630906
-0.0458949
-0.0707241
-0.0527998
-0.0689499
-0.118226
0.762055
-0.194967
0.145193
-0.181874
-0.135583
0.149906
-0.0447011
-0.0775085
-0.0692489
-0.057801
-0.698838
-0.528992
-0.582061
-0.578539
-0.703955
-0.642884
-0.408269
-0.637358
-0.413749
-0.696578
-0.532394
-0.573725
-0.691511
-0.575666
-0.645233
-0.417755
-0.649018
-0.415353
-0.985252
-0.715376
-0.842349
-0.989415
-0.837748
-1.15434
-1.64548
-1.14882
-1.65242
-0.983541
-0.714644
-0.834337
-0.978775
-0.835106
-1.15602
-1.6606
-1.65612
-1.16027
-0.992723
-0.73031
-0.845172
-0.848666
-0.990044
-1.16331
-1.66685
-1.17059
-1.6599
-0.993476
-0.73026
-0.856825
-1.00011
-0.853141
-1.16251
-1.66169
-1.65949
-1.16079
-0.712934
-0.546147
-0.585937
-0.58952
-0.706643
-0.660681
-0.429983
-0.664186
-0.426484
-0.715594
-0.544445
-0.596733
-0.720648
-0.59359
-0.658024
-0.419125
-0.651478
-0.42465
-0.947193
-0.681335
-0.799465
-0.801434
-1.1173
-1.61469
-1.12288
-1.60831
-0.948923
-0.68182
-0.80879
-0.954111
-0.804654
-1.11551
-1.60565
-0.656462
-0.502537
-0.541719
-0.543753
-0.60775
-0.386315
-0.610201
-0.385113
-0.658359
-0.499273
-0.549343
-0.66232
-0.54653
-0.60589
-0.384226
-0.0940737
-0.108529
-0.204391
-0.158998
-0.0946216
-0.112036
-0.192025
0.0654624
0.00258345
-0.0978091
-0.0786869
0.0199809
0.0407308
-0.079308
-0.27768
-0.0500368
-0.147194
-0.218299
-0.115278
-0.106675
-0.322912
0.0452869
0.151975
0.0606713
-0.0077081
0.0499826
-0.0101169
0.105279
-0.0302336
-0.202885
-0.273967
-0.262333
-0.0925171
-0.115527
-0.235418
-0.0104396
-0.0721696
-0.236217
-0.197833
-0.0938191
0.0147904
-0.209089
0.0226889
-0.0656768
-0.173439
-0.222872
0.0222182
-0.0737016
-0.180041
0.0207037
-0.141538
-0.18161
-0.158918
-0.0830305
-0.0164743
-0.129809
-0.154524
-0.201143
-0.129548
-0.225069
-0.13641
-0.149523
-0.238551
-0.00775546
-0.117149
-0.0158112
-0.116913
-0.0329701
0.0148819
-0.133266
-0.99417
-0.777369
-0.782099
-1.10551
-1.10229
-0.767107
-1.00152
-0.836247
-0.795602
-0.545171
-0.577631
-0.77096
-0.849925
-0.575783
0.0628095
0.153518
0.0578635
0.134362
0.0749567
0.076068
0.105991
0.0371805
0.0111584
-0.00634859
0.0040154
0.025882
0.0212177
0.03344
-0.354271
-0.390114
-0.373057
-0.3475
-0.368284
-0.373044
-0.347121
-0.309814
-0.310811
-0.306344
-0.329033
-0.318969
-0.300631
-0.32944
-0.245954
-0.26376
-0.261754
-0.263076
-0.248674
-0.261533
-0.260497
-0.241377
-0.254908
-0.261277
-0.260243
-0.259449
-0.241006
-0.255826
-0.273779
-0.308729
-0.172533
-0.306595
-0.25912
-0.349507
-0.192011
-0.779089
-0.518111
-0.698954
-0.475513
-0.698218
-0.780668
-0.513638
-0.958464
-1.04862
-0.781423
-0.790408
-0.775548
-0.965356
-1.04257
-0.951548
-0.763085
-0.779256
-1.0191
-0.767474
-1.02366
-0.944826
-0.747712
-0.663165
-0.457131
-0.486262
-0.671401
-0.74299
-0.492941
-0.0812427
-0.042827
-0.190901
-0.0197869
-0.0908611
-0.0705211
-0.120641
-0.127809
-0.033557
-0.0223337
-0.0144972
-0.0869521
-0.0747854
-0.0299121
-0.0865893
-0.158147
-0.0758971
-0.175158
-0.0923844
-0.187728
-0.0683318
-0.708579
-0.458741
-0.628764
-0.421532
-0.629446
-0.709784
-0.457275
-0.913491
-0.988996
-0.736641
-0.747818
-0.733677
-0.915874
-0.986495
-0.901061
-0.720366
-0.736464
-0.969963
-0.722769
-0.973177
-0.897576
-0.690473
-0.604477
-0.408318
-0.438847
-0.6119
-0.686047
-0.444086
0.0144746
-0.100793
0.021929
0.00336677
-0.0609454
0.00366268
-0.0601151
-0.0711409
0.053926
0.0225032
-0.0432095
0.0888203
-0.0672299
0.053373
-0.0412223
0.0352531
-0.0613984
0.114163
-0.315205
-0.250182
-0.440053
-0.593819
-0.788626
-0.25758
-0.239705
-0.401439
-0.0895546
0.0579304
-0.0845279
-0.0410557
-0.12473
-0.138337
0.0623019
0.241456
0.0474342
0.175819
0.101392
0.00131805
0.213658
-0.0518827
-0.139468
-0.038344
-0.020155
0.0219732
-0.0902797
-0.074462
-0.238548
-0.633543
-0.474997
0.00592946
-0.854953
-0.17945
-0.0380915
-0.382992
-0.453154
-0.363922
-0.433178
-0.511381
-0.362694
-0.416191
-0.430945
-0.402598
-0.453589
-0.397284
-0.393159
-0.452368
-0.447034
-0.452344
-0.579777
-0.648948
-0.499237
-0.621799
-0.503916
-0.458379
-0.249142
-0.264138
-0.30605
-0.344767
-0.222743
-0.327632
-0.232064
-0.139479
-0.187751
-0.158917
-0.0990753
-0.114889
-0.152201
-0.0947392
-0.789115
-0.522269
-0.705892
-0.49582
-0.717253
-0.783547
-0.531766
-1.0018
-1.06153
-0.821303
-0.794605
-0.807177
-0.98222
-1.06949
-0.987489
-0.773617
-1.0934
-0.793296
-0.782955
-0.984957
-1.08924
-0.846915
-0.788055
-0.58604
-0.532631
-0.765487
-0.851981
-0.573181
-0.25989
-0.267923
-0.274468
-0.269196
-0.254781
-0.273464
-0.2746
-0.272035
-0.294228
-0.291546
-0.281934
-0.279838
-0.283024
-0.283781
-0.248865
-0.302326
-0.269275
-0.25362
-0.257757
-0.280458
-0.244205
-0.242306
-0.241603
-0.261785
-0.271674
-0.235295
-0.27218
-0.250284
-0.146125
-0.200682
-0.154231
-0.259497
-0.173681
-0.13773
-0.239541
-0.717498
-0.460913
-0.632098
-0.430971
-0.639744
-0.712958
-0.466676
-0.92373
-0.992891
-0.75598
-0.740271
-0.742985
-0.919875
-0.996089
-0.934645
-0.756783
-1.01332
-0.767258
-0.753002
-0.937992
-1.0101
-0.738864
-0.65918
-0.48364
-0.445158
-0.659761
-0.740007
-0.481523
-0.0238728
-0.12364
-0.058081
-0.158388
-0.0430524
-0.0447897
-0.143895
-0.891543
-0.717206
-0.966423
-0.728206
-0.714059
-0.894083
-0.963646
-0.681988
-0.601536
-0.437305
-0.401269
-0.602508
-0.682963
-0.436701
0.164106
-0.0243297
0.0707566
-0.0198224
0.0869212
0.140129
0.000920426
0.23843
0.244891
0.328477
0.220822
0.260872
0.347333
0.217715
0.152131
0.141733
0.0911493
0.136351
0.0585537
0.113697
0.233466
0.102951
0.0325856
0.0631723
0.0708893
0.034998
0.0452482
0.0781104
0.0289425
-0.192635
0.00834832
-0.193763
-0.432124
-0.466138
-0.350172
-0.428085
-0.423395
-0.473995
-0.350204
-0.422505
-0.290782
-0.423498
-0.419992
-0.465219
-0.37978
-0.341152
0.0166834
-0.212108
-0.170347
-0.00493961
0.168982
-0.0613978
0.162963
-0.060774
-0.265613
-0.319357
-0.179744
-0.265431
-0.267305
-0.317833
-0.177245
-0.264688
-0.176323
-0.315666
-0.264898
-0.317024
-0.263037
-0.176449
0.172717
-0.0557412
-0.0567846
0.168296
0.132824
-0.125784
0.134474
-0.126655
-0.366807
-0.40073
-0.23325
-0.357827
-0.341364
-0.428748
-0.259275
-0.392264
-0.312605
-0.490353
-0.377546
-0.4561
-0.42501
-0.278364
0.124471
-0.190777
-0.183673
0.0949771
0.128052
-0.0119049
0.00554656
-0.0304205
0.0137046
0.0362499
0.0422141
0.0718271
0.080846
0.171399
0.145457
0.0832523
0.127645
0.119647
0.0782039
0.259251
0.149105
0.0505884
0.0280765
0.0660385
0.120183
-0.0182618
0.0738926
0.203642
0.0265256
0.207743
0.138461
0.0637356
0.0668764
0.161233
-0.0686786
-0.220174
-0.0232218
-0.268146
-0.436421
-0.478685
-0.354632
-0.433268
-0.432351
-0.483395
-0.372005
-0.450401
-0.430613
-0.531042
-0.450603
-0.498287
-0.478274
-0.394609
-0.0432668
-0.416934
-0.164338
-0.432733
-0.582602
-0.330856
-0.607961
-0.0942055
0.0219344
-0.0738881
0.00547008
-0.629363
-0.00352564
-0.311905
-0.126902
-0.58281
-0.0821017
0.0271783
-0.654664
-0.589944
-0.594523
-0.466813
-0.472799
-0.473149
-0.468924
-0.55744
-0.460442
-0.628028
-0.43427
-0.551392
-0.420324
-0.45115
0.167235
-0.062429
0.163018
-0.0636163
-0.272246
-0.320949
-0.181675
-0.271524
-0.268955
-0.324029
-0.183392
-0.274588
-0.188881
-0.329881
-0.273669
-0.326418
-0.278047
-0.185623
0.161996
-0.0714769
0.155451
-0.0707334
0.149075
-0.105232
0.138561
-0.103164
-0.307878
-0.384526
-0.221068
-0.304822
-0.32429
-0.367052
-0.207824
-0.29579
-0.191301
-0.342188
-0.295262
-0.353637
-0.28523
-0.200138
0.168796
-0.0688879
0.165159
-0.0662082
-0.548582
-0.277504
-0.538379
-0.0510329
0.0381913
-0.0568092
0.0483947
-0.536317
-0.280251
-0.54571
-0.0609103
0.0463059
-0.0525961
0.0393247
-0.545975
-0.60243
-0.534076
-0.406897
-0.440844
-0.422839
-0.42579
-0.551331
-0.612822
-0.55477
-0.429912
-0.433113
-0.436632
-0.428287
-0.504427
-0.252608
-0.510899
-0.0397242
0.063978
-0.0346873
0.0593247
-0.518745
-0.253707
-0.511171
-0.0353407
0.0569835
-0.0398369
0.0631616
-0.587429
-0.524986
-0.528285
-0.405218
-0.409374
-0.412771
-0.402601
-0.527935
-0.584743
-0.520853
-0.396658
-0.41823
-0.411258
-0.404157
-0.493959
-0.233903
-0.487582
-0.0229868
0.0701624
-0.0269286
0.0749353
-0.477678
-0.230375
-0.483683
-0.023345
0.0786546
-0.0190539
0.0743464
-0.512819
-0.56951
-0.50799
-0.385987
-0.402485
-0.390427
-0.398409
-0.505139
-0.568415
-0.50872
-0.38751
-0.393963
-0.397312
-0.384496
-0.470322
-0.220155
-0.465193
-0.00834584
0.0833342
-0.0138165
0.093657
-0.497565
-0.553113
-0.492893
-0.3731
-0.388601
-0.38464
-0.377105
-0.951997
-0.780729
-0.913597
-0.828839
-0.897069
-0.717764
-0.459743
-0.687452
-0.51781
-0.733082
-0.671376
-0.452737
-0.862515
-1.01052
-0.90283
-0.878017
-1.05342
-0.949782
-0.745369
-1.09428
-1.10219
-1.08949
-1.17037
-1.0112
-1.25936
-0.765925
-1.18335
-0.781012
-1.05977
-1.14968
-0.736162
-1.18241
-0.975656
-0.761821
-0.779092
-1.0642
-1.13797
-0.785403
-1.02834
-1.08128
-0.928097
-0.943858
-1.14628
-1.01468
-0.77766
-1.11178
-0.734431
-1.01316
-1.11184
-0.768666
-0.943272
-0.8674
-0.894825
-0.875584
-0.949193
-1.0566
-0.911342
-1.11048
-1.04318
-1.04626
-1.07437
-1.08464
-0.887154
-0.37739
-0.670334
-0.487722
-0.76375
-0.628506
-0.473348
-1.00437
-1.08389
-0.909717
-0.917326
-1.02425
-1.07397
-0.731133
-0.970085
-0.939004
-0.533336
-0.69413
-0.838122
-1.12176
-0.546803
-0.820248
-0.706006
-0.723432
-0.673601
-0.849109
-1.04039
-0.998562
-0.879833
-0.946998
-0.952043
-1.03298
-1.03232
-0.789147
-0.545346
-0.80384
-0.617271
-0.78442
-0.7647
-0.566555
-1.00833
-0.951836
-0.893833
-0.992862
-0.959116
-0.98712
-1.01727
-0.758393
-0.675388
-0.644663
-0.656381
-0.76148
-0.0289711
0.00806007
0.0204204
0.00461732
0.0116241
-0.0229856
-0.0131077
0.081635
0.0242812
0.0696597
0.035298
0.0411453
0.0325748
0.00266464
-0.0646443
-0.149969
-0.151728
-0.0633316
-0.0543657
-0.157592
-0.133118
-0.05845
-0.298787
-0.349599
-0.302177
-0.207748
-0.211569
-0.356444
-0.295127
0.155517
-0.0929899
-0.0966072
0.153205
-0.306849
-0.250181
-0.391095
-0.312255
-0.338901
-0.223237
-0.366427
0.104701
-0.160881
0.0797037
-0.169736
0.022174
-0.0602497
-0.0646574
0.0266124
-0.0260587
-0.121436
-0.03025
-0.127124
0.0548833
-0.0267753
-0.0275926
0.0573514
0.0592469
-0.0211661
-0.0234588
0.0627593
-0.263628
-0.318258
-0.265276
-0.176685
-0.175632
-0.317183
-0.264269
0.175592
-0.0528352
-0.0546461
0.170888
-0.262962
-0.175649
-0.315702
-0.264365
-0.262774
-0.175283
-0.316185
0.174482
-0.0558441
0.168309
-0.054363
0.0630876
-0.0174535
-0.0206722
0.0671657
0.0617209
-0.0212199
0.0630997
-0.0209461
0.00102228
-0.0897221
-0.0922987
0.00810878
-0.0243054
-0.138275
-0.138716
-0.0256967
-0.386892
-0.260543
-0.200537
-0.149071
-0.318181
-0.339812
-0.226639
-0.469194
-0.369576
-0.517495
-0.503661
-0.476078
-0.420235
-0.512306
0.0221838
-0.214067
0.0773946
-0.208872
-0.311967
-0.291783
-0.211966
-0.204171
-0.206506
-0.327241
-0.287461
-0.335058
-0.382444
-0.379915
-0.301492
-0.322395
-0.39758
-0.322655
-0.355505
-0.362146
-0.440487
-0.410741
-0.377314
-0.351469
-0.41994
-0.292952
-0.177446
-0.175669
-0.238108
-0.188143
-0.256761
-0.278808
-0.0374561
-0.146167
-0.0235558
-0.14081
-0.655934
-0.573424
-0.553386
-0.562243
-0.65282
-0.936218
-0.869965
-0.85394
-0.762776
-0.862058
-0.85141
-0.942163
-0.773778
-0.471761
-0.682898
-0.502072
-0.693789
-0.766091
-0.509899
-0.681843
-0.593013
-0.586607
-0.579792
-0.679603
-0.930084
-0.841875
-0.756318
-0.85307
-0.857115
-0.84693
-0.924772
-0.851932
-0.763223
-0.765806
-0.773583
-0.847964
-0.95456
-0.785068
-1.02905
-0.771112
-0.771136
-0.955374
-1.03306
-0.865552
-0.776239
-0.794996
-0.795323
-0.876404
-0.844262
-0.760466
-0.745946
-0.755722
-0.847365
-0.955566
-0.782672
-1.0283
-0.773168
-0.77104
-0.957461
-1.0245
-0.832064
-0.738423
-0.750511
-0.750771
-0.829264
-0.642435
-0.552462
-0.554704
-0.544822
-0.644607
-0.904526
-0.832788
-0.739926
-0.81876
-0.839062
-0.824361
-0.9001
-0.753628
-0.460838
-0.678909
-0.49905
-0.676194
-0.758276
-0.496311
-0.910884
-0.836103
-0.745323
-0.849238
-0.844648
-0.830572
-0.917236
-0.633293
-0.554173
-0.537109
-0.542347
-0.634083
-0.150637
-0.060563
-0.123316
-0.0365128
-0.133163
-0.0488361
-0.139627
-0.207353
-0.276471
-0.210934
-0.262268
-0.203154
-0.217405
-0.268308
-0.162662
-0.0721959
-0.15264
-0.0751426
-0.143797
-0.0622429
-0.174298
-0.197309
-0.186061
-0.254927
-0.252538
-0.194032
-0.187886
-0.260426
-0.11535
-0.114243
-0.0240035
-0.0269925
-0.010118
-0.127811
-0.102819
-0.156868
-0.219888
-0.230615
-0.151138
-0.159977
-0.229376
-0.145203
-0.167613
-0.178276
-0.245733
-0.237279
-0.178037