/*--------------------------------*- C++ -*----------------------------------*\
| =========                 |                                                 |
| \\      /  F ield         | OpenFOAM: The Open Source CFD Toolbox           |
|  \\    /   O peration     | Version:  2012                                  |
|   \\  /    A nd           | Website:  www.openfoam.com                      |
|    \\/     M anipulation  |                                                 |
\*---------------------------------------------------------------------------*/
FoamFile
{
    version     2.0;
    format      ascii;
    class       volVectorField;
    location    "0.105/fluid";
    object      U;
}
// * * * * * * * * * * * * * * * * * * * * * * * * * * * * * * * * * * * * * //

dimensions      [0 1 -1 0 0 0 0];


internalField   nonuniform List<vector> 
16421
(
(1.1483 -0.00656515 -0.0182506)
(1.17158 -0.00215471 0.00142622)
(1.18559 -0.000747951 -0.000194929)
(1.19157 -0.000313436 -0.000186205)
(1.19466 -0.000127377 -0.000111981)
(1.19635 -6.23029e-05 -6.86985e-05)
(1.19734 -4.05819e-05 -4.272e-05)
(1.19798 -3.19991e-05 -2.6734e-05)
(1.1984 -2.80249e-05 -1.72428e-05)
(1.19869 -2.6343e-05 -1.15786e-05)
(1.1989 -2.98439e-05 -7.11051e-06)
(1.19908 -3.67466e-05 -5.01815e-06)
(1.19924 -4.42772e-05 -3.73864e-06)
(1.22333 -0.0506464 -0.131209)
(1.17936 -0.0364527 0.0229135)
(1.1828 -0.0130883 0.00169378)
(1.18891 -0.00575729 2.79787e-05)
(1.193 -0.00290781 -0.000155316)
(1.19553 -0.00159639 -0.000104915)
(1.19709 -0.000920172 -6.78403e-05)
(1.19807 -0.00054683 -4.41524e-05)
(1.19867 -0.000330597 -2.86927e-05)
(1.19906 -0.000202711 -1.90933e-05)
(1.19931 -0.000123902 -1.3654e-05)
(1.19946 -6.99532e-05 -1.07282e-05)
(1.19957 -3.63539e-05 -9.05666e-06)
(1.19964 -1.3445e-05 -8.18474e-06)
(1.21859 -0.0154637 -0.116984)
(1.19988 -0.0177574 0.0293098)
(1.1925 -0.012047 0.00251784)
(1.19315 -0.00706059 0.000200019)
(1.19494 -0.00410888 -0.000147339)
(1.1965 -0.00242883 -0.000112796)
(1.19759 -0.00146106 -7.42611e-05)
(1.19831 -0.00089145 -4.89744e-05)
(1.1988 -0.000550075 -3.40298e-05)
(1.19911 -0.000342212 -2.33866e-05)
(1.19932 -0.000210941 -1.7104e-05)
(1.19946 -0.000129142 -1.5991e-05)
(1.19957 -7.53394e-05 -1.48147e-05)
(1.19964 -3.95603e-05 -1.43027e-05)
(1.17408 0.0174172 -0.0567471)
(1.19497 -0.00834686 0.0156129)
(1.19521 -0.00927991 0.00141596)
(1.19585 -0.00649557 -1.15051e-05)
(1.19674 -0.00418409 -0.000184052)
(1.19758 -0.00263226 -0.000126509)
(1.19822 -0.00164872 -7.99242e-05)
(1.19866 -0.00103274 -5.32401e-05)
(1.19898 -0.000649464 -3.85095e-05)
(1.19921 -0.000407154 -2.83729e-05)
(1.19936 -0.000251736 -2.28707e-05)
(1.19948 -0.000154265 -2.17679e-05)
(1.19958 -9.43367e-05 -2.07316e-05)
(1.19966 -5.09833e-05 -2.08042e-05)
(0.99561 -0.225723 -0.0352895)
(1.16216 0.00468571 -0.0162697)
(1.17756 -0.00220382 -0.00668154)
(1.18714 -0.00070961 -0.00323651)
(1.19235 -0.000294362 -0.00182533)
(1.19517 -0.000120988 -0.00109763)
(1.19673 -6.13378e-05 -0.000676045)
(1.19766 -4.06942e-05 -0.000422689)
(1.19825 -3.16443e-05 -0.000265803)
(1.19865 -2.79695e-05 -0.000168526)
(1.19892 -2.74276e-05 -0.000105716)
(1.19913 -3.0116e-05 -6.78389e-05)
(1.1993 -3.67947e-05 -4.21175e-05)
(1.19945 -4.44148e-05 -2.40178e-05)
(1.32923 -0.0487935 -0.0385955)
(1.22321 -0.0848592 -0.046479)
(1.19065 -0.0343068 -0.0159152)
(1.18734 -0.012581 -0.00589175)
(1.19046 -0.00552926 -0.00297233)
(1.19379 -0.00278455 -0.00169901)
(1.19612 -0.00154233 -0.00103878)
(1.19757 -0.000894917 -0.00064816)
(1.19846 -0.000534265 -0.000408373)
(1.19902 -0.000325066 -0.00025836)
(1.19937 -0.000199927 -0.00016393)
(1.1996 -0.00012181 -0.00010402)
(1.19974 -7.12728e-05 -6.56143e-05)
(1.19982 -3.82663e-05 -4.07426e-05)
(1.19987 -1.5402e-05 -2.28603e-05)
(1.24824 0.00174026 -0.0598916)
(1.23793 -0.0159429 -0.0549918)
(1.21104 -0.0168659 -0.014089)
(1.1968 -0.0113419 -0.0046352)
(1.19491 -0.00676235 -0.00243123)
(1.19594 -0.00396638 -0.00143934)
(1.19726 -0.00235626 -0.000906701)
(1.1982 -0.00142226 -0.000579189)
(1.19883 -0.00087073 -0.000371313)
(1.19925 -0.000540239 -0.000238281)
(1.19951 -0.000337282 -0.000152504)
(1.19968 -0.000209446 -9.7659e-05)
(1.19979 -0.000129266 -6.20587e-05)
(1.19986 -7.66854e-05 -3.85667e-05)
(1.19991 -4.12354e-05 -2.13993e-05)
(1.33811 0.107621 -0.0233997)
(1.19149 0.0246932 -0.0361345)
(1.20066 -0.00291437 -0.00882745)
(1.1994 -0.0079372 -0.00321034)
(1.19792 -0.00612159 -0.0018023)
(1.19802 -0.00403243 -0.00112922)
(1.19853 -0.00254958 -0.00074351)
(1.19898 -0.00160195 -0.000490819)
(1.19931 -0.00100709 -0.000322134)
(1.19954 -0.000635537 -0.000211334)
(1.1997 -0.000400573 -0.000137192)
(1.19981 -0.000251318 -9.00091e-05)
(1.19987 -0.000155429 -5.7585e-05)
(1.19992 -9.3773e-05 -3.47627e-05)
(1.19995 -5.1893e-05 -1.9011e-05)
(1.0069 -0.218931 -0.0185391)
(1.16574 0.00564378 -0.0143954)
(1.18064 -0.00188601 -0.00854536)
(1.18931 -0.000613303 -0.00495735)
(1.19365 -0.000254328 -0.00300262)
(1.19591 -0.000108635 -0.00183848)
(1.19717 -5.82119e-05 -0.00113983)
(1.19793 -3.92615e-05 -0.000714407)
(1.19842 -3.09821e-05 -0.000450858)
(1.19875 -2.85808e-05 -0.000284975)
(1.199 -2.90232e-05 -0.000180621)
(1.19917 -3.00654e-05 -0.000113729)
(1.19933 -3.66719e-05 -7.05619e-05)
(1.19947 -4.45926e-05 -4.06971e-05)
(1.33317 -0.0183226 -0.00958682)
(1.21025 -0.0606868 -0.0202516)
(1.18536 -0.0278455 -0.0143375)
(1.18858 -0.0106524 -0.00806239)
(1.19209 -0.00483151 -0.0045905)
(1.19497 -0.00250532 -0.00279875)
(1.19685 -0.00140773 -0.00174284)
(1.19802 -0.000826168 -0.00109306)
(1.19874 -0.000498443 -0.000690189)
(1.1992 -0.000306161 -0.00043804)
(1.19948 -0.000189251 -0.000278245)
(1.19967 -0.000115439 -0.000176669)
(1.19978 -6.83595e-05 -0.000112266)
(1.19986 -3.73223e-05 -6.97894e-05)
(1.1999 -1.57773e-05 -4.02406e-05)
(1.2572 0.00110893 -0.0138326)
(1.21866 -0.0178483 -0.0204944)
(1.20096 -0.0160808 -0.0129145)
(1.19638 -0.010207 -0.00683909)
(1.1959 -0.0060388 -0.00385341)
(1.19686 -0.00357786 -0.00238352)
(1.19787 -0.00215278 -0.00152782)
(1.19859 -0.00131523 -0.000981578)
(1.19908 -0.000812891 -0.000631488)
(1.19941 -0.000509462 -0.000406884)
(1.19962 -0.00031969 -0.000260535)
(1.19975 -0.000201197 -0.000167017)
(1.19984 -0.000125181 -0.000108108)
(1.1999 -7.46035e-05 -6.77077e-05)
(1.19993 -4.0752e-05 -3.97162e-05)
(1.32398 0.0861809 0.00117506)
(1.1905 0.00230448 -0.0139583)
(1.19589 -0.00542897 -0.00897907)
(1.19925 -0.00736309 -0.00497872)
(1.19863 -0.00551928 -0.00293555)
(1.1987 -0.00364281 -0.00189747)
(1.199 -0.00233134 -0.00126185)
(1.19929 -0.00148117 -0.000837818)
(1.19952 -0.000940596 -0.000554264)
(1.19968 -0.000597972 -0.000363651)
(1.19979 -0.000381893 -0.00023642)
(1.19987 -0.000242404 -0.000156345)
(1.19992 -0.000150864 -0.000101892)
(1.19995 -9.0324e-05 -6.35876e-05)
(1.19997 -5.09933e-05 -3.77899e-05)
(1.23591 -0.202471 0.223023)
(0.761522 -0.366491 -0.0402652)
(1.46854 0.0541384 -0.0385635)
(1.22167 -0.0991377 0.0316989)
(1.11516 -0.00229726 -0.0543577)
(1.22016 -0.175733 -0.0902116)
(1.15589 -0.0640596 0.00352962)
(1.00281 -0.223274 -0.0257937)
(1.14792 0.00751101 -0.00897344)
(1.17554 -0.0849616 0.0284784)
(1.15109 -0.0335077 -0.00348662)
(1.3307 -0.0161571 -0.122621)
(1.25212 -0.0181186 -0.120334)
(1.3987 0.0298803 -0.000432965)
(1.22201 -0.0451547 0.064685)
(1.32988 0.00847129 0.0381562)
(1.19545 -0.0169129 0.086384)
(1.24891 -0.0101786 -0.120855)
(1.22253 0.00804927 -0.152172)
(1.32312 0.00220355 0.0406073)
(1.1925 -0.0198271 0.0888283)
(1.32346 -0.0428649 0.024012)
(1.17783 -0.0134601 0.0541023)
(1.17515 0.0370861 -0.0454228)
(1.34906 0.029498 -0.0438869)
(1.1787 -0.0546431 0.0126017)
(0.740164 -0.373124 -0.0389959)
(1.39895 -0.0570551 -0.0252744)
(1.22015 -0.188098 -0.0627286)
(0.760138 -0.360353 -0.0158915)
(1.40909 0.000800466 -0.00233391)
(1.22656 -0.137582 -0.00319064)
(1.1712 0.0322878 -0.0444059)
(1.32674 0.0692577 -0.0179541)
(1.18763 -0.0125627 0.00021286)
(0.755977 -0.361186 -0.0196994)
(1.39701 -0.0182122 -0.00799271)
(1.2243 -0.147058 -0.0193657)
(1.18186 0.00381199 -0.0141322)
(1.8323 -0.35336 -0.124552)
(2.02271 0.113511 -0.0448659)
(-0.497411 -0.0368661 -0.100413)
(1.08883 -0.0409427 -0.0210361)
(0.912408 0.0517588 -0.173221)
(0.510774 -0.368903 -0.25668)
(0.978221 -0.171916 0.0243843)
(1.14585 -0.11852 -0.0722559)
(0.931215 -0.172424 -0.101028)
(1.13268 -0.0400446 -0.0175609)
(1.4484 -0.00134403 0.189073)
(0.60556 0.373846 -0.271675)
(1.4641 -0.0215278 -0.0701089)
(1.45105 -0.038797 0.17056)
(1.39596 0.0625624 0.0203702)
(0.733259 -0.0749279 -0.317477)
(1.378 -0.000392434 0.153394)
(0.715004 0.0565323 -0.30787)
(1.34846 -0.0261634 0.00432637)
(1.39127 -0.000979262 0.164763)
(1.3442 0.0432363 -0.00377045)
(0.710392 -0.0394072 -0.305383)
(0.71238 0.211038 -0.296524)
(1.35865 0.000423207 -0.0524925)
(1.2089 -0.0281943 -0.193176)
(1.19386 -0.00111391 0.0100831)
(1.16427 -0.0428725 0.0160525)
(1.17245 -0.0225655 0.0024462)
(1.73274 -0.394075 -0.0370084)
(-0.456925 -0.0447374 -0.0691977)
(1.98076 0.028393 -0.00194969)
(1.7241 -0.411976 -0.029369)
(1.96661 0.0149396 -0.0307914)
(-0.450806 -0.0434686 -0.0178468)
(1.23623 -0.0135393 -0.0714473)
(1.25957 0.0739334 -0.0528077)
(1.21689 0.0731341 -0.0650738)
(1.26804 0.000909003 0.00957203)
(1.22793 -0.0171493 0.0103239)
(1.27146 0.0149959 0.00661014)
(1.21097 0.0318879 0.00533515)
(1.22486 0.10323 -0.0596822)
(1.33449 0.054802 -0.0250241)
(1.24596 0.0341132 -0.0302063)
(1.19975 0.00307753 -0.013053)
(1.18943 -0.0113631 0.00118671)
(1.18843 -0.00951064 -0.000984579)
(1.70209 -0.397728 -0.0226924)
(-0.440975 -0.0460854 -0.0382081)
(1.95186 0.00347334 0.0168899)
(1.70479 -0.404367 0.00352055)
(1.94283 0.00377493 -0.0197841)
(-0.436678 -0.046968 -0.00779926)
(1.22817 -0.015808 -0.0209134)
(1.2614 0.0351491 -0.0103044)
(1.21201 0.0438672 -0.0171403)
(1.23045 0.0708455 -0.0163668)
(1.32055 0.0773517 -0.0165328)
(1.23283 0.0598791 -0.0111329)
(1.19362 -0.00263837 -0.0102676)
(1.67188 -0.402049 -0.179392)
(0.0693168 -0.245578 -0.341058)
(0.796498 -0.237195 -0.00707669)
(1.20218 -0.190737 -0.0948435)
(-0.241059 -0.284217 -0.192918)
(1.49866 -0.16134 -0.191242)
(0.998593 0.384298 -0.439488)
(1.50534 0.039905 -0.0699905)
(1.68359 0.0744913 -0.148702)
(1.47462 -0.0250397 -0.00590802)
(1.39137 -0.178195 -0.184308)
(0.498898 -0.20216 -0.318829)
(1.43139 0.256281 0.279822)
(1.192 -0.0357862 0.172047)
(1.13159 -0.149998 -0.0684635)
(1.35471 0.00333024 0.140453)
(1.73856 -0.393961 -0.0958728)
(-0.462243 -0.0403061 -0.0436187)
(1.97953 0.0418067 -0.041233)
(1.98399 0.123636 0.0217328)
(1.75311 -0.384384 -0.064058)
(-0.455486 -0.038048 -0.0920401)
(1.41627 -0.00573266 0.172955)
(0.717432 -0.0599853 -0.308676)
(1.35207 0.0502028 -0.00309781)
(1.37933 -0.00516766 0.0152454)
(1.39839 -0.000172719 0.159026)
(0.728849 0.0443178 -0.314101)
(1.37199 0.00714086 0.173118)
(0.706155 0.0949527 -0.301823)
(1.37354 0.000580363 0.0211314)
(1.3457 -0.0222953 0.0166467)
(1.35585 -0.0414852 0.122859)
(0.709141 0.077896 -0.307996)
(1.08153 0.159949 0.192205)
(1.11577 -0.0521525 0.0205412)
(1.22297 -0.0685282 0.0230259)
(1.35183 0.135426 -0.0952763)
(1.25807 0.00561496 -0.0789625)
(1.21448 0.178037 -0.105638)
(1.16633 0.0955454 -0.068504)
(1.22343 -0.0377358 -0.00227487)
(1.13577 0.134321 -0.0945415)
(1.71191 -0.409974 -0.00685622)
(-0.443427 -0.0455285 -0.00821959)
(1.95486 0.00694494 -0.0241619)
(1.96329 0.00738498 0.0101271)
(1.71562 -0.397793 -0.026692)
(-0.44832 -0.0450389 -0.0472929)
(1.16566 0.0622692 -0.0414879)
(1.15105 0.0451816 -0.0227529)
(1.18873 -0.0261268 0.00573818)
(1.2085 -0.00229062 -0.00192914)
(1.17959 0.0172909 -0.00418419)
(1.32991 0.0925598 -0.00523852)
(1.23789 0.050902 -0.0141341)
(1.22945 0.0797348 -0.0288241)
(1.17826 0.0118564 -0.0230471)
(1.19834 0.0134952 -0.00319915)
(1.17477 0.0254085 -0.00447375)
(1.18009 0.0402461 -0.01917)
(1.16103 0.0371461 -0.0150393)
(1.69595 -0.399464 0.00748437)
(1.94037 0.00251171 0.0212737)
(-0.433523 -0.0471892 -0.0381033)
(1.18605 0.0314995 -0.0119549)
(1.16576 0.0339176 -0.0112453)
(1.18573 -0.00628508 -0.00490801)
(1.19257 0.0208371 -0.00644702)
(1.1714 0.0294782 -0.00703433)
(1.31742 0.0842891 0.00311832)
(1.22936 0.0676185 -0.0130828)
(1.18365 0.000382751 -0.0130532)
(1.18808 0.0276438 -0.0127361)
(1.16859 0.032858 -0.0121134)
(1.12093 -0.122906 0.0433492)
(0.421982 -0.0684781 -0.154147)
(0.0852379 0.146729 0.033927)
(1.02261 -0.0890098 0.194252)
(1.0114 -0.247744 -0.0539444)
(0.281089 -0.205502 -0.0979798)
(1.17745 -0.12559 -0.0694874)
(1.40857 0.18317 -0.0145413)
(1.62193 0.0940446 -0.262651)
(1.30817 0.110228 -0.118371)
(1.53145 0.255716 0.0256005)
(1.18617 -0.0450167 0.016351)
(1.22224 -0.0254081 -0.11514)
(1.21078 -0.0249525 0.0271666)
(1.17872 -0.0431528 0.0441805)
(1.15639 -0.0314428 -0.00205924)
(1.17205 -0.02043 0.0604594)
(1.16813 -0.021328 0.00317765)
(1.23561 0.0131007 -0.0462988)
(1.51743 -0.00690189 -0.0777259)
(1.24048 0.00780478 -0.046155)
(1.51092 0.0398436 -0.0791721)
(1.20852 -0.0181042 0.0263792)
(1.20232 -0.00298236 -0.133086)
(1.20425 -0.00736867 0.018713)
(1.16936 -0.02273 0.0627339)
(1.16722 -0.0215136 0.00457097)
(1.16616 -0.0150546 0.0390243)
(1.17567 -0.0213645 0.00104822)
(1.33587 0.145294 -0.0917722)
(1.54923 -0.00878553 -0.0798196)
(1.28948 0.0662703 -0.103216)
(1.64642 0.0350344 -0.0519593)
(1.16254 0.00278207 -0.0204956)
(1.20713 -0.1484 -0.0535557)
(1.18773 -0.0491658 -0.0241992)
(1.00795 -0.218831 -0.0131196)
(1.16403 0.00532514 -0.010446)
(1.20144 -0.106522 -0.00338511)
(1.17504 -0.0341334 -0.00600039)
(1.24352 -0.102998 -0.0582491)
(1.24664 0.000603297 -0.0633223)
(1.24428 -0.0202827 -0.0772684)
(1.34396 -0.00599308 0.00151991)
(1.24202 -0.0620673 0.0017452)
(1.2693 0.00398879 0.011032)
(1.23218 -0.0172089 0.0111916)
(1.16727 0.0043613 -0.0157987)
(1.20305 -0.115067 -0.0198768)
(1.18186 -0.0386182 -0.0163593)
(1.24025 -0.0727432 -0.0199194)
(1.25624 0.003615 -0.0144436)
(1.23461 -0.0172381 -0.0216897)
(1.14607 -0.463782 -0.0590158)
(0.96242 -0.140866 0.192246)
(1.05776 -0.333989 -0.10841)
(0.424944 -0.197442 0.0779757)
(1.39267 0.0214377 -0.225111)
(1.64024 0.112402 -0.26428)
(1.35062 0.0244343 -0.189782)
(1.57223 0.160554 -0.178829)
(1.35892 -0.557901 -0.0722155)
(0.707364 -0.365336 -0.0656101)
(-0.199915 -0.262046 -0.068652)
(1.24946 -0.35462 -0.0340862)
(1.15507 -0.391063 -0.0782212)
(1.45466 -0.502998 -0.0253146)
(-0.218407 -0.277118 -0.0762262)
(1.46088 -0.262802 -0.0301564)
(1.39419 -0.120253 -0.0612258)
(1.67692 0.0512305 -0.0407685)
(1.415 -0.0314748 -0.0238327)
(1.70188 0.00558508 -0.0214276)
(1.30478 -0.22934 -0.118628)
(1.51853 -0.109509 -0.0321262)
(1.11667 -0.0758984 -0.0200348)
(1.00774 -0.251159 -0.130467)
(1.16646 -0.122407 -0.0778418)
(1.11803 -0.0435434 0.101855)
(1.148 -0.0980953 -0.0270396)
(1.12006 -0.0405569 0.0339059)
(1.04625 -0.154445 -0.0974509)
(1.27829 -0.0118413 0.281937)
(1.18503 0.207367 0.213105)
(1.27086 -0.0579092 -0.114373)
(1.15174 -0.0790225 0.214446)
(1.28864 -0.024379 0.293031)
(1.14104 -0.0289539 0.215528)
(1.12706 -0.0194895 0.155465)
(1.25137 0.0134393 -0.0456027)
(1.51411 0.0473369 -0.0794479)
(1.24101 0.0157911 -0.047149)
(1.52756 0.00625378 -0.0744004)
(1.26143 -0.0195361 0.271258)
(1.27026 -0.0221041 -0.123126)
(1.10102 -0.00934691 0.154488)
(1.11855 -0.0165699 0.189635)
(1.12591 -0.0322236 0.200636)
(1.25063 -0.00996027 0.254704)
(1.11771 -0.00369419 0.153344)
(1.2336 -0.0104567 0.246586)
(1.09722 0.0048261 0.154961)
(1.23832 -0.00116428 -0.122027)
(1.11325 -0.0172808 0.194152)
(1.24333 -0.0114338 0.261958)
(1.10608 -0.0129863 0.183425)
(1.08733 0.00630935 0.153067)
(1.24085 0.0197318 -0.0651902)
(1.55102 0.0419688 -0.0675789)
(1.25767 0.0617188 -0.0680359)
(1.52178 -0.0212042 -0.0830882)
(1.23071 -0.00678331 0.27464)
(1.23619 0.000789276 -0.128791)
(1.05804 0.117873 0.137744)
(1.08759 -0.0349445 0.166607)
(1.10855 -0.0126031 0.206216)
(1.20975 -0.0546133 0.214622)
(1.09032 0.0230371 0.153177)
(1.41672 -0.500736 -0.0143806)
(-0.196223 -0.280094 -0.0639608)
(1.204 -0.370449 -0.0423512)
(0.760316 -0.362883 -0.0225398)
(1.38406 -0.530243 -0.0401825)
(1.22758 -0.348761 -0.0151391)
(-0.186217 -0.265342 -0.0368566)
(1.49356 -0.144359 -0.00643464)
(1.66956 0.00486952 -0.0224002)
(1.3432 -0.136822 -0.0464336)
(1.42845 0.0154594 -0.00939091)
(1.45196 -0.194758 -0.0398965)
(1.65964 0.0208523 -0.0177663)
(1.37827 -0.0719013 -0.00667663)
(1.38865 -0.517288 -0.0224647)
(0.750463 -0.366757 -0.0258876)
(-0.177168 -0.265848 -0.0239004)
(1.21937 -0.347124 -0.011038)
(1.21139 -0.359379 -0.0249817)
(1.39961 -0.501041 -0.0110143)
(-0.18433 -0.272826 -0.0406224)
(1.4567 -0.176608 -0.0212633)
(1.40026 -0.0292771 -0.0137485)
(1.6472 0.011304 -0.00830578)
(1.36171 -0.08352 -0.00329951)
(1.65301 0.00245258 -0.0109275)
(1.35257 -0.108478 -0.0227442)
(1.47325 -0.155365 -0.00498389)
(1.38847 -0.499244 -0.0107213)
(-0.175524 -0.26815 -0.0299645)
(1.21193 -0.351316 -0.0174266)
(0.760113 -0.357337 -0.0156934)
(1.38707 -0.507335 -0.0149321)
(1.21336 -0.344725 -0.0115389)
(-0.169448 -0.264664 -0.0215984)
(1.45977 -0.158746 -0.00551821)
(1.64267 0.00402035 -0.00420613)
(1.35143 -0.0981435 -0.0132496)
(1.3977 -0.0056298 -0.000982807)
(1.45626 -0.16773 -0.01225)
(1.63621 0.00769392 -0.00369625)
(1.35183 -0.0876263 -0.00371842)
(1.38158 -0.49951 -0.0136491)
(0.759583 -0.355998 -0.0195205)
(1.20949 -0.344781 -0.0159341)
(-0.167295 -0.264333 -0.0298137)
(1.45082 -0.16248 -0.0091837)
(1.39085 -0.0132553 -0.00467224)
(1.6321 0.00525499 -0.000238252)
(1.34624 -0.0930283 -0.00939608)
(-0.28865 0.285291 -0.185382)
(-0.535147 -0.0236925 -0.17983)
(0.19477 0.0510265 0.000339242)
(-0.453451 0.405316 -0.29465)
(2.24878 0.401499 -0.188143)
(2.21463 0.116075 -0.168934)
(-0.107564 0.0564305 -0.236222)
(1.93153 -0.171363 -0.102488)
(2.01754 0.169318 -0.0899043)
(1.97876 -0.0894526 -0.119002)
(-0.0735697 0.016465 0.000372208)
(-0.343407 0.570714 -0.191671)
(1.60107 -0.461989 -0.130793)
(0.911661 -0.274828 0.125569)
(2.09083 -0.0255916 -0.188706)
(-0.234488 0.234741 -0.159795)
(0.702592 -0.396838 -0.0691126)
(-0.399767 0.0054351 0.00572967)
(0.492801 -0.0585222 -0.0061732)
(-0.198301 0.205686 -0.0570113)
(1.04571 -0.114341 -0.0542977)
(0.0356737 0.0638998 -0.00361287)
(1.12478 -0.21068 -0.13004)
(0.683183 -0.354008 -0.225616)
(1.05271 -0.238603 -0.0825474)
(1.10753 -0.180203 -0.093588)
(0.546007 -0.32083 -0.233529)
(1.22773 0.0839194 -0.160443)
(1.06714 0.0209309 -0.332844)
(0.696501 -0.096202 -0.305442)
(1.08359 0.0760882 -0.152923)
(1.16646 -0.114776 -0.378501)
(1.40706 0.156147 0.0387764)
(1.53415 0.0863597 -0.0289922)
(1.4928 0.183414 0.0748467)
(1.29522 0.0399931 -0.0183556)
(1.25764 0.090683 -0.151736)
(1.12762 -0.068202 -0.387173)
(0.72078 0.0113123 -0.312802)
(1.16898 0.0809427 -0.393336)
(1.1823 0.0206425 -0.158946)
(1.10215 -0.0168765 -0.161889)
(1.06371 0.0898557 -0.391632)
(0.714158 -0.055233 -0.307088)
(1.10512 0.0347307 -0.162893)
(1.05933 -0.0797052 -0.390479)
(1.23286 0.00266984 -0.0493032)
(1.51315 0.0411572 -0.0803991)
(1.51277 -0.0176762 -0.0809387)
(1.23254 0.0195209 -0.0493274)
(1.099 0.033677 -0.164722)
(1.05271 -0.0700278 -0.396074)
(0.710552 0.0620416 -0.306978)
(1.05725 0.0887073 -0.395154)
(1.09722 -0.0100636 -0.164162)
(1.35751 0.175261 -0.0889998)
(1.2627 0.140567 -0.121883)
(1.30329 0.118392 0.00185201)
(1.38983 0.138497 -0.110754)
(1.18249 0.172262 -0.181478)
(1.09247 0.140831 -0.239203)
(0.733567 0.0812573 -0.307038)
(1.18582 0.0868247 -0.170827)
(1.06668 0.189733 -0.23397)
(1.47664 0.180875 -0.13911)
(1.77764 0.0385988 -0.126518)
(1.43695 0.19897 -0.120795)
(1.61221 0.0930053 -0.0990854)
(1.67046 0.173595 -0.140961)
(1.44707 0.139013 -0.109029)
(1.36348 0.220041 -0.0939484)
(0.775102 0.251998 -0.370524)
(1.21045 0.309578 -0.208901)
(-0.183635 0.196669 -0.0693086)
(0.693979 -0.41466 -0.0423539)
(-0.458672 -0.045928 -0.0121999)
(-0.174356 0.184396 0.0275027)
(0.719123 -0.41806 -0.0354076)
(-0.0246843 -0.0294226 -0.0362229)
(1.8729 -0.193293 -0.0231562)
(1.98045 -0.0114805 -0.0101793)
(-0.0832005 0.0238539 -0.00509811)
(1.85572 -0.23663 -0.00370424)
(-0.00272984 -0.0390461 -0.0246024)
(1.85528 -0.204367 -0.0420845)
(1.97636 -0.00274435 0.0305754)
(1.8585 -0.22332 0.0357709)
(-0.0264549 -0.0245347 -0.0169268)
(-0.168294 0.185875 0.010079)
(0.709493 -0.399033 -0.0295584)
(-0.45098 -0.0430199 -0.0414132)
(0.716396 -0.398173 -0.0366636)
(-0.180548 0.194446 -0.057006)
(1.37427 0.155793 0.0179645)
(1.27454 0.153057 -0.0144572)
(1.27663 0.1513 -0.00366385)
(1.37288 0.157374 -0.0332719)
(1.41535 0.17346 -0.0228281)
(1.5595 0.150281 0.00625422)
(1.41783 0.173852 -0.00996)
(1.55502 0.148722 -0.0305592)
(1.3648 0.166644 -0.0209566)
(1.26652 0.160296 -0.029157)
(1.367 0.166266 -0.0133922)
(1.26366 0.162379 -0.00600363)
(1.42294 0.162971 0.0209479)
(1.55791 0.138276 -0.0431979)
(1.55975 0.137462 0.0346797)
(1.42154 0.164329 -0.0348314)
(-0.177292 0.19332 -0.0542931)
(0.708703 -0.403979 -0.0271236)
(-0.440939 -0.0467187 -0.00524896)
(-0.16933 0.186358 0.024974)
(0.709745 -0.404925 -0.0183327)
(-0.0198283 -0.0301972 -0.0149148)
(1.83454 -0.214421 0.0123418)
(1.94836 0.000701093 -0.0184678)
(-0.0184381 -0.0283595 -0.0103479)
(1.83022 -0.216663 -0.0219572)
(-0.0153239 -0.0306655 -0.0101366)
(1.82668 -0.212524 -0.0253617)
(1.94738 0.002453 0.0229203)
(1.83022 -0.214296 0.0209401)
(-0.0200296 -0.0299074 -0.0158268)
(-0.168826 0.186531 0.0250902)
(0.706893 -0.40099 -0.02099)
(-0.437316 -0.0465738 -0.0352326)
(0.707627 -0.401358 -0.0237313)
(-0.17713 0.193463 -0.0548133)
(1.36135 0.16233 0.0158179)
(1.26035 0.158928 -0.00734611)
(1.26159 0.158455 -0.00606324)
(1.35986 0.162615 -0.0272092)
(1.40967 0.170686 -0.0259694)
(1.54621 0.147358 0.0275387)
(1.41113 0.170146 0.0146221)
(1.54448 0.147945 -0.0348968)
(1.36101 0.163736 -0.0239924)
(1.26249 0.159202 -0.00932111)
(1.36256 0.163061 0.0114833)
(1.26119 0.159991 -0.00497465)
(1.40968 0.169369 0.0190007)
(1.54205 0.147073 -0.0373331)
(1.54406 0.146596 0.0325059)
(1.40814 0.169575 -0.0289891)
(1.09377 -0.460183 -0.126655)
(-0.456145 -0.0735676 -0.23276)
(0.48662 -0.20388 -0.03565)
(0.173393 -0.175824 -0.043099)
(1.47973 -0.501785 -0.0913596)
(1.12002 -0.189076 -0.0719092)
(-0.117107 0.196678 0.0663322)
(1.16284 -0.310407 -0.106294)
(1.30466 -0.212675 0.00139221)
(1.52257 -0.530147 -0.129552)
(1.44102 -0.459029 -0.131885)
(1.20704 -0.479642 0.0834864)
(1.34742 -0.286715 -0.0794805)
(1.42847 0.0567058 -0.171651)
(1.95119 0.307714 -0.170466)
(1.91744 0.144218 -0.0978736)
(1.49548 0.195375 -0.156854)
(1.26477 -0.0109722 -0.32338)
(1.18081 -0.146517 -0.467487)
(1.53299 -0.00160618 -0.622182)
(1.20593 -0.0334572 -0.249448)
(1.13737 -0.145059 -0.500586)
(1.36084 -0.00934329 -0.175891)
(1.46454 -0.380462 -0.0411405)
(0.846305 -0.393122 -0.0790423)
(1.82257 0.0225999 -0.0549253)
(1.17295 -0.214313 -0.177041)
(1.18212 -0.360772 -0.105722)
(1.12876 -0.432185 -0.0483241)
(1.17706 -0.301152 -0.153357)
(-0.0955091 0.211849 -0.0221475)
(1.30162 -0.285264 0.120598)
(1.14644 -0.361851 -0.115038)
(1.36941 -0.296684 0.0399365)
(1.17691 -0.388439 -0.133875)
(1.34712 -0.391256 -0.0517995)
(0.93385 -0.431442 -0.0605216)
(1.31738 -0.311253 0.0507745)
(1.10114 -0.312814 -0.148719)
(1.24831 -0.192396 0.0393057)
(-0.160798 0.190981 -0.029394)
(0.710374 -0.397012 -0.0263065)
(-0.456469 -0.0377833 -0.0516812)
(-0.183793 0.195522 -0.0531061)
(0.764655 -0.397176 -0.0638885)
(0.0741439 -0.0972581 -0.0515911)
(2.01095 -0.0235897 0.0636868)
(1.87622 -0.179091 -0.06807)
(-0.05441 1.75212e-05 -0.00429051)
(1.88074 -0.258697 0.0868319)
(0.00819694 -0.0616978 -0.0895942)
(1.92895 -0.136292 -0.0261036)
(2.03849 -0.0406318 0.0330819)
(-0.143927 0.0980567 -0.0207252)
(1.90214 -0.291932 0.0641026)
(-0.191843 0.207871 -0.110502)
(0.675252 -0.420942 -0.097172)
(-0.478696 -0.0455886 -0.0262714)
(-0.177076 0.181054 0.0308341)
(0.756716 -0.437861 -0.0888561)
(1.25568 0.0183826 -0.043966)
(1.5405 0.034762 -0.0468879)
(1.27827 0.034069 -0.0310387)
(1.52258 0.0571561 -0.0726127)
(1.11429 0.0374456 -0.164482)
(1.06823 -0.0786043 -0.392187)
(0.719837 0.0499508 -0.309716)
(1.10905 -0.0135759 -0.16308)
(1.0738 0.0892906 -0.395609)
(1.12645 -0.00629633 -0.162667)
(1.09757 0.095266 -0.396999)
(0.724432 -0.06644 -0.312049)
(1.13918 0.0533891 -0.164441)
(1.08615 -0.0769329 -0.390089)
(1.24136 0.0251903 -0.0512611)
(1.51309 -0.0174186 -0.0795892)
(1.2366 0.00965871 -0.0533855)
(1.52283 0.0367984 -0.0735761)
(1.11223 0.0545087 -0.179707)
(1.0413 0.0187286 -0.458399)
(0.711111 0.114601 -0.310032)
(1.10623 0.0414577 -0.193041)
(1.05922 0.100225 -0.415582)
(1.09948 -0.00149363 -0.169606)
(1.05782 0.0954658 -0.398359)
(0.708543 -0.00557028 -0.30492)
(1.1046 0.0410094 -0.168679)
(1.04513 -0.0573631 -0.412764)
(1.17955 -0.0956107 0.0808305)
(1.19534 0.0833667 -0.161643)
(1.24035 -0.00992892 0.0482625)
(1.16113 0.0127687 -0.18738)
(1.15957 0.246596 -0.210517)
(1.13074 0.107798 0.111931)
(1.18061 0.297986 -0.202207)
(1.21662 -0.0233515 0.191068)
(1.35945 0.168806 -0.0237044)
(1.25565 0.181766 -0.0669198)
(1.33873 0.197926 -0.0841544)
(1.24628 0.169177 -0.0158563)
(1.43242 0.158099 0.0138631)
(1.57575 0.128408 -0.0556427)
(1.43531 0.156768 -0.05024)
(1.57648 0.13172 0.0269494)
(1.41579 0.173369 -0.0272318)
(1.56126 0.172178 -0.0509397)
(1.39719 0.204786 -0.0807755)
(1.56895 0.143741 -0.0359456)
(1.38225 0.150328 0.0132841)
(1.28266 0.145774 -0.0329947)
(1.38547 0.150063 -0.0492341)
(1.28907 0.14332 -0.00393139)
(1.14032 0.117231 -0.0128377)
(1.18029 0.135835 -0.0569812)
(1.1488 0.100675 -0.0559092)
(1.16441 0.144438 -0.0156944)
(1.1919 0.011633 0.0335502)
(1.2162 0.0801248 -0.0441022)
(1.22219 0.0721331 0.0117314)
(1.19004 0.0200275 -0.0591794)
(-0.169335 0.186355 0.0230823)
(0.709055 -0.401139 -0.0218674)
(-0.443882 -0.0451449 -0.0358854)
(-0.178115 0.193485 -0.0547981)
(0.710547 -0.401294 -0.0259626)
(-0.0138669 -0.0315902 -0.0124538)
(1.96013 0.00204404 0.0243948)
(1.83989 -0.211235 -0.0306005)
(-0.0214939 -0.0287038 -0.0152381)
(1.8431 -0.216216 0.0241215)
(-0.0212483 -0.029764 -0.0187156)
(1.8471 -0.212103 0.0010082)
(1.96056 -0.00288963 -0.0172089)
(-0.0288172 -0.0204211 -0.0112927)
(1.84015 -0.222458 -0.018399)
(-0.179074 0.194 -0.0574047)
(0.70825 -0.407413 -0.0353794)
(-0.448772 -0.0460136 -0.00621808)
(-0.17011 0.185419 0.022972)
(0.713686 -0.409565 -0.0216248)
(1.18736 0.0365181 0.0115624)
(1.20987 0.0932521 -0.0196817)
(1.21055 0.091258 0.00172058)
(1.18809 0.0375481 -0.0271798)
(1.16488 0.0741603 0.00155329)
(1.19375 0.114557 -0.0328947)
(1.191 0.117966 -0.0040557)
(1.16597 0.0719642 -0.0400785)
(1.36369 0.164251 -0.0220836)
(1.26573 0.158728 -0.0147306)
(1.36565 0.163182 0.00473654)
(1.26411 0.160143 -0.00437691)
(1.41519 0.167042 0.0202724)
(1.54918 0.143699 -0.0385519)
(1.41406 0.167832 -0.0294963)
(1.55052 0.142723 0.033363)
(1.41288 0.171223 -0.0240421)
(1.55157 0.14725 0.0210007)
(1.41475 0.170463 0.00788505)
(1.54921 0.147556 -0.0328078)
(1.36674 0.159967 0.0172685)
(1.26705 0.15668 -0.008038)
(1.3656 0.160807 -0.0276904)
(1.26825 0.155851 -0.00410625)
(1.17227 0.0614051 -0.00239284)
(1.19721 0.108946 -0.0170518)
(1.17328 0.0605434 -0.0218318)
(1.19568 0.110375 -0.00460821)
(1.18244 0.0459516 0.00318638)
(1.20288 0.100221 -0.0115444)
(1.20339 0.0994391 -0.00152762)
(1.18264 0.0462309 -0.0156924)
(1.82323 -0.213456 0.0173718)
(1.93563 0.00194767 -0.0168036)
(-0.0158338 -0.0300856 -0.0112082)
(0.705726 -0.40082 -0.0269127)
(-0.432832 -0.047743 -0.0111081)
(-0.168014 0.186225 0.0229607)
(1.17877 0.0501754 -0.00311109)
(1.1974 0.10408 -0.0103955)
(1.19806 0.103584 -0.00496348)
(1.17872 0.0502993 -0.012857)
(1.17506 0.0559781 -0.00681329)
(1.19695 0.106992 -0.0101844)
(1.19583 0.107706 -0.00666386)
(1.17581 0.0555917 -0.0122763)
(1.25766 0.159753 -0.00969578)
(1.35803 0.163497 0.0125615)
(1.256 0.160249 -0.00886903)
(1.53993 0.148787 0.0306189)
(1.40622 0.170518 0.0160873)
(1.17597 0.0537982 -0.0125118)
(1.19483 0.106483 -0.0100267)
(1.17639 0.0535561 -0.0107716)
(1.19373 0.107112 -0.011451)
(0.627484 -0.146262 -0.20809)
(0.617375 -0.0382048 -0.240806)
(0.460321 -0.260086 -0.039252)
(-0.173705 0.238136 -0.119393)
(0.920794 -0.0906296 -0.428932)
(1.16469 -0.00285653 0.00450903)
(1.15988 -0.0433683 0.0147912)
(1.17697 -0.0146492 0.00354847)
(1.14827 0.00740948 -0.00845679)
(1.16688 -0.00242174 -0.00643044)
(1.15429 -0.024714 -0.00678149)
(1.17334 -0.0122517 -0.00550305)
(1.05655 0.418459 -0.136975)
(1.43862 0.468316 -0.186759)
(1.20713 0.0334367 -0.232837)
(1.20362 -0.0177265 -0.228733)
(1.31317 0.0896036 -0.257944)
(1.29616 0.058448 -0.255723)
(0.464289 -0.0198139 -0.184401)
(0.324596 -0.30943 -0.0454933)
(0.0354583 -0.032331 -0.0989377)
(1.77501 0.29256 -0.403829)
(1.58424 0.400945 -0.249613)
(1.34725 -0.305415 -0.169013)
(1.33723 -0.158734 0.0688327)
(1.29214 -0.135908 0.285767)
(1.31531 -0.234795 -0.262353)
(1.27921 -0.295031 -0.185561)
(1.36847 -0.186069 -0.279526)
(1.2816 -0.141383 0.0564315)
(1.1031 -0.0203351 -0.00373482)
(1.03655 0.00354872 -0.0998778)
(1.11787 -0.0393065 -0.0401175)
(1.11372 -0.00564706 0.000865135)
(1.1133 -0.0185334 -0.00980395)
(1.0482 -0.088579 -0.0702284)
(1.12271 -0.00566412 0.00127958)
(1.21279 -0.0162244 -0.232459)
(1.20301 0.0336549 -0.229621)
(1.26825 0.0330697 -0.248417)
(1.27151 0.0706899 -0.24665)
(0.00675192 0.231689 -0.128725)
(1.92774 -0.242523 -0.0705122)
(1.87357 -0.269928 -0.0386987)
(1.3469 -0.479417 0.0255531)
(1.20174 -0.294619 0.140783)
(1.92407 -0.156302 -0.0779775)
(0.214902 0.0982212 0.0281153)
(1.12492 -0.0161329 0.0316714)
(0.685092 0.0278732 -0.201253)
(0.764691 -0.00621547 -0.152079)
(1.15141 -0.0319581 -0.154868)
(1.13116 -0.0186642 -0.0593747)
(0.493021 -0.137485 -0.0964572)
(1.16256 -0.0564228 -0.173494)
(1.03016 0.0479349 0.127427)
(0.570296 0.0112063 -0.0648424)
(1.28372 0.0720401 0.508957)
(0.626994 0.0680513 -0.280292)
(1.13537 0.133805 0.417878)
(1.21878 -0.00441459 0.200917)
(0.516188 -0.04259 -0.0698773)
(1.23884 0.101239 -0.241649)
(1.21559 0.0744517 -0.229735)
(1.20515 -0.0550884 0.00572942)
(1.26374 0.119728 0.362999)
(0.734968 0.0447917 -0.322615)
(0.623697 -0.043305 -0.0868946)
(1.27033 -0.131576 0.356074)
(1.19696 0.0614148 0.0142937)