/*--------------------------------*- C++ -*----------------------------------*\
| =========                 |                                                 |
| \\      /  F ield         | OpenFOAM: The Open Source CFD Toolbox           |
|  \\    /   O peration     | Version:  2012                                  |
|   \\  /    A nd           | Website:  www.openfoam.com                      |
|    \\/     M anipulation  |                                                 |
\*---------------------------------------------------------------------------*/
FoamFile
{
    version     2.0;
    format      ascii;
    class       surfaceVectorField;
    location    "0.105/fluid";
    object      Uf;
}
// * * * * * * * * * * * * * * * * * * * * * * * * * * * * * * * * * * * * * //

dimensions      [0 1 -1 0 0 0 0];


internalField   nonuniform List<vector> 
47532
(
(1.1272 -0.00443437 -0.0363172)
(1.14869 -0.0113645 -0.0147586)
(1.1344 -0.00780043 -0.0108299)
(1.14787 -0.00639347 -0.0080677)
(1.16791 -0.00250564 0.00296769)
(1.17295 -0.00465314 0.00161037)
(1.17147 -0.00181288 -0.00166772)
(1.17381 -0.00191296 0.000748041)
(1.18442 -0.000851353 -0.000189771)
(1.18651 -0.000672909 -0.000205169)
(1.18595 -0.0015522 -0.000174684)
(1.18557 -0.000733859 -0.000682293)
(1.19099 -0.000351132 -0.000196397)
(1.19205 -0.000282156 -0.000175377)
(1.1918 -0.000713149 -0.000184091)
(1.19169 -0.000311209 -0.000421004)
(1.19436 -0.000143048 -0.00011958)
(1.19492 -0.000115582 -0.00010539)
(1.19498 -0.000343187 -0.00011132)
(1.19478 -0.000126692 -0.000254958)
(1.19618 -6.7426e-05 -7.30366e-05)
(1.1965 -5.841e-05 -6.48932e-05)
(1.19681 -0.00018502 -6.85637e-05)
(1.19646 -6.21404e-05 -0.000156996)
(1.19724 -4.23219e-05 -4.52254e-05)
(1.19744 -3.93611e-05 -4.06483e-05)
(1.1979 -0.000111823 -4.28864e-05)
(1.19745 -4.07264e-05 -9.80378e-05)
(1.19791 -3.2935e-05 -2.84192e-05)
(1.19804 -3.11313e-05 -2.55804e-05)
(1.19856 -7.42622e-05 -2.67644e-05)
(1.19808 -3.20148e-05 -6.1538e-05)
(1.19836 -2.83914e-05 -1.86207e-05)
(1.19844 -2.76452e-05 -1.60942e-05)
(1.19897 -5.34094e-05 -1.72212e-05)
(1.1985 -2.79933e-05 -3.87763e-05)
(1.19866 -2.65304e-05 -1.2101e-05)
(1.19872 -2.63756e-05 -1.09385e-05)
(1.19923 -4.0489e-05 -1.18524e-05)
(1.19879 -2.66118e-05 -2.5524e-05)
(1.19888 -2.90997e-05 -7.5113e-06)
(1.19893 -3.06781e-05 -6.81869e-06)
(1.19939 -3.48221e-05 -7.31576e-06)
(1.19901 -3.00461e-05 -1.58223e-05)
(1.19906 -3.58713e-05 -5.22148e-06)
(1.1991 -3.77388e-05 -5.00051e-06)
(1.19948 -3.38492e-05 -5.28623e-06)
(1.19918 -3.70132e-05 -1.04357e-05)
(1.19922 -4.35045e-05 -4.03156e-06)
(1.19926 -4.43863e-05 -3.47332e-06)
(1.19954 -3.49138e-05 -4.00462e-06)
(1.19934 -4.45425e-05 -6.672e-06)
(1.22185 -0.115901 -0.110718)
(1.25892 -0.0333906 -0.126991)
(1.21247 -0.0555543 -0.104955)
(1.22703 -0.0614592 -0.122236)
(1.18745 -0.0585747 -0.00488255)
(1.18228 -0.0407353 0.0196318)
(1.16962 -0.0401448 0.0188522)
(1.16487 -0.0342788 -0.000507708)
(1.18617 -0.035557 0.0258589)
(1.17847 -0.0327198 0.0192709)
(1.1814 -0.0123033 0.00163847)
(1.18179 -0.0150367 0.00250013)
(1.18099 -0.0124202 -0.000918157)
(1.1837 -0.0117401 0.00137)
(1.18443 -0.0134385 0.00187345)
(1.18839 -0.0053326 -7.08581e-06)
(1.18825 -0.00635141 0.00013793)
(1.18952 -0.00528132 -3.05152e-05)
(1.18951 -0.00611906 6.5224e-05)
(1.18876 -0.00564809 -0.000575161)
(1.19279 -0.00265235 -0.000160759)
(1.19257 -0.00316223 -0.000156726)
(1.19337 -0.00269778 -0.000149697)
(1.19324 -0.00313454 -0.000150705)
(1.19316 -0.0028935 -0.000376506)
(1.19544 -0.00144439 -0.000105514)
(1.19527 -0.00172033 -0.000111036)
(1.19576 -0.00149122 -9.94205e-05)
(1.19564 -0.00173329 -0.000104928)
(1.19573 -0.0015959 -0.000239787)
(1.19705 -0.000828722 -6.7552e-05)
(1.19693 -0.000986439 -7.1702e-05)
(1.19724 -0.000863302 -6.43525e-05)
(1.19715 -0.00100388 -6.83786e-05)
(1.19729 -0.000921633 -0.00015194)
(1.19805 -0.00049151 -4.38396e-05)
(1.19797 -0.000584447 -4.67455e-05)
(1.19816 -0.000514291 -4.17343e-05)
(1.19809 -0.000598679 -4.46466e-05)
(1.19826 -0.000548166 -9.68313e-05)
(1.19867 -0.000297016 -2.82155e-05)
(1.19861 -0.000352453 -3.00948e-05)
(1.19873 -0.000311727 -2.75548e-05)
(1.19868 -0.000363395 -2.92821e-05)
(1.19886 -0.000332269 -6.21023e-05)
(1.19905 -0.000182621 -1.86958e-05)
(1.19902 -0.00021613 -2.02543e-05)
(1.1991 -0.000190955 -1.81963e-05)
(1.19906 -0.000224268 -1.95569e-05)
(1.19923 -0.000204045 -4.00979e-05)
(1.19931 -0.000112878 -1.33473e-05)
(1.19928 -0.000132307 -1.42354e-05)
(1.19933 -0.000116006 -1.31126e-05)
(1.1993 -0.000138796 -1.39928e-05)
(1.19947 -0.000124895 -2.67637e-05)
(1.19946 -6.62042e-05 -1.00143e-05)
(1.19945 -7.54543e-05 -1.0788e-05)
(1.19948 -6.53014e-05 -1.06368e-05)
(1.19946 -8.22222e-05 -1.13878e-05)
(1.19962 -7.20276e-05 -1.87814e-05)
(1.19957 -3.82462e-05 -8.33176e-06)
(1.19956 -4.00948e-05 -9.28584e-06)
(1.19958 -3.30264e-05 -8.9273e-06)
(1.19957 -4.77228e-05 -9.69919e-06)
(1.19971 -3.84128e-05 -1.35835e-05)
(1.19964 -1.99776e-05 -7.32655e-06)
(1.19963 -1.58904e-05 -8.29047e-06)
(1.19965 -1.13522e-05 -8.02931e-06)
(1.19964 -2.38575e-05 -8.78563e-06)
(1.19977 -1.56373e-05 -9.98389e-06)
(1.22439 -0.0128137 -0.118932)
(1.22041 -0.0196157 -0.116064)
(1.21632 -0.0112616 -0.116355)
(1.17834 -0.0183406 -0.00233359)
(1.21862 -0.0165158 -0.0899564)
(1.20384 -0.0179305 0.0278444)
(1.20033 -0.0196439 0.0296949)
(1.20109 -0.0160916 0.0289963)
(1.18286 -0.0188043 0.00280469)
(1.19791 -0.0172618 0.0243111)
(1.1918 -0.0123957 0.00251377)
(1.19273 -0.0128436 0.00352351)
(1.19251 -0.0113126 0.00207655)
(1.19314 -0.0116662 0.0024537)
(1.1905 -0.0121419 -0.000490219)
(1.19271 -0.0070422 0.000199237)
(1.19298 -0.00757432 0.000360061)
(1.19337 -0.00661135 0.000106922)
(1.19355 -0.00702998 0.000186384)
(1.19327 -0.00708439 -0.000436528)
(1.1947 -0.00402363 -0.00014472)
(1.19472 -0.00440403 -0.000139634)
(1.19516 -0.00385285 -0.000146472)
(1.19518 -0.00415874 -0.0001516)
(1.1954 -0.00412178 -0.000334701)
(1.19636 -0.00235609 -0.000110905)
(1.19632 -0.0025972 -0.000118599)
(1.19665 -0.00228221 -0.000107341)
(1.19663 -0.00248083 -0.000114995)
(1.19692 -0.00243625 -0.000227736)
(1.19752 -0.00140982 -7.32341e-05)
(1.19747 -0.00155885 -7.84739e-05)
(1.19769 -0.00137553 -7.04597e-05)
(1.19766 -0.0015007 -7.53749e-05)
(1.19795 -0.00146493 -0.000147331)
(1.19828 -0.00085716 -4.82473e-05)
(1.19824 -0.000949557 -5.13101e-05)
(1.19838 -0.000840204 -4.67813e-05)
(1.19835 -0.0009192 -4.96242e-05)
(1.19864 -0.000893868 -9.60342e-05)
(1.19878 -0.000527796 -3.33273e-05)
(1.19874 -0.000584921 -3.54951e-05)
(1.19884 -0.000519406 -3.23791e-05)
(1.19882 -0.00056834 -3.47548e-05)
(1.19909 -0.000552409 -6.37803e-05)
(1.1991 -0.000327772 -2.27665e-05)
(1.19908 -0.000364077 -2.41866e-05)
(1.19914 -0.00032274 -2.26464e-05)
(1.19912 -0.000353882 -2.39696e-05)
(1.19938 -0.000344126 -4.21225e-05)
(1.19931 -0.000202329 -1.65865e-05)
(1.19929 -0.000224699 -1.77009e-05)
(1.19934 -0.000198657 -1.69649e-05)
(1.19932 -0.000218177 -1.78002e-05)
(1.19956 -0.000212824 -2.83174e-05)
(1.19946 -0.00012337 -1.53925e-05)
(1.19944 -0.000137611 -1.62438e-05)
(1.19948 -0.000121431 -1.57436e-05)
(1.19946 -0.000133753 -1.66146e-05)
(1.19968 -0.000131009 -2.24612e-05)
(1.19956 -7.20952e-05 -1.40473e-05)
(1.19955 -8.11047e-05 -1.48743e-05)
(1.19958 -7.01723e-05 -1.47555e-05)
(1.19957 -7.86458e-05 -1.5571e-05)
(1.19975 -7.76428e-05 -1.78459e-05)
(1.19964 -3.87203e-05 -1.34513e-05)
(1.19964 -4.3333e-05 -1.43511e-05)
(1.19965 -3.61911e-05 -1.41095e-05)
(1.19965 -4.23883e-05 -1.51004e-05)
(1.1998 -4.20425e-05 -1.44859e-05)
(1.17179 0.0272555 -0.0510917)
(1.18817 0.00787696 -0.0949019)
(1.15112 -0.0155851 -0.0164884)
(1.1779 0.0171243 -0.0471664)
(1.1946 -0.00473014 0.0128476)
(1.19652 -0.0094261 0.0198281)
(1.18501 -0.0145419 0.002444)
(1.19537 -0.00959401 0.0137593)
(1.19505 -0.00956814 0.00156631)
(1.19518 -0.00967173 0.00215549)
(1.19531 -0.00892641 0.00112135)
(1.19546 -0.0099962 -0.000485684)
(1.19555 -0.00659666 2.31418e-05)
(1.19576 -0.00684196 8.36286e-05)
(1.19595 -0.00616866 -6.55989e-05)
(1.1968 -0.00660593 -0.000418995)
(1.19652 -0.00421207 -0.000180003)
(1.19662 -0.00443515 -0.000185602)
(1.19685 -0.00395715 -0.000177885)
(1.1976 -0.00419827 -0.00031863)
(1.19744 -0.00263261 -0.000125604)
(1.19748 -0.00279496 -0.00013378)
(1.19767 -0.0024873 -0.000119785)
(1.19825 -0.00263588 -0.000215335)
(1.19814 -0.00164162 -7.96656e-05)
(1.19815 -0.00175119 -8.48093e-05)
(1.19828 -0.00155755 -7.57879e-05)
(1.19876 -0.00165016 -0.000138583)
(1.19861 -0.00102486 -5.28448e-05)
(1.19862 -0.00109671 -5.5592e-05)
(1.19871 -0.000975951 -5.1372e-05)
(1.19913 -0.00103434 -9.18672e-05)
(1.19896 -0.000643483 -3.81377e-05)
(1.19895 -0.000689249 -4.04075e-05)
(1.19902 -0.000613447 -3.67934e-05)
(1.19939 -0.000650913 -6.28666e-05)
(1.1992 -0.000402662 -2.78428e-05)
(1.19918 -0.000431835 -2.93986e-05)
(1.19923 -0.00038461 -2.7274e-05)
(1.19957 -0.000408699 -4.37498e-05)
(1.19935 -0.000249269 -2.2156e-05)
(1.19934 -0.000267793 -2.31503e-05)
(1.19938 -0.000237603 -2.26474e-05)
(1.19968 -0.000254047 -3.2089e-05)
(1.19948 -0.000152347 -2.0945e-05)
(1.19947 -0.000164513 -2.18533e-05)
(1.19949 -0.000145438 -2.1544e-05)
(1.19976 -0.000156709 -2.6456e-05)
(1.19958 -9.27245e-05 -2.00359e-05)
(1.19957 -0.000100806 -2.06606e-05)
(1.19959 -8.82784e-05 -2.08329e-05)
(1.19981 -9.63613e-05 -2.17045e-05)
(1.19966 -5.02011e-05 -2.00334e-05)
(1.19965 -5.56454e-05 -2.09013e-05)
(1.19967 -4.66664e-05 -2.03337e-05)
(1.19984 -5.3264e-05 -1.90079e-05)
(0.99925 -0.224495 -0.0326547)
(0.876823 -0.299402 -0.037136)
(1.06181 -0.163055 -0.0333231)
(1.06119 -0.205742 -0.0362572)
(1.00083 -0.22331 -0.0246163)
(1.16268 0.00373405 -0.018382)
(1.15522 0.00604793 -0.013431)
(1.15908 -0.00250246 -0.0167856)
(1.15951 0.00568051 -0.0117493)
(1.16344 0.00242037 -0.0146396)
(1.17512 -0.00207472 -0.00637931)
(1.17564 -0.00251579 -0.00748001)
(1.17846 -0.00410269 -0.00660401)
(1.17911 -0.00188804 -0.00607648)
(1.17659 -0.00202049 -0.00598961)
(1.18665 -0.000696449 -0.00300371)
(1.18621 -0.000801064 -0.00352398)
(1.18793 -0.000639223 -0.00300502)
(1.18751 -0.00150301 -0.00321795)
(1.1872 -0.000683584 -0.00334137)
(1.19223 -0.00029734 -0.00164768)
(1.19183 -0.000330725 -0.00195557)
(1.19279 -0.000264729 -0.00171396)
(1.19259 -0.000675973 -0.00181454)
(1.19248 -0.000289905 -0.00199782)
(1.19511 -0.000122087 -0.000986695)
(1.1949 -0.000135387 -0.00117035)
(1.19541 -0.000110123 -0.00103415)
(1.19552 -0.000328476 -0.00109441)
(1.19525 -0.000119656 -0.00120692)
(1.19669 -6.14828e-05 -0.00060716)
(1.19657 -6.60416e-05 -0.000719002)
(1.19687 -5.76727e-05 -0.000638354)
(1.19721 -0.000179899 -0.000675792)
(1.19677 -6.10536e-05 -0.000744208)
(1.19764 -4.0724e-05 -0.000379766)
(1.19756 -4.25146e-05 -0.000448781)
(1.19775 -3.91455e-05 -0.000399644)
(1.19822 -0.000110188 -0.000422716)
(1.19769 -4.05514e-05 -0.000465615)
(1.19824 -3.1706e-05 -0.000238971)
(1.19819 -3.24319e-05 -0.000282251)
(1.19831 -3.10737e-05 -0.000251399)
(1.19884 -7.33224e-05 -0.00026598)
(1.19827 -3.16986e-05 -0.000292485)
(1.19864 -2.80351e-05 -0.000151311)
(1.1986 -2.84333e-05 -0.000178808)
(1.19868 -2.77807e-05 -0.000159167)
(1.19922 -5.29542e-05 -0.000168565)
(1.19866 -2.79838e-05 -0.000185125)
(1.19892 -2.72201e-05 -9.54513e-05)
(1.19889 -2.75663e-05 -0.000112002)
(1.19895 -2.74619e-05 -0.000100407)
(1.19946 -4.113e-05 -0.000106543)
(1.19893 -2.77272e-05 -0.000116814)
(1.19912 -3.01718e-05 -6.08033e-05)
(1.1991 -2.95885e-05 -7.20482e-05)
(1.19915 -3.07712e-05 -6.40701e-05)
(1.19961 -3.51219e-05 -6.77814e-05)
(1.19913 -3.01075e-05 -7.47892e-05)
(1.19929 -3.68716e-05 -3.8021e-05)
(1.19928 -3.58406e-05 -4.48578e-05)
(1.19932 -3.77822e-05 -3.96023e-05)
(1.1997 -3.43642e-05 -4.19841e-05)
(1.1993 -3.6769e-05 -4.65382e-05)
(1.19945 -4.44863e-05 -2.18799e-05)
(1.19943 -4.35894e-05 -2.60124e-05)
(1.19947 -4.45532e-05 -2.21422e-05)
(1.19975 -3.55122e-05 -2.39362e-05)
(1.19945 -4.44257e-05 -2.67388e-05)
(1.36395 -0.00950751 -0.0220503)
(1.36405 -0.0510832 -0.0319457)
(1.31333 -0.0713999 -0.0470028)
(1.30648 -0.0394943 -0.0450086)
(1.34506 -0.0222596 -0.0162707)
(1.20096 -0.0640007 -0.00171055)
(1.21517 -0.113811 -0.0500136)
(1.23428 -0.0939174 -0.0523605)
(1.21723 -0.0770305 -0.041871)
(1.23132 -0.0818701 -0.0522102)
(1.21241 -0.0662153 -0.0153776)
(1.17568 -0.0300751 -0.0118679)
(1.18682 -0.0339043 -0.0167055)
(1.19296 -0.0394443 -0.0189326)
(1.19682 -0.0335184 -0.0162159)
(1.18092 -0.029472 -0.00891727)
(1.18986 -0.030293 -0.0138536)
(1.1836 -0.0117806 -0.00546372)
(1.18589 -0.0119866 -0.00603256)
(1.18726 -0.0142338 -0.00657145)
(1.18766 -0.0113371 -0.00538228)
(1.18898 -0.0129673 -0.00575658)
(1.18487 -0.0115047 -0.00491415)
(1.18972 -0.00543553 -0.00275881)
(1.18994 -0.00512197 -0.00302148)
(1.19001 -0.00611373 -0.00322263)
(1.19091 -0.0050665 -0.00276685)
(1.19106 -0.00587551 -0.00291297)
(1.19021 -0.00532726 -0.00296542)
(1.19366 -0.00280197 -0.00154101)
(1.19358 -0.00253736 -0.00172175)
(1.19341 -0.00302641 -0.00181794)
(1.19413 -0.00258592 -0.00159812)
(1.19404 -0.00300541 -0.00167125)
(1.19389 -0.00275156 -0.00184652)
(1.19606 -0.00155382 -0.000933781)
(1.19602 -0.00139414 -0.00105012)
(1.19588 -0.00166024 -0.00110518)
(1.19634 -0.00144192 -0.000980426)
(1.19625 -0.0016758 -0.00102495)
(1.1962 -0.0015287 -0.0011425)
(1.19753 -0.000900956 -0.000582587)
(1.19751 -0.00080565 -0.000653973)
(1.19742 -0.000958508 -0.000688293)
(1.1977 -0.000839931 -0.000612626)
(1.19764 -0.000976589 -0.000641059)
(1.19761 -0.000888069 -0.000713824)
(1.19844 -0.00053752 -0.000367163)
(1.19843 -0.000480121 -0.000411428)
(1.19837 -0.000570424 -0.000433248)
(1.19855 -0.000502689 -0.000386233)
(1.1985 -0.000584992 -0.000404602)
(1.19849 -0.000530708 -0.000450101)
(1.19901 -0.000326914 -0.000232369)
(1.199 -0.000291978 -0.000260043)
(1.19896 -0.000346291 -0.000273977)
(1.19907 -0.000306389 -0.000244442)
(1.19905 -0.000357356 -0.000256307)
(1.19904 -0.000323184 -0.000284967)
(1.19937 -0.000201039 -0.000147602)
(1.19936 -0.000180284 -0.000164933)
(1.19934 -0.000212811 -0.000173772)
(1.19941 -0.000188479 -0.000155139)
(1.19939 -0.000221185 -0.00016279)
(1.19939 -0.000198899 -0.000180943)
(1.19959 -0.000122601 -9.37932e-05)
(1.19959 -0.000111319 -0.000104754)
(1.19957 -0.000130064 -0.00011028)
(1.19962 -0.000114367 -9.84309e-05)
(1.1996 -0.000136856 -0.000103389)
(1.1996 -0.000121237 -0.000115069)
(1.19973 -7.18726e-05 -5.9391e-05)
(1.19973 -6.74474e-05 -6.6067e-05)
(1.19972 -7.65346e-05 -6.96725e-05)
(1.19975 -6.65349e-05 -6.19991e-05)
(1.19974 -8.35104e-05 -6.52636e-05)
(1.19974 -7.10699e-05 -7.30497e-05)
(1.19982 -3.88011e-05 -3.74383e-05)
(1.19982 -4.00001e-05 -4.10417e-05)
(1.19982 -4.18195e-05 -4.34158e-05)
(1.19983 -3.49933e-05 -3.82639e-05)
(1.19983 -4.97158e-05 -4.05991e-05)
(1.19983 -3.83587e-05 -4.57998e-05)
(1.19987 -1.60008e-05 -2.15595e-05)
(1.19987 -2.17364e-05 -2.31968e-05)
(1.19987 -1.78033e-05 -2.48566e-05)
(1.19988 -1.33856e-05 -2.0967e-05)
(1.19988 -2.59444e-05 -2.29016e-05)
(1.19988 -1.57055e-05 -2.63802e-05)
(1.28567 0.00197306 -0.0120344)
(1.24745 0.00107798 -0.061607)
(1.24122 -0.000837625 -0.0675728)
(1.24347 0.0161895 -0.0621835)
(1.26618 0.00140518 -0.0165308)
(1.23849 -0.0147443 -0.0632163)
(1.20364 -0.0193369 0.00342173)
(1.24254 -0.0192608 -0.0574956)
(1.24054 -0.00124336 -0.0568159)
(1.22113 -0.0185214 -0.0123953)
(1.23644 -0.0166289 -0.0482703)
(1.19175 -0.0182166 -0.00854078)
(1.21213 -0.0182513 -0.0148791)
(1.21486 -0.0172509 -0.0176188)
(1.21319 -0.0140036 -0.0143112)
(1.20827 -0.0162718 -0.0119048)
(1.19757 -0.0176435 -0.00572087)
(1.19236 -0.0116221 -0.00423276)
(1.19619 -0.0116421 -0.00483263)
(1.19767 -0.0120576 -0.00516768)
(1.19629 -0.0106764 -0.00424672)
(1.19765 -0.0108615 -0.00453338)
(1.19334 -0.0113245 -0.00352668)
(1.19402 -0.00683434 -0.00226641)
(1.19441 -0.0067474 -0.00250637)
(1.19492 -0.00724203 -0.00262021)
(1.19498 -0.00633955 -0.00227413)
(1.19536 -0.00672354 -0.00235528)
(1.19439 -0.0066835 -0.00235628)
(1.19581 -0.00400095 -0.00131608)
(1.19566 -0.00388197 -0.00147586)
(1.19577 -0.00424775 -0.00153419)
(1.19612 -0.00372169 -0.00135864)
(1.19622 -0.00401527 -0.00140131)
(1.196 -0.00392651 -0.001553)
(1.19721 -0.00237477 -0.000817825)
(1.1971 -0.00228495 -0.000925564)
(1.19711 -0.00251805 -0.000961089)
(1.19739 -0.00221506 -0.000858375)
(1.19742 -0.00240715 -0.000886883)
(1.19732 -0.00233614 -0.00100065)
(1.19817 -0.00143216 -0.000522367)
(1.19811 -0.00137218 -0.000589159)
(1.1981 -0.00151677 -0.000613328)
(1.19829 -0.00133937 -0.000548693)
(1.1983 -0.00146084 -0.000568615)
(1.19824 -0.00141165 -0.00064032)
(1.19881 -0.000876181 -0.000334933)
(1.19878 -0.000837423 -0.000376729)
(1.19877 -0.000926898 -0.000393108)
(1.19889 -0.000821323 -0.000351818)
(1.19889 -0.000897427 -0.000365506)
(1.19886 -0.000864973 -0.000410879)
(1.19923 -0.000543301 -0.000215295)
(1.19921 -0.000518429 -0.000241208)
(1.1992 -0.000574148 -0.000252251)
(1.19928 -0.000510229 -0.000225754)
(1.19928 -0.000558134 -0.000235168)
(1.19926 -0.000537267 -0.000264138)
(1.1995 -0.000339168 -0.000138024)
(1.19949 -0.000323294 -0.000154188)
(1.19948 -0.000358404 -0.000161542)
(1.19954 -0.000318441 -0.000144401)
(1.19953 -0.000348847 -0.000150677)
(1.19952 -0.000335659 -0.000169375)
(1.19968 -0.000210611 -8.87347e-05)
(1.19967 -0.000200579 -9.85628e-05)
(1.19967 -0.000222742 -0.00010335)
(1.1997 -0.000197642 -9.25308e-05)
(1.1997 -0.000216978 -9.67094e-05)
(1.19969 -0.000208759 -0.000109062)
(1.19979 -0.000130149 -5.72218e-05)
(1.19979 -0.00012366 -6.25793e-05)
(1.19978 -0.00013767 -6.5844e-05)
(1.1998 -0.000121689 -5.86721e-05)
(1.1998 -0.000133918 -6.15123e-05)
(1.1998 -0.000129083 -7.02608e-05)
(1.19986 -7.75836e-05 -3.66265e-05)
(1.19986 -7.35082e-05 -3.89313e-05)
(1.19986 -8.23212e-05 -4.11112e-05)
(1.19987 -7.15692e-05 -3.61916e-05)
(1.19987 -7.98155e-05 -3.81738e-05)
(1.19987 -7.68261e-05 -4.46408e-05)
(1.1999 -4.21876e-05 -2.13258e-05)
(1.1999 -4.04738e-05 -2.17583e-05)
(1.1999 -4.5005e-05 -2.33008e-05)
(1.19991 -3.7732e-05 -1.96083e-05)
(1.19991 -4.4092e-05 -2.11743e-05)
(1.19991 -4.16034e-05 -2.61008e-05)
(1.34358 0.0685605 -0.0338804)
(1.31676 0.0929493 -0.0335092)
(1.32359 0.110001 -0.0283898)
(1.34519 0.0964921 -0.0243703)
(1.33507 0.108722 -0.0170774)
(1.18558 0.028466 -0.0402687)
(1.17788 -0.00909059 -0.0112216)
(1.20819 0.0333042 -0.0429933)
(1.18168 0.0249678 -0.0289471)
(1.18754 0.00133325 -0.0128783)
(1.19497 0.0223411 -0.0315129)
(1.20038 8.17856e-05 -0.0109405)
(1.18999 -0.0108896 -0.00549084)
(1.20552 -0.00496636 -0.0104944)
(1.19354 -0.0086454 -0.00394718)
(1.20103 -0.00454477 -0.00754608)
(1.19667 -0.00926787 -0.00298137)
(1.19951 -0.0082668 -0.00347648)
(1.1998 -0.00796872 -0.003536)
(1.19908 -0.00779539 -0.00296828)
(1.19728 -0.00886325 -0.00253698)
(1.19734 -0.00634535 -0.00169987)
(1.19761 -0.00622558 -0.00188316)
(1.198 -0.0064058 -0.00192719)
(1.19788 -0.00583875 -0.00169705)
(1.19759 -0.00618766 -0.00178411)
(1.19793 -0.00407428 -0.0010378)
(1.19778 -0.00406141 -0.00116809)
(1.19797 -0.0042682 -0.00119463)
(1.19808 -0.00381683 -0.00107237)
(1.19807 -0.00399745 -0.00123482)
(1.1985 -0.00256926 -0.000675822)
(1.19838 -0.0025512 -0.000764207)
(1.19847 -0.00270587 -0.000784051)
(1.19859 -0.00241003 -0.000706936)
(1.19858 -0.00252812 -0.000826771)
(1.19895 -0.00161275 -0.0004452)
(1.19888 -0.00159546 -0.000502178)
(1.19893 -0.00170078 -0.000517772)
(1.19902 -0.00151398 -0.000466419)
(1.19901 -0.00159005 -0.000546137)
(1.19929 -0.00101325 -0.000292102)
(1.19925 -0.000999664 -0.000328511)
(1.19927 -0.00106881 -0.00034008)
(1.19934 -0.000952227 -0.000305978)
(1.19933 -0.00100054 -0.000358834)
(1.19953 -0.000639177 -0.000192333)
(1.1995 -0.000629639 -0.000214941)
(1.19952 -0.000674223 -0.000223027)
(1.19957 -0.00060101 -0.000200749)
(1.19956 -0.000631934 -0.00023602)
(1.19969 -0.000402726 -0.00012533)
(1.19968 -0.000396457 -0.000139137)
(1.19968 -0.000425122 -0.000145167)
(1.19972 -0.000378705 -0.000130124)
(1.19971 -0.000398894 -0.00015395)
(1.1998 -0.000252549 -8.3038e-05)
(1.19979 -0.000248488 -9.09563e-05)
(1.19979 -0.000267032 -9.49003e-05)
(1.19982 -0.000237255 -8.54977e-05)
(1.19981 -0.000250669 -0.00010188)
(1.19987 -0.000156392 -5.44249e-05)
(1.19986 -0.000153542 -5.81213e-05)
(1.19987 -0.0001655 -6.11629e-05)
(1.19988 -0.000146425 -5.43361e-05)
(1.19988 -0.000155347 -6.65629e-05)
(1.19992 -9.49927e-05 -3.43596e-05)
(1.19991 -9.25085e-05 -3.53297e-05)
(1.19991 -0.00010032 -3.72658e-05)
(1.19992 -8.78187e-05 -3.2462e-05)
(1.19992 -9.38246e-05 -4.18994e-05)
(1.19995 -5.29366e-05 -2.03471e-05)
(1.19994 -5.1242e-05 -1.93406e-05)
(1.19994 -5.64789e-05 -2.06637e-05)
(1.19995 -4.74939e-05 -1.74534e-05)
(1.19995 -5.22922e-05 -2.49326e-05)
(0.889286 -0.290034 -0.0191156)
(1.00741 -0.218884 -0.0167455)
(1.07085 -0.195828 -0.018292)
(1.00782 -0.217702 -0.015395)
(1.07117 -0.157525 -0.0181322)
(1.16652 0.00500255 -0.0150971)
(1.1639 0.00599544 -0.0127758)
(1.16181 -0.000561638 -0.0144766)
(1.16558 0.00593163 -0.0124683)
(1.16675 0.00325507 -0.0136217)
(1.17957 -0.00183968 -0.00809153)
(1.17876 -0.00213783 -0.00919271)
(1.18207 -0.00161299 -0.00798424)
(1.18141 -0.00343758 -0.00851118)
(1.18086 -0.00181421 -0.00818989)
(1.18894 -0.000620368 -0.00478399)
(1.18849 -0.000688797 -0.00530317)
(1.18998 -0.000553859 -0.00466105)
(1.18964 -0.00129612 -0.0049271)
(1.18963 -0.000599556 -0.00508953)
(1.19347 -0.000260003 -0.00288085)
(1.19324 -0.000286087 -0.00320102)
(1.194 -0.00022906 -0.00282795)
(1.19392 -0.000597988 -0.00298573)
(1.19385 -0.000248272 -0.00310665)
(1.1958 -0.000110309 -0.00176112)
(1.19569 -0.000120645 -0.00195724)
(1.1961 -9.9567e-05 -0.00173403)
(1.1963 -0.000297781 -0.00183421)
(1.19603 -0.000106921 -0.00190416)
(1.19711 -5.86981e-05 -0.00109119)
(1.19704 -6.23025e-05 -0.00121152)
(1.19728 -5.49902e-05 -0.00107652)
(1.19768 -0.000167515 -0.00113906)
(1.19724 -5.7722e-05 -0.00118103)
(1.1979 -3.9484e-05 -0.000683524)
(1.19785 -4.09098e-05 -0.000758243)
(1.198 -3.77633e-05 -0.000675442)
(1.19851 -0.000104301 -0.00071402)
(1.19798 -3.88939e-05 -0.00074069)
(1.1984 -3.1144e-05 -0.000431425)
(1.19837 -3.17165e-05 -0.000478188)
(1.19847 -3.03827e-05 -0.00042638)
(1.19902 -7.04297e-05 -0.000450575)
(1.19845 -3.07399e-05 -0.000467466)
(1.19874 -2.85669e-05 -0.000272434)
(1.19872 -2.85693e-05 -0.000302062)
(1.19879 -2.85754e-05 -0.000269668)
(1.19934 -5.21587e-05 -0.000285227)
(1.19877 -2.86031e-05 -0.00029567)
(1.19899 -2.88557e-05 -0.000172786)
(1.19897 -2.88423e-05 -0.000191517)
(1.19902 -2.90944e-05 -0.000170751)
(1.19954 -4.14188e-05 -0.000181135)
(1.199 -2.91215e-05 -0.000187477)
(1.19917 -2.99893e-05 -0.000109133)
(1.19915 -2.96745e-05 -0.00012071)
(1.19919 -3.08175e-05 -0.000107563)
(1.19965 -3.41975e-05 -0.00011417)
(1.19918 -3.02405e-05 -0.000117825)
(1.19932 -3.6655e-05 -6.77484e-05)
(1.19931 -3.58101e-05 -7.53109e-05)
(1.19935 -3.76816e-05 -6.6326e-05)
(1.19973 -3.39343e-05 -7.07398e-05)
(1.19933 -3.67507e-05 -7.29449e-05)
(1.19947 -4.45405e-05 -3.8854e-05)
(1.19946 -4.3779e-05 -4.40763e-05)
(1.19949 -4.47039e-05 -3.74569e-05)
(1.19977 -3.55497e-05 -4.09059e-05)
(1.19948 -4.46693e-05 -4.20986e-05)
(1.36507 -0.0172619 -0.00879107)
(1.33857 -0.0121592 -0.00454881)
(1.32336 -0.0394365 -0.0118848)
(1.33363 -0.0141775 -0.00428191)
(1.31234 -0.0121433 -0.0108841)
(1.20665 -0.085347 -0.0200635)
(1.2254 -0.0667091 -0.0200856)
(1.20877 -0.0560609 -0.010724)
(1.20899 -0.0566664 -0.0122587)
(1.20358 -0.0560402 -0.0198534)
(1.21591 -0.0604142 -0.0206671)
(1.18161 -0.0262373 -0.0104559)
(1.18252 -0.0271014 -0.01443)
(1.18576 -0.0317273 -0.0152835)
(1.18361 -0.0260954 -0.0105375)
(1.18596 -0.0247042 -0.0134209)
(1.19015 -0.0272241 -0.0142916)
(1.18691 -0.0103454 -0.00716637)
(1.1874 -0.0101171 -0.00815569)
(1.18819 -0.0119853 -0.00870426)
(1.18905 -0.00963692 -0.00751357)
(1.18991 -0.0110382 -0.00794421)
(1.1882 -0.0101343 -0.00716875)
(1.19165 -0.00486046 -0.00440498)
(1.19166 -0.00446702 -0.00465554)
(1.19167 -0.00532056 -0.00492032)
(1.1925 -0.00444309 -0.00431273)
(1.19259 -0.00514858 -0.00451146)
(1.19231 -0.00471677 -0.0046117)
(1.1948 -0.00254431 -0.00268516)
(1.19479 -0.00228194 -0.00283574)
(1.19466 -0.0027145 -0.0029771)
(1.19525 -0.00233115 -0.00264151)
(1.19519 -0.00270365 -0.00275384)
(1.19516 -0.00246258 -0.00289462)
(1.19674 -0.00142749 -0.00166915)
(1.19676 -0.00127216 -0.00176148)
(1.19666 -0.00151269 -0.00185167)
(1.19702 -0.00131798 -0.00164641)
(1.19696 -0.00152963 -0.00172028)
(1.19697 -0.00138636 -0.00180527)
(1.19795 -0.000836339 -0.00104639)
(1.19797 -0.000743742 -0.00110265)
(1.1979 -0.00088362 -0.00116027)
(1.19812 -0.000776367 -0.00103342)
(1.19808 -0.000901697 -0.00108143)
(1.19809 -0.000815154 -0.00113261)
(1.1987 -0.000503742 -0.000660649)
(1.19871 -0.000447962 -0.000695177)
(1.19867 -0.000531433 -0.000732003)
(1.19881 -0.00046956 -0.000652987)
(1.19878 -0.00054581 -0.000684107)
(1.19879 -0.000492688 -0.000715233)
(1.19917 -0.000308926 -0.000419152)
(1.19918 -0.000275029 -0.000440622)
(1.19915 -0.000325786 -0.000464318)
(1.19924 -0.000288834 -0.000414588)
(1.19922 -0.000336719 -0.000434873)
(1.19922 -0.000303184 -0.000454019)
(1.19947 -0.000190826 -0.000266166)
(1.19947 -0.000170868 -0.000279768)
(1.19945 -0.000201403 -0.00029499)
(1.19951 -0.000178402 -0.000263307)
(1.1995 -0.000209718 -0.000276523)
(1.1995 -0.000187584 -0.000288523)
(1.19966 -0.000116406 -0.000169067)
(1.19966 -0.000105923 -0.000177712)
(1.19965 -0.000123166 -0.000187292)
(1.19968 -0.000108528 -0.00016721)
(1.19968 -0.000130363 -0.000175691)
(1.19968 -0.000114387 -0.000183152)
(1.19978 -6.88069e-05 -0.000107422)
(1.19978 -6.50191e-05 -0.000112826)
(1.19977 -7.3287e-05 -0.00011905)
(1.19979 -6.39469e-05 -0.000106141)
(1.19979 -8.07081e-05 -0.000111921)
(1.19979 -6.79025e-05 -0.00011641)
(1.19985 -3.75206e-05 -6.68697e-05)
(1.19985 -3.92637e-05 -7.0273e-05)
(1.19985 -4.0725e-05 -7.43619e-05)
(1.19986 -3.41844e-05 -6.5585e-05)
(1.19986 -4.87271e-05 -6.98387e-05)
(1.19986 -3.70867e-05 -7.22134e-05)
(1.19989 -1.58215e-05 -3.85257e-05)
(1.19989 -2.20389e-05 -4.06764e-05)
(1.19989 -1.80133e-05 -4.34145e-05)
(1.1999 -1.38719e-05 -3.72711e-05)
(1.1999 -2.6247e-05 -4.05526e-05)
(1.1999 -1.56978e-05 -4.17273e-05)
(1.26262 0.00100931 -0.0026378)
(1.25672 0.00213004 -0.0141386)
(1.25331 -0.00182911 -0.0156535)
(1.2522 0.00853444 -0.0140682)
(1.25828 0.00108781 -0.00504516)
(1.22348 -0.0168289 -0.0207039)
(1.21614 -0.0186482 -0.00673651)
(1.2224 -0.0187479 -0.0208502)
(1.22093 -0.00659615 -0.0201773)
(1.21714 -0.0180027 -0.0101348)
(1.21532 -0.018177 -0.0197833)
(1.19624 -0.0166088 -0.00766211)
(1.20215 -0.0164674 -0.0132286)
(1.20225 -0.0167138 -0.0139552)
(1.20008 -0.0153452 -0.0119676)
(1.20362 -0.0136285 -0.0125958)
(1.19839 -0.0159897 -0.0081701)
(1.19439 -0.0103999 -0.00564119)
(1.19593 -0.0103097 -0.00703121)
(1.19669 -0.0108942 -0.00741716)
(1.19621 -0.00958626 -0.0063577)
(1.19731 -0.00982015 -0.00664526)
(1.19553 -0.0100161 -0.00562189)
(1.1954 -0.0061346 -0.003641)
(1.19547 -0.00600642 -0.00395768)
(1.19586 -0.00646511 -0.00413119)
(1.19599 -0.00566544 -0.00362133)
(1.19631 -0.00601934 -0.00374374)
(1.19596 -0.00592119 -0.00376275)
(1.19671 -0.00363433 -0.00228714)
(1.19661 -0.0035 -0.00244135)
(1.19672 -0.00382517 -0.0025266)
(1.197 -0.0033622 -0.00225729)
(1.1971 -0.00362367 -0.00232356)
(1.19701 -0.00351672 -0.00246234)
(1.19778 -0.00218293 -0.00146322)
(1.19773 -0.00208729 -0.00155853)
(1.19775 -0.00229677 -0.00161714)
(1.19797 -0.00202669 -0.00144789)
(1.19801 -0.00219979 -0.00149562)
(1.19796 -0.00212013 -0.00158245)
(1.19853 -0.00133103 -0.000939566)
(1.19851 -0.00126865 -0.000997546)
(1.19851 -0.00140046 -0.00103897)
(1.19866 -0.00124014 -0.000930246)
(1.19868 -0.00135103 -0.000964586)
(1.19865 -0.00129812 -0.00101711)
(1.19904 -0.00082135 -0.000604321)
(1.19903 -0.000781783 -0.000639967)
(1.19903 -0.000864354 -0.000668226)
(1.19913 -0.000767543 -0.000598583)
(1.19913 -0.000837827 -0.000622428)
(1.19912 -0.000803834 -0.000654469)
(1.19938 -0.00051404 -0.000389276)
(1.19937 -0.000488859 -0.000411447)
(1.19937 -0.000540649 -0.000430463)
(1.19944 -0.000481672 -0.000385683)
(1.19944 -0.000526298 -0.000401909)
(1.19943 -0.000504512 -0.000421668)
(1.1996 -0.000322364 -0.000249182)
(1.1996 -0.000306467 -0.000263226)
(1.19959 -0.000339575 -0.000276057)
(1.19964 -0.000302096 -0.000246693)
(1.19964 -0.000330734 -0.000257619)
(1.19963 -0.000316762 -0.000270262)
(1.19974 -0.000202446 -0.000159899)
(1.19974 -0.000192421 -0.000168342)
(1.19974 -0.00021353 -0.000176688)
(1.19977 -0.000190105 -0.000158452)
(1.19977 -0.000208662 -0.000165738)
(1.19976 -0.000199844 -0.000173133)
(1.19984 -0.000125832 -0.000103404)
(1.19983 -0.000119782 -0.000108736)
(1.19983 -0.000133195 -0.000114418)
(1.19985 -0.000117946 -0.000102345)
(1.19985 -0.000129699 -0.000107419)
(1.19985 -0.000124515 -0.000112151)
(1.19989 -7.49995e-05 -6.4944e-05)
(1.19989 -7.1747e-05 -6.81235e-05)
(1.19989 -8.00742e-05 -7.20939e-05)
(1.1999 -6.96609e-05 -6.36845e-05)
(1.1999 -7.76763e-05 -6.72817e-05)
(1.1999 -7.41581e-05 -7.0039e-05)
(1.19993 -4.0963e-05 -3.81365e-05)
(1.19992 -4.03717e-05 -4.0105e-05)
(1.19993 -4.43331e-05 -4.2711e-05)
(1.19993 -3.73754e-05 -3.684e-05)
(1.19993 -4.37156e-05 -3.96529e-05)
(1.19993 -4.0511e-05 -4.10868e-05)
(1.32535 0.077719 -0.00853071)
(1.30634 0.0655111 -0.00244467)
(1.31088 0.0868023 -0.00126444)
(1.33131 0.0791949 -0.000801087)
(1.32314 0.0866016 -0.00541762)
(1.18936 0.0030409 -0.0140439)
(1.18997 -0.00452904 -0.00708452)
(1.20173 0.0121742 -0.015367)
(1.18501 0.0100735 -0.0129638)
(1.1907 -0.00212268 -0.00849508)
(1.19269 0.00298036 -0.0134102)
(1.19481 -0.00403344 -0.00962345)
(1.19334 -0.00803055 -0.00584084)
(1.20032 -0.00710865 -0.00968409)
(1.20007 -0.00918913 -0.00844878)
(1.1947 -0.0068171 -0.00619908)
(1.19708 -0.00620384 -0.00837435)
(1.19801 -0.0080446 -0.00419458)
(1.19944 -0.00765916 -0.00525102)
(1.19935 -0.00748983 -0.00536853)
(1.19914 -0.00718072 -0.0046526)
(1.19967 -0.00741577 -0.00473864)
(1.19879 -0.00753386 -0.00421137)
(1.1983 -0.00567473 -0.00278454)
(1.19835 -0.00560882 -0.00305368)
(1.19867 -0.00578197 -0.00312814)