/*--------------------------------*- C++ -*----------------------------------*\
| =========                 |                                                 |
| \\      /  F ield         | OpenFOAM: The Open Source CFD Toolbox           |
|  \\    /   O peration     | Version:  2012                                  |
|   \\  /    A nd           | Website:  www.openfoam.com                      |
|    \\/     M anipulation  |                                                 |
\*---------------------------------------------------------------------------*/
FoamFile
{
    version     2.0;
    format      ascii;
    class       surfaceScalarField;
    location    "0.108/fluid";
    object      meshPhi;
}
// * * * * * * * * * * * * * * * * * * * * * * * * * * * * * * * * * * * * * //

dimensions      [0 3 -1 0 0 0 0];
oriented        oriented;


internalField   nonuniform List<scalar> 
47532
(
-9.01651e-07
-1.63565e-06
7.94977e-08
8.79373e-07
-9.45803e-07
-4.70629e-06
2.65308e-08
9.67395e-07
-1.00321e-06
1.0021e-06
-5.96671e-06
1.80178e-08
-9.75141e-07
9.60919e-07
-5.86692e-06
1.2465e-08
-9.073e-07
8.86148e-07
-5.1043e-06
7.55687e-09
-8.16471e-07
7.93099e-07
-4.10879e-06
3.8708e-09
-7.28469e-07
7.10434e-07
-3.21426e-06
1.26673e-09
-6.6329e-07
6.47921e-07
-2.52151e-06
-6.6449e-10
-6.01308e-07
5.85513e-07
-2.01945e-06
-1.88003e-09
-5.30361e-07
5.08434e-07
-1.55944e-06
-2.32347e-09
-4.37975e-07
4.12898e-07
-1.10762e-06
-2.33921e-09
-3.3e-07
3.00042e-07
-6.94759e-07
-1.81109e-09
-1.94815e-07
1.54216e-07
-3.1775e-07
-9.66486e-10
-1.29105e-06
-4.3482e-06
5.34451e-06
-3.63513e-06
1.41352e-06
-7.05344e-06
1.31947e-05
3.52077e-07
-2.11421e-05
7.44702e-06
2.30096e-05
-8.34647e-06
1.59819e-07
8.53066e-06
-3.16807e-05
2.5663e-05
-8.73658e-06
8.71362e-06
-3.33222e-05
1.15856e-07
2.38549e-05
-8.45255e-06
8.31465e-06
-3.01201e-05
8.16743e-08
2.01225e-05
-7.81531e-06
7.63313e-06
-2.50467e-05
4.91395e-08
1.61103e-05
-7.08582e-06
6.91048e-06
-1.99618e-05
2.2159e-08
1.26286e-05
-6.42603e-06
6.27881e-06
-1.56325e-05
3.10821e-09
9.86207e-06
-5.85219e-06
5.70882e-06
-1.21733e-05
-1.07401e-08
7.71005e-06
-5.27004e-06
5.11732e-06
-9.41501e-06
-1.92736e-08
5.81307e-06
-4.61054e-06
4.4181e-06
-6.99528e-06
-2.18906e-08
4.05803e-06
-3.79081e-06
3.57053e-06
-4.84542e-06
-2.06023e-08
2.53602e-06
-2.85877e-06
2.59569e-06
-3.03742e-06
-1.59184e-08
1.14348e-06
-1.68277e-06
1.32558e-06
-1.38038e-06
-8.51969e-09
-4.62954e-06
2.35899e-05
-3.44134e-05
-3.50681e-08
7.13429e-06
-1.30677e-05
6.04731e-05
-7.81185e-05
-1.08491e-07
1.42864e-05
6.78243e-05
-1.61815e-05
1.64006e-05
-8.21435e-05
-7.39038e-09
6.04327e-05
-1.62802e-05
1.60938e-05
-7.04504e-05
3.89774e-08
4.98016e-05
-1.53099e-05
1.50103e-05
-5.64702e-05
4.57975e-08
3.96598e-05
-1.4068e-05
1.37537e-05
-4.4381e-05
2.49516e-08
3.10018e-05
-1.28436e-05
1.25588e-05
-3.44516e-05
-2.05322e-09
2.4042e-05
-1.17551e-05
1.14981e-05
-2.66027e-05
-2.24733e-08
1.83792e-05
-1.07095e-05
1.04369e-05
-2.01725e-05
-3.65934e-08
1.36994e-05
-9.57782e-06
9.27519e-06
-1.48383e-05
-4.44584e-08
9.74365e-06
-8.28512e-06
7.93105e-06
-1.0458e-05
-4.51087e-08
6.62132e-06
-6.82479e-06
6.43991e-06
-7.06377e-06
-3.94785e-08
4.30541e-06
-5.23118e-06
4.77827e-06
-4.60736e-06
-3.0823e-08
2.03759e-06
-3.14764e-06
2.48339e-06
-2.14859e-06
-1.67803e-08
-1.29467e-05
0.000100424
-3.82487e-06
1.65248e-05
-2.28388e-05
0.000138636
-1.18787e-06
2.381e-05
0.000122725
-2.46753e-05
2.45484e-05
-3.95444e-07
9.74973e-05
-2.35473e-05
2.31237e-05
-1.57812e-07
7.44994e-05
-2.17874e-05
2.1345e-05
-7.47135e-08
5.68002e-05
-2.00404e-05
1.96247e-05
-6.32814e-08
4.32753e-05
-1.84406e-05
1.80671e-05
-7.03802e-08
3.30292e-05
-1.69766e-05
1.66184e-05
-7.74859e-08
2.47203e-05
-1.55188e-05
1.51295e-05
-8.087e-08
1.75863e-05
-1.38114e-05
1.33499e-05
-8.05388e-08
1.1893e-05
-1.18315e-05
1.12868e-05
-7.45202e-08
7.69282e-06
-9.66434e-06
9.1042e-06
-6.11177e-08
4.71142e-06
-7.29163e-06
6.62324e-06
-4.48429e-08
1.99548e-06
-4.26878e-06
3.34718e-06
-2.34635e-08
3.13216e-07
-8.00682e-07
1.10136e-06
2.03159e-06
-4.80604e-07
-1.20955e-06
-1.25162e-07
-3.29072e-06
1.08235e-07
1.16496e-06
-7.96194e-08
-1.10287e-06
-5.67633e-06
1.09193e-06
8.93762e-08
-5.93502e-08
-1.06647e-06
1.0557e-06
-6.405e-06
6.84953e-08
-4.17469e-08
-1.011e-06
9.92273e-07
-6.04486e-06
4.81997e-08
-2.5352e-08
-9.28439e-07
9.04898e-07
-5.16734e-06
2.91434e-08
-1.24986e-08
-8.3257e-07
8.08943e-07
-4.14451e-06
1.39445e-08
-3.16245e-09
-7.45108e-07
7.27305e-07
-3.24686e-06
2.83987e-09
3.6351e-09
-6.79806e-07
6.63828e-07
-2.55557e-06
-5.0971e-09
7.71521e-09
-6.12127e-07
5.93923e-07
-2.0037e-06
-9.79239e-09
9.14981e-09
-5.3544e-07
5.13665e-07
-1.51322e-06
-1.13777e-08
8.77854e-09
-4.40885e-07
4.15604e-07
-1.08626e-06
-1.05695e-08
6.62158e-09
-3.29581e-07
2.98411e-07
-6.7883e-07
-7.96526e-09
3.52394e-09
-1.9214e-07
1.51941e-07
-3.00467e-07
-4.25433e-09
-1.36638e-05
6.79002e-06
3.60487e-05
-2.03027e-05
1.0081e-05
-2.11405e-06
8.08704e-06
-1.34625e-05
1.20103e-05
-1.85604e-05
1.71931e-06
-9.02472e-07
2.07744e-05
-1.04686e-05
-3.14947e-05
9.53832e-07
1.02189e-05
-5.31718e-07
2.70471e-05
-9.79994e-06
9.70521e-06
-3.68921e-05
6.19919e-07
-3.93604e-07
2.74792e-05
-9.40252e-06
9.27159e-06
-3.56367e-05
4.58408e-07
-2.73771e-07
2.46665e-05
-8.80686e-06
8.62615e-06
-3.12057e-05
3.15311e-07
-1.59763e-07
2.05262e-05
-8.04257e-06
7.84185e-06
-2.56144e-05
1.8075e-07
-6.67564e-08
1.63734e-05
-7.26174e-06
7.07876e-06
-2.03245e-05
7.11578e-08
8.70762e-10
1.28482e-05
-6.57488e-06
6.4212e-06
-1.59233e-05
-8.87596e-09
4.92596e-08
1.00584e-05
-5.98115e-06
5.83433e-06
-1.24307e-05
-6.51019e-08
7.81253e-08
7.80097e-06
-5.3744e-06
5.20911e-06
-9.5932e-06
-9.79433e-08
8.64896e-08
5.78759e-06
-4.65971e-06
4.45612e-06
-7.04945e-06
-1.06899e-07
7.86224e-08
4.00981e-06
-3.81162e-06
3.5875e-06
-4.84737e-06
-9.60168e-08
5.96545e-08
2.47902e-06
-2.85504e-06
2.58939e-06
-2.99335e-06
-7.24471e-08
3.18517e-08
1.0891e-06
-1.66995e-06
1.31684e-06
-1.29419e-06
-3.8497e-08
-3.82369e-06
6.30761e-05
3.14581e-05
-9.24411e-05
4.52906e-06
-2.21036e-05
7.03338e-08
8.07341e-05
-0.000116953
1.57172e-07
2.13645e-05
1.94781e-07
8.63912e-05
-2.03153e-05
-0.000111293
2.00048e-05
-5.94074e-08
-7.17168e-08
7.76481e-05
-1.90253e-05
1.86701e-05
-9.37312e-05
1.46871e-07
-1.62502e-07
6.46899e-05
-1.75738e-05
1.72156e-05
-7.52042e-05
2.03364e-07
-1.42672e-07
5.19623e-05
-1.60918e-05
1.57006e-05
-5.87376e-05
1.57617e-07
-5.9549e-08
4.07163e-05
-1.45734e-05
1.4214e-05
-4.55356e-05
5.438e-08
2.94363e-08
3.15555e-05
-1.32021e-05
1.28938e-05
-3.50132e-05
-4.90174e-08
9.99109e-08
2.44578e-05
-1.20345e-05
1.17618e-05
-2.70143e-05
-1.3183e-07
1.48371e-07
1.88172e-05
-1.09439e-05
1.06663e-05
-2.06376e-05
-1.87711e-07
1.75233e-07
1.41803e-05
-9.79418e-06
9.48063e-06
-1.53667e-05
-2.1727e-07
1.76392e-07
1.00597e-05
-8.4244e-06
8.04242e-06
-1.0786e-05
-2.16853e-07
1.53562e-07
6.63876e-06
-6.8623e-06
6.45816e-06
-7.07613e-06
-1.88022e-07
1.17555e-07
4.18285e-06
-5.19218e-06
4.72989e-06
-4.45196e-06
-1.42201e-07
6.25558e-08
1.83033e-06
-3.07417e-06
2.42358e-06
-1.91491e-06
-7.55171e-08
2.53656e-06
5.54768e-05
7.03616e-06
-5.94567e-05
-1.91058e-06
-4.0506e-05
8.1829e-06
0.000254167
-0.000289438
-6.61172e-06
3.78137e-05
-3.20282e-05
2.92301e-06
0.000181337
-2.68166e-06
3.07048e-05
1.05411e-06
0.000134692
-2.77128e-05
2.69074e-05
-1.06001e-06
4.65269e-07
0.000101277
-2.47731e-05
2.41315e-05
-5.14635e-07
2.60706e-07
7.56186e-05
-2.23815e-05
2.18729e-05
-3.19292e-07
2.46112e-07
5.74669e-05
-2.04817e-05
2.00449e-05
-3.09371e-07
2.72107e-07
4.36356e-05
-1.87996e-05
1.84096e-05
-3.40476e-07
2.98681e-07
3.33006e-05
-1.72757e-05
1.6899e-05
-3.71331e-07
3.07875e-07
2.49469e-05
-1.57214e-05
1.53046e-05
-3.80579e-07
3.01916e-07
1.79358e-05
-1.39545e-05
1.34776e-05
-3.70966e-07
2.79208e-07
1.2264e-05
-1.1957e-05
1.14212e-05
-3.41506e-07
2.34805e-07
7.91427e-06
-9.76026e-06
9.17995e-06
-2.87602e-07
1.72154e-07
4.62933e-06
-7.2907e-06
6.60653e-06
-2.10052e-07
8.91668e-08
1.86835e-06
-4.23581e-06
3.31594e-06
-1.08843e-07
-1.42939e-06
2.01796e-07
-1.05832e-06
-1.18177e-07
1.34603e-06
-1.28318e-06
-9.233e-08
-4.93248e-06
9.31003e-08
1.25574e-06
-1.07185e-07
-1.18292e-06
1.16167e-06
-6.79885e-06
1.08453e-07
-8.44947e-08
-1.10726e-06
1.09077e-06
-6.97332e-06
8.59404e-08
-5.78791e-08
-1.04254e-06
1.0243e-06
-6.29574e-06
5.82397e-08
-3.40378e-08
-9.60813e-07
9.37336e-07
-5.26631e-06
3.35697e-08
-1.39764e-08
-8.70058e-07
8.50244e-07
-4.23242e-06
1.27924e-08
7.42123e-10
-7.94913e-07
7.76803e-07
-3.36053e-06
-2.54154e-09
1.06533e-08
-7.21396e-07
7.02415e-07
-2.64324e-06
-1.26577e-08
1.60707e-08
-6.42457e-07
6.21092e-07
-2.05863e-06
-1.80567e-08
1.72809e-08
-5.51035e-07
5.25814e-07
-1.53827e-06
-1.91111e-08
1.54796e-08
-4.44947e-07
4.16739e-07
-1.04631e-06
-1.71034e-08
1.1679e-08
-3.26671e-07
2.95176e-07
-6.29783e-07
-1.28042e-08
6.23092e-09
-1.8898e-07
1.49184e-07
-2.82665e-07
-6.80965e-09
7.89169e-06
-3.72327e-06
2.06718e-05
2.67388e-06
-2.05875e-05
1.63245e-05
-1.44771e-05
-1.1999e-06
1.08954e-06
1.35461e-05
-2.95716e-05
-1.02765e-06
2.76084e-05
-1.19778e-05
1.02005e-06
1.16251e-05
-4.05158e-05
-8.01359e-07
3.15234e-05
-1.08467e-05
1.06321e-05
-4.25147e-05
8.22161e-07
-5.77397e-07
2.98137e-05
-1.00455e-05
9.84468e-06
-3.85792e-05
5.88868e-07
-3.78552e-07
2.56988e-05
-9.21622e-06
8.99947e-06
-3.25012e-05
3.78519e-07
-2.01734e-07
2.10325e-05
-8.35178e-06
8.14488e-06
-2.63049e-05
1.94165e-07
-5.67344e-08
1.67541e-05
-7.57151e-06
7.39349e-06
-2.08109e-05
4.37788e-08
4.80928e-08
1.31852e-05
-6.88274e-06
6.71771e-06
-1.63058e-05
-6.45199e-08
1.17556e-07
1.03042e-05
-6.23632e-06
6.07504e-06
-1.27079e-05
-1.35142e-07
1.54366e-07
7.98823e-06
-5.57364e-06
5.39366e-06
-9.80774e-06
-1.71466e-07
1.60883e-07
5.96261e-06
-4.79698e-06
4.57742e-06
-7.28905e-06
-1.76685e-07
1.42309e-07
4.08267e-06
-3.8844e-06
3.6447e-06
-4.96871e-06
-1.5617e-07
1.06608e-07
2.45287e-06
-2.86334e-06
2.58122e-06
-2.96275e-06
-1.16688e-07
5.61922e-08
1.05575e-06
-1.63907e-06
1.28342e-06
-1.27076e-06
-6.11161e-08
-3.50999e-06
9.70326e-05
3.63053e-05
-0.000127168
2.66698e-06
-2.94133e-05
-1.53723e-06
0.000113491
-0.0001483
1.88633e-06
2.79109e-05
-8.2038e-07
0.000103145
-2.43577e-05
2.34426e-05
-0.000126265
1.11296e-06
-5.15187e-07
8.54806e-05
-2.12518e-05
2.06418e-05
-0.000100117
6.4006e-07
-3.23836e-07
6.8518e-05
-1.90191e-05
1.85153e-05
-7.82167e-05
3.56938e-07
-1.68922e-07
5.37715e-05
-1.70638e-05
1.66152e-05
-6.04327e-05
1.58105e-07
-1.07726e-08
4.17499e-05
-1.53462e-05
1.49496e-05
-4.64607e-05
-1.56839e-08
1.30975e-07
3.223e-05
-1.3855e-05
1.35192e-05
-3.56491e-05
-1.66053e-07
2.3989e-07
2.49352e-05
-1.25671e-05
1.22612e-05
-2.74809e-05
-2.78205e-07
3.06346e-07
1.92425e-05
-1.1356e-05
1.10492e-05
-2.11007e-05
-3.44312e-07
3.31629e-07
1.45814e-05
-1.00752e-05
9.72428e-06
-1.58657e-05
-3.66153e-07
3.20644e-07
1.05283e-05
-8.61474e-06
8.22218e-06
-1.13636e-05
-3.51002e-07
2.76704e-07
7.00276e-06
-6.99395e-06
6.56815e-06
-7.52659e-06
-3.0257e-07
2.06203e-07
4.11695e-06
-5.18018e-06
4.68617e-06
-4.42816e-06
-2.25097e-07
1.09009e-07
1.77222e-06
-2.99253e-06
2.35264e-06
-1.86661e-06
-1.1836e-07
-3.62391e-07
4.64014e-05
9.00814e-06
-4.7449e-05
3.72074e-07
-4.27753e-05
-2.4167e-07
0.000232877
-0.000250717
2.00628e-06
4.03135e-05
-3.42295e-05
5.75482e-07
0.000179836
-0.000190272
1.58508e-07
3.26859e-05
5.72732e-07
0.000134287
-2.90988e-05
2.8161e-05
-0.000141292
-3.49066e-07
5.04319e-07
0.00010084
-2.58225e-05
2.51494e-05
-4.70086e-07
4.60187e-07
7.58857e-05
-2.33013e-05
2.27439e-05
-5.01045e-07
4.87625e-07
5.74353e-05
-2.12273e-05
2.07672e-05
-5.47155e-07
5.41304e-07
4.3712e-05
-1.94595e-05
1.90364e-05
-6.06393e-07
5.78302e-07
3.34544e-05
-1.77873e-05
1.73728e-05
-6.40981e-07
5.82942e-07
2.5298e-05
-1.61051e-05
1.56641e-05
-6.42294e-07
5.58352e-07
1.85611e-05
-1.42532e-05
1.37537e-05
-6.11875e-07
5.0888e-07
1.30717e-05
-1.22089e-05
1.16792e-05
-5.55774e-07
4.25978e-07
8.55805e-06
-9.95661e-06
9.33879e-06
-4.64957e-07
3.09584e-07
4.92966e-06
-7.35946e-06
6.65299e-06
-3.38319e-07
1.60829e-07
2.0233e-06
-4.2304e-06
3.30757e-06
-1.75441e-07
1.11799e-06
9.64156e-07
-1.40885e-06
-1.0245e-06
3.64123e-07
4.84888e-07
-1.23234e-06
4.45029e-07
6.20398e-06
4.82153e-07
7.29559e-08
2.47338e-07
1.70142e-07
-6.40188e-06
7.23273e-06
-1.21155e-05
1.83581e-05
-4.62215e-06
-3.47002e-06
-3.94378e-06
-4.04025e-06
7.65663e-06
-1.72312e-06
1.19818e-06
-2.56006e-06
-4.6948e-06
-7.7054e-06
-9.91107e-07
-7.36672e-07
1.32254e-07
-3.92737e-06
5.23382e-06
1.98033e-06
-1.22032e-06
-1.15391e-06
-1.23096e-06
-9.65479e-06
5.67323e-06
4.88674e-06
-5.49759e-06
5.20311e-07
-2.37298e-07
9.96817e-07
2.7151e-06
1.34115e-07
1.102e-06
-1.77818e-07
-1.12296e-06
-1.78453e-06
-4.96746e-06
1.30467e-06
-2.1011e-06
-6.13952e-07
7.58776e-06
-1.52128e-05
9.48496e-07
7.37731e-06
-9.60042e-07
8.66278e-06
-7.42944e-06
-9.47946e-07
1.90158e-06
-1.06794e-06
-9.18768e-07
-1.07194e-06
-6.30123e-07
-7.54129e-07
-6.95511e-07
-5.42862e-07
-1.24554e-05
4.27443e-06
8.00309e-06
4.40467e-07
-5.58126e-07
-4.01815e-07
-5.44635e-07
-4.10376e-07
-1.5835e-05
3.36607e-05
-1.6944e-05
1.07939e-05
2.75096e-06
-3.20396e-06
-1.27604e-05
-1.04836e-05
-3.9637e-05
7.54143e-06
-5.53884e-06
2.89624e-05
2.61111e-05
-5.46012e-05
1.50672e-05
1.86542e-06
-1.44003e-06
3.53078e-05
-1.62097e-05
-1.88408e-05
8.14548e-08
-5.55504e-07
-4.01422e-07
-5.4434e-07
-4.11164e-07
-7.0205e-05
9.38482e-06
4.46039e-05
-2.60129e-06
-9.80146e-07
-1.35218e-06
-1.04797e-06
-7.66358e-07
-2.58911e-06
2.15626e-05
-5.90156e-05
3.01708e-07
1.63896e-05
-1.41096e-07
-1.65527e-05
-8.30966e-05
-5.1743e-05
-7.34069e-06
9.26465e-06
0.000141891
2.23444e-05
-4.61087e-05
-5.74708e-05
-5.14945e-05
-0.000240398
-7.34375e-06
2.83493e-05
7.49108e-06
0.000180257
-2.8195e-05
-5.0128e-06
-2.38466e-06
-1.28973e-06
-1.78068e-06
-1.75838e-06
3.26282e-06
6.052e-06
-5.61972e-05
-1.00981e-05
3.39693e-05
1.09454e-05
-3.62894e-05
4.72448e-06
-1.23568e-06
-2.78849e-07
-3.45917e-08
-3.30617e-08
-1.26458e-07
1.95474e-05
3.64858e-06
-2.85388e-06
-3.0041e-06
-3.42485e-06
-2.57626e-06
9.44674e-06
-4.6707e-06
-2.59142e-06
-1.00813e-05
3.19778e-07
-4.1097e-07
1.51989e-06
6.48209e-07
7.23756e-07
-7.47038e-07
-2.7958e-07
-7.29223e-07
-2.89006e-07
8.36386e-07
-7.5404e-06
-1.15094e-06
1.49503e-05
-6.91654e-07
-4.47916e-07
-6.85941e-07
-4.35702e-07
2.36548e-07
1.11994e-05
-1.19648e-05
-1.04822e-07
4.02694e-06
-1.188e-05
0.000274376
-4.38672e-05
-0.000321466
-7.72602e-06
4.93655e-05
-3.13573e-07
9.36167e-06
-5.06279e-05
8.11102e-07
0.000264209
4.56957e-05
1.75955e-06
-4.91477e-05
-0.000291094
5.03455e-08
-2.50393e-07
-6.46903e-07
-2.63146e-07
-6.91174e-07
-2.44683e-07
1.27632e-05
6.08977e-07
-4.30683e-08
-2.39087e-07
-2.17656e-07
-7.34605e-08
1.04598e-05
-1.30902e-05
5.24564e-06
-1.0885e-05
3.08063e-07
0.00024162
-4.55885e-05
-0.000263315
2.78899e-06
-2.09258e-06
5.22516e-06
7.26043e-07
4.29218e-06
-2.39993e-06
-6.23677e-06
3.80915e-06
1.16043e-07
-3.02267e-06
-2.91852e-07
-4.28714e-06
-7.11614e-08
-2.01304e-08
5.12601e-07
-1.72512e-08
7.07782e-08
-1.34807e-06
-9.16748e-07
1.32533e-06
3.25159e-06
1.45209e-06
-1.09024e-06
-1.07748e-06
-1.22678e-06
-9.17428e-07
1.54482e-07
9.05623e-08
3.86993e-08
-6.17973e-08
-1.9125e-08
-5.90156e-08
-2.01191e-08
-3.5816e-07
8.10611e-07
6.43131e-07
1.57274e-06
-1.10593e-07
-1.34168e-07
-1.53626e-07
-1.02e-07
-3.58753e-07
-3.80105e-07
-4.24522e-07
-2.84439e-07
2.20618e-07
-2.98474e-07
2.98878e-07
2.75072e-07
-1.07603e-06
1.02047e-06
7.70366e-07
1.1385e-06
-9.22212e-07
-8.46056e-07
1.41247e-06
-1.18252e-06
-1.37737e-06
-1.34553e-06
-1.17732e-06
3.34883e-06
-2.29056e-07
-1.57223e-07
-1.59679e-07
-2.14169e-07
1.19949e-06
-2.70191e-07
-5.91794e-08
-1.57658e-07
-1.06073e-07
6.147e-07
-7.41962e-07
-2.30011e-07
-6.27222e-07
-2.64415e-07
1.31413e-06
-3.132e-06
5.57965e-06
-9.21374e-07
-4.72673e-07
-5.92773e-07
-7.26598e-07
5.59279e-06
-1.38862e-06
-2.58929e-06
-1.17874e-06
-2.97554e-06
-2.52287e-08
3.5736e-08
4.15181e-08
1.19786e-08
-6.73334e-09
-2.00266e-09
-6.8817e-09
-1.9563e-09
2.66015e-07
4.37973e-06
-3.85836e-06
4.76156e-06
-9.56171e-07
-2.86995e-06
5.34242e-06
-1.16036e-06
-9.25112e-07
-1.44926e-06
-7.28615e-07
7.64472e-06
-1.60272e-06
-3.39546e-06
-1.73246e-06
-3.3288e-06
-1.21783e-06
2.17071e-06
3.05273e-06
-1.67111e-06
1.1758e-06
-5.21513e-09
2.77294e-08
2.65516e-08
3.63425e-09
-5.6441e-09
-8.51407e-10
-5.38227e-09
-8.89972e-10
1.12537e-05
-1.93489e-05
3.65303e-06
-9.92822e-08
-6.47266e-10
-4.93493e-08
-5.09666e-08
-4.12659e-07
-3.71511e-07
-8.952e-07
-3.56544e-07
-9.02806e-07
1.52913e-08
1.48856e-08
1.00658e-08
-1.53047e-08
-2.32388e-09
-4.25985e-10
-2.46975e-09
-4.01293e-10
1.47864e-06
4.60558e-07
-3.49493e-07
1.13286e-06
-1.61246e-06
7.06243e-06
3.59552e-06
-1.47306e-07
-1.32082e-07
-2.01709e-07
-8.77258e-08
8.86299e-07
-4.12032e-07
-1.11535e-06
-4.72278e-07
-9.91821e-07
-3.70355e-06
-4.62816e-08
8.08669e-07
-2.34021e-08
2.55602e-06
-3.97689e-08
1.1938e-08
3.76732e-09
3.0733e-08
-1.40006e-09
-2.40464e-10
-1.27352e-09
-2.62481e-10
1.4652e-07
2.51433e-08
-9.22095e-09
-1.60869e-07
-1.22053e-09
-3.83653e-10
-1.5144e-09
-3.48333e-10
1.59812e-05
-3.46252e-06
2.3703e-06
1.5728e-06
-2.30442e-05
2.63839e-05
2.8209e-06
-3.42976e-06
-3.48126e-05
2.53229e-06
-2.34507e-06
0.000137205
-2.14097e-05
-1.59398e-06
0.000224556
8.45303e-06
3.24004e-05
-3.82998e-06
0.000181887
2.94074e-05
3.66715e-06
-3.02275e-05
-1.2758e-06
1.03231e-06
2.27634e-06
1.56272e-06
-9.34123e-07
-2.24626e-06
1.09271e-07
4.04589e-08
-6.23972e-08
2.43783e-07
-1.04544e-07
5.1754e-07
1.75576e-06
-1.86162e-06
-9.89328e-07
-5.19065e-07
2.09658e-06
-7.11797e-07
4.18811e-06
-2.05659e-06
-4.13595e-06
1.23016e-06
-3.31515e-07
8.1935e-07
2.94801e-08
3.62781e-07
-8.53152e-07
-5.35642e-08
9.23441e-08
8.1096e-08
6.04781e-08
-1.17739e-07
7.63869e-05
-2.34885e-05
-0.000113979
5.92175e-07
-6.13937e-05
-5.75991e-05
-6.36133e-05
0.000183678
3.04658e-05
-4.24156e-06
3.49665e-05
0.000218937
-3.58161e-05
-5.7508e-06
9.97778e-05
-4.1531e-06
3.93426e-05
-0.000133355
1.87045e-06
0.000113913
3.03592e-05
-1.45849e-06
-3.24978e-05
-0.000154192
9.82814e-07
-5.21159e-05
-5.46505e-05
-5.76045e-05
-1.97867e-07
3.84026e-05
0.000189889
8.25312e-07
4.12389e-05
1.18404e-06
-4.26104e-05
0.000230158
3.00155e-06
8.98867e-06
7.05441e-05
-8.31139e-06
-7.79031e-05
-2.50277e-06
-3.45311e-07
5.7896e-05
7.67118e-07
9.09181e-06
-6.05094e-05
1.09144e-05
-8.73241e-07
7.31915e-05
-7.87582e-05
1.38565e-06
-1.0308e-05
0.000196611
-3.36187e-05
-0.000214823
-3.42689e-06
0.000251799
1.95719e-06
-0.000273528
4.2635e-05
-5.10998e-07
0.000202614
3.51449e-05
1.58367e-06
-3.72928e-05
-0.000215978
-2.01102e-07
1.13789e-06
1.97501e-07
2.56133e-07
-1.138e-06
-3.03918e-07
1.93735e-08
7.6591e-08
-9.4162e-08
8.62103e-09
-1.70751e-08
1.53137e-07
2.81382e-07
-2.94025e-07
2.80237e-07
-1.39064e-07
5.22483e-07
1.40638e-06
6.42502e-07
-4.14565e-07
-7.16716e-07
-1.41176e-06
-6.92908e-08
9.62624e-08
2.47145e-07
7.65382e-08
-1.03444e-07
-6.84844e-09
5.27796e-08
-7.37274e-09
7.81199e-09
-6.41492e-08
0.000112374
-3.11112e-05
-0.000148955
2.10729e-06
-5.14808e-05
-4.34121e-05
-4.82973e-05
3.57912e-05
1.01695e-06
0.000172473
3.89612e-05
-3.99679e-05
2.33953e-06
0.000213678
-5.41633e-07
1.05439e-05
5.99118e-05
-1.00435e-05
-6.30949e-05
7.59573e-07
1.45453e-07
3.74225e-05
-2.52789e-07
7.15407e-06
-3.79692e-05
8.56211e-06
1.07807e-06
4.94521e-05
-5.17204e-05
-1.02138e-06
-8.10031e-06
0.0001932
-3.59914e-05
-0.000204905
4.3979e-07
3.43679e-06
1.14038e-06
-5.09494e-07
-2.31208e-06
-3.75782e-06
2.29507e-07
-2.10481e-07
1.37426e-07
-3.24408e-07
2.96684e-07
-4.44e-07
4.04995e-07
-2.17453e-07
1.37097e-06
9.92175e-07
-8.97243e-07
-1.24692e-06
-1.13893e-06
2.44878e-08
2.47699e-07
5.51353e-08
2.03e-07
2.4164e-06
-5.46617e-07
-2.87122e-07
-1.04245e-06
1.51273e-06
2.29666e-06
4.12874e-06
-2.68897e-06
3.78768e-08
4.76552e-08
-3.69459e-08
-7.28588e-09
-2.06035e-09
-7.15074e-09
-2.08363e-09
5.00685e-06
-4.72027e-06
-1.29932e-06
4.78563e-06
2.05674e-06
-3.52435e-06
-3.84165e-06
-3.50149e-06
-5.04775e-06
-4.28933e-06
8.34987e-06
3.01786e-06
8.4946e-06
-2.50299e-06
-1.24404e-06
-1.85932e-06
-1.80223e-06
-3.29038e-06
-3.32763e-06
-2.9538e-06
-3.89195e-06
-1.31289e-06
-3.07642e-06
-1.70885e-06
-1.89742e-06
1.50948e-06
-1.41713e-08
3.10764e-06
-2.33069e-06
1.42125e-06
1.39452e-06
9.50917e-07
-3.53955e-07
-3.1775e-07
-3.46807e-07
-3.31896e-07
-2.42388e-07
-2.2955e-07
-2.50713e-07
4.63867e-07
-5.65412e-08
-4.00088e-08
-5.77309e-08
4.48007e-07
5.35299e-07
-1.99159e-07
-2.71002e-07
-3.63591e-07
-3.12818e-07
-4.20377e-06
5.09501e-06
2.73563e-06
-8.77316e-07
-5.79538e-07
-7.27099e-07
-6.90266e-07
3.56908e-06
-1.94545e-06
-1.43542e-06
-1.83368e-06
-1.54458e-06
1.0978e-06
1.0015e-06
-9.80623e-07
-1.20056e-06
1.54137e-06
3.61229e-06
-1.08854e-06
-9.72195e-07
-1.39105e-06
-8.07545e-07
5.06736e-06
-2.30668e-06
-2.72408e-06
-2.61446e-06
-2.25274e-06
-3.16595e-06
6.40147e-06
5.18398e-06
-8.1545e-07
-6.94519e-06
2.47555e-08
-4.5073e-08
2.78164e-07
1.13893e-07
1.94763e-06
-2.0725e-06
5.19283e-07
-1.22569e-06
3.64153e-06
-2.9907e-06
-4.02706e-06
-8.56838e-08
-1.60327e-06
4.98407e-06
2.07628e-06
-4.96031e-06
2.39097e-06
-7.74326e-08
5.07644e-07
7.64705e-08
-5.14607e-08
-4.70249e-06
4.87615e-06
-4.44285e-07
-3.79042e-07
-5.68284e-07
-2.9613e-07
3.64448e-06
-8.103e-07
-2.18345e-06
-9.75446e-07
-1.83395e-06
1.57686e-08
1.12835e-08
1.20765e-08
-2.70384e-09
-4.36391e-10
-2.55041e-09
-4.62172e-10
6.63375e-07
-4.94131e-07
1.20521e-06
1.3587e-06
1.64466e-06
2.49747e-06
-1.2371e-06
-1.1067e-06
4.07283e-06
-3.4524e-07
-1.76703e-07
-2.66378e-07
-2.33465e-07
2.11917e-06
-6.69498e-07
-1.30575e-06
-5.60339e-07
-1.53926e-06
2.5747e-08
2.3872e-08
-5.74767e-09
-4.89783e-09
-8.22483e-10
-5.14915e-09
-7.866e-10
-3.65893e-05
4.53765e-06
7.74776e-08
5.08898e-08
1.21127e-09
1.43371e-07
-2.53751e-06
-4.01124e-07
-9.02725e-07
-3.61836e-07
-1.03923e-06
2.14623e-08
-5.73952e-09
1.04675e-07
-1.32889e-09
-2.86889e-10
-1.0936e-09
-3.18155e-10
-1.92768e-06
1.1736e-06
9.72941e-06
1.26345e-06
-2.57394e-07
8.06416e-07
9.95004e-08
-4.63918e-06
6.54003e-06
1.88706e-07
5.4286e-07
4.43571e-07
2.62227e-07
-7.34614e-06
-4.73965e-07
-1.52272e-06
-6.27328e-07
-1.17812e-06
-1.37492e-05
-2.30792e-05
-1.08082e-05
1.21364e-08
2.96269e-09
-4.06072e-08
-1.19047e-09
-2.53178e-10
-1.32262e-09
-2.30544e-10
3.54106e-06
-4.65631e-08
-3.06493e-08
-5.66916e-08
7.14755e-07
-3.80039e-07
-5.20935e-06
-1.56295e-05
-9.27879e-06
0.000117989
1.80234e-05
-1.27989e-05
9.70866e-05
-3.49152e-05
-4.9228e-05
-3.32869e-05
-4.82587e-05
1.68181e-06
1.09945e-06
1.94752e-06
1.10663e-06
-3.82679e-06
-1.57595e-06
-2.25031e-06
2.81004e-05
-4.03998e-06
2.68646e-06
-3.4677e-05
7.99942e-06
6.63489e-05
-7.31365e-06
3.55923e-06
-7.42566e-05
4.22106e-06
3.99272e-05
-4.89554e-05
-3.65937e-06
-3.96619e-06
-2.62832e-05
0.000183751
2.59013e-05
1.41852e-05
-1.20485e-05
-7.85508e-05
-8.76331e-05
-8.20338e-05
-8.40413e-05
0.000251327
-6.8518e-06
-9.47847e-06
-8.27285e-06
-7.07086e-05
-6.28923e-05
-6.06209e-05
-7.38509e-05
0.000184305
-5.41316e-06
-5.57711e-06
-6.90199e-06
1.28765e-06
1.81409e-06
-1.23952e-06
-1.05154e-06
-1.80742e-06
7.99438e-08
-9.84813e-08
1.27086e-08
2.22159e-08
3.20078e-07
-3.33472e-07
1.69956e-07
2.77742e-07
7.30788e-07
9.58761e-08
-7.61343e-07
-3.04781e-07
1.4631e-06
8.56568e-07
6.67931e-07
-9.15237e-07
-1.46425e-06
9.33006e-08
6.75201e-08
-1.18117e-07
-4.7836e-08
-8.45339e-06
-8.89036e-05
-9.0872e-05
-9.21733e-05
-8.73962e-05
0.000287201
-1.05021e-05
-9.8113e-06
-1.13347e-05
-9.0847e-06
-1.2845e-05
-1.21284e-05
4.47695e-05
-4.85193e-05
-0.000326116
-4.72457e-06
4.47332e-05
0.000286013
-4.56973e-06
-8.87672e-05
-9.00609e-05
-9.17381e-05
-8.74639e-05
0.000296695
-1.24106e-05
-1.04545e-05
-1.19729e-05
-5.7296e-06
-1.34033e-05
-1.37541e-05
4.87623e-05
5.65534e-05
-3.11146e-08
9.43353e-06
-5.87894e-05
1.095e-05
6.33362e-05
-1.04336e-05
-2.86295e-07
-6.6897e-05
1.1199e-05
7.16556e-05
-7.66798e-05
-1.06163e-05
-4.31757e-07
-5.02439e-05
-0.000313778
0.000280664
4.64386e-05
1.12515e-06
1.64345e-06
-7.84852e-05
-7.59484e-05
-8.00981e-05
-7.46551e-05
0.000267643
-1.12079e-05
-1.22224e-05
-1.25551e-05
2.38871e-06
5.69452e-07
-1.36775e-05
-1.32903e-05
4.90136e-05
-8.20818e-05
-8.73609e-05
-8.51028e-05
-8.40031e-05
0.000287769
-1.26603e-05
-1.12976e-05
-1.27084e-05
-1.38951e-05
-1.39312e-05
5.01593e-05
1.03421e-06
9.58571e-08
-1.03525e-06
-1.61468e-07
-2.07942e-07
7.79286e-08
2.39047e-07
-8.4905e-08
-6.33295e-08
4.95607e-08
-8.53065e-09
-6.02254e-08
-6.07376e-09
3.61083e-06
-6.64992e-05
-7.16325e-05
-6.73252e-05
-7.05876e-05
0.000242072
-1.17344e-05
-1.00058e-05
-1.11133e-05
2.89684e-06
-1.20698e-05
-1.27433e-05
4.55967e-05
-4.00385e-05
-0.000233819
4.11371e-06
3.80859e-05
0.000216378
4.83668e-06
-6.23607e-05
-5.87989e-05
-6.30121e-05
-5.83231e-05
0.000214675
-9.48549e-06
-9.3402e-06
-1.03578e-05
4.52218e-06
-1.12598e-05
-1.03566e-05
4.03359e-05
3.44537e-05
3.94866e-08
6.32673e-06
-3.48985e-05
7.69683e-06
4.59771e-05
-4.80243e-05
-7.2429e-06
1.11533e-06
-3.31101e-05
-0.000204634
0.000190697
3.21886e-05
-5.04784e-05
-5.46831e-05
-5.43284e-05
-5.07018e-05
0.000187304
-8.52369e-06
-6.78021e-06
-7.50668e-06
-8.32112e-06
-9.35039e-06
3.38213e-05
-3.41643e-07
-1.74773e-07
2.70888e-07
7.51334e-07
4.96096e-07
-2.54322e-07
-3.43865e-07
-3.54193e-07
-2.56597e-07
3.07156e-09
-3.67483e-10
5.99919e-09
1.18888e-09
-1.30739e-09
-1.17284e-08
2.20753e-09
6.61267e-08
-7.54378e-08
7.43318e-08
-8.31059e-08
1.73105e-08
6.07504e-08
-4.48355e-07
9.06552e-08
2.41712e-07
3.98251e-07
-2.19234e-07
-4.67254e-08
2.24007e-07
6.83417e-07
-5.9183e-08
-4.86559e-08
-4.56692e-08
-6.60481e-08
-2.15862e-07
-2.72053e-07
-3.21926e-07
-1.69006e-07
2.46919e-07
-7.2568e-08
-1.86599e-08
-4.49514e-08
-3.4974e-08
2.14399e-07
-1.42296e-07
-4.90914e-08
-1.49535e-07
-4.73431e-08
1.76328e-07
-1.86645e-08
3.71439e-07
1.10037e-08
-1.90436e-07
-3.36003e-07
-5.44702e-08
9.13326e-07
-8.55931e-07
3.46473e-07
4.31697e-09
-6.05161e-08
2.16593e-07
5.23667e-07
1.7483e-08
-4.69894e-07
-2.47644e-07
-4.21293e-08
5.83997e-07
2.35536e-07
-5.52103e-07
3.51024e-08
-6.58298e-06
4.86057e-07
-1.69147e-05
1.5636e-05
3.23463e-07
6.37159e-06
-5.40961e-05
1.13548e-05
3.92742e-05
-1.00079e-05
1.01379e-07
-2.35701e-06
9.90318e-06
-1.35521e-05
9.34995e-06
1.08961e-06
-1.01683e-06
-9.38528e-06
-2.47188e-05
-6.14132e-05
1.18959e-06
-9.33515e-07
4.06728e-05
1.48121e-05
-7.57736e-05
1.55023e-05
3.94228e-07
-2.82896e-07
5.48264e-05
-1.52475e-05
4.02527e-08
-6.8445e-08
4.33411e-08
5.32297e-08
-3.6907e-08
-4.39943e-08
2.96948e-08
8.15652e-08
-8.16888e-08
4.94868e-08
-2.84497e-08
4.4527e-08
5.05096e-08
6.7898e-08
-4.53628e-08
-6.59367e-08
-4.86993e-08
-4.03899e-08
4.99352e-08
3.56845e-08
-5.15999e-08
3.2887e-08
-1.14913e-05
-7.16136e-05
-1.26514e-07
7.15581e-05
-2.39227e-06
1.3151e-05
2.01417e-05
-1.85059e-05
-1.21565e-06
0.00011465
1.44874e-07
-9.03261e-05
1.67215e-05
1.79455e-05
-2.60998e-07
2.9868e-07
-1.76357e-05
-0.000100703
-6.14931e-06
6.09285e-06
0.000177058
2.80107e-05
2.66456e-05
-3.03604e-06
2.88683e-06
-2.71079e-05
0.000156932
1.18621e-07
-2.40086e-06
-6.82253e-07
1.49145e-06
-9.52094e-08
3.54839e-07
3.65022e-07
-1.29862e-07
4.88499e-08
3.26909e-08
-4.44299e-07
6.08758e-07
5.68562e-08
-1.6727e-07
-7.43396e-07
6.41999e-08
-4.44027e-08
-1.65047e-06
-6.12415e-07
6.99416e-08
2.86606e-07
9.58926e-07
-1.23027e-06
-2.37969e-06
9.00289e-08
1.36242e-06
9.00472e-06
6.65749e-07
8.21689e-06
-1.81096e-05
1.06534e-05
-8.41409e-06
8.74021e-07
3.14359e-07
-5.55502e-07
1.42154e-06
6.40397e-08
1.32992e-06
-5.95756e-08
-1.35583e-06
-3.85612e-06
4.31543e-07
-1.52597e-05
-3.70323e-07
6.99521e-06
1.05681e-05
7.72514e-07
9.40707e-06
-2.45417e-05
-7.80016e-07
1.52212e-05
-9.71238e-06
-1.6076e-05
-1.54233e-05
2.12676e-06
4.42956e-05
3.62347e-05
8.24651e-06
2.00985e-05
4.94645e-05
-2.25584e-05
2.13201e-06
-5.07451e-06
2.4734e-05
-2.11945e-05
1.31957e-06
1.54858e-05
-1.46252e-06
-1.71503e-05
-2.51255e-05
5.40764e-06
-6.67463e-06
4.01677e-05
6.64815e-05
2.40761e-06
2.71386e-05
-2.37713e-06
-2.99198e-05
7.55092e-05
-1.29591e-06
-4.12513e-06
6.95363e-08
8.02708e-06
4.59031e-07
1.00263e-05
9.19086e-06
-2.54052e-05
1.59356e-05
-9.4058e-06
7.49072e-07
-1.56042e-05
1.14879e-06
-2.6098e-05
3.60478e-05
4.08858e-06
6.51111e-05
2.62065e-05
-2.83824e-05
2.31653e-06
7.57545e-05
-1.58401e-07
1.40168e-07
6.12374e-07
2.53523e-07
-6.72857e-07
-7.19428e-08
1.07926e-07
-1.27628e-07
-7.11793e-09
-8.65614e-08
1.31109e-07
3.17504e-07
-4.65628e-07
-3.67842e-08
-8.26637e-08
-6.42677e-08
-6.85928e-08
-8.30154e-08
-3.59855e-08
1.96988e-07
-1.98584e-08
-2.60857e-07
6.7754e-08
-7.31437e-07
2.31703e-07
8.54695e-07
4.22314e-07
-3.15282e-07
-7.76416e-07
1.03898e-06
-9.73315e-07
3.99848e-07
-1.28781e-07
2.272e-07
5.8665e-07
-1.15594e-07
-5.23236e-07
-2.6814e-07
-8.11066e-07
1.45311e-06
6.66873e-07
-1.35992e-06
4.7086e-07
-1.48683e-06
-3.20563e-06
3.16483e-06
3.44493e-06
3.20523e-06
1.54993e-05
-1.27562e-06
-6.66613e-07
-1.0086e-06
-4.13035e-06
-2.63502e-06
-3.97386e-06
-2.74956e-06
6.06968e-06
9.4171e-07
-7.15175e-07
-3.08673e-07
-7.711e-07
1.80846e-07
4.80784e-07
6.3295e-07
2.3498e-07
-5.74331e-07
-2.29572e-08
-8.23929e-09
2.51239e-08
1.81295e-06
5.78989e-07
-1.08219e-07
1.77658e-07
1.21468e-06
-2.08862e-06
7.73562e-06
1.82142e-06
7.72601e-06
2.45051e-06
-1.16024e-06
-9.20092e-07
-1.04926e-06
-5.27644e-06
2.462e-06
1.47195e-06
2.38491e-06
1.46378e-05
-3.03478e-06
-3.5411e-06
-2.55982e-06
-2.25937e-06
2.66401e-07
7.3431e-08
2.55252e-07
2.62779e-06
-4.18941e-07
-3.14854e-07
1.58189e-05
-1.15644e-06
-8.66129e-06
-6.36173e-06
-8.11952e-06
-4.27397e-06
-1.46337e-06
-1.78558e-06
-2.16108e-06
4.91147e-06
1.07078e-06
4.53635e-06
9.40336e-07
1.39342e-05
-3.38667e-06
-5.00492e-06
-3.4677e-06
-3.43204e-06
-4.70195e-06
-5.14418e-06
-5.12033e-06
-4.44549e-06
-1.33916e-06
-2.15161e-06
-1.89026e-06
-2.08601e-06
1.00881e-06
-2.87489e-06
5.90083e-06
-5.41742e-06
-1.40516e-05
2.49512e-06
9.32024e-06
8.51647e-07
-3.41497e-06
-3.38986e-06
-3.20983e-06
-5.98841e-06
8.73458e-06
5.63551e-07
5.71195e-06
2.71346e-06
-4.30651e-06
-5.73004e-06
-6.04571e-06
-7.09217e-06
-1.68841e-06
2.33548e-06
3.48086e-06
3.95131e-07
-1.9165e-07
-4.94703e-06