/*--------------------------------*- C++ -*----------------------------------*\
| =========                 |                                                 |
| \\      /  F ield         | OpenFOAM: The Open Source CFD Toolbox           |
|  \\    /   O peration     | Version:  2012                                  |
|   \\  /    A nd           | Website:  www.openfoam.com                      |
|    \\/     M anipulation  |                                                 |
\*---------------------------------------------------------------------------*/
FoamFile
{
    version     2.0;
    format      ascii;
    class       surfaceScalarField;
    location    "0.108/fluid";
    object      phi;
}
// * * * * * * * * * * * * * * * * * * * * * * * * * * * * * * * * * * * * * //

dimensions      [0 3 -1 0 0 0 0];
oriented        oriented;


internalField   nonuniform List<scalar> 
47532
(
-0.0547703
0.00171928
0.00478098
0.0482724
-0.0309384
0.00161717
0.0026916
0.0266367
-0.0173668
0.0151883
0.000901617
0.00128606
-0.0104365
0.00929197
0.000498252
0.000655394
-0.00673363
0.00610137
0.000284447
0.000355937
-0.00465884
0.00429509
0.000167588
0.000202876
-0.00345229
0.00323661
0.000101324
0.000119731
-0.00273139
0.00260079
6.25177e-05
7.23698e-05
-0.00229279
0.00221274
3.91534e-05
4.43604e-05
-0.00202363
0.00197453
2.45451e-05
2.72387e-05
-0.00185932
0.00182984
1.50157e-05
1.64023e-05
-0.00176246
0.00174604
8.49594e-06
9.17586e-06
-0.00171177
0.00170487
3.62972e-06
3.90645e-06
-0.0159336
-0.138223
0.10791
0.0380135
0.00823643
-0.0579252
-0.0125678
0.00594519
0.0167714
0.047787
-0.00664453
-0.0284014
0.00258748
0.0242787
0.00819208
-0.0034922
-0.0157769
0.0138229
0.00425171
0.00120591
-0.00191356
-0.00957951
0.00855722
0.00232858
0.00061698
-0.00109253
-0.00626472
0.00569568
0.00133167
0.000337877
-0.000645025
-0.00439189
0.00406167
0.000787609
0.000194145
-0.000390855
-0.00329379
0.0030966
0.000477959
0.00011538
-0.000241528
-0.00263348
0.00251351
0.000295632
7.01532e-05
-0.000151186
-0.00223013
0.00215641
0.000185041
4.32165e-05
-9.46594e-05
-0.00198224
0.00193708
0.000115737
2.66498e-05
-5.78551e-05
-0.00183134
0.00180437
7.06888e-05
1.61011e-05
-3.27497e-05
-0.0017431
0.00172832
4.00283e-05
9.02845e-06
-1.40464e-05
-0.00169818
0.00169242
1.71827e-05
3.84816e-06
-0.0730303
-0.059704
0.0590331
0.013054
0.0606592
-0.0360891
-0.0242245
0.0248046
0.00479108
0.0307423
-0.0114354
-0.0197276
0.0172128
0.0119355
0.00203557
-0.00594796
-0.0117846
0.0104831
0.0062795
0.000985218
-0.00329388
-0.00756887
0.00684559
0.00350522
0.000522433
-0.00190483
-0.00518667
0.00476578
0.00203887
0.000294647
-0.00113677
-0.00378509
0.00353264
0.00122188
0.000173367
-0.000694473
-0.00293835
0.00278395
0.000748664
0.000105016
-0.000431196
-0.0024182
0.0023227
0.000465606
6.48389e-05
-0.000270009
-0.00209589
0.00203662
0.000291645
4.04442e-05
-0.000168486
-0.0018962
0.00185973
0.000181986
2.51964e-05
-0.000102771
-0.00177435
0.00175263
0.000110981
1.53404e-05
-5.84111e-05
-0.00170359
0.00169193
6.311e-05
8.65149e-06
-2.5174e-05
-0.00166898
0.00166501
2.7154e-05
3.69922e-06
-0.0190578
-0.0455337
0.00581209
0.0173012
-0.0137333
-0.0224398
0.00262041
0.0127236
-0.0118065
-0.00995174
0.00913457
0.00130919
-0.0065514
-0.00706286
0.00649416
0.000704757
-0.00378383
-0.005102
0.0047284
0.000401571
-0.00225177
-0.00382357
0.00358241
0.000238562
-0.00137061
-0.00300011
0.00284523
0.000145987
-0.000848744
-0.00247166
0.00237239
9.11713e-05
-0.000531392
-0.0021334
0.00207004
5.76647e-05
-0.000333605
-0.001918
0.00187789
3.66723e-05
-0.000207993
-0.00178245
0.0017576
2.31955e-05
-0.000126525
-0.00169936
0.00168462
1.42876e-05
-7.15137e-05
-0.00165185
0.00164429
8.12566e-06
-3.04461e-05
-0.00163048
0.00162861
3.4872e-06
-0.0579615
-0.0850532
0.0743299
0.00023625
0.0684453
-0.0455861
-0.0224237
0.00269497
0.0263438
0.0389761
-0.00994498
-0.0250863
0.00152296
0.0218429
0.0116741
-0.00475812
-0.0147531
0.0130419
0.000824821
0.00565433
-0.002457
-0.00921654
0.0082723
0.000460859
0.00294985
-0.00134856
-0.00612256
0.00558204
0.000266725
0.00163063
-0.000774411
-0.00433315
0.00401451
0.000158998
0.000940869
-0.000459355
-0.00326986
0.00307777
9.70535e-05
0.000559856
-0.000278604
-0.00262513
0.00250749
6.03504e-05
0.00034026
-0.000171149
-0.00222893
0.00215625
3.79644e-05
0.000209314
-0.000105252
-0.00198408
0.00193927
2.38604e-05
0.000128838
-6.34379e-05
-0.0018339
0.00180688
1.46663e-05
7.76937e-05
-3.55066e-05
-0.00174509
0.00173001
8.30965e-06
4.35001e-05
-1.51235e-05
-0.00169854
0.00169219
3.54065e-06
1.85321e-05
-0.212337
-0.0574498
0.0926556
0.0809076
0.205562
-0.0663504
-0.0294293
-0.0771482
0.0659294
0.0358155
0.0712014
-0.0220196
-0.0119242
-0.0401357
0.0146895
0.0250325
0.0343738
-0.00930893
-0.00595673
-0.0222949
0.0194768
0.00724506
0.0108535
-0.00444161
-0.00316853
-0.0133028
0.0118061
0.00384748
0.00527186
-0.00231151
-0.00176729
-0.00844181
0.00760614
0.0021497
0.00277507
-0.00128031
-0.00102443
-0.00569252
0.00520845
0.00124877
0.00154837
-0.000741263
-0.000612162
-0.0040844
0.00379619
0.000747599
0.000900762
-0.000442778
-0.000374558
-0.00312006
0.00294504
0.000458097
0.000539724
-0.00027013
-0.000233276
-0.00253151
0.00242382
0.000285572
0.000329936
-0.000166776
-0.000146843
-0.00216842
0.00210176
0.000179831
0.000203968
-0.000102993
-9.2251e-05
-0.00194385
0.00190281
0.000112926
0.000126078
-6.22863e-05
-5.65355e-05
-0.00180655
0.00178196
6.91619e-05
7.62857e-05
-3.49538e-05
-3.20441e-05
-0.00172611
0.00171264
3.91993e-05
4.28233e-05
-1.49144e-05
-1.37211e-05
-0.00168522
0.00168
1.67539e-05
1.82753e-05
-0.137685
-0.0918736
-0.00423801
0.0790722
0.113837
-0.0297041
-0.0422122
-0.0417057
0.0404383
0.0440015
0.0292374
-0.0161588
-0.0195275
-0.0234035
0.0198864
0.0211066
0.0181343
-0.0072473
-0.00991211
-0.015191
0.0136062
0.0103313
0.00843746
-0.00362444
-0.00536033
-0.00986883
0.00890609
0.00565883
0.00430501
-0.00195872
-0.0030406
-0.00665384
0.00607376
0.00323658
0.00235374
-0.00111764
-0.00178743
-0.0047104
0.004357
0.0019139
0.00135267
-0.000662504
-0.00107964
-0.00352144
0.0033035
0.00116074
0.000805488
-0.000403275
-0.000665886
-0.00278565
0.00264997
0.000717933
0.000491757
-0.000249782
-0.000416732
-0.00232666
0.00224178
0.000450034
0.000305173
-0.000156131
-0.000262764
-0.00203948
0.00198642
0.000283867
0.000190994
-9.74084e-05
-0.000164762
-0.00186056
0.00182782
0.000177956
0.000119245
-5.9375e-05
-0.00010057
-0.00175112
0.0017316
0.000108595
7.27234e-05
-3.35186e-05
-5.71186e-05
-0.00168757
0.00167711
6.16848e-05
4.10645e-05
-1.43557e-05
-2.44345e-05
-0.00165668
0.00165319
2.63431e-05
1.75899e-05
-0.0103203
-0.00878337
-0.00461867
0.00652518
0.00994831
-0.0067904
-0.0181957
-0.0320926
0.0299428
0.0196222
0.00756833
-0.00859352
-0.00895329
-0.0182257
0.0102034
0.00848547
-0.00470399
-0.0102691
-0.00754416
0.00712802
0.00551495
-0.00260633
-0.00591898
-0.00587083
0.00548335
0.00310766
-0.00151066
-0.00349915
-0.00447102
0.00418522
0.00181952
-0.000906931
-0.00211606
-0.00347035
0.00327464
0.00109922
-0.000558688
-0.00130302
-0.00279356
0.0026636
0.000679871
-0.000350444
-0.000814224
-0.00234679
0.00226188
0.000427587
-0.000222296
-0.000513411
-0.00205607
0.00200121
0.000271691
-0.000141629
-0.000324429
-0.00186905
0.00183409
0.000173291
-8.97081e-05
-0.000203397
-0.00175075
0.00172901
0.000109837
-5.53311e-05
-0.000124126
-0.00167819
0.00166536
6.77793e-05
-3.15074e-05
-7.00415e-05
-0.00163698
0.00163049
3.86049e-05
-1.35627e-05
-2.97395e-05
-0.0016189
0.00161748
1.66214e-05
-0.0110819
-0.0605776
0.00583522
0.0521689
0.013657
-0.0160656
-0.02836
0.00210996
0.0266612
0.0156619
-0.0139432
-0.013099
0.0121166
0.00111322
0.0138228
-0.00724705
-0.00938242
0.00859059
0.00063587
0.00741386
-0.00396294
-0.00661075
0.00607364
0.000374503
0.00413547
-0.00225931
-0.00477124
0.00442506
0.000225899
0.00238811
-0.00133023
-0.00359355
0.00337387
0.000139086
0.00141786
-0.000802133
-0.00284742
0.00270849
8.71225e-05
0.00085965
-0.000491744
-0.00237558
0.0022877
5.52579e-05
0.000528919
-0.000304204
-0.00207729
0.00202181
3.52976e-05
0.000327965
-0.000187942
-0.00188934
0.00185461
2.2437e-05
0.000202927
-0.0001136
-0.00177252
0.00175136
1.38404e-05
0.000122773
-6.36948e-05
-0.00170282
0.00169094
7.85211e-06
6.88794e-05
-2.71551e-05
-0.00166612
0.00166112
3.36234e-06
2.93759e-05
-0.00242842
-0.0803136
-0.0603078
0.0532421
0.00422536
-0.0139354
0.00357726
-0.0535731
0.0449798
0.00412136
0.0148514
-0.0256856
-0.00751309
-0.012159
0.0240087
0.0125256
0.00884327
-0.012819
-0.00420635
-0.01126
0.0105437
0.00506378
0.0126948
-0.00674688
-0.00242558
-0.00837219
0.0077142
0.00293996
0.00690425
-0.00373084
-0.00143448
-0.00603187
0.00556772
0.00174503
0.00389539
-0.00214744
-0.000867929
-0.00442986
0.00412452
0.00105849
0.00227097
-0.00127458
-0.000535718
-0.00338613
0.00318986
0.000654486
0.00135905
-0.000773767
-0.000336144
-0.00271752
0.00259239
0.000411164
0.000829488
-0.000477056
-0.000213489
-0.00229178
0.00221229
0.000261354
0.000513204
-0.00029655
-0.000136514
-0.00202173
0.0019715
0.000167171
0.000319743
-0.000183958
-8.68826e-05
-0.00185165
0.00182031
0.000106396
0.000198644
-0.000111557
-5.37017e-05
-0.00174649
0.00172759
6.57317e-05
0.000120581
-6.27074e-05
-3.05423e-05
-0.00168463
0.00167429
3.73622e-05
6.78165e-05
-2.67812e-05
-1.30953e-05
-0.00165336
0.00164946
1.6015e-05
2.89722e-05
-0.0481613
-0.00993762
-0.0321923
0.0105885
0.0353083
0.00539751
-0.0346133
-0.0163433
0.0162576
0.0298853
-0.000529249
-0.0186655
-0.0112372
-0.00628277
0.00704241
0.0115273
0.017652
-0.0100236
-0.00684974
-0.00738365
0.00714767
0.00715548
0.00997689
-0.00554372
-0.00409556
-0.00611727
0.00574869
0.00433124
0.00569217
-0.00317983
-0.00247409
-0.00472528
0.00442503
0.0026375
0.00332768
-0.00188258
-0.00151867
-0.00365956
0.00344724
0.00162778
0.00199392
-0.00114252
-0.000946775
-0.00292178
0.00277921
0.0010186
0.00121948
-0.000706104
-0.000598234
-0.00243101
0.00233755
0.000645269
0.00075749
-0.000441713
-0.000381676
-0.00211104
0.00205067
0.000412323
0.000475398
-0.000277881
-0.000244498
-0.00190522
0.00186676
0.000264278
0.000299696
-0.00017407
-0.000155448
-0.00177488
0.00175087
0.000168008
0.000188004
-0.000106383
-9.58308e-05
-0.00169454
0.00168022
0.000103572
0.000115001
-6.0144e-05
-5.44166e-05
-0.00164811
0.00164057
5.88254e-05
6.50535e-05
-2.57793e-05
-2.33344e-05
-0.00162619
0.00162392
2.51747e-05
2.78889e-05
-0.00633976
-0.00189919
-0.0055518
0.00143247
0.00565908
0.00512396
-0.0178393
-0.0148204
0.0144602
0.0162149
-0.00311108
-0.0012257
-0.0112376
-0.0111178
0.0106373
0.0108965
0.00206472
-0.00676417
-0.0072556
-0.00333914
0.00348815
0.00705828
0.00682433
-0.00407099
-0.0045778
-0.00351583
0.00344353
0.00421029
-0.00248324
-0.00286947
-0.00313244
0.00301765
0.00260979
-0.00153942
-0.00180638
-0.00268673
0.00258603
0.00163476
-0.000968144
-0.00114596
-0.00232167
0.00224631
0.0010351
-0.000615528
-0.000732689
-0.00205583
0.00200321
0.00066098
-0.000393891
-0.000470753
-0.001873
0.00183771
0.000424215
-0.000252383
-0.000302343
-0.00175179
0.00172887
0.000272332
-0.00016045
-0.000192331
-0.00167398
0.00165965
0.000173346
-9.92064e-05
-0.000118602
-0.00162639
0.00161811
0.000107262
-5.65657e-05
-6.72814e-05
-0.00160019
0.00159629
6.11918e-05
-2.43694e-05
-2.87195e-05
-0.00159014
0.00158983
2.63705e-05
0.0540507
0.0131057
-0.0080993
-0.0588852
-0.000171964
0.103818
0.0779702
-0.0645317
-0.011424
-0.0212537
-0.0293108
-0.0239019
-0.0313766
0.0705878
0.130196
-0.06536
0.305433
-0.0114594
-0.0184651
-0.0115567
-0.020944
0.124867
0.0419949
0.0981455
-0.0761516
-0.0234726
-0.165371
-0.0602645
0.000997948
0.00449728
0.0087696
0.111683
0.00336686
-0.0490805
-0.0179033
-0.0187188
0.0143038
0.059886
-0.00787023
-0.0727683
0.00645463
-0.0391671
0.088308
-0.00328825
0.0277813
0.0517089
-0.0205167
-0.061492
0.00252134
0.0301406
0.0682321
-0.0521002
-0.0176022
0.0962061
0.0150595
0.028679
0.0502142
-0.0224603
-0.0104086
-0.061074
0.0473323
0.00408633
-0.0102723
0.00471588
0.0047832
-0.0575332
-0.027865
-0.0346864
-0.0556759
0.0768005
0.0926044
-0.0706835
0.0177362
-0.02958
-0.0283048
-0.0285643
-0.0300063
-0.16591
0.247761
0.113184
0.111077
0.0942695
-0.0751577
-0.142718
0.0545399
0.147184
0.179596
-0.184625
-0.159104
0.0658292
0.0633817
0.0587847
0.0672096
-0.0585043
-0.0640473
-0.0667945
0.0757689
0.0177097
-0.0214572
-0.0234844
-0.0235536
-0.0212083
0.0533393
0.0275224
-0.0613158
0.00953882
-0.00706883
-0.00675241
-0.00748984
-0.0077397
-0.146407
0.029327
0.122747
0.0563426
0.0440739
-0.0497425
-0.0472213
0.0599716
0.0112446
0.048167
-0.0450736
-0.0700586
-0.00642397
0.0119228
0.0112038
0.0117956
0.0416242
0.0283791
0.015682
-0.0246137
-0.0475773
-0.0134043
0.00714126
-0.00530287
-0.00562688
-0.00547088
-0.00550903
-0.00969599
-0.00409285
0.0078394
0.0218889
0.0108748
-0.0187314
-0.0112401
-0.00476513
0.0875403
-0.0218397
-0.0234256
-0.0226493
-0.0219512
0.136318
0.164556
-0.0176038
-0.018757
-0.019537
-0.0178175
0.0894398
0.0397952
-0.0290037
-0.106651
0.104578
0.0717843
0.0243232
-0.0821409
0.00784085
-0.00594888
-0.00505755
-0.00465349
-0.00614814
0.0851013
0.00666207
-0.12397
-0.0725639
-0.00187922
-0.000439248
-0.00146912
-0.0016888
0.0695903
0.00946363
0.0211618
-0.0849239
-0.0206934
0.00541418
-0.0354521
-0.00617881
0.0336532
0.0231485
-0.00263049
-0.00685874
-0.00567081
0.00183413
0.0197005
-0.0188159
-0.00311918
-0.0215985
0.00511834
0.0187566
0.00814912
0.0600606
-0.00117787
-0.00249515
-0.00205376
-0.0017803
-0.0701077
0.0561248
-0.000893928
-0.000389305
-0.000930195
0.000184889
-0.00207811
0.0159575
-0.0163229
0.0166002
0.0554458
-0.0147922
0.00715412
0.0149593
0.0175374
0.0380493
0.000430648
-0.0170094
-0.0421086
0.0132669
0.00737197
0.00295413
-0.0179735
0.00793938
0.0184747
-0.00301391
0.0149168
0.0149776
-0.00182039
-0.0176051
-0.0104696
0.00330581
0.00370294
-0.00676062
0.0806087
0.0117364
-0.0218639
-0.0239571
-0.0231055
-0.0236659
0.031238
-0.00178881
-0.00156398
-0.000881948
-0.0130963
-0.00682109
-0.00708602
-0.00966225
-0.00771463
-0.00877942
0.0259843
0.000845475
0.00200048
0.000753444
0.00216283
-0.00902463
0.0016644
0.00176845
-0.051937
0.00618508
-7.65196e-05
0.000416055
0.045412
-0.0285319
-0.00434107
-0.000333448
0.026033
0.00429046
0.00288291
-0.00983816
-0.00537105
-0.0277331
-0.00508365
-0.0242062
0.0662363
0.00187968
0.00175543
0.00140309
0.00426294
0.075442
0.00430168
0.00128177
0.00288986
0.00441592
0.00913332
-0.0103164
-0.0383815
-0.0097376
-0.0353265
-0.0930699
0.13108
0.265322
0.00293977
0.00172695
0.00373312
0.000820359
0.0782411
-0.0936888
-0.0994872
-0.102298
-0.0953176
-0.0141559
0.0222218
-0.00371331
0.012526
-0.0025697
-0.00608773
-0.00246444
-0.00575681
0.0170794
0.00429709
0.00136901
0.113407
-0.00373277
-0.0353887
0.300072
-0.00205836
0.00346704
-0.00302532
0.00148643
0.0508558
-0.106267
-0.100689
-0.0820671
-0.119447
0.0301122
0.0259093
0.119558
-0.0102203
-0.0196792
0.00201611
0.0107146
-0.00141817
-0.00297588
-0.00150872
-0.00254196
-0.001542
-0.00274398
-0.140653
0.115638
0.0686678
-0.00484093
-0.00462734
-0.00476367
-0.00507517
0.0587629
-0.0257216
-0.0163976
-0.0192739
-0.0217051
-0.000823423
0.00709228
-0.000358904
0.00132301
-0.0016334
-0.00196656
-0.00166972
-0.00196332
-0.0562049
0.0319142
-0.0213943
0.0509877
0.0561329
-0.153935
0.113252
-0.00614559
-0.00533464
-0.00582411
-0.00540488
0.0807093
-0.0379085
-0.0398901
-0.0477811
-0.0323853
0.0399886
0.0212268
0.0171055
-0.01472
-0.0472441
0.00294451
0.00386556
7.83062e-05
-0.00294994
-0.000848037
-0.00114121
-0.000822393
-0.0011268
-0.00281565
0.00148137
8.48092e-05
0.00274997
-0.000292366
-0.000448282
-0.000277738
-0.000482109
-0.0170005
0.00635076
-0.00437828
-0.00170465
0.0118655
-0.0152024
0.00479162
0.0052443
0.0118872
-0.00372096
-0.00298636
-0.0266098
-0.0147928
0.00316379
-0.0368122
-0.0153416
0.0108767
0.0106239
-0.0231071
0.0104093
-0.0086536
-0.0107173
0.0296948
0.0252742
0.00186837
-0.030832
-0.0334094
0.00740336
0.00242804
0.00369285
-0.00197054
-0.00174755
-0.00240314
0.00224197
0.0067839
-0.00448482
0.0471252
0.0003858
-0.015862
0.055388
-0.00188242
0.0251841
0.0173913
-0.0802199
0.00827841
0.00178459
0.0163803
-0.00805114
-0.000508277
0.000994322
0.0021819
-0.00124982
-0.00053564
-0.00139085
-0.0519418
-0.0269043
0.0490607
0.0564821
0.00884888
0.00819441
0.00831353
-0.0495918
-0.0127955
0.0454279
0.0100969
-0.0398122
-0.00678428
0.0295089
-0.0180385
-0.0654794
-0.0328879
0.0180977
0.0395847
-0.0228785
-0.000489451
-0.0463546
0.00791538
0.022286
0.0277605
0.002873
0.00282874
0.00308272
-0.0337588
-0.0202997
-0.0148449
0.0238918
-0.00287172
-0.0266244
0.00677915
-0.0199402
-0.00850918
0.00109124
-0.00915774
0.00030441
0.00773784
0.00854274
0.00891033
-0.00574418
-0.00925253
-0.00557374
0.00403602
-0.000534229
0.00807454
-0.00666798
0.0054178
-0.00830699
0.00202355
-0.0210957
-0.008513
0.0196876
0.0119805
-0.0183837
-0.0191337
0.0177449
-0.00115162
0.0127042
-0.0142911
0.00284378
-0.0129315
-0.00186186
0.0135586
0.0121649
-0.00635391
0.00487888
-0.0141935
0.0083753
-0.00487166
-0.00317871
0.000485392
-0.000406504
-0.000177319
0.00327715
-0.00471184
0.000371615
-0.000206357
6.81988e-05
0.0042375
-0.0206695
-0.00276496
0.00507447
0.0185614
-0.0032502
0.00304875
0.00193851
0.000130153
-0.00299494
-0.00216871
-0.000187172
0.00286265
-0.000172939
0.000210667
-0.00299692
9.65709e-05
-0.0168288
0.0122027
0.0166101
0.0330558
0.00209134
0.00173214
0.00190363
-0.020125
0.0224616
-0.00957816
-0.00533752
0.00893324
0.0209337
-0.0153881
-0.00626044
-0.00259916
-0.00290165
0.00343725
0.00259787
0.00572985
0.00417714
-0.00111443
-0.00460092
-0.00506729
0.00074195
-0.00286073
0.00443887
-0.00195288
0.00163853
-0.00482122
0.0035601
-0.0122063
-0.000102042
0.0116516
0.0121546
-0.00780976
0.00455433
0.0356115
0.000136461
0.00555656
-0.0035704
0.00324296
-0.00088633
-0.00844877
0.0149189
-0.00582523
9.28617e-05
-0.061124
-0.00655784
0.000443424
-0.031172
0.00312414
0.00563015
0.0349464
-0.00754118
-0.0170808
-0.00823504
-0.0103068
-0.0420121
0.0651432
0.059331
0.00338666
-0.0559016
-0.00280811
-0.00357577
0.0294497
-0.00432758
-0.0153034
-0.00391478
-0.00781449
-0.00378257
-0.00846288
-0.00185161
-0.00757817
0.0206723
0.147574
-0.0529015
-0.00055044
-0.00421934
-0.00242584
0.0467404
0.0473276
-0.0107362
0.393649
0.020486
-0.0149603
0.000854113
-0.0102942
0.00291327
0.00210339
0.00176806
-0.00160666
0.00313935
-0.0637902
-0.150973
-0.115061
-0.103594
0.0062053
0.0584158
-0.00772257
-0.00537713
0.0361466
-0.00741385
-0.00806083
-0.00414295
-0.0094406
-0.00422183
-0.0112101
0.0023101
0.00256743
-0.000106565
0.00593296
-0.00260128
-0.0301265
-0.000616878
0.0662965
-0.00872134
-0.00597597
0.00434544
0.00470048
-0.00378378
-0.271067
0.176514
0.0346136
0.00540222
0.00238832
0.0032612
0.00340009
0.0373221
0.000473604
0.00205603
0.00268319
0.00295665
0.0413971
0.00256089
-0.0449802
-0.00134291
-0.00419283
0.0485544
0.00368787
0.00276784
0.0105956
-0.000836825
0.0468222
0.00171603
0.00508335
0.0020588
0.00213868
0.0514988
-0.00755741
-0.0600866
-0.0152055
0.0143415
0.0041014
-0.00213488
-0.00153306
0.00199419
0.00792811
-0.00563346
0.0044007
0.0474156
0.00302071
0.0135114
-0.00308244
-0.0172707
0.0645268
-0.00384638
-0.0051189
0.0194939
-0.0909186
0.0105495
-0.000480136
-0.00704967
0.0119572
0.148597
0.216036
-0.00296947
0.000839717
-2.59248e-05
-0.00170206
0.0967248
-0.083025
-0.0792085
-0.089453
-0.0747326
0.00775913
-0.000335054
-0.000655058
-0.0017879
-0.00203219
-0.00174517
-0.00202721
0.0363446
-0.0225458
-0.0533298
0.068019
0.0278264
0.100583
-0.0107091
0.0394516
0.164594
-0.00517979
-0.00500953
-0.00617226
-0.00346954
0.0974936
-0.0715022
-0.0535999
-0.0616557
-0.060834
0.00974053
-0.00129588
0.00133705
-0.00156173
-0.00240483
-0.00150403
-0.00229506
0.0879738
0.0383654
-0.00391233
-0.00379325
-0.00374708
-0.00363576
0.0402772
-0.00804683
-0.00971634
-0.0113816
-0.00671824
0.00162586
0.000122805
-0.00294211
-0.000308313
-0.000513127
-0.000314145
-0.000486577
0.00808705
-0.00553468
-0.0225755
-0.00047462
0.0144721
0.00997974
-0.0106298
0.0343317
0.022093
-0.00286737
-0.00279051
-0.00298838
-0.00286679
0.027627
-0.00383848
-0.00198618
-0.00257441
-0.00317125
0.0155085
0.0151295
0.0155578
0.00330668
6.2097e-05
0.00310809
-0.000729109
-0.00101798
-0.000739646
-0.00104564
-0.0139956
-0.00140984
-0.00146888
-0.00139648
0.00596674
0.0010181
0.0127695
-0.0194068
0.0136359
-0.0516136
0.0174478
0.0168381
-0.0578062
0.0129466
0.012175
0.012315
0.0127947
-0.00205798
-0.00213146
-0.00206701
-0.00213755
-0.00507255
-0.00497254
-0.00533331
-0.015414
0.00778738
-0.00232907
0.0109239
0.00227839
-0.0109988
-0.000503993
-0.0080047
0.00872996
0.0040704
-0.0138479
0.0111649
-0.00250477
0.00637522
-0.0159404
-0.0474783
0.01465
-0.0233292
0.0269085
0.0105884
0.00969186
0.0100781
0.0102199
-0.0447138
-0.00265907
-0.00257769
-0.00305561
0.0117113
0.0114351
0.0120035
0.0111317
-0.0524211
-0.00438392
-0.00374436
-0.00397152
0.0145417
0.0026755
-0.0208718
0.028574
0.00477483
0.000753536
-0.000541602
-0.000256774
-0.00313386
0.00045081
-0.000180267
-0.00521432
0.000944752
0.001664
0.0127995
-0.000546769
0.00800883
0.000930301
0.00508038
-0.023632
-0.00217965
-0.000868653
0.00185375
-0.00112642
-0.00125013
0.00151705
0.0278676
0.00864634
0.00857955
0.00816388
0.00904292
-0.0369708
-0.0015565
-0.000748597
-0.00110534
0.0174285
-0.00125058
-0.00145356
0.00280946
-0.00158842
0.0282377
0.0228958
0.00291187
-0.0292469
0.0269043
0.00746598
0.00665599
0.00705155
0.00708415
-0.0295606
0.000163074
0.000271585
-0.000208955
0.0175613
-0.000472478
-0.000301866
0.000194716
-0.00427972
0.00811532
-0.00569777
0.00323726
-0.00220787
-0.00369824
0.00327615
-0.00669207
0.00306579
-0.00135643
-0.00533705
0.00466678
0.00250176
0.0076055
0.00223828
0.0232399
-0.0236853
-0.000444493
-0.0247645
0.0220448
0.00476641
0.00414957
0.0044443
0.00447343
-0.017852
0.00211209
0.00188947
0.00170197
-0.0168828
0.0156811
0.00105687
0.00113169
-0.00403544
0.00568665
0.00566263
0.00603109
0.00531127
-0.0232042
0.000897984
0.00152962
0.00117426
0.000512236
0.000389098
-0.00214441
-0.00683564
0.00428418
0.00882305
0.0106903
-0.00479691
0.000110656
-0.00314297
-0.000199369
0.00173619
-0.000308828
0.000230575
0.000168968
0.00277196
0.0191766
0.00347473
0.00343469
0.00319613
0.00371704
-0.013599
0.00224654
0.00263629
0.00236175
0.0142084
0.00158181
0.00154869
-0.00548525
0.00845598
0.0117849
0.0153488
-0.00652182
-0.0115027
0.0164259
0.00285817
0.00242547
0.00261291
0.00266256
-0.0102406
0.0026314
0.00286334
0.0025697
0.0126447
0.00187348
0.00187591
-0.00650362
-0.000777844
0.00371159
-0.0048729
0.000558435
-0.00297377
-0.0015216
0.00137353
0.00354883
0.00401426
0.00920982
0.00921565
-0.00890133
-0.00743178
0.00202322
0.00196576
0.00217798
0.00182191
-0.00767844
0.00273396
0.00294747
0.00275885
0.00205431
0.00207304
-0.00717361
0.00608129
0.00432109
-0.00335923
-0.000322664
-0.00882929
0.000498293
0.000698812
0.000478114
0.000433897
0.00445997
-0.00363044
-0.000189298
-0.000640248
0.000800419
-0.00150855
-0.000735563
0.00144367
-0.00965011
-0.00271365
0.00257414
-1.65776e-05
0.00980621
0.000887078
0.000646151
-0.00338508
-0.000701455
0.00303141
-0.000478127
-0.00578387
0.0092183
0.00137859
0.00249397
0.0020446
0.00227819
0.00167301
-0.0044011
0.00221713
-0.00503761
0.0166465
0.00187562
0.00264265
0.00213956
0.00272902
-0.00562443
0.000348633
-0.00882187
8.93036e-05
-0.007704
0.02084
-0.00639546
-0.00125577
0.00702758
-0.0218642
0.0016478
0.0186572
-0.00570633
0.005372
0.015717
-0.0169517
0.0092413
0.0130369
-0.00141601
-0.00836967
5.71199e-06
-0.0124982
-0.0110803
-0.00327464
0.0250991
0.00513461
0.0124891
-0.070942
0.00709829
0.0202315
-0.0560957
0.0136988
0.0753052
0.0298472
0.0425384
-0.028036
-0.0510294
0.00669943
-0.0523144
0.0874036
0.0397928
0.0472478
0.0280597
-0.0223575
-0.0570609
0.0191844
0.049234
0.0494547
-0.0423344
-0.0490979
0.0515592
0.0259281
0.0332393
0.0227031
-0.0186313
-0.0247117
-0.0384968
0.00988509
0.00653474
0.00142944
-0.00654316
-0.0111837
-0.000122341
-0.00973356
0.00162086
0.000872451
0.0204201
0.010429
-0.00508862
0.0135991
0.00132491
0.00582164
0.000281188
-0.0159383
0.0108636
0.00192026
0.013785
4.51445e-05
-0.0110097
-0.0426403
0.030351
0.00607097
-0.05063
0.00753894
0.0251205
0.0184371
-0.0204169
0.00382455
-0.0284219
-0.0363159
0.0474605
0.0399937
0.027978
0.0201849
-0.0166206
-0.031758
0.0261804
0.0230648
-0.0196304
-0.0405733
0.0160806
0.0140749
0.0127087
-0.0103913
-0.0149293
-0.0245319
0.00067559
0.0017611
0.00047303
-0.00226682
-0.000356386
-0.00028469
-0.00405865
0.000532242
-0.00018334
0.00024817
0.00347465
-0.00358015
0.000821706
0.000556528
0.00317484
-0.000307031
-0.000665551
0.00165143
0.000438762
-0.00034898
-0.000212037
-0.0022791
-0.0535999
0.00293826
0.0328605
-0.0205897
0.073963
0.0748809
0.0430013
0.0144451
-0.0104865
-0.0509988
0.0327294
-0.0673423
0.00617162
0.0249171
0.0341328
0.0226884
-0.0356554
-0.0240399
0.00287995
0.0572349
0.0176133
-0.0659252
-0.0156332
0.016187
0.0322697
0.0197316
0.0103253
-0.034098
-0.00815079
-0.0200634
-0.0878495
0.0468848
0.097902
-0.100271
0.00693765
0.148295
0.0395416
-0.0527127
-0.0390845
0.0675671
-0.119517
-0.0638508
0.0101408
0.0642646
0.00653095
-0.0782418
0.00683449
0.0217958
0.0569605
-0.0802183
-0.038617
-0.0166802
0.0457762
0.00090255
-0.0543539
0.00778886
-0.0229302
-0.0159663
0.0025573
0.0314826
-0.0127984
0.048037
0.00599571
0.0135281
0.00872568
-0.00698238
-0.0125466
0.0295593
0.0163667
0.0514109
0.0160431
-0.0376153
0.0404318
-0.00853657
-0.00517114
0.0132122
0.0376922
-0.0167271
0.00243155
0.000909966
-0.00159771
-0.00184204
0.000817885
-0.00071981
-0.00245062
0.00258887
0.000257986
-0.0100463
0.000843099
-0.00340687
0.00109186
-0.00029478
0.000445968
0.000832861
0.000731558
0.00064324
-0.0149066
0.000973967
0.0005589
0.000445438
0.0129284
0.0055551
0.00299856
0.0055975
-0.00823687
0.00306809
-0.00898191
-0.00318383
0.00500176
0.0226117
0.0174755
0.0217231
0.0009046
0.00975007
-0.00163998
-0.0214965
0.0179885
0.00330261
-0.00777673
-0.00306388
-0.0178587
0.19381
0.0674275
-0.0675026
-0.0521475
-0.0581642
-0.0433811
-0.00819155
-0.00873568
-0.00906686
0.0123956
0.00696031
0.0131823
0.00945809
-0.0192126
0.130511
0.00357073
-0.0229878
0.00218425
-0.0528445
-0.0218171
-0.0242842
-0.0447415
0.00959593
-0.00411629
-0.00415925
-0.00390557
-0.00788448
-0.00920321
0.0237718
-0.0543735
-0.157016
0.0832077
-0.0048491
0.121603
-0.0155346
0.141312
-0.000480439
-0.00249082
-0.00214106
0.100135
-0.0631099
-0.0483774
-0.0482813
-0.0172552
0.0153993
0.0155015
0.0102803
0.0106336
-0.00445962
-0.00930133
-0.00442575
-0.00803241
0.0479844
0.0237268
-0.00042976
0.0588235
0.00910999
0.0119099
0.0128951
0.402654
0.0011323
-0.0022105
0.00248488
-0.0995244
-0.0977933
-0.14983
-0.153371
0.494859
0.0532287
0.00047691
0.015007
0.0159056
0.0179981
0.0229483
0.00929619
0.00322486
-0.011322
-0.00790051
-0.00593029
-0.00574536
0.0205021
0.120463
0.02062
-0.132541
-0.0615481
0.187093
0.223276
0.0891906
-0.00157372
-0.00297476
-0.000851025
0.0941899
-0.00305741
-0.0439772
0.313788
0.0686227
0.122276
0.00771996
-0.000614481
0.00692106
0.286211
-0.111881
-0.111345
-0.100325
-0.105521
-0.124595
0.00713782
0.00106952
0.0912193
0.0184098
-0.00894051
0.0892117
0.00663554
0.00596987
0.00660759
-0.0390473
-0.0129908
-0.0102498
0.00547538
-0.000539292
0.0174259
0.0893237
-0.00340778
0.12544
0.0278941
0.029958
0.00339483
0.00519498
0.00404005
-0.0437962
-0.0436252
-0.0446328
0.0195365
0.0211917
0.0942377
0.0226275
0.0799034
-0.0780861
0.181303
0.0968427
0.00222328
0.00417607
0.00221456
0.00025053
0.0564011
-0.000220043
-0.021672
-0.00209058
0.0590469
-0.00995917
0.00304929
0.00802856
0.0605815
-0.026744
-0.0409406
-0.0326139
-0.0415533
0.120574
-0.209658
0.0554453
0.151655
0.0412632
0.0039704
0.00229917
0.00146507
0.000597239
0.0525549
0.0693009
0.132958
0.0425226
-0.000679134
-0.00705287
-0.0110826
-0.00576271
-0.0060007
0.00185503
0.0394372
-0.00163021
0.0188955
0.00067283
0.00260408
-0.021738
0.00119583
0.0014632
0.00115855
0.0230369
-0.00867053
0.0155118
0.00134864
-0.00444836
0.000391346
-0.017892
-0.00439763
-0.00015058
0.0279012
0.00286937
0.00587539
0.149671
0.105554
0.00174985
-0.000317357
-0.00233719
-0.000441721
0.0590022
0.0137949
-0.0328666
-0.0346955
-0.0302541
-0.0341263
0.108046
0.018203
-0.00895715
-0.00818945
-0.00916195
0.000296555
-0.015203
0.0307709
-0.0768002
-0.115744
0.0782945
0.0409744
0.0910193
0.0429951
0.112976
0.109107
-0.00352147
-0.00190265
-0.00366609
-0.00475628
0.0591477
-0.00753379
-0.00950841
-0.00846134
-0.00526061
0.00465537
0.0351698
-0.104027
0.0587332
0.0898314
-0.00439702
-0.00424986
-0.00466447
-0.00442264
0.0418813
-0.00802635
-0.0066959
-0.00766686
0.00114262
0.0201404
0.0264012
0.0155978
0.0697739
-0.0169641
-0.0150843
-0.0149969
-0.016997
0.0544493
-0.0850246
0.0755443
0.0692189
0.0362784
-0.00427213
-0.00486811
-0.00525882
-0.00518515
0.0528994
0.0690883
0.0506312
0.0301782
0.0194285
-0.00413156
-0.00412149
-0.00443529
0.00184941
-0.020353
0.015629
-0.00502156
0.00189298
0.000645645
0.00476024
-0.00200502
-0.000272205
0.000595015
-0.000184492
0.000572774
-0.00465474
0.00104425
0.000628809
-0.00402008
-0.000327295
-0.00090545
-0.00638416
0.000663697
0.0020014
-0.00010501
0.00581939
0.0383734
0.0727994
-0.00355564
-0.00352833
-0.00346227
-0.00371785
0.0313229
0.0124288
-0.00995282
-0.0115584
-0.0113378
-0.0102583
0.0391554
-0.00153317
-0.00169265
-0.00161383
0.00675233
0.00125972
-0.0155409
-0.0601174
-0.0252671
0.0182345
0.0251375
0.0237907
0.0360218
-0.00269627
-0.00276644
-0.00263686
-0.00282632
0.0228103
-0.00346036
-0.00309694
-0.00319305
0.00164194
0.0184125
0.0124313
-0.119284
0.080583
0.116074
-0.0322399
-0.0234595
-0.0290418
0.00537262
0.00680522
0.00442657
0.00328045
0.0127527
-0.00403868
-0.00360328
-0.00398929
-0.00788713
0.0128955
0.0199098
-0.122349
0.0971296
0.0970629
0.00659569
0.00164609
0.088268
-0.0175284
-0.0151165
-0.0156558
-0.0169984
0.0629207
-0.046561
-0.0430387
-0.0378812
0.0124885
0.0106654
0.00754411
0.00857103
0.00209323
0.0970554
0.0674664
0.0148351
0.0188629
-0.00257458
-0.0022305
-0.00270832
-0.00425175
-0.0176182