/*--------------------------------*- C++ -*----------------------------------*\
| =========                 |                                                 |
| \\      /  F ield         | OpenFOAM: The Open Source CFD Toolbox           |
|  \\    /   O peration     | Version:  2012                                  |
|   \\  /    A nd           | Website:  www.openfoam.com                      |
|    \\/     M anipulation  |                                                 |
\*---------------------------------------------------------------------------*/
FoamFile
{
    version     2.0;
    format      ascii;
    class       pointVectorField;
    location    "0.108/fluid";
    object      pointMotionU;
}
// * * * * * * * * * * * * * * * * * * * * * * * * * * * * * * * * * * * * * //

dimensions      [0 1 -1 0 0 0 0];


internalField   nonuniform List<vector> 
23669
(
(0 0 0)
(0 0 0)
(0 0 0)
(0 0 0)
(0 0 0)
(0 0 0)
(0 0 0)
(0 0 0)
(0 0 0)
(0 0 0)
(0 0 0)
(0 0 0)
(0 0 0)
(0 0 0)
(0.000855645 0.00082304 1.135e-18)
(0.00153335 -0.000642612 -9.5601e-32)
(0.00184166 -0.00159583 -2.31168e-47)
(0.0019693 -0.00177911 -2.60107e-62)
(0.00199079 -0.00172297 -1.09992e-76)
(0.0019463 -0.00162778 -8.50736e-91)
(0.00185879 -0.00148433 -2.72382e-106)
(0.00173015 -0.00127631 3.3162e-118)
(0.00158869 -0.00111113 1.78689e-122)
(0.00143961 -0.00102323 -1.71313e-124)
(0.00126743 -0.000958129 1.89417e-128)
(0.00103704 -0.000783932 1.89922e-131)
(0.000787411 -0.000675424 2.16396e-136)
(0.000473665 -0.000502956 1.11283e-139)
(0 0 0)
(0.000612627 -0.00124326 2.53995e-23)
(0.0021878 -0.00472296 -1.13462e-37)
(0.00332735 -0.00704561 1.47224e-48)
(0.00381971 -0.00708659 -1.87682e-61)
(0.00393846 -0.00631279 -6.38753e-75)
(0.00384948 -0.00528149 -4.71256e-89)
(0.00365481 -0.00425893 9.18545e-102)
(0.00341678 -0.00351109 1.69957e-106)
(0.00313053 -0.00288222 -3.28929e-109)
(0.00278276 -0.00228816 -3.08589e-113)
(0.00239498 -0.00184069 -2.50975e-115)
(0.00195781 -0.00145864 3.87528e-120)
(0.00147667 -0.00119072 9.35193e-123)
(0.000919697 -0.000994531 -4.83434e-126)
(0 0 0)
(0.00152655 -0.0112536 1.45371e-20)
(0.00421561 -0.0203925 4.91458e-35)
(0.00582964 -0.0215491 1.4735e-48)
(0.00635978 -0.0185701 8.20459e-62)
(0.00638287 -0.01504 1.42134e-74)
(0.00615491 -0.0120618 3.18164e-87)
(0.00577849 -0.00937488 -3.8354e-92)
(0.00535273 -0.00747774 4.87283e-94)
(0.00488264 -0.00603206 -7.2008e-101)
(0.00430877 -0.00459941 -8.35323e-100)
(0.00362721 -0.00335146 -2.0406e-104)
(0.00286157 -0.00227894 -2.18706e-106)
(0.0021013 -0.00163727 -3.96612e-109)
(0.00126681 -0.00120839 -4.9571e-113)
(0 0 0)
(0 0 0)
(0 0 0)
(0 0 0)
(0 0 0)
(0 0 0)
(0 0 0)
(0 0 0)
(0 0 0)
(0 0 0)
(0 0 0)
(0 0 0)
(0 0 0)
(0 0 0)
(0 0 0)
(0 0 0)
(0.0120085 -0.0034298 0.00400811)
(0.00327274 -0.000529846 0.000925694)
(0.00230075 -0.00138895 0.000324063)
(0.00215316 -0.00205772 0.00011343)
(0.00217858 -0.00234655 4.06628e-05)
(0.00213217 -0.00214536 1.30823e-05)
(0.00205616 -0.00196254 -3.19253e-06)
(0.00193887 -0.0017048 -1.16581e-05)
(0.00179606 -0.00144405 -1.58507e-05)
(0.00164546 -0.00125421 -1.74337e-05)
(0.00147039 -0.00107915 -1.70055e-05)
(0.00128068 -0.000959705 -1.51391e-05)
(0.00105164 -0.000810135 -1.17279e-05)
(0.000784354 -0.00064753 -8.38952e-06)
(0.000472549 -0.00048749 -5.17497e-06)
(0 0 0)
(0.00472724 -0.00554606 0.000714023)
(0.00326981 -0.00805704 2.10482e-06)
(0.00381486 -0.0100663 -0.000203764)
(0.00417861 -0.00984832 -0.000175321)
(0.00432859 -0.0088322 -0.000127814)
(0.00427544 -0.00730333 -9.2773e-05)
(0.00404799 -0.00568783 -6.8051e-05)
(0.00379411 -0.00449372 -5.81135e-05)
(0.00351946 -0.00366972 -5.08146e-05)
(0.00320686 -0.00300798 -4.3294e-05)
(0.00285405 -0.00244206 -3.77805e-05)
(0.00243028 -0.0018627 -3.16759e-05)
(0.00194922 -0.00134261 -2.30294e-05)
(0.00145724 -0.00106384 -1.70428e-05)
(0.000893476 -0.000867315 -1.13322e-05)
(0 0 0)
(0.00487948 -0.0296193 -0.00128817)
(0.00643126 -0.0394714 -0.00240801)
(0.00687778 -0.0329118 -0.00144452)
(0.00711015 -0.0264835 -0.000837058)
(0.00699079 -0.0204767 -0.000501873)
(0.00674446 -0.0156107 -0.000316397)
(0.00639369 -0.0122001 -0.000220486)
(0.0059511 -0.00950016 -0.000159702)
(0.0054772 -0.00758542 -0.000121428)
(0.00495522 -0.00602774 -9.2609e-05)
(0.00435146 -0.00461786 -7.06158e-05)
(0.00364886 -0.0033251 -5.36764e-05)
(0.00288703 -0.00225175 -3.88803e-05)
(0.00211175 -0.00156385 -2.73049e-05)
(0.00127805 -0.00118207 -1.70459e-05)
(0 0 0)
(0 0 0)
(0 0 0)
(0 0 0)
(0 0 0)
(0 0 0)
(0 0 0)
(0 0 0)
(0 0 0)
(0 0 0)
(0 0 0)
(0 0 0)
(0 0 0)
(0 0 0)
(0 0 0)
(0 0 0)
(0.00408396 -0.00167419 0.000785271)
(0.00301575 -0.00162605 0.000353764)
(0.00279778 -0.00249119 0.00014267)
(0.00265554 -0.00297634 3.35889e-05)
(0.00254138 -0.0029612 -5.9871e-06)
(0.00239705 -0.00264258 -1.97747e-05)
(0.00224487 -0.00230255 -2.56001e-05)
(0.0020972 -0.00199868 -3.11454e-05)
(0.00194575 -0.0017441 -3.45773e-05)
(0.00176495 -0.00150666 -3.34802e-05)
(0.00156363 -0.00129506 -3.05431e-05)
(0.00134279 -0.00109881 -2.68144e-05)
(0.00108211 -0.000851381 -2.13288e-05)
(0.000796489 -0.000640274 -1.54818e-05)
(0.000464437 -0.000431596 -9.11807e-06)
(0 0 0)
(0.00829282 -0.00976903 0.000249523)
(0.0070313 -0.013885 -0.000276241)
(0.00643957 -0.0147041 -0.000388321)
(0.0059576 -0.0131531 -0.000323062)
(0.00548249 -0.010768 -0.00024509)
(0.0049503 -0.00804628 -0.000174357)
(0.00452701 -0.00626421 -0.000134843)
(0.00414326 -0.00495558 -0.000111368)
(0.00377115 -0.00395075 -9.43333e-05)
(0.00337885 -0.00316271 -7.80179e-05)
(0.00296019 -0.00252277 -6.39039e-05)
(0.00249672 -0.00190959 -5.18615e-05)
(0.00198689 -0.00132927 -4.0112e-05)
(0.00144983 -0.000941008 -2.84736e-05)
(0.000865178 -0.000714621 -1.78439e-05)
(0 0 0)
(0.0109597 -0.0237545 -0.000140857)
(0.0116843 -0.0376628 -0.00139804)
(0.0104683 -0.0332104 -0.00127702)
(0.00935121 -0.0271872 -0.000955028)
(0.00843537 -0.0211174 -0.000685775)
(0.00765875 -0.0158041 -0.000481532)
(0.00697089 -0.0120057 -0.000347993)
(0.00635196 -0.00936617 -0.00026068)
(0.00574775 -0.0073939 -0.000199672)
(0.00513658 -0.00580611 -0.000154581)
(0.00447944 -0.00444789 -0.000120632)
(0.00374232 -0.00319601 -9.18219e-05)
(0.00295913 -0.00220028 -6.67934e-05)
(0.002124 -0.00144598 -4.42917e-05)
(0.00125058 -0.00100533 -2.64472e-05)
(0 0 0)
(0.00338641 0.00230994 0.00110669)
(0.00133985 0.000377161 0.000418453)
(0.00120972 -0.000734885 0.000795234)
(0.00100405 -0.0050467 -0.000275604)
(0.0030868 8.76505e-05 0.000251399)
(0.000935441 -0.000280354 6.19585e-05)
(0 0 0)
(0.00104117 0.000801173 6.51156e-14)
(0 0 0)
(0.000988745 1.28601e-05 -2.09626e-31)
(0 0 0)
(8.99183e-05 0.000112207 -4.09366e-11)
(0.00530534 -0.00248228 0.00462288)
(0.00128501 9.75776e-05 9.21811e-25)
(0.000666703 -0.000364411 5.56469e-24)
(0.00160816 0.000419626 0.000823226)
(0.00176245 -0.00084679 0.000268359)
(3.35807e-05 -2.79829e-05 -2.04562e-11)
(0.000980855 -0.00122157 0.000351718)
(0.000805263 -0.00359438 1.82619e-22)
(0.00131788 -0.00318402 7.7529e-05)
(5.96717e-05 -0.000556468 -1.15936e-13)
(0.00124884 -0.0125996 -0.00134069)
(0.00310026 -0.0225721 -0.00161265)
(0 0 0)
(0.00702729 0.00104795 0.000223675)
(0 0 0)
(0.00292913 0.000436684 0.000443432)
(0 0 0)
(0.00150191 -0.0002977 0.000232907)
(0.00512361 -0.000719004 0.0015848)
(0.00822851 -0.00394421 0.00255518)
(0.00740475 -0.00217417 0.00177897)
(0.00256249 -0.00089993 0.00054827)
(0.00301073 -0.00283581 0.000690349)
(0.00357581 -0.0011906 0.000644304)
(0.00342896 -0.00656427 0.000289568)
(0.00436195 -0.0139137 -0.000346687)
(0.00458817 -0.0209255 -0.00103514)
(0.00604052 -0.0440399 -0.00275967)
(0.0083729 -0.0315416 -0.000398645)
(0.00859977 -0.0516128 -0.00309463)
(0.00954585 -0.0439069 -0.00201728)
(0 0 0)
(0.00180298 -0.000349003 1.86649e-05)
(0.00169395 -0.00037105 0.000155475)
(0 0 0)
(0.00322227 -0.00138456 0.000492432)
(0.00253602 -0.00146929 0.000294807)
(0.0024281 -0.00182563 0.000124425)
(0.0119709 -0.0376893 -0.000966871)
(0.012402 -0.0158177 -0.000525704)
(0.0133186 -0.0427921 -0.00214429)
(0.0129438 -0.028543 -0.00111804)
(0.00590203 0.00544339 0.00109394)
(0.00173622 0.000979904 0.000912746)
(0.00190994 0.000379209 0.00148793)
(0.00488401 0.000933302 0.000272579)
(0.0011395 -6.28617e-05 0.000209107)
(0.00167713 -0.000197003 0.000463579)
(0.00189829 3.46062e-05 0.000355033)
(0.00228727 -0.00124944 0.00155559)
(0.00135451 -0.00107049 0.000469011)
(0.000855342 -0.00168773 0.000219709)
(0.00406855 -0.00270345 0.00127489)
(0.000781348 -0.0030314 -9.50274e-05)
(0.00179594 -0.00888954 -0.000471577)
(0.00206944 -0.0221961 -0.0022731)
(0.00427624 -0.0185637 -0.000870239)
(0.00361857 -0.000101593 4.84343e-05)
(0.00245917 -0.000126624 0.000274604)
(0.00459525 -0.00117937 0.00096355)
(0.00165086 -0.000185582 0.0001417)
(0.00958067 -0.047035 -0.00176893)
(0.0114942 -0.0518385 -0.00277008)
(0.00100609 -0.00041463 4.46696e-06)
(0.00109317 -0.000477597 6.53451e-05)
(0.00228843 -0.00145922 0.000185675)
(0.0132815 -0.0274645 -0.000849379)
(0.0141371 -0.0315581 -0.00170462)
(6.31261e-05 -9.93788e-06 -8.71736e-11)
(2.64383e-05 -7.41727e-05 -5.88992e-12)
(0.00102229 0.000400094 -5.05505e-22)
(0 0 0)
(0 0 0)
(0 0 0)
(0 0 0)
(0.00579862 0.00514358 -0.000728427)
(0.000905257 0.00032691 0.000407348)
(0.000436486 -0.000120086 0.00107958)
(0.000124855 -0.000294946 0.00010593)
(0.000369623 -0.0108864 -0.00266426)
(0.00484589 0.00059255 0.000255699)
(0.00763974 -0.0253488 -0.000878147)
(0.00759424 -0.0576824 -0.00214011)
(0.011048 -0.0468138 -0.00231034)
(0.00109853 -7.98967e-05 0.000114873)
(0.0111355 -0.018944 -0.000692387)
(0.0131948 -0.0334921 -0.000287769)
(0.0138329 -0.0311328 -0.00171995)
(0.000740703 0.000441299 0.0020544)
(0.000252079 0.00165073 0.00264474)
(0.000804592 0.00159894 0.000971809)
(0.0081781 0.0023969 -0.00075415)
(0.000221993 -0.000141026 0.000391013)
(0.000150627 -0.0011913 -8.22991e-05)
(0.00198505 -0.0199408 -0.0016867)
(0.00332358 -0.04839 -0.00467599)
(0.0055359 -0.046228 -0.00353)
(0.00227367 0.000105817 0.000232878)
(0.00925864 -0.0560956 -0.00308877)
(0.0111532 -0.0480665 -0.000583151)
(0.0119722 -0.0496278 -0.00211626)
(0.000551494 -0.000166162 5.52085e-05)
(0.0134682 -0.0375328 -0.00145524)
(0.0140042 -0.0216406 -0.000714009)
(0.0140247 -0.0262023 -0.00127564)
(0 0 0)
(0.000343696 -6.9071e-05 -0.000179956)
(0 0 0)
(0.000358204 -0.000477806 0.0031146)
(0.000950309 0.00124962 4.95583e-18)
(0.00047686 0.00078529 2.42119e-19)
(0.00104165 0.000730813 0.000519294)
(0.000149876 -0.000129605 0.000283386)
(0.000124459 -0.00159964 -0.00026135)
(0.00299467 -0.0170934 -4.55674e-28)
(0.000692751 -0.0060322 -9.73547e-19)
(0.00221799 -0.0175312 4.02344e-20)
(0.00194065 -0.0144273 -0.000795644)
(0.00501073 -0.0248748 -0.000941225)
(0.00743186 -0.00895189 0.000622762)
(0.00549962 -0.0125986 -0.000159458)
(0.0029748 -0.0236578 -0.00168319)
(0.00531305 -0.0389621 -0.00226235)
(0.00423735 -0.0408749 -0.00200978)
(0.00667407 -0.0325673 -0.000809031)
(0.00665879 -0.0360582 -0.00188722)
(0.00469708 -0.0319814 -0.00220451)
(0.00639161 -0.0428371 -0.00270264)
(0.00743921 -0.0473786 -0.00294572)
(0.00809397 -0.0435065 -0.00229053)
(0.00869177 -0.0402963 -0.0017274)
(0.00880102 -0.0359801 -0.00147458)
(0.00747735 -0.012077 -7.06326e-05)
(0.00999783 -0.0176251 -0.000347081)
(0.00856587 -0.00911846 -0.000134127)
(0.00959458 -0.0261662 -0.000865638)
(0.00791036 -0.0131825 -0.000394668)
(0.00981322 -0.0283155 -0.000148554)
(0.0114891 -0.0322358 -0.000475727)
(0.0110653 -0.0275112 0.00042172)
(0.0118199 -0.019649 -0.000268185)
(0.0110946 -0.035631 -0.00140606)
(0.0107373 -0.0415882 -0.00169018)
(0.0119768 -0.0387971 -0.00131567)
(0.0125305 -0.0414416 -0.00176636)
(0.0124238 -0.0331631 -0.00121082)
(0.0121768 -0.0377349 -0.00176248)
(0.0116592 -0.0267209 -0.00112939)
(0.0127771 -0.0118976 -0.000794555)
(0.0132759 -0.0240321 -0.00110463)
(0.00535703 0.00447326 0.000517159)
(0.00213551 0.00137384 0.00122179)
(0.00236455 0.00156377 0.0016445)
(0.00496572 0.00172464 0.000343116)
(0.000471455 0.00131332 0.00304868)
(0.00410499 0.00117467 -0.000170241)
(0.0014932 0.00063649 0.000614679)
(0.00111227 0.000409153 0.0002864)
(0.000798965 0.000245378 0.000254647)
(0.0015356 -0.000362842 0.001156)
(0.00152058 -0.000853825 0.00113448)
(0.000976551 -0.00108112 0.000471241)
(0.000339305 -0.000145289 0.000384068)
(0.000858435 -0.00281166 1.67893e-06)
(0.000807458 -0.00370189 -0.000161193)
(0.00138589 -0.0104048 -0.000856861)
(0.000233937 -0.00111798 -3.15518e-05)
(0.00298032 -0.0410814 -0.00458121)
(0.00402207 0.00038188 0.000281667)
(0.00338855 0.000218051 0.00019187)
(0.00224561 -8.96107e-05 0.000198519)
(0.00216982 -9.5823e-05 0.000176343)
(0.0111297 -0.063543 -0.00241987)
(0.0114669 -0.0534035 -0.00297036)
(0.00121822 -0.000244361 9.70747e-05)
(0.000924032 -0.00027864 4.44219e-05)
(0.000708689 -0.000300611 3.6726e-05)
(0.000534794 -0.000140926 5.40726e-05)
(0.01459 -0.0343807 -0.00106022)
(0.0137763 -0.0303368 -0.00161202)
(0 0 0)
(-0.000108645 0.00386906 0.00411404)
(0.00058849 0.00021418 -2.8514e-22)
(0 0 0)
(0.00128019 0.00095225 0.000925789)
(0.000291804 0.000102079 -0.000103244)
(0.00113453 0.000623869 4.88031e-18)
(0.00133845 0.000551199 0.000696718)
(0 0 0)
(0 0 0)
(0.000513352 0.000474426 0.000858666)
(1.22606e-05 0.00114098 5.00917e-10)
(8.39452e-05 8.97369e-06 -1.67914e-10)
(0.000338307 -0.000195461 0.00106328)
(0.00610818 -0.00088383 0.00509837)
(0.00282599 -0.000398922 0.00256722)
(0.00363943 -0.00181448 0.00284859)
(0.00168955 0.00095397 0.000920563)
(0.00161676 0.000531905 0.00105898)
(0.000219985 -0.000357715 0.000131819)
(4.43589e-05 -1.78883e-05 -4.10002e-11)
(2.73857e-05 -4.43295e-05 -1.05144e-11)
(8.84368e-05 -0.000309976 3.24386e-05)
(0.00144433 -0.00104218 0.000791807)
(0.000831275 -0.00130106 0.000306704)
(0.000781146 -0.00179569 9.31908e-05)
(0.000583913 -0.00692337 -0.000744647)
(3.24606e-05 -0.000170194 -3.13621e-12)
(0.000140575 -0.00159711 4.46552e-12)
(0.00096605 -0.00590834 -0.000394262)
(0.00147145 -0.0177079 -0.00205201)
(0.000815515 -0.0232015 -0.00438945)
(0.00263234 -0.022827 -0.00195717)
(0.00398785 -0.0305876 -0.00217892)
(0.00393198 0.000182164 -1.89161e-05)
(0 0 0)
(0 0 0)
(0.00797184 0.00262389 0.000510521)
(0.00617194 0.00147566 0.000165927)
(0.00518057 0.000233415 9.14256e-05)
(0.00401411 -0.0358769 -0.0029514)
(0.0073551 -0.0653457 -0.00403742)
(0.00794525 -0.0481601 -0.00231011)
(0.00892713 -0.0413848 -0.00111953)
(0.00813039 -0.0390397 5.16655e-05)
(0.00851362 -0.0555131 -0.00357374)
(0.0101756 -0.05353 -0.00302237)
(0.00974383 -0.0466889 -0.00204529)
(0.0104999 -0.0494881 -0.00245975)
(0.00105972 -0.000135247 0.000112053)
(0 0 0)
(0 0 0)
(0.00251412 -0.000276539 2.99646e-05)
(0.00169955 -0.000149299 0.000103189)
(0.00131923 -0.000391855 1.08614e-05)
(0.0109648 -0.0434257 -0.00129655)
(0.0135248 -0.0490236 -0.00135842)
(0.0127947 -0.032665 -0.00084766)
(0.012915 -0.0227799 -0.000604659)
(0.0126004 -0.0168148 -0.000188401)
(0.0125415 -0.0479065 -0.00245575)
(0.0131576 -0.042131 -0.00214646)
(0.0138322 -0.0371794 -0.00188237)
(0.0132224 -0.0288748 -0.00104744)
(0.0135965 -0.0308111 -0.00138317)
(0 0 0)
(0.000775186 -0.00042774 -9.75373e-07)
(0.0135918 -0.0224603 -0.000949064)
(0.0142963 -0.0262255 -0.00162703)
(0.00114341 0.000648643 0.00222513)
(0.000849747 0.00229352 0.00368634)
(0.00796592 0.00412262 -0.00128124)
(0.00127246 0.000388434 0.00101352)
(0.000650785 0.00023115 0.000180267)
(0.0012248 0.0006516 0.000485525)
(0.00101084 0.000385219 0.000429771)
(0.00052139 8.80548e-05 0.00161082)
(0.000443823 -0.00032434 0.00197131)
(0.000432855 -6.10728e-06 0.000575964)
(0.000319721 -0.000130165 0.000669425)
(0.00214497 -0.0008293 0.00181904)
(0.000157285 -0.000179886 0.000215897)
(0.000103866 -0.000177567 0.000126132)
(0.000207984 -0.000602619 5.14007e-05)
(0.000120208 -0.000535671 2.52966e-05)
(0.000743028 -0.00206709 7.26435e-05)
(0.0041131 -0.024165 -0.00122695)
(0.000217366 -0.0030014 -0.000417638)
(8.3606e-05 -0.00672831 -0.00234635)
(0.00113124 -0.0175179 -0.00256775)
(0.00155335 -0.0341578 -0.0052845)
(0.00860997 -0.0450327 -0.00229186)
(0.00270484 -0.0214168 -0.00118486)
(0.00567241 -0.0403318 -0.00277792)
(0.00671117 0.00121043 -5.98683e-05)
(0.00304468 -3.25299e-06 0.000145842)
(0.00472199 0.000643733 0.000219571)
(0.00333059 0.000283196 0.000292265)
(0.00604285 -0.0109884 0.000140889)
(0.00785125 -0.0195179 -0.000327292)
(0.00757652 -0.0279885 -0.00109714)
(0.00721753 -0.0426669 -0.0016887)
(0.00986513 -0.0236949 -0.000676751)
(0.00818918 -0.0468262 -0.00244143)
(0.010391 -0.037793 -0.000688086)
(0.011 -0.0435157 -0.00163672)
(0.00918455 -0.0397806 -0.00178455)
(0.00550616 -0.0565592 -0.00339072)
(0.00629873 -0.0430773 -0.000794149)
(0.00940266 -0.0673292 -0.00321394)
(0.0095792 -0.0547149 -0.00119365)
(0.010576 -0.041575 -0.00186494)
(0.0128288 -0.0404388 -0.0019915)
(0.00908575 -0.0503283 -0.00278362)
(0.0116474 -0.0461679 -0.00209738)
(0.0015694 -5.9325e-06 0.000165957)
(0.000754505 -0.000135528 7.90462e-05)
(0.00122758 -0.000223298 7.25888e-05)
(0.000776819 -0.000130531 7.95276e-05)
(0.00817923 -0.0115055 -0.000293907)
(0.0112684 -0.013884 -0.000574779)
(0.0108745 -0.0214708 -0.000778884)
(0.0123699 -0.0274674 -0.000469244)
(0.0127219 -0.0338488 -0.00112798)
(0.0132705 -0.0181838 -0.000802354)
(0.0135223 -0.0240383 -0.00106304)
(0.0123405 -0.0278048 -0.00118147)
(0.012384 -0.040789 -0.000316179)
(0.0121065 -0.0222781 0.000197492)
(0.0142378 -0.0415076 -0.00113967)
(0.0137552 -0.0275098 -0.000461892)
(0.0131968 -0.0299686 -0.00162066)
(0.0131747 -0.0361465 -0.00152449)
(0.0138407 -0.025715 -0.00133911)
(-0.000742 0.000519859 0.00437035)
(0.00097991 0.00112859 0.00190307)
(0.00202947 0.000759627 0.000724385)
(0.000371605 0.00167716 0.00150662)
(0.00349052 0.00139333 0.00259258)
(0.00181815 0.001278 0.00122131)
(0.00112138 0.00121087 0.000711045)
(0.000747624 0.000802891 0.000648868)
(0.00454614 0.000671075 -0.000293558)
(0.00686171 0.00290506 9.3686e-05)
(0.000231187 -0.000134395 0.000564381)
(0.000263131 -0.000227117 0.000233819)
(0.00108311 -0.000944544 0.000636867)
(9.726e-05 -0.000627405 -4.48585e-05)
(0.000324384 -0.00248431 -0.000200236)
(0.00105443 -0.0076283 -0.00062303)
(0.00121467 -0.0109742 -0.000861458)
(0.00331126 -0.031602 -0.00267394)
(0.00446568 -0.0345618 -0.0026187)
(0.00230139 -0.0354816 -0.00350478)
(0.0036049 -0.0342056 -0.00299917)
(0.0051525 -0.0572653 -0.004698)
(0.00750007 -0.0539301 -0.00347654)
(0.00153404 -0.000115302 0.000152672)
(0.00237957 -1.22617e-05 0.000153651)
(0.00982259 -0.03406 0.000430177)
(0.0101187 -0.056223 -0.00335318)
(0.0107826 -0.0543483 -0.00259554)
(0.0125673 -0.0572613 -0.00180662)
(0.0124697 -0.0481751 -0.00254505)
(0.0128608 -0.0437308 -0.00172509)
(0.000393122 -0.000141996 3.69069e-05)
(0.000696393 -0.00031011 2.71608e-05)
(0.0130128 -0.0122741 -0.000581645)
(0.0135676 -0.0360202 -0.00182912)
(0.0138452 -0.0317672 -0.00130608)
(0.0147662 -0.0279396 -0.00112436)
(0.0138202 -0.0249951 -0.00151467)
(0.000760562 0.000271345 9.16316e-16)
(0.000482496 0.00131789 8.96889e-09)
(0.00122554 -0.0117124 -8.2655e-17)
(0 0 0)
(0 0 0)
(0.000541443 0.000227414 0.000353941)
(0.000443941 -6.71245e-05 0.00166336)
(0.00176336 -0.00188322 0.000277293)
(7.47848e-05 -1.43581e-05 0.000207011)
(0.00276848 -0.0123908 -0.000533747)
(1.29805e-05 -0.000152456 -3.45833e-05)
(0.00196992 -0.000345832 0.000237881)
(0.00538795 -0.00392683 0.00106772)
(0.00124762 -0.000734049 5.31833e-05)
(0.00464686 -0.00462002 0.000172889)
(0.00088375 -3.79875e-05 0.00185027)
(0.00049344 2.7651e-05 0.00226488)
(0.00281233 0.000614855 0.000118942)
(0.00665912 0.000643918 0.00207047)
(0.00126792 0.000735196 0.000458107)
(0.000638441 9.07623e-05 0.000448248)
(0.000126304 -2.0835e-05 0.000370426)
(0.000460258 -0.00051271 0.000182753)
(0.000453463 -0.00141505 3.79225e-06)
(1.40325e-05 -4.23535e-05 1.06035e-05)
(0.000752054 -0.00510865 -0.000331267)
(0.00233917 9.63755e-05 0.000119369)
(0.00589665 -0.000316309 0.00103573)
(0.00134602 -8.51811e-05 0.000112197)
(0.00332932 -0.00054966 0.000461126)
(0.000722741 -0.000139367 5.98476e-05)
(0.00188287 -0.000628582 0.000193028)
(0.00040617 -0.00015621 2.52858e-05)
(0.00117431 -0.000644495 6.01265e-05)
(0.00105169 0.000316605 0.00175798)
(7.50148e-05 0.0016562 0.00373883)
(0.0056131 0.00776548 -0.000691729)
(0.000160509 0.000575518 0.00382771)
(0.00567847 0.00101503 -0.000707698)
(0.00129247 0.000498292 0.00040733)
(0.000240471 1.14871e-05 0.000542257)
(0.000321538 -5.4597e-05 0.00108675)
(0.000183485 -1.85209e-05 0.000386435)
(5.81124e-05 -3.83665e-05 9.54519e-05)
(4.32291e-05 -1.37562e-05 0.000109107)
(4.26121e-05 -6.42577e-05 5.42881e-05)
(0.00163169 -0.0399417 -0.00668683)
(8.27052e-05 -0.00128038 -0.000188235)
(-3.2396e-05 -0.00288842 -0.00208014)
(0.00029551 -0.0226261 -0.00634697)
(0.000274325 -0.00728722 -0.00272702)
(0.00413578 -0.000486992 7.64539e-05)
(0.00563933 0.0012893 1.88019e-05)
(0.00394054 0.000552664 0.000123085)
(0.00298448 -0.000415987 0.00020726)
(0.0111493 -0.0817962 -0.00286129)
(0.00563896 -0.0539791 -0.00225306)
(0.00891028 -0.0849318 -0.00407162)
(0.00778232 -0.0520299 -0.000964158)
(0.00101069 -0.00021121 0.000104778)
(0.00131179 -0.000150287 6.47226e-05)
(0.000951236 -0.000222047 4.47351e-05)
(0.000706662 -0.000180823 7.28992e-05)
(0.0158657 -0.0443303 -0.000952204)
(0.0121605 -0.0326296 0.000133508)
(0.0152931 -0.0538484 -0.00104963)
(0.012879 -0.0261415 -7.14172e-05)
(0.000162299 3.40122e-05 0.00267104)
(0.00112302 0.000949016 0.00100453)
(0.000318902 0.000452162 0.00277001)
(-0.00026378 0.00218844 0.00557564)
(0.000255946 0.00033573 0.000792492)
(2.06447e-05 0.00237583 0.00386745)
(0.00106835 0.00150031 0.000856265)
(0.000426659 0.00219869 0.00231644)
(0.00530795 -0.000376413 -0.000319994)
(0.00734579 0.00276582 -0.000297522)
(0.00771721 0.00525882 -0.000720422)
(0.00592128 0.000134647 -0.000819038)
(0.000206801 -3.37039e-05 0.000643329)
(8.47288e-05 -2.66431e-05 0.000157158)
(0.000125885 -2.23623e-05 0.000250685)
(2.44565e-05 -2.0898e-05 4.946e-05)
(4.21889e-05 -0.000321745 -1.57359e-05)
(3.63099e-05 -0.000125431 2.32379e-05)
(0.00283433 -0.03242 -0.00344364)
(0.00114566 -0.0123964 -0.00139452)
(0.00378797 -0.0654541 -0.00660551)
(0.00339197 -0.0504699 -0.00398295)
(0.00144244 -0.0399506 -0.00571453)
(0.00638249 -0.0803806 -0.00543779)
(0.00485822 -0.0485331 -0.00415583)
(0.00706743 -0.0591922 -0.00416555)
(0.00145102 -0.000256488 0.000148624)
(0.00185685 -3.16518e-05 9.22205e-05)
(0.0026854 0.00017281 0.000121154)
(0.0020868 -0.000325292 0.000196304)
(0.010535 -0.0606141 -0.00317294)
(0.00889444 -0.0625057 -0.0037611)
(0.0129858 -0.0741244 -0.00195959)
(0.0110908 -0.0397852 0.00013443)
(0.00963542 -0.0466749 -0.000188668)
(0.0143628 -0.0641683 -0.0013674)
(0.0118555 -0.0557358 -0.00260794)
(0.0128169 -0.0488311 -0.00210836)
(0.000702739 -0.000269738 3.0152e-05)
(0.000491124 -0.000161206 5.09537e-05)
(0.0137673 -0.0350403 -0.00146018)
(0.0134187 -0.0418041 -0.00172209)
(0.0161593 -0.0361331 -0.0010214)
(0.0133209 -0.0205378 -0.000379114)
(0.013888 -0.0291439 -0.0013249)
(0.000101366 0.000177742 -8.19071e-05)
(0 0 0)
(0.000367885 -0.000154193 0.00266284)
(0.00111257 0.000479296 -2.25641e-23)
(0.000759128 0.000134378 -1.17543e-24)
(0.00183095 -0.00213913 1.94446e-34)
(8.56405e-05 -1.56253e-05 0.000286155)
(0.00143366 -0.00309539 -9.47663e-31)
(0.000617428 -0.000773938 1.22425e-23)
(0.000251155 -0.000451445 -6.66045e-20)
(0.000664877 -0.002014 5.74948e-23)
(0.000786832 -0.00171224 5.73941e-05)
(0.00295897 -0.010961 8.27084e-36)
(0.0026355 -0.00634956 -8.61691e-05)
(4.67362e-06 -3.83545e-05 -2.55013e-05)
(0.00106753 -0.00641708 1.09955e-21)
(0 0 0)
(0 0 0)
(0.0019503 0.000309196 0.000184244)
(0 0 0)
(0 0 0)
(0.0111138 -0.00359469 0.0049256)
(0.0102864 -0.00145213 0.00270944)
(0.00737746 -0.00156489 0.00247438)
(0.00989534 -0.00273525 0.00273272)
(0.00287335 -0.00407782 0.000175684)
(0.00267613 -0.00195775 0.000253517)
(0.00352897 -0.0094843 -0.000152319)
(0.00527851 -0.0212989 -0.000827408)
(0 0 0)
(0 0 0)
(0 0 0)
(0.000954875 -0.00014278 7.70497e-05)
(0 0 0)
(0.00152608 -0.000852105 0.000101531)
(0 0 0)
(0.00646009 -0.00430996 0.00106948)
(0.00544809 -0.00184695 0.00117888)
(0.00271827 -0.00077992 0.000349542)
(0.00352466 -0.00144438 0.000616842)
(0.00315612 -0.00155686 0.000492376)
(0.0028739 -0.0020567 0.000233346)
(0.00456627 -0.00511215 0.000288564)
(0.00273741 -0.00281124 1.71068e-05)
(0 0 0)
(0.00211202 -0.00138617 0.000156301)
(0.00157862 0.000248239 0.000478739)
(0.00119778 -0.000813504 0.000594864)
(0.00133532 -0.00676784 -0.000383574)
(0.00377722 -0.0516482 -0.00525363)
(0.00276791 -4.13113e-05 0.000274167)
(0.0038878 -0.000335115 0.000570298)
(0.0123082 -0.0728031 -0.00302131)
(0.00100754 -0.000369617 6.74819e-05)
(0.00149573 -0.000690544 0.000111526)
(0.0153083 -0.0383622 -0.00136373)
(4.11964e-06 -0.000301284 0.0007683)
(-0.00118556 0.000907835 0.00644458)
(0.000963075 0.000536704 4.7179e-12)
(0.00100435 0.0011573 1.00154e-13)
(0.0011547 0.000867444 0.000615615)
(0.000702442 0.000631971 1.07561e-09)
(0.00120147 0.000691655 1.79276e-17)
(0.00021774 0.00025434 0.000381478)
(8.55891e-05 0.000316677 -3.23314e-10)
(8.45037e-05 3.74446e-05 -5.03171e-11)
(0.00023561 -6.29889e-05 0.000996986)
(0.00138777 2.46533e-05 0.000286237)
(0.00120601 0.000407175 8.90246e-25)
(0.000840999 -0.0005342 0.000253636)
(0.000316368 -0.000121 -4.98753e-20)
(0.00164482 0.000143608 0.000620641)
(0.00148179 -0.000318912 0.000665723)
(8.16819e-05 -8.842e-05 6.94041e-05)
(3.80328e-05 -2.20692e-05 -2.86554e-11)
(2.96082e-05 -3.46487e-05 -1.44283e-11)
(2.44636e-05 -9.94107e-06 5.57357e-05)
(0.00104912 -0.00493929 -0.000191658)
(0.000304045 -0.0013116 -1.20887e-19)
(0.00128949 -0.00192937 0.000274777)
(0.00102555 -0.00231509 0.000143808)
(0.00146963 -0.00528078 -0.000155442)
(0.000168411 -0.00179583 -0.000156705)
(4.0936e-05 -0.000286824 -1.87411e-12)
(8.75616e-05 -0.00094103 1.97767e-12)
(0.00234222 -0.0146201 -0.000950158)
(0 0 0)
(0.00326914 -0.000280719 -5.71769e-05)
(0 0 0)
(0 0 0)
(0.00636418 0.00146838 -0.000250956)
(0.00772545 0.00171557 0.000334756)
(0.00662806 0.00148887 0.000163707)
(0.00610228 0.000564929 0.000133654)
(0.0024594 0.000753906 0.000630304)
(0.00374612 0.000597442 0.000386715)
(0.00283806 0.000106282 0.000343284)
(0.00148751 -1.66169e-05 0.000126387)
(0 0 0)
(0.00387708 -0.00018606 0.00167989)
(0.00518509 0.000371151 0.00100502)
(0.00519065 -0.00102122 0.00128212)
(0.00538307 -0.000928798 0.000896244)
(0.00562544 -0.0014997 0.00129879)
(0.003947 -0.0461665 -0.00241849)
(0 0 0)
(0.000862764 -0.000171853 8.79699e-05)
(0 0 0)
(0 0 0)
(0.001607 -0.000318491 -2.37757e-05)
(0.0021227 -0.000317942 2.39096e-05)
(0.00173548 -0.00021902 6.81028e-05)
(0.00153134 -0.000374577 1.37183e-05)
(0.00205897 -0.00027371 0.000212725)
(0.00167358 -0.000280332 0.000156118)
(0.00135172 -0.000439355 0.000105547)
(0.000563933 -0.000194989 3.46672e-05)
(0 0 0)
(0.003871 -0.00129238 0.000702101)
(0.00237318 -0.000598728 0.000284392)
(0.00269022 -0.00144014 0.000317797)
(0.00156175 -0.000727456 0.000126396)
(0.00234113 -0.00140719 0.000231547)
(0.0112798 -0.0305251 0.000658987)
(0.00090981 -0.000492421 3.29114e-05)
(0.00199882 -0.00144814 8.76139e-05)
(0.00579845 0.00546079 0.000546669)
(0.0031784 0.00615264 0.00180831)
(0.00582229 0.00740749 -0.00029974)
(0.00747256 0.00398379 0.000719795)
(0.000437645 -0.0267584 -0.00587429)
(0.00860629 -0.0777536 -0.00464199)
(0.00349801 0.000138638 0.000133752)
(0.00434092 3.46199e-05 6.21049e-05)
(0.00323943 -1.84953e-05 -7.35896e-05)
(0.00300202 -0.000203895 3.42997e-05)
(0.00821309 -0.0431296 0.00022479)
(0.0144716 -0.0553692 -0.00183458)
(0.000947444 -0.000334574 2.79248e-05)
(0.00114729 -0.000403521 7.14132e-06)
(0.000893708 -0.000394082 -1.02348e-05)
(0.000877895 -0.000422983 1.85591e-06)
(0.0129116 -0.0184826 -2.2473e-05)
(9.77331e-05 0.00092193 0.00340731)
(0.000143182 -3.5324e-05 0.000179952)
(7.31884e-05 -3.75508e-06 -1.2221e-10)
(5.19502e-05 -1.38474e-05 -5.85895e-11)
(7.12405e-05 -0.000261343 1.04254e-05)
(2.61023e-05 -5.56203e-05 -7.75852e-12)
(2.78859e-05 -0.000106047 -4.36016e-12)
(0.000238499 -0.00256646 -1.79017e-10)
(0.00375868 0.000365405 -0.000387438)
(0 0 0)
(0 0 0)
(0 0 0)
(0.00177113 -0.000255324 0.000139748)
(0 0 0)
(0 0 0)
(0 0 0)
(0.000422489 -0.000128276 4.28576e-05)
(0 0 0)
(0 0 0)
(0 0 0)
(0.00248584 0.00140633 0.000773248)
(0.00287068 0.0038386 0.00124692)
(0.0070814 0.00488061 -0.00114608)
(0.00141859 0.00169156 0.000530244)
(0.00112537 0.000353118 0.000638925)
(0.00119553 0.000515114 0.00050341)
(0.000808866 0.000276692 0.000245229)
(0.000477739 0.00016111 0.000257627)
(0.000478052 -8.83123e-05 0.00132317)
(0.000471107 -0.000204075 0.00153827)
(0.000378421 -4.21815e-05 0.000698967)
(0.000367875 -0.000127702 0.000857342)
(0.000274339 -2.98956e-05 0.000771186)
(0.000128931 -0.00019922 0.000155468)
(0.000112075 -0.000227062 0.000130632)
(0.000128504 -0.000313663 8.10423e-05)
(0.000109517 -0.000339271 6.73618e-05)
(4.68438e-05 -2.90996e-05 9.85205e-05)
(0.000289635 -0.00580093 -0.00105495)
(0.000181238 -0.00842242 -0.00260075)
(0.000698469 -0.0152382 -0.00292097)
(0.000347963 -0.0162396 -0.00560222)
(0.000875197 -0.0237793 -0.0047139)
(5.47698e-05 -0.00132246 -0.00036811)
(0.00576181 0.000846826 0.000146102)
(0.00271434 -7.16358e-06 0.000196205)
(0.00429344 0.000693334 0.000176677)
(0.00402834 0.000413672 0.000295405)
(0.00658204 -0.0579743 -0.00273899)
(0.00686694 -0.050688 -0.00150005)
(0.00871475 -0.0663399 -0.00280563)
(0.00781101 -0.0639113 -0.00231641)
(0.00862463 -0.0568359 -0.00163108)
(0.00131093 -4.65346e-05 0.000138211)
(0.000594411 -0.000112417 8.47155e-05)
(0.000997102 -0.000122338 8.1354e-05)
(0.000922927 -0.00010751 9.55101e-05)
(0.0128419 -0.0370992 -0.000280123)
(0.0126177 -0.0282048 -1.37456e-05)
(0.0140622 -0.0395871 -0.000702611)
(0.0134642 -0.0361566 -0.000324901)
(0.013523 -0.0305013 -0.000362418)
(0.000650346 0.000415553 0.00234572)
(0.00108314 0.000490587 0.00159429)
(0.000932418 0.00078135 0.00201289)
(0.000523084 0.000348611 0.0023009)
(0.000484447 0.000110344 0.00175891)
(0.000261155 0.00232766 0.00389481)