/*--------------------------------*- C++ -*----------------------------------*\
| =========                 |                                                 |
| \\      /  F ield         | OpenFOAM: The Open Source CFD Toolbox           |
|  \\    /   O peration     | Version:  2012                                  |
|   \\  /    A nd           | Website:  www.openfoam.com                      |
|    \\/     M anipulation  |                                                 |
\*---------------------------------------------------------------------------*/
FoamFile
{
    version     2.0;
    format      ascii;
    class       volVectorField;
    location    "0.108/fluid";
    object      U_0;
}
// * * * * * * * * * * * * * * * * * * * * * * * * * * * * * * * * * * * * * //

dimensions      [0 1 -1 0 0 0 0];


internalField   nonuniform List<vector> 
16421
(
(1.13968 -0.00653534 -0.021033)
(1.16739 -0.00229826 0.00169667)
(1.18353 -0.000813114 -0.000226229)
(1.19043 -0.000345265 -0.000213896)
(1.194 -0.000142921 -0.000127642)
(1.19595 -7.02489e-05 -7.75294e-05)
(1.19709 -4.51091e-05 -4.78872e-05)
(1.19782 -3.48851e-05 -2.98561e-05)
(1.1983 -2.99577e-05 -1.91804e-05)
(1.19862 -2.77738e-05 -1.27373e-05)
(1.19885 -3.09454e-05 -7.81511e-06)
(1.19904 -3.7696e-05 -5.42821e-06)
(1.19921 -4.51455e-05 -3.95883e-06)
(1.20981 -0.0598477 -0.13509)
(1.17342 -0.0403802 0.0231795)
(1.17959 -0.0146991 0.0017522)
(1.18719 -0.00647603 2.11027e-05)
(1.19202 -0.00327158 -0.000178141)
(1.19495 -0.00179395 -0.000119309)
(1.19674 -0.00103301 -7.61523e-05)
(1.19785 -0.000613524 -4.91133e-05)
(1.19854 -0.000370913 -3.16734e-05)
(1.19897 -0.000227502 -2.09729e-05)
(1.19925 -0.000139206 -1.47956e-05)
(1.19943 -7.92324e-05 -1.14067e-05)
(1.19955 -4.16775e-05 -9.48508e-06)
(1.19962 -1.58006e-05 -8.39516e-06)
(1.21615 -0.0238841 -0.120833)
(1.19794 -0.0216607 0.0299388)
(1.19085 -0.0139816 0.00262002)
(1.19209 -0.00805583 0.000213649)
(1.19427 -0.00464987 -0.000163262)
(1.19607 -0.00273598 -0.00012509)
(1.19732 -0.00164133 -8.1712e-05)
(1.19815 -0.000999902 -5.34846e-05)
(1.19869 -0.00061642 -3.68336e-05)
(1.19904 -0.000383344 -2.51328e-05)
(1.19927 -0.000236482 -1.82106e-05)
(1.19943 -0.00014472 -1.67025e-05)
(1.19954 -8.4306e-05 -1.52521e-05)
(1.19963 -4.36259e-05 -1.45562e-05)
(1.17488 0.0124306 -0.0572057)
(1.19466 -0.0103795 0.0156482)
(1.19469 -0.0108459 0.00151255)
(1.19539 -0.00742595 -2.80313e-06)
(1.19639 -0.00473825 -0.00019766)
(1.19734 -0.00296556 -0.000136721)
(1.19806 -0.00185169 -8.63472e-05)
(1.19855 -0.00115774 -5.71971e-05)
(1.19891 -0.000727205 -4.10914e-05)
(1.19916 -0.000455736 -3.00255e-05)
(1.19933 -0.000282089 -2.39051e-05)
(1.19946 -0.000172828 -2.24755e-05)
(1.19956 -0.000105029 -2.11846e-05)
(1.19965 -5.59519e-05 -2.11092e-05)
(0.973294 -0.235793 -0.0476917)
(1.15735 0.00526218 -0.0204199)
(1.17448 -0.00236061 -0.00827903)
(1.18544 -0.000767866 -0.00395294)
(1.19136 -0.000323584 -0.00218056)
(1.19459 -0.000135322 -0.00128975)
(1.19637 -6.8822e-05 -0.000785363)
(1.19744 -4.50618e-05 -0.00048712)
(1.19811 -3.44197e-05 -0.000304713)
(1.19855 -2.98662e-05 -0.000192372)
(1.19886 -2.8835e-05 -0.000120338)
(1.19908 -3.1219e-05 -7.67509e-05)
(1.19927 -3.77155e-05 -4.71744e-05)
(1.19943 -4.52721e-05 -2.63332e-05)
(1.32971 -0.0693753 -0.0644097)
(1.21606 -0.0937506 -0.0558974)
(1.18647 -0.0376342 -0.0193201)
(1.18499 -0.0139479 -0.00723118)
(1.18907 -0.00617799 -0.00360529)
(1.19294 -0.00311846 -0.00202444)
(1.19561 -0.00172685 -0.00121781)
(1.19726 -0.00100183 -0.00075154)
(1.19827 -0.000598081 -0.000469962)
(1.1989 -0.000363952 -0.000295841)
(1.1993 -0.00022394 -0.000187011)
(1.19955 -0.000136723 -0.000118263)
(1.19971 -8.0334e-05 -7.42642e-05)
(1.19981 -4.34684e-05 -4.56674e-05)
(1.19986 -1.77315e-05 -2.51208e-05)
(1.25341 -0.00587557 -0.0642637)
(1.23738 -0.0217511 -0.059282)
(1.21004 -0.0199787 -0.0162012)
(1.19569 -0.012996 -0.00551833)
(1.19408 -0.00765407 -0.00289957)
(1.19538 -0.004465 -0.00170008)
(1.19689 -0.00264437 -0.00105697)
(1.19797 -0.00159347 -0.00066902)
(1.19869 -0.000974639 -0.000426221)
(1.19915 -0.000604282 -0.000272346)
(1.19946 -0.000377199 -0.00017382)
(1.19965 -0.000234331 -0.000110939)
(1.19977 -0.000144536 -7.02012e-05)
(1.19985 -8.54946e-05 -4.32437e-05)
(1.1999 -4.52491e-05 -2.35562e-05)
(1.34224 0.107564 -0.0238568)
(1.19165 0.0208524 -0.0380295)
(1.20065 -0.00456397 -0.00981167)
(1.19917 -0.0092478 -0.00370283)
(1.19761 -0.00695544 -0.00210737)
(1.19775 -0.00454616 -0.00131634)
(1.19834 -0.00286364 -0.000859453)
(1.19884 -0.00179522 -0.000563756)
(1.19922 -0.00112706 -0.000368438)
(1.19949 -0.000710612 -0.000240872)
(1.19966 -0.000447778 -0.000156138)
(1.19978 -0.000280919 -0.000101987)
(1.19986 -0.000173624 -6.50792e-05)
(1.19991 -0.000104283 -3.91174e-05)
(1.19994 -5.67637e-05 -2.09887e-05)
(0.994967 -0.22861 -0.0263137)
(1.16472 0.00637201 -0.0183693)
(1.17897 -0.00199862 -0.0105061)
(1.18822 -0.000655733 -0.00593953)
(1.19297 -0.00027757 -0.00353142)
(1.19549 -0.000120479 -0.00213794)
(1.1969 -6.4712e-05 -0.00131513)
(1.19776 -4.32061e-05 -0.000819615)
(1.1983 -3.35338e-05 -0.000515155)
(1.19868 -3.03064e-05 -0.000324661)
(1.19894 -3.03222e-05 -0.000205157)
(1.19914 -3.11268e-05 -0.000128621)
(1.1993 -3.75871e-05 -7.90636e-05)
(1.19945 -4.54275e-05 -4.46051e-05)
(1.33829 -0.0208124 -0.017303)
(1.21031 -0.0640555 -0.0262886)
(1.18357 -0.0297225 -0.0176774)
(1.18731 -0.0115738 -0.00978007)
(1.19121 -0.00531644 -0.00548299)
(1.19439 -0.00277293 -0.00328496)
(1.19648 -0.00156362 -0.00202297)
(1.19778 -0.000919624 -0.00125924)
(1.19859 -0.000555627 -0.000790889)
(1.1991 -0.000341683 -0.000500004)
(1.19943 -0.000211541 -0.000316724)
(1.19963 -0.000129411 -0.000200535)
(1.19976 -7.6933e-05 -0.0001268)
(1.19984 -4.23011e-05 -7.8118e-05)
(1.19989 -1.80343e-05 -4.40532e-05)
(1.26101 -0.000848848 -0.0166134)
(1.21975 -0.0204186 -0.0236159)
(1.20056 -0.0179744 -0.0150601)
(1.19579 -0.0113782 -0.00806945)
(1.1954 -0.00672665 -0.00454542)
(1.19648 -0.00398489 -0.00277898)
(1.19761 -0.00239813 -0.00176507)
(1.19842 -0.00146558 -0.00112684)
(1.19897 -0.000906298 -0.000721619)
(1.19934 -0.000568038 -0.000463368)
(1.19957 -0.000356764 -0.000296177)
(1.19973 -0.000224541 -0.00018932)
(1.19983 -0.000139665 -0.000121844)
(1.19989 -8.30244e-05 -7.56425e-05)
(1.19992 -4.46028e-05 -4.33417e-05)
(1.32789 0.0879537 0.00164956)
(1.1906 -0.000903738 -0.0152144)
(1.19588 -0.00667222 -0.0100928)
(1.19921 -0.00835121 -0.00572744)
(1.19848 -0.00618576 -0.00340501)
(1.19854 -0.00407129 -0.00218847)
(1.19888 -0.00260174 -0.0014474)
(1.1992 -0.001652 -0.000956705)
(1.19946 -0.0010488 -0.00063069)
(1.19964 -0.00066682 -0.000412976)
(1.19977 -0.000425707 -0.000268129)
(1.19985 -0.000270224 -0.00017656)
(1.19991 -0.000168143 -0.000114555)
(1.19995 -0.000100382 -7.09594e-05)
(1.19997 -5.56412e-05 -4.11671e-05)
(1.2238 -0.212734 0.228308)
(0.727272 -0.373846 -0.0575436)
(1.44907 0.0194129 -0.087699)
(1.20726 -0.111143 0.0170803)
(1.10281 -0.00138097 -0.0575959)
(1.20327 -0.189506 -0.090546)
(1.1465 -0.0686096 0.00102956)
(0.97647 -0.233458 -0.0376343)
(1.14113 0.00672973 -0.0129827)
(1.16255 -0.0942415 0.0200179)
(1.1436 -0.0372149 -0.00658743)
(1.31659 -0.0264732 -0.123003)
(1.25006 -0.0307893 -0.122148)
(1.39347 -0.00306249 -0.032475)
(1.21248 -0.0577503 0.0551347)
(1.33691 -0.00591943 0.0314461)
(1.19476 -0.0266607 0.0845595)
(1.24928 -0.0201603 -0.122603)
(1.22505 0.00314296 -0.154186)
(1.32979 -0.00735006 0.0361954)
(1.19362 -0.0275391 0.0881813)
(1.32997 -0.0485088 0.0227713)
(1.1787 -0.0183421 0.0546349)
(1.17726 0.0327526 -0.0450979)
(1.35333 0.0290776 -0.0456008)
(1.17963 -0.0594971 0.0114827)
(0.711034 -0.381353 -0.056391)
(1.39445 -0.0757548 -0.0632872)
(1.20911 -0.199177 -0.0775394)
(0.74202 -0.367922 -0.02665)
(1.4151 -0.00161195 -0.0154244)
(1.22636 -0.142983 -0.012181)
(1.17103 0.0292006 -0.0461537)
(1.33065 0.0702512 -0.0190872)
(1.18791 -0.0155592 -0.000520606)
(0.739017 -0.368874 -0.0287691)
(1.40268 -0.0192518 -0.0171212)
(1.22495 -0.151774 -0.0269856)
(1.18152 0.00165916 -0.0152153)
(1.75953 -0.347881 -0.154119)
(1.81396 0.0812361 -0.162551)
(-0.529873 -0.0258501 -0.122748)
(1.07112 -0.0437631 -0.0241053)
(0.889972 0.0572177 -0.174253)
(0.484781 -0.364347 -0.252395)
(0.937699 -0.180833 0.0189743)
(1.12182 -0.125139 -0.0787124)
(0.911209 -0.176592 -0.101105)
(1.11689 -0.045467 -0.0182764)
(1.43892 -0.0359753 0.177573)
(0.564136 0.306747 -0.263446)
(1.42834 -0.0992378 -0.102291)
(1.4244 -0.0854694 0.148161)
(1.39831 0.0183568 0.00527539)
(0.718382 -0.104485 -0.316331)
(1.38198 -0.00925922 0.148193)
(0.709815 0.0419869 -0.306456)
(1.35767 -0.0400417 0.000462533)
(1.39453 -0.013335 0.158276)
(1.3521 0.0353093 -0.00610397)
(0.706771 -0.0467861 -0.304041)
(0.709844 0.208038 -0.295944)
(1.36538 -0.00247129 -0.0545312)
(1.21233 -0.0290332 -0.194781)
(1.19346 -0.00311646 0.00871447)
(1.16456 -0.0484976 0.0152476)
(1.17164 -0.0257406 0.00232085)
(1.7352 -0.390909 -0.0591146)
(-0.475881 -0.0358146 -0.0968293)
(1.95135 0.0247238 -0.0717865)
(1.71232 -0.410631 -0.0622776)
(1.96681 0.0164683 -0.0615207)
(-0.464149 -0.0349654 -0.036645)
(1.23603 -0.0200951 -0.0761439)
(1.2649 0.0687758 -0.0538574)
(1.21609 0.071264 -0.0674271)
(1.27257 -0.00196794 0.0065155)
(1.22992 -0.0204862 0.00750381)
(1.27694 0.0112926 0.00583061)
(1.2108 0.0301917 0.00440052)
(1.22901 0.104266 -0.0598893)
(1.33857 0.0547468 -0.026596)
(1.25078 0.0350284 -0.0328674)
(1.20002 0.00143294 -0.0143248)
(1.18973 -0.0153253 0.000413834)
(1.18851 -0.0113436 -0.0017307)
(1.71224 -0.394605 -0.0293981)
(-0.451377 -0.0379991 -0.0502347)
(1.95623 0.00660546 0.00491844)
(1.71432 -0.401868 -0.00744702)
(1.946 0.00743848 -0.0256238)
(-0.446613 -0.0388484 -0.0141384)
(1.22997 -0.0183287 -0.0241457)
(1.26637 0.0324433 -0.01118)
(1.21152 0.0430801 -0.0186616)
(1.2341 0.0738552 -0.015693)
(1.3243 0.0798588 -0.0172937)
(1.23615 0.0635626 -0.0129039)
(1.19391 -0.00393772 -0.0114624)
(1.62554 -0.405463 -0.195038)
(0.0450193 -0.238947 -0.338067)
(0.745222 -0.243398 -0.0144151)
(1.17546 -0.20172 -0.107977)
(-0.294339 -0.278268 -0.214965)
(1.42199 -0.181782 -0.225202)
(0.988282 0.292994 -0.460228)
(1.44017 -0.0532769 -0.116084)
(1.5033 0.0165289 -0.239782)
(1.42071 -0.066793 -0.0272593)
(1.34371 -0.192499 -0.207484)
(0.469307 -0.20492 -0.315361)
(1.40138 0.219224 0.263402)
(1.16431 -0.0532256 0.166792)
(1.09678 -0.159258 -0.0804028)
(1.31427 -0.0226094 0.122925)
(1.68243 -0.390721 -0.129394)
(-0.483145 -0.0307827 -0.070824)
(1.94204 0.0343392 -0.118907)
(1.78879 0.0991093 -0.102906)
(1.73123 -0.378615 -0.0991429)
(-0.487047 -0.026583 -0.116336)
(1.41435 -0.0309953 0.163798)
(0.711736 -0.0750216 -0.307265)
(1.36139 0.0327595 -0.00783736)
(1.38586 -0.0396527 0.0061509)
(1.40017 -0.0182257 0.151608)
(0.716788 0.0167514 -0.312744)
(1.37587 0.00139283 0.167534)
(0.704617 0.091419 -0.301318)
(1.3808 -0.00401174 0.0193538)
(1.3534 -0.0289387 0.013721)
(1.36022 -0.0448812 0.120209)
(0.705231 0.0705212 -0.306489)
(1.08287 0.157906 0.188399)
(1.11659 -0.0558279 0.0198386)
(1.22488 -0.0716314 0.0224453)
(1.35625 0.135084 -0.0965935)
(1.26337 0.00588441 -0.0814556)
(1.21682 0.178667 -0.107636)
(1.1661 0.0935672 -0.0700675)
(1.22672 -0.0401827 -0.00358933)
(1.1364 0.134032 -0.0961085)
(1.71734 -0.408074 -0.0265947)
(-0.454085 -0.03734 -0.0193242)
(1.9593 0.0101913 -0.0368786)
(1.9648 0.0092525 -0.01767)
(1.72472 -0.395022 -0.038863)
(-0.460891 -0.0367769 -0.0665576)
(1.16718 0.0617148 -0.0428665)
(1.15248 0.0444985 -0.0234903)
(1.18944 -0.0300802 0.00488957)
(1.21123 -0.00356901 -0.00281128)
(1.18192 0.0162798 -0.00466445)
(1.33398 0.093205 -0.0052301)
(1.24202 0.0530354 -0.0163116)
(1.23355 0.0815634 -0.0286368)
(1.17815 0.00910552 -0.0244521)
(1.20029 0.0134922 -0.00376507)
(1.17649 0.0248699 -0.00495605)
(1.18156 0.0404015 -0.0202077)
(1.16237 0.0367945 -0.0157535)
(1.70597 -0.396313 0.00127029)
(1.94331 0.00610182 0.0154428)
(-0.44336 -0.0391322 -0.0456912)
(1.18709 0.0325801 -0.0125999)
(1.16674 0.0337824 -0.0118782)
(1.18544 -0.0084057 -0.00560918)
(1.1936 0.0220977 -0.0068647)
(1.17239 0.0292524 -0.00751727)
(1.32111 0.0875318 0.00382503)
(1.23227 0.0720044 -0.0122207)
(1.18294 -0.00113724 -0.0140713)
(1.18842 0.0296882 -0.0133576)
(1.16904 0.0328524 -0.0127769)
(1.10864 -0.140746 0.0360052)
(0.408439 -0.0672085 -0.154033)
(0.0858831 0.141918 0.0345798)
(0.984888 -0.102706 0.204048)
(0.991736 -0.269135 -0.0725233)
(0.260904 -0.212461 -0.0980075)
(1.1613 -0.137991 -0.0564083)
(1.36412 0.152963 -0.0196272)
(1.56585 -0.0444392 -0.276816)
(1.2874 0.0412683 -0.158633)
(1.50728 0.137459 0.00838442)
(1.17864 -0.0499689 0.0138985)
(1.21782 -0.0355602 -0.118929)
(1.20781 -0.0302623 0.0250646)
(1.1693 -0.0521591 0.0386064)
(1.14928 -0.0354615 -0.0046661)
(1.16958 -0.0284958 0.0596588)
(1.16436 -0.0257581 0.00199115)
(1.251 0.00235957 -0.0554419)
(1.53146 -0.0222195 -0.0787427)
(1.25597 -0.00712746 -0.0554925)
(1.52398 0.0292873 -0.08003)
(1.20651 -0.0228364 0.0242867)
(1.20277 -0.00834181 -0.137028)
(1.20447 -0.0103621 0.0165648)
(1.16865 -0.0295109 0.0628623)
(1.16428 -0.0257585 0.00378922)
(1.16629 -0.018792 0.0398448)
(1.17451 -0.024701 0.000853676)
(1.35284 0.141166 -0.0945354)
(1.55834 -0.0130643 -0.0807216)
(1.30168 0.0616646 -0.11098)
(1.65686 0.0311671 -0.0517703)
(1.15753 0.00182686 -0.0259389)
(1.19657 -0.158294 -0.064661)
(1.18257 -0.0531158 -0.0292325)
(0.994631 -0.22855 -0.021959)
(1.16301 0.00459636 -0.0152095)
(1.19925 -0.112005 -0.0107861)
(1.17271 -0.0363987 -0.0100316)
(1.23616 -0.114609 -0.0705631)
(1.25197 -0.0107413 -0.0698289)
(1.24241 -0.0285982 -0.0834156)
(1.34963 -0.0100294 -0.00905048)
(1.24308 -0.0668131 -0.00585838)
(1.2743 -0.000438675 0.00674456)
(1.23331 -0.0214781 0.00749993)
(1.16726 0.00362467 -0.0205259)
(1.20184 -0.120052 -0.0266009)
(1.1805 -0.0407614 -0.0206122)
(1.24191 -0.0767466 -0.0266794)
(1.26038 0.000357728 -0.0182014)
(1.2357 -0.0205785 -0.0257346)
(1.10689 -0.440661 -0.0527)
(0.902211 -0.151712 0.192432)
(1.03925 -0.349177 -0.104603)
(0.337269 -0.191799 0.0675513)
(1.29111 -0.0417337 -0.20963)
(1.56971 -0.0192131 -0.270465)
(1.31279 -0.0352619 -0.213077)
(1.4128 0.0197763 -0.174791)
(1.33109 -0.56118 -0.0961346)
(0.664072 -0.372807 -0.0808756)
(-0.239325 -0.257255 -0.0966347)
(1.23975 -0.365569 -0.0504168)
(1.13375 -0.40488 -0.0923327)
(1.4393 -0.505846 -0.049942)
(-0.270828 -0.272198 -0.100228)
(1.40927 -0.282536 -0.0733201)
(1.34775 -0.177509 -0.116643)
(1.64821 0.033163 -0.114162)
(1.3953 -0.0520506 -0.0569469)
(1.56711 -0.0383562 -0.129724)
(1.26763 -0.259107 -0.149882)
(1.48944 -0.121006 -0.0750261)
(1.09936 -0.0806959 -0.0220832)
(0.984925 -0.258082 -0.129648)
(1.15131 -0.130625 -0.081905)
(1.10023 -0.0546571 0.10435)
(1.12602 -0.106167 -0.0295559)
(1.10656 -0.046575 0.0362274)
(1.02834 -0.15913 -0.0981931)
(1.26701 -0.0358814 0.27733)
(1.12619 0.183417 0.217173)
(1.25932 -0.0746489 -0.116113)
(1.13577 -0.0961483 0.214394)
(1.26609 -0.0540913 0.283024)
(1.13168 -0.0463521 0.21821)
(1.11278 -0.0463142 0.150803)
(1.26514 -0.00878165 -0.0550273)
(1.52782 0.0306647 -0.080848)
(1.25579 -0.000177642 -0.0565296)
(1.54129 -0.0180336 -0.0759468)
(1.25682 -0.0390303 0.268547)
(1.2651 -0.0363906 -0.12524)
(1.09891 -0.0245726 0.150146)
(1.11762 -0.0289138 0.193754)
(1.12181 -0.0469461 0.203757)
(1.24964 -0.0251371 0.253419)
(1.1085 -0.0265881 0.148765)
(1.23558 -0.0189871 0.247293)
(1.0963 -0.00809546 0.150602)
(1.23976 -0.00921223 -0.123518)
(1.11471 -0.0269055 0.198721)
(1.24463 -0.022556 0.26145)
(1.10819 -0.0205101 0.188677)
(1.08811 -0.00192499 0.148946)
(1.25543 0.0143843 -0.0736208)
(1.56188 0.0378552 -0.0671196)
(1.27276 0.0571888 -0.0742711)
(1.53282 -0.0261665 -0.0835297)
(1.23361 -0.0127327 0.274849)
(1.23819 -0.00561189 -0.130364)
(1.06049 0.113689 0.134216)
(1.08928 -0.0392063 0.171716)
(1.11211 -0.0182329 0.211398)
(1.21166 -0.0581862 0.216118)
(1.09119 0.0162768 0.148909)
(1.4188 -0.505024 -0.0339474)
(-0.231821 -0.277344 -0.0892895)
(1.19943 -0.38184 -0.060124)
(0.736572 -0.370453 -0.0378488)
(1.37817 -0.535134 -0.0642998)
(1.22958 -0.359481 -0.0297244)
(-0.214892 -0.261893 -0.0574444)
(1.49278 -0.148516 -0.032397)
(1.65198 -0.00526331 -0.0827156)
(1.33501 -0.149749 -0.0738962)
(1.43092 0.00520511 -0.0365196)
(1.44197 -0.202835 -0.0732735)
(1.66409 0.0188713 -0.0488558)
(1.37755 -0.0794133 -0.0286093)
(1.39406 -0.52213 -0.0385865)
(0.729577 -0.374736 -0.0393894)
(-0.201398 -0.262861 -0.0368811)
(1.22692 -0.357109 -0.0213532)
(1.21592 -0.369917 -0.0382885)
(1.40807 -0.505164 -0.0232818)
(-0.211249 -0.270276 -0.0582872)
(1.46073 -0.179559 -0.0398335)
(1.40511 -0.0345566 -0.0324079)
(1.65571 0.0129366 -0.0216425)
(1.36619 -0.0856689 -0.015416)
(1.65904 0.0019338 -0.035845)
(1.35485 -0.112969 -0.0389529)
(1.47991 -0.156538 -0.018527)
(1.39872 -0.50284 -0.0180757)
(-0.199137 -0.265488 -0.0408061)
(1.2204 -0.361083 -0.0261773)
(0.74439 -0.364791 -0.0227646)
(1.39634 -0.511502 -0.0246237)
(1.22301 -0.354069 -0.0182753)
(-0.192146 -0.261773 -0.029714)
(1.46747 -0.158634 -0.01271)
(1.65098 0.00586846 -0.0151469)
(1.35624 -0.0992174 -0.0222111)
(1.40317 -0.00555173 -0.00748567)
(1.4635 -0.168497 -0.022105)
(1.64374 0.0103608 -0.0100075)
(1.35704 -0.0876195 -0.0103403)
(1.39188 -0.502993 -0.019486)
(0.744326 -0.363442 -0.0254993)
(1.21938 -0.353961 -0.0215752)
(-0.189811 -0.261502 -0.0365036)
(1.45819 -0.162165 -0.0145993)
(1.39566 -0.0127978 -0.00941616)
(1.63923 0.00792935 -0.00555014)
(1.35116 -0.0926251 -0.0144625)
(-0.376424 0.380268 -0.199699)
(-0.570501 -0.0106543 -0.183939)
(0.0889118 0.0934741 -0.00544229)
(-0.599842 0.529672 -0.352857)
(1.89294 0.317723 -0.238337)
(2.05511 0.136562 -0.203501)
(-0.265566 0.189378 -0.299391)
(1.80066 -0.163262 -0.161296)
(1.69429 0.134102 -0.159374)
(1.80024 -0.116556 -0.149552)
(-0.187478 0.110722 -0.0483806)
(-0.490298 0.678433 -0.234253)
(1.56457 -0.443217 -0.149857)
(0.799994 -0.233904 0.0963606)
(1.9899 0.0183819 -0.216006)
(-0.320592 0.325445 -0.182422)
(0.637378 -0.351392 -0.0907916)
(-0.43247 0.0193279 -0.0109404)
(0.397496 0.0155225 -0.0105094)
(-0.263003 0.268451 -0.0980003)
(1.03039 -0.126244 -0.0653687)
(0.0359392 0.0599595 -0.00290405)
(1.10407 -0.213416 -0.126559)
(0.659908 -0.351902 -0.222918)
(1.05567 -0.25466 -0.0900401)
(1.08666 -0.18688 -0.0950321)
(0.526938 -0.317468 -0.23449)
(1.19311 0.086197 -0.164546)
(1.02832 -0.0125536 -0.341805)
(0.661523 -0.15028 -0.300206)
(1.05997 0.055999 -0.166611)
(1.15094 -0.134824 -0.377226)
(1.37253 0.126628 0.0402312)
(1.53702 0.0383526 -0.0333316)
(1.47239 0.0868284 0.0612925)
(1.2959 0.00466511 -0.0233468)
(1.2452 0.0721573 -0.149043)
(1.12998 -0.0949687 -0.388234)
(0.700908 -0.0366828 -0.311841)
(1.16992 0.0474477 -0.39269)
(1.18174 -0.00979356 -0.163749)
(1.11378 -0.0281314 -0.168141)
(1.0741 0.0749841 -0.392796)
(0.709765 -0.065871 -0.305681)
(1.11639 0.020202 -0.169172)
(1.07033 -0.089614 -0.391509)
(1.2486 -0.00764991 -0.0583118)
(1.52552 0.0342218 -0.0809224)
(1.52609 -0.027795 -0.0816308)
(1.24799 0.0122553 -0.0580715)
(1.11085 0.0234156 -0.170698)
(1.06402 -0.0770082 -0.396631)
(0.70657 0.051649 -0.305601)
(1.06841 0.0777215 -0.395787)
(1.10908 -0.0178284 -0.170032)
(1.37396 0.175538 -0.0913834)
(1.27065 0.141121 -0.121997)
(1.30951 0.119282 -0.00112556)
(1.39672 0.138456 -0.111718)
(1.19527 0.167083 -0.18591)
(1.10428 0.136454 -0.24424)
(0.733315 0.0834568 -0.308454)
(1.19533 0.0828195 -0.178095)
(1.07778 0.187142 -0.23753)
(1.49565 0.178559 -0.142971)
(1.78767 0.037024 -0.12621)
(1.45421 0.198464 -0.122301)
(1.61996 0.0922942 -0.100761)
(1.68319 0.173507 -0.1399)
(1.45415 0.138783 -0.109927)
(1.38331 0.218439 -0.100234)
(0.779649 0.257567 -0.373912)
(1.22397 0.308026 -0.211276)
(-0.190706 0.199125 -0.101928)
(0.667579 -0.391258 -0.0718315)
(-0.475044 -0.0372949 -0.0345258)
(-0.191027 0.196781 -0.0110171)
(0.698686 -0.396271 -0.0623799)
(-0.0411484 -0.0159533 -0.0716866)
(1.84935 -0.192755 -0.0731462)
(1.97003 -0.0121931 -0.0609273)
(-0.117014 0.0555167 -0.0494651)
(1.84655 -0.234559 -0.0420563)
(-0.0153623 -0.0279632 -0.0575205)
(1.85678 -0.201793 -0.06829)
(1.96981 -0.00165928 -0.0152956)
(1.85432 -0.220522 0.000263397)
(-0.0355862 -0.0166838 -0.0415639)
(-0.173392 0.18641 -0.0203634)
(0.693305 -0.379244 -0.0507259)
(-0.465863 -0.0342144 -0.0644399)
(0.697292 -0.37648 -0.0620447)
(-0.181493 0.190474 -0.0806562)
(1.38321 0.155772 0.0185686)
(1.28247 0.154935 -0.0149536)
(1.28469 0.152795 -0.00349557)
(1.38196 0.157797 -0.0343647)
(1.42325 0.173547 -0.0236017)
(1.56614 0.149608 0.00573703)
(1.42565 0.173727 -0.0106145)
(1.56169 0.147977 -0.0314863)
(1.37306 0.16683 -0.0216684)
(1.27417 0.161806 -0.0301078)
(1.3751 0.166235 -0.014074)
(1.27129 0.164074 -0.00602991)
(1.43148 0.162843 0.0214789)
(1.56497 0.137345 -0.0441007)
(1.56666 0.136372 0.034692)
(1.4302 0.164648 -0.0359353)
(-0.174179 0.185121 -0.0645467)
(0.697697 -0.386309 -0.0389521)
(-0.451144 -0.03862 -0.0134859)
(-0.166202 0.178161 0.0138634)
(0.6992 -0.387287 -0.0282112)
(-0.0229637 -0.0271744 -0.0246263)
(1.84201 -0.211825 0.000565088)
(1.95233 0.00397569 -0.0268402)
(-0.0212529 -0.025262 -0.0222712)
(1.83775 -0.213924 -0.0305856)
(-0.0177891 -0.0278728 -0.0188862)
(1.83405 -0.209277 -0.0317209)
(1.9512 0.00600117 0.0148049)
(1.83789 -0.211224 0.0127245)
(-0.0234877 -0.0266074 -0.0232469)
(-0.165511 0.178162 0.0170693)
(0.696396 -0.382984 -0.0289158)
(-0.447321 -0.0384852 -0.0446187)
(0.697008 -0.383423 -0.0329155)
(-0.174141 0.185398 -0.0628512)
(1.36968 0.166269 0.0173123)
(1.26574 0.164281 -0.00674348)
(1.2674 0.163319 -0.00526679)
(1.36802 0.167415 -0.0271983)
(1.41772 0.174432 -0.0258616)
(1.55333 0.14822 0.0283004)
(1.4193 0.173056 0.0156831)
(1.55166 0.149382 -0.0344272)
(1.36935 0.167306 -0.0239568)
(1.26901 0.163195 -0.00892691)
(1.37103 0.16587 0.0124872)
(1.26736 0.164435 -0.00439614)
(1.41776 0.173508 0.0205794)
(1.54938 0.149567 -0.0367376)
(1.55133 0.148343 0.0337529)
(1.41606 0.174673 -0.0288812)
(1.0402 -0.442397 -0.112146)
(-0.512627 -0.0630086 -0.230097)
(0.39624 -0.182738 -0.0197349)
(0.090953 -0.167968 -0.0516027)
(1.45121 -0.494155 -0.0931777)
(1.09207 -0.195544 -0.0661621)
(-0.123349 0.204169 0.0769672)
(1.16699 -0.326302 -0.102017)
(1.24512 -0.230118 -0.00752074)
(1.47206 -0.535813 -0.120517)
(1.39477 -0.475657 -0.121778)
(1.1248 -0.486351 0.0867622)
(1.28358 -0.308451 -0.0855387)
(1.30618 -0.00551311 -0.155822)
(1.63398 0.190637 -0.211802)
(1.77983 0.126125 -0.128843)
(1.28942 0.0493833 -0.171563)
(1.18318 -0.0616202 -0.307117)
(1.12598 -0.190952 -0.491651)
(1.46127 -0.0411448 -0.61577)
(1.15548 -0.0765266 -0.256768)
(1.08066 -0.188863 -0.512673)
(1.25975 -0.0526462 -0.146501)
(1.42515 -0.368496 -0.0492596)
(0.834681 -0.364419 -0.0993612)
(1.72599 0.050046 -0.0747944)
(1.12196 -0.241938 -0.185648)
(1.13369 -0.369236 -0.101773)
(1.09998 -0.437687 -0.045103)
(1.14447 -0.316551 -0.152329)
(-0.0970109 0.226333 -0.00348471)
(1.24367 -0.301395 0.129598)
(1.11607 -0.373765 -0.109975)
(1.32149 -0.306089 0.0445136)
(1.13053 -0.394732 -0.141968)
(1.30063 -0.40967 -0.0418929)
(0.931735 -0.413426 -0.0737206)
(1.2495 -0.327055 0.0486012)
(1.06109 -0.324361 -0.176006)
(1.19064 -0.214255 0.0465715)
(-0.193839 0.221754 -0.0785718)
(0.6795 -0.370802 -0.056939)
(-0.480305 -0.0271651 -0.0795959)
(-0.202385 0.21013 -0.0930523)
(0.727898 -0.366055 -0.0979765)
(0.0233679 -0.0552532 -0.10322)
(1.93084 -0.0317706 -0.0518149)
(1.84439 -0.176673 -0.121987)
(-0.0916981 0.0311711 -0.0491965)
(1.82469 -0.253771 0.0184142)
(-0.0516601 -0.0133815 -0.145501)
(1.81261 -0.136813 -0.0872035)
(1.93725 -0.0550014 -0.0910706)
(-0.241564 0.190855 -0.0719698)
(1.8281 -0.286544 -0.00582506)
(-0.230423 0.244126 -0.16116)
(0.622455 -0.381124 -0.122978)
(-0.505658 -0.0353518 -0.0518926)
(-0.237764 0.239511 -0.014068)
(0.716041 -0.403961 -0.123936)
(1.26725 -0.0056799 -0.0533629)
(1.54841 -0.00644309 -0.0496773)
(1.28462 0.000703598 -0.0385242)
(1.53493 0.0299614 -0.0746857)
(1.12332 0.0165928 -0.170944)
(1.07759 -0.0928693 -0.39336)
(0.712346 0.0297966 -0.308294)
(1.11936 -0.0298841 -0.169638)
(1.08166 0.0690976 -0.397114)
(1.13292 -0.0297929 -0.169571)
(1.10086 0.0685153 -0.398996)
(0.715601 -0.0873943 -0.310547)
(1.14235 0.0248847 -0.170572)
(1.09211 -0.0969714 -0.391593)
(1.25603 0.0200911 -0.0593983)
(1.52489 -0.0244471 -0.0801008)
(1.25147 0.00242035 -0.0622731)
(1.53388 0.0321013 -0.073697)
(1.12356 0.0488815 -0.185529)
(1.05173 0.0152695 -0.458084)
(0.707753 0.109674 -0.308592)
(1.11765 0.0368678 -0.197948)
(1.07014 0.0940989 -0.415874)
(1.11104 -0.00702765 -0.175309)
(1.06943 0.0870677 -0.399185)
(0.704909 -0.0102981 -0.303439)
(1.11628 0.0336802 -0.174628)
(1.05665 -0.0620237 -0.413504)
(1.18481 -0.0940194 0.0790227)
(1.20467 0.0822281 -0.161397)
(1.24605 -0.00834974 0.0458749)
(1.16787 0.0118268 -0.188937)
(1.16863 0.245156 -0.208678)
(1.13474 0.113396 0.105856)
(1.19317 0.297541 -0.200433)
(1.22222 -0.019851 0.183519)
(1.36721 0.168093 -0.0246699)
(1.26202 0.182805 -0.0693413)
(1.34593 0.197357 -0.0849023)
(1.25365 0.17002 -0.015361)
(1.4409 0.157162 0.0137862)
(1.5827 0.127271 -0.0571331)
(1.44403 0.155908 -0.051916)
(1.5835 0.130717 0.0265045)
(1.42325 0.17269 -0.0283426)
(1.56785 0.171754 -0.0517379)
(1.40413 0.204289 -0.0811527)
(1.57544 0.143265 -0.0375208)
(1.39105 0.149407 0.0133224)
(1.29077 0.146372 -0.0340601)
(1.39462 0.149273 -0.0509086)
(1.29691 0.143592 -0.00409867)
(1.14475 0.11723 -0.0130424)
(1.18646 0.137354 -0.0598169)
(1.15281 0.101818 -0.0573939)
(1.17169 0.144723 -0.014849)
(1.19867 0.0113854 0.033845)
(1.22509 0.0804961 -0.0450612)
(1.23113 0.0721997 0.0116406)
(1.19657 0.020068 -0.0606863)
(-0.167014 0.17902 0.00753031)
(0.697495 -0.383104 -0.0346189)
(-0.45501 -0.0369211 -0.0508532)
(-0.175265 0.185549 -0.0681245)
(0.698216 -0.382925 -0.0412989)
(-0.0173156 -0.0280017 -0.0290987)
(1.96432 0.00510125 0.00634245)
(1.84737 -0.208414 -0.0431117)
(-0.0251239 -0.0252822 -0.0282323)
(1.84989 -0.213568 0.00758206)
(-0.0259409 -0.0255688 -0.03675)
(1.85016 -0.21029 -0.0231974)
(1.96438 -0.000490621 -0.0367164)
(-0.036378 -0.0133115 -0.0344738)
(1.84587 -0.220378 -0.0361428)
(-0.177302 0.187184 -0.075274)
(0.693871 -0.388833 -0.0551427)
(-0.460458 -0.0378367 -0.0204019)
(-0.170294 0.180624 0.00148408)
(0.701177 -0.391557 -0.0381211)
(1.19337 0.0371049 0.0116812)
(1.21808 0.0946862 -0.0202348)
(1.21897 0.0924353 0.001655)
(1.19396 0.0383341 -0.0282061)
(1.16999 0.0749958 0.00118455)
(1.20161 0.115699 -0.0340027)
(1.19873 0.119285 -0.00400911)
(1.1712 0.072668 -0.0408633)
(1.37225 0.165761 -0.0224748)
(1.27326 0.161214 -0.0149882)
(1.3742 0.164176 0.00490429)
(1.27146 0.162983 -0.00419136)
(1.42364 0.168662 0.0213158)
(1.55637 0.144021 -0.0386112)
(1.42247 0.170181 -0.0298517)
(1.55759 0.14258 0.0340146)
(1.42106 0.172715 -0.0244213)
(1.55844 0.146864 0.0209894)
(1.42296 0.171409 0.00805849)
(1.55614 0.147401 -0.033038)
(1.37555 0.161606 0.0182948)
(1.27405 0.160139 -0.00788407)
(1.37436 0.163118 -0.0280883)
(1.27555 0.158882 -0.00365878)
(1.1771 0.0630273 -0.00274334)
(1.20473 0.111047 -0.0177042)
(1.17834 0.0619831 -0.0224697)
(1.20291 0.112659 -0.00451219)
(1.18749 0.0475199 0.00316335)
(1.20974 0.102783 -0.0116201)
(1.2106 0.101848 -0.00153881)
(1.18745 0.047972 -0.0163927)
(1.83039 -0.210227 0.0112444)
(1.93789 0.00560289 -0.0208046)
(-0.0186162 -0.0270061 -0.0177877)
(0.695305 -0.38284 -0.0342994)
(-0.442668 -0.0396564 -0.0158138)
(-0.164859 0.178036 0.0170236)
(1.18242 0.052537 -0.00308754)
(1.20228 0.107613 -0.010148)
(1.20342 0.107024 -0.00479544)
(1.18207 0.0527862 -0.0133414)
(1.17892 0.0583154 -0.00708398)
(1.20313 0.110088 -0.0103869)
(1.20159 0.110924 -0.00634905)
(1.17996 0.0577994 -0.0126374)
(1.26247 0.165678 -0.00897049)
(1.36597 0.16883 0.0140286)
(1.26037 0.166671 -0.00824619)
(1.54729 0.151836 0.0318945)
(1.414 0.176186 0.0176636)
(1.1784 0.0567238 -0.0128864)
(1.199 0.110469 -0.0100032)
(1.17915 0.0563696 -0.0109843)
(1.1974 0.111177 -0.0111375)
(0.602054 -0.164916 -0.196394)
(0.599368 -0.0471335 -0.233667)
(0.429747 -0.276532 -0.0291446)
(-0.186801 0.238799 -0.115245)
(0.911059 -0.10088 -0.427285)
(1.15985 -0.00304882 0.00497999)
(1.15228 -0.0472539 0.0144724)
(1.17266 -0.0162313 0.00386704)
(1.14171 0.00812477 -0.0114659)
(1.1624 -0.00252482 -0.00803714)
(1.14765 -0.0274796 -0.00939389)
(1.16936 -0.0136222 -0.00698383)
(1.02234 0.346971 -0.119999)
(1.42656 0.36856 -0.201346)
(1.20254 0.0188943 -0.231489)
(1.19932 -0.033014 -0.227662)
(1.30847 0.0863541 -0.256126)
(1.29112 0.0546502 -0.254319)
(0.442259 -0.0275871 -0.175986)
(0.296447 -0.31445 -0.0365836)
(0.0161053 -0.033952 -0.08895)
(1.6504 0.193546 -0.392545)
(1.54883 0.292136 -0.275971)
(1.32205 -0.310918 -0.177338)
(1.31451 -0.175368 0.0756439)
(1.29047 -0.111562 0.297597)
(1.30113 -0.245847 -0.264217)
(1.25899 -0.309422 -0.184502)
(1.35113 -0.19002 -0.277439)
(1.26251 -0.143206 0.0675381)
(1.0891 -0.0211433 -0.00501141)
(1.02127 0.00550873 -0.101742)
(1.10508 -0.042839 -0.0422735)
(1.10486 -0.00487463 -0.000221096)
(1.1024 -0.0190176 -0.0103949)
(1.03134 -0.0923114 -0.0708339)
(1.11381 -0.00678959 0.000772131)
(1.2076 -0.0357733 -0.230983)
(1.19864 0.0156134 -0.228687)
(1.26251 0.0295713 -0.246462)
(1.26584 0.0663109 -0.244865)
(-0.145513 0.337012 -0.179023)
(1.8232 -0.224322 -0.115235)
(1.77826 -0.274572 -0.068878)
(1.25366 -0.4382 0.00461488)
(1.08956 -0.248893 0.111453)
(1.79736 -0.156517 -0.121156)
(0.0940556 0.183038 -0.0189248)
(1.10765 -0.0232499 0.044074)
(0.67053 0.029447 -0.201028)
(0.743927 -0.00630705 -0.153762)
(1.14737 -0.0320789 -0.156584)
(1.11276 -0.0188134 -0.0526653)
(0.470771 -0.143371 -0.0963221)
(1.15723 -0.0617947 -0.165643)
(0.990386 0.0101588 0.123101)
(0.542762 -0.0369229 -0.0617939)
(1.23253 -0.0266149 0.488849)
(0.565718 0.0143493 -0.261636)
(1.08138 0.070805 0.407747)
(1.17099 -0.0720041 0.177337)
(0.47034 -0.0828672 -0.0607923)
(1.2082 0.0635093 -0.238621)
(1.19747 0.0348495 -0.226325)
(1.19634 -0.085106 0.00336209)
(1.2542 0.0912921 0.357441)
(0.71978 0.0106815 -0.321763)
(0.610129 -0.0732861 -0.0842134)
(1.25996 -0.159584 0.349745)
(1.1884 0.0315983 0.0119287)