/*--------------------------------*- C++ -*----------------------------------*\
| =========                 |                                                 |
| \\      /  F ield         | OpenFOAM: The Open Source CFD Toolbox           |
|  \\    /   O peration     | Version:  2012                                  |
|   \\  /    A nd           | Website:  www.openfoam.com                      |
|    \\/     M anipulation  |                                                 |
\*---------------------------------------------------------------------------*/
FoamFile
{
    version     2.0;
    format      ascii;
    class       volVectorField;
    location    "0.105/solid";
    object      D_0_0_0;
}
// * * * * * * * * * * * * * * * * * * * * * * * * * * * * * * * * * * * * * //

dimensions      [0 1 0 0 0 0 0];


internalField   nonuniform List<vector> 
3125
(
(3.65402e-12 -2.55109e-13 1.81801e-11)
(-7.46093e-07 -1.03889e-06 -9.4015e-07)
(-3.39703e-11 -7.59937e-11 1.23819e-11)
(-1.6349e-08 3.01649e-09 -1.91544e-08)
(-4.92883e-06 -1.07401e-05 -2.30489e-06)
(-2.57599e-06 -5.34207e-06 -1.77538e-06)
(-9.70218e-13 -4.11525e-13 4.22851e-11)
(-2.10563e-11 -5.21391e-11 1.4937e-11)
(3.62871e-12 -2.752e-13 1.81933e-11)
(-3.91807e-11 -1.03963e-10 4.41027e-11)
(-1.0946e-12 -9.16364e-13 4.24212e-11)
(-7.41837e-07 -1.06775e-06 -9.20089e-07)
(-8.03048e-11 -2.00144e-10 4.33402e-11)
(-1.47774e-09 -5.10066e-09 1.24947e-09)
(-6.00392e-07 -1.26747e-06 -5.06581e-08)
(-2.52896e-08 -6.35022e-09 -4.28062e-08)
(-7.12835e-07 -1.02667e-06 -8.0878e-07)
(-2.5492e-08 1.17871e-08 -2.94869e-08)
(-6.94838e-07 -1.05038e-06 -7.26322e-07)
(1.15732e-09 -3.05755e-09 1.83327e-08)
(-5.8427e-07 -1.27179e-06 2.79934e-07)
(-1.38354e-08 1.24834e-08 -2.35344e-08)
(-8.2416e-07 -1.217e-06 -9.96434e-07)
(-2.44117e-06 -5.02506e-06 -1.73332e-06)
(-8.20033e-07 -1.24568e-06 -9.75593e-07)
(-2.29253e-06 -5.09728e-06 -9.62476e-08)
(-7.59774e-07 -1.62467e-06 -5.80665e-08)
(-2.4375e-06 -5.04531e-06 -1.69973e-06)
(-7.9116e-07 -1.20495e-06 -8.56748e-07)
(-2.41839e-06 -5.01577e-06 -1.49499e-06)
(-7.73354e-07 -1.22857e-06 -7.69577e-07)
(-2.28142e-06 -5.10054e-06 5.00086e-07)
(-7.4343e-07 -1.62883e-06 3.12236e-07)
(-2.40513e-06 -5.03209e-06 -1.34812e-06)
(-4.92424e-06 -1.07467e-05 -2.25717e-06)
(-2.56511e-06 -5.71034e-06 -9.96064e-08)
(-2.57229e-06 -5.36153e-06 -1.74089e-06)
(-4.78053e-06 -1.05759e-05 -1.09909e-07)
(-4.92198e-06 -1.07336e-05 -2.00718e-06)
(-2.55413e-06 -5.33295e-06 -1.53206e-06)
(-4.91476e-06 -1.07374e-05 -1.81765e-06)
(-2.55564e-06 -5.71347e-06 5.21681e-07)
(-2.54123e-06 -5.34857e-06 -1.38191e-06)
(-4.78717e-06 -1.05782e-05 6.39751e-07)
(-5.10504e-06 -1.11331e-05 -2.33365e-06)
(-5.10037e-06 -1.11388e-05 -2.28507e-06)
(-5.09921e-06 -1.11268e-05 -2.03354e-06)
(-5.09236e-06 -1.11298e-05 -1.842e-06)
(-5.34254e-12 -1.26777e-10 5.54387e-11)
(-1.27623e-12 -1.79806e-11 5.10778e-11)
(-2.13297e-11 -2.49388e-10 5.877e-11)
(2.49164e-10 -8.2907e-10 9.30155e-11)
(-4.84011e-10 -1.73386e-09 2.51569e-10)
(-3.13361e-07 -1.28213e-07 -5.21292e-07)
(-5.77751e-10 -5.29112e-10 -4.56545e-11)
(-2.67474e-07 -5.15125e-08 -4.58364e-07)
(-7.36279e-10 -6.1254e-10 -9.08446e-11)
(-3.75873e-06 -8.08973e-06 -2.08107e-06)
(-3.60132e-06 -7.72785e-06 -2.04582e-06)
(-2.8109e-12 -3.57339e-13 4.82656e-11)
(-4.62842e-12 -4.16751e-13 5.28289e-11)
(1.72855e-12 -5.5332e-12 1.80283e-11)
(2.41565e-12 -3.85908e-12 1.81726e-11)
(-2.69681e-12 -9.23128e-13 4.85968e-11)
(-1.82037e-12 -9.13356e-12 5.02443e-11)
(-2.01472e-11 -1.29816e-10 5.98959e-11)
(-5.20498e-12 -1.49064e-11 4.33363e-11)
(-4.71212e-12 -1.94522e-11 5.5539e-11)
(-4.56854e-12 -1.07788e-12 5.31391e-11)
(-2.9715e-12 -7.65609e-12 4.30567e-11)
(-4.43899e-12 -9.9456e-12 5.474e-11)
(-6.36739e-07 -1.17437e-06 -5.48546e-07)
(-3.07158e-07 -1.5452e-07 -5.04954e-07)
(-2.56524e-07 -3.68943e-07 -3.17001e-07)
(-4.93608e-11 -2.48079e-10 6.35365e-11)
(-9.77474e-10 -1.11914e-09 3.68969e-11)
(-7.73639e-10 -1.5226e-09 2.91676e-10)
(-8.1838e-12 -2.05402e-09 1.25218e-11)
(-1.33195e-07 -2.52512e-07 -1.53015e-08)
(-1.67266e-09 2.61545e-09 -1.53193e-08)
(-1.48447e-07 -2.1418e-07 -1.78439e-07)
(-1.25986e-09 -5.51588e-09 -3.22735e-10)
(-6.21065e-07 -1.20928e-06 -4.29526e-07)
(-2.23339e-07 -4.4269e-07 -2.60106e-08)
(-2.40868e-07 -3.96985e-07 -2.46455e-07)
(-2.61077e-07 -7.65322e-08 -4.42422e-07)
(-1.68843e-09 -3.25425e-09 -9.51155e-10)
(-3.89032e-09 3.94623e-09 -2.10491e-08)
(-1.62545e-07 -1.90999e-07 -2.3138e-07)
(-1.874e-09 -5.37391e-09 -2.96977e-10)
(-2.82269e-07 -1.15006e-07 -4.56262e-07)
(-2.37601e-07 -3.81873e-08 -4.04008e-07)
(-5.88359e-07 -1.15753e-06 -1.93562e-07)
(-2.64026e-07 -1.35722e-07 -4.08894e-07)
(-2.16851e-07 -3.48581e-07 -1.11096e-07)
(-1.22377e-07 -2.58081e-07 1.36476e-07)
(3.41898e-09 1.0344e-08 -1.1986e-09)
(-1.21666e-07 -2.00969e-07 -2.107e-08)
(-5.80563e-07 -1.19757e-06 -6.4376e-08)
(-2.09992e-07 -4.46704e-07 1.74661e-07)
(-2.08255e-07 -3.82404e-07 -3.17335e-08)
(-2.19718e-07 -5.71984e-08 -3.61821e-07)
(2.07888e-09 1.57011e-08 -9.2374e-09)
(-1.29835e-07 -1.71702e-07 -8.25915e-08)
(-1.47911e-06 -2.75057e-06 -1.36529e-06)
(-1.58747e-06 -3.00703e-06 -1.41439e-06)
(-7.95776e-07 -1.5297e-06 -6.20142e-07)
(-1.47548e-06 -2.77634e-06 -1.33868e-06)
(-1.36473e-06 -2.82814e-06 -8.18958e-07)
(-1.55127e-06 -3.41896e-06 -8.30083e-08)
(-2.30915e-06 -5.0544e-06 -8.22552e-07)
(-1.5702e-06 -3.36402e-06 -6.90883e-07)
(-7.80496e-07 -1.5651e-06 -4.86096e-07)
(-1.33132e-06 -2.91919e-06 -7.75315e-08)
(-1.35089e-06 -2.86174e-06 -6.42858e-07)
(-1.58386e-06 -3.0322e-06 -1.38692e-06)
(-2.32099e-06 -5.02831e-06 -1.0482e-06)
(-1.58354e-06 -3.33186e-06 -8.80048e-07)
(-1.44977e-06 -2.73982e-06 -1.17378e-06)
(-1.55885e-06 -2.99645e-06 -1.21633e-06)
(-7.46935e-07 -1.51337e-06 -2.20221e-07)
(-1.43382e-06 -2.76105e-06 -1.05623e-06)
(-1.31872e-06 -2.81334e-06 -2.97647e-07)
(-1.53653e-06 -3.42259e-06 4.27611e-07)
(-2.27881e-06 -5.04548e-06 -1.53925e-07)
(-1.53287e-06 -3.35408e-06 -1.19886e-07)
(-7.3943e-07 -1.55375e-06 -7.53728e-08)
(-1.31582e-06 -2.92295e-06 4.00816e-07)
(-1.31191e-06 -2.85145e-06 -1.08659e-07)
(-1.54321e-06 -3.01717e-06 -1.09481e-06)
(-2.28492e-06 -5.01548e-06 -3.95118e-07)
(-1.53949e-06 -3.31755e-06 -3.22639e-07)
(-3.75462e-06 -8.10247e-06 -2.03946e-06)
(-4.79827e-06 -1.05869e-05 -1.39154e-06)
(-3.79168e-06 -8.36096e-06 -1.27993e-06)
(-2.58089e-06 -5.67278e-06 -8.62386e-07)
(-3.45257e-06 -7.68569e-06 -1.06689e-07)
(-3.46571e-06 -7.66733e-06 -9.70127e-07)
(-3.59727e-06 -7.74146e-06 -2.0051e-06)
(-2.59223e-06 -5.6492e-06 -1.09931e-06)
(-3.4756e-06 -7.65229e-06 -1.23827e-06)
(-4.79019e-06 -1.05889e-05 -1.08769e-06)
(-3.77001e-06 -8.38392e-06 -1.08114e-07)
(-3.78227e-06 -8.37287e-06 -1.00223e-06)
(-3.74471e-06 -8.08204e-06 -1.80421e-06)
(-3.58628e-06 -7.71998e-06 -1.77255e-06)
(-3.73481e-06 -8.09152e-06 -1.63085e-06)
(-4.7925e-06 -1.05779e-05 -5.67955e-07)
(-3.77356e-06 -8.35052e-06 -5.06948e-07)
(-2.55342e-06 -5.6642e-06 -1.65356e-07)
(-3.44909e-06 -7.68846e-06 5.79139e-07)
(-3.44812e-06 -7.65974e-06 -1.9967e-07)
(-3.576e-06 -7.73026e-06 -1.60181e-06)
(-2.55937e-06 -5.63685e-06 -4.18418e-07)
(-3.45355e-06 -7.64138e-06 -4.85549e-07)
(-4.78782e-06 -1.05826e-05 -2.44681e-07)
(-3.76886e-06 -8.38657e-06 5.95942e-07)
(-3.7683e-06 -8.36561e-06 -2.11048e-07)
(1.85103e-11 -8.38463e-11 4.3197e-11)
(9.4827e-12 -4.32587e-11 4.11578e-11)
(3.31551e-11 -1.68585e-10 4.62896e-11)
(8.85804e-11 -2.55926e-10 5.05012e-11)
(5.72615e-11 -3.26956e-10 5.78786e-11)
(-1.03658e-12 -6.78524e-14 1.87059e-12)
(-5.36213e-07 -5.73364e-07 -7.65935e-07)
(-2.27551e-11 -2.08999e-11 -7.24198e-12)
(-1.10697e-10 -1.81158e-10 6.20536e-12)
(-6.50296e-11 -5.21073e-11 -2.36712e-11)
(-1.02865e-07 8.57868e-08 -1.77604e-07)
(-2.90574e-10 -4.22154e-10 4.02685e-10)
(-8.91711e-10 -4.26103e-10 -3.29325e-10)
(-4.41332e-06 -9.58116e-06 -2.21384e-06)
(-2.99842e-06 -6.33071e-06 -1.89639e-06)
(-1.68403e-12 -1.47513e-13 3.6572e-11)
(-4.29469e-12 -3.95547e-13 5.21566e-11)
(-1.61972e-11 -1.50518e-11 -4.59149e-12)
(-4.99116e-12 -2.07794e-11 1.69081e-11)
(-5.88645e-12 -5.64754e-12 -4.90964e-13)
(-1.04798e-12 -9.75763e-14 1.86152e-12)
(3.4443e-12 -1.00444e-12 1.82588e-11)
(-1.06972e-12 -2.79543e-13 1.77481e-12)
(-1.53642e-12 -4.95237e-13 3.68497e-11)
(-1.27636e-12 -1.20912e-12 3.72234e-11)
(-3.22999e-11 -1.09724e-10 5.48854e-11)
(-1.92232e-11 -5.49896e-11 4.37915e-11)
(-1.71191e-11 -5.95252e-11 5.43555e-11)
(-4.35022e-12 -9.73125e-13 5.23631e-11)
(-1.36539e-12 -1.92149e-12 4.26067e-11)
(-4.49522e-12 -2.07949e-12 5.26255e-11)
(-6.99877e-07 -1.16562e-06 -7.15104e-07)
(-5.31404e-07 -6.02134e-07 -7.48003e-07)
(-4.87375e-07 -6.9856e-07 -5.7771e-07)
(-6.55645e-11 -2.07297e-10 5.45272e-11)
(-1.79878e-10 -3.65042e-10 4.71466e-11)
(-1.45329e-10 -3.58216e-10 6.12883e-11)
(6.19068e-09 -2.32442e-08 -1.69653e-08)
(-1.75289e-08 -1.1073e-08 2.71001e-08)
(-8.05455e-10 2.38747e-10 -4.09353e-09)
(-1.70207e-08 -6.98473e-09 -3.45651e-10)
(3.03967e-09 -1.23837e-08 -1.56658e-08)
(-6.02313e-07 -1.25487e-06 -1.79419e-07)
(-4.5747e-07 -9.50383e-07 -4.28915e-08)
(-4.59069e-07 -9.38386e-07 -1.54278e-07)
(-9.08928e-08 8.54044e-08 -1.58426e-07)
(-2.25516e-08 -2.27505e-09 -1.42369e-08)
(-1.92543e-08 4.89448e-09 -3.10026e-08)
(-5.65362e-08 3.76944e-08 -1.22551e-07)
(-1.85049e-08 -1.38644e-08 -2.35779e-08)
(-5.02822e-07 -5.60623e-07 -6.61076e-07)
(-9.15063e-08 9.98806e-08 -1.88259e-07)
(-6.64776e-07 -1.15254e-06 -5.22889e-07)
(-4.84418e-07 -5.8404e-07 -5.93254e-07)
(-4.53062e-07 -6.84842e-07 -4.23317e-07)
(-1.4589e-08 -2.63944e-08 5.04711e-08)
(3.2416e-09 8.9247e-10 1.22628e-08)
(-1.11894e-08 -1.79601e-08 3.13741e-08)
(-5.78985e-07 -1.25398e-06 1.69645e-07)
(-4.41853e-07 -9.54802e-07 2.46213e-07)
(-4.36651e-07 -9.37383e-07 1.50445e-07)
(-8.23149e-08 8.98805e-08 -1.69568e-07)
(-1.9241e-09 1.04275e-08 -1.31332e-08)
(-4.76302e-08 4.73949e-08 -1.04226e-07)
(-1.08206e-06 -1.81526e-06 -1.15992e-06)
(-2.05552e-06 -4.11507e-06 -1.60192e-06)
(-7.78758e-07 -1.34321e-06 -7.58897e-07)
(-1.07823e-06 -1.84301e-06 -1.13667e-06)
(-1.03904e-06 -1.93791e-06 -8.87129e-07)
(-2.03237e-06 -4.50983e-06 -9.23654e-08)
(-2.29447e-06 -5.08836e-06 -3.43663e-07)
(-2.03444e-06 -4.49966e-06 -3.26818e-07)
(-7.61906e-07 -1.6117e-06 -2.03606e-07)
(-9.35072e-07 -2.02022e-06 -6.50347e-08)
(-9.37325e-07 -2.00712e-06 -2.26767e-07)
(-2.05192e-06 -4.13757e-06 -1.57096e-06)
(-2.40644e-06 -5.11393e-06 -1.3333e-06)
(-2.01881e-06 -4.2142e-06 -1.23112e-06)
(-1.05029e-06 -1.80376e-06 -9.96692e-07)
(-2.03008e-06 -4.10523e-06 -1.37968e-06)
(-7.43697e-07 -1.33033e-06 -5.54668e-07)
(-1.03319e-06 -1.82667e-06 -8.95955e-07)
(-1.00479e-06 -1.92562e-06 -6.48982e-07)
(-2.01983e-06 -4.51321e-06 4.77225e-07)
(-2.27743e-06 -5.08766e-06 2.89119e-07)
(-2.01559e-06 -4.49893e-06 2.77407e-07)
(-7.38152e-07 -1.61082e-06 1.8787e-07)
(-9.18762e-07 -2.02424e-06 3.43146e-07)
(-9.13563e-07 -2.00626e-06 2.05148e-07)
(-2.01577e-06 -4.12358e-06 -1.24314e-06)
(-2.38157e-06 -5.10396e-06 -9.8572e-07)
(-1.99098e-06 -4.20367e-06 -9.07038e-07)
(-4.40895e-06 -9.59037e-06 -2.1687e-06)
(-4.90327e-06 -1.07643e-05 -1.77351e-06)
(-4.38611e-06 -9.61788e-06 -1.70359e-06)
(-2.56692e-06 -5.70287e-06 -3.59472e-07)
(-2.84964e-06 -6.34724e-06 -1.02456e-07)
(-2.85129e-06 -6.34141e-06 -3.74264e-07)
(-2.99459e-06 -6.34773e-06 -1.85923e-06)
(-2.54184e-06 -5.42714e-06 -1.36562e-06)
(-2.96615e-06 -6.40451e-06 -1.45944e-06)
(-4.78113e-06 -1.05831e-05 -4.43042e-07)
(-4.43446e-06 -9.83051e-06 -1.09696e-07)
(-4.43524e-06 -9.83524e-06 -4.33811e-07)
(-4.4034e-06 -9.57416e-06 -1.92416e-06)
(-2.97942e-06 -6.32213e-06 -1.63919e-06)
(-4.39503e-06 -9.5804e-06 -1.74111e-06)
(-4.89752e-06 -1.07573e-05 -1.33836e-06)
(-4.37657e-06 -9.61035e-06 -1.28035e-06)
(-2.5519e-06 -5.70219e-06 2.99959e-07)
(-2.84199e-06 -6.35025e-06 5.42037e-07)
(-2.83851e-06 -6.34076e-06 3.09949e-07)
(-2.96762e-06 -6.33553e-06 -1.47973e-06)
(-2.51804e-06 -5.41737e-06 -1.01068e-06)
(-2.94565e-06 -6.3953e-06 -1.08417e-06)
(-4.78527e-06 -1.05826e-05 3.53522e-07)
(-4.43838e-06 -9.83292e-06 6.26215e-07)
(-4.43622e-06 -9.83472e-06 3.48063e-07)
(-5.07992e-06 -1.11529e-05 -1.79532e-06)
(-5.07548e-06 -1.11461e-05 -1.35656e-06)
(1.63449e-12 -1.11952e-11 3.89825e-11)
(4.45686e-12 -2.20196e-11 3.99422e-11)
(1.06596e-11 -1.11349e-10 4.96426e-11)
(-1.24012e-12 -6.71e-11 5.32495e-11)
(6.64696e-12 -5.76644e-11 4.77333e-11)
(1.42249e-12 -1.5036e-11 4.55818e-11)
(-7.65607e-13 -3.47533e-11 5.20992e-11)
(3.53183e-12 -2.94269e-11 4.65917e-11)
(1.23569e-11 -2.24034e-10 5.22465e-11)
(-6.68384e-11 -4.58994e-10 7.77883e-11)
(5.46287e-12 -4.28146e-10 6.62905e-11)
(1.39469e-10 -5.195e-10 5.10721e-11)
(8.70205e-11 -1.38397e-09 1.46478e-10)
(7.08941e-11 -7.47014e-10 6.68045e-11)
(-1.96298e-10 -1.01983e-09 9.90525e-11)
(-1.56601e-10 -1.66864e-09 1.93365e-10)
(-4.86795e-11 -9.59731e-10 7.86626e-11)
(-4.74478e-07 -4.42389e-07 -7.06168e-07)
(-1.69547e-10 -2.66307e-10 -2.03405e-12)
(-2.45512e-10 -1.36284e-10 -9.41255e-11)
(-9.10422e-11 -7.03763e-11 -3.4179e-11)
(-1.43132e-07 8.21252e-08 -2.49282e-07)
(-3.46155e-09 -9.67225e-10 -2.8928e-10)
(-3.32261e-10 -1.6909e-10 -1.30565e-10)
(-7.50605e-10 -1.89792e-10 -3.00544e-10)
(-4.24605e-06 -9.20213e-06 -2.18188e-06)
(-3.14501e-06 -6.67199e-06 -1.93502e-06)
(-1.47214e-12 -2.55464e-13 4.28802e-11)
(-5.3667e-12 -4.30842e-13 5.47969e-11)
(-1.98453e-12 -1.4339e-11 1.75734e-11)
(-2.03362e-12 -1.50259e-12 1.27452e-12)
(-4.34082e-12 -4.05361e-12 1.91217e-13)
(3.29997e-12 -1.38029e-12 1.82466e-11)
(-1.71467e-12 -1.0773e-12 1.46411e-12)
(-1.12737e-12 -3.93235e-13 1.72531e-12)
(8.56738e-14 -5.57681e-12 3.82541e-11)
(-7.94462e-13 -2.70514e-12 3.76874e-11)
(-1.32546e-12 -7.16693e-13 4.3197e-11)
(-2.50082e-12 -2.12624e-12 4.90533e-11)
(-1.06894e-12 -1.70345e-12 4.36345e-11)
(1.42266e-13 -7.55934e-12 4.47741e-11)
(-2.21827e-12 -4.53617e-12 4.95966e-11)
(-6.21722e-13 -3.71251e-12 4.41561e-11)
(-3.02719e-11 -1.2375e-10 6.0441e-11)
(-9.45866e-12 -7.04168e-11 5.75623e-11)
(-1.56255e-11 -6.79436e-11 5.85945e-11)
(-9.83982e-12 -2.8679e-11 4.36109e-11)
(-7.02295e-12 -1.65006e-11 5.37892e-11)
(-1.02486e-11 -3.14823e-11 5.41365e-11)
(-5.79639e-12 -3.7111e-11 5.64621e-11)
(-7.09574e-12 -1.90324e-11 5.70997e-11)
(-9.62636e-12 -3.6129e-11 5.77944e-11)
(-5.38129e-12 -1.09976e-12 5.50659e-11)
(-4.47067e-12 -2.38868e-12 5.35409e-11)
(-5.4512e-12 -2.38201e-12 5.54031e-11)
(-1.901e-12 -3.87387e-12 4.28255e-11)
(-5.52182e-12 -8.4609e-12 5.33587e-11)
(-4.8197e-12 -4.26653e-12 5.2958e-11)
(-4.4052e-12 -4.97244e-12 5.407e-11)
(-6.0428e-12 -9.76338e-12 5.64394e-11)
(-5.6191e-12 -4.90716e-12 5.58583e-11)
(-6.55979e-07 -1.12856e-06 -6.69052e-07)
(-4.93674e-07 -8.6118e-07 -4.74288e-07)
(-5.1341e-07 -8.16546e-07 -5.79503e-07)
(-4.69455e-07 -4.70879e-07 -6.88893e-07)
(-2.60877e-07 -2.40452e-07 -3.82763e-07)
(-4.24694e-07 -5.65714e-07 -5.30837e-07)
(-3.66868e-07 -5.91896e-07 -3.96988e-07)
(-2.7646e-07 -3.30465e-07 -3.89924e-07)
(-3.86785e-07 -5.49607e-07 -4.86396e-07)
(-6.56293e-11 -2.31418e-10 6.30522e-11)
(-1.24757e-10 -4.36888e-10 8.46692e-11)
(-1.54158e-10 -3.91727e-10 8.0606e-11)
(-3.72368e-10 -7.51496e-10 2.34331e-11)
(-8.09752e-10 -9.60949e-10 9.60932e-11)
(-3.23061e-10 -7.36132e-10 4.76551e-11)
(-3.15433e-10 -9.54675e-10 1.0957e-10)
(-9.13361e-10 -1.15056e-09 2.63537e-10)
(-3.69967e-10 -8.1146e-10 9.86155e-11)
(1.19426e-09 1.61976e-09 3.17793e-09)
(-1.11478e-10 -4.36894e-09 -2.54326e-10)
(1.31534e-09 -3.47145e-09 4.70245e-10)
(-6.2103e-08 -1.08846e-07 -2.73945e-10)
(-1.33403e-07 -2.43265e-07 -7.05316e-08)
(-6.24833e-08 -1.0092e-07 -3.79875e-08)
(-4.71573e-10 1.19861e-09 -9.61337e-09)
(-1.94422e-08 1.10655e-08 -3.42127e-08)
(-7.09435e-09 -1.92241e-08 -2.61303e-08)
(-1.71956e-08 1.82911e-09 -1.75802e-08)
(-3.87725e-09 -1.6279e-08 -2.09854e-08)
(-1.38703e-07 -2.31191e-07 -1.25064e-07)
(-7.34262e-08 -8.20425e-08 -1.10204e-07)
(-6.59788e-08 -9.32872e-08 -7.44944e-08)
(-6.27522e-10 -4.96464e-09 -2.9423e-10)
(-2.4694e-09 -5.26243e-09 -3.70008e-10)
(-1.21491e-09 -4.88059e-09 -2.61306e-10)
(-6.09489e-07 -1.2358e-06 -3.06238e-07)
(-4.77708e-07 -8.9483e-07 -3.70837e-07)
(-4.66101e-07 -9.20221e-07 -2.64008e-07)
(-3.31627e-07 -6.7493e-07 -3.4669e-08)
(-2.23952e-07 -4.32492e-07 -1.00662e-07)
(-3.32777e-07 -6.63738e-07 -1.28027e-07)
(-3.50885e-07 -6.23357e-07 -3.09707e-07)
(-2.30035e-07 -4.17711e-07 -1.74396e-07)
(-3.39489e-07 -6.46919e-07 -2.19998e-07)
(-1.29165e-07 6.68959e-08 -2.33225e-07)
(-2.13766e-07 -1.56173e-07 -3.31646e-07)
(-9.26457e-08 1.1987e-08 -1.71578e-07)
(-5.28999e-09 6.26057e-09 4.90207e-11)
(-2.08105e-09 -2.84049e-09 -3.97636e-10)
(-3.91559e-09 4.36299e-10 3.3117e-10)
(-7.39353e-09 4.80206e-09 -2.61995e-08)
(-2.45263e-08 2.10782e-08 -5.22541e-08)
(-1.07778e-08 -2.12921e-08 -3.022e-08)
(-3.05936e-08 3.84171e-08 -6.74871e-08)
(-1.37593e-08 -2.26062e-08 -3.16167e-08)
(-1.80595e-07 -1.58717e-07 -2.86921e-07)
(-8.47139e-08 -6.52512e-08 -1.45513e-07)
(-1.03696e-07 -4.03985e-08 -1.82278e-07)
(-2.2874e-09 -4.10953e-09 -1.48672e-10)
(-4.37735e-09 -4.57639e-09 -1.63282e-10)
(-5.82474e-09 -2.49479e-09 5.7217e-10)
(-4.41306e-07 -4.29482e-07 -6.10694e-07)
(-1.25631e-07 9.48602e-08 -2.42719e-07)
(-6.01165e-07 -1.10818e-06 -3.29861e-07)
(-4.46751e-07 -8.43622e-07 -1.66531e-07)
(-4.59979e-07 -7.95399e-07 -2.86159e-07)
(-4.22856e-07 -4.52522e-07 -5.47925e-07)
(-2.30979e-07 -2.25471e-07 -2.84399e-07)
(-3.9106e-07 -5.51779e-07 -3.898e-07)
(-3.22705e-07 -5.73558e-07 -1.38946e-07)
(-2.30703e-07 -3.06486e-07 -1.96037e-07)
(-3.36237e-07 -5.27625e-07 -2.41462e-07)
(-5.62173e-08 -1.11738e-07 9.98497e-08)
(-1.18349e-07 -2.43211e-07 8.67692e-08)
(-5.26476e-08 -9.93973e-08 6.54153e-08)
(3.71264e-09 5.44423e-09 5.89753e-09)
(-1.24104e-08 3.27689e-09 -9.56827e-09)
(-1.06275e-08 -8.71826e-09 1.25403e-08)
(-1.18045e-07 -2.24586e-07 3.49953e-08)
(-5.49864e-08 -6.45508e-08 -8.89656e-09)
(-5.19904e-08 -8.42024e-08 2.99809e-08)
(-5.77748e-07 -1.22958e-06 5.61297e-08)
(-4.38633e-07 -8.82574e-07 -5.34722e-08)
(-4.35579e-07 -9.13658e-07 5.16775e-08)
(-3.16851e-07 -6.79433e-07 2.11111e-07)
(-2.05384e-07 -4.30576e-07 1.09254e-07)
(-3.11859e-07 -6.62587e-07 1.30309e-07)
(-3.14328e-07 -6.10493e-07 -4.25213e-08)
(-2.04753e-07 -4.09512e-07 4.12825e-08)
(-3.11021e-07 -6.39966e-07 4.67664e-08)
(-1.10784e-07 8.33779e-08 -2.17554e-07)
(-1.86311e-07 -1.41523e-07 -2.48697e-07)
(-7.52905e-08 2.65422e-08 -1.37438e-07)
(-1.08377e-09 2.15967e-08 -1.87079e-08)
(-1.69198e-08 1.78806e-08 -3.48511e-08)
(-2.64501e-08 3.50079e-08 -6.00459e-08)
(-1.43323e-07 -1.35313e-07 -1.49387e-07)
(-6.21625e-08 -4.08603e-08 -5.24003e-08)
(-7.55633e-08 -1.26728e-08 -1.00461e-07)
(-1.17574e-06 -2.03494e-06 -1.21261e-06)
(-1.93344e-06 -3.82626e-06 -1.55637e-06)
(-8.1445e-07 -1.48357e-06 -7.55407e-07)
(-9.704e-07 -1.92508e-06 -6.89036e-07)
(-9.88464e-07 -1.87937e-06 -8.38582e-07)
(-1.17198e-06 -2.06226e-06 -1.18852e-06)
(-1.43903e-06 -2.86465e-06 -1.04735e-06)
(-1.13345e-06 -2.15572e-06 -9.2797e-07)
(-1.1602e-06 -2.35856e-06 -7.55299e-07)
(-1.38156e-06 -2.7849e-06 -9.95676e-07)
(-1.17765e-06 -2.31384e-06 -9.18658e-07)
(-1.78512e-06 -3.94978e-06 -8.79538e-08)
(-1.55353e-06 -3.40692e-06 -2.89978e-07)
(-1.7873e-06 -3.93856e-06 -3.08927e-07)
(-2.30023e-06 -5.07426e-06 -5.86964e-07)
(-2.04981e-06 -4.46224e-06 -7.80706e-07)
(-2.04048e-06 -4.48401e-06 -5.57404e-07)
(-1.56009e-06 -3.38885e-06 -4.936e-07)
(-1.80333e-06 -3.89815e-06 -7.36824e-07)
(-1.7936e-06 -3.92158e-06 -5.26288e-07)
(-7.69091e-07 -1.59216e-06 -3.46922e-07)
(-9.55576e-07 -1.96037e-06 -5.40481e-07)
(-9.44432e-07 -1.98746e-06 -3.8599e-07)
(-1.12575e-06 -2.45233e-06 -7.15346e-08)
(-1.33362e-06 -2.90656e-06 -2.69966e-07)
(-1.12806e-06 -2.43934e-06 -2.48894e-07)
(-1.14586e-06 -2.39322e-06 -5.92733e-07)
(-1.3404e-06 -2.88767e-06 -4.59328e-07)
(-1.13503e-06 -2.41992e-06 -4.23461e-07)
(-1.92985e-06 -3.84946e-06 -1.52629e-06)
(-1.54806e-06 -3.11833e-06 -1.0853e-06)
(-1.89612e-06 -3.92876e-06 -1.19601e-06)
(-2.33542e-06 -4.99448e-06 -1.27392e-06)
(-2.06214e-06 -4.43387e-06 -9.94639e-07)
(-2.07717e-06 -4.39726e-06 -1.20877e-06)
(-1.59977e-06 -3.2905e-06 -1.06968e-06)
(-1.81617e-06 -3.86775e-06 -9.38598e-07)
(-1.83179e-06 -3.82861e-06 -1.1407e-06)
(-1.1445e-06 -2.02363e-06 -1.04199e-06)
(-1.90716e-06 -3.81623e-06 -1.33987e-06)
(-7.59339e-07 -1.46381e-06 -3.72711e-07)
(-9.21893e-07 -1.90927e-06 -2.46439e-07)
(-9.33906e-07 -1.86023e-06 -4.14652e-07)
(-1.12767e-06 -2.04619e-06 -9.36906e-07)
(-1.40705e-06 -2.85313e-06 -7.68141e-07)
(-1.09966e-06 -2.14363e-06 -6.7905e-07)
(-1.11267e-06 -2.34325e-06 -2.72251e-07)
(-1.33001e-06 -2.76697e-06 -4.9585e-07)
(-1.12432e-06 -2.2953e-06 -4.55702e-07)
(-1.77137e-06 -3.95329e-06 4.53074e-07)
(-1.53184e-06 -3.40613e-06 2.51289e-07)
(-1.76689e-06 -3.9378e-06 2.64803e-07)
(-2.27656e-06 -5.06951e-06 7.3234e-08)
(-2.01683e-06 -4.45298e-06 -1.42528e-07)
(-2.01459e-06 -4.47907e-06 7.28509e-08)
(-1.53061e-06 -3.38355e-06 7.062e-08)
(-1.76802e-06 -3.88855e-06 -1.31178e-07)
(-1.76577e-06 -3.91647e-06 7.19841e-08)
(-7.36813e-07 -1.58612e-06 6.00441e-08)
(-9.14651e-07 -1.94938e-06 -8.6403e-08)
(-9.12184e-07 -1.98162e-06 6.34619e-08)
(-1.10973e-06 -2.45622e-06 3.72665e-07)
(-1.31092e-06 -2.90575e-06 2.36848e-07)
(-1.10466e-06 -2.4385e-06 2.2147e-07)
(-1.10566e-06 -2.38258e-06 -9.75007e-08)
(-1.30961e-06 -2.88219e-06 6.87478e-08)
(-1.10329e-06 -2.41425e-06 6.63609e-08)
(-1.89251e-06 -3.83521e-06 -1.20696e-06)
(-1.51682e-06 -3.10703e-06 -7.96501e-07)
(-1.86735e-06 -3.91802e-06 -8.80383e-07)
(-2.29487e-06 -4.97894e-06 -6.47365e-07)
(-2.02311e-06 -4.42055e-06 -3.71381e-07)
(-2.0334e-06 -4.38113e-06 -6.10863e-07)
(-1.55045e-06 -3.27317e-06 -5.35098e-07)
(-1.77446e-06 -3.85393e-06 -3.47219e-07)
(-1.78508e-06 -3.81188e-06 -5.73437e-07)
(-4.24175e-06 -9.21223e-06 -2.13762e-06)
(-3.72931e-06 -8.14321e-06 -1.6016e-06)
(-4.21836e-06 -9.24325e-06 -1.67926e-06)
(-4.80838e-06 -1.0581e-05 -1.69487e-06)
(-4.45348e-06 -9.82983e-06 -1.35651e-06)
(-4.46409e-06 -9.82006e-06 -1.65159e-06)
(-3.80333e-06 -8.34372e-06 -1.55727e-06)
(-4.1178e-06 -9.08734e-06 -1.31933e-06)
(-4.12892e-06 -9.0738e-06 -1.60574e-06)
(-2.57237e-06 -5.69053e-06 -6.14989e-07)
(-2.86455e-06 -6.31558e-06 -9.00239e-07)
(-2.85644e-06 -6.33102e-06 -6.41502e-07)
(-3.14562e-06 -7.00625e-06 -1.04809e-07)
(-3.45388e-06 -7.68365e-06 -4.00886e-07)
(-3.1471e-06 -7.00224e-06 -3.88061e-07)
(-3.15965e-06 -6.981e-06 -9.36141e-07)
(-3.45842e-06 -7.67767e-06 -6.90101e-07)
(-3.15195e-06 -6.99397e-06 -6.6653e-07)
(-3.14113e-06 -6.68817e-06 -1.89696e-06)
(-3.57139e-06 -7.78561e-06 -1.57467e-06)
(-3.11328e-06 -6.7417e-06 -1.48903e-06)
(-2.60609e-06 -5.61836e-06 -1.3362e-06)
(-2.8754e-06 -6.29468e-06 -1.148e-06)
(-2.88868e-06 -6.26702e-06 -1.39563e-06)
(-3.48778e-06 -7.63145e-06 -1.50612e-06)
(-3.17001e-06 -6.96296e-06 -1.1943e-06)
(-3.18274e-06 -6.93865e-06 -1.45226e-06)
(-4.78445e-06 -1.05875e-05 -7.7051e-07)
(-4.44497e-06 -9.83518e-06 -1.06097e-06)
(-4.43886e-06 -9.83689e-06 -7.52413e-07)
(-4.09746e-06 -9.09937e-06 -1.09107e-07)
(-3.77114e-06 -8.38401e-06 -4.12765e-07)
(-4.09842e-06 -9.10172e-06 -4.2373e-07)
(-4.10884e-06 -9.09601e-06 -1.0325e-06)
(-3.77537e-06 -8.38045e-06 -7.12248e-07)
(-4.10234e-06 -9.10071e-06 -7.33006e-07)
(-4.23509e-06 -9.19496e-06 -1.89517e-06)
(-3.12699e-06 -6.6636e-06 -1.67354e-06)
(-4.22634e-06 -9.20201e-06 -1.71443e-06)
(-3.71478e-06 -8.13494e-06 -1.19731e-06)
(-4.20753e-06 -9.23552e-06 -1.26046e-06)
(-4.79966e-06 -1.057e-05 -9.04828e-07)
(-4.44352e-06 -9.82032e-06 -5.4817e-07)
(-4.45104e-06 -9.80854e-06 -8.76126e-07)
(-3.78179e-06 -8.33108e-06 -8.15669e-07)
(-4.10371e-06 -9.07737e-06 -5.27828e-07)
(-4.11159e-06 -9.06172e-06 -8.46401e-07)
(-2.55117e-06 -5.68596e-06 7.31499e-08)
(-2.84018e-06 -6.30733e-06 -1.76803e-07)
(-2.83792e-06 -6.32663e-06 7.26188e-08)
(-3.13997e-06 -7.00914e-06 5.6118e-07)
(-3.44614e-06 -7.68305e-06 3.27479e-07)
(-3.13675e-06 -7.00161e-06 3.19114e-07)
(-3.13858e-06 -6.97309e-06 -1.88248e-07)
(-3.44584e-06 -7.67362e-06 7.03024e-08)
(-3.13631e-06 -6.98975e-06 7.16617e-08)
(-3.11557e-06 -6.67623e-06 -1.51114e-06)
(-3.55561e-06 -7.77715e-06 -1.17574e-06)
(-3.09396e-06 -6.73269e-06 -1.10743e-06)
(-2.56899e-06 -5.6034e-06 -6.82937e-07)
(-2.84596e-06 -6.28282e-06 -4.41267e-07)
(-2.85524e-06 -6.25265e-06 -7.17565e-07)
(-3.46214e-06 -7.61824e-06 -7.83944e-07)
(-3.14419e-06 -6.95158e-06 -4.6365e-07)
(-3.15312e-06 -6.92486e-06 -7.51238e-07)
(-4.78553e-06 -1.05842e-05 6.13619e-08)
(-4.43864e-06 -9.82857e-06 -2.33578e-07)
(-4.43635e-06 -9.83337e-06 6.4067e-08)
(-4.09878e-06 -9.1019e-06 6.11623e-07)
(-3.76617e-06 -8.38344e-06 3.35072e-07)
(-4.09636e-06 -9.10117e-06 3.41923e-07)
(-4.09864e-06 -9.08908e-06 -2.22358e-07)
(-3.76601e-06 -8.37658e-06 6.85655e-08)
(-4.09635e-06 -9.09701e-06 6.64779e-08)
(-1.21006e-11 -2.69045e-13 3.47891e-11)
(-1.59428e-11 -5.40111e-13 6.36264e-11)
(3.68266e-12 -1.20161e-13 1.81945e-11)
(4.72945e-12 -2.01964e-13 1.33884e-11)
(-1.58672e-11 -4.31196e-13 6.37095e-11)
(-1.21962e-11 -4.33659e-13 3.46475e-11)
(4.78512e-12 -6.95274e-14 1.34098e-11)
(-6.72052e-07 -8.7201e-07 -8.82958e-07)
(-1.31731e-10 -1.66868e-10 3.00146e-11)
(-2.96521e-11 -5.44374e-11 6.77867e-12)
(-1.09336e-10 -1.70916e-10 6.26379e-11)
(-4.81585e-11 -9.82265e-11 1.18203e-11)
(-9.47709e-11 -1.25365e-10 2.95241e-11)
(-1.47934e-10 -2.2183e-10 6.76682e-11)
(-4.45181e-11 -7.29012e-11 4.38604e-12)
(-8.02892e-09 -4.19682e-10 2.2707e-09)
(-4.10736e-08 1.74102e-08 -7.87675e-08)
(-7.68965e-09 -5.36824e-09 -6.60105e-09)
(-1.97989e-08 2.24224e-09 -1.35755e-08)
(-1.74109e-08 -3.59743e-09 -1.85162e-08)
(-3.45792e-08 8.90962e-09 -2.6013e-08)
(-1.39734e-08 -1.75504e-09 -5.15091e-09)
(-4.75477e-06 -1.03504e-05 -2.27534e-06)
(-2.71385e-06 -5.66551e-06 -1.81658e-06)
(-5.31571e-11 -6.58201e-11 3.25993e-11)
(-1.89488e-11 -3.89502e-11 8.75089e-12)
(-7.98378e-11 -1.19413e-10 6.6382e-11)
(-1.45216e-11 -3.98938e-11 1.53916e-11)
(-7.03616e-11 -8.92218e-11 3.21692e-11)
(-6.19515e-11 -8.99211e-11 6.46872e-11)
(-1.1885e-11 -2.86751e-11 1.00831e-11)
(-1.24718e-11 -8.82083e-13 3.4955e-11)
(-1.60512e-11 -8.35102e-13 6.36866e-11)
(4.70305e-12 -1.98305e-13 1.34009e-11)
(3.57962e-12 -4.80675e-13 1.82456e-11)
(-1.23181e-11 -5.86755e-13 3.47093e-11)
(-1.62695e-11 -1.11073e-12 6.39919e-11)
(4.69218e-12 -3.91585e-13 1.34395e-11)
(-6.88218e-07 -9.56597e-07 -9.57637e-07)
(-7.70689e-07 -1.09113e-06 -1.04558e-06)
(-7.26162e-07 -1.10367e-06 -8.48338e-07)
(-6.67636e-07 -9.00947e-07 -8.63638e-07)
(-6.96521e-07 -9.24657e-07 -9.80892e-07)
(-6.5169e-07 -9.36924e-07 -7.95839e-07)
(-7.62665e-07 -1.123e-06 -1.0213e-06)
(-6.38635e-07 -8.59608e-07 -7.60159e-07)
(-5.03886e-08 4.00311e-08 -9.86636e-08)
(-5.70171e-07 -9.12165e-07 -4.53669e-07)
(-6.84599e-07 -1.08809e-06 -6.57235e-07)
(-6.604e-07 -1.0501e-06 -5.75451e-07)
(-6.20467e-07 -8.83333e-07 -6.82492e-07)
(-6.10097e-07 -9.21117e-07 -6.17129e-07)
(-5.85918e-07 -8.83031e-07 -5.4128e-07)
(-6.44737e-07 -1.07921e-06 -4.8247e-07)
(-1.96035e-08 5.09404e-08 -6.68225e-08)
(-2.95259e-08 3.9348e-08 -6.69942e-08)
(-7.83905e-09 9.68742e-09 -1.92209e-08)
(-1.57121e-08 2.41707e-08 -3.14133e-08)
(-2.52803e-08 3.47853e-08 -5.84129e-08)
(-2.8755e-08 5.22292e-08 -8.30299e-08)
(-9.94661e-09 2.3418e-08 -2.38465e-08)
(-9.06216e-07 -1.40597e-06 -1.05183e-06)
(-2.30945e-06 -4.71473e-06 -1.6904e-06)
(-9.23136e-07 -1.48852e-06 -1.145e-06)
(-8.48753e-07 -1.26872e-06 -1.10907e-06)
(-8.04616e-07 -1.28143e-06 -8.99899e-07)
(-9.02208e-07 -1.43441e-06 -1.0302e-06)
(-8.4096e-07 -1.30041e-06 -1.08369e-06)
(-9.30703e-07 -1.45709e-06 -1.17143e-06)
(-8.87061e-07 -1.46988e-06 -9.50661e-07)
(-2.32039e-06 -4.77596e-06 -1.83938e-06)
(-2.3058e-06 -4.73574e-06 -1.65768e-06)
(-2.45734e-06 -5.06191e-06 -1.92724e-06)
(-2.42598e-06 -5.07024e-06 -1.57236e-06)
(-2.32648e-06 -4.75281e-06 -1.8803e-06)
(-2.29402e-06 -4.76168e-06 -1.53331e-06)
(-2.45131e-06 -5.08419e-06 -1.88522e-06)
(-8.73554e-07 -1.39411e-06 -9.04067e-07)
(-2.28576e-06 -4.70525e-06 -1.45724e-06)
(-8.06643e-07 -1.44604e-06 -5.39408e-07)
(-7.63242e-07 -1.26608e-06 -6.96746e-07)
(-7.39136e-07 -1.2283e-06 -6.09319e-07)
(-8.55966e-07 -1.41756e-06 -8.12285e-07)
(-7.23586e-07 -1.25728e-06 -5.11036e-07)
(-8.45983e-07 -1.45476e-06 -7.35812e-07)
(-8.22053e-07 -1.41728e-06 -6.42886e-07)
(-2.2349e-06 -4.74197e-06 -8.84487e-07)
(-2.27214e-06 -4.72227e-06 -1.31372e-06)
(-2.39697e-06 -5.05836e-06 -1.22575e-06)
(-2.38108e-06 -5.03068e-06 -1.0751e-06)
(-2.26386e-06 -4.74958e-06 -1.19425e-06)
(-2.24717e-06 -4.72098e-06 -1.04669e-06)
(-2.36911e-06 -5.05084e-06 -9.09072e-07)
(-4.75e-06 -1.0375e-05 -2.45044e-06)
(-4.75025e-06 -1.03578e-05 -2.22847e-06)
(-4.92899e-06 -1.07557e-05 -2.53976e-06)
(-4.91657e-06 -1.07534e-05 -2.08955e-06)
(-4.75599e-06 -1.03673e-05 -2.50878e-06)
(-4.74234e-06 -1.03657e-05 -2.06293e-06)
(-4.92299e-06 -1.07624e-05 -2.4804e-06)
(-2.72225e-06 -5.72032e-06 -1.97369e-06)
(-2.71011e-06 -5.68417e-06 -1.7812e-06)
(-2.59126e-06 -5.37766e-06 -1.9731e-06)
(-2.561e-06 -5.38542e-06 -1.61055e-06)
(-2.72821e-06 -5.69982e-06 -2.01793e-06)
(-2.58526e-06 -5.39905e-06 -1.92995e-06)
(-2.69909e-06 -5.70701e-06 -1.64798e-06)
(-4.7469e-06 -1.03437e-05 -1.98016e-06)
(-2.69292e-06 -5.65657e-06 -1.56845e-06)
(-4.72364e-06 -1.0351e-05 -1.24038e-06)
(-4.73929e-06 -1.03483e-05 -1.79272e-06)
(-4.90867e-06 -1.07451e-05 -1.65604e-06)
(-4.9071e-06 -1.07338e-05 -1.47481e-06)
(-4.73308e-06 -1.03572e-05 -1.63314e-06)
(-4.73057e-06 -1.03449e-05 -1.45293e-06)
(-4.90051e-06 -1.0739e-05 -1.25985e-06)
(-2.6469e-06 -5.68824e-06 -9.57324e-07)
(-2.68039e-06 -5.67146e-06 -1.41512e-06)
(-2.53321e-06 -5.37378e-06 -1.25666e-06)
(-2.51812e-06 -5.34704e-06 -1.10311e-06)
(-2.50647e-06 -5.36634e-06 -9.33337e-07)
(-2.67249e-06 -5.69559e-06 -1.28708e-06)
(-2.65824e-06 -5.6698e-06 -1.13074e-06)
(-5.10413e-06 -1.11473e-05 -2.56982e-06)
(-5.09291e-06 -1.11444e-05 -2.11542e-06)
(-5.0981e-06 -1.11531e-05 -2.50942e-06)
(-5.08641e-06 -1.11362e-05 -1.67838e-06)
(-5.08577e-06 -1.11261e-05 -1.49625e-06)
(-5.07954e-06 -1.11303e-05 -1.27897e-06)
(-3.63238e-07 -2.19331e-07 -5.84053e-07)
(-7.12227e-10 -7.03464e-10 -2.102e-11)
(-4.42963e-10 -4.72633e-10 -7.15437e-12)
(-1.35856e-09 -8.78687e-10 1.3059e-10)
(-4.78115e-10 -3.39308e-10 -5.21476e-11)
(-1.12583e-09 -6.91062e-10 6.77843e-12)