/*--------------------------------*- C++ -*----------------------------------*\
| =========                 |                                                 |
| \\      /  F ield         | OpenFOAM: The Open Source CFD Toolbox           |
|  \\    /   O peration     | Version:  2012                                  |
|   \\  /    A nd           | Website:  www.openfoam.com                      |
|    \\/     M anipulation  |                                                 |
\*---------------------------------------------------------------------------*/
FoamFile
{
    version     2.0;
    format      ascii;
    class       volVectorField;
    location    "0.105/solid";
    object      D_0_0;
}
// * * * * * * * * * * * * * * * * * * * * * * * * * * * * * * * * * * * * * //

dimensions      [0 1 0 0 0 0 0];


internalField   nonuniform List<vector> 
3125
(
(2.80578e-12 -2.42401e-13 1.91617e-11)
(-1.37469e-06 -8.993e-07 -1.69617e-06)
(-3.80929e-11 -9.49405e-11 1.21184e-11)
(-3.12779e-08 2.06151e-09 -3.61021e-08)
(-9.14024e-06 -1.03007e-05 -4.15006e-06)
(-4.77347e-06 -5.05746e-06 -3.1934e-06)
(-2.15651e-12 -3.86711e-13 4.40843e-11)
(-2.36648e-11 -6.3757e-11 1.52282e-11)
(2.77618e-12 -2.63978e-13 1.91829e-11)
(-3.96319e-11 -1.2356e-10 4.62354e-11)
(-2.28252e-12 -9.04598e-13 4.42335e-11)
(-1.36181e-06 -9.33482e-07 -1.63083e-06)
(-8.34734e-11 -2.47675e-10 4.52532e-11)
(-1.51986e-09 -3.60071e-09 5.53045e-09)
(-1.11538e-06 -1.19513e-06 4.53783e-08)
(-4.31498e-08 -1.35897e-08 -7.68975e-08)
(-1.33793e-06 -8.76622e-07 -1.57021e-06)
(-5.07418e-08 1.81992e-08 -5.63658e-08)
(-1.30959e-06 -9.01321e-07 -1.44515e-06)
(2.38794e-09 -5.81615e-09 2.24722e-08)
(-1.08971e-06 -1.20318e-06 3.60882e-07)
(-2.90509e-08 2.10422e-08 -4.59217e-08)
(-1.51976e-06 -1.07032e-06 -1.79679e-06)
(-4.52317e-06 -4.75015e-06 -3.11773e-06)
(-1.50713e-06 -1.10424e-06 -1.7283e-06)
(-4.25498e-06 -4.87646e-06 7.7035e-08)
(-1.41105e-06 -1.53626e-06 4.91498e-08)
(-4.51296e-06 -4.77451e-06 -3.00527e-06)
(-1.48331e-06 -1.04798e-06 -1.66267e-06)
(-4.49764e-06 -4.73291e-06 -2.8868e-06)
(-1.45532e-06 -1.07257e-06 -1.53059e-06)
(-4.23591e-06 -4.88256e-06 6.52635e-07)
(-1.38517e-06 -1.54402e-06 4.03367e-07)
(-4.4765e-06 -4.75005e-06 -2.66467e-06)
(-9.1311e-06 -1.03103e-05 -3.99911e-06)
(-4.76084e-06 -5.46846e-06 8.16263e-08)
(-4.76336e-06 -5.08096e-06 -3.07826e-06)
(-8.87258e-06 -1.01781e-05 1.17946e-07)
(-9.13131e-06 -1.02887e-05 -3.86058e-06)
(-4.7489e-06 -5.04056e-06 -2.95756e-06)
(-9.11854e-06 -1.02932e-05 -3.57184e-06)
(-4.74368e-06 -5.47433e-06 6.81757e-07)
(-4.72828e-06 -5.05698e-06 -2.7304e-06)
(-8.87349e-06 -1.01825e-05 8.44611e-07)
(-9.46718e-06 -1.0683e-05 -4.20228e-06)
(-9.45809e-06 -1.06916e-05 -4.04925e-06)
(-9.45932e-06 -1.06713e-05 -3.91043e-06)
(-9.44706e-06 -1.06749e-05 -3.61846e-06)
(9.747e-14 -1.12157e-10 5.70578e-11)
(-7.60092e-13 -1.63635e-11 5.22666e-11)
(-1.32988e-11 -2.21219e-10 6.11078e-11)
(2.16978e-10 -5.97941e-10 7.76991e-11)
(-5.77783e-10 -1.56732e-09 3.20068e-10)
(-5.71302e-07 -3.32857e-08 -9.47535e-07)
(-7.99487e-10 -7.79976e-10 -7.77271e-11)
(-4.86454e-07 3.71845e-08 -8.34779e-07)
(-1.02336e-09 -9.24851e-10 -1.45013e-10)
(-6.96888e-06 -7.72433e-06 -3.74468e-06)
(-6.67674e-06 -7.37281e-06 -3.68098e-06)
(-3.08644e-12 -3.14542e-13 4.94819e-11)
(-5.02983e-12 -3.75008e-13 5.42405e-11)
(9.00177e-13 -6.03955e-12 1.90324e-11)
(1.55728e-12 -4.14893e-12 1.91901e-11)
(-2.96319e-12 -8.36238e-13 4.97997e-11)
(-1.7437e-12 -8.35353e-12 5.14301e-11)
(-1.29866e-11 -1.20722e-10 6.19495e-11)
(-6.07659e-12 -1.62231e-11 4.52416e-11)
(-4.04615e-12 -1.84456e-11 5.696e-11)
(-4.95504e-12 -1.00389e-12 5.45428e-11)
(-4.02888e-12 -8.13737e-12 4.49373e-11)
(-4.36665e-12 -9.43755e-12 5.61462e-11)
(-1.16889e-06 -1.07308e-06 -8.68328e-07)
(-5.55387e-07 -6.53314e-08 -9.02464e-07)
(-4.65488e-07 -3.09867e-07 -5.04629e-07)
(-3.91518e-11 -2.31315e-10 6.66537e-11)
(-1.2883e-09 -1.54332e-09 4.12658e-11)
(-9.32495e-10 -1.40902e-09 3.93334e-10)
(-8.25731e-11 -1.5253e-09 -3.52321e-11)
(-2.48802e-07 -2.34363e-07 2.91622e-08)
(-2.62947e-09 4.37314e-09 -2.51738e-08)
(-2.69652e-07 -1.7575e-07 -2.70631e-07)
(-1.69155e-09 -5.74034e-09 -2.82257e-10)
(-1.14348e-06 -1.11526e-06 -6.42777e-07)
(-4.1596e-07 -4.12571e-07 3.29331e-08)
(-4.39904e-07 -3.4568e-07 -3.70209e-07)
(-4.70284e-07 6.40628e-09 -7.92437e-07)
(-2.30799e-09 -4.91631e-09 -1.52221e-09)
(-6.57619e-09 6.37149e-09 -3.59855e-08)
(-2.929e-07 -1.44691e-07 -3.71627e-07)
(-2.48616e-09 -5.99144e-09 -2.69089e-10)
(-5.36537e-07 -8.54726e-09 -8.87526e-07)
(-4.5299e-07 6.23289e-08 -7.85534e-07)
(-1.11002e-06 -1.042e-06 -5.29376e-07)
(-5.06949e-07 -3.01553e-08 -8.14309e-07)
(-4.16234e-07 -2.7292e-07 -3.13295e-07)
(-2.31624e-07 -2.44683e-07 1.72881e-07)
(4.16832e-09 1.93962e-08 -1.46442e-08)
(-2.35095e-07 -1.50454e-07 -1.27168e-07)
(-1.0922e-06 -1.09368e-06 -2.94233e-07)
(-3.94482e-07 -4.21163e-07 2.22743e-07)
(-3.97675e-07 -3.19549e-07 -1.69765e-07)
(-4.2372e-07 4.27747e-08 -7.19922e-07)
(6.96929e-10 2.87709e-08 -2.88544e-08)
(-2.5246e-07 -1.08234e-07 -2.38044e-07)
(-2.73657e-06 -2.54869e-06 -2.45699e-06)
(-2.93785e-06 -2.79653e-06 -2.54501e-06)
(-1.46392e-06 -1.41304e-06 -9.81283e-07)
(-2.72536e-06 -2.57914e-06 -2.36715e-06)
(-2.52048e-06 -2.66095e-06 -1.29643e-06)
(-2.8795e-06 -3.25853e-06 6.43169e-08)
(-4.278e-06 -4.81661e-06 -1.23805e-06)
(-2.90534e-06 -3.18478e-06 -1.03674e-06)
(-1.43917e-06 -1.45548e-06 -7.27555e-07)
(-2.4714e-06 -2.7778e-06 6.03957e-08)
(-2.49802e-06 -2.70091e-06 -9.63866e-07)
(-2.92679e-06 -2.82631e-06 -2.45222e-06)
(-4.29735e-06 -4.78496e-06 -1.66347e-06)
(-2.92702e-06 -3.14646e-06 -1.3938e-06)
(-2.70415e-06 -2.52875e-06 -2.27203e-06)
(-2.90619e-06 -2.77692e-06 -2.35363e-06)
(-1.40478e-06 -1.38293e-06 -5.98154e-07)
(-2.6791e-06 -2.55085e-06 -2.09445e-06)
(-2.465e-06 -2.63367e-06 -7.94171e-07)
(-2.85598e-06 -3.26532e-06 5.55794e-07)
(-4.23901e-06 -4.80021e-06 -5.91674e-07)
(-2.85846e-06 -3.16649e-06 -4.86248e-07)
(-1.38747e-06 -1.43457e-06 -3.34278e-07)
(-2.44687e-06 -2.78482e-06 5.20252e-07)
(-2.4492e-06 -2.68197e-06 -4.49476e-07)
(-2.8816e-06 -2.7985e-06 -2.17004e-06)
(-4.25297e-06 -4.76134e-06 -1.03183e-06)
(-2.87379e-06 -3.12011e-06 -8.56118e-07)
(-6.95937e-06 -7.74055e-06 -3.6094e-06)
(-8.9005e-06 -1.01728e-05 -2.2253e-06)
(-7.03026e-06 -8.0128e-06 -2.0405e-06)
(-4.78282e-06 -5.41454e-06 -1.29946e-06)
(-6.40785e-06 -7.37853e-06 9.64106e-08)
(-6.4266e-06 -7.34556e-06 -1.46712e-06)
(-6.66717e-06 -7.38997e-06 -3.54809e-06)
(-4.8014e-06 -5.38558e-06 -1.74601e-06)
(-6.44292e-06 -7.3257e-06 -1.97214e-06)
(-8.88703e-06 -1.01788e-05 -1.65346e-06)
(-6.99701e-06 -8.05443e-06 1.01636e-07)
(-7.01468e-06 -8.02935e-06 -1.5176e-06)
(-6.95249e-06 -7.71005e-06 -3.47579e-06)
(-6.65929e-06 -7.35821e-06 -3.41564e-06)
(-6.93604e-06 -7.72029e-06 -3.21264e-06)
(-8.88863e-06 -1.01561e-05 -1.42566e-06)
(-7.00521e-06 -7.99361e-06 -1.29081e-06)
(-4.74701e-06 -5.39877e-06 -6.25164e-07)
(-6.39754e-06 -7.38372e-06 7.60082e-07)
(-6.40156e-06 -7.33164e-06 -7.20526e-07)
(-6.64231e-06 -7.36925e-06 -3.15659e-06)
(-4.76051e-06 -5.36286e-06 -1.08703e-06)
(-6.41368e-06 -7.30564e-06 -1.24243e-06)
(-8.87836e-06 -1.01673e-05 -8.35273e-07)
(-6.9893e-06 -8.0594e-06 7.83279e-07)
(-6.99354e-06 -8.01603e-06 -7.50569e-07)
(1.93161e-11 -6.8816e-11 4.37457e-11)
(9.90092e-12 -3.59897e-11 4.18072e-11)
(3.41106e-11 -1.3762e-10 4.66598e-11)
(8.57988e-11 -1.90378e-10 4.87101e-11)
(5.71086e-11 -2.63832e-10 5.7901e-11)
(-2.5345e-12 -6.71481e-14 2.0873e-12)
(-9.84741e-07 -4.53807e-07 -1.38485e-06)
(-2.89297e-11 -2.69729e-11 -8.56366e-12)
(-1.34711e-10 -2.40811e-10 3.31967e-12)
(-8.55931e-11 -7.2342e-11 -3.01173e-11)
(-1.85863e-07 1.38905e-07 -3.27605e-07)
(-8.00233e-10 -1.65241e-09 5.30078e-10)
(-1.76703e-09 -1.05769e-09 -6.51516e-10)
(-8.18368e-06 -9.17376e-06 -3.98494e-06)
(-5.55767e-06 -6.01641e-06 -3.41135e-06)
(-1.77344e-12 -1.20607e-13 3.73913e-11)
(-5.09027e-12 -3.65483e-13 5.37489e-11)
(-2.06709e-11 -1.8954e-11 -5.29201e-12)
(-5.92417e-12 -2.40979e-11 1.77376e-11)
(-8.15606e-12 -6.68866e-12 -4.53508e-13)
(-2.55644e-12 -9.83364e-14 2.07917e-12)
(2.58344e-12 -1.02584e-12 1.92606e-11)
(-2.61222e-12 -2.90476e-13 1.99594e-12)
(-1.63349e-12 -4.23921e-13 3.76481e-11)
(-1.3767e-12 -1.04359e-12 3.80034e-11)
(-2.70785e-11 -1.20459e-10 5.68713e-11)
(-1.93511e-11 -6.33429e-11 4.57791e-11)
(-1.45203e-11 -6.44175e-11 5.62002e-11)
(-5.13587e-12 -9.44631e-13 5.39635e-11)
(-2.54427e-12 -1.95395e-12 4.44377e-11)
(-5.24629e-12 -2.07184e-12 5.42408e-11)
(-1.28909e-06 -1.04265e-06 -1.25084e-06)
(-9.70905e-07 -4.88146e-07 -1.32885e-06)
(-8.94605e-07 -5.96477e-07 -1.01271e-06)
(-5.72449e-11 -2.33861e-10 5.66492e-11)
(-2.01613e-10 -4.6716e-10 5.14879e-11)
(-1.39766e-10 -4.07098e-10 6.68229e-11)
(1.90757e-09 -1.5143e-08 -1.04842e-08)
(-3.01273e-08 -1.41646e-08 3.44801e-08)
(-5.00591e-10 7.85576e-10 -4.38488e-09)
(-2.80036e-08 -3.84797e-09 -2.72687e-09)
(-5.42085e-10 -1.15128e-08 -1.46961e-08)
(-1.11607e-06 -1.17527e-06 -1.8553e-07)
(-8.50257e-07 -8.93194e-07 4.14343e-08)
(-8.50506e-07 -8.73923e-07 -1.58564e-07)
(-1.61974e-07 1.44458e-07 -2.90536e-07)
(-3.76618e-08 -4.93463e-09 -2.38239e-08)
(-3.33807e-08 6.62974e-09 -5.51615e-08)
(-1.02498e-07 7.97804e-08 -2.24638e-07)
(-2.99936e-08 -2.06818e-08 -3.63035e-08)
(-9.47677e-07 -4.30146e-07 -1.28499e-06)
(-1.79979e-07 1.66885e-07 -3.62488e-07)
(-1.24862e-06 -1.01849e-06 -1.06696e-06)
(-9.18462e-07 -4.54592e-07 -1.18163e-06)
(-8.54768e-07 -5.71138e-07 -8.6616e-07)
(-2.84575e-08 -2.99118e-08 6.4961e-08)
(4.94783e-09 2.05194e-09 1.05455e-08)
(-2.35229e-08 -1.25108e-08 2.71187e-08)
(-1.08255e-06 -1.17368e-06 1.47595e-07)
(-8.25244e-07 -9.0151e-07 3.16591e-07)
(-8.18002e-07 -8.72211e-07 1.31281e-07)
(-1.6393e-07 1.56805e-07 -3.33259e-07)
(-5.82418e-09 1.68083e-08 -2.76404e-08)
(-9.59345e-08 1.01252e-07 -2.18401e-07)
(-1.99896e-06 -1.64608e-06 -2.0892e-06)
(-3.80709e-06 -3.86857e-06 -2.88153e-06)
(-1.43557e-06 -1.21286e-06 -1.32671e-06)
(-1.98703e-06 -1.67883e-06 -2.01142e-06)
(-1.919e-06 -1.78428e-06 -1.54937e-06)
(-3.7722e-06 -4.30964e-06 7.26235e-08)
(-4.25629e-06 -4.86176e-06 -3.65698e-07)
(-3.77359e-06 -4.29348e-06 -3.46907e-07)
(-1.41206e-06 -1.51614e-06 -2.11646e-07)
(-1.73625e-06 -1.91489e-06 5.28649e-08)
(-1.73747e-06 -1.8948e-06 -2.36796e-07)
(-3.79656e-06 -3.89538e-06 -2.7773e-06)
(-4.45855e-06 -4.85189e-06 -2.32759e-06)
(-3.73873e-06 -3.98118e-06 -2.14868e-06)
(-1.96391e-06 -1.62477e-06 -1.93199e-06)
(-3.77879e-06 -3.85032e-06 -2.66642e-06)
(-1.3952e-06 -1.1891e-06 -1.13101e-06)
(-1.93709e-06 -1.6486e-06 -1.77966e-06)
(-1.87967e-06 -1.7616e-06 -1.32037e-06)
(-3.75143e-06 -4.31597e-06 6.21954e-07)
(-4.23087e-06 -4.86054e-06 2.45416e-07)
(-3.74607e-06 -4.29221e-06 2.36152e-07)
(-1.37817e-06 -1.51458e-06 1.62932e-07)
(-1.71051e-06 -1.92239e-06 4.44073e-07)
(-1.70373e-06 -1.89328e-06 1.77344e-07)
(-3.75614e-06 -3.8695e-06 -2.46007e-06)
(-4.42947e-06 -4.83352e-06 -1.99117e-06)
(-3.70648e-06 -3.96177e-06 -1.83534e-06)
(-8.17439e-06 -9.18617e-06 -3.84047e-06)
(-9.0937e-06 -1.03346e-05 -3.10459e-06)
(-8.13382e-06 -9.22072e-06 -2.98027e-06)
(-4.76205e-06 -5.45542e-06 -3.83413e-07)
(-5.28887e-06 -6.08392e-06 8.63918e-08)
(-5.28996e-06 -6.07273e-06 -4.00068e-07)
(-5.54782e-06 -6.03726e-06 -3.28839e-06)
(-4.70997e-06 -5.15519e-06 -2.38422e-06)
(-5.4978e-06 -6.10227e-06 -2.54906e-06)
(-8.87283e-06 -1.01812e-05 -4.78908e-07)
(-8.23025e-06 -9.45571e-06 1.12426e-07)
(-8.23065e-06 -9.45608e-06 -4.68143e-07)
(-8.17154e-06 -9.16076e-06 -3.7034e-06)
(-5.53609e-06 -6.0005e-06 -3.16185e-06)
(-8.1572e-06 -9.16772e-06 -3.42497e-06)
(-9.08483e-06 -1.03217e-05 -2.68187e-06)
(-8.12097e-06 -9.20685e-06 -2.5693e-06)
(-4.73895e-06 -5.45425e-06 2.539e-07)
(-5.27382e-06 -6.08957e-06 7.09353e-07)
(-5.2694e-06 -6.07161e-06 2.61628e-07)
(-5.51702e-06 -6.01468e-06 -2.92033e-06)
(-4.68203e-06 -5.1372e-06 -2.04055e-06)
(-5.47337e-06 -6.08531e-06 -2.18539e-06)
(-8.87091e-06 -1.01804e-05 2.93571e-07)
(-8.22817e-06 -9.46024e-06 8.25508e-07)
(-8.22529e-06 -9.45519e-06 2.89827e-07)
(-9.42157e-06 -1.07122e-05 -3.14342e-06)
(-9.41408e-06 -1.06996e-05 -2.71713e-06)
(1.64051e-12 -9.5269e-12 3.96973e-11)
(4.6128e-12 -1.8523e-11 4.06402e-11)
(1.36254e-11 -9.49428e-11 5.07443e-11)
(1.68886e-12 -6.01413e-11 5.45583e-11)
(8.20459e-12 -4.97743e-11 4.87156e-11)
(1.6573e-12 -1.32189e-11 4.65324e-11)
(6.10178e-13 -3.13657e-11 5.33413e-11)
(4.23964e-12 -2.56191e-11 4.75524e-11)
(1.68735e-11 -1.91017e-10 5.36617e-11)
(-5.91402e-11 -4.00645e-10 8.46445e-11)
(1.05231e-11 -3.60881e-10 6.96269e-11)
(1.33498e-10 -3.84489e-10 4.84417e-11)
(4.72001e-11 -1.12304e-09 1.479e-10)
(6.28816e-11 -6.1324e-10 6.77887e-11)
(-2.11576e-10 -9.39265e-10 1.15022e-10)
(-2.10177e-10 -1.44782e-09 2.25022e-10)
(-5.60146e-11 -8.38045e-10 8.70338e-11)
(-8.70081e-07 -3.29142e-07 -1.27805e-06)
(-2.10187e-10 -3.6349e-10 -7.12333e-12)
(-3.56338e-10 -2.21709e-10 -1.34066e-10)
(-1.22039e-10 -1.00827e-10 -4.46605e-11)
(-2.5976e-07 1.47974e-07 -4.59391e-07)
(-5.5898e-09 -2.0054e-09 -5.04071e-10)
(-5.00451e-10 -2.94955e-10 -1.93209e-10)
(-1.34658e-09 -5.36028e-10 -5.27336e-10)
(-7.87327e-06 -8.8053e-06 -3.92705e-06)
(-5.82979e-06 -6.34763e-06 -3.48099e-06)
(-1.64973e-12 -2.18379e-13 4.38954e-11)
(-5.94378e-12 -3.9332e-13 5.63417e-11)
(-2.88429e-12 -1.63425e-11 1.85064e-11)
(-3.71043e-12 -1.66177e-12 1.48401e-12)
(-6.35457e-12 -4.70736e-12 3.10706e-13)
(2.44021e-12 -1.43265e-12 1.92564e-11)
(-3.34785e-12 -1.17377e-12 1.68135e-12)
(-2.68621e-12 -4.13605e-13 1.94708e-12)
(2.198e-14 -4.78738e-12 3.89946e-11)
(-8.86848e-13 -2.33841e-12 3.84507e-11)
(-1.50299e-12 -6.30834e-13 4.41932e-11)
(-2.73035e-12 -1.94712e-12 5.02467e-11)
(-1.23085e-12 -1.51433e-12 4.46166e-11)
(1.40318e-13 -6.69345e-12 4.57318e-11)
(-2.35287e-12 -4.16242e-12 5.07871e-11)
(-7.35404e-13 -3.30565e-12 4.51244e-11)
(-2.29018e-11 -1.24041e-10 6.26769e-11)
(-5.58132e-12 -6.62896e-11 5.91625e-11)
(-1.17781e-11 -6.83324e-11 6.04129e-11)
(-1.03849e-11 -3.20287e-11 4.55834e-11)
(-7.03866e-12 -1.72146e-11 5.5442e-11)
(-9.34815e-12 -3.33038e-11 5.59337e-11)
(-3.99687e-12 -3.50406e-11 5.79651e-11)
(-6.5939e-12 -1.89231e-11 5.86803e-11)
(-7.95732e-12 -3.60503e-11 5.95006e-11)
(-5.94358e-12 -1.04713e-12 5.66111e-11)
(-4.80947e-12 -2.25379e-12 5.49433e-11)
(-5.96504e-12 -2.31278e-12 5.69581e-11)
(-3.04843e-12 -4.03011e-12 4.46827e-11)
(-5.97961e-12 -8.70052e-12 5.50015e-11)
(-5.48269e-12 -4.32538e-12 5.45889e-11)
(-4.6184e-12 -4.71579e-12 5.54734e-11)
(-6.1491e-12 -9.65308e-12 5.80056e-11)
(-6.00898e-12 -4.81988e-12 5.74184e-11)
(-1.20148e-06 -1.0193e-06 -1.09915e-06)
(-9.03763e-07 -7.74537e-07 -7.51398e-07)
(-9.37217e-07 -7.21632e-07 -9.53162e-07)
(-8.55912e-07 -3.6328e-07 -1.22515e-06)
(-4.74884e-07 -1.63875e-07 -6.75372e-07)
(-7.78345e-07 -4.70219e-07 -9.31626e-07)
(-6.69158e-07 -5.19212e-07 -6.30002e-07)
(-4.9938e-07 -2.62586e-07 -6.44725e-07)
(-7.02999e-07 -4.68342e-07 -8.0163e-07)
(-5.47113e-11 -2.33976e-10 6.63374e-11)
(-1.17245e-10 -3.97279e-10 9.45582e-11)
(-1.46529e-10 -3.86673e-10 9.08879e-11)
(-4.4024e-10 -1.01877e-09 1.62583e-11)
(-9.72095e-10 -1.08851e-09 1.22404e-10)
(-3.44471e-10 -8.81328e-10 4.7893e-11)
(-3.43723e-10 -9.20637e-10 1.32248e-10)
(-1.09475e-09 -1.09933e-09 3.65985e-10)
(-4.01759e-10 -8.37554e-10 1.20157e-10)
(7.61922e-11 1.57195e-09 2.34545e-09)
(-2.79528e-10 -3.68667e-09 -1.89489e-10)
(1.6833e-10 -2.82169e-09 5.68132e-10)
(-1.1641e-07 -1.00351e-07 2.80128e-08)
(-2.47253e-07 -2.19053e-07 -7.12952e-08)
(-1.14668e-07 -8.7889e-08 -3.86784e-08)
(-5.78553e-10 2.3576e-09 -1.45124e-08)
(-3.46421e-08 2.54191e-08 -6.42924e-08)
(-1.06657e-08 -2.28426e-08 -3.29026e-08)
(-2.95736e-08 1.02296e-08 -3.31925e-08)
(-6.46598e-09 -1.74518e-08 -2.35886e-08)
(-2.54575e-07 -2.0004e-07 -1.71031e-07)
(-1.32051e-07 -5.63088e-08 -1.71068e-07)
(-1.19988e-07 -7.41811e-08 -1.04792e-07)
(-8.99133e-10 -4.75431e-09 -2.37164e-10)
(-3.61145e-09 -5.35557e-09 -1.34425e-10)
(-1.97558e-09 -4.51668e-09 3.26029e-11)
(-1.12586e-06 -1.14897e-06 -4.15097e-07)
(-8.77833e-07 -8.15689e-07 -5.55053e-07)
(-8.60118e-07 -8.48426e-07 -3.57472e-07)
(-6.16812e-07 -6.31895e-07 3.73103e-08)
(-4.14904e-07 -3.95639e-07 -1.02002e-07)
(-6.16484e-07 -6.13545e-07 -1.30683e-07)
(-6.43126e-07 -5.58377e-07 -4.64044e-07)
(-4.23261e-07 -3.73754e-07 -2.36327e-07)
(-6.25675e-07 -5.89388e-07 -2.97772e-07)
(-2.31438e-07 1.29813e-07 -4.23849e-07)
(-3.87963e-07 -8.54839e-08 -5.87172e-07)
(-1.66065e-07 6.27077e-08 -3.10544e-07)
(-7.99971e-09 1.02541e-08 7.62139e-11)
(-2.83706e-09 -3.63644e-09 -5.68824e-10)
(-5.41689e-09 9.28532e-10 4.91254e-10)
(-1.29696e-08 7.41906e-09 -4.59148e-08)
(-4.44456e-08 4.22442e-08 -9.77377e-08)
(-1.61604e-08 -2.74553e-08 -4.12353e-08)
(-5.64249e-08 6.87056e-08 -1.26467e-07)
(-2.11487e-08 -3.15317e-08 -4.59837e-08)
(-3.23841e-07 -1.03564e-07 -4.7801e-07)
(-1.50887e-07 -3.20925e-08 -2.38462e-07)
(-1.8278e-07 9.38233e-10 -3.09026e-07)
(-3.06954e-09 -4.79143e-09 -1.0582e-10)
(-6.20074e-09 -4.88243e-09 9.34344e-11)
(-8.29847e-09 -2.60175e-09 1.04928e-09)
(-8.3318e-07 -3.05158e-07 -1.18746e-06)
(-2.43538e-07 1.73802e-07 -4.69191e-07)
(-1.13666e-06 -9.81689e-07 -7.75117e-07)
(-8.46281e-07 -7.42185e-07 -4.5898e-07)
(-8.7365e-07 -6.82616e-07 -6.74394e-07)
(-8.03779e-07 -3.29221e-07 -1.09157e-06)
(-4.399e-07 -1.36169e-07 -5.85155e-07)
(-7.3921e-07 -4.44449e-07 -7.98323e-07)
(-6.1464e-07 -4.85456e-07 -3.86769e-07)
(-4.44254e-07 -2.18707e-07 -4.65312e-07)
(-6.42429e-07 -4.27777e-07 -5.70956e-07)
(-1.07665e-07 -1.0993e-07 1.24023e-07)
(-2.25252e-07 -2.18028e-07 7.6029e-08)
(-1.01765e-07 -8.5629e-08 5.71969e-08)
(5.41989e-09 1.04508e-08 -1.60019e-09)
(-2.80994e-08 2.81095e-08 -5.21082e-08)
(-2.35595e-08 6.26793e-09 -1.07849e-08)
(-2.26396e-07 -1.86992e-07 -2.30173e-08)
(-1.09463e-07 -2.48572e-08 -8.29403e-08)
(-1.02253e-07 -5.76855e-08 -1.08421e-08)
(-1.08346e-06 -1.13752e-06 -6.92605e-08)
(-8.27985e-07 -7.93166e-07 -2.53464e-07)
(-8.18995e-07 -8.36439e-07 -5.73551e-08)
(-5.93039e-07 -6.40498e-07 2.70511e-07)
(-3.87513e-07 -3.93033e-07 9.57498e-08)
(-5.85853e-07 -6.11673e-07 1.14006e-07)
(-5.96087e-07 -5.34803e-07 -2.11842e-07)
(-3.88605e-07 -3.595e-07 -3.40284e-08)
(-5.86947e-07 -5.76786e-07 -4.55356e-08)
(-2.17942e-07 1.63271e-07 -4.29659e-07)
(-3.56125e-07 -5.79345e-08 -5.12876e-07)
(-1.47851e-07 9.12061e-08 -2.88018e-07)
(-6.46221e-09 3.88055e-08 -4.52907e-08)
(-3.8114e-08 5.25234e-08 -9.75696e-08)
(-5.58145e-08 7.84755e-08 -1.42927e-07)
(-2.79285e-07 -5.95529e-08 -3.56839e-07)
(-1.24476e-07 1.19105e-08 -1.60812e-07)
(-1.50251e-07 5.2235e-08 -2.45269e-07)
(-2.17301e-06 -1.85787e-06 -2.18351e-06)
(-3.58039e-06 -3.58897e-06 -2.79973e-06)
(-1.49554e-06 -1.35923e-06 -1.24013e-06)
(-1.78807e-06 -1.79229e-06 -1.09022e-06)
(-1.81867e-06 -1.73917e-06 -1.37618e-06)
(-2.16127e-06 -1.8901e-06 -2.10266e-06)
(-2.66194e-06 -2.67735e-06 -1.82807e-06)
(-2.09436e-06 -1.99393e-06 -1.62028e-06)
(-2.14054e-06 -2.20892e-06 -1.19526e-06)
(-2.54905e-06 -2.61078e-06 -1.63394e-06)
(-2.17013e-06 -2.15703e-06 -1.50742e-06)
(-3.3134e-06 -3.76974e-06 6.83868e-08)
(-2.88096e-06 -3.24009e-06 -3.06079e-07)
(-3.31485e-06 -3.75232e-06 -3.27034e-07)
(-4.26429e-06 -4.84201e-06 -8.0481e-07)
(-3.79622e-06 -4.24447e-06 -1.1738e-06)
(-3.78193e-06 -4.27196e-06 -7.63086e-07)
(-2.88994e-06 -3.21574e-06 -6.73689e-07)
(-3.33837e-06 -3.69991e-06 -1.10671e-06)
(-3.32352e-06 -3.72927e-06 -7.19384e-07)
(-1.42185e-06 -1.48952e-06 -4.7083e-07)
(-1.76406e-06 -1.83439e-06 -8.09297e-07)
(-1.74715e-06 -1.86825e-06 -5.24555e-07)
(-2.09001e-06 -2.32933e-06 5.65924e-08)
(-2.47284e-06 -2.75856e-06 -2.84043e-07)
(-2.09137e-06 -2.30953e-06 -2.60942e-07)
(-2.1173e-06 -2.25016e-06 -8.88063e-07)
(-2.48209e-06 -2.73318e-06 -6.25989e-07)
(-2.10087e-06 -2.28341e-06 -5.7628e-07)
(-3.56974e-06 -3.61656e-06 -2.69832e-06)
(-2.86445e-06 -2.92218e-06 -1.89414e-06)
(-3.51086e-06 -3.70517e-06 -2.08737e-06)
(-4.32198e-06 -4.74506e-06 -2.09387e-06)
(-3.81634e-06 -4.21035e-06 -1.57728e-06)
(-3.84194e-06 -4.16746e-06 -1.98571e-06)
(-2.95459e-06 -3.0984e-06 -1.75579e-06)
(-3.35927e-06 -3.66356e-06 -1.4874e-06)
(-3.38585e-06 -3.61794e-06 -1.87303e-06)
(-2.13855e-06 -1.83689e-06 -2.01904e-06)
(-3.5512e-06 -3.57038e-06 -2.59026e-06)
(-1.43066e-06 -1.32278e-06 -8.73295e-07)
(-1.72952e-06 -1.76315e-06 -6.65194e-07)
(-1.75462e-06 -1.70387e-06 -9.68842e-07)
(-2.11215e-06 -1.86036e-06 -1.8602e-06)
(-2.62518e-06 -2.65612e-06 -1.55878e-06)
(-2.05557e-06 -1.97164e-06 -1.38071e-06)
(-2.08326e-06 -2.18071e-06 -7.30537e-07)
(-2.48857e-06 -2.57773e-06 -1.15213e-06)
(-2.10758e-06 -2.12286e-06 -1.06179e-06)
(-3.29114e-06 -3.77629e-06 5.89684e-07)
(-2.85002e-06 -3.23871e-06 2.15193e-07)
(-3.28548e-06 -3.751e-06 2.26085e-07)
(-4.23197e-06 -4.83331e-06 -1.66898e-07)
(-3.7543e-06 -4.22745e-06 -5.57354e-07)
(-3.7471e-06 -4.26293e-06 -1.54596e-07)
(-2.85091e-06 -3.20603e-06 -1.30019e-07)
(-3.29381e-06 -3.68226e-06 -5.2221e-07)
(-3.28644e-06 -3.7199e-06 -1.42298e-07)
(-1.37901e-06 -1.47842e-06 -8.13033e-08)
(-1.71273e-06 -1.81415e-06 -3.73488e-07)
(-1.70454e-06 -1.85751e-06 -9.3402e-08)
(-2.06473e-06 -2.33658e-06 4.83022e-07)
(-2.44062e-06 -2.75713e-06 2.03452e-07)
(-2.0582e-06 -2.30805e-06 1.90842e-07)
(-2.06697e-06 -2.23057e-06 -4.11892e-07)
(-2.44146e-06 -2.72313e-06 -1.17771e-07)
(-2.05902e-06 -2.27301e-06 -1.05564e-07)
(-3.52806e-06 -3.5902e-06 -2.38943e-06)
(-2.82851e-06 -2.90134e-06 -1.61544e-06)
(-3.4776e-06 -3.68538e-06 -1.78234e-06)
(-4.27359e-06 -4.71644e-06 -1.48762e-06)
(-3.76871e-06 -4.18582e-06 -9.74946e-07)
(-3.79006e-06 -4.13775e-06 -1.40762e-06)
(-2.89661e-06 -3.06648e-06 -1.23988e-06)
(-3.30867e-06 -3.63812e-06 -9.16375e-07)
(-3.33076e-06 -3.58712e-06 -1.32504e-06)
(-7.86394e-06 -8.81868e-06 -3.78482e-06)
(-6.91462e-06 -7.78886e-06 -2.79964e-06)
(-7.82244e-06 -8.85687e-06 -2.93715e-06)
(-8.91788e-06 -1.01623e-05 -2.80236e-06)
(-8.25992e-06 -9.43786e-06 -2.16702e-06)
(-8.27815e-06 -9.42339e-06 -2.72851e-06)
(-7.05025e-06 -7.99048e-06 -2.56852e-06)
(-7.63622e-06 -8.71737e-06 -2.10544e-06)
(-7.65532e-06 -8.69894e-06 -2.65059e-06)
(-4.76968e-06 -5.43763e-06 -8.44573e-07)
(-5.30979e-06 -6.03649e-06 -1.35809e-06)
(-5.29723e-06 -6.05708e-06 -8.82399e-07)
(-5.83818e-06 -6.72116e-06 9.13252e-08)
(-6.40868e-06 -7.37153e-06 -4.30264e-07)
(-5.83914e-06 -6.71199e-06 -4.15677e-07)
(-5.85802e-06 -6.68073e-06 -1.41396e-06)
(-6.41518e-06 -7.36068e-06 -9.52347e-07)
(-5.84602e-06 -6.69866e-06 -9.18314e-07)
(-5.82001e-06 -6.36757e-06 -3.35549e-06)
(-6.62146e-06 -7.44183e-06 -2.75212e-06)
(-5.77098e-06 -6.42919e-06 -2.60109e-06)
(-4.82508e-06 -5.34887e-06 -2.19755e-06)
(-5.32761e-06 -6.0104e-06 -1.82494e-06)
(-5.35034e-06 -5.97708e-06 -2.29681e-06)
(-6.46381e-06 -7.29959e-06 -2.48224e-06)
(-5.87508e-06 -6.65768e-06 -1.9003e-06)
(-5.89688e-06 -6.6279e-06 -2.39169e-06)
(-8.87782e-06 -1.01815e-05 -1.07038e-06)
(-8.24576e-06 -9.4475e-06 -1.61072e-06)
(-8.23601e-06 -9.45344e-06 -1.04351e-06)
(-7.60477e-06 -8.74733e-06 1.06981e-07)
(-6.9977e-06 -8.04976e-06 -4.43851e-07)
(-7.60531e-06 -8.74512e-06 -4.56467e-07)
(-7.62135e-06 -8.73051e-06 -1.56545e-06)
(-7.00382e-06 -8.04153e-06 -9.84531e-07)
(-7.61106e-06 -8.73962e-06 -1.0149e-06)
(-7.86006e-06 -8.79199e-06 -3.64844e-06)
(-5.80923e-06 -6.33205e-06 -3.22728e-06)
(-7.84519e-06 -8.79977e-06 -3.37368e-06)
(-6.89651e-06 -7.77364e-06 -2.40739e-06)
(-7.80821e-06 -8.84264e-06 -2.53058e-06)
(-8.90336e-06 -1.01422e-05 -2.03503e-06)
(-8.24358e-06 -9.42038e-06 -1.38244e-06)
(-8.25904e-06 -9.4022e-06 -1.97558e-06)
(-7.02215e-06 -7.96722e-06 -1.84901e-06)
(-7.61547e-06 -8.69904e-06 -1.33749e-06)
(-7.63168e-06 -8.67672e-06 -1.91358e-06)
(-4.74013e-06 -5.42926e-06 -1.79189e-07)
(-5.27738e-06 -6.02134e-06 -6.5781e-07)
(-5.27066e-06 -6.04905e-06 -1.91451e-07)
(-5.82541e-06 -6.72658e-06 7.3545e-07)
(-6.39374e-06 -7.37051e-06 2.74917e-07)
(-5.8213e-06 -6.71091e-06 2.68626e-07)
(-5.8292e-06 -6.66619e-06 -6.89602e-07)
(-6.39516e-06 -7.3533e-06 -2.15815e-07)
(-5.82264e-06 -6.69096e-06 -2.03666e-07)
(-5.79068e-06 -6.34546e-06 -2.9812e-06)
(-6.60202e-06 -7.42624e-06 -2.36514e-06)
(-5.7478e-06 -6.4126e-06 -2.23119e-06)
(-4.7804e-06 -5.32134e-06 -1.56504e-06)
(-5.29042e-06 -5.98858e-06 -1.14053e-06)
(-5.30958e-06 -5.95063e-06 -1.63989e-06)
(-6.43136e-06 -7.27527e-06 -1.78187e-06)
(-5.84178e-06 -6.63674e-06 -1.19233e-06)
(-5.8602e-06 -6.60252e-06 -1.71217e-06)
(-8.87263e-06 -1.01754e-05 -2.63328e-07)
(-8.23284e-06 -9.43537e-06 -8.07956e-07)
(-8.22694e-06 -9.44701e-06 -2.51655e-07)
(-7.59981e-06 -8.75208e-06 8.05076e-07)
(-6.98581e-06 -8.04878e-06 2.80529e-07)
(-7.59663e-06 -8.74418e-06 2.8549e-07)
(-7.60427e-06 -8.71779e-06 -7.79717e-07)
(-6.98731e-06 -8.03446e-06 -2.27877e-07)
(-7.5982e-06 -8.73288e-06 -2.39831e-07)
(-1.46781e-11 -2.5385e-13 3.71138e-11)
(-1.83784e-11 -5.2411e-13 6.63406e-11)
(2.82994e-12 -1.06377e-13 1.91821e-11)
(3.67267e-12 -1.91678e-13 1.42774e-11)
(-1.83062e-11 -4.10241e-13 6.64263e-11)
(-1.4793e-11 -4.2334e-13 3.70001e-11)
(3.72463e-12 -5.84247e-14 1.42988e-11)
(-1.23711e-06 -7.39295e-07 -1.59396e-06)
(-1.55518e-10 -2.16023e-10 3.34377e-11)
(-3.55831e-11 -6.94606e-11 6.42814e-12)
(-1.20819e-10 -2.15374e-10 6.60176e-11)
(-5.54034e-11 -1.25069e-10 1.11168e-11)
(-1.08558e-10 -1.59723e-10 3.19059e-11)
(-1.68376e-10 -2.83578e-10 7.3784e-11)
(-5.43573e-11 -9.47881e-11 3.3398e-12)
(-1.77035e-08 -3.46261e-09 4.28094e-09)
(-7.56217e-08 2.24483e-08 -1.47327e-07)
(-1.5527e-08 -1.20878e-08 -1.29728e-08)
(-3.73849e-08 2.74573e-09 -2.44291e-08)
(-3.44303e-08 -1.11901e-08 -3.51281e-08)
(-6.32052e-08 1.26828e-08 -4.55886e-08)
(-2.69879e-08 -4.70711e-09 -9.55193e-09)
(-8.81727e-06 -9.92166e-06 -4.09644e-06)
(-5.0294e-06 -5.3711e-06 -3.26756e-06)
(-5.96784e-11 -8.03942e-11 3.52382e-11)
(-2.30329e-11 -4.85162e-11 8.89451e-12)
(-8.76968e-11 -1.46959e-10 7.06746e-11)
(-1.61962e-11 -4.79243e-11 1.59189e-11)
(-8.0267e-11 -1.10797e-10 3.51159e-11)
(-6.69947e-11 -1.08811e-10 6.81599e-11)
(-1.46226e-11 -3.50877e-11 1.05316e-11)
(-1.50893e-11 -8.90953e-13 3.73168e-11)
(-1.84981e-11 -8.27626e-13 6.64229e-11)
(3.6385e-12 -1.88991e-13 1.42959e-11)
(2.71523e-12 -4.74465e-13 1.92463e-11)
(-1.49287e-11 -5.83275e-13 3.70743e-11)
(-1.87439e-11 -1.11842e-12 6.67529e-11)
(3.61353e-12 -3.87073e-13 1.43414e-11)
(-1.23655e-06 -8.45119e-07 -1.56086e-06)
(-1.39194e-06 -9.67654e-07 -1.73971e-06)
(-1.33504e-06 -9.73015e-07 -1.49876e-06)
(-1.22393e-06 -7.7364e-07 -1.53174e-06)
(-1.25412e-06 -8.08313e-07 -1.63314e-06)
(-1.19671e-06 -8.13293e-07 -1.40689e-06)
(-1.3748e-06 -1.00431e-06 -1.66366e-06)
(-1.20014e-06 -7.16283e-07 -1.47642e-06)
(-9.95023e-08 6.1958e-08 -1.87437e-07)
(-1.10352e-06 -7.63004e-07 -1.07904e-06)
(-1.28823e-06 -9.44243e-07 -1.31573e-06)
(-1.26893e-06 -8.91718e-07 -1.28917e-06)
(-1.17146e-06 -7.4101e-07 -1.35847e-06)
(-1.1498e-06 -7.84095e-07 -1.23606e-06)
(-1.1306e-06 -7.31245e-07 -1.21261e-06)
(-1.24211e-06 -9.23408e-07 -1.14753e-06)
(-4.95736e-08 9.0002e-08 -1.38716e-07)
(-6.19941e-08 6.46752e-08 -1.31552e-07)
(-1.7459e-08 1.58858e-08 -3.83168e-08)
(-3.46807e-08 4.3442e-08 -6.14293e-08)
(-5.36386e-08 5.78762e-08 -1.15923e-07)
(-6.6191e-08 8.97479e-08 -1.64293e-07)
(-2.41591e-08 4.2947e-08 -4.86231e-08)
(-1.67223e-06 -1.252e-06 -1.89585e-06)
(-4.27859e-06 -4.4494e-06 -3.04053e-06)
(-1.67318e-06 -1.35479e-06 -1.86369e-06)
(-1.5371e-06 -1.1379e-06 -1.84442e-06)
(-1.48079e-06 -1.14354e-06 -1.58902e-06)
(-1.65985e-06 -1.2856e-06 -1.82425e-06)
(-1.52033e-06 -1.1743e-06 -1.76449e-06)
(-1.68958e-06 -1.31873e-06 -1.94736e-06)
(-1.63396e-06 -1.32456e-06 -1.67793e-06)
(-4.27686e-06 -4.52695e-06 -2.99703e-06)
(-4.26828e-06 -4.4746e-06 -2.93077e-06)
(-4.53383e-06 -4.79933e-06 -3.20552e-06)
(-4.493e-06 -4.80226e-06 -2.77132e-06)
(-4.29e-06 -4.50004e-06 -3.12669e-06)
(-4.2479e-06 -4.5034e-06 -2.70233e-06)
(-4.52088e-06 -4.82531e-06 -3.07263e-06)
(-1.63618e-06 -1.23e-06 -1.75379e-06)
(-4.25212e-06 -4.43183e-06 -2.81468e-06)
(-1.54239e-06 -1.27633e-06 -1.28199e-06)
(-1.43425e-06 -1.11521e-06 -1.39415e-06)
(-1.41497e-06 -1.06311e-06 -1.36478e-06)
(-1.60856e-06 -1.2544e-06 -1.61484e-06)
(-1.38843e-06 -1.09463e-06 -1.21513e-06)
(-1.5878e-06 -1.29665e-06 -1.47157e-06)
(-1.56862e-06 -1.24507e-06 -1.43946e-06)
(-4.17969e-06 -4.46424e-06 -2.07254e-06)
(-4.23047e-06 -4.44967e-06 -2.59769e-06)
(-4.45991e-06 -4.78037e-06 -2.43564e-06)
(-4.44764e-06 -4.74159e-06 -2.38005e-06)
(-4.21358e-06 -4.48109e-06 -2.37407e-06)
(-4.20061e-06 -4.44119e-06 -2.31944e-06)
(-4.42718e-06 -4.76378e-06 -2.12726e-06)
(-8.80375e-06 -9.95816e-06 -4.01768e-06)
(-8.80808e-06 -9.93216e-06 -3.9476e-06)
(-9.13672e-06 -1.03251e-05 -4.24728e-06)
(-9.1175e-06 -1.03192e-05 -3.6911e-06)
(-8.8147e-06 -9.94761e-06 -4.19384e-06)
(-8.79408e-06 -9.9423e-06 -3.64341e-06)
(-9.12589e-06 -1.03346e-05 -4.06863e-06)
(-5.02589e-06 -5.44137e-06 -3.21894e-06)
(-5.01938e-06 -5.39373e-06 -3.14979e-06)
(-4.78337e-06 -5.10516e-06 -3.28266e-06)
(-4.7438e-06 -5.10763e-06 -2.83884e-06)
(-5.03851e-06 -5.4173e-06 -3.35817e-06)
(-4.77058e-06 -5.13018e-06 -3.14655e-06)
(-5.00025e-06 -5.41931e-06 -2.90507e-06)
(-8.80727e-06 -9.90929e-06 -3.80946e-06)
(-5.00582e-06 -5.35453e-06 -3.027e-06)
(-8.76858e-06 -9.9139e-06 -2.84175e-06)
(-8.79397e-06 -9.9146e-06 -3.52405e-06)
(-9.10654e-06 -1.03038e-05 -3.26976e-06)
(-9.10735e-06 -1.02847e-05 -3.21202e-06)
(-8.78169e-06 -9.92656e-06 -3.22574e-06)
(-8.78164e-06 -9.90614e-06 -3.16758e-06)
(-9.09478e-06 -1.02915e-05 -2.88234e-06)
(-4.9394e-06 -5.3822e-06 -2.234e-06)
(-4.9857e-06 -5.37021e-06 -2.79493e-06)
(-4.71198e-06 -5.08617e-06 -2.496e-06)
(-4.70044e-06 -5.04853e-06 -2.43964e-06)
(-4.68046e-06 -5.06985e-06 -2.18104e-06)
(-4.96969e-06 -5.39826e-06 -2.55534e-06)
(-4.95891e-06 -5.36178e-06 -2.49822e-06)
(-9.46271e-06 -1.07058e-05 -4.29922e-06)
(-9.44484e-06 -1.06993e-05 -3.73747e-06)
(-9.45196e-06 -1.07142e-05 -4.11809e-06)
(-9.43534e-06 -1.06843e-05 -3.31264e-06)
(-9.43702e-06 -1.06664e-05 -3.25544e-06)
(-9.42496e-06 -1.06722e-05 -2.92201e-06)
(-6.63652e-07 -1.18334e-07 -1.05975e-06)
(-9.43131e-10 -1.04342e-09 -3.35583e-11)
(-6.01473e-10 -6.79004e-10 -1.32514e-11)
(-1.86102e-09 -1.27413e-09 1.96683e-10)
(-6.76089e-10 -5.25472e-10 -8.05679e-11)
(-1.57308e-09 -1.05354e-09 1.7178e-11)
(-1.29793e-09 -1.50706e-09 -6.039e-11)