/*--------------------------------*- C++ -*----------------------------------*\
| =========                 |                                                 |
| \\      /  F ield         | OpenFOAM: The Open Source CFD Toolbox           |
|  \\    /   O peration     | Version:  2012                                  |
|   \\  /    A nd           | Website:  www.openfoam.com                      |
|    \\/     M anipulation  |                                                 |
\*---------------------------------------------------------------------------*/
FoamFile
{
    version     2.0;
    format      ascii;
    class       pointVectorField;
    location    "0.105/solid";
    object      pointD;
}
// * * * * * * * * * * * * * * * * * * * * * * * * * * * * * * * * * * * * * //

dimensions      [0 1 0 0 0 0 0];


internalField   nonuniform List<vector> 
5184
(
(-2.23421e-06 -5.99447e-07 -2.59309e-06)
(-1.46063e-05 -8.8918e-06 -6.20598e-06)
(1.03672e-11 -3.55566e-11 -1.47869e-11)
(1.27186e-08 6.98061e-09 -4.03208e-09)
(-7.06998e-06 -4.58752e-06 9.25436e-07)
(-1.9647e-06 -1.19501e-06 5.17581e-07)
(-7.27759e-06 -3.93951e-06 -4.68051e-06)
(-1.44597e-05 -9.47922e-06 1.22045e-06)
(1.02191e-11 6.38438e-15 -3.96608e-13)
(-2.27419e-08 -1.55624e-08 -2.00497e-08)
(-5.95071e-12 4.43948e-12 -3.02888e-11)
(-3.22712e-12 8.89321e-11 -1.17895e-10)
(-1.99963e-06 -9.56256e-07 -9.86002e-07)
(-4.42467e-06 -2.01655e-06 -3.70877e-06)
(-7.89806e-07 1.81192e-07 -1.33325e-06)
(-1.07014e-05 -6.26272e-06 -5.5115e-06)
(-1.44813e-05 -9.20961e-06 -2.45185e-06)
(-5.12192e-12 2.78448e-13 1.19082e-12)
(1.04454e-11 -1.57343e-12 -1.21095e-12)
(-2.85287e-12 -1.31815e-09 -3.146e-10)
(-5.04735e-07 -2.84918e-07 2.6296e-07)
(1.36318e-08 -8.11677e-10 7.42067e-09)
(-4.18588e-06 -2.65876e-06 7.36863e-07)
(-7.09946e-06 -4.30597e-06 -1.83146e-06)
(-1.05248e-05 -6.88964e-06 1.08615e-06)
(-5.34916e-07 -1.03895e-07 -4.73755e-07)
(-4.21872e-06 -2.38973e-06 -1.43766e-06)
(-1.05504e-05 -6.60902e-06 -2.16895e-06)
(-4.53801e-12 -6.10878e-13 -5.20939e-13)
(-3.1225e-10 -2.08359e-09 -9.48157e-10)
(-8.21999e-12 1.86644e-13 -1.83375e-11)
(-2.60064e-12 -1.00176e-11 -1.93749e-11)
(-2.09389e-06 -7.93822e-07 -1.78013e-06)
(-3.24089e-06 -1.23757e-06 -3.16905e-06)
(-1.41532e-06 -1.19033e-07 -1.98112e-06)
(-1.25993e-05 -7.54452e-06 -5.87549e-06)
(-1.45319e-05 -9.0557e-06 -4.33653e-06)
(-6.75621e-12 2.67882e-13 1.14055e-12)
(-3.06996e-12 5.3522e-12 -1.23086e-11)
(2.20438e-11 -1.75069e-11 -3.04806e-11)
(1.05209e-11 -7.54487e-12 -3.84781e-12)
(4.70694e-12 -1.99883e-10 -5.42944e-11)
(3.39602e-10 2.11407e-09 -9.25884e-10)
(-9.96499e-08 -5.70734e-08 1.238e-07)
(1.33199e-08 4.21751e-09 1.65419e-09)
(-5.55086e-06 -3.57082e-06 8.34758e-07)
(-7.06685e-06 -4.45696e-06 -4.45921e-07)
(-8.73177e-06 -5.69747e-06 1.00917e-06)
(-1.95812e-06 -1.08929e-06 -2.27151e-07)
(-1.13271e-06 -6.66043e-07 3.94911e-07)
(-2.98658e-06 -1.86295e-06 6.31339e-07)
(-5.77407e-06 -2.92171e-06 -4.21246e-06)
(-8.92382e-06 -5.05722e-06 -5.11337e-06)
(-7.17125e-06 -4.13285e-06 -3.25628e-06)
(-1.44579e-05 -9.3503e-06 -6.09154e-07)
(-1.24378e-05 -8.15354e-06 1.15653e-06)
(-1.83198e-13 1.65175e-14 -2.97604e-12)
(1.27703e-12 1.86306e-13 3.51525e-12)
(1.03187e-11 -2.51188e-13 -5.55672e-13)
(-3.2909e-07 2.5546e-07 -6.24746e-07)
(-7.93954e-09 -4.35876e-09 -9.91541e-09)
(5.39886e-10 -9.98969e-09 -3.28629e-12)
(-6.6884e-12 1.58448e-13 6.593e-14)
(-3.54407e-12 -1.84506e-12 -5.9769e-12)
(-5.347e-11 -1.4025e-11 -1.47407e-10)
(3.8185e-11 -8.75291e-10 -5.79519e-10)
(-1.16709e-06 -4.51526e-07 -7.37963e-07)
(-3.02071e-06 -1.60647e-06 -1.21918e-06)
(-4.30158e-06 -2.21623e-06 -2.56919e-06)
(-6.32546e-07 2.34233e-08 -8.8088e-07)
(-1.06114e-05 -6.44325e-06 -3.84435e-06)
(-1.24614e-05 -7.87736e-06 -2.3171e-06)
(-4.95142e-12 1.51179e-13 8.54154e-13)
(-1.77221e-13 3.5113e-13 -3.45691e-12)
(2.2756e-12 -1.68887e-12 1.67505e-12)
(-3.89926e-11 1.08685e-11 -1.91477e-10)
(7.97134e-11 -1.36513e-09 -7.6546e-10)
(-4.9555e-07 -2.05953e-07 -1.00109e-07)
(-1.13512e-07 7.34951e-08 -1.90784e-07)
(-3.62956e-09 -2.44786e-08 -3.28297e-09)
(-4.18149e-06 -2.53663e-06 -3.43224e-07)
(-5.58213e-06 -3.29362e-06 -1.64169e-06)
(-8.75933e-06 -5.41492e-06 -2.00715e-06)
(-1.05224e-05 -6.75729e-06 -5.34533e-07)
(-1.26614e-06 -3.02102e-07 -1.34585e-06)
(-8.93636e-08 1.08492e-09 -3.05645e-08)
(-1.1247e-06 -5.72111e-07 -1.64866e-07)
(-1.86236e-07 1.55565e-07 -3.85582e-07)
(-3.10926e-06 -1.43661e-06 -2.18763e-06)
(-5.54719e-06 -3.44356e-06 -3.96313e-07)
(-2.98123e-06 -1.74793e-06 -2.86764e-07)
(-5.65941e-06 -3.11924e-06 -2.92528e-06)
(-1.25171e-05 -7.71708e-06 -4.10219e-06)
(-8.72906e-06 -5.56527e-06 -4.91996e-07)
(-8.82568e-06 -5.24477e-06 -3.56251e-06)
(-1.24358e-05 -8.02234e-06 -5.73564e-07)
(-6.48134e-12 -3.12013e-13 -3.26094e-12)
(-2.98154e-11 -2.81903e-11 -9.42449e-11)
(-5.96313e-11 -4.16277e-10 -7.75e-10)
(-1.18415e-11 1.58657e-11 -4.76494e-11)
(-5.44225e-13 1.41655e-12 -5.01888e-12)
(-1.06169e-13 8.7689e-14 -3.09198e-12)
(-6.78233e-12 3.22069e-13 9.34534e-13)
(1.50014e-12 -1.3128e-13 3.15544e-12)
(5.50216e-12 -6.83301e-12 -4.35957e-12)
(1.04884e-10 -6.73011e-11 -1.45523e-10)
(-1.13191e-08 -2.92419e-08 -3.64724e-09)
(1.01651e-09 -8.78639e-09 -2.59344e-09)
(3.52162e-11 -3.54327e-11 9.11928e-11)
(1.17915e-10 -1.14881e-10 1.5414e-10)
(-2.56183e-11 -1.81598e-13 3.5053e-11)
(-2.34939e-10 -3.17663e-10 2.97303e-11)
(-1.05543e-08 -1.00066e-08 1.47009e-08)
(4.10884e-12 -1.155e-13 6.89716e-11)
(-1.7027e-11 -3.49781e-13 9.98795e-11)
(-6.84705e-11 -7.44061e-11 3.48859e-11)
(-2.63143e-11 -9.40919e-13 3.5341e-11)
(4.63605e-12 -7.31323e-13 6.99672e-11)
(-4.76558e-11 -1.40052e-10 1.23709e-10)
(-1.74191e-11 -1.98625e-12 1.0082e-10)
(-1.83247e-06 -5.28193e-07 -2.21121e-06)
(-2.08834e-10 -5.53924e-10 1.87715e-10)
(-1.26897e-08 -3.55473e-10 -1.6932e-08)
(-1.56251e-06 -8.74205e-07 -1.3134e-07)
(-4.1781e-08 1.9887e-08 -6.23971e-08)
(-1.60127e-06 -3.53208e-07 -1.67682e-06)
(6.71297e-09 -1.67894e-08 4.92256e-08)
(-1.45198e-06 -8.83947e-07 3.96741e-07)
(-9.53671e-08 2.01602e-07 -3.07443e-07)
(-2.75571e-06 -1.08686e-06 -2.80806e-06)
(-6.35227e-06 -4.00985e-06 -2.87939e-07)
(-2.49912e-06 -1.4678e-06 -1.75604e-07)
(-6.56162e-06 -3.58504e-06 -4.36211e-06)
(-2.51585e-06 -9.22402e-07 -2.104e-06)
(-6.20823e-06 -4.01722e-06 7.49428e-07)
(-2.37564e-06 -1.47683e-06 4.97617e-07)
(-6.32464e-06 -3.45135e-06 -3.24558e-06)
(-1.36461e-05 -8.3424e-06 -5.91572e-06)
(-7.94638e-06 -5.07231e-06 -3.17297e-07)
(-8.13957e-06 -4.64603e-06 -4.80454e-06)
(-1.35e-05 -8.74795e-06 -3.81761e-07)
(-1.34428e-05 -8.24777e-06 -4.43838e-06)
(-7.79985e-06 -5.07915e-06 8.17524e-07)
(-7.90889e-06 -4.52234e-06 -3.5789e-06)
(-1.33556e-05 -8.75323e-06 9.79014e-07)
(1.26521e-11 -1.08196e-11 7.66481e-11)
(2.70227e-11 -8.42363e-11 1.28307e-10)
(1.03258e-11 -2.4069e-11 1.05473e-10)
(4.37737e-11 -3.05876e-10 2.42363e-10)
(3.43504e-10 -4.36856e-10 4.88539e-10)
(-2.27533e-10 -1.20175e-09 9.86732e-10)
(-1.09825e-09 -1.17613e-09 -9.38742e-12)
(-4.95746e-09 -2.80392e-09 -1.38416e-10)
(1.79039e-12 -3.13864e-13 9.42019e-11)
(-8.63566e-12 -4.26106e-13 1.12261e-10)
(-3.54361e-11 -1.72299e-11 3.5561e-11)
(-2.81947e-11 -4.04646e-12 3.55804e-11)
(6.41502e-12 -3.07351e-12 7.19265e-11)
(2.33581e-12 -1.6146e-12 9.56955e-11)
(4.20049e-12 -6.63231e-12 9.84596e-11)
(-7.19775e-12 -1.2472e-10 1.51709e-10)
(-2.34524e-11 -3.50439e-11 1.07764e-10)
(-5.72901e-12 -3.56125e-11 1.24371e-10)
(-8.47867e-12 -2.31091e-12 1.13677e-10)
(-1.86538e-11 -8.58056e-12 1.02783e-10)
(-7.79299e-12 -9.49668e-12 1.16698e-10)
(-1.68021e-06 -6.78451e-07 -1.46496e-06)
(-1.09576e-06 -1.33958e-07 -1.57088e-06)
(-9.35718e-07 -2.66866e-07 -1.02632e-06)
(-1.02459e-10 -4.09474e-10 2.9886e-10)
(-1.49696e-09 -2.12812e-09 3.52583e-10)
(-1.10258e-09 -1.25522e-09 1.34941e-09)
(-5.47471e-10 -2.42103e-09 2.2635e-09)
(-2.82599e-07 -1.29017e-07 -4.02859e-08)
(-2.098e-08 8.91992e-09 -8.80679e-08)
(-3.05607e-07 -9.50498e-08 -2.95713e-07)
(-3.6875e-09 -5.48571e-09 5.16523e-09)
(-1.59693e-06 -7.93509e-07 -8.03381e-07)
(-8.20122e-07 -4.25987e-07 -8.56252e-08)
(-8.50982e-07 -3.6317e-07 -5.56805e-07)
(-5.26796e-07 6.87254e-08 -8.67613e-07)
(-1.23218e-08 -6.814e-09 -2.4103e-09)
(-4.01699e-08 2.02617e-08 -1.64699e-07)
(-3.79361e-07 -3.28472e-08 -5.53622e-07)
(-7.97147e-09 -4.31018e-09 8.33287e-09)
(-1.50207e-06 -5.68965e-07 -9.49737e-07)
(-8.84985e-07 5.26884e-08 -1.22834e-06)
(-7.80099e-07 -1.47032e-07 -6.86222e-07)
(-2.27175e-07 -1.41265e-07 1.69543e-07)
(1.14003e-08 4.88279e-08 -4.03484e-08)
(-2.22504e-07 -2.57422e-08 -1.06424e-07)
(-1.44665e-06 -7.40768e-07 -2.48498e-07)
(-7.28338e-07 -4.36305e-07 2.8715e-07)
(-7.23488e-07 -3.04869e-07 -1.76737e-07)
(-3.79472e-07 2.72137e-07 -7.69065e-07)
(-1.4762e-08 1.2095e-07 -1.42626e-07)
(-2.7446e-07 1.0898e-07 -4.1507e-07)
(-2.61253e-06 -1.24753e-06 -1.87377e-06)
(-3.85862e-06 -1.79222e-06 -3.36468e-06)
(-3.72454e-06 -1.95853e-06 -2.2544e-06)
(-4.90546e-06 -3.04721e-06 -2.5444e-07)
(-6.38316e-06 -3.89482e-06 -1.63367e-06)
(-4.93811e-06 -2.93716e-06 -1.44968e-06)
(-2.53398e-06 -1.37437e-06 -1.0347e-06)
(-3.6173e-06 -2.19596e-06 -2.16886e-07)
(-3.65135e-06 -2.09299e-06 -1.2501e-06)
(-5.13091e-06 -2.62949e-06 -3.88241e-06)
(-6.44556e-06 -3.75337e-06 -2.93515e-06)
(-5.00588e-06 -2.79805e-06 -2.60797e-06)
(-2.42283e-06 -1.14509e-06 -1.20094e-06)
(-3.61617e-06 -1.63814e-06 -2.50811e-06)
(-3.52904e-06 -1.86263e-06 -1.43895e-06)
(-4.76588e-06 -3.0551e-06 6.7364e-07)
(-6.20331e-06 -3.85486e-06 -5.1779e-07)
(-4.76057e-06 -2.89416e-06 -4.53648e-07)
(-2.37001e-06 -1.3251e-06 -3.18909e-07)
(-3.48442e-06 -2.20439e-06 5.89819e-07)
(-3.47884e-06 -2.04689e-06 -3.87326e-07)
(-4.88979e-06 -2.48566e-06 -2.88867e-06)
(-6.24859e-06 -3.67019e-06 -1.87539e-06)
(-4.80829e-06 -2.70855e-06 -1.66374e-06)
(-1.16928e-05 -7.03605e-06 -5.5805e-06)
(-1.35647e-05 -8.49409e-06 -3.99113e-06)
(-1.1603e-05 -7.19361e-06 -3.76385e-06)
(-7.97531e-06 -4.95411e-06 -1.8023e-06)
(-9.6765e-06 -6.22329e-06 -3.42587e-07)
(-9.70336e-06 -6.10352e-06 -1.95591e-06)
(-9.85367e-06 -5.80026e-06 -5.21041e-06)
(-8.03241e-06 -4.81221e-06 -3.23649e-06)
(-9.75528e-06 -5.96273e-06 -3.51253e-06)
(-1.35227e-05 -8.629e-06 -2.21976e-06)
(-1.15314e-05 -7.45194e-06 -3.6399e-07)
(-1.15562e-05 -7.33199e-06 -2.0949e-06)
(-1.14793e-05 -6.93191e-06 -4.17515e-06)
(-1.33876e-05 -8.43519e-06 -2.59059e-06)
(-1.14191e-05 -7.1288e-06 -2.43148e-06)
(-7.79535e-06 -4.91715e-06 -5.79619e-07)
(-9.52922e-06 -6.22962e-06 8.78261e-07)
(-9.52516e-06 -6.06951e-06 -6.38974e-07)
(-9.63095e-06 -5.68642e-06 -3.88871e-06)
(-7.83818e-06 -4.73525e-06 -2.07389e-06)
(-9.56549e-06 -5.8919e-06 -2.25925e-06)
(-1.33524e-05 -8.60072e-06 -7.49542e-07)
(-1.13849e-05 -7.45774e-06 9.31972e-07)
(-1.13813e-05 -7.30087e-06 -6.95676e-07)
(-6.57622e-12 -5.76813e-12 -1.07738e-11)
(-1.36348e-12 -5.06645e-12 -9.71049e-12)
(-2.15958e-06 -6.99287e-07 -2.18742e-06)
(-2.71471e-06 -8.99921e-07 -2.8856e-06)
(-1.80071e-06 -3.38324e-07 -2.29156e-06)
(-1.35898e-05 -8.21062e-06 -6.04488e-06)
(-1.45668e-05 -8.97403e-06 -5.28091e-06)
(-9.92986e-12 2.05202e-13 1.90772e-12)
(5.78095e-12 -7.77231e-12 -5.55265e-12)
(2.66998e-11 -6.67521e-11 -2.81347e-11)
(-1.44122e-10 -2.54367e-10 1.20924e-10)
(1.01722e-11 -1.58417e-11 -7.22705e-12)
(3.18459e-12 -7.2634e-11 -2.43124e-11)
(3.48003e-09 4.25586e-09 -4.3983e-09)
(7.23817e-09 -4.43815e-09 -1.94811e-09)
(-1.09651e-08 -1.4405e-08 5.68147e-08)
(1.32878e-08 5.63975e-09 -9.98471e-10)
(-7.13131e-06 -4.58229e-06 4.04835e-07)
(-7.00189e-06 -4.60805e-06 1.44237e-06)
(-6.29188e-06 -4.06681e-06 8.8098e-07)
(-7.06434e-06 -4.52486e-06 2.39419e-07)
(-7.88376e-06 -5.13154e-06 9.68158e-07)
(-1.95593e-06 -1.14577e-06 1.45453e-07)
(-1.52412e-06 -9.12509e-07 4.57397e-07)
(-2.01002e-06 -1.19002e-06 2.28556e-07)
(-1.91021e-06 -1.22404e-06 8.07544e-07)
(-2.45272e-06 -1.51228e-06 5.75534e-07)
(-6.50728e-06 -3.41734e-06 -4.45091e-06)
(-8.08358e-06 -4.48664e-06 -4.90131e-06)
(-7.22102e-06 -4.03743e-06 -3.97423e-06)
(-1.44559e-05 -9.4162e-06 3.04676e-07)
(-1.34358e-05 -8.80925e-06 1.18928e-06)
(-1.45227e-05 -9.47428e-06 5.55365e-07)
(-1.43919e-05 -9.49237e-06 1.87816e-06)
(-3.69824e-11 -7.67786e-13 9.11214e-11)
(1.01783e-11 4.85195e-14 -3.33789e-13)
(8.63764e-12 1.57198e-14 -3.26693e-13)
(1.11147e-11 5.02612e-14 2.26161e-12)
(1.02569e-11 -6.30904e-14 -4.24194e-13)
(-1.75237e-07 1.34014e-07 -3.41441e-07)
(-9.64622e-09 -3.16837e-08 -2.91308e-09)
(-8.20879e-09 -2.53757e-08 -1.95286e-08)
(-9.71042e-12 -1.74297e-13 1.10496e-12)
(-8.14641e-12 1.23272e-12 -2.54808e-11)
(4.54292e-12 6.20367e-13 -3.22757e-11)
(9.11431e-12 -1.97648e-10 1.83229e-10)
(-3.33644e-12 1.36529e-12 -1.28887e-11)
(-1.45606e-11 4.94119e-11 -5.33732e-11)
(8.00138e-12 1.68775e-11 -2.8482e-11)
(-2.05836e-10 1.6691e-09 -1.01068e-09)
(3.78786e-10 3.31146e-10 3.01605e-10)
(1.12303e-10 -3.91302e-10 -4.21792e-10)
(-2.0381e-06 -8.78302e-07 -1.37553e-06)
(-1.97279e-06 -1.02631e-06 -6.03665e-07)
(-1.55905e-06 -6.84945e-07 -8.63911e-07)
(-2.07777e-06 -1.01078e-06 -1.29941e-06)
(-1.90326e-06 -9.29643e-07 -6.71909e-07)
(-2.48733e-06 -1.26396e-06 -1.10445e-06)
(-3.81135e-06 -1.6104e-06 -3.44343e-06)
(-5.07938e-06 -2.45422e-06 -3.9651e-06)
(-4.35917e-06 -2.11828e-06 -3.14248e-06)
(-1.07863e-06 5.5427e-08 -1.66187e-06)
(-5.44215e-07 2.52213e-07 -9.91606e-07)
(-7.0539e-07 9.98307e-08 -1.10249e-06)
(-1.1636e-05 -6.89478e-06 -5.69773e-06)
(-9.79692e-06 -5.64973e-06 -5.31674e-06)
(-1.06536e-05 -6.3537e-06 -4.6858e-06)
(-1.45021e-05 -9.13435e-06 -3.38364e-06)
(-1.44665e-05 -9.28151e-06 -1.52748e-06)
(-1.34584e-05 -8.53611e-06 -2.38613e-06)
(-1.45632e-05 -9.23612e-06 -3.19793e-06)
(-1.43896e-05 -9.19323e-06 -1.70444e-06)
(-5.84941e-12 2.92268e-13 6.10883e-13)
(-2.99615e-12 2.38662e-13 1.49157e-12)
(-2.65743e-12 -9.31649e-13 1.05559e-10)
(-5.06008e-12 2.6605e-13 1.07421e-12)
(-5.12574e-12 2.51629e-13 1.25875e-12)
(1.04796e-11 -3.46748e-12 -2.04443e-12)
(1.03711e-11 -6.77591e-13 -7.49982e-13)
(-4.26058e-11 -1.43243e-11 9.43317e-11)
(8.71425e-12 -3.62825e-13 -6.20643e-13)
(1.18881e-11 -3.29478e-12 6.77461e-13)
(-1.37974e-10 -3.44718e-10 6.03178e-12)
(-2.37929e-10 4.42633e-09 1.31776e-09)
(-3.04679e-09 -3.98823e-09 -8.36743e-10)
(-8.05616e-11 -1.35453e-10 -2.8155e-11)
(3.07635e-10 -2.7976e-09 -1.09115e-09)
(-2.71591e-07 -1.51585e-07 1.94335e-07)
(-7.92242e-07 -4.56696e-07 3.30168e-07)
(-5.32278e-07 -2.79005e-07 1.20101e-07)
(-4.94796e-07 -2.48497e-07 8.15167e-08)
(-4.68143e-07 -3.19921e-07 4.09056e-07)
(1.37148e-08 1.93422e-09 4.57343e-09)
(1.18088e-08 -4.96872e-09 1.01525e-08)
(-1.43784e-08 5.65302e-08 -8.07484e-08)
(8.79947e-09 8.58846e-09 4.26571e-09)
(-2.67189e-10 -2.44026e-08 -2.38342e-08)
(-4.84838e-06 -3.10099e-06 7.86734e-07)
(-3.56479e-06 -2.24559e-06 6.85088e-07)
(-4.17893e-06 -2.60092e-06 1.96807e-07)
(-4.24142e-06 -2.65365e-06 3.20651e-07)
(-4.12246e-06 -2.68337e-06 1.15158e-06)
(-7.07865e-06 -4.38412e-06 -1.13567e-06)
(-7.12889e-06 -4.22203e-06 -2.53458e-06)
(-6.32227e-06 -3.78699e-06 -1.73834e-06)
(-7.18835e-06 -4.3456e-06 -2.41235e-06)
(-6.99673e-06 -4.28427e-06 -1.24956e-06)
(-7.91229e-06 -4.8491e-06 -1.92105e-06)
(-9.61259e-06 -6.28395e-06 1.04849e-06)
(-1.1467e-05 -7.51326e-06 1.12215e-06)
(-1.05884e-05 -6.88447e-06 4.83233e-07)
(-1.05202e-05 -6.82547e-06 2.75142e-07)
(-1.04555e-05 -6.90634e-06 1.68344e-06)
(-5.86986e-07 -1.71778e-07 -6.10606e-07)
(-4.62734e-07 -7.42697e-08 -3.40488e-07)
(-8.25132e-07 -2.57584e-07 -6.0841e-07)
(-5.73487e-07 -4.3102e-08 -6.70129e-07)
(-5.08945e-07 -1.57959e-07 -2.84348e-07)
(-2.9713e-07 4.97896e-09 -3.33999e-07)
(-4.3056e-06 -2.4365e-06 -1.89866e-06)
(-4.11587e-06 -2.36549e-06 -9.75873e-07)
(-3.59832e-06 -1.98225e-06 -1.33024e-06)
(-4.25263e-06 -2.30604e-06 -1.99503e-06)
(-4.19485e-06 -2.46639e-06 -8.8748e-07)
(-4.88047e-06 -2.82736e-06 -1.54147e-06)
(-1.06372e-05 -6.64188e-06 -2.84407e-06)
(-1.04518e-05 -6.58995e-06 -1.49265e-06)
(-1.05754e-05 -6.52828e-06 -2.99664e-06)
(-1.14916e-05 -7.23457e-06 -2.24471e-06)
(-9.63916e-06 -6.00202e-06 -2.08977e-06)
(-1.05326e-05 -6.68524e-06 -1.3487e-06)
(7.64958e-13 -1.6115e-11 1.12409e-10)
(-5.50551e-12 -1.71461e-13 -8.02964e-13)
(-4.07336e-12 -1.17201e-12 -2.26051e-12)
(-4.80145e-12 -1.13935e-13 3.8005e-13)
(-2.18738e-12 -1.22701e-12 -3.84438e-13)
(-2.05356e-09 -3.14933e-09 2.43657e-09)
(-1.16248e-10 2.41508e-10 -1.02157e-10)
(-1.19606e-10 -1.52487e-09 -7.66532e-10)
(-3.58534e-10 -1.95079e-09 -9.41582e-10)
(-1.04002e-10 1.64777e-09 1.13655e-09)
(2.08339e-11 -3.21011e-11 9.91216e-11)
(1.20969e-10 -4.59852e-10 3.21237e-10)
(5.59981e-12 -2.40321e-12 8.57884e-11)
(-1.86706e-11 -7.26662e-11 1.32994e-10)
(-1.46159e-11 -4.74394e-12 1.17035e-10)
(-1.35037e-06 -3.82446e-07 -1.553e-06)
(-4.86881e-10 -8.84714e-10 4.42351e-10)
(-1.05235e-07 -2.94919e-09 -1.01829e-07)
(-1.30066e-09 -1.98328e-08 1.15433e-08)
(-1.17589e-06 -5.98083e-07 -3.95938e-07)
(-1.96838e-07 9.39414e-08 -4.22528e-07)
(-2.40431e-08 -3.02448e-08 4.05593e-08)
(-1.16391e-06 -2.4301e-07 -1.13508e-06)
(-6.48643e-08 -9.06628e-09 1.86796e-08)
(-1.05453e-06 -5.76452e-07 7.03223e-08)
(-1.52898e-07 2.14292e-07 -3.99829e-07)
(-3.20476e-06 -1.5063e-06 -2.55058e-06)
(-5.62083e-06 -3.46166e-06 -9.10843e-07)
(-3.04768e-06 -1.76964e-06 -6.7248e-07)
(-5.7566e-06 -3.17956e-06 -3.41431e-06)
(-2.99716e-06 -1.38397e-06 -1.81751e-06)
(-5.45933e-06 -3.44533e-06 1.22229e-07)
(-2.89842e-06 -1.75085e-06 1.02919e-07)
(-5.54773e-06 -3.073e-06 -2.42577e-06)
(-1.26051e-05 -7.75968e-06 -4.76858e-06)
(-8.80518e-06 -5.58002e-06 -1.10993e-06)
(-8.91973e-06 -5.29606e-06 -4.15191e-06)
(-1.25109e-05 -8.03402e-06 -1.27126e-06)
(-1.24188e-05 -7.68335e-06 -3.41997e-06)
(-8.64076e-06 -5.56608e-06 1.29983e-07)
(-8.71921e-06 -5.20486e-06 -2.95974e-06)
(-1.23504e-05 -8.02237e-06 1.28152e-07)
(-8.83496e-12 -1.64588e-12 -1.19327e-12)
(5.6525e-11 -1.14672e-10 1.34924e-10)
(-6.4915e-12 6.53437e-13 -7.62804e-12)
(-1.11066e-11 1.43133e-11 -3.52139e-11)
(1.87901e-10 -1.23859e-11 1.38179e-10)
(-3.04424e-12 -3.42815e-11 -5.84836e-11)
(-1.656e-06 -5.2815e-07 -1.56645e-06)
(-2.18554e-06 -8.68443e-07 -2.06939e-06)
(-1.98467e-06 -7.37979e-07 -1.48545e-06)
(-2.57876e-06 -1.09725e-06 -1.98716e-06)
(-3.17085e-06 -1.33935e-06 -2.68055e-06)
(-1.33603e-06 -2.13578e-07 -1.66254e-06)
(-1.25556e-05 -7.63128e-06 -4.99763e-06)
(-1.35116e-05 -8.37892e-06 -4.22226e-06)
(-1.4616e-05 -9.09412e-06 -5.03343e-06)
(-1.44383e-05 -9.025e-06 -3.62268e-06)
(-9.92113e-12 2.18563e-13 1.72778e-12)
(4.56344e-12 -4.95158e-13 8.39728e-11)
(-6.78302e-12 3.23305e-13 1.05071e-12)
(-6.74192e-12 1.97176e-13 1.17106e-12)
(-6.30232e-12 9.61596e-12 -2.35156e-11)
(-1.25375e-12 2.79034e-12 -7.35218e-12)
(-5.93474e-11 -2.62871e-10 1.80036e-10)
(1.03189e-11 -9.11853e-12 -1.20197e-11)
(4.5309e-11 1.29373e-11 -5.20566e-11)
(-5.99392e-11 -5.9872e-11 1.00481e-10)
(8.33076e-12 -1.70053e-12 -1.6041e-12)
(1.40248e-11 -1.51855e-11 -4.70305e-12)
(-6.14969e-10 -1.07244e-09 1.6851e-10)
(-5.80674e-12 -3.56709e-11 -1.97102e-11)
(1.08019e-10 -3.70858e-10 -1.34054e-10)
(-2.99829e-09 -7.48834e-09 2.03572e-08)
(2.70092e-09 -1.84307e-09 -4.53032e-09)
(-1.07648e-07 -3.55807e-08 4.91553e-08)
(-9.04384e-08 -2.95963e-08 4.60473e-08)
(-8.73317e-08 -9.56998e-08 1.95565e-07)
(-3.40274e-09 1.83428e-08 -1.0227e-08)
(8.60829e-09 2.54228e-09 1.14436e-09)
(3.75749e-09 -6.80827e-09 -1.32767e-08)
(-5.54462e-06 -3.51012e-06 2.1905e-07)
(-5.60978e-06 -3.56564e-06 3.63502e-07)
(-5.48464e-06 -3.59336e-06 1.3034e-06)
(-6.28849e-06 -3.93769e-06 -4.21558e-07)
(-7.14223e-06 -4.47336e-06 -1.01524e-06)
(-6.97828e-06 -4.45823e-06 1.27432e-07)
(-7.88085e-06 -4.99996e-06 -4.69401e-07)
(-8.79463e-06 -5.69224e-06 4.44753e-07)
(-8.72665e-06 -5.63367e-06 2.58083e-07)
(-8.66267e-06 -5.71605e-06 1.56891e-06)
(-1.51682e-06 -8.12349e-07 -1.96322e-07)
(-2.01838e-06 -1.11294e-06 -5.38693e-07)
(-1.8803e-06 -1.0929e-06 8.83956e-08)
(-2.44678e-06 -1.40163e-06 -2.57334e-07)
(-1.17063e-06 -6.609e-07 1.77301e-07)
(-1.12303e-06 -6.22651e-07 1.1529e-07)
(-1.08501e-06 -6.97573e-07 6.14706e-07)
(-2.97879e-06 -1.80892e-06 1.72418e-07)
(-3.03766e-06 -1.85794e-06 2.75917e-07)
(-2.92702e-06 -1.88971e-06 9.86454e-07)
(-5.71306e-06 -3.02203e-06 -3.57358e-06)
(-8.87163e-06 -5.15196e-06 -4.34482e-06)
(-6.3968e-06 -3.613e-06 -3.0939e-06)
(-7.26733e-06 -4.18861e-06 -3.79856e-06)
(-7.06172e-06 -4.08978e-06 -2.70201e-06)
(-7.98135e-06 -4.67727e-06 -3.41247e-06)
(-1.34339e-05 -8.67906e-06 -5.91785e-07)
(-1.45316e-05 -9.36056e-06 -1.33864e-06)
(-1.4375e-05 -9.35001e-06 1.2432e-07)
(-1.25014e-05 -8.14846e-06 5.20159e-07)
(-1.24336e-05 -8.08965e-06 2.90659e-07)
(-1.2369e-05 -8.16843e-06 1.78637e-06)
(1.05713e-14 8.29138e-15 -3.00771e-12)
(3.01275e-15 4.15976e-14 -3.07887e-12)
(-1.44312e-11 -1.01641e-12 1.15278e-10)
(1.35824e-12 9.02644e-14 3.37947e-12)
(1.21757e-12 2.22368e-13 3.55878e-12)
(-3.82566e-11 -3.44733e-12 9.22633e-11)
(8.74757e-12 -5.80131e-14 -3.9752e-13)
(1.1325e-11 -5.11982e-13 1.94426e-12)
(-2.46199e-07 2.08744e-07 -4.93637e-07)
(-2.22792e-08 -2.01156e-08 -1.82975e-08)
(-1.77222e-09 -1.80423e-09 3.18364e-10)
(-2.42842e-08 -1.59132e-08 -2.40534e-08)
(-5.64542e-08 9.27919e-08 -1.72097e-07)
(2.81154e-09 1.7796e-08 1.69154e-09)
(-1.87824e-08 -4.09338e-08 -3.08673e-08)
(9.13844e-12 -9.10231e-12 8.93274e-11)
(-6.57725e-12 6.12876e-15 -1.01358e-12)
(-6.75588e-12 2.7174e-13 6.21206e-13)
(7.97596e-12 -5.71516e-11 1.26021e-10)
(-4.98824e-12 -1.04099e-12 -5.24439e-12)
(-2.05138e-13 -3.95051e-12 -6.43279e-12)
(-1.76719e-10 -7.18606e-10 5.22925e-10)
(-4.727e-11 -3.16993e-11 -1.26035e-10)
(-7.35043e-12 1.00621e-11 -1.48313e-10)
(-3.37509e-10 -2.24415e-09 1.27688e-09)
(-7.92721e-12 7.47019e-11 -1.0875e-10)
(4.83183e-10 1.79836e-09 1.57947e-10)
(-1.23599e-06 -5.11006e-07 -9.66241e-07)
(-1.20718e-06 -3.79927e-07 -1.03462e-06)
(-1.13944e-06 -5.15268e-07 -4.48569e-07)
(-1.07878e-06 -4.23628e-07 -5.08785e-07)
(-3.10436e-06 -1.65699e-06 -1.61e-06)
(-3.05692e-06 -1.52476e-06 -1.69546e-06)
(-2.99531e-06 -1.68063e-06 -7.50035e-07)
(-2.91999e-06 -1.58101e-06 -8.2768e-07)
(-4.39871e-06 -2.28118e-06 -2.99855e-06)
(-3.68401e-06 -1.81017e-06 -2.38162e-06)
(-4.96052e-06 -2.65312e-06 -2.7504e-06)
(-4.18892e-06 -2.16679e-06 -2.13095e-06)
(-7.01554e-07 -6.74649e-08 -9.96634e-07)
(-9.25202e-07 -1.17669e-07 -1.11793e-06)
(-3.89344e-07 1.17422e-07 -6.33764e-07)
(-5.47875e-07 8.59767e-08 -7.68923e-07)
(-1.07027e-05 -6.49014e-06 -4.47501e-06)
(-1.15499e-05 -7.07142e-06 -3.97624e-06)
(-9.70283e-06 -5.83391e-06 -3.70646e-06)
(-1.05087e-05 -6.40644e-06 -3.19903e-06)
(-1.2546e-05 -7.90699e-06 -3.03043e-06)
(-1.24843e-05 -7.79914e-06 -3.19934e-06)
(-1.24451e-05 -7.95166e-06 -1.44229e-06)
(-1.2366e-05 -7.85963e-06 -1.6025e-06)
(-1.8388e-12 -4.2213e-12 1.07752e-10)
(-5.7739e-12 2.61462e-13 3.43235e-13)
(-2.7936e-12 -1.32039e-14 1.07312e-12)
(-1.23808e-13 7.03784e-13 -4.00627e-12)
(1.53505e-14 1.73991e-13 -3.26932e-12)
(-1.50968e-11 -1.91193e-11 1.21077e-10)
(1.76553e-12 -6.31183e-13 2.64109e-12)
(3.28406e-12 -3.46329e-12 -3.03857e-13)
(-8.26701e-11 -1.28405e-10 -4.54673e-10)
(-2.40579e-11 1.77457e-11 -9.88493e-11)
(-4.32284e-09 -2.76385e-09 1.97746e-09)
(1.80236e-10 3.7786e-10 -4.34956e-11)
(2.09149e-09 4.83651e-09 1.38592e-09)
(-5.32414e-07 -2.35441e-07 -2.46322e-07)
(-2.62118e-07 -8.29581e-08 -6.52758e-08)
(-7.83434e-07 -3.698e-07 -1.329e-07)
(-4.38988e-07 -2.11291e-07 4.78192e-08)
(-1.39289e-07 4.94026e-08 -2.58922e-07)
(-9.70456e-08 3.52788e-08 -1.08511e-07)
(-1.41668e-07 1.17674e-07 -2.75017e-07)
(-8.16086e-08 9.68518e-08 -1.74624e-07)
(-1.07338e-08 -3.64594e-08 1.86786e-08)
(-7.09242e-09 -3.20258e-08 -3.93617e-09)
(-9.27563e-10 -1.6682e-08 -2.89706e-09)
(-4.25224e-06 -2.55649e-06 -7.96591e-07)
(-4.84437e-06 -2.97605e-06 -3.70198e-07)
(-3.55995e-06 -2.12676e-06 -3.15405e-07)
(-4.09547e-06 -2.53893e-06 1.14132e-07)
(-5.67063e-06 -3.33678e-06 -2.16597e-06)
(-5.55979e-06 -3.37154e-06 -1.01601e-06)
(-5.61378e-06 -3.20928e-06 -2.27463e-06)
(-5.47872e-06 -3.27064e-06 -1.11651e-06)
(-8.84759e-06 -5.45112e-06 -2.63823e-06)
(-8.74004e-06 -5.49246e-06 -1.24653e-06)
(-8.78655e-06 -5.33223e-06 -2.77516e-06)
(-8.65827e-06 -5.39453e-06 -1.37497e-06)
(-1.05984e-05 -6.77047e-06 -1.19516e-06)
(-9.61007e-06 -6.1515e-06 -5.13705e-07)
(-1.14648e-05 -7.38133e-06 -5.54483e-07)
(-1.04352e-05 -6.75769e-06 1.30134e-07)
(1.07978e-10 -3.00566e-11 1.05229e-10)
(6.368e-11 -6.39202e-11 1.10404e-10)
(2.03753e-11 -1.97346e-11 8.17778e-11)
(3.4203e-11 -5.9913e-11 1.1086e-10)
(9.03954e-11 -2.20784e-10 1.93198e-10)
(2.09865e-10 -2.24461e-10 2.47422e-10)
(-3.67216e-11 -3.4387e-13 9.1098e-11)
(-2.60005e-11 -4.13976e-13 3.49884e-11)
(-1.18912e-10 -1.5442e-10 3.32784e-11)
(-2.88008e-10 -5.23138e-10 1.46019e-10)
(-4.94053e-10 -6.28739e-10 1.71315e-11)
(-6.72821e-08 6.68393e-08 1.01845e-07)
(-9.16301e-09 -1.00338e-09 2.33716e-09)
(-2.03356e-08 -4.20123e-09 2.10544e-08)
(-1.56598e-06 -9.07469e-07 2.03516e-07)
(-7.94596e-06 -5.12631e-06 4.24969e-07)
(-1.34992e-05 -8.80424e-06 5.37986e-07)
(4.34126e-12 -3.07887e-13 6.95422e-11)
(4.34694e-12 -2.0466e-13 8.34244e-11)
(-1.71643e-11 -8.70117e-13 1.00363e-10)
(-1.43729e-11 -3.86609e-13 1.14642e-10)
(-8.59137e-11 -1.23068e-10 1.07892e-10)
(-4.57728e-11 -3.5763e-11 3.51862e-11)
(-3.75095e-11 -1.6548e-12 9.18317e-11)
(-2.69642e-11 -1.97606e-12 3.52486e-11)
(5.29814e-12 -1.55104e-12 7.09171e-11)
(4.91645e-12 -1.14083e-12 8.47173e-11)
(-9.0351e-11 -2.80993e-10 1.43291e-10)
(-2.79928e-11 -1.38485e-10 1.47679e-10)
(-3.05123e-11 -7.02835e-11 1.13233e-10)
(-1.45029e-11 -2.26733e-12 1.15926e-10)
(-1.78196e-11 -4.18441e-12 1.01614e-10)
(-1.72377e-06 -4.36085e-07 -1.92901e-06)
(-2.27105e-06 -7.88185e-07 -2.51479e-06)
(-1.74451e-06 -6.05444e-07 -1.8158e-06)
(-1.44072e-06 -3.09168e-07 -1.89687e-06)
(-1.63575e-10 -4.77588e-10 2.64239e-10)
(-5.21501e-10 -1.12968e-09 2.33941e-10)
(-4.78192e-09 9.18393e-10 2.27659e-08)
(2.2987e-09 -1.23615e-08 8.11291e-09)
(-1.01029e-07 -1.95873e-08 -2.61095e-08)
(-1.49207e-08 4.52355e-09 -4.99801e-08)
(-1.51486e-06 -8.6606e-07 1.3081e-07)
(-2.00737e-06 -1.15348e-06 -1.53773e-07)
(-1.57302e-06 -8.37068e-07 -4.68354e-07)
(-1.16621e-06 -6.31299e-07 -1.08522e-07)
(-9.51827e-08 1.07089e-07 -2.26903e-07)
(-2.49856e-07 1.16591e-07 -4.51989e-07)
(-4.64167e-08 -2.55478e-08 -2.018e-08)
(-4.60274e-08 2.62542e-08 -1.75048e-07)
(-2.03455e-06 -6.18502e-07 -1.89324e-06)
(-1.54954e-06 -4.70692e-07 -1.3125e-06)
(-1.21755e-06 -1.28698e-07 -1.45501e-06)
(-3.24626e-09 -4.56177e-08 9.23919e-08)
(-7.22176e-08 -5.51821e-08 1.07767e-07)
(1.20661e-08 1.4707e-08 5.56426e-09)
(-1.88983e-06 -1.16285e-06 4.48276e-07)
(-1.47275e-06 -9.42744e-07 7.12844e-07)
(-1.44241e-06 -8.16316e-07 7.98256e-08)
(-1.06405e-06 -6.41407e-07 3.43013e-07)
(-2.08852e-07 2.87315e-07 -5.45096e-07)
(-4.54189e-08 1.58501e-07 -2.09073e-07)
(-2.64238e-06 -1.00103e-06 -2.43791e-06)
(-2.67267e-06 -1.16937e-06 -2.31423e-06)
(-3.28532e-06 -1.42216e-06 -3.0913e-06)
(-6.28594e-06 -4.00503e-06 2.29456e-07)
(-6.35212e-06 -4.0616e-06 3.8435e-07)
(-7.13161e-06 -4.52931e-06 -3.03134e-07)
(-5.60974e-06 -3.51533e-06 -2.71707e-07)
(-6.36314e-06 -3.95493e-06 -9.6427e-07)
(-2.44444e-06 -1.46052e-06 1.59292e-07)
(-2.50109e-06 -1.5073e-06 2.52631e-07)
(-2.51042e-06 -1.42429e-06 -6.06773e-07)
(-3.03625e-06 -1.81576e-06 -1.96677e-07)
(-6.4485e-06 -3.51657e-06 -3.77769e-06)
(-7.33288e-06 -4.10313e-06 -4.58794e-06)
(-5.82716e-06 -3.0933e-06 -4.12697e-06)
(-6.49356e-06 -3.67104e-06 -3.61034e-06)
(-2.46774e-06 -1.043e-06 -1.6538e-06)
(-3.04357e-06 -1.26291e-06 -2.30898e-06)
(-6.22461e-06 -4.08834e-06 1.37446e-06)
(-6.9861e-06 -4.53642e-06 7.84417e-07)
(-5.46768e-06 -3.52297e-06 7.12517e-07)
(-6.20015e-06 -3.9392e-06 1.25179e-07)
(-2.39552e-06 -1.54016e-06 8.98746e-07)
(-2.36621e-06 -1.40487e-06 9.60831e-08)
(-2.90769e-06 -1.82449e-06 5.44787e-07)
(-7.09881e-06 -3.97446e-06 -3.41518e-06)
(-5.58781e-06 -2.95455e-06 -3.07008e-06)
(-6.28607e-06 -3.56836e-06 -2.56621e-06)
(-1.35482e-05 -8.29514e-06 -5.1428e-06)
(-1.46621e-05 -9.01879e-06 -6.07056e-06)
(-1.26559e-05 -7.68107e-06 -5.75241e-06)
(-1.35977e-05 -8.41942e-06 -4.90454e-06)
(-7.87838e-06 -5.06821e-06 2.48956e-07)
(-7.95671e-06 -5.01553e-06 -1.06379e-06)
(-8.79514e-06 -5.63742e-06 -3.30442e-07)
(-8.02921e-06 -4.58306e-06 -4.16326e-06)
(-8.9803e-06 -5.21223e-06 -5.012e-06)
(-8.07652e-06 -4.73078e-06 -3.97906e-06)
(-1.34319e-05 -8.74573e-06 2.97852e-07)
(-1.45235e-05 -9.41816e-06 -3.89379e-07)
(-1.35084e-05 -8.69002e-06 -1.30602e-06)
(-1.25022e-05 -8.09215e-06 -3.73311e-07)
(-1.44642e-05 -8.92883e-06 -4.56136e-06)
(-1.24474e-05 -7.58171e-06 -4.30965e-06)
(-1.34155e-05 -8.34671e-06 -3.52359e-06)
(-7.81506e-06 -5.15108e-06 1.50717e-06)
(-7.7923e-06 -5.001e-06 1.29024e-07)
(-8.64804e-06 -5.64401e-06 8.48793e-07)
(-8.75342e-06 -5.09349e-06 -3.73673e-06)
(-7.87325e-06 -4.63578e-06 -2.83319e-06)
(-1.43806e-05 -9.42318e-06 1.00015e-06)
(-1.33674e-05 -8.82326e-06 1.83363e-06)
(-1.33497e-05 -8.67892e-06 1.2645e-07)
(-1.23566e-05 -8.09769e-06 9.56304e-07)
(3.22541e-10 8.20112e-11 2.00367e-10)
(1.32995e-11 -1.71474e-11 9.29611e-11)
(8.63127e-12 -5.83757e-12 7.38395e-11)
(1.69105e-11 -4.51504e-11 1.1307e-10)
(3.91216e-11 -1.60867e-10 1.60488e-10)
(1.22757e-11 -1.05618e-10 1.44104e-10)
(6.40817e-12 -1.27309e-11 1.01068e-10)
(3.68539e-12 -3.05189e-11 1.17273e-10)
(-3.1359e-12 -6.28406e-10 4.28046e-10)
(-2.6846e-11 -3.62714e-10 2.85776e-10)
(8.73704e-11 -9.18896e-10 6.91679e-10)
(3.29331e-10 -1.14779e-09 8.83432e-10)
(-6.48963e-10 -1.3024e-09 1.25875e-09)
(-1.11021e-09 -2.88904e-09 1.86938e-09)
(-2.18723e-09 -1.88576e-09 -1.54233e-10)
(-1.51033e-09 -2.09025e-09 1.42379e-10)
(-8.53107e-09 -6.94522e-09 -4.51385e-09)
(-1.62574e-10 5.55675e-10 1.31659e-09)
(-2.89707e-07 -1.43552e-07 8.83047e-08)
(-8.2564e-07 -4.5139e-07 1.49661e-07)
(-9.67591e-06 -6.27874e-06 4.64178e-07)
(-1.15307e-05 -7.50813e-06 5.019e-07)
(-2.77135e-12 -3.99175e-13 1.04939e-10)
(1.97435e-12 -7.18958e-13 9.47856e-11)
(-8.59626e-12 -1.04426e-12 1.12982e-10)
(-3.06465e-11 -8.35038e-12 3.54232e-11)
(-4.82861e-11 -2.92119e-11 9.67838e-11)
(-3.98161e-11 -7.03992e-12 9.32743e-11)
(6.83233e-12 -4.74858e-12 8.70987e-11)
(3.00379e-12 -3.36835e-12 9.68968e-11)
(-2.36675e-12 -2.04539e-12 1.06488e-10)
(-9.14815e-13 -8.34801e-12 1.09518e-10)