/*--------------------------------*- C++ -*----------------------------------*\
| =========                 |                                                 |
| \\      /  F ield         | OpenFOAM: The Open Source CFD Toolbox           |
|  \\    /   O peration     | Version:  2012                                  |
|   \\  /    A nd           | Website:  www.openfoam.com                      |
|    \\/     M anipulation  |                                                 |
\*---------------------------------------------------------------------------*/
FoamFile
{
    version     2.0;
    format      ascii;
    class       volVectorField;
    location    "0.105/solid";
    object      sigmaMinDir;
}
// * * * * * * * * * * * * * * * * * * * * * * * * * * * * * * * * * * * * * //

dimensions      [1 -1 -2 0 0 0 0];


internalField   nonuniform List<vector> 
3125
(
(-0.084662 -0.00420834 0.996401)
(0.812387 -0.583103 -0.00425)
(-0.233922 -0.475908 0.847816)
(-0.471925 0.87869 0.0720499)
(0.718628 -0.695394 0.0010184)
(0.779342 -0.626598 -0.00103129)
(-0.152638 -0.00212303 0.98828)
(-0.221901 -0.445758 0.867214)
(-0.0856685 -0.00348959 0.996318)
(-0.211064 -0.238562 0.947914)
(-0.153323 -0.00383256 0.988169)
(0.645114 0.76407 -0.00511275)
(-0.254153 -0.263795 0.930494)
(-0.185445 0.0793666 0.979444)
(-0.570627 -0.0594377 0.819056)
(-0.481535 0.870492 0.101821)
(-0.430768 0.902462 -0.000723056)
(0.781498 -0.608348 -0.13847)
(0.984215 0.176698 -0.00992402)
(0.0377049 -0.0648845 0.99718)
(-0.351518 -0.0102252 0.936125)
(-0.616401 0.776164 0.132739)
(0.809151 -0.587587 -0.00400357)
(0.782064 -0.623197 -0.00116153)
(0.655023 0.755589 -0.0054421)
(-0.59879 -0.0573382 0.798851)
(-0.576233 -0.0609594 0.815009)
(0.790732 0.612087 -0.00961622)
(-0.429614 0.903012 -0.00099118)
(-0.42077 0.907157 -0.00425805)
(0.984411 0.175574 -0.0103968)
(-0.429546 -0.00776041 0.903012)
(-0.361335 -0.0104721 0.932377)
(0.985067 0.171434 -0.0158958)
(0.921085 0.389114 -0.0139046)
(-0.600715 -0.0562804 0.797479)
(0.799836 0.600138 -0.00989019)
(-0.612752 -0.0485855 0.78878)
(-0.401174 0.915971 -0.0075359)
(-0.419782 0.907614 -0.00444013)
(0.982686 0.183887 -0.0226488)
(-0.439328 -0.00714288 0.898299)
(0.984998 0.1718 -0.0162695)
(-0.505955 -0.00185717 0.862558)
(0.70896 -0.705248 0.00116268)
(0.927824 0.372747 -0.0141894)
(-0.399218 0.916823 -0.00774562)
(0.982407 0.185311 -0.0231596)
(0.0430808 -0.27326 0.960975)
(0.0225879 -0.0699602 0.997294)
(0.0183617 -0.339161 0.940549)
(0.719674 0.677785 -0.150591)
(-0.445592 -0.264178 0.85537)
(0.781558 -0.623774 -0.00851181)
(-0.460396 -0.426894 0.778329)
(0.876578 -0.481214 -0.00673764)
(-0.611246 -0.281242 0.739785)
(0.754518 -0.656279 6.58667e-05)
(0.758436 -0.651747 -5.68328e-05)
(0.002475 -0.00187146 0.999995)
(-0.0256873 -0.00202218 0.999668)
(-0.119195 -0.0997349 0.987849)
(-0.108783 -0.073999 0.991307)
(0.00350504 -0.00450819 0.999984)
(0.0139829 -0.038794 0.999149)
(-0.0171917 -0.290032 0.956863)
(-0.168443 -0.067129 0.983423)
(-0.0124475 -0.0775206 0.996913)
(-0.0249177 -0.00521227 0.999676)
(-0.161147 -0.036742 0.986246)
(-0.0178396 -0.0427144 0.998928)
(-0.187968 0.982044 0.016075)
(0.349418 0.936967 0.000203586)
(-0.170359 0.985288 0.0135863)
(-0.0523948 -0.350012 0.935279)
(-0.296847 -0.373142 0.879003)
(-0.506708 -0.170637 0.845062)
(0.697165 0.600132 -0.392177)
(-0.532667 -0.0220282 0.846038)
(-0.128471 0.973286 0.190286)
(-0.194164 0.980522 0.0296287)
(-0.666357 0.0805093 0.741274)
(0.0805724 0.996369 -0.0274942)
(-0.544723 -0.0422867 0.837549)
(-0.172454 0.984857 0.0177604)
(0.193626 0.981075 0.000716333)
(0.757106 -0.491451 -0.430426)
(-0.165978 0.969726 0.179118)
(-0.171729 0.984914 0.0212949)
(-0.671332 0.297468 0.678842)
(-0.412055 0.911156 0.0020632)
(-0.454534 0.890729 0.00113272)
(0.983711 0.116659 -0.136761)
(0.979973 0.199038 -0.00601838)
(0.989409 -0.0786241 -0.122018)
(-0.284333 -0.00632421 0.958705)
(-0.132768 0.958251 0.253235)
(0.911051 -0.373913 -0.173709)
(0.966903 0.091961 -0.237995)
(-0.310509 -0.00769543 0.950539)
(0.976008 -0.022196 -0.216601)
(0.980919 0.194302 -0.00661528)
(-0.185265 0.956753 0.224279)
(-0.644824 0.762707 0.0498016)
(0.797454 -0.603375 -0.00244828)
(0.795439 -0.606029 -0.00228001)
(-0.208897 0.977756 0.0188721)
(0.719753 0.69419 -0.00750518)
(-0.523935 0.849699 0.059193)
(-0.591667 -0.0602197 0.80393)
(0.975413 0.0734286 -0.207793)
(0.975655 0.102554 -0.193857)
(0.962201 0.203357 -0.181148)
(-0.588612 -0.0609449 0.806115)
(0.974695 0.117733 -0.19002)
(0.728344 0.685168 -0.0077793)
(0.980668 -0.145795 -0.130515)
(0.800213 -0.591926 -0.0963448)
(-0.4264 0.904531 -0.00267077)
(-0.425643 0.904887 -0.00286614)
(0.981964 0.126137 -0.140844)
(0.985219 0.170798 -0.0130991)
(0.97895 0.133916 -0.154026)
(-0.400056 -0.00940278 0.916443)
(0.95384 0.0917683 -0.28595)
(0.958734 0.0987819 -0.266592)
(0.964975 0.0979823 -0.243359)
(-0.390267 -0.00984914 0.920649)
(0.96023 0.100477 -0.260506)
(0.985238 0.170661 -0.0134523)
(0.976328 0.12891 -0.173684)
(0.978277 0.13338 -0.158695)
(0.869627 0.493564 -0.0120219)
(0.985384 -0.0199065 -0.16918)
(0.987427 -0.0392481 -0.153127)
(0.974686 0.0673863 -0.213183)
(-0.60591 -0.0530324 0.793763)
(0.971324 0.054425 -0.231445)
(0.861526 0.507577 -0.011749)
(0.985079 -0.10679 -0.134965)
(0.987708 -0.0493611 -0.148309)
(0.964502 0.043081 -0.260539)
(-0.607578 -0.0519422 0.792559)
(0.969851 0.0514077 -0.238213)
(-0.411412 0.911429 -0.00602896)
(-0.412766 0.910818 -0.00583736)
(0.984072 0.176703 -0.0194386)
(0.968603 0.111905 -0.222003)
(0.972048 0.119032 -0.202373)
(0.952017 0.089246 -0.292744)
(-0.468338 -0.00509596 0.883535)
(0.945918 0.0815839 -0.313979)
(0.98425 0.175759 -0.0190072)
(0.9756 0.127075 -0.179043)
(0.973036 0.121197 -0.196248)
(0.936253 0.0711201 -0.344052)
(-0.477871 -0.00435047 0.878419)
(0.943665 0.07907 -0.321317)
(0.147766 -0.189479 0.970702)
(0.114193 -0.127563 0.985235)
(0.174151 -0.245097 0.953729)
(0.34303 0.0400236 0.938471)
(0.14339 -0.319363 0.936721)
(-0.503571 -0.00400467 0.863945)
(0.816675 -0.577073 -0.00530369)
(-0.541644 -0.427578 0.72374)
(-0.307212 -0.490031 0.815776)
(-0.582683 -0.421757 0.694695)
(-0.608129 0.793547 0.0215101)
(0.734489 -0.10984 -0.669673)
(0.817674 0.171208 -0.549633)
(0.736057 -0.676919 0.000593683)
(0.772025 -0.635592 -0.000600162)
(0.036186 -0.000933242 0.999345)
(-0.0665667 -0.00207528 0.99778)
(-0.549169 -0.404646 0.731215)
(-0.179176 -0.299566 0.9371)
(-0.5708 -0.300919 0.76396)
(-0.504937 -0.00866351 0.863113)
(-0.0898276 -0.0184323 0.995787)
(-0.511239 -0.0235729 0.859116)
(0.0373975 -0.00304528 0.999296)
(0.0395301 -0.0064609 0.999197)
(-0.132714 -0.296429 0.945789)
(-0.194392 -0.176878 0.964845)
(-0.0986054 -0.217898 0.970978)
(-0.0667377 -0.00532254 0.997756)
(-0.154672 -0.00934768 0.987922)
(-0.0670705 -0.011278 0.997684)
(0.966658 -0.252248 -0.0440748)
(0.596781 0.802395 -0.00386025)
(0.82628 -0.56204 -0.0370417)
(-0.194782 -0.340401 0.919884)
(-0.284811 -0.290542 0.913492)
(-0.270127 -0.364684 0.891087)
(-0.0142104 -0.0756639 0.997032)
(-0.375184 0.138709 0.916513)
(-0.405254 0.800962 0.440713)
(0.59682 -0.590583 -0.543155)
(-0.334787 0.886879 -0.318375)
(0.843819 0.0852382 -0.529816)
(-0.563893 -0.0565473 0.82391)
(0.843399 0.0777341 -0.531635)
(0.924504 -0.370698 -0.0887454)
(-0.241516 0.234546 0.941625)
(-0.208953 0.967316 0.143664)
(0.713047 -0.695446 -0.0889855)
(-0.219608 0.957989 -0.184472)
(-0.431646 0.902043 0.000303039)
(-0.487281 0.873136 0.0137947)
(0.587461 0.80844 -0.0362399)
(0.983581 0.180277 -0.0082591)
(0.556037 0.830641 -0.0292925)
(-0.110016 0.0406339 0.993099)
(0.195307 0.126538 0.972545)
(-0.259383 0.172036 0.950329)
(-0.613238 -0.0259131 0.789473)
(-0.340846 -0.0096159 0.94007)
(-0.605438 -0.0245504 0.795514)
(0.945204 -0.326096 -0.0158467)
(-0.242473 0.941665 0.233394)
(-0.548242 0.833845 0.0642915)
(0.804133 -0.594441 -0.00325604)
(0.788264 -0.615335 -0.00162261)
(0.981183 -0.187684 -0.0453383)
(0.684424 0.729057 -0.00638159)
(0.972979 -0.226322 -0.0457099)
(-0.596683 -0.0583685 0.800351)
(0.828827 0.0758402 -0.554341)
(0.832042 0.078416 -0.549142)
(0.84369 0.0886192 -0.529466)
(-0.580997 -0.061476 0.811581)
(0.84297 0.0889862 -0.53055)
(0.763955 0.645209 -0.00883519)
(0.980757 -0.187924 -0.0529192)
(0.981126 -0.186556 -0.0508697)
(-0.428562 0.903511 -0.0017761)
(-0.422964 0.906139 -0.00366405)
(0.600445 0.798998 -0.0326758)
(0.984919 0.172624 -0.0116463)
(0.601105 0.798203 -0.0393059)
(-0.419727 -0.00834694 0.907612)
(-0.657875 -0.0216919 0.752815)
(-0.653218 -0.0226631 0.75683)
(-0.620005 -0.0263988 0.784154)
(-0.370936 -0.0104369 0.9286)
(-0.626212 -0.0263809 0.779207)
(0.985189 0.170827 -0.0148353)
(0.665256 0.744812 -0.0518618)
(0.633829 0.772255 -0.0433838)
(0.900256 0.435164 -0.0130939)
(0.993948 -0.0844101 -0.0702955)
(0.990644 -0.11958 -0.0657686)
(0.825403 0.0733502 -0.559758)
(-0.602514 -0.0552008 0.796197)
(0.821813 0.0709309 -0.565324)
(0.827049 0.562028 -0.0106822)
(0.982892 -0.17617 -0.0537314)
(0.984777 -0.164411 -0.0564241)
(0.798728 0.0578203 -0.598907)
(-0.610986 -0.0497193 0.790078)
(0.802628 0.0599147 -0.593464)
(-0.40578 0.913945 -0.0068617)
(-0.417247 0.908779 -0.00503857)
(0.983285 0.180835 -0.0212162)
(0.797967 0.597658 -0.0778127)
(0.769893 0.634493 -0.0684341)
(-0.662295 -0.0206982 0.748957)
(-0.449059 -0.00648941 0.893479)
(-0.666499 -0.0196807 0.745246)
(0.984772 0.17298 -0.0173976)
(0.66062 0.749158 -0.0484167)
(0.695707 0.716035 -0.0573239)
(-0.687922 -0.0130922 0.725666)
(-0.496686 -0.00273232 0.867926)
(-0.68475 -0.0142778 0.728638)
(0.992184 -0.102657 -0.0709335)
(0.810751 0.580333 -0.0767815)
(0.0643015 -0.0469444 0.996826)
(0.0846529 -0.0801789 0.993179)
(0.100029 -0.243276 0.964786)
(0.0443557 -0.188463 0.981078)
(0.0884304 -0.16328 0.982609)
(0.0543382 -0.0592127 0.996765)
(0.0339734 -0.120039 0.992188)
(0.0698301 -0.102233 0.992306)
(0.0902989 -0.313828 0.945176)
(-0.0536045 -0.386743 0.920628)
(0.022053 -0.380733 0.924422)
(0.628416 0.47429 0.616557)
(-0.353257 -0.428184 0.831786)
(0.00461068 -0.361469 0.932373)
(-0.231418 -0.312416 0.921326)
(-0.377302 -0.351489 0.856796)
(-0.133036 -0.367258 0.920556)
(0.828544 -0.559897 -0.00554082)
(-0.325447 -0.487782 0.810033)
(0.696956 0.328617 -0.637388)
(-0.596904 -0.415922 0.686086)
(-0.657172 0.751286 0.0607729)
(-0.549051 0.28297 0.786429)
(0.732941 0.276992 -0.621348)
(0.792715 0.20409 -0.574413)
(0.741215 -0.671268 0.000468821)
(0.768293 -0.640098 -0.000468871)
(0.0302529 -0.00147197 0.999541)
(-0.0604044 -0.00204651 0.998172)
(-0.160197 -0.242392 0.956861)
(-0.553735 -0.123851 0.823431)
(-0.575332 -0.252225 0.778059)
(-0.0929139 -0.0236458 0.995393)
(-0.543529 -0.0902742 0.834522)
(-0.515513 -0.0350949 0.856163)
(0.0514836 -0.0260005 0.998335)
(0.0437698 -0.0138324 0.998946)
(0.0313529 -0.00370201 0.999502)
(0.00539361 -0.0100253 0.999935)
(0.0333302 -0.00826761 0.99941)
(0.0436709 -0.0327875 0.998508)
(0.00858548 -0.0205 0.999753)
(0.037071 -0.0172765 0.999163)
(-0.0795488 -0.297111 0.951523)
(-0.00471973 -0.204921 0.978767)
(-0.0600949 -0.213921 0.975001)
(-0.179216 -0.116265 0.976916)
(-0.073667 -0.0822038 0.993889)
(-0.0813612 -0.141357 0.98661)
(-0.00632717 -0.132338 0.991184)
(-0.0552887 -0.0810275 0.995177)
(-0.0549435 -0.138474 0.988841)
(-0.0600973 -0.00542629 0.998178)
(-0.0233995 -0.0112409 0.999663)
(-0.0596876 -0.0114721 0.998151)
(-0.156984 -0.0186295 0.987425)
(-0.0698949 -0.0443983 0.996566)
(-0.0679877 -0.0230811 0.997419)
(-0.0212292 -0.0224815 0.999522)
(-0.0571484 -0.044187 0.997387)
(-0.0587544 -0.0231198 0.998005)
(0.266943 0.963513 -0.0195776)
(-0.179526 0.983645 0.0145649)
(0.140154 0.990066 -0.0112539)
(0.569172 0.822211 -0.00342441)
(-0.350216 0.936585 0.0125355)
(0.763076 -0.645461 -0.0330844)
(-0.171563 0.985071 0.0141736)
(-0.145422 0.989323 0.00957586)
(0.00901801 0.999957 -0.00192544)
(-0.123385 -0.351616 0.927977)
(-0.119832 -0.384671 0.915242)
(-0.186751 -0.382737 0.904785)
(-0.491065 -0.136973 0.860287)
(-0.425488 -0.31892 0.846906)
(-0.408067 -0.274771 0.870622)
(-0.307679 -0.255038 0.916673)
(-0.533777 -0.136897 0.83447)
(-0.340328 -0.264979 0.902199)
(-0.066226 -0.0419664 0.996922)
(-0.571878 -0.310734 0.75921)
(-0.439285 -0.429455 0.789048)
(-0.491915 -0.0260141 0.870254)
(0.837256 -0.106773 -0.536285)
(0.830136 -0.0653557 -0.553717)
(-0.168792 0.958505 0.229735)
(-0.311238 0.924873 0.218495)
(-0.188055 0.96406 -0.187682)
(-0.402604 0.870942 0.281727)
(-0.223381 0.949901 -0.218608)
(-0.31045 0.947413 0.0776481)
(-0.572819 0.815429 0.0833869)
(0.696559 -0.693773 -0.18299)
(-0.616848 -0.140504 0.77444)
(-0.533956 -0.384493 0.753031)
(-0.466809 -0.434251 0.770399)
(0.952327 0.0616217 -0.298791)
(-0.142634 0.989691 0.0129634)
(0.954338 0.0153167 -0.298337)
(-0.555693 -0.0507323 0.829838)
(0.841819 0.0262974 -0.53912)
(0.842735 0.058195 -0.535174)
(-0.169211 0.985412 0.0181992)
(-0.468012 0.875224 0.122259)
(0.929262 -0.234033 -0.285835)
(-0.203686 0.978855 0.0188654)
(-0.366308 0.930437 0.0103017)
(-0.57804 0.814929 0.0419472)
(-0.10999 -0.629064 0.769533)
(0.738724 -0.485066 -0.467971)
(0.793924 -0.167463 -0.5845)
(-0.262653 0.949188 0.173366)
(-0.3242 0.924439 0.200768)
(-0.205598 0.963935 -0.168993)
(-0.133403 0.979928 0.148136)
(-0.321141 0.938959 -0.123389)
(-0.152744 0.988125 0.0166568)
(-0.650512 0.755583 0.0769925)
(-0.512738 0.857206 0.0479316)
(0.666848 -0.44333 -0.598976)
(-0.584634 -0.297522 0.754774)
(-0.646943 -0.0808516 0.75824)
(-0.437278 0.899326 0.000569023)
(0.81513 -0.579077 -0.015251)
(0.994837 0.0653503 -0.077639)
(0.986317 0.0976185 -0.132853)
(0.99648 0.0380063 -0.0747185)
(0.983397 0.181308 -0.00765355)
(-0.0608485 0.998098 -0.00985349)
(0.47645 0.878644 -0.0312992)
(0.989824 0.0601096 -0.128977)
(0.946106 -0.317889 -0.061887)
(0.99595 -0.0552063 -0.0709692)
(-0.231595 -0.00331346 0.972807)
(-0.555477 -0.0211127 0.831264)
(-0.488341 0.0078099 0.872618)
(-0.080443 0.926529 0.367523)
(-0.44036 0.888929 0.126051)
(-0.646555 0.717227 0.259908)
(0.905719 -0.0253226 -0.423121)
(0.769935 -0.627383 -0.116576)
(0.890835 -0.277855 -0.359456)
(0.88836 0.06445 -0.454602)
(0.969436 0.078487 -0.232452)
(0.890774 0.0586433 -0.450647)
(-0.328221 -0.00860813 0.944562)
(-0.580309 -0.0205912 0.814136)
(-0.595442 -0.0229717 0.80307)
(0.972398 0.0554288 -0.22665)
(0.898368 0.0258271 -0.438484)
(0.893431 0.0501113 -0.446397)
(0.971221 -0.237138 -0.0222516)
(-0.165976 0.986053 -0.0123056)
(-0.464049 0.885371 0.0278843)
(-0.218629 0.953523 0.207355)
(-0.388559 0.916252 0.097492)
(-0.408368 0.909586 0.0767417)
(-0.587806 0.808796 0.0182554)
(0.710533 -0.700988 -0.0613)
(-0.590841 0.806368 0.0260201)
(0.802072 -0.597219 -0.00305144)
(0.790388 -0.612604 -0.00176896)
(0.339785 0.940181 -0.0246088)
(-0.250261 0.967876 0.024211)
(0.393543 0.918861 -0.0285962)
(0.693063 0.720846 -0.00667511)
(0.974109 -0.22102 -0.0475648)
(0.981514 -0.185589 -0.0467617)
(-0.337458 0.940681 0.0352428)
(0.491646 0.870019 -0.0367443)
(0.440922 0.896959 -0.0324358)
(-0.594332 -0.0593437 0.802027)
(0.837628 0.0835796 -0.539808)
(0.834993 0.0810266 -0.544262)
(0.939851 0.0686742 -0.33461)
(0.97586 0.0811402 -0.202763)
(0.942008 0.0717906 -0.327822)
(0.945607 0.0784785 -0.315703)
(0.975968 0.0907685 -0.198112)
(0.943927 0.0751131 -0.321497)
(0.950656 0.0789494 -0.300032)
(0.969683 0.161093 -0.183752)
(0.949454 0.0837036 -0.302541)
(-0.585086 -0.0614161 0.808643)
(0.839877 0.0859706 -0.535925)
(0.84168 0.0879327 -0.532768)
(0.972874 0.136687 -0.186637)
(0.947055 0.0815908 -0.310531)
(0.948304 0.0838276 -0.306091)
(0.755362 0.655252 -0.00856821)
(0.980347 -0.191216 -0.0485464)
(0.976966 -0.207462 -0.0499683)
(0.761012 0.645808 -0.0615842)
(0.969412 -0.211028 -0.125334)
(0.689553 0.722174 -0.0545944)
(0.550162 0.834008 -0.0418627)
(0.933833 -0.338013 -0.117061)
(0.617227 0.785327 -0.0478778)
(-0.427863 0.903842 -0.00199816)
(-0.423842 0.90573 -0.00347848)
(0.993482 0.0804449 -0.0807656)
(0.980669 0.131271 -0.145106)
(0.992707 0.0865926 -0.0838706)
(0.985031 0.171957 -0.0120291)
(0.616404 0.786262 -0.0428763)
(0.602687 0.797186 -0.0355405)
(0.979716 0.133441 -0.1495)
(0.991664 0.0920848 -0.0901279)
(0.992117 0.0901957 -0.0869931)
(-0.409887 -0.00890062 0.912093)
(-0.643157 -0.0244892 0.765342)
(-0.648314 -0.0236083 0.761007)
(0.871355 0.0573526 -0.487289)
(0.955559 0.0942704 -0.279321)
(0.873693 0.0595118 -0.482823)
(0.878149 0.0636288 -0.474137)
(0.957183 0.0966693 -0.272866)
(0.875958 0.0616352 -0.478434)
(0.886325 0.0667236 -0.458231)
(0.963262 0.100867 -0.248903)
(0.884308 0.0673875 -0.462016)
(-0.380556 -0.0102063 0.924701)
(-0.637755 -0.025296 0.769824)
(-0.632109 -0.0259496 0.774445)
(0.961722 0.101319 -0.254607)
(0.880263 0.0654024 -0.469957)
(0.882313 0.0667356 -0.465909)
(0.985225 0.170649 -0.0144816)
(0.613687 0.788581 -0.0390952)
(0.63836 0.768299 -0.0470539)
(0.989864 0.0973353 -0.103421)
(0.977001 0.130666 -0.168512)
(0.990336 0.0961602 -0.0999374)
(0.991226 0.0936118 -0.093313)
(0.977642 0.132205 -0.163519)
(0.99079 0.0949104 -0.0965729)
(0.893165 0.449546 -0.0128187)
(0.988313 -0.13962 -0.0611866)
(0.991899 -0.109064 -0.06513)
(0.978393 0.18099 -0.0999535)
(0.986227 -0.0246926 -0.163547)
(0.972679 0.211363 -0.0960324)
(0.952674 0.29092 -0.0881854)
(0.986925 -0.0308382 -0.158205)
(0.964511 0.247441 -0.0921457)
(0.937464 0.0658328 -0.341801)
(0.973748 0.0623306 -0.218928)
(0.934858 0.0631833 -0.349353)
(-0.604232 -0.0541249 0.794968)
(0.814294 0.0663462 -0.576648)
(0.818098 0.0686164 -0.57097)
(0.972616 0.0581967 -0.225015)
(0.929019 0.0584631 -0.365385)
(0.932041 0.0607542 -0.357224)
(0.835762 0.548982 -0.0109548)
(0.988777 -0.136601 -0.0605068)
(0.985424 -0.160227 -0.0571621)
(0.824344 0.561955 -0.0682933)
(0.986915 -0.0812171 -0.139293)
(0.874406 0.479474 -0.0742898)
(0.935567 0.343007 -0.0840289)
(0.987623 -0.0628316 -0.143713)
(0.910581 0.405618 -0.0794766)
(0.914994 0.0501728 -0.400337)
(0.966444 0.0458126 -0.252759)
(0.918782 0.0522064 -0.391298)
(-0.609262 -0.0508433 0.791337)
(0.81043 0.0641679 -0.58231)
(0.806532 0.062032 -0.587927)
(0.968225 0.048575 -0.245319)
(0.925797 0.056333 -0.373801)
(0.922383 0.0542543 -0.382448)
(-0.407363 0.913242 -0.00665895)
(-0.416011 0.909345 -0.00522617)
(0.983512 0.179649 -0.0207469)
(0.730085 0.680634 -0.0609329)
(0.762799 0.64281 -0.0702386)
(0.984644 0.108533 -0.136734)
(0.969829 0.114471 -0.215239)
(0.985398 0.107594 -0.13196)
(0.986845 0.104928 -0.122994)
(0.970971 0.116876 -0.208698)
(0.986131 0.106394 -0.127384)
(0.868953 0.0551948 -0.491806)
(0.950091 0.0866946 -0.299686)
(0.866501 0.0530354 -0.496349)
(-0.458732 -0.00581282 0.888556)
(-0.674315 -0.0175964 0.738234)
(-0.6705 -0.0186554 0.741675)
(0.948055 0.0841737 -0.306767)
(0.861476 0.0487769 -0.50545)
(0.864006 0.0509087 -0.500901)
(0.984636 0.173708 -0.0177974)
(0.728411 0.682197 -0.0634354)
(0.693106 0.71879 -0.0542604)
(0.989343 0.0987008 -0.107041)
(0.974815 0.125151 -0.184588)
(0.988788 0.100108 -0.1108)
(0.987523 0.103401 -0.118769)
(0.973956 0.123235 -0.190322)
(0.988173 0.101768 -0.114708)
(0.851078 0.0402777 -0.523493)
(0.938837 0.0738486 -0.336352)
(0.853715 0.0424345 -0.519009)
(-0.487324 -0.00356591 0.873214)
(-0.677952 -0.0165247 0.73492)
(-0.68143 -0.0154221 0.73172)
(0.941304 0.0765118 -0.328773)
(0.858913 0.0466765 -0.50999)
(0.856326 0.0445679 -0.514509)
(-0.0531083 -0.00254137 0.998586)
(-0.180459 -0.00594434 0.983565)
(-0.0840887 -0.00132993 0.996457)
(-0.0648936 -0.00376562 0.997885)
(-0.180636 0.00180788 0.983548)
(-0.0543368 -0.00303557 0.998518)
(-0.0630725 -0.0025688 0.998006)
(0.813232 -0.581922 -0.00457762)
(-0.244647 -0.265516 0.93255)
(-0.280296 -0.46903 0.837523)
(-0.252106 -0.176191 0.951525)
(-0.254528 -0.488625 0.834542)
(-0.201322 -0.277224 0.939476)
(-0.236851 -0.191114 0.952563)
(-0.303216 -0.47818 0.82426)
(-0.11559 0.951614 -0.284726)
(-0.415637 0.905559 0.0849082)
(-0.667555 0.734848 0.119869)
(-0.633139 0.763338 0.128257)
(-0.172917 0.878194 -0.445954)
(-0.473589 0.858087 0.198493)
(0.75153 -0.62113 -0.222263)
(0.723869 -0.689937 0.000869337)
(0.777437 -0.62896 -0.000879712)
(-0.166029 -0.237862 0.957004)
(-0.259581 -0.446738 0.85618)
(-0.223183 -0.169145 0.959989)
(-0.208193 -0.407514 0.88915)
(-0.193285 -0.251959 0.948239)
(-0.225834 -0.153983 0.961919)
(-0.237122 -0.414257 0.878729)
(-0.0564775 -0.00451904 0.998394)
(-0.181187 0.00284155 0.983445)
(-0.0662188 -0.00509327 0.997792)
(-0.0868351 -0.00796225 0.996191)
(-0.0554984 -0.00227747 0.998456)
(-0.182173 -0.00588235 0.983249)
(-0.0670071 -0.00821075 0.997719)
(0.985334 -0.169223 -0.0219121)
(-0.553405 0.832839 0.0110291)
(0.38797 0.92164 -0.00767035)
(0.63154 0.775329 -0.00472228)
(-0.553127 0.83302 0.0113303)
(0.385467 0.922692 -0.00741785)
(0.985189 -0.170107 -0.0216145)
(-0.430741 0.902476 -0.000392664)
(-0.377007 0.924913 0.0490049)
(0.967886 0.250527 -0.0208173)
(0.990501 0.135742 -0.0219316)
(0.447968 0.893994 -0.00993739)
(0.983993 0.177959 -0.00940556)
(0.990544 0.135542 -0.0212414)
(0.449274 0.893348 -0.00909577)
(0.968516 0.247966 -0.0221075)
(-0.32169 0.944117 0.0718186)
(-0.683394 0.728306 0.0504224)
(-0.270836 0.944979 0.183473)
(-0.516643 0.849665 0.105586)
(-0.257418 0.956956 0.134059)
(-0.370443 0.927389 0.0521703)
(-0.365905 0.920185 0.139184)
(0.807956 -0.58923 -0.00372709)
(0.784078 -0.620661 -0.00132059)
(0.984426 -0.174531 -0.0210922)
(-0.553941 0.832487 0.01069)
(0.385983 0.922473 -0.00783901)
(0.665352 0.746507 -0.00576814)
(0.984499 -0.174093 -0.0213098)
(-0.553777 0.832599 0.0104341)
(0.386115 0.922415 -0.00807034)
(0.982648 -0.184362 -0.0203142)
(0.781564 0.623755 -0.00935515)
(-0.548119 0.836361 0.00815515)
(0.40065 0.916152 -0.012025)
(-0.547971 0.836457 0.00821902)
(0.398574 0.917061 -0.011708)
(0.982761 -0.18375 -0.0204005)
(-0.429621 0.903009 -0.00127327)
(-0.421556 0.906793 -0.00405536)
(0.968911 0.246205 -0.0243936)
(0.991017 0.131816 -0.0225757)
(0.447698 0.894121 -0.0106677)
(0.984608 0.174443 -0.0108391)
(0.968248 0.248904 -0.0232781)
(0.991675 0.126664 -0.0231909)
(0.446936 0.894493 -0.0113906)
(0.96742 0.25061 -0.0359539)
(0.985092 0.171326 -0.0155364)
(0.993282 0.111484 -0.0310343)
(0.457184 0.889163 -0.0192847)
(0.993637 0.108442 -0.0304308)
(0.455791 0.88989 -0.0187186)
(0.967335 0.250812 -0.0368204)
(0.981441 -0.19034 -0.0233428)
(0.914315 0.404775 -0.0136344)
(-0.540056 0.841592 0.00785573)
(0.468813 0.883093 -0.019024)
(-0.539251 0.842109 0.00778332)
(0.463461 0.885924 -0.018494)
(0.981608 -0.189432 -0.023682)
(0.982689 -0.184116 -0.0205922)
(0.808831 0.587954 -0.0101508)
(-0.547327 0.83688 0.00805282)
(0.403055 0.915092 -0.012373)
(-0.546628 0.837338 0.00800114)
(0.982392 -0.185707 -0.0204796)
(0.40546 0.914025 -0.0127095)
(-0.402866 0.91523 -0.00729249)
(-0.419219 0.907873 -0.0046441)
(0.96103 0.271656 -0.0512185)
(0.98284 0.183126 -0.0221578)
(0.976819 0.209672 -0.0431571)
(0.489925 0.871279 -0.029089)
(0.976973 0.209128 -0.0422973)
(0.487477 0.872675 -0.0283668)
(0.960807 0.272236 -0.0523295)
(0.966723 0.252899 -0.0385799)
(0.984948 0.172047 -0.0166401)
(0.99271 0.116291 -0.0316803)
(0.458573 0.888436 -0.0198125)
(0.96688 0.252435 -0.0376869)
(0.992509 0.117827 -0.0323021)
(0.459966 0.887702 -0.0203866)
(-0.539395 0.842016 0.00788599)
(0.476422 0.878997 -0.0196492)
(0.981043 -0.192295 -0.0240186)
(0.97495 0.21801 -0.0440892)
(0.492743 0.869665 -0.029774)
(0.960537 0.272974 -0.0534163)
(0.844181 -0.536021 -0.00631741)
(-0.179771 -0.393552 0.901554)
(-0.388185 -0.44068 0.809391)
(-0.264108 -0.310854 0.913026)
(-0.503414 -0.414781 0.757978)
(-0.442214 -0.218063 0.869997)
(0.715961 -0.4868 -0.500426)
(-0.454626 -0.413966 0.788636)
(-0.662955 0.74851 0.0149536)
(-0.64964 0.191427 0.735747)
(0.747746 -0.351439 -0.563353)
(0.644115 -0.613059 -0.457465)
(-0.599725 -0.319662 0.733585)
(0.705097 -0.131684 -0.696777)
(-0.317391 0.779411 -0.540168)
(-0.662656 -0.14944 0.733863)
(0.75077 -0.660563 0.00020613)
(0.761792 -0.647821 -0.000197753)
(-0.0939973 -0.0864994 0.991808)
(-0.12996 -0.139332 0.981681)
(-0.194224 -0.03787 0.980226)
(-0.109577 -0.110633 0.987802)
(-0.084535 -0.0649492 0.994301)
(-0.197004 -0.0549896 0.978859)
(-0.125158 -0.151063 0.980569)
(-0.0703406 -0.0355832 0.996888)
(-0.102513 -0.0508599 0.993431)
(-0.189855 -0.0331617 0.981252)
(-0.0971345 -0.0803999 0.992019)
(-0.0767787 -0.0489251 0.995847)
(-0.18865 -0.0195995 0.981849)
(-0.0870283 -0.057128 0.994566)
(0.985355 -0.16828 -0.0275196)
(0.438468 0.898745 -0.00170214)
(-0.559688 0.828543 0.0163057)
(0.110347 0.993891 -0.00209937)
(-0.486686 0.873455 0.0145896)
(0.967428 -0.251358 -0.0300434)
(0.214839 0.97664 -0.0043794)
(0.783929 -0.619631 -0.0388841)
(0.119314 0.992845 0.00480404)
(0.0990457 0.995025 0.0107659)
(-0.0332899 0.999445 -0.000903616)
(-0.513914 0.857555 0.0221903)
(0.910471 -0.411883 -0.037346)
(-0.137835 0.990452 0.00262481)
(-0.44234 0.896846 0.00114988)
(-0.401766 0.91574 0.00205869)
(0.965791 0.258981 -0.0132655)
(0.981753 0.190048 -0.00646943)
(0.740579 -0.671908 -0.00910292)
(0.46377 0.885948 -0.00365977)
(0.994027 -0.10772 -0.0174845)
(0.446978 0.894535 -0.00414503)
(0.973457 0.228554 -0.0119958)
(0.890963 -0.454068 -0.00257626)
(0.991702 0.128296 -0.00821533)
(-0.571445 0.820632 0.00387034)
(0.414016 0.910264 -0.00320837)
(-0.614857 0.788636 0.00216796)
(0.363968 0.931397 -0.00521918)
(0.995055 0.0988064 -0.0101858)
(0.798856 -0.601516 -0.0026471)
(0.794159 -0.607706 -0.00209847)
(0.983326 -0.180707 -0.0203612)
(0.710565 0.703594 -0.00723304)
(-0.552372 0.833547 0.00913502)
(0.386695 0.922158 -0.0095878)
(-0.552287 0.833602 0.0092889)
(0.983363 -0.180513 -0.0203015)
(0.385502 0.92266 -0.00931403)
(0.983246 -0.18116 -0.0202171)
(0.737234 0.67559 -0.00804108)
(-0.551614 0.834052 0.00895199)
(0.387551 0.921796 -0.009873)
(-0.551047 0.834428 0.00882131)
(0.983055 -0.18219 -0.0202407)
(0.389194 0.9211 -0.0101594)
(-0.426918 0.904287 -0.00244603)
(-0.425275 0.905059 -0.00307946)
(0.968976 0.24543 -0.0291544)
(0.985165 0.171134 -0.012749)
(0.994659 0.0997549 -0.0264885)
(0.448561 0.893626 -0.0149883)
(0.994586 0.100627 -0.0259569)
(0.447864 0.893985 -0.0144112)
(0.969141 0.244669 -0.0300288)
(0.968872 0.245521 -0.0317389)
(0.985254 0.170542 -0.0137961)
(0.994772 0.0984817 -0.0270335)
(0.449362 0.893215 -0.0155122)
(0.994841 0.09763 -0.0275652)
(0.450133 0.892817 -0.0160692)
(0.968785 0.245972 -0.0308814)
(0.982267 -0.186195 -0.0219726)
(0.877746 0.478969 -0.0122845)
(-0.542606 0.839952 0.00770556)
(0.431508 0.901975 -0.0155219)
(-0.5417 0.840537 0.00771356)
(0.981828 -0.188522 -0.0217315)
(0.435952 0.899828 -0.0159586)
(0.982091 -0.187199 -0.0213183)
(0.852738 0.522212 -0.0114831)
(-0.54354 0.839348 0.0077401)
(0.42653 0.904348 -0.0150601)
(-0.543285 0.839512 0.00773959)
(0.982257 -0.186298 -0.0215291)
(0.422722 0.906141 -0.0146526)
(-0.410324 0.911919 -0.00624092)
(-0.413974 0.910271 -0.00562862)
(0.963436 0.263948 -0.0460639)
(0.983912 0.177547 -0.0198678)
(0.985101 0.16787 -0.0373508)
(0.473022 0.880711 -0.0244675)
(0.984426 0.171617 -0.0381078)
(0.475275 0.879479 -0.0251074)
(0.963818 0.262724 -0.0450666)
(0.964613 0.260117 -0.0431446)
(0.984371 0.175123 -0.0185951)
(0.986874 0.157301 -0.0365497)
(0.470822 0.881905 -0.0238736)
(0.987856 0.151189 -0.0358123)
(0.468872 0.88296 -0.023252)
(0.964354 0.260913 -0.0441054)
(0.169469 0.126663 0.977362)
(0.0611535 -0.180273 0.981714)
(0.0303021 -0.18788 0.981724)
(0.121334 0.0997015 0.987592)
(-0.0921041 -0.309911 0.946294)
(0.244 0.223347 0.943705)
(0.167952 0.119356 0.978543)
(0.0170541 -0.164167 0.986285)
(-0.0801583 -0.334775 0.938882)
(0.160589 0.184703 0.969586)
(0.233775 0.223091 0.946351)
(0.00339507 -0.304202 0.952601)
(0.651795 0.444303 -0.61462)
(0.203037 0.344212 0.916676)
(0.725547 0.396663 -0.562353)
(0.313947 0.375682 0.871952)
(0.310017 0.330363 0.891487)
(-0.385246 -0.464823 0.797198)
(0.652416 0.479997 -0.586478)
(0.344556 0.402486 0.848108)
(0.287708 0.316269 0.90399)
(-0.226508 -0.432056 0.872938)
(-0.357396 -0.461258 0.812102)
(0.193861 0.276875 0.941147)
(-0.0519539 -9.24568e-05 0.998649)
(-0.0834044 -0.00159482 0.996515)
(-0.180187 -0.0038381 0.983625)
(-0.0617038 -0.000841951 0.998094)
(-0.29394 -0.00189539 0.955822)
(-0.294927 -0.00413743 0.955511)
(-0.495284 -0.00172707 0.868729)
(-0.306348 -0.00318689 0.951914)
(-0.289871 -0.00231509 0.957063)
(-0.491995 -0.00221618 0.870595)
(-0.287466 -0.0015673 0.957789)
(0.818781 -0.574086 -0.00485251)
(-0.493795 -0.15151 0.856277)
(-0.417131 -0.430411 0.800468)
(-0.550178 -0.431986 0.714627)
(-0.421008 -0.206421 0.883257)
(-0.426972 -0.438267 0.790959)
(-0.221968 -0.301781 0.927178)
(-0.26817 -0.499649 0.823672)
(-0.257251 -0.205267 0.944292)
(-0.358475 -0.47639 0.802838)
(-0.278656 -0.174405 0.944422)
(-0.324914 -0.244964 0.913468)
(-0.325508 -0.483174 0.812765)
(-0.389782 -0.25085 0.886084)
(-0.555166 -0.439163 0.706347)
(-0.458478 -0.435827 0.774501)
(-0.539909 -0.120488 0.833055)
(-0.435938 -0.443856 0.782911)
(-0.067471 0.997404 -0.0251671)
(-0.536817 0.389496 0.748412)
(0.859572 -0.312416 -0.404392)
(0.253368 0.393265 0.883825)
(0.776694 0.0713454 -0.625824)
(0.215175 0.237697 0.947207)
(-0.556273 -0.236895 0.796518)
(0.852835 -0.287813 -0.435702)
(-0.207379 0.722463 -0.659577)
(0.814746 0.0384963 -0.578539)
(0.6197 -0.458575 0.63693)
(0.711783 0.11012 -0.693713)
(0.857604 0.157023 -0.489754)
(-0.522331 0.186066 0.832196)
(0.81988 -0.0451316 -0.570754)
(0.730409 -0.683009 0.000743142)
(0.774129 -0.633027 -0.000746906)
(0.0675179 -7.87924e-05 0.997718)
(0.0627319 -0.00240177 0.998028)
(0.0410759 0.00414752 0.999147)
(0.0424384 -0.00225727 0.999097)
(0.0411671 -0.0042226 0.999143)
(0.0669886 -7.51638e-05 0.997754)
(0.0634584 -0.001273 0.997984)
(0.0682881 0.00135511 0.997665)
(0.062651 0.00210292 0.998033)
(-0.0721645 -0.00231599 0.99739)
(-0.090742 -0.0023279 0.995872)
(-0.0513437 0.00111938 0.99868)
(-0.232705 -0.000687416 0.972547)
(-0.233296 -0.000557121 0.972406)
(-0.0509038 -0.00229482 0.998701)
(-0.0513226 -0.00195914 0.99868)
(-0.0724677 0.00178683 0.997369)
(-0.0911313 -0.00153305 0.995838)
(-0.0722086 -0.001817 0.997388)
(-0.0905771 0.00155921 0.995888)
(-0.419691 -0.179706 0.8897)