/*--------------------------------*- C++ -*----------------------------------*\
| =========                 |                                                 |
| \\      /  F ield         | OpenFOAM: The Open Source CFD Toolbox           |
|  \\    /   O peration     | Version:  2012                                  |
|   \\  /    A nd           | Website:  www.openfoam.com                      |
|    \\/     M anipulation  |                                                 |
\*---------------------------------------------------------------------------*/
FoamFile
{
    version     2.0;
    format      ascii;
    class       volScalarField;
    location    "0.105/solid";
    object      sigmaHyd;
}
// * * * * * * * * * * * * * * * * * * * * * * * * * * * * * * * * * * * * * //

dimensions      [1 -1 -2 0 0 0 0];


internalField   nonuniform List<scalar> 
3125
(
274.312
-450474
50.8964
-519254
-237593
-334458
327.944
108.184
274.705
181.882
328.542
-433035
26.07
68138.2
27702.3
-172552
-433907
-604913
-403954
152836
80654.4
-710093
-443572
-341120
-426211
23526
26950
-326988
-427478
-330585
-397969
58327.2
77516.5
-308416
-227196
23031.4
-320543
19047.2
-231712
-324240
-216783
55763.9
-302535
38795.8
-231417
-221237
-225775
-211270
361.131
351.847
427.442
707.603
566.038
-497352
-5035.82
-508201
-5350.45
-281958
-288421
342.659
364.917
267.953
270.596
344.292
350.13
368.961
318.867
371.545
366.419
325.813
371.073
-239039
-478757
-269361
440.931
-6127.48
820.156
2932.61
35089.1
-234900
-198898
6262.55
-172162
32181
-194111
-501835
-6134.87
-334742
-275461
8677.53
-475742
-482770
-185575
-442727
-204736
95981.3
-185573
-131283
-117884
91876.1
-129349
-451873
-303775
-207544
-395290
-388454
-230955
-379343
-207659
24917.8
-127418
-143560
-166217
25371.7
-149062
-372718
-178127
-200163
-382011
-375534
-180306
-355981
-164487
66211.3
-92366.6
-101922
-114726
68922.2
-105104
-349985
-143716
-159276
-269903
-122616
-142810
-122149
21432.7
-106692
-276142
-170919
-149721
-87018.6
20861.8
-101665
-274176
-280349
-256165
-103115
-118140
-89185.3
48264.1
-79677.9
-261893
-138558
-123208
-67139.5
45835.2
-76525.1
315.638
307.325
352.427
297.598
403.273
82.7796
-470991
-120.832
-566.939
-546.516
-598935
-65003.1
-21395.7
-256393
-314566
287.903
376.723
-57.5291
229.186
35.8108
82.7553
275.074
81.1551
289.386
291.353
297.188
266.281
345.738
377.811
328.935
378.824
-346787
-453214
-363562
247.642
-463.653
0.406168
75765.1
37517.3
-31966.2
-50592.2
7673.15
-40091
28702.3
-41679
-561698
279902
-442257
-515615
-15832.9
-452720
-447687
-312743
-421326
-325491
106290
41783
20952.4
12447.6
84028.2
13499.3
-467219
-553334
-407429
-422824
-361274
-340438
-406031
-324506
24002.3
-27693
-29173.4
-38533.6
26357.8
-36923
-346445
-260885
-275581
-408015
-349745
-306972
-380011
-293964
60920
6502.04
7108.75
11471.3
74549.7
10622.8
-326139
-238871
-251954
-245280
-181010
-194399
-26243.4
22517.3
-24823.5
-301361
-254738
-240343
-17007.9
19668.2
-18222.4
-249723
-305293
-233494
-168370
-180962
5916.58
53231.7
5349.97
-285003
-233890
-220871
2388.61
41096.9
2825.03
-175167
-163899
298.88
302.125
340.24
356.114
335.519
329.667
352.706
331.703
384.774
487.122
421.27
508.408
584.773
739.141
1245.47
420.552
907.695
-477972
-725.397
-2497.23
-829.622
-583746
-30071.9
-3967.46
-10823
-262723
-307997
319.26
382.635
243.386
72.3277
50.2024
275.009
76.0464
80.2967
296.041
293.616
320.876
346.359
322.996
327.315
348.385
325.218
349.178
369.718
370.436
302.092
375.26
365.469
369.766
385.285
379.475
383.981
368.073
385.296
328.423
378.725
379.392
369.755
386.824
386.444
-306957
-247953
-317824
-460936
-392545
-371138
-256105
-343526
-328105
379.948
509.62
356.62
-1083.47
-2385.02
222.713
1474.92
662.585
1221.17
13368.9
3001.89
-5796.85
28137.3
-44956.2
-67193
-134058
-227030
-55415.1
-137629
-26281.5
-121314
-265794
-164254
4303.43
-21630.4
-13654.6
-106092
-178703
-110189
30177.6
-44607
-42857
-184588
-119281
-113768
-538971
-409473
-522693
-79172.2
3592.92
-12295.2
-428822
-316020
-74243.7
-393554
-65919
-352811
-365448
-463644
9448.79
-25556.5
-14661
-458919
-523833
-251726
-191337
-259393
-427386
-346460
-332212
-196184
-276928
-266371
102155
17773
16675.6
-70170.7
-147295
-61933
-55614.9
-151114
-65788.7
-51906.1
-121362
-53115
87703.7
16056
14909.6
-124099
-55772.7
-53808.6
-513486
-356665
-385420
-438811
-234946
-320504
-283169
-238295
-318666
-415925
-368029
-296825
-222981
-286822
-399321
-302930
-318329
-215263
-267400
-277051
24464
-32211.8
-30679.8
-77461.9
-132742
-80864
-87793
-138121
-84307
-102312
-160333
-98548.7
25842.6
-33764.6
-35339.5
-154653
-91322.4
-94909.4
-352984
-296763
-281741
-229769
-185403
-239052
-257862
-192746
-248414
-401511
-356162
-244476
-174961
-237172
-373988
-275434
-288526
-169721
-222744
-229952
63547.8
8399.39
7740.49
-42327.9
-95552.1
-43586.9
-46064.6
-98736.7
-44832.1
-50824.1
-111475
-49643.8
71693.5
9092.89
9828.28
-108294
-47278.3
-48476.3
-332086
-270177
-257071
-194158
-148890
-201268
-215563
-154076
-208405
-251386
-214108
-200343
-158726
-129251
-167240
-184617
-135985
-175872
-74103.2
-116937
-70787.7
21984.3
-22080.3
-23436.2
-111784
-64295.7
-67518.3
-295010
-220143
-234236
-220566
-163780
-211445
-193464
-156713
-202410
-51929.4
-91823.4
-54937.5
20272.7
-20759.6
-19473
-96707.8
-61123.6
-58003.1
-255785
-299025
-239125
-198357
-185582
-138549
-108090
-145342
-159086
-113099
-152192
-41059.9
-86009
-39784.6
50730.9
4274.82
4802.72
-82839.5
-37214.1
-38502.5
-279190
-203097
-216013
-187075
-133420
-180024
-166027
-128302
-173007
-31997.4
-70254.5
-33310.3
43445.8
3769.74
3285.43
-73384.2
-35918.2
-34617.4
222.402
273.785
274.413
201.986
274.337
222.091
201.886
-457337
-268.819
2.37848
-69.7648
-77.9296
-85.9055
-284.401
-116.228
-122407
-593113
-310010
-256853
-108728
-417534
-117690
-243816
-327794
74.7519
55.2651
16.3798
171.559
-5.74395
106.369
108.03
222.826
274.021
202.219
275.087
222.312
274.565
202.399
-442400
-452950
-403277
-439717
-460374
-409530
-435171
-440255
-626831
-347885
-378025
-376312
-409792
-383559
-381439
-343287
-496652
-464660
-686033
-617695
-531834
-520748
-659466
-436652
-347813
-420651
-445535
-396835
-419493
-427787
-438207
-390569
-331204
-333444
-339182
-304418
-346062
-310408
-324562
-421000
-336948
-333850
-372331
-371079
-392013
-338596
-366729
-365780
-270744
-314306
-288315
-290277
-293819
-295641
-265903
-228720
-233176
-233572
-211570
-239882
-217117
-222651
-311350
-314128
-332345
-298400
-325521
-317934
-292452
-237674
-317892
-194401
-222322
-202526
-206179
-207701
-211292
-189758
-256223
-296672
-282794
-284915
-261063
-277317
-279551
-227318
-206005
-216622
-197360
-201079
-185128
-491892
-1926.31
-2022.68
-7603.91
-2950.17
-3790.37
-748.48
-1562.65
-510484
-8801.65
-1184.52
580.325
-3442.66
-3367.27
-14915.4
-6239.5
-275500
-294913
201.846
262.615
259.009
194.745
209.071
252.029
189.843
217.893
273.317
265.031
197.648
213.99
269.073
199.938
-486672
-476933
-508150
-448193
-502134
-488921
-445619
-500981
-489974
-529011
-470231
-525153
-519542
-465130
-470809
-487930
-368595
-438994
-417281
-408578
-412405
-404632
-372370
-376679
-457064
-426533
-410388
-435495
-414439
-373304
-402148
-381612
-385504
-385976
-395018
-353133
-402129
-378618
-359292
-364916
-366118
-387941
-346949
-380879
-371741
-340828
-388498
-369048
-309691
-361973
-332879
-333465
-338483
-338874
-304824
-295070
-344004
-327243
-328048
-321656
-322621
-299953
-259753
-263697
-278643
-251285
-272075
-266073
-245536
-278843
-282395
-285239
-257111
-291871
-272449
-262911
-268006
-286543
-217925
-250458
-239375
-242475
-234045
-237220
-222682
-232201
-267634
-244749
-247728
-250115
-252989
-227440
463.724
144.1
135.215
460.67
-17.7439
579.898
398.074
148.639
-87.9425
675.98
700.897
-83.8283
-1827.14
2531.92
-1860.36
2715.23
1033.68
-407.899
-1302.36
2126.11
1293.69
-622.019
-613.028
1222.59
222.382
274.172
274.268
201.641
113.95
124.074
81.5582
114.456
123.783
80.9325
123.436
-464227
-282.718
-56.2369
-216.74
-155.548
-147.092
-402.02
-200.949
-1016.77
-482.572
-368.262
-809.488
-213.783
-440.222
-349.081
-440.343
-701.426
-247.687
-1.12362e+06
-54688.7
-154698
126641
-18299.4
373668
-28161.5
-63155.7
-833.565
-77090.7
-924.333
-13219.3
-42494.2
-2868.85
-30448.7
-250074
-321169
291.765
304.641
263.398
264.756
263.331
291.223
305.653
293.307
303.578
396.895
415.29
372.094
298.499
298.611
372.318
371.609
397.475
416.227
397.863
415.424
-14.5805
-4.25618
-14.4558
-74.7009
38.0199
117.52
202.223
194.811
159.101
158.643
153.199
135.41
23.9077
14.5559
83.1446
52.0675
63.5747
114.009
124.203
81.4374
114.607
124.033
222.761
275.425
273.635
202.062
274.567
221.618
202.395
113.26
80.702
123.329
112.683
123.716
291.897
310.556
297.638
304.506
265.88
264.532
294.719
304.291
292.249
307.45
264.501
268.631
443.117
184.096
477.91
178.991
-16.866
25.0246
89.057
333.219
358.423
197.367
176.177
194.764
-100.419
604.459
523.755
-126.387
397.193
418.224
415.398
399.127
372.842
298.14
372.404
299.216
398.415
416.078
398.012
417.019
371.854
298.146
298.441
373.182
-418487
-411115
-450268
-446737
-475601
-422338
-468048
-416239
-457519
-395910
-402745
-1949.37
2146.76
-2469.95
1248.42
268.55
-127.199
-306.381
-450.337
-1186.04
-1114.92
-432.271
-216.338
767.582
-846.222
-711.745
1023.32
-80164.9
-218078
-234987
-276260
-138542
-112329
-29958
-78087.2
-79543.6
-89229.7
-106457
-106736
-88332.4
-34696.6
-34431.5
-36782
-36214.6
-85015.5
-101530
-84815
-102438
-855006
-1.04154e+06
-670571
-488441
-329907
-551819
-665064
-1.24551e+06
-533159
-1.08066e+06
-561983
-1.12574e+06
-753264
140775
-1.51154e+06
456000
-446564
-554744
-258079
-255127
-352419
-415743
-394685
-391360
-389299
-386472
-356814
-249352
-252447
87525.9
77018.9
100692
68842.7
140726
163204
140122
149488
82195.2
47986.4
56087.7
100182
79516
61919.9
60626.3
80776.9
118243
116244
76786.7
57213.6
75517.5
58498.7
121495
123510
-268239
-305772
-415826
-443841
-509008
-400201
-537383
-425175
-367678
-481064
-360646
-429734
-354521
-368013
-374344
-413487
-412732
-423663
-377995
-430905
-384232
-406450
-388182
-381659
-58797.7
-73534.7
-59937.1
-71934.4
-18921.2
-18076.2
-19916.9
-20796.3
-56581.6
-68102.3
-55429.4
-69672.4
-77731.4
-92344.7
-93943.1
-76829.3
-32192.9
-32836.9
-80726.2
-98211.1
-81417.3
-96795.8
-30836.6
-30023.1
-309485
-303541
-337891
-339938
-359903
-322503
-352964
-316469
-344595
-291123
-297007
-414514
-343326
-236945
-240170
-329063
-386005
-355429
-355087
-361048
-360447
-324254
-246403
-243228
51524
38222.5
52803.6
37227.5
81608.6
79935.5
84105.6
85822.1
49766.6
34737.8
48480
35702.1
69319.1
50902.8
52109.2
68048
111211
113181
71703
55233.3
72972.8
53990.2
108294
106361
-207507
-204230
-275600
-320215
-304903
-306417
-299368
-301013
-280466
-197595
-200867
-213628
-208190
-234840
-239213
-252637
-228377
-246229
-222755
-241004
-197016
-202363
-50088.9
-60703.3
-62201.9
-48941.8
-16294
-17113.7
-15378.6
-14584.9
-52146.1
-65896.8
-53297
-64363
-266683
-272462
-304779
-307723
-311964
-280574
-318727
-286476
-298254
-284673
-278831
-34235.4
-45038.4
-43771.2
-35333
-6433.44
-5858.81
-7124.68
-7741.29
-32660
-40665.1
-31583.9
-41896.7
-243670
-311579
-154298
-151097
-199076
-227891
-218156
-221613
-212924
-216430
-203771
-144486
-147672
43897.5
29982.1
30880.7
42617.1
75837.9
77477.4
45512.6
33258.8
46796.8
32327
73423.5
71818.7
-184302
-187555
-251397
-290825
-266389
-268896
-271830
-274212
-246593
-194211
-190950
29332.3
20074.4
19372.2
30556.4
50858.7
49516.2
28145.1
17484
26938.1
18154.8
52990.1
54393.1
-191298
229.907
372.92
366.88
240.82
291.894
248.836
219.331
323.462
326.693
280.882
336.747
269.676
516.851
129.224
500.392
115.171
-259.938
905.479
875.1
-283.082
-188.391
753.433
-147.127
792.477
553.816
92.3005
95.7452
568.13
243.069
399.311
246.184
407.693
383.063
313.772
306.804
391.423
364.647
294.854
359.059
295.72
245.012
439.532
429.923
249.298
-2614.48
3014.15
-2333.53
3293.63
1738.31
-1194.1
-1116.95
1825.4
1517.06
-803.577
1409.99
-915.751
-3139.86
4146.71
3897.19
-3353.31
6294.35
-4818.74
-4692.94
5902.16
-8245.72
11160.5
4908.88
-3432.16
-11161.2
13243.1
-11367.8
13988.5
8094.63
-6008.69
-6761.18
7293.85
-19420.6
25751.9
-20953.9
23694.5
9839.82
-8711.81
-8092.45
10612.4
-16076.9
17055.3
-14360.4
19130
-484388
-1952.7
-1327.74
-832.528
-629.786
-965.971
-2497.77
-1274.24
-1971.89
-2093.55
-1772.6
-2754.91
-1356.78
-1478.63
-628.431
-1236.37
-1020.59
-1003.61
-549161
-9729.27
-7790.61
-80305.2
-2580.27
2338.16
24416.5
-9608.13
-4347.21
-3058.71
-5919.84
-4420.07
-3413.34
-7818.94
-7847.51
-7815.64
-8208.18
-6221.17
-269096
-301430
329.156
324.497
344.646
356.204
353.484
347.551
346.297
355.372
327.491
325.813
323.249
330.053
395.062
406.348
380.826
374.728
371.977
383.359
382.003
373.46
394.514
407.517
406.257
396.477
191.607
256.145
221.913
172.458
174.381
238.903
183.466
94.3322
115.983
66.4781
101.263
111.364
84.8165
95.7359
59.3034
71.2222
105.119
220.258
274.305
272.77
201.731
220.895
271.858
201.074
108.784
119.001
77.2506
106.174
120.937
110.485
122.82
78.3898
111.74
122.058
301.568
303.271
290.736
314.323
260.02
278.72
285.04
321.263
309.805
297.066
271.84
264.19
328.119
330.596
323.728
335.369
349.488
353.913
345.141
358.145
332.128
323.942
327.661
327.965
344.717
361.174
352.322
353.788
339.358
321.776
334.587
325.927
331.946
372.449
364.235
340.114
317.303
342.159
346.757
314.367
356.319
350.688
341.774
365.027
549.182
148.621
529.447
121.803
-296.434
927.952
-310.207
909.921
575.045
91.8518
580.476
102.678
-265.322
765.159
-213.47
835.065
304.994
436.67
413.527
319.628
370.304
278.318
275.575
341.321
295.595
243.439
365.63
252.901
403.842
378.199
423.491
361.111
284.472
449.844
449.695
300.91
411.504
329.363
406.361
338.606
269.426
452.11
259.913
453.619
417.094
365.949
423.101
352.546
394.275
409.852
406.126
398.714
384.493
372.512
381.474
376.267
397.405
406.888
408.481
395.182
380.722
378.486
371.837
386.31
399.81
412.423
394.11
418.78
361.112
289.41
290.809
372.475
373.291
295.714
369.065
296.684
384.724
420.137
401.135
402.575
401.018
402.914
390.662
411.258
366.313
389.05
357.455
396.092
389.543
368.308
381.932
377.11
380.001
414.649
405.895
392.454
-358342
-377031
-374868
-359265
-300568
-283192
-285320
-297494
-310764
-295844
-311480
-295943
-346883
-359703
-364246
-343535
-428461
-436622
-473256
-466502
-484007
-429865
-466739
-491483
-435180
-457302
-448575
-369497
-393882
-377022
-387722
-350571
-308928
-332919
-324456
-320222
-311809
-327524
-304493
-402445
-392605
-421266
-373919
-3486.65
3532.48
-3149.47
4034.02
1871.7
-1290.96
1903.43
-1274.07
-3621.47
4430.45
-3637.29
4414.52
1692.36
-1083.49
1497.04
-1211.37
2802.88
-6463.68
-4569.39
6000.75
-1196.54
-9719.45
859.869
-12797.9
-1735.07
-893.199
-2299.97
-3060.89
-8531.14
15629.2
-15548.2
3805.94
11151.4
-8447.69
-9319.56
10049.8
-23639.5
28879.3
-23221.1
30008.7
11844.8
-9512.68
11633
-9576.95
-23482.3
27352.3
-21232.2
29374
-62303.1
82102.3
47729.7
-60612.3
26122.1
-20778.5
30621.4
-27486.3
-26773.4
32720.5
-52778.9
68461.7
-124135
-120237
-101117
-151985
-28834
-46815.1
-54059.9
-41025.4
-82761
-132082
-101380
-108610
-197706
-289876
-385371
-163323
-366760
-387734
-243247
-512520
-534999
-437560
-519909
-279542
-257053
-183329
-228992
-203146
-226392
-305770
-283981
-242253
-172294
-196791
-155377
-219773
-333708
-287715
-272256
-362686
-89467.5
91762.7
-83922.3
114864
62261.4
-52308.9
-47873.4
68189
49826.8
-35248.1
-39554.7
43320
-112197
152842
138569
-119842
-176929
-159704
-160420
-176828
-221203
-234174
-236338
-219827
-230067
-245156
-245013
-229536
-170329
-153039
-153818
-168819
-90515.7
-112922
-94247.7
-109386
-42500.4
-35438.2
-36848.4
-39428.2
-100344
-109601
-90309.5
-120577
-181919
-169209
-186863
-164192
-258900
-255261
-276421
-239201
-236215
-258530
-252232
-242593
-199598
-165635
-183513
-180360
-549452
-509619
-623956
-575014
-571734
-522047
-527095
-597675
-533580
-477825
-484846
-31191.1
189164
44664.1
-116978
-48298.2
5008.35
-30968.5
7516.88
82214.6
-183806
-274208
62761.5
11131.8
-42209.3
-18509.2
52890.7
-394029
-785742
-876032
-469587
-734619
-753032
-363790
-581095
-647979
-320383
-646652
-686742
-526708
-383795
-600822
-450446
-307694
-367178
-389979
-293498
-352899
-471923
-447599
-366074
-471930
-364819
-434507
-359285
-156423
233314
-155978
232433
82142.9
-58630.3
-61087.9
78750.8
86066.7
-58333.1
-62480.5
82788.1
-146121
186232
-137318
190471
-464603
-500571
-192916
-222497
-220011
-194769
-140657
-120727
-121605
-139865
-142627
-123730
-143348
-122791
-190596
-215031
-217531
-188794
-260552
-263122
-365133
-432349
-400635
-396116
-361079
-405677
-400574
-265395
-264006
-197983
-224815
-197036
-226429
-147285
-124925
-125944
-145521
-145077
-124798
-145352
-124953
-200008
-228890
-228737
-199508
98563.2
82856.6
101284
77992.8
141551
139352
96724.8
72638.7
76113.8
93782.1
146076
149473
-8389.79
22758.3
9500.88
104.809
-101189
-203421
-129647
-145139
-71469.3
-79879.2
-56586.3
-90278.6
-34293.4
-18853.9
-7807.63
-74338.9
6048.69
29132.4
25124.9
12313
-46070
-71115.3
-51671.6
-64963.7
6861.66
21672.7
25972.6
2133.38
-49321.6
-61265.6
-44211
-68886.1
-4110.8
13874.9
13372.2
-3515.98
-54396.3
-70923.8
-70984.4
-54222.5
-54258.3
-71577.2
-71524.2
-54480.6
-4952.28
11371.9
11897.8
-5551.39
85156.5
64166.1
83753.7
65655.1
132834
135122
88282.3
70192.3
90228.3
68119.2
128985
126984
-1602.61
15539.5
-2610.14
16387.2
-53542.4
-70181.9
-71954.5
-52141.2
-53850.5
-72108.4
-71470.4
-54173.6
-559.193
19726.3
1308.97
18094.9
-250962
-250534
-372732
-466493
-482129
-400146
-367190
-445747
-407011
-265165
-263606
-232787
-246597
-267610
-216750
-228480
-277540
-197155
-338169
-175878
-136317
-154177
-163318
-292945
-481425
-331492
-413689
-198619
-225074
-230507
-190404
-139798
-125953
-148211
-118906
-193437
-230735
-202062
-223528
-147816
-117806
-124288
-138432
-409018
-374812
-322561
-333535
-339110
-318062
-285778
-274934
-289741
-271881
-330346
-351575
-346199
-334606
-279084
-261404
-274923
-264729
-360929
-354714
-392450
-392644
-416456
-371721
-399416
-409270
-365520
-341664
-347787
-306242
-326936
-310810
-321321
-258531
-241629
-245076
-254416
-264525
-254806
-268707
-251373
-299289
-309381
-314971
-294721
-63370.9
-75831.1
-62245.4
-77472.7
-23797.9
-24706.7
-65766.6
-81484.9
-79820.7
-66875.8
-22722.3
-21826.7
-124173
-113619
-111743
-126483
-159030
-167516
-170479
-156437
-163737
-178230
-166342
-175204
-120645
-106388
-108256
-118381
-132418
-117197
-119066
-130063
-178675
-194068
-181286
-190925
-136050
-124612
-122752
-138452
-173761
-183000
-171144
-186087
-157212
-140169
-141838
-154846
-210711
-227539
-212890
-224573
-161570
-147816
-146388
-163737
-204712
-215696
-218871
-202259
-73049.1
-89727.5
-74066.6
-88060.3
-26733
-25824.6
-70443.7
-83890.2
-69365.5
-85570.6
-27899.7
-28787.9
-148407
-135991
-150834
-134200
-188944
-198977
-202179
-186345
-194178
-210438
-207213
-196743
-144585
-128410
-142161
-130246
-316098
-322094
-358109
-359535
-366864
-328606
-351344
-373860
-334684
-334858
-328800
-261265
-280064
-274633
-265718
-219387
-204310
-207687
-215586
-225096
-216848
-213445
-228978
-254809
-263319
-268698
-250391
-276760
-286068
-291557
-272270
-244495
-235531
-248533
-232079
-283414
-303188
-287941
-297647
-238690
-222695
-226122
-234732
-394988
-362595
-181879
-204525
-207113
-180019
-136953
-119395
-137897
-118486
-184452
-212408
-209835
-186320
-134977
-116165
-133969
-117044
-233775
-230519
-314555
-367982
-349755
-349695
-319415
-344136
-344278
-224015
-227288
-175477
-201717
-177354
-199107
-128904
-111224
-112104
-127730
-130886
-114614
-131984
-113734
-172736
-193622
-196240
-170860
55921.4
39775.8
54645.2
40815.7
92698.9
94489.1
57844.5
43488.9
42413.2
59122
90111.1
88357.6
-12406.7
1331.8
756.37
-12123.3
-50372.2
-62608.5
-63109.6
-50259.1
-51010.8
-64335.1
-51124.4
-63876.6
-12816.8
-419.825
155.874
-13066.2
-11361.4
1999.4
2569.56
-11683
-52338.3
-66627.2
-52466.8
-66257.6
-10896.3
3883.87
3317.74
-10527.3
-51823.4
-65099.5
-51707.6
-65513.2
-7506.49
7805.04
8352.36
-8006.53
-54042.3
-70319.9
-54224.7
-70161.6
-6830.54
10055.2
9529.49
-6296.36
-53909.9
-69325.8
-69524.6
-53768.2
64530.2
49120.9
65801.6
47961.7
98968.1
97134.3
62411.2
45133.2
61134.7
46252.8
101681
103563
-9063.78
6760.22
-8618.08
6205.14
-53030
-67361.2
-67671.8
-52898.2
-53380.4
-68645.8
-68381.6
-53521.2
-9616.93
4713.77
-10023.1
5274.5
-210856
-214133
-290195
-338033
-310488
-311814
-285333
-316046
-317211
-220730
-217453
-156681
-179530
-176886
-158575
-116004
-100577
-101453
-114615
-117956
-104182
-103308
-119294
-153782
-171266
-173910
-151891
-163337
-182496
-185132
-161444
-124521
-109516
-125757
-108646
-166176
-190703
-168062
-188076
-122548
-106003
-106876
-121257
-219552
-225064
-253460
-257518
-259070
-234080
-247214
-265555
-239768
-236686
-231093
-178100
-192864
-187948
-182140
-147292
-135900
-138940
-144111
-152528
-147053
-155803
-143944
-172377
-177809
-182638
-168399
-192081
-198256
-203258
-187973
-169859
-163709
-173285
-160499
-198011
-213813
-208735
-202182
-164465
-152145
-161118
-155306
-109256
-95960.5
-97812.2
-107091
-149248
-162841
-151823
-159938
-112683
-102992
-101126
-114903
-144730
-152463
-142165
-155306
-45818
-58586.3
-46968.8
-57136.1
-12102.7
-11378.8
-12946.5
-13705.7
-43929.2
-53644.2
-55058.4
-42786.8
-101592
-92737.7
-103707
-90889.2
-130859
-137873
-140594
-128350
-135203
-147894
-137736
-145107
-98264.3
-85930.8
-87754.6
-96198.1
-260399
-254668
-285283
-288695
-305241
-274646
-291749
-298534
-268791
-242803
-248459
-233360
-241082
-246351
-229035
-206192
-198652
-209915
-195295
-239649
-257466
-252139
-244019
-200569
-186409
-189729
-196915
-218551
-235372
-230161
-222832
-182246
-169002
-178742
-172252
-212436
-219372
-208205
-224519
-187764
-180931
-177640
-191343
-80695.9
-73452.1
-71694.1
-82598.1
-104602
-110230
-112691
-102250
-108563
-119451
-116927
-110967
-77617.3
-67196
-68909.8
-75771.2
-38102
-46959
-36997.7
-48288.4
-9885.58
-10572.6
-9122.63
-8467.44
-39846.5
-51624.7
-40971.4
-50256
-87705
-76327.9
-85743.6
-78103.4
-121623
-133414
-130758
-124103
-117469
-123772
-126367
-115027
-90912.6
-82879.7
-92927.2
-81070.6
-261876
-292761
-157729
-160942
-213188
-244776
-223437
-226798
-208479
-228716
-231994
-167587
-164365
-117858
-134318
-131674
-119764
-88591.1
-77450.4
-78368.9
-86946.8
-90498.3
-81360.1
-92111.7
-80459.6
-114851
-126020
-128657
-112950
-124663
-137339
-139984
-122759
-97514.1
-87264.1
-99079.3
-86381.3
-127652
-145647
-143004
-129551
-95611.6
-83439.1
-94017.4
-84330.6
-14029.7
-2581.24
-2004.98
-14205.4
-49455.8
-61829.9
-49568.7
-61293.2
-13668
-951.668
-1531.47
-13452.7
-48710.6
-59938
-48605.2
-60511.3
39793.9
28570.4
41074.5
27711.9
65548.4
64025.4
38325.9
25503.9
26329.9
37052.4
67879.4
69446.9
-14691.7
-2990.44
-14550.5
-3570.24
-46864
-57087.1
-57727.3
-46746.2
-47697.8
-59138.9
-47811.7
-58535.8
-15007.3
-4488.8
-3919.94
-15117.6
-180894
-177652
-236987
-273403
-260934
-263581
-241785
-255528
-258268
-171008
-174240
-144138
-159977
-162625
-142241
-111249
-98678
-112679
-97809.5
-147075
-168268
-165624
-148971
-109320
-94999.6
-95874.5
-107856
-137392
-156968
-154322
-139289
-102520
-89286.7
-100987
-90165.7
-134424
-148667
-132530
-151309
-104434
-93033.3
-92160
-105934
-16016.6
-6304.07
-6841.85
-16011.9
-42568.4
-50850.6
-51608.7
-42403.3
-43572
-53216.2
-52479.4
-43718.2
-16212.7
-7474.67
-6962.97
-16184.2
33058.5
21331.2
31820.9
22085.2
60254.7
61738.8
34395.2
24168.3
35651.1
23379.7
58019.2
56576.9
-15741.3
-6126.77
-15782.6
-5581.13
-45742.1
-56271.2
-55598
-45865.4
-44817.4
-54063.3
-54766.2
-44683.1
-15482.5
-4780.75
-15407.3
-5344.56
-131012
-138948
-172600
-162792
-421306
-373644
-351740
-372502
-379483
-414317
-377997
-429326
-391285
-358505
-391787
-386042
-386409
-436293
-680038
-536799
-525399
-439879
-511504
-921879
-550400
-310835
-342185
-316158
-279254
-347162
-306794
-282147
-314732
-289586
-322325
-357424
-352501
-286933
-318573
-444594
-614796
-457411
-588892
-486965
-424079
-608470
-382455
-342614
-441881
-418214
-462384
-338027
-374297
-400101
-367460
-365220
-335515
-406979
-361650
-359587
-393089
-347173
-329286
-349864
-355627
-352732
-386320
-313924
-281382
-265114
-276680
-286873
-307575
-281697
-320357
-293219
-298114
-271270
-292579
-326773
-288123
-298581
-336941
-274633
-303305
-302737
-331946
-271531
-294429
-263770
-297735
-321742
-326744
-266989
-290208
-243265
-261304
-242906
-216934
-266211
-238992
-220434
-247538
-228197
-276190
-247948
-271261
-251820
-224722
-215887
-195243
-184716
-189422
-200310
-210103
-193838
-221736
-204347
-210744
-190609
-205608
-227618
-199844
-294902
-275716
-270293
-250569
-301204
-270266
-265342
-288603
-254116
-259239
-244439
-264644
-282365
-258994
-175739
-183958
-172388
-155630
-188590
-171609
-159167
-179897
-166702
-198021
-176938
-193345
-184051
-163160
-230465
-256279
-212678
-229846
-234728
-251397
-209163
-226205
-201418
-241551
-224932
-246405
-221960
-204949
-190014
-183499
-204350
-179255
-466792
-419083
-417953
-386209
-423390
-468535
-414921
-452273
-402404
-399256
-375497
-446060
-404392
-404615
-486028
-437908
-457930
-420210
-499766
-426492
-443471
-584470
-471388
-532064
-462358
-576063
-545489
-489298
-328379
-380302
-342766
-303785
-374121
-302020
-331398
-325739
-294546
-362950
-334456
-322166
-368004
-296518
-333594
-387116
-362973
-308963
-400872
-331559
-309722
-331123
-327178
-434140
-379793
-336576
-408754
-320380
-366076
-326676
-323118
-307488
-328477
-359476
-332342
-372800
-340514
-343930
-313656
-379483
-335052
-338217
-346300
-320848
-316600
-292292
-352838
-311333
-315226
-339741
-299668
-303861
-286124
-333268
-304849
-309439
-277487
-301430
-279342
-248164
-306416
-251529
-273205
-281732
-259279
-316564
-284678
-285996
-311568
-255975
-264654
-296298
-266232
-243752
-291329
-268943
-240344
-260380
-232531
-281274
-261052
-256095
-286223
-235976
-245526
-231983
-225809
-210189
-221146
-251567
-226727
-239509
-210418
-216107
-204188
-233552
-215003
-221304
-263772
-237463
-232008
-224118
-257668
-236745
-242771
-269946
-247813
-253661
-230193
-276128
-243004
-248302
-196617
-217154
-194303
-181902
-212397
-178353
-200814
-192412
-170738
-202829
-189632
-188236
-207547
-174286
-209246
-222045
-207160
-186012
-226837
-205032
-189555
-213481
-197236
-236587
-211956
-217712
-231764
-193699
)
;

boundaryField
{
    left
    {
        type            zeroGradient;
    }
    bottom
    {
        type            zeroGradient;
    }
    interface
    {
        type            zeroGradient;
    }
    procBoundary2to0
    {
        type            processor;
        value           nonuniform List<scalar> 
47
(
327.271
341.526
363.558
273.732
81.8505
286.902
286.902
286.902
327.271
327.271
327.271
375.652
375.652
375.652
318.188
341.526
341.526
318.188
318.188
381.315
363.558
363.558
381.315
381.315
221.394
113.316
273.53
201.264
113.316
113.316
123.203
290.698
303.301
263.204
396.481
414.739
299.027
299.027
371.138
327.212
322.596
343.963
353.082
393.33
405.352
379.741
371.057
)
;
    }
    procBoundary2to3
    {
        type            processor;
        value           nonuniform List<scalar> 
328
(
242.117
242.117
242.117
260.226
260.226
260.226
260.226
161063
89292.9
68568.1
225.929
225.929
225.929
227.08
227.08
227.08
-14275.5
-13664
268862
210838
170687
151812
141420
143737
70788.9
-2722.95
-3041.29
86602.3
-12628
-12811.1
111878
98901.4
101198
146310
137967
135628
-1810.28
-1479.57
4946.33
107212
96314
94020
610.94
234.444
234.444
234.444
1488.59
-1342.11
415.079
1453.56
-27.9322
1138.23
106921
100717
61823.8
59556.1
232.496
232.496
232.496
-4645.16
4342.19
2943.76
-664.302
4567.1
-20013.3
-2641.52
-10706
-18391.6
178487
167730
169551
171173
162638
160321
77396.8
-7083.17
-6821.91
79600.9
-8291.91
-8513.58
126153
116342
114028
131026
119247
121570
1827.37
1501.45
2467.69
2792.91
93504.5
79899.1
82147.9
89044.7
77606.3
75374.9
258.04
238.742
238.742
238.742
306.772
-119.008
233.548
327.318
130.969
30819
133451
92381.8
66329.2
55005.1
225.125
228.625
228.625
228.625
-222720
-3243.2
60578.1
73431.4
71234.1
-10676.5
-3243.2
-14183.8
-15677.5
195253
180687
165306
157685
149714
147427
72999.8
-4340.35
-4032.17
84152.5
-11306.3
-11344.5
116587
106167
103860
141062
130020
132363
-308.009
-640.291
4187.28
4497.59
102593
89222.4
91510
80315.8
68815.5
66645.8
275.136
236.434
236.434
236.434
-523.118
593.736
391.299
70.4287
640.068
10577.8
112045
96111.8
64080.5
57280.1
230.487
230.487
230.487
24008.5
-20720.1
8452.46
16796.5
-1904.64
-7450.11
-24398.1
-17020.2
-13535.2
190451
175446
173962
164011
153732
155935
75197.6
-5394.28
-5690.85
81840.3
-9951.09
-9792.46
121346
108897
111214
135983
126906
124569
463.056
797.181
3681.01
3363.93
98022.7
86787.3
84516.3
84648
70952.8
73162.1
138.106
208.219
205.379
176.901
225.242
52.8151
-119.008
306.772
200.894
203.093
201.1
202.847
202.809
202.379
205.131
-3243.2
-222720
-10676.5
-13664
-14275.5
-15677.5
-14183.8
170687
210838
165306
180687
143737
141420
147427
149714
-3041.29
-2722.95
-4032.17
-4340.35
-12811.1
-12628
-11344.5
-11306.3
101198
98901.4
103860
106167
135628
137967
132363
130020
-1479.57
-1810.28
-640.291
-308.009
4946.33
4497.59
4187.28
94020
96314
91510
89222.4
66645.8
68815.5
206.881
201.134
193.401
207.53
-1342.11
1488.59
593.736
-523.118
202.926
207.855
205.238
204.106
4342.19
-4645.16
-20720.1
24008.5
-2641.52
-20013.3
-24398.1
-7450.11
-18391.6
-10706
-13535.2
-17020.2
169551
167730
173962
175446
160321
162638
155935
153732
-6821.91
-7083.17
-5690.85
-5394.28
-8513.58
-8291.91
-9792.46
-9951.09
114028
116342
111214
108897
121570
119247
124569
126906
1501.45
1827.37
797.181
463.056
2792.91
2467.69
3363.93
3681.01
82147.9
79899.1
84516.3
86787.3
75374.9
77606.3
73162.1
70952.8
)
;
    }
    procBoundary2to6
    {
        type            processor;
        value           nonuniform List<scalar> 
65
(
18405.5
36545.4
-225249
-215327
-219861
-205788
-116083
-82292.3
-98181.8
-64042.1
-116083
-116083
-15831.3
1978.42
-150335
-171522
-131817
-151681
-159913
-150335
-48980.7
-131817
-30679.9
-150335