/*--------------------------------*- C++ -*----------------------------------*\
| =========                 |                                                 |
| \\      /  F ield         | OpenFOAM: The Open Source CFD Toolbox           |
|  \\    /   O peration     | Version:  2012                                  |
|   \\  /    A nd           | Website:  www.openfoam.com                      |
|    \\/     M anipulation  |                                                 |
\*---------------------------------------------------------------------------*/
FoamFile
{
    version     2.0;
    format      ascii;
    class       volScalarField;
    location    "0.105/solid";
    object      sigmaMin;
}
// * * * * * * * * * * * * * * * * * * * * * * * * * * * * * * * * * * * * * //

dimensions      [1 -1 -2 0 0 0 0];


internalField   nonuniform List<scalar> 
3125
(
-428.254
-62.7157
-614.365
121134
1065.76
921.901
-512.627
-536.019
-428.974
-592.282
-514.502
-6362.1
-685.264
-141865
-162075
-147506
-4097.78
91129.9
-8911.42
-312977
-288475
201950
68.0745
883.087
-6263.04
-145432
-159246
-4622.88
-3936.57
-2355.17
-8773.02
-227836
-280140
-6702.03
-3475.47
-143653
-4539.79
-128910
-1290.5
-2266.53
-4964.71
-221072
-6583.17
-176144
1076.48
-3423.71
-1234.73
-4864.93
-731.595
-581.295
-948.118
-1636.62
-4133.63
-2975.1
-1205.81
-5114.57
-2071.94
1070.39
1057.46
-544.717
-579.363
-433.126
-432.497
-548.22
-567.94
-780.545
-529.08
-615.554
-582.727
-523.695
-602.109
-13435.3
-12130.2
-19091.9
-1029.57
1330.2
-4779.01
-5001.83
-168565
92968.6
-31288.3
-13314.8
-15551.6
-169586
-20914.9
-2361.75
-6584.31
130769
-32732
-18129.4
-6548.52
-8877.09
-8783.81
-10464.1
2639.82
-310417
60343.6
-1008.8
-20953.4
-309589
-9507.56
-7231.6
100866
5106.3
558.112
619.092
-12412.4
-5392.05
-10768.2
-150658
-19991
-18639.6
-16309.3
-152502
-18172.9
-5290.34
-11122.2
-10568.2
-3100.03
-2990.88
-9304.16
-7719.73
-10476.7
-248946
-26358
-24179.9
-21722.7
-256359
-23523.9
-7587.94
-12534.8
-10932.6
-3927.47
-13331.6
-12466.5
-20429
-137895
-21720
-3991.48
-11381.9
-12189
-23428.6
-135800
-22148.4
-1685.32
-1753.5
-5681.87
-17103.2
-15421.3
-27107.7
-201349
-29295.6
-5788.8
-13108.2
-14846.6
-31906.8
-194938
-29988.6
-595.571
-541.13
-717.057
-628.118
-946.793
-128.087
-554.679
-186.566
-977.758
-337.784
74358.3
31219.4
-2700.2
1081.76
979.242
-463.312
-602.687
-162.941
-450.824
-129.913
-128.302
-431.278
-127.297
-466.3
-470.554
-767.04
-556.693
-686.93
-605.393
-517.025
-608.889
644.237
-7085.47
292.199
-973.137
-747.362
-1317.54
-127751
-145957
-2131.23
-16972.2
-32022.2
-63954
-165064
-62824.9
21676.9
-471212
134999
89478.7
-91142.8
-4681.34
-18189.8
-8606.52
-9550.92
-9630.17
-295506
-97630.2
-92356.3
-132942
-296647
-134466
-12197.9
212273
27062.1
309.065
780.804
-128.781
-5852.63
246.869
-147171
-69034
-68402.1
-64607.1
-156731
-65197.3
-4903.3
-800.128
-1604.18
-3557.49
-2618.56
-9173.76
-8293.03
-8295.56
-234717
-118343
-119935
-130905
-271956
-128841
-7076.73
-7248.77
-7543.17
-3670.08
-2355.56
-3347.28
-69620.2
-141812
-70154.5
-4292.68
-2061.68
-1175.1
-71851.1
-131308
-71775.8
-1453.31
-2046.96
-5269.87
-6695.02
-6531.39
-116754
-214411
-115147
-6237.94
-7176.54
-7025.85
-104659
-182336
-106531
-3790.55
-6430.47
-494.6
-511.631
-669.403
-645.771
-600.188
-544.697
-603.1
-564.294
-836.142
-1360.5
-1155.59
-1040.07
-2593.78
-1556.61
-2630.9
-3372.36
-2084.01
-896.908
-1346.97
-1001.92
-431.253
39722.3
-2071.43
-1155.69
-3771.61
1077.62
1012.77
-509.933
-609.036
-440.495
-126.155
-126.94
-431.982
-127.095
-126.969
-483.611
-476.161
-513.296
-553.203
-518.133
-532.281
-559.476
-524.24
-800.17
-684.213
-707.29
-537.88
-630.282
-648.228
-637.731
-641.936
-662.728
-612.18
-587.159
-616.17
-520.005
-620.145
-613.56
-593.303
-629.775
-621.737
-12249.3
-14533.3
-13070.7
-6705.77
-5410.2
1262.06
-18278.3
-18605.5
-16508.7
-1044.49
-1504.57
-1502.44
-1168.22
-2861.74
-2478.51
-3032.06
-4915.8
-3018.1
-29816.1
-7151.23
-12353.4
-156784
-49314.7
-19186.5
50467.7
45156.3
-23528.3
21641.7
-24235.8
-28829.4
64010
33898.2
-9803.58
-7639.27
-9869.99
-28478.3
-16694
-26296.4
-167910
-56287
-60971.9
-20007.3
-20976
-23410.3
18082.2
918.508
77113.5
22564.2
-13430.2
-26380
162835
60813.8
-32032.7
50169.9
-55002.7
-33725.2
87852.5
88359.4
-20708.4
-8945.67
-23483.5
-5004.7
-11862.2
-5352.63
-7309.15
-4542.24
-9456.68
-11018.4
-8302.86
-5133.56
2546.6
-3381.62
-310011
-125592
-111662
16964.3
23560
7084.97
-28852.4
21886
-5275.54
-49660.1
-19301.7
-48084.9
-303996
-132560
-135015
-16798.4
-38795.9
-45487.3
31466.9
-10202
10914
147238
33668.7
29473.4
-729.212
35536.4
39945.1
388.282
736.756
-11479.6
-11785.7
-11003.1
-5738.11
-83.461
-640.315
-11206.2
-10126.9
-10534.9
-148899
-67071.6
-67742.9
-35190.9
-19547.2
-34481.4
-33028.3
-19097.9
-33760.1
-29742
-17106.9
-30722.2
-154501
-66412.3
-65781.3
-17670.8
-32288.4
-31526.4
-4993.5
-1128.57
-444.481
-8932.45
-10873.8
-9154.9
-9755.22
-10661.5
-9430.44
-3432.64
-2713.82
-5484.45
-9723.29
-5615.25
-8152.29
-7881.17
-8543.15
-10071.1
-5901.86
-5726.03
-241746
-123220
-121552
-54801.1
-25611.3
-54149.3
-52826.8
-24881.2
-53486.2
-50432.4
-22357.9
-51049.8
-264020
-124974
-126842
-22915.9
-52195.2
-51601.7
-7199.6
-7989.59
-7526.93
-6975.12
-11974.7
-6668.56
-6121.14
-11437.2
-6380.76
-3730.42
-2921.29
-1958.99
-8612.08
-13037.5
-8571.92
-8535.27
-12749.1
-8546.37
-35884.9
-20862.6
-36563.6
-139897
-71031.5
-70625.9
-21292.4
-37869.2
-37224.8
-4221.14
-1561.69
-2502.29
-8768.06
-11647.2
-8653.87
-8546.76
-11916
-8583.95
-40234
-23004.5
-39680.8
-133605
-71361.4
-71612.1
-22576.6
-38494.5
-39100
-1512.11
-1968.39
-5372.12
-6676.33
-6746.14
-9606.49
-16551.2
-9275.64
-8612.81
-15990
-8942.88
-55423
-27850.9
-56001.3
-207839
-111834
-113510
-28582.1
-56996.8
-56528.1
-6126.5
-6858.01
-6888.25
-7292.22
-13687.5
-7617.22
-8278.01
-14268.5
-7945.87
-58208.4
-31296.1
-58011
-188601
-110117
-108349
-30655.5
-57404.4
-57742.3
-344.046
-422.213
-428.33
-320.71
-422.673
-343.463
-320.647
-190.137
-307.909
-480.473
-416.883
-702.358
-332.098
-369.041
-550.822
-70703.5
7771.88
115225
-54945
-204258
26718.7
-30858.5
1071.72
929.401
-333.66
-412.037
-405.546
-498.215
-324.326
-417.505
-378.251
-345.809
-423.033
-321.261
-430.164
-344.129
-424.657
-322.084
-1767.25
1791.11
-5866.24
-6595.03
1966.22
-6154.24
-1793.41
-4268.42
87184.8
-8840.61
4204.66
-12607.9
-9130.24
4205.04
-12927
-8589.35
26981.9
-86110.9
244267
21075.3
42905
34218.7
123461
140.991
848.887
-2024.14
1582.42
-5784.96
-6103.59
-1982.64
1435.61
-5597.2
-2486.23
-4721.09
80.4729
-4081.54
150.627
-4198.56
-2495.21
-3820.14
-2446.05
-8186.07
4093.66
-12320.6
-8599.66
-8380.64
4042.66
-12051.2
-6751.14
-6827.96
2460.95
-8969.97
2576.95
-9171.56
-6669.9
-2753.77
-3548.93
-991.337
-2940.15
-942.418
-3030.94
-2764.86
-2525.88
-4453.01
5.77667
-4018.33
-67.3459
-2519.78
-3910.11
-1349.98
-2205.46
-5874.38
-5066.5
421.504
-6306.19
540.121
-6464.98
-5814.96
-6547.24
-6469.92
2328.57
-8784.97
-6605.58
2204.38
-8613.11
-1047.9
-2910.95
-2786.23
296.482
-6158.16
-5771.26
-2080.81
-528.476
-2085.63
2545.45
-2095.68
-319.803
-2008.42
-1968.3
-8917.13
563.334
-8249.56
-7732.84
-3080.26
-961.087
4050.61
-3210.56
1061.08
1038.03
-343.955
-434.206
-426.705
-322.616
-344.339
-428.19
-322.922
-346.819
-432.987
-427.373
-322.612
-345.34
-427.688
-323.282
3158.78
-6339.58
3055.24
-12551.8
5100.03
-1643.12
-6627.34
-7116.95
-22528.4
8773.98
-4082.3
1163.27
14344.4
-19548.9
-6031.86
-8681.86
-9939.66
-9252.93
5477.48
-15026.2
5941.67
-15070.6
-9112.51
-6425
-5372.37
6864.52
-17212.9
8053.39
-13855.6
-9090.14
504.11
643.265
-2293.91
-5509.4
753.012
-4863.64
840.051
-2311.76
-4999.42
-2367.48
-5189.55
656.979
-4777.73
564.989
-2351.22
-4654.89
-3211.52
-2910.63
-7461.97
-7864.85
3435.7
-10586.8
3533.29
-10821.5
-7342.28
-7152.03
-7458.79
3308.17
-10370.2
3196.49
-10168.4
-7241.65
-2663.77
-3860.41
-565.928
-3404.04
-632.345
-2659.31
-3313.31
-2619.92
-4073.18
-491.788
-3446.36
-430.282
-2629.46
-3546.97
-1635.53
-1833.62
-6101.42
-5581.34
1305.5
-7387.59
1175.92
-7236.64
-6142.16
-6259.23
-5903.24
1439.16
-7554.57
1560.38
-7734.67
-6192.43
-783.227
-376.49
-348.538
-778.052
-192.93
-989.268
-666.261
-329.351
-167.146
-1145.73
-1191.24
-205.062
990.347
-4199.18
967.315
-4572.83
-1785.3
88.0002
622.973
-3672.53
-2201.07
181.929
214.753
-2056.41
-344.048
-427.971
-422.338
-320.259
-159.395
-187.631
-126.02
-160.147
-187.025
-124.96
-186.365
-387.632
-149.948
-316.54
-218.802
-148.12
-378.472
-345.752
-871.073
-208.024
-833.633
-461.707
-285.02
-707.587
-146.034
-269.354
-610.973
-158.827
-489.12
408786
12375.3
80272
-292428
-5292.4
-577558
-145.065
9422.37
-83626.9
-6695.88
-39016
-6687.56
-4606.05
-4018.44
-8424.27
1069.45
962.892
-463.183
-478.269
-407.597
-409.498
-407.147
-462.824
-480.3
-466.033
-477.078
-601.029
-629.776
-566.951
-451.089
-450.86
-567.579
-565.663
-602.604
-632.183
-603.391
-630.752
-151.364
-266.711
-145.965
-151.179
-237.702
-333.842
-466.998
-421.706
-336.7
-421.508
-337.123
-350.26
-152.265
-135.065
-203.82
-152.927
-216.134
-160.522
-188.074
-126.623
-160.708
-188.184
-346.536
-431.075
-425.717
-322.504
-425.64
-345.775
-322.549
-160.062
-126
-188.15
-159.94
-188.135
-466.816
-491.521
-475.874
-481.848
-412.441
-410.018
-469.464
-479.384
-465.471
-484.472
-411.802
-418.311
-857.552
-507.752
-893.371
-485.671
-363.889
-443.492
-471.103
-912.054
-737.963
-464.148
-458.767
-485.285
-303.978
-1227.96
-1167.02
-303.467
-606.606
-640.441
-635.348
-610.417
-570.03
-451.309
-568.765
-453.775
-606.176
-633.162
-604.806
-635.411
-570.554
-455.162
-454.28
-573.628
7377.75
6984.11
-1307.81
-6596.39
2519.71
-6742.64
2324.29
-6140.57
-1415.98
5652.4
5899.49
894.881
-4344.09
1315.98
-3549.61
-1284.11
-487.555
-394.64
-113.651
299.753
-272.117
-573.515
-1695.47
-1937.71
181.601
93.4143
-2127.8
-45841.4
22233.8
71475.6
124611
2392.47
-46837.8
-58473.6
-11264.3
-42702.6
-29867.3
-26525
-28929.1
-28572
-73685.8
-77371.8
-76489.3
-73101.9
-30822
-31479.4
-32533.2
-28838.1
117329
329913
170687
135330
-228717
-65245
58716.2
360200
17623.8
128090
53015.1
318223
-24663
-372574
425173
-866596
-4488.83
-57615.7
-18835.5
-18688.2
-9075.85
-9227.15
4293.82
-13587.9
4374.21
-13257.4
-9359.23
-17535.6
-17698
-247908
-174705
-269961
-157821
-325787
-354126
-349924
-371647
-223711
-147814
-142085
-243592
-266209
-190432
-191259
-266774
-346880
-343357
-259296
-186718
-258333
-186422
-354511
-357654
-21686.1
-14130.4
-14235.6
-52211.5
50672.3
-16198.5
86107.8
-22345
-22523.7
19723.6
-10701.2
235.411
803.959
4002.32
4215.97
-2128.4
-5991.82
1170.74
-5334.87
1282.58
-5496.44
-2158.98
4912.44
4691.72
-45692.2
-38168.2
-43712.3
-40551.2
-80922.8
-84256
-83442.8
-79951.4
-45409.4
-41581.7
-47357.1
-39258
-34665.7
-34753.3
-32072.7
-36656
-78130.9
-74283.7
-34697.8
-30589.2
-32783.5
-33299.1
-75023.9
-78912.4
1946.68
1640.91
-2459.57
-4808.08
309.985
-4381.65
231.193
-4266.09
-2449.57
1267.13
1568.75
-3682.37
-2541.5
-15798.1
-15861
-8017.4
-8454.47
3859.08
-11523.7
3931.72
-11790
-7850.06
-16705
-16591.3
-205494
-154869
-206312
-155065
-262236
-259360
-268943
-271929
-199601
-151087
-198802
-150899
-243324
-177030
-176974
-242227
-332039
-335662
-250259
-181780
-251342
-181904
-324419
-320826
-13494.2
-13547.9
-6821.12
-6953.27
2822.41
-9552.13
2705.2
-9367.33
-6895.56
-13271.8
-13208.7
-766.009
-1091.91
-2734.05
-3605.03
-821.075
-3148.45
-882.424
-3062.95
-2725.04
-1389.86
-1090.76
-48638.6
-43513.9
-41316.9
-50483.6
-85009
-81820.7
-82632.1
-85663.6
-48950.1
-40305.6
-47053.7
-42562.6
548.143
866.931
-2556.33
-4380.48
-214.342
-3746.01
-149.126
-3854.04
-2565.71
1218.35
892.849
-56978.4
-45916.9
-47740.6
-55463.7
-85325.8
-87316.5
-87347.3
-85175.7
-56560.5
-48474.8
-57997.3
-46720.6
-1408.42
-2126.53
-11863
-11940.7
-5915.48
-5171.35
788.704
-6758.49
663.611
-6620.01
-5956
-11819.3
-11731.7
-186723
-143419
-143275
-185943
-249989
-252785
-192292
-147047
-193076
-147218
-243554
-240833
-12800
-12730.6
-6487.91
-6355.11
1949.75
-8245.09
2071.36
-8435.88
-6416.93
-12959.4
-13020.9
-156361
-125333
-125268
-157244
-192484
-190121
-151767
-121758
-150841
-121888
-198074
-200496
-1405.6
-427.276
-621.024
-612.188
-448.333
-469.082
-408.666
-387.025
-529.995
-537.231
-475.186
-550.692
-458.514
-879.681
-377.319
-850.491
-377.662
-104.189
-1535.27
-1487.88
-106.824
-152.841
-1287.32
-166.649
-1347.44
-943.224
-382.449
-370.503
-969.233
-471.212
-667.74
-466.795
-683.971
-628.282
-538.979
-525.885
-642.603
-599.031
-501.4
-588.537
-506.45
-482.314
-738.931
-721.059
-495.875
1472.72
-5020.86
1277.6
-5409.1
-2906.1
558.373
514.402
-3027.17
-2538.38
303.362
-2392.01
375.232
1839.76
-6740.88
-6372.96
1995.85
-10440.6
2684.44
2739.15
-9655.93
4341.02
-18438.8
-8328.21
1839
6472.11
-21463.2
6316.12
-22573.5
-13142.7
3499.51
3910.45
-11947
11599.5
-41473.5
12332.1
-37620.2
-15893.7
5201.45
4882.69
-17135.5
9235.63
-27191.3
8362.32
-30803.4
-1231.27
-161.23
-1627.25
-690.432
-1168.42
-396.688
208.378
-1315.54
-196.515
-1890.67
-742.088
-443.649
-1515.47
-212.247
-841.567
-563.738
-123.206
-1089.44
-3396.9
-3840.2
-9516.7
34010.5
-15521.5
-22411.6
-51613.2
-5554.13
-1247.33
-2484.5
-1500.25
393.323
-4533.22
-956.498
-7000.69
-2898.22
-313.011
-5481.24
1074.17
1012.98
-515.341
-508.915
-537.678
-554.507
-550.074
-542.35
-539.637
-552.406
-513.288
-511.539
-507.487
-517.328
-605.274
-625.025
-586.544
-578.6
-573.979
-590.831
-587.874
-575.722
-604.96
-627.942
-625.709
-608.333
-342.566
-436.805
-425.882
-327.662
-338.95
-426.092
-324.769
-157.609
-189.413
-124.346
-158.931
-189.96
-155.974
-195.879
-124.253
-154.702
-191.961
-347.518
-432.698
-426.409
-322.839
-346.13
-427.783
-323.271
-160.316
-189.208
-125.812
-160.384
-188.977
-160.103
-188.32
-125.48
-159.859
-188.599
-485.148
-484.111
-468.637
-500.847
-414.091
-440.929
-467.433
-517.271
-502.79
-483.184
-426.208
-414.316
-518.392
-522.968
-511.947
-530.019
-547.074
-552.462
-540.101
-559.333
-522.195
-509.964
-515.91
-515.549
-542.222
-567.066
-554.382
-555.319
-540.496
-513.639
-533.092
-520.263
-540.354
-598.746
-585.877
-553.356
-517.895
-551.474
-559.291
-512.056
-565.364
-556.784
-543.44
-578.188
-969.772
-478.549
-961.785
-439.962
-128.997
-1581.68
-95.9764
-1571.13
-995.965
-391.493
-994.26
-414.942
-164.838
-1429.7
-227.793
-1483.75
-563.462
-752.624
-720.966
-592.284
-610.686
-459.041
-462.2
-563.287
-540.564
-461.66
-651.243
-462.42
-660.082
-624.977
-690.247
-595.537
-551.824
-775.718
-765.499
-578.156
-673.547
-560.98
-663.999
-575.934
-531.361
-759.441
-513.708
-766.596
-682.593
-617.565
-696.957
-594.812
-609.748
-636.675
-630.314
-617.162
-594.464
-576.599
-589.383
-582.804
-611.762
-628.234
-631.359
-607.688
-591.598
-589.394
-578.746
-600.578
-617.748
-637.285
-608.015
-647.687
-570.781
-459.465
-457.57
-590.348
-579.588
-455.091
-571.846
-458.698
-606.175
-662.049
-632.06
-635.401
-626.908
-632.19
-611.063
-645.221
-590.007
-621.285
-576.623
-632.204
-611.486
-579.87
-600.32
-592.823
-608.484
-662.525
-645.76
-629.969
15920.6
-9294.61
-3765.78
11866.8
-12921
11124.5
10008.8
-10626.4
-8931.49
11894.9
-14471.9
14782.5
11408.7
-5874.64
-8020.52
12785.8
9266.08
9996.05
-1050.01
-8251.62
3291.43
-6399.9
-167.368
3188.36
-8260.82
13726.5
10795
6058.66
1110.35
22348.9
-15266.1
5686.77
-3767.6
33451.7
-35519.8
-20706.9
21558.2
-4936.62
8574.77
35003.5
-31615.4
14681.7
-10634.7
2144.65
-6204.41
1799.97
-6670.52
-3144.68
615.746
-3163.87
569.986
2179.75
-7175.35
2216.68
-7232.02
-2909.82
375.692
-2736.58
509.026
-8025.08
3904.2
2503.66
-11415.4
-1352.7
1446.88
-4006.23
5291.55
-2174.6
-796.909
894.326
262.819
4553.11
-29057.2
9312.68
-14888
-18087.9
5231.32
5793.8
-17076
14184.2
-45937.8
14010.5
-48403.7
-19216.9
5841.4
-18658.3
5858.39
14326.2
-45496.1
13152.6
-47103.4
33843.6
-147716
-96628.3
31516.7
-41349.5
11284.9
-48357.2
15271.6
15373.9
-52733.4
29963.2
-142723
10588.5
6846.02
12386.7
19884
-70995
-64807.6
-54492.7
-45752.5
-21888.1
-5134.89
-36897.7
-7884.88
-56995.8
49522.1
165063
-48245
61324.5
126711
-63558.2
87904.4
163393
81263.8
199599
-75694.9
59973.8
38256
69903.4
10661.9
-28897.8
17747
47488
-65694.6
-51942.5
35173.8
-15469.8
8748.72
105804
17098.8
47922.2
94589.6
46997.1
-163685
47590.5
-203253
-98329.8
30453.8
28367.8
-109863
-79829
20562.1
22518.7
-68188.3
62388.9
-269179
-238078
62721.4
-14393
1620.96
1216.11
-15897.2
8375.18
-13405.3
-14962.9
8614.15
12662.4
-15963.9
-11737
11403.7
-16188.6
-2604.13
-1763.98
-16557
-26123.9
-24726.1
-25947.9
-23635.7
-71859.2
-71364.5
-72512.9
-74900.3
-19641.9
-21948.5
-22892.2
-17828.8
-18478.9
7326.67
-10750.8
5760.81
30561.4
-32029.9
120.063
1534.65
10675.7
-8190.5
-20567.3
19548.3
-4155.46
6507.96
-26748.1
17370.1
120221
-18583.9
69916.6
38283.6
28260.2
18457.6
-13137.6
6751.75
28860.1
7980.11
22861.1
9263.2
-346877
-147251
72786
22545.9
-16161.7
10124.9
-15802.6
-133564
21572.3
119574
-123491
-41008.4
24338.5
8147.11
-93940.8
-108435
113229
275345
-105384
142484
227232
-98122.3
103603
220553
-84235
97913
197859
135308
-108888
159278
63609.5
-81969.6
54678.1
28923.5
-44019.2
-66229.7
42619.7
62123
-92199.1
129882
63806.1
130801
6047.63
88164.7
-416437
88173
-395989
-133140
35253.6
36274.2
-125219
-137815
35938.4
37940.8
-136335
76001.4
-315564
75119.4
-338060
-5324.63
-17848.8
-11119.5
-22122.4
-21884.6
-11087.4
-29584.7
-20809.5
-19874.8
-29538.9
-30231.3
-19704.7
-30017.9
-20874
-10785.4
-20953.4
-21236.9
-10710.6
-19733.3
-19830.4
-9805.9
-10051.8
4672.51
-13987.8
-9628.14
4513.34
-14329.6
-20765.8
-21141.7
-11075.1
-22534.7
-10854
-23103.8
-29226.8
-17206.3
-18621.3
-28988.7
-30027.7
-20173.6
-30199.9
-19086.7
-9952
-23046.7
-22258
-10317.9
-282656
-189733
-280544
-193196
-378728
-379604
-280754
-195034
-192565
-281788
-382185
-380188
-28812.9
-67559.2
-55091.1
-27944.3
20199.3
37210.4
-3731.03
27683.7
5000.61
-18925.1
-2001.9
-30708
-20944.4
-62020.7
-50497.1
-12177.7
-53732.3
-87453.2
-97723.1
-42860
-27408.5
-37133.9
-31047.5
-36962.3
-61061.5
-107527
-100946
-68194.2
-20225
-33296.8
-16125.3
-28767.6
-80845.8
-111808
-115865
-77847.9
-40044.9
-43938.3
-42893.6
-42872.3
-42329.1
-42769.2
-44216.5
-39029
-78498.8
-114560
-111208
-80815
-273333
-194721
-273268
-193337
-373864
-374951
-279030
-194041
-278144
-196840
-367297
-364895
-75846.2
-115900
-79587.5
-111131
-37655.1
-39330.9
-41930.5
-32931.3
-37108.2
-43630.9
-41907.2
-40765
-76435.1
-107497
-70573.4
-114115
-22661.6
-26545.8
-10407.8
-3720.7
32481.7
-27370.1
-17476.9
10426.1
-18029.7
-20420.5
-19678.9
-9030.63
-7049.16
-13793.5
2121.32
8713.13
67922.5
30160.4
73525.5
-31662.5
3860.25
3662.16
-12381.4
36263.9
108478
26176.1
102069
-5125.35
-15210.3
-12291.2
-11867.1
-33288.5
-14551.4
-25786.2
-17147.4
-14642.4
-20887.8
-6595.19
-27212.6
-18604.5
-10256.7
-8725.46
-27833.7
432.773
695.776
9108.81
-7134.77
-7681.39
9614.92
-11263.6
8257.59
-12355.1
8815.87
10893.6
-7671.57
-6730.79
10210.4
-12227.3
7214.62
-11493.9
6793.16
3661.59
3424.45
-2247.99
-5618.32
1053.39
-5233.76
-2219.81
944.831
-5093.25
2929.11
3176.28
8596.23
-7729.22
8144.52
-7331.65
-12138.9
4805.27
4455.04
-11509.4
-11537.7
5564.9
-12163.5
5924.89
7270.71
-7444.12
-7790.33
7707.72
-41958.6
-39500.4
-43971.8
-37040.4
-81630.3
-77900.2
-42201.2
-35877.7
-38397.6
-40165.2
-78943.4
-82556.1
-22628.1
-15016.4
-16067.4
-21520.8
-4072.04
-15759.1
-15788.3
-4291.86
-3106.7
-15619.9
-2896.24
-15588.6
-22180.5
-17551.2
-16516
-23258.2
-20846.4
-14526.6
-13476
-21980.7
-603.256
-15297.1
-390.745
-15257.2
-21314.6
-11863.5
-12928.2
-20147.4
-1668.32
-15424.8
-1888.79
-15459.5
-17878.7
-7558.6
-6510.39
-19012.4
5901.97
-14756.2
5995.84
-14218.6
-17989.1
-4338.39
-5360.33
-17006.7
4067.8
-14647.2
-14856.6
3896.73
-38543.2
-33408.5
-36508.1
-36044.3
-76872.6
-80689.6
-38342.6
-37252
-40392.3
-34668
-79777.9
-75892.5
-19855.6
-8417.19
-18680
-9490.68
971.65
-15097.3
-15141.4
762.017
2232.66
-14993.3
-14902.3
2436.92
-19434.1
-11257.6
-20607.3
-10191.4
2043.27
2329.12
-2402.58
-5095.65
396.782
-4454.04
-2417.43
475.136
-4576.19
2741.54
2466.37
5408.58
-7914.77
-7576.23
4931.99
-12026.3
1047.8
692.216
-11320.7
-11364.5
1574.29
1921.44
-12056.5
4226.13
-7594.44
-7932.74
4700.91
5673.9
-7551.61
-7883.93
6136.06
-11462.2
3441.45
-12116
3779.39
6900.07
-7842.72
6447.25
-7508.73
-12088.8
2828.18
2481.02
-11410.5
-3335
-2813.18
-9883.25
-19368.6
-19440.8
-10051.6
-28801.5
-19690.1
-28806.1
-20663.7
-10337.1
-20257
-20089.8
-10283.1
-28079.5
-20566.2
-28138.8
-19534.4
-15183.7
-15165.2
-7579.89
-8005.4
3741.96
-11281
-7710.63
3651.9
-11054.2
-14648.8
-14634.4
-9932.19
-18773.3
-9630.18
-18803
-27039.4
-20807.5
-19612.4
-27288.8
-27640.5
-19496.9
-27482.7
-20618.4
-9542.47
-18360.5
-18255.6
-9940.8
-213238
-159135
-212378
-158965
-288858
-292068
-219476
-163208
-163360
-220392
-281864
-278770
-77486.7
-100270
-102547
-75797
-43466.5
-42803.2
-41682.2
-45746.1
-45265.4
-41571.6
-42898.9
-42704.7
-75455
-101040
-98883.2
-77075.9
-76137.1
-104086
-101689
-77889.8
-44315.7
-41490.8
-41816.1
-42608.2
-78295
-103180
-105681
-76499.9
-42343.7
-42628.2
-44776
-41499
-77863.1
-110945
-108118
-79798.3
-43125.1
-42526
-40440.5
-43516.2
-80382
-109797
-112833
-78308.5
-40710.1
-43095.3
-42113.4
-43303.6
-234395
-172221
-235442
-172299
-302563
-299221
-227793
-167733
-226808
-167624
-309874
-313355
-79243.3
-106400
-77356.3
-109099
-41361.9
-42653
-41576.5
-43902.6
-43558.6
-41774.5
-42813.8
-40987.5
-76900.1
-107343
-78742.8
-104741
-13859.5
-13814
-7066.51
-7332.44
2955.55
-9751.31
-6972.12
3066.12
-9965.68
-14188.3
-14220.6
-10524.9
-17261.9
-17528.4
-9928.37
-26331.5
-22430.6
-21141.8
-26753.6
-26802.9
-20666.8
-21951.5
-26409.2
-10194.8
-17339
-17045.1
-10815.7
-9718.5
-17747.6
-17525.1
-10267.2
-27049.2
-19871.5
-26732.6
-21110.2
-10065.6
-17847.8
-9578.82
-18019.7
-26532.1
-21503.7
-20229.9
-26897.6
-778.035
-458.281
-2689.5
-3801.92
-756.864
-3183.83
-2701.74
-697.667
-3274.88
-124.71
-463.584
180.923
-7948.93
-7658.21
-285.082
-12061.2
-5314.86
-5584.78
-11529.2
-11452.9
-4822.23
-12006.2
-4546.29
-880.095
-7678.38
-7957.07
-442.038
332.9
-7646.46
-7943.54
798.018
-11321
-3313.82
-11956.5
-3013.34
1428.7
-7944.35
-7636.07
946.493
-11981.5
-3781.53
-11375.8
-4074.6
-23449.1
-20408.6
-19388.7
-24482.3
-5429.85
-15965.5
-5213.48
-15943.5
-23881.5
-17965.6
-19000.8
-22814.4
-6314.33
-16148.6
-6550.04
-16155.7
-51946.6
-42304.8
-50151.1
-44425.1
-83983.6
-86679.9
-86226.9
-83356.7
-51596.3
-45319.8
-43259.4
-53334.1
-25086.2
-20765.3
-24073
-21793.9
-8464.69
-16580.5
-16558.5
-8711.2
-7630.84
-16351.7
-7401.97
-16360.9
-24692.1
-23134.5
-22123.4
-25683.4
534.572
199.253
-2597.29
-4141.47
-286.824
-3694.4
-2588.13
-357.874
-3594.01
-131.761
193.001
2869.76
-7611.24
-7946.21
3355.67
-11290
-143.142
-12003
194.439
4023.4
-7940.48
-7601.82
3534.04
-11979
-619.943
-963.08
-11278.6
2706.78
-7944.76
-7615.87
2217.57
-11950.5
-2222.71
-11294.8
-2548.33
1579.9
-7625.36
2057.57
-7942.72
-11280.1
-1759.07
-1432.98
-11958
-27461.9
-26031.6
-27022
-26529.8
-12579.8
-17643
-17554.8
-12855
-11846.2
-17296
-17360
-11571
-27133.4
-28235.1
-27278.8
-28041
-54264.6
-46981.6
-55852.5
-45060.9
-87027.3
-84502.8
-84898.9
-87249.4
-54635.7
-44180
-52971.1
-46167.3
-25918.1
-25753.6
-26876.8
-24764.9
-9767.09
-16791.3
-16825.1
-9509.55
-10546.5
-17090.8
-17027.2
-10814.3
-26285.2
-23450.4
-25302.8
-24463.8
-1579.98
-1911.52
-12078.6
-12000.2
-6057.25
-5477.85
919.941
-6913.61
-5998
1043.11
-7083.51
-12164.2
-12233.1
-13322.9
-16165.4
-16539.6
-12677.9
-26355.9
-26319.9
-25311.9
-26756.2
-26741.3
-24824.3
-26339.5
-25872.4
-13081.7
-16462.2
-16097.5
-13695.6
-12292.7
-16617.9
-16249
-12942.1
-26733.6
-23790
-26301.4
-24925.6
-12570
-16341.8
-16708.5
-11906
-26311.5
-25406.2
-26740.3
-24310.8
-74698.1
-98050.3
-96163.1
-76160.2
-46214.3
-41808.8
-44025.4
-42911.2
-76633.2
-97526.5
-99545.8
-75096.1
-44567.5
-43006.7
-46645.3
-41936.3
-179744
-139575
-180536
-139690
-225714
-223137
-174500
-136007
-135934
-173691
-231881
-234533
-75630.2
-94805.1
-74258.1
-96540.9
-45526.2
-43169.5
-42173.5
-47396.7
-47048.9
-42061.9
-45066.7
-43096.6
-73770.2
-95023.3
-93421.2
-75052.9
-12526.2
-12593.3
-6309.54
-6015.58
1814.85
-8070.93
-6364.03
1690.64
-7909.07
-12405.4
-12334
-10822.3
-17043.2
-16704.8
-11481.1
-26727.2
-21661.2
-26292
-22924.1
-11141.4
-16863.1
-17184
-10492.2
-26274.9
-23437.2
-22188.2
-26716.8
-11839.3
-16568.6
-16921.6
-11170.5
-26284.5
-24441.8
-26723
-23258
-11537.1
-16807.7
-12197.4
-16451.5
-26715.9
-22727.5
-23939.1
-26278.3
-72987.4
-89150.4
-90323.4
-71979.4
-46884
-43187.2
-42384.6
-48310.6
-48156
-42358.5
-43225.5
-46620.8
-71278.3
-88716.7
-87672.6
-72191.7
-162856
-128799
-162005
-128827
-214583
-217106
-167782
-132356
-168608
-132383
-208700
-206231
-72631.7
-91914.9
-73729.7
-90594.4
-47700.7
-42256.4
-43215.5
-45943.2
-46307.9
-43229.8
-42325.3
-47953.1
-74417
-92025.1
-73228.9
-93478.6
-6316.74
-12142.2
-7969.47
-1477.39
7038.52
-2602.35
79.7516
-17018.3
-2798.26
6769.81
-18749.9
7814.36
-20188.9
1030.55
-3117.04
-2556.08
-17161.9
8046.84
135673
-1989.39
56193.6
57373.5
81201.6
265057
75666.3
-6801.77
-2040.37
-9495.73
-8428.3
-2147.53
-6597.74
-9520.87
-7226.34
-9873.02
-8590.17
-1969.68
-1905.47
-8589.89
-7532.56
23761.2
232094
78754.5
183673
61691.9
48509.9
142619
-7284.64
24724.7
29357.7
46517.9
50017.9
-24813.5
35609.8
6117.25
-2730.3
-17750.8
430.463
6349.11
-2622.79
-16510.8
5817.54
-15934.2
-402.891
-2633.13
-2718.95
-17020.2
5608.93
3470.64
-2647.79
-1844.04
-12460.9
-2735.95
3298.96
-13488.2
3641.41
-14025.1
-2724.12
-628.908
-2642.21
3829.31
-13004.6
-6128.55
-2152.5
-9065.27
-8495.24
-6280.45
-2043.07
-8170.05
-5893.6
-7979.07
-8859.21
-2041.55
-2127.26
-8720.2
-5774.16
-4625.59
-2439.08
-7344.04
-7905.85
-2439.87
-4580.77
-8187.38
-4711.85
-8175.56
-2349.17
-7378.81
-2339.07
-4761.06
-7844.49
842.717
-2905.01
-3570.97
-8699.04
-2974.75
668.818
-9717.79
979.79
-10123.5
-2919.93
-2166.31
-2851.43
1170.18
-9106.18
2948.65
-2744.95
-12958.6
-995.213
3137.11
-2664.12
-11931.8
2796.02
-11418.8
-2679.04
-2293.79
-2765.75
2619.72
-12446.4
-4315.95
-3428.25
-6470.85
-8620.67
-3400.35
-4350.08
-8663.76
-4294.16
-8589.53
-3278.45
-6706.75
-3303.09
-4274.58
-8516.86
-4472.47
-2544.2
-8223.2
-7125.46
-4507.82
-2548.51
-7978.72
-4415.71
-8059.53
-2665.49
-7015.02
-2653.43
-4382.73
-8264.17
-3035.34
-9328.62
536.335
-3526.36
13915.4
-9562.94
-31423.6
-122.184
-13462.5
5919.65
-3739.36
9710.99
-16696.8
-2692.53
-1812.96
9742.83
-23875.9
-4666.99
-6000.45
-4174.53
-4010.95
-6924.24
19108.4
-54828.4
-13216.3
63703.4
-3043.82
50937.9
26919.1
45009.3
59847.7
17590
-9861.77
-548.851
-9218.2
-7942.68
67.4672
-6972.1
-10334.8
-8586.13
-8563.66
-1441.32
-10256.6
-8271.09
-961.255
-10041.2
-14327.8
-2030.54
-11498.1
-3647.78
3238.15
-14027.1
-2847.62
-17845.4
18572.2
25327.7
-2611.17
-17057.6
6078.03
13465.2
4948.92
-2629.3
-14727.1
-892.614
-15740.9
4763.43
-2713.14
5164.75
-16354.5
-2713.4
77.2147
5368.1
-15325.2
-2633.83
4370.76
-2710.91
-15148.6
-264.358
4564.26
-14137.8
-2631.95
4186.54
-13567
-2634.69
-1378.11
4004.7
-14579.2
-2719.14
-5328.91
-2097.75
-8247.69
-7789.44
-2142.07
-8314.1
-5247.94
-5489.02
-8473.27
-2123.51
-8081.53
-5581.56
-2057.13
-7851.64
-5042.56
-2192.96
-7694.06
-8226.6
-2163.55
-5109.06
-7776.06
-4925.56
-7795.86
-2244.26
-7748.54
-4862.01
-2262.09
-8182.31
1619.57
-2835.77
-10999
-1761.29
-9977.33
1809.93
-2761.82
1480.21
-9534.66
-2801.77
-3151.87
1304.72
-10552.5
-2879.53
2127.93
-2725.14
-10443.5
-2722.74
1955.36
-11466.1
-2809.79
2279.81
-11947.8
-2782.37
-1376.97
2469.33
-10921.1
-2702.36
-4253.87
-3019.54
-6795.99
-8447.44
-3042.23
-8327.78
-4255.01
-4253.06
-8418.98
-3172.25
-6581.67
-4260.08
-3146.22
-8512.73
-4285.17
-2911.58
-6764.72
-8232.56
-2891.9
-4272.35
-8378.55
-4317.73
-8320.26
-2774.09
-6929.38
-4338.32
-2787.09
-8144.34
)
;

boundaryField
{
    left
    {
        type            calculated;
        value           nonuniform List<scalar> 
290
(
-425.033
149209
-595.622
-498.229
-425.476
-513.414
-559.09
-512.173
144236
-286598
112492
-665.101
70983.7
-128997
-573.07
-623.93
-732.45
-5167.96
-1441.87
-4014.55
-2773.87
-418.972
-422.238
-558.578
-568.966
-514.189
-606.382
-597.493
-660.956
-609.402
-511.981
-595.013
-555.899
37024.6
73796.5
-1815.23
-6915.45
-783.879
109721
-15050.9
-1816.39
-3883.79
-12563.7
77941.8
-503.469
-526.342
-584.163
-722.419
-531.1
-92.177
-8867.4
1302.51
-46.2769
11.4703
-978.088
-422.58
-70.5489
-57.0796
-92.1627
-89.8795
-426.422
-471.394
-474.584
-514.582
-625.681
-623.774
-663.027
-634.802
-520.999
-621.885
-468.985
-116912
186297
-881.172
-914.763
-765.422
160283
24927.7
44348.3
-1204.48
17601.7
-10200.5
-486.929
-493.16
-578.946
-541.693
-535.274
-580.32
-553.262
-591.672
-1026.38
-860.506
-661.165
-3443.89
-1770.91
-2336.19
-817.828
-1280.33
-2261.39
520.753
1225.66
-17601.4
-1587.78
71.481
200.444
-83.9659
-74.895
-416.227
-425.939
-88.855
-86.8039
-562.017
-522.887
-519.347
-530.53
-526.693
-565.555
-478.261
-482.238
-628.008
-627.281
-515.13
-603.337
-630.593
-632.607
-625.902
-628.244
-600.284
-626.297
-647.611
-680.934
-633.959
-636.316
-613.727
-511.057
-627.066
-627.391
-623.64
-516.683
-12650.4
105539
-1763.98
-1678.03
-1504.76
-2662.87
-2407.93
-6915.14
-800.88
-1079.58
-1133.79
56914.5
57814.4
141292
-15461.2
-39084.5
-17474.1
-857.592
-26420.9
-7285.38
-5997.56
-5941.92
-17890.4
-8943.9
-7090.95
-9220.84
41843.6
34686.6
49810.6
-425.156
-339.644
-339.367
32095.1
-114693
-79002.2
-416.18
-458.311
-661.271
-469.976
-337.841
-356.534
-339.683
-340.365
-426.325
102349
90385.3
213628
-3700.02
-3600.47
-9400.74
-3671.1
-2033.51
-2765.27
-328.52
-324.259
-417.798
-424.015
-335.969
-332.613
-339.568
-424.913
-87.4745
-184.903
-185.307
-185.276
-88.8668
-34281.8
-39583.9
-63483.6
3527.24
-34585
-14584.8
-50194.2
-32.0848
-308.751
-257.176
-521.528
-407.838
-9.50814
-924.384
-613.088
-706.522
-315.096
-319.14
-435.325
-64.8717
-175.836
-168.34
-215.437
-192.793
-60.5475
-88.8165
-185.365
-185.453
-183.764
-184.785
-87.5809
-426.628
-340.457
-339.588
-266623
-176128
-393066
102719
1201.61
-4624.24
-2271.12
-7696.33
-7290.36
903.397
-29617.1