/*--------------------------------*- C++ -*----------------------------------*\
| =========                 |                                                 |
| \\      /  F ield         | OpenFOAM: The Open Source CFD Toolbox           |
|  \\    /   O peration     | Version:  2012                                  |
|   \\  /    A nd           | Website:  www.openfoam.com                      |
|    \\/     M anipulation  |                                                 |
\*---------------------------------------------------------------------------*/
FoamFile
{
    version     2.0;
    format      ascii;
    class       volScalarField;
    location    "0.105/solid";
    object      sigmaEq;
}
// * * * * * * * * * * * * * * * * * * * * * * * * * * * * * * * * * * * * * //

dimensions      [1 -1 -2 0 0 0 0];


internalField   nonuniform List<scalar> 
3125
(
231.33
1.33606e+06
1057.45
974666
705278
991975
277.525
776.661
231.824
742.656
279.51
1.31362e+06
1309.35
110674
221967
667685
1.28011e+06
1.27928e+06
1.21706e+06
242917
312615
1.33761e+06
1.31552e+06
1.01175e+06
1.29307e+06
200039
218404
992214
1.26113e+06
975981
1.19921e+06
256675
304980
930497
690147
197812
972700
179793
685328
957299
655734
250649
912862
211093
686966
672141
667878
639203
595.184
346.097
875.359
2152.93
7251.83
1.47788e+06
13071.3
1.51376e+06
17192.1
836519
855666
303.229
321.85
249.732
244.319
306.066
327.526
662.622
320.536
368.513
324.687
298.923
347.616
748744
1.46212e+06
823756
982.638
11164
8397.43
3739.53
219783
350535
621668
11610.5
562502
226433
612391
1.4997e+06
26962.6
507511
842807
15654.7
1.40535e+06
1.42908e+06
549243
1.33574e+06
586437
321982
300603
379382
366905
326857
382034
1.35462e+06
493393
591419
1.17231e+06
1.15201e+06
724249
1.15089e+06
653508
206811
427409
476356
544793
209294
493075
1.13082e+06
563590
630651
1.12728e+06
1.1082e+06
534985
1.07319e+06
492284
275821
305643
328394
359329
282684
336048
1.05521e+06
436656
478262
819372
395514
456469
411462
190735
364781
838241
541689
477388
305706
188184
349646
810115
828280
773814
328063
368365
298076
233249
275302
790986
422900
381924
244641
227621
267670
448.361
359.151
632.437
713.988
1056.24
68.1724
1.39701e+06
667.669
3091.66
1980.67
1.48031e+06
60286.9
44149.5
760890
933100
263.126
339.023
468.034
355.867
175.301
68.5251
234.847
69.4794
265.388
268.837
784.229
481.174
539.486
341.48
282.851
345.275
1.03509e+06
1.37535e+06
1.08706e+06
1269.49
2558.06
2411.25
81083.1
163185
66584
131497
45181.3
240501
225278
244542
1.57147e+06
340028
744066
1.0708e+06
237714
1.33566e+06
1.32764e+06
949756
1.26944e+06
992853
288004
87412.3
110127
190117
319630
190112
1.29398e+06
857048
1.00523e+06
1.25399e+06
1.07147e+06
1.01877e+06
1.23183e+06
969632
202249
206390
210279
235931
215049
231310
1.0512e+06
781872
828020
1.20385e+06
1.03234e+06
935295
1.1453e+06
893020
262856
181694
182622
189148
297308
187909
983679
727258
768185
744880
546381
588925
202550
195534
198745
914598
766658
721281
176137
182715
179916
738272
901627
705857
516351
554990
180726
244749
179685
860291
713797
673325
170948
216553
172764
532304
503887
294.327
316.754
527.872
448.444
408.097
323.812
380.726
352.578
767.284
1593.67
1356.89
1251.51
4163.48
1751.17
2608.47
5924.13
2243.31
1.41803e+06
4296.85
7598.84
2827.84
1.60463e+06
68104.9
11047.8
28130.4
779645
913617
286.079
339.752
309.047
83.7337
135.099
236.021
78.1799
70.3365
281.593
273.901
288.717
310.509
292.832
307.939
317.038
298.756
732.809
488.796
526.449
368.855
385.339
433.112
408.508
387.755
432.642
342.49
328.944
346.592
288.452
363.08
351.624
335.849
365.524
353.443
950053
773902
982774
1.39698e+06
1.16671e+06
1.10538e+06
799117
1.05308e+06
1.01711e+06
1116.14
1799.84
2046.91
5107.47
10937.7
4245.61
3006.46
9494.45
3492.09
27015.5
6805.87
34120.4
203238
241406
203065
200929
451264
172418
274004
106555
412163
562182
362532
9129.96
64363.3
48836.5
383797
580310
394257
227467
246469
247305
597435
410078
403657
1.55672e+06
1.19113e+06
1.17192e+06
115667
21685.2
103574
660366
645377
232159
884179
260553
1.08544e+06
779983
1.02744e+06
19871.7
77392.6
85599.4
1.35418e+06
1.50548e+06
749911
563284
770776
1.28681e+06
1.05355e+06
1.00821e+06
576144
809103
791019
313194
167501
145832
125373
305818
113943
198273
346994
161947
217493
373973
217773
324934
181450
188024
379635
210076
216162
1.3757e+06
1.06833e+06
1.04168e+06
730066
516701
754500
821240
563548
793313
1.2335e+06
1.09151e+06
918580
700228
887910
1.2115e+06
905953
953795
676683
828226
857844
204487
218293
214238
300628
443539
310505
330683
459851
320520
373001
527267
362183
212016
222472
226807
510038
341006
351506
1.071e+06
890355
843429
712983
585715
741379
798976
608063
770037
1.18468e+06
1.05124e+06
728983
520650
708090
1.12725e+06
837093
878887
506414
666634
687303
269226
184499
183544
203937
313209
205824
209414
320787
207642
216257
351544
214644
289847
185529
186668
343768
211167
212916
1.00151e+06
823205
781854
584980
450463
605253
646072
464328
625617
763344
646981
603372
496332
415513
522222
575134
435838
548497
290888
395702
281286
193182
191200
194964
380138
262513
271825
895384
661733
706281
684852
520013
656987
602109
498575
629402
226848
320096
235518
185513
187442
183684
334746
253354
244355
756110
883185
722737
607104
567745
426383
341428
445782
485002
354865
465327
201959
290501
199874
238954
177305
178552
282910
195332
197668
842869
620117
660077
564791
409193
544697
504795
395534
524694
184536
252340
187463
222057
175935
174423
260017
192858
190236
183.015
223.511
231.275
178.172
223.325
182.666
178.22
1.35642e+06
1348.64
904.692
1086.91
1511.36
945.061
1528.3
1297.48
522225
1.4139e+06
482995
731203
565839
1.08817e+06
341075
723700
972288
514.001
653.032
808.043
566.539
697.318
609.355
474.421
185.134
224.424
178.655
233.071
183.368
226.126
179.624
1.31429e+06
1.33963e+06
1.21844e+06
1.3341e+06
1.36124e+06
1.23777e+06
1.29287e+06
1.29883e+06
1.44584e+06
1.05894e+06
1.11815e+06
1.14157e+06
1.23471e+06
1.13456e+06
1.15744e+06
1.04467e+06
1.22084e+06
1.4544e+06
1.12102e+06
1.4534e+06
1.21615e+06
1.34977e+06
1.28824e+06
1.29504e+06
1.03159e+06
1.25038e+06
1.31795e+06
1.19908e+06
1.27264e+06
1.27141e+06
1.29655e+06
1.17996e+06
986905
1.01181e+06
1.00584e+06
919612
1.02605e+06
937754
967305
1.24211e+06
994720
1.01555e+06
1.1016e+06
1.12542e+06
1.18131e+06
1.03013e+06
1.08511e+06
1.10919e+06
823284
948181
855556
879184
871705
895483
808609
684557
708275
695282
640032
713835
656790
666650
928329
953264
985705
901522
965669
947751
883529
702884
938690
592587
672357
604473
624721
619657
640197
578563
779327
895290
839428
862918
793934
823384
846709
676843
623375
648841
589355
609326
564587
1.46073e+06
6838.69
8690.09
12399.6
10130.1
9025.14
7318.37
7281.02
1.52453e+06
20620.9
25819.9
15215
13459.6
11833
29825.5
20811
817470
874899
221.092
261.31
257.725
193.069
207.535
274.41
202.136
195.269
240.381
247.488
188.148
199.944
240.57
185.416
1.43649e+06
1.44212e+06
1.49979e+06
1.3654e+06
1.48082e+06
1.45773e+06
1.34401e+06
1.51367e+06
1.51316e+06
1.55306e+06
1.4023e+06
1.54774e+06
1.51103e+06
1.41942e+06
1.39026e+06
1.44292e+06
1.12495e+06
1.32061e+06
1.23309e+06
1.24277e+06
1.21734e+06
1.2313e+06
1.13452e+06
1.14123e+06
1.36739e+06
1.25082e+06
1.25305e+06
1.26332e+06
1.25814e+06
1.1413e+06
1.19265e+06
1.13179e+06
1.14699e+06
1.17103e+06
1.16988e+06
1.0667e+06
1.19075e+06
1.12668e+06
1.08538e+06
1.08631e+06
1.11081e+06
1.14908e+06
1.04806e+06
1.12838e+06
1.10643e+06
1.02952e+06
1.14639e+06
1.08917e+06
941582
1.09119e+06
985985
1.01041e+06
1.00245e+06
1.02692e+06
926757
897109
1.03727e+06
969530
993911
953145
977449
911907
776127
800599
827837
759562
808551
794775
742202
832435
857201
847239
777035
866730
813573
794579
792038
846514
663565
756720
712369
734386
696763
718548
677877
706673
808220
728072
750295
743809
766246
692269
500.257
389.722
344.909
495.978
387.26
667.591
424.853
293.591
470.747
749.872
784.789
572.172
1868.52
2669.82
2296.31
2966.55
1237.72
669.692
1416.28
2520.17
1460.34
1072.8
858.198
1342.43
183.015
231.092
222.902
177.999
71.6355
96.0468
66.8997
72.157
95.5655
66.2444
95.0922
1.377e+06
1090.36
742.352
963.269
757.64
1063.45
1840.01
2104.54
3052.88
2628.39
2042.78
2643.02
1820.26
1524.63
1378.23
2160.22
2182.24
1512.24
1.90207e+06
82418.1
167039
259574
36953
380207
50247.7
107087
155795
186445
72072.7
34279.8
97018
18833.1
82549.1
742245
952652
257.253
260.776
216.97
217.785
216.376
257.537
262.33
259.226
260.607
308.387
323.919
294.064
230.873
230.27
294.745
292.799
309.967
326.287
310.626
325.286
383.427
525.474
329.6
540.287
375.422
400.533
443.165
392.2
286.992
479.519
319.88
361.711
280.439
237.152
208.632
207.816
275.561
73.3752
96.5177
67.9816
72.8059
96.9405
186.374
233.935
229.387
180.797
227.677
187.09
180.338
73.9071
68.169
98.0146
74.8922
97.3658
262.601
272
267.608
266.536
220.574
218.935
262.29
263.052
259.996
265.957
221.741
225.344
695.336
584.915
679.551
552.163
790.228
917.962
758.854
1069.72
656.837
476.112
540.566
520.339
843.08
1038.21
1117.86
906.685
317.125
336.604
333.003
320.183
297.909
231.863
296.52
234.06
314.3
328.155
312.691
330.272
300.43
238.297
236.237
303.328
1.21259e+06
1.19253e+06
1.33664e+06
1.35488e+06
1.40536e+06
1.27731e+06
1.38354e+06
1.25763e+06
1.35863e+06
1.15049e+06
1.17049e+06
2674.05
3600.34
3220.96
4022.9
1964.43
1341.42
1747.63
1357.08
2366.66
3600.23
2404.36
3819.72
2051.53
1645.86
1474.92
1826.63
259531
484164
384296
371274
344928
344450
201233
178208
295428
285712
375037
374703
285560
234463
238987
244131
238929
279095
363860
278732
364973
1.52002e+06
1.87711e+06
1.14044e+06
602482
1.28246e+06
1.75638e+06
1.63672e+06
2.6094e+06
1.37063e+06
2.40496e+06
1.24768e+06
2.29104e+06
1.93716e+06
354766
2.334e+06
627215
1.31755e+06
1.58388e+06
804915
795780
1.07313e+06
1.25229e+06
1.16732e+06
1.18835e+06
1.15107e+06
1.17317e+06
1.08684e+06
776132
785770
246704
149004
257771
136170
280921
287739
319184
336313
215416
155031
132844
215296
280642
196116
199648
279386
343561
341308
274337
198760
275052
196046
350003
351673
817269
855887
1.18108e+06
1.33439e+06
1.20258e+06
1.21632e+06
1.17447e+06
1.27439e+06
1.12065e+06
1.03473e+06
910900
1.27449e+06
1.0515e+06
1.07194e+06
1.09122e+06
1.2294e+06
1.2522e+06
1.25394e+06
1.1419e+06
1.27517e+06
1.16086e+06
1.20865e+06
1.13024e+06
1.11055e+06
230447
290446
230757
288707
198810
202101
206159
202695
224462
278679
224175
280415
264687
341599
343196
264172
233697
229449
271420
354149
271926
352690
224485
228568
905972
887998
1.00663e+06
1.03147e+06
1.06673e+06
974252
1.04636e+06
955983
1.0264e+06
852420
870191
1.22299e+06
1.01351e+06
735544
745573
1.00082e+06
1.16332e+06
1.05202e+06
1.0764e+06
1.06855e+06
1.09282e+06
986075
765829
755913
233898
184318
232743
186598
273038
271430
279267
281002
227632
185182
228851
182942
262003
195182
192918
262582
332040
334475
268899
194721
268329
197125
325088
322656
643341
633160
838016
965910
904146
928168
887919
911815
852733
612738
622928
630665
614490
702633
726522
751361
690642
732539
673672
720808
582386
598281
212315
259202
260928
212054
198134
195014
191292
194226
218042
270577
218315
268838
782361
799732
908952
933890
925824
847723
945694
865581
889700
834782
817206
184145
216058
214404
184444
169861
171595
175318
173381
179266
206174
178946
207801
720536
920129
480978
470837
606691
689068
650271
671337
634942
655739
620813
450804
460911
218025
182463
180362
219304
263830
265339
223995
181637
222735
183819
257883
256462
571979
582171
764712
877763
791401
814392
807356
830530
750165
602528
592338
197677
173562
175037
196618
217527
216401
192639
173279
193595
171971
222640
223785
566459
303.14
380.188
375.655
323.442
269.122
242.702
258.99
318.248
318.501
295.526
324.215
285.515
564.239
420.652
548.909
457.911
775.678
976.571
961.596
851.407
720.579
851.052
630.638
870.476
608.202
521.349
484.727
622.111
361.577
412.665
345.522
424.022
373.581
347.241
336.448
382.98
356.065
314.769
348.386
322.583
378.574
460.834
448.78
397.085
3118.01
3174.12
2633.98
3296.73
1820.75
1719.48
1557.62
1852.77
1599.64
1209.64
1567.12
1422.19
3468.45
3992.95
3833.53
3823.83
6558.92
5285.97
4389.71
5945.42
7873
11604.2
5512.81
3303.95
10330.3
12891.7
11933.4
13488.8
7814.58
6141.1
7279.89
7283.07
18977.7
24145.8
20940.1
21431.9
9329.76
9077.35
8211.88
10016.6
16537
15782.3
14106.7
18026.2
1.43719e+06
5308.63
6261.97
3995.92
3651.66
3597.38
6293.94
5325.84
5743.63
8079.6
5583.45
7511.62
5998.56
4322.93
3064.6
4031.09
3043.32
4345.48
1.61665e+06
30654
38536.9
98414.2
37139.2
48779.1
45429.6
31390.7
14021.1
11426
16061.4
10511.3
16234.7
22411.7
27490.6
22567
18866.6
23869.6
798505
894226
279.722
277.011
290.207
298.256
295.665
292.869
290.624
296.275
279.178
279.006
276.77
281.403
316.811
329.32
309.879
307.017
304.18
312.552
310.035
304.503
317.254
332.068
330.563
319.416
240.339
277.342
335.542
243.354
271.999
298.241
217.032
109.434
112.887
92.6293
96.303
122.666
129.456
166.027
108.511
161.332
138.986
192.201
238.361
231.952
181.836
188.881
235.835
183.545
82.8826
107.076
73.7262
88.5351
103.306
79.0481
99.0861
71.13
76.4227
100.774
275.817
272.066
267.231
280.61
232.623
244.931
274.432
295.524
290.477
280.799
232.61
226.163
286.17
289.218
282.959
292.769
297.184
298.75
293.223
302.746
285.692
279.52
282.871
281.955
297.281
310.116
304.159
303.521
302.923
288.783
298.768
292.728
315.816
342.766
335.336
323.721
303.44
315.861
321.006
298.527
315.18
311.083
304.11
321.658
665.151
591.723
691.146
579.677
927.628
1017.79
888.811
1030.36
658.382
543.391
646.265
568.411
933.896
1068.44
929.868
1022.42
422.577
502.276
494.508
445.972
375.525
283.193
297.01
345.213
398.654
371.611
464.297
343.867
399.636
385.11
414.197
365.847
436.863
511.172
493.699
449.963
402.101
358.804
394.552
368.514
426.815
476.054
411.85
485.871
408.952
390.209
421.903
377.036
325.496
342.433
338.325
330.086
316.539
307.498
313.375
311.226
323.441
333.602
336.017
320.577
318.252
318.191
312.126
323.444
331.491
341.571
324.989
347.955
320.235
262.609
255.892
333.768
313.327
242.492
307.502
247.055
339.084
370.359
354.082
356.448
342.334
346.989
333.984
354.224
341.012
352.784
333.703
359.166
335.904
320.007
330.238
326.503
348.869
377.503
365.636
361.93
1.01933e+06
1.1457e+06
1.12535e+06
1.0377e+06
924157
801878
816081
908407
941854
845147
957597
831032
1.00107e+06
1.08547e+06
1.10509e+06
983056
1.23898e+06
1.2565e+06
1.40571e+06
1.41737e+06
1.42941e+06
1.29857e+06
1.38328e+06
1.45105e+06
1.31892e+06
1.29996e+06
1.29172e+06
1.07558e+06
1.16883e+06
1.05841e+06
1.18887e+06
1.0117e+06
897668
889126
1.02209e+06
991545
861430
977404
873857
1.09796e+06
1.232e+06
1.21467e+06
1.11181e+06
3965.11
4209.96
3623.77
4083.89
1965.56
1796.7
1942.26
1846.49
4064.63
4216.86
4019.19
4345.92
1891.07
1749.53
1969.17
1825.84
9140.3
6955.19
5007.64
8852.38
5900.93
19274
6883.16
19448.3
8278.93
4264.95
4047.97
7881.88
8312.19
22387.2
15155.4
20840.5
10766.1
8360.78
9507.07
11007.7
23078
26200.2
22712.8
28300.2
11347.4
9655.37
10792
9742.46
22843.6
28414.6
19661.7
27543.6
61789.7
103858
80898.5
70037.5
24040
19958.9
27944.4
28752.7
25275
30959.2
56085.9
114663
268040
314047
225758
365710
232940
245500
227213
178002
283622
392364
382025
290737
552007
577193
540762
435173
743585
613473
641657
1.03088e+06
854564
850721
769018
774487
567048
398416
443461
509771
683599
821915
690323
812547
589397
473811
467563
599513
654695
721805
601813
785583
99547
114699
85958.2
138663
55384.9
51513
46671.6
63705.6
46063.8
34519
40270.4
38617.3
118617
181132
156915
129690
557106
452477
447701
562982
625822
724594
735992
615863
637274
761563
750603
646841
545432
433933
439252
538854
290396
384625
291610
383294
249737
240491
241966
248348
294075
386335
290184
390867
578866
460649
575022
463950
676045
805372
800608
680280
666516
777296
786174
658690
588948
469692
589094
469476
1.28227e+06
1.43883e+06
1.63778e+06
1.5958e+06
1.53664e+06
1.41817e+06
1.50528e+06
1.70763e+06
1.46521e+06
1.36175e+06
1.32217e+06
34634.6
244172
209510
106225
64834.7
18510.2
52618.6
15538.1
81540.3
326443
338835
92109
58480.7
40059.4
17515.1
65878.8
1.09498e+06
1.6415e+06
1.33342e+06
1.29566e+06
1.44005e+06
1.22186e+06
1.01316e+06
1.14278e+06
1.007e+06
859504
1.33331e+06
1.09494e+06
1.12153e+06
1.21904e+06
1.26231e+06
1.05239e+06
1.04165e+06
915689
1.04683e+06
909651
1.13914e+06
1.26923e+06
1.14194e+06
1.26535e+06
1.01371e+06
816952
879876
948639
165732
282988
149904
250638
77771.4
56795
58873.2
70899.7
79184.6
52802.4
60050.9
82247.9
154865
201619
148228
227685
1.37113e+06
1.48119e+06
585089
707838
699646
591097
494070
381483
383255
488072
498007
388703
503606
387562
578692
683144
691794
572190
814450
821769
1.11303e+06
1.30312e+06
1.18404e+06
1.2035e+06
1.10049e+06
1.20012e+06
1.21741e+06
832172
828533
601014
715129
596846
721622
510095
388480
392018
511658
510773
392383
506755
391745
603166
728427
725152
604385
277933
162375
272520
173641
356441
360608
277125
184316
175840
282392
355229
348261
90511.7
72517.1
76860.3
57914.6
211472
392928
324178
286764
166969
260567
141013
289020
148501
149933
102791
208071
90990.7
92160.6
110827
58397.3
175977
298980
193062
289406
116742
132130
115084
133392
154329
248713
130946
262946
170223
154787
163206
165160
215285
306451
307879
219513
218570
310334
309463
213376
169584
165593
158340
173577
282535
198636
284662
193996
361728
360030
286375
187266
282215
194811
357792
357179
157608
158458
164529
148315
207830
304246
307620
197001
208704
311076
310408
215772
153496
135558
142198
149769
799619
809268
1.12636e+06
1.37893e+06
1.25381e+06
1.24218e+06
1.11779e+06
1.26214e+06
1.24862e+06
834453
825728
611760
708560
744199
584203
533994
493477
408616
615020
512443
354406
379826
482173
634052
879605
776469
736134
573841
687917
696381
562146
502919
386911
508713
376041
597342
728810
604157
722450
475658
337393
352776
466127
1.21306e+06
1.11162e+06
931941
1.01062e+06
1.02915e+06
914787
876179
787546
891738
773525
948310
1.06642e+06
1.04739e+06
965906
860344
746050
845050
759761
1.0531e+06
1.03415e+06
1.16745e+06
1.19124e+06
1.23278e+06
1.12297e+06
1.18796e+06
1.21174e+06
1.10416e+06
996953
1.01561e+06
882031
992842
898846
974661
799685
692794
706005
784786
814637
732627
829713
719180
866408
939306
957207
849865
237202
298925
236862
300651
214597
210842
243430
311039
309326
243810
206702
210312
416515
344130
339202
423183
464148
533883
544623
455242
474335
567367
483387
556533
406628
326435
331267
400007
439971
352156
357194
433254
513278
613670
522601
602655
450210
370445
365316
456972
502867
579450
493688
590374
509415
405949
411372
502548
594562
710564
604531
699092
520540
425329
419878
527368
583547
674305
685654
573732
257076
332321
257548
330653
215169
219040
250588
319898
250167
321592
223689
219704
484832
397536
491678
392203
542605
626167
637280
533130
553260
661255
650022
562902
474209
378657
467401
383893
923924
942113
1.06624e+06
1.09087e+06
1.0872e+06
992616
1.04629e+06
1.10775e+06
1.01103e+06
978649
960238
755869
853158
835884
771788
683622
590679
603190
669230
697612
628422
615755
712123
740977
802148
819238
725240
802940
869970
887431
786838
755364
679802
770120
666789
818154
922100
834460
904435
740952
641116
653952
726323
1.16553e+06
1.07018e+06
551809
648782
657671
545075
477482
376732
483576
374698
558678
674858
666017
565383
472823
367798
466801
369905
725165
715070
956441
1.10922e+06
1.03546e+06
1.05991e+06
971244
1.01896e+06
1.04343e+06
694585
704717
531430
640362
538167
631464
451201
353855
356019
445336
456066
362964
462011
360825
524518
614142
623037
517790
238093
188077
239154
185790
295764
297775
244645
187380
189669
243697
289242
287375
182742
165651
170890
180161
211590
273320
274898
214024
215219
279280
212577
277734
180853
171324
166329
183283
179284
170374
164900
182011
217140
287829
214140
286296
181107
164115
169798
178250
213423
282059
216245
283589
174190
167833
161506
177443
219503
304271
215741
302664
175771
160269
166952
172261
215633
298682
300305
219139
256378
190985
255694
193235
306614
304448
249571
191380
250384
189117
313420
315743
178833
162454
175733
168537
214748
290469
292022
217914
218583
296180
294593
215259
177065
169183
180045
163298
653620
663788
882285
1.01937e+06
920450
944576
867517
936767
960996
684243
674092
476871
571044
562162
483618
407968
325646
328018
402278
413087
335084
332776
418802
469973
544850
553729
463209
497253
579486
588372
490516
434607
349066
440406
346868
504156
605695
510883
596810
429608
339852
342096
423856
647115
663560
757557
781920
770304
707733
739137
789364
724912
696947
680254
521302
592618
577023
535559
468463
402533
413458
455460
480670
435790
493895
424629
507946
546736
562058
493955
563656
607834
623678
549153
532512
481770
546147
470173
577471
655237
639147
592218
519804
447184
506361
458568
374204
301568
306183
367728
436393
522169
445163
511520
383742
318614
313894
390285
426443
489460
417825
499991
206202
251498
206455
249775
184022
186571
190380
187630
200743
240582
242282
200492
351989
293985
358375
289494
389872
446305
456576
381575
399538
478128
408008
467716
342839
277666
282042
336542
765070
747908
851442
876255
906033
829923
870504
886345
812224
713855
730789
680376
735767
752485
665009
641171
578256
655436
565914
694948
785687
768773
710506
627584
541452
553626
613451
635431
719672
703141
650602
572916
493558
559099
505365
621206
670923
606248
687233
586085
529325
517335
600063
292158
247883
243898
298099
320797
364549
374135
313241
329752
394146
384359
337507
283879
233228
237093
278064
189744
222891
189469
224553
182805
180452
176908
179055
194913
233302
195174
231615
312678
254860
306613
258983
363936
435388
425259
372059
354599
404607
414560
346661
321413
270368
327591
266126
774034
864823
490960
501122
649257
739691
665709
687019
635027
681191
702754
521315
511140
366919
432684
423841
373854
319594
265118
268255
313888
325144
276104
330840
273070
360034
406629
415458
353070
387664
441091
449950
380748
347485
291457
353159
288629
394562
467219
458360
401445
342025
280910
336345
283839
181638
171826
167371
183718
212664
270401
210437
268789
183612
166915
171642
181359
209103
264126
211107
265796
214758
179091
213485
181095
243637
242364
209091
179686
177793
210337
249307
250653
183581
167688
181694
171848
205831
254381
256187
207379
209355
261056
207571
259325
181500
171700
167831
183199
561840
551654
721146
825519
775470
798288
735616
759629
782252
531377
541558
442632
510230
519105
435822
391428
320884
397104
318431
449529
536407
527536
456311
386190
311138
313673
380527
422097
501798
492932
428930
364223
296243
358557
298962
415202
475643
408339
484509
369573
306366
303736
375237
180462
167104
170048
179383
196616
232975
235138
197203
200099
240634
238576
199269
178142
169066
166435
179010
200677
176674
201812
175054
235606
236829
206029
176459
204830
178222
230215
229034
180355
170809
181642
167553
205187
251158
249279
203877
201689
244008
245983
202757
182553
167795
181062
171356
391589
443532
532050
480852
1.23622e+06
1.1257e+06
1.05221e+06
1.14807e+06
1.14378e+06
1.21567e+06
1.16801e+06
1.25813e+06
1.20974e+06
1.06912e+06
1.18121e+06
1.16257e+06
1.18893e+06
1.27935e+06
1.25493e+06
1.42175e+06
1.18635e+06
924112
1.07757e+06
1.66461e+06
1.19843e+06
943518
1.02667e+06
963821
838781
1.04191e+06
930957
849746
956058
871600
978559
1.07266e+06
1.05736e+06
860989
968191
1.07428e+06
973261
934052
979653
1.0786e+06
941804
1.12602e+06
1.04212e+06
877812
1.09231e+06
958371
1.08047e+06
989193
912274
1.17488e+06
1.10757e+06
1.12835e+06
1.00205e+06
1.19494e+06
1.08982e+06
1.10899e+06
1.1548e+06
1.07102e+06
986037
1.0545e+06
1.07205e+06
1.08996e+06
1.13508e+06
925114
849365
797223
854190
866066
906634
871791
943778
907162
899707
812538
882886
962424
889388
905373
1.01134e+06
827255
921261
918157
996141
816106
892466
793300
906991
965729
980890
804514
879580
737398
786145
740913
656431
800866
724575
667590
750272
690310
830486
754474
815688
763131
679127
640169
591891
560425
586344
607299
623370
602255
657196
634435
638454
574698
622850
674250
618269
869835
832675
836763
751458
888137
816112
819336
851518
784828
783122
736347
799558
833385
802075
535203
556978
529302
477661
570812
522869
488503
547605
510550
598754
541913
584784
560025
499645
698965
771403
644921
700203
711746
756775
633791
686181
611224
727583
686851
742124
673450
622326
576553
570601
606612
543162
1.35658e+06
1.2668e+06
1.30391e+06
1.14535e+06
1.28308e+06
1.37681e+06
1.24526e+06
1.32569e+06
1.2334e+06
1.20161e+06
1.12426e+06
1.30409e+06
1.25474e+06
1.22134e+06
1.43111e+06
1.29784e+06
1.34495e+06
1.20537e+06
1.42642e+06
1.34931e+06
1.31689e+06
1.51599e+06
1.34012e+06
1.30187e+06
1.2e+06
1.45667e+06
1.38847e+06
1.333e+06
1.00157e+06
1.13587e+06
1.03879e+06
906396
1.12042e+06
900218
1.00951e+06
991379
882416
1.08854e+06
1.02257e+06
980332
1.10405e+06
891809
1.01239e+06
1.15104e+06
1.076e+06
910125
1.16194e+06
1.01461e+06
906446
998454
873806
1.1381e+06
1.07068e+06
988165
1.1554e+06
889887
1.07653e+06
984992
997071
921923
1.01544e+06
1.05731e+06
1.00222e+06
1.09595e+06
1.0524e+06
1.03696e+06
937631
1.11538e+06
1.03378e+06
1.01959e+06
1.0191e+06
967772
978955
874566
1.03811e+06
960807
950693
1.00009e+06
924917
916658
859066
981260
942875
933612
840704
905268
850964
747546
920305
758782
827768
853684
781655
950531
864964
866613
935432
770418
801882
890210
809390
735914
875255
814802
724695
788937
701889
845393
795617
776043
860274
713092
726351
701907
700228
632396
683589
743875
685937
708834
650689
654204
617794
691529
667101
670004
779365
718014
716928
676492
761617
733785
734155
797309
767749
766707
691375
815250
750689
750421
597556
655429
593817
554989
641206
543992
610119
585002
521765
612864
580929
572506
626971
532720
635358
669782
633492
566318
684123
622734
577352
648038
599796
713021
646623
660716
698583
588728
)
;

boundaryField
{
    left
    {
        type            calculated;
        value           nonuniform List<scalar> 
290
(
230.99
1.11948e+06
1233.77
834.686
231.268
273.686
882.748
272.123
1.69416e+06
239045
1.27578e+06
1714.82
1.15015e+06
111637
342.148
546.006
801.313
7558.1
2126.8
20718.8
16301.2
241.742
238.437
312.79
328.604
288.713
351.115
334.263
612.55
366.825
309.045
331.976
310.474
331010
499897
16095.2
9094.42
897.644
441078
30478.1
48666.6
4549.89
25973.8
308546
336.297
409.493
574.517
936.497
730.278
45.9474
62545.6
56696.6
705.487
2146.78
3524.34
359.519
167.311
486.559
46.194
46.4454
233.185
268.964
271.673
276.164
353.712
350.833
806.997
542.092
515.73
348.858
267.103
143676
767588
3452.98
2445.28
1382.5
781173
629629
520156
27108.3
140171
85798.1
289.094
304.586
369.139
339.767
317.957
486.61
385.078
425.468
1359.64
1191.54
710.465
5786.01
2583.39
3112.51
1288.14
1836.48
3851.48
12660.1
34800.9
104611
5417.18
3099.81
8757.44
62.6356
122.409
299.784
233.476
47.0587
56.2577
316.254
295.612
292.34
306.596
300.051
321.094
275.372
280.618
366.832
358.357
280.361
342.563
358.918
367.835
350.752
353.891
337.497
468.945
515.096
706.643
385.36
424.665
399.357
364.824
428.975
384.774
348.541
290.155
191082
704070
9540.7
5128.47
7795.92
3456.49
3725.39
9496.34
1082.62
1755.58
1504.22
542812
664509
579108
30380.9
86803.3
70966.9
87815.7
77810.6
30380.8
11955.7
20746.8
35216.9
53832.3
36254.5
19346.4
184917
274049
409233
231.019
197.962
197.504
586488
565652
959895
994.237
1418.04
1681.03
621.767
491.576
686.389
197.741
198.565
232.199
1.786e+06
1.47308e+06
1.03732e+06
16317.2
23173.2
28379.3
12133.5
8896.14
12632.9
200.702
205.803
251.78
235.619
199.18
199.35
198.064
230.935
42.355
92.8869
92.3957
92.8502
43.4294
94746.6
200697
195394
147133
131552
47628
353305
1024.59
1191.05
821.295
2480.41
1732.3
1487.23
2582.63
2082.61
2957.18
281.867
359.935
450.746
234.772
269.584
192.986
562.534
388.41
336.392
44.2761
93.0616
92.5242
92.5371
93.1065
44.0054
232.625
198.975
198.732
257747
214590
337285
1.39783e+06
18293.2
19479
13010.3
34036.6
29605.5
26802.5
58709.9
33653.6
66362.9
4304.13
6104.08
7334.67
4446.21
5075.8
3541.84
9932.38
7122.57
6276.04
72.6319
103.186
96.3494
145.104
117.492
91.1988
268.01
215.939
238.16
198.818
199.412
235.098
46.7775
92.947
92.488
93.7207
93.0872
49.9106
389421
492358
228986
288688
887035
1.04741e+06
619261
737809
898983
1.2493e+06
996176
)
;
    }
    bottom
    {
        type            calculated;
        value           nonuniform List<scalar> 0();
    }
    interface
    {
        type            calculated;
        value           nonuniform List<scalar> 
2123
(
1.33813e+06
706271
993460
1.28125e+06
1.27707e+06
1.31756e+06
1.01326e+06
1.26227e+06
976925
686016
958230
687933
668550
1.48032e+06
1.51528e+06
837739
856916
1.40646e+06
1.42942e+06
1.1741e+06
1.15377e+06
1.12834e+06
1.10925e+06
810920
829099
45.5951
1.39919e+06
637.552
1901.52
1.50269e+06
1.5002e+06
42217
761980
934481
444.151
157.054
45.8384
46.5917
1.33682e+06
1.32521e+06
1.25592e+06
1.07309e+06
1.20496e+06
1.03333e+06
739011
902510
1.42018e+06
7216.24
2713.55
1.62053e+06
10547.5
25842.3
780765
914969
61.7227
116.389
55.6708
47.3373
1.35528e+06
1.50189e+06
1.23539e+06
1.09316e+06
1.18578e+06
1.05225e+06
756864
884053
163.429
263.289
263.315
162.847
1.35853e+06
1316.92
1092.78
920.705
1536.49
474207
704990
454692
1.0749e+06
808355
724727
973737
507.953
833.25
686.931
638.87
166.188
264.14
163.798
266.488
1.31729e+06
1.34241e+06
1.3641e+06
1.29583e+06
1.29999e+06
1.45495e+06
1.05874e+06
1.14158e+06
1.15743e+06
1.04449e+06
1.22211e+06
1.30379e+06
1.29704e+06
1.03314e+06
1.25322e+06
1.32069e+06
1.2743e+06
989010
969352
1.24324e+06
995680
1.0154e+06
1.12545e+06
1.02997e+06
823317
808648
685867
715085
667909
930273
987601
967515
949748
703589
939603
592746
578724
779386
793988
846889
650060
564756
1.46279e+06
6625.36
12573.5
8522.82
6934.38
1.52747e+06
20201.2
13394.7
10868.7
27238.2
818653
876183
210.669
300.041
194.257
317.125
179.143
289.121
184.91
282.024
1.44015e+06
1.46009e+06
1.5137e+06
1.55163e+06
1.51621e+06
1.3912e+06
1.44388e+06
1.12434e+06
1.23098e+06
1.13399e+06
1.14021e+06
1.13995e+06
1.19448e+06
1.13351e+06
1.14954e+06
1.12917e+06
1.08868e+06
1.13062e+06
1.10886e+06
1.14747e+06
1.09021e+06
941521
1.02702e+06
926703
897081
911872
777668
796366
834128
815211
792825