/*--------------------------------*- C++ -*----------------------------------*\
| =========                 |                                                 |
| \\      /  F ield         | OpenFOAM: The Open Source CFD Toolbox           |
|  \\    /   O peration     | Version:  2012                                  |
|   \\  /    A nd           | Website:  www.openfoam.com                      |
|    \\/     M anipulation  |                                                 |
\*---------------------------------------------------------------------------*/
FoamFile
{
    version     2.0;
    format      ascii;
    class       volScalarField;
    location    "0.105/solid";
    object      sigmaDiff;
}
// * * * * * * * * * * * * * * * * * * * * * * * * * * * * * * * * * * * * * //

dimensions      [1 -1 -2 0 0 0 0];


internalField   nonuniform List<scalar> 
3125
(
-238.923
-1.34122e+06
-1212.1
-1.04191e+06
-706709
-994845
-286.65
-894.31
-239.457
-855.443
-289.236
-1.31514e+06
-1484.34
-113073
-255234
-747992
-1.29131e+06
-1.3602e+06
-1.2242e+06
-261085
-325293
-1.39684e+06
-1.3205e+06
-1.01473e+06
-1.29452e+06
-229686
-251107
-993086
-1.27207e+06
-983534
-1.20617e+06
-274534
-318492
-935424
-690770
-227096
-973548
-206300
-689858
-964649
-658888
-269092
-917667
-232576
-688315
-672754
-672233
-642256
-678.775
-365.215
-1009.25
-2341.01
-8176.97
-1.48554e+06
-14628.8
-1.52244e+06
-18696.9
-838562
-857802
-308.453
-327.897
-265.847
-258.29
-311.86
-340.012
-756.319
-348.573
-390.752
-331.418
-317.244
-362.23
-751626
-1.46562e+06
-837386
-1131.93
-12123.9
-9366.29
-4308.04
-252556
-373676
-643749
-13341.4
-562715
-260243
-623089
-1.50398e+06
-30078.5
-539738
-869152
-18010.1
-1.41905e+06
-1.4442e+06
-560284
-1.34364e+06
-592979
-330045
-323339
-385122
-382658
-334494
-393188
-1.36214e+06
-528565
-596669
-1.17626e+06
-1.15583e+06
-726194
-1.15199e+06
-654098
-237590
-432291
-479746
-545720
-240492
-495934
-1.13188e+06
-564972
-631165
-1.13655e+06
-1.11725e+06
-546024
-1.07913e+06
-502907
-291853
-321501
-344140
-375188
-298107
-351794
-1.06101e+06
-447086
-488801
-820078
-399581
-459568
-416814
-218898
-371470
-838961
-543421
-480153
-314005
-215953
-356757
-815896
-834245
-777703
-338554
-378813
-313987
-253265
-291356
-794986
-433322
-392360
-260784
-248080
-283761
-510.659
-395.406
-730.273
-792.417
-1202.99
-71.0546
-1.40286e+06
-739.887
-3498.8
-2175.68
-1.51078e+06
-69530.2
-50781.7
-762567
-935646
-264.557
-343.119
-521.92
-405.746
-201.171
-71.3786
-243.495
-72.7267
-267.156
-271.319
-903.359
-553.609
-610.307
-346.31
-293.741
-351.501
-1.0362e+06
-1.3772e+06
-1.08797e+06
-1465.66
-2856.38
-2773.76
-90807.9
-170218
-75759.8
-149722
-51879.1
-261714
-259048
-265120
-1.5875e+06
-392274
-798140
-1.13519e+06
-261721
-1.34773e+06
-1.35055e+06
-954496
-1.27712e+06
-997005
-312053
-98185.7
-121896
-214786
-331147
-214204
-1.34021e+06
-908582
-1.04838e+06
-1.25849e+06
-1.0748e+06
-1.01975e+06
-1.2331e+06
-970679
-232262
-229836
-233532
-257551
-247207
-253247
-1.05215e+06
-782932
-829197
-1.21405e+06
-1.04053e+06
-939655
-1.1518e+06
-897582
-280112
-208047
-208858
-214184
-311505
-213220
-988974
-730940
-771605
-745536
-547617
-590360
-226155
-224451
-222473
-915385
-767903
-722370
-199768
-209657
-203665
-743323
-908373
-709318
-519282
-557476
-207165
-263751
-206178
-864745
-716917
-676762
-196956
-237748
-198952
-533823
-506244
-305.682
-337.162
-601.549
-498.578
-451.568
-339.072
-411.569
-378.265
-885.479
-1834
-1558.97
-1354.35
-4672.16
-1948.01
-2988.36
-6700.06
-2564.28
-1.42419e+06
-4821.23
-8421.18
-3105.07
-1.61372e+06
-75985.4
-12267.3
-32091
-781405
-916056
-289.644
-345.417
-347.605
-93.5507
-155.94
-244.846
-85.6779
-73.9258
-288.063
-277.743
-292.717
-317.355
-297.665
-317.465
-325.843
-305.19
-839.146
-545.636
-590.603
-414.134
-409.336
-474.775
-444.046
-411.727
-471.98
-348.895
-336.942
-354.379
-301.77
-377.284
-360.578
-346.175
-380.77
-363.835
-952569
-778395
-986066
-1.39896e+06
-1.17569e+06
-1.10679e+06
-807046
-1.06407e+06
-1.02266e+06
-1286.72
-2073.26
-2360.56
-5589.5
-12255.5
-4864.22
-3428.6
-10439.5
-3977.26
-31026.6
-7813.72
-39099.5
-229796
-254368
-219841
-216033
-480346
-190770
-296195
-119027
-424510
-576194
-371788
-10507.8
-71076.9
-54779.1
-390318
-582263
-399257
-261547
-263655
-266654
-602835
-413611
-406266
-1.5587e+06
-1.20253e+06
-1.22415e+06
-130258
-23930.3
-107551
-702789
-682792
-256857
-929993
-289377
-1.10958e+06
-797177
-1.05916e+06
-22934.5
-84975.8
-93975
-1.3666e+06
-1.53857e+06
-756952
-573954
-777721
-1.29467e+06
-1.05981e+06
-1.01264e+06
-585262
-813756
-797052
-328926
-186897
-160429
-135633
-325931
-127785
-214752
-360005
-176986
-241965
-389261
-241951
-334801
-202950
-211228
-393423
-231314
-239390
-1.39874e+06
-1.07898e+06
-1.06822e+06
-774857
-544009
-791839
-831265
-578052
-807334
-1.23785e+06
-1.09496e+06
-920686
-701583
-889761
-1.21273e+06
-906980
-954832
-677590
-829675
-859479
-234874
-241072
-237267
-312533
-447937
-321878
-340926
-463752
-331339
-380558
-528946
-370519
-243671
-244983
-249037
-512339
-350649
-360522
-1.07198e+06
-891460
-844470
-714022
-586752
-742458
-800266
-608782
-771201
-1.19464e+06
-1.05964e+06
-735882
-531541
-714782
-1.13361e+06
-841355
-882975
-517158
-673005
-693817
-285870
-210425
-209636
-228082
-329019
-230013
-233681
-336557
-231868
-240763
-367366
-239092
-304664
-211270
-212205
-359542
-235481
-237291
-1.00693e+06
-826953
-785813
-591055
-460912
-611375
-652336
-474811
-631801
-764012
-648348
-604548
-498219
-419262
-523954
-576571
-439265
-550079
-303302
-401512
-294184
-221727
-215056
-218776
-386393
-276303
-285182
-896153
-662858
-707590
-685901
-522094
-658088
-603414
-501000
-630593
-242085
-328013
-250441
-212876
-211303
-207509
-342267
-267551
-258930
-761333
-889733
-726304
-609758
-570808
-432324
-351904
-451723
-490958
-365326
-471273
-226051
-306463
-223899
-258482
-203793
-205060
-298921
-219172
-221610
-847207
-623349
-662940
-570828
-419615
-550704
-510762
-405961
-530678
-207755
-268475
-210870
-242911
-202362
-200751
-276135
-216575
-213809
-190.639
-234.013
-238.721
-181.296
-233.553
-190.651
-181.176
-1.36179e+06
-1462.44
-1035.56
-1194.92
-1722.48
-1035.26
-1657.16
-1477.48
-540539
-1.51786e+06
-514226
-792205
-651837
-1.11551e+06
-371911
-725208
-975049
-582.76
-751.227
-906.328
-654.181
-778.609
-692.906
-547.671
-193.486
-235.152
-181.87
-241.027
-191.578
-237.328
-182.927
-1.32033e+06
-1.34423e+06
-1.22143e+06
-1.33571e+06
-1.36589e+06
-1.24086e+06
-1.29885e+06
-1.31031e+06
-1.50114e+06
-1.06268e+06
-1.11925e+06
-1.14991e+06
-1.24202e+06
-1.13573e+06
-1.16593e+06
-1.04831e+06
-1.28016e+06
-1.51723e+06
-1.18469e+06
-1.55611e+06
-1.2935e+06
-1.38536e+06
-1.38514e+06
-1.29985e+06
-1.03468e+06
-1.25624e+06
-1.32257e+06
-1.202e+06
-1.27402e+06
-1.27735e+06
-1.30112e+06
-1.1828e+06
-991605
-1.0127e+06
-1.00965e+06
-921570
-1.02993e+06
-939771
-971905
-1.2528e+06
-1.00248e+06
-1.01906e+06
-1.10264e+06
-1.13362e+06
-1.18811e+06
-1.03372e+06
-1.08609e+06
-1.11723e+06
-826340
-953227
-856224
-885326
-872379
-901756
-811634
-687829
-708907
-698074
-641196
-716703
-658006
-669834
-932740
-954090
-989462
-903429
-969353
-952266
-885378
-707581
-945835
-595321
-675611
-605086
-628937
-620265
-644525
-581268
-782310
-899976
-840084
-868936
-796947
-824034
-852595
-679584
-624497
-651953
-589966
-613426
-567277
-1.46776e+06
-7009.3
-9699.96
-13249.7
-11456.1
-9970.64
-7621.39
-8180.93
-1.53567e+06
-21888.4
-26619.9
-16957.4
-15120.6
-12204.1
-30718.9
-22972.1
-819414
-877135
-247.042
-283.433
-283.937
-204.533
-228.081
-306.97
-217.98
-208.993
-251.342
-269.019
-196.823
-216.676
-258.47
-192.035
-1.44116e+06
-1.44468e+06
-1.50494e+06
-1.37099e+06
-1.48424e+06
-1.46237e+06
-1.34824e+06
-1.5172e+06
-1.52123e+06
-1.55561e+06
-1.40915e+06
-1.55578e+06
-1.51255e+06
-1.43087e+06
-1.40355e+06
-1.45839e+06
-1.12849e+06
-1.3286e+06
-1.23386e+06
-1.25204e+06
-1.21802e+06
-1.2405e+06
-1.13782e+06
-1.14392e+06
-1.37399e+06
-1.25354e+06
-1.26289e+06
-1.26963e+06
-1.26699e+06
-1.14326e+06
-1.19673e+06
-1.13548e+06
-1.15243e+06
-1.17217e+06
-1.17417e+06
-1.06912e+06
-1.19511e+06
-1.13203e+06
-1.08787e+06
-1.09147e+06
-1.11185e+06
-1.15332e+06
-1.05043e+06
-1.13255e+06
-1.11169e+06
-1.03183e+06
-1.15589e+06
-1.098e+06
-944862
-1.09727e+06
-986766
-1.01761e+06
-1.00325e+06
-1.03425e+06
-929993
-900283
-1.04295e+06
-970288
-1.00097e+06
-953889
-984371
-915121
-779817
-801290
-831088
-761061
-811728
-798564
-743647
-836401
-857936
-850543
-778578
-870108
-817442
-796174
-797626
-852674
-666392
-760500
-712981
-739417
-697378
-723454
-680730
-709563
-812329
-728691
-755443
-744427
-771517
-695133
-562.065
-449.203
-394.308
-556.382
-445.249
-765.288
-481.169
-336.178
-540.952
-852.742
-893.537
-649.052
-2054.33
-3040.48
-2416.38
-3374.16
-1422.3
-749.56
-1586.92
-2888.42
-1666.62
-1148.37
-953.129
-1532.28
-190.424
-238.481
-232.972
-180.853
-80.8804
-102.072
-69.7307
-81.5671
-101.537
-69.0354
-101.042
-1.38259e+06
-1154.86
-841.076
-1062
-805.043
-1200.43
-1963.78
-2391.9
-3244.89
-2976.06
-2180.02
-2837.61
-2065.98
-1598.45
-1516.15
-2429.37
-2306.44
-1701.13
-1.97929e+06
-93825.2
-183377
-291641
-41531.4
-436247
-57973.3
-121308
-179041
-205191
-83042
-39580.8
-109039
-19422.3
-92045.5
-743831
-955300
-261.781
-268.049
-226.146
-226.988
-225.416
-262.215
-269.895
-263.959
-268.111
-327.365
-343.434
-310.927
-246.34
-245.401
-311.95
-309.369
-329.33
-346.517
-330.24
-345.259
-417.298
-598.736
-370.673
-581.795
-430.198
-460.053
-510.677
-452.871
-328.033
-551.85
-369.357
-417.097
-310.259
-269.393
-240.906
-233.547
-317.47
-82.8856
-102.561
-70.8123
-82.3015
-103.007
-195.062
-241.95
-242.003
-184.701
-239.323
-196.547
-183.837
-83.5426
-71.1229
-104.369
-84.8387
-103.535
-268.618
-281.452
-274.092
-275.653
-230.209
-228.372
-267.628
-271.146
-265.134
-274.205
-231.744
-235.633
-801.505
-673.837
-779.633
-636.34
-886.446
-1014.42
-860.269
-1229.01
-758.449
-549.106
-617.562
-599.943
-944.642
-1195.5
-1290.78
-1012.81
-339.267
-360.383
-356.002
-343.196
-316.302
-247.767
-314.284
-250.415
-335.198
-349.101
-332.977
-351.846
-319.841
-256.451
-253.466
-323.803
-1.21946e+06
-1.19912e+06
-1.34264e+06
-1.35658e+06
-1.40997e+06
-1.28061e+06
-1.38807e+06
-1.26079e+06
-1.36466e+06
-1.15721e+06
-1.17714e+06
-2826.55
-4132.42
-3299.22
-4644.66
-2239.45
-1484.59
-1857.44
-1458.62
-2459.87
-3776.92
-2589.55
-4324.47
-2368.4
-1753.01
-1589.6
-2100.88
-291693
-515965
-416077
-396885
-364710
-382097
-220015
-201837
-317102
-307379
-382833
-385149
-305478
-260115
-266007
-271119
-264307
-299855
-375192
-300799
-374331
-1.7082e+06
-1.9589e+06
-1.24593e+06
-695436
-1.39846e+06
-1.7874e+06
-1.69515e+06
-2.62481e+06
-1.42666e+06
-2.54573e+06
-1.33321e+06
-2.33402e+06
-2.05963e+06
-388381
-2.59429e+06
-684384
-1.32931e+06
-1.66351e+06
-813432
-804242
-1.0769e+06
-1.25979e+06
-1.1686e+06
-1.19712e+06
-1.1523e+06
-1.18178e+06
-1.09072e+06
-784221
-793905
-272128
-162141
-279583
-149054
-302488
-302488
-345472
-359435
-233439
-172921
-147322
-220209
-290650
-213598
-218036
-287511
-354734
-352725
-283996
-218546
-286545
-215082
-360085
-361555
-834388
-889033
-1.21629e+06
-1.38359e+06
-1.25716e+06
-1.22718e+06
-1.23104e+06
-1.2967e+06
-1.13705e+06
-1.13615e+06
-973141
-1.27914e+06
-1.05471e+06
-1.0786e+06
-1.09757e+06
-1.23519e+06
-1.25352e+06
-1.25844e+06
-1.14459e+06
-1.27972e+06
-1.16363e+06
-1.21435e+06
-1.13672e+06
-1.11729e+06
-254271
-304527
-253923
-303984
-225255
-229400
-233492
-229112
-247817
-294389
-248136
-294969
-286402
-354296
-354405
-286860
-260755
-255248
-293819
-364563
-293229
-364759
-250404
-255676
-911486
-893860
-1.01142e+06
-1.03239e+06
-1.07073e+06
-976381
-1.05029e+06
-958053
-1.03129e+06
-858098
-875533
-1.23343e+06
-1.02148e+06
-743027
-753003
-1.00428e+06
-1.16997e+06
-1.05292e+06
-1.08415e+06
-1.06948e+06
-1.10073e+06
-989476
-773580
-763679
-252310
-208429
-249829
-211282
-290440
-289467
-296573
-297705
-245591
-210272
-248066
-207481
-274178
-216895
-213987
-276412
-344522
-346674
-281634
-214884
-279320
-217972
-338151
-336049
-649828
-639812
-841088
-971080
-904844
-934701
-888609
-918212
-855839
-619287
-629293
-634809
-618909
-705981
-727165
-754353
-691951
-735459
-674930
-724252
-586632
-602281
-235929
-275696
-276346
-236172
-225364
-221448
-217677
-221347
-242099
-285576
-241819
-284953
-787672
-804718
-913282
-934696
-929381
-849465
-949324
-867380
-893932
-839943
-822704
-207976
-233158
-232358
-208006
-195109
-197241
-201304
-198916
-202692
-224318
-202601
-225143
-725402
-927071
-486742
-476850
-609440
-692425
-650881
-675898
-635554
-660179
-623590
-456759
-466605
-237597
-208189
-205593
-239982
-282572
-283426
-243967
-206551
-241525
-209258
-276634
-275880
-578348
-588333
-767681
-882331
-792040
-820029
-807995
-836294
-753108
-608788
-598790
-220927
-199502
-201296
-219169
-239444
-238879
-215568
-199466
-217146
-197879
-244753
-245302
-570316
-333.674
-417.038
-411.63
-362.019
-290.188
-261.552
-287.147
-351.855
-339.676
-319.673
-347.549
-303.946
-630.197
-485.365
-617.38
-528.71
-864.18
-1087.58
-1082.26
-942.086
-804.676
-967.12
-713
-979.376
-681.96
-600.94
-559.45
-693.003
-409.612
-454.832
-388.303
-466.228
-405.536
-384.218
-370.275
-416.429
-384.117
-341.922
-375.243
-353.259
-430.374
-508.762
-496.405
-453.285
-3216.95
-3591.61
-2798.97
-3689.35
-2038.47
-1779.68
-1636.24
-2049.77
-1797.74
-1298.12
-1781.82
-1485.38
-3606.16
-4408.25
-4262.81
-3904.84
-7422.04
-5629.91
-4817.53
-6732.74
-8894.54
-13188.1
-6295.83
-3706.97
-11401.9
-14502.8
-12900
-15195.4
-8687.21
-6565.38
-7677.66
-8180.67
-20344
-26576
-22441.2
-23657
-10316.8
-9534.51
-8655.4
-11022
-17748.9
-17648.1
-15270.1
-19982.6
-1.44371e+06
-5629.01
-6986.26
-4177.29
-4118.47
-3753.1
-6479.35
-5988.15
-5985.73
-9115.52
-6148.77
-8134.76
-6718.12
-4557.45
-3433.78
-4428.24
-3166.92
-4874.15
-1.6302e+06
-33587.7
-42404
-109704
-41782
-52267
-52336.5
-35234.9
-14876.9
-12839.5
-17815.6
-11006.8
-18283.3
-23635.6
-31576
-25217.7
-20793.8
-26892.2
-800354
-896562
-288.376
-285.055
-300.839
-310.065
-307.275
-303.63
-300.907
-307.504
-288.169
-287.388
-285.09
-290.496
-333.061
-344.921
-324.957
-321.519
-318.443
-327.925
-324.726
-318.392
-333.954
-348.415
-346.625
-336.403
-272.944
-305.063
-385.496
-273.723
-312.799
-338.831
-238.901
-126.364
-124.422
-105.471
-110.94
-137.455
-149.029
-191.042
-125.011
-183.951
-158.243
-203.831
-248.65
-245.635
-186.249
-199.223
-251.35
-188.822
-94.5662
-116.49
-79.4162
-101.534
-111.296
-89.8024
-105.67
-75.4699
-86.6781
-107.836
-284.438
-283.344
-275.066
-292.192
-246.422
-259.538
-285.993
-311.247
-303.379
-296.579
-244.34
-237.297
-297.449
-299.83
-293.226
-304.416
-308.994
-311.395
-304.808
-315.724
-295.71
-288.558
-292.047
-291.809
-310.494
-325.076
-317.8
-318.017
-317.366
-301.574
-311.93
-306.941
-338.521
-366.926
-357.752
-348.63
-323.559
-333.885
-340.484
-316.417
-331.952
-329.173
-320.542
-339.984
-752.553
-682.169
-786.495
-667.211
-1026.85
-1138
-982.892
-1153
-739.124
-625.774
-724.631
-654.314
-1035.04
-1218.86
-1038.97
-1154.28
-484.756
-569.97
-564.23
-511.653
-421.144
-318.383
-337.238
-385.603
-456.715
-428.901
-531.745
-394.846
-447.543
-431.503
-461.919
-409.931
-501.071
-575.146
-554
-515.065
-442.006
-399.18
-432.363
-410.983
-489.163
-529.576
-471.419
-541.745
-451.913
-434.619
-466.338
-421.413
-345.446
-362.603
-357.716
-350.681
-333.207
-322.86
-329.605
-326.955
-341.778
-350.76
-353.806
-338.437
-336.557
-336.034
-329.488
-342.354
-358.625
-368.404
-350.683
-375.898
-349.328
-291.121
-281.287
-365.953
-337.834
-262.518
-330.229
-268.689
-371.488
-405.656
-388.773
-390.419
-367.02
-370.529
-357.979
-378.707
-370.67
-380.533
-361.819
-388.641
-358.733
-341.133
-351.715
-348.78
-380.36
-409.511
-397.373
-393.076
-1.02197e+06
-1.15011e+06
-1.12886e+06
-1.0392e+06
-929562
-806624
-819352
-913694
-947563
-847374
-964302
-835161
-1.00285e+06
-1.08921e+06
-1.10898e+06
-986110
-1.24515e+06
-1.26425e+06
-1.41142e+06
-1.41966e+06
-1.43365e+06
-1.30197e+06
-1.38907e+06
-1.45565e+06
-1.32271e+06
-1.31014e+06
-1.29889e+06
-1.08047e+06
-1.17199e+06
-1.06027e+06
-1.19553e+06
-1.0193e+06
-910935
-892207
-1.041e+06
-1.00185e+06
-864526
-984018
-878465
-1.09941e+06
-1.2454e+06
-1.21636e+06
-1.12558e+06
-3985.3
-4751.88
-3759.58
-4543.01
-2178.64
-1869.62
-2147.43
-1930.6
-4149.57
-4643.11
-4098.41
-4811.02
-2109.71
-1864.53
-2233.74
-1914.48
-10552.6
-7187.6
-5369.8
-10154.9
-6418.67
-20923.7
-7612.27
-20414.8
-9238.34
-4515.29
-4103.5
-8048.88
-9308.05
-25783.8
-16238.1
-23880.3
-12001.8
-8766.9
-9849.88
-12373.4
-24693.9
-28839.3
-24224.1
-31223.6
-12528
-10085.9
-11882.1
-10189.5
-24273.1
-31930.9
-21058.2
-30733.6
-68480.6
-117568
-93051.1
-75268.8
-27169.6
-22314.4
-31541.2
-31115.5
-27845.4
-34390.1
-59877.6
-127093
-289814
-322508
-238376
-375614
-252761
-271094
-254321
-200265
-293356
-398685
-392638
-308898
-612087
-620767
-577590
-489266
-796292
-664206
-718363
-1.10491e+06
-931386
-916585
-827136
-857353
-574995
-410293
-454435
-531284
-709875
-835721
-696648
-847867
-615791
-477462
-482058
-610487
-664222
-750516
-624567
-791768
-107869
-130370
-92876.6
-156028
-60943.5
-55723.8
-50251.9
-69599.8
-50677.2
-37372.7
-43523.4
-43070.9
-127904
-202533
-177208
-141890
-562669
-459616
-457444
-568001
-630014
-730591
-741914
-621731
-642215
-768758
-757094
-649350
-550098
-444645
-448221
-544550
-308774
-393827
-312620
-388478
-276329
-263759
-266735
-275202
-314252
-389086
-305663
-398812
-586211
-468828
-580900
-467700
-679021
-823754
-809928
-691009
-669866
-784842
-796766
-662152
-596291
-472241
-602654
-475883
-1.28407e+06
-1.48572e+06
-1.64585e+06
-1.60058e+06
-1.56725e+06
-1.44835e+06
-1.54274e+06
-1.72907e+06
-1.48134e+06
-1.37749e+06
-1.34308e+06
-39155.1
-271474
-235968
-114211
-68691.7
-21303
-55700.3
-17812.6
-92474.6
-368976
-374555
-98964.2
-66506.8
-43993.2
-20204.7
-75097
-1.21229e+06
-1.75641e+06
-1.46853e+06
-1.4207e+06
-1.54263e+06
-1.32749e+06
-1.11965e+06
-1.23036e+06
-1.08946e+06
-958299
-1.4287e+06
-1.20277e+06
-1.13881e+06
-1.29876e+06
-1.28274e+06
-1.08715e+06
-1.08229e+06
-922901
-1.0588e+06
-942605
-1.17714e+06
-1.27543e+06
-1.14675e+06
-1.30075e+06
-1.01784e+06
-844602
-890165
-984157
-177629
-313973
-165286
-274945
-84595.6
-60859.9
-63556.1
-77193.5
-86659
-57112.7
-64202.8
-90539.6
-170806
-225700
-159799
-252096
-1.38389e+06
-1.50546e+06
-593954
-716403
-708217
-599787
-499558
-395295
-396472
-494692
-504767
-402057
-509043
-401477
-587050
-691312
-699866
-580828
-823156
-830698
-1.11694e+06
-1.3111e+06
-1.18532e+06
-1.21237e+06
-1.10435e+06
-1.20124e+06
-1.22645e+06
-840849
-837405
-609606
-723988
-605651
-730501
-516491
-400692
-405400
-515584
-515573
-406027
-513300
-404723
-611937
-737438
-734309
-612632
-294340
-175204
-294486
-182631
-368428
-367799
-290167
-193011
-186335
-290495
-370044
-368579
-96947.2
-82935.7
-88641.7
-64927.3
-221420
-424657
-347337
-306814
-177029
-271940
-151551
-311348
-154008
-172182
-118640
-223676
-103998
-104221
-120786
-66722.9
-189422
-307315
-209475
-294758
-129670
-145848
-126567
-150648
-169983
-259796
-145142
-272554
-192591
-175063
-185364
-186291
-235256
-318612
-318703
-240466
-239366
-320838
-321515
-233100
-191231
-188760
-179954
-196248
-289408
-215034
-292873
-209352
-368190
-368044
-293069
-199398
-289880
-208036
-366256
-365494
-177666
-179097
-186193
-166615
-227129
-312122
-318530
-214260
-227619
-322637
-319989
-235998
-173866
-150299
-159950
-167737
-806639
-816524
-1.134e+06
-1.38942e+06
-1.2847e+06
-1.25549e+06
-1.12973e+06
-1.27658e+06
-1.25739e+06
-841820
-833691
-647144
-725579
-775969
-603395
-572193
-534013
-436879
-668178
-546316
-368123
-402120
-496667
-675871
-951319
-819988
-795761
-586028
-698718
-706885
-576630
-508306
-398090
-513101
-386434
-606171
-737391
-611340
-732236
-483394
-352234
-367491
-476756
-1.21728e+06
-1.11518e+06
-934738
-1.0144e+06
-1.03288e+06
-918292
-881132
-791685
-896561
-778713
-951647
-1.07018e+06
-1.05118e+06
-968326
-864850
-751515
-849756
-764415
-1.0593e+06
-1.04068e+06
-1.17297e+06
-1.19242e+06
-1.23724e+06
-1.1256e+06
-1.19358e+06
-1.21613e+06
-1.10671e+06
-1.00333e+06
-1.02165e+06
-885651
-996545
-901886
-978411
-803773
-698636
-711251
-789092
-819128
-737625
-833990
-724856
-869611
-943014
-960885
-853574
-260142
-313743
-260517
-314231
-241894
-237109
-266880
-324091
-323657
-266491
-233059
-237642
-424322
-357467
-353274
-430010
-472379
-539144
-549308
-464043
-482903
-572055
-491358
-561764
-413778
-340826
-344966
-408135
-446477
-365884
-370142
-440743
-521331
-618441
-529969
-607905
-457384
-382966
-378673
-463160
-510551
-584677
-502010
-595091
-514645
-417968
-422281
-508810
-601109
-715963
-609867
-704805
-526514
-435447
-431326
-532275
-589610
-679833
-690791
-580761
-280037
-344205
-279617
-343930
-241327
-246281
-272978
-333717
-273385
-334081
-250864
-245742
-491392
-409065
-497235
-404716
-549615
-631473
-642136
-540884
-560682
-666230
-655418
-569495
-480083
-391610
-474264
-395947
-929963
-947805
-1.07132e+06
-1.09188e+06
-1.09125e+06
-994799
-1.05127e+06
-1.11187e+06
-1.01327e+06
-984514
-966451
-759749
-856735
-839450
-775295
-687143
-596979
-609062
-673038
-701513
-634168
-621962
-715764
-744549
-805663
-822774
-729162
-806364
-873585
-891047
-790674
-759511
-685246
-774042
-672770
-821932
-925749
-837787
-908097
-744728
-647217
-659559
-730336
-1.17526e+06
-1.07879e+06
-559522
-656324
-664918
-553323
-483984
-389736
-489024
-388384
-567108
-682481
-673841
-573406
-478208
-381364
-473216
-382687
-732329
-722322
-959751
-1.11543e+06
-1.03632e+06
-1.06753e+06
-974610
-1.01979e+06
-1.0509e+06
-701646
-711663
-539566
-647320
-545654
-638797
-456675
-367351
-368565
-451811
-462477
-375594
-467409
-374330
-531849
-621323
-629778
-525862
-254270
-212294
-256725
-209419
-311560
-313061
-261339
-210471
-213363
-258935
-305238
-303932
-206051
-190895
-196997
-202745
-231967
-286833
-287394
-235419
-236544
-291476
-232865
-290992
-203532
-197615
-191812
-206651
-201762
-196252
-189856
-205248
-238309
-299465
-234259
-299067
-204264
-188733
-195400
-200618
-233623
-295065
-237491
-295496
-196232
-192272
-184718
-200359
-240511
-315247
-235772
-314888
-198598
-182790
-190834
-194159
-235656
-310962
-311379
-240160
-271211
-212814
-268945
-215691
-321182
-319468
-263837
-214489
-266168
-211612
-327646
-329578
-201828
-186216
-197884
-193429
-234807
-303031
-303423
-239015
-239633
-307392
-306989
-235286
-199322
-194459
-203119
-187521
-660390
-670404
-885440
-1.02491e+06
-921165
-951234
-870639
-937491
-967792
-691011
-680995
-484975
-577414
-569099
-490803
-414214
-339432
-340714
-409420
-420028
-347700
-346463
-424815
-477176
-551747
-560033
-471361
-504449
-586481
-594831
-498582
-441203
-361592
-446018
-360401
-512210
-612274
-518123
-603882
-435404
-353452
-354650
-430612
-651707
-667867
-761170
-782600
-773350
-709084
-742657
-792483
-726314
-701413
-685025
-525420
-595873
-580269
-539436
-471640
-409445
-420053
-459249
-484398
-442300
-497052
-431461
-511857
-549958
-565282
-498109
-567492
-611107
-626969
-553246
-536162
-488116
-549320
-476861
-581534
-658565
-642451
-596023
-522963
-453942
-510040
-464998
-382001
-316533
-320533
-376500
-445408
-526875
-453640
-516838
-392193
-332649
-328583
-397756
-435150
-494857
-427047
-504743
-230341
-267308
-230141
-266621
-210187
-213355
-217353
-213925
-224460
-257752
-258459
-224615
-361082
-308627
-366499
-304717
-399008
-451916
-461483
-391182
-408953
-482947
-416934
-473211
-351290
-293128
-296957
-345955
-769881
-753038
-855489
-877006
-909536
-831618
-874654
-889775
-813865
-718803
-735428
-684054
-739189
-755938
-668994
-644907
-584236
-658857
-572302
-698901
-789182
-772240
-714136
-630919
-547916
-559707
-617138
-639440
-723081
-706521
-654327
-576122
-500171
-562745
-511630
-624970
-674262
-610286
-690600
-589744
-535499
-523877
-603325
-302517
-263503
-259967
-307530
-330708
-370793
-379586
-323554
-339899
-399437
-390425
-347235
-293628
-249455
-252904
-288724
-213398
-240618
-213439
-241377
-209362
-206447
-202693
-205346
-218980
-249817
-218880
-249080
-321784
-270748
-316663
-274390
-373727
-440404
-431008
-381398
-364136
-410511
-419701
-356633
-331147
-285538
-336368
-281811
-779440
-871173
-497036
-506953
-652071
-743363
-666323
-691692
-637816
-681800
-707547
-527225
-517282
-375573
-438848
-430659
-381511
-327782
-279563
-281714
-322691
-333754
-289487
-338804
-287466
-367777
-413448
-421630
-361792
-395241
-447907
-456111
-389326
-355695
-304660
-360650
-302890
-403068
-473383
-465179
-408938
-349752
-295245
-344760
-297136
-204457
-198343
-193187
-207147
-234119
-283194
-230897
-282555
-207020
-192589
-198069
-204118
-229633
-278134
-232603
-278882
-236082
-204581
-233785
-207050
-263625
-263014
-230057
-205806
-203484
-232248
-269363
-270041
-207006
-193599
-204550
-198408
-226450
-268839
-269819
-228896
-230873
-274421
-228155
-273567
-204368
-198257
-193789
-206595
-567913
-557941
-724049
-829742
-776099
-803805
-738548
-760256
-787641
-537590
-547545
-449922
-517078
-525322
-444103
-398782
-333679
-403595
-332319
-457744
-542661
-534405
-463550
-392930
-325129
-326569
-388097
-430453
-507989
-499766
-436280
-371466
-310423
-366556
-312065
-422622
-482468
-416767
-490684
-377356
-319368
-317824
-382232
-203608
-192924
-196324
-202124
-217152
-248109
-249635
-218480
-221473
-254944
-253572
-219860
-200787
-195162
-192119
-202018
-222771
-202946
-224689
-200970
-256800
-257377
-228458
-202291
-226396
-204449
-251274
-250717
-203166
-197223
-204899
-193464
-226681
-265035
-263936
-224510
-222313
-258843
-260089
-224203
-205892
-193753
-203916
-197864
-398269
-446754
-535250
-484804
-1.23841e+06
-1.12671e+06
-1.05313e+06
-1.15486e+06
-1.1448e+06
-1.21799e+06
-1.17537e+06
-1.26026e+06
-1.21791e+06
-1.07022e+06
-1.18237e+06
-1.16364e+06
-1.19614e+06
-1.28114e+06
-1.36673e+06
-1.48351e+06
-1.2552e+06
-992002
-1.14363e+06
-1.75988e+06
-1.26862e+06
-946638
-1.02867e+06
-968181
-846791
-1.04391e+06
-934019
-858081
-959320
-880433
-983264
-1.0745e+06
-1.05931e+06
-869430
-971555
-1.13311e+06
-1.02782e+06
-996099
-1.0514e+06
-1.14006e+06
-999101
-1.20856e+06
-1.08269e+06
-902347
-1.13848e+06
-1.00759e+06
-1.13002e+06
-1.02115e+06
-945504
-1.17723e+06
-1.10857e+06
-1.13516e+06
-1.00312e+06
-1.19725e+06
-1.09082e+06
-1.11538e+06
-1.15713e+06
-1.07709e+06
-987046
-1.0555e+06
-1.07304e+06
-1.09635e+06
-1.13743e+06
-927191
-850272
-798437
-858578
-866985
-908694
-876355
-945895
-911993
-900643
-813590
-883811
-964555
-894029
-908283
-1.01332e+06
-835124
-925950
-921112
-998079
-823698
-895291
-800548
-911235
-967599
-982794
-811980
-882360
-739484
-787836
-744177
-662404
-802557
-726617
-673626
-752425
-696522
-832193
-758290
-817389
-765328
-685261
-641819
-592741
-561900
-589005
-608150
-625009
-605046
-658883
-637413
-639299
-575905
-623692
-675943
-621116
-871839
-833577
-841071
-752535
-890154
-817004
-823476
-853481
-788734
-783998
-737628
-800447
-835331
-806136
-536852
-558700
-531716
-482638
-572526
-524533
-493448
-549256
-515607
-600463
-544904
-586499
-561670
-504720
-700909
-773088
-650794
-703756
-713727
-758459
-639614
-688070
-616906
-729268
-689834
-743803
-675305
-628044
-577417
-573216
-608217
-544884
-1.35726e+06
-1.27315e+06
-1.31848e+06
-1.14988e+06
-1.29217e+06
-1.38048e+06
-1.24882e+06
-1.32636e+06
-1.24132e+06
-1.20302e+06
-1.12681e+06
-1.30571e+06
-1.26468e+06
-1.2235e+06
-1.44594e+06
-1.30724e+06
-1.35843e+06
-1.23017e+06
-1.43158e+06
-1.3801e+06
-1.33437e+06
-1.53127e+06
-1.36726e+06
-1.34726e+06
-1.23436e+06
-1.5007e+06
-1.41091e+06
-1.3598e+06
-1.00593e+06
-1.13809e+06
-1.04448e+06
-915889
-1.121e+06
-909048
-1.01471e+06
-995230
-891295
-1.09008e+06
-1.02641e+06
-983978
-1.105e+06
-901001
-1.02274e+06
-1.15648e+06
-1.09157e+06
-919266
-1.17217e+06
-1.02194e+06
-916746
-1.01434e+06
-890793
-1.16676e+06
-1.09557e+06
-1.0118e+06
-1.17267e+06
-900052
-1.07881e+06
-985966
-1.00253e+06
-922995
-1.02114e+06
-1.05958e+06
-1.0032e+06
-1.09826e+06
-1.05843e+06
-1.03795e+06
-938665
-1.1177e+06
-1.03953e+06
-1.02058e+06
-1.02133e+06
-968739
-984355
-875599
-1.04034e+06
-965980
-951652
-1.00228e+06
-929821
-917600
-860211
-983432
-947983
-934565
-843277
-907036
-854880
-754256
-922091
-765634
-830290
-856335
-788789
-952371
-869379
-869311
-937243
-777374
-804277
-891961
-813498
-742527
-876992
-817246
-731190
-791256
-708195
-847109
-799195
-778313
-861997
-719494
-728136
-702756
-703610
-633545
-686834
-745669
-686780
-710581
-653731
-655043
-619199
-693263
-670275
-670852
-781216
-718863
-720386
-677833
-763453
-737383
-735016
-799201
-771574
-767580
-692484
-817154
-754366
-751284
-599237
-657122
-596960
-560290
-642905
-549289
-611810
-586662
-526947
-614573
-583488
-574162
-628670
-537893
-637099
-671474
-636240
-571736
-685807
-624455
-582783
-649819
-605367
-714704
-649950
-662523
-700268
-594275
)
;

boundaryField
{
    left
    {
        type            calculated;
        value           nonuniform List<scalar> 
290
(
-237.791
-1.15431e+06
-1411.26
-959.033
-238.171
-286.009
-1012.5
-283.838
-1.80649e+06
-252518
-1.3392e+06
-1937.34
-1.23844e+06
-120316
-361.136
-626.393
-925.143
-8722.29
-2390.29
-22893.6
-18424.8
-257.455
-251.573
-318.157
-340.794
-309.383
-365.384
-340.396
-703.368
-389.115
-339.541
-337.404
-315.25
-355469
-536392
-18098.3
-10497
-1036.49
-468794
-33387.6
-53520
-4649.13
-29155.9
-328259
-371.442
-468.663
-661.793
-1048.86
-790.417
-49.5649
-71300.9
-64192.4
-768.437
-2334.2
-3985.14
-411.672
-188.268
-533.265
-49.7801
-50.2896
-241.116
-270.389
-273.842
-289.641
-360.541
-356.264
-931.839
-618.686
-595.337
-353.552
-268.161
-163881
-812157
-3871.27
-2783.44
-1587.45
-815523
-677941
-539427
-28073.3
-154365
-95072.1
-299.834
-324.162
-400.192
-365.393
-333.084
-557.815
-428.638
-476.163
-1560.17
-1358.16
-819.799
-6632.55
-2958.7
-3569.95
-1380
-2070.43
-4361.62
-13898.3
-38997.4
-119037
-6109.59
-3357.96
-9614.81
-71.6986
-139.589
-338.097
-241.812
-51.1269
-63.3998
-322.705
-300.365
-296.243
-316.012
-306.403
-329.544
-278.872
-286.656