/*--------------------------------*- C++ -*----------------------------------*\
| =========                 |                                                 |
| \\      /  F ield         | OpenFOAM: The Open Source CFD Toolbox           |
|  \\    /   O peration     | Version:  2012                                  |
|   \\  /    A nd           | Website:  www.openfoam.com                      |
|    \\/     M anipulation  |                                                 |
\*---------------------------------------------------------------------------*/
FoamFile
{
    version     2.0;
    format      ascii;
    class       volScalarField;
    location    "0.105/solid";
    object      sigmaMid;
}
// * * * * * * * * * * * * * * * * * * * * * * * * * * * * * * * * * * * * * //

dimensions      [1 -1 -2 0 0 0 0];


internalField   nonuniform List<scalar> 
3125
(
-205.351
10323.6
-136.059
273584
3936.98
6686.49
-245.229
-146.825
-205.623
-216.526
-245.856
-3313.32
-192.02
-33757.7
-14191.8
64677
18606.6
272276
5486.16
-93639.2
9694.11
329542
10082.8
6869.6
-3360.23
-9399.73
-13465.2
-2876.6
18240.8
12930.4
5280.19
6155.7
9238.93
3229.97
-2229.61
-8883.26
-2840.53
-5621.28
7860.38
12605.1
1390.21
5760.38
3104.71
3323.54
3782.77
-2195.13
7561.94
1284.29
-298.978
-258.165
-395.337
-1190.58
-1607.82
12466.5
2890.28
12396.2
1498.33
5171.03
5345.54
-246.997
-263.922
-203.455
-205.084
-248.297
-254.521
-302.113
-247.016
-274.28
-265.218
-247.293
-271.231
-7638.59
-5093.01
8880.1
-395.579
3598.18
-2268.73
-3102.2
-20693.7
145087
15521.4
-5499.39
-15126.5
-17614.7
1074.45
6247.04
1494.7
202951
22694
-7783.88
21269.2
21860.6
14007.3
5470.98
15949.8
2844.89
112692
10745.2
12899.6
9055.64
13873.9
7941.07
181026
15750.1
8497.83
8292.05
-8505.57
-3181.69
-9585.94
-11027.3
-10054.2
-11785.9
-14450.6
-11601.9
-12403.8
-3150.28
-8347.22
-9539.76
15681
15336
13503.1
4256.9
11506.3
7405.55
8315.31
9984.76
12435.5
7843.35
10567.3
4119.6
9131.66
10892.5
-2514.49
-5068.04
-6205.49
-9507.78
-7407.42
-7952.78
-2550.39
-7900.33
-6611.1
-6092.31
-6939.15
-7464.17
10002.8
10308.6
2155.3
4996.39
6448.21
7784.73
4641.41
6269.19
2271.58
8569.61
6958.88
4447.73
4291.36
5791.58
-266.431
-235.121
-353.442
-428.976
-519.222
-63.2188
11224.3
-4.25834
157.529
139.438
137305
63040.2
18805.9
4447.61
6092.77
-201.641
-267.914
-23.4505
-191.656
-48.7763
-63.0406
-206.16
-61.5989
-202.715
-204.27
-260.843
-239.067
-273.661
-268.958
-246.496
-270.195
2867.7
-3387.82
2127.23
-262.313
29.2966
-139.903
-62601.2
9144.21
24401.4
35999.2
-10854.1
-13533.2
-15027
-14432.7
54242
-289557
258634
232691
-31936.8
19791.7
28890.2
945.049
5955.89
-1272.07
-39911.2
-28274.3
-40.3332
13755.8
10063.1
14230.9
85843.5
326874
119785
9360.54
7465.23
1825.04
-3303.96
2344.29
-9927.58
-8689.11
-9207.49
-12735.7
-12817.3
-12083.6
-3003.81
1323.74
755.471
17107.9
13947.1
-391.717
4816.87
899.783
6563.1
9132.64
9684.65
13213.3
8758.88
12593.5
3598.35
172.245
-656.172
-2355.71
124.101
-466.985
-8184.25
-8378.74
-7693.23
-2716.78
434.494
1009.18
-5041.48
-6045.83
-5445.73
8753.97
11600.1
1704.35
-781.86
-1526.33
8593.23
5375.69
8065.57
2739.98
-893.563
-98.2127
5194.98
3633.81
5634.56
-740.615
-1684.43
-213.123
-220.273
-283.462
-275.377
-257.749
-238.681
-263.487
-244.785
-367.516
-574.366
-511.598
-799.443
-1238.91
-1052.22
-1462.96
-1217
-1119.34
11517.6
48.9049
1074.37
246.3
58069.1
18373.1
1946.5
7921.11
4609.7
5909.42
-227.559
-275.249
-196.775
-58.2244
-52.6682
-205.908
-59.6273
-60.8779
-208.966
-206.27
-228.752
-250.025
-230.386
-234.846
-252.047
-232.362
-286.341
-286.365
-287.331
-244.651
-274.552
-274.724
-277.882
-283.71
-284.947
-276.477
-266.843
-277.928
-247.03
-273.169
-271.632
-268.834
-281.693
-279.693
-7198.23
-5468.28
-6453.57
-2736.06
12764.1
4094.6
-2175.59
3720.01
-5325.53
-337.582
-592.974
-425.533
-2.66553
623.035
-575.337
-1789.24
-2595.63
-1604.58
-11501.2
-2516.93
2997.93
-639.48
-20870.1
20110.7
85205.4
110431
22531.8
73407.8
8288.83
-2910.79
93169.4
53177.8
-3810.93
9092.71
5924.62
-15086.6
-12766.6
-16097.5
-16260.2
-17259.5
-16139.1
-9057.18
-13815.7
-18140.9
22049.3
24052.3
189698
62130.2
-7848.78
-17905.1
258009
143641
29939.7
150328
18385.7
16300
123461
155056
-9864.08
9585.13
-3024.99
20170.1
56652.6
8931.99
14675.1
9541.37
6404.23
1612.22
606.498
13556.1
11934.9
8824.6
-15369.8
10968.2
12867.6
40950.3
68834.2
43844.1
9797.36
49566.2
30931.2
13073.8
13426.6
13563.7
10078.7
14001.3
14072.5
12472.4
13596.3
13010.1
78780.3
11419.4
66208.7
247101
93493
110728
19700.4
65760.1
68773.6
9146.51
7658.08
-7252.29
-9067.7
-7289.56
-3285.25
1975.89
1436.5
-9388.27
-7221.05
-7256.62
-10468.9
-10292.9
-9741.52
-9765.92
-10615.6
-10323.6
-11490.1
-11192.6
-10898
-14139
-13733.5
-13429
-12196.1
-10864.5
-11455.8
-13037.6
-12105.3
-12741.3
-3038.37
1085.07
1641.48
-6850.71
-8795.14
-6992.92
-7169.33
-9220.88
-7097.04
16755.1
14277.5
8514.95
12788.2
7965.38
4662.81
708.794
-309.158
12147.8
7029.41
7491.77
6978.19
10817.5
10245.5
8504
8860.36
9046.95
10166.9
9415.51
9600.24
12574.1
11776.3
11939.5
8295.52
11399
11994.2
11172.1
10744.5
11341
3729.61
-442.595
452.795
5369.42
9706.76
5767.39
6594.93
10292.6
6175.05
-2392.53
-180.179
398.898
-4816.49
-5434.65
-5091.05
-5650.79
-5812.25
-5369.55
-9222.4
-8974.81
-8693.44
-7886.09
-6752.1
-7215.14
-8456.92
-7677.82
-8177.9
-2680.62
694.491
123.687
-6666.61
-7460.09
-6445.12
-5927.47
-7030.13
-6194.63
-5828.95
-6533.86
-6266.45
-6484.07
-6301.52
-5865.95
-6990.39
-7191.29
-6720.65
9045.7
11277.3
1815.09
-1333.78
-568.58
2535.99
5467.41
2855.41
3526.76
5951.08
3187.11
7974.43
7266
7457.42
5002.65
7050.61
7551.26
6761.32
6464.34
6953.7
2616.99
-341.901
-1125.5
4981.87
8020.05
4603.57
3875.82
7482.88
4234.69
4654.38
4880.37
5082.85
3954.52
6563.22
6091.21
5329.01
5988.39
5527.76
-169.752
-210.942
-205.3
-145.835
-211.218
-169.997
-145.539
10602.4
-40.1613
-81.7517
-151.856
-83.979
-113.342
-65.8739
-27.1498
-31912.4
245934
185353
88244
82864.7
83649.5
42875.1
4095.99
6474.26
-139.695
-92.9477
-144.374
-172.43
-112.725
-177.001
-115.261
-170.344
-211.149
-146.005
-205.96
-170.256
-211.71
-145.956
10398.4
11039
136.374
-3368.93
11303.3
42.0978
10250.2
18994.6
204983
-1338.52
6413.7
4245.1
5621.87
6542.88
4242.36
-1270.82
155832
48971.6
384876
254822
216194
108450
346336
9821.51
7062.09
9764.44
10870.2
78.8914
-3334.6
9976.84
10626.8
100.208
6980.71
-2927.01
7738.18
-153.817
7953.88
-151.086
6770.29
17838.8
13258.5
-1131.62
6165.74
4259.64
5125.84
-1167.06
6009.44
4210.92
-606.042
3346.47
3798.67
3445.43
3925.78
3508.89
-584.709
3838.69
-2282.7
4625.44
-605.696
4828.92
-592.014
3648.12
6360.86
-2799.82
7562.33
-191.897
7343.82
6576.04
-201.638
8140.31
12251.8
-368.737
1488.61
1649.89
2212.74
1758.32
2280.66
-365.047
-547.287
2978.23
3640.59
3379.44
-546.025
3507.62
3284.12
4466.97
-659.474
3484.44
1520.33
2126.72
-350.918
12080.3
-173.421
539.346
4471.08
1585.81
2040.08
-1359.11
443.626
13618.8
3389.92
-6567.29
-3232.72
1367.9
-180.138
5925.93
2167.46
4963.22
5527.6
-164.67
-202.865
-207.554
-143.537
-166.618
-206.678
-141.664
-169.032
-205.319
-209.366
-144.543
-167.964
-210.313
-145.284
12537
-1201.75
13399.4
-1302.53
11961.6
7676.53
1871.62
-26.6914
-6250.32
13877
9713.22
17357.4
17386
3622.18
20942.4
22766.5
-2822.29
6882.94
7025.02
3742.76
7309.93
3534.28
-2483.66
-1028.74
7942.45
12330
2701.63
20752.2
4037.23
-5163.32
8704.84
8066.1
8664.8
-3225.87
9378.31
5.36197
9597.63
8450.51
4.95866
8017.98
-3116.29
9186.82
-25.8648
8957.22
8239.85
-33.9862
16027.7
14964.7
-866.78
4382.83
4998.57
3960.08
5134.09
4012.45
-836.216
-769.407
3985.2
4825.14
3910.79
4685.77
3827.12
-778.303
4769.79
-2476.5
5974.28
-397.927
5760.44
4973.09
-413.559
5367.85
-2602.99
6156.29
-352.27
6365.71
5164.25
-345.984
9662.32
10622
-412.519
2036.33
2531.95
2781.4
2406.13
2678.37
-400.699
-442.887
2378.99
2677.72
2849.47
2796.46
2918.8
-428.913
-386.782
-128.524
-102.876
-382.288
-6.15638
-526.446
-342.869
-123.393
57.1683
-589.229
-613.751
12.5573
1446.39
-2237.89
1230.06
-2374.19
-952.736
298.138
1074.21
-1921.69
-1145.56
353.83
456.451
-1087.24
-169.473
-205.056
-211.099
-145.258
-103.941
-99.0324
-62.3657
-104.641
-98.8344
-61.9132
-98.6219
10865.7
-6.80776
-39.2842
25.8252
-42.1582
-2.21204
-66.2195
-46.9047
221.485
138.92
-151.814
160.89
-9.45521
14.2834
69.8044
113.607
115.495
20.1665
573990
45490.2
120174
-86708.4
23951.6
-402136
26801.5
49314.7
-9286.33
39472.5
-2237.07
13452.3
27655.9
-2778.84
16149.2
4252.05
6282
-210.709
-225.432
-201.145
-202.261
-201.115
-210.235
-226.254
-211.815
-224.688
-315.993
-329.751
-293.306
-239.659
-239.513
-293.747
-292.872
-316.548
-330.831
-317.049
-330.028
-70.8284
-52.5451
-35.3762
-55.3336
-68.8536
-144.93
-183.349
-193.893
-131.934
-184.761
-154.708
-122.807
-77.4526
-42.9303
-82.7001
-83.8959
-75.9269
-103.868
-99.0221
-61.8789
-104.706
-98.7382
-170.274
-206.077
-211.472
-145.881
-211.744
-169.851
-145.926
-103.2
-61.2294
-98.0545
-103.007
-98.4127
-210.677
-230.077
-215.259
-225.477
-202.966
-201.932
-212.858
-225.252
-210.938
-227.612
-201.642
-204.902
-415.751
-210.62
-426.62
-201.97
-108.07
-202.506
-185.234
-404.558
-357.791
-212.913
-228.56
-213.663
-35.4289
-552.964
-528.001
-26.7158
-317.635
-334.174
-331.499
-319.742
-294.77
-239.567
-293.967
-240.513
-318.093
-331.011
-317.403
-332.08
-294.297
-240.565
-240.231
-296.091
21241.8
20260.6
10776.2
-3182.06
11789.6
-113.077
11426.1
208.197
10725.7
19216.5
19299.4
1231.8
-1884.52
1478.67
-1290.71
-476.882
-127.883
-149.019
119.693
498.752
112.066
-145.704
-284.521
-795.735
422.45
358.804
-915.24
40484.4
93802.6
145933
182674
46130.5
48566.4
-13194.1
54952.7
6933.58
20044.4
-10412.2
-7081.55
16663.7
-8653.42
-7969.11
-7793.92
-9459.15
16835.3
-7642.74
18712.7
-9340.23
622160
505885
424407
499226
48695.5
-1455.59
182616
391306
137571
440079
246713
406758
249490
-65559.9
1.08999e+06
-319190
19359.4
115951
-1522.91
-1484
-1493.52
5897.25
6865.81
4137.69
6844.93
4152.35
-1557.83
-1095.38
-1167.53
-38888.8
-43786.7
-41735.2
-39939.4
-73091.7
-83848
-65990
-64605.5
-32602.3
-21251.9
-31414.7
-33570.2
3221.01
-18492.9
-17397.6
3707.14
-15704.3
-14744
4234.67
-16751.4
3568.44
-17734.8
-15547.1
-16775
13701.6
56544.3
59654.4
52353.1
168516
5821.19
208895
23515.3
11032.2
267593
130201
9590.31
7246.37
17437.9
17028.9
9531.41
-3339.28
10209.8
66.5894
10433.4
60.0594
9321.92
17999.1
18299.8
13506.6
-7586.26
13313.2
-7078.62
-6645.68
-6659.04
-6855.72
-6820.26
12746.7
-6918.35
12866.6
-7435.74
16123.7
-7755.78
-8430.83
16939.5
-7914.77
-8169.48
17755.5
-8750.85
16589.4
-7773.44
-7846.62
-7781.47
13076.7
13482.7
7177.65
-2963.11
8356.21
-108.073
8135.55
-114.229
7397.39
12738.2
12351.3
17474.6
13584
-595.909
-772.011
-1054.11
4956.22
5651.73
4153.42
5797.46
4194.65
-1012.73
-961.411
-812.58
4106
-13357.5
4384.75
-12835.2
-10792.5
-10553.7
-11004.7
-11313.6
4311.68
-12311.4
4098.46
-12789.4
4513.51
-15543
-16367.7
3898.02
-14076.2
-14893
3775.88
-17025.3
4445.65
-16133.7
-14195.9
-13481.1
-319.075
-27.272
-644.667
3470.86
4220.5
3654.61
4085.84
3563.02
-648.871
42.2222
-276.514
7607.11
7843.71
4008.75
-2317.17
5199
-523.154
4993.6
-540.328
4211.7
7196.75
6990.9
11614.6
-6558.57
-7106.52
11620.8
-6463.88
-6465.31
-6276.89
-6264.73
12239.6
-7274.78
12179.1
-6739.16
11280.9
10934.3
6167.3
-2767.23
6940.29
-251.23
7153.78
-244.861
5960.58
11638.1
12003.6
8686.67
-6208.83
-5563.35
8920.47
-5156.59
-5031.81
-5235.85
-5341.12
8408.5
-5372.57
8144.95
-6011.96
8425.43
11918.8
-121.027
323.598
-380.895
1592.39
2009.83
2458.81
1889.8
2351.7
-364.99
336.552
-125.691
4156.39
-11297.8
-11685
4053.55
-10108.6
-10289.4
4080.14
-12234.1
4237.22
-11803.2
-9797.29
-9669.94
157.365
-205.612
-514.869
2854.03
3228.26
3148.38
3352.11
3215.18
-496.234
-237.383
102.243
3797.16
-9059.05
-8876.89
3649.54
-7052.32
-7185.21
3530.48
-8402.14
3721.53
-8566.62
-7575.73
-7489.51
6388.52
-168.842
-293.751
-287.893
-187.814
-227.708
-190.727
-171.091
-262.252
-245.294
-211.946
-256.407
-195.946
-421.387
-118.399
-417.575
-118.9
124.011
-733.474
-731.792
120.809
66.178
-652.774
61.6786
-661.931
-456.961
-112.943
-105.68
-458.928
-196.397
-317.285
-193.264
-321.366
-298.163
-247.578
-238.918
-305.494
-279.996
-223.683
-275.348
-227.518
-200.781
-349.496
-344.055
-209.431
1681.05
-2592.35
1646.45
-2752.06
-1441.18
685.869
685.817
-1471.64
-1272.16
505.892
-1227.76
511.411
2133.92
-3366.63
-3208.46
2163.37
-5423.99
3457.43
3782.98
-5127.35
7160.58
-9791.94
-4366.05
2911.52
9137.6
-11305.7
8571.1
-12013.7
-6685.62
4461.66
4784.99
-6168.27
14718.6
-20884.4
15756.3
-19500
-8048.77
6198.01
5856.57
-8588.18
12010.6
-14431.3
11086.4
-15765.9
11913.8
551.558
251.448
-298.847
107.723
-61.815
597.214
465.65
322.962
946.472
653.198
1017.26
383.178
302.954
134.643
408.333
141.254
315.564
24071.7
3280.51
1.22399
63190.4
-2998.19
-14458.3
-22359.6
4697.73
659.428
1305.67
2944.38
1466.77
1023.14
1734.24
5967.89
4025.66
4456.79
2733.8
4784.96
5702.28
-245.162
-240.718
-259.422
-269.663
-267.579
-261.583
-260.523
-268.808
-244.067
-241.749
-239.863
-245.998
-307.7
-313.915
-294.347
-288.501
-286.418
-296.338
-294.986
-287.329
-307.576
-315.083
-313.977
-309.168
-162.632
-199.888
-199.469
-135.774
-158.043
-203.355
-139.762
-94.1427
-93.5463
-56.2135
-96.8657
-91.6267
-91.5302
-86.492
-54.4145
-88.2138
-89.6787
-169.571
-206.167
-211.129
-145.763
-169.65
-211.357
-145.503
-100.287
-95.0774
-59.545
-99.2892
-96.1518
-101.051
-97.4927
-59.6793
-102.181
-96.8128
-218.846
-224.936
-209.999
-233.467
-198.301
-213.841
-206.247
-240.495
-227.214
-221.411
-207.442
-201.235
-245.024
-245.681
-240.516
-250.485
-263.31
-268.21
-260.029
-271.493
-247.704
-240.455
-243.209
-244.607
-260.203
-274.466
-266.002
-268.74
-254.449
-239.624
-249.505
-244.195
-253.653
-286.781
-278.701
-262.259
-239.678
-257.413
-262.172
-235.406
-270.182
-267.671
-258.983
-278.689
-460.555
-170.932
-451.267
-152.696
120.449
-758.492
139.681
-740.509
-472.329
-118.343
-477.54
-132.463
90.6032
-654.937
57.0293
-691.983
-272.814
-374.732
-362.879
-285.971
-310.686
-235.255
-239.562
-282.994
-262.371
-235.897
-326.149
-228.709
-338.906
-316.148
-351.897
-302.191
-250.839
-373.241
-372.088
-261.484
-329.424
-265.308
-323.447
-274.931
-234.72
-367.024
-223.741
-369.412
-338.009
-297.334
-341.726
-289.427
-308.774
-318.81
-315.467
-312.499
-297.757
-287.199
-295.26
-290.149
-310.469
-314.956
-316.532
-308.606
-295.526
-292.705
-287.507
-300.129
-322.558
-331.101
-316.984
-336.862
-291.103
-240.419
-238.574
-302.682
-298.532
-239.479
-293.731
-241.345
-313.308
-341.968
-328.056
-327.343
-316.258
-314.891
-307.841
-322.037
-289.596
-305.114
-280.939
-312.509
-304.39
-286.318
-296.871
-294.464
-303.393
-328.408
-323.538
-310.502
21217.9
-426.232
3275.59
14865
-2015.35
20702.9
16591
41.4009
2593.12
16366.7
-919.131
23102.1
14979.4
1648.25
-197.445
18922.4
21699.1
25629.4
10445.8
-3651.7
11791.8
424.272
11485.9
12422.3
-647.804
34317.1
25246.8
15901.8
7440.11
26093.6
-1828.74
21044.8
23383.4
39647.1
3412.29
230.547
27784.3
8427.68
17865.3
37914.7
-4357.66
18073.9
17443.5
2185.35
-2940.51
2088.88
-3304.04
-1504.39
771.762
-1529.98
751.645
2355.33
-3583.74
2380.1
-3590.54
-1367.12
634.544
-1251.71
701.575
-2911.13
4395.03
3331.05
-5326.24
-123.639
5340.91
-2179.43
7395.72
316.073
-241.874
1007.76
608.169
7179.15
-14557.2
11781.2
-5522.04
-9280.32
6113.53
6521.21
-8370.77
17856.2
-23601.6
17418.2
-24442.2
-9628.47
6769.39
-9464.71
6824.53
17521.5
-22995.7
16333.4
-24648.9
50741.4
-68442.7
-42983.5
43534.6
-22836.9
17451.4
-26691.1
20800.3
21727
-27084.8
38532.9
-47032.2
61414.1
24512.6
40200.5
40571.2
-24269.1
-1033.64
16844.2
14315.9
-1297.02
7829.49
-14702.3
32701.5
95022
149817
248395
97194.3
181339
245573
138493
256837
346826
233566
333392
132664
76216.9
63182.1
92733.4
56828.7
27097.5
46093.5
60318
10281.9
4975.62
42563.5
15013.3
31334.1
125293
78433.3
96356.9
107110
66539.5
-78288.3
63709.4
-94114
-51068.2
40295.4
36632.7
-54440.5
-40499.6
27247.3
30103.3
-36654.2
83908.3
-122701
-116759
92193.1
-3095.74
16253.7
21384.2
-5722.16
16845.1
-1258.1
-2973.38
20522.6
22662.1
-1363.45
1418.52
16451.2
-6732.95
19678.9
16759.8
-4978.63
15021.3
-5608.98
22019.2
-13049.4
-5109.36
-14715.1
-11163.9
-7117.15
26063.1
-16387.2
11050.3
-1422.35
-3496.41
24146
1191.22
13353.4
36554.7
6088.44
19095.7
23525.4
17427.4
7128.37
1062.89
26528.8
10815.6
11648.4
1380.88
30458.3
123840
80301.2
86182.2
47892.8
91430.6
80874.1
64818.4
50456.5
61675.8
40024.3
65734.1
35891.7
-145212
-75459
91152.6
31111.3
-4004.7
16955.4
-8758.05
-71991.3
139296
208922
-40265.7
-17885.4
33957.7
19028.7
-45887.7
186664
374354
608879
198834
376257
477137
167964
305724
413367
171321
315432
461738
170699
70404.4
201174
136970
4733.3
69276.5
53292
25927
14014.1
55102.1
71798.2
-18133.8
138185
122243
151754
81602.6
115310
-181043
126301
-180264
-64744.6
44523.9
47159.2
-63007.9
-69229.4
46009.7
47357.1
-66233.2
115555
-153266
101917
-147389
20564.4
31947.2
7034.15
-4668.13
-4415.57
6693.58
-18418.4
8506.1
8091.52
-16018.5
-16424.4
8543.91
-18962.4
8644.41
6310.22
-4312.87
-4799.09
6976.04
-2032.58
-1670.4
-1932.44
6052.39
7238.41
3953.43
-1857.06
6763.31
3937.32
-3131.34
-3103.55
6492.77
-4474.69
7165.87
-5005.49
-16182.9
8494.1
9676.04
-21044.4
-20288.1
8712.17
-16844.5
8308.44
7989.64
-4676.17
-3582.57
6527.44
-24718.4
-44308.5
-37251.9
-30217.8
-35624.8
-26645.1
-18833.3
-20859.6
-29546.6
-8264.94
-43903.4
-56623.2
-14152.1
-16092.1
-6962.06
-9353
41747.1
111184
49066.8
73236.6
27377.6
5547.47
22211.3
20903.4
-9238.73
8421.33
5776.69
23696.4
-14679.5
-16711.5
-714.847
-17941.9
3605.35
-19701.1
7635.07
-25942.5
-28132.4
4187.86
-2592.6
-20659.9
18432
-9406.02
19741.3
-8361.02
-18567.4
6928.84
6249.44
-20047.6
8022.44
-17964
-19962.7
7946.44
8066.84
-20568.5
-18509.1
8400.06
-19376.7
6245.45
6768.31
-17963.5
1787.18
-18089.6
2401.83
-19643.3
-18963.3
-23509.5
144.563
-21893.2
-4275.64
-18713.1
-18616.4
-16657.1
-21165.4
6084.17
-19187.6
6484.19
8807.99
-22914.1
-18805.7
8026.38
8148.81
-19050.4
-21763.4
8052.57
-19318.5
5514.96
-22729.8
6209.04
-8430.52
-11831.6
5014.85
17500.7
96725.5
-309.553
6793.54
39813.8
-302.16
-5484.24
-3515.5
69278.8
28311.9
54447.7
42613.1
95822.3
162763
94264.4
199279
44641.3
33106.6
53088.2
18049.9
130437
275999
122135
241169
20080.2
6925.37
9216.72
18317.1
-22335.7
8870.29
-16894
4579.33
3425.32
-3410.77
8036.71
-7227.07
-2736.19
21698.3
22825
-5793.11
8911.23
7860.73
14728.2
472.588
-187.086
16665.2
-1271.31
16601.7
-2628.93
19298.3
17603.1
-112.211
879.744
15069.9
-3143.74
18267.4
-2000.37
16187.2
16166.4
16609.9
8875.39
-3253.91
10020.6
36.7042
9103.48
9787.98
34.5851
15805.4
15357.5
15882.4
-279.667
14255.4
213.98
-3900.45
16640.9
15067.5
-2824.71
-2479.36
15664.6
-3542.78
17414.4
13713.1
17.8052
-390.271
15174.1
13887.7
-7248.52
14162.7
-7732.52
-7239.57
-7188.46
14822.1
-7881.14
-7399.93
14466.5
-7005.18
-7049.19
-6547.89
13421.8
14090.7
-7519.81
12853.8
-5077.35
-6293.92
13852.3
14521.9
-6126.27
13460.1
-4974.52
-7481.01
13440.6
12834.8
-6475
-7531.84
14758.5
14007.1
-6592.49
15900.7
-5641.51
14670.4
-4616.68
-6605.08
14596.6
15438.4
-7509
14068.6
-4826.44
15200.5
-5910.95
-7251.42
17655.1
16253
-6246.2
19220
-3833.18
16812.1
-2648.14
-5827.46
16676.7
18559.4
-7050.58
16388.8
-3451.36
-4464.56
18223.4
16196.8
-8205.19
15598.5
-7660.41
-7383.13
-7428.12
15038.4
-7542.15
15496.2
-8033.16
-7609.33
-7593.52
-6459.26
15742.4
-7371.52
16864.9
15274.7
-4346.51
-5316.44
16625.4
17388.3
-4929.29
-3973.97
15861.9
-7458.72
16136.3
-6566.32
15175
14242.9
13818.2
7815.07
-3083.34
8546.28
-72.9873
7600.61
8762.02
-68.5127
14578.6
15016.4
13228.8
-713.768
-397.503
11993.9
-4929.72
13856.2
12613.2
-3637.74
-3495.57
13228.5
14529.3
-4717.53
11423.9
-516.64
-814.359
12609.1
12566.5
-276.659
-607.658
13864.4
-3100.01
14462.9
-4210.66
15908.3
14509
-500.448
13141.9
-138.601
-4479.34
15210.2
13843.8
-3317.97
16372.2
14618.7
5880.83
-4010.89
-4697.27
6837.43
-15521.7
7827.73
-17719.4
8401.28
6922.81
-4742.06
-4157.32
6120.19
-17117.8
8262.39
-15031.6
7514.47
-637.237
-435.019
-925.128
4522.72
5458.68
4120.43
-944.11
5313.77
4046.24
-303.47
-530.331
6730.18
-4622.49
5668.55
-3870.84
-15884
7936.61
6971.07
-14043.1
-14536.9
7242.18
-16491.2
8108.02
5441.96
-3736.81
-4547.46
6599.52
4441.17
-13350.8
4095.7
-13935.8
-11940.2
-12392.2
4078.68
-14522.6
-13883.2
4483.5
-11842.9
-11464.1
-13857.4
5649.7
5828.13
-14781.8
6082.33
-13400.8
-14700.3
6850.34
7019.34
-15327.5
6306.27
-13952.7
-14171.3
5724.13
5486.92
-13300.9
-15403.2
5921.47
5812.94
-14419.1
7337.72
-16601.6
6773.37
-15077.9
-14984.7
5974.32
6008.02
-16035.9
6535.11
-14510.2
7183.49
-15958.4
-17985.9
6203
6462.07
-16742.7
7866.4
-19235.2
7783.45
-17370.9
-17342.2
6639.01
6242.56
-18652.7
7494.35
-16794.2
-18578.8
7751.84
3987.4
-15733.3
4533.83
-14978.4
-12961
-12429.5
4516.44
-14422.3
4043.51
-15121.9
-12942
-13558.2
-16149.8
6302.77
-17317.2
6154.09
7006.29
-15641.6
-17254
7484.41
7625.21
-17905.7
-16217
7252.89
-16671.5
6085.13
-15564.3
6137.99
-102.794
-377.048
-721.358
3850.45
4386.58
3709.12
-694.754
4516.3
3772.46
-445.281
-195.675
6118.91
-4300.47
-3385.85
4778.52
-13538.5
7161.04
5928.51
-12067
-12553.5
6180.58
7362.58
-14113.5
4558.79
-3271.97
-4213.38
5943.69
5000.05
-3495.97
-4385.72
6284.99
-13542.3
6699.52
-15283.5
7758.95
6448.26
-4469.43
5221.08
-3614.01
-14695.4
7563.71
6438.92
-13046.2
8506.28
8241.05
4589.19
-2440.7
5372.98
-475.083
4389.54
5578.08
-461.662
8894.16
9181.27
8518.27
-1383.14
-1109.24
7554.41
-5641.86
8884.69
7936.77
-3855.71
-3908.02
8503.31
-5631.31
9464.93
7034.73
-1174.96
-1453.59
7973.49
8085.1
-1046.34
-1308.66
9078.07
-3944.24
9639.07
-5553.48
10662
9640.69
-1236.75
-975.529
8630.58
-5604.99
10056.6
-3935.2
9067.62
-7334.45
12165.6
11680.6
-6261.99
13196.7
-6421.72
12255.1
-5137.03
-6380.39
12257.5
12796.3
-7418
11667.7
-5169.44
12547.3
-6512.88
11006.3
-6939.86
11067.5
-6362.89
-5911.5
-5858.84
-6059.62
-6094.86
10520.4
-6179.82
-6764.76
10413.5
-6134.58
11117
-7232.68
11537.9
10498.7
-5137.7
-6582.78
11289.1
11917.9
-6561.99
11079
-5169.04
-7113.06
10933.2
10553.8
-5993.46
10247.1
10568.3
5554.53
-2638.92
6761.47
-292.945
5770.85
6542.89
-302.606
9869.74
9561.88
10286.9
-719.593
-992.106
11399.1
-3751.67
12006.8
-5106.86
13193.3
11998.8
-903.805
-620.25
10851.7
-5255.01
12549.5
11406.4
-3836.11
10800.5
-1076.07
-807.28
9733.3
-5482.66
11280.3
-3930.16
10222.4
9178.93
-895.472
10215.1
-1158.1
-3891.2
10811.5
11909.6
-5381.13
-5505.64
8916.72
9158.95
-6675.66
8258.27
-4817.23
-6403.67
8906.34
9482.9
-6490.93
-4925.87
8808.51
-6509.41
8602.99
8383.36
-5328.38
9437.27
-5777.64
9259.14
-6390.27
-5650.76
-5724.02
-5527.68
-5444.7
9831.08
-6582.67
9976.35
-5977.51
-6832.81
9742.92
-5678
9450.16
10676.2
-6579.41
-5084.86
9929.8
9365.48
-5012.78
-6545.79
10074.9
-5839.22
10002
-6980.32
10328.7
9348.05
10931.8
307.5
-126.651
-391.791
1919.93
2148.74
2529.56
-381.93
2262.98
2602.6
-136.371
279.777
4645.73
-3563.79
-2558.63
3138.08
-9297.03
5428.02
4016.41
-8338.55
-8776.32
4241.97
-9789.86
5657.52
2938.86
-2462.65
-3464.69
4448.47
3334.51
-2653.68
-3662.27
4836.36
-9685.57
4712.02
-10809.5
6104.44
5029.58
-3759.09
-2750.97
3525.72
-10294.2
5884.28
-9226.97
4477.41
-12971.3
5501.38
5154.38
-12210.2
6677.43
-14086.6
5859.53
-12852.7
-12749.7
5319.42
5616.63
-13567.9
5633.32
-12306.7
6503.49
-13475.1
4023.18
-11140.9
4063.31
-10804.7
-8841.26
-8815.91
3965.39
-10304.6
-10606.4
3976.08
-9240.44
-9315.38
-11670.3
4982.8
-12382.3
5384.86
5194.33
-11238.5
-12289.9
6135.66
6318.04
-12880.5
5413.55
-11766.4
-11805.5
5255.61
4813.48
-11135.9
-177.466
202.45
-468.248
2496.77
3074.47
3079.11
-464.579
2946.01
2981.33
245.607
-155.8
4137.35
-3059.17
-4037.96
5581.98
-11581.1
5677.5
-12974.2
6957.7
5765.38
-4129.44
-3166.19
4346.72
-12421.1
6744.59
5431.1
-11096.3
5401.98
-3947.91
-2956.59
3928.06
-11337.9
6320.22
-10150.4
4947.79
3724.87
-2851.6
5216.98
-3855.36
-10623.6
5187.22
6533.77
-11873.4
-9582.82
4289.17
4848.71
-10129.4
4321.09
-9182.2
-10040.1
5351.67
5554.68
-10578.8
-9682.92
4536.18
-9591.94
4695.7
4115.28
-9081.82
3765.77
-9341.78
3858.86
-9572.11
-8398.27
-8381.37
3920.14
-10083.3
3867.57
-9821.5
-7931.95
-7985.76
-10678.4
4986.81
-10091.5
4468.24
5946.43
-11708.6
-10711.2
4973.13
4754.88
-10193.7
-11139.8
5751.98
-10610.8
4639.64
-11236.3
5126.89
7402.35
-5625.44
-1512.1
6525.87
11430.9
-577.889
1924.65
-3317.74
-756.606
11422.5
-3882.75
12089.6
-3677.52
3234.44
-778.959
-406.388
-2593.81
11642
402041
130866
208614
212887
228481
475642
231247
-529.878
1964.55
-715.096
7827.12
1869.83
-442.493
7402.94
-669.627
8070.11
890.603
1716.72
2003.82
8548.3
-769.791
153149
352386
218625
347932
197455
176117
331612
79248.4
76046.4
128449
154019
157094
42552.6
106169
10838.5
-732.808
-4002.59
2566.34
10986.2
-620.753
-3601.5
10500.2
-3699.24
1618.19
-638.916
-725.892
-4116.15
10314.4
7639.65
-831.039
591.491
-3617.02
-894.091
7432.19
-4287.67
7891.37
-4284.89
-850.96
1479.01
-789.204
8105.38
-3650.53
-281.56
1811.29
6904.24
956.087
-341.374
1843.9
7233.41
-216.809
6721.32
-311.642
1709.84
1692.88
6427.32
-188.436
-436.587
954.346
-771.599
4208.42
954.307
-479.205
4051.88
-388.567
4420.51
1075.69
312.991
1073.51
-347.163
4592.92
4155.35
-1201.71
-609.568
-3340.41
-1269.2
3961.05
-4096.87
4366.26
-4125.25
-1226.69
253.974
-1164.06
4570.71
-3371.92
6970.8
-937.979
-4275.42
1162.09
7184.89
-876.33
-3586.54
6734.65
-3548
-923.058
275.244
-984.424
6525.79
-4261.32
-1003.63
31.8602
-1608.89
1493.04
43.1784
-1005.34
1381.24
-976.022
1678.18
155.213
-675.07
141.463
-968.916
1793.52
-569.06
837.083
3686.99
34.4311
-528.636
830.615
3832.17
-622.473
3467.75
716.01
-1009.19
717.415
-658.168
3332.8
-1303.19
-4061.12
3759.36
-65.6549
15284.6
3225.33
-1772.64
8992.3
4922.18
13288.9
3417.46
11039.4
-711.226
131.769
3307.19
12986.3
-3749.67
-323.917
24144
14836.9
23379.1
44306.1
29496.7
9030.95
22472.9
94736.2
52989.8
147052
98877.7
137468
105861
72913.7
-1070.8
3909.96
2256.98
11351.2
1226.44
10956.2
152.651
-839.198
9470.83
1648.95
-2532.19
-938.371
935.181
8635.92
6695.99
8932.27
20345.3
14918.6
23971
791.695
18115.2
14722
53597.9
85005.3
49036.1
32044.2
41433.2
34157.6
9524.56
-678.348
-3719.91
1254.63
-4230.62
9318.87
-747.111
9806.84
-4182.28
-729.289
2148.38
10012.5
-3724.98
-655.453
8832.91
-774.534
-4258.64
1804.88
9045.51
-3704.94
-711.033
8572.73
-3681.45
-747.205
915.99
8362.43
-4278.47
-810.194
-159.403
1449.35
-359.545
5815.92
1440.83
5581.7
-179.586
-160.48
5994.43
1567.17
818.119
-159.897
1575.32
6253.95
-230.844
1319.35
585.093
5182.57
1321.42
-198.244
5395.12
-266.188
4990.72
1199.81
-542.519
-303.863
1194.54
4797.93
5203.37
-1134.61
-4185.53
542.953
-3440.63
5410.9
-1073.72
4985.96
-3406.94
-1119.13
-331.307
4784.84
-4159.87
-1180.94
5843.97
-1024.06
-3476.02
-33.6491
5639.2
-4216.89
-1083.99
6076.55
-4238.66
-1032.94
847.407
6291.25
-3511.86
-973.564
-878.165
380.238
-458.007
2310.12
369.642
2426.3
-858.356
-919.793
2105.7
258.482
-1429.39
-932.955
264.833
1988.68
-789.483
485.372
-1230.67
2764.7
488.195
-815.879
2640.94
-741.04
2982.45
603.771
-222.04
-709.803
596.795
3110.07
)
;

boundaryField
{
    left
    {
        type            calculated;
        value           nonuniform List<scalar> 
290
(
-201.506
222466
-58.6518
-101.729
-201.793
-253.991
-154.718
-253.516
397404
-63807.8
250573
-50.9173
274830
-28766
-253.753
-248.715
-283.507
-1063.83
-734.761
1417.27
3103.17
-196.827
-199.573
-251.447
-254.085
-251.947
-271.531
-269.721
-244.675
-269.922
-247.117
-268.745
-250.432
93106.9
157304
3573.86
-1405.39
-270.735
171710
-7994.04
10106.2
559.907
-4075.58
122133
-219.672
-237.691
-293.166
-425.901
-390.326
-51.004
36737.4
22262.9
103.76
455.875
300.358
-170.391
-13.9575
56.3829
-50.6793
-48.5979
-202.073
-203.878
-205.132
-254.23
-279.217
-278.636
-196.125
-243.092
-210.764
-277.92
-202.953
-12607.2
284978
228.028
66.2126
-117.651
234242
136458
85313.4
24822.8
52637
13204.8
-209.929
-212.918
-251.774
-235.272
-234.985
-242.922
-236.534
-248.831
-398.076
-372.04
-277.874
-823.93
-620.915
-910.861
-608.473
-642.145
-832.994
3544.73
12327.8
24134.2
304.876
677.2
2295.04
-39.8888
-24.3415
-182.849
-201.804
-47.3527
-42.845
-252.636
-232.269
-231.073
-234.309
-233.426
-253.637
-206.527
-208.075
-278.293
-279.353
-253.853
-271.543
-282.913
-282.325
-281.68
-282.467
-270.759
-256.085
-254.338
-223.389
-279.286
-271.031
-264.999
-235.551
-264.615
-274.47
-280.798
-230.106
32287
211355
1217.27
31.9276
567.301
-1236.78
-1127.75
-1559.48
-203.569
-242.236
-401.434
175850
199914
219430
-11878.3
15672.3
17032.9
83172.1
10834.9
-5041.17
-519.645
3614.51
-1659.31
10599.1
6984.65
-1788.75
69093.6
95375.8
139408
-201.419
-143.512
-143.397
99612.4
13651.4
57847.6
-13.0423
64.9618
1.4452
-132.29
-81.1175
-47.8007
-143.323
-143.063
-202.102
411098
389000
331289
1870.56
2365.8
-5931.73
823.498
943.264
2097.64
-135.999
-132.92
-194.638
-200.642
-139.081
-137.975
-143.497
-201.16
-50.5079
-100.43
-102.184
-101.131
-50.6394
24392.8
44825.3
12491.1
42624.8
7078.52
10369.2
64843
181.048
72.1261
12.0818
267.24
129.09
283.55
93.1296
132.113
320.319
-113.804
-99.3962
-158.366
1.88523
-63.2272
-75.8165
-19.3653
-47.0194
23.0228
-49.5959
-101.575
-102.367
-101.349
-101.093
-48.8333
-202.191
-142.56
-141.473
-20577.9
-14991.6
-75319.8
434654
5248.97
1884.6
1870.61
7433.75
3321.88
7373.37
-5557.31
4794.41
3050.81
374.735
796.097
511.615
1042.41
599.595
344.329
1458.29
744.103
1497.1
-35.6294
-93.9073
-97.245
-84.1633
-89.8099
-30.7435
-188.494
-128.834
-122.321
-140.249
-139.738
-201.74
-45.4433
-100.181
-100.979
-99.3749
-99.8218
-44.1436
93265.4
127433
21142.8
36724.8
274970
320165
188333
224692
313437
348723
307966
)
;
    }
    bottom
    {
        type            calculated;
        value           nonuniform List<scalar> 0();
    }
    interface
    {
        type            calculated;
        value           nonuniform List<scalar> 
2123
(
501.78
69.2953
301.001
7556.18
214771
492.989
311.434
7380.56
5077.5
2783.77
4930.38
57.9998
2647.6
642.84
730.236
175.428
191.831
7568.02
9484.17
415.532
404.14
6289.97
6136.59
3757.59
3898.37
-81.28
553.22
-54.7785