/*--------------------------------*- C++ -*----------------------------------*\
| =========                 |                                                 |
| \\      /  F ield         | OpenFOAM: The Open Source CFD Toolbox           |
|  \\    /   O peration     | Version:  2012                                  |
|   \\  /    A nd           | Website:  www.openfoam.com                      |
|    \\/     M anipulation  |                                                 |
\*---------------------------------------------------------------------------*/
FoamFile
{
    version     2.0;
    format      ascii;
    class       volVectorField;
    location    "0.105/solid";
    object      sigmaMidDir;
}
// * * * * * * * * * * * * * * * * * * * * * * * * * * * * * * * * * * * * * //

dimensions      [1 -1 -2 0 0 0 0];


internalField   nonuniform List<vector> 
3125
(
(0.993572 -0.0757698 0.0841017)
(0.583108 0.812394 -8.01123e-05)
(0.903413 -0.428684 0.0086275)
(0.808273 0.463845 -0.362688)
(0.69539 0.718618 -0.00453959)
(0.626594 0.779341 -0.00278543)
(0.988019 -0.0234246 0.152547)
(0.913774 -0.405426 0.0254204)
(0.995964 0.0265735 0.0857312)
(0.928839 -0.351029 0.118473)
(0.987063 -0.0480455 0.152965)
(0.76402 -0.645131 -0.00894638)
(0.908105 -0.396134 0.135733)
(-0.664817 0.723855 -0.18453)
(-0.0925676 0.995676 0.00776408)
(0.812343 0.486911 -0.320961)
(0.902457 0.430763 -0.00373332)
(0.59535 0.793507 -0.126114)
(-0.176717 0.984261 -0.00104337)
(0.945564 -0.320477 -0.056606)
(-0.00506729 0.999946 0.0090195)
(0.778548 0.625976 -0.044916)
(0.587591 0.809158 -0.000340868)
(0.623193 0.782063 -0.00263631)
(0.755541 -0.655044 -0.00866132)
(-0.0817313 0.996601 0.0102691)
(-0.0902245 0.995864 0.0106955)
(-0.61207 0.790788 0.00503509)
(0.903006 0.429607 -0.00417197)
(0.907147 0.420724 -0.0086523)
(-0.175598 0.984461 -0.00139837)
(0.0190247 0.999663 0.0176407)
(0.00928239 0.999847 0.0148272)
(-0.17154 0.985162 -0.00553562)
(-0.389142 0.921177 0.000765236)
(-0.080772 0.996687 0.00949618)
(-0.600122 0.799894 0.00479693)
(-0.0733777 0.997294 0.00442665)
(0.915958 0.40106 -0.0131369)
(0.907603 0.419733 -0.00893987)
(-0.184128 0.982861 -0.00903589)
(0.0180524 0.999696 0.016778)
(-0.171912 0.985095 -0.00576274)
(0.0156574 0.999813 0.0113369)
(0.705245 0.708949 -0.00465866)
(-0.372779 0.92792 0.00045247)
(0.91681 0.399098 -0.0134586)
(-0.185563 0.982589 -0.009227)
(0.987607 0.156947 0.000354353)
(0.978375 0.206697 -0.00765962)
(0.997685 0.0678274 0.00498137)
(0.234261 -0.0328638 0.971618)
(0.860716 -0.389187 0.328178)
(0.623802 0.781582 0.000719923)
(0.726554 -0.684978 0.0540767)
(0.481247 0.876573 0.00469826)
(-0.564352 0.81022 -0.158276)
(0.656275 0.754513 -0.00376049)
(0.651743 0.758432 -0.00362861)
(0.999686 0.0249333 -0.00242758)
(0.999622 0.00977742 0.0257059)
(0.956286 -0.279129 0.087205)
(0.95918 -0.269679 0.0851266)
(0.998735 0.0501765 -0.00327445)
(0.985401 0.170098 -0.00718611)
(0.999274 0.027569 0.02631)
(0.952415 -0.268201 0.144825)
(0.994035 0.107072 0.0207376)
(0.999407 0.0236365 0.0250342)
(0.966098 -0.210109 0.150027)
(0.996042 0.086255 0.0214763)
(0.975249 0.188558 -0.115481)
(0.936889 -0.349386 -0.0129776)
(0.977111 0.170696 -0.126954)
(0.995491 -0.0924636 0.021165)
(0.848679 -0.525056 0.0637175)
(0.76549 -0.539952 0.349967)
(0.262861 0.294956 0.918643)
(-0.109173 0.993097 -0.0428785)
(0.988312 0.141529 -0.0566455)
(0.96036 0.196157 -0.198071)
(-0.543793 0.627716 -0.557011)
(0.980013 -0.0842229 -0.180226)
(-0.105609 0.994236 -0.0184883)
(0.966487 0.172663 -0.189976)
(0.980948 -0.19359 -0.0162227)
(0.0273825 -0.634406 0.772515)
(0.9821 0.178954 -0.0587876)
(0.97526 0.17302 -0.137597)
(-0.338686 0.691569 -0.637984)
(0.911158 0.412057 -0.000204934)
(0.89073 0.454533 0.000900157)
(-0.117534 0.993067 0.00168423)
(-0.199037 0.979992 0.000810488)
(0.0752569 0.996652 -0.0319703)
(-0.620251 0.763726 -0.178917)
(0.989655 0.114155 0.0868955)
(0.356916 0.926175 -0.121699)
(-0.0938381 0.995581 0.00345506)
(-0.267277 0.960332 -0.0795358)
(0.0147398 0.999244 -0.0359791)
(-0.194307 0.980941 -9.82568e-05)
(0.982687 0.180744 0.0407087)
(0.755092 0.645775 -0.113186)
(0.603373 0.797458 -0.00154607)
(0.606026 0.795443 -0.0017103)
(0.970953 0.209668 -0.115277)
(-0.694156 0.719792 0.00687785)
(0.843063 0.527237 -0.106142)
(-0.0846819 0.996332 0.0123087)
(-0.074361 0.997226 0.00333136)
(-0.102858 0.994659 0.00852483)
(-0.202084 0.979032 0.0256541)
(-0.0857676 0.996234 0.0126924)
(-0.117769 0.992978 0.0111451)
(-0.685136 0.728385 0.00664872)
(0.143657 0.989294 -0.025697)
(0.586797 0.805971 -0.0779735)
(0.904523 0.426377 -0.00647057)
(0.904878 0.425617 -0.00677274)
(-0.126851 0.991914 0.00393299)
(-0.170858 0.985289 -0.00355427)
(-0.134512 0.99089 0.00659002)
(0.0216487 0.999571 0.019706)
(-0.0927528 0.995638 0.0101296)
(-0.0996537 0.994969 0.0102911)
(-0.0993895 0.995027 0.00652036)
(0.0216389 0.999568 0.0198663)
(-0.101371 0.994798 0.0100367)
(-0.170726 0.985311 -0.00381498)
(-0.129662 0.991533 0.00705811)
(-0.133997 0.990958 0.00685773)
(-0.493569 0.869702 0.0027512)
(0.0182641 0.99977 -0.0112591)
(0.037634 0.999201 -0.013426)
(-0.0684886 0.997649 0.00221888)
(-0.077807 0.996942 0.00721402)
(-0.0559922 0.998431 -0.000202667)
(-0.507579 0.8616 0.00301568)
(0.104889 0.994259 -0.0211389)
(0.047727 0.998754 -0.0145592)
(-0.0452364 0.998974 -0.0022791)
(-0.076759 0.997028 0.00649887)
(-0.0531164 0.998588 -0.000755209)
(0.911417 0.411333 -0.0111332)
(0.910807 0.412691 -0.0108368)
(-0.176876 0.984204 -0.00755797)
(-0.113246 0.993544 0.00672136)
(-0.120123 0.992735 0.00693111)
(-0.0902965 0.995865 0.00995136)
(0.0160372 0.99977 0.0142673)
(-0.0828583 0.996518 0.00930833)
(-0.175923 0.984376 -0.00735018)
(-0.127887 0.991764 0.00704636)
(-0.122212 0.992479 0.00697329)
(-0.0727122 0.997319 0.00829066)
(0.0157033 0.999786 0.0134943)
(-0.0804206 0.99672 0.00908939)
(0.863916 0.502527 -0.0334182)
(0.86309 0.503849 -0.0348004)
(0.867397 0.496666 -0.0307497)
(0.63104 0.730239 -0.261801)
(0.90485 0.425678 0.0066184)
(0.860965 -0.0854326 0.501438)
(0.577083 0.816685 0.000585873)
(0.74625 -0.64091 0.179847)
(0.869892 -0.492208 0.0319261)
(0.711221 -0.678251 0.18477)
(0.789018 0.607196 -0.0936143)
(0.0957345 0.993716 -0.0579898)
(-0.401033 0.854378 -0.330471)
(0.676915 0.736049 -0.00422334)
(0.635588 0.772022 -0.00314187)
(0.992455 0.117257 -0.035827)
(0.997551 -0.0216655 0.0665063)
(0.739467 -0.642929 0.199578)
(0.917055 -0.395761 0.048829)
(0.700208 -0.664326 0.261494)
(0.860224 -0.0874047 0.502369)
(0.987541 -0.131352 0.0866525)
(0.822901 -0.301795 0.481407)
(0.981797 0.186459 -0.0361744)
(0.95977 0.27845 -0.0361698)
(0.983095 -0.160812 0.0875468)
(0.934065 -0.333756 0.127006)
(0.989157 -0.128176 0.0716875)
(0.996978 -0.0402121 0.0664711)
(0.984395 -0.0863985 0.153302)
(0.995951 -0.0607552 0.0662672)
(0.251796 0.967654 -0.0156257)
(0.802338 -0.596787 -0.00999459)
(0.561329 0.827105 -0.028396)
(0.964016 -0.23943 0.115526)
(0.893174 -0.426421 0.142851)
(0.93139 -0.333531 0.145844)
(-0.604567 0.794874 0.0517056)
(0.335759 0.941934 -0.00510959)
(0.878267 0.474933 -0.0555493)
(0.635799 0.761022 -0.128857)
(0.887754 0.183581 -0.422127)
(-0.0966994 0.995295 0.00611609)
(-0.0958317 0.995394 0.00272848)
(-0.0917294 0.995784 7.88486e-05)
(0.368425 0.928737 -0.0413612)
(-0.121412 0.955422 -0.269123)
(0.968644 0.224916 -0.105551)
(0.689815 0.718577 -0.0883366)
(0.891723 0.120409 -0.43627)
(0.902041 0.431645 -0.0022974)
(0.873188 0.487369 -0.00379063)
(0.807761 -0.588508 -0.0343659)
(-0.180282 0.983615 0.000108377)
(0.829968 -0.556781 -0.033873)
(0.952557 -0.280966 0.117021)
(0.81465 -0.573078 -0.0890355)
(0.876653 -0.370926 0.306421)
(-0.0392515 0.999227 0.00230859)
(-0.0336691 0.999431 -0.00198447)
(-0.0487297 0.998792 -0.0062627)
(0.326212 0.945282 0.00529674)
(0.964857 0.259182 -0.0433201)
(0.833634 0.551021 -0.0378321)
(0.594441 0.804139 -0.000892506)
(0.615331 0.788265 -0.00226327)
(0.18738 0.982227 -0.0109071)
(0.729015 -0.684453 -0.00785315)
(0.225868 0.974043 -0.0149362)
(-0.0826853 0.996515 0.0110304)
(-0.086013 0.996264 0.00769728)
(-0.0882367 0.996063 0.00854169)
(-0.098643 0.995079 0.00936596)
(-0.0884039 0.99601 0.0121594)
(-0.0982979 0.995099 0.0107209)
(-0.645185 0.764005 0.00572912)
(0.187316 0.982165 -0.0162731)
(0.186089 0.982436 -0.0138089)
(0.903504 0.428549 -0.00524158)
(0.906129 0.422928 -0.00786574)
(0.798251 -0.601311 -0.0349225)
(-0.172663 0.984978 -0.00239742)
(0.797437 -0.602313 -0.0362442)
(0.0200454 0.999629 0.0184632)
(-0.0194615 0.999741 0.0117998)
(-0.0206074 0.999714 0.01215)
(-0.0334775 0.999414 0.00717601)
(0.0167847 0.999698 0.0179407)
(-0.0296403 0.99951 0.010019)
(-0.170914 0.985274 -0.00481719)
(0.743857 -0.667163 -0.0396271)
(0.771237 -0.635264 -0.0404206)
(-0.435181 0.900341 0.0016502)
(0.0835989 0.996395 -0.0144084)
(0.118847 0.9928 -0.01497)
(-0.0838821 0.996452 0.00688406)
(-0.0798037 0.996772 0.00871614)
(-0.0818232 0.996628 0.0060997)
(-0.56202 0.827114 0.00405359)
(0.175637 0.984348 -0.0145206)
(0.16375 0.986369 -0.0161774)
(-0.0705885 0.997503 0.00216208)
(-0.0745636 0.997203 0.00509181)
(-0.0724113 0.997371 0.00275983)
(0.913932 0.405683 -0.0122694)
(0.908768 0.417188 -0.00973597)
(-0.181044 0.983439 -0.00839522)
(-0.596662 0.80159 0.038045)
(-0.633323 0.772832 0.0404089)
(-0.0183558 0.999767 0.0113977)
(0.0172142 0.999725 0.0159129)
(-0.0172545 0.999791 0.0109715)
(-0.173114 0.984881 -0.00646175)
(0.74807 -0.662331 -0.0413333)
(0.71504 -0.69794 -0.039973)
(-0.0101236 0.999913 0.00844302)
(0.0155018 0.999808 0.0120187)
(-0.0114132 0.999896 0.00886736)
(0.101841 0.994687 -0.0150342)
(-0.579217 0.814269 0.0383758)
(0.888235 0.457998 -0.0357278)
(0.873373 0.485777 -0.0352248)
(0.947443 0.319434 -0.0176844)
(0.977267 0.211984 -0.00346154)
(0.935537 0.352296 -0.0256532)
(0.946315 0.32161 -0.0324827)
(0.974996 0.222128 -0.00651067)
(0.937031 0.347946 -0.0300927)
(0.963361 0.268191 -0.00298833)
(0.996934 -0.0733555 0.0272319)
(0.989099 0.142965 0.0352858)
(-0.326409 -0.558679 0.762454)
(0.920504 -0.000391009 0.390734)
(0.932305 0.338748 0.126718)
(0.950653 -0.273788 0.145944)
(0.921901 -0.230458 0.311429)
(0.989708 0.000176989 0.1431)
(0.55991 0.828553 0.00115635)
(0.838798 -0.544365 0.00920105)
(-0.565769 0.798116 -0.207161)
(-0.691389 0.700502 -0.176856)
(0.748462 0.659971 -0.0651368)
(0.17522 0.959004 -0.222734)
(-0.510412 0.827739 -0.233082)
(-0.343982 0.927698 -0.145097)
(0.671264 0.741207 -0.00408889)
(0.640094 0.76829 -0.00328241)
(0.998456 0.0466621 -0.0301513)
(0.998164 -0.00452859 0.0603947)
(0.924033 -0.37773 0.0590149)
(0.681398 -0.635784 0.362594)
(0.684805 -0.668712 0.289598)
(0.993288 -0.0713707 0.091022)
(0.697603 -0.601505 0.389285)
(0.79963 -0.378794 0.465947)
(0.908715 0.415859 -0.0360313)
(0.934471 0.354209 -0.03604)
(0.995861 0.0854719 -0.0309221)
(0.996483 0.0836734 -0.00453608)
(0.98929 0.142456 -0.0318142)
(0.961577 0.272533 -0.0331066)
(0.992119 0.125155 -0.00595362)
(0.977471 0.208526 -0.0326606)
(0.995591 -0.0712672 0.0609799)
(0.99543 0.0923966 0.0241448)
(0.998158 -0.0209815 0.0569188)
(0.942044 -0.306539 0.136337)
(0.992316 -0.105386 0.064834)
(0.991523 -0.112094 0.065706)
(0.993487 0.111939 0.0212874)
(0.998461 -0.000205079 0.0554545)
(0.998477 -0.00269911 0.055101)
(0.998178 -0.00577318 0.0600659)
(0.998899 0.0404037 0.0238359)
(0.998196 -0.00716141 0.059608)
(0.977578 -0.145014 0.152683)
(0.993204 -0.0962897 0.0653693)
(0.994439 -0.0821589 0.0658834)
(0.997856 0.0614305 0.0225755)
(0.998365 -0.00342014 0.0570529)
(0.998259 -0.00646765 0.0586196)
(0.961187 -0.267658 -0.0669251)
(0.97671 0.179989 -0.116801)
(0.987599 -0.140599 -0.0698546)
(0.82215 -0.569174 -0.0105286)
(0.935108 0.350373 -0.0530255)
(0.64455 0.763776 -0.0346695)
(0.977754 0.172016 -0.12003)
(0.986064 0.145719 -0.0802687)
(0.997264 -0.00913496 -0.0733562)
(0.981343 -0.182179 0.0614519)
(0.969373 -0.244397 0.024201)
(0.944554 -0.323145 0.0582642)
(0.744115 -0.57943 0.332496)
(0.797754 -0.574019 0.184635)
(0.806372 -0.555626 0.202595)
(0.853906 -0.499005 0.147777)
(0.687698 -0.644524 0.334157)
(0.795589 -0.592574 0.126071)
(0.976665 0.201845 0.0733772)
(0.820109 -0.238463 0.520151)
(0.895662 -0.277247 0.347742)
(-0.193006 0.977942 -0.0798645)
(0.0605915 0.992827 -0.103073)
(-0.00504222 0.992186 -0.124668)
(0.980829 0.186368 -0.0569308)
(0.938341 0.335487 -0.0834574)
(0.973785 0.158115 -0.163534)
(0.887129 0.447107 -0.114447)
(0.967309 0.188408 -0.169753)
(0.89904 0.319167 -0.299765)
(0.791887 0.576792 -0.200564)
(0.645386 0.717266 -0.262691)
(0.727218 -0.47813 0.49249)
(0.814772 -0.471955 0.336757)
(0.871256 -0.375224 0.316419)
(-0.066084 0.997802 -0.00484397)
(0.972798 0.142591 -0.182568)
(-0.0223041 0.999551 -0.0200303)
(-0.0995823 0.995012 -0.00585419)
(-0.0519671 0.998121 -0.0324582)
(-0.0765894 0.996988 -0.0121919)
(0.967993 0.169636 -0.18497)
(0.830254 0.482859 -0.278435)
(0.215589 0.971867 -0.0948483)
(0.977366 0.204426 -0.054457)
(0.928565 0.366239 -0.0603041)
(0.807607 0.57869 -0.113533)
(0.938556 -0.320555 -0.127894)
(0.0263435 -0.673002 0.739172)
(0.349377 -0.661117 0.663973)
(0.9599 0.275292 -0.0529691)
(0.937477 0.342369 -0.0626059)
(0.964616 0.170483 -0.201128)
(0.987086 0.144751 -0.0686214)
(0.911043 0.270727 -0.310979)
(0.984041 0.153626 -0.0897933)
(0.741962 0.653877 -0.148111)
(0.848619 0.514484 -0.123092)
(0.168411 -0.693333 0.700662)
(0.752258 -0.547203 0.366984)
(-0.607642 0.655409 -0.448564)
(0.899325 0.437279 -0.00157078)
(0.578728 0.815221 -0.0221178)
(-0.0660487 0.997795 -0.00645897)
(-0.0987752 0.995107 -0.00212798)
(-0.0387844 0.999207 -0.00899018)
(-0.18131 0.983426 0.000498743)
(0.997115 0.060334 -0.0460492)
(0.877963 -0.477366 -0.0360839)
(-0.0619132 0.998031 -0.0100164)
(0.315962 0.947969 -0.0390284)
(0.054091 0.998382 -0.0175449)
(0.855087 -0.477541 0.201943)
(-0.195391 0.975001 -0.105803)
(-0.438418 0.862407 -0.25307)
(0.978387 0.00292983 0.206762)
(0.894648 0.446251 -0.021569)
(0.744127 0.667993 0.00775746)
(-0.0124984 0.996185 -0.0863726)
(0.611971 0.777719 -0.143682)
(0.218017 0.955578 -0.198342)
(-0.068717 0.997611 0.00715033)
(-0.0811489 0.9967 -0.00189569)
(-0.0654858 0.997853 0.000409092)
(-0.0950311 0.995186 -0.0239523)
(-0.106523 0.993011 -0.0508132)
(-0.0666302 0.997559 -0.0208684)
(-0.0596063 0.998154 -0.0116237)
(-0.0460241 0.99831 -0.0354931)
(-0.0614578 0.998049 -0.0109651)
(0.236878 0.971443 -0.0136814)
(0.984829 0.165104 -0.053408)
(0.883671 0.464885 -0.0548387)
(0.975134 0.221387 0.0101011)
(0.919326 0.392634 -0.0260386)
(0.91184 0.410377 -0.0118092)
(0.806039 0.587434 -0.0722644)
(0.694979 0.71274 -0.0948986)
(0.803991 0.59117 -0.0641581)
(0.597219 0.802077 -0.00108405)
(0.6126 0.79039 -0.0021119)
(0.937909 -0.340673 -0.0653273)
(0.960994 0.251367 -0.115345)
(0.916608 -0.39458 -0.0643196)
(0.720806 -0.693095 -0.00760558)
(0.220516 0.975258 -0.0156597)
(0.185249 0.982624 -0.0115286)
(0.933744 0.339247 -0.114163)
(0.867774 -0.493016 -0.0624731)
(0.894708 -0.442113 -0.0635124)
(-0.083666 0.996425 0.0117279)
(-0.0928106 0.995632 0.01014)
(-0.0905245 0.99585 0.00937612)
(-0.0725254 0.997366 0.000986785)
(-0.0818833 0.996631 0.00473515)
(-0.0753972 0.997152 0.00171249)
(-0.0816494 0.996656 0.00319244)
(-0.0913022 0.995802 0.00645822)
(-0.0784882 0.996912 0.00246972)
(-0.0823748 0.996601 0.00123627)
(-0.160452 0.986871 0.0184501)
(-0.0867371 0.996225 0.00342031)
(-0.0869818 0.996129 0.0127208)
(-0.0950258 0.995417 0.0107602)
(-0.0969778 0.995225 0.0110528)
(-0.136417 0.990548 0.0143531)
(-0.0846036 0.996408 0.00377887)
(-0.0867689 0.99622 0.00400978)
(-0.655226 0.755409 0.0059546)
(0.190813 0.981542 -0.0128576)
(0.206906 0.978228 -0.0161097)
(-0.643904 0.763497 0.0495872)
(0.208463 0.97746 -0.0333891)
(0.720116 -0.691709 -0.0545052)
(0.831788 -0.55175 -0.0608353)
(0.334583 0.941122 -0.0484102)
(0.783164 -0.61908 -0.0582559)
(0.903834 0.427847 -0.00558429)
(0.90572 0.423808 -0.00758017)
(-0.081118 0.996692 -0.00508231)
(-0.131906 0.991248 0.00528281)
(-0.0872845 0.996173 -0.00461147)
(-0.172001 0.985093 -0.00269803)
(0.785421 -0.617806 -0.0378052)
(0.796336 -0.603706 -0.0372739)
(-0.13404 0.990957 0.00610858)
(-0.0928577 0.99567 -0.00441163)
(-0.0909218 0.995848 -0.00441312)
(0.020983 0.999596 0.0191841)
(-0.023208 0.999653 0.0124837)
(-0.0218425 0.999684 0.0124047)
(-0.0575048 0.998238 0.0146616)
(-0.095199 0.995405 0.0102712)
(-0.0596962 0.998104 0.0150009)
(-0.0640182 0.997831 0.0153401)
(-0.0975575 0.995176 0.0103442)
(-0.0618898 0.997966 0.0152519)
(-0.0693997 0.997528 0.0110162)
(-0.101998 0.994749 0.00838438)
(-0.0690543 0.997524 0.0133229)
(0.0203505 0.999605 0.0194082)
(-0.0248421 0.999616 0.0122666)
(-0.0268889 0.999572 0.0115461)
(-0.102289 0.99471 0.00945988)
(-0.0660297 0.997702 0.0151687)
(-0.0677583 0.997595 0.014576)
(-0.170731 0.985307 -0.00457904)
(0.787641 -0.614893 -0.0390899)
(0.767396 -0.639992 -0.0389004)
(-0.0983476 0.995141 -0.00472249)
(-0.131364 0.991309 0.00704914)
(-0.0971065 0.995263 -0.00463574)
(-0.0944379 0.995521 -0.00446624)
(-0.132856 0.991111 0.00699275)
(-0.0957945 0.995391 -0.00454884)
(-0.44956 0.893248 0.00192954)
(0.138956 0.990185 -0.0149962)
(0.108306 0.994003 -0.0150616)
(-0.180371 0.98348 0.0152716)
(0.0230751 0.999664 -0.0117828)
(-0.21064 0.977403 0.017725)
(-0.289946 0.956743 0.0239527)
(0.0292328 0.999495 -0.0124648)
(-0.246601 0.968899 0.0205802)
(-0.0699329 0.997552 0.0003278)
(-0.0635942 0.997975 0.00127749)
(-0.0675374 0.997717 -0.000283051)
(-0.0788195 0.996857 0.00796195)
(-0.077929 0.996948 0.00465899)
(-0.0798573 0.996792 0.00536822)
(-0.0596118 0.998222 0.000505843)
(-0.0633274 0.997992 -0.00133203)
(-0.0653628 0.997861 -0.000829886)
(-0.548976 0.835829 0.00379988)
(0.135892 0.990599 -0.0157105)
(0.159627 0.987064 -0.0149319)
(-0.560244 0.827165 0.0438615)
(0.079453 0.996673 -0.0181884)
(-0.477972 0.877553 0.0379994)
(-0.341878 0.939329 0.0279182)
(0.0611512 0.997999 -0.0160847)
(-0.404313 0.91404 0.0325954)
(-0.0560572 0.998423 -0.00299335)
(-0.0478129 0.998855 -0.00177373)
(-0.0578327 0.998323 -0.00259843)
(-0.0756768 0.997116 0.00579985)
(-0.0760694 0.997094 0.00400561)
(-0.0742367 0.997235 0.00337829)
(-0.0504269 0.998727 -0.00126938)
(-0.0614497 0.998109 -0.00177487)
(-0.0596245 0.998218 -0.00219369)
(0.913229 0.40727 -0.0119602)
(0.909333 0.415948 -0.0100276)
(-0.179849 0.98366 -0.00819347)
(-0.679461 0.732539 0.0414688)
(-0.641784 0.765877 0.0393044)
(-0.110178 0.993902 -0.00449226)
(-0.115722 0.993258 0.00682594)
(-0.109145 0.994015 -0.00455775)
(-0.10631 0.994322 -0.00471239)
(-0.118043 0.992984 0.00689898)
(-0.107858 0.994156 -0.00463062)
(-0.0553349 0.998366 0.0142762)
(-0.0878167 0.996089 0.00974897)
(-0.0531742 0.998489 0.0138607)
(0.0165389 0.99975 0.0150787)
(-0.0150139 0.999836 0.010118)
(-0.01615 0.999814 0.0105482)
(-0.0853706 0.996304 0.00953999)
(-0.0489196 0.998718 0.0130008)
(-0.0510492 0.998606 0.0134376)
(-0.173849 0.98475 -0.00667996)
(-0.681176 0.731032 0.0399015)
(0.717648 -0.695155 -0.0417288)
(-0.0997823 0.994998 -0.00478205)
(-0.126028 0.992002 0.00702258)
(-0.101261 0.994848 -0.0048177)
(-0.104704 0.994492 -0.00476847)
(-0.124179 0.992235 0.00700287)
(-0.102996 0.99467 -0.00480705)
(-0.0403843 0.999121 0.0112172)
(-0.0753555 0.99712 0.00859057)
(-0.0425519 0.999026 0.0116876)
(0.015534 0.999798 0.0127521)
(-0.013854 0.999857 0.00970168)
(-0.012656 0.999877 0.00928767)
(-0.0779383 0.996919 0.00885848)
(-0.0468138 0.998824 0.0125741)
(-0.0446949 0.998927 0.0121409)
(0.998116 -0.0309139 0.0530046)
(0.982178 -0.0545069 0.179875)
(0.995572 0.0420607 0.0840701)
(0.996402 -0.0548824 0.06459)
(0.983479 -0.0116784 0.180645)
(0.997769 -0.0390043 0.0541774)
(0.996968 -0.0458266 0.062889)
(0.581929 0.81324 0.000108175)
(0.872585 -0.479653 0.0923486)
(0.88124 -0.471666 0.0307841)
(0.894454 -0.417692 0.159642)
(0.898062 -0.439558 0.0165396)
(0.885146 -0.462253 0.0532767)
(0.895261 -0.423767 0.137582)
(0.871916 -0.488216 0.0375171)
(-0.641885 0.147194 0.752541)
(0.796263 0.407403 -0.4472)
(0.586933 0.618424 -0.522552)
(0.64073 0.60982 -0.46646)
(0.790515 -0.146342 -0.594702)
(0.649645 0.492512 -0.579132)
(0.427359 0.715047 -0.553238)
(0.689933 0.72386 -0.00444007)
(0.628955 0.777436 -0.00289458)
(0.898485 -0.436438 0.0474005)
(0.891168 -0.452387 0.034142)
(0.908593 -0.392793 0.142026)
(0.910649 -0.412473 0.024183)
(0.895072 -0.441124 0.0652355)
(0.909424 -0.387288 0.151512)
(0.893625 -0.447809 0.030032)
(0.996519 -0.0616695 0.0560923)
(0.982922 -0.032211 0.181184)
(0.996602 -0.0494392 0.0658875)
(0.992225 -0.0901904 0.0857685)
(0.997479 -0.0444137 0.0553428)
(0.980386 -0.0775689 0.181178)
(0.995237 -0.0715074 0.066252)
(0.169306 0.985562 0.0019954)
(0.832825 0.55349 -0.00713861)
(0.921423 -0.388045 -0.0200174)
(0.775276 -0.631554 -0.00925672)
(0.833005 0.553217 -0.00729512)
(0.922475 -0.385537 -0.0200379)
(0.170187 0.98541 0.00192654)
(0.902471 0.430737 -0.00331156)
(0.913153 0.380025 -0.147422)
(-0.250617 0.968085 -0.00177485)
(-0.135809 0.990734 -0.00156922)
(0.893974 -0.448047 -0.00796257)
(-0.177973 0.984035 -0.000669001)
(-0.135602 0.990762 -0.00138616)
(0.893329 -0.449341 -0.00748791)
(-0.248071 0.96874 -0.00208658)
(0.946766 0.321716 0.0115205)
(0.730049 0.681699 0.0481041)
(0.951697 0.291491 -0.0964662)
(0.852958 0.521481 -0.0228184)
(0.964361 0.263201 -0.0270648)
(0.928797 0.369205 0.0320151)
(0.926678 0.374052 -0.0367942)
(0.589233 0.807963 -0.000513897)
(0.620656 0.784079 -0.00252501)
(0.174603 0.984638 0.00156704)
(0.832471 0.554022 -0.00711198)
(0.922255 -0.386062 -0.0200631)
(0.746461 -0.665376 -0.00838421)
(0.174167 0.984715 0.00163032)
(0.832584 0.553855 -0.00700355)
(0.922197 -0.386199 -0.020083)
(0.184397 0.982852 -0.000169177)
(-0.623735 0.781618 0.00527286)
(0.836336 0.548172 -0.00702648)
(0.915902 -0.400823 -0.0215573)
(0.836433 0.548024 -0.00702148)
(0.916814 -0.39874 -0.0214)
(0.183785 0.982966 -0.000168846)
(0.903002 0.429611 -0.00453973)
(0.906783 0.421513 -0.00839428)
(-0.246337 0.969181 -0.00249929)
(-0.131892 0.991262 -0.00187597)
(0.894099 -0.447789 -0.00846574)
(-0.174472 0.984661 -0.00174529)
(-0.24902 0.968496 -0.00216002)
(-0.126749 0.991932 -0.00222682)
(0.894471 -0.447038 -0.0088725)
(-0.250923 0.967997 -0.00441544)
(-0.171425 0.985183 -0.00529398)
(-0.111717 0.993723 -0.00586501)
(0.889132 -0.457456 -0.0133103)
(-0.108664 0.994062 -0.00573463)
(0.889858 -0.45605 -0.0130587)
(-0.251145 0.967938 -0.00464076)
(0.190355 0.981714 -0.00159379)
(-0.404799 0.914405 0.00107171)
(0.841553 0.540109 -0.00837241)
(0.882741 -0.469173 -0.0253985)
(0.842071 0.539303 -0.00830208)
(0.885581 -0.463806 -0.0251066)
(0.189448 0.981889 -0.00155735)
(0.184148 0.982899 -0.000362448)
(-0.58794 0.808891 0.00455612)
(0.836855 0.547379 -0.00711576)
(0.914837 -0.403237 -0.0217572)
(0.837312 0.546679 -0.00712773)
(0.185739 0.982599 -0.000380625)
(0.913765 -0.40565 -0.0219345)
(0.915216 0.402758 -0.0128499)
(0.907862 0.419167 -0.00919747)
(-0.272291 0.962198 -0.00571027)
(-0.183356 0.983007 -0.00881083)
(-0.210079 0.977671 -0.00506556)
(0.871252 -0.490508 -0.0179188)
(-0.209518 0.977792 -0.00495466)
(0.872646 -0.488034 -0.0176501)
(-0.272902 0.962024 -0.00589032)
(-0.253266 0.967384 -0.00485852)
(-0.172166 0.98505 -0.00599998)
(-0.116534 0.993169 -0.00592775)
(0.888404 -0.458861 -0.0136327)
(-0.252781 0.967512 -0.00463868)
(-0.118082 0.992985 -0.00609952)
(0.887671 -0.460269 -0.0138967)
(0.841975 0.539449 -0.00854716)
(0.878636 -0.4768 -0.025689)
(0.192308 0.981333 -0.00177489)
(-0.218426 0.975842 -0.0048059)
(0.869638 -0.493352 -0.0182464)
(-0.273662 0.961808 -0.00587951)
(0.536043 0.844188 0.0022779)
(0.76371 -0.633489 -0.12425)
(0.73148 -0.681562 -0.0202626)
(0.839786 -0.539682 0.0591786)
(-0.681081 0.730309 -0.0527031)
(-0.6824 0.711274 -0.16858)
(0.20175 -0.541948 0.815836)
(-0.704927 0.70844 -0.0345011)
(0.748549 0.663068 -0.00390076)
(-0.298185 0.826072 -0.478216)
(0.0897978 0.894172 -0.438625)
(-0.0141026 -0.607466 0.794221)
(-0.559962 0.822539 -0.099359)
(-0.345977 0.793829 -0.500135)
(0.758865 -0.132833 -0.637558)
(-0.380844 0.910973 -0.158385)
(0.660559 0.750764 -0.00386193)
(0.647817 0.761788 -0.00352457)
(0.933619 -0.353598 0.0576439)
(0.938004 -0.338149 0.0761836)
(0.94311 -0.282096 0.175971)
(0.925044 -0.374993 0.0606166)
(0.944629 -0.32275 0.0592294)
(0.932539 -0.318661 0.16978)
(0.915484 -0.398513 0.0554572)
(0.966466 -0.249859 0.0592755)
(0.980825 -0.171577 0.0924278)
(0.949117 -0.261969 0.174784)
(0.936529 -0.344743 0.0637609)
(0.956318 -0.286174 0.0596716)
(0.96033 -0.212766 0.180268)
(0.948337 -0.310503 0.0651477)
(0.168423 0.98571 0.00295466)
(0.898671 -0.438454 -0.0122044)
(0.828508 0.559875 -0.0107346)
(0.99358 -0.110365 -0.0248847)
(0.873442 0.486836 -0.00942372)
(0.251495 0.967858 0.000786622)
(0.976368 -0.214883 -0.023033)
(0.619505 0.784816 -0.0166774)
(0.992702 -0.119208 -0.0182046)
(0.99489 -0.0988076 -0.0207629)
(0.998991 0.0332475 -0.0301913)
(0.857335 0.514328 -0.021068)
(0.411953 0.911184 -0.00616146)
(0.989843 0.137843 -0.0347971)
(0.896847 0.442341 -0.000107183)
(0.915739 0.401769 -0.00194045)
(-0.259029 0.965868 -0.00195728)
(-0.190045 0.981775 0.00102286)
(0.671724 0.740606 -0.0170051)
(0.885943 -0.463782 -0.00344908)
(0.107619 0.99417 -0.00661722)
(0.894528 -0.446993 -0.00409991)
(-0.228609 0.973512 -0.00341792)
(0.454007 0.890913 -0.0123388)
(-0.128324 0.991727 -0.00307016)
(0.820401 0.571385 -0.0214804)
(0.91026 -0.414026 -0.00313337)
(0.788332 0.614692 -0.0262202)
(0.9314 -0.363985 -0.00291774)
(-0.0988728 0.995081 -0.00623008)
(0.601515 0.79886 -0.00140802)
(0.607703 0.794162 -0.0018387)
(0.180759 0.983527 0.000734528)
(-0.703558 0.710602 0.0071195)
(0.833528 0.552435 -0.00685588)
(0.92193 -0.386813 -0.0204907)
(0.833583 0.552351 -0.00689701)
(0.180564 0.983563 0.000703345)
(0.922434 -0.385614 -0.0204225)
(0.181206 0.983445 0.000468328)
(-0.67556 0.737277 0.00641772)
(0.834031 0.551674 -0.00689436)
(0.921566 -0.387675 -0.0206098)
(0.834407 0.551106 -0.00686648)
(0.182237 0.983254 0.00047867)
(0.920868 -0.389324 -0.0206967)
(0.904279 0.426897 -0.00619249)
(0.90505 0.425247 -0.00703791)
(-0.245627 0.969359 -0.00332421)
(-0.171188 0.985233 -0.00327586)
(-0.099904 0.994988 -0.00436394)
(0.893599 -0.448732 -0.0109736)
(-0.100765 0.994902 -0.00409482)
(0.893958 -0.448023 -0.0106938)
(-0.244883 0.969546 -0.00359825)
(-0.245763 0.969322 -0.00389775)
(-0.170613 0.98533 -0.0040766)
(-0.0986414 0.995112 -0.00463588)
(0.893186 -0.449544 -0.0113131)
(-0.0978004 0.995194 -0.00490083)
(0.892788 -0.450328 -0.0115894)
(-0.246197 0.969213 -0.00363271)
(0.186217 0.982508 -0.00106293)
(-0.478977 0.877824 0.00247953)
(0.83992 0.542656 -0.00765937)
(0.901678 -0.43177 -0.0234968)
(0.840504 0.54175 -0.007723)
(0.188543 0.982064 -0.00111444)
(0.899524 -0.436226 -0.0237401)
(0.187222 0.982317 -0.000929368)
(-0.522212 0.85281 0.0032875)
(0.839317 0.54359 -0.00754219)
(0.904057 -0.42678 -0.0232413)
(0.839483 0.543335 -0.00749015)
(0.186322 0.982488 -0.000910299)
(0.905856 -0.422961 -0.0230112)
(0.911906 0.41024 -0.0114028)
(0.910259 0.413904 -0.0105702)
(-0.26447 0.964378 -0.00551414)
(-0.177729 0.984049 -0.00777348)
(-0.168195 0.985737 -0.00571293)
(0.880678 -0.473447 -0.0159244)
(-0.171955 0.985088 -0.00573971)
(0.879448 -0.47572 -0.0161874)
(-0.26322 0.964721 -0.00535197)
(-0.260573 0.96544 -0.00520159)
(-0.175279 0.984493 -0.00712609)
(-0.157618 0.987482 -0.00593854)
(0.881873 -0.471228 -0.0156043)
(-0.151495 0.98844 -0.00597415)
(0.882927 -0.469259 -0.0153484)
(-0.261393 0.965217 -0.00538803)
(0.75916 0.615614 -0.211415)
(0.967706 0.25169 -0.0140626)
(0.968053 0.2501 0.0179833)
(0.829238 0.536666 -0.156058)
(0.957994 0.231629 0.169102)
(0.661792 0.672964 -0.330381)
(0.727441 0.654915 -0.204736)
(0.952178 0.303638 0.034076)
(0.97947 0.148333 0.136514)
(0.809417 0.537524 -0.236457)
(0.723499 0.610311 -0.322598)
(0.979249 0.19404 0.0584743)
(0.757529 -0.342701 0.555613)
(0.841264 0.417726 -0.34319)
(0.681534 -0.300934 0.667046)
(0.716082 0.509344 -0.477278)
(0.609105 0.650954 -0.453045)
(0.900764 -0.00169804 0.434305)
(0.747462 -0.279783 0.602514)
(0.586875 0.612775 -0.52923)
(0.705865 0.567921 -0.423344)
(0.962745 0.0365964 0.267924)
(0.927959 -0.0770237 0.364635)
(0.810301 0.495605 -0.31271)
(0.998459 -0.0195269 0.0519422)
(0.99453 -0.0632325 0.0831371)
(0.98295 -0.0379468 0.179915)
(0.997856 -0.021905 0.0616706)
(0.955528 -0.0254551 0.293799)
(0.954948 -0.035861 0.294598)
(0.866486 -0.0728308 0.49386)
(0.951562 -0.028434 0.306139)
(0.956603 -0.0317901 0.289655)
(0.870352 -0.0250575 0.491793)
(0.957756 -0.00893373 0.287442)
(0.574095 0.818789 0.000446339)
(0.72948 -0.608151 0.313068)
(0.810642 -0.574424 0.113565)
(0.741189 -0.646815 0.179634)
(0.777183 -0.584181 0.233922)
(0.8055 -0.581832 0.11243)
(0.860628 -0.507596 0.0408215)
(0.877544 -0.479468 -0.00514064)
(0.88172 -0.449757 0.142438)
(0.837958 -0.543272 0.051789)
(0.863533 -0.475869 0.166912)
(0.831845 -0.53356 0.152797)
(0.852055 -0.522558 0.0305923)
(0.778214 -0.604189 0.171285)
(0.733842 -0.65836 0.167448)
(0.777905 -0.618209 0.112615)
(0.679691 -0.646202 0.347049)
(0.792348 -0.601816 0.100004)
(0.957241 0.0576006 -0.283501)
(-0.270718 0.760637 -0.590037)
(0.0604458 0.847955 -0.526611)
(-0.515896 0.827802 -0.220444)
(-0.0363068 0.996983 0.068599)
(-0.194723 0.960893 -0.196896)
(0.37325 0.785153 0.494185)
(-0.0456959 0.790054 -0.611332)
(0.667043 -0.388756 -0.635548)
(-0.300942 0.880947 -0.365193)
(-0.626315 0.200112 0.753449)
(-0.462137 0.817177 -0.344457)
(-0.391284 0.817208 -0.423165)
(0.84648 -0.00492108 0.532397)
(-0.329677 0.777818 -0.535081)
(0.683005 0.730401 -0.00431547)
(0.633023 0.774127 -0.00303213)
(0.995884 0.0606191 -0.067389)
(0.996768 0.0504309 -0.0625314)
(0.998996 -0.0180453 -0.0409947)
(0.996018 0.0785663 -0.0421302)
(0.9975 0.0576653 -0.0408557)
(0.997344 0.0286457 -0.0669589)
(0.994979 0.0776245 -0.0631684)
(0.992381 0.102695 -0.068066)
(0.997993 0.00911326 -0.0626677)
(0.997356 -0.0087285 0.0721418)
(0.995813 -0.0113362 0.0907101)
(0.998591 0.0135077 0.0513239)
(0.971962 -0.0348498 0.23254)
(0.972293 -0.0153345 0.23326)
(0.997688 -0.0451954 0.0507484)
(0.998016 -0.0366055 0.0512167)