/*--------------------------------*- C++ -*----------------------------------*\
| =========                 |                                                 |
| \\      /  F ield         | OpenFOAM: The Open Source CFD Toolbox           |
|  \\    /   O peration     | Version:  2012                                  |
|   \\  /    A nd           | Website:  www.openfoam.com                      |
|    \\/     M anipulation  |                                                 |
\*---------------------------------------------------------------------------*/
FoamFile
{
    version     2.0;
    format      ascii;
    class       volVectorField;
    location    "0.105/solid";
    object      U;
}
// * * * * * * * * * * * * * * * * * * * * * * * * * * * * * * * * * * * * * //

dimensions      [0 1 -1 0 0 0 0];


internalField   nonuniform List<vector> 
3125
(
(-8.64602e-11 1.01789e-10 -8.42634e-11)
(-0.00100974 0.000980567 -0.00117352)
(1.35334e-08 7.0369e-09 -1.41205e-10)
(-2.46519e-05 -1.22145e-06 -2.73373e-05)
(-0.00671643 0.00490386 -0.00287798)
(-0.00351655 0.00299044 -0.00220476)
(-9.95504e-11 2.09687e-10 -2.70545e-10)
(1.01008e-08 7.43392e-09 -2.68867e-10)
(-1.76196e-11 1.37524e-10 -9.38559e-11)
(2.13824e-08 2.24021e-08 -1.56331e-09)
(9.2526e-11 3.58476e-10 -3.85887e-10)
(-0.00100061 0.000956005 -0.00108793)
(3.53677e-08 2.62491e-08 -2.14321e-09)
(-8.56737e-07 3.03885e-06 7.595e-06)
(-0.000852773 0.000447719 0.000192968)
(-2.70554e-05 -6.45188e-06 -5.1661e-05)
(-0.000986893 0.000997037 -0.00124433)
(-4.26869e-05 1.06066e-05 -4.47762e-05)
(-0.00096611 0.000979323 -0.00119026)
(4.20351e-06 -5.43014e-06 3.277e-06)
(-0.000775645 0.000441823 8.03435e-05)
(-2.62958e-05 1.47916e-05 -3.78907e-05)
(-0.00111735 0.00108054 -0.00124226)
(-0.00333261 0.00286091 -0.00215211)
(-0.00110897 0.0010541 -0.00115241)
(-0.00319183 0.00166226 0.000340954)
(-0.00107469 0.000569536 0.000215649)
(-0.00333598 0.00280439 -0.00200879)
(-0.00109224 0.00109676 -0.00131555)
(-0.00327175 0.00287338 -0.00224643)
(-0.00107116 0.00107706 -0.00125839)
(-0.00302741 0.00165778 0.000167392)
(-0.000986645 0.000563843 9.14237e-05)
(-0.00324573 0.00282205 -0.00214589)
(-0.00673189 0.00481615 -0.00269811)
(-0.00356649 0.00183909 0.000354403)
(-0.00352071 0.00293187 -0.00205856)
(-0.00660102 0.00307127 0.000421221)
(-0.00661873 0.00491255 -0.00296617)
(-0.00345329 0.00300266 -0.00229948)
(-0.00658751 0.00482847 -0.00282649)
(-0.00339134 0.00183477 0.000178348)
(-0.00342693 0.0029492 -0.00219626)
(-0.00635273 0.0030681 0.000255403)
(-0.00695545 0.0050236 -0.00291524)
(-0.00697161 0.00493405 -0.00273372)
(-0.00685564 0.00503206 -0.00300228)
(-0.00682415 0.00494607 -0.00286042)
(2.56547e-09 9.83074e-08 -1.43766e-09)
(1.43674e-10 1.37005e-08 -1.69371e-09)
(2.94546e-10 1.89086e-07 -5.30808e-10)
(-3.40791e-07 7.23696e-07 -4.6511e-08)
(-3.15784e-07 1.22296e-06 6.65572e-08)
(-0.00041211 0.000389488 -0.000663799)
(-1.6541e-07 -1.33869e-07 -3.16306e-08)
(-0.000348914 0.000323138 -0.000586896)
(-2.40359e-07 -1.56123e-07 -5.18479e-08)
(-0.00512719 0.00402915 -0.00259076)
(-0.0049131 0.00390038 -0.00254591)
(-2.70049e-10 3.31298e-10 -8.1943e-10)
(-2.10243e-10 4.00023e-10 -7.18415e-10)
(1.42103e-09 2.14502e-09 -1.49304e-10)
(9.23744e-10 1.6432e-09 -1.73131e-10)
(-3.18463e-10 8.06317e-10 -9.40619e-10)
(-1.42202e-10 7.00087e-09 -1.49193e-09)
(1.3589e-08 9.32692e-08 -1.23591e-09)
(3.42079e-09 5.97027e-09 -8.82289e-10)
(1.72511e-09 1.34809e-08 -1.58222e-09)
(-1.80672e-10 8.43448e-10 -7.83271e-10)
(1.70288e-09 3.55716e-09 -7.55831e-10)
(6.75764e-10 6.97544e-09 -1.3727e-09)
(-0.000878207 0.000711691 -0.000444005)
(-0.000397849 0.000376852 -0.000609387)
(-0.000347976 0.000304918 -0.000259159)
(1.9591e-08 1.7709e-07 8.51537e-11)
(-1.88346e-07 -4.47263e-08 4.21812e-09)
(-2.91706e-07 1.17125e-06 1.12906e-07)
(-6.27699e-07 1.56903e-06 -7.69582e-08)
(-0.00019759 8.86712e-05 8.68712e-05)
(-2.43973e-06 3.69768e-06 -1.42454e-05)
(-0.000205643 0.000172464 -0.000120749)
(-1.07207e-06 2.10393e-06 2.60242e-07)
(-0.000865 0.000648604 -0.000277938)
(-0.000324805 0.000157959 0.000116781)
(-0.000334247 0.000269767 -0.000159975)
(-0.000334053 0.000311832 -0.00053705)
(-5.81574e-07 -1.12606e-06 -6.43206e-07)
(-5.05201e-06 5.32857e-06 -2.22215e-05)
(-0.000218386 0.000199744 -0.000195503)
(-1.12776e-06 1.67348e-06 2.59878e-07)
(-0.000403989 0.000407802 -0.000712836)
(-0.000342761 0.000342046 -0.000632099)
(-0.000802623 0.000734149 -0.000605204)
(-0.000384982 0.000402889 -0.000680196)
(-0.000305565 0.000330731 -0.00037173)
(-0.000164449 8.11704e-05 3.40537e-05)
(2.90685e-06 1.58069e-05 -2.72198e-05)
(-0.000171192 0.000192122 -0.000207265)
(-0.000784747 0.000664181 -0.000433743)
(-0.000280234 0.000150426 4.59639e-05)
(-0.000288263 0.000287622 -0.000266639)
(-0.000324026 0.000339041 -0.000602324)
(-1.03141e-06 2.29133e-05 -3.75121e-05)
(-0.000187126 0.000227446 -0.000288558)
(-0.00201713 0.00185925 -0.00169508)
(-0.0021656 0.00197954 -0.00175571)
(-0.00110019 0.000874011 -0.000503118)
(-0.00201419 0.001819 -0.00157786)
(-0.00189254 0.00142404 -0.000672327)
(-0.0021707 0.0011538 0.000294126)
(-0.00320884 0.00211087 -0.000565986)
(-0.00218587 0.00150902 -0.000463065)
(-0.0010875 0.000800853 -0.000316303)
(-0.00186687 0.000995422 0.000276279)
(-0.00188143 0.0013195 -0.000427408)
(-0.00216345 0.00193727 -0.00163493)
(-0.00321786 0.00225829 -0.00087933)
(-0.00219642 0.00162424 -0.000726082)
(-0.00197557 0.0018737 -0.0017818)
(-0.00212164 0.00199374 -0.00184382)
(-0.00101296 0.000895728 -0.000677548)
(-0.00195226 0.00183946 -0.00170367)
(-0.00176892 0.00144366 -0.000878147)
(-0.00203887 0.00114881 0.000134816)
(-0.00302938 0.0021226 -0.0007907)
(-0.00204419 0.00152214 -0.000672062)
(-0.000995328 0.00081591 -0.000485494)
(-0.00174599 0.000990272 0.000124017)
(-0.00175233 0.0013331 -0.000628465)
(-0.002098 0.00195738 -0.00176279)
(-0.0030445 0.00227523 -0.00110812)
(-0.00206046 0.00164318 -0.000939573)
(-0.00513751 0.00395467 -0.00242443)
(-0.00662743 0.00399185 -0.00122926)
(-0.00524528 0.0033558 -0.00110819)
(-0.0035841 0.00231864 -0.000598914)
(-0.00478407 0.00237633 0.000388688)
(-0.00480339 0.00294759 -0.000693364)
(-0.00492265 0.00382785 -0.00238183)
(-0.00359262 0.00247676 -0.000927779)
(-0.00481039 0.00313741 -0.00106511)
(-0.00662237 0.00376117 -0.000808737)
(-0.00521887 0.00255423 0.000398163)
(-0.00523871 0.00315559 -0.000723379)
(-0.00504509 0.00403946 -0.00268469)
(-0.00483332 0.00391093 -0.0026403)
(-0.00501605 0.00396927 -0.00256113)
(-0.00635759 0.00400372 -0.001447)
(-0.00501062 0.00336952 -0.00133797)
(-0.00339214 0.00232991 -0.000826268)
(-0.004577 0.00237251 0.000211384)
(-0.00457424 0.00295752 -0.000921488)
(-0.00480464 0.00384281 -0.00251918)
(-0.00340687 0.00249305 -0.0011591)
(-0.00458786 0.00315176 -0.00129693)
(-0.00634547 0.00376938 -0.00102289)
(-0.00500136 0.00255057 0.000222438)
(-0.00499746 0.00316508 -0.000949482)
(-1.37556e-08 7.17067e-08 -2.11498e-09)
(-6.97627e-09 3.7094e-08 -1.85135e-09)
(-2.86655e-08 1.39985e-07 -2.47557e-09)
(-7.34103e-08 2.34941e-07 -9.86485e-09)
(-6.24984e-08 2.67979e-07 -4.93467e-09)
(-8.02697e-11 2.94826e-11 -1.87726e-12)
(-0.000719988 0.000702095 -0.00096126)
(3.96729e-09 -1.07241e-10 1.62276e-09)
(1.18842e-08 -7.79218e-09 -2.09111e-09)
(-1.80186e-09 -9.81934e-09 -6.1575e-11)
(-0.000129931 0.000104334 -0.000237288)
(-1.35626e-06 -1.67329e-06 1.06067e-07)
(-1.39988e-06 -1.05096e-06 -5.19247e-07)
(-0.0060167 0.00453589 -0.00276057)
(-0.0040924 0.00338091 -0.00235683)
(-3.02796e-10 1.64908e-10 -8.79361e-10)
(-9.2657e-11 2.92064e-10 -4.34888e-10)
(3.6978e-09 8.49149e-10 1.48916e-09)
(5.15401e-09 5.2394e-09 -6.31074e-11)
(2.15382e-09 1.11799e-09 7.97271e-10)
(-5.41275e-11 4.62273e-11 -3.26252e-12)
(2.30781e-10 4.07018e-10 -1.69244e-10)
(6.86519e-11 1.22106e-10 1.54087e-11)
(-3.96333e-10 5.11849e-10 -1.03563e-09)
(-5.40981e-10 1.19889e-09 -1.18267e-09)
(2.33831e-08 4.48726e-08 -1.09031e-09)
(1.25944e-08 1.53047e-08 -1.1829e-09)
(1.28823e-08 2.47953e-08 -1.30162e-10)
(6.09471e-11 6.05905e-10 -5.0464e-10)
(4.27822e-10 9.52086e-10 -5.13179e-10)
(3.14445e-10 1.25427e-09 -5.94237e-10)
(-0.000953803 0.000869605 -0.000814689)
(-0.000708664 0.000682971 -0.000888884)
(-0.000659808 0.000619152 -0.000661448)
(4.05487e-08 7.58947e-08 -2.50634e-10)
(4.37378e-08 2.55092e-08 1.62461e-11)
(5.96567e-08 1.37806e-07 3.79731e-09)
(-1.19843e-05 1.94962e-05 1.61021e-05)
(-2.28672e-05 -5.58007e-06 7.78867e-06)
(-3.7809e-07 7.48558e-07 5.76073e-07)
(-1.99865e-05 7.32403e-06 -4.4311e-06)
(-9.5737e-06 5.06336e-06 6.42875e-06)
(-0.000851909 0.00051654 3.85233e-05)
(-0.000653229 0.000337823 0.000169003)
(-0.000651932 0.000396423 3.53564e-05)
(-0.00011081 0.000111268 -0.000209642)
(-2.13283e-05 -1.68992e-06 -1.25648e-05)
(-2.15551e-05 5.06776e-06 -3.67584e-05)
(-7.43542e-05 9.04541e-05 -0.00016259)
(-1.68557e-05 -4.79439e-06 -1.47264e-05)
(-0.000703691 0.000719313 -0.00102365)
(-0.000143318 0.000129636 -0.000292215)
(-0.000915738 0.000887065 -0.000907919)
(-0.000683732 0.000707358 -0.00097887)
(-0.00063074 0.000637476 -0.000742845)
(-1.78814e-05 -3.65894e-06 1.48225e-05)
(4.76149e-06 1.64086e-06 -6.98338e-06)
(-1.52523e-05 1.49853e-05 -1.76954e-05)
(-0.0007716 0.00051763 -9.10736e-05)
(-0.000586981 0.000331643 6.91279e-05)
(-0.000582909 0.000397508 -8.05678e-05)
(-0.000131597 0.000131052 -0.000278113)
(-6.53832e-06 1.05072e-05 -2.53426e-05)
(-7.69835e-05 0.000112391 -0.000198352)
(-0.00147223 0.00139891 -0.00144241)
(-0.00280595 0.00247645 -0.0019882)
(-0.00106288 0.000959736 -0.000863617)
(-0.00146615 0.00136665 -0.00134032)
(-0.00142204 0.00124809 -0.0010081)
(-0.00283384 0.00148835 0.000326431)
(-0.0031948 0.00181314 4.16273e-05)
(-0.00283634 0.00162903 4.314e-05)
(-0.00107427 0.000648602 4.09782e-05)
(-0.00131817 0.000702166 0.000237073)
(-0.00131823 0.0007915 4.27868e-05)
(-0.00280696 0.00242603 -0.00185403)
(-0.00329967 0.00258442 -0.00152129)
(-0.00276874 0.00223151 -0.00140187)
(-0.00144018 0.00141437 -0.00152228)
(-0.00275232 0.00248966 -0.00208061)
(-0.00102154 0.000976897 -0.000960391)
(-0.00141817 0.00138854 -0.001456)
(-0.00137115 0.00126445 -0.00111434)
(-0.00268027 0.0014837 0.000156502)
(-0.00302176 0.00181393 -0.000152641)
(-0.00267492 0.00162986 -0.000147325)
(-0.000982556 0.000649658 -0.000101013)
(-0.00121918 0.000696662 0.000102354)
(-0.00121499 0.00079252 -0.000110383)
(-0.00272732 0.00244473 -0.00198826)
(-0.00320845 0.00259763 -0.00164881)
(-0.00268755 0.00224547 -0.00152647)
(-0.00602999 0.00445375 -0.00258606)
(-0.00670555 0.00446551 -0.00205397)
(-0.00600181 0.0041264 -0.00196672)
(-0.00356994 0.00200013 3.96187e-05)
(-0.00395721 0.00201775 0.000366831)
(-0.00396113 0.00218889 3.71563e-05)
(-0.00409889 0.00331631 -0.00220248)
(-0.00348504 0.0027033 -0.00155923)
(-0.00406511 0.00306255 -0.00167049)
(-0.00660757 0.00330137 1.39356e-05)
(-0.00612801 0.00290254 0.000414411)
(-0.00613414 0.00312305 1.86803e-05)
(-0.00592556 0.00454527 -0.00285175)
(-0.00402198 0.00339241 -0.00245206)
(-0.00589525 0.00446703 -0.00271877)
(-0.00656233 0.00447473 -0.00217386)
(-0.00586779 0.00413633 -0.00209067)
(-0.00338537 0.00200088 -0.00015725)
(-0.00377135 0.0020136 0.000189329)
(-0.00376505 0.00218961 -0.000161187)
(-0.00399461 0.0033326 -0.00234098)
(-0.00339034 0.00271623 -0.00168739)
(-0.00396047 0.00307473 -0.00179959)
(-0.00634452 0.0033019 -0.000171566)
(-0.00588986 0.00289921 0.000244458)
(-0.00588196 0.00312361 -0.000171283)
(-0.00694584 0.00457564 -0.00208141)
(-0.00679958 0.0045846 -0.00219971)
(-2.03871e-09 9.7634e-09 -1.64465e-09)
(-3.69406e-09 1.9109e-08 -1.74122e-09)
(-8.08498e-09 9.01977e-08 -1.69372e-09)
(1.55959e-09 5.1277e-08 -1.67332e-09)
(-4.04967e-09 4.66077e-08 -1.77802e-09)
(-1.29903e-09 1.23213e-08 -1.68136e-09)
(6.41265e-10 2.66456e-08 -1.74438e-09)
(-2.20724e-09 2.39779e-08 -1.77489e-09)
(-1.83036e-08 1.75522e-07 -1.15915e-09)
(-1.57145e-08 3.59941e-07 2.41073e-09)
(-4.51457e-08 3.35647e-07 -9.46202e-10)
(-1.45434e-07 4.48276e-07 -1.21757e-08)
(-3.29019e-07 1.0068e-06 -1.80218e-08)
(-1.36439e-07 5.52109e-07 -2.75821e-09)
(-8.79879e-08 6.7658e-07 1.48744e-08)
(-3.36968e-07 1.15831e-06 1.86051e-08)
(-1.20799e-07 6.60375e-07 6.45057e-09)
(-0.000634626 0.000617177 -0.000888543)
(6.0296e-09 -2.84753e-08 -2.40781e-09)
(-8.88377e-08 -8.50213e-08 -3.15167e-08)
(-8.74391e-09 -1.92127e-08 -2.69206e-09)
(-0.000183898 0.000152754 -0.000331007)
(-2.75945e-06 -1.15833e-06 -2.41956e-07)
(-1.61136e-07 -1.43454e-07 -5.95011e-08)
(-8.5083e-07 -5.64885e-07 -3.19276e-07)
(-0.0057895 0.00441068 -0.00271955)
(-0.00429207 0.00351118 -0.00240556)
(-3.21117e-10 2.67705e-10 -8.58771e-10)
(-1.48208e-10 4.19435e-10 -5.72457e-10)
(3.61591e-09 4.01988e-09 -1.50243e-10)
(7.21613e-10 5.28702e-10 2.36354e-10)
(1.67243e-09 9.69629e-10 6.03653e-10)
(3.35469e-10 7.26892e-10 -1.62451e-10)
(5.26112e-10 4.2279e-10 1.66985e-10)
(1.39019e-10 1.7543e-10 3.66709e-11)
(-1.19994e-09 4.96611e-09 -1.48798e-09)
(-7.77087e-10 2.48408e-09 -1.32612e-09)
(-3.97872e-10 7.09494e-10 -1.01122e-09)
(-3.29327e-10 1.7793e-09 -1.09316e-09)
(-4.89707e-10 1.52296e-09 -1.16761e-09)
(-8.56355e-10 6.2721e-09 -1.52208e-09)
(-2.65721e-10 3.58133e-09 -1.27576e-09)
(-6.22698e-10 3.13946e-09 -1.34406e-09)
(2.21351e-08 7.37379e-08 -1.17004e-09)
(7.21508e-09 4.89103e-08 -1.44367e-09)
(1.14285e-08 3.88342e-08 -6.75162e-10)
(6.89273e-09 9.8888e-09 -8.82954e-10)
(3.15672e-09 8.44108e-09 -1.05787e-09)
(6.60049e-09 1.53792e-08 -1.33228e-10)
(3.49559e-09 2.58186e-08 -1.51358e-09)
(2.92107e-09 1.15815e-08 -1.35944e-09)
(5.71828e-09 2.17361e-08 -7.81897e-10)
(-3.03921e-11 8.30146e-10 -6.17356e-10)
(-8.25583e-11 1.77856e-09 -9.11048e-10)
(1.7446e-10 1.5652e-09 -7.08254e-10)
(8.71594e-10 1.97757e-09 -6.22064e-10)
(1.52865e-09 4.53798e-09 -9.33678e-10)
(7.21483e-10 2.40574e-09 -7.58942e-10)
(1.71011e-10 3.56435e-09 -1.13378e-09)
(1.31879e-09 6.05651e-09 -1.19274e-09)
(5.57668e-10 3.09995e-09 -9.49801e-10)
(-0.000896655 0.000774003 -0.000617819)
(-0.000678418 0.000561964 -0.000383606)
(-0.000697611 0.000614403 -0.000535586)
(-0.000622604 0.000599762 -0.000820728)
(-0.000346351 0.000339628 -0.000446471)
(-0.000572993 0.000543134 -0.000609628)
(-0.000501515 0.000426027 -0.000321929)
(-0.000367766 0.000339368 -0.000364639)
(-0.00052121 0.000469163 -0.000451185)
(3.60504e-08 1.368e-07 3.79403e-10)
(1.54899e-08 3.39106e-07 5.89921e-09)
(4.63345e-08 2.6359e-07 7.32113e-09)
(3.4467e-08 -5.24681e-08 -1.23331e-08)
(-9.22395e-08 5.22694e-07 3.80727e-08)
(5.47173e-08 2.05001e-07 1.52962e-09)
(-4.77408e-08 6.22954e-07 2.38355e-08)
(-1.90848e-07 9.62116e-07 1.20091e-07)
(7.89801e-09 4.77161e-07 2.41693e-08)
(-3.45333e-06 -4.8503e-07 -2.22178e-06)
(-7.98711e-07 2.63293e-06 2.26852e-07)
(-3.5135e-06 2.31504e-06 1.51517e-07)
(-9.55461e-05 3.65825e-05 5.29328e-05)
(-0.000195225 0.00011627 1.87207e-05)
(-9.22948e-05 5.33272e-05 9.62035e-06)
(-1.16831e-06 2.22166e-06 -6.52915e-06)
(-2.71594e-05 2.84152e-05 -4.88613e-05)
(-7.36451e-06 1.06438e-06 -3.46467e-06)
(-2.24351e-05 1.71613e-05 -2.54101e-05)
(-6.38224e-06 3.47639e-06 2.00919e-06)
(-0.000198173 0.000144654 -4.98277e-05)
(-0.000101846 9.27802e-05 -8.22415e-05)
(-9.51866e-05 7.29123e-05 -3.52193e-05)
(-9.50768e-07 2.33767e-06 2.47084e-07)
(-2.82544e-06 2.50015e-06 7.57625e-07)
(-2.44545e-06 2.67211e-06 7.43688e-07)
(-0.000856331 0.000583531 -0.000117627)
(-0.000664782 0.000508631 -0.000238999)
(-0.000656093 0.000453412 -9.98803e-05)
(-0.000476962 0.000240832 0.000143618)
(-0.000322705 0.000195977 2.61641e-05)
(-0.000475283 0.000289221 3.12912e-05)
(-0.00048766 0.000382021 -0.000199617)
(-0.000326107 0.000233399 -6.54505e-05)
(-0.000479111 0.000336368 -8.24252e-05)
(-0.000161481 0.000148476 -0.000296655)
(-0.000281676 0.000280737 -0.000391004)
(-0.000117786 0.000131324 -0.000217907)
(-3.25905e-06 6.26811e-06 1.11797e-07)
(-9.41829e-07 5.302e-07 -6.72151e-08)
(-2.14088e-06 2.1523e-06 3.88169e-07)
(-9.45727e-06 6.16707e-06 -2.98021e-05)
(-3.47677e-05 4.12038e-05 -7.35883e-05)
(-9.41441e-06 -1.84414e-06 -9.49031e-06)
(-4.46114e-05 5.50397e-05 -9.60647e-05)
(-1.17938e-05 -5.51539e-06 -1.48384e-05)
(-0.000236915 0.000226399 -0.000275269)
(-0.000112398 0.000112665 -0.000132362)
(-0.000130281 0.000131319 -0.000185867)
(-1.11344e-06 1.25007e-06 2.4199e-07)
(-3.3235e-06 2.34119e-06 7.89974e-07)
(-3.67393e-06 2.17336e-06 9.38892e-07)
(-0.000620425 0.000634651 -0.000947778)
(-0.000189334 0.00017615 -0.000378531)
(-0.00082698 0.000801181 -0.000780436)
(-0.000614182 0.000585256 -0.000530055)
(-0.000638814 0.000642561 -0.000683855)
(-0.00060074 0.000624543 -0.000906098)
(-0.00032885 0.000359708 -0.000509612)
(-0.000547009 0.000561812 -0.000686624)
(-0.000448272 0.000450291 -0.000452127)
(-0.000329754 0.000370492 -0.000480144)
(-0.000472879 0.000498448 -0.000583685)
(-7.55827e-05 2.4956e-05 2.07688e-05)
(-0.000160195 0.000118155 -4.64535e-05)
(-7.13991e-05 5.44356e-05 -3.52262e-05)
(4.70057e-06 8.55626e-06 -1.70456e-05)
(-2.10712e-05 5.43913e-05 -8.34032e-05)
(-1.6317e-05 3.46991e-05 -5.07726e-05)
(-0.00016256 0.000155289 -0.000126639)
(-8.06128e-05 0.000114662 -0.000147648)
(-7.34316e-05 8.467e-05 -9.12727e-05)
(-0.000774632 0.000591762 -0.000262285)
(-0.000596187 0.000524778 -0.000379942)
(-0.000586002 0.000461922 -0.000230089)
(-0.000421522 0.000234295 5.76579e-05)
(-0.00027593 0.000196774 -5.82855e-05)
(-0.000417382 0.00029029 -6.96073e-05)
(-0.000430425 0.000398844 -0.000324166)
(-0.000278714 0.000242614 -0.00016227)
(-0.000420396 0.000345202 -0.000196702)
(-0.000171937 0.000178752 -0.000359812)
(-0.000267553 0.000301427 -0.000449256)
(-0.000114947 0.000154697 -0.000260786)
(-8.26552e-06 3.00467e-05 -4.89018e-05)
(-3.08347e-05 7.33663e-05 -0.000116954)
(-4.37715e-05 8.90611e-05 -0.000150694)
(-0.00020969 0.000259547 -0.000372918)
(-9.41338e-05 0.00014336 -0.000204759)
(-0.000114519 0.000168855 -0.000263986)
(-0.00160093 0.00151052 -0.0015071)
(-0.00263906 0.00235018 -0.00193159)
(-0.00111783 0.000946603 -0.000697996)
(-0.00134371 0.00104768 -0.000560869)
(-0.00136052 0.00113084 -0.000776106)
(-0.00159564 0.00147628 -0.00140109)
(-0.00197272 0.00166707 -0.00119022)
(-0.00155222 0.00134937 -0.00105422)
(-0.00160805 0.00123144 -0.000617284)
(-0.00190768 0.00152887 -0.000926259)
(-0.00162402 0.00132536 -0.000852199)
(-0.00249324 0.00131848 0.000310828)
(-0.00217222 0.00127398 4.46475e-05)
(-0.00249525 0.00144893 4.4148e-05)
(-0.00320103 0.00196251 -0.000259542)
(-0.00285024 0.00190589 -0.000532379)
(-0.00284234 0.00176806 -0.000242012)
(-0.00217776 0.00139229 -0.000206705)
(-0.00250902 0.00170488 -0.000498079)
(-0.00250102 0.0015776 -0.000224397)
(-0.00107893 0.00072571 -0.000135463)
(-0.00133155 0.000964215 -0.000354012)
(-0.0013231 0.000878825 -0.000153317)
(-0.00158246 0.000844503 0.000257267)
(-0.00186791 0.00110533 4.45927e-05)
(-0.00158301 0.00094412 4.39782e-05)
(-0.00159643 0.0011375 -0.000391053)
(-0.00187322 0.00121327 -0.000188957)
(-0.0015881 0.00104173 -0.000171155)
(-0.00263927 0.00230181 -0.00180064)
(-0.00212266 0.00177679 -0.00123358)
(-0.0026004 0.00211594 -0.00136124)
(-0.00322981 0.0024074 -0.00120269)
(-0.00285977 0.00204258 -0.000829574)
(-0.00287251 0.0021806 -0.00113655)
(-0.00221077 0.00174009 -0.000998345)
(-0.00251906 0.00183083 -0.000778492)
(-0.00253261 0.00195775 -0.00106844)
(-0.00156653 0.00152573 -0.00158887)
(-0.00258787 0.00236364 -0.0020231)
(-0.00103694 0.000972903 -0.000873477)
(-0.00124455 0.00106869 -0.000747141)
(-0.00126809 0.00115629 -0.000963073)
(-0.0015442 0.00149781 -0.00151959)
(-0.00190854 0.00168237 -0.00130643)
(-0.00149792 0.00136544 -0.00116323)
(-0.00149677 0.00125175 -0.000813976)
(-0.00179158 0.00155266 -0.00113209)
(-0.00151987 0.00134998 -0.00104924)
(-0.00235054 0.00131366 0.000145652)
(-0.00203408 0.00127488 -0.000134608)
(-0.00234548 0.0014498 -0.000141304)
(-0.00302215 0.00196869 -0.0004719)
(-0.0026834 0.00191809 -0.000753138)
(-0.00267573 0.00177449 -0.000450442)
(-0.00203569 0.00139921 -0.000403473)
(-0.00235479 0.00171753 -0.000713585)
(-0.00234669 0.00158428 -0.000427629)
(-0.000985416 0.000733665 -0.000293193)
(-0.00122723 0.000978774 -0.000535205)
(-0.0012176 0.000886515 -0.000322794)
(-0.00147253 0.000839178 0.000113217)
(-0.00174144 0.00110627 -0.000127198)
(-0.00146818 0.000945104 -0.00011911)
(-0.00147979 0.00115157 -0.000582849)
(-0.00174341 0.00122046 -0.000377937)
(-0.0014705 0.00104917 -0.00035104)
(-0.00256322 0.00232087 -0.00193354)
(-0.002055 0.00179179 -0.00135182)
(-0.00252275 0.00213018 -0.00148449)
(-0.00306535 0.00242795 -0.00143053)
(-0.0026989 0.00206019 -0.00105455)
(-0.0027202 0.00220195 -0.00136077)
(-0.00208265 0.00176305 -0.00121158)
(-0.00237067 0.0018491 -0.000998371)
(-0.00239241 0.00197991 -0.0012878)
(-0.00580204 0.00433042 -0.00254698)
(-0.00510685 0.00365945 -0.00184155)
(-0.00577326 0.00401115 -0.00193672)
(-0.00663317 0.00422682 -0.00166099)
(-0.00615442 0.00378392 -0.00119029)
(-0.00616093 0.00400859 -0.00161062)
(-0.00525331 0.00355943 -0.00150393)
(-0.00569347 0.00357161 -0.00114993)
(-0.00570075 0.00378582 -0.00155826)
(-0.0035764 0.00215979 -0.000276977)
(-0.0039754 0.00252808 -0.000631124)
(-0.0039678 0.00235878 -0.000294296)
(-0.00436328 0.00219717 0.000378243)
(-0.0047889 0.00256745 3.09231e-05)
(-0.00436765 0.00237834 3.42446e-05)
(-0.00438203 0.00273808 -0.000662619)
(-0.004796 0.00275762 -0.000328529)
(-0.00437455 0.00255841 -0.000311488)
(-0.00429933 0.00344458 -0.00224866)
(-0.00489138 0.00354093 -0.00180894)
(-0.00426618 0.00318234 -0.00170576)
(-0.00360379 0.00263694 -0.00126688)
(-0.00398342 0.00269685 -0.000974893)
(-0.0039938 0.00286803 -0.00132909)
(-0.00481922 0.00333033 -0.00144762)
(-0.00438956 0.00291743 -0.00102068)
(-0.00439916 0.00309952 -0.00138935)
(-0.00661546 0.00353101 -0.00039479)
(-0.00614887 0.00356326 -0.000781077)
(-0.00614185 0.00334297 -0.000378554)
(-0.00566707 0.00272993 0.000406732)
(-0.00522414 0.00275523 2.71953e-05)
(-0.00567278 0.00294073 2.3107e-05)
(-0.00568743 0.00336111 -0.000752618)
(-0.00523146 0.00295541 -0.000345403)
(-0.0056803 0.00315083 -0.000362083)
(-0.00570061 0.00442029 -0.00281155)
(-0.00421929 0.00352244 -0.00250073)
(-0.00567063 0.00434406 -0.00268088)
(-0.00498563 0.00367036 -0.00196919)
(-0.00564256 0.00402134 -0.00206176)
(-0.00637512 0.00424122 -0.00187745)
(-0.00589616 0.00379639 -0.00141295)
(-0.00591406 0.00402373 -0.00183192)
(-0.00502934 0.00357607 -0.00173229)
(-0.00544698 0.0035847 -0.00137662)
(-0.00546528 0.00380171 -0.00178356)
(-0.00338533 0.00216572 -0.000492012)
(-0.00377097 0.0025389 -0.000859908)
(-0.00376459 0.00236448 -0.000510812)
(-0.00416681 0.00219319 0.000200355)
(-0.00457005 0.0025681 -0.000167074)
(-0.00416019 0.00237903 -0.00016445)
(-0.00416525 0.00274846 -0.000891627)
(-0.00456873 0.00276284 -0.000544543)
(-0.00415929 0.00256387 -0.000528309)
(-0.00419159 0.00346054 -0.00238709)
(-0.00477357 0.00355211 -0.00193713)
(-0.00415811 0.00319425 -0.00183487)
(-0.00342728 0.0026567 -0.00149708)
(-0.00378531 0.00271249 -0.00120754)
(-0.00380528 0.002887 -0.0015605)
(-0.00460696 0.00334775 -0.00167805)
(-0.0041792 0.00293242 -0.00125346)
(-0.00419874 0.00311772 -0.0016208)
(-0.00634155 0.00353531 -0.000597428)
(-0.00588369 0.00357189 -0.00100014)
(-0.00587938 0.0033475 -0.000585937)
(-0.0054392 0.00272644 0.000233464)
(-0.00499409 0.00275584 -0.000169059)
(-0.00543162 0.00294132 -0.000170453)
(-0.00543416 0.00337017 -0.000975687)
(-0.00499234 0.00296039 -0.00055953)
(-0.00542944 0.00315558 -0.000573318)
(-4.25077e-11 2.17958e-10 -1.1332e-10)
(3.45532e-11 4.31126e-10 -2.75449e-10)
(-1.28716e-10 1.22473e-10 -3.49922e-11)
(-8.2178e-11 9.7641e-11 -3.39768e-11)
(-7.82955e-11 3.89497e-10 -2.06322e-10)
(3.30383e-11 2.84499e-10 -1.10075e-10)
(-1.24753e-10 6.99082e-11 -1.08985e-11)
(-0.000907597 0.000884009 -0.00110377)
(2.35377e-08 1.4265e-09 1.92372e-09)
(9.53065e-09 2.19509e-09 4.07621e-10)
(3.24428e-08 1.35547e-08 -1.16012e-09)
(1.46073e-08 5.40464e-09 -7.00339e-10)
(2.38782e-08 6.05249e-09 3.81427e-10)
(3.45498e-08 1.17117e-08 1.1421e-09)
(9.63073e-09 -1.10915e-11 2.48608e-10)
(-1.64718e-05 -4.25604e-06 3.00883e-06)
(-5.59344e-05 9.98589e-06 -0.000108582)
(-1.35871e-05 -9.93582e-06 -1.04357e-05)
(-2.87457e-05 1.3762e-06 -1.74789e-05)
(-2.8249e-05 -8.46899e-06 -2.60457e-05)
(-4.67461e-05 6.93091e-06 -3.07421e-05)
(-2.11458e-05 -4.58823e-06 -7.00637e-06)
(-0.00648023 0.00478256 -0.00283978)
(-0.00370455 0.00312037 -0.00225644)
(1.62979e-08 9.07862e-09 2.03301e-12)
(7.61314e-09 3.68892e-09 4.20697e-10)
(2.46817e-08 1.59435e-08 -6.05966e-10)
(8.56593e-09 7.15895e-09 1.26521e-11)
(1.88183e-08 9.11511e-09 5.24452e-10)
(2.08613e-08 1.48678e-08 -9.6079e-10)
(6.53139e-09 3.68457e-09 3.81599e-10)
(2.32637e-10 3.34032e-10 -2.78885e-10)
(2.09372e-10 6.6609e-10 -3.93816e-10)
(-2.80394e-11 1.86241e-10 -5.5305e-11)
(3.55923e-11 3.17075e-10 -1.11522e-10)
(1.57281e-10 5.64657e-10 -2.07559e-10)
(2.68074e-10 9.14296e-10 -4.16682e-10)
(-8.68446e-13 2.65158e-10 -6.52343e-11)
(-0.000907529 0.000817553 -0.000846176)
(-0.00102182 0.000936125 -0.000997941)
(-0.000983661 0.000927747 -0.000993927)
(-0.000897726 0.000861304 -0.00102251)
(-0.000916586 0.000841763 -0.000936255)
(-0.000880568 0.000835738 -0.000933639)
(-0.0010135 0.00090973 -0.000902951)
(-0.000886982 0.000900732 -0.00117192)
(-8.19737e-05 3.60661e-05 -0.000146502)
(-0.000816315 0.000876978 -0.00111375)
(-0.000948055 0.000948548 -0.0010926)
(-0.00093711 0.000991157 -0.00124576)
(-0.000866483 0.000884985 -0.00112094)
(-0.000848068 0.000856857 -0.00102846)
(-0.000839717 0.000897646 -0.00117462)
(-0.000913479 0.000968241 -0.00118118)
(-5.18894e-05 6.86189e-05 -0.000128409)
(-5.49933e-05 4.37354e-05 -0.000110036)
(-1.64902e-05 1.09413e-05 -3.27431e-05)
(-3.32864e-05 3.30642e-05 -5.19274e-05)
(-4.71928e-05 4.09895e-05 -9.79007e-05)
(-6.49399e-05 6.50116e-05 -0.000141664)
(-2.51851e-05 3.3993e-05 -4.3896e-05)
(-0.00123035 0.00118373 -0.00130999)
(-0.0031528 0.00273195 -0.00209847)
(-0.00124197 0.00110393 -0.00101436)
(-0.00113256 0.00103388 -0.00105888)
(-0.00109225 0.00102312 -0.00105328)
(-0.00122273 0.00115538 -0.00121599)
(-0.00112502 0.00100526 -0.000958969)
(-0.00124873 0.00113481 -0.0011191)
(-0.0012062 0.00112163 -0.00111187)
(-0.00321794 0.00259043 -0.00167283)
(-0.00315538 0.00267747 -0.00195811)
(-0.00339734 0.00277868 -0.00188066)
(-0.00332239 0.00272998 -0.00184217)
(-0.00321418 0.00265215 -0.00183128)
(-0.0031416 0.00260602 -0.00179544)
(-0.00340186 0.00271456 -0.0017188)
(-0.00120296 0.0011997 -0.00138562)
(-0.00309436 0.00274467 -0.00219227)
(-0.00112382 0.00116061 -0.00131223)
(-0.00105341 0.00104359 -0.00115554)
(-0.0010399 0.00108806 -0.00131554)
(-0.00118158 0.00117799 -0.0013254)
(-0.00101598 0.00106285 -0.00124728)
(-0.0011642 0.00114178 -0.00121748)
(-0.00114803 0.00118814 -0.00138403)
(-0.0029754 0.0026356 -0.00204526)
(-0.00306869 0.00269549 -0.00209442)
(-0.00323281 0.00274573 -0.00197515)
(-0.00317845 0.00282037 -0.00221255)
(-0.00305544 0.00262207 -0.00192761)
(-0.00300386 0.00269465 -0.00216125)
(-0.00314972 0.00275886 -0.00209339)
(-0.00660947 0.00456701 -0.00232642)
(-0.00649497 0.00469669 -0.00266162)
(-0.0068323 0.00478491 -0.00256638)
(-0.00672154 0.00469673 -0.00247828)
(-0.00659306 0.00466579 -0.00252929)
(-0.00648442 0.00457996 -0.00244454)
(-0.0068494 0.00468395 -0.00236148)
(-0.00378208 0.00296446 -0.00180863)
(-0.00370948 0.0030598 -0.00210744)
(-0.00358461 0.00290581 -0.00192929)
(-0.00350734 0.00285455 -0.00188803)
(-0.00377591 0.00303337 -0.00197716)
(-0.00358995 0.00283929 -0.00176404)
(-0.00369629 0.00297956 -0.00193312)
(-0.00638472 0.00479149 -0.00292905)
(-0.0036389 0.00313237 -0.00235144)
(-0.00621765 0.00459874 -0.00268183)
(-0.00635381 0.00470935 -0.00279156)
(-0.00657932 0.00470773 -0.00260298)
(-0.00648293 0.004814 -0.00287709)
(-0.00634532 0.00459124 -0.00257076)
(-0.00625144 0.00469563 -0.00284378)
(-0.00644891 0.00471488 -0.00271261)
(-0.00351064 0.00300704 -0.0021862)
(-0.00361222 0.00307679 -0.00224557)
(-0.00341429 0.00287 -0.00202161)
(-0.00335723 0.00294668 -0.00226263)
(-0.00332814 0.00288272 -0.00214033)
(-0.00359994 0.0029947 -0.00206713)
(-0.0035401 0.00307343 -0.00231153)
(-0.0070743 0.00490255 -0.00260269)
(-0.00696148 0.00481205 -0.00251118)
(-0.00709217 0.00479943 -0.00239582)
(-0.00681619 0.00482275 -0.00263424)
(-0.00671738 0.00493087 -0.00290933)
(-0.00668306 0.00482952 -0.00274232)
(-0.000480824 0.000460671 -0.00074002)
(-9.84657e-08 -2.18578e-07 -1.03399e-08)
(-1.00764e-07 -1.03962e-07 -1.1542e-09)
(-3.48903e-07 -1.01236e-07 7.3391e-08)
(-1.51785e-07 -1.33801e-07 -2.45837e-08)
(-3.26942e-07 -2.19779e-07 1.99397e-08)
(-1.66993e-07 -2.50765e-07 -4.57259e-08)
(-6.64516e-08 -9.70177e-08 -9.70797e-09)
(-0.00028985 0.000261822 -0.000506536)
(-1.09949e-06 -5.15946e-07 4.39022e-08)
(-4.43797e-07 -2.4564e-07 -1.19214e-07)
(-4.51596e-07 -5.69021e-07 -3.87601e-07)
(-2.23147e-07 -2.06606e-07 -4.4837e-08)
(-3.43425e-07 -5.04799e-07 -1.11592e-07)
(-1.11006e-06 2.0289e-07 -9.70019e-08)
(-4.27854e-07 -3.113e-07 -7.3302e-08)
(-0.00534466 0.00415718 -0.00263465)
(-0.0047025 0.00377105 -0.00250009)
(4.1746e-09 4.21908e-09 -4.50914e-10)
(1.85044e-09 2.66446e-09 -1.43116e-10)
(3.72952e-09 4.75219e-09 -8.28919e-10)
(1.17353e-09 1.46355e-09 -1.7003e-11)
(3.14614e-09 3.49517e-09 -3.88046e-10)
(4.8651e-09 5.91806e-09 -9.43621e-10)
(1.56948e-09 1.89852e-09 2.74192e-11)
(1.77397e-09 2.0814e-09 -4.66164e-10)
(6.99731e-10 1.23771e-09 -1.49923e-10)
(2.67676e-09 3.48907e-09 -8.96596e-10)
(8.17528e-10 1.0992e-09 -5.30299e-11)
(2.33362e-09 2.32904e-09 -4.48993e-10)
(2.00498e-09 2.4551e-09 -7.69407e-10)
(5.8681e-10 7.20056e-10 -7.06838e-11)
(-0.000462691 0.000414034 -0.000552304)
(-0.000467421 0.00044649 -0.000681356)
(-0.00040379 0.000358895 -0.000549114)
(-0.000379249 0.000365714 -0.000552313)
(-0.000475353 0.000428347 -0.000616335)
(-0.000390359 0.00034636 -0.000490304)
(-0.000448966 0.000433256 -0.000618888)
(-0.000260193 0.000224707 -0.000360704)
(-0.000273484 0.000252051 -0.000459555)
(-0.000337814 0.000293688 -0.000481722)
(-0.00031468 0.000302952 -0.000485078)
(-0.000275138 0.000233833 -0.000408972)
(-0.000323747 0.00028254 -0.0004285)