/*--------------------------------*- C++ -*----------------------------------*\
| =========                 |                                                 |
| \\      /  F ield         | OpenFOAM: The Open Source CFD Toolbox           |
|  \\    /   O peration     | Version:  2012                                  |
|   \\  /    A nd           | Website:  www.openfoam.com                      |
|    \\/     M anipulation  |                                                 |
\*---------------------------------------------------------------------------*/
FoamFile
{
    version     2.0;
    format      ascii;
    class       surfaceScalarField;
    location    "0.108/fluid";
    object      meshPhi;
}
// * * * * * * * * * * * * * * * * * * * * * * * * * * * * * * * * * * * * * //

dimensions      [0 3 -1 0 0 0 0];
oriented        oriented;


internalField   nonuniform List<scalar> 
46515
(
1.67046e-05
2.87326e-05
6.46237e-06
-0.000113062
1.96344e-05
1.98547e-05
2.3162e-05
0.000177691
-2.91235e-05
-2.30756e-06
3.05057e-05
-0.000182866
0.000181595
-3.26728e-05
-1.11409e-06
3.26732e-05
-0.000182087
0.000150271
-3.15408e-05
3.09695e-05
-0.000150735
-5.03606e-07
0.000115709
-2.91078e-05
2.85048e-05
-0.000115942
-2.77579e-07
8.61254e-05
-2.68024e-05
2.62684e-05
-8.61483e-05
-1.91715e-07
6.38875e-05
-2.48045e-05
2.43668e-05
-6.36014e-05
-1.57978e-07
4.78899e-05
-2.30972e-05
2.267e-05
-4.74274e-05
-1.43468e-07
3.59635e-05
-2.13821e-05
2.09572e-05
-3.54115e-05
-1.35583e-07
2.63767e-05
-1.95338e-05
1.8985e-05
-2.58291e-05
-1.27423e-07
1.80946e-05
-1.72018e-05
1.66161e-05
-1.76474e-05
-1.13599e-07
1.1694e-05
-1.47304e-05
1.40755e-05
-1.13885e-05
-1.01152e-07
7.11813e-06
-1.19949e-05
1.12564e-05
-6.81012e-06
-8.17777e-08
3.84551e-06
-8.94385e-06
8.11707e-06
-3.58979e-06
-5.90421e-08
1.5714e-06
-5.28034e-06
4.16109e-06
-1.4808e-06
-3.14398e-08
0.000138996
4.39895e-05
9.87951e-08
-0.000135419
0.000171687
-4.13018e-05
-6.60176e-07
4.04917e-05
-0.000160996
0.000164864
-3.82829e-05
3.75429e-05
-0.000153657
-5.87646e-07
0.00013702
-3.52597e-05
3.45153e-05
-0.000127855
-4.03642e-07
0.00010565
-3.24454e-05
3.18167e-05
-9.85994e-05
-3.02849e-07
7.8071e-05
-3.00892e-05
2.95507e-05
-7.26687e-05
-2.57471e-07
5.69896e-05
-2.80605e-05
2.75914e-05
-5.27957e-05
-2.26689e-07
4.17053e-05
-2.62025e-05
2.57396e-05
-3.83526e-05
-2.0148e-07
3.04885e-05
-2.43118e-05
2.38093e-05
-2.78231e-05
-1.80138e-07
2.18977e-05
-2.21789e-05
2.15882e-05
-1.98767e-05
-1.59753e-07
1.50791e-05
-1.96783e-05
1.89732e-05
-1.37024e-05
-1.36918e-07
9.45839e-06
-1.67755e-05
1.61012e-05
-8.59533e-06
-1.20257e-07
5.49308e-06
-1.38002e-05
1.29645e-05
-4.90457e-06
-1.00079e-07
2.58065e-06
-1.03452e-05
9.38393e-06
-2.23317e-06
-7.35403e-08
1.07632e-06
-6.11103e-06
4.83593e-06
-9.01403e-07
-3.96451e-08
0.000100307
4.53902e-05
-8.13578e-05
-4.5777e-07
0.000111624
-4.28965e-05
4.20488e-05
-8.93913e-05
-4.77753e-07
0.000104783
-3.95553e-05
3.87532e-05
-8.33631e-05
-4.25414e-07
8.68447e-05
-3.64721e-05
3.57649e-05
-6.87294e-05
-3.587e-07
6.65836e-05
-3.38168e-05
3.32249e-05
-5.24168e-05
-3.12983e-07
4.85656e-05
-3.16011e-05
3.11017e-05
-3.80597e-05
-2.8338e-07
3.46799e-05
-2.96572e-05
2.91859e-05
-2.70232e-05
-2.56847e-07
2.46798e-05
-2.77576e-05
2.72741e-05
-1.91193e-05
-2.30443e-07
1.7532e-05
-2.57496e-05
2.52137e-05
-1.35077e-05
-2.02626e-07
1.22995e-05
-2.34801e-05
2.28675e-05
-9.42341e-06
-1.7445e-07
8.39495e-06
-2.0918e-05
2.0243e-05
-6.40039e-06
-1.4936e-07
5.34682e-06
-1.81201e-05
1.73824e-05
-4.07131e-06
-1.27713e-07
2.94177e-06
-1.4988e-05
1.41369e-05
-2.2302e-06
-1.05531e-07
1.16248e-06
-1.11304e-05
9.97432e-06
-8.23847e-07
-7.75664e-08
3.99306e-07
-6.29141e-06
4.98616e-06
-2.85827e-07
-3.97756e-08
5.86927e-05
4.6684e-07
6.74038e-05
-4.70964e-06
-0.000220591
6.51299e-05
6.00687e-05
6.65483e-05
0.000282909
-4.85582e-05
6.22514e-06
-6.01248e-06
4.563e-05
-0.000258174
3.08008e-06
0.000208797
-3.91498e-05
-3.09887e-06
3.75018e-05
-0.000203067
1.52246e-06
0.000155812
-3.35827e-05
3.25321e-05
-0.000154518
-1.65238e-06
9.2004e-07
0.000116265
-2.99106e-05
2.91679e-05
-0.000115783
-1.06211e-06
6.76164e-07
8.6e-05
-2.72204e-05
2.66506e-05
-8.56774e-05
-8.08773e-07
5.84937e-07
6.39992e-05
-2.51434e-05
2.46924e-05
-6.3608e-05
-7.1132e-07
5.42851e-07
4.79295e-05
-2.33625e-05
2.29146e-05
-4.74115e-05
-6.65961e-07
5.14777e-07
3.59746e-05
-2.15799e-05
2.11245e-05
-3.53568e-05
-6.31847e-07
4.78307e-07
2.64629e-05
-1.9671e-05
1.91275e-05
-2.58653e-05
-5.86232e-07
4.26605e-07
1.84912e-05
-1.7409e-05
1.68339e-05
-1.80428e-05
-5.2674e-07
3.81762e-07
1.25455e-05
-1.50238e-05
1.43557e-05
-1.22364e-05
-4.67395e-07
3.0964e-07
7.56261e-06
-1.21429e-05
1.13654e-05
-7.26737e-06
-3.78245e-07
2.20874e-07
4.03575e-06
-8.95247e-06
8.12013e-06
-3.79532e-06
-2.68813e-07
1.16787e-07
1.69961e-06
-5.30607e-06
4.1897e-06
-1.66673e-06
-1.41158e-07
0.000166412
1.7931e-06
5.13134e-05
-3.02571e-06
-0.00015158
2.53909e-06
0.000192187
-4.61799e-05
-3.00952e-06
4.44997e-05
-0.00017293
1.98184e-06
0.00017113
-4.02176e-05
3.90049e-05
-0.000156879
-2.24118e-06
1.40758e-06
0.000136662
-3.587e-05
3.49842e-05
-0.000126693
-1.63839e-06
1.09902e-06
0.000103955
-3.26872e-05
3.20283e-05
-9.66671e-05
-1.31283e-06
9.39134e-07
7.68693e-05
-3.02912e-05
2.97619e-05
-7.1366e-05
-1.13259e-06
8.33893e-07
5.64203e-05
-2.82766e-05
2.78022e-05
-5.21272e-05
-1.01227e-06
7.51845e-07
4.14385e-05
-2.63945e-05
2.59201e-05
-3.80627e-05
-9.16778e-07
6.77322e-07
3.0286e-05
-2.44383e-05
2.39174e-05
-2.76232e-05
-8.27431e-07
6.01961e-07
2.17777e-05
-2.22531e-05
2.16605e-05
-1.97584e-05
-7.35649e-07
5.23976e-07
1.52648e-05
-1.97844e-05
1.91259e-05
-1.38521e-05
-6.44301e-07
4.52664e-07
1.01821e-05
-1.70397e-05
1.63217e-05
-9.22287e-06
-5.54226e-07
3.64588e-07
5.9171e-06
-1.39281e-05
1.3078e-05
-5.33496e-06
-4.4351e-07
2.60858e-07
2.68386e-06
-1.03242e-05
9.34576e-06
-2.33309e-06
-3.13929e-07
1.38942e-07
1.26704e-06
-6.1887e-06
4.92621e-06
-1.04931e-06
-1.66996e-07
2.06373e-06
0.000102161
4.54944e-05
-8.17548e-05
-2.70909e-06
1.87536e-06
0.000112447
-4.2907e-05
4.20023e-05
-8.91474e-05
-2.32596e-06
1.57097e-06
0.000103829
-3.93645e-05
3.85357e-05
-8.21607e-05
-1.89737e-06
1.32081e-06
8.49705e-05
-3.62477e-05
3.55565e-05
-6.70814e-05
-1.59091e-06
1.15695e-06
6.47639e-05
-3.36829e-05
3.31195e-05
-5.09373e-05
-1.39571e-06
1.04408e-06
4.74075e-05
-3.15799e-05
3.11028e-05
-3.71303e-05
-1.26052e-06
9.48299e-07
3.4141e-05
-2.97198e-05
2.92598e-05
-2.66183e-05
-1.14799e-06
8.5429e-07
2.44996e-05
-2.78449e-05
2.73518e-05
-1.90151e-05
-1.03632e-06
7.55579e-07
1.74649e-05
-2.57891e-05
2.52351e-05
-1.34992e-05
-9.18141e-07
6.55544e-07
1.23061e-05
-2.34816e-05
2.28677e-05
-9.47202e-06
-7.98497e-07
5.65399e-07
8.54826e-06
-2.09523e-05
2.02877e-05
-6.54948e-06
-6.90427e-07
4.82429e-07
5.61622e-06
-1.81866e-05
1.74418e-05
-4.26299e-06
-5.88557e-07
3.91326e-07
3.20927e-06
-1.50599e-05
1.42124e-05
-2.41798e-06
-4.75332e-07
2.82418e-07
1.3192e-06
-1.13217e-05
1.02439e-05
-9.74916e-07
-3.42005e-07
1.48603e-07
4.89887e-07
-6.58611e-06
5.18253e-06
-3.40511e-07
-1.78234e-07
4.73357e-05
1.04362e-05
6.45065e-05
-1.08297e-05
-0.000182004
5.27225e-05
4.42819e-05
4.9452e-05
0.000243155
-4.79411e-05
2.70325e-06
-1.53108e-06
4.52399e-05
-0.000226386
1.92998e-06
0.000194064
-3.89729e-05
-1.44518e-06
3.73707e-05
-0.000187686
1.55532e-06
0.000147625
-3.36281e-05
3.26307e-05
-0.000145198
-1.45051e-06
1.28129e-06
0.000111031
-3.01403e-05
2.94344e-05
-0.00010981
-1.31095e-06
1.11081e-06
8.33896e-05
-2.75842e-05
2.7044e-05
-8.25451e-05
-1.19057e-06
1.04119e-06
6.30636e-05
-2.56446e-05
2.52301e-05
-6.24062e-05
-1.13751e-06
9.93879e-07
4.74993e-05
-2.38624e-05
2.33726e-05
-4.68621e-05
-1.08445e-06
9.36763e-07
3.57319e-05
-2.19261e-05
2.14321e-05
-3.50411e-05
-1.0187e-06
8.67119e-07
2.64307e-05
-1.99046e-05
1.93634e-05
-2.57516e-05
-9.42605e-07
7.81894e-07
1.89123e-05
-1.7626e-05
1.70422e-05
-1.83583e-05
-8.49321e-07
6.84905e-07
1.31494e-05
-1.51693e-05
1.44977e-05
-1.27564e-05
-7.42859e-07
5.57444e-07
8.46847e-06
-1.23963e-05
1.16576e-05
-8.23607e-06
-6.05776e-07
3.9474e-07
4.69674e-06
-9.19589e-06
8.30266e-06
-4.48846e-06
-4.29681e-07
2.02883e-07
1.92844e-06
-5.27421e-06
4.11575e-06
-1.86763e-06
-2.19448e-07
0.000147751
6.46851e-06
4.8881e-05
-7.33663e-06
-0.00013543
3.74492e-06
0.000173506
-4.39873e-05
-3.86071e-06
4.2444e-05
-0.000156395
2.51439e-06
0.000156512
-3.8618e-05
3.75733e-05
-0.000143147
-2.53449e-06
2.04146e-06
0.000126536
-3.50101e-05
3.42914e-05
-0.000116799
-2.11659e-06
1.76881e-06
9.69924e-05
-3.23561e-05
3.17925e-05
-8.9797e-05
-1.86936e-06
1.58935e-06
7.28813e-05
-3.03108e-05
2.98526e-05
-6.73756e-05
-1.70147e-06
1.46281e-06
5.47309e-05
-2.85403e-05
2.81007e-05
-5.03296e-05
-1.57721e-06
1.33591e-06
4.06617e-05
-2.66905e-05
2.61987e-05
-3.72259e-05
-1.44264e-06
1.2059e-06
2.98272e-05
-2.46608e-05
2.41159e-05
-2.71567e-05
-1.30329e-06
1.07201e-06
2.15361e-05
-2.24008e-05
2.18018e-05
-1.95267e-05
-1.15875e-06
9.41878e-07
1.53356e-05
-1.9955e-05
1.93111e-05
-1.39073e-05
-1.01699e-06
8.06394e-07
1.06651e-05
-1.7248e-05
1.65155e-05
-9.66648e-06
-8.70625e-07
6.45081e-07
6.7843e-06
-1.41883e-05
1.33657e-05
-6.07946e-06
-6.98523e-07
4.51469e-07
3.48315e-06
-1.0553e-05
9.54647e-06
-3.09269e-06
-4.89591e-07
2.35618e-07
1.56978e-06
-6.20896e-06
4.87858e-06
-1.39346e-06
-2.53026e-07
4.72693e-06
9.15827e-05
4.2233e-05
-7.32319e-05
-5.35215e-06
3.56502e-06
0.000101507
-4.00905e-05
3.93712e-05
-8.03873e-05
-3.92849e-06
2.7036e-06
9.42115e-05
-3.73325e-05
3.67076e-05
-7.44736e-05
-2.92721e-06
2.24288e-06
7.75721e-05
-3.5001e-05
3.44843e-05
-6.1183e-05
-2.41653e-06
1.97709e-06
5.96601e-05
-3.3048e-05
3.26046e-05
-4.69058e-05
-2.1299e-06
1.79427e-06
4.44156e-05
-3.13565e-05
3.09601e-05
-3.47887e-05
-1.93373e-06
1.64477e-06
3.2703e-05
-2.97655e-05
2.93503e-05
-2.55115e-05
-1.7736e-06
1.49156e-06
2.38768e-05
-2.80054e-05
2.75201e-05
-1.85655e-05
-1.6095e-06
1.3277e-06
1.71901e-05
-2.59485e-05
2.53892e-05
-1.33256e-05
-1.43517e-06
1.1622e-06
1.22335e-05
-2.36238e-05
2.30163e-05
-9.45421e-06
-1.25856e-06
1.01098e-06
8.67868e-06
-2.11504e-05
2.05106e-05
-6.68659e-06
-1.0954e-06
8.59898e-07
5.89047e-06
-1.84275e-05
1.76773e-05
-4.49123e-06
-9.30745e-07
6.86669e-07
3.58625e-06
-1.5243e-05
1.43682e-05
-2.70953e-06
-7.41149e-07
4.85073e-07
1.72662e-06
-1.14314e-05
1.03574e-05
-1.27832e-06
-5.20187e-07
2.44301e-07
6.73408e-07
-6.56253e-06
5.0929e-06
-4.32624e-07
-2.60136e-07
1.23278e-05
4.85303e-06
1.78221e-06
2.39217e-05
-0.000163831
0.000145323
-2.04475e-05
-3.86789e-06
2.0449e-07
-5.60026e-05
-1.09066e-06
5.85116e-05
1.73063e-05
-9.21439e-06
4.18668e-05
-0.000280463
8.85111e-06
0.000310918
-4.37331e-05
6.12725e-05
1.84494e-05
-5.9981e-07
4.73013e-05
-0.000301305
0.000334317
-5.0093e-05
-8.28527e-06
-3.1007e-06
-5.03553e-05
3.01962e-06
5.13958e-05
1.89161e-05
-2.07148e-06
5.04244e-05
-0.000275089
4.27376e-06
0.000296903
-5.34391e-05
4.81958e-05
1.81538e-05
-3.1764e-06
4.70689e-05
-0.000250734
0.000268217
-4.95289e-05
-1.93934e-07
2.69331e-07
-1.2874e-07
5.58719e-06
1.25857e-07
6.42061e-09
-2.54021e-08
1.84679e-07
0.000167295
-3.43571e-06
2.65587e-05
3.0431e-05
-0.000186096
0.000181346
-2.97569e-05
-1.64701e-06
-7.93113e-06
-0.000264935
7.66599e-06
0.000281935
4.0186e-05
-4.20083e-06
3.59527e-05
-0.000216753
3.8803e-06
0.000218549
-3.72249e-05
-2.79539e-05
-2.15985e-06
-0.000172659
0.000137261
4.22215e-05
5.93284e-07
3.96842e-05
-0.000167293
0.000173416
-4.04206e-05
-6.57659e-07
5.19689e-05
6.23207e-05
5.80774e-05
-4.21221e-06
5.97653e-05
-0.000202635
-6.73426e-06
4.38707e-05
5.89867e-06
-4.69488e-05
-0.000250698
-1.54804e-06
-0.000160752
1.79392e-07
0.000173022
5.10099e-05
-2.95767e-06
4.52697e-05
-0.000186518
2.19607e-06
0.000204941
-4.71582e-05
5.48006e-07
-4.15579e-08
4.53283e-08
7.98991e-06
1.06579e-07
4.94912e-07
-1.03313e-07
8.41998e-06
0.000303129
-7.12848e-06
4.46613e-05
3.80206e-05
-0.000225159
0.00022893
-3.99469e-05
-4.00548e-06
-1.83356e-06
-0.000264034
3.71837e-06
0.000279433
4.75093e-05
-1.7216e-06
3.96915e-05
-0.000218415
2.60952e-06
0.000223555
-4.20023e-05
-5.25518e-05
-6.70144e-06
-0.000267184
0.000182012
5.39442e-05
-3.162e-06
4.72059e-05
-0.000191447
0.000212913
-4.94597e-05
-3.58628e-06
5.31755e-05
5.59591e-05
5.89925e-05
9.5426e-06
6.95333e-05
-0.000201709
-3.32529e-06
5.1032e-05
4.70032e-06
-5.52091e-05
-0.000249341
-7.22062e-06
-0.000157831
6.10351e-06
0.000172107
5.455e-05
-4.36469e-06
4.73968e-05
-0.000182222
4.26199e-06
0.000202549
-4.98068e-05
4.05435e-07
4.17146e-08
-4.04646e-08
4.96162e-06
-1.49049e-08
5.06722e-07
1.75903e-08
6.39258e-06
0.000255664
-2.01369e-07
4.47427e-05
3.83905e-05
-0.000206947
0.000211474
-4.02876e-05
-8.93667e-07
-5.15486e-05
-2.07696e-06
-0.000229568
0.000159533
5.18954e-05
-8.11844e-06
4.5369e-05
-0.000172119
0.000189981
-4.75316e-05
-4.4147e-06
-2.4033e-07
5.32871e-06
-1.30299e-06
2.32328e-07
-7.16206e-06
-0.000126309
-2.64679e-06
-3.41219e-06
1.66301e-05
-0.000191864
-1.16651e-05
-6.18166e-06
-4.73998e-06
2.20757e-05
-4.44174e-08
3.60641e-07
-6.33537e-08
2.58496e-07
-8.74747e-08
-5.8463e-06
8.35549e-08
5.14038e-06
-2.66411e-05
-5.01416e-06
5.26915e-07
2.22038e-05
3.27206e-06
-3.2668e-05
-3.47473e-06
3.22126e-05
9.95902e-06
8.66075e-06
1.37797e-07
-4.6142e-05
4.7597e-05
-5.75234e-07
-9.15603e-06
3.52515e-08
1.25243e-09
-2.05606e-07
-2.18106e-07
2.06284e-06
-5.41956e-06
2.11869e-07
-6.29789e-06
-3.83854e-06
-2.60096e-06
-3.26133e-06
-3.24286e-06
1.93209e-05
-2.12449e-06
3.2767e-05
2.17788e-05
2.96533e-05
2.64698e-05
-0.00014117
-5.8647e-06
-3.80627e-06
-4.72525e-06
0.000197978
-2.66627e-05
-7.00735e-06
2.83002e-05
-0.000197055
-1.03708e-05
-4.89776e-06
-5.5909e-06
-4.37394e-06
-6.05868e-06
2.4376e-05
-5.46328e-06
4.37714e-05
5.57058e-05
4.24602e-05
5.51673e-05
-0.000185762
-7.79924e-06
-7.17277e-06
-6.2037e-06
-3.06621e-08
1.35065e-07
-3.78237e-07
2.71142e-07
5.88779e-06
-1.43424e-07
4.86415e-07
1.0963e-07
8.37449e-06
5.60642e-06
-1.37003e-06
-2.65185e-07
1.2967e-05
-0.000319855
-1.15763e-05
-1.04666e-05
3.83748e-05
-0.000266903
-7.70206e-06
-9.1165e-06
3.02659e-05
-2.15549e-07
2.20519e-07
7.95638e-06
-1.8107e-06
2.72842e-07
-6.16299e-06
-9.09403e-08
-4.00175e-05
2.77766e-06
4.06735e-05
1.21375e-05
1.42884e-05
-1.68115e-06
-7.26517e-05
-1.53915e-05
1.30666e-06
7.8246e-05
1.02423e-05
-5.4693e-05
5.77935e-05
-1.09453e-05
-3.21805e-07
4.60626e-07
-1.00075e-07
1.01634e-07
-8.8557e-06
2.17111e-06
-5.70421e-06
-2.23562e-07
0.000262717
-3.5393e-05
3.50319e-05
-0.000242705
1.19733e-05
-1.14143e-05
-9.69858e-06
-1.0315e-05
-9.30958e-06
-1.06849e-05
3.94781e-05
8.27581e-06
-9.56302e-06
8.2662e-05
9.10569e-05
8.58592e-05
8.76221e-05
-0.00028777
-1.31074e-05
-1.35009e-05
-1.23133e-05
-8.52539e-06
-6.88327e-06
-7.32885e-06
-8.11755e-06
3.19489e-05
7.54133e-05
6.8057e-05
6.62934e-05
7.81332e-05
-0.000243241
-9.41681e-06
-1.17326e-05
-1.09287e-05
-2.13959e-07
2.18478e-07
3.18944e-06
-8.12394e-06
-9.19152e-08
9.91104e-08
7.63652e-06
-1.59095e-06
-2.09551e-07
8.00107e-06
-1.8124e-06
5.52203e-07
-5.52551e-08
5.86174e-08
-8.56794e-06
1.52545e-05
-7.55648e-05
-1.64233e-05
8.12421e-05
-1.95841e-06
-2.28375e-06
-5.94934e-05
1.86062e-06
6.15449e-05
2.00872e-05
4.70161e-07
-9.82942e-08
-8.91154e-06
1.67946e-05
-2.14159e-06
-7.60491e-05
8.08831e-05
2.18441e-06
-1.79854e-05
-1.02493e-07
1.10147e-07
3.23123e-06
-7.84191e-06
-9.34223e-06
-1.22067e-05
-1.11666e-05
-1.15427e-05
-1.18358e-05
4.54213e-05
-9.25935e-06
9.16533e-05
9.39895e-05
9.05174e-05
9.49929e-05
-0.000310576
-1.44805e-05
-1.59989e-05
-1.52335e-05
0.000335589
-5.38876e-05
-6.48817e-06
5.06332e-05
-0.000304773
-2.0853e-07
3.21824e-06
-8.17307e-06
-6.44773e-06
-1.27286e-05
-1.27075e-05
-1.23641e-05
-1.30582e-05
4.91132e-05
-7.76407e-06
9.12013e-05
9.24072e-05
9.43126e-05
8.96349e-05
-0.00031281
-1.60768e-05
-1.64987e-05
-1.57621e-05
5.63189e-07
7.91188e-06
-4.12701e-08
5.12367e-07
-1.20628e-08
6.49276e-06
7.56691e-06
-1.56172e-06
-9.01266e-08
2.4747e-08
-1.87618e-08
6.24555e-06
-1.20721e-06
5.53774e-07
-8.49142e-06
-5.18573e-08
-5.79018e-05
-2.63523e-06
5.97169e-05
2.01118e-05
1.60027e-05
-1.57248e-06
-6.52296e-05
-1.70437e-05
1.76696e-06
6.84284e-05
1.68744e-05
-7.41379e-05
7.85807e-05
-1.80472e-05
-2.07572e-06
5.1952e-07
-3.88884e-09
6.71488e-09
-7.03511e-06
3.21359e-06
-7.77155e-06
-9.53576e-08
0.000321013
-5.49873e-05
5.16711e-05
-0.000294482
3.34522e-06
-4.7492e-07
-1.30036e-05
-1.23179e-05
-1.26771e-05
-1.26451e-05
4.91345e-05
5.63353e-06
-3.38269e-06
8.00739e-05
7.76559e-05
8.19221e-05
7.61258e-05
-0.000277304
-1.64677e-05
-1.53549e-05
-1.58144e-05
-1.32007e-05
-1.28867e-05
-1.32258e-05
-1.28704e-05
5.03499e-05
8.3834e-05
8.95038e-05
8.70337e-05
8.59733e-05
-0.000299766
-1.61868e-05
-1.67753e-05
-1.61003e-05
8.97033e-09
-2.88049e-09
2.75019e-06
-6.43872e-06
8.54204e-08
-8.26533e-08
4.78649e-06
-9.349e-07
3.03709e-08
6.15093e-06
-1.18598e-06
3.93082e-07
2.93514e-08
-2.79924e-08
-5.37088e-06
1.53637e-05
-6.17039e-05
-1.63584e-05
6.45733e-05
-1.41028e-06
-3.24811e-06
-3.81554e-05
3.23505e-06
3.85536e-05
1.50899e-05
5.13899e-07
-1.13465e-09
-6.92899e-06
1.27156e-05
-9.66024e-07
-5.08219e-05
5.28252e-05
1.09682e-06
-1.35357e-05
7.96461e-08
-7.68643e-08
2.0914e-06
-4.92888e-06
1.8538e-06
-1.14937e-05
-1.18057e-05
-1.2131e-05
-1.11704e-05
4.56892e-05
-1.44979e-06
6.77724e-05
7.32359e-05
7.19485e-05
6.8816e-05
-0.00025029
-1.47327e-05
-1.46019e-05
-1.39761e-05
0.000237984
-4.37118e-05
1.18595e-06
4.20034e-05
-0.000224213
1.48416e-08
2.71173e-06
-6.34199e-06
3.51996e-06
-1.07197e-05
-9.53399e-06
-1.04008e-05
-9.86185e-06
4.04294e-05
-1.62545e-08
6.3533e-05
6.00651e-05
6.43883e-05
5.94031e-05
-0.000221648
-1.20954e-05
-1.3699e-05
-1.30849e-05
3.86441e-07
4.87308e-06
4.67973e-08
4.70043e-06
-9.24347e-07
9.40298e-08
3.83136e-07
-5.27191e-06
3.0646e-08
-3.51284e-05
-3.2921e-06
3.54365e-05
1.38848e-05
1.16445e-05
-4.7216e-05
4.90264e-05
-1.24125e-05
-8.9183e-07
2.04892e-06
-4.83962e-06
8.23465e-08
0.00020805
-3.66133e-05
3.58195e-05
-0.000197359
-7.92266e-06
-8.5674e-06
-8.90366e-06
-7.57205e-06
3.39493e-05
5.13383e-05
5.58324e-05
5.53023e-05
5.17212e-05
-0.000193086
-1.10224e-05
-1.05424e-05
-9.90245e-06
1.1937e-07
1.28368e-07
-1.25363e-07
3.0859e-06
1.12746e-07
1.1235e-07
2.68972e-06
7.53449e-08
5.23074e-07
-7.09623e-08
8.40178e-06
5.18814e-07
7.97689e-08
8.4357e-06
-2.89278e-08
4.72506e-07
3.0444e-08
5.60753e-06
4.6985e-07
-3.13488e-08
5.70331e-06
3.47081e-06
-5.5706e-05
-3.8458e-06
-1.66018e-06
-1.93432e-06
-1.70023e-06
-1.89943e-06
2.09416e-07
-2.22014e-07
3.01811e-06
-7.61557e-07
2.65546e-06
-4.21198e-05
-1.40202e-06
-1.20308e-06
-1.16495e-06
-1.44304e-06
1.95096e-07
2.65328e-06
-6.71331e-07
-1.5163e-06
-1.83945e-05
-5.26522e-07
-4.50405e-07
-5.54111e-07
-4.32743e-07
-2.81941e-05
-7.10102e-07
-9.59062e-07
-9.19548e-07
-7.44585e-07
-1.6376e-06
-8.03172e-07
-6.7825e-06
6.64348e-06
1.61185e-06
8.10425e-07
-3.2007e-08
7.52557e-06
-7.81434e-07
1.26225e-05
1.62215e-05
1.41851e-05
1.45687e-05
-5.18219e-05
-2.14228e-06
-2.52217e-06
-2.23311e-06
-2.42109e-06
4.60497e-08
1.57343e-07
-5.24788e-08
-3.22902e-06
-6.80533e-07
5.79715e-06
1.05273e-05
9.69756e-06
8.35929e-06
1.19765e-05
-3.80985e-05
-1.84883e-06
-1.62723e-06
-1.92898e-06
-1.54735e-06
-2.64287e-06
5.4466e-07
-1.16444e-05
-6.63076e-07
1.18918e-05
2.55407e-06
9.78463e-07
1.29372e-06
-4.63731e-06
4.3129e-06
-1.25437e-06
-8.84468e-07
-1.2485e-06
7.68111e-07
4.3321e-07
4.6069e-07
1.27808e-06
-3.31604e-06
1.269e-06
-1.10063e-06
3.08512e-06
5.51671e-07
-1.95415e-06
3.81927e-07
-5.01528e-07
1.26881e-06
-6.10847e-06
5.89844e-06
-1.60239e-06
1.01432e-06
1.28223e-06
-8.29435e-06
8.41225e-06
-1.37173e-06
2.78835e-06
-4.48459e-06
1.64428e-06
4.34926e-06
1.38953e-06
7.79711e-07
-1.06927e-05
-8.95889e-07
1.07906e-05
-2.63655e-06
-5.19871e-06
4.91487e-06
1.28771e-06
-7.46322e-07
1.42905e-07
3.92832e-08
-2.81607e-06
8.49736e-07
2.75505e-06
2.35058e-06
2.04555e-06
3.19335e-06
1.33372e-06
-1.64671e-05
-6.36729e-07
-6.44102e-07
-7.80485e-07
-4.54233e-07
4.07897e-06
4.10838e-06
7.35358e-06
6.16105e-06
5.15608e-06
-2.49252e-05
-9.26339e-07
-1.31611e-06
-1.23422e-06
-1.03287e-06
-2.28246e-06
3.36915e-07
1.54741e-06
5.76454e-07
4.33572e-05
-4.45755e-06
-2.36087e-06
1.65686e-06
3.00508e-06
-5.67335e-05
-3.42292e-06
-1.07815e-06
-1.12787e-06
-9.90025e-07
-1.2111e-06
1.94347e-06
5.70933e-06
-2.54466e-06
1.39843e-05
1.67289e-05
1.47325e-05
1.57967e-05
1.47481e-07
-1.60154e-07
1.19017e-06
-3.07177e-06
2.25416e-06
-9.33919e-07
-7.21604e-07
-8.47595e-07
-8.04982e-07
1.23175e-06
1.20307e-05
1.0358e-05
1.25748e-05
1.00521e-05
-2.80435e-06
3.02686e-05
-3.29508e-06
8.8883e-07
1.33649e-07
1.0557e-06
-2.70157e-06
-1.28046e-06
-2.16423e-05
-4.32807e-07
-2.85953e-07
-3.56302e-07
-3.64606e-07
-5.23356e-07
2.51434e-06
4.59859e-06
2.97416e-06
4.07129e-06
3.70982e-06
-5.50515e-07
-5.93385e-07
-4.75016e-07
-6.70332e-07
6.19699e-06
8.08464e-06
5.96116e-06
8.03363e-06
-1.26503e-07
3.89422e-07
1.28825e-07
7.50723e-06
4.04327e-07
-1.24918e-07
7.66973e-06
-4.11401e-06
-6.79696e-05
-2.35087e-06
-2.16776e-06
-2.13858e-06
-2.38027e-06
-2.46857e-07
2.50933e-07
7.12366e-06
-1.68844e-06
-4.01622e-06
-7.78015e-05
-2.57642e-06
-2.80291e-06
-2.78572e-06
-2.60136e-06
-2.44777e-07
7.27835e-06
-1.71506e-06
3.84795e-06
-9.01076e-05
-3.50116e-06
-3.33545e-06
-3.46794e-06
-3.3436e-06
-3.46923e-06
-8.52349e-05
-3.16985e-06
-3.00951e-06
-2.99841e-06
-3.18306e-06
-3.75805e-06
3.62275e-08
-1.68123e-05
-1.61388e-07
1.72888e-05
3.60432e-06
-1.54806e-06
9.21646e-06
1.7944e-05
1.80981e-05
1.6354e-05
1.97644e-05
-6.43942e-05
-2.93991e-06
-2.80229e-06
-2.68843e-06
-3.06543e-06
-1.04623e-07
3.6902e-07
1.0372e-07
-7.88918e-06
-2.95461e-06
-1.31648e-05
4.21844e-07
1.34789e-05
2.84475e-06
-2.1785e-06
1.07951e-05
1.93405e-05
2.2493e-05
2.05365e-05
2.1236e-05
-7.46161e-05
-3.17683e-06
-3.54298e-06
-3.31089e-06
-3.39728e-06
-2.36202e-07
3.98332e-06
-1.65673e-05
-4.00955e-06
1.6842e-05
1.01908e-07
1.01322e-07
-1.5122e-05
1.54742e-05
-2.48437e-07
4.92071e-06
-7.24602e-07
-1.34244e-05
4.31603e-06
5.6557e-07
1.37397e-05
4.53101e-06
-2.42242e-07
-1.841e-05
1.39087e-07
-4.55973e-06
1.86775e-05
-1.56678e-05
-3.78108e-06
-3.75999e-07
1.5931e-05
-9.51503e-06
9.68822e-06
1.17661e-06
3.1436e-06
-1.26203e-05
4.06348e-06
-8.88123e-07
1.29113e-05
-1.21406e-05
6.55391e-07
1.22873e-05
-2.95642e-06
-1.7739e-05
1.82364e-05
3.81958e-06
-8.36075e-08
3.81869e-07
-1.04984e-07
-8.06587e-06
2.63574e-06
1.34717e-05
-2.90082e-06
2.29934e-05
2.55814e-05
2.50868e-05
2.34634e-05
-8.75545e-05
-3.96089e-06
-4.28494e-06
-4.12288e-06
-4.1135e-06
1.2237e-05
2.2357e-05
2.35561e-05
2.15413e-05
2.4415e-05
-8.23457e-05
-3.79061e-06
-3.75292e-06
-3.60202e-06
-3.95118e-06
-3.733e-07
-1.96407e-05
2.8992e-07
2.01389e-05
4.35175e-06
3.20959e-06
7.88296e-05
-8.24529e-06
-3.31816e-06
-6.89071e-05
-3.74938e-06
-1.49407e-06
-1.26841e-06
-1.35887e-06
-1.3962e-06
6.99555e-06
-3.03615e-06
1.90046e-05
1.85768e-05
1.74926e-05
2.0223e-05
-2.37192e-07
2.37673e-07
2.78994e-06
-7.25722e-06
-3.76315e-06
-1.64225e-06
-1.68116e-06
-1.54023e-06
-1.77613e-06
-3.31075e-06
2.0357e-05
2.29355e-05
2.16836e-05
2.15204e-05
8.63695e-05
-9.43618e-06
-3.39065e-06
-2.36001e-07
2.85809e-06
-7.41647e-06
3.69637e-06
-9.13888e-05
-3.42846e-06
-2.18158e-06
-2.18405e-06
-2.07693e-06
-2.28552e-06
3.44792e-06
1.04712e-05
-3.38791e-06
2.39709e-05
2.60384e-05
2.55383e-05
2.44469e-05
-2.05258e-06
-1.82843e-06
-1.95146e-06
-1.92479e-06
2.33302e-05
2.4e-05
2.48612e-05
2.25205e-05
-3.21621e-06
1.57424e-07
-1.48991e-07
8.00428e-06
-1.74153e-06
2.08263e-06
-9.08259e-05
-1.55545e-06
-3.99629e-06
-3.99439e-06
-3.97401e-06
-4.02404e-06
2.59596e-06
-9.27367e-05
-3.95502e-06
-3.89092e-06
-3.91316e-06
-3.93659e-06
1.65942e-07
8.03376e-06
-1.75711e-06
-3.10716e-06
-9.27157e-05
-3.67857e-06
-3.58202e-06
-3.59016e-06
-3.67209e-06
-9.34922e-05
-3.77137e-06
-3.82809e-06
-3.84564e-06
-3.76122e-06
6.03009e-07
-5.02817e-06
-2.02489e-05
2.06864e-05
4.8453e-06
-6.37471e-07
8.11537e-08
5.28199e-07
-7.81267e-08
-8.95499e-06
2.78958e-06
1.61523e-05
-2.53374e-06
2.32297e-05
2.49475e-05
2.5347e-05
2.28523e-05
-8.8699e-05
-4.69261e-06
-4.87931e-06
-4.85738e-06
-4.7112e-06
2.94983e-06
1.58224e-05
2.35475e-05
2.59374e-05
2.379e-05
2.5682e-05
-9.0663e-05
-4.66027e-06
-4.7798e-06
-4.6099e-06
-4.83309e-06
-5.11289e-06
-6.78231e-07
-1.95961e-05
6.73998e-07
1.99623e-05
4.93593e-06
4.96765e-06
-5.46703e-07
-1.91288e-05
1.93504e-05
4.90188e-07
-4.99766e-06
-1.54616e-05
1.58152e-05
5.07375e-06
-3.7679e-08
4.67028e-06
-1.87613e-05
-3.38363e-07
-4.70042e-06
1.90173e-05
-3.8509e-07
-1.58798e-05
5.39685e-06
2.82479e-07
1.62162e-05
-2.03256e-05
2.07813e-05
5.65045e-07
4.78373e-06
5.2275e-07
8.40117e-08
-8.98305e-06
-3.00435e-06
1.44858e-05
2.39574e-05
2.59195e-05
2.37796e-05
2.61086e-05
-9.04649e-05
-4.36349e-06
-4.41649e-06
-4.24643e-06
-4.53994e-06
-1.99935e-05
-4.51024e-07
2.04814e-05
4.48721e-06
1.52681e-05
2.40089e-05
2.61041e-05
2.39491e-05
2.61667e-05
-9.13825e-05
-4.46208e-06
-4.72157e-06
-4.54505e-06
-4.63325e-06
-1.90648e-05
1.92704e-05
-5.05856e-06
-5.97757e-07
-6.91749e-07
-1.53616e-05
1.56564e-05
6.33279e-07
5.54364e-06
-1.58512e-05
5.46203e-06
1.61776e-05
-4.80515e-07
-6.85106e-07
-1.84562e-05
6.65706e-07
1.86015e-05
-5.13839e-06
9.43061e-05
-1.25968e-05
-2.30061e-06
2.66351e-06
1.63583e-07
-1.56225e-07
3.30782e-06
-8.20136e-06
2.21228e-06
-9.2391e-05
-1.71294e-06
-2.82936e-06
-2.74273e-06
-2.70037e-06
-2.86324e-06
2.57036e-06
1.29561e-05
-2.14913e-06
2.43825e-05
2.54736e-05
2.58666e-05
2.40275e-05
2.66834e-06
-2.7778e-06
-2.59752e-06
-2.6483e-06
-2.72125e-06
2.92608e-06
2.46736e-05
2.64394e-05
2.6193e-05
2.48881e-05
-1.86396e-06
3.02619e-06
9.50247e-05
-1.20565e-05
1.7076e-07
3.30839e-06
-8.22819e-06
-9.41546e-05
-3.11718e-06
-2.48526e-06
-2.28523e-06
-2.39473e-06
-2.36468e-06
1.13498e-05
-3.2289e-06
2.49816e-05
2.63845e-05
2.47813e-05
2.65835e-05
-2.57678e-06
-2.52687e-06
-2.45164e-06
-2.64758e-06
2.50586e-05
2.65962e-05
2.66514e-05
2.50208e-05
-1.57088e-08
5.70996e-07
1.8856e-08
7.28677e-06
5.68317e-07
-1.18733e-08
7.19e-06
-1.04304e-06
-8.79529e-05
-4.0331e-06
-4.01004e-06
-4.04355e-06
-4.00249e-06
-3.70986e-08
4.40516e-08
6.992e-06
-1.38615e-06
-5.59079e-07
-8.44739e-05
-4.01508e-06
-3.94914e-06
-3.98912e-06
-3.98126e-06
-2.93696e-08
6.90197e-06
-1.36169e-06
9.20157e-08
-7.64049e-05
3.21488e-07
-3.81819e-06
-3.69223e-06
-3.77683e-06
-3.74033e-06
-8.05392e-05
-3.88866e-06
-3.90641e-06
-3.94942e-06
-3.84909e-06
-5.01028e-06
-6.47139e-07
-1.80223e-05
6.6328e-07
1.83199e-05
4.84713e-06
-2.23048e-06
1.62672e-05
2.19532e-05
2.44938e-05
2.24229e-05
2.39962e-05
-8.57898e-05
-4.70421e-06
-4.87364e-06
-4.71355e-06
-4.86534e-06
-2.82637e-08
5.50038e-07
3.15402e-08
-7.86148e-06
-5.10748e-06
-1.92619e-05
-6.80317e-07
1.96079e-05
4.9331e-06
-1.88384e-06
1.61688e-05
2.14477e-05
2.28943e-05
2.09171e-05
2.34585e-05
-8.22394e-05
-4.67965e-06
-4.79647e-06
-4.83213e-06
-4.64277e-06
7.03635e-07
4.94944e-06
-1.65321e-05
-4.97335e-06
1.66168e-05
-6.97088e-07
-9.07901e-07
-1.25067e-05
1.27057e-05
9.00457e-07
5.09838e-06
8.4829e-07
-1.37242e-05
5.36358e-06
-8.72047e-07
1.39541e-05
4.70638e-06
-6.5846e-07
-1.51387e-05
6.7321e-07
-4.72737e-06
1.51888e-05
-1.69742e-05
-5.03389e-06
7.08336e-07
1.70676e-05
-1.51009e-05
1.53819e-05
-7.45229e-07
5.53731e-06
-1.41059e-05
5.42904e-06
8.23189e-07
1.43469e-05
-1.81408e-05
-7.00415e-07
1.82704e-05
-5.13337e-06
-1.75573e-05
1.7841e-05
4.79027e-06
-6.30711e-07
5.47652e-07
-2.50083e-08
-7.76213e-06
1.53358e-06
1.53866e-05
-1.18666e-06
1.9228e-05
2.04731e-05
2.10917e-05
1.86503e-05
-7.39781e-05
-4.45741e-06
-4.50981e-06
-4.59342e-06
-4.37369e-06
1.58699e-05
1.98026e-05
2.23079e-05
2.03663e-05
2.17075e-05
-7.82136e-05
-4.53107e-06
-4.73701e-06
-4.59187e-06
-4.67521e-06
-5.66307e-07
-1.61031e-05
5.89087e-07
1.63347e-05
4.55741e-06
1.43273e-06
8.59824e-05
-1.31298e-05
-9.94207e-07
-8.9509e-05
-1.22567e-06
-2.91132e-06
-2.77718e-06
-2.89593e-06
-2.78702e-06
1.31413e-05
-1.71478e-06
2.31679e-05
2.50263e-05
2.36188e-05
2.45333e-05
-4.28921e-08
5.05095e-08
3.02875e-06
-7.19329e-06
-7.47501e-07
-2.91627e-06
-2.78984e-06
-2.79187e-06
-2.90656e-06
-1.26482e-06
2.2677e-05
2.34365e-05
2.3999e-05
2.21582e-05
8.20006e-05
-1.29407e-05
-5.64086e-07
-3.64109e-08
2.99694e-06
-7.10238e-06
2.88744e-07
-7.7794e-05
1.23481e-07
-2.82191e-06
-2.65424e-06
-2.70184e-06
-2.77037e-06
8.27167e-07
1.25754e-05
-4.23942e-07
2.049e-05
2.10148e-05
2.16355e-05
1.9914e-05
-2.86241e-06
-2.77496e-06
-2.74186e-06
-2.89052e-06
2.10602e-05
2.28512e-05
2.22516e-05
2.16146e-05
-1.87187e-07
-5.67782e-08
5.97693e-08
5.4079e-06
-1.02973e-06
-1.25964e-06
-5.93972e-05
1.45506e-06
-2.96732e-06
-2.7806e-06
-2.91995e-06
-2.83213e-06
-9.80186e-07
-6.35672e-05
-3.10773e-06
-3.18535e-06
-3.23629e-06
-3.06081e-06
-5.9924e-08
5.49825e-06
-1.05031e-06
6.86146e-07
-7.21184e-05
-3.56311e-06
-3.60415e-06
-3.65415e-06
-3.51786e-06
-6.78402e-05
-3.46132e-06
-3.30394e-06
-3.3547e-06
-3.41549e-06
4.77767e-07
-4.10193e-06
-1.35995e-05
1.37855e-05
3.97229e-06
-4.58189e-07
-1.57232e-08
4.57135e-07
1.77389e-08
-6.08388e-06
3.41185e-07
1.19989e-05
-1.42988e-07
1.46992e-05
1.56306e-05
1.62078e-05
1.41671e-05
-5.67415e-05
-3.53908e-06
-3.49747e-06
-3.64485e-06
-3.39289e-06
5.83357e-07
1.3028e-05
1.52421e-05
1.73933e-05
1.57929e-05
1.67981e-05
-6.09532e-05
-3.68052e-06
-3.92818e-06
-3.81438e-06
-3.79205e-06
-3.65819e-06
-4.09851e-07
-1.21618e-05
4.23595e-07
1.23218e-05
3.53845e-06
4.23892e-06
-5.95739e-07
-1.32274e-05
1.32604e-05
6.10542e-07
-4.26244e-06
-1.20915e-05
1.22793e-05
4.98878e-06
-9.15801e-07
4.60201e-06
-1.46582e-05
-6.43141e-07
-4.6241e-06
1.47029e-05
-9.22399e-07
-1.08364e-05
4.60596e-06
9.22226e-07
1.09968e-05
-1.40927e-05
1.42861e-05
4.98336e-07
4.10522e-06
4.65207e-07
-1.36008e-08
-6.18829e-06
-8.70034e-07
1.47403e-05
1.74948e-05
1.98515e-05
1.80713e-05
1.9233e-05
-6.96282e-05
-4.17519e-06
-4.4074e-06
-4.27831e-06
-4.30293e-06
-1.56009e-05
-5.43878e-07
1.58209e-05
4.45665e-06
1.3951e-05
1.69208e-05
1.80019e-05
1.63533e-05
1.86138e-05
-6.52732e-05
-4.06234e-06
-4.06222e-06
-3.9423e-06
-4.18322e-06
-1.27567e-05
1.27879e-05
-4.12684e-06
-5.80956e-07
-9.27158e-07
-9.21763e-06
9.34808e-06