/*--------------------------------*- C++ -*----------------------------------*\
| =========                 |                                                 |
| \\      /  F ield         | OpenFOAM: The Open Source CFD Toolbox           |
|  \\    /   O peration     | Version:  2012                                  |
|   \\  /    A nd           | Website:  www.openfoam.com                      |
|    \\/     M anipulation  |                                                 |
\*---------------------------------------------------------------------------*/
FoamFile
{
    version     2.0;
    format      ascii;
    class       surfaceScalarField;
    location    "0.108/fluid";
    object      phi;
}
// * * * * * * * * * * * * * * * * * * * * * * * * * * * * * * * * * * * * * //

dimensions      [0 3 -1 0 0 0 0];
oriented        oriented;


internalField   nonuniform List<scalar> 
46515
(
-0.00286243
-0.0170439
0.00153895
0.0114305
-0.00309849
-0.00283014
-0.00304306
-0.0234606
0.00749695
0.00174651
-0.00403181
0.018258
-0.0150213
-0.00129623
0.001204
0.00208516
0.0130303
-0.00915508
-0.00314604
0.00325235
0.00830322
0.000747321
-0.00557767
-0.00323536
0.00316861
0.00518381
0.000461861
-0.00341726
-0.00290202
0.00280606
0.00322482
0.000289245
-0.00211157
-0.00253058
0.00244663
0.00201193
0.000183982
-0.00131717
-0.00222477
0.00216103
0.00126275
0.000118452
-0.000828683
-0.00199849
0.0019531
0.000797487
7.69258e-05
-0.000523881
-0.00183988
0.00180895
0.000505334
5.01722e-05
-0.000330272
-0.00173308
0.00171266
0.000319001
3.26819e-05
-0.000205898
-0.00166352
0.00165063
0.000199062
2.10649e-05
-0.000124897
-0.00162067
0.00161324
0.000120642
1.31625e-05
-6.99274e-05
-0.00159737
0.00159402
6.74478e-05
7.563e-06
-2.97293e-05
-0.00158939
0.00158962
2.87169e-05
3.26427e-06
-0.00698158
-0.00979246
0.000611745
0.0056783
-0.009224
0.00680008
0.000658687
-0.00566001
0.0074112
-0.00798496
0.00269949
-0.00194016
0.00664604
0.000564316
-0.00573315
0.000296678
7.92642e-05
0.00492232
0.000422296
-0.00383593
-0.000850577
0.00101899
0.00335913
0.000298667
-0.00248994
-0.00135118
0.00141994
0.00220737
0.000206459
-0.00159558
-0.00154674
0.00157015
0.00142539
0.000141262
-0.00101824
-0.00160608
0.00161022
0.000913898
9.60904e-05
-0.000649595
-0.00160952
0.00160656
0.000584655
6.50669e-05
-0.000414197
-0.00159411
0.0015895
0.000373411
4.38237e-05
-0.000262831
-0.0015761
0.00157208
0.000237297
2.92613e-05
-0.000164125
-0.00156181
0.00155894
0.000148301
1.92209e-05
-9.93959e-05
-0.0015528
0.00155154
8.97327e-05
1.21939e-05
-5.51896e-05
-0.00154998
0.00155025
4.97549e-05
7.07819e-06
-2.35517e-05
-0.0015536
0.00155562
2.1197e-05
3.07076e-06
-0.00273799
-0.00770401
0.00198293
0.000295204
-0.00356008
0.00606701
-0.00545584
0.00258158
0.000335548
-0.00339563
0.00364594
-0.00309102
0.00248925
0.000320608
-0.00268287
0.0016606
-0.00126702
0.0019918
0.000271229
-0.00191459
0.000319688
-7.32311e-05
0.00143482
0.000212681
-0.00129433
-0.000498361
0.000642252
0.000976001
0.00015916
-0.000850623
-0.000968195
0.00104841
0.00064388
0.000115573
-0.000551269
-0.001227
0.0012702
0.000418265
8.21922e-05
-0.000354905
-0.00136512
0.00138781
0.000269657
5.75326e-05
-0.000227484
-0.00143732
0.00144912
0.000172962
3.97302e-05
-0.000144872
-0.00147501
0.00148126
0.000110185
2.70359e-05
-9.08337e-05
-0.00149549
0.00149914
6.91089e-05
1.80173e-05
-5.48755e-05
-0.00150832
0.00151101
4.17471e-05
1.15524e-05
-3.02039e-05
-0.00151906
0.00152186
2.28995e-05
6.75289e-06
-1.27745e-05
-0.00153059
0.00153366
9.69778e-06
2.9354e-06
-0.0022093
-0.00517873
-0.0160462
0.00578186
0.00882952
-0.00239968
-0.00214444
-0.00234546
-0.0184297
0.00796225
-0.00594448
0.00675446
-0.00507331
0.0146978
-0.00426867
-0.0126924
0.000108469
0.00496985
0.000757292
0.011119
-0.00273364
-0.00809863
-0.00214928
0.00236198
0.00737859
0.00324044
-0.00172358
-0.0050785
-0.00261227
0.0026165
0.00473097
0.00206716
-0.00109388
-0.00317314
-0.00251782
0.00246523
0.00299825
0.0013217
-0.000701525
-0.00198907
-0.00229144
0.00223371
0.00189662
0.000851927
-0.000454223
-0.00125401
-0.00207372
0.00202606
0.00120269
0.000553418
-0.000296064
-0.000795497
-0.00190174
0.00186638
0.000765675
0.000361518
-0.000193573
-0.000506333
-0.0017771
0.00175246
0.000488422
0.000236703
-0.000126302
-0.000321391
-0.00169166
0.00167524
0.000310477
0.000154579
-8.15053e-05
-0.000202105
-0.00163569
0.00162537
0.000195444
9.98196e-05
-5.09992e-05
-0.00012288
-0.00160166
0.00159586
0.000118739
6.24806e-05
-2.93384e-05
-6.88825e-05
-0.00158379
0.00158136
6.64683e-05
3.5946e-05
-1.27133e-05
-2.93978e-05
-0.0015786
0.00157921
2.84838e-05
1.55792e-05
-0.00563863
-0.00214434
-0.00952421
0.00248036
0.00465092
-0.00236223
-0.00781232
0.006808
0.00277044
-0.00577582
0.00634613
-0.00206519
-0.0069902
0.00303076
-0.00230207
0.00585751
0.00244969
-0.00157247
-0.0051588
0.00066887
-0.000280086
0.00444512
0.00188362
-0.00112642
-0.00352354
-0.000548049
0.000737391
0.00309139
0.00135913
-0.000785498
-0.00232303
-0.00112937
0.00121622
0.00206149
0.000952612
-0.000540619
-0.00150673
-0.00139044
0.00142741
0.0013467
0.000657961
-0.000369263
-0.000970743
-0.00149783
0.00151163
0.000871545
0.000450492
-0.000250754
-0.000623944
-0.00153523
0.00153898
0.000561683
0.000306424
-0.000169212
-0.000400289
-0.00154333
0.00154331
0.000360913
0.000207009
-0.000113143
-0.000255687
-0.00154127
0.00154029
0.00023083
0.000138524
-7.44177e-05
-0.000161201
-0.00153751
0.00153677
0.000145633
9.11577e-05
-4.72429e-05
-9.79267e-05
-0.00153577
0.00153585
8.84799e-05
5.78799e-05
-2.74495e-05
-5.42817e-05
-0.00153758
0.00153865
4.8943e-05
3.36306e-05
-1.19721e-05
-2.34238e-05
-0.00154346
0.0015458
2.10414e-05
1.46685e-05
-0.0010795
-0.00231427
-0.00753046
0.00168732
0.00128001
-0.00124231
-0.00311705
0.00601141
-0.00543983
0.00227054
0.0014839
-0.00119926
-0.00303684
0.00372982
-0.00319899
0.00223318
0.0014408
-0.00102379
-0.00244289
0.00181186
-0.00142445
0.00181702
0.00123621
-0.000808635
-0.00176982
0.000478425
-0.000228397
0.00132774
0.000980457
-0.000608453
-0.0012117
-0.000360325
0.000511114
0.000914244
0.000740081
-0.000443595
-0.000804822
-0.000858597
0.00094589
0.00060947
0.000540823
-0.000316387
-0.000526237
-0.00114436
0.00119362
0.000399421
0.000386388
-0.000221951
-0.000341228
-0.0013048
0.00133225
0.000259361
0.000271393
-0.000153512
-0.00022004
-0.00139416
0.00140949
0.00016738
0.000187864
-0.000104584
-0.000141046
-0.00144436
0.00145314
0.000107325
0.00012807
-6.97745e-05
-8.90607e-05
-0.00147371
0.00147913
6.77458e-05
8.54753e-05
-4.47641e-05
-5.41245e-05
-0.00149263
0.00149647
4.1158e-05
5.48463e-05
-2.62086e-05
-2.9857e-05
-0.00150709
0.00151045
2.2689e-05
3.21168e-05
-1.14765e-05
-1.26884e-05
-0.0015206
0.00152413
9.61018e-06
1.40646e-05
-0.00114944
-0.00590743
-0.0134227
0.00558122
0.00467906
-0.00126788
-0.00108896
-0.00122285
-0.0104032
0.00811195
-0.00737517
0.00713607
-0.00623042
0.00873824
-0.00594296
-0.00841518
0.0022966
0.00594099
-0.00142566
0.00753852
-0.00415267
-0.00597134
-0.000307917
0.000669835
0.00549963
0.00426016
-0.00277475
-0.00401341
-0.00134637
0.00147544
0.00376033
0.00289789
-0.00182936
-0.00263229
-0.00169009
0.00172267
0.00249487
0.00193375
-0.00120319
-0.00170982
-0.00175554
0.00175287
0.00163328
0.00128218
-0.000792114
-0.00110737
-0.00172575
0.00171344
0.00106318
0.000848707
-0.000522067
-0.000717493
-0.00167442
0.00166178
0.000691006
0.000561383
-0.000343827
-0.000464634
-0.00162747
0.00161749
0.000448273
0.000370599
-0.000225407
-0.000299532
-0.0015922
0.00158523
0.00028931
0.00024335
-0.000145926
-0.00019098
-0.00156858
0.00156434
0.000184623
0.000157702
-9.14991e-05
-0.000117873
-0.00155499
0.00155293
0.000114059
9.8951e-05
-5.26924e-05
-6.66867e-05
-0.00154974
0.0015496
6.443e-05
5.701e-05
-2.28386e-05
-2.85054e-05
-0.00155185
0.00155351
2.75912e-05
2.47141e-05
-0.00333601
-0.00290086
-0.00875692
0.00287743
0.00284324
-0.00341143
-0.0051928
0.00664103
0.00344835
-0.00583398
0.0043256
-0.00315096
-0.00502623
0.00357749
-0.00293556
0.0042787
0.003238
-0.00251783
-0.00396261
0.0013918
-0.000994643
0.00344385
0.00262576
-0.00187033
-0.0028457
8.68641e-05
0.000137949
0.00250832
0.00197274
-0.00133823
-0.00194981
-0.000640919
0.000763413
0.00173468
0.00142314
-0.000937662
-0.00130395
-0.00103492
0.00110061
0.00116703
0.0010029
-0.000648352
-0.000860618
-0.00124596
0.00128114
0.000773236
0.00069623
-0.000443976
-0.000563931
-0.0013593
0.00137838
0.000507854
0.000478063
-0.000301303
-0.000367576
-0.00142136
0.00143205
0.00033149
0.000325046
-0.000202256
-0.000238182
-0.00145668
0.00146304
0.000215061
0.000218463
-0.000133359
-0.00015243
-0.00147841
0.00148263
0.000137745
0.000144166
-8.4786e-05
-9.42054e-05
-0.00149356
0.0014968
8.50714e-05
9.1709e-05
-4.93003e-05
-5.29572e-05
-0.00150613
0.00150914
4.77966e-05
5.33495e-05
-2.15087e-05
-2.28894e-05
-0.00151831
0.00152163
2.06633e-05
2.32755e-05
-0.00164585
-0.00152082
-0.00709715
0.00112606
0.0016912
-0.00196245
-0.00223724
0.00583391
-0.00535
0.00164706
0.0020382
-0.00194927
-0.00229598
0.00386807
-0.00339499
0.00170092
0.00204246
-0.00170666
-0.0019303
0.00212014
-0.00175194
0.00144222
0.00180246
-0.00137625
-0.0014519
0.000823342
-0.000569229
0.00109209
0.00146312
-0.00105223
-0.00102589
-4.91304e-05
0.000213372
0.000775263
0.00112441
-0.000776296
-0.000699817
-0.000605317
0.000707754
0.000530481
0.000832739
-0.000558475
-0.000467851
-0.000949844
0.00101265
0.000355368
0.00060077
-0.000394226
-0.000308964
-0.00116065
0.00119902
0.000234982
0.000424944
-0.000273865
-0.000202356
-0.00128963
0.00131322
0.000154023
0.000295636
-0.000187167
-0.000131623
-0.00136931
0.00138407
0.000100227
0.000202254
-0.00012512
-8.42874e-05
-0.00141983
0.00142948
6.4149e-05
0.000135294
-8.03586e-05
-5.19479e-05
-0.00145348
0.00146016
3.95116e-05
8.69358e-05
-4.70774e-05
-2.90754e-05
-0.00147748
0.00148253
2.20886e-05
5.09378e-05
-2.06154e-05
-1.24216e-05
-0.0014966
0.00150105
9.33652e-06
2.2308e-05
-0.00248244
-0.00528681
0.000227539
-0.00642881
0.0246316
-0.0346965
0.0140464
0.00247584
0.00148233
0.00240628
-0.00139053
-0.00208923
-0.00487811
0.00817944
-0.00715662
0.0211049
-0.00670947
-0.0290201
0.0135596
-0.00195925
-0.00481279
0.00159999
-0.00751157
0.0190388
-0.0257746
0.0132595
0.00912078
0.0016149
0.00132431
-0.00167976
-0.00114959
-0.00413538
0.00929787
-0.00823027
0.012322
-0.00959199
-0.0157529
0.0119241
-0.00103345
-0.00401002
0.00158631
-0.00829295
0.0103309
-0.0129439
0.0113945
0.00878419
0.000430637
8.20902e-05
-0.000435924
-7.67857e-05
0.000450143
3.68217e-06
-0.000453845
-0.0303015
0.00234784
-0.00191909
0.00340874
0.0169608
-0.0196193
-0.00241722
0.00167507
0.00780714
0.0202806
-0.00637585
-0.0257335
-0.00315757
0.00581656
0.00212724
0.0151759
-0.00466244
-0.0174187
-0.00103929
0.0119162
0.00180406
0.0184231
-0.00846187
-0.0107413
0.000767479
-0.00706689
0.00901502
-0.0112762
0.00849422
0.000826663
-0.0024603
-0.0026182
-0.00266333
-0.00424181
-0.0164699
0.00980638
0.00610453
-0.00781743
-0.00495596
0.0116857
0.0160495
0.00265559
0.00613865
-0.00213222
-0.00737386
-0.0105587
0.00291464
-0.00710791
0.00811526
-0.00231714
-0.0100637
0.00843517
0.000212209
0.000148803
-0.00014854
-0.000212451
-0.000139465
0.000334005
0.000140326
-0.000334854
-0.0231176
0.00876636
-0.00381044
0.00140489
0.0141081
-0.0161135
-0.000276247
0.00669003
0.00917538
0.0122727
-0.00937843
-0.0147393
-0.00558182
0.00763952
-0.000956479
0.0102922
-0.00757462
-0.0115192
0.00211326
0.0115095
0.00690092
0.0146501
-0.00672972
-0.0104244
0.00304647
-0.0071161
0.00757218
-0.00933694
0.00838214
0.00338545
-0.00139063
-0.00147641
-0.00152794
-0.00609014
-0.0141677
0.00563558
0.00738704
-0.00815659
-0.00749281
0.0106328
0.00991731
0.00345283
0.00390007
-0.00343184
-0.00453362
-0.00976758
0.0040163
-0.00703478
0.00560063
-0.0039282
-0.00674499
0.00806434
4.01862e-05
0.000102681
-0.0001037
-3.91567e-05
-0.000126726
0.000103057
0.000124606
-0.000100918
-0.0123039
0.00874829
-0.00598252
-0.00165665
0.00903197
-0.0100336
0.00278391
0.00750905
0.0102568
0.00709668
0.00844852
-0.00383904
-0.00947809
0.0033857
-0.00696292
0.00493036
-0.00588485
0.00790665
0.00400364
0.00013041
-0.000686783
0.00110954
-0.000122266
0.00506916
0.0476208
-0.00280552
-0.00273966
0.0105382
0.0460571
0.00978645
-0.0026117
-0.00267049
0.00967338
-1.1915e-05
-0.000600511
0.00106251
-0.000760632
4.66408e-05
0.000758287
-4.43172e-05
-0.00558139
0.00439665
0.00588602
0.000185556
-0.00488111
0.000867283
0.00277328
-0.000670089
-0.002421
-0.00501884
-0.00536353
0.00100329
0.00426302
-0.00471191
-0.00077727
0.00558567
-0.000806522
-8.24876e-06
0.000814825
5.82229e-05
-0.00151913
0.000756393
-5.63029e-05
0.00348923
0.00281088
0.00261809
0.00258638
0.00333043
-0.00188244
0.00242762
-0.00857514
-0.0086023
-0.00826055
-0.00891379
0.0230272
0.00526361
0.00606569
0.00608043
-0.0336938
0.0139645
0.00476814
-0.00657127
0.0240093
0.00670414
0.0030399
0.00261353
0.00265089
0.00305832
-0.00220417
0.00471851
-0.00859412
-0.00821991
-0.00828592
-0.00854026
0.0224456
0.00604341
0.0053732
0.00608109
1.59634e-06
-0.00164757
0.000839636
0.000427471
-0.00043167
8.63305e-05
0.000341682
-0.000136663
-0.000344474
-0.000681815
0.00110286
0.000137107
-0.0136411
0.0388072
-0.00145919
-0.00165928
0.00551624
0.0430788
-0.00227955
-0.00213104
0.00790638
0.000226555
-0.000221868
-0.000566269
0.000903563
-0.000759156
0.000755339
5.0437e-05
0.00266222
0.00107559
-0.00234991
-0.00499223
-0.00503981
0.00173974
0.00374218
0.00525448
-0.00160795
-0.00409477
-0.00525541
0.00409276
-0.00458287
0.00551018
0.00123577
-0.000658648
8.1697e-05
-8.10007e-05
0.000657925
-0.00151244
0.000747251
6.40626e-05
-0.0317804
0.0138154
-0.00683613
0.0228332
-0.00936979
0.0112677
0.00306735
0.00272228
0.0027927
0.00309858
-0.00380519
-0.00665262
0.00810441
-0.0074751
-0.00705199
-0.00723272
-0.00729857
0.019703
0.00506882
0.00559754
0.00568436
0.00308931
0.00271949
0.00305949
0.00266622
-0.0029073
-0.00802756
-0.00787119
-0.00815335
-0.00774165
0.0213375
0.00592719
0.00523808
0.00586489
0.000106154
-0.000106962
-0.00129532
0.000637245
0.000256667
-0.000255426
-0.000420295
0.000631502
0.000228788
-0.000557707
0.000889777
-0.000523223
9.56298e-05
-9.60701e-05
0.000523636
-0.00483717
0.00343866
0.00511656
-0.00385321
0.00186861
0.00169918
0.00186396
-0.00170699
-0.00161324
-0.00457511
-0.000653982
8.43969e-05
0.000651255
-0.00452032
0.00203952
0.0029534
-0.00318915
-0.00201658
0.00472764
0.000125483
-0.000127649
-0.000993943
0.000472675
0.012362
0.00310869
0.00287622
0.00308196
0.00279434
-0.00481724
0.00901363
-0.00643202
-0.00644005
-0.0066367
-0.00623004
0.0177171
0.00538213
0.00479877
0.00527922
-0.022307
0.0128666
0.00956639
-0.00782349
0.0167744
0.000111232
-0.00128008
0.00062079
0.0127281
0.00306563
0.00283263
0.00292367
0.00308249
-0.00576617
0.00941748
-0.00573309
-0.00536363
-0.00558254
-0.00552272
0.0155534
0.0049231
0.00456629
0.00503438
0.00020454
-0.000202629
0.000146913
0.000107551
-0.000127022
-0.000107235
-0.000409876
0.000616365
0.000254985
0.000232072
-0.000233858
-0.000264002
0.000373536
-0.000517188
0.00051612
9.66716e-05
0.00165531
0.00172675
-0.00147503
-0.00447091
-0.00393054
0.00198038
0.00214648
0.0041186
-0.00202895
-0.00228946
-0.00427886
0.00261939
-0.00292637
0.00455724
0.00206315
-0.000394255
9.20923e-05
-9.3072e-05
0.000395212
-0.000977093
0.000456837
0.000128338
-0.0189145
0.0124278
-0.00807747
0.0145006
-0.0125169
0.0118962
0.00296111
0.00281486
0.00291085
0.00295531
-0.00723128
-0.0093989
0.00906337
-0.00400563
-0.00374182
-0.00393393
-0.00382795
0.0113087
0.00398368
0.00419533
0.00430519
0.00303609
0.0029411
0.0030307
0.00284556
-0.00659953
-0.00463795
-0.00472902
-0.00483748
-0.00451821
0.0133767
0.00467109
0.00422808
0.00455801
0.000122884
-0.000125187
-0.000716389
0.000324266
0.000176962
-0.000179492
-0.000136539
0.00017945
0.000227469
-0.000253136
0.000360992
-0.000288672
7.8771e-05
-7.98796e-05
0.000289764
-0.00369491
0.00185426
0.00394696
-0.00206473
0.00193577
0.00137992
0.000883807
-0.00146404
-0.000776132
-0.00363666
-0.000388405
9.18611e-05
0.000388614
-0.00336564
0.00172673
0.00147093
-0.00155446
-0.00180463
0.00352513
0.000108182
-0.00011018
-0.000499005
0.000212212
0.0110245
0.00285629
0.00284838
0.00287131
0.00275552
-0.00767602
0.00851792
-0.00311497
-0.00322455
-0.00326704
-0.00305549
0.00942477
0.00395385
0.00364129
0.00385107
-0.0105102
0.0108394
0.00813591
-0.00826037
0.00855966
0.000123787
-0.000701938
0.000312462
0.0100245
0.00276012
0.00266712
0.00275488
0.00273783
-0.00792918
0.00784689
-0.0026324
-0.00246741
-0.00261218
-0.00250593
0.00776275
0.00352961
0.00341777
0.0036239
3.63194e-05
-3.39181e-05
0.000100286
-0.000129693
0.00017102
0.00017212
-0.000283794
0.000284634
7.79144e-05
0.000755746
0.00132688
-0.000690348
-0.00351066
-0.00315849
0.00124595
-0.00138597
0.00337151
0.00165207
-0.000488072
0.00020449
0.000107853
-0.00845546
0.010284
-0.00815483
0.00702498
0.00261118
0.00264316
0.00263799
0.0025624
-0.00803208
-0.00199693
-0.00209577
-0.00209958
-0.00197397
0.00633076
0.00332037
0.0031091
0.00323578
-3.92782e-05
0.000439634
4.43526e-05
-0.000444674
0.000439707
-3.36574e-05
-0.000445293
-0.000149708
0.000269377
0.000149062
-0.000268708
0.000277418
-0.000148217
-0.000278886
-0.000115766
6.80107e-05
0.000113352
-6.55871e-05
7.23688e-05
-0.000116547
-7.15686e-05
-0.00185031
0.0153236
0.00242027
-0.00147564
-0.000635766
-0.000621483
-0.00147538
-6.2867e-05
7.09917e-05
-0.000712949
0.00114465
-0.00121384
0.0156616
-0.00152114
-0.000641262
-0.00152503
-0.000648296
-5.41703e-05
-0.000714362
0.00114556
0.000549893
0.0158682
-0.00154342
-0.000648679
-0.000678701
-0.00152978
0.0158843
-0.00152763
-0.000657711
-0.00154699
-0.00063964
0.00180082
-0.000137613
0.000887405
-0.000747084
-0.00197684
0.000173559
-0.00101309
-0.00907127
0.00133438
-0.00112927
-0.0016123
-0.00161496
-0.00112512
0.0056215
0.00221698
0.00208827
0.0020901
0.00221012
-2.24065e-05
-0.000786849
2.65029e-05
0.000782736
-0.000657663
-0.00920515
-0.00114505
-0.00164019
-0.00114747
-0.00163895
0.00571682
0.00223827
0.00211113
0.0021133
0.00224094
0.0017835
0.000272557
0.000872567
-0.000241398
-0.000733427
-0.00195385
0.000130382
-0.00178348
0.000656298
-0.000550134
0.00164422
-9.69953e-05
0.000468455
-0.000345623
3.88116e-05
-0.00148672
0.000124648
0.000461603
-0.00135359
-9.18699e-05
-0.000352661
-0.00195782
0.000675496
3.10538e-05
0.00180846
-0.000556802
0.000647388
-0.000543272
0.00166295
0.000164349
0.000247055
0.000447601
-0.000341535
-0.000218905
-0.0013716
0.000454413
-0.00137319
-0.000346144
0.000157334
0.000258309
0.00063862
-0.000229181
-0.000533609
0.00164938
0.000895421
-0.000753179
-0.0019608
-0.000102172
-0.000787503
-1.88711e-05
0.000783951
0.000390241
-0.00945058
-0.00111441
-0.00169131
-0.00158476
-0.00118062
0.005836
0.00226657
0.00223557
0.00206288
0.00224019
-0.00905853
-0.00115401
-0.00165211
-0.00115731
-0.00164913
0.00574196
0.00223492
0.00209808
0.00223115
0.00210176
0.000922715
2.09617e-05
-0.000772805
-0.00212812
-0.0122986
0.00633509
0.00121474
-0.000804368
-0.00144529
0.0120552
0.00185375
0.00149806
0.00123117
0.00124669
0.001498
-0.00116512
-0.00625214
0.00149701
-0.00289573
-0.00279108
-0.0027977
-0.00289099
-2.73814e-05
3.25089e-05
-0.00156723
0.000775111
-0.000970027
0.00151789
0.00125776
0.00124279
0.00152163
-0.000737559
-0.00293902
-0.0028555
-0.00284021
-0.00294948
0.00153376
-0.0123304
0.00606458
-0.00029861
-2.33051e-05
-0.0015695
0.00077779
0.000370546
0.0126146
0.0013244
0.00128791
0.00116494
0.00172905
0.000363167
-0.00674013
-0.00283445
-0.00298703
-0.0027668
-0.00307676
0.00151182
0.00125452
0.00125958
0.00151802
-0.00294682
-0.00286168
-0.00285928
-0.0029567
0.0001169
0.000395704
-0.000112646
-0.000399946
0.000389818
0.000119558
-0.000392465
0.00300257
0.0147749
-0.00137699
-0.000584091
-0.00139378
-0.000585954
0.000187105
-0.000180332
-0.000635182
0.00102439
0.00342438
0.0141594
-0.0012855
-0.000538401
-0.0012722
-0.000529759
0.000191728
-0.000627169
0.00101265
-0.00383533
0.0125825
0.00405527
-0.0010091
-0.00039012
-0.000387688
-0.000986828
0.0133756
-0.0011254
-0.000462432
-0.00115096
-0.000459903
0.00173472
0.000385872
0.000826517
-0.000362119
-0.000696347
-0.00188894
0.00163634
-0.00890118
-0.00109761
-0.00157845
-0.00110399
-0.00157405
0.00548499
0.00217123
0.0020566
0.0021806
0.00205292
6.6644e-05
-0.000717002
-6.51534e-05
0.000715486
0.00176876
0.000855893
0.00030523
-0.00072318
-0.00193426
0.00189399
-0.00866891
-0.00106995
-0.00152491
-0.00106131
-0.00153162
0.00530434
0.00213572
0.00201125
0.0020152
0.00212403
-0.000365167
-0.0017142
0.000585795
0.0015994
-0.000495994
0.000389997
0.000418709
0.00038963
-0.000305507
-0.000405666
-0.00135255
-0.000347608
0.000410716
-0.00136262
0.000370123
-0.000320377
-0.00166489
0.000443383
0.000559513
-0.000429408
0.00156045
-0.000469258
0.000606379
0.00161345
-0.000343197
-0.000507217
0.000438645
-0.000337353
0.000276184
-0.00136958
0.000423888
-0.00136625
-0.000326647
-0.000326977
0.000624793
0.000289211
-0.000526438
0.00163948
0.000801529
-0.000680578
-0.00186167
0.00041208
-0.000713716
7.00333e-05
0.000710302
-0.00212269
-0.00811232
0.00229872
-0.000982233
-0.00139804
-0.00140813
-0.000970118
0.00484916
0.00201935
0.0019034
0.00190978
0.00200375
-0.00842014
-0.00101874
-0.00147305
-0.00102922
-0.0014648
0.0050924
0.00206741
0.00196657
0.00208112
0.0019605
0.000469024
0.000760459
-0.000453652
-0.00064328
-0.00179778
-0.00193051
-0.0111994
0.00601935
0.00216697
0.0116345
0.00230322
0.00147327
0.00124008
0.00147795
0.00121905
-0.00614012
0.00187718
-0.00279152
-0.0027199
-0.00281277
-0.00269492
8.57465e-05
-8.52013e-05
-0.00142522
0.000707454
0.00261085
0.00144645
0.00120203
0.00122562
0.0014439
0.002122
-0.00271648
-0.00260478
-0.00262298
-0.0027
-0.0105978
0.00586003
0.00249123
9.14513e-05
-0.00141318
0.000693533
-0.00295402
0.0100319
0.00312162
0.00137778
0.00116268
0.0011912
0.0013728
-0.00242954
-0.00570429
0.00256755
-0.00245582
-0.00234687
-0.00237384
-0.00243041
0.00141063
0.00121314
0.00118504
0.00141789
-0.00255473
-0.0025014
-0.00246764
-0.00258537
0.00261263
-0.000249555
0.000249627
-0.000486294
0.000755849
-0.00444533
0.00902906
0.00436686
-0.000386701
-4.30416e-05
-4.77475e-05
-0.000363915
-0.00436206
0.00988514
-0.000502075
-0.000130145
-0.000530313
-0.000121297
-0.000246576
-0.000496307
0.000770995
0.00430291
0.0116817
-0.000815532
-0.000301803
-0.000845704
-0.000295237
0.0108148
-0.000692418
-0.00021649
-0.000667256
-0.000218442
-0.000520788
0.00154698
0.000649011
-0.000559016
-0.00164821
0.000531703
-9.12822e-05
-0.000586466
9.31454e-05
0.000584575
-0.00261463
-0.00676421
0.00263796
-0.00076378
-0.0010857
-0.00109878
-0.000748769
0.00373491
0.00172211
0.00163078
0.00164007
0.00170267
-0.00254368
-0.00713264
-0.000806007
-0.00117777
-0.000820665
-0.00116522
0.00402518
0.00178186
0.00171255
0.00180068
0.00170304
0.0014771
0.000542783
0.000597545
-0.000542499
-0.000512531
-0.00156267
-0.00157715
0.000491704
0.000503297
-0.00042397
-0.00048544
0.00149136
0.000374348
-0.000297743
-0.00134538
0.000433697
-0.00163849
0.000534519
0.000461118
0.00154152
-0.000455473
0.000459503
0.000349639
-0.00132616
-0.000453941
-0.000280159
0.000681553
-0.000580001
-0.000513483
-0.00168636
-0.000592101
-9.12361e-05
0.000592027
0.00244793
-0.00781339
-0.000917783
-0.00133431
-0.000931052
-0.00132319
0.00458757
0.00193383
0.00184867
0.00195079
0.00184056
0.000730075
0.000487685
-0.000623845
-0.00176371
-0.00746066
-0.000876539
-0.00124639
-0.000862266
-0.00125864
0.00430788
0.00187779
0.00177334
0.00185957
0.00178152
0.000476286
-0.000408983
0.00146899
0.000502209
0.000473288
0.000307443
-0.000252896
-0.000473857
-0.00128603
0.000333563
-0.00131576
-0.00027167
0.000467203
0.000511976
0.000443178
-0.000512343
-0.00037559
0.00140973
-0.00796367
0.00514218
0.00302752
-0.00287883
-0.000119371
0.000123338
-0.0011295
0.000538847
-0.00351787
0.00733774
0.00346734
0.00121221
0.001064
0.00109489
0.00120266
-0.00296333
-0.00495389
0.00292004
-0.00182501
-0.0017427
-0.00177657
-0.00179317
-0.00340444
0.00124943
0.00112676
0.00109394
0.00126088
-0.00283002
-0.00193644
-0.00192189
-0.00188132
-0.0019741
0.00296624
-0.00285435
-0.00869894
0.00534534
-0.000121039
-0.00114644
0.000555785
0.00932501
0.00335306
0.00133555
0.00117586
0.00134493
0.0011444
-0.00552259
0.00278972
-0.0022577
-0.00222454
-0.00229383
-0.00218551
0.00129956
0.00111776
0.00114873
0.00129195
-0.00214727
-0.00204872
-0.0020811
-0.00211664
0.000138991
0.000152416
-0.000139707
-0.000151689
0.0001458
0.000136159
-0.000142959
0.0043338
0.00815051
-0.000218068
3.51672e-05
-0.000241263
4.47318e-05
0.000251111
-0.000251262
-0.000343851
0.000496682
0.00417533
0.0073622
-0.000118861
0.000114718
-0.000101764
0.000109309
0.000248063
-0.000333518
0.000482625
-0.00405515
0.00589004
0.0038481
9.44435e-05
0.000244145
0.000239521
0.00010525
0.00657709
1.45087e-05
0.000178495
-1.788e-06
0.00018708
0.00137013
0.000540422
0.000514381
-0.000545519
-0.000445542
-0.00143409
0.0026442
-0.00643451
-0.000692996
-0.00101747
-0.00070781
-0.00100457
0.00345368
0.00162262
0.00156819
0.00164201
0.00155794
9.55816e-05
-0.000456462
-9.63485e-05
0.000457203
0.00144472
0.000565204
0.000546921
-0.000491495
-0.00152282
0.0026117
-0.00607276
-0.000652603
-0.000927892
-0.000637863
-0.00094073
0.00317273
0.00156279
0.00148489
0.00149471
0.00154322
-0.000509398
-0.00133714
0.000357648
0.00129334
-0.000313147
0.0005086
0.000443751
0.000227584
-0.000199535
-0.000451824
-0.00116985
-0.000466073
0.000251802
-0.0012163
0.000463234
-0.000217536
-0.0012612
0.000489604
0.000327013
-0.000498573
0.00122498
-0.000281886
0.000383425
0.00131949
-0.00051484
-0.000327458
0.000291872
-0.000244419
0.000475008
-0.00127205
0.000266152
-0.00123293
-0.000471147
-0.000225641
0.000416075
0.000516195
-0.000360518
0.00138481
0.000484118
-0.000425704
-0.00139446
0.000539116
-0.000450371
9.59137e-05
0.000450013
-0.00256825
-0.0054162
0.00249611
-0.000548796
-0.000781157
-0.000793138
-0.000535037
0.00265148
0.0014073
0.00134226
0.0013521
0.00138847
-0.00575553
-0.000585705
-0.000863987
-0.000599873
-0.000851696
0.00291012
0.00146467
0.0014234
0.00148371
0.0014129
0.000519619
0.000436348
-0.000528478
-0.000382389
-0.00130646
-0.00303837
-0.00604912
0.00455995
0.00292171
0.00663258
0.00348942
0.00115865
0.00106914
0.00117148
0.00103705
-0.00474924
0.00297782
-0.00161938
-0.00162124
-0.00165578
-0.00158185
0.000126285
-0.000128595
-0.00084879
0.000394443
0.00337471
0.00112226
0.00100481
0.00103437
0.00111128
0.00287557
-0.00151482
-0.00145108
-0.0014838
-0.00148458
-0.00541251
0.00435683
0.00292929
0.000128083
-0.000832846
0.000380486
-0.00332446
0.00489749
0.00316827
0.00103228
0.000941517
0.00096858
0.00102067
-0.00287285
-0.00417461
0.00273319
-0.00123402
-0.00118856
-0.00121846
-0.00120716
0.00106643
0.00100438
0.000974394
0.0010799
-0.00132731
-0.00134177
-0.00130584
-0.00135998
0.00277639
-0.000205645
0.00020069
-0.000183356
0.000256533
-0.00327617
0.00360916
0.00306028
0.000365233
0.000414022
0.000412173
0.000365845
-0.00346379
0.00408396
0.000319946
0.000378019
0.000315902
0.000382684
-0.000207997
-0.00019204
0.000266968
0.00368291
0.00521996
0.000192538
0.000292994
0.000182967
0.000299629
0.0046413
0.000253871
0.000343334
0.000258995
0.000339978
-0.000486493
0.00112376
0.000342023
-0.00030902
-0.00114908
0.000478701
-8.61525e-05
-0.000332729
8.55282e-05
0.000333334
-0.00222832
-0.00427876
0.00212058
-0.000374313
-0.000535028
-0.000544385
-0.000363378
0.00178422
0.00112715
0.00108455
0.00109334
0.00111124
-0.00232396
-0.00455267
-0.000402328
-0.000599118
-0.00041387
-0.000589174
0.00198268
0.00117541
0.00115454
0.00119191
0.00114479
0.00105288
0.000446243
0.000303902
-0.0004584
-0.000274146
-0.00107056
-0.00115444
0.000458259
0.000275741
-0.000240241
-0.00046932
0.00112997
0.000214878
-0.000192096
-0.00115137
0.000437819
-0.00122889
0.00030339
0.000485159
0.00119865
-0.000268762
0.000411819
0.000192865
-0.00110021
-0.000421622
-0.000175385
0.00036576
-0.000324923
-0.000497585
-0.00118431
-0.000338142
-8.72412e-05
0.000339211
0.0024199
-0.00512406
-0.000488158
-0.000723492
-0.000501134
-0.000712192
0.00241617
0.00131429
0.00128421
0.00133229
0.00127394
0.000409091
0.00051438
-0.000364331
-0.00126855
-0.0048159
-0.000455595
-0.000649518
-0.000443154
-0.000660272
0.0021866
0.00126106
0.00120794
0.00124353
0.00121737
0.000254744
-0.000228599
0.0011044
0.000451444
0.000374562
0.000162398
-0.000153526
-0.000385148
-0.00102741
0.000181925
-0.00108084
-0.0001687
0.000403971
0.000420195
0.000230588
-0.000432264
-0.000203284
0.00103763
-0.0034451
0.00363618
0.00250792
-0.00257355
-0.000116502
0.00011669
-0.000586871
0.000253811
-0.00278171
0.00308055
0.00260818
0.000865656
0.000813759
0.000835173
0.000854183
-0.00246191
-0.00347955
0.00230029
-0.000784374
-0.00076782
-0.000790419
-0.000765285
-0.00290252
0.000893413
0.000869159
0.000844902
0.000906582
-0.00253224
-0.000851703
-0.000880921
-0.000853665
-0.000875261
0.00233881
-0.00274048
-0.00390786
0.00381365
-0.000118679
-0.00059958
0.00026347
0.00434674
0.00307404
0.00097745
0.000937038
0.000991008
0.000909807
-0.00398407
0.0026895
-0.00107033
-0.00109388
-0.00109857
-0.00106209
0.000946377
0.000877364
0.000901617
0.000934627
-0.000990005
-0.000960327
-0.000986723
-0.000966966
8.95396e-05
1.14407e-05
-9.05269e-05
-1.04374e-05
7.65878e-06
8.73466e-05
-5.4507e-06
0.0028714
0.00315712
0.000405638
0.000437034
0.000405866
0.000439703
0.000147907
-0.00015045
-9.70941e-05
0.000111221
0.00267363
0.00277617
0.000437731
0.000459752
0.000434901
0.000459916
0.000143468
-9.2755e-05
0.000104995
0.00241492
0.000458681
0.00047254
0.000461581
0.000473337
0.000958172
0.000402694
0.000250701
-0.000415073
-0.000230077
-0.000966475
0.00201659
-0.00404628
-0.000328583
-0.000491944
-0.000338627
-0.000483408
0.00161178
0.00104984
0.00103637
0.00106469
0.00102736
7.08663e-05
-0.000245537
-7.19313e-05
0.000246588
0.00102438
0.000283727
0.000436978
-0.000260427
-0.00103849
0.00190631
-0.00380637
-0.00030485
-0.000437317
-0.00029534
-0.000445329
0.00144329
0.00100672
0.000973237
0.000981229
0.000992488