/*--------------------------------*- C++ -*----------------------------------*\
| =========                 |                                                 |
| \\      /  F ield         | OpenFOAM: The Open Source CFD Toolbox           |
|  \\    /   O peration     | Version:  2012                                  |
|   \\  /    A nd           | Website:  www.openfoam.com                      |
|    \\/     M anipulation  |                                                 |
\*---------------------------------------------------------------------------*/
FoamFile
{
    version     2.0;
    format      ascii;
    class       surfaceVectorField;
    location    "0.108/fluid";
    object      Uf;
}
// * * * * * * * * * * * * * * * * * * * * * * * * * * * * * * * * * * * * * //

dimensions      [0 1 -1 0 0 0 0];


internalField   nonuniform List<vector> 
46515
(
(-12.3991 9.53768 0.25164)
(-13.2596 11.2093 0.462329)
(-12.9121 9.59951 1.29573)
(-11.9312 9.44273 0.399686)
(-13.6914 10.2667 0.207948)
(-13.945 9.41407 0.963143)
(-15.1606 10.0641 1.02591)
(-3.88815 19.4871 0.600433)
(-5.91143 17.4586 0.513311)
(-4.55477 16.9837 1.46607)
(-3.17117 16.5704 0.491038)
(-4.72451 15.0904 0.446623)
(2.16234 12.4077 0.387444)
(1.05051 12.2641 0.368624)
(1.31399 11.4643 1.01213)
(1.6745 10.9201 0.327988)
(0.775958 10.728 0.315335)
(3.05374 7.50672 0.230373)
(2.51301 7.6126 0.227248)
(2.5969 6.73692 0.200789)
(2.13467 6.7893 0.198373)
(2.51814 7.10502 0.627926)
(2.86023 4.53984 0.138362)
(2.58366 4.66017 0.139022)
(2.53111 4.12093 0.123229)
(2.28859 4.20848 0.123637)
(2.53459 4.35347 0.387833)
(2.46595 2.75996 0.0850884)
(2.32134 2.85267 0.0864204)
(2.24581 2.52488 0.0769571)
(2.11649 2.59823 0.077995)
(2.26981 2.66861 0.242733)
(2.10589 1.69008 0.0534319)
(2.02889 1.75421 0.0546811)
(1.96271 1.55476 0.0488829)
(1.89283 1.60673 0.0498992)
(1.98744 1.64329 0.154282)
(1.82908 1.04247 0.0340861)
(1.78735 1.0847 0.0350763)
(1.7368 0.962689 0.0314434)
(1.69862 0.997371 0.0322743)
(1.75697 1.01735 0.099266)
(1.63026 0.647198 0.0219756)
(1.6073 0.67431 0.0227134)
(1.57094 0.599201 0.0203942)
(1.54986 0.621752 0.0210264)
(1.586 0.633112 0.0644071)
(1.49227 0.403723 0.0142443)
(1.47943 0.421002 0.0147784)
(1.45412 0.374379 0.0132748)
(1.44233 0.388888 0.0137395)
(1.46488 0.395575 0.0419563)
(1.39853 0.252175 0.00922909)
(1.39116 0.263226 0.00961049)
(1.37395 0.233969 0.00862186)
(1.36718 0.243331 0.00895781)
(1.38141 0.247358 0.0272897)
(1.33608 0.156532 0.00591672)
(1.33161 0.163718 0.00618995)
(1.32019 0.14505 0.00552658)
(1.31607 0.151211 0.00577022)
(1.32522 0.153657 0.017557)
(1.29564 0.0947902 0.00367616)
(1.29258 0.0996564 0.00387499)
(1.28531 0.0873745 0.00341718)
(1.28247 0.0916313 0.0035975)
(1.28854 0.0930956 0.0109497)
(1.2709 0.0531666 0.0020968)
(1.26833 0.0567517 0.0022496)
(1.26411 0.0481689 0.00191424)
(1.2617 0.0514164 0.00205658)
(1.26596 0.0522325 0.00627643)
(1.25792 0.0226635 0.000890302)
(1.25518 0.0257174 0.00101967)
(1.25335 0.0190112 0.000749167)
(1.25073 0.0219225 0.000873451)
(1.25404 0.022268 0.00270113)
(-8.25571 5.68556 0.194858)
(-7.60763 5.43303 0.17613)
(-7.86592 5.0777 0.513209)
(-7.5752 4.59684 0.155988)
(-4.88332 7.52169 0.210253)
(-5.2758 6.67179 0.187209)
(-4.83375 6.6953 0.551795)
(-4.385 6.74527 0.185194)
(-4.77918 6.01532 0.169815)
(-1.54197 6.5003 0.175846)
(-2.06521 6.1146 0.164647)
(-1.46941 5.74157 0.154965)
(-1.92634 5.38848 0.147563)
(-1.7786 5.89827 0.473247)
(0.201573 4.64429 0.128111)
(-0.179853 4.51141 0.124259)
(0.114995 4.11352 0.114423)
(-0.217379 3.97398 0.111927)
(-0.0451481 4.28507 0.354225)
(0.961206 3.08841 0.0887221)
(0.719606 3.05083 0.0879986)
(0.851491 2.74707 0.0803456)
(0.638842 2.69654 0.0800258)
(0.775179 2.88005 0.25046)
(1.2572 1.99105 0.0603795)
(1.11126 1.98525 0.0607768)
(1.16487 1.77712 0.0552967)
(1.0354 1.76053 0.0557718)
(1.13053 1.86926 0.173025)
(1.34958 1.26552 0.0408352)
(1.26318 1.26862 0.0415292)
(1.28109 1.1325 0.0377203)
(1.20418 1.12801 0.0383911)
(1.26697 1.19329 0.118297)
(1.35831 0.799553 0.027531)
(1.30765 0.803992 0.0282118)
(1.31026 0.716894 0.025594)
(1.26515 0.716338 0.0262272)
(1.30552 0.756079 0.0804043)
(1.33707 0.504147 0.0185096)
(1.30745 0.507857 0.0190779)
(1.30426 0.452655 0.0172872)
(1.27797 0.453173 0.0178093)
(1.30364 0.47765 0.0543898)
(1.30888 0.317664 0.0123904)
(1.29153 0.320376 0.0128322)
(1.2868 0.285455 0.011608)
(1.27147 0.286157 0.0120119)
(1.28777 0.301361 0.0365828)
(1.28288 0.199717 0.00822834)
(1.27261 0.201657 0.00855934)
(1.26811 0.17947 0.00771973)
(1.2591 0.180156 0.00802256)
(1.26952 0.189637 0.0243876)
(1.26203 0.12449 0.00537415)
(1.2558 0.125967 0.0056194)
(1.25218 0.111693 0.00503711)
(1.24674 0.112397 0.00526227)
(1.25349 0.11828 0.0159865)
(1.24681 0.0755818 0.00338572)
(1.2428 0.0768832 0.00356887)
(1.24018 0.0674397 0.00315625)
(1.23669 0.0682763 0.00332587)
(1.2412 0.0718416 0.0101109)
(1.23673 0.0424604 0.0019477)
(1.23382 0.0438555 0.00209102)
(1.23218 0.0372352 0.00178157)
(1.22963 0.0383694 0.0019169)
(1.2328 0.0403712 0.00585013)
(1.23119 0.0181148 0.000827572)
(1.22864 0.0198945 0.000949904)
(1.22791 0.0147083 0.000696627)
(1.22563 0.0163715 0.000814774)
(1.22809 0.0172279 0.00252864)
(-6.27926 2.17286 0.0894528)
(-5.96687 1.96875 0.0850292)
(-6.03358 1.56271 0.0782491)
(-6.12884 1.84864 0.246985)
(-4.48987 2.84699 0.101288)
(-4.68866 2.40688 0.0937423)
(-4.2113 2.46418 0.0945625)
(-4.42048 2.0539 0.0896189)
(-4.44846 2.42981 0.280744)
(-2.52532 2.71881 0.0956729)
(-2.79657 2.38829 0.0913365)
(-2.36255 2.29905 0.0887342)
(-2.61494 1.98465 0.0862922)
(-2.58222 2.33606 0.268406)
(-1.00478 2.14341 0.0797933)
(-1.24331 1.93186 0.0781774)
(-0.935303 1.79497 0.0741346)
(-1.14811 1.58574 0.0735757)
(-1.09407 1.85489 0.227152)
(-0.0216023 1.52325 0.0617714)
(-0.19392 1.39391 0.0616885)
(-0.00108297 1.27059 0.0576387)
(-0.152184 1.13823 0.0580607)
(-0.102559 1.32518 0.178103)
(0.55892 1.02441 0.0457486)
(0.44597 0.945652 0.04631)
(0.558414 0.853132 0.0428724)
(0.460438 0.770549 0.0436458)
(0.49781 0.894387 0.133222)
(0.882933 0.668864 0.0329525)
(0.812699 0.620546 0.03368)
(0.875105 0.556725 0.0309885)
(0.814804 0.505251 0.0317887)
(0.840508 0.585361 0.0966722)
(1.05572 0.429923 0.0232846)
(1.01337 0.400008 0.0239668)
(1.04655 0.357816 0.0219534)
(1.0106 0.325643 0.0226471)
(1.02751 0.376856 0.0686912)
(1.14365 0.274104 0.016213)
(1.11856 0.25545 0.0167773)
(1.13543 0.228153 0.015312)
(1.11443 0.207982 0.0158644)
(1.12533 0.240537 0.0480347)
(1.18586 0.173952 0.0111432)
(1.17114 0.16229 0.0115809)
(1.17925 0.144793 0.0105331)
(1.16712 0.13214 0.0109522)
(1.17411 0.152772 0.0331254)
(1.20444 0.109869 0.00754936)
(1.19582 0.102618 0.00787788)
(1.19941 0.0914064 0.00713401)
(1.19243 0.0835197 0.00744521)
(1.19695 0.0965486 0.0225043)
(1.21146 0.0686886 0.00500441)
(1.20636 0.0642934 0.00524787)
(1.20774 0.0570398 0.00471887)
(1.2037 0.0522403 0.00494786)
(1.20666 0.0603898 0.0149623)
(1.2133 0.0417791 0.00318848)
(1.21016 0.0393178 0.00337005)
(1.21057 0.0345033 0.00298662)
(1.20814 0.0317849 0.00315812)
(1.21014 0.0367487 0.00956296)
(1.2132 0.0234981 0.00184553)
(1.21111 0.0224615 0.00198708)
(1.21116 0.0190765 0.0016945)
(1.20957 0.0178803 0.00182961)
(1.21098 0.0206801 0.00557002)
(1.21275 0.0100293 0.000784855)
(1.21115 0.0102009 0.000904207)
(1.21113 0.00754444 0.00066261)
(1.20991 0.00762733 0.000778511)
(1.21099 0.00883555 0.00241463)
(-13.5953 7.13375 4.97052)
(-12.5052 7.74081 4.33164)
(-12.4294 8.51533 4.81175)
(-12.2149 6.82619 4.83073)
(-11.4518 7.12674 4.16837)
(-14.3594 7.69917 5.09663)
(-13.4568 6.91271 5.12428)
(-14.1144 7.51502 5.36152)
(-4.74151 15.1166 6.16494)
(-6.23214 13.5753 5.39487)
(-4.98633 14.1657 4.99017)
(-5.16888 12.7538 5.67043)
(-3.95581 13.1232 5.19806)
(-5.1533 12.0012 4.74542)
(0.504421 10.0865 3.58859)
(0.887333 10.4098 4.29145)
(-0.0389198 10.2537 4.08838)
(0.0949917 9.35502 4.17804)
(0.642464 9.26409 3.69413)
(-0.131442 9.09091 3.55408)
(1.95972 6.46938 2.29676)
(2.22556 6.61009 2.69917)
(1.73573 6.68407 2.66068)
(1.9023 5.96858 2.37604)
(1.4754 6.00611 2.3461)
(1.66062 6.11955 2.72249)
(2.18745 4.05186 1.4473)
(2.35948 4.11939 1.68188)
(2.09741 4.22031 1.68796)
(2.10031 3.75428 1.50643)
(1.86641 3.82789 1.51035)
(1.99539 3.8818 1.73576)
(2.05597 2.52052 0.918012)
(2.16356 2.55504 1.05794)
(2.0217 2.63743 1.07379)
(1.98007 2.34388 0.960276)
(1.85133 2.40846 0.972617)
(1.93534 2.43583 1.10921)
(1.85422 1.56813 0.588355)
(1.92036 1.58698 0.673913)
(1.84253 1.64533 0.689223)
(1.79681 1.46256 0.617794)
(1.72537 1.5098 0.630348)
(1.77809 1.52483 0.714508)
(1.67266 0.978331 0.380671)
(1.71302 0.989282 0.43389)
(1.6697 1.02829 0.44627)
(1.63168 0.914711 0.40076)
(1.59164 0.946873 0.411205)
(1.62407 0.955764 0.463807)
(1.53186 0.612539 0.247898)
(1.55643 0.619228 0.281437)
(1.53197 0.644616 0.29078)
(1.50342 0.573849 0.261408)
(1.48072 0.595027 0.26944)
(1.50046 0.600596 0.302689)
(1.42966 0.384583 0.161886)
(1.44464 0.388805 0.1832)
(1.4306 0.405156 0.190017)
(1.41023 0.360814 0.170836)
(1.39717 0.374574 0.17678)
(1.40914 0.378187 0.197947)
(1.35821 0.241436 0.105474)
(1.3674 0.244147 0.119051)
(1.35914 0.254694 0.123949)
(1.34507 0.226655 0.11127)
(1.33738 0.235607 0.11559)
(1.34464 0.237985 0.12909)
(1.30968 0.150462 0.0679486)
(1.3154 0.152203 0.076538)
(1.31029 0.159113 0.0800522)
(1.30087 0.141104 0.0715306)
(1.29611 0.147038 0.0746687)
(1.30056 0.148598 0.0832141)
(1.27782 0.0913883 0.0424327)
(1.28147 0.0924781 0.0477216)
(1.278 0.0971886 0.0502898)
(1.27196 0.0852726 0.0443918)
(1.2687 0.0893997 0.0467232)
(1.2715 0.0903919 0.0519846)
(1.25813 0.0513683 0.0243562)
(1.26061 0.0519966 0.0273625)
(1.25782 0.0554874 0.0293378)
(1.25429 0.047119 0.025019)
(1.25165 0.0502857 0.0268574)
(1.25351 0.0508638 0.0298448)
(1.24773 0.0219236 0.0105277)
(1.24962 0.0221956 0.0118231)
(1.24681 0.0251842 0.0135011)
(1.24527 0.0186202 0.0100035)
(1.24258 0.0214713 0.0116222)
(1.24398 0.0217227 0.0129038)
(-7.9941 4.52341 2.16361)
(-7.6849 4.30206 1.79606)
(-7.38544 4.39632 1.98475)
(-7.57111 3.90475 2.07618)
(-7.34649 3.71363 1.76439)
(-4.86581 5.89357 1.97831)
(-4.94599 6.31006 2.39369)
(-5.27219 5.60081 2.14717)
(-4.87249 5.46921 2.31994)
(-4.467 5.71389 2.13738)
(-4.80362 5.10557 1.96667)
(-1.98274 5.3269 1.73185)
(-1.86387 5.65544 2.06864)
(-2.31957 5.31464 1.94182)
(-1.74876 5.03002 1.84108)
(-2.15538 4.72117 1.75565)
(-2.08801 5.0162 2.05427)
(-0.261389 3.95178 1.319)
(-0.121406 4.16155 1.55213)
(-0.469144 4.03599 1.50631)
(-0.16458 3.70235 1.39528)
(-0.472054 3.57403 1.36526)
(-0.37882 3.76643 1.57997)
(0.60258 2.69778 0.944603)
(0.711756 2.82787 1.09835)
(0.483897 2.78912 1.08922)
(0.632046 2.52267 0.99863)
(0.429301 2.47386 0.994532)
(0.506302 2.5948 1.13974)
(1.00493 1.77139 0.658334)
(1.0797 1.85228 0.758541)
(0.938462 1.8444 0.763267)
(1.00619 1.6566 0.696418)
(0.879728 1.63956 0.702232)
(0.933692 1.71549 0.798412)
(1.17876 1.14087 0.452796)
(1.22697 1.19158 0.518098)
(1.14153 1.19313 0.526719)
(1.17002 1.06789 0.479342)
(1.09327 1.06272 0.487743)
(1.12817 1.1107 0.551086)
(1.2445 0.727907 0.309027)
(1.27459 0.759945 0.351705)
(1.22348 0.763426 0.360286)
(1.23361 0.682139 0.327307)
(1.18769 0.681083 0.335325)
(1.20924 0.711614 0.377016)
(1.26172 0.462438 0.209633)
(1.28016 0.482804 0.237594)
(1.24971 0.48596 0.244826)
(1.25175 0.433869 0.222063)
(1.22442 0.434074 0.228724)
(1.23736 0.453609 0.256173)
(1.25905 0.293105 0.141277)
(1.27026 0.306097 0.159603)
(1.25207 0.308496 0.165257)
(1.25093 0.275252 0.149601)
(1.23467 0.275769 0.154781)
(1.24229 0.288302 0.172833)
(1.24981 0.185144 0.0943154)
(1.25661 0.193427 0.10628)
(1.24565 0.195191 0.110536)
(1.24358 0.173915 0.0997583)
(1.23382 0.174494 0.103653)
(1.23827 0.182526 0.115468)
(1.23986 0.115838 0.0619046)
(1.24401 0.121073 0.0696223)
(1.23726 0.12245 0.0727796)
(1.23524 0.108675 0.0652956)
(1.22926 0.109316 0.0681939)
(1.23184 0.114413 0.0758263)
(1.23154 0.0705317 0.0391992)
(1.23413 0.0737498 0.0440224)
(1.22977 0.0749904 0.0463867)
(1.22818 0.065827 0.0410664)
(1.22432 0.0666231 0.0432563)
(1.22584 0.069767 0.0480291)
(1.2256 0.0397061 0.0227182)
(1.22732 0.0415306 0.0254887)
(1.22421 0.0428834 0.0273369)
(1.22316 0.0364269 0.0233568)
(1.22041 0.0375283 0.0251001)
(1.22134 0.0393179 0.0278391)
(1.2222 0.0169618 0.00987483)
(1.22348 0.0177423 0.0110772)
(1.22087 0.0194827 0.0126576)
(1.22038 0.0144067 0.00938758)
(1.21805 0.0160346 0.0109218)
(1.2187 0.0168067 0.0121036)
(-6.01533 1.61898 0.902665)
(-6.11923 1.81455 1.0588)
(-5.82886 1.6603 1.015)
(-5.88767 1.31384 0.936441)
(-5.94816 1.49706 1.06999)
(-4.42701 2.19039 1.03924)
(-4.46384 2.47377 1.2176)
(-4.64312 2.08812 1.13066)
(-4.19686 2.15206 1.14447)
(-4.38818 1.7929 1.08662)
(-4.41149 2.0603 1.2412)
(-2.63909 2.14211 1.00398)
(-2.61205 2.41842 1.16853)
(-2.8608 2.12158 1.11744)
(-2.4458 2.05278 1.08952)
(-2.68025 1.77092 1.06037)
(-2.66848 2.03495 1.20615)
(-1.18558 1.72506 0.85743)
(-1.13731 1.94399 0.989165)
(-1.36084 1.74948 0.969703)
(-1.05774 1.63254 0.922408)
(-1.25943 1.44086 0.9156)
(-1.23593 1.6523 1.03533)
(-0.195518 1.24696 0.6772)
(-0.152556 1.40385 0.775045)
(-0.317556 1.28276 0.774016)
(-0.121956 1.17341 0.724993)
(-0.268168 1.05008 0.730193)
(-0.247853 1.20261 0.821102)
(0.418172 0.849669 0.509349)
(0.448817 0.956415 0.579298)
(0.338449 0.88173 0.586284)
(0.456279 0.79775 0.543771)
(0.359513 0.719813 0.553446)
(0.372731 0.824091 0.619551)
(0.77778 0.560423 0.371105)
(0.797377 0.631039 0.420079)
(0.727399 0.584792 0.429237)
(0.795328 0.525877 0.39548)
(0.734531 0.47683 0.405585)
(0.74167 0.546067 0.45246)
(0.980403 0.363103 0.26447)
(0.992131 0.409093 0.298316)
(0.949099 0.380261 0.306972)
(0.987004 0.340809 0.281475)
(0.94997 0.309922 0.290295)
(0.953113 0.355149 0.322996)
(1.09097 0.232985 0.185342)
(1.09767 0.262673 0.208508)
(1.07166 0.244597 0.215712)
(1.09223 0.218811 0.197034)
(1.07008 0.19933 0.204094)
(1.07097 0.228601 0.226632)
(1.1495 0.148626 0.128017)
(1.15318 0.167683 0.14373)
(1.13759 0.156331 0.149348)
(1.14846 0.139664 0.135921)
(1.13534 0.127384 0.141305)
(1.13512 0.146216 0.156671)
(1.17949 0.0942762 0.087072)
(1.18143 0.106433 0.0976099)
(1.17209 0.0993503 0.101837)
(1.17766 0.0885957 0.0922795)
(1.16991 0.0809109 0.0962802)
(1.16925 0.0929523 0.106625)
(1.19425 0.0591491 0.0579587)
(1.19523 0.0668123 0.0648996)
(1.18959 0.0625073 0.0680346)
(1.19235 0.0555069 0.0612225)
(1.18773 0.0508149 0.0641732)
(1.18695 0.0584249 0.0710029)
(1.20117 0.0360813 0.0370801)
(1.20163 0.0407698 0.0414869)
(1.19813 0.0383547 0.04383)
(1.19944 0.0336809 0.0388863)
(1.19663 0.0310176 0.0410963)
(1.19587 0.0356915 0.0454374)
(1.2042 0.0203402 0.0216404)
(1.2044 0.0229837 0.0242008)
(1.2021 0.0219643 0.0260225)
(1.20268 0.0186634 0.0222642)
(1.20086 0.017489 0.0240023)
(1.20017 0.020142 0.0265221)
(1.20537 0.0086996 0.00944532)
(1.20545 0.0098236 0.0105631)
(1.20377 0.00999086 0.0121027)
(1.20398 0.00739087 0.00898231)
(1.20267 0.00747162 0.0104838)
(1.20203 0.00862046 0.0115777)
(-11.7674 3.6288 5.1781)
(-10.8647 4.14251 4.92778)
(-10.3862 4.48544 5.09522)
(-10.3114 3.39572 4.65425)
(-9.91958 3.69504 4.43731)
(-11.8203 3.97434 5.46995)
(-11.4373 3.44431 4.95227)
(-11.4452 3.84431 5.30194)
(-5.56954 8.42185 6.82635)
(-6.31965 7.60573 6.08157)
(-5.54628 8.37988 6.19447)
(-5.58236 7.08853 5.99466)
(-4.84094 7.64267 6.02374)
(-5.50526 7.03817 5.53313)
(-1.19774 6.87555 4.9961)
(-1.14284 6.82754 5.43611)
(-1.74654 6.68192 5.17953)
(-1.58257 6.06511 4.99438)
(-1.06296 6.23001 4.80818)
(-1.60442 6.09694 4.62372)
(0.617721 4.85632 3.48847)
(0.679607 4.83018 3.77045)
(0.295646 4.85388 3.7073)
(0.578911 4.42489 3.37297)
(0.230341 4.43662 3.32502)
(0.266111 4.41235 3.57853)
(1.28619 3.24164 2.32965)
(1.33752 3.22998 2.50557)
(1.1076 3.29269 2.50837)
(1.20823 2.97064 2.26648)
(0.996943 3.01886 2.26879)
(1.03002 3.00562 2.4329)
(1.47328 2.10774 1.53512)
(1.50977 2.1034 1.644)
(1.37484 2.1626 1.66516)
(1.39986 1.94132 1.50135)
(1.27449 1.98903 1.51872)
(1.29905 1.9828 1.62265)
(1.47942 1.3541 1.00908)
(1.5032 1.35332 1.07656)
(1.42415 1.3986 1.09938)
(1.42154 1.25259 0.990794)
(1.34747 1.28986 1.00995)
(1.36361 1.28764 1.07529)
(1.43032 0.865655 0.663834)
(1.44502 0.866446 0.705859)
(1.39837 0.898245 0.725239)
(1.38796 0.803687 0.653614)
(1.34398 0.830194 0.670175)
(1.3538 0.830045 0.711224)
(1.37393 0.552476 0.437079)
(1.3827 0.553803 0.463382)
(1.35487 0.575246 0.478414)
(1.34405 0.514472 0.431107)
(1.3177 0.532501 0.444129)
(1.32333 0.533255 0.469968)
(1.32586 0.352257 0.287507)
(1.33097 0.353613 0.304034)
(1.31412 0.367807 0.315188)
(1.3052 0.328786 0.283815)
(1.2892 0.340804 0.293585)
(1.29228 0.341823 0.309881)
(1.2893 0.223933 0.188224)
(1.29223 0.225099 0.198611)
(1.28183 0.234462 0.20671)
(1.27516 0.209289 0.185756)
(1.26528 0.217276 0.192921)
(1.26687 0.218249 0.203191)
(1.26323 0.14098 0.121639)
(1.26489 0.141886 0.128123)
(1.25827 0.148139 0.133974)
(1.25359 0.131696 0.119792)
(1.24728 0.137091 0.125026)
(1.24805 0.137888 0.131448)
(1.2456 0.0863125 0.0761128)
(1.24654 0.0869551 0.0800556)
(1.24206 0.0912957 0.0843525)
(1.23898 0.0802503 0.0744888)
(1.23471 0.0840691 0.078394)
(1.23503 0.0846523 0.0823044)
(1.23451 0.0487944 0.043739)
(1.23506 0.0491954 0.0459577)
(1.2317 0.052463 0.0492722)
(1.22986 0.0446061 0.0420268)
(1.22664 0.0475803 0.0451138)
(1.22675 0.0479509 0.0473159)
(1.22859 0.0208978 0.0189199)
(1.22895 0.0210793 0.0198678)
(1.22596 0.0239085 0.0226873)
(1.22516 0.017688 0.0168109)
(1.22228 0.0203918 0.0195314)
(1.22229 0.0205613 0.0204718)
(-7.26793 2.61363 2.63573)
(-7.07665 2.61948 2.42403)
(-6.78069 2.64218 2.50077)
(-6.87147 2.22068 2.40325)
(-6.74137 2.21579 2.23555)
(-4.83732 4.01922 2.85579)
(-4.91922 4.13444 3.14076)
(-5.13602 3.67327 2.84674)
(-4.80125 3.54031 2.8865)
(-4.50724 3.82608 2.87512)
(-4.74224 3.42985 2.66014)
(-2.43534 3.90764 2.64211)
(-2.41305 4.0224 2.89241)
(-2.74408 3.77222 2.72717)
(-2.24181 3.63504 2.6218)
(-2.55089 3.4111 2.50614)
(-2.54413 3.52287 2.71498)
(-0.802212 3.0794 2.11169)
(-0.75427 3.16793 2.29339)
(-1.03336 3.06136 2.22793)
(-0.722437 2.84846 2.08681)
(-0.977273 2.74421 2.04316)
(-0.950954 2.83028 2.20206)
(0.143057 2.20187 1.56828)
(0.185652 2.2665 1.69098)
(-0.0120191 2.2273 1.67651)
(0.163864 2.03643 1.54957)
(-0.0163813 1.99211 1.54302)
(0.00836263 2.05456 1.65407)
(0.657044 1.49767 1.12158)
(0.687304 1.54349 1.20208)
(0.557052 1.53189 1.20883)
(0.652692 1.38742 1.10924)
(0.533605 1.36983 1.11807)
(0.550979 1.41398 1.1927)
(0.927962 0.991357 0.785342)
(0.947172 1.02323 0.837566)
(0.864207 1.02165 0.850954)
(0.915181 0.920427 0.777451)
(0.839179 0.913948 0.790731)
(0.849502 0.944683 0.839961)
(1.0679 0.646435 0.54259)
(1.07921 0.668297 0.57634)
(1.02722 0.66972 0.59007)
(1.05406 0.601581 0.537492)
(1.00639 0.599469 0.550441)
(1.0117 0.620612 0.58264)
(1.13889 0.418003 0.371157)
(1.14515 0.432843 0.392946)
(1.11278 0.434762 0.404723)
(1.12677 0.389844 0.367761)
(1.0971 0.389358 0.378669)
(1.09934 0.403763 0.399642)
(1.17414 0.268823 0.251551)
(1.1774 0.278802 0.265604)
(1.15724 0.280486 0.274918)
(1.16446 0.251158 0.249181)
(1.14601 0.251257 0.257743)
(1.14659 0.26098 0.27136)
(1.19115 0.171861 0.168575)
(1.19272 0.178497 0.177605)
(1.18009 0.179854 0.184671)
(1.18377 0.160724 0.166801)
(1.17223 0.161056 0.173282)
(1.17201 0.167546 0.182077)
(1.19902 0.108591 0.110926)
(1.19968 0.112927 0.116666)
(1.19167 0.11407 0.121935)
(1.19351 0.10148 0.109455)
(1.1862 0.101974 0.114298)
(1.18565 0.106227 0.119911)
(1.20245 0.0666361 0.0703541)
(1.20265 0.0693703 0.0738966)
(1.19742 0.0704694 0.0778569)
(1.19832 0.0619714 0.0689489)
(1.19355 0.0626721 0.0726205)
(1.19291 0.0653616 0.0760941)
(1.20382 0.0377256 0.0408115)
(1.2038 0.0393026 0.0428268)
(1.20018 0.0405571 0.0459301)
(1.20059 0.0344927 0.0392487)
(1.1973 0.0355186 0.0421771)
(1.19667 0.0370763 0.0441563)
(1.2043 0.0161706 0.0177515)
(1.20418 0.0168521 0.0186182)
(1.20139 0.0184989 0.0212753)
(1.20155 0.0136878 0.015779)
(1.19903 0.0152308 0.0183585)
(1.19841 0.0159108 0.0192092)
(-5.67093 1.07686 1.37423)
(-5.72809 1.16105 1.47509)
(-5.48946 1.08858 1.44124)
(-5.53511 0.852818 1.33459)
(-5.55828 0.936765 1.41151)
(-4.33252 1.59406 1.64077)
(-4.36105 1.74853 1.76806)
(-4.50345 1.46994 1.65131)
(-4.12569 1.53953 1.68505)
(-4.28133 1.28016 1.60458)
(-4.29468 1.4314 1.70384)
(-2.76676 1.64024 1.63154)
(-2.76461 1.80783 1.75397)
(-2.96804 1.58088 1.68289)
(-2.59826 1.54841 1.6526)
(-2.79518 1.33326 1.61085)
(-2.79785 1.49809 1.70939)
(-1.42296 1.37764 1.42915)
(-1.40968 1.52229 1.52868)
(-1.60129 1.36508 1.50056)
(-1.31326 1.28715 1.43613)
(-1.49056 1.13317 1.42613)
(-1.49108 1.2759 1.50928)
(-0.449437 1.03173 1.15249)
(-0.438134 1.14298 1.22651)
(-0.586792 1.0407 1.22511)
(-0.388001 0.960283 1.1531)
(-0.522924 0.857066 1.16115)
(-0.526056 0.966901 1.22517)
(0.193922 0.723896 0.880858)
(0.199898 0.804039 0.933468)
(0.0956005 0.738863 0.944437)
(0.223967 0.673292 0.879175)
(0.130285 0.605981 0.894427)
(0.124285 0.685153 0.941251)
(0.597565 0.489109 0.649477)
(0.599139 0.544624 0.685967)
(0.529911 0.503284 0.700599)
(0.609698 0.455264 0.647242)
(0.54797 0.411863 0.66346)
(0.540542 0.466755 0.696691)
(0.843159 0.323279 0.466872)
(0.842122 0.360814 0.491818)
(0.797596 0.334566 0.505856)
(0.846093 0.301334 0.46474)
(0.806634 0.273475 0.479093)
(0.799173 0.310629 0.502225)
(0.989862 0.210911 0.329215)
(0.987664 0.235901 0.346099)
(0.959517 0.219207 0.357915)
(0.988621 0.196907 0.327374)
(0.963821 0.179063 0.338981)
(0.95717 0.203829 0.354861)
(1.07654 0.136435 0.228387)
(1.07407 0.152889 0.239715)
(1.05643 0.142283 0.249005)
(1.07377 0.127554 0.226838)
(1.05831 0.116165 0.235758)
(1.0528 0.132494 0.246532)
(1.1274 0.0875598 0.155811)
(1.1251 0.0982792 0.163333)
(1.11407 0.0916015 0.170366)
(1.12435 0.0819213 0.154478)
(1.11474 0.0747204 0.161143)
(1.11039 0.0853777 0.168358)
(1.15705 0.0554667 0.103927)
(1.15509 0.0623397 0.108837)
(1.14817 0.0582519 0.114075)
(1.15422 0.0518492 0.102698)
(1.14824 0.047416 0.107633)
(1.14487 0.0542657 0.112373)
(1.17414 0.0340956 0.0665791)
(1.17251 0.0383577 0.0696722)
(1.16813 0.0360509 0.0735991)
(1.17161 0.0317151 0.0653154)
(1.16787 0.0291826 0.0690213)
(1.16526 0.0334458 0.0720217)
(1.18363 0.0193287 0.0388888)
(1.18227 0.0217541 0.0406746)
(1.17944 0.0207764 0.0437342)
(1.18132 0.0176753 0.0374229)
(1.17895 0.0165535 0.0403425)
(1.17686 0.0189969 0.04208)
(1.18829 0.00829601 0.0169825)
(1.18709 0.00933258 0.0177578)
(1.1852 0.00948905 0.0203462)
(1.18598 0.00702407 0.0150998)
(1.18445 0.00709898 0.0176254)
(1.18267 0.00816362 0.0183787)
(-16.0298 8.2398 0.301592)
(-16.5234 9.48188 0.281681)
(-14.8332 8.79809 0.772034)
(-5.14396 23.2189 0.707153)
(-7.96031 20.4163 0.620149)
(-6.04077 29.0188 0.893653)
(-11.2321 23.3963 0.706551)
(-8.23961 23.841 2.07976)
(-14.3917 6.91074 4.97266)
(-13.7028 7.81236 4.53599)
(-14.504 7.32065 4.66899)
(-15.1951 6.69046 4.98516)
(-15.1771 7.76384 4.84139)
(-8.26339 19.1752 6.87014)
(-5.66917 19.5831 6.13206)
(-7.97228 17.3046 5.45899)
(-8.26989 21.2142 5.63463)
(-6.59125 24.0109 7.5721)
(-10.7749 19.5786 6.23263)
(-15.052 6.24008 5.423)
(-14.9696 7.14458 5.29857)
(-14.2504 6.48738 5.36284)
(-5.92924 17.5434 7.1347)
(-7.95419 15.5449 6.36733)
(-6.90741 21.2449 8.7069)
(-10.5092 17.4213 7.22272)
(-8.22932 16.9062 7.66242)
(-12.4489 3.60953 5.40056)
(-12.059 4.20494 5.25775)
(-12.7767 3.96935 5.61807)
(-13.1703 3.57465 5.66388)
(-12.8435 4.23028 5.641)
(-7.84392 10.3002 7.81829)
(-6.45197 11.1246 7.88661)
(-7.64217 9.95186 7.09298)
(-8.02275 12.3514 8.0628)
(-7.40584 12.856 9.19076)
(-9.38876 10.7765 7.82321)
(-12.802 3.20083 5.54)
(-12.4568 3.69356 5.52957)
(-12.1078 3.26117 5.30361)
(-6.49351 9.26961 7.57976)
(-7.45677 8.31592 6.83698)
(-7.39024 10.5281 8.69297)
(-8.95719 8.89271 7.46293)
(-7.6227 8.48135 7.38821)
(36.7229 41.3753 9.65566)
(43.8134 26.1889 10.8648)
(34.4734 8.47861 9.94654)
(44.2178 26.7582 10.1658)
(33.673 43.241 0.75762)
(43.7868 32.3277 1.46799)
(33.6078 9.73014 -0.460495)
(-1.42829 25.3189 0.8263)
(-3.32359 21.94 1.9763)
(-1.53673 20.98 0.66127)
(2.7061 14.2123 0.45806)
(1.47031 14.0362 0.439252)
(3.52613 16.2869 0.550886)
(1.91921 16.2268 0.522776)
(2.24285 15.0015 1.40935)
(-4.20545 17.9501 6.57251)
(-4.4503 16.6975 5.25766)
(-3.8347 19.7024 5.36674)
(-2.65552 21.3131 7.02519)
(-2.47991 17.9473 5.74557)
(1.01045 12.9227 4.89437)
(1.71041 12.6613 4.16408)
(0.602013 12.4918 3.99569)
(1.54904 13.8517 3.92309)
(2.25991 14.3824 4.93572)
(0.851056 14.2819 4.68658)
(-9.3761 17.0179 0.511851)
(-7.68495 17.4691 1.51048)
(-7.35956 15.2043 0.456795)
(-9.12767 6.92854 0.245874)
(-8.3515 6.70396 0.221345)
(-8.61832 6.22955 0.644296)
(-5.49331 8.36653 0.234444)
(-5.8855 7.34885 0.211405)
(-6.26816 9.23263 0.267651)
(-6.60581 8.04535 0.233844)
(-6.05324 8.19896 0.692378)
(-13.7859 8.01072 4.22741)
(-14.5759 8.44821 4.72359)
(-14.7615 8.61695 4.30135)
(-12.7091 8.56049 3.55388)
(-12.7683 9.50389 4.13074)
(-11.6605 7.96841 3.5775)
(-7.65906 14.3883 5.10925)
(-6.13136 14.9781 4.58211)
(-7.68368 15.7413 4.14797)
(-9.15536 14.5029 4.58648)
(-7.34671 13.1126 4.09091)
(-8.41144 5.21597 2.22451)
(-8.10209 4.95038 1.81237)
(-8.51158 5.66287 1.78754)
(-8.95222 5.97019 2.26218)
(-8.19523 5.84479 2.05119)
(-6.02574 7.09659 2.43981)
(-5.51528 7.46543 2.18849)
(-5.86424 6.56902 1.98142)
(-6.04326 7.58754 1.94001)
(-6.25206 8.17487 2.47633)
(-6.54806 7.1354 2.1763)
(18.1341 16.7161 18.5551)
(18.6352 6.98734 19.7046)
(19.4015 7.46524 19.6754)
(14.7924 4.31213 16.6548)
(32.5624 16.145 18.4568)
(28.5068 28.6411 17.2687)
(31.6614 15.5309 18.577)
(25.0101 6.63175 15.2241)
(-3.30411 19.0789 8.14113)
(-4.59088 15.9823 7.38138)
(-2.98062 16.2319 6.72922)
(1.148 11.7454 4.9823)
(0.114697 11.5809 4.77928)
(1.5518 13.2683 5.86776)
(0.25806 13.1501 5.57031)
(0.404186 11.8423 5.62947)
(-5.46967 10.0932 7.73177)
(-5.44712 9.9655 7.02455)
(-5.24759 11.9507 7.90061)
(-4.94846 12.0509 8.88194)
(-4.34684 10.6653 7.63834)
(-1.4104 8.31665 6.42928)
(-0.696484 8.51728 6.13007)
(-1.45999 8.37621 5.87482)
(-0.840886 9.48352 6.37432)
(-0.70461 9.40538 7.04435)
(-1.60604 9.25795 6.68267)
(-9.00279 13.0754 5.3815)
(-7.60961 12.8587 5.77583)
(-7.31883 11.9181 4.82511)
(-8.82474 5.41821 2.68017)
(-8.08526 5.34555 2.44653)
(-8.27707 4.70239 2.55004)
(-5.5174 6.93272 2.63776)
(-5.84146 6.10685 2.39129)
(-6.2294 7.55473 2.96932)
(-6.50191 6.59987 2.61525)
(-5.99549 6.52232 2.83335)
(-12.3609 4.40975 5.43348)
(-12.1817 4.65988 5.59783)
(-12.5461 4.81243 5.70127)
(-11.3801 4.98008 5.08215)
(-10.9621 5.39854 5.30625)
(-10.3844 4.47221 4.61289)
(-7.25165 8.21527 6.18576)
(-6.35846 8.98932 6.22861)
(-7.40749 9.6912 6.27298)
(-8.28834 8.48117 6.11534)
(-7.04434 7.97626 5.61012)
(-7.6786 3.07664 2.88501)
(-7.48715 3.07449 2.64177)
(-7.90723 3.606 2.86899)
(-8.20431 3.58741 3.17346)
(-7.56525 3.65227 2.97531)
(-5.80433 4.61758 3.36012)
(-5.44611 5.0484 3.34434)
(-5.6847 4.46382 3.0474)
(-5.88595 5.25387 3.28667)
(-6.05012 5.39359 3.68632)
(-6.24569 4.72721 3.27583)
(3.4891 2.7409 12.9844)
(2.11442 1.12485 13.6083)
(2.47565 1.20618 13.7473)
(1.12102 0.979057 10.9789)
(8.70554 2.21519 16.79)
(8.84356 7.1942 16.1997)
(8.2612 2.17417 16.5146)
(6.13012 2.11687 13.5888)
(-5.28681 10.0302 8.49724)
(-5.61153 8.42116 7.37344)
(-4.65795 9.00664 7.41135)
(-1.24522 7.46287 6.12606)
(-1.91944 7.33066 5.8695)
(-1.35089 8.17061 6.97424)
(-2.13138 8.02197 6.61585)
(-1.91465 7.21372 6.31978)
(-7.99008 7.11643 5.93559)
(-7.0641 6.87633 5.94373)
(-6.89067 6.77191 5.4923)
(-7.93293 3.02033 3.1297)
(-7.33981 3.1145 2.96335)
(-7.42836 2.58462 2.82752)
(-5.38963 4.42261 3.38264)
(-5.60066 3.91452 3.08865)
(-5.95077 4.68855 3.69876)
(-6.12241 4.11276 3.29814)
(-5.70565 4.00967 3.34929)
(38.8496 59.5625 8.54009)
(41.3694 24.6828 8.16805)
(31.6547 72.8743 5.65607)
(38.8549 60.2823 8.00475)
(9.00138 40.4896 4.34417)
(2.72897 40.2898 1.32705)
(9.36205 42.6941 0.357908)
(9.21439 50.8145 3.15068)
(8.4792 37.299 1.45767)
(2.37825 38.8304 5.40346)
(7.89831 38.3027 8.33851)
(8.78287 47.4513 7.3856)
(8.98148 48.734 4.94567)
(7.79263 35.965 5.90939)
(37.6336 60.8682 0.467413)
(39.0748 20.7363 0.14353)
(29.7774 76.2437 0.307344)
(-64.3856 24.2706 4.34379)
(-77.9431 24.8727 6.16383)
(-54.8954 16.2094 3.62274)
(-78.3407 25.139 5.85979)
(-17.4096 15.0907 0.163536)
(-14.1005 14.4791 0.13974)
(-18.3773 14.4838 0.175634)
(-17.5442 15.2907 0.619614)
(-19.3581 16.1199 0.209249)
(-14.6948 8.31217 2.92517)
(-13.9186 9.16056 2.41863)
(-14.7299 8.55358 2.26456)
(-15.4839 7.93451 2.66676)
(-15.6527 9.09909 2.56198)
(-16.7016 16.641 3.06623)
(-17.2402 14.5233 3.32587)
(-15.8241 13.9378 2.81854)
(-18.8941 15.4278 3.11042)
(-17.4406 14.8945 2.58573)
(-17.4102 13.7879 2.85247)
(-66.0238 25.0408 0.129782)
(-77.5653 25.2405 0.191098)
(-57.241 17.4432 0.992475)
(-54.5332 22.5217 3.79421)
(-64.9595 45.5359 2.89153)
(-49.542 26.8338 3.85024)
(-54.8068 22.6788 3.66989)
(-3.90284 34.9121 2.96935)
(-9.28446 33.7064 1.64549)
(-8.76147 40.0742 0.296362)
(-8.70529 47.375 2.3804)
(-10.8856 29.2073 0.457893)
(-1.60337 32.0993 1.01228)
(-14.7115 22.2769 2.0082)
(-14.7353 28.3641 1.5357)
(-20.2713 27.7765 0.193433)
(-22.4534 26.5882 1.79937)
(-13.6581 29.5542 0.389779)
(-12.9452 18.9024 0.598122)
(-16.4094 17.6157 1.16875)
(-19.1016 17.1928 0.319826)
(-19.1602 20.326 1.31612)
(-6.08156 28.0968 3.73634)
(-11.1477 22.7237 3.05041)
(-8.2598 22.8221 4.00402)
(-5.24483 22.5642 2.99317)
(-7.96857 19.8485 2.65269)
(-4.16532 33.1699 5.69885)
(-9.96675 32.6302 3.51915)
(-8.7388 44.5539 5.78277)
(-8.86399 45.6755 4.07985)
(-10.0213 32.1131 4.46815)
(-1.83824 31.0359 4.17475)
(-14.4306 21.316 3.8993)
(-14.9092 28.3606 3.26426)
(-22.2263 26.3311 4.19535)
(-22.5173 26.608 2.68428)
(-14.8591 28.1233 4.15341)
(-12.7905 18.3548 2.60507)
(-19.0145 19.0537 3.39352)
(-16.7505 16.8329 2.23701)
(-19.1453 19.4238 2.63434)
(-56.4195 23.3381 -0.503282)
(-71.4626 49.8097 0.156489)
(-55.4151 28.7808 0.1254)
(36.4516 40.8413 10.239)
(34.0408 8.4018 8.41327)
(43.2951 25.6158 11.4153)
(29.1581 29.3942 16.8212)
(33.3937 16.7638 18.0913)
(25.7933 6.81974 16.1224)
(41.0513 24.4891 8.24122)
(31.4666 72.4261 7.79385)
(38.6816 58.8667 8.97523)