/*--------------------------------*- C++ -*----------------------------------*\
| =========                 |                                                 |
| \\      /  F ield         | OpenFOAM: The Open Source CFD Toolbox           |
|  \\    /   O peration     | Version:  2012                                  |
|   \\  /    A nd           | Website:  www.openfoam.com                      |
|    \\/     M anipulation  |                                                 |
\*---------------------------------------------------------------------------*/
FoamFile
{
    version     2.0;
    format      ascii;
    class       surfaceVectorField;
    location    "0.108/fluid";
    object      Uf_0;
}
// * * * * * * * * * * * * * * * * * * * * * * * * * * * * * * * * * * * * * //

dimensions      [0 1 -1 0 0 0 0];


internalField   nonuniform List<vector> 
46515
(
(0.877864 -0.12199 -0.0197604)
(1.23384 -0.0510256 -0.00560539)
(1.26244 -0.0376146 -0.00630135)
(1.25793 -0.0404276 -0.00272308)
(0.892976 -0.106613 -0.0358819)
(1.54324 -0.0501672 -0.0140847)
(1.52019 -0.0643429 -0.0197251)
(1.20413 -0.00683479 0.0122853)
(1.20995 -0.01642 0.00496396)
(1.21296 -0.0277423 0.00337044)
(1.2112 -0.0123222 0.00618997)
(1.20427 -0.0115591 0.00632696)
(1.19792 -0.015334 0.0025274)
(1.20453 -0.0139565 0.00255809)
(1.20503 -0.0150301 -0.000361968)
(1.20238 -0.0130924 0.00172131)
(1.2005 -0.0126595 0.00159809)
(1.19787 -0.00943579 0.000373563)
(1.19909 -0.00933961 0.000389436)
(1.19868 -0.00854234 0.000151301)
(1.19873 -0.00850553 0.000149809)
(1.20051 -0.00928146 -0.000489138)
(1.19781 -0.00634003 -0.000197737)
(1.19817 -0.00645485 -0.00019021)
(1.19816 -0.0058418 -0.000218888)
(1.19845 -0.00591238 -0.000217498)
(1.19955 -0.00617504 -0.000412801)
(1.19808 -0.00417429 -0.000197669)
(1.19827 -0.00428683 -0.00020297)
(1.19834 -0.00385573 -0.000185774)
(1.19852 -0.00393329 -0.00019035)
(1.19937 -0.00405459 -0.000307737)
(1.19842 -0.0027004 -0.000128677)
(1.19853 -0.00278919 -0.000134183)
(1.1986 -0.00249972 -0.000119673)
(1.1987 -0.00256262 -0.000123822)
(1.19938 -0.00263201 -0.000205579)
(1.19871 -0.00172907 -8.29752e-05)
(1.19877 -0.00179345 -8.65625e-05)
(1.19882 -0.00160425 -7.82201e-05)
(1.19888 -0.00165011 -8.12329e-05)
(1.19948 -0.00169225 -0.00013646)
(1.19894 -0.00110227 -5.77635e-05)
(1.19897 -0.00114673 -5.98946e-05)
(1.19901 -0.00102405 -5.55362e-05)
(1.19904 -0.00105577 -5.75409e-05)
(1.19958 -0.00108249 -9.38716e-05)
(1.19913 -0.000697942 -4.36374e-05)
(1.19914 -0.000727994 -4.52699e-05)
(1.19918 -0.000649488 -4.26407e-05)
(1.19919 -0.000671409 -4.39494e-05)
(1.19967 -0.000687239 -6.75494e-05)
(1.19927 -0.000440158 -3.25001e-05)
(1.19928 -0.000459949 -3.40794e-05)
(1.19931 -0.000409432 -3.19364e-05)
(1.19931 -0.000423648 -3.31322e-05)
(1.19974 -0.000434215 -4.76599e-05)
(1.19939 -0.000276815 -2.80114e-05)
(1.19939 -0.000289403 -2.85706e-05)
(1.19941 -0.000257443 -2.82549e-05)
(1.19941 -0.000266857 -2.87885e-05)
(1.19979 -0.000273865 -3.72281e-05)
(1.1995 -0.00017188 -2.67437e-05)
(1.19949 -0.000180678 -2.74695e-05)
(1.19951 -0.000160169 -2.68984e-05)
(1.19951 -0.000167166 -2.76027e-05)
(1.19984 -0.000171308 -3.11309e-05)
(1.19959 -0.00010479 -2.5097e-05)
(1.19958 -0.000110175 -2.55701e-05)
(1.1996 -9.65937e-05 -2.57447e-05)
(1.19959 -0.000101211 -2.60575e-05)
(1.19986 -0.000104704 -2.4587e-05)
(1.19967 -5.56545e-05 -2.64891e-05)
(1.19966 -6.09418e-05 -2.71315e-05)
(1.19968 -5.0047e-05 -2.66161e-05)
(1.19967 -5.45621e-05 -2.77211e-05)
(1.19988 -5.73151e-05 -2.3607e-05)
(1.22656 -0.00576124 0.000112032)
(1.21913 -0.00902118 0.000191053)
(1.22187 -0.00667654 -0.000163084)
(1.22104 -0.00353051 7.18383e-05)
(1.21019 -0.0104045 0.00133222)
(1.21402 -0.0141003 0.000896601)
(1.21502 -0.0147396 0.00032626)
(1.21244 -0.0133414 0.000846363)
(1.21149 -0.00904076 0.000747692)
(1.20379 -0.00937621 0.000318317)
(1.20715 -0.0100643 0.000332363)
(1.20564 -0.00904171 0.000177556)
(1.20513 -0.00757073 0.000177611)
(1.20819 -0.00976451 -0.00019264)
(1.20127 -0.00665842 -0.000129638)
(1.20244 -0.00659097 -0.000110405)
(1.20176 -0.00596297 -0.000156209)
(1.20205 -0.00560417 -0.00014212)
(1.20371 -0.00628807 -0.000325632)
(1.20018 -0.00451783 -0.000202085)
(1.20056 -0.00446722 -0.000195153)
(1.20034 -0.00405963 -0.00019003)
(1.20066 -0.00397642 -0.000184279)
(1.20179 -0.00423402 -0.000303399)
(1.19967 -0.00304366 -0.000156911)
(1.1999 -0.00302825 -0.000157227)
(1.19979 -0.00273994 -0.00014403)
(1.19999 -0.00270258 -0.000144501)
(1.2009 -0.00286234 -0.00023188)
(1.19944 -0.00201707 -0.000105993)
(1.19957 -0.00201599 -0.000108137)
(1.19952 -0.00181647 -9.84637e-05)
(1.19964 -0.00179888 -0.000100111)
(1.20042 -0.00190439 -0.000163397)
(1.19934 -0.00131736 -7.51216e-05)
(1.19942 -0.00132215 -7.68919e-05)
(1.1994 -0.00118768 -7.12582e-05)
(1.19947 -0.00118044 -7.26807e-05)
(1.20016 -0.0012489 -0.000117104)
(1.19933 -0.000852622 -5.54145e-05)
(1.19938 -0.000857942 -5.70632e-05)
(1.19937 -0.000768662 -5.30434e-05)
(1.19941 -0.000765452 -5.44297e-05)
(1.20002 -0.000810101 -8.46087e-05)
(1.19936 -0.000545352 -4.26777e-05)
(1.19938 -0.000549763 -4.38412e-05)
(1.19939 -0.000490987 -4.12696e-05)
(1.19941 -0.000489584 -4.24878e-05)
(1.19995 -0.000518767 -6.21974e-05)
(1.19941 -0.000346714 -3.45164e-05)
(1.19942 -0.000350361 -3.54096e-05)
(1.19943 -0.000312687 -3.39513e-05)
(1.19944 -0.000312807 -3.46896e-05)
(1.19993 -0.000331115 -4.70134e-05)
(1.19947 -0.000218891 -3.13561e-05)
(1.19947 -0.000221366 -3.17863e-05)
(1.19949 -0.000197638 -3.16338e-05)
(1.19949 -0.000197699 -3.18758e-05)
(1.19992 -0.000209778 -3.87374e-05)
(1.19954 -0.000139591 -2.91272e-05)
(1.19954 -0.000141057 -2.97235e-05)
(1.19956 -0.000126208 -2.90749e-05)
(1.19955 -0.000126817 -2.94651e-05)
(1.19992 -0.000133884 -3.15963e-05)
(1.19961 -8.53399e-05 -2.84353e-05)
(1.19961 -8.58976e-05 -2.84811e-05)
(1.19962 -7.43581e-05 -2.91208e-05)
(1.19962 -7.70305e-05 -2.8923e-05)
(1.19992 -8.06773e-05 -2.60471e-05)
(1.19969 -4.69025e-05 -3.1012e-05)
(1.19968 -4.54911e-05 -3.11863e-05)
(1.1997 -3.80698e-05 -3.10622e-05)
(1.19969 -4.31756e-05 -3.17697e-05)
(1.19992 -4.28245e-05 -2.62622e-05)
(1.21498 -0.00074619 4.98064e-05)
(1.21364 -0.00258469 6.73325e-05)
(1.21367 -0.000650047 3.65921e-05)
(1.21456 -0.00202157 2.88673e-05)
(1.21073 -0.00385732 0.000197941)
(1.21165 -0.00463717 0.000163995)
(1.21066 -0.00473968 0.000150792)
(1.21072 -0.00282715 0.000136304)
(1.21223 -0.00483805 2.8426e-05)
(1.20628 -0.00414816 1.23162e-05)
(1.20748 -0.00416529 2.9147e-05)
(1.20648 -0.00385855 -1.38883e-05)
(1.20674 -0.00295618 1.06689e-06)
(1.20824 -0.00403612 -0.000121145)
(1.20343 -0.00325878 -0.000111272)
(1.20402 -0.00298551 -9.5863e-05)
(1.2034 -0.00274021 -0.000109095)
(1.20377 -0.00238763 -9.74093e-05)
(1.20498 -0.00283964 -0.000207548)
(1.20172 -0.00230913 -0.000131629)
(1.20203 -0.0021177 -0.000124317)
(1.20169 -0.00193698 -0.00012351)
(1.20195 -0.00173545 -0.000118893)
(1.20301 -0.00200772 -0.000208902)
(1.20071 -0.00158971 -0.000112197)
(1.2009 -0.00146576 -0.000110863)
(1.2007 -0.00133165 -0.000104681)
(1.20087 -0.0011988 -0.000104554)
(1.2018 -0.00138598 -0.000174503)
(1.20011 -0.00106987 -8.51081e-05)
(1.20023 -0.000990374 -8.59648e-05)
(1.20011 -0.000895217 -8.04074e-05)
(1.20022 -0.000808776 -8.14629e-05)
(1.20104 -0.000936034 -0.000134013)
(1.19977 -0.000708648 -6.52035e-05)
(1.19984 -0.000656907 -6.62858e-05)
(1.19978 -0.000591228 -6.23354e-05)
(1.19984 -0.000536698 -6.33332e-05)
(1.20058 -0.000620186 -0.000101126)
(1.1996 -0.000460861 -5.24118e-05)
(1.19964 -0.000426842 -5.34509e-05)
(1.1996 -0.000382354 -5.10366e-05)
(1.19964 -0.000349701 -5.20836e-05)
(1.2003 -0.000403117 -7.80569e-05)
(1.19953 -0.000296452 -4.2685e-05)
(1.19955 -0.000271634 -4.39859e-05)
(1.19953 -0.000242097 -4.17075e-05)
(1.19955 -0.000224785 -4.30904e-05)
(1.20014 -0.000256787 -6.02644e-05)
(1.19951 -0.000190667 -3.49716e-05)
(1.19952 -0.000171483 -3.58089e-05)
(1.19952 -0.000152611 -3.46594e-05)
(1.19953 -0.000145393 -3.50404e-05)
(1.20005 -0.000161756 -4.57319e-05)
(1.19953 -0.000121426 -3.27885e-05)
(1.19954 -0.000105321 -3.31223e-05)
(1.19955 -9.34149e-05 -3.23916e-05)
(1.19955 -9.23402e-05 -3.27846e-05)
(1.2 -9.87188e-05 -3.89277e-05)
(1.19958 -7.80759e-05 -2.91905e-05)
(1.19958 -6.20671e-05 -2.95302e-05)
(1.19959 -5.26057e-05 -2.91544e-05)
(1.19959 -5.83407e-05 -2.91333e-05)
(1.19997 -5.70675e-05 -3.0502e-05)
(1.19963 -4.64366e-05 -3.03671e-05)
(1.19962 -2.96404e-05 -3.02054e-05)
(1.19964 -2.35581e-05 -3.11891e-05)
(1.19964 -3.47916e-05 -3.08311e-05)
(1.19995 -2.71177e-05 -2.72747e-05)
(1.1997 -2.76132e-05 -3.35465e-05)
(1.1997 -1.07769e-05 -3.34958e-05)
(1.19972 -8.00766e-06 -3.33432e-05)
(1.19971 -2.39151e-05 -3.37106e-05)
(1.19995 -9.53264e-06 -2.79806e-05)
(1.30329 -0.0595928 0.00594997)
(1.25852 -0.0283796 -0.00224824)
(1.23556 -0.0394219 -0.00171107)
(1.25753 -0.0284006 -0.000563964)
(1.25911 -0.0281571 -0.000642411)
(1.2803 -0.0628413 0.00299627)
(1.30209 -0.0594544 -0.00587251)
(1.27926 -0.062691 -0.00411452)
(1.20124 -0.0203813 -0.00372111)
(1.20933 -0.0425718 -0.00287128)
(1.21141 -0.0390325 -0.00136826)
(1.21119 -0.0379397 -0.00123112)
(1.21201 -0.0267962 -0.00308794)
(1.2046 -0.0234516 -0.0024137)
(1.2047 -0.0125863 -0.00250464)
(1.20179 -0.010944 -0.00367223)
(1.20734 -0.00977316 -0.00301347)
(1.2049 -0.0115777 -0.00207043)
(1.20568 -0.00942458 -0.00284249)
(1.20338 -0.00959766 -0.00267211)
(1.20101 -0.00866021 -0.00197463)
(1.2011 -0.00831435 -0.00227367)
(1.20228 -0.0080819 -0.002181)
(1.20153 -0.0075988 -0.00198142)
(1.20158 -0.00755027 -0.00193959)
(1.20123 -0.00832567 -0.00193558)
(1.19991 -0.00591638 -0.00132586)
(1.19981 -0.00594291 -0.00148708)
(1.20023 -0.00602374 -0.00147998)
(1.20002 -0.00550358 -0.00134376)
(1.20037 -0.0055574 -0.00133774)
(1.20006 -0.00576702 -0.00148542)
(1.19964 -0.00392206 -0.000889032)
(1.19947 -0.00399491 -0.00100905)
(1.19971 -0.00409605 -0.00101546)
(1.19967 -0.00369143 -0.000926994)
(1.1999 -0.00376147 -0.000932054)
(1.19974 -0.00384509 -0.00107935)
(1.1996 -0.00255755 -0.000614184)
(1.19948 -0.00260027 -0.000694146)
(1.19963 -0.00268266 -0.00070473)
(1.19963 -0.00240782 -0.000642125)
(1.19977 -0.00246591 -0.000651478)
(1.19967 -0.00251489 -0.000751145)
(1.19965 -0.00165063 -0.00041835)
(1.19958 -0.00167397 -0.00047173)
(1.19967 -0.00173476 -0.000482535)
(1.19968 -0.00155404 -0.000437983)
(1.19977 -0.00159745 -0.000447454)
(1.1997 -0.00162637 -0.000513193)
(1.19974 -0.00106035 -0.0002831)
(1.19969 -0.0010735 -0.000317773)
(1.19974 -0.00111592 -0.000326879)
(1.19976 -0.000998416 -0.00029626)
(1.19981 -0.00102905 -0.000304398)
(1.19977 -0.001047 -0.000347984)
(1.19981 -0.000675887 -0.000191021)
(1.19978 -0.000683858 -0.000212366)
(1.19981 -0.000712651 -0.00021956)
(1.19983 -0.000636416 -0.000198773)
(1.19986 -0.000657258 -0.000205133)
(1.19984 -0.000668662 -0.000234311)
(1.19987 -0.000428858 -0.000128448)
(1.19985 -0.000433776 -0.000141521)
(1.19987 -0.000452762 -0.000147123)
(1.19988 -0.000403771 -0.000132825)
(1.1999 -0.000417686 -0.000137863)
(1.19989 -0.000425205 -0.000157921)
(1.19991 -0.000270872 -8.71274e-05)
(1.1999 -0.000273657 -9.4295e-05)
(1.19992 -0.00028592 -9.80974e-05)
(1.19992 -0.000254789 -8.86624e-05)
(1.19994 -0.000263896 -9.20914e-05)
(1.19993 -0.000268672 -0.000106361)
(1.19995 -0.000169612 -5.7842e-05)
(1.19994 -0.000170811 -6.07506e-05)
(1.19995 -0.000179214 -6.38699e-05)
(1.19995 -0.000158947 -5.65384e-05)
(1.19996 -0.000165359 -5.94168e-05)
(1.19995 -0.000168278 -7.03611e-05)
(1.19997 -0.000103183 -3.48821e-05)
(1.19997 -0.000103401 -3.48916e-05)
(1.19997 -0.000109273 -3.72447e-05)
(1.19998 -9.562e-05 -3.18178e-05)
(1.19998 -0.000100309 -3.39233e-05)
(1.19998 -0.000102214 -4.29678e-05)
(1.19999 -5.66334e-05 -2.06434e-05)
(1.19998 -5.62271e-05 -1.84194e-05)
(1.19999 -6.07151e-05 -1.95796e-05)
(1.19999 -5.07217e-05 -1.64898e-05)
(1.19999 -5.47143e-05 -1.75397e-05)
(1.19999 -5.57533e-05 -2.50416e-05)
(1.22747 -0.00483576 6.32852e-05)
(1.22146 -0.00677067 -1.7001e-05)
(1.21995 -0.00913572 -0.000146495)
(1.2211 -0.0067753 0.00018697)
(1.22165 -0.0032786 5.96097e-05)
(1.21491 -0.0153022 -0.000753057)
(1.21156 -0.0108203 -0.00104272)
(1.21541 -0.01496 -0.000891221)
(1.21475 -0.01514 -0.000722552)
(1.21396 -0.0138026 -0.00103885)
(1.21281 -0.00929356 -0.000879255)
(1.20815 -0.0094618 -0.00115746)
(1.20588 -0.00858749 -0.00141127)
(1.20913 -0.00949027 -0.00126827)
(1.20771 -0.00842087 -0.00128718)
(1.20703 -0.00703064 -0.00119147)
(1.20814 -0.00924239 -0.00118601)
(1.20388 -0.00602358 -0.00110679)
(1.20333 -0.00617044 -0.00126482)
(1.20445 -0.00612951 -0.00120918)
(1.20368 -0.00557121 -0.00115498)
(1.20393 -0.00522775 -0.00111398)
(1.20394 -0.00587273 -0.00123302)
(1.202 -0.00407872 -0.000863993)
(1.20181 -0.00428063 -0.000986518)
(1.2022 -0.0042281 -0.00097064)
(1.2019 -0.0038526 -0.000909578)
(1.20222 -0.00377058 -0.000899852)
(1.20206 -0.00399205 -0.00104291)
(1.2011 -0.0027699 -0.000652961)
(1.20098 -0.00290733 -0.000739085)
(1.20122 -0.00288969 -0.000738549)
(1.20105 -0.00261881 -0.000686828)
(1.20127 -0.00258091 -0.00068847)
(1.20116 -0.00271929 -0.000798859)
(1.2006 -0.0018505 -0.000480453)
(1.20051 -0.00193912 -0.00054117)
(1.20067 -0.0019365 -0.000546816)
(1.20057 -0.00174777 -0.000504859)
(1.20071 -0.00172955 -0.000511228)
(1.20065 -0.00182056 -0.000588476)
(1.20032 -0.00121919 -0.000343172)
(1.20026 -0.00127582 -0.000384683)
(1.20036 -0.00127894 -0.000392605)
(1.20031 -0.00115077 -0.000359961)
(1.2004 -0.00114236 -0.000367638)
(1.20036 -0.00120215 -0.000421199)
(1.20017 -0.000793431 -0.000241505)
(1.20013 -0.000829685 -0.000269177)
(1.2002 -0.000834252 -0.000276333)
(1.20017 -0.000748229 -0.000252559)
(1.20022 -0.000744747 -0.000259426)
(1.2002 -0.000783689 -0.000297015)
(1.20009 -0.000510386 -0.000168993)
(1.20007 -0.000533546 -0.000186416)
(1.20011 -0.000537736 -0.000192293)
(1.20009 -0.00048102 -0.000175835)
(1.20013 -0.000479758 -0.000181177)
(1.20011 -0.000505153 -0.000207216)
(1.20005 -0.000326125 -0.000117435)
(1.20004 -0.000340722 -0.000128244)
(1.20006 -0.000343827 -0.000133215)
(1.20006 -0.000307487 -0.000120816)
(1.20008 -0.000307006 -0.000125401)
(1.20007 -0.000323284 -0.000144311)
(1.20004 -0.00020773 -8.07873e-05)
(1.20003 -0.000216726 -8.60783e-05)
(1.20004 -0.000219201 -8.97603e-05)
(1.20004 -0.000195668 -8.10192e-05)
(1.20005 -0.000195681 -8.44969e-05)
(1.20005 -0.000206148 -9.84374e-05)
(1.20003 -0.000132011 -5.34565e-05)
(1.20002 -0.000137415 -5.53322e-05)
(1.20003 -0.000139137 -5.81419e-05)
(1.20003 -0.000123687 -5.13208e-05)
(1.20004 -0.000124315 -5.39808e-05)
(1.20004 -0.000130658 -6.52895e-05)
(1.20003 -7.91115e-05 -3.24187e-05)
(1.20002 -8.39157e-05 -3.14255e-05)
(1.20003 -8.4079e-05 -3.36513e-05)
(1.20003 -7.29557e-05 -2.87051e-05)
(1.20004 -7.5769e-05 -3.05427e-05)
(1.20003 -7.82283e-05 -4.03108e-05)
(1.20003 -4.25579e-05 -1.88075e-05)
(1.20003 -4.68639e-05 -1.51508e-05)
(1.20003 -4.55225e-05 -1.65447e-05)
(1.20003 -3.84296e-05 -1.35566e-05)
(1.20004 -4.3756e-05 -1.44756e-05)
(1.20003 -4.18826e-05 -2.2568e-05)
(1.2144 -0.00207658 7.0124e-05)
(1.2155 -0.000723992 7.69677e-05)
(1.21418 -0.00261832 -4.14431e-06)
(1.21421 -0.000669506 7.07177e-05)
(1.21423 -0.00208255 0.000115352)
(1.21215 -0.00481707 -0.000419057)
(1.21167 -0.00378489 -0.000535613)
(1.2125 -0.00462212 -0.000438426)
(1.21163 -0.00469207 -0.000545568)
(1.21161 -0.00279517 -0.000471349)
(1.21204 -0.00475269 -0.000478389)
(1.20826 -0.00394025 -0.000682929)
(1.20765 -0.00395209 -0.000803479)
(1.20875 -0.00402581 -0.000746073)
(1.20782 -0.00370633 -0.000777527)
(1.208 -0.00283212 -0.000730406)
(1.20823 -0.00386723 -0.000803386)
(1.20509 -0.00274276 -0.000714246)
(1.2049 -0.00308994 -0.000821298)
(1.20544 -0.00283878 -0.000795104)
(1.20481 -0.00260211 -0.000782433)
(1.20516 -0.00226483 -0.000765651)
(1.20511 -0.00268716 -0.000870803)
(1.20317 -0.00193854 -0.000633011)
(1.20308 -0.00219366 -0.000717605)
(1.20338 -0.00201126 -0.000711022)
(1.20301 -0.00184122 -0.000680485)
(1.20327 -0.00164883 -0.00068044)
(1.20321 -0.00190139 -0.000777069)
(1.20196 -0.00134215 -0.000515658)
(1.20191 -0.00151797 -0.000578162)
(1.20211 -0.00139856 -0.000581657)
(1.20187 -0.00127246 -0.000548357)
(1.20204 -0.00114472 -0.000554958)
(1.202 -0.00131895 -0.000632225)
(1.2012 -0.000909993 -0.000398497)
(1.20116 -0.00102844 -0.000444597)
(1.2013 -0.000951191 -0.000451931)
(1.20115 -0.000861121 -0.000421546)
(1.20126 -0.000777304 -0.000430427)
(1.20124 -0.000895827 -0.000488695)
(1.20073 -0.000605165 -0.000296292)
(1.20071 -0.000684938 -0.00032914)
(1.20079 -0.000634503 -0.00033739)
(1.2007 -0.000571802 -0.000312091)
(1.20077 -0.000518698 -0.000320911)
(1.20076 -0.000596939 -0.00036404)
(1.20044 -0.00039497 -0.000215174)
(1.20043 -0.00044905 -0.000237411)
(1.20048 -0.000415302 -0.000244819)
(1.20043 -0.000372544 -0.000225178)
(1.20048 -0.000340354 -0.000232666)
(1.20047 -0.000390228 -0.000264539)
(1.20027 -0.000253371 -0.000155009)
(1.20027 -0.000291233 -0.000169057)
(1.2003 -0.00026717 -0.000174729)
(1.20027 -0.000238591 -0.000160816)
(1.2003 -0.000221366 -0.000166463)
(1.20029 -0.000250778 -0.000189535)
(1.20018 -0.000159529 -0.000109642)
(1.20017 -0.00018762 -0.000118475)
(1.20019 -0.000168698 -0.000123289)
(1.20017 -0.000149631 -0.000112209)
(1.20019 -0.000142849 -0.000116738)
(1.20019 -0.00015779 -0.000134227)
(1.20012 -9.65773e-05 -7.66455e-05)
(1.20012 -0.000119051 -8.06504e-05)
(1.20013 -0.000102578 -8.45258e-05)
(1.20012 -9.01082e-05 -7.64084e-05)
(1.20013 -8.99024e-05 -7.95506e-05)
(1.20013 -9.54769e-05 -9.35391e-05)
(1.20008 -5.54541e-05 -5.078e-05)
(1.20008 -7.60759e-05 -5.13858e-05)
(1.20009 -5.95501e-05 -5.48756e-05)
(1.20008 -5.1077e-05 -4.85666e-05)
(1.20009 -5.7163e-05 -5.08235e-05)
(1.20009 -5.48918e-05 -6.25359e-05)
(1.20007 -2.68747e-05 -3.08622e-05)
(1.20007 -4.64241e-05 -2.87336e-05)
(1.20007 -2.96314e-05 -3.15472e-05)
(1.20007 -2.35925e-05 -2.66876e-05)
(1.20008 -3.54303e-05 -2.82701e-05)
(1.20007 -2.64118e-05 -3.8667e-05)
(1.20006 -9.51206e-06 -1.78644e-05)
(1.20006 -2.73236e-05 -1.31828e-05)
(1.20006 -1.07861e-05 -1.48639e-05)
(1.20006 -7.86966e-06 -1.18897e-05)
(1.20006 -2.3799e-05 -1.30057e-05)
(1.20006 -9.33527e-06 -2.09201e-05)
(1.29843 -0.0589238 0.00510168)
(1.2556 -0.0265368 0.000414452)
(1.23348 -0.0362906 -0.000326591)
(1.25467 -0.0253903 0.000165577)
(1.25608 -0.0267865 -0.00114318)
(1.27663 -0.0621849 0.00234992)
(1.2978 -0.0592329 -0.00800925)
(1.27615 -0.0625372 -0.00681517)
(1.20005 -0.0230486 -0.0054164)
(1.20857 -0.0440744 -0.00376222)
(1.20998 -0.0376915 -0.00298826)
(1.20915 -0.0365777 -0.00335405)
(1.21046 -0.0285553 -0.00452366)
(1.204 -0.0247658 -0.00475512)
(1.20467 -0.0101189 -0.00387065)
(1.20076 -0.0104818 -0.0055225)
(1.20607 -0.00921975 -0.00491284)
(1.20496 -0.00920155 -0.00402226)
(1.20482 -0.00858054 -0.0046522)
(1.20262 -0.00899075 -0.0045942)
(1.20169 -0.00742927 -0.00316376)
(1.20147 -0.00741918 -0.00373481)
(1.20242 -0.0071762 -0.00363284)
(1.20186 -0.00674016 -0.00330279)
(1.2019 -0.00672994 -0.00326631)
(1.20205 -0.00696045 -0.00325483)
(1.20057 -0.00523924 -0.00226316)
(1.20046 -0.00527647 -0.00247652)
(1.20082 -0.00534322 -0.00247338)
(1.20063 -0.00488534 -0.0022543)
(1.20094 -0.00493002 -0.00224958)
(1.20081 -0.00501244 -0.00240449)
(1.20015 -0.0035397 -0.00157732)
(1.20004 -0.00357868 -0.00170794)
(1.20027 -0.00366214 -0.00172159)
(1.2002 -0.00331332 -0.00157379)
(1.20041 -0.00337049 -0.00158522)
(1.20032 -0.00341708 -0.00170212)
(1.19996 -0.0023419 -0.00109617)
(1.19989 -0.00236466 -0.00117924)
(1.20004 -0.00243515 -0.00119833)
(1.20001 -0.0021931 -0.00109287)
(1.20015 -0.00224252 -0.00110945)
(1.20009 -0.00227217 -0.00118422)
(1.19991 -0.00152844 -0.000753675)
(1.19986 -0.00154097 -0.000807002)
(1.19995 -0.00159468 -0.000825736)
(1.19995 -0.00143279 -0.000751156)
(1.20003 -0.00147097 -0.000767641)
(1.19999 -0.00148911 -0.000815086)
(1.19991 -0.000992941 -0.000512576)
(1.19988 -0.000999935 -0.000547014)
(1.19994 -0.00103819 -0.000562847)
(1.19994 -0.000931669 -0.000510568)
(1.2 -0.000959345 -0.000524542)
(1.19997 -0.000970479 -0.000555413)
(1.19994 -0.000639242 -0.000345285)
(1.19992 -0.00064388 -0.000367062)
(1.19995 -0.000670456 -0.000379805)
(1.19996 -0.000600152 -0.000343361)
(1.19999 -0.000619265 -0.000354816)
(1.19998 -0.000627004 -0.000374084)
(1.19996 -0.000410281 -0.000230898)
(1.19995 -0.000413643 -0.000244137)
(1.19997 -0.000430975 -0.000253383)
(1.19997 -0.000385776 -0.000229684)
(1.19999 -0.000398527 -0.000237712)
(1.19999 -0.00040386 -0.000249517)
(1.19997 -0.000260549 -0.000155807)
(1.19997 -0.000262981 -0.000164441)
(1.19998 -0.000274698 -0.000171312)
(1.19999 -0.000244774 -0.000154751)
(1.2 -0.000253453 -0.000161069)
(1.19999 -0.00025718 -0.000168645)
(1.19999 -0.000163715 -0.000101933)
(1.19999 -0.000165058 -0.000107319)
(1.19999 -0.000172831 -0.000112388)
(1.2 -0.00015365 -0.000100731)
(1.20001 -0.000159592 -0.00010532)
(1.2 -0.000161716 -0.000110195)
(1.2 -9.97737e-05 -6.35399e-05)
(1.2 -0.000100305 -6.6796e-05)
(1.2 -0.000106075 -7.06518e-05)
(1.20001 -9.28454e-05 -6.22607e-05)
(1.20001 -9.74969e-05 -6.57256e-05)
(1.20001 -9.87034e-05 -6.89323e-05)
(1.20001 -5.33531e-05 -3.69694e-05)
(1.20001 -5.37354e-05 -3.83976e-05)
(1.20001 -5.79177e-05 -4.10891e-05)
(1.20001 -4.81776e-05 -3.49828e-05)
(1.20002 -5.2045e-05 -3.74967e-05)
(1.20002 -5.2452e-05 -3.9735e-05)
(1.22554 -0.00480976 -0.000483838)
(1.21991 -0.00644235 0.000328277)
(1.21853 -0.00867549 3.83873e-05)
(1.21937 -0.00609456 0.000395144)
(1.22011 -0.00326524 -0.000145159)
(1.21399 -0.0144429 -0.00133519)
(1.21079 -0.0104622 -0.00245839)
(1.2144 -0.014374 -0.00135451)
(1.21364 -0.0137953 -0.00141646)
(1.21306 -0.0132531 -0.00169736)
(1.21201 -0.0089407 -0.00180992)
(1.20792 -0.00850753 -0.00205617)
(1.20557 -0.00789334 -0.00265573)
(1.20863 -0.00877461 -0.00221118)
(1.20738 -0.00767959 -0.00224065)
(1.20675 -0.00643209 -0.00220328)
(1.20789 -0.00805544 -0.00217246)
(1.20412 -0.00532383 -0.0019464)
(1.20355 -0.00548085 -0.00219711)
(1.20456 -0.00545173 -0.00208412)
(1.20389 -0.00493674 -0.0019889)
(1.2041 -0.00463468 -0.00194152)
(1.20423 -0.00506837 -0.00208309)
(1.20234 -0.00364084 -0.00155033)
(1.20221 -0.00378937 -0.00169635)
(1.20256 -0.00373989 -0.00167252)
(1.20226 -0.00341597 -0.00156753)
(1.20255 -0.00333929 -0.00155313)
(1.20247 -0.00349771 -0.00167893)
(1.20142 -0.00250813 -0.00117356)
(1.20134 -0.00260899 -0.00127046)
(1.20157 -0.00258904 -0.00127162)
(1.20139 -0.00235477 -0.00118124)
(1.20159 -0.00231765 -0.00118541)
(1.20153 -0.00242313 -0.00126998)
(1.20086 -0.00169632 -0.000862712)
(1.2008 -0.00176416 -0.000927188)
(1.20096 -0.00175905 -0.000937764)
(1.20084 -0.00159287 -0.000865899)
(1.20098 -0.0015742 -0.000877137)
(1.20094 -0.0016463 -0.000933481)
(1.20052 -0.00113141 -0.00062059)
(1.20049 -0.00117633 -0.000663711)
(1.20059 -0.00117742 -0.000676874)
(1.20052 -0.00106293 -0.000621847)
(1.20061 -0.00105377 -0.000634823)
(1.20058 -0.00110253 -0.000672279)
(1.20032 -0.000743484 -0.000437837)
(1.2003 -0.000773802 -0.000465637)
(1.20036 -0.000776841 -0.000478259)
(1.20032 -0.000698308 -0.000437414)
(1.20038 -0.000694164 -0.000449243)
(1.20037 -0.000727099 -0.000473619)
(1.2002 -0.00048357 -0.000303666)
(1.20019 -0.000503285 -0.000321944)
(1.20023 -0.000506348 -0.000332592)
(1.2002 -0.000454637 -0.000302751)
(1.20024 -0.000452672 -0.000312741)
(1.20023 -0.000474371 -0.000328707)
(1.20013 -0.000311897 -0.000209464)
(1.20012 -0.000325121 -0.00022073)
(1.20015 -0.000327614 -0.000228629)
(1.20013 -0.000293436 -0.000208771)
(1.20016 -0.000292477 -0.000215956)
(1.20015 -0.000307127 -0.000225888)
(1.20009 -0.000199955 -0.000143902)
(1.20008 -0.000208177 -0.000151729)
(1.2001 -0.000210371 -0.000157901)
(1.20009 -0.000188217 -0.000143233)
(1.20011 -0.000188105 -0.000149077)
(1.2001 -0.000197304 -0.00015581)
(1.20007 -0.000126578 -9.51615e-05)
(1.20006 -0.000132224 -9.99983e-05)
(1.20007 -0.000133722 -0.000104837)
(1.20007 -0.00011868 -9.41777e-05)
(1.20008 -0.000119607 -9.85466e-05)
(1.20008 -0.000125128 -0.00010303)
(1.20005 -7.59939e-05 -6.01857e-05)
(1.20005 -8.14571e-05 -6.29032e-05)
(1.20006 -8.10202e-05 -6.66506e-05)
(1.20006 -7.04719e-05 -5.88205e-05)
(1.20006 -7.35282e-05 -6.20611e-05)
(1.20006 -7.51518e-05 -6.52462e-05)
(1.20005 -3.97889e-05 -3.43083e-05)
(1.20005 -4.44638e-05 -3.53021e-05)
(1.20005 -4.31755e-05 -3.83764e-05)
(1.20005 -3.58533e-05 -3.21516e-05)
(1.20006 -4.17597e-05 -3.45584e-05)
(1.20006 -3.90451e-05 -3.73863e-05)
(1.21357 -0.00200198 0.000138392)
(1.21454 -0.000758633 -5.10633e-05)
(1.21335 -0.0024717 6.14806e-06)
(1.21338 -0.000684945 3.58722e-05)
(1.2133 -0.00191433 0.000156043)
(1.21156 -0.00442959 -0.000782065)
(1.21107 -0.00348657 -0.0010732)
(1.21183 -0.00425556 -0.000725414)
(1.21105 -0.00429978 -0.000915929)
(1.21103 -0.00257961 -0.000870371)
(1.21137 -0.00422662 -0.000850128)
(1.20806 -0.00354887 -0.00126275)
(1.20745 -0.00354334 -0.00145978)
(1.20846 -0.00362501 -0.00128801)
(1.20763 -0.00331732 -0.00134901)
(1.20779 -0.00253553 -0.00129776)
(1.208 -0.00338697 -0.00137674)
(1.20517 -0.00244731 -0.00131381)
(1.20499 -0.00272812 -0.00143847)
(1.20549 -0.00251039 -0.00138504)
(1.20492 -0.00229896 -0.00136091)
(1.20523 -0.00199783 -0.00133496)
(1.2052 -0.00234389 -0.00143144)
(1.20336 -0.00174131 -0.00115095)
(1.2033 -0.00194883 -0.00124113)
(1.20357 -0.00178542 -0.00123)
(1.20322 -0.00163917 -0.00117556)
(1.20346 -0.00146577 -0.00117545)
(1.20342 -0.00167568 -0.00124951)
(1.20217 -0.00121936 -0.000930846)
(1.20214 -0.00136587 -0.000995774)
(1.20233 -0.00125691 -0.00100182)
(1.20209 -0.00114724 -0.000943713)
(1.20226 -0.00103056 -0.000955418)
(1.20224 -0.00117902 -0.00100882)
(1.20139 -0.000835995 -0.000718646)
(1.20137 -0.000937308 -0.000764546)
(1.20151 -0.000865752 -0.000777091)
(1.20135 -0.000786282 -0.000725329)
(1.20146 -0.000708833 -0.000740359)
(1.20146 -0.000811818 -0.000778398)
(1.20089 -0.000562281 -0.000537017)
(1.20088 -0.000632063 -0.000569294)
(1.20097 -0.000584833 -0.000583167)
(1.20087 -0.000528537 -0.00054024)
(1.20094 -0.000478676 -0.000555092)
(1.20094 -0.000548084 -0.000581901)
(1.20057 -0.000370348 -0.000389603)
(1.20057 -0.000418756 -0.000411534)
(1.20062 -0.000386828 -0.000424457)
(1.20056 -0.000347912 -0.000390481)
(1.20061 -0.000317607 -0.000403307)
(1.20061 -0.000362124 -0.000421814)
(1.20037 -0.000239608 -0.000276828)
(1.20037 -0.000274144 -0.000291631)
(1.2004 -0.000251322 -0.000302115)
(1.20036 -0.000224678 -0.000276684)
(1.2004 -0.000207887 -0.000287005)
(1.2004 -0.000234983 -0.000299495)
(1.20024 -0.000150504 -0.000194328)
(1.20024 -0.000177186 -0.000204057)
(1.20027 -0.000158575 -0.00021187)
(1.20024 -0.000140611 -0.000193924)
(1.20026 -0.00013412 -0.000201201)
(1.20027 -0.000147649 -0.000209777)
(1.20016 -9.16275e-05 -0.000137019)
(1.20017 -0.000114281 -0.000143358)
(1.20018 -9.69438e-05 -0.000149461)
(1.20016 -8.54634e-05 -0.000136961)
(1.20018 -8.63286e-05 -0.000141774)
(1.20018 -9.00447e-05 -0.000148179)
(1.20012 -5.34624e-05 -9.25343e-05)
(1.20012 -7.42789e-05 -9.6166e-05)
(1.20013 -5.73163e-05 -0.000101978)
(1.20012 -4.94045e-05 -9.16721e-05)
(1.20013 -5.64293e-05 -9.56423e-05)
(1.20013 -5.29392e-05 -0.00010032)
(1.20009 -2.54885e-05 -5.90882e-05)
(1.20009 -4.56707e-05 -6.09731e-05)
(1.2001 -2.85141e-05 -6.53067e-05)
(1.20009 -2.2485e-05 -5.75655e-05)
(1.2001 -3.47419e-05 -6.07939e-05)
(1.2001 -2.53096e-05 -6.39361e-05)
(1.20008 -8.1753e-06 -3.24434e-05)
(1.20008 -2.5655e-05 -3.28397e-05)
(1.20008 -9.31144e-06 -3.64164e-05)
(1.20008 -6.57977e-06 -3.02658e-05)
(1.20008 -2.26854e-05 -3.21357e-05)
(1.20008 -7.47155e-06 -3.56177e-05)
(1.00185 -0.127547 -0.0168101)
(0.96504 -0.151928 -0.0450756)
(1.2771 -0.111184 -0.0297623)
(1.20401 8.30449e-05 0.0131543)
(1.20331 -0.0080533 0.00582111)
(1.19328 -0.00629767 0.0163665)
(1.22148 -0.0126053 -0.0131354)
(1.19797 -0.00808466 0.0204154)
(1.32146 -0.080752 0.00043146)
(1.30332 -0.0598952 -0.00658077)
(1.32146 -0.0814312 0.000968014)
(1.33319 -0.0761333 -0.0065802)
(1.30889 -0.082916 -0.00801804)
(1.18769 -0.0128413 0.00107637)
(1.19673 -0.0209076 0.00617398)
(1.20234 -0.0369492 0.003602)
(1.18649 -0.0110814 0.00264914)
(1.19207 -0.0383456 0.00717154)
(1.1965 -0.0259565 0.00547588)
(1.33433 -0.0750354 0.00629799)
(1.30983 -0.0823193 0.00770934)
(1.32119 -0.0801784 0.00058182)
(1.19074 -0.00791728 -0.00409484)
(1.19436 -0.0284277 -0.00324572)
(1.1737 -0.0251092 -0.00455231)
(1.18572 -0.0225479 -0.00292169)
(1.18659 -0.0115119 -0.000958433)
(1.31646 -0.0806649 -0.00203497)
(1.2993 -0.0590787 -0.00723689)
(1.31713 -0.0803699 -0.00161443)
(1.32933 -0.0742012 -0.00796533)
(1.30549 -0.0826186 -0.0103062)
(1.18591 -0.0114545 -0.00407264)
(1.19334 -0.0143751 -0.00162417)
(1.19814 -0.032555 -0.00130037)
(1.1857 -0.0112606 -0.00287375)
(1.1832 -0.031335 -0.00161024)
(1.19103 -0.0239191 -0.00191013)
(1.32845 -0.0740716 0.00478132)
(1.30448 -0.0827916 0.00560997)
(1.31567 -0.0809855 -0.00247775)
(1.19032 -0.0107229 -0.00620586)
(1.19501 -0.0300896 -0.00455382)
(1.17772 -0.02779 -0.00640468)
(1.18711 -0.0229414 -0.00530478)
(1.18478 -0.0105994 -0.00517007)
(0.428064 0.096768 -0.0428811)
(0.286818 0.0673949 -0.0273091)
(0.344617 0.116731 -0.0430057)
(0.278002 0.0656189 -0.0333249)
(0.246643 0.113369 -0.0175276)
(0.174817 0.0744958 0.0238692)
(0.101935 0.101929 -0.0153862)
(1.19932 0.00322434 0.0196154)
(1.20212 -0.0128258 0.0183707)
(1.19631 -0.00695894 0.0154469)
(1.19244 -0.016778 0.00366433)
(1.19859 -0.0157102 0.00369498)
(1.1941 -0.015889 0.00495169)
(1.19227 -0.0165949 0.00568272)
(1.1944 -0.0211599 -0.000364638)
(1.19458 -0.0160083 0.000328335)
(1.20474 -0.0332522 0.00317249)
(1.19666 -0.0133093 0.00408699)
(1.19553 -0.0365371 0.00656278)
(1.19722 -0.0266048 0.00398946)
(1.19385 -0.0189372 -0.00376562)
(1.19188 -0.0224061 -0.00223509)
(1.19846 -0.0212011 -0.00155322)
(1.19506 -0.0187834 -0.00103021)
(1.1957 -0.024546 -0.00157044)
(1.19246 -0.0262729 -0.00114637)
(1.20547 -0.0294134 0.000894801)
(1.20909 -0.0407633 0.00270838)
(1.20453 -0.0156054 0.00543032)
(1.23105 -0.0103769 -6.27389e-05)
(1.2288 -0.00674609 0.000497487)