/*--------------------------------*- C++ -*----------------------------------*\
| =========                 |                                                 |
| \\      /  F ield         | OpenFOAM: The Open Source CFD Toolbox           |
|  \\    /   O peration     | Version:  2012                                  |
|   \\  /    A nd           | Website:  www.openfoam.com                      |
|    \\/     M anipulation  |                                                 |
\*---------------------------------------------------------------------------*/
FoamFile
{
    version     2.0;
    format      ascii;
    class       volScalarField::Internal;
    location    "0.108/fluid";
    object      V0;
}
// * * * * * * * * * * * * * * * * * * * * * * * * * * * * * * * * * * * * * //

dimensions      [0 3 0 0 0 0 0];


value           nonuniform List<scalar> 
16422
(
4.26926e-05
4.24758e-05
4.24287e-05
4.24586e-05
4.248e-05
4.24941e-05
4.25011e-05
4.25054e-05
4.25068e-05
4.25071e-05
4.25108e-05
4.25105e-05
4.25076e-05
4.25079e-05
4.25073e-05
4.25907e-05
4.25629e-05
4.25033e-05
4.24929e-05
4.24975e-05
4.25055e-05
4.25108e-05
4.25122e-05
4.25116e-05
4.25103e-05
4.25122e-05
4.25085e-05
4.25076e-05
4.25083e-05
4.25067e-05
4.25841e-05
4.25752e-05
4.25471e-05
4.2528e-05
4.25212e-05
4.25204e-05
4.252e-05
4.25184e-05
4.25159e-05
4.2515e-05
4.2514e-05
4.25102e-05
4.25093e-05
4.25094e-05
4.25067e-05
4.26998e-05
4.24821e-05
4.24365e-05
4.24628e-05
4.248e-05
4.24915e-05
4.24995e-05
4.25037e-05
4.25063e-05
4.25083e-05
4.25103e-05
4.25096e-05
4.25085e-05
4.25083e-05
4.25094e-05
4.25921e-05
4.25646e-05
4.25075e-05
4.24953e-05
4.24982e-05
4.25044e-05
4.25086e-05
4.25097e-05
4.25108e-05
4.25108e-05
4.25108e-05
4.25096e-05
4.25099e-05
4.25072e-05
4.25071e-05
4.25845e-05
4.25753e-05
4.25475e-05
4.25284e-05
4.25208e-05
4.25194e-05
4.25188e-05
4.25169e-05
4.25152e-05
4.25147e-05
4.25132e-05
4.2511e-05
4.251e-05
4.2509e-05
4.25074e-05
4.27023e-05
4.24828e-05
4.24497e-05
4.24723e-05
4.24853e-05
4.24941e-05
4.24988e-05
4.25018e-05
4.25058e-05
4.25088e-05
4.25107e-05
4.25105e-05
4.25113e-05
4.25113e-05
4.25086e-05
4.2598e-05
4.25702e-05
4.25152e-05
4.25029e-05
4.25023e-05
4.25058e-05
4.25082e-05
4.25084e-05
4.25094e-05
4.25107e-05
4.25118e-05
4.25106e-05
4.25104e-05
4.25091e-05
4.2508e-05
4.25832e-05
4.25751e-05
4.25494e-05
4.25314e-05
4.25225e-05
4.25192e-05
4.25173e-05
4.25147e-05
4.2514e-05
4.25148e-05
4.25139e-05
4.25112e-05
4.25099e-05
4.25094e-05
4.25085e-05
5.32455e-06
4.24411e-05
5.32508e-06
4.24442e-05
5.32495e-06
4.24466e-05
5.32443e-06
4.24387e-05
5.32404e-06
4.24351e-05
3.36877e-08
3.25176e-08
4.23592e-05
4.23948e-05
4.23613e-05
4.24003e-05
4.25956e-05
4.26031e-05
4.25921e-05
4.27006e-05
4.26026e-05
4.26045e-05
4.25937e-05
3.36847e-08
3.36836e-08
4.23642e-05
4.24042e-05
4.23603e-05
4.24135e-05
4.26057e-05
4.26053e-05
4.25953e-05
4.27018e-05
4.26048e-05
4.26101e-05
4.26002e-05
3.36852e-08
3.36853e-08
4.23576e-05
4.24152e-05
4.26028e-05
4.26122e-05
4.26004e-05
6.80598e-08
4.19998e-05
4.20073e-05
7.86186e-08
3.37504e-08
5.3802e-06
5.32552e-06
5.3813e-06
3.25078e-08
6.82398e-08
4.19411e-05
4.31669e-05
4.24454e-05
4.19492e-05
4.31729e-05
7.89098e-08
3.36875e-08
3.3683e-08
6.80601e-08
4.19563e-05
4.19769e-05
6.80549e-08
3.37505e-08
5.32526e-06
5.38168e-06
5.3814e-06
3.37507e-08
6.82399e-08
4.24442e-05
4.19343e-05
4.31693e-05
4.19403e-05
4.31692e-05
6.82484e-08
6.8057e-08
6.80553e-08
3.37506e-08
5.3819e-06
5.3247e-06
3.37512e-08
5.38185e-06
6.82401e-08
4.1935e-05
4.31725e-05
4.24473e-05
6.8249e-08
4.19345e-05
4.31737e-05
3.36848e-08
3.36852e-08
6.80578e-08
6.80555e-08
3.37504e-08
5.3246e-06
5.38132e-06
5.38169e-06
3.37506e-08
6.82385e-08
4.24436e-05
4.19183e-05
4.31648e-05
4.19268e-05
4.31694e-05
6.82334e-08
6.80389e-08
6.80545e-08
3.37497e-08
5.38063e-06
5.32495e-06
3.37505e-08
5.381e-06
6.82078e-08
4.19135e-05
4.31601e-05
4.24318e-05
6.82313e-08
4.19075e-05
4.3158e-05
3.36848e-08
6.80375e-08
3.37493e-08
5.32549e-06
5.38094e-06
6.82074e-08
4.2433e-05
4.19031e-05
4.31627e-05
3.37061e-08
3.37167e-08
3.36836e-08
3.36835e-08
3.36851e-08
3.36853e-08
5.16788e-06
6.80978e-08
5.17419e-06
6.81152e-08
5.1648e-06
5.17818e-06
6.69003e-07
5.56385e-06
3.37511e-08
5.565e-06
6.68862e-07
6.64291e-07
6.72566e-07
6.72822e-07
6.6364e-07
6.64195e-07
6.72506e-07
6.72672e-07
6.64043e-07
6.69087e-07
3.37528e-08
5.55592e-06
5.56689e-06
6.68501e-07
5.30536e-06
5.16403e-06
5.51237e-06
6.82407e-08
5.16664e-06
5.51397e-06
5.3044e-06
5.30514e-06
6.82466e-08
5.15569e-06
5.52117e-06
5.1675e-06
5.51785e-06
5.30152e-06
3.36849e-08
3.36849e-08
5.16482e-06
6.80549e-08
5.16229e-06
6.8056e-08
5.16065e-06
5.16161e-06
6.68833e-07
5.56355e-06
3.37504e-08
6.68857e-07
5.56345e-06
6.64024e-07
6.72478e-07
6.72466e-07
6.64063e-07
6.64008e-07
6.72495e-07
6.72469e-07
6.64034e-07
6.68847e-07
3.37501e-08
5.56373e-06
5.56354e-06
6.6889e-07
5.30346e-06
5.16291e-06
5.51198e-06
6.8243e-08
5.30381e-06
5.16198e-06
5.51207e-06
5.30366e-06
6.82432e-08
5.16155e-06
5.51252e-06
5.162e-06
5.51231e-06
5.30367e-06
6.8053e-08
5.16099e-06
5.16141e-06
6.80539e-08
5.16109e-06
5.16095e-06
6.68864e-07
3.37514e-08
5.56379e-06
5.56392e-06
6.68851e-07
6.64008e-07
6.72473e-07
6.64057e-07
6.72454e-07
6.68878e-07
3.37513e-08
5.56407e-06
6.68894e-07
5.56397e-06
6.63976e-07
6.72446e-07
6.72444e-07
6.63991e-07
5.30431e-06
6.82477e-08
5.16204e-06
5.51294e-06
5.16239e-06
5.5131e-06
5.30412e-06
5.30409e-06
6.82478e-08
5.16208e-06
5.51287e-06
5.30394e-06
5.16207e-06
5.51303e-06
3.36848e-08
3.36847e-08
5.16058e-06
6.80568e-08
5.15954e-06
6.80554e-08
5.15923e-06
5.1594e-06
6.68838e-07
5.56357e-06
3.37502e-08
6.68836e-07
5.56322e-06
6.63965e-07
6.72427e-07
6.72426e-07
6.63973e-07
6.6399e-07
6.72447e-07
6.72446e-07
6.63975e-07
6.68821e-07
3.37503e-08
5.56274e-06
5.56299e-06
6.68809e-07
5.30295e-06
5.16158e-06
5.51248e-06
6.82342e-08
5.30363e-06
5.1607e-06
5.51196e-06
5.30245e-06
6.82339e-08
5.16021e-06
5.51147e-06
5.16042e-06
5.51155e-06
5.30234e-06
6.80454e-08
5.15764e-06
5.15839e-06
6.80471e-08
5.15915e-06
5.15889e-06
6.68696e-07
3.375e-08
5.56209e-06
5.5621e-06
6.68801e-07
6.6388e-07
6.72413e-07
6.63925e-07
6.72417e-07
6.68734e-07
3.37501e-08
5.56259e-06
6.68765e-07
5.56236e-06
6.63848e-07
6.72436e-07
6.72395e-07
6.63954e-07
5.30124e-06
6.82169e-08
5.15843e-06
5.50988e-06
5.15912e-06
5.51023e-06
5.30102e-06
5.30196e-06
6.82193e-08
5.16006e-06
5.51118e-06
5.30195e-06
5.15978e-06
5.51086e-06
3.36848e-08
3.36852e-08
5.15673e-06
6.80273e-08
5.157e-06
6.8026e-08
5.15698e-06
6.68923e-07
5.5622e-06
3.37493e-08
6.68793e-07
5.56267e-06
6.64048e-07
6.72536e-07
6.64062e-07
6.7243e-07
6.72557e-07
6.63944e-07
6.689e-07
3.37497e-08
5.56342e-06
5.30094e-06
5.15746e-06
5.50952e-06
6.81994e-08
5.30023e-06
5.15763e-06
5.50964e-06
5.30055e-06
6.8198e-08
5.15739e-06
5.50985e-06
6.79793e-07
7.43421e-07
3.36913e-08
7.44275e-07
6.79282e-07
8.04276e-08
7.63744e-08
7.62677e-08
7.58487e-07
3.39743e-08
7.54403e-07
7.65453e-07
4.88371e-08
6.78561e-07
3.36841e-08
7.42758e-07
7.42771e-07
6.78558e-07
7.62433e-08
7.62485e-08
6.78562e-07
3.36834e-08
7.42827e-07
6.7859e-07
7.42756e-07
7.62449e-08
7.62452e-08
6.78593e-07
3.36855e-08
7.42701e-07
7.42695e-07
6.78597e-07
7.62489e-08
7.625e-08
6.78587e-07
3.3685e-08
7.42793e-07
6.78588e-07
7.42785e-07
7.62488e-08
7.62517e-08
6.62381e-07
7.20218e-07
6.23875e-07
6.80678e-08
7.21054e-07
6.24244e-07
6.61612e-07
6.66125e-07
6.98211e-08
7.33868e-07
6.22377e-07
7.36431e-07
6.26319e-07
6.64076e-07
6.78085e-07
7.41784e-07
3.37498e-08
7.41807e-07
6.78068e-07
7.63466e-08
7.59645e-08
7.62441e-08
7.62447e-08
6.78491e-07
3.38412e-08
7.40667e-07
7.44298e-07
6.74278e-07
6.61385e-07
6.24218e-07
7.19626e-07
6.82379e-08
6.24448e-07
7.19663e-07
6.61242e-07
6.6213e-07
6.94413e-08
6.20704e-07
7.28642e-07
6.24208e-07
7.25039e-07
6.61406e-07
6.78879e-07
7.43462e-07
3.36864e-08
6.7908e-07
7.43035e-07
7.62491e-08
7.62445e-08
7.62522e-08
7.62912e-08
6.78615e-07
3.36844e-08
7.42756e-07
6.78579e-07
7.4285e-07
6.61301e-07
7.20292e-07
6.23849e-07
6.80568e-08
6.61698e-07
7.19852e-07
6.23793e-07
6.6115e-07
6.80557e-08
7.19589e-07
6.23656e-07
7.19676e-07
6.23765e-07
6.61019e-07
6.78065e-07
7.41793e-07
3.37503e-08
6.7807e-07
7.41786e-07
7.62429e-08
7.62424e-08
7.62421e-08
7.62442e-08
6.78089e-07
3.37509e-08
7.41869e-07
7.41855e-07
6.78092e-07
6.61284e-07
6.24236e-07
7.19642e-07
6.82409e-08
6.61266e-07
6.24257e-07
7.1966e-07
6.61405e-07
6.82455e-08
6.24263e-07
7.19813e-07
6.2436e-07
7.19788e-07
6.61365e-07
6.61182e-07
6.80537e-08
7.19589e-07
6.23717e-07
7.19627e-07
6.23851e-07
6.61044e-07
6.61093e-07
6.8055e-08
7.19664e-07
6.23729e-07
7.19632e-07
6.6111e-07
6.23785e-07
6.78083e-07
3.3751e-08
7.41843e-07
7.41851e-07
6.78084e-07
7.62429e-08
7.62441e-08
6.78096e-07
3.37512e-08
7.41897e-07
6.78104e-07
7.4187e-07
7.62423e-08
7.62439e-08
6.61481e-07
6.82424e-08
6.24297e-07
7.19777e-07
6.24436e-07
7.19819e-07
6.61372e-07
6.61436e-07
6.82488e-08
6.24332e-07
7.19834e-07
6.61389e-07
6.24401e-07
7.19855e-07
6.7857e-07
7.42787e-07
3.36849e-08
6.7857e-07
7.42761e-07
7.62469e-08
7.62495e-08
7.62427e-08
7.62447e-08
6.78576e-07
3.36846e-08
7.42795e-07
6.78585e-07
7.42777e-07
6.61021e-07
7.19605e-07
6.23726e-07
6.80581e-08
6.61066e-07
7.19576e-07
6.2376e-07
6.61022e-07
6.80538e-08
7.19608e-07
6.2369e-07
7.19588e-07
6.23752e-07
6.61001e-07
6.78079e-07
7.41825e-07
3.37502e-08
6.78083e-07
7.418e-07
7.62427e-08
7.62452e-08
7.6243e-08
7.62439e-08
6.78069e-07
3.37506e-08
7.41792e-07
7.41779e-07
6.78072e-07
6.61336e-07
6.24286e-07
7.19741e-07
6.82349e-08
6.61346e-07
6.24319e-07
7.19711e-07
6.61252e-07
6.82339e-08
6.24241e-07
7.19671e-07
6.24309e-07
7.1966e-07
6.61226e-07
6.60774e-07
6.80402e-08
7.19304e-07
6.23362e-07
7.19338e-07
6.23511e-07
6.60665e-07
6.61013e-07
6.80518e-08
7.1959e-07
6.23684e-07
7.19587e-07
6.60978e-07
6.2375e-07
6.78048e-07
3.37497e-08
7.41657e-07
7.41642e-07
6.78059e-07
7.62442e-08
7.62452e-08
6.78062e-07
3.37504e-08
7.41774e-07
6.78066e-07
7.41753e-07
7.6246e-08
7.62481e-08
6.60997e-07
6.82106e-08
6.23912e-07
7.19329e-07
6.2404e-07
7.1935e-07
6.60908e-07
6.61227e-07
6.82263e-08
6.2423e-07
7.1963e-07
6.6119e-07
6.24283e-07
7.19612e-07
6.78602e-07
7.42672e-07
3.36852e-08
6.78587e-07
7.42697e-07
7.62493e-08
7.62499e-08
6.60703e-07
7.19283e-07
6.233e-07
6.8035e-08
6.60616e-07
7.19311e-07
6.23425e-07
6.78066e-07
7.41637e-07
3.375e-08
6.78056e-07
7.4166e-07
7.62485e-08
7.62479e-08
6.60932e-07
6.23858e-07
7.193e-07
6.82071e-08
6.60848e-07
6.23977e-07
7.1933e-07
6.25947e-07
8.52871e-08
8.54181e-08
6.2545e-07
6.80603e-07
3.36919e-08
7.46958e-07
6.82796e-07
7.4458e-07
6.26868e-07
8.59823e-08
8.538e-08
6.29145e-07
8.07187e-08
7.75406e-08
8.47368e-08
9.0217e-08
8.30564e-08
8.62173e-08
7.89138e-08
9.00095e-08
7.78155e-08
8.51847e-08
8.53063e-08
7.76997e-08
7.63384e-08
7.70999e-08
7.77798e-08
8.59012e-08
8.52694e-08
7.85218e-08
7.08356e-07
3.38863e-08
7.50115e-07
6.88721e-07
7.60295e-07
7.12e-07
8.9098e-08
6.51693e-07
8.62201e-08
6.35277e-07
8.91245e-08
6.78545e-07
3.36837e-08
7.4278e-07
6.78555e-07
7.42739e-07
6.24686e-07
8.52397e-08
8.52405e-08
6.24682e-07
6.24678e-07
8.5242e-08
6.24682e-07
8.52401e-08
7.76667e-08
8.51525e-08
8.51489e-08
7.76727e-08
7.62455e-08
7.62468e-08
7.76684e-08
8.51493e-08
8.51517e-08
7.76701e-08
6.78568e-07
3.36837e-08
7.42738e-07
6.78554e-07
7.42792e-07
6.24703e-07
8.52448e-08
8.52407e-08
6.2472e-07
6.24701e-07
8.52375e-08
6.24691e-07
8.52423e-08
7.76684e-08
8.51487e-08
8.51489e-08
7.76688e-08
7.62447e-08
7.62472e-08
7.76668e-08
8.51523e-08
8.51482e-08
7.76705e-08
6.78596e-07
3.36853e-08
7.42726e-07
6.78585e-07
7.42719e-07
6.24705e-07
8.52463e-08
8.52439e-08
6.24704e-07
6.24706e-07
8.52432e-08
6.24702e-07
8.52455e-08
7.76703e-08
8.51538e-08
8.51529e-08
7.76728e-08
7.6248e-08
7.62497e-08
7.76693e-08
8.51516e-08
8.51515e-08
7.76721e-08
6.78586e-07
3.3685e-08
7.42756e-07
6.78593e-07
7.4276e-07
6.24706e-07
8.52433e-08
8.52438e-08
6.24706e-07
6.24707e-07
8.52442e-08
6.24706e-07
8.52429e-08
7.76701e-08
8.51514e-08
8.51511e-08
7.76738e-08
7.62498e-08
7.62493e-08
7.76713e-08
8.51504e-08
8.51525e-08
7.76715e-08
6.62481e-07
6.80688e-08
7.23102e-07
6.25114e-07
7.21195e-07
6.63784e-07
6.24482e-07
6.66403e-07
6.84382e-08
7.24668e-07
6.26131e-07
7.30189e-07
6.6445e-07
6.27853e-07
6.24586e-07
8.52373e-08
8.52394e-08
6.24573e-07
6.7811e-07
3.3749e-08
7.41964e-07
6.78186e-07
7.41835e-07
6.24612e-07
8.52477e-08
8.52397e-08
6.24677e-07
7.63015e-08
7.62553e-08
7.77547e-08
8.52608e-08
8.52742e-08
7.72107e-08
7.77183e-08
8.51615e-08
7.76781e-08
8.52215e-08
7.76655e-08
8.51447e-08
8.51473e-08
7.76673e-08
7.62451e-08
7.62513e-08
7.7666e-08
8.51556e-08
8.51471e-08
7.76737e-08
6.78671e-07
3.37913e-08
7.42278e-07
6.78359e-07
7.43102e-07
6.25436e-07
8.55489e-08
8.53722e-08
6.22484e-07
6.25128e-07
8.52538e-08
6.24821e-07
8.53163e-08
6.61454e-07
6.8237e-08
6.24903e-07
7.19888e-07
6.24566e-07
7.19709e-07
6.61666e-07
6.62469e-07
6.84851e-08
6.25595e-07
7.20368e-07
6.26608e-07
7.21754e-07
6.62047e-07
6.25021e-07
8.53122e-08
6.25202e-07
8.52606e-08
6.7881e-07
3.3686e-08
7.42866e-07
6.78706e-07
7.4311e-07
6.24926e-07
8.52496e-08
8.52744e-08
6.24838e-07
7.62442e-08
7.62558e-08
7.76733e-08
8.51492e-08
7.76687e-08
8.51553e-08
7.7668e-08
8.51631e-08
7.76813e-08
8.51494e-08
7.76791e-08
8.52101e-08
7.77233e-08
8.51635e-08
7.62641e-08
7.62474e-08
7.76909e-08
8.51547e-08
8.51775e-08
7.76737e-08
6.78618e-07
3.36851e-08
7.42946e-07
6.78682e-07
7.42781e-07
6.24741e-07
8.52423e-08
6.24715e-07
8.52489e-08
6.24751e-07
8.5258e-08
6.24801e-07
8.52431e-08
6.61409e-07
6.80571e-08
7.19671e-07
6.23621e-07
7.1994e-07
6.61082e-07
6.23809e-07
6.61023e-07
6.8055e-08
7.19772e-07
6.23689e-07
7.19584e-07
6.61207e-07
6.23708e-07
6.24566e-07
8.52374e-08
6.24572e-07
8.52363e-08
6.7807e-07
3.37504e-08
7.41802e-07
6.78068e-07
7.41803e-07
6.24568e-07
8.5236e-08
8.52368e-08
6.24568e-07
7.62427e-08
7.6242e-08
7.76648e-08
8.51449e-08
8.51462e-08
7.76653e-08
7.76646e-08
8.51432e-08
7.7665e-08
8.51456e-08
7.76634e-08
8.51454e-08
7.76668e-08
8.51447e-08
7.62422e-08
7.62436e-08
7.76641e-08
8.5145e-08
8.51449e-08
7.76662e-08
6.78074e-07
3.37507e-08
7.41826e-07
6.78073e-07
7.41822e-07
6.2459e-07
8.52374e-08
8.5239e-08
6.24585e-07
6.2458e-07
8.52353e-08
6.24571e-07
8.52382e-08
6.61345e-07
6.82412e-08
6.2415e-07
7.19677e-07
6.24298e-07
7.19687e-07
6.61262e-07
6.6133e-07
6.82438e-08
6.24227e-07
7.19716e-07
6.24289e-07
7.19734e-07
6.61316e-07
6.61139e-07
6.80528e-08
7.19633e-07
6.23732e-07
7.19596e-07
6.61132e-07
6.23821e-07
6.61203e-07
6.80553e-08
7.19588e-07
6.23669e-07
7.1967e-07
6.61053e-07
6.23835e-07
6.78089e-07
3.3751e-08
7.41878e-07
6.78099e-07
7.41858e-07
6.24568e-07
8.52377e-08
8.52377e-08
6.24569e-07
6.24574e-07
8.5237e-08
6.24579e-07
8.52378e-08
7.76649e-08
8.51464e-08
7.76674e-08
8.51454e-08
7.62426e-08
7.62435e-08
7.76646e-08
8.51443e-08
8.51452e-08
7.76664e-08
6.78101e-07
3.37512e-08
7.41862e-07
6.7809e-07
7.41876e-07
6.24585e-07
8.52392e-08
6.24591e-07
8.52391e-08
6.24585e-07
8.52385e-08
6.24575e-07
8.52391e-08
7.76641e-08
8.51445e-08
8.51441e-08
7.76668e-08
7.62423e-08
7.62434e-08
7.76642e-08
8.51432e-08
8.5144e-08
7.76666e-08
6.61474e-07
6.82425e-08
6.24318e-07
7.19814e-07
6.24424e-07
7.19829e-07
6.61405e-07
6.61493e-07
6.82475e-08
6.2426e-07
7.19802e-07
6.24437e-07
7.19858e-07
6.61375e-07
6.24689e-07
8.52406e-08
6.24686e-07
8.52402e-08
6.78577e-07
3.36847e-08
7.42767e-07
6.78575e-07
7.42775e-07
6.247e-07
8.52431e-08
8.5241e-08
6.24697e-07
7.62466e-08
7.62474e-08
7.76686e-08
8.51532e-08
7.76721e-08
8.51518e-08
7.7669e-08
8.51515e-08
7.76708e-08
8.51514e-08
7.76653e-08
8.51484e-08
7.76682e-08
8.51491e-08
7.62439e-08
7.62468e-08
7.76669e-08
8.51519e-08
8.51495e-08
7.767e-08
6.78569e-07
3.36841e-08
7.42767e-07
6.78578e-07
7.42753e-07
6.24704e-07
8.5243e-08
6.24703e-07
8.52425e-08
6.24698e-07
8.5242e-08
6.24704e-07
8.52421e-08
6.61027e-07
6.80572e-08
7.19531e-07
6.23597e-07
7.19578e-07
6.60909e-07
6.23757e-07
6.6098e-07
6.80525e-08
7.19534e-07
6.23605e-07
7.19545e-07
6.60933e-07
6.23717e-07
6.24565e-07
8.52372e-08
6.24568e-07
8.52376e-08
6.7807e-07
3.37494e-08
7.41784e-07
6.78072e-07
7.41782e-07
6.24561e-07
8.52381e-08
8.52366e-08
6.24561e-07
7.62428e-08
7.62443e-08
7.7664e-08
8.51455e-08
8.5144e-08
7.76674e-08
7.76641e-08
8.51446e-08
7.76673e-08
8.51441e-08
7.7665e-08
8.51441e-08
7.76673e-08
8.51445e-08
7.62413e-08
7.62445e-08
7.76631e-08
8.51453e-08
8.51431e-08
7.7667e-08
6.78063e-07
3.37497e-08
7.41777e-07
6.78069e-07
7.41774e-07
6.24563e-07
8.52382e-08
8.52368e-08
6.24561e-07
6.24558e-07
8.52375e-08
6.24563e-07
8.5237e-08
6.61313e-07
6.82334e-08
6.24159e-07
7.19641e-07
6.24312e-07
7.1968e-07
6.61203e-07
6.61246e-07
6.82318e-08
6.24163e-07
7.1962e-07
6.24275e-07
7.19646e-07
6.61185e-07
6.60849e-07
6.8041e-08
7.19415e-07
6.23505e-07
7.19387e-07
6.60827e-07
6.23567e-07
6.60976e-07
6.80504e-08
7.19483e-07
6.23561e-07
7.19533e-07
6.60889e-07
6.23708e-07
6.78051e-07
3.37498e-08
7.4168e-07
6.78051e-07
7.41671e-07
6.24546e-07
8.52404e-08
8.52381e-08
6.24552e-07
6.24545e-07
8.52368e-08
6.24544e-07
8.52382e-08
7.76645e-08
8.51447e-08
7.76676e-08
8.51446e-08
7.62439e-08
7.62467e-08
7.76645e-08
8.51436e-08
8.51428e-08
7.76679e-08
6.78059e-07
3.37503e-08
7.41719e-07
6.7806e-07
7.41723e-07
6.24548e-07
8.52373e-08
6.24556e-07
8.5237e-08
6.24547e-07
8.52369e-08
6.24548e-07
8.52357e-08
7.76661e-08
8.51455e-08
8.5144e-08
7.7669e-08
7.62466e-08
7.62466e-08
7.76657e-08
8.51436e-08
8.51447e-08
7.76682e-08
6.61067e-07
6.82121e-08
6.24039e-07
7.19428e-07
6.24094e-07
7.19401e-07
6.61034e-07
6.61183e-07
6.82245e-08
6.24098e-07
7.19506e-07
6.24237e-07
7.19547e-07
6.61101e-07
6.24699e-07
8.5244e-08
6.24697e-07
8.52442e-08
6.786e-07
3.36853e-08
7.42689e-07
6.78619e-07
7.42662e-07
6.24698e-07
8.5247e-08
8.52427e-08
6.24716e-07
7.62545e-08
7.62502e-08
7.76738e-08
8.51486e-08
7.7671e-08
8.51563e-08
7.76712e-08
8.51491e-08
7.76721e-08
8.51492e-08
7.62484e-08
7.62518e-08
7.76687e-08
8.51511e-08
8.51479e-08
7.76735e-08
6.78638e-07
7.42649e-07
6.78612e-07
7.42711e-07
6.24741e-07
8.52469e-08
6.24719e-07
8.52545e-08
6.60642e-07
6.80332e-08
7.19251e-07
6.23299e-07
7.19261e-07
6.60636e-07
6.23382e-07
6.6072e-07
7.19189e-07
6.23242e-07
7.19236e-07
6.60575e-07
6.23397e-07
6.24558e-07
8.52397e-08
6.24551e-07
8.52414e-08
6.78067e-07
3.375e-08
7.41658e-07
6.78076e-07
7.41635e-07
6.24558e-07
8.52433e-08
8.52401e-08
6.24568e-07
7.62537e-08
7.625e-08
7.76724e-08
8.51454e-08
7.76703e-08
7.76679e-08
8.51438e-08
7.76696e-08
8.51459e-08
7.62477e-08
7.62511e-08
7.76683e-08
8.51471e-08
8.5145e-08
7.76721e-08
6.78094e-07
7.41611e-07
6.78074e-07
7.41658e-07
6.24596e-07
8.52412e-08
6.24575e-07
6.60853e-07
6.82055e-08
6.23858e-07
7.1927e-07
6.23932e-07
7.19275e-07
6.60846e-07
6.60892e-07
6.23788e-07
7.19187e-07
6.23925e-07
7.1922e-07
6.60765e-07
4.28889e-05
4.26995e-05
4.28962e-05
4.2744e-05
4.26536e-05
4.26565e-05
4.27411e-05
4.29013e-05
4.26996e-05
4.29019e-05
4.27498e-05
4.26597e-05
4.27489e-05
4.26604e-05
4.29023e-05
4.27095e-05
4.29059e-05
4.27558e-05
4.26655e-05
4.27527e-05
4.26716e-05
5.3204e-06
5.34009e-06
5.33794e-06
5.32571e-06
5.33865e-06
5.34342e-06
5.31746e-06
5.31894e-06
5.3251e-06
5.34127e-06
5.33844e-06
5.33832e-06
5.34127e-06
5.319e-06
5.31871e-06
5.34116e-06
5.33837e-06
5.32481e-06
5.33828e-06
5.31892e-06
5.34098e-06
5.31827e-06
5.32447e-06
5.34041e-06
5.33771e-06
5.33787e-06
5.34056e-06
5.31803e-06
5.31763e-06
5.34026e-06
5.33714e-06
5.32419e-06
5.33714e-06
5.31769e-06
5.34024e-06
5.3227e-06
5.3296e-06
5.34218e-06
5.3454e-06
8.75322e-08
1.10082e-07
3.36877e-08
1.10088e-07
8.75262e-08
9.03081e-08
3.40538e-08
1.09349e-07
1.12076e-07
1.02259e-07
4.27007e-05
4.28999e-05
4.28987e-05
4.2746e-05
4.26591e-05
4.26583e-05
4.27475e-05
8.75179e-08
3.36834e-08
1.10073e-07
1.10063e-07
8.75207e-08
8.75152e-08
3.36825e-08
1.10075e-07
8.75212e-08
1.10059e-07
4.27006e-05
4.29034e-05
4.29022e-05
4.27508e-05
4.26632e-05
4.26616e-05
4.27518e-05
8.75196e-08
3.36842e-08
1.1007e-07
1.10059e-07
8.7523e-08
8.75187e-08
3.36841e-08
1.10075e-07
8.75223e-08
1.10064e-07
4.27299e-05
4.29202e-05
4.27637e-05
4.26837e-05
8.2771e-08
9.80615e-08
9.70192e-08
6.8061e-08
9.80645e-08
9.70486e-08
8.27376e-08
8.39324e-08
7.48913e-08
1.03687e-07
9.81298e-08
1.02767e-07
9.70556e-08
8.38513e-08
8.73581e-08
1.10034e-07
3.37486e-08
1.10027e-07
8.73594e-08
5.32021e-06
5.32578e-06
5.34201e-06
5.33857e-06
5.33874e-06
5.34287e-06
5.3195e-06
8.74538e-08
3.37319e-08
1.09762e-07
1.10635e-07
8.80491e-08
8.28518e-08
9.72486e-08
9.80176e-08
6.82378e-08
9.72742e-08
9.80054e-08
8.28383e-08
8.35155e-08
7.50543e-08
9.82665e-08
1.03172e-07
9.71566e-08
1.02064e-07
8.35362e-08
8.7522e-08
1.10098e-07
3.36854e-08
8.75319e-08
1.1007e-07
8.75181e-08
3.36825e-08
1.10067e-07
8.75168e-08
1.10064e-07
8.27381e-08
9.80774e-08
9.70266e-08
6.80566e-08
8.27529e-08
9.80431e-08
9.70376e-08
8.27382e-08
6.80537e-08
9.80482e-08
9.70306e-08
9.80366e-08
9.70531e-08
8.27241e-08
8.73577e-08
1.10035e-07
3.37485e-08
8.73599e-08
1.10027e-07
5.31888e-06
5.32513e-06
5.34151e-06
5.33839e-06
5.33831e-06
5.34129e-06
5.31905e-06
8.73596e-08
3.37497e-08
1.10042e-07
1.10033e-07
8.73608e-08
8.2849e-08
9.7254e-08
9.80199e-08
6.82384e-08
8.28434e-08
9.72674e-08
9.80066e-08
8.28787e-08
6.82467e-08
9.72701e-08
9.8038e-08
9.72932e-08
9.80233e-08
8.28675e-08
8.27371e-08
6.80548e-08
9.80478e-08
9.70247e-08
9.80341e-08
9.70465e-08
8.27252e-08
8.27303e-08
6.80541e-08
9.80528e-08
9.70387e-08
9.80329e-08
8.27325e-08
9.70495e-08
8.73598e-08
3.37496e-08
1.1004e-07
1.10032e-07
8.73622e-08
5.3185e-06
5.32463e-06
5.3408e-06
5.33815e-06
5.33808e-06
5.34082e-06
5.3185e-06
8.73596e-08
3.37501e-08
1.10045e-07
8.7363e-08
1.10034e-07
8.28726e-08
6.82402e-08
9.72579e-08
9.80273e-08
9.7281e-08
9.80164e-08
8.2857e-08
8.28755e-08
6.82484e-08
9.7278e-08
9.80398e-08
8.28707e-08
9.72918e-08
9.80251e-08
8.75184e-08
1.10073e-07
3.36837e-08
8.75207e-08
1.10064e-07
8.75192e-08
3.36839e-08
1.10074e-07
8.75219e-08
1.10065e-07
8.27327e-08
9.80479e-08
9.70251e-08
6.80567e-08
8.27266e-08
9.80344e-08
9.70426e-08
8.27327e-08
6.80539e-08
9.80408e-08
9.70153e-08
9.80278e-08
9.70353e-08
8.27233e-08
8.73594e-08
1.10039e-07
3.37492e-08
8.7362e-08
1.10029e-07
5.31843e-06
5.32467e-06
5.34082e-06
5.33803e-06
5.3381e-06
5.34073e-06
5.31847e-06
8.73603e-08
3.37494e-08
1.10039e-07
1.1003e-07
8.73629e-08
8.28621e-08
9.7257e-08
9.80248e-08
6.82359e-08
8.28562e-08
9.72712e-08
9.80098e-08
8.28589e-08
6.82329e-08
9.72442e-08
9.80161e-08
9.72661e-08
9.80041e-08
8.28487e-08
8.26809e-08
6.80382e-08
9.8004e-08
9.69411e-08
9.799e-08
9.69633e-08
8.26698e-08
8.27252e-08
6.8052e-08
9.80402e-08
9.70132e-08
9.80223e-08
8.27213e-08
9.70248e-08
8.73598e-08
3.37486e-08
1.1003e-07
1.10018e-07
8.73628e-08
5.31761e-06
5.3241e-06
5.34082e-06
5.33781e-06
5.33698e-06
5.34031e-06
5.3182e-06
8.73604e-08
3.37493e-08
1.10038e-07
8.7363e-08
1.10028e-07
8.28009e-08
6.82071e-08
9.71666e-08
9.79706e-08
9.71865e-08
9.79548e-08
8.27931e-08
8.28502e-08
6.82283e-08
9.7241e-08
9.80125e-08
8.28454e-08
9.72539e-08
9.79968e-08
8.75197e-08
1.10067e-07
3.3684e-08
8.75214e-08
1.10059e-07
8.26804e-08
9.80019e-08
9.69367e-08
6.80357e-08
8.26683e-08
9.7989e-08
9.69596e-08
8.73606e-08
1.10027e-07
3.37485e-08
8.73616e-08
1.1002e-07
5.32042e-06
5.3276e-06
5.34164e-06
5.33832e-06
5.34035e-06
5.34304e-06
5.319e-06
8.28028e-08
9.71621e-08
9.79675e-08
6.82066e-08
8.27896e-08
9.71851e-08
9.79552e-08
3.56262e-08
3.56246e-08
8.75514e-08
3.3696e-08
1.10244e-07
8.76201e-08
1.10129e-07
3.56473e-08
3.56802e-08
8.78761e-08
3.37437e-08
1.10252e-07
8.76495e-08
1.10472e-07
9.20621e-09
3.59366e-08
3.57592e-08
8.75152e-08
3.36826e-08
1.10071e-07
8.7519e-08
1.10058e-07
3.56225e-08
3.56225e-08
3.56221e-08
3.56222e-08
8.75164e-08
3.3682e-08
1.10067e-07
8.75183e-08
1.10062e-07
3.56218e-08
3.56218e-08
3.56216e-08
3.56221e-08
8.75179e-08
3.36831e-08
1.1007e-07
8.75219e-08
1.10059e-07
3.56229e-08
3.56229e-08
3.56219e-08
3.56227e-08
8.75195e-08
3.36842e-08
1.10072e-07
8.75225e-08
1.10062e-07
3.56224e-08
3.56224e-08
3.56226e-08
3.56226e-08
8.28309e-08
6.80794e-08
9.82219e-08
9.71042e-08
9.8111e-08
8.29218e-08
9.70843e-08
8.31035e-08
6.81605e-08
9.82163e-08
9.71294e-08
9.83773e-08
8.29277e-08
9.72456e-08
3.56192e-08
3.56192e-08
8.73589e-08
3.37489e-08
1.10046e-07
8.73641e-08
1.1003e-07
3.562e-08
3.56203e-08
6.37942e-07
6.67386e-07
6.5712e-07
6.64362e-07
6.57205e-07
6.37621e-07
6.67715e-07
6.53252e-07
6.91942e-07
6.73159e-07
6.63632e-07
6.64746e-07
6.9165e-07
6.50942e-07
6.5287e-07
6.64715e-07
6.73038e-07
6.90252e-07
6.64853e-07
6.90739e-07
6.52468e-07
6.38017e-07
6.64236e-07
6.56147e-07
6.66522e-07
6.5702e-07
6.67878e-07
6.36187e-07
6.37334e-07
6.67185e-07
6.57016e-07
6.64108e-07
6.67081e-07
6.37431e-07
6.56941e-07
6.52117e-07
6.89883e-07
6.72534e-07
6.64424e-07
6.89908e-07
6.64453e-07
6.52097e-07
6.52161e-07
6.64588e-07
6.9004e-07
6.72581e-07
6.89951e-07
6.52265e-07
6.64498e-07
6.37288e-07
6.64066e-07
6.67006e-07
6.56868e-07
6.67029e-07
6.56899e-07
6.37257e-07
8.73754e-08
3.37562e-08
1.10056e-07
8.73683e-08
1.10073e-07
3.59024e-08
3.69284e-08
3.56234e-08
3.56209e-08
8.28583e-08
6.82371e-08
9.72944e-08
9.80304e-08
9.7288e-08
9.80076e-08
8.28706e-08
8.29528e-08
6.82633e-08
9.73121e-08
9.80441e-08
9.7401e-08
9.807e-08
8.28861e-08
3.56233e-08
3.56242e-08
8.75209e-08
3.36843e-08
1.10069e-07
8.75203e-08
1.10067e-07
3.56231e-08
3.56219e-08
8.75177e-08
3.36838e-08
1.10079e-07
8.7522e-08
1.1006e-07
3.56224e-08
3.56219e-08
3.56219e-08
3.5622e-08
8.27379e-08
6.80547e-08
9.80458e-08
9.70168e-08
9.80396e-08
8.27187e-08
9.70409e-08
8.27274e-08
6.80547e-08
9.80566e-08
9.70258e-08
9.80326e-08
8.27305e-08
9.70404e-08
3.56192e-08
3.56193e-08
8.73591e-08
3.37495e-08
1.10035e-07
8.73592e-08
1.10029e-07
3.56196e-08
3.56195e-08
6.37247e-07
6.56852e-07
6.66977e-07
6.64033e-07
6.56863e-07
6.37233e-07
6.66994e-07
6.52074e-07
6.89859e-07
6.7248e-07
6.64408e-07
6.64406e-07
6.89864e-07
6.52077e-07
6.52069e-07
6.64395e-07
6.72473e-07
6.89852e-07
6.64399e-07
6.89862e-07
6.52067e-07
6.37257e-07
6.64052e-07
6.56868e-07
6.67014e-07
6.56872e-07
6.67011e-07
6.37249e-07
6.37237e-07
6.56838e-07
6.64006e-07
6.66974e-07
6.66976e-07
6.56846e-07
6.37231e-07
6.52068e-07
6.89869e-07
6.72481e-07
6.64414e-07
6.89862e-07
6.52082e-07
6.64399e-07
6.52065e-07
6.64388e-07
6.72475e-07
6.8986e-07
6.89859e-07
6.64395e-07
6.52071e-07
6.37241e-07
6.64008e-07
6.66994e-07
6.56858e-07
6.37245e-07
6.66982e-07
6.56847e-07
8.73586e-08
3.37495e-08
1.10038e-07
8.73597e-08
1.10029e-07
3.56199e-08
3.56191e-08
3.56196e-08
3.56188e-08
8.28596e-08
6.82412e-08
9.72523e-08
9.80253e-08
9.72745e-08
9.80118e-08
8.28487e-08
8.28593e-08
6.82433e-08
9.72608e-08
9.8027e-08
9.72776e-08
9.8013e-08
8.28529e-08
8.27315e-08
6.80522e-08
9.80477e-08
9.70325e-08
9.80303e-08
8.27276e-08
9.7047e-08
8.27371e-08
6.80526e-08
9.80447e-08
9.70266e-08
9.80348e-08
8.27221e-08
9.70506e-08
8.73601e-08
3.37501e-08
1.10044e-07
8.73631e-08
1.10034e-07
3.56206e-08
3.56206e-08
3.56202e-08
3.56203e-08
6.37233e-07
6.66967e-07
6.64029e-07
6.5681e-07
6.5684e-07
6.66989e-07
6.37208e-07
6.5207e-07
6.89865e-07
6.64403e-07
6.72472e-07
6.64393e-07
6.52084e-07
6.89862e-07
6.37243e-07
6.64031e-07
6.56865e-07
6.67009e-07
6.56855e-07
6.37249e-07
6.66995e-07
6.52063e-07
6.64362e-07
6.72466e-07
6.89847e-07
6.64381e-07
6.89859e-07
6.52057e-07
8.73589e-08
3.37495e-08
1.10042e-07
8.73625e-08
1.10034e-07
3.56199e-08
3.562e-08
3.56194e-08
3.56202e-08
6.37212e-07
6.66954e-07
6.56793e-07
6.63969e-07
6.66953e-07
6.37207e-07
6.56796e-07
6.52045e-07
6.89842e-07
6.72442e-07
6.6436e-07
6.89841e-07
6.64346e-07
6.52057e-07
6.52048e-07
6.6435e-07
6.89849e-07
6.72449e-07
6.89846e-07
6.52058e-07
6.64345e-07
6.37213e-07
6.63979e-07
6.66963e-07
6.5681e-07
6.66959e-07
6.56802e-07
6.37217e-07
8.2877e-08
6.82462e-08
9.72714e-08
9.80376e-08
9.7288e-08
9.80225e-08
8.28689e-08
8.28778e-08
6.8246e-08
9.72653e-08
9.80367e-08
9.72909e-08
9.8024e-08
8.28646e-08
3.56226e-08
3.56226e-08
8.75186e-08
3.36839e-08
1.10072e-07
8.75211e-08
1.10065e-07
3.56225e-08
3.56219e-08
8.75186e-08
3.36836e-08
1.10072e-07
8.7521e-08
1.10063e-07
3.56223e-08
3.56223e-08
3.5622e-08
3.5622e-08
8.27285e-08
6.80566e-08
9.8041e-08
9.70133e-08
9.80305e-08
8.27153e-08
9.70373e-08
8.27214e-08
6.80528e-08
9.80392e-08
9.70118e-08
9.80244e-08
8.27143e-08
9.7027e-08
3.56207e-08
3.56207e-08
8.73594e-08
3.37491e-08
1.10037e-07
8.73621e-08
1.10028e-07
3.56211e-08
3.56211e-08
6.37205e-07
6.56785e-07
6.66945e-07
6.63958e-07
6.56793e-07
6.37202e-07
6.66942e-07
6.52039e-07
6.89832e-07
6.72424e-07
6.64341e-07
6.64331e-07
6.89829e-07
6.52051e-07
6.52042e-07
6.64334e-07
6.72433e-07
6.89832e-07
6.64339e-07
6.89833e-07
6.52047e-07
6.37208e-07
6.63953e-07
6.56796e-07
6.66954e-07
6.56785e-07
6.66947e-07
6.37208e-07
6.37216e-07
6.56806e-07
6.63979e-07
6.66958e-07
6.66957e-07
6.56811e-07
6.37211e-07
6.52057e-07
6.89845e-07
6.72449e-07
6.64364e-07
6.89847e-07
6.52063e-07
6.64362e-07
6.52049e-07
6.64355e-07
6.72441e-07
6.89841e-07
6.89841e-07
6.64353e-07
6.52056e-07
6.37221e-07
6.63973e-07
6.66954e-07
6.56807e-07
6.37215e-07
6.66957e-07
6.56815e-07
8.73596e-08
3.37492e-08
1.10037e-07
8.73621e-08
1.10028e-07
3.56216e-08
3.56216e-08
3.56211e-08
3.56212e-08
8.28544e-08
6.82332e-08
9.72421e-08
9.80159e-08
9.72653e-08
9.80039e-08
8.28427e-08
8.28504e-08
6.82326e-08
9.72419e-08
9.80145e-08
9.72591e-08
9.80017e-08
8.28414e-08
8.26958e-08
6.80408e-08
9.80172e-08
9.69695e-08
9.79988e-08
8.26924e-08
9.69813e-08
8.27097e-08
6.8047e-08
9.80225e-08
9.69771e-08
9.801e-08
8.26976e-08
9.70022e-08
8.73591e-08
3.37483e-08
1.10031e-07
8.73624e-08
1.10021e-07
3.56224e-08
3.56224e-08
3.56213e-08
3.56221e-08
6.37192e-07
6.66899e-07
6.63888e-07
6.56732e-07
6.56744e-07
6.66908e-07
6.37179e-07
6.52034e-07
6.89829e-07
6.64317e-07
6.7242e-07
6.64319e-07
6.52048e-07
6.89823e-07
6.37202e-07
6.63918e-07
6.56765e-07
6.66933e-07
6.56776e-07
6.37203e-07
6.66923e-07
6.52032e-07
6.64299e-07
6.72401e-07
6.89823e-07
6.64295e-07
6.89824e-07
6.52036e-07
8.736e-08
3.37491e-08
1.10033e-07
8.73628e-08
1.10024e-07
3.56216e-08
3.56217e-08
3.5622e-08
3.5622e-08
6.37198e-07
6.66895e-07
6.56724e-07
6.6389e-07
6.66912e-07
6.37183e-07
6.56766e-07
6.52037e-07
6.89824e-07
6.72399e-07