/*--------------------------------*- C++ -*----------------------------------*\
| =========                 |                                                 |
| \\      /  F ield         | OpenFOAM: The Open Source CFD Toolbox           |
|  \\    /   O peration     | Version:  2012                                  |
|   \\  /    A nd           | Website:  www.openfoam.com                      |
|    \\/     M anipulation  |                                                 |
\*---------------------------------------------------------------------------*/
FoamFile
{
    version     2.0;
    format      ascii;
    class       volVectorField;
    location    "0.106/solid";
    object      D;
}
// * * * * * * * * * * * * * * * * * * * * * * * * * * * * * * * * * * * * * //

dimensions      [0 1 0 0 0 0 0];


internalField   nonuniform List<vector> 
3125
(
(4.74955e-12 -9.44854e-14 1.65535e-11)
(-5.50547e-07 -5.03852e-08 -6.58853e-07)
(-4.2824e-12 -2.03585e-11 1.42829e-11)
(-1.27097e-08 2.49999e-09 -1.42737e-08)
(-3.61034e-06 -4.41786e-06 -1.64895e-06)
(-1.89429e-06 -1.66242e-06 -1.25648e-06)
(5.83631e-13 -6.31198e-14 3.90362e-11)
(-4.28899e-13 -1.37646e-11 1.5204e-11)
(4.77976e-12 -1.13094e-14 1.65517e-11)
(-7.23639e-12 -2.5049e-11 3.94617e-11)
(6.60726e-13 -1.30708e-13 3.90643e-11)
(-5.51889e-07 -8.71546e-08 -6.3211e-07)
(-1.97071e-11 -4.97205e-11 3.86827e-11)
(-1.63795e-09 -2.94818e-09 1.62943e-09)
(-4.64912e-07 -6.1319e-07 -2.23475e-09)
(-1.70719e-08 2.06906e-10 -2.8715e-08)
(-5.09255e-07 -4.15997e-08 -6.19607e-07)
(-2.08697e-08 8.98036e-09 -2.33236e-08)
(-4.91912e-07 -7.46564e-08 -5.72003e-07)
(2.99876e-09 -3.07223e-09 1.01373e-08)
(-3.97506e-07 -6.16259e-07 1.5995e-07)
(-1.19983e-08 1.02156e-08 -1.92509e-08)
(-6.08285e-07 -9.94576e-08 -6.98519e-07)
(-1.79569e-06 -1.52223e-06 -1.22585e-06)
(-6.1025e-07 -1.38054e-07 -6.70826e-07)
(-1.7294e-06 -2.6021e-06 -2.43596e-08)
(-5.85305e-07 -7.87795e-07 -4.08074e-09)
(-1.80614e-06 -1.58509e-06 -1.18739e-06)
(-5.64894e-07 -9.08008e-08 -6.54937e-07)
(-1.72445e-06 -1.51554e-06 -1.11764e-06)
(-5.47158e-07 -1.2574e-07 -6.04336e-07)
(-1.58482e-06 -2.60442e-06 3.07197e-07)
(-5.07884e-07 -7.90754e-07 1.79601e-07)
(-1.70181e-06 -1.57555e-06 -1.02565e-06)
(-3.6282e-06 -4.50076e-06 -1.60533e-06)
(-1.93143e-06 -2.94495e-06 -2.81123e-08)
(-1.90526e-06 -1.7267e-06 -1.21751e-06)
(-3.56593e-06 -5.90542e-06 -5.78107e-08)
(-3.51615e-06 -4.41318e-06 -1.47603e-06)
(-1.82141e-06 -1.65585e-06 -1.14403e-06)
(-3.48977e-06 -4.49407e-06 -1.34825e-06)
(-1.77797e-06 -2.94718e-06 3.24047e-07)
(-1.79848e-06 -1.71735e-06 -1.04954e-06)
(-3.35626e-06 -5.90705e-06 4.31192e-07)
(-3.7386e-06 -4.64333e-06 -1.67072e-06)
(-3.75687e-06 -4.72728e-06 -1.62695e-06)
(-3.64321e-06 -4.63877e-06 -1.49404e-06)
(-3.61664e-06 -4.72077e-06 -1.36434e-06)
(-1.01412e-11 -2.09929e-11 5.13079e-11)
(-2.46769e-12 -2.22143e-12 4.72561e-11)
(-2.73736e-11 -4.4966e-11 5.40934e-11)
(-8.25869e-11 -2.61083e-10 6.007e-11)
(-4.99567e-10 -3.55276e-10 1.61451e-10)
(-2.28709e-07 1.31721e-07 -3.66137e-07)
(-2.3999e-10 -1.34767e-10 -1.07472e-11)
(-1.9429e-07 1.3453e-07 -3.22421e-07)
(-3.27233e-10 -1.24615e-10 -2.99417e-11)
(-2.75783e-06 -2.98251e-06 -1.48131e-06)
(-2.64303e-06 -2.79846e-06 -1.45515e-06)
(-2.94122e-12 1.61819e-13 4.48902e-11)
(-4.4311e-12 1.37336e-13 4.93442e-11)
(4.91524e-12 -1.21908e-12 1.64628e-11)
(4.94743e-12 -8.88857e-13 1.65087e-11)
(-2.87081e-12 1.82632e-13 4.5125e-11)
(-2.5207e-12 -8.3676e-13 4.64826e-11)
(-1.34821e-11 -1.9788e-11 5.53606e-11)
(6.09954e-13 -3.19985e-12 3.94731e-11)
(-4.08656e-12 -2.63289e-12 5.1561e-11)
(-4.35297e-12 1.06713e-13 4.95515e-11)
(8.05404e-13 -1.51993e-12 3.9339e-11)
(-4.05432e-12 -1.06517e-12 5.08347e-11)
(-4.90856e-07 -3.46569e-07 -3.42656e-07)
(-2.25359e-07 1.09015e-07 -3.46266e-07)
(-1.99903e-07 -7.11198e-08 -1.9521e-07)
(-3.31685e-11 -3.83625e-11 5.81183e-11)
(-4.18255e-10 -2.19387e-10 3.55573e-11)
(-5.92114e-10 -1.73028e-10 1.85376e-10)
(-4.59834e-10 -7.96117e-10 2.25327e-11)
(-1.08173e-07 -1.25789e-07 3.47904e-09)
(-1.95898e-09 2.78562e-09 -9.84529e-09)
(-1.18868e-07 -5.12207e-08 -1.06438e-07)
(-1.25634e-09 -1.69347e-09 -3.12425e-11)
(-4.81229e-07 -4.19821e-07 -2.59231e-07)
(-1.77687e-07 -2.16719e-07 1.74775e-09)
(-1.90243e-07 -1.12687e-07 -1.46173e-07)
(-1.90312e-07 1.14092e-07 -3.0361e-07)
(-8.39919e-10 -9.33897e-10 -4.30166e-10)
(-3.46463e-09 4.27649e-09 -1.39103e-08)
(-1.27593e-07 -2.06774e-08 -1.43331e-07)
(-1.48992e-09 -1.4105e-09 6.54273e-12)
(-2.03608e-07 1.41316e-07 -3.57157e-07)
(-1.71863e-07 1.4433e-07 -3.17595e-07)
(-4.0055e-07 -3.34388e-07 -2.05471e-07)
(-1.89356e-07 1.22712e-07 -3.30643e-07)
(-1.45639e-07 -5.67466e-08 -1.27487e-07)
(-7.96719e-08 -1.2974e-07 7.66562e-08)
(4.18337e-09 8.91858e-09 -6.37409e-09)
(-7.89961e-08 -4.11244e-08 -5.13409e-08)
(-3.93353e-07 -4.1134e-07 -1.08615e-07)
(-1.396e-07 -2.19826e-07 9.83912e-08)
(-1.38152e-07 -1.02473e-07 -6.69163e-08)
(-1.58205e-07 1.28285e-07 -2.93959e-07)
(2.70606e-09 1.3477e-08 -1.26606e-08)
(-8.60691e-08 -6.1733e-09 -9.87354e-08)
(-1.09066e-06 -6.03734e-07 -9.6049e-07)
(-1.17023e-06 -6.98673e-07 -9.95646e-07)
(-6.11702e-07 -4.81737e-07 -3.89801e-07)
(-1.09677e-06 -6.54333e-07 -9.26976e-07)
(-1.04109e-06 -1.01869e-06 -5.24796e-07)
(-1.1783e-06 -1.69822e-06 -1.42463e-08)
(-1.74967e-06 -2.18827e-06 -5.29233e-07)
(-1.19749e-06 -1.36281e-06 -4.33686e-07)
(-6.02381e-07 -5.65062e-07 -2.95592e-07)
(-1.01412e-06 -1.43888e-06 -1.13152e-08)
(-1.03288e-06 -1.13082e-06 -4.00287e-07)
(-1.17691e-06 -7.50888e-07 -9.61412e-07)
(-1.75634e-06 -2.04092e-06 -6.89481e-07)
(-1.20533e-06 -1.24153e-06 -5.67622e-07)
(-1.03349e-06 -5.95994e-07 -8.86563e-07)
(-1.11121e-06 -6.91065e-07 -9.17399e-07)
(-5.09863e-07 -4.69934e-07 -2.29015e-07)
(-1.01329e-06 -6.43317e-07 -8.15779e-07)
(-9.06144e-07 -1.00798e-06 -2.92901e-07)
(-1.06153e-06 -1.7008e-06 2.54567e-07)
(-1.57462e-06 -2.1818e-06 -1.86239e-07)
(-1.05333e-06 -1.35561e-06 -1.62352e-07)
(-5.02828e-07 -5.56845e-07 -1.20875e-07)
(-9.06994e-07 -1.44156e-06 2.36345e-07)
(-8.9951e-07 -1.12337e-06 -1.5306e-07)
(-1.09068e-06 -7.40058e-07 -8.43848e-07)
(-1.58087e-06 -2.03163e-06 -3.6359e-07)
(-1.05985e-06 -1.23118e-06 -3.12075e-07)
(-2.77267e-06 -3.05738e-06 -1.43924e-06)
(-3.59126e-06 -5.10316e-06 -9.64222e-07)
(-2.84784e-06 -3.80095e-06 -8.69958e-07)
(-1.95199e-06 -2.50621e-06 -5.59495e-07)
(-2.58752e-06 -4.09572e-06 -4.02626e-08)
(-2.60876e-06 -3.58604e-06 -6.45346e-07)
(-2.6574e-06 -2.87208e-06 -1.4134e-06)
(-1.95826e-06 -2.35064e-06 -7.27864e-07)
(-2.61387e-06 -3.40712e-06 -8.36171e-07)
(-3.58771e-06 -5.30998e-06 -7.47793e-07)
(-2.82171e-06 -4.51926e-06 -4.45458e-08)
(-2.84313e-06 -3.98719e-06 -6.72273e-07)
(-2.67282e-06 -2.97696e-06 -1.33577e-06)
(-2.55944e-06 -2.79278e-06 -1.31367e-06)
(-2.64789e-06 -3.04946e-06 -1.22251e-06)
(-3.34753e-06 -5.09658e-06 -4.61115e-07)
(-2.62769e-06 -3.79338e-06 -4.30824e-07)
(-1.76716e-06 -2.49999e-06 -1.92938e-07)
(-2.4087e-06 -4.09769e-06 3.72389e-07)
(-2.39619e-06 -3.58053e-06 -2.0954e-07)
(-2.53474e-06 -2.86399e-06 -1.20264e-06)
(-1.77332e-06 -2.34169e-06 -3.78837e-07)
(-2.40211e-06 -3.39921e-06 -4.19126e-07)
(-3.34188e-06 -5.3054e-06 -2.24424e-07)
(-2.63486e-06 -4.52114e-06 3.87725e-07)
(-2.62184e-06 -3.98191e-06 -2.13987e-07)
(-1.2425e-12 -1.59169e-11 3.9648e-11)
(-8.82186e-13 -7.24118e-12 3.78338e-11)
(-4.56095e-12 -3.71702e-11 4.23492e-11)
(-4.99524e-13 -6.50332e-11 3.99043e-11)
(-1.63163e-11 -7.9912e-11 4.96072e-11)
(1.00631e-12 -1.13531e-14 1.54849e-12)
(-3.9491e-07 6.22893e-08 -5.3658e-07)
(-3.41781e-12 -6.22127e-12 -1.24029e-12)
(-3.14861e-11 -4.97849e-11 1.17009e-11)
(-1.76185e-11 -1.68134e-11 -7.09969e-12)
(-7.257e-08 8.13383e-08 -1.27869e-07)
(-7.14737e-10 -3.39492e-11 2.02104e-10)
(-6.49731e-10 -3.51671e-10 -2.4452e-10)
(-3.23493e-06 -3.77166e-06 -1.58039e-06)
(-2.20298e-06 -2.11635e-06 -1.34498e-06)
(-2.15874e-12 1.73762e-13 3.36211e-11)
(-3.31448e-12 2.16112e-14 4.88825e-11)
(-1.5513e-12 -4.33841e-12 -3.75792e-13)
(3.75022e-12 -5.16149e-12 1.60483e-11)
(1.05493e-12 -1.4972e-12 8.51277e-13)
(1.05204e-12 -1.66589e-14 1.54454e-12)
(4.89026e-12 -2.30049e-13 1.65646e-11)
(1.27992e-12 -5.4117e-14 1.50191e-12)
(-2.11272e-12 1.99367e-13 3.38257e-11)
(-2.04269e-12 1.93412e-13 3.41227e-11)
(-9.89328e-12 -2.11561e-11 5.14453e-11)
(-2.07845e-12 -1.29581e-11 3.95615e-11)
(-5.26663e-12 -1.16897e-11 5.08644e-11)
(-3.23495e-12 -4.77392e-14 4.89909e-11)
(7.25865e-13 -3.06934e-13 3.9135e-11)
(-3.1555e-12 -1.88986e-13 4.91522e-11)
(-5.2293e-07 -2.24817e-07 -4.88019e-07)
(-3.94347e-07 3.12193e-08 -5.12806e-07)
(-3.64337e-07 -8.27897e-08 -3.93502e-07)
(-2.23245e-11 -3.95898e-11 5.17079e-11)
(-5.59959e-11 -8.86426e-11 3.9675e-11)
(-5.77544e-11 -5.75198e-11 5.53984e-11)
(-2.46584e-10 -1.04273e-08 -6.82836e-09)
(-1.48403e-08 -8.2744e-09 1.5648e-08)
(-1.23376e-09 1.23372e-10 -2.03289e-09)
(-1.42155e-08 -2.57183e-09 -1.06579e-09)
(-1.33779e-09 -5.50633e-09 -6.79993e-09)
(-4.67565e-07 -5.52553e-07 -8.88962e-08)
(-3.56513e-07 -4.59838e-07 -6.95205e-10)
(-3.58676e-07 -4.0888e-07 -7.53114e-08)
(-6.37268e-08 7.86104e-08 -1.14791e-07)
(-1.38064e-08 7.43428e-10 -7.82331e-09)
(-1.30847e-08 5.75184e-09 -2.10028e-08)
(-4.19671e-08 4.96457e-08 -8.94803e-08)
(-1.20839e-08 -4.40613e-09 -1.19807e-08)
(-3.60152e-07 7.14453e-08 -5.10324e-07)
(-6.86008e-08 9.46157e-08 -1.51046e-07)
(-4.69183e-07 -2.15365e-07 -4.19837e-07)
(-3.44027e-07 4.42449e-08 -4.71796e-07)
(-3.19958e-07 -7.28908e-08 -3.43914e-07)
(-6.44444e-09 -1.69189e-08 2.88173e-08)
(4.32972e-09 5.69664e-10 4.86395e-09)
(-3.7998e-09 -6.78151e-09 1.2465e-08)
(-3.92453e-07 -5.51864e-07 7.28612e-08)
(-2.99054e-07 -4.62993e-07 1.39884e-07)
(-2.94322e-07 -4.08131e-07 6.36376e-08)
(-6.11325e-08 8.87457e-08 -1.39999e-07)
(-1.66983e-09 7.94864e-09 -1.16885e-08)
(-3.44007e-08 5.97343e-08 -9.16065e-08)
(-7.9859e-07 -2.81162e-07 -8.14184e-07)
(-1.51342e-06 -1.13535e-06 -1.13059e-06)
(-5.81709e-07 -2.8344e-07 -5.18346e-07)
(-8.02368e-07 -3.25061e-07 -7.83825e-07)
(-7.74935e-07 -4.92564e-07 -6.07802e-07)
(-1.5363e-06 -2.27993e-06 -2.07853e-08)
(-1.735e-06 -2.46824e-06 -1.95495e-07)
(-1.5416e-06 -2.15461e-06 -1.82525e-07)
(-5.88412e-07 -7.17511e-07 -1.02469e-07)
(-7.17243e-07 -9.83627e-07 -6.21572e-09)
(-7.20772e-07 -9.03782e-07 -1.16e-07)
(-1.52229e-06 -1.19378e-06 -1.09377e-06)
(-1.78339e-06 -1.83221e-06 -9.27091e-07)
(-1.49839e-06 -1.42232e-06 -8.527e-07)
(-7.49117e-07 -2.72895e-07 -7.57583e-07)
(-1.44725e-06 -1.12826e-06 -1.03515e-06)
(-5.24778e-07 -2.74139e-07 -4.43882e-07)
(-7.30284e-07 -3.133e-07 -6.98162e-07)
(-7.09176e-07 -4.83676e-07 -5.14568e-07)
(-1.4008e-06 -2.28234e-06 2.89996e-07)
(-1.57774e-06 -2.4677e-06 1.46795e-07)
(-1.39393e-06 -2.15405e-06 1.3756e-07)
(-5.02531e-07 -7.16834e-07 8.20744e-08)
(-6.29825e-07 -9.86487e-07 1.98873e-07)
(-6.2419e-07 -9.03125e-07 9.13004e-08)
(-1.42547e-06 -1.18369e-06 -9.50865e-07)
(-1.68529e-06 -1.82498e-06 -7.59084e-07)
(-1.40776e-06 -1.4147e-06 -7.03166e-07)
(-3.25154e-06 -3.85126e-06 -1.53731e-06)
(-3.61168e-06 -4.83273e-06 -1.25975e-06)
(-3.23386e-06 -4.16917e-06 -1.20529e-06)
(-1.93732e-06 -2.80274e-06 -2.08316e-07)
(-2.14203e-06 -3.30831e-06 -3.20267e-08)
(-2.14819e-06 -3.15796e-06 -2.20973e-07)
(-2.21545e-06 -2.18477e-06 -1.30468e-06)
(-1.88291e-06 -1.97986e-06 -9.5081e-07)
(-2.19425e-06 -2.45539e-06 -1.02019e-06)
(-3.57347e-06 -5.71045e-06 -2.92438e-07)
(-3.31126e-06 -5.42447e-06 -5.33403e-08)
(-3.3186e-06 -5.23643e-06 -2.81152e-07)
(-3.14452e-06 -3.76662e-06 -1.41898e-06)
(-2.12535e-06 -2.11017e-06 -1.21996e-06)
(-3.11872e-06 -3.84406e-06 -1.2972e-06)
(-3.47879e-06 -4.82762e-06 -9.98159e-07)
(-3.10668e-06 -4.16369e-06 -9.60301e-07)
(-1.77068e-06 -2.80223e-06 1.55999e-07)
(-1.97991e-06 -3.31046e-06 3.40537e-07)
(-1.97241e-06 -3.15747e-06 1.6516e-07)
(-2.10163e-06 -2.17596e-06 -1.11817e-06)
(-1.78226e-06 -1.97278e-06 -7.76642e-07)
(-2.08656e-06 -2.4487e-06 -8.2785e-07)
(-3.34776e-06 -5.71006e-06 2.18271e-07)
(-3.10898e-06 -5.42618e-06 4.17142e-07)
(-3.10063e-06 -5.23602e-06 2.09733e-07)
(-3.74073e-06 -5.06372e-06 -1.27691e-06)
(-3.6059e-06 -5.05875e-06 -1.00987e-06)
(-1.47021e-12 -1.16824e-12 3.57019e-11)
(-1.13036e-12 -3.04715e-12 3.66288e-11)
(-4.67449e-12 -2.03401e-11 4.59582e-11)
(-4.43587e-12 -1.06957e-11 4.94358e-11)
(-1.73309e-12 -9.59261e-12 4.41905e-11)
(-1.18279e-12 -1.72939e-12 4.20001e-11)
(-2.76709e-12 -5.00808e-12 4.82413e-11)
(-1.10864e-12 -4.20935e-12 4.29865e-11)
(-1.51405e-11 -4.65536e-11 4.84316e-11)
(-7.40079e-11 -8.15303e-11 6.45577e-11)
(-4.52306e-11 -9.48129e-11 5.66535e-11)
(-2.35971e-11 -1.54075e-10 4.09254e-11)
(-1.79314e-10 -4.42803e-10 1.0135e-10)
(-6.24688e-11 -2.22177e-10 5.74678e-11)
(-1.99263e-10 -2.23866e-10 7.89767e-11)
(-3.41234e-10 -4.49485e-10 1.27382e-10)
(-1.34578e-10 -2.56012e-10 6.61561e-11)
(-3.48973e-07 8.83194e-08 -4.94794e-07)
(-5.462e-11 -7.47539e-11 8.59791e-12)
(-9.48478e-11 -5.09807e-11 -3.78416e-11)
(-2.72886e-11 -2.35637e-11 -1.11956e-11)
(-1.02146e-07 1.05325e-07 -1.78204e-07)
(-1.91863e-09 -2.34394e-10 -1.14133e-10)
(-1.39645e-10 -6.92635e-11 -5.66537e-11)
(-4.49943e-10 -1.50721e-10 -1.78548e-10)
(-3.11306e-06 -3.56652e-06 -1.55645e-06)
(-2.31003e-06 -2.2787e-06 -1.37336e-06)
(-1.83171e-12 1.77438e-13 3.96873e-11)
(-4.7907e-12 8.81804e-14 5.13343e-11)
(4.36509e-12 -3.55123e-12 1.62781e-11)
(1.46461e-12 -3.52944e-13 1.36409e-12)
(1.30535e-12 -1.04359e-12 1.05316e-12)
(4.92937e-12 -2.30915e-13 1.65616e-11)
(1.40979e-12 -2.44739e-13 1.42564e-12)
(1.34718e-12 -7.96415e-14 1.48402e-12)
(-1.72426e-12 -3.07221e-13 3.50185e-11)
(-1.92128e-12 3.94739e-14 3.45138e-11)
(-1.77297e-12 2.09609e-13 3.99176e-11)
(-2.75896e-12 9.52529e-14 4.54762e-11)
(-1.68244e-12 1.61285e-13 4.02631e-11)
(-1.37074e-12 -5.7065e-13 4.12418e-11)
(-2.63371e-12 -2.02587e-13 4.59195e-11)
(-1.54761e-12 -7.00696e-14 4.06968e-11)
(-1.32528e-11 -1.97871e-11 5.6002e-11)
(-6.68596e-12 -1.10212e-11 5.35233e-11)
(-7.10736e-12 -1.14472e-11 5.45947e-11)
(-1.36227e-13 -6.49458e-12 3.95712e-11)
(-3.14518e-12 -2.97135e-12 5.01099e-11)
(-3.66392e-12 -6.02161e-12 5.04815e-11)
(-4.57113e-12 -5.53535e-12 5.2427e-11)
(-4.54845e-12 -2.93794e-12 5.31399e-11)
(-5.11917e-12 -5.96129e-12 5.37848e-11)
(-4.7177e-12 2.58115e-14 5.14989e-11)
(-4.23122e-12 -6.46836e-15 4.98413e-11)
(-4.64031e-12 -1.07185e-13 5.17251e-11)
(7.84182e-13 -6.91074e-13 3.92354e-11)
(-3.04271e-12 -1.33328e-12 4.97241e-11)
(-3.0808e-12 -5.52479e-13 4.93938e-11)
(-4.1205e-12 -3.28289e-13 5.02608e-11)
(-4.47383e-12 -1.26236e-12 5.25566e-11)
(-4.54639e-12 -4.64145e-13 5.20714e-11)
(-5.02594e-07 -2.66464e-07 -4.2862e-07)
(-3.81735e-07 -2.33209e-07 -2.94506e-07)
(-3.93925e-07 -1.63695e-07 -3.6941e-07)
(-3.47764e-07 5.92334e-08 -4.72065e-07)
(-1.94301e-07 2.94222e-08 -2.61446e-07)
(-3.17356e-07 -4.63815e-08 -3.6152e-07)
(-2.84658e-07 -1.41416e-07 -2.45279e-07)
(-2.12344e-07 -2.38381e-08 -2.46855e-07)
(-2.97087e-07 -8.28305e-08 -3.08761e-07)
(-3.07098e-11 -3.55052e-11 5.79621e-11)
(-8.6903e-11 -5.72515e-11 6.93328e-11)
(-7.98031e-11 -4.39529e-11 6.70709e-11)
(-1.34661e-10 -1.95081e-10 2.78136e-11)
(-4.29153e-10 -1.46991e-11 8.26179e-11)
(-1.50168e-10 -1.24289e-10 5.15538e-11)
(-2.29457e-10 -1.58061e-10 8.59526e-11)
(-5.67229e-10 -7.24297e-12 1.69781e-10)
(-2.12332e-10 -1.01395e-10 7.97809e-11)
(-6.57591e-10 7.75952e-10 1.44596e-09)
(-5.58802e-10 -1.69833e-09 -5.2358e-11)
(-5.89038e-10 -1.29447e-09 3.51025e-10)
(-5.26823e-08 -5.63948e-08 6.89156e-09)
(-1.08828e-07 -1.02974e-07 -3.33393e-08)
(-5.31356e-08 -4.21132e-08 -1.80025e-08)
(-1.14437e-09 1.2789e-09 -5.84621e-09)
(-1.6557e-08 1.34827e-08 -2.60305e-08)
(-6.62341e-09 -7.59252e-09 -1.21931e-08)
(-1.46421e-08 5.14032e-09 -1.35215e-08)
(-4.80971e-09 -6.80824e-09 -9.51325e-09)
(-1.12573e-07 -7.84723e-08 -6.99828e-08)
(-6.06809e-08 -1.08027e-08 -6.70098e-08)
(-5.57805e-08 -2.75433e-08 -4.25029e-08)
(-9.19851e-10 -1.71636e-09 -4.90808e-11)
(-2.69163e-09 -1.33143e-09 1.11737e-10)
(-1.98374e-09 -1.56158e-09 8.96031e-11)
(-4.7334e-07 -4.88342e-07 -1.74697e-07)
(-3.71883e-07 -2.96149e-07 -2.22209e-07)
(-3.64103e-07 -3.54553e-07 -1.49236e-07)
(-2.60616e-07 -3.27681e-07 6.1671e-10)
(-1.78789e-07 -1.84813e-07 -4.78883e-08)
(-2.62252e-07 -2.86339e-07 -6.16507e-08)
(-2.74767e-07 -1.93801e-07 -1.84462e-07)
(-1.83191e-07 -1.50388e-07 -9.72341e-08)
(-2.67243e-07 -2.4194e-07 -1.23383e-07)
(-9.24064e-08 9.45165e-08 -1.63492e-07)
(-1.58901e-07 4.44999e-08 -2.27371e-07)
(-6.7864e-08 5.64422e-08 -1.22102e-07)
(-2.84324e-09 4.46781e-09 1.09118e-10)
(-1.25964e-09 -3.74153e-10 -7.92072e-11)
(-2.59829e-09 1.60814e-09 3.8514e-10)
(-5.85601e-09 5.39396e-09 -1.76287e-08)
(-2.04081e-08 2.25625e-08 -3.93484e-08)
(-8.55254e-09 -8.04113e-09 -1.44939e-08)
(-2.52878e-08 3.45104e-08 -5.13608e-08)
(-9.98527e-09 -8.30921e-09 -1.55122e-08)
(-1.39022e-07 1.46739e-08 -1.82614e-07)
(-6.76537e-08 8.89169e-09 -9.18168e-08)
(-7.90816e-08 3.22835e-08 -1.18258e-07)
(-1.5281e-09 -7.91859e-10 7.46482e-11)
(-3.54129e-09 -6.6674e-10 2.62099e-10)
(-3.96417e-09 3.91909e-10 6.07154e-10)
(-3.16494e-07 9.75964e-08 -4.72845e-07)
(-9.24977e-08 1.17008e-07 -1.93671e-07)
(-4.11803e-07 -2.51737e-07 -3.05963e-07)
(-3.03196e-07 -2.20551e-07 -1.80754e-07)
(-3.14607e-07 -1.4844e-07 -2.69312e-07)
(-3.00817e-07 7.24472e-08 -4.37365e-07)
(-1.63509e-07 4.0223e-08 -2.36284e-07)
(-2.7636e-07 -3.63144e-08 -3.18096e-07)
(-2.1812e-07 -1.28214e-07 -1.54731e-07)
(-1.57137e-07 -6.78701e-09 -1.90972e-07)
(-2.29609e-07 -6.69813e-08 -2.30973e-07)
(-3.45883e-08 -5.94373e-08 5.56919e-08)
(-7.61885e-08 -1.02548e-07 3.54964e-08)
(-3.15156e-08 -4.10258e-08 2.6612e-08)
(4.63364e-09 4.60553e-09 -5.57498e-10)
(-5.07108e-09 1.65521e-08 -2.17617e-08)
(-3.46199e-09 4.11342e-09 -3.77816e-09)
(-7.59308e-08 -7.32302e-08 -6.75295e-09)
(-3.37522e-08 1.6663e-09 -3.45287e-08)
(-3.11796e-08 -2.09027e-08 -2.99914e-09)
(-3.90934e-07 -4.8381e-07 -1.60105e-08)
(-2.95834e-07 -2.87311e-07 -9.55639e-08)
(-2.93147e-07 -3.49809e-07 -1.42578e-08)
(-2.12936e-07 -3.30924e-07 1.19377e-07)
(-1.35633e-07 -1.83636e-07 4.51115e-08)
(-2.08558e-07 -2.8551e-07 5.43968e-08)
(-2.1065e-07 -1.84548e-07 -8.16365e-08)
(-1.3509e-07 -1.44734e-07 -9.5455e-09)
(-2.07729e-07 -2.36944e-07 -1.20807e-08)
(-8.13932e-08 1.09602e-07 -1.7932e-07)
(-1.32035e-07 5.53712e-08 -2.08298e-07)
(-5.37767e-08 6.81867e-08 -1.20033e-07)
(-4.13574e-10 1.82767e-08 -1.98368e-08)
(-9.27257e-09 3.02976e-08 -4.15119e-08)
(-1.61316e-08 4.43013e-08 -6.14061e-08)
(-9.70638e-08 3.21378e-08 -1.48905e-07)
(-3.99101e-08 2.62274e-08 -6.84618e-08)
(-5.02755e-08 5.255e-08 -1.04687e-07)
(-8.67587e-07 -3.53212e-07 -8.5161e-07)
(-1.42398e-06 -1.01766e-06 -1.09771e-06)
(-6.2292e-07 -3.91332e-07 -4.86461e-07)
(-7.43926e-07 -6.38782e-07 -4.35875e-07)
(-7.54585e-07 -5.38355e-07 -5.42891e-07)
(-8.71962e-07 -3.98825e-07 -8.20415e-07)
(-1.07089e-06 -8.49933e-07 -7.20904e-07)
(-8.44952e-07 -5.7357e-07 -6.36477e-07)
(-8.87176e-07 -8.17762e-07 -4.80878e-07)
(-1.05061e-06 -8.98997e-07 -6.51502e-07)
(-8.97266e-07 -7.07577e-07 -5.97907e-07)
(-1.35248e-06 -1.9786e-06 -1.74087e-08)
(-1.18295e-06 -1.59056e-06 -1.56203e-07)
(-1.35746e-06 -1.86201e-06 -1.69422e-07)
(-1.7423e-06 -2.33062e-06 -3.64323e-07)
(-1.55625e-06 -1.89163e-06 -4.98169e-07)
(-1.54877e-06 -2.0255e-06 -3.42141e-07)
(-1.18981e-06 -1.47905e-06 -2.96406e-07)
(-1.37207e-06 -1.61644e-06 -4.66316e-07)
(-1.36448e-06 -1.7416e-06 -3.19497e-07)
(-5.94468e-07 -6.43523e-07 -1.99827e-07)
(-7.34956e-07 -7.31942e-07 -3.31227e-07)
(-7.27068e-07 -8.20154e-07 -2.24576e-07)
(-8.6031e-07 -1.20067e-06 -8.63296e-09)
(-1.01842e-06 -1.34033e-06 -1.42883e-07)
(-8.64235e-07 -1.11139e-06 -1.29477e-07)
(-8.78576e-07 -9.20526e-07 -3.66131e-07)
(-1.02511e-06 -1.23793e-06 -2.7288e-07)
(-8.70742e-07 -1.01829e-06 -2.48933e-07)
(-1.43231e-06 -1.07458e-06 -1.0615e-06)
(-1.15145e-06 -9.5331e-07 -7.47925e-07)
(-1.40799e-06 -1.2967e-06 -8.27331e-07)
(-1.76359e-06 -1.88567e-06 -8.51562e-07)
(-1.56331e-06 -1.75275e-06 -6.49973e-07)
(-1.57112e-06 -1.60602e-06 -8.03705e-07)
(-1.21427e-06 -1.11259e-06 -7.03669e-07)
(-1.37952e-06 -1.48625e-06 -6.0935e-07)
(-1.38789e-06 -1.34829e-06 -7.54406e-07)
(-8.16145e-07 -3.45077e-07 -7.90672e-07)
(-1.35956e-06 -1.01045e-06 -1.00655e-06)
(-5.20963e-07 -3.77052e-07 -3.41076e-07)
(-6.30797e-07 -6.2735e-07 -2.51403e-07)
(-6.41752e-07 -5.24518e-07 -3.74691e-07)
(-7.96953e-07 -3.87251e-07 -7.28361e-07)
(-9.93753e-07 -8.41603e-07 -6.02581e-07)
(-7.76174e-07 -5.64832e-07 -5.36931e-07)
(-7.63007e-07 -8.06692e-07 -2.72689e-07)
(-9.16854e-07 -8.86027e-07 -4.37623e-07)
(-7.73833e-07 -6.94174e-07 -4.06863e-07)
(-1.22625e-06 -1.98109e-06 2.72451e-07)
(-1.05513e-06 -1.58996e-06 1.19048e-07)
(-1.21961e-06 -1.86143e-06 1.28307e-07)
(-1.57395e-06 -2.32716e-06 -1.64851e-08)
(-1.39123e-06 -1.88492e-06 -1.78922e-07)
(-1.39039e-06 -2.02191e-06 -1.76163e-08)
(-1.0521e-06 -1.4752e-06 -1.89351e-08)
(-1.21735e-06 -1.60948e-06 -1.70967e-07)
(-1.21632e-06 -1.73788e-06 -1.84383e-08)
(-5.00677e-07 -6.39129e-07 -1.73694e-08)
(-6.23912e-07 -7.23986e-07 -1.32345e-07)
(-6.22017e-07 -8.15901e-07 -1.83237e-08)
(-7.62976e-07 -1.20343e-06 2.17782e-07)
(-9.00836e-07 -1.33971e-06 1.09789e-07)
(-7.57073e-07 -1.11075e-06 1.00538e-07)
(-7.56255e-07 -9.12822e-07 -1.43066e-07)
(-8.98075e-07 -1.23394e-06 -1.90922e-08)
(-7.54598e-07 -1.01417e-06 -1.88941e-08)
(-1.33809e-06 -1.0643e-06 -9.24903e-07)
(-1.07145e-06 -9.45129e-07 -6.23308e-07)
(-1.32008e-06 -1.28892e-06 -6.84041e-07)
(-1.59117e-06 -1.87441e-06 -5.47127e-07)
(-1.39757e-06 -1.7431e-06 -3.47396e-07)
(-1.40797e-06 -1.59434e-06 -5.21735e-07)
(-1.07045e-06 -1.10005e-06 -4.67007e-07)
(-1.22378e-06 -1.47625e-06 -3.30232e-07)
(-1.23428e-06 -1.33618e-06 -4.95036e-07)
(-3.12924e-06 -3.64497e-06 -1.51359e-06)
(-2.75344e-06 -3.35523e-06 -1.12708e-06)
(-3.11116e-06 -3.95802e-06 -1.1865e-06)
(-3.59415e-06 -4.88834e-06 -1.1816e-06)
(-3.33688e-06 -4.64934e-06 -9.33993e-07)
(-3.3403e-06 -4.44111e-06 -1.14554e-06)
(-2.85233e-06 -3.60666e-06 -1.06894e-06)
(-3.08896e-06 -4.21514e-06 -9.02568e-07)
(-3.09292e-06 -4.01376e-06 -1.10799e-06)
(-1.94473e-06 -2.65684e-06 -3.86029e-07)
(-2.16284e-06 -2.8453e-06 -5.88943e-07)
(-2.15571e-06 -3.00397e-06 -4.07245e-07)
(-2.36084e-06 -3.69198e-06 -3.60824e-08)
(-2.59419e-06 -3.92969e-06 -2.45719e-07)
(-2.36727e-06 -3.53369e-06 -2.33446e-07)
(-2.38189e-06 -3.20532e-06 -6.17565e-07)
(-2.60189e-06 -3.76016e-06 -4.48142e-07)
(-2.37488e-06 -3.37183e-06 -4.27954e-07)
(-2.32299e-06 -2.34846e-06 -1.33266e-06)
(-2.63777e-06 -3.16468e-06 -1.10666e-06)
(-2.3022e-06 -2.62472e-06 -1.04227e-06)
(-1.96495e-06 -2.18709e-06 -8.97967e-07)
(-2.16873e-06 -2.68171e-06 -7.65114e-07)
(-2.17486e-06 -2.51012e-06 -9.42915e-07)
(-2.6189e-06 -3.22016e-06 -1.02841e-06)
(-2.38738e-06 -3.03396e-06 -8.0122e-07)
(-2.39296e-06 -2.85455e-06 -9.86399e-07)
(-3.58142e-06 -5.51236e-06 -5.23347e-07)
(-3.33294e-06 -4.84952e-06 -7.2351e-07)
(-3.32651e-06 -5.04517e-06 -5.05411e-07)
(-3.06308e-06 -4.96229e-06 -4.89117e-08)
(-2.82862e-06 -4.34569e-06 -2.57773e-07)
(-3.07021e-06 -4.78139e-06 -2.6959e-07)
(-3.08464e-06 -4.40846e-06 -6.98332e-07)
(-2.8364e-06 -4.16871e-06 -4.67792e-07)
(-3.07805e-06 -4.59716e-06 -4.86887e-07)
(-3.02396e-06 -3.56135e-06 -1.39895e-06)
(-2.23087e-06 -2.27264e-06 -1.24419e-06)
(-2.99837e-06 -3.63759e-06 -1.27925e-06)
(-2.6345e-06 -3.34922e-06 -9.05037e-07)
(-2.98607e-06 -3.95239e-06 -9.472e-07)
(-3.35709e-06 -4.88036e-06 -7.06293e-07)
(-3.10074e-06 -4.64243e-06 -4.51788e-07)
(-3.11039e-06 -4.43273e-06 -6.90405e-07)
(-2.63752e-06 -3.59747e-06 -6.55348e-07)
(-2.86068e-06 -4.2079e-06 -4.41701e-07)
(-2.87042e-06 -4.00498e-06 -6.73434e-07)
(-1.76666e-06 -2.65351e-06 -1.50619e-08)
(-1.9685e-06 -2.83931e-06 -1.9904e-07)
(-1.96817e-06 -3.00078e-06 -1.33636e-08)
(-2.19026e-06 -3.69404e-06 3.56655e-07)
(-2.40083e-06 -3.92923e-06 1.83289e-07)
(-2.18257e-06 -3.53321e-06 1.74262e-07)
(-2.1783e-06 -3.19957e-06 -2.04566e-07)
(-2.39617e-06 -3.75722e-06 -9.21999e-09)
(-2.17812e-06 -3.36876e-06 -1.14097e-08)
(-2.20689e-06 -2.33983e-06 -1.14003e-06)
(-2.52108e-06 -3.15853e-06 -8.90497e-07)
(-2.1921e-06 -2.61818e-06 -8.43879e-07)
(-1.78353e-06 -2.17625e-06 -5.71237e-07)
(-1.97458e-06 -2.67311e-06 -3.93159e-07)
(-1.98469e-06 -2.4997e-06 -5.94087e-07)
(-2.41204e-06 -3.21056e-06 -6.36115e-07)
(-2.18429e-06 -3.0257e-06 -4.06581e-07)
(-2.19431e-06 -2.84455e-06 -6.15705e-07)
(-3.34239e-06 -5.50991e-06 1.44854e-09)
(-3.09503e-06 -4.84471e-06 -2.21401e-07)
(-3.09542e-06 -5.0426e-06 -1.45806e-09)
(-2.8684e-06 -4.96409e-06 4.02648e-07)
(-2.62681e-06 -4.34525e-06 1.92222e-07)
(-2.8602e-06 -4.78096e-06 2.01043e-07)
(-2.8549e-06 -4.40342e-06 -2.17931e-07)
(-2.62197e-06 -4.16589e-06 -6.81644e-09)
(-2.85516e-06 -4.59446e-06 -4.22114e-09)
(-8.39392e-12 -4.87888e-14 3.10755e-11)
(-1.23064e-11 -1.03506e-13 5.89343e-11)
(4.72384e-12 -1.73384e-14 1.65941e-11)
(6.11639e-12 -8.7625e-14 1.19744e-11)
(-1.23772e-11 -1.31061e-13 5.9102e-11)
(-8.35701e-12 -1.04296e-13 3.08813e-11)
(6.11697e-12 -3.96679e-15 1.20131e-11)
(-4.95721e-07 -7.06689e-09 -6.18631e-07)
(-4.03838e-11 -4.67585e-11 2.79123e-11)
(-1.9349e-12 -1.53299e-11 9.51171e-12)
(-3.53814e-11 -4.5623e-11 5.71709e-11)
(-8.84083e-12 -2.6605e-11 1.39758e-11)
(-2.84613e-11 -3.49019e-11 2.77812e-11)
(-4.77691e-11 -5.89695e-11 5.87573e-11)
(-6.67744e-12 -2.08232e-11 8.63767e-12)
(-6.81018e-09 2.75617e-10 1.46501e-09)
(-3.07108e-08 1.45885e-08 -5.67871e-08)
(-6.62704e-09 -3.17205e-09 -5.07843e-09)
(-1.50933e-08 2.18272e-09 -1.00687e-08)
(-1.37173e-08 8.44859e-10 -1.31018e-08)
(-2.62293e-08 7.37994e-09 -1.85388e-08)
(-1.05507e-08 -1.16359e-09 -3.74694e-09)
(-3.48361e-06 -4.19738e-06 -1.62664e-06)
(-1.99506e-06 -1.80818e-06 -1.28654e-06)
(-1.6622e-11 -1.7581e-11 2.93907e-11)
(1.21338e-12 -1.07865e-11 1.0226e-11)
(-2.67576e-11 -3.12294e-11 5.90426e-11)
(1.36449e-12 -1.03459e-11 1.54675e-11)
(-2.14571e-11 -2.42163e-11 2.89961e-11)
(-2.18025e-11 -2.32609e-11 5.88289e-11)
(3.19493e-12 -7.77352e-12 1.0728e-11)
(-8.28553e-12 -1.94626e-13 3.10711e-11)
(-1.22623e-11 -1.69331e-13 5.89311e-11)
(6.14921e-12 -1.85416e-14 1.19722e-11)
(4.80597e-12 -1.08218e-13 1.65807e-11)
(-8.32722e-12 -1.03687e-13 3.08898e-11)
(-1.22761e-11 -1.85968e-13 5.9146e-11)
(6.21507e-12 -1.21653e-13 1.19975e-11)
(-5.33167e-07 -1.01021e-07 -5.95027e-07)
(-5.91665e-07 -1.07142e-07 -6.6595e-07)
(-5.40984e-07 -1.35345e-07 -5.81795e-07)
(-4.96439e-07 -4.19758e-08 -5.92854e-07)
(-5.33938e-07 -6.15957e-08 -6.22669e-07)
(-4.85432e-07 -8.75182e-08 -5.45355e-07)
(-5.91572e-07 -1.48746e-07 -6.37109e-07)
(-4.56561e-07 1.84448e-09 -5.8372e-07)
(-4.01414e-08 3.03095e-08 -7.66677e-08)
(-3.816e-07 -6.89704e-08 -4.39126e-07)
(-4.84215e-07 -1.24099e-07 -5.20177e-07)
(-4.4818e-07 -7.7601e-08 -5.19756e-07)
(-4.39606e-07 -2.92991e-08 -5.39126e-07)
(-4.31723e-07 -7.61093e-08 -4.90002e-07)
(-3.98096e-07 -3.16248e-08 -4.91925e-07)
(-4.31264e-07 -1.17157e-07 -4.63555e-07)
(-1.80721e-08 4.32459e-08 -6.18077e-08)
(-2.45062e-08 3.19451e-08 -5.56212e-08)
(-6.78178e-09 8.09728e-09 -1.62047e-08)
(-1.43128e-08 1.98719e-08 -2.67712e-08)
(-2.02134e-08 2.93954e-08 -4.85236e-08)
(-2.58424e-08 4.30882e-08 -7.20323e-08)
(-9.61351e-09 1.98212e-08 -2.15589e-08)
(-6.68899e-07 -1.5428e-07 -7.37636e-07)
(-1.69932e-06 -1.38765e-06 -1.19466e-06)
(-7.16941e-07 -2.6122e-07 -7.19763e-07)
(-6.52259e-07 -1.58396e-07 -7.08698e-07)
(-5.99483e-07 -1.88845e-07 -6.17695e-07)
(-6.71472e-07 -1.94674e-07 -7.09028e-07)
(-6.52855e-07 -2.02147e-07 -6.78652e-07)
(-7.15684e-07 -2.15364e-07 -7.50944e-07)
(-6.60809e-07 -2.48024e-07 -6.53148e-07)
(-1.78871e-06 -1.54414e-06 -1.20839e-06)
(-1.70926e-06 -1.44905e-06 -1.15672e-06)
(-1.87798e-06 -1.60986e-06 -1.28625e-06)
(-1.79724e-06 -1.6705e-06 -1.09708e-06)
(-1.7793e-06 -1.47358e-06 -1.25152e-06)
(-1.70024e-06 -1.53239e-06 -1.06859e-06)
(-1.88796e-06 -1.68213e-06 -1.24244e-06)
(-6.23449e-07 -1.45752e-07 -6.89714e-07)
(-1.62974e-06 -1.38082e-06 -1.09069e-06)
(-5.39533e-07 -2.30564e-07 -5.10857e-07)
(-5.39598e-07 -1.77766e-07 -5.49798e-07)
(-5.01254e-07 -1.29289e-07 -5.47048e-07)
(-6.05344e-07 -1.82541e-07 -6.36149e-07)
(-4.83895e-07 -1.71029e-07 -4.87448e-07)
(-5.97964e-07 -2.37108e-07 -5.78973e-07)
(-5.57295e-07 -1.8669e-07 -5.73817e-07)
(-1.51167e-06 -1.51954e-06 -7.70625e-07)
(-1.60738e-06 -1.43933e-06 -1.00124e-06)
(-1.69656e-06 -1.6619e-06 -9.35436e-07)
(-1.62698e-06 -1.58731e-06 -8.93895e-07)
(-1.60196e-06 -1.52362e-06 -9.13098e-07)
(-1.53428e-06 -1.45059e-06 -8.7433e-07)
(-1.60405e-06 -1.65799e-06 -7.87322e-07)
(-3.61427e-06 -4.40154e-06 -1.68997e-06)
(-3.50107e-06 -4.27921e-06 -1.58318e-06)
(-3.72487e-06 -4.52861e-06 -1.76667e-06)
(-3.62138e-06 -4.61489e-06 -1.48561e-06)
(-3.59639e-06 -4.30692e-06 -1.74082e-06)
(-3.49413e-06 -4.39179e-06 -1.46499e-06)
(-3.74321e-06 -4.62451e-06 -1.71556e-06)
(-2.09299e-06 -1.97472e-06 -1.30894e-06)
(-2.00654e-06 -1.87387e-06 -1.24711e-06)
(-1.97886e-06 -1.75172e-06 -1.32041e-06)
(-1.8965e-06 -1.81415e-06 -1.12505e-06)
(-2.08187e-06 -1.89912e-06 -1.35404e-06)
(-1.98942e-06 -1.82567e-06 -1.27593e-06)
(-1.9979e-06 -1.96333e-06 -1.15255e-06)
(-3.39066e-06 -4.19258e-06 -1.45752e-06)
(-1.92058e-06 -1.80174e-06 -1.16989e-06)
(-3.23984e-06 -4.3841e-06 -9.86235e-07)
(-3.36446e-06 -4.27234e-06 -1.3317e-06)
(-3.48669e-06 -4.60883e-06 -1.23014e-06)
(-3.39105e-06 -4.51279e-06 -1.14338e-06)
(-3.36123e-06 -4.38557e-06 -1.21501e-06)
(-3.26702e-06 -4.29068e-06 -1.13109e-06)
(-3.36364e-06 -4.60749e-06 -9.96321e-07)
(-1.79561e-06 -1.95149e-06 -8.1935e-07)
(-1.89739e-06 -1.8647e-06 -1.07293e-06)
(-1.79336e-06 -1.80572e-06 -9.57262e-07)
(-1.72196e-06 -1.7296e-06 -9.12968e-07)
(-1.69869e-06 -1.80198e-06 -8.03553e-07)
(-1.89242e-06 -1.95505e-06 -9.78656e-07)
(-1.81918e-06 -1.87743e-06 -9.31559e-07)
(-3.85484e-06 -4.75528e-06 -1.79195e-06)
(-3.75019e-06 -4.84294e-06 -1.50572e-06)
(-3.87366e-06 -4.85242e-06 -1.74058e-06)
(-3.61366e-06 -4.83702e-06 -1.24481e-06)
(-3.51666e-06 -4.73985e-06 -1.15527e-06)
(-3.48901e-06 -4.83583e-06 -1.00604e-06)
(-2.6598e-07 1.23043e-07 -4.09682e-07)
(-2.65311e-10 -2.07106e-10 1.68366e-12)
(-1.76563e-10 -1.32066e-10 7.19827e-12)
(-5.62684e-10 -1.4235e-10 7.99456e-11)
(-1.90619e-10 -9.37435e-11 -1.55421e-11)
(-4.55445e-10 -1.65763e-10 1.53761e-11)
(-3.87626e-10 -2.83589e-10 5.97355e-12)