/*--------------------------------*- C++ -*----------------------------------*\
| =========                 |                                                 |
| \\      /  F ield         | OpenFOAM: The Open Source CFD Toolbox           |
|  \\    /   O peration     | Version:  2012                                  |
|   \\  /    A nd           | Website:  www.openfoam.com                      |
|    \\/     M anipulation  |                                                 |
\*---------------------------------------------------------------------------*/
FoamFile
{
    version     2.0;
    format      ascii;
    class       volScalarField;
    location    "0.106/solid";
    object      epsilonEq;
}
// * * * * * * * * * * * * * * * * * * * * * * * * * * * * * * * * * * * * * //

dimensions      [0 0 0 0 0 0 0];


internalField   nonuniform List<scalar> 
3125
(
4.26892e-09
7.58497e-06
6.21609e-09
5.39974e-06
4.17092e-06
5.75175e-06
5.3077e-09
5.43812e-09
4.26979e-09
6.87833e-09
5.3159e-09
7.6147e-06
8.73325e-09
5.60884e-07
1.81649e-06
3.94446e-06
6.86665e-06
7.32141e-06
6.37431e-06
2.15822e-06
2.11285e-06
7.76809e-06
7.47893e-06
5.85905e-06
7.51159e-06
1.73243e-06
1.81273e-06
5.93748e-06
6.75972e-06
5.15595e-06
6.27007e-06
1.84854e-06
2.07528e-06
4.72286e-06
4.27614e-06
1.71773e-06
5.83252e-06
1.58057e-06
3.54431e-06
5.05129e-06
3.19332e-06
1.81568e-06
4.62285e-06
1.54583e-06
4.06828e-06
4.17404e-06
3.44882e-06
3.10392e-06
8.03154e-09
6.42133e-09
1.01108e-08
3.43435e-08
7.41287e-08
8.28104e-06
5.39754e-08
8.44928e-06
7.39196e-08
4.90063e-06
5.00611e-06
5.96657e-09
6.34824e-09
4.31797e-09
4.30711e-09
6.00365e-09
6.24902e-09
8.335e-09
5.52239e-09
6.78564e-09
6.38063e-09
5.42401e-09
6.61686e-09
5.0025e-06
8.30526e-06
5.25829e-06
1.02262e-08
4.76616e-08
7.27673e-08
6.67808e-08
1.65066e-06
2.174e-06
4.17542e-06
1.46633e-07
4.05005e-06
1.73958e-06
4.19207e-06
8.46972e-06
1.39307e-07
3.03668e-06
5.27976e-06
1.66532e-07
7.59147e-06
7.73487e-06
2.2286e-06
7.11014e-06
2.59997e-06
2.24817e-06
1.53107e-06
1.42965e-06
1.12412e-06
2.23246e-06
1.369e-06
7.24103e-06
2.71506e-06
2.71143e-06
6.72359e-06
6.61519e-06
4.90017e-06
6.77911e-06
4.58203e-06
1.77166e-06
3.4477e-06
3.68369e-06
3.98136e-06
1.78346e-06
3.76e-06
6.67366e-06
4.1447e-06
4.47412e-06
6.00624e-06
5.89877e-06
2.11322e-06
5.53996e-06
1.79389e-06
1.94315e-06
6.02038e-07
7.71058e-07
1.04564e-06
1.97456e-06
8.34151e-07
5.43658e-06
1.41262e-06
1.6945e-06
4.99769e-06
3.21365e-06
3.57236e-06
3.36639e-06
1.6671e-06
3.11344e-06
5.10165e-06
4.03273e-06
3.68938e-06
2.75394e-06
1.64769e-06
3.02596e-06
4.23128e-06
4.33201e-06
3.84157e-06
7.9068e-07
9.98614e-07
5.52872e-07
1.70962e-06
4.31295e-07
3.937e-06
1.32394e-06
1.07516e-06
3.41063e-07
1.67126e-06
4.00638e-07
6.93933e-09
6.18121e-09
8.6361e-09
9.70199e-09
1.35326e-08
8.08653e-10
7.89367e-06
2.66537e-09
1.34111e-08
8.05602e-09
8.22395e-06
3.89378e-07
2.07629e-07
4.48152e-06
5.43087e-06
5.14425e-09
6.68154e-09
1.88315e-09
4.50365e-09
9.18928e-10
8.09429e-10
4.28547e-09
8.05376e-10
5.17941e-09
5.23179e-09
8.37364e-09
6.06898e-09
7.59033e-09
6.70152e-09
5.33587e-09
6.73349e-09
6.04007e-06
7.91575e-06
6.3198e-06
1.00004e-08
1.31335e-08
1.44254e-08
1.71792e-06
1.48039e-06
6.86831e-07
1.29989e-06
7.42844e-07
2.29722e-06
1.81145e-06
2.29979e-06
8.69018e-06
1.8501e-06
4.36831e-06
6.06352e-06
1.45757e-06
7.1809e-06
7.4853e-06
4.92273e-06
6.68545e-06
5.17127e-06
2.43535e-06
1.20092e-06
1.32462e-06
1.09336e-06
2.15241e-06
1.09599e-06
7.344e-06
5.00403e-06
5.65102e-06
7.15709e-06
6.18233e-06
5.98736e-06
7.19964e-06
5.71143e-06
1.74624e-06
2.1432e-06
2.16819e-06
2.28674e-06
1.8047e-06
2.27171e-06
6.25259e-06
4.72916e-06
5.00028e-06
6.43742e-06
5.47218e-06
4.82174e-06
5.95662e-06
4.58573e-06
1.88055e-06
1.09888e-06
1.09936e-06
1.09225e-06
2.04006e-06
1.09272e-06
5.02627e-06
3.62437e-06
3.84643e-06
4.58393e-06
3.43469e-06
3.69609e-06
2.11666e-06
1.70202e-06
2.08845e-06
5.51867e-06
4.67255e-06
4.40328e-06
1.88085e-06
1.60458e-06
1.92028e-06
3.83467e-06
4.74023e-06
3.46659e-06
2.44878e-06
2.64793e-06
1.09712e-06
1.78171e-06
1.09391e-06
4.32548e-06
3.53518e-06
3.31757e-06
1.03462e-06
1.58941e-06
1.0498e-06
3.37458e-06
2.37145e-06
5.55737e-09
5.79313e-09
7.63185e-09
7.12853e-09
6.75502e-09
6.06644e-09
6.68762e-09
6.32602e-09
9.68721e-09
1.64687e-08
1.59617e-08
1.60856e-08
6.46251e-08
2.41632e-08
3.00286e-08
7.58825e-08
2.93563e-08
7.99712e-06
1.8016e-08
3.16327e-08
1.15753e-08
8.89673e-06
3.94737e-07
4.65626e-08
1.30159e-07
4.58574e-06
5.32441e-06
5.61796e-09
6.71597e-09
4.43037e-09
8.06577e-10
8.472e-10
4.28977e-09
8.0742e-10
8.05818e-10
5.40481e-09
5.30391e-09
5.65572e-09
6.06176e-09
5.7144e-09
5.89857e-09
6.139e-09
5.79151e-09
8.57354e-09
7.47207e-09
7.75578e-09
5.70401e-09
7.00456e-09
7.2105e-09
7.04035e-09
7.10933e-09
7.34329e-09
6.74292e-09
6.42789e-09
6.78236e-09
5.36868e-09
6.87235e-09
6.78673e-09
6.50231e-09
6.95382e-09
6.8486e-09
6.05377e-06
5.10095e-06
6.18969e-06
8.01754e-06
6.67453e-06
6.37558e-06
5.18935e-06
6.44003e-06
6.321e-06
1.02649e-08
1.60394e-08
1.52564e-08
2.36119e-08
5.91036e-08
2.51254e-08
2.98427e-08
6.95008e-08
2.82668e-08
8.5372e-07
1.23714e-07
5.48504e-07
1.4402e-06
2.18696e-06
1.77875e-06
1.36357e-06
2.93125e-06
1.1849e-06
1.99707e-06
8.81912e-07
3.11567e-06
3.65459e-06
2.65091e-06
1.37266e-07
5.39356e-07
5.13772e-07
3.1166e-06
4.11315e-06
3.14639e-06
1.79073e-06
2.25264e-06
2.28898e-06
4.16446e-06
3.15683e-06
3.16383e-06
8.6468e-06
6.74025e-06
6.54816e-06
4.95582e-07
1.57553e-07
5.6451e-07
3.87536e-06
3.97208e-06
1.46002e-06
5.238e-06
1.58612e-06
6.51056e-06
4.74128e-06
6.0085e-06
1.80031e-07
5.48991e-07
5.547e-07
7.28661e-06
8.2705e-06
3.39471e-06
2.35018e-06
3.55389e-06
6.79085e-06
5.562e-06
5.28192e-06
2.47544e-06
3.89615e-06
3.72216e-06
2.39112e-06
1.10593e-06
1.23362e-06
7.47789e-07
1.30437e-06
4.65757e-07
3.70534e-07
1.31472e-06
2.98654e-07
2.89325e-07
1.20701e-06
3.06155e-07
2.19175e-06
1.10831e-06
1.09926e-06
1.29101e-06
3.54273e-07
3.29552e-07
7.56598e-06
5.68041e-06
5.69616e-06
4.21707e-06
2.61516e-06
4.14565e-06
4.06599e-06
2.65781e-06
4.07886e-06
7.04895e-06
6.29033e-06
5.91581e-06
4.79526e-06
5.77634e-06
7.09462e-06
5.38339e-06
5.65775e-06
4.68912e-06
5.49476e-06
5.63593e-06
1.75928e-06
2.21385e-06
2.19172e-06
2.75931e-06
3.52763e-06
2.80949e-06
2.90551e-06
3.60625e-06
2.85819e-06
3.07997e-06
3.9092e-06
3.03923e-06
1.79459e-06
2.23465e-06
2.25406e-06
3.83525e-06
2.95151e-06
2.99618e-06
6.35792e-06
5.32867e-06
5.0559e-06
4.92247e-06
4.25554e-06
5.06678e-06
5.35285e-06
4.36531e-06
5.21022e-06
6.32944e-06
5.57839e-06
3.24339e-06
2.00262e-06
3.09773e-06
5.85232e-06
4.25844e-06
4.48876e-06
1.89645e-06
2.81887e-06
2.95656e-06
1.91196e-06
1.09751e-06
1.09881e-06
4.04498e-07
6.54927e-07
3.80331e-07
3.33382e-07
7.11311e-07
3.56329e-07
2.82255e-07
9.71109e-07
2.84986e-07
2.00668e-06
1.09583e-06
1.09406e-06
9.00771e-07
3.12707e-07
2.95872e-07
5.1281e-06
4.16423e-06
3.93817e-06
2.2961e-06
1.50396e-06
2.42295e-06
2.68426e-06
1.5979e-06
2.55231e-06
4.6871e-06
4.02007e-06
3.75532e-06
3.73351e-06
3.33443e-06
3.88541e-06
4.18665e-06
3.45402e-06
4.03648e-06
2.70759e-06
3.28361e-06
2.6542e-06
1.68516e-06
2.02678e-06
2.05853e-06
3.19931e-06
2.54221e-06
2.59909e-06
5.41416e-06
4.07847e-06
4.34572e-06
4.77727e-06
3.91954e-06
4.63111e-06
4.3358e-06
3.80511e-06
4.48397e-06
2.29632e-06
2.84617e-06
2.36055e-06
1.62688e-06
1.9932e-06
1.9577e-06
2.93686e-06
2.48351e-06
2.42295e-06
3.93291e-06
4.63736e-06
3.55913e-06
2.93485e-06
2.72861e-06
1.38838e-06
8.56205e-07
1.48988e-06
1.70395e-06
9.25566e-07
1.59511e-06
4.28199e-07
5.07774e-07
4.50981e-07
1.74641e-06
1.08226e-06
1.089e-06
4.67117e-07
4.92256e-07
4.72437e-07
4.22759e-06
3.0186e-06
3.23103e-06
2.17192e-06
1.23801e-06
2.05041e-06
1.81624e-06
1.15503e-06
1.93181e-06
5.50815e-07
3.55609e-07
5.39624e-07
1.63122e-06
1.07354e-06
1.06276e-06
3.75401e-07
5.10174e-07
5.26032e-07
3.42899e-09
4.16922e-09
4.28011e-09
3.22947e-09
4.17976e-09
3.40984e-09
3.2404e-09
7.68935e-06
6.97062e-09
4.84628e-09
6.95137e-09
7.68736e-09
5.55679e-09
8.47638e-09
6.15988e-09
2.72767e-06
7.8859e-06
2.5365e-06
4.06192e-06
3.10814e-06
5.83424e-06
1.83425e-06
4.27405e-06
5.64465e-06
4.28487e-09
4.13256e-09
6.05034e-09
4.92236e-09
4.81167e-09
5.41743e-09
3.70913e-09
3.43678e-09
4.17322e-09
3.23082e-09
4.28182e-09
3.41322e-09
4.18784e-09
3.24215e-09
8.20302e-06
8.1512e-06
7.10641e-06
7.71608e-06
8.25003e-06
7.20098e-06
8.10958e-06
6.97217e-06
8.29751e-06
5.01469e-06
5.80599e-06
5.60946e-06
6.47821e-06
5.90443e-06
5.71377e-06
4.91292e-06
7.2837e-06
8.56448e-06
6.58722e-06
8.58259e-06
7.19831e-06
8.05342e-06
7.6556e-06
7.3724e-06
5.96672e-06
7.91811e-06
8.05019e-06
7.01002e-06
7.40839e-06
8.01375e-06
7.94903e-06
6.91457e-06
6.63068e-06
6.04243e-06
6.48833e-06
5.55664e-06
6.59396e-06
5.65336e-06
6.5297e-06
6.65287e-06
5.26094e-06
4.71246e-06
5.70822e-06
5.50512e-06
6.16571e-06
4.8118e-06
5.61067e-06
5.40166e-06
3.48302e-06
4.82361e-06
4.28072e-06
3.99783e-06
4.37335e-06
4.09428e-06
3.39358e-06
4.98501e-06
4.3784e-06
4.7854e-06
4.01926e-06
4.8925e-06
4.11399e-06
4.88008e-06
6.32731e-06
5.72795e-06
6.38277e-06
5.45949e-06
6.27726e-06
6.42851e-06
5.36314e-06
3.64035e-06
4.9473e-06
2.15923e-06
3.28365e-06
2.88195e-06
2.56595e-06
2.96436e-06
2.64813e-06
2.08572e-06
3.21683e-06
4.52321e-06
4.18905e-06
3.90198e-06
3.30459e-06
4.09759e-06
3.80706e-06
4.67839e-06
3.92437e-06
4.77496e-06
2.80066e-06
2.48471e-06
2.01301e-06
8.20191e-06
2.85142e-08
3.67045e-08
4.93695e-08
4.182e-08
3.66658e-08
3.34027e-08
3.01241e-08
8.49722e-06
9.21341e-08
1.29924e-07
7.93841e-08
5.759e-08
4.95973e-08
1.33613e-07
9.55782e-08
4.79542e-06
5.11203e-06
3.55569e-09
4.35081e-09
4.31666e-09
3.25634e-09
3.50033e-09
4.38344e-09
3.27482e-09
3.47598e-09
4.30438e-09
4.27425e-09
3.24996e-09
3.47771e-09
4.25562e-09
3.25523e-09
8.6788e-06
8.22156e-06
8.8011e-06
7.78105e-06
8.74578e-06
8.73367e-06
7.69253e-06
8.86014e-06
8.51109e-06
9.01273e-06
7.93866e-06
8.92335e-06
8.93327e-06
7.99034e-06
7.49721e-06
7.83506e-06
5.56343e-06
7.00538e-06
6.53076e-06
6.37087e-06
6.42189e-06
6.25808e-06
5.68037e-06
5.91303e-06
7.34978e-06
6.65544e-06
6.49351e-06
6.76051e-06
6.60973e-06
5.80153e-06
6.83218e-06
6.50684e-06
7.42916e-06
6.88435e-06
7.32828e-06
6.33323e-06
7.43269e-06
7.33021e-06
6.43011e-06
7.13173e-06
6.56852e-06
7.22382e-06
6.23575e-06
7.11932e-06
7.231e-06
6.13905e-06
6.11378e-06
5.79184e-06
4.22571e-06
5.6439e-06
5.03176e-06
4.78733e-06
5.12775e-06
4.88856e-06
4.13058e-06
3.94211e-06
5.33338e-06
4.9367e-06
4.68653e-06
4.84163e-06
4.58647e-06
4.03579e-06
5.50658e-06
4.8941e-06
5.53377e-06
4.68762e-06
5.42724e-06
5.60992e-06
4.59198e-06
5.81634e-06
5.20568e-06
5.64037e-06
4.78404e-06
5.74694e-06
5.71329e-06
4.88012e-06
4.13136e-06
4.43325e-06
2.54515e-06
3.74674e-06
3.47358e-06
3.16339e-06
3.38682e-06
3.07513e-06
2.6255e-06
2.7897e-06
4.03333e-06
3.56074e-06
3.25278e-06
3.64899e-06
3.34306e-06
2.70723e-06
7.49742e-09
6.24835e-09
5.9071e-09
7.36948e-09
6.01051e-09
8.96397e-09
6.38693e-09
5.0441e-09
7.01077e-09
9.69055e-09
1.03148e-08
7.69116e-09
2.50255e-08
2.9668e-08
2.63167e-08
3.50615e-08
1.56018e-08
9.62481e-09
2.09745e-08
3.23397e-08
1.75142e-08
1.25404e-08
1.13821e-08
1.54792e-08
3.43903e-09
4.2857e-09
4.18174e-09
3.24465e-09
9.56226e-10
1.35673e-09
8.07534e-10
9.47279e-10
1.36092e-09
8.05715e-10
1.36107e-09
7.79351e-06
4.67283e-09
3.31949e-09
3.85794e-09
3.3536e-09
4.5844e-09
8.65689e-09
9.78693e-09
1.38896e-08
1.10763e-08
1.02886e-08
1.16281e-08
8.02827e-09
6.38451e-09
5.5628e-09
8.99687e-09
8.9638e-09
6.37921e-09
1.06547e-05
3.86781e-07
8.1279e-07
1.35403e-06
2.24078e-07
1.98029e-06
3.18107e-07
4.97317e-07
8.11665e-07
1.00886e-06
3.01954e-07
1.52983e-07
4.89665e-07
8.79754e-08
3.97487e-07
4.37766e-06
5.53772e-06
5.03395e-09
5.10652e-09
4.1725e-09
4.17909e-09
4.16089e-09
5.03728e-09
5.12289e-09
5.06146e-09
5.09731e-09
6.07523e-09
6.41714e-09
5.7719e-09
4.35496e-09
4.36041e-09
5.76611e-09
5.75314e-09
6.09668e-09
6.43503e-09
6.0897e-09
6.43397e-09
1.9097e-09
2.50626e-09
1.37156e-09
2.50958e-09
1.98199e-09
4.00339e-09
4.67501e-09
4.7546e-09
3.37274e-09
5.02921e-09
3.78645e-09
3.49568e-09
1.53307e-09
1.07417e-09
1.50103e-09
1.27891e-09
1.67567e-09
9.55904e-10
1.35605e-09
8.09162e-10
9.48412e-10
1.35708e-09
3.44675e-09
4.28689e-09
4.20006e-09
3.24114e-09
4.19743e-09
3.43772e-09
3.24612e-09
9.52751e-10
8.08727e-10
1.34516e-09
9.41142e-10
1.35274e-09
5.10961e-09
5.25477e-09
5.17329e-09
5.17718e-09
4.21943e-09
4.2028e-09
5.10332e-09
5.13207e-09
5.07635e-09
5.17248e-09
4.24342e-09
4.28584e-09
7.89525e-09
7.63702e-09
8.22295e-09
7.15117e-09
7.49699e-09
6.70844e-09
6.35937e-09
8.92806e-09
7.31725e-09
5.32888e-09
5.47938e-09
6.70261e-09
8.01933e-09
9.95878e-09
9.7545e-09
8.64412e-09
6.15352e-09
6.50766e-09
6.49756e-09
6.14566e-09
5.78287e-09
4.35492e-09
5.78775e-09
4.37877e-09
6.11353e-09
6.45665e-09
6.1177e-09
6.46376e-09
5.81444e-09
4.39585e-09
4.38541e-09
5.81329e-09
8.14081e-06
8.05209e-06
8.29798e-06
7.81767e-06
8.44355e-06
7.39022e-06
8.34953e-06
7.29726e-06
8.38721e-06
7.89594e-06
7.99419e-06
1.3765e-08
2.50151e-08
1.71723e-08
2.41278e-08
1.25191e-08
8.48509e-09
9.55796e-09
9.1588e-09
1.21063e-08
1.62369e-08
1.22796e-08
2.01281e-08
1.41066e-08
1.1109e-08
9.90909e-09
1.41255e-08
3.60229e-06
5.06401e-06
3.79217e-06
5.48176e-06
4.35369e-06
3.58146e-06
4.11989e-06
3.16954e-06
5.26358e-06
3.64397e-06
4.1504e-06
4.20327e-06
3.64225e-06
3.2675e-06
3.32724e-06
3.31594e-06
3.24443e-06
3.6567e-06
4.1931e-06
3.64852e-06
4.15192e-06
8.41718e-06
1.06957e-05
6.57094e-06
3.62573e-06
7.20767e-06
9.19303e-06
9.09485e-06
1.36989e-05
7.66949e-06
1.2241e-05
7.163e-06
1.22698e-05
1.06713e-05
1.97926e-06
1.21876e-05
3.2618e-06
7.07809e-06
9.09552e-06
3.35083e-06
3.26072e-06
5.11897e-06
6.58238e-06
6.10347e-06
5.92514e-06
6.00372e-06
5.81964e-06
5.22443e-06
3.0699e-06
3.15304e-06
2.88869e-06
2.32658e-06
2.96715e-06
2.20282e-06
2.92371e-06
2.896e-06
3.3417e-06
3.4747e-06
2.49619e-06
1.9326e-06
1.94885e-06
2.42078e-06
2.72825e-06
2.19414e-06
2.21939e-06
2.77167e-06
3.13748e-06
3.13771e-06
2.76719e-06
2.23953e-06
2.7239e-06
2.21586e-06
3.16174e-06
3.16196e-06
4.5567e-06
4.93511e-06
7.01952e-06
7.92206e-06
6.79705e-06
7.009e-06
6.91852e-06
7.61417e-06
6.46606e-06
6.15432e-06
5.35196e-06
7.265e-06
6.07446e-06
7.57463e-06
7.67934e-06
7.82111e-06
7.3041e-06
7.74373e-06
6.72138e-06
7.84665e-06
6.81771e-06
7.72386e-06
7.83924e-06
7.73647e-06
3.47989e-06
3.91507e-06
3.50891e-06
3.92934e-06
3.15041e-06
3.17936e-06
3.20983e-06
3.17826e-06
3.47215e-06
3.87681e-06
3.44129e-06
3.86532e-06
3.64249e-06
4.141e-06
4.11205e-06
3.62418e-06
3.32588e-06
3.27376e-06
3.64026e-06
4.13683e-06
3.65456e-06
4.17069e-06
3.26985e-06
3.31687e-06
6.83996e-06
6.73158e-06
6.73142e-06
6.14761e-06
6.80436e-06
5.8473e-06
6.69929e-06
5.7507e-06
6.83167e-06
6.55657e-06
6.66555e-06
6.54509e-06
5.36656e-06
2.72222e-06
2.79688e-06
4.61351e-06
6.06124e-06
5.41646e-06
5.19521e-06
5.51366e-06
5.29814e-06
4.51563e-06
2.96969e-06
2.89151e-06
2.61617e-06
2.24597e-06
2.66166e-06
2.25675e-06
2.89426e-06
2.88703e-06
2.92605e-06
2.93193e-06
2.63563e-06
2.24569e-06
2.58982e-06
2.23655e-06
2.75162e-06
2.26455e-06
2.24559e-06
2.70727e-06
3.11306e-06
3.11316e-06
2.71731e-06
2.23337e-06
2.76103e-06
2.25479e-06
3.08742e-06
3.08662e-06
2.02248e-06
1.9567e-06
3.57354e-06
4.92471e-06
4.55943e-06
4.28926e-06
4.46603e-06
4.19161e-06
3.66443e-06
1.81621e-06
1.88062e-06
5.37605e-06
5.26172e-06
5.08978e-06
4.48116e-06
5.10646e-06
4.30445e-06
4.99959e-06
4.20944e-06
5.19417e-06
5.06628e-06
5.18124e-06
3.38891e-06
3.76161e-06
3.75568e-06
3.35447e-06
3.14586e-06
3.11966e-06
3.08593e-06
3.10932e-06
3.39959e-06
3.81221e-06
3.43218e-06
3.82101e-06
6.19949e-06
6.30988e-06
6.22557e-06
5.62318e-06
6.06538e-06
5.16972e-06
6.17146e-06
5.26613e-06
6.12362e-06
6.48888e-06
6.37917e-06
3.07531e-06
3.41659e-06
3.40787e-06
3.11933e-06
2.81274e-06
2.81815e-06
2.87581e-06
2.86728e-06
3.05404e-06
3.32507e-06
3.00802e-06
3.33696e-06
3.73733e-06
4.84343e-06
1.01538e-06
9.63369e-07
2.23426e-06
3.37471e-06
3.13113e-06
2.81577e-06
3.04728e-06
2.73154e-06
2.31012e-06
8.62936e-07
9.1284e-07
2.57445e-06
2.21376e-06
2.20812e-06
2.52774e-06
2.84515e-06
2.8539e-06
2.56048e-06
2.22393e-06
2.60659e-06
2.23146e-06
2.81055e-06
2.80018e-06
1.5482e-06
1.60965e-06
3.12956e-06
4.42416e-06
3.91635e-06
3.61906e-06
4.00693e-06
3.71262e-06
3.04335e-06
1.74306e-06
1.68009e-06
2.30784e-06
2.07162e-06
2.06634e-06
2.35901e-06
2.47594e-06
2.45342e-06
2.30382e-06
2.02382e-06
2.25153e-06
2.03166e-06
2.52093e-06
2.54149e-06
4.98406e-06
5.56991e-09
6.32377e-09
6.29193e-09
5.74726e-09
4.77648e-09
4.52381e-09
4.70122e-09
5.2947e-09
5.72366e-09
5.50449e-09
5.78936e-09
5.40368e-09
7.90502e-09
6.60815e-09
7.85897e-09
6.77369e-09
8.60281e-09
1.07626e-08
1.07162e-08
8.73791e-09
8.36791e-09
1.0333e-08
8.08136e-09
1.03576e-08
8.18598e-09
7.18153e-09
7.00509e-09
8.25452e-09
6.20262e-09
6.74181e-09
6.10306e-09
6.79965e-09
6.48096e-09
6.28494e-09
6.15539e-09
6.57933e-09
6.23312e-09
5.85959e-09
6.18056e-09
5.92024e-09
6.43272e-09
7.14027e-09
7.0492e-09
6.58616e-09
2.76874e-08
3.11313e-08
2.71282e-08
3.17675e-08
1.70805e-08
1.36956e-08
1.38047e-08
1.72919e-08
1.6527e-08
1.30415e-08
1.64524e-08
1.35133e-08
2.83459e-08
3.39845e-08
3.27252e-08
2.75354e-08
8.06825e-08
6.23891e-08
6.25621e-08
6.80246e-08
1.41434e-07
1.8535e-07
7.66797e-08
5.33597e-08
1.57434e-07
1.60913e-07
1.45249e-07
1.79854e-07
7.28795e-08
6.37529e-08
6.40158e-08
7.04812e-08
1.51395e-07
1.87784e-07
1.4684e-07
1.71633e-07
7.54253e-08
6.37798e-08
6.59518e-08
8.01583e-08
1.45408e-07
1.58116e-07
1.47592e-07
1.67309e-07
8.08996e-06
2.1853e-08
2.58566e-08
1.75673e-08
1.50111e-08
1.50421e-08
2.61699e-08
2.18073e-08
2.30902e-08
3.33224e-08
2.3162e-08
2.97726e-08
2.47912e-08
1.73613e-08
1.26674e-08
1.66056e-08
1.23317e-08
1.79108e-08
8.94683e-06
1.6262e-07
2.18174e-07
4.48335e-07
2.2296e-07
3.0926e-07
2.77462e-07
1.58178e-07
5.59353e-08
4.74805e-08
6.91176e-08
4.09504e-08
6.94077e-08
9.49271e-08
1.29682e-07
1.00727e-07
1.06029e-07
1.06675e-07
4.69049e-06
5.21811e-06
5.49933e-09
5.44776e-09
5.70896e-09
5.85896e-09
5.81994e-09
5.74866e-09
5.72515e-09
5.84296e-09
5.47961e-09
5.47115e-09
5.43661e-09
5.51257e-09
6.27227e-09
6.5421e-09
6.11583e-09
6.03921e-09
5.99667e-09
6.15235e-09
6.12881e-09
6.01504e-09
6.27004e-09
6.56867e-09
6.55776e-09
6.29564e-09
3.60777e-09
4.3787e-09
4.58257e-09
3.31725e-09
3.67519e-09
4.46657e-09
3.29306e-09
1.01653e-09
1.34724e-09
8.09534e-10
9.8076e-10
1.35718e-09
1.0632e-09
1.41506e-09
8.20302e-10
1.1421e-09
1.37572e-09
3.47336e-09
4.30273e-09
4.21425e-09
3.24464e-09
3.44602e-09
4.2349e-09
3.25463e-09
9.65659e-10
1.34622e-09
8.10723e-10
9.68828e-10
1.34934e-09
9.59119e-10
1.34383e-09
8.0931e-10
9.4281e-10
1.34821e-09
5.26928e-09
5.24798e-09
5.17089e-09
5.34932e-09
4.39574e-09
4.50993e-09
5.26869e-09
5.50115e-09
5.4302e-09
5.34989e-09
4.37276e-09
4.30786e-09
5.56697e-09
5.60246e-09
5.51503e-09
5.65652e-09
5.80147e-09
5.8563e-09
5.74578e-09
5.90873e-09
5.56761e-09
5.47494e-09
5.52229e-09
5.5151e-09
5.78991e-09
5.98952e-09
5.87943e-09
5.90964e-09
5.75757e-09
5.58488e-09
5.70374e-09
5.64134e-09
5.9828e-09
6.26735e-09
6.16418e-09
6.10339e-09
5.75017e-09
5.87382e-09
5.92146e-09
5.69796e-09
5.98462e-09
5.98894e-09
5.86421e-09
6.09246e-09
8.36343e-09
7.78257e-09
8.55327e-09
7.5722e-09
8.83274e-09
1.07396e-08
8.85042e-09
1.07121e-08
8.38222e-09
7.34725e-09
8.35432e-09
7.4611e-09
8.83197e-09
1.05882e-08
8.89191e-09
1.04144e-08
6.71189e-09
7.38394e-09
7.00164e-09
7.11604e-09
6.18209e-09
4.58683e-09
4.65807e-09
6.08354e-09
6.29836e-09
4.91778e-09
6.55391e-09
4.83985e-09
6.58417e-09
6.84809e-09
6.96491e-09
6.47127e-09
7.02498e-09
7.60116e-09
7.39701e-09
7.27458e-09
6.81286e-09
6.4659e-09
6.73264e-09
6.58922e-09
6.89235e-09
7.27064e-09
6.76448e-09
7.32978e-09
6.9135e-09
7.00166e-09
7.15088e-09
6.72919e-09
6.35043e-09
6.64345e-09
6.62527e-09
6.37903e-09
6.18586e-09
6.03549e-09
6.15439e-09
6.0805e-09
6.32762e-09
6.58545e-09
6.5987e-09
6.30434e-09
6.20135e-09
6.14619e-09
6.08253e-09
6.24445e-09
6.21558e-09
6.5726e-09
6.21763e-09
6.57855e-09
5.95352e-09
4.50974e-09
4.47507e-09
5.98158e-09
5.86729e-09
4.40767e-09
5.86974e-09
4.44965e-09
6.32152e-09
6.71819e-09
6.34746e-09
6.68056e-09
6.47433e-09
6.70589e-09
6.42771e-09
6.72461e-09
6.40182e-09
6.43376e-09
6.28316e-09
6.5275e-09
6.34741e-09
6.16039e-09
6.25093e-09
6.28003e-09
6.54714e-09
6.88496e-09
6.64451e-09
6.82539e-09
7.34423e-06
7.90869e-06
7.83938e-06
7.41198e-06
6.93893e-06
6.39804e-06
6.45788e-06
6.92241e-06
7.02853e-06
6.53411e-06
7.03516e-06
6.48337e-06
7.29874e-06
7.69918e-06
7.77495e-06
7.22342e-06
8.20898e-06
8.26781e-06
8.56504e-06
8.11048e-06
8.54464e-06
7.48942e-06
8.48498e-06
8.62856e-06
7.5809e-06
8.34863e-06
8.36224e-06
7.50411e-06
7.97535e-06
7.45706e-06
8.02602e-06
7.17966e-06
6.57458e-06
6.5828e-06
7.12369e-06
7.1074e-06
6.55531e-06
7.12402e-06
6.58429e-06
7.53705e-06
8.09919e-06
8.08676e-06
7.5481e-06
2.32258e-08
3.05909e-08
1.9743e-08
3.07849e-08
1.69952e-08
1.3636e-08
1.69555e-08
1.29951e-08
2.4851e-08
3.30977e-08
2.72678e-08
3.39621e-08
1.58358e-08
1.17973e-08
1.59143e-08
1.25517e-08
5.24777e-08
3.40264e-08
2.26878e-08
5.92902e-08
3.00472e-08
7.70858e-08
3.53885e-08
8.68184e-08
3.97449e-08
1.91633e-08
1.73251e-08
3.26491e-08
4.00366e-08
1.50269e-07
7.48025e-08
1.1991e-07
7.5606e-08
4.27513e-08
5.35617e-08
7.5211e-08
1.36345e-07
1.86784e-07
1.49349e-07
1.99373e-07
8.27157e-08
6.37379e-08
7.90177e-08
5.75602e-08
1.28693e-07
1.8907e-07
1.00753e-07
1.8743e-07
9.34563e-07
1.29154e-06
1.31656e-06
8.47561e-07
4.6223e-07
4.03885e-07
3.99385e-07
3.49068e-07
4.03649e-07
4.21786e-07
1.3137e-06
3.036e-06
3.1169e-06
3.23236e-06
2.72106e-06
3.70581e-06
2.95196e-06
3.12133e-06
2.79447e-06
2.26333e-06
3.37175e-06
4.06825e-06
3.90397e-06
3.4585e-06
4.43538e-06
5.22934e-06
5.02412e-06
3.98525e-06
6.03771e-06
4.88051e-06
4.75355e-06
7.22388e-06
5.9344e-06
6.37861e-06
5.79668e-06
5.33782e-06
4.71454e-06
3.6827e-06
4.08633e-06
4.18891e-06
5.40922e-06
6.16552e-06
5.51585e-06
5.98183e-06
4.93346e-06
4.45838e-06
4.3708e-06
5.10999e-06
5.10427e-06
5.16049e-06
4.64923e-06
5.72675e-06
8.75408e-07
1.05852e-06
8.26371e-07
1.16874e-06
4.30925e-07
3.63122e-07
3.68602e-07
4.78573e-07
4.18253e-07
3.55219e-07
3.51345e-07
3.77281e-07
9.33086e-07
1.27649e-06
1.16182e-06
9.39338e-07
5.16856e-06
4.59189e-06
4.57554e-06
5.13581e-06
5.53741e-06
6.05856e-06
6.05712e-06
5.49394e-06
5.54528e-06
6.11708e-06
6.12987e-06
5.57895e-06
5.10874e-06
4.55497e-06
4.58104e-06
5.1299e-06
3.60137e-06
4.19589e-06
3.62057e-06
4.12186e-06
3.21801e-06
3.09638e-06
3.19467e-06
3.28631e-06
3.55682e-06
4.04282e-06
3.51222e-06
4.14742e-06
5.13485e-06
4.57814e-06
5.19043e-06
4.57574e-06
5.56846e-06
6.12032e-06
6.1975e-06
5.54827e-06
5.59304e-06
6.18653e-06
6.14943e-06
5.57998e-06
5.16794e-06
4.50699e-06
5.07769e-06
4.53663e-06
7.75163e-06
8.69414e-06
9.35198e-06
8.88035e-06
8.65511e-06
7.8533e-06
8.52158e-06
9.61949e-06
8.15646e-06
8.54732e-06
8.25299e-06
3.07201e-07
1.45554e-06
1.13458e-06
5.51133e-07
2.9492e-07
1.19325e-07
2.18253e-07
1.05279e-07
5.05563e-07
1.43902e-06
1.49635e-06
5.3858e-07
3.32479e-07
2.00129e-07
1.008e-07
4.2749e-07
6.49286e-06
9.66427e-06
7.744e-06
7.36536e-06
8.81957e-06
7.51429e-06
6.29829e-06
7.60363e-06
6.7196e-06
5.58364e-06
8.48234e-06
6.91642e-06
7.2042e-06
7.45275e-06
7.87012e-06
6.6631e-06
7.0258e-06
6.56465e-06
7.19192e-06
6.45199e-06
7.48819e-06
8.18626e-06
7.58684e-06
8.05088e-06
6.74517e-06
5.60841e-06
6.12823e-06
6.16059e-06
9.66743e-07
1.69488e-06
8.05875e-07
1.53636e-06
5.25538e-07
3.73959e-07
3.50511e-07
4.87058e-07
5.11744e-07
2.71418e-07
3.38995e-07
5.25068e-07
9.61762e-07
1.32707e-06
1.00026e-06
1.4495e-06
7.38544e-06
8.08608e-06
2.01535e-06
2.76496e-06
2.66065e-06
2.11583e-06
1.5125e-06
9.82732e-07
1.06149e-06
1.41588e-06
1.54583e-06
1.14242e-06
1.64877e-06
1.06156e-06
1.95518e-06
2.48211e-06
2.57963e-06
1.85947e-06
3.46932e-06
3.56656e-06
5.44617e-06
6.89364e-06
6.20682e-06
6.03434e-06
5.33476e-06
6.31013e-06
6.14258e-06
3.79389e-06
3.69131e-06
2.28852e-06
2.85637e-06
2.18567e-06
2.96718e-06
1.83027e-06
1.31536e-06
1.23935e-06
1.93872e-06
1.79483e-06
1.15081e-06
1.68822e-06
1.22986e-06
2.35893e-06
3.17441e-06
3.05949e-06
2.46249e-06
2.93432e-06
2.37501e-06
3.06182e-06
2.31944e-06
3.3007e-06
3.26105e-06
2.86337e-06
2.18062e-06
2.2112e-06
2.77266e-06
3.4283e-06
3.50804e-06
1.22025e-06
1.82362e-06
1.7826e-06
1.24685e-06
1.30605e-06
2.1945e-06
1.72812e-06
1.69535e-06
1.09114e-06
1.1185e-06
9.49821e-07
1.35809e-06
1.30978e-06
1.61931e-06
1.59569e-06
1.51298e-06
1.24789e-06
1.94423e-06
1.83185e-06
1.28434e-06
9.33263e-07
9.5724e-07
8.65053e-07
9.9112e-07
1.17712e-06
1.70754e-06
1.78884e-06
1.16469e-06
9.0981e-07
9.99878e-07
1.01944e-06
9.48497e-07
1.32879e-06
1.82968e-06
1.80317e-06
1.28956e-06
1.08666e-06
8.7548e-07
8.92169e-07
1.053e-06
1.00927e-06
9.12221e-07
8.89049e-07
1.04351e-06
1.34296e-06
1.83971e-06
1.86712e-06
1.37922e-06
2.77813e-06
2.19482e-06
2.73112e-06
2.17304e-06
3.22066e-06
3.23131e-06
2.74661e-06
2.16915e-06
2.80176e-06
2.18193e-06
3.18945e-06
3.18555e-06
1.23111e-06
1.76037e-06
1.26913e-06
1.79025e-06
9.10969e-07
9.64677e-07
9.30564e-07
9.53588e-07
9.95263e-07
9.08618e-07
9.37585e-07
9.58892e-07
1.21465e-06
1.76765e-06
1.18287e-06
1.72842e-06
4.24203e-06
4.11053e-06
5.9912e-06
7.48072e-06
6.8767e-06
6.86916e-06
6.17748e-06
6.8187e-06
6.69567e-06
3.93187e-06
4.02069e-06
3.28365e-06
3.83453e-06
4.19037e-06
2.9881e-06
2.92841e-06
2.75397e-06
2.16385e-06
3.51139e-06
2.62628e-06
1.56189e-06
1.83367e-06
2.31903e-06
3.56605e-06
5.17789e-06
4.51102e-06
4.26697e-06
2.63275e-06
3.53486e-06
3.40665e-06
2.72074e-06
2.07252e-06
1.33473e-06
1.98444e-06
1.38435e-06
2.63422e-06
3.28383e-06
2.54894e-06
3.38946e-06
2.02263e-06
1.40144e-06
1.331e-06
2.11355e-06
6.94061e-06
6.39864e-06
7.04602e-06
7.40429e-06
7.48564e-06
6.96438e-06
6.80808e-06
6.36796e-06
6.83054e-06
6.30302e-06
7.09578e-06
7.63267e-06
7.55332e-06
7.17524e-06
6.7155e-06
6.20312e-06
6.68957e-06
6.27069e-06
7.51606e-06
7.41025e-06
7.52783e-06
6.9897e-06
7.6403e-06
6.62412e-06
7.6259e-06
7.5367e-06
6.52758e-06
7.24376e-06
7.35034e-06
6.82986e-06
7.33503e-06
6.91298e-06
7.25232e-06
6.47358e-06
5.99202e-06
6.06283e-06
6.44248e-06
6.56745e-06
6.16854e-06
6.59623e-06
6.09913e-06
6.77697e-06
7.09784e-06
7.18181e-06
6.69259e-06
3.54258e-06
3.97841e-06
3.51537e-06
3.96162e-06
3.26223e-06
3.22522e-06
3.54776e-06
4.00478e-06
4.02434e-06
3.57312e-06
3.20316e-06
3.23748e-06
4.67747e-06
4.2632e-06
4.21816e-06
4.68175e-06
4.93089e-06
5.29185e-06
5.3164e-06
4.8688e-06
4.9593e-06
5.42139e-06
5.01973e-06
5.39936e-06
4.60519e-06
4.15537e-06
4.20198e-06
4.59842e-06
4.75488e-06
4.2777e-06
4.32102e-06
4.75316e-06
5.13021e-06
5.62212e-06
5.18773e-06
5.60486e-06
4.82558e-06
4.37564e-06
4.33394e-06
4.8248e-06
5.10537e-06
5.50364e-06
5.04631e-06
5.52331e-06
5.01288e-06
4.48171e-06
4.51716e-06
5.02243e-06
5.43112e-06
5.98201e-06
5.48018e-06
5.97682e-06
5.07943e-06
4.55381e-06
4.52184e-06
5.06547e-06
5.41424e-06
5.88949e-06
5.89881e-06
5.36207e-06
3.6026e-06
4.08064e-06
3.6238e-06
4.10603e-06
3.24407e-06
3.284e-06
3.60037e-06
4.06694e-06
3.57689e-06
4.04465e-06
3.3024e-06
3.25932e-06
4.96049e-06
4.47426e-06
4.9543e-06
4.43623e-06
5.26691e-06
5.70293e-06
5.71784e-06
5.21094e-06
5.28833e-06
5.81021e-06
5.79792e-06
5.34265e-06
4.89132e-06
4.38689e-06
4.89475e-06
4.4268e-06
6.90444e-06
7.01221e-06
7.03199e-06
6.46316e-06
6.90952e-06
5.94472e-06
6.93199e-06
7.01461e-06
6.0416e-06
7.18229e-06
7.07512e-06
6.26546e-06
6.70729e-06
6.61995e-06
6.35324e-06
5.9549e-06
5.53389e-06
5.61008e-06
5.91474e-06
6.05096e-06
5.72783e-06
5.65294e-06
6.08883e-06
6.20678e-06
6.45566e-06
6.54428e-06
6.11766e-06
6.49707e-06
6.78166e-06
6.86789e-06
6.41043e-06
6.31474e-06
5.95412e-06
6.34807e-06
5.88192e-06
6.55283e-06
7.02594e-06
6.63824e-06
6.94094e-06
6.21981e-06
5.76896e-06
5.84242e-06
6.18425e-06
6.22175e-06
5.68487e-06
1.66842e-06
2.16044e-06
2.24811e-06
1.58073e-06
1.29629e-06
9.90082e-07
1.38655e-06
9.13983e-07
1.7151e-06
2.40822e-06
2.31627e-06
1.80638e-06
1.27086e-06
8.55624e-07
1.1867e-06
9.28417e-07
2.63186e-06
2.55967e-06
4.32183e-06
5.74797e-06
5.32009e-06
5.09255e-06
4.41821e-06
5.2236e-06
4.99049e-06
2.40229e-06
2.47253e-06
1.45406e-06
2.09658e-06
1.53899e-06
2.01205e-06
1.06475e-06
7.68585e-07
8.33632e-07
9.92313e-07
1.08555e-06
8.76405e-07
1.16389e-06
8.07222e-07
1.41673e-06
1.86959e-06
1.95153e-06
1.33392e-06
2.68497e-06
2.26467e-06
2.63972e-06
2.25248e-06
2.99657e-06
3.00012e-06
2.66058e-06
2.25585e-06
2.26957e-06
2.70565e-06
2.96709e-06
2.9625e-06
1.56788e-06
1.97706e-06
1.94502e-06
1.54405e-06
1.30001e-06
9.34873e-07
9.13124e-07
1.27534e-06
1.2548e-06
8.97073e-07
1.28057e-06
9.16185e-07
1.55837e-06
1.94566e-06
1.97772e-06
1.58118e-06
1.52694e-06
1.9414e-06
1.97331e-06
1.55181e-06
1.20821e-06
8.73536e-07
1.23692e-06
8.85111e-07
1.53301e-06
1.96649e-06
1.9346e-06
1.50712e-06
1.25956e-06
8.993e-07
1.23228e-06
8.8365e-07
1.42614e-06
1.89294e-06
1.92328e-06
1.45655e-06
1.09135e-06
8.77959e-07
1.12473e-06
8.6765e-07
1.42161e-06
1.89866e-06
1.86963e-06
1.38855e-06
1.15747e-06
8.64941e-07
8.693e-07
1.12475e-06
2.6944e-06
2.25289e-06
2.73916e-06
2.26993e-06
3.03105e-06
3.02849e-06
2.72375e-06
2.27141e-06
2.67875e-06
2.25617e-06
3.05849e-06
3.06015e-06
1.48604e-06
1.94216e-06
1.45757e-06
1.91091e-06
1.21268e-06
8.74155e-07
8.67458e-07
1.18247e-06
1.15487e-06
8.65867e-07
8.67324e-07
1.18648e-06
1.48415e-06
1.92461e-06
1.5112e-06
1.95626e-06
2.10104e-06
2.16825e-06
3.84877e-06
5.23065e-06
4.65288e-06
4.38769e-06
3.75635e-06
4.74731e-06
4.48674e-06
2.31826e-06
2.2496e-06
1.00755e-06
1.54772e-06
1.47199e-06
1.08522e-06
7.43202e-07
7.06342e-07
7.50886e-07
6.98338e-07
7.59017e-07
7.59339e-07
7.09252e-07
8.11777e-07
9.86003e-07
1.34857e-06
1.42232e-06
9.10023e-07
1.19009e-06
1.59987e-06
1.67755e-06
1.11084e-06
9.06547e-07
8.00128e-07
9.72952e-07
7.39617e-07
1.2196e-06
1.81216e-06
1.30055e-06
1.73239e-06
8.8854e-07
7.20044e-07
7.75466e-07
8.2869e-07
5.45456e-06
5.56819e-06
5.40271e-06
4.79047e-06
5.21341e-06
4.40025e-06
5.29854e-06
5.32048e-06
4.49584e-06
5.75768e-06
5.64487e-06