/*--------------------------------*- C++ -*----------------------------------*\
| =========                 |                                                 |
| \\      /  F ield         | OpenFOAM: The Open Source CFD Toolbox           |
|  \\    /   O peration     | Version:  2012                                  |
|   \\  /    A nd           | Website:  www.openfoam.com                      |
|    \\/     M anipulation  |                                                 |
\*---------------------------------------------------------------------------*/
FoamFile
{
    version     2.0;
    format      ascii;
    class       volScalarField;
    location    "0.106/solid";
    object      sigmaMid;
}
// * * * * * * * * * * * * * * * * * * * * * * * * * * * * * * * * * * * * * //

dimensions      [1 -1 -2 0 0 0 0];


internalField   nonuniform List<scalar> 
3125
(
-169.927
5091.81
-143.224
67458.1
4207.36
4790
-208.288
-150.984
-169.97
-196.624
-208.399
-400.558
-186.309
-184.769
-7450.43
20509.1
7616.12
64283.2
2433.18
-35075.2
-2351.24
82249.1
5076.78
4823.02
-384.92
-6966.78
-7375.03
-103.402
7621.54
7055.99
2420.03
-1276.38
-2048.88
2409.32
116.484
-6884.53
-73.4879
-6038.41
5990.08
7018.27
2159.6
-1177.77
2392.65
-394.753
4160.53
134.133
5922.93
2127.32
-258.564
-228.444
-313.029
-675.377
-914.737
5042.37
479.741
4853.96
277.013
4522.65
4574.24
-217.897
-232.695
-168.909
-169.476
-218.945
-224.943
-264.525
-208.825
-241.824
-233.604
-209.051
-238.95
-6639.71
-656.404
-1466.14
-319.079
523.354
-1049.98
-2582.88
-10857.3
37673.7
416.942
-2267.96
-8574.96
-7999.31
-3847.03
1919.89
174.884
50721.1
2666.1
-2515.07
7199.64
7019.53
7313.38
2024.83
7796.95
-7742.93
21155.8
7298.04
7540.47
-4971.2
7986.08
2559.57
40135.8
6884.3
4988.85
4964.91
-6851.44
-262.374
-6949.82
-7173.25
-8340.46
-8532.08
-8636.1
-7231.53
-8582.16
-230.289
-6950.72
-6948.95
7407.32
7383.65
7285.19
2438.81
7115.21
-1546.21
7121.17
7274.56
7495.91
-1635.43
7318.28
2427.61
6898.55
7067.3
48.4677
-6728.28
-6875.1
-8259.59
-6581.19
-7953.57
26.932
-6945.84
-6901.91
-7372.03
-6461.46
-7827.21
6531.22
6593.45
2295.8
6072.88
6463.82
7057.11
-856.534
6807.14
2319.86
6829.84
6570.69
6287.4
-743.214
6699.29
-221.232
-203.245
-266.002
-259.346
-352.438
-25.8511
5125.8
7.21299
-73.8871
46.8601
32185.6
12723.5
4853.3
4342.41
4701.05
-176.61
-232.551
0.805905
-163.396
-9.11495
-25.5906
-169.92
-23.9104
-177.642
-179.184
-233.763
-204.689
-236.942
-232.99
-208.626
-233.635
897.206
-430.221
1593.2
-239.063
-131.163
-236.468
-54668.9
5857.55
8316.92
9720.15
-11427.7
-7982
-7524.18
-8008.54
8418.28
-68743.9
63192.9
44920.6
-10601.9
7596.12
6187.14
924.469
2365.1
-635.313
-16327.2
-14028.6
-5169.6
22.0824
-2827.82
-268.541
11032.9
82356.5
23179
5040.83
4874.12
1226.19
-347.563
947.732
-7041.61
-7643.24
-7707.12
-7935.84
-7333.72
-7920.78
-155.744
1023.91
1113.8
7532
7204.78
-681.378
2435.37
911.843
-1369.96
957.46
878.407
244.151
-1865.35
398.95
2414.07
623.057
-840.906
90.5258
931.165
1056.74
-7571.03
-6791.94
-7488
-37.742
1117.04
1021.84
-6750.78
-6189.08
-6905.18
6236.26
6832.01
2219.35
37.967
-1122.61
1036.97
-1074.22
1116.81
2370.13
-910.54
481.739
1571.29
-512.667
1501.95
1013.19
-1193.42
-187.763
-193.536
-243.018
-241.553
-226
-211.5
-233.181
-216.876
-289.437
-420.182
-374.964
-473.37
-726.535
-611.694
-794.992
-757.621
-663.767
5135.11
-83.4864
284.555
75.2243
14230.6
3972.65
498.744
1850.8
4396.48
4666
-200.441
-242.001
-166.23
-19.308
-12.3423
-169.97
-21.1253
-23.2436
-183.915
-181.218
-201.517
-220.484
-203.103
-207.731
-222.438
-205.129
-257.84
-251.148
-253.08
-207.501
-236.822
-237.202
-245.141
-249.009
-250.634
-242.725
-234.879
-243.714
-208.895
-235.698
-234.552
-236.643
-246.992
-245.144
-5365.7
-5949.51
-4882.56
-293.687
4025.11
761.165
-4765.83
-1570.08
-4147.14
-293.093
-437.656
-377.75
-149.341
-410.686
-466.946
-873.656
-1073.89
-805.911
-12561.5
-1693.92
3110.73
21426
-9298.46
18223.5
23520.9
26284.9
3212.42
17502.5
-1154.03
-3918.78
24682.9
19930.1
-2110.03
2240
1988.73
-8452.27
-8100.63
-8373.63
-8001.94
-8100.63
-8385.37
-7087.84
-6689.01
-8434.98
6440.15
4819.72
40395.9
12499.2
-1918.51
-4476.33
62696.4
33144.7
4361.33
34684.9
1915.51
2361.44
27359.4
32958.6
-2630.67
1489.27
-1569.39
7525.99
11109.4
4837.31
7403.61
4875.02
2410.39
94.0155
1040.56
7119.35
5038.42
4558.07
-10683.4
-2552.71
-2625.5
4257.24
14239.1
7062.46
6916.44
15232.9
9975.86
7631.64
7641
7830.02
-3720.63
-1335.23
-775.989
7427.9
8039.57
7706.68
14428.9
3212.67
11451.4
59310.6
19346.3
21609.1
4022.92
16268.4
15233.2
5022.32
4906.29
-5536.23
-6930.87
-5614.56
-316.243
990.944
1118.1
-6944.31
-5628.04
-5629.43
-7110.62
-7811.74
-7763.18
-8112.33
-8411.94
-8183.81
-8301.93
-8475.77
-8247.25
-8427.09
-8652.65
-8421.31
-7282.84
-7855.01
-7889.53
-8621.97
-8351.07
-8389.06
-186.41
1108.01
1017.5
-5556.1
-6950.74
-5578.65
-5614.51
-6949.71
-5598.08
7518.33
7240.46
4843.27
7215.72
4811.04
2425.12
852.809
-722.258
7165.97
4768.55
4791.03
-1459.1
715.475
798.525
3951.29
7177.21
4082.06
4513.32
7227.62
4262.92
6898.43
7419.89
6015.72
-1735.32
625.633
524.331
7368.63
4861.84
5349.74
2427.63
-776.85
745.317
4664.08
6959.96
4696.46
4747.51
7015.62
4723.52
71.2037
1089.95
982.12
-5253.62
-6789.08
-5301.47
-5389.5
-6836.13
-5345.47
-8032.13
-8168.94
-7941.2
-6691.67
-7289.97
-7394.92
-8067.05
-7726.62
-7840.03
-11.8646
1009.87
1111.66
-5529.27
-6936.85
-5499.35
-5428.35
-6921.65
-5464.99
-7151.28
-7537.55
-7314.81
-6331.14
-7174.14
-7045.55
-7689.42
-7602.52
-7465.34
6304.3
6786.85
2248.1
-1054.67
180.317
4155.51
6214.96
4248.11
4405.91
6345.42
4330.94
3855.43
6984.58
3785.73
-966.723
1274.92
1196.5
6901.21
3698.05
3735.02
2350.16
331.605
-983.71
4626.39
6753.02
4582.66
4471.93
6666.77
4531.27
3611.47
6441.43
3629.71
-627.602
1352.29
1428.45
6578.06
3669.94
3648.25
-116.775
-164.434
-170.134
-107.573
-165.079
-116.587
-107.76
5092.29
-70.3816
-81.9026
-130.792
-133.116
-88.0775
-111.951
-68.4909
-6744.71
57306.9
46180.2
22051
15810.4
10415.9
13548.6
4249.3
4762.03
-98.9323
-86.3446
-136.087
-156.209
-91.3487
-144.521
-92.2796
-116.16
-164.337
-107.455
-170.043
-116.437
-164.589
-107.32
3781.53
4100.4
-1224.48
-412.964
4105.81
-1166.91
3838.01
7623.22
44080.6
-2513.58
2990.08
-89.8385
2400.57
2943.12
-68.4814
-2566.3
34838.3
3300.95
98463.5
64152.2
50235.4
22076
89678.5
5061.57
4830.18
3824.54
4077.8
-1226.05
-382.876
3805.03
4053.71
-1290.69
3588.04
-115.795
3725.7
-1474.22
3732.99
-1436.52
3592.96
7574.5
7105.21
-2603.42
2902.04
-73.7442
2432.28
-2539.85
2936.33
-124.519
-2687.9
2400.96
2677.36
-456.396
2645.6
-420.196
-2720.28
2996.55
111.133
3116.89
-1524.74
3147.07
-1505.71
2972.53
3526.76
-71.3056
3691.22
-1448.31
3652.26
3546.79
-1493.09
6072.65
6940.47
-2559.02
2171.07
2248.69
-745.67
2246.46
-724.62
-2559.44
-2726.16
2389.05
2610.95
-458.645
-2686.44
2633.93
-510.426
3066.58
-1497.7
2904.57
2180.46
-737.485
-2511.61
5053.06
-138.156
-4.41462
835.93
254.531
314.23
-432.507
25.7522
4892.53
498.503
-1316.72
-936.769
164.918
-209.612
1124.63
370.89
4481.74
4593.98
-111.061
-168.633
-160.513
-103.557
-112.101
-160.049
-102.485
-114.082
-169.829
-161.722
-104.472
-113.231
-162.726
-105.296
3849.37
113.859
4283.37
-638.126
4025.56
2662.68
-239.626
659.966
-626.205
3867.46
1963.74
4889.22
4678.09
1065.58
7321.41
6800.94
-2514.74
2391.25
3159.89
-91.319
3284.35
-216.028
-2287.84
-2220.62
2383.57
3847.7
-284.746
4606.4
15.868
-2723.47
4990.26
4943.25
3751.89
-275.143
3944.85
-1392.58
3945.29
3769.4
-1344.67
3723.06
-227.404
3908.18
-1368.76
3878.47
3729.21
-1423.05
7444.96
7317.09
-2631.89
2423.19
2819.38
-257.739
2778.67
-219.101
-2675.62
-2698.14
2431.61
2749.86
-259.042
2783.19
-315.338
-2646.49
3242.29
47.0051
3415.9
-1495.14
3366.16
3277.34
-1531.44
3342.46
17.6494
3459.24
-1520.31
3477.74
3334.02
-1490.67
6441.95
6654.45
-2670.53
2282.52
2426.64
-630.06
2436.1
-671.189
-2649.59
-2672.7
2322.15
2492.44
-628.031
2475.74
-600.68
-2689.24
-278.759
-172.311
-150.081
-278.822
-95.3074
-358.602
-256.105
-151.256
-81.3284
-376.108
-396.518
-117.319
579.309
-1206.99
351.248
-1397.02
-612.305
57.7769
503.647
-1242.86
-686.463
20.8271
96.7106
-619.369
-116.983
-170.167
-165.371
-107.904
-53.785
-63.571
-25.2801
-54.4108
-63.4776
-25.1422
-63.517
5106.4
-10.1406
-35.7975
16.3494
-20.2683
-25.8144
-70.9501
-116.473
-37.1962
-27.042
-119.263
-18.986
-61.7508
0.310146
28.5836
4.65507
25.0078
-18.3026
132684
10610.3
29842
-21894.5
2632.59
-95323.6
1.4234
13924.3
-1574.32
11390.1
-583.971
3520.75
7508.25
-487.806
5524.99
4298.21
4725.04
-184.652
-198.216
-176.11
-176.932
-175.775
-184.449
-198.944
-185.688
-197.737
-274.118
-289.562
-249.499
-192.356
-192.702
-249.158
-249.116
-274.558
-289.942
-274.363
-289.811
-31.43
-40.7782
-2.49849
-26.6949
-45.6436
-102.253
-161.773
-152.931
-97.9472
-150.294
-105.317
-95.1093
-34.4083
-5.3599
-51.2476
-37.4305
-48.4909
-52.7028
-63.334
-24.4551
-54.1568
-62.7219
-115.689
-170.137
-163.842
-106.714
-164.453
-115.027
-107.088
-51.6199
-23.743
-61.8323
-51.508
-62.1736
-186.091
-202.492
-188.795
-199.658
-177.708
-177.301
-186.659
-198.626
-185.52
-200.206
-177.808
-179.646
-298.979
-264.552
-316.647
-248.031
-197.772
-170.617
-166.247
-275.617
-263.256
-178.422
-182.417
-228.904
-202.512
-354.031
-330.166
-216.08
-275.439
-291.375
-291.181
-274.937
-249.291
-192.111
-249.673
-192.557
-274.489
-290.52
-275.067
-290.369
-249.924
-191.989
-192.299
-249.46
6341.37
7280.3
3827.63
-395.901
4157.68
-1076.99
4114.69
-1121.04
3726.7
7321.91
6145.86
146.409
-833.059
180.689
-612.237
-302.411
-141.159
-151.021
-129.127
-12.1508
-80.7099
-125.388
-294.475
-415.452
-95.8167
-92.3748
-479.006
32266.6
55342.8
66011.4
149836
44856.1
21404.2
22850.2
22602.7
62912.3
8467.51
-1417.52
-1172.75
3815.76
-1050.64
-1627.38
-1317.26
-1566.07
4198.96
-1499.66
7998.99
-895.945
129070
106098
106413
125107
-8090.29
-11085.4
29812.5
83145.2
26571.4
91120.9
49242.4
85788.5
49982.8
-16211.1
237972
-75853.7
7590.28
23254
-2836.05
-4277.06
-2544.62
2419.92
2986.92
-78.6635
3046.15
-109.812
-2467.81
-4325.71
-2948.44
-21437.7
-22209.5
-25241.4
-17953.6
-31551.2
-39809.7
-30353.1
-32916.4
-18881
-14216.2
-14586.3
-24229.5
-11192.6
-12203.2
-12003.3
-11215
-12612.2
-12413.6
-10057.7
-10912
-10160.7
-10943
-13570.8
-13938.4
-806.23
8129.33
9362.64
-377.404
29048.7
-669.252
40163.5
1168
-3547.47
66690.6
29143
5041.43
4858.02
7256.65
5985.73
3791.2
-356.948
4028.39
-1333.98
4025.55
-1278.3
3819.26
6043.45
7300.42
6915.91
44.2252
4159.86
-1128.51
-117.295
-1212.31
-1294.67
-183.568
4091.57
-1025.63
6781.28
114.184
4370.81
-1561.68
-436.106
7565.57
-1702.57
-776.217
7743.54
-607.083
4344.78
-1582.12
-616.936
-1685.62
5686.77
6849.08
3634.42
-149.146
3799.5
-1418.92
3763.95
-1465.17
3646.8
6746.01
5604.99
7564.94
7139.92
-4409.51
-3140.49
-2578.44
2418.7
2891.29
-164.209
2852.36
-125.115
-2628.07
-3052.04
-4367.61
-8974.5
-9025.85
-8648.36
-9352.6
-10277
-10442.2
-10464.7
-10298.2
-8742.65
-9407.43
-9063.65
-9083.52
-8853.84
-9722.85
-9521.73
-9105.11
-11646.1
-11720.5
-9497.23
-10076.9
-9306.56
-10180.4
-11138.3
-11145.8
-3496.52
-4614.75
-2722.52
2416.07
2682.24
-367.187
2712.32
-416.963
-2675.53
-4642.22
-3553.21
4830.42
5770.69
3060.28
90.3173
3247.6
-1507.22
3188.9
-1535.57
3104.86
5597.49
4675.95
3949.59
-840.28
233.597
6503.49
-1126.79
-57.746
-3.56185
-1044.65
6642.06
177.27
4022.63
-933.552
6514.91
5426.75
3478.04
-45.6645
3599.67
-1504.85
3610.28
-1468.55
3476.49
5521.57
6631.21
5722.92
466.926
-460.51
3480.76
257.147
-624.548
-687.766
219.959
3366.6
-388.043
5544.96
493.264
6139.14
6894.98
-3706.66
-4606.13
-2606.86
2201.09
2311.84
-696.396
2313.32
-731.895
-2593.35
-4560.1
-3693.37
-8930.76
-9491.29
-9187.58
-9224.4
-10425.6
-10256.1
-9145.8
-9140.7
-8841.85
-9453.32
-10234.1
-10398.5
-4676.68
-3640.23
-2692.68
2368.15
2589.22
-554.369
2565.69
-517.8
-2718.56
-3599.59
-4663.89
-9335.77
-9183.05
-9408.93
-9116.97
-9828.92
-9961.22
-9085.06
-9334
-9292.01
-9116.41
-10086.7
-9933.43
4518.66
-176.065
-237.58
-228.858
-192.984
-194.654
-178.264
-171.429
-213.315
-206.809
-199.709
-218.875
-185.173
-295.05
-182.644
-294.288
-187.323
-133.553
-415.788
-410.019
-140.097
-130.198
-393.266
-124.151
-393.682
-308.436
-204.11
-196.443
-312.333
-209.336
-252.283
-205.323
-254.439
-249.99
-237.043
-229.657
-255.927
-236.382
-213.039
-233.495
-216.538
-221.155
-272.621
-267.631
-228.882
368.284
-1242.57
379.651
-1258.68
-678.355
20.226
21.705
-692.523
-646.639
21.2413
-641.663
11.8618
396.737
-1368.97
-1344.7
433.634
-3248.44
1456.97
1968.63
-2678.6
5202.32
-7548.99
-3021.37
1775.3
5490.73
-5761.67
4134.34
-7326.6
-2815.75
1560.21
1526.12
-2790.18
4638.27
-7215.71
4729.27
-7023.74
-3083.36
1679.37
1635.08
-3116.84
4305.93
-6236.14
4423.91
-6373.09
5135.34
65.8687
-56.6504
-143.074
-30.3485
-62.0315
39.6377
46.7919
77.9747
188.509
177.511
223.724
66.0128
77.2474
12.6323
118.153
39.3275
54.9011
6856.26
704.752
-155.436
12587.7
-1505.69
-3293.08
-4944.04
880.966
91.5719
276.235
746.951
320.133
215.876
177.747
1051.24
966.451
396.875
521.008
4430.96
4634.62
-215.676
-212.082
-228.656
-237.208
-235.712
-230.238
-229.476
-236.713
-214.827
-212.953
-211.472
-216.278
-270.421
-275.485
-259.196
-253.96
-252.519
-260.47
-259.624
-253.241
-270.377
-275.972
-275.583
-271.248
-109.625
-167.142
-156.244
-99.7104
-107.405
-158.067
-101.347
-44.2385
-58.4589
-16.622
-46.7234
-56.85
-42.1217
-53.4668
-14.1204
-40.307
-55.2739
-114.628
-169.998
-163.528
-106.357
-114.68
-163.521
-105.893
-49.066
-59.6404
-21.4566
-48.7966
-60.2354
-49.4463
-61.3415
-21.9836
-50.6659
-60.7052
-191.508
-200.907
-187.167
-205.22
-179.393
-186.598
-187.238
-209.908
-196.893
-201.129
-181.869
-179.067
-216.881
-216.401
-213.283
-220.042
-231.62
-236.526
-229.471
-238.552
-217.682
-212.365
-214.281
-215.66
-230.509
-240.75
-233.681
-237.841
-222.882
-214.395
-219.287
-218.053
-231.704
-247.668
-241.176
-238.968
-218.141
-224.222
-227.459
-214.711
-236.476
-238.975
-231.561
-243.431
-320.437
-245.561
-317.874
-238.925
-160.223
-419.63
-153.16
-417.955
-322.977
-219.074
-322.079
-226.198
-176.976
-383.077
-186.514
-396.733
-267.333
-303.016
-285.451
-284.043
-253.032
-188.793
-189.956
-248.295
-242.78
-186.652
-255.986
-185.799
-280.531
-290.864
-297.863
-274.369
-263.208
-295.115
-293.922
-268.968
-275.854
-253.797
-270.936
-260.821
-251.931
-285.852
-244.958
-288.985
-283.645
-276.834
-286.596
-271.739
-271.897
-277.783
-277.17
-272.83
-261.226
-253.399
-260.117
-255.029
-271.775
-276.329
-276.623
-271.287
-260.929
-256.702
-254.433
-262.615
-275.926
-292.106
-275.985
-292.526
-250
-191.062
-190.734
-251.282
-250.19
-191.306
-250.107
-192.34
-276.059
-294.708
-277.77
-292.249
-274.915
-278.233
-272.78
-279.319
-262.434
-263.491
-255.747
-269.232
-265.107
-255.449
-259.258
-261.923
-273.304
-282.056
-278.478
-278.498
6931.83
-1880.14
576.634
3727.83
41.6472
7043.9
4054.72
-1353.14
-926.461
3512.73
-586.063
7549.45
4270.79
255.793
-1274.64
6470.33
7110.71
7020.1
3482.72
-462.917
4137.76
-898.695
3834.34
4206.33
-945.136
8472.23
6559.41
2055.1
1441.75
7985.7
-3623.09
3408.97
-185.237
11309.6
-3787.97
-2384.18
8603.66
250.928
1822.61
10729.8
-5263.08
4050.92
191.297
361.612
-1125.8
344.012
-1263.12
-687.532
10.4825
-695.746
8.59895
437.963
-1398.8
415.613
-1364.24
-633.399
-33.7982
-585.304
-20.6956
-1203.69
908.08
709.115
-1867.9
-141.025
1017.12
-713.073
867.509
-292.68
-139.361
162.376
16.899
1759.75
-4344.76
2772.89
-2342.5
-2978.39
1384.71
1456.86
-2639.57
4751.95
-7567.94
4752.7
-7452.97
-3155.98
1651.8
-3261.59
1662.31
4338.03
-6482.48
4042.96
-7151.36
37482.8
-45511.4
-404.309
23029.2
-19373.4
14974.9
-14528.5
10583.3
14594.2
-14394.2
41232.7
-62574.9
34166.2
19486.2
27965.1
24026.6
-16401.7
6626.26
28780.4
26792.2
-7711.3
6685.04
-8557.82
15888.6
29289.4
60303.5
114903
37534.7
65869
90223.4
40081.7
75134.4
108610
70584
117187
33287.7
29976.6
19571.3
37050.4
20685
647.571
10827
17083.4
-2396.12
-4219.44
16282.1
-2309.31
9095.18
41369.8
23728.5
24271
34479.6
24724
-20471.7
29332.4
-40108.8
-17067.8
12372.7
12283.3
-18461.2
-16224
11805.5
11038.6
-14210.6
29832.4
-42072.3
-35451.9
29012.7
-977.569
3570.82
8161.78
-1251.8
3957.97
-1263.32
-416.919
7383.71
7895.1
-995.196
-830.986
3450.19
-698.948
7672.91
4015.04
-1363.49
2562.09
-320.826
9372.66
-2749.61
1746.9
-6023.91
-2958.56
-503.425
11584.8
-5393.83
-250.37
1940.1
-2700.62
9101.93
29.018
2193.73
11507.8
-3994.61
3408.38
-1212.51
1874.51
323.083
-2561.08
8906.54
2749.02
-768.705
-5057.98
11465.8
29114.5
13651
17979.6
10904.7
20916
15509.4
15259
10688.5
13097.3
6679.96
15079.9
7958.85
-40474.8
-22479.2
22234.2
5671.38
-1108.3
3537.56
-1902.12
-14896.2
31447.4
42012.2
-7104.79
-6056.04
8260.63
4651.41
-12233.8
38591.5
78865
152427
36343.9
84121.4
128624
35274
77804.2
123823
41055.4
78246.5
127031
44087.5
15177.5
46095.1
29998.9
-2927.33
17414.1
11388
1243.9
-137.844
10779.9
17492.9
-7672.32
38383.7
28398.7
43762.2
22606.1
29932.2
-48021.1
31205.3
-49191.8
-19127.7
12683.4
12759.7
-19120.1
-19004.1
11469.1
12058.9
-17508.6
31803
-44971.2
30296.2
-44304.1
7465.05
8272.47
-1312.51
-2098.29
-2651.47
-8.55968
-8045.54
-1163.83
579.87
-4120.44
-4145.54
811.825
-8137.99
-1039.15
-172.007
-2645.97
-2143.54
-1412.62
-4202.61
-2617.82
-2412.76
2254.43
3119.42
-146.684
-2507.25
3007.68
-119.459
-2597.59
-4152.14
40.6471
-2692.21
-1190.51
-2187.02
-3967.26
1001.92
-519.397
-8763.22
-8434.72
-912.991
-4186.17
923.957
-873.736
-2221.35
-2468.61
10.6602
-22069.2
-23050
-24302.2
-21248.5
-24232.4
-21803.3
-19519.4
-18313
-19756.8
-18134.2
-27301.8
-31124.3
-7815.53
-11537.5
-6039.28
-6900.84
4660.56
13742.9
-312.374
7974.39
2547.64
-4067.28
1120.75
-8469.87
-5922.94
-5327.36
-1734.65
-2815.79
-11295.4
-13417.1
-13000
-11079.7
567.108
-5892.68
-925.132
-10361
-11855.9
-11305.7
-11811.2
-10043.8
2493.64
-8490.78
973.728
-3191.33
-6722.16
-6529
-6584.41
-7776.46
203.665
-5159.6
-8100.53
-1507.26
-1372.16
-8228.24
-5245.91
539.848
-7578.38
-5796.47
-5721.48
-6309
-12977.3
-13547
-12716.1
-13992.5
-17814.9
-19142.3
-14920.7
-16445.7
-15645.9
-15617
-15959.2
-15270.2
-8327.96
-7750.7
-7431.91
-7776.61
-804.317
-8951.21
-5336.96
1062.9
862.705
-5366.68
-8523.85
-1224.7
-8579.33
-9530.56
-9423.7
-9346.82
-3491.23
-5065.52
-2583.86
3375.25
16636.5
-1728.93
-3547.88
7069.64
-924.426
-4190.12
-2134.48
6033.59
-1824.37
2997.12
1476.12
12297.7
29362.8
11396.6
40267.7
-2659.78
1974.89
2367.27
-1720.92
24255.2
67081.8
22941.7
55146.7
1872.39
-700.795
890.848
309.409
-10454.6
-681.574
-4409.94
-1.26958
-1354.13
-2923.55
-1036.27
-3441.86
-817.204
2233.46
2941.52
-7877.6
5009.03
4914.59
4544.42
132.325
-830.857
6100.25
-1456.35
4279.19
366.099
6786.1
6243.74
-977.654
156.243
4492.07
523.915
6612.94
-1437.23
4337.5
5935.16
7193.51
3790.23
-310.733
3999.1
-1314.03
3785.68
3972.99
-1370.57
7121.95
5879.81
5989.8
-735.424
4543.12
137.928
717.104
6355.55
4301.44
-1272.09
-1364.39
4334.79
634.762
6478.01
4505.56
154.756
-666.625
5889.3
4220.61
-1221.07
7039.66
-35.1962
-1468.92
-326.025
7166.68
-113.123
-1319.63
4272.09
-250.604
-1381.53
-984.75
4035.4
6574.79
273.793
3933.97
-796.137
594.918
6151.22
6280.1
532.836
4012.11
-898.209
344.739
6438.03
3966.17
-883.477
198.691
6701.04
4103.03
-1089.17
6537.35
385.927
4146.96
-1112.23
-1190.89
4156.98
6829.46
115.248
4079.78
-1003.99
6410.94
464.508
-210.41
7231.3
4244.91
-1449.89
7119.24
-97.1423
4173.3
-1381.01
-1463.35
4197.44
7413.33
-389.219
4227.85
-1368.73
76.4815
6937.48
7425.62
-306.894
4354.63
-1501.24
-407.01
-1553.35
4316.05
-1413.29
7294.28
-205.061
-1628.33
-500.728
-1383.31
4238.58
-77.8095
7089.82
4195.72
-1209.54
298.165
6660.81
6793.46
202.3
-1302.71
4229.19
25.2898
6955.88
-1291.82
4206.68
6949.26
5756.76
3680.86
-196.887
3833.68
-1444.33
3690.63
3840.64
-1399.43
5821.58
7038.56
5579.82
-523.045
203.128
4320.95
946.794
5864.57
4027.45
-857.991
-957.648
4104.51
5991.27
899.786
4240
219.22
-484.916
5469.78
4391.9
189.417
-565.396
5685.03
-1166.3
4244.38
787.643
6238.93
5788.39
-612.85
4454.63
172.348
845.458
6116.1
4180.55
-1060.86
7462.11
7286.77
-407.545
-2595.77
-2148.03
-1572.31
-4074.71
409.983
-7911.17
-1260.95
-1493.52
-2141.19
-2617.21
-288.129
-7790.35
-1355.15
-4033.33
233.871
-3221.6
-4455.59
-2661.49
2433.72
2815.68
-164.345
-2602.05
2851.38
-218.409
-4500.04
-3301.17
-1652.24
-2144.08
-521.25
-2570.64
-7537.24
-1538.1
-95.1784
-3933.25
-3984.03
72.0651
-7662.43
-1446.68
-635.057
-2546.67
-2142.14
-1731.89
-8562.61
-9316.55
-8892.7
-8981.05
-10548.3
-10411.4
-8836.18
-8976.95
-9301.49
-8508.88
-10341.4
-10492.3
-6598.37
-5623.2
-5808.72
-6643.21
-2479.95
-4642.93
-7005.3
-2740.92
-2479.53
-7146.6
-2077.33
-4683.37
-6522.48
-6030.37
-5856.02
-6816.15
-6772.78
-5582.01
-5399.82
-6382.06
-2104.02
-7419.31
-1313.4
-4790.09
-6195.36
-5190.12
-5374.45
-6899.59
-1680.82
-4734.7
-2272.96
-7285.81
-7287.33
-5139.43
-5006.44
-5987.34
-1616.48
-7951.88
-81.3197
-5071.3
-6087.38
-5233.59
-5345.04
-7419.03
-363.188
-4996.37
-7822.19
-1726.88
-8903.75
-9197.88
-8609.46
-9461.36
-10542.8
-10651.8
-8510.66
-9339.25
-8830.82
-9033.66
-10837.4
-10765.4
-5981.29
-4954.97
-7156.58
-5117.39
-967.647
-4858.08
-7551.65
-1961.39
-1840.52
-7685.86
-4923.15
-653.764
-7028.48
-5208.05
-6055.03
-5034.36
-4580.24
-3438.73
-2668.89
2418.15
2748.94
-362.086
-2707.2
2713.73
-323.448
-3371.25
-4543.16
-1947.2
-2121.43
-2457.47
-970.165
-7007.89
-1884.44
-752.739
-3726.75
-3780.31
-580.529
-1797.73
-7144.35
-1074.44
-2428.42
-2112.88
-2013.98
-862.408
-2488.99
-2129.22
-1877.09
-3882.18
-254.082
-7410.71
-1629.18
-1806.2
-2135.67
-750.121
-2517.94
-7276.75
-1714.53
-417.619
-3832.42
5940.82
4967.35
3183.46
65.8722
3291.43
-1533.85
3166.18
3316.19
-1508.06
5096.26
6097.59
4560.68
-312.411
239.411
3529.01
1108.39
4692.52
3184.16
-236.055
-285.449
3301.91
1109.92
4857.64
3398.88
229.377
-298.283
4407.22
3648.04
246.281
-328.852
4709.81
-418.319
3536.63
1093.04
5176.01
4850.05
-346.454
249.675
3762.5
1106.17
5018.92
-349.155
3423.6
468.457
6161.19
3809.16
-689.477
6015.03
654.193
3852.36
-698.368
-783.108
3887.8
6303.66
407.616
3761.25
-599.46
5877.53
709.956
6361.6
294.848
3863.28
-759.194
100.283
-890.051
-968.574
50.8862
3775.89
-669.037
345.144
6205.5
-597.254
3717.54
522.902
6020.47
3571.25
-424.287
791.972
5586.07
5729.96
753.649
3670.79
-506.819
571.902
5864.09
3625.02
-510.907
5326.8
6384.33
3398.88
-9.05837
3558.6
-1479.73
3424.28
3514.86
-1518.63
6246.55
5214.01
4065.65
238.47
-421.472
5236.96
-760.627
3937.45
988.02
5738.48
5355.44
-452.917
229.356
4156.82
1022.94
5600.13
3845.94
-666.285
5114.15
-393.054
243.73
3971.42
1076.17
5319.6
-495.423
3648.74
3869.22
247.853
4985.55
-368.934
-580.121
3749.02
5463.95
1053.07
-286.548
3308.48
5388.26
675.073
3122.29
-142.577
885.751
4938.49
5106.66
878.503
-203.313
3240.98
699.642
5210.25
3194.91
-222.868
3591.34
-520.31
5884.85
424.617
-818.131
144.105
181.331
-749.456
6046.93
390.414
3685.9
-594.615
645.529
5549.48
-353.689
3424.42
5431.94
830.374
-346.529
3464.42
3355.99
-271.318
855.351
5272.17
-430.281
3524.39
612.088
5712.62
6378.5
6706.71
-4638.63
-3714.55
-2629.47
2256.46
2378.85
-697.738
-2637.51
2370.31
-673.233
-3708.59
-4664.68
-2343.52
-1987.11
-2160.47
-1712.74
-5784.68
-2774.35
-2667.9
-3345
-3371.68
-2361.31
-5951.29
-2608.03
-1788.15
-2114.47
-1962.21
-2369.95
-1632.82
-2204.84
-2010.88
-2314.25
-3457.52
-1788.73
-6272.3
-2349.34
-2278.23
-2033.73
-2247.78
-1549.01
-6113.3
-2467.21
-3410.36
-2067.86
-6799.78
-6447.27
-6293.89
-7217.97
-3040.69
-6862.07
-2887.94
-4619.35
-7028.02
-6079.96
-6249.15
-6571.47
-3274.82
-4632.62
-3373.47
-6717.69
-9285.62
-9227.37
-9004.74
-9510.59
-10156.8
-10317.1
-9062.14
-9520.49
-9246.88
-9329.86
-10368
-10198.3
-7387.56
-6480.68
-7007.15
-6630.84
-3981.21
-4831.99
-6411.32
-4012.37
-3697.34
-6565.08
-3645.42
-4696.66
-7184.16
-6780.15
-6648.74
-7524.3
-3670.31
-4682.99
-2713.64
2343.19
2523.74
-555.71
-2680.81
2540.79
-600.088
-4678.55
-3696.4
-1275.68
-2360.58
-2086.32
-2132.55
-3670.66
-925.589
-6870.28
-1972.58
-2076.09
-2099.44
-2394.92
-1177.55
-6724.59
-2055.7
-1112.5
-3620.12
-2186.04
-2070.7
-2324.6
-1370.38
-6426.28
-2241.29
-3511.9
-1542.46
-1461.58
-2287.74
-2235.86
-2053.46
-3564.04
-1315.92
-2145.95
-6578.23
-7761.15
-6997
-7097.49
-7505.28
-4971.98
-5668.58
-5842.32
-4933.78
-4756.53
-5965.25
-5479.9
-4780.95
-7545.77
-7140.82
-7060.71
-7777.34
-9121.79
-9470.08
-9353.82
-9221.94
-10256.7
-10098.6
-9350.45
-9246.49
-9103.95
-9504.67
-10027.1
-10175.6
-7431.16
-7016.47
-7713.94
-6912.49
-4293.41
-6260.75
-5029.96
-4282.59
-4552.04
-5261.26
-6107.31
-4544.17
-7634.49
-6790.64
-7322.83
-6914.55
3050.81
1102.35
-288.159
3264.51
4620.47
-708.602
1355.86
-5990.4
-690.146
4800.69
-4494.05
4792.95
-4204.52
852.642
-745.593
-732.102
-5676.36
4500.5
87930.8
28368.6
40302
38249.9
44079.4
103562
53622.3
-3906.5
677.565
-679.402
5099.44
576.622
-3893.84
4166.01
-4044.01
4109.25
960.388
644.502
737.14
5091.58
-4006
35067.1
89403.3
51122.2
88132.4
47294.4
39247.5
85656.1
12734.4
8323.36
21764.2
30811
32440.8
534.961
18361.4
4800.57
-628.071
-4653.01
921.253
4664.07
-667.789
-6114.91
4673.14
-6143.46
1150.83
-635.3
-587.675
-4737.24
4795.19
4505.15
-624.618
1118.89
-5722.34
-566.883
4579.45
-4618.01
4632.96
-4675.63
-553.842
1024.57
-617.048
4555.51
-5822.88
-3731.99
546.835
4219.82
923.196
-3753.53
652.938
5113.01
-3600.49
5118.37
-704.758
635.754
526.471
4249.4
-3592.07
-3217.62
529.308
-878.642
5044.35
431.541
-3253.57
4294.49
-3288.27
4303.58
453.716
682.538
550.972
-3245.9
5077.12
3836.61
-755.621
1036.84
-4779.99
-710.411
3856.5
-4027.88
3975.47
-4115.1
-687.11
962.592
-738.253
3952.93
-4904.15
4517.2
-577.248
-4559.07
1026
4451.62
-638.823
-5615.54
4387.61
-5507.26
-650.271
1118.4
-594.751
4450.62
-4492.5
-2869.4
280.545
-1158.38
4481.8
208.145
-2879.93
3911.47
-2944.03
3994.75
240.709
102.646
312.978
-2924.02
4590.26
-3223.75
411.538
4276.75
549.881
-3183.51
501.888
5008.96
-3152.53
4961.77
473.168
-950.333
383.241
-3185.9
4253.42
-730.45
-3939.39
3715.04
176.502
4895.66
438.706
-2781.96
983.98
-3201.57
3295.2
197.044
4151.83
-4949.92
-659.217
1956.35
4791.13
-3792.09
-602.201
4498.8
2916.04
1513.98
11123
6244.26
213.664
4912.46
19426.3
8258.33
30119.2
22587.3
29437.8
19911.6
15251.7
-4296.59
1496.36
1607.45
3975.66
1190.67
5054.55
-4096.48
-4052.69
5048.17
827.606
-666.036
-4146.41
803.569
3920.25
-4081.81
2201.79
3159.26
4952.22
4712.55
-4626.51
4045.47
-3456.23
8082.93
14703
11287.9
-931.701
7807.17
7696.66
4654.12
-603.147
-6068.36
1110.15
-4771.13
4755.07
-545.765
4778.89
-4771.09
-558.527
973.545
4672.15
-6120.32
-615.592
4721.76
-539.802
-4753.3
1007.64
4630.43
-5997.71
-603.971
4595.32
-5914.5
-607.12
1114.32
4682.77
-4718.77
-546.612
-3393.11
611.775
-750.857
5118.62
502.902
4289.78
-3414.55
-3490.59
4273.45
515.89
885.483
-3478.6
623.661
5122.93
-3363.14
491.845
801.827
4299.97
594.148
-3328.6
5113.2
-3284.13
5097.21
573.139
-811.83
-3319.82
472.098
4306.47
4193.99
-644.771
-4276.06
1000.14
-5151.59
4153.76
-699.947
4057.97
-5027.68
-716.951
1082.25
4091.87
-4193.21
-668.048
4240.32
-680.453
-5272.29
1105.4
4288.06
-4349.35
-628.392
4373.02
-4424
-608.773
1020.66
4320.38
-5391.27
-667.033
-3059.08
303.231
254.567
4126.74
380.483
4771.66
-3031
-2983.09
4685.15
347.454
-1095.04
-3000.34
269.872
4068.13
-3079.08
414.349
-1022.88
4842.12
329.972
-3104.23
4179.51
-3150.14
4220.23
358.388
401.987
-3115.07
442.96
4908.28
)
;

boundaryField
{
    left
    {
        type            calculated;
        value           nonuniform List<scalar> 
290
(
-156.302
53757.4
-119.229
-131.387
-156.32
-210.131
-183.999
-210.178
98015.4
-21950.3
61439.8
-159.654
60619.9
683.751
-229.551
-244.7
-275.954
-553.478
-76.3273
146.454
458.98
-153.553
-154.124
-221.981
-227.146
-209.547
-242.397
-237.966
-252.79
-244.132
-208.262
-237.096
-220.978
20346.5
35500.4
451.951
-631.513
-287.119
43575.5
-3500.5
1466.94
-148.67
-2374.37
33626.6
-197.985
-209.427
-235.433
-289.852
-183.612
-16.9075
6057.23
5357.6
41.074
104.276
-49.2095
-146.051
8.90472
32.0774
-16.6431
-14.9759
-155.579
-178.438
-179.963
-210.14
-241.589
-241.11
-226.513
-236.387
-198.311
-240.762
-177.42
-4749.32
70662.4
-100.353
-204.108
-216.016
54393.1
24534.5
16838.1
43842.5
32794.6
8457.76
-187.393
-191.667
-232.15
-215.502
-212.049
-229.321
-220.367
-235.92
-333.008
-299.076
-253.108
-424.2
-448.248
-581.759
-162.615
-395.052
-409.515
785.939
2794.71
2746.54
-39.0868
155.352
507.742
-9.78231
1.43636
-149.152
-155.588
-14.2641
-11.8281
-223.408
-205.176
-203.687
-209.228
-207.028
-225.147
-181.874
-184.297
-242.739
-242.199
-210.068
-240.678
-249.545
-250.8
-247.526
-248.396
-239.162
-246.83
-249.356
-247.508
-251.661
-251.213
-245.318
-205.007
-240.927
-242.675
-246.861
-202.651
7377.08
49668.8
-17.0326
-382.18
-71.9486
-665.684
-629.807
-605.565
-267.04
-319.571
-352.351
45002.2
45866
52649.7
-3493.28
3906.15
4545.15
16730.6
2930.84
-1647.14
-415.765
3091.13
3035.1
3827.36
3810.27
-1288.39
22596.1
35848.1
41628.2
-156.739
-109.265
-109.03
21207.8
4940.25
17610.7
-53.7263
-40.2672
-110.062
-136.863
-65.7813
-59.6413
-108.883
-108.759
-156.185
109283
102439
83609.1
194.264
232.267
-1953.25
21.2388
100.707
309.662
-102.994
-100.5
-152.531
-155.099
-106.108
-104.764
-109.484
-156.797
-15.77
-51.6323
-51.5708
-51.5822
-16.0054
4355.02
10948.7
3112.32
10374.8
2040.92
2475.15
17317.8
53.2386
0.387868
-7.38449
34.8182
11.5563
72.9322
-84.7687
-27.7659
5.64107
-83.979
-72.9742
-143.559
19.3942
-21.0502
-28.3201
-12.1796
-15.7416
27.4415
-15.1833
-50.8405
-51.3695
-49.786
-50.2634
-14.459
-156.23
-108.499
-107.991
-19054.5
-12842.2
-38187.9
113771
1169.58
329.181
351.673
1264.98
525.288
1619.39
-2101.67
718.494
-1070.31
16.8157
94.8854
-28.0872
234.631
101.816
52.6591
266.041
125.184
334.538
-6.42989
-42.1993
-44.7402
-34.2749
-38.8033
-2.7554
-151.078
-96.9611
-91.3888
-107.532
-107.056
-155.283
-12.6193
-48.4815
-49.189
-46.589
-47.6545
-12.0092
14478.2
20555
-1573
1006.57
65533.4
79833.9
38661.1
48584.6
78761.9
90885.3
76799.5
)
;
    }
    bottom
    {
        type            calculated;
        value           nonuniform List<scalar> 0();
    }