/*--------------------------------*- C++ -*----------------------------------*\
| =========                 |                                                 |
| \\      /  F ield         | OpenFOAM: The Open Source CFD Toolbox           |
|  \\    /   O peration     | Version:  2012                                  |
|   \\  /    A nd           | Website:  www.openfoam.com                      |
|    \\/     M anipulation  |                                                 |
\*---------------------------------------------------------------------------*/
FoamFile
{
    version     2.0;
    format      ascii;
    class       volVectorField;
    location    "0.106/solid";
    object      sigmaMaxDir;
}
// * * * * * * * * * * * * * * * * * * * * * * * * * * * * * * * * * * * * * //

dimensions      [1 -1 -2 0 0 0 0];


internalField   nonuniform List<vector> 
3125
(
(0.0637738 0.997957 0.00372523)
(0.0241326 -0.0532669 0.998289)
(0.421277 0.838962 0.344484)
(0.343744 0.0726443 0.936249)
(0.0261521 -0.0549249 0.998148)
(0.0250068 -0.0539547 0.99823)
(-0.00570309 0.999984 0.000235042)
(0.381254 0.88114 0.279711)
(-0.0720948 0.997397 -0.00114253)
(0.391369 0.904102 0.171553)
(0.000285783 1 0.0008807)
(0.0330951 -0.0528575 0.998054)
(0.46961 0.849172 0.241606)
(0.670407 -0.523057 0.526276)
(0.675424 0.0674379 0.73434)
(0.300798 -0.00571954 0.953671)
(-0.021741 -0.053808 0.998315)
(0.172261 -0.0181604 0.984884)
(-0.0177727 -0.0588721 0.998107)
(0.0430588 0.997792 0.0505605)
(-0.131397 0.990818 0.0318344)
(0.0993045 -0.108995 0.98907)
(0.0241593 -0.0531008 0.998297)
(0.024896 -0.0538569 0.998238)
(0.0332024 -0.0526596 0.99806)
(0.629159 0.0658744 0.77448)
(0.668589 0.0667084 0.740634)
(0.0356352 -0.0526665 0.997976)
(-0.0215767 -0.0536131 0.998329)
(-0.0216483 -0.0544893 0.99828)
(-0.0174795 -0.0587076 0.998122)
(-0.0735219 0.996708 0.0341803)
(-0.120823 0.992171 0.031588)
(-0.0154965 -0.0604104 0.998053)
(0.0394193 -0.0525213 0.997841)
(0.624723 0.0663111 0.778025)
(0.0358645 -0.0526973 0.997966)
(0.60151 0.0737543 0.795454)
(-0.0217284 -0.0555631 0.998219)
(-0.0216525 -0.0546147 0.998273)
(-0.0124644 -0.0623119 0.997979)
(-0.0684586 0.997031 0.0352414)
(-0.0153594 -0.0605981 0.998044)
(-0.0193152 0.998467 0.0518656)
(0.0262561 -0.054951 0.998144)
(0.0397314 -0.0524458 0.997833)
(-0.0216576 -0.0555604 0.99822)
(-0.012152 -0.0623397 0.997981)
(0.237353 0.962382 0.132227)
(-0.0355204 0.999189 0.0189691)
(0.364764 0.907961 0.206287)
(-0.234182 0.933098 0.272924)
(0.500174 0.771219 0.393762)
(0.0271347 -0.0587698 0.997903)
(0.640356 0.450057 0.622409)
(0.0250856 -0.0612975 0.997804)
(0.672758 0.335503 0.65942)
(0.0256174 -0.054595 0.99818)
(0.0255098 -0.0545251 0.998186)
(-0.014011 0.999902 -0.000586417)
(-0.0120322 0.999927 -0.000721045)
(0.0303418 0.999155 0.0277325)
(0.113349 0.993281 0.0233551)
(-0.0241059 0.999709 -0.000418349)
(-0.0461875 0.998894 0.00876579)
(0.355889 0.924498 0.136553)
(0.148481 0.988135 0.0392637)
(0.0122787 0.999717 0.0203803)
(-0.0192654 0.999814 -0.000279035)
(0.0776323 0.996768 0.0206658)
(-0.0127993 0.999877 0.00906173)
(0.176673 -0.0197376 0.984072)
(0.0349973 -0.0586304 0.997666)
(0.180247 -0.0221492 0.983372)
(0.513698 0.832135 0.208966)
(0.646791 0.595976 0.475892)
(0.618866 0.681707 0.390231)
(-0.231398 0.953062 0.195265)
(0.695456 0.0593677 0.716112)
(0.117287 -0.232507 0.965497)
(0.243775 -0.0132044 0.969742)
(0.658966 0.620289 0.425446)
(0.242323 -0.00549239 0.97018)
(0.693445 0.0726677 0.716836)
(0.242308 -0.00606858 0.97018)
(0.03849 -0.0592093 0.997503)
(0.765831 0.411094 0.494473)
(0.113153 -0.213218 0.97043)
(0.185379 -0.0298562 0.982213)
(0.750259 0.515108 0.414458)
(-0.0240025 -0.0596692 0.99793)
(-0.0256038 -0.0604721 0.997841)
(0.00243386 -0.0368651 0.999317)
(-0.0209747 -0.0636929 0.997749)
(0.0043233 -0.0304341 0.999527)
(-0.0916988 0.993322 0.0700134)
(-0.197715 -0.358909 0.912191)
(0.0477839 0.0255014 0.998532)
(0.0566349 -0.0181413 0.99823)
(-0.134101 0.989877 0.0464771)
(0.0514787 -0.000976122 0.998674)
(-0.0205117 -0.064264 0.997722)
(-0.0826864 -0.291817 0.952894)
(0.00644242 -0.0166441 0.999841)
(0.0243569 -0.053118 0.998291)
(0.0244437 -0.0531973 0.998285)
(0.177434 -0.0193891 0.983942)
(0.0341777 -0.0523663 0.998043)
(0.181394 -0.0185577 0.983235)
(0.644165 0.0654247 0.762083)
(0.254271 -0.00253381 0.96713)
(0.248484 -0.00419986 0.968627)
(0.243066 -0.00533356 0.969995)
(0.649782 0.0655383 0.75729)
(0.24686 -0.00460216 0.96904)
(0.0343651 -0.0523912 0.998035)
(0.18858 -0.0168721 0.981913)
(0.183014 -0.0182144 0.982941)
(-0.021407 -0.0535928 0.998333)
(-0.0214042 -0.0536954 0.998328)
(0.00473602 -0.0374767 0.999286)
(-0.0163525 -0.0590271 0.998122)
(0.0162515 -0.0389558 0.999109)
(-0.0894187 0.995472 0.0322437)
(0.167004 -0.0163191 0.985821)
(0.107633 -0.0206575 0.993976)
(0.0622067 -0.0193998 0.997875)
(-0.0956963 0.994899 0.0319159)
(0.0928736 -0.0208964 0.995459)
(-0.0162328 -0.0591878 0.998115)
(0.040377 -0.0393409 0.99841)
(0.0213157 -0.0393069 0.999)
(0.0376392 -0.0527745 0.997897)
(0.209172 -0.0101762 0.977826)
(0.200324 -0.0132892 0.97964)
(0.256498 -0.00181459 0.966543)
(0.613048 0.0685566 0.787066)
(0.264094 0.000894677 0.964497)
(0.0373757 -0.0527901 0.997906)
(0.190676 -0.0163041 0.981518)
(0.197709 -0.0141596 0.980159)
(0.27672 0.00588059 0.960933)
(0.609712 0.0696261 0.789559)
(0.266954 0.00199163 0.963707)
(-0.0217822 -0.0553333 0.99823)
(-0.021813 -0.0552544 0.998234)
(-0.0140815 -0.061778 0.997991)
(0.132086 -0.0234358 0.990961)
(0.0889846 -0.0335225 0.995469)
(0.192427 -0.0131314 0.981223)
(-0.0514769 0.997869 0.0400959)
(0.287604 0.00571135 0.957732)
(-0.0142878 -0.0616502 0.997996)
(0.0481984 -0.0389122 0.99808)
(0.077195 -0.0355708 0.996381)
(0.44567 0.0698863 0.892465)
(-0.0446103 0.998104 0.042404)
(0.325156 0.0164957 0.945516)
(-0.186095 0.974875 0.12242)
(-0.235131 0.969399 0.0705547)
(-0.130246 0.973027 0.190406)
(-0.394399 0.901303 0.179173)
(-0.0445489 0.959092 0.279569)
(0.995558 0.0656967 0.0674431)
(0.0245033 -0.0543247 0.998223)
(0.422926 0.667867 0.612443)
(0.491498 0.708273 0.506734)
(0.425381 0.579252 0.695355)
(0.108372 -0.0348192 0.9935)
(0.653051 -0.251281 0.71441)
(0.454536 0.379332 0.805918)
(0.0259318 -0.0547987 0.998161)
(0.025208 -0.0542266 0.99821)
(-0.0736217 0.997286 0.00121026)
(-0.0336968 0.999431 -0.00162886)
(0.433621 0.703367 0.563248)
(0.242667 0.963128 0.116174)
(0.582381 0.748271 0.317685)
(0.9917 -0.113265 0.0608539)
(0.0676413 0.997685 0.00707673)
(0.997856 0.0555765 0.0345546)
(-0.096441 0.995336 0.00231697)
(-0.169431 0.985529 0.00512843)
(0.358793 0.92096 0.15199)
(0.321663 0.940245 0.111684)
(0.263142 0.960611 0.089352)
(-0.0234453 0.999725 -0.000217397)
(0.00932962 0.999949 0.00388711)
(-0.0102388 0.999946 0.0016126)
(0.0756096 -0.0386445 0.996388)
(0.0330242 -0.0540347 0.997993)
(0.0759894 -0.0446549 0.996108)
(0.51068 0.827422 0.233621)
(0.521875 0.789528 0.322943)
(0.607071 0.719301 0.337743)
(0.999845 0.0172073 0.00376795)
(-0.522256 0.63829 -0.565539)
(0.282298 -0.361529 0.888597)
(0.447528 -0.373575 0.812503)
(0.50558 0.431247 0.747271)
(0.482092 0.0366322 0.875354)
(0.682177 0.0688031 0.727943)
(0.48427 0.0378637 0.874099)
(0.119876 -0.0674292 0.990496)
(0.966071 0.123905 0.226614)
(0.141332 -0.164459 0.976206)
(0.135964 -0.0822807 0.987291)
(0.486369 0.177808 0.85547)
(-0.0224075 -0.0551371 0.998227)
(-0.0191042 -0.0818295 0.996463)
(0.0107317 -0.0417974 0.999068)
(-0.0189838 -0.060107 0.998011)
(0.00506067 -0.051318 0.99867)
(-0.0209887 0.999614 -0.0181868)
(0.155166 0.983072 -0.0974343)
(-0.0982131 0.992074 -0.0783766)
(-0.117716 0.992323 0.0379173)
(-0.140915 0.989476 0.0328581)
(-0.134301 0.990147 0.0396424)
(-0.017364 -0.0910464 0.995695)
(0.060674 -0.259859 0.963738)
(0.0318927 -0.110889 0.993321)
(0.0241679 -0.0529465 0.998305)
(0.0247084 -0.0535632 0.998259)
(0.0771103 -0.0436669 0.996066)
(0.0335656 -0.0523796 0.998063)
(0.0776292 -0.0378634 0.996263)
(0.633868 0.0655892 0.770655)
(0.469379 0.0370341 0.88222)
(0.470073 0.0364346 0.881875)
(0.479657 0.0359939 0.876717)
(0.662015 0.0661373 0.746566)
(0.477405 0.0355836 0.877963)
(0.0350738 -0.0525446 0.998002)
(0.0854884 -0.0361789 0.995682)
(0.0847803 -0.0431473 0.995465)
(-0.0214094 -0.0533904 0.998344)
(-0.0215218 -0.0541431 0.998301)
(0.00754297 -0.0506916 0.998686)
(-0.0168691 -0.0586121 0.998138)
(0.0139018 -0.0411383 0.999057)
(-0.078526 0.996354 0.0333515)
(-0.0470241 0.998076 0.0404173)
(-0.0530426 0.997827 0.0390968)
(-0.102975 0.993983 0.0373286)
(-0.111277 0.993287 0.0315979)
(-0.0910137 0.995159 0.0370906)
(-0.0158221 -0.0598765 0.99808)
(0.0243231 -0.0400547 0.998901)
(0.016848 -0.0514786 0.998532)
(0.038632 -0.052652 0.997865)
(0.100298 -0.0308233 0.99448)
(0.0990862 -0.0405152 0.994254)
(0.468922 0.0377685 0.882432)
(0.620561 0.0668972 0.7813)
(0.468687 0.0386359 0.882519)
(0.0364768 -0.0527793 0.99794)
(0.0878606 -0.0428829 0.995209)
(0.088657 -0.0353049 0.995436)
(0.472251 0.0467005 0.880226)
(0.60395 0.0722023 0.793745)
(0.47103 0.0450181 0.880968)
(-0.0217533 -0.0555074 0.998221)
(-0.0217541 -0.0549247 0.998253)
(-0.0132119 -0.0621375 0.99798)
(0.046011 -0.0339744 0.998363)
(0.0353459 -0.0499571 0.998126)
(-0.0407667 0.99828 0.0421315)
(-0.063249 0.997328 0.036553)
(-0.0342486 0.998433 0.0442499)
(-0.0149564 -0.0610922 0.99802)
(0.0205364 -0.0516478 0.998454)
(0.0286841 -0.0392556 0.998817)
(0.021305 0.997447 0.0681573)
(-0.0288188 0.998422 0.0482036)
(0.00945281 0.997994 0.062595)
(0.103671 -0.0391065 0.993842)
(0.041869 -0.048396 0.99795)
(-0.271868 0.962029 0.0242531)
(-0.263517 0.963791 0.0408072)
(0.0550798 0.989958 0.130187)
(0.113438 0.990897 0.0724962)
(-0.0341532 0.99685 0.0715774)
(-0.116352 0.992996 0.0205357)
(0.0146182 0.999151 0.0385268)
(-0.0942756 0.994783 0.0389776)
(0.155875 0.966013 0.206207)
(0.429187 0.853132 0.296586)
(0.240422 0.923114 0.300095)
(-0.410589 0.893484 0.181941)
(0.160658 0.900818 0.403381)
(0.040066 0.947476 0.317307)
(0.531598 0.780939 0.327929)
(0.370668 0.834901 0.406874)
(0.346864 0.875224 0.337146)
(0.0244919 -0.055023 0.998185)
(0.550256 0.639473 0.536929)
(0.485405 0.414269 0.769911)
(0.441715 0.542473 0.71457)
(0.112333 -0.0631724 0.99166)
(0.806046 -0.125159 0.578468)
(0.494691 0.385849 0.778718)
(0.539995 0.148705 0.828427)
(0.0258118 -0.0547362 0.998167)
(0.0253112 -0.0543203 0.998203)
(-0.0210698 0.999778 -0.00025723)
(-0.0153568 0.999882 -0.00100611)
(0.240638 0.96671 0.0869719)
(0.969399 0.241733 0.0427803)
(0.69348 0.68653 0.218544)
(-0.0527587 0.998598 0.00438512)
(0.973861 0.223959 0.0379081)
(0.999639 0.00422202 0.0265198)
(-0.262186 0.964901 0.0149674)
(-0.218947 0.975693 0.0092719)
(-0.0333817 0.999443 0.000129917)
(-0.0333325 0.999444 0.000679886)
(-0.0555052 0.998457 0.00158589)
(-0.106436 0.994263 0.0105822)
(-0.0403846 0.999178 0.00352501)
(-0.0802796 0.99676 0.00498164)
(0.397239 0.905823 0.147263)
(0.200897 0.976609 0.0766532)
(0.243866 0.966084 0.0849173)
(0.234156 0.969718 0.0694088)
(0.123028 0.992004 0.0281324)
(0.185276 0.981328 0.0516507)
(0.0777024 0.996121 0.041304)
(0.0593266 0.99795 0.023996)
(0.128519 0.990584 0.0471766)
(-0.0153366 0.999882 -0.000156892)
(-0.0220732 0.999756 0.000826449)
(-0.0126404 0.999919 0.00111327)
(0.0355469 0.999323 0.00948085)
(0.0652783 0.997769 0.0139801)
(0.021586 0.999747 0.00626196)
(-0.0198862 0.999796 0.00351029)
(0.0185476 0.999769 0.0108915)
(-0.0032886 0.999985 0.00435106)
(0.125245 -0.0315783 0.991623)
(0.176535 -0.0200391 0.98409)
(0.125421 -0.0321086 0.991584)
(0.033228 -0.0546508 0.997952)
(0.0812276 -0.0461815 0.995625)
(0.0755385 -0.0402332 0.996331)
(0.177445 -0.0214396 0.983897)
(0.131554 -0.0351496 0.990686)
(0.126699 -0.0336002 0.991372)
(0.579728 0.783679 0.223076)
(0.573363 0.763456 0.297305)
(0.652662 0.68931 0.314457)
(0.638584 0.672856 0.373464)
(0.698527 0.533872 0.476488)
(0.744339 0.532643 0.402803)
(0.670979 0.664639 0.328697)
(0.70078 0.580141 0.415142)
(0.749869 0.556905 0.357147)
(0.055093 0.997872 -0.0348649)
(0.389699 0.80669 0.444281)
(0.301475 0.801225 0.516867)
(0.680487 0.212332 0.701322)
(0.47724 0.0351883 0.878068)
(0.463561 0.114116 0.878686)
(0.151424 -0.272018 0.950304)
(0.207055 -0.232617 0.950272)
(0.277562 0.198207 0.940039)
(0.287039 -0.25961 0.922069)
(0.314077 0.266073 0.911351)
(0.330493 0.0080752 0.943774)
(0.247448 0.0223658 0.968643)
(0.325203 0.056491 0.943955)
(0.53202 0.720535 0.444729)
(0.404248 0.719715 0.564441)
(0.332308 0.757279 0.562228)
(0.336768 0.0128658 0.9415)
(0.241896 -0.00544281 0.970287)
(0.336622 0.0134082 0.941545)
(0.688778 0.0691179 0.72167)
(0.484461 0.0414955 0.873828)
(0.485836 0.0383767 0.873207)
(0.242076 -0.00639453 0.970236)
(0.334338 0.0146563 0.942339)
(0.336361 0.0130923 0.941642)
(0.0808557 -0.072822 0.994062)
(0.0851643 -0.0413077 0.99551)
(0.133194 -0.0447195 0.990081)
(0.482562 0.609315 0.629182)
(0.795511 0.374798 0.476119)
(0.6471 0.631077 0.427789)
(0.115173 -0.196261 0.973764)
(0.171306 -0.22309 0.959628)
(0.289256 0.169473 0.94213)
(0.128415 -0.193413 0.972677)
(0.357696 0.164732 0.919194)
(0.138218 -0.0430079 0.989468)
(0.200483 -0.00497213 0.979685)
(0.168726 -0.0329466 0.985112)
(0.801588 0.423193 0.422332)
(0.487533 0.691246 0.533376)
(0.619587 0.640363 0.453925)
(-0.0229579 -0.0558389 0.998176)
(-0.00133856 -0.0588169 0.998268)
(-0.0241672 -0.0445326 0.998716)
(0.00140073 -0.0363204 0.999339)
(-0.0250814 -0.0445421 0.998693)
(-0.0194809 -0.0608158 0.997959)
(0.00744234 -0.0498572 0.998729)
(0.00872655 -0.0431274 0.999031)
(0.00177028 -0.0340405 0.999419)
(-0.0221405 -0.0420561 0.99887)
(-0.0251708 -0.0437247 0.998726)
(-0.0400196 0.995592 0.0848229)
(-0.161567 0.98123 0.105282)
(-0.139556 0.9842 0.108973)
(-0.46228 -0.553128 0.693071)
(-0.0692813 -0.246865 0.96657)
(0.0103341 0.834412 -0.551044)
(0.225103 0.42007 0.87913)
(0.0319337 -0.00321827 0.999485)
(-0.0898982 0.859212 0.50366)
(0.391754 0.507659 0.76734)
(0.0533586 -0.0164394 0.99844)
(0.43575 0.230707 0.869998)
(-0.145972 0.988621 0.0363523)
(-0.157386 0.98548 0.0637159)
(-0.151756 0.987357 0.0457882)
(0.0522501 -0.0109036 0.998575)
(0.331106 0.286065 0.899186)
(0.395386 0.211029 0.893944)
(-0.00228279 -0.0696728 0.997567)
(0.0142245 -0.0412468 0.999048)
(0.0264085 -0.0800711 0.996439)
(-0.020686 -0.251568 0.967618)
(-0.0245826 -0.165869 0.985841)
(-0.0233541 -0.132786 0.99087)
(-0.0193362 -0.0345332 0.999216)
(0.0114976 -0.0403005 0.999121)
(-0.0126444 -0.0547102 0.998422)
(0.0242308 -0.052962 0.998303)
(0.024611 -0.0534606 0.998267)
(0.125826 -0.031166 0.991563)
(0.178557 -0.0191406 0.983743)
(0.126697 -0.030903 0.99146)
(0.0337259 -0.0523475 0.998059)
(0.0800212 -0.0373555 0.996093)
(0.0794117 -0.0433726 0.995898)
(0.1799 -0.0188585 0.983504)
(0.12889 -0.0304628 0.991191)
(0.127745 -0.0306758 0.991332)
(0.638865 0.0654413 0.76653)
(0.472193 0.0356428 0.880774)
(0.471005 0.0359697 0.881397)
(0.343254 0.0152441 0.939119)
(0.252195 -0.00316883 0.967671)
(0.341763 0.0145398 0.939674)
(0.339329 0.0134513 0.940571)
(0.250264 -0.00372292 0.968171)
(0.340452 0.0139427 0.940158)
(0.336864 0.0127114 0.941468)
(0.244122 -0.00518243 0.969731)
(0.337172 0.0126675 0.941358)
(0.655729 0.0657775 0.752125)
(0.473648 0.0354606 0.88)
(0.475384 0.0354389 0.879065)
(0.245398 -0.00492325 0.96941)
(0.338402 0.0130717 0.940911)
(0.337678 0.0128115 0.941174)
(0.0348694 -0.052504 0.998012)
(0.0819849 -0.0432767 0.995694)
(0.0826253 -0.0368333 0.9959)
(0.134247 -0.0294194 0.990511)
(0.186609 -0.0173766 0.982281)
(0.132795 -0.0297288 0.990698)
(0.130117 -0.0302429 0.991037)
(0.184753 -0.017821 0.982623)
(0.131416 -0.0299982 0.990873)
(-0.0213682 -0.0534137 0.998344)
(-0.0215164 -0.05401 0.998309)
(-0.022519 -0.0446969 0.998747)
(0.0079042 -0.037974 0.999247)
(-0.0206657 -0.0449295 0.998776)
(-0.0167108 -0.0586845 0.998137)
(0.0171144 -0.0408479 0.999019)
(0.0105606 -0.050777 0.998654)
(0.0117753 -0.0385153 0.999189)
(-0.016532 -0.0456163 0.998822)
(-0.0186533 -0.0452714 0.998801)
(-0.083725 0.995952 0.032718)
(-0.0657356 0.997134 0.0374593)
(-0.0591503 0.997521 0.0381254)
(-0.059489 0.996499 0.0587493)
(0.144525 -0.0185166 0.989328)
(-0.0673908 0.996089 0.057136)
(-0.0793863 0.995009 0.0604501)
(0.124799 -0.019912 0.991982)
(-0.0740084 0.995599 0.0574948)
(-0.00134724 0.971301 0.23785)
(0.0701646 -0.0201248 0.997332)
(-0.068693 0.990517 0.118984)
(-0.102885 0.994188 0.0317058)
(-0.0728721 0.996651 0.0370998)
(-0.0811135 0.996018 0.0369884)
(0.0803903 -0.0207035 0.996548)
(-0.0824267 0.994284 0.067866)
(-0.0813448 0.993195 0.0833476)
(-0.0159326 -0.0596853 0.99809)
(0.0135929 -0.0511394 0.998599)
(0.0205292 -0.0405411 0.998967)
(-0.00613875 -0.0466517 0.998892)
(0.0333269 -0.039524 0.998663)
(-0.0090975 -0.0464984 0.998877)
(-0.0142529 -0.0459586 0.998842)
(0.026994 -0.0394999 0.998855)
(-0.011786 -0.0462536 0.99886)
(0.0383431 -0.0526843 0.997875)
(0.0949792 -0.04162 0.994609)
(0.0959997 -0.0326261 0.994847)
(0.149167 -0.0250677 0.988494)
(0.206038 -0.0112957 0.978479)
(0.146917 -0.0258154 0.988812)
(0.142804 -0.0271385 0.989379)
(0.203094 -0.0123302 0.979082)
(0.144797 -0.0265 0.989106)
(0.344927 0.0160567 0.938492)
(0.258873 -0.00100548 0.965911)
(0.346774 0.0169801 0.937795)
(0.616666 0.0676516 0.784312)
(0.468899 0.0407825 0.88231)
(0.468679 0.0396443 0.882479)
(0.261406 -0.000102941 0.965229)
(0.351016 0.0191705 0.936173)
(0.348804 0.0180179 0.937023)
(0.0367199 -0.0527946 0.99793)
(0.092147 -0.0341341 0.99516)
(0.0912547 -0.0424022 0.994924)
(0.135791 -0.0290714 0.990311)
(0.192889 -0.0156652 0.981095)
(0.13741 -0.0286713 0.990099)
(0.140911 -0.0277084 0.989634)
(0.195235 -0.0149538 0.980642)
(0.139119 -0.0282225 0.989873)
(0.361972 0.0249546 0.931855)
(0.27325 0.00448531 0.961933)
(0.358894 0.0233312 0.933087)
(0.606673 0.0708465 0.791788)
(0.469358 0.0420613 0.882006)
(0.470063 0.0434723 0.881562)
(0.269999 0.0031888 0.962855)
(0.353426 0.0204377 0.935239)
(0.356047 0.0218243 0.934213)
(-0.0217981 -0.0554484 0.998224)
(-0.0217547 -0.0550373 0.998247)
(-0.0134543 -0.0620398 0.997983)
(0.0296908 -0.0509917 0.998258)
(0.0394539 -0.0362502 0.998564)
(0.0318304 -0.0420608 0.998608)
(0.116345 -0.0275573 0.992827)
(0.0253163 -0.0434589 0.998734)
(0.0140103 -0.0454178 0.99887)
(0.102009 -0.03089 0.994304)
(0.0193934 -0.0445552 0.998819)
(-0.0501827 0.996816 0.0619707)
(0.220996 -0.00864722 0.975236)
(-0.0396616 0.996998 0.0664976)
(-0.0575643 0.997612 0.0381669)
(-0.019451 0.998565 0.0499014)
(-0.0271024 0.998535 0.0468409)
(0.252749 -0.00252024 0.967529)
(-0.0138181 0.99675 0.0793603)
(-0.0274704 0.997001 0.0723512)
(-0.0147986 -0.0612614 0.998012)
(0.0336972 -0.038018 0.998709)
(0.0247801 -0.0515337 0.998364)
(-0.0028749 -0.0467163 0.998904)
(0.0568904 -0.0381871 0.99765)
(0.000735771 -0.0466471 0.998911)
(0.00914058 -0.0460308 0.998898)
(0.0665203 -0.0371022 0.997095)
(0.00472386 -0.0464411 0.99891)
(0.0621823 0.990747 0.120641)
(0.405399 0.0481163 0.912872)
(0.0397388 0.993328 0.108261)
(-0.0370405 0.998296 0.0450994)
(-0.0107553 0.998508 0.0535361)
(-0.00113371 0.99833 0.0577555)
(0.36478 0.0304743 0.930595)
(0.00192626 0.996147 0.08768)
(0.0197738 0.995056 0.0973219)
(-0.00514851 0.999984 0.00241923)
(0.0253243 0.999628 0.0101511)
(-0.070043 0.997544 -0.0006312)
(0.998816 0.00346069 -0.0485328)
(-0.0297865 0.999533 -0.00686908)
(0.0169391 0.999855 0.00164562)
(0.998792 0.00931091 -0.0482536)
(0.0242198 -0.0534949 0.998274)
(0.498585 0.827889 0.256928)
(0.44481 0.815698 0.369839)
(0.443762 0.874613 0.195263)
(0.444149 0.797743 0.407845)
(0.493837 0.841622 0.218628)
(0.469909 0.854511 0.22135)
(0.457719 0.775244 0.435304)
(0.778987 0.210856 0.590525)
(0.421505 0.0676665 0.904298)
(0.473595 0.208611 0.85568)
(0.424229 0.185631 0.886324)
(0.619024 0.343057 0.706486)
(0.572954 0.107265 0.812538)
(0.509362 0.270875 0.816809)
(0.0260647 -0.0548663 0.998153)
(0.0250665 -0.0540552 0.998223)
(0.478684 0.867317 0.136469)
(0.423379 0.855095 0.29927)
(0.423071 0.890325 0.168322)
(0.348469 0.912372 0.21482)
(0.471906 0.86397 0.175674)
(0.396535 0.906904 0.142423)
(0.423781 0.877059 0.226223)
(-0.102984 0.99468 0.00241223)
(-0.0231901 0.999695 -0.00854778)
(0.991835 -0.117703 -0.0490821)
(0.0592714 0.998235 0.00365055)
(-0.0548271 0.998495 0.000872205)
(0.0305656 0.999492 0.00898063)
(0.991608 -0.118985 -0.050553)
(0.0809163 -0.0444645 0.995729)
(0.0615104 -0.0440656 0.997133)
(0.0475537 -0.0480521 0.997712)
(0.0330134 -0.0531337 0.998042)
(0.0616847 -0.0441797 0.997117)
(0.0473431 -0.0483267 0.997709)
(0.0807903 -0.0443228 0.995745)
(-0.0218877 -0.0541193 0.998295)
(0.131075 -0.0278963 0.99098)
(-0.0808724 -0.056786 0.995106)
(-0.0114796 -0.0535425 0.9985)
(-0.0616299 -0.0507395 0.996809)
(-0.0181252 -0.0591452 0.998085)
(-0.0120625 -0.0537916 0.998479)
(-0.0620286 -0.0509917 0.996771)
(-0.0804395 -0.0565496 0.995154)
(-0.0348719 -0.100529 0.994323)
(-0.0211552 -0.099025 0.99486)
(0.114327 -0.187957 0.975501)
(0.0462597 -0.104786 0.993418)
(0.0307463 -0.154747 0.987476)
(-0.0451578 -0.0848081 0.995373)
(0.0467205 -0.143552 0.988539)
(0.0241297 -0.0530114 0.998302)
(0.0248367 -0.0537496 0.998246)
(0.0807113 -0.0440497 0.995764)
(0.0614683 -0.0438841 0.997144)
(0.0478297 -0.0478573 0.997708)
(0.0333156 -0.0525225 0.998064)
(0.080717 -0.0440913 0.995761)
(0.0614179 -0.0438421 0.997149)
(0.0480765 -0.0477112 0.997704)
(0.082371 -0.0437006 0.995643)
(0.0354385 -0.0526213 0.997986)
(0.0627242 -0.0441044 0.997056)
(0.0526232 -0.0473817 0.99749)
(0.0626011 -0.0440224 0.997067)
(0.0522745 -0.0473919 0.997508)
(0.0825668 -0.0437663 0.995624)
(-0.0214999 -0.0534795 0.998337)
(-0.021604 -0.05437 0.998287)
(-0.0799691 -0.0565417 0.995192)
(-0.01098 -0.0533767 0.998514)
(-0.0613267 -0.0506475 0.996832)
(-0.0172344 -0.058613 0.998132)
(-0.0801203 -0.0565898 0.995178)
(-0.0105038 -0.0532764 0.998525)
(-0.0611724 -0.0505587 0.996846)
(-0.0827263 -0.0601016 0.994758)
(-0.0156151 -0.060228 0.998062)
(-0.00561709 -0.054382 0.998504)
(-0.0629506 -0.0529477 0.996611)
(-0.00600566 -0.0542833 0.998508)
(-0.0627411 -0.0527248 0.996636)
(-0.083091 -0.0603556 0.994713)
(0.0860103 -0.0433254 0.995352)
(0.0391336 -0.052556 0.997851)
(0.0651537 -0.0446104 0.996878)
(0.0599999 -0.0459363 0.997141)
(0.0649833 -0.0445399 0.996892)
(0.0594727 -0.046093 0.997165)
(0.0863117 -0.0433539 0.995324)
(0.0829828 -0.0437499 0.99559)
(0.0360694 -0.0527308 0.997957)
(0.0629014 -0.0441055 0.997045)
(0.0530602 -0.047356 0.997468)
(0.0630275 -0.0441832 0.997033)
(0.0827776 -0.0436872 0.99561)
(0.0534256 -0.0473294 0.99745)
(-0.0217324 -0.0555389 0.99822)
(-0.0216933 -0.054721 0.998266)
(-0.0870134 -0.0651886 0.994072)
(-0.0127333 -0.0622496 0.997979)
(0.00298833 -0.0542109 0.998525)
(-0.0651706 -0.0561722 0.996292)
(0.00225301 -0.0543448 0.99852)
(-0.0651047 -0.0560219 0.996305)
(-0.0871952 -0.0653426 0.994046)
(-0.0837547 -0.0610825 0.994613)
(-0.0152247 -0.0607663 0.998036)
(-0.00522896 -0.0544838 0.998501)
(-0.0631338 -0.0532152 0.996585)
(-0.0833886 -0.0608053 0.99466)
(-0.00480587 -0.0545644 0.998499)
(-0.0633521 -0.0534192 0.996561)
(0.065363 -0.0445854 0.996865)
(0.060626 -0.0457459 0.997112)
(0.0866148 -0.0432252 0.995304)
(0.00374814 -0.0540381 0.998532)
(-0.0651444 -0.0563188 0.996285)
(-0.0871796 -0.0656257 0.994029)
(0.0249236 -0.0572201 0.99805)
(0.734655 0.541479 0.408758)
(0.682536 0.464659 0.564125)
(0.637887 0.636563 0.433459)
(0.648795 0.392679 0.651819)
(0.729418 0.483978 0.48344)
(0.796713 0.521478 0.305465)
(0.652736 0.459985 0.601955)
(0.034266 -0.0644891 0.99733)
(0.797431 0.332297 0.503668)
(0.711546 0.0979555 0.695778)
(0.847081 0.299939 0.438737)
(0.68032 0.271316 0.680847)
(0.746427 0.380363 0.54605)
(0.684468 0.444531 0.577837)
(0.718686 0.193708 0.667809)
(0.0256782 -0.054662 0.998175)
(0.0254481 -0.0544593 0.998192)
(0.468777 0.883112 0.0189947)
(0.166065 0.985126 0.0441488)
(0.170336 0.984832 0.0330391)
(0.604075 0.796917 -0.003983)
(0.439258 0.898293 0.0110272)
(0.246196 0.967524 0.0573108)
(0.526838 0.849827 0.0153895)
(0.448982 0.893538 0.00224105)
(-0.0219803 0.999671 0.0132561)
(0.160829 0.986244 0.0381785)
(0.753563 0.656954 -0.0235389)
(0.421335 0.906876 0.00721857)
(0.087088 0.996065 0.0164101)
(0.925795 0.375548 -0.0432055)
(0.0855947 -0.0476635 0.995189)
(0.0343325 -0.0565779 0.997808)
(0.0679351 -0.0478518 0.996542)
(0.0504337 -0.0527284 0.997335)
(0.0648678 -0.0475789 0.996759)
(0.0881309 -0.0493258 0.994887)
(0.0488205 -0.0511641 0.997496)
(0.10014 -0.0547222 0.993467)
(0.0411475 -0.0645309 0.997067)
(0.069748 -0.0529539 0.996158)
(0.0551955 -0.0522907 0.997105)
(0.080519 -0.0511346 0.995441)
(0.0946202 -0.0513361 0.994189)
(0.0601117 -0.0550595 0.996672)
(-0.0241869 -0.0579278 0.998028)
(-0.0231142 -0.0621885 0.997797)
(-0.0848719 -0.0583598 0.994681)
(-0.0205162 -0.0626817 0.997823)
(-0.0140992 -0.0559655 0.998333)
(-0.0670325 -0.0545633 0.996258)
(-0.0143913 -0.0560603 0.998324)
(-0.0662679 -0.0538277 0.996349)
(-0.0854251 -0.0582331 0.994641)
(-0.0861734 -0.0571569 0.994639)
(-0.0191975 -0.0641552 0.997755)
(-0.0121119 -0.055589 0.99838)
(-0.0677603 -0.055212 0.996173)
(-0.00958066 -0.0538827 0.998501)
(-0.0675464 -0.0544058 0.996232)
(-0.0858731 -0.0580176 0.994615)
(0.0243126 -0.0530454 0.998296)
(0.0244917 -0.0532845 0.998279)
(0.0810905 -0.0437365 0.995747)
(0.0340181 -0.0523423 0.99805)
(0.0617482 -0.0437873 0.997131)
(0.0498528 -0.0474244 0.99763)
(0.0616716 -0.0437273 0.997138)
(0.0812218 -0.0437865 0.995734)
(0.0495656 -0.0474343 0.997644)
(0.0815244 -0.0437681 0.99571)
(0.0345317 -0.052426 0.998028)
(0.0618815 -0.0437797 0.997123)
(0.050218 -0.0474147 0.997612)
(0.061978 -0.0438424 0.997114)
(0.0813737 -0.0437024 0.995725)
(0.0505145 -0.0474127 0.997597)
(-0.021378 -0.0535142 0.998338)
(-0.0214428 -0.053793 0.998322)
(-0.0803338 -0.0575272 0.995107)
(-0.0164661 -0.0588903 0.998129)
(-0.00833552 -0.0535035 0.998533)
(-0.0614175 -0.0511875 0.996799)
(-0.00867209 -0.0534145 0.998535)
(-0.0612793 -0.0510259 0.996816)
(-0.080587 -0.0577063 0.995076)
(-0.0811272 -0.0583293 0.994996)
(-0.0161264 -0.059345 0.998107)
(-0.0080124 -0.053614 0.99853)
(-0.0615549 -0.0514086 0.996779)
(-0.00767866 -0.053719 0.998527)
(-0.0617489 -0.0515805 0.996758)
(-0.080813 -0.0580941 0.995035)
(0.0847391 -0.0435789 0.99545)
(0.0378763 -0.0527571 0.997889)
(0.0640586 -0.0443995 0.996958)
(0.056485 -0.0468787 0.997302)
(0.0641974 -0.0444518 0.996947)
(0.0845025 -0.0435514 0.995471)
(0.0569224 -0.0467691 0.997283)
(0.0840314 -0.043615 0.995508)
(0.0371493 -0.0527982 0.997914)
(0.0638814 -0.044401 0.996969)
(0.0559679 -0.0469798 0.997327)
(0.0637469 -0.0443443 0.99698)
(0.0842611 -0.0436563 0.995487)
(0.0555484 -0.0470649 0.997346)
(-0.021802 -0.0553854 0.998227)
(-0.0217941 -0.0551923 0.998238)
(-0.0860817 -0.0637268 0.994248)
(-0.013878 -0.0618779 0.997987)
(-0.00146384 -0.0548006 0.998496)
(-0.0645156 -0.0549818 0.996401)
(-0.000881537 -0.0547568 0.998499)
(-0.0646641 -0.0551426 0.996382)
(-0.0857999 -0.0635101 0.994286)
(-0.0852946 -0.0628768 0.99437)
(-0.0144757 -0.0615303 0.998)
(-0.00200283 -0.054808 0.998495)
(-0.0644016 -0.0547456 0.996421)
(-0.00254569 -0.0548129 0.998493)
(-0.0642552 -0.0545556 0.996441)
(-0.0855917 -0.0631016 0.99433)
(-0.441856 0.896457 -0.0335922)
(-0.0850287 0.990903 0.10431)
(-0.0630268 0.991778 0.111374)
(-0.222607 0.973538 -0.0516731)
(-0.0779465 0.976897 0.19899)
(-0.548546 0.834183 -0.0568909)
(-0.480364 0.876702 -0.0253838)
(-0.0984494 0.990308 0.0979652)
(-0.0181362 0.975311 0.220091)
(-0.180486 0.976354 -0.118987)
(-0.445497 0.890782 -0.0896659)
(-0.0551222 0.978598 0.198263)
(0.0639482 0.870216 0.488503)
(-0.0033502 0.958686 -0.284448)
(0.0134009 0.909222 0.416096)
(-0.336707 0.906253 -0.255606)
(-0.579125 0.808705 -0.103004)
(-0.036729 0.937638 0.345667)
(0.000293633 0.880458 0.474123)
(-0.576708 0.801471 -0.158282)
(-0.408198 0.896673 -0.171325)
(-0.0195814 0.947864 0.318074)
(0.0285883 0.929388 0.367996)
(-0.106444 0.972139 -0.208841)
(-0.119995 0.992772 0.00199117)
(0.0622716 0.998055 0.00278972)
(0.0213029 0.999742 0.00786738)
(0.998099 -0.038726 -0.0479458)
(0.0172552 0.999848 0.00245301)
(0.00883767 0.999958 0.00259329)
(0.995885 0.0724432 0.0544578)
(0.010658 0.999939 0.00302919)
(0.0147603 0.999889 0.0022393)
(0.996526 -0.0645186 0.0526602)
(-0.0118666 0.99993 6.56083e-05)
(0.024248 -0.0538613 0.998254)
(0.512181 0.768722 0.383063)
(0.437161 0.744785 0.504168)
(0.416416 0.638724 0.647016)
(0.501904 0.786951 0.358888)
(0.445689 0.708629 0.546997)
(0.544358 0.783299 0.300195)
(0.498549 0.734667 0.460123)
(0.505152 0.817669 0.276114)
(0.499741 0.681855 0.534166)
(0.520547 0.817233 0.247307)
(0.536482 0.775915 0.331878)
(0.49501 0.71832 0.488857)
(0.537926 0.732104 0.417922)
(0.423715 0.603428 0.67553)
(0.477296 0.63563 0.606764)
(0.544969 0.718848 0.431586)
(0.469523 0.664274 0.581626)
(0.284572 -0.0243835 0.958344)
(0.917927 0.172514 0.357281)
(0.5733 0.262347 0.77621)
(0.873559 0.285594 -0.394121)
(0.57659 -0.406925 0.708488)
(0.969406 0.0786064 -0.232535)
(0.776075 -0.483192 0.405258)
(0.588226 0.375836 0.716057)
(0.768236 0.515961 0.378944)
(0.505957 0.433831 0.745519)
(0.500251 0.863633 0.0623406)
(0.650347 0.289477 0.702319)
(0.35292 0.514717 0.781354)
(-0.194907 0.877029 -0.439125)
(0.499363 0.583632 0.64032)
(0.0259854 -0.0548551 0.998156)
(0.0251428 -0.0541342 0.998217)
(-0.0440866 0.999023 0.00292884)
(-0.0398671 0.999193 0.00489305)
(0.0372617 0.999282 -0.00684753)
(-0.0579716 0.99831 0.00401495)
(-0.04811 0.998823 0.00620616)
(0.00630344 0.999979 -0.00135138)
(-0.0507557 0.998703 0.00395745)
(-0.0643687 0.997924 0.00229712)
(0.0155563 0.99987 -0.0042916)
(0.00202637 0.999995 0.00260708)
(0.00542883 0.99998 0.00311448)
(-0.0391765 0.999227 -0.00324628)
(0.0117511 0.999924 0.00362762)
(-0.00978613 0.999951 -0.00145509)
(0.0374866 0.999291 0.00347785)
(0.034974 0.999382 0.00343745)
(-0.00669538 0.999973 -0.00294464)
(0.00572788 0.999982 0.00192632)
(0.00360471 0.999992 0.00184852)
(-0.0098447 0.999946 -0.00327204)
(0.474011 0.835102 0.279137)
(0.420131 0.789331 0.447712)
(0.464347 0.73312 0.496907)
(0.483318 0.81518 0.319194)
(0.407796 0.830281 0.379915)