/*--------------------------------*- C++ -*----------------------------------*\
| =========                 |                                                 |
| \\      /  F ield         | OpenFOAM: The Open Source CFD Toolbox           |
|  \\    /   O peration     | Version:  2012                                  |
|   \\  /    A nd           | Website:  www.openfoam.com                      |
|    \\/     M anipulation  |                                                 |
\*---------------------------------------------------------------------------*/
FoamFile
{
    version     2.0;
    format      ascii;
    class       volScalarField;
    location    "0.106/solid";
    object      sigmaDiff;
}
// * * * * * * * * * * * * * * * * * * * * * * * * * * * * * * * * * * * * * //

dimensions      [1 -1 -2 0 0 0 0];


internalField   nonuniform List<scalar> 
3125
(
-197.999
-345454
-318.463
-259479
-191452
-262959
-245.626
-274.768
-198.088
-344.092
-246.121
-344404
-449.606
-28991.9
-92862.2
-200112
-314323
-348024
-289450
-104527
-99239.7
-364344
-340691
-267800
-339765
-87739.9
-92586.1
-268952
-309506
-237045
-284738
-86644
-97373.1
-214852
-194075
-86889.9
-264231
-79451.1
-163837
-232308
-145650
-85096.9
-210333
-72336.9
-186802
-189468
-159487
-141599
-394.56
-296.359
-517.371
-1784.34
-3753.93
-376761
-2731.09
-384274
-3675.87
-224515
-229292
-272.352
-290.025
-201.522
-200.853
-274.149
-286.856
-406.706
-258.887
-313.427
-291.628
-252.618
-304.08
-225883
-375984
-240275
-520.961
-2349.45
-3691.7
-3383.14
-83650.4
-104882
-194065
-7618.93
-183069
-88895.9
-191793
-383584
-7166.91
-146152
-244581
-8628
-346858
-353368
-103714
-322657
-120491
-107397
-75261.5
-67820.6
-54240.4
-105901
-65561.6
-328461
-131393
-124941
-306735
-301858
-221185
-306813
-206906
-90064.9
-156351
-166883
-180056
-90777.3
-170279
-302074
-187173
-202050
-275501
-270647
-98374.3
-251756
-83704.9
-91085.5
-30108.6
-37825.7
-50547.8
-92560.7
-40718.7
-247089
-66422.4
-79183.6
-226626
-145010
-161247
-152720
-84053.2
-141427
-231310
-182105
-166551
-125420
-82997.6
-137526
-195108
-199686
-175007
-38305.4
-47719.7
-27857.9
-80089.9
-22211.4
-179323
-62416.3
-51179.7
-17676.4
-78275.4
-20740.8
-338.249
-291.045
-438.381
-503.56
-703.099
-36.945
-359324
-136.118
-695.412
-400.331
-381046
-20089.6
-10787.8
-205536
-248479
-232.196
-302.51
-97.3178
-215.311
-45.8054
-37.0922
-198.911
-37.3372
-233.856
-236.402
-404.218
-294.472
-357.1
-303.537
-247.23
-305.236
-272893
-357991
-285009
-498.943
-682.378
-744.983
-81051.9
-76922.1
-34430.6
-63172.6
-36076
-110032
-92664
-109974
-395423
-95662.3
-212502
-285471
-72809.2
-328466
-342254
-223814
-303521
-235406
-121581
-57172.3
-66700.5
-52696.1
-101286
-52973.9
-337843
-240149
-263163
-326228
-282365
-269796
-325726
-258225
-88549.2
-102743
-103947
-109616
-92076.8
-108928
-283133
-214091
-225476
-294970
-251358
-219338
-270574
-208544
-88148.5
-52353
-52432.6
-52523.9
-95666
-52446.8
-228560
-165003
-174999
-207966
-155790
-167018
-101469
-85995.6
-100121
-250096
-210791
-199422
-90363.6
-80703.7
-92197.4
-177068
-218209
-158033
-111632
-120584
-52212.7
-83495
-52002.9
-196893
-160877
-151089
-48858.7
-74401.2
-49631.3
-152586
-108015
-253.691
-267.387
-374.392
-338.296
-319.823
-278.708
-311.713
-293.734
-494.686
-854.264
-828.956
-832.724
-3311.65
-1250.2
-1535.88
-3839.52
-1508.78
-363973
-926.9
-1586.74
-574.071
-403408
-20164.7
-2344.39
-6694.54
-210265
-243675
-255.33
-305.931
-210.497
-37.7651
-41.0821
-199.189
-37.726
-37.4926
-245.312
-240.009
-257.131
-277.017
-259.98
-269.496
-280.972
-263.852
-414.305
-353.508
-365.287
-270.763
-320.988
-333.77
-328.064
-327.499
-341.179
-307.291
-294.047
-309.356
-249.172
-313.089
-308.178
-297.934
-318.688
-312.906
-273171
-230667
-279586
-362597
-302655
-287557
-235590
-292876
-286207
-516.596
-832.251
-792.697
-1207.21
-2950.95
-1296.72
-1522.41
-3517.44
-1440.25
-43151.5
-6428.02
-28150.7
-74254.3
-102194
-88077.4
-65944.9
-139312
-58556.2
-94524.7
-43491.5
-144605
-167516
-124129
-7101.59
-26860.6
-25818.4
-143245
-186025
-144348
-91579.9
-106718
-109020
-189024
-144717
-144754
-391144
-305298
-304476
-25163.4
-8166.25
-28275.1
-186505
-188027
-72524.6
-248600
-79437.6
-299412
-214494
-275208
-9328.93
-27551.9
-28305
-333213
-378835
-155256
-109324
-162572
-308285
-253722
-240280
-114956
-177876
-170160
-117528
-54193
-61950.4
-38833.7
-62290.8
-24201.3
-19055.3
-62830.1
-15358.1
-13301.8
-58142.3
-14556.3
-103415
-54026.1
-53284.5
-62005.1
-17765
-16192.5
-343845
-259620
-261994
-202011
-122629
-193891
-184643
-122440
-186586
-321368
-287235
-266835
-216472
-260515
-321005
-243511
-254940
-211715
-247822
-254182
-89323
-106154
-105083
-127472
-159921
-129730
-134044
-163430
-131920
-141744
-176884
-139985
-91455.1
-107158
-108092
-173618
-136103
-138091
-287869
-240185
-228791
-222023
-192185
-228532
-241428
-197144
-235000
-290098
-256164
-148298
-93266
-141619
-265864
-193728
-204161
-88390.4
-128914
-135176
-89622.9
-52461.3
-52463.9
-19624.2
-32523
-18496.9
-16240.2
-35095.6
-17357.2
-13096.4
-47057.9
-13544.3
-94075.8
-52443.8
-52429.5
-43791.1
-15192.2
-14269.6
-233159
-189419
-179222
-105263
-70551.1
-110993
-122810
-74802.7
-116839
-212618
-181547
-170238
-168297
-150472
-175171
-188794
-155887
-182005
-125142
-149022
-122739
-85050.4
-97194.1
-98697.3
-145258
-117702
-120259
-245391
-184794
-196144
-215471
-176980
-208873
-195536
-171796
-202229
-106680
-129519
-109553
-81882.4
-95611.2
-93945.5
-133556
-115065
-112348
-181542
-213545
-162223
-133621
-124348
-64273.2
-41275.2
-68860.8
-78530
-44415.6
-73615.2
-20714.6
-25783
-21749.8
-81828.7
-51336.4
-51713
-23895.9
-23593.2
-22713.5
-192467
-137520
-147072
-99656.5
-58535.8
-94172
-83600.6
-54787.8
-88818.8
-26105.7
-18474.8
-25641.5
-76380.4
-50866.5
-50299.9
-19494.7
-24379
-25064.4
-154.612
-193.205
-198.501
-145.858
-193.629
-153.972
-146.44
-350145
-361.383
-248.858
-360.765
-398.461
-288.602
-440.049
-319.611
-129678
-385722
-123083
-198040
-161470
-265769
-90678.9
-196135
-258132
-216.713
-208.261
-311.238
-242.923
-247.734
-274.744
-182.083
-154.976
-193.414
-145.941
-198.658
-154.123
-194.101
-146.556
-372000
-368404
-321239
-348976
-372860
-325531
-367818
-319076
-385100
-227070
-261882
-255652
-294148
-266347
-260406
-222379
-340950
-397961
-314286
-412242
-344046
-368700
-369544
-335906
-272654
-359204
-363848
-316888
-335118
-363501
-359283
-312565
-300987
-273678
-293264
-251284
-298036
-255655
-296424
-304687
-241799
-213222
-257421
-250929
-280021
-217785
-253010
-246217
-157530
-219405
-192974
-182556
-197135
-186942
-153468
-226412
-198693
-216298
-181873
-221137
-186157
-221660
-287259
-259520
-288491
-246907
-283723
-291833
-242551
-168217
-227594
-97737
-149745
-129971
-117527
-133676
-121275
-94408.5
-145479
-205829
-188831
-178219
-149470
-184723
-173902
-211463
-177591
-216886
-126303
-113842
-91143
-373157
-1324.12
-1852.8
-2425.14
-2131.83
-1838.66
-1608.33
-1530.18
-386899
-4440.54
-6409.05
-4045.2
-2908.86
-2315.92
-6414.29
-4780.65
-219761
-234079
-164.425
-204.105
-202.591
-147.302
-160.572
-207.165
-148.791
-157.88
-200.238
-199.842
-146.792
-158.705
-198.233
-147.009
-392868
-371958
-397763
-352586
-394894
-395222
-348172
-400321
-386395
-406235
-359985
-403781
-403496
-363398
-342646
-357790
-252358
-317952
-295117
-290362
-290109
-285185
-257781
-268010
-333040
-300763
-296030
-305352
-301033
-263182
-311622
-296983
-337118
-311549
-331238
-286323
-335952
-332656
-290703
-323678
-297342
-326512
-281933
-321790
-328158
-277561
-280360
-265813
-191133
-256451
-226830
-218353
-231147
-222955
-186800
-178265
-242428
-222526
-213795
-218253
-209247
-182533
-250068
-221954
-250117
-212065
-245304
-254744
-207739
-264100
-235999
-254935
-216412
-259751
-259437
-220756
-190567
-204281
-115143
-170715
-156606
-144693
-152709
-140676
-118794
-126205
-183682
-160541
-148744
-164507
-152853
-122465
-360
-314.411
-294.033
-353.835
-312.16
-445.817
-311.773
-253.787
-363.779
-474.603
-505.633
-399.581
-1185.72
-1507.49
-1198.43
-1757.29
-783.556
-483.926
-1019.35
-1621.96
-871.296
-625.389
-570.429
-773.894
-154.959
-198.696
-193.66
-146.675
-47.3252
-64.9161
-37.1514
-47.117
-65.0354
-37.1262
-65.0269
-354827
-229.279
-172.109
-194.407
-166.946
-236.436
-443.836
-508.527
-708.283
-573.683
-530.356
-591.596
-417.071
-309.545
-277.925
-459.611
-433.824
-326.96
-507312
-20088.9
-41289.8
-68561.4
-11526.8
-101402
-14506.3
-25839.3
-41972.5
-50340.8
-15683.8
-7851.85
-24978.7
-4464.39
-20425.6
-200838
-253309
-229.971
-235.718
-195.772
-196.023
-195.167
-230.157
-236.489
-231.209
-235.389
-288.507
-304.733
-272.043
-206.205
-206.336
-271.823
-271.069
-289.594
-305.688
-289.292
-305.637
-98.1575
-130.225
-71.2549
-126.932
-102.507
-198.148
-227.777
-232.995
-158.228
-250.645
-183.314
-167.517
-79.5602
-55.0847
-75.3052
-66.3909
-85.5511
-47.2369
-64.8644
-37.4961
-47.1484
-64.8065
-155.331
-198.933
-194.853
-146.507
-194.549
-155.138
-146.78
-46.9827
-37.6771
-64.2618
-46.6237
-64.5587
-233.796
-243.05
-236.802
-239.441
-198.035
-197.228
-233.297
-237.153
-232.061
-238.952
-199.237
-201.163
-391.101
-382.61
-403.72
-357.395
-382.823
-347.459
-326.052
-454.447
-363.976
-266.691
-277.354
-333.234
-410.555
-495.56
-491.918
-444.262
-292.679
-309.779
-309.131
-292.501
-272.827
-206.271
-272.904
-207.372
-290.665
-306.808
-290.668
-307.347
-274.406
-208.466
-207.763
-274.568
-369661
-366009
-376249
-353553
-381577
-334139
-377327
-329890
-380219
-359164
-363155
-711.292
-1295.51
-869.75
-1250.41
-647.776
-440.626
-493.827
-475.569
-624.619
-818.829
-634.991
-1045.77
-723.183
-576.935
-514.693
-718.31
-182153
-245903
-188896
-265511
-215428
-177739
-211360
-160624
-267730
-174952
-194111
-197110
-173099
-158029
-160935
-160166
-156419
-174410
-197028
-175480
-194947
-428065
-501396
-329399
-186639
-349713
-421687
-423619
-627040
-356993
-587561
-343094
-568583
-523762
-97644.6
-617283
-162770
-323842
-427019
-156004
-151038
-231829
-298858
-275441
-270015
-270894
-265199
-236723
-142137
-146729
-141652
-112319
-144200
-105408
-141263
-137760
-163173
-168968
-119981
-89305.6
-91910.2
-112985
-126743
-101376
-103161
-130270
-144758
-145152
-129524
-103651
-126059
-101813
-146689
-146436
-209644
-228223
-322753
-362649
-314313
-318763
-321879
-347047
-292657
-302795
-255170
-331080
-277513
-344756
-349016
-354820
-330428
-350013
-303840
-354656
-308198
-350444
-356217
-352045
-167133
-184495
-167541
-184895
-152040
-153144
-154755
-153526
-165681
-182373
-165161
-182101
-174180
-194924
-193712
-174495
-160956
-158559
-175233
-194659
-174623
-196206
-158439
-160511
-310950
-306475
-305559
-278408
-307549
-264405
-302799
-260038
-310089
-298510
-303015
-299828
-246580
-126061
-130154
-208743
-275301
-244212
-236848
-248596
-241531
-204267
-138169
-133869
-120545
-102642
-123822
-104043
-133063
-133291
-135023
-134728
-122644
-103607
-119386
-102302
-128210
-104354
-102588
-124793
-143751
-143295
-125443
-102248
-128878
-104071
-141910
-142380
-94648.3
-91073.6
-161599
-223971
-205519
-195782
-201324
-191344
-165734
-84673.2
-88176.1
-244369
-239557
-231170
-203328
-230806
-194758
-225976
-190461
-235898
-230667
-235507
-161511
-176861
-176840
-160777
-151393
-150418
-148660
-149507
-163047
-179549
-163671
-179699
-282253
-286840
-282640
-254805
-274146
-233821
-278937
-238180
-278032
-294983
-290431
-147078
-160780
-160161
-148358
-135037
-135083
-137875
-137693
-145237
-156298
-143844
-157052
-172636
-222889
-48623.5
-45769.4
-101108
-153870
-141186
-128896
-137417
-125058
-104552
-41166.9
-43911
-119879
-102286
-101192
-116645
-131432
-131281
-118093
-101821
-121332
-103026
-129364
-129430
-72465.4
-75812.7
-141558
-201354
-176559
-165370
-180628
-169627
-137645
-81899.9
-78475.4
-106790
-95364.3
-95827.4
-110082
-114405
-113841
-107557
-93922.9
-104242
-93603.6
-116897
-117354
-226542
-265.959
-299.067
-296.194
-278.008
-226.389
-215.725
-228.565
-253.711
-265.717
-260.022
-270.944
-252.148
-381.252
-332.715
-378.716
-341.934
-446.993
-533.042
-527.647
-453.856
-434.794
-508.499
-419.874
-511.522
-395.05
-362.458
-353.851
-399.054
-301.337
-319.671
-295.498
-322.833
-305.668
-299.688
-292.915
-311.002
-292.852
-277.073
-289.75
-280.817
-313.234
-340.506
-335.692
-321.078
-1279.17
-1590.3
-1238.84
-1632.04
-860.788
-689.095
-688.048
-878.37
-836.361
-648.928
-827.228
-673.667
-1295.9
-1747.69
-1675.73
-1303.61
-4065.24
-2941.92
-3009.29
-3479.81
-6986.73
-9215.82
-3839.54
-2606.69
-7716.97
-8273.76
-7024.35
-9112.68
-3750.68
-3025.64
-3047.68
-3620.59
-7374.33
-9623.24
-7237.3
-8800
-3870.47
-3069.75
-3128.27
-4115.71
-7092.24
-8147.42
-7173.4
-8616.63
-368149
-1078.15
-1316.03
-875.656
-772.948
-742.211
-1269.27
-1115.36
-1090.49
-1697.14
-1151.86
-1462.37
-1253.16
-833.745
-643.339
-823.901
-587.781
-909.21
-406717
-8339.79
-11077.5
-22401.5
-11194.8
-15691.5
-14293.7
-8078.65
-2654.6
-2413.47
-3477.07
-1932.27
-3535.6
-4403.97
-6682.88
-5083.1
-5208.68
-5419.29
-215011
-238877
-254.341
-251.604
-265.227
-272.719
-270.953
-266.987
-265.869
-271.91
-253.569
-252.683
-251.181
-255.012
-295.323
-306.65
-287.126
-283.139
-281.189
-288.856
-287.646
-281.961
-295.347
-307.977
-307.458
-296.56
-168.704
-205.83
-221.212
-153.408
-174.629
-212.893
-150.633
-51.112
-64.7617
-38.1792
-49.0962
-65.4948
-54.0904
-69.8709
-39.0577
-58.8836
-66.9908
-157.205
-200.031
-195.638
-146.634
-155.714
-196.881
-147.052
-47.8411
-64.5599
-38.1006
-48.3594
-64.5169
-47.3036
-64.1939
-38.0073
-46.6754
-64.359
-241.669
-243.307
-237.14
-247.859
-207.622
-212.484
-243.021
-255.793
-250.029
-249.596
-205.539
-202.479
-258.108
-259.318
-255.257
-262.284
-269.68
-272.876
-267.158
-275.301
-257.78
-253.139
-255.246
-255.431
-269.561
-279.517
-273.741
-275.745
-267.559
-259.17
-264.521
-262.323
-281.204
-294.426
-288.819
-287.552
-269.236
-273.444
-276.33
-266.107
-279.265
-280.328
-273.839
-285.014
-405.699
-388.18
-415.885
-380.617
-457.663
-528.714
-459.557
-531.657
-406.93
-371.107
-403.985
-375.639
-456.792
-524.877
-456.72
-513.246
-328.368
-358.864
-341.559
-348.696
-296.779
-220.851
-225.121
-291.334
-306.014
-242.3
-319.184
-236.584
-317.741
-330.792
-335.768
-312.283
-343.627
-365.408
-356.044
-353.564
-324.721
-310.037
-320.266
-316.125
-337.009
-348.387
-331.025
-351.992
-330.484
-334.672
-340.685
-323.45
-299.706
-312.293
-311.249
-301.145
-290.696
-283.229
-289.15
-285.333
-298.324
-308.884
-309.733
-297.139
-291.775
-288.87
-285.862
-293.891
-296.549
-313.43
-296.371
-313.921
-282.843
-215.723
-213.559
-284.68
-277.855
-209.376
-277.609
-211.493
-302.678
-321.846
-304.115
-320.087
-306.425
-315.923
-304.228
-316.939
-303.904
-304.315
-297.958
-309.326
-299.512
-290.406
-294.491
-296.376
-311.614
-325.849
-315.809
-323.238
-334845
-357843
-355852
-336496
-316004
-293790
-295064
-315293
-319906
-297769
-319714
-297331
-331955
-349702
-352278
-329605
-372605
-375310
-388033
-366867
-386053
-338665
-384527
-389899
-342957
-379047
-378540
-339528
-361630
-339511
-362149
-326238
-296983
-300412
-322277
-321667
-299963
-323945
-298540
-342644
-365888
-366126
-341476
-1132.62
-1579.04
-997.1
-1586.89
-865.942
-688.343
-856.71
-665.073
-1211.17
-1698.56
-1283.59
-1749.14
-802.987
-612.264
-809.967
-645.511
-2726.74
-1680.21
-1167.75
-3078.2
-1510.67
-3829.86
-1777.09
-4102.4
-2035.77
-969.18
-871.388
-1557.75
-2080.04
-7802.15
-3774.04
-6177.04
-3893.41
-2127.33
-2581.66
-3875.88
-6770.32
-9548.02
-7314.04
-10179.6
-4243.59
-3041.44
-4054.4
-2800.79
-6345.12
-9704.25
-5077.26
-9606.31
-47177.4
-66920.8
-65945.3
-42009.5
-22220.8
-19637.2
-20199.5
-16969.6
-19978.2
-21738.8
-61235.4
-154481
-150368
-152818
-131415
-173316
-134905
-148839
-137235
-114654
-153167
-188185
-178493
-163335
-218894
-251835
-242543
-199816
-288772
-240706
-237394
-345544
-294774
-306342
-282650
-263075
-217770
-169347
-191313
-196306
-249533
-281367
-251724
-276261
-227515
-205563
-200506
-234087
-236519
-240717
-214561
-262799
-43690
-53454.2
-40264.2
-60318
-21783.4
-18049
-18067.2
-24338.5
-21443.3
-17331.7
-17266.9
-19129.1
-45964.3
-65443.3
-59253.3
-47451.6
-238505
-213103
-214352
-236339
-254674
-277614
-277312
-254284
-256206
-279273
-280563
-255718
-235934
-213832
-213423
-237127
-169922
-196093
-173233
-191336
-154415
-146362
-152990
-158284
-169394
-185203
-163456
-192989
-234744
-213692
-238870
-210801
-255529
-277180
-282791
-250072
-254730
-282684
-279297
-257023
-237174
-204893
-230072
-210750
-352392
-399335
-422317
-401762
-396458
-358521
-392449
-436902
-370917
-385980
-376974
-15802
-73665
-58437.6
-28044.7
-14392.4
-6162.7
-10586.3
-5463.31
-25777.7
-73954.2
-75471.6
-25023.4
-17105.2
-10237.9
-5114.84
-22015.9
-321806
-463521
-390869
-361418
-424989
-373766
-310224
-366233
-331125
-278057
-407006
-347159
-331718
-353334
-359095
-305141
-324011
-298325
-327022
-297649
-345271
-369368
-343980
-369609
-308276
-257537
-282381
-286000
-48191.5
-85386.6
-41192
-76191.6
-26480.7
-18401.9
-17490.6
-24525.2
-25773.7
-13702.3
-16761
-26485.5
-48960.8
-67294.9
-49796.1
-73365.4
-337644
-370506
-95610.4
-130131
-124780
-101288
-73215.6
-50616.2
-54845.6
-69838.4
-75915.3
-58769.6
-79515.3
-54378.4
-93768.5
-116410
-121430
-88317.2
-160786
-166178
-246982
-312928
-280195
-274964
-241783
-284943
-279923
-176781
-171208
-109315
-133930
-103539
-139607
-89201.3
-66931.3
-62751.6
-92687.2
-86203.4
-58572.9
-82531.1
-62936.2
-111680
-149205
-143527
-117249
-141593
-114008
-149016
-111889
-156658
-154289
-137480
-103670
-104840
-131696
-165008
-169375
-59720.5
-87788.5
-85944.5
-57542.4
-67416.5
-107028
-83914.8
-86226.2
-56462.1
-57400.8
-47320.7
-66187.8
-67344.4
-79946.5
-76755.8
-78605.4
-59515
-94502.4
-88630.8
-59205.7
-43746.7
-49698.3
-41156.2
-51143.2
-54861
-81201.4
-85956.8
-54377.6
-41325.8
-51780.1
-48676.3
-49275.7
-60788.1
-86004.8
-83407.5
-58967.7
-51258.7
-44935.2
-46255.2
-49669.9
-47789.2
-47392.2
-45923.9
-49315
-61544.8
-84661.9
-87305.3
-62996.2
-131317
-102635
-127566
-101164
-151068
-151708
-129311
-101913
-133437
-102894
-148533
-148426
-56253.5
-82030.6
-58277.7
-84741.3
-43200
-49984.1
-48347.4
-44950.6
-47004
-47135.4
-48695.2
-45556.7
-56257.3
-84404.3
-54236.4
-81416.5
-196417
-190639
-271200
-338848
-313208
-313019
-279394
-308317
-305050
-182214
-187414
-151429
-174561
-191671
-136635
-138015
-133040
-101411
-169872
-121671
-75969.1
-86056.8
-109082
-167596
-250682
-211508
-205987
-124950
-165162
-160607
-128076
-98309.6
-66973.6
-95979.2
-69986.8
-124761
-153548
-120031
-159013
-98675.8
-70826.2
-67451.3
-100140
-316500
-292113
-320987
-336513
-339577
-318071
-310242
-291387
-311442
-289663
-323961
-346098
-343209
-326677
-306405
-285212
-304945
-287181
-341637
-337317
-341590
-316284
-345337
-299457
-346010
-340657
-295092
-329765
-334126
-312003
-332831
-315048
-329653
-295581
-275641
-277895
-293807
-299450
-282649
-301095
-280516
-308930
-322657
-325931
-305781
-169250
-187253
-168953
-186730
-157567
-156066
-170622
-188794
-189455
-170797
-154868
-156233
-216778
-199440
-198363
-217232
-227789
-243047
-244418
-225878
-230086
-249219
-231888
-247963
-213682
-195365
-196546
-213115
-220613
-201205
-202167
-220282
-238012
-258371
-239607
-257345
-223625
-204733
-203883
-223833
-235831
-252727
-234124
-253873
-232256
-210781
-211148
-232573
-251654
-274320
-252528
-274086
-235056
-212613
-212536
-234418
-249762
-270216
-270761
-248609
-173429
-192338
-173318
-193323
-157089
-158747
-172166
-191485
-172119
-190678
-159741
-157906
-229797
-209271
-229699
-208700
-243212
-261805
-262705
-241736
-245280
-266849
-266106
-246617
-226868
-206390
-226803
-207109
-314341
-318776
-319154
-292605
-312306
-268792
-314640
-317053
-273172
-326502
-322102
-286350
-304460
-300960
-289740
-272056
-254638
-257280
-269864
-276051
-262662
-260107
-278146
-283087
-293491
-297069
-279611
-296266
-308308
-311738
-292953
-288023
-272972
-289909
-270608
-299433
-318890
-302660
-315542
-284093
-265432
-267888
-282105
-285234
-260978
-80396.8
-101481
-105975
-75389.8
-64266.9
-51328.9
-67404.9
-47292.9
-81603.3
-113416
-108692
-86816.5
-62090.8
-44411.9
-59173.7
-48226.4
-122541
-118598
-195465
-261150
-239836
-232205
-199867
-235492
-227564
-111395
-115223
-69568.4
-98975.2
-74405
-94656.2
-52699.3
-39870.4
-43211.6
-50163.7
-54486
-45529.8
-57205.3
-41944.2
-68768.9
-88134
-92306.6
-64076.7
-124883
-104342
-121585
-102859
-138168
-137767
-122513
-102953
-104517
-125842
-136289
-136643
-71695
-91855.5
-89235.1
-69816.9
-60301.1
-43842.4
-43942.9
-58234.6
-57375.2
-43668.4
-59412.7
-43428.4
-70262
-89344
-91927.6
-72412.5
-69257.1
-88993.6
-91648.9
-70861.5
-55602.8
-43527.3
-57524.3
-42990.4
-69930.3
-91312.6
-88617
-68571.1
-58485.9
-43134.8
-56495.6
-43523.8
-65356.1
-86709.8
-89449
-66434.4
-51235.6
-45322.1
-52912.5
-44157.3
-64879.8
-88482.9
-85779.1
-63678.5
-54280.6
-43576
-44589.8
-52538.6
-124101
-102818
-127496
-104525
-139180
-139616
-126710
-104577
-123345
-102941
-141014
-140553
-67752.3
-90229
-66676.5
-87483.3
-56525.2
-43002.3
-43700.1
-54669.9
-53665.4
-44048.9
-43197.5
-55463.6
-67722.4
-88117.1
-68899.7
-90842.3
-97649.7
-101303
-174067
-237790
-209745
-200234
-169866
-213986
-204736
-108158
-104424
-49244.7
-73846.7
-70024.6
-53555.1
-38062.2
-35290.1
-37572.4
-36226.5
-39192.7
-38465.2
-35912
-41215.3
-48999.6
-64412.9
-68126.5
-44819.8
-58363.4
-75840.1
-79771.8
-53931
-46171.9
-41270.9
-48538.3
-38181.5
-58870.8
-85923.3
-63430.9
-81873.9
-44711.4
-36868.1
-39689.5
-42515.5
-248334
-253103
-245352
-217282
-235639
-199079
-240638
-240476
-203402
-261724
-256997
-228513
-241708
-237591
-232549
-217934
-205119
-208527
-214899
-222316
-215213
-225256
-211893
-224739
-229060
-233254
-220619
-240220
-245981
-250031
-236256
-236698
-228060
-239413
-224931
-243857
-258208
-254244
-247733
-232408
-218497
-229589
-221721
-206106
-188877
-190273
-205297
-221520
-239454
-223530
-237976
-209286
-193494
-192200
-209981
-219109
-232737
-216990
-234334
-158358
-173965
-159200
-173864
-144719
-145307
-147476
-146761
-156733
-170692
-170925
-155778
-201135
-186893
-202066
-185382
-209754
-221774
-223604
-207431
-212302
-229050
-214516
-227341
-197852
-181721
-183337
-196801
-278588
-273954
-268766
-240696
-269352
-229457
-273393
-264558
-225113
-265536
-270211
-269374
-278188
-281917
-265740
-263534
-251757
-265826
-249012
-272749
-289553
-285906
-276296
-259449
-243241
-246074
-257056
-258597
-274150
-270347
-262309
-246249
-231203
-243640
-234230
-255100
-262362
-251297
-266249
-250424
-240236
-237300
-252930
-182722
-171623
-169674
-184150
-188938
-197758
-200062
-186206
-191772
-206202
-204021
-194406
-179228
-165314
-167361
-177679
-151314
-163842
-150144
-164337
-142982
-142527
-140188
-140509
-153043
-167716
-154104
-167355
-188896
-173866
-187593
-175701
-202389
-217976
-216030
-204819
-199703
-210108
-212182
-197168
-192282
-179611
-193467
-177879
-186037
-208909
-50622.1
-53589.3
-111570
-166457
-144994
-132771
-108025
-148836
-136707
-58803.8
-55734.8
-22819.1
-34599.1
-31787.7
-25592.5
-26174.9
-37043.5
-38435.3
-25937
-26100.5
-37996.1
-26511.9
-36613
-23702.7
-28237.3
-30891.1
-21218.9
-27879.6
-35641
-38603.3
-24832.3
-27192.2
-37134.2
-27982.4
-35713.8
-27256.9
-42901.4
-39792.1
-30556.5
-27092.2
-36156.4
-26501.5
-37544.5
-71337.1
-89098.1
-91638.1
-73441.8
-59071.5
-44309.3
-61135.8
-44352.3
-72997.7
-91859.3
-89298.5
-70776
-61882.9
-44931.1
-59846.2
-44738.5
-115036
-100396
-118275
-101378
-125075
-124948
-116500
-100284
-99426.9
-113256
-127272
-127300
-73719.8
-91254.7
-71753.7
-88721
-63018.5
-46264.3
-45645.5
-61053.2
-60521.6
-45193.9
-62517.8
-45573.8
-71995.6
-88164.5
-90694
-73819.9
-69932.3
-66668.9
-129968
-188059
-172514
-161167
-133801
-168502
-156987
-61082
-64255.2
-40698.5
-53850.8
-57338.1
-36815.3
-33632.1
-37005.8
-35271.9
-34966.3
-40669.9
-62628.2
-59021.8
-44710.9
-32862.3
-34902
-36715.9
-31428.5
-33275.9
-52284.5
-48912.1
-36988.7
-29223
-35327.6
-28220.7
-36828.6
-33599
-44218.1
-30081.1
-47462.1
-29625.1
-36675.2
-35036.5
-30845.5
-72918.3
-87855.5
-85279.2
-71557.9
-63284.4
-48427.4
-46793.4
-61352.2
-61586.4
-46633.4
-48089.9
-63511.8
-70985.7
-83894.3
-86490.1
-72189.6
-112408
-97516.7
-109142
-96922.4
-122450
-122681
-111296
-98270.9
-114546
-99001.5
-120110
-119768
-71910.4
-86450.8
-73428
-89003.3
-61421.8
-46048.8
-46953.8
-63366.1
-63536.5
-47580.7
-46391.2
-61603.9
-73724.2
-89948.9
-72054.7
-87407.6
-201681
-210451
-224667
-216771
-360305
-297680
-277313
-343003
-301568
-356477
-347566
-364203
-354881
-280179
-309517
-305630
-350357
-367781
-344072
-385165
-316581
-257731
-298710
-451851
-331371
-192469
-239126
-227192
-164070
-243382
-188154
-169220
-197134
-178281
-231799
-252066
-247655
-172802
-201776
-299608
-272592
-262579
-279950
-302048
-262873
-321695
-282653
-221652
-285085
-261185
-295790
-256538
-243095
-348571
-293648
-340162
-265563
-352543
-289732
-335555
-344587
-328048
-262346
-281746
-285691
-332677
-340535
-294863
-233519
-218126
-281575
-237497
-290586
-286302
-299081
-294200
-245542
-221435
-241563
-303330
-289490
-179642
-234995
-160738
-216105
-183746
-230840
-155832
-175410
-147959
-211681
-222690
-226787
-152684
-171420
-129004
-175619
-167902
-105091
-179458
-125439
-109214
-132751
-116032
-187147
-172080
-183271
-136383
-111827
-224625
-169579
-159785
-215208
-173502
-220074
-220114
-229137
-228699
-181440
-162995
-177502
-233664
-223809
-282023
-229459
-278329
-206748
-286337
-225484
-273579
-277742
-265506
-217455
-203460
-221428
-273398
-270276
-76049.2
-118018
-114239
-57733.1
-121406
-73215.4
-60986.5
-79039.3
-66314.7
-128258
-117932
-124803
-81977.1
-62936.9
-118282
-171848
-102555
-158009
-121768
-168058
-98524.9
-114694
-92117.6
-160581
-153935
-164329
-111278
-96057.8
-165599
-211450
-215533
-114687
-379263
-327652
-369334
-295239
-365213
-380986
-322978
-374746
-357818
-313791
-293123
-371804
-362149
-317916
-387408
-333941
-373796
-312102
-388322
-375522
-338363
-400683
-358969
-334095
-309037
-389098
-374891
-340664
-217306
-271359
-249753
-198101
-266345
-192120
-222614
-211923
-182223
-256611
-244155
-206868
-261328
-188044
-232837
-276534
-262336
-202119
-281096
-228077
-207490
-236698
-213934
-284346
-266199
-243924
-283009
-209023
-328314
-265697
-312821
-247554
-317483
-324166
-269669
-332393
-325112
-277693
-250868
-336501
-320465
-273732
-315872
-261631
-309786
-236148
-320056
-305111
-257656
-311726
-297335
-249608
-232824
-307510
-302028
-253588
-159359
-206684
-196746
-132961
-210687
-137440
-155525
-163398
-144946
-218691
-201096
-167297
-214649
-140357
-147797
-202763
-186442
-130136
-198805
-151559
-125755
-143905
-118710
-190995
-182174
-140202
-194917
-123003
-247064
-197390
-245605
-177506
-240761
-251520
-193430
-242627
-232327
-185452
-174265
-238137
-237197
-189403
-260333
-201424
-249100
-188834
-255917
-253918
-205390
-264696
-262141
-213405
-192098
-269078
-257347
-209435
-91335
-142350
-130884
-77617.6
-138767
-73997.5
-94478.8
-88125.3
-68357.6
-131719
-127051
-85078.4
-135243
-71861.2
-101037
-145929
-140301
-79841.6
-149572
-97793.4
-83579.8
-104449
-89731.9
-156900
-144261
-107776
-153206
-85890.2
)
;

boundaryField
{
    left
    {
        type            calculated;
        value           nonuniform List<scalar> 
290
(
-201.712
-284474
-322.5
-268.195
-201.922
-243.043
-333.588
-242.569
-462057
-97865.7
-347646
-461.098
-295971
-23559.9
-299.217
-382.351
-502.603
-4376.34
-1534.52
-4458.16
-3472.75
-204.451
-204.011
-280.126
-291.317
-248.295
-310.678
-299.844
-396.255
-318.405
-253.078
-298.387
-278.462
-99576.5
-142696
-3345.62
-4591.91
-504.692
-126839
-11387.7
-9983.95
-3494.61
-11360.8
-93483.4
-284.376
-323.275
-411.976
-655.275
-500.346
-48.0565
-15509.4
-13958.8
-121.245
-393.13
-744.267
-213.187
-55.206
-84.6491
-48.8701
-52.66
-202.602
-237.388
-239.798
-243.969
-313.838
-312.335
-392.863
-354.71
-282.732
-311.407
-235.827
-71674.1
-213389
-767.979
-678.37
-472.969
-207127
-162114
-134561
-115179
-85690.8
-38178.2
-254.538
-265.621
-311.783
-291.654
-279.373
-359.341
-312.75
-333.479
-856.351
-802.918
-474.532
-3981.87
-1742.55
-1834.01
-903.443
-1385.91
-3188.31
-2654.36
-8102.48
-26326.6
-1117.96
-588.304
-1806.51
-56.1094
-55.8208
-210.248
-203.009
-53.8659
-54.9781
-282.723
-263.296
-260.667
-271.677
-266.782
-286.253
-243.028
-247.611
-320.443
-316.371
-245.601
-305.43
-318.986
-323.826
-314.101
-315.93
-302.009
-350.817
-361.001
-401.246
-330.99
-341.991
-330.293
-262.322
-336.686
-326.724
-312.889
-258.98
-72813.7
-198796
-3080.61
-1236.94
-1550.81
-1808.61
-1609.69
-4333.94
-490.717
-769.602
-845.496
-161864
-181281
-160679
-11157.8
-32381.8
-28704.3
-25770.9
-26911.2
-9214.78
-9710.42
-15228.8
-47046.1
-24694.1
-20847.1
-10745.4
-62184.3
-111726
-137138
-202.219
-195.058
-194.498
-140041
-148392
-256998
-248.594
-313.666
-400.794
-238.117
-191.891
-211.216
-194.804
-195.896
-202.349
-512424
-427679
-285585
-3411.07
-4987.87
-6173.91
-2606.2
-1798.69
-2641.97
-196.68
-196.713
-206.128
-203.834
-197.524
-196.86
-195.261
-202.264
-50.0932
-106.974
-105.575
-106.718
-49.8001
-23392.3
-52217.4
-45894.7
-38210.4
-33026.1
-11003
-98607.9
-175.944
-228.339
-168.128
-471.174
-329.07
-263.665
-565.511
-427.022
-586.15
-189.545
-187.019
-223.689
-56.5269
-105.486
-105.474
-130.229
-112.1
-64.4942
-52.0765
-108.137
-106.083
-108.668
-109.246
-53.7696
-202.793
-196.661
-196.677
-122967
-106400
-152359
-412199
-3892.42
-4107.42
-2625.84
-7904.65
-6509.15
-5919.29
-16075.2
-8690.11
-16842.7
-847.071
-1204.95
-1489.16
-871.238
-996.022
-680.719
-2030.28
-1412.28
-1256.9
-58.3412
-110.563
-109.731
-107.171
-109.914
-58.6125
-206.984
-195.45
-193.073
-197.108
-197.739
-203.559
-56.6099
-110.888
-109.374
-109.396
-110.674
-56.6623
-118085
-140392
-98961.6
-102250
-255225
-303528
-175239
-209942
-250454
-362304
-289378
)
;
    }
    bottom
    {
        type            calculated;
        value           nonuniform List<scalar> 0();
    }
    interface
    {
        type            calculated;
        value           nonuniform List<scalar> 
2123
(
-343415
-189341
-260756
-310058
-350210