/*--------------------------------*- C++ -*----------------------------------*\
| =========                 |                                                 |
| \\      /  F ield         | OpenFOAM: The Open Source CFD Toolbox           |
|  \\    /   O peration     | Version:  2012                                  |
|   \\  /    A nd           | Website:  www.openfoam.com                      |
|    \\/     M anipulation  |                                                 |
\*---------------------------------------------------------------------------*/
FoamFile
{
    version     2.0;
    format      ascii;
    class       volScalarField;
    location    "0.106/solid";
    object      sigmaMax;
}
// * * * * * * * * * * * * * * * * * * * * * * * * * * * * * * * * * * * * * //

dimensions      [1 -1 -2 0 0 0 0];


internalField   nonuniform List<scalar> 
3125
(
-157.532
342130
-30.7011
289643
187898
259280
-194.096
-70.719
-157.465
-108.278
-193.931
340491
-14.7705
11733
53616.5
158943
311002
371357
286598
-17995.8
6605.85
414871
337332
264132
335866
54337.4
53918.7
265282
306196
233697
281915
6139.29
6511.48
212536
190850
54239.8
260587
51700.6
160754
228973
143825
6090.38
208037
5533.45
183261
186286
156440
139798
-179.039
-213.028
-133.456
239.842
1709.55
373435
2397.89
380881
3079.74
220836
225605
-210.012
-223.778
-153.575
-154.546
-210.791
-213.28
-190.107
-186.568
-224.98
-224.382
-190.97
-225.878
217694
370792
231328
-149.23
2376.41
1503.71
-1559.6
47381.6
126454
181463
1603.92
172849
50628
181480
380563
4638.42
175305
232585
1227.05
343322
349537
103780
319210
120959
6150.84
81119.3
67460.6
53432.6
6978.58
64672
325727
150323
125745
303197
298291
212972
303013
198519
54360.4
145572
156094
169617
54299.5
159518
298294
178893
193664
272146
267301
98720.7
249204
84487.6
6265.74
29528.4
37625.9
50025.1
6308.9
40542.3
244556
67163.8
80004.4
223174
137488
153386
141966
53590.1
130791
227825
173887
158586
115007
53236.3
126942
191862
196413
172948
38090.2
47973.5
27062.9
5903.33
20496
177244
63089.8
51560
14023.5
5824.82
18618.2
-160.289
-175.362
-129.854
-28.3275
-9.70583
-24.713
356084
97.408
312.736
352.964
390222
24848.7
10368.6
201906
244783
-175.194
-228.835
58.3013
-135.136
2.11022
-24.2158
-157.156
-21.6102
-176.07
-177.228
-171.096
-155.179
-203.396
-229.013
-193.698
-229.125
271597
353969
285362
-115.321
217.696
64.3341
-46534.8
44700.5
33666.5
62008.9
18498.2
87110.4
53118.6
87469.7
394960
-12677.2
238534
303118
43865.4
325133
337335
220083
300461
229276
14070.1
-7098.38
13470.2
7982.99
6737.38
8114.6
333622
288762
267567
322783
278723
270291
321866
256734
54385.6
80934.8
81894.8
86587.2
54090.4
85929.9
279411
212534
225661
291624
248003
213858
267883
205012
6183.77
7394.96
7460.46
7883.96
6422.86
7782.51
226141
161744
170274
204636
154233
166678
79912.9
54086.9
78823.5
246508
210852
197870
70671.7
52297.8
72236.5
173904
214880
156097
108738
116554
7323.52
6035.79
7244.84
194691
156315
147907
6577.71
5640.29
6714.56
152128
104173
-180.381
-179.584
-169.043
-203.054
-191.334
-199.679
-210.339
-197.789
-122.682
50.447
62.8962
5.35404
1410.91
113.767
211.223
1939.19
285.079
360757
493.589
1449.36
517.676
411457
17305.9
2188.85
6030.95
206613
239969
-195.319
-234.433
-141.698
-16.1654
-5.49937
-157.02
-18.1594
-20.6419
-179.667
-178.529
-196.186
-211.8
-197.342
-199.415
-212.749
-198.537
-192.505
-213.44
-217.854
-176.525
-224.92
-217.731
-221.297
-233.27
-228.008
-234.854
-225.044
-235.237
-192.942
-227.882
-228.924
-225.675
-235.123
-235.479
266297
222452
272592
358660
302024
287002
226630
285055
278502
-149.765
16.9084
10.8154
643.907
1801.48
312.715
142.778
1393.5
163.74
106.137
1578.57
21044.9
50495.5
84838.5
86527.4
78933.8
149265
48966.3
101847
33095.6
131428
185899
133708
2015.46
22595.9
20778.3
128592
176043
130282
52051.1
86900
87304
178646
132551
131430
393475
306104
324162
29818.5
2665.24
16421.4
221707
200872
59903.9
254942
60652
288444
239562
298242
1432.85
21667.3
17294.3
329836
376241
154977
109193
162016
305229
246805
236045
114573
177699
169259
13177.9
7988.25
14090.9
22528.3
68518.9
19086.3
14057.3
69874
15727.6
8215.65
57077.8
9550.23
6676.55
8406.76
8047.44
60602.9
12743.6
10978.5
351418
254632
261709
233838
131363
199840
185272
132814
195587
317889
283608
260047
208164
253737
317166
241965
255375
203355
241075
247418
54391
83649.4
82797.9
112467
149127
114659
118879
152632
116794
126796
166274
124878
54212.5
84454
85216.9
162913
120919
122921
284124
240502
227236
215440
183855
221896
234710
188777
228318
286760
252795
148332
93815.1
141876
263196
190314
199032
89088.3
129447
135598
6225.35
7580.6
7521.54
7244.44
32114.7
7303.91
7412.44
34815.4
7359.35
7729
46723.7
7603.52
6360.65
7640
7707.04
43575.6
7466.57
7529.52
230722
184516
175888
105935
71342.6
111658
123414
75622.8
117483
209250
181343
168695
162463
142834
169212
182612
148135
175930
110216
138301
107899
53871.7
76426.6
77662.7
134577
103056
105513
241833
183251
196077
208950
168836
202424
189255
163736
195860
92476.1
119048
95235.5
52806.6
75112.3
73716.3
123027
100525
97918.1
178341
210237
160264
129404
121345
64666.7
41232
69315.1
79086.4
44528.4
74122.5
7179.04
24728.3
7106.72
5973.93
7061.16
7157.52
22535.7
6938.32
7026.79
190285
134420
142677
100322
59126.1
94821.9
84195
55280.4
89444.1
6503.08
15380.1
6624.27
5737.57
6955.47
6839.96
16911.3
6842.21
6737.61
-116.159
-152.703
-157.744
-106.504
-153.459
-115.523
-106.509
346837
131.42
9.17366
34.18
41.8267
48.5177
124.263
76.3625
107633
369931
148543
184285
99408.9
269606
84305.6
192539
254437
-34.7978
-27.5312
-18.8948
-104.075
3.29798
-60.2295
-55.9507
-115.516
-152.542
-106.341
-157.476
-115.376
-152.732
-105.993
369985
369283
317094
345031
373727
321369
365812
315756
404535
221712
263643
248980
291218
267990
253634
217194
347600
374778
373020
417601
349346
377837
401964
332510
268979
357178
364726
312768
331227
361471
360163
308435
299292
269990
294394
247321
299136
251691
294772
301347
238444
208276
259218
244329
277252
212715
254883
239680
153242
217043
194966
176670
199111
180999
149222
225175
195431
217492
178319
222322
182579
220460
285656
255887
289633
242979
284866
290211
238620
165100
224246
94024.3
147872
131651
112546
135362
116214
90737
141299
203569
190793
172377
145245
186692
168100
212646
174087
215707
127935
108927
87505.9
369928
1099.65
1313.74
2772.83
1685.15
1665.83
936.76
1076.34
382577
4268.23
3725.01
1784.74
2227.66
1927.46
6632.59
3926.47
216077
230373
-101.823
-150.773
-142.588
-102.012
-105.798
-138.45
-99.5927
-111.118
-156.006
-145.722
-103.379
-108.717
-148.467
-104.244
392031
368063
398597
347018
396237
393434
343880
397732
378884
408775
356393
404172
405159
356672
339165
353924
245787
314851
295795
282778
291133
277685
251109
261899
330775
302057
287946
307687
293723
256180
308087
293389
335186
307737
332233
282256
336915
330759
286644
321828
293565
327521
277897
322808
326289
273512
277007
262441
186534
253848
228846
212125
233128
216671
182263
173814
239932
224525
207608
220274
203096
178028
248702
218521
251324
208308
246500
253362
203991
262648
232489
256142
212613
260936
258027
216946
187318
200994
111240
168691
158441
139260
154539
135294
114841
122184
181558
162416
143257
166377
147299
118486
-227.708
-85.2403
-79.3438
-228.699
52.2618
-252.525
-198.726
-81.0729
83.8531
-284.496
-297.656
76.3184
1634.51
-732.536
1520.79
-934.654
-400.659
409.064
1347.33
-812.388
-478.405
492.014
517.203
-422.201
-116.578
-157.903
-153.881
-106.563
-43.2312
-54.9218
-23.5968
-43.1853
-55.0074
-23.3365
-55.0856
351545
173.708
60.1225
155.907
106.463
117.548
214.326
134.206
437.015
299.794
204.208
383.186
154.286
258.424
236.331
308.483
388.738
192.388
578324
20140
58176.8
-1293.92
9819.42
-29475.3
14116.7
27130.4
22990
49225.5
7640.36
6372.35
24191.1
2595.71
18390.7
197210
249597
-177.599
-185.87
-158.906
-159.836
-158.759
-177.321
-186.523
-178.638
-185.203
-240.824
-254.422
-222.826
-169.97
-170.595
-222.386
-222.742
-240.981
-254.445
-240.753
-254.324
30.2542
23.3877
31.9312
62.6478
-2.99067
-58.0233
-121.002
-107.584
-84.0871
-89.0117
-75.5455
-72.1663
8.83913
14.3867
-31.1839
-6.75041
-19.7398
-42.3829
-54.7382
-22.181
-43.0015
-54.3904
-115.232
-157.467
-151.542
-105.393
-152.561
-114.141
-105.67
-41.6426
-21.0215
-53.5124
-40.9755
-53.9706
-178.157
-188.72
-180.568
-186.133
-160.169
-159.892
-179.181
-185.66
-178.089
-187.287
-159.993
-161.805
-210.706
-164.425
-235.956
-157.414
-68.8066
-21.0875
-49.7167
-129.15
-176.474
-109.582
-99.4532
-149.978
-58.9659
-235.284
-189.998
-51.2487
-240.601
-253.899
-254.177
-239.658
-221.933
-169.561
-222.657
-169.953
-240.154
-254.677
-241.188
-253.992
-222.206
-168.604
-169.474
-221.23
369260
365845
374331
349615
382479
329881
378225
325721
378293
358664
362368
567.134
-276.941
788.185
-65.832
-30.1168
65.7313
141.651
93.1727
364.788
504.785
246.309
241.763
-157.398
208.901
152.588
-250.496
160659
259400
209034
371914
212371
158033
157965
134430
245187
158656
177020
178853
156632
131724
133546
133775
131102
156696
177567
157878
176606
420816
564421
348932
196182
282850
394106
423036
688433
358462
595872
345747
619874
469519
4646.26
669131
-35383.6
320494
412167
142128
137733
226306
295903
276851
263035
272481
258328
230974
129449
133541
6392.25
-4773.96
-392.708
-3890.04
-9329.77
-23369.2
-186.473
-3533.35
-1565.13
-9333.72
-5446.44
-15618
-2820.89
-6693.11
-5065.19
734.399
-5175.42
-4139.47
632.263
-4898.58
-2868.27
-6602.19
-4296.5
-5243.19
199322
223509
317886
349623
325706
311267
339754
339219
285711
307163
252484
327646
273847
344079
348003
352800
326556
350930
299731
355547
304098
348449
355253
351402
150247
166521
150222
166324
128449
129021
129952
129281
148781
164256
148711
164543
155595
174817
174505
156142
133267
131862
157039
175687
156275
176217
131744
132935
310233
306087
303833
274693
308625
260415
303883
256040
308337
298201
302392
296493
243207
114188
117933
203876
272555
246158
230431
250483
235049
199495
125536
121643
-3121.93
-5801.55
-95.057
-4176.59
-4437.19
-3406.48
-3484.51
-4526.42
-198.593
-4096.88
-3149.21
-5682.3
444.047
-4632.75
-6374.32
-2939.39
-4006.84
-5077.47
-2901.37
-6487.4
543.065
-4751.83
-4981.06
-3898.3
83379.7
80065.8
157286
221591
207510
189760
203329
185361
161376
73785.3
77012.4
244229
239667
229909
200024
232010
191117
227163
186836
234620
230798
235408
145469
159655
160129
145196
127959
127484
126376
126748
147031
162414
147201
162036
282096
286385
281071
251198
275321
229931
280088
234285
276502
294443
290202
133368
146052
145033
134195
116197
115875
118151
118348
131367
141533
130423
142658
169476
219555
38341.9
35835.2
97358.1
151972
142926
123708
139149
119930
100755
31414.9
33794.5
-400.907
-3923.41
-5427.65
-3191.75
-3330.25
-4341.62
-3170.74
-5556.86
-304.044
-4011.05
-4243.72
-3249.89
61810.4
64861.5
137398
199109
178500
159669
182560
163868
133527
70843.8
67697.7
-3188.56
-4741.47
-3437.01
-771.281
-3591.97
-2731.55
-821.524
-3335.71
-3167.09
-4590.41
-2827.13
-3705.07
226471
-141.943
-205.942
-200.628
-148.433
-169.554
-151.261
-131.804
-178.61
-189.645
-172.887
-196.598
-166.084
-236.809
-89.7872
-237.224
-88.6305
86.1015
-295.765
-300.264
75.7821
84.0284
-288.292
80.4095
-282.833
-247.465
-99.733
-93.4179
-248.983
-157.683
-216.538
-157.256
-217.364
-219.553
-199.576
-194.445
-223.371
-209.761
-183.822
-208.569
-184.901
-165.57
-229.973
-226.703
-170.916
1578.09
-703.828
1581.51
-656.893
-435.209
518.686
541.354
-417.185
-397.239
514.775
-414.865
520.205
1650.94
-714.095
-757.019
1596.14
-2103.21
4107.31
4538.19
-1475.85
10669.7
-5363.78
-2023.56
3896.91
11700.1
-2669.79
10037.3
-4565.41
-1393.07
4241.2
4204.18
-1457.22
10697.9
-3801.31
10440.5
-3877.56
-1681.75
4295.86
4411.03
-1613.11
10108.3
-3079.48
10359.7
-3064.52
364940
913.55
835.639
518.038
446.77
521.278
1096.85
777.637
1056.55
1334.23
1055.57
1392.04
950.986
792.478
454.814
752.083
554.187
681.608
405223
6052.52
7470.74
29325.9
6674.87
7553.94
571.162
6230.93
2443.84
1926.27
3264.21
2057.99
2600.08
4303.64
5140.55
4588.25
4556.1
4239.18
211331
235165
-201.308
-198.617
-211.108
-218.029
-216.549
-212.756
-212.123
-217.729
-200.202
-199.434
-197.833
-201.745
-242.151
-249.212
-233.577
-229.567
-228.195
-234.663
-234.158
-229.047
-241.814
-249.404
-249.076
-242.551
-96.0651
-148.197
-121.952
-91.0729
-87.0261
-131.663
-96.3275
-30.2223
-49.0978
-12.8242
-34.0073
-46.7464
-24.8092
-38.3654
-9.37286
-17.2634
-43.3811
-112.803
-156.473
-150.903
-105.097
-113.385
-150.202
-104.699
-38.2501
-50.6825
-17.9701
-36.7311
-51.7491
-39.3808
-53.0408
-18.566
-40.2147
-52.4888
-182.126
-185.896
-177.997
-190.242
-158.032
-165.946
-174.896
-192.507
-185.128
-182.324
-162.977
-160.478
-200.93
-201.308
-198.456
-203.78
-213.442
-216.725
-211.319
-218.612
-202.518
-198.222
-200.196
-200.457
-211.43
-219.517
-214.28
-216.992
-205.021
-197.881
-202.785
-200.182
-205.888
-220.98
-216.692
-211.034
-195.726
-204.92
-206.493
-194.066
-215.312
-215.833
-210.385
-220.253
-252.492
-149.645
-245.673
-134.976
38.7237
-309.889
61.6584
-294.853
-253.996
-111.132
-257.678
-121.442
13.1699
-263.473
-18.6861
-288.657
-204.913
-241.147
-223.183
-216.233
-211.103
-155.973
-154.39
-208.871
-190.257
-135.8
-199.217
-141.364
-231.51
-239.035
-246.928
-226.214
-198.047
-242.248
-241.294
-207.972
-235.59
-210.887
-232.714
-216.644
-188.382
-238.213
-181.805
-238.968
-240.358
-233.062
-244.701
-225.041
-241.613
-249.029
-248.936
-242.194
-234.657
-228.408
-233.84
-229.87
-242.324
-249.416
-249.128
-242.151
-233.47
-230.212
-228.256
-234.758
-238.452
-252.861
-239.19
-252.727
-217.089
-162.457
-163.627
-216.976
-219.93
-167.005
-220.705
-167.507
-235.227
-250.864
-236.272
-248.54
-241.951
-247.577
-240.028
-248.261
-227.627
-231.189
-222.35
-235.068
-234.96
-226.855
-230.678
-231.989
-235.71
-247.028
-241.409
-243.27
332888
352026
350186
334229
308402
288693
289984
306227
311606
293666
312768
293382
329086
343387
346143
326774
373229
375725
386250
362584
387084
334460
382896
390858
338350
380709
380580
337867
357528
339467
356562
323246
294532
303164
315039
315583
298353
317358
295816
346310
357760
365692
338014
1288.82
-494.337
1051.5
-644.182
-404.583
500.138
-445.437
442.27
1431.35
-782.917
1576.97
-692.352
-387.547
298.449
-324.632
382.762
177.854
2224.84
1433.03
-438.533
955.843
3948
584.7
4543.83
1026.1
543.124
793.855
1377.71
2768.15
-710.338
5465
1452.79
-1486.03
3002.35
3648.08
-1135.18
9944.55
-4302.25
10656.1
-4029.06
-1624.73
4307.79
-1795.73
3971.49
9338.84
-2956.61
7687.16
-3736.62
71039.9
-16417.9
16807.8
55483
-16158
31205.1
-8550.52
24615
30114.3
-5938.04
97973.8
-13026.6
161457
156248
138850
183352
114268
136851
138486
106795
142537
184174
164164
162461
201195
274594
319807
184524
316449
279712
217857
374883
334393
333330
348649
240921
236030
181413
212477
200267
237444
284184
261630
259099
211833
211579
190319
234671
263564
246403
227697
286767
57533.7
-4966.47
62385.3
-16062.8
-10664.6
26160.1
26822.7
-10710.1
-8565.48
25969.1
24806.5
-8360.55
66175.9
-18703.6
-15833.5
62639.4
225197
203066
204413
224251
247262
266104
267150
246892
250181
270087
270038
249562
222636
202459
202020
222640
155410
180259
159529
176268
134515
125024
129327
134129
160294
173069
151772
181493
224507
206472
227910
202832
256828
269620
278222
248057
250404
274219
271517
253630
230397
199902
221828
208301
374256
396252
437325
408339
403021
363552
389073
439425
376135
389944
380611
13903.7
-18483.2
13486.8
41277.5
17425.4
1382.7
12353.2
1071.67
-6390.35
77986.7
95937.9
-5444.82
4595.95
14958.4
6232.08
-3783.24
287238
477935
430652
326077
445117
413307
280659
389298
385313
251824
428238
381109
360182
329110
395095
324240
304750
309818
331530
283675
327865
378168
356268
346825
336940
275281
312409
290136
66305.3
-24005.8
58322
-31735.1
-11663.4
27289.5
25903.6
-12267.3
-11782.9
21211.9
25130.9
-9937.91
64956.8
-24354.5
68090
-22377.8
334245
365130
83489.8
115699
111290
87662.2
53302.9
29989.7
33066.5
50836.6
56540.7
37441.5
59238.8
34164.7
80573.6
103645
107729
76683.5
146789
151516
240715
309681
281530
267846
235800
285966
272650
161347
156338
95234.5
119669
90994.4
124280
69196.7
46456.3
43388
71757.5
65491.1
38801.1
62825.9
41994.2
98713.9
133283
128498
103006
-254.309
-6959.68
1941.66
-4095.58
-6362.5
-5330.45
-44.5185
-6083.72
-8048.73
-2877.62
-2932.7
-4783.78
3596.36
1466.28
7017.35
-3913.34
45110.9
101327
69324.5
66710.4
26311.9
32519.9
12638.8
45820.9
19235.3
11923
9486.57
35318.7
-3827.85
2906.02
1254.46
-8147.42
4318.44
20712.8
4001.49
20452.2
-7846.89
-1672.66
532.927
-5860.08
3273.52
21090.6
7216.03
20603.3
-4684.57
1379.81
-1846.84
-5853.6
5325.04
11166.7
12349.4
3452.8
3817.31
14706.2
13377.4
5676.75
-5290.39
-1909.84
1287.02
-4402.65
759.866
-5291.51
-2782.12
-6845.43
-4639.35
-5596.39
-2566.54
-7183.36
655.77
-5404.95
-5356.24
-4510.84
-6579.23
-1785.31
-5021.89
1363.36
4038.75
19306.1
18173.1
5483.48
5687.72
15855.3
17123.4
4078.61
-5229.26
1299.63
-7348.69
-1472.42
181347
173668
265395
337748
322190
303322
273010
312413
296490
166943
171529
149838
168650
188298
133659
136797
141530
104155
182872
111694
64687.8
80813.6
97160.3
176500
277041
216192
229177
112582
151479
145652
116187
76772.5
48407.5
76221.1
49384.7
109788
138301
107466
141640
79852.6
52305.7
49900.8
81241.3
312990
288489
317548
329903
333232
314604
300875
285751
303505
283984
320690
339803
336647
323448
298331
279258
295520
281238
340637
336660
339632
312449
346269
295381
344033
341599
291001
329158
333179
308452
326516
311505
323091
287562
269566
271761
284581
290094
276560
293008
274454
305342
316200
319693
302219
151531
168257
151646
168363
131442
130591
152926
170081
170061
152718
129993
130754
202587
187253
186501
203723
219413
232099
234293
217768
221820
238875
223380
236752
200464
183746
184592
199247
206840
189111
189777
205783
229509
247639
230905
245647
208849
192165
191592
209825
227205
241265
225730
243323
218040
198366
198600
217368
243556
263652
244402
262135
220025
200446
200437
220481
241248
258145
259868
240179
155163
173155
154755
173327
131084
132029
153791
171748
154095
171678
132523
131472
214625
196582
215432
196208
234476
249915
251835
233167
236720
255916
254073
237930
212688
193954
211791
194436
313875
317978
317334
288849
313366
264770
312857
318085
269154
325622
321562
282904
298603
294941
286211
264636
248869
251361
261444
267415
256649
254234
270550
279603
287643
291362
276235
292700
302131
305736
289452
278973
266843
282007
264576
295888
312760
299073
309214
276337
259468
261810
273253
281871
257614
67881.8
89713.1
93398.9
64357.3
45524.6
29080.9
47826.6
26147
70330.2
100356
96493.9
74019.2
42725.8
22632.4
40572.4
25408.1
110625
106982
190823
258527
241785
225835
195153
237481
221237
99979.5
103528
58658.5
86765.7
62061.3
83203.2
33400.2
16402.8
18898.3
31477.7
35897.7
22029.1
37934.8
19389.1
56499.3
76909.4
80367.1
53192.6
13.3685
-4264.22
-3085.35
-5915.83
-3637.51
-4706.59
-3051.67
-6032.84
-4347.96
126.973
-4617.77
-3560.27
-4259.85
465.466
-2283.62
-5969.08
1305.33
-838.234
-532.222
-1013.38
-615.341
566.651
1681.05
141.347
-6251.44
-2334.44
326.798
-4226.33
-5669.49
-2224.46
604.601
-4273.87
452.68
3198.16
2620.92
2552.54
-4264.86
749.781
-2165.61
-5372.59
2122.43
1268.71
-124.62
1809.04
-4858.82
-1997.23
1121.9
-4170.36
2952.81
10200.5
4883.86
9130.07
-4232.71
1218.91
-1951.18
-4959.37
4345.48
7262.95
8221.9
2372.03
-2979.65
-6258.19
346.37
-4526.74
-4795.47
-3718.01
239.852
-4435.84
-3017.49
-6145.28
-3803.59
-4884.44
-4183.7
1015.17
-4928.1
-2050.45
3177.98
3974.1
4732.49
1086.99
1736.51
6403.76
5549.44
3765.01
-5116
-2105.93
-4227.02
885.367
86523.7
89914.5
169640
235310
211762
194173
165486
215984
198623
96636
93162.8
38067.5
62383.1
59203
41096
17676.5
7027.31
8923.45
16196.8
19632.1
11041.2
8988.81
21236
36386.4
53673.2
56762.2
33448.7
46020.5
64916
68188.1
42903
27285.5
16028.6
29104.2
13670.5
47944.7
74185.3
51153.3
70820.5
25049.5
11201.7
13403.3
23336.9
248412
252922
244012
213884
236846
195393
239334
241669
199697
261481
257030
225583
237085
232898
229450
211915
200168
203338
208195
215429
209943
219080
206860
221669
224516
228770
217734
237072
241140
245259
233281
229391
222628
232903
219724
240820
253288
249242
244538
226078
213380
222494
216375
193488
177771
178813
192098
213565
229564
215298
227298
195756
181781
180840
197057
211022
222341
209200
224684
143196
157681
143572
157100
123688
123842
125377
125113
141504
154372
155055
141016
188270
175671
189753
174532
201966
211914
214417
199950
204663
219636
206583
217217
185838
171105
172352
184260
278211
273869
267287
237154
270532
225605
271890
265737
221263
265514
269908
266005
272681
276524
262504
255338
245927
258589
243362
269438
284002
280223
272871
252399
237697
240346
249089
255429
268917
265007
258999
239563
225885
236121
228706
251843
257195
248202
261171
242686
234607
231876
246060
171086
161262
159694
172963
181631
188882
191723
179212
184681
197678
194918
186998
168284
155490
157172
166309
136825
148344
136108
149243
122129
122089
120312
120235
138656
152246
139258
151453
177446
163690
175674
165156
195050
209023
206431
197164
192177
200769
203442
189962
180062
168849
181739
167496
182816
205595
40525
43147.7
107696
164454
146778
127521
104196
150622
131385
48223.2
45477.8
8734.29
23642.3
21363.1
10684.1
-192.164
-1061.64
337.368
-456.321
587.174
761.237
1019.65
-649.607
8263.53
17816.2
19955.7
6498.59
13450.3
25198.4
27613.6
11315.4
3511
2041.2
4253.51
614.497
14242.2
31865.8
29318.1
16544.9
2488.81
-95.7232
1906.89
1317.47
-6205.99
-2427.05
71.5077
-4113.7
-1307.59
-1498.16
993.245
-1667.24
-4179.97
197.615
-2384.99
-6329.33
730.455
-2348.99
-1519.69
-2337.69
-3207
-5300.15
-486.057
-3830.37
-4039.12
-3087.32
-568.449
-3740.73
-5166.3
-3211.08
-3171.54
-4141.54
-4042.57
-41.0095
-6063.38
-2467.01
305.606
-3188.69
-3659.3
-1786.47
-1668.79
-3054.39
501.047
-2859.6
-5914.34
-2493.47
-149.007
-3962.74
59095.5
56134.4
125918
185914
174419
155514
129708
170409
151381
50684.6
53538.3
27654.3
43241.5
46131.5
24935.8
13042.4
7074.72
14388
5309.27
29068.5
51347.9
48353.6
31898.7
11392.5
3832.84
5467.48
10185.1
21073.6
41141.1
38356.1
23667.8
6320.43
1501
5416.69
2964.05
19959.8
33707.2
17499.8
36378.1
7641.06
4105.26
2564.56
8700.91
-3685.35
-414.743
-2546.24
-5433.95
-250.215
-3380.55
-5119.11
-2027.08
-1987.28
-4909.59
-3424.59
-134.159
-5266.9
-2545.13
-490.506
-3581.38
-716.825
-3543.66
-3199.6
-4881.69
-3003.22
-3930.7
-3207.33
-5027.1
-647.728
-3643.41
-3819.64
-2914.59
-5597.36
-2533.91
-3785.84
-338.51
-1873.56
-4172.41
-3365.85
141.556
-4.35259
-3431.58
-4581.93
-1938.44
-3878.7
-245.337
-5757.81
-2520.13
196547
204584
220320
213733
359384
295342
277764
334394
299343
355592
339198
363554
346285
279147
307359
303424
341815
367106
357552
379943
326081
264204
307770
494427
340019
187570
238418
221429
160904
242442
183211
163719
191944
172195
227874
250860
246748
169184
196526
305277
326503
276443
325164
311746
271734
358931
281012
228516
291012
268504
303844
251523
249807
347572
291339
331931
264144
351483
287309
326981
343457
319536
262825
279275
283323
324534
339481
293732
231072
218254
273595
235112
289544
278620
298021
286434
243138
219885
239096
302177
281412
174805
234230
155737
212486
179021
230261
153033
170745
145435
206393
222195
226133
148059
166624
124320
175279
163254
103300
179017
120637
105678
127945
112380
186694
168781
182921
131707
109962
223625
167399
159386
208269
171351
219141
213340
228195
221783
179249
161454
175280
232648
216715
280999
227093
270734
205200
285224
223061
265704
276647
257742
215058
203462
219085
272388
262778
71550.2
117678
110302
56438.7
120999
68655.5
58313.3
74419.7
63533.6
127855
114979
124471
77433.2
61578.1
113482
171420
99132.6
154785
117086
167725
96798.9
110015
90455.5
160253
149451
163909
106494
92741.6
163489
204831
214540
114275
380305
324295
358545
295575
357868
381140
320785
374542
349511
311721
293013
371653
352842
315539
385641
331942
369015
311697
391992
359840
334645
413675
356597
346158
316169
397687
385881
344717
211077
269597
244821
191198
264728
187675
216394
206143
178085
255399
237396
201215
259746
181283
226935
274945
256630
198050
281202
221399
201491
230915
214418
290719
263373
239994
284468
208458
327143
263196
304471
247935
309491
323083
267252
331315
317047
275291
249346
335339
312032
271239
314791
259211
301867
234599
318884
296848
255159
310562
289164
247123
233081
306437
294185
251174
154705
206281
191736
130799
210157
133329
150734
158607
140611
218113
197627
162650
214209
138039
142997
202267
183069
126205
198426
146899
123712
139234
116763
190634
177359
135402
194446
119220
246104
195130
238430
175967
233373
250479
191132
241603
225083
183190
174005
237185
230148
187179
259279
199090
241579
188705
254942
246628
203101
263704
254745
211086
190558
268001
249703
207069
86623.3
141944
127829
74622.8
138441
72518
89856.2
83535
66937.8
131392
122919
80413
134840
68970.8
96385.1
145604
135989
78301.7
149164
93051.5
80476.1
99677.7
86521.6
156487
141115
103111
152880
84288.5
)
;

boundaryField
{
    left
    {
        type            calculated;
        value           nonuniform List<scalar> 
290
(
-153.168
319282
-0.502872
-56.9929
-152.976
-193.354
-87.5346
-193.595
498735
-8812.98
374592
43.1781
304604
4079.38
-214.842
-165.911
-92.7554
1759.06
570.874
3401.66
2747.1
-147.7
-149.512
-214.635
-216.177
-189.403
-230.219
-229.762
-179.716
-228.154
-184.079
-229.24
-213.941
93167.6
151248
2722.44
1341.12
-117.186
150299
5784.78
9370.81
691.154
6710.04
110032
-171.722
-151.268
-102.177
35.9304
39.4179
-4.2623
13159.7
14374.4
126.63
449.073
380.243
-126.331
23.8798
78.3576
-3.44205
0.931304
-152.549
-177.746
-178.747
-192.95
-236.222
-236.264
-161.985
-201.538
-146.152
-236.169
-176.934
8629.13
255283
331.473
85.8896
-86.0373
239215
164593
133731
117848
97420.9
33539.4
-180.801
-178.792
-210.033
-196.683
-200.389
-155.524
-185.931
-197.917
98.7954
128.968
-80.5142
2088.89
663.993
547.645
251.562
414.778
1618.89
2866.22
8513.88
22032.9
664.043
664.434
1936.8
8.7371
18.54
-135.29
-152.098
2.54014
5.71699
-215.478
-199.62
-198.608
-201.039
-200.596
-216.17
-179.892
-180.719
-234.091
-235.723
-191.932
-230.622
-239.98
-238.982
-239.827
-240.06
-230.283
-209.627
-213.596
-182.549
-235.889
-228.402
-222.26
-172.173
-220.574
-229.956
-239.494
-197.818
44195.7
217920
1542.2
490.609
1042.58
389.206
314.445
1052.34
-123.142
17.0359
38.7082
177271
194458
190780
4339.59
15710.8
18721.4
20127.9
12686.1
4766.4
6451.31
15099.4
28025
18842.4
17094.9
6924.92
70952.5
127145
153794
-153.295
-84.708
-84.6129
151006
122140
240368
22.693
96.1334
71.2877
-90.1443
-51.4049
-21.3278
-84.321
-83.7536
-153.011
542902
452543
336388
2585.68
4066.07
3783.71
1742.94
1344.7
2031.61
-78.4525
-76.8465
-145.231
-150.717
-80.6414
-79.8429
-84.9053
-153.565
-1.24628
-32.5667
-33.3307
-32.6888
-1.83271
15276.4
42068.6
33248.7
39207.4
25138
7728.12
87333.8
198.457
144.328
78.7912
372.635
237.239
301.825
208.682
198.323
357.99
-70.1615
-65.6923
-112.817
32.7784
-5.04772
-11.7609
36.1563
9.15079
48.6217
0.544551
-30.9359
-32.7921
-29.2408
-29.5367
2.50016
-152.769
-83.0837
-82.4279
-11412
1086.59
-19509.4
440423
4265.54
3173.8
2211.87
6222.68
4997.3
6253.59
8372.98
6198.92
10190.2
561.516
911.525
981.582
966.647
818.48
552.607
1644.7
1153.27
1379.84
13.8548
-20.5445
-23.461
-15.7333
-17.8967
17.4229
-141.302
-75.0148
-72.7094
-81.8105
-81.3481
-151.702
6.36482
-26.5924
-28.1422
-25.6374
-25.9496
6.92813
93156.6
128527
27455.8
53503.9
272310
324243
177234
217830
296889
388153
313687
)
;
    }
    bottom
    {
        type            calculated;
        value           nonuniform List<scalar> 0();
    }
    interface
    {
        type            calculated;
        value           nonuniform List<scalar> 
2123
(
341094
187214
258421
310678
350259
336307
263258
305872
233522
160701
228802
182592
156390
372316
380058
220068
224821
342947
349398
302238
297346
271897
267055
191757
196306
-25.8309
355023
99.0474
360.778
374249
372827
10377.3
201188
243954
58.9638
0.793635
-25.5526
-23.8512
324780
336522
321784
277821
291336
247796
173828
214741
359705
1484.65
527.975
405785
2223.63
6139.07
205879
239154
-18.8521
-7.35992
-20.8085
-23.1714
329503
377244
316904
282691
286475
252585
178264
210100
-124.687
-187.304
-188.207
-123.582
345794
116.742
-5.56751
37.1996
79.0726
100868
187049
65828.5
258465
166707
191845
253585
-46.0956
-58.4968
-8.08426
-98.6226
-124.227
-187.076
-123.515
-187.705
368018
367534
371974
363829
315416
380943
222404
249601
254238
217918
341014
377234
331492
268099
355207
362985
359510
297463
292945
301041
238256
209023
244949
213435
154072
150074
223617
220960
218916
283858
288049
283294
288408
165038
224090
94864.3
91586.6
142155
146087
168839
214193
88340.5
368919
1097.6
2310.72
1597.85
1021.02
381266
4060.71
2110.44
1855.52
5157.73
215319
229582
-112.524
-178.361
-115.419
-175.054
-120.574
-181.386
-117.962
-183.831
389990
391886
397108
402277
402775
338867
353588
246458
278287
251683
262429
256955
307123
292451
333267
328839
319928
321142
324389
276743
262212
187314
217342
183068
174632
178826
247036
251684
260936
256324
187227
200874
112105
140008
136048
115698
123037
119355
-173.731
-35.5894
-161.411
-19.7032
808.783
-130.365
674.59
-171.924
-125.373
-189.05
-50.6244
-25.1546
-24.9905
350497
165.753
159.076
200.817
370.159
165.541
361.135
249.052
241.107
494405
18696.8
-125.171
7.00844
14094.6
23270.4
7382.1
23693.7
196502
248760
-174.872
-164.54
-164.419
-175.032
-248.423
-218.449
-218.888
-247.999
22.1021
31.774
-69.9526
-144.955
-127.319
-86.8965
0.611509
13.658
-49.8222
-24.3087
-124.138
-186.621
-187.764
-122.654
-49.1506
-23.5906
-176.458
-165.908
-176.234
-165.896
-198.216
-90.8694
-159.724
-107.179
-247.392
-218.313
-248.01
-217.676
372338
376341
300.593
45.8011
237.959
-32.6742
154754
132003
134277
154661
27079
553107
52244.1
320161
401210
143039
227002
263621
258935
231637
-466.564
-429.195
-437.09
-448.563
-498.368
-466.837
-498.894
-465.205
317012
286585
295734
326642
272952
340800
350848
346494
147070
128364
130439
146851
153504
133915
153454
131843
301980
306994
302262
306483
296189
243016