/*--------------------------------*- C++ -*----------------------------------*\
| =========                 |                                                 |
| \\      /  F ield         | OpenFOAM: The Open Source CFD Toolbox           |
|  \\    /   O peration     | Version:  2012                                  |
|   \\  /    A nd           | Website:  www.openfoam.com                      |
|    \\/     M anipulation  |                                                 |
\*---------------------------------------------------------------------------*/
FoamFile
{
    version     2.0;
    format      ascii;
    class       volVectorField;
    location    "0.106/solid";
    object      sigmaMinDir;
}
// * * * * * * * * * * * * * * * * * * * * * * * * * * * * * * * * * * * * * //

dimensions      [1 -1 -2 0 0 0 0];


internalField   nonuniform List<vector> 
3125
(
(-0.0147538 -0.0027896 0.999887)
(0.815039 -0.577201 -0.0505011)
(-0.172104 -0.29898 0.938611)
(-0.451435 0.887025 0.0969195)
(0.834164 -0.549053 -0.0520683)
(0.826832 -0.560132 -0.0509884)
(-0.133792 -0.000995975 0.991009)
(-0.126107 -0.250165 0.959955)
(-0.014318 0.000110447 0.999897)
(-0.183673 -0.105927 0.977263)
(-0.133415 -0.000834699 0.99106)
(0.139509 0.989069 0.0477556)
(-0.238409 -0.141521 0.960798)
(-0.332742 0.422024 0.843314)
(0.717543 0.169602 -0.67555)
(-0.403331 0.905389 0.132645)
(-0.406439 0.912787 0.0403468)
(0.772014 -0.618508 -0.146434)
(0.953665 0.298874 0.0346101)
(0.104802 -0.0548393 0.99298)
(-0.114813 -0.047107 0.99227)
(-0.562225 0.813968 0.146147)
(0.815769 -0.576179 -0.0503898)
(0.826171 -0.561118 -0.0508781)
(0.135394 0.989642 0.0477113)
(0.759585 0.159269 -0.630606)
(0.72505 0.162779 -0.669182)
(0.131579 0.990164 0.0475559)
(-0.407487 0.912326 0.0401876)
(-0.421909 0.905743 0.040289)
(0.955224 0.293921 0.0340161)
(-0.139811 -0.0442356 0.98919)
(-0.114967 -0.0455931 0.992322)
(0.961188 0.27409 0.0315143)
(0.141155 0.988896 0.0464742)
(0.762735 0.161533 -0.626213)
(0.13095 0.990246 0.0475836)
(0.775928 0.182954 -0.603708)
(-0.431506 0.901188 0.0407695)
(-0.42228 0.905566 0.0403835)
(0.963683 0.26551 0.028614)
(-0.144985 -0.0448919 0.988415)
(0.961619 0.272591 0.0313497)
(-0.185052 -0.0545492 0.981214)
(0.834793 -0.54809 -0.0521333)
(0.140524 0.98899 0.0463857)
(-0.431788 0.901053 0.0407839)
(0.964087 0.264081 0.0282353)
(-0.0306849 -0.128621 0.991219)
(0.00673524 -0.0187413 0.999802)
(-0.0930573 -0.184893 0.978343)
(-0.265492 -0.331439 0.905352)
(-0.592416 -0.0268916 0.805183)
(0.785723 -0.615887 -0.0576368)
(-0.579588 -0.248604 0.776063)
(0.824387 -0.563316 -0.0553316)
(0.714281 -0.0621822 -0.697091)
(0.831135 -0.553669 -0.051613)
(0.830611 -0.554466 -0.0515145)
(0.00294821 0.000627784 0.999995)
(-0.0233295 0.000440174 0.999728)
(-0.0149662 -0.0272881 0.999516)
(-0.0129167 -0.0220314 0.999674)
(0.00349932 0.000502846 0.999994)
(0.0061503 -0.00849063 0.999945)
(-0.0664311 -0.120724 0.990461)
(-0.136438 -0.0188547 0.990469)
(-0.020952 -0.0201201 0.999578)
(-0.0227407 -0.000159174 0.999741)
(-0.133976 -0.0101102 0.990933)
(-0.0207526 -0.00932615 0.999741)
(-0.185656 0.981184 0.053011)
(0.167482 0.984504 0.0519817)
(0.109488 0.993985 0.00231961)
(-0.134196 -0.162633 0.977518)
(-0.443728 -0.213439 0.870373)
(-0.657294 0.177423 0.732452)
(-0.397622 -0.275834 0.875107)
(-0.684946 -0.246511 0.685625)
(0.0360888 0.972563 0.229825)
(0.14316 0.989443 -0.022515)
(-0.682746 0.255919 0.684371)
(0.874633 0.434006 -0.216001)
(-0.688639 -0.225783 0.689056)
(0.293011 0.953744 -0.0672154)
(0.130057 0.990049 0.0537483)
(-0.629215 0.637669 0.444372)
(-0.0348659 0.975249 0.218343)
(0.0689559 0.99747 0.0173055)
(0.648354 -0.450523 -0.613731)
(-0.36443 0.930052 0.0468452)
(-0.382546 0.922785 0.0461077)
(0.984868 0.173258 0.00399287)
(0.918453 0.39303 0.0443974)
(0.93341 0.358746 0.00688597)
(-0.106959 -0.0797279 0.991062)
(0.350436 0.843186 0.407715)
(0.875152 0.480808 -0.054159)
(0.982446 0.179012 -0.0524861)
(-0.114623 -0.06208 0.991467)
(0.944142 0.325973 -0.0483492)
(0.903304 0.426523 0.0460433)
(0.104524 0.948355 0.299497)
(0.822641 0.568546 0.0041638)
(0.820932 -0.568806 -0.0502951)
(0.821808 -0.567534 -0.0503656)
(-0.353708 0.931742 0.0821445)
(0.129065 0.990495 0.0475505)
(-0.544185 0.830896 0.116078)
(0.747857 0.155198 -0.645464)
(0.964381 0.0760569 -0.253349)
(0.965804 0.0774901 -0.247424)
(0.937316 0.258724 -0.233454)
(0.743051 0.155179 -0.650995)
(0.965157 0.0907241 -0.24544)
(0.127808 0.990656 0.0476031)
(-0.61327 0.778907 0.131164)
(-0.567205 0.814683 0.120705)
(-0.416093 0.908449 0.0398454)
(-0.416531 0.908245 0.0399198)
(0.98888 0.14871 0.000890426)
(0.959543 0.279709 0.0322619)
(0.994526 0.103781 -0.0121305)
(-0.12569 -0.0433929 0.99112)
(0.981896 0.0934045 -0.164793)
(0.988307 0.110829 -0.104716)
(0.985823 0.157295 -0.0583975)
(-0.121795 -0.0435252 0.9916)
(0.988822 0.119056 -0.0897552)
(0.960102 0.277803 0.0320882)
(0.996798 0.0706136 -0.0375294)
(0.995459 0.0935559 -0.017559)
(0.135775 0.989614 0.0472153)
(0.82065 -0.541944 -0.18119)
(0.708897 -0.688228 -0.154297)
(0.963338 0.0818699 -0.255494)
(0.770213 0.169953 -0.614725)
(0.958822 0.108071 -0.262641)
(0.135971 0.989585 0.0472572)
(-0.627562 0.766834 0.134652)
(-0.682699 0.715545 0.148045)
(0.950314 0.1467 -0.27456)
(0.772093 0.173076 -0.611487)
(0.957003 0.117219 -0.265339)
(-0.427316 0.903184 0.0407403)
(-0.427111 0.903284 0.0406657)
(0.962859 0.268312 0.0301949)
(0.990487 0.0420433 -0.131029)
(0.995073 0.0468581 -0.0873713)
(0.977592 0.0895375 -0.190517)
(-0.161329 -0.0479308 0.985736)
(0.954204 0.0842567 -0.287047)
(0.96251 0.269533 0.0304299)
(0.996873 0.0645227 -0.0456246)
(0.995895 0.0501375 -0.0753674)
(0.887942 0.0921557 -0.450628)
(-0.167028 -0.0493006 0.984719)
(0.94181 0.0844897 -0.325355)
(0.0460517 -0.115805 0.992204)
(0.0481182 -0.0608911 0.996984)
(0.0229639 -0.18903 0.981703)
(0.0435223 -0.176438 0.983349)
(-0.0590027 -0.281884 0.957632)
(-0.0674546 -0.0020447 0.99772)
(0.811054 -0.58269 -0.0516197)
(-0.298918 -0.535209 0.790063)
(-0.336055 -0.382552 0.860652)
(-0.536134 -0.457712 0.709267)
(-0.5382 0.838202 0.0880837)
(-0.56035 0.474258 0.679034)
(0.839315 0.120547 -0.530112)
(0.833051 -0.550759 -0.0518788)
(0.828445 -0.557724 -0.0512186)
(0.032783 0.0012072 0.999462)
(-0.0542976 -0.000203316 0.998525)
(-0.233109 -0.516231 0.824115)
(-0.0458043 -0.108245 0.993068)
(-0.0744488 -0.34006 0.937452)
(-0.0617909 -0.00477667 0.998078)
(-0.012332 -0.00625638 0.999904)
(-0.0338171 -0.0141558 0.999328)
(0.0332913 0.000899159 0.999445)
(0.0339608 0.000637767 0.999423)
(-0.107899 -0.120819 0.986793)
(-0.156707 -0.0634614 0.985604)
(-0.0752899 -0.0718862 0.994567)
(-0.0538545 -0.00104584 0.998548)
(-0.133282 -0.00260908 0.991075)
(-0.053418 -0.00215734 0.99857)
(0.977887 -0.192527 -0.0816727)
(0.150556 0.987412 0.0484798)
(0.644006 0.764876 -0.0148399)
(-0.175967 -0.165386 0.970404)
(-0.306806 -0.179521 0.934688)
(-0.281564 -0.202742 0.937879)
(0.000152264 -0.22234 0.974969)
(-0.423406 0.381574 0.821662)
(-0.322952 0.836393 0.442888)
(-0.560971 0.5903 0.580394)
(-0.0389773 0.876653 -0.479542)
(0.854755 0.19964 -0.479102)
(0.709032 0.18097 -0.681559)
(0.84688 0.230611 -0.47918)
(-0.601267 0.788975 0.12648)
(-0.257318 0.386282 0.885762)
(-0.143561 0.972276 0.184581)
(-0.614368 0.774789 0.149178)
(-0.36612 0.930451 0.0147607)
(-0.399062 0.915978 0.0416362)
(-0.201715 0.976466 0.07632)
(0.304283 0.95188 0.0365547)
(0.948074 0.315883 0.0370585)
(0.548261 0.835343 0.040147)
(0.0152249 0.0185082 0.999713)
(0.252119 0.0559561 0.966077)
(0.0898437 0.0872749 0.992125)
(-0.186952 -0.0596451 0.980557)
(-0.115482 -0.0493908 0.992081)
(-0.192296 -0.0652852 0.979163)
(0.950144 -0.311582 -0.0119215)
(-0.1214 0.956428 0.265531)
(-0.22686 0.967085 0.115244)
(0.818061 -0.572938 -0.050191)
(0.824458 -0.563653 -0.0506503)
(0.873486 0.484636 -0.0463747)
(0.131204 0.990214 0.0475552)
(0.969921 -0.228374 -0.0842561)
(0.756081 0.157374 -0.635275)
(0.869345 0.155627 -0.469062)
(0.869204 0.154485 -0.469701)
(0.859639 0.181048 -0.477747)
(0.731734 0.158503 -0.662904)
(0.862962 0.169179 -0.476105)
(0.129172 0.990479 0.0476089)
(0.976401 -0.19588 -0.0909504)
(0.992549 0.091407 -0.08057)
(-0.412243 0.910203 0.0398362)
(-0.419601 0.906821 0.0401358)
(0.51153 0.858348 0.0397048)
(0.9577 0.285873 0.0329725)
(0.259446 0.965082 0.0361291)
(-0.13482 -0.0437612 0.989903)
(-0.203251 -0.049176 0.977891)
(-0.198041 -0.0488856 0.978974)
(-0.183371 -0.0558552 0.981456)
(-0.116244 -0.0445867 0.992219)
(-0.182057 -0.0532447 0.981845)
(0.960973 0.274817 0.0317206)
(0.214468 0.976142 0.0339198)
(0.440194 0.897063 0.0388201)
(0.138549 0.989248 0.0468334)
(0.990014 -0.0964217 -0.102836)
(0.990902 0.0954645 -0.0948621)
(0.869254 0.157356 -0.468654)
(0.765543 0.164124 -0.622099)
(0.868942 0.159628 -0.468465)
(0.133588 0.989899 0.0474711)
(0.992985 0.0831302 -0.0840823)
(0.980493 -0.172911 -0.0934587)
(0.863051 0.178545 -0.472509)
(0.774935 0.179629 -0.605977)
(0.8645 0.175039 -0.47117)
(-0.429624 0.902086 0.0407993)
(-0.424706 0.904425 0.0405069)
(0.963518 0.266033 0.0293198)
(0.211593 0.977075 0.0234984)
(0.415784 0.908943 0.0307696)
(-0.208639 -0.049742 0.976727)
(-0.150304 -0.0457278 0.987582)
(-0.214165 -0.0505793 0.975487)
(0.961898 0.271639 0.031043)
(0.430593 0.901755 0.0377893)
(0.21075 0.977005 0.0323459)
(-0.249424 -0.0607144 0.966489)
(-0.178871 -0.0525962 0.982466)
(-0.243234 -0.0584228 0.968207)
(0.989168 0.108454 -0.0989163)
(0.416288 0.908843 0.0266093)
(0.0405581 -0.0137256 0.999083)
(0.0443846 -0.0301437 0.99856)
(0.0130356 -0.131087 0.991285)
(-0.00389087 -0.0725236 0.997359)
(0.0310638 -0.0705258 0.997026)
(0.0347753 -0.0165905 0.999257)
(0.00504869 -0.0386042 0.999242)
(0.0351831 -0.0357983 0.99874)
(-0.0360922 -0.203049 0.978503)
(-0.210106 -0.225058 0.951422)
(-0.139085 -0.273211 0.951846)
(-0.0499378 -0.221271 0.973933)
(-0.390955 -0.317183 0.864031)
(-0.22837 -0.300473 0.926047)
(-0.44093 -0.0754111 0.894368)
(-0.472335 -0.207742 0.856588)
(-0.322943 -0.226033 0.91903)
(0.812592 -0.580515 -0.0519379)
(-0.397157 -0.365198 0.84196)
(0.747455 0.260179 -0.611243)
(-0.593508 -0.420599 0.686181)
(-0.654531 0.74618 0.121678)
(-0.423736 0.560328 0.711674)
(0.781112 0.195396 -0.593029)
(0.820651 0.125561 -0.557465)
(0.832665 -0.551352 -0.0517664)
(0.829154 -0.556659 -0.051317)
(0.0296426 0.000881877 0.99956)
(-0.0558905 0.000146255 0.998437)
(-0.0312544 -0.081841 0.996155)
(-0.0204219 -0.0942523 0.995339)
(-0.0472456 -0.259348 0.964628)
(-0.0121212 -0.0050313 0.999914)
(-0.0240345 -0.0643524 0.997638)
(-0.0264252 -0.021069 0.999429)
(0.0375647 -0.00529352 0.99928)
(0.0353283 -0.0015692 0.999375)
(0.0301132 0.000875859 0.999546)
(0.00430136 -0.000536803 0.999991)
(0.0307496 0.000121813 0.999527)
(0.0332792 -0.00707455 0.999421)
(0.00521751 -0.00331696 0.999981)
(0.0318207 -0.00243243 0.999491)
(-0.100821 -0.11642 0.98807)
(-0.0355276 -0.0709334 0.996848)
(-0.0707684 -0.0696005 0.995062)
(-0.142697 -0.0363392 0.989099)
(-0.055434 -0.0214341 0.998232)
(-0.061007 -0.0409729 0.997296)
(-0.0239006 -0.0395562 0.998931)
(-0.0548849 -0.020741 0.998277)
(-0.0587429 -0.0398835 0.997476)
(-0.0554685 -0.000694129 0.99846)
(-0.0218232 -0.00130828 0.999761)
(-0.0551177 -0.00180843 0.998478)
(-0.133309 -0.00466057 0.991064)
(-0.0536243 -0.0104821 0.998506)
(-0.0532295 -0.00510528 0.998569)
(-0.0211132 -0.00393015 0.999769)
(-0.0541034 -0.00987383 0.998487)
(-0.0545673 -0.00452405 0.9985)
(0.0497619 0.998435 0.0255102)
(-0.0109349 0.999691 0.0223184)
(0.126759 0.991803 0.0160825)
(0.156321 0.986499 0.0488187)
(0.155165 0.987333 0.0331377)
(0.993385 -0.0836288 -0.0786922)
(0.0764353 0.997043 0.00794099)
(0.0903178 0.99564 0.023332)
(0.156224 0.987629 0.0135077)
(-0.165658 -0.154698 0.973974)
(-0.257618 -0.176473 0.949995)
(-0.276104 -0.17011 0.945954)
(-0.490691 -0.017829 0.871151)
(-0.588947 0.0507042 0.806579)
(-0.467966 -0.0142757 0.883631)
(-0.511515 0.0939917 0.854118)
(-0.663289 0.315674 0.678526)
(-0.508185 0.139207 0.849923)
(-0.0138177 0.0356765 0.999268)
(-0.532279 -0.196389 0.823475)
(-0.450917 -0.357829 0.817699)
(-0.641713 -0.289371 0.710259)
(0.674791 0.625408 -0.391819)
(0.737412 0.500123 -0.453982)
(0.03415 0.962255 0.269998)
(0.0304818 0.972384 0.231388)
(-0.231044 0.96354 -0.134942)
(-0.0288003 0.959801 0.279199)
(-0.202544 0.956605 -0.209483)
(0.29588 0.948668 -0.111729)
(0.625498 0.759807 -0.177332)
(0.698275 0.6588 -0.279989)
(-0.641426 8.55379e-05 0.767185)
(-0.647061 -0.211126 0.732624)
(-0.523664 -0.347644 0.777766)
(0.912624 0.241637 -0.329742)
(0.694721 0.699077 -0.169275)
(0.888202 0.327529 -0.322215)
(0.699883 0.196216 -0.686777)
(0.8008 0.381066 -0.462069)
(0.833226 0.28142 -0.47596)
(0.428441 0.89791 -0.100979)
(0.615289 0.753994 -0.230029)
(0.813001 0.5006 -0.29737)
(0.00751485 0.997344 0.0724512)
(-0.00483481 0.999111 0.0418707)
(-0.42972 0.89759 0.0983514)
(-0.137934 -0.656525 0.741585)
(-0.588607 0.664572 0.460311)
(0.742294 -0.39348 -0.542377)
(-0.143921 0.966647 0.211849)
(-0.0509447 0.970717 0.234762)
(-0.272492 0.958063 -0.0886777)
(0.0382947 0.981033 0.190018)
(-0.37545 0.926628 -0.0199616)
(0.0541152 0.997892 0.0358147)
(0.653741 0.745468 -0.129998)
(-0.252636 0.964609 0.0755315)
(0.597793 -0.579131 -0.554302)
(0.714356 0.035439 -0.698885)
(0.701596 -0.192502 -0.68608)
(-0.398973 0.915997 0.0420655)
(0.756828 -0.652541 -0.0374322)
(0.979112 0.200685 0.0326413)
(0.977992 0.208552 0.00620891)
(0.970836 0.237181 0.0349601)
(0.944478 0.326331 0.0383236)
(0.454532 0.889785 0.0410316)
(0.353411 0.934725 0.0372643)
(0.963195 0.2687 0.0074459)
(0.916538 0.398225 0.0370823)
(0.956545 0.289257 0.0367715)
(-0.0769586 -0.08771 0.993169)
(-0.174029 -0.133341 0.975671)
(-0.095557 -0.122922 0.987805)
(0.532151 0.452154 0.715802)
(0.560898 0.791609 0.242383)
(0.525142 0.464433 0.713111)
(0.823107 0.400827 -0.402284)
(0.92448 0.380178 -0.0283132)
(0.85175 0.328423 -0.40824)
(0.82923 0.166528 -0.533523)
(0.976628 0.209337 -0.0487461)
(0.856172 0.191929 -0.479721)
(-0.11632 -0.0536427 0.991762)
(-0.196283 -0.0944495 0.975988)
(-0.197418 -0.0756692 0.977395)
(0.964304 0.260481 -0.0476127)
(0.865835 0.286705 -0.410037)
(0.867819 0.233039 -0.438843)
(0.992882 -0.118952 -0.00603587)
(0.224807 0.973701 0.0369995)
(0.0875855 0.993139 0.0774846)
(-0.00849774 0.967835 0.251443)
(0.230914 0.95853 0.167031)
(0.0134893 0.991008 0.133123)
(0.744071 0.66705 0.0374522)
(0.868294 0.495948 0.0100124)
(0.633394 0.772191 0.050335)
(0.81892 -0.571708 -0.0502071)
(0.823791 -0.564635 -0.0505477)
(-0.0594289 0.997475 0.0388931)
(-0.454443 0.885178 0.0997078)
(-0.145783 0.988081 0.0494271)
(0.128844 0.990522 0.0475983)
(0.96932 -0.230078 -0.0864989)
(0.967477 0.244059 -0.0665163)
(-0.511027 0.85252 0.109823)
(-0.247446 0.966923 0.0618937)
(-0.207698 0.976532 0.0569823)
(0.752185 0.155978 -0.640225)
(0.868045 0.155077 -0.471644)
(0.868789 0.1542 -0.470561)
(0.929783 0.136038 -0.342049)
(0.965215 0.0720981 -0.251319)
(0.930546 0.134633 -0.340527)
(0.93116 0.136998 -0.337893)
(0.965747 0.071774 -0.249361)
(0.931035 0.134735 -0.339147)
(0.922556 0.19539 -0.332735)
(0.956326 0.16706 -0.239855)
(0.927311 0.168134 -0.334403)
(0.737703 0.156176 -0.656813)
(0.866917 0.157396 -0.472949)
(0.865279 0.161822 -0.474453)
(0.962835 0.117619 -0.243136)
(0.930793 0.142235 -0.336739)
(0.929671 0.151896 -0.335619)
(0.129876 0.990389 0.0475653)
(0.988712 0.129244 -0.0757926)
(0.972391 -0.215861 -0.0886585)
(-0.310713 0.947903 0.0702659)
(-0.599601 0.790016 0.127885)
(-0.303065 0.950458 0.0691448)
(-0.274113 0.95948 0.0652691)
(-0.58472 0.801628 0.124478)
(-0.291337 0.954234 0.0675279)
(-0.412939 0.909887 0.0398427)
(-0.419318 0.906956 0.0400303)
(0.983792 0.176768 0.0300928)
(0.991455 0.130419 -0.00288631)
(0.987167 0.157303 0.0275017)
(0.958587 0.282918 0.0326826)
(0.234156 0.971543 0.0357131)
(0.476223 0.878431 0.0396282)
(0.993252 0.115749 -0.00724359)
(0.991371 0.129174 0.0223081)
(0.989586 0.14177 0.0249071)
(-0.130077 -0.0434755 0.99055)
(-0.188778 -0.0492901 0.980782)
(-0.19315 -0.0489071 0.97995)
(-0.51542 -0.0810643 0.853095)
(0.984986 0.0980948 -0.142055)
(-0.540077 -0.0845701 0.837356)
(-0.605828 -0.0963153 0.789744)
(0.987076 0.103797 -0.122098)
(-0.569962 -0.0895365 0.816778)
(0.791283 0.146469 -0.593648)
(0.987686 0.14155 -0.0666297)
(0.744657 0.130277 -0.65461)
(-0.118577 -0.0439064 0.991974)
(-0.185207 -0.0500747 0.981423)
(-0.18281 -0.0513483 0.981806)
(0.988634 0.129085 -0.0770701)
(-0.647894 -0.105205 0.75443)
(-0.69525 -0.116463 0.70927)
(0.960574 0.276194 0.03185)
(0.453683 0.890291 0.0394173)
(0.221911 0.974439 0.0349853)
(0.995364 0.0955953 0.0105817)
(0.996553 0.077263 -0.0301986)
(0.994661 0.102266 0.0138196)
(0.992738 0.118682 0.0196266)
(0.996119 0.0848084 -0.0235663)
(0.993811 0.109807 0.0168112)
(0.138856 0.989202 0.0468909)
(0.992105 0.0861494 -0.0911351)
(0.98747 -0.122642 -0.0993099)
(-0.351505 0.933039 0.0767047)
(0.778123 -0.604436 -0.170827)
(-0.342841 0.936364 0.0753854)
(-0.33274 0.940125 0.0738141)
(0.740378 -0.652428 -0.161795)
(-0.336823 0.938619 0.0744556)
(0.928803 0.138458 -0.343735)
(0.962044 0.0896696 -0.257743)
(0.927615 0.141795 -0.345577)
(0.768035 0.166937 -0.618267)
(0.867723 0.165224 -0.468783)
(0.868435 0.162237 -0.468509)
(0.960576 0.0980997 -0.260135)
(0.924733 0.150032 -0.349799)
(0.92626 0.145666 -0.347598)
(0.132981 0.989981 0.0474809)
(0.984188 -0.148703 -0.0962316)
(0.992699 0.0830119 -0.0875127)
(-0.316346 0.945972 0.0711471)
(-0.643282 0.752999 0.138496)
(-0.320599 0.944486 0.0718444)
(-0.328476 0.941676 0.0731365)
(-0.661435 0.73626 0.142912)
(-0.324754 0.943014 0.072528)
(0.917149 0.169309 -0.360793)
(0.952739 0.13674 -0.271276)
(0.919269 0.164329 -0.357688)
(0.773672 0.176292 -0.608566)
(0.86684 0.16832 -0.469315)
(0.86577 0.171595 -0.470104)
(0.954972 0.126859 -0.268209)
(0.923067 0.154593 -0.352205)
(0.921243 0.159398 -0.354828)
(-0.429528 0.902135 0.0407314)
(-0.425012 0.904277 0.0405941)
(0.963164 0.267281 0.0296005)
(0.417894 0.907862 0.0339449)
(0.209683 0.977391 0.0271969)
(0.998029 0.0553969 -0.0294786)
(0.992441 0.0425222 -0.115119)
(0.998015 0.0587309 -0.0227424)
(0.997675 0.0672684 -0.0109349)
(0.99395 0.0440704 -0.100603)
(0.997902 0.0625795 -0.016584)
(-0.495128 -0.0787174 0.865247)
(0.971763 0.0867351 -0.219439)
(-0.478491 -0.0773739 0.874677)
(-0.155753 -0.0467363 0.98669)
(-0.225493 -0.0530063 0.972802)
(-0.219782 -0.0516638 0.97418)
(0.964097 0.0848436 -0.251632)
(-0.453833 -0.0769738 0.887756)
(-0.464886 -0.076817 0.882032)
(0.962301 0.27023 0.0308567)
(0.208731 0.977508 0.0301682)
(0.423843 0.905012 0.036195)
(0.995987 0.089221 0.00703915)
(0.996757 0.0591417 -0.0545757)
(0.996515 0.083352 0.00315836)
(0.997377 0.0721423 -0.00580224)
(0.996445 0.054238 -0.0644588)
(0.996991 0.0775129 -0.00111107)
(-0.428487 -0.0826687 0.899758)
(0.908601 0.0885549 -0.40817)
(-0.43249 -0.0805725 0.898032)
(-0.172871 -0.050851 0.983631)
(-0.231274 -0.0545715 0.971357)
(-0.237187 -0.0563759 0.969827)
(0.926625 0.0859214 -0.366038)
(-0.444918 -0.0776701 0.892197)
(-0.437897 -0.0788884 0.895557)
(0.0181059 -0.00232564 0.999833)
(-0.145449 -0.00636195 0.989345)
(-0.0156321 -0.000464937 0.999878)
(0.0485395 -0.00188088 0.998819)
(-0.146263 0.00243966 0.989243)
(0.0185111 -0.00195918 0.999827)
(0.0482726 -0.00183206 0.998833)
(0.814007 -0.578634 -0.0507567)
(-0.134935 -0.218659 0.966427)
(-0.146209 -0.341265 0.928526)
(-0.209824 -0.110429 0.971483)
(-0.221093 -0.343543 0.912741)
(-0.0939439 -0.198315 0.975626)
(-0.218947 -0.130093 0.967025)
(-0.209043 -0.38204 0.900192)
(-0.077809 0.966992 -0.242637)
(-0.282946 0.957241 0.0602567)
(-0.661417 0.72578 0.189134)
(-0.629429 0.764115 0.141234)
(-0.165536 0.936338 -0.309626)
(-0.367875 0.919577 0.138008)
(0.747252 -0.60998 -0.263701)
(0.834077 -0.549195 -0.0519682)
(0.827479 -0.559171 -0.0510588)
(-0.038114 -0.13476 0.990145)
(-0.0903074 -0.288858 0.953103)
(-0.184043 -0.0974565 0.978075)
(-0.0930857 -0.194367 0.976502)
(-0.0636517 -0.16535 0.984179)
(-0.176292 -0.0770275 0.981319)
(-0.043847 -0.229601 0.972297)
(0.0187902 -0.000479257 0.999823)
(-0.145466 0.00508494 0.98935)
(0.0492617 -0.00138519 0.998785)
(-0.0139789 -0.00282662 0.999898)
(0.018611 0.000148555 0.999827)
(-0.145927 -0.00442632 0.989285)
(0.0506487 -0.00222183 0.998714)
(0.945703 -0.312094 -0.0907877)
(0.761903 -0.643285 -0.0754279)
(0.105191 0.993529 0.0428369)
(0.141398 0.98879 0.047964)
(0.759037 -0.646642 -0.0756074)
(0.110116 0.992994 0.0428731)
(0.944723 -0.315081 -0.0906756)
(-0.404027 0.913842 0.0406827)
(-0.0767617 0.996317 0.0381997)
(0.807911 0.580962 0.0988118)
(0.721324 0.691111 0.0453524)
(0.473443 0.877715 0.073949)
(0.952391 0.302835 0.035241)
(0.728154 0.683892 0.0456404)
(0.478476 0.874931 0.0745341)
(0.801838 0.589399 0.0983061)
(-0.204127 0.97467 0.0913833)
(-0.58194 0.810359 0.0682858)
(-0.2084 0.955553 0.208537)
(-0.497414 0.860007 0.113876)
(-0.126002 0.979461 0.157414)
(-0.164432 0.983431 0.0763306)
(-0.323453 0.934128 0.150938)
(0.816702 -0.574867 -0.0502666)
(0.825886 -0.561545 -0.0507842)
(0.944368 -0.316184 -0.0905325)
(0.766954 -0.637266 -0.0753243)
(0.0883567 0.995139 0.0434983)
(0.134262 0.989802 0.047606)
(0.945415 -0.313051 -0.0904974)
(0.769572 -0.634107 -0.0752807)
(0.0864863 0.995306 0.043429)
(0.945199 -0.313281 -0.0919482)
(0.130009 0.990369 0.0476031)
(0.822336 -0.563813 -0.0766727)
(0.0436038 0.99803 0.045107)
(0.820626 -0.566318 -0.0765273)
(0.0385732 0.998224 0.0454045)
(0.944457 -0.315441 -0.0921899)
(-0.409781 0.911307 0.0399924)
(-0.421085 0.906128 0.040238)
(0.786674 0.609565 0.0978459)
(0.725888 0.68636 0.0446723)
(0.468787 0.880243 0.0735643)
(0.955999 0.291436 0.0336208)
(0.792707 0.601668 0.098033)
(0.719945 0.692601 0.0445272)
(0.464563 0.882504 0.0732677)
(0.679885 0.726409 0.100429)
(0.961245 0.273881 0.0315665)
(0.779919 0.6247 0.0384108)
(0.43562 0.896987 0.0751706)
(0.784589 0.618828 0.0383613)
(0.436426 0.896617 0.0749078)
(0.669357 0.736102 0.100577)
(0.946516 -0.30829 -0.0952094)
(0.139658 0.989102 0.0466181)
(0.881312 -0.465977 -0.0784531)
(0.04245 0.998154 0.0434287)
(0.88032 -0.467876 -0.0782886)
(0.0364649 0.998367 0.0439737)
(0.945937 -0.309962 -0.0955302)
(0.944493 -0.315218 -0.0925757)
(0.13235 0.990063 0.0475301)
(0.827632 -0.555991 -0.0768085)
(0.0364479 0.998301 0.0454567)
(0.830464 -0.551732 -0.0769477)
(0.945363 -0.312674 -0.0923201)
(0.042274 0.998088 0.0450954)
(-0.43086 0.901497 0.0407771)
(-0.423507 0.904991 0.0404048)
(0.502488 0.858747 0.100298)
(0.963749 0.265248 0.0288415)
(0.871576 0.489674 0.0239765)
(0.410256 0.908623 0.0780654)
(0.877967 0.478117 0.0240407)
(0.410846 0.908368 0.0779245)
(0.483406 0.869715 0.099573)
(0.649204 0.753883 0.100967)
(0.961509 0.272987 0.0312886)
(0.795963 0.604205 0.0371371)
(0.433995 0.897752 0.0754313)
(0.661182 0.743413 0.100877)
(0.792985 0.608113 0.037048)
(0.43183 0.898779 0.0756295)
(0.88632 -0.456368 -0.078526)
(0.0370848 0.998363 0.0435485)
(0.946796 -0.307265 -0.0957377)
(0.88551 0.464108 0.0217925)
(0.40845 0.909432 0.0781166)
(0.477224 0.873131 0.0994981)
(0.813886 -0.578556 -0.0534943)
(-0.393419 -0.150838 0.906901)
(-0.513709 -0.244019 0.822531)
(-0.296879 -0.316085 0.901084)
(-0.59147 -0.278706 0.756628)
(-0.459104 -0.177561 0.870457)
(0.589565 -0.559484 -0.582572)
(-0.538258 -0.277559 0.795763)
(0.710415 -0.700323 -0.0696924)
(-0.601125 0.510057 0.615216)
(-0.559216 0.678492 0.476368)
(-0.480945 0.783907 0.39266)
(-0.683525 -0.100372 0.722994)
(0.652149 -0.581439 -0.486447)
(-0.270105 0.890818 -0.365359)
(-0.695196 0.180972 0.695666)
(0.831803 -0.552662 -0.0516631)
(0.83034 -0.554877 -0.0514419)
(0.0149476 -0.0294316 0.999455)
(-0.0178311 -0.0417634 0.998968)
(-0.146317 -0.00787886 0.989206)
(0.0512849 -0.0338862 0.998109)
(0.0176552 -0.0209044 0.999626)
(-0.147507 -0.0210387 0.988837)
(0.0482802 -0.0479976 0.99768)
(0.0193979 -0.0122544 0.999737)
(-0.0127568 -0.0135387 0.999827)
(-0.145244 -0.014611 0.989288)
(0.0527259 -0.02471 0.998303)
(0.0186958 -0.0166434 0.999687)
(-0.145848 -0.00354683 0.989301)
(0.0536726 -0.0174498 0.998406)
(0.937197 -0.335141 -0.0966581)
(0.162494 0.985427 0.0502849)
(0.714967 -0.694324 -0.0820798)
(0.14181 0.988866 0.0451095)
(0.728432 -0.680445 -0.0798855)
(0.924009 -0.369024 -0.100148)
(0.160934 0.986041 0.0426999)
(0.813275 -0.57072 -0.113414)
(0.111428 0.991983 0.0596034)
(-0.570602 0.816983 0.0833811)
(0.100224 0.993874 0.0465733)
(-0.621583 0.778132 0.0902501)
(0.881667 -0.459432 -0.107634)
(0.0323821 0.99806 0.0531831)
(-0.390927 0.919375 0.0438886)
(-0.337861 0.939827 0.0507489)
(0.82598 0.554211 0.102994)
(0.930719 0.363321 0.0419598)
(0.601423 0.797158 0.0531816)
(0.537755 0.839091 0.082138)
(0.652055 0.756395 0.0518746)
(0.517399 0.851956 0.0804394)
(0.828492 0.550376 0.103378)
(0.838577 0.534883 0.10339)
(0.889493 0.454592 0.0463445)
(0.487636 0.871349 0.0544318)
(0.524023 0.847687 0.0826267)
(0.284736 0.957062 0.0543785)
(0.523753 0.847932 0.0818184)
(0.816389 0.56813 0.103625)
(0.820551 -0.569361 -0.0502373)
(0.822524 -0.566492 -0.050417)
(0.944907 -0.314503 -0.0907643)
(0.127812 0.990656 0.0475981)
(0.792067 -0.605728 -0.075649)
(0.0554227 0.997464 0.044647)
(0.790155 -0.608234 -0.0755428)
(0.944042 -0.317037 -0.0909468)
(0.0521888 0.99763 0.0448408)
(0.944093 -0.316807 -0.091224)
(0.12915 0.990484 0.0475611)
(0.797467 -0.598586 -0.0757724)
(0.0463735 0.997906 0.0450943)
(0.800227 -0.594875 -0.0758963)
(0.944991 -0.31418 -0.0910168)
(0.0510832 0.997688 0.0448304)
(-0.41502 0.90894 0.039835)
(-0.417929 0.907602 0.039928)
(0.746746 0.657804 0.0983116)
(0.95945 0.280017 0.0323492)
(0.735471 0.676229 0.0423734)
(0.448682 0.890674 0.0733832)
(0.740216 0.671035 0.0423242)
(0.450126 0.889958 0.0732275)
(0.739215 0.666228 0.0985016)
(0.722456 0.684289 0.0990205)
(0.960067 0.277931 0.0320368)
(0.748781 0.661515 0.0415271)
(0.446657 0.891675 0.0735707)
(0.74607 0.664573 0.0414901)
(0.444473 0.892753 0.0737334)
(0.730277 0.675973 0.0987763)
(0.94529 -0.312353 -0.0941434)
(0.137413 0.989394 0.0470923)
(0.85788 -0.507935 -0.0777431)
(0.0341037 0.998405 0.044999)
(0.861448 -0.501844 -0.0778483)
(0.946064 -0.310081 -0.0938744)
(0.0407089 0.99818 0.0444877)
(0.945705 -0.311298 -0.093466)
(0.134247 0.989815 0.047372)
(0.852834 -0.516377 -0.0776432)
(0.0399641 0.998197 0.0447781)
(0.850963 -0.519474 -0.077516)
(0.94512 -0.312992 -0.0937239)
(0.0344691 0.998383 0.0451941)
(-0.428466 0.90264 0.0407238)
(-0.426358 0.903641 0.0406535)
(0.560404 0.822013 0.101207)
(0.96275 0.26872 0.0300494)
(0.846269 0.531886 0.0304322)
(0.421682 0.903455 0.0771564)
(0.842918 0.537193 0.0302034)
(0.419158 0.90462 0.077267)
(0.577857 0.80979 0.10159)
(0.599885 0.793604 0.101638)
(0.962534 0.269432 0.0305728)
(0.830213 0.556515 0.0322128)
(0.423297 0.902716 0.0769562)
(0.834956 0.549369 0.0322867)
(0.423993 0.902408 0.0767483)
(0.584929 0.804719 0.101419)
(0.105734 0.0892273 0.990383)
(0.0651646 -0.0989343 0.992958)
(0.0472429 -0.108506 0.992973)
(0.0672391 0.0682084 0.995403)
(-0.0281128 -0.201671 0.97905)
(0.153763 0.167525 0.973803)
(0.100634 0.0838436 0.991384)
(0.0199147 -0.0964632 0.995137)
(0.00723946 -0.219993 0.975475)
(0.0650598 0.13256 0.989037)
(0.139242 0.167874 0.975925)
(0.0613316 -0.194871 0.978909)
(-0.661618 -0.329494 0.673569)
(0.0146858 0.284466 0.958574)
(-0.0957413 -0.413054 0.90566)
(0.188925 0.330957 0.924541)
(0.211108 0.270802 0.939202)
(-0.207587 -0.345514 0.915165)
(-0.654849 -0.358154 0.665506)
(0.243553 0.35361 0.903129)
(0.174188 0.260728 0.949568)
(0.0452952 -0.316968 0.947354)
(-0.129837 -0.361575 0.923258)
(0.0508235 0.215079 0.975273)
(0.018036 0.000174646 0.999837)
(-0.0161279 -0.00178852 0.999868)
(-0.146339 -0.00466636 0.989224)
(0.0479594 -0.00057682 0.998849)
(-0.0114419 -0.00225576 0.999932)
(-0.0659663 -0.00200473 0.99782)
(-0.054545 -0.000775687 0.998511)
(-0.0214525 -0.00280001 0.999766)
(-0.0627167 -0.00130931 0.998031)
(-0.0528352 -0.00100821 0.998603)
(-0.0624528 -0.000806641 0.998048)
(0.813696 -0.579048 -0.0510078)
(-0.291688 -0.26381 0.919414)
(-0.316533 -0.397296 0.861373)
(-0.373286 -0.52879 0.762259)
(-0.209034 -0.292271 0.933211)
(-0.367058 -0.41265 0.83366)
(-0.167965 -0.248837 0.95387)
(-0.275001 -0.369334 0.887675)
(-0.26473 -0.157703 0.95134)
(-0.345533 -0.408568 0.844795)
(-0.256435 -0.126636 0.95823)
(-0.245169 -0.233002 0.941064)
(-0.27536 -0.403935 0.872361)
(-0.26754 -0.321866 0.908199)
(-0.447734 -0.508779 0.735308)
(-0.466633 -0.401757 0.787937)
(-0.431901 -0.200518 0.879349)
(-0.414214 -0.416035 0.809531)
(-0.0569542 0.997481 0.0422913)
(-0.389357 0.564728 0.727656)
(0.795202 -0.406437 -0.449958)
(0.226504 0.478183 0.84855)
(0.69074 -0.220358 -0.68871)
(0.179683 0.418151 0.890429)
(0.606979 0.746689 -0.27209)
(0.806415 -0.339069 -0.484486)
(-0.138114 0.711591 -0.688885)
(0.83588 -0.0333038 -0.547901)
(0.616477 -0.405794 0.67475)
(0.739672 -0.0307403 -0.672265)
(0.876688 0.109856 -0.468347)
(0.322629 0.480125 0.815715)
(0.837497 -0.135888 -0.529276)
(0.833777 -0.549655 -0.0519132)
(0.828265 -0.557999 -0.0511229)
(0.0650525 -5.47514e-05 0.997882)
(0.06136 -0.00243954 0.998113)
(0.032767 0.00562683 0.999447)
(0.0338743 -0.00205236 0.999424)
(0.0327426 -0.00463298 0.999453)
(0.0645156 0.000941915 0.997916)
(0.0620371 -0.000802127 0.998074)
(0.0656972 0.00194072 0.997838)
(0.0612752 0.00333073 0.998115)
(-0.0610273 -0.00247856 0.998133)
(-0.0880108 -0.00262464 0.996116)
(-0.0351778 0.00186757 0.999379)
(-0.228293 -0.000849199 0.973592)
(-0.229118 -0.000825828 0.973398)
(-0.0339345 -0.00220531 0.999422)
(-0.0351675 -0.00220673 0.999379)
(-0.0611716 0.00252961 0.998124)
(-0.0883389 -0.00141282 0.996089)
(-0.0604665 -0.00162718 0.998169)
(-0.087869 0.00239446 0.996129)
(-0.127246 -0.248719 0.960181)
(-0.265378 -0.36493 0.892413)
(-0.160329 -0.48221 0.86126)
(-0.188257 -0.259299 0.947272)
(-0.210367 -0.319455 0.923956)
(-0.0189729 -0.102975 0.994503)
(-0.0637519 -0.149752 0.986666)
(-0.159003 -0.0424745 0.986364)
(0.0160267 -0.129569 0.991441)
(-0.163805 -0.0619904 0.984543)
(-0.00473445 -0.0774851 0.996982)
(-0.00879001 -0.175531 0.984435)
(-0.0904324 -0.21101 0.973292)