/*--------------------------------*- C++ -*----------------------------------*\
| =========                 |                                                 |
| \\      /  F ield         | OpenFOAM: The Open Source CFD Toolbox           |
|  \\    /   O peration     | Version:  2012                                  |
|   \\  /    A nd           | Website:  www.openfoam.com                      |
|    \\/     M anipulation  |                                                 |
\*---------------------------------------------------------------------------*/
FoamFile
{
    version     2.0;
    format      ascii;
    class       volVectorField;
    location    "0.106/solid";
    object      sigmaMidDir;
}
// * * * * * * * * * * * * * * * * * * * * * * * * * * * * * * * * * * * * * //

dimensions      [1 -1 -2 0 0 0 0];


internalField   nonuniform List<vector> 
3125
(
(0.997855 -0.0638216 0.0145458)
(0.578903 0.814863 0.0294852)
(0.890453 -0.454702 0.0184352)
(0.823436 0.455972 -0.337703)
(0.550896 0.833981 0.0314575)
(0.561892 0.826644 0.0306044)
(0.990993 0.00562036 0.133796)
(0.915829 -0.40126 0.0157419)
(0.997295 0.0721038 0.0142727)
(0.901717 -0.41398 0.124603)
(0.99106 -0.000400727 0.133415)
(0.989668 -0.137657 -0.0401074)
(0.850075 -0.508802 0.135991)
(0.663202 0.740477 -0.108885)
(-0.170103 0.983203 0.0661636)
(0.864202 0.424545 -0.270032)
(0.913419 0.404877 0.0417146)
(0.611818 0.785569 -0.0925249)
(-0.300346 0.952475 0.0508324)
(0.99356 -0.0374577 -0.106932)
(0.984659 0.126727 0.119949)
(0.821001 0.570592 -0.0195513)
(0.577873 0.815597 0.0293979)
(0.56287 0.825982 0.0305254)
(0.990235 -0.133548 -0.0399883)
(-0.164891 0.985035 0.0501682)
(-0.1652 0.984405 0.0604656)
(0.990665 -0.129618 -0.0422145)
(0.912956 0.405939 0.0415316)
(0.90638 0.420311 0.0425973)
(-0.295366 0.954025 0.0509413)
(0.987445 0.0679483 0.142603)
(0.985994 0.116264 0.119576)
(-0.27546 0.959805 0.0538183)
(0.989202 -0.139018 -0.0463953)
(-0.167201 0.984637 0.0503355)
(0.99074 -0.128977 -0.0424154)
(-0.190057 0.980351 0.0528203)
(0.901848 0.429851 0.0435572)
(0.906207 0.420676 0.0426704)
(-0.266756 0.962092 0.0567395)
(0.987063 0.062556 0.147627)
(-0.273958 0.96022 0.0540854)
(0.982539 0.00935448 0.185822)
(0.549937 0.834612 0.031482)
(0.98928 -0.138377 -0.0466639)
(0.901715 0.430136 0.0435049)
(-0.265308 0.962484 0.0568918)
(0.970939 -0.239326 -0.00099798)
(0.999346 0.0356412 -0.00606408)
(0.926438 -0.376061 0.0170502)
(0.935239 0.139558 0.325347)
(-0.631561 0.636002 -0.443432)
(0.617983 0.785639 0.0294649)
(-0.504006 0.857697 -0.101653)
(0.565471 0.823964 0.0364018)
(-0.192872 0.939985 -0.281477)
(0.55548 0.830945 0.0311923)
(0.556269 0.830418 0.0311448)
(0.999897 0.0140092 -0.00295672)
(0.999655 0.0120458 0.0233225)
(0.999428 -0.0307422 0.0141256)
(0.993471 -0.113614 0.0103326)
(0.999703 0.0241043 -0.00351042)
(0.998914 0.0462389 -0.00575134)
(0.932164 -0.361565 0.0184513)
(0.979458 -0.152423 0.13202)
(0.999705 -0.0127005 0.020699)
(0.999556 0.0192667 0.0227395)
(0.987939 -0.0796971 0.132758)
(0.999703 0.012608 0.0208694)
(0.966602 0.192064 -0.169684)
(0.985254 -0.165272 -0.0442745)
(0.977509 -0.10725 -0.181588)
(0.847411 -0.530191 0.0281249)
(-0.620296 0.774116 -0.1264)
(-0.430082 0.709786 -0.557883)
(0.887892 0.124856 0.442786)
(-0.217234 0.96732 0.130774)
(0.992442 -0.00788806 -0.12246)
(0.959208 -0.144317 -0.243092)
(-0.315628 0.741449 -0.592142)
(-0.419878 0.900893 0.109974)
(-0.211922 0.971464 0.106526)
(0.924895 -0.30056 -0.232878)
(0.990759 -0.127664 -0.0458076)
(-0.132632 -0.651444 0.747014)
(0.992966 0.058541 -0.102918)
(0.980245 -0.0645213 -0.186969)
(-0.129415 0.729173 -0.671982)
(0.930921 0.362551 0.0440688)
(0.923582 0.380539 0.0467601)
(-0.173287 0.984186 0.0367289)
(-0.394973 0.917317 0.0502553)
(-0.358786 0.932939 0.0299584)
(0.990026 0.0833906 0.113555)
(0.91548 -0.400277 0.040936)
(-0.481483 0.876455 0.000657299)
(-0.177743 0.98368 0.0279611)
(0.984316 0.127629 0.121788)
(-0.325493 0.945379 0.0177023)
(-0.428511 0.902191 0.0493012)
(0.991079 -0.124365 0.0479141)
(-0.568525 0.822483 0.0173549)
(0.570506 0.820754 0.0297519)
(0.56924 0.82163 0.0298453)
(0.918373 0.362603 -0.158464)
(0.991047 -0.127188 -0.0406115)
(0.819121 0.556118 -0.140621)
(-0.160503 0.985715 0.0510447)
(-0.0729149 0.9971 0.0217826)
(-0.0740198 0.996984 0.0233113)
(-0.249716 0.965936 0.0678862)
(-0.16018 0.98571 0.052134)
(-0.0867857 0.995865 0.026838)
(0.991203 -0.125921 -0.04074)
(0.767032 0.626913 -0.136539)
(0.802985 0.57962 -0.138767)
(0.90907 0.414546 0.0417467)
(0.90887 0.41498 0.0418061)
(-0.148637 0.98817 0.0377642)
(-0.281089 0.958268 0.0520651)
(-0.103216 0.993837 0.0404292)
(0.988032 0.0845719 0.129001)
(-0.0893909 0.995494 0.0316226)
(-0.107998 0.993625 0.0323448)
(-0.155828 0.987361 0.0289097)
(0.987931 0.0910053 0.125339)
(-0.11664 0.992668 0.03172)
(-0.279178 0.958813 0.0523168)
(-0.0690249 0.996728 0.0420661)
(-0.0927722 0.994838 0.0411226)
(0.990024 -0.133712 -0.0444137)
(0.531771 0.840353 -0.105009)
(0.676265 0.725373 -0.128448)
(-0.0786672 0.996641 0.0227475)
(-0.175908 0.983065 0.0513862)
(-0.104469 0.994143 0.0276831)
(0.990008 -0.13392 -0.0441643)
(0.754857 0.641638 -0.135985)
(0.703444 0.698423 -0.131803)
(-0.142583 0.989164 0.0350064)
(-0.179229 0.982444 0.0517686)
(-0.113493 0.993104 0.029386)
(0.90384 0.425673 0.0433181)
(0.903936 0.42547 0.0433031)
(-0.269638 0.961349 0.0557053)
(-0.0385925 0.998841 0.0287662)
(-0.0437169 0.998339 0.037527)
(-0.0853546 0.995897 0.0300666)
(0.985557 0.0442741 0.163452)
(-0.0823348 0.996428 0.0187828)
(-0.270868 0.961016 0.055488)
(-0.0626235 0.997157 0.0419004)
(-0.0472752 0.998109 0.0392951)
(-0.113739 0.993289 -0.0209839)
(0.984942 0.0368459 0.168911)
(-0.0852534 0.996288 0.0119366)
(0.981452 0.190282 -0.0233439)
(0.970772 0.237817 -0.0323283)
(0.991216 0.132235 0.00227579)
(0.917908 0.395629 0.03036)
(0.997263 0.0261662 0.0691466)
(-0.0656848 0.997838 -0.00239593)
(0.584458 0.810877 0.0297825)
(0.855442 -0.517209 -0.0267165)
(0.803428 -0.5933 0.0499952)
(0.729117 -0.674512 0.115855)
(0.835821 0.544248 -0.0720976)
(0.509443 0.843764 -0.168909)
(-0.29824 0.917374 -0.263586)
(0.552589 0.832864 0.0313679)
(0.559504 0.828253 0.0308646)
(0.996747 0.0736217 -0.0327829)
(0.997956 0.0337356 0.0542735)
(0.870421 -0.488652 -0.0598875)
(0.969028 -0.246306 0.017848)
(0.8095 -0.569605 -0.142337)
(0.112756 0.993553 0.0117357)
(0.997633 -0.0677221 0.0118803)
(-0.0560283 0.998354 0.0122461)
(0.994782 0.0964646 -0.0332227)
(0.984957 0.169507 -0.0335774)
(0.92716 -0.370454 0.0560218)
(0.933797 -0.334534 0.12693)
(0.961815 -0.268439 0.0534081)
(0.998274 0.023423 0.0538642)
(0.991034 -0.00976443 0.133251)
(0.99852 0.0101381 0.0534373)
(0.194988 0.98053 0.023233)
(0.98805 -0.148653 -0.0407438)
(0.761237 -0.642628 -0.0868805)
(0.841571 -0.536676 0.0611391)
(0.795938 -0.586871 0.148545)
(0.743092 -0.664456 0.0794504)
(-0.0176143 0.974817 0.222308)
(0.740254 0.668571 0.0709763)
(0.903333 0.412 -0.119356)
(0.696441 0.715533 -0.0546111)
(0.861899 -0.21332 -0.460027)
(-0.192306 0.979184 0.0649331)
(-0.178629 0.981079 0.0746699)
(-0.219721 0.972309 0.0796122)
(0.790005 0.610715 -0.0540365)
(-0.0222139 0.914021 -0.405059)
(0.979498 0.166232 -0.113803)
(0.777216 0.626843 -0.0547924)
(0.793348 0.320384 -0.517642)
(0.91665 0.397421 0.0425278)
(0.979258 0.199544 0.0351608)
(0.952521 -0.303607 -0.0229336)
(-0.317482 0.946892 0.0509892)
(0.836292 -0.547328 -0.032363)
(0.999664 0.0207058 -0.0156075)
(0.955175 -0.174467 -0.239168)
(0.991102 0.090398 -0.0977031)
(0.975291 0.108339 0.192537)
(0.983263 0.136005 0.121226)
(0.972104 0.123879 0.19917)
(0.311326 0.945847 0.0919176)
(0.990748 0.133109 -0.0264834)
(0.973405 0.229021 -0.00568651)
(0.574624 0.817887 0.0294668)
(0.565384 0.824273 0.0302337)
(-0.480704 0.873625 0.0755129)
(0.990787 -0.129354 -0.0401095)
(0.230711 0.972837 0.018996)
(-0.162949 0.985358 0.0501638)
(-0.154668 0.987121 0.0408524)
(-0.15335 0.987323 0.0409501)
(-0.175924 0.982815 0.0558993)
(-0.162176 0.985141 0.0565368)
(-0.165474 0.984943 0.0500595)
(0.991002 -0.127244 -0.0415272)
(0.198325 0.97996 0.0185797)
(-0.087516 0.994878 0.0505753)
(0.910822 0.410707 0.0414967)
(0.907454 0.418024 0.0422349)
(0.859233 -0.510558 -0.0324048)
(-0.287273 0.956473 0.0513104)
(0.965658 -0.258699 -0.0240895)
(0.987754 0.0732367 0.137765)
(0.977997 0.0377696 0.205172)
(0.978758 0.0441845 0.200204)
(0.977635 0.0942207 0.18802)
(0.986967 0.106739 0.120425)
(0.979067 0.0826088 0.186021)
(-0.276189 0.95963 0.0531915)
(0.976428 -0.213407 -0.0323333)
(0.897745 -0.438894 -0.0377743)
(0.989602 -0.136444 -0.0455115)
(0.0990592 0.994863 0.0208446)
(-0.0910725 0.994608 0.0496058)
(-0.156556 0.98682 0.040957)
(-0.169847 0.984169 0.0506362)
(-0.158974 0.986421 0.0412432)
(0.990365 -0.131581 -0.0431591)
(-0.0791263 0.995616 0.0498859)
(0.175421 0.984305 0.0192864)
(-0.179226 0.982823 0.0440131)
(-0.186333 0.981081 0.0525349)
(-0.175415 0.983532 0.0435305)
(0.902746 0.427972 0.0434706)
(0.90507 0.423083 0.0430018)
(-0.267318 0.961959 0.0563558)
(0.976274 -0.210166 -0.052145)
(0.908776 -0.413918 -0.0528988)
(0.977143 0.0310276 0.210308)
(0.986615 0.0569695 0.152794)
(0.976197 0.0239323 0.215562)
(-0.272998 0.960458 0.0547018)
(0.902312 -0.429151 -0.040758)
(0.977119 -0.209573 -0.0362976)
(0.96816 -0.0375911 0.247494)
(0.98345 0.0196913 0.180104)
(0.969922 -0.0243775 0.242194)
(-0.103918 0.993332 0.0499265)
(0.908268 -0.414321 -0.058199)
(0.961479 0.272602 -0.0352865)
(0.963633 0.264949 -0.0348341)
(0.998397 -0.0529027 -0.0201249)
(0.993537 -0.11342 -0.00437147)
(0.998934 0.0362751 -0.0285573)
(0.992599 0.11698 -0.0326013)
(0.99988 -0.0144126 -0.00560873)
(0.994924 0.0955282 -0.0316246)
(0.987117 -0.159966 0.00321528)
(0.878438 -0.470653 0.0826563)
(0.960652 -0.270584 0.0627058)
(0.910452 0.3908 0.13547)
(0.90628 -0.296518 0.301221)
(0.97275 -0.109566 0.204336)
(0.723177 -0.620038 0.304251)
(0.799691 -0.50969 0.31735)
(0.880564 -0.427658 0.204245)
(0.582319 0.812388 0.0304933)
(0.734496 -0.676538 0.0530188)
(-0.453534 0.872174 -0.183356)
(-0.672782 0.7272 -0.136177)
(0.747644 0.662741 -0.0424724)
(0.413204 0.81876 -0.398616)
(-0.380978 0.901632 -0.204731)
(-0.186916 0.980878 -0.0542326)
(0.553175 0.832475 0.0313455)
(0.558446 0.828963 0.0309502)
(0.999338 0.021053 -0.0296546)
(0.998319 0.015389 0.0558816)
(0.970112 -0.242431 0.0105199)
(-0.244639 0.965754 0.0864315)
(0.718925 -0.679275 -0.147417)
(0.998534 0.052701 0.0123696)
(-0.225869 0.972472 0.0572876)
(-0.00477835 0.999769 0.0209499)
(0.964286 0.262559 -0.0348583)
(0.975097 0.219138 -0.034126)
(0.998989 0.0333705 -0.0301256)
(0.999435 0.0333351 -0.00428107)
(0.997985 0.0555278 -0.0307089)
(0.993762 0.106727 -0.0323353)
(0.999171 0.0404022 -0.00507926)
(0.996264 0.0803972 -0.0315223)
(0.91216 -0.407347 0.0450794)
(0.978968 -0.202987 0.0204463)
(0.967223 -0.248672 0.0513949)
(0.96167 -0.241508 0.129867)
(0.990854 -0.12437 0.0523538)
(0.980791 -0.187926 0.0522766)
(0.99669 -0.0786066 0.0207343)
(0.996729 -0.0605414 0.0535419)
(0.989966 -0.130965 0.053064)
(0.998343 0.0153217 0.0554726)
(0.999518 0.0220499 0.0218467)
(0.9984 0.0125598 0.0551361)
(0.990437 -0.0364931 0.133053)
(0.996425 -0.0659305 0.0528204)
(0.998349 -0.0218884 0.0531058)
(0.999579 0.0198075 0.021187)
(0.998363 -0.0191088 0.0539078)
(0.998505 0.00304624 0.0545814)
(0.990877 -0.0461501 -0.12662)
(0.984234 0.0147009 -0.176261)
(0.983972 -0.123676 -0.128463)
(0.987147 -0.154379 -0.0413225)
(0.984543 -0.151795 -0.0873644)
(0.086488 0.995684 0.0336498)
(0.981158 -0.0737954 -0.178559)
(0.987186 -0.0864071 -0.134155)
(0.979562 -0.153164 -0.130381)
(0.797792 -0.601595 0.04014)
(0.777745 -0.621283 0.0954969)
(0.705548 -0.704211 0.0792971)
(-0.592818 0.739558 -0.318779)
(-0.40645 0.844044 -0.34984)
(-0.47641 0.84622 -0.238633)
(-0.536786 0.741229 -0.40304)
(-0.262591 0.750857 -0.60602)
(-0.423609 0.818828 -0.387397)
(0.998386 -0.054571 0.0157538)
(0.751541 -0.557389 0.352851)
(0.840111 -0.47958 0.25341)
(-0.353753 0.93337 0.0606572)
(-0.562938 0.779504 0.274725)
(-0.491258 0.858402 0.147687)
(0.987879 0.00843126 -0.154998)
(0.977854 0.0189441 -0.208428)
(0.932512 0.179735 -0.313237)
(0.957486 0.106697 -0.268024)
(0.927541 0.118795 -0.354339)
(0.896231 -0.316169 -0.311139)
(0.739948 -0.649764 -0.174023)
(-0.637695 0.750194 0.174798)
(-0.552745 0.693419 -0.462215)
(-0.646449 0.661389 -0.380353)
(0.784441 -0.552876 0.281035)
(-0.231743 0.970281 0.069634)
(-0.677384 0.715025 0.172885)
(-0.312704 0.944746 0.0983442)
(-0.189072 0.978122 0.0867749)
(-0.35216 0.923616 0.151382)
(-0.264004 0.958817 0.104748)
(0.870539 -0.440133 -0.220102)
(0.713889 -0.656718 -0.243071)
(-0.475279 0.86558 0.157738)
(0.996697 -0.00161214 -0.0811881)
(0.996355 0.00837899 -0.0848889)
(0.893085 0.438557 -0.100337)
(0.864933 -0.444646 -0.232769)
(-0.143892 -0.646429 0.749283)
(0.173955 -0.668518 0.723066)
(0.982864 0.164544 -0.0830858)
(0.9839 0.0891042 -0.154925)
(0.917649 0.231072 -0.323305)
(0.990981 -0.0128471 -0.133386)
(0.855039 0.337971 -0.393299)
(0.988922 -0.048595 -0.140254)
(0.729677 -0.666523 -0.152704)
(0.952736 0.261619 -0.154431)
(-0.0100085 -0.696789 0.717206)
(-0.502004 0.72175 -0.476518)
(-0.351959 0.743558 -0.568548)
(0.916675 0.397279 0.0433076)
(0.653612 0.755467 0.0453878)
(-0.201881 0.978643 0.0387524)
(-0.20864 0.977337 0.0358132)
(-0.238428 0.970444 0.0372943)
(-0.327996 0.943297 0.051082)
(0.890699 -0.453649 -0.0292838)
(0.935427 -0.352744 -0.0233986)
(-0.268798 0.962622 0.0332633)
(-0.399334 0.916323 0.0297292)
(-0.290496 0.956252 0.0345438)
(0.996231 0.0332183 0.0801295)
(0.971396 0.139314 0.192306)
(0.985593 0.127441 0.111202)
(0.709305 -0.699719 -0.0853259)
(0.824981 -0.55894 -0.0836224)
(0.850952 -0.296746 -0.433386)
(-0.521367 0.814174 -0.255535)
(-0.379891 0.924908 0.0151157)
(0.516178 -0.392292 0.761359)
(-0.398631 0.845311 -0.355728)
(-0.208209 0.977705 0.0272251)
(-0.277653 0.953906 -0.113892)
(0.982427 0.140541 0.122826)
(0.967834 0.1411 0.208298)
(0.968502 0.139286 0.206406)
(-0.25959 0.965417 0.0241245)
(-0.375098 0.914312 -0.152755)
(-0.300933 0.949294 -0.0909945)
(0.119083 0.990452 0.0694484)
(0.974299 -0.224067 -0.023123)
(0.995807 -0.0852274 -0.0332404)
(0.99975 0.00302122 0.0221584)
(0.972664 -0.231751 -0.0147382)
(0.999636 -0.0164751 0.0213529)
(-0.667821 0.744212 0.0127969)
(-0.495916 0.867416 0.0406949)
(0.773726 -0.633031 -0.0248892)
(0.573397 0.818746 0.0295187)
(0.566359 0.823607 0.0301442)
(0.990271 0.0638212 -0.123656)
(0.872696 0.464859 -0.149356)
(0.98117 0.150801 -0.120682)
(0.991091 -0.126988 -0.0401509)
(0.232411 0.972455 0.0177982)
(-0.240173 0.96879 0.061343)
(0.840528 0.522355 -0.143731)
(0.96029 0.253244 -0.117088)
(0.969816 0.213177 -0.118376)
(-0.161459 0.98559 0.0504252)
(-0.153399 0.987259 0.0422868)
(-0.152838 0.987385 0.0413791)
(-0.13297 0.990586 0.0325217)
(-0.0689709 0.997393 0.0212414)
(-0.131462 0.990789 0.0324827)
(-0.133401 0.99048 0.033962)
(-0.0685611 0.997414 0.0215578)
(-0.131401 0.990784 0.0328896)
(-0.188183 0.980643 0.054093)
(-0.16076 0.985933 0.0457392)
(-0.162511 0.985683 0.0449434)
(-0.160668 0.985537 0.0538851)
(-0.15528 0.986899 0.0438089)
(-0.159067 0.986183 0.0462632)
(-0.112824 0.993047 0.0336038)
(-0.138233 0.989747 0.0359656)
(-0.147261 0.988313 0.0393816)
(0.990917 -0.127959 -0.0413533)
(-0.125407 0.990668 0.0533842)
(0.218241 0.975729 0.0179808)
(0.940976 0.317197 -0.118113)
(0.778239 0.612841 -0.137005)
(0.943672 0.309428 -0.117206)
(0.952855 0.280149 -0.116555)
(0.789917 0.597557 -0.137683)
(0.947551 0.297553 -0.116662)
(0.910508 0.411403 0.0414993)
(0.907584 0.417748 0.0421618)
(-0.177892 0.983237 0.0399918)
(-0.130211 0.990732 0.0386803)
(-0.158346 0.986528 0.0411022)
(-0.284309 0.957347 0.0515264)
(0.972048 -0.233315 -0.0261921)
(0.879261 -0.475164 -0.0334579)
(-0.115377 0.992531 0.0396184)
(-0.13004 0.990572 0.0430871)
(-0.142727 0.988864 0.0421555)
(0.987963 0.0786779 0.133191)
(0.979817 0.0574009 0.191477)
(0.979385 0.0506004 0.195564)
(0.85487 0.0204693 0.518438)
(-0.0944176 0.995005 0.0324158)
(0.838913 0.0255723 0.543664)
(0.791625 0.0260725 0.610451)
(-0.100533 0.994399 0.0326083)
(0.818332 0.0276786 0.57408)
(0.611448 -0.187407 0.768772)
(-0.139831 0.989727 0.0298087)
(0.663904 -0.0436354 0.746544)
(0.9876 0.0982998 0.122406)
(0.979994 0.0646472 0.188236)
(0.979796 0.0728759 0.186247)
(-0.127044 0.991417 0.0308454)
(0.757257 0.0182151 0.652863)
(0.71415 -0.000252025 0.699992)
(-0.277567 0.959247 0.0529317)
(0.89106 -0.452511 -0.0353028)
(0.974851 -0.220964 -0.029001)
(-0.095983 0.994326 0.0458486)
(-0.0759661 0.996227 0.0419627)
(-0.102793 0.99367 0.0453198)
(-0.119446 0.991868 0.0439333)
(-0.0837805 0.995614 0.0416359)
(-0.110459 0.992876 0.0446732)
(0.98957 -0.136763 -0.0452446)
(-0.0818919 0.995413 0.0494738)
(0.12525 0.991915 0.0204436)
(0.924226 0.358902 -0.130368)
(0.593358 0.796573 -0.115747)
(0.927834 0.350081 -0.128718)
(0.932143 0.339747 -0.125224)
(0.640775 0.75775 -0.123375)
(0.930368 0.343935 -0.126984)
(-0.135461 0.990238 0.0328444)
(-0.0863537 0.995971 0.0241804)
(-0.138843 0.98975 0.0334199)
(-0.172757 0.983644 0.0509854)
(-0.164897 0.985413 0.0420854)
(-0.161744 0.985955 0.0416086)
(-0.0946619 0.995177 0.0257427)
(-0.147162 0.988495 0.0349361)
(-0.142755 0.98917 0.0341195)
(0.990438 -0.130962 -0.0433726)
(0.151268 0.988293 0.0198919)
(-0.0788799 0.995646 0.0496678)
(0.938875 0.322942 -0.119258)
(0.740933 0.657836 -0.135168)
(0.937195 0.327297 -0.120589)
(0.933942 0.335377 -0.123591)
(0.724145 0.676533 -0.133853)
(0.935511 0.331555 -0.122025)
(-0.166775 0.985247 0.038398)
(-0.132752 0.990597 0.0330909)
(-0.161679 0.98613 0.0375292)
(-0.1827 0.981785 0.0521393)
(-0.1682 0.984835 0.0425422)
(-0.171708 0.984208 0.0430236)
(-0.123002 0.991916 0.0312065)
(-0.15178 0.987767 0.0357719)
(-0.156656 0.986973 0.0366477)
(0.902791 0.427877 0.0434814)
(0.904926 0.423384 0.0430638)
(-0.268578 0.96162 0.0561585)
(0.908011 -0.416158 -0.0482643)
(0.976973 -0.208308 -0.0461629)
(-0.0540799 0.997578 0.0437412)
(-0.0390448 0.998715 0.0322962)
(-0.0576682 0.997327 0.0448595)
(-0.0666958 0.996701 0.0462546)
(-0.0407117 0.998551 0.0351987)
(-0.0617667 0.997045 0.0456754)
(0.86737 0.012737 0.497501)
(-0.0826897 0.996194 0.0275711)
(0.877196 0.00287262 0.480123)
(0.986117 0.0508535 0.158072)
(0.974051 0.00766955 0.2262)
(0.975173 0.0161078 0.22086)
(-0.0814544 0.996391 0.0238739)
(0.890979 -0.0237493 0.453422)
(0.884944 -0.00940536 0.465602)
(-0.271583 0.960845 0.0549529)
(0.977392 -0.207445 -0.0408748)
(0.905397 -0.422253 -0.0442685)
(-0.089452 0.994916 0.0462724)
(-0.0569186 0.997519 0.0414278)
(-0.0834086 0.995428 0.0465459)
(-0.0717957 0.996332 0.0465695)
(-0.0516889 0.997838 0.0405782)
(-0.0773768 0.995909 0.0466675)
(0.901406 -0.107642 0.419382)
(-0.100479 0.994908 -0.00781838)
(0.900763 -0.0825083 0.426402)
(0.984248 0.0286379 0.17446)
(0.972829 -0.00193429 0.231516)
(0.971463 -0.0125993 0.236854)
(-0.0911128 0.995836 0.00310419)
(0.895569 -0.040729 0.443054)
(0.898807 -0.0603256 0.434173)
(0.999823 0.00519145 -0.0180937)
(0.989042 -0.026531 0.145234)
(0.997421 0.0700443 0.0156263)
(-0.00336533 0.999992 0.00204663)
(0.988797 0.0304707 0.146122)
(0.999685 -0.0169057 -0.0185417)
(-0.00921164 0.999955 0.00227931)
(0.580351 0.813831 0.0295308)
(0.856274 -0.516514 0.00269138)
(0.88361 -0.467092 -0.0325355)
(0.871234 -0.472078 0.134511)
(0.868245 -0.495565 0.0237911)
(0.864465 -0.502339 -0.0188698)
(0.85513 -0.502878 0.125961)
(0.864172 -0.503033 -0.0128077)
(-0.622194 0.143063 0.76968)
(0.861554 0.281266 -0.422628)
(0.58158 0.655534 -0.481705)
(0.651036 0.617794 -0.441001)
(0.767729 -0.0747173 -0.636404)
(0.732388 0.377984 -0.566335)
(0.426808 0.744682 -0.513113)
(0.551032 0.833892 0.0314481)
(0.560937 0.827288 0.030713)
(0.87716 -0.479168 -0.0314503)
(0.90144 -0.43055 -0.0450748)
(0.887209 -0.444774 0.122627)
(0.932687 -0.360277 0.0171982)
(0.879348 -0.475622 -0.0230362)
(0.900933 -0.414236 0.129336)
(0.904703 -0.42196 -0.0588444)
(0.994505 0.103011 -0.0186409)
(0.989091 0.0241865 0.145303)
(0.117628 0.993048 -0.00442437)
(0.998144 -0.0593164 0.0137867)
(0.998322 0.0548339 -0.0185911)
(0.988823 -0.0315486 0.145717)
(0.118944 0.992894 -0.00382325)
(0.314798 0.94901 0.0167968)
(0.644764 0.764358 -0.00599504)
(0.993314 -0.102914 -0.0523007)
(0.989402 -0.139538 -0.0401564)
(0.648118 0.761513 -0.00635382)
(0.992791 -0.107834 -0.0523329)
(0.317759 0.948029 0.0164173)
(0.914485 0.402447 0.0418675)
(0.988396 0.0810763 -0.128451)
(-0.583729 0.811947 -0.0011058)
(-0.692503 0.720762 0.0306878)
(0.878666 -0.476489 0.0300713)
(-0.304339 0.951206 0.0508404)
(-0.685307 0.727597 0.0309192)
(0.875907 -0.481555 0.0298725)
(-0.592102 0.80586 -0.00206731)
(0.978323 0.199781 0.0545093)
(0.812956 0.577505 0.0747699)
(0.971339 0.227136 -0.0700752)
(0.866279 0.499408 0.0123383)
(0.991553 0.129263 -0.0106164)
(0.985354 0.160225 0.0583548)
(0.94509 0.326798 0.0027895)
(0.576555 0.816528 0.0294231)
(0.56329 0.825698 0.0304442)
(0.318833 0.947675 0.0160795)
(0.638751 0.769394 -0.00551457)
(0.99494 -0.0860737 -0.0518257)
(0.990386 -0.132416 -0.0400276)
(0.315714 0.948712 0.0164161)
(0.635599 0.772002 -0.00520584)
(0.995092 -0.0841998 -0.0519772)
(0.315935 0.948654 0.0155005)
(0.990879 -0.12806 -0.0419384)
(0.565535 0.824724 0.000903896)
(0.997662 -0.0411207 -0.0545855)
(0.568026 0.82301 0.000673817)
(0.997888 -0.0361035 -0.0540097)
(0.318095 0.947935 0.0152905)
(0.911931 0.40824 0.0415079)
(0.906764 0.419495 0.0424704)
(-0.612167 0.790717 -0.00426649)
(-0.687725 0.7253 0.0312093)
(0.88118 -0.471813 0.0302395)
(-0.292862 0.954793 0.0510112)
(-0.604314 0.796739 -0.00334666)
(-0.693952 0.71935 0.0310811)
(0.883425 -0.46758 0.0304972)
(0.728637 -0.68463 0.0192309)
(-0.275252 0.959876 0.0536172)
(-0.625855 0.778969 0.0389046)
(0.897927 -0.438875 0.0334008)
(-0.619987 0.783649 0.0388736)
(0.89755 -0.439657 0.0332442)
(0.73828 -0.674174 0.0207641)
(0.310982 0.950305 0.014492)
(0.989426 -0.137533 -0.046047)
(0.468022 0.883671 0.00895554)
(0.997295 -0.0397229 -0.0618392)
(0.469908 0.882671 0.00880522)
(0.997564 -0.0337463 -0.0610563)
(0.312654 0.94976 0.0142567)
(0.317878 0.94801 0.0151638)
(0.990547 -0.130365 -0.0426899)
(0.557735 0.830018 0.00153056)
(0.997926 -0.0339437 -0.0546961)
(0.553495 0.83285 0.00191822)
(0.315335 0.948855 0.0154178)
(0.997677 -0.0397569 -0.0553242)
(0.902157 0.429207 0.0435212)
(0.905633 0.421896 0.0428069)
(0.860194 -0.508237 0.0419659)
(-0.266507 0.962169 0.0566155)
(-0.490251 0.870219 0.0487123)
(0.909639 -0.413822 0.0361706)
(-0.478716 0.876613 0.0487902)
(0.909377 -0.414401 0.0361227)
(0.871043 -0.48921 0.0442479)
(0.755989 -0.654163 0.0234862)
(-0.274352 0.960097 0.0542712)
(-0.605322 0.794964 0.0402077)
(0.8987 -0.437276 0.0335833)
(0.745577 -0.666063 0.0217888)
(-0.609222 0.791973 0.0403463)
(0.899728 -0.435136 0.0338715)
(0.458438 0.888674 0.00968737)
(0.997471 -0.0343375 -0.0622232)
(0.30996 0.950642 0.0143118)
(-0.464604 0.884129 0.0495908)
(0.910453 -0.412022 0.036241)
(0.874447 -0.483048 0.0448011)
(0.580489 0.813633 0.0321509)
(-0.552724 0.827072 -0.102215)
(-0.519853 0.851203 -0.0721478)
(0.710607 -0.703475 -0.0126438)
(-0.478778 0.876428 -0.0514343)
(-0.507122 0.856877 -0.0926797)
(0.132896 -0.644234 0.753194)
(-0.533117 0.84343 -0.0664183)
(0.702948 0.710907 0.0218168)
(0.0524651 0.79336 -0.606488)
(0.425417 0.728048 -0.537557)
(-0.226155 -0.543623 0.808287)
(-0.264497 0.957243 -0.117166)
(0.132468 0.719203 -0.682055)
(-0.677161 0.094 0.729806)
(-0.0139017 0.964223 -0.264727)
(0.554477 0.831611 0.0312766)
(0.556675 0.830148 0.0310992)
(0.88319 -0.468238 -0.0269972)
(0.985954 -0.166681 0.0106304)
(0.974462 -0.173332 0.142756)
(0.795276 -0.603137 -0.0613396)
(0.898188 -0.438899 -0.025042)
(0.95793 -0.251902 0.137537)
(0.848594 -0.524872 -0.0663167)
(0.89333 -0.44882 -0.0228348)
(0.999677 0.0218074 0.0130501)
(0.976237 -0.164652 0.140897)
(-0.655257 0.753526 0.053259)
(0.906712 -0.421068 -0.0239672)
(0.985466 -0.0885496 0.144966)
(-0.374195 0.926639 0.0363115)
(0.338136 0.940962 0.0159838)
(0.986112 -0.160411 -0.0430257)
(0.69585 0.71807 -0.0129565)
(0.988608 -0.139157 -0.0573495)
(0.682041 0.731253 -0.00948101)
(0.372077 0.92811 0.0130551)
(0.985757 -0.158447 -0.056373)
(0.573198 0.81932 -0.0126478)
(0.99292 -0.108649 -0.0480082)
(0.818259 0.574226 -0.0267673)
(0.993433 -0.0973628 -0.0600981)
(0.7792 0.626015 -0.0308701)
(0.462288 0.886728 0.00178979)
(0.997666 -0.0290774 -0.061778)
(0.920104 0.389094 0.0448823)
(0.940912 0.335943 0.0427344)
(-0.557274 0.830328 0.00116707)
(-0.36516 0.929553 0.050885)
(0.798806 -0.601171 -0.0224197)
(0.840432 -0.541248 0.0269047)
(0.758035 -0.651708 -0.0256689)
(0.853175 -0.52084 0.0286069)
(-0.553447 0.832884 0.00122971)
(-0.537925 0.842991 0.00183776)
(-0.456545 0.888386 0.0483386)
(0.872963 -0.487505 -0.0165535)
(0.849004 -0.527616 0.0285071)
(0.958558 -0.28483 -0.00617303)
(0.849188 -0.527306 0.0287795)
(-0.571083 0.820891 -0.00142213)
(0.571056 0.820375 0.0296838)
(0.568203 0.822343 0.0299534)
(0.317135 0.948249 0.0158237)
(0.991215 -0.125943 -0.0403902)
(0.607302 0.794466 -0.00272012)
(0.997218 -0.0530656 -0.0523548)
(0.609797 0.792552 -0.00295947)
(0.319667 0.947402 0.0155859)
(0.997406 -0.0498433 -0.0519237)
(0.31944 0.94748 0.0154937)
(0.991024 -0.127253 -0.0409739)
(0.600181 0.799861 -0.00212851)
(0.997661 -0.0439982 -0.0523116)
(0.596485 0.802622 -0.00178526)
(0.316814 0.948357 0.0157324)
(0.997416 -0.0486959 -0.0528196)
(0.909561 0.413479 0.0416408)
(0.908227 0.416371 0.0419432)
(-0.66024 0.750989 -0.00988572)
(-0.281398 0.958187 0.0518915)
(-0.677504 0.734746 0.0337136)
(0.891579 -0.451753 0.0317361)
(-0.672313 0.739499 0.033719)
(0.89086 -0.45318 0.0315679)
(-0.668631 0.743512 -0.0110319)
(-0.686641 0.726874 -0.0133741)
(-0.279306 0.958766 0.0524931)
(-0.662769 0.748013 0.0348449)
(0.892585 -0.449747 0.031925)
(-0.665823 0.74529 0.0349751)
(0.893661 -0.447585 0.0322004)
(-0.678355 0.734633 -0.0122026)
(0.315035 0.948966 0.0147262)
(0.989789 -0.135339 -0.0447241)
(0.509842 0.86025 0.00555181)
(0.997821 -0.0314699 -0.0579936)
(0.503772 0.863815 0.00607584)
(0.312765 0.949712 0.0149998)
(0.997548 -0.0380659 -0.0587227)
(0.313976 0.949311 0.0150882)
(0.990251 -0.132207 -0.043859)
(0.518259 0.85521 0.00487981)
(0.997632 -0.0373511 -0.0577445)
(0.521342 0.853335 0.00462055)
(0.315671 0.948752 0.0148875)
(0.997861 -0.0318671 -0.0570809)
(0.903295 0.426818 0.0434101)
(0.904292 0.42472 0.0432257)
(0.823734 -0.565892 0.0350475)
(-0.270038 0.961229 0.0558437)
(-0.532754 0.845041 0.0455974)
(0.904446 -0.425142 0.0351022)
(-0.538041 0.84168 0.045682)
(0.905608 -0.422638 0.0353829)
(0.811615 -0.583272 0.0327802)
(0.795527 -0.605177 0.0299713)
(-0.270775 0.961052 0.0553248)
(-0.557443 0.829028 0.0443877)
(0.903699 -0.426739 0.0349628)
(-0.550311 0.83378 0.0443678)
(0.903383 -0.427416 0.0348532)
(0.806556 -0.590293 0.0319673)
(0.890833 0.434055 -0.134212)
(0.994245 0.0912273 -0.0561596)
(0.996893 0.0678456 -0.0400156)
(0.972587 0.218109 -0.0806434)
(0.996561 0.0707193 0.0431829)
(0.82186 0.525428 -0.220161)
(0.871277 0.473671 -0.128501)
(0.994943 0.0999217 -0.0102249)
(0.999809 0.0192848 -0.00307088)
(0.981423 0.170766 -0.0874466)
(0.884389 0.422286 -0.198821)
(0.996594 0.0661194 -0.0492773)
(0.747109 -0.366276 0.55468)
(0.999887 -0.000965924 -0.0150321)
(0.995316 -0.0519742 0.0815148)
(0.922462 0.263009 -0.282649)
(0.787431 0.52217 -0.327552)
(0.977527 -0.038143 0.207332)
(0.75576 -0.310675 0.576462)
(0.779801 0.482292 -0.39913)
(0.896121 0.35777 -0.262618)
(0.998782 0.0329578 -0.036727)
(0.991123 -0.0741739 0.110332)
(0.993019 0.0931983 -0.0723014)
(0.992611 0.120012 -0.0179266)
(0.997929 -0.0623084 0.0159851)
(0.989005 -0.0222246 0.146202)
(0.0387091 0.99925 -0.00128155)
(0.999786 -0.0172821 0.0114013)
(0.997783 -0.00898947 0.0659457)
(-0.0723776 0.997372 -0.00317892)
(0.999713 -0.0107204 0.0214214)
(0.997922 -0.0148717 0.0626903)
(0.0643754 0.997916 0.00441356)
(0.997977 0.0118394 0.062458)
(0.580784 0.813512 0.029786)
(0.80783 -0.582641 0.089109)
(0.841841 -0.536144 0.0620666)
(0.829008 -0.558939 0.0182298)
(0.839284 -0.543402 0.0178077)
(0.816474 -0.572332 0.0761947)
(0.821865 -0.569669 -0.00389022)
(0.822085 -0.569084 0.0179033)
(0.821425 -0.553667 0.136798)
(0.794271 -0.606751 0.0314253)
(0.814415 -0.562222 0.143648)
(0.807514 -0.58623 0.0652287)
(0.824101 -0.566439 -0.00215509)
(0.799411 -0.600355 0.0227274)
(0.787401 -0.614018 0.0545981)
(0.744608 -0.659216 0.104849)
(0.718659 -0.66562 0.201195)
(0.779727 -0.621011 0.0798134)
(0.956961 0.0666167 -0.282467)
(0.0762356 0.807044 -0.585549)
(0.197435 0.875205 -0.441629)
(-0.430803 0.830528 -0.353033)
(0.436374 0.886485 0.154023)
(-0.167228 0.90497 -0.391234)
(-0.17113 0.457145 0.872773)
(0.0607053 0.862427 -0.502529)
(0.625091 -0.476889 -0.617931)
(-0.212868 0.900379 -0.379481)
(-0.608034 0.299113 0.735409)
(-0.173016 0.956691 -0.23411)
(-0.326903 0.850293 -0.412476)
(0.926241 0.0173141 -0.376535)
(-0.221891 0.800567 -0.556648)
(0.551489 0.833589 0.0314539)
(0.559772 0.828074 0.0308079)
(0.996907 0.0441837 -0.0649865)
(0.997319 0.0400921 -0.0612133)
(0.998768 -0.0374654 -0.0325338)
(0.997743 0.0580743 -0.0336981)
(0.998305 0.0482868 -0.0324811)
(0.997897 -0.00637749 -0.0645083)
(0.996782 0.0509035 -0.061916)
(0.995761 0.0643804 -0.0656857)
(0.998 -0.0157899 -0.0612154)
(0.998134 -0.00218169 0.0610219)
(0.996105 -0.00568185 0.0879948)
(0.998613 0.0392664 0.0350774)
(0.973521 -0.0122689 0.228266)
(0.97335 0.00985919 0.229114)
(0.998721 -0.0375829 0.0338278)
(0.998769 -0.0350732 0.0350686)
(0.998105 0.00686295 0.061153)
(0.996074 -0.00587565 0.0883292)
(0.998164 -0.00370988 0.0604601)
(0.996083 0.0100941 0.0878407)
(0.871276 -0.490655 -0.0116324)
(0.867793 -0.493743 0.0561524)
(0.87102 -0.479592 -0.106372)
(0.854964 -0.517924 0.0281392)
(0.888509 -0.456707 0.0443909)
(0.882127 -0.469935 -0.03183)
(0.945392 -0.325726 0.0116478)
(0.926159 -0.352481 0.134119)
(0.906108 -0.417349 -0.0691897)
(0.908006 -0.39959 0.125911)
(0.882012 -0.470115 -0.0323486)
(0.909053 -0.411538 -0.0652629)
(0.888012 -0.459502 -0.0171116)
(0.85472 -0.50151 -0.133948)
(0.934866 -0.352421 0.0427187)