/*--------------------------------*- C++ -*----------------------------------*\
| =========                 |                                                 |
| \\      /  F ield         | OpenFOAM: The Open Source CFD Toolbox           |
|  \\    /   O peration     | Version:  2012                                  |
|   \\  /    A nd           | Website:  www.openfoam.com                      |
|    \\/     M anipulation  |                                                 |
\*---------------------------------------------------------------------------*/
FoamFile
{
    version     2.0;
    format      ascii;
    class       volVectorField;
    location    "0.106/solid";
    object      U;
}
// * * * * * * * * * * * * * * * * * * * * * * * * * * * * * * * * * * * * * //

dimensions      [0 1 -1 0 0 0 0];


internalField   nonuniform List<vector> 
3125
(
(5.31817e-09 -9.77317e-11 -6.82749e-09)
(0.00354689 -0.000128361 0.00428247)
(4.54663e-08 1.39325e-07 1.69328e-09)
(8.34983e-05 3.32076e-06 9.50739e-05)
(0.0236778 0.00274534 0.0104135)
(0.0123677 0.00124196 0.00802072)
(7.33769e-09 -1.18989e-10 -1.28279e-08)
(3.02937e-08 8.8913e-08 -2.37105e-09)
(5.37719e-09 -3.13846e-11 -6.90435e-09)
(2.86959e-08 1.59291e-07 -1.68948e-08)
(7.58131e-09 2.26904e-10 -1.32141e-08)
(0.00350118 -8.76089e-05 0.00404457)
(6.64975e-08 3.55355e-07 -1.58363e-08)
(1.2957e-06 -4.33892e-06 -2.2054e-05)
(0.00290244 0.000322394 -0.000456472)
(0.000103066 4.01663e-05 0.000193668)
(0.0035133 -0.000187125 0.00424107)
(0.000139959 -3.82404e-05 0.00015021)
(0.00345232 -0.000170789 0.00398431)
(-6.55269e-06 1.58977e-05 -3.07729e-05)
(0.00284463 0.000343367 -0.000551532)
(8.35162e-05 -4.93227e-05 0.000124514)
(0.00392384 -7.07789e-05 0.00453365)
(0.0117188 0.00114552 0.00783166)
(0.00387882 -3.06555e-05 0.00428338)
(0.0110465 0.00145042 -0.00083708)
(0.0036699 0.000427014 -0.000509905)
(0.0116836 0.00117417 0.0074153)
(0.00389083 -0.000128643 0.00448918)
(0.0116964 0.001101 0.00775951)
(0.00383076 -0.000112547 0.00421857)
(0.0109969 0.00146634 -0.00100586)
(0.00361175 0.000447247 -0.000618021)
(0.0116508 0.00111116 0.00730946)
(0.0236523 0.00276164 0.00986296)
(0.0123578 0.00162408 -0.000878269)
(0.0123332 0.0012698 0.00759464)
(0.023009 0.00289222 -0.00113035)
(0.0236668 0.00271429 0.0103381)
(0.0123462 0.00119831 0.00794771)
(0.023636 0.00271766 0.00975214)
(0.0123102 0.00163941 -0.00105133)
(0.0123015 0.00120803 0.00748752)
(0.0229772 0.00290351 -0.00130999)
(0.0245238 0.00284476 0.0105443)
(0.0244989 0.00286033 0.00998689)
(0.0245135 0.00281449 0.0104693)
(0.0244835 0.00281749 0.00987661)
(-2.54172e-08 4.15666e-09 -1.48923e-08)
(-3.36282e-09 3.28015e-09 -1.16653e-08)
(-2.91178e-08 1.01094e-08 -1.96019e-08)
(1.28546e-08 -6.54392e-07 5.69602e-08)
(7.36885e-07 1.98452e-07 -4.50121e-07)
(0.00146022 -0.000393996 0.00241173)
(1.44449e-06 1.56718e-06 1.91753e-07)
(0.00124056 -0.000405695 0.00212897)
(1.86277e-06 1.92971e-06 3.27152e-07)
(0.0180564 0.00203996 0.00939877)
(0.0172997 0.00193878 0.00923944)
(9.43351e-10 -7.35334e-11 -1.05457e-08)
(1.94152e-09 -7.72362e-11 -1.14918e-08)
(7.01903e-09 5.8233e-09 -7.28895e-09)
(6.70449e-09 3.73517e-09 -7.3571e-09)
(9.0454e-10 1.26682e-10 -1.07577e-08)
(-1.08537e-09 2.04578e-09 -1.13014e-08)
(-2.58069e-08 3.38231e-08 -1.74797e-08)
(9.28208e-09 1.53826e-08 -1.48578e-08)
(-2.67017e-09 7.10157e-09 -1.29398e-08)
(1.91889e-09 2.21088e-10 -1.17637e-08)
(8.76967e-09 7.03665e-09 -1.43556e-08)
(-1.06148e-10 3.84979e-09 -1.24857e-08)
(0.00300633 0.000127104 0.00188823)
(0.0014082 -0.000351727 0.00225915)
(0.00118496 -8.92593e-05 0.00110725)
(-2.4053e-08 6.67119e-08 -2.43175e-08)
(2.11726e-06 2.78574e-06 -2.69796e-08)
(1.22395e-06 3.53281e-07 -6.36281e-07)
(3.75307e-07 -1.41427e-06 2.70354e-07)
(0.000651965 5.13898e-05 -0.000214293)
(5.89462e-06 -9.82782e-06 5.74967e-05)
(0.000687715 -7.11037e-05 0.000556151)
(2.85976e-06 4.28937e-06 1.2862e-08)
(0.00294964 0.000181302 0.00129167)
(0.00108619 9.53969e-05 -0.000281329)
(0.00112712 -3.57873e-05 0.000749888)
(0.00118816 -0.000363907 0.00198831)
(4.0646e-06 1.0195e-05 3.39388e-06)
(1.56983e-05 -1.38754e-05 8.5994e-05)
(0.000740871 -0.000122658 0.000824953)
(4.0987e-06 6.18635e-06 6.46056e-08)
(0.00142584 -0.000458746 0.00240115)
(0.00120709 -0.000471957 0.00212439)
(0.00292935 4.70267e-05 0.00178564)
(0.00135946 -0.000443673 0.00224624)
(0.00111646 -0.000183009 0.00107045)
(0.000613807 7.82029e-05 -0.000255745)
(-5.30913e-06 -5.0341e-05 6.76489e-05)
(0.000634711 -0.000138482 0.000541312)
(0.00287469 0.000125757 0.00118697)
(0.00103761 0.000120457 -0.0003341)
(0.00106187 -0.000101268 0.000707171)
(0.00114067 -0.000459443 0.00198434)
(6.06864e-06 -7.3298e-05 0.000102816)
(0.000685167 -0.000218675 0.000821005)
(0.00708393 0.000429073 0.00618165)
(0.00760636 0.000511812 0.00640139)
(0.00377186 0.000234078 0.00213135)
(0.00704365 0.00046411 0.00584916)
(0.00651508 0.00063345 0.00281121)
(0.00747978 0.000961461 -0.000705658)
(0.0110851 0.00133747 0.00248832)
(0.0075226 0.000834469 0.00208133)
(0.00371681 0.000287205 0.00146104)
(0.00642121 0.000812885 -0.000659096)
(0.00646528 0.000681885 0.0019347)
(0.00756673 0.000546064 0.0060578)
(0.011128 0.00129713 0.00360741)
(0.00757066 0.000787914 0.00302187)
(0.00705566 0.000377497 0.00612047)
(0.00757882 0.000461128 0.00633841)
(0.00369585 0.0001566 0.00201201)
(0.0070023 0.000391114 0.0057596)
(0.0064453 0.000563414 0.00265241)
(0.00742515 0.000979162 -0.00085524)
(0.0110264 0.00129556 0.00229452)
(0.00745584 0.000787597 0.00191009)
(0.00364239 0.000233468 0.00133974)
(0.00636522 0.000831188 -0.000800033)
(0.00639612 0.000633335 0.00177367)
(0.00752642 0.000474338 0.00596556)
(0.0110696 0.00123664 0.00341639)
(0.00750352 0.000720291 0.002853)
(0.0180267 0.00206145 0.00890138)
(0.0230658 0.00280302 0.004844)
(0.0182178 0.00223149 0.00443374)
(0.0123949 0.00151635 0.0026132)
(0.0166258 0.00216295 -0.000994145)
(0.0166583 0.00207198 0.00295641)
(0.0172695 0.00196105 0.00875036)
(0.0124362 0.00147822 0.00378741)
(0.0166947 0.00204068 0.00428302)
(0.0230357 0.00282515 0.0033436)
(0.018152 0.00234558 -0.00103019)
(0.018183 0.00226048 0.00306059)
(0.0180407 0.00200313 0.00932238)
(0.0172833 0.00190112 0.00916317)
(0.0180036 0.00200932 0.00878916)
(0.0230324 0.00276066 0.00464008)
(0.0181751 0.0021825 0.00422832)
(0.0123391 0.00147607 0.00241436)
(0.0165846 0.00217652 -0.00117449)
(0.0166116 0.00203649 0.00274887)
(0.0172452 0.00190774 0.00863834)
(0.0123808 0.00142007 0.00359145)
(0.0166488 0.00198943 0.00407857)
(0.0230011 0.00279584 0.00313649)
(0.0181131 0.00235857 -0.00121132)
(0.0181393 0.00222656 0.00285203)
(-1.60221e-08 -2.33426e-08 -8.34108e-09)
(-9.11875e-09 -8.96915e-09 -8.56274e-09)
(-2.45663e-08 -5.1742e-08 -7.38825e-09)
(-4.15701e-08 -1.71429e-07 2.79638e-09)
(-3.35251e-08 -1.17986e-07 -1.10661e-08)
(9.66089e-09 2.55537e-11 -1.51615e-09)
(0.00253354 -0.000274846 0.00350512)
(4.82186e-08 4.25773e-08 1.12385e-08)
(1.90018e-07 4.04103e-07 1.77194e-08)
(1.44956e-07 1.31421e-07 4.62065e-08)
(0.000471103 -0.000309246 0.00084589)
(2.74069e-06 6.46327e-06 -8.48737e-07)
(4.88742e-06 3.39973e-06 1.79795e-06)
(0.0212019 0.00244449 0.00999997)
(0.0144004 0.00153698 0.00856535)
(-2.68645e-10 -1.46745e-11 -8.17215e-09)
(4.75684e-09 -1.21868e-10 -1.19377e-08)
(3.57663e-08 2.83891e-08 6.64062e-09)
(1.21056e-08 2.87676e-08 -6.041e-09)
(1.80136e-08 8.50689e-09 5.35081e-10)
(9.83223e-09 3.94275e-11 -1.52947e-09)
(5.81034e-09 5.36209e-10 -7.18678e-09)
(1.03459e-08 2.01533e-10 -1.56143e-09)
(-2.56762e-10 1.30943e-11 -8.24607e-09)
(-3.75432e-10 6.58589e-11 -8.30217e-09)
(-7.15176e-09 1.19398e-07 -1.5418e-08)
(1.48086e-08 7.44966e-08 -1.57665e-08)
(-3.16475e-09 6.08829e-08 -1.49292e-08)
(4.86509e-09 2.70994e-10 -1.22632e-08)
(7.93417e-09 1.12852e-09 -1.35928e-08)
(4.96046e-09 1.14983e-09 -1.25745e-08)
(0.00332544 1.64023e-05 0.00305902)
(0.00248561 -0.000232569 0.00330473)
(0.002301 -0.000124972 0.00248339)
(-2.92152e-09 2.56894e-07 -1.62632e-08)
(2.17877e-07 7.25947e-07 -3.06114e-08)
(5.77871e-08 4.60479e-07 -3.67876e-08)
(1.82253e-05 -2.73117e-05 -2.29496e-05)
(7.32834e-05 2.25939e-05 -5.19e-05)
(-8.25343e-07 -2.51372e-06 3.6595e-06)
(6.48684e-05 -1.07177e-05 1.17967e-05)
(1.63908e-05 2.70276e-06 3.79165e-06)
(0.00289706 0.000278183 0.000122619)
(0.00221412 0.000231688 -0.000400847)
(0.002208 0.00018793 0.000101419)
(0.000405038 -0.000339055 0.000745827)
(8.79487e-05 1.48458e-05 5.57697e-05)
(8.11586e-05 -1.09386e-05 0.000137529)
(0.000260856 -0.000228437 0.000576101)
(6.75748e-05 4.19752e-05 7.65558e-05)
(0.00249855 -0.000336252 0.00347433)
(0.000492436 -0.000386073 0.000971953)
(0.00328131 -4.58579e-05 0.00300153)
(0.00243491 -0.0003195 0.00326032)
(0.00225612 -0.00019033 0.00244144)
(7.7908e-05 3.37395e-05 -0.00010001)
(-1.00368e-05 -5.81414e-06 1.78146e-06)
(6.84464e-05 -1.56792e-05 3.99897e-06)
(0.00283277 0.000274271 2.26869e-05)
(0.00215756 0.000253568 -0.000482027)
(0.00214486 0.000183902 1.71137e-05)
(0.00045327 -0.000380321 0.000909039)
(2.06289e-05 -3.73184e-05 7.95092e-05)
(0.000268015 -0.000292285 0.000626257)
(0.00516872 0.000124473 0.00526356)
(0.0098617 0.000863857 0.00724168)
(0.00370587 7.17447e-05 0.00324219)
(0.00512577 0.000162529 0.00497711)
(0.00496137 0.000259573 0.00378055)
(0.0097948 0.00128137 -0.000794599)
(0.0110437 0.00141353 0.000268935)
(0.00979192 0.00124304 0.000253688)
(0.00366512 0.000382913 0.000143523)
(0.00451386 0.000544443 -0.000561354)
(0.00450957 0.000500807 0.000163879)
(0.00982464 0.000894923 0.00685545)
(0.0115516 0.00124484 0.00566448)
(0.00968456 0.000972438 0.00523063)
(0.00513763 6.93075e-05 0.00521099)
(0.00983714 0.00081671 0.00717276)
(0.00366223 1.05372e-05 0.0031802)
(0.00508041 8.44559e-05 0.00490029)
(0.00491968 0.000201208 0.00370673)
(0.00974341 0.00129788 -0.00095807)
(0.0109903 0.00141064 8.84696e-05)
(0.00973627 0.00124001 7.89773e-05)
(0.00360072 0.000379096 2.90934e-05)
(0.00445601 0.000563995 -0.000681533)
(0.00444576 0.000497107 3.61972e-05)
(0.00978861 0.000828199 0.00675441)
(0.0115203 0.00119774 0.00556186)
(0.00965047 0.000922643 0.00513278)
(0.0211746 0.00246296 0.00947115)
(0.0235606 0.00279652 0.0075555)
(0.0210755 0.00250405 0.00725167)
(0.0123552 0.00158873 0.000283255)
(0.0137263 0.00180135 -0.000918178)
(0.0137238 0.00176762 0.000296664)
(0.0143677 0.00156242 0.00811122)
(0.0122036 0.00133805 0.00580172)
(0.0142461 0.00162377 0.00620204)
(0.023007 0.00286941 0.000359589)
(0.0213459 0.00271084 -0.00109831)
(0.0213438 0.00268612 0.000350999)
(0.021189 0.00241099 0.0099238)
(0.0143811 0.00149592 0.00849039)
(0.0211555 0.00241553 0.0093592)
(0.0235439 0.00276362 0.00744741)
(0.0210562 0.00246864 0.00714258)
(0.012304 0.00158596 9.81398e-05)
(0.0136808 0.00181609 -0.00109455)
(0.013675 0.00176498 0.000107936)
(0.0143392 0.00150429 0.00800119)
(0.0121732 0.00129194 0.00569781)
(0.0142185 0.00158033 0.00609517)
(0.0229736 0.00286749 0.000167016)
(0.0213117 0.00272269 -0.00127901)
(0.0213077 0.00268408 0.00015733)
(0.0244094 0.00289308 0.00765041)
(0.0243935 0.00286108 0.0075428)
(-2.34273e-09 -1.00966e-09 -8.48541e-09)
(-4.70488e-09 -3.1883e-09 -8.53681e-09)
(-2.20875e-08 -1.37746e-08 -1.16731e-08)
(-1.52273e-08 7.01972e-09 -1.26524e-08)
(-1.2753e-08 -3.52784e-09 -1.0549e-08)
(-3.08296e-09 6.3093e-10 -1.00789e-08)
(-7.74404e-09 4.9053e-09 -1.21451e-08)
(-6.55147e-09 -4.77653e-10 -1.03255e-08)
(-3.08276e-08 -2.97792e-08 -1.37596e-08)
(-2.06875e-09 -1.41336e-08 -5.127e-08)
(-2.99819e-08 -7.96644e-08 -2.96338e-08)
(-5.67166e-08 -3.63682e-07 9.21549e-09)
(1.51644e-07 -4.87275e-07 -6.16889e-08)
(-2.01778e-09 -2.26809e-07 -1.80345e-08)
(1.84292e-07 2.02209e-07 -1.06459e-07)
(3.54999e-07 -1.17985e-07 -2.36619e-07)
(6.1493e-08 -4.25203e-08 -5.95648e-08)
(0.00223561 -0.000313778 0.00323828)
(3.07359e-07 6.4143e-07 3.33378e-08)
(7.01725e-07 5.07414e-07 2.54111e-07)
(2.12534e-07 1.93103e-07 7.24499e-08)
(0.000661234 -0.000369113 0.00118516)
(1.25804e-05 5.78802e-06 1.24058e-06)
(1.03834e-06 7.29173e-07 3.88244e-07)
(3.41363e-06 1.84573e-06 1.30476e-06)
(0.0203983 0.00234356 0.00985507)
(0.0151055 0.00163677 0.00873941)
(2.30113e-10 -3.52777e-11 -9.39106e-09)
(3.23203e-09 -8.23471e-11 -1.20094e-08)
(9.88539e-09 1.82278e-08 -6.86763e-09)
(1.22626e-08 1.68702e-09 -1.255e-09)
(1.56171e-08 5.63729e-09 -2.6146e-10)
(5.95174e-09 1.03798e-09 -7.2401e-09)
(1.1708e-08 1.1164e-09 -1.38189e-09)
(1.05714e-08 3.21259e-10 -1.5541e-09)
(-1.29496e-09 -2.09938e-10 -8.4043e-09)
(-7.20611e-10 3.53805e-11 -8.34717e-09)
(2.17629e-10 6.74093e-11 -9.52892e-09)
(6.92846e-10 5.4386e-10 -1.09422e-08)
(3.54754e-11 2.2459e-10 -9.64305e-09)
(-1.3764e-09 7.03959e-10 -9.88131e-09)
(1.15241e-10 1.20351e-09 -1.10865e-08)
(-4.60467e-10 4.38442e-10 -9.74631e-09)
(-2.05851e-08 7.68084e-08 -1.804e-08)
(-1.54724e-08 2.3007e-08 -1.44472e-08)
(-1.13897e-08 4.37876e-08 -1.55291e-08)
(1.06385e-08 3.37061e-08 -1.54894e-08)
(3.24597e-09 1.3431e-08 -1.36968e-08)
(8.96322e-10 2.8046e-08 -1.489e-08)
(-7.32666e-09 1.26076e-08 -1.37171e-08)
(-3.30129e-10 1.10989e-08 -1.37073e-08)
(-4.22393e-09 2.16236e-08 -1.48718e-08)
(3.25082e-09 3.05641e-10 -1.23177e-08)
(1.74741e-09 8.42377e-10 -1.2009e-08)
(3.18211e-09 1.08294e-09 -1.26046e-08)
(8.37231e-09 3.03504e-09 -1.39491e-08)
(4.40342e-09 6.33436e-09 -1.31992e-08)
(4.9112e-09 2.86829e-09 -1.2864e-08)
(1.19234e-09 1.95205e-09 -1.22152e-08)
(1.80792e-09 5.54091e-09 -1.3193e-08)
(2.82483e-09 2.59318e-09 -1.28748e-08)
(0.00308303 6.43916e-05 0.00250472)
(0.00231886 3.61039e-05 0.00163675)
(0.00239774 -2.78075e-05 0.00217625)
(0.002187 -0.000271143 0.00305058)
(0.00121236 -0.000244523 0.00166819)
(0.00199925 -0.000162987 0.00228764)
(0.00171134 -3.72146e-05 0.00137613)
(0.00126527 -0.000153134 0.00148253)
(0.00179142 -0.00010172 0.00183551)
(-1.7426e-08 1.52928e-07 -2.46651e-08)
(3.21831e-08 6.79576e-08 -6.86632e-08)
(4.99516e-08 2.13693e-07 -6.85096e-08)
(5.6053e-07 1.77666e-06 3.94053e-08)
(1.27165e-06 1.23173e-06 -1.57629e-07)
(2.94539e-07 1.16578e-06 -2.03081e-09)
(3.17428e-07 4.01235e-07 -1.44467e-07)
(1.41831e-06 4.5753e-07 -6.26009e-07)
(3.68538e-07 6.20069e-07 -1.33462e-07)
(4.9694e-06 -4.57074e-07 2.46615e-06)
(9.15047e-07 -9.00179e-07 -1.51655e-07)
(5.04842e-06 -1.15729e-06 -6.89058e-07)
(0.000306523 2.01051e-05 -0.000141295)
(0.000643176 1.57081e-05 4.12598e-05)
(0.000296056 -7.06932e-06 2.37265e-05)
(1.02457e-06 -6.0839e-06 2.96552e-05)
(8.70959e-05 -7.64746e-05 0.000168459)
(2.1838e-05 2.88651e-05 4.81357e-05)
(7.18643e-05 -4.17711e-05 8.72065e-05)
(1.52109e-05 1.50328e-05 2.45167e-05)
(0.000655986 -2.56309e-05 0.000296411)
(0.000333885 -8.07446e-05 0.00036327)
(0.000306939 -4.16084e-05 0.000191286)
(1.7144e-06 1.79902e-06 -8.90526e-08)
(7.09677e-06 3.58251e-06 -9.00039e-07)
(4.51361e-06 1.06388e-06 -1.25788e-06)
(0.00291364 0.000231257 0.000703854)
(0.00226081 9.09211e-05 0.00111668)
(0.00222438 0.000141109 0.000605787)
(0.00160788 0.000155941 -0.000342562)
(0.00107802 5.56855e-05 5.98388e-05)
(0.00160092 0.000113394 8.0295e-05)
(0.00165279 1.76054e-05 0.00093579)
(0.00109247 1.19918e-05 0.000402164)
(0.00161668 6.73619e-05 0.000504954)
(0.000581855 -0.000346433 0.00107894)
(0.000987731 -0.000261521 0.00145551)
(0.000417905 -0.000256319 0.000786877)
(1.65181e-05 -2.32265e-05 -1.39742e-07)
(4.94257e-06 5.66925e-06 1.1088e-06)
(9.68533e-06 -2.48481e-06 -9.19134e-07)
(3.19944e-05 -1.52965e-05 0.000112673)
(0.000113342 -0.000115877 0.000255187)
(3.28502e-05 4.27307e-05 7.15715e-05)
(0.000146007 -0.000170876 0.000330844)
(4.4473e-05 5.72855e-05 8.91152e-05)
(0.000814883 -0.000183704 0.00110921)
(0.000377555 -0.000126733 0.000542719)
(0.000452241 -0.000180739 0.000731604)
(5.1801e-06 5.81412e-06 -9.22582e-08)
(1.15364e-05 4.28371e-06 -1.11404e-06)
(1.55813e-05 2.14412e-06 -2.62061e-06)
(0.0022003 -0.00037607 0.00321155)
(0.000658363 -0.000441306 0.00126246)
(0.00300567 -3.25196e-05 0.00240551)
(0.00224207 -4.71268e-05 0.00155309)
(0.00232009 -0.000128317 0.00209589)
(0.0021359 -0.00035944 0.00301223)
(0.00117151 -0.000316122 0.00165595)
(0.00195472 -0.000229542 0.0022517)
(0.0016368 -0.00012401 0.0013142)
(0.00119487 -0.000265385 0.00145127)
(0.00171553 -0.000206282 0.00177735)
(0.000288713 5.5157e-05 -0.000175171)
(0.00060005 1.09322e-05 6.70887e-06)
(0.000275234 -1.14417e-05 5.32284e-06)
(-1.02725e-05 -2.7489e-05 3.41037e-05)
(8.59652e-05 -0.000123977 0.000217363)
(7.11821e-05 -6.83215e-05 0.000109445)
(0.000607253 -6.12699e-05 0.000270852)
(0.000303426 -0.000159788 0.000374305)
(0.000280682 -8.33982e-05 0.000187368)
(0.0028432 0.000201889 0.000600215)
(0.00218654 3.3137e-05 0.00103045)
(0.00215491 0.000110564 0.000519404)
(0.00155399 0.000178885 -0.000409436)
(0.00102352 5.12506e-05 8.9746e-06)
(0.00154058 0.000109228 1.24896e-05)
(0.00158122 -4.2742e-05 0.000870164)
(0.00103198 -2.2622e-05 0.000354467)
(0.00155002 3.54685e-05 0.000437276)
(0.000596669 -0.000440002 0.00117683)
(0.0009516 -0.000333807 0.00145383)
(0.000404522 -0.000333752 0.000826024)
(2.77304e-05 -9.71579e-05 0.000142717)
(0.000115924 -0.000180826 0.000331791)
(0.000161943 -0.000234111 0.000446064)
(0.00075918 -0.000299164 0.00111675)
(0.000346514 -0.000237765 0.000569421)
(0.000415635 -0.000313348 0.000777143)
(0.00562074 0.000196288 0.00549896)
(0.00927363 0.00077301 0.0070374)
(0.00384619 0.000172924 0.00282207)
(0.00461335 0.000355125 0.00236608)
(0.00468522 0.000295801 0.00312854)
(0.00557846 0.000233609 0.00520074)
(0.00689027 0.000552897 0.00445457)
(0.00541673 0.000328611 0.00395183)
(0.00552852 0.000488735 0.00259266)
(0.00658214 0.000578362 0.00371002)
(0.00559797 0.000431445 0.00342446)
(0.0086051 0.00111801 -0.000750806)
(0.00747651 0.000920573 0.000220401)
(0.00860205 0.00107834 0.000237507)
(0.0110573 0.00137596 0.00137568)
(0.00983487 0.00116345 0.00235809)
(0.00980597 0.00120382 0.00130291)
(0.00749153 0.000878335 0.00114782)
(0.00864658 0.000995396 0.00222245)
(0.0086166 0.00103756 0.00122696)
(0.00368159 0.000336418 0.000799024)
(0.00456004 0.00040689 0.00162461)
(0.00452578 0.000455064 0.000891043)
(0.00543177 0.000673473 -0.000611035)
(0.00641767 0.000770904 0.000202401)
(0.00542789 0.000630565 0.00018354)
(0.00547697 0.00053892 0.00178249)
(0.00643313 0.000727338 0.00106546)
(0.00544376 0.000585821 0.000979869)
(0.00923593 0.000804878 0.00666159)
(0.00741593 0.000632596 0.00461428)
(0.00909336 0.000884763 0.00508226)
(0.0111859 0.00125188 0.00475151)
(0.00987951 0.00112096 0.00341988)
(0.00993961 0.00107314 0.00450602)
(0.00763537 0.000735156 0.00398538)
(0.00869293 0.00095083 0.00322473)
(0.00875532 0.000900498 0.00425068)
(0.00559034 0.000142023 0.00544401)
(0.00924831 0.000724985 0.00696978)
(0.00377019 7.91035e-05 0.00270643)
(0.00453901 0.000280186 0.00223192)
(0.0046112 0.000205017 0.00299848)
(0.00553407 0.000156817 0.0051204)
(0.00685175 0.000498345 0.00436815)
(0.00537579 0.000271277 0.00387452)
(0.0054563 0.000416258 0.00244539)
(0.00651314 0.000493492 0.00355612)
(0.00552633 0.000343631 0.0032817)
(0.008552 0.00113511 -0.000907887)
(0.00741692 0.000917268 6.07338e-05)
(0.00854435 0.00107518 6.97135e-05)
(0.0110004 0.00135384 0.0011859)
(0.00977338 0.0011199 0.00217053)
(0.00974661 0.00118083 0.00111923)
(0.00742752 0.000853569 0.000980075)
(0.00858238 0.000950192 0.00204238)
(0.00855483 0.00101369 0.00105061)
(0.00361134 0.000307998 0.000679614)
(0.00448692 0.000354927 0.00148846)
(0.00445647 0.000427584 0.000757369)
(0.00537468 0.000692388 -0.000742164)
(0.00635638 0.000767465 5.21046e-05)
(0.00536516 0.000626991 4.38997e-05)
(0.00540566 0.00048867 0.00163312)
(0.00636706 0.000701677 0.00090766)
(0.00537588 0.00055925 0.000833409)
(0.00919882 0.000736914 0.00656247)
(0.00737827 0.000579058 0.00452519)
(0.00905833 0.000833968 0.00498635)
(0.0111288 0.00117855 0.00456664)
(0.0098181 0.00105812 0.00323498)
(0.00987946 0.000996958 0.00432701)
(0.0075692 0.000653203 0.00382179)
(0.00862859 0.000885605 0.00304719)
(0.00869211 0.000821442 0.00407874)
(0.0203704 0.00236277 0.00933385)
(0.0179177 0.0021113 0.00681134)
(0.0202691 0.00240611 0.00714657)
(0.0231064 0.00277873 0.00637375)
(0.0214056 0.00261331 0.00471412)
(0.0214483 0.00258648 0.00620307)
(0.0182646 0.00219944 0.00583484)
(0.0197889 0.00242259 0.00457741)
(0.0198336 0.00239317 0.00602348)
(0.0123682 0.00155289 0.0014453)
(0.0137619 0.00169904 0.0027328)
(0.0137363 0.00173357 0.00151182)
(0.0151498 0.00198126 -0.000956807)
(0.0166234 0.00213266 0.000320838)
(0.0151473 0.00194922 0.000309183)
(0.0151839 0.00188455 0.00284718)
(0.0166348 0.00210238 0.00163575)
(0.0151593 0.00191704 0.00157529)
(0.0150734 0.00166141 0.00827627)
(0.0171581 0.00201324 0.00669576)
(0.0149542 0.00172036 0.00632834)
(0.0124918 0.00143558 0.00498725)
(0.0138015 0.00166316 0.00395994)
(0.0138549 0.00162316 0.00521334)
(0.0167437 0.002006 0.00563702)
(0.0152218 0.00185095 0.00412512)
(0.015273 0.00181361 0.0054299)
(0.0230163 0.00284708 0.00184877)
(0.021374 0.00263772 0.00325409)
(0.0213536 0.00266177 0.0017997)
(0.0197261 0.00252844 -0.00106492)
(0.0181497 0.00231711 0.000331665)
(0.0197239 0.00250182 0.000341706)
(0.0197557 0.0024493 0.00315978)
(0.0181606 0.00228878 0.00169326)
(0.0197343 0.00247547 0.00174789)
(0.0203847 0.00230924 0.00977874)
(0.015087 0.00159656 0.00866399)
(0.0203503 0.00231419 0.00922169)
(0.0178947 0.00207239 0.00670213)
(0.0202488 0.00236977 0.00703731)
(0.0230747 0.00272735 0.00617681)
(0.0213692 0.00256878 0.00450905)
(0.0214135 0.00253245 0.00600496)
(0.0182236 0.00214004 0.0056363)
(0.0197493 0.00237585 0.00437181)
(0.0197957 0.00233647 0.00582481)
(0.0123139 0.00153164 0.0012506)
(0.0137091 0.00166037 0.00253004)
(0.0136848 0.00171319 0.00131329)
(0.0151064 0.00199542 -0.00113558)
(0.0165796 0.00213027 0.00012773)
(0.015101 0.00194671 0.000117814)
(0.015134 0.00184748 0.00264154)
(0.0165889 0.00208369 0.00143254)
(0.0151105 0.0018975 0.00137394)
(0.0150461 0.0016045 0.00816554)
(0.0171342 0.00197339 0.00658679)
(0.0149276 0.00167788 0.00622075)
(0.0124379 0.00136508 0.00479765)
(0.0137493 0.00160733 0.00376015)
(0.0138043 0.00155547 0.00502009)
(0.0166995 0.00194386 0.00543937)
(0.0151728 0.00179743 0.00392252)
(0.0152256 0.00174871 0.00523399)
(0.0229818 0.00283166 0.001646)
(0.0213364 0.00260689 0.00304583)
(0.0213162 0.00264555 0.00159581)
(0.0196896 0.00254085 -0.00124614)
(0.0181085 0.00231483 0.00013765)
(0.0196853 0.00249966 0.000147528)
(0.019715 0.00241693 0.00295101)
(0.0181175 0.00227092 0.00148907)
(0.019694 0.00245844 0.00154349)
(1.66603e-08 -6.52614e-11 -1.59093e-08)
(1.58779e-08 1.00968e-11 -1.89689e-08)
(5.18637e-09 -1.84306e-10 -6.72119e-09)
(6.70457e-09 -1.18121e-10 -6.08444e-09)
(1.55222e-08 -1.71348e-10 -1.86533e-08)
(1.69654e-08 -3.96779e-11 -1.61268e-08)
(6.56806e-09 -2.04564e-10 -6.0063e-09)
(0.00318937 -0.000181772 0.00402729)
(1.96798e-07 3.43822e-07 -2.1906e-08)
(5.32128e-08 1.0723e-07 2.98046e-09)
(1.19739e-07 3.233e-07 -2.45228e-08)
(6.94396e-08 1.92252e-07 4.07692e-09)
(1.25383e-07 2.46249e-07 -1.61576e-08)
(1.86921e-07 4.40047e-07 -4.10452e-08)
(8.13784e-08 1.52613e-07 7.711e-09)
(5.28599e-05 1.56193e-05 -1.12991e-05)
(0.000194994 -3.39991e-05 0.00038543)
(4.33613e-05 3.6657e-05 3.54323e-05)
(9.86447e-05 -3.62261e-06 6.15598e-05)
(9.46363e-05 4.04257e-05 9.31118e-05)
(0.000161815 -2.34314e-05 0.000111861)
(7.26819e-05 1.57762e-05 2.47918e-05)
(0.0228419 0.00264546 0.0102792)
(0.0130312 0.00133945 0.00820602)
(6.44332e-08 1.1136e-07 -1.8716e-08)
(3.76443e-08 7.06992e-08 -4.82401e-10)
(8.42258e-08 2.08342e-07 -3.07012e-08)
(2.16966e-08 6.35342e-08 -3.65683e-09)
(9.16211e-08 1.59946e-07 -2.0231e-08)
(5.93218e-08 1.46719e-07 -2.51417e-08)
(2.66365e-08 4.84342e-08 -2.69239e-09)
(1.76131e-08 4.13056e-10 -1.66326e-08)
(1.60896e-08 2.37227e-10 -1.92221e-08)
(6.81587e-09 -4.84348e-11 -6.15907e-09)
(5.51895e-09 1.22252e-10 -6.99565e-09)
(1.72622e-08 2.35967e-10 -1.63601e-08)
(1.64242e-08 6.16075e-10 -1.94829e-08)
(6.95685e-09 1.09923e-10 -6.23978e-09)
(0.00311258 -3.36276e-05 0.00352538)
(0.00352139 -2.18957e-05 0.00402659)
(0.00343753 -5.21813e-05 0.00370429)
(0.00314293 -0.000140446 0.00380182)
(0.00316342 -7.36223e-05 0.00378384)
(0.0030782 -0.000104501 0.00347996)
(0.00347145 1.75311e-05 0.00375371)
(0.00315525 -0.000241423 0.00398917)
(0.000272814 -0.000130632 0.000496869)
(0.0029797 -0.000245507 0.0033729)
(0.00339109 -0.000126341 0.0036456)
(0.0034043 -0.000218166 0.00388011)
(0.00309335 -0.000224873 0.00374644)
(0.00303119 -0.000179794 0.00342609)
(0.00304465 -0.000272902 0.00364908)
(0.00334026 -0.000191129 0.0035877)
(0.000160589 -0.000221841 0.000394749)
(0.00017837 -0.00014715 0.00035854)
(5.23655e-05 -3.5995e-05 0.000105723)
(0.000103252 -0.000109094 0.000166758)
(0.000155642 -0.000133424 0.00031873)
(0.00020276 -0.000214912 0.00045036)
(7.64063e-05 -0.000109929 0.000136482)
(0.00431998 -9.28063e-06 0.00478092)
(0.0110846 0.00105026 0.0076388)
(0.00424689 0.000131818 0.00419836)
(0.0038987 3.39601e-05 0.00426523)
(0.00381618 4.21186e-06 0.00392467)
(0.00427567 3.01846e-05 0.00451846)
(0.00384957 7.27398e-05 0.00397781)
(0.00429518 9.36972e-05 0.00449998)
(0.00421409 6.44443e-05 0.00414181)
(0.0110233 0.00115713 0.0067301)
(0.0110488 0.00107972 0.0072323)
(0.0116961 0.00122249 0.00738141)
(0.0116358 0.00119781 0.00681487)
(0.0110619 0.00112911 0.00720003)
(0.011 0.00110417 0.00664594)
(0.0116583 0.0012497 0.00690003)
(0.00428759 -6.62446e-05 0.00473357)
(0.0110615 0.00100487 0.00756762)
(0.0041198 -7.03594e-05 0.004008)
(0.00377042 -6.87792e-05 0.00386148)
(0.0037835 -0.000159283 0.00410779)
(0.00422846 -5.04368e-05 0.00444938)
(0.00372036 -0.00013265 0.00379925)
(0.00416905 -7.41817e-06 0.00407439)
(0.00418198 -9.65268e-05 0.00433226)
(0.0109307 0.000996106 0.00644182)
(0.0110149 0.00101548 0.0071279)
(0.011604 0.00114167 0.00671116)
(0.0116171 0.00107386 0.00712493)
(0.0109672 0.00104694 0.00654365)
(0.0109803 0.000977568 0.00694701)
(0.0115686 0.00109176 0.00660776)
(0.0227928 0.00271101 0.00904261)
(0.0228159 0.00266246 0.00973568)
(0.0236565 0.00279383 0.00979744)
(0.0236192 0.00277291 0.00907352)
(0.0228205 0.00269561 0.00967232)
(0.0227819 0.00267444 0.00895598)
(0.0236294 0.00280852 0.00915954)
(0.0129723 0.00143827 0.00722931)
(0.0129973 0.00136648 0.00777042)
(0.0123452 0.00131707 0.00755908)
(0.0122863 0.00129263 0.00698025)
(0.0130087 0.0014127 0.00773315)
(0.012308 0.00134346 0.00706631)
(0.0129514 0.00138851 0.00714254)
(0.0228303 0.00261359 0.0102035)
(0.0130104 0.00129666 0.00813226)
(0.0227444 0.0025979 0.00873502)
(0.0227986 0.00261735 0.00962442)
(0.0236029 0.00273372 0.00896474)
(0.0236169 0.00269012 0.00952909)
(0.0227647 0.00263424 0.00884677)
(0.0227786 0.00258921 0.00940286)
(0.0235836 0.00269826 0.0088532)
(0.0128883 0.00128648 0.00693037)
(0.0129666 0.00130593 0.00766219)
(0.0122555 0.00123759 0.00687528)
(0.0122688 0.00117134 0.00729953)
(0.0122212 0.00118861 0.00677049)
(0.0129216 0.00133455 0.00703645)
(0.0129349 0.00126986 0.00747088)
(0.0245027 0.00289159 0.00991922)
(0.0244667 0.00287091 0.00918787)
(0.0244762 0.00290556 0.00927324)
(0.0244512 0.00283273 0.0090796)
(0.0244652 0.00279056 0.00965217)
(0.0244328 0.00279815 0.00896836)
(0.00169957 -0.000374012 0.00269248)
(1.57057e-06 2.11328e-06 8.29536e-08)
(1.05153e-06 1.30911e-06 4.11373e-08)
(3.29092e-06 2.51131e-06 -3.82581e-07)
(1.27094e-06 1.13258e-06 1.75664e-07)
(2.88604e-06 2.22826e-06 -4.80798e-08)
(2.16626e-06 2.96021e-06 2.08659e-07)
(7.81639e-07 9.11709e-07 9.47114e-08)
(0.00103425 -0.000407903 0.0018318)
(6.62516e-06 3.65548e-06 -6.29193e-08)
(2.7605e-06 2.40363e-06 6.66264e-07)
(3.95178e-06 5.3571e-06 1.96434e-06)
(1.64822e-06 1.51195e-06 2.83256e-07)
(3.04835e-06 3.71582e-06 6.33607e-07)
(7.07081e-06 1.83516e-06 6.177e-07)
(2.54308e-06 1.92839e-06 4.24509e-07)
(0.0188252 0.00214121 0.00955449)
(0.0165555 0.00183779 0.00907644)
(2.47458e-08 1.51016e-08 -1.85639e-08)
(7.62439e-09 8.40453e-09 -7.28579e-09)
(2.08863e-08 1.38101e-08 -2.18191e-08)
(9.04311e-09 4.42755e-09 -6.46398e-09)
(2.27965e-08 1.03299e-08 -1.82572e-08)
(2.26001e-08 2.02389e-08 -2.22983e-08)
(9.84099e-09 6.64786e-09 -6.38032e-09)
(2.04181e-08 4.36232e-09 -1.77924e-08)
(6.38856e-09 2.46618e-09 -7.3066e-09)
(1.99109e-08 8.95491e-09 -2.14298e-08)
(8.52573e-09 2.80073e-09 -6.50564e-09)
(2.15015e-08 6.3933e-09 -1.80408e-08)
(1.89205e-08 5.66442e-09 -2.0969e-08)
(8.07705e-09 1.61564e-09 -6.51251e-09)
(0.00161393 -0.000216168 0.00232273)
(0.00164934 -0.000331186 0.00252947)
(0.00142771 -0.000277859 0.0022346)
(0.00133666 -0.000315111 0.00205154)
(0.00166958 -0.000258429 0.00250732)
(0.00137019 -0.0002362 0.00206355)
(0.00157853 -0.000294416 0.00230249)
(0.000929696 -0.000253341 0.00151638)
(0.000976994 -0.000368778 0.00169476)
(0.0012054 -0.000287659 0.00196089)
(0.00111312 -0.000329362 0.00179835)
(0.000991354 -0.000291934 0.00166103)
(0.00114694 -0.000245205 0.00180535)
(0.000904463 -0.000334753 0.00152823)
(0.00166423 -0.000438068 0.00267528)
(0.00100564 -0.000474389 0.00184103)
(0.00147967 -0.00044627 0.00225652)
(0.00159849 -0.000422351 0.00250558)
(0.00129197 -0.000398332 0.00204008)
(0.00131026 -0.000495753 0.00219838)
(0.00153167 -0.000376351 0.00228015)
(0.00154821 -0.000473458 0.00244745)
(0.00124141 -0.000469394 0.00202538)
(0.000827137 -0.000493899 0.00155943)
(0.000939441 -0.000463544 0.00171663)
(0.00107172 -0.000415341 0.00179696)
(0.00109248 -0.000511109 0.00194743)
(0.000870594 -0.000421017 0.00154935)
(0.000895061 -0.000517278 0.00169483)
(0.00102378 -0.000485987 0.00179283)
(0.00657864 0.000348783 0.00595799)
(0.00814565 0.000596831 0.00661726)
(0.0065106 0.000477059 0.00524441)
(0.0065377 0.000384592 0.00563675)
(0.00706044 0.000521037 0.00582618)
(0.00698811 0.000494108 0.00536984)
(0.00655499 0.000442619 0.00561479)
(0.00701683 0.000554712 0.00544275)
(0.00648114 0.000415352 0.00517374)
(0.00808031 0.000717139 0.00582836)
(0.00810668 0.000630295 0.00626277)
(0.00758301 0.000601911 0.00603373)
(0.00751215 0.000575294 0.00556224)
(0.00812244 0.000685055 0.00623752)
(0.00754013 0.000634789 0.00563726)
(0.00805312 0.000658749 0.00575148)
(0.00654965 0.000296315 0.00589875)
(0.00811885 0.000547038 0.00655261)