/*--------------------------------*- C++ -*----------------------------------*\
| =========                 |                                                 |
| \\      /  F ield         | OpenFOAM: The Open Source CFD Toolbox           |
|  \\    /   O peration     | Version:  2012                                  |
|   \\  /    A nd           | Website:  www.openfoam.com                      |
|    \\/     M anipulation  |                                                 |
\*---------------------------------------------------------------------------*/
FoamFile
{
    version     2.0;
    format      ascii;
    class       volScalarField;
    location    "0.107/solid";
    object      epsilonEq;
}
// * * * * * * * * * * * * * * * * * * * * * * * * * * * * * * * * * * * * * //

dimensions      [0 0 0 0 0 0 0];


internalField   nonuniform List<scalar> 
3125
(
6.31295e-06
4.3826e-06
2.96787e-06
1.32951e-06
1.05207e-07
5.36425e-06
4.59246e-06
6.09491e-06
4.00725e-06
5.18548e-06
3.84808e-06
2.7666e-06
1.50117e-06
2.77504e-06
1.51492e-06
2.61353e-06
1.25315e-07
1.25124e-07
1.35255e-06
1.04954e-07
1.3431e-05
1.22216e-05
4.47209e-06
6.12008e-06
7.57166e-06
3.76354e-06
5.88979e-06
8.2483e-06
6.37271e-06
4.18403e-06
3.56107e-06
5.66322e-06
8.23072e-08
6.10762e-07
1.48002e-06
8.27299e-07
7.34829e-07
1.49033e-06
7.05741e-07
7.56906e-08
6.60191e-07
6.41449e-07
1.27672e-05
1.16976e-05
1.31067e-05
1.08978e-05
5.23018e-06
7.82466e-06
9.67366e-06
1.19305e-05
5.44507e-06
9.94809e-06
8.53043e-06
1.05919e-05
1.24509e-05
1.03088e-05
4.49738e-06
7.44146e-06
9.21996e-06
1.14131e-05
4.66545e-06
9.48538e-06
8.03894e-06
1.00139e-05
4.22366e-06
5.76091e-06
7.19956e-06
3.37963e-06
5.60096e-06
7.77048e-06
5.998e-06
3.9961e-06
3.22576e-06
5.38684e-06
4.25496e-06
2.87597e-06
2.03112e-06
1.60237e-06
2.58686e-06
3.9889e-06
2.21315e-06
2.74613e-06
1.62236e-06
2.7001e-06
4.02231e-06
2.74811e-06
1.99322e-06
1.57991e-06
2.50371e-06
3.81344e-06
2.14983e-06
2.65257e-06
1.58846e-06
2.5857e-06
8.75819e-08
6.2229e-07
1.4639e-06
8.57676e-07
7.4343e-07
1.46516e-06
7.1571e-07
8.23392e-08
6.88923e-07
6.51061e-07
1.75269e-05
8.2152e-06
5.41428e-06
6.32177e-06
5.4201e-06
4.17443e-06
4.96671e-06
1.0486e-05
9.37159e-06
3.30813e-06
3.16312e-06
3.69858e-06
7.31638e-08
1.64898e-07
1.42641e-06
1.16053e-06
1.14699e-06
1.50285e-06
1.05472e-06
6.09799e-08
2.99597e-07
3.4842e-07
1.74328e-05
7.64317e-06
1.70844e-05
1.57753e-05
4.80373e-06
5.57379e-06
6.04504e-06
8.04213e-06
5.87753e-06
7.52734e-06
1.08673e-05
1.20389e-05
1.69913e-05
1.56855e-05
4.1685e-06
5.18788e-06
5.6181e-06
7.47872e-06
5.00939e-06
6.99422e-06
1.07959e-05
1.19622e-05
5.37692e-06
6.27752e-06
5.04764e-06
3.69051e-06
4.63753e-06
1.04165e-05
9.3079e-06
3.15065e-06
2.91958e-06
3.49943e-06
5.12495e-06
4.29833e-06
1.67513e-06
1.52209e-06
1.8207e-06
3.18233e-06
2.58506e-06
2.81513e-06
1.66935e-06
2.21918e-06
5.08997e-06
4.27048e-06
1.67593e-06
1.518e-06
1.799e-06
3.03775e-06
2.45977e-06
2.70835e-06
1.66574e-06
2.21005e-06
3.01251e-07
3.12616e-07
6.92089e-08
1.65581e-07
1.42663e-06
1.1887e-06
1.15666e-06
1.50087e-06
1.05664e-06
6.40547e-08
3.18517e-07
3.60081e-07
1.64831e-05
9.19064e-06
7.61947e-06
6.63702e-06
5.17425e-06
5.15169e-06
6.02388e-06
7.23797e-06
5.3873e-06
6.31893e-06
5.9347e-06
6.83113e-06
5.41102e-06
3.96794e-06
4.38544e-06
4.81925e-06
6.5907e-06
4.74185e-06
5.24057e-06
7.95875e-06
9.01027e-06
9.91689e-06
7.42244e-06
8.87583e-06
7.55525e-06
7.15432e-06
8.5382e-06
3.51324e-06
4.79432e-06
3.95599e-06
3.36101e-06
4.24477e-06
3.832e-06
5.00579e-06
4.58008e-06
4.10842e-06
4.79042e-07
2.31089e-07
7.87204e-08
2.61497e-07
1.91074e-07
5.17793e-07
3.44662e-07
2.62861e-07
1.44217e-06
1.1384e-06
1.14939e-06
9.93143e-07
7.91427e-07
1.05695e-06
1.03246e-06
7.82964e-07
1.0556e-06
5.77494e-07
9.22604e-07
1.50275e-06
1.12569e-06
1.07739e-06
6.15672e-07
1.0141e-06
9.50922e-07
5.75509e-08
2.87254e-07
3.37283e-07
4.91826e-07
7.04426e-07
4.40337e-07
3.7385e-07
6.94172e-07
4.28701e-07
1.6189e-05
8.62267e-06
1.60709e-05
1.21462e-05
1.48511e-05
1.40767e-05
1.53455e-05
1.18305e-05
1.32675e-05
1.44504e-05
5.01637e-06
6.69186e-06
6.20442e-06
6.11307e-06
8.60096e-06
6.65942e-06
7.4118e-06
8.86527e-06
6.84499e-06
8.98786e-06
1.10684e-05
8.38665e-06
5.66087e-06
6.85636e-06
7.35828e-06
1.0785e-05
7.60383e-06
8.18889e-06
1.36612e-05
1.24383e-05
1.02729e-05
9.39604e-06
1.13665e-05
1.288e-05
9.69073e-06
1.17392e-05
1.57801e-05
1.15169e-05
1.45709e-05
1.39922e-05
1.52569e-05
1.12107e-05
1.3004e-05
1.41741e-05
4.33175e-06
6.21443e-06
5.76497e-06
5.71926e-06
8.18596e-06
6.22701e-06
6.9319e-06
8.44017e-06
6.40043e-06
8.42819e-06
1.05727e-05
7.85454e-06
4.83613e-06
6.36758e-06
6.83519e-06
1.02971e-05
7.11296e-06
7.66646e-06
1.35781e-05
1.23599e-05
1.00502e-05
8.86546e-06
1.11274e-05
1.26211e-05
9.14774e-06
1.14949e-05
7.56643e-06
6.59058e-06
5.05606e-06
4.85549e-06
5.88472e-06
7.07165e-06
5.07524e-06
6.17289e-06
5.55405e-06
6.49366e-06
5.07159e-06
3.53458e-06
4.11452e-06
4.5041e-06
6.26514e-06
4.45898e-06
4.91501e-06
7.90355e-06
8.94867e-06
9.69988e-06
6.98741e-06
8.67696e-06
7.38225e-06
6.73403e-06
8.34565e-06
3.34297e-06
4.56841e-06
3.74415e-06
3.07242e-06
3.98803e-06
3.61906e-06
4.76722e-06
4.31138e-06
3.88262e-06
4.90327e-06
3.63299e-06
4.12872e-06
3.29736e-06
4.03699e-06
3.43587e-06
3.19016e-06
3.88375e-06
1.85193e-06
2.24363e-06
1.92324e-06
1.54392e-06
1.99652e-06
1.86342e-06
2.32412e-06
2.13708e-06
1.97474e-06
3.37075e-06
3.42933e-06
2.95852e-06
2.39766e-06
2.35371e-06
2.69721e-06
3.25171e-06
2.44569e-06
2.8264e-06
3.06599e-06
2.41889e-06
1.66001e-06
2.05124e-06
2.17776e-06
2.97309e-06
2.20522e-06
2.36551e-06
4.79212e-06
3.44706e-06
4.03866e-06
3.27842e-06
4.01146e-06
3.26489e-06
3.12674e-06
3.80054e-06
1.83518e-06
2.18961e-06
1.89463e-06
1.535e-06
1.95102e-06
1.83494e-06
2.26082e-06
2.08291e-06
1.93857e-06
3.21374e-06
3.29059e-06
2.83996e-06
2.30539e-06
2.29039e-06
2.60172e-06
3.12464e-06
2.37244e-06
2.71971e-06
3.04911e-06
2.4079e-06
1.64194e-06
1.98634e-06
2.144e-06
2.9159e-06
2.1287e-06
2.32613e-06
4.82774e-07
2.33101e-07
7.78007e-08
2.73878e-07
1.96078e-07
5.2409e-07
3.57611e-07
2.68718e-07
1.43822e-06
1.13714e-06
1.15651e-06
1.02382e-06
8.05639e-07
1.06836e-06
1.03455e-06
7.96123e-07
1.06494e-06
5.8128e-07
9.25309e-07
1.4893e-06
1.1213e-06
1.07522e-06
6.21222e-07
1.01462e-06
9.51444e-07
6.26402e-08
2.97147e-07
3.49015e-07
5.1677e-07
7.18679e-07
4.53162e-07
3.84268e-07
7.07604e-07
4.41375e-07
2.01624e-05
2.06819e-05
6.05662e-06
6.40066e-06
1.19571e-05
1.15188e-05
2.10362e-08
2.87726e-08
1.51344e-06
1.33115e-06
2.02904e-05
2.08113e-05
1.96463e-05
1.91338e-05
1.2401e-05
1.28506e-05
1.97729e-05
1.92589e-05
1.24992e-05
1.2951e-05
6.11224e-06
6.45919e-06
1.20529e-05
1.16122e-05
5.7203e-06
5.39204e-06
1.706e-06
1.90872e-06
5.77317e-06
5.44198e-06
1.72037e-06
1.92522e-06
1.77643e-07
1.24109e-07
1.79465e-07
1.77514e-08
2.39924e-08
1.52577e-06
1.34156e-06
1.67504e-07
8.67395e-08
1.64729e-07
1.04694e-07
1.59629e-07
1.69162e-07
8.83908e-08
1.44251e-05
1.37572e-05
1.34473e-05
1.377e-05
1.47802e-05
1.1832e-05
1.11824e-05
1.25146e-05
1.25459e-05
1.2842e-05
1.14454e-05
1.15645e-05
8.62105e-06
8.23314e-06
4.69871e-06
4.69398e-06
4.50754e-06
4.73116e-06
4.93864e-06
6.16538e-06
6.48251e-06
5.87159e-06
5.91584e-06
6.21328e-06
7.04199e-06
7.00338e-06
7.80942e-06
7.3217e-06
7.55264e-06
7.27524e-06
6.77843e-06
5.91566e-06
6.07669e-06
6.11995e-06
5.48865e-06
6.3145e-06
5.699e-06
5.69613e-06
9.01571e-06
9.41714e-06
8.7908e-06
8.29657e-06
7.96955e-06
8.01801e-06
8.48822e-06
6.41891e-06
6.75627e-06
6.62934e-06
6.67631e-06
7.03446e-06
4.27321e-06
3.94779e-06
4.38338e-06
4.30763e-06
4.51499e-06
4.12825e-06
4.08339e-06
5.27508e-06
5.84237e-06
5.44031e-06
5.28431e-06
5.61169e-06
5.48543e-06
5.08321e-06
3.66615e-07
2.77062e-07
8.29307e-08
1.11846e-07
7.31398e-08
1.05152e-07
1.04512e-07
6.09359e-07
5.82528e-07
5.19138e-07
5.17593e-07
4.90675e-07
1.36301e-06
1.46905e-06
1.49152e-06
1.36207e-06
1.36973e-06
1.47827e-06
1.35782e-06
8.42107e-07
7.29341e-07
8.30931e-07
7.55024e-07
8.26567e-07
7.47308e-07
8.48897e-07
4.68721e-07
5.83485e-07
1.49499e-06
1.49422e-06
1.36363e-06
1.36626e-06
1.36118e-06
7.04515e-07
6.78621e-07
8.04486e-07
8.03539e-07
7.79324e-07
1.19937e-07
6.79812e-08
1.21045e-07
6.80679e-08
1.11825e-07
1.2726e-07
6.30357e-08
5.64133e-07
6.35155e-07
5.50419e-07
6.63129e-07
5.43618e-07
6.54667e-07
5.72868e-07
1.38655e-05
1.30857e-05
1.23077e-05
1.42143e-05
1.26171e-05
1.05201e-05
1.06674e-05
1.19842e-05
1.13153e-05
1.09238e-05
1.15965e-05
1.02691e-05
1.40721e-05
1.31263e-05
1.27844e-05
1.28073e-05
1.37214e-05
1.61398e-05
1.66285e-05
1.09358e-05
1.12062e-05
1.16693e-05
1.12422e-05
1.20047e-05
7.7493e-06
7.23102e-06
8.06908e-06
8.08059e-06
7.51107e-06
8.33149e-06
7.46126e-06
8.97401e-06
9.95936e-06
8.89352e-06
9.40168e-06
9.22515e-06
9.6821e-06
8.64907e-06
1.10336e-05
1.09209e-05
1.22513e-05
1.16412e-05
1.12983e-05
1.19583e-05
1.06611e-05
9.73326e-06
1.02389e-05
1.02248e-05
9.14012e-06
1.05206e-05
9.47829e-06
9.38877e-06
1.56555e-05
1.51759e-05
9.09708e-06
8.5783e-06
8.81581e-06
8.8631e-06
9.40697e-06
1.06318e-05
1.13368e-05
1.02888e-05
1.03303e-05
1.10073e-05
1.35192e-05
1.20007e-05
1.21371e-05
1.31754e-05
1.16962e-05
1.62548e-05
1.67453e-05
9.92578e-06
1.06065e-05
1.11714e-05
1.14979e-05
1.02137e-05
6.78926e-06
6.85994e-06
7.68652e-06
7.1706e-06
7.07912e-06
7.40736e-06
6.57897e-06
7.88434e-06
8.89454e-06
8.45062e-06
8.95723e-06
8.21562e-06
8.11168e-06
8.63908e-06
9.77332e-06
1.04127e-05
1.10363e-05
1.11307e-05
1.00201e-05
1.016e-05
1.07596e-05
8.57406e-06
9.15287e-06
9.75341e-06
8.68802e-06
8.92776e-06
9.41397e-06
8.3416e-06
1.57687e-05
1.5287e-05
8.68038e-06
8.31096e-06
7.73738e-06
8.97912e-06
7.99906e-06
9.64085e-06
1.0848e-05
9.72204e-06
1.05279e-05
9.35906e-06
8.69622e-06
8.30561e-06
4.48686e-06
4.42966e-06
4.08729e-06
4.71328e-06
4.28349e-06
5.55364e-06
6.1769e-06
5.52799e-06
5.92083e-06
5.33111e-06
6.16721e-06
6.64354e-06
6.9609e-06
6.93716e-06
6.43003e-06
6.37158e-06
6.70706e-06
5.1928e-06
5.401e-06
5.81874e-06
5.21281e-06
5.40786e-06
5.60959e-06
5.0076e-06
9.09367e-06
9.49768e-06
8.38553e-06
7.50569e-06
7.47936e-06
8.09464e-06
7.22505e-06
5.78031e-06
6.43761e-06
6.23927e-06
6.70287e-06
6.01115e-06
3.80411e-06
3.77245e-06
4.18283e-06
3.87003e-06
3.94045e-06
4.04761e-06
3.64577e-06
4.6469e-06
5.19614e-06
5.17644e-06
5.02095e-06
4.83238e-06
4.99496e-06
4.82562e-06
4.46399e-06
4.28862e-06
4.04265e-06
4.07442e-06
4.23461e-06
3.59652e-06
3.87431e-06
2.89583e-06
3.05726e-06
2.97655e-06
3.07909e-06
3.17169e-06
1.72135e-06
1.58388e-06
1.61821e-06
1.72922e-06
1.59779e-06
1.74981e-06
1.7024e-06
2.40335e-06
2.64294e-06
2.4944e-06
2.43227e-06
2.55253e-06
2.48178e-06
2.35255e-06
3.71508e-06
3.77098e-06
4.10453e-06
3.79802e-06
3.89729e-06
3.90576e-06
3.59791e-06
2.8639e-06
2.80901e-06
2.91007e-06
2.64024e-06
2.98e-06
2.70615e-06
2.79005e-06
3.32759e-06
3.06776e-06
1.6349e-06
1.62764e-06
1.75985e-06
1.7667e-06
1.78099e-06
2.71801e-06
2.78738e-06
2.5296e-06
2.54557e-06
2.60424e-06
4.26567e-06
3.89561e-06
3.82575e-06
4.04978e-06
3.70856e-06
3.62994e-06
3.91045e-06
2.68314e-06
2.91546e-06
2.86826e-06
3.05138e-06
2.84247e-06
1.66628e-06
1.56694e-06
1.69971e-06
1.56939e-06
1.67908e-06
1.68452e-06
1.55868e-06
2.24628e-06
2.45202e-06
2.42087e-06
2.35913e-06
2.28853e-06
2.37157e-06
2.31439e-06
3.33919e-06
3.60794e-06
3.69639e-06
3.63494e-06
3.49081e-06
3.447e-06
3.52677e-06
2.63157e-06
2.59363e-06
2.80567e-06
2.55674e-06
2.69614e-06
2.73913e-06
2.49993e-06
3.35849e-06
3.096e-06
1.6087e-06
1.71634e-06
1.57522e-06
1.74626e-06
1.69807e-06
2.52842e-06
2.6908e-06
2.42836e-06
2.51905e-06
2.3785e-06
3.67323e-07
2.76989e-07
8.68581e-08
1.21757e-07
8.61522e-08
1.14019e-07
1.23031e-07
6.31894e-07
5.95935e-07
5.31537e-07
5.04605e-07
5.41373e-07
1.35085e-06
1.4578e-06
1.35158e-06
1.45756e-06
1.35157e-06
1.45364e-06
1.34885e-06
8.66687e-07
7.52086e-07
8.38002e-07
7.64972e-07
8.5767e-07
8.45894e-07
7.74643e-07
4.70511e-07
5.86245e-07
1.4766e-06
1.34635e-06
1.45648e-06
1.34982e-06
1.34174e-06
7.24722e-07
6.90867e-07
8.12083e-07
7.89674e-07
8.20033e-07
1.41005e-07
7.45736e-08
1.29229e-07
8.22992e-08
1.35295e-07
1.31526e-07
7.79305e-08
5.94159e-07
6.60117e-07
5.60617e-07
6.73817e-07
5.83926e-07
5.69754e-07
6.83941e-07
1.87219e-05
1.79723e-05
1.9202e-05
6.93686e-06
5.9501e-06
6.00494e-06
6.84669e-06
7.11171e-06
6.75241e-06
5.68792e-06
5.71026e-06
6.00574e-06
6.66258e-06
6.01281e-06
6.33067e-06
4.66988e-06
4.30178e-06
4.76762e-06
4.22776e-06
4.53151e-06
4.03375e-06
4.10965e-06
4.43336e-06
1.06597e-05
1.10862e-05
1.11394e-05
1.01095e-05
1.07343e-05
9.94066e-06
9.73803e-06
1.03347e-05
3.16551e-06
2.8821e-06
2.96639e-06
3.06789e-06
3.28725e-06
3.15455e-06
3.07126e-06
3.38547e-06
8.70411e-08
5.16072e-08
4.65606e-08
7.72381e-08
5.14252e-08
1.25059e-07
1.10836e-07
7.85076e-08
1.29059e-06
1.35926e-06
1.37959e-06
1.26998e-06
1.20482e-06
1.10279e-06
1.1922e-06
1.11663e-06
9.98532e-07
1.15941e-06
1.49289e-06
1.34489e-06
1.32438e-06
1.01625e-06
1.19547e-06
1.16543e-06
1.59015e-07
1.06873e-07
1.69758e-07
8.98182e-08
2.55233e-07
3.63145e-07
2.59394e-07
3.57807e-07
5.23304e-06
4.1782e-06
4.17464e-06
4.04126e-06
4.09454e-06
4.24825e-06
4.19751e-06
5.12654e-06
5.0919e-06
4.94842e-06
4.98569e-06
3.45525e-06
3.4782e-06
3.57083e-06
3.55166e-06
4.0917e-06
4.09225e-06
4.0054e-06
4.00785e-06
1.88194e-05
1.78772e-05
1.93005e-05
5.28784e-06
4.5733e-06
4.56508e-06
5.24904e-06
1.8245e-05
1.66449e-05
1.77714e-05
1.81199e-05
1.86249e-05
1.62085e-05
1.68343e-05
1.73011e-05
5.00545e-06
4.42181e-06
4.90829e-06
4.49388e-06
5.14793e-06
4.68559e-06
4.6154e-06
5.24458e-06
6.60313e-06
5.8196e-06
6.69433e-06
5.76256e-06
6.45181e-06
5.57382e-06
5.63309e-06
6.35963e-06
1.37656e-05
1.33054e-05
1.15496e-05
1.12533e-05
1.1965e-05
1.28105e-05
1.16439e-05
1.23853e-05
1.83414e-05
1.65529e-05
1.78666e-05
1.82418e-05
1.87485e-05
1.61176e-05
1.69271e-05
1.73951e-05
3.96489e-06
3.61645e-06
3.62961e-06
3.92326e-06
4.07867e-06
3.74435e-06
3.7347e-06
4.11913e-06
5.07155e-06
4.44417e-06
4.45047e-06
5.11013e-06
4.9361e-06
4.32891e-06
4.3248e-06
4.89755e-06
1.38704e-05
1.34082e-05
1.16243e-05
1.11801e-05
1.20414e-05
1.28903e-05
1.15689e-05
1.24635e-05
3.93903e-06
3.88309e-06
3.72333e-06
3.78192e-06
2.74176e-06
2.81405e-06
2.9775e-06
2.90716e-06
3.38301e-06
3.35644e-06
3.255e-06
3.28524e-06
2.57719e-06
2.631e-06
2.74897e-06
2.6993e-06
1.41952e-06
1.50454e-06
1.66762e-06
1.58344e-06
2.65031e-06
2.57606e-06
2.41014e-06
2.48637e-06
1.45377e-06
1.53627e-06
1.68732e-06
1.60807e-06
2.50873e-06
2.45113e-06
2.32101e-06
2.38236e-06
7.17577e-06
6.8138e-06
5.73028e-06
5.67058e-06
6.05025e-06
6.71133e-06
5.97081e-06
6.37729e-06
3.77046e-06
3.51455e-06
3.81317e-06
3.49793e-06
3.66331e-06
3.37845e-06
3.39884e-06
3.61921e-06
1.07481e-05
1.11772e-05
1.12123e-05
1.00419e-05
1.08054e-05
1.00079e-05
9.67233e-06
1.04039e-05
2.78678e-06
2.62723e-06
2.67298e-06
2.72996e-06
2.87832e-06
2.79933e-06
2.75817e-06
2.93238e-06
5.37723e-06
4.84244e-06
5.07399e-06
4.75977e-06
5.07175e-06
4.56684e-06
4.49e-06
4.77814e-06
1.55965e-06
1.43989e-06
1.46945e-06
1.52896e-06
1.65244e-06
1.70099e-06
1.61195e-06
1.74404e-06
2.85206e-06
2.77972e-06
2.94911e-06
2.69439e-06
2.7372e-06
2.50871e-06
2.59485e-06
2.64081e-06
2.3437e-06
2.12128e-06
1.67074e-06
1.84432e-06
1.85794e-06
2.25942e-06
2.02763e-06
2.05415e-06
5.41751e-06
4.80982e-06
5.11207e-06
4.80405e-06
5.119e-06
4.53664e-06
4.52395e-06
4.81422e-06
1.57162e-06
1.46647e-06
1.54604e-06
1.4924e-06
1.65421e-06
1.69892e-06
1.62314e-06
1.73061e-06
2.58122e-06
2.54374e-06
2.4936e-06
2.64069e-06
2.49308e-06
2.35673e-06
2.41136e-06
2.4309e-06
2.36464e-06
2.1401e-06
1.68241e-06
1.83893e-06
1.87107e-06
2.27579e-06
2.02037e-06
2.06888e-06
1.34235e-06
1.25613e-06
1.09373e-06
1.1809e-06
1.23008e-07
1.77836e-07
3.65782e-07
2.63137e-07
1.38132e-06
1.29624e-06
1.13609e-06
1.2233e-06
1.25582e-07
1.91421e-07
3.93798e-07
2.86182e-07
8.51598e-08
4.8927e-08
4.28275e-08
7.34305e-08
4.73343e-08
1.22993e-07
1.09861e-07
7.58389e-08
1.32895e-06
1.38991e-06
1.41067e-06
1.30705e-06
1.24719e-06
1.14514e-06
1.23084e-06
1.16345e-06
1.00541e-06
1.16813e-06
1.50308e-06
1.34434e-06
1.33313e-06
1.02252e-06
1.19629e-06
1.17297e-06
1.69058e-07
7.21087e-08
1.53695e-07
7.11932e-08
1.59296e-07
7.81077e-08
1.63079e-07
1.7838e-07
1.10733e-07
1.85158e-07
9.4815e-08
2.86978e-07
3.94624e-07
2.85598e-07
3.95965e-07
1.54547e-05
1.68979e-05
1.58399e-05
7.4783e-06
7.85221e-06
8.05698e-06
7.286e-06
7.69858e-06
7.00124e-06
6.95848e-06
7.34665e-06
4.93406e-06
5.45143e-06
5.19255e-06
4.92058e-06
5.19208e-06
5.43381e-06
4.95944e-06
5.18371e-06
5.73469e-06
5.72621e-06
5.45663e-06
6.85749e-06
6.92608e-06
6.56694e-06
5.6273e-06
5.42909e-06
5.68885e-06
5.67039e-06
5.94869e-06
6.61969e-06
6.00122e-06
6.28148e-06
6.81124e-06
7.07482e-06
7.04792e-06
6.3368e-06
6.58312e-06
7.29877e-06
6.55621e-06
4.06516e-06
3.64653e-06
3.96666e-06
3.72568e-06
4.19865e-06
3.91747e-06
4.29718e-06
3.83983e-06
6.1353e-06
6.35361e-06
6.80021e-06
6.12026e-06
6.35779e-06
6.5557e-06
5.90669e-06
1.02392e-05
9.82499e-06
8.42162e-06
8.30371e-06
8.79248e-06
9.55209e-06
8.65426e-06
9.16933e-06
9.35139e-06
9.56527e-06
9.02422e-06
7.69422e-06
7.47082e-06
7.89457e-06
7.74273e-06
8.18944e-06
9.21822e-06
8.38254e-06
8.70123e-06
7.15301e-06
7.87778e-06
7.45338e-06
6.88992e-06
7.20239e-06
7.60371e-06
6.9375e-06
7.31697e-06
8.20547e-06
8.06826e-06
7.75849e-06
4.46664e-06
4.58685e-06
4.94194e-06
4.49987e-06
4.7265e-06
4.6636e-06
4.3123e-06
3.73695e-06
3.53437e-06
3.83553e-06
3.45365e-06
3.60906e-06
3.26199e-06
3.51063e-06
3.34406e-06
5.06793e-06
5.22114e-06
5.16136e-06
4.69093e-06
5.38467e-06
4.86406e-06
4.8854e-06
1.37403e-07
2.00836e-07
4.19963e-07
3.88519e-07
3.31032e-07
1.83524e-07
3.05919e-07
2.52382e-07
8.46797e-08
8.56411e-08
9.60732e-08
1.82248e-07
2.58683e-07
2.39219e-07
1.78448e-07
1.65421e-07
1.29324e-07
2.16304e-07
1.48329e-07
5.52162e-07
4.26418e-07
4.60369e-07
4.30552e-07
3.42523e-07
3.19001e-07
4.28778e-07
4.02939e-07
3.41482e-07
2.92358e-07
3.73833e-07
1.25166e-06
1.24815e-06
1.13978e-06
1.14532e-06
1.14414e-06
1.25241e-06
1.2499e-06
8.65796e-07
7.73361e-07
7.78606e-07
8.63665e-07
9.46061e-07
1.02708e-06
1.03347e-06
9.37278e-07
9.39624e-07
9.30036e-07
1.03151e-06
1.04381e-06
1.04027e-06
9.27149e-07
9.45072e-07
8.48626e-07
7.10183e-07
5.18882e-07
6.84141e-07
6.28104e-07
8.76784e-07
7.99102e-07
7.47381e-07
1.49971e-06
1.35324e-06
1.35831e-06
1.24207e-06
1.12634e-06
1.11162e-06
1.24356e-06
1.23344e-06
1.21145e-06
1.09611e-06
1.22382e-06
6.49212e-07
7.20341e-07
7.51877e-07
9.07093e-07
1.01406e-06
9.95415e-07
9.06528e-07
8.84736e-07
8.31977e-07
9.74951e-07
8.60321e-07
2.09874e-07
2.02213e-07
2.79718e-07
3.06434e-07
1.94739e-07
2.98314e-07
2.17003e-07
6.1031e-07
7.00263e-07
6.98946e-07
6.07623e-07
5.31906e-07
4.40754e-07
4.41632e-07
5.35139e-07
4.75152e-07
4.61408e-07
3.66527e-07
3.95385e-07
4.54303e-07
3.86876e-07
4.83843e-07
4.54963e-06
4.50435e-06
4.35195e-06
4.39995e-06
4.65461e-06
4.69723e-06
4.84261e-06
4.80265e-06
3.75029e-06
3.73798e-06
3.64587e-06
3.66149e-06
3.82852e-06
3.83738e-06
3.92312e-06
3.9176e-06
1.50508e-05
1.66007e-05
1.54316e-05
1.50718e-05
1.56614e-05
1.46915e-05
1.24642e-05
1.21748e-05
1.30271e-05
1.249e-05
1.33731e-05
1.52548e-05
1.39387e-05
1.43138e-05
1.76187e-05
1.71215e-05
1.50045e-05
1.4496e-05
1.54561e-05
1.63712e-05
1.4919e-05
1.59117e-05
1.15172e-05
1.18618e-05
1.26837e-05
1.15509e-05
1.23429e-05
1.24672e-05
1.36585e-05
1.28306e-05
1.35665e-05
1.40529e-05
1.3197e-05
5.63065e-06
5.06719e-06
5.00125e-06
5.72572e-06
5.48471e-06
4.8087e-06
5.3889e-06
4.87672e-06
7.98984e-06
8.33938e-06
8.86423e-06
7.92923e-06
8.23261e-06
8.59655e-06
7.694e-06
8.72482e-06
9.13221e-06
9.13446e-06
8.16687e-06
8.47766e-06
9.40714e-06
8.40684e-06
1.07703e-05
1.13538e-05
1.13775e-05
1.01466e-05
1.1667e-05
1.05086e-05
1.04029e-05
5.96734e-06
5.19311e-06
5.25681e-06
5.87324e-06
6.11624e-06
5.44547e-06
6.20947e-06
5.38396e-06
9.99002e-06
1.05038e-05
1.109e-05
9.89207e-06
1.08043e-05
1.02485e-05
9.63945e-06
1.42307e-05
1.47009e-05
1.4557e-05
1.32495e-05
1.41137e-05
1.32403e-05
1.28418e-05
1.36748e-05
9.68265e-06
1.06333e-05
1.00179e-05
9.10439e-06
9.44162e-06
1.00372e-05
9.15089e-06
9.72038e-06
1.09979e-05
1.06999e-05
1.0357e-05
1.2107e-05
1.24961e-05
1.17502e-05
9.98834e-06
9.73517e-06
1.03574e-05
1.00315e-05
1.06807e-05
1.21157e-05
1.10464e-05
1.13965e-05
1.46725e-05
1.5374e-05
1.4297e-05
1.18257e-05
1.24958e-05
1.10949e-05
1.28342e-05
1.13942e-05
1.49709e-05
1.35545e-05
1.39243e-05
1.7739e-05
1.72401e-05
1.5092e-05
1.44101e-05
1.5545e-05
1.64627e-05
1.48316e-05
1.60019e-05
1.09072e-05
1.21603e-05
1.07984e-05
1.18276e-05
1.05046e-05
1.21065e-05
1.33906e-05
1.24637e-05
1.31878e-05
1.37806e-05
1.28241e-05
4.39688e-06
3.97434e-06
3.97079e-06
4.43608e-06
4.27604e-06
3.85261e-06
4.23622e-06
3.85915e-06
7.00257e-06
7.93471e-06
7.52581e-06
7.89071e-06
7.30108e-06
7.21884e-06
7.64744e-06
7.6597e-06
8.69727e-06
7.75317e-06
8.13711e-06
7.98309e-06
7.4379e-06
8.38658e-06
9.52879e-06
1.08505e-05
9.66069e-06
1.02137e-05
9.9093e-06
1.04854e-05
9.28656e-06
4.59926e-06
4.08934e-06
4.09012e-06
4.56037e-06
4.72736e-06
4.20688e-06
4.76589e-06
4.20872e-06
8.8091e-06
1.0024e-05
9.41417e-06
9.94447e-06
9.16984e-06
9.67786e-06
9.04662e-06
1.43378e-05
1.481e-05
1.46431e-05
1.3168e-05
1.41983e-05
1.33218e-05
1.27619e-05
1.37578e-05
9.37931e-06
1.04049e-05
9.70665e-06
8.5865e-06
9.58789e-06
8.53292e-06
9.28166e-06
8.26428e-06
1.0764e-05
1.03735e-05
1.00381e-05
1.17528e-05
1.22418e-05
1.14025e-05
9.4333e-06
9.89773e-06
8.80499e-06
1.02111e-05
9.08042e-06
1.18664e-05
1.07127e-05
1.10557e-05
3.39987e-06
3.4633e-06
3.62331e-06
3.56222e-06
3.30222e-06
3.23638e-06
3.07214e-06
3.14029e-06
3.04288e-06
3.08096e-06
3.18455e-06
3.15055e-06
2.97386e-06
2.93199e-06
2.81758e-06
2.86323e-06
1.99453e-06
1.91333e-06
1.74805e-06
1.83088e-06
2.07877e-06
2.15846e-06
2.3225e-06
2.24438e-06
1.97799e-06
1.9053e-06
1.75877e-06
1.83464e-06
2.04803e-06
2.11699e-06
2.25173e-06
2.18662e-06
7.54524e-06
7.92191e-06
8.11423e-06
7.23515e-06
7.75375e-06
7.05218e-06
6.90981e-06
7.39966e-06
4.77674e-06
5.32619e-06
5.02548e-06
4.64024e-06
5.1814e-06
4.68927e-06
4.9448e-06
4.4841e-06
5.60242e-06
5.53977e-06
5.27983e-06
6.63311e-06
6.76645e-06
6.35192e-06
5.29941e-06
5.42301e-06
4.89889e-06
5.66953e-06
5.11282e-06
6.4668e-06
5.80518e-06
6.07591e-06
5.96602e-06
6.72558e-06
6.01201e-06
6.25741e-06
6.21951e-06
5.76801e-06
6.48049e-06
3.36865e-06
3.13589e-06
3.16429e-06
3.321e-06
3.46979e-06
3.28224e-06
3.51542e-06
3.25802e-06
5.38128e-06
6.04015e-06
5.80747e-06
6.03784e-06
5.60606e-06
5.57303e-06
5.82191e-06
1.03251e-05
9.90824e-06
8.48097e-06
8.24637e-06
8.85381e-06
9.61741e-06
8.59478e-06
9.23267e-06
9.05614e-06
9.35415e-06
8.73724e-06
7.24463e-06
7.52516e-06
6.72772e-06
7.80782e-06
6.97449e-06
9.01314e-06
8.11272e-06
8.42273e-06
6.91932e-06
7.69818e-06
7.21047e-06
6.48464e-06
7.24671e-06
6.48488e-06
6.97259e-06
6.24604e-06
8.01933e-06
7.80725e-06
7.50647e-06
3.96586e-06
4.37356e-06
4.2869e-06
4.41476e-06
4.1119e-06
4.22913e-06
4.13107e-06
3.17336e-06
3.0447e-06
3.01222e-06
3.22295e-06
3.07747e-06
2.88629e-06
3.02569e-06
2.92308e-06
4.47158e-06
4.96987e-06
4.46539e-06
4.60431e-06
4.64718e-06
4.79766e-06
4.29968e-06
4.6813e-06
4.6386e-06
4.43439e-06
3.83528e-06
3.66082e-06
3.79236e-06
3.86507e-06
4.01069e-06
4.38037e-06
3.95858e-06
4.19345e-06
4.45605e-06
4.16091e-06
3.41583e-06
3.53638e-06
3.67229e-06
4.20948e-06
3.78298e-06
3.9369e-06
3.24392e-06
3.46173e-06
3.57967e-06
3.26778e-06
3.37274e-06
3.08202e-06
3.41437e-06
3.29155e-06
3.72986e-06
3.6456e-06
3.5075e-06
2.03373e-06
2.05212e-06
1.96394e-06
2.12738e-06
1.93353e-06
1.78684e-06
1.84091e-06
1.87546e-06
1.84917e-06
1.86057e-06
2.02777e-06
1.95077e-06
1.98131e-06
1.88633e-06
1.82466e-06
2.25842e-06
2.28235e-06
2.17412e-06
2.08074e-06
2.11768e-06
2.32551e-06
2.21467e-06
3.5367e-06
3.61146e-06
3.52146e-06
3.26309e-06
3.71133e-06
3.3623e-06
3.42859e-06
2.32619e-06
2.14344e-06
2.23104e-06
2.23168e-06
2.43375e-06
2.41189e-06
2.52928e-06
2.32491e-06
3.02587e-06
3.07859e-06
3.33629e-06
3.10149e-06
3.15577e-06
3.19203e-06
2.9438e-06
2.5756e-06
2.81706e-06
3.16753e-06
2.84237e-06
2.92766e-06
2.47348e-06
2.62666e-06
2.69627e-06
1.64802e-06
1.82497e-06
1.80328e-06
1.9028e-06
2.06158e-06
2.09174e-06
1.91136e-06
1.93323e-06
1.99756e-06
2.13451e-06
1.96542e-06
2.87909e-06
2.76321e-06
2.6828e-06
2.36469e-06
2.21737e-06
2.25648e-06
2.37872e-06
2.42731e-06
2.56068e-06
2.31053e-06
2.49329e-06
4.53372e-06
4.5345e-06
4.29654e-06
3.634e-06
3.63403e-06
3.34829e-06
3.83923e-06
3.52617e-06
4.28332e-06
3.83997e-06
4.06528e-06
4.49764e-06
4.19973e-06
3.44164e-06
3.51535e-06
3.70016e-06
4.24138e-06
3.75971e-06
3.96673e-06
3.0877e-06
3.43427e-06
3.17496e-06
3.24007e-06
3.00638e-06
2.99988e-06
3.34452e-06
3.20061e-06
3.62067e-06
3.56911e-06
3.40753e-06
1.97065e-06
1.99434e-06
1.92655e-06
2.04157e-06
1.88694e-06
1.77647e-06
1.81332e-06
1.84827e-06
1.77643e-06
1.82328e-06
1.9127e-06
1.92515e-06
1.7942e-06
1.88942e-06
1.80296e-06
2.12423e-06
2.21888e-06
2.03463e-06
2.05113e-06
2.15982e-06
2.0054e-06
2.18079e-06
3.19105e-06
3.46068e-06
3.13596e-06
3.1998e-06
3.28971e-06
3.3613e-06
3.04627e-06
2.1938e-06
2.07328e-06
2.13672e-06
2.12573e-06
2.27941e-06
2.27581e-06
2.34445e-06
2.21678e-06
2.76649e-06
2.96301e-06
2.98568e-06
3.04216e-06
2.83911e-06
2.88864e-06
2.90468e-06
2.59902e-06
2.84288e-06
3.19141e-06
2.8275e-06
2.94954e-06
2.49166e-06
2.61373e-06
2.71626e-06
1.62689e-06
1.8019e-06
1.77563e-06
1.84886e-06
2.0382e-06
1.95655e-06
1.88938e-06
1.82504e-06
1.96923e-06
2.09268e-06
1.93085e-06
2.80549e-06
2.71211e-06
2.61752e-06
2.276e-06
2.19274e-06
2.09261e-06
2.353e-06
2.23321e-06
2.51548e-06
2.2611e-06
2.43602e-06
7.70374e-07
8.59317e-07
1.02e-06
9.31894e-07
6.98169e-07
6.06749e-07
4.41969e-07
5.3483e-07
8.09647e-07
9.0069e-07
1.06287e-06
9.73727e-07
7.3629e-07
6.42806e-07
4.73492e-07
5.6862e-07
1.36067e-07
1.99932e-07
4.21146e-07
3.91963e-07
3.31437e-07
1.82412e-07
3.08793e-07
2.51965e-07
8.6626e-08
8.7227e-08
1.01336e-07
1.93739e-07
2.52103e-07
2.81546e-07
1.77181e-07
1.99507e-07
1.33207e-07
2.24746e-07
1.55593e-07
5.61803e-07
4.32979e-07
4.70359e-07
4.43466e-07
3.32635e-07
3.66629e-07
4.16942e-07
4.53121e-07
3.47877e-07
3.01629e-07
3.83669e-07
1.25031e-06
1.24273e-06
1.14714e-06
1.1402e-06
1.2481e-06
1.15178e-06
1.24319e-06
9.1593e-07
8.15938e-07
9.06435e-07
8.28478e-07
9.96761e-07
1.06963e-06
1.08244e-06
9.81431e-07
9.60075e-07
9.34951e-07
1.04843e-06
1.03966e-06
9.52045e-07
1.05499e-06
9.41691e-07
8.54069e-07
7.14249e-07
5.20967e-07
6.87782e-07
6.3106e-07
8.81896e-07
8.02416e-07
7.51398e-07
1.48457e-06
1.34397e-06
1.3486e-06
1.23179e-06
1.11165e-06
1.12327e-06
1.22825e-06
1.23079e-06
1.206e-06
1.09532e-06
1.21892e-06
6.57994e-07
7.24672e-07
7.59197e-07
9.11661e-07
9.9981e-07
1.01906e-06
8.92595e-07
9.18123e-07
8.34668e-07
9.77591e-07
8.65644e-07
2.35012e-07
2.11374e-07
3.16693e-07
3.04549e-07
2.26367e-07
2.17621e-07
3.25834e-07
6.57612e-07
7.41329e-07
6.47431e-07
7.48128e-07
5.76249e-07
4.75658e-07
4.83513e-07
5.72109e-07
5.05069e-07
4.71864e-07
4.06318e-07
3.92689e-07
4.94989e-07
4.80783e-07
4.1608e-07
1.51199e-07
8.66404e-08
1.61729e-07
1.03138e-07
1.58509e-07
1.53645e-07
8.55287e-08
1.74991e-07
1.23007e-07
1.70889e-07
1.27105e-07
6.06777e-08
1.39297e-07
5.77595e-08
1.34718e-07
1.33339e-07
5.80387e-08
1.48356e-07
6.68171e-08
1.47236e-07
6.93705e-08
1.55718e-07
1.41379e-07
7.19726e-08
7.98617e-06
7.34773e-06
8.38993e-06
8.70824e-06
7.48201e-06
7.83365e-06
8.88826e-06
5.14821e-06
4.94882e-06
5.7456e-06
5.26718e-06
5.29121e-06
4.82477e-06
5.58299e-06
5.00685e-06
5.2587e-06
5.11653e-06
4.56532e-06
4.68776e-06
5.41863e-06
4.86543e-06
3.39928e-06
3.11645e-06
3.43664e-06
3.45537e-06
3.22764e-06
3.27281e-06
3.594e-06
3.52414e-06
3.87955e-06
3.56629e-06
3.45762e-06
3.34443e-06
3.73698e-06
3.65346e-06
1.31945e-06
1.40356e-06
1.43046e-06
1.33166e-06
1.41543e-06
1.30952e-06
1.3328e-06
1.22994e-06
1.14243e-06
1.23891e-06
1.13272e-06
1.2255e-06
1.23619e-06
1.1368e-06
1.49359e-07
7.11705e-08
1.46415e-07
6.39261e-08
1.52966e-07
7.39527e-08
1.43485e-07
2.49313e-07
3.40119e-07
2.50376e-07
3.59011e-07
2.50598e-07
2.45569e-07
3.51249e-07
6.45536e-06
6.87502e-06
7.80842e-06
7.23102e-06
6.9883e-06
6.34219e-06
7.38906e-06
5.57963e-06
5.08893e-06
5.91277e-06
5.72973e-06
5.43482e-06
5.2145e-06
6.07811e-06
5.72508e-06
6.41547e-06
5.48459e-06
5.88629e-06
5.35758e-06
5.87126e-06
6.24777e-06
7.52606e-06
7.18662e-06
8.52532e-06
7.86929e-06
7.67792e-06
7.05307e-06
8.34668e-06
7.37142e-06
7.98794e-06
7.69819e-06
6.76157e-06
6.89424e-06
8.16519e-06
7.22011e-06
4.55883e-06
4.78566e-06
5.32959e-06
4.91563e-06
4.88603e-06
4.46446e-06
5.04655e-06
4.68014e-06
5.31495e-06
5.13192e-06
5.47312e-06
5.03003e-06
4.77676e-06
5.18036e-06
6.08833e-06
6.70954e-06
7.07284e-06
7.316e-06
6.19926e-06
6.59787e-06
6.91779e-06
5.9483e-06
6.6111e-06
7.15423e-06
6.32501e-06
6.43505e-06
6.76285e-06
5.83999e-06
4.25398e-06
4.64514e-06
4.90928e-06
4.78554e-06
4.54632e-06
4.34651e-06
4.65809e-06
4.13904e-06
4.40783e-06
4.77248e-06
4.31202e-06
4.40944e-06
4.53161e-06
4.04862e-06
2.98793e-06
3.00913e-06
3.26536e-06
3.04688e-06
3.10001e-06
2.90448e-06
3.15155e-06
3.08641e-06
3.36567e-06
3.38145e-06
3.30616e-06
3.21453e-06
3.25808e-06
3.17051e-06
1.60793e-06
1.49015e-06
1.53141e-06
1.62019e-06
1.50863e-06
1.58592e-06
1.63359e-06
1.70425e-06
1.84572e-06
1.77276e-06
1.71918e-06
1.67538e-06
1.80711e-06
1.73906e-06
3.02781e-06
3.00321e-06
3.31667e-06
3.05771e-06
3.15101e-06
2.89404e-06
3.18239e-06
2.90968e-06
2.91829e-06
2.93582e-06
2.67728e-06
2.78439e-06
3.04821e-06
2.78956e-06
1.5976e-06
1.50073e-06
1.61089e-06
1.51897e-06
1.58954e-06
1.51267e-06
1.60817e-06
1.68387e-06
1.78844e-06
1.76727e-06
1.70405e-06
1.67861e-06
1.76799e-06
1.69807e-06
2.72534e-06
2.89815e-06
2.94317e-06
2.92629e-06
2.80846e-06
2.80802e-06
2.84109e-06
2.63105e-06
2.64039e-06
2.81669e-06
2.61104e-06
2.70064e-06
2.73993e-06
2.54833e-06
1.34174e-06
1.41384e-06
1.33565e-06
1.43004e-06
1.32491e-06
1.42735e-06
1.34175e-06
1.25663e-06
1.16603e-06
1.24607e-06
1.15102e-06
1.24018e-06
1.25353e-06
1.17046e-06
2.77772e-07
3.70432e-07
2.60432e-07