/*--------------------------------*- C++ -*----------------------------------*\
| =========                 |                                                 |
| \\      /  F ield         | OpenFOAM: The Open Source CFD Toolbox           |
|  \\    /   O peration     | Version:  2012                                  |
|   \\  /    A nd           | Website:  www.openfoam.com                      |
|    \\/     M anipulation  |                                                 |
\*---------------------------------------------------------------------------*/
FoamFile
{
    version     2.0;
    format      ascii;
    class       pointVectorField;
    location    "0.107/solid";
    object      pointD;
}
// * * * * * * * * * * * * * * * * * * * * * * * * * * * * * * * * * * * * * //

dimensions      [0 1 0 0 0 0 0];


internalField   nonuniform List<vector> 
4493
(
(2.31933e-05 -7.07161e-06 -1.38776e-06)
(4.31303e-05 -1.42718e-05 -1.53568e-06)
(1.43285e-05 -4.15951e-06 -1.19613e-06)
(3.29696e-05 -1.0518e-05 -1.49395e-06)
(5.33079e-05 -1.81245e-05 -1.53888e-06)
(1.44164e-05 -4.12087e-06 -4.82256e-06)
(3.29959e-05 -1.05262e-05 -6.05919e-06)
(5.33082e-05 -1.81529e-05 -6.26987e-06)
(1.86091e-05 -5.53645e-06 -1.30365e-06)
(2.32472e-05 -7.05965e-06 -5.61442e-06)
(2.80037e-05 -8.74141e-06 -1.45041e-06)
(3.80292e-05 -1.23712e-05 -1.52124e-06)
(4.31379e-05 -1.42943e-05 -6.24188e-06)
(4.82344e-05 -1.61957e-05 -1.54128e-06)
(2.80428e-05 -8.74023e-06 -5.87555e-06)
(4.82354e-05 -1.62217e-05 -6.26923e-06)
(1.86794e-05 -5.51214e-06 -5.26605e-06)
(3.80448e-05 -1.23874e-05 -6.17683e-06)
(1.45008e-05 -4.10207e-06 -6.69399e-06)
(3.30216e-05 -1.05307e-05 -8.4012e-06)
(5.33062e-05 -1.81668e-05 -8.79651e-06)
(2.08683e-05 -6.28561e-06 -1.34852e-06)
(2.32131e-05 -7.06827e-06 -3.508e-06)
(2.55748e-05 -7.89134e-06 -1.42164e-06)
(4.05773e-05 -1.33173e-05 -1.52983e-06)
(4.31327e-05 -1.42835e-05 -3.89868e-06)
(4.56835e-05 -1.52319e-05 -1.53932e-06)
(1.4361e-05 -4.14354e-06 -3.01431e-06)
(1.64258e-05 -4.82694e-06 -1.25291e-06)
(2.32993e-05 -7.05405e-06 -7.78864e-06)
(3.2979e-05 -1.05236e-05 -3.78505e-06)
(3.04713e-05 -9.6182e-06 -1.47441e-06)
(3.54912e-05 -1.14369e-05 -1.50943e-06)
(4.31459e-05 -1.4306e-05 -8.64927e-06)
(5.33071e-05 -1.81387e-05 -3.92088e-06)
(5.08029e-05 -1.71701e-05 -1.54209e-06)
(1.65047e-05 -4.79574e-06 -5.05662e-06)
(1.8747e-05 -5.5004e-06 -7.30737e-06)
(2.80808e-05 -8.74002e-06 -8.14878e-06)
(3.05037e-05 -9.62189e-06 -5.97638e-06)
(3.55118e-05 -1.14493e-05 -6.12546e-06)
(3.80605e-05 -1.2396e-05 -8.56188e-06)
(4.82379e-05 -1.62353e-05 -8.6843e-06)
(5.07947e-05 -1.71945e-05 -6.27361e-06)
(1.8635e-05 -5.52736e-06 -3.29085e-06)
(2.56211e-05 -7.88494e-06 -5.75532e-06)
(2.09302e-05 -6.26769e-06 -5.45167e-06)
(2.80179e-05 -8.74294e-06 -3.67072e-06)
(3.80345e-05 -1.23802e-05 -3.85823e-06)
(4.56881e-05 -1.52567e-05 -6.25928e-06)
(4.05886e-05 -1.33368e-05 -6.21503e-06)
(4.82337e-05 -1.62086e-05 -3.91575e-06)
(3.05353e-05 -9.62413e-06 -8.28751e-06)
(2.55917e-05 -7.89053e-06 -3.59581e-06)
(2.56659e-05 -7.88212e-06 -7.98307e-06)
(3.0483e-05 -9.62187e-06 -3.73351e-06)
(5.07904e-05 -1.72066e-05 -8.69089e-06)
(4.56847e-05 -1.52445e-05 -3.90953e-06)
(4.56931e-05 -1.52695e-05 -8.67191e-06)
(5.07923e-05 -1.71801e-05 -3.9189e-06)
(1.65806e-05 -4.78059e-06 -7.01779e-06)
(2.0891e-05 -6.27952e-06 -3.40656e-06)
(1.6455e-05 -4.81456e-06 -3.16027e-06)
(2.09899e-05 -6.25912e-06 -7.56389e-06)
(3.55323e-05 -1.1456e-05 -8.49191e-06)
(4.05811e-05 -1.33277e-05 -3.88198e-06)
(3.54984e-05 -1.14443e-05 -3.82629e-06)
(4.06001e-05 -1.33471e-05 -8.61348e-06)
(1.33389e-05 -3.85931e-06 -2.55843e-06)
(2.43852e-05 -7.49205e-06 -3.13335e-06)
(3.17174e-05 -1.00777e-05 -3.33401e-06)
(4.43994e-05 -1.47604e-05 -3.47491e-06)
(5.20861e-05 -1.76705e-05 -3.48588e-06)
(1.33133e-05 -3.81592e-06 -1.77267e-06)
(2.20335e-05 -6.68949e-06 -3.04326e-06)
(1.53856e-05 -4.50466e-06 -2.69871e-06)
(2.20259e-05 -6.66212e-06 -2.05377e-06)
(1.53651e-05 -4.46547e-06 -1.85761e-06)
(2.43812e-05 -7.4683e-06 -2.10163e-06)
(3.17229e-05 -1.00636e-05 -2.20199e-06)
(4.1847e-05 -1.38032e-05 -3.46197e-06)
(3.42262e-05 -1.09867e-05 -3.37944e-06)
(4.18614e-05 -1.37984e-05 -2.2608e-06)
(3.42343e-05 -1.09753e-05 -2.22335e-06)
(5.21075e-05 -1.76627e-05 -8.60202e-07)
(5.21227e-05 -1.76617e-05 1.42782e-07)
(4.44153e-05 -1.47571e-05 -2.26662e-06)
(5.21046e-05 -1.76697e-05 -2.27168e-06)
(1.33842e-05 -3.84751e-06 -4.12393e-06)
(2.44113e-05 -7.49171e-06 -5.02409e-06)
(2.67888e-05 -8.32662e-06 -3.21154e-06)
(2.68115e-05 -8.32813e-06 -5.14467e-06)
(3.17337e-05 -1.00826e-05 -5.33267e-06)
(2.92357e-05 -9.18972e-06 -3.27825e-06)
(2.9255e-05 -9.19298e-06 -5.2472e-06)
(4.44043e-05 -1.47717e-05 -5.54918e-06)
(4.69502e-05 -1.57219e-05 -3.48255e-06)
(4.69537e-05 -1.5734e-05 -5.56132e-06)
(5.20875e-05 -1.76831e-05 -5.57176e-06)
(4.9497e-05 -1.66862e-05 -3.48614e-06)
(4.94995e-05 -1.66987e-05 -5.56735e-06)
(1.33576e-05 -3.7834e-06 -3.48922e-06)
(1.97431e-05 -5.92218e-06 -2.94096e-06)
(2.20632e-05 -6.68719e-06 -4.88458e-06)
(1.97767e-05 -5.91778e-06 -4.7254e-06)
(1.54269e-05 -4.49554e-06 -4.34558e-06)
(1.75238e-05 -5.19303e-06 -2.82617e-06)
(1.75612e-05 -5.18637e-06 -4.54592e-06)
(1.97316e-05 -5.89102e-06 -1.99757e-06)
(2.20523e-05 -6.64692e-06 -4.08723e-06)
(1.97622e-05 -5.87187e-06 -3.96488e-06)
(1.54046e-05 -4.43768e-06 -3.66672e-06)
(1.7508e-05 -5.15792e-06 -1.93239e-06)
(1.75429e-05 -5.13459e-06 -3.82501e-06)
(2.44037e-05 -7.45682e-06 -4.193e-06)
(2.67883e-05 -8.30629e-06 -2.14182e-06)
(2.68071e-05 -8.29834e-06 -4.28324e-06)
(3.17352e-05 -1.0062e-05 -4.42153e-06)
(2.92383e-05 -9.17261e-06 -2.17504e-06)
(2.92537e-05 -9.16797e-06 -4.35903e-06)
(3.92971e-05 -1.28531e-05 -3.44247e-06)
(4.18535e-05 -1.38136e-05 -5.52897e-06)
(3.93056e-05 -1.28623e-05 -5.49885e-06)
(3.42396e-05 -1.09932e-05 -5.40222e-06)
(3.6755e-05 -1.19131e-05 -3.4153e-06)
(3.67658e-05 -1.1921e-05 -5.45713e-06)
(3.93097e-05 -1.28463e-05 -2.25209e-06)
(4.18642e-05 -1.38068e-05 -4.56329e-06)
(3.93144e-05 -1.28527e-05 -4.54154e-06)
(3.42438e-05 -1.09767e-05 -4.47195e-06)
(3.67654e-05 -1.19042e-05 -2.23983e-06)
(3.67724e-05 -1.19082e-05 -4.51153e-06)
(4.44166e-05 -1.47673e-05 -4.57812e-06)
(4.69674e-05 -1.57198e-05 -2.27011e-06)
(4.69673e-05 -1.57313e-05 -4.5873e-06)
(5.21025e-05 -1.76829e-05 -4.597e-06)
(4.9515e-05 -1.66849e-05 -2.27174e-06)
(4.95139e-05 -1.66974e-05 -4.59209e-06)
(1.45708e-05 -4.11037e-06 -7.93264e-06)
(3.30426e-05 -1.05424e-05 -9.94223e-06)
(5.32981e-05 -1.81761e-05 -1.10029e-05)
(2.31924e-05 -7.08011e-06 -1.77567e-06)
(2.31914e-05 -7.06881e-06 -9.89652e-07)
(2.20232e-05 -6.67419e-06 -1.36883e-06)
(2.32015e-05 -7.07075e-06 -2.46449e-06)
(2.43776e-05 -7.47747e-06 -1.40536e-06)
(4.31238e-05 -1.42733e-05 -1.99743e-06)
(4.31362e-05 -1.42713e-05 -1.05927e-06)
(4.18535e-05 -1.37937e-05 -1.53307e-06)
(4.31311e-05 -1.42779e-05 -2.73593e-06)
(4.44071e-05 -1.47514e-05 -1.53775e-06)
(1.4342e-05 -4.15248e-06 -2.11937e-06)
(1.33154e-05 -3.84226e-06 -1.16541e-06)
(1.43329e-05 -4.17237e-06 -1.50838e-06)
(1.43194e-05 -4.15422e-06 -8.76588e-07)
(1.53657e-05 -4.48782e-06 -1.22529e-06)
(2.33422e-05 -7.06592e-06 -9.22313e-06)
(3.29734e-05 -1.05213e-05 -2.65756e-06)
(3.17171e-05 -1.00654e-05 -1.48471e-06)
(3.29652e-05 -1.05224e-05 -1.93286e-06)
(3.29725e-05 -1.05167e-05 -1.04246e-06)
(3.42279e-05 -1.09752e-05 -1.50218e-06)
(4.3152e-05 -1.43161e-05 -1.02287e-05)
(5.33073e-05 -1.81315e-05 -2.72687e-06)
(5.212e-05 -1.76714e-05 -1.54239e-06)
(5.33007e-05 -1.81249e-05 -2.0203e-06)
(5.33154e-05 -1.8124e-05 -1.05446e-06)
(1.44552e-05 -4.10989e-06 -5.75431e-06)
(1.43853e-05 -4.13289e-06 -3.90789e-06)
(1.34079e-05 -3.79966e-06 -4.69604e-06)
(1.44223e-05 -4.15614e-06 -5.04071e-06)
(1.44002e-05 -4.09246e-06 -4.47491e-06)
(1.54491e-05 -4.45297e-06 -4.94272e-06)
(1.8803e-05 -5.51105e-06 -8.65615e-06)
(2.8112e-05 -8.75215e-06 -9.64655e-06)
(3.30077e-05 -1.05278e-05 -7.2271e-06)
(3.29863e-05 -1.05251e-05 -4.90973e-06)
(3.17464e-05 -1.00715e-05 -6.01994e-06)
(3.29933e-05 -1.05368e-05 -6.37185e-06)
(3.29952e-05 -1.05176e-05 -5.57976e-06)
(3.42513e-05 -1.09856e-05 -6.09428e-06)
(3.8073e-05 -1.2407e-05 -1.0129e-05)
(4.82397e-05 -1.62447e-05 -1.02661e-05)
(5.33087e-05 -1.81602e-05 -7.48304e-06)
(5.33075e-05 -1.81458e-05 -5.09644e-06)
(5.21176e-05 -1.76985e-05 -6.27566e-06)
(5.33015e-05 -1.81525e-05 -6.63611e-06)
(5.33145e-05 -1.81527e-05 -5.80246e-06)
(1.97298e-05 -5.90624e-06 -1.3268e-06)
(1.75073e-05 -5.17658e-06 -1.27902e-06)
(1.86105e-05 -5.54712e-06 -1.65626e-06)
(1.8604e-05 -5.53252e-06 -9.422e-07)
(1.86198e-05 -5.53281e-06 -2.31276e-06)
(2.3228e-05 -7.06446e-06 -4.54937e-06)
(2.32712e-05 -7.05566e-06 -6.69787e-06)
(2.32484e-05 -7.08153e-06 -5.88843e-06)
(2.44277e-05 -7.46833e-06 -5.68753e-06)
(2.2081e-05 -6.6593e-06 -5.53584e-06)
(2.32396e-05 -7.04235e-06 -5.1876e-06)
(2.67839e-05 -8.31281e-06 -1.43664e-06)
(2.92331e-05 -9.17669e-06 -1.46299e-06)
(2.80008e-05 -8.74782e-06 -1.86736e-06)
(2.80095e-05 -8.74285e-06 -2.57801e-06)
(2.80044e-05 -8.73949e-06 -1.02202e-06)
(3.93023e-05 -1.2843e-05 -1.52591e-06)
(3.67585e-05 -1.19023e-05 -1.51577e-06)
(3.80235e-05 -1.23739e-05 -1.97487e-06)
(3.80337e-05 -1.23703e-05 -1.05395e-06)
(3.80312e-05 -1.23761e-05 -2.70821e-06)
(4.31349e-05 -1.42889e-05 -5.05796e-06)
(4.31416e-05 -1.42999e-05 -7.44332e-06)
(4.31325e-05 -1.4297e-05 -6.57123e-06)
(4.44132e-05 -1.4775e-05 -6.25164e-06)
(4.18629e-05 -1.38148e-05 -6.22975e-06)
(4.31423e-05 -1.42914e-05 -5.73879e-06)
(4.69592e-05 -1.57134e-05 -1.54048e-06)
(4.95122e-05 -1.668e-05 -1.54181e-06)
(4.82262e-05 -1.61959e-05 -2.00606e-06)
(4.82335e-05 -1.62022e-05 -2.74743e-06)
(4.824e-05 -1.61949e-05 -1.06084e-06)
(2.8042e-05 -8.75614e-06 -6.17155e-06)
(2.80388e-05 -8.72763e-06 -5.41875e-06)
(2.80603e-05 -8.73918e-06 -7.00875e-06)
(2.92688e-05 -9.17799e-06 -5.92831e-06)
(2.68265e-05 -8.30905e-06 -5.81795e-06)
(2.80287e-05 -8.74195e-06 -4.76094e-06)
(4.82288e-05 -1.62221e-05 -6.60008e-06)
(4.82409e-05 -1.62202e-05 -5.76275e-06)
(4.82364e-05 -1.62284e-05 -7.47498e-06)
(4.95094e-05 -1.67055e-05 -6.27202e-06)
(4.69622e-05 -1.57389e-05 -6.26506e-06)
(4.82344e-05 -1.62151e-05 -5.08032e-06)
(1.86828e-05 -5.54052e-06 -5.51373e-06)
(1.86677e-05 -5.48954e-06 -4.87595e-06)
(1.75819e-05 -5.14889e-06 -5.16437e-06)
(1.87105e-05 -5.50487e-06 -6.28286e-06)
(1.86544e-05 -5.52036e-06 -4.26716e-06)
(1.97959e-05 -5.88519e-06 -5.36179e-06)
(3.80406e-05 -1.23936e-05 -6.5005e-06)
(3.8047e-05 -1.23821e-05 -5.68223e-06)
(3.67766e-05 -1.19167e-05 -6.1529e-06)
(3.8052e-05 -1.23913e-05 -7.36665e-06)
(3.80389e-05 -1.23839e-05 -5.00512e-06)
(3.93157e-05 -1.28609e-05 -6.19746e-06)
(2.55913e-05 -7.90675e-06 -4.08192e-06)
(3.04802e-05 -9.63344e-06 -4.24971e-06)
(4.5677e-05 -1.52464e-05 -4.46583e-06)
(5.07753e-05 -1.71773e-05 -4.47607e-06)
(2.08933e-05 -6.30085e-06 -3.85453e-06)
(1.64604e-05 -4.84135e-06 -3.56329e-06)
(2.08816e-05 -6.26333e-06 -2.97135e-06)
(1.64404e-05 -4.79365e-06 -2.77022e-06)
(2.55868e-05 -7.87856e-06 -3.12201e-06)
(3.0482e-05 -9.61354e-06 -3.22894e-06)
(4.05746e-05 -1.3332e-05 -4.43252e-06)
(3.54936e-05 -1.14518e-05 -4.36388e-06)
(4.05862e-05 -1.33247e-05 -3.34105e-06)
(3.55008e-05 -1.1439e-05 -3.29941e-06)
(4.56919e-05 -1.52432e-05 -3.36157e-06)
(5.0792e-05 -1.71764e-05 -3.36858e-06)
(1.34966e-05 -3.77894e-06 -6.51894e-06)
(1.55292e-05 -4.43603e-06 -6.86023e-06)
(1.66435e-05 -4.7902e-06 -8.31465e-06)
(3.05612e-05 -9.63612e-06 -9.80925e-06)
(3.1775e-05 -1.00749e-05 -8.34736e-06)
(3.42743e-05 -1.09913e-05 -8.44929e-06)
(3.55488e-05 -1.14673e-05 -1.00479e-05)
(5.07852e-05 -1.72136e-05 -1.02741e-05)
(5.21105e-05 -1.77099e-05 -8.69892e-06)
(2.08684e-05 -6.29519e-06 -1.7195e-06)
(2.08648e-05 -6.28227e-06 -9.68008e-07)
(2.08777e-05 -6.28342e-06 -2.39364e-06)
(2.3214e-05 -7.087e-06 -3.97598e-06)
(2.43959e-05 -7.47542e-06 -3.55357e-06)
(2.20444e-05 -6.66951e-06 -3.45903e-06)
(2.3206e-05 -7.05426e-06 -3.05258e-06)
(2.55728e-05 -7.89878e-06 -1.82491e-06)
(2.55817e-05 -7.89168e-06 -2.52578e-06)
(2.55742e-05 -7.88901e-06 -1.00752e-06)
(4.05712e-05 -1.33193e-05 -1.98827e-06)
(4.05826e-05 -1.33166e-05 -1.05722e-06)
(4.05787e-05 -1.33228e-05 -2.72453e-06)
(4.31255e-05 -1.42864e-05 -4.45287e-06)
(4.44089e-05 -1.47635e-05 -3.90476e-06)
(4.18565e-05 -1.38048e-05 -3.89113e-06)
(4.3139e-05 -1.42814e-05 -3.35348e-06)
(4.56766e-05 -1.52329e-05 -2.00308e-06)
(4.56838e-05 -1.52384e-05 -2.74327e-06)
(4.56898e-05 -1.52315e-05 -1.06039e-06)
(1.33496e-05 -3.82435e-06 -2.93542e-06)
(1.43683e-05 -4.17314e-06 -3.39277e-06)
(1.43437e-05 -4.1201e-06 -2.64885e-06)
(1.53966e-05 -4.47369e-06 -3.08924e-06)
(1.64286e-05 -4.8387e-06 -1.5859e-06)
(1.64188e-05 -4.82235e-06 -9.11848e-07)
(1.64379e-05 -4.82168e-06 -2.22146e-06)
(2.10392e-05 -6.27052e-06 -8.95846e-06)
(2.57028e-05 -7.89423e-06 -9.45187e-06)
(2.44761e-05 -7.46414e-06 -7.88955e-06)
(2.21368e-05 -6.65224e-06 -7.68015e-06)
(3.17276e-05 -1.00701e-05 -3.76063e-06)
(3.29752e-05 -1.05331e-05 -4.31304e-06)
(3.29798e-05 -1.05169e-05 -3.26826e-06)
(3.42362e-05 -1.09818e-05 -3.8069e-06)
(3.04676e-05 -9.62361e-06 -1.90324e-06)
(3.0476e-05 -9.62063e-06 -2.62174e-06)
(3.04731e-05 -9.61663e-06 -1.03354e-06)
(3.54861e-05 -1.14404e-05 -1.95659e-06)
(3.5495e-05 -1.14358e-05 -1.04914e-06)
(3.5494e-05 -1.1441e-05 -2.68615e-06)
(4.06092e-05 -1.33577e-05 -1.01882e-05)
(4.56968e-05 -1.52793e-05 -1.02534e-05)
(4.44196e-05 -1.47874e-05 -8.66205e-06)
(4.18726e-05 -1.38258e-05 -8.63319e-06)
(5.2107e-05 -1.76807e-05 -3.92113e-06)
(5.32987e-05 -1.81391e-05 -4.50908e-06)
(5.33156e-05 -1.81388e-05 -3.40787e-06)
(5.07883e-05 -1.71677e-05 -2.00752e-06)
(5.07951e-05 -1.71743e-05 -2.74822e-06)
(5.08036e-05 -1.71632e-05 -3.57989e-07)
(5.08026e-05 -1.71669e-05 -1.06068e-06)
(1.65093e-05 -4.82752e-06 -5.28986e-06)
(1.65396e-05 -4.78667e-06 -6.03329e-06)
(1.64767e-05 -4.8058e-06 -4.0975e-06)
(1.64908e-05 -4.77029e-06 -4.6871e-06)
(1.76536e-05 -5.13547e-06 -7.16679e-06)
(1.98595e-05 -5.87506e-06 -7.43969e-06)
(2.93036e-05 -9.17903e-06 -8.2214e-06)
(2.68679e-05 -8.30756e-06 -8.06941e-06)
(3.0502e-05 -9.63507e-06 -6.28141e-06)
(3.05183e-05 -9.6222e-06 -7.12869e-06)
(3.0492e-05 -9.62219e-06 -4.84263e-06)
(3.05015e-05 -9.6114e-06 -5.50733e-06)
(3.55084e-05 -1.14576e-05 -6.44434e-06)
(3.55212e-05 -1.14521e-05 -7.30578e-06)
(3.55042e-05 -1.1447e-05 -4.96345e-06)
(3.55127e-05 -1.14424e-05 -5.63754e-06)
(3.67946e-05 -1.19244e-05 -8.52934e-06)
(3.93292e-05 -1.28704e-05 -8.58982e-06)
(4.95099e-05 -1.6719e-05 -8.68787e-06)
(4.6966e-05 -1.57522e-05 -8.67919e-06)
(5.07839e-05 -1.71927e-05 -6.60423e-06)
(5.07889e-05 -1.71991e-05 -7.48013e-06)
(5.07947e-05 -1.71877e-05 -5.08482e-06)
(5.07967e-05 -1.7192e-05 -5.76651e-06)
(1.86388e-05 -5.55139e-06 -3.7171e-06)
(1.97542e-05 -5.89869e-06 -3.35053e-06)
(1.75349e-05 -5.16588e-06 -3.22745e-06)
(1.86231e-05 -5.50887e-06 -2.87748e-06)
(2.56213e-05 -7.90377e-06 -6.04095e-06)
(2.56045e-05 -7.88818e-06 -4.66352e-06)
(2.56417e-05 -7.88246e-06 -6.86565e-06)
(2.56154e-05 -7.87008e-06 -5.31262e-06)
(2.09324e-05 -6.29276e-06 -5.71299e-06)
(2.09081e-05 -6.27416e-06 -4.41752e-06)
(2.09576e-05 -6.26211e-06 -6.50402e-06)
(2.09205e-05 -6.24781e-06 -5.04243e-06)
(2.80163e-05 -8.75676e-06 -4.17293e-06)
(2.67994e-05 -8.31319e-06 -3.63483e-06)
(2.9246e-05 -9.17931e-06 -3.70358e-06)
(2.8015e-05 -8.73286e-06 -3.18049e-06)
(3.80288e-05 -1.2386e-05 -4.4033e-06)
(3.93068e-05 -1.28527e-05 -3.87106e-06)
(3.67648e-05 -1.19106e-05 -3.84336e-06)
(3.80384e-05 -1.23762e-05 -3.32336e-06)
(4.56821e-05 -1.52581e-05 -6.58979e-06)
(4.56861e-05 -1.52506e-05 -5.07216e-06)
(4.56904e-05 -1.5263e-05 -7.46359e-06)
(4.56933e-05 -1.52546e-05 -5.75403e-06)
(4.05838e-05 -1.33412e-05 -6.54215e-06)
(4.05843e-05 -1.33323e-05 -5.03612e-06)
(4.0594e-05 -1.33417e-05 -7.41177e-06)
(4.0592e-05 -1.33328e-05 -5.71542e-06)
(4.82252e-05 -1.62095e-05 -4.47294e-06)
(4.69597e-05 -1.57263e-05 -3.91314e-06)
(4.95083e-05 -1.66921e-05 -3.91754e-06)
(4.82411e-05 -1.62077e-05 -3.36617e-06)
(1.35703e-05 -3.78647e-06 -7.72605e-06)
(1.33206e-05 -3.85567e-06 -1.46693e-06)
(1.33296e-05 -3.83426e-06 -2.06417e-06)
(1.43502e-05 -4.17648e-06 -2.63018e-06)
(1.33578e-05 -3.85539e-06 -3.30117e-06)
(3.17984e-05 -1.00867e-05 -9.87931e-06)
(2.32023e-05 -7.08656e-06 -3.08981e-06)
(2.43761e-05 -7.48544e-06 -1.80115e-06)
(2.43851e-05 -7.47722e-06 -2.49631e-06)
(2.43961e-05 -7.49288e-06 -4.03085e-06)
(2.55811e-05 -7.90554e-06 -3.1739e-06)
(2.45159e-05 -7.47616e-06 -9.34188e-06)
(3.1713e-05 -1.00704e-05 -1.91882e-06)
(3.17213e-05 -1.00683e-05 -2.64059e-06)
(3.29689e-05 -1.05298e-05 -3.35797e-06)
(3.17243e-05 -1.00806e-05 -4.283e-06)
(3.04727e-05 -9.63083e-06 -3.30746e-06)
(5.20847e-05 -1.77091e-05 -1.03021e-05)
(4.31231e-05 -1.42811e-05 -3.46918e-06)
(4.44004e-05 -1.47525e-05 -2.00064e-06)
(4.44077e-05 -1.47576e-05 -2.74005e-06)
(4.44014e-05 -1.47659e-05 -4.46018e-06)
(4.56753e-05 -1.52408e-05 -3.47931e-06)
(4.44244e-05 -1.47973e-05 -1.02428e-05)
(5.21137e-05 -1.76721e-05 -2.0156e-06)
(5.21126e-05 -1.76758e-05 -2.7421e-06)
(5.32981e-05 -1.8132e-05 -3.34301e-06)
(5.20762e-05 -1.76725e-05 -4.47796e-06)
(5.07768e-05 -1.71722e-05 -3.48603e-06)
(1.33052e-05 -3.8366e-06 -8.5701e-07)
(2.20227e-05 -6.68323e-06 -1.74846e-06)
(1.53693e-05 -4.50013e-06 -1.54803e-06)
(2.20205e-05 -6.67113e-06 -9.79327e-07)
(1.53577e-05 -4.48289e-06 -8.94854e-07)
(1.43271e-05 -4.1352e-06 -1.81644e-06)
(1.33308e-05 -3.79962e-06 -2.58266e-06)
(1.55956e-05 -4.44503e-06 -8.12879e-06)
(2.20319e-05 -6.67268e-06 -2.43029e-06)
(2.088e-05 -6.30123e-06 -2.99366e-06)
(2.2046e-05 -6.68953e-06 -3.91722e-06)
(1.53785e-05 -4.4817e-06 -2.17178e-06)
(1.54029e-05 -4.50188e-06 -3.48014e-06)
(1.64439e-05 -4.8436e-06 -2.76403e-06)
(2.21829e-05 -6.66391e-06 -9.0954e-06)
(2.31965e-05 -7.06102e-06 -2.0787e-06)
(2.08705e-05 -6.27199e-06 -2.02675e-06)
(2.20362e-05 -6.65442e-06 -3.01349e-06)
(1.53807e-05 -4.45153e-06 -2.71134e-06)
(1.64258e-05 -4.80647e-06 -1.89624e-06)
(2.43764e-05 -7.47491e-06 -9.99035e-07)
(3.17195e-05 -1.0064e-05 -1.0383e-06)
(4.18472e-05 -1.37954e-05 -1.99334e-06)
(3.42232e-05 -1.09793e-05 -1.94544e-06)
(4.18592e-05 -1.37931e-05 -1.05838e-06)
(3.42313e-05 -1.09741e-05 -1.04606e-06)
(2.43899e-05 -7.46245e-06 -3.08872e-06)
(2.55788e-05 -7.88353e-06 -2.12264e-06)
(3.29757e-05 -1.05171e-05 -2.21332e-06)
(3.17275e-05 -1.00626e-05 -3.24968e-06)
(3.04767e-05 -9.61524e-06 -2.18926e-06)
(3.4293e-05 -1.10028e-05 -9.99833e-06)
(4.18546e-05 -1.37995e-05 -2.73079e-06)
(4.05714e-05 -1.33271e-05 -3.45311e-06)
(4.18497e-05 -1.38083e-05 -4.44372e-06)
(3.42312e-05 -1.0979e-05 -2.67271e-06)
(3.42319e-05 -1.09903e-05 -4.33996e-06)
(3.54885e-05 -1.1448e-05 -3.39852e-06)
(4.188e-05 -1.38361e-05 -1.02106e-05)
(4.31383e-05 -1.42771e-05 -2.26404e-06)
(4.0585e-05 -1.33213e-05 -2.25685e-06)
(4.18623e-05 -1.38023e-05 -3.34786e-06)
(3.42378e-05 -1.09758e-05 -3.2848e-06)
(3.54978e-05 -1.14379e-05 -2.23216e-06)
(5.2119e-05 -1.76637e-05 -3.59579e-07)
(5.0787e-05 -1.71603e-05 -8.5313e-07)
(4.44133e-05 -1.47509e-05 -1.05993e-06)
(5.21282e-05 -1.76713e-05 -1.05564e-06)
(5.0802e-05 -1.71594e-05 1.40561e-07)
(4.44156e-05 -1.47618e-05 -3.35801e-06)
(4.56918e-05 -1.52381e-05 -2.26862e-06)
(5.33168e-05 -1.81312e-05 -2.11628e-06)
(5.20931e-05 -1.76719e-05 -3.37135e-06)
(5.07951e-05 -1.71712e-05 -2.27129e-06)
(1.34144e-05 -3.83672e-06 -4.90647e-06)
(1.34486e-05 -3.78769e-06 -5.60351e-06)
(1.33751e-05 -3.81272e-06 -3.80541e-06)
(1.43935e-05 -4.16605e-06 -4.23744e-06)
(2.93321e-05 -9.1911e-06 -9.73176e-06)
(3.17442e-05 -1.00833e-05 -6.32897e-06)
(3.17595e-05 -1.00724e-05 -7.18047e-06)
(2.92676e-05 -9.19251e-06 -6.22899e-06)
(2.92848e-05 -9.17763e-06 -7.07152e-06)
(2.56054e-05 -7.90615e-06 -5.08669e-06)
(2.44283e-05 -7.48867e-06 -5.9675e-06)
(2.32302e-05 -7.08526e-06 -4.95675e-06)
(2.44098e-05 -7.47235e-06 -4.6086e-06)
(2.67984e-05 -8.3282e-06 -4.12925e-06)
(2.80074e-05 -8.75483e-06 -3.2463e-06)
(2.67814e-05 -8.31973e-06 -1.84697e-06)
(2.67902e-05 -8.31371e-06 -2.553e-06)
(2.68262e-05 -8.32641e-06 -6.10892e-06)
(2.80284e-05 -8.75723e-06 -5.19813e-06)
(2.68112e-05 -8.31153e-06 -4.71426e-06)
(2.69019e-05 -8.31971e-06 -9.55334e-06)
(2.44499e-05 -7.46511e-06 -6.78493e-06)
(2.68455e-05 -8.3073e-06 -6.9402e-06)
(3.04905e-05 -9.63493e-06 -5.292e-06)
(3.17358e-05 -1.00711e-05 -4.87793e-06)
(3.29837e-05 -1.05355e-05 -5.36936e-06)
(2.92439e-05 -9.192e-06 -4.21305e-06)
(2.92299e-05 -9.1826e-06 -1.8861e-06)
(2.92384e-05 -9.17864e-06 -2.6009e-06)
(2.9256e-05 -9.17899e-06 -4.80368e-06)
(4.95103e-05 -1.6728e-05 -1.02698e-05)
(5.21015e-05 -1.76945e-05 -6.60404e-06)
(5.21054e-05 -1.77009e-05 -7.48302e-06)
(4.95015e-05 -1.67051e-05 -6.60282e-06)
(4.95088e-05 -1.67119e-05 -7.47816e-06)
(4.56794e-05 -1.52525e-05 -5.55614e-06)
(4.44075e-05 -1.47771e-05 -6.58169e-06)
(4.31288e-05 -1.4292e-05 -5.5402e-06)
(4.44107e-05 -1.47692e-05 -5.06592e-06)
(4.69517e-05 -1.57277e-05 -4.47002e-06)
(4.8224e-05 -1.62037e-05 -3.4848e-06)
(4.69519e-05 -1.5714e-05 -2.00486e-06)
(4.69591e-05 -1.572e-05 -2.7457e-06)
(4.6956e-05 -1.57398e-05 -6.59583e-06)
(4.82269e-05 -1.6216e-05 -5.56497e-06)
(4.69607e-05 -1.57325e-05 -5.0769e-06)
(4.69686e-05 -1.57618e-05 -1.0261e-05)
(4.44162e-05 -1.4781e-05 -7.45472e-06)
(4.69639e-05 -1.57455e-05 -7.47024e-06)
(5.07794e-05 -1.71851e-05 -5.56907e-06)
(5.21121e-05 -1.76895e-05 -5.08993e-06)
(5.32999e-05 -1.81459e-05 -5.60293e-06)
(4.94977e-05 -1.6692e-05 -4.47482e-06)
(4.95013e-05 -1.6679e-05 -2.00681e-06)
(4.95091e-05 -1.66858e-05 -2.74848e-06)
(4.95091e-05 -1.66989e-05 -5.08271e-06)
(1.97306e-05 -5.91636e-06 -1.68876e-06)
(1.75094e-05 -5.18779e-06 -1.62197e-06)
(1.97255e-05 -5.90262e-06 -9.55649e-07)
(1.75013e-05 -5.17233e-06 -9.27616e-07)
(1.33904e-05 -3.76974e-06 -4.35979e-06)
(1.43691e-05 -4.10509e-06 -3.58042e-06)
(1.54543e-05 -4.48649e-06 -5.16848e-06)
(1.54859e-05 -4.44297e-06 -5.89753e-06)
(1.7713e-05 -5.14564e-06 -8.49039e-06)
(1.75859e-05 -5.17895e-06 -5.40491e-06)
(1.76149e-05 -5.14073e-06 -6.16169e-06)
(1.97572e-05 -5.92136e-06 -3.78784e-06)
(1.8624e-05 -5.55266e-06 -2.88514e-06)
(1.97399e-05 -5.90335e-06 -2.35448e-06)
(2.09117e-05 -6.29791e-06 -4.80749e-06)
(2.20827e-05 -6.68276e-06 -5.80364e-06)
(2.20604e-05 -6.66493e-06 -4.48571e-06)
(1.86594e-05 -5.54716e-06 -4.63823e-06)
(1.97987e-05 -5.9119e-06 -5.61639e-06)
(1.97724e-05 -5.89252e-06 -4.34471e-06)
(1.64833e-05 -4.83574e-06 -4.44838e-06)
(1.54196e-05 -4.464e-06 -4.00523e-06)
(1.75395e-05 -5.19128e-06 -3.64227e-06)
(1.75187e-05 -5.17215e-06 -2.26844e-06)
(1.75554e-05 -5.15801e-06 -4.18478e-06)
(1.99121e-05 -5.88611e-06 -8.81211e-06)
(2.21067e-05 -6.65453e-06 -6.60428e-06)
(1.98251e-05 -5.87878e-06 -6.39693e-06)
(1.54341e-05 -4.42606e-06 -4.58398e-06)
(1.75691e-05 -5.12488e-06 -4.78439e-06)
(1.97435e-05 -5.88136e-06 -2.92604e-06)
(1.86103e-05 -5.51955e-06 -1.96614e-06)
(2.0899e-05 -6.25484e-06 -4.02819e-06)
(2.20724e-05 -6.64074e-06 -5.11761e-06)
(2.32209e-05 -7.04771e-06 -4.14213e-06)
(1.86431e-05 -5.49833e-06 -3.8972e-06)
(1.97852e-05 -5.86397e-06 -4.96193e-06)
(1.6463e-05 -4.78094e-06 -3.74822e-06)
(1.75217e-05 -5.14619e-06 -2.82557e-06)
(2.67839e-05 -8.31069e-06 -1.01517e-06)
(2.92344e-05 -9.17496e-06 -1.02813e-06)
(3.92964e-05 -1.28454e-05 -1.98215e-06)
(3.67532e-05 -1.19055e-05 -1.96638e-06)
(3.93073e-05 -1.28422e-05 -1.05576e-06)
(3.67627e-05 -1.19014e-05 -1.05176e-06)
(3.17449e-05 -1.00619e-05 -5.54547e-06)
(2.92658e-05 -9.16647e-06 -5.46515e-06)
(2.55995e-05 -7.87384e-06 -4.24e-06)
(2.4421e-05 -7.45227e-06 -5.25256e-06)
(2.67955e-05 -8.30218e-06 -3.15256e-06)
(2.80084e-05 -8.73614e-06 -2.15926e-06)
(2.68217e-05 -8.29535e-06 -5.36797e-06)
(2.80255e-05 -8.72987e-06 -4.32287e-06)
(3.04906e-05 -9.61219e-06 -4.39187e-06)
(3.29865e-05 -1.0517e-05 -4.44818e-06)
(2.92441e-05 -9.17013e-06 -3.20591e-06)
(3.42483e-05 -1.09951e-05 -6.41024e-06)
(3.42619e-05 -1.09878e-05 -7.26879e-06)
(3.6809e-05 -1.19355e-05 -1.00914e-05)
(3.67728e-05 -1.19239e-05 -6.47435e-06)
(3.67849e-05 -1.19201e-05 -7.33832e-06)
(3.93007e-05 -1.28577e-05 -4.4191e-06)
(3.80248e-05 -1.23816e-05 -3.42991e-06)
(3.9304e-05 -1.28482e-05 -2.71704e-06)
(4.05789e-05 -1.33369e-05 -5.51526e-06)
(4.18577e-05 -1.38182e-05 -6.55814e-06)
(4.18593e-05 -1.38098e-05 -5.04809e-06)
(3.80344e-05 -1.23902e-05 -5.47955e-06)
(3.93112e-05 -1.28661e-05 -6.52302e-06)
(3.93107e-05 -1.28569e-05 -5.02186e-06)
(3.55006e-05 -1.14552e-05 -5.43142e-06)
(3.42428e-05 -1.09839e-05 -4.93818e-06)
(3.67595e-05 -1.19172e-05 -4.38495e-06)
(3.6761e-05 -1.19069e-05 -2.69795e-06)
(3.67699e-05 -1.19138e-05 -4.98571e-06)
(3.93399e-05 -1.28812e-05 -1.01612e-05)
(4.18674e-05 -1.382e-05 -7.4291e-06)
(3.93219e-05 -1.28653e-05 -7.39105e-06)
(3.42514e-05 -1.09779e-05 -5.61038e-06)
(3.67781e-05 -1.19106e-05 -5.66142e-06)
(3.93114e-05 -1.28492e-05 -3.33292e-06)
(3.80363e-05 -1.23738e-05 -2.24644e-06)
(4.05887e-05 -1.33288e-05 -4.55336e-06)
(4.18668e-05 -1.38113e-05 -5.72823e-06)
(4.31403e-05 -1.42864e-05 -4.57149e-06)
(3.80421e-05 -1.23791e-05 -4.52764e-06)
(3.93185e-05 -1.28563e-05 -5.70016e-06)
(3.5506e-05 -1.14406e-05 -4.49301e-06)
(3.6768e-05 -1.19059e-05 -3.31223e-06)
(4.69655e-05 -1.57129e-05 -1.06068e-06)
(4.95154e-05 -1.66782e-05 -1.06089e-06)
(5.21145e-05 -1.76943e-05 -5.76636e-06)
(4.9514e-05 -1.67039e-05 -5.76518e-06)
(4.56924e-05 -1.5249e-05 -4.58334e-06)
(4.4418e-05 -1.47726e-05 -5.74732e-06)
(4.69672e-05 -1.57252e-05 -3.36425e-06)
(4.82416e-05 -1.6202e-05 -2.27116e-06)
(4.69677e-05 -1.57373e-05 -5.7591e-06)
(4.82409e-05 -1.62141e-05 -4.59015e-06)
(5.07942e-05 -1.71843e-05 -4.59374e-06)
(5.33149e-05 -1.81459e-05 -4.63184e-06)
(4.95141e-05 -1.66906e-05 -3.36744e-06)
(5.26047e-05 -1.79088e-05 -1.05284e-05)
(5.27714e-05 -1.79143e-05 -6.96666e-07)
(5.26175e-05 -1.79125e-05 -1.03176e-05)
(5.27785e-05 -1.79243e-05 -1.87054e-06)
(1.39402e-05 -3.98482e-06 -5.57134e-06)
(1.38974e-05 -3.9845e-06 -4.46854e-06)
(3.23763e-05 -1.03094e-05 -7.10209e-06)
(2.86645e-05 -8.97182e-06 -6.93584e-06)
(2.38273e-05 -7.27654e-06 -5.31944e-06)
(2.74259e-05 -8.53383e-06 -5.50793e-06)
(2.38514e-05 -7.28e-06 -6.63378e-06)
(2.74446e-05 -8.53813e-06 -6.8693e-06)
(3.2364e-05 -1.0304e-05 -5.69428e-06)
(2.86475e-05 -8.96725e-06 -5.56119e-06)
(5.27229e-05 -1.79359e-05 -7.36511e-06)
(4.88664e-05 -1.6468e-05 -7.37904e-06)
(4.37709e-05 -1.45332e-05 -5.89491e-06)
(4.75945e-05 -1.59776e-05 -5.91434e-06)
(4.37728e-05 -1.45407e-05 -7.35165e-06)
(4.75944e-05 -1.59854e-05 -7.37521e-06)
(5.27865e-05 -1.79518e-05 -5.94284e-06)
(4.88676e-05 -1.64603e-05 -5.91759e-06)
(1.39223e-05 -3.92097e-06 -5.08757e-06)
(1.38845e-05 -3.94844e-06 -4.13428e-06)
(1.49591e-05 -4.31049e-06 -5.71745e-06)
(1.81521e-05 -5.35116e-06 -6.11268e-06)
(2.26535e-05 -6.87321e-06 -5.24661e-06)
(1.92255e-05 -5.71612e-06 -4.99649e-06)
(1.49185e-05 -4.30974e-06 -4.58563e-06)
(1.8118e-05 -5.34927e-06 -4.90224e-06)
(2.26795e-05 -6.87637e-06 -6.54279e-06)
(1.92575e-05 -5.71835e-06 -6.23037e-06)
(1.49428e-05 -4.24984e-06 -5.2173e-06)
(1.81401e-05 -5.29984e-06 -5.56575e-06)
(2.26485e-05 -6.85078e-06 -4.82973e-06)
(1.92178e-05 -5.68882e-06 -4.6081e-06)
(1.49068e-05 -4.27549e-06 -4.23997e-06)
(1.81093e-05 -5.32027e-06 -4.52407e-06)
(2.26728e-05 -6.83672e-06 -5.94016e-06)
(1.92469e-05 -5.67004e-06 -5.66874e-06)
(3.23783e-05 -1.02896e-05 -6.41771e-06)
(2.86635e-05 -8.9452e-06 -6.27699e-06)
(2.38232e-05 -7.25567e-06 -4.89386e-06)
(2.74242e-05 -8.51737e-06 -5.05888e-06)
(2.38459e-05 -7.2431e-06 -6.01862e-06)
(2.74425e-05 -8.50907e-06 -6.22037e-06)
(3.23652e-05 -1.02928e-05 -5.22057e-06)
(2.86466e-05 -8.95216e-06 -5.10524e-06)
(3.36276e-05 -1.07658e-05 -7.14704e-06)
(3.74118e-05 -1.21602e-05 -7.25353e-06)
(4.24956e-05 -1.40536e-05 -5.88438e-06)
(3.86747e-05 -1.26252e-05 -5.8373e-06)
(3.36168e-05 -1.07602e-05 -5.73029e-06)
(3.74048e-05 -1.21538e-05 -5.81571e-06)
(4.24984e-05 -1.40609e-05 -7.3387e-06)
(3.86805e-05 -1.26318e-05 -7.28039e-06)
(3.36307e-05 -1.07481e-05 -6.45559e-06)
(3.74175e-05 -1.21482e-05 -6.54514e-06)
(4.25014e-05 -1.40501e-05 -5.38442e-06)
(3.8679e-05 -1.26192e-05 -5.34379e-06)
(3.36187e-05 -1.07501e-05 -5.25164e-06)
(3.74086e-05 -1.2147e-05 -5.32521e-06)
(4.25069e-05 -1.40548e-05 -6.61693e-06)
(3.86869e-05 -1.26215e-05 -6.56771e-06)
(5.27341e-05 -1.79359e-05 -6.63674e-06)
(4.88771e-05 -1.64666e-05 -6.65201e-06)
(4.37771e-05 -1.45304e-05 -5.39358e-06)
(4.76017e-05 -1.59763e-05 -5.41075e-06)
(4.3782e-05 -1.45358e-05 -6.62798e-06)
(4.76048e-05 -1.59833e-05 -6.64853e-06)
(5.27946e-05 -1.79518e-05 -5.41472e-06)
(4.88749e-05 -1.64594e-05 -5.41369e-06)
(1.40206e-05 -3.95876e-06 -7.22086e-06)
(1.38297e-05 -4.01836e-06 -1.99799e-06)
(3.24026e-05 -1.0311e-05 -9.16625e-06)
(3.11602e-05 -9.85824e-06 -9.10351e-06)
(2.37848e-05 -7.28701e-06 -2.4046e-06)
(2.49748e-05 -7.69629e-06 -2.43794e-06)
(2.38983e-05 -7.27133e-06 -8.57579e-06)
(2.50806e-05 -7.68474e-06 -8.68296e-06)
(3.23383e-05 -1.03002e-05 -2.59097e-06)
(3.10896e-05 -9.85086e-06 -2.57084e-06)
(5.26926e-05 -1.79365e-05 -9.47382e-06)
(5.14366e-05 -1.74576e-05 -9.50904e-06)
(4.376e-05 -1.45162e-05 -2.69086e-06)
(4.50363e-05 -1.4996e-05 -2.69476e-06)
(4.37818e-05 -1.45515e-05 -9.47526e-06)
(4.5055e-05 -1.50331e-05 -9.48736e-06)
(5.27274e-05 -1.79102e-05 -2.6983e-06)
(5.14377e-05 -1.74189e-05 -2.701e-06)
(1.38188e-05 -4.01798e-06 -1.18441e-06)
(1.38003e-05 -4.00008e-06 -2.80824e-07)
(2.26009e-05 -6.88252e-06 -1.41724e-06)
(2.14387e-05 -6.49038e-06 -1.39295e-06)
(1.48432e-05 -4.33976e-06 -1.21823e-06)
(1.58912e-05 -4.67248e-06 -1.25073e-06)
(2.26005e-05 -6.87123e-06 -2.84695e-07)
(2.14365e-05 -6.47832e-06 -2.85632e-07)
(1.48275e-05 -4.32273e-06 -2.83045e-07)
(1.58781e-05 -4.65632e-06 -2.84679e-07)
(1.40218e-05 -3.91296e-06 -6.95421e-06)
(1.38069e-05 -3.9855e-06 -1.1501e-06)
(1.50356e-05 -4.28662e-06 -7.40804e-06)
(1.60741e-05 -4.6252e-06 -7.58572e-06)
(2.26083e-05 -6.88596e-06 -2.36893e-06)
(2.14466e-05 -6.49354e-06 -2.33092e-06)
(1.48537e-05 -4.34063e-06 -2.05276e-06)
(1.59013e-05 -4.67382e-06 -2.10512e-06)
(2.27298e-05 -6.86601e-06 -8.46041e-06)
(2.15762e-05 -6.4692e-06 -8.33664e-06)
(1.50373e-05 -4.24313e-06 -7.13252e-06)
(1.60763e-05 -4.58397e-06 -7.30154e-06)
(2.26036e-05 -6.86538e-06 -1.30737e-06)
(2.144e-05 -6.47153e-06 -1.2929e-06)
(1.48335e-05 -4.3094e-06 -1.17539e-06)
(1.58836e-05 -4.64419e-06 -1.19894e-06)