/*--------------------------------*- C++ -*----------------------------------*\
| =========                 |                                                 |
| \\      /  F ield         | OpenFOAM: The Open Source CFD Toolbox           |
|  \\    /   O peration     | Version:  2012                                  |
|   \\  /    A nd           | Website:  www.openfoam.com                      |
|    \\/     M anipulation  |                                                 |
\*---------------------------------------------------------------------------*/
FoamFile
{
    version     2.0;
    format      ascii;
    class       volScalarField;
    location    "0.107/solid";
    object      sigmaMin;
}
// * * * * * * * * * * * * * * * * * * * * * * * * * * * * * * * * * * * * * //

dimensions      [1 -1 -2 0 0 0 0];


internalField   nonuniform List<scalar> 
3125
(
-36144.4
-38331.6
-36551.8
-25091.7
-1125.41
-52213.8
-38277.3
-36533.8
-53807
-52638.9
-53624.3
-48646.1
-27106.1
-35894.7
-32714.2
-47317.9
-1069.07
-982.349
-29829.4
-1055.15
-1853.1
-8905.25
-10127.3
-8172.01
-12546.5
-38088.7
-13978.2
-5817.09
-7880.53
-15354.1
-37845.4
-14169.9
-4119.29
-9596.58
-15282.4
-17520.3
-11725.1
-12539.2
-10264.9
-3695.7
-14344.1
-10880.3
-19287.4
-17300.7
-1840.44
-3249.67
-37785.3
-12334.3
-10825.2
-9114.86
-37528.3
-10609.5
-5525.41
-3525.64
-19323.1
-19532.1
-53770.3
-19118.2
-18373.5
-17421
-53587.5
-18259.2
-19595.8
-19549.1
-18923.8
-19370.5
-19212.3
-52340.4
-19760.3
-19586.3
-19411.2
-20020.9
-51650.3
-19817.7
-10386.9
-11929.2
-31903
-15525.1
-16139.2
-15492.5
-33132
-16117
-12605
-12096.2
-18833.5
-17986.2
-40149.4
-17700.8
-19446.2
-20011.8
-42228.2
-19580
-16069.9
-17817
-4269.82
-10676.8
-17290.6
-19928.9
-12651.3
-15694.5
-11550.3
-3949.51
-16138.8
-11677.9
14920.6
-23784.9
4267.22
5961.38
-27788.6
-38322.2
-28167.2
10470.3
9531.09
-28723.3
-37085
-28905.6
-3757.04
-3824.98
-22645.9
-22836.4
-20038
-4082.91
-4929.23
-1533.4
-6194.55
-7766.41
-23425.6
-29940.2
14703
14015.8
-38163.5
-27523.9
-27033.5
-24153.6
-36899.1
-24834.7
10775.1
11655.7
-23291.7
-22839.4
-53893.8
-33488.5
-33031.2
-30263.3
-53011.2
-30969.3
-20172.6
-20971
-14766.6
-15876.2
-33688.7
-53320.8
-33995.8
-19887.8
-18977.7
-33712.5
-49812.5
-34147.1
3706.36
2036.53
-28901.4
-23330
-25213.9
-28708.7
-35116.2
-28233.5
-3724.65
-2493.1
-14395.1
-13275.8
-35400.7
-25902.5
-28319.3
-33563.7
-45805.2
-32758.1
-9180.45
-10137.6
-5884.27
-6429.42
-3387.67
-3713.88
-25015.8
-26737.1
-21864.9
-8867.25
-7915.75
-1795.67
-7057.35
-8294.75
8097.61
-19895.8
7891.86
6525.36
-1224.21
-9314.69
-117.665
1336.91
-9035.1
249.387
-23651.7
-13174.8
-24135.2
-38239.1
-28619.2
-28383.4
-13379.3
-24691.8
-24313.4
8226.69
9211.54
4044.52
-6700.86
3074.89
1693.7
-6995.7
2739.12
-25191.2
-14886.7
-25142.1
-37515.2
-28775.1
-28825.7
-14717
-24827.3
-25062.4
-5146.27
-4264.79
-3931.07
-6019.92
-4245.64
-6206.49
-7043.41
-4842.78
-20838.8
-14207.8
-18652.9
-20313.8
-15566.2
-19072.4
-13711.3
-14684
-17791
-5259.24
-5110.11
-6498.71
-12013.6
-6844.03
-6493.86
-11703.1
-6858.88
-2070.82
-6577.73
-7512.46
-10857.6
-14249.8
-9586.96
-7796.31
-13474.1
-9202.64
-21276.8
-26305.6
7930.73
-2184.83
7378.4
13022.9
13778
-2440.56
6515.18
7178.25
-37998.1
-26156.9
-26731.4
-23439.7
-11689.6
-22877.6
-22023.5
-11474.3
-22642.1
-20167.3
-9750.16
-20848.6
-37229.7
-25825.6
-25187.6
-9963.46
-21770.4
-21112.9
12762.1
11940.9
4352.98
-4655.47
5230.72
6277.68
-4370.31
5506.35
-21146.4
-19426.6
-20728.7
-22108.5
-22671.9
-19454.6
-20102.9
-20579.7
-53877.2
-32213.1
-32784.5
-29343.4
-18813.9
-28891.4
-28173.2
-18708.1
-28708.9
-26535.5
-17785.4
-27156.1
-53334.3
-31930.5
-31276.8
-17904
-27967.4
-27379.2
-21902.2
-21219.9
-18579.6
-19596.9
-19192.4
-19932.5
-19589.9
-19385.7
-17307.8
-16242.5
-14652
-19147.8
-15440.4
-16468.8
-19210.8
-15700.6
-29496.4
-19475.3
-29840.1
-52903
-34248.1
-34134.3
-19552.1
-30146.7
-29949.7
-17655.8
-18658.9
-18363.8
-19538.7
-17685.4
-16719.5
-19511.9
-17449.7
-29962.3
-19982.1
-30192.4
-50809.4
-34310.6
-34180.9
-19953.1
-30200.3
-30213.7
-1591.31
-11115
-2680.57
-93.2796
1493.84
-11338.1
-4063.95
-3034.97
-30494.3
-26980
-25673.4
-21422.2
-15985.1
-22891.3
-24191.5
-16066.7
-23264.3
-25196.7
-15844
-25003.4
-34196
-27258.1
-28101.2
-15935.6
-24403.5
-24913.5
-598.429
-2042.29
-6309.21
-12555.9
-5584.2
-4389.86
-12478
-5305.85
-14387.6
-18527.1
-13596.8
-11827.7
-12908.6
-18404.3
-12564.3
-13335.8
-37877.8
-30758.7
-28974.7
-23887.2
-18656
-25872.2
-27808.5
-18899.8
-26421
-29852.8
-19918.4
-29319.1
-44115.3
-31215.9
-32467.7
-19856.9
-28178.7
-29094
-11480
-10467.6
-10517.8
-16975
-11301.4
-12310.6
-17217.7
-11555.2
-5987.63
-4321.09
-3832.6
-6488.25
-4374.19
-7084.56
-7622.21
-5097.79
-23119.4
-15724.4
-20405.5
-23440.2
-16717.4
-20710.2
-15069.8
-15786.4
-19369.4
-6447.66
-7583.78
-10240.6
-14292.1
-9314.54
-7636.32
-13709.5
-8956.74
-2342.73
-6983.94
-8022.27
-12116.6
-15248.2
-10215.2
-8277.69
-14434.1
-9807.31
8979.48
9092.2
3242.13
3470.56
6396.04
6207.15
-1271.29
-1593.8
-1081.54
-1337.7
-15508.5
-15674.1
8865.54
8745.2
6583.79
6764.28
-15341.7
-15169.8
-12176.9
-12430
-7652.59
-7953.79
-11921.3
-11659.6
3024.01
2790.72
-810.719
-534.281
-7363.87
-7066.41
-3777.72
-3939.55
-2283.8
-850.987
-2508.73
-1103.65
-1347.13
-3634.26
-3504.84
-3352.83
-1202.33
-2906.26
-949.929
-2827.56
-2997.36
-1198.21
3432.17
-1871.21
898.234
1017.11
3524.29
-4631.54
-12748
-8696.98
-2438.67
-2187.12
-12540.4
-4915.64
4772.57
4562.58
-5947.98
-9862.28
-8145.67
-7805.38
-5590.63
-5725.84
-3403.04
-8462.22
-6073.68
-3768.97
-10381.8
-16277
-7237.25
-12758
-7542.27
-10066.4
-16471
-11919
-9382.45
-13782.1
-17560.5
-9076.8
-12215.5
-17391.5
4991.08
5192.46
-549.363
-3013.69
-6111.17
-3333.43
-891.32
-5376.64
-3035.85
-7585.67
-5024.85
-2670.82
-14160.7
-18646.6
-15207.4
-11697.1
-11428.1
-18544.7
-14403
-12805.9
-9684.42
-14357.6
-17724.3
-9986.47
-12512.3
-17880.7
-2477.99
-2493.62
-4165.99
-4105.95
-3535.1
-3765.88
-4009.35
-9359.32
-8472.22
-8836.4
-8638.82
-7856.06
-15321.7
-17222.6
-13831.8
-14986.4
-13671.1
-15574.4
-16807.8
-12912.8
-11119.8
-12475.9
-12794.8
-11767.5
-12158.2
-13672.5
-2407.61
-2312.2
-10254
-11823.3
-12424.2
-11776.1
-10277.5
-9982.23
-8991.52
-10833.6
-10497.2
-9413.73
-3730.49
-3184.2
-4126.85
-3254.94
-3732.57
-3973.4
-2851.95
-10353.5
-10370.8
-9944.47
-11823.9
-9525.96
-11306.5
-10759.8
-23063.5
-19248.3
-28347.2
-23142.9
-28425.3
-27787.4
-19705.3
-17178.6
-26485.7
-19551.8
-26458.8
-27880.3
3328.97
771.673
-1846.98
634.811
3211.36
7930.43
8081.56
-493.264
-2976.06
2127.03
-268.805
2357.39
-9446.96
-16079.3
-6932.9
-12120.6
-9756.3
-6630.89
-15880
-7894.59
-4868.13
-14641.7
-11040.8
-7586.4
-5153.96
-14849.6
-5494.26
-12957.7
-2692.51
-9324.87
-5202.49
-2950.39
-13165.8
-6980.63
-4582.79
-10394.1
-14431.1
-4302.47
-7282.91
-14220.5
7779.83
7616.11
-213.409
-2696.31
-5233.24
-2385.12
115.428
-729.699
1881.8
-3802.95
-975.494
1619.75
-22982.4
-28268.1
-19359.7
-22900.8
-28187.3
-14028.2
-14236.5
-27620.7
-19509.4
-22331.9
-22436.1
-27726.6
-28842.1
-21985.7
-19021
-26472.3
-21864.1
-26506.9
-28870.1
-28633.4
-26604.5
-21056.9
-18486.5
-21198
-28580.6
-26599.2
-28049.9
-19857.3
-26509.3
-17542.3
-27967.8
-20009.4
-26528.7
-28442.3
-26605.7
-18142.7
-20911.6
-20764
-26599.2
-28513.2
-13820.6
-13598.3
-21353.6
-19599.9
-26605.6
-21491
-26754.9
-27510.4
-22226
-19567.2
-22115.8
-27400.3
-9704.83
-9417.86
-18610.3
-19005.5
-23471.9
-18809
-23718
-25034.9
-19922.3
-19321.2
-19744.7
-24831.5
-28884
-22101.4
-19304.2
-26433.2
-22211.3
-28885.1
-26383.8
-28788.2
-25958.9
-19697.1
-22757.8
-22685.3
-26047
-28744.6
-9998.09
-10278.6
-21211.9
-19575.9
-26455.7
-21065.8
-26301.9
-25232.4
-20098.9
-19450
-20270.2
-25428.2
-28051.4
-22990.1
-20018.6
-24928.1
-23003.2
-25089.8
-27899.6
-28605.6
-25863.5
-19869.7
-22820.2
-22875.7
-25754.1
-28683
-6299.01
-8477.1
-10636.8
-8799.84
-6644.53
1387.21
1632.5
-10542.1
-11747.1
-8549.22
-10281.8
-8258.91
-15921.9
-17580.7
-13937.7
-15719.9
-15772.1
-13998.3
-17887.7
-16042.4
-13627.5
-18872.5
-16139.4
-15966.8
-13757.7
-18790
-14865.6
-18737.1
-11960.3
-15621
-14638.9
-12216.6
-18813.9
-15755
-13474.3
-16074.6
-18928.6
-13305.4
-15872.6
-18959.5
1140.36
872.727
-10183.1
-11812.4
-12624.3
-11753.4
-10071.1
-10784.1
-8822.91
-12242.8
-11001
-9082.44
-18411
-23220.4
-18739.7
-18210.1
-22963.7
-5412.05
-5672.61
-21229.1
-18138.1
-16918.8
-17145.2
-21545.9
-22653.1
-19731.8
-18063.1
-19808.4
-20195.6
-20347
-22018
-25168.6
-22795.7
-22068.1
-19289.9
-21845.2
-25564.9
-22462.7
-27526.1
-22962.2
-24750.6
-19992.8
-27725
-22919.1
-24556.3
-26245
-23105.7
-19691.9
-22260.5
-22426
-23388.6
-25919.1
-5171.06
-4930.01
-14709.7
-16404.6
-18006.9
-15048.8
-18510.3
-20897.6
-16688.3
-17636.8
-16449.4
-20558.9
-2788.62
-2654.26
-4326.16
-4426.17
-4021.34
-4293.61
-4344.23
-11323.7
-9729.73
-9724.72
-8864.38
-10262.6
-20572.2
-19214.2
-16828.9
-19223
-18640.1
-21323.8
-18584.2
-15901.8
-13501.3
-13539.2
-13738.6
-14750.8
-14518.3
-14761.7
-2905.5
-3003.29
-14342.2
-15278.4
-17471
-13942
-16897
-12316.8
-10526.6
-12345.6
-11248
-13238.4
-4512.31
-3450.34
-4434.4
-3824.48
-4288.86
-4431.91
-3467.75
-12244.6
-12406.8
-10623.4
-12640.3
-11459.9
-11235.6
-13541.3
10144.1
15135.4
10289.6
-26851.5
-30384.7
-29110.6
-28116.7
3904.58
3694.75
2550.05
4832.48
2855.19
3446.55
5399.33
3157.92
-30854.4
-33488.1
-30085.8
-34137
-30302.5
-34304.9
-33738.3
-31017.5
5809.84
6015.16
6771.89
10162.3
6520.99
5996.58
9851.27
6266.22
-30476.8
-33617.1
-33618.2
-30714.3
-30936.1
-33867.7
-33966.6
-30627.6
-2166.83
-1956.12
-2583.99
-3397.56
-2341.95
-2665.3
-3496.15
-2390.44
-22600.9
-24812.5
-23469.2
-23650.5
-21732
-21509.7
-22826.5
-20715.1
-1803.42
-1578.81
-2339.39
-4404.79
-2568.96
-2978.76
-4689.72
-2781.66
-2703.95
-776.997
-2656.52
-858.784
-5456.22
-7825.71
-5208.31
-7894.23
-41509.7
-90410.8
-89067.4
-42089.7
-41337.9
-41352.7
-42182.8
-40440.5
-41736.4
-41922.4
-40696.6
-84011.4
-83858.3
-85061
-85379.5
-88925.1
-90125.9
-89705.6
-88643.9
-35887.1
-23553.1
-36312.3
-63347.8
-69449.4
-67362.7
-65043.8
9997.68
14479.3
9842.07
8493.05
8626.03
14252.3
9515.33
9686.42
-29823
-33914
-30667.7
-33179.7
-30432.6
-32819.6
-33625.7
-29535.3
-28501.4
-29745
-27284.6
-30958.7
-27706.9
-31503.8
-30348.2
-28880.3
7116.32
6947.6
7021.84
11074.5
7260.55
7723.27
11369.2
7499.62
-35452.9
-23149.6
-35007.7
-14811.3
-14999.9
-23000.3
-34089.4
-34555.7
-63405.9
-69113.7
-68175.8
-64287.4
-64747.1
-68535.5
-69643.8
-63727.3
-65243.5
-67855.3
-69827.9
-63618.6
-63830.9
-70099.7
-68258.9
-65365.2
-12910.9
-12679.3
-27565.8
-20449.8
-28173.6
-29353.7
-20716.2
-28770
-41262.5
-41925.6
-41697.2
-41130.4
-38618.9
-38674.1
-39313.9
-39371.8
-82473.3
-82468.5
-80746
-80908.5
-66529.6
-67608.3
-70285.1
-69363
-27437.1
-28540.2
-30409.5
-29442.5
-37919
-37751.6
-36753.9
-37038.9
-38039.6
-40106.9
-44065.9
-42104.1
-64746.1
-63523
-60344.5
-61708.9
-8534.6
-8252.52
-16839.3
-15141.3
-17532.7
-18915.9
-15511.3
-18224.9
-63714
-67650.2
-62952.2
-68426.5
-62362.4
-67558.9
-66957.9
-62981.2
-11118.2
-11399.7
-26947.1
-19593.9
-26315.9
-25028
-19291.8
-25678.2
-55559.5
-58486.4
-58955.2
-55276.8
-57005.7
-60767.8
-60484.7
-57116.1
2252.92
3146.29
1943.34
2332.17
2569.95
2590.02
1330.74
1643.86
-24944.6
-25544.2
-24244.5
-26545.1
-25639.5
-28056.1
-27188.8
-26211.3
-30372.4
-33259.2
-30244.1
-33143.4
-29909
-32551
-32774.9
-29946.7
37.8156
-242.548
-2088.44
-3336.77
-1832.81
-1294.69
-2923.53
-1560.13
-16150.3
-14020.9
-15460
-6487.38
-6785.61
-13649.4
-14107.2
-14782.2
-36208.2
-35633.3
-37389.9
-34703
-37943.5
-40738.7
-39127.3
-39292.9
-53379.3
-56938.1
-56299.6
-53808.4
-51867.4
-53907.9
-54722.8
-51272.3
-4293.82
-4115.92
-7219.4
-9497.09
-7686.71
-8685.42
-9816.91
-8176.52
-26447.1
-25195.5
-22709.2
-24126.6
-697.204
-2477.87
-7801.61
-5180.94
-36029.7
-33871.5
-29614
-31851
-862.16
-2988.91
-9114.53
-6148.01
-2048.29
-1811.38
-2170.59
-3027.98
-1945.29
-2442.74
-3257.66
-2113.65
-31303.5
-33868.7
-32930.3
-31992.4
-29486.8
-28204.2
-30194.2
-27727.6
-3279.65
-3394.49
-6777.68
-8554.29
-6359.54
-5599.54
-8239.35
-5970.18
-4069.65
-1416.34
-3768.48
-1945.57
-3587.6
-1465.49
-4143.2
-3413.17
-981.205
-3237.52
-1156.01
-6612.96
-9197.43
-6250.96
-9442.51
7545.29
8258.92
7738.27
4130.48
4343.05
4611.25
7557.6
4328.27
3744.89
7087.43
4037.59
-3027.4
-855.532
-2636.04
-9591
-7124.1
-4867.74
-7465.81
-5228.8
-485.244
-1846.67
-2241.7
-267.9
977.788
-660.989
-8749.71
-6775.79
-4502.3
-6424.42
-4134.66
615.482
-1451.46
-1056.39
-10691.8
-12967.5
-8156.03
-16851.3
-10998.9
-7847.27
-16664
-30607.6
-34426.1
-31180.2
-34033.4
-31112.7
-33920.6
-30483
-34399.2
-11615.9
-13582.5
-8462.62
-17036
-11308.1
-8768.49
-17215.9
5613.01
5404.02
4900.54
8557.09
5177.55
5731.84
8886.51
5458.04
2754.38
3729.53
2394.68
-6405.62
-4000.99
-1591.44
-3662.43
-1238.38
3406.2
1656.82
2028.26
123.205
2047.57
511.954
-7291.15
-4338.55
-1946.55
-4678.03
-2307.27
2396.23
1280.53
897.541
-13904.4
-15050.9
-10866.3
-18306.6
-11151
-13638.6
-18430
-31160.6
-34067.1
-30681.5
-34360.9
-30686.2
-34215.1
-31096.8
-34015.9
-13089.4
-14540.2
-10576.5
-18173.2
-10284.1
-13367
-18031.5
-2355.34
-2471.52
-3375.59
-4940.27
-3300.3
-2943.94
-4639.37
-3162.16
-4311.1
-3467.25
-3817.72
-5032.68
-5873.05
-5496.15
-4841.93
-4688.55
-3765.3
-4914.84
-4288.78
-7367.6
-5834.88
-6878.63
-7977.9
-6897.12
-6357.08
-7813.59
-7140.51
-5370.25
-5640.49
-6292.8
-14998.8
-14630.9
-13148.8
-15783.8
-14602.4
-13444.1
-16331.8
-17371.9
-16325.5
-15985.1
-17986.6
-18501.7
-20559.4
-19719.2
-19069.4
-13568.9
-13136.4
-12775.9
-15161.9
-14129.1
-12317.2
-14461
-1998.1
-2169.94
-3384.26
-5285.27
-3349.78
-3135.3
-5233.21
-3262.13
-8277.05
-6655.82
-8389.33
-12251.8
-11507.7
-10153.3
-11670.8
-10246.1
-6774.43
-8462.56
-8454.84
-7764.56
-6693.34
-8064.93
-11311.8
-11258.7
-9987.94
-10920.9
-9743.99
-6813.59
-8405.23
-8276.62
-5372.89
-5358.98
-6325.22
-6951.4
-5106.04
-6777.59
-5520.84
-13029.3
-15073.1
-14689.6
-13166
-11505.8
-9612.87
-9666.87
-11689.7
-9282.8
-8910.96
-7512.01
-8334.47
-8569.59
-8104.48
-9593.85
-41226.6
-42225
-42230.4
-41310.9
-42168.6
-41094.5
-40918.1
-42064.1
-86966.4
-87584.5
-86566.4
-86099.4
-88446.7
-87671
-88224.5
-89152.1
-21067.6
-21402.6
-21134.7
7343.21
7756.2
7131.16
-1956.6
312.292
2926.79
481.126
3078.06
7572.34
6677.17
6909.14
8362.85
8222.97
8784.7
13282.4
8980.98
9346.39
13533.5
9167.11
-2705.72
133.543
2758.19
-59.8168
2567.56
5640.64
6747.37
5916.7
6435.1
6968.5
6180.62
-29881.3
-31954.2
-32906
-28868.6
-29213
-33290.8
-30175.6
-32406.7
-9133.66
-11905.4
-6033.59
-15472.5
-8821.23
-6330.19
-15675.9
-8202.76
-11257.7
-5737.34
-15265.9
-8510.92
-5442.73
-15058.9
-5787.33
-9537.42
-3481.14
-13587.3
-3214.83
-6080.71
-13377.3
-28499
-32480.8
-31455.6
-29572.8
-29232.3
-30919.8
-28113.9
-32008.6
-6677.89
-10178.4
-3750.65
-13798.8
-4024.52
-6378.35
-14009
7292.61
7455.08
8588.58
12493.1
8378.81
7950.2
12220.4
8168.85
3107.38
4654.73
3453.27
-4943.89
-1794.59
748.751
-2084.22
436.914
4947.82
4122.56
3791.86
5356.96
6031.62
5063.19
-4085.49
-1510.98
1050.92
-1235.87
1341.36
5773.8
4444.63
4757.16
-20997.6
-21009.8
-20923.9
-19392.9
-22724.2
-28012.4
-22814.5
-28102.3
-20871.3
-20763.9
-20846
-14627.3
-14435.6
-32109.6
-22307.6
-32624.1
-33612.8
-22495.5
-33123.2
-19483
-22632
-27919.8
-22538
-27824.6
-20384.8
-20266.5
-20488
-20677
-20424.1
-20584.7
-65294.6
-68814.2
-70235
-64047.7
-63939.9
-70011.9
-65067.3
-68747.9
-28813.1
-18917.4
-21607.1
-26559.7
-21735.2
-28781.6
-26536
-28685.7
-18598.4
-21475
-26579.6
-21336.4
-28738.4
-26592.4
-28136.1
-17663.8
-20315.7
-26568.3
-20163.3
-26549.1
-28221
-64058.3
-70315.1
-68748.5
-65401.5
-65430.4
-68559.8
-63979.7
-70270
-28372.8
-18023.5
-20465.4
-26582.1
-20615.1
-26591.6
-28298.8
-13149.5
-13378.7
-31583.6
-21684.7
-31041.2
-29928.5
-21457.5
-30489.7
-19357.7
-18788.1
-19506.2
-19599
-21753.5
-27024.4
-21624.6
-26893.2
-18991.5
-19785.4
-19647.9
-20276.1
-19754.7
-20162.4
-19580
-21878.2
-27154.5
-21999
-27281.3
-19571.4
-19916.4
-20041.7
-41028.2
-40655.2
-40930.1
-41401.4
-40296.3
-40571.3
-40022.1
-39855.1
-76743.7
-77217.6
-79150.2
-78841.9
-75094.6
-74466.3
-72004.4
-72785.3
-33565.1
-32885.5
-31261.5
-32073.6
-34332.2
-34879.9
-36035.5
-35613.7
-51582.4
-49836.6
-46035.6
-47899.2
-53497.9
-55115.6
-58490.1
-57004.6
-8833.41
-9127.9
-21674.1
-16957.7
-20988.6
-19608.2
-16602.9
-20297.6
-16342
-14915.2
-16557.4
-19076.6
-19191.7
-24177.5
-19002.4
-23949.9
-15176.8
-16978.9
-16768.5
-17786.3
-16214
-17589.9
-19268
-19379.9
-24401.8
-19566.4
-24619
-15956.2
-17185.3
-17388.4
-28885.1
-19391.3
-22421.5
-26271.2
-22319.6
-28880.7
-26332
-60753.6
-65292.2
-65044.7
-61083.7
-62119.2
-66091.9
-61631.4
-66522.1
-28826.4
-19627.6
-22513.8
-26204.8
-22600.7
-28859.2
-26131.4
-10846.5
-10567.1
-22357.5
-17996.2
-23030.9
-24371.3
-18332.3
-23704.2
-19203.7
-18140.5
-19044.1
-19557.8
-20759.3
-25965.5
-20914.5
-26138.7
-17914.9
-18708.3
-18878.6
-17979.3
-16964.4
-18167.8
-19484.2
-20600.8
-25792.4
-20438.2
-25616
-17207.8
-18533.3
-18352.4
-28193
-20002.7
-22985.3
-25386.7
-22999
-25241.2
-28320.9
-59902.3
-63809.8
-63885.5
-59710.2
-58498.7
-62280
-58531.8
-62386.1
-28524
-19913.6
-22960.9
-25520.5
-22923.1
-25639.5
-28430.8
-3415.92
-1956.99
-3801.45
-10881.4
-9429.81
-7319.27
-9118.05
-6985.08
-2320.79
-4556.9
-4182.87
2107.16
1868.47
130.775
425.68
429.82
1032.07
955.756
729.371
-11549
-9728.01
-7641.75
-10011.4
-7954.08
-5975.4
-3729.17
-5635.5
-4924.05
-3385.43
-5284.77
-27847
-30463.1
-29866.2
-28158
-27272
-28627.9
-26844.1
-29353.7
-16019.1
-15871.6
-13996.6
-18360
-16073.2
-14014.2
-18144.3
-16085.1
-16116.8
-13942.6
-18538
-16094.3
-13861.1
-18681.7
-15073.8
-15739.4
-12691.1
-18924.9
-12459.8
-15268.2
-18878.1
-28878.7
-30927.6
-31390.7
-28698.8
-29383.4
-32156.6
-29461.5
-31810.9
-15611.5
-16014.1
-12911
-18955.4
-13117.2
-15448.8
-18967.5
327.851
603.281
-155.412
-1093.45
-449.091
-1013.88
-1573.43
-731.214
-8123.54
-6090.81
-7933.8
-12607.7
-11542
-9749.34
-11661.7
-9924.29
-5846.99
-7469.76
-7714.24
-6303.14
-4707.03
-6618.93
-12371.3
-11385.5
-9548.25
-11201.1
-9324.38
-5012.21
-7204.47
-6920.37
-16124.6
-14120.9
-15905.2
-18636
-17793.3
-22420.9
-18003.7
-22697.3
-13857.9
-15462.9
-15684.4
-6211.77
-5939.5
-11533.7
-12183.9
-12156.2
-13444.4
-12544.6
-12792
-18276.1
-17581.3
-22136.2
-17367.7
-21845.7
-14564.1
-12818.7
-14791.6
-15240.6
-13074.4
-15015.9
-43848.9
-46902.3
-45592
-44902.5
-42193.1
-42447.1
-40981.9
-43912.4
-23242.7
-18377.5
-20975.4
-21298.7
-20606.3
-23790.8
-20843.1
-24745.3
-19109.1
-21303.7
-21721.8
-21590.8
-24291.2
-22108.2
-27316.4
-19962.2
-22783.4
-24140
-22861.4
-24354.7
-27086.8
-47418.8
-48551.5
-49703.4
-46509.3
-48993.5
-52311.9
-49736.3
-51329.7
-26550.1
-19782.7
-22684.5
-23905.8
-22566.4
-23654.7
-26829.7
-4497.55
-4711.52
-10929.9
-11136.6
-10337.8
-9217.83
-10799.6
-9768.04
-12547.9
-10784.2
-12836.9
-16702.7
-15659.5
-19402.6
-15364.3
-18973
-11044.1
-13371.2
-13109.5
-14334.1
-12057
-14101.4
-17436.8
-15936.4
-19812
-16198.4
-20197.3
-11804.4
-13621.6
-13863.4
-16914.5
-18668.9
-21543.1
-19957.2
-15478.9
-13505.3
-9719.16
-11873.4
-20839.1
-23214.4
-27576.6
-25277.3
-18746
-16241.9
-11476
-14064.1
-2298.57
-2494.88
-3957.39
-5479.87
-3608.58
-2842.56
-4915.21
-3233.78
-4350.88
-3428.08
-3935.96
-5414.24
-5959.68
-6721.67
-5050.75
-5538.97
-3805.06
-5191.93
-4469.45
-8430.39
-6473.2
-7693.6
-8698.06
-6963.02
-7953.54
-7932.56
-9129.91
-5798.17
-6054.48
-6888.25
-19767.5
-16308.6
-17302
-17149
-18005.2
-18903
-17895.5
-22118.9
-20216.1
-22422.1
-20121
-24010.6
-26382.6
-25882.3
-24285.4
-16969.6
-14344.1
-16526.8
-16338.6
-15678
-17969.3
-15463.9
-3187.2
-3096.51
-4288.86
-6857.43
-4603.99
-5254.62
-7234.72
-4924.6
-12239.5
-9949.6
-11908.1
-14811.2
-13020.8
-15597.8
-13502.9
-16275.1
-9643.12
-11154.4
-11548.2
-9101.08
-8124.42
-9700.77
-13063.2
-12489.1
-14871.2
-11900.6
-14090.4
-8562.27
-10720.9
-10238.5
-6304.86
-5707.66
-7378.23
-7301.82
-5887.71
-5928.53
-7884.98
-16018.7
-18305.8
-15933.2
-18182.8
-13941.4
-11425.7
-11657.8
-13897.2
-10872.8
-9482.91
-8838.59
-8689.92
-10189.1
-9989.69
-9432.22
-2651.78
-1205.58
-2673.69
-875.176
-2477.87
-2437.72
-951.364
-2066.82
-872.972
-2089.65
-3573.18
-2617.48
-3608.28
-1884.33
-3446.02
-3814.95
-2343.34
-4400.14
-2891.95
-3949.85
-2446.76
-4282.23
-4146.79
-2950.18
-20030
-29397.4
-23619.8
-16976.9
-29451.7
-20306.9
-16713.8
-25362.5
-32704.5
-21613.5
-27866.2
-25191.7
-32469.8
-21821.8
-25647.2
-22267.2
-28108.7
-32623.2
-32884.3
-22075.1
-25778.9
-27219.6
-32047.9
-28853.6
-24041.1
-32571
-27135.8
-24003.5
-27095.5
-23813.9
-28817.1
-32832.7
-32355.8
-23889.9
-27116.4
-21536.5
-24052.8
-20683.1
-21815.6
-22335
-22794.8
-20061.4
-20834.4
-18636.3
-21000
-20766.8
-22129.1
-19404
-19878.8
-3309.3
-1270.8
-3422.87
-1460.57
-3282.66
-1080.89
-3344.36
-5551.15
-7589.2
-5614.35
-7643.47
-4971.23
-5555.5
-7907.55
-44200.2
-37049.4
-29740.9
-39158.8
-35945.6
-45023.5
-38988
-24716.4
-32272.1
-21345.2
-27429.4
-24896.2
-32470.7
-21128
-24400.9
-20616.8
-32199.4
-27143.4
-32023.7
-24192.3
-20846.2
-20937.1
-29907.4
-17291.7
-24315.1
-20657.3
-29838.8
-17553.8
-21285.5
-18125.2
-24677.5
-30269.4
-30345.8
-17866.7
-21550.3
-47329.3
-39543.2
-33385.6
-41673.3
-38807.5
-47854.2
-41638.9
-47720.1
-41456.5
-38578.6
-33156.7
-39384.2
-47153.2
-41515.2
-45535.2
-36395.4
-39420.4
-30459.9
-44744.6
-37472.3
-39581.2
-45249.9
-39990.9
-30778.9
-37869.8
-36834
-39835.1
-46031.1
-47885.3
-38967.2
-33769.4
-41764.9
-39648.5
-47442.3
-41760.1
-47441.4
-41779.1
-33943.1
-39675.6
-39071
-41814.9
-47835.2
-44955.5
-37926.5
-33916.4
-39785.7
-37856.1
-44802.4
-40141.1
-45671.3
-40707.9
-34000.6
-38313.3
-38501.3
-40414.4
-45734.4
-23599.8
-24580.5
-21206.4
-24043.1
-22905.7
-25725.2
-21713.6
-24040.3
-22516.3
-27181.9
-24606.6
-26131.2
-24611.4
-22116.6
-27096.6
-32212.3
-24113.8
-28531.6
-27212.2
-31622.2
-24116.3
-27122.3
-24096.7
-28462.7
-31088.6
-31734.5
-24144.5
-26933.4
-32181.1
-27534.1
-26787.1
-28647.2
-28508.9
-31019.4
-29730.5
-33470.8
-31713.9
-30329.7
-27550.4
-29518.9
-34510.1
-30738.2
-43751.3
-37256.2
-39441.6
-33301.7
-44035.3
-37228.7
-39007.9
-42920.6
-38082.2
-33087.9
-36372
-36525.6
-38586.6
-42539.3
-28337.5
-26445.5
-24013.2
-27526.2
-25330.8
-29648.3
-26323.9
-26878.9
-23772.7
-22998.8
-22873.1
-24152.3
-25085.1
-25451.2
-6634.16
-8915.57
-6051.62
-8175.67
-5491.82
-6611.63
-9296.97
-9088.41
-16160.8
-19687.6
-12529.8
-12238.1
-15938.1
-9362.41
-14419.2
-19859.4
-17458.6
-23802.5
-17718.8
-14144.9
-20045.1
-14694.4
-18244.2
-23998.2
-20411.1
-17988.2
-14964.9
-20235.4
-26413.4
-32742.7
-23059.9
-28608.6
-22905.7
-26488.2
-33075.2
-26165.3
-22506.1
-33011.8
-28419.8
-26045.9
-22682.6
-32712.3
-15751.8
-21062.2
-19216.9
-24592.5
-18987.5
-16004.6
-20914.8
-15494.2
-18501.1
-20588.4
-24432.3
-15232.9
-18741.8
-20750.8
-17555.5
-21896.8
-25206.5
-20686.6
-20549.9
-21840.9
-17736.9
-17363.5
-20233.4
-25160.1
-21678.7
-20393.1
-17160.9
-21762.4
-26765.2
-33075.3
-23258.3
-28755.9
-26707.3
-23392.2
-32691.8
-26957
-23669.5
-32571
-28877
-26961.4
-23565.6
-32994.2
-16489.4
-21208.5
-19443.7
-24902.6
-16251.1
-19649.3
-21337.9
-16723.3
-20046.1
-21574.6
-25012
-16946.2
-19858.3
-21465.7
-16980.5
-19093.3
-19014.1
-20169.3
-18525.5
-17358.9
-18557.5
-16540.1
-17351.9
-19455.6
-17290.2
-17977.6
-16027.2
-17960.8
-16892
-15845.5
-14809.1
-16835.7
-15913.7
-15612.5
-17449.9
-17923.8
-17823.9
-19939.3
-17964.5
-19019.8
-16899.8
-18451.1
-13972.2
-13810.1
-13996.4
-15809.8
-14972
-13104.8
-14810.5
-14748
-16647
-16546.4
-16833.1
-15431.7
-15852.4
-15719.8
-5477.86
-7380.56
-5648.78
-7294.76
-5574.55
-7083.5
-5648.63
-12899.8
-14629.1
-13616.9
-12792.1
-14372.5
-12309.6
-12849.6
-11428.9
-9340.33
-9507.29
-11266.7
-9744.1
-10892.5
-11410.8
-11056.2
-12717
-12914.4
-12155.1
-12133.3
-11723.6
-11527.2
-9868.19
-8990.02
-8836.16
-10741.7
-8559.3
-10423.1
-10234.8
-30736.2
-22302.6
-26108.2
-34385.1
-34223.7
-22112.6
-30857.5
-23324.3
-31542.6
-19550.3
-26290
-19795.9
-23082.9
-31411.8
-23654.8
-20328.5
-31737.8
-26608.3
-23871.7
-20091.4
-31885.5
-13587.2
-19660.1
-17178.1
-23276.2
-16905.4
-13867.2
-19464.9
-13305.8
-16344.6
-23051.5
-19053.6
-16621
-13024.6
-19255.9
-12171.8
-18194.8
-15191
-22213.6
-15474.3
-11889.1
-18407.7
-12457.2
-16052
-22458.4
-18838.5
-15768.8
-12740.7
-18629.1
-9917.27
-16394
-12830.3
-20374.5
-13119.9
-9639.24
-16616.5
-10197.9
-13713.5
-20643.5
-17072
-13422
-10476.4
-16850.1
-22503.3
-31059.7
-19248.8
-25682.2
-22749.2
-18999.7
-31165.4
-22159.1
-18435.5
-30767.9
-25338.7
-21897
-18690.5
-30675.4
-11322.7
-17969.8
-14891.4
-21573.8
-11605.5
-14602.4
-17752.3
-11040.1
-14013.3
-17303.2
-21314.3
-10758.5
-14302.3
-17523.4
-47221.8
-37988.3
-32372.1
-40926
-38902.5
-41031.1
-46561.1
-46879.5
-41301.2
-39167.4
-32639.4
-47512.9
-38307.5
-41212.1
-32331.8
-25130.1
-29212.7
-36574.8
-36517.1
-24985.2
-32375
-32271.3
-36330.9
-29041.5
-24670.9
-36418
-24827.8
-32204
-31968.5
-23991.5
-28347.2
-35849.9
-24164.6
-35975.1
-31875.5
-32053.8
-36215.2
-28548.1
-24505.8
-24339.4
-36113.1
-32129.4
-31104.6
-22496.2
-34575.8
-26734.7
-34740.2
-30982.7
-22685.6
-31224.8
-35075.6
-26963.5
-23068
-34923.2
-22879.7
-31340
-46162.8
-38592.6
-31757.5
-40721.7
-37637.7
-46879
-40591.1
-46475.1
-40230.2
-37246.4
-31460.3
-45734.2
-38246.4
-40371.9
-31677.4
-23810.9
-27786.2
-35700.4
-23630.5
-31775.3
-35568.1
-31566.8
-35254
-23257.9
-27570.6
-23442.7
-31455.9
-35402.4
-32448.5
-25272.9
-29613.6
-36648.7
-36690.3
-25405.4
-32417.2
-32466.6
-36738.3
-29747.6
-25652.2
-36732.5
-25535.2
-32471.5
-47134.4
-39497.1
-34262.9
-41548.7
-39049.6
-41670.4
-47369.3
-47656.9
-41789.4
-39095.9
-34157.1
-47354.1
-39632.9
-41708.9
-32429.8
-26038
-30105.5
-36645.9
-25958.7
-36709.9
-32382.9
-32455.6
-36753.5
-25763.7
-30023.1
-25863.8
-32469.1
-36732.4
-31633.6
-26204.7
-30072.2
-35441.6
-35696.1
-26242.2
-31443.3
-31794.5
-36088.2
-30132.2
-26257.7
-35897.7
-26255.8
-31936.5
-46940.6
-38902.1
-34258.7
-41461.7
-39277.2
-46811
-41283.9
-46334
-40913
-38945.3
-34276.2
-46387.8
-38664.6
-41139.5
-32257.4
-26109.3
-30215.3
-36587
-26164.9
-32328.9
-36492.7
-32167.2
-36242.7
-26241.3
-30236.8
-26211.3
-32059.4
-36388
-25696.2
-29497.8
-23589.7
-26549.4
-23361
-26081.2
-28622.7
-25445.7
-22824.9
-27475.6
-26187.1
-24957.2
-23137.7
-28430.3
-17929.2
-19565.6
-19429
-21971.8
-19791.4
-17672
-19985.8
-18140.7
-20366.6
-22442.3
-20673.5
-20098.9
-18308.5
-20350.3
-18572.5
-21557.4
-21002.9
-23909.5
-20892
-18597.8
-21386.8
-18519.8
-20578
-23621.3
-20949.1
-20756.4
-18433.1
-21188.8
-18057.6
-21943.7
-20810.7
-25140.3
-20906.5
-17905.6
-21967.2
-18197.5
-21059.2
-25102.9
-21965.8
-20997.7
-18318.1
-21980
-26575.4
-29602.5
-23736.8
-27613.1
-26253.6
-23901.1
-30388.6
-26665.4
-24076
-31133.2
-27813.5
-26904.5
-23977.1
-30415.9
-18557.3
-21691.5
-21066.5
-24614.9
-18591.3
-21107.2
-21801.2
-18500.6
-21102.5
-21936.2
-24760.5
-18420.5
-21113.1
-21878.4
-37712.8
-33356.1
-30188.7
-35031.1
-32831.3
-34258.8
-38488
-36595.2
-32607.5
-31276.8
-29638.8
-35706.6
-31948.2
-33472.7
-25001.2
-21805.1
-24611.2
-26491.4
-27413.7
-22383.4
-24229.8
-25711.8
-29069
-25261.6
-23376.2
-28264.6
-22903.4
-26371.5
-28078
-24826.9
-27383.9
-31770.7
-24522.4
-31164.9
-28560.2
-27553.1
-29816.3
-26935.4
-23801.3
-24183.7
-30521.7
-26984
-31001.7
-26150.4
-35180.7
-29697.6
-34875.7
-31235.2
-26072.4
-30740.4
-34167.8
-29534.9
-25853.1
-34546.1
-25976.5
-30452
-40152.3
-34188.6
-31698.1
-35717.6
-34589.3
-39523
-36389.2
-41124.7
-37575.6
-35634.8
-32067
-41640.8
-35368.6
-36987
-29418.4
-25094.3
-28526.5
-32328.3
-25329.3
-29004.4
-32855.9
-29792.1
-33772.8
-25706.1
-28820
-25530.4
-30136.9
-33328.3
-22526.7
-21171.2
-22277.9
-25525.5
-24493.4
-20475.5
-23406.7
-21582.9
-22247.3
-21382.4
-18886.9
-23404.1
-19716.7
-20576.8
-20683.2
-17187.4
-18138.4
-17936.2
-18772.3
-19492.8
-18995.6
-22332.9
-22412.5
-21594.4
-19439.9
-23901.7
-20170.2
-20979.1
-17170
-14817.4
-17063.2
-16989.4
-15955.5
-18410.3
-15890.7
-18373.2
-21035.6
-17986.3
-18251.1
-17009.8
-19507.8
-19754.4
-6490.22
-8677.8
-6076.33
-7764.73
-6638.03
-6047.87
-8297.57
-15371.7
-15637.8
-13660.3
-16310.5
-13881.6
-17229.9
-14606.7
-13461.8
-10948.9
-10250.4
-12004.4
-11468.4
-12160.2
-12821
-13111.3
-13594.5
-12987.4
-15503.9
-12284.7
-14538.9
-13938.5
-11600.5
-10551.9
-9388.72
-11454.2
-10882.8
-10011.9
-12291.9
)
;

boundaryField
{
    left
    {
        type            calculated;
        value           nonuniform List<scalar> 0();
    }
    bottom
    {
        type            calculated;
        value           nonuniform List<scalar> 0();
    }
    interface
    {
        type            calculated;
        value           nonuniform List<scalar> 
2171
(
-1092.89
-1027.39
-908.775
-962.249
-3887.09
-3428.14
-4026.11
-3653.74
-273.212
-705.051
-660.915
-487.525
-530.297
-3749.45
-3503.38
-3630.83
-4532.5
-5109.94
-1233.3
-18373.7
-283.041
-317.58
-474.601
-433.135
-18277.8
-17955.5
-16081.7
-16641.8
-12302.9
-13077.2
-15882.3
-15245.3
-718.3
-761.142
-4277.47
-3381.32
-12044
-11267.5
-8391.04
-9075.12
-3395.39
-3321.37
-3608.41
-8161.4
-7434.32
-1246.84
-323.233
-602.218
-647.15
-2772.01
-1923.08
-799.016
-1641
-588.238
-543.916
-538.329
-582.384
-643.876
-595.718
-5037.76
-4078.81
-3968.85
-3625.86
-4090.48
-6089.47
-4687.91
-5194.22
-5217.37
-6705.34
-6891.25
-6400.29
-6861.63
-1337.3
-17267.1
-332.379
-367.779
-367.053
-328.872
-417.394
-378.505
-379.753
-420.352
-525.722
-483.135
-429.508
-470.727
-17179.6
-16901.6
-17439.9
-17836.7
-16487.2
-16802.2
-17294.9
-16816.5
-15472.9
-15882
-16374
-16010.7
-14078.1
-13333.5
-12822.9
-13357.1
-14054
-13533.6
-14321.4
-15022.2
-15328
-14872.9
-14223.3
-14714.2
-3051.74
-3879.18
-1614.03
-774.648
-4923.98
-4146.72
-1987
-3051.14
-6578.54
-6058.2
-5168.62
-5854.22
-12642.9
-12106.5
-10260.7
-11012.1
-11398.6
-11927.9
-10017.5
-9308.26
-9919.3
-10503.6
-11221.2
-10687.5
-5767.49
-4197.18
-3850.31
-3696.9
-4272.8
-6901.53
-4983.09
-6183.75
-7164.47
-9701.93
-8939.7
-7422.43
-8626.69
-1568.97
-552.263
-363.863
-1300.54
-5762.59
-4747.38