/*--------------------------------*- C++ -*----------------------------------*\
| =========                 |                                                 |
| \\      /  F ield         | OpenFOAM: The Open Source CFD Toolbox           |
|  \\    /   O peration     | Version:  2012                                  |
|   \\  /    A nd           | Website:  www.openfoam.com                      |
|    \\/     M anipulation  |                                                 |
\*---------------------------------------------------------------------------*/
FoamFile
{
    version     2.0;
    format      ascii;
    class       volScalarField;
    location    "0.107/solid";
    object      sigmaMax;
}
// * * * * * * * * * * * * * * * * * * * * * * * * * * * * * * * * * * * * * //

dimensions      [1 -1 -2 0 0 0 0];


internalField   nonuniform List<scalar> 
3125
(
261255
173279
110385
42904.6
3823.1
211729
182761
251254
147746
203224
140414
92958.3
49438.4
102024
45606.7
86676.2
4797.78
4864.21
40147.4
3890.22
602915
543722
195362
270544
332946
145497
256629
367483
282059
179208
136489
246345
-3.79324
21131.7
57167.4
25076.8
25331.5
59468.2
25061
128.857
19685.3
21596
564351
517528
588205
487940
211721
344423
428267
530534
221521
440707
380320
474044
550088
453478
170633
324800
405363
504653
178560
417383
351166
440184
179452
248582
313841
119282
241408
339072
259254
168728
112510
231708
185449
122485
70595.2
62588.7
106817
170353
78135.7
114019
65424.7
114457
170408
113260
62604.4
60273.9
101374
160465
68466.8
108065
61710.9
105998
78.6635
20876.5
55212.3
24502.7
25070.9
56314.2
24599.7
161.324
19549.4
21463.2
806056
356973
248540
290734
228377
163903
207647
483345
431949
131976
118923
149631
-206.579
4597.62
49497.1
36677.3
38335.9
65714.1
44750.5
1401.91
9158.68
10139.3
767000
329120
785858
726048
192334
235507
257083
348929
241293
325329
500907
554795
747238
688831
155225
215448
235314
321461
194858
299091
470932
522774
231458
271084
208916
133228
190012
454087
404937
121941
99354.5
137724
235072
196532
56234.2
53474.4
66013.5
126231
93858.3
109766
73519.4
99299.2
218846
182880
51172
51409.3
62840.6
116817
80501.3
102120
68917.9
92676.4
9475.42
9611.98
-128.616
4748.4
47759.8
34799.3
37391.1
61730.5
42405.2
1431.97
9365.83
10271
751020
402678
350924
305372
233924
226377
273073
328913
237125
286654
253821
299349
229919
154638
181026
200819
288439
199371
222114
366636
415264
451745
329886
404071
343487
317675
388595
143455
206906
163548
127632
174531
155765
216504
191973
170504
18250.5
7381.66
-79.6863
7431.61
5509.48
19294.8
10575.7
8433.11
51592.8
42241.2
39532.8
30732.3
24980.9
34822.4
37706.1
25306.1
35777.5
22703.9
38603.2
64132.5
43183
44523.3
23608
38277.4
38735.5
863.948
8208.54
9834.29
14485.6
21885.6
13050
11359
22045.2
12826
713610
374987
732291
544625
676829
648302
706389
530296
604729
658599
201990
286819
264485
261997
379632
286946
321341
391617
295453
393384
491477
365931
231381
294463
317472
478639
330145
356866
629258
573142
468033
419693
518013
587070
433090
535029
695301
507959
641193
613211
669673
494152
571151
623448
162851
262930
242161
241809
358529
265097
297446
370044
273068
366062
466612
339781
186635
270072
291678
454140
305766
331142
594743
540470
439402
388413
487401
554048
401137
503788
327924
284874
217770
207853
254434
307032
217736
267195
234216
281856
212101
126185
165917
183814
271503
184042
204912
342812
389029
423808
303798
378309
320810
292390
363585
133186
194636
151397
105866
160067
143215
203639
177279
157713
221426
157050
185666
149774
184337
148048
142270
174346
63300.2
84344
70453
55903.9
80206.3
69646.1
89931
86524.4
74520.6
136979
144971
118366
85889.6
89235.2
104439
136918
95358.3
112402
138954
108658
71407.5
84884.8
95392.1
132224
91892.3
104090
206101
144582
172819
139409
171521
136414
132583
162308
56830.4
79370.9
66855
53775.5
76660.3
66359.8
84792.5
82532.2
70799.7
127329
136830
110509
74433.8
83755.4
97363.5
129339
89707.5
105119
129369
101320
67236.1
79284.7
89293.4
123288
85612.1
97307
17739.1
7448.92
-64.1212
7642.48
5658.7
18898.1
10735.2
8519.91
49798.8
41195.8
38569.9
29584.7
24737.3
34092.1
36896.5
25069.5
35032.1
21907.4
36709
60546
41457.7
42469.8
22965.2
36935.8
37101.7
903.642
8351.69
9982.72
14631.1
21762.4
13154.2
11475.5
21926
12943.6
920759
944355
276921
292725
547128
527109
-266.424
-159.261
67712.4
59301.8
904643
928062
897314
874025
567400
587916
881378
858274
555012
575241
269820
285265
535035
515314
261475
246381
76601.3
85953.5
254721
239986
74636.2
83719.9
6386.53
4905.15
6390.33
-217.605
-131.732
66002.7
57831.3
5181.44
2933.02
5273.4
3972.03
5167.21
5511.9
3054.43
653801
617711
607582
622260
669945
531165
495858
556988
564658
578152
507805
518957
394545
376776
209029
205489
198841
209129
220078
275015
291067
259214
263563
278702
312078
305896
348394
321606
336641
322776
295665
260390
269013
267075
236995
279917
250442
246432
412626
430997
396880
372668
354795
359925
383032
286648
303637
293757
298457
316405
184914
166936
188254
187818
197341
175135
176190
230965
258267
236228
227700
247684
240631
218554
14899.8
10818.3
-16.547
1694.39
57.3792
1689.09
1408.56
21283.9
20649.6
17416.2
17526.8
16818.9
51952.3
55403.4
58843.1
51973.5
53368.3
57085.3
50570.7
29510.2
25571.1
29256.3
25475.8
29629.1
25631.9
29216
19585.5
24841.5
61323.2
60276.7
53776
54466.8
55204.3
25260.5
24738.1
29227.9
29486.8
29099.2
2497.54
310.579
2161.11
161.205
2077.99
2636.36
382.774
18381.6
21721.7
18032.1
21894.1
18060.1
21921.3
18456.7
609701
578719
538566
625358
552473
458160
470533
530494
495683
482183
508390
446796
637752
592981
573586
578465
621802
737840
760088
493208
501949
528344
507178
543635
344501
316250
360276
356031
333585
372281
326720
400580
446678
391845
415938
412071
434016
380733
494722
483979
551235
517429
506811
537884
472176
435307
459444
453250
403056
472300
423648
414359
715790
693937
410892
385555
393304
398579
425063
479341
513184
460271
465592
498154
594155
524767
535932
578727
511082
723353
745368
431570
466906
488868
503502
444494
289358
297428
335903
308543
307400
319221
279851
338872
386336
369783
393465
359098
349153
374804
424357
458966
483078
491873
435526
447486
470579
370079
398000
429521
380579
391480
409793
359558
701538
679935
377388
363424
333453
390743
345171
418784
474380
427026
460042
406138
385019
367585
190507
188710
170499
200566
179224
235824
265685
238103
254281
225896
261258
287583
303027
298016
277871
270482
287646
217299
228830
251276
222493
231365
238217
208951
402757
420802
364213
327142
321899
351220
310516
245942
277298
270114
289120
256247
154874
157047
177178
160080
164669
168040
147781
192719
219614
222176
213769
205195
210572
200758
198217
188768
175757
178912
187647
163759
176553
124641
130760
129610
133083
138618
68008.3
60432.4
64568.6
68237.3
62443.7
70538.5
65656.2
99047.5
111366
101089
99833.6
105879
103978
94700.9
159253
158905
178489
161693
167632
169356
151048
120150
118986
121440
107668
126833
112916
114436
151377
139399
67742
66365
71650
72731.8
74460.1
116454
120880
106680
108520
112427
180684
161980
161581
171100
153672
159424
171885
108254
120753
118733
126839
115292
60733.3
58312.7
65535.7
58342.8
63178.8
63286.9
56195
85729.7
96875.7
96027
94886.8
90110.1
91209.6
90797.5
134087
149587
152307
152392
140853
142296
144723
102659
103145
114956
102120
108385
109605
96853.2
147358
135703
63254.8
67338.8
59804.8
69270.7
65099.9
101432
110882
98969.2
103291
94825.8
14644.5
10662.1
-7.87144
1876.23
167.752
1607.84
2020.85
20852
20309.9
17332.3
16691.3
17396
47570.3
53616.6
50348.2
53578.2
49088.9
51813.1
48990
28355.3
24834.1
28842.3
25247.8
28847.5
28480.7
24883.4
19198.8
24329.8
57498.7
51142.2
54713.2
51997.8
49824.1
24463.1
24138.1
28512.2
28192
28240
2811.86
343.081
2270.8
251.955
2741.23
2391.05
466.501
18291.5
21331
18004.2
21785.1
18444.6
17961.1
21536.1
860220
826378
882026
298636
252446
255727
293920
325353
308874
262435
262313
277192
307638
276383
292265
193469
175124
198312
171338
187425
162323
166147
182583
487845
507347
514083
465994
495481
458983
448862
477115
124824
109666
113545
120230
130177
122082
118189
134828
2289.45
723.569
-334.625
569.989
317.315
3634.26
2249.68
1650.72
43262.6
44754.3
46789.2
41432.8
39845.4
35148.3
38356.3
36463.3
43951.2
51378.1
66716.8
58316
58829.6
44412.2
51324.6
51393.5
5270.64
4082.49
5755.78
3325.5
7637.36
10884.1
8054.7
10540.3
211623
125050
126048
156940
159797
166814
164038
207317
205078
198445
200780
95173.7
96466.7
99979.3
98727.3
122144
121116
117242
118303
823307
786899
844716
199065
162998
164124
196157
838548
765788
817014
827931
850898
745851
774379
795626
209296
180381
204442
184127
215490
193137
189436
220341
282669
246876
287411
243538
276185
234587
237992
271416
629655
608673
532913
518673
551961
590695
536639
571227
802044
727618
780933
812573
835334
708146
739191
759978
137533
117125
118505
134933
141896
123784
122445
144530
187809
157984
156832
190676
182481
150791
151967
179658
616431
595714
504523
487997
522914
560385
505279
541536
152726
149791
142599
145606
99300.3
102586
109728
106466
92987.4
91655.8
88167.6
89539.4
67340.4
69048
72484
70837.9
45444.1
48606.1
54901.5
51678.3
95498.1
92190.4
85152.7
88480
37491.5
39710.3
43599.1
41444.4
65569.6
63807.5
60232.8
62050.4
317202
301059
246188
244368
260130
288974
257577
274393
128162
113338
130739
111912
124120
106796
108269
121573
476674
495855
486369
437468
468456
433383
421082
450790
87775.2
77656.2
79486
85279.9
90999.4
84138.5
82375.1
93496.2
248009
221909
233905
217303
231660
209061
206723
220147
54173.6
48036.7
50470.5
51472
58049.5
58460.4
54929.7
61900.2
110510
105137
115017
101281
105469
93058.7
96884.7
101036
106020
95769.4
75051.7
81724.7
83815.5
102608
90322.1
93009.4
232569
206544
219284
211614
225608
194553
193721
206330
45201.2
40507.3
42867.3
42633.9
47737.3
47442.5
45139
50303.1
79675.3
74871.6
72971.5
82184.2
76671.3
68310.4
70278.1
74165
103227
93248.5
70614.4
76471.6
78762.8
96260.6
84389.5
87311
42528.9
39422.6
33648.9
36665.9
4844.31
6262.13
11008
8221.88
35736.1
33474.4
29409.4
31703.8
4965.09
6604.75
11267.6
8571.79
2305.54
730.417
-229.991
736.225
476.371
3770.72
2436.2
1801.27
37590.9
38290.6
40175.3
35876
35171.5
31259.6
33711.9
32606.7
42927.4
50128.8
62869.8
54912.1
55535.4
42131.6
48470.4
48619.8
4626.95
2094.12
4119.9
1684.77
4517.6
2368.49
4278.65
5681.77
4216
6105.58
3431.33
8214.4
11239.8
8472.42
11064.7
704419
769862
721963
342173
359313
372138
335474
355581
323325
320289
339307
222069
246703
234018
215831
230315
242867
219624
231361
259755
258669
246220
310843
314579
297453
248073
241206
254597
252292
266544
300491
271362
284291
301495
310405
313527
275576
291031
325017
285556
165957
144433
161163
148308
171811
157202
176627
153347
270475
277680
302179
265726
280690
290975
256011
468619
449666
388979
382600
406085
441098
398812
423463
425505
435652
410490
342262
334868
355842
347323
369351
419759
381017
395659
324455
358296
338284
305629
322571
342513
310434
329365
373334
366572
352324
193808
197489
216946
192027
207054
202864
183501
150663
139476
155413
135588
145043
126840
140328
130735
221447
226280
227019
200714
237267
212078
209557
4509.3
7343.87
16774.3
14215.3
12730.7
6156.57
10599.6
9191.9
-109.313
956.711
1159.13
4410.68
7430.47
6779.95
4402.01
3876.82
2926.68
6151.81
3384.91
20041.6
15328.5
16126.6
13909.1
10610.7
9890.15
13978.6
13246.1
11717.8
9184.82
12519
47037.9
46993.5
43151.1
41472.9
42340.5
48133.7
45923.6
27137.1
23552.1
24092.3
26522.3
30081.1
32273.9
33270.1
29186
33580.7
33378.1
38412.4
37209.5
37858.6
33905.7
33124.2
37047.5
30670.4
21321.5
27579.7
26357
37911.8
32877.4
31890.3
62899.7
57223.9
56372.1
48344.4
43658.9
43874.1
48925.7
49388.4
50685.4
44331.8
50182.7
24255.5
28283.6
28787.1
33626.4
38669.7
38654.1
33949.3
33731.1
33321.7
38814.9
33635.5
5477.14
5110.4
8060.19
8822.3
4967.85
8577.35
5698.12
18431.5
21063.3
21316.2
18188.2
15918
13104.1
13105.9
15926.5
15003.4
14633.3
11249.8
11950.9
14582.6
11738.5
15155
180638
178032
171069
173764
184921
187436
194150
191729
107146
105974
102330
103535
109671
110808
114528
113426
663031
732047
680124
686980
713680
669648
559058
549669
590203
564024
605950
695192
635324
652428
805140
782522
690983
667511
711587
753291
686875
732358
516069
535413
574568
521248
559043
568148
622545
584750
618342
640502
601481
237758
211140
207550
242587
231444
198499
226600
202145
355522
367768
396641
348002
366643
384404
337306
389176
403721
408994
358809
377863
421456
369720
482694
504408
511399
448800
524600
470742
460448
253767
216588
220119
248952
260177
229072
264968
225603
447046
465895
498282
437233
485249
458857
425753
650868
672296
670556
610378
650304
610371
591672
630243
440700
484510
456070
406429
425014
453865
411733
439389
501173
487314
471609
551692
569565
535377
446618
438421
468487
451952
483251
552213
503180
519200
646058
677125
629212
521888
548242
484068
563422
497514
659087
595914
612496
789985
767581
657784
631857
677861
718571
650679
698125
480465
533193
470747
518277
457555
531036
588422
547030
579473
605855
563177
156399
134686
133420
159105
151715
127873
149049
129173
298998
347148
327722
341027
317500
308772
330051
328713
381690
338063
352145
348523
318678
363404
413287
479191
424796
445913
436094
458190
402321
166694
139086
140319
163951
171706
146080
174489
144877
380714
441774
413592
433752
402486
421711
391462
637374
658543
637898
576461
618213
579449
558368
598727
409113
455202
423726
375842
417969
369095
404271
357053
471204
453513
438528
515200
537117
499525
414010
431833
381291
445859
393640
520362
468678
484016
128142
131268
138449
135380
124080
120897
113668
116896
81236
82716
86121.4
84693
79309.4
77782.5
74323.8
75898.8
67955.5
64664.3
58082.2
61359.2
71379.8
74690.4
81538.1
78216.7
51181.4
49153
45342.4
47418.7
52905.2
54867.1
58488.9
56595.8
333670
350466
350316
313300
334537
303862
298947
319051
204395
229716
215419
198178
221377
197290
210856
188153
241939
238229
226698
286787
293499
274290
227820
232124
206627
243093
216163
280219
250009
262031
252174
292365
258850
267384
268292
243234
277434
111410
96823.6
98403.5
108895
115157
103295
117688
101771
225795
261308
249545
257494
240384
234439
247771
457764
439137
366378
357963
382726
416229
373369
399342
394692
408424
380469
315385
325796
288273
338413
299306
393256
352633
366448
299513
334833
312464
281161
313371
277414
301146
266739
349092
339027
325636
162122
185815
180402
184508
172454
176181
169532
102792
93587.8
91949.1
105301
99325.1
87133.3
96829.8
88831.7
184833
212820
188511
193017
196775
201705
177105
210379
209212
198954
166287
159868
167254
169275
177323
197290
176922
187799
203334
189745
156643
160949
168613
193660
172473
180953
139283
150701
157444
141771
147897
136290
152642
146007
166326
163336
156020
74302.1
73194.2
69517.2
78409.3
70000.5
62103.1
66009.4
65712.7
73794.1
74109
83203.3
76692.1
79797.5
76753
71076.7
92424.8
93068.7
89893.2
82499.8
86006.1
96822.1
88502.5
151055
153230
151702
135858
160424
143040
143363
87148
77160.6
80900.9
82921
91831.3
88800
96159.7
85012.4
127585
129072
143195
128533
134903
135216
121392
116721
127846
145059
128489
133851
112626
118392
123042
69761.5
79046.2
76956.3
78135.1
86256.1
88778.2
79363.4
81471.7
87043.1
92323
84476.8
126876
122508
117769
99159.1
93418.9
96378.1
100844
104262
113130
100492
108974
193629
194719
183127
152974
152658
137688
161759
145576
183623
162922
172891
197985
184740
146754
149783
157964
181450
160488
169531
128470
143802
130008
135195
122544
125787
142188
134654
153222
152097
143800
58098.1
56573.2
54394.1
60649.8
55435.2
49765.9
52886.5
52004.3
65415.1
70994.4
73423
73718.7
68212.3
70250.7
68405.2
80409.7
88606.7
78812.7
79220.9
84373.6
75251.4
84911
127480
144515
128221
130114
135174
137327
121035
65911.2
59027
61132.1
63378
68738.5
65702.8
71263.7
63665.3
108623
122048
121434
123086
114823
116252
114747
113627
124453
135904
119671
125429
105601
110319
115324
65326
74257.4
71846
73194.6
82086
76335
75546
70605.8
81608.8
85778.9
78662.8
117204
114307
108908
92173.4
88890.8
82278.5
95959.3
88440.9
105646
93194.3
100904
22865.5
25688.1
31046.9
28124.7
20580.8
17825.1
13053.8
15733.8
21214
23572.8
27640.8
25307.1
19492.2
17130
13064.3
15443.1
4492.96
7282.53
16254.2
13940.5
12447.3
6214.68
10520.5
9110.64
-80.5573
1072.27
1306.01
4638.77
7020.09
7828.38
4137.48
4819.24
3093.39
6339.66
3590.8
19656.7
15137.2
15955.4
13966.7
10056.6
10913.2
13286.6
14099.5
11689.2
9302.08
12516.7
43466.2
45677.6
40526.2
40313.3
44727
39495.6
44571.9
25389.4
22148.1
24640.2
22858
27692.1
29154.7
30251.5
26676.8
31943.7
32781.4
36477.1
36210.8
32587.6
35652.7
32270.4
36205.5
30001.6
20519.9
26462.9
25255.2
36062.1
31395.3
30436.8
59101.7
54187.4
53170.5
46193
41750.3
40640.2
46750.6
45136.2
48163.6
42187.6
47535.1
23614.2
27354.9
27842.5
32623.9
36991.8
36324.5
32475.7
32192
32065.3
37122.3
32343.4
5889.93
5254.19
8966.78
8443.95
5839.64
5365.85
8973.92
18092.6
20177.7
17670.7
20623.4
15938.1
13231.2
13406.8
15782
15138.5
14689.6
12071.9
11546.7
15220.8
14714.1
12043.8
4910.28
2874.14
5289.52
3849.44
5341.19
5150.88
2920.42
6395.99
4791.97
6211.63
3006.68
535.401
3553.92
1072.77
3485.28
3088.84
672.005
3307.89
565.684
3660.49
1157.66
3793.83
3191.45
753.826
348474
314895
364927
384259
320754
341455
392527
217492
204201
247665
221430
224039
198843
240185
210924
225225
214447
186956
192235
232580
204468
137117
121179
137737
142180
125844
131425
148518
142885
161644
143681
136205
131431
155112
148740
45351.7
47352.2
51279.9
45679.3
49255.2
43912.3
47167.6
41668
39288.1
41929.2
37111.1
40419.3
43119.1
38010.2
4265.74
2078.23
4029.63
1637.95
4431.62
2327.33
3974.37
7250.26
9906.51
7225.36
10771.9
7795.04
7054.92
10183
265597
289255
336708
303325
294956
259956
310565
237337
210958
255401
242595
230709
216398
263005
244097
278570
228806
249863
223296
250802
270857
327247
307149
375816
341061
334238
301326
367609
320078
351085
333107
287898
293684
359230
313121
177057
192758
221957
196756
197743
172379
202730
182377
215053
209093
228649
204008
187171
208904
248093
282063
296000
313986
253619
276440
288897
241887
274764
306446
263826
269360
281719
236475
162672
186651
202565
190764
181756
167220
184965
157666
173532
196198
171020
175815
179153
153233
105984
112218
127091
112384
116444
102189
116972
110074
126459
132396
125659
121329
121704
113951
57322.1
51070.3
55618.1
57526.6
53200.7
54671.4
60012.5
61496.8
69300.6
62347.3
61737.2
58611
65863.2
64635.5
120280
115782
135797
120668
125816
111244
129669
114861
117603
115127
101621
106040
123511
109503
50040.8
49238.9
55123.8
49169.8
52683
46907.9
52554.7
53135.7
59552
59694.3
58947.5
56134.7
56324.9
56032.3
94556.8
107510
107822
111847
98246.1
103371
103400
90736.6
94737.7
106910
94814.4
98850.9
99000.5
87128.1
40882.5
45950.8
44222.4
45823.7
42605.3
43925.3
42573.9
37983.4
36226.7
40753.4
36265.7
39492.3
39352.6
35009.1
7728.63
10250.6
7360.27
10906.2
7892.99
7453.91
10589.5
484016
448955
411975
428391
438008
459583
473108
287516
279619
272274
245776
263692
297150
270480
277975
246737
237781
252521
255158
268540
261441
185311
163932
196175
187510
203236
179068
169028
191649
217760
180504
194175
198008
210549
175317
240876
217986
213911
206838
221963
231884
226436
249987
238377
243706
214445
259206
230138
235015
172496
155072
150023
153308
160465
162451
164565
180574
175163
156745
177640
167768
188791
169978
166727
157808
189024
168219
172853
182129
152818
160658
168434
141978
161901
154667
175157
146867
214262
209654
205937
184719
223008
198093
201456
205639
182703
185447
177538
197150
190331
193381
50443.3
53540
53309
47442.5
48849.6
55231.7
49049.3
45844.1
40405.9
43408.1
40556.7
44535.6
41430.9
44719.5
27919.8
24608.8
25176
28151.5
28485.1
24707.9
27662.8
31116.6
35529.8
33856.9
31447.1
34560.6
31969.1
30690.7
29312.5
25446.6
25438.1
28669.7
28957
25611.3
29002.9
33171.4
36429.3
36549.1
32170.1
37207
32624.5
32702.5
6050.31
9562.59
6743.01
9337.37
6536.81
9120.77
6223.2
18637.8
21802.7
21932.8
18879.4
21702.1
18826.9
18845.4
15851.8
12863.5
13254.3
15933.7
12923.1
15793
16211.2
18664.9
22022.9
22052.4
18894.9
22061.6
18794.9
18722.8
15395.5
12589.3
12415.6
15821.7
12224.1
15641.3
15531.6
407636
422677
383939
349485
358113
432986
397639
271333
254225
310317
279355
302408
278160
248588
264413
286532
235843
271830
257645
294348
241420
316705
288870
280970
270217
289709
306884
298217
326620
307431
278561
317212
298550
336615
307670
367096
356314
343670
312653
334535
377404
346411
356856
316413
303994
326857
325428
346698
336585
451437
438379
418781
384193
409246
462246
427876
440677
390271
375010
407063
399721
429981
417430
292027
261519
318470
302039
285151
326465
267212
299085
342773
280367
309792
306005
334702
274626
398238
366310
352898
338972
387789
362148
376378
408759
380836
396757
347910
419337
371483
386534
203199
232517
255972
240733
227245
234247
208243
197569
221403
215508
248974
192646
220683
227720
259470
269522
249466
223233
230372
278342
251152
267913
244996
257251
296316
237645
287278
276472
302848
333523
289244
275459
324073
267706
311863
293941
252473
281094
305468
314716
260025
285152
377902
412434
340901
357243
332429
387722
402277
368170
315710
348457
382197
324011
392192
358536
219193
239219
277168
247427
244576
214022
254075
225119
267742
256863
284449
230408
251414
260937
330220
343076
314133
283333
352717
320992
291274
339559
307464
372280
322616
362457
348995
299338
234880
260810
226754
216174
209245
252219
242952
226933
195694
219360
235386
202403
243740
219115
139388
150333
171768
151740
154938
157011
135181
144078
167905
165244
177793
148388
160540
162458
196426
203189
190882
169905
211047
176174
189126
203860
189070
227146
197858
219037
211421
182577
141748
145078
139134
123638
129023
151861
135522
148114
140147
145219
165848
134537
158787
154611
126561
144904
154388
146476
140388
130650
141380
122173
131369
130725
148718
118187
135142
136290
174919
195454
170655
163722
187855
181955
157670
168015
145883
173052
164114
180384
161248
151710
79455.5
78788
89473.3
79623.7
84290.1
84240.6
74773.2
74838.9
74197.1
66509.9
74954.5
70267
79127.6
70392.6
65398.5
58201.7
57952.7
60339.9
62752.8
60223.9
63027
70760.3
72843.7
64934.5
73180
67726.8
76311.3
68021.4
94067.8
95483.9
94928.2
84665.2
89185.9
100345
89661.5
87969.6
78140.2
79512.5
78510.5
83577.6
82050.5
84001.1
149150
147833
146259
130659
139363
156777
140749
141676
125948
124433
127030
132575
134365
133810
94054
83378.7
94897.9
94175.5
89079
100332
87538.4
99088.1
111681
96620.2
99286
104267
106007
92333.2
113437
101474
100842
100898
106807
106893
107621
120241
119445
120399
106597
127216
113106
113933
66131.6
74533.1
75117
74422
70769.2
70612.5
69485.5
62807.4
63178
63321
70922.8
59529.2
66969.9
66837.1
58060.2
56108.1
57853.1
51572.8
55318
60578.1
53929.6
62316.1
63104.6
62051
69944.6
59164.2
65188.7
66693.7
80599.8
90437.3
80012.6
79866.4
85094.2
75525.8
85497.5
75832.7
67147.8
75338.6
74851.3
79897.7
71279.8
71200.3
123474
138430
118342
121612
113170
129431
131930
117651
103138
115992
119353
108094
125568
111964
76366.2
78512.6
88185.1
78348.8
82359.7
72920
82306.3
79929.6
90498.5
90467.8
92753.8
83443.7
86520.8
86390.9
95686
95930.5
94720.4
84319
101567
90526
88856.9
100982
98267.9
113276
99869.7
107351
106405
93518.4
46013.9
51778.1
45948.2
47903.7
44331.7
47589.2
49917.8
42223.9
37440.5
42199.5
39619.8
40841.8
43536.8
38543.6
26639.9
24386
27773.5
24267.9
27414
27155
23814.4
29333.9
33130.6
33314.4
30898.5
32216.6
30187.4
30128.4
28108.5
25219.9
28290.2
24619.6
28636.7
27700.1
24831.1
31487.7
34109.6
35828.3
31613.6
32171
34963.5
30868.2
6456.3
9956.81
6887.85
9480.84
6946.57
6365.19
9509.91
18462.9
21772.6
18849.5
21408.3
18795
21226.6
18614.5
15942.1
13089.8
13325.6
15984.2
13185.2
16305.6
15830
18541.2
21914
18874.1
21592.5
18710.5
21646.3
18639.8
15509.6
12868.1
12533
15879.6
15596
12512.5
15732.1
)
;

boundaryField
{
    left
    {
        type            calculated;
        value           nonuniform List<scalar> 0();
    }
    bottom
    {
        type            calculated;
        value           nonuniform List<scalar> 0();
    }
    interface
    {
        type            calculated;
        value           nonuniform List<scalar> 
2171
(
3146.3
4258.89
4297
3167.85
-217.726
-211.348
-209.993
-201.389
799429
245775
287548
478540
427530
-305.19
-62.1965
4705.17
65066.4
44373.4
11.8975
771786
779320
719789
495975
549502
751986
693450
474778
526851
233738
273685
457851
408436
232446
194323
72770.6
98226.2
221018
184724
69597.5
93616.2
-296.802
-122.771
4813.02
62330.9
42793.3
-10.6274
746752
347183
302046
232071
270948
326432
284439
362756
410977
448589
401159
340918
385767
18203.4
7462.58
-314.514
75.9838
5580.38
19243
8481.8
22601.5
38303.9
63666.1
44239
23516
38506.4
-187.995
717141
728076
672780
642449
700228
600925
654608
623511
567732
464798
514553
583332
531496
698798
644577
617618
674244
574358
626790
599090
544619
442169
490346
557206
506789
330939
287582
219385
256282
309180
269119
345928
392436
426512
380815
323033
366023
219663
184172
148096
182263
141123
172942
137402
107469
70873.2
94642.7
131161
103264
207639
174124
140831
173259
133589
163536
130691
102353
67718
89958.8
124223
98036.8
17891.6
7527.14
-303.724
28.3455
5727.58
19015.2
8593.84
22097
37039
60973
42747.6
23105.6
37339.8
-177.6
275255
544214
-312.084
907840
271324
537529
259892
256155
75073.8
4342.94
-205.747
66387.5
2030.1
3269.38
2048.59
651697
606205
620862
530043
563374
576841
517852
392281
208009
198314
208574
274289
289730
311323
347570
335844
321999
259747
268376
279254
249822
410275
395222
371717
285893
302257
297674
184457
187385
196884
175755
230391
257657
247100
240034
14890.5
175.48
-265.624
-270.708
74.2713
1735.78
21295.9
20642.5
51889.9
58766.4
53308.8
57006.6
29520.6
25590.1
29637.7
25654.2
61058.1
60170.8
54379.1
25262.5
24702.4
2562.33
-204.138
-289.769
216.753
2139.27
-276.224
456.573
18425.6
21750
18098.8
21954.7
612591
538980
552885
458650
495252
507940
447287
635665
591627
577134
734293
492021
526408
343682
359425
332787
371403
399658
445638
411129
433003
493651
549977
505722
536653
434327
458376
471205
422687
409198
384576
397573
478179
511274
597007
525185
726285
431993
491427
444918
289798
308355
319021
280285
339340
386054
349625
374536
424846
482665
436016
470184
370557
397703
409480
360033
704430
379554
333852
419206
476893
406559
191754
170765
236160
267345
226223
261678
297841
270910
287482
217676
228726
238103
209320
366325
322294
246286
279017
256600
155170
160037
167990
148067
193068
219519
210485
201117
197244
188270
162763
124330
128965
67891.7
64473.7
62345.1
70425.6
98833.2
111138
105644
103769
158865
178081
167221
168972
119873
118737
126563
112660
67436.8
66236.8
72581.4
116168
120280
181872
162235
153916
160356
108434
119524
115482
60862.8
58364.7
63306.1
56315.9
85907.4
96876.1
91398
90801.7
134350
152269
141127
144690
102868
103141
109596
97051.4
63664.1
59904.3
101600
111621
14735.7
172.867
-255.356
-255.795
177.167
2055.46
20897.4
20451.8
17438.9
47674.5
53602
51924
49015.2
28431.4
24876.3
28519
24956.3
57868
54803.7
24511.1
24296.1
2870.22
-193.798
-260.007
316.896
2443.26
-244.737
540.716
18359.3
21376.1
18008.5
21605.9
851887
819663
297703
292914
258908
259407
303577
273335
192738
186797
485168
507976
461315
453361
444312
124435
119790
129693
-217.93
-369.777
703.703
3733.25
2378.56
43172.4
43752.4
65902.8
57762.9
43941.5
50862.3
5271.38
3404.23
3333.34
2488.27
7688.94
829875
791722
200018
830320
759341
824140
739496
766487
208594
214686
281688
286500
526648
513619
583983
531463
808553
732326
712812
745503
138288
135596
142589
188636
619136
509722
491923
565910
509283
318919
249222
246757
292448
260074
128797
131460
124808
478991
491452
441147
438097
424673
88240.1
85677.1
244658
219423
206713
203910
54082.1
110112
105396
74106.5
80871.3
101251
89359.1
235455
208607
196507
196158
45380.5
42771.6
47903.6
80038.1
82609.3
77059
103837
71464.5
77235.7
97464.5
85241.3
4250.25
4289.08
2353.06
-297.952
-279.368
763.249
3789.09
2494.54
37705.6
40324
35296.6
63611.8
55437.5
42584.1
48925.5
4763
946.869
1745.3
-76.9133
2447.91
1016.35
4343.9
5670.72
3385.24
3436.69
2358.36
8259.2
700183
765544
340161
367370
331870
319083
316823
220239
244759
229703
241708
257720
256574
308397
312186
240566
253393
251623
298187
269178
300762
312784
290320
324247
165407
160552
269810
301463
280001
290285
384034
378584
435641
394659
422392
432575
334000
354297
416764
378146
321922
355640
321731
341007
370591
363784
193327
216439
206572
202359
150093
220896
226486
236709
211551
4557.85
16702.4
14215.9
6228.66
10643.2
73.0749
-304.843
1060.71
7475.62
6867.76
4451.38
3021.81
6218.84
19989.3
15312.8
10648.9
9955.98
11736.1
9227.1
46992.2
43121.9
42312.1
48090
27135.8
33579.5
38397
37844.8
33902.5
36891.3
21180.5
27418.2
37535.3
32649.9
62432.3
56821.1
43608.8
43717
50344.9
44044.8
24160.9
28150.4
38634.5
38531.7
33141.6
38584.1
5552.08
8118.81
5036.09
8644.06
18433.3
15937.8
15055.3
11305
14629.5
11800.5
666243
735611
682798
709519
548385
588173
562716
691086
631313
683581
661552
745515
680813
534151
572559
564385
618677
614390
636571
236888
354682
395710
365781
383499
388274
408035
376981
420469
481642
510223
523397
469707
252936
248052
446047
497133
484127
457839
663283
604742
603513
586147
437508
481199
423955
452071
497786
483898
547996
565893
437336
466662
450840
548610
499690
649242
680586
550974
484492
662510
599002
663785
636322
724812
655199
535883
471172
457979
533971
591676
582526
609154
157143
159946
152529
299445
340801
309225
329838
329175
351905
319136
363152
413775
445552
457811
402808
167561
164718
172495
381196
433408
421383
391947
643812
580745
585076
562586
411660
458030
420289
369507
474091
456219
518093
540225
434203
381707
394059
523417
471432
354359
316214
307480
301759
205896
231410
222801
197587
188441
243710
239944
288776
295573
233608
206935
282218
251793
252586
267241
243638
277281
112027
226181
257362
234835
247649
460021
370561
361178
420814
376682
397183
411064
327744
288648
299689
395830
354946
301568
337128
315263
277783
351459
341278
162430
184445
176124
169851
103296
185171
192947
201627
177433