/*--------------------------------*- C++ -*----------------------------------*\
| =========                 |                                                 |
| \\      /  F ield         | OpenFOAM: The Open Source CFD Toolbox           |
|  \\    /   O peration     | Version:  2012                                  |
|   \\  /    A nd           | Website:  www.openfoam.com                      |
|    \\/     M anipulation  |                                                 |
\*---------------------------------------------------------------------------*/
FoamFile
{
    version     2.0;
    format      ascii;
    class       volVectorField;
    location    "0.107/solid";
    object      sigmaMidDir;
}
// * * * * * * * * * * * * * * * * * * * * * * * * * * * * * * * * * * * * * //

dimensions      [1 -1 -2 0 0 0 0];


internalField   nonuniform List<vector> 
3125
(
(0.0200395 0.999322 0.0308867)
(-0.0153294 0.999698 0.0192297)
(-0.0284222 0.999525 0.011954)
(-0.0363404 0.999335 0.00304418)
(0.323886 0.391102 0.861474)
(0.0358843 0.999113 -0.0220121)
(-0.0126333 0.999713 0.0203718)
(0.0146725 0.999459 0.0294196)
(0.058258 0.998176 -0.0158356)
(0.0389457 0.999015 -0.0212778)
(0.0606689 0.998045 -0.0150329)
(0.0752972 0.997125 -0.008492)
(-0.0355316 0.99936 0.00408034)
(-0.0296475 0.9995 0.0109788)
(0.0859508 0.996296 0.00258338)
(0.0770009 0.997003 -0.00743005)
(0.274151 0.349998 0.895736)
(0.264469 0.469241 0.842537)
(0.0865447 0.996237 0.00467587)
(0.302987 0.548648 0.77922)
(0.942411 0.311882 0.120794)
(-0.168673 0.985472 -0.019862)
(-0.0731759 0.997306 -0.00516302)
(-0.084721 0.996385 -0.00618876)
(-0.0998774 0.994896 -0.0143467)
(-0.0220859 0.999629 0.0159608)
(-0.0777512 0.9969 -0.0120717)
(-0.0961937 0.99534 -0.0066468)
(-0.0863807 0.996242 -0.0063116)
(-0.0561156 0.998381 -0.00926314)
(-0.0239569 0.999602 0.0149115)
(-0.0748298 0.997127 -0.0117297)
(-0.00354449 0.997606 0.0690631)
(-0.0521929 0.998637 -0.000904436)
(-0.025663 0.999668 -0.00237547)
(-0.0391382 0.999232 -0.00184799)
(-0.0227379 0.999741 0.00131742)
(-0.05276 0.998605 -0.00187649)
(-0.0520276 0.998645 -0.000911178)
(0.0117097 0.995295 0.0961779)
(-0.0404509 0.999167 -0.00531762)
(-0.0225569 0.999744 0.00184435)
(-0.109379 0.993638 -0.0268371)
(-0.0800643 0.996519 -0.0232352)
(0.915084 0.384966 0.120089)
(-0.078651 0.996899 -0.00252472)
(-0.00284755 0.999707 0.0240347)
(-0.103279 0.994544 -0.0146612)
(-0.128824 0.991525 -0.0168227)
(-0.163796 0.986301 -0.0195049)
(0.00100034 0.999679 0.0253158)
(-0.13277 0.990999 -0.0171345)
(-0.0970642 0.995256 -0.00659451)
(-0.0865836 0.996237 -0.00380267)
(-0.105276 0.994082 -0.0268033)
(-0.0759167 0.996766 -0.0263479)
(0.0504774 0.998559 -0.0182151)
(-0.0246196 0.999479 -0.0208481)
(-0.0488472 0.998561 -0.0221515)
(-0.0766608 0.996788 -0.0231496)
(0.0476963 0.998681 -0.0190043)
(-0.0523393 0.99838 -0.0223056)
(-0.0419651 0.998798 -0.0253129)
(-0.0717509 0.997077 -0.0262606)
(0.0263789 0.99945 -0.0201145)
(-0.00328363 0.999729 -0.0230611)
(-0.0211924 0.999563 -0.0206259)
(0.0674714 0.997644 -0.0124107)
(0.00273217 0.999823 -0.0186278)
(-0.0377397 0.998971 -0.0251416)
(-0.00761888 0.999697 -0.0233997)
(0.0288198 0.999467 -0.0153306)
(0.0695369 0.997513 -0.0115111)
(0.00606533 0.999814 -0.0182835)
(-0.0716076 0.99742 -0.00499336)
(-0.0615532 0.998097 -0.00356007)
(-0.0334778 0.999414 0.00711624)
(-0.0267628 0.999638 -0.00287306)
(-0.0372847 0.999288 -0.00575886)
(-0.0536594 0.99852 -0.00888286)
(-0.0326666 0.999434 0.00808658)
(-0.0390026 0.99922 -0.00613617)
(-0.0534465 0.998568 -0.00210861)
(-0.0604633 0.998165 -0.00339313)
(0.0305022 0.999343 -0.0195895)
(0.0581062 0.998201 -0.0148107)
(0.0828025 0.996563 -0.00243625)
(0.0705106 0.997503 -0.00409773)
(0.0545117 0.998464 -0.00988172)
(0.0319506 0.99938 -0.0148233)
(0.0814986 0.996666 -0.0038208)
(0.0519475 0.998594 -0.0105712)
(0.084531 0.996395 -0.00711528)
(0.0616671 0.997998 -0.0140187)
(0.147325 0.988273 0.0401557)
(0.102523 0.994695 0.00841808)
(0.0723348 0.997376 -0.00306488)
(0.0869319 0.996118 0.0138722)
(0.080361 0.996742 0.00687282)
(0.0871855 0.996175 -0.00590724)
(0.100875 0.994882 0.00589845)
(0.158949 0.983043 0.0914379)
(0.0875103 0.995971 0.0195634)
(0.0812735 0.996652 0.00894232)
(0.99729 0.0445695 0.0585318)
(-0.0475605 0.998849 -0.00617716)
(-0.0467553 0.998905 0.00153284)
(-0.061485 0.998108 -0.000162872)
(-0.0345341 0.999386 -0.0059582)
(-0.0178079 0.999677 0.0181064)
(-0.0315382 0.999486 -0.00576025)
(0.996019 0.0313979 0.0834241)
(0.99561 0.0271162 0.0895864)
(-0.019413 0.999803 -0.00417577)
(-0.0270904 0.99955 0.0129176)
(-0.0225214 0.999735 -0.00467116)
(-0.00267201 0.995337 0.0964165)
(-0.0312152 0.999183 0.0256799)
(-0.00639023 0.99998 0.0002585)
(-0.0372709 0.999304 0.00173509)
(-0.00591922 0.999981 0.00158703)
(-0.0311641 0.999494 0.0063754)
(-0.0310809 0.999484 0.00810149)
(0.196736 0.927859 0.316817)
(-0.050186 0.998482 -0.0227131)
(-0.00739452 0.999932 0.0089995)
(0.0593502 0.998236 -0.00184355)
(0.0203603 0.999738 -0.0104974)
(0.99726 0.0437465 0.0596515)
(0.997137 0.0414946 0.0632215)
(-0.00964745 0.999721 0.0215616)
(-0.0354015 0.999355 -0.00603601)
(-0.038178 0.999252 -0.00613994)
(-0.0470921 0.998871 -0.006192)
(0.00974479 0.99956 0.0280099)
(-0.0451539 0.99896 -0.0062699)
(0.996149 0.0322768 0.0815223)
(0.996461 0.0354401 0.0762173)
(0.0591018 0.99825 -0.00190321)
(0.0583339 0.998295 -0.0021011)
(0.0557265 0.998307 -0.0166556)
(0.0380869 0.999231 -0.00926801)
(0.0344056 0.999362 -0.00962279)
(0.0211863 0.999721 -0.0104778)
(0.0419494 0.998909 -0.0205243)
(0.0244653 0.999647 -0.0103165)
(0.0587965 0.998266 -0.00293501)
(0.0582888 0.998296 -0.00271028)
(0.0682228 0.997662 -0.00403398)
(0.0655989 0.997839 -0.00384397)
(0.0391361 0.999192 -0.00915813)
(0.0630222 0.997911 -0.0141843)
(0.0429019 0.999041 -0.00869798)
(0.0591358 0.998245 -0.00300318)
(0.0601608 0.998183 -0.0032298)
(0.057247 0.998342 -0.00592374)
(0.073458 0.997253 -0.00955503)
(0.0536168 0.998538 -0.00681509)
(-0.0439571 0.999032 0.00190088)
(-0.037432 0.999295 0.00290442)
(-0.034853 0.999379 0.00509634)
(-0.006757 0.999977 -0.000181551)
(-0.00861074 0.999962 -0.00124544)
(-0.0184976 0.999821 -0.00396737)
(-0.0307378 0.999477 0.0100368)
(-0.0156096 0.999873 -0.00336431)
(-0.0314233 0.999489 0.00593451)
(-0.0321681 0.99947 0.00498248)
(0.0694293 0.997579 -0.00405831)
(0.0732365 0.997306 -0.00409227)
(0.0850587 0.996376 0.000661168)
(0.0719959 0.997404 0.00136604)
(0.0697902 0.997561 -0.000639566)
(0.0582725 0.998285 -0.00562758)
(0.0786151 0.996885 -0.00627243)
(0.0616177 0.998089 -0.0045559)
(0.0899393 0.995941 -0.00356632)
(0.0857101 0.996313 -0.00378031)
(-0.00687592 0.999933 0.00936226)
(0.0824055 0.994766 0.0604114)
(0.0459032 0.998173 -0.0392903)
(0.0835558 0.996405 -0.0139508)
(0.0724692 0.997368 0.00210534)
(0.0868616 0.996195 0.00717537)
(0.0733216 0.997297 0.00478582)
(0.0913267 0.995815 -0.00343941)
(0.094416 0.995528 -0.00308964)
(0.28528 0.88292 0.372917)
(0.0974811 0.993267 0.0625894)
(0.0759696 0.996737 0.0272808)
(0.504916 0.862165 0.0416054)
(-0.0501223 0.99873 -0.00514226)
(0.994781 -0.0102577 0.101521)
(-0.0762298 0.997089 -0.00176844)
(0.0224545 0.999667 0.0126855)
(-0.0781862 0.996923 -0.00566781)
(0.0408685 0.999061 0.0143884)
(0.0738094 0.997123 0.0172613)
(-0.0798504 0.99679 -0.00582265)
(0.0480715 0.998731 0.0150325)
(-0.0373665 0.99929 -0.0048877)
(-0.0900608 0.995846 -0.0133994)
(-0.0345747 0.999391 -0.00469167)
(-0.020067 0.999654 0.0170064)
(-0.0275249 0.999607 -0.005361)
(-0.0306232 0.999515 -0.00565233)
(-0.0869202 0.996129 -0.0130743)
(-0.0306598 0.999521 -0.00432101)
(-0.0335372 0.999427 -0.00459118)
(0.995045 0.00908231 0.0990062)
(0.995467 0.0248645 0.0918014)
(0.174716 0.984303 0.0249507)
(-0.0925698 0.995684 -0.0066331)
(0.130399 0.991223 0.0217309)
(0.0835533 0.99634 0.0180634)
(-0.0912367 0.995807 -0.00659638)
(0.117377 0.992871 0.0207383)
(-0.0227265 0.999737 -0.00322803)
(-0.0638242 0.997907 -0.0103575)
(-0.02565 0.999664 -0.00368423)
(-0.0256221 0.999575 0.0138957)
(-0.0265975 0.999633 -0.00522437)
(-0.0234652 0.999713 -0.00484177)
(-0.0664809 0.99773 -0.0107077)
(-0.0296225 0.999552 -0.00419484)
(-0.0266864 0.999636 -0.00383724)
(-0.0321857 0.999396 0.0131339)
(-0.0312486 0.999286 0.0212206)
(0.00956638 0.995155 0.0978527)
(-0.0572642 0.998356 -0.00252737)
(-0.039827 0.998954 0.0224613)
(-0.0372318 0.999237 0.011769)
(-0.054732 0.998498 -0.00227919)
(-0.0392511 0.999074 0.0176295)
(-0.00987801 0.999951 0.000937702)
(-0.0236186 0.999721 -0.000834168)
(-0.00942038 0.999953 0.00229731)
(-0.0383589 0.999264 4.43453e-05)
(-0.00631327 0.999975 0.00332877)
(-0.00601176 0.99998 0.0020372)
(-0.0232867 0.999729 -0.000292928)
(-0.00999634 0.999942 0.00412086)
(-0.00952194 0.999951 0.00276727)
(-0.0324924 0.999404 0.0116756)
(-0.0314608 0.999466 0.00885292)
(-0.0275178 0.999584 0.00858026)
(-0.0517334 0.99866 -0.00131177)
(-0.0319495 0.999449 0.00895045)
(-0.0366889 0.999268 0.0108057)
(-0.0517953 0.998657 -0.00118269)
(-0.0333983 0.9994 0.00921962)
(0.0806953 0.982426 0.168308)
(-0.0252483 0.999669 0.00501754)
(-0.0122685 0.999871 0.0103328)
(-0.0389986 0.999211 -0.00746312)
(-0.00644761 0.999972 0.0038434)
(-0.00677887 0.999952 0.00708181)
(-0.0236462 0.999714 0.00351482)
(-0.0101392 0.999937 0.00472111)
(-0.0109152 0.999909 0.00797963)
(0.00763512 0.99995 -0.00642661)
(0.023303 0.999693 -0.00842708)
(0.487668 0.872059 0.0411394)
(0.0831311 0.996345 0.0196607)
(0.431482 0.901268 0.0392251)
(0.996903 0.0385787 0.0685242)
(0.997089 0.0406817 0.0644834)
(-0.00668205 0.999948 0.00766742)
(0.34856 0.936615 0.0354635)
(0.411263 0.910708 0.0383964)
(-0.00640833 0.99972 0.0227768)
(-0.0415276 0.999118 -0.00623554)
(-0.0389725 0.999221 -0.00619335)
(-0.038349 0.999252 -0.00495526)
(-0.11377 0.993385 -0.0155791)
(-0.0408786 0.999151 -0.00505816)
(-0.0441373 0.999012 -0.00516406)
(-0.11737 0.992961 -0.0158828)
(-0.0418002 0.999113 -0.00510557)
(-0.0494999 0.998761 -0.0051544)
(-0.149873 0.988533 -0.0184682)
(-0.0478179 0.998842 -0.00521193)
(0.0051903 0.999632 0.0266409)
(-0.042242 0.999088 -0.0062691)
(-0.0445345 0.998988 -0.00625569)
(-0.145466 0.989197 -0.0181317)
(-0.0449898 0.998974 -0.00519438)
(-0.0470396 0.99888 -0.00519587)
(0.996828 0.0379394 0.0699597)
(0.996559 0.0361867 0.0745742)
(0.191183 0.981208 0.0260861)
(-0.0972217 0.995244 -0.00604876)
(0.246023 0.96881 0.0296647)
(0.327424 0.944252 0.0343612)
(-0.096202 0.995345 -0.00571577)
(0.265618 0.963584 0.0308607)
(0.0090328 0.999938 -0.00645025)
(-0.0927522 0.995332 -0.0266508)
(0.0134115 0.999889 -0.00651314)
(0.0578867 0.99832 -0.00237288)
(0.0582116 0.998302 -0.00216404)
(-0.0886091 0.995711 -0.026593)
(0.0196578 0.999785 -0.00657671)
(0.0149195 0.999867 -0.00653225)
(0.0531187 0.998436 -0.0174569)
(0.0298157 0.999506 -0.00998531)
(0.033386 0.999395 -0.00970893)
(0.0396546 0.999185 -0.00759613)
(-0.0349759 0.999158 -0.0214636)
(0.0363562 0.999308 -0.00781837)
(0.0320946 0.999452 -0.00807412)
(-0.0384395 0.999026 -0.0216521)
(0.0352617 0.999347 -0.00791457)
(0.0242046 0.999672 -0.00838645)
(-0.0662978 0.997538 -0.0228383)
(0.0270193 0.9996 -0.00832681)
(0.0448519 0.998798 -0.0197764)
(0.0288419 0.999533 -0.0100506)
(0.0253789 0.999625 -0.0102733)
(-0.0628391 0.997765 -0.0227207)
(0.0310483 0.999485 -0.00815208)
(0.0280123 0.999573 -0.00826596)
(0.0579638 0.998316 -0.00243498)
(0.0582398 0.998299 -0.00263593)
(0.0330105 0.999433 -0.00662906)
(-0.0547552 0.998167 -0.0257819)
(0.0278867 0.999589 -0.00661987)
(0.0212847 0.999752 -0.00658614)
(-0.0590315 0.99792 -0.0259212)
(0.0262096 0.999635 -0.00661448)
(0.0628059 0.998019 -0.0035771)
(0.0649803 0.997879 -0.00376504)
(0.0628072 0.998007 -0.0061627)
(0.0137174 0.999674 -0.0215445)
(0.0568117 0.998365 -0.00636112)
(0.0493128 0.998762 -0.00650553)
(0.00943349 0.999714 -0.0219753)
(0.0548934 0.998472 -0.00640662)
(0.0407824 0.99914 -0.00747816)
(-0.0108778 0.999744 -0.0198637)
(0.0442159 0.998996 -0.00716124)
(0.0652632 0.997779 -0.0133414)
(0.0477597 0.998827 -0.00795973)
(0.0439775 0.998996 -0.00854984)
(-0.00748692 0.99978 -0.0195834)
(0.0488721 0.998783 -0.006574)
(0.0453815 0.998945 -0.00700581)
(0.0623003 0.998051 -0.0034998)
(0.0606969 0.998151 -0.00329149)
(0.034769 0.999373 -0.00662665)
(-0.0248205 0.999392 -0.0244987)
(0.0400296 0.999177 -0.00661909)
(0.0474576 0.998852 -0.00653553)
(-0.0205694 0.999494 -0.0242608)
(0.0418558 0.999102 -0.00660565)
(0.0581053 0.998299 -0.00488618)
(0.0192093 0.999676 -0.0167242)
(0.0546666 0.998489 -0.00559576)
(0.0715245 0.997383 -0.010569)
(0.0488264 0.998777 -0.00777132)
(0.0525418 0.998594 -0.00705649)
(0.0159429 0.999726 -0.0171481)
(0.0500304 0.998727 -0.006381)
(0.0534959 0.998551 -0.00583669)
(0.0172118 0.999778 0.0121845)
(-0.0668828 0.997751 -0.00437648)
(0.00431298 0.99993 0.0109861)
(-0.0337311 0.999423 0.00387227)
(-0.0360575 0.999345 0.0031891)
(-0.0655293 0.997842 -0.0041865)
(-0.00873373 0.999913 0.0098416)
(0.000630757 0.999943 0.0106507)
(-0.0342125 0.999396 0.00606395)
(-0.0116014 0.99993 -0.00228042)
(-0.00926704 0.999956 -0.00155567)
(-0.0103247 0.999947 0.000482531)
(-0.030854 0.999515 -0.00420218)
(-0.0121631 0.999926 -0.00053037)
(-0.0150626 0.999885 -0.00147412)
(-0.0323449 0.999466 -0.00460963)
(-0.0128707 0.999917 -0.000815176)
(-0.0217089 0.99976 -0.00302983)
(-0.0468158 0.998874 -0.00770908)
(-0.0189827 0.999817 -0.00246287)
(-0.0317535 0.999455 0.00905745)
(-0.012299 0.999921 -0.00251492)
(-0.0148129 0.999885 -0.00313641)
(-0.0447387 0.998972 -0.00731349)
(-0.0158013 0.999874 -0.00168435)
(-0.0181154 0.999833 -0.00225093)
(-0.0333669 0.999435 0.00407231)
(-0.032265 0.999468 0.00475691)
(-0.0259157 0.999627 0.00859382)
(-0.056106 0.998421 -0.00265718)
(-0.020649 0.999748 0.00885093)
(-0.0115514 0.999887 0.00959292)
(-0.0571313 0.998363 -0.00286342)
(-0.0186635 0.999785 0.00899743)
(0.0648488 0.997877 -0.00607527)
(0.0427734 0.998927 -0.0177427)
(0.0711367 0.99745 -0.00571214)
(0.0787584 0.996886 -0.00398495)
(0.0747535 0.997194 -0.00404936)
(0.0466655 0.998765 -0.0170765)
(0.079561 0.996818 -0.00498858)
(0.0732847 0.997296 -0.0055504)
(0.0839872 0.996466 -0.0010347)
(0.0663058 0.997796 -0.00260551)
(0.0690209 0.997615 -0.00116994)
(0.0728604 0.997341 0.00150255)
(0.0641283 0.997918 -0.00686701)
(0.0706253 0.997503 -0.000258558)
(0.0671447 0.997741 -0.0019666)
(0.0618226 0.998058 -0.00768563)
(0.0697589 0.997564 -0.000770848)
(0.059239 0.998233 -0.00458584)
(0.0409742 0.999074 -0.0131319)
(0.062429 0.998043 -0.00370338)
(0.0801007 0.996774 -0.00510333)
(0.0654876 0.997849 -0.00300532)
(0.0625283 0.998034 -0.00421043)
(0.0438192 0.998961 -0.0125275)
(0.0662465 0.997801 -0.0023569)
(0.0634342 0.99798 -0.00335828)
(0.0802238 0.996769 -0.00393259)
(0.0844901 0.996417 -0.00379842)
(0.0943471 0.995534 -0.00312122)
(0.0753829 0.9971 -0.0103966)
(0.0891734 0.996008 -0.00392332)
(0.0815482 0.996658 -0.00478469)
(0.0720526 0.997336 -0.0113954)
(0.0873097 0.996173 -0.00415286)
(0.0953849 0.995433 -0.0039486)
(0.0912404 0.995795 -0.00822907)
(0.0849837 0.995497 -0.0420013)
(0.109676 0.993626 0.0260622)
(0.1014 0.994838 -0.00384685)
(0.102949 0.994687 -8.86191e-05)
(0.106834 0.994087 0.019405)
(0.102998 0.994681 -0.00106571)
(0.0734461 0.997297 0.00223758)
(0.076604 0.997061 0.000541372)
(0.0743119 0.997224 0.00466326)
(0.0870085 0.996157 0.0100831)
(0.0734508 0.997255 0.00931349)
(0.0733834 0.997287 0.00573582)
(0.077667 0.996978 0.00192572)
(0.0744225 0.997188 0.00881748)
(0.0744222 0.997211 0.00559153)
(0.095453 0.995428 -0.00343438)
(0.0950373 0.995469 -0.00296195)
(0.0958262 0.995394 -0.00282195)
(0.0940701 0.995564 -0.00162609)
(0.0993731 0.995049 -0.00179595)
(0.102305 0.994753 -0.000354924)
(0.0958739 0.995393 -6.44241e-06)
(0.100223 0.994964 -0.00141333)
(0.222457 0.944837 0.240407)
(0.0849325 0.996076 0.0248867)
(0.0770243 0.996725 0.0246247)
(0.0858248 0.995944 0.0270295)
(0.0735306 0.997234 0.0108619)
(0.0739815 0.997072 0.0193452)
(0.0832253 0.996359 0.0184914)
(0.0745593 0.997164 0.0102876)
(0.0751584 0.997009 0.0180011)
(0.996652 0.0775327 0.0259377)
(0.997123 0.0714038 0.0254411)
(0.928639 0.36691 0.0548289)
(0.935927 0.348128 0.0533594)
(0.980561 0.192647 0.037235)
(0.978959 0.200466 0.0381249)
(-0.0338842 0.961834 0.271528)
(0.0937631 0.971609 0.217221)
(0.185018 0.982068 0.0362098)
(0.153806 0.987485 0.034873)
(0.819647 0.572521 0.0199514)
(0.821506 0.569862 0.019636)
(0.996154 0.0835363 0.0264477)
(0.995601 0.0897288 0.0269742)
(0.982082 0.184908 0.0363769)
(0.983505 0.177355 0.0355488)
(0.817832 0.575099 0.0202751)
(0.815958 0.577744 0.0206083)
(0.782856 0.621647 0.0263011)
(0.785853 0.617874 0.0258212)
(0.702125 0.711158 0.0357048)
(0.711082 0.702232 0.0351024)
(0.779847 0.625396 0.0267984)
(0.776716 0.629259 0.0273111)
(0.919503 0.38903 0.0562998)
(0.908882 0.41303 0.0577861)
(0.222253 0.974245 0.0380705)
(0.268297 0.96248 0.0406066)
(0.693215 0.719814 0.0363456)
(0.682356 0.730088 0.0369038)
(0.303994 0.952349 0.024892)
(0.349191 0.936621 0.0284036)
(0.105899 0.982903 0.150625)
(0.216365 0.701035 0.679512)
(0.111219 0.981778 0.154085)
(-0.000672965 0.964683 0.263412)
(-0.112567 0.985375 -0.127927)
(0.258881 0.965683 0.0208889)
(0.214446 0.976597 0.0164344)
(0.136781 0.98175 0.132127)
(0.325931 0.675015 0.661909)
(0.10036 0.988767 0.110759)
(0.218157 0.785054 0.579739)
(0.117454 0.985825 0.119809)
(0.119823 0.982122 0.145184)
(0.217627 0.892852 0.394275)
(0.687854 0.721504 0.0792955)
(0.953251 0.277451 0.119721)
(0.739279 -0.668576 0.0804493)
(0.760641 -0.643964 0.0820687)
(0.713414 0.696119 0.0803657)
(-0.164533 0.986335 -0.0084499)
(-0.118228 0.992872 -0.0151052)
(-0.173688 0.984593 -0.0202252)
(-0.0200225 0.999686 0.0150689)
(-0.0138297 0.999781 0.0156902)
(-0.120541 0.992592 -0.0152024)
(-0.161839 0.986783 -0.00815757)
(0.963348 0.264384 0.0454127)
(0.960148 0.275575 0.0466221)
(-0.0405655 0.999164 0.00498425)
(-0.0748231 0.997183 -0.00534356)
(-0.165694 0.986151 -0.00716549)
(-0.169769 0.985452 -0.00797629)
(-0.038571 0.999242 0.00534871)
(-0.203974 0.978875 -0.0140927)
(-0.0176703 0.999805 0.00879115)
(-0.0831356 0.99652 -0.0060776)
(-0.19688 0.980343 -0.0128947)
(-0.0225976 0.999712 0.00802969)
(-0.128075 0.991756 -0.00412881)
(-0.0763903 0.997004 -0.0121075)
(-0.0809915 0.99668 0.00827002)
(-0.0964961 0.995235 -0.0140216)
(-0.0829456 0.996522 0.00801434)
(-0.129287 0.991598 -0.00428406)
(-0.0739768 0.997189 -0.0118698)
(-0.121827 0.992546 -0.00321303)
(-0.0924693 0.995693 0.00669354)
(-0.08067 0.996664 -0.0123962)
(-0.0601852 0.998133 -0.010359)
(-0.091091 0.995819 0.00689161)
(-0.120518 0.992707 -0.00297868)
(-0.0623829 0.997996 -0.0106202)
(0.966224 0.253878 0.0442483)
(0.968882 0.243737 0.0431285)
(0.0590846 0.998067 0.0192632)
(-0.293355 0.955601 -0.0277471)
(-0.0952127 0.995435 -0.00668194)
(-0.278325 0.960146 -0.0255838)
(0.0441616 0.998874 0.017355)
(-0.211387 0.977283 -0.0153007)
(-0.0120057 0.999881 0.00964306)
(-0.087994 0.9961 -0.00641426)
(-0.220393 0.975267 -0.0167803)
(-0.00553353 0.999929 0.0105961)
(-0.113673 0.993517 -0.00177203)
(-0.0433718 0.999027 -0.00794393)
(-0.0585518 0.998238 -0.0096143)
(-0.100689 0.994903 0.00542812)
(-0.0998786 0.994984 0.0055588)
(-0.0453052 0.998939 -0.00825578)
(-0.112634 0.993635 -0.0015275)
(-0.118557 0.992944 -0.00267665)
(-0.0937122 0.995578 0.00651429)
(-0.0719431 0.997344 -0.0113787)
(-0.0579837 0.998267 -0.0100838)
(-0.0949839 0.995459 0.00631791)
(-0.119461 0.992835 -0.00281305)
(-0.0557785 0.998395 -0.00979245)
(0.0581776 0.997237 0.0461978)
(0.0524286 0.997246 0.0524497)
(0.00387296 0.994428 0.105349)
(-0.0660823 0.997637 0.0187786)
(-0.0781822 0.995438 0.0546846)
(-0.0886014 0.992899 0.079385)
(-0.0641573 0.99628 0.0575389)
(-0.124478 0.992135 0.0131765)
(-0.0534386 0.99855 0.00650232)
(-0.0525866 0.998616 -0.00116651)
(-0.123229 0.992255 0.0156383)
(-0.0542221 0.998502 0.00726458)
(-0.102228 0.994757 0.00266799)
(-0.0184157 0.99983 -0.00115288)
(-0.108907 0.994041 0.00459626)
(-0.0247418 0.999692 -0.00185126)
(-0.109255 0.994003 0.00470223)
(-0.102406 0.99474 0.00240218)
(-0.0176133 0.999845 -0.000534149)
(-0.101929 0.994778 0.00520062)
(-0.111463 0.993749 0.00623507)
(-0.022951 0.999736 0.000802035)
(-0.0161195 0.999864 0.0033848)
(-0.111228 0.993778 0.00581393)
(-0.101804 0.994785 0.00617316)
(-0.0162726 0.999864 0.00269443)
(0.0632954 0.997129 0.0415573)
(0.071347 0.996711 0.0384176)
(-0.0498608 0.998749 0.00382057)
(-0.130876 0.991392 0.00368593)
(-0.052339 0.998628 -0.00173104)
(-0.130259 0.991471 0.00425711)
(-0.0501269 0.998735 0.00396444)
(-0.125421 0.992038 0.0114494)
(-0.0528528 0.998585 0.00591198)
(-0.0519753 0.998648 -0.000964027)
(-0.126574 0.991912 0.00942182)
(-0.0523909 0.998612 0.00541147)
(-0.115287 0.991838 0.0544669)
(0.0280008 0.993478 0.110533)
(-0.0269836 0.998894 0.0384989)
(-0.0844381 0.987155 0.135627)
(-0.117284 0.991656 0.0535135)
(-0.0187611 0.998708 0.0472304)
(-0.0839224 0.985378 0.148281)
(-0.101724 0.994782 0.00780887)
(-0.111608 0.993729 0.00680089)
(-0.022447 0.999745 0.00242133)
(-0.015948 0.999864 0.00416553)
(-0.111778 0.993705 0.00743794)
(-0.10174 0.994786 0.00700717)
(-0.0157529 0.999863 0.00510295)
(-0.182136 0.982743 -0.0322753)
(-0.113558 0.993168 -0.0268757)
(0.254851 0.966845 0.0161555)
(-0.187076 0.981817 -0.0322142)
(0.257052 0.966262 0.0161848)
(0.120101 0.992761 -0.00101057)
(0.000636514 0.999939 -0.0110341)
(-0.0834941 0.996235 -0.0233199)
(0.126858 0.99192 -0.00152352)
(-0.000462516 0.999939 -0.0109969)
(0.126655 0.991946 -0.00151778)
(0.120135 0.992757 -0.0010485)
(0.657896 0.749089 0.0777085)
(0.715613 -0.694078 0.0784501)
(0.800788 0.58893 0.109086)
(-0.689915 0.719879 -0.0760956)
(0.622988 0.778578 0.0755116)
(0.991238 0.128518 0.0304874)
(0.992099 0.121857 0.0298558)
(-0.507798 0.859654 -0.0559937)
(-0.0662663 0.997802 -0.000657005)
(0.339293 0.939314 0.0506918)
(-0.538994 0.840188 -0.0597362)
(0.388933 0.919585 0.0556223)
(-0.132353 0.991192 -0.00471009)
(-0.0787991 0.996814 -0.0123325)
(-0.07884 0.996851 0.00855236)
(-0.10663 0.994186 -0.0149524)
(-0.130706 0.991411 -0.00447194)
(-0.0767009 0.997015 0.00881805)
(-0.0811514 0.996623 -0.0125366)
(-0.140392 0.990079 -0.00571883)
(-0.0601272 0.998132 0.0107965)
(-0.0958528 0.995301 -0.0137212)
(-0.124903 0.992032 -0.0165023)
(-0.142055 0.989841 -0.00591449)
(-0.0633216 0.997939 0.0104275)
(-0.0933532 0.995541 -0.0135318)
(-0.157013 0.987567 -0.00764004)
(-0.11585 0.993154 -0.0149916)
(-0.0257631 0.999563 0.0144864)
(-0.158939 0.987103 -0.0191391)
(-0.159359 0.987189 -0.00789673)
(-0.0311809 0.999417 0.01393)
(-0.113366 0.993442 -0.0148564)
(-0.146048 0.989257 -0.00640101)
(-0.0566799 0.99833 0.0111893)
(-0.136821 0.990442 -0.0174514)
(-0.0983629 0.995053 -0.0139049)
(-0.0531715 0.998518 0.0115745)
(-0.14395 0.989566 -0.00613969)
(-0.100842 0.994803 -0.0140755)
(0.990336 0.135146 0.0311397)
(0.989379 0.141836 0.0318142)
(0.0763943 0.996847 0.0214308)
(-0.310206 0.950191 -0.0301453)
(-0.097473 0.995217 -0.00646544)
(-0.32914 0.943711 -0.0328084)
(0.0963966 0.995056 0.0238828)
(-0.477215 0.877234 -0.0522245)
(0.292463 0.955176 0.0458724)
(-0.0914831 0.995796 -0.00467232)
(-0.448572 0.892422 -0.0486435)
(0.249418 0.967515 0.0413037)
(-0.177164 0.98365 -0.0323292)
(0.252733 0.967401 0.0161323)
(-0.101081 0.994518 -0.0267548)
(-0.172099 0.984548 -0.0323722)
(0.250515 0.967979 0.0160913)
(0.803463 0.594918 0.0227877)
(0.805781 0.591789 0.0224032)
(0.237629 0.971227 0.0158063)
(-0.0801628 0.996431 -0.0264406)
(-0.14097 0.989481 -0.0324783)
(-0.14629 0.988708 -0.0324875)
(0.239754 0.970704 0.0158638)
(0.121719 0.992563 -0.00158363)
(0.0228091 0.999682 -0.0107107)
(-0.0280664 0.999384 -0.0210654)
(0.131462 0.99132 -0.00145183)
(0.0212248 0.999717 -0.0107872)
(0.131147 0.991362 -0.00145985)
(0.122089 0.992518 -0.00157143)
(0.120824 0.992673 -0.00143823)
(0.129307 0.991603 -0.00149756)
(0.0122888 0.999863 -0.0110555)
(-0.045396 0.998727 -0.0219964)
(0.0136957 0.999845 -0.0110342)
(0.120811 0.992675 -0.00137252)
(0.1296 0.991565 -0.00149397)
(0.120044 0.992768 -0.00115564)
(0.00175016 0.999937 -0.0110685)
(0.127111 0.991887 -0.00152201)
(-0.0732078 0.99705 -0.0230529)
(0.120134 0.992757 -0.00108926)
(0.0029106 0.999934 -0.0110983)
(0.127334 0.991859 -0.0015271)
(0.120403 0.992724 -0.00133978)
(0.129012 0.991642 -0.00150284)
(-0.0558321 0.998188 -0.0224521)
(0.0108461 0.99988 -0.0110847)
(0.00942296 0.999894 -0.0111079)
(0.128685 0.991684 -0.00151402)
(0.120646 0.992695 -0.00134977)
(0.801279 0.597841 0.0231886)
(0.798865 0.601047 0.0235962)
(-0.0970082 0.99477 -0.0319704)
(-0.0462716 0.998604 -0.0254889)
(0.220795 0.975203 0.0151431)
(-0.102652 0.9942 -0.0320849)
(0.222762 0.974754 0.0152261)
(0.235609 0.97172 0.01576)
(-0.135612 0.99023 -0.0324575)
(-0.0675165 0.997375 -0.0261568)
(-0.130208 0.990956 -0.0324279)
(0.233323 0.972273 0.0156648)
(0.748522 0.662373 0.0312674)
(0.743664 0.667792 0.0318975)
(-0.00389014 0.999623 -0.0271768)
(0.0221663 0.999541 -0.0206294)
(0.188397 0.982019 0.0120654)
(-0.00974789 0.999569 -0.0276908)
(0.1903 0.981648 0.0123474)
(0.202157 0.979257 0.0137569)
(-0.0449873 0.998535 -0.0300784)
(0.000931561 0.999741 -0.0227265)
(-0.0391548 0.99879 -0.0297579)
(0.200131 0.979675 0.0135493)
(0.122403 0.992479 -0.00166464)
(0.0244029 0.999646 -0.01063)
(-0.0177484 0.999635 -0.0203859)
(0.13181 0.991274 -0.00143934)
(0.0259843 0.999607 -0.010548)
(0.122324 0.992489 -0.00159233)
(0.132086 0.991237 -0.00144408)
(0.123807 0.992305 -0.00171947)
(0.134148 0.99096 -0.00134539)
(-0.000645356 0.99982 -0.018964)
(0.0359905 0.999305 -0.00974466)
(0.0342894 0.999363 -0.00991363)
(0.13381 0.991006 -0.00136533)
(0.124265 0.992248 -0.00167316)
(0.753557 0.656667 0.0306739)
(0.757847 0.651739 0.0300717)
(-0.0913483 0.99531 -0.0318429)
(-0.0334482 0.999129 -0.0249451)
(0.21868 0.975681 0.0150225)
(-0.0856528 0.995821 -0.0316985)
(0.216435 0.976184 0.0148647)
(0.204339 0.9788 0.0139888)
(-0.0508219 0.998246 -0.0303773)
(-0.0119246 0.999648 -0.023706)
(-0.0566869 0.997921 -0.0306539)
(0.206176 0.978413 0.0141187)
(0.12645 0.991972 -0.00165462)
(0.0495833 0.998738 -0.00793235)
(0.0256742 0.999545 -0.0158112)
(0.136967 0.990575 -0.00111909)
(0.0478869 0.998819 -0.00821492)
(0.136605 0.990625 -0.0011573)
(0.126951 0.991908 -0.00156855)
(0.124717 0.992191 -0.00173687)
(0.134512 0.990911 -0.00132143)
(0.00938324 0.999795 -0.0179205)
(0.0376723 0.999244 -0.00957217)
(0.0393382 0.999182 -0.0093935)
(0.134801 0.990872 -0.00131746)
(0.124554 0.992211 -0.00167932)
(-0.04222 0.999097 0.00467564)
(-0.16188 0.98679 -0.0063722)
(-0.0699195 0.997541 -0.00477874)
(-0.158594 0.987328 -0.00568163)
(-0.043457 0.999045 0.00444409)
(0.742202 0.667283 0.062201)
(0.789556 0.610471 0.0626609)
(-0.143176 0.989696 -0.00179144)
(-0.0628111 0.998018 -0.00377056)
(-0.04814 0.998834 0.00362315)
(-0.145226 0.989396 -0.00239431)
(-0.0476568 0.998857 0.00368853)
(-0.103312 0.994648 0.00159384)
(-0.0193354 0.999812 -0.00169602)
(-0.108549 0.994081 0.00456917)
(-0.0279399 0.999604 -0.00331216)
(-0.102724 0.994708 0.0020688)
(-0.108299 0.994108 0.00448869)
(-0.0203519 0.99979 -0.00218481)
(-0.105872 0.99438 0.000373962)
(-0.106083 0.994346 0.00466072)
(-0.0282091 0.999591 -0.00469701)
(-0.0356184 0.999351 -0.00536759)
(-0.106241 0.99434 0.000264549)
(-0.106553 0.994296 0.00461226)
(-0.0268258 0.999631 -0.00431928)
(-0.111078 0.993811 -0.00120146)
(-0.0414103 0.999113 -0.00760085)
(-0.101423 0.994829 0.00531087)
(-0.0511983 0.998653 -0.0084689)
(-0.11178 0.993732 -0.00134567)
(-0.102136 0.994757 0.00519631)
(-0.0394525 0.999195 -0.00722699)
(-0.107586 0.994196 -0.000236959)
(-0.105566 0.994401 0.00473755)
(-0.0407853 0.999147 -0.00650579)
(-0.02964 0.999548 -0.0050637)
(-0.105134 0.994447 0.00476952)
(-0.106838 0.994276 5.06854e-05)
(-0.0310871 0.999502 -0.0054121)
(0.681279 0.729507 0.0606585)
(0.61285 0.788045 0.0583079)
(-0.049648 0.99876 0.00370961)
(-0.131773 0.991275 0.00299531)
(-0.0542103 0.998527 -0.00230273)
(-0.133009 0.991112 0.00221275)
(-0.0494963 0.998768 0.00362985)
(-0.141061 0.99 -0.00109789)
(-0.048598 0.998812 0.00356128)
(-0.0593656 0.998231 -0.00321637)
(-0.139658 0.9902 -0.000645461)
(-0.0488739 0.998799 0.00353374)
(0.00196149 0.999644 -0.0266206)
(0.186561 0.982373 0.0117839)
(0.0346804 0.999218 -0.0190031)
(0.00781694 0.999631 -0.0260175)
(0.184595 0.982748 0.0114354)
(0.585167 0.809993 0.0386004)
(0.60716 0.793636 0.0387096)
(0.173965 0.984709 0.0092372)
(0.0543589 0.998399 -0.0156066)
(0.0412215 0.998917 -0.0215859)
(0.0358597 0.999105 -0.02243)
(0.175649 0.984406 0.00964816)
(0.131695 0.99129 -0.000700484)
(0.0724198 0.997374 -0.00071)
(0.0685367 0.997636 -0.0050691)
(0.142025 0.989863 0.000147815)
(0.071313 0.997453 -0.00139465)
(0.141775 0.989899 8.57579e-06)
(0.132078 0.991239 -0.000452373)
(0.13015 0.991494 -0.00113127)
(0.140021 0.990148 -0.00054517)
(0.0634422 0.997975 -0.00458533)
(0.0569633 0.998334 -0.0091752)
(0.0647702 0.997892 -0.00415132)
(0.129988 0.991515 -0.00108596)
(0.140299 0.990109 -0.00047218)
(0.127546 0.991831 -0.00156525)
(0.0512769 0.998655 -0.00762991)
(0.137347 0.990522 -0.00107594)
(0.0350646 0.999283 -0.0142735)
(0.127313 0.991861 -0.00153673)
(0.0529428 0.998571 -0.007304)
(0.137682 0.990476 -0.00103947)
(0.129204 0.991617 -0.00130853)
(0.139714 0.990192 -0.000613549)
(0.0493282 0.998719 -0.0112326)
(0.0620395 0.998061 -0.00501768)
(0.0606131 0.998147 -0.00543193)
(0.13935 0.990243 -0.000716229)
(0.129651 0.991559 -0.00116333)
(0.562183 0.826121 0.0383984)
(0.53416 0.84454 0.0377478)
(0.0790668 0.996777 -0.0135921)
(0.0816104 0.99663 -0.00830184)
(0.161807 0.986809 0.00505034)
(0.0749561 0.997078 -0.0147437)
(0.163083 0.986596 0.00559058)
(0.172476 0.984974 0.00889079)
(0.0464166 0.998707 -0.0207168)
(0.0651912 0.997786 -0.0131786)
(0.0515237 0.998475 -0.0198189)
(0.170621 0.985302 0.00832591)
(-0.0101236 0.999539 -0.0286097)
(-0.0287812 0.998819 -0.0391429)
(0.121965 0.992362 -0.0184843)
(0.136325 0.9891 0.0556416)
(0.133075 0.991059 -0.00961844)
(0.138009 0.990429 0.00212017)
(0.124724 0.991098 -0.0465662)
(0.149396 0.98877 -0.00393928)
(0.105331 0.994437 -0.000304974)