/*--------------------------------*- C++ -*----------------------------------*\
| =========                 |                                                 |
| \\      /  F ield         | OpenFOAM: The Open Source CFD Toolbox           |
|  \\    /   O peration     | Version:  2012                                  |
|   \\  /    A nd           | Website:  www.openfoam.com                      |
|    \\/     M anipulation  |                                                 |
\*---------------------------------------------------------------------------*/
FoamFile
{
    version     2.0;
    format      ascii;
    class       volScalarField;
    location    "0.107/solid";
    object      sigmaHyd;
}
// * * * * * * * * * * * * * * * * * * * * * * * * * * * * * * * * * * * * * //

dimensions      [1 -1 -2 0 0 0 0];


internalField   nonuniform List<scalar> 
3125
(
-72599.3
-43183.2
-23401.9
-5382.77
-678.196
-53893.3
-46281.8
-69196.1
-31878.1
-50907.7
-29460.8
-15001.9
-6832.04
-20917.7
-4168.54
-13301.7
-1048.87
-1119.9
-3274.87
-753.914
-199986
-177085
-61294.8
-86982.6
-105866
-34253.4
-80060.4
-120046
-90914
-53920.5
-31417.2
-76584.2
1725.67
-3477.02
-13496.7
-2109.07
-4145.93
-15239.4
-4556.79
1518.65
-1418.82
-3193.3
-181487
-166742
-195005
-161007
-55870.7
-109747
-138091
-172634
-59151.5
-142295
-124417
-156289
-176716
-144406
-39601.9
-101823
-128966
-162408
-42325.8
-133015
-110240
-139964
-53163.7
-76081.5
-98132
-22728.1
-73751.8
-106208
-79629.7
-49370.1
-20656.7
-70491.3
-57906.7
-36424.6
-12084.3
-15211.5
-29660.7
-50938.1
-14114.5
-32055
-17199.8
-33695.4
-50177.1
-31395.9
-7479.08
-13873.5
-27036.6
-46610.2
-8785.36
-29230
-14847.8
-29031
1708.14
-3059.65
-12318.4
-1288.13
-3806.68
-13175.2
-4004.27
1551.75
-898.305
-2931.67
-280256
-110883
-86113.4
-101081
-66507.3
-40143.6
-59469.1
-168766
-150802
-34010.2
-25985.9
-39830
1589.46
67.9989
-8518.69
-4113.83
-5677.82
-20705.7
-13230.6
410.228
-739.049
-414.22
-244063
-100597
-273332
-252794
-49432.5
-68995.7
-76356.8
-108047
-65817.3
-99940.2
-174889
-193632
-237545
-218315
-34372.3
-61120.1
-67960.9
-97898.6
-47983.7
-90146.7
-147114
-163964
-70229.8
-82832.7
-58839.1
-27130.3
-52368.8
-141653
-125763
-29469.4
-16792.3
-34650.5
-81325.9
-67588.5
-8436.15
-9623.12
-13166.3
-32085.3
-18537.4
-26761.6
-23504.7
-32763.3
-66228.6
-54853.7
-5165.47
-8239.37
-11287.6
-27779.5
-11699.6
-23087.5
-19097.2
-26502
-924.27
-852.997
1319.28
-68.5211
-7300.28
-2493.43
-4862.07
-16866.1
-10904.8
416.443
-562.45
-317.925
-256529
-127168
-122340
-106262
-78720.2
-71894.4
-92373.4
-111784
-75566.3
-97101.1
-76242.8
-94504.6
-68119.1
-37166.5
-50423.8
-57099.8
-90815.8
-57751.8
-65452.1
-127874
-144957
-154243
-107233
-137803
-116839
-103069
-132456
-38957.4
-63262.5
-45661.4
-28660.8
-48187.5
-41918.3
-66502.5
-55236.1
-48010
-4099.41
-714.564
1607.63
-151.733
-98.6182
-4067.85
-839.542
-868.283
-9829.84
-8913.04
-6552.1
-3022.23
-2726.14
-4824.9
-7577.66
-3151.16
-5589.83
-5579.74
-11064.8
-19205.6
-9996.64
-12414
-5430.26
-8468.62
-10441.1
769.231
-226.878
-439.689
-863.893
-2134.22
-770.274
-848.873
-2472.7
-856.178
-227997
-116815
-250166
-180238
-231298
-226006
-246031
-175380
-206706
-225088
-52630.2
-86594.7
-78950.2
-79045.7
-121652
-87547.5
-99306
-125703
-90470.1
-123968
-159446
-114585
-62469.2
-89280.6
-97174
-155110
-102335
-111464
-219427
-199999
-159849
-137817
-177020
-200671
-142372
-182855
-221957
-162622
-204127
-193498
-212018
-158006
-181096
-198286
-36947.5
-77540.5
-70363.1
-71122.1
-113186
-79089
-90185.3
-117066
-81829.3
-113743
-149598
-104729
-45120
-80053.1
-87535.8
-145398
-93049.3
-101754
-187453
-169728
-137972
-122671
-153650
-175482
-126920
-159012
-101000
-87229.5
-66200.5
-62565.3
-77995.4
-94974.4
-65842.5
-82108.7
-68517
-87361
-60976.1
-24881.9
-44149.3
-50220.4
-83877
-51442.2
-58520.2
-105773
-120633
-132888
-94451.8
-118082
-99432.5
-90654.4
-113300
-34397.3
-58045.2
-40445.1
-18676.9
-42143.5
-36503.1
-61064.6
-49147.3
-42565.5
-74354.2
-48207.1
-61840.7
-50868.1
-63234.7
-45134.8
-46621.9
-57874.6
-10194.1
-18688.6
-14501.7
-11071.9
-20894.4
-15150.7
-21467.1
-22960.2
-16651.4
-36794.5
-42405.8
-30665.7
-16267.8
-20237.2
-25017.1
-39706
-23206.4
-28706.1
-46993.3
-36124.6
-21746.8
-23695.3
-30159.2
-43095.6
-26053.9
-33213.8
-62454.2
-41663
-51790.1
-41157.4
-51268.3
-38979.7
-38936.9
-48427.6
-6266.69
-16058.3
-12429.9
-9697.43
-19034.3
-13266.7
-18824.5
-20917
-14579.4
-32460
-38737.5
-26979.5
-10192
-17393.5
-21569.8
-36252.9
-20357.4
-25237.8
-38000.6
-29203.6
-18220.9
-20403.9
-25176
-35974.5
-22433.2
-27714.7
-3524.66
-738.597
1525.92
-89.9737
-130.132
-3552.51
-725.101
-820.176
-8615.16
-8158.55
-5750.73
-1831.06
-2327.93
-4133.99
-6941.65
-2768.81
-4908.16
-4725.96
-9162.84
-16125.4
-8694.85
-10523.3
-4699.09
-7384.43
-8886.08
787.451
-165.948
-353.675
-574.029
-1820.44
-636.155
-757.497
-2169.03
-732.059
-315909
-323922
-95227.6
-100710
-188430
-181559
644.678
754.972
-22316.4
-19376.7
-295987
-303781
-307946
-300031
-195383
-202413
-288246
-280562
-180077
-186752
-86474.8
-91512.4
-173488
-166988
-89870.3
-84624.1
-25426.9
-28696.1
-81546.2
-76746.2
-23038.7
-25975.9
-1137.13
-1187.69
-1136.27
586.615
659.309
-20244.2
-17600.8
-420.899
-347.895
-455.564
-842.191
-531.897
-621.2
-427.284
-221052
-204995
-204167
-209165
-226543
-176227
-160447
-181563
-188294
-192902
-164499
-172047
-135923
-129790
-68129.8
-64755.4
-63704.7
-67275.1
-71974.7
-90094.3
-96618.8
-83113
-86133.7
-92333.7
-100921
-95962.3
-114163
-102031
-110118
-104615
-92490.2
-83070.7
-86806.6
-83591.9
-72591.7
-90569.3
-79634.3
-75789.6
-142163
-148493
-133165
-123786
-115724
-119402
-128395
-94116.7
-100973
-94907.9
-98200.1
-105392
-56986.8
-48914.5
-56969.1
-58772.2
-62059.9
-51676.1
-53976.2
-72899.8
-83098.8
-73165
-69443
-79445
-76242.4
-66346.6
-3958.01
-2579.84
1755.68
1100.88
1380.9
948.511
1193.23
-3660.97
-3705.85
-2499.6
-2648.14
-2628.43
-11923.7
-12306
-14733.6
-11875.9
-12948.5
-13562.6
-10839.6
-5203.3
-4486.82
-5193.48
-3848.41
-5626.84
-4158.57
-4795.91
-5568.33
-7371.22
-16820.7
-15910.7
-13383.5
-13975
-14745.8
-4780.39
-4904.91
-5751.06
-6023.45
-6230.42
681.778
1288.37
940.397
1282.35
821.258
724.699
1085.99
-2341.68
-3452.21
-2328.52
-2985.83
-2513.17
-3203.69
-2203.27
-193865
-186295
-169667
-199056
-174287
-142918
-150745
-171106
-156583
-154692
-160846
-139095
-215591
-199196
-190054
-194252
-210160
-253664
-261252
-165139
-165763
-178267
-169918
-183495
-112104
-99477.2
-118252
-113672
-108342
-122380
-103031
-131415
-147923
-125143
-133925
-135368
-143582
-121371
-163742
-156417
-183709
-168210
-167887
-179147
-152412
-143352
-152300
-146533
-128950
-156705
-139347
-132787
-246142
-238678
-137987
-128219
-128838
-132698
-142861
-160393
-173082
-151611
-155688
-167938
-188712
-165084
-171980
-183600
-160540
-235758
-243058
-134181
-148895
-153878
-158712
-138460
-86285.5
-92047.4
-105563
-93961.2
-95428.3
-97522.1
-83108.6
-102855
-119946
-116586
-124957
-112962
-106299
-116089
-131554
-146826
-152356
-158105
-135306
-142936
-148166
-113322
-123849
-137105
-120248
-123946
-127798
-109791
-228526
-221372
-117157
-114331
-101785
-121546
-105643
-129951
-149094
-135567
-144363
-125767
-124163
-118446
-56191.3
-56225.9
-48544.3
-59446.9
-51366
-69771
-80607.7
-72602.3
-76893.5
-66532.5
-76911.9
-88710.5
-94490
-90452.3
-85420.3
-79982.8
-87000.1
-62308.9
-67470
-77070.5
-66675.9
-69674.6
-70580
-59544.6
-129979
-135904
-112832
-102231
-97981.5
-108570
-94237.7
-73075.6
-84393.1
-83241.6
-88251.3
-76442.9
-41787.9
-44646.1
-52196.6
-44827.3
-47199.6
-47435
-39479.8
-54190.3
-64419.8
-67288.5
-63730
-60836.7
-61433.2
-56838.8
-64366.5
-60210.7
-54596.1
-56791.9
-60686.1
-55865.5
-60325.4
-37972.7
-39240.8
-40460.9
-40897.5
-43599.5
-17117.9
-13857.5
-16621.8
-17017.7
-15298.3
-18607.2
-15490.7
-27509.3
-32446.6
-26939.8
-27346.4
-29831
-29921.2
-24843.8
-48132.2
-46212.7
-55550.8
-48024.1
-51022.7
-52397.4
-43573.6
-34697
-35057.7
-34528.7
-29108.5
-37749.7
-32227.2
-31348.9
-51550.7
-47367.3
-19013.4
-17961.7
-19266
-20122.6
-21321.5
-35140.6
-37421.5
-31056.7
-32402.7
-34479.8
-53014.7
-45793.8
-47263.6
-49919.2
-43116
-50540.2
-54586.1
-28590.7
-33845
-33085.9
-35681.1
-30825.5
-12311.9
-12592.4
-15512.3
-12543.9
-14070.7
-14015.3
-11017.1
-19772.1
-24416.4
-24472.3
-24919.3
-22560.5
-21459.5
-22496.9
-35052.8
-42152.2
-42288.3
-43917.4
-37235.1
-39719.8
-39818.9
-25036.8
-26407.4
-31497.8
-26453.7
-28502
-28472.4
-23216.3
-46616.2
-42835.7
-15569.6
-16612.8
-13568.1
-17434.1
-15157.5
-26433.4
-30576.8
-26747.6
-28157.5
-24349.9
-3684.66
-2427.32
1788.19
1115.13
1471.14
1191.77
989.837
-2875.38
-3120.29
-2202.98
-2220.29
-2085.48
-8637.82
-11189.6
-10847
-11149.5
-9862.51
-9795.73
-9832.48
-3821.72
-3475.46
-4766.65
-3517.56
-4382.09
-4350.78
-3051.38
-5131.04
-6781.15
-13800.9
-11591.1
-12056.9
-12127.3
-10625.5
-3739.72
-4112.12
-5038.65
-5203.93
-4684.67
793.249
1325.37
977.525
1413.2
765.682
906.907
1223.85
-1709.48
-2675.77
-2134.52
-2729.29
-2010.89
-1947.89
-2350.09
-298632
-287217
-306037
-91188.2
-74979.4
-76534.3
-89254
-112008
-106307
-91860.8
-91006.5
-97083.9
-107828
-95998.7
-102410
-54599.2
-47641.9
-56415.7
-46165.7
-52680.4
-43053.1
-44511.2
-50879
-168065
-174772
-179977
-162710
-173526
-160837
-156723
-167149
-31529.1
-25449.9
-26729.2
-29958.8
-33242.1
-29536.2
-28216.2
-34851.5
161.782
587.134
1202.13
1239.13
936.699
-24.1453
736.404
530.67
-6688.75
-6447.99
-7551.05
-5743.58
-5797.18
-4344.77
-4961.74
-5028.32
-14011.1
-16607.9
-21987.3
-18059.6
-19158.3
-13992.7
-15565.7
-16494.3
-658.985
-876.858
-783.619
-636.598
-481.816
-821.835
-730.219
-625.615
-56388.3
-9620.06
-10427
-38096.2
-39206.4
-41526.6
-40425.1
-55189.3
-54153.2
-51902.1
-52956.7
-2324.57
-2802.2
-3507.57
-2984.34
-9231.9
-8468.07
-7382.78
-8105.8
-258913
-250630
-265889
-44344.5
-32518.1
-33431.6
-42890
-291269
-266447
-283944
-284355
-292170
-259601
-269422
-276665
-60199.3
-49307.8
-58353.1
-50802
-62148.8
-53983.5
-52477.8
-64009.2
-85354.3
-73299.7
-87280.1
-71755.9
-83374.2
-68528.9
-70071.7
-81452.5
-216704
-209525
-186501
-181076
-193088
-206457
-187325
-199745
-251989
-231080
-245122
-265371
-272932
-224668
-231561
-238310
-23935.5
-16772.4
-17417.9
-22840.7
-24990.7
-19119.9
-18436.4
-26140.6
-40049
-31149.9
-30262.8
-41467.6
-38677
-28084.4
-28940.1
-37301.7
-200362
-193511
-155957
-152653
-161837
-173846
-158269
-167800
-36886.4
-35774.7
-33457.4
-34566.7
-20033.5
-21052.5
-23223.5
-22179.1
-2169.01
-1734.94
-1214.77
-1606.96
592.308
394.872
205.227
436.297
-5725.28
-6378.58
-7862.21
-7148.92
-18936.5
-17943.5
-15920.5
-16886.3
607.414
562.158
632.594
691.228
538.496
703.693
773.996
639.075
-101955
-96669.7
-74390.1
-74327.9
-78736.6
-87756.1
-78528.8
-83192.1
-20794.6
-15808.3
-21843.6
-15197.9
-19856.8
-13717.4
-14289.4
-18863.9
-154268
-160575
-150161
-136273
-144452
-133299
-130974
-138829
-10165.7
-6677.32
-7038.22
-9478.41
-10783.1
-8033.21
-7637.75
-11526.7
-86754
-76639.4
-81746.3
-74512.9
-79510.6
-72060.8
-72081.5
-76861.9
-9547.92
-7333.65
-8569.47
-8131.6
-10662.1
-9981.72
-9107.98
-11728.6
-26793.5
-24005.2
-28298.4
-22772.4
-25190.3
-20191.4
-21377.2
-23736.8
-35712.1
-32134.1
-24985.1
-26451
-28131.3
-34878
-29540.4
-31438
-70149.7
-62333.3
-66024.2
-67509.9
-72057.1
-58539.3
-58097.1
-62002.3
-2637.93
-1568.55
-1720.95
-2316.46
-2914.87
-2155.55
-1980.76
-3286.37
-8268.21
-6124.82
-5792.42
-8914.23
-7751.27
-4985.7
-5287.68
-7160.03
-32299.4
-29057.5
-20207.3
-21446.2
-22696.4
-28054.9
-23912.7
-25311
-5048.49
-4456.02
-3355.71
-3863.71
-1154.08
-1026.04
-815.488
-739.687
484.892
513.903
412.215
396.46
-1203.71
-1049.92
-554.071
-602.363
99.6128
555.423
885.862
965.781
610.291
-232.262
528.829
286.127
-1788.53
-1345.45
-2079.74
-1206.13
-1580.5
-901.663
-1025.86
-1339.37
-12787
-15103.2
-17843.1
-14754.8
-15608.5
-11528.5
-12766.9
-13500
79.1707
39.2338
184.087
335.636
19.6855
-67.1411
202.813
-618.369
-904.673
-771.199
-618.93
-343.186
-539.33
-574.506
-329.621
-240782
-262927
-246770
-117831
-123755
-130499
-116894
-124694
-113355
-111534
-118977
-74090.9
-83180.6
-78281
-68289.8
-74617.6
-79896.7
-70913.5
-75898.8
-87733.6
-86914.8
-82556.5
-105140
-106809
-100469
-79307.1
-78391.6
-83970.9
-82232
-88117.7
-101914
-91354.7
-95872.6
-97269.2
-98243.5
-102157
-85673.8
-93657.6
-106116
-89059.3
-45349.5
-36948.8
-43608
-38362.8
-47219.7
-41417.1
-48984.2
-39978.3
-86555.8
-87177.3
-98246.1
-82332.2
-90085.7
-94384.3
-79037.5
-161454
-154927
-136402
-133489
-142384
-154609
-139184
-148456
-144972
-148699
-139773
-111452
-110765
-119019
-115061
-123680
-143218
-129554
-134633
-109884
-121971
-114700
-98959.2
-106524
-114417
-102337
-109874
-127178
-124538
-119585
-60059.2
-60084.2
-68831.1
-57376.4
-65414.2
-63189
-54498.1
-40076.4
-35358.7
-41771.2
-33974.9
-38276.2
-31062.6
-36612.1
-32415.5
-69610.8
-69804
-72310.1
-60311.9
-75848.5
-66373.3
-63301.8
-510.44
-1413
-4281.07
-2797.72
-2915.16
-783.735
-1674.46
-1744.78
1833.18
1116.4
1216.71
515.543
-223.998
-78.6509
429.603
613.468
595.922
-51.7046
659.787
-3888.83
-2852.49
-2731.08
-1627.95
-932.755
-818.553
-1744.11
-1675.62
-1794
-815.294
-1715.3
-10381.6
-10345.4
-9694.71
-8159.38
-8936.47
-11267.5
-9454.55
-2992.2
-2181.18
-2456.33
-2611.11
-3623.82
-3680.3
-4260.75
-3157.85
-6346.09
-6336.95
-8230.53
-6951.53
-7591.53
-6874.41
-5829.43
-11609.4
-9391.55
-5851.85
-7235.36
-7601.68
-11681.8
-9063.73
-9549.06
-18153
-16799.8
-15890.8
-11633.6
-10433.5
-10962.3
-12150.4
-12792.4
-14534
-11765.6
-13760.3
-5180.84
-6947.9
-6616.19
-7052.78
-8843.75
-9256.58
-7375.85
-7679.16
-8616.76
-9907.95
-8190.7
264.639
381.717
-267.967
-307.972
344.446
-287.344
237.804
-1549.67
-1765.12
-1940.96
-1439.77
-1213.34
-906.221
-902.624
-1180.52
-1577.22
-1554.5
-923.835
-868.711
-1676.28
-887.118
-1503.47
-46140.1
-45050.3
-42740.3
-43841.1
-47349.9
-48427.2
-50699.1
-49637.2
-5131.77
-4532.06
-3724.62
-4280.97
-5409.36
-6056.06
-7050.24
-6359.52
-211579
-234082
-217245
-234827
-243840
-228906
-185130
-184429
-199391
-189327
-204760
-237550
-217166
-223018
-276600
-268896
-240921
-232636
-247978
-262230
-239312
-255080
-170554
-179563
-194058
-174726
-188759
-194137
-212791
-199836
-211352
-218918
-205573
-69818
-60392.8
-58869.6
-71707.3
-67848.9
-55667.5
-65969.5
-57183.5
-115903
-117641
-130751
-110257
-119734
-126548
-106626
-127491
-129795
-134994
-113927
-123598
-139273
-117631
-159618
-163813
-170090
-144479
-174605
-155519
-148431
-75585.7
-62082.5
-63615.1
-73680.2
-77563.7
-66842.3
-79474.2
-65305.2
-147385
-150805
-165602
-140553
-161140
-151440
-136656
-223963
-231286
-233921
-212898
-226968
-213237
-206422
-220075
-150229
-165515
-155541
-133304
-141774
-152753
-137217
-147783
-171240
-166324
-160906
-188485
-194684
-182877
-146971
-146374
-157770
-151015
-162832
-188744
-171793
-177309
-205954
-215965
-200375
-167283
-173507
-151577
-178532
-156038
-210020
-189355
-194841
-257867
-250428
-205202
-199607
-211690
-224873
-205780
-218249
-153430
-168528
-147160
-163594
-142788
-167924
-186769
-173202
-183919
-192500
-178534
-29609.6
-22791.5
-22035.1
-30855.7
-28445.7
-20190.1
-27251.4
-20909.5
-89506.8
-109353
-102320
-104800
-98854.4
-92773.6
-101135
-99451.3
-120990
-105827
-108513
-109376
-96089.1
-112277
-127833
-153835
-135243
-139897
-139073
-144012
-124147
-33365.8
-23967
-24757.6
-32077.8
-34640.3
-26808
-35976.2
-25984.2
-116891
-141233
-131444
-135822
-127678
-131789
-120499
-207285
-214288
-198783
-181475
-192439
-179967
-175566
-186166
-127836
-143129
-132626
-118476
-130500
-113533
-125993
-109559
-148356
-142404
-137483
-162703
-169930
-157538
-131220
-135065
-117558
-139687
-121636
-164440
-147388
-152433
-28863.2
-29955.6
-32252.6
-31151.8
-27681.4
-26597.8
-24366.4
-25434.4
-372.458
-697.329
-1122.87
-757.024
-334.51
-48.5232
216.562
-32.6971
-11177.5
-10349.2
-8684.25
-9470.6
-12117.7
-12992.2
-14897.1
-13980.2
713.733
796.451
746.957
689.781
821.648
716.838
690.784
816.14
-107339
-112836
-107025
-96315.5
-102057
-92421.9
-91724.3
-97190.1
-61262.3
-70039.9
-64817.8
-59361.9
-66195.6
-57225.7
-62782.1
-54260.6
-73972.5
-72187.6
-68460.6
-87926.2
-90600
-83869.3
-69189
-69686
-60259.5
-73251.3
-63362.4
-86312
-75999.9
-79894.7
-73886.4
-90900
-78975.6
-80260.3
-82174
-70910.5
-83601.3
-16205.2
-11025.1
-11523.5
-15315.4
-17034.3
-12861
-17980.8
-12325.1
-65123.6
-80445.9
-75826.3
-76974.2
-72726.9
-67989.7
-73746.6
-148046
-141923
-112089
-110639
-117254
-127856
-115591
-122508
-123113
-127878
-118459
-98313.4
-100241
-86936
-104373
-90555.2
-122942
-109366
-113877
-92061.3
-103975
-96274.1
-86916.7
-96175.3
-83374.3
-92178.7
-79875.9
-108598
-104927
-100563
-44150.7
-55089.6
-52483.9
-52840.6
-49813.2
-50105.8
-46571.9
-13698.3
-10274.2
-9809.1
-14543.1
-12981.2
-8680.32
-12192.8
-9109.3
-51593.7
-64146.8
-55212.3
-55641
-57996.9
-58506.7
-49053.8
-69989
-70083.5
-65976.2
-51360.6
-50181.9
-53579.9
-53447.6
-57089.5
-65911.5
-58231.6
-62056
-69654.5
-64919.9
-54221.8
-54869.9
-58498.9
-67432.8
-58993.4
-62901.9
-42145.3
-47001.9
-50161.3
-43907.1
-46834.8
-43928.9
-50261.7
-47350.9
-54504.1
-54013.7
-50876
-15412.1
-14146.4
-13135.6
-16645.8
-14106.7
-11048.2
-12946.7
-11993.4
-19029.8
-18911.9
-22862.5
-19000.9
-21030.4
-20690.2
-17206.5
-25269.9
-25112
-25128.4
-20871.9
-23110.3
-27483.9
-22819
-45309.1
-45178.7
-46309
-38484.3
-49315.8
-42551
-40996
-19354.1
-15361.6
-16439
-18037
-20817.9
-18852.4
-22198.9
-17719.9
-37243.3
-37078.8
-43378.2
-36038.2
-40523.7
-39861.9
-33659.4
-39454.8
-43336.3
-50086.4
-43241
-46073.6
-38473.5
-39619.6
-42206
-20543.4
-24422.1
-23060
-21429.8
-24738.3
-26267.5
-22382.3
-23740
-27227.9
-28453.4
-25697.3
-40614.5
-39683
-37407.2
-28509.1
-27199
-28902.9
-29756.3
-31641
-36389.8
-31326.3
-34310.9
-57793.9
-58804.7
-54414.6
-44427
-43974.9
-37980.8
-46906.2
-40512.5
-55249.4
-47923.5
-51124.7
-63072.5
-58764.1
-43585.1
-44420.2
-47043.4
-54299.7
-47790.4
-50616.5
-36373.3
-41125.6
-35521.8
-38360.1
-33136.7
-36032.9
-42001.3
-38866.4
-44811.9
-45165.7
-41793.7
-4352.83
-3208.55
-2985.79
-4814.06
-4004.42
-2451.31
-3595.43
-2648.38
-13669.2
-17233
-17248.5
-17180.2
-15623.1
-15090.8
-15557.6
-18146.2
-22879.3
-18948.4
-18876.3
-20719.8
-16584
-20647.9
-32926.9
-41293.3
-35041
-35074.9
-37348.6
-37414.4
-30861.4
-5701.83
-3585.32
-3830.5
-5201.97
-6135.73
-4522.93
-6687.02
-4249.02
-26916.4
-33839.4
-32795.7
-32804.5
-30616.2
-30604.9
-28857.7
-35668.3
-39178.8
-40239.7
-34956.1
-37017.6
-30920.7
-32022.4
-33908.9
-16893.8
-20428.8
-18931.4
-18465.7
-21443.4
-18591.5
-19391.7
-16831.5
-22746.9
-23315.2
-21072.2
-33294.1
-33116
-30651.4
-24548.6
-23589.6
-20428.8
-25828.4
-22348.7
-30363
-25661.1
-28107.4
-1686.59
-2031.59
-2851.19
-2428.51
-1403.72
-1143.56
-810.874
-1010.06
161.792
150.832
284.391
303.385
-10.5919
-40.6435
-285.868
-250.599
-529.788
-1380.2
-3726.72
-2458.7
-2621.05
-879.507
-1537.94
-1679.19
1804.9
1022.46
1171.26
540.826
-19.8043
-113.649
624.419
480.98
519.297
-41.4412
621.206
-3316.43
-2525.5
-2349.81
-1433.74
-677.104
-717.519
-1414.81
-1376
-1624.55
-719.07
-1494.78
-7544.96
-9460.12
-7439.43
-7416.45
-8612.05
-6516.68
-8588.52
-815.488
-481.629
-567.14
-660.359
-956.994
-761.458
-1162.67
-654.924
-4655.79
-5811
-6341.59
-6319.11
-5323.16
-5553.23
-5297.61
-10609.4
-8605.45
-4988.71
-6072.5
-6413.38
-9682.21
-7551.01
-7977.8
-14959.9
-14143.2
-13129.6
-10098.9
-9067.86
-8012.4
-10550.1
-9276.71
-12275.9
-9787.14
-11405.9
-4388.73
-5973.79
-5574.07
-6166.4
-7681.44
-6822.53
-6394.12
-5710.35
-7369.64
-8273.05
-6869.13
392.41
425.005
-243.874
-114.995
285.797
441.026
-94.5167
-456.373
-448.471
-410.014
-558.75
-436.844
-409.995
-375.476
-452.589
-1125.73
-1417.95
-774.699
-673.903
-1365.73
-1288.41
-586.171
-514.169
-284.761
-532.803
-756.896
-684.447
-640.587
-354.697
-1204.55
-1105.05
-1150.99
447.978
1037.74
328.929
553.864
263.082
531.746
820.806
577.634
1072.3
370.982
654.669
387.794
576.651
949.163
-109140
-95110.1
-113581
-123253
-96913.9
-106709
-126110
-63683
-56878.7
-75808.7
-64176.1
-65912.9
-55279.2
-73229.2
-61388.5
-68045.8
-61745.2
-51252
-52820.5
-70579
-59203.6
-36258.1
-29442.5
-35876.9
-39474.2
-30740.1
-34398.4
-41617.9
-38232.2
-46106.5
-37886.6
-34114.2
-32769.9
-43885.4
-40169.1
-7563.05
-7365.43
-9927.84
-7531.25
-8593.88
-6683.37
-8753.37
-6566.51
-6577.19
-6547.24
-5084.71
-5696.56
-7606.31
-5672.91
9.19808
49.0688
138.299
256.863
-21.771
-110.84
95.6392
-275.938
-437.611
-200.019
-704.308
-671.398
-187.11
-439.632
-73573.1
-84127.2
-103203
-87472.1
-86336.6
-71421.3
-89937.1
-70504.1
-59396.1
-78507.5
-71380.2
-68245
-61033.6
-81130.9
-72873.5
-86535.8
-65270.6
-73922.8
-63605.4
-75169.1
-83872.2
-101758
-92215.2
-120310
-105379
-104179
-90426.2
-117473
-99243.6
-111736
-102577
-85792.7
-87569.7
-114551
-96841.2
-42945.9
-50993.5
-63338.6
-51094.8
-52850.3
-41223
-53088.9
-44606.4
-57254.1
-56727.1
-65683.3
-54813.6
-46381.3
-55193.2
-67286.8
-81873.5
-84929.9
-95330.3
-69386.6
-79697.9
-82514.1
-65297.3
-77660.5
-92673.1
-75344.5
-77477
-80024.8
-63238.7
-37972.9
-49084.2
-56680.4
-49063.4
-47272.7
-39622.5
-47141.4
-36433.8
-43331.7
-54463.7
-43668.2
-45421.5
-45183.3
-34837.4
-20016.9
-24546.6
-31133.9
-23684.4
-25944.2
-18816.6
-25083.8
-21158.1
-28043
-32906.8
-28879.4
-27407.8
-26567.1
-22413.6
-10859.1
-8479.97
-11219.5
-10728.2
-9724.09
-9250.7
-12528.3
-12110.9
-15393.6
-11326.1
-11951.9
-10485.5
-13371.2
-13957.6
-30693.7
-27497.3
-37291.8
-30300.1
-32493.2
-26262.1
-35229.6
-28870.3
-31166.4
-28462.3
-23219.9
-24402
-33137.8
-27156.2
-5628.17
-6906.75
-9193.45
-6452.22
-7710.76
-4980.61
-7209.76
-6239.41
-8864.64
-9450.85
-10233.9
-8552.85
-6942.91
-8026.64
-16622.8
-23152.5
-22282.1
-26194.2
-17741.9
-21813
-20964.6
-15610
-18401.5
-24589.6
-19231.7
-20495.5
-19642.7
-14547.7
-3869.73
-6148.16
-6445.98
-5716.58
-5419.31
-4435.34
-5044.03
-3382.01
-3793.18
-5612.02
-4119.19
-4753.67
-4388.65
-2874.86
-135.38
-155.061
-134.018
-589.733
-549.928
-20.2637
-163.054
-158928
-143698
-130334
-139381
-142702
-147315
-155188
-91344.9
-86021.5
-85364.1
-73516.2
-82394.4
-94667.1
-82916.7
-88053.7
-76522.1
-70779.9
-76813.7
-79437.4
-84799.1
-79841.8
-52593.9
-43511
-57999.1
-52578.1
-60422.5
-50499
-45001.9
-54800
-65446.7
-48858
-54883.1
-56950.6
-62966.4
-47330
-75255.9
-65097.7
-65162.6
-60267.9
-67947
-72154.3
-67959
-78398.7
-73627.1
-73818
-62862.2
-81579
-70776.9
-70871.2
-51698.5
-43881.6
-41135
-44282.6
-46738
-46354
-48973.8
-54475.3
-51789.5
-43394.4
-51462.3
-49248.3
-57302.7
-48885.9
-46291.1
-41252.1
-55517.9
-46100.5
-48343.7
-53156.6
-39811.8
-44194.3
-48449.4
-36225.9
-43936.1
-42206.3
-50743.4
-37623.3
-66078
-62274
-62405.5
-52799.1
-69093.3
-59699.2
-59503
-63105.4
-54389.4
-54096
-50365.3
-60181
-57018.4
-56772
-10873.2
-11056
-11163.8
-8675.93
-9827.07
-12354.2
-9743.66
-9476.11
-7379.77
-7570.12
-7345.78
-8558.85
-8165.37
-8504.08
-3309.63
-2550.48
-3118.56
-3352.58
-3856.07
-2672.07
-3012.48
-4028.99
-5581.92
-4240.95
-4076.57
-4807.54
-4697.66
-3713.44
-4793.71
-3492.8
-3482.59
-3890.24
-4334.93
-3845.64
-4338.03
-5825.09
-6279.95
-6262.78
-4713.31
-6948.31
-5269.43
-5262.34
95.0999
-411.711
-49.3385
-355.894
-18.7122
-378.254
113.895
-1561.19
-2007.34
-2429.85
-1626.71
-2088.92
-1830.01
-1634.52
-1136.52
-837.005
-886.707
-1159.73
-721.298
-1291
-1239.06
-2212.89
-2723.08
-2712.83
-1871.4
-2984.81
-2023.76
-2028.4
-1523.12
-874.558
-848.128
-1327.24
-908.87
-1407.97
-1406.95
-124955
-133987
-119877
-104421
-107352
-137501
-121582
-82312.9
-73983.8
-97561.7
-84071.4
-94828.6
-84661.5
-72267.3
-79886.1
-89315.1
-67896.6
-81430.5
-77567.4
-92015.1
-69590.8
-101408
-89171
-88378.3
-81835.2
-91404.5
-98022.4
-92348.4
-104825
-97541.4
-84699.3
-98814.8
-94467.4
-108268
-95569.1
-118764
-112132
-110088
-96350.7
-106928
-122311
-108762
-115238
-100654
-93373.9
-102102
-103774
-111741
-105412
-147752
-140092
-136061
-120838
-132768
-151462
-136517
-144057
-126209
-117676
-129425
-129475
-140385
-132955
-89479.4
-76708.4
-100408
-91844.9
-87112.4
-103170
-78450.3
-91956.3
-108836
-82978.7
-94572.3
-94345
-106046
-81219.7
-129476
-115540
-113283
-105339
-125883
-116483
-118967
-133093
-122946
-125911
-108415
-136728
-119713
-122431
-51726.4
-64763.6
-75155.1
-65988.8
-62754.5
-63799.3
-53617.2
-49946.3
-59428.8
-58737.1
-72696.1
-48104.2
-60696.5
-61556.2
-75071
-81735.4
-73733.3
-61611.2
-64006
-84740.6
-72289.2
-77900.7
-68938.1
-76408.3
-90871.6
-66461.7
-87790
-80772.2
-89630.9
-103567
-87379.2
-79247.1
-100344
-76622.1
-92664.3
-86637.5
-71467.6
-84572.7
-93995.1
-97149.7
-74016.5
-83686.3
-114921
-130493
-101492
-110724
-98612
-118235
-127031
-111639
-92924.5
-107698
-120180
-95742.7
-123589
-108390
-57409.4
-66866.7
-82488.9
-68297.1
-68915.9
-55455.2
-70549.8
-59296.9
-75229.3
-73158.3
-85052.8
-61299.1
-71064.7
-72919.8
-98844
-106829
-95912.5
-81921.6
-110118
-95737.9
-84611.6
-101992
-90114.6
-116795
-98834
-113444
-105172
-87356.4
-66851.5
-78765
-65974.7
-59236.3
-56916.8
-75840.3
-69547
-64202.7
-52393.7
-63442.6
-70110.5
-54626.4
-72951.8
-61601.7
-30435.5
-36796.6
-46110.6
-36163.3
-38437.8
-37869.3
-28968.2
-31842.4
-41451
-41874.2
-48190.2
-33365.3
-40171
-39672.4
-54072.8
-59175.6
-53752.4
-43849.9
-61839.8
-45911.4
-51662.8
-56535.1
-50184.8
-67307.8
-56128.1
-64553.9
-59044.4
-48033.3
-36176.5
-39602.6
-36359.3
-28885.6
-30587
-41869.2
-34173.6
-38236.1
-34150
-38389.2
-46562.3
-32350.6
-44192
-40346.4
-26235.9
-35127.6
-40251.7
-34438
-33536.5
-27626.2
-32809.7
-24957.8
-29609
-30409.5
-38321.7
-23624.9
-31937.6
-31162.8
-46983.8
-56554.2
-46917.7
-41814.3
-53985.2
-49297.8
-39834.7
-44720.8
-36003.1
-48988.2
-44707.6
-51460.3
-42509.1
-37889.5
-17547.1
-16043.5
-21840.4
-17268
-20172.8
-19007.8
-15061.4
-16084.5
-16946.9
-12679
-15822.2
-14730.7
-18501.3
-13596.3
-15582
-12448
-12589.3
-12361.6
-14085.5
-13928.5
-13910.7
-17312.8
-17291.5
-13736.2
-17055.5
-15658
-19123.1
-15449.4
-25003.7
-24175.5
-24517.8
-19812.4
-22621.4
-27105.4
-22297.1
-22971.8
-19005.6
-18190.3
-18736.2
-20777.5
-21010.9
-20480.7
-43687.6
-41456.7
-41868.4
-34713.2
-39515
-46300.8
-39093.1
-41129.8
-34946.2
-32648.3
-34530.6
-37198.7
-38632.2
-36780
-22114.3
-17612.8
-23626.3
-21756.4
-20571.6
-25399.7
-18670.4
-23771.3
-29170.2
-21455.5
-23405
-25411.4
-27293.9
-20337.7
-31519.4
-26123.3
-26488.7
-24976.3
-29279.6
-28513.6
-28129.8
-33824.9
-32742
-32334.2
-26828.9
-36195.9
-30603.6
-30203.7
-9156.96
-13409.4
-14816.3
-12683.1
-12351.2
-11681.5
-10002.4
-8408.58
-9769.74
-10374.8
-13577.6
-7623.76
-11345.7
-10690.4
-10632.5
-11168.1
-10825.8
-7977.33
-8909.32
-12476.9
-9521.81
-11806
-10937.3
-12022.1
-15293
-9899.59
-13852.9
-13036.9
-17077
-21697.3
-17359
-15591.5
-20003.5
-14354.1
-18540.5
-15671.7
-12027.4
-15933.6
-16800.9
-18369.5
-13161.1
-14325.9
-30322.5
-37386.6
-27214.6
-30590.2
-25600.1
-32221.6
-35228.9
-28478.1
-22509.2
-28750.4
-31075.1
-24026.3
-33122.5
-26687.6
-11742.1
-14494.6
-18724
-13758.1
-15617.9
-10815.5
-14842.5
-12619.7
-17162
-17985.3
-20151.6
-13604.2
-16785.1
-16000.1
-21632.5
-23455
-21926.9
-16881.7
-25271
-20059.5
-18209.6
-23265
-21025.3
-29081
-23564.3
-27148.6
-24948.9
-19598.5
-7467.19
-9924.98
-7603.36
-7083.97
-6245.05
-8750.87
-8467.95
-6527.12
-4712.2
-6641.84
-6607.46
-5452.79
-7643.99
-5644.03
-1678.16
-2044.6
-2869.71
-1779.9
-2519.5
-2214.4
-1303.72
-2027.24
-3219.7
-3544.84
-3487.36
-2456.03
-2987.04
-2705.4
-3322.88
-3144.58
-3419.3
-2219.83
-3906.95
-2764.88
-2665.09
-4041.14
-4012.58
-5636.57
-4136.55
-4737.79
-4814.15
-3366.28
252.161
-156.094
13.017
-278.542
151.775
170.802
-146.634
-738.71
-1689.74
-1379.38
-1374.59
-1286.93
-1035.11
-1021.14
-545.017
-418.72
-678.017
-977.596
-289.83
-1044.34
-695.799
-1512.48
-2449.25
-1636.07
-1712.95
-1819.67
-2062.45
-1259.71
-1016.93
-487.738
-738.662
-1152.26
-1253.78
-559.499
-849.71
)
;

boundaryField
{
    left
    {
        type            zeroGradient;
    }
    bottom
    {
        type            zeroGradient;
    }
    interface
    {
        type            zeroGradient;
    }
    procBoundary7to2
    {
        type            processor;
        value           nonuniform List<scalar> 8(-36088.4 -36088.4 -20227.6 -20227.6 -20227.6 -43590.5 1197.1 1345.29);
    }
    procBoundary7to3
    {
        type            processor;
        value           nonuniform List<scalar> 
49
(
-76025.8
-56933.7
-331978
-311629
-210028
-214180
-232058
-180423
-186064
-197526
-168574
-191138
-204288
-178947
-146773
-175502
-158667
-165145
-294212
-313476
-93157
-78194.7
-57396
-57396
-10837.5
-257247
-272919
-45813.9
-34846.5
-269356
-252785
-240213
-222956
-111682
-116445
-99844.1
-129067
-75652
-105942
-88618.1
-92534.7
-162682
-133567
-146041
-150960
-128363
-122995
-110338
-141045
)
;
    }
    procBoundary7to6
    {
        type            processor;
        value           nonuniform List<scalar> 
328
(
-21922.9
-11986.9
-2663.7
-23447.6
-23447.6
-23447.6
-34483.7
-34483.7
-34483.7
-11229.5
-11229.5
-11229.5
-18975.9
-18975.9
-18975.9
-21922.9
-21922.9
-11986.9
-11986.9
-10283.7
-10283.7
-10283.7
-4863.42
-4863.42
-4863.42
-3407.17
-3407.17
-3407.17
-10713.4
-10713.4
-10713.4
-1158.58
-1158.58
-1158.58
-4258.47
-4258.47
-4258.47
-2663.7
-2663.7
-1453.43
-883.743
-883.743
-883.743
-1533.18
-17480.7
-16054.7
-1074.79
-824.055
-28116.8
-28116.8
-28116.8
-29696.9
-29696.9
-29696.9
-14316.9
-14316.9
-14316.9
-15426.1
-15426.1
-15426.1
-17480.7
-17480.7
-16054.7
-16054.7
-7703.86
-7703.86
-7703.86
-6929.56
-6929.56
-6929.56
-6144.83
-6144.83
-6144.83
-7199.68
-7199.68
-7199.68
-2243.24
-2243.24
-2243.24
-2686.67
-2686.67
-2686.67
-1074.79
-1074.79
-824.055
-824.055
-388.301
-388.301
-388.301
-399.86
-399.86
-399.86
-20418.8
-13304.4
-2019.47
-24990.4
-24990.4
-24990.4
-32882.5
-32882.5
-32882.5
-12217.2
-12217.2
-12217.2
-17757.1
-17757.1
-17757.1
-20418.8
-20418.8
-13304.4
-13304.4
-9380.32
-9380.32
-9380.32
-5509.51
-5509.51
-5509.51
-4242.6
-4242.6
-4242.6
-9489.25
-9489.25
-9489.25
-1478.24
-1478.24
-1478.24
-3693.67
-3693.67
-3693.67
-2019.47
-2019.47
-1234.06
-698.501