/*--------------------------------*- C++ -*----------------------------------*\
| =========                 |                                                 |
| \\      /  F ield         | OpenFOAM: The Open Source CFD Toolbox           |
|  \\    /   O peration     | Version:  2012                                  |
|   \\  /    A nd           | Website:  www.openfoam.com                      |
|    \\/     M anipulation  |                                                 |
\*---------------------------------------------------------------------------*/
FoamFile
{
    version     2.0;
    format      ascii;
    class       volSymmTensorField;
    location    "0.107/solid";
    object      sigma;
}
// * * * * * * * * * * * * * * * * * * * * * * * * * * * * * * * * * * * * * //

dimensions      [1 -1 -2 0 0 0 0];


internalField   nonuniform List<symmTensor> 
3125
(
(-127.94 -2857.02 97264.7 7208.22 5226.02 -224878)
(-690.091 -1671.43 82039.8 5296.31 3942.4 -134156)
(-887.774 -893.79 63997.7 3569.49 2734.91 -72887.5)
(-728.719 -187.492 32978.5 1653.96 1256.33 -17073.6)
(-3142.81 -366.669 1597.37 1032.19 -29.7097 76.0316)
(3814.47 2033.48 102046 -2396.87 -7210.7 -163097)
(-646.147 -1794.57 84168.5 5531.83 4107.42 -143731)
(-208.025 -2717.88 95994 7021.11 5111.71 -214401)
(2258.02 1161.72 87770.7 -1867.98 -6619.18 -96024.3)
(3615.89 1918.24 100596 -2365.7 -7155.53 -153973)
(2068.53 1065.84 85536.3 -1755.16 -6511.54 -88695.6)
(774.425 457.984 66791.7 -774.203 -5421.11 -45005.9)
(-755.94 -242.44 36806.3 1821.84 1404.16 -21562)
(-898.149 -796.482 60967.7 3324.68 2561.48 -65179.6)
(-227.235 -46.8975 38521.1 399.54 -3289.36 -12677.9)
(615.191 384.638 63656.5 -615.471 -5209.66 -39905)
(-4247.6 -348.83 1614.49 992.136 -53.4507 108.858)
(-4309.54 -231.653 1645.67 875.23 -123.921 74.6099)
(-309.183 -92.3121 34521.4 515.19 -2949.54 -10030.6)
(-3196.51 -247.775 1640.3 903.431 -136.079 31.3394)
(-8194.96 -816.718 74651.5 1742.26 4721.94 -593506)
(-3427.81 438.864 81117.6 3697.67 3099.49 -531526)
(-2150.71 -5.21085 48610.7 1363.24 2611.86 -183097)
(-3688.14 -85.9532 56140.6 1436.05 3157.88 -258696)
(-1905.91 521.402 68930.5 2887.04 2285.51 -318579)
(-801.473 -1317.69 74986.9 4563.75 3431.8 -106522)
(-1162.92 468.009 62046.8 2529.14 1884.36 -241547)
(-5347.29 -240.482 63469 1528.38 3744.23 -356321)
(-3902.93 -100.998 57131.4 1448.06 3232.19 -270287)
(-267.096 357.256 52797.4 2125.53 1430.06 -163620)
(-832.432 -1205.33 72406.7 4314.38 3258.79 -97733.5)
(-1052.77 456.407 60970.7 2478.48 1827.61 -231178)
(3893.05 -54.739 936.408 1049.56 60.0622 234.383)
(1674.67 41.9803 13422.1 1106.84 688.53 -13212.6)
(1452.88 69.1222 28463.2 1398.24 624.39 -43341.1)
(-887.366 -43.9065 21085.8 1229 811.291 -6668.84)
(1513.45 -13.9707 16552.5 1167.82 397.932 -15119.1)
(1184.63 47.8687 26206.4 1215.63 1291.88 -48118.5)
(1675.7 42.4585 15132.6 1128.67 772.322 -16474.8)
(3403.2 -125.847 1008.4 984.062 67.4151 168.679)
(-1115.05 1.04645 16930.1 1088.25 657.127 -4229.65)
(1469.34 -19.6486 14729.3 1134.75 356.906 -12184)
(8653.51 2971.1 77189.2 754.149 -6478.75 -553869)
(3948.22 2253.91 83069.4 64.8856 -5082.95 -504238)
(-8055.8 -773.9 74151.3 1729.63 4679.19 -578688)
(-6980.82 -504.826 70109.9 1639.48 4317.38 -477680)
(-481.814 -2180.3 89881.6 6207.46 4575.39 -173338)
(-2007.12 525.1 69823.4 2937.36 2341.57 -330170)
(-2677.39 520.475 75441.9 3281.91 2709.03 -414878)
(-3351.25 452.628 80569.9 3653.24 3062.93 -518203)
(-419.412 -2311.93 91569.3 6420.65 4719.76 -183456)
(-2767 515.588 76157.4 3329.78 2757.12 -427447)
(-5541.55 -264.888 64290.4 1541.81 3813.17 -369253)
(-6813.2 -470.652 69453.1 1627.82 4260.02 -463681)
(8587.63 2910.8 76648.5 751.211 -6445.48 -539487)
(8066.6 2471.71 72363.6 753.015 -6192.39 -442037)
(2837.11 1470.46 93857.7 -2143.06 -6888.93 -119500)
(3575.55 1572.13 71397.7 152.77 -4695.26 -309198)
(3769.89 1891.54 77159.2 76.4355 -4895.63 -390743)
(3929.83 2217.42 82491.2 60.7629 -5064.03 -491215)
(3032.13 1580.24 95684.9 -2213.39 -6963.56 -127796)
(3793.45 1935.16 77897.9 69.5777 -4919.73 -402909)
(7283.28 1951.06 66317.3 782.898 -5821.14 -338788)
(7977.75 2408.43 71675.4 753.637 -6150.62 -428624)
(5231.57 900.722 50256 919.1 -4680.93 -165642)
(6178.72 1354.01 57955.8 849.947 -5259.09 -235273)
(3542.44 1524.66 70486.5 168.599 -4661.77 -298107)
(1491.64 787.62 78177.9 -1371.98 -6121.48 -68304)
(3284.64 1174.85 63482.8 307.643 -4369.94 -224848)
(7169.89 1886.08 65471 787.138 -5767.49 -326581)
(6307.64 1421.12 58970.5 839.338 -5331.81 -246036)
(2963.21 761.37 54086.4 514.674 -3893.91 -151588)
(1309.35 702.64 75504.2 -1227.93 -5966.67 -62051.6)
(3245 1123.74 62388.9 330.466 -4318.67 -215049)
(-1929.29 2.70963 47450.9 1354.7 2533.1 -173145)
(-430.08 32.7514 38775.2 1290.63 1993.88 -110134)
(-850.243 -450.323 47767.8 2410.96 1886.71 -37813.5)
(1386.25 85.261 30064.5 1433.3 661.535 -48454.1)
(731.943 198.471 40679.5 1708.89 981.163 -91422.9)
(-153.755 340.269 51538.3 2076.61 1374.87 -154737)
(-877.399 -530.141 51230.9 2626.17 2052.77 -44092.3)
(625.284 215.2 42112.6 1752.18 1027.97 -98542.4)
(1041.8 48.9118 27683.9 1225.66 1365.4 -53867)
(-226.118 36.4298 37456.8 1283.24 1917.37 -102143)
(5094.86 838.189 49067.7 928.041 -4586.95 -156554)
(4203.21 414.32 40153.4 1005.15 -3828.26 -99395.9)
(60.9287 118.524 49949.1 -2.33799 -4205.21 -22495.8)
(2429.77 22.3572 30861.8 941.195 -2370.27 -44991.5)
(2651.82 312.862 41728.9 769.879 -3122.91 -84531.5)
(2923.43 709.649 52804.8 542.588 -3822.87 -143297)
(184.868 180.546 53545.2 -149.419 -4479.18 -26391.5)
(2682.09 359.063 43194.2 741.735 -3219.94 -91113.9)
(3300.06 18.0688 28696 1076.12 -2791.65 -48919.5)
(4082.89 359.897 38793.4 1014.16 -3707.34 -92190)
(3933.52 -488.638 1018.45 1011.04 -121.211 179.867)
(2173.94 -236.64 13918.2 1056.41 -1320.89 -12409.3)
(2386.33 -13.1957 29217.5 960.471 -2245.82 -40302.1)
(-723.804 -182.378 22077.2 751.239 -1862.62 -3891.83)
(1855.67 -186.179 16990.9 1023.3 -1264.38 -14299)
(3186.51 -22.055 27163.7 1080.29 -2643.54 -43792.4)
(2303.06 -221.394 15683.9 1067.94 -1492.89 -15383.8)
(3530.6 -531.864 1087.93 963.31 -110.265 161.327)
(-1006.21 -197.596 17762 762.508 -1498.44 -2451.21)
(1754.07 -197.995 15125.5 1016.5 -1120.77 -11565.6)
(-22464.8 -399.405 45849.3 -14942.7 3112.93 -803361)
(-1799.13 477.525 95224.7 577.908 2481.18 -331427)
(-8022.6 -162.636 30042.2 -5543.19 1773.29 -244774)
(-9627.34 -184.462 32091.4 -6558.93 1931.11 -287057)
(-1115.09 407.547 81001.4 1089.76 1603.3 -199496)
(-733.066 -1550.21 79802.7 5054.43 3774.4 -124752)
(-1049.94 380.577 77655.7 1092.56 1415.76 -178450)
(-15748.3 -272.685 39084.5 -10485.7 2503.83 -480065)
(-14295.9 -250.555 37515.3 -9545.52 2366.35 -428566)
(-538.43 224.792 62005.2 1229.4 769.819 -102722)
(-876.77 -993.66 66912.3 3815.51 2909.1 -80896.5)
(-624.932 267.947 66317.8 1246.1 926.983 -120111)
(3756.87 5.70716 22.8955 799.222 57.4542 212.289)
(2552.63 -28.2155 3013.53 970.503 204.55 -3319.13)
(248.222 -15.3188 33378.6 1295 220.641 -27099.3)
(-736.726 -133.909 29087.5 1492.58 1110.22 -13097.3)
(251.126 -49.8507 27631.3 1263.84 195.003 -18548.4)
(60.3933 -86.6617 16256.8 -494.348 897.237 -61683.2)
(1023.87 -80.4992 13362.3 120.975 747.585 -40836.6)
(4.02193 -255.801 1429.24 1138.98 42.3371 87.6797)
(-2098.46 30.8387 7642.88 756.435 347.25 -875.121)
(-376.065 -91.3787 8915.4 1128.71 94.0598 -1995.31)
(20580.3 -459.899 46986.1 11405.1 -4225.88 -764174)
(1011.07 952.113 97699.1 -2682.85 -5113.59 -300118)
(-22143.6 -391.313 45545.2 -14724.5 3086.39 -783129)
(-21128.1 -368.294 44568 -14035.9 2998.51 -723217)
(-596.495 -1921.18 86182.6 5762 4268.15 -153463)
(-1211.25 417.114 82002.9 1020.33 1649.86 -206796)
(-1270.83 436.527 85033 1007.04 1836.89 -228807)
(-1700.27 476.739 94650.6 670.627 2455.43 -323113)
(-281.73 -2581.14 94623.6 6827.36 4988.5 -203997)
(-1663.87 475.038 92522.4 709.881 2302.05 -298867)
(-16217 -279.667 39581.9 -10790.8 2547.92 -497661)
(-17569.1 -303.132 40994.9 -11672.5 2674.29 -551653)
(20414.7 -450.119 46653.8 11328.3 -4202.92 -744379)
(19866.5 -419.413 45592.1 11062.5 -4130.9 -685874)
(2455.31 1263.21 89903.9 -1968.23 -6717.25 -103604)
(867.619 692.027 83935 -1472.91 -4881.36 -182755)
(935.053 750.627 87020.3 -1673.68 -4936.55 -203144)
(1041.12 942.157 97049.8 -2571.02 -5092.63 -292166)
(3417.98 1803.27 99051.4 -2326.05 -7096.61 -145043)
(975.178 898.102 94834.1 -2392.41 -5073.39 -269023)
(16807 -316.83 40293.7 9423.9 -3775.65 -467574)
(17704.2 -341.605 41779.1 9920.41 -3876.76 -519517)
(10897 -211.541 30464.5 6004.38 -3027.76 -227591)
(12095.1 -228.643 32553.3 6712.35 -3195.67 -267306)
(890.514 674.252 82883.6 -1361.21 -4848.09 -176047)
(1875.4 970.341 83191.6 -1635.83 -6393.09 -81630.5)
(820.305 610.007 79488.3 -1157.94 -4768.86 -156769)
(16489.3 -309.832 39773.5 9246.34 -3739.86 -450696)
(15480.6 -287.121 38140.6 8674.7 -3625.75 -401445)
(672.895 328.163 63541.3 -222.821 -4169.77 -88858.2)
(949.814 537.447 69813.5 -928.289 -5617.37 -50398.4)
(732.639 404.085 67916.6 -425.969 -4355.81 -104258)
(-7489.97 -156.597 29332.5 -5209.54 1720.79 -231278)
(-5900.66 -142.686 27129.7 -4206.4 1563.99 -192658)
(-788.244 -304.866 40548.4 2005.8 1559.7 -26526)
(195.293 -0.89927 35236 1275.16 232.355 -30339.8)
(105.31 40.4512 40743.5 1301.48 298.278 -40905.6)
(-451.496 208.484 60551.9 1273.56 730.025 -97077.9)
(-899.642 -704.674 57832.2 3084.17 2390.39 -57796.8)
(-355.751 163.127 55921.3 1252.33 595.669 -81181.3)
(-311.61 -89.1897 17180.2 -727.761 948.373 -69474.7)
(-1541.2 -100.798 19848.7 -1492.49 1106.3 -95256.2)
(10497.2 -208.326 29742 5767.81 -2967.89 -214951)
(9296.72 -199.524 27501.8 5046.21 -2774.37 -178904)
(-136.786 6.98139 42433.3 276.633 -3611.9 -15636.2)
(624.242 -37.6754 36173.5 794.898 -2574.25 -26137.3)
(647.889 27.5507 41812.2 654.702 -2948.18 -35165.4)
(687.623 304.665 62045.7 -125.89 -4094.26 -83900.3)
(460.865 311.949 60400.4 -458.533 -4981.55 -35101)
(641.596 228.242 57337.7 67.5226 -3859.63 -69971.6)
(5040.43 -172.047 17386 2454.93 -1810.8 -64786.9)
(5995.05 -178.601 20093 3040.23 -2076 -88541.3)
(-3314.46 -98.8963 7527.34 817.076 62.0016 -275.424)
(-3352.78 -144.153 7797.72 672.885 -615.429 120.9)
(3378.84 -131.235 97.6174 446.93 -16.6712 132.066)
(2394.88 -88.6126 3049.88 831.971 -315.418 -3432.42)
(627.165 -56.6233 34262.5 852.517 -2438.39 -23380.5)
(-406.387 -133.074 30439.2 612.202 -2594.54 -7686.1)
(538.103 -106.572 28365.2 957.434 -2003.73 -16081.8)
(4743.79 -170.532 16448.4 2274.59 -1715.32 -57616.8)
(3922.1 -161.701 13511.9 1785.93 -1406.22 -38422.5)
(104.935 -385.29 1509.44 1071.18 -144.577 73.2113)
(-1991.7 -255.701 8127.28 692.488 -734.028 -388.14)
(-251.817 -155.412 9226.67 1051.48 -627.264 -1753.44)
(-12719.1 -1308.88 54430.2 -9879.38 3665.73 -746988)
(-1604.18 332.967 92758.1 1308.15 2685.82 -381208)
(-11741.6 -214.241 34635.3 -7905.24 2129.56 -347374)
(-10160.6 -192.131 32749.1 -6898.96 1980.82 -301726)
(-4281.5 -432.646 35547.4 -3476.87 2055.99 -228402)
(-2813.7 -33.4162 51965.5 1393 2849.54 -214262)
(-5278.9 -501.518 37986.7 -4176.81 2240.98 -267664)
(-6578.66 -600.902 41019.3 -5101.99 2478.45 -323672)
(-3032.98 -44.5688 53041.7 1404.66 2926.19 -225071)
(-5608.2 -525.402 38769.7 -4409.53 2301.49 -281286)
(-972.435 295.445 78855.5 1461.09 1820.46 -229217)
(-1594.41 504.901 66118 2733.94 2113.59 -284653)
(-861.517 275.859 75626.4 1444.23 1647.56 -204940)
(-772.59 -1431.45 77449 4809.42 3603.6 -115536)
(-883.715 335.227 72875.4 1151.51 1187.86 -151539)
(-956.248 368.737 76541.5 1155.28 1368.82 -171498)
(-1488.53 497.067 65133.9 2682.61 2057.58 -273641)
(-678.904 242.29 70968.5 1437.81 1418.49 -174014)
(-799.478 267.012 74511.9 1460.23 1588.66 -197017)
(-12263.4 -221.45 35238.6 -8240.11 2178.02 -363119)
(-13797.7 -243.231 36963.7 -9225.68 2320.8 -411847)
(-8983.46 -811.593 46333.7 -6869.12 2927.44 -446876)
(-4744.2 -173.564 60880.5 1492.43 3528.77 -318449)
(-8122.33 -729.944 44457.1 -6226.76 2762.93 -399059)
(-6896.12 -625.96 41738.4 -5330.51 2536.18 -338291)
(-4537.86 -153.401 59974 1481.38 3457.13 -306150)
(-7824.12 -703.193 43799.1 -6007.24 2707.06 -383537)
(-287.001 156.802 60381 1398.45 987.162 -117984)
(-606.398 404.226 56438.3 2274.81 1599.35 -191456)
(-423.11 190.582 64558 1431.15 1142.66 -137992)
(-859.231 -1097.21 69719.1 4063.59 3084.43 -89186.8)
(-792.203 321.619 71648.1 1208.04 1142.43 -144978)
(-714.277 283.114 67658.9 1195.92 970.963 -126237)
(-718.31 418.459 57606.6 2325.62 1655.6 -201115)
(-615.647 231.851 69747.2 1450.48 1362.04 -166543)
(-488.731 202.194 65887.4 1421.28 1197.06 -144963)
(2028.71 -65.0416 7945.56 797.795 465.246 -15124.7)
(2391.23 -46.4529 4275.64 965.968 271.185 -5500.89)
(3889.42 -68.1474 392.21 806.537 63.6047 126.937)
(1946.12 72.3812 6169.16 961.505 342.919 -3362.82)
(2337.3 -32.3154 3865.18 960.929 256.677 -3594.08)
(1934.71 -72.943 9514.9 875.6 541.781 -15013.9)
(1779.31 60.3441 8051.42 1017.99 426.884 -5315.93)
(2176.83 -46.9466 5312.95 977.856 327.754 -5759.54)
(572.755 -37.3227 32512.8 1263.85 351.74 -31326.1)
(1573.88 26.2319 23521.1 1295.33 529.905 -29608.3)
(590.199 -67.8124 26919.5 1222.23 305.738 -21468.7)
(-786.535 -83.1997 25119 1348.58 964.732 -9628.72)
(86.595 -72.8305 19698.1 1235.31 160.103 -9500.33)
(252.887 -58.4871 25691.9 1274.54 189.655 -16002.1)
(1582.25 13.8599 21823.6 1262.22 500.473 -25577.5)
(423.697 -86.3812 19153.9 1166.68 241.808 -11043.8)
(577.101 -75.3192 25014.9 1215.41 292.938 -18562)
(1884.45 -68.0137 9102.94 697.039 529.909 -19320.7)
(1284.22 -78.3301 12345.6 290.017 699.223 -34768.6)
(816.013 -142.834 19202.8 4.11266 1030.4 -58437.1)
(1514.93 45.7968 21632.9 1183.19 1076.16 -32688)
(1400.22 -110.722 15801.7 425.881 858.918 -39068.2)
(1867.28 -78.9717 10847.6 813.802 612.335 -18971.8)
(1585.73 45.3911 20054.8 1172.02 1005.4 -28163.6)
(1551.39 -101.453 14612.9 542.567 801.722 -33417.2)
(1056.38 -231.381 1371.9 1110.95 51.8596 140.362)
(1581.93 -19.1346 6991.28 948.701 197.463 -3211.26)
(76.951 -100.062 8583.39 1000.09 140.443 -2396.11)
(-1414.92 -1.13961 12656.2 1039.74 469.667 -2216.51)
(14.2545 -75.7203 17656.1 1232.04 147.981 -7648.96)
(-289.321 -89.2742 11225.6 1150.87 106.728 -3172.38)
(1453.12 -21.349 9012.36 1014.77 234.372 -5014.51)
(349.265 -89.0894 17143.1 1151.04 221.38 -8918.41)
(117.062 -96.769 10843.1 1052.56 156.615 -3738.16)
(16971.2 294.539 56079.8 8308.15 -5040.24 -709270)
(2303.52 707.089 95129.2 -1824.19 -5160.79 -350925)
(-12554.2 -1277.02 54066.9 -9734.06 3633.52 -728210)
(-7617.08 -651.86 72536.5 1690.17 4534.74 -534788)
(-12020.9 -1185.23 52897.2 -9273.85 3526.87 -672601)
(-19641.5 -338.105 43100.2 -13041.4 2863.59 -645334)
(-20772.3 -360.407 44217.6 -13797.7 2967.54 -703524)
(-7464.08 -613.111 71958.8 1677.37 4483.98 -520353)
(-11211 -1066.16 51139.2 -8603.33 3362.23 -600303)
(-11830.5 -1154.71 52478.5 -9113.59 3488.32 -654321)
(-542.426 -2049.51 88087.6 5987.63 4424.98 -163336)
(-1420.25 457.693 88643.9 910.195 2060.79 -259274)
(-1368.33 444.004 85923.7 931.392 1880.35 -236414)
(-1034.18 301.857 79863.2 1440.81 1879.96 -237544)
(-2303.42 529.02 72364.3 3086.46 2505.09 -365739)
(-1136.06 314.274 82782.3 1448.89 2048.48 -262955)
(-1287.5 327.39 86300.1 1425.56 2264.88 -298056)
(-2398.77 528.335 73167.5 3136 2556.23 -377847)
(-1195.4 319.018 83685.4 1425.01 2105.91 -271640)
(-1552.85 333.562 92153.5 1342.94 2642.24 -371694)
(-3111.21 486.832 78804.2 3517.17 2940.24 -478744)
(-1481.88 335.667 90121.1 1358.53 2514.41 -343630)
(-353.481 -2445.61 93148 6626.7 4857.81 -193681)
(-1518.94 463.266 89426.1 828.522 2099.67 -267151)
(-1564.62 471.425 91845.5 797.062 2268.95 -290755)
(-3027.98 495.779 78173.6 3470.66 2896.96 -465773)
(-1344.92 330.592 87100.7 1397.78 2318.93 -307057)
(-1427.23 333.827 89419.5 1389.6 2464.68 -334355)
(-19246.6 -330.939 42703.1 -12780.3 2827.17 -626255)
(-18002.6 -310.307 41442.3 -11958 2712.99 -570035)
(-9257.97 -838.984 46928.5 -7076.47 2980.66 -463212)
(-6107.5 -346.623 66626.3 1576.59 4013.55 -408920)
(-10043.1 -923.169 48619.3 -7677.5 3132.45 -513339)
(-10992.3 -1036.91 50664 -8426.92 3317.21 -582594)
(-6288.64 -375.889 67364.5 1589.95 4075.97 -422418)
(-10291.4 -951.175 49153.9 -7870.7 3180.46 -530404)
(16790.6 282.373 55686.4 8249.48 -5013.29 -690910)
(8381.44 2725.18 74923.7 749.497 -6343.4 -496998)
(16220.3 245.409 54427.9 8048.97 -4929.75 -636650)
(19005.8 -382.31 44015.9 10620.8 -4027.62 -610121)
(19666.7 -410.368 45214.4 10963.3 -4105.4 -666683)
(8305.35 2663.31 74310.1 747.623 -6306.84 -483071)
(15388 195.788 52561.2 7725.34 -4810.36 -566401)
(16019.9 233.151 53981.3 7974.86 -4900.85 -618853)
(2649.85 1366.95 91929.3 -2059.94 -6806.47 -111432)
(972.9 820.784 90751.3 -1979.29 -5002.02 -231615)
(908.924 767.013 87966.9 -1786.25 -4964.18 -210212)
(1879.81 511.037 81736.5 -958.01 -4866.12 -214288)
(3666.1 1712.43 73995.6 112.791 -4788.58 -343338)
(1973.52 552.454 84724.4 -1120.04 -4937.09 -238120)
(2079.61 605.773 88353.4 -1343.4 -5018.5 -271292)
(3694.06 1758.4 74820.3 101.778 -4817.99 -354993)
(1994.59 568.199 85660.3 -1188.16 -4964.15 -246294)
(2285.07 696.071 94477.8 -1761.38 -5140.3 -341752)
(3875.81 2101.76 80644.1 57.4588 -5006.06 -452728)
(2199.55 667.548 92342.4 -1622.66 -5105.04 -314764)
(3226.56 1691.52 97417.3 -2274.22 -7032.84 -136312)
(943.855 835.558 91594.9 -2092.22 -5026.04 -239011)
(1006.09 885.416 94089 -2280.25 -5051.85 -261333)
(3855.57 2061.62 79986.4 57.9202 -4985.36 -440108)
(2098.82 620.348 89190.9 -1409.86 -5042.08 -279837)
(2183.27 654.335 91599.9 -1557.86 -5084.16 -305886)
(18766.7 -374.614 43592.5 10495.4 -3999.63 -591620)
(17985.7 -350.508 42251.6 10075.4 -3910.05 -537246)
(13447.3 103.304 48150.5 6872.13 -4516.39 -434237)
(7600.69 2148.13 68732.3 767.785 -5972.04 -376381)
(14216.9 136.397 49911.5 7223.33 -4635.19 -482391)
(15165.6 183.364 52059.7 7634.04 -4777.18 -549246)
(7699.49 2214.08 69498.2 762.626 -6019.48 -389222)
(14462.4 147.93 50470.2 7332.56 -4672.75 -498830)
(13650.1 -253.698 35163.6 7619.73 -3402.41 -324270)
(12491.2 -235.913 33226.5 6946.24 -3250.55 -281126)
(8742.79 -40.8341 36463.8 4496.22 -3630.77 -211840)
(5639.49 1093.45 53684.4 887.884 -4944.22 -194223)
(9661.98 -16.674 38952.8 4984.01 -3832.68 -248632)
(10878.7 15.2812 42058.7 5612.31 -4076.63 -301414)
(5773.88 1159.23 54786.7 876.41 -5027.06 -204178)
(9967.74 -8.75913 39752.9 5144.33 -3896.18 -261438)
(1859.36 494.172 80699.5 -887.783 -4833.47 -206523)
(3437.85 1377.75 67622.8 222.2 -4550.13 -265743)
(1761.8 447.371 77408.6 -721.408 -4740.11 -183969)
(1688.36 879.956 80742.5 -1505.39 -6263.55 -74828.8)
(769.018 520.578 74612.5 -840.589 -4616.37 -132376)
(839.636 590.172 78327.5 -1048.37 -4727.34 -150453)
(3399.86 1328 66620.1 241.313 -4507.58 -255272)
(1637.77 377.016 72663.3 -480.1 -4576.1 -155484)
(1739.57 428.664 76266.8 -650.806 -4699.44 -176649)
(14029.5 -261.071 35785.1 7841.12 -3450.67 -339189)
(15129.4 -281.079 37569.5 8475.07 -3583.74 -385505)
(13179.4 92.5439 47533.7 6747.04 -4474.28 -418590)
(6816.67 1686.59 62811.6 808.471 -5595.17 -290981)
(12345.9 62.9291 45595.1 6346.04 -4339.45 -372938)
(11178.2 24.1724 42797.1 5765.07 -4133.92 -315241)
(6691.56 1620.95 61882 813.775 -5532.23 -279468)
(12059.3 53.0466 44918 6206 -4291.04 -358164)
(1403.07 223.126 61889.1 -0.927075 -4114.31 -104594)
(3083.02 917.427 57784.2 432.141 -4091.06 -177651)
(1494.01 281.684 66135.7 -170.333 -4307.56 -122659)
(1130.22 619.645 72713.9 -1079.66 -5798.43 -56081.2)
(785.661 499.31 73341.9 -733.798 -4564.3 -126482)
(718.459 426.916 69300.4 -528.589 -4418.12 -109699)
(3123.4 969.59 58973 405.549 -4151.71 -186723)
(1614.97 357.199 71414.9 -409.716 -4524.88 -148647)
(1519.13 302.571 67493.1 -238.706 -4368.58 -128977)
(-3948.54 -410.53 34703.2 -3245.21 1994.07 -215869)
(-1273.51 18.912 43850.7 1325.09 2299.13 -144673)
(-2954.16 -350.703 32084.1 -2555.53 1811.5 -180012)
(-3864.05 -124.785 24018.6 -2933.58 1364.24 -145807)
(-5382.51 -138.587 26368.9 -3883.54 1514.87 -180438)
(-1058.19 23.5556 42611 1316.31 2223.65 -135663)
(-1669.89 -279.522 28390.8 -1677.92 1575.31 -136518)
(-2627.44 -331.914 31180.6 -2331.18 1752.19 -168665)
(-826.674 -372.662 44208.9 2200.36 1720.8 -31956)
(-81.2937 92.8899 47748.8 1300.22 420.389 -57284.8)
(30.4398 54.6082 42511.8 1275.48 322.278 -44811.1)
(532.972 -24.1372 34333.6 1265.63 372.01 -35014.3)
(1134.19 133.585 34739.5 1545.53 791.108 -65362.8)
(414.727 10.2437 39680 1303.21 456.956 -47169.9)
(205.661 51.4804 46492.2 1339.95 601.177 -65946.9)
(1039.4 149.815 36255.9 1585.8 836.254 -71505.8)
(353.367 21.5525 41414.5 1302.66 489.943 -51610.3)
(-221.938 143.439 58945.8 1405.07 937.606 -111567)
(184.385 286.745 47628.9 1932.13 1219.39 -129334)
(-78.1749 106.746 54459.2 1369.2 800.813 -93288.2)
(-894.922 -614.913 54583.5 2850.55 2220.35 -50759)
(-163.806 106.712 49418.1 1267.97 449.182 -61815.7)
(-271.164 147.438 54358.3 1290.15 562.645 -76070.3)
(295.842 268.563 46281.9 1885.44 1171.04 -121299)
(138.58 62.1661 48131.7 1337.53 638.626 -71095.4)
(-12.7065 94.0896 52920.1 1373.27 758.805 -87478.8)
(-3378.55 -119.76 23209.4 -2633.39 1314.12 -134968)
(-1982.73 -105.825 20710.8 -1766.96 1158.17 -104624)
(585.258 -155.588 20291.6 -155.59 1089.41 -65670.2)
(539.663 45.6185 31990.9 1249.78 1600.46 -72875.4)
(-193.544 -197.742 23446.6 -685.029 1271.58 -89599)
(-1361.44 -262.126 27431.1 -1469.66 1516.19 -126456)
(357.34 44.5187 33387.3 1260.11 1678.18 -79779)
(-474.134 -213.033 24466.9 -873.317 1333.6 -98293.9)
(8437.98 -48.8517 35602.4 4332.4 -3558.63 -200133)
(4699 650.441 45378.5 962.15 -4282.59 -130650)
(7536.91 -74.23 32927.4 3838.33 -3325.3 -166746)
(7757.12 -190.929 24334.1 4114.37 -2479.95 -135344)
(8904.95 -198.619 26727.2 4811.52 -2703.36 -167521)
(4569.2 590.566 44101.9 971.492 -4173 -122480)
(6395.75 -108.565 29141.9 3202.08 -2974.63 -126409)
(7244.37 -83.1513 32003.2 3677.04 -3241.58 -156204)
(-37.412 64.0233 46240.1 143.06 -3917.14 -18905.7)
(646.155 114.008 48978.2 420.763 -3384.44 -49241.9)
(632.115 48.307 43630.7 583.838 -3064.48 -38505.6)
(1111.4 -76.1699 35261.9 805.315 -2528.13 -31009)
(2534.75 140.358 35651.7 873.537 -2713.65 -60511.3)
(1168.71 -23.5196 40740.3 688.283 -2895.47 -41657.2)
(1222.71 46.1164 47710.4 500.933 -3326.47 -58197.1)
(2564.63 182.245 37206.1 848.398 -2820.94 -66164)
(1180.3 -4.90014 42518.9 638.403 -3009.02 -45557)
(1384.25 201.15 60423 65.8273 -4040.2 -98830.2)
(2812.43 555.084 48825.9 628.84 -3584.38 -119654)
(1307.96 141.157 55852.9 228.411 -3800.65 -82475)
(320.457 245.561 57032.2 -301.375 -4738.43 -30595)
(628.904 134.972 50694.3 339.7 -3488.16 -53149)
(657.882 205.557 55728.7 157.504 -3768.7 -65524.9)
(2777.22 504.944 47449.7 657.186 -3497.4 -112193)
(1234.8 64.9922 49389.9 444.115 -3428.43 -62751.2)
(1293.96 120.208 54277.6 291.483 -3711.19 -77298.9)
(7390.41 -189.2 23510.3 3892.91 -2401.83 -125285)
(6332.83 -182.171 20968.8 3248.95 -2160.89 -97192.6)
(4387.94 -155.741 20828 2063.5 -2171.92 -61114.2)
(3632.73 154.035 33151.6 1052.95 -3204.88 -65897.4)
(5096.35 -140.89 24067.2 2466.63 -2491.76 -83091.1)
(6124.17 -116.016 28156.8 3049.87 -2880.65 -117097)
(3742.36 203.99 34594.6 1041.81 -3335.42 -72083.9)
(5344.4 -135.152 25113.9 2608.87 -2591.75 -91097.3)
(2815.26 -125.107 8022.64 1186.22 -831.238 -14575.4)
(2406.97 -101.317 4314.84 917.619 -448.672 -5540.38)
(3756.42 -243.295 456.137 699.162 -62.5184 122.174)
(2076.22 -301.979 6497.17 933.589 -607.936 -3279.73)
(2337.58 -131.643 4004.18 905.891 -425.638 -3633.87)
(2602.76 -148.87 9750.91 1171.32 -1010.6 -14431.6)
(1969.86 -275.228 8417.09 982.65 -786.178 -5127.81)
(2294.87 -132.204 5466.21 974.668 -573.191 -5730.07)
(1091 -93.8548 33390.5 846.127 -2394.84 -27782.6)
(2213.99 -106.703 24141.8 1004.97 -1839.23 -27694.6)
(966.227 -133.306 27645.7 931.301 -1966.31 -19149.7)
(-535.615 -162.448 26291.3 688.122 -2232.66 -5645.67)
(265.175 -132.125 20227.4 1058.94 -1402.55 -8307.91)
(502.464 -116.528 26369.2 999.16 -1854.73 -13903.6)
(2138.24 -131.794 22395.2 1015.28 -1696.39 -23978.4)
(646.407 -149.34 19676.9 999.97 -1371.89 -9952.8)
(909.749 -141.901 25686.2 959.023 -1818.67 -16593.2)
(3011.42 -134.128 9193.36 1291.48 -949.749 -18480.8)
(3676.08 -157.574 12479.1 1647.84 -1293.88 -32812.4)
(4164.16 -159.299 19708.2 1938.57 -2057.22 -54479.1)
(2832.55 -128.879 22417.8 1089.72 -2169.02 -30006.8)
(3530.01 -164.957 16207.9 1598.76 -1687.75 -36698.7)
(2771.39 -154.389 11115.8 1247.11 -1150.1 -18115.8)
(2705.28 -157.082 20779.3 1088.13 -2001.59 -25946.7)
(3331.5 -164.542 14984.1 1501.06 -1556.2 -31490.8)
(1171.95 -428.835 1455.27 1060.08 -140.876 130.318)
(1710.62 -252.875 7251.98 904.424 -518.846 -3112.89)
(206.965 -166.282 8896.52 927.369 -611.041 -2195.36)
(-1336.71 -178.133 13324.2 837.488 -1093.51 -1222.87)
(167.808 -132.288 18136.9 1076.26 -1252.81 -6705.4)
(-165.653 -135.925 11580.2 1055.82 -784.941 -2798.64)
(1605.15 -229.488 9305.77 956.967 -670.406 -4834.61)
(543.978 -148.796 17617.5 1008.56 -1223.97 -8059.63)
(256.591 -150.621 11196.1 965.275 -765.321 -3418.04)
(-18536 -756.545 23298.2 -9039.64 2320.2 -920152)
(-18865.1 -716.4 23445 -9145.14 2332.77 -943755)
(-6082.86 -867.762 15350.4 -3558.33 1573.96 -276042)
(-6498.39 -893.979 15702.5 -3778.8 1608.59 -291854)
(-12306.8 -1090.6 19905.6 -6603.1 2012.39 -546379)
(-11903.7 -1088.88 19648.7 -6422.19 1988.76 -526352)
(1252.21 64.215 -120.661 391.344 25.6269 290.481)
(1582.39 -109.788 28.9748 506.296 72.2377 176.232)
(6.22653 -368.457 8333.85 -281.418 876.531 -66674.2)
(266.589 -344.5 7847.44 -141.561 829.135 -58255.1)
(5262.12 -6674.56 23561.6 10805.3 -2187.07 -904029)
(5192.32 -6797.01 23722 10918.8 -2203.69 -927455)
(-18206.5 -792.968 23144.9 -8933 2307.12 -896699)
(-17871.3 -828.429 22987.4 -8820.46 2292.98 -873401)
(-12706.8 -1088.92 20155.5 -6782.3 2035.89 -566660)
(-13102.1 -1085.39 20398.6 -6954.16 2058.23 -587184)
(5325.32 -6552.56 23393.8 10692.3 -2170.89 -880756)
(5384.72 -6428.71 23221.3 10575.5 -2152.8 -857645)
(5576.95 -4597.31 20184.5 8472.57 -1857.81 -554281)
(5605.45 -4734.29 20441.6 8654.85 -1882.88 -574517)
(4380.2 -2380.93 15229.7 5163.81 -1394.56 -268968)
(4489.83 -2516.58 15587.5 5393.72 -1427.94 -284421)
(5541.16 -4460.71 19921.3 8289.36 -1832.91 -534295)
(5500.36 -4321.53 19651.6 8102.87 -1806.55 -514568)
(-5674.28 -839.723 14991 -3349.73 1539.54 -260587)
(-5261.52 -810.75 14625.7 -3126.33 1503.4 -245484)
(-271.811 -393.984 8808.14 -436.312 924.605 -75572.5)
(-560.971 -421.256 9271.59 -592.443 970.622 -84934.7)
(4271.97 -2247.03 14866.2 4950.89 -1361.3 -253861)
(4157.78 -2112.98 14497 4722.94 -1326.89 -239119)
(2612.41 -504.628 8683.25 1924.55 -801.088 -73652.9)
(2716.27 -599.272 9143.35 2101.59 -843.331 -82745.6)
(-4093.24 -67.9139 3807.02 743.818 -294.73 -61.9741)
(-4350.23 -122.063 1667.46 673.233 -149.056 113.916)
(-4006.45 -107.413 3917.53 544.294 -377.958 53.3524)
(1070.28 44.8435 -162.615 425.634 47.578 263.936)
(1336.38 93.7746 -14.464 503.483 -48.5196 138.069)
(2515.09 -413.384 8213 1763.04 -760.101 -65010.8)
(2421.18 -327.102 7731.71 1607.95 -715.746 -56831.5)
(-1963.81 -198.647 4094.86 660.852 -499.766 40.2624)
(-2048.8 -262.488 1614.82 960.566 -149.738 44.5454)
(-2534.23 -71.8303 3844.06 1040.49 -292.338 127.048)
(-3282.23 -183.485 1670.04 667.223 -163.461 88.4328)
(-2158.79 -121.957 3849.19 799.744 -339.429 -236.645)
(-2719.8 -174.954 3965.43 732.28 -405.893 123.92)
(-2066.47 -133.842 1760.75 700.847 -212.529 83.7743)
(-11963.9 -1782.11 68626.2 -4768.88 4967.36 -646423)
(-8330.79 -860.334 75132.4 1755.26 4763.55 -608409)
(-11876.1 246.674 74222.8 -2476.15 10581 -598150)
(-12034.6 284.348 74693 -2523.3 10649.3 -612936)
(-12133.7 -1849.65 69065.8 -4841.04 5009.33 -662653)
(-9242.86 -459.225 84522.4 -2142.72 9686.1 -517297)
(-2326.04 817.801 85804.8 1909.9 2873.83 -480925)
(-3502.29 423.781 81644.3 3741.67 3134.8 -544928)
(-8984.91 -1327.33 79654.7 -2837.72 9891.88 -553059)
(-9108.82 -1346.07 80159.4 -2916.12 9959.07 -566681)
(-2375.47 819.687 86362.6 1910.8 2909.68 -493033)
(-9107.52 -454.885 83991.2 -2095.44 9618.27 -504939)
(-9002.46 -1021.06 17668.4 -5038.34 1799.21 -393727)
(-8585.54 -1003.21 17357 -4834.82 1770.21 -375949)
(-3804.62 -324.361 44708.9 -1335.82 2802.56 -199249)
(-2371.6 -13.4638 49750.1 1374.19 2690.02 -193269)
(-4058.69 -260.753 48274.9 -413.83 6758.09 -186641)
(-4363.04 -265.251 49413.1 -491.42 6922.42 -196971)
(-4115.52 -348.344 45757.6 -1465.31 2884.49 -210343)
(-6141.51 -269.232 55804.4 -936.927 7853.28 -263205)
(-5950.94 -520.453 51635.2 -2230.97 3370.04 -281675)
(-3471.24 -71.2101 55128.8 1425.36 3082.36 -247293)
(-5852.36 -271.522 54793 -864.825 7705.47 -251684)
(-5650.48 -488.227 50704.3 -2105.85 3292.08 -269245)
(-6050.34 -349.861 70499.3 -1080.86 7877.97 -295633)
(-1260.7 656.129 72911.3 1807.25 2062.73 -288433)
(-6238.36 -960.736 67751.9 -1480.39 8272.32 -334771)
(-1802.96 516.324 68015.8 2836.51 2228.83 -307127)
(-6039.3 -935.728 66849.9 -1399.91 8151.14 -322916)
(-6253.35 -358.73 71450.9 -1146.62 7996.92 -306444)
(-1188.25 640.38 71943.1 1794.48 2006.58 -278077)
(-5007.89 -312.051 65375.4 -756.243 7238.63 -243448)
(-4767.92 -779.215 60952.6 -911.523 7367.81 -254740)
(-1272.49 478.064 63099.6 2580.19 1940.63 -252083)
(-728.106 537.146 65627.4 1709.05 1669.64 -218756)
(-4987.83 -805.932 61992.8 -993.065 7503.67 -265727)
(-4794.76 -307.156 64278 -692.016 7105.22 -233416)
(-806.605 555.306 66741.6 1724.97 1724.78 -228287)
(-9424.4 -1035.88 17972.1 -5249.94 1829.27 -411816)
(-9838.07 -1049.86 18268.8 -5444.32 1857.51 -430196)
(-8232.45 -826.528 58371.6 -3191.36 3973.34 -388070)
(-8339.14 -203.904 63131.1 -1506.88 8932.77 -361512)
(-5148.9 -216.855 62627 1517.31 3674.04 -343539)
(-8084.72 -216.194 62289.8 -1441.16 8808.62 -348679)
(-7963.08 -783.295 57597.5 -3078.16 3901.2 -374144)
(-6428.67 -267.987 56794.6 -1011.53 7997.5 -274910)
(-6250.66 -554.006 52546.6 -2356.6 3446.98 -294311)
(-4117.89 -117.478 58101.3 1458.15 3306.95 -282064)
(-6719.36 -260.712 57764.6 -1086.49 8139.34 -286794)
(-6546.36 -588.996 53438 -2481.31 3524.65 -307147)
(-3240.16 -247.335 55919 -224.117 6099.57 -167496)
(-73.6605 373.726 55840.4 1571.63 1233.2 -148242)
(-379.502 372.69 54034.3 2175.26 1485.44 -172703)
(-2946.61 -561.13 51810 -285.722 6186.69 -173084)