/*--------------------------------*- C++ -*----------------------------------*\
| =========                 |                                                 |
| \\      /  F ield         | OpenFOAM: The Open Source CFD Toolbox           |
|  \\    /   O peration     | Version:  2012                                  |
|   \\  /    A nd           | Website:  www.openfoam.com                      |
|    \\/     M anipulation  |                                                 |
\*---------------------------------------------------------------------------*/
FoamFile
{
    version     2.0;
    format      ascii;
    class       volVectorField;
    location    "0.107/solid";
    object      sigmaMaxDir;
}
// * * * * * * * * * * * * * * * * * * * * * * * * * * * * * * * * * * * * * //

dimensions      [1 -1 -2 0 0 0 0];


internalField   nonuniform List<vector> 
3125
(
(-0.349179 -0.0219522 0.936799)
(-0.429379 -0.0239501 0.902807)
(-0.504598 -0.0246698 0.863002)
(-0.615855 -0.0247941 0.787469)
(0.923433 0.0674254 -0.377791)
(-0.427908 0.0352664 0.903134)
(-0.419607 -0.0237931 0.907394)
(-0.357278 -0.0222399 0.933733)
(-0.504801 0.0431402 0.862157)
(-0.437349 0.036188 0.898563)
(-0.514442 0.044171 0.856387)
(-0.579733 0.050704 0.813227)
(-0.602977 -0.0246941 0.797376)
(-0.516299 -0.0247177 0.856052)
(-0.646178 0.053772 0.76129)
(-0.588579 0.0514699 0.8068)
(0.948674 0.0542792 -0.311562)
(0.948485 0.0314756 -0.315256)
(-0.653876 0.053261 0.754724)
(0.922378 0.0367601 -0.384535)
(-0.124553 -0.00791646 0.992181)
(-0.148465 -0.00548014 0.988902)
(-0.24397 -0.0128809 0.969697)
(-0.205862 -0.0114263 0.978514)
(-0.203838 -0.00634598 0.978984)
(-0.460161 -0.0243374 0.887502)
(-0.235998 -0.00663933 0.971731)
(-0.172629 -0.0101063 0.984935)
(-0.201185 -0.0112386 0.979489)
(-0.282974 -0.00700633 0.959102)
(-0.470903 -0.0244408 0.881846)
(-0.241206 -0.00668553 0.970451)
(-0.234441 -0.0679678 0.969751)
(-0.507004 -0.0257178 0.86156)
(-0.436759 -0.00907476 0.899533)
(-0.656924 -0.024337 0.753564)
(-0.524806 -0.0130577 0.851122)
(-0.396546 -0.0192263 0.917813)
(-0.492382 -0.0248584 0.870024)
(-0.276375 -0.0892161 0.9569)
(-0.673536 -0.023336 0.738786)
(-0.538169 -0.0136972 0.842726)
(-0.133555 0.0120633 0.990968)
(-0.157348 0.0103827 0.987489)
(-0.126789 -0.00803378 0.991897)
(-0.14425 -0.00887472 0.989501)
(-0.391625 -0.0232299 0.919832)
(-0.199789 -0.00630297 0.979819)
(-0.174533 -0.00597049 0.984633)
(-0.15107 -0.00553991 0.988508)
(-0.382738 -0.0230054 0.92357)
(-0.171318 -0.00591839 0.985198)
(-0.169071 -0.00995876 0.985554)
(-0.147036 -0.00900358 0.98909)
(-0.135976 0.0123102 0.990636)
(-0.154952 0.0143098 0.987818)
(-0.475751 0.0400775 0.878666)
(-0.212508 0.0151455 0.977042)
(-0.185367 0.0127294 0.982587)
(-0.160142 0.010607 0.987037)
(-0.466077 0.0390792 0.88388)
(-0.18191 0.0124308 0.983237)
(-0.181988 0.0172699 0.983149)
(-0.157985 0.0146352 0.987333)
(-0.2626 0.0263429 0.964545)
(-0.221881 0.021758 0.974831)
(-0.216849 0.0155438 0.976081)
(-0.543011 0.047154 0.8384)
(-0.251165 0.0187168 0.967763)
(-0.185862 0.0177033 0.982416)
(-0.216839 0.021192 0.975977)
(-0.300478 0.0232899 0.953504)
(-0.552361 0.0481088 0.832216)
(-0.256683 0.0192279 0.966304)
(-0.250307 -0.0131238 0.968078)
(-0.302737 -0.0152709 0.952952)
(-0.565002 -0.0247984 0.824717)
(-0.425292 -0.00878506 0.905013)
(-0.353757 -0.00780897 0.935305)
(-0.289795 -0.00705925 0.957063)
(-0.552596 -0.0248022 0.83308)
(-0.344782 -0.00769366 0.938651)
(-0.384413 -0.018626 0.922973)
(-0.311539 -0.0156415 0.950105)
(-0.269278 0.0270899 0.962681)
(-0.323391 0.0328565 0.945695)
(-0.622465 0.0536282 0.780808)
(-0.441337 0.0348803 0.896663)
(-0.372217 0.0295025 0.927677)
(-0.307531 0.0239411 0.951237)
(-0.614224 0.0532442 0.787333)
(-0.363298 0.0287571 0.931229)
(-0.403488 0.0407581 0.914077)
(-0.33228 0.0337721 0.942576)
(-0.24634 -0.00265731 0.96918)
(-0.516002 0.0459456 0.855354)
(-0.452095 0.035527 0.891262)
(-0.679376 0.0490935 0.732146)
(-0.533097 0.0371521 0.845238)
(-0.414922 0.0417038 0.908901)
(-0.502834 0.0458666 0.863166)
(-0.288025 -0.0424151 0.956683)
(-0.690725 0.0465156 0.72162)
(-0.545263 0.0369504 0.83745)
(-0.0584134 -0.00395761 0.998285)
(-0.258948 -0.0063567 0.96587)
(-0.123945 -0.00732408 0.992262)
(-0.113426 -0.0068251 0.993523)
(-0.33572 -0.00598519 0.941943)
(-0.439403 -0.0240915 0.897967)
(-0.351831 -0.00570719 0.936046)
(-0.0832973 -0.00532463 0.996511)
(-0.0894657 -0.00563262 0.995974)
(-0.426645 -0.00450677 0.904408)
(-0.493129 -0.0246034 0.869608)
(-0.406601 -0.00489098 0.913593)
(-0.00626369 -0.0964316 0.99532)
(-0.388245 -0.035796 0.920861)
(-0.55718 -0.00377524 0.830383)
(-0.628965 -0.0248076 0.777038)
(-0.5822 -0.00473657 0.813032)
(-0.239933 -0.0136728 0.970693)
(-0.280209 -0.0164935 0.959797)
(0.717845 0.0837841 -0.691143)
(0.734339 0.0214766 -0.678443)
(-0.67433 -0.0116318 0.738338)
(-0.059549 0.005384 0.998211)
(-0.283781 0.0158465 0.958758)
(-0.0595322 -0.00402549 0.998218)
(-0.0630998 -0.00423553 0.997998)
(-0.410055 -0.0236214 0.911755)
(-0.330333 -0.00600111 0.943845)
(-0.315418 -0.0062203 0.948932)
(-0.262979 -0.00641757 0.96478)
(-0.36557 -0.022511 0.930512)
(-0.274835 -0.00638818 0.96147)
(-0.0813954 -0.00522773 0.996668)
(-0.0760892 -0.00495206 0.997089)
(-0.0606586 0.00549433 0.998143)
(-0.0641949 0.00585145 0.99792)
(-0.495127 0.0421167 0.867799)
(-0.361715 0.0224318 0.932019)
(-0.345623 0.0209323 0.93814)
(-0.288168 0.0161416 0.957444)
(-0.446864 0.0371315 0.893831)
(-0.301354 0.0172141 0.953357)
(-0.0823253 0.00777889 0.996575)
(-0.0770638 0.00720639 0.997)
(-0.1247 0.0125388 0.992115)
(-0.114188 0.0113337 0.993395)
(-0.367384 0.0229116 0.929787)
(-0.52403 0.0451836 0.8505)
(-0.384463 0.0245443 0.922814)
(-0.0842125 0.0079864 0.996416)
(-0.0903406 0.00866719 0.995873)
(-0.459946 0.0316396 0.887383)
(-0.570735 0.0498936 0.819617)
(-0.440271 0.0297651 0.897372)
(-0.127832 -0.00751161 0.991767)
(-0.140897 -0.00815513 0.989991)
(-0.590212 -0.024698 0.806871)
(-0.548819 -0.00355668 0.835934)
(-0.524606 -0.00345709 0.851338)
(-0.433754 -0.00444952 0.90102)
(-0.528217 -0.0247679 0.848748)
(-0.455106 -0.00410888 0.890428)
(-0.228466 -0.0129628 0.973466)
(-0.198978 -0.0112892 0.979939)
(-0.128584 0.0129832 0.991614)
(-0.141634 0.0144623 0.989813)
(-0.638403 0.0539897 0.767807)
(-0.570335 0.040045 0.820436)
(-0.549609 0.0389861 0.834512)
(-0.466753 0.0322278 0.8838)
(-0.597278 0.0521376 0.800337)
(-0.487028 0.0340506 0.872722)
(-0.22872 0.0241396 0.973193)
(-0.19946 0.0208762 0.979684)
(0.773868 0.0112504 -0.633246)
(0.779328 -0.0265389 -0.626054)
(-0.0283571 0.040618 0.998772)
(-0.391775 0.0457191 0.918925)
(-0.577387 0.0402318 0.815479)
(-0.661732 0.0523116 0.747913)
(-0.59834 0.04015 0.800236)
(-0.240058 0.0253675 0.970427)
(-0.279778 0.0295124 0.959611)
(0.707731 0.0683216 -0.70317)
(0.739776 -0.0302469 -0.672173)
(-0.676816 0.0314556 0.73548)
(-0.0735321 -0.00506247 0.99728)
(-0.225317 -0.00629149 0.974265)
(-0.101588 -0.0062395 0.994807)
(-0.11026 -0.00666686 0.99388)
(-0.152983 -0.00910357 0.988187)
(-0.226391 -0.012218 0.97396)
(-0.140455 -0.00851306 0.99005)
(-0.12625 -0.0078268 0.991968)
(-0.220969 -0.0120047 0.975207)
(-0.136664 -0.00833187 0.990582)
(-0.297712 -0.0064631 0.954634)
(-0.216761 -0.00646793 0.976203)
(-0.313503 -0.00638812 0.949566)
(-0.449658 -0.0242162 0.892873)
(-0.375004 -0.00535437 0.927008)
(-0.357625 -0.00567599 0.933848)
(-0.22134 -0.00651439 0.975175)
(-0.336352 -0.0062463 0.941716)
(-0.319067 -0.00635312 0.947711)
(-0.0989532 -0.00610834 0.995073)
(-0.0916859 -0.00574648 0.995771)
(-0.104089 -0.00673435 0.994545)
(-0.184039 -0.0105626 0.982862)
(-0.111589 -0.00710593 0.993729)
(-0.123071 -0.00767059 0.992368)
(-0.188102 -0.0107285 0.982091)
(-0.114284 -0.00723916 0.993422)
(-0.38859 -0.00585855 0.921392)
(-0.263859 -0.00686471 0.964537)
(-0.367974 -0.00601491 0.929817)
(-0.481905 -0.0245288 0.87588)
(-0.38123 -0.00531197 0.924465)
(-0.399934 -0.0049483 0.916531)
(-0.25791 -0.00681636 0.966145)
(-0.342435 -0.00620541 0.939521)
(-0.361339 -0.00606716 0.932415)
(-0.364768 -0.0239796 0.93079)
(-0.400742 -0.0319757 0.915633)
(-0.103637 -0.0963434 0.989938)
(-0.549196 -0.0293868 0.835177)
(-0.441692 -0.0377645 0.896372)
(-0.408929 -0.0259807 0.912196)
(-0.545661 -0.0279982 0.837538)
(-0.44762 -0.0333543 0.893602)
(-0.528932 -0.00602086 0.848643)
(-0.472952 -0.0104384 0.881026)
(-0.55714 -0.00715647 0.830387)
(-0.642504 -0.0246979 0.765884)
(-0.617862 -0.00651817 0.786259)
(-0.590913 -0.00519598 0.806719)
(-0.485554 -0.0110539 0.874137)
(-0.597129 -0.00927495 0.802091)
(-0.566848 -0.00767751 0.823787)
(-0.347153 -0.0222395 0.937545)
(-0.295657 -0.0177668 0.955129)
(-0.283525 -0.0160357 0.958831)
(-0.435523 -0.0213792 0.899924)
(-0.325347 -0.0188669 0.945406)
(-0.39172 -0.0243282 0.919763)
(-0.449289 -0.0222447 0.893109)
(-0.340958 -0.0200647 0.939864)
(-0.586096 -0.0898132 0.805249)
(-0.581055 -0.0187594 0.813648)
(-0.654663 -0.0158429 0.755755)
(-0.69546 -0.0217789 0.718235)
(-0.627643 -0.00703897 0.778469)
(-0.660509 -0.00979467 0.750754)
(-0.57528 -0.0164823 0.817791)
(-0.607847 -0.00991223 0.793993)
(-0.642183 -0.0131266 0.766439)
(-0.0765363 0.00699231 0.997042)
(-0.244487 0.013872 0.969553)
(-0.0749175 -0.0051469 0.997176)
(-0.133865 -0.00838532 0.990964)
(-0.0793253 -0.00540738 0.996834)
(-0.0683999 -0.00453354 0.997648)
(-0.0643611 -0.00430926 0.997917)
(-0.136352 -0.00850708 0.990624)
(-0.0858536 -0.00577276 0.996291)
(-0.0808822 -0.00549702 0.996709)
(-0.400734 -0.0234358 0.915895)
(-0.296603 -0.006368 0.95498)
(-0.310413 -0.00621514 0.950581)
(-0.292623 -0.00648843 0.956206)
(-0.188336 -0.00616792 0.982085)
(-0.278194 -0.00651934 0.960503)
(-0.260333 -0.00651092 0.965497)
(-0.184738 -0.00611668 0.982769)
(-0.273535 -0.00652888 0.96184)
(-0.228931 -0.00632247 0.973422)
(-0.159294 -0.00570733 0.987215)
(-0.240039 -0.00642617 0.970742)
(-0.374051 -0.0227665 0.927129)
(-0.291951 -0.00634253 0.956412)
(-0.279161 -0.00643198 0.960223)
(-0.16218 -0.0057625 0.986744)
(-0.256061 -0.00650569 0.966639)
(-0.243962 -0.00644433 0.969763)
(-0.0698347 -0.00461225 0.997548)
(-0.0744467 -0.00486209 0.997213)
(-0.10177 -0.00661777 0.994786)
(-0.159044 -0.00953643 0.987225)
(-0.0952869 -0.00628233 0.99543)
(-0.0876173 -0.00586759 0.996137)
(-0.155907 -0.00939668 0.987727)
(-0.0932743 -0.0061751 0.995621)
(-0.077964 0.00713512 0.996931)
(-0.143657 0.0131088 0.989541)
(-0.082509 0.00759817 0.996561)
(-0.0694481 0.00639797 0.997565)
(-0.0654455 0.0059792 0.997838)
(-0.146359 0.0133929 0.989141)
(-0.0892544 0.00830656 0.995974)
(-0.084117 0.00776492 0.996426)
(-0.485428 0.0410949 0.87331)
(-0.325185 0.0191457 0.945457)
(-0.340285 0.0205005 0.940099)
(-0.317977 0.0198257 0.947891)
(-0.200207 0.0140362 0.979653)
(-0.302368 0.0184567 0.953013)
(-0.282917 0.0168324 0.958997)
(-0.196343 0.0136946 0.98044)
(-0.297322 0.0180512 0.954607)
(-0.248449 0.0141409 0.968542)
(-0.16898 0.0113333 0.985554)
(-0.260684 0.0150875 0.965306)
(-0.456448 0.0380982 0.888934)
(-0.320173 0.0187628 0.947173)
(-0.306045 0.0175523 0.951855)
(-0.17208 0.0115928 0.985015)
(-0.278259 0.0164769 0.960365)
(-0.264979 0.0153987 0.964131)
(-0.0708701 0.00654773 0.997464)
(-0.0754361 0.00703369 0.997126)
(-0.105729 0.0100874 0.994344)
(-0.171066 0.0160612 0.985129)
(-0.0990103 0.00935197 0.995042)
(-0.0910783 0.00849921 0.995807)
(-0.167648 0.0156873 0.985722)
(-0.0969257 0.00912678 0.99525)
(-0.102392 0.0100088 0.994694)
(-0.11103 0.0109796 0.993756)
(-0.15891 0.0160964 0.987162)
(-0.243911 0.024241 0.969495)
(-0.1459 0.0146051 0.989192)
(-0.131144 0.0129319 0.991279)
(-0.238121 0.0235899 0.970949)
(-0.14196 0.0141554 0.989771)
(-0.323433 0.0202824 0.946034)
(-0.230683 0.01682 0.972884)
(-0.340306 0.0218008 0.940062)
(-0.533558 0.0461911 0.844501)
(-0.408483 0.0268027 0.912372)
(-0.390452 0.0250645 0.920282)
(-0.235567 0.0172694 0.971705)
(-0.364364 0.0239564 0.930948)
(-0.346188 0.0223048 0.9379)
(-0.0997707 0.00971685 0.994963)
(-0.0925485 0.00891111 0.995668)
(-0.108135 0.0103537 0.994082)
(-0.198269 0.0190983 0.979962)
(-0.115922 0.0112236 0.993195)
(-0.127844 0.012563 0.991715)
(-0.202678 0.0195934 0.979049)
(-0.118724 0.0115381 0.99286)
(-0.417649 0.0287539 0.908153)
(-0.280547 0.0214447 0.959601)
(-0.396914 0.0268724 0.917462)
(-0.561598 0.0490258 0.825957)
(-0.414782 0.0273538 0.90951)
(-0.433696 0.0291832 0.900587)
(-0.274313 0.0208655 0.961414)
(-0.370682 0.0245009 0.928436)
(-0.390163 0.0262821 0.920371)
(-0.157588 -0.00932143 0.987461)
(-0.270939 -0.0139402 0.962496)
(-0.172963 -0.0100746 0.984877)
(-0.162428 -0.00930491 0.986677)
(-0.145777 -0.00841679 0.989282)
(-0.278397 -0.0142534 0.96036)
(-0.19794 -0.011376 0.980148)
(-0.178668 -0.0103666 0.983855)
(-0.577563 -0.0247228 0.815971)
(-0.493006 -0.00373581 0.870018)
(-0.51647 -0.00345418 0.856299)
(-0.519728 -0.00577855 0.854313)
(-0.392742 -0.00825728 0.919612)
(-0.492805 -0.00553296 0.870122)
(-0.4584 -0.00559525 0.888728)
(-0.382531 -0.00811839 0.923907)
(-0.484007 -0.00551666 0.875047)
(-0.39581 -0.00581166 0.918314)
(-0.311748 -0.00727826 0.950137)
(-0.418192 -0.00570235 0.908341)
(-0.540327 -0.0247889 0.84109)
(-0.48514 -0.0037679 0.874428)
(-0.462625 -0.00407269 0.886545)
(-0.319584 -0.0073756 0.947529)
(-0.450069 -0.0056083 0.892976)
(-0.425992 -0.00568154 0.904709)
(-0.168737 -0.00964943 0.985614)
(-0.190588 -0.0108245 0.98161)
(-0.271285 -0.0153068 0.962377)
(-0.350647 -0.0172125 0.936349)
(-0.239149 -0.0135349 0.970888)
(-0.205166 -0.0117594 0.978657)
(-0.340265 -0.0167751 0.94018)
(-0.229817 -0.0130478 0.973146)
(-0.163683 0.0166425 0.986373)
(-0.29083 0.0294391 0.956322)
(-0.179562 0.0184388 0.983574)
(-0.163092 0.0168283 0.986467)
(-0.146502 0.0149989 0.989097)
(-0.29853 0.030258 0.953921)
(-0.20516 0.0212717 0.978497)
(-0.185433 0.0190942 0.982471)
(-0.630498 0.0539456 0.774314)
(-0.521745 0.0368967 0.852303)
(-0.542539 0.0385202 0.839147)
(-0.540081 0.0381888 0.840746)
(-0.410327 0.0326399 0.911354)
(-0.516216 0.036771 0.855669)
(-0.484781 0.0343468 0.873961)
(-0.400458 0.0318574 0.915761)
(-0.508264 0.0362074 0.86044)
(-0.424799 0.0293659 0.904811)
(-0.330037 0.0259385 0.943612)
(-0.446671 0.0312578 0.894152)
(-0.605823 0.0527484 0.793849)
(-0.514674 0.0363574 0.856615)
(-0.494001 0.034615 0.868772)
(-0.337983 0.0266234 0.940776)
(-0.476997 0.0337436 0.878257)
(-0.45417 0.0318643 0.890345)
(-0.169376 0.0175197 0.985396)
(-0.191118 0.0199467 0.981364)
(-0.279049 0.0294548 0.959825)
(-0.371039 0.0377258 0.927851)
(-0.246952 0.0259255 0.968681)
(-0.21253 0.0220794 0.976905)
(-0.360876 0.0367192 0.931891)
(-0.23754 0.0248674 0.97106)
(-0.363125 0.0384884 0.930945)
(-0.400269 0.0442391 0.915329)
(-0.119064 0.051998 0.991524)
(-0.55449 0.0394011 0.831257)
(-0.446572 0.0489718 0.893407)
(-0.4124 0.0427642 0.909999)
(-0.551134 0.0429635 0.83331)
(-0.450118 0.0475648 0.891701)
(-0.548132 0.0384928 0.835505)
(-0.485632 0.0368368 0.873387)
(-0.572531 0.0388346 0.818963)
(-0.670006 0.0510247 0.7406)
(-0.628356 0.0390243 0.776946)
(-0.60564 0.039994 0.794733)
(-0.497204 0.0370591 0.866842)
(-0.607094 0.0382906 0.793707)
(-0.580901 0.0387939 0.813049)
(-0.345725 0.0363871 0.93763)
(-0.294977 0.031003 0.955001)
(-0.291142 0.0307389 0.956186)
(-0.451061 0.0440764 0.891404)
(-0.332009 0.0348583 0.942632)
(-0.395962 0.0410499 0.917349)
(-0.463666 0.044665 0.884883)
(-0.347136 0.0362983 0.937112)
(-0.582239 -0.069034 0.810081)
(-0.583939 0.0295216 0.81126)
(-0.657051 0.0321679 0.753159)
(0.707002 -0.0417655 -0.705978)
(-0.636701 0.0385584 0.770146)
(-0.664873 0.0348561 0.746142)
(-0.578979 0.0332424 0.814664)
(-0.616408 0.0379754 0.78651)
(-0.646215 0.0349498 0.762355)
(-0.0258165 -0.00256542 0.999663)
(-0.0253262 -0.00251297 0.999676)
(-0.0566043 -0.00592812 0.998379)
(-0.0547951 -0.00572818 0.998481)
(-0.0372009 -0.00379549 0.999301)
(-0.0381179 -0.0038964 0.999266)
(0.134135 -0.26485 0.954915)
(-0.0364335 -0.214688 0.976003)
(-0.122206 -0.0135681 0.992412)
(-0.130679 -0.0146543 0.991316)
(-0.0258697 0.00219965 0.999663)
(-0.0253946 0.00216231 0.999675)
(-0.0263209 -0.00261957 0.99965)
(-0.0268424 -0.00267496 0.999636)
(-0.0363193 -0.00369964 0.999333)
(-0.0354716 -0.00360681 0.999364)
(-0.0263571 0.00223908 0.99965)
(-0.0268604 0.00227811 0.999637)
(-0.0359579 0.00300148 0.999349)
(-0.0351469 0.0029377 0.999378)
(-0.0554165 0.00458377 0.998453)
(-0.0536787 0.00444087 0.998548)
(-0.0368015 0.00306908 0.999318)
(-0.0376793 0.0031379 0.999285)
(-0.0585228 -0.00614434 0.998267)
(-0.0605662 -0.00637073 0.998144)
(-0.114691 -0.0126517 0.993321)
(-0.107992 -0.0118364 0.994081)
(-0.057264 0.00473821 0.998348)
(-0.0592314 0.00490131 0.998232)
(-0.111635 0.00966171 0.993702)
(-0.105128 0.00903763 0.994418)
(0.856412 -0.0131768 -0.516125)
(0.949035 0.0123513 -0.314927)
(0.853984 -0.0151182 -0.520079)
(0.194069 -0.258278 0.946377)
(0.00186815 0.128955 0.991649)
(-0.118946 0.0104108 0.992846)
(-0.12721 0.011243 0.991812)
(0.785408 -0.0261966 -0.618424)
(0.879171 0.0410125 -0.474737)
(0.814111 -0.0176131 -0.580442)
(0.92491 0.0232101 -0.379476)
(0.787468 -0.0189498 -0.616064)
(0.817262 -0.0145487 -0.576083)
(0.872201 0.00340372 -0.489135)
(-0.106334 -0.00790183 0.994299)
(-0.122374 -0.00780169 0.992453)
(-0.123615 -0.0172991 0.992179)
(-0.12147 -0.0169981 0.99245)
(-0.104438 -0.00778068 0.994501)
(-0.159851 -0.0182097 0.986973)
(-0.171278 -0.00540664 0.985208)
(-0.145924 -0.00542036 0.989281)
(-0.141917 -0.0177611 0.989719)
(-0.139509 -0.0174675 0.990067)
(-0.168418 -0.00535598 0.985701)
(-0.162535 -0.0185013 0.986529)
(-0.0457912 -0.00473433 0.99894)
(-0.0471018 -0.00488108 0.998878)
(-0.212862 -0.0135157 0.976989)
(-0.237882 -0.012645 0.971212)
(-0.240471 -0.0333555 0.970083)
(-0.234497 -0.0325341 0.971572)
(-0.207278 -0.013237 0.978192)
(-0.203164 -0.0282438 0.978737)
(-0.178212 -0.0118011 0.983921)
(-0.210712 -0.0116174 0.977479)
(-0.207908 -0.0288934 0.977721)
(-0.182582 -0.0120235 0.983117)
(-0.224447 -0.0249295 0.974167)
(-0.232749 -0.00602311 0.972518)
(-0.194252 -0.0239223 0.98066)
(-0.208013 -0.00638828 0.978105)
(-0.198203 -0.0243778 0.979858)
(-0.220157 -0.0244916 0.975157)
(-0.237312 -0.00604203 0.971415)
(-0.247933 -0.027297 0.968393)
(-0.224758 -0.027421 0.974029)
(-0.230957 -0.00659253 0.972942)
(-0.267617 -0.00613715 0.963506)
(-0.219959 -0.0268689 0.975139)
(-0.253079 -0.027823 0.967045)
(-0.262196 -0.00612032 0.964995)
(-0.0445407 -0.00459912 0.998997)
(-0.0433474 -0.00446774 0.99905)
(-0.148539 -0.0102919 0.988853)
(-0.1707 -0.0238007 0.985035)
(-0.176306 -0.0102565 0.984282)
(-0.174292 -0.0242935 0.984394)
(-0.151799 -0.010461 0.988356)
(-0.19859 -0.0276166 0.979693)
(-0.174009 -0.0115858 0.984676)
(-0.196673 -0.0110606 0.980407)
(-0.194183 -0.0270101 0.980593)
(-0.169961 -0.0113825 0.985385)
(-0.294068 -0.0319419 0.955251)
(-0.317332 -0.00623614 0.948294)
(-0.276385 -0.00695552 0.961022)
(-0.2698 -0.0325557 0.962366)
(-0.263429 -0.0318301 0.964153)
(-0.310451 -0.00622395 0.950569)
(-0.300737 -0.0326249 0.953149)
(-0.26386 -0.0289057 0.964128)
(-0.229721 -0.0279889 0.972854)
(-0.246589 -0.00673119 0.969097)
(-0.273202 -0.00615193 0.961937)
(-0.234856 -0.0285758 0.97161)
(-0.258384 -0.0283536 0.965626)
(-0.278955 -0.00616607 0.960284)
(-0.235013 -0.0312946 0.971488)
(-0.258364 -0.0371881 0.965332)
(-0.194488 -0.102589 0.975525)
(-0.440416 -0.0460496 0.896612)
(-0.229091 -0.0713233 0.970789)
(-0.453788 -0.111184 0.884146)
(-0.383563 -0.0778469 0.920228)
(-0.506314 -0.074934 0.859087)
(-0.477868 -0.0312902 0.877874)
(-0.521358 -0.0264581 0.852928)
(-0.521589 -0.0781667 0.849609)
(-0.492887 -0.0330912 0.869464)
(-0.466414 -0.0503003 0.883135)
(-0.469265 -0.0076251 0.883024)
(-0.424246 -0.0506609 0.904129)
(-0.448533 -0.00944591 0.893716)
(-0.43662 -0.0522394 0.898128)
(-0.454694 -0.0489572 0.889301)
(-0.480281 -0.00799207 0.877078)
(-0.529677 -0.0586967 0.846166)
(-0.518656 -0.0635242 0.85262)
(-0.51153 -0.0124325 0.859176)
(-0.550957 -0.0117072 0.834452)
(-0.504117 -0.0614626 0.861445)
(-0.543307 -0.0607968 0.83733)
(-0.538625 -0.0110363 0.842473)
(-0.213715 -0.0271323 0.976519)
(-0.194818 -0.0238491 0.980549)
(-0.361246 -0.0216007 0.93222)
(-0.392445 -0.0552209 0.918116)
(-0.409124 -0.0198612 0.912262)
(-0.405264 -0.0571611 0.912411)
(-0.374257 -0.022464 0.927053)
(-0.490948 -0.0720894 0.868201)
(-0.462419 -0.0297212 0.886163)
(-0.47782 -0.0240208 0.878129)
(-0.47585 -0.0690499 0.876812)
(-0.446894 -0.028291 0.89414)
(-0.573042 -0.111196 0.811947)
(-0.356387 -0.0933884 0.929659)
(-0.50182 -0.0468443 0.863703)
(-0.303412 -0.155121 0.940148)
(-0.518366 -0.107092 0.848427)
(-0.558267 -0.0496529 0.828174)
(-0.39814 -0.16957 0.901516)
(-0.571346 -0.0648466 0.818143)
(-0.533447 -0.0656841 0.843279)
(-0.551463 -0.0144019 0.834075)
(-0.563442 -0.0124284 0.826062)
(-0.54835 -0.0679206 0.833486)
(-0.557199 -0.0628187 0.828)
(-0.576029 -0.0132467 0.817322)
(-0.113802 0.0115349 0.993436)
(-0.131194 0.0118242 0.991286)
(-0.140836 0.0205837 0.989819)
(-0.111768 0.0113066 0.99367)
(-0.138335 0.0202155 0.990179)
(-0.188681 0.0238255 0.981749)
(-0.182206 0.0109653 0.983199)
(-0.154621 0.0101665 0.987921)
(-0.164225 0.0225176 0.986166)
(-0.179121 0.0107362 0.983768)
(-0.161348 0.0221112 0.98665)
(-0.191972 0.0242671 0.9811)
(-0.10828 -0.00802586 0.994088)
(-0.125816 -0.0176072 0.991897)
(-0.129085 -0.00815021 0.9916)
(-0.128072 -0.0179226 0.991603)
(-0.11028 -0.00814978 0.993867)
(-0.0303468 -0.00305237 0.999535)
(-0.0297137 -0.00298355 0.999554)
(-0.142944 -0.0199842 0.989529)
(-0.141543 -0.00874842 0.989893)
(-0.123534 -0.00892905 0.9923)
(-0.140291 -0.0196175 0.989916)
(-0.121163 -0.00879307 0.992594)
(-0.211938 -0.0236572 0.976997)
(-0.228313 -0.00600344 0.973569)
(-0.190423 -0.0234803 0.981421)
(-0.195861 -0.00625866 0.980612)
(-0.215989 -0.0240728 0.976099)
(-0.186708 -0.0230501 0.982145)
(-0.224001 -0.00598034 0.974571)
(-0.193286 -0.0217419 0.980902)
(-0.166563 -0.020697 0.985814)
(-0.200431 -0.00579655 0.979691)
(-0.177838 -0.00602143 0.984041)
(-0.189848 -0.0213805 0.981581)
(-0.169686 -0.0210621 0.985273)
(-0.204099 -0.00583255 0.978933)
(-0.168094 -0.0191004 0.985586)
(-0.174207 -0.00545708 0.984694)
(-0.144385 -0.0180599 0.989357)
(-0.153741 -0.00559631 0.988095)
(-0.165283 -0.0187934 0.986067)
(-0.146912 -0.0183681 0.988979)
(-0.177207 -0.00550419 0.984158)
(-0.183236 -0.0206924 0.982851)
(-0.163524 -0.0203389 0.98633)
(-0.16819 -0.00586567 0.985737)
(-0.196855 -0.00575916 0.980416)
(-0.160569 -0.0199893 0.986822)
(-0.186499 -0.0210354 0.98223)
(-0.193372 -0.00572007 0.981109)
(-0.0310021 -0.00312291 0.999514)
(-0.0316813 -0.00319608 0.999493)
(-0.145389 -0.010127 0.989323)
(-0.167223 -0.0233229 0.985643)
(-0.165626 -0.00981516 0.98614)
(-0.163856 -0.0228621 0.986219)
(-0.142341 -0.00996648 0.989767)
(-0.145674 -0.0203608 0.989123)
(-0.125976 -0.00906811 0.991992)
(-0.149904 -0.00913271 0.988658)
(-0.148482 -0.0207429 0.988697)
(-0.128493 -0.00921034 0.991668)
(-0.115889 0.0117703 0.993192)
(-0.143399 0.0209631 0.989443)
(-0.138466 0.0125676 0.990287)
(-0.118035 0.0120155 0.992937)
(-0.146036 0.0213529 0.989049)
(-0.0302339 0.00254603 0.99954)
(-0.0296258 0.0024986 0.999558)
(-0.163506 0.023954 0.986251)
(-0.152008 0.0139953 0.98828)
(-0.132304 0.0136828 0.991115)
(-0.129747 0.0133804 0.991457)
(-0.160386 0.0234871 0.986775)
(-0.252533 0.0325113 0.967042)
(-0.243672 0.0159495 0.969727)
(-0.208294 0.014764 0.977955)
(-0.222445 0.0309262 0.974455)
(-0.239044 0.0155512 0.970884)
(-0.218004 0.0302762 0.975478)
(-0.257439 0.0331963 0.965724)
(-0.229751 0.0293739 0.972806)
(-0.193809 0.0267541 0.980674)
(-0.213661 0.0134267 0.976816)
(-0.188921 0.0130387 0.981906)
(-0.217617 0.0137512 0.975937)
(-0.225535 0.0287945 0.97381)
(-0.197564 0.0272985 0.97991)
(-0.198795 0.0251784 0.979718)
(-0.185362 0.0112011 0.982606)
(-0.167172 0.0229355 0.985661)
(-0.16301 0.0108416 0.986565)
(-0.195342 0.0247143 0.980424)
(-0.188598 0.0114481 0.981988)
(-0.170199 0.0233667 0.985133)
(-0.21741 0.0276856 0.975688)
(-0.190156 0.0262265 0.981403)
(-0.178546 0.0121431 0.983857)
(-0.209804 0.0131141 0.977655)
(-0.206045 0.0128115 0.978459)
(-0.186603 0.0257138 0.982099)
(-0.221417 0.0282351 0.97477)
(-0.0308629 0.00259656 0.99952)
(-0.0315146 0.00264783 0.9995)
(-0.155925 0.0165354 0.98763)
(-0.178236 0.0168533 0.983843)
(-0.192121 0.0282654 0.980964)
(-0.152626 0.016131 0.988152)
(-0.188153 0.0276637 0.98175)
(-0.166718 0.0244368 0.985702)
(-0.13494 0.0139948 0.990755)
(-0.161111 0.0149738 0.986823)
(-0.13766 0.0143208 0.990376)
(-0.17003 0.0249314 0.985123)
(-0.0450311 0.00373098 0.998979)
(-0.0462871 0.00383213 0.998921)
(-0.228512 0.0255693 0.973205)
(-0.256159 0.0256239 0.966295)
(-0.276441 0.0412376 0.960146)
(-0.222567 0.0248286 0.974601)
(-0.269784 0.0401982 0.962082)
(-0.234099 0.0346778 0.971594)
(-0.191395 0.020936 0.98129)
(-0.2271 0.0223442 0.973615)
(-0.196098 0.021521 0.980348)
(-0.239559 0.0355192 0.970232)
(-0.267654 0.0346248 0.962893)
(-0.248428 0.0163634 0.968512)
(-0.221323 0.0159554 0.97507)
(-0.227019 0.0316002 0.973377)
(-0.253314 0.0167912 0.967238)
(-0.262487 0.0338987 0.96434)
(-0.231727 0.0322948 0.972245)
(-0.295529 0.0385265 0.954557)
(-0.262999 0.0369117 0.96409)
(-0.245813 0.0182236 0.969146)
(-0.285553 0.0196278 0.958162)
(-0.279819 0.0191227 0.959862)
(-0.257408 0.0360866 0.965629)
(-0.301519 0.0393672 0.952647)
(-0.0438323 0.00363344 0.999032)
(-0.0426885 0.00354025 0.999082)
(-0.159337 0.0169558 0.987079)
(-0.189863 0.0181524 0.981643)
(-0.196213 0.0288863 0.980136)
(-0.162867 0.0173931 0.986495)
(-0.200438 0.0295286 0.979261)
(-0.228818 0.033865 0.97288)
(-0.186863 0.0203748 0.982175)
(-0.211957 0.020642 0.977061)
(-0.182493 0.0198293 0.983007)
(-0.223694 0.0330817 0.974098)
(-0.347744 0.0458902 0.936466)
(-0.337384 0.024224 0.941055)
(-0.293641 0.0226593 0.955647)
(-0.314013 0.0444901 0.948376)
(-0.330307 0.0235967 0.943579)
(-0.307004 0.0434459 0.950716)
(-0.354944 0.0469046 0.93371)
(-0.31397 0.0411262 0.948542)
(-0.268754 0.0377656 0.962468)
(-0.262377 0.019755 0.964763)
(-0.291445 0.0201492 0.956375)
(-0.297501 0.0206861 0.954497)
(-0.274682 0.038646 0.960758)
(-0.307674 0.0402318 0.950641)
(-0.218699 -0.0138079 0.975695)
(-0.246696 -0.0342156 0.968489)
(-0.256907 -0.0133778 0.966344)
(-0.253185 -0.0351056 0.966781)
(-0.224804 -0.0141127 0.974302)
(-0.0762504 -0.00812952 0.997056)
(-0.0731331 -0.00777846 0.997292)
(-0.29846 -0.0414511 0.953522)
(-0.294287 -0.0149109 0.955601)
(-0.267981 -0.0164099 0.963284)
(-0.290086 -0.0402657 0.956153)
(-0.259915 -0.0159662 0.965499)
(-0.432089 -0.0463233 0.900641)
(-0.45846 -0.00735868 0.888685)
(-0.412275 -0.0492 0.90973)
(-0.414135 -0.00855967 0.910175)
(-0.44324 -0.0476355 0.895136)
(-0.400683 -0.047782 0.91497)
(-0.447877 -0.0071633 0.894066)
(-0.381179 -0.0409315 0.923595)
(-0.33938 -0.040612 0.939772)
(-0.389299 -0.00665816 0.921087)
(-0.363034 -0.00793462 0.931742)
(-0.371921 -0.039985 0.927403)
(-0.348668 -0.0417079 0.936318)
(-0.398461 -0.00673004 0.917161)
(-0.314751 -0.034033 0.948564)
(-0.324426 -0.00625055 0.94589)
(-0.27641 -0.0333073 0.960463)
(-0.296859 -0.00712133 0.954895)
(-0.307626 -0.0333158 0.950924)
(-0.283269 -0.034091 0.958434)
(-0.331734 -0.00627521 0.943352)
(-0.35422 -0.038109 0.934385)
(-0.330432 -0.0395716 0.943)
(-0.336097 -0.00758717 0.941797)
(-0.38037 -0.00659419 0.924811)
(-0.321801 -0.0385583 0.946022)
(-0.362931 -0.0390455 0.930997)
(-0.371679 -0.00653342 0.928338)
(-0.0796273 -0.0085198 0.996788)
(-0.0833097 -0.00894173 0.996484)
(-0.348802 -0.0208189 0.936965)
(-0.380163 -0.0533261 0.923381)
(-0.372733 -0.0180962 0.927762)
(-0.368386 -0.0515105 0.928245)
(-0.336916 -0.0201177 0.94132)
(-0.307195 -0.0427168 0.950687)
(-0.276449 -0.0168769 0.96088)
(-0.320718 -0.0160219 0.947039)
(-0.316331 -0.0439978 0.947628)
(-0.285335 -0.0173526 0.958271)
(-0.234702 0.0263372 0.97171)
(-0.283319 0.0423121 0.958092)
(-0.276203 0.0278569 0.960696)
(-0.24115 0.0271349 0.970108)
(-0.290429 0.0434299 0.95591)
(-0.0743703 0.00620536 0.997211)
(-0.0713623 0.0059449 0.997433)
(-0.33829 0.0509498 0.939662)
(-0.314818 0.031969 0.948614)
(-0.286011 0.0324972 0.957675)
(-0.277731 0.0315235 0.960141)
(-0.329666 0.0495827 0.942795)
(-0.479875 0.0643707 0.874972)
(-0.475199 0.0351303 0.879177)
(-0.430798 0.0341776 0.901801)
(-0.453319 0.0649094 0.888982)
(-0.46537 0.0345083 0.884443)
(-0.443248 0.0634748 0.894149)
(-0.489022 0.065557 0.869804)
(-0.435152 0.0581458 0.898478)
(-0.386187 0.0551192 0.920772)
(-0.409422 0.0302169 0.911845)
(-0.38138 0.0302522 0.923923)
(-0.418335 0.0309293 0.907766)
(-0.426504 0.0569034 0.902694)
(-0.395236 0.0564422 0.916844)
(-0.369834 0.0490234 0.927804)
(-0.344646 0.0248658 0.938403)
(-0.321224 0.0455689 0.945906)
(-0.314807 0.0245995 0.948837)
(-0.362317 0.0479485 0.930821)
(-0.352093 0.025511 0.935617)
(-0.328639 0.0466729 0.943302)
(-0.409622 0.0545739 0.910622)
(-0.377343 0.053815 0.924508)
(-0.354624 0.0280267 0.934589)
(-0.400687 0.0295106 0.915739)
(-0.392129 0.028816 0.919459)
(-0.36872 0.0525586 0.928053)
(-0.417989 0.055718 0.906742)
(-0.0776359 0.00649286 0.996961)
(-0.0811947 0.00680685 0.996675)
(-0.366388 0.0417378 0.929526)
(-0.392365 0.0397841 0.918949)
(-0.417119 0.0637552 0.906613)
(-0.354888 0.0404904 0.934032)
(-0.406344 0.0620026 0.911614)
(-0.347195 0.0523447 0.936331)
(-0.294655 0.0335051 0.955016)
(-0.341489 0.0347169 0.939244)
(-0.303685 0.0345702 0.952145)
(-0.356369 0.0538288 0.932794)
(-0.229619 0.0255229 0.972946)
(-0.25266 0.0306182 0.96707)
(-0.213446 0.0444119 0.975945)
(-0.456823 0.0129262 0.889464)
(-0.272027 0.0458552 0.961196)
(-0.408748 0.055006 0.910988)
(-0.473763 0.100726 0.874873)
(-0.524171 0.0825755 0.8476)
(-0.486584 0.0518064 0.872096)
(-0.528973 0.0457104 0.847407)
(-0.50033 0.0527937 0.864224)
(-0.53662 0.0852093 0.839511)
(-0.507644 0.0680209 0.858877)
(-0.485175 0.0356846 0.873689)
(-0.463064 0.0360659 0.885591)
(-0.463559 0.0663468 0.883579)
(-0.49529 0.0361243 0.867976)
(-0.498291 0.0667692 0.864435)
(-0.473961 0.0677865 0.877933)
(-0.556339 0.0737058 0.82768)
(-0.540233 0.0760845 0.838069)
(-0.52098 0.0371728 0.852759)
(-0.559353 0.0369362 0.828106)