/*--------------------------------*- C++ -*----------------------------------*\
| =========                 |                                                 |
| \\      /  F ield         | OpenFOAM: The Open Source CFD Toolbox           |
|  \\    /   O peration     | Version:  2012                                  |
|   \\  /    A nd           | Website:  www.openfoam.com                      |
|    \\/     M anipulation  |                                                 |
\*---------------------------------------------------------------------------*/
FoamFile
{
    version     2.0;
    format      ascii;
    class       volVectorField;
    location    "0.107/solid";
    object      U;
}
// * * * * * * * * * * * * * * * * * * * * * * * * * * * * * * * * * * * * * //

dimensions      [0 1 -1 0 0 0 0];


internalField   nonuniform List<vector> 
3125
(
(0.00521662 0.00137508 -0.000514447)
(0.0088996 0.00350688 -0.000560636)
(0.0120479 0.0058276 -0.000572852)
(0.016233 0.00924615 -0.000581995)
(0.0194626 0.0118966 -0.000566332)
(0.00487586 0.00138008 -0.000699918)
(0.00846555 0.00321723 -0.000557744)
(0.0055967 0.00155688 -0.000522335)
(0.00802434 0.00322036 -0.000861362)
(0.00524244 0.00156162 -0.00072304)
(0.00844717 0.00350979 -0.000877437)
(0.0115269 0.0058292 -0.000961887)
(0.0157664 0.00885817 -0.000580986)
(0.0125087 0.00619207 -0.000573956)
(0.015193 0.00885872 -0.00100153)
(0.0119796 0.0061935 -0.000969945)
(0.0194586 0.0116404 -0.000353043)
(0.0191742 0.0116406 -0.000552371)
(0.0156553 0.0092466 -0.00100309)
(0.0191708 0.0118968 -0.000771005)
(0.00527702 0.00250999 -0.00177185)
(0.00524793 0.00234992 -0.00160454)
(0.0120722 0.00760176 -0.00219776)
(0.0104853 0.00626971 -0.00214405)
(0.00868997 0.00465775 -0.00186672)
(0.0102285 0.00444419 -0.000567222)
(0.010227 0.00585554 -0.00193636)
(0.00872313 0.00487008 -0.00205885)
(0.0102616 0.00608665 -0.00213489)
(0.0120362 0.00735174 -0.00199388)
(0.010679 0.00477723 -0.000568885)
(0.0104506 0.00603608 -0.00194476)
(0.0195037 0.0139657 -0.00227407)
(0.017867 0.012607 -0.00228078)
(0.0159707 0.0107385 -0.0020573)
(0.0176306 0.0104076 -0.000584909)
(0.0175967 0.0121262 -0.00206743)
(0.0160088 0.011017 -0.00226798)
(0.0176352 0.0124107 -0.00227969)
(0.0194651 0.0136911 -0.00207163)
(0.0180957 0.0107929 -0.000585755)
(0.0178286 0.012322 -0.00206837)
(0.00506819 0.00251988 -0.00191736)
(0.00508326 0.00235673 -0.00171668)
(0.00546491 0.00262279 -0.00179329)
(0.0068369 0.00350554 -0.00192671)
(0.00719609 0.00242422 -0.000546268)
(0.00847495 0.0044971 -0.00185511)
(0.00700896 0.00345598 -0.00176117)
(0.00543556 0.00245942 -0.00162407)
(0.00678534 0.00218653 -0.000541318)
(0.00680581 0.00331982 -0.00174583)
(0.00850789 0.00470661 -0.00204618)
(0.00704031 0.00364477 -0.00194349)
(0.00525191 0.00263243 -0.00194323)
(0.00659584 0.00351346 -0.00210744)
(0.00679045 0.00242801 -0.000807406)
(0.00826137 0.00450131 -0.00202127)
(0.0068158 0.00346128 -0.00190477)
(0.00526761 0.00246607 -0.00173975)
(0.00639212 0.00219056 -0.000787593)
(0.00661568 0.00332528 -0.00188603)
(0.00823712 0.00471269 -0.00225944)
(0.00679537 0.00365246 -0.0021285)
(0.0117514 0.00760475 -0.00245603)
(0.0101847 0.00627395 -0.00238676)
(0.00847361 0.00466181 -0.00203584)
(0.00974445 0.0044465 -0.000919693)
(0.00999229 0.00585861 -0.00212387)
(0.00844885 0.00487595 -0.00227583)
(0.00996408 0.00609108 -0.00237481)
(0.011783 0.00735382 -0.00219623)
(0.0101851 0.00477935 -0.000931757)
(0.0102133 0.00603902 -0.00213451)
(0.0123013 0.00779795 -0.00220405)
(0.0139167 0.00919713 -0.00223972)
(0.0143663 0.00769917 -0.00057798)
(0.0157381 0.0105383 -0.00205526)
(0.0141114 0.00913203 -0.00203566)
(0.0122652 0.00754579 -0.00199962)
(0.0139004 0.0073167 -0.00057699)
(0.0138796 0.0089315 -0.00203203)
(0.0157761 0.0108157 -0.00226566)
(0.0141487 0.00939936 -0.00224375)
(0.0119779 0.00780077 -0.00246397)
(0.0135769 0.00919891 -0.00250702)
(0.0138089 0.00770004 -0.000992888)
(0.0154586 0.0105389 -0.00226568)
(0.0138416 0.0091332 -0.00224597)
(0.0120099 0.00754775 -0.00220331)
(0.0133494 0.00731771 -0.000988476)
(0.0136114 0.00893276 -0.00224192)
(0.015422 0.0108165 -0.00253305)
(0.0138068 0.00940101 -0.00251151)
(0.0191307 0.0139659 -0.00253551)
(0.0175034 0.0126072 -0.00254155)
(0.0156901 0.0107391 -0.00226741)
(0.017043 0.0104078 -0.00100485)
(0.0173102 0.0121264 -0.00227382)
(0.0156533 0.0110178 -0.0025349)
(0.0172722 0.0124109 -0.00254135)
(0.019173 0.0136912 -0.0022763)
(0.0175058 0.0107931 -0.00100467)
(0.0175416 0.0123222 -0.00227409)
(0.00527752 0.00310249 -0.0024553)
(0.00524843 0.00177504 -0.0009483)
(0.0120315 0.00850868 -0.00307141)
(0.0113506 0.00790491 -0.00304115)
(0.00870437 0.00390025 -0.00108789)
(0.0093384 0.00380833 -0.000563148)
(0.00935869 0.0043698 -0.00110457)
(0.00869994 0.0056467 -0.00286906)
(0.00934907 0.00618201 -0.0029204)
(0.0120601 0.00646363 -0.00115279)
(0.0115891 0.00546975 -0.00057166)
(0.0113749 0.00591297 -0.00114309)
(0.0194341 0.0150152 -0.0031984)
(0.018741 0.0144238 -0.00318863)
(0.0160017 0.00975267 -0.00118592)
(0.0166994 0.009634 -0.000583005)
(0.0166999 0.0103405 -0.00118896)
(0.0159547 0.0120213 -0.00316928)
(0.0166509 0.0126328 -0.00317659)
(0.0194826 0.012669 -0.00120245)
(0.0190393 0.0115708 -0.000585373)
(0.0187956 0.0120905 -0.00119443)
(0.0051316 0.00311091 -0.00256453)
(0.0050442 0.00178015 -0.00107137)
(0.00546393 0.00322701 -0.00248591)
(0.00603588 0.00362003 -0.00257279)
(0.00803665 0.00293993 -0.000554423)
(0.00848847 0.00374949 -0.00108196)
(0.00784922 0.00331518 -0.00106237)
(0.00543712 0.00187297 -0.000958861)
(0.00598516 0.00175274 -0.000529409)
(0.00601505 0.0021876 -0.000988988)
(0.00848599 0.00547336 -0.00285061)
(0.00785218 0.00496977 -0.0027911)
(0.00531518 0.00323519 -0.00259804)
(0.00587882 0.00362751 -0.00269364)
(0.00760698 0.00294328 -0.000844321)
(0.00822398 0.00375266 -0.00127423)
(0.0075949 0.00331869 -0.00124263)
(0.00522843 0.00187795 -0.00108645)
(0.00561767 0.00175724 -0.000745375)
(0.00579485 0.0021922 -0.00113005)
(0.00829859 0.00547821 -0.0030039)
(0.00767191 0.00497524 -0.00293687)
(0.0118118 0.0085106 -0.0032527)
(0.0111361 0.00790732 -0.00321907)
(0.00843614 0.00390331 -0.00128404)
(0.00887506 0.00381104 -0.000892525)
(0.00908086 0.00437254 -0.00131166)
(0.00851024 0.00565133 -0.00302473)
(0.00915268 0.00618605 -0.00308279)
(0.0117473 0.00646522 -0.0013933)
(0.0110767 0.00547152 -0.000952847)
(0.0110698 0.00591482 -0.00137702)
(0.0122597 0.00871221 -0.00308049)
(0.012947 0.00932804 -0.00310488)
(0.0152995 0.00847062 -0.000579978)
(0.0157688 0.00955639 -0.00118478)
(0.0150702 0.00896729 -0.00118078)
(0.0122897 0.00665026 -0.00115566)
(0.0129713 0.0065623 -0.000574997)
(0.0129809 0.00721814 -0.00116358)
(0.0157226 0.011816 -0.00316632)
(0.0150265 0.0111965 -0.00315565)
(0.0120383 0.00871397 -0.0032627)
(0.0127209 0.00932936 -0.00328925)
(0.014731 0.00847126 -0.000999352)
(0.0154241 0.00955691 -0.00144019)
(0.0147299 0.00896796 -0.00143579)
(0.0119741 0.00665176 -0.00139812)
(0.0124344 0.00656359 -0.000977043)
(0.0126584 0.00721941 -0.00141097)
(0.0154818 0.0118159 -0.00335037)
(0.0147887 0.0111967 -0.00334102)
(0.0190163 0.0110388 -0.000151724)
(0.0184708 0.011039 -0.000534655)
(0.0191857 0.0150154 -0.00337233)
(0.018493 0.0144229 -0.00336243)
(0.0156555 0.00975313 -0.0014413)
(0.0161179 0.00963438 -0.00100411)
(0.0163503 0.0103409 -0.00144373)
(0.015713 0.0120211 -0.00335277)
(0.0164067 0.0126324 -0.00335806)
(0.0191503 0.0126694 -0.00143568)
(0.018444 0.0115711 -0.001004)
(0.0184398 0.0120906 -0.00144517)
(0.0052831 0.00294098 -0.00226598)
(0.00524816 0.00191734 -0.00110907)
(0.0104523 0.00712016 -0.00299333)
(0.0111249 0.00770632 -0.00303002)
(0.0120525 0.00826446 -0.00282816)
(0.0113881 0.00702114 -0.00217689)
(0.0113704 0.00766668 -0.00280052)
(0.0104705 0.00689058 -0.00275692)
(0.0111613 0.00683063 -0.00216924)
(0.0111443 0.00747018 -0.00279037)
(0.00870121 0.00408749 -0.00127882)
(0.00934229 0.00515604 -0.00189898)
(0.00935522 0.00456406 -0.00129929)
(0.0097815 0.00412098 -0.000565324)
(0.0102461 0.00503284 -0.00112365)
(0.00957921 0.00453173 -0.00110959)
(0.00956198 0.00532733 -0.00190891)
(0.0102421 0.00523603 -0.00132287)
(0.00957549 0.00472831 -0.00130555)
(0.0102297 0.00692837 -0.00297995)
(0.00956772 0.00636529 -0.00293622)
(0.00871442 0.00543639 -0.00264376)
(0.00937608 0.00537665 -0.00209407)
(0.00936498 0.00596418 -0.00269052)
(0.0102475 0.00670106 -0.00274474)
(0.00959596 0.00555062 -0.00210492)
(0.00958409 0.00614503 -0.00270492)
(0.0120551 0.00668277 -0.00135904)
(0.0113526 0.00677786 -0.00197481)
(0.0113702 0.00612647 -0.00134704)
(0.0111327 0.00511935 -0.00057035)
(0.0104704 0.00520461 -0.00112786)
(0.0111476 0.00573293 -0.0011396)
(0.011126 0.00658968 -0.00196781)
(0.0104662 0.00540995 -0.00132815)
(0.0111431 0.00594443 -0.00134265)
(0.0178096 0.0136342 -0.00318449)
(0.0185058 0.0142255 -0.00318772)
(0.0194691 0.0147438 -0.00294773)
(0.0188011 0.0133913 -0.00228335)
(0.0187685 0.0141468 -0.00293798)
(0.0178368 0.0133589 -0.00293401)
(0.0185649 0.0131939 -0.0022831)
(0.0185333 0.0139488 -0.00293713)
(0.0159954 0.00999554 -0.00139986)
(0.0166681 0.0113366 -0.00206248)
(0.0166935 0.0105859 -0.00140347)
(0.0171653 0.0100213 -0.000583989)
(0.0176294 0.0111198 -0.00119202)
(0.0169325 0.0105359 -0.00118981)
(0.0169005 0.0115349 -0.00206392)
(0.0176228 0.0113677 -0.00140706)
(0.016926 0.010782 -0.00140449)
(0.0175781 0.0134359 -0.00318326)
(0.0168828 0.0128351 -0.00317856)
(0.0159807 0.011752 -0.00291893)
(0.0167064 0.0116181 -0.00227391)
(0.0166774 0.0123608 -0.00292605)
(0.0176052 0.0131612 -0.00293275)
(0.0169388 0.0118173 -0.00227557)
(0.0169096 0.0125623 -0.002928)
(0.0194772 0.0129243 -0.00142061)
(0.0187641 0.0131065 -0.00207087)
(0.0187891 0.0123409 -0.00141007)
(0.0185626 0.0111789 -0.000586312)
(0.0178615 0.0113136 -0.00119262)
(0.0185599 0.0118948 -0.00119406)
(0.0185273 0.0129086 -0.00207045)
(0.0178548 0.011562 -0.00140777)
(0.0185532 0.0121446 -0.00140952)
(0.00510681 0.00295082 -0.00239637)
(0.0050523 0.00192308 -0.0012313)
(0.00547008 0.00306237 -0.00229399)
(0.00604121 0.00298123 -0.00185397)
(0.00604367 0.00344615 -0.00237348)
(0.00682587 0.00418893 -0.00267746)
(0.00623056 0.00375749 -0.00260014)
(0.00623734 0.00310737 -0.00187301)
(0.0068358 0.0040032 -0.0024691)
(0.00623889 0.00358059 -0.00239848)
(0.00761336 0.00267546 -0.000550616)
(0.00701721 0.00278059 -0.00103262)
(0.00763877 0.00317671 -0.00105543)
(0.00848556 0.00393429 -0.00127145)
(0.00783782 0.00403254 -0.00181764)
(0.00784665 0.00349257 -0.00124751)
(0.00701527 0.00294766 -0.0012112)
(0.00762829 0.0038837 -0.00180424)
(0.00763647 0.00335153 -0.00123893)
(0.00543652 0.00201814 -0.0011219)
(0.0060111 0.00280812 -0.00167942)
(0.00601408 0.00234114 -0.00115816)
(0.00638154 0.00196265 -0.000535719)
(0.00681309 0.00265523 -0.00102457)
(0.00621194 0.00229934 -0.000998249)
(0.00620697 0.00293106 -0.0016968)
(0.00681143 0.00281963 -0.00120131)
(0.00621065 0.00245566 -0.00116947)
(0.00702787 0.00433901 -0.00270169)
(0.00764377 0.00480761 -0.00276985)
(0.00849999 0.00526564 -0.00262696)
(0.00787009 0.00423335 -0.00200524)
(0.00786469 0.00477003 -0.00257275)
(0.00703833 0.0041504 -0.00249121)
(0.00766033 0.00408155 -0.00199058)
(0.00765577 0.00461059 -0.00255338)
(0.00529032 0.00307195 -0.00242799)
(0.00581598 0.00299012 -0.00201722)
(0.00585375 0.00345497 -0.00251825)
(0.00665816 0.00419549 -0.00280969)
(0.00607078 0.00376474 -0.00272386)
(0.00600808 0.00311601 -0.00204068)
(0.00663282 0.00401102 -0.00262797)
(0.00604565 0.00358916 -0.00254681)
(0.00719553 0.00267903 -0.000826326)
(0.00677748 0.00278457 -0.00119589)
(0.00738836 0.00318034 -0.0012315)
(0.00823171 0.00393785 -0.00145956)
(0.00763279 0.0040372 -0.00197447)
(0.00760286 0.00349652 -0.00142419)
(0.00678554 0.00295214 -0.00137172)
(0.00742617 0.00388852 -0.00195784)
(0.00739619 0.0033556 -0.00141165)
(0.00523669 0.00202374 -0.00124842)
(0.00583349 0.00281425 -0.00180568)
(0.00580286 0.00234631 -0.00129754)
(0.00600104 0.00196691 -0.000766905)
(0.00657746 0.00265933 -0.00118344)
(0.00598743 0.00230381 -0.00114383)
(0.00602618 0.00293702 -0.00182658)
(0.00658538 0.00282423 -0.00135766)
(0.00599559 0.00246069 -0.00131313)
(0.00685758 0.00434535 -0.0028367)
(0.00746594 0.00481329 -0.002913)
(0.00827271 0.0052716 -0.00281197)
(0.00761014 0.00424011 -0.00220684)
(0.00764623 0.00477666 -0.00274842)
(0.00683217 0.00415799 -0.00265353)
(0.00740406 0.00408854 -0.00218813)
(0.00744032 0.00461747 -0.00272579)
(0.0102455 0.00712326 -0.00316529)
(0.0109123 0.00770889 -0.0032066)
(0.0117849 0.00826726 -0.00304829)
(0.0110756 0.00702464 -0.00242936)
(0.0111094 0.00767 -0.00301634)
(0.010219 0.00689465 -0.00296523)
(0.0108517 0.00683431 -0.00241948)
(0.0108856 0.00747368 -0.00300449)
(0.008444 0.00409093 -0.00147058)
(0.00911782 0.00515967 -0.00207652)
(0.00908848 0.00456714 -0.00150145)
(0.00930761 0.00412349 -0.000906616)
(0.00995573 0.00503517 -0.00134388)
(0.00929782 0.00453436 -0.00132017)
(0.00933487 0.00533082 -0.00208909)
(0.00996325 0.00523864 -0.00153745)
(0.00930557 0.00473126 -0.00151099)
(0.0100249 0.00693166 -0.00315018)
(0.00936916 0.00636914 -0.0031007)
(0.00848428 0.00544212 -0.00283174)
(0.00909154 0.00538188 -0.00232158)
(0.00912652 0.00596927 -0.00288686)
(0.00999852 0.00670533 -0.00295087)
(0.0093081 0.00555565 -0.00233571)
(0.00934294 0.00614991 -0.00290386)
(0.0117546 0.00668455 -0.0015926)
(0.011106 0.00678029 -0.00217244)
(0.0110773 0.00612854 -0.00157446)
(0.0106294 0.00512129 -0.000942808)
(0.0101767 0.00520683 -0.00135111)
(0.0108455 0.00573488 -0.00137103)
(0.0108816 0.00659224 -0.00216364)
(0.0101843 0.00541245 -0.00154555)
(0.0108529 0.00594661 -0.00156776)
(0.0122811 0.0084661 -0.00283647)
(0.0129915 0.00839294 -0.00222104)
(0.0129694 0.00907657 -0.00285884)
(0.0138688 0.0101573 -0.00313126)
(0.0131769 0.00953471 -0.0031121)
(0.0132224 0.00859304 -0.00222612)
(0.0138925 0.0098994 -0.00288317)
(0.0131997 0.00928155 -0.00286548)
(0.0148328 0.00808405 -0.000578977)
(0.0141397 0.00818429 -0.00117418)
(0.0148374 0.00877114 -0.0011793)
(0.0157626 0.00979831 -0.00139847)
(0.0150405 0.00993606 -0.00204804)
(0.0150641 0.00920604 -0.00139364)
(0.0141339 0.00841794 -0.00138556)
(0.014808 0.00973498 -0.00204525)
(0.0148314 0.00900868 -0.00139181)
(0.0122846 0.00687122 -0.00136264)
(0.0129549 0.00813467 -0.0020151)
(0.0129755 0.00744419 -0.00137243)
(0.0134353 0.00693747 -0.000576004)
(0.0139074 0.00798961 -0.00117231)
(0.0132121 0.00740966 -0.00116591)
(0.0131856 0.00833285 -0.00201971)
(0.0139017 0.00822183 -0.00138323)
(0.0132066 0.00763735 -0.00137535)
(0.0140999 0.0103653 -0.00313685)
(0.0147946 0.0109891 -0.00315147)
(0.0157484 0.0115477 -0.00291609)
(0.0150782 0.0102095 -0.00225753)
(0.0150516 0.0109317 -0.00290596)
(0.014124 0.0101059 -0.00288837)
(0.0148456 0.010007 -0.00225442)
(0.0148195 0.0107255 -0.00290202)
(0.0120113 0.00846873 -0.00305779)
(0.0126606 0.00839529 -0.00248501)
(0.0126937 0.00907872 -0.00308301)
(0.013637 0.0101581 -0.00331711)
(0.0129493 0.00953589 -0.003297)
(0.0128891 0.00859524 -0.00249114)
(0.0136097 0.00990097 -0.00310941)
(0.0129222 0.00928355 -0.00309036)
(0.0142695 0.00808482 -0.000996491)
(0.0138065 0.0081852 -0.0014271)
(0.0144989 0.00877187 -0.00143394)
(0.0154311 0.00979887 -0.00164509)
(0.0147647 0.0099369 -0.00225897)
(0.014737 0.00920679 -0.00164012)
(0.0138137 0.00841896 -0.00163038)
(0.0145336 0.0097359 -0.00225618)
(0.0145059 0.00900949 -0.00163804)
(0.0119815 0.00687291 -0.001598)
(0.0126938 0.00813632 -0.00222214)
(0.0126656 0.00744561 -0.00161233)
(0.0128911 0.00693861 -0.000983208)
(0.0135763 0.00799059 -0.00142437)
(0.0128871 0.00741085 -0.00141469)
(0.0129226 0.0083344 -0.00222764)
(0.0135834 0.00822292 -0.00162732)
(0.0128945 0.00763868 -0.0016165)
(0.0138669 0.010366 -0.00332281)
(0.0145579 0.0109894 -0.00333712)
(0.0154542 0.0115484 -0.00314071)
(0.0147288 0.0102107 -0.00252579)
(0.0147612 0.0109326 -0.00313196)
(0.0138395 0.0101074 -0.0031148)
(0.014498 0.0100083 -0.00252274)
(0.0145305 0.0107266 -0.00312829)
(0.0175626 0.0136335 -0.00336171)
(0.0182579 0.0142246 -0.00336226)
(0.0191639 0.014744 -0.00316123)
(0.0184352 0.0133913 -0.00254117)
(0.0184652 0.0141466 -0.00315133)
(0.0175349 0.0133589 -0.00315103)
(0.0181996 0.013194 -0.0025414)
(0.0182302 0.0139486 -0.00315128)
(0.0156626 0.00999605 -0.00164635)
(0.0163846 0.011337 -0.00227128)
(0.0163573 0.0105862 -0.00164912)
(0.0165805 0.0100216 -0.00100467)
(0.0172762 0.01112 -0.00144518)
(0.0165818 0.0105362 -0.00144426)
(0.0166161 0.0115353 -0.00227216)
(0.0172831 0.0113679 -0.00165083)
(0.0165888 0.0107823 -0.00164974)
(0.0173315 0.0134353 -0.00336138)
(0.016638 0.0128346 -0.00335926)
(0.0156853 0.0117526 -0.00314294)
(0.0163472 0.0116186 -0.00253893)
(0.0163791 0.0123611 -0.00314783)
(0.0173038 0.0131612 -0.00315078)
(0.0165785 0.0118177 -0.00253982)
(0.0166103 0.0125625 -0.00314891)
(0.0191554 0.0129245 -0.00164645)
(0.0184749 0.0131066 -0.00227463)
(0.0184467 0.0123411 -0.00165133)
(0.0179709 0.0111791 -0.00100421)
(0.0175075 0.0113138 -0.0014453)
(0.0182044 0.0118949 -0.00144526)
(0.0182388 0.0129087 -0.0022744)
(0.0175144 0.0115622 -0.00165098)
(0.0182112 0.0121447 -0.00165115)
(0.00526864 0.00354655 -0.00294431)
(0.00508592 0.00341714 -0.00290621)
(0.0119815 0.00914589 -0.00369476)
(0.0117549 0.00893941 -0.00368322)
(0.00866743 0.00621006 -0.00344827)
(0.00888135 0.00639184 -0.00347)
(0.0193426 0.0156228 -0.00376981)
(0.0191379 0.0154669 -0.00378281)
(0.015891 0.0127084 -0.00380854)
(0.0161226 0.012915 -0.00381132)
(0.00519778 0.00354981 -0.00299492)
(0.00501633 0.00342055 -0.00295558)
(0.00545359 0.0036791 -0.00298143)
(0.0056407 0.00381479 -0.00301757)
(0.00845479 0.00603077 -0.00342572)
(0.00824345 0.00585403 -0.00340234)
(0.00538147 0.00368222 -0.00303327)
(0.00556735 0.00381777 -0.00307065)
(0.00836652 0.00603193 -0.00349489)
(0.0081561 0.00585532 -0.00347048)
(0.0118817 0.00914541 -0.0037754)
(0.0116557 0.00893902 -0.00376346)
(0.00857828 0.00621111 -0.00351844)
(0.00879133 0.00639278 -0.00354113)
(0.0122086 0.00935331 -0.00370569)
(0.0124363 0.00956154 -0.003716)
(0.0156595 0.012501 -0.00380542)
(0.015428 0.0122928 -0.00380194)
(0.0121082 0.00935274 -0.00378667)
(0.0123354 0.00956089 -0.00379728)
(0.015553 0.0124994 -0.00388638)
(0.0153219 0.0122913 -0.00388318)
(0.01896 0.0114636 -0.000552264)
(0.0189008 0.0116416 -0.000744499)
(0.0186858 0.0114648 -0.000744988)
(0.0191967 0.0156239 -0.00387294)
(0.0190161 0.0154686 -0.00386965)
(0.0157843 0.0127068 -0.0038892)
(0.0160156 0.0129133 -0.00389165)
(0.0186228 0.0119963 -0.00123793)
(0.0191607 0.0121554 -0.000995981)
(0.0189561 0.0117208 -0.000772306)
(0.0188941 0.0118968 -0.000964652)
(0.0189415 0.011981 -0.00100191)
(0.0186798 0.0117223 -0.000966862)
(0.0188394 0.0121672 -0.00123079)
(0.00528954 0.00265497 -0.00193085)
(0.00509136 0.00240053 -0.0017498)
(0.00539323 0.00247238 -0.00165027)
(0.00520511 0.00236347 -0.00163131)
(0.00510394 0.00254258 -0.00190674)
(0.00520517 0.00209516 -0.00132277)
(0.00524393 0.00220359 -0.00143842)
(0.00506253 0.00224377 -0.00158445)
(0.00538525 0.00233666 -0.00150017)
(0.00519703 0.00223055 -0.00148323)
(0.00505835 0.00210042 -0.00142057)
(0.00539383 0.00219845 -0.00133731)
(0.0104099 0.00772655 -0.00360005)
(0.0106322 0.007925 -0.00361563)
(0.0120824 0.007826 -0.00239737)
(0.0118436 0.00740683 -0.00219114)
(0.0122555 0.0075476 -0.00200003)
(0.0120252 0.0073531 -0.00199463)
(0.0118539 0.00762914 -0.00239011)
(0.0106563 0.0062188 -0.00195677)
(0.010496 0.00647959 -0.00233843)
(0.0107099 0.0064548 -0.00215283)
(0.0108827 0.0064034 -0.00196378)
(0.0107205 0.00666686 -0.00234806)
(0.00910598 0.00462209 -0.00152291)
(0.00868897 0.00446466 -0.0016705)
(0.00887183 0.00464362 -0.00171178)
(0.00890625 0.00482117 -0.00187789)
(0.0090905 0.00480698 -0.0017204)
(0.008887 0.00446111 -0.00151579)
(0.00890542 0.00462559 -0.00168035)
(0.0102172 0.00546637 -0.00155427)
(0.0104249 0.00584091 -0.00176516)
(0.0100044 0.00567717 -0.0019276)
(0.0102271 0.00564569 -0.00173188)
(0.0102001 0.00566261 -0.00175847)
(0.0104424 0.00564249 -0.00155976)
(0.0100043 0.00546961 -0.00172416)
(0.0101886 0.00752984 -0.00358374)
(0.00996812 0.00733498 -0.0035667)
(0.00873436 0.00506126 -0.00224501)
(0.00887821 0.00482323 -0.00188871)
(0.00893962 0.0050363 -0.00207105)
(0.00909678 0.00498893 -0.0018985)
(0.00895077 0.00522994 -0.00225839)
(0.0104307 0.00603623 -0.00194947)
(0.0102723 0.00629431 -0.00232838)
(0.0100388 0.00590572 -0.00212531)
(0.010206 0.00585579 -0.00194184)
(0.0100496 0.00611113 -0.00231788)
(0.0120393 0.00693123 -0.00159226)
(0.0120374 0.00712502 -0.00178252)
(0.0118077 0.00715899 -0.00198784)
(0.0122502 0.00733648 -0.00180949)
(0.0120198 0.00714381 -0.00180475)
(0.0118088 0.00693423 -0.0017772)
(0.0122699 0.00712205 -0.00159616)
(0.0108951 0.00600124 -0.00157006)
(0.0106506 0.00602137 -0.00177157)
(0.0106749 0.00621869 -0.0019528)
(0.0104508 0.00582397 -0.00173928)
(0.010877 0.00620389 -0.00177771)
(0.0106684 0.00582081 -0.00156502)
(0.0106753 0.00600436 -0.00174635)
(0.0177426 0.0143344 -0.00382284)
(0.0179738 0.0145329 -0.00382367)
(0.0195205 0.0142234 -0.00247767)
(0.0192851 0.0137924 -0.00228159)
(0.0197121 0.0139016 -0.00207491)
(0.0194916 0.0137261 -0.00208168)
(0.0192868 0.0140472 -0.00249335)
(0.0180767 0.0125457 -0.00207943)
(0.0178762 0.0128618 -0.00248849)
(0.018099 0.0128027 -0.00228174)
(0.0183089 0.0127413 -0.00208089)
(0.018108 0.0130579 -0.00248956)
(0.0164656 0.0106826 -0.00164579)
(0.0159735 0.0104865 -0.00183862)
(0.0162088 0.0107222 -0.00186558)
(0.0162032 0.0109383 -0.00205919)
(0.0164423 0.0109219 -0.00186776)
(0.016232 0.0104837 -0.00164385)
(0.0162061 0.0106854 -0.00184032)
(0.0176313 0.0116703 -0.00165439)
(0.01784 0.0121097 -0.0018787)
(0.0173647 0.0119298 -0.00206639)
(0.0175999 0.0118689 -0.00184777)
(0.0176075 0.0119132 -0.00187713)
(0.0178639 0.0118661 -0.00165589)
(0.0173679 0.011673 -0.00184682)
(0.0175114 0.0141349 -0.00382187)
(0.0172801 0.0139342 -0.00382073)
(0.0160182 0.0112661 -0.00247442)
(0.0162135 0.010957 -0.00206337)
(0.0162414 0.0112179 -0.00227013)
(0.0164469 0.0111577 -0.00206577)
(0.0162508 0.0114679 -0.00247677)
(0.0178444 0.0123495 -0.00207782)
(0.0176444 0.012665 -0.00248727)
(0.0174032 0.0122136 -0.00227845)
(0.0176119 0.0121526 -0.00207607)
(0.0174125 0.0124674 -0.00248591)
(0.0195117 0.0132434 -0.00166329)
(0.0194642 0.0134337 -0.00185685)
(0.0192545 0.0135133 -0.0020696)
(0.0197118 0.0136759 -0.00188629)
(0.0194903 0.0134899 -0.00188488)
(0.0192547 0.0132526 -0.00185124)
(0.0197318 0.0134314 -0.00166759)
(0.0183287 0.0122562 -0.00165854)
(0.0180723 0.0123054 -0.00188018)
(0.0180607 0.0125174 -0.00206918)
(0.0178319 0.0120642 -0.00184862)
(0.0183046 0.0125007 -0.00188154)
(0.0180963 0.0120614 -0.00165727)
(0.018064 0.0122591 -0.00184938)
(0.00506982 0.00266592 -0.00208791)
(0.00488667 0.00241067 -0.00189088)
(0.00494794 0.00249278 -0.00196164)
(0.0048886 0.00255381 -0.00205919)
(0.00476878 0.0023844 -0.0019331)
(0.00474503 0.00211337 -0.00162462)
(0.00507563 0.00220995 -0.00155006)
(0.00490113 0.00225076 -0.00169307)
(0.00494395 0.00235499 -0.00180134)
(0.00489337 0.00210695 -0.00152858)
(0.00476458 0.00224935 -0.00177486)
(0.00492424 0.00221621 -0.00164936)
(0.00547735 0.0027707 -0.00195429)
(0.00558356 0.00258462 -0.00166861)
(0.00565494 0.00273893 -0.00181411)
(0.00577602 0.0027002 -0.00168636)
(0.0056673 0.00288974 -0.00197707)
(0.0068055 0.00469384 -0.00321436)
(0.00660664 0.00453971 -0.00318391)
(0.00697214 0.00346351 -0.00178093)
(0.00663524 0.00336954 -0.00190937)
(0.00684881 0.00367324 -0.00210028)
(0.00676817 0.00332805 -0.00176653)
(0.00664722 0.0035345 -0.0020813)
(0.00845265 0.00414762 -0.00150059)
(0.00847378 0.00430654 -0.00166026)
(0.00865439 0.00448304 -0.0017028)
(0.00826121 0.0043393 -0.00184307)
(0.00866921 0.00430292 -0.00150835)
(0.00843822 0.00432531 -0.00169344)
(0.00825989 0.0041513 -0.00164963)
(0.00739077 0.00341653 -0.00145652)
(0.00717075 0.00344233 -0.00162881)
(0.0070066 0.00328394 -0.00157725)
(0.0072138 0.00359537 -0.00177601)
(0.00718297 0.00327977 -0.00144658)
(0.0073782 0.00358167 -0.00164066)
(0.00721163 0.0034206 -0.00159038)
(0.00577764 0.00241518 -0.00136487)
(0.00543175 0.00231015 -0.00145576)
(0.00557568 0.00244613 -0.00151655)
(0.00562534 0.00257229 -0.00164306)
(0.00558468 0.00230513 -0.00135133)
(0.00576825 0.00255897 -0.00153239)
(0.00562173 0.00242008 -0.00147261)
(0.0067723 0.00301607 -0.00142544)
(0.00696497 0.00330623 -0.00161651)
(0.00660438 0.00318693 -0.00173)
(0.00680327 0.00315053 -0.00156369)
(0.0067609 0.00317339 -0.00160373)
(0.00697679 0.00314628 -0.00143622)
(0.00660167 0.00302043 -0.00154967)
(0.00700611 0.00485096 -0.00324389)
(0.00720841 0.00501102 -0.00327251)
(0.00851919 0.00489529 -0.00223113)
(0.00866085 0.00466028 -0.00187851)
(0.00829393 0.00454595 -0.00203302)
(0.00844475 0.00450015 -0.0018679)
(0.0083053 0.00473211 -0.00221671)
(0.00717784 0.0036022 -0.00179481)
(0.00705213 0.0038152 -0.00211865)
(0.00724538 0.00378722 -0.00195972)
(0.00738518 0.0037441 -0.00180818)
(0.00725713 0.00396034 -0.00213642)
(0.00525327 0.00278136 -0.00211597)
(0.00512934 0.0026045 -0.00198958)
(0.00543783 0.00274832 -0.0019685)
(0.00543891 0.00290013 -0.00214337)
(0.00531293 0.00271957 -0.00201693)
(0.00672519 0.00469601 -0.00327468)
(0.00652744 0.00454202 -0.00324305)
(0.00645735 0.00347985 -0.00216849)
(0.00639806 0.0033777 -0.00208578)
(0.00659529 0.003682 -0.00229396)
(0.00639778 0.00354352 -0.0022705)
(0.00626179 0.00334489 -0.00214473)
(0.00785057 0.00415899 -0.0019605)
(0.00825532 0.00431048 -0.00182775)
(0.00805043 0.00434366 -0.00200619)
(0.00808068 0.00449436 -0.00215017)
(0.00804429 0.00415538 -0.00181397)
(0.00787214 0.00433704 -0.00213259)
(0.00805896 0.0043139 -0.00197711)
(0.00683073 0.00342993 -0.00186958)
(0.00665245 0.00345659 -0.00201514)
(0.0068091 0.00328889 -0.0017214)
(0.00701762 0.00360051 -0.00192299)
(0.007011 0.0034254 -0.00173802)
(0.00663157 0.00329359 -0.00184983)
(0.00685171 0.0035955 -0.00203613)
(0.00528937 0.00243204 -0.00169738)
(0.00526008 0.00231635 -0.00157105)
(0.00512554 0.00246399 -0.00182728)
(0.00545413 0.00257876 -0.00176227)
(0.0051057 0.00232243 -0.00167361)
(0.0054467 0.00242612 -0.00159155)
(0.00530933 0.00257636 -0.00185268)
(0.00623856 0.00303074 -0.00180879)
(0.00645491 0.00332092 -0.00199359)
(0.00641733 0.00319256 -0.00186675)
(0.00660888 0.00315564 -0.0017043)
(0.00641042 0.00302568 -0.00168672)
(0.00625917 0.00318852 -0.00197149)
(0.00643416 0.00316052 -0.00182957)
(0.00692472 0.004853 -0.00330538)
(0.00712597 0.00501293 -0.00333516)
(0.00823458 0.00490202 -0.00245855)
(0.00802671 0.00455225 -0.00224249)
(0.00808164 0.00467285 -0.0023365)
(0.00802442 0.00473909 -0.0024402)
(0.00787329 0.00451318 -0.00231766)
(0.00665469 0.00361806 -0.00219164)
(0.00679457 0.0038237 -0.00231678)
(0.00699663 0.00379467 -0.00214897)
(0.00699557 0.00396858 -0.00233895)
(0.00685378 0.00375948 -0.00221417)
(0.0103145 0.00772673 -0.00367696)
(0.010536 0.00792508 -0.00369322)
(0.0117456 0.00782928 -0.002671)
(0.0115255 0.00740998 -0.00244763)
(0.0115668 0.00755379 -0.0025555)
(0.0115198 0.00763261 -0.00266194)
(0.0113425 0.00735964 -0.00254622)
(0.0100119 0.00622757 -0.00247851)
(0.0101802 0.00648426 -0.00259624)
(0.0104062 0.00645885 -0.00239819)
(0.0104015 0.00667132 -0.00260858)
(0.0102316 0.00641178 -0.00249127)
(0.00847983 0.0046323 -0.00200872)
(0.00846766 0.00446846 -0.00184107)
(0.00868714 0.00482509 -0.0020499)
(0.00829056 0.00465454 -0.00216719)
(0.00868127 0.00462925 -0.00185392)
(0.00826874 0.0044717 -0.00199318)
(0.00850175 0.00481751 -0.00218363)
(0.0095531 0.00547474 -0.00207846)
(0.00979352 0.00584918 -0.00227037)
(0.00977215 0.00568038 -0.00211276)
(0.00998692 0.00564856 -0.00192157)
(0.0097667 0.00547261 -0.0019114)
(0.00957553 0.00567125 -0.00225733)
(0.00977097 0.00565051 -0.00209083)
(0.0100938 0.00753012 -0.00365995)
(0.0098741 0.00733536 -0.00364215)
(0.00844608 0.00506775 -0.00247628)
(0.00866186 0.00504196 -0.00229164)
(0.00829135 0.00483536 -0.00235473)
(0.00865886 0.00523618 -0.00249339)
(0.00850237 0.00500061 -0.00237234)
(0.00979312 0.00604539 -0.00246516)
(0.00995977 0.0062992 -0.00258332)
(0.00974442 0.00591034 -0.00236232)
(0.00974031 0.00611623 -0.00256982)
(0.0095753 0.00586536 -0.00245121)
(0.0113208 0.00693698 -0.00216277)
(0.0117783 0.00712697 -0.00198782)
(0.0115567 0.00716119 -0.00218873)
(0.0115685 0.00734209 -0.00235495)
(0.0115519 0.00693629 -0.00198095)
(0.011344 0.00714973 -0.00234625)
(0.0115452 0.0071275 -0.00217103)
(0.0102096 0.00600858 -0.00211397)
(0.0100125 0.00602929 -0.00228286)
(0.0104353 0.0062215 -0.00214468)
(0.0102081 0.00582673 -0.00193131)
(0.0104301 0.006007 -0.00194062)
(0.0102323 0.00621146 -0.00229479)
(0.00998983 0.00582849 -0.00210266)
(0.0123115 0.00802406 -0.00240427)
(0.0124862 0.00774336 -0.0020052)
(0.0125309 0.00799528 -0.00221002)
(0.0127174 0.00794027 -0.00201014)
(0.0125411 0.00822321 -0.00241082)
(0.0138113 0.010822 -0.00376597)
(0.0135812 0.0106112 -0.00375898)
(0.0141118 0.00913978 -0.00203559)
(0.013685 0.00899526 -0.00223545)
(0.0139266 0.00943498 -0.00244341)
(0.0138787 0.00893827 -0.00203179)
(0.0136949 0.00923158 -0.00243873)
(0.0157646 0.0100851 -0.00163966)
(0.0157409 0.0102873 -0.00183679)
(0.0159753 0.010522 -0.0018633)
(0.0155055 0.0103378 -0.00205303)
(0.0159983 0.0102845 -0.00164181)
(0.0157417 0.0103215 -0.0018609)
(0.0155082 0.0100879 -0.00183481)
(0.0145956 0.00908642 -0.00162768)
(0.0143401 0.0091161 -0.00184403)
(0.0141136 0.00888991 -0.00181938)
(0.0143435 0.00933286 -0.00203907)
(0.014362 0.00888705 -0.00162503)
(0.0145736 0.00931687 -0.00184714)
(0.0143458 0.00908929 -0.0018224)
(0.0127325 0.00750761 -0.00160349)
(0.0122665 0.00731716 -0.00178757)
(0.012481 0.00753045 -0.00181402)
(0.0124947 0.00774103 -0.00200506)
(0.012501 0.00731421 -0.0015999)
(0.0127122 0.00772561 -0.00181836)
(0.0124961 0.00751054 -0.00179237)
(0.0138952 0.00848946 -0.00161943)
(0.0141069 0.00891564 -0.0018408)
(0.013648 0.00873138 -0.00202817)
(0.0138817 0.00869089 -0.00181617)
(0.0138738 0.0087156 -0.00183744)