/*--------------------------------*- C++ -*----------------------------------*\
| =========                 |                                                 |
| \\      /  F ield         | OpenFOAM: The Open Source CFD Toolbox           |
|  \\    /   O peration     | Version:  2012                                  |
|   \\  /    A nd           | Website:  www.openfoam.com                      |
|    \\/     M anipulation  |                                                 |
\*---------------------------------------------------------------------------*/
FoamFile
{
    version     2.0;
    format      ascii;
    class       volVectorField;
    location    "0.104/fluid";
    object      cellMotionU;
}
// * * * * * * * * * * * * * * * * * * * * * * * * * * * * * * * * * * * * * //

dimensions      [0 1 -1 0 0 0 0];


internalField   nonuniform List<vector> 
16422
(
(2.61129e-05 -5.83924e-07 3.98127e-06)
(0.000216182 -4.24569e-07 3.61649e-05)
(0.000351719 1.14224e-05 6.69978e-05)
(0.000439615 3.59357e-05 9.66994e-05)
(0.000492439 7.14613e-05 0.000125331)
(0.000514442 0.000115597 0.000153182)
(0.000504868 0.000164937 0.000179479)
(0.000472407 0.000210367 0.000200589)
(0.000420201 0.000245089 0.000212344)
(0.000360088 0.000259791 0.000209498)
(0.000312829 0.00024149 0.000187294)
(0.000267427 0.000188719 0.000140705)
(0.000166032 0.000114278 6.19234e-05)
(5.26379e-07 4.36719e-05 -1.41696e-05)
(-2.7357e-06 1.3564e-05 -1.30837e-05)
(2.71436e-05 -2.73062e-07 4.34009e-06)
(0.000228912 1.13115e-06 3.99638e-05)
(0.000376659 1.05495e-05 7.37148e-05)
(0.000477577 2.88955e-05 0.000105736)
(0.000540626 5.59503e-05 0.000136627)
(0.000565725 9.07012e-05 0.000166169)
(0.000553647 0.000129378 0.000192347)
(0.000514247 0.000165588 0.000211428)
(0.000453463 0.000194968 0.000219614)
(0.000380581 0.00020754 0.000211672)
(0.000310458 0.000193426 0.00018421)
(0.00024236 0.000154534 0.000135916)
(0.000145431 0.000101744 6.67473e-05)
(1.61102e-05 4.93379e-05 -1.17461e-06)
(-4.53969e-05 2.19614e-05 -2.04694e-05)
(2.75842e-05 -7.53572e-08 4.64398e-06)
(0.000232388 9.54771e-07 4.20555e-05)
(0.000386615 5.7508e-06 7.7133e-05)
(0.000492874 1.49073e-05 0.000109884)
(0.00056096 2.83043e-05 0.000141544)
(0.000588322 4.58861e-05 0.000170956)
(0.000572514 6.60413e-05 0.000195688)
(0.000523466 8.62158e-05 0.000212064)
(0.000453238 0.000102944 0.000216059)
(0.000370841 0.000110745 0.000203586)
(0.000285327 0.000104252 0.000172982)
(0.000199612 8.59864e-05 0.000125351)
(0.000106694 6.15299e-05 6.68103e-05)
(1.3303e-05 3.96163e-05 1.66328e-05)
(-3.68257e-05 3.29985e-05 4.2355e-06)
(3.01425e-05 -9.6696e-07 3.83909e-06)
(0.000252339 -3.50256e-06 3.49981e-05)
(0.000416367 7.2173e-06 6.57313e-05)
(0.00052484 2.93122e-05 9.37252e-05)
(0.000596016 6.29357e-05 0.000121168)
(0.000635293 0.000104915 0.000147851)
(0.000649183 0.000153289 0.000173543)
(0.000642833 0.000197241 0.000194214)
(0.000615942 0.000232109 0.000206349)
(0.000573814 0.000247915 0.000204726)
(0.000521708 0.000234812 0.000184194)
(0.000448746 0.000191901 0.000142215)
(0.000317083 0.000128082 7.53317e-05)
(0.000109075 6.24083e-05 3.70453e-06)
(1.04106e-05 2.32245e-05 -1.38603e-05)
(3.16445e-05 -6.2391e-07 4.23708e-06)
(0.000265764 -1.82492e-06 3.83121e-05)
(0.000443025 6.53026e-06 7.16452e-05)
(0.000563389 2.40361e-05 0.000102684)
(0.000642464 5.08515e-05 0.000132922)
(0.000684277 8.44354e-05 0.000161195)
(0.000693948 0.000122249 0.00018643)
(0.000680164 0.000158368 0.000205266)
(0.00064592 0.000187225 0.000213243)
(0.000592232 0.000201106 0.000206418)
(0.000522803 0.00019181 0.000181592)
(0.000430071 0.000159629 0.000137157)
(0.000299694 0.000112674 7.60422e-05)
(0.000137554 6.68799e-05 1.68784e-05)
(4.09754e-05 4.18498e-05 -3.8456e-06)
(3.26119e-05 -2.68682e-07 4.60512e-06)
(0.000269867 -8.5599e-07 4.01505e-05)
(0.000451636 3.46609e-06 7.46419e-05)
(0.000576844 1.26905e-05 0.000106902)
(0.000658752 2.60355e-05 0.000137688)
(0.000701511 4.3336e-05 0.000166429)
(0.000706643 6.34763e-05 0.00019031)
(0.000683143 8.39844e-05 0.000206226)
(0.000640159 0.000100649 0.000210225)
(0.000577507 0.000109457 0.000199287)
(0.000493298 0.000106109 0.000171688)
(0.000388358 9.1191e-05 0.000128355)
(0.000265995 6.90199e-05 7.59811e-05)
(0.000145602 4.84953e-05 3.16137e-05)
(7.81459e-05 3.85036e-05 1.67473e-05)
(3.37144e-05 -1.12594e-06 3.02173e-06)
(0.000282043 -5.21725e-06 2.73046e-05)
(0.000466933 3.45526e-06 5.08349e-05)
(0.000591874 2.42686e-05 7.26844e-05)
(0.000675681 5.62596e-05 9.42127e-05)
(0.000728687 9.63622e-05 0.000115419)
(0.000760796 0.000140782 0.000135851)
(0.000777148 0.000182054 0.000152867)
(0.000771663 0.000216063 0.000163542)
(0.000738081 0.000234199 0.000163806)
(0.000672569 0.000229006 0.000149934)
(0.000569623 0.000198361 0.000120012)
(0.000422006 0.000149576 7.34144e-05)
(0.000248665 9.99441e-05 2.46119e-05)
(0.000151822 6.67489e-05 4.11277e-06)
(3.56756e-05 -7.95632e-07 3.32573e-06)
(0.000297019 -3.47516e-06 2.96134e-05)
(0.000494149 3.67743e-06 5.54298e-05)
(0.00062793 2.03174e-05 7.98059e-05)
(0.000717635 4.62855e-05 0.000103387)
(0.000773513 7.94059e-05 0.000126047)
(0.000803569 0.000114973 0.000145846)
(0.000813952 0.000149713 0.000160768)
(0.000802339 0.000178163 0.000167766)
(0.000761727 0.000194209 0.000164795)
(0.000687349 0.000190979 0.000148226)
(0.000573609 0.000167638 0.000116239)
(0.000431379 0.000131074 7.37748e-05)
(0.000283379 9.51646e-05 3.29351e-05)
(0.000205427 7.20943e-05 1.531e-05)
(3.66211e-05 -3.91964e-07 3.56591e-06)
(0.000301344 -1.90399e-06 3.08017e-05)
(0.000501768 1.75871e-06 5.75486e-05)
(0.000639089 1.06096e-05 8.31092e-05)
(0.000729385 2.36558e-05 0.000107509)
(0.000784766 4.09339e-05 0.000129595)
(0.000810291 6.096e-05 0.000148304)
(0.000811593 8.10585e-05 0.000161056)
(0.000792214 9.78331e-05 0.000165161)
(0.00074477 0.000107849 0.0001589)
(0.000661749 0.00010755 0.000140156)
(0.000545325 9.68763e-05 0.000109167)
(0.000410843 7.88714e-05 7.18805e-05)
(0.000290753 6.08372e-05 4.00409e-05)
(0.00023579 4.81608e-05 2.62063e-05)
(3.56861e-05 -1.16322e-06 1.5377e-06)
(0.000297994 -5.97661e-06 1.38849e-05)
(0.00049506 1.64994e-06 2.59458e-05)
(0.000628677 2.14002e-05 3.72636e-05)
(0.00071993 5.22696e-05 4.84422e-05)
(0.00078096 8.9908e-05 5.94711e-05)
(0.000824263 0.000130349 7.02418e-05)
(0.000855293 0.000168766 7.92437e-05)
(0.000862814 0.000201333 8.5471e-05)
(0.000832206 0.000221682 8.68992e-05)
(0.000755928 0.000222646 8.13762e-05)
(0.000635326 0.000201853 6.76304e-05)
(0.000491362 0.000167117 4.60314e-05)
(0.00037013 0.000131562 2.38863e-05)
(0.000333285 0.000105221 1.19413e-05)
(3.75232e-05 -8.73045e-07 1.65712e-06)
(0.000314308 -4.18693e-06 1.50153e-05)
(0.000523146 2.2014e-06 2.80333e-05)
(0.000664082 1.78269e-05 4.03224e-05)
(0.000758962 4.28731e-05 5.2643e-05)
(0.000822271 7.36135e-05 6.42742e-05)
(0.000865802 0.000107488 7.47577e-05)
(0.000893589 0.000141678 8.33888e-05)
(0.000897824 0.000169477 8.79976e-05)
(0.000864708 0.00018686 8.7878e-05)
(0.000786645 0.000188334 8.07979e-05)
(0.000665499 0.000172109 6.61171e-05)
(0.000522982 0.000144463 4.59714e-05)
(0.000403756 0.000115089 2.67306e-05)
(0.000369048 9.30573e-05 1.65246e-05)
(3.79312e-05 -4.71816e-07 1.70757e-06)
(0.00031902 -2.44779e-06 1.54634e-05)
(0.000529884 7.13559e-07 2.89896e-05)
(0.000673042 9.13694e-06 4.22862e-05)
(0.000767926 2.20329e-05 5.52532e-05)
(0.000830064 3.78234e-05 6.69304e-05)
(0.00086933 5.69708e-05 7.63442e-05)
(0.000889113 7.7357e-05 8.37345e-05)
(0.000885939 9.34598e-05 8.67259e-05)
(0.000849374 0.000104902 8.48547e-05)
(0.000768793 0.000106671 7.64521e-05)
(0.000651093 9.88888e-05 6.19733e-05)
(0.000515617 8.48449e-05 4.39872e-05)
(0.00040702 6.83997e-05 2.82856e-05)
(0.000379014 5.54625e-05 1.95831e-05)
(9.83907e-06 1.735e-05 -6.24921e-06)
(9.24328e-05 -1.45544e-05 -9.34624e-07)
(2.36618e-05 1.95114e-05 -4.62685e-06)
(9.57838e-05 -1.30653e-05 -1.08625e-06)
(9.58302e-06 1.76824e-05 -1.21876e-05)
(6.73428e-05 2.3433e-05 -5.45229e-07)
(-2.762e-05 4.02115e-05 -1.94472e-05)
(-2.47315e-05 1.65059e-05 -1.71295e-05)
(-8.37757e-06 1.17962e-05 -1.31016e-05)
(7.46074e-05 -9.23401e-06 -1.50241e-06)
(-5.43959e-05 1.29563e-05 -2.5483e-05)
(1.00936e-05 2.10208e-05 -3.1892e-06)
(-4.06364e-06 4.14704e-05 -1.60245e-05)
(-1.08776e-05 1.82882e-05 -1.51664e-05)
(7.42458e-05 5.34947e-05 -3.33658e-06)
(3.23939e-07 2.10221e-05 -1.665e-05)
(4.21307e-05 2.251e-05 1.9673e-06)
(4.72292e-05 2.37373e-05 1.44108e-06)
(7.95814e-05 -5.11008e-06 -1.36036e-06)
(-4.17924e-05 1.58578e-05 -2.25661e-05)
(1.37412e-05 2.32216e-05 -2.23484e-06)
(6.27652e-06 1.87311e-05 -1.37982e-05)
(5.34067e-05 2.33553e-05 -8.42839e-07)
(5.25558e-06 3.01023e-05 -1.26798e-05)
(3.42804e-05 3.57651e-05 3.47115e-06)
(1.1861e-05 2.17505e-05 -1.29807e-05)
(5.47277e-05 2.76386e-05 -2.25203e-07)
(9.2905e-05 5.20362e-05 -2.9639e-06)
(0.000114275 4.66659e-05 6.21726e-06)
(3.04268e-05 2.02912e-05 8.19763e-07)
(3.38481e-05 2.22402e-05 1.6908e-06)
(4.64146e-05 1.72783e-05 3.25492e-06)
(5.96729e-05 3.51117e-06 2.75428e-06)
(5.07114e-05 2.51056e-05 3.75589e-06)
(6.26751e-05 2.10324e-05 4.92557e-06)
(2.87539e-05 2.0356e-05 -5.01096e-06)
(5.49708e-05 2.66031e-05 2.88695e-06)
(6.71609e-05 2.43212e-05 4.10665e-06)
(6.66496e-05 4.05222e-06 3.18419e-06)
(9.0706e-05 4.50301e-06 -8.73317e-07)
(6.87757e-05 1.15081e-05 1.68857e-06)
(0.000118139 2.16791e-05 1.93209e-05)
(8.45679e-06 1.66435e-05 -1.16162e-05)
(2.83828e-05 1.88629e-05 -4.89866e-06)
(3.71059e-05 1.89598e-05 -3.57927e-06)
(0.000117949 2.09776e-05 1.84142e-05)
(8.29175e-05 2.70063e-05 1.54149e-06)
(0.000117621 7.64671e-06 -1.97001e-06)
(7.06178e-05 2.2407e-05 2.51472e-06)
(0.000118962 2.16707e-05 1.87598e-05)
(2.22265e-05 1.84291e-05 -7.85458e-06)
(1.74689e-05 1.85794e-05 -9.52658e-06)
(3.29187e-05 1.83181e-05 -5.79392e-06)
(3.77089e-05 2.12586e-05 -2.71088e-06)
(5.12607e-05 1.95499e-05 -6.13532e-07)
(4.50109e-05 2.06521e-05 -2.13755e-06)
(0.000119033 2.09721e-05 1.76902e-05)
(8.37571e-05 1.47817e-05 -7.7289e-07)
(8.45552e-05 2.5763e-05 2.80419e-07)
(5.64568e-05 1.97623e-05 -1.51597e-06)
(0.000118529 7.66486e-06 -2.63083e-06)
(6.45451e-05 1.34617e-05 1.08228e-07)
(7.51722e-05 2.30607e-05 2.39177e-06)
(6.93901e-05 2.61501e-05 8.0757e-06)
(9.19336e-05 3.65827e-05 1.28097e-05)
(8.89081e-05 2.98991e-05 1.2805e-05)
(9.46313e-05 3.42848e-05 1.43698e-05)
(9.27508e-05 2.96565e-05 1.46964e-05)
(6.85071e-05 2.65517e-05 6.96892e-06)
(6.78527e-05 2.53481e-05 8.70429e-06)
(8.26745e-05 2.76286e-05 1.36747e-05)
(8.05749e-05 2.51136e-05 1.41084e-05)
(6.36308e-05 2.30564e-05 8.59165e-06)
(9.1107e-05 3.09446e-05 1.4609e-05)
(8.9732e-05 2.74907e-05 1.51008e-05)
(7.64338e-05 2.55562e-05 1.32716e-05)
(7.40422e-05 2.43639e-05 1.36691e-05)
(5.82075e-05 2.22148e-05 8.28884e-06)
(7.42218e-05 2.51617e-05 1.28135e-05)
(7.71923e-05 2.84786e-05 1.18263e-05)
(6.06444e-05 2.50759e-05 8.23424e-06)
(9.57294e-05 -1.2314e-05 -1.69355e-06)
(9.55969e-05 -8.49206e-06 5.70429e-06)
(8.13687e-05 1.32623e-05 1.08694e-05)
(9.52266e-05 -4.56856e-06 7.78642e-06)
(7.582e-05 2.99734e-05 8.62892e-06)
(9.12602e-05 3.14055e-05 1.23015e-05)
(9.70877e-05 4.00041e-05 1.171e-05)
(9.4552e-05 3.11564e-05 1.40218e-05)
(9.84585e-05 3.79695e-05 1.29739e-05)
(7.64794e-05 3.00878e-05 7.69661e-06)
(7.42686e-05 2.88139e-05 9.29716e-06)
(8.32638e-05 2.5946e-05 1.37607e-05)
(8.68182e-05 3.05103e-05 1.2742e-05)
(9.16417e-05 2.86465e-05 1.44768e-05)
(7.03931e-05 2.59268e-05 9.3424e-06)
(9.4904e-05 3.42379e-05 1.32875e-05)
(0.000108574 -2.95934e-06 7.33271e-06)
(9.44777e-05 2.26412e-05 9.32121e-06)
(9.82927e-05 1.796e-05 1.14816e-05)
(0.000110825 9.25935e-06 6.49396e-06)
(0.000106427 -7.28986e-06 5.22343e-06)
(9.85141e-05 -1.12903e-05 -1.88468e-06)
(9.8279e-05 -7.5337e-06 5.52109e-06)
(0.000106002 -9.07304e-06 -2.14643e-06)
(0.000106131 -2.40602e-06 7.35296e-06)
(8.56704e-05 1.31699e-05 1.11406e-05)
(9.78919e-05 -3.61346e-06 7.6115e-06)
(9.63775e-05 1.67512e-05 1.16161e-05)
(0.000108933 -5.13206e-06 5.03734e-06)
(0.000107481 8.35092e-06 -2.25832e-06)
(0.000111528 7.77428e-06 4.34554e-06)
(0.000108282 -7.01306e-06 -2.2626e-06)
(3.29626e-05 1.68173e-05 -3.61365e-06)
(7.42881e-05 2.57624e-05 7.71228e-06)
(7.02826e-05 2.58064e-05 7.39676e-06)
(6.98317e-05 2.33756e-05 6.04492e-06)
(5.93912e-05 2.32979e-05 3.78943e-06)
(6.09895e-05 2.08969e-05 3.2832e-06)
(5.30326e-05 2.1635e-05 1.83061e-06)
(8.87456e-05 2.25333e-05 6.10124e-06)
(0.000117762 1.45177e-05 8.89891e-06)
(9.16859e-05 2.32869e-05 9.3516e-06)
(7.58882e-05 2.11851e-05 5.42463e-06)
(0.000102944 2.29199e-05 8.44925e-06)
(9.46411e-05 2.35465e-05 4.34038e-06)
(0.000117733 1.36294e-05 7.53738e-06)
(0.000105409 2.32571e-05 9.40286e-07)
(0.00010647 2.1837e-05 5.00798e-06)
(9.49833e-05 2.7215e-05 1.51814e-06)
(4.42109e-05 1.96095e-05 -1.60647e-06)
(7.44417e-05 2.70345e-05 7.82322e-06)
(8.09991e-05 2.80963e-05 7.85629e-06)
(7.41202e-05 2.43305e-05 6.41051e-06)
(6.80139e-05 2.62056e-05 5.01531e-06)
(5.80147e-05 2.2704e-05 2.64656e-06)
(6.94713e-05 2.31134e-05 4.14968e-06)
(9.34654e-05 2.33226e-05 4.62469e-06)
(0.000118762 1.45224e-05 8.20223e-06)
(9.04645e-05 2.3524e-05 7.87881e-06)
(9.41381e-05 2.37289e-05 8.61654e-06)
(0.000107901 2.00834e-05 5.71292e-06)
(0.000104345 2.30348e-05 7.03466e-06)
(8.32408e-05 2.28563e-05 5.2576e-06)
(9.74365e-05 2.30384e-05 2.04606e-06)
(0.000118732 1.36371e-05 6.83963e-06)
(0.000102189 2.15374e-05 -2.21824e-06)
(0.000105211 2.26908e-05 -7.61489e-07)
(0.000109059 1.84858e-05 3.66664e-06)
(0.000107457 2.16623e-05 3.28789e-06)
(9.4858e-05 2.53569e-05 -8.63678e-07)
(0.000102852 3.77781e-05 1.66169e-05)
(0.000112477 4.94538e-05 1.85269e-05)
(0.000109332 2.62375e-05 1.77731e-05)
(0.000113701 4.91803e-05 1.9307e-05)
(0.000110748 2.52318e-05 1.86061e-05)
(9.84112e-05 3.58693e-05 1.51491e-05)
(9.14377e-05 2.9581e-05 1.67787e-05)
(9.59859e-05 3.42825e-05 1.87312e-05)
(9.37684e-05 1.72719e-05 1.82505e-05)
(8.82921e-05 2.74255e-05 1.66277e-05)
(9.94549e-05 3.64707e-05 1.89409e-05)
(9.74052e-05 1.8216e-05 1.84965e-05)
(9.33642e-05 -2.15874e-06 -2.23456e-06)
(9.76839e-05 -6.90637e-07 -2.10168e-06)
(0.000114972 6.52878e-06 -1.79606e-06)
(0.000110656 4.58507e-06 -1.79634e-06)
(7.96977e-05 2.61232e-05 1.57267e-05)
(9.28073e-05 3.23066e-05 1.85752e-05)
(9.0741e-05 1.64708e-05 1.81389e-05)
(8.56672e-05 2.64187e-05 1.65811e-05)
(8.93868e-05 3.01577e-05 1.83541e-05)
(8.7634e-05 1.53083e-05 1.79971e-05)
(8.7258e-05 -7.44495e-07 2.85489e-06)
(9.18196e-05 -1.86522e-06 -9.71043e-07)
(8.74924e-05 -3.13884e-06 -1.12837e-06)
(9.15808e-05 5.42671e-07 3.05287e-06)
(8.77424e-05 6.74458e-06 1.43113e-05)
(9.12135e-05 1.63234e-05 1.70996e-05)
(8.65675e-05 1.47294e-05 1.68148e-05)
(9.20661e-05 8.08086e-06 1.45426e-05)
(7.78343e-05 2.79336e-05 1.37898e-05)
(9.13619e-05 1.68841e-05 1.74479e-05)
(9.29364e-05 3.45864e-05 1.57848e-05)
(8.83573e-05 1.55373e-05 1.7357e-05)
(8.94529e-05 3.22421e-05 1.56227e-05)
(8.53216e-05 2.83337e-05 1.48017e-05)
(9.25969e-05 -6.59347e-07 3.57765e-07)
(9.66412e-05 -1.72645e-06 -3.58341e-06)
(9.22959e-05 -3.00286e-06 -3.43938e-06)
(9.69461e-05 6.32e-07 2.23659e-07)
(9.27004e-05 6.58274e-06 1.20487e-05)
(9.38369e-05 1.69479e-05 1.51139e-05)
(8.87983e-05 1.52954e-05 1.49519e-05)
(9.7055e-05 7.92326e-06 1.20027e-05)
(9.19226e-05 -2.61461e-06 -2.27997e-06)
(8.75939e-05 -3.88585e-06 -2.42203e-06)
(9.65251e-05 -2.46899e-06 -4.79049e-06)
(9.21811e-05 -3.74235e-06 -4.64492e-06)
(0.000110775 1.56372e-05 1.53982e-05)
(0.000107967 2.92328e-05 1.66578e-05)
(0.000110477 2.58585e-05 1.79505e-05)
(0.000115073 1.76545e-05 1.54869e-05)
(9.73397e-05 2.49999e-06 3.3011e-06)
(9.32609e-05 -1.40735e-06 -9.20633e-07)
(9.75808e-05 6.68846e-08 -7.74693e-07)
(9.30212e-05 1.0065e-06 3.11647e-06)
(9.78358e-05 1.00927e-05 1.48413e-05)
(9.27959e-05 1.65803e-05 1.71993e-05)
(9.77275e-05 1.87539e-05 1.75029e-05)
(9.3509e-05 8.55832e-06 1.46178e-05)
(0.000110309 7.85926e-06 3.71563e-06)
(0.000114873 7.3167e-06 -4.38385e-07)
(0.000110556 5.36458e-06 -4.4389e-07)
(0.000114635 9.81659e-06 3.73382e-06)
(0.000103342 4.00052e-05 1.47885e-05)
(0.000110482 2.66095e-05 1.70534e-05)
(0.000113021 5.10937e-05 1.55879e-05)
(0.000111634 2.57906e-05 1.77829e-05)
(0.000113961 5.20322e-05 1.61007e-05)
(0.000100246 3.74522e-05 1.37611e-05)
(9.22928e-05 3.15356e-05 1.52029e-05)
(9.48561e-05 1.74275e-05 1.7641e-05)
(9.68206e-05 3.65698e-05 1.6e-05)
(9.83468e-05 1.86113e-05 1.78155e-05)
(8.94376e-05 2.89522e-05 1.51147e-05)
(0.00010015 3.89591e-05 1.61266e-05)
(0.000115938 1.55086e-05 1.18207e-05)
(0.00011068 2.97732e-05 1.41851e-05)
(0.000113314 2.6573e-05 1.52929e-05)
(0.000120266 1.7588e-05 1.18527e-05)
(0.000102751 2.59265e-06 5.4319e-08)
(9.80921e-05 -1.26778e-06 -3.62936e-06)
(9.8397e-05 1.09675e-06 1.80455e-07)
(0.000102447 2.06407e-07 -3.76261e-06)
(0.000102853 9.9389e-06 1.19257e-05)
(9.56477e-05 1.71806e-05 1.51857e-05)
(9.85054e-05 8.40169e-06 1.19854e-05)
(0.000100606 1.9411e-05 1.53311e-05)
(0.000115844 7.95105e-06 -2.19004e-07)
(0.000119896 7.41989e-06 -4.10845e-06)
(0.000120194 9.89625e-06 -2.46166e-07)
(0.000115555 5.49739e-06 -4.07277e-06)
(6.83323e-05 2.43042e-05 6.95697e-06)
(9.70481e-05 3.59081e-05 1.43503e-05)
(9.7001e-05 2.8767e-05 1.43804e-05)
(9.33596e-05 2.589e-05 1.2654e-05)
(9.06754e-05 3.20845e-05 1.26957e-05)
(8.81153e-05 2.77892e-05 1.13039e-05)
(8.25702e-05 2.56976e-05 1.02482e-05)
(0.000103061 2.58296e-05 1.24811e-05)
(0.000105027 3.10327e-05 1.55971e-05)
(0.000117853 1.81766e-05 1.44066e-05)
(0.000105352 2.32811e-05 1.42855e-05)
(0.000113449 2.67242e-05 1.51497e-05)
(9.70079e-05 2.65836e-05 1.24964e-05)
(0.000110907 2.1443e-05 1.35994e-05)
(0.000111138 2.34644e-05 2.893e-06)
(0.000117652 1.01641e-05 2.0921e-06)
(0.000114306 2.11693e-05 2.80901e-08)
(0.00011341 1.46662e-05 -7.60746e-07)
(0.000115019 2.06747e-05 4.0277e-06)
(0.000114377 1.48501e-05 1.77532e-06)
(0.000109688 2.41706e-05 4.20169e-07)
(7.34171e-05 2.56634e-05 7.14318e-06)
(9.90165e-05 2.92025e-05 1.41864e-05)
(9.82336e-05 3.67243e-05 1.2722e-05)
(9.5659e-05 2.6275e-05 1.25048e-05)
(9.30978e-05 3.32557e-05 1.18897e-05)
(8.53979e-05 2.619e-05 1.04447e-05)
(9.13312e-05 2.87967e-05 1.05841e-05)
(0.000105634 2.63508e-05 1.01757e-05)
(0.000119239 1.82635e-05 1.35885e-05)
(0.000107639 3.16648e-05 1.32072e-05)
(0.000106957 2.34739e-05 1.35458e-05)
(0.000117378 2.67872e-05 1.10703e-05)
(0.000112531 2.15704e-05 1.24754e-05)
(0.000100277 2.73469e-05 1.10268e-05)
(0.000110942 2.33491e-05 -4.39505e-07)
(0.000118606 1.01782e-05 1.41397e-06)
(0.00011631 2.11784e-05 -4.18523e-06)
(0.00011381 1.45395e-05 -1.99729e-06)
(0.000118528 2.07494e-05 -4.49152e-07)
(0.000115303 1.47291e-05 4.86982e-07)
(0.000107961 2.38003e-05 -2.6891e-06)
(9.79757e-05 -2.01222e-06 -4.83685e-06)
(0.00010233 -5.4542e-07 -4.97115e-06)
(0.000119783 6.63685e-06 -5.32972e-06)
(0.000115441 4.72075e-06 -5.28904e-06)
(0.000114014 2.09177e-05 -1.26662e-06)
(0.00011567 2.06717e-05 -5.35409e-06)
(0.000102674 3.66964e-05 1.71242e-05)
(0.000108678 4.3617e-05 1.9317e-05)
(0.000106109 2.2474e-05 1.87204e-05)
(0.00010171 3.43478e-05 1.74481e-05)
(0.000111555 4.62735e-05 1.93969e-05)
(0.000108923 2.36665e-05 1.87699e-05)
(9.53617e-05 3.07972e-05 1.71248e-05)
(0.000105952 4.11837e-05 1.92703e-05)
(0.000103526 2.08564e-05 1.87207e-05)
(9.9517e-05 3.26742e-05 1.75133e-05)
(0.000102892 3.86573e-05 1.91523e-05)
(0.000100681 1.9204e-05 1.86547e-05)
(0.000103433 1.49661e-06 -1.9337e-06)
(9.91223e-05 -1.71211e-07 -2.05754e-06)
(0.000104869 2.08807e-06 -1.89917e-06)
(0.000109195 3.93737e-06 -1.81784e-06)
(8.72122e-05 7.53631e-08 4.17967e-06)
(9.15182e-05 3.89768e-06 8.36398e-06)
(8.71979e-05 2.58949e-06 8.12893e-06)
(9.15338e-05 1.36723e-06 4.38902e-06)
(8.75661e-05 5.97816e-06 1.32102e-05)
(9.1563e-05 4.75468e-06 9.67108e-06)
(8.72427e-05 3.44104e-06 9.43138e-06)
(9.18887e-05 7.30895e-06 1.34473e-05)
(9.26796e-05 1.38401e-07 1.63717e-06)
(9.72034e-05 3.88492e-06 5.42547e-06)
(9.28491e-05 2.57116e-06 5.53328e-06)
(9.70301e-05 1.43482e-06 1.50797e-06)
(9.27886e-05 5.84299e-06 1.08249e-05)
(9.72265e-05 4.71308e-06 6.75386e-06)
(9.28712e-05 3.39334e-06 6.85223e-06)
(9.71436e-05 7.17909e-06 1.07649e-05)
(0.000109324 1.49606e-05 1.53539e-05)
(0.000104961 2.23304e-05 1.78228e-05)
(0.000109263 2.4927e-05 1.79649e-05)
(0.000105018 1.30168e-05 1.51901e-05)
(0.0001106 1.48391e-05 1.43158e-05)
(0.000114598 1.41979e-05 1.05877e-05)
(0.000110274 1.21973e-05 1.05055e-05)
(0.000114917 1.68803e-05 1.4437e-05)
(0.000109146 1.41649e-05 1.42707e-05)
(0.000104509 9.62745e-06 1.0311e-05)
(0.000104838 1.22294e-05 1.41045e-05)
(0.000108822 1.15338e-05 1.0465e-05)
(9.7293e-05 3.33172e-06 4.65184e-06)
(9.2959e-05 4.36866e-06 8.43963e-06)
(9.29747e-05 1.83258e-06 4.4561e-06)
(9.72794e-05 5.88289e-06 8.65936e-06)
(9.87778e-05 3.03194e-06 3.36045e-06)
(0.000103331 2.26551e-06 -5.93003e-07)
(9.90193e-05 5.88666e-07 -7.27047e-07)
(0.000103091 4.73219e-06 3.52363e-06)
(9.87313e-05 3.8665e-06 4.71452e-06)
(0.000103028 8.14865e-06 8.92832e-06)
(9.87178e-05 6.42394e-06 8.73026e-06)
(0.000103043 5.57366e-06 4.88682e-06)
(9.92761e-05 1.06395e-05 1.49155e-05)
(0.000103652 2.15924e-05 1.78e-05)
(9.9331e-05 1.92192e-05 1.76147e-05)
(0.000103586 1.23956e-05 1.51273e-05)
(9.76563e-05 9.31607e-06 1.37525e-05)
(9.30042e-05 5.2271e-06 9.74816e-06)
(9.33309e-05 7.78507e-06 1.35241e-05)
(9.73251e-05 6.74559e-06 9.97288e-06)
(9.9096e-05 9.86209e-06 1.38276e-05)
(0.000103074 9.01873e-06 1.02502e-05)
(0.000103405 1.16117e-05 1.40409e-05)
(9.8764e-05 7.28803e-06 1.00457e-05)
(0.000110258 8.70816e-06 5.09327e-06)
(0.000114558 1.32998e-05 9.2395e-06)
(0.000110231 1.13134e-05 9.17244e-06)
(0.000114585 1.067e-05 5.11987e-06)
(0.000108853 7.20668e-06 3.68762e-06)
(0.000104768 2.86173e-06 -5.55325e-07)
(0.000109095 4.71611e-06 -4.6683e-07)
(0.000104528 5.33125e-06 3.5712e-06)
(0.000108803 8.05398e-06 5.06259e-06)
(0.000104464 8.75522e-06 8.98727e-06)
(0.000108779 1.06531e-05 9.1345e-06)
(0.000104481 6.17374e-06 4.93737e-06)
(0.00010304 3.89966e-05 1.52356e-05)
(0.000106875 2.29525e-05 1.79159e-05)
(0.000108977 4.6446e-05 1.62145e-05)
(0.000109763 2.41484e-05 1.79516e-05)
(0.000102258 3.65921e-05 1.55736e-05)
(0.000111901 4.91873e-05 1.62257e-05)
(9.61012e-05 3.29306e-05 1.54178e-05)
(0.000104336 2.13332e-05 1.79482e-05)
(0.00010638 4.38967e-05 1.62479e-05)
(0.000101563 1.96169e-05 1.79284e-05)
(0.000100147 3.47867e-05 1.56915e-05)
(0.000103497 4.12624e-05 1.62259e-05)
(0.000114468 1.4825e-05 1.18185e-05)
(0.000107723 2.3055e-05 1.52958e-05)
(0.000112101 2.56292e-05 1.53177e-05)
(0.000110105 1.28734e-05 1.1834e-05)
(0.000116033 1.47379e-05 1.05473e-05)
(0.000120464 1.42106e-05 6.4691e-06)
(0.000116112 1.21778e-05 6.43959e-06)
(0.000120371 1.68322e-05 1.06198e-05)
(0.000114562 1.40572e-05 1.05465e-05)
(0.000110282 9.59971e-06 6.48768e-06)
(0.000110196 1.21158e-05 1.05685e-05)
(0.000114644 1.15113e-05 6.44512e-06)
(0.000102834 3.4036e-06 1.34446e-06)
(9.86547e-05 4.35709e-06 5.39005e-06)
(9.84805e-05 1.90124e-06 1.46688e-06)
(0.000103005 5.87513e-06 5.28608e-06)
(0.000104203 3.12531e-06 1.3417e-08)
(0.000108255 2.40596e-06 -3.93159e-06)
(0.000108555 4.82727e-06 -9.73096e-08)
(0.000103899 7.28419e-07 -3.80675e-06)
(0.000104285 3.93901e-06 1.30541e-06)
(0.000108809 8.14771e-06 5.16259e-06)
(0.000104455 6.41728e-06 5.25208e-06)
(0.000108638 5.6489e-06 1.19958e-06)
(0.000104303 1.04871e-05 1.19041e-05)
(0.000106427 2.22791e-05 1.53161e-05)
(0.000102223 1.98737e-05 1.53428e-05)
(0.000108654 1.22497e-05 1.18461e-05)
(0.000102943 9.19095e-06 1.06727e-05)
(9.86774e-05 5.18653e-06 6.72164e-06)
(9.85941e-05 7.65628e-06 1.07431e-05)
(0.000103027 6.70879e-06 6.62469e-06)
(0.000104392 9.73842e-06 1.06479e-05)
(0.000108832 8.98954e-06 6.50912e-06)
(0.000108744 1.14951e-05 1.05836e-05)
(0.000104477 7.2523e-06 6.59328e-06)
(0.000115923 8.7843e-06 1.08693e-06)
(0.000120442 1.33324e-05 5.09681e-06)
(0.000116089 1.13207e-05 5.08113e-06)
(0.000120274 1.0742e-05 1.06816e-06)
(0.000114373 7.2995e-06 -2.02494e-07)
(0.000109708 3.00121e-06 -3.96748e-06)
(0.000110006 5.42624e-06 -1.28715e-07)
(0.000114079 4.85154e-06 -4.0521e-06)
(0.000114453 8.13027e-06 1.10134e-06)
(0.00011026 8.75522e-06 5.13847e-06)
(0.000114621 1.06579e-05 5.08977e-06)
(0.000110088 6.24959e-06 1.17049e-06)
(0.000107495 2.45455e-05 1.15165e-05)
(0.00011785 1.72416e-05 1.30124e-05)
(0.00011463 2.38131e-05 1.063e-05)
(0.000113743 1.85134e-05 9.33107e-06)
(0.000114075 2.59476e-05 1.42243e-05)
(0.000110221 2.40212e-05 9.78854e-06)
(0.000113067 1.9645e-05 1.16837e-05)
(0.000111516 2.24334e-05 5.28688e-06)
(0.000117667 1.10171e-05 3.45136e-06)
(0.000114645 2.24183e-05 9.38374e-06)
(0.000114324 1.71024e-05 6.91103e-06)
(0.000114958 2.03298e-05 5.35909e-06)
(0.000111257 2.23107e-05 7.62995e-06)
(0.000114669 1.56644e-05 4.35242e-06)
(0.000109632 2.49148e-05 8.66034e-06)
(0.000118875 1.72372e-05 1.23032e-05)
(0.000118624 2.39362e-05 6.06827e-06)
(0.000114949 1.85468e-05 8.07532e-06)
(0.000118188 2.60232e-05 9.96177e-06)
(0.0001146 1.96951e-05 1.04689e-05)
(0.000111891 2.4276e-05 6.62827e-06)
(0.000112669 2.24436e-05 1.87564e-06)
(0.000118638 1.10306e-05 2.76486e-06)
(0.000118943 2.25483e-05 4.71027e-06)
(0.000115604 1.708e-05 5.52347e-06)
(0.000118908 2.04361e-05 8.48637e-07)
(0.000115936 1.55526e-05 3.01515e-06)
(0.000113147 2.24634e-05 4.23492e-06)
(0.00010814 1.64081e-06 -5.14466e-06)
(0.000103782 -2.58305e-08 -5.01635e-06)
(0.000109593 2.23179e-06 -5.18183e-06)
(0.000113964 4.07682e-06 -5.26801e-06)
(4.97683e-05 2.89225e-05 3.10785e-07)
(3.15328e-05 3.73537e-05 -7.76055e-06)
(5.42601e-05 4.08894e-05 6.27391e-06)
(0.000105073 5.4833e-05 -8.22887e-07)
(0.000125949 4.94981e-05 7.79977e-06)
(0.000148657 6.41942e-05 8.40704e-06)
(0.000165697 5.82141e-05 1.45767e-05)
(9.41388e-05 -1.46555e-05 -2.74942e-07)
(8.65624e-05 -1.18327e-05 1.97919e-06)
(9.25468e-05 -1.14806e-05 4.0371e-06)
(0.000102292 -1.04797e-05 3.62242e-06)
(9.87561e-05 -1.29447e-05 -5.35878e-07)
(9.05424e-05 -1.04114e-05 1.88411e-06)
(9.65198e-05 -9.22576e-06 -1.09884e-06)
(9.26601e-05 -7.07863e-06 1.75032e-06)
(9.71884e-05 -9.51685e-06 3.75663e-06)
(0.000102621 -1.02518e-05 -7.44049e-07)
(5.31581e-05 -1.14018e-06 -1.19619e-06)
(5.23864e-05 2.35848e-07 -3.4342e-06)
(3.05952e-05 1.81046e-06 -6.39102e-06)
(0.000115571 3.07189e-05 1.94231e-05)
(0.000116827 2.1124e-05 1.94086e-05)
(0.000117601 2.16186e-05 1.96376e-05)
(0.000115457 2.04067e-05 1.93287e-05)
(0.000116228 2.08969e-05 1.95655e-05)
(0.000114615 3.27767e-05 1.89851e-05)
(9.71645e-05 1.93366e-05 1.90223e-05)
(9.5227e-05 1.17779e-05 1.8754e-05)
(9.5992e-05 1.2247e-05 1.91449e-05)
(9.56611e-05 1.85602e-05 1.89717e-05)
(9.66725e-05 1.22766e-05 1.88032e-05)
(9.74401e-05 1.2747e-05 1.91805e-05)
(6.07943e-05 2.20326e-06 -8.16563e-07)
(7.65417e-05 4.04288e-06 -1.19561e-06)
(6.14551e-05 7.60618e-06 -1.20635e-06)
(3.50188e-05 9.96277e-06 -5.64332e-06)
(5.4806e-05 4.32118e-06 -3.04619e-06)
(3.57717e-05 5.57279e-06 -5.73184e-06)
(5.30833e-05 1.14285e-05 -2.29707e-06)
(6.46948e-05 1.65928e-05 -1.24043e-06)
(4.07866e-05 1.91792e-05 -4.21674e-06)
(5.25261e-05 1.47065e-05 -2.59975e-06)
(3.2247e-05 1.61542e-05 -5.4609e-06)
(4.23848e-05 2.56251e-05 -5.8832e-07)
(4.84197e-05 1.96281e-05 -1.53816e-06)
(3.09718e-05 2.18644e-05 -5.0176e-06)
(9.26327e-05 1.73218e-05 1.8855e-05)
(9.37795e-05 1.12964e-05 1.87041e-05)
(9.45447e-05 1.17656e-05 1.91077e-05)
(9.41963e-05 1.79487e-05 1.89236e-05)
(9.23355e-05 1.08314e-05 1.8654e-05)
(9.30988e-05 1.13e-05 1.90696e-05)
(9.36108e-05 1.83192e-05 1.76176e-05)
(9.5141e-05 1.17141e-05 1.8787e-05)
(9.58128e-05 1.11616e-05 1.76525e-05)
(9.36946e-05 1.12484e-05 1.87588e-05)
(9.43668e-05 1.06962e-05 1.76364e-05)
(9.5232e-05 1.89534e-05 1.76759e-05)
(7.88675e-05 -5.13346e-06 3.86596e-06)
(7.91571e-05 7.08104e-06 8.6325e-06)
(8.86791e-05 -3.50663e-06 7.34454e-06)
(0.000116607 3.16948e-05 1.78271e-05)
(0.000118241 2.15912e-05 1.91754e-05)
(0.000118971 2.10557e-05 1.79027e-05)
(0.000116856 2.08594e-05 1.91118e-05)
(0.000117581 2.03159e-05 1.78394e-05)
(0.000115537 3.32617e-05 1.74216e-05)
(9.83321e-05 2.03233e-05 1.77507e-05)
(9.6589e-05 1.21955e-05 1.88136e-05)
(9.72629e-05 1.1643e-05 1.76659e-05)
(9.8038e-05 1.26953e-05 1.88378e-05)
(9.6832e-05 1.95191e-05 1.77243e-05)
(9.87112e-05 1.21414e-05 1.76769e-05)
(9.87141e-05 -1.70547e-06 7.0422e-06)
(8.37637e-05 -3.96097e-06 3.92477e-06)
(8.66019e-05 7.90157e-06 8.98839e-06)
(7.26473e-05 6.93361e-06 3.71392e-06)
(8.71419e-05 -9.91306e-07 3.87952e-06)
(9.40468e-05 -1.93691e-06 7.20557e-06)
(9.25793e-05 1.02692e-05 9.07882e-06)
(0.000104866 -6.20208e-06 3.31317e-06)
(9.64251e-05 -4.07113e-06 -1.08363e-06)
(0.00010355 2.7171e-06 -8.56476e-07)
(8.96122e-05 3.79019e-06 1.10236e-06)
(9.38176e-05 -2.81555e-06 1.5208e-06)
(0.000104615 3.17392e-06 2.80807e-06)
(0.000105 -5.07799e-06 -8.53557e-07)
(0.000102222 7.51613e-07 6.70674e-06)
(9.27681e-05 1.58057e-05 7.33105e-06)
(7.56336e-05 8.94706e-06 3.43449e-06)
(8.45664e-05 6.93392e-06 2.61506e-06)
(8.9052e-05 2.25783e-06 3.57531e-06)
(9.62299e-05 1.26274e-05 8.74878e-06)
(0.000102127 7.75393e-06 5.95755e-06)
(8.98183e-05 2.83062e-05 1.30054e-05)
(0.000115468 3.05644e-05 1.87207e-05)
(0.000112571 2.90391e-05 1.80618e-05)
(0.000108651 2.48984e-05 1.66603e-05)
(0.000107273 3.2335e-05 1.70439e-05)
(0.000104563 2.77752e-05 1.58855e-05)
(0.000101475 2.72435e-05 1.52308e-05)
(0.000112964 2.34546e-05 1.65172e-05)
(0.000117171 2.08532e-05 1.87416e-05)
(0.000117928 2.00401e-05 1.70655e-05)
(0.00011339 2.27237e-05 1.70017e-05)
(0.000116933 2.00657e-05 1.775e-05)
(0.00010996 2.5134e-05 1.66489e-05)
(0.000115771 2.12821e-05 1.64236e-05)
(0.000115743 1.14428e-05 1.60404e-07)
(0.000117634 8.48051e-06 -6.1876e-07)
(0.00011675 7.63829e-06 -1.3243e-06)
(0.000116604 9.14338e-06 -1.91909e-06)
(0.000116745 8.47014e-06 3.0487e-08)
(0.000116936 9.6806e-06 -5.89172e-07)
(0.000115666 1.07524e-05 -1.17169e-06)
(9.14915e-05 2.88223e-05 1.24441e-05)
(0.000113433 2.90015e-05 1.77713e-05)
(0.000116744 3.05157e-05 1.71266e-05)
(0.000109783 2.50218e-05 1.63439e-05)
(0.0001079 3.26268e-05 1.58684e-05)
(0.000102898 2.73385e-05 1.51584e-05)
(0.000105918 2.80037e-05 1.47725e-05)
(0.000115058 2.35289e-05 1.45773e-05)
(0.000118939 2.00195e-05 1.63719e-05)