/*--------------------------------*- C++ -*----------------------------------*\
| =========                 |                                                 |
| \\      /  F ield         | OpenFOAM: The Open Source CFD Toolbox           |
|  \\    /   O peration     | Version:  2012                                  |
|   \\  /    A nd           | Website:  www.openfoam.com                      |
|    \\/     M anipulation  |                                                 |
\*---------------------------------------------------------------------------*/
FoamFile
{
    version     2.0;
    format      ascii;
    class       volScalarField;
    location    "0.104/fluid";
    object      p;
}
// * * * * * * * * * * * * * * * * * * * * * * * * * * * * * * * * * * * * * //

dimensions      [0 2 -2 0 0 0 0];


internalField   nonuniform List<scalar> 
16422
(
0.0547868
0.0538895
0.0536759
0.053226
0.0530392
0.0529535
0.0529176
0.0529154
0.052942
0.0530016
0.0531756
0.0539506
0.0573178
0.0704611
0.0956894
0.0547724
0.0538393
0.0535801
0.0530735
0.0528197
0.0526514
0.0525061
0.0523459
0.0521303
0.0518134
0.0513588
0.0508241
0.0503402
0.0489232
0.0383504
0.0547622
0.0538081
0.053516
0.0529721
0.0526741
0.0524498
0.0522318
0.0519654
0.0515809
0.0509776
0.0499958
0.0483684
0.0455402
0.0402566
0.0308783
0.0547504
0.0538002
0.0535357
0.0530328
0.0527731
0.0525766
0.0523673
0.0521002
0.0517327
0.051207
0.050473
0.0495964
0.0489447
0.0486171
0.0381011
0.0547407
0.0537529
0.0534427
0.0528866
0.0525675
0.0523015
0.0520048
0.0516184
0.0510757
0.0502951
0.0491698
0.0475862
0.0452856
0.0410033
0.0305566
0.0547335
0.0537231
0.0533805
0.0527888
0.0524306
0.0521168
0.0517623
0.0512963
0.0506317
0.049656
0.0481979
0.0459853
0.042527
0.036925
0.0283791
0.0547232
0.0537248
0.053416
0.052865
0.0525412
0.0522464
0.0518815
0.0513754
0.0506496
0.0495893
0.048021
0.045696
0.0421685
0.0362868
0.0254428
0.0547171
0.0536784
0.0533245
0.0527245
0.0523491
0.0519965
0.0515634
0.0509709
0.0501296
0.0489209
0.0471725
0.044638
0.0408897
0.0350942
0.0262659
0.054712
0.0536495
0.053263
0.0526296
0.0522203
0.0518279
0.0513493
0.0507011
0.0497806
0.0484596
0.0465539
0.0437903
0.0397755
0.0340292
0.026435
0.054708
0.0536773
0.0533378
0.0527529
0.0523855
0.0520253
0.0515562
0.0508887
0.0499234
0.0485124
0.0464219
0.0433153
0.0387164
0.0320753
0.0232781
0.0547039
0.0536359
0.0532472
0.0526159
0.0522025
0.0517928
0.0512674
0.0505348
0.0494926
0.0480013
0.0458568
0.0427775
0.0384034
0.0323772
0.0247427
0.0547003
0.0536074
0.0531863
0.0525233
0.0520795
0.0516352
0.0510725
0.0502995
0.0492067
0.0476556
0.0454572
0.0423534
0.0380584
0.0323662
0.0254543
0.164379
-0.083315
0.153012
-0.0841019
0.0571882
-0.0148313
0.0807189
0.134905
0.103282
-0.067544
0.0450997
0.0156427
0.0764478
0.125136
0.0562034
0.0604543
0.243515
0.20574
-0.0631297
0.0428757
0.0147528
0.0485288
-0.00379458
0.0337353
0.0145676
0.0410796
-0.00318947
0.0264496
0.0111415
0.253634
0.269662
0.192599
0.0785425
0.256145
0.181658
0.128916
0.214379
0.150273
0.0766155
-0.0636892
0.0531618
-0.235681
0.0654354
0.105606
0.0530205
-0.350324
-0.0317036
-0.112866
0.00980084
-0.230432
0.0795491
0.0685538
0.0454935
0.110974
0.0687145
0.058137
-0.347094
-0.0495701
-0.0217602
0.0175656
-0.109978
0.0380699
0.0181127
0.232667
0.22524
0.359414
0.258527
0.457441
0.195723
0.24741
0.273367
0.508931
0.25872
0.271394
0.493144
0.265604
0.507637
0.256935
0.526524
0.338871
0.30009
-0.244607
-0.117981
0.225368
-0.0595709
0.260527
0.36846
0.258092
0.469485
0.30441
0.216807
0.280614
0.525897
0.338195
0.507736
0.297121
0.327046
-0.0591632
0.13384
0.202266
-0.0582227
-0.113354
-0.244689
-0.11779
-0.228769
-0.0589153
0.225281
-0.059355
0.211354
-0.112255
-0.165611
-0.095766
-0.223113
0.0747067
0.0957542
0.169339
0.0710185
0.120945
0.0617016
0.0917025
-0.0353689
-0.247285
-0.000803701
0.0246161
-0.0831001
-0.0708706
-0.215411
-0.0953285
-0.107965
-0.083377
0.0853733
0.17488
0.117117
0.0753702
0.136438
0.0951373
0.0754302
-0.0182261
-0.244368
0.0772913
0.00560118
-0.0621726
-0.0743998
0.0408045
-0.0548751
-0.211729
-0.125458
-0.0876569
-0.0877982
-0.0989469
-0.0706119
0.338502
0.216304
0.585745
0.226722
0.741839
0.27844
0.435638
0.31239
0.859876
0.43565
0.317382
0.859124
-0.542989
-0.522773
-0.382736
-0.411117
0.425649
0.30501
0.85405
0.431968
0.295306
0.845193
-0.596367
-0.58243
-0.592125
-0.583975
-0.190257
0.0319403
0.0187357
-0.170294
0.484125
0.85572
0.392431
0.848142
0.386878
0.487418
-0.399324
-0.439353
-0.431862
-0.40373
0.0111196
0.158918
0.154978
0.017999
-0.548201
-0.557953
-0.423564
-0.415858
-0.090328
0.104464
0.0394502
-0.112017
-0.555133
-0.576609
-0.556131
-0.576179
-0.14347
0.0367912
0.0482727
-0.162644
-0.445557
-0.395568
-0.44203
-0.380843
0.369592
0.58565
0.249757
0.739279
0.272417
0.301312
0.486357
0.860782
0.395591
0.859493
0.488575
0.396174
0.0182146
0.14866
0.113197
-0.0508209
-0.399774
-0.438996
-0.400973
-0.435746
0.0258523
0.160808
0.0207928
0.162916
-0.353656
-0.345518
-0.313685
-0.375506
0.10575
0.101091
0.220872
0.120081
0.161045
0.0821739
0.126919
-0.0455217
0.0973685
-0.258867
0.0416336
-0.148833
0.0288358
-0.0668672
-0.122122
-0.132775
-0.247855
-0.107841
-0.254127
-0.115762
-0.125982
0.117202
0.223143
0.123781
0.123023
0.177431
0.129193
0.0965051
-0.0271968
-0.252373
0.13107
0.0459806
-0.111537
-0.0613152
0.0462084
-0.107174
-0.129023
-0.21615
-0.10472
-0.211401
-0.110618
-0.1145
-0.424001
-0.420887
-0.339275
-0.357732
-0.245161
-0.217125
0.375793
0.308071
0.839192
0.408063
0.278805
0.797527
0.432266
0.317928
0.848081
0.42134
0.32096
0.857419
-0.486576
-0.514765
-0.475763
-0.427287
-0.591602
-0.497369
-0.514383
-0.578158
-0.327239
-0.473802
-0.491577
-0.308055
-0.379368
-0.292959
-0.293479
-0.382349
-0.110268
-0.267091
-0.268746
-0.104361
-0.0974764
0.0552964
0.0430331
-0.108846
-0.210061
-0.31892
-0.335154
-0.200824
-0.221
-0.390419
-0.23943
-0.363595
-0.549263
-0.488467
-0.569817
-0.466909
-0.544992
-0.519626
-0.547448
-0.516028
-0.538707
-0.429668
-0.455801
-0.510251
-0.136082
0.0541437
0.0516507
-0.117258
-0.278911
-0.464435
-0.300028
-0.442609
-0.269928
-0.405635
-0.249351
-0.430975
-0.44038
-0.327846
-0.359127
-0.375286
-0.464245
-0.507827
-0.460225
-0.503002
-0.460236
-0.415306
-0.385173
-0.497721
0.412205
0.836845
0.370641
0.794658
0.448827
0.333656
0.480251
0.84636
0.38646
0.857076
0.465591
0.395005
0.0212501
0.151295
0.123159
0.0327173
-0.0906504
-0.249713
-0.220403
-0.132272
-0.0898871
-0.240997
-0.0836493
-0.23964
-0.377719
-0.290052
-0.379772
-0.286382
-0.396154
-0.421575
-0.387239
-0.432585
-0.373877
-0.274972
-0.281691
-0.364683
0.0281454
0.15421
0.163043
0.0307448
-0.0943414
-0.263764
-0.101135
-0.259742
-0.090445
-0.248769
-0.0865544
-0.254589
-0.336584
-0.262337
-0.246139
-0.305887
-0.362774
-0.41575
-0.380934
-0.385862
-0.345454
-0.268071
-0.262969
-0.359334
-0.0896922
-0.265849
-0.24009
-0.109647
-0.187118
-0.117444
-0.104536
-0.12487
-0.143006
-0.239147
-0.117128
-0.246843
-0.122726
-0.122086
-0.0683871
-0.259521
-0.195085
-0.102609
-0.145236
-0.0984003
-0.0948547
-0.108025
-0.139573
-0.195071
-0.11187
-0.202832
-0.117126
-0.102452
-0.40614
-0.418265
-0.400439
-0.368184
0.00139637
0.0310851
0.0148427
0.0268859
0.0129509
0.0267184
0.0167101
-0.182369
-0.0412986
-0.155441
-0.145415
-0.182059
-0.0420508
-0.0795417
-0.0410505
-0.154619
-0.171983
0.0237882
0.00354325
0.0377245
0.875773
0.709518
0.861658
1.06981
1.19949
0.654237
1.1082
1.17015
1.5293
1.11104
1.17474
1.51528
0.02204
-0.0438439
0.0235686
0.0296441
0.00212564
0.0341079
0.00216015
-0.0253996
0.0183839
0.0148634
0.0233553
0.00741708
0.00468081
0.0207989
1.09107
1.1619
1.52269
1.1063
1.15263
1.49639
1.1491
1.49323
1.25463
1.4663
1.24709
1.16501
0.00879588
0.12002
-0.0539361
0.911671
0.855205
0.748476
1.165
1.13282
0.67855
1.16285
1.49922
1.26149
1.48366
1.16862
1.26402
-0.0510175
0.00814134
0.117841
0.069129
0.00497545
-0.0538085
0.110148
-0.132394
-0.0763777
-0.114532
-0.0347623
-0.0407843
-0.0953298
-0.154378
-0.0489012
0.0812338
0.0634913
0.00224893
0.00295415
0.0957627
-0.0298733
0.153594
-0.00947965
0.1685
0.0107615
0.267852
0.0990489
0.136462
-0.0604323
-0.302784
-0.251197
-0.0398012
-0.300098
-0.00661469
-0.0582834
-0.133897
-0.118618
-0.127056
-0.114001
-0.136662
-0.118278
-0.124757
0.161492
0.168792
0.00592189
0.0128922
0.280234
0.137736
0.110434
-0.0469407
-0.250175
-0.297894
-0.0378314
-0.290941
-0.0541599
0.00580947
-0.0391266
-0.0307598
-0.0752153
-0.026099
-0.0106635
-0.0612196
-0.0556823
-0.125049
-0.115531
-0.118474
-0.112354
-0.126235
-0.116489
-0.117581
-0.0114461
0.0327412
0.00306648
0.0320575
0.00946998
-0.0263013
0.0296045
-0.112232
-0.10582
1.10777
1.21127
1.54737
1.12188
1.20619
1.52221
1.11797
1.2008
1.54353
1.1226
1.19779
1.52991
-0.468539
-0.427381
-0.438114
-0.456515
-0.462011
-0.409474
-0.421823
-0.449583
-0.304769
0.181829
0.170307
-0.293799
-0.390489
-0.379531
-0.391285
-0.37897
-0.337036
-0.331463
-0.243161
-0.221306
-0.220766
-0.329538
-0.337305
-0.3224
-0.11833
-0.184818
-0.26206
-0.18457
-0.262847
-0.322403
-0.143775
0.305882
0.223251
0.0597219
0.300718
0.0587038
-0.140562
-0.224129
-0.0600013
-0.218111
-0.0071373
-0.219169
-0.00772857
-0.222383
-0.293052
-0.307641
-0.312705
-0.28382
-0.214314
0.185115
0.188472
-0.12851
-0.239633
0.202431
0.193204
-0.247922
-0.263705
-0.18863
-0.253028
-0.190821
-0.409561
-0.353377
-0.371529
-0.388244
-0.428594
-0.416393
-0.40105
-0.444839
-0.413584
-0.363548
-0.385685
-0.390117
-0.423363
-0.39846
-0.43905
-0.385216
-0.343775
-0.326943
-0.330532
-0.342442
-0.276592
0.188973
0.192014
-0.284162
-0.268452
0.201011
0.19616
-0.259662
-0.356115
-0.368057
-0.367484
-0.355951
-0.333476
-0.334161
-0.305481
-0.369039
-0.276624
-0.164888
-0.25164
-0.188975
-0.329132
-0.338487
-0.30096
-0.369143
-0.28923
-0.199334
-0.269665
-0.206391
1.15185
1.51236
1.28848
1.48579
1.16909
1.28022
1.16648
1.5096
1.2796
1.49557
1.17121
1.27929
-0.206653
-0.205523
-0.0125987
-0.0583752
-0.21263
-0.196546
-0.0161294
-0.134806
0.234302
0.165808
0.0302944
0.254119
0.0279494
-0.0696879
-0.14523
0.0472628
0.28987
0.181178
0.270621
-0.14102
0.0366178
-0.191932
-0.0634681
-0.137087
-0.0192843
-0.182002
-0.0233583
-0.137582
-0.320894
-0.116257
-0.255643
-0.174167
-0.179734
-0.260858
-0.312488
-0.337965
-0.333526
-0.221085
-0.241197
-0.216438
-0.340229
-0.331445
-0.322361
-0.117061
-0.184318
-0.263197
-0.181884
-0.324635
-0.262232
-0.335487
-0.205335
-0.237808
-0.318928
-0.213093
-0.325801
-0.328823
-0.219343
-0.0592084
-0.211496
-0.0107401
-0.217824
-0.214755
-0.00880365
-0.140089
0.306696
0.0600269
0.221698
-0.139148
0.30287
0.0582166
-0.220539
-0.0593064
-0.217666
-0.00699928
-0.221237
-0.216746
-0.00782518
-0.140977
0.0519169
0.2968
0.218232
0.30001
-0.141988
0.0562894
-0.284986
-0.249833
-0.107684
-0.170511
-0.236186
-0.306367
-0.16128
-0.259047
-0.156971
-0.153682
-0.192156
-0.178568
-0.174596
-0.24367
-0.255222
-0.108375
-0.158686
-0.136617
-0.215142
-0.156276
-0.180968
-0.293482
-0.200766
-0.306188
-0.204463
-0.317339
-0.186226
-0.281632
-0.0159346
0.0488974
-0.0725496
0.0444252
-0.237299
-0.271698
-0.25674
-0.221364
-0.275871
-0.223857
-0.244852
-0.0631147
-0.132659
-0.124933
-0.0891201
-0.17767
-0.184047
-0.227801
-0.188904
-0.200567
-0.196671
-0.164886
-0.110805
-0.128327
-0.128815
-0.113736
-0.107508
-0.127808
-0.126073
-0.0973212
-0.224828
-0.266903
-0.244377
-0.218322
-0.262681
-0.241136
-0.213229
0.00837404
0.080947
0.0154929
0.0505869
-0.0370182
0.0660181
0.0158742
-0.0381757
-0.0391315
-0.100462
-0.0270828
-0.0900761
-0.0652883
-0.0130457
-0.165789
-0.179962
-0.215132
-0.185563
-0.185362
-0.16157
-0.18587
-0.0961133
-0.124779
-0.120486
-0.0934258
-0.119692
-0.0813063
-0.103316
-0.089482
-0.0536809
-0.102972
-0.113596
-0.109064
-0.0754259
-0.0728076
0.958457
1.17329
1.44626
1.11292
1.32817
1.03629
1.10916
1.17989
1.53557
1.17949
1.51738
1.11938
-0.537056
-0.529894
-0.364084
-0.386623
1.08264
1.12735
1.49444
1.13852
1.4835
1.083
-0.603181
-0.594204
-0.602925
-0.585078
-0.589284
-0.59208
-0.59932
-0.58906
-0.597077
-0.587431
-0.594019
-0.596804
-0.457874
-0.225682
-0.188413
-0.469538
-0.225839
-0.303107
-0.0428723
-0.00250655
-0.0697274
-0.0671439
-0.285277
-0.0957402
-0.309891
-0.0861955
-0.0598698
-0.00964376
-0.0750471
-0.305507
-0.102211
-0.453325
-0.180992
-0.20727
-0.446493
-0.220158
1.14164
1.46682
1.22449
1.45414
1.23393
1.14497
-0.421382
-0.40195
-0.424292
-0.436135
-0.431979
-0.428396
-0.424814
-0.434251
-0.42731
-0.401478
-0.429432
-0.42463
-0.261198
-0.0419688
0.00879507
-0.267928
-0.0465784
-0.128744
0.106816
0.127184
0.0807148
0.0851702
-0.113981
0.0578525
-0.132577
0.0748716
0.0987219
0.122461
0.079494
-0.12397
0.0547295
-0.259319
0.0117148
-0.0360102
-0.256555
-0.0448262
-0.551304
-0.554654
-0.420835
-0.418333
-0.3485
-0.146153
-0.095061
-0.35431
-0.154294
-0.222212
0.0328322
0.0254964
0.0321436
-0.0445078
-0.169796
-0.0395533
-0.229522
-0.0255306
-0.0219558
-0.00993422
-0.0534389
-0.217464
-0.0563793
-0.354969
-0.10093
-0.138143
-0.379906
-0.15478
-0.564858
-0.561019
-0.569876
-0.570695
-0.582734
-0.576862
-0.561395
-0.562673
-0.567537
-0.570964
-0.588577
-0.581575
-0.419356
-0.182045
-0.154
-0.410609
-0.195348
-0.280729
-0.0372743
0.0120495
-0.064084
-0.0474596
-0.278703
-0.078459
-0.274556
-0.0493089
-0.0200073
0.0141833
-0.0444973
-0.256293
-0.0749459
-0.427252
-0.159856
-0.201223
-0.440163
-0.200337
-0.456226
-0.429099
-0.437805
-0.394206
-0.397398
-0.403047
-0.448997
-0.419176
-0.428843
-0.39292
-0.387309
-0.403902
0.996671
1.40894
1.24158
1.29228
1.17717
1.0772
1.16268
1.50421
1.26587
1.48522
1.26784
1.17327
-0.240283
-0.0496696
0.000683143
-0.23466
-0.0694678
-0.138084
0.0852107
0.0799911
0.0831052
0.0290393
-0.100579
0.0246078
-0.132307
0.061055
0.0738612
0.0542958
0.0320655
-0.109174
0.0194318
-0.262339
-0.0195889
-0.0838452
-0.305837
-0.0829868
-0.399582
-0.424663
-0.423846
-0.430211
-0.438688
-0.430082
-0.402785
-0.425569
-0.42591
-0.427724
-0.436583
-0.42774
-0.242291
0.020148
-0.028803
-0.237665
-0.0376261
-0.116838
0.109552
0.082645
0.132899
-0.111047
0.0962483
0.0642682
-0.245806
0.0190879
-0.0345063
-0.254691
-0.0380688
-0.114274
0.0860004
0.117848
0.131924
0.0963589
-0.0995338
0.0639886
-0.34989
-0.374037
-0.365846
-0.339962
-0.341345
-0.341064
-0.318854
-0.325023
-0.335405
-0.372288
-0.362312
-0.362798
-0.0506769
-0.115271
0.00663522
0.0250044
-0.167947
0.00189332
-0.0152893
-0.0879081
-0.232435
-0.262491
-0.202356
-0.243675
-0.12364
-0.154339
-0.101258
-0.0975295
-0.123029
-0.226814
-0.205545
-0.0659305
-0.156793
-0.141227
-0.124842
-0.153431
-0.128324
-0.14415
-0.122851
-0.148999
-0.135003
-0.170316
-0.258334
-0.175362
-0.171731
-0.129657
-0.186151
-0.139145
-0.199332
-0.171925
-0.249407
-0.170857
-0.138996
-0.191736
-0.0722227
-0.227648
-0.246953
-0.195566
-0.23004
-0.117977
-0.137753
-0.0282033
-0.0897031
0.0433435
0.0505983
-0.13817
0.0228465
0.0120356
-0.0797182
-0.0667494
-0.203085
-0.086041
-0.177746
-0.134463
-0.036323
-0.130592
-0.121296
-0.13835
-0.126404
-0.131579
-0.120923
-0.135998
-0.123935
-0.154049
-0.221482
-0.154641
-0.152739
-0.121395
-0.160881
-0.126026
-0.166208
-0.149306
-0.210525
-0.14982
-0.126
-0.162922
-0.423836
-0.422381
-0.320366
-0.340393
-0.169528
-0.123575
-0.155762
-0.150562
-0.117229
1.09081
1.17531
1.47943
1.06487
1.2023
1.50536
1.11644
1.1837
1.53793
1.12085
1.188
1.52353
-0.496818
-0.50639
-0.462832
-0.446877
-0.571809
-0.589259
-0.568719
-0.502156
-0.532613
-0.537081
-0.548328
-0.50989
-0.54498
-0.581826
-0.557017
-0.561183
-0.45154
-0.323077
-0.445007
-0.478502
-0.456507
-0.460858
-0.475051
-0.486488
-0.468428
-0.315549
-0.432813
-0.437416
-0.351431
-0.382332
-0.353618
-0.29224
-0.328798
-0.327695
-0.328052
-0.294176
-0.3298
-0.380666
-0.352985
-0.351692
-0.226813
-0.109367
-0.224458
-0.266742
-0.245731
-0.245278
-0.248992
-0.269008
-0.247375
-0.106879
-0.222275
-0.221961
-0.362345
-0.148983
-0.103504
-0.353988
-0.158165
-0.236562
-0.00806903
0.0254684
-0.0314788
-0.0217342
-0.0494142
-0.232085
-0.235331
-0.0316075
-0.0146744
0.0209073
-0.221363
-0.0298955
-0.050079
-0.368171
-0.106569
-0.157826
-0.158822
-0.379726
-0.311336
-0.20914
-0.308714
-0.290766
-0.303499
-0.289036
-0.323931
-0.343025
-0.326092
-0.199576
-0.288439
-0.282106
-0.226343
-0.329954
-0.332639
-0.374512
-0.383843
-0.367244
-0.234124
-0.353387
-0.346485
-0.350342
-0.365968
-0.349451
-0.555182
-0.527201
-0.533372
-0.523734
-0.482718
-0.518828
-0.565204
-0.548282
-0.54331
-0.502708
-0.473057
-0.508879
-0.557865
-0.537175
-0.548239
-0.52923
-0.524288
-0.533525
-0.552277
-0.539298
-0.544141
-0.52499
-0.530748
-0.53891
-0.516148
-0.5315
-0.509024
-0.437021
-0.464625
-0.472648
-0.491611
-0.449057
-0.485169
-0.519023
-0.488462
-0.496955
-0.392218
-0.176849
-0.133349
-0.404492
-0.176655
-0.249489
-0.00955929
0.0290227
-0.0355806
-0.0263502
-0.235399
-0.0560436
-0.253484
-0.0448114
-0.0165883
0.026547
-0.250835
-0.0276822
-0.059761
-0.387498
-0.126735
-0.161945
-0.380979
-0.172792
-0.28687
-0.401423
-0.406687
-0.447386
-0.458318
-0.439771
-0.294485
-0.423754
-0.416309
-0.424502
-0.448401
-0.429846
-0.264713
-0.390011
-0.383191
-0.388597
-0.412065
-0.393813
-0.25632
-0.368016
-0.371607
-0.413094
-0.424386
-0.405424
-0.417974
-0.428652
-0.409788
-0.311376
-0.35152
-0.343267
-0.393736
-0.361125
-0.391871
-0.385935
-0.362132
-0.364348
-0.474464
-0.477749
-0.488925
-0.494859
-0.511914
-0.499672
-0.467247
-0.478495
-0.483809
-0.493571
-0.518696
-0.505336
-0.44002
-0.472005
-0.449937
-0.407868
-0.450605
-0.442798
-0.41821
-0.390584
-0.425801
-0.487939
-0.475303
-0.465892
1.13332
1.44299
1.24467
1.10702
1.46826
1.27566
1.16615
1.50597
1.26827
1.1735
1.49004
1.2704
-0.226777
-0.043411
0.0240404
-0.226259
-0.0444655
-0.107378
0.111396
0.116453
0.081458
0.092614
0.0576534
-0.0971435
-0.112111
0.0627084
0.0882744
0.106699
-0.10511
0.0792822
0.0509975
-0.226002
0.0283801
-0.030761
-0.0382123
-0.231325
-0.188233
-0.10479
-0.201208
-0.208073
-0.231524
-0.198845
-0.20648
-0.248014
-0.222161
-0.112448
-0.215161
-0.190275
-0.0851442
-0.195031
-0.187477
-0.219047
-0.242086
-0.219523
-0.0850764
-0.193642
-0.193567
-0.218235
-0.23236
-0.209456
-0.377692
-0.347121
-0.347253
-0.325873
-0.289965
-0.326505
-0.381317
-0.350164
-0.350796
-0.322708
-0.286517
-0.322816
-0.395126
-0.422174
-0.422405
-0.414338
-0.425858
-0.418462
-0.390057
-0.413676
-0.417632
-0.424398
-0.43001
-0.422658
-0.343005
-0.372995
-0.341759
-0.275768
-0.310295
-0.311819
-0.318097
-0.280984
-0.317564
-0.36722
-0.334372
-0.336498
-0.228502
-0.0284153
0.0258937
-0.236051
-0.0332202
-0.105286
0.114067
0.132803
0.0823182
0.101112
-0.0956121
0.0662137
-0.104954
0.086464
0.118128
0.134089
-0.0979642
0.103295
0.0669355
-0.228781
0.0270428
-0.0290573
-0.227343
-0.0345292
-0.0971519
-0.211131
-0.211192
-0.242438
-0.263533
-0.240313
-0.099911
-0.218396
-0.215516
-0.236454
-0.259896
-0.236513
-0.0901131
-0.205104
-0.203582
-0.22566
-0.248858
-0.22473
-0.087238
-0.200062
-0.197496
-0.231365
-0.254353
-0.229763
-0.306508
-0.341196
-0.316574
-0.227561
-0.284524
-0.258748
-0.281433
-0.266048
-0.297199
-0.305803
-0.292536
-0.280185
-0.368421
-0.383911
-0.391607
-0.408586
-0.408054
-0.401009
-0.376233
-0.408469
-0.400316
-0.381675
-0.398016
-0.392068
-0.317783
-0.348007
-0.318268
-0.267718
-0.303707
-0.302873
-0.296241
-0.25864
-0.29423
-0.35594
-0.328803
-0.32611
-0.232199
-0.273826
-0.254145
-0.235995
-0.195797
-0.272474
-0.252594
-0.174753
-0.233655
-0.240669
-0.186917
-0.258968
-0.162512
-0.177874
-0.1754
-0.116479
-0.235745
-0.231164
-0.164862
-0.263378
-0.146282
-0.165593
-0.159986
-0.165448
-0.136858
-0.157499
-0.18057
-0.148485
-0.159099
-0.207912
-0.243276
-0.190374
-0.190894
-0.166109
-0.201767
-0.149999
-0.205318
-0.174204
-0.247912
-0.145374
-0.179742
-0.202244
-0.217895
-0.267811
-0.238162
-0.230354
-0.179345
-0.257335
-0.248324
-0.151071
-0.21122
-0.196466
-0.150938
-0.233268
-0.12646
-0.15708
-0.152575
-0.0840312
-0.204888
-0.187419
-0.141782
-0.23149
-0.112744
-0.153249
-0.156197
-0.148377
-0.134609
-0.144002
-0.163089
-0.145952
-0.141514
-0.187221
-0.200212
-0.155434
-0.168854
-0.147446
-0.167207
-0.134059
-0.170044
-0.150642
-0.203734
-0.130693
-0.157195
-0.167781
-0.411205
-0.415385
-0.392811
-0.382184
0.0551327
0.0556201
0.0585289
0.0603883
0.0725253
0.0523625
0.054492
0.052333
0.0523318
0.0549065
0.0574042
0.0523894
0.0529092
0.0589697
0.0684131
0.0532357
0.0544741
0.0741463
0.099888
0.0546362
0.0501727
0.0515988
0.0519524
0.0514615
0.0509263
0.0518675
0.0516146
0.0506965
0.0498005
0.0515431
0.0514117
0.049413
0.0478408
0.0513839
0.0509554
0.0471194
0.0439048
0.0504362
0.04461
0.0422877
0.0348495
0.039888
0.0148389
0.0314635
0.0200353
0.0517604
0.0514489
0.0516487
0.0512114
0.0512931
0.0506816
0.051022
0.0502779
0.0504167
0.0493685
0.0499525
0.048658
0.0489097
0.0470426
0.0480889
0.0458024
0.0461959
0.0426047
0.0447921
0.0407598
0.0409538
0.0342829
0.0390207
0.0325104
0.0314171
0.0215412
0.0299722
0.0219602
0.0547893
0.0524789
0.0547602
0.0524209
0.0539036
0.0528676
0.0538355
0.0527707
0.0537035
0.0530876
0.0535969
0.0529516
0.0532699
0.0531023
0.0531227
0.0529149
0.0531015
0.0530469
0.0528977
0.0527823
0.0530387
0.0530302
0.0527488
0.052645
0.0530334
0.0530608
0.0526086
0.0524888
0.0530757
0.05314
0.0524437
0.052288
0.0531679
0.0532759
0.0522269
0.0520078
0.0533221
0.0535235
0.0519208
0.0516222
0.0536292
0.0542339
0.0515152
0.0512425
0.0546137
0.0570288
0.0512025
0.0515232
0.0586214
0.0692204
0.0518967
0.0546022
0.0846553
0.0796977
0.0944463
0.073121
0.0524675
0.054776
0.052436
0.054759
0.0524102
0.0547511
0.0523806
0.0528433
0.0538517
0.0527782
0.053822
0.0527468
0.053786
0.052683
0.053048
0.0536017
0.0529406
0.0535697
0.0529131
0.0534973
0.0528088
0.053045
0.0531074
0.0528884
0.0530802
0.05286
0.0529654
0.0527103
0.0529681
0.0528689
0.0527513
0.0528384
0.0527085
0.0526762
0.052505
0.0529231
0.0527193
0.0526281
0.0526693
0.0525468
0.0524507
0.0522763
0.0529134
0.0525987
0.0525077
0.0525031
0.0523574
0.0522128
0.0519962
0.052933
0.0524743
0.0523597
0.052302
0.052109
0.0519121
0.0516138
0.0529822
0.0523147
0.0521528
0.0520331
0.0517622
0.0514955
0.0510708
0.0531075
0.0520885
0.0518708
0.0516551
0.0512875
0.0509014
0.050299
0.0536374
0.0517957
0.0516252
0.0511543
0.0507884
0.0500655
0.0492785
0.0559923
0.0516116
0.0518477
0.0507083
0.0508319
0.0489915
0.0480648
0.0654735
0.0520474
0.0527841
0.0510796
0.0528442
0.047713
0.0461206
0.0928181
0.0527521
0.0478819
0.0537419
0.0534335
0.0451168
0.0381578
0.0805585
0.0838834
0.0713372
0.0523579
0.0692741
0.0599816
0.0614703
0.0524251
0.0547775
0.0524183
0.0547482
0.0523701
0.0547544
0.0523637
0.0527591
0.0538265
0.0527235
0.053774
0.0526643
0.0537621
0.0526302
0.05291
0.0535372
0.0528421
0.0534762
0.0527789
0.0534349
0.052713
0.0528434
0.0529973
0.0527393
0.0529324
0.0526671
0.0528588
0.0525677
0.0526886
0.0527055
0.0525404
0.0526292
0.052446
0.0525208
0.0523072
0.0525425
0.0524907
0.0523382
0.0523873
0.0521978
0.0522374
0.0520105
0.0523897
0.052285
0.0521069
0.0521285
0.0518911
0.0519271
0.0516392
0.0521919
0.0520378
0.0517873
0.0517985
0.0514689
0.0515262
0.0511199
0.0519049
0.051685
0.0512991
0.0513376
0.0508646
0.0509567
0.0503604
0.0514851
0.0511373
0.0505193
0.0506748
0.0499918
0.0501181
0.0492235
0.0509564
0.050259
0.0492622
0.0497222
0.0487776
0.0488583
0.0475025
0.0504637
0.0488385
0.0471544
0.048413
0.047121
0.0469431
0.0448125
0.0495665
0.0463972
0.0431057
0.0465852
0.0442317
0.0439006
0.0402305
0.0429371
0.0414887
0.0341972
0.0429887
0.0361955
0.0385769
0.0317761
0.0146908
0.0309137
0.0198577
0.0323683
0.01671
0.0289038
0.0195558
0.0523985
0.0549279
0.0524307
0.0547404
0.0523437
0.0549076
0.0523763
0.052703
0.0538295
0.0527066
0.0537438
0.0526096
0.053766
0.0526166
0.052818
0.0535176
0.0528092
0.0534136
0.052689
0.0534191
0.0526828
0.0527098
0.0529593
0.0526866
0.0528338
0.0525389
0.0528246
0.0525188
0.0525023
0.0526474
0.0524669
0.0524902
0.0522705
0.0524666
0.0522407
0.0522887
0.052411
0.0522335
0.0521984
0.0519643
0.0521661
0.0519178
0.0520404
0.05217
0.0519533
0.051878
0.0515796
0.0518259
0.0515056
0.0516928
0.0518686
0.0515582
0.0514619
0.0510382
0.0513802
0.0509289
0.0511566
0.0514294
0.050934
0.0508675
0.0502415
0.0507446
0.0500647
0.0502887
0.0507238
0.0499118
0.0499863
0.0490396
0.0497859
0.0487493
0.0488579
0.0495628
0.0481967
0.0486507
0.0471958
0.0483196
0.0467051
0.0464123
0.0476054
0.0452632
0.0465914
0.0442832
0.0460311
0.0434714
0.0419057
0.0442412
0.040211
0.0433004
0.0394405
0.0423966
0.0383298
0.0336744
0.0384896
0.0320898
0.0377775
0.03151
0.0366547
0.0306457
0.0213012
0.0296057
0.0217691
0.028997
0.0207187
0.0283625
0.0212257
0.0547512
0.0524023
0.0547287
0.0523546
0.0538135
0.0527397
0.0537562
0.0526561
0.0535627
0.0529076
0.0534702
0.0527868
0.0530748
0.0528539
0.0529436
0.0526862
0.0528314
0.0526961
0.0526488
0.052458
0.0526542
0.0525189
0.0523929
0.0521696
0.0524694
0.0523009
0.0520837
0.0517792
0.0522359
0.0520071
0.0516584
0.0512241
0.0519161
0.0515871
0.0510496
0.0504127
0.0514549
0.0509846
0.0501543
0.0492048
0.0508035
0.0502221
0.0488193
0.0474076
0.0500337
0.0496307
0.0468363
0.0447192
0.0496011
0.049994
0.0438338
0.0402534
0.0501622
0.0466487
0.0385599
0.0305171
0.0419233
0.0288913
0.0248341
0.0332397
0.0523919
0.0547434
0.0523631
0.054729
0.0523449
0.0547242
0.052316
0.0527159
0.0537648
0.0526524
0.0537435
0.0526327
0.0537088
0.0525701
0.0528695
0.0534638
0.0527661
0.0534437
0.0527496
0.053373
0.052649
0.0528
0.0529193
0.0526525
0.0529029
0.0526347
0.052793
0.0524939
0.052624
0.0526137
0.052425
0.0525935
0.0523906
0.0524422
0.0522048
0.0524237
0.0523634
0.0521613
0.0523209
0.0520827
0.0521227
0.0518436
0.0521749
0.0520865
0.051828
0.0519912
0.0516677
0.0517369
0.051361
0.0518372
0.051727
0.0513675
0.0515394
0.0510794
0.0512125
0.0506806
0.0513571
0.0512247
0.050711
0.0508951
0.0502257
0.0504687
0.0497045
0.0506766
0.0505057
0.0497704
0.0499555
0.0489697
0.0493984
0.0482907
0.0498157
0.0494816
0.0484766
0.0485724
0.04713
0.0478479
0.0462488
0.0490559
0.0480926
0.0467565
0.046551
0.0444235
0.0456081
0.0432531
0.0487969
0.0462157
0.04388
0.0435393
0.0399872
0.0422785
0.0384675
0.0437004
0.042602
0.0352372
0.0383234
0.0306576
0.0367744
0.0297557
0.0288169
0.0350046
0.0329604
0.0276831
0.0262283
0.0255465
0.0313231
0.0523521
0.0547472
0.0523461
0.0547221
0.052306
0.0547298
0.0523
0.0526338
0.0537413
0.0526
0.0536974
0.0525517
0.0536864
0.0525188
0.0527364
0.0534019
0.0526712
0.0533523
0.0526201
0.0533125
0.0525569
0.0526101
0.0528139
0.0525122
0.0527613
0.0524532
0.052691
0.0523602
0.0523674
0.052461
0.0522316
0.0523983
0.0521509
0.0522975
0.0520241
0.0520852
0.0521552
0.0519036
0.0520652
0.0517741
0.0519293
0.0516083
0.0517273
0.05181
0.0514855
0.051663
0.0512719
0.0514864
0.0510586
0.0512303
0.0513579
0.0508996
0.0511174
0.0505644
0.0508899
0.0502852
0.0505185
0.0507161
0.0500483
0.0503442
0.0495502
0.0500443
0.0491748
0.0494897
0.0497784
0.0487883
0.0492325
0.0480831
0.048827
0.0475671
0.0480335
0.0483863
0.0469033
0.0476234
0.0459608
0.0470616
0.0452234
0.0459644
0.0462955
0.044004
0.0452931
0.0428369
0.0444823
0.0417655
0.0424202
0.0430369
0.0392364
0.0418233
0.0379182
0.0406611
0.0365847
0.0340989
0.0375735
0.0309699
0.0362329
0.0296889
0.0349303
0.0289706
0.0170174
0.0282502
0.0195156
0.0269914
0.0180771
0.026686
0.0195877
0.0523262
0.0549015
0.0523587
0.0547166
0.0522806
0.0548854
0.0523133
0.0525794
0.0537458
0.0525879
0.0536687
0.0524981
0.0536922
0.0525078
0.0526473
0.0533873
0.0526426
0.053291
0.0525327
0.0532992
0.0525321
0.0524835
0.052781
0.0524645
0.0526659
0.0523317
0.0526621
0.0523166
0.0521955
0.0524083
0.0521671
0.0522676
0.0519895
0.0522492
0.0519657
0.0518585
0.0520866
0.0518149
0.0518928
0.0515664
0.0518678
0.0515308
0.0514283
0.0517124
0.051359
0.0514425
0.0510076
0.0514021
0.0509529
0.0508222
0.05122
0.0507204
0.0508359
0.0502196
0.0507754
0.0501395
0.0499374
0.0505178
0.049775
0.0499737
0.0490863
0.0498844
0.0489641
0.0486204
0.0494731
0.0483589
0.0487312
0.0474437
0.0485963
0.0472615
0.0466308
0.0479013
0.0461983
0.0469266
0.0450442
0.0467246
0.0447706
0.0435497
0.0454948
0.0428555
0.044285
0.0415079
0.0439833
0.0411217
0.0385889
0.041761
0.0376776
0.0403846
0.0362854
0.0399739
0.0358659
0.0307857
0.0360189
0.0301518
0.0346477
0.028939
0.034262
0.0288105
0.0205719
0.0279439
0.0210724
0.0268284
0.0202574
0.0268251
0.0207238
0.0547226
0.0523389
0.0547229
0.0523197
0.0537376
0.0526308
0.053711
0.0525803
0.0534426
0.0527516
0.0533847
0.0526721
0.0529055
0.0526375
0.0528185
0.0525236
0.0525957
0.0523888
0.0524712
0.0522248
0.0523168
0.0520678
0.0521366
0.0518256
0.0519711
0.0516268
0.0517032
0.0512624
0.0514895
0.050995
0.0510859
0.0504467
0.0507959
0.0500692
0.0501894
0.0492494
0.0497741
0.0486871
0.0488678
0.0474618
0.048244
0.0466086
0.0468883
0.044768
0.0459401
0.0434356
0.0439011
0.0406868
0.0423837
0.0382224
0.0393713
0.0345163
0.0363538
0.0284325
0.0325548
0.0255966
0.0248606
0.0125282
0.0229782
0.0150159
0.0523291
0.054719
0.052301
0.0547242
0.0523109
0.0547219
0.0522836
0.0526074
0.0536901
0.0525445
0.0537015
0.0525574
0.0536641
0.052496
0.0527147
0.0533452
0.0526146
0.0533588
0.052636
0.0532897
0.0525385
0.0525868
0.052756
0.0524478
0.0527791
0.0524745
0.052673
0.0523408
0.0523228
0.0523923
0.0521408
0.0524188
0.0521623
0.0522762
0.0519906
0.0519835
0.0520528
0.0517512
0.0520703
0.0517475
0.0518884
0.0515322
0.0515196
0.0516351
0.0512246
0.0516207
0.0511655
0.0513936
0.0508992
0.0508576
0.051062
0.0504793
0.0509835
0.0503267
0.0507027
0.0499975
0.0498947
0.0502471
0.0494095
0.050063
0.0491042
0.0497167
0.0487044
0.0484732
0.049074
0.0478591
0.0487167
0.0472974
0.0482996
0.0468348
0.0463671
0.0473725
0.0456103
0.0467216
0.0446076
0.0462483
0.0441256
0.0432063
0.0449021
0.042302
0.043749
0.0405896
0.043276
0.0402034
0.0380985
0.0412343
0.0371691
0.039305
0.0345957
0.0389766
0.0345738
0.0287634
0.035436
0.0287016
0.032703
0.0260232
0.0328426
0.0268664
0.0140636
0.0259414
0.0171092
0.0235244
0.0159256
0.0246596
0.0179331
0.0522908
0.054725
0.0522846
0.0547203
0.0522736
0.0547295
0.0522681
0.0525261
0.0536672
0.0524929
0.0536526
0.0524778
0.0536421
0.0524456
0.0525859
0.0532848
0.0525229
0.0532694