/*--------------------------------*- C++ -*----------------------------------*\
| =========                 |                                                 |
| \\      /  F ield         | OpenFOAM: The Open Source CFD Toolbox           |
|  \\    /   O peration     | Version:  2012                                  |
|   \\  /    A nd           | Website:  www.openfoam.com                      |
|    \\/     M anipulation  |                                                 |
\*---------------------------------------------------------------------------*/
FoamFile
{
    version     2.0;
    format      ascii;
    class       pointVectorField;
    location    "0.104/fluid";
    object      pointMotionU;
}
// * * * * * * * * * * * * * * * * * * * * * * * * * * * * * * * * * * * * * //

dimensions      [0 1 -1 0 0 0 0];


internalField   nonuniform List<vector> 
19865
(
(0 0 0)
(0.000188341 -8.67202e-07 3.12156e-05)
(0.000325155 9.79941e-06 6.14053e-05)
(0.000412915 3.31196e-05 9.02043e-05)
(0.000465781 6.79828e-05 0.000118212)
(0.000488316 0.000111662 0.000145392)
(0.000479991 0.000160725 0.00017132)
(0.000446909 0.000207771 0.000193065)
(0.000393897 0.000244692 0.000206299)
(0.000332817 0.000262587 0.000205981)
(0.000285618 0.000248435 0.000187225)
(0.00024674 0.000198546 0.000144989)
(0.000161056 0.00012388 7.02105e-05)
(5.78885e-06 4.96781e-05 -9.30291e-06)
(-8.93214e-06 1.59968e-05 -1.37258e-05)
(8.93564e-05 -9.77158e-06 -2.82309e-06)
(0 0 0)
(0.000200579 8.17952e-07 3.47542e-05)
(0.000350541 9.77653e-06 6.80756e-05)
(0.000452459 2.80784e-05 9.97195e-05)
(0.000516489 5.53797e-05 0.000130138)
(0.000543522 9.07726e-05 0.000159313)
(0.000533579 0.000130841 0.00018575)
(0.000494879 0.000169032 0.0002059)
(0.000434317 0.000200522 0.000216116)
(0.000361284 0.000216093 0.000211243)
(0.000292603 0.000204797 0.000187107)
(0.000230668 0.000166212 0.000142063)
(0.000142626 0.000111024 7.37113e-05)
(1.73729e-05 5.42923e-05 2.11983e-06)
(-5.01656e-05 1.9551e-05 -2.34653e-05)
(1.39563e-05 3.0993e-05 2.68779e-06)
(0 0 0)
(0.000204503 9.39942e-07 3.68747e-05)
(0.000361201 5.95677e-06 7.17916e-05)
(0.000469721 1.57502e-05 0.000104292)
(0.000539594 3.04928e-05 0.000135597)
(0.000569663 4.98902e-05 0.000164982)
(0.000556819 7.22892e-05 0.000190241)
(0.000509536 9.48489e-05 0.000207852)
(0.000439042 0.000114157 0.000213965)
(0.000356165 0.00012426 0.000204246)
(0.00027224 0.000118628 0.000176468)
(0.0001908 9.89761e-05 0.000131011)
(0.000103328 7.1314e-05 7.24135e-05)
(1.12415e-05 4.48627e-05 1.80016e-05)
(-4.39571e-05 3.37648e-05 -6.69924e-07)
(-1.67563e-05 4.4757e-05 2.20075e-05)
(0 0 0)
(0.000205341 0 3.77426e-05)
(0.000363533 0 7.27819e-05)
(0.000473377 0 0.000105002)
(0.000544665 0 0.0001363)
(0.000575558 0 0.0001655)
(0.000561223 0 0.000189913)
(0.000508535 0 0.000206154)
(0.000434165 0 0.000209935)
(0.000350308 0 0.000198304)
(0.000261721 0 0.000169325)
(0.000173444 0 0.000124797)
(8.61116e-05 0 7.17143e-05)
(7.34779e-06 0 2.76198e-05)
(-3.65887e-05 0 1.4896e-05)
(-1.67885e-05 0 3.38754e-05)
(0 0 0)
(0.000219648 -3.64326e-06 3.08657e-05)
(0.000386266 5.70557e-06 6.17288e-05)
(0.000495854 2.67045e-05 8.98023e-05)
(0.000567493 5.96834e-05 0.000117321)
(0.000607931 0.000101353 0.00014406)
(0.000621697 0.000149751 0.000170045)
(0.000615066 0.000195228 0.000191697)
(0.000588598 0.000231745 0.000205256)
(0.000547226 0.000250506 0.000205805)
(0.00049849 0.000240557 0.00018788)
(0.000435341 0.000199354 0.000148415)
(0.000317126 0.000134854 8.26136e-05)
(0.000117338 6.5801e-05 7.87935e-06)
(8.76165e-06 2.26259e-05 -1.45069e-05)
(6.09914e-05 2.96569e-05 9.5114e-07)
(0 0 0)
(0.000233343 -1.97388e-06 3.41171e-05)
(0.000414014 5.74863e-06 6.78752e-05)
(0.000536923 2.28347e-05 9.90917e-05)
(0.000617907 4.96443e-05 0.00012945)
(0.000662063 8.416e-05 0.000158309)
(0.000673328 0.000123572 0.000184479)
(0.000660174 0.000161674 0.000204742)
(0.000626506 0.000192662 0.000214832)
(0.000574018 0.000209059 0.000210408)
(0.000508452 0.00020154 0.000187816)
(0.00042433 0.00016919 0.000145046)
(0.000301906 0.00011991 8.31286e-05)
(0.000139375 6.94351e-05 1.9329e-05)
(2.80687e-05 3.79987e-05 -8.03328e-06)
(5.6643e-05 4.30296e-05 9.94257e-06)
(0 0 0)
(0.000237866 -8.72493e-07 3.60849e-05)
(0.00042358 3.36889e-06 7.10419e-05)
(0.000552715 1.32024e-05 0.000103884)
(0.000637828 2.78659e-05 0.000135111)
(0.00068336 4.67902e-05 0.00016445)
(0.000690743 6.93236e-05 0.000189613)
(0.00066832 9.22725e-05 0.000207127)
(0.000625592 0.000111628 0.000213198)
(0.00056375 0.000122407 0.000204256)
(0.000482918 0.000119578 0.000178307)
(0.000383609 0.0001033 0.000135675)
(0.000265422 7.81394e-05 8.18049e-05)
(0.000141848 5.35062e-05 3.27963e-05)
(6.24782e-05 4.03995e-05 1.27217e-05)
(8.26708e-05 4.21208e-05 2.5598e-05)
(0 0 0)
(0.000239921 0 3.72644e-05)
(0.000424762 0 7.20486e-05)
(0.00055332 0 0.000104293)
(0.000639198 0 0.000135575)
(0.000686232 0 0.000164942)
(0.000691526 0 0.00018948)
(0.000664385 0 0.000205561)
(0.000616942 0 0.00020957)
(0.000551229 0 0.000198862)
(0.000465172 0 0.000171941)
(0.000361163 0 0.000130267)
(0.000246294 0 8.10349e-05)
(0.000139013 0 3.98117e-05)
(7.71121e-05 0 2.40593e-05)
(9.78895e-05 0 3.37142e-05)
(0 0 0)
(0.000247023 -5.21843e-06 2.49505e-05)
(0.000435907 1.99195e-06 4.9385e-05)
(0.000563698 2.16415e-05 7.1985e-05)
(0.000649515 5.26414e-05 9.40215e-05)
(0.000703843 9.22978e-05 0.000115813)
(0.000736 0.000137249 0.000137108)
(0.000751995 0.000179701 0.00015529)
(0.000747476 0.000215274 0.000167448)
(0.000717133 0.000235731 0.000169429)
(0.000657853 0.000232978 0.000156955)
(0.000564269 0.00020367 0.000127866)
(0.000424043 0.000153998 8.02839e-05)
(0.000246177 0.000100537 2.7212e-05)
(0.000127073 6.22745e-05 1.07478e-06)
(0.000153835 5.26837e-05 1.00163e-05)
(0 0 0)
(0.000262037 -3.58176e-06 2.7298e-05)
(0.000464876 2.65176e-06 5.41835e-05)
(0.00060328 1.89051e-05 7.95446e-05)
(0.000696272 4.48184e-05 0.000104011)
(0.000754459 7.85866e-05 0.000127645)
(0.000785495 0.000115748 0.000148947)
(0.00079643 0.00015229 0.000165577)
(0.000786171 0.000182917 0.000174441)
(0.000748832 0.00020094 0.000172809)
(0.000680453 0.00019927 0.00015733)
(0.000574543 0.000175925 0.000125592)
(0.000435243 0.000137142 8.08293e-05)
(0.000279726 9.72286e-05 3.52331e-05)
(0.00018199 7.03849e-05 1.26746e-05)
(0.00020717 6.10397e-05 1.81627e-05)
(0 0 0)
(0.00026735 -2.00009e-06 2.86467e-05)
(0.000473879 1.43432e-06 5.65135e-05)
(0.000617179 1.09381e-05 8.34845e-05)
(0.000711839 2.52474e-05 0.00010891)
(0.000769938 4.42376e-05 0.000132417)
(0.000797205 6.62524e-05 0.000152638)
(0.000799221 8.88458e-05 0.000167095)
(0.000780769 0.000108162 0.000172709)
(0.0007361 0.000120085 0.000167539)
(0.000657948 0.000120651 0.00014941)
(0.000546267 0.000109114 0.000117896)
(0.000413104 8.86712e-05 7.82807e-05)
(0.000286082 6.74834e-05 4.23689e-05)
(0.000215543 5.25479e-05 2.49434e-05)
(0.000244633 4.5893e-05 2.75041e-05)
(0 0 0)
(0.000267937 0 2.92709e-05)
(0.000474215 0 5.73846e-05)
(0.000616423 0 8.38674e-05)
(0.000711192 0 0.000109362)
(0.000769326 0 0.000132929)
(0.000794291 0 0.000152608)
(0.000791901 0 0.000165616)
(0.000768992 0 0.000169679)
(0.000720033 0 0.000162988)
(0.000637841 0 0.000144002)
(0.000525118 0 0.000113338)
(0.000397072 0 7.67041e-05)
(0.000283602 0 4.53652e-05)
(0.000227182 0 3.0392e-05)
(0.000258189 0 3.16997e-05)
(0 0 0)
(0.000262812 -5.99867e-06 1.37399e-05)
(0.00046542 5.95074e-08 2.72681e-05)
(0.000603361 1.86373e-05 3.99307e-05)
(0.000697434 4.84427e-05 5.23701e-05)
(0.00076042 8.58748e-05 6.47183e-05)
(0.00080412 0.000126848 7.68499e-05)
(0.000835227 0.000166034 8.73135e-05)
(0.000844973 0.000199835 9.47902e-05)
(0.000819251 0.000222012 9.70355e-05)
(0.00074947 0.000225237 9.17533e-05)
(0.000635644 0.000205964 7.73111e-05)
(0.00049326 0.000170818 5.35385e-05)
(0.000362608 0.000132994 2.76049e-05)
(0.000305965 0.000104072 1.23408e-05)
(0.000365033 8.59016e-05 1.04316e-05)
(0 0 0)
(0.000279127 -4.28978e-06 1.5004e-05)
(0.00049534 1.14322e-06 2.97577e-05)
(0.000642258 1.62381e-05 4.36109e-05)
(0.00074146 4.12497e-05 5.73901e-05)
(0.000807548 7.30412e-05 7.06161e-05)
(0.000852211 0.000108047 8.27168e-05)
(0.000880891 0.000143365 9.27912e-05)
(0.000887806 0.000173221 9.86829e-05)
(0.000859263 0.000192473 9.93542e-05)
(0.000787433 0.000195511 9.24044e-05)
(0.000671793 0.000179851 7.66574e-05)
(0.000530013 0.000151012 5.39592e-05)
(0.000401563 0.000119642 3.09172e-05)
(0.000347793 9.55108e-05 1.76131e-05)
(0.000402182 7.95337e-05 1.49396e-05)
(0 0 0)
(0.000285104 -2.57936e-06 1.55879e-05)
(0.000504285 3.48334e-07 3.09065e-05)
(0.000654343 9.27789e-06 4.58186e-05)
(0.000754017 2.32384e-05 6.03055e-05)
(0.000819013 4.08939e-05 7.36966e-05)
(0.000860281 6.20279e-05 8.48343e-05)
(0.000881659 8.47295e-05 9.35817e-05)
(0.00088086 0.000103399 9.77217e-05)
(0.000848441 0.000116577 9.63654e-05)
(0.000773467 0.000119666 8.77399e-05)
(0.000659069 0.00011165 7.19367e-05)
(0.000523811 9.60026e-05 5.14157e-05)
(0.000406599 7.74015e-05 3.25279e-05)
(0.000362406 6.21491e-05 2.1645e-05)
(0.00041358 5.1598e-05 1.90795e-05)
(0 0 0)
(0.000285327 0 1.58613e-05)
(0.000503002 0 3.12513e-05)
(0.00065239 0 4.62366e-05)
(0.000752031 0 6.09722e-05)
(0.000817406 0 7.40462e-05)
(0.000856149 0 8.45083e-05)
(0.000872422 0 9.2462e-05)
(0.000867291 0 9.63376e-05)
(0.00083072 0 9.41991e-05)
(0.00075295 0 8.45786e-05)
(0.000640123 0 6.89202e-05)
(0.000510632 0 4.99335e-05)
(0.000402234 0 3.29592e-05)
(0.000363798 0 2.30625e-05)
(0.000414722 0 2.04679e-05)
(0 0 0)
(0.000266148 -5.70593e-06 0)
(0.000471209 -6.42472e-08 0)
(0.000612049 1.77973e-05 0)
(0.000708908 4.67334e-05 0)
(0.000774982 8.25244e-05 0)
(0.000822963 0.000122143 0)
(0.000858777 0.000159483 0)
(0.000872684 0.000192463 0)
(0.000847266 0.000214866 0)
(0.000774003 0.000220182 0)
(0.000655523 0.000205255 0)
(0.000517679 0.000176366 0)
(0.000410805 0.00014521 0)
(0.000386911 0.000120521 0)
(0.000460444 0.000102262 0)
(0 0 0)
(0.000282678 -4.13908e-06 0)
(0.000501518 7.70822e-07 0)
(0.000651531 1.53014e-05 0)
(0.000753608 3.99642e-05 0)
(0.000821532 6.99444e-05 0)
(0.000870399 0.00010367 0)
(0.000904939 0.000137834 0)
(0.000917376 0.000166987 0)
(0.000891834 0.00018634 0)
(0.000819534 0.000191559 0)
(0.000702756 0.000179371 0)
(0.000563681 0.000154943 0)
(0.000451327 0.000126929 0)
(0.000421709 0.000104076 0)
(0.000488585 8.79257e-05 0)
(0 0 0)
(0.00028867 -2.6017e-06 0)
(0.000510959 1.44039e-08 0)
(0.0006635 8.67028e-06 0)
(0.00076553 2.2211e-05 0)
(0.000833158 3.90028e-05 0)
(0.000879047 5.92796e-05 0)
(0.000907219 8.12072e-05 0)
(0.000912898 9.8935e-05 0)
(0.000884578 0.000112342 0)
(0.000811247 0.00011685 0)
(0.000697881 0.000110664 0)
(0.000564228 9.69307e-05 0)
(0.000455016 7.89397e-05 0)
(0.000425868 6.41322e-05 0)
(0.000488217 5.36419e-05 0)
(0 0 0)
(0.000289496 0 0)
(0.00051016 0 0)
(0.000662425 0 0)
(0.000764243 0 0)
(0.000832086 0 0)
(0.0008755 0 0)
(0.000898245 0 0)
(0.000900092 0 0)
(0.000867502 0 0)
(0.00079187 0 0)
(0.000681217 0 0)
(0.000554017 0 0)
(0.000451167 0 0)
(0.000421717 0 0)
(0.000483026 0 0)
(0.000118511 2.1354e-05 1.85946e-05)
(1.7088e-05 2.04165e-05 -4.99432e-06)
(5.39644e-05 7.52367e-06 9.97211e-07)
(7.60351e-06 1.8687e-05 -1.22723e-05)
(8.18874e-05 1.25691e-05 -1.8471e-06)
(7.0763e-06 2.05464e-05 -1.41323e-05)
(7.43507e-05 3.09699e-05 1.79521e-08)
(3.60114e-05 2.10851e-05 -5.46744e-06)
(2.49995e-05 2.12223e-05 -6.32386e-06)
(0.000118064 7.23945e-06 -2.97576e-06)
(5.73831e-05 1.47873e-05 -6.28624e-07)
(4.79867e-05 2.20249e-05 -2.35307e-06)
(-9.84744e-06 2.57753e-05 -2.04452e-05)
(5.09674e-05 2.17276e-05 2.79898e-06)
(1.64467e-05 1.55739e-05 -8.77795e-06)
(4.30658e-05 3.13133e-05 -5.09842e-06)
(3.37953e-05 1.50711e-05 2.05191e-06)
(3.63602e-05 1.79577e-05 2.87591e-06)
(5.87859e-05 2.54403e-05 4.18072e-06)
(0.000105684 -4.43959e-06 5.8785e-06)
(2.38805e-05 1.69549e-05 -6.98347e-06)
(7.94547e-05 2.26695e-05 2.96773e-06)
(3.38481e-05 1.92987e-05 -4.89178e-06)
(8.35994e-05 2.21133e-05 1.73055e-06)
(-2.91147e-06 4.60893e-05 -1.3135e-05)
(1.78414e-06 1.64418e-05 -1.00477e-05)
(-3.76477e-05 2.48341e-05 -2.37643e-05)
(6.04066e-05 5.49098e-05 -1.10803e-06)
(-3.50354e-05 1.30996e-05 -2.22064e-05)
(-1.63949e-05 1.37703e-05 -1.40408e-05)
(1.0303e-05 1.97285e-05 -7.35071e-06)
(2.44216e-05 1.51466e-05 -4.62394e-06)
(1.61379e-06 1.76508e-05 -1.25319e-05)
(4.94861e-05 1.05632e-05 -1.73736e-06)
(8.03776e-05 -1.07217e-05 -2.56222e-06)
(9.68669e-05 -1.09273e-05 -3.09919e-06)
(7.89698e-05 -6.33164e-06 1.53624e-06)
(9.0954e-05 -2.11882e-06 -2.58541e-06)
(-2.30441e-05 1.98261e-05 -1.23785e-05)
(-1.56457e-05 2.70303e-05 -1.60415e-05)
(2.85273e-05 3.5729e-05 5.55269e-06)
(0.000102381 6.28679e-05 3.70968e-06)
(-1.83974e-06 1.925e-05 -1.66192e-05)
(6.58192e-05 3.23446e-05 4.72438e-07)
(3.28349e-05 3.79502e-05 -1.26946e-05)
(1.6292e-05 2.93039e-05 -1.30443e-05)
(5.01292e-05 3.90512e-05 -8.7196e-06)
(6.69381e-06 1.9562e-05 -1.3678e-05)
(1.00909e-05 2.15879e-05 -1.36223e-05)
(1.80764e-05 2.0291e-05 -1.04789e-05)
(5.32325e-05 3.43677e-05 4.27231e-06)
(8.01829e-05 3.94763e-05 5.59407e-06)
(6.86933e-05 2.38306e-05 -7.42506e-07)
(7.03673e-05 2.97824e-05 1.80939e-08)
(5.08593e-05 2.38859e-05 -1.7545e-06)
(3.06193e-05 3.63207e-05 -1.95971e-06)
(0.000104328 5.87235e-05 -2.33889e-06)
(0.000133099 4.98502e-05 7.55973e-06)
(0.000126026 5.4288e-05 3.26701e-06)
(7.8705e-05 2.178e-05 7.70099e-06)
(6.81337e-05 2.65545e-05 6.43649e-06)
(0.000118246 1.40735e-05 7.87134e-06)
(8.71583e-05 2.42163e-05 7.55333e-06)
(7.39164e-05 2.28765e-05 4.99751e-06)
(7.44999e-05 1.42262e-05 1.01792e-05)
(8.79243e-06 1.68539e-05 -5.26936e-06)
(6.51665e-05 2.42801e-05 9.76194e-06)
(2.69781e-05 2.21284e-05 -4.25927e-06)
(1.05511e-05 1.77846e-05 -1.07062e-05)
(4.55612e-05 5.12721e-06 1.01607e-06)
(7.98385e-05 1.62478e-05 1.00402e-05)
(6.23902e-05 1.13615e-05 1.33542e-06)
(2.15464e-05 2.0994e-05 -7.72541e-06)
(3.28489e-05 1.83932e-05 -5.30215e-06)
(0.000101256 1.551e-05 -3.11868e-06)
(7.74157e-05 9.68083e-06 4.02233e-07)
(3.7573e-05 2.0809e-05 -4.37985e-06)
(1.31116e-05 1.91994e-05 -1.08898e-05)
(2.28688e-05 1.97861e-05 -8.40046e-06)
(9.72732e-05 2.53051e-05 -1.60494e-06)
(6.68908e-05 2.55401e-05 3.61157e-07)
(4.46387e-05 1.76068e-05 -3.62658e-06)
(4.58463e-05 2.17035e-05 -3.24241e-06)
(-3.83975e-05 2.24058e-05 -2.41833e-05)
(-5.15125e-06 1.35791e-05 -1.02606e-05)
(1.69203e-06 1.65405e-05 -7.72996e-06)
(1.09884e-05 7.79901e-06 -1.00692e-05)
(1.73749e-05 1.21311e-05 -4.61796e-06)
(6.9691e-05 -6.96528e-06 1.7037e-06)
(5.04e-05 5.18097e-05 -4.92996e-06)
(1.03544e-05 1.79448e-05 -9.36354e-06)
(-1.35236e-06 2.9113e-05 -1.7648e-05)
(2.13665e-05 3.43104e-05 -1.54494e-05)
(2.09291e-05 2.13999e-05 -6.41218e-06)
(2.07455e-06 1.7082e-05 -1.42321e-05)
(1.33899e-05 1.97671e-05 -1.1193e-05)
(4.37581e-05 1.91893e-05 2.73758e-06)
(8.60994e-05 1.8519e-05 1.10371e-05)
(7.77522e-05 2.76609e-05 1.05686e-05)
(4.61836e-05 2.10815e-05 3.2163e-08)
(-8.8888e-06 1.97735e-05 -1.71881e-05)
(4.98217e-05 2.22283e-05 4.1384e-07)
(-1.48573e-06 2.66798e-05 -7.60118e-06)
(2.7996e-05 2.6787e-05 -5.94678e-06)
(3.28352e-05 1.76244e-05 -4.16301e-06)
(8.36429e-05 -7.09718e-07 1.40535e-06)
(2.41465e-05 1.81644e-05 -8.21747e-06)
(6.1899e-05 1.86101e-05 -1.19087e-06)
(3.56916e-05 3.52918e-05 -1.12792e-05)
(7.108e-05 3.75601e-05 3.51999e-06)
(5.56511e-05 3.4718e-05 -3.21925e-06)
(0.000105425 5.09185e-05 5.63559e-07)
(1.32405e-05 1.83617e-05 -1.08367e-05)
(5.66343e-05 2.53181e-05 -5.97431e-07)
(2.37857e-05 2.02335e-05 -8.58771e-06)
(6.24244e-05 2.45446e-05 -5.59744e-07)
(5.46993e-05 1.88758e-05 9.37063e-06)
(6.85891e-05 1.23065e-05 9.89452e-06)
(4.89093e-05 2.24453e-05 3.78556e-06)
(9.55352e-05 -6.24286e-06 6.29623e-06)
(9.29538e-05 2.08311e-05 1.05402e-05)
(5.50696e-05 2.42998e-05 1.61206e-06)
(0.000106438 1.31382e-05 4.61326e-06)
(0.000105851 -5.99557e-06 -3.41511e-06)
(5.70434e-05 1.97888e-05 8.49035e-07)
(3.96385e-05 2.03652e-05 -2.54706e-06)
(9.62803e-05 2.30971e-05 4.52253e-06)
(8.47843e-05 2.92882e-05 -2.59402e-08)
(6.48915e-05 2.13247e-05 1.47755e-06)
(8.55192e-05 2.63456e-05 -1.77886e-06)
(9.16824e-05 3.31904e-05 1.37101e-05)
(8.49127e-05 2.80292e-05 1.42568e-05)
(7.07149e-05 2.35943e-05 1.30549e-05)
(8.62717e-05 -2.11757e-06 3.34847e-06)
(8.64935e-05 5.49873e-06 1.34383e-05)
(7.04941e-05 2.55113e-05 1.18128e-05)
(9.17765e-05 -1.88243e-06 1.20412e-06)
(9.16483e-05 5.45187e-06 1.1377e-05)
(0.000109352 1.4026e-05 1.45448e-05)
(9.77397e-05 1.2822e-06 3.89151e-06)
(9.80457e-05 9.12828e-06 1.40715e-05)
(0.000109141 6.03906e-06 4.28499e-06)
(9.46175e-05 3.58452e-05 1.27301e-05)
(8.78082e-05 3.02962e-05 1.34125e-05)
(0.000114846 1.40144e-05 1.11124e-05)
(0.000103365 1.53572e-06 8.45526e-07)
(0.000103344 9.10789e-06 1.12363e-05)
(0.0001149 6.21451e-06 5.92929e-07)
(6.19386e-05 2.29104e-05 4.48536e-06)
(9.78969e-05 2.43239e-05 9.87368e-06)
(0.000106277 2.40777e-05 3.71877e-06)
(6.84537e-05 2.47116e-05 5.17616e-06)
(0.000101507 2.51117e-05 7.95522e-06)
(0.000107011 2.37482e-05 7.41455e-07)
(0.000102365 3.19688e-05 1.50329e-05)
(9.62859e-05 2.79894e-05 1.39019e-05)
(0.000118378 1.7698e-05 1.33451e-05)
(0.000105713 3.30753e-05 1.29742e-05)
(9.43052e-05 2.4395e-05 1.13605e-05)
(9.24284e-05 -3.1225e-06 -1.64032e-06)
(9.7207e-05 -2.94014e-06 -4.06407e-06)
(9.05556e-05 2.04361e-05 1.66542e-05)
(8.78298e-05 1.97056e-05 1.64523e-05)
(9.32833e-05 2.16632e-05 1.47119e-05)
(0.000118139 1.05938e-05 2.42977e-06)
(0.000112977 1.52062e-05 -7.85575e-07)
(0.000115655 1.50765e-05 -4.53997e-06)
(0.000110152 1.71205e-05 -2.49033e-06)
(5.18688e-05 2.12749e-05 4.14079e-06)
(7.53659e-05 2.66839e-05 9.58364e-06)
(7.16e-05 2.62072e-05 9.29511e-06)
(5.57412e-05 2.32818e-05 3.35446e-06)
(4.07578e-05 1.83639e-05 3.1838e-06)
(4.9587e-05 1.80498e-05 8.02189e-06)
(5.15018e-05 1.97402e-05 8.05996e-06)
(5.58129e-05 1.97638e-05 8.13771e-06)
(4.2523e-05 2.1377e-05 3.55023e-06)
(8.98393e-05 -6.62143e-06 6.40072e-06)
(0.0001034 6.8252e-06 9.43044e-06)
(7.6705e-05 2.87553e-05 9.65192e-06)
(5.9498e-05 2.47219e-05 5.48007e-06)
(8.09968e-05 3.0417e-05 9.53568e-06)
(6.36708e-05 2.70003e-05 4.53964e-06)
(0.000100717 -4.46557e-06 6.01918e-06)
(0.000109351 7.01923e-06 5.91188e-06)
(0.000102436 6.55953e-06 9.39595e-06)
(0.0001088 1.38711e-06 5.48095e-06)
(0.000106264 -7.10991e-06 1.42928e-06)
(3.70457e-05 1.86205e-05 -2.80421e-06)
(4.10546e-05 1.82906e-05 -2.15811e-06)
(3.41638e-05 1.87116e-05 -3.6877e-06)
(9.12857e-05 2.06956e-05 5.2954e-06)
(7.2874e-05 2.08578e-05 3.39136e-06)
(9.30849e-05 2.31829e-05 5.03631e-06)
(8.5795e-05 2.52106e-05 2.07937e-06)
(4.69276e-05 2.13824e-05 -9.14326e-07)
(4.25795e-05 2.06783e-05 -2.03886e-06)
(5.03338e-05 2.04861e-05 -6.75111e-07)
(9.57776e-05 2.08739e-05 3.21572e-06)
(9.57144e-05 2.31564e-05 3.55549e-06)
(7.92309e-05 2.16646e-05 2.96402e-06)
(8.78058e-05 2.33524e-05 2.3658e-07)
(9.12396e-05 -1.1477e-05 -2.86762e-06)
(9.65835e-05 -1.03746e-05 1.85139e-06)
(0.000101703 -8.23709e-06 -3.32998e-06)
(0.000103102 2.65852e-05 1.73714e-05)
(0.0001009 2.43273e-05 1.70863e-05)
(0.000105994 2.8055e-05 1.49776e-05)
(8.87925e-05 2.12662e-05 1.081e-05)
(6.82796e-05 2.58429e-05 6.12875e-06)
(6.79414e-05 2.02948e-05 4.32123e-06)
(8.22363e-05 2.92639e-05 1.07879e-05)
(6.36975e-05 2.5176e-05 5.48804e-06)
(7.01392e-05 2.75519e-05 6.27981e-06)
(5.66394e-05 2.32942e-05 2.86086e-06)
(0.000113274 1.79078e-05 9.68015e-06)
(0.000118245 1.81564e-05 5.53498e-06)
(0.000111518 1.93385e-05 6.95422e-06)
(9.62687e-05 2.36631e-05 1.01911e-05)
(7.56565e-05 2.89596e-05 6.60086e-06)
(0.000101333 1.79862e-05 7.4444e-06)
(7.6729e-05 2.23945e-05 4.63354e-06)
(6.96648e-05 2.18295e-05 4.46887e-06)
(5.85248e-05 2.2273e-05 2.5997e-06)
(9.2398e-05 2.31264e-05 7.00228e-06)
(7.54463e-05 2.3116e-05 4.6889e-06)
(6.58651e-05 2.24341e-05 9.22594e-06)
(8.28993e-05 1.60402e-05 1.12557e-05)
(7.06555e-05 1.27478e-05 1.02675e-05)
(6.13662e-05 2.31461e-05 8.8586e-06)
(7.69277e-05 2.60966e-05 1.16579e-05)
(6.16845e-05 2.263e-05 1.0214e-05)
(6.51014e-05 2.50913e-05 9.07934e-06)
(9.19835e-05 2.8616e-06 8.86608e-06)
(9.77688e-05 3.04032e-06 6.16692e-06)
(0.000103871 1.0151e-06 -1.2688e-06)
(0.000108768 1.08054e-06 -4.41846e-06)
(9.32133e-05 2.68641e-05 -5.99719e-08)
(7.39693e-05 1.45868e-05 9.92801e-06)
(6.93074e-05 2.55713e-05 9.04683e-06)
(9.14351e-05 3.2309e-06 9.54946e-06)
(8.95367e-05 1.81665e-05 1.08993e-05)
(0.000106521 1.23785e-05 7.85932e-07)
(0.000107696 6.40151e-07 -3.42541e-06)
(9.19727e-05 2.44516e-05 -2.47995e-06)
(0.00010096 2.32922e-05 1.83627e-06)
(9.52421e-05 2.71703e-05 -5.56045e-07)
(9.52683e-05 2.54634e-05 -2.36753e-06)
(9.10803e-05 -1.05697e-05 2.0374e-06)
(0.000101681 -8.00702e-06 1.54231e-06)
(9.07861e-05 3.07868e-05 1.4545e-05)
(7.72558e-05 2.89716e-05 9.24159e-06)
(7.38275e-05 2.72611e-05 8.92917e-06)
(0.000107876 3.03025e-05 1.73579e-05)
(0.000104179 2.66381e-05 1.6683e-05)
(8.30765e-05 3.03534e-05 1.06962e-05)
(7.27041e-05 2.49966e-05 1.00494e-05)
(6.93095e-05 2.47467e-05 9.84599e-06)
(7.83341e-05 2.55609e-05 1.37966e-05)
(9.72941e-05 2.32479e-05 1.71198e-05)
(9.51323e-05 2.15203e-05 1.69462e-05)
(9.81734e-05 -1.17585e-06 -1.44316e-06)
(0.000109511 3.6764e-06 -1.14056e-06)
(6.04778e-05 2.07623e-05 9.07565e-06)
(5.59038e-05 2.15039e-05 8.62846e-06)
(8.45383e-05 1.80031e-05 1.63333e-05)
(8.13168e-05 1.75881e-05 1.60884e-05)
(8.62533e-05 1.3364e-06 8.54731e-06)
(8.66818e-05 -4.62626e-06 -1.84348e-06)
(9.20329e-05 -4.98793e-07 3.63761e-06)
(9.23052e-05 7.19148e-06 1.37734e-05)
(5.72853e-05 2.32873e-05 8.40529e-06)
(6.11694e-05 2.36313e-05 8.4001e-06)
(8.66099e-05 1.90748e-05 1.44768e-05)
(8.01931e-05 2.75664e-05 1.28502e-05)
(9.1963e-05 1.4879e-06 6.30244e-06)
(9.14116e-05 -4.48662e-06 -3.86572e-06)
(9.75786e-05 -1.80754e-07 1.00646e-06)
(8.51495e-05 2.61126e-06 9.45539e-06)
(9.75424e-05 7.16943e-06 1.13132e-05)
(0.000103783 1.14305e-05 1.43585e-05)
(0.000109092 9.50564e-06 9.62904e-06)
(0.000112246 2.17621e-05 1.42158e-05)
(9.77189e-05 4.79933e-06 9.16822e-06)
(0.000103465 3.51255e-06 4.12489e-06)
(0.000113631 1.52035e-05 4.48643e-06)
(9.34444e-05 3.3351e-05 1.35193e-05)
(7.90544e-05 2.99071e-05 9.2209e-06)
(8.34451e-05 3.27066e-05 9.16611e-06)
(0.000110922 3.18324e-05 1.48424e-05)
(8.7437e-05 3.23986e-05 1.03546e-05)
(7.45297e-05 2.69259e-05 1.02548e-05)
(7.82572e-05 2.83201e-05 1.00708e-05)
(0.000100306 2.45864e-05 1.49767e-05)
(0.000109166 1.14408e-05 1.11536e-05)
(0.000115117 9.68342e-06 5.83474e-06)
(0.000105448 1.04152e-05 8.91774e-06)
(0.000117134 2.19647e-05 1.05465e-05)
(0.000103564 4.99215e-06 6.02291e-06)
(0.000109157 3.79268e-06 6.87495e-07)
(0.000102997 -1.0225e-06 -4.25276e-06)
(9.75142e-05 5.1669e-06 9.50985e-06)
(0.000109275 -5.09553e-07 1.14358e-06)
(0.000118135 1.53333e-05 4.05616e-07)
(0.000114472 3.70258e-06 -4.53415e-06)
(5.44281e-05 2.09078e-05 1.95576e-06)
(4.91934e-05 2.13292e-05 1.00967e-06)
(5.12229e-05 2.03825e-05 9.32493e-07)
(8.3758e-05 2.49024e-05 9.05062e-06)
(7.35883e-05 2.48671e-05 7.35988e-06)
(8.20831e-05 2.02789e-05 5.85306e-06)
(0.000105002 2.31542e-05 7.57568e-06)
(8.64084e-05 2.24657e-05 6.48162e-06)
(0.000107908 2.14819e-05 1.08223e-05)
(9.43046e-05 2.30062e-05 3.02559e-06)
(9.72849e-05 2.45056e-05 2.70239e-06)
(0.000112081 1.75949e-05 2.30806e-06)
(0.000104193 2.59269e-05 -6.32477e-07)
(5.6825e-05 2.34004e-05 2.32505e-06)
(6.31674e-05 2.3436e-05 3.07603e-06)
(5.85841e-05 2.21281e-05 2.02061e-06)
(8.87804e-05 2.62063e-05 8.53582e-06)
(0.000107497 2.34141e-05 4.82785e-06)
(8.94856e-05 2.16651e-05 4.96941e-06)
(9.0498e-05 2.32045e-05 5.68015e-06)
(9.65568e-05 2.15241e-05 4.57008e-07)
(9.82867e-05 2.36447e-05 8.10819e-07)
(0.000102699 2.48613e-05 -3.33678e-06)
(0.000110658 3.46175e-05 1.83485e-05)
(9.57501e-05 2.43668e-05 1.83855e-05)
(8.92706e-05 2.16671e-05 1.80443e-05)
(9.03918e-05 8.95016e-06 1.6606e-05)
(8.958e-05 2.29512e-05 1.64833e-05)
(9.45904e-05 8.76422e-06 1.4587e-05)
(0.00011344 1.83075e-05 1.75685e-05)
(9.61664e-05 1.08706e-05 1.6882e-05)
(0.000111583 3.60192e-05 1.66098e-05)
(9.67649e-05 2.56891e-05 1.68658e-05)
(0.000117817 1.81639e-05 1.45273e-05)
(0.00010039 1.06876e-05 1.45577e-05)
(8.85052e-05 2.85385e-05 1.20632e-05)
(0.000109176 2.44881e-05 1.49386e-05)
(0.000114199 1.55814e-05 1.13213e-06)
(9.09957e-05 2.92813e-05 1.15954e-05)
(0.000111671 2.47258e-05 1.28855e-05)
(0.000115438 1.55319e-05 -1.42952e-06)
(0.000107815 3.12479e-05 1.88292e-05)
(0.000102349 2.75402e-05 1.8739e-05)
(0.000107665 1.55754e-05 1.73921e-05)
(0.000101931 1.30701e-05 1.71556e-05)
(0.000108538 3.29186e-05 1.70418e-05)
(0.000103183 2.90853e-05 1.70622e-05)
(0.000111984 1.5404e-05 1.44774e-05)
(0.000106184 1.28913e-05 1.45043e-05)
(0.00011363 1.98281e-05 1.13141e-05)
(0.000114416 1.69016e-05 6.43468e-06)
(0.000116021 1.99266e-05 8.75567e-06)
(0.000116978 1.69395e-05 3.54364e-06)
(0.00011703 2.10291e-05 1.90921e-05)
(0.000111304 2.63408e-05 1.76372e-05)
(0.000118417 1.95742e-05 1.60785e-05)
(0.000120012 2.09511e-05 1.70065e-05)
(0.000107752 2.41696e-05 1.54936e-05)
(9.40467e-05 1.11746e-05 1.83749e-05)
(9.46081e-05 1.36539e-05 1.85992e-05)
(9.69189e-05 1.10081e-05 1.68898e-05)
(0.000118101 8.90463e-06 -2.78037e-07)
(0.000116336 7.22177e-06 -1.68958e-06)
(0.000119802 7.29297e-06 -4.22754e-06)
(0.000115704 1.05335e-05 -2.85345e-06)
(0.000105582 1.56105e-05 1.88201e-05)
(0.00010649 1.82501e-05 1.88954e-05)
(0.000108504 1.54479e-05 1.68886e-05)
(0.000118313 1.58648e-05 1.05996e-05)
(0.000118191 1.23166e-05 5.14676e-06)
(0.000116285 1.40722e-05 9.23415e-06)
(0.000120194 1.40951e-05 6.49156e-06)
(0.00011655 1.58083e-05 7.68853e-06)
(9.42092e-05 3.28771e-05 1.49242e-05)
(0.000104248 4.07329e-05 1.70366e-05)
(0.000102673 3.06219e-05 1.68356e-05)
(9.21327e-05 3.40017e-05 1.34447e-05)
(9.04589e-05 2.99025e-05 1.51487e-05)
(8.30137e-05 2.6944e-05 1.44982e-05)
(9.47903e-05 3.27341e-05 1.70816e-05)
(9.36211e-05 2.49027e-05 1.7022e-05)
(7.63689e-05 2.51996e-05 1.40295e-05)
(8.08192e-05 2.63922e-05 1.60704e-05)
(7.94226e-05 2.07056e-05 1.59836e-05)
(8.62126e-05 -4.75066e-07 5.95706e-06)
(8.64311e-05 -3.52628e-06 7.41964e-07)
(8.915e-05 -1.3655e-06 3.49586e-06)
(8.62045e-05 8.3289e-06 1.5365e-05)
(8.63737e-05 3.27959e-06 1.10857e-05)
(8.93883e-05 6.30184e-06 1.36067e-05)
(7.91517e-05 2.16157e-05 1.48421e-05)
(8.02921e-05 2.84316e-05 1.39737e-05)
(7.63381e-05 2.72212e-05 1.26868e-05)
(9.19064e-05 -2.55727e-07 3.74406e-06)
(9.16026e-05 -3.29078e-06 -1.33692e-06)
(9.46797e-05 -1.08718e-06 1.10411e-06)
(9.06363e-05 8.39098e-06 1.36164e-05)
(9.19136e-05 3.31116e-06 8.88533e-06)
(9.45917e-05 6.2654e-06 1.13465e-05)
(0.00010912 1.73246e-05 1.64265e-05)
(0.000106582 1.26504e-05 1.44643e-05)
(0.000109209 1.15072e-05 1.21976e-05)
(0.000111955 1.57831e-05 1.45682e-05)
(9.79106e-05 -1.38319e-07 1.21987e-06)
(9.48915e-05 3.72423e-07 3.76813e-06)
(9.7675e-05 2.9489e-06 6.54812e-06)
(0.000100602 2.33779e-06 4.01415e-06)
(9.79858e-05 1.19906e-05 1.60096e-05)
(9.51804e-05 8.12607e-06 1.39246e-05)
(0.000100932 1.0249e-05 1.42245e-05)
(9.78597e-05 6.80524e-06 1.17194e-05)
(0.000109308 4.61804e-06 1.56895e-06)
(0.000109071 7.71135e-06 6.98033e-06)
(0.000106302 4.71023e-06 4.21408e-06)
(0.000111929 7.85743e-06 4.34053e-06)
(0.00010367 3.20375e-05 1.56737e-05)
(9.63816e-05 3.55012e-05 1.37035e-05)
(0.000105558 4.35143e-05 1.4821e-05)
(9.52363e-05 3.63514e-05 1.24746e-05)
(9.48265e-05 2.60673e-05 1.60122e-05)
(8.57144e-05 2.8903e-05 1.36111e-05)
(9.27591e-05 3.2273e-05 1.40146e-05)
(9.62586e-05 3.51977e-05 1.50988e-05)
(0.000114022 1.74791e-05 1.3537e-05)
(0.000112022 1.26509e-05 1.11313e-05)
(0.00011508 1.15777e-05 8.51121e-06)
(0.00011749 1.5797e-05 1.10629e-05)
(0.000100473 6.64351e-07 9.22968e-07)
(0.000103498 3.19776e-06 3.41893e-06)
(0.000106263 2.60143e-06 7.62377e-07)
(0.000103194 1.21995e-07 -1.71536e-06)
(0.00010045 8.10661e-06 1.12764e-05)
(0.000102706 1.21158e-05 1.36428e-05)
(0.000106266 1.02441e-05 1.11905e-05)
(0.000103531 6.87232e-06 8.6625e-06)
(0.000115045 7.91151e-06 3.19434e-06)
(0.000112033 4.94476e-06 6.33221e-07)
(0.000117649 8.01282e-06 5.52689e-07)
(0.000114722 4.78291e-06 -1.98842e-06)
(7.39373e-05 2.66278e-05 8.12265e-06)
(7.35937e-05 2.47729e-05 7.50536e-06)
(7.01235e-05 2.43262e-05 6.91035e-06)
(0.000105237 2.54729e-05 1.22252e-05)
(9.33759e-05 2.50079e-05 1.04592e-05)
(0.000103724 2.40495e-05 9.43457e-06)
(0.000105889 2.29559e-05 1.15073e-05)
(0.000110955 2.28016e-05 4.29401e-06)
(0.000107237 2.29695e-05 5.93193e-06)
(0.000111246 1.99665e-05 3.43775e-06)
(0.000106378 2.51681e-05 1.65548e-06)
(7.90166e-05 2.83232e-05 8.25177e-06)
(7.43248e-05 2.53269e-05 7.26687e-06)
(7.8841e-05 2.62614e-05 7.57889e-06)
(0.000108764 2.61033e-05 9.31393e-06)
(0.000107851 2.32282e-05 9.81466e-06)
(9.78258e-05 2.60479e-05 9.09996e-06)
(0.000106594 2.46033e-05 6.8509e-06)
(0.000112553 2.28106e-05 5.21025e-07)
(0.000111935 1.98142e-05 1.23395e-06)
(0.000109196 2.3004e-05 2.82645e-06)
(0.00010571 2.4534e-05 -1.35519e-06)
(0.000111327 1.82605e-05 1.89879e-05)
(0.000112018 2.09561e-05 1.8944e-05)
(0.000114302 1.81105e-05 1.69223e-05)
(0.000109338 3.19307e-05 1.71694e-05)
(9.56029e-05 3.64951e-05 1.39824e-05)
(0.000109153 2.53422e-05 1.53784e-05)
(9.16087e-05 2.82567e-05 1.18777e-05)
(0.000105692 2.70807e-05 1.65567e-05)
(9.42296e-05 3.00634e-05 1.38213e-05)
(9.64326e-05 3.10626e-05 1.32243e-05)
(8.66058e-05 2.72202e-05 1.12066e-05)
(0.000115726 1.78464e-05 1.533e-05)
(0.00012097 1.77992e-05 1.16577e-05)
(0.000115815 1.91479e-05 1.27628e-05)
(0.000112496 3.31608e-05 1.46437e-05)
(9.81466e-05 3.81569e-05 1.25936e-05)
(0.000113555 2.56197e-05 1.24424e-05)
(9.57217e-05 2.94091e-05 1.06284e-05)
(9.22994e-05 2.52878e-05 1.1492e-05)
(8.52687e-05 2.55159e-05 1.02572e-05)
(0.000105211 2.26986e-05 1.24461e-05)
(9.50794e-05 2.59033e-05 1.08622e-05)
(9.53023e-05 -2.19474e-06 -1.54096e-06)
(8.95541e-05 -3.92433e-06 -1.74011e-06)
(9.21788e-05 -2.01318e-06 9.89676e-07)
(9.43092e-05 -3.76529e-06 -3.96657e-06)
(9.73996e-05 -1.70912e-06 -1.53472e-06)
(0.000100102 -2.01214e-06 -4.16012e-06)
(8.82703e-05 9.36654e-06 1.81378e-05)
(8.8702e-05 1.17352e-05 1.84269e-05)
(9.11189e-05 9.19909e-06 1.68489e-05)
(9.98258e-05 1.3238e-05 1.86003e-05)
(0.000100738 1.56655e-05 1.87938e-05)