/*--------------------------------*- C++ -*----------------------------------*\
| =========                 |                                                 |
| \\      /  F ield         | OpenFOAM: The Open Source CFD Toolbox           |
|  \\    /   O peration     | Version:  2012                                  |
|   \\  /    A nd           | Website:  www.openfoam.com                      |
|    \\/     M anipulation  |                                                 |
\*---------------------------------------------------------------------------*/
FoamFile
{
    version     2.0;
    format      ascii;
    class       volVectorField;
    location    "0.104/fluid";
    object      U;
}
// * * * * * * * * * * * * * * * * * * * * * * * * * * * * * * * * * * * * * //

dimensions      [0 1 -1 0 0 0 0];


internalField   nonuniform List<vector> 
16422
(
(1.19994 3.62801e-06 7.74148e-06)
(1.19985 7.58417e-05 9.73852e-05)
(1.19974 0.000130539 0.00012602)
(1.19998 0.000183755 0.000156936)
(1.20005 0.00026689 0.000215454)
(1.20008 0.000393746 0.00031079)
(1.20013 0.000585769 0.000456495)
(1.20021 0.000872248 0.000675239)
(1.20034 0.00129955 0.00100263)
(1.20057 0.00192212 0.0014647)
(1.20094 0.00279972 0.00212548)
(1.20152 0.00398804 0.00307142)
(1.2021 0.00567972 0.0045147)
(1.2015 0.00985753 0.00725345)
(1.20705 0.0311516 0.0120616)
(1.19994 1.55737e-06 7.5659e-06)
(1.19986 5.20032e-05 9.50192e-05)
(1.19977 9.52755e-05 0.000120135)
(1.20004 0.000139857 0.000147911)
(1.20014 0.000203395 0.000199399)
(1.20023 0.000298669 0.000281796)
(1.20035 0.00044316 0.000406179)
(1.20054 0.000653768 0.000583624)
(1.20082 0.000963748 0.00083689)
(1.20125 0.00141229 0.00117747)
(1.2019 0.00203751 0.00162523)
(1.20286 0.00290692 0.00219638)
(1.20432 0.00416398 0.00287976)
(1.20685 0.00598341 0.00352027)
(1.21191 0.00631277 0.00331866)
(1.19994 -6.15191e-06 7.38987e-06)
(1.19987 -2.24772e-06 9.22573e-05)
(1.1998 3.55951e-05 0.00011691)
(1.20007 6.20023e-05 0.00014209)
(1.2002 9.75165e-05 0.000189491)
(1.20032 0.000150009 0.000264094)
(1.20049 0.000221847 0.000373383)
(1.20074 0.000330055 0.000525414)
(1.20112 0.000484155 0.000730936)
(1.20167 0.000705267 0.000991817)
(1.20248 0.00101236 0.00130401)
(1.20366 0.0014225 0.00163732)
(1.20536 0.00192411 0.00190389)
(1.20769 0.00229662 0.00190092)
(1.21013 0.0015127 0.00135027)
(1.19994 3.52153e-06 6.77939e-06)
(1.19986 7.29293e-05 8.90869e-05)
(1.19977 0.000123346 0.000122446)
(1.20004 0.000174241 0.000152309)
(1.20014 0.000248599 0.00020741)
(1.20021 0.000361446 0.000298631)
(1.20033 0.00052706 0.000439253)
(1.20049 0.000767726 0.000648148)
(1.20075 0.0011157 0.000954673)
(1.20116 0.0016019 0.00139312)
(1.20179 0.0022479 0.00199779)
(1.20275 0.00304967 0.00283889)
(1.20417 0.00396376 0.00408475)
(1.20648 0.00508508 0.00625618)
(1.21312 0.00609277 0.00930832)
(1.19994 1.4615e-06 6.67984e-06)
(1.19986 4.98947e-05 8.77799e-05)
(1.1998 8.92004e-05 0.000115355)
(1.20009 0.000131396 0.000142849)
(1.20022 0.000189466 0.000191804)
(1.20034 0.000274883 0.000271816)
(1.20051 0.000400399 0.000388421)
(1.20077 0.000577999 0.000560943)
(1.20114 0.000826933 0.000800247)
(1.20168 0.00117152 0.00112202)
(1.20246 0.00162345 0.00153531)
(1.20355 0.00218496 0.00204691)
(1.20512 0.00283614 0.00263926)
(1.20744 0.00341324 0.00314682)
(1.21064 0.00267235 0.00283465)
(1.19994 -6.29361e-06 6.54133e-06)
(1.19987 -4.8493e-06 8.62157e-05)
(1.19982 3.39351e-05 0.000111526)
(1.20012 5.7393e-05 0.000136827)
(1.20027 9.00549e-05 0.000181204)
(1.20042 0.000136087 0.000253195)
(1.20064 0.00020019 0.000358531)
(1.20094 0.000292511 0.000506948)
(1.20138 0.000414172 0.000701484)
(1.202 0.00058291 0.000947772)
(1.20286 0.000804225 0.00123974)
(1.20403 0.00106698 0.00154196)
(1.20558 0.00133511 0.00177219)
(1.20748 0.00144046 0.00174129)
(1.20925 0.000872516 0.00119486)
(1.19994 3.43404e-06 3.86942e-06)
(1.19986 7.14472e-05 5.94686e-05)
(1.19981 0.000117226 8.99081e-05)
(1.20009 0.000164531 0.000119609)
(1.20022 0.000233929 0.000159786)
(1.20034 0.000333391 0.000229872)
(1.2005 0.000475484 0.000336381)
(1.20074 0.000678199 0.000498799)
(1.2011 0.000956636 0.000727124)
(1.20165 0.00132877 0.00105201)
(1.20246 0.00178427 0.0014956)
(1.20365 0.00228058 0.00206132)
(1.20538 0.00268176 0.00271678)
(1.20784 0.00269773 0.00323465)
(1.21096 0.00181096 0.00262696)
(1.19994 1.31846e-06 3.75097e-06)
(1.19987 4.86254e-05 5.76685e-05)
(1.19983 8.46841e-05 8.51442e-05)
(1.20013 0.000123007 0.000110488)
(1.20029 0.000176732 0.000148333)
(1.20044 0.000253985 0.000207769)
(1.20066 0.00036277 0.000298876)
(1.20096 0.000512837 0.000430813)
(1.2014 0.000712039 0.000609618)
(1.20203 0.000969523 0.000849526)
(1.2029 0.00128113 0.00115515)
(1.20407 0.00160845 0.0015022)
(1.20561 0.00186117 0.00183014)
(1.20751 0.00183716 0.00193066)
(1.20938 0.0011188 0.0013727)
(1.19994 -6.38438e-06 3.66068e-06)
(1.19988 -5.68032e-06 5.6926e-05)
(1.19985 3.08244e-05 8.2105e-05)
(1.20017 5.33313e-05 0.000104603)
(1.20033 8.26453e-05 0.000139641)
(1.20051 0.000124124 0.000193867)
(1.20076 0.000182482 0.000275513)
(1.20111 0.000260723 0.000388292)
(1.2016 0.000355453 0.000536744)
(1.20227 0.000481879 0.000722948)
(1.20316 0.00063211 0.000938818)
(1.20431 0.00078349 0.00114987)
(1.20571 0.000888637 0.00128656)
(1.20724 0.000840862 0.00120783)
(1.20849 0.000468273 0.00075578)
(1.19994 3.4328e-06 -4.79716e-06)
(1.19988 7.13883e-05 6.46093e-06)
(1.19983 0.000114164 3.51812e-05)
(1.20013 0.000158361 5.50468e-05)
(1.20028 0.000225165 7.83731e-05)
(1.20042 0.000314651 0.000111979)
(1.20062 0.000443453 0.000168806)
(1.2009 0.000620982 0.000251788)
(1.20133 0.000852105 0.000365784)
(1.20195 0.00115118 0.000531148)
(1.20286 0.00148727 0.000751051)
(1.20413 0.00180326 0.0010067)
(1.20581 0.00196771 0.00124475)
(1.2078 0.00176812 0.00129515)
(1.20962 0.000999936 0.000835987)
(1.19994 1.18862e-06 -4.87455e-06)
(1.19988 4.79624e-05 4.39337e-06)
(1.19985 8.23365e-05 3.25241e-05)
(1.20017 0.000117505 5.04655e-05)
(1.20034 0.000169091 7.14189e-05)
(1.20052 0.000240527 9.92755e-05)
(1.20076 0.000339118 0.000148695)
(1.2011 0.000469408 0.000216944)
(1.20158 0.000638143 0.000303988)
(1.20225 0.000841125 0.000427013)
(1.20317 0.00106715 0.000581554)
(1.20436 0.0012646 0.000739998)
(1.20581 0.00134462 0.000860021)
(1.20736 0.00117534 0.000837208)
(1.20864 0.000635836 0.000516205)
(1.19994 -6.43891e-06 -4.86708e-06)
(1.19989 -6.30121e-06 2.80772e-06)
(1.19987 2.87436e-05 3.08563e-05)
(1.2002 5.03604e-05 4.71373e-05)
(1.20038 7.78629e-05 6.72118e-05)
(1.20057 0.000117407 9.26079e-05)
(1.20084 0.000169922 0.000134791)
(1.20122 0.000237906 0.000194034)
(1.20174 0.000318286 0.000265557)
(1.20244 0.000418721 0.00036232)
(1.20335 0.000525276 0.000476833)
(1.20448 0.000613838 0.000575176)
(1.20577 0.000643847 0.000626383)
(1.20706 0.000550755 0.000568397)
(1.20804 0.000283508 0.000334318)
(1.18492 0.0546964 0.0124755)
(1.31051 -0.053427 -0.00865317)
(1.18705 0.0496446 0.0174481)
(1.30398 -0.0520793 0.00857196)
(1.21279 0.0109321 0.0160512)
(1.23958 -0.00113513 -0.00347476)
(1.19801 0.0103058 0.00760988)
(1.19033 0.0302257 0.011346)
(1.20658 0.03515 0.00950441)
(1.2733 0.0156986 0.0012267)
(1.21547 0.0112253 0.00341229)
(1.22631 0.00187156 -0.000343739)
(1.19932 0.00936499 0.00835652)
(1.19268 0.0271282 0.0145573)
(1.20488 0.00596521 0.00807495)
(1.20863 0.00909767 0.0138641)
(1.12493 -0.0236025 0.0259506)
(1.14236 -0.0183652 0.0470467)
(1.26688 0.0148093 -0.00284473)
(1.21483 0.00990475 0.00378746)
(1.22432 0.00136551 -0.000452937)
(1.2124 0.00999391 0.0118755)
(1.2275 1.33487e-05 -0.000556588)
(1.21275 0.00493347 0.00361427)
(1.21712 0.000921783 -0.000669504)
(1.21436 0.00593942 0.0118554)
(1.22582 -0.00236778 -0.000685801)
(1.21221 0.00221596 0.00391594)
(1.21495 -0.000148863 -5.54646e-05)
(1.12057 -0.0262778 0.0167897)
(1.12045 0.0350621 0.0160172)
(1.20203 0.090061 0.0122064)
(1.26855 0.0882281 0.0125488)
(1.12485 0.0320379 0.0249737)
(1.20097 0.0845731 0.0201568)
(1.19191 0.0403617 0.0275245)
(1.14219 0.0261437 0.0453458)
(1.20373 0.0720933 0.0390595)
(1.26399 0.0858283 0.0123432)
(1.2837 -0.013019 0.00162047)
(1.25615 0.0640593 0.0367591)
(1.22422 -0.0137179 0.547884)
(1.20913 -0.00254735 0.0260761)
(1.19624 -0.00757299 0.0466971)
(1.22 -0.00643622 0.0328135)
(0.946257 0.00120816 0.378103)
(1.2494 -0.000970663 -0.0129813)
(0.636763 -0.0317824 -0.0661973)
(1.2393 -0.00468716 0.0172086)
(1.23189 0.0157179 0.544583)
(1.21113 0.019058 0.0261293)
(1.20867 0.00902748 0.0251394)
(1.22077 0.0126975 0.016872)
(1.19569 0.0145439 0.0452007)
(1.22352 0.0266353 0.0364723)
(1.21914 0.0111252 0.0319061)
(0.956845 -0.00242975 0.376425)
(1.2607 -0.0200326 -0.00176377)
(1.24755 0.000950112 -0.0127762)
(1.2328 0.00864668 0.0102179)
(0.654098 0.00679755 -0.0683688)
(1.24386 0.0274805 0.0319798)
(1.23789 0.0071814 0.0167164)
(1.0963 -0.115372 0.0517782)
(1.13524 -0.141036 0.0999142)
(1.10404 -0.0665779 0.123031)
(1.13009 -0.183376 0.0609543)
(1.10442 -0.0783225 0.074461)
(1.11491 -0.0980421 0.0746574)
(1.09036 -0.127947 0.0390367)
(1.12832 -0.211778 0.0237889)
(1.09082 -0.090153 0.0281789)
(1.08573 -0.132496 0.0224376)
(1.12636 -0.206548 0.0410624)
(1.09233 -0.0864477 0.0456943)
(1.13213 -0.215488 0.0201496)
(1.09121 -0.0918028 0.0220861)
(1.08742 -0.135817 0.0231098)
(1.10019 0.0991709 0.0210342)
(1.13241 0.218758 0.0192659)
(1.08856 0.141453 0.02221)
(1.5504 -0.125643 -0.0346036)
(1.5713 0.0216193 -0.0200555)
(1.27319 0.262414 0.0149359)
(1.52772 0.0902903 -0.0116846)
(1.09714 0.120758 0.0498748)
(1.11007 0.0729429 0.121231)
(1.13552 0.144633 0.0975993)
(1.11239 0.0850449 0.0734523)
(1.13021 0.186938 0.0594716)
(1.11525 0.103038 0.072723)
(1.09146 0.133472 0.0378448)
(1.09976 0.0974347 0.0280339)
(1.12862 0.215388 0.022969)
(1.10086 0.0935384 0.0444194)
(1.087 0.13825 0.0213971)
(1.12669 0.210002 0.0399233)
(1.49146 0.0819901 0.0654554)
(1.22768 0.165468 0.115595)
(1.25655 0.237536 0.0546684)
(1.40942 0.0720227 0.0873276)
(1.5435 0.0250447 0.00258908)
(1.5459 -0.126268 0.0337141)
(1.56645 0.02108 0.0412539)
(1.52146 -0.116036 -0.0224972)
(1.50144 0.0907499 0.0117132)
(1.26915 0.260599 0.0233577)
(1.52275 0.0898522 0.0379718)
(1.26125 0.252227 0.0397028)
(1.53343 0.0178494 0.0654261)
(1.4328 -0.0140426 0.0187028)
(1.43952 0.0381634 0.0768009)
(1.51406 -0.115881 0.041608)
(1.21043 -0.0191215 0.0603628)
(1.21179 -0.0335915 0.100963)
(1.19616 -0.0215993 0.109103)
(1.22837 -0.00915943 0.0882175)
(1.19245 -0.0334659 0.0731709)
(1.22023 -0.0203689 0.0689686)
(1.20684 -0.00627835 0.0671769)
(1.27011 0.00656052 0.0301602)
(0.0777183 -0.0486834 -0.107262)
(1.27074 -0.00235357 0.0721794)
(1.24391 -0.0130003 0.0555289)
(1.3138 0.00988303 0.041917)
(1.27855 0.0264183 0.00242509)
(0.136295 -0.0386024 -0.108754)
(1.28586 0.0265255 -0.0091109)
(1.30639 0.0249179 0.0211578)
(1.27346 0.0358701 -0.0216433)
(1.20896 0.0241755 0.0587255)
(1.19638 0.0271412 0.107408)
(1.21011 0.0380027 0.0987707)
(1.22811 0.0135745 0.0865843)
(1.19151 0.038347 0.0714317)
(1.20646 0.011815 0.0654638)
(1.21839 0.0241201 0.0671695)
(1.26728 -0.00598649 0.0296472)
(0.0907414 0.036184 -0.105556)
(1.2334 0.0588097 0.114896)
(1.2696 0.0056904 0.0713206)
(1.31486 -0.00291824 0.0856588)
(1.31151 -0.00814258 0.0416592)
(1.24132 0.0151472 0.0545397)
(1.27526 -0.026956 0.00276991)
(0.149557 0.0227542 -0.107864)
(1.31381 -0.00974664 -0.0217449)
(1.28359 -0.0282019 -0.00949464)
(1.32574 -0.0117457 0.0666589)
(1.30344 -0.0248021 0.0205014)
(1.27021 -0.037566 -0.0206497)
(1.07585 -0.145354 0.12752)
(1.05538 -0.486794 0.292661)
(0.891494 -0.0815699 0.206413)
(1.05481 -0.601608 0.14977)
(0.787036 -0.107187 0.13688)
(1.09254 -0.129939 0.140695)
(1.04769 -0.199654 0.0333726)
(1.05742 -0.660556 0.00796713)
(0.75252 -0.131191 0.00821588)
(1.05646 -0.198606 0.022949)
(1.04816 -0.659373 0.0523118)
(0.745519 -0.13155 0.0473093)
(0.600827 0.110029 -0.0920964)
(0.616438 0.113713 -0.0723765)
(1.13147 -0.0609133 -0.36674)
(0.612728 0.115658 -0.233351)
(1.05094 -0.20161 0.016923)
(1.05866 -0.661538 0.0379934)
(0.753947 -0.131736 0.0378955)
(1.05791 -0.200864 0.0247445)
(1.05429 -0.662601 -0.00284957)
(0.746773 -0.133251 0.000192976)
(0.514578 0.0526986 -0.0704999)
(0.542196 0.089581 -0.0161356)
(0.520058 0.0883048 -0.0710621)
(0.537143 0.0523163 -0.0116498)
(0.814384 -0.161469 0.0218429)
(1.3053 -0.832434 0.043414)
(1.3024 -0.835795 -0.00704585)
(0.81512 -0.161506 -0.0154805)
(1.05698 0.197104 0.0165949)
(0.749597 0.145616 0.0385945)
(1.06611 0.659458 0.0373988)
(0.742076 0.147024 -0.00185661)
(1.06179 0.660313 -0.00366479)
(1.06419 0.196335 0.0229051)
(0.501761 -0.0508728 -0.0697224)
(0.533739 -0.0874595 -0.0160245)
(0.511138 -0.0862323 -0.0700886)
(0.522954 -0.0503698 -0.0105883)
(0.801009 0.160095 0.0221593)
(1.30176 0.838305 0.0424018)
(1.29921 0.841013 -0.00740094)
(0.800924 0.160162 -0.0165412)
(0.630567 0.114226 -0.020894)
(0.603577 0.112231 -0.0767133)
(0.623839 -0.11295 -0.0193296)
(0.596978 -0.11121 -0.0763019)
(0.786242 -0.156734 0.0913375)
(1.26367 -0.547495 0.307106)
(1.2715 -0.790575 0.146148)
(0.949237 -0.168654 0.124221)
(0.514764 0.0542327 -0.0517275)
(0.514978 0.0864769 -0.0846574)
(0.528083 0.0902022 -0.0626196)
(0.502983 0.0506335 -0.0847184)
(0.796942 -0.157865 -0.00851095)
(1.30625 -0.833899 0.00305936)
(1.28863 -0.82818 0.0600891)
(0.815836 -0.162949 0.0250591)
(0.491533 0.0672971 -0.164192)
(1.05912 -0.0333295 -0.317654)
(0.526617 0.0989833 -0.197536)
(1.07099 0.000300358 -0.261525)
(1.0806 0.141597 0.124845)
(0.888393 0.0900173 0.198093)
(1.06053 0.487967 0.292064)
(0.781364 0.11904 0.12939)
(1.0607 0.602549 0.147544)
(1.09647 0.129029 0.136272)
(1.05345 0.195103 0.0318776)
(0.747922 0.145052 0.00636479)
(1.06462 0.65866 0.00737428)
(0.740691 0.144968 0.0480847)
(1.0627 0.194113 0.0230572)
(1.05517 0.657438 0.0519051)
(0.771318 0.155463 0.0929932)
(1.26243 0.553497 0.309018)
(1.26748 0.799241 0.145307)
(0.9429 0.169701 0.128951)
(0.502405 -0.0523012 -0.0510361)
(0.506661 -0.084121 -0.0825477)
(0.490568 -0.0487442 -0.0827841)
(0.520558 -0.0875492 -0.0617667)
(0.782744 0.156386 -0.00958728)
(1.30254 0.83996 0.002744)
(0.801511 0.161726 0.025597)
(1.28484 0.834426 0.0590457)
(0.485782 -0.0658046 -0.154159)
(1.06068 0.0396123 -0.29217)
(1.07438 0.00724875 -0.235762)
(0.523779 -0.0972358 -0.186402)
(1.21966 -0.0283416 0.128198)
(1.23574 -0.0960496 0.204582)
(1.16556 -0.0250556 0.170637)
(1.23326 -0.0148028 0.155899)
(1.19533 -0.0432759 0.150296)
(1.24212 -0.0391378 0.143415)
(1.20936 -0.00933243 0.15165)
(1.3263 -0.010469 0.0849989)
(1.2827 -0.146845 0.220333)
(0.23079 -0.0446159 0.0166601)
(1.34405 -0.0211315 0.138053)
(1.34063 -0.0616463 0.190175)
(1.28408 -0.0336677 0.123837)
(1.42829 -0.0171144 0.121988)
(1.32966 0.0323018 -0.0967134)
(0.449939 -0.0314863 -0.0807625)
(1.26063 -0.121529 -0.283997)
(1.42332 -0.0339516 -0.106062)
(1.32762 -0.0878301 -0.24101)
(1.44915 -0.0354703 -0.103354)
(1.31781 0.0293303 -0.107015)
(1.21831 0.0321595 0.125038)
(1.16613 0.030103 0.16428)
(1.23581 0.0974374 0.202486)
(1.23187 0.0190724 0.151989)
(1.19579 0.0464792 0.146831)
(1.2094 0.0139385 0.148846)
(1.24027 0.0414919 0.139984)
(1.32541 0.0118716 0.0831638)
(0.245856 0.0338016 0.0214152)
(1.28376 0.147682 0.220569)
(1.3412 0.0251987 0.133843)
(1.33994 0.0525473 0.190055)
(1.42664 0.0197778 0.11923)
(1.28277 0.0352841 0.121014)
(1.32636 -0.0342486 -0.0913724)
(0.465853 0.0123843 -0.0826648)
(1.25991 0.1078 -0.264145)
(1.42389 0.0291435 -0.106141)
(1.31993 0.077043 -0.22319)
(1.44876 0.0311511 -0.103643)
(1.31523 -0.0324334 -0.102368)
(0.595059 -0.108866 -0.0903406)
(0.611 -0.112287 -0.0701641)
(1.13599 0.0657407 -0.342371)
(0.611991 -0.114907 -0.22313)
(1.24313 -0.13232 -0.304562)
(1.24512 0.117121 -0.284311)
(1.06066 -0.176547 0.0947476)
(1.05383 -0.646042 0.0641511)
(0.763073 -0.12244 0.0616673)
(1.06322 -0.180894 0.0718159)
(1.04097 -0.636635 0.135853)
(0.76451 -0.118856 0.113098)
(1.04377 -0.196612 0.0409054)
(1.0448 -0.654908 0.0732726)
(0.751529 -0.128334 0.0686828)
(1.05245 -0.194808 0.0580652)
(1.04323 -0.657844 0.0250316)
(0.741528 -0.131521 0.0256607)
(0.595935 0.110358 -0.157706)
(0.575479 0.106188 -0.122635)
(0.550129 0.102435 -0.189943)
(0.614802 0.130209 -0.239884)
(0.490774 0.0293806 -0.0515194)
(0.621753 -0.0304828 -0.0097467)
(0.61041 -0.0293385 -0.0294517)
(0.507895 0.0285018 -0.00687556)
(0.813011 -0.137858 0.0168435)
(0.622348 -0.052801 -0.0113588)
(0.616534 -0.0522692 -0.0121097)
(0.814226 -0.138618 -0.0184434)
(0.474853 -0.0265497 -0.0504668)
(0.606392 0.0314107 -0.00904653)
(0.59617 0.0302622 -0.0293526)
(0.4906 -0.0255412 -0.00629128)
(0.804885 0.125826 0.0196632)
(0.607915 0.058222 -0.0102551)
(0.603078 0.057398 -0.0129357)
(0.805612 0.125978 -0.0220777)
(0.75762 -0.148442 0.0336279)
(1.29149 -0.822046 0.0583814)
(1.25802 -0.793371 0.16149)
(0.793591 -0.160894 0.0470228)
(0.7829 -0.136226 0.0652225)
(0.822781 -0.0567419 -0.0204813)
(0.586085 -0.0509142 -0.00908883)
(0.951777 -0.157074 0.0955296)
(0.748702 -0.126472 0.0159506)
(0.568327 -0.053073 -0.0236489)
(0.783787 -0.138944 0.0309082)
(0.567676 -0.041569 -0.0221941)
(0.485968 0.0297905 -0.0331809)
(0.601056 -0.031243 -0.0374277)
(0.480846 0.0272414 -0.0622595)
(0.596004 -0.0280395 -0.0231981)
(0.469778 0.0520826 -0.108197)
(0.505038 0.0886672 -0.136081)
(0.491542 0.0845015 -0.110931)
(0.481426 0.0532292 -0.109235)
(0.448494 0.0284742 -0.0789602)
(0.570646 -0.0275428 -0.0394666)
(0.564479 -0.028217 -0.0471897)
(0.458619 0.0281847 -0.0692137)
(0.795212 -0.159135 0.0315089)
(1.28079 -0.820029 0.0857337)
(1.28711 -0.830474 0.0204873)
(0.781549 -0.155103 0.00163131)
(0.792754 -0.135091 -0.0146069)
(0.610599 -0.0538043 -0.0166477)
(0.812841 -0.140098 0.0177555)
(0.599677 -0.0505179 -0.0178672)
(0.78791 -0.136132 0.0214302)
(0.578758 -0.0495386 -0.0244479)
(0.774121 -0.132984 -0.0085193)
(0.580508 -0.0513702 -0.02122)
(0.458796 0.038187 -0.113131)
(0.892319 -0.0313356 -0.0629402)
(0.571974 -0.028372 -0.0446004)
(0.949276 0.00867699 -0.185673)
(0.496527 0.0683841 -0.154366)
(0.467673 0.0829285 -0.165104)
(0.525531 0.107032 -0.199971)
(0.436477 0.0517655 -0.145125)
(0.464611 0.039502 -0.0974206)
(0.544005 -0.0302621 -0.0566781)
(0.564716 -0.0174065 -0.04781)
(0.42026 0.0268248 -0.101158)
(1.06541 0.172651 0.0921578)
(0.758016 0.135806 0.0581903)
(1.06057 0.645003 0.062844)
(0.759874 0.131564 0.111115)
(1.06889 0.176402 0.0707265)
(1.04769 0.636603 0.135057)
(1.04941 0.192078 0.0401421)
(0.747056 0.141722 0.0683495)
(1.05189 0.653392 0.0724928)
(0.736421 0.144823 0.0230514)
(1.05828 0.190305 0.0555682)
(1.05005 0.655962 0.0239772)
(0.744088 0.14719 0.033523)
(1.28764 0.829222 0.0575354)
(1.25454 0.801564 0.160528)
(0.779193 0.159787 0.0480888)
(0.776109 0.121802 0.0727009)
(0.827174 0.0629546 -0.00403104)
(0.572837 0.0564247 -0.00491052)
(0.951718 0.147925 0.103172)
(0.74326 0.112909 0.0147257)
(0.55578 0.0580513 -0.0229458)
(0.777282 0.125125 0.0360334)
(0.554593 0.0468791 -0.0183241)
(0.469541 -0.0269065 -0.0320603)
(0.587012 0.0321144 -0.0366607)
(0.464615 -0.0245078 -0.060096)
(0.582606 0.0286169 -0.0224281)
(0.459735 -0.050304 -0.105217)
(0.49836 -0.0854669 -0.13404)
(0.471059 -0.0513449 -0.108767)
(0.484476 -0.0817806 -0.107609)
(0.433612 -0.0261181 -0.0758043)
(0.558984 0.027916 -0.0379856)
(0.552725 0.0286562 -0.0456612)
(0.442786 -0.0257048 -0.0677943)
(0.781038 0.157726 0.0322366)
(1.27728 0.827039 0.0845631)
(1.28323 0.836713 0.019878)
(0.7677 0.153826 0.000956871)
(0.78525 0.121869 -0.0181724)
(0.596855 0.0590813 -0.0168658)
(0.804482 0.12739 0.0211664)
(0.586196 0.0558229 -0.01624)
(0.780954 0.122879 0.0254323)
(0.566065 0.0547782 -0.0221127)
(0.767865 0.119441 -0.0114247)
(0.567952 0.0563139 -0.0209835)
(0.447734 -0.0354841 -0.104062)
(0.895483 0.03758 -0.0527419)
(0.560676 0.0285915 -0.0392641)
(0.950091 -0.00163957 -0.167596)
(0.489854 -0.0667187 -0.149637)
(0.461012 -0.0798199 -0.159717)
(0.428011 -0.0501356 -0.140467)
(0.520469 -0.104062 -0.195987)
(0.452201 -0.0363386 -0.0940189)
(0.532855 0.0306153 -0.0542562)
(0.553537 0.0181368 -0.0444216)
(0.406141 -0.0248955 -0.0967362)
(1.35659 0.010706 0.0362455)
(0.116987 -0.0268648 -0.0275076)
(1.33005 -0.0360621 -0.0240137)
(1.45391 -0.0203803 -0.0115384)
(1.35713 -0.0508771 0.158501)
(1.36163 0.0239796 -0.00728575)
(1.47871 -0.0173922 0.0602353)
(1.34226 0.0341751 -0.0740059)
(0.375467 -0.030639 -0.0880194)
(1.34541 -0.0413845 -0.0805328)
(1.47115 -0.031182 -0.0665918)
(1.32893 -0.0687431 -0.203098)
(1.35546 0.0286877 -0.0458933)
(1.44657 -0.02928 -0.0866108)
(1.35477 -0.00942396 0.0361321)
(0.135669 0.0179504 -0.0237966)
(1.34144 0.0243387 -0.00653326)
(1.45703 0.0198957 -0.0163165)
(1.35761 0.0407207 0.161367)
(1.47839 0.0186559 0.0567818)
(1.36034 -0.0238916 -0.00728342)
(1.34059 -0.0361052 -0.0701506)
(0.390199 0.0113225 -0.0894395)
(1.35843 0.029679 -0.0664281)
(1.47373 0.0300565 -0.0704768)
(1.32195 0.0572352 -0.188687)
(1.44792 0.0260879 -0.0882856)
(1.35473 -0.0302487 -0.0445041)
(0.592285 -0.108899 -0.154835)
(0.571546 -0.105091 -0.119414)
(0.547782 -0.101338 -0.185187)
(0.611784 -0.128663 -0.237154)
(1.22115 0.00027675 0.00204491)
(1.21213 0.0036374 0.0031801)
(1.21515 0.00043575 -0.0004209)
(1.21149 0.00228425 0.00350983)
(1.21366 0.000251404 0.000546749)
(1.21033 0.00165141 0.00180113)
(1.21151 0.00010401 -0.000169219)
(1.37121 -0.01118 -0.00501368)
(1.31022 -0.00875266 -0.00176017)
(1.3916 0.0460396 0.00038905)
(1.37142 0.0469978 0.00544426)
(1.36223 -0.00795886 -0.000365821)
(1.30339 -0.00866639 0.0118776)
(1.29783 -0.04451 -0.00372977)
(1.29796 -0.00456558 0.00601025)
(1.38254 0.0467932 0.00874656)
(1.35213 -0.00518432 -0.0087098)
(1.2583 0.04635 0.00627183)
(1.24865 -0.00369388 0.000187211)
(1.23694 0.0188303 0.00358877)
(0.754597 -0.508007 0.388625)
(0.42771 -0.369351 0.48446)
(0.770512 -0.168663 0.618013)
(0.424687 -0.347373 0.337112)
(0.88258 -0.213152 0.473329)
(0.839012 -0.401173 0.50931)
(0.710622 -0.59788 0.00750205)
(0.418975 -0.410861 0.0516954)
(0.767653 -0.24622 0.0567274)
(0.715072 -0.601098 0.046868)
(0.411155 -0.40458 -0.0168551)
(0.758517 -0.24568 0.0021901)
(1.25342 0.0421483 0.00731469)
(1.25355 0.0108561 0.000791528)
(1.24243 0.0344076 0.0151333)
(1.22997 0.0153585 0.00824298)
(1.24401 -0.00375371 0.000587267)
(1.23386 0.0165817 0.00478494)
(1.23843 0.000624065 0.00280781)
(1.23722 0.000237179 0.00209445)
(1.22388 0.00699728 0.00781934)
(1.23291 0.0123966 0.015386)
(1.22578 0.00632341 0.00751743)
(1.22433 0.000336718 -0.000641591)
(1.23033 -0.00262992 0.00181124)
(1.22161 0.00492812 0.00382404)
(0.717057 -0.601168 0.0450118)
(0.415761 -0.408019 -0.0249291)
(0.758568 -0.244568 -0.00351074)
(0.712805 -0.598543 0.00448435)
(0.41735 -0.408905 0.0440952)
(0.770299 -0.247121 0.051855)
(0.743068 0.593246 0.0474981)
(0.783399 0.278396 -0.0013334)
(0.426946 0.399027 -0.0266271)
(0.797247 0.282315 0.0519078)
(0.429005 0.399962 0.0461289)
(0.737207 0.58979 0.00297022)
(1.29473 0.0522913 0.00670811)
(1.27343 0.13441 0.0093832)
(1.35836 0.0980344 0.00552428)
(0.772531 0.496086 0.383006)
(0.781981 0.176622 0.608198)
(0.434864 0.361399 0.487183)
(0.90507 0.241835 0.460611)
(0.432312 0.335732 0.337502)
(0.848235 0.394864 0.502925)
(0.735699 0.589754 0.00447932)
(0.792629 0.28002 0.0549482)
(0.430248 0.401705 0.0529743)
(0.784827 0.280236 0.00235198)
(0.739566 0.592212 0.048056)
(0.422057 0.395472 -0.0196815)
(1.34132 0.0951895 0.0180948)
(1.28867 0.0511185 0.0117058)
(1.26792 0.132195 0.0229095)
(1.26271 0.0819789 0.021789)
(1.28526 0.0498624 0.0153148)
(1.35028 0.0969074 0.0174634)
(1.264 0.128267 0.0255215)
(1.3472 0.0401073 0.0129535)
(1.28705 -0.0383101 0.011867)
(1.30257 -0.0197493 -0.0190646)
(1.28404 0.0112963 0.0150955)
(1.28679 -0.00212239 0.0196516)
(1.31631 0.0259187 0.0107223)
(1.32865 -0.00718549 -0.010643)
(1.3222 0.0845819 0.0351813)
(1.24534 0.0947712 0.0590018)
(1.25436 0.0772704 0.0282591)
(1.27329 0.0435527 0.0274774)
(1.27496 0.0471572 0.0237871)
(1.2552 0.115689 0.0493084)
(1.29705 0.0676018 0.0407731)
(1.26616 -0.0324081 0.275674)
(1.1909 -0.0960376 0.604537)
(1.17141 -0.0744381 0.600571)
(1.40273 -0.00839601 0.343292)
(1.23603 -0.081153 0.431623)
(1.30514 -0.00534463 0.311743)
(1.24333 -0.0149238 0.24876)
(1.42536 -0.00792403 0.272099)
(1.11054 -0.0384131 0.466986)
(0.603763 -0.0300343 0.21668)
(1.49391 -0.00653294 0.344668)
(0.897467 -0.0207668 0.316013)
(1.42637 0.00138398 0.312338)
(1.40592 -0.0195543 0.286567)
(1.3533 0.0286556 -0.106198)
(0.578732 -0.0329279 -0.0698472)
(0.823117 -0.00688876 -0.102606)
(1.21468 -0.00972552 -0.0520545)
(0.772281 0.00634697 -0.10139)
(1.21619 -0.00442049 -0.0473102)
(1.34404 0.0206563 -0.110853)
(1.26261 0.0370875 0.267424)
(1.17499 0.0759302 0.594634)
(1.19636 0.0945886 0.605921)
(1.4033 0.012123 0.334567)
(1.23581 0.0816293 0.424536)
(1.24317 0.0188615 0.241277)
(1.3019 0.00821344 0.305375)
(1.43077 0.00384222 0.266501)
(0.619824 0.0159526 0.217941)
(1.11877 0.0343593 0.470531)
(1.49816 0.00915227 0.335865)
(0.910443 0.0108205 0.317155)
(1.41446 0.0171485 0.279054)
(1.42923 -0.00157225 0.307091)
(1.26539 -0.0041116 0.00425868)
(1.25388 -0.0228827 -0.0141804)
(1.25995 -0.0340688 -0.0141206)
(1.26212 -0.00789466 0.011889)
(1.25475 -0.0124421 -0.0014348)
(1.26996 -0.0096167 0.0104131)
(1.26047 -0.0174401 -0.0098079)
(1.35787 -0.0398772 -0.104758)
(0.596546 0.0106626 -0.072148)
(0.838303 -0.0112213 -0.104404)
(1.2349 0.00479287 -0.0559123)
(0.787709 -0.0239473 -0.102854)
(1.23431 0.000766641 -0.0501418)
(1.35058 -0.0293972 -0.111228)
(1.25914 0.0113145 0.0221239)
(1.24588 0.0365447 0.0578524)
(1.25404 0.0112816 0.0240731)
(1.24376 0.0159326 0.0245424)
(1.24798 0.00450575 0.0143498)
(1.266 0.0169004 0.0387379)
(1.24526 0.022598 0.0358182)
(0.871347 -0.0192484 -0.104287)
(0.88656 -0.000109489 -0.106021)
(0.706975 -0.589132 0.0812811)
(0.415214 -0.406469 0.0816117)
(0.781893 -0.246573 0.111665)
(0.714461 -0.597852 0.0996302)
(0.401695 -0.39395 0.0261836)
(0.759696 -0.242623 0.0772729)
(0.707892 -0.600632 0.080347)
(0.404552 -0.399645 -0.000564392)
(0.749635 -0.242581 0.0398433)
(0.700928 -0.592602 0.0483117)
(0.411783 -0.406944 0.0651483)
(0.768762 -0.248528 0.0888051)
(1.42023 0.0457268 0.000841218)
(1.39526 0.112125 -0.0181552)
(1.39028 0.110942 -0.000691679)
(1.42477 0.0468893 -0.0144296)
(1.44278 -0.0246908 0.00393309)
(1.46276 -0.105473 -0.00657363)
(1.45937 -0.107315 0.00777255)
(1.44683 -0.0233752 -0.0107177)
(1.51672 -0.41383 0.02176)
(1.36396 -0.454248 0.00927323)
(1.36445 -0.461204 0.0257256)
(1.51738 -0.408449 0.00616702)
(1.51189 -0.321493 0.0165586)
(1.48386 -0.207332 -0.00211293)
(1.48114 -0.209987 0.0119857)
(1.51373 -0.317673 0.00201577)
(1.41361 -0.0346898 0.00065966)
(1.38893 -0.0993869 -0.0175199)
(1.55653 -0.119647 0.0323203)
(1.5819 -0.0917438 -0.032496)
(1.58813 -0.0848483 0.0366754)
(1.38386 -0.0989664 -0.000801654)
(1.41817 -0.035123 -0.0139065)
(1.43672 0.036268 0.00342513)
(1.57671 0.0294831 0.0356449)
(1.57141 -0.0318714 -0.0253068)
(1.45673 0.119669 -0.00651844)
(1.5767 -0.0246445 0.0340535)
(1.45334 0.120844 0.00709478)
(1.44077 0.035531 -0.0104156)
(1.51543 0.420325 0.0208407)
(1.36324 0.461848 0.00856258)
(1.27589 0.26978 0.0178926)
(1.40834 0.229226 0.00600968)
(1.36381 0.46839 0.0246385)
(1.41124 0.236946 0.0232006)
(1.51606 0.415412 0.00566623)
(1.50914 0.330317 0.0158505)
(1.53197 0.0979107 0.0317086)
(1.47782 0.221554 -0.00244704)
(1.49615 0.150649 -0.00445768)
(1.4752 0.223508 0.0112742)
(1.50005 0.158765 0.0302115)
(1.51093 0.327075 0.00169423)
(1.45317 -0.302889 0.0616462)
(1.44348 -0.209794 0.0413977)
(1.47798 -0.311015 0.0593811)
(1.41795 -0.20244 0.0409071)
(1.45321 -0.354546 0.127965)
(1.29168 -0.304348 0.190887)
(1.31989 -0.383198 0.153288)
(1.42953 -0.287617 0.161754)
(1.4698 -0.383972 0.0816766)
(1.34658 -0.430711 0.0838596)
(1.33543 -0.419557 0.0904386)
(1.4895 -0.39304 0.0766249)
(1.44494 -0.281375 0.0880422)
(1.44344 -0.137935 0.0737357)
(1.41693 -0.187776 0.0530477)
(1.45061 -0.223172 0.114701)
(1.40325 -0.0365477 0.00291812)
(1.41741 -0.114335 0.000377475)
(1.42403 -0.116125 0.0134914)
(1.39575 -0.0361776 -0.0126694)
(1.39679 0.0394973 -0.0127127)
(1.3886 0.107186 -0.00106915)
(1.36701 0.10357 -0.0185628)
(1.41829 0.0423914 0.00190826)
(1.37852 0.0312495 -0.00649695)
(1.3405 0.0919873 -0.0348762)
(1.34853 0.0936719 -0.0133624)
(1.37064 0.0306508 -0.0244005)
(1.42026 -0.0298759 -0.00635777)
(1.45729 -0.108335 0.0126374)
(1.44074 -0.027171 0.00673904)
(1.43917 -0.11093 0.000857974)
(1.48529 -0.322677 0.0343736)
(1.44383 -0.211031 0.013128)
(1.47919 -0.315867 0.0250943)
(1.45 -0.21508 0.0239578)
(1.50445 -0.410405 0.0201362)
(1.36099 -0.453141 0.035425)
(1.35559 -0.456 0.0222779)
(1.51378 -0.408226 0.0318521)
(1.49627 -0.411837 0.0445912)
(1.34675 -0.444127 0.0419215)
(1.34996 -0.45664 0.0502336)
(1.49118 -0.402052 0.0361644)
(1.49623 -0.320235 0.0143992)
(1.47893 -0.209148 0.0186978)
(1.50939 -0.318438 0.0251564)
(1.46324 -0.211302 0.00789573)
(1.36842 -0.0343127 -0.00535096)
(1.41761 -0.116887 0.0233728)
(1.39147 -0.109777 0.0189824)
(1.39518 -0.0423957 0.00460583)
(1.34822 0.0352686 -0.0525609)
(1.3855 0.145749 -0.105094)
(1.32077 0.0943681 -0.0881172)
(1.39787 0.0849959 -0.0623674)
(1.33992 0.0293115 -0.0297866)
(1.33482 0.0787874 -0.0267617)
(1.3076 0.0867558 -0.0524061)
(1.3677 0.0206983 -0.0125285)
(1.37444 -0.0278271 -0.0152378)
(1.43238 -0.0556625 0.0335466)
(1.39499 -0.100659 0.0201431)
(1.41737 0.0179682 -0.0133763)
(0.730451 0.580464 0.0772321)
(0.806735 0.279104 0.110275)
(0.425725 0.396663 0.0832745)
(0.785119 0.275507 0.0770751)
(0.738155 0.588415 0.100297)
(0.411406 0.38444 0.0227642)
(0.733165 0.591937 0.0825156)
(0.773985 0.275003 0.0420114)
(0.414692 0.390187 -0.00239578)
(0.79543 0.282144 0.088999)
(0.724216 0.58336 0.0464082)
(0.422652 0.397266 0.067441)
(1.45145 0.315221 0.0623472)
(1.43793 0.226431 0.0417915)
(1.462 0.134939 0.0686734)
(1.4757 0.0865152 0.043015)
(1.47605 0.32275 0.0594615)
(1.41232 0.219176 0.0421285)
(1.44948 0.135681 0.052612)
(1.45305 0.362992 0.12758)
(1.29168 0.31036 0.19116)
(1.23494 0.203928 0.0954171)
(1.31878 0.152908 0.113397)
(1.32005 0.391168 0.152254)