/*--------------------------------*- C++ -*----------------------------------*\
| =========                 |                                                 |
| \\      /  F ield         | OpenFOAM: The Open Source CFD Toolbox           |
|  \\    /   O peration     | Version:  2012                                  |
|   \\  /    A nd           | Website:  www.openfoam.com                      |
|    \\/     M anipulation  |                                                 |
\*---------------------------------------------------------------------------*/
FoamFile
{
    version     2.0;
    format      ascii;
    class       volScalarField::Internal;
    location    "0.104/fluid";
    object      V0;
}
// * * * * * * * * * * * * * * * * * * * * * * * * * * * * * * * * * * * * * //

dimensions      [0 3 0 0 0 0 0];


value           nonuniform List<scalar> 
16422
(
4.25479e-05
4.25423e-05
4.25377e-05
4.25337e-05
4.25313e-05
4.25254e-05
4.25197e-05
4.25181e-05
4.25169e-05
4.25161e-05
4.25149e-05
4.25171e-05
4.2518e-05
4.25231e-05
4.25483e-05
4.25519e-05
4.25466e-05
4.25423e-05
4.25368e-05
4.25332e-05
4.25289e-05
4.25244e-05
4.25241e-05
4.25239e-05
4.25226e-05
4.25199e-05
4.25213e-05
4.25249e-05
4.2529e-05
4.25414e-05
4.2553e-05
4.25506e-05
4.25448e-05
4.25403e-05
4.25355e-05
4.25307e-05
4.25279e-05
4.25284e-05
4.25293e-05
4.25287e-05
4.25279e-05
4.25309e-05
4.25366e-05
4.25465e-05
4.25596e-05
4.25472e-05
4.25412e-05
4.25348e-05
4.25309e-05
4.25279e-05
4.2524e-05
4.25168e-05
4.25162e-05
4.25156e-05
4.25128e-05
4.25098e-05
4.25093e-05
4.25085e-05
4.24958e-05
4.24405e-05
4.25498e-05
4.25467e-05
4.25399e-05
4.25339e-05
4.25307e-05
4.25271e-05
4.25224e-05
4.25206e-05
4.25206e-05
4.25189e-05
4.25158e-05
4.25157e-05
4.25165e-05
4.25156e-05
4.2518e-05
4.25521e-05
4.255e-05
4.25425e-05
4.25374e-05
4.25338e-05
4.25295e-05
4.25271e-05
4.25265e-05
4.25254e-05
4.25251e-05
4.25237e-05
4.25255e-05
4.25295e-05
4.25356e-05
4.25439e-05
4.25463e-05
4.254e-05
4.25337e-05
4.25296e-05
4.25268e-05
4.25216e-05
4.25159e-05
4.25146e-05
4.2514e-05
4.25116e-05
4.25094e-05
4.25084e-05
4.25064e-05
4.24986e-05
4.24905e-05
4.25489e-05
4.25453e-05
4.25386e-05
4.2533e-05
4.25295e-05
4.25248e-05
4.25223e-05
4.25203e-05
4.2518e-05
4.25149e-05
4.25134e-05
4.25122e-05
4.2512e-05
4.25094e-05
4.25116e-05
4.25529e-05
4.25472e-05
4.25412e-05
4.25376e-05
4.25323e-05
4.25284e-05
4.25262e-05
4.25251e-05
4.25229e-05
4.2521e-05
4.25199e-05
4.25207e-05
4.25222e-05
4.25242e-05
4.25287e-05
4.25456e-05
4.25371e-05
4.25321e-05
4.2529e-05
4.25263e-05
4.25215e-05
4.25186e-05
4.25161e-05
4.25127e-05
4.25101e-05
4.25076e-05
4.25056e-05
4.25024e-05
4.24974e-05
4.24952e-05
4.25476e-05
4.25426e-05
4.25379e-05
4.25329e-05
4.25291e-05
4.25249e-05
4.25229e-05
4.25205e-05
4.2517e-05
4.25133e-05
4.25115e-05
4.25093e-05
4.25068e-05
4.25044e-05
4.25051e-05
4.25509e-05
4.25445e-05
4.2541e-05
4.25365e-05
4.25315e-05
4.25278e-05
4.25253e-05
4.2525e-05
4.2521e-05
4.25187e-05
4.25171e-05
4.25167e-05
4.2516e-05
4.2515e-05
4.25161e-05
4.25421e-05
5.32262e-06
4.26101e-05
5.33021e-06
4.23809e-05
4.23777e-05
4.25311e-05
4.25382e-05
4.25194e-05
4.25969e-05
4.25387e-05
4.25937e-05
4.25269e-05
4.25629e-05
4.24991e-05
4.244e-05
4.26233e-05
4.27834e-05
4.26645e-05
4.25371e-05
4.25918e-05
4.24337e-05
4.24491e-05
4.25111e-05
4.25434e-05
4.24102e-05
4.24842e-05
4.24781e-05
4.2503e-05
4.25033e-05
4.24364e-05
4.22945e-05
5.30968e-06
4.25498e-05
4.24256e-05
4.26485e-05
4.27247e-05
4.26382e-05
5.31671e-06
5.34582e-06
5.3341e-06
7.40291e-08
4.23397e-05
4.24286e-05
4.21783e-05
9.85131e-08
4.26787e-05
7.82552e-08
4.24419e-05
7.39194e-08
4.24549e-05
4.23218e-05
4.22841e-05
4.23957e-05
4.2308e-05
4.21711e-05
9.91688e-08
5.31562e-06
4.26814e-05
4.22914e-05
7.82612e-08
5.30818e-06
4.24468e-05
5.37747e-06
5.40761e-06
5.40391e-06
5.33163e-06
5.34104e-06
5.39003e-06
5.34246e-06
5.25335e-06
5.26935e-06
5.32156e-06
5.27409e-06
5.29185e-06
5.24579e-06
5.26108e-06
5.31353e-06
5.242e-06
5.22451e-06
5.29909e-06
6.71636e-07
6.52708e-07
6.57581e-07
6.565e-07
5.36411e-06
5.39069e-06
5.39423e-06
5.32216e-06
5.31278e-06
5.38022e-06
5.32857e-06
5.25047e-06
5.23025e-06
5.27352e-06
5.30681e-06
5.25345e-06
6.62566e-07
6.73716e-07
6.64549e-07
6.70424e-07
6.55984e-07
6.71758e-07
6.52864e-07
6.75065e-07
6.59867e-07
6.57835e-07
6.56655e-07
6.61817e-07
6.58623e-07
6.83577e-07
6.66208e-07
6.77988e-07
5.27694e-06
5.25388e-06
5.27775e-06
5.21713e-06
5.31587e-06
5.24622e-06
5.25486e-06
5.26245e-06
8.03435e-08
5.31922e-06
5.24326e-06
5.44855e-06
5.26497e-06
8.06597e-08
5.44929e-06
5.4771e-06
5.27748e-06
5.2728e-06
5.27465e-06
5.24974e-06
5.21848e-06
5.31029e-06
5.25432e-06
5.24478e-06
5.26563e-06
8.03587e-08
6.60664e-07
5.3227e-06
6.50136e-07
5.45157e-06
5.2453e-06
5.26627e-06
8.06668e-08
6.59159e-07
5.44992e-06
6.46841e-07
5.47822e-06
5.27774e-06
6.89423e-07
7.48576e-07
6.95415e-07
7.23955e-07
6.7418e-07
6.94609e-07
6.62773e-07
6.90079e-07
6.43569e-07
6.61995e-07
6.90293e-07
6.44052e-07
7.62244e-08
7.6234e-08
9.38151e-08
7.83696e-08
6.61546e-07
6.90022e-07
6.43501e-07
6.61989e-07
6.89925e-07
6.43192e-07
7.13932e-08
7.35275e-08
7.35231e-08
7.13967e-08
8.30046e-08
7.91772e-08
7.91555e-08
8.30096e-08
6.58417e-07
6.36763e-07
6.82792e-07
6.36422e-07
6.82651e-07
6.58896e-07
7.13929e-08
7.35265e-08
7.35225e-08
7.13953e-08
8.29968e-08
7.91018e-08
7.90769e-08
8.3002e-08
7.62263e-08
7.62218e-08
7.62261e-08
7.62222e-08
8.52491e-08
8.49102e-08
8.19127e-08
9.38449e-08
7.14029e-08
7.35258e-08
7.35353e-08
7.13942e-08
8.30188e-08
7.9166e-08
7.92104e-08
8.30058e-08
7.31422e-08
9.2151e-08
7.56141e-08
9.13061e-08
6.86353e-07
6.90184e-07
7.44337e-07
6.66586e-07
7.16267e-07
6.92612e-07
6.59812e-07
6.36852e-07
6.82849e-07
6.37316e-07
6.58985e-07
6.83048e-07
8.53051e-08
8.47732e-08
8.18203e-08
9.39586e-08
7.14026e-08
7.3525e-08
7.13935e-08
7.35354e-08
8.3015e-08
7.91008e-08
8.30003e-08
7.9151e-08
7.31428e-08
9.2139e-08
9.12777e-08
7.56132e-08
6.5129e-07
6.69454e-07
6.43529e-07
6.36879e-07
6.61406e-07
6.41465e-07
6.44443e-07
6.45959e-07
7.77806e-08
8.86091e-08
6.77379e-07
9.46556e-08
6.3616e-07
7.14023e-07
6.69283e-07
7.91026e-08
9.52579e-08
7.07103e-07
9.40063e-08
7.12223e-07
6.63003e-07
6.51191e-07
6.43108e-07
6.7028e-07
6.3755e-07
6.60895e-07
6.4447e-07
6.41979e-07
6.47601e-07
8.8925e-08
7.77374e-08
6.78073e-07
9.47371e-08
7.15197e-07
6.36705e-07
6.69255e-07
7.9099e-08
9.52423e-08
7.07145e-07
9.39776e-08
7.12224e-07
6.63007e-07
7.62245e-08
7.62344e-08
9.38108e-08
7.83718e-08
9.65622e-08
9.65523e-08
6.76533e-07
6.94273e-07
6.48588e-07
6.68217e-07
7.02526e-07
6.567e-07
6.63126e-07
6.91678e-07
6.46051e-07
6.65463e-07
6.90606e-07
6.44375e-07
7.62786e-08
7.62293e-08
7.63007e-08
7.73263e-08
7.13372e-08
7.10575e-08
7.1054e-08
7.13407e-08
7.48065e-08
7.09702e-08
7.09667e-08
7.48114e-08
7.13371e-08
7.10591e-08
7.10553e-08
7.13401e-08
7.48043e-08
7.09725e-08
7.09692e-08
7.48119e-08
8.41764e-08
7.93859e-08
8.09087e-08
8.30938e-08
7.68514e-08
9.13394e-08
7.26475e-08
9.22888e-08
7.5858e-08
7.10219e-08
7.48827e-08
7.17756e-08
7.13472e-08
7.10555e-08
7.13388e-08
7.10643e-08
7.14002e-08
7.35781e-08
7.35301e-08
7.14396e-08
7.13445e-08
7.11018e-08
7.10613e-08
7.13839e-08
8.30106e-08
7.93709e-08
7.91899e-08
8.30724e-08
7.48198e-08
7.09682e-08
7.48091e-08
7.09765e-08
7.48138e-08
7.10128e-08
7.48663e-08
7.09733e-08
7.299e-08
9.15797e-08
7.26596e-08
9.14042e-08
7.22426e-08
7.35973e-08
7.4586e-08
7.14511e-08
7.21358e-08
7.11085e-08
7.18239e-08
7.1394e-08
6.73433e-07
6.41855e-07
6.86904e-07
6.4977e-07
6.65203e-07
6.94997e-07
6.60137e-07
6.39295e-07
6.84386e-07
6.3761e-07
6.62435e-07
6.83363e-07
8.41943e-08
7.93131e-08
8.08163e-08
8.30883e-08
7.68853e-08
9.13528e-08
7.26525e-08
9.23692e-08
7.58717e-08
7.10234e-08
7.48822e-08
7.17793e-08
7.13475e-08
7.10579e-08
7.13388e-08
7.10671e-08
7.14002e-08
7.35776e-08
7.14395e-08
7.353e-08
7.13446e-08
7.11028e-08
7.10635e-08
7.13839e-08
8.30072e-08
7.9299e-08
7.91263e-08
8.30649e-08
7.4826e-08
7.09707e-08
7.48109e-08
7.09796e-08
7.48179e-08
7.1015e-08
7.48661e-08
7.0976e-08
7.2993e-08
9.15834e-08
7.26626e-08
9.14796e-08
7.22428e-08
7.35975e-08
7.14515e-08
7.45864e-08
7.21365e-08
7.11099e-08
7.18258e-08
7.13942e-08
6.63489e-07
8.3003e-08
9.42102e-08
7.21924e-07
9.56644e-08
6.73873e-07
7.18526e-07
6.74586e-07
7.98924e-08
9.42014e-08
7.2406e-07
9.39337e-08
6.76409e-07
7.2071e-07
6.64633e-07
8.31793e-08
9.42257e-08
7.22221e-07
9.57755e-08
7.19357e-07
6.74341e-07
6.74635e-07
7.98967e-08
9.42043e-08
7.24164e-07
9.40155e-08
7.20751e-07
6.76577e-07
7.62779e-08
7.62287e-08
7.63008e-08
7.73284e-08
4.24877e-05
4.25064e-05
4.25317e-05
4.24837e-05
4.25042e-05
4.25057e-05
4.25166e-05
5.32818e-06
5.29911e-06
5.26433e-06
5.29339e-06
5.33788e-06
5.30707e-06
5.34233e-06
5.31948e-06
5.27439e-06
5.35707e-06
4.25299e-05
4.26101e-05
4.25455e-05
1.06223e-07
5.86697e-08
8.87018e-08
5.81687e-08
8.3882e-08
1.10813e-07
9.66164e-08
5.45657e-08
7.71458e-08
9.66143e-08
5.45636e-08
7.71451e-08
4.2598e-05
4.26609e-05
4.25992e-05
4.25592e-05
4.26304e-05
4.25672e-05
4.26175e-05
4.24722e-05
4.23962e-05
4.24222e-05
4.25034e-05
4.25133e-05
4.25518e-05
4.24754e-05
9.66062e-08
5.45681e-08
7.71528e-08
9.66262e-08
5.45661e-08
7.71406e-08
9.51724e-08
7.35871e-08
5.24318e-08
7.35742e-08
5.24305e-08
9.51927e-08
5.30035e-06
5.2983e-06
5.2851e-06
1.04798e-07
8.65268e-08
5.84549e-08
7.8746e-08
5.61811e-08
1.10154e-07
9.51877e-08
7.35796e-08
5.24299e-08
7.35769e-08
9.51836e-08
5.24291e-08
5.31506e-06
5.30877e-06
5.30971e-06
5.32913e-06
5.32123e-06
5.29607e-06
5.32955e-06
5.32463e-06
5.35432e-06
5.383e-06
5.32541e-06
5.33185e-06
5.32432e-06
5.38877e-06
5.34721e-06
5.37001e-06
5.34123e-06
5.32846e-06
5.33374e-06
5.36297e-06
5.34956e-06
7.74272e-08
7.38129e-08
9.24469e-08
7.94456e-08
9.80659e-08
7.31102e-08
7.70132e-08
8.74635e-08
7.01115e-08
8.86207e-08
8.97154e-08
9.29066e-08
7.88998e-08
9.34761e-08
8.82573e-08
7.77399e-08
7.82973e-08
8.98161e-08
7.9072e-08
8.935e-08
8.77571e-08
7.74918e-08
9.32148e-08
7.4927e-08
7.94664e-08
9.79362e-08
7.71168e-08
7.35484e-08
8.74025e-08
8.86754e-08
7.2183e-08
8.99698e-08
9.1986e-08
9.3527e-08
7.96219e-08
5.2619e-06
5.30262e-06
5.27226e-06
5.29906e-06
5.28796e-06
5.23535e-06
5.27927e-06
8.8256e-08
7.77403e-08
7.8307e-08
8.98226e-08
7.90703e-08
8.9351e-08
8.77657e-08
5.26635e-06
5.28389e-06
5.30251e-06
5.2877e-06
5.29049e-06
5.25446e-06
5.26958e-06
8.03844e-08
8.0423e-08
9.70333e-08
5.45896e-08
7.71984e-08
9.67436e-08
5.46597e-08
7.7332e-08
9.66246e-08
5.45744e-08
7.71998e-08
9.67501e-08
5.45605e-08
7.71428e-08
6.58244e-07
6.79091e-07
6.78983e-07
6.58347e-07
6.47864e-07
6.44966e-07
6.44871e-07
6.47962e-07
6.68566e-07
6.44853e-07
6.44677e-07
6.68687e-07
6.69334e-07
6.51659e-07
6.51555e-07
6.69442e-07
6.58218e-07
6.7905e-07
6.71342e-07
6.61355e-07
6.61067e-07
6.78937e-07
6.58324e-07
6.47863e-07
6.52375e-07
6.54928e-07
6.45026e-07
6.54633e-07
6.44904e-07
6.47973e-07
6.68556e-07
6.43892e-07
6.57174e-07
6.63195e-07
6.43685e-07
6.62591e-07
6.68811e-07
6.69502e-07
6.56144e-07
6.51781e-07
6.62816e-07
6.51643e-07
6.62321e-07
6.69698e-07
6.82969e-07
6.56619e-07
6.74739e-07
6.64344e-07
7.00456e-07
6.78918e-07
6.73723e-07
7.12369e-07
6.83086e-07
6.51169e-07
6.59446e-07
6.74515e-07
6.99832e-07
6.86304e-07
6.80582e-07
7.05996e-07
6.48871e-07
6.47052e-07
6.4588e-07
6.5005e-07
6.58765e-07
6.79217e-07
6.79526e-07
6.5847e-07
6.5927e-07
6.81329e-07
6.80058e-07
6.60483e-07
6.48375e-07
6.45088e-07
6.48082e-07
6.45379e-07
6.70441e-07
6.53789e-07
6.71713e-07
6.52589e-07
6.69213e-07
6.45036e-07
6.45458e-07
6.68853e-07
6.69816e-07
6.47728e-07
6.46111e-07
6.7124e-07
6.69901e-07
6.51782e-07
6.69582e-07
6.52081e-07
6.6027e-07
6.49777e-07
6.57145e-07
6.52807e-07
6.87834e-07
7.13193e-07
7.10086e-07
6.9222e-07
6.71341e-07
6.8442e-07
6.92939e-07
6.63386e-07
6.76013e-07
6.78828e-07
6.72796e-07
6.81414e-07
9.55653e-08
7.36241e-08
5.24447e-08
7.37468e-08
9.52868e-08
5.25093e-08
9.51903e-08
7.36286e-08
5.24318e-08
7.3574e-08
9.53065e-08
5.24196e-08
6.83173e-07
6.56711e-07
6.69149e-07
6.68375e-07
6.74936e-07
6.6443e-07
6.75128e-07
7.01028e-07
6.78857e-07
6.75938e-07
6.79891e-07
6.73183e-07
6.82537e-07
7.13853e-07
6.8324e-07
6.69853e-07
6.50363e-07
6.70283e-07
6.58668e-07
6.74641e-07
6.75865e-07
7.00215e-07
6.74599e-07
6.86549e-07
6.77455e-07
6.8073e-07
6.81653e-07
7.0658e-07
6.48894e-07
6.54121e-07
6.47104e-07
6.58173e-07
6.5629e-07
6.45955e-07
6.5006e-07
6.58754e-07
6.79183e-07
6.61477e-07
6.72432e-07
6.62139e-07
6.58451e-07
6.79499e-07
6.48402e-07
6.53555e-07
6.55064e-07
6.45165e-07
6.55733e-07
6.48103e-07
6.45466e-07
6.59256e-07
6.6465e-07
6.73049e-07
6.81306e-07
6.62713e-07
6.60471e-07
6.80029e-07
6.70722e-07
6.57943e-07
6.53931e-07
6.66283e-07
6.71947e-07
6.52753e-07
6.64319e-07
6.69528e-07
6.44219e-07
6.63723e-07
6.58882e-07
6.69156e-07
6.44707e-07
6.64485e-07
6.70246e-07
6.5734e-07
6.51937e-07
6.63123e-07
6.69923e-07
6.52246e-07
6.63833e-07
6.70018e-07
6.66932e-07
6.46911e-07
6.594e-07
6.45311e-07
6.71391e-07
6.64887e-07
6.60281e-07
6.49803e-07
6.64275e-07
6.60874e-07
6.57171e-07
6.5281e-07
6.66539e-07
6.87826e-07
7.13217e-07
6.73695e-07
6.90003e-07
6.79189e-07
6.92186e-07
7.10091e-07
6.7605e-07
6.70294e-07
6.78949e-07
6.6786e-07
6.72861e-07
6.72438e-07
6.81545e-07
6.71336e-07
6.67447e-07
6.844e-07
6.83977e-07
6.6337e-07
6.73282e-07
6.92933e-07
6.47315e-07
6.43512e-07
6.45813e-07
6.46253e-07
9.10532e-08
8.00737e-08
8.29514e-08
9.2123e-08
8.21352e-08
9.1718e-08
9.18641e-08
6.46777e-07
6.1953e-07
6.32792e-07
6.44877e-07
9.224e-08
8.07207e-08
8.35442e-08
9.23876e-08
8.36443e-08
9.21745e-08
9.24073e-08
6.45538e-07
6.36998e-07
6.22662e-07
6.49788e-07
6.43034e-07
6.13456e-07
6.14876e-07
6.42526e-07
9.11436e-08
8.01094e-08
8.29902e-08
9.2142e-08
8.22235e-08
9.19033e-08
9.17576e-08
6.48456e-07
6.4407e-07
6.60534e-07
6.5489e-07
6.47451e-07
6.46624e-07
6.55527e-07
6.47627e-07
6.51583e-07
6.19853e-07
6.55678e-07
6.33554e-07
6.45363e-07
6.53406e-07
9.22469e-08
8.07255e-08
8.35568e-08
9.23993e-08
8.36477e-08
9.24135e-08
9.21931e-08
6.45624e-07
6.37044e-07
6.51849e-07
6.56233e-07
6.22669e-07
6.52241e-07
6.49884e-07
6.43172e-07
6.4954e-07
6.13598e-07
6.47953e-07
6.15007e-07
6.42818e-07
6.50651e-07
1.02205e-07
5.5802e-08
7.88807e-08
5.69296e-08
8.11655e-08
9.93197e-08
9.66036e-08
5.45629e-08
7.7152e-08
5.4562e-08
7.71368e-08
9.66352e-08
7.62282e-08
7.62259e-08
8.2912e-08
8.02674e-08
9.66098e-08
5.45707e-08
7.71467e-08
5.45686e-08
7.71449e-08
9.66146e-08
7.16435e-08
7.13951e-08
7.16449e-08
7.35222e-08
7.21536e-08
7.21493e-08
7.21504e-08
7.35239e-08
7.21519e-08
7.13926e-08
7.16469e-08
7.16424e-08
3.64536e-08
9.70185e-08
8.30066e-08
3.6453e-08
9.70243e-08
5.80435e-08
7.69891e-08
7.91556e-08
7.7003e-08
7.69847e-08
5.80452e-08
7.69934e-08
5.8044e-08
7.69894e-08
7.6985e-08
7.91626e-08
7.69866e-08
5.8043e-08
7.69952e-08
3.64521e-08
8.30032e-08
9.70288e-08
3.64527e-08
9.70203e-08
9.51779e-08
7.35828e-08
5.24358e-08
7.35789e-08
5.2434e-08
9.51814e-08
7.16425e-08
7.13951e-08
7.16441e-08
7.35219e-08
7.21527e-08
7.21487e-08
7.21485e-08
7.3523e-08
7.21505e-08
7.13931e-08
7.1646e-08
7.16422e-08
3.64301e-08
9.69302e-08
8.29992e-08
3.643e-08
9.69362e-08
5.79392e-08
7.65309e-08
7.90772e-08
7.69157e-08
7.65255e-08
5.79424e-08
7.69044e-08
5.79387e-08
7.69016e-08
7.6526e-08
7.90842e-08
7.65272e-08
5.79379e-08
7.69056e-08
3.64297e-08
8.29966e-08
9.69456e-08
3.64311e-08
9.69346e-08
7.62211e-08
7.62239e-08
7.62216e-08
7.62236e-08
3.86671e-08
1.0009e-07
8.72179e-08
3.7501e-08
1.02734e-07
6.47205e-08
8.53649e-08
8.5193e-08
8.33311e-08
8.30653e-08
7.53154e-08
8.31591e-08
6.14203e-08
7.963e-08
7.91647e-08
8.37083e-08
8.10187e-08
5.97112e-08
8.15365e-08
4.10116e-08
8.91868e-08
1.11017e-07
4.83522e-08
1.0602e-07
7.16537e-08
7.1397e-08
7.16466e-08
7.35296e-08
7.21524e-08
7.21559e-08
7.21605e-08
7.35274e-08
7.21537e-08
7.13986e-08
7.16452e-08
7.16482e-08
3.64545e-08
9.70486e-08
8.30073e-08
3.6456e-08
9.70296e-08
5.80474e-08
7.69875e-08
7.91824e-08
7.69992e-08
7.69907e-08
5.80456e-08
7.70097e-08
5.80484e-08
7.70264e-08
7.69956e-08
7.91698e-08
7.69899e-08
5.80512e-08
7.70055e-08
3.64542e-08
8.30112e-08
9.70241e-08
3.64533e-08
9.70355e-08
7.35196e-08
7.51852e-08
7.55756e-08
8.06894e-08
9.11974e-08
7.94354e-08
7.4133e-08
7.7594e-08
7.61632e-08
7.88034e-08
9.11388e-08
7.90796e-08
1.00626e-07
7.50436e-08
5.35686e-08
7.68864e-08
5.46758e-08
9.77853e-08
9.51722e-08
7.3587e-08
5.24252e-08
7.35698e-08
5.24253e-08
9.5201e-08
3.87387e-08
1.0009e-07
8.73471e-08
3.75119e-08
1.0284e-07
6.43798e-08
8.48003e-08
8.50795e-08
8.3181e-08
8.26045e-08
7.42624e-08
8.30703e-08
6.12606e-08
7.95542e-08
7.86987e-08
8.36008e-08
8.05599e-08
5.95954e-08
8.14652e-08
4.12638e-08
8.94075e-08
1.11932e-07
4.91139e-08
1.06365e-07
7.13965e-08
7.16526e-08
7.1646e-08
7.21504e-08
7.35286e-08
7.21546e-08
7.13979e-08
7.16433e-08
7.16474e-08
7.21599e-08
7.35263e-08
7.21532e-08
3.64325e-08
8.30036e-08
9.69694e-08
3.64336e-08
9.69521e-08
5.79469e-08
7.65323e-08
7.69175e-08
7.91213e-08
5.79444e-08
7.65366e-08
7.69299e-08
3.6432e-08
8.30063e-08
9.69456e-08
3.64314e-08
9.69585e-08
5.79488e-08
7.69483e-08
7.65436e-08
7.91106e-08
7.65369e-08
5.7952e-08
7.69265e-08
7.51845e-08
7.35198e-08
7.55723e-08
9.12112e-08
8.06855e-08
7.94332e-08
7.87969e-08
9.11258e-08
7.90704e-08
7.41323e-08
7.75946e-08
7.61609e-08
7.47766e-08
8.83932e-08
7.54012e-08
7.79882e-08
8.34694e-08
7.60414e-08
7.71687e-08
9.2405e-08
9.07159e-08
1.0287e-07
9.61047e-08
1.09842e-07
9.61739e-08
9.3153e-08
7.30107e-08
7.74931e-08
9.73318e-08
6.17628e-08
7.04116e-08
7.71719e-08
7.67861e-08
8.92867e-08
7.82756e-08
8.15245e-08
9.06912e-08
8.03301e-08
8.98795e-08
9.02993e-08
8.56939e-08
8.35775e-08
9.42761e-08
7.82687e-08
8.82518e-08
8.3645e-08
7.80242e-08
8.73803e-08
7.80186e-08
9.41617e-08
9.3998e-08
9.15767e-08
8.87925e-08
7.80333e-08
9.27699e-08
9.09162e-08
1.04237e-07
9.63247e-08
1.10666e-07
9.63065e-08
9.38066e-08
7.46385e-08
8.80081e-08
7.5338e-08
7.80463e-08
8.23607e-08
7.60747e-08
7.72299e-08
7.33635e-08
7.76968e-08
6.2448e-08
9.819e-08
7.11218e-08
7.72478e-08
7.74926e-08
8.92728e-08
7.82712e-08
8.1508e-08
9.0691e-08
8.03127e-08
8.98772e-08
9.02882e-08
8.56905e-08
8.35702e-08
9.4291e-08
7.82667e-08
8.82402e-08
8.36498e-08
7.80258e-08
8.73538e-08
7.8011e-08
9.40801e-08
9.39853e-08
9.15048e-08
8.87681e-08
7.8023e-08
7.62281e-08
7.62252e-08
8.2916e-08
8.02732e-08
7.56017e-08
8.0504e-08
7.56048e-08
7.81467e-08
8.05233e-08
9.72077e-08
5.51556e-08
7.80214e-08
9.81659e-08
5.47985e-08
7.74613e-08
9.66485e-08
5.45598e-08
7.71397e-08
9.66138e-08
5.45609e-08
7.71539e-08
7.62394e-08
7.62439e-08
7.6455e-08
7.66822e-08
7.1257e-08
7.13393e-08
7.12597e-08
7.10547e-08
7.11876e-08
7.11842e-08
7.11836e-08
7.10563e-08
7.11862e-08
7.13368e-08
7.1261e-08
7.12577e-08
7.20702e-08
7.48088e-08
7.20723e-08
7.09662e-08
7.11681e-08
7.11643e-08
7.11651e-08
7.09687e-08
7.11668e-08
7.48056e-08
7.20735e-08
7.20698e-08
7.12578e-08
7.13394e-08
7.12599e-08
7.10563e-08
7.11884e-08
7.11856e-08
7.11851e-08
7.10576e-08
7.11874e-08
7.13375e-08
7.12608e-08
7.12581e-08
7.20708e-08
7.48073e-08
7.20727e-08
7.09688e-08
7.11712e-08
7.11674e-08
7.11671e-08
7.0971e-08
7.11693e-08
7.48056e-08
7.20747e-08
7.2071e-08
3.6637e-08
9.86612e-08
8.34976e-08
3.69172e-08
9.77199e-08
5.81929e-08
7.70823e-08
7.97217e-08
7.71705e-08
7.72174e-08
7.74191e-08
5.81067e-08
5.8382e-08
7.85144e-08
7.80808e-08
7.99698e-08
5.88305e-08
7.74727e-08
7.76931e-08
3.65253e-08
8.32649e-08
9.71683e-08
9.74176e-08
3.64799e-08
7.39696e-08
7.87613e-08
7.59511e-08
7.84237e-08
9.12655e-08
7.86572e-08
7.29661e-08
7.46932e-08
7.50226e-08
8.14783e-08
9.11439e-08
7.91903e-08
7.52382e-08
7.30168e-08
7.24494e-08
7.12269e-08
7.1133e-08
7.13479e-08
7.50337e-08
7.21343e-08
7.22647e-08
7.20458e-08
7.12806e-08
7.15133e-08
7.13414e-08
7.12669e-08
7.12618e-08
7.11863e-08
7.10599e-08
7.11901e-08
7.13434e-08
7.12598e-08
7.12637e-08
7.11939e-08
7.10584e-08
7.11886e-08
7.16507e-08
7.14117e-08
7.16632e-08
7.35397e-08
7.21989e-08
7.21657e-08
7.21562e-08
7.35444e-08
7.21697e-08
7.14085e-08
7.16923e-08
7.16597e-08
7.12651e-08
7.1356e-08
7.12767e-08
7.10713e-08
7.123e-08
7.12012e-08
7.11916e-08
7.10739e-08
7.12036e-08
7.13532e-08
7.13022e-08
7.12739e-08
3.64593e-08
9.70393e-08
8.30309e-08
3.64571e-08
9.70736e-08
5.80626e-08
7.70412e-08
7.92302e-08
7.71369e-08
7.70101e-08
5.80784e-08
7.70506e-08
5.80577e-08
7.70199e-08
7.69937e-08
7.92472e-08
5.80526e-08
7.7005e-08
7.70539e-08
3.64604e-08
8.30243e-08
9.71436e-08
3.64671e-08
9.70647e-08
7.48095e-08
7.20805e-08
7.20726e-08
7.11665e-08
7.09722e-08
7.11713e-08
7.48133e-08
7.20723e-08
7.20759e-08
7.11758e-08
7.09701e-08
7.11686e-08
7.4831e-08
7.20764e-08
7.20901e-08
7.12152e-08
7.09817e-08
7.1182e-08
7.48251e-08
7.21197e-08
7.20863e-08
7.11718e-08
7.09852e-08
7.11856e-08
7.28442e-08
7.50019e-08
7.48491e-08
7.84324e-08
9.1716e-08
7.8507e-08
7.27558e-08
7.46814e-08
7.47628e-08
7.86481e-08
9.16651e-08
7.85565e-08
7.25665e-08
7.17264e-08
7.20116e-08
7.37439e-08
7.22157e-08
7.23499e-08
7.31376e-08
7.39602e-08
7.25487e-08
7.15683e-08
7.17062e-08
7.18334e-08
7.20182e-08
7.16482e-08
7.1551e-08
7.12168e-08
7.12368e-08
7.13435e-08
7.19352e-08
7.13516e-08
7.14732e-08
7.15041e-08
7.13106e-08
7.14178e-08
9.57395e-08
7.43563e-08
5.29655e-08
9.66706e-08
7.38588e-08
5.26362e-08
9.52151e-08
7.35756e-08
5.24213e-08
9.51795e-08
7.35867e-08
5.2422e-08
3.66176e-08
9.86109e-08
8.34982e-08
3.69053e-08
9.76484e-08
5.80887e-08
7.66226e-08
7.9641e-08
7.70858e-08
7.6756e-08
7.73311e-08
5.80037e-08
5.82776e-08
7.84288e-08
7.76112e-08
7.98867e-08
5.87217e-08
7.70096e-08
7.76062e-08
3.65032e-08
8.3262e-08
9.70881e-08
9.73403e-08
3.64577e-08
7.39877e-08
7.8824e-08
7.59828e-08
7.84382e-08
9.13092e-08
7.86849e-08
7.2976e-08
7.47017e-08
7.50406e-08
8.15599e-08
9.1219e-08
7.92334e-08
7.52427e-08
7.30247e-08
7.24528e-08
7.12278e-08
7.11355e-08
7.135e-08
7.50352e-08
7.21346e-08
7.22666e-08
7.20512e-08
7.12835e-08
7.15162e-08
7.13413e-08
7.12679e-08
7.12625e-08
7.1187e-08
7.10627e-08
7.11911e-08
7.13427e-08
7.12595e-08
7.12638e-08
7.11956e-08
7.10614e-08
7.11898e-08
7.14121e-08
7.16502e-08
7.16625e-08
7.21975e-08
7.35389e-08
7.21644e-08
7.1409e-08
7.16913e-08
7.16587e-08
7.21557e-08
7.35441e-08
7.21687e-08
7.1265e-08
7.13568e-08
7.12773e-08
7.10736e-08
7.12302e-08
7.12018e-08
7.1192e-08
7.10763e-08
7.12046e-08
7.13542e-08
7.13022e-08
7.12744e-08
3.64358e-08
9.69602e-08
8.30251e-08
3.64338e-08
9.69925e-08
5.79601e-08
7.65824e-08
7.91586e-08
7.70529e-08
7.65519e-08
5.79754e-08
7.69683e-08
5.79549e-08
7.69404e-08
7.65409e-08
7.91784e-08
5.79525e-08
7.65485e-08
7.69713e-08
3.64378e-08
8.30188e-08
9.70617e-08
3.64447e-08
9.69851e-08
7.48154e-08
7.20831e-08
7.20752e-08
7.11697e-08
7.09751e-08
7.11746e-08
7.48171e-08
7.20733e-08
7.20774e-08
7.11804e-08
7.09738e-08
7.1173e-08
7.48331e-08
7.20779e-08
7.20913e-08
7.12169e-08
7.09849e-08
7.11847e-08
7.4827e-08
7.21204e-08
7.20876e-08
7.11761e-08
7.09879e-08
7.1189e-08
7.28474e-08
7.50081e-08
7.48538e-08
7.84391e-08
9.17277e-08
7.85128e-08
7.27584e-08
7.46863e-08
7.47663e-08
7.8668e-08
9.16667e-08
7.85651e-08
7.1727e-08
7.25666e-08
7.20119e-08
7.2215e-08
7.37437e-08
7.23491e-08
7.15675e-08
7.17063e-08
7.18327e-08
7.31367e-08
7.396e-08
7.25476e-08
7.20195e-08
7.16491e-08
7.1552e-08
7.1219e-08
7.12376e-08
7.1344e-08
7.19369e-08
7.13535e-08
7.14745e-08
7.15039e-08
7.13111e-08
7.14174e-08
9.04198e-08
8.04811e-08
8.29376e-08
9.34607e-08
9.05098e-08
8.13565e-08
9.2124e-08
8.89924e-08
9.67825e-08
9.44003e-08
7.83735e-08
9.42597e-08
7.83526e-08
9.03458e-08
8.67695e-08
7.80118e-08
8.04666e-08
9.46226e-08
8.31121e-08
8.92903e-08
7.83325e-08
9.19123e-08
8.04588e-08
8.25717e-08
9.15249e-08
9.12488e-08
8.33038e-08
9.21088e-08
9.11097e-08
9.80492e-08
9.41994e-08
7.83447e-08
9.82455e-08
9.09987e-08
7.83626e-08
9.07202e-08
7.81282e-08
9.60509e-08
9.41237e-08
8.98843e-08
9.75677e-08
7.82575e-08
9.06014e-08
8.05619e-08
8.342e-08
9.36068e-08
9.08717e-08
8.15575e-08
9.22022e-08
8.90828e-08
9.68232e-08
9.44594e-08
7.83975e-08
9.43421e-08
7.84142e-08
9.03932e-08
8.69198e-08
7.81639e-08
8.06924e-08
9.47264e-08
8.33773e-08
8.94146e-08
7.84286e-08
9.19198e-08
8.04629e-08
8.2587e-08
9.15291e-08
9.12551e-08
8.33085e-08
9.21134e-08
9.11223e-08
9.80546e-08
9.42102e-08
7.83613e-08
9.82555e-08
9.10233e-08
7.8366e-08
9.07356e-08
7.81482e-08
9.61161e-08
9.41219e-08
8.99065e-08
9.75699e-08
7.82668e-08
7.6238e-08
7.6244e-08
7.64543e-08
7.66822e-08
4.25193e-05
4.25195e-05
4.25218e-05
4.2522e-05
4.25271e-05
4.25208e-05
4.25196e-05
4.25199e-05
4.25212e-05
4.25195e-05
4.25209e-05
4.25213e-05
4.25239e-05
4.25207e-05
4.25242e-05
4.25239e-05
4.25267e-05
4.25274e-05
4.2533e-05
4.25281e-05
4.2535e-05
4.25289e-05
4.25224e-05
4.25279e-05
4.25276e-05
4.25215e-05
4.25232e-05
4.2527e-05
4.25295e-05
4.25234e-05
4.25265e-05
4.25298e-05
4.25341e-05
4.25268e-05
4.25302e-05
4.2535e-05
4.25417e-05
4.25314e-05
4.25397e-05
4.25437e-05
4.25538e-05
4.25441e-05
4.25858e-05
4.25577e-05
4.25756e-05
4.25318e-05
4.25304e-05
4.25318e-05
4.25331e-05
4.25296e-05
4.25297e-05
4.25327e-05
4.2534e-05
4.25292e-05
4.25317e-05
4.25335e-05
4.25372e-05
4.25323e-05
4.25371e-05
4.25379e-05
4.2545e-05
4.25383e-05
4.25459e-05
4.25473e-05
4.25575e-05
4.25483e-05
4.25588e-05
4.25606e-05
4.25726e-05
4.25626e-05
4.25768e-05
4.2576e-05
4.25857e-05
4.25465e-05
4.25426e-05
4.25462e-05
4.25426e-05
4.25412e-05
4.25372e-05
4.25409e-05
4.25358e-05
4.25364e-05
4.25339e-05
4.25342e-05
4.2532e-05
4.2533e-05
4.2531e-05
4.25314e-05
4.25293e-05
4.25303e-05
4.25264e-05
4.25276e-05
4.25252e-05
4.25245e-05
4.252e-05
4.25231e-05
4.25184e-05
4.25179e-05
4.25168e-05
4.25163e-05
4.25153e-05
4.25162e-05
4.25156e-05
4.25146e-05
4.25152e-05
4.25151e-05
4.25147e-05
4.25139e-05
4.2512e-05
4.25143e-05
4.25139e-05
4.25116e-05
4.25102e-05
4.25137e-05
4.25166e-05
4.25089e-05
4.25095e-05
4.25169e-05
4.25189e-05
4.25102e-05
4.25113e-05
4.25191e-05
4.25225e-05
4.25114e-05
4.2504e-05
4.2548e-05
4.2545e-05
4.25575e-05
4.2536e-05
4.25437e-05
4.25511e-05
4.25467e-05
4.25473e-05
4.25435e-05
4.25496e-05
4.25463e-05
4.25386e-05
4.25455e-05
4.2543e-05
4.2542e-05
4.2537e-05
4.25457e-05
4.25412e-05
4.25347e-05
4.25413e-05
4.25371e-05
4.25355e-05
4.2533e-05
4.25395e-05
4.25355e-05
4.25318e-05
4.25361e-05
4.25333e-05
4.25322e-05
4.253e-05
4.25343e-05
4.25317e-05
4.25276e-05
4.25327e-05
4.25299e-05
4.25285e-05
4.25264e-05
4.25305e-05
4.2529e-05
4.25216e-05
4.25282e-05
4.25248e-05
4.25242e-05
4.25196e-05
4.25267e-05
4.25229e-05
4.25187e-05
4.25232e-05
4.25229e-05
4.25175e-05
4.25163e-05
4.25214e-05
4.25211e-05
4.25172e-05
4.25226e-05
4.25221e-05
4.25162e-05
4.25169e-05
4.25202e-05
4.25207e-05
4.25169e-05
4.25218e-05
4.25222e-05
4.2516e-05
4.25138e-05
4.25202e-05
4.2519e-05
4.25159e-05
4.25208e-05
4.25193e-05
4.25132e-05
4.25119e-05
4.25177e-05
4.25165e-05
4.25171e-05
4.2518e-05
4.25191e-05
4.25104e-05
4.25105e-05
4.2515e-05
4.25147e-05
4.25183e-05
4.25189e-05
4.25218e-05
4.25106e-05
4.25106e-05
4.25143e-05
4.25155e-05
4.252e-05
4.25217e-05
4.25244e-05
4.25104e-05
4.2504e-05
4.25148e-05
4.25145e-05
4.25427e-05
4.25251e-05
4.25325e-05
4.24993e-05
4.24603e-05
4.25127e-05
4.251e-05
4.252e-05
4.25475e-05
4.25364e-05
4.25312e-05
4.25363e-05
4.2537e-05
4.25276e-05
4.25477e-05
4.2553e-05
4.25509e-05
4.25502e-05
4.25472e-05
4.25518e-05
4.25504e-05
4.25442e-05
4.25497e-05
4.25458e-05
4.2547e-05
4.25423e-05
4.25499e-05
4.25444e-05
4.25379e-05
4.25441e-05
4.25409e-05
4.25405e-05
4.25362e-05
4.25423e-05
4.2539e-05
4.2534e-05
4.25395e-05
4.25359e-05
4.25351e-05
4.25323e-05
4.25377e-05
4.25347e-05
4.25303e-05
4.25349e-05
4.25314e-05
4.2531e-05
4.25297e-05
4.25338e-05
4.25314e-05
4.25258e-05
4.253e-05
4.25281e-05
4.25274e-05
4.25242e-05
4.25289e-05
4.25274e-05
4.25243e-05
4.25272e-05
4.25287e-05
4.25227e-05
4.25226e-05
4.25261e-05
4.25262e-05
4.25241e-05
4.25277e-05
4.25284e-05
4.25217e-05
4.25222e-05
4.25259e-05
4.25257e-05
4.25239e-05
4.25282e-05
4.25279e-05
4.25216e-05
4.25209e-05
4.25253e-05
4.25256e-05
4.2521e-05
4.25268e-05
4.25264e-05
4.25197e-05
4.25182e-05
4.25244e-05
4.25235e-05
4.25212e-05
4.25257e-05
4.2528e-05
4.25168e-05
4.25171e-05
4.25226e-05
4.25243e-05
4.25246e-05
4.25282e-05
4.25323e-05
4.25168e-05
4.25185e-05
4.25242e-05
4.25274e-05
4.25281e-05
4.25333e-05
4.25399e-05
4.25181e-05
4.25195e-05
4.2528e-05
4.25329e-05
4.25368e-05
4.25416e-05
4.25511e-05
4.25186e-05
4.25201e-05
4.25337e-05
4.25405e-05
4.25822e-05
4.25546e-05
4.25716e-05
4.25226e-05
4.2548e-05
4.25429e-05
4.25552e-05
4.25519e-05
4.2553e-05
4.25532e-05
4.25522e-05
4.25513e-05
4.25533e-05
4.25523e-05
4.25463e-05
4.2552e-05
4.25467e-05
4.25504e-05
4.2545e-05
4.25509e-05
4.25451e-05
4.25419e-05
4.25452e-05
4.25438e-05
4.25429e-05
4.25399e-05
4.25435e-05
4.25407e-05
4.25364e-05
4.25408e-05
4.25379e-05
4.25384e-05
4.25355e-05
4.25401e-05
4.2537e-05
4.25322e-05
4.25368e-05
4.25332e-05
4.25349e-05
4.25317e-05
4.25361e-05
4.2532e-05
4.2529e-05
4.25324e-05
4.25305e-05
4.25296e-05
4.25279e-05
4.25308e-05
4.2529e-05
4.25297e-05
4.25293e-05
4.25315e-05
4.2527e-05
4.25273e-05
4.25288e-05
4.25295e-05
4.25295e-05
4.25297e-05
4.25308e-05
4.25269e-05
4.25266e-05
4.2528e-05
4.25284e-05
4.25296e-05
4.25308e-05
4.25322e-05
4.25263e-05
4.25272e-05
4.25281e-05
4.253e-05
4.25286e-05
4.25317e-05
4.25328e-05
4.25262e-05
4.25256e-05
4.25291e-05
4.25298e-05
4.25305e-05
4.25323e-05
4.25358e-05
4.25249e-05
4.25268e-05
4.25292e-05
4.25322e-05
4.25354e-05
4.25365e-05
4.25433e-05
4.25268e-05
4.25307e-05
4.25326e-05
4.25384e-05
4.25443e-05
4.25455e-05
4.25555e-05
4.25315e-05
4.25373e-05
4.254e-05
4.25481e-05
4.25562e-05
4.25584e-05
4.25697e-05
4.25386e-05
4.25458e-05
4.25503e-05
4.25591e-05
4.25729e-05
4.25728e-05
4.25819e-05
4.25482e-05
4.25582e-05
4.25614e-05
4.25685e-05
4.25463e-05
4.25425e-05
4.25459e-05
4.25397e-05
4.25401e-05
4.2536e-05
4.25392e-05
4.25345e-05
4.25336e-05
4.25318e-05
4.25323e-05
4.25286e-05
4.253e-05
4.25289e-05
4.25295e-05
4.25281e-05
4.2527e-05
4.25249e-05
4.2526e-05
4.25234e-05
4.25228e-05
4.25179e-05
4.25212e-05
4.25169e-05
4.25156e-05
4.25147e-05
4.25151e-05
4.25145e-05
4.25146e-05
4.25149e-05
4.25138e-05
4.25143e-05
4.25134e-05
4.25116e-05
4.25131e-05
4.25116e-05
4.25111e-05
4.25094e-05
4.25102e-05
4.25083e-05
4.25083e-05
4.25085e-05
4.25082e-05