/*--------------------------------*- C++ -*----------------------------------*\
| =========                 |                                                 |
| \\      /  F ield         | OpenFOAM: The Open Source CFD Toolbox           |
|  \\    /   O peration     | Version:  2012                                  |
|   \\  /    A nd           | Website:  www.openfoam.com                      |
|    \\/     M anipulation  |                                                 |
\*---------------------------------------------------------------------------*/
FoamFile
{
    version     2.0;
    format      ascii;
    class       surfaceScalarField;
    location    "0.104/fluid";
    object      phi;
}
// * * * * * * * * * * * * * * * * * * * * * * * * * * * * * * * * * * * * * //

dimensions      [0 3 -1 0 0 0 0];
oriented        oriented;


internalField   nonuniform List<scalar> 
46515
(
3.49411e-05
0.0015795
-8.37745e-06
-4.81542e-05
3.02321e-05
1.49086e-05
1.92178e-05
1.23158e-05
-0.00155263
1.73684e-06
0.00155601
-1.74559e-05
2.10132e-05
-0.00155656
-2.10389e-06
0.00155683
-1.87105e-05
1.69847e-05
-0.00155987
0.00156106
-1.64946e-05
-1.75017e-06
1.63066e-05
-0.00156377
0.00156434
-1.61206e-05
-1.33904e-06
1.58301e-05
-0.00156498
0.00156488
-1.56296e-05
-9.96431e-07
1.51222e-05
-0.0015638
0.00156318
-1.48805e-05
-7.33748e-07
1.37517e-05
-0.00156073
0.00155973
-1.3514e-05
-5.50747e-07
1.1859e-05
-0.00155653
0.00155545
-1.16675e-05
-3.97977e-07
1.02073e-05
-0.00155211
0.00155097
-1.0043e-05
-2.94146e-07
8.68578e-06
-0.00154752
0.00154638
-8.52526e-06
-2.13348e-07
6.66699e-06
-0.00154297
0.00154186
-6.49173e-06
-1.52804e-07
4.58837e-06
-0.00153872
0.00153779
-4.46131e-06
-1.04216e-07
2.86717e-06
-0.00153529
0.00153453
-2.77049e-06
-6.74241e-08
1.32219e-06
-0.00153244
0.00153181
-1.26827e-06
-4.46121e-08
8.78162e-06
0.00157937
-6.24565e-07
-6.96365e-06
1.6838e-05
-0.00157488
-8.47252e-07
0.0015738
-1.53277e-05
1.676e-05
-0.00157145
0.00157114
-1.48952e-05
-1.48261e-06
1.53899e-05
-0.00157122
0.00157136
-1.41535e-05
-1.44949e-06
1.45984e-05
-0.00157168
0.00157162
-1.36341e-05
-1.2341e-06
1.39329e-05
-0.00157074
0.00157023
-1.29477e-05
-9.5127e-07
1.29867e-05
-0.00156821
0.00156736
-1.1982e-05
-7.2668e-07
1.16921e-05
-0.00156441
0.00156331
-1.07419e-05
-5.51717e-07
1.01673e-05
-0.00155982
0.0015586
-9.34374e-06
-4.12497e-07
8.69933e-06
-0.00155486
0.00155359
-7.98063e-06
-3.04546e-07
7.22936e-06
-0.0015497
0.00154839
-6.58282e-06
-2.23045e-07
5.4348e-06
-0.00154455
0.00154332
-4.94686e-06
-1.63894e-07
3.70397e-06
-0.00153984
0.00153876
-3.35038e-06
-1.11433e-07
2.2416e-06
-0.0015358
0.00153491
-1.99752e-06
-7.53657e-08
1.00419e-06
-0.00153259
0.00153193
-8.83676e-07
-5.15132e-08
4.17688e-06
0.00158849
-3.72194e-06
-3.49241e-07
9.06331e-06
-0.00158603
0.00158498
-7.20251e-06
-7.47603e-07
1.02461e-05
-0.00158208
0.00158127
-7.98662e-06
-1.05894e-06
9.87838e-06
-0.00157941
0.0015789
-7.78098e-06
-1.1291e-06
9.30861e-06
-0.00157733
0.00157671
-7.33769e-06
-1.03557e-06
8.66059e-06
-0.00157451
0.00157365
-6.77465e-06
-8.69024e-07
7.83447e-06
-0.00157076
0.0015697
-6.08383e-06
-6.97635e-07
6.91698e-06
-0.00156628
0.00156507
-5.34452e-06
-5.44662e-07
5.991e-06
-0.00156131
0.00156002
-4.6228e-06
-4.19735e-07
5.09718e-06
-0.00155608
0.00155476
-3.93012e-06
-3.11562e-07
4.16129e-06
-0.00155077
0.00154944
-3.20035e-06
-2.31506e-07
3.10299e-06
-0.00154553
0.00154426
-2.3758e-06
-1.69596e-07
2.03325e-06
-0.00154061
0.00153945
-1.53884e-06
-1.17491e-07
1.13385e-06
-0.0015362
0.00153523
-8.26524e-07
-8.22179e-08
4.88731e-07
-0.00153283
0.00153215
-3.53228e-07
-5.69189e-08
1.73252e-05
5.24628e-06
0.00159959
-3.68789e-06
-3.51518e-05
1.85129e-05
1.73341e-05
1.85307e-05
2.90598e-05
-0.00156737
9.63402e-06
-1.10663e-05
0.00157123
-3.17524e-05
9.18121e-06
1.6972e-05
-0.00157061
-9.96444e-06
0.00157035
-1.61928e-05
6.72601e-06
1.6446e-05
-0.00157003
0.0015699
-1.60772e-05
-7.63538e-06
4.75661e-06
1.62039e-05
-0.00156944
0.00156918
-1.6016e-05
-5.64168e-06
3.47275e-06
1.56159e-05
-0.00156793
0.00156735
-1.53839e-05
-4.22339e-06
2.62368e-06
1.4672e-05
-0.00156519
0.00156432
-1.44121e-05
-3.19508e-06
1.97393e-06
1.33779e-05
-0.00156131
0.0015602
-1.31268e-05
-2.41366e-06
1.46383e-06
1.17227e-05
-0.0015568
0.00155564
-1.15088e-05
-1.80186e-06
1.07461e-06
1.00818e-05
-0.00155218
0.001551
-9.89829e-06
-1.33021e-06
7.69619e-07
8.39136e-06
-0.00154744
0.00154626
-8.22312e-06
-9.53527e-07
5.30292e-07
6.36013e-06
-0.00154279
0.00154167
-6.17783e-06
-6.51289e-07
3.33029e-07
4.47506e-06
-0.00153861
0.00153771
-4.36944e-06
-4.11444e-07
1.91441e-07
2.80438e-06
-0.00153528
0.00153456
-2.71272e-06
-2.40815e-07
9.28497e-08
1.29568e-06
-0.00153267
0.00153209
-1.2435e-06
-1.17911e-07
8.45372e-06
1.71091e-06
0.00159177
-1.81529e-06
-7.3489e-06
5.47474e-06
1.82163e-05
-0.00158701
-6.39905e-06
0.00158556
-1.63915e-05
6.07856e-06
1.65553e-05
-0.0015818
0.00158087
-1.48724e-05
-7.11909e-06
5.29163e-06
1.52874e-05
-0.00157879
0.0015782
-1.40989e-05
-6.30313e-06
4.26021e-06
1.44747e-05
-0.00157651
0.00157588
-1.35093e-05
-5.16414e-06
3.36377e-06
1.36515e-05
-0.00157361
0.00157273
-1.26861e-05
-4.10333e-06
2.63049e-06
1.2583e-05
-0.00156972
0.0015686
-1.16152e-05
-3.21634e-06
2.00182e-06
1.13198e-05
-0.00156503
0.00156379
-1.03858e-05
-2.4627e-06
1.50907e-06
9.92275e-06
-0.00156
0.00155871
-9.08879e-06
-1.85899e-06
1.11649e-06
8.50544e-06
-0.00155483
0.00155352
-7.78832e-06
-1.38184e-06
8.0544e-07
6.97865e-06
-0.00154957
0.00154827
-6.36759e-06
-9.99764e-07
5.56044e-07
5.23152e-06
-0.00154441
0.00154319
-4.76947e-06
-6.85386e-07
3.56337e-07
3.62985e-06
-0.00153978
0.00153874
-3.26688e-06
-4.43298e-07
2.15635e-07
2.21009e-06
-0.00153591
0.00153505
-1.97458e-06
-2.68189e-07
1.02059e-07
9.79939e-07
-0.00153281
0.00153217
-8.70206e-07
-1.28457e-07
1.40129e-06
4.58466e-06
0.00159646
-4.09056e-06
-1.6707e-06
3.46687e-06
9.42687e-06
-0.00159389
0.00159272
-7.50556e-06
-4.18325e-06
4.30432e-06
1.03167e-05
-0.00158914
0.00158802
-8.05893e-06
-5.21782e-06
4.23255e-06
9.81915e-06
-0.00158503
0.00158411
-7.72368e-06
-5.16651e-06
3.76992e-06
9.18389e-06
-0.00158133
0.00158032
-7.229e-06
-4.61023e-06
3.16758e-06
8.48127e-06
-0.00157705
0.00157588
-6.64108e-06
-3.87825e-06
2.55882e-06
7.612e-06
-0.00157218
0.00157089
-5.91924e-06
-3.13713e-06
1.99917e-06
6.6857e-06
-0.00156691
0.00156555
-5.1719e-06
-2.45715e-06
1.52174e-06
5.81136e-06
-0.00156145
0.00156007
-4.48552e-06
-1.87401e-06
1.12537e-06
4.97878e-06
-0.00155597
0.00155462
-3.84484e-06
-1.3939e-06
8.24928e-07
4.03522e-06
-0.00155056
0.00154923
-3.10843e-06
-1.01434e-06
5.74413e-07
2.97058e-06
-0.00154533
0.00154409
-2.26699e-06
-7.08086e-07
3.82177e-07
1.9556e-06
-0.00154057
0.00153947
-1.47075e-06
-4.74491e-07
2.3156e-07
1.12789e-06
-0.00153641
0.00153548
-8.24349e-07
-2.87929e-07
1.12703e-07
4.80797e-07
-0.00153304
0.00153235
-3.49295e-07
-1.36464e-07
1.78557e-05
3.40501e-06
0.00163168
-3.84877e-06
-3.60729e-05
1.91708e-05
1.80779e-05
1.9425e-05
3.52347e-05
-0.001597
1.66306e-05
-1.78096e-05
0.0015979
-3.60882e-05
1.48736e-05
1.8469e-05
-0.0015904
-1.5643e-05
0.00158816
-1.734e-05
1.12408e-05
1.66551e-05
-0.00158254
0.00158082
-1.62607e-05
-1.1865e-05
8.2392e-06
1.59221e-05
-0.00157632
0.00157493
-1.57387e-05
-8.84271e-06
6.14338e-06
1.49295e-05
-0.00157087
0.00156952
-1.46952e-05
-6.65696e-06
4.64195e-06
1.36941e-05
-0.00156542
0.00156408
-1.34021e-05
-5.05484e-06
3.56749e-06
1.26294e-05
-0.00156032
0.0015591
-1.23379e-05
-3.88997e-06
2.72215e-06
1.12003e-05
-0.00155543
0.0015542
-1.09373e-05
-2.9754e-06
2.02687e-06
9.59631e-06
-0.00155053
0.00154931
-9.37566e-06
-2.22303e-06
1.45074e-06
7.83496e-06
-0.00154564
0.00154445
-7.66063e-06
-1.58901e-06
9.81147e-07
5.95869e-06
-0.00154106
0.00154002
-5.81102e-06
-1.07783e-06
6.26127e-07
4.2294e-06
-0.00153721
0.00153639
-4.11383e-06
-6.88473e-07
3.73608e-07
2.71827e-06
-0.00153428
0.00153368
-2.63856e-06
-4.09307e-07
1.85188e-07
1.26765e-06
-0.0015322
0.00153179
-1.21456e-06
-1.9928e-07
1.0042e-05
2.41282e-06
0.00161441
-2.48393e-06
-8.72727e-06
9.24276e-06
1.95196e-05
-0.00160777
-9.77565e-06
0.0016052
-1.73945e-05
1.03913e-05
1.69465e-05
-0.00159742
0.00159507
-1.51396e-05
-1.10212e-05
9.12363e-06
1.51369e-05
-0.00158907
0.00158732
-1.38772e-05
-9.74619e-06
7.46477e-06
1.41578e-05
-0.00158254
0.001581
-1.31756e-05
-8.03882e-06
5.97931e-06
1.30051e-05
-0.00157635
0.00157478
-1.21094e-05
-6.48233e-06
4.72032e-06
1.16963e-05
-0.0015701
0.00156855
-1.08251e-05
-5.13458e-06
3.664e-06
1.05221e-05
-0.00156403
0.00156257
-9.64556e-06
-3.99644e-06
2.80546e-06
9.2947e-06
-0.00155831
0.00155693
-8.49264e-06
-3.07754e-06
2.10516e-06
7.98041e-06
-0.00155284
0.00155148
-7.2925e-06
-2.31008e-06
1.52337e-06
6.49729e-06
-0.00154751
0.00154621
-5.91795e-06
-1.67648e-06
1.05273e-06
4.89651e-06
-0.00154252
0.00154138
-4.44183e-06
-1.1619e-06
6.85382e-07
3.42245e-06
-0.00153827
0.00153734
-3.0817e-06
-7.5851e-07
4.14999e-07
2.15762e-06
-0.00153484
0.00153412
-1.92697e-06
-4.5569e-07
1.93885e-07
9.54561e-07
-0.00153225
0.00153176
-8.46215e-07
-2.11331e-07
2.4119e-06
5.42132e-06
0.00161063
-4.70642e-06
-2.57267e-06
6.04579e-06
9.77936e-06
-0.00160718
0.0016055
-7.77106e-06
-6.4665e-06
7.5732e-06
1.02467e-05
-0.00159992
0.001598
-8.00701e-06
-8.12773e-06
7.49655e-06
9.50941e-06
-0.00159253
0.00159079
-7.48656e-06
-8.06054e-06
6.71185e-06
8.87716e-06
-0.00158577
0.0015841
-7.00598e-06
-7.23634e-06
5.69244e-06
8.14279e-06
-0.00157906
0.00157736
-6.40965e-06
-6.15942e-06
4.63616e-06
7.17764e-06
-0.00157233
0.00157067
-5.61978e-06
-5.03861e-06
3.66845e-06
6.2489e-06
-0.00156583
0.00156425
-4.86504e-06
-4.00418e-06
2.82357e-06
5.45013e-06
-0.00155964
0.00155815
-4.23674e-06
-3.09646e-06
2.11885e-06
4.66454e-06
-0.00155381
0.00155241
-3.61216e-06
-2.33091e-06
1.54651e-06
3.72331e-06
-0.00154831
0.00154699
-2.8624e-06
-1.70404e-06
1.08571e-06
2.6919e-06
-0.00154325
0.00154211
-2.04022e-06
-1.20122e-06
7.36409e-07
1.79788e-06
-0.00153895
0.00153799
-1.33858e-06
-8.09582e-07
4.48813e-07
1.07485e-06
-0.00153533
0.00153452
-7.77849e-07
-4.9705e-07
2.06806e-07
4.77626e-07
-0.00153245
0.0015319
-3.56138e-07
-2.28284e-07
3.72541e-05
0.000311008
-9.64007e-06
0.00153704
-1.49186e-05
1.11719e-05
-0.00155584
2.2107e-05
-3.79178e-07
-1.73421e-05
1.9797e-07
2.32655e-05
0.000420816
-8.04191e-06
0.00154014
-4.95056e-05
3.81119e-06
5.14004e-05
-0.00153817
2.3022e-05
0.000421983
-3.74755e-07
0.00153886
-4.03583e-05
3.6667e-05
-0.00153137
-1.21898e-05
-1.3459e-06
-1.77723e-05
1.20786e-06
2.34125e-05
0.000428245
-1.99498e-05
0.00156469
-4.75865e-05
1.73993e-05
4.68062e-05
-0.00156194
2.35126e-05
0.000429172
-1.51392e-06
0.00157005
-4.5715e-05
4.3794e-05
-0.00156671
-2.21542e-05
5.25901e-06
-2.24751e-07
-5.30105e-06
2.65313e-07
3.17918e-06
1.24804e-07
-3.30669e-06
-4.23245e-07
1.77525e-05
0.0015321
0.00153931
-2.13088e-05
2.02718e-05
-0.00153518
-2.4435e-06
-8.71738e-06
-4.31625e-05
2.38155e-06
4.67181e-05
0.00154282
-1.15188e-05
0.00154548
-2.76766e-05
6.84584e-06
2.97731e-05
-0.00154276
-0.00154653
1.03171e-06
-2.2523e-05
1.38659e-05
0.00158645
-4.80746e-07
0.00156394
-1.60061e-05
2.10621e-05
-0.0015698
2.30559e-07
1.74029e-05
1.83602e-05
1.84324e-05
5.92985e-06
0.00159624
-3.51347e-05
-9.61718e-06
0.00156617
6.91572e-06
-0.00156317
-5.02377e-05
-1.51629e-06
-8.78417e-06
7.47639e-07
1.29858e-05
0.00159801
-5.25431e-06
0.00157363
-1.90619e-05
3.31062e-06
2.77928e-05
-0.00158104
5.5893e-06
-1.34295e-07
1.39625e-07
-5.59578e-06
1.54002e-07
5.33293e-06
-1.56096e-07
-5.33197e-06
2.39538e-05
-1.21412e-05
0.0015472
0.00155575
-1.76856e-05
1.46837e-05
-0.00155241
-1.19947e-05
-1.98183e-05
-3.87648e-05
1.74893e-05
3.7819e-05
0.00156714
-1.76214e-05
0.00156828
-2.32484e-05
1.57476e-05
2.1748e-05
-0.0015663
-0.00156265
-1.09273e-05
-4.41989e-05
1.26007e-05
0.0016017
-1.95268e-06
0.00157726
-1.76004e-05
2.54907e-05
-0.00158447
-6.5891e-06
1.75902e-05
1.90628e-05
1.88549e-05
3.08372e-06
0.00162384
-3.58226e-05
-1.58453e-05
0.00159113
1.42201e-05
-0.00158844
-4.93127e-05
-4.16644e-06
-9.77883e-06
3.41586e-06
1.39713e-05
0.00162007
-1.11653e-05
0.00159464
-1.93196e-05
9.62596e-06
2.80304e-05
-0.00160269
5.84292e-06
-1.44254e-07
1.50115e-07
-5.84916e-06
1.33185e-07
5.66466e-06
-1.34102e-07
-5.66456e-06
3.23132e-05
-2.18153e-05
0.00157379
0.00157603
-1.98546e-05
1.71044e-05
-0.00157416
-1.86719e-05
-0.00159443
-1.70594e-05
-4.79154e-05
1.414e-05
0.00162649
-4.80705e-06
0.00160083
-1.89597e-05
2.73866e-05
-0.001609
-1.24023e-05
-7.46668e-07
-5.49094e-06
1.0721e-05
7.7133e-07
-2.45932e-05
3.38213e-05
-0.000346287
-0.000342872
0.00147139
-3.20805e-05
-4.62127e-05
-0.000349765
-0.000348434
0.00146761
-2.2608e-08
-6.86393e-06
1.00571e-05
5.55246e-06
-3.48073e-08
-5.56748e-06
4.80982e-08
0.000360432
-2.22224e-05
-0.000333061
-2.43569e-05
1.90426e-05
-8.88689e-07
-2.03004e-05
3.62494e-06
2.58357e-05
0.000420029
0.000395319
-3.78805e-06
-2.00087e-05
2.76476e-05
-2.15328e-06
-0.000397159
3.32723e-06
-5.17009e-08
-3.27831e-06
-7.50398e-08
1.14321e-05
-5.90487e-06
9.64676e-08
2.41683e-05
-0.00039296
-0.000375109
-0.000352087
-0.0003807
0.00152164
-4.3605e-06
2.10697e-05
2.94536e-05
3.71215e-05
2.48709e-05
-4.38424e-05
-0.000455098
-0.000367816
-0.000437822
4.61388e-05
-0.00152352
8.52978e-06
0.0015406
-5.00891e-05
2.90345e-06
-0.000378986
-0.000362838
-0.00036135
-0.000382854
0.00152121
6.69471e-06
1.68955e-05
2.94185e-05
2.55111e-05
1.50117e-05
-6.89014e-05
-0.000383409
-0.000393848
-0.000380873
2.98756e-07
6.48191e-06
-3.46128e-06
5.05747e-06
-5.06304e-06
-2.2078e-07
5.45117e-06
1.63751e-07
-5.4621e-06
-5.14931e-06
1.01499e-05
-6.93933e-07
2.49096e-05
-3.24388e-05
-0.00036126
-0.000358933
0.00150007
1.98198e-05
-0.000343782
-0.000345981
0.0014739
-4.88343e-07
4.6717e-07
-5.5793e-06
1.10478e-05
5.54591e-06
-5.53393e-06
-4.84967e-08
-1.76228e-05
-5.51277e-07
2.35039e-05
0.000421503
0.000397958
-2.88908e-06
-1.79131e-05
-0.000402917
1.12679e-06
2.4527e-05
0.000391524
-1.85962e-05
2.44188e-05
-0.000400653
-6.15927e-07
5.70047e-06
-8.92038e-08
9.1707e-08
-5.70424e-06
1.1524e-05
-5.93395e-06
-1.22922e-07
3.06326e-05
-0.00151585
0.00153074
-3.35877e-05
1.9688e-06
-9.37134e-06
-0.000380954
-0.000364481
-0.000363233
-0.000382237
0.00151718
5.85469e-06
-8.1418e-06
1.81977e-05
2.9725e-05
2.92811e-05
1.81479e-05
-6.52042e-05
-0.000396958
-0.000386418
-0.000385324
-0.000371104
-0.000352044
-0.000370038
-0.000352906
0.00150129
1.93701e-05
3.02349e-05
1.94505e-05
3.13705e-05
-6.17391e-05
-0.000379885
-0.000391576
-0.000379793
-2.32394e-07
2.31158e-07
1.16998e-05
-6.00065e-06
-3.73689e-07
3.60045e-07
-5.65904e-06
1.12588e-05
-4.55287e-07
-5.47121e-06
1.07673e-05
5.8365e-06
-1.11976e-07
1.13957e-07
-5.83926e-06
0.000396055
-1.83306e-05
-0.000403248
2.47165e-05
-2.18133e-06
-8.45178e-07
-1.73183e-05
6.1346e-07
2.30877e-05
0.000424219
5.69438e-06
-9.11696e-08
-5.69365e-06
0.000400878
-3.53162e-06
-1.8301e-05
2.47267e-05
2.607e-06
-0.000406459
-2.73047e-07
2.70074e-07
1.19017e-05
-6.06346e-06
-1.35285e-05
-0.000375802
-0.000357125
-0.000375166
-0.000357676
0.00150838
-1.17717e-05
1.9156e-05
3.05715e-05
1.91169e-05
3.06871e-05
-6.49869e-05
-0.000384542
-0.000396827
-0.000385363
4.85945e-05
-0.00154916
-1.50617e-05
0.00155151
-4.84408e-05
-2.4233e-07
1.17033e-05
-6.00147e-06
-1.67914e-05
-0.000382377
-0.000365795
-0.000364618
-0.000383522
0.00152601
-1.45196e-05
1.87309e-05
3.01235e-05
2.99884e-05
1.88092e-05
-6.60947e-05
-0.000389377
-0.000399821
-0.00038831
5.52273e-06
-5.52252e-06
-1.35619e-07
5.71171e-06
1.37993e-07
-5.71736e-06
-5.5999e-06
1.11034e-05
-3.57916e-07
-3.39085e-07
3.34272e-07
-5.70496e-06
1.14189e-05
5.82738e-06
-5.8282e-06
-1.11906e-07
-1.75117e-05
-9.44563e-07
2.32001e-05
0.000425155
0.000404558
-4.26151e-06
-1.89507e-05
-0.000410485
3.76565e-06
2.53127e-05
0.000400336
-1.86355e-05
2.50486e-05
-0.000406958
-3.39361e-06
5.99923e-06
-1.27935e-07
1.30935e-07
-6.00257e-06
1.18848e-05
-6.05465e-06
-2.76931e-07
4.09985e-05
-0.00154846
0.00155316
-4.38112e-05
1.93196e-05
-2.21499e-05
-0.000384668
-0.000368035
-0.000366759
-0.000385892
0.00153802
1.65917e-05
-1.92131e-05
1.92844e-05
3.07605e-05
3.0604e-05
1.93989e-05
-6.71704e-05
-0.000403347
-0.000392881
-0.000391749
-0.000380936
-0.000362136
-0.000380148
-0.000362868
0.00152368
1.93421e-05
3.06997e-05
1.92745e-05
3.07709e-05
-6.64896e-05
-0.000388831
-0.000401361
-0.000389815
-3.02061e-07
3.00817e-07
1.21564e-05
-6.15594e-06
-3.62242e-07
3.62097e-07
-5.74459e-06
1.15847e-05
-3.3233e-07
-5.65799e-06
1.13133e-05
6.19282e-06
-1.44508e-07
1.49577e-07
-6.19789e-06
0.000404988
-1.90878e-05
-0.000411302
2.55252e-05
-4.43754e-06
-1.8753e-06
-1.83059e-05
1.78202e-06
2.38117e-05
0.00043242
5.98474e-06
-1.27937e-07
-5.98505e-06
0.000408925
-5.45671e-06
-1.9544e-05
2.59459e-05
5.02313e-06
-0.000414945
-3.49242e-07
3.49044e-07
1.2472e-05
-6.27812e-06
-2.42734e-05
-0.000386135
-0.00036705
-0.000385089
-0.000368077
0.00154173
-2.15183e-05
1.97845e-05
3.11044e-05
1.96523e-05
3.12313e-05
-6.75819e-05
-0.000393319
-0.000406184
-0.000394456
4.65e-05
-0.0015779
-2.51946e-05
0.00158053
-4.71478e-05
-3.05515e-07
1.21271e-05
-6.13881e-06
-2.75434e-05
-0.000388275
-0.000371533
-0.000370272
-0.000389512
0.00155363
-2.51063e-05
1.98927e-05
3.14648e-05
3.12909e-05
2.00515e-05
-6.79539e-05
-0.000397104
-0.000407587
-0.00039587
5.78266e-06
-5.77952e-06
-1.47707e-07
-5.67909e-06
1.14614e-05
-3.64248e-07
6.15458e-06
-6.15167e-06
-1.47389e-07
-1.82778e-05
-2.11132e-06
2.38248e-05
0.000433191
0.000409788
-1.94601e-05
2.60073e-05
-0.000415863
-5.97505e-06
1.23983e-05
-6.23494e-06
-3.57088e-07
4.57797e-05
-0.00158609
0.0015885
-4.61377e-05
-0.000391334
-0.000372063
-0.000390112
-0.000373298
0.00156148
2.03286e-05
3.16085e-05
2.01702e-05
3.17733e-05
-6.76265e-05
-0.000398044
-0.000411204
-0.000399348
-2.29147e-07
5.11242e-06
1.69431e-07
-5.05463e-06
5.75292e-06
-4.29788e-09
-5.97972e-06
9.70781e-08
5.43449e-06
-1.02823e-07
-5.43002e-06
5.52675e-06
1.12517e-07
-5.54348e-06
1.30158e-07
5.72588e-06
-1.31827e-07
-5.72466e-06
5.77363e-06
1.36469e-07
-5.78065e-06
1.7323e-05
3.07964e-07
-2.57531e-05
-8.91505e-05
-7.18163e-05
-7.23339e-05
-8.93182e-05
-8.60986e-07
5.75054e-07
-4.90489e-06
1.02988e-05
3.80369e-06
-1.81893e-05
-9.12224e-05
-7.27289e-05
-9.28414e-05
-7.14564e-05
-3.57466e-07
-6.75995e-06
1.20048e-05
-2.3192e-05
-1.24752e-06
-8.73838e-05
-7.52994e-05
-6.79977e-05
-8.44024e-05
3.26621e-05
-8.69419e-05
-7.21333e-05
-8.66094e-05
-7.44681e-05
-0.000114266
2.03951e-06
-1.07791e-05
1.5452e-05
0.00010951
-1.98095e-06
1.21609e-06
0.000398187
-3.24407e-06
1.22332e-05
1.70584e-05
1.69053e-05
1.23755e-05
-3.78982e-05
-0.000106151
-0.000102341
-0.000102526
-0.000106025
-1.45031e-07
5.28894e-06
9.93828e-08
-5.24516e-06
2.19334e-06
0.000396087
1.15958e-05
1.55596e-05
1.13679e-05
1.58703e-05
-3.26514e-05
-0.000105333
-0.000105026
-0.000102137
-0.00010654
-0.000111474
-1.05823e-06
-1.11621e-05
1.59191e-06
1.54281e-05
0.000106653
-2.50857e-06
0.000136473
-8.72377e-06
1.09155e-05
-0.000139038
2.86484e-06
-1.26757e-05
1.78118e-05
-1.46607e-06
8.26888e-05
-2.13806e-06
-8.10865e-06
0.000146786
2.66594e-06
1.083e-05
7.70857e-05
-1.08546e-05
-3.81807e-06
-7.62795e-05
1.38469e-05
-1.10741e-05
1.36596e-05
-0.000116887
-2.4903e-06
-7.04416e-07
-1.03735e-05
1.41436e-05
1.21185e-06
0.000124919
-1.15794e-05
0.000126213
1.53144e-05
-1.86863e-06
-1.0828e-06
-1.07167e-05
1.67714e-06
1.32993e-05
-0.000114665
-9.64681e-06
1.44947e-05
0.000130644
2.99561e-06
5.26972e-06
-1.11823e-07
-5.3048e-06
-1.90406e-05
0.000404266
7.72619e-06
1.60699e-05
1.27641e-05
1.07112e-05
-2.13917e-05
-0.000110464
-8.60473e-05
-0.000117929
-9.69275e-05
0.000442612
1.40417e-05
1.8594e-05
1.27118e-05
1.97406e-05
-3.72905e-05
-0.000121703
-0.000123216
-0.000121323
-0.000121259
-9.71178e-06
-6.00033e-06
1.3595e-05
7.91754e-05
2.90286e-05
-0.000380693
5.60225e-06
-1.62293e-05
-4.42741e-06
-2.2426e-05
-4.01387e-06
-9.12154e-05
-7.46995e-05
-7.48008e-05
-9.11288e-05
-3.43789e-06
0.000381938
-1.65443e-06
1.03001e-05
1.48922e-05
1.47888e-05
1.0514e-05
-8.11992e-07
6.20072e-07
1.11624e-05
-5.68561e-06
-1.74961e-05
-9.22978e-05
-7.617e-05
-7.74977e-05
-9.16797e-05
-8.36315e-06
9.47405e-06
1.3232e-05
1.34676e-05
9.36637e-06
-2.90036e-06
1.84487e-05
-0.000404508
-2.25283e-06
-6.33249e-07
1.06553e-05
-5.56846e-06
1.05904e-06
-2.9642e-05
-0.000101157
-8.15073e-05
-8.018e-05
-8.51198e-05
-7.52681e-06
0.000387923
1.15861e-05
1.72328e-05
1.27956e-05
1.13952e-05
-8.85835e-05
-7.05146e-05
-6.99868e-05
-8.85265e-05
1.1956e-05
1.69506e-05
1.80966e-05
1.20333e-05
-7.63242e-08
5.41665e-06
1.15508e-07
-5.45717e-06
5.17291e-06
-9.48015e-08
-5.15576e-06
-1.30804e-05
-3.26528e-06
-9.04256e-05
-7.22264e-05
-9.05596e-05
-7.25993e-05
-1.82912e-07
2.66408e-07
-5.73545e-06
1.10646e-05
-2.42284e-06
2.35668e-06
-8.92522e-05
-7.29169e-05
-8.98873e-05
-7.23794e-05
-2.0453e-07
-5.28297e-06
1.04735e-05
7.76466e-06
-4.16125e-06
-1.43141e-05
-9.23795e-05
-7.47321e-05
-7.46272e-05
-9.24685e-05
-5.64658e-06
-9.2758e-05
-7.42108e-05
-9.2337e-05
-7.46948e-05
-0.000112255
-2.58501e-07
-1.06867e-05
3.9261e-07
1.49583e-05
0.000107832
-1.76467e-06
0.000399758
1.17988e-05
1.63602e-05
1.1715e-05
1.64682e-05
-3.49904e-05
-0.000107224
-0.000103995
-0.00010709
-0.000104477
-3.11614e-08
5.58187e-06
4.53075e-08
-5.59753e-06
-0.000112642
-1.05811e-05
-8.72084e-07
1.49208e-05
0.000108094
-1.01563e-06
0.00040021
1.19754e-05
1.6824e-05
1.20889e-05
1.67186e-05
-3.67599e-05
-0.000107011
-0.000103758
-0.000104067
-0.000107148
2.9039e-07
0.000112294
-1.00558e-05
-0.000114838
1.26084e-05
-3.12326e-07
-1.29469e-07
-9.79586e-06
1.35637e-05
1.80287e-07
0.000124118
1.80852e-07
-9.8176e-06
0.000123934
-1.25047e-07
1.36043e-05
0.000112541
-4.10721e-07
-1.01192e-05
4.03429e-07
-0.000115059
1.26345e-05
-1.01913e-05
-0.000114958
4.17177e-07
1.27546e-05
-1.01081e-05
1.38198e-05
-4.12818e-07
0.000124964
-9.74775e-06
0.000124243
2.36902e-07
1.35615e-05
-1.02517e-05
-8.39248e-07
1.27978e-05
-0.000115447
-1.04365e-05
1.47561e-05
0.000108042
-3.46467e-07
5.64193e-06
-4.12571e-08
-5.63331e-06
1.90618e-06
0.000404489
-2.87217e-06
1.18066e-05
1.66527e-05
1.65828e-05
1.1879e-05
-3.57249e-05
-0.000107744
-0.000104484
-0.000104741
-0.000107896
0.000403576
1.17467e-05
1.64538e-05
1.17405e-05
1.647e-05
-3.50967e-05
-0.000107652
-0.000104245
-0.000107589
-0.000104677
-4.95722e-07
-1.05444e-05
4.48769e-07
1.481e-05
0.000108307
6.18756e-07
2.43469e-05
-0.000379601
2.76111e-06
-2.63271e-05
-6.62115e-07
-9.13254e-05
-7.49738e-05
-9.1275e-05
-7.49385e-05
0.000379378
-8.78618e-07
1.0302e-05
1.44597e-05
1.02441e-05
1.4579e-05
3.75065e-08
2.93389e-08
1.14111e-05
-5.89931e-06
3.44046e-06
-9.08124e-05
-7.44037e-05
-7.41643e-05
-9.10734e-05
1.31895e-07
1.04901e-05
1.49203e-05
1.48334e-05
1.05032e-05
2.6253e-05
-0.000385109
-1.29532e-06
-1.88934e-08
1.16732e-05
-5.97801e-06
1.15954e-06
-2.57665e-05
-5.84755e-06
-9.28113e-05
-7.62916e-05
-7.63571e-05
-9.28457e-05
1.67244e-06
0.000385957
-3.58317e-06
1.03213e-05
1.46809e-05
1.4631e-05
1.03549e-05
-9.287e-05
-7.61719e-05
-7.64984e-05
-9.26364e-05
1.01787e-05
1.44615e-05
1.4487e-05
1.02115e-05
-5.30239e-06
2.21481e-07
-2.28829e-07
-5.52934e-06
1.09679e-05
6.28425e-06
-3.63711e-06
-9.81905e-06
-9.32844e-05
-7.60243e-05
-7.59086e-05
-9.34081e-05
3.15891e-06
-3.74819e-06
-9.32391e-05
-7.55158e-05
-9.29773e-05
-7.57897e-05
2.5454e-07
-5.68479e-06
1.11751e-05
-8.65444e-06
-2.0096e-06
-9.16625e-05
-7.42719e-05
-9.16634e-05
-7.43837e-05
-1.35048e-06
-9.16241e-05
-7.47498e-05
-9.19693e-05
-7.44464e-05
4.18269e-07
-0.000113031
-1.05449e-05
1.48216e-05
0.000108816
-4.95337e-07
8.176e-08
5.76352e-06
-8.37723e-08
-5.7625e-06
3.17234e-06
0.000407582
-3.83612e-06
1.18428e-05
1.67577e-05
1.67122e-05
1.18871e-05
-3.58935e-05
-0.000108586
-0.000105369
-0.000105597
-0.000108762
2.55378e-06
0.000406606
1.18206e-05
1.66819e-05
1.18595e-05
1.66656e-05
-3.57819e-05
-0.000108462
-0.000105008
-0.000108407
-0.000105461
-0.000113387
-6.31497e-07
-1.05997e-05
5.62574e-07
1.48701e-05
0.000109175
0.00011294
-3.34232e-07
-1.01331e-05
1.26509e-05
3.35903e-07
-0.000115468
-9.74306e-06
1.3497e-05
0.000124352
-5.12134e-08
0.000112703
-1.0106e-05
-3.87241e-07
-0.000115254
1.26214e-05
-4.60596e-08
-9.727e-06
0.000124532
6.96035e-08
1.3518e-05
-1.05949e-05
1.48556e-05
4.01286e-07
0.000108683
5.73967e-06
8.72081e-08
-5.74614e-06
-2.72734e-06
0.00040393
1.18571e-05
1.6671e-05
1.18895e-05
1.66586e-05
-3.58679e-05
-0.000107967
-0.000104543
-0.000107959
-0.000104948
-1.05453e-05
-5.06731e-07
1.48128e-05
0.000108429
0.000404646
1.18712e-05
1.67497e-05
1.19282e-05
1.6695e-05
-3.60731e-05
-0.000108042
-0.000104804
-0.000108228
-0.000105035
-1.01013e-05
1.26219e-05
-0.000115521
-3.75747e-07
-1.52405e-07
-9.76568e-06
1.35554e-05
1.67673e-07
0.000124885
-9.73404e-06
0.00012453
1.35265e-05
-4.16831e-08
-5.08212e-07
-1.015e-05
4.72691e-07
1.26596e-05
-0.000115868
2.58969e-05
-0.000387454
-3.56157e-06
1.35809e-06
1.40714e-07
-1.60155e-07
1.18086e-05
-6.02743e-06
3.49739e-06
-2.59238e-05
-6.10195e-06
-9.3536e-05
-7.69208e-05
-7.68969e-05
-9.36293e-05
3.61445e-06
0.000388454
-4.74769e-06
1.03769e-05
1.47691e-05
1.47392e-05
1.03948e-05
1.02298e-06
-9.34289e-05
-7.66014e-05
-7.68059e-05
-9.32662e-05
2.60883e-06
1.03155e-05
1.46796e-05
1.46799e-05
1.03325e-05
-5.80771e-06
3.44641e-06
2.53862e-05
-0.000384204
1.65404e-07
1.17119e-05
-5.99878e-06
-2.55968e-05
-3.57422e-06
-9.22818e-05
-7.57053e-05
-9.23158e-05
-7.56317e-05
0.000383634
-3.16949e-06
1.03964e-05
1.47459e-05
1.03966e-05
1.47407e-05
-9.23185e-05
-7.58095e-05
-7.56305e-05
-9.25281e-05
1.04214e-05
1.48121e-05
1.4769e-05
1.04262e-05
-1.14561e-07
5.64883e-06
1.22664e-07
-5.65766e-06
5.59833e-06
-1.15745e-07
-5.59783e-06
-7.31711e-06
-2.29922e-06
-9.29412e-05
-7.5748e-05
-9.29051e-05
-7.58437e-05
-2.62071e-07
2.78292e-07
-5.70793e-06
1.13371e-05
-4.77558e-06
-2.12327e-06
-9.30011e-05
-7.61569e-05
-9.32522e-05
-7.59534e-05
-2.64216e-07
-5.62998e-06
1.12272e-05
6.34731e-06
-3.21568e-06
-8.10299e-06
-9.40493e-05
-7.70794e-05
-7.69378e-05
-9.42261e-05
-3.16913e-06
-9.3945e-05
-7.65931e-05
-9.37524e-05
-7.67921e-05
-0.000113874
-6.72483e-07
-1.06996e-05
6.37455e-07
1.49639e-05
0.000109637
-3.9211e-06
0.00040761
1.18832e-05
1.68178e-05
1.19369e-05
1.67904e-05
-3.61916e-05
-0.000108821
-0.000105398
-0.000108774
-0.000105846
-1.11446e-07
5.89946e-06
1.15956e-07
-5.90452e-06
-0.000113488
-1.06426e-05
-6.73169e-07
1.49068e-05
0.000109253
-3.93892e-06
0.000408508
1.19066e-05
1.68732e-05
1.19453e-05
1.68317e-05
-3.62742e-05
-0.000108942
-0.000105779
-0.000105975
-0.000109141
5.4749e-07
0.000113994
-1.02384e-05
-0.000116475
1.27413e-05
-5.78139e-07
-2.32353e-07
-9.87112e-06
1.36734e-05
2.52777e-07
0.000125933
1.64679e-07
-9.82676e-06
0.000125499
-1.52407e-07
1.36281e-05
0.000114425
-6.65283e-07
-1.02936e-05
6.35996e-07
-0.000116901
1.27944e-05
-1.02334e-05
-0.000116366
5.33097e-07
1.27345e-05
-9.78346e-06
1.35695e-05
-1.20262e-07
0.000125035
-9.81651e-06
0.000125413
1.89713e-07
1.36137e-05
-1.01849e-05
-5.19672e-07
1.26874e-05
-0.000115989
-1.07018e-05
1.49752e-05
0.000109772
-7.34699e-07
5.90505e-06
-1.11513e-07
-5.90551e-06
4.31916e-06
0.000411054
-4.73547e-06
1.19223e-05
1.69594e-05
1.6915e-05
1.19617e-05
-3.63961e-05
-0.000109462
-0.000106363
-0.000106555
-0.000109658
0.000409964
1.18913e-05
1.68857e-05
1.19457e-05
1.68611e-05
-3.62956e-05
-0.000109324
-0.000105934
-0.000109251
-0.000106415
-8.09146e-07
-1.07657e-05
7.50443e-07
1.50423e-05
0.000110202
4.94575e-06
2.57101e-05
-0.000388302
-3.99766e-06
-2.57256e-05
-5.03381e-06
-9.33513e-05
-7.65933e-05
-9.33317e-05
-7.65973e-05
0.000387561
-4.67019e-06
1.04431e-05
1.48461e-05
1.04477e-05
1.48279e-05
-2.3493e-07
2.44931e-07
1.19778e-05
-6.08888e-06
-3.8438e-06
-9.34366e-05
-7.68137e-05
-7.66666e-05
-9.36246e-05
-4.45915e-06
1.04661e-05
1.48932e-05
1.48619e-05
1.04733e-05
2.59911e-05
-0.000390383
-5.08099e-06
-2.42255e-07
1.20064e-05
-6.0945e-06
5.04361e-06
-2.61038e-05
-6.36667e-06
-9.42929e-05
-7.76208e-05
-7.75263e-05
-9.44508e-05
5.0046e-06
0.000391483
-5.63449e-06
1.05064e-05
1.49595e-05
1.49256e-05
1.05272e-05
-9.41626e-05
-7.72411e-05
-7.74001e-05
-9.40232e-05
1.04524e-05
1.48748e-05
1.48649e-05
1.04623e-05
-6.2352e-06
3.1091e-07
-3.11854e-07
-5.67071e-06
1.13945e-05
7.24379e-06
-3.25036e-06
-8.24619e-06
-9.49651e-05
-7.8188e-05
-7.80313e-05
-9.51673e-05
6.37267e-06
-3.14687e-06
-9.48712e-05
-7.77118e-05
-9.46964e-05
-7.78889e-05
3.18371e-07
-5.73258e-06
1.14958e-05
-7.23855e-06
-2.65564e-06
-9.41454e-05
-7.70251e-05
-9.40416e-05
-7.71543e-05
-2.66114e-06
-9.42338e-05
-7.74617e-05
-9.44626e-05
-7.72847e-05
8.97754e-07
-0.00011508
-1.08847e-05
1.51676e-05
0.000110858
-9.65461e-07
1.32232e-07
6.06834e-06
-1.33399e-07
-6.0673e-06
5.50626e-06
0.000415026
-5.9323e-06
1.19927e-05
1.71787e-05
1.71277e-05
1.20349e-05
-3.69821e-05
-0.000110354
-0.000107435
-0.00010761
-0.000110551
5.14097e-06
0.000413909
1.1966e-05
1.71057e-05
1.20267e-05
1.70814e-05
-3.68556e-05
-0.000110238
-0.000106993
-0.000110161
-0.000107485
-0.000115507
-1.04064e-06
-1.09514e-05
9.74043e-07
1.52378e-05
0.000111285
0.000114966
-7.45698e-07
-1.03787e-05
1.28717e-05
7.21808e-07
-0.000117438
-9.89322e-06
1.36962e-05
0.00012605
-2.1015e-07
0.000114537
-1.03212e-05
-6.89562e-07
-0.000117016
1.28175e-05
-2.57211e-07
-9.93675e-06
0.00012648
2.86434e-07
1.37397e-05
-1.08673e-05
1.51462e-05
8.47942e-07
0.000110733
6.08592e-06
1.37132e-07
-6.09098e-06
-4.93735e-06
0.000411682
1.1942e-05
1.70119e-05
1.20014e-05
1.69851e-05
-3.66288e-05
-0.000109761
-0.000106442
-0.000109696
-0.000106922
-1.07995e-05
-8.64985e-07
1.5073e-05
0.00011031
0.00041275
1.19728e-05
1.70782e-05
1.20116e-05
1.70321e-05
-3.67495e-05
-0.00010989
-0.000106874
-0.000110091
-0.000107053
-1.03975e-05
1.28908e-05
-0.000117548
-7.76791e-07
-2.9009e-07
-9.99167e-06
1.37928e-05
3.19552e-07
0.000126977
-9.95732e-06
0.000126576
1.37636e-05
-2.39466e-07
-8.62163e-07
-1.0455e-05
8.26271e-07
1.29413e-05
-0.000117959
2.63485e-05
-0.000394179
-6.50192e-06
5.86124e-06
3.02979e-07
-3.09939e-07
1.22614e-05
-6.18553e-06
6.52332e-06
-2.64953e-05
-7.32826e-06
-9.52435e-05
-7.85113e-05
-7.83705e-05