/*--------------------------------*- C++ -*----------------------------------*\
| =========                 |                                                 |
| \\      /  F ield         | OpenFOAM: The Open Source CFD Toolbox           |
|  \\    /   O peration     | Version:  2012                                  |
|   \\  /    A nd           | Website:  www.openfoam.com                      |
|    \\/     M anipulation  |                                                 |
\*---------------------------------------------------------------------------*/
FoamFile
{
    version     2.0;
    format      ascii;
    class       volVectorField;
    location    "0.104/fluid";
    object      U;
}
// * * * * * * * * * * * * * * * * * * * * * * * * * * * * * * * * * * * * * //

dimensions      [0 1 -1 0 0 0 0];


internalField   nonuniform List<vector> 
16422
(
(1.25338 -0.0466016 -0.0050591)
(1.20942 -0.0116111 0.00623547)
(1.20231 -0.0124726 0.00189583)
(1.19864 -0.00788237 0.000204867)
(1.19818 -0.00541718 -0.000208272)
(1.19838 -0.00359205 -0.000182941)
(1.19864 -0.00233805 -0.000118045)
(1.19886 -0.00150461 -7.67228e-05)
(1.19904 -0.000962893 -5.41557e-05)
(1.19919 -0.000611213 -4.16363e-05)
(1.19932 -0.00038578 -3.12295e-05)
(1.19942 -0.000243265 -2.73015e-05)
(1.19952 -0.000152157 -2.64534e-05)
(1.1996 -9.30751e-05 -2.50787e-05)
(1.19968 -5.06919e-05 -2.67434e-05)
(1.219 -0.00674202 4.38614e-05)
(1.21239 -0.0132438 0.000862213)
(1.20556 -0.00878445 0.000217389)
(1.20161 -0.00564174 -0.000141005)
(1.20023 -0.00380372 -0.000184344)
(1.19974 -0.00256403 -0.000142037)
(1.1995 -0.00170161 -9.67842e-05)
(1.1994 -0.00111444 -6.97802e-05)
(1.19937 -0.000722557 -5.19882e-05)
(1.19939 -0.000462091 -4.03889e-05)
(1.19943 -0.000294816 -3.32103e-05)
(1.19949 -0.000186581 -3.06473e-05)
(1.19955 -0.000119799 -2.85134e-05)
(1.19962 -7.22543e-05 -2.82321e-05)
(1.1997 -3.83094e-05 -3.0917e-05)
(1.21261 -0.00190725 4.49726e-05)
(1.21024 -0.00445957 0.000159802)
(1.2062 -0.0036929 4.82631e-06)
(1.20317 -0.0025934 -9.81815e-05)
(1.20154 -0.00182355 -0.000117809)
(1.20061 -0.00125023 -0.000101865)
(1.20006 -0.000840144 -7.84055e-05)
(1.19975 -0.000555476 -6.07352e-05)
(1.19959 -0.000359538 -4.98004e-05)
(1.19953 -0.000227888 -4.09535e-05)
(1.19952 -0.000143786 -3.37155e-05)
(1.19954 -8.75704e-05 -3.17677e-05)
(1.19959 -5.03504e-05 -2.84845e-05)
(1.19964 -2.27184e-05 -3.01706e-05)
(1.19971 -7.80531e-06 -3.32019e-05)
(1.25348 -0.0309492 -0.00102705)
(1.20969 -0.0311771 -0.0026362)
(1.20543 -0.00862323 -0.00261559)
(1.20152 -0.00696441 -0.00181479)
(1.20005 -0.00510835 -0.00122029)
(1.19972 -0.00344587 -0.000843051)
(1.19967 -0.00225534 -0.00058776)
(1.19971 -0.00145909 -0.000402919)
(1.19978 -0.000939448 -0.00027353)
(1.19984 -0.000599692 -0.000183917)
(1.19989 -0.000381046 -0.000123337)
(1.19993 -0.000240894 -8.26768e-05)
(1.19995 -0.000151108 -5.33772e-05)
(1.19998 -9.21875e-05 -3.04227e-05)
(1.19999 -5.09255e-05 -1.62406e-05)
(1.21962 -0.00676887 9.55352e-05)
(1.21386 -0.0139727 -0.000828284)
(1.20756 -0.00824101 -0.00113209)
(1.20352 -0.00527898 -0.00104202)
(1.20179 -0.00361458 -0.000826629)
(1.201 -0.00245305 -0.000627391)
(1.20055 -0.00163848 -0.00046384)
(1.2003 -0.00108059 -0.000332033)
(1.20016 -0.000703879 -0.000233639)
(1.20009 -0.000453116 -0.000162901)
(1.20005 -0.000289855 -0.000112571)
(1.20004 -0.000184905 -7.58207e-05)
(1.20003 -0.000117837 -4.85575e-05)
(1.20003 -7.08113e-05 -2.74907e-05)
(1.20003 -3.8475e-05 -1.33499e-05)
(1.21316 -0.00197115 0.000109958)
(1.21116 -0.00445408 -0.000426298)
(1.2075 -0.00356882 -0.000677179)
(1.20457 -0.0024687 -0.000702492)
(1.20285 -0.00173504 -0.000619201)
(1.20177 -0.00119525 -0.000502381)
(1.20109 -0.000808576 -0.000388193)
(1.20066 -0.000537554 -0.000288412)
(1.20041 -0.000350729 -0.000208637)
(1.20025 -0.000224938 -0.000149173)
(1.20016 -0.000141358 -0.000104637)
(1.20011 -8.51662e-05 -7.16738e-05)
(1.20008 -4.86122e-05 -4.59873e-05)
(1.20006 -2.27566e-05 -2.5625e-05)
(1.20005 -7.76056e-06 -1.17855e-05)
(1.25144 -0.0288924 0.000840004)
(1.20867 -0.0334959 -0.00367214)
(1.20436 -0.00807804 -0.00427036)
(1.20172 -0.00626066 -0.00304312)
(1.20058 -0.00456788 -0.0020655)
(1.20019 -0.00310734 -0.00144455)
(1.20001 -0.00206168 -0.00100653)
(1.19995 -0.00134884 -0.000694275)
(1.19995 -0.000878421 -0.000473335)
(1.19996 -0.000566539 -0.000319267)
(1.19997 -0.000364617 -0.00021352)
(1.19998 -0.000231976 -0.00014484)
(1.19999 -0.000146309 -9.4968e-05)
(1.2 -8.97509e-05 -5.95643e-05)
(1.20001 -4.83776e-05 -3.4801e-05)
(1.21826 -0.00654659 0.000442594)
(1.21292 -0.0135542 -0.00133424)
(1.20716 -0.00761387 -0.00199953)
(1.20368 -0.00471166 -0.00181865)
(1.20212 -0.00321753 -0.00144031)
(1.2013 -0.00221283 -0.00108807)
(1.2008 -0.0014971 -0.000799762)
(1.20049 -0.00100023 -0.000576172)
(1.20031 -0.000658163 -0.000406208)
(1.20019 -0.000428842 -0.000281866)
(1.20012 -0.000277176 -0.000194432)
(1.20008 -0.000178196 -0.000134359)
(1.20006 -0.000113322 -8.89769e-05)
(1.20005 -6.84992e-05 -5.64268e-05)
(1.20005 -3.60876e-05 -3.22641e-05)
(1.21238 -0.00191275 0.000189371)
(1.21056 -0.0041176 -0.000724398)
(1.20728 -0.00321786 -0.00119306)
(1.20465 -0.00219082 -0.00123759)
(1.20303 -0.00154927 -0.00107873)
(1.20197 -0.00108036 -0.000869847)
(1.20127 -0.000739848 -0.000670682)
(1.20082 -0.000497869 -0.000501147)
(1.20053 -0.000328063 -0.000363067)
(1.20034 -0.000212269 -0.000257759)
(1.20023 -0.000132997 -0.000180862)
(1.20015 -8.08103e-05 -0.000128471)
(1.20011 -4.7105e-05 -8.69795e-05)
(1.20008 -2.18198e-05 -5.55594e-05)
(1.20007 -6.38079e-06 -3.03973e-05)
(0.962836 -0.158225 -0.0395348)
(1.19627 0.00135645 0.0102087)
(1.31928 -0.0773513 -0.00737853)
(1.19278 -0.0177 0.00680309)
(1.3203 -0.0765507 0.00871028)
(1.18227 -0.00829684 -0.00310055)
(1.31572 -0.0778712 -0.0096723)
(1.18719 -0.0132468 -0.00104834)
(1.3147 -0.0782059 0.00688696)
(1.18359 -0.0108694 -0.00504787)
(0.302292 0.0717577 -0.0313454)
(0.128055 0.0621994 -0.00891693)
(1.19652 -0.00306214 0.0175351)
(1.19072 -0.0156517 0.00400329)
(1.1959 -0.0247115 0.00539495)
(1.19077 -0.0222613 -0.00173751)
(1.20733 -0.019071 0.0037368)
(1.23101 -0.00447495 0.000193696)
(1.21001 -0.00591233 0.0017407)
(1.25548 -0.0300625 -0.00259902)
(1.21229 -0.0561876 0.000649111)
(1.23325 -0.00342261 0.000546156)
(1.21264 -0.00784676 0.000427101)
(0.308204 0.0734588 -0.00371331)
(0.299569 0.070837 -0.00960275)
(1.19199 -0.00917178 -0.00388158)
(1.1953 -0.0120182 -0.00441637)
(1.19248 -0.0171871 -0.00113051)
(1.19213 -0.0164539 -0.00246853)
(1.2075 -0.0491975 -0.00227833)
(1.23237 -0.00274451 0.00023922)
(1.21177 -0.00603745 -0.00069504)
(1.25245 -0.0295943 0.00139531)
(1.20916 -0.0529354 -0.00052254)
(1.23109 -0.00323554 -0.000484722)
(1.21154 -0.00681815 -0.00168931)
(0.302859 0.0743949 -0.00186453)
(0.301789 0.0729396 -0.00180022)
(1.19018 -0.0127574 -0.00586522)
(1.19338 -0.0126346 -0.00601885)
(1.20679 -0.0507089 -0.00272735)
(1.23018 -0.00326321 -0.00111407)
(1.21111 -0.00621541 -0.00289788)
(0.572143 0.134066 -0.0460565)
(1.12368 0.0596771 -0.00387996)
(1.14946 -0.0104071 -0.0373864)
(0.40276 0.179857 -0.0256981)
(0.31783 -0.0748278 0.00257382)
(1.07895 -0.0823639 -0.105366)
(1.32883 -0.0924356 -0.0113852)
(1.22418 -0.0771165 -0.0207147)
(0.192301 -0.0502736 -0.0303248)
(0.605195 -0.146373 0.00607206)
(1.18291 -0.0081521 0.024275)
(1.22589 -0.0260883 -0.0297587)
(1.19664 -0.017942 0.0277097)
(1.19914 -0.0460425 0.0167735)
(1.19851 -0.0298882 0.0256425)
(0.356604 -0.0920959 0.00433118)
(0.289747 0.0676972 -0.0197815)
(0.30807 0.0729103 -0.0113875)
(0.55028 0.124614 -0.0395416)
(1.17996 0.00233828 -0.00773118)
(1.13164 0.0673927 -0.0254721)
(0.583481 0.136954 -0.0182694)
(0.316383 -0.0742292 -0.000643583)
(1.32901 -0.0797124 0.00715022)
(1.2325 -0.0647824 -0.000302248)
(1.22594 -0.068561 0.00143568)
(0.321353 -0.0756593 0.000172648)
(0.605089 -0.147645 -0.00450769)
(1.18051 -0.00451106 -0.00183712)
(1.18801 -0.0547928 0.00774402)
(1.19827 -0.0313847 0.00456978)
(1.15837 -0.0349346 0.000449044)
(1.17957 -0.0355248 -0.00284317)
(0.610489 -0.148044 0.000495769)
(0.583899 0.138263 -0.00559383)
(0.570947 0.133788 -0.023049)
(0.321758 -0.0759978 0.000311972)
(1.22842 -0.0654463 -0.00547031)
(1.31781 -0.0763384 -0.00800532)
(0.320457 -0.0754122 -0.00295138)
(1.23137 -0.0650684 0.000972529)
(0.609679 -0.14832 0.0010396)
(1.16311 -0.0392939 -0.00465558)
(1.18675 -0.0343628 -0.00137737)
(1.19037 -0.0153199 0.00188781)
(0.609101 -0.147863 -0.00956158)
(1.18134 -0.050068 0.00273649)
(1.19556 -0.0321754 0.000772038)
(0.303009 0.0722801 -0.00441399)
(0.305746 0.0737996 -0.00121667)
(0.576322 0.136446 -0.0135377)
(0.579315 0.138473 -0.00128538)
(0.320546 -0.075742 -0.00206099)
(1.31738 -0.0768651 0.0076489)
(1.22948 -0.0669008 -0.000550144)
(1.2286 -0.065945 -0.00627414)
(0.321881 -0.0764206 0.000116619)
(0.607745 -0.147899 -0.0077206)
(1.18339 -0.010321 -0.00411059)
(1.17555 -0.046404 -0.000841545)
(1.19228 -0.0329288 -0.00148601)
(1.16698 -0.0414316 -0.00556932)
(1.18868 -0.0338735 -0.00245919)
(0.608636 -0.14926 0.000953768)
(0.573588 0.138593 -0.00217983)
(0.573627 0.137041 -0.0088347)
(0.322753 -0.0771262 -0.00130173)
(1.22806 -0.0673277 -0.00654241)
(1.31217 -0.0796537 -0.0119236)
(0.320162 -0.0760716 -0.00157023)
(1.22762 -0.0687045 -0.00455412)
(0.608976 -0.151023 -0.001383)
(1.16879 -0.0422703 -0.00607666)
(1.18895 -0.0336624 -0.00400255)
(1.1849 -0.011702 -0.00459563)
(0.606098 -0.148647 -0.00657962)
(1.1719 -0.0441799 -0.00467841)
(1.18976 -0.0334059 -0.00481349)
(0.297925 0.0732975 -0.00159678)
(0.566738 0.13668 -0.00853335)
(0.319287 -0.076391 -0.00226777)
(1.31009 -0.0797286 0.00584981)
(1.22655 -0.0686067 -0.00852803)
(0.604167 -0.149713 -0.00774414)
(1.18365 -0.0105895 -0.00792163)
(1.16986 -0.0423081 -0.00876391)
(1.18843 -0.0333911 -0.008073)
(0.294432 0.0689433 0.0467122)
(0.331164 0.0832255 0.0130243)
(0.301945 0.0716121 -0.000726679)
(0.308656 0.0733339 -0.000469592)
(0.300085 0.0731388 -0.000360518)
(0.304124 0.0740277 -0.000172691)
(1.07693 0.0854452 -0.111825)
(0.558125 0.12111 0.0726462)
(1.11006 -0.00978558 0.0111003)
(0.627789 0.167164 0.0421728)
(1.07574 0.0595548 -0.105497)
(1.04725 0.250058 -0.0383172)
(1.39844 -0.170872 -0.00284981)
(1.25424 -0.168763 -0.0104439)
(0.299948 -0.0707872 0.0215408)
(1.25964 -0.154718 0.0099725)
(1.35901 -0.172827 -0.0341406)
(1.72586 -0.171453 -0.053789)
(1.05274 -0.20048 0.011922)
(1.84312 -0.135043 -0.06127)
(0.956012 -0.163693 -0.0301132)
(1.44825 -0.184953 -0.0112785)
(1.57404 -0.154631 -0.0448941)
(1.58839 -0.175888 0.00603645)
(1.41519 -0.179828 -0.037383)
(1.67388 -0.172746 -0.0493886)
(0.303573 -0.0712307 0.0202679)
(1.27163 -0.120658 -0.0978413)
(1.43114 -0.190975 -0.0207737)
(0.959584 -0.137929 -0.0588337)
(1.18157 -0.0609327 0.0543415)
(1.10637 -0.0838273 -0.0148404)
(1.19803 -0.115108 -0.00264758)
(0.585166 -0.1421 0.0529234)
(1.13613 -0.112152 0.0593813)
(1.1951 -0.0951644 0.0351848)
(1.1907 -0.0497253 -0.00533526)
(1.2474 -0.0770404 0.0516376)
(0.57555 -0.135385 0.0546586)
(1.19788 -0.0750565 -0.0383283)
(1.21689 -0.118161 -0.0635514)
(1.05799 -0.0326133 0.0520486)
(1.29566 -0.151907 0.0198914)
(1.21283 -0.0994395 -0.0308578)
(0.308667 0.0733529 -0.0042197)
(0.292834 0.0687275 -0.000220968)
(1.08071 0.0701359 -0.0638031)
(0.585498 0.141239 -0.00234421)
(1.07387 0.100583 -0.00893397)
(0.560146 0.129255 -0.0038887)
(1.1114 0.0665314 -0.0403465)
(1.11448 0.0590191 0.00640764)
(1.36826 -0.166467 -0.0197296)
(1.26812 -0.159896 -0.00241225)
(0.317658 -0.0748378 0.00541726)
(1.37505 -0.166879 0.0119567)
(1.26515 -0.164201 0.00251887)
(1.41676 -0.170429 0.0234207)
(1.55243 -0.143765 -0.0332355)
(1.5541 -0.14503 0.0332051)
(1.41605 -0.170611 -0.0231431)
(1.41837 -0.172269 -0.0234808)
(1.57217 -0.150912 0.0284268)
(1.55946 -0.144082 -0.0352338)
(1.42646 -0.174233 0.0133363)
(1.36863 -0.163673 0.0220693)
(0.320215 -0.0751823 0.00235076)
(1.27212 -0.160543 -0.000301346)
(1.27231 -0.159105 0.00340251)
(1.36815 -0.164295 -0.0206582)
(1.17022 -0.0628423 0.0129665)
(1.10262 -0.0921761 -0.00519327)
(1.19609 -0.113171 0.00210281)
(0.602907 -0.145442 0.0148459)
(1.16962 -0.0662386 -0.00370219)
(1.09154 -0.0825508 0.0152608)
(1.19522 -0.118246 0.00531189)
(1.18887 -0.0624345 0.0181046)
(0.610078 -0.147946 0.00544335)
(1.12033 -0.0909162 -0.00920135)
(1.20695 -0.11202 -0.00271327)
(1.12293 -0.0939467 0.0198722)
(1.20674 -0.110018 0.00898571)
(1.18984 -0.0616857 -0.00919195)
(0.575098 0.135174 -0.0051595)
(1.1114 0.0692056 -0.0191482)
(1.11146 0.0684462 0.00181572)
(0.584913 0.139345 0.00203752)
(1.0936 0.0776027 -0.0363471)
(1.09298 0.0806183 -0.000869609)
(1.36727 -0.164153 0.0212137)
(0.320951 -0.0756405 0.000356889)
(1.27082 -0.160282 -6.09608e-05)
(1.27105 -0.159991 0.00100844)
(1.36679 -0.164672 -0.0201011)
(1.41548 -0.170724 -0.0208671)
(1.55413 -0.143057 0.0334526)
(1.41695 -0.170623 0.0219901)
(1.55182 -0.142512 -0.0311757)
(1.36739 -0.164717 -0.0183471)
(0.320265 -0.0755645 0.0028023)
(1.26986 -0.160627 -0.00133586)
(1.36861 -0.164416 0.019431)
(1.26922 -0.160984 0.0021985)
(1.41488 -0.170365 0.0235712)
(1.54949 -0.142766 -0.0323375)
(1.55009 -0.142681 0.0342301)
(1.41431 -0.170783 -0.0223455)
(1.18468 -0.0625848 0.00822915)
(0.609219 -0.147897 -0.000930958)
(1.11656 -0.0880628 -0.00596186)
(1.20398 -0.111591 -0.00292395)
(1.11693 -0.0886415 0.00748438)
(1.20418 -0.111182 0.00359054)
(1.18478 -0.062589 -0.00758175)
(1.17449 -0.063068 0.00434254)
(0.607056 -0.147096 0.00780447)
(1.10487 -0.0875734 -0.0102691)
(1.20043 -0.11368 -0.00132954)
(1.17555 -0.0634076 -0.00636069)
(1.10309 -0.085733 0.00766729)
(1.19956 -0.113802 0.00138014)
(0.306943 0.0736145 0.000526241)
(0.302855 0.0726621 -0.000199687)
(1.09987 0.0762054 -0.0199496)
(0.58168 0.139005 0.00261776)
(1.09927 0.0771578 -0.0020909)
(0.575822 0.136818 -0.00499128)
(1.10722 0.0723187 -0.0106215)
(1.10734 0.0721071 -0.00173709)
(1.36563 -0.165767 -0.0201404)
(1.26842 -0.160904 -0.0017875)
(0.320994 -0.0760291 0.00146916)
(1.36625 -0.165176 0.0193441)
(1.26789 -0.161125 0.000407326)
(1.41292 -0.17184 0.0222483)
(1.5476 -0.143928 -0.033468)
(1.54807 -0.143547 0.033252)
(1.41245 -0.172431 -0.0237869)
(1.41332 -0.171745 -0.0224812)
(1.5497 -0.143063 0.0331025)
(1.54891 -0.143323 -0.0324465)
(1.414 -0.171238 0.0220281)
(1.36543 -0.165808 0.0196347)
(0.320482 -0.0759063 -0.000423657)
(1.26769 -0.161347 -0.00102895)
(1.26806 -0.161024 -0.00108821)
(1.36501 -0.166508 -0.0215796)
(1.17547 -0.0629243 -0.0010229)
(1.10685 -0.0857539 -0.00797213)
(1.19961 -0.112894 -0.00174518)
(0.607327 -0.148159 0.00443592)
(1.17658 -0.0630599 -0.0046988)
(1.10569 -0.0850096 0.001996)
(1.19868 -0.112776 -0.00137934)
(1.18002 -0.062891 0.00263021)
(0.607149 -0.148235 -0.00337604)
(1.1113 -0.0858977 -0.0044729)
(1.19987 -0.112128 -0.00363864)
(1.11166 -0.0860832 0.00115943)
(1.2003 -0.11189 0.000464634)
(1.17976 -0.062953 -0.00671654)
(0.570491 0.136894 -0.00598042)
(1.10333 0.0739823 -0.0093134)
(1.10356 0.0739286 -0.00592119)
(0.57621 0.138692 0.000889716)
(1.10149 0.0754763 -0.0122322)
(1.10088 0.075884 -0.00486255)
(1.36328 -0.16782 0.0180151)
(0.319762 -0.0762312 -0.00126334)
(1.26376 -0.162602 -0.00345282)
(1.26453 -0.16223 -0.00365569)
(1.36213 -0.168478 -0.0243496)
(1.41115 -0.173355 -0.0247951)
(1.54711 -0.144291 0.0327583)
(1.41194 -0.172775 0.0213649)
(1.54629 -0.144594 -0.0340462)
(1.36375 -0.167622 -0.0226211)
(0.321861 -0.0766744 3.96134e-05)
(1.266 -0.161791 -0.00289594)
(1.3645 -0.166878 0.0185543)
(1.26537 -0.162134 -0.00177623)
(1.41054 -0.173594 0.0209287)
(1.54399 -0.145029 -0.0347241)
(1.5454 -0.144987 0.0328078)
(1.40924 -0.174016 -0.0263301)
(1.17632 -0.0631432 -0.00211118)
(0.605145 -0.14917 -0.00552742)
(1.10708 -0.0844831 -0.00602766)
(1.19584 -0.112813 -0.00608676)
(1.10745 -0.0846361 -0.00400629)
(1.19649 -0.112573 -0.00277273)
(1.17591 -0.063236 -0.00829168)
(1.17502 -0.0630611 -0.00517153)
(0.607795 -0.149815 0.00130819)
(1.1066 -0.0846373 -0.00650036)
(1.19745 -0.112752 -0.00252505)
(1.17589 -0.0630479 -0.00386483)
(1.10574 -0.0842894 -0.00240501)
(1.19662 -0.112798 -0.00408517)
(0.30229 0.0750121 -0.00381422)
(0.295598 0.0734585 -0.00256076)
(1.10118 0.0751071 -0.0119521)
(0.572002 0.139123 -0.00498532)
(1.10084 0.0752286 -0.010713)
(0.562894 0.136377 -0.0100381)
(1.10187 0.0743598 -0.0139768)
(1.35927 -0.169026 -0.0272081)
(1.2623 -0.1626 -0.00591692)
(0.323886 -0.077633 -0.00319348)
(1.36134 -0.168683 0.0166385)
(1.26104 -0.162915 -0.00608946)
(1.40437 -0.17449 0.0171515)
(1.53767 -0.145731 0.0320274)
(1.40584 -0.174267 -0.028888)
(1.5428 -0.145598 0.0327476)
(1.53961 -0.14497 -0.0356671)
(1.40832 -0.174282 0.0198509)
(1.35809 -0.169159 0.013506)
(0.318578 -0.0764661 -0.00338039)
(1.25985 -0.162455 -0.00948183)
(1.17389 -0.0630693 -0.0103453)
(1.10538 -0.0836334 -0.0088161)
(1.1945 -0.112771 -0.00557644)
(0.610155 -0.152186 -0.0042693)
(1.17452 -0.0630346 -0.00616542)
(1.1049 -0.083237 -0.00846169)
(1.19347 -0.112956 -0.00876874)
(1.17432 -0.0628048 -0.00867179)
(0.603118 -0.150194 -0.00955244)
(1.10551 -0.0827427 -0.0117447)
(1.193 -0.112462 -0.00883847)
(1.12224 0.216493 -0.109592)
(1.13194 0.191603 -0.100416)
(0.276281 0.0672085 -0.0283921)
(1.10234 0.186909 -0.106099)
(1.16215 0.228091 -0.111491)
(0.578628 0.0187316 -0.133904)
(1.01967 0.183301 -0.142581)
(1.07997 0.191794 -0.132223)
(0.987954 0.0803904 -0.140136)
(0.233844 0.0478178 -0.115041)
(0.75409 0.355934 -0.266337)
(1.04263 0.0214775 -0.0513821)
(0.38494 0.120924 -0.0415261)
(1.18486 0.22357 -0.0127214)
(0.30245 0.0719159 -0.00335321)
(1.15661 0.178948 -0.0114875)
(1.15365 0.177811 -0.0156445)
(1.18955 0.225105 -0.0152534)
(1.06677 0.191052 -0.00540105)
(1.07097 0.19167 -0.0556156)
(1.18548 0.225341 -0.021318)
(0.308162 0.0732171 -0.00703359)
(1.15441 0.182068 -0.0322872)
(1.19111 0.226962 -0.029417)
(1.15143 0.182037 -0.018032)
(1.04363 0.188126 -0.0371281)
(1.06031 0.191054 0.00485562)
(1.17969 0.230059 -0.00871978)
(0.298746 0.0731946 -0.00108092)
(1.14895 0.182557 -0.00603308)
(1.14646 0.181971 -0.0122115)
(1.18393 0.231245 -0.0104323)
(1.05023 0.195432 0.0145995)
(1.05685 0.195255 -0.0330422)
(1.18147 0.228685 -0.00643811)
(0.304385 0.0738726 -0.000782971)
(1.1514 0.182376 -0.0108958)
(1.18619 0.229773 -0.00653434)
(1.14859 0.181884 -0.0031178)
(1.04148 0.196497 -0.0319177)
(1.05682 0.199477 0.00866915)
(1.13862 0.127794 -0.114734)
(1.16106 0.151871 -0.0973498)
(0.867046 0.0992203 -0.0560572)
(0.541306 0.12822 -0.0496696)
(1.14234 0.152538 -0.112921)
(0.869834 0.108467 -0.083322)
(1.14709 0.122875 -0.0969449)
(1.10533 0.0261463 -0.057282)
(0.477087 0.0933081 -0.166727)
(0.951192 0.291284 -0.221517)
(0.889507 0.208533 -0.10395)
(1.11129 0.000358718 -0.0381491)
(0.820183 0.0665537 -0.119531)
(1.0668 0.150611 -0.185012)
(1.17853 -0.228924 -0.0199056)
(1.15502 -0.1894 -0.000153785)
(0.315662 -0.0741369 -0.00334145)
(1.14948 -0.187863 -0.0150238)
(1.18349 -0.231322 -0.00950236)
(0.88557 -0.119359 0.0888158)
(0.563836 -0.151403 0.0336285)
(1.03814 -0.191276 -0.0584025)
(1.0522 -0.188867 -0.0089536)
(1.13851 -0.157619 -0.0264361)
(0.270329 -0.0554583 -0.0346536)
(1.01279 -0.216561 0.0101935)
(1.1644 -0.124981 -0.0255528)
(1.07171 -0.235263 -0.00960858)
(1.1682 -0.114873 -0.0136449)
(0.908163 -0.125108 0.00655918)
(1.18256 -0.147177 0.00823067)
(0.605119 -0.147923 -0.0102981)
(0.904117 -0.124049 -0.0116775)
(1.17941 -0.146907 -0.014986)
(1.16854 -0.117373 0.00991454)
(1.31582 -0.140968 -0.0351929)
(0.547908 -0.118026 -0.0528136)
(0.969578 -0.0487763 -0.0183705)
(0.994575 -0.198252 0.0104769)
(0.989931 -0.139893 -0.0202762)
(1.26913 -0.102224 -0.0198723)
(1.03841 -0.122768 -0.0219476)
(1.18777 0.225845 -0.0554021)
(1.159 0.187666 -0.0833267)
(0.305428 0.0720939 -0.0214084)
(1.20666 0.237823 -0.0880376)
(1.14765 0.183554 -0.050979)
(1.03664 0.183568 -0.0512042)
(1.06078 0.187747 -0.0239215)
(1.10204 0.196493 -0.0630944)
(1.12162 0.206311 -0.122222)
(1.18027 0.21893 -0.0290758)
(0.296336 0.0698727 -0.00813031)
(1.15518 0.177196 -0.0298276)
(1.18694 0.221669 -0.0343056)
(1.15018 0.174968 -0.030624)
(1.15836 0.113787 -0.0502063)
(1.18001 0.135727 -0.0846568)
(0.868112 0.0921681 -0.058445)
(0.577814 0.136761 -0.0354993)
(1.15984 0.102175 -0.0776663)
(1.1732 0.140011 -0.0462612)
(0.874912 0.103221 -0.0525881)
(1.17154 0.0981125 -0.0327928)
(0.566614 0.131354 -0.0189483)
(1.18423 0.129886 -0.0268486)
(0.892422 0.0981221 -0.0304064)
(1.18128 0.127812 -0.0353763)
(0.891223 0.0970366 -0.0267217)
(1.1732 0.0997184 -0.0325645)
(1.1814 -0.225443 -0.00554611)
(1.15217 -0.181692 -0.00453879)
(0.315769 -0.0744908 0.000778954)
(1.18052 -0.223732 -0.00379883)
(1.15394 -0.183593 -6.44478e-05)
(1.03965 -0.184694 -0.0332776)
(1.05361 -0.186486 0.0234747)
(1.03533 -0.184398 0.00616617)
(1.03771 -0.184901 -0.0433559)
(1.1888 -0.225108 -0.00229627)
(0.32147 -0.0756086 -0.00154867)
(1.16489 -0.184612 0.000448569)
(1.16226 -0.183597 -0.00468016)
(1.19376 -0.226614 -0.00312226)
(1.16786 -0.114955 0.00482919)
(0.908261 -0.124253 -0.00252728)
(1.18007 -0.141138 -0.00900501)
(0.601559 -0.145438 0.00240962)
(1.16761 -0.114437 -0.00712452)
(0.906228 -0.123271 -0.00463343)
(1.1811 -0.143082 0.00648961)
(1.17988 -0.114478 -0.00841143)
(0.612851 -0.149359 -0.00536784)
(0.917255 -0.124058 -0.00553105)
(1.19254 -0.143099 0.00504125)
(0.919101 -0.125314 -0.00344296)
(1.19158 -0.142582 -0.00977622)
(1.17934 -0.11459 0.00153584)
(1.17185 0.0997411 -0.019056)
(0.576076 0.135492 -0.010603)
(1.1836 0.130377 -0.00749674)
(0.898283 0.100981 -0.0145623)
(1.18198 0.129469 -0.0211509)
(0.897938 0.100514 -0.0132187)
(1.17271 0.100508 -0.0120038)
(1.16415 0.112294 -0.0161022)
(0.584514 0.139212 -0.0105042)
(1.17917 0.137234 -0.0395312)
(0.889269 0.102881 -0.033468)
(1.17715 0.138868 -0.0134656)
(1.1648 0.109443 -0.0408619)
(0.890362 0.10558 -0.0202441)
(1.18938 -0.225355 -0.00202534)
(0.321062 -0.0758086 -0.00115803)
(1.16412 -0.184878 0.000394331)
(1.16192 -0.184266 -0.00489233)
(1.19376 -0.226317 -0.00280107)
(1.04299 -0.185165 0.0251699)
(1.05116 -0.185694 -0.0308262)
(1.18841 -0.22582 -0.00018113)
(0.319364 -0.075362 0.000998103)
(1.16325 -0.184763 -0.00473291)
(1.19311 -0.226625 -0.000774824)
(1.16007 -0.184469 0.00271025)
(1.04219 -0.184929 -0.0306169)
(1.05451 -0.186445 0.0255135)
(1.17782 -0.11399 -0.00899122)
(0.610035 -0.148627 -0.00504855)
(0.913125 -0.122086 -0.00371462)
(1.19157 -0.143025 0.00512092)
(0.91444 -0.122787 -0.00351122)
(1.19063 -0.142753 -0.0102372)
(1.17766 -0.113933 0.00229127)
(1.17209 -0.114696 0.00554606)
(0.606243 -0.146913 0.00293363)
(0.910308 -0.122714 -0.0101977)
(1.18946 -0.143607 -0.0113649)
(1.17419 -0.114768 -0.0127813)
(0.907967 -0.121779 -0.00203842)
(1.18697 -0.143423 0.00743285)
(1.18412 0.226717 -0.00968635)
(1.15421 0.181694 -0.0162967)
(0.307083 0.0735435 -0.00198077)
(1.18904 0.227746 -0.0121519)
(1.15132 0.181468 -0.00654896)
(1.04465 0.192314 -0.0324442)
(1.05951 0.195095 0.0127847)
(1.05585 0.192202 0.0116665)
(1.06172 0.19231 -0.0392493)
(1.18327 0.22708 -0.00774223)
(0.302133 0.0727731 -0.00129075)
(1.15345 0.180988 -0.00536279)
(1.18755 0.228342 -0.00928429)
(1.15102 0.180229 -0.0111321)
(1.16566 0.107597 -0.00461399)
(1.17909 0.134972 -0.0235426)
(0.895517 0.103772 -0.0184334)
(0.582594 0.139217 -0.00235048)
(1.16654 0.106469 -0.0242659)
(1.17714 0.135379 -0.00185615)
(0.895603 0.104852 -0.00980433)
(1.16766 0.101919 -0.0149042)
(0.574853 0.13686 -0.00735861)
(1.1789 0.131431 -0.000522943)
(0.898259 0.102097 -0.00788001)
(1.17761 0.131086 -0.0167819)
(0.898252 0.102136 -0.0090899)
(1.16834 0.102144 -0.00392339)
(1.18768 -0.225495 -0.000581828)
(1.16255 -0.18547 -0.00466968)
(0.320417 -0.0758669 0.000721408)
(1.19259 -0.226749 -0.000797264)
(1.15935 -0.184863 0.00199425)
(1.04061 -0.184705 -0.0308971)
(1.05338 -0.186267 0.0224233)
(1.04372 -0.185338 0.0257762)
(1.05247 -0.186068 -0.0300739)
(1.18724 -0.225419 -0.00359932)
(0.320233 -0.0760199 -0.00115893)
(1.16155 -0.185804 -0.000844703)
(1.15929 -0.185313 -0.00626485)
(1.19152 -0.226212 -0.00416358)
(1.17234 -0.114232 0.00475912)
(0.908558 -0.121495 -0.00798991)
(1.18921 -0.143788 -0.0109152)
(0.607038 -0.147951 0.00223133)
(1.17398 -0.114311 -0.0115192)
(0.906951 -0.121142 -0.00169808)
(1.18697 -0.143404 0.00663659)
(1.17398 -0.114286 -0.0102199)
(0.607229 -0.1488 -0.00528739)
(0.907641 -0.121845 -0.00254139)
(1.18905 -0.143905 0.00428627)
(0.908471 -0.122206 -0.00445062)
(1.18786 -0.143687 -0.0114011)
(1.17423 -0.114201 0.00240778)
(1.16271 0.102791 -0.0157948)
(0.568603 0.13684 -0.00737479)
(1.17335 0.131511 -0.000548506)
(0.896792 0.101946 -0.00768888)
(1.17189 0.131466 -0.017749)
(0.896682 0.10216 -0.00991083)
(1.16366 0.102705 -0.00332207)
(1.16409 0.105158 -0.000987566)
(0.577445 0.13886 -0.000470636)
(1.17591 0.133538 -0.0175137)
(0.896699 0.103265 -0.0118243)
(1.17418 0.133336 0.00181564)
(1.16476 0.104778 -0.0170269)
(0.896577 0.103692 -0.00649552)
(1.18438 -0.224618 -0.00736035)
(0.319286 -0.0763168 -0.00185232)
(1.15891 -0.186342 -0.00465446)
(1.15624 -0.185812 -0.00959454)
(1.18888 -0.225422 -0.008279)
(1.04219 -0.184978 0.0215727)
(1.05023 -0.185719 -0.0307481)
(1.18557 -0.225045 -0.00262131)
(0.321129 -0.0764522 6.2937e-05)
(1.16031 -0.18619 -0.00563119)
(1.19038 -0.226483 -0.00220711)
(1.1574 -0.185489 4.20144e-05)
(1.03682 -0.183751 -0.0327426)
(1.05119 -0.185509 0.0133086)
(1.17024 -0.114753 -0.0131907)
(0.604776 -0.149649 -0.00674366)
(0.90279 -0.122673 -0.00455148)
(1.18667 -0.144768 0.000866385)
(0.903012 -0.122736 -0.00736875)
(1.18497 -0.144502 -0.0143642)
(1.1711 -0.11468 -0.000279663)
(1.17105 -0.114351 0.00333862)
(0.607371 -0.149455 0.000971877)
(0.905238 -0.121677 -0.00680573)
(1.18748 -0.144353 -0.0113146)
(1.17207 -0.114435 -0.0110985)
(0.90426 -0.121702 -0.00226731)
(1.18575 -0.143961 0.00491826)
(1.17799 0.230819 -0.0100165)
(1.14702 0.183076 -0.0124362)
(0.301864 0.0746116 -0.00267587)
(1.18231 0.232006 -0.00819545)
(1.14473 0.182381 -0.00616436)
(1.04544 0.199468 0.0060058)
(1.05103 0.198958 -0.0326848)
(1.16125 0.103455 -0.00347646)
(1.17101 0.132145 -0.0184618)
(0.895948 0.102248 -0.012007)
(0.572244 0.138943 -0.00344623)
(1.16125 0.103529 -0.0170357)
(1.1699 0.131575 -0.000792877)
(0.896139 0.102424 -0.00886103)
(1.18315 -0.22367 -0.00816836)
(1.15747 -0.186236 -0.00953238)
(0.322592 -0.0772938 -0.00209827)
(1.18745 -0.225237 -0.00671593)
(1.15528 -0.185487 -0.00515333)
(1.03976 -0.184001 0.00970548)
(1.04581 -0.184539 -0.0332567)
(1.16933 -0.1144 -0.00104657)
(0.901447 -0.122522 -0.00924969)
(1.18517 -0.14471 -0.0146074)
(0.608905 -0.151581 -0.00270624)
(1.16949 -0.114561 -0.0138307)
(0.901271 -0.122789 -0.00601788)
(1.18425 -0.144286 8.95411e-05)
(1.11271 0.2216 -0.111274)
(1.19626 0.234671 -0.120459)
(1.12265 0.216418 -0.115237)
(1.15213 0.23597 -0.121901)
(1.11075 0.164953 -0.0885246)
(0.273585 0.0636595 -0.0377911)
(1.13857 0.140324 -0.0329886)
(1.17067 0.216167 -0.0698439)
(1.08459 0.110862 -0.0767555)
(1.098 0.200984 -0.0980231)
(1.22585 0.280676 -0.191579)
(1.13939 0.21078 -0.115487)
(1.16055 0.259328 -0.110739)
(0.859842 0.0704703 -0.179911)
(1.11602 0.190846 -0.275046)
(0.65822 0.0251824 -0.149062)
(0.832632 0.0771627 -0.210681)
(0.921652 0.0647285 -0.196137)
(1.1864 0.259564 -0.239469)
(1.17907 0.204649 -0.266587)
(0.936791 0.0993418 -0.228767)
(1.08186 0.187766 -0.139181)
(1.15647 0.214388 -0.121111)
(1.0829 0.200084 -0.123358)
(1.14523 0.197778 -0.127322)
(1.04881 0.178561 -0.153209)
(1.14877 0.219535 -0.245452)
(1.10891 0.18165 -0.144504)
(1.19542 0.25913 -0.211552)
(1.10222 0.196031 -0.126141)
(1.21011 0.230819 -0.245903)
(1.0811 0.3127 -0.23625)
(0.258335 0.0778076 -0.0803932)
(1.12598 0.32973 -0.0508015)
(1.14401 0.328317 -0.0987989)
(1.08662 0.37061 -0.231328)
(0.869948 0.0960769 -0.200079)
(0.905782 0.093525 -0.224439)
(1.06727 0.229616 -0.243595)
(1.22144 0.291266 -0.222513)
(1.1515 0.296804 -0.167719)
(1.00662 0.135441 -0.234782)
(1.18505 0.222367 -0.00995684)
(0.307293 0.0730809 -0.00194098)
(1.15507 0.177578 -0.00832024)
(1.18835 0.223434 -0.00574762)
(1.15427 0.176561 -0.00618883)
(1.17215 0.239173 -0.0104139)
(1.18998 0.228633 -0.00585408)
(1.17532 0.225123 -0.0222714)
(1.17788 0.241188 -0.0183083)
(1.17151 0.238377 -0.0128576)
(1.1861 0.226799 -0.0174087)
(1.17755 0.239582 -0.00390653)
(1.17939 0.225717 -0.00115691)
(1.13436 0.197589 -0.00706678)
(1.15432 0.211843 -0.0442674)
(1.14932 0.209913 -0.0112497)
(1.13953 0.198415 -0.05296)
(1.05886 0.190554 -0.0437991)
(1.07369 0.192763 0.0100541)
(1.12665 0.197084 -0.0408747)
(1.15746 0.21203 0.00261933)
(1.14256 0.209998 -0.0324954)
(1.14224 0.199665 0.00785795)
(1.18538 0.227137 -0.0189316)
(0.300455 0.0713449 -0.00568078)
(1.1555 0.184051 -0.00542671)
(1.19164 0.228408 -0.0103882)
(1.15047 0.183607 -0.0213712)
(1.1754 0.239542 -0.0247826)
(1.19667 0.23032 -0.0403391)
(1.1911 0.228199 -0.0137089)
(1.18373 0.242395 -0.0268096)
(1.17656 0.241238 -0.0161206)
(1.19942 0.230608 -0.000346781)
(1.18262 0.243091 -0.0146492)
(1.18516 0.228381 -0.0284189)
(1.11161 0.19448 -0.0342885)
(1.14726 0.209926 -0.00236159)
(1.13154 0.206772 -0.0263385)
(1.12877 0.197708 0.00257606)
(1.04931 0.189117 0.00942471)
(1.05578 0.188912 -0.0335873)
(1.117 0.195573 0.00727317)
(1.14284 0.208199 -0.0222181)
(1.13628 0.207449 0.00203259)
(1.12437 0.195383 -0.0304927)
(1.17999 0.229287 -0.00637576)
(0.302863 0.0741048 -0.000824666)
(1.14939 0.1823 -0.00861029)
(1.18426 0.230508 -0.00459039)
(1.14715 0.181468 -0.00268547)
(1.16691 0.247924 -0.0061775)
(1.18334 0.234605 -0.000471136)
(1.17028 0.231528 -0.0183316)
(1.17209 0.249807 -0.0137274)
(1.16674 0.247121 -0.00935236)
(1.18157 0.232802 -0.0160069)
(1.17317 0.248479 -0.00186439)
(1.17412 0.231877 0.00321776)
(1.11753 0.201732 0.0123657)
(1.1422 0.212774 -0.0223548)
(1.13491 0.212072 0.00728082)
(1.12508 0.201745 -0.0299972)
(1.04571 0.195033 -0.032057)
(1.06014 0.197702 0.0143639)
(1.11325 0.201277 -0.0292385)
(1.14464 0.214509 0.00709742)
(1.13124 0.211886 -0.0220841)
(1.12815 0.20415 0.0121069)
(1.18144 0.229564 -0.00778868)
(0.300559 0.0730235 -0.00118819)
(1.15072 0.182928 -0.00308553)