/*--------------------------------*- C++ -*----------------------------------*\
| =========                 |                                                 |
| \\      /  F ield         | OpenFOAM: The Open Source CFD Toolbox           |
|  \\    /   O peration     | Version:  2012                                  |
|   \\  /    A nd           | Website:  www.openfoam.com                      |
|    \\/     M anipulation  |                                                 |
\*---------------------------------------------------------------------------*/
FoamFile
{
    version     2.0;
    format      ascii;
    class       surfaceVectorField;
    location    "0.104/fluid";
    object      Uf;
}
// * * * * * * * * * * * * * * * * * * * * * * * * * * * * * * * * * * * * * //

dimensions      [0 1 -1 0 0 0 0];


internalField   nonuniform List<vector> 
46515
(
(0.880454 -0.117535 -0.0221797)
(1.23105 -0.0507529 -0.00576474)
(1.25765 -0.0391533 -0.0063466)
(1.25434 -0.0397301 -0.00278113)
(0.897198 -0.100683 -0.0382688)
(1.54101 -0.0504275 -0.0144687)
(1.517 -0.0636105 -0.0197793)
(1.20297 -0.00672527 0.0118895)
(1.20981 -0.0153313 0.0049872)
(1.21243 -0.0254057 0.00335397)
(1.21052 -0.0112737 0.00600833)
(1.20324 -0.0108564 0.00604352)
(1.19739 -0.013886 0.00234762)
(1.2037 -0.0127684 0.00235969)
(1.20421 -0.0136468 -0.000307354)
(1.20169 -0.0117562 0.00158236)
(1.19981 -0.0114205 0.00146746)
(1.19777 -0.00831227 0.000316796)
(1.19885 -0.00825711 0.000333122)
(1.19852 -0.0075518 0.000112672)
(1.19855 -0.00753079 0.000112558)
(1.20031 -0.0082185 -0.000428819)
(1.19788 -0.00558408 -0.000196711)
(1.19818 -0.00569828 -0.000191025)
(1.19819 -0.00515867 -0.000213109)
(1.19845 -0.00523041 -0.00021258)
(1.19956 -0.00545032 -0.000369528)
(1.19819 -0.00368799 -0.000185561)
(1.19835 -0.00379065 -0.000191044)
(1.19842 -0.00341151 -0.000174321)
(1.19857 -0.00348186 -0.000178931)
(1.19943 -0.00358652 -0.000276894)
(1.19852 -0.00239252 -0.000119956)
(1.19861 -0.00247227 -0.000125291)
(1.19867 -0.0022169 -0.000111695)
(1.19876 -0.00227275 -0.0001157)
(1.19945 -0.00233388 -0.000184562)
(1.19878 -0.00153526 -7.73917e-05)
(1.19884 -0.00159291 -8.08326e-05)
(1.19889 -0.0014255 -7.30883e-05)
(1.19893 -0.00146596 -7.5978e-05)
(1.19953 -0.00150368 -0.000122662)
(1.199 -0.000980383 -5.42513e-05)
(1.19902 -0.00102022 -5.62654e-05)
(1.19906 -0.000911281 -5.22666e-05)
(1.19908 -0.000939264 -5.41816e-05)
(1.19962 -0.00096345 -8.49519e-05)
(1.19917 -0.000621231 -4.13097e-05)
(1.19918 -0.000648223 -4.28515e-05)
(1.19921 -0.000578415 -4.04302e-05)
(1.19922 -0.000597766 -4.16806e-05)
(1.1997 -0.000612138 -6.16673e-05)
(1.1993 -0.000392017 -3.08527e-05)
(1.19931 -0.000409766 -3.23691e-05)
(1.19933 -0.00036478 -3.04061e-05)
(1.19934 -0.000377287 -3.15425e-05)
(1.19976 -0.000387018 -4.37248e-05)
(1.19941 -0.000246949 -2.69441e-05)
(1.19941 -0.000258211 -2.7456e-05)
(1.19943 -0.000229802 -2.72386e-05)
(1.19943 -0.000238111 -2.77284e-05)
(1.1998 -0.000244554 -3.47184e-05)
(1.19951 -0.000153789 -2.59516e-05)
(1.19951 -0.000161656 -2.66497e-05)
(1.19953 -0.00014347 -2.61316e-05)
(1.19952 -0.000149689 -2.68151e-05)
(1.19984 -0.000153512 -2.94445e-05)
(1.1996 -9.44432e-05 -2.46179e-05)
(1.19959 -9.91961e-05 -2.50526e-05)
(1.19961 -8.71845e-05 -2.52892e-05)
(1.19961 -9.12422e-05 -2.55756e-05)
(1.19987 -9.45422e-05 -2.36479e-05)
(1.19968 -5.07878e-05 -2.60728e-05)
(1.19967 -5.55677e-05 -2.67187e-05)
(1.19969 -4.58756e-05 -2.6192e-05)
(1.19968 -4.98909e-05 -2.7299e-05)
(1.19988 -5.25447e-05 -2.30476e-05)
(1.225 -0.00522998 0.000118804)
(1.21778 -0.00904396 0.000205089)
(1.22033 -0.00678006 -0.000126285)
(1.21958 -0.00328239 8.09024e-05)
(1.20904 -0.00986976 0.0012485)
(1.21314 -0.0135851 0.000859615)
(1.2141 -0.0140637 0.000340808)
(1.21152 -0.0126784 0.000801432)
(1.21047 -0.00846562 0.000709417)
(1.20309 -0.00863618 0.000281452)
(1.20634 -0.00931296 0.000299133)
(1.20491 -0.00830484 0.00015169)
(1.20441 -0.00693907 0.000154633)
(1.20739 -0.0089954 -0.000163517)
(1.2009 -0.00600407 -0.000134182)
(1.20195 -0.00595506 -0.000115722)
(1.20135 -0.00536906 -0.000156025)
(1.20163 -0.00506463 -0.000141827)
(1.20324 -0.00566507 -0.000293971)
(1.2 -0.0040328 -0.000192522)
(1.20034 -0.00399706 -0.000186103)
(1.20015 -0.00362748 -0.00018054)
(1.20044 -0.00356096 -0.000175184)
(1.20156 -0.00378378 -0.000276584)
(1.19959 -0.00270932 -0.000147859)
(1.19979 -0.00269893 -0.000148352)
(1.19971 -0.00244083 -0.000135674)
(1.19988 -0.00240958 -0.000136255)
(1.20079 -0.00254976 -0.000210738)
(1.19941 -0.00179448 -9.95503e-05)
(1.19953 -0.00179473 -0.000101643)
(1.19949 -0.00161705 -9.25762e-05)
(1.19959 -0.00160183 -9.41559e-05)
(1.20036 -0.00169522 -0.000148144)
(1.19934 -0.00117239 -7.07824e-05)
(1.19941 -0.00117722 -7.24934e-05)
(1.19939 -0.00105761 -6.72378e-05)
(1.19945 -0.00105123 -6.85945e-05)
(1.20013 -0.00111212 -0.00010649)
(1.19934 -0.000759338 -5.24122e-05)
(1.19937 -0.000764316 -5.3993e-05)
(1.19937 -0.000684832 -5.02368e-05)
(1.19941 -0.00068186 -5.15549e-05)
(1.20001 -0.000721812 -7.72734e-05)
(1.19936 -0.000485716 -4.05903e-05)
(1.19939 -0.000489749 -4.17029e-05)
(1.19939 -0.000437395 -3.92995e-05)
(1.19941 -0.000436011 -4.0465e-05)
(1.19995 -0.000462211 -5.7204e-05)
(1.19942 -0.00030897 -3.30775e-05)
(1.19942 -0.000312344 -3.39152e-05)
(1.19944 -0.00027876 -3.25955e-05)
(1.19944 -0.000278838 -3.32831e-05)
(1.19993 -0.000295299 -4.36155e-05)
(1.19948 -0.000195394 -3.03172e-05)
(1.19948 -0.000197594 -3.07227e-05)
(1.19949 -0.000176602 -3.06266e-05)
(1.19949 -0.000176568 -3.08411e-05)
(1.19992 -0.000187464 -3.64563e-05)
(1.19955 -0.000125329 -2.83361e-05)
(1.19955 -0.000126599 -2.88852e-05)
(1.19957 -0.000113506 -2.8324e-05)
(1.19956 -0.000113961 -2.86611e-05)
(1.19992 -0.000120338 -3.00141e-05)
(1.19962 -7.71062e-05 -2.79674e-05)
(1.19962 -7.75705e-05 -2.79788e-05)
(1.19963 -6.72939e-05 -2.86816e-05)
(1.19963 -6.9623e-05 -2.84663e-05)
(1.19992 -7.30294e-05 -2.51772e-05)
(1.1997 -4.31602e-05 -3.05754e-05)
(1.19969 -4.16241e-05 -3.07543e-05)
(1.19971 -3.51627e-05 -3.06187e-05)
(1.1997 -3.97833e-05 -3.13266e-05)
(1.19992 -3.94478e-05 -2.57433e-05)
(1.21379 -0.00059258 5.44787e-05)
(1.21252 -0.00246123 7.18177e-05)
(1.21252 -0.00055522 4.13634e-05)
(1.21341 -0.00192436 4.04811e-05)
(1.20973 -0.00359056 0.000192577)
(1.21068 -0.00436974 0.00016196)
(1.20973 -0.00444236 0.00014721)
(1.20976 -0.00262063 0.000134802)
(1.21127 -0.0045472 4.25341e-05)
(1.20555 -0.00383392 9.89667e-06)
(1.20669 -0.00384098 2.69538e-05)
(1.20575 -0.00354124 -1.40812e-05)
(1.206 -0.00272021 1.10261e-06)
(1.20747 -0.00371009 -0.000103596)
(1.20295 -0.00296085 -0.000105653)
(1.20347 -0.00271318 -9.07186e-05)
(1.20292 -0.00248569 -0.00010321)
(1.20327 -0.00217641 -9.19485e-05)
(1.20445 -0.00257654 -0.000187746)
(1.20142 -0.00207801 -0.000124618)
(1.2017 -0.0019097 -0.000117647)
(1.2014 -0.00174338 -0.000116829)
(1.20163 -0.00156373 -0.000112432)
(1.20268 -0.00180771 -0.000190565)
(1.20053 -0.00142249 -0.000105902)
(1.2007 -0.00131349 -0.00010469)
(1.20052 -0.00119212 -9.87849e-05)
(1.20067 -0.00107355 -9.86879e-05)
(1.20159 -0.00124085 -0.000159177)
(1.20001 -0.000954837 -8.02934e-05)
(1.20011 -0.000884773 -8.11169e-05)
(1.20001 -0.000799463 -7.59119e-05)
(1.2001 -0.000722203 -7.68965e-05)
(1.20092 -0.00083589 -0.000122176)
(1.19972 -0.000631963 -6.17014e-05)
(1.19978 -0.000586245 -6.27223e-05)
(1.19972 -0.000527557 -5.90527e-05)
(1.19978 -0.000478757 -5.9972e-05)
(1.20051 -0.000553376 -9.2422e-05)
(1.19957 -0.00041065 -4.99071e-05)
(1.1996 -0.000380562 -5.0899e-05)
(1.19958 -0.000340854 -4.86663e-05)
(1.19961 -0.000311717 -4.96604e-05)
(1.20026 -0.000359453 -7.18847e-05)
(1.19951 -0.000264088 -4.07841e-05)
(1.19953 -0.000241844 -4.20466e-05)
(1.19952 -0.000215491 -3.98912e-05)
(1.19954 -0.000200272 -4.12224e-05)
(1.20011 -0.000228707 -5.58309e-05)
(1.19951 -0.000170136 -3.36374e-05)
(1.19952 -0.000152634 -3.44097e-05)
(1.19952 -0.000135801 -3.33867e-05)
(1.19953 -0.000129792 -3.37178e-05)
(1.20004 -0.000143999 -4.26644e-05)
(1.19954 -0.0001085 -3.17381e-05)
(1.19954 -9.35009e-05 -3.20536e-05)
(1.19955 -8.29779e-05 -3.13702e-05)
(1.19955 -8.24838e-05 -3.17385e-05)
(1.19999 -8.76222e-05 -3.67487e-05)
(1.19959 -7.00719e-05 -2.84393e-05)
(1.19958 -5.48492e-05 -2.87477e-05)
(1.19959 -4.62771e-05 -2.84685e-05)
(1.19959 -5.22791e-05 -2.84203e-05)
(1.19997 -5.03502e-05 -2.90546e-05)
(1.19964 -4.19762e-05 -2.99049e-05)
(1.19963 -2.56361e-05 -2.97181e-05)
(1.19964 -2.01703e-05 -3.07349e-05)
(1.19964 -3.14266e-05 -3.03614e-05)
(1.19995 -2.34169e-05 -2.64483e-05)
(1.19971 -2.56707e-05 -3.30904e-05)
(1.1997 -9.06494e-06 -3.30541e-05)
(1.19972 -6.72742e-06 -3.28866e-05)
(1.19971 -2.23808e-05 -3.32449e-05)
(1.19994 -8.04234e-06 -2.74962e-05)
(1.30086 -0.0578992 0.00563903)
(1.25448 -0.0305063 -0.00197379)
(1.23323 -0.0410611 -0.00132895)
(1.25361 -0.0306425 -0.000199943)
(1.25636 -0.0281253 -0.000361726)
(1.27744 -0.0605128 0.0024286)
(1.29973 -0.0578268 -0.00490688)
(1.27649 -0.0604358 -0.00274451)
(1.20083 -0.0195476 -0.00325926)
(1.2097 -0.0401721 -0.00245723)
(1.21109 -0.0358539 -0.00105426)
(1.21084 -0.0348534 -0.000867009)
(1.21154 -0.0241354 -0.0027071)
(1.20349 -0.0217612 -0.00206353)
(1.20394 -0.0114016 -0.002216)
(1.20117 -0.00978185 -0.0032807)
(1.20644 -0.00880444 -0.00267959)
(1.20412 -0.0104839 -0.00175289)
(1.20493 -0.00844256 -0.00251915)
(1.20268 -0.008625 -0.00237077)
(1.20075 -0.00768887 -0.00172659)
(1.20084 -0.0073536 -0.00198317)
(1.20189 -0.00717185 -0.00190895)
(1.20124 -0.00674487 -0.00172853)
(1.20128 -0.00671141 -0.00169482)
(1.20095 -0.00740013 -0.0016674)
(1.19988 -0.00523722 -0.00115087)
(1.19979 -0.00526011 -0.00128604)
(1.20015 -0.00534342 -0.00128303)
(1.19998 -0.00488194 -0.00116453)
(1.20028 -0.00493832 -0.00116123)
(1.20001 -0.00511241 -0.00128952)
(1.19967 -0.00347657 -0.000773742)
(1.19952 -0.00354018 -0.000876163)
(1.19973 -0.00363282 -0.000882751)
(1.1997 -0.00327499 -0.000806951)
(1.1999 -0.00333856 -0.000812159)
(1.19976 -0.0034126 -0.000941749)
(1.19965 -0.00227147 -0.000537469)
(1.19954 -0.00230899 -0.000606135)
(1.19967 -0.00238309 -0.000615867)
(1.19967 -0.00213986 -0.000561735)
(1.19979 -0.00219145 -0.000570379)
(1.19971 -0.00223573 -0.000657968)
(1.19969 -0.00146854 -0.00036726)
(1.19962 -0.00148903 -0.000413478)
(1.1997 -0.00154354 -0.000423183)
(1.19972 -0.00138332 -0.000384384)
(1.19979 -0.00142167 -0.000392916)
(1.19974 -0.00144799 -0.000450936)
(1.19977 -0.000944812 -0.000249274)
(1.19972 -0.000956377 -0.000279362)
(1.19977 -0.00099443 -0.000287497)
(1.19979 -0.000889938 -0.000260703)
(1.19983 -0.00091701 -0.000268016)
(1.1998 -0.000933483 -0.000306642)
(1.19983 -0.000602656 -0.000168652)
(1.1998 -0.000609691 -0.000187094)
(1.19983 -0.000635534 -0.000193487)
(1.19985 -0.000567644 -0.000175292)
(1.19987 -0.000586043 -0.000180971)
(1.19985 -0.00059654 -0.000206942)
(1.19988 -0.000382684 -0.000113684)
(1.19987 -0.000387029 -0.000124927)
(1.19988 -0.000404064 -0.000129936)
(1.1999 -0.000360392 -0.000117366)
(1.19991 -0.000372677 -0.000121866)
(1.1999 -0.000379627 -0.000139854)
(1.19992 -0.000242108 -7.75927e-05)
(1.19991 -0.000244529 -8.3615e-05)
(1.19992 -0.000255496 -8.69709e-05)
(1.19993 -0.000227811 -7.86878e-05)
(1.19994 -0.000235828 -8.17299e-05)
(1.19993 -0.000240227 -9.46436e-05)
(1.19995 -0.000152091 -5.16989e-05)
(1.19994 -0.000153062 -5.39426e-05)
(1.19995 -0.000160593 -5.67372e-05)
(1.19996 -0.000142589 -5.01985e-05)
(1.19996 -0.000148255 -5.27842e-05)
(1.19996 -0.000150932 -6.2883e-05)
(1.19997 -9.31703e-05 -3.12576e-05)
(1.19997 -9.3271e-05 -3.08837e-05)
(1.19997 -9.85087e-05 -3.29725e-05)
(1.19998 -8.63972e-05 -2.81561e-05)
(1.19998 -9.05295e-05 -3.00079e-05)
(1.19998 -9.22938e-05 -3.85245e-05)
(1.19999 -5.19535e-05 -1.89866e-05)
(1.19998 -5.14866e-05 -1.66401e-05)
(1.19999 -5.54702e-05 -1.75865e-05)
(1.19999 -4.66634e-05 -1.49585e-05)
(1.19999 -5.0167e-05 -1.58143e-05)
(1.19999 -5.11274e-05 -2.3016e-05)
(1.226 -0.00440925 0.000167351)
(1.21997 -0.00692286 5.68087e-05)
(1.21862 -0.00925878 -5.23045e-05)
(1.21963 -0.00695472 0.000276688)
(1.22023 -0.00310502 0.000136377)
(1.21399 -0.0146347 -0.000620674)
(1.21037 -0.0103281 -0.000872846)
(1.21455 -0.0144688 -0.000747157)
(1.21384 -0.0145061 -0.000575432)
(1.21303 -0.0131578 -0.000889459)
(1.21179 -0.00875366 -0.000742572)
(1.20736 -0.00873415 -0.00101781)
(1.20516 -0.00794217 -0.00124148)
(1.20829 -0.00881252 -0.00111605)
(1.20693 -0.00776476 -0.00113505)
(1.20628 -0.00647112 -0.00104741)
(1.20734 -0.00854048 -0.00103132)
(1.2034 -0.0054397 -0.000975055)
(1.2029 -0.00558725 -0.00111095)
(1.2039 -0.00555997 -0.00106472)
(1.20322 -0.00503521 -0.00101598)
(1.20346 -0.00474221 -0.00098092)
(1.20345 -0.00530967 -0.0010867)
(1.20176 -0.00365167 -0.00075939)
(1.20159 -0.00383124 -0.000866147)
(1.20193 -0.00379314 -0.000853677)
(1.20167 -0.00345025 -0.00080013)
(1.20195 -0.00338402 -0.000792719)
(1.20181 -0.00357825 -0.00092124)
(1.20098 -0.00247101 -0.000575956)
(1.20086 -0.00259268 -0.00065025)
(1.20108 -0.00258001 -0.000650568)
(1.20093 -0.00233688 -0.000605375)
(1.20112 -0.00230486 -0.000607445)
(1.20103 -0.00242821 -0.000705441)
(1.20053 -0.00164928 -0.000424651)
(1.20045 -0.00172787 -0.000477321)
(1.20059 -0.00172666 -0.000482756)
(1.20051 -0.00155828 -0.000445883)
(1.20063 -0.00154241 -0.000451901)
(1.20057 -0.00162387 -0.000520512)
(1.20028 -0.00108692 -0.000303619)
(1.20023 -0.00113722 -0.000339684)
(1.20032 -0.00114048 -0.000346974)
(1.20028 -0.00102629 -0.000318201)
(1.20035 -0.00101875 -0.000325223)
(1.20032 -0.00107246 -0.000372926)
(1.20015 -0.000707614 -0.000213984)
(1.20012 -0.000739854 -0.000238051)
(1.20017 -0.000744181 -0.00024452)
(1.20015 -0.000667474 -0.000223527)
(1.2002 -0.00066428 -0.000229739)
(1.20018 -0.000699311 -0.000263372)
(1.20008 -0.000455236 -0.000150155)
(1.20006 -0.000475871 -0.000165206)
(1.2001 -0.000479748 -0.000170458)
(1.20008 -0.000429143 -0.000156007)
(1.20011 -0.000427914 -0.000160787)
(1.2001 -0.000450822 -0.000184137)
(1.20005 -0.00029111 -0.00010456)
(1.20003 -0.000304075 -0.000113818)
(1.20006 -0.000306914 -0.000118305)
(1.20005 -0.000274568 -0.000107306)
(1.20007 -0.000274058 -0.000111427)
(1.20006 -0.000288719 -0.000128555)
(1.20003 -0.000185772 -7.22282e-05)
(1.20002 -0.000193743 -7.65466e-05)
(1.20004 -0.000195968 -7.98359e-05)
(1.20004 -0.000175065 -7.20762e-05)
(1.20005 -0.000174965 -7.51884e-05)
(1.20004 -0.000184414 -8.79235e-05)
(1.20003 -0.000118671 -4.78647e-05)
(1.20002 -0.000123413 -4.91711e-05)
(1.20003 -0.000124966 -5.1693e-05)
(1.20003 -0.000111235 -4.55624e-05)
(1.20004 -0.0001117 -4.79618e-05)
(1.20003 -0.000117461 -5.84992e-05)
(1.20002 -7.16019e-05 -2.91081e-05)
(1.20002 -7.58836e-05 -2.77839e-05)
(1.20003 -7.59755e-05 -2.97702e-05)
(1.20003 -6.60642e-05 -2.53555e-05)
(1.20003 -6.85451e-05 -2.6982e-05)
(1.20003 -7.07996e-05 -3.62528e-05)
(1.20003 -3.92443e-05 -1.72811e-05)
(1.20002 -4.32057e-05 -1.35324e-05)
(1.20003 -4.1756e-05 -1.46992e-05)
(1.20003 -3.55669e-05 -1.21595e-05)
(1.20003 -4.04557e-05 -1.28753e-05)
(1.20003 -3.8587e-05 -2.06751e-05)
(1.21327 -0.00199135 9.98375e-05)
(1.21433 -0.000594915 0.000114343)
(1.21309 -0.00251623 3.38055e-05)
(1.21308 -0.000590097 0.000101253)
(1.21311 -0.00200414 0.000148859)
(1.2112 -0.00454168 -0.00035491)
(1.21068 -0.00354745 -0.00045635)
(1.21154 -0.00437844 -0.000371213)
(1.21071 -0.00441848 -0.00047146)
(1.21065 -0.00260845 -0.000402611)
(1.21109 -0.00448786 -0.000404926)
(1.20749 -0.00363014 -0.000602932)
(1.20691 -0.0036678 -0.000708075)
(1.20796 -0.00372597 -0.00065887)
(1.20708 -0.00341292 -0.000688273)
(1.20725 -0.00261575 -0.00064507)
(1.20746 -0.00356719 -0.000711928)
(1.20456 -0.00249257 -0.000633389)
(1.20439 -0.00281449 -0.00072894)
(1.20487 -0.00258551 -0.000706251)
(1.20431 -0.00236478 -0.000695369)
(1.20463 -0.00206845 -0.000680922)
(1.20458 -0.0024446 -0.000775968)
(1.20283 -0.00174781 -0.000563116)
(1.20275 -0.00197698 -0.00063745)
(1.20303 -0.00181635 -0.000632304)
(1.20269 -0.00165946 -0.000605146)
(1.20292 -0.00148772 -0.000605586)
(1.20286 -0.00171596 -0.00069222)
(1.20175 -0.001203 -0.000458906)
(1.2017 -0.00136001 -0.000513667)
(1.20188 -0.00125482 -0.000517249)
(1.20167 -0.00114051 -0.000487652)
(1.20182 -0.00102631 -0.000493847)
(1.20179 -0.00118319 -0.000563069)
(1.20107 -0.000813487 -0.000354699)
(1.20104 -0.000919008 -0.000395116)
(1.20116 -0.000850812 -0.000401931)
(1.20102 -0.000769926 -0.00037489)
(1.20112 -0.000694914 -0.00038301)
(1.2011 -0.000801385 -0.000435241)
(1.20065 -0.000540482 -0.000263687)
(1.20063 -0.000611511 -0.000292467)
(1.20071 -0.000566901 -0.000299983)
(1.20062 -0.000510797 -0.000277474)
(1.20069 -0.000463216 -0.000285455)
(1.20068 -0.000533473 -0.000324204)
(1.2004 -0.000352544 -0.000191579)
(1.20038 -0.000400762 -0.000210967)
(1.20043 -0.000370804 -0.000217655)
(1.20038 -0.000332588 -0.000200188)
(1.20043 -0.000303783 -0.000206922)
(1.20042 -0.000348502 -0.00023566)
(1.20024 -0.000225998 -0.000138396)
(1.20024 -0.000259937 -0.000150516)
(1.20027 -0.000238388 -0.000155547)
(1.20024 -0.000212835 -0.00014328)
(1.20027 -0.000197664 -0.000148315)
(1.20026 -0.000223798 -0.000169152)
(1.20016 -0.000142076 -9.79823e-05)
(1.20015 -0.000167588 -0.000105508)
(1.20017 -0.000150309 -0.000109818)
(1.20016 -0.000133211 -9.99661e-05)
(1.20017 -0.000127582 -0.000103986)
(1.20017 -0.000140553 -0.00011994)
(1.20011 -8.57149e-05 -6.87026e-05)
(1.2001 -0.000106439 -7.18875e-05)
(1.20012 -9.1065e-05 -7.5393e-05)
(1.2001 -7.99467e-05 -6.81298e-05)
(1.20012 -8.03264e-05 -7.09228e-05)
(1.20011 -8.47497e-05 -8.38518e-05)
(1.20007 -4.89218e-05 -4.55874e-05)
(1.20008 -6.83742e-05 -4.56975e-05)
(1.20008 -5.26023e-05 -4.88848e-05)
(1.20007 -4.49976e-05 -4.32171e-05)
(1.20008 -5.13357e-05 -4.52165e-05)
(1.20008 -4.84408e-05 -5.62116e-05)
(1.20006 -2.31917e-05 -2.77549e-05)
(1.20006 -4.2015e-05 -2.53377e-05)
(1.20006 -2.5653e-05 -2.78999e-05)
(1.20006 -2.02219e-05 -2.35569e-05)
(1.20007 -3.20571e-05 -2.48967e-05)
(1.20006 -2.27512e-05 -3.48455e-05)
(1.20005 -8.01325e-06 -1.64586e-05)
(1.20005 -2.53582e-05 -1.16639e-05)
(1.20005 -9.06997e-06 -1.31583e-05)
(1.20005 -6.5818e-06 -1.06158e-05)
(1.20006 -2.23312e-05 -1.15023e-05)
(1.20006 -7.85193e-06 -1.91411e-05)
(1.2964 -0.0583042 0.00518355)
(1.25195 -0.0292447 0.00104681)
(1.23124 -0.0385851 0.000375775)
(1.25112 -0.0282684 0.000863174)
(1.25367 -0.0273424 -0.000664771)
(1.27414 -0.0610092 0.0021147)
(1.29582 -0.058754 -0.00684061)
(1.2737 -0.0615115 -0.00525846)
(1.19942 -0.0224455 -0.00476941)
(1.20875 -0.0420882 -0.00319995)
(1.20954 -0.0349142 -0.00250372)
(1.20871 -0.0339796 -0.00287547)
(1.20988 -0.0261343 -0.00397051)
(1.20278 -0.0233425 -0.00421858)
(1.20387 -0.0092448 -0.00341693)
(1.20017 -0.00955178 -0.00491295)
(1.20516 -0.00845152 -0.00436984)
(1.20414 -0.00843092 -0.00356424)
(1.20405 -0.00782486 -0.00412911)
(1.20192 -0.0082202 -0.00409137)
(1.20135 -0.00665681 -0.00278334)
(1.20113 -0.00665143 -0.00327485)
(1.20198 -0.0064575 -0.00319738)
(1.20151 -0.00605715 -0.00289991)
(1.20154 -0.00605455 -0.00287394)
(1.20167 -0.00625567 -0.00287314)
(1.20046 -0.00467278 -0.00198036)
(1.20035 -0.00470991 -0.00216456)
(1.20067 -0.00477949 -0.00216659)
(1.20051 -0.00436588 -0.00197608)
(1.20079 -0.00441226 -0.00197526)
(1.20067 -0.00448362 -0.0021165)
(1.20012 -0.00315718 -0.00138319)
(1.20002 -0.00319292 -0.00149776)
(1.20022 -0.00326971 -0.00151185)
(1.20016 -0.00295834 -0.00138269)
(1.20035 -0.00301042 -0.00139444)
(1.20027 -0.00305396 -0.00149633)
(1.19996 -0.00209007 -0.00096384)
(1.1999 -0.00211105 -0.00103683)
(1.20003 -0.00217485 -0.00105458)
(1.2 -0.00195888 -0.000962328)
(1.20012 -0.002003 -0.000977758)
(1.20007 -0.00203104 -0.00104287)
(1.19992 -0.00136496 -0.00066436)
(1.19987 -0.00137643 -0.000711412)
(1.19996 -0.00142487 -0.000728395)
(1.19995 -0.00128047 -0.000662963)
(1.20003 -0.00131437 -0.000677954)
(1.19999 -0.00133153 -0.000719318)
(1.19992 -0.000887578 -0.000452719)
(1.1999 -0.000893916 -0.000483194)
(1.19995 -0.000928411 -0.000497413)
(1.19995 -0.000833255 -0.000451392)
(1.2 -0.000857837 -0.00046397)
(1.19998 -0.000868363 -0.000490983)
(1.19994 -0.000571537 -0.000305337)
(1.19993 -0.000575725 -0.00032461)
(1.19996 -0.000599693 -0.000336077)
(1.19996 -0.000536845 -0.000303836)
(1.19999 -0.000553782 -0.000314162)
(1.19998 -0.000561096 -0.000330988)
(1.19996 -0.000367177 -0.00020461)
(1.19995 -0.000370248 -0.000216299)
(1.19997 -0.000385826 -0.000224513)
(1.19997 -0.000345429 -0.000203739)
(1.19999 -0.000356723 -0.000210884)
(1.19999 -0.000361766 -0.000221148)
(1.19998 -0.000233351 -0.000138591)
(1.19997 -0.000235541 -0.000146271)
(1.19998 -0.000246074 -0.00015241)
(1.19999 -0.00021934 -0.000137755)
(1.2 -0.000227009 -0.000143416)
(1.19999 -0.000230499 -0.000150053)
(1.19999 -0.000147109 -9.10389e-05)
(1.19999 -0.000148299 -9.58227e-05)
(1.19999 -0.000155264 -0.000100321)
(1.2 -0.000138189 -9.00403e-05)
(1.2 -0.000143443 -9.41299e-05)
(1.2 -0.000145417 -9.83912e-05)
(1.2 -9.02208e-05 -5.70852e-05)
(1.2 -9.06604e-05 -6.00336e-05)
(1.2 -9.58464e-05 -6.34402e-05)
(1.2 -8.40475e-05 -5.60658e-05)
(1.20001 -8.82001e-05 -5.91178e-05)
(1.20001 -8.93052e-05 -6.1979e-05)
(1.20001 -4.88935e-05 -3.39127e-05)
(1.20001 -4.91991e-05 -3.52008e-05)
(1.20001 -5.28857e-05 -3.75208e-05)
(1.20001 -4.43296e-05 -3.22018e-05)
(1.20002 -4.7689e-05 -3.43592e-05)
(1.20001 -4.80518e-05 -3.64063e-05)
(1.22422 -0.00454436 -0.000335785)
(1.21854 -0.00670208 0.000460458)
(1.21731 -0.008909 0.000198097)
(1.21803 -0.00638225 0.000534064)
(1.21882 -0.00320162 -2.44348e-05)
(1.2131 -0.0139281 -0.00113971)
(1.20962 -0.0101102 -0.00218922)
(1.21356 -0.0140197 -0.00114617)
(1.21276 -0.01334 -0.00122387)
(1.21215 -0.0127319 -0.00147741)
(1.21102 -0.00851296 -0.0016)
(1.20713 -0.00790263 -0.00183627)
(1.20486 -0.00736247 -0.00237258)
(1.20781 -0.0082069 -0.00197164)
(1.20661 -0.00713233 -0.00200063)
(1.20601 -0.00596761 -0.00196932)
(1.2071 -0.00749983 -0.00195322)
(1.20362 -0.00483603 -0.00173375)
(1.2031 -0.00499451 -0.00195363)
(1.204 -0.00497575 -0.00185931)
(1.20341 -0.00448703 -0.00177316)
(1.20362 -0.00422667 -0.00173243)
(1.20371 -0.00461497 -0.00186805)
(1.20207 -0.00327733 -0.0013763)
(1.20194 -0.00341004 -0.00150629)
(1.20226 -0.0033729 -0.001488)
(1.202 -0.00307569 -0.00139376)
(1.20226 -0.00301268 -0.00138291)
(1.20217 -0.00315404 -0.00149498)
(1.20126 -0.00224795 -0.00104081)
(1.20118 -0.00233842 -0.00112676)
(1.20139 -0.00232316 -0.00112932)
(1.20123 -0.00211139 -0.00104888)
(1.20141 -0.00207962 -0.00105375)
(1.20135 -0.002175 -0.00112828)
(1.20076 -0.00151776 -0.000765304)
(1.20071 -0.00157865 -0.000822456)
(1.20085 -0.00157508 -0.000832654)
(1.20075 -0.00142597 -0.000768929)
(1.20087 -0.00140957 -0.000779556)
(1.20084 -0.00147488 -0.000829067)
(1.20046 -0.00101212 -0.000550926)
(1.20043 -0.00105242 -0.000589235)
(1.20052 -0.00105385 -0.000601381)
(1.20046 -0.000951349 -0.000552534)
(1.20054 -0.00094313 -0.000564472)
(1.20052 -0.000987369 -0.00059738)
(1.20029 -0.000664909 -0.000388951)
(1.20027 -0.000692162 -0.00041359)
(1.20032 -0.000695092 -0.000425055)
(1.20029 -0.000624767 -0.000388808)
(1.20034 -0.000620963 -0.000399529)
(1.20033 -0.000650857 -0.000420901)
(1.20018 -0.000432564 -0.000269804)
(1.20017 -0.000450259 -0.000286026)
(1.2002 -0.000453119 -0.000295668)
(1.20018 -0.000406867 -0.000269119)
(1.20022 -0.000404995 -0.000278167)
(1.20021 -0.00042471 -0.000292169)
(1.20011 -0.000279114 -0.000186571)
(1.20011 -0.000290975 -0.000196551)
(1.20013 -0.000293255 -0.000203577)
(1.20012 -0.000262712 -0.000186084)
(1.20014 -0.000261751 -0.000192485)
(1.20014 -0.000275051 -0.000201154)
(1.20008 -0.000179239 -0.000128521)
(1.20007 -0.000186583 -0.000135526)
(1.20009 -0.000188591 -0.00014107)
(1.20008 -0.000168863 -0.000128039)
(1.20009 -0.000168695 -0.000133318)
(1.20009 -0.000177032 -0.000139232)
(1.20006 -0.000113927 -8.52877e-05)
(1.20006 -0.000118964 -8.96054e-05)
(1.20007 -0.000120323 -9.39088e-05)
(1.20006 -0.000106917 -8.44812e-05)
(1.20007 -0.000107646 -8.83753e-05)
(1.20007 -0.000112698 -9.2314e-05)
(1.20005 -6.88666e-05 -5.42603e-05)
(1.20005 -7.3858e-05 -5.67115e-05)
(1.20005 -7.33672e-05 -6.00463e-05)
(1.20005 -6.39354e-05 -5.31283e-05)
(1.20006 -6.6682e-05 -5.59944e-05)
(1.20006 -6.81496e-05 -5.8856e-05)
(1.20004 -3.656e-05 -3.14282e-05)
(1.20004 -4.08925e-05 -3.23069e-05)
(1.20005 -3.95201e-05 -3.50352e-05)
(1.20005 -3.30774e-05 -2.95436e-05)
(1.20005 -3.85665e-05 -3.15947e-05)
(1.20005 -3.58477e-05 -3.42667e-05)
(1.21251 -0.00194762 0.000184395)
(1.21344 -0.000667091 2.89257e-06)
(1.21232 -0.00240267 6.26421e-05)
(1.21232 -0.000628861 8.06664e-05)
(1.21226 -0.00186917 0.000202052)
(1.21065 -0.00420415 -0.000681555)
(1.21012 -0.00329711 -0.000951422)
(1.2109 -0.00405822 -0.000626532)
(1.21015 -0.00407337 -0.000806899)
(1.21011 -0.00242775 -0.000766585)
(1.21046 -0.00401922 -0.000748341)
(1.20731 -0.0032867 -0.00113329)
(1.20673 -0.0033047 -0.00131105)
(1.20769 -0.00337104 -0.00115782)
(1.2069 -0.0030686 -0.00121458)
(1.20706 -0.00235294 -0.00116617)
(1.20726 -0.00314195 -0.00124303)
(1.20463 -0.00223432 -0.00117904)
(1.20448 -0.00249617 -0.00129166)
(1.20492 -0.00229648 -0.00124598)
(1.20441 -0.00209861 -0.0012231)
(1.2047 -0.00183254 -0.00120013)
(1.20467 -0.00214288 -0.0012888)
(1.203 -0.00157679 -0.00103022)
(1.20295 -0.00176426 -0.00111156)
(1.2032 -0.00161961 -0.00110279)
(1.20288 -0.00148385 -0.00105329)
(1.2031 -0.00132834 -0.00105402)
(1.20306 -0.0015193 -0.00112056)
(1.20194 -0.00109718 -0.000831682)
(1.20191 -0.00122877 -0.000889961)
(1.20209 -0.00113236 -0.00089619)
(1.20187 -0.00103239 -0.000843875)
(1.20202 -0.000927642 -0.000854924)
(1.20201 -0.00106216 -0.000902524)
(1.20124 -0.000749898 -0.000641534)
(1.20123 -0.000840633 -0.000682649)
(1.20135 -0.000777238 -0.000694333)
(1.20121 -0.000705537 -0.000647991)
(1.20131 -0.000635967 -0.000661759)
(1.2013 -0.000729019 -0.000695515)
(1.2008 -0.00050374 -0.000479237)
(1.20079 -0.000566157 -0.00050815)
(1.20087 -0.000524266 -0.000520827)
(1.20078 -0.000473677 -0.000482418)
(1.20084 -0.000428857 -0.000495919)
(1.20084 -0.000491514 -0.000519653)
(1.20051 -0.000331464 -0.000347482)
(1.20051 -0.000374797 -0.000367079)
(1.20056 -0.00034639 -0.000378791)
(1.2005 -0.000311493 -0.000348427)
(1.20055 -0.0002843 -0.000359995)
(1.20055 -0.000324383 -0.000376343)
(1.20033 -0.000214201 -0.000246864)
(1.20033 -0.000245265 -0.000260089)
(1.20036 -0.000224803 -0.000269531)
(1.20033 -0.00020087 -0.000246826)
(1.20036 -0.000186 -0.000256097)
(1.20036 -0.000210211 -0.000267126)
(1.20022 -0.000134183 -0.000173534)
(1.20022 -0.000158521 -0.000182213)
(1.20024 -0.000141477 -0.000189178)
(1.20022 -0.00012534 -0.00017328)
(1.20024 -0.000119928 -0.000179738)
(1.20024 -0.00013171 -0.0001873)
(1.20015 -8.14607e-05 -0.00012297)
(1.20015 -0.00010253 -0.00012864)
(1.20016 -8.62266e-05 -0.000134104)
(1.20015 -7.59832e-05 -0.000123038)
(1.20016 -7.74014e-05 -0.000127273)
(1.20016 -8.00933e-05 -0.000133011)
(1.2001 -4.7289e-05 -8.32848e-05)
(1.20011 -6.70159e-05 -8.6484e-05)
(1.20011 -5.07835e-05 -9.17708e-05)
(1.20011 -4.36584e-05 -8.25933e-05)
(1.20012 -5.0938e-05 -8.60825e-05)
(1.20012 -4.6888e-05 -9.02959e-05)
(1.20008 -2.19422e-05 -5.34942e-05)
(1.20008 -4.1445e-05 -5.51602e-05)
(1.20009 -2.4703e-05 -5.90998e-05)
(1.20008 -1.92326e-05 -5.21596e-05)
(1.20009 -3.14855e-05 -5.50173e-05)
(1.20009 -2.17996e-05 -5.78883e-05)
(1.20007 -6.74266e-06 -2.9686e-05)
(1.20007 -2.37242e-05 -2.99579e-05)
(1.20007 -7.65374e-06 -3.32062e-05)
(1.20007 -5.35114e-06 -2.77414e-05)
(1.20008 -2.13421e-05 -2.9324e-05)
(1.20007 -6.10898e-06 -3.26509e-05)
(1.00888 -0.122791 -0.0207257)
(0.972788 -0.144041 -0.0490956)
(1.28084 -0.107607 -0.0320498)
(1.2013 -0.000829418 0.0138748)
(1.2018 -0.00785439 0.00696438)
(1.18959 -0.00417398 0.01726)
(1.21734 -0.0121785 -0.00962261)
(1.19646 -0.00829284 0.0208182)
(1.31979 -0.0769523 0.000698749)
(1.30078 -0.0580483 -0.00578878)
(1.31973 -0.0775546 0.00110542)
(1.33007 -0.0743585 -0.00582418)
(1.30671 -0.0786032 -0.00659534)
(1.18752 -0.0129992 0.00142193)
(1.19625 -0.0211988 0.00609778)
(1.20252 -0.0356753 0.00372902)
(1.18664 -0.0111062 0.00316333)
(1.19038 -0.0366057 0.00727496)
(1.19542 -0.0244813 0.00569277)
(1.3313 -0.0734432 0.00615583)
(1.30775 -0.0781914 0.00690239)
(1.31962 -0.0765011 0.000915714)
(1.19043 -0.00871865 -0.00349088)
(1.19486 -0.0275454 -0.00268911)
(1.17265 -0.0236974 -0.00388029)
(1.18506 -0.0212154 -0.00224548)
(1.18632 -0.011809 -0.000433027)
(1.31521 -0.07804 -0.00141911)
(1.29721 -0.0582849 -0.00605687)
(1.31584 -0.0775655 -0.00102459)
(1.32689 -0.0735417 -0.00669284)
(1.30376 -0.0795802 -0.00854726)
(1.18539 -0.0120586 -0.00338889)
(1.19248 -0.0152055 -0.00108882)
(1.19816 -0.0318511 -0.000785437)
(1.18529 -0.0117846 -0.00222059)
(1.18135 -0.0302296 -0.000944771)
(1.18981 -0.0230023 -0.001265)
(1.32608 -0.073602 0.00507163)
(1.3028 -0.0799316 0.00514501)
(1.31446 -0.078548 -0.00186863)
(1.18964 -0.0118007 -0.00545568)
(1.19517 -0.0296105 -0.00388801)
(1.17616 -0.0269517 -0.00556385)
(1.18607 -0.022171 -0.00452817)
(1.18425 -0.0112865 -0.00449995)
(0.441626 0.100472 -0.0385077)
(0.296065 0.0697375 -0.0238399)
(0.35531 0.122187 -0.0388495)
(0.288879 0.0684424 -0.0295597)
(0.257498 0.11573 -0.0175444)
(0.187232 0.0765148 0.0210556)
(0.111328 0.103873 -0.0160221)
(1.19725 0.00328795 0.0182872)
(1.20103 -0.0135718 0.0171003)
(1.19474 -0.00733145 0.0144884)
(1.19194 -0.0152355 0.00340141)
(1.19777 -0.0145108 0.00341344)
(1.19334 -0.014264 0.00468114)
(1.19135 -0.0153643 0.00516465)
(1.19334 -0.0193705 -0.00039308)
(1.19395 -0.0169422 0.000545643)
(1.20419 -0.0318333 0.00320437)
(1.19611 -0.0142104 0.0041262)
(1.1941 -0.0356051 0.00650138)
(1.19613 -0.0265689 0.00386648)
(1.19303 -0.0171399 -0.00344042)
(1.19144 -0.02031 -0.00197141)
(1.19762 -0.0194168 -0.00133718)
(1.19411 -0.0169999 -0.000925429)
(1.19497 -0.0218307 -0.00134888)
(1.19135 -0.024294 -0.00100768)
(1.20592 -0.0280098 0.00105864)
(1.20972 -0.038577 0.00275821)
(1.20391 -0.0148161 0.00527543)
(1.22917 -0.00999693 -3.60627e-05)
(1.22708 -0.00541285 0.00048886)
(1.23303 -0.00421037 2.97035e-05)