/*--------------------------------*- C++ -*----------------------------------*\
| =========                 |                                                 |
| \\      /  F ield         | OpenFOAM: The Open Source CFD Toolbox           |
|  \\    /   O peration     | Version:  2012                                  |
|   \\  /    A nd           | Website:  www.openfoam.com                      |
|    \\/     M anipulation  |                                                 |
\*---------------------------------------------------------------------------*/
FoamFile
{
    version     2.0;
    format      ascii;
    class       volScalarField::Internal;
    location    "0.104/fluid";
    object      V0;
}
// * * * * * * * * * * * * * * * * * * * * * * * * * * * * * * * * * * * * * //

dimensions      [0 3 0 0 0 0 0];


value           nonuniform List<scalar> 
16422
(
4.26918e-05
4.24756e-05
4.24292e-05
4.24594e-05
4.24808e-05
4.24947e-05
4.25013e-05
4.25055e-05
4.25066e-05
4.25067e-05
4.25104e-05
4.25101e-05
4.25072e-05
4.25074e-05
4.25066e-05
4.25905e-05
4.25632e-05
4.25042e-05
4.2494e-05
4.24984e-05
4.25062e-05
4.2511e-05
4.25122e-05
4.25114e-05
4.25099e-05
4.25117e-05
4.2508e-05
4.25071e-05
4.25076e-05
4.25059e-05
4.25846e-05
4.2576e-05
4.25481e-05
4.25291e-05
4.2522e-05
4.25209e-05
4.25202e-05
4.25183e-05
4.25157e-05
4.25146e-05
4.25135e-05
4.25096e-05
4.25087e-05
4.25087e-05
4.2506e-05
4.26994e-05
4.24823e-05
4.24372e-05
4.24637e-05
4.24808e-05
4.24921e-05
4.24998e-05
4.25038e-05
4.25061e-05
4.2508e-05
4.25099e-05
4.25092e-05
4.2508e-05
4.25078e-05
4.25088e-05
4.25924e-05
4.25654e-05
4.25087e-05
4.24966e-05
4.24993e-05
4.25051e-05
4.25089e-05
4.25097e-05
4.25106e-05
4.25105e-05
4.25104e-05
4.25091e-05
4.25093e-05
4.25065e-05
4.25064e-05
4.25854e-05
4.25765e-05
4.25488e-05
4.25296e-05
4.25217e-05
4.25199e-05
4.2519e-05
4.25169e-05
4.2515e-05
4.25143e-05
4.25127e-05
4.25104e-05
4.25093e-05
4.25082e-05
4.25067e-05
4.27028e-05
4.24838e-05
4.24507e-05
4.24733e-05
4.24861e-05
4.24947e-05
4.24992e-05
4.25019e-05
4.25057e-05
4.25086e-05
4.25103e-05
4.25101e-05
4.25109e-05
4.25108e-05
4.2508e-05
4.25993e-05
4.25719e-05
4.25168e-05
4.25043e-05
4.25034e-05
4.25065e-05
4.25085e-05
4.25085e-05
4.25093e-05
4.25104e-05
4.25115e-05
4.25101e-05
4.25099e-05
4.25085e-05
4.25072e-05
4.25851e-05
4.2577e-05
4.25512e-05
4.25328e-05
4.25234e-05
4.25197e-05
4.25175e-05
4.25147e-05
4.25138e-05
4.25145e-05
4.25134e-05
4.25105e-05
4.25092e-05
4.25087e-05
4.25077e-05
5.32449e-06
4.24405e-05
5.32504e-06
4.2444e-05
5.32491e-06
4.24465e-05
5.32443e-06
4.24392e-05
5.32406e-06
4.24358e-05
3.36875e-08
3.25176e-08
4.23589e-05
4.23951e-05
4.23612e-05
4.24008e-05
4.2595e-05
4.26027e-05
4.2592e-05
4.27e-05
4.26024e-05
4.26044e-05
4.2594e-05
3.36845e-08
3.36834e-08
4.23643e-05
4.24047e-05
4.23608e-05
4.24143e-05
4.26057e-05
4.26055e-05
4.25958e-05
4.2702e-05
4.26056e-05
4.26109e-05
4.26015e-05
3.36851e-08
3.3685e-08
4.23583e-05
4.2416e-05
4.26037e-05
4.26134e-05
4.26019e-05
6.80588e-08
4.19999e-05
4.20074e-05
7.86184e-08
3.37503e-08
5.38011e-06
5.32546e-06
5.38123e-06
3.25075e-08
6.824e-08
4.19409e-05
4.31661e-05
4.2445e-05
4.1949e-05
4.31723e-05
7.8909e-08
3.36872e-08
3.36829e-08
6.80589e-08
4.19564e-05
4.1977e-05
6.80535e-08
3.37504e-08
5.32521e-06
5.38164e-06
5.38133e-06
3.37507e-08
6.82401e-08
4.24439e-05
4.19342e-05
4.3169e-05
4.19402e-05
4.31687e-05
6.82489e-08
6.80559e-08
6.80539e-08
3.37507e-08
5.38187e-06
5.32468e-06
3.37513e-08
5.38185e-06
6.8241e-08
4.1935e-05
4.31724e-05
4.24475e-05
6.82496e-08
4.19346e-05
4.31738e-05
3.3685e-08
3.36849e-08
6.80571e-08
6.80542e-08
3.37506e-08
5.32459e-06
5.38136e-06
5.3817e-06
3.37508e-08
6.82395e-08
4.24439e-05
4.19186e-05
4.31653e-05
4.1927e-05
4.31697e-05
6.82345e-08
6.80368e-08
6.80532e-08
3.37499e-08
5.38068e-06
5.32499e-06
3.37507e-08
5.38109e-06
6.82093e-08
4.19137e-05
4.31609e-05
4.24327e-05
6.82325e-08
4.19078e-05
4.3159e-05
3.36841e-08
6.80351e-08
3.37495e-08
5.32555e-06
5.38105e-06
6.82088e-08
4.24341e-05
4.19035e-05
4.31639e-05
3.37059e-08
3.37164e-08
3.36833e-08
3.36832e-08
3.3685e-08
3.36855e-08
5.16787e-06
6.80971e-08
5.17418e-06
6.81145e-08
5.1648e-06
5.17817e-06
6.68998e-07
5.5638e-06
3.37511e-08
5.56494e-06
6.68858e-07
6.64288e-07
6.72564e-07
6.7282e-07
6.63636e-07
6.64191e-07
6.72504e-07
6.7267e-07
6.6404e-07
6.69082e-07
3.37527e-08
5.55585e-06
5.56682e-06
6.68496e-07
5.3053e-06
5.16401e-06
5.51231e-06
6.82408e-08
5.16662e-06
5.5139e-06
5.30435e-06
5.30507e-06
6.82466e-08
5.15566e-06
5.52108e-06
5.16747e-06
5.51777e-06
5.30145e-06
3.36848e-08
3.36848e-08
5.16481e-06
6.80538e-08
5.16228e-06
6.80548e-08
5.16063e-06
5.1616e-06
6.68829e-07
5.5635e-06
3.37504e-08
6.68853e-07
5.56341e-06
6.64021e-07
6.72476e-07
6.72465e-07
6.6406e-07
6.64005e-07
6.72494e-07
6.72467e-07
6.64031e-07
6.68843e-07
3.37502e-08
5.56371e-06
5.56351e-06
6.68887e-07
5.30343e-06
5.16289e-06
5.51193e-06
6.82433e-08
5.30376e-06
5.16197e-06
5.51203e-06
5.30363e-06
6.82436e-08
5.16154e-06
5.5125e-06
5.16199e-06
5.51228e-06
5.30364e-06
6.80518e-08
5.16097e-06
5.16139e-06
6.80526e-08
5.16107e-06
5.16093e-06
6.68862e-07
3.37514e-08
5.5638e-06
5.56392e-06
6.6885e-07
6.64006e-07
6.72472e-07
6.64054e-07
6.72453e-07
6.68875e-07
3.37514e-08
5.56406e-06
6.68891e-07
5.56396e-06
6.63974e-07
6.72446e-07
6.72443e-07
6.6399e-07
5.30431e-06
6.82484e-08
5.16204e-06
5.51295e-06
5.16239e-06
5.5131e-06
5.30413e-06
5.30409e-06
6.82485e-08
5.16207e-06
5.51286e-06
5.30392e-06
5.16207e-06
5.51302e-06
3.36847e-08
3.36845e-08
5.16056e-06
6.80551e-08
5.15951e-06
6.80536e-08
5.1592e-06
5.15937e-06
6.68838e-07
5.56359e-06
3.37504e-08
6.68835e-07
5.56325e-06
6.63965e-07
6.72427e-07
6.72426e-07
6.63973e-07
6.6399e-07
6.72447e-07
6.72446e-07
6.63974e-07
6.68821e-07
3.37504e-08
5.56278e-06
5.56302e-06
6.68809e-07
5.30298e-06
5.16158e-06
5.5125e-06
6.82351e-08
5.30365e-06
5.16071e-06
5.51199e-06
5.30248e-06
6.8235e-08
5.16022e-06
5.51153e-06
5.16043e-06
5.51159e-06
5.30239e-06
6.80437e-08
5.15759e-06
5.15834e-06
6.80462e-08
5.15911e-06
5.15885e-06
6.68697e-07
3.37502e-08
5.56216e-06
5.56216e-06
6.68803e-07
6.6388e-07
6.72413e-07
6.63924e-07
6.72417e-07
6.68735e-07
3.37503e-08
5.56263e-06
6.68765e-07
5.56241e-06
6.63849e-07
6.72436e-07
6.72395e-07
6.63955e-07
5.3013e-06
6.82183e-08
5.15845e-06
5.50997e-06
5.15914e-06
5.51031e-06
5.3011e-06
5.30202e-06
6.82207e-08
5.16007e-06
5.51124e-06
5.302e-06
5.15979e-06
5.51093e-06
3.36845e-08
3.36849e-08
5.15667e-06
6.80258e-08
5.15694e-06
6.80246e-08
5.15691e-06
6.68926e-07
5.56228e-06
3.37496e-08
6.68795e-07
5.56275e-06
6.6405e-07
6.72538e-07
6.64064e-07
6.7243e-07
6.72558e-07
6.63945e-07
6.68903e-07
3.375e-08
5.56352e-06
5.30104e-06
5.15748e-06
5.50962e-06
6.8201e-08
5.30032e-06
5.15765e-06
5.50975e-06
5.30066e-06
6.81998e-08
5.15742e-06
5.50997e-06
6.79791e-07
7.4342e-07
3.3691e-08
7.44274e-07
6.79281e-07
8.04266e-08
7.63741e-08
7.62675e-08
7.58481e-07
3.39741e-08
7.54401e-07
7.65449e-07
4.8837e-08
6.78559e-07
3.36838e-08
7.42754e-07
7.42767e-07
6.78556e-07
7.62432e-08
7.62484e-08
6.7856e-07
3.36831e-08
7.42823e-07
6.78588e-07
7.42753e-07
7.62449e-08
7.62451e-08
6.7859e-07
3.36852e-08
7.42694e-07
7.42688e-07
6.78593e-07
7.62489e-08
7.625e-08
6.78585e-07
3.36849e-08
7.42787e-07
6.78585e-07
7.4278e-07
7.62489e-08
7.62518e-08
6.6238e-07
7.20215e-07
6.23872e-07
6.80671e-08
7.21052e-07
6.24242e-07
6.61611e-07
6.66124e-07
6.98205e-08
7.33866e-07
6.22375e-07
7.36429e-07
6.26316e-07
6.64076e-07
6.78081e-07
7.41779e-07
3.37497e-08
7.41802e-07
6.78065e-07
7.63467e-08
7.59646e-08
7.62441e-08
7.62447e-08
6.78486e-07
3.38411e-08
7.4066e-07
7.44292e-07
6.74274e-07
6.6138e-07
6.24215e-07
7.19622e-07
6.82381e-08
6.24445e-07
7.19658e-07
6.61238e-07
6.62122e-07
6.94412e-08
6.20699e-07
7.28632e-07
6.24204e-07
7.25031e-07
6.61397e-07
6.78878e-07
7.4346e-07
3.36864e-08
6.79079e-07
7.43034e-07
7.62489e-08
7.62444e-08
7.6252e-08
7.6291e-08
6.78614e-07
3.36843e-08
7.42753e-07
6.78577e-07
7.42848e-07
6.613e-07
7.20289e-07
6.23846e-07
6.80561e-08
6.61696e-07
7.1985e-07
6.2379e-07
6.61148e-07
6.80545e-08
7.19584e-07
6.23652e-07
7.19672e-07
6.23762e-07
6.61015e-07
6.78062e-07
7.41789e-07
3.37503e-08
6.78067e-07
7.41782e-07
7.62429e-08
7.62424e-08
7.62421e-08
7.62443e-08
6.78086e-07
3.37509e-08
7.41867e-07
7.41852e-07
6.7809e-07
6.6128e-07
6.24234e-07
7.19637e-07
6.82412e-08
6.61261e-07
6.24255e-07
7.19656e-07
6.61403e-07
6.82459e-08
6.24262e-07
7.19813e-07
6.24358e-07
7.19787e-07
6.61364e-07
6.61177e-07
6.80525e-08
7.19582e-07
6.23713e-07
7.19619e-07
6.23847e-07
6.61039e-07
6.61089e-07
6.80539e-08
7.19658e-07
6.23725e-07
7.19626e-07
6.61106e-07
6.23781e-07
6.78082e-07
3.37511e-08
7.41844e-07
7.41851e-07
6.78082e-07
7.62428e-08
7.6244e-08
6.78093e-07
3.37513e-08
7.41895e-07
6.78102e-07
7.41869e-07
7.62422e-08
7.62438e-08
6.61482e-07
6.82432e-08
6.24297e-07
7.1978e-07
6.24436e-07
7.19821e-07
6.61374e-07
6.61435e-07
6.82494e-08
6.24331e-07
7.19834e-07
6.61388e-07
6.244e-07
7.19856e-07
6.78568e-07
7.42783e-07
3.36846e-08
6.78568e-07
7.42756e-07
7.62468e-08
7.62495e-08
7.62427e-08
7.62447e-08
6.78574e-07
3.36845e-08
7.42788e-07
6.78582e-07
7.42771e-07
6.61014e-07
7.19597e-07
6.23722e-07
6.80568e-08
6.6106e-07
7.19567e-07
6.23755e-07
6.61012e-07
6.8052e-08
7.19596e-07
6.23684e-07
7.19577e-07
6.23746e-07
6.60992e-07
6.78078e-07
7.41825e-07
3.37503e-08
6.78082e-07
7.41802e-07
7.62425e-08
7.62451e-08
7.62429e-08
7.62438e-08
6.78069e-07
3.37508e-08
7.41795e-07
7.4178e-07
6.78071e-07
6.61339e-07
6.24286e-07
7.19744e-07
6.82358e-08
6.61347e-07
6.24319e-07
7.19716e-07
6.61255e-07
6.82349e-08
6.2424e-07
7.19676e-07
6.24309e-07
7.19664e-07
6.61231e-07
6.60763e-07
6.80386e-08
7.19291e-07
6.23356e-07
7.19325e-07
6.23505e-07
6.60653e-07
6.61004e-07
6.80501e-08
7.19579e-07
6.23678e-07
7.19576e-07
6.60969e-07
6.23745e-07
6.78048e-07
3.375e-08
7.41662e-07
7.41646e-07
6.78059e-07
7.6244e-08
7.6245e-08
6.78061e-07
3.37506e-08
7.41776e-07
6.78066e-07
7.41756e-07
7.62458e-08
7.62479e-08
6.61004e-07
6.8212e-08
6.23914e-07
7.1934e-07
6.24041e-07
7.19359e-07
6.60916e-07
6.61233e-07
6.82277e-08
6.2423e-07
7.19635e-07
6.61193e-07
6.24283e-07
7.19619e-07
6.78599e-07
7.42664e-07
3.36845e-08
6.78583e-07
7.42689e-07
7.62493e-08
7.62499e-08
6.60689e-07
7.19269e-07
6.23293e-07
6.80326e-08
6.60604e-07
7.19297e-07
6.23418e-07
6.78067e-07
7.41641e-07
3.37503e-08
6.78057e-07
7.41665e-07
7.62483e-08
7.62477e-08
6.60941e-07
6.23859e-07
7.19309e-07
6.82086e-08
6.60856e-07
6.23978e-07
7.19342e-07
6.25946e-07
8.52868e-08
8.54178e-08
6.25448e-07
6.80602e-07
3.36917e-08
7.46955e-07
6.82794e-07
7.44578e-07
6.26866e-07
8.59818e-08
8.53796e-08
6.29142e-07
8.07178e-08
7.75401e-08
8.47358e-08
9.0216e-08
8.30554e-08
8.62168e-08
7.89134e-08
9.00086e-08
7.78152e-08
8.51844e-08
8.5306e-08
7.76994e-08
7.63382e-08
7.70995e-08
7.77794e-08
8.59008e-08
8.52691e-08
7.85213e-08
7.08352e-07
3.38861e-08
7.50112e-07
6.88718e-07
7.60291e-07
7.11994e-07
8.9097e-08
6.51688e-07
8.62197e-08
6.35273e-07
8.91237e-08
6.78543e-07
3.36834e-08
7.42775e-07
6.78553e-07
7.42735e-07
6.24684e-07
8.52396e-08
8.52405e-08
6.2468e-07
6.24676e-07
8.5242e-08
6.24681e-07
8.524e-08
7.76666e-08
8.51524e-08
8.51487e-08
7.76725e-08
7.62454e-08
7.62467e-08
7.76682e-08
8.51492e-08
8.51516e-08
7.767e-08
6.78566e-07
3.36835e-08
7.42734e-07
6.78552e-07
7.42789e-07
6.24701e-07
8.52446e-08
8.52406e-08
6.24718e-07
6.24699e-07
8.52375e-08
6.24689e-07
8.52423e-08
7.76683e-08
8.51486e-08
8.51488e-08
7.76687e-08
7.62446e-08
7.62471e-08
7.76667e-08
8.51522e-08
8.51481e-08
7.76704e-08
6.78592e-07
3.36846e-08
7.4272e-07
6.78582e-07
7.42711e-07
6.24702e-07
8.52463e-08
8.52438e-08
6.24701e-07
6.24703e-07
8.52432e-08
6.24699e-07
8.52455e-08
7.76703e-08
8.51537e-08
8.51528e-08
7.76727e-08
7.6248e-08
7.62497e-08
7.76692e-08
8.51515e-08
8.51514e-08
7.7672e-08
6.78583e-07
3.36848e-08
7.4275e-07
6.7859e-07
7.42753e-07
6.24704e-07
8.52433e-08
8.52438e-08
6.24703e-07
6.24704e-07
8.52442e-08
6.24703e-07
8.52428e-08
7.767e-08
8.51514e-08
8.5151e-08
7.76737e-08
7.62499e-08
7.62493e-08
7.76712e-08
8.51503e-08
8.51524e-08
7.76714e-08
6.6248e-07
6.80681e-08
7.23099e-07
6.25111e-07
7.21192e-07
6.63783e-07
6.24479e-07
6.66401e-07
6.84376e-08
7.24665e-07
6.26128e-07
7.30186e-07
6.64448e-07
6.2785e-07
6.24584e-07
8.52371e-08
8.52392e-08
6.24571e-07
6.78106e-07
3.3749e-08
7.41959e-07
6.78182e-07
7.4183e-07
6.2461e-07
8.52475e-08
8.52395e-08
6.24675e-07
7.63016e-08
7.62554e-08
7.77547e-08
8.52607e-08
8.52741e-08
7.72108e-08
7.77184e-08
8.51614e-08
7.76782e-08
8.52215e-08
7.76655e-08
8.51446e-08
8.51472e-08
7.76674e-08
7.62451e-08
7.62514e-08
7.7666e-08
8.51555e-08
8.51471e-08
7.76737e-08
6.78667e-07
3.37912e-08
7.42272e-07
6.78355e-07
7.43096e-07
6.25433e-07
8.55488e-08
8.5372e-08
6.22482e-07
6.25125e-07
8.52537e-08
6.24818e-07
8.53161e-08
6.61448e-07
6.82371e-08
6.249e-07
7.19882e-07
6.24563e-07
7.19704e-07
6.6166e-07
6.62462e-07
6.8485e-08
6.25591e-07
7.20362e-07
6.26604e-07
7.21747e-07
6.62041e-07
6.25019e-07
8.53119e-08
6.252e-07
8.52604e-08
6.78808e-07
3.36856e-08
7.42865e-07
6.78705e-07
7.43108e-07
6.24924e-07
8.52494e-08
8.52742e-08
6.24836e-07
7.62441e-08
7.62556e-08
7.76731e-08
8.5149e-08
7.76685e-08
8.51551e-08
7.76678e-08
8.51629e-08
7.76811e-08
8.51492e-08
7.76789e-08
8.52098e-08
7.7723e-08
8.51633e-08
7.62638e-08
7.62472e-08
7.76907e-08
8.51545e-08
8.51772e-08
7.76735e-08
6.78617e-07
3.36849e-08
7.42944e-07
6.7868e-07
7.42779e-07
6.2474e-07
8.52422e-08
6.24714e-07
8.52488e-08
6.2475e-07
8.52578e-08
6.248e-07
8.52429e-08
6.61408e-07
6.80558e-08
7.19668e-07
6.23619e-07
7.19937e-07
6.61081e-07
6.23806e-07
6.6102e-07
6.80539e-08
7.19768e-07
6.23686e-07
7.1958e-07
6.61205e-07
6.23705e-07
6.24564e-07
8.52372e-08
6.2457e-07
8.52362e-08
6.78067e-07
3.37503e-08
7.41799e-07
6.78065e-07
7.41799e-07
6.24566e-07
8.52358e-08
8.52366e-08
6.24566e-07
7.62427e-08
7.6242e-08
7.76647e-08
8.51448e-08
8.51461e-08
7.76652e-08
7.76645e-08
8.51431e-08
7.7665e-08
8.51455e-08
7.76634e-08
8.51453e-08
7.76668e-08
8.51446e-08
7.62422e-08
7.62436e-08
7.76641e-08
8.51449e-08
8.51448e-08
7.76662e-08
6.78071e-07
3.37507e-08
7.41823e-07
6.7807e-07
7.4182e-07
6.24588e-07
8.52372e-08
8.52388e-08
6.24584e-07
6.24578e-07
8.52351e-08
6.24569e-07
8.5238e-08
6.61342e-07
6.82414e-08
6.24148e-07
7.19675e-07
6.24296e-07
7.19683e-07
6.61259e-07
6.61328e-07
6.82443e-08
6.24225e-07
7.19714e-07
6.24288e-07
7.19733e-07
6.61313e-07
6.61133e-07
6.80516e-08
7.19626e-07
6.23728e-07
7.19589e-07
6.61127e-07
6.23817e-07
6.61198e-07
6.80543e-08
7.19581e-07
6.23665e-07
7.19664e-07
6.61048e-07
6.23831e-07
6.78087e-07
3.37511e-08
7.41877e-07
6.78097e-07
7.41858e-07
6.24568e-07
8.52375e-08
8.52375e-08
6.24568e-07
6.24573e-07
8.52368e-08
6.24578e-07
8.52376e-08
7.76649e-08
8.51463e-08
7.76674e-08
8.51453e-08
7.62425e-08
7.62434e-08
7.76645e-08
8.51441e-08
8.51451e-08
7.76664e-08
6.78099e-07
3.37513e-08
7.41862e-07
6.78088e-07
7.41874e-07
6.24583e-07
8.5239e-08
6.2459e-07
8.52389e-08
6.24584e-07
8.52383e-08
6.24573e-07
8.52388e-08
7.76641e-08
8.51444e-08
8.5144e-08
7.76667e-08
7.62422e-08
7.62433e-08
7.76642e-08
8.5143e-08
8.51439e-08
7.76665e-08
6.61475e-07
6.82432e-08
6.24317e-07
7.19815e-07
6.24424e-07
7.19832e-07
6.61405e-07
6.61493e-07
6.82481e-08
6.2426e-07
7.19804e-07
6.24436e-07
7.19858e-07
6.61375e-07
6.24687e-07
8.52405e-08
6.24684e-07
8.52402e-08
6.78574e-07
3.36844e-08
7.42763e-07
6.78573e-07
7.42771e-07
6.24697e-07
8.52431e-08
8.5241e-08
6.24695e-07
7.62466e-08
7.62473e-08
7.76685e-08
8.51532e-08
7.7672e-08
8.51517e-08
7.76689e-08
8.51514e-08
7.76707e-08
8.51514e-08
7.76652e-08
8.51483e-08
7.76681e-08
8.5149e-08
7.62439e-08
7.62468e-08
7.76668e-08
8.51518e-08
8.51494e-08
7.76699e-08
6.78567e-07
3.36844e-08
7.42762e-07
6.78575e-07
7.42748e-07
6.24701e-07
8.5243e-08
6.24701e-07
8.52425e-08
6.24695e-07
8.5242e-08
6.24702e-07
8.52421e-08
6.61021e-07
6.8056e-08
7.19523e-07
6.23593e-07
7.1957e-07
6.60903e-07
6.23753e-07
6.60972e-07
6.80517e-08
7.19524e-07
6.236e-07
7.19536e-07
6.60925e-07
6.23713e-07
6.24565e-07
8.5237e-08
6.24568e-07
8.52374e-08
6.78069e-07
3.37495e-08
7.41786e-07
6.78071e-07
7.41783e-07
6.24561e-07
8.5238e-08
8.52364e-08
6.24561e-07
7.62426e-08
7.62442e-08
7.76639e-08
8.51454e-08
8.51439e-08
7.76673e-08
7.76641e-08
8.51444e-08
7.76673e-08
8.5144e-08
7.7665e-08
8.51439e-08
7.76673e-08
8.51444e-08
7.62412e-08
7.62443e-08
7.76631e-08
8.51452e-08
8.5143e-08
7.7667e-08
6.78062e-07
3.37499e-08
7.41778e-07
6.78068e-07
7.41776e-07
6.24563e-07
8.5238e-08
8.52366e-08
6.24561e-07
6.24558e-07
8.52373e-08
6.24562e-07
8.52368e-08
6.61316e-07
6.82344e-08
6.2416e-07
7.19646e-07
6.24312e-07
7.19683e-07
6.61207e-07
6.6125e-07
6.82329e-08
6.24163e-07
7.19625e-07
6.24275e-07
7.19651e-07
6.61188e-07
6.60837e-07
6.80386e-08
7.19403e-07
6.23499e-07
7.19373e-07
6.60817e-07
6.23561e-07
6.60966e-07
6.80484e-08
7.19472e-07
6.23556e-07
7.19521e-07
6.60879e-07
6.23702e-07
6.78051e-07
3.37501e-08
7.41683e-07
6.78051e-07
7.41676e-07
6.24546e-07
8.52402e-08
8.52378e-08
6.24552e-07
6.24545e-07
8.52365e-08
6.24544e-07
8.5238e-08
7.76644e-08
8.51445e-08
7.76676e-08
8.51444e-08
7.62437e-08
7.62465e-08
7.76644e-08
8.51435e-08
8.51426e-08
7.76678e-08
6.78059e-07
3.37505e-08
7.41723e-07
6.7806e-07
7.41726e-07
6.24547e-07
8.52371e-08
6.24556e-07
8.52367e-08
6.24547e-07
8.52367e-08
6.24547e-07
8.52354e-08
7.7666e-08
8.51454e-08
8.51438e-08
7.76689e-08
7.62464e-08
7.62464e-08
7.76656e-08
8.51434e-08
8.51446e-08
7.76681e-08
6.61074e-07
6.82136e-08
6.2404e-07
7.19436e-07
6.24095e-07
7.19411e-07
6.6104e-07
6.61188e-07
6.82259e-08
6.24099e-07
7.19514e-07
6.24238e-07
7.19554e-07
6.61108e-07
6.24695e-07
8.5244e-08
6.24693e-07
8.52442e-08
6.78595e-07
3.36849e-08
7.4268e-07
6.78615e-07
7.42652e-07
6.24694e-07
8.52471e-08
8.52426e-08
6.24713e-07
7.62545e-08
7.62503e-08
7.76738e-08
8.51486e-08
7.7671e-08
8.51563e-08
7.76711e-08
8.5149e-08
7.7672e-08
8.51491e-08
7.62484e-08
7.62519e-08
7.76685e-08
8.51511e-08
8.51478e-08
7.76735e-08
6.78633e-07
7.42641e-07
6.78608e-07
7.42702e-07
6.24738e-07
8.52469e-08
6.24716e-07
8.52545e-08
6.60628e-07
6.80317e-08
7.19236e-07
6.23292e-07
7.19246e-07
6.60622e-07
6.23375e-07
6.60704e-07
7.19174e-07
6.23235e-07
7.19219e-07
6.60561e-07
6.23388e-07
6.24559e-07
8.52394e-08
6.24552e-07
8.52412e-08
6.78068e-07
3.37503e-08
7.41664e-07
6.78077e-07
7.4164e-07
6.24559e-07
8.52431e-08
8.52399e-08
6.24569e-07
7.62535e-08
7.62497e-08
7.76724e-08
8.51453e-08
7.76702e-08
7.76678e-08
8.51436e-08
7.76695e-08
8.51458e-08
7.62475e-08
7.62509e-08
7.76682e-08
8.5147e-08
8.51448e-08
7.7672e-08
6.78095e-07
7.41617e-07
6.78076e-07
7.41665e-07
6.24597e-07
8.5241e-08
6.24576e-07
6.60861e-07
6.8207e-08
6.2386e-07
7.19283e-07
6.23933e-07
7.19285e-07
6.60856e-07
6.60903e-07
6.2379e-07
7.19199e-07
6.23927e-07
7.19233e-07
6.60775e-07
4.2888e-05
4.26988e-05
4.28954e-05
4.27434e-05
4.26529e-05
4.26559e-05
4.27404e-05
4.29011e-05
4.26994e-05
4.29018e-05
4.27499e-05
4.26594e-05
4.27487e-05
4.26604e-05
4.2903e-05
4.27103e-05
4.29069e-05
4.2757e-05
4.26662e-05
4.27536e-05
4.26726e-05
5.32033e-06
5.34004e-06
5.33788e-06
5.32566e-06
5.33859e-06
5.34337e-06
5.31739e-06
5.3189e-06
5.32505e-06
5.34123e-06
5.3384e-06
5.33827e-06
5.34123e-06
5.31896e-06
5.31868e-06
5.34113e-06
5.33834e-06
5.32478e-06
5.33826e-06
5.31888e-06
5.34095e-06
5.31827e-06
5.32447e-06
5.34042e-06
5.33773e-06
5.33788e-06
5.34056e-06
5.31804e-06
5.31765e-06
5.34027e-06
5.33717e-06
5.32421e-06
5.33718e-06
5.31771e-06
5.34025e-06
5.32277e-06
5.32968e-06
5.34228e-06
5.34545e-06
8.7532e-08
1.10082e-07
3.36876e-08
1.10088e-07
8.7526e-08
9.03076e-08
3.40537e-08
1.09348e-07
1.12075e-07
1.02258e-07
4.27e-05
4.28994e-05
4.28981e-05
4.27455e-05
4.26587e-05
4.26577e-05
4.27472e-05
8.75179e-08
3.36832e-08
1.10073e-07
1.10063e-07
8.75206e-08
8.75151e-08
3.3682e-08
1.10075e-07
8.75211e-08
1.10059e-07
4.27005e-05
4.29038e-05
4.29024e-05
4.27512e-05
4.26636e-05
4.26618e-05
4.27524e-05
8.75198e-08
3.36845e-08
1.1007e-07
1.10059e-07
8.75232e-08
8.75188e-08
3.36839e-08
1.10075e-07
8.75223e-08
1.10064e-07
4.2731e-05
4.29216e-05
4.27653e-05
4.26851e-05
8.27706e-08
9.80609e-08
9.70183e-08
6.80601e-08
9.80642e-08
9.70478e-08
8.2737e-08
8.39322e-08
7.48908e-08
1.03687e-07
9.81293e-08
1.02766e-07
9.70551e-08
8.3851e-08
8.73577e-08
1.10033e-07
3.37486e-08
1.10027e-07
8.7359e-08
5.32015e-06
5.32573e-06
5.34196e-06
5.33852e-06
5.33868e-06
5.34282e-06
5.31944e-06
8.74533e-08
3.37317e-08
1.09762e-07
1.10634e-07
8.80486e-08
8.28514e-08
9.72485e-08
9.80172e-08
6.8238e-08
9.72741e-08
9.80049e-08
8.28379e-08
8.35146e-08
7.50538e-08
9.82657e-08
1.03171e-07
9.71559e-08
1.02064e-07
8.35352e-08
8.75217e-08
1.10098e-07
3.36852e-08
8.75317e-08
1.1007e-07
8.7518e-08
3.36824e-08
1.10067e-07
8.75167e-08
1.10064e-07
8.27376e-08
9.80768e-08
9.70257e-08
6.80557e-08
8.27523e-08
9.80425e-08
9.70367e-08
8.27375e-08
6.80525e-08
9.80476e-08
9.70296e-08
9.80361e-08
9.70522e-08
8.27234e-08
8.73573e-08
1.10035e-07
3.37485e-08
8.73595e-08
1.10026e-07
5.31883e-06
5.32509e-06
5.34146e-06
5.33834e-06
5.33826e-06
5.34125e-06
5.31899e-06
8.73592e-08
3.37497e-08
1.10042e-07
1.10032e-07
8.73605e-08
8.28487e-08
9.72539e-08
9.80194e-08
6.82386e-08
8.2843e-08
9.72673e-08
9.80061e-08
8.28786e-08
6.82472e-08
9.72703e-08
9.80379e-08
9.72934e-08
9.8023e-08
8.28675e-08
8.27363e-08
6.80536e-08
9.80475e-08
9.70238e-08
9.80337e-08
9.70455e-08
8.27246e-08
8.27294e-08
6.80525e-08
9.8052e-08
9.70378e-08
9.8032e-08
8.27317e-08
9.70483e-08
8.73595e-08
3.37497e-08
1.1004e-07
1.10031e-07
8.73619e-08
5.31848e-06
5.32461e-06
5.34079e-06
5.33814e-06
5.33807e-06
5.3408e-06
5.31849e-06
8.73593e-08
3.37501e-08
1.10044e-07
8.73626e-08
1.10033e-07
8.28728e-08
6.8241e-08
9.72586e-08
9.80273e-08
9.72816e-08
9.80163e-08
8.28574e-08
8.28755e-08
6.82489e-08
9.72783e-08
9.80396e-08
8.28707e-08
9.72921e-08
9.80249e-08
8.75184e-08
1.10073e-07
3.36835e-08
8.75207e-08
1.10064e-07
8.75192e-08
3.36836e-08
1.10074e-07
8.75219e-08
1.10064e-07
8.27318e-08
9.80478e-08
9.70244e-08
6.8055e-08
8.2726e-08
9.80338e-08
9.70416e-08
8.27316e-08
6.80525e-08
9.80403e-08
9.70141e-08
9.8027e-08
9.7034e-08
8.27223e-08
8.73591e-08
1.10039e-07
3.37493e-08
8.73617e-08
1.10029e-07
5.31844e-06
5.32467e-06
5.34081e-06
5.33802e-06
5.33811e-06
5.34072e-06
5.31847e-06
8.736e-08
3.37496e-08
1.10039e-07
1.10029e-07
8.73626e-08
8.28624e-08
9.72578e-08
9.80248e-08
6.82368e-08
8.28565e-08
9.72719e-08
9.80099e-08
8.28591e-08
6.8234e-08
9.72448e-08
9.80163e-08
9.72667e-08
9.8004e-08
8.28491e-08
8.26801e-08
6.80372e-08
9.80034e-08
9.69402e-08
9.799e-08
9.69625e-08
8.26686e-08
8.27244e-08
6.80508e-08
9.80397e-08
9.7012e-08
9.8022e-08
8.27203e-08
9.70238e-08
8.73595e-08
3.37488e-08
1.1003e-07
1.10018e-07
8.73626e-08
5.31764e-06
5.32413e-06
5.34085e-06
5.33786e-06
5.33702e-06
5.34033e-06
5.31824e-06
8.73601e-08
3.37495e-08
1.10038e-07
8.73626e-08
1.10028e-07
8.28017e-08
6.82085e-08
9.7168e-08
9.79713e-08
9.71879e-08
9.79553e-08
8.2794e-08
8.28508e-08
6.82296e-08
9.72418e-08
9.80125e-08
8.28457e-08
9.72548e-08
9.7997e-08
8.75198e-08
1.10066e-07
3.36837e-08
8.75215e-08
1.10059e-07
8.26793e-08
9.80009e-08
9.69355e-08
6.80342e-08
8.2667e-08
9.79885e-08
9.69585e-08
8.73604e-08
1.10026e-07
3.37488e-08
8.73613e-08
1.1002e-07
5.32048e-06
5.32766e-06
5.34168e-06
5.33839e-06
5.34043e-06
5.34308e-06
5.31905e-06
8.28037e-08
9.71633e-08
9.79679e-08
6.8208e-08
8.27904e-08
9.71864e-08
9.79558e-08
3.56261e-08
3.56245e-08
8.75511e-08
3.36958e-08
1.10244e-07
8.76197e-08
1.10128e-07
3.56471e-08
3.568e-08
8.78758e-08
3.37435e-08
1.10252e-07
8.76492e-08
1.10471e-07
9.20615e-09
3.59364e-08
3.5759e-08
8.75151e-08
3.36824e-08
1.1007e-07
8.75188e-08
1.10058e-07
3.56224e-08
3.56224e-08
3.5622e-08
3.5622e-08
8.75162e-08
3.36814e-08
1.10067e-07
8.75182e-08
1.10061e-07
3.56217e-08
3.56217e-08
3.56215e-08
3.5622e-08
8.75181e-08
3.3683e-08
1.1007e-07
8.75221e-08
1.10059e-07
3.56228e-08
3.56228e-08
3.56218e-08
3.56226e-08
8.75196e-08
3.3684e-08
1.10072e-07
8.75227e-08
1.10062e-07
3.56223e-08
3.56223e-08
3.56225e-08
3.56225e-08
8.28305e-08
6.80786e-08
9.82215e-08
9.71033e-08
9.81106e-08
8.29214e-08
9.70835e-08
8.3103e-08
6.81598e-08
9.82158e-08
9.71286e-08
9.83768e-08
8.29273e-08
9.72447e-08
3.56192e-08
3.56192e-08
8.73585e-08
3.37488e-08
1.10045e-07
8.73637e-08
1.1003e-07
3.56199e-08
3.56203e-08
6.3794e-07
6.67383e-07
6.57117e-07
6.64359e-07
6.57202e-07
6.37619e-07
6.67712e-07
6.5325e-07
6.91942e-07
6.73158e-07
6.6363e-07
6.64744e-07
6.9165e-07
6.50941e-07
6.52869e-07
6.64713e-07
6.73036e-07
6.90252e-07
6.64851e-07
6.90739e-07
6.52466e-07
6.38014e-07
6.64232e-07
6.56144e-07
6.66519e-07
6.57017e-07
6.67875e-07
6.36185e-07
6.37332e-07
6.67182e-07
6.57013e-07
6.64104e-07
6.67078e-07
6.37429e-07
6.56938e-07
6.52115e-07
6.89883e-07
6.72532e-07
6.64422e-07
6.89907e-07
6.64451e-07
6.52096e-07
6.5216e-07
6.64586e-07
6.9004e-07
6.7258e-07
6.8995e-07
6.52264e-07
6.64496e-07
6.37286e-07
6.64063e-07
6.67003e-07
6.56865e-07
6.67026e-07
6.56896e-07
6.37255e-07
8.73749e-08
3.37562e-08
1.10055e-07
8.73679e-08
1.10072e-07
3.59023e-08
3.69284e-08
3.56233e-08
3.56208e-08
8.28578e-08
6.82372e-08
9.72942e-08
9.80298e-08
9.72878e-08
9.80071e-08
8.287e-08
8.29522e-08
6.82633e-08
9.73118e-08
9.80435e-08
9.74007e-08
9.80694e-08
8.28856e-08
3.56231e-08
3.5624e-08
8.75208e-08
3.36844e-08
1.10069e-07
8.75202e-08
1.10067e-07
3.56229e-08
3.56218e-08
8.75176e-08
3.36837e-08
1.10079e-07
8.75218e-08
1.1006e-07
3.56223e-08
3.56217e-08
3.56218e-08
3.56218e-08
8.27375e-08
6.80541e-08
9.80455e-08
9.7016e-08
9.80395e-08
8.27183e-08
9.70402e-08
8.27268e-08
6.80535e-08
9.80561e-08
9.70249e-08
9.80322e-08
8.27299e-08
9.70396e-08
3.56192e-08
3.56193e-08
8.73587e-08
3.37495e-08
1.10035e-07
8.73588e-08
1.10028e-07
3.56196e-08
3.56195e-08
6.37246e-07
6.56849e-07
6.66975e-07
6.6403e-07
6.56861e-07
6.37231e-07
6.66991e-07
6.52072e-07
6.89858e-07
6.72479e-07
6.64406e-07
6.64404e-07
6.89864e-07
6.52076e-07
6.52068e-07
6.64393e-07
6.72472e-07
6.89852e-07
6.64398e-07
6.89861e-07
6.52066e-07
6.37255e-07
6.64049e-07
6.56866e-07
6.67012e-07
6.5687e-07
6.67009e-07
6.37248e-07
6.37235e-07
6.56835e-07
6.64003e-07
6.66971e-07
6.66974e-07
6.56843e-07
6.37229e-07
6.52066e-07
6.89869e-07
6.7248e-07
6.64413e-07
6.89862e-07
6.52081e-07
6.64397e-07
6.52063e-07
6.64387e-07
6.72474e-07
6.89859e-07
6.89859e-07
6.64393e-07
6.5207e-07
6.37239e-07
6.64005e-07
6.66991e-07
6.56855e-07
6.37243e-07
6.6698e-07
6.56844e-07
8.73582e-08
3.37495e-08
1.10037e-07
8.73593e-08
1.10028e-07
3.56199e-08
3.56191e-08
3.56196e-08
3.56188e-08
8.28594e-08
6.82416e-08
9.72525e-08
9.8025e-08
9.72746e-08
9.80114e-08
8.28486e-08
8.28592e-08
6.82437e-08
9.72609e-08
9.80267e-08
9.72778e-08
9.80127e-08
8.28527e-08
8.27307e-08
6.8051e-08
9.80471e-08
9.70313e-08
9.80297e-08
8.27268e-08
9.70459e-08
8.27363e-08
6.80508e-08
9.80439e-08
9.70255e-08
9.80341e-08
8.27213e-08
9.70493e-08
8.73598e-08
3.37502e-08
1.10044e-07
8.73627e-08
1.10034e-07
3.56206e-08
3.56206e-08
3.56202e-08
3.56203e-08
6.37231e-07
6.66966e-07
6.64027e-07
6.56808e-07
6.56838e-07
6.66987e-07
6.37207e-07
6.52069e-07
6.89864e-07
6.64401e-07
6.7247e-07
6.64392e-07
6.52083e-07
6.89861e-07
6.37241e-07
6.64029e-07
6.56863e-07
6.67007e-07
6.56852e-07
6.37247e-07
6.66993e-07
6.52062e-07
6.6436e-07
6.72465e-07
6.89846e-07
6.64379e-07
6.89858e-07
6.52056e-07
8.73585e-08
3.37496e-08
1.10042e-07
8.73622e-08
1.10033e-07
3.56199e-08
3.562e-08
3.56194e-08
3.56202e-08
6.37211e-07
6.66953e-07
6.56792e-07
6.63968e-07
6.66952e-07
6.37206e-07
6.56795e-07
6.52044e-07
6.89842e-07
6.72441e-07
6.64359e-07
6.8984e-07
6.64345e-07
6.52057e-07
6.52048e-07
6.64349e-07
6.89848e-07
6.72448e-07
6.89845e-07
6.52057e-07
6.64344e-07
6.37212e-07
6.63978e-07
6.66963e-07
6.56809e-07
6.66959e-07
6.56801e-07
6.37217e-07
8.28771e-08
6.82469e-08
9.72718e-08
9.80374e-08
9.72884e-08
9.80225e-08
8.2869e-08
8.28778e-08
6.82466e-08
9.72657e-08
9.80366e-08
9.72912e-08
9.80238e-08
8.28647e-08
3.56225e-08
3.56225e-08
8.75187e-08
3.36841e-08
1.10072e-07
8.75213e-08
1.10065e-07
3.56223e-08
3.56218e-08
8.75186e-08
3.3683e-08
1.10072e-07
8.75211e-08
1.10063e-07
3.56222e-08
3.56222e-08
3.56219e-08
3.56219e-08
8.2728e-08
6.80558e-08
9.80407e-08
9.70123e-08
9.80304e-08
8.27145e-08
9.70365e-08
8.27203e-08
6.80507e-08
9.80384e-08
9.70108e-08
9.80235e-08
8.27133e-08
9.70258e-08
3.56207e-08
3.56207e-08
8.7359e-08
3.37492e-08
1.10037e-07
8.73618e-08
1.10027e-07
3.56211e-08
3.56211e-08
6.37205e-07
6.56785e-07
6.66945e-07
6.63959e-07
6.56793e-07
6.37202e-07
6.66942e-07
6.52039e-07
6.89831e-07
6.72424e-07
6.6434e-07
6.64331e-07
6.89828e-07
6.5205e-07
6.52041e-07
6.64334e-07
6.72433e-07
6.89832e-07
6.64338e-07
6.89833e-07
6.52047e-07
6.37207e-07
6.63952e-07
6.56796e-07
6.66953e-07
6.56785e-07
6.66947e-07
6.37208e-07
6.37215e-07
6.56806e-07
6.63978e-07
6.66957e-07
6.66957e-07
6.56811e-07
6.37211e-07
6.52057e-07
6.89845e-07
6.72449e-07
6.64364e-07
6.89847e-07
6.52063e-07
6.64362e-07
6.52049e-07
6.64355e-07
6.72441e-07
6.89841e-07
6.89841e-07
6.64353e-07
6.52056e-07
6.37221e-07
6.63973e-07
6.66954e-07
6.56807e-07
6.37214e-07
6.66957e-07
6.56815e-07
8.73593e-08
3.37494e-08
1.10036e-07
8.73618e-08
1.10028e-07
3.56216e-08
3.56216e-08
3.56211e-08
3.56212e-08
8.28547e-08
6.82342e-08
9.72429e-08
9.80161e-08
9.72662e-08
9.8004e-08
8.28431e-08
8.28508e-08
6.82336e-08
9.72428e-08
9.80145e-08
9.72598e-08
9.80019e-08
8.28417e-08
8.26946e-08
6.80389e-08
9.8017e-08
9.69687e-08
9.79981e-08
8.26915e-08
9.69803e-08
8.27087e-08
6.80456e-08
9.80225e-08
9.69764e-08
9.80095e-08
8.26969e-08
9.70011e-08
8.73589e-08
3.37485e-08
1.10031e-07
8.73621e-08
1.10021e-07
3.56224e-08
3.56224e-08
3.56213e-08
3.56221e-08
6.37191e-07
6.66899e-07
6.63888e-07
6.56732e-07
6.56744e-07
6.66908e-07
6.37179e-07
6.52034e-07
6.89828e-07
6.64317e-07
6.7242e-07
6.64319e-07
6.52047e-07
6.89822e-07
6.37201e-07
6.63918e-07
6.56764e-07
6.66932e-07
6.56775e-07
6.37203e-07
6.66923e-07
6.52031e-07
6.64298e-07
6.72401e-07
6.89822e-07
6.64294e-07
6.89823e-07
6.52036e-07
8.73597e-08
3.37493e-08
1.10033e-07
8.73625e-08
1.10024e-07
3.56216e-08
3.56217e-08
3.5622e-08
3.5622e-08
6.37198e-07
6.66895e-07
6.56724e-07
6.63891e-07
6.66912e-07
6.37182e-07
6.56766e-07
6.52036e-07
6.89823e-07
6.72399e-07
6.64343e-07