/*--------------------------------*- C++ -*----------------------------------*\
| =========                 |                                                 |
| \\      /  F ield         | OpenFOAM: The Open Source CFD Toolbox           |
|  \\    /   O peration     | Version:  2012                                  |
|   \\  /    A nd           | Website:  www.openfoam.com                      |
|    \\/     M anipulation  |                                                 |
\*---------------------------------------------------------------------------*/
FoamFile
{
    version     2.0;
    format      ascii;
    class       volVectorField;
    location    "0.104/solid";
    object      D;
}
// * * * * * * * * * * * * * * * * * * * * * * * * * * * * * * * * * * * * * //

dimensions      [0 1 0 0 0 0 0];


internalField   nonuniform List<vector> 
3124
(
(3.2202e-11 5.54032e-11 3.72791e-11)
(3.51992e-12 -1.68266e-12 -5.45114e-12)
(1.81778e-11 1.09408e-11 -1.12078e-12)
(-4.38126e-13 -2.92414e-12 2.29581e-11)
(5.25939e-12 -1.95133e-13 1.61308e-11)
(5.51936e-12 -1.33399e-14 1.5768e-11)
(6.12617e-12 -1.25335e-12 -6.66632e-12)
(-1.28546e-13 3.80903e-11 4.85351e-11)
(1.75978e-10 2.28157e-10 3.85651e-11)
(2.15738e-11 1.57522e-11 1.16266e-11)
(-1.8817e-12 -2.44978e-12 2.40927e-11)
(3.1041e-11 1.35624e-11 -7.21105e-12)
(6.75364e-12 1.97811e-11 4.75164e-11)
(-1.03565e-11 -2.01299e-12 5.21992e-11)
(2.69205e-11 1.13949e-11 1.39139e-11)
(1.75857e-10 2.37854e-10 2.09301e-11)
(-5.76153e-12 -4.73005e-12 4.89926e-11)
(1.30284e-12 -3.19291e-13 3.8139e-11)
(5.53044e-12 -1.1838e-13 1.57846e-11)
(5.29135e-12 -7.98911e-14 1.61041e-11)
(1.67528e-12 -1.54872e-13 3.76827e-11)
(1.40972e-12 -2.46063e-13 3.81168e-11)
(1.69024e-12 -1.2819e-13 3.76061e-11)
(1.83984e-11 -2.97146e-12 -3.95709e-12)
(1.15726e-10 -9.38229e-12 4.83979e-11)
(5.72727e-11 -3.94162e-11 -5.37021e-12)
(1.22571e-10 3.35781e-10 6.87669e-11)
(5.66941e-11 3.302e-11 2.30928e-11)
(9.13516e-11 1.46492e-10 8.93879e-11)
(1.41851e-10 6.1892e-10 1.97703e-10)
(3.31708e-11 2.66852e-11 1.84908e-11)
(1.7391e-10 8.78444e-11 5.11561e-11)
(-2.34182e-12 -1.48375e-13 5.75927e-11)
(1.99541e-12 6.30042e-12 5.34175e-11)
(2.71337e-10 4.35469e-10 1.66209e-11)
(2.72738e-10 1.00112e-09 7.75655e-12)
(-2.35552e-12 -2.59034e-12 5.54937e-11)
(1.28261e-12 -2.27703e-12 5.02505e-11)
(-2.41093e-12 -2.56469e-13 4.435e-11)
(-2.25927e-12 -4.11125e-13 4.48652e-11)
(-2.42805e-12 -1.69004e-13 4.42513e-11)
(-2.42441e-12 1.32253e-15 4.42156e-11)
(9.0962e-12 -4.31098e-12 -3.9557e-12)
(1.79157e-11 -1.77116e-12 -4.41113e-12)
(4.5173e-11 -2.9737e-11 -7.5059e-12)
(1.31138e-10 -4.89736e-11 5.26521e-11)
(1.01082e-10 -6.53303e-11 1.86655e-11)
(2.26198e-11 -6.95918e-14 -4.86192e-12)
(3.18075e-11 -1.26494e-10 -9.81517e-11)
(6.53061e-11 -3.72035e-11 1.73845e-12)
(4.26068e-12 -9.31591e-13 1.67317e-11)
(4.4687e-12 -5.82123e-13 1.65651e-11)
(5.61382e-12 -8.22678e-14 1.56825e-11)
(5.63981e-12 1.67271e-14 1.56773e-11)
(1.75219e-11 5.34454e-12 5.83661e-12)
(1.37423e-11 3.25178e-12 -6.14907e-12)
(2.93047e-11 1.5318e-11 8.87213e-12)
(1.34861e-10 2.58389e-11 2.31755e-11)
(9.99409e-12 1.11238e-11 3.91734e-11)
(7.16073e-11 8.82787e-10 6.99021e-12)
(1.71087e-11 3.05968e-11 2.21171e-11)
(1.25089e-10 3.81043e-10 6.67468e-11)
(1.53166e-10 2.01397e-10 7.15076e-11)
(2.48414e-10 9.51044e-10 4.17398e-11)
(2.81792e-10 1.40643e-10 3.62951e-11)
(1.9005e-10 8.05277e-10 1.11108e-10)
(2.24437e-10 4.59107e-10 4.34826e-11)
(2.40135e-10 1.27256e-10 3.90429e-11)
(2.19042e-10 1.21749e-09 2.35283e-11)
(1.55917e-10 1.01545e-09 7.63106e-11)
(1.69856e-11 4.01436e-12 -3.48714e-12)
(1.22394e-11 1.10146e-11 3.19799e-11)
(1.82669e-11 2.04451e-11 1.46678e-11)
(1.95761e-10 3.60996e-11 2.19256e-11)
(1.54678e-10 2.79874e-11 2.20528e-11)
(-1.67306e-11 1.24472e-11 2.28878e-11)
(4.92261e-11 -4.65259e-12 -1.78801e-10)
(-8.71138e-12 1.4351e-11 2.48408e-11)
(8.03643e-12 1.07875e-11 3.84291e-11)
(6.58155e-12 1.07967e-11 4.84407e-11)
(-4.52005e-12 3.92702e-14 6.26072e-11)
(-1.76033e-11 7.73361e-12 4.5255e-11)
(1.41436e-12 1.00328e-11 5.51009e-11)
(9.84709e-12 9.7757e-12 3.36647e-11)
(-7.52465e-12 2.64706e-11 3.04831e-11)
(7.55743e-12 1.40486e-11 4.6579e-11)
(2.60478e-10 4.45062e-10 2.04536e-11)
(1.78599e-10 2.41406e-10 8.95598e-12)
(2.54043e-10 9.55381e-10 3.12333e-11)
(2.76295e-10 1.54156e-10 2.22209e-11)
(2.09166e-10 4.79882e-10 4.05327e-11)
(2.70412e-10 9.90657e-10 1.55932e-11)
(2.81528e-10 1.53031e-10 8.00817e-12)
(1.91785e-10 4.2273e-11 1.14831e-12)
(2.53679e-10 1.29772e-09 9.08109e-12)
(2.3044e-10 1.21731e-09 2.10063e-11)
(2.52045e-10 1.279e-09 1.5515e-11)
(1.92165e-10 4.12183e-11 1.71022e-11)
(1.9157e-10 4.30245e-11 2.66331e-12)
(-4.52129e-12 -3.26087e-12 6.07236e-11)
(-3.25018e-13 -1.88894e-12 3.85666e-11)
(-5.77301e-13 -2.36302e-12 5.15217e-11)
(-1.61447e-12 -9.37316e-13 4.61734e-11)
(2.00468e-13 -2.29069e-12 4.8999e-11)
(4.53486e-13 -9.25055e-13 3.82676e-11)
(-2.93087e-12 -7.78451e-13 4.97774e-11)
(-1.17284e-12 -1.59349e-12 5.11174e-11)
(5.471e-12 -4.16255e-14 1.59391e-11)
(5.47267e-12 -1.40876e-13 1.59616e-11)
(-1.77657e-12 -6.93849e-13 4.58656e-11)
(-2.16464e-12 -4.81216e-13 4.50864e-11)
(-3.8591e-12 -2.36123e-13 4.85111e-11)
(1.61257e-12 -1.90958e-13 3.79378e-11)
(-3.71825e-12 -3.71364e-13 4.89385e-11)
(-3.16023e-12 -5.80433e-13 4.9586e-11)
(1.57953e-12 -1.92739e-13 3.80089e-11)
(-3.61146e-12 -4.01599e-13 4.90898e-11)
(-3.87192e-12 -1.85041e-13 4.84188e-11)
(1.79728e-12 -5.70805e-14 3.74994e-11)
(-3.85178e-12 6.93178e-15 4.83875e-11)
(-2.40614e-12 5.61934e-14 4.43112e-11)
(1.85343e-12 -5.52633e-14 3.75124e-11)
(-3.83329e-12 2.52678e-14 4.84856e-11)
(1.67732e-10 1.61529e-11 7.4436e-11)
(5.77223e-11 2.20381e-11 1.3752e-11)
(-9.95385e-13 5.84607e-14 4.35104e-11)
(-7.45179e-13 1.42373e-12 4.34326e-11)
(-2.49681e-13 -1.23855e-12 4.22013e-11)
(7.21351e-13 -3.43273e-13 4.14345e-11)
(-1.77372e-12 -1.94974e-13 3.36777e-11)
(-1.75793e-12 -2.70473e-13 3.3823e-11)
(-1.78441e-12 -1.41569e-13 3.35878e-11)
(-1.80397e-12 -7.64196e-14 3.35372e-11)
(3.74192e-11 -1.52064e-11 -1.30833e-11)
(3.81804e-12 -2.49088e-12 -3.7002e-12)
(7.85617e-12 -1.49787e-12 -8.15565e-12)
(6.08112e-12 1.94712e-12 -1.9824e-11)
(3.11989e-11 -3.01353e-12 -3.13181e-11)
(1.00997e-11 -4.55522e-12 -5.77443e-12)
(6.3109e-12 -1.34883e-12 -7.58891e-12)
(8.72939e-11 3.04693e-11 -5.00251e-11)
(2.10458e-11 3.44351e-11 -5.47094e-11)
(1.64317e-11 8.72792e-12 3.70041e-13)
(1.71166e-11 6.92456e-12 -5.27003e-12)
(3.12267e-11 2.31444e-11 1.35622e-11)
(-4.12759e-11 8.26871e-11 -2.31448e-11)
(2.70608e-11 1.07172e-11 -1.23987e-12)
(-6.33923e-12 -2.00154e-13 2.63405e-12)
(3.17309e-12 -2.68956e-12 1.89906e-11)
(-6.71761e-13 -2.32058e-13 1.90698e-12)
(5.11148e-12 -1.94935e-13 1.62502e-11)
(2.0206e-12 -2.10618e-14 1.4413e-12)
(1.94419e-12 -3.36193e-14 1.4567e-12)
(2.3241e-12 -7.92222e-15 1.37272e-12)
(5.5712e-12 -9.82487e-14 1.57422e-11)
(2.44975e-12 -5.66555e-15 1.34448e-12)
(5.76236e-12 -4.07179e-14 1.56846e-11)
(2.7272e-12 -2.13456e-14 1.30459e-12)
(8.19333e-11 9.93541e-12 -2.69971e-11)
(1.13446e-11 -1.53835e-13 -4.17369e-12)
(1.15764e-11 -5.97574e-13 -1.13156e-11)
(7.04504e-12 2.93301e-12 -2.32652e-11)
(3.04517e-11 -2.04239e-13 -4.70974e-11)
(2.14137e-11 3.12469e-13 -8.0282e-12)
(1.67519e-11 4.62787e-12 -2.36083e-11)
(5.87306e-11 1.32059e-10 2.16142e-10)
(-1.15125e-13 2.43923e-11 5.16328e-11)
(-1.91509e-11 6.83456e-11 1.61755e-10)
(-9.72495e-12 3.76543e-11 5.3234e-11)
(2.01908e-11 1.64685e-11 3.13654e-11)
(1.27467e-11 2.74044e-11 5.77336e-11)
(1.64455e-11 1.44156e-11 2.08215e-12)
(1.48949e-11 1.59927e-11 2.02419e-11)
(2.45804e-11 2.1745e-11 -1.47973e-11)
(1.28662e-11 1.94323e-11 9.25042e-11)
(1.76372e-11 1.5013e-11 9.65421e-12)
(-9.22888e-12 -1.21467e-13 2.7953e-12)
(-9.94148e-12 1.75365e-13 2.62147e-11)
(-2.38344e-11 2.29417e-13 4.19186e-12)
(9.77393e-11 2.02713e-10 -9.09769e-11)
(1.30378e-11 3.48031e-11 -2.77902e-12)
(5.04234e-11 1.64402e-11 -3.55296e-11)
(3.84367e-11 4.21109e-11 -4.43657e-12)
(1.00502e-11 7.03848e-11 -2.00482e-10)
(2.8903e-11 6.72711e-11 1.96335e-12)
(5.16412e-11 8.29605e-11 -2.63793e-11)
(-8.35982e-12 -3.21404e-13 5.97211e-11)
(-1.54184e-11 2.0627e-12 5.29683e-11)
(-9.83674e-12 4.12032e-12 5.84891e-11)
(2.40639e-11 2.61909e-11 8.91283e-11)
(1.40158e-11 2.73305e-11 4.98492e-11)
(1.57524e-11 1.06058e-11 2.63763e-11)
(2.77187e-11 2.40073e-11 1.42545e-11)
(1.40806e-11 2.06861e-11 1.14398e-10)
(2.69309e-11 4.75598e-11 3.18954e-11)
(1.64111e-11 1.20421e-11 2.65178e-11)
(-6.0998e-12 -4.13599e-12 5.80054e-11)
(-2.75481e-12 -5.13436e-12 4.40192e-11)
(-3.96133e-12 -5.5601e-12 5.32836e-11)
(-1.47855e-12 -6.81484e-13 3.53459e-11)
(-1.50284e-12 -1.11982e-12 3.55896e-11)
(1.16465e-12 -4.21975e-13 3.81952e-11)
(-2.34603e-12 -3.02606e-13 4.79844e-11)
(-2.26099e-12 -3.92133e-13 4.78981e-11)
(2.32609e-12 -8.99077e-15 1.37061e-12)
(5.53373e-12 -3.52118e-14 1.58633e-11)
(2.37414e-12 -1.04036e-14 1.36033e-12)
(2.01581e-12 -1.80346e-14 1.44545e-12)
(5.41768e-12 -1.54769e-13 1.60566e-11)
(2.21169e-12 -1.40414e-14 1.3979e-12)
(-1.48335e-12 -5.46624e-13 3.51812e-11)
(-1.53023e-12 -5.01095e-13 3.49553e-11)
(-2.54281e-12 -1.79149e-13 4.77582e-11)
(1.64747e-12 -1.70305e-13 3.77784e-11)
(-2.54788e-12 -2.15655e-13 4.7848e-11)
(-2.40487e-12 -2.49042e-13 4.80727e-11)
(1.47168e-12 -2.21217e-13 3.81065e-11)
(-2.44574e-12 -2.33612e-13 4.81109e-11)
(-2.53196e-12 -1.60299e-13 4.76759e-11)
(1.69844e-12 -1.03621e-13 3.75651e-11)
(-2.51839e-12 -1.08264e-13 4.76156e-11)
(-1.6893e-12 -1.1293e-14 3.39226e-11)
(1.94124e-12 -2.05775e-13 3.75908e-11)
(-2.3624e-12 -1.73904e-13 4.78527e-11)
(1.14536e-10 4.65254e-12 3.78695e-12)
(3.56868e-11 2.34107e-11 8.94607e-12)
(3.02941e-11 -9.23523e-12 -5.39398e-12)
(3.81302e-11 -7.37033e-12 -5.66913e-12)
(8.0913e-11 -3.24838e-11 -3.85863e-12)
(5.89785e-11 9.5411e-12 1.5908e-12)
(7.39783e-11 4.74237e-11 2.00972e-11)
(1.73185e-10 -1.14743e-11 6.62071e-11)
(3.21693e-10 -4.87729e-11 1.31087e-10)
(9.50034e-11 -4.19413e-11 9.34359e-12)
(2.17436e-10 -1.43495e-10 5.47646e-11)
(5.22109e-11 6.4951e-12 7.20696e-12)
(1.4596e-10 -2.5668e-11 3.4947e-11)
(1.44332e-10 -1.03878e-10 -1.23727e-11)
(3.87192e-11 -2.11857e-11 -5.84915e-12)
(7.07338e-11 -4.68532e-11 -1.005e-12)
(9.26263e-11 -4.74516e-11 1.99035e-12)
(2.04241e-10 -1.58707e-10 4.75039e-11)
(5.55314e-11 -1.63069e-11 -8.29185e-13)
(1.76612e-10 2.46633e-10 9.72219e-11)
(1.64685e-10 5.89176e-10 1.12171e-10)
(4.1977e-11 2.0354e-10 4.8619e-11)
(3.12411e-10 2.45199e-10 6.42385e-11)
(2.24585e-10 1.44949e-10 5.91522e-11)
(9.77293e-11 4.24162e-10 1.1498e-10)
(2.59292e-10 4.08269e-10 9.35915e-11)
(1.11209e-10 1.35812e-10 8.12819e-11)
(9.05375e-11 8.32649e-11 6.20984e-11)
(4.06205e-11 2.11539e-11 1.82739e-11)
(3.24723e-11 4.75339e-11 2.5966e-11)
(1.2663e-10 7.61596e-11 6.03282e-11)
(8.3058e-11 1.82874e-10 7.92132e-11)
(3.86444e-11 3.82374e-11 2.67346e-11)
(9.04296e-13 1.40274e-13 4.40804e-11)
(5.62721e-13 3.22394e-12 4.25897e-11)
(-5.87718e-13 -4.25088e-14 5.13303e-11)
(-1.89712e-12 2.88324e-12 5.76545e-11)
(-3.12645e-13 2.25231e-12 5.13517e-11)
(2.85194e-12 2.76907e-12 4.96094e-11)
(-7.0246e-13 6.61331e-12 5.57197e-11)
(8.02681e-13 4.87425e-12 4.99122e-11)
(3.40051e-10 8.04516e-10 7.51608e-12)
(4.9945e-10 3.49895e-10 5.33153e-12)
(4.2668e-10 5.71685e-10 4.25492e-12)
(-5.24071e-13 -1.8991e-12 4.93942e-11)
(-1.3078e-12 -2.79482e-12 5.28442e-11)
(2.2297e-13 -1.30692e-12 4.76697e-11)
(4.04174e-13 -2.62032e-12 4.17473e-11)
(1.15343e-12 -6.85753e-13 4.27368e-11)
(6.68523e-13 -2.41432e-12 5.1323e-11)
(1.70566e-12 -2.4016e-12 4.73935e-11)
(1.74229e-12 -1.19198e-12 4.80347e-11)
(-1.67533e-12 -3.68452e-13 3.41928e-11)
(-1.72689e-12 -3.08888e-13 3.3993e-11)
(-1.34972e-12 -2.38498e-13 3.94656e-11)
(-2.36204e-12 -3.31279e-13 4.45194e-11)
(-1.32194e-12 -3.15851e-13 3.96375e-11)
(-1.22053e-12 -4.10176e-13 4.00092e-11)
(-2.31609e-12 -3.58882e-13 4.4692e-11)
(-1.28077e-12 -3.5151e-13 3.98177e-11)
(-1.36505e-12 -1.57577e-13 3.93667e-11)
(-2.42144e-12 -1.03548e-13 4.42203e-11)
(-1.37831e-12 -9.25829e-14 3.93321e-11)
(-1.79207e-12 2.81614e-14 3.35358e-11)
(-1.80581e-12 -4.24961e-14 3.35198e-11)
(-2.41933e-12 -6.19971e-14 4.42069e-11)
(-1.3706e-12 1.28188e-14 3.9323e-11)
(-1.38011e-12 -5.32772e-14 3.9317e-11)
(4.24053e-11 -1.99846e-11 -1.0979e-11)
(6.01635e-12 -3.56902e-12 -3.18162e-12)
(2.1216e-11 -1.06177e-11 -5.9422e-12)
(2.1786e-11 -7.91987e-12 -8.0844e-12)
(6.7435e-11 -3.19057e-11 -6.8866e-12)
(1.468e-11 -8.08834e-12 -5.41803e-12)
(7.4343e-12 -2.28505e-12 -4.49473e-12)
(4.62003e-11 -1.94309e-11 -1.25243e-11)
(1.26438e-11 -1.19033e-12 -6.07257e-12)
(4.52139e-11 -4.20459e-12 -5.89376e-12)
(2.59749e-11 -9.07116e-12 -6.44488e-12)
(7.69531e-11 -2.68649e-11 -1.91791e-11)
(3.57038e-11 -4.89902e-12 -2.21927e-11)
(1.77832e-11 -6.82244e-12 -5.55276e-12)
(5.26189e-11 -2.56652e-11 -1.12476e-11)
(1.48605e-10 -1.06102e-10 -1.7084e-12)
(3.03988e-11 -1.81798e-11 -6.34892e-12)
(3.38242e-11 -1.85746e-11 -8.13258e-12)
(8.04884e-11 -4.45893e-11 -2.85424e-12)
(9.32374e-11 -4.15321e-11 -2.14368e-11)
(2.35603e-11 -1.31059e-11 -6.31347e-12)
(3.8228e-10 -7.41262e-11 1.25969e-10)
(6.71101e-11 -4.68597e-11 4.75129e-12)
(2.59927e-10 -2.04176e-10 7.42338e-11)
(1.66401e-10 -1.35076e-10 6.33786e-11)
(6.3694e-10 -3.71506e-10 6.6407e-10)
(2.09596e-10 -1.85066e-10 2.95047e-11)
(1.49069e-10 -1.19491e-10 2.35319e-11)
(2.479e-10 -2.04836e-10 9.83645e-11)
(2.68175e-10 -2.47842e-10 5.74772e-11)
(5.10827e-10 -3.44988e-10 4.51654e-10)
(9.55562e-11 4.83716e-12 -4.28447e-11)
(2.21113e-11 7.23397e-12 -3.4346e-12)
(4.71784e-11 -1.45033e-12 -6.44535e-12)
(3.31634e-11 -7.26707e-12 -9.16674e-12)
(8.72391e-11 -2.60207e-11 -2.31895e-11)
(3.9563e-11 1.7179e-11 6.57188e-14)
(3.7443e-11 3.61999e-12 -9.60051e-12)
(1.24437e-10 2.44678e-11 -2.90199e-11)
(2.71192e-11 -3.00791e-12 -3.85827e-12)
(-6.39279e-10 5.89235e-10 -1.00619e-09)
(1.48422e-10 -1.11536e-10 3.94352e-11)
(4.3676e-10 -1.87977e-10 2.1605e-10)
(-8.24259e-11 1.2652e-10 4.18183e-11)
(4.95306e-11 -2.64602e-12 7.58509e-12)
(1.45959e-10 -2.6516e-11 -6.23345e-11)
(1.91339e-10 -1.43759e-10 9.28888e-12)
(4.54891e-11 -2.08799e-11 -9.77499e-12)
(9.57666e-11 -6.30448e-11 2.58753e-11)
(1.10016e-10 -4.28591e-11 -2.73624e-11)
(3.91245e-10 -2.09442e-10 2.18182e-10)
(5.1677e-11 -1.27589e-11 -7.52682e-12)
(3.20554e-12 -2.13514e-12 1.81425e-11)
(1.19311e-12 -1.08722e-13 1.62799e-12)
(-1.0653e-13 -2.14952e-13 1.85371e-12)
(5.01369e-12 -3.4312e-13 1.63042e-11)
(1.35958e-12 -8.37964e-14 1.5906e-12)
(1.87782e-12 -4.15864e-14 1.47489e-12)
(5.58408e-12 6.02904e-15 1.57297e-11)
(2.4646e-12 -5.70704e-15 1.35041e-12)
(2.47674e-12 -5.75954e-15 1.33899e-12)
(5.73221e-12 -1.13239e-13 1.56892e-11)
(2.49676e-12 -6.14853e-15 1.34568e-12)
(2.68449e-12 -1.54597e-14 1.31238e-12)
(4.07391e-10 1.13193e-10 7.90303e-11)
(2.12683e-10 8.85801e-11 3.48669e-11)
(3.9976e-11 2.6594e-11 -1.78245e-11)
(1.39347e-11 3.2739e-12 1.88628e-12)
(2.44752e-11 1.70102e-11 3.00409e-12)
(5.39761e-11 5.32747e-12 1.55234e-11)
(4.06852e-11 3.58703e-11 -4.18644e-11)
(2.25967e-11 6.7541e-12 -4.33369e-13)
(3.79498e-11 1.49356e-11 9.49959e-12)
(7.22369e-11 4.70381e-12 -4.65352e-11)
(1.24028e-11 1.9715e-12 -9.92742e-12)
(4.01093e-11 -1.35889e-12 -1.12239e-11)
(1.84837e-11 6.61216e-12 -7.78042e-12)
(3.41982e-11 -2.28663e-12 -3.81475e-11)
(3.70361e-11 4.98943e-12 -3.41983e-11)
(2.20591e-11 1.79085e-12 -1.05492e-11)
(5.2081e-11 5.25897e-13 -5.21717e-11)
(6.70558e-11 6.02058e-11 3.88433e-11)
(3.43346e-11 1.67653e-11 8.32091e-12)
(2.68872e-11 7.26505e-12 -2.405e-12)
(1.42889e-10 6.70928e-11 2.55212e-11)
(4.16567e-11 9.53398e-12 -3.21522e-11)
(3.12166e-11 3.28793e-12 -2.57736e-12)
(4.00361e-10 2.80844e-11 9.5047e-11)
(8.76372e-11 7.56208e-12 1.79575e-11)
(1.23066e-10 2.90408e-11 3.66783e-11)
(-1.25519e-12 8.27438e-10 6.0097e-11)
(2.52587e-11 4.32615e-10 1.22311e-10)
(-5.08179e-11 1.38794e-10 2.27632e-10)
(1.00599e-10 8.58751e-11 2.79129e-10)
(3.01082e-11 4.61554e-11 3.57814e-11)
(3.57317e-11 2.43485e-10 1.2786e-10)
(-3.38444e-12 4.8651e-11 3.99157e-11)
(2.75591e-11 8.92269e-11 2.24728e-10)
(6.88723e-12 1.22894e-11 4.6676e-11)
(8.29732e-12 2.6652e-11 1.33291e-10)
(1.42652e-11 1.93103e-11 4.1175e-11)
(8.40317e-12 4.27527e-11 1.44289e-10)
(1.23177e-11 3.83842e-11 1.30966e-10)
(8.90349e-12 2.83796e-11 5.19961e-11)
(3.67793e-11 8.83521e-10 6.85479e-11)
(8.60206e-11 2.83872e-10 1.25439e-10)
(2.84322e-11 4.38032e-10 1.46153e-10)
(3.67871e-12 1.35417e-10 2.31696e-10)
(4.50951e-11 9.10281e-11 3.04247e-11)
(2.24271e-11 3.64695e-11 2.67621e-11)
(1.07848e-11 3.27342e-11 3.40932e-11)
(6.05825e-11 1.57288e-10 1.50525e-10)
(9.53629e-12 4.67443e-11 1.51913e-10)
(6.90186e-12 4.78987e-11 3.99661e-11)
(3.63853e-10 5.32645e-10 7.06527e-11)
(2.09357e-10 7.0281e-10 7.96782e-11)
(1.98675e-10 4.21792e-10 6.76326e-11)
(3.7567e-10 2.94553e-10 7.36115e-11)
(3.06567e-10 4.75947e-10 8.92818e-11)
(2.57733e-10 7.63902e-10 6.71927e-11)
(4.41462e-10 3.27474e-10 5.74788e-11)
(3.97022e-10 5.52208e-10 6.21516e-11)
(2.23617e-10 4.19274e-10 6.21653e-11)
(2.98324e-10 8.13941e-10 5.0131e-11)
(4.88061e-10 3.58058e-10 6.26373e-11)
(2.90662e-10 7.94444e-10 5.59356e-11)
(4.87186e-10 3.33622e-10 5.94509e-11)
(4.05506e-10 5.7299e-10 5.64675e-11)
(2.07091e-11 8.91637e-10 4.55868e-11)
(7.22438e-11 9.884e-10 4.48569e-11)
(2.05368e-10 1.19838e-09 3.34725e-11)
(1.51224e-10 1.10646e-09 3.27275e-11)
(1.30947e-10 1.08226e-09 4.26699e-11)
(6.70664e-11 9.42845e-10 6.06075e-11)
(1.80555e-10 1.14739e-09 4.04342e-11)
(1.18248e-10 1.06246e-09 4.57962e-11)
(1.03121e-10 1.02945e-09 3.63422e-11)
(8.54771e-11 1.00534e-09 4.15706e-11)
(2.19292e-11 1.55203e-11 2.76624e-11)
(1.74104e-11 7.90528e-12 -2.9599e-12)
(4.04451e-11 9.67161e-13 -8.40877e-12)
(1.74702e-11 9.52331e-12 -8.98558e-13)
(3.2263e-11 1.61051e-11 -2.25386e-11)
(3.16816e-11 7.22749e-12 -1.02745e-11)
(1.89468e-11 1.08555e-11 3.64469e-12)
(1.70585e-11 1.80543e-11 5.36659e-11)
(1.32094e-11 1.30454e-11 2.5584e-11)
(8.99385e-12 2.32218e-11 1.21837e-10)
(1.64384e-11 1.47916e-11 2.99124e-11)
(1.04969e-11 3.29196e-11 1.18833e-10)
(1.30796e-11 1.87892e-11 9.65164e-11)
(1.72416e-11 1.3884e-11 1.949e-11)
(1.84677e-11 1.71201e-11 4.68905e-11)
(3.94378e-11 5.81449e-11 5.14697e-11)
(2.00013e-11 1.40077e-11 5.3602e-12)
(1.73523e-11 2.03028e-11 2.49614e-11)
(3.14432e-11 1.08372e-11 -7.46983e-12)
(1.05459e-11 3.5255e-11 1.21487e-10)
(1.91224e-11 1.46094e-11 1.3785e-11)
(4.26457e-10 1.45865e-10 7.74921e-11)
(5.4749e-10 1.50956e-10 5.62272e-11)
(5.88314e-10 6.42512e-11 5.24381e-11)
(1.93718e-10 3.20743e-11 1.89429e-11)
(5.91851e-10 4.74009e-11 4.49614e-11)
(5.72671e-10 1.83507e-10 6.01061e-11)
(5.78991e-10 1.50487e-10 5.58651e-11)
(4.23944e-10 7.0125e-11 4.78852e-11)
(1.78444e-10 3.13085e-11 2.07661e-11)
(5.35713e-10 5.3227e-11 5.22838e-11)
(-1.29382e-11 1.71687e-12 2.63395e-11)
(-5.1846e-11 5.46741e-13 8.18802e-12)
(-3.03394e-11 7.0277e-13 4.73443e-12)
(1.75623e-10 2.76003e-10 -1.40881e-10)
(3.861e-11 1.86213e-11 -8.95463e-11)
(-1.55743e-09 1.9658e-10 -2.96544e-09)
(8.91157e-11 2.17563e-10 8.42787e-12)
(-1.29944e-11 -5.4978e-12 -2.98833e-10)
(1.14795e-09 5.51397e-10 -6.19789e-11)
(7.71776e-11 1.60185e-10 -6.45406e-11)
(1.19626e-10 2.69303e-10 -7.87434e-13)
(2.14713e-11 2.13371e-11 4.35985e-12)
(-4.14219e-11 2.17719e-11 8.36201e-12)
(3.45907e-11 8.26397e-11 3.01979e-11)
(2.39838e-11 4.39645e-11 -3.81624e-12)
(1.61202e-10 3.72474e-10 -5.05638e-11)
(5.0363e-11 2.29134e-10 3.52617e-11)
(3.93408e-10 7.64772e-10 5.84779e-10)
(3.41021e-11 8.39484e-11 -1.44468e-11)
(7.11953e-12 3.42232e-11 1.61541e-10)
(1.09597e-11 6.67659e-12 4.20861e-11)
(7.79105e-12 1.72769e-11 4.46987e-11)
(1.08811e-11 3.21861e-11 1.59927e-10)
(5.85058e-12 8.79229e-12 4.62997e-11)
(7.59954e-12 1.40656e-11 4.37199e-11)
(8.33811e-12 2.47727e-11 1.52251e-10)
(5.57055e-12 1.53776e-11 4.45116e-11)
(-6.3286e-12 2.62531e-13 6.35695e-11)
(-3.84859e-12 3.70716e-12 6.22157e-11)
(-6.22457e-12 4.51297e-12 6.24336e-11)
(-1.83292e-11 1.05355e-11 4.96788e-11)
(-4.58703e-12 1.5636e-11 4.65999e-11)
(-9.81765e-12 1.0515e-11 5.41949e-11)
(-2.14764e-12 8.46268e-12 5.95804e-11)
(-2.68351e-13 1.31494e-11 5.22574e-11)
(-4.67347e-12 1.00965e-11 5.87831e-11)
(1.60354e-11 2.31979e-11 7.79682e-11)
(1.08355e-11 9.53461e-12 2.97601e-11)
(1.3081e-11 1.93167e-11 9.94294e-11)
(1.06421e-11 1.15034e-11 3.60744e-11)
(1.33677e-11 2.00807e-11 1.15409e-10)
(1.3322e-11 2.71086e-11 1.10741e-10)
(1.19417e-11 1.08151e-11 3.01919e-11)
(2.08089e-11 2.28148e-11 1.11002e-10)
(2.46878e-11 4.19953e-11 2.15344e-11)
(-2.57354e-12 2.17531e-11 3.41575e-11)
(2.91512e-11 4.3049e-11 4.97773e-11)
(9.73859e-12 1.74139e-11 2.86849e-11)
(1.3248e-11 1.91672e-11 1.09137e-10)
(1.03723e-11 1.37682e-11 3.96375e-11)
(7.84218e-12 1.80742e-11 3.97883e-11)
(1.07196e-11 2.4192e-11 1.46057e-10)
(1.21903e-11 1.45113e-11 3.29474e-11)
(4.04352e-10 5.76088e-10 1.75061e-11)
(2.3202e-10 4.67962e-10 3.17486e-11)
(3.27534e-10 8.05582e-10 1.40451e-11)
(4.84854e-10 3.59057e-10 7.12634e-12)
(4.17234e-10 5.72774e-10 9.35173e-12)
(3.12942e-10 8.07086e-10 1.89846e-11)
(4.68142e-10 3.70977e-10 1.84172e-11)
(3.95801e-10 5.79749e-10 2.83351e-11)
(2.18352e-10 4.79745e-10 3.44219e-11)
(2.93019e-10 8.17524e-10 3.71233e-11)
(4.65679e-10 3.76363e-10 5.33943e-11)
(3.96965e-10 5.78087e-10 4.46006e-11)
(2.98375e-10 8.13071e-10 2.84691e-11)
(4.57176e-10 3.81285e-10 2.86976e-11)
(5.65144e-10 1.87111e-10 7.08088e-12)
(5.58239e-10 8.57337e-11 4.28785e-12)
(1.45524e-10 1.02288e-09 1.11284e-11)
(1.91119e-10 1.12472e-09 1.12715e-11)
(1.42303e-10 1.02067e-09 1.47182e-11)
(1.2927e-10 1.0133e-09 2.19071e-11)
(1.54995e-10 1.10466e-09 2.9863e-11)
(2.39457e-10 1.22579e-09 2.14747e-11)
(1.71697e-10 1.10052e-09 2.38528e-11)
(1.05597e-10 1.0278e-09 3.19778e-11)
(1.22905e-10 1.01576e-09 2.58102e-11)
(1.88756e-10 1.12049e-09 1.3756e-11)
(2.46823e-10 1.25073e-09 2.04466e-11)
(1.76976e-10 1.10282e-09 2.14122e-11)
(5.5755e-10 1.92228e-10 8.0826e-12)
(5.32432e-10 2.10915e-10 2.1145e-11)
(5.42029e-10 9.78055e-11 4.27971e-11)
(1.90355e-10 4.39178e-11 9.56429e-12)
(5.31057e-10 1.08584e-10 2.44977e-11)
(5.5108e-10 1.99296e-10 5.56465e-11)
(5.26372e-10 2.16028e-10 2.49928e-11)
(5.48065e-10 9.38888e-11 6.94154e-12)
(1.91256e-10 4.40277e-11 5.90646e-12)
(5.39825e-10 1.02522e-10 1.60495e-11)
(-5.50616e-12 -3.67783e-12 6.2094e-11)
(-3.21014e-12 -4.44566e-12 5.69812e-11)
(-3.90308e-12 -5.45798e-12 5.76772e-11)
(-1.29625e-12 -3.63132e-12 4.02504e-11)
(-2.40583e-12 -2.00397e-12 4.70884e-11)
(-2.85051e-12 -4.25084e-12 4.88755e-11)
(-1.33778e-12 -3.85538e-12 5.34168e-11)
(-2.10694e-12 -2.34194e-12 5.08497e-11)
(-2.55596e-12 -4.58461e-12 5.30547e-11)
(-7.34566e-13 -3.03961e-12 3.86167e-11)
(-1.36959e-12 -2.01363e-12 3.63744e-11)
(-8.6305e-13 -8.98619e-13 4.14122e-11)
(-1.37131e-12 -1.36614e-12 4.67052e-11)
(-7.97445e-13 -1.39167e-12 4.19058e-11)
(3.84628e-13 -2.91255e-12 4.50512e-11)
(-8.69785e-13 -1.91756e-12 4.76371e-11)
(-5.22008e-13 -2.20208e-12 4.29481e-11)
(9.19233e-13 -5.91944e-13 3.82374e-11)
(-2.17197e-12 -7.7527e-13 4.73224e-11)
(-2.15795e-12 -4.93136e-13 4.77257e-11)
(-3.47067e-12 -5.12674e-13 5.09248e-11)
(-2.59055e-12 -1.07921e-12 5.01367e-11)
(-3.17889e-12 -6.80748e-13 5.10149e-11)
(-2.29392e-12 -1.0754e-12 5.09042e-11)
(-2.0264e-12 -1.37187e-12 5.06714e-11)
(-2.74954e-12 -8.24575e-13 5.10954e-11)
(5.53391e-12 -1.39646e-13 1.58868e-11)
(2.21919e-12 -1.1517e-14 1.39798e-12)
(2.35649e-12 -1.11428e-14 1.3659e-12)
(5.44239e-12 -4.96833e-14 1.60339e-11)
(2.22361e-12 -1.22073e-14 1.39547e-12)
(2.23292e-12 -1.28391e-14 1.3926e-12)
(-1.63133e-12 -4.16242e-13 3.44189e-11)
(-1.58024e-12 -4.85467e-13 3.46853e-11)
(-9.12819e-13 -6.74753e-13 4.11173e-11)
(-1.91638e-12 -5.92506e-13 4.56203e-11)
(-9.92672e-13 -5.90387e-13 4.08468e-11)
(-1.15575e-12 -4.81098e-13 4.02522e-11)
(-2.04493e-12 -5.50086e-13 4.5354e-11)
(-1.07797e-12 -5.55283e-13 4.05474e-11)
(-4.15299e-12 -2.10133e-13 5.03065e-11)
(-3.80448e-12 -3.01947e-13 4.86289e-11)
(-4.15282e-12 -2.61569e-13 5.03982e-11)
(1.62291e-12 -1.90634e-13 3.78678e-11)
(-2.53468e-12 -2.35119e-13 4.80413e-11)
(-2.54529e-12 -2.28148e-13 4.79465e-11)
(-3.76273e-12 -3.403e-13 4.87784e-11)
(-4.0813e-12 -3.01184e-13 5.06478e-11)
(-4.12766e-12 -2.90434e-13 5.05201e-11)
(-3.67048e-12 -3.94164e-13 5.09069e-11)
(-3.33189e-12 -4.98684e-13 4.94377e-11)
(-3.80652e-12 -3.55201e-13 5.08786e-11)
(1.53021e-12 -1.96091e-13 3.80662e-11)
(-2.52117e-12 -2.06876e-13 4.80899e-11)
(-2.49439e-12 -2.28499e-13 4.81029e-11)
(-3.47225e-12 -4.61022e-13 4.92607e-11)
(-4.01397e-12 -2.87936e-13 5.07225e-11)
(-3.91574e-12 -3.45534e-13 5.07928e-11)
(-4.15406e-12 -1.81739e-13 5.02205e-11)
(-3.84668e-12 -1.21745e-13 4.83553e-11)
(-4.15738e-12 -1.22683e-13 5.01483e-11)
(1.73738e-12 -7.34193e-14 3.75291e-11)
(-2.46352e-12 -2.11093e-14 4.7609e-11)
(-2.49528e-12 -7.00175e-14 4.75927e-11)
(-3.83839e-12 -5.52646e-14 4.8342e-11)
(-4.1051e-12 -2.44465e-15 5.01761e-11)
(-4.14101e-12 -5.9918e-14 5.01315e-11)
(-1.77122e-12 6.17532e-14 3.36178e-11)
(-1.74778e-12 7.13276e-14 3.37535e-11)
(-2.3028e-12 -1.14114e-13 4.46656e-11)
(-1.25432e-12 -6.28618e-14 3.97616e-11)
(-1.34907e-12 6.59641e-14 3.94129e-11)
(-2.3552e-12 2.72531e-14 4.4483e-11)
(-1.31455e-12 5.32252e-14 3.958e-11)
(1.89135e-12 -1.04354e-13 3.75555e-11)
(-2.43039e-12 -2.43809e-14 4.76675e-11)
(-2.39574e-12 -5.61027e-14 4.77501e-11)
(-3.73115e-12 -1.37901e-13 4.87852e-11)
(-4.02571e-12 -1.58922e-13 5.05032e-11)
(-4.07517e-12 -2.01919e-15 5.02593e-11)
(-3.7716e-12 -1.38082e-14 4.86123e-11)
(-4.05944e-12 -4.01299e-14 5.0358e-11)
(-1.86778e-11 -2.56638e-12 4.27032e-11)
(5.22183e-13 -2.61195e-12 1.75893e-11)
(-2.75039e-11 -3.93724e-12 7.84151e-11)
(1.47355e-12 -3.15259e-12 2.14937e-11)
(-2.35343e-11 -2.51637e-12 4.66705e-11)
(-2.23968e-11 -3.94432e-12 7.27179e-11)
(2.50395e-12 -2.67144e-12 1.63329e-11)
(-6.95001e-12 -2.05219e-13 3.03377e-11)
(-1.08517e-11 -2.72346e-13 5.76252e-11)
(5.21936e-12 -1.42925e-13 1.61864e-11)
(6.78748e-12 -1.51163e-13 1.16168e-11)
(-1.09865e-11 -3.67034e-13 5.79533e-11)
(-6.85169e-12 -2.08706e-13 3.00148e-11)
(6.77579e-12 -9.25267e-14 1.16801e-11)
(-6.07852e-12 -7.72908e-14 2.91424e-11)
(7.06674e-12 -9.91403e-16 1.12641e-11)
(-1.02042e-11 -1.06066e-13 5.68028e-11)
(5.53553e-12 -8.21842e-14 1.57809e-11)
(-6.12643e-12 -4.15404e-14 2.90162e-11)
(-1.01745e-11 -5.19802e-14 5.68664e-11)
(7.11232e-12 -8.07426e-14 1.12789e-11)
(-3.30616e-11 -2.07052e-12 5.22437e-11)
(-1.42356e-12 -2.59167e-12 1.85742e-11)
(-3.05905e-11 -3.04979e-12 8.07588e-11)
(-4.46079e-12 -1.83137e-12 2.51797e-11)
(-2.66328e-11 -2.31424e-12 4.83349e-11)
(-3.61965e-11 -2.66688e-12 8.4355e-11)
(-4.62984e-12 -2.36101e-12 1.9761e-11)
(4.61556e-12 3.90146e-11 1.26742e-10)
(1.64126e-12 1.67895e-11 4.46824e-11)
(1.67944e-11 6.00881e-11 1.24917e-10)
(8.25036e-12 1.5117e-11 4.48659e-11)
(1.81744e-11 3.39618e-11 1.28568e-10)
(4.61731e-12 3.55412e-11 1.29811e-10)
(3.22101e-12 1.42078e-11 4.31218e-11)
(-6.13975e-12 -4.93503e-14 2.92667e-11)
(7.07756e-12 -8.50846e-14 1.12724e-11)
(-1.01885e-11 -9.3943e-14 5.68145e-11)
(5.52499e-12 -5.0251e-14 1.58353e-11)
(-6.10956e-12 -7.99763e-14 2.90108e-11)
(-1.0271e-11 -1.50676e-13 5.71091e-11)
(7.10984e-12 -1.06309e-14 1.13193e-11)
(-6.72211e-12 -1.79269e-13 3.00026e-11)
(-1.08232e-11 -2.61738e-13 5.76942e-11)
(6.81159e-12 -5.79844e-14 1.15919e-11)
(5.3329e-12 -1.44235e-13 1.61097e-11)
(-6.82016e-12 -1.53298e-13 2.99674e-11)
(-1.07564e-11 -1.92301e-13 5.77129e-11)
(6.88573e-12 -1.34303e-13 1.15877e-11)
(2.19032e-10 3.76769e-10 8.59627e-11)
(1.27407e-10 4.97074e-10 7.37734e-11)
(9.31581e-11 2.97087e-10 5.86326e-11)
(2.6754e-10 2.87971e-10 8.01261e-11)
(2.37204e-10 2.48087e-10 7.76374e-11)
(9.81031e-11 4.49775e-10 5.94982e-11)
(2.4586e-10 4.3481e-10 8.37933e-11)
(1.19032e-10 1.59244e-10 1.05467e-10)
(3.29788e-11 2.98234e-10 1.17564e-10)
(2.89647e-11 5.4458e-11 3.55085e-11)
(6.09555e-11 1.73281e-10 1.05642e-10)
(3.77644e-11 4.56894e-11 3.37174e-11)
(2.77115e-10 6.21336e-10 1.17817e-11)
(4.26955e-10 3.781e-10 1.20943e-11)
(4.10516e-10 5.54418e-10 7.59578e-12)
(1.85876e-10 -2.82737e-10 9.15132e-11)
(5.08774e-10 -6.98516e-10 1.31758e-10)
(-9.74843e-12 -1.26047e-12 3.31933e-11)
(3.93745e-12 -1.20535e-12 1.70257e-11)
(-1.27184e-11 -1.42195e-12 5.82566e-11)
(5.73665e-12 -7.39655e-13 1.23637e-11)
(-9.03942e-12 -1.00633e-12 3.23542e-11)
(-1.35449e-11 -1.86826e-12 5.90617e-11)
(5.4711e-12 -9.28288e-13 1.26384e-11)
(-8.0481e-12 -6.68816e-13 3.1432e-11)
(4.68708e-12 -5.03982e-13 1.64678e-11)
(-1.2291e-11 -1.11948e-12 5.81903e-11)
(5.96167e-12 -4.9139e-13 1.21749e-11)
(-8.5126e-12 -7.91873e-13 3.18005e-11)
(-1.18708e-11 -8.58041e-13 5.80497e-11)
(6.20757e-12 -4.50002e-13 1.20468e-11)
(-5.90382e-12 -3.066e-14 2.8986e-11)
(5.59983e-12 -1.21324e-14 1.57196e-11)
(-9.97313e-12 -6.10572e-14 5.65602e-11)
(7.17441e-12 -7.3231e-14 1.11821e-11)
(-5.883e-12 -7.08227e-14 2.87863e-11)
(-1.0022e-11 -1.07895e-13 5.67245e-11)
(7.19059e-12 5.88998e-15 1.12197e-11)
(-5.79349e-12 -9.09434e-14 2.89346e-11)
(5.66393e-12 -5.97268e-14 1.57053e-11)
(-9.92808e-12 -8.73836e-14 5.65543e-11)
(7.2043e-12 6.75644e-15 1.11733e-11)
(-5.83255e-12 -4.23575e-14 2.87557e-11)
(-9.92863e-12 -5.30453e-14 5.67387e-11)
(7.26696e-12 -7.69118e-14 1.11983e-11)
(2.76087e-10 1.56775e-10 8.04498e-11)
(2.47838e-10 1.2592e-10 8.5139e-11)
(-1.22301e-11 5.52543e-10 5.19598e-11)
(-4.41857e-11 5.09435e-10 2.32291e-11)
(2.97076e-10 5.00579e-10 7.01118e-11)
(1.30235e-10 5.53045e-10 6.33354e-11)
(1.54891e-10 3.9801e-10 7.1653e-11)
(2.79018e-10 3.2577e-10 8.0329e-11)
(2.71158e-10 4.69433e-10 7.97583e-11)
(1.59944e-10 5.72997e-10 6.61565e-11)
(3.09922e-10 3.43296e-10 7.2989e-11)
(3.8734e-10 5.63254e-10 5.75161e-11)
(2.3312e-10 4.41829e-10 4.90689e-11)
(2.29891e-10 6.50581e-10 4.90033e-11)
(3.95761e-10 3.97942e-10 5.40522e-11)
(2.37353e-10 6.39344e-10 5.07959e-11)
(4.13896e-10 3.78636e-10 5.89946e-11)
(3.77242e-10 5.7509e-10 5.65743e-11)
(-1.73044e-11 6.15433e-10 4.422e-11)
(1.13799e-11 6.37073e-10 5.63781e-11)
(7.10469e-11 7.18654e-10 4.18629e-11)
(6.97123e-11 7.09412e-10 4.36802e-11)
(2.82319e-10 1.97442e-10 8.42318e-11)
(3.1403e-10 2.09e-10 8.46424e-11)
(4.03077e-10 2.43402e-10 4.181e-11)
(4.22798e-10 2.19439e-10 5.16539e-11)