/*--------------------------------*- C++ -*----------------------------------*\
| =========                 |                                                 |
| \\      /  F ield         | OpenFOAM: The Open Source CFD Toolbox           |
|  \\    /   O peration     | Version:  2012                                  |
|   \\  /    A nd           | Website:  www.openfoam.com                      |
|    \\/     M anipulation  |                                                 |
\*---------------------------------------------------------------------------*/
FoamFile
{
    version     2.0;
    format      ascii;
    class       volVectorField;
    location    "0.104/solid";
    object      D_0_0_0;
}
// * * * * * * * * * * * * * * * * * * * * * * * * * * * * * * * * * * * * * //

dimensions      [0 1 0 0 0 0 0];


internalField   nonuniform List<vector> 
3124
(
(3.07638e-11 5.64756e-11 3.82542e-11)
(4.26434e-12 -3.23442e-12 -3.84954e-12)
(1.97654e-10 -3.10448e-11 1.20235e-11)
(1.80766e-12 -3.27256e-12 2.12274e-11)
(7.60623e-12 -2.47352e-13 1.34462e-11)
(7.89348e-12 -6.80506e-14 1.28764e-11)
(6.84279e-12 -2.4473e-12 -5.0943e-12)
(1.0289e-12 3.87196e-11 4.9961e-11)
(1.6734e-10 2.31735e-10 3.54316e-11)
(1.22409e-10 -4.16343e-12 2.12038e-11)
(5.32537e-13 -2.73949e-12 2.25281e-11)
(2.28001e-10 5.28824e-12 1.34248e-11)
(8.32096e-12 1.98427e-11 4.88609e-11)
(-7.33986e-12 -2.30645e-12 5.02287e-11)
(1.36684e-10 7.5713e-12 2.72284e-11)
(1.69974e-10 2.39789e-10 1.69341e-11)
(-2.76758e-12 -5.30344e-12 4.61082e-11)
(4.57226e-12 -4.4591e-13 3.32677e-11)
(7.90484e-12 -1.70969e-13 1.29034e-11)
(7.62961e-12 -1.26765e-13 1.34049e-11)
(4.97209e-12 -2.55121e-13 3.23681e-11)
(4.66654e-12 -3.49773e-13 3.31786e-11)
(5.0259e-12 -2.31222e-13 3.2219e-11)
(1.7201e-11 -1.86688e-12 -2.91391e-12)
(1.21595e-10 1.21466e-11 5.52622e-11)
(5.12504e-11 -3.1422e-11 -3.21118e-12)
(8.96053e-11 3.59782e-10 6.71005e-11)
(5.42282e-11 3.37396e-11 2.42959e-11)
(8.53286e-11 1.50093e-10 9.14713e-11)
(1.24033e-10 6.31769e-10 2.00623e-10)
(3.46448e-11 2.57446e-11 1.91702e-11)
(1.61584e-10 9.29465e-11 5.43146e-11)
(-1.76238e-12 -3.93943e-13 5.67883e-11)
(5.90227e-12 8.57355e-12 5.50007e-11)
(2.70658e-10 4.33026e-10 1.5526e-11)
(2.69544e-10 1.00002e-09 1.03119e-12)
(-1.85077e-12 -3.02656e-12 5.40311e-11)
(1.91529e-12 -2.76423e-12 4.78087e-11)
(-1.84649e-12 -3.6477e-13 4.0283e-11)
(-1.71191e-12 -5.38166e-13 4.09882e-11)
(-1.85477e-12 -2.70594e-13 4.01223e-11)
(-1.81279e-12 -1.00063e-13 3.99305e-11)
(8.00181e-12 -4.8336e-12 -2.63461e-12)
(3.49118e-11 -2.47781e-11 7.87684e-13)
(4.7539e-11 -4.95499e-11 -5.83517e-12)
(1.30905e-10 -2.62741e-11 4.95441e-11)
(1.00514e-10 -4.42299e-11 2.2586e-11)
(6.10214e-11 -3.77904e-11 1.62383e-12)
(9.58383e-10 -3.88799e-10 2.46179e-10)
(8.9791e-11 -8.41874e-11 8.97525e-13)
(6.68194e-12 -1.08056e-12 1.42097e-11)
(6.87022e-12 -7.0679e-13 1.40054e-11)
(8.09921e-12 -1.49553e-13 1.26502e-11)
(8.14176e-12 -5.10866e-14 1.26166e-11)
(1.73745e-11 5.11093e-12 6.075e-12)
(2.76126e-11 -1.22294e-11 -1.2608e-12)
(3.17947e-11 1.33273e-11 9.89742e-12)
(1.25893e-10 2.76744e-11 2.41594e-11)
(2.00399e-11 9.86291e-12 4.25937e-11)
(5.33521e-11 9.02811e-10 5.1074e-12)
(1.95504e-11 3.02718e-11 2.32832e-11)
(9.01839e-11 4.05393e-10 6.44923e-11)
(1.43385e-10 2.05959e-10 7.0581e-11)
(2.29204e-10 9.6113e-10 3.58602e-11)
(2.7172e-10 1.45061e-10 3.29484e-11)
(1.69065e-10 8.20535e-10 1.10217e-10)
(1.99396e-10 4.71653e-10 4.25961e-11)
(2.2798e-10 1.33171e-10 3.88036e-11)
(1.99445e-10 1.23065e-09 1.88436e-11)
(1.34988e-10 1.03496e-09 7.5382e-11)
(4.48531e-11 -1.92242e-11 2.76254e-12)
(3.02091e-11 8.36476e-12 3.64436e-11)
(2.31063e-11 1.8429e-11 1.70867e-11)
(1.90782e-10 3.70732e-11 2.05642e-11)
(1.46773e-10 3.02491e-11 2.20123e-11)
(-4.79933e-12 1.8017e-11 2.32756e-11)
(1.20922e-09 -1.79435e-10 1.89836e-10)
(9.97997e-12 1.99313e-11 2.78698e-11)
(1.88179e-11 1.04521e-11 4.13451e-11)
(1.37601e-11 1.4159e-11 5.02118e-11)
(-3.63007e-12 -2.29877e-13 6.18334e-11)
(-2.64128e-12 1.3175e-11 4.92876e-11)
(7.41015e-12 1.3946e-11 5.77298e-11)
(2.94791e-11 9.23659e-12 3.78822e-11)
(3.58224e-11 4.46152e-11 3.38581e-11)
(1.98903e-11 2.01755e-11 4.92423e-11)
(2.57654e-10 4.43531e-10 1.94096e-11)
(1.75801e-10 2.41725e-10 4.92091e-12)
(2.37688e-10 9.63242e-10 2.46993e-11)
(2.70278e-10 1.5632e-10 1.83349e-11)
(1.86909e-10 4.90416e-10 3.9646e-11)
(2.64052e-10 9.91372e-10 8.78549e-12)
(2.79569e-10 1.53225e-10 4.36555e-12)
(1.92922e-10 4.17277e-11 2.17695e-13)
(2.50339e-10 1.29676e-09 3.30012e-12)
(2.13595e-10 1.22739e-09 1.58234e-11)
(2.45339e-10 1.2803e-09 1.00641e-11)
(1.88215e-10 4.18205e-11 1.57822e-11)
(1.91721e-10 4.26848e-11 1.62382e-12)
(-3.6944e-12 -3.81964e-12 5.91072e-11)
(3.01211e-12 -2.22494e-12 3.41885e-11)
(4.97174e-13 -2.8679e-12 4.86437e-11)
(-1.03661e-12 -1.17905e-12 4.275e-11)
(8.04452e-13 -2.75417e-12 4.62044e-11)
(3.79723e-12 -1.1793e-12 3.37017e-11)
(-1.93657e-12 -1.0271e-12 4.59409e-11)
(-1.24135e-13 -2.06316e-12 4.79126e-11)
(7.7911e-12 -8.5923e-14 1.31625e-11)
(7.80561e-12 -1.84362e-13 1.31913e-11)
(-1.20712e-12 -8.91261e-13 4.23178e-11)
(-1.62147e-12 -6.20592e-13 4.1277e-11)
(-2.87669e-12 -3.56387e-13 4.40104e-11)
(4.85592e-12 -2.81815e-13 3.2801e-11)
(-2.76069e-12 -5.09722e-13 4.46463e-11)
(-2.17771e-12 -7.81452e-13 4.56246e-11)
(4.82871e-12 -2.84279e-13 3.29227e-11)
(-2.66813e-12 -5.50764e-13 4.48787e-11)
(-2.87756e-12 -2.9981e-13 4.3852e-11)
(5.25807e-12 -1.79322e-13 3.18919e-11)
(-2.80532e-12 -1.14758e-13 4.36371e-11)
(-1.77661e-12 -3.85095e-14 3.99576e-11)
(5.37602e-12 -1.75191e-13 3.18047e-11)
(-2.76384e-12 -9.04743e-14 4.36552e-11)
(1.7198e-10 4.93635e-11 8.15419e-11)
(5.99995e-11 3.27935e-11 1.7711e-11)
(-8.51216e-13 -2.04428e-13 4.26216e-11)
(-4.32737e-13 1.33143e-12 4.29972e-11)
(-1.71263e-13 -1.4814e-12 4.09121e-11)
(7.9608e-13 -5.39333e-13 4.00286e-11)
(-1.80193e-12 -2.61822e-13 3.05958e-11)
(-1.79249e-12 -3.4585e-13 3.07772e-11)
(-1.80895e-12 -2.03999e-13 3.04635e-11)
(-1.82288e-12 -1.34079e-13 3.03784e-11)
(4.06364e-11 -3.96575e-11 3.54579e-12)
(4.13803e-12 -4.15241e-12 -2.2013e-12)
(1.04654e-11 -6.96648e-12 -5.11587e-12)
(7.03062e-12 -1.10045e-12 -1.28716e-11)
(4.01796e-11 -2.43502e-11 -1.39302e-11)
(1.18345e-11 -1.06891e-11 -2.91809e-12)
(6.1953e-12 -4.38207e-12 -1.21754e-12)
(6.21996e-10 -3.27328e-10 6.90713e-11)
(4.87873e-10 -8.08476e-11 3.16343e-11)
(1.44849e-10 -4.83338e-11 1.02967e-11)
(3.49957e-10 -7.98288e-11 6.65988e-12)
(3.08326e-10 -1.21427e-10 9.01962e-11)
(1.10674e-09 -1.90391e-10 2.33277e-10)
(2.34506e-10 -9.15188e-11 7.6733e-12)
(-2.48561e-12 -2.3011e-13 2.20039e-12)
(5.58168e-12 -2.99037e-12 1.67566e-11)
(3.37483e-12 -2.61874e-13 1.3742e-12)
(7.47525e-12 -2.68705e-13 1.36061e-11)
(6.16033e-12 -2.91751e-14 8.41201e-13)
(6.08975e-12 -4.43917e-14 8.63231e-13)
(6.60426e-12 -1.35896e-14 7.21687e-13)
(7.99161e-12 -1.57192e-13 1.27967e-11)
(6.80004e-12 -1.22623e-14 6.82633e-13)
(8.36193e-12 -1.04709e-13 1.25104e-11)
(7.38502e-12 -1.78458e-14 6.01547e-13)
(8.46388e-11 -3.89969e-13 -1.76915e-11)
(1.164e-11 -9.35647e-13 -3.01851e-12)
(1.39455e-11 -4.71902e-12 -8.34873e-12)
(8.11657e-12 6.22837e-14 -1.63412e-11)
(4.01534e-11 -1.91488e-11 -2.98237e-11)
(2.2662e-11 -2.42789e-12 -5.90062e-12)
(1.71385e-11 2.91428e-12 -1.81628e-11)
(6.73205e-11 1.33766e-10 2.26755e-10)
(2.47336e-12 2.46092e-11 5.37435e-11)
(-1.17128e-11 6.90465e-11 1.69917e-10)
(-8.19521e-12 3.8305e-11 5.52346e-11)
(1.2296e-10 -2.39472e-11 7.66662e-11)
(3.47859e-10 -3.40915e-11 1.57209e-10)
(9.4322e-11 -1.52858e-11 1.08905e-11)
(7.09293e-11 5.33486e-12 2.8413e-11)
(2.44844e-10 -8.46485e-11 4.89876e-11)
(1.57069e-10 -1.43889e-12 1.44211e-10)
(6.35239e-11 -1.10646e-12 1.70998e-11)
(-5.18765e-12 -1.59408e-13 2.34921e-12)
(-7.11935e-12 -9.12653e-14 2.55091e-11)
(-1.91156e-11 6.29757e-14 3.80969e-12)
(9.91337e-10 4.16585e-10 2.28874e-10)
(4.95861e-10 -1.23795e-11 1.38541e-10)
(4.36358e-10 -3.15431e-12 -1.74338e-11)
(2.14858e-10 6.26811e-11 1.86594e-11)
(1.23782e-09 -4.40085e-11 1.2314e-10)
(4.33579e-10 1.43134e-10 1.44781e-10)
(3.62185e-10 1.15756e-10 8.41257e-12)
(-6.45972e-12 -6.65532e-13 5.87302e-11)
(-1.20733e-11 2.43231e-12 5.24307e-11)
(-7.55719e-12 4.65926e-12 5.89084e-11)
(1.73968e-10 4.40515e-11 1.26484e-10)
(3.77879e-10 -3.65897e-12 1.62551e-10)
(7.66153e-11 8.32416e-12 3.50632e-11)
(1.26679e-10 3.53875e-11 2.89835e-11)
(1.63271e-10 1.09787e-11 1.67657e-10)
(3.39971e-10 9.97079e-11 1.43761e-10)
(7.24164e-11 1.72276e-11 3.44289e-11)
(-4.19848e-12 -4.80554e-12 5.60165e-11)
(4.28226e-13 -5.70209e-12 4.04146e-11)
(-1.92352e-12 -6.23307e-12 5.05526e-11)
(-1.47624e-12 -8.58048e-13 3.27822e-11)
(-1.49434e-12 -1.33471e-12 3.31408e-11)
(4.46088e-12 -5.83021e-13 3.33968e-11)
(-1.74951e-13 -4.81521e-13 4.37173e-11)
(-7.28735e-14 -6.19079e-13 4.37376e-11)
(6.58604e-12 -1.52983e-14 7.23403e-13)
(7.87201e-12 -8.52135e-14 1.30353e-11)
(6.5807e-12 -1.59584e-14 7.22212e-13)
(6.15438e-12 -2.47167e-14 8.43923e-13)
(7.74546e-12 -1.94019e-13 1.33335e-11)
(6.34968e-12 -1.98812e-14 7.91549e-13)
(-1.49191e-12 -6.9519e-13 3.25151e-11)
(-1.54848e-12 -6.27531e-13 3.22056e-11)
(-3.58542e-13 -2.92348e-13 4.29449e-11)
(4.92536e-12 -2.69847e-13 3.25211e-11)
(-3.81101e-13 -3.31895e-13 4.30945e-11)
(-2.47189e-13 -3.95633e-13 4.37141e-11)
(4.7155e-12 -3.09483e-13 3.31188e-11)
(-3.00373e-13 -3.48746e-13 4.36784e-11)
(-3.24826e-13 -2.7445e-13 4.27956e-11)
(5.07096e-12 -2.11232e-13 3.2113e-11)
(-2.847e-13 -2.24896e-13 4.26727e-11)
(-1.66414e-12 -3.30698e-14 3.05644e-11)
(5.61821e-12 -2.77992e-13 3.16403e-11)
(7.47064e-14 -2.47043e-13 4.24527e-11)
(1.11723e-10 2.13646e-11 8.63327e-12)
(3.67894e-11 2.72059e-11 1.04436e-11)
(2.78082e-11 -6.88706e-12 -3.44659e-12)
(3.51581e-11 -5.72003e-12 -2.54594e-12)
(7.25493e-11 -3.18967e-11 4.37016e-12)
(5.84887e-11 1.87553e-11 4.65223e-12)
(7.3429e-11 5.64889e-11 2.12856e-11)
(1.80744e-10 3.05731e-11 7.38744e-11)
(3.46312e-10 5.32213e-11 1.53088e-10)
(1.02707e-10 -5.91352e-12 1.25676e-11)
(2.31952e-10 -3.98969e-11 5.38599e-11)
(5.41999e-11 1.7925e-11 1.04499e-11)
(1.47175e-10 7.24712e-12 4.04428e-11)
(1.25118e-10 -9.91735e-11 -8.43767e-12)
(3.47939e-11 -1.7588e-11 -3.5353e-12)
(7.12721e-11 -1.36592e-11 3.06578e-12)
(8.21346e-11 -4.7291e-11 1.10504e-11)
(2.03835e-10 -6.41657e-11 4.51791e-11)
(5.45629e-11 -9.16213e-13 2.26891e-12)
(1.65174e-10 2.54876e-10 1.03274e-10)
(1.39844e-10 6.09717e-10 1.13804e-10)
(2.09613e-11 2.21563e-10 4.34048e-11)
(2.87507e-10 2.61802e-10 6.67076e-11)
(2.09362e-10 1.54418e-10 6.49087e-11)
(8.13471e-11 4.38865e-10 1.20134e-10)
(2.38016e-10 4.23536e-10 9.51259e-11)
(1.07544e-10 1.38654e-10 8.6122e-11)
(9.80215e-11 7.72649e-11 6.56452e-11)
(4.07051e-11 2.08563e-11 1.91039e-11)
(3.24846e-11 4.78361e-11 2.67806e-11)
(1.25261e-10 7.61566e-11 6.34113e-11)
(8.06944e-11 1.85572e-10 8.2536e-11)
(3.80903e-11 3.86716e-11 2.77603e-11)
(2.20897e-12 6.51754e-13 4.45033e-11)
(1.22841e-12 3.41103e-12 4.26008e-11)
(-2.69233e-13 -2.94689e-13 5.04683e-11)
(-9.56065e-13 3.15597e-12 5.75957e-11)
(2.88641e-13 2.30972e-12 5.10629e-11)
(5.22387e-12 3.93936e-12 5.04897e-11)
(1.17379e-12 7.80631e-12 5.6461e-11)
(2.01571e-12 5.45495e-12 5.02124e-11)
(3.39451e-10 8.02551e-10 2.85123e-12)
(5.00907e-10 3.47883e-10 1.40025e-12)
(4.26764e-10 5.70207e-10 -1.24779e-12)
(-2.9986e-13 -2.22599e-12 4.8032e-11)
(-7.2728e-13 -3.21487e-12 5.09654e-11)
(5.07525e-13 -1.60037e-12 4.60627e-11)
(4.14443e-13 -2.97496e-12 3.99169e-11)
(1.18816e-12 -9.92628e-13 4.11845e-11)
(1.31514e-12 -2.85437e-12 4.91754e-11)
(1.97807e-12 -2.84312e-12 4.52966e-11)
(2.0475e-12 -1.56471e-12 4.62446e-11)
(-1.7081e-12 -4.59e-13 3.12512e-11)
(-1.76421e-12 -3.90351e-13 3.09904e-11)
(-1.10503e-12 -3.27107e-13 3.58867e-11)
(-1.80674e-12 -4.47696e-13 4.05087e-11)
(-1.08566e-12 -4.129e-13 3.61083e-11)
(-9.86524e-13 -5.20916e-13 3.65975e-11)
(-1.76673e-12 -4.76392e-13 4.07394e-11)
(-1.04936e-12 -4.53443e-13 3.63439e-11)
(-1.11448e-12 -2.40631e-13 3.5739e-11)
(-1.8391e-12 -2.02182e-13 4.00431e-11)
(-1.11976e-12 -1.7296e-13 3.56615e-11)
(-1.79198e-12 -2.40619e-14 3.03105e-11)
(-1.81737e-12 -1.02124e-13 3.03195e-11)
(-1.82565e-12 -1.64467e-13 3.99673e-11)
(-1.08913e-12 -6.38819e-14 3.55614e-11)
(-1.114e-12 -1.34745e-13 3.55983e-11)
(4.24452e-11 -4.28126e-11 4.4695e-12)
(5.60751e-12 -4.91392e-12 -1.84146e-12)
(1.93184e-11 -1.28701e-11 -3.82787e-12)
(1.91884e-11 -9.7714e-12 -2.97133e-12)
(5.94317e-11 -3.87174e-11 3.20565e-12)
(1.4652e-11 -1.33985e-11 -2.93187e-12)
(6.81239e-12 -5.03813e-12 1.40892e-12)
(5.35943e-11 -5.53941e-11 7.04321e-12)
(1.96707e-11 -1.38784e-11 -2.09017e-12)
(9.88776e-11 -7.39286e-11 2.80646e-11)
(4.34584e-11 -3.95898e-11 -1.75704e-12)
(1.27641e-10 -1.29824e-10 1.72459e-11)
(5.01781e-11 -3.47921e-11 -2.33482e-12)
(2.36897e-11 -2.19825e-11 -1.79839e-12)
(5.55195e-11 -5.98193e-11 6.96016e-12)
(1.43469e-10 -1.61539e-10 1.19472e-11)
(2.87022e-11 -2.6225e-11 -4.05625e-12)
(4.58813e-11 -4.94536e-11 -4.88836e-12)
(7.06866e-11 -5.62264e-11 8.30954e-12)
(1.33706e-10 -1.47371e-10 1.20992e-11)
(2.60253e-11 -2.74006e-11 -3.26902e-12)
(3.91119e-10 3.62923e-11 1.4112e-10)
(7.45467e-11 -1.81277e-11 5.26913e-12)
(2.76096e-10 -6.55251e-11 5.94592e-11)
(2.84986e-10 -9.91079e-11 1.34975e-10)
(1.33962e-09 -9.30716e-10 7.82657e-10)
(1.97862e-10 -2.11117e-10 3.34139e-11)
(1.59749e-10 -5.55783e-11 2.75177e-11)
(2.92101e-10 -1.31747e-10 1.3369e-10)
(2.68048e-10 -1.11312e-10 4.60352e-11)
(7.66091e-10 -6.33705e-10 4.39027e-10)
(4.45454e-10 -2.88059e-10 4.72046e-11)
(9.61341e-11 -4.43617e-11 4.37322e-12)
(1.25843e-10 -8.85651e-11 3.51327e-11)
(7.71491e-11 -5.99599e-11 -3.16613e-12)
(1.74101e-10 -1.67246e-10 2.45951e-11)
(2.53299e-10 -1.21123e-10 6.6283e-11)
(1.39977e-10 -7.76565e-11 -2.96397e-12)
(7.54548e-10 -4.40954e-10 9.43762e-11)
(5.92292e-10 -1.85897e-10 2.61425e-11)
(3.75466e-09 -7.38454e-10 7.15143e-10)
(5.15708e-10 -3.1633e-10 1.11784e-10)
(1.26728e-09 -8.70669e-10 3.92354e-10)
(1.52102e-09 -2.95449e-10 3.61e-10)
(3.40323e-10 -1.79266e-10 1.63686e-11)
(4.55278e-10 -3.54852e-10 -2.98962e-11)
(1.95897e-10 -2.25808e-10 2.32669e-11)
(8.47613e-11 -8.27788e-11 -7.41271e-12)
(2.06946e-10 -1.55918e-10 2.99929e-11)
(1.86251e-10 -1.94983e-10 1.60275e-11)
(7.65433e-10 -6.49571e-10 2.7548e-10)
(1.69957e-10 -1.24254e-10 -4.78437e-12)
(5.5886e-12 -2.39075e-12 1.5803e-11)
(5.33669e-12 -1.28227e-13 1.05399e-12)
(3.98853e-12 -2.41871e-13 1.30392e-12)
(7.40523e-12 -4.26863e-13 1.36723e-11)
(5.51756e-12 -1.00548e-13 1.01041e-12)
(6.02733e-12 -5.39359e-14 8.84703e-13)
(8.01845e-12 -5.65254e-14 1.27598e-11)
(6.93358e-12 -1.25041e-14 6.70214e-13)
(6.85517e-12 -1.18166e-14 6.73252e-13)
(8.31103e-12 -1.80322e-13 1.25504e-11)
(6.99995e-12 -1.16157e-14 6.61039e-13)
(7.29899e-12 -1.78912e-14 6.13496e-13)
(3.76777e-10 1.29328e-10 7.84185e-11)
(2.0121e-10 9.13007e-11 4.0862e-11)
(4.94953e-11 1.55405e-11 -1.14047e-11)
(1.41212e-11 2.68833e-12 2.41074e-12)
(2.56965e-11 1.57214e-11 4.44423e-12)
(5.13158e-11 6.05076e-12 1.68654e-11)
(4.82957e-11 3.27854e-11 -2.93693e-11)
(2.40278e-11 4.6796e-12 8.34477e-13)
(3.57034e-11 1.36367e-11 1.05746e-11)
(7.9468e-11 -8.60924e-12 -3.4051e-11)
(1.8649e-11 -7.20466e-12 -6.10457e-12)
(8.93306e-11 -5.86903e-11 1.97814e-11)
(2.77013e-11 -2.53024e-12 -3.61884e-12)
(4.90849e-11 -2.83229e-11 -1.87785e-11)
(6.60591e-11 -2.14257e-11 -1.08912e-11)
(2.59309e-11 -3.75683e-12 -7.53026e-12)
(6.14527e-11 -8.37604e-12 -4.17442e-11)
(7.28654e-11 5.53781e-11 3.94045e-11)
(3.60303e-11 1.45847e-11 9.24414e-12)
(3.15734e-11 3.08332e-12 2.74143e-13)
(1.40307e-10 6.52956e-11 3.13555e-11)
(6.3296e-11 -9.27869e-12 -1.22563e-11)
(3.32509e-11 4.23774e-13 -9.70924e-13)
(3.7295e-10 3.93292e-11 9.09605e-11)
(8.28493e-11 1.02628e-11 2.04545e-11)
(1.24871e-10 3.57568e-11 4.12436e-11)
(-2.7731e-11 8.5299e-10 5.93374e-11)
(1.5043e-11 4.45551e-10 1.26806e-10)
(-4.77765e-11 1.41093e-10 2.36147e-10)
(9.86274e-11 8.607e-11 2.87243e-10)
(3.05877e-11 4.66229e-11 3.66998e-11)
(3.15981e-11 2.48034e-10 1.32546e-10)
(-2.62814e-12 4.95941e-11 4.11195e-11)
(3.83301e-11 8.90696e-11 2.36889e-10)
(1.23589e-11 1.1811e-11 4.94014e-11)
(4.36011e-11 2.36981e-11 1.52192e-10)
(2.22196e-11 1.8017e-11 4.46131e-11)
(3.44028e-11 3.6801e-11 1.63392e-10)
(2.72897e-11 3.74022e-11 1.4121e-10)
(1.30665e-11 2.853e-11 5.46894e-11)
(1.27977e-11 9.07244e-10 6.81136e-11)
(7.48209e-11 2.90044e-10 1.28457e-10)
(1.83165e-11 4.49883e-10 1.51319e-10)
(1.07424e-11 1.36924e-10 2.40752e-10)
(5.02764e-11 8.93011e-11 2.9807e-11)
(2.38018e-11 3.64367e-11 2.75563e-11)
(1.56543e-11 3.22828e-11 3.66469e-11)
(5.96947e-11 1.57291e-10 1.56672e-10)
(3.09204e-11 4.06654e-11 1.69474e-10)
(9.22047e-12 4.87013e-11 4.16628e-11)
(3.39729e-10 5.4657e-10 6.74994e-11)
(1.80883e-10 7.24338e-10 7.83809e-11)
(1.65202e-10 4.42111e-10 6.62528e-11)
(3.47577e-10 3.11219e-10 7.27076e-11)
(2.82612e-10 4.90915e-10 8.88897e-11)
(2.29173e-10 7.8366e-10 6.3928e-11)
(4.14005e-10 3.42398e-10 5.44139e-11)
(3.7462e-10 5.64747e-10 5.74395e-11)
(1.91347e-10 4.38285e-10 6.08755e-11)
(2.75388e-10 8.27218e-10 4.50977e-11)
(4.67311e-10 3.67638e-10 5.78013e-11)
(2.64141e-10 8.11475e-10 5.1622e-11)
(4.62084e-10 3.46741e-10 5.53884e-11)
(3.86484e-10 5.82433e-10 5.05815e-11)
(-7.25039e-12 9.17806e-10 4.38006e-11)
(4.38882e-11 1.0106e-09 4.23261e-11)
(1.83803e-10 1.21446e-09 2.95948e-11)
(1.29977e-10 1.12014e-09 2.86446e-11)
(1.05326e-10 1.10184e-09 3.92894e-11)
(4.16699e-11 9.66856e-10 5.92777e-11)
(1.58221e-10 1.16605e-09 3.74547e-11)
(9.19262e-11 1.0833e-09 4.28038e-11)
(8.0687e-11 1.04383e-09 3.32244e-11)
(5.80365e-11 1.02632e-09 3.87943e-11)
(1.07686e-10 -2.58942e-11 6.73711e-11)
(6.78248e-11 -2.22643e-11 4.29449e-12)
(1.10424e-10 -6.91233e-11 2.94262e-11)
(3.55898e-11 -3.58702e-12 4.52563e-12)
(2.06607e-10 -8.80282e-11 3.35447e-11)
(7.12704e-11 -2.40222e-11 1.64163e-11)
(4.98193e-11 -5.34101e-12 1.02421e-11)
(9.64983e-11 -1.0906e-11 9.01051e-11)
(4.51059e-11 7.61922e-12 3.15544e-11)
(5.51697e-11 1.91356e-11 1.4434e-10)
(3.09738e-11 1.10015e-11 3.43336e-11)
(4.50267e-11 2.35055e-11 1.40767e-10)
(1.22001e-10 4.43782e-12 1.3824e-10)
(4.31665e-11 5.81135e-12 2.52753e-11)
(8.52302e-11 -1.2716e-11 7.95023e-11)
(4.80876e-11 5.37852e-11 5.92724e-11)
(3.0329e-11 7.61996e-12 9.46466e-12)
(2.7197e-11 1.69638e-11 2.87859e-11)
(6.18779e-11 -1.15375e-11 1.55266e-11)
(3.90851e-11 2.56326e-11 1.41955e-10)
(3.70994e-11 6.43507e-12 1.89087e-11)
(3.96501e-10 1.60014e-10 7.62351e-11)
(5.19034e-10 1.63449e-10 5.36862e-11)
(5.726e-10 6.92917e-11 4.92322e-11)
(1.87286e-10 3.35102e-11 1.77828e-11)
(5.71616e-10 5.46268e-11 4.23719e-11)
(5.52938e-10 1.90683e-10 5.67294e-11)
(5.51866e-10 1.62052e-10 5.29848e-11)
(4.01731e-10 7.90704e-11 4.83253e-11)
(1.71175e-10 3.30359e-11 1.98113e-11)
(5.12475e-10 6.20708e-11 4.95891e-11)
(-9.40711e-12 1.82896e-12 2.61399e-11)
(-4.27668e-11 -3.15142e-12 1.0183e-11)
(-2.53147e-11 6.19001e-13 4.50814e-12)
(1.3385e-09 5.46372e-10 2.76839e-10)
(7.60381e-10 -3.68285e-11 -5.15189e-11)
(3.83706e-09 -2.53347e-10 -2.11029e-09)
(8.30768e-10 9.61197e-11 2.39977e-10)
(1.82153e-09 -4.71371e-11 5.01501e-11)
(3.45558e-09 5.09523e-10 2.70542e-10)
(6.31083e-10 2.02222e-10 -4.37231e-13)
(8.54407e-10 5.30001e-10 2.29441e-10)
(8.87268e-11 2.70803e-11 7.69789e-12)
(-1.97394e-11 2.81149e-11 1.17099e-11)
(3.94976e-10 1.7434e-10 1.42798e-10)
(1.46755e-10 5.31584e-11 4.95229e-12)
(1.07091e-09 6.8935e-10 2.40955e-10)
(5.56171e-10 1.09523e-10 2.09027e-10)
(1.90792e-09 8.19967e-10 1.04723e-09)
(2.02579e-10 1.03526e-10 -3.66982e-12)
(1.75199e-11 3.72056e-11 1.68221e-10)
(1.28813e-11 7.43304e-12 4.26776e-11)
(1.04252e-11 1.76093e-11 4.56282e-11)
(2.46062e-11 3.58407e-11 1.67648e-10)
(9.81865e-12 1.04882e-11 4.73748e-11)
(1.70154e-11 1.63065e-11 4.58073e-11)
(3.93289e-11 3.29503e-11 1.66755e-10)
(1.07311e-11 1.6408e-11 4.59332e-11)
(-4.99554e-12 -4.83853e-14 6.27706e-11)
(-2.53427e-12 4.18508e-12 6.24426e-11)
(-4.41951e-12 5.11476e-12 6.28826e-11)
(-1.26495e-11 1.41871e-11 5.07825e-11)
(6.31955e-12 2.36109e-11 5.12187e-11)
(-5.75422e-12 1.37682e-11 5.6454e-11)
(4.92501e-13 1.04331e-11 6.0952e-11)
(8.34895e-12 1.90621e-11 5.6001e-11)
(-1.1188e-12 1.28813e-11 6.0763e-11)
(1.02034e-10 3.34866e-11 1.03815e-10)
(4.56585e-11 8.32576e-12 3.55539e-11)
(6.41864e-11 1.82913e-11 1.18584e-10)
(2.91541e-11 1.31941e-11 3.95619e-11)
(1.26248e-10 1.35802e-11 1.57233e-10)
(6.27291e-11 3.39821e-11 1.27596e-10)
(4.45161e-11 1.35604e-11 3.4764e-11)
(1.44234e-10 4.74863e-11 1.47073e-10)
(1.11004e-10 6.22327e-11 3.01892e-11)
(2.54204e-11 3.91476e-11 3.66228e-11)
(3.08577e-10 9.99664e-11 1.54983e-10)
(5.63061e-11 2.84902e-11 3.34517e-11)
(1.05206e-10 3.98941e-11 1.38021e-10)
(2.7254e-11 1.78485e-11 4.25821e-11)
(2.80653e-11 2.87121e-11 4.26423e-11)
(5.178e-11 3.42887e-11 1.63678e-10)
(4.16783e-11 2.1416e-11 3.62634e-11)
(3.97124e-10 5.7858e-10 1.12503e-11)
(2.21102e-10 4.71044e-10 3.08061e-11)
(3.22919e-10 8.05823e-10 9.1242e-12)
(4.82688e-10 3.58315e-10 2.89025e-12)
(4.14058e-10 5.72678e-10 3.49524e-12)
(3.03882e-10 8.1034e-10 1.37977e-11)
(4.61286e-10 3.72851e-10 1.38029e-11)
(3.84775e-10 5.83994e-10 2.19591e-11)
(2.04835e-10 4.84285e-10 3.35186e-11)
(2.74596e-10 8.27364e-10 3.18755e-11)
(4.49391e-10 3.83475e-10 4.84156e-11)
(3.81682e-10 5.85489e-10 3.827e-11)
(2.8467e-10 8.19278e-10 2.31774e-11)
(4.46092e-10 3.85001e-10 2.39071e-11)
(5.66866e-10 1.85131e-10 4.57189e-12)
(5.61372e-10 8.38538e-11 2.04562e-12)
(1.42999e-10 1.02142e-09 7.84549e-12)
(1.88151e-10 1.12354e-09 6.91852e-12)
(1.3776e-10 1.02033e-09 1.14097e-11)
(1.18014e-10 1.01825e-09 1.85471e-11)
(1.35619e-10 1.11674e-09 2.563e-11)
(2.25814e-10 1.23276e-09 1.59537e-11)
(1.58498e-10 1.1069e-09 1.9391e-11)
(8.52907e-11 1.04043e-09 2.87792e-11)
(1.09382e-10 1.0222e-09 2.24865e-11)
(1.83903e-10 1.12046e-09 9.35138e-12)
(2.36591e-10 1.25456e-09 1.47247e-11)
(1.65882e-10 1.10774e-09 1.69171e-11)
(5.57649e-10 1.90639e-10 5.45187e-12)
(5.24976e-10 2.12395e-10 1.81534e-11)
(5.2977e-10 1.01227e-10 3.96964e-11)
(1.87962e-10 4.41386e-11 8.31593e-12)
(5.23833e-10 1.09916e-10 2.15673e-11)
(5.33449e-10 2.05481e-10 5.2259e-11)
(5.17086e-10 2.18111e-10 2.19215e-11)
(5.48544e-10 9.26228e-11 4.47126e-12)
(1.89916e-10 4.39682e-11 4.74945e-12)
(5.35557e-10 1.029e-10 1.33001e-11)
(-4.21487e-12 -4.33077e-12 6.03288e-11)
(-2.28634e-12 -5.00093e-12 5.47812e-11)
(-2.49173e-12 -6.12203e-12 5.52051e-11)
(2.00327e-12 -4.08792e-12 3.61546e-11)
(-1.80292e-13 -2.44151e-12 4.35007e-11)
(-6.83906e-13 -4.81228e-12 4.56208e-11)
(-2.9763e-13 -4.36927e-12 5.08442e-11)
(-4.89041e-13 -2.84216e-12 4.7556e-11)
(-1.00122e-12 -5.16526e-12 5.01018e-11)
(-7.21537e-13 -3.3562e-12 3.65176e-11)
(-1.35711e-12 -2.27551e-12 3.4073e-11)
(-6.00741e-13 -1.11309e-12 3.84229e-11)
(-7.86694e-13 -1.66971e-12 4.34283e-11)
(-5.30947e-13 -1.6574e-12 3.90513e-11)
(6.49376e-13 -3.31954e-12 4.26226e-11)
(-2.79059e-13 -2.29797e-12 4.45573e-11)
(-2.55055e-13 -2.53347e-12 4.02711e-11)
(4.24439e-12 -7.92886e-13 3.35365e-11)
(5.56505e-14 -1.12494e-12 4.34962e-11)
(4.96505e-14 -7.7639e-13 4.37108e-11)
(-1.93342e-12 -7.39564e-13 4.6786e-11)
(-1.58136e-12 -1.3925e-12 4.6451e-11)
(-1.62185e-12 -9.67454e-13 4.70118e-11)
(-6.87352e-13 -1.50726e-12 4.73242e-11)
(-1.00206e-12 -1.76384e-12 4.71893e-11)
(-1.16993e-12 -1.18317e-12 4.72776e-11)
(7.87937e-12 -1.86762e-13 1.30668e-11)
(6.3854e-12 -1.69259e-14 7.8099e-13)
(6.5492e-12 -1.68015e-14 7.31229e-13)
(7.77014e-12 -8.87383e-14 1.32973e-11)
(6.38276e-12 -1.79227e-14 7.81503e-13)
(6.37414e-12 -1.79766e-14 7.85022e-13)
(-1.66226e-12 -5.17245e-13 3.1531e-11)
(-1.60635e-12 -5.97208e-13 3.18596e-11)
(-6.59152e-13 -8.52257e-13 3.80167e-11)
(-1.35726e-12 -7.58088e-13 4.19771e-11)
(-7.47491e-13 -7.41868e-13 3.76547e-11)
(-9.22279e-13 -6.03874e-13 3.6905e-11)
(-1.49922e-12 -6.97429e-13 4.16214e-11)
(-8.4172e-13 -6.89065e-13 3.72739e-11)
(-2.62191e-12 -3.32645e-13 4.55357e-11)
(-2.82929e-12 -4.29513e-13 4.41917e-11)
(-2.63387e-12 -3.89984e-13 4.56925e-11)
(4.88683e-12 -2.82758e-13 3.26646e-11)
(-3.8774e-13 -3.57496e-13 4.34267e-11)
(-3.91612e-13 -3.42338e-13 4.32559e-11)
(-2.79538e-12 -4.70145e-13 4.44072e-11)
(-2.58131e-12 -4.47111e-13 4.60934e-11)
(-2.61785e-12 -4.22981e-13 4.58849e-11)
(-2.14839e-12 -5.79909e-13 4.66561e-11)
(-2.35703e-12 -6.64073e-13 4.53803e-11)
(-2.29477e-12 -4.98734e-13 4.65354e-11)
(4.78252e-12 -2.8057e-13 3.30292e-11)
(-3.66691e-13 -3.33216e-13 4.35605e-11)
(-3.35762e-13 -3.24267e-13 4.3637e-11)
(-2.52446e-12 -6.0389e-13 4.51281e-11)
(-2.52801e-12 -4.48876e-13 4.62779e-11)
(-2.43009e-12 -4.51629e-13 4.64226e-11)
(-2.6056e-12 -3.02252e-13 4.53838e-11)
(-2.83625e-12 -2.359e-13 4.37332e-11)
(-2.58946e-12 -2.44933e-13 4.525e-11)
(5.15962e-12 -1.91435e-13 3.19936e-11)
(-1.63364e-13 -1.51008e-13 4.25235e-11)
(-2.30122e-13 -1.967e-13 4.25755e-11)
(-2.81011e-12 -1.74312e-13 4.36524e-11)
(-2.48656e-12 -1.34444e-13 4.51359e-11)
(-2.54756e-12 -1.89564e-13 4.51635e-11)
(-1.76197e-12 1.4218e-14 3.03559e-11)
(-1.72744e-12 2.76259e-14 3.04525e-11)
(-1.65167e-12 -1.56917e-13 4.015e-11)
(-9.43628e-13 -9.5526e-14 3.58233e-11)
(-1.05481e-12 -5.78918e-15 3.56034e-11)
(-1.71156e-12 -5.71848e-14 4.00596e-11)
(-1.00896e-12 -1.24891e-14 3.57206e-11)
(5.47842e-12 -2.14154e-13 3.17459e-11)
(-8.95918e-14 -1.56022e-13 4.24912e-11)
(-1.32215e-14 -1.75207e-13 4.24763e-11)
(-2.61747e-12 -1.91131e-13 4.37614e-11)
(-2.30677e-12 -2.22387e-13 4.51603e-11)
(-2.42451e-12 -1.32608e-13 4.51339e-11)
(-2.67673e-12 -1.17602e-13 4.37003e-11)
(-2.37536e-12 -1.57998e-13 4.51419e-11)
(-1.25537e-11 -2.78705e-12 3.79838e-11)
(3.34169e-12 -2.86362e-12 1.59558e-11)
(-2.22081e-11 -4.20353e-12 7.40056e-11)
(3.83005e-12 -3.51598e-12 1.95578e-11)
(-1.78027e-11 -2.68938e-12 4.24322e-11)
(-1.66758e-11 -4.29113e-12 6.76737e-11)
(5.40004e-12 -2.94996e-12 1.45278e-11)
(1.29068e-13 -2.68983e-13 2.39572e-11)
(-4.20991e-12 -3.54788e-13 5.02476e-11)
(7.57593e-12 -2.00877e-13 1.35027e-11)
(9.71044e-12 -1.85377e-13 9.18847e-12)
(-4.3377e-12 -4.57735e-13 5.05865e-11)
(2.46837e-13 -2.61425e-13 2.35837e-11)
(9.71283e-12 -1.33158e-13 9.25846e-12)
(1.3722e-12 -1.26274e-13 2.2242e-11)
(1.00519e-11 -4.47572e-14 8.65834e-12)
(-3.27916e-12 -1.82873e-13 4.88065e-11)
(7.94129e-12 -1.36748e-13 1.28583e-11)
(1.29183e-12 -9.48224e-14 2.21221e-11)
(-3.16831e-12 -1.307e-13 4.87867e-11)
(1.01286e-11 -1.23217e-13 8.65498e-12)
(-2.71219e-11 -2.08223e-12 4.84794e-11)
(1.54321e-12 -2.74971e-12 1.70748e-11)
(-2.52675e-11 -3.06575e-12 7.69304e-11)
(-1.97638e-12 -2.14685e-12 2.37982e-11)
(-2.09651e-11 -2.285e-12 4.45382e-11)
(-3.09698e-11 -2.64559e-12 8.11715e-11)
(-1.44392e-12 -2.56245e-12 1.83314e-11)
(1.34638e-11 4.05362e-11 1.32357e-10)
(3.14448e-12 1.65058e-11 4.56623e-11)
(2.17779e-11 6.1163e-11 1.29391e-10)
(1.14527e-11 1.50957e-11 4.6631e-11)
(2.73756e-11 3.44934e-11 1.35103e-10)
(9.48513e-12 3.60153e-11 1.33736e-10)
(6.22257e-12 1.4284e-11 4.4503e-11)
(1.19035e-12 -1.04981e-13 2.24831e-11)
(1.00547e-11 -1.26657e-13 8.68045e-12)
(-3.27841e-12 -1.73847e-13 4.88481e-11)
(7.88836e-12 -1.02532e-13 1.29642e-11)
(1.2732e-12 -1.33182e-13 2.21607e-11)
(-3.39245e-12 -2.28349e-13 4.91776e-11)
(1.00796e-11 -5.34834e-14 8.7404e-12)
(3.75045e-13 -2.20024e-13 2.35596e-11)
(-4.18279e-12 -3.31884e-13 5.02746e-11)
(9.73024e-12 -8.96063e-14 9.15441e-12)
(7.67741e-12 -1.87548e-13 1.33952e-11)
(2.78643e-13 -2.00809e-13 2.35188e-11)
(-4.08803e-12 -2.59267e-13 5.02528e-11)
(9.80966e-12 -1.62704e-13 9.14152e-12)
(1.93424e-10 3.95907e-10 8.80961e-11)
(9.64297e-11 5.21583e-10 7.2915e-11)
(6.21423e-11 3.20767e-10 5.48279e-11)
(2.34717e-10 3.09807e-10 7.91733e-11)
(2.06944e-10 2.69296e-10 7.63795e-11)
(6.94164e-11 4.73408e-10 5.77019e-11)
(2.16683e-10 4.5601e-10 8.37128e-11)
(1.14148e-10 1.62731e-10 1.0918e-10)
(2.66277e-11 3.04913e-10 1.20588e-10)
(2.80595e-11 5.52067e-11 3.6491e-11)
(5.5997e-11 1.76163e-10 1.0891e-10)
(3.66516e-11 4.63879e-11 3.4742e-11)
(2.75961e-10 6.19365e-10 9.41948e-12)
(4.2708e-10 3.75924e-10 1.00029e-11)
(4.10125e-10 5.52698e-10 4.01966e-12)
(9.29586e-10 -3.58194e-10 4.9179e-10)
(2.18379e-09 -6.75788e-10 1.1261e-09)
(-2.85214e-12 -1.42132e-12 2.72176e-11)
(6.34471e-12 -1.38235e-12 1.45408e-11)
(-6.16984e-12 -1.63357e-12 5.13751e-11)
(8.71043e-12 -8.43584e-13 1.0067e-11)
(-2.06625e-12 -1.14284e-12 2.62626e-11)
(-7.07061e-12 -2.10751e-12 5.22849e-11)
(8.44488e-12 -1.05518e-12 1.03756e-11)
(-1.0146e-12 -7.69936e-13 2.5232e-11)
(7.10344e-12 -6.11835e-13 1.38742e-11)
(-5.7288e-12 -1.29736e-12 5.11967e-11)
(8.93153e-12 -5.77917e-13 9.84843e-12)
(-1.50493e-12 -9.11055e-13 2.56354e-11)
(-5.24313e-12 -1.01754e-12 5.09658e-11)
(9.18547e-12 -5.22529e-13 9.69685e-12)
(1.78643e-12 -9.95142e-14 2.18508e-11)
(8.07206e-12 -7.97276e-14 1.26968e-11)
(-2.71016e-12 -1.56241e-13 4.81626e-11)
(1.02921e-11 -1.27369e-13 8.45171e-12)
(1.88259e-12 -1.334e-13 2.15607e-11)
(-2.79772e-12 -2.04614e-13 4.83599e-11)
(1.02977e-11 -5.14525e-14 8.50643e-12)
(2.08464e-12 -1.43374e-13 2.16334e-11)
(8.20215e-12 -1.26563e-13 1.26118e-11)
(-2.61267e-12 -1.75604e-13 4.80803e-11)
(1.03467e-11 -4.83883e-14 8.42076e-12)
(1.98864e-12 -1.01368e-13 2.14794e-11)
(-2.51717e-12 -1.39227e-13 4.81777e-11)
(1.04473e-11 -1.30324e-13 8.4229e-12)
(2.41463e-10 1.77344e-10 7.88531e-11)
(2.15029e-10 1.46506e-10 8.08004e-11)
(-4.23814e-11 5.78785e-10 5.03035e-11)
(-7.24349e-11 5.35402e-10 1.92185e-11)
(2.65892e-10 5.21141e-10 6.81015e-11)
(9.7291e-11 5.78014e-10 6.13279e-11)
(1.19804e-10 4.21357e-10 7.00855e-11)
(2.44846e-10 3.47662e-10 7.8297e-11)
(2.40619e-10 4.90485e-10 7.86839e-11)
(1.26822e-10 5.96918e-10 6.42544e-11)
(2.75596e-10 3.64235e-10 7.11515e-11)
(3.62239e-10 5.76721e-10 5.34558e-11)
(2.05191e-10 4.56781e-10 4.81287e-11)
(2.05909e-10 6.63696e-10 4.64738e-11)
(3.71786e-10 4.08971e-10 5.15446e-11)
(2.10515e-10 6.5489e-10 4.83188e-11)
(3.868e-10 3.92074e-10 5.64869e-11)
(3.54819e-10 5.86527e-10 5.2341e-11)
(-4.98065e-11 6.42372e-10 4.19091e-11)
(-2.14454e-11 6.62972e-10 5.48898e-11)
(4.66964e-11 7.33061e-10 4.09547e-11)
(4.28307e-11 7.26259e-10 4.27162e-11)
(2.46263e-10 2.17823e-10 8.20449e-11)
(2.77848e-10 2.28508e-10 8.31393e-11)
(3.78108e-10 2.53539e-10 4.11296e-11)
(3.94594e-10 2.3182e-10 5.09045e-11)
(-4.99097e-11 2.30619e-11 5.94264e-11)