/*--------------------------------*- C++ -*----------------------------------*\
| =========                 |                                                 |
| \\      /  F ield         | OpenFOAM: The Open Source CFD Toolbox           |
|  \\    /   O peration     | Version:  2012                                  |
|   \\  /    A nd           | Website:  www.openfoam.com                      |
|    \\/     M anipulation  |                                                 |
\*---------------------------------------------------------------------------*/
FoamFile
{
    version     2.0;
    format      ascii;
    class       volVectorField;
    location    "0.104/solid";
    object      D_0_0;
}
// * * * * * * * * * * * * * * * * * * * * * * * * * * * * * * * * * * * * * //

dimensions      [0 1 0 0 0 0 0];


internalField   nonuniform List<vector> 
3124
(
(2.96277e-11 5.73585e-11 3.9028e-11)
(4.25419e-12 -2.166e-12 -2.80279e-12)
(1.18781e-10 -1.15134e-11 1.88676e-11)
(1.56266e-12 -3.35924e-12 2.17709e-11)
(7.17876e-12 -2.44938e-13 1.40503e-11)
(7.38382e-12 -5.20319e-14 1.35363e-11)
(6.39956e-12 -1.44984e-12 -4.03871e-12)
(-4.21175e-13 3.95137e-11 5.12498e-11)
(1.63225e-10 2.34404e-10 3.54829e-11)
(7.74947e-11 5.05957e-12 2.56413e-11)
(2.81529e-13 -2.88231e-12 2.3064e-11)
(1.39925e-10 6.80869e-12 1.88393e-11)
(6.99023e-12 2.02573e-11 5.02856e-11)
(-7.7522e-12 -2.82584e-12 5.12916e-11)
(8.71072e-11 8.21941e-12 3.06585e-11)
(1.66182e-10 2.42299e-10 1.66807e-11)
(-3.16722e-12 -5.53458e-12 4.7226e-11)
(3.96347e-12 -4.43802e-13 3.4426e-11)
(7.39443e-12 -1.56901e-13 1.35643e-11)
(7.19034e-12 -1.24065e-13 1.4015e-11)
(4.25972e-12 -2.27242e-13 3.35946e-11)
(4.03824e-12 -3.49019e-13 3.43445e-11)
(4.28898e-12 -2.04168e-13 3.34699e-11)
(2.02162e-11 -2.3855e-12 -2.50396e-12)
(1.30437e-10 -2.95677e-12 5.4105e-11)
(6.33655e-11 -3.91961e-11 -1.99228e-12)
(7.34784e-11 3.70915e-10 6.77972e-11)
(5.19706e-11 3.49293e-11 2.51554e-11)
(8.23389e-11 1.52206e-10 9.29428e-11)
(1.16616e-10 6.37371e-10 2.03213e-10)
(3.21013e-11 2.7372e-11 2.00317e-11)
(1.55365e-10 9.5802e-11 5.58895e-11)
(-1.96474e-12 -8.53182e-13 5.80948e-11)
(3.78527e-12 6.9351e-12 5.64667e-11)
(2.57874e-10 4.40089e-10 1.55372e-11)
(2.62752e-10 1.00574e-09 4.23916e-13)
(-1.94069e-12 -3.31975e-12 5.532e-11)
(1.86352e-12 -2.84028e-12 4.89094e-11)
(-1.94887e-12 -3.52041e-13 4.1322e-11)
(-1.79209e-12 -5.34713e-13 4.20218e-11)
(-1.96298e-12 -2.58724e-13 4.11706e-11)
(-1.94044e-12 -7.27376e-14 4.09899e-11)
(9.98064e-12 -4.58246e-12 -1.98336e-12)
(2.94984e-11 -1.45538e-11 3.39316e-12)
(5.43428e-11 -4.39774e-11 -3.22683e-12)
(1.45656e-10 -4.79455e-11 5.52957e-11)
(1.172e-10 -5.97617e-11 2.52944e-11)
(4.70809e-11 -2.10291e-11 4.71505e-12)
(6.40256e-10 -3.13627e-10 1.51806e-10)
(9.17817e-11 -6.84566e-11 6.17119e-12)
(6.32455e-12 -1.08884e-12 1.48054e-11)
(6.49418e-12 -7.13676e-13 1.46056e-11)
(7.54783e-12 -1.27536e-13 1.33528e-11)
(7.57791e-12 -2.88129e-14 1.33323e-11)
(1.66763e-11 5.57467e-12 6.37707e-12)
(2.20696e-11 -4.91029e-12 1.27994e-12)
(2.84842e-11 1.56358e-11 1.11067e-11)
(1.20938e-10 2.87577e-11 2.46286e-11)
(1.44367e-11 1.07725e-11 4.44774e-11)
(4.54366e-11 9.10365e-10 5.70368e-12)
(1.6309e-11 3.23016e-11 2.44445e-11)
(7.35324e-11 4.16389e-10 6.50404e-11)
(1.392e-10 2.086e-10 7.12617e-11)
(2.20625e-10 9.68328e-10 3.58772e-11)
(2.65594e-10 1.48043e-10 3.27892e-11)
(1.60826e-10 8.27514e-10 1.11718e-10)
(1.83555e-10 4.80769e-10 4.28985e-11)
(2.21588e-10 1.36337e-10 3.94734e-11)
(1.9053e-10 1.23944e-09 1.88936e-11)
(1.26613e-10 1.04326e-09 7.66119e-11)
(3.35872e-11 -8.43683e-12 5.46929e-12)
(2.11393e-11 9.78518e-12 3.85619e-11)
(1.85636e-11 2.13006e-11 1.8814e-11)
(1.86437e-10 3.79454e-11 2.04628e-11)
(1.42036e-10 3.14321e-11 2.2249e-11)
(-9.54385e-12 1.37044e-11 2.44239e-11)
(8.33679e-10 -1.22928e-10 8.03509e-11)
(1.92549e-12 1.505e-11 2.8237e-11)
(1.29946e-11 1.06286e-11 4.33538e-11)
(1.00085e-11 1.22272e-11 5.18395e-11)
(-3.90817e-12 -8.02642e-13 6.31647e-11)
(-9.08385e-12 9.02249e-12 5.01581e-11)
(4.28418e-12 1.13566e-11 5.91516e-11)
(1.96914e-11 9.36919e-12 4.00032e-11)
(1.66484e-11 3.38006e-11 3.67934e-11)
(1.38221e-11 1.68195e-11 5.1025e-11)
(2.44563e-10 4.50772e-10 1.94471e-11)
(1.72398e-10 2.44044e-10 4.52339e-12)
(2.2938e-10 9.70192e-10 2.44632e-11)
(2.64713e-10 1.59022e-10 1.80023e-11)
(1.71244e-10 4.99377e-10 3.99018e-11)
(2.56899e-10 9.97355e-10 8.06624e-12)
(2.7458e-10 1.55668e-10 3.98379e-12)
(1.8952e-10 4.23919e-11 1.24549e-13)
(2.43105e-10 1.3035e-09 2.97546e-12)
(2.0494e-10 1.23586e-09 1.5706e-11)
(2.37825e-10 1.28761e-09 9.35465e-12)
(1.8404e-10 4.26435e-11 1.56767e-11)
(1.88202e-10 4.33759e-11 1.51726e-12)
(-3.84418e-12 -4.15325e-12 6.04397e-11)
(2.4859e-12 -2.25684e-12 3.53629e-11)
(3.55966e-13 -2.94999e-12 4.98285e-11)
(-1.09317e-12 -1.20056e-12 4.382e-11)
(7.60361e-13 -2.79087e-12 4.73069e-11)
(3.23849e-12 -1.20311e-12 3.48724e-11)
(-2.07936e-12 -1.04367e-12 4.70848e-11)
(-2.60003e-13 -2.10932e-12 4.90867e-11)
(7.31954e-12 -7.456e-14 1.37876e-11)
(7.32801e-12 -1.73915e-13 1.38183e-11)
(-1.26959e-12 -9.07779e-13 4.33813e-11)
(-1.69206e-12 -6.18691e-13 4.23181e-11)
(-3.07132e-12 -3.39047e-13 4.51434e-11)
(4.18067e-12 -2.62462e-13 3.39844e-11)
(-2.92826e-12 -4.98728e-13 4.57613e-11)
(-2.32618e-12 -7.95126e-13 4.67642e-11)
(4.15394e-12 -2.65224e-13 3.40988e-11)
(-2.81632e-12 -5.42826e-13 4.59896e-11)
(-3.07955e-12 -2.83565e-13 4.49947e-11)
(4.47657e-12 -1.39154e-13 3.31967e-11)
(-3.03134e-12 -7.94466e-14 4.48026e-11)
(-1.91261e-12 -1.06133e-14 4.10393e-11)
(4.56654e-12 -1.34122e-13 3.31462e-11)
(-2.99961e-12 -5.36606e-14 4.48465e-11)
(1.87438e-10 2.51066e-11 8.39829e-11)
(6.61582e-11 2.73049e-11 1.68164e-11)
(-8.65519e-13 -4.07705e-13 4.37626e-11)
(-5.63279e-13 1.04186e-12 4.41632e-11)
(-1.26648e-13 -1.65439e-12 4.20333e-11)
(8.61267e-13 -6.92295e-13 4.10525e-11)
(-1.7554e-12 -2.60869e-13 3.14183e-11)
(-1.73798e-12 -3.44022e-13 3.16084e-11)
(-1.7658e-12 -2.00978e-13 3.12894e-11)
(-1.7835e-12 -1.30182e-13 3.12041e-11)
(4.36682e-11 -3.19225e-11 9.72514e-12)
(4.67461e-12 -3.16307e-12 -1.23561e-12)
(1.01127e-11 -4.02941e-12 -3.1052e-12)
(6.90104e-12 -6.8808e-13 -1.02128e-11)
(3.8065e-11 -1.66705e-11 -7.04597e-12)
(1.27104e-11 -7.75984e-12 -1.04536e-12)
(6.99884e-12 -4.09165e-12 1.10744e-12)
(4.2438e-10 -1.83919e-10 6.45441e-11)
(2.94169e-10 -3.1877e-11 3.03714e-11)
(9.12302e-11 -2.16849e-11 1.54954e-11)
(2.07289e-10 -3.96448e-11 2.20326e-11)
(2.00299e-10 -6.12079e-11 8.82061e-11)
(6.41542e-10 -8.09408e-11 2.24069e-10)
(1.50954e-10 -4.42006e-11 1.6701e-11)
(-3.04238e-12 -2.50765e-13 2.31097e-12)
(5.28443e-12 -3.01263e-12 1.73366e-11)
(2.75016e-12 -2.69896e-13 1.4856e-12)
(7.06706e-12 -2.6496e-13 1.42046e-11)
(5.33747e-12 -2.92981e-14 9.6497e-13)
(5.29702e-12 -4.57656e-14 9.84496e-13)
(5.65127e-12 -1.28248e-14 8.61084e-13)
(7.46233e-12 -1.40952e-13 1.34717e-11)
(5.81976e-12 -1.05294e-14 8.25159e-13)
(7.75614e-12 -7.46691e-14 1.32705e-11)
(6.29451e-12 -2.27903e-14 7.54746e-13)
(7.87992e-11 4.02512e-12 -1.27646e-11)
(1.08591e-11 -1.02979e-13 -2.14754e-12)
(1.27013e-11 -2.1685e-12 -6.34092e-12)
(7.76997e-12 4.41514e-13 -1.35996e-11)
(3.71477e-11 -1.21622e-11 -2.27333e-11)
(2.084e-11 -4.3436e-13 -4.2409e-12)
(1.61752e-11 3.18562e-12 -1.5673e-11)
(6.2724e-11 1.36526e-10 2.30303e-10)
(2.0069e-13 2.53367e-11 5.5233e-11)
(-1.6795e-11 7.07555e-11 1.73813e-10)
(-1.04777e-11 3.93553e-11 5.64482e-11)
(8.04003e-11 -5.85376e-12 7.80709e-11)
(2.11006e-10 -9.07502e-12 1.50487e-10)
(6.08892e-11 -1.23202e-12 1.44824e-11)
(4.53605e-11 1.02737e-11 3.1348e-11)
(1.57828e-10 -3.98485e-11 4.9552e-11)
(9.68413e-11 7.74249e-12 1.44389e-10)
(4.29995e-11 6.69907e-12 1.98733e-11)
(-5.72908e-12 -1.86578e-13 2.46341e-12)
(-7.42696e-12 -5.03221e-13 2.59783e-11)
(-1.95339e-11 3.16077e-14 3.88916e-12)
(6.41149e-10 3.05694e-10 1.75972e-10)
(2.99147e-10 3.81973e-12 1.23065e-10)
(2.69656e-10 7.43765e-13 -6.58621e-13)
(1.37496e-10 4.77794e-11 2.11675e-11)
(7.35503e-10 -6.47625e-12 9.73095e-11)
(2.72142e-10 1.06504e-10 1.22468e-10)
(2.31382e-10 8.89166e-11 1.35249e-11)
(-6.84269e-12 -1.27695e-12 5.98659e-11)
(-1.26903e-11 1.30724e-12 5.33911e-11)
(-8.26614e-12 3.42698e-12 5.99835e-11)
(1.09554e-10 3.56441e-11 1.28304e-10)
(2.28827e-10 7.561e-12 1.52484e-10)
(4.86072e-11 8.75342e-12 3.77504e-11)
(8.2345e-11 2.75603e-11 3.10101e-11)
(1.00786e-10 1.5316e-11 1.67129e-10)
(2.13354e-10 7.53847e-11 1.28385e-10)
(4.66531e-11 1.36179e-11 3.70149e-11)
(-4.49933e-12 -5.09138e-12 5.7185e-11)
(-1.63118e-14 -5.80304e-12 4.15696e-11)
(-2.23011e-12 -6.37569e-12 5.17413e-11)
(-1.39853e-12 -8.79953e-13 3.36611e-11)
(-1.41182e-12 -1.35631e-12 3.40404e-11)
(3.86413e-12 -5.80213e-13 3.45589e-11)
(-5.78007e-13 -4.89256e-13 4.48404e-11)
(-4.65414e-13 -6.27792e-13 4.48725e-11)
(5.64094e-12 -1.38678e-14 8.61352e-13)
(7.38216e-12 -7.01522e-14 1.36752e-11)
(5.66099e-12 -1.51926e-14 8.57351e-13)
(5.32194e-12 -2.55287e-14 9.68017e-13)
(7.29534e-12 -1.90271e-13 1.39437e-11)
(5.49384e-12 -1.95426e-14 9.17248e-13)
(-1.41567e-12 -7.12284e-13 3.33838e-11)
(-1.47494e-12 -6.41116e-13 3.30633e-11)
(-8.38911e-13 -2.68268e-13 4.41015e-11)
(4.22045e-12 -2.42192e-13 3.37373e-11)
(-8.50517e-13 -3.05687e-13 4.42451e-11)
(-6.60443e-13 -3.99095e-13 4.4837e-11)
(4.07722e-12 -3.07043e-13 3.42844e-11)
(-7.18639e-13 -3.58453e-13 4.48018e-11)
(-8.18039e-13 -2.4889e-13 4.39673e-11)
(4.31895e-12 -1.83589e-13 3.33772e-11)
(-7.90251e-13 -1.97558e-13 4.38561e-11)
(-1.64763e-12 -2.91255e-14 3.14479e-11)
(4.73948e-12 -2.47213e-13 3.3089e-11)
(-5.1529e-13 -2.14666e-13 4.37984e-11)
(1.26871e-10 9.12563e-12 1.09482e-11)
(3.97622e-11 2.7714e-11 1.08938e-11)
(3.36577e-11 -8.48577e-12 -2.9176e-12)
(4.08764e-11 -6.98094e-12 -1.93639e-13)
(8.62338e-11 -3.53615e-11 9.27163e-12)
(6.69175e-11 1.3466e-11 4.04349e-12)
(8.02056e-11 5.56988e-11 2.45818e-11)
(1.97874e-10 -3.43517e-12 7.57996e-11)
(3.54301e-10 -1.7005e-11 1.67199e-10)
(1.17906e-10 -3.20129e-11 9.65578e-12)
(2.62342e-10 -1.08854e-10 6.14521e-11)
(6.0524e-11 9.88635e-12 9.03e-12)
(1.64555e-10 -2.12489e-11 4.31524e-11)
(1.53605e-10 -1.14461e-10 -1.859e-12)
(4.30828e-11 -2.17386e-11 -2.91506e-12)
(8.38716e-11 -3.44905e-11 2.19439e-12)
(9.86971e-11 -5.29322e-11 1.66055e-11)
(2.32851e-10 -1.2562e-10 5.32461e-11)
(6.4331e-11 -1.24002e-11 1.41986e-12)
(1.57517e-10 2.59616e-10 1.05967e-10)
(1.27656e-10 6.18681e-10 1.15559e-10)
(9.13393e-12 2.30472e-10 4.38477e-11)
(2.74371e-10 2.69551e-10 6.85053e-11)
(1.99614e-10 1.60112e-10 6.76201e-11)
(7.16602e-11 4.45941e-10 1.22554e-10)
(2.27316e-10 4.30373e-10 9.68969e-11)
(1.02886e-10 1.41769e-10 8.85276e-11)
(9.03019e-11 8.19405e-11 6.79229e-11)
(3.87112e-11 2.2195e-11 1.99144e-11)
(3.04157e-11 4.91297e-11 2.75421e-11)
(1.19548e-10 7.9992e-11 6.54101e-11)
(7.47998e-11 1.8945e-10 8.44774e-11)
(3.64757e-11 3.96928e-11 2.8594e-11)
(1.47791e-12 1.1928e-13 4.57448e-11)
(8.81018e-13 3.02711e-12 4.37981e-11)
(-3.76394e-13 -6.19122e-13 5.17122e-11)
(-1.42878e-12 2.41581e-12 5.89395e-11)
(-1.599e-14 1.81784e-12 5.23405e-11)
(3.90321e-12 2.97311e-12 5.18722e-11)
(1.33733e-13 6.66427e-12 5.78593e-11)
(1.33992e-12 4.75635e-12 5.15341e-11)
(3.29233e-10 8.09221e-10 2.38702e-12)
(4.90397e-10 3.52843e-10 9.83545e-13)
(4.17968e-10 5.75319e-10 -1.85671e-12)
(-3.11783e-13 -2.46366e-12 4.9249e-11)
(-7.91868e-13 -3.42922e-12 5.21899e-11)
(5.1147e-13 -1.79447e-12 4.7193e-11)
(5.10305e-13 -3.02396e-12 4.08502e-11)
(1.27527e-12 -1.07983e-12 4.21407e-11)
(1.25324e-12 -2.99517e-12 5.03255e-11)
(2.00826e-12 -2.90083e-12 4.6318e-11)
(2.0639e-12 -1.68491e-12 4.7293e-11)
(-1.64758e-12 -4.61674e-13 3.20829e-11)
(-1.7039e-12 -3.91075e-13 3.18279e-11)
(-1.13106e-12 -3.21031e-13 3.6826e-11)
(-1.9005e-12 -4.3417e-13 4.15488e-11)
(-1.103e-12 -4.06582e-13 3.70497e-11)
(-9.95184e-13 -5.20881e-13 3.75391e-11)
(-1.85263e-12 -4.702e-13 4.17826e-11)
(-1.05925e-12 -4.50567e-13 3.72862e-11)
(-1.14439e-12 -2.33256e-13 3.6681e-11)
(-1.95107e-12 -1.88395e-13 4.10897e-11)
(-1.1539e-12 -1.62944e-13 3.6604e-11)
(-1.76346e-12 -1.49993e-14 3.11342e-11)
(-1.78181e-12 -9.36826e-14 3.1152e-11)
(-1.9428e-12 -1.41729e-13 4.10285e-11)
(-1.13695e-12 -4.65819e-14 3.65119e-11)
(-1.15116e-12 -1.20314e-13 3.65468e-11)
(4.77157e-11 -3.60422e-11 1.06497e-11)
(6.83979e-12 -4.17118e-12 -1.03362e-12)
(2.36905e-11 -1.19665e-11 -2.67667e-12)
(2.32038e-11 -9.48999e-12 -5.27772e-13)
(7.1524e-11 -3.81992e-11 8.36022e-12)
(1.71682e-11 -1.10643e-11 -1.32695e-12)
(8.02494e-12 -4.86856e-12 3.65919e-12)
(5.6068e-11 -4.31972e-11 1.30961e-11)
(1.7936e-11 -8.15132e-12 2.79531e-13)
(8.10091e-11 -4.58167e-11 3.32198e-11)
(3.96318e-11 -2.68082e-11 1.00099e-12)
(1.17094e-10 -9.16088e-11 2.21412e-11)
(4.6344e-11 -2.35059e-11 4.32301e-12)
(2.36861e-11 -1.56285e-11 4.83948e-13)
(6.0966e-11 -4.89972e-11 1.31474e-11)
(1.65344e-10 -1.52387e-10 2.17339e-11)
(3.46357e-11 -2.4204e-11 -2.38606e-12)
(4.63603e-11 -3.75408e-11 -1.94996e-12)
(8.54673e-11 -5.56984e-11 1.40949e-11)
(1.29627e-10 -1.09897e-10 1.82672e-11)
(2.883e-11 -2.19936e-11 -1.14511e-12)
(4.02867e-10 -3.61527e-11 1.85734e-10)
(8.40217e-11 -3.8531e-11 4.6768e-12)
(3.13102e-10 -1.53087e-10 7.68926e-11)
(2.67311e-10 -1.16089e-10 1.23304e-10)
(1.16227e-09 -7.90184e-10 8.40264e-10)
(2.30355e-10 -2.22229e-10 4.80596e-11)
(1.80213e-10 -9.73406e-11 2.9046e-11)
(3.11462e-10 -1.73515e-10 1.34325e-10)
(3.07269e-10 -1.93397e-10 6.21078e-11)
(7.32347e-10 -5.72632e-10 4.9546e-10)
(3.21714e-10 -1.71631e-10 4.82664e-11)
(6.70012e-11 -2.10275e-11 8.32202e-12)
(9.84562e-11 -5.32132e-11 3.87595e-11)
(6.33286e-11 -3.73462e-11 4.21473e-13)
(1.50962e-10 -1.13965e-10 2.73088e-11)
(1.71673e-10 -6.38011e-11 6.66384e-11)
(1.02422e-10 -4.1512e-11 2.56164e-12)
(5.26382e-10 -2.58785e-10 9.11375e-11)
(3.57999e-10 -1.03744e-10 5.26609e-11)
(1.95427e-09 -1.94838e-10 3.26307e-10)
(3.93955e-10 -2.28997e-10 1.12484e-10)
(1.01599e-09 -6.52138e-10 3.7603e-10)
(8.66193e-10 -1.20998e-10 3.62563e-10)
(2.30486e-10 -9.94614e-11 3.08799e-11)
(3.56403e-10 -2.27073e-10 -1.66702e-11)
(2.18983e-10 -2.10891e-10 3.54333e-11)
(7.64426e-11 -5.78446e-11 -2.54395e-12)
(1.81006e-10 -1.19269e-10 3.8901e-11)
(1.7043e-10 -1.39733e-10 2.10191e-11)
(6.74609e-10 -5.15453e-10 2.93958e-10)
(1.31727e-10 -7.6104e-11 3.29594e-12)
(5.26748e-12 -2.40018e-12 1.63958e-11)
(4.62013e-12 -1.30779e-13 1.17118e-12)
(3.3337e-12 -2.46984e-13 1.41801e-12)
(6.99877e-12 -4.28456e-13 1.42742e-11)
(4.77909e-12 -1.03991e-13 1.12867e-12)
(5.24593e-12 -5.57198e-14 1.00472e-12)
(7.4779e-12 -3.74685e-14 1.34462e-11)
(5.9108e-12 -1.01342e-14 8.18265e-13)
(5.86409e-12 -1.05747e-14 8.16539e-13)
(7.71801e-12 -1.51451e-13 1.32916e-11)
(5.96478e-12 -1.06643e-14 8.102e-13)
(6.22519e-12 -1.72389e-14 7.66367e-13)
(3.60649e-10 1.36761e-10 7.92426e-11)
(1.9178e-10 9.54176e-11 4.35402e-11)
(4.55815e-11 1.90485e-11 -7.03121e-12)
(1.33015e-11 3.28033e-12 2.89409e-12)
(2.44027e-11 1.66397e-11 5.39643e-12)
(4.88219e-11 7.25514e-12 1.7549e-11)
(4.5952e-11 3.55005e-11 -2.45967e-11)
(2.23761e-11 6.04937e-12 1.94093e-12)
(3.35641e-11 1.36176e-11 1.09443e-11)
(7.27073e-11 -2.31284e-12 -2.84989e-11)
(1.6009e-11 -2.67129e-12 -3.74598e-12)
(7.17596e-11 -3.50543e-11 2.56561e-11)
(2.27335e-11 2.39002e-12 -1.28629e-12)
(4.42857e-11 -1.81587e-11 -1.18668e-11)
(5.29722e-11 -9.22257e-12 -4.65383e-12)
(2.29198e-11 -3.97576e-13 -5.46053e-12)
(5.61435e-11 -2.70174e-12 -3.60956e-11)
(6.4207e-11 6.09764e-11 4.14543e-11)
(3.37472e-11 1.61564e-11 1.02187e-11)
(2.73802e-11 6.47102e-12 2.1722e-12)
(1.33336e-10 6.90124e-11 3.37762e-11)
(5.1965e-11 9.96239e-14 -5.82959e-12)
(3.04033e-11 2.84792e-12 4.95715e-13)
(3.583e-10 4.48467e-11 9.03704e-11)
(7.94284e-11 1.18458e-11 2.13509e-11)
(1.2051e-10 3.98742e-11 4.34671e-11)
(-3.98362e-11 8.63707e-10 6.02491e-11)
(7.04366e-12 4.52252e-10 1.28902e-10)
(-5.32854e-11 1.43981e-10 2.39546e-10)
(9.54814e-11 8.72701e-11 2.906e-10)
(2.89688e-11 4.75622e-11 3.74113e-11)
(2.56807e-11 2.51721e-10 1.34551e-10)
(-4.61966e-12 5.07163e-11 4.19534e-11)
(3.22607e-11 9.18238e-11 2.41277e-10)
(8.81555e-12 1.25081e-11 5.11056e-11)
(2.75354e-11 2.58866e-11 1.56769e-10)
(1.73902e-11 1.95659e-11 4.64865e-11)
(2.16741e-11 4.15157e-11 1.68405e-10)
(1.93655e-11 3.90943e-11 1.45367e-10)
(9.84727e-12 2.97327e-11 5.62668e-11)
(1.96798e-12 9.17042e-10 6.91764e-11)
(6.91756e-11 2.92491e-10 1.30173e-10)
(1.09899e-11 4.55641e-10 1.53549e-10)
(4.88988e-12 1.40364e-10 2.45117e-10)
(4.17771e-11 9.48931e-11 3.14313e-11)
(2.1533e-11 3.77634e-11 2.83659e-11)
(1.16013e-11 3.43726e-11 3.83317e-11)
(5.34373e-11 1.60413e-10 1.59195e-10)
(1.97137e-11 4.56647e-11 1.75276e-10)
(6.39956e-12 5.03e-11 4.29046e-11)
(3.27924e-10 5.53493e-10 6.80438e-11)
(1.67646e-10 7.33705e-10 7.93997e-11)
(1.48352e-10 4.52549e-10 6.67569e-11)
(3.33373e-10 3.18773e-10 7.35981e-11)
(2.70956e-10 4.97736e-10 9.01231e-11)
(2.15622e-10 7.93084e-10 6.44293e-11)
(3.99724e-10 3.49698e-10 5.47202e-11)
(3.6298e-10 5.71516e-10 5.75512e-11)
(1.74658e-10 4.48413e-10 6.13339e-11)
(2.62424e-10 8.35893e-10 4.50566e-11)
(4.53999e-10 3.74085e-10 5.76458e-11)
(2.50757e-10 8.20571e-10 5.17737e-11)
(4.48177e-10 3.53663e-10 5.53622e-11)
(3.75229e-10 5.88845e-10 5.04003e-11)
(-1.97713e-11 9.28779e-10 4.44087e-11)
(3.07416e-11 1.02149e-09 4.2739e-11)
(1.74834e-10 1.22356e-09 2.99128e-11)
(1.18497e-10 1.12969e-09 2.8691e-11)
(9.35335e-11 1.11195e-09 3.96091e-11)
(3.05022e-11 9.7694e-10 6.01416e-11)
(1.49353e-10 1.17523e-09 3.80795e-11)
(8.00913e-11 1.09355e-09 4.32399e-11)
(6.79721e-11 1.05382e-09 3.33563e-11)
(4.4915e-11 1.03697e-09 3.91004e-11)
(7.22104e-11 -7.31306e-12 7.02001e-11)
(4.68691e-11 -8.263e-12 7.40323e-12)
(8.48476e-11 -4.00821e-11 3.39777e-11)
(2.72122e-11 3.0248e-12 6.95875e-12)
(1.38808e-10 -4.42548e-11 3.55785e-11)
(5.4149e-11 -9.67237e-12 2.19727e-11)
(3.60816e-11 2.61253e-12 1.274e-11)
(6.28942e-11 2.57312e-12 9.35263e-11)
(2.99507e-11 1.02206e-11 3.40007e-11)
(3.4629e-11 2.18544e-11 1.48496e-10)
(2.33676e-11 1.34076e-11 3.64699e-11)
(2.89479e-11 2.94292e-11 1.4564e-10)
(7.5897e-11 1.10953e-11 1.40247e-10)
(3.08178e-11 1.00049e-11 2.76655e-11)
(5.68306e-11 1.23443e-12 8.39383e-11)
(3.87945e-11 5.98843e-11 6.32897e-11)
(2.42374e-11 1.17837e-11 1.16763e-11)
(2.12696e-11 1.98477e-11 3.08568e-11)
(4.75071e-11 -5.26104e-13 2.16119e-11)
(2.50947e-11 3.19005e-11 1.47509e-10)
(2.81881e-11 1.10211e-11 2.12381e-11)
(3.80499e-10 1.66729e-10 7.68057e-11)
(5.03127e-10 1.6981e-10 5.3863e-11)
(5.60086e-10 7.31314e-11 4.90607e-11)
(1.82704e-10 3.44638e-11 1.77304e-11)
(5.58442e-10 5.87706e-11 4.23399e-11)
(5.38303e-10 1.96069e-10 5.66692e-11)
(5.3621e-10 1.68114e-10 5.30316e-11)
(3.88628e-10 8.36384e-11 4.91648e-11)
(1.66438e-10 3.4052e-11 1.97905e-11)
(4.98527e-10 6.66955e-11 4.95163e-11)
(-9.90014e-12 1.04452e-12 2.65206e-11)
(-4.4853e-11 -2.24707e-12 9.42688e-12)
(-2.56868e-11 4.82899e-13 4.51336e-12)
(8.83959e-10 4.04414e-10 2.06134e-10)
(4.57903e-10 -2.31965e-11 -1.85626e-11)
(1.4833e-09 -8.02412e-11 -2.30475e-09)
(5.73687e-10 1.26095e-10 1.71294e-10)
(1.04521e-09 -4.91002e-11 3.10884e-11)
(2.57321e-09 5.16918e-10 2.64889e-10)
(4.06212e-10 1.60292e-10 8.40281e-12)
(5.73161e-10 3.96854e-10 1.96724e-10)
(5.87921e-11 2.08946e-11 1.07596e-11)
(-2.79695e-11 2.2743e-11 1.07275e-11)
(2.52012e-10 1.32371e-10 1.27968e-10)
(9.63313e-11 4.08974e-11 8.32083e-12)
(7.25467e-10 5.25027e-10 1.97551e-10)
(3.8832e-10 1.35562e-10 1.56897e-10)
(1.31232e-09 7.81284e-10 9.11193e-10)
(1.35934e-10 8.13489e-11 1.27803e-12)
(1.25496e-11 3.67732e-11 1.72861e-10)
(1.17691e-11 6.92275e-12 4.39189e-11)
(8.7936e-12 1.73568e-11 4.70447e-11)
(1.82443e-11 3.49901e-11 1.72452e-10)
(7.60536e-12 9.45084e-12 4.88092e-11)
(1.21171e-11 1.49509e-11 4.7595e-11)
(2.54518e-11 3.00906e-11 1.71118e-10)
(7.82921e-12 1.57271e-11 4.7517e-11)
(-5.32607e-12 -6.8625e-13 6.40398e-11)
(-3.15323e-12 3.17995e-12 6.37875e-11)
(-5.13509e-12 3.90362e-12 6.41336e-11)
(-1.44873e-11 1.10573e-11 5.18056e-11)
(1.07503e-12 1.86802e-11 5.20878e-11)
(-7.52121e-12 1.1105e-11 5.74639e-11)
(-9.26574e-13 8.7348e-12 6.23281e-11)
(4.05253e-12 1.53311e-11 5.72256e-11)
(-2.86179e-12 1.0614e-11 6.1999e-11)
(6.44795e-11 2.90811e-11 1.06284e-10)
(2.90902e-11 8.58227e-12 3.7927e-11)
(4.09181e-11 1.89872e-11 1.22018e-10)
(1.99535e-11 1.20833e-11 4.17642e-11)
(7.8363e-11 1.66947e-11 1.58821e-10)
(4.04284e-11 3.14217e-11 1.31386e-10)
(2.90589e-11 1.16662e-11 3.73751e-11)
(9.20333e-11 3.74704e-11 1.492e-10)
(7.31004e-11 4.92476e-11 3.29366e-11)
(1.31284e-11 3.01812e-11 3.90951e-11)
(1.95627e-10 7.52711e-11 1.38014e-10)
(3.5484e-11 2.18496e-11 3.60653e-11)
(6.58347e-11 3.17424e-11 1.41027e-10)
(1.90198e-11 1.54844e-11 4.45962e-11)
(1.86657e-11 2.31085e-11 4.47576e-11)
(3.36653e-11 3.04895e-11 1.67735e-10)
(2.80038e-11 1.74451e-11 3.87361e-11)
(3.87391e-10 5.84189e-10 1.06744e-11)
(2.06927e-10 4.78987e-10 3.09362e-11)
(3.12183e-10 8.1281e-10 8.6774e-12)
(4.71733e-10 3.63467e-10 2.4953e-12)
(4.04806e-10 5.77947e-10 2.90132e-12)
(2.92549e-10 8.17736e-10 1.33947e-11)
(4.49692e-10 3.78365e-10 1.33916e-11)
(3.74524e-10 5.89823e-10 2.14521e-11)
(1.90309e-10 4.92424e-10 3.36822e-11)
(2.62084e-10 8.35635e-10 3.16542e-11)
(4.36559e-10 3.89677e-10 4.81342e-11)
(3.70857e-10 5.91704e-10 3.78842e-11)
(2.72734e-10 8.27056e-10 2.28428e-11)
(4.33921e-10 3.90762e-10 2.35483e-11)
(5.55057e-10 1.89398e-10 4.33391e-12)
(5.5149e-10 8.68239e-11 1.80904e-12)
(1.32683e-10 1.02932e-09 7.58084e-12)
(1.78796e-10 1.13114e-09 6.53815e-12)
(1.27192e-10 1.0284e-09 1.11755e-11)
(1.06624e-10 1.027e-09 1.84133e-11)
(1.24303e-10 1.12612e-09 2.55881e-11)
(2.17548e-10 1.2409e-09 1.56874e-11)
(1.47948e-10 1.11547e-09 1.91799e-11)
(7.27672e-11 1.05026e-09 2.88255e-11)
(9.76921e-11 1.03112e-09 2.23954e-11)
(1.74332e-10 1.12821e-09 8.98924e-12)
(2.28765e-10 1.26255e-09 1.43803e-11)
(1.55567e-10 1.11614e-09 1.66631e-11)
(5.45658e-10 1.94945e-10 5.24124e-12)
(5.11993e-10 2.17128e-10 1.79254e-11)
(5.17715e-10 1.04901e-10 3.94918e-11)
(1.84044e-10 4.49139e-11 8.20056e-12)
(5.12592e-10 1.13298e-10 2.13318e-11)
(5.19032e-10 2.10805e-10 5.21235e-11)
(5.03814e-10 2.22923e-10 2.17311e-11)
(5.38393e-10 9.56647e-11 4.24548e-12)
(1.8616e-10 4.47009e-11 4.63917e-12)
(5.24727e-10 1.06161e-10 1.30366e-11)
(-4.42492e-12 -4.66494e-12 6.16139e-11)
(-2.41205e-12 -5.22168e-12 5.60763e-11)
(-2.68962e-12 -6.31798e-12 5.64847e-11)
(1.50376e-12 -4.13663e-12 3.73397e-11)
(-5.42493e-13 -2.49741e-12 4.4671e-11)
(-1.02211e-12 -4.89555e-12 4.68145e-11)
(-4.3568e-13 -4.51453e-12 5.20805e-11)
(-7.32036e-13 -2.91911e-12 4.87719e-11)
(-1.2266e-12 -5.29026e-12 5.13536e-11)
(-6.28355e-13 -3.38982e-12 3.74457e-11)
(-1.26878e-12 -2.3024e-12 3.49904e-11)
(-5.87696e-13 -1.13495e-12 3.9407e-11)
(-8.36324e-13 -1.68788e-12 4.45152e-11)
(-5.1137e-13 -1.68194e-12 4.00526e-11)
(6.8139e-13 -3.3538e-12 4.36459e-11)
(-3.23254e-13 -2.32453e-12 4.56587e-11)
(-2.27748e-13 -2.56329e-12 4.12864e-11)
(3.66247e-12 -8.00758e-13 3.47036e-11)
(-3.19838e-13 -1.16059e-12 4.46497e-11)
(-3.32942e-13 -7.94603e-13 4.48541e-11)
(-2.19228e-12 -7.53404e-13 4.79505e-11)
(-1.72077e-12 -1.41154e-12 4.7608e-11)
(-1.87534e-12 -9.84509e-13 4.81891e-11)
(-9.34632e-13 -1.55341e-12 4.85211e-11)
(-1.13785e-12 -1.79341e-12 4.83571e-11)
(-1.41931e-12 -1.20904e-12 4.84628e-11)
(7.38428e-12 -1.73534e-13 1.37084e-11)
(5.49371e-12 -1.66204e-14 9.10595e-13)
(5.63635e-12 -1.53546e-14 8.65105e-13)
(7.30667e-12 -8.29683e-14 1.3914e-11)
(5.49716e-12 -1.70041e-14 9.09824e-13)
(5.50995e-12 -1.8275e-14 9.10936e-13)
(-1.59691e-12 -5.2216e-13 3.23724e-11)
(-1.53655e-12 -6.06686e-13 3.27115e-11)
(-6.49047e-13 -8.69542e-13 3.89887e-11)
(-1.42305e-12 -7.7e-13 4.30286e-11)
(-7.41043e-13 -7.55468e-13 3.86156e-11)
(-9.24211e-13 -6.06644e-13 3.78521e-11)
(-1.56404e-12 -7.05589e-13 4.26698e-11)
(-8.37559e-13 -6.99022e-13 3.82269e-11)
(-2.94543e-12 -3.11829e-13 4.67123e-11)
(-3.01855e-12 -4.10871e-13 4.53212e-11)
(-2.94957e-12 -3.66793e-13 4.68631e-11)
(4.18929e-12 -2.61793e-13 3.38719e-11)
(-8.38721e-13 -3.31444e-13 4.45442e-11)
(-8.50816e-13 -3.19874e-13 4.43963e-11)
(-2.97619e-12 -4.56545e-13 4.55336e-11)
(-2.87451e-12 -4.2031e-13 4.7236e-11)
(-2.92502e-12 -4.00709e-13 4.7045e-11)
(-2.4146e-12 -5.8755e-13 4.7817e-11)
(-2.51463e-12 -6.77114e-13 4.65118e-11)
(-2.56887e-12 -5.15606e-13 4.76975e-11)
(4.11774e-12 -2.73054e-13 3.41999e-11)
(-8.18161e-13 -3.10503e-13 4.46515e-11)
(-7.79432e-13 -3.4048e-13 4.47291e-11)
(-2.66967e-12 -6.18149e-13 4.62458e-11)
(-2.79999e-12 -4.19953e-13 4.73834e-11)
(-2.69207e-12 -4.87985e-13 4.75336e-11)
(-2.94013e-12 -2.80145e-13 4.657e-11)
(-3.04753e-12 -2.16801e-13 4.48765e-11)
(-2.93425e-12 -2.1953e-13 4.64433e-11)
(4.38368e-12 -1.55435e-13 3.32859e-11)
(-6.96232e-13 -1.11081e-13 4.37374e-11)
(-7.49017e-13 -1.60808e-13 4.37789e-11)
(-3.0298e-12 -1.46244e-13 4.48105e-11)
(-2.85175e-12 -9.59496e-14 4.63576e-11)
(-2.90452e-12 -1.56219e-13 4.6371e-11)
(-1.73685e-12 2.56767e-14 3.11892e-11)
(-1.70825e-12 4.51647e-14 3.13006e-11)
(-1.79734e-12 -1.42863e-13 4.13049e-11)
(-1.00434e-12 -8.87107e-14 3.68469e-11)
(-1.10764e-12 1.50682e-14 3.65652e-11)
(-1.85296e-12 -2.29313e-14 4.11658e-11)
(-1.06619e-12 1.50753e-14 3.66979e-11)
(4.64432e-12 -1.71368e-13 3.31219e-11)
(-6.38746e-13 -1.1137e-13 4.37345e-11)
(-5.76871e-13 -1.24605e-13 4.37557e-11)
(-2.8773e-12 -1.71938e-13 4.50392e-11)
(-2.7181e-12 -1.97668e-13 4.65078e-11)
(-2.80315e-12 -8.84559e-14 4.63813e-11)
(-2.92527e-12 -7.47361e-14 4.49189e-11)
(-2.76897e-12 -1.07525e-13 4.64203e-11)
(-1.36293e-11 -2.90711e-12 3.92109e-11)
(3.00954e-12 -2.9184e-12 1.64344e-11)
(-2.32047e-11 -4.44031e-12 7.55842e-11)
(3.56122e-12 -3.57498e-12 2.01212e-11)
(-1.88661e-11 -2.8446e-12 4.36924e-11)
(-1.77287e-11 -4.45543e-12 6.9304e-11)
(5.04368e-12 -2.9819e-12 1.50124e-11)
(-1.31975e-12 -2.62885e-13 2.53567e-11)
(-5.58532e-12 -3.50985e-13 5.19735e-11)
(7.14284e-12 -1.98226e-13 1.41166e-11)
(9.16124e-12 -1.81337e-13 9.73061e-12)
(-5.72908e-12 -4.55264e-13 5.23389e-11)
(-1.2265e-12 -2.58807e-13 2.50189e-11)
(9.15842e-12 -1.28682e-13 9.80101e-12)
(-3.1379e-13 -1.1466e-13 2.37997e-11)
(9.40397e-12 -3.29017e-14 9.25593e-12)
(-4.85068e-12 -1.64282e-13 5.06777e-11)
(7.40951e-12 -1.23253e-13 1.35372e-11)
(-3.92045e-13 -8.53333e-14 2.37055e-11)
(-4.79344e-12 -1.14345e-13 5.07095e-11)
(9.45752e-12 -1.12896e-13 9.26026e-12)
(-2.81661e-11 -2.39261e-12 4.96845e-11)
(1.21361e-12 -2.85046e-12 1.75427e-11)
(-2.62418e-11 -3.46144e-12 7.84486e-11)
(-2.23784e-12 -2.3406e-12 2.4333e-11)
(-2.19812e-11 -2.5656e-12 4.57187e-11)
(-3.19679e-11 -3.16984e-12 8.26564e-11)
(-1.78905e-12 -2.68865e-12 1.88069e-11)
(8.75606e-12 4.05703e-11 1.36293e-10)
(1.8961e-12 1.67307e-11 4.71079e-11)
(1.89574e-11 6.20369e-11 1.33104e-10)
(9.27686e-12 1.54085e-11 4.82059e-11)
(2.26197e-11 3.50537e-11 1.39137e-10)
(6.66198e-12 3.64869e-11 1.37593e-10)
(4.19934e-12 1.42779e-11 4.60687e-11)
(-4.49078e-13 -8.67033e-14 2.40043e-11)
(9.40885e-12 -1.14738e-13 9.27418e-12)
(-4.84827e-12 -1.52718e-13 5.07238e-11)
(7.37817e-12 -8.8451e-14 1.36268e-11)
(-3.95081e-13 -1.17053e-13 2.37251e-11)
(-4.96284e-12 -2.06959e-13 5.10535e-11)
(9.43089e-12 -4.01419e-14 9.33073e-12)
(-1.11073e-12 -2.17943e-13 2.49733e-11)
(-5.57843e-12 -3.28565e-13 5.20122e-11)
(9.16984e-12 -8.45195e-14 9.6993e-12)
(7.22722e-12 -1.83021e-13 1.40126e-11)
(-1.2067e-12 -1.95793e-13 2.49545e-11)
(-5.51068e-12 -2.49933e-13 5.20068e-11)
(9.23447e-12 -1.55547e-13 9.68919e-12)
(1.79993e-10 4.04719e-10 8.9967e-11)
(8.14253e-11 5.32451e-10 7.38524e-11)
(4.66968e-11 3.31748e-10 5.51532e-11)
(2.18252e-10 3.19853e-10 8.00668e-11)
(1.91385e-10 2.7909e-10 7.74488e-11)
(5.51086e-11 4.84102e-10 5.86181e-11)
(2.02099e-10 4.65373e-10 8.49327e-11)
(1.10172e-10 1.65507e-10 1.11368e-10)
(2.26628e-11 3.08194e-10 1.22518e-10)
(2.64183e-11 5.61596e-11 3.72503e-11)
(5.11798e-11 1.78895e-10 1.10829e-10)
(3.53472e-11 4.72333e-11 3.55183e-11)
(2.63932e-10 6.26573e-10 9.25479e-12)
(4.14403e-10 3.82169e-10 9.86183e-12)
(3.98575e-10 5.58958e-10 3.67988e-12)
(7.00416e-10 -3.60987e-10 3.76334e-10)
(1.53085e-09 -6.97122e-10 8.61807e-10)
(-4.14735e-12 -1.43122e-12 2.85809e-11)
(5.98886e-12 -1.39115e-12 1.51462e-11)
(-7.41918e-12 -1.64996e-12 5.31065e-11)
(8.24902e-12 -8.43825e-13 1.05937e-11)
(-3.39546e-12 -1.15223e-12 2.76572e-11)
(-8.32507e-12 -2.1299e-12 5.40482e-11)
(7.98738e-12 -1.05518e-12 1.09029e-11)
(-2.38166e-12 -7.78868e-13 2.66066e-11)
(6.71233e-12 -6.13412e-13 1.44797e-11)
(-7.00883e-12 -1.30761e-12 5.29312e-11)
(8.44996e-12 -5.76536e-13 1.03776e-11)
(-2.86008e-12 -9.16255e-13 2.70305e-11)
(-6.55708e-12 -1.02117e-12 5.27084e-11)
(8.68257e-12 -5.20096e-13 1.02284e-11)
(1.43285e-14 -7.39388e-14 2.34824e-11)
(7.51359e-12 -5.8574e-14 1.3407e-11)
(-4.40015e-12 -1.24427e-13 5.01572e-11)
(9.59429e-12 -1.09364e-13 9.08845e-12)
(7.57961e-14 -1.10132e-13 2.32488e-11)
(-4.50349e-12 -1.69303e-13 5.03744e-11)
(9.59074e-12 -3.03657e-14 9.14007e-12)
(2.50686e-13 -1.2593e-13 2.33144e-11)
(7.62056e-12 -1.05067e-13 1.3343e-11)
(-4.33171e-12 -1.50762e-13 5.011e-11)
(9.63591e-12 -3.25885e-14 9.06534e-12)
(1.62262e-13 -9.01921e-14 2.31797e-11)
(-4.2833e-12 -1.16376e-13 5.02453e-11)
(9.71553e-12 -1.14713e-13 9.07538e-12)
(2.23932e-10 1.87177e-10 7.95058e-11)
(1.98314e-10 1.56269e-10 8.09434e-11)
(-5.66599e-11 5.9051e-10 5.10248e-11)
(-8.62503e-11 5.47168e-10 1.93257e-11)
(2.50693e-10 5.30391e-10 6.88112e-11)
(8.17897e-11 5.88855e-10 6.19661e-11)
(1.03044e-10 4.3209e-10 7.06638e-11)
(2.28001e-10 3.57453e-10 7.89044e-11)
(2.25593e-10 4.99731e-10 7.96283e-11)
(1.11186e-10 6.07581e-10 6.48526e-11)
(2.5873e-10 3.73777e-10 7.17271e-11)
(3.47686e-10 5.84979e-10 5.345e-11)
(1.89038e-10 4.66148e-10 4.85044e-11)
(1.91032e-10 6.72945e-10 4.6633e-11)
(3.56137e-10 4.16967e-10 5.16854e-11)
(1.95334e-10 6.64411e-10 4.85322e-11)
(3.7085e-10 4.00324e-10 5.66523e-11)
(3.4048e-10 5.94507e-10 5.23071e-11)
(-6.47174e-11 6.54153e-10 4.23911e-11)
(-3.65214e-11 6.74589e-10 5.54534e-11)
(3.19917e-11 7.43224e-10 4.1276e-11)
(2.78839e-11 7.36719e-10 4.31052e-11)
(2.28333e-10 2.27404e-10 8.25818e-11)
(2.59921e-10 2.37745e-10 8.36952e-11)
(3.61555e-10 2.61131e-10 4.14303e-11)
(3.77749e-10 2.3967e-10 5.12618e-11)
(-5.44934e-11 1.7504e-11 6.04672e-11)
(-1.56835e-11 5.29419e-12 2.74692e-11)