/*--------------------------------*- C++ -*----------------------------------*\
| =========                 |                                                 |
| \\      /  F ield         | OpenFOAM: The Open Source CFD Toolbox           |
|  \\    /   O peration     | Version:  2012                                  |
|   \\  /    A nd           | Website:  www.openfoam.com                      |
|    \\/     M anipulation  |                                                 |
\*---------------------------------------------------------------------------*/
FoamFile
{
    version     2.0;
    format      ascii;
    class       volScalarField;
    location    "0.104/solid";
    object      epsilonEq;
}
// * * * * * * * * * * * * * * * * * * * * * * * * * * * * * * * * * * * * * //

dimensions      [0 0 0 0 0 0 0];


internalField   nonuniform List<scalar> 
3124
(
7.05046e-09
1.39652e-09
2.64296e-09
5.937e-09
4.17213e-09
4.09087e-09
2.01722e-09
1.09741e-08
2.16105e-08
3.78029e-09
6.26053e-09
4.73765e-09
8.02988e-09
7.05e-09
4.34255e-09
2.21772e-08
6.57887e-09
5.17912e-09
4.09505e-09
4.16654e-09
5.13705e-09
5.18113e-09
5.12697e-09
2.40097e-09
1.9235e-08
9.47171e-09
5.86008e-09
5.99322e-09
1.31491e-08
1.69053e-08
7.20537e-09
1.24908e-08
7.75414e-09
7.53268e-09
5.71341e-09
2.25273e-08
7.41278e-09
6.68649e-09
5.89189e-09
5.96172e-09
5.87936e-09
5.87627e-09
1.72679e-09
2.43701e-09
7.19488e-09
2.2336e-08
1.73591e-08
3.04665e-09
5.57705e-08
1.01733e-08
4.28125e-09
4.24938e-09
4.07238e-09
4.07201e-09
2.29126e-09
1.99808e-09
5.55296e-09
1.60212e-08
7.28889e-09
1.83116e-08
7.30156e-09
6.00156e-09
1.9151e-08
2.06554e-08
2.12646e-08
1.91365e-08
6.43343e-09
1.87326e-08
1.44038e-08
1.46741e-08
2.08067e-09
6.04775e-09
5.19836e-09
2.50188e-08
1.9576e-08
7.56079e-09
7.08347e-08
7.9442e-09
6.65329e-09
7.91156e-09
8.1565e-09
6.99297e-09
7.52517e-09
5.93379e-09
1.03041e-08
7.25139e-09
5.75541e-09
2.2527e-08
2.03915e-08
2.11261e-08
6.47775e-09
2.19667e-08
2.10791e-08
2.42425e-08
1.56339e-08
1.4362e-08
1.53832e-08
2.41119e-08
2.4036e-08
7.87337e-09
5.18462e-09
6.57043e-09
6.13426e-09
6.52234e-09
5.15718e-09
6.3901e-09
6.54443e-09
4.13236e-09
4.13777e-09
6.09512e-09
5.99125e-09
6.23737e-09
5.16868e-09
6.2918e-09
6.36904e-09
5.17668e-09
6.31009e-09
6.22629e-09
5.1154e-09
6.2245e-09
5.8918e-09
5.11955e-09
6.24019e-09
8.34603e-09
8.417e-09
6.72991e-09
6.76129e-09
6.45571e-09
6.31683e-09
5.1543e-09
5.17675e-09
5.14079e-09
5.13355e-09
1.85326e-09
1.09411e-09
1.77167e-09
3.07777e-09
1.79723e-09
1.69067e-09
1.93616e-09
8.81759e-09
1.98777e-09
2.45078e-09
1.05969e-09
3.3058e-09
1.07093e-08
4.19951e-09
1.99922e-09
4.84529e-09
1.11559e-09
4.19701e-09
8.18946e-10
8.25655e-10
8.03733e-10
4.08812e-09
8.05049e-10
4.08317e-09
8.20667e-10
4.21639e-09
2.44522e-09
2.8738e-09
3.59883e-09
2.81458e-09
3.86397e-09
6.63315e-09
1.52217e-08
1.00128e-08
1.09969e-08
1.27579e-08
2.35693e-09
4.95644e-09
2.56113e-09
4.65918e-09
2.57785e-09
4.74833e-09
3.14394e-09
2.52358e-09
7.02332e-09
5.33947e-09
1.97378e-08
2.4835e-09
8.62681e-09
6.78199e-09
1.22927e-08
5.60194e-09
1.41967e-08
8.15301e-09
7.13498e-09
8.00106e-09
4.6321e-09
4.0482e-09
5.45716e-09
4.6392e-09
5.52138e-09
3.19365e-09
5.32342e-09
7.90592e-09
5.9102e-09
7.21915e-09
5.40438e-09
5.43223e-09
5.17803e-09
6.54082e-09
6.51943e-09
8.03908e-10
4.1174e-09
8.05138e-10
8.15335e-10
4.16119e-09
8.11398e-10
5.38465e-09
5.35215e-09
6.53132e-09
5.14963e-09
6.54311e-09
6.55966e-09
5.18396e-09
6.57008e-09
6.52054e-09
5.12193e-09
6.51265e-09
5.20448e-09
5.14061e-09
6.56083e-09
5.30969e-09
6.02725e-09
3.75052e-09
3.1741e-09
3.30055e-09
5.18711e-09
5.00518e-09
8.0561e-09
8.85027e-09
1.19883e-08
1.07364e-08
9.26058e-09
7.05496e-09
9.60192e-09
5.7805e-09
1.07105e-08
4.25437e-09
1.16695e-08
6.84918e-09
1.54659e-08
1.5899e-08
8.22975e-09
1.42092e-08
1.25072e-08
1.58335e-08
1.71906e-08
1.07807e-08
7.05254e-09
7.65175e-09
9.22419e-09
8.8309e-09
1.21285e-08
9.2814e-09
7.14344e-09
6.76778e-09
7.35339e-09
7.81491e-09
7.39649e-09
7.43653e-09
7.67135e-09
7.31356e-09
1.57659e-08
1.66374e-08
2.17457e-08
7.00629e-09
7.01641e-09
6.72665e-09
6.44197e-09
6.57884e-09
6.81432e-09
6.76651e-09
6.82758e-09
5.23438e-09
5.20377e-09
5.58604e-09
5.91591e-09
5.61158e-09
5.66481e-09
5.93968e-09
5.63813e-09
5.57245e-09
5.87662e-09
5.56863e-09
5.13373e-09
5.13077e-09
5.87517e-09
5.56748e-09
5.56657e-09
2.19254e-09
1.34005e-09
2.9511e-09
2.38157e-09
3.17287e-09
2.26844e-09
2.05424e-09
2.19687e-09
1.83895e-09
1.44593e-09
3.84792e-09
4.13774e-09
1.27965e-09
2.66357e-09
2.5996e-09
9.7896e-09
4.89739e-09
5.34448e-09
3.95986e-09
5.23722e-09
3.64239e-09
8.83841e-09
2.20376e-08
1.20146e-08
5.89005e-08
7.05533e-08
1.69723e-08
2.25652e-08
3.78146e-08
1.95404e-08
4.79897e-08
7.54337e-09
3.11328e-09
1.79657e-09
5.15879e-09
5.09435e-09
3.18153e-09
5.53514e-09
1.25639e-08
5.58691e-09
1.51861e-07
2.18868e-08
4.27343e-08
2.04798e-08
7.23102e-09
1.06306e-08
1.37021e-08
6.82969e-09
1.65608e-08
6.57392e-09
3.47365e-08
7.47113e-09
4.6347e-09
8.96133e-10
1.02048e-09
4.20677e-09
8.72643e-10
8.34542e-10
4.08555e-09
8.08085e-10
8.06112e-10
4.08266e-09
8.09843e-10
8.18097e-10
1.1327e-08
1.15331e-08
2.02836e-08
2.44269e-09
4.45102e-09
4.4477e-09
1.1759e-08
4.20664e-09
9.92715e-09
4.42279e-09
2.5189e-09
8.8164e-10
3.0426e-09
2.19241e-09
2.44066e-09
3.9067e-09
1.63456e-08
5.19157e-09
6.1892e-09
4.28624e-09
1.0012e-08
2.85684e-09
5.05889e-09
7.9942e-09
9.19721e-09
1.77635e-08
1.17559e-08
1.68837e-08
2.32653e-08
2.53253e-08
1.00983e-08
1.80023e-08
1.24988e-08
1.46375e-08
8.66653e-09
6.90118e-09
8.50542e-09
7.79768e-09
9.16441e-09
1.07836e-08
1.40245e-08
3.75208e-08
2.12805e-08
1.90131e-08
1.30763e-08
9.01027e-09
8.56728e-09
1.49945e-08
8.97986e-09
1.0774e-08
2.03596e-08
1.58902e-08
6.21628e-09
1.51916e-08
1.91832e-08
1.58983e-08
1.63489e-08
2.13513e-08
6.4558e-09
1.59381e-08
1.72046e-08
1.61564e-08
1.76212e-08
2.13115e-08
1.26009e-08
1.20225e-08
1.44227e-08
1.39398e-08
1.41155e-08
1.43326e-08
1.38613e-08
1.38139e-08
1.25195e-08
1.25469e-08
2.12488e-09
2.22437e-09
1.22862e-09
2.36875e-09
2.35153e-09
1.48247e-09
2.55856e-09
3.09096e-09
5.11874e-09
6.22229e-09
6.16517e-09
6.38604e-09
4.80045e-09
4.29365e-09
2.74018e-09
6.63292e-09
3.36894e-09
5.91285e-09
1.81214e-09
6.86957e-09
3.71719e-09
1.17086e-08
1.40342e-08
9.49567e-09
2.48109e-08
9.29007e-09
1.44615e-08
1.48916e-08
9.93466e-09
2.27725e-08
8.57209e-09
7.18091e-09
1.1556e-08
6.60178e-09
2.98644e-08
2.40267e-08
3.75886e-07
4.78801e-08
1.8104e-08
1.0644e-07
3.20372e-08
1.75629e-08
7.67846e-09
1.09276e-08
6.97344e-09
1.8574e-08
2.5766e-08
4.21994e-08
1.11174e-07
2.77961e-08
5.59791e-09
8.82887e-09
9.25115e-09
5.8624e-09
8.38624e-09
8.14572e-09
5.77543e-09
8.72053e-09
8.35739e-09
8.1474e-09
8.22468e-09
6.88833e-09
6.6846e-09
7.51268e-09
7.92816e-09
7.18911e-09
7.86691e-09
5.48189e-09
5.55576e-09
5.76004e-09
6.39871e-09
5.58264e-09
6.2474e-09
5.57608e-09
4.75257e-09
8.34304e-09
6.10655e-09
3.34582e-09
5.80796e-09
4.71919e-09
7.15204e-09
6.3651e-09
5.65641e-09
5.95881e-09
2.09622e-08
5.95586e-09
1.54758e-08
1.61419e-08
2.13784e-08
1.51229e-08
1.57229e-08
2.07467e-08
6.03952e-09
1.54524e-08
1.5948e-08
2.10434e-08
1.50186e-08
1.5433e-08
1.32088e-08
9.14606e-09
1.21825e-08
1.43207e-08
1.21713e-08
1.21592e-08
1.38118e-08
1.45135e-08
1.35502e-08
1.24286e-08
1.19945e-08
1.42421e-08
1.4938e-08
1.37209e-08
1.2887e-08
1.2568e-08
9.65936e-09
2.38341e-08
9.23907e-09
1.33297e-08
1.23866e-08
9.01985e-09
2.39133e-08
8.9893e-09
8.14914e-09
7.33512e-09
7.51708e-09
5.39977e-09
6.33441e-09
6.57192e-09
6.82477e-09
6.54422e-09
6.84463e-09
5.91241e-09
5.54563e-09
5.86285e-09
6.20424e-09
5.92983e-09
6.4055e-09
6.33248e-09
6.07998e-09
5.17081e-09
6.40261e-09
6.48396e-09
6.64025e-09
6.4339e-09
6.6441e-09
6.59054e-09
6.50205e-09
6.64495e-09
4.12284e-09
8.06867e-10
8.06192e-10
4.15663e-09
8.08278e-10
8.08963e-10
5.26873e-09
5.31011e-09
5.82349e-09
6.06419e-09
5.78651e-09
5.69929e-09
6.0283e-09
5.74285e-09
6.5809e-09
6.25198e-09
6.59204e-09
5.16032e-09
6.56847e-09
6.5561e-09
6.27158e-09
6.62401e-09
6.60779e-09
6.64451e-09
6.35331e-09
6.64648e-09
5.18277e-09
6.57257e-09
6.57152e-09
6.33138e-09
6.63096e-09
6.63733e-09
6.57039e-09
6.21774e-09
6.56071e-09
5.11797e-09
6.51381e-09
6.51014e-09
6.21656e-09
6.56694e-09
6.55906e-09
5.14839e-09
5.17298e-09
5.95266e-09
5.64428e-09
5.58277e-09
5.92076e-09
5.61181e-09
5.12921e-09
6.52439e-09
6.53974e-09
6.29095e-09
6.62435e-09
6.5807e-09
6.26065e-09
6.5975e-09
4.41884e-09
4.61205e-09
5.61216e-09
5.52839e-09
4.73528e-09
5.31598e-09
4.30151e-09
3.38051e-09
4.07644e-09
4.18636e-09
3.16753e-09
4.08371e-09
3.35474e-09
3.18172e-09
3.30191e-09
3.09603e-09
4.00176e-09
4.09658e-09
3.28578e-09
4.01069e-09
3.10386e-09
5.19312e-09
4.93415e-09
5.88697e-09
6.58711e-09
4.91049e-09
6.09091e-09
5.27878e-09
7.30562e-09
8.00786e-09
7.08256e-09
7.83787e-09
7.64513e-09
7.36609e-09
7.76161e-09
3.3137e-09
3.09942e-09
4.00782e-09
4.11036e-09
3.28791e-09
4.02145e-09
3.11326e-09
3.36252e-09
4.06607e-09
3.16143e-09
4.17168e-09
3.35042e-09
4.07849e-09
3.1666e-09
1.42024e-08
8.16839e-09
6.40432e-09
7.58157e-09
8.27957e-09
9.05815e-09
1.3169e-08
1.19508e-08
1.51815e-08
1.1357e-08
1.42717e-08
1.0385e-08
8.43333e-09
7.71568e-09
1.45157e-08
5.28166e-08
7.75415e-08
3.53118e-09
4.35126e-09
4.17011e-09
3.29296e-09
3.46954e-09
4.22184e-09
3.35115e-09
3.42822e-09
4.23572e-09
4.13056e-09
3.25786e-09
3.43794e-09
4.12933e-09
3.24102e-09
3.2928e-09
4.08345e-09
3.98798e-09
3.08209e-09
3.27246e-09
3.99907e-09
3.0936e-09
3.29447e-09
4.08292e-09
3.98857e-09
3.0819e-09
3.27238e-09
4.0014e-09
3.09299e-09
6.57291e-09
6.66488e-09
8.4712e-09
1.01536e-08
1.38812e-08
8.66828e-09
5.84716e-09
7.54041e-09
1.38408e-08
8.51337e-09
7.4672e-09
1.48659e-08
6.50078e-09
8.84263e-09
8.39171e-09
8.82652e-09
8.50044e-09
1.45256e-08
9.74263e-09
9.11056e-09
9.88614e-09
1.00528e-08
5.81745e-09
5.72996e-09
6.89886e-09
7.5241e-09
6.32343e-09
7.53273e-09
8.55189e-09
8.07034e-09
8.46818e-09
6.38977e-09
7.57399e-09
1.59385e-08
8.61985e-09
9.61158e-09
8.77585e-09
8.20161e-09
1.7381e-08
9.33705e-09
7.19359e-09
7.32251e-09
6.57289e-09
7.13451e-09
7.30483e-09
6.9628e-09
7.48252e-09
1.40298e-08
5.78473e-09
8.42802e-09
7.59306e-09
1.42495e-08
8.40118e-09
7.58914e-09
1.37375e-08
6.19589e-09
8.73474e-09
7.83942e-09
1.40977e-08
8.66721e-09
7.67533e-09
6.10241e-09
9.35436e-09
9.30931e-09
9.32183e-09
9.81271e-09
9.54035e-09
5.93606e-09
5.82483e-09
6.06758e-09
5.76115e-09
3.33307e-09
4.13658e-09
4.03949e-09
3.12861e-09
3.31888e-09
4.0483e-09
3.13481e-09
3.34833e-09
4.15224e-09
4.04776e-09
3.13353e-09
3.32301e-09
4.05886e-09
3.14702e-09
7.23583e-09
8.55806e-09
6.79048e-09
6.26719e-09
7.9495e-09
5.70939e-09
6.723e-09
6.74698e-09
6.52283e-09
6.91419e-09
5.48301e-09
5.60068e-09
5.53037e-09
5.5366e-09
6.52046e-09
6.8777e-09
6.72078e-09
6.7018e-09
5.949e-09
6.483e-09
6.07239e-09
6.42103e-09
5.67064e-09
5.36604e-09
5.32161e-09
5.84815e-09
6.4766e-09
6.36702e-09
6.19263e-09
6.52014e-09
5.09807e-09
5.11112e-09
5.0515e-09
5.15636e-09
4.19886e-09
4.21757e-09
4.242e-09
4.21324e-09
5.04416e-09
5.12383e-09
5.07896e-09
5.09625e-09
5.01981e-09
5.11488e-09
5.07608e-09
5.05723e-09
4.20429e-09
4.18685e-09
4.17974e-09
4.20152e-09
5.06263e-09
5.08387e-09
5.03672e-09
5.1142e-09
1.45043e-09
1.53638e-09
1.9264e-09
1.68598e-09
1.58499e-09
1.65165e-09
1.55986e-09
1.59317e-09
2.68678e-09
2.51329e-09
2.56111e-09
2.08271e-09
2.08308e-09
2.23569e-09
1.58774e-09
1.46256e-09
1.7935e-09
2.26696e-09
2.1029e-09
1.47982e-09
1.81225e-09
1.39669e-09
1.73713e-09
1.79955e-09
2.13357e-09
1.4282e-09
1.76798e-09
1.91202e-09
4.72213e-09
5.99312e-09
9.83032e-09
7.49567e-09
4.86004e-09
5.7947e-09
8.59007e-09
2.57031e-09
4.22676e-09
3.02085e-09
1.9754e-09
1.36437e-09
3.76232e-09
3.219e-09
4.1942e-09
9.91387e-09
5.93924e-09
8.19559e-09
4.18536e-09
5.60882e-09
7.85474e-09
1.67567e-09
2.65172e-09
1.55254e-09
2.02968e-09
2.31388e-09
4.17374e-09
5.18832e-09
4.70749e-09
3.75653e-09
4.97964e-09
3.90888e-09
3.99868e-09
1.49922e-09
1.28131e-09
1.83784e-09
1.30355e-09
2.03703e-09
3.38816e-09
4.1951e-09
4.08983e-09
3.1922e-09
4.09654e-09
3.38316e-09
3.19043e-09
9.05555e-10
1.28975e-09
8.25316e-10
8.91112e-10
1.29869e-09
9.08425e-10
1.31205e-09
8.29272e-10
9.06884e-10
1.30486e-09
8.52798e-10
1.22725e-09
8.13638e-10
8.42218e-10
1.23037e-09
3.3082e-09
4.09698e-09
4.00125e-09
3.09427e-09
4.00884e-09
3.28828e-09
3.10409e-09
8.52515e-10
8.16399e-10
1.21727e-09
8.33711e-10
1.22689e-09
4.00679e-09
3.09027e-09
3.29075e-09
8.4301e-10
1.20363e-09
8.25522e-10
4.27743e-09
5.08952e-09
5.335e-09
5.00814e-09
5.56077e-09
4.38977e-09
4.94898e-09
3.27825e-09
3.11873e-09
3.10984e-09
4.18832e-09
2.62994e-09
3.63401e-09
3.57075e-09
3.47446e-09
3.30207e-09
2.57385e-09
3.15464e-09
2.76246e-09
3.36049e-09
3.60874e-09
3.79166e-09
6.37424e-09
4.60041e-09
4.56299e-09
4.96421e-09
4.36124e-09
3.89907e-09
1.64726e-08
1.46488e-08
1.61846e-08
1.45097e-08
1.3315e-08
2.27187e-08
1.35406e-08
2.56711e-09
2.19889e-09
2.78222e-09
2.87655e-09
2.48514e-09
2.49277e-09
2.67882e-09
3.93145e-09
4.60542e-09
3.79244e-09
5.50527e-09
3.83633e-09
4.15764e-09
3.51929e-09
2.434e-09
2.59811e-09
2.29416e-09
1.76029e-09
1.93834e-09
2.67163e-09
2.28345e-09
4.16698e-09
2.90886e-09
5.17994e-09
4.89589e-09
5.07317e-09
3.02679e-09
3.96655e-09
2.84424e-09
3.06392e-09
3.30775e-09
2.21698e-09
3.61768e-09
5.29984e-09
6.8319e-09
6.31802e-09
5.99248e-09
6.21217e-09
5.50967e-09
5.62975e-09
3.28418e-09
4.21229e-09
4.97721e-09
4.00496e-09
4.24889e-09
1.25039e-08
1.72825e-08
1.37953e-08
2.12666e-08
1.14703e-08
1.843e-08
1.52853e-08
5.91833e-09
2.97788e-09
3.85666e-09
3.15762e-09
4.18413e-09
3.78262e-09
5.19021e-09
1.0241e-08
1.25849e-08
7.41374e-09
7.97725e-09
6.36872e-09
7.99028e-09
1.66166e-08
7.86279e-09
9.30519e-09
4.17213e-09
6.48849e-09
5.20425e-09
7.31694e-09
1.02891e-08
7.73815e-09
7.44001e-09
8.02905e-09
6.99595e-09
6.89181e-09
5.73564e-09
6.10771e-09
7.44789e-09
7.38744e-09
6.2218e-09
5.92568e-09
6.80846e-09
7.11826e-09
8.20713e-09
7.90612e-09
7.57094e-09
4.4387e-09
3.88854e-09
4.86436e-09
3.04802e-09
4.45846e-09
3.4708e-09
3.89841e-09
5.10453e-09
5.36211e-09
5.30472e-09
5.24688e-09
5.29946e-09
4.75053e-09
5.44555e-09
4.55244e-09
3.37393e-09
3.06844e-09
4.20108e-09
3.76728e-09
3.96167e-09
4.71645e-09
6.41386e-09
7.03434e-09
6.89467e-09
6.68003e-09
6.96454e-09
5.73864e-09
5.21579e-09
6.6163e-09
6.11072e-09
4.7067e-09
5.18085e-09
6.24652e-09
7.49714e-09
7.35856e-09
6.89125e-09
7.81535e-09
5.3706e-09
5.35498e-09
5.20617e-09
5.4935e-09
4.38511e-09
4.50425e-09
4.52469e-09
4.41163e-09
5.18577e-09
5.44918e-09
5.36163e-09
5.30607e-09
6.07453e-09
6.14069e-09
5.77261e-09
6.42047e-09
5.53211e-09
4.23249e-09
4.2857e-09
5.71804e-09
5.70624e-09
4.28665e-09
4.24866e-09
5.49691e-09
5.81545e-09
6.43e-09
6.08531e-09
6.17989e-09
8.55714e-10
1.22811e-09
8.12964e-10
8.42022e-10
1.23359e-09
3.32331e-09
4.11819e-09
4.02645e-09
3.11581e-09
4.03021e-09
3.31039e-09
3.11975e-09
8.56522e-10
8.15268e-10
1.22969e-09
8.42789e-10
1.23386e-09
8.90992e-10
1.28415e-09
8.21155e-10
8.87391e-10
1.28157e-09
3.36795e-09
4.17069e-09
4.06863e-09
3.1537e-09
4.07279e-09
3.34718e-09
3.1646e-09
8.87235e-10
8.20784e-10
1.26171e-09
8.68649e-10
1.27377e-09
5.17059e-09
5.37735e-09
5.31334e-09
5.25315e-09
4.47784e-09
4.37725e-09
5.34204e-09
5.28263e-09
5.19376e-09
5.41295e-09
4.35057e-09
4.44731e-09
5.99274e-09
6.27088e-09
6.3382e-09
5.91914e-09
5.60481e-09
4.1906e-09
4.21972e-09
5.64378e-09
5.65621e-09
4.2226e-09
4.21499e-09
5.6111e-09
5.91994e-09
6.32046e-09
5.97869e-09
6.26657e-09
5.87778e-09
6.42694e-09
6.23748e-09
6.07635e-09
5.72055e-09
4.26501e-09
5.5577e-09
4.23771e-09
6.08697e-09
6.20757e-09
5.84623e-09
6.43029e-09
5.58188e-09
4.23339e-09
4.27519e-09
5.71859e-09
5.90584e-09
6.3022e-09
6.25195e-09
5.95434e-09
5.63117e-09
4.19768e-09
4.19508e-09
5.59834e-09
5.59117e-09
4.1859e-09
4.20601e-09
5.62353e-09
5.96824e-09
6.25816e-09
5.91306e-09
6.31075e-09
5.152e-09
5.09615e-09
4.25106e-09
6.33293e-09
5.97851e-09
4.20549e-09
4.2267e-09
5.64805e-09
3.26439e-09
3.34077e-09
5.77108e-09
4.89285e-09
3.73276e-09
4.79294e-09
3.34742e-09
3.42703e-09
3.79717e-09
3.35276e-09
3.00553e-09
3.71522e-09
3.56878e-09
2.98335e-09
3.72762e-09
6.0732e-09
5.00905e-09
5.05177e-09
4.9865e-09
4.39464e-09
4.18604e-09
8.88827e-09
8.43695e-09
8.43979e-09
7.91691e-09
8.25542e-09
8.72673e-09
8.50844e-09
9.55426e-09
1.26442e-08
9.66131e-09
1.01469e-08
1.01373e-08
9.68035e-09
1.03522e-08
8.99536e-09
7.70624e-09
9.96262e-09
9.39591e-09
9.9234e-09
1.12744e-08
9.5318e-09
9.87132e-09
1.08121e-08
8.89685e-09
7.20857e-09
1.05991e-08
1.00794e-08
8.4502e-09
8.55467e-09
1.1137e-08
7.08481e-09
6.1782e-09
7.8782e-09
7.17023e-09
7.28571e-09
5.69178e-09
7.85684e-09
6.21672e-09
4.91777e-09
5.5708e-09
4.3136e-09
6.24006e-09
4.81499e-09
5.78636e-09
9.04903e-09
9.4813e-09
1.29329e-08
1.13071e-08
9.41628e-09
9.50835e-09
1.16781e-08
1.40005e-08
6.82649e-09
9.57624e-09
1.17133e-08
1.42162e-08
8.40943e-09
9.44576e-09
9.73303e-09
5.91416e-09
8.34569e-09
1.00727e-08
1.21116e-08
7.16425e-09
8.23527e-09
6.62779e-09
7.02433e-09
6.92086e-09
6.91047e-09
7.0548e-09
8.12863e-09
5.86719e-09
5.8625e-09
7.8345e-09
7.70625e-09
7.66126e-09
6.72796e-09
7.41858e-09
7.03864e-09
7.27266e-09
7.24853e-09
7.3975e-09
7.73437e-09
7.59155e-09
7.53224e-09
7.17537e-09
7.25578e-09
7.04995e-09
7.33189e-09
7.62849e-09
7.62231e-09
7.40188e-09
7.8165e-09
7.28586e-09
7.2968e-09
7.06397e-09
7.46312e-09
7.55421e-09
7.56178e-09
7.34317e-09
7.73299e-09
7.64486e-09
7.28142e-09
7.61113e-09
7.63811e-09
7.29071e-09
7.82356e-09
7.57374e-09
7.56979e-09
6.43467e-09
6.6725e-09
6.35841e-09
6.67939e-09
7.22194e-09
7.17244e-09
7.06128e-09
7.36096e-09
6.93602e-09
6.71591e-09
6.85264e-09
6.80052e-09
6.67504e-09
6.88181e-09
6.85691e-09
6.7444e-09
6.51215e-09
6.35189e-09
6.16536e-09
6.66335e-09
5.58409e-09
5.36146e-09
5.82938e-09
5.58247e-09
6.28381e-09
6.35659e-09
6.46666e-09
6.1877e-09
6.70603e-09
6.499e-09
6.50056e-09
6.75785e-09
6.49887e-09
6.48542e-09
6.38052e-09
6.54943e-09
6.69199e-09
6.51683e-09
6.58504e-09
6.57425e-09
6.56482e-09
6.56919e-09
6.58945e-09
6.57754e-09
5.07075e-09
5.19579e-09
5.13861e-09
5.13143e-09
4.30623e-09
4.25802e-09
4.23348e-09
4.27689e-09
5.17309e-09
5.1565e-09
5.22305e-09
5.10265e-09
5.50892e-09
5.41897e-09
5.47796e-09
5.44743e-09
5.63663e-09
5.78068e-09
5.68831e-09
5.72664e-09
5.4319e-09
5.44854e-09
5.41028e-09
5.47137e-09
5.71859e-09
5.73772e-09
5.64479e-09
5.81637e-09
5.4657e-09
5.51639e-09
5.44113e-09
5.54893e-09
5.77995e-09
5.77086e-09
5.69086e-09
5.86936e-09
5.56895e-09
5.47113e-09
5.54594e-09
5.48873e-09
5.66381e-09
5.85134e-09
5.75501e-09
5.75379e-09
5.41544e-09
5.43392e-09
5.38852e-09
5.46793e-09
5.67844e-09
5.71855e-09
5.63023e-09
5.77348e-09
5.46388e-09
5.40187e-09
5.43722e-09
5.41984e-09
5.61871e-09
5.77479e-09
5.67524e-09
5.71452e-09
5.04515e-09
5.07616e-09
5.01925e-09
5.10483e-09
4.18517e-09
4.19204e-09
4.19296e-09
4.17833e-09
5.03257e-09
5.09997e-09
5.08255e-09
5.05299e-09
5.45629e-09
5.38756e-09
5.41873e-09
5.42516e-09
5.63329e-09
5.7601e-09
5.7257e-09
5.66758e-09
5.66579e-09
5.71801e-09
5.61985e-09
5.76477e-09
5.42422e-09
5.42641e-09
5.40002e-09
5.44909e-09
2.15578e-09
2.50021e-09
2.25699e-09
1.99721e-09
1.90022e-09
2.43608e-09
2.23606e-09
2.45317e-09
2.92784e-09
3.15503e-09
2.92571e-09
2.84509e-09
2.82156e-09
2.61963e-09
1.9487e-09
1.97347e-09
1.96544e-09
2.28899e-09
1.72604e-09
2.18535e-09
2.23386e-09
2.52443e-09
2.67952e-09
1.7702e-09
2.43443e-09
2.03537e-09
2.15705e-09
2.91558e-09
2.25297e-09
1.80483e-09
2.24296e-09
1.11279e-09
1.85957e-09
2.59951e-09
1.49525e-09
3.04255e-09
3.37446e-09
3.14586e-09
4.23691e-09
2.65607e-09
3.64624e-09
3.55435e-09
1.83887e-09
1.30862e-09
1.42739e-09
9.99163e-10
1.55222e-09
1.49414e-09
1.2864e-09
3.84366e-09
3.04427e-09
3.22684e-09
2.74089e-09
3.91652e-09
3.10998e-09
3.38166e-09
6.06693e-09
8.82669e-09
6.82364e-09
8.47345e-09
6.80123e-09
6.19796e-09
7.6577e-09
4.67956e-09
3.53041e-09
5.34973e-09
4.04907e-09
5.33273e-09
4.70806e-09
3.53082e-09
5.07048e-09
4.13817e-09
6.86593e-09
5.10891e-09
5.16113e-09
4.21749e-09
6.16947e-09
1.28551e-08
2.05442e-08
5.94019e-09
9.22993e-09
8.72234e-09
8.59839e-09
3.64388e-09
1.1613e-08
1.30736e-08
8.78975e-09
1.29591e-08
1.0434e-08
7.01373e-09
1.54271e-08
3.71836e-08
2.63893e-08
8.40154e-08
7.73817e-08
8.60055e-08
6.27993e-08
6.05535e-08
6.46566e-08
6.51758e-08
5.56117e-08
7.36273e-08
8.49113e-08
7.47654e-08
9.96622e-08
6.58188e-08
1.8996e-07
7.51532e-08
8.17543e-08
4.07324e-08
2.41928e-08
4.71498e-08
3.82146e-08
2.89532e-08
4.94536e-08
2.55052e-08
1.46573e-08
1.6778e-08
2.54938e-08
1.55608e-08
2.69218e-08
2.12888e-08
3.85846e-08
5.04879e-08
3.57826e-08
4.50106e-08
3.9365e-08
5.34382e-08
3.23514e-08
4.36991e-08
4.2038e-08
5.70406e-08
3.35498e-08
5.22122e-08
4.71255e-08
5.58133e-09
6.49252e-09
5.98499e-09
7.4759e-09
6.13583e-09
4.64189e-09
6.84169e-09
3.44262e-09
2.08081e-09
2.62858e-09
2.09276e-09
2.9896e-09
3.00918e-09
2.33379e-09
4.97262e-09
6.02607e-09
3.69152e-09
5.14437e-09
4.08028e-09
4.31584e-09
6.11811e-09
3.75411e-09
4.31099e-09
2.6504e-09
2.09334e-09
4.12859e-09
3.08599e-09
2.38954e-09
1.67562e-08
1.80935e-08
1.6085e-08
1.03149e-08
1.34104e-08
2.23421e-08
1.45722e-08
1.25425e-08
1.60159e-07
5.47603e-08
8.16875e-08
5.09112e-08
4.34418e-08
7.37392e-08
1.97593e-08
2.67107e-08
4.32505e-08
4.28324e-08
4.1449e-08
3.18784e-08
2.02932e-08
1.59978e-08
1.89132e-08
1.4514e-08
2.9273e-08
1.4221e-08
2.91084e-08
1.42565e-08
1.18508e-08
1.16478e-08
1.12649e-08
2.06841e-08
9.48214e-09
1.61076e-08
1.56998e-08
9.04856e-09
7.88176e-09
9.01754e-09
6.01163e-09
7.48413e-09
1.15663e-08
6.95009e-09
1.5187e-08
2.39104e-08
2.73902e-08
3.07661e-08
2.35994e-08
1.9972e-08
1.84407e-08
3.61811e-09
4.45291e-09
4.47714e-09
3.57147e-09
3.75035e-09
4.33606e-09
3.44462e-09
1.07313e-09
1.46406e-09
9.20271e-10
1.03015e-09
1.51879e-09
1.13056e-09
1.6985e-09
9.60229e-10
1.22394e-09
1.59653e-09
3.41995e-09
4.22283e-09
4.1048e-09
3.20479e-09
3.39367e-09
4.11113e-09
3.22426e-09
9.7166e-10
1.42143e-09
8.59851e-10
9.95762e-10
1.38725e-09
9.49931e-10
1.33046e-09
8.48429e-10
9.23242e-10
1.35746e-09
3.30262e-09
4.0889e-09
3.9982e-09
3.09212e-09
3.28631e-09
4.00321e-09
3.09803e-09
8.4594e-10
1.21461e-09
8.17301e-10
8.32332e-10
1.22095e-09
8.4845e-10
1.2151e-09
8.18696e-10
8.31644e-10
1.22107e-09
3.30438e-09
4.08739e-09
4.00296e-09
3.08979e-09
3.289e-09
4.00636e-09
3.09685e-09
8.43464e-10
1.21314e-09
8.22421e-10
8.31131e-10
1.21668e-09
8.43802e-10
1.20532e-09
8.27563e-10
8.26265e-10
1.21423e-09
8.14736e-09
6.37968e-09
6.08648e-09
6.29214e-09
1.10327e-08
5.09458e-09
5.84845e-09
6.80637e-09
6.51756e-09
6.02419e-09
1.07742e-08
9.07859e-09
1.07446e-08
6.20321e-09
1.42082e-08
7.81555e-09
2.86499e-09
2.41069e-08
5.15867e-09
1.76833e-08
4.76613e-09
4.40062e-09
1.64928e-08
1.94931e-09
1.1437e-08
5.36947e-09
1.09314e-08
4.19055e-09
9.20699e-09
5.50083e-09
3.43626e-09
4.6092e-09
4.56245e-09
4.92511e-09
4.06444e-09
3.67396e-09
4.40395e-09
1.86928e-09
1.17211e-09
9.57095e-10
1.13834e-09
1.18273e-09
1.77882e-09
1.35432e-09
2.51316e-09
2.95397e-09
2.09986e-09
1.47969e-09
3.00722e-09
1.56751e-09
2.43123e-09
2.74245e-09
3.7073e-09
1.87026e-09
2.58866e-09
2.74139e-09
3.66366e-09
1.96703e-09
5.6388e-09
1.78768e-08
6.21644e-09
6.1886e-09
1.25523e-08
4.60292e-09
5.74333e-09
4.36464e-09
3.85008e-09
6.13665e-09
5.50573e-09
4.95159e-09
9.00616e-09
3.42869e-09
4.7087e-09
1.16274e-08
8.05177e-09
8.25337e-09
6.09365e-09
1.12121e-08
5.04061e-09
5.20556e-09
4.21018e-09
3.41675e-09
2.9582e-09
8.48542e-09
4.51552e-09
3.66751e-09
1.31021e-08
3.10648e-08
7.54546e-09
1.54723e-08
1.17125e-08
1.70712e-08
1.20841e-08
1.50229e-08
1.13899e-08
4.82501e-09
1.07121e-08
9.04931e-09
8.36309e-09
1.19729e-08
7.0835e-09
1.29089e-08
9.54653e-09
1.23804e-08
9.65588e-09
1.05885e-08
1.22427e-08
2.31573e-08
8.30683e-09
3.03687e-08
1.27788e-08
1.7942e-08
1.09045e-08
9.79819e-09
1.22101e-08
3.41749e-08
4.93452e-08
1.74132e-08
1.61655e-08
4.99069e-08
1.24727e-08
9.83882e-09
1.86801e-08
2.35886e-08
1.27216e-08
1.86911e-08
2.93893e-08
7.92104e-09
1.60663e-08
7.9521e-08
2.12364e-08
7.71546e-08
1.0608e-08
1.24006e-08
1.33387e-08
1.37798e-08
1.2562e-08
1.0894e-08
1.20811e-08
8.2104e-09
6.83552e-09
7.42096e-09
7.43766e-09
8.13013e-09
7.27663e-09
7.2938e-09
9.02322e-09
9.82198e-09
7.80792e-09
8.3099e-09
9.14117e-09
1.01696e-08
7.78633e-09
3.44024e-08
5.38759e-09
2.38879e-08
1.1203e-07
1.331e-08
3.15443e-08
1.34893e-08
1.54027e-08
2.25997e-08
1.39909e-08
1.23913e-08
8.92794e-09
5.53036e-09
1.90039e-08
1.46573e-08
6.61312e-09
2.23634e-08
8.01631e-09
8.70172e-09
2.4497e-08
1.81186e-08
8.96037e-09
7.98008e-09
2.45045e-08
7.94484e-09
1.13784e-08
1.13906e-08
8.83206e-09
8.3561e-09
1.26033e-08
1.03087e-08
8.83143e-09
1.43812e-08
5.9284e-09
8.57025e-09
8.02052e-09
1.44392e-08
8.62366e-09
7.95239e-09
1.50168e-08
6.52942e-09
8.90983e-09
8.73656e-09
1.50606e-08
8.83192e-09
8.63995e-09
1.03264e-08
1.15817e-08
1.21332e-08
1.01957e-08
1.08306e-08
9.59747e-09
9.58918e-09
1.1174e-08
1.22375e-08
1.03062e-08
1.05119e-08
1.10519e-08
1.31243e-08
1.30369e-08
1.25782e-08
1.2727e-08
1.01841e-08
1.36659e-08
1.28794e-08
1.13255e-08
1.00372e-08
1.00602e-08
1.08969e-08
1.25335e-08
1.17512e-08
1.08353e-08
1.17571e-08
1.14807e-08
1.08505e-08
1.24721e-08
1.08091e-08
1.16632e-08
1.87427e-09
2.0096e-09
1.68004e-09
2.12528e-09
2.15991e-09
1.7167e-09
1.90895e-09
1.4296e-09
1.35878e-09
1.65973e-09
9.72676e-10
1.59775e-09
1.16779e-09
1.39889e-09
1.69364e-09
2.00454e-09
1.64825e-09
1.93779e-09
1.84201e-09
1.55706e-09
1.90736e-09
1.46548e-09
1.29473e-09
1.14232e-09
1.87796e-09
1.40807e-09
1.17455e-09
1.453e-09
4.32604e-09
4.07431e-09
3.61698e-09
3.5078e-09
3.54432e-09
4.58075e-09
4.29617e-09
5.666e-09
6.24724e-09
6.41821e-09
5.48718e-09
6.41655e-09
5.46777e-09
5.75711e-09
5.46778e-09
5.01532e-09
6.60268e-09
6.7798e-09
6.52346e-09
5.41825e-09
5.47921e-09
4.92094e-09
3.68927e-09
5.13835e-09
5.21799e-09
4.38184e-09
4.68599e-09
5.30555e-09
3.48355e-09
2.20615e-09
3.82439e-09
2.88523e-09
3.28359e-09
2.58597e-09
3.68961e-09
4.2442e-09
4.24757e-09
2.8543e-09
6.46499e-09
3.32007e-09
5.78635e-09
3.75962e-09
2.86114e-09
1.71811e-09
1.9433e-09
2.28965e-09
2.94822e-09
2.55324e-09
2.19861e-09
4.93745e-09
4.95962e-09
6.96041e-09
6.62713e-09
6.68701e-09
4.60282e-09
5.09113e-09
6.54981e-09
6.25173e-09
5.27352e-09
6.66367e-09
5.29688e-09
1.15871e-08
5.20334e-09
6.15174e-09
4.77986e-09
5.83418e-09
4.69705e-09
6.91217e-09
1.2368e-08
6.4709e-09
6.0907e-09
4.5845e-09
1.08024e-08
4.17585e-09
4.31496e-09
1.02758e-08
1.60726e-08
2.33115e-08
1.59691e-08
2.32193e-08
1.06571e-08
3.93185e-09
4.32513e-09
1.01627e-08
1.62427e-08
2.24356e-08
1.56824e-08
2.30447e-08
7.48296e-09
7.49011e-09
7.01609e-09
7.06851e-09
1.39807e-08
4.91621e-09
6.88011e-09
5.20045e-09
6.34338e-09
7.12221e-09
5.17641e-09
6.74531e-09
1.41524e-08
6.87756e-09
7.18092e-09
5.20282e-09
9.39341e-09
4.03401e-09
4.68929e-09
1.02535e-08
1.33337e-08
1.82039e-08
1.22043e-08
1.97881e-08
9.86291e-09
5.37626e-09
9.09808e-09
5.16562e-09
1.44911e-08
2.18636e-08
1.52397e-08
2.07735e-08
6.2625e-09
7.31449e-09
6.29996e-09
6.40444e-09
5.5716e-09
6.5841e-09
7.03279e-09
6.67096e-09
8.95995e-09
9.67793e-09
9.96987e-09
7.8425e-09
5.94985e-09
5.79622e-09
8.20356e-09
4.58849e-09
6.89818e-09
5.22294e-08
2.57898e-08
4.86613e-08
3.11426e-08
2.86448e-08
4.96587e-08
4.27879e-08
1.02186e-07
2.54488e-07
1.10041e-07
1.66385e-07
1.04647e-07
1.82162e-07
8.35933e-08
2.15317e-08
1.82302e-08
1.26981e-08
1.95153e-08
1.41033e-08
1.43996e-08
2.48309e-08
1.52873e-08
8.33715e-09
7.03403e-09
8.68238e-09
9.22486e-09
1.58243e-08
9.00006e-09
2.6952e-08
1.00163e-08
2.26078e-08
7.2764e-09
1.3296e-08
1.51459e-08
9.6979e-09
7.16757e-09
1.36739e-08
9.96467e-09
1.29582e-08
1.81324e-08
2.58094e-08
2.0732e-08
1.17885e-08
2.43488e-08
1.41579e-08
3.04311e-08
1.45625e-08
3.35133e-08
3.74467e-08
2.5611e-08
2.54831e-08
3.43534e-08
3.26091e-08
2.64017e-08
3.4937e-08
3.36097e-08
2.65606e-08
3.70542e-08
4.83827e-08
2.73826e-08
3.5371e-08
5.36724e-08
6.38458e-08
1.07195e-07
3.73892e-08
1.03648e-07
6.17744e-08
3.44606e-08
2.98936e-08
2.62924e-08
3.46075e-08
3.18581e-08
3.02573e-08
2.84468e-08
3.54862e-08
1.17953e-08
8.21798e-09
5.85753e-09
7.29543e-09
6.71219e-09
8.83115e-09
1.13875e-08
1.1762e-08
1.67324e-08
6.56763e-09
1.09833e-08
1.10135e-08
6.94165e-09
1.8435e-08
5.46078e-09
7.48104e-09
1.13336e-08
9.57736e-09
8.0549e-09
5.78948e-09
7.042e-09
7.37062e-09
1.00046e-08
7.23057e-09
6.38251e-09
8.68773e-09
8.96677e-09
6.83464e-09
6.88041e-09
9.92839e-09
9.63295e-09
6.15804e-09
8.64964e-09
5.90727e-09
6.66682e-09
6.98725e-09
7.18253e-09
7.06407e-09
8.27172e-09
8.08652e-09
7.67451e-09
8.21907e-09
7.66344e-09
7.70842e-09
7.95051e-09
7.66645e-09
8.11576e-09
8.0406e-09
7.67523e-09
7.96212e-09
7.70215e-09
7.71968e-09
8.4248e-09
7.80452e-09
8.21398e-09
6.54996e-09
7.74003e-09
7.42944e-09
7.05429e-09
6.63503e-09
1.00125e-08
4.8893e-09
7.54659e-09
6.47986e-09
5.72622e-09
7.16915e-09
6.35804e-09
6.83115e-09
6.63032e-09
7.24358e-09
5.90643e-09
7.44109e-09
7.93938e-09
7.90101e-09
7.30325e-09
7.56965e-09
7.30428e-09
7.59964e-09
7.19454e-09
7.53032e-09
7.86722e-09
7.50576e-09
7.92151e-09
7.46387e-09
6.51566e-09
7.27303e-09
7.01679e-09
5.3928e-09
5.43748e-09
5.37276e-09
5.67482e-09
5.43833e-09
5.41077e-09
5.24287e-09
8.03304e-09
5.33209e-09
4.4823e-09
5.11258e-09
5.45539e-09
7.09709e-09
6.78045e-09
1.11234e-08
9.90969e-09
2.84391e-08
1.13019e-08
1.30834e-08
4.56871e-09
5.39201e-09
1.41692e-08
5.49749e-09
1.91528e-08
9.20813e-09
7.59546e-09
7.19521e-09
7.07986e-09
5.99399e-09
6.59866e-09
4.78434e-09
4.8882e-09
4.99725e-09
5.14057e-09
5.4321e-09
6.49336e-09
6.25264e-09
8.12484e-09
6.33196e-09
7.72657e-09
7.13601e-09
5.28319e-09
6.3286e-09
6.60759e-09
7.45757e-09
5.82979e-09
6.03325e-09
5.772e-09
6.93306e-09
7.42758e-09
5.77747e-09
1.37615e-08
5.86326e-09
8.45504e-09
7.60971e-09
1.3623e-08
8.37493e-09
7.52521e-09
1.35049e-08
6.07339e-09
8.44448e-09
7.42262e-09
1.34464e-08
8.50879e-09
7.50769e-09
6.18442e-09
4.30269e-09
5.79225e-09
1.54608e-08
2.32381e-08
1.54553e-08
2.32626e-08
3.67465e-09
3.72673e-09
9.88654e-09
1.07493e-08
1.15806e-08
1.3975e-08
9.39205e-09
9.32187e-09
1.07171e-08
1.21172e-08
1.15745e-08
1.06967e-08
1.15948e-08
1.15613e-08