/*--------------------------------*- C++ -*----------------------------------*\
| =========                 |                                                 |
| \\      /  F ield         | OpenFOAM: The Open Source CFD Toolbox           |
|  \\    /   O peration     | Version:  2012                                  |
|   \\  /    A nd           | Website:  www.openfoam.com                      |
|    \\/     M anipulation  |                                                 |
\*---------------------------------------------------------------------------*/
FoamFile
{
    version     2.0;
    format      ascii;
    class       volSymmTensorField;
    location    "0.104/solid";
    object      epsilon;
}
// * * * * * * * * * * * * * * * * * * * * * * * * * * * * * * * * * * * * * //

dimensions      [0 0 0 0 0 0 0];


internalField   nonuniform List<symmTensor> 
3124
(
(-1.06236e-09 1.56512e-09 2.33088e-09 4.45964e-09 4.5508e-09 3.48712e-09)
(6.7563e-11 5.11814e-10 2.50843e-10 -1.71645e-10 -6.62273e-10 -1.48548e-09)
(2.30961e-11 2.57511e-10 1.87212e-09 2.29658e-11 1.12172e-09 -1.08537e-09)
(5.60311e-10 1.25727e-10 -1.03499e-09 -6.84623e-11 -3.77619e-10 8.92479e-09)
(3.8574e-10 -2.95356e-11 -3.55233e-12 5.4884e-12 -3.21898e-11 6.44467e-09)
(3.76388e-10 2.57738e-11 4.8128e-11 2.15135e-12 2.3481e-12 6.31628e-09)
(4.49664e-10 6.73177e-10 5.17237e-10 -3.54332e-11 -8.00952e-10 -2.00479e-09)
(3.20327e-10 2.88593e-11 5.67862e-10 -3.40922e-09 2.9294e-09 1.37469e-08)
(-4.29401e-09 6.10013e-09 2.58684e-10 2.77582e-08 1.50367e-09 -9.82492e-10)
(-2.72266e-10 1.67222e-10 2.08369e-09 -1.08372e-10 1.78138e-09 2.89261e-09)
(6.44376e-10 1.39517e-10 -1.31918e-09 -6.36457e-11 -3.48769e-10 9.35497e-09)
(-4.48814e-10 3.75563e-11 3.09738e-09 1.60567e-09 1.59332e-09 -2.72838e-09)
(1.73368e-10 4.72702e-12 4.57995e-10 1.66623e-10 9.97522e-10 1.20638e-08)
(1.13016e-09 2.08876e-10 -1.80107e-09 -1.9913e-10 -2.25632e-11 1.04975e-08)
(-6.59291e-10 -1.1399e-11 2.6769e-09 3.42409e-10 1.23452e-09 3.79218e-09)
(-4.46358e-09 6.38929e-09 -4.37058e-11 2.85918e-08 7.3222e-10 -7.04504e-10)
(9.32671e-10 1.14889e-10 -1.53213e-09 -7.83755e-11 -1.65631e-10 9.88508e-09)
(5.85762e-10 -8.23797e-12 -9.68988e-10 5.10031e-12 -9.25418e-12 7.86394e-09)
(3.77724e-10 -3.11537e-11 4.7528e-11 2.76647e-12 -2.00127e-11 6.32334e-09)
(3.8604e-10 2.70611e-11 2.04745e-12 3.70662e-12 -8.30522e-12 6.43571e-09)
(5.59154e-10 -3.29922e-12 -9.44885e-10 -5.58218e-13 -7.20796e-12 7.79343e-09)
(5.81781e-10 -8.07416e-12 -9.64603e-10 2.08734e-12 -1.18492e-12 7.86529e-09)
(5.57553e-10 -3.30729e-12 -9.42121e-10 -7.574e-13 -9.85242e-13 7.77816e-09)
(-1.12399e-09 1.27844e-09 1.53053e-09 -4.63186e-10 -3.71585e-10 -2.47734e-10)
(-1.06174e-08 -1.27939e-09 9.76412e-09 -7.25537e-09 -5.62257e-09 1.19974e-08)
(-1.68735e-09 2.44948e-09 6.20687e-09 -3.1108e-09 -4.48137e-09 1.52719e-10)
(1.21645e-09 1.00785e-09 1.68765e-09 7.90079e-09 2.42673e-09 7.51118e-10)
(1.3484e-10 2.36936e-09 3.27045e-09 3.37464e-09 2.82535e-09 2.01553e-09)
(-2.30663e-09 3.74873e-09 1.83316e-09 1.50627e-08 4.86502e-09 9.27508e-11)
(2.94045e-09 -3.78895e-09 2.86697e-09 2.02521e-08 7.29199e-09 -2.22433e-09)
(-3.56573e-11 3.35394e-10 3.89998e-09 7.96276e-10 4.33467e-09 4.11659e-09)
(-2.05745e-09 7.27472e-09 3.54309e-09 1.00478e-08 3.3956e-09 8.13079e-10)
(3.80699e-10 -6.2967e-12 8.90146e-11 -2.13912e-10 3.10487e-11 1.17021e-08)
(2.2218e-10 -1.7929e-10 2.43402e-10 -5.22068e-10 9.22272e-10 1.10047e-08)
(2.21276e-09 2.12314e-09 2.69754e-10 7.92194e-09 -1.93093e-10 -8.61174e-10)
(-1.84375e-09 -9.87261e-10 -2.16578e-11 3.2456e-08 4.11665e-10 -6.9518e-10)
(3.65614e-10 3.88386e-11 7.95615e-11 -1.09987e-10 -1.26649e-10 1.12361e-08)
(2.86274e-10 -2.91306e-12 2.74753e-10 1.07932e-12 -8.76337e-11 1.01579e-08)
(2.54735e-10 -6.12176e-13 5.19818e-11 4.48586e-12 -8.71784e-12 8.96432e-09)
(2.56674e-10 -2.62028e-12 6.16647e-11 2.90333e-12 -1.28677e-11 9.06901e-09)
(2.5413e-10 7.02436e-13 5.07135e-11 3.83872e-12 -4.26062e-12 8.94492e-09)
(2.5337e-10 1.2033e-12 5.08588e-11 1.85689e-12 2.94037e-13 8.93889e-09)
(-5.30588e-10 9.3567e-10 1.00253e-09 -7.6527e-10 -5.79822e-10 -5.15595e-10)
(-7.94681e-10 6.1155e-10 1.94205e-09 5.43071e-11 -2.29652e-10 -8.46982e-10)
(-1.6884e-09 1.95414e-09 4.93926e-09 -1.46422e-09 -3.23825e-09 -9.9929e-10)
(-9.67237e-09 2.98474e-09 1.26104e-08 -9.32047e-09 -3.94458e-09 1.4419e-08)
(-4.62289e-09 6.29642e-09 1.008e-08 -5.85658e-09 -5.49394e-09 7.51045e-09)
(-1.17474e-09 4.49641e-10 2.41596e-09 5.34149e-10 -1.50452e-10 -1.03402e-09)
(-2.39994e-09 4.1768e-09 1.01096e-08 2.10836e-08 -3.12416e-08 -4.8083e-08)
(-4.03045e-09 3.92655e-09 6.30008e-09 -2.15784e-09 -3.70565e-09 1.77578e-09)
(3.89239e-10 -2.78713e-11 -1.76171e-10 4.78387e-11 -1.28204e-10 6.62231e-09)
(3.86771e-10 3.12759e-11 -1.3514e-10 3.24862e-11 -8.03353e-11 6.57025e-09)
(3.74367e-10 -2.67512e-11 6.36427e-11 1.57442e-12 -1.58274e-11 6.28677e-09)
(3.7482e-10 3.01153e-11 6.65169e-11 9.96474e-13 5.46833e-12 6.28601e-09)
(5.66902e-10 1.18447e-09 1.48705e-09 1.11737e-09 4.00457e-10 3.31229e-10)
(-3.90556e-11 2.94077e-10 1.3381e-09 1.54375e-10 3.79075e-10 -1.64311e-09)
(3.96641e-10 2.60448e-11 4.10401e-09 4.15179e-10 2.1863e-09 2.52931e-09)
(-2.33955e-09 1.27748e-08 1.93933e-09 4.91074e-09 3.48749e-09 4.24044e-10)
(-2.15964e-10 5.22059e-12 1.10543e-09 -5.03386e-10 9.66398e-10 1.02708e-08)
(8.89735e-09 -2.27652e-09 9.39818e-10 1.29221e-08 1.23842e-08 -5.33851e-09)
(-6.81466e-11 6.22167e-10 1.99425e-09 -3.11341e-10 5.32378e-09 4.47811e-09)
(3.3096e-09 -7.69755e-11 1.6104e-09 9.2597e-09 1.82666e-09 2.28141e-10)
(-3.46375e-09 5.22876e-09 1.14622e-09 2.44194e-08 2.8004e-09 -1.03847e-09)
(-8.76043e-11 -2.59729e-09 2.0641e-10 2.99803e-08 -1.18195e-10 -1.22414e-09)
(-6.27806e-09 1.34937e-08 3.28113e-10 1.75647e-08 1.64911e-09 -3.84344e-10)
(2.30205e-09 -3.32092e-09 2.15554e-09 2.62548e-08 4.2593e-09 -2.81585e-09)
(2.87739e-09 1.39648e-09 -3.9516e-10 9.55815e-09 8.56619e-10 -9.32791e-10)
(-5.30339e-09 1.16295e-08 1.98197e-09 1.54203e-08 2.37561e-09 -6.86037e-10)
(1.08058e-08 -2.74234e-09 2.0165e-10 2.39996e-08 -3.43755e-10 -2.95156e-10)
(1.11716e-08 -3.73367e-09 2.71928e-09 2.26502e-08 9.06965e-10 -9.5516e-10)
(-3.17111e-10 2.5916e-10 1.642e-09 3.08642e-10 3.48032e-10 -8.95068e-10)
(-1.63456e-10 -1.34025e-10 1.19143e-09 -2.82746e-10 1.07447e-09 8.40869e-09)
(6.26007e-12 2.83601e-10 2.56176e-09 -1.74604e-11 2.98883e-09 3.74577e-09)
(-4.90151e-09 2.05547e-08 -1.84348e-11 7.94148e-09 2.14089e-09 -3.31756e-10)
(-3.72227e-09 1.58444e-08 8.98323e-10 6.40312e-09 2.97282e-09 -4.70949e-10)
(1.73919e-09 -3.90922e-10 -3.31876e-09 -1.20638e-09 2.02445e-09 9.00249e-09)
(5.46036e-09 2.18446e-09 8.83712e-09 3.70564e-08 -1.01298e-10 -8.01919e-08)
(1.63497e-09 -1.61981e-09 -1.85788e-09 -2.1002e-09 3.26371e-09 8.78696e-09)
(-1.88395e-10 3.29945e-11 7.46042e-10 7.26349e-11 1.07859e-09 9.65732e-09)
(-3.09425e-11 -1.28981e-10 4.11151e-10 -1.68268e-10 5.95501e-10 1.16986e-08)
(4.60326e-10 -9.89533e-13 -2.361e-10 -2.56293e-10 5.75706e-11 1.23138e-08)
(1.89375e-09 -7.22172e-10 -1.6449e-09 -2.06811e-09 2.05617e-09 8.62438e-09)
(2.8423e-10 -2.78174e-10 1.04266e-10 -5.11022e-10 1.01193e-09 1.10043e-08)
(-1.56968e-10 -1.22444e-11 9.09471e-10 3.37272e-11 9.88486e-10 8.52801e-09)
(3.07448e-10 -2.43892e-09 -8.1133e-10 -1.29643e-09 1.45265e-09 1.4025e-08)
(-1.98848e-11 -3.10607e-10 5.17514e-10 -5.40885e-11 7.83433e-10 1.07043e-08)
(2.76737e-09 1.78846e-09 2.74622e-10 8.38448e-09 -2.00708e-10 -8.21248e-10)
(-4.70155e-09 6.6616e-09 1.02614e-10 2.89555e-08 3.64413e-10 -4.68164e-10)
(-2.80512e-10 -2.27269e-09 9.34429e-11 2.97995e-08 -1.81178e-10 -7.76198e-10)
(-5.36875e-09 1.2962e-08 -2.33456e-10 1.88208e-08 9.81047e-10 -9.06872e-10)
(4.30057e-09 5.43357e-10 -1.38599e-10 1.04651e-08 5.16662e-10 -6.27666e-10)
(-1.45572e-09 -1.12887e-09 1.69238e-10 3.17767e-08 8.35142e-10 -6.95339e-10)
(-5.16374e-09 1.31887e-08 3.02782e-10 1.86393e-08 1.46465e-10 -5.17395e-10)
(-4.48842e-09 1.97797e-08 2.8744e-11 9.27995e-09 5.809e-11 -1.37632e-10)
(1.07612e-08 -1.8518e-09 -6.08999e-11 2.63609e-08 2.53669e-10 -3.31621e-10)
(1.0723e-08 -2.57835e-09 6.82471e-11 2.38851e-08 -2.98982e-10 -4.14504e-10)
(1.07824e-08 -1.92668e-09 7.86661e-11 2.58144e-08 5.25503e-10 -4.36403e-10)
(-4.48542e-09 1.9566e-08 -5.07781e-11 9.38081e-09 1.49423e-09 -5.05636e-10)
(-4.37736e-09 1.95378e-08 2.12847e-11 9.58652e-09 4.11861e-10 -2.16959e-10)
(4.18525e-10 5.31161e-11 -2.47973e-10 -1.56768e-10 -1.35611e-10 1.19199e-08)
(6.27483e-10 -5.03348e-12 -1.04949e-09 5.57885e-11 -5.28508e-11 7.88635e-09)
(3.53139e-10 1.08187e-11 -1.87411e-11 5.4639e-11 -7.3431e-11 1.00553e-08)
(2.49219e-10 -8.4026e-12 9.88172e-11 2.09091e-11 -3.1634e-11 9.33256e-09)
(2.56938e-10 -4.636e-11 2.10492e-10 1.61718e-11 -1.05071e-10 9.90903e-09)
(6.14539e-10 -1.79802e-12 -1.00927e-09 3.54687e-11 -1.96481e-11 7.84389e-09)
(2.97748e-10 -1.51796e-11 -1.39033e-10 1.64602e-11 -2.23932e-11 9.73601e-09)
(3.2855e-10 -3.32206e-11 -4.66359e-11 3.00632e-11 -4.44794e-11 9.99174e-09)
(3.81772e-10 2.56938e-11 3.41507e-11 1.35677e-12 -1.77888e-12 6.3809e-09)
(3.8298e-10 -3.10794e-11 3.21717e-11 2.00536e-12 -2.35958e-11 6.38976e-09)
(2.53273e-10 -5.79839e-12 9.0037e-11 1.10127e-11 -2.10492e-11 9.271e-09)
(2.56626e-10 -4.2008e-12 6.69822e-11 3.88731e-12 -1.60286e-11 9.11366e-09)
(2.87396e-10 -1.42598e-12 -1.88803e-10 3.21398e-12 -6.08182e-12 9.49239e-09)
(5.67563e-10 -5.86981e-12 -9.53253e-10 -1.71545e-12 -1.88914e-12 7.84203e-09)
(2.92251e-10 -4.05527e-12 -1.80787e-10 1.1866e-12 -1.03235e-11 9.57584e-09)
(2.97575e-10 -1.06691e-11 -1.50583e-10 8.99503e-12 -1.32341e-11 9.69997e-09)
(5.70201e-10 -5.37854e-12 -9.56362e-10 -1.19587e-12 -6.66513e-12 7.85461e-09)
(2.93737e-10 -6.43555e-12 -1.74949e-10 2.32516e-12 -9.96771e-12 9.60492e-09)
(2.86335e-10 3.31087e-13 -1.89439e-10 2.81351e-12 -5.34643e-12 9.475e-09)
(5.539e-10 1.05384e-12 -9.35819e-10 -2.68014e-12 -4.80907e-12 7.76004e-09)
(2.84733e-10 7.02574e-13 -1.88645e-10 5.96775e-13 1.8877e-12 9.47044e-09)
(2.54026e-10 2.78581e-12 5.23503e-11 -2.60248e-12 3.16484e-12 8.96015e-09)
(5.5359e-10 2.72681e-13 -9.34527e-10 -5.35106e-12 -1.71797e-13 7.7653e-09)
(2.85102e-10 2.1669e-12 -1.8769e-10 -4.0517e-12 8.67327e-13 9.49181e-09)
(-5.89776e-09 -1.24589e-09 -1.38735e-10 -5.40892e-09 -8.36505e-11 6.66786e-09)
(-4.09339e-09 -1.64697e-09 5.34559e-09 -2.78743e-09 2.27304e-10 4.56619e-09)
(1.6635e-10 -7.26382e-13 4.37562e-10 -1.31536e-10 5.33693e-11 1.00801e-08)
(1.85426e-10 -4.64742e-11 4.64848e-10 -2.09334e-10 2.05872e-10 1.00856e-08)
(1.65493e-10 3.264e-11 4.4432e-10 -4.66743e-11 -8.48201e-11 9.7093e-09)
(1.54027e-10 4.46092e-11 4.8435e-10 -8.63917e-12 4.85276e-11 9.50898e-09)
(5.17479e-11 1.60076e-12 2.76586e-10 3.0456e-12 -7.61608e-12 7.74387e-09)
(5.21456e-11 7.4108e-13 2.77837e-10 2.87748e-12 -1.29127e-11 7.77756e-09)
(5.14823e-11 5.46861e-13 2.7499e-10 2.55268e-12 -6.71799e-12 7.72336e-09)
(5.12806e-11 1.45698e-12 2.72794e-10 2.18953e-12 -2.00278e-12 7.71243e-09)
(-1.01659e-09 1.49732e-09 4.28659e-10 -9.53383e-10 -9.33856e-11 -3.35741e-10)
(-1.82212e-10 6.11271e-10 3.57714e-10 -4.16757e-10 -5.29824e-10 -8.51914e-10)
(-4.74739e-11 4.50048e-10 7.51606e-10 -1.85001e-11 -9.33274e-11 -2.20858e-09)
(1.46811e-10 1.40572e-09 -1.11617e-10 4.17515e-11 -1.59709e-09 -2.67837e-09)
(1.32957e-11 9.31216e-10 -2.79185e-10 -4.83329e-10 4.95297e-10 -2.10887e-09)
(-4.34627e-10 6.48596e-10 1.12129e-09 -2.83921e-10 -4.26574e-10 -1.2728e-09)
(-1.86744e-10 1.48221e-09 -1.53162e-10 -9.07052e-10 -6.59258e-10 -8.30419e-10)
(-7.05035e-09 -2.03987e-09 2.7271e-09 5.39377e-09 2.03108e-09 -4.23778e-09)
(-2.48049e-10 -1.18671e-09 9.30759e-10 3.09111e-10 5.6179e-10 9.72232e-10)
(-6.58791e-10 -3.82554e-10 1.56184e-09 3.63512e-10 1.28629e-09 -4.94377e-11)
(8.65357e-11 -1.68591e-10 5.49023e-10 -4.44556e-10 -1.11586e-10 -1.31399e-09)
(-2.04401e-09 -1.22877e-09 -1.37651e-09 1.8942e-09 3.89767e-11 1.57979e-09)
(5.78832e-09 -3.80572e-09 -4.94394e-09 -7.29263e-10 -4.97976e-09 -3.38812e-09)
(-1.58694e-09 -1.04134e-09 2.23807e-09 9.46821e-10 2.31843e-09 3.58381e-10)
(1.04686e-09 1.62433e-10 -1.36367e-09 -1.26258e-11 -2.34095e-11 2.09556e-09)
(4.76146e-10 -5.49339e-11 -4.5849e-10 7.57768e-11 -3.6268e-10 7.46403e-09)
(1.18959e-10 4.55912e-11 -4.31507e-10 3.91557e-12 -5.38526e-11 1.55032e-09)
(3.82528e-10 2.89651e-11 -2.85526e-11 9.98053e-12 -2.57831e-11 6.48294e-09)
(-2.00628e-10 -4.38293e-12 8.26711e-11 7.91776e-13 -5.85748e-12 1.10753e-09)
(-1.94256e-10 4.30184e-12 6.81983e-11 2.17251e-12 -1.14796e-11 1.12482e-09)
(-2.37728e-10 3.88261e-12 1.37885e-10 3.89513e-14 -2.55892e-12 1.04476e-09)
(3.714e-10 -2.705e-11 5.55584e-11 2.5891e-12 -1.78973e-11 6.30983e-09)
(-2.56789e-10 -2.47701e-12 1.58923e-10 2.34303e-13 -1.86899e-12 1.02623e-09)
(3.70121e-10 2.75441e-11 8.11648e-11 -3.71607e-12 -3.12561e-12 6.29759e-09)
(-3.01446e-10 4.04503e-12 2.02558e-10 -2.35582e-12 -6.73632e-12 9.99183e-10)
(-2.31087e-11 1.73941e-09 2.32429e-09 -1.00661e-09 -2.40671e-10 -4.23206e-09)
(6.72482e-10 1.12165e-09 1.46176e-09 1.03983e-10 -4.22062e-10 -1.19027e-09)
(6.84918e-10 2.96788e-10 1.04176e-09 1.22737e-10 -3.71948e-11 -3.44596e-09)
(3.05344e-10 1.52959e-09 -4.78959e-11 2.84036e-10 -1.81897e-09 -3.19657e-09)
(8.50498e-10 7.95357e-10 -3.56174e-10 -4.07208e-10 4.45183e-10 -3.48847e-09)
(1.23015e-09 4.23582e-10 2.66184e-09 1.37208e-10 -9.25263e-11 -2.61435e-09)
(2.78609e-09 3.95406e-09 2.59741e-09 1.19281e-09 -1.89083e-10 -3.47336e-09)
(2.74359e-09 4.71453e-09 -6.61938e-10 -4.6156e-09 1.41309e-09 1.92314e-08)
(-7.41728e-11 4.24256e-10 6.73338e-10 -2.0891e-09 2.33183e-09 1.32123e-08)
(3.46315e-10 -2.80896e-10 6.04088e-10 -2.56654e-09 -5.33167e-10 1.51241e-08)
(4.10403e-10 9.17943e-10 1.74502e-09 -3.48912e-09 6.37709e-09 1.33317e-08)
(-4.92783e-10 -1.91749e-10 1.2212e-09 1.86034e-10 6.84975e-10 2.32888e-09)
(6.62766e-11 -6.40336e-10 2.4199e-09 2.31335e-10 1.43782e-09 5.64917e-09)
(-6.19032e-11 -2.47173e-11 1.64294e-09 4.13254e-10 1.46952e-09 2.82088e-10)
(-3.58298e-10 -1.26263e-10 1.30524e-09 -1.97961e-10 1.7826e-09 5.56413e-09)
(-1.23642e-09 -9.67748e-10 -9.01428e-10 1.24011e-09 1.02698e-09 -1.39125e-09)
(-1.71273e-10 -1.17728e-10 -2.85821e-10 2.53078e-10 1.81768e-09 6.39671e-09)
(-8.57758e-11 -1.47308e-10 1.74119e-09 2.82866e-10 1.60033e-09 2.3995e-09)
(1.50142e-09 2.11351e-10 -1.82533e-09 -2.19629e-11 -7.69741e-12 2.30776e-09)
(9.64719e-10 4.01946e-10 -2.43393e-09 -2.65898e-10 1.07868e-10 9.91802e-09)
(3.95561e-09 4.02776e-10 -4.05791e-09 -9.22727e-11 1.24124e-10 3.31932e-09)
(-1.09572e-08 -5.77138e-09 2.94759e-09 1.57191e-08 7.31936e-09 -5.1108e-09)
(-2.63056e-10 -8.65928e-10 1.73425e-09 1.46909e-09 -1.57193e-10 7.31399e-11)
(-5.17932e-10 8.36257e-10 2.75694e-09 3.97536e-09 1.20477e-09 -9.36419e-09)
(-9.67161e-10 -1.68869e-09 3.25195e-09 1.47475e-09 4.35984e-09 -1.05467e-09)
(4.05749e-09 9.63328e-10 2.06058e-09 -1.73332e-09 -4.85035e-09 -1.39623e-08)
(-2.052e-09 -2.33867e-09 9.17618e-10 3.33062e-09 2.8649e-09 -1.66772e-09)
(-2.54769e-09 -2.75555e-09 5.79157e-09 4.6215e-09 8.43518e-09 -7.79856e-09)
(5.96128e-10 1.16011e-10 -9.03594e-10 -2.87643e-10 7.26659e-11 1.22567e-08)
(1.37849e-09 2.58585e-10 -1.973e-09 -3.87741e-10 2.05786e-10 1.05052e-08)
(7.70204e-10 5.89996e-11 -9.6767e-10 -4.28363e-10 3.23559e-10 1.19958e-08)
(-3.83183e-10 -2.39851e-10 5.65094e-10 3.26055e-10 3.32142e-10 6.78598e-09)
(1.63022e-10 -5.36124e-10 2.5985e-09 8.92876e-10 -9.6182e-10 4.07465e-09)
(-7.02628e-10 -6.24966e-11 1.26298e-09 -8.77719e-11 1.01126e-09 7.27669e-09)
(-7.81932e-10 -6.95474e-10 2.63301e-09 8.60468e-10 1.86613e-09 3.74134e-09)
(-2.27808e-10 -3.97144e-12 -3.39721e-10 4.05613e-10 2.80749e-10 8.31745e-09)
(-9.19881e-10 -1.30205e-09 1.7036e-09 1.35502e-09 1.22744e-09 1.08635e-09)
(-7.63574e-10 -3.47358e-10 1.46517e-09 3.60277e-10 1.15736e-09 7.00907e-09)
(4.38126e-10 1.1597e-10 -7.62836e-10 -1.67119e-10 -1.65837e-10 1.19037e-08)
(7.77211e-10 3.42312e-11 -1.28777e-09 4.14326e-12 -1.90078e-10 8.93809e-09)
(3.3013e-10 7.9089e-11 -6.13098e-10 -1.30205e-11 -2.74249e-10 1.09196e-08)
(5.74692e-11 5.9522e-12 3.01188e-10 1.9158e-11 -2.29651e-11 8.12791e-09)
(5.96404e-11 3.18045e-12 2.94514e-10 3.86237e-11 -4.22142e-11 8.18114e-09)
(5.9189e-10 -8.99408e-12 -9.76669e-10 1.10831e-11 -8.4203e-12 7.86535e-09)
(1.52465e-10 -1.09281e-11 -4.79727e-10 5.81729e-12 -1.33531e-12 9.85428e-09)
(1.6683e-10 -1.31052e-11 -4.76302e-10 1.01181e-11 -6.5e-12 9.83177e-09)
(-2.38069e-10 -4.76707e-12 1.38103e-10 -4.63312e-14 -1.63317e-12 1.04469e-09)
(3.74282e-10 2.49233e-11 4.63519e-11 2.47084e-12 -4.41148e-13 6.3554e-09)
(-2.44608e-10 3.70507e-12 1.45459e-10 1.91284e-13 -3.17047e-12 1.03971e-09)
(-1.95766e-10 3.26156e-12 8.30901e-11 5.66404e-13 -6.01919e-12 1.10489e-09)
(3.80895e-10 -2.76595e-11 2.13484e-11 3.17929e-12 -2.63737e-11 6.42478e-09)
(-2.23517e-10 -2.23674e-12 1.16537e-10 4.0516e-13 -4.49086e-12 1.07288e-09)
(5.55747e-11 3.16679e-12 3.0352e-10 7.45465e-12 -2.17559e-11 8.09116e-09)
(5.43411e-11 2.3154e-12 2.99963e-10 2.79421e-12 -1.9905e-11 8.03977e-09)
(1.15419e-10 -1.90066e-12 -4.8577e-10 -4.92902e-13 -4.33691e-12 9.81773e-09)
(5.60012e-10 -5.14219e-12 -9.48722e-10 1.23706e-13 -2.67727e-12 7.8121e-09)
(1.16718e-10 -2.94893e-12 -4.86155e-10 -3.90543e-13 -7.15399e-12 9.8361e-09)
(1.42774e-10 -9.22254e-12 -4.82339e-10 1.99982e-12 -5.41087e-14 9.87558e-09)
(5.76238e-10 -5.6473e-12 -9.62404e-10 8.73492e-13 -5.28742e-12 7.86735e-09)
(1.35638e-10 -7.65521e-12 -4.83764e-10 -6.37231e-13 -5.17279e-13 9.88622e-09)
(1.14178e-10 -1.50052e-12 -4.845e-10 -2.85162e-13 -5.89524e-12 9.80118e-09)
(5.54617e-10 -5.82307e-13 -9.40994e-10 7.99641e-14 -4.51583e-12 7.76999e-09)
(1.12808e-10 -5.10569e-13 -4.82707e-10 3.4024e-13 -2.13862e-12 9.78921e-09)
(5.35355e-11 7.84766e-12 2.85803e-10 -1.5994e-11 -8.02995e-12 7.80952e-09)
(5.51796e-10 -4.90384e-12 -9.3573e-10 -1.76755e-11 -1.10741e-11 7.78955e-09)
(1.10456e-10 -1.82141e-12 -4.78061e-10 -2.25762e-11 -1.68427e-11 9.84957e-09)
(-5.57249e-09 -1.11935e-09 1.2601e-10 -3.95665e-09 -3.8678e-10 2.79984e-09)
(-6.34811e-09 -2.70374e-09 1.62342e-09 -1.25775e-09 1.69125e-09 1.08434e-09)
(-1.71745e-09 2.99805e-10 3.03601e-09 -1.11828e-09 -8.89373e-10 -3.75964e-10)
(-2.52919e-09 2.27149e-09 8.37848e-10 -1.04449e-09 -3.38945e-10 -3.0208e-11)
(-3.30002e-09 1.22016e-09 8.05844e-10 -2.71372e-09 -9.23713e-11 1.21364e-09)
(-3.14105e-09 -1.10405e-09 3.30494e-09 -2.43388e-09 -2.99178e-11 2.08454e-09)
(-6.54787e-09 -3.92618e-10 -8.1067e-10 -3.46747e-09 7.4234e-10 1.71265e-09)
(-5.89259e-09 -9.17982e-10 1.36649e-10 -6.4308e-09 -5.79474e-10 5.76382e-09)
(-1.18434e-08 1.24549e-12 1.41176e-10 -7.66218e-09 -3.0081e-10 3.00628e-09)
(-3.41467e-09 2.6075e-10 7.79058e-09 -5.4434e-09 -4.00573e-09 5.05046e-09)
(-4.48205e-09 8.71851e-10 1.51296e-09 -1.19932e-08 -9.84736e-10 6.07983e-09)
(-3.28987e-09 -1.59333e-09 6.64583e-09 -2.78521e-09 -5.93042e-10 4.14529e-09)
(-5.11787e-09 -5.1334e-10 4.81316e-10 -6.4045e-09 -5.27386e-10 4.65162e-09)
(-3.04063e-09 4.88875e-09 2.67998e-09 -8.08221e-09 -2.69539e-09 3.00235e-09)
(-1.36174e-09 6.42898e-10 4.24511e-09 -2.18972e-09 -2.39136e-09 -2.89417e-10)
(-1.63745e-09 1.75656e-09 6.93107e-09 -4.79449e-09 -4.81915e-09 2.03597e-09)
(-3.18375e-09 1.56152e-09 8.91871e-10 -3.73816e-09 -3.67537e-10 2.05148e-09)
(-2.99185e-09 2.34811e-09 1.73958e-09 -1.30596e-08 -7.48202e-10 6.225e-09)
(-2.1002e-09 -1.86463e-10 4.90794e-09 -3.23545e-09 -2.04166e-09 1.77185e-09)
(-3.71911e-09 2.01903e-09 5.22986e-09 1.36073e-08 8.26988e-09 1.25987e-09)
(3.00919e-10 -9.1919e-10 4.39056e-09 2.04898e-08 4.96632e-09 -9.49207e-10)
(2.18747e-10 1.89982e-10 1.42494e-09 6.43241e-09 6.08263e-09 8.28034e-10)
(-5.52854e-09 6.61657e-09 3.49496e-09 1.10624e-08 4.95412e-09 2.72819e-10)
(-1.99242e-09 3.2378e-09 6.64332e-09 9.51733e-09 5.36471e-09 2.20714e-09)
(-4.24206e-10 -3.34116e-10 3.92845e-09 1.20499e-08 1.09262e-08 -7.14005e-10)
(-5.65035e-09 3.33806e-09 4.24178e-09 1.75872e-08 6.47177e-09 -8.77354e-10)
(-1.82138e-09 1.10063e-09 4.49481e-09 6.9189e-09 6.77287e-09 4.0808e-09)
(4.98084e-10 9.19221e-10 3.11926e-10 2.15414e-09 5.9727e-09 1.23628e-09)
(2.54889e-10 8.25337e-10 4.8996e-09 1.15924e-09 3.91247e-09 4.0445e-09)
(-1.1305e-10 1.43838e-10 3.94111e-09 8.42749e-10 6.10713e-09 6.04001e-09)
(1.00076e-09 1.38322e-09 5.84195e-09 4.73007e-09 4.35479e-09 2.7333e-09)
(-1.1743e-10 -1.60192e-10 3.11185e-09 3.01974e-09 9.68929e-09 5.03202e-09)
(-5.85243e-10 5.536e-10 4.60731e-09 1.59809e-09 5.52242e-09 6.35083e-09)
(2.49998e-10 -2.03119e-10 5.42985e-10 -6.5985e-10 1.07907e-09 1.02685e-08)
(2.05748e-10 -9.7444e-11 5.21287e-10 -2.43468e-10 3.59621e-10 1.00645e-08)
(2.64762e-10 -7.02042e-12 3.91199e-10 -1.74192e-10 3.53522e-11 1.10478e-08)
(3.73444e-10 -5.35797e-11 1.03588e-10 -2.8477e-10 2.26833e-10 1.17445e-08)
(2.64792e-10 -5.15094e-11 4.00043e-10 -2.38911e-10 2.19358e-10 1.10705e-08)
(1.84069e-10 -1.23451e-10 4.61621e-10 -5.80042e-10 9.3541e-10 1.07875e-08)
(3.36639e-10 -1.24568e-10 1.4509e-10 -3.10661e-10 4.38673e-10 1.14764e-08)
(2.47024e-10 -9.85045e-11 4.33823e-10 -2.73667e-10 3.94779e-10 1.08992e-08)
(5.23372e-11 2.74145e-09 3.19092e-10 2.29146e-08 1.1894e-10 -5.31522e-10)
(-6.45134e-09 9.33592e-09 7.06967e-10 1.47985e-08 -2.80583e-11 -4.26106e-10)
(-8.03144e-09 7.95683e-09 7.83889e-10 2.45571e-08 2.85841e-10 -4.22617e-10)
(2.65568e-10 2.63629e-11 3.70694e-10 -6.95631e-11 -1.20914e-10 1.05816e-08)
(3.37796e-10 9.1739e-11 1.30003e-10 -1.26298e-11 -1.06332e-10 1.06776e-08)
(2.51084e-10 6.97348e-11 3.92983e-10 1.38283e-12 -1.57137e-11 1.01901e-08)
(7.22796e-11 -3.83433e-11 4.48451e-10 -6.18795e-11 -1.74772e-10 9.63119e-09)
(1.09794e-10 1.04072e-11 5.14229e-10 -6.87204e-11 2.39056e-11 9.8472e-09)
(3.14457e-10 7.65178e-11 2.37466e-10 2.52216e-12 -8.44109e-11 1.03662e-08)
(1.75205e-10 -2.46471e-11 4.78643e-10 -4.55278e-11 -1.24972e-10 1.01765e-08)
(2.16416e-10 4.92585e-11 4.79351e-10 -4.0971e-11 6.01663e-13 1.02926e-08)
(5.26426e-11 4.56241e-13 2.86749e-10 2.03442e-12 -1.61777e-11 7.86301e-09)
(5.24068e-11 1.15418e-12 2.81322e-10 1.98319e-12 -1.26896e-11 7.81748e-09)
(1.72803e-10 6.12191e-13 2.71836e-10 4.35056e-12 -9.36904e-12 8.45311e-09)
(2.54826e-10 -1.35804e-12 5.46556e-11 3.08197e-12 -1.19082e-11 8.99962e-09)
(1.72625e-10 -2.40326e-15 2.7355e-10 3.2238e-12 -1.3016e-11 8.49063e-09)
(1.73488e-10 -9.21902e-13 2.81943e-10 3.04471e-12 -1.4908e-11 8.57011e-09)
(2.5562e-10 -1.43289e-12 5.78123e-11 2.00855e-12 -1.07406e-11 9.03505e-09)
(1.7297e-10 -2.23035e-13 2.77044e-10 2.24284e-12 -1.24486e-11 8.52985e-09)
(1.72523e-10 6.82801e-13 2.70209e-10 3.65977e-12 -4.94472e-12 8.43237e-09)
(2.52971e-10 1.13045e-12 5.06273e-11 2.86542e-12 -1.7552e-12 8.93975e-09)
(1.71731e-10 1.11739e-12 2.6868e-10 2.66455e-12 -2.01865e-12 8.42588e-09)
(5.11683e-11 2.4663e-12 2.74554e-10 1.41337e-12 2.43587e-12 7.71207e-09)
(5.11545e-11 9.77172e-13 2.72437e-10 2.32509e-12 -2.66056e-12 7.70829e-09)
(2.52626e-10 6.74674e-13 5.06583e-11 2.67278e-12 -1.7106e-12 8.93731e-09)
(1.72084e-10 1.93082e-12 2.69981e-10 2.12071e-12 5.26959e-13 8.42392e-09)
(1.71496e-10 1.07424e-12 2.6851e-10 2.62129e-12 -2.0419e-12 8.42267e-09)
(-1.37566e-09 1.66745e-09 5.13415e-10 -1.26213e-09 -1.98414e-10 -7.12603e-11)
(-3.08489e-10 7.81325e-10 6.38743e-10 -6.78657e-10 -5.40933e-10 -5.60272e-10)
(-9.1592e-10 7.39731e-10 2.21279e-09 -9.04437e-10 -1.04137e-09 -8.06366e-10)
(-1.25518e-09 1.78735e-09 6.83347e-10 -1.5309e-09 -4.46694e-10 -3.34119e-10)
(-2.67008e-09 1.71086e-09 8.27756e-10 -2.38907e-09 -1.7744e-10 8.85206e-10)
(-6.14888e-10 7.51121e-10 1.61407e-09 -6.09628e-10 -8.0588e-10 -9.60961e-10)
(-2.95917e-10 1.61081e-09 6.63702e-11 -1.22311e-09 -5.35473e-10 -3.20733e-10)
(-1.40533e-09 1.67509e-09 6.44457e-10 -8.76043e-10 -2.34772e-10 -2.35259e-10)
(-3.93849e-10 5.4396e-10 1.31709e-09 -7.90285e-11 -7.13805e-11 -1.43119e-09)
(-1.36988e-09 6.79357e-10 3.82622e-10 5.20632e-10 -6.90883e-11 6.04334e-12)
(-1.11842e-09 1.02422e-09 2.93079e-09 -1.22815e-10 -1.04733e-09 -1.22464e-09)
(-3.55615e-09 2.64146e-09 1.33248e-09 -2.92977e-11 -5.18899e-10 -3.34367e-10)
(-2.238e-10 8.34108e-10 -1.52529e-10 -3.06108e-10 4.17847e-10 -1.26421e-09)
(-7.13898e-10 8.37591e-10 1.99584e-09 -3.32284e-10 -7.1253e-10 -1.04816e-09)
(-1.75761e-09 1.94895e-09 5.66618e-10 -1.29286e-09 -3.17425e-10 1.83639e-11)
(-4.05852e-09 6.67569e-09 1.66326e-09 -6.77909e-09 -1.55852e-09 2.3786e-09)
(-1.17433e-09 1.14143e-09 3.45717e-09 -1.3899e-09 -2.15912e-09 -8.57735e-10)
(-1.41617e-09 1.50055e-09 3.7987e-09 -6.09168e-10 -2.11917e-09 -1.52386e-09)
(-2.69905e-09 2.10375e-09 8.72839e-10 -3.06839e-09 -3.44654e-10 1.50485e-09)
(-4.26336e-09 3.74461e-09 1.02035e-09 -7.72744e-10 -6.92615e-10 -7.94189e-11)
(-9.05587e-10 1.02945e-09 2.60632e-09 -7.4092e-10 -1.43948e-09 -1.06029e-09)
(-1.43338e-08 6.06276e-10 1.90192e-09 -7.29962e-09 3.24213e-10 4.25387e-10)
(-1.08452e-09 2.65917e-09 1.50766e-08 -5.80296e-09 -1.00816e-08 4.80167e-09)
(-4.67529e-09 2.10765e-09 1.63537e-09 -1.4329e-08 -5.30229e-10 5.75239e-09)
(-1.83355e-08 1.29682e-08 2.77955e-08 -1.1537e-08 -2.51105e-08 4.03567e-08)
(-4.09843e-08 3.85473e-08 -3.42674e-09 3.42248e-09 8.73466e-09 5.19243e-08)
(-4.66142e-09 1.16132e-08 2.52211e-09 -1.07769e-08 9.82395e-10 6.19168e-09)
(-2.26182e-09 6.65875e-09 1.40043e-08 -9.42069e-09 -7.42453e-09 9.00741e-09)
(-1.73226e-08 1.42933e-08 1.28254e-08 -1.03468e-08 -2.74182e-09 3.14638e-08)
(-2.84096e-09 9.16892e-09 5.23507e-09 -1.79625e-08 -4.74978e-10 8.37366e-09)
(-2.15503e-08 2.97925e-08 -2.94944e-09 -8.72149e-09 3.82567e-09 3.30882e-08)
(-7.57346e-09 4.3066e-10 2.76916e-09 4.0375e-09 9.34799e-10 -2.62646e-09)
(-1.33747e-09 -9.73048e-11 2.26571e-09 8.87865e-10 9.03565e-10 -6.89552e-10)
(-1.79073e-09 5.3212e-10 4.26831e-10 9.52093e-10 -1.42779e-10 -1.58572e-11)
(-1.71996e-09 1.0795e-09 3.92788e-09 6.10084e-10 -1.05546e-09 -2.19354e-09)
(-4.7436e-09 2.75383e-09 1.66214e-09 9.01833e-10 -6.70088e-10 -4.7042e-10)
(-2.24961e-09 -7.10879e-10 -1.25211e-09 1.59258e-09 1.26725e-09 4.87418e-10)
(-2.11779e-09 2.91673e-10 4.25673e-09 1.50274e-09 5.71687e-10 -2.18076e-09)
(-1.14941e-08 -2.3664e-09 -1.03902e-09 7.95803e-09 4.1089e-09 -2.59683e-09)
(-3.46688e-09 2.52587e-10 2.33874e-09 2.09361e-10 -3.77445e-09 -7.60182e-10)
(6.62904e-08 -7.91612e-08 3.23714e-08 1.68893e-08 -4.48888e-08 -1.0697e-07)
(-1.31858e-08 6.60618e-09 1.99643e-09 -2.76512e-09 -6.18353e-09 1.92053e-08)
(-3.74409e-08 1.71529e-08 -1.23552e-08 1.69169e-08 3.36751e-09 1.25039e-08)
(1.42287e-08 -9.62513e-09 -1.24852e-08 -4.03821e-10 -2.45727e-09 2.50417e-09)
(-5.01461e-09 6.27806e-10 3.41178e-09 1.54437e-09 2.41054e-09 3.90817e-09)
(-1.13166e-08 4.38043e-09 2.0055e-09 3.4895e-09 -2.20751e-10 5.67749e-10)
(-5.58783e-09 1.01995e-08 1.3164e-09 -7.45253e-09 1.56604e-10 3.60238e-09)
(-2.2914e-09 1.95716e-09 4.86704e-09 3.46717e-11 -2.38096e-09 -2.28162e-09)
(-8.94275e-09 6.62892e-09 6.91048e-09 -2.13966e-09 -3.47777e-09 1.09207e-08)
(-5.90407e-09 4.29474e-09 1.11421e-09 3.54127e-10 -9.36203e-10 -2.90017e-10)
(-2.46472e-08 2.08826e-08 -6.17896e-09 7.33463e-10 4.95051e-10 1.64728e-08)
(-3.81746e-09 2.11957e-09 5.48587e-09 1.23792e-09 -9.14852e-10 -1.67629e-09)
(4.04914e-10 -1.02614e-11 -3.6155e-10 5.867e-11 -2.79963e-10 7.13204e-09)
(-1.25833e-10 3.48061e-12 -7.97974e-11 9.04743e-12 -3.19366e-11 1.27241e-09)
(6.20531e-11 2.71263e-11 -3.13989e-10 7.927e-12 -5.05498e-11 1.46161e-09)
(3.83709e-10 -2.30684e-11 -4.50706e-11 1.32319e-11 -5.49524e-11 6.49913e-09)
(-1.35275e-10 7.97462e-12 -4.28451e-11 6.5103e-12 -2.67903e-11 1.23579e-09)
(-1.91841e-10 -6.33709e-15 5.39959e-11 3.02273e-12 -1.38411e-11 1.14221e-09)
(3.70868e-10 2.71824e-11 5.79478e-11 2.29791e-12 4.86865e-12 6.30559e-09)
(-2.59577e-10 -2.84158e-12 1.61259e-10 -4.29544e-13 -1.11219e-12 1.02794e-09)
(-2.61331e-10 4.56014e-12 1.63251e-10 1.27543e-13 -1.47811e-12 1.023e-09)
(3.6976e-10 -2.57931e-11 7.82067e-11 -2.54493e-12 -2.17127e-11 6.29732e-09)
(-2.64745e-10 5.64068e-12 1.66323e-10 -6.99329e-13 -2.553e-12 1.02497e-09)
(-2.94265e-10 -2.00689e-12 1.96007e-10 -1.53703e-12 -4.89633e-12 1.00374e-09)
(-6.18667e-09 6.33451e-09 9.80886e-10 6.84378e-09 3.5329e-09 -4.62623e-10)
(4.31825e-10 4.45901e-09 7.93048e-09 1.1332e-09 3.54452e-09 4.37282e-09)
(1.09744e-08 2.06553e-09 1.59404e-08 -3.10537e-09 -8.02423e-10 3.90524e-09)
(1.51796e-10 1.41542e-09 1.54028e-09 5.81224e-10 2.27568e-10 4.28769e-10)
(2.51324e-10 1.37587e-09 3.14708e-09 5.92588e-10 1.65561e-09 1.35699e-09)
(1.2462e-09 2.69435e-09 2.2577e-09 3.01798e-09 1.12456e-09 9.95875e-10)
(-9.32902e-09 5.36056e-09 2.93437e-09 1.46703e-09 3.70822e-09 4.45994e-09)
(3.53434e-10 1.02149e-09 3.45384e-09 3.18781e-10 4.20153e-10 9.42607e-10)
(1.83647e-09 6.32039e-09 5.16853e-09 2.47689e-09 2.58346e-09 9.65051e-10)
(1.42667e-09 4.32312e-10 1.54347e-09 -9.26401e-10 -8.04363e-10 -5.24633e-09)
(4.19595e-10 1.95917e-10 1.14527e-09 1.12632e-10 2.57085e-10 -2.88934e-09)
(-8.02519e-10 3.22905e-10 6.01092e-13 4.87342e-10 1.45444e-10 -5.109e-10)
(6.90432e-10 3.31493e-12 1.75986e-09 3.2184e-10 8.23248e-10 -2.56026e-09)
(5.74565e-10 6.28107e-10 -4.51582e-10 -2.59238e-10 4.691e-10 -2.642e-09)
(4.87047e-10 -4.33235e-10 7.75077e-11 3.53091e-10 9.10523e-10 -2.79259e-09)
(1.21746e-09 2.55129e-11 2.33114e-09 1.91373e-10 2.2176e-10 -3.43061e-09)
(8.41848e-09 -3.00458e-09 1.22657e-08 -4.70693e-10 -4.09393e-09 3.43308e-10)
(2.42187e-09 3.00988e-10 2.31875e-09 -1.62615e-09 2.99572e-09 2.6403e-09)
(3.84094e-10 9.22095e-10 4.63482e-09 1.57485e-10 2.08465e-09 2.74417e-09)
(1.03888e-09 -1.13847e-10 3.38396e-09 3.51466e-10 1.19324e-09 -8.27416e-10)
(3.57795e-09 2.90891e-09 7.10353e-09 1.35353e-09 3.87564e-09 2.4358e-09)
(6.64566e-10 -6.90238e-10 7.18471e-10 2.80833e-10 8.81953e-10 -3.12475e-09)
(1.16194e-09 4.8156e-10 4.24706e-09 9.76228e-11 6.64018e-10 -1.46243e-10)
(2.93137e-09 3.16133e-09 5.53177e-09 4.21171e-09 2.08081e-09 7.80674e-10)
(-1.46141e-09 6.58098e-09 2.85402e-09 4.23903e-09 1.96432e-09 1.50386e-09)
(-1.84036e-08 8.37757e-09 2.55489e-09 3.12643e-09 3.01077e-09 2.60749e-09)
(1.12439e-08 -3.62803e-09 2.66059e-09 1.90614e-08 1.03696e-09 9.69239e-10)
(5.72637e-09 -3.7037e-09 -7.07057e-11 1.67115e-08 1.10268e-08 -8.20203e-10)