/*--------------------------------*- C++ -*----------------------------------*\
| =========                 |                                                 |
| \\      /  F ield         | OpenFOAM: The Open Source CFD Toolbox           |
|  \\    /   O peration     | Version:  2012                                  |
|   \\  /    A nd           | Website:  www.openfoam.com                      |
|    \\/     M anipulation  |                                                 |
\*---------------------------------------------------------------------------*/
FoamFile
{
    version     2.0;
    format      ascii;
    class       pointVectorField;
    location    "0.104/solid";
    object      pointD;
}
// * * * * * * * * * * * * * * * * * * * * * * * * * * * * * * * * * * * * * //

dimensions      [0 1 0 0 0 0 0];


internalField   nonuniform List<vector> 
5349
(
(-3.07818e-11 -3.71917e-11 -1.61246e-11)
(-4.6246e-12 -7.38609e-13 6.36278e-12)
(8.51547e-13 1.61399e-12 -2.92312e-12)
(2.79843e-11 8.76668e-12 1.35798e-11)
(8.86126e-12 -2.5774e-12 5.09153e-13)
(1.05296e-11 -6.07999e-14 -8.84199e-13)
(1.50883e-11 -1.32788e-12 2.70819e-12)
(1.04176e-11 -7.21705e-14 -8.03858e-13)
(-9.16502e-12 5.58505e-13 -1.38377e-12)
(5.73991e-11 5.42206e-12 3.10202e-11)
(-5.56132e-12 -1.58807e-11 -1.78287e-12)
(2.45181e-11 2.78006e-11 6.12729e-11)
(-4.6343e-12 -2.19826e-12 1.96872e-12)
(-4.12324e-12 -1.5357e-13 1.11019e-12)
(2.48836e-11 1.06046e-11 1.61119e-12)
(2.10295e-12 9.82424e-13 1.19408e-12)
(-1.57305e-11 -8.16621e-11 -5.63589e-12)
(4.99363e-12 8.45918e-13 -9.28505e-13)
(2.38285e-10 1.07629e-09 2.71366e-11)
(4.21835e-11 -3.52125e-11 1.04701e-11)
(-2.86499e-12 1.6868e-12 -6.05705e-12)
(9.78632e-12 -5.60334e-13 -5.97944e-13)
(-3.42076e-12 -5.06969e-13 1.19224e-12)
(1.05525e-11 -7.0816e-14 -8.65735e-13)
(1.05735e-11 -7.09159e-15 -9.07565e-13)
(1.69649e-10 8.40907e-10 1.12603e-10)
(2.55955e-10 1.15014e-09 1.4888e-11)
(-9.9001e-13 4.8604e-12 -1.45929e-11)
(2.62111e-12 4.65229e-12 -3.08227e-12)
(4.69882e-12 -1.766e-12 5.10491e-13)
(-3.94094e-12 -3.07743e-13 1.14804e-12)
(-9.83545e-13 -1.74801e-12 1.23973e-12)
(-4.12335e-12 1.10638e-13 1.08818e-12)
(4.44122e-11 -2.02282e-11 2.04939e-12)
(4.19795e-11 -3.5675e-11 -1.31398e-12)
(1.60688e-10 -8.59227e-13 5.44355e-11)
(1.50184e-10 1.5764e-10 9.86195e-11)
(4.67964e-11 -2.09758e-11 -1.21306e-11)
(1.26621e-10 4.50575e-12 -7.19341e-11)
(7.57781e-11 1.01083e-11 -4.64017e-11)
(4.68505e-12 1.27434e-10 2.9178e-10)
(3.47053e-10 4.53277e-10 6.89856e-11)
(1.34502e-11 1.36017e-11 4.46255e-11)
(1.17065e-10 2.69903e-10 -4.94029e-11)
(8.20937e-12 3.28711e-11 1.732e-10)
(1.66668e-11 2.00469e-11 1.2025e-10)
(3.65197e-10 4.84237e-10 2.14172e-11)
(-1.74884e-11 -3.01531e-11 -9.43608e-12)
(1.95908e-12 -9.25957e-13 1.25579e-11)
(8.5792e-12 2.08468e-11 5.62638e-11)
(-6.78612e-12 -1.40308e-12 1.70795e-12)
(-5.91343e-12 -1.40748e-13 1.13317e-12)
(-5.25111e-12 1.00975e-12 2.60699e-12)
(-4.8054e-12 -1.39092e-12 3.45517e-12)
(-3.66854e-13 9.51022e-13 -9.69608e-14)
(1.57236e-12 5.75515e-12 -1.58168e-11)
(-5.63023e-12 6.358e-12 -1.22486e-11)
(1.15775e-11 1.21674e-12 2.24771e-10)
(6.6392e-13 -2.60556e-12 -1.97944e-12)
(3.1846e-11 1.16451e-11 3.36532e-11)
(2.44529e-11 8.77479e-12 6.52396e-12)
(2.08078e-10 5.27074e-10 4.02189e-11)
(9.13714e-11 7.03708e-12 1.43006e-11)
(-1.73939e-12 1.31965e-13 -4.12547e-12)
(1.79629e-12 -2.38033e-12 4.23806e-12)
(3.62776e-12 1.48003e-12 1.53849e-12)
(9.87391e-12 -2.58676e-12 -5.69644e-13)
(-5.87029e-12 -4.78399e-13 1.22532e-12)
(3.34315e-12 9.79952e-16 -1.53026e-12)
(2.22023e-12 -1.3089e-13 3.24887e-12)
(1.0551e-11 -7.63091e-14 -8.71044e-13)
(1.05279e-11 -3.50313e-14 -8.82014e-13)
(7.3637e-13 3.19111e-11 2.18448e-11)
(4.1623e-12 3.22074e-12 -8.19286e-13)
(-3.18709e-12 -3.03505e-11 9.77019e-12)
(6.06853e-12 4.30119e-12 1.75524e-12)
(1.46715e-11 1.26533e-11 -5.62389e-12)
(1.02432e-11 -1.36598e-13 -7.08442e-13)
(3.23775e-12 8.1464e-15 -1.65578e-12)
(2.63265e-12 -9.65647e-14 3.20168e-12)
(1.05181e-11 -6.21896e-14 -8.36299e-13)
(1.06589e-11 -9.49643e-15 -9.29952e-13)
(1.84718e-10 -1.56837e-10 1.04843e-12)
(8.73816e-11 8.44891e-10 8.78761e-11)
(4.413e-11 9.71635e-11 4.63185e-11)
(4.17627e-10 1.30636e-10 7.09397e-11)
(2.35551e-10 1.02803e-09 1.27193e-11)
(5.60165e-10 1.85468e-10 4.42026e-12)
(2.42328e-12 -2.52876e-12 -4.08352e-12)
(1.55261e-11 -5.74355e-12 -7.52161e-12)
(3.70345e-10 -3.98363e-11 1.4522e-10)
(-6.08329e-13 -4.92198e-12 -1.94325e-11)
(1.02483e-11 3.04046e-12 -1.18174e-13)
(3.36349e-11 -1.8074e-11 7.30473e-12)
(7.83101e-11 2.43718e-10 2.34865e-10)
(8.34376e-12 -6.1464e-12 7.43577e-12)
(1.62207e-10 3.92511e-10 1.08464e-10)
(7.55453e-11 2.72279e-11 4.24487e-11)
(7.97873e-13 -2.51919e-12 -6.76112e-12)
(-3.48568e-12 3.32838e-12 1.60455e-12)
(-2.33874e-12 -3.41068e-12 1.09559e-12)
(-5.02216e-12 -2.82678e-12 1.7051e-12)
(-5.88026e-12 -3.36104e-13 1.16758e-12)
(-4.04184e-12 -2.57711e-13 1.14326e-12)
(-4.1026e-12 -3.37702e-14 1.11752e-12)
(-5.92416e-12 1.00283e-13 1.11522e-12)
(2.08716e-10 5.506e-10 7.1611e-12)
(9.39557e-11 4.14641e-12 1.0846e-13)
(4.51589e-11 -2.55073e-12 -6.70377e-12)
(4.05514e-12 -2.46335e-12 -3.32261e-12)
(5.447e-12 3.19893e-12 -2.79362e-12)
(3.15939e-11 -3.26029e-11 -2.39247e-11)
(1.13692e-10 7.65643e-11 4.44275e-11)
(6.30059e-12 2.43912e-11 1.41961e-10)
(5.97871e-12 6.3875e-12 -2.09116e-12)
(7.33213e-12 4.81376e-12 3.12809e-12)
(2.17804e-10 1.03754e-09 5.68848e-11)
(1.92457e-10 1.02435e-09 3.49887e-11)
(2.49817e-10 1.09854e-09 2.58451e-11)
(5.62748e-10 1.8877e-10 6.05676e-11)
(4.30448e-11 -3.33446e-11 2.09179e-12)
(4.17461e-11 -3.39938e-11 1.84127e-12)
(-2.93275e-11 6.77115e-12 -1.33403e-11)
(1.25995e-12 1.15373e-11 -2.82281e-12)
(3.08616e-12 4.48905e-14 -1.97393e-12)
(3.55442e-12 -9.37787e-13 2.65952e-12)
(-3.70721e-12 -3.68801e-13 1.19382e-12)
(-2.83461e-12 -1.1458e-12 1.21755e-12)
(3.30638e-12 2.87009e-15 -1.57723e-12)
(2.31409e-12 -1.42171e-13 3.28175e-12)
(3.43241e-12 3.95345e-15 -1.49694e-12)
(2.27839e-12 6.74103e-14 3.22526e-12)
(-4.04973e-12 1.90265e-13 1.08242e-12)
(8.42205e-11 -4.14332e-11 -3.71928e-13)
(2.36438e-10 -2.06011e-10 6.36226e-11)
(8.55747e-11 1.54225e-10 1.29049e-10)
(1.54495e-10 6.87592e-11 2.1795e-11)
(4.96428e-11 2.95066e-10 1.63207e-10)
(2.65774e-10 3.71976e-10 9.66557e-11)
(3.81231e-10 4.83416e-10 6.06812e-12)
(9.54291e-11 -3.43496e-11 -2.51313e-11)
(3.66268e-11 -4.14682e-12 -3.91783e-11)
(5.72046e-10 -3.10661e-10 4.294e-10)
(3.2446e-11 1.80858e-11 -7.36032e-12)
(-8.17888e-11 1.05622e-10 -1.29037e-10)
(1.99561e-10 4.96974e-10 7.62706e-11)
(3.26601e-11 2.3264e-12 -2.77437e-11)
(1.58038e-12 3.68835e-11 1.55413e-10)
(-5.22198e-13 4.6445e-11 1.79227e-10)
(1.67048e-10 9.92151e-10 5.27467e-11)
(5.62627e-10 1.50769e-10 5.04297e-11)
(3.65852e-10 4.80415e-10 4.76477e-11)
(1.0552e-11 1.69637e-11 1.2314e-10)
(1.80252e-11 5.22671e-11 2.79131e-11)
(9.23181e-12 2.45822e-11 1.61973e-10)
(1.58658e-11 4.13151e-11 1.75335e-10)
(2.12997e-10 1.01569e-09 2.3211e-11)
(5.33424e-10 2.08377e-10 2.16342e-11)
(2.07909e-10 5.37494e-10 2.0374e-11)
(1.11608e-11 7.37418e-12 -7.22811e-12)
(-6.6433e-12 8.59479e-13 7.1204e-13)
(1.71496e-11 3.38972e-12 8.27948e-12)
(-5.91482e-12 -2.55017e-13 1.16166e-12)
(-4.67387e-12 -3.74458e-13 1.23714e-12)
(-5.92665e-12 -3.2417e-14 1.14198e-12)
(8.57522e-12 4.56951e-12 -1.12785e-11)
(1.59881e-12 -1.49368e-12 -1.4131e-12)
(3.26577e-12 2.04949e-14 -1.74674e-12)
(2.54899e-12 4.66788e-14 -2.59491e-12)
(3.59596e-12 8.597e-15 -1.48035e-12)
(3.43587e-12 2.40126e-15 -1.51528e-12)
(-1.522e-11 2.70918e-13 -6.61908e-12)
(-2.78954e-13 8.69651e-12 1.89391e-11)
(2.26023e-12 7.60421e-12 -5.03001e-12)
(5.98735e-12 5.49589e-12 -2.59038e-12)
(8.93909e-13 5.44183e-12 3.16366e-12)
(8.72499e-12 -1.5574e-12 -1.48307e-12)
(1.01111e-11 6.00022e-12 -8.49179e-13)
(-1.56692e-11 -5.05572e-13 1.51811e-11)
(3.39153e-12 2.62279e-15 -1.54778e-12)
(3.33996e-12 6.06707e-15 -1.60739e-12)
(-5.85351e-12 -4.11469e-13 1.21183e-12)
(2.44423e-12 -1.23819e-13 3.25948e-12)
(2.24019e-12 -1.76768e-13 3.2637e-12)
(3.52356e-12 -5.26322e-12 2.75081e-12)
(3.03666e-12 -1.67328e-13 3.1236e-12)
(-6.05896e-12 -1.48097e-12 1.07299e-12)
(2.21695e-12 -4.31577e-14 3.23766e-12)
(2.3591e-12 1.12469e-13 3.21038e-12)
(-5.9326e-12 1.94789e-13 1.11792e-12)
(4.32244e-11 1.94999e-11 3.93446e-11)
(1.30476e-12 1.58353e-12 -2.62763e-12)
(9.13122e-11 1.16791e-11 2.27352e-11)
(1.76069e-11 1.19424e-11 -2.6885e-12)
(8.83008e-11 5.6053e-12 4.82452e-12)
(7.39121e-12 1.85677e-12 7.89785e-11)
(7.74376e-12 -5.858e-13 7.47545e-11)
(3.40454e-12 -2.25124e-13 6.10198e-11)
(3.35063e-12 -1.26633e-13 6.07129e-11)
(1.19235e-11 -4.63507e-12 -1.51563e-11)
(2.53342e-11 2.47472e-11 -1.9717e-12)
(-2.58864e-11 -1.2743e-12 3.64686e-11)
(-1.22068e-11 -1.87403e-13 2.49635e-11)
(-1.09727e-11 -5.30448e-14 2.36738e-11)
(-1.04062e-11 -2.27784e-13 2.32661e-11)
(2.471e-11 -1.34047e-12 -2.65652e-11)
(1.8739e-11 1.04089e-10 1.08995e-10)
(2.61042e-11 2.7919e-11 2.29319e-11)
(-4.90518e-11 -2.6195e-13 5.05747e-11)
(5.88499e-11 5.84356e-11 -5.65367e-11)
(-2.54015e-11 1.5248e-12 1.09007e-10)
(3.30802e-11 2.13748e-11 5.0115e-11)
(-1.6929e-11 -4.93217e-12 9.97705e-11)
(4.15293e-12 -9.00743e-13 6.38565e-11)
(-1.06624e-11 -5.58445e-13 8.56548e-11)
(-1.10709e-11 -4.49528e-14 2.37882e-11)
(-1.18203e-11 -1.27932e-13 2.45537e-11)
(3.97187e-12 -5.7636e-13 6.35999e-11)
(-1.0549e-11 -2.05293e-13 8.55544e-11)
(-1.06427e-11 -3.69156e-13 8.59867e-11)
(-1.04871e-11 -1.62551e-13 8.52615e-11)
(3.67564e-12 -2.40437e-13 6.158e-11)
(-1.03695e-11 -5.11729e-13 8.56834e-11)
(6.50849e-11 -6.01013e-12 -8.46704e-12)
(1.82229e-10 -2.51232e-11 5.56309e-11)
(9.64202e-11 -6.10451e-11 -1.0219e-11)
(2.24829e-10 3.6355e-10 9.48667e-11)
(7.69818e-11 7.76245e-11 4.64611e-11)
(1.0341e-11 7.984e-12 7.62128e-11)
(4.15475e-12 2.2544e-12 1.09147e-10)
(6.28077e-12 1.05842e-11 1.02997e-10)
(4.55886e-10 5.78265e-10 4.79412e-12)
(3.66123e-12 -2.10306e-12 9.99712e-11)
(8.0299e-12 -1.81205e-12 8.02287e-11)
(6.23456e-12 -2.03845e-12 9.86198e-11)
(3.54311e-12 -3.55124e-13 6.17227e-11)
(2.13471e-12 -3.32144e-13 8.28988e-11)
(2.26661e-12 -4.43299e-13 8.36961e-11)
(2.08409e-12 -1.67917e-13 8.25877e-11)
(3.3325e-12 -1.65242e-14 6.05788e-11)
(2.08383e-12 -7.3002e-14 8.24752e-11)
(2.42462e-11 -1.16301e-11 -9.58718e-12)
(3.49033e-11 -8.97608e-12 -6.84068e-12)
(6.20376e-11 -3.84913e-11 -1.26257e-11)
(3.51637e-10 -2.09224e-10 9.21769e-11)
(5.74832e-10 -6.32726e-10 6.98728e-10)
(3.23583e-10 -2.40249e-10 1.19974e-10)
(5.57844e-11 1.07568e-12 -1.59153e-11)
(1.12194e-10 -1.49565e-11 1.13322e-10)
(1.19634e-10 -5.64216e-11 -2.13605e-11)
(-1.6311e-11 -9.33984e-13 2.8648e-11)
(-1.3357e-11 -4.44974e-13 2.60448e-11)
(-1.07875e-11 -2.51873e-14 2.35286e-11)
(-1.05946e-11 -8.18173e-14 2.34117e-11)
(3.51033e-11 1.17995e-11 5.04685e-12)
(2.77464e-11 5.33945e-12 -2.55003e-11)
(7.04357e-11 1.89614e-11 1.77039e-11)
(2.05081e-10 3.43339e-11 4.82202e-11)
(4.62111e-11 1.4219e-10 3.31768e-11)
(1.69267e-11 2.80137e-11 9.54694e-11)
(5.22289e-11 7.90425e-10 3.19466e-13)
(2.08205e-11 9.50967e-11 3.1623e-11)
(3.49164e-10 5.33456e-10 7.26016e-11)
(4.26114e-10 5.84256e-10 6.1019e-11)
(1.15095e-10 1.36285e-09 1.83916e-11)
(8.61024e-11 1.24072e-09 -7.54167e-12)
(2.99097e-11 1.14773e-11 -4.84429e-12)
(2.25307e-11 2.1404e-11 5.44619e-11)
(3.01142e-11 2.9386e-11 3.14466e-11)
(4.50291e-10 6.12236e-11 3.66444e-11)
(3.70585e-10 6.24198e-11 4.71487e-11)
(-8.19124e-11 1.07514e-11 6.49295e-11)
(2.87065e-10 2.38385e-10 -3.10936e-10)
(4.64182e-11 1.19068e-10 6.12751e-11)
(4.15128e-10 5.58689e-10 -3.19068e-10)
(9.98508e-12 3.5369e-12 1.22356e-10)
(7.92898e-12 7.21912e-12 1.12125e-10)
(-8.39932e-12 2.81105e-12 1.26594e-10)
(-2.57309e-11 1.7518e-11 9.16773e-11)
(-4.16897e-12 1.46508e-11 1.1524e-10)
(1.55682e-11 1.74453e-11 6.15143e-11)
(2.14066e-11 2.98924e-11 6.43774e-11)
(1.43875e-11 1.2781e-11 8.63618e-11)
(4.27161e-10 5.89944e-10 1.36878e-11)
(4.02783e-10 6.05742e-10 3.77997e-11)
(4.26943e-10 8.24834e-11 2.81288e-12)
(1.26323e-10 1.43164e-09 4.95107e-12)
(1.33077e-10 1.35615e-09 1.90854e-11)
(1.31894e-10 1.39719e-09 6.03144e-12)
(4.15194e-10 8.91112e-11 2.13723e-11)
(4.195e-10 8.71039e-11 9.21006e-12)
(-7.18467e-12 -4.19734e-12 1.19377e-10)
(-1.18407e-11 -2.92034e-12 8.4098e-11)
(-3.94791e-12 -3.27777e-12 1.01359e-10)
(4.91043e-12 -2.37033e-12 6.62304e-11)
(3.05704e-12 -1.30063e-12 8.71606e-11)
(4.14926e-12 -2.50256e-12 9.16435e-11)
(-1.08281e-11 -9.7706e-13 8.49591e-11)
(-5.13016e-12 -1.01807e-12 9.99158e-11)
(-4.24592e-12 -1.55218e-12 1.01162e-10)
(-1.12952e-11 -8.19916e-14 2.40226e-11)
(-1.14715e-11 -7.41788e-14 2.42206e-11)
(3.72029e-12 -4.69456e-13 6.25294e-11)
(2.74174e-12 -7.8295e-13 8.58361e-11)
(2.4628e-12 -6.13774e-13 8.45714e-11)
(-6.00969e-12 -3.06271e-13 9.80874e-11)
(-1.0605e-11 -2.70792e-13 8.58901e-11)
(-5.95655e-12 -4.03562e-13 9.86509e-11)
(-5.55411e-12 -6.39062e-13 9.95031e-11)
(-1.06398e-11 -2.78941e-13 8.60415e-11)
(-5.7939e-12 -4.91568e-13 9.89912e-11)
(-6.01739e-12 -2.01532e-13 9.78151e-11)
(-1.04121e-11 -7.82227e-14 8.51469e-11)
(-5.98877e-12 -8.46604e-14 9.77364e-11)
(3.43353e-12 6.97327e-15 6.09451e-11)
(2.34457e-12 -5.47371e-13 8.3646e-11)
(2.16295e-12 -5.35619e-14 8.29368e-11)
(-1.03569e-11 -1.3751e-13 8.53405e-11)
(-5.90544e-12 -6.57778e-13 9.88607e-11)
(-5.9462e-12 -1.31314e-13 9.81617e-11)
(-8.6994e-12 -7.72404e-14 1.88944e-12)
(-9.0558e-12 -1.46543e-13 1.92057e-12)
(-4.7281e-12 2.11002e-13 4.40922e-12)
(-4.96854e-12 -1.38982e-12 4.10025e-12)
(1.08322e-12 -1.02364e-12 -2.75752e-12)
(1.78457e-13 -1.24952e-12 -1.68381e-12)
(1.085e-12 -1.37521e-11 1.95736e-11)
(8.75928e-12 1.11335e-11 1.11595e-10)
(-1.70363e-12 9.16556e-13 -2.42285e-12)
(8.76599e-12 -1.91999e-12 -6.6733e-14)
(9.46459e-12 -3.78866e-12 2.79224e-12)
(-4.54187e-11 -1.54116e-12 1.04538e-10)
(6.58773e-12 -9.93396e-13 1.16819e-12)
(9.8634e-12 -3.23786e-12 -1.58506e-13)
(-8.9658e-12 -4.09064e-13 1.88137e-12)
(9.23601e-12 -1.46854e-14 -9.16863e-13)
(1.18672e-11 -1.34027e-13 1.61968e-12)
(-2.46923e-11 -8.21832e-14 7.40088e-11)
(1.05372e-11 -7.42957e-14 -8.49085e-13)
(1.05173e-11 -4.33566e-14 -8.57464e-13)
(3.59273e-11 2.19814e-11 7.51603e-12)
(6.34014e-12 3.56782e-12 -3.47212e-13)
(1.7515e-11 -1.07826e-11 -2.89659e-13)
(1.18235e-11 3.92441e-12 6.43969e-12)
(2.19418e-11 4.55752e-12 -3.41708e-12)
(-2.52983e-11 -3.18038e-13 7.522e-11)
(1.03446e-11 -9.93714e-14 -7.37646e-13)
(9.25514e-12 -3.62737e-14 -8.6076e-13)
(1.18385e-11 -9.44924e-14 1.60291e-12)
(1.04692e-11 -5.76876e-14 -7.958e-13)
(1.07077e-11 -3.18254e-14 -9.32187e-13)
(5.18678e-11 6.51695e-10 6.34843e-11)
(3.31476e-10 2.23166e-10 8.17642e-11)
(1.91961e-10 7.62275e-10 1.40134e-11)
(4.79228e-10 2.90853e-10 1.27096e-11)
(-9.24124e-12 -9.2015e-12 -3.52439e-12)
(-6.71332e-12 1.49426e-12 7.39218e-13)
(4.68222e-12 -2.2729e-12 -4.29349e-12)
(6.33124e-12 -3.23477e-12 -5.29317e-12)
(3.16711e-10 -5.96662e-11 1.37502e-10)
(6.4789e-12 -6.86246e-12 -1.61084e-11)
(-5.26607e-12 -2.00167e-12 2.93018e-12)
(6.95901e-12 3.06915e-12 -1.0858e-12)
(2.08289e-11 -6.56991e-12 6.44563e-12)
(3.8e-11 4.80786e-11 1.80544e-10)
(8.24119e-12 -8.82443e-12 1.07696e-11)
(4.80387e-12 -1.30867e-11 -2.21207e-11)
(-5.58473e-12 -1.86513e-12 1.23379e-12)
(-2.00784e-12 -2.20531e-12 2.7225e-12)
(-1.6379e-12 -1.20422e-12 1.19108e-10)
(-4.31008e-12 4.45869e-13 1.88236e-12)
(-4.12248e-12 -3.71285e-12 1.28364e-12)
(-8.49786e-12 -3.62995e-12 1.71108e-12)
(-9.06406e-12 -3.54809e-13 1.93667e-12)
(-4.88602e-12 -1.53722e-13 5.9276e-13)
(-2.00645e-12 -1.43916e-13 1.31645e-12)
(-1.52016e-12 -2.47731e-13 9.18045e-11)
(-4.08856e-12 -2.19055e-13 1.11818e-12)
(-4.11648e-12 -9.07826e-14 1.10908e-12)
(-9.06124e-12 9.124e-14 1.90847e-12)
(-2.03683e-13 1.76346e-12 9.25216e-13)
(4.30739e-12 1.34897e-12 -1.37456e-12)
(3.14492e-11 1.1616e-12 -5.51769e-12)
(4.14991e-12 -8.19271e-13 5.49242e-13)
(2.76772e-12 3.37045e-12 1.41523e-13)
(2.04733e-11 -3.59215e-11 8.99962e-12)
(-7.02329e-10 -1.13035e-10 -1.58515e-09)
(5.46012e-11 -5.20059e-11 1.14763e-11)
(1.13678e-10 5.96932e-11 1.20144e-11)
(3.84863e-12 -1.64951e-12 -2.10601e-12)
(5.56008e-12 2.56005e-12 -1.45469e-13)
(1.4529e-11 1.67957e-11 7.1195e-11)
(4.74639e-12 2.48688e-12 -1.40714e-12)
(8.04135e-12 1.6741e-12 -4.97177e-13)
(2.80529e-10 1.27521e-09 1.61334e-11)
(2.29984e-10 1.06873e-09 3.82878e-11)
(2.28095e-10 1.11582e-09 3.05639e-11)
(2.44613e-10 1.08034e-09 2.52361e-11)
(1.83576e-11 -1.3103e-11 2.33086e-12)
(4.08277e-10 6.75748e-11 4.23397e-11)
(2.38784e-11 -3.03435e-11 6.9708e-12)
(2.45191e-11 -2.84372e-11 5.61529e-12)
(-5.3642e-13 1.79744e-13 2.39183e-12)
(9.78587e-12 1.44181e-11 -4.29916e-12)
(-4.3544e-11 5.77134e-11 8.42054e-11)
(-7.8635e-12 1.55522e-12 -4.60291e-13)
(-4.22367e-12 6.24647e-12 -1.52982e-11)
(9.68437e-12 -1.42485e-12 -6.18245e-13)
(1.00423e-11 -2.23422e-13 -6.11185e-13)
(-2.65263e-11 -1.24269e-12 7.64394e-11)
(9.17304e-12 -2.73002e-13 -6.69288e-13)
(1.12207e-11 -9.99815e-13 1.31159e-12)
(-4.50687e-12 -5.78674e-13 7.20146e-13)
(-1.28489e-12 -3.02834e-13 1.30933e-12)
(-6.90733e-13 -9.27435e-13 9.47645e-11)
(-3.57691e-12 -3.89014e-13 1.19955e-12)
(-3.208e-12 -7.72428e-13 1.19859e-12)
(1.0548e-11 -7.15621e-14 -8.428e-13)
(1.05376e-11 -6.71451e-14 -8.25192e-13)
(-2.50157e-11 -1.46145e-13 7.47136e-11)
(9.2758e-12 -2.22865e-14 -9.04968e-13)
(1.19151e-11 -1.40461e-13 1.64842e-12)
(1.05399e-11 -2.60467e-14 -8.67709e-13)
(1.06059e-11 3.03459e-15 -8.89146e-13)
(-2.44539e-11 -8.78247e-14 7.36758e-11)
(9.26022e-12 -1.62069e-14 -9.33984e-13)
(1.19453e-11 1.83383e-14 1.59691e-12)
(-4.02913e-12 2.01723e-13 1.02653e-12)
(1.17946e-10 8.9508e-10 1.03464e-10)
(1.26845e-10 5.12946e-10 1.54667e-10)
(1.92147e-10 9.83077e-10 2.79772e-11)
(1.99028e-10 9.57547e-10 9.31496e-11)
(1.43413e-10 7.94694e-10 4.24979e-11)
(4.49539e-10 3.09008e-10 5.29047e-11)
(2.62254e-10 1.15979e-09 1.37176e-11)
(2.548e-10 1.1603e-09 4.91172e-12)
(2.53939e-10 1.12651e-09 2.28236e-11)
(2.97322e-10 1.38121e-09 7.97093e-12)
(1.19886e-10 -8.16891e-11 -1.34731e-11)
(1.39599e-12 -2.28765e-12 -6.53025e-12)
(1.5045e-12 -3.26403e-12 -2.23944e-11)
(6.47084e-13 -2.54675e-13 -8.57423e-12)
(8.0335e-13 -1.6131e-11 -3.83758e-11)
(1.09614e-10 1.93028e-10 -6.43483e-11)
(5.73835e-12 1.94215e-11 1.00737e-10)
(9.17682e-13 7.5619e-13 -5.17992e-12)
(-1.53955e-12 3.00705e-12 1.58695e-12)
(5.92133e-12 6.40937e-12 -1.8246e-12)
(4.55807e-12 8.88791e-12 -2.62539e-12)
(4.55664e-11 5.40046e-11 2.21009e-11)
(1.04954e-11 -3.59315e-12 2.39985e-12)
(5.88251e-12 -2.89699e-12 4.15191e-12)
(5.8817e-12 7.86857e-13 -2.05805e-12)
(2.31738e-12 3.92926e-12 2.34596e-12)
(-1.29535e-12 -4.93744e-13 9.30405e-11)
(-4.7699e-12 -3.50321e-13 6.33779e-13)
(-4.00662e-12 -2.77361e-13 1.13671e-12)
(-3.8297e-12 -3.47483e-13 1.15905e-12)
(-1.84055e-12 -2.20056e-13 1.32718e-12)
(1.64472e-12 -2.23556e-12 1.00046e-10)
(-8.05535e-13 -2.46123e-12 9.57032e-13)
(-2.57879e-12 -2.32216e-12 1.208e-12)
(7.48397e-13 -1.31216e-12 1.12927e-12)
(-2.06376e-12 -1.46243e-12 1.29849e-12)
(-1.5008e-12 -4.91923e-14 9.17537e-11)
(-4.11374e-12 3.19876e-14 1.1017e-12)
(-4.89665e-12 1.09724e-13 5.71689e-13)
(-1.97557e-12 9.7066e-14 1.30082e-12)
(-4.09325e-12 1.67908e-13 1.09045e-12)
(3.05746e-10 4.52289e-11 4.6067e-11)
(3.4165e-11 -2.06071e-11 2.04875e-12)
(1.7819e-11 -9.61764e-12 1.5224e-12)
(2.03776e-11 -2.47042e-11 -2.3075e-12)
(4.02211e-10 7.10361e-11 1.34194e-12)
(2.33388e-11 -2.92015e-11 -1.00064e-12)
(2.58001e-11 -2.86705e-11 -4.73509e-14)
(1.81986e-11 -1.26336e-11 -1.63154e-13)
(1.18638e-10 -2.92143e-11 1.41001e-11)
(1.79252e-10 -7.61802e-11 4.69465e-11)
(1.25408e-10 3.11109e-12 2.56462e-11)
(1.64971e-10 5.20777e-11 6.41437e-11)
(1.72041e-10 1.16339e-10 6.9642e-11)
(1.18073e-10 2.61173e-10 1.26218e-10)
(2.17488e-10 2.78979e-10 1.04918e-10)
(8.39521e-11 7.26129e-11 6.16473e-11)
(7.96132e-12 5.26944e-12 9.47414e-11)
(3.92138e-10 4.9254e-10 2.38395e-12)
(7.76187e-12 -6.99626e-13 8.98421e-11)
(4.11726e-12 -3.64151e-13 7.42961e-11)
(3.99193e-12 -1.04091e-13 7.35169e-11)
(6.1861e-11 -3.25891e-11 -6.66197e-12)
(6.79103e-11 -3.02414e-11 -1.49676e-11)
(3.84206e-11 -1.10912e-11 -1.57387e-11)
(3.13093e-11 -1.47568e-11 -9.93901e-12)
(2.66719e-11 -9.68507e-12 -1.24441e-11)
(3.67172e-10 -3.83118e-10 1.17401e-10)
(7.20234e-10 -7.01608e-10 7.39238e-10)
(1.2484e-10 -2.22342e-11 -7.10425e-11)
(2.71575e-10 -4.87502e-11 -7.48349e-13)
(5.9354e-11 2.18812e-11 3.03596e-11)
(3.42231e-11 9.25747e-11 4.53016e-11)
(7.95497e-11 1.59756e-11 -3.31042e-11)
(2.74182e-10 1.82911e-11 8.08551e-11)
(3.95476e-11 1.8507e-12 -7.39698e-11)
(5.69093e-11 8.20098e-13 -7.01688e-11)
(5.44636e-11 3.38282e-12 -9.38386e-12)
(7.40245e-11 3.11462e-11 3.60769e-12)
(2.45806e-11 2.95616e-10 3.86376e-11)
(-3.35687e-12 7.53545e-11 2.61498e-10)
(4.61866e-12 7.53533e-11 2.24743e-10)
(-7.61079e-12 4.58611e-11 2.44456e-10)
(2.46709e-11 8.51781e-11 1.17698e-10)
(3.12925e-10 4.31468e-10 8.50474e-11)
(3.33604e-10 7.41625e-10 7.10029e-11)
(4.53786e-10 3.54132e-10 5.67313e-11)
(3.706e-10 4.80342e-10 5.87808e-11)
(-4.57422e-12 1.15739e-09 2.10672e-11)
(2.08142e-11 1.412e-11 -2.17673e-11)
(1.97176e-11 8.89658e-12 2.60586e-11)
(6.60796e-12 2.05661e-11 9.42262e-11)
(1.05903e-11 1.45903e-11 7.14757e-11)
(2.92199e-11 2.13813e-11 2.09564e-11)
(6.3799e-10 4.61507e-11 8.21193e-11)
(3.14765e-11 8.602e-11 -2.97702e-10)
(3.25581e-10 5.00314e-10 -2.9246e-10)
(2.5385e-10 4.07447e-10 1.45633e-11)
(4.42264e-11 1.31227e-10 5.5929e-12)
(9.89566e-11 2.41659e-10 -3.79208e-11)
(-2.22198e-12 1.02103e-10 1.69999e-10)
(9.11323e-12 2.83211e-11 1.69444e-10)
(1.07241e-11 3.44069e-11 1.77547e-10)
(8.08295e-12 2.44042e-11 9.47447e-11)
(-1.68836e-11 8.71602e-12 1.18583e-10)
(1.56654e-11 2.29135e-11 1.16875e-10)
(1.50526e-11 2.5897e-11 1.05437e-10)
(9.45647e-12 2.00625e-11 1.33065e-10)
(1.95021e-11 5.63982e-11 1.04373e-10)
(1.92988e-11 1.88627e-11 6.25731e-11)
(3.78517e-10 4.92771e-10 1.24244e-11)
(3.67345e-10 4.9311e-10 3.40938e-11)
(3.60853e-10 7.74239e-10 2.29956e-11)
(4.55969e-10 3.86993e-10 2.05258e-11)
(3.45738e-11 1.17833e-09 2.02876e-11)
(5.80829e-10 1.09912e-10 2.70476e-11)
(-1.06074e-11 -5.0392e-12 1.06087e-10)
(4.8914e-12 -1.73788e-12 7.88979e-11)
(-9.31533e-12 -9.42058e-13 1.00367e-10)
(4.49634e-12 -6.45727e-13 7.62627e-11)
(-1.00466e-11 -3.15078e-13 1.00436e-10)
(-9.90245e-12 -4.42662e-13 1.00927e-10)
(-9.98871e-12 -1.37075e-13 9.9823e-11)
(4.17672e-12 -1.41358e-13 7.42482e-11)
(-9.91786e-12 -2.8081e-13 1.00375e-10)
(3.16875e-11 2.79565e-11 1.56356e-11)
(-7.5793e-12 4.40413e-13 1.28483e-12)
(6.88706e-12 -6.53857e-13 9.59577e-11)
(-7.2214e-12 -1.83972e-13 1.49442e-12)
(-5.8965e-12 -1.28629e-12 4.01886e-13)
(-7.45709e-12 -1.41162e-13 1.96004e-12)
(-9.04875e-12 -2.62195e-13 1.92084e-12)
(4.02769e-12 -2.03966e-13 7.36771e-11)
(-5.9213e-12 -2.09445e-13 1.13105e-12)
(-5.92387e-12 -7.70985e-14 1.12139e-12)
(-9.04168e-12 -3.72346e-14 1.91243e-12)
(1.23068e-12 -1.80653e-12 -1.97057e-12)
(4.93935e-13 -1.02944e-12 -4.94398e-13)
(8.43847e-12 2.79735e-13 3.55753e-13)
(4.4034e-12 -6.45052e-14 1.37592e-12)
(1.93202e-11 5.83806e-14 -2.00196e-11)
(2.05094e-13 1.24751e-13 -2.36841e-14)
(3.83119e-12 -2.91828e-13 -2.62321e-12)
(2.46036e-11 3.16558e-12 -5.26773e-11)
(1.49079e-12 3.48944e-12 -9.94589e-12)
(2.45451e-12 7.26883e-12 -2.10257e-11)
(-1.91836e-11 -2.16055e-11 1.48661e-11)
(7.67466e-12 2.12449e-11 1.01994e-10)
(9.25149e-13 1.26247e-11 -1.22462e-11)
(-7.2726e-12 3.05882e-11 2.0858e-10)
(4.29887e-12 2.84498e-11 8.91296e-11)
(-9.6146e-12 -5.3079e-12 5.99579e-12)
(1.3582e-12 7.06954e-14 -3.27181e-12)
(-7.10565e-12 2.3575e-13 -5.25589e-12)
(-1.56903e-11 -1.90225e-12 1.25161e-10)
(1.17205e-12 1.32071e-12 3.62378e-12)
(2.75416e-12 -5.21167e-12 3.79675e-12)
(-5.89387e-11 3.71631e-12 1.09483e-10)
(1.44147e-12 -2.14745e-12 1.57641e-12)
(4.36197e-12 5.55735e-12 2.12274e-12)
(-3.12121e-11 -1.5524e-12 8.35722e-11)
(9.53406e-12 -9.7773e-13 -5.44894e-13)
(1.13261e-11 -5.47003e-12 1.0655e-12)
(-8.88808e-12 -1.48849e-12 1.29729e-12)
(-9.02892e-12 -4.20147e-13 1.93635e-12)
(4.69572e-12 -8.36526e-13 7.726e-11)
(-5.84922e-12 -4.09417e-13 1.21409e-12)
(-5.96652e-12 -7.66893e-13 1.17545e-12)
(3.54838e-12 4.07107e-15 -1.58576e-12)
(3.53476e-12 -4.8082e-16 -1.59779e-12)
(-1.00135e-11 -2.26313e-13 1.00063e-10)
(2.22446e-12 -1.54503e-13 3.23663e-12)
(2.21361e-12 -9.80872e-14 3.22183e-12)
(-2.48115e-11 -1.16022e-13 7.4461e-11)
(9.31186e-12 -2.84452e-14 -9.32876e-13)
(1.18822e-11 -1.67229e-13 1.62517e-12)
(-2.45281e-11 -7.03422e-14 7.38885e-11)
(9.28592e-12 -1.87915e-14 -9.41431e-13)
(1.18575e-11 -6.34614e-14 1.6048e-12)
(-9.05287e-12 1.88773e-13 1.88786e-12)
(-5.92713e-12 2.25589e-13 1.05403e-12)
(1.22907e-11 3.35356e-11 -1.01504e-11)
(-3.30753e-13 5.79199e-11 -6.28395e-11)
(7.37572e-12 2.00928e-11 1.28204e-10)
(5.18164e-12 3.82202e-11 -1.18814e-11)
(2.85529e-11 1.87793e-11 -3.96244e-12)
(7.23703e-12 2.36218e-12 2.38403e-14)
(7.8691e-12 5.74556e-12 -2.60632e-12)
(1.25336e-11 6.70347e-13 -5.4253e-11)
(4.58966e-12 2.026e-12 2.05357e-11)
(2.32102e-11 3.06394e-12 -1.9664e-12)
(1.93141e-11 2.07433e-11 6.03963e-11)
(6.22921e-12 1.50362e-12 -1.09004e-12)
(8.23071e-12 7.33652e-12 -1.05454e-12)
(3.96151e-11 4.86595e-11 2.47466e-11)
(6.37304e-12 8.71143e-12 7.25076e-12)
(1.31161e-11 1.40853e-11 -8.29323e-12)
(-2.55663e-11 -5.97551e-13 7.57006e-11)
(9.28273e-12 -1.00698e-13 -8.27057e-13)
(1.17113e-11 -1.58758e-13 1.59355e-12)
(3.39864e-12 9.83992e-15 -1.73778e-12)
(3.43059e-12 9.46753e-15 -1.68432e-12)
(-9.70553e-12 -5.72275e-13 1.00733e-10)
(2.52601e-12 -9.22548e-14 3.23671e-12)
(2.79049e-12 -1.38082e-13 3.15379e-12)
(-2.5116e-11 -2.07923e-13 7.50892e-11)
(9.32727e-12 -3.49579e-14 -9.08236e-13)
(1.18945e-11 -1.08233e-13 1.62885e-12)
(-2.4381e-11 -2.35701e-13 7.38622e-11)
(9.38061e-12 -2.4229e-14 -9.74212e-13)
(1.20655e-11 3.03497e-14 1.56757e-12)
(2.43405e-12 1.13417e-13 3.15799e-12)
(1.24851e-10 -8.5514e-11 -2.02931e-12)
(2.14956e-10 -2.17253e-10 2.90999e-11)
(1.45958e-10 -8.49769e-11 -1.09215e-11)
(3.40894e-10 -2.60431e-10 1.9332e-10)
(4.89512e-11 6.58065e-10 1.13013e-10)
(2.42182e-10 6.12087e-10 1.20543e-10)
(-5.17525e-11 1.00552e-09 -1.76221e-12)
(1.32527e-10 9.36341e-10 6.31051e-11)
(1.28165e-10 7.5608e-10 5.34752e-11)
(4.59514e-10 2.58415e-10 6.56337e-11)
(1.36576e-10 9.85507e-11 4.89035e-11)
(4.79557e-11 2.46063e-10 8.29239e-11)
(3.88128e-11 1.76173e-11 8.14124e-12)
(-2.29264e-12 5.74374e-11 1.27465e-10)
(3.09585e-10 8.9628e-11 5.72216e-11)
(3.41534e-10 2.93903e-10 7.21368e-11)
(4.60922e-10 5.36358e-11 9.62001e-11)
(4.88508e-10 1.54731e-10 5.51667e-11)
(3.06336e-12 6.20952e-11 1.6647e-10)
(1.61913e-10 7.79054e-10 2.75541e-11)
(4.32017e-10 3.24204e-10 2.74278e-11)
(3.84944e-10 7.772e-10 8.98776e-12)
(2.40221e-10 1.03216e-09 7.26928e-12)
(2.25998e-10 1.02053e-09 1.85971e-11)
(3.39767e-11 1.19759e-09 8.66178e-12)
(4.78428e-10 3.73353e-10 2.94689e-12)
(5.8058e-10 1.74655e-10 2.64727e-12)
(5.53372e-10 1.9565e-10 1.10838e-11)
(6.13991e-10 9.92329e-11 1.57567e-11)
(5.66211e-11 -2.82483e-11 -9.6147e-12)
(5.13691e-12 -1.37587e-12 -1.02866e-11)
(2.18512e-12 -1.9733e-12 -2.40474e-12)
(5.02586e-11 -1.70093e-11 -9.88403e-12)
(1.14067e-11 -1.95356e-11 -1.03811e-11)
(5.74146e-12 -3.89716e-13 -4.54938e-12)
(2.81531e-10 -1.20337e-10 9.18362e-11)
(1.77291e-10 -1.35726e-10 1.54431e-11)
(-2.14294e-13 -1.84085e-12 -1.13251e-11)
(4.39468e-11 -6.72328e-11 -5.54263e-12)
(6.27549e-11 3.62111e-11 1.36066e-11)
(1.52929e-11 -2.92425e-12 4.525e-12)
(6.64166e-12 2.40028e-12 3.37154e-13)
(6.09299e-11 2.54292e-11 -3.1824e-12)
(-1.41385e-12 -2.84399e-12 -1.99176e-12)
(8.82951e-11 3.44006e-10 1.82221e-10)
(7.91995e-11 5.32793e-10 4.56996e-11)
(4.98541e-11 1.14505e-10 5.51217e-11)
(6.35488e-12 1.53898e-13 1.36151e-12)
(-4.64751e-12 -5.49414e-12 3.01301e-12)
(8.83413e-12 1.52681e-11 8.62158e-11)
(-5.49242e-12 -2.98655e-12 1.14474e-12)
(4.94059e-12 4.1683e-12 -2.21656e-12)
(-3.6467e-13 7.08616e-12 1.18832e-10)
(-5.01161e-12 2.04642e-12 4.895e-13)
(-9.75925e-13 4.69978e-12 2.03835e-12)
(2.84722e-13 -3.19863e-12 1.05311e-10)
(-3.38e-12 -1.61927e-12 7.52533e-13)
(-8.38174e-14 -4.87585e-12 1.47916e-12)
(7.04652e-12 -2.94209e-12 8.84926e-11)
(-4.20088e-12 -1.42989e-12 2.32377e-12)
(-5.86016e-12 -2.54576e-12 1.01783e-12)
(4.28305e-12 -4.72421e-13 7.50665e-11)
(-5.90312e-12 -2.88098e-13 1.14841e-12)
(-5.87187e-12 -3.90235e-13 1.16623e-12)
(-1.41268e-12 -4.03831e-13 9.24208e-11)
(-4.84505e-12 -2.72212e-13 6.35838e-13)
(-1.94851e-12 -2.19344e-13 1.29895e-12)
(-1.49201e-12 -1.40031e-13 9.16622e-11)
(-4.88921e-12 -3.34616e-14 6.10777e-13)
(-1.99693e-12 -3.64527e-14 1.27983e-12)
(4.0322e-12 5.15356e-15 7.35694e-11)
(-5.93141e-12 2.17062e-14 1.11437e-12)
(-5.93556e-12 1.65915e-13 1.10363e-12)
(6.19253e-11 -1.08063e-11 -9.8715e-12)
(4.30148e-11 -6.74087e-12 -1.66186e-11)
(4.43582e-11 6.83377e-12 -1.83366e-11)
(3.65757e-11 -1.59924e-13 -1.94204e-11)
(6.58501e-11 -2.68925e-11 -1.97064e-11)
(5.05413e-12 5.22983e-13 -8.8852e-12)
(2.83807e-12 -2.08322e-12 -2.1124e-12)
(3.40495e-11 1.59322e-11 -1.21665e-11)
(7.80315e-12 -1.84259e-12 -4.62982e-12)
(7.79519e-12 5.45301e-12 7.02042e-13)
(5.04179e-10 5.11153e-11 4.59827e-10)
(-4.6535e-10 2.31829e-10 -4.28388e-11)
(3.14315e-10 -2.08085e-10 2.19375e-10)
(2.43126e-10 -1.81333e-10 1.39729e-10)
(2.2715e-11 -1.39647e-12 -3.16071e-11)
(1.74581e-10 6.5435e-10 3.66097e-10)
(1.53336e-11 2.99662e-11 1.23244e-11)
(3.52659e-12 3.01259e-11 1.55525e-10)
(7.37659e-12 3.22273e-11 1.59066e-10)
(8.49618e-12 1.89193e-11 1.30548e-10)
(9.59214e-12 2.87241e-11 1.46561e-10)
(1.34553e-11 1.96258e-11 8.73694e-11)
(3.34542e-12 7.05601e-12 -3.6707e-12)
(7.54753e-12 6.14166e-12 -3.16868e-12)
(2.38996e-11 3.56122e-11 7.43788e-11)
(1.01545e-11 5.11475e-12 9.1552e-14)
(1.06923e-12 6.47217e-12 9.1793e-12)
(2.53579e-10 1.23498e-09 1.81665e-11)
(1.98855e-10 1.07911e-09 5.60709e-11)
(1.8637e-10 1.01951e-09 4.36313e-11)
(3.54508e-10 7.75741e-10 4.69228e-11)
(2.11731e-11 1.18925e-09 3.16946e-11)
(2.00506e-10 1.01676e-09 2.77384e-11)
(2.46693e-10 1.12465e-09 2.42226e-11)
(2.92383e-10 1.30641e-09 1.45738e-11)
(6.03459e-10 1.55886e-10 5.98392e-11)
(4.67311e-10 3.83722e-10 5.68931e-11)
(6.26874e-10 8.34955e-11 2.90694e-11)
(5.391e-10 2.09817e-10 4.12394e-11)
(4.07191e-10 4.61835e-11 3.1217e-11)