/*--------------------------------*- C++ -*----------------------------------*\
| =========                 |                                                 |
| \\      /  F ield         | OpenFOAM: The Open Source CFD Toolbox           |
|  \\    /   O peration     | Version:  2012                                  |
|   \\  /    A nd           | Website:  www.openfoam.com                      |
|    \\/     M anipulation  |                                                 |
\*---------------------------------------------------------------------------*/
FoamFile
{
    version     2.0;
    format      ascii;
    class       volScalarField;
    location    "0.104/solid";
    object      sigmaMin;
}
// * * * * * * * * * * * * * * * * * * * * * * * * * * * * * * * * * * * * * //

dimensions      [1 -1 -2 0 0 0 0];


internalField   nonuniform List<scalar> 
3124
(
-433.016
20.673
-32.6943
-483.902
-347.153
-340.133
8.08975
-667.489
-1374.57
-192.61
-510.481
-45.9841
-644.014
-582.109
-237.183
-1421.05
-545.934
-429.955
-340.55
-346.644
-425.365
-429.832
-424.508
8.07199
-377.169
-73.9158
-489.933
-353.854
-810.1
-1156.43
-365.071
-646.784
-618.134
-573.344
-467.433
-1647.82
-595.708
-540.008
-476.469
-481.977
-475.422
-475.043
23.9918
-0.0724729
-22.7719
-497.726
-334.639
-3.29245
-331.742
-79.9334
-357.729
-354.49
-338.536
-338.494
-128.321
5.45228
-262.488
-535.239
-529.021
-953.607
-344.239
-576.664
-1219
-1551.15
-958.101
-1395.95
-555.577
-843.489
-1513.06
-1452.25
-17.1986
-439.956
-273.385
-756.32
-602.599
-533.695
-268.576
-495.289
-509.663
-611.007
-651.212
-472.538
-575.286
-451.1
-720.525
-562.693
-499.647
-1442.1
-1545.85
-1016.67
-634.161
-1621.66
-1026.72
-804.896
-1625.19
-1500.63
-1595.63
-796.733
-813.052
-631.891
-433.878
-537.093
-496.073
-526.541
-430.578
-518.273
-532.648
-343.624
-344.132
-492.702
-484.345
-505.006
-428.123
-509.44
-516.219
-428.874
-511.019
-504.061
-423.391
-503.734
-476.074
-423.588
-504.759
-95.7205
-162.168
-530.573
-529.728
-513.052
-503.251
-408.084
-409.86
-406.988
-406.397
34.615
22.8231
36.0005
0.792352
36.0908
30.0898
9.54096
-46.7727
-67.8555
-45.1641
27.842
-108.175
-286.534
-87.4715
-161.509
-405.697
-87.8309
-349.193
-53.8059
-54.8399
-49.9416
-339.698
-48.6865
-338.901
-46.5471
63.5365
-46.7141
28.7497
-6.64384
31.3443
-51.0338
-203.354
-970.313
-656.562
-745.303
-702.397
-132.723
-336.317
-86.8842
-301.561
-30.2358
-352.991
-173.518
-198.581
-554.986
-393.017
-555.238
-97.586
2.37941
-132.672
132.075
-143.868
-137.849
-652.515
-586.123
-640.195
-356.756
-284.24
-373.923
-248.306
-441.369
-108.44
-371.846
-632.631
-492.904
-581.689
-428.778
-432.047
-430.364
-521.621
-520.852
-49.9299
-342.146
-49.5739
-53.7741
-345.948
-51.6188
-426.549
-423.713
-518.744
-426.4
-519.74
-522.441
-429.768
-522.782
-517.85
-424.026
-517.2
-411.16
-424.54
-519.783
66.6205
87.4521
7.96204
60.4641
67.2969
-33.2886
129.689
-26.2318
280.75
-225.978
43.9294
-202.632
13.5088
59.9282
-27.3862
-141.765
43.5441
24.6667
-84.3428
-807.346
-1093.97
-480.659
-598.993
-658.894
-799.68
-860.982
-606.976
-321.294
-397.374
-485.772
-514.214
-601.959
-509.4
-533.841
-528.724
-582.476
-618.737
-582.354
-560.298
-603.639
-572.547
-1201.99
-727.825
-1154.43
-560.383
-567.97
-541.129
-506.597
-518.717
-551.546
-537.915
-544.991
-414.355
-411.947
-448.042
-478.293
-449.985
-454.187
-480.148
-452.035
-446.929
-475.102
-446.545
-406.362
-406.179
-474.962
-446.44
-446.37
47.3993
23.9459
17.717
56.3332
61.4345
24.1002
12.1317
37.6572
21.1263
-3.32921
2.68996
46.0822
22.7229
13.0087
53.5343
106.801
-1.84081
7.54807
45.4992
66.6744
11.0186
456.588
-519.214
118.02
-1941.95
-1931.46
-32.5743
-500.897
-1124.7
-44.1546
-1066.48
11.8685
-27.2312
-12.4393
14.8711
36.3447
-78.9634
-11.7051
-152.478
-23.6076
-3545.04
-698.065
-476.026
-1093.09
-200.316
21.9153
69.7118
23.0374
-393.079
54.0222
-379.385
2.01329
-385.773
-64.3342
-80.3855
-350.159
-62.0399
-55.7883
-339.457
-48.7137
-48.4432
-338.905
-48.4718
-46.9101
-322.805
-528.027
-979.32
-102.708
-200.753
-298.567
-183.772
-167.244
-460.376
53.0808
26.9312
1.1255
-11.9582
24.7223
15.4817
-20.2414
-742.442
-248.157
-285.691
-124.846
-532.687
13.3492
-173.149
-477.079
-390.801
33.8126
-1318.25
-1167.49
-951.772
-1539.62
-499.388
-851.655
-565.406
-896.534
-609.784
-492.551
-573.305
-532.2
-635.705
-704.305
-1267.35
-2957.6
-1030.97
-1074.67
-300.7
-404.539
-503.983
-1010.35
-567.496
-548.378
-1042.83
-1149.52
-536.357
-652.873
-986.557
-1182.46
-654.557
-1105.73
-479.11
-1220.02
-693.941
-1214.32
-676.243
-1119.13
-1296.54
-1341.67
-1520.51
-1433.84
-1436.87
-1343.53
-1429.12
-1407.92
-1365.39
-1368.5
-119.568
-32.6159
-11.1481
-58.3766
14.75
-29.4905
-103.535
-209.669
-361.67
-443.598
-423.645
-433.228
-357.671
-287.365
-185.916
-209.992
-146.221
-372.556
-37.1065
-448.195
-223.163
-310.05
-321.8
-364.71
-713.409
-331.474
-360.056
-296.901
-276.445
-675.726
-353.365
-562.436
-771.405
-481.217
-690.697
96.7865
1516.39
-1200.6
-46.7667
374.672
-204.991
-729.936
-297.841
-868.895
-283.819
-415.986
-832.951
-1564.77
-7829.2
-521.113
-580.679
-672.214
-681.552
-576.184
-646.321
-606.082
-551.334
-647.511
-668.426
-647.049
-656.475
-562.486
-513.771
-599.845
-625.004
-552.555
-623.157
-402.935
-410.347
-440.898
-486.236
-437.721
-461.569
-422.859
-405.53
-510.006
-446.59
-218.135
-398.66
-390.856
-535.98
-499.993
-527.269
-452.243
-1156.32
-545.743
-1195.34
-740.339
-1156.56
-1191.11
-750.675
-1148.49
-593.336
-1209.01
-747.448
-1146.28
-1192.2
-755.587
-386.735
-411.88
-1312.41
-1452.29
-1307.48
-1302.71
-1420.34
-1508.5
-1399.79
-1347.45
-1296.29
-1442.25
-1549.14
-1410.27
-403.737
-430.18
-403.604
-816.342
-430.596
-413.626
-440.146
-424.247
-819.138
-433.917
-653.043
-593.958
-607.732
-451.994
-513.804
-533.682
-557.028
-536.015
-559.385
-468.601
-441.684
-470.174
-501.827
-475.863
-511.476
-511.901
-487.674
-430.51
-515.53
-519.353
-536.049
-522.09
-537.047
-536.272
-527.88
-538.118
-342.673
-51.3189
-49.8323
-345.522
-51.322
-51.3165
-417.108
-420.374
-466.737
-490.056
-463.657
-456.924
-487.214
-460.263
-529.449
-506.217
-530.417
-427.331
-521.87
-520.819
-507.781
-533.049
-531.704
-535.801
-514.651
-535.507
-429.479
-522.414
-522.618
-512.802
-533.836
-534.577
-528.557
-503.38
-527.796
-423.661
-517.101
-516.942
-503.245
-528.089
-527.618
-407.372
-409.069
-479.955
-451.488
-447.47
-477.961
-449.398
-424.077
-517.73
-518.641
-507.914
-531.592
-528.968
-506.081
-530.02
-371.375
-370.394
-481.041
-457.646
-402.32
-454.135
-344.318
-263.42
-337.498
-348.093
-244.653
-338.728
-261.511
-245.539
-254.115
-237.807
-329.332
-340.415
-253.393
-330.062
-237.963
-455.595
-397.89
-509.299
-530.518
-424.885
-528.847
-425.544
-540.433
-596.284
-647.72
-596.33
-574.184
-539.712
-596.851
-255.069
-238.075
-329.823
-341.493
-253.535
-331.085
-238.75
-261.172
-336.59
-244.1
-346.843
-260.964
-337.205
-243.997
-788.332
-781.532
-471.77
-502.61
-467.173
-669.889
-777.231
-758.511
-608.216
-613.451
-781.598
-613.937
-754.873
-531.592
-856.561
-508.232
-60.6424
-285.443
-363.294
-351.624
-258.197
-279.044
-357.151
-263.583
-271.871
-352.873
-347.276
-254.559
-274.673
-345.688
-252.183
-252.772
-339.237
-327.608
-236.217
-251.508
-328.737
-236.793
-252.302
-339.06
-327.52
-236.082
-251.299
-328.443
-236.38
-156.622
-136.489
-919.982
-904.783
-842.519
-741.304
-532.951
-519.147
-833.267
-787.6
-531.37
-868.318
-514.51
-814.897
-566.861
-791.363
-533.383
-881.456
-1007.68
-962.434
-992.262
-985.169
-256.806
-210.759
-202.535
-120.418
-582.685
-560.167
-479.1
-557.086
-547.459
-579.227
-578.547
-315.927
-402.196
-670.147
-600.742
-642.037
-482.477
-540.923
-533.782
-552.006
-496.736
-545.156
-526.201
-517.745
-578.552
-868.147
-517.345
-765.099
-547.727
-869.399
-771.138
-556.688
-908.026
-610.203
-816.387
-593.217
-910.864
-830.228
-614.274
-177.574
-892.186
-907.951
-915.257
-1035.14
-992.188
-208.978
-233.518
-291.934
-314.767
-257.226
-343.798
-332.925
-240.725
-256.693
-333.571
-240.748
-258.658
-345.037
-333.625
-241.122
-257.062
-334.813
-241.824
-21.9806
-51.466
27.7259
6.16235
-46.5431
94.9855
-547.51
-531.843
-503.146
-567.677
-455.62
-474.773
-477.383
-444.772
-516.22
-563.303
-544.393
-539.966
-481.72
-530.772
-498.19
-518.768
-469.835
-452.501
-445.251
-482.659
-520.312
-524.464
-502.101
-531.335
-413.083
-422.336
-409.445
-425.794
-356.965
-359.084
-360.686
-358.642
-408.316
-423.346
-411.604
-420.674
-406.556
-422.082
-419.229
-409.515
-357.575
-356.475
-355.49
-357.336
-410.031
-419.732
-407.873
-422.238
31.5238
26.2353
30.6441
33.0357
35.6021
30.6377
32.9407
19.9395
-21.5703
42.5817
7.48961
18.3855
40.6416
-9.94169
29.4535
22.9267
35.6855
45.6387
30.6904
25.8202
35.0771
24.0889
29.9096
7.49038
9.83195
26.5332
36.5349
-0.554039
-123.664
-132.363
-265.107
-153.86
-182.793
-71.0225
-257.001
-62.8088
-189.986
-72.4164
-39.8112
-36.044
-107.754
-48.9082
-104.253
-476.102
-77.0502
-106.623
-14.0133
-258.517
-258.576
-164.944
-227.065
-126.054
-199.715
-199.84
-346.628
-428.227
-400.406
-298.98
-422.865
-322.838
-319.084
-147.603
-104.33
-160.266
-128.03
-177.118
-264.268
-348.89
-340.01
-246.895
-339.975
-264.631
-246.298
-82.2661
-111.644
-53.2979
-81.588
-112.161
-82.5323
-113.631
-53.382
-83.4318
-112.714
-75.0646
-105.518
-48.7727
-75.3628
-105.323
-254.249
-340.305
-329.011
-237.109
-329.935
-252.659
-237.749
-74.4694
-48.092
-104.27
-73.586
-104.861
-327.89
-235.637
-250.886
-71.0079
-101.961
-70.8068
-57.7476
-43.2668
-119.599
-18.335
-165.79
-56.3511
-30.6594
-9.47315
-34.6591
37.3019
-26.6472
5.89586
23.424
-54.8831
10.1909
70.2683
19.0211
40.771
16.2888
27.6562
56.3284
-53.0827
-169.043
-149.507
-31.3331
-159.672
-10.5604
-78.0379
-766.261
-1335.81
-877.359
-831.585
-789.889
-787.518
-782.691
-138.906
-25.7794
-200.557
-171.946
-158.66
-140.703
-165.815
-225.687
-204.987
-163.121
-454.904
-192.51
-222.532
-228.064
-85.9288
7.4198
-71.2023
-70.3448
-67.5519
-143.827
-89.3739
-287.465
-204.229
-393.016
-319.66
-317.244
-196.02
-281.213
-274.263
-259.023
-254.805
-218.659
-299.546
-478.593
-547.372
-551.176
-479.038
-548.981
-498.289
-454.285
-317.024
-317.342
-394.218
-373.627
-345.595
-240.657
-182.841
-386.252
-446.337
-64.565
-427.41
-288.6
-73.8791
-66.1262
-80.3835
-43.116
-39.4865
-68.4359
-18.9202
-56.8342
-84.4458
27.1281
-90.5179
2.47707
13.5127
-195.024
-205.162
-249.375
-45.5609
-161.919
-138.068
-34.4218
-236.87
-677.917
-634.627
-694.177
-602.002
-597.491
-512.527
-541.754
-644.255
-645.296
-544.609
-539.867
-577.39
-622.21
-707.712
-686.585
-654.987
-264.714
-212.413
-420.002
-145.096
-272.741
-188.976
-305.722
-364.636
-412.128
-442.493
-363.26
-363.926
-388.523
-383.518
-269.782
-228.825
-111.79
-182.328
-185.643
-300.785
-273.758
-564.383
-615.059
-605.186
-584.621
-604.41
-511.382
-464.043
-581.302
-533.052
-414.184
-455.176
-542.529
-652.723
-647.839
-610.939
-677.821
-435.901
-443.266
-423.384
-453.642
-372.792
-382.053
-382.764
-374.756
-421.566
-449.996
-435.228
-438.933
-529.84
-538.623
-506.217
-559.983
-476.134
-365.88
-370.562
-490.429
-490.644
-371.648
-368.326
-474.438
-508.495
-560.14
-529.817
-540.685
-75.3693
-105.614
-48.9526
-75.2568
-105.71
-255.639
-342.145
-331.431
-239.089
-331.852
-254.836
-239.13
-75.0889
-48.6265
-105.645
-74.8204
-105.673
-80.4529
-111.154
-52.334
-81.3295
-110.535
-260.979
-346.624
-335.815
-242.706
-336.716
-259.125
-243.52
-79.3571
-51.3575
-108.831
-78.2263
-109.687
-419.259
-443.465
-430.428
-433.949
-379.72
-372.17
-433.183
-436.607
-421.584
-446.75
-369.569
-377.086
-520.975
-546.29
-551.562
-515.014
-479.292
-360.373
-362.721
-482.461
-483.689
-362.913
-362.589
-479.848
-514.718
-550.167
-519.799
-545.467
-512.65
-559.421
-544.517
-528.576
-490.307
-368.301
-477.585
-366.012
-529.686
-542.78
-510.721
-559.939
-479.02
-365.008
-368.748
-489.569
-513.586
-548.235
-544.374
-517.416
-481.29
-360.817
-360.614
-478.672
-478.154
-359.575
-361.515
-480.448
-518.511
-544.961
-514.272
-548.85
-424.046
-411.593
-360.391
-549.03
-517.63
-359.406
-360.883
-480.754
82.5057
-40.2082
12.5787
177.263
129.565
-39.7471
7.34618
75.0293
77.4799
51.6877
80.8015
55.4474
107.711
65.925
99.9285
85.2894
151.368
31.3461
106.756
110.921
17.181
-7.35764
-3.31273
20.4338
-21.361
-20.8322
18.2969
-19.0272
-16.9849
-206.222
65.7419
239.342
158.791
47.1888
125.255
32.6899
60.8245
3.63617
36.1159
90.5407
-42.3418
37.7758
-37.6898
19.3835
-60.7872
-34.2692
-127.451
-222.902
6.08045
-71.2018
-267.979
-0.896591
2.68133
26.2368
-8.86802
23.2895
22.2025
-18.7425
24.1584
33.7775
53.5304
46.2145
44.0026
36.9223
45.839
3.69763
31.2259
50.9099
0.00723787
39.3802
-15.4998
25.3119
-705.059
-495.076
-468.917
-824.607
-607.102
-467.982
-786.253
-519.314
-360.202
-438.423
-591.368
-553.748
-413.43
-422.773
-471.764
-574.14
-564.559
-510.559
-628.188
-280.495
-414.616
-507.822
-637.896
-475.619
-618.743
-391.472
-608.06
-560.801
-597.686
-577.727
-605.329
-640.707
-626.127
-619.908
-582.673
-595.946
-572.168
-601.805
-628.777
-617.958
-596.934
-646.373
-553.739
-594.752
-532.39
-605.821
-612.988
-533.291
-502.723
-628.473
-618.983
-471.34
-617.857
-511.333
-565.219
-639.864
-618.534
-592.05
-533.397
-550.566
-524.974
-553.969
-595.834
-599.779
-587.128
-609.995
-569.285
-555.512
-562.087
-563.198
-556.076
-577.601
-571.358
-565.921
-532.053
-522.894
-503.175
-549.662
-466.147
-450.535
-489.755
-468.144
-509.141
-523.873
-530.959
-502.351
-558.598
-537.121
-539.475
-560.368
-540.861
-546.551
-535.673
-547.991
-559.826
-547.169
-547.715
-555.594
-543.588
-543.748
-543.744
-546.053
-410.735
-428.754
-416.215
-423.797
-365.939
-362.267
-359.944
-363.507
-419.098
-425.694
-431.203
-413.248
-456.609
-448.158
-452.723
-451.931
-470.529
-484.82
-475.096
-480.131
-450.211
-450.522
-446.964
-453.787
-477.378
-481.56
-471.696
-487.491
-453.267
-455.628
-449.733
-459.595
-482.481
-483.902
-474.948
-492.011
-461.598
-451.931
-458.293
-454.889
-473.042
-490.234
-480.155
-482.688
-449.047
-448.787
-445.388
-452.854
-473.962
-479.275
-469.802
-483.858
-452.849
-446.206
-449.288
-449.127
-469.232
-483.754
-473.464
-479.256
-408.524
-419.367
-406.775
-421.358
-355.711
-356.85
-356.451
-355.76
-407.239
-421.097
-419.394
-409.229
-452.098
-445.403
-449.301
-448.174
-469.906
-482.578
-479.626
-472.889
-472.846
-479.534
-469.34
-483.048
-449.291
-448.318
-445.926
-451.544
44.9599
59.8386
43.2516
40.6221
41.8344
42.1032
58.5537
57.1942
50.5144
40.6386
72.1527
57.5438
53.5353
61.3809
39.979
32.3554
16.057
24.9485
35.4547
49.2287
19.653
24.7007
42.0831
20.8808
31.9068
27.2525
18.7707
26.1014
13.4801
17.1851
3.51322
1.20864
1.96053
13.1887
17.3392
24.15
41.9475
18.2562
29.5026
15.4195
32.6688
27.5581
17.4416
12.9594
30.3984
10.2173
21.9885
6.88728
27.9474
44.5334
61.0333
58.1523
47.5736
62.7295
47.0164
49.5443
50.6937
57.1865
75.1322
93.3299
41.9461
63.5597
56.2681
53.4366
48.4493
45.2227
41.364
38.6668
45.9901
51.263
57.6302
59.5518
75.1802
54.9097
68.7918
55.5391
59.7866
382.964
101.211
306.478
318.58
270.557
247.59
404.238
178.136
314.579
219.017
56.5665
105.311
408.542
102.628
-711.257
-189.127
-2718.16
-3135.72
-675.22
-1670.97
-1398.21
-1592.47
-1267.72
-1694.89
-819.693
-3571.56
-1690.21
-4084.76
-1640.74
-4941.94
-2167.52
-2076.9
-546.475
194.458
-1076.65
-447.949
-314.045
-888.852
-292.732
-140.072
15.9076
-355.779
-142.752
-300.103
-192.646
-766.183
-1304.25
-646.955
-869.867
-703.342
-1111.02
-678.27
-753.945
-1087.21
-1071
-576.234
-834.628
-1288.42
-25.6614
108.405
-106.704
-22.5277
-27.8154
32.1984
9.69586
4.76869
9.63826
-5.23786
-16.4265
7.30192
-10.2125
7.09334
25.4253
46.0619
9.10018
40.6181
23.8646
5.89368
28.7488
-41.4733
-152.464
-42.1248
5.37629
-59.3212
2.50015
-21.7237
-435.401
-319.516
-523.647
-221.181
-463.024
-804.823
-251.624
-321.698
-1605.56
-2685.94
-4149.81
-968.806
-2007.79
-1229.36
-502.126
-264.695
-1027.7
-965.778
-897.795
-700.175
-391.536
-494.612
-1005.94
-440.057
-1969.81
-497.683
-1692.58
-138.292
23.0851
-53.3468
86.9247
-163.109
7.84126
-50.4218
25.9367
48.735
52.0937
48.4466
52.6892
69.2688
35.7322
31.1739
-139.397
-47.6683
-298.516
-446.759
-362.733
-61.6003
-71.8066
-294.711
-373.099
-379.889
-283.195
-307.437
-367.949
-271.992
-103.64
-127.425
-66.9688
-99.2975
-132.172
-110.036
-148.293
-71.7723
-120.486
-139.173
-269.555
-351.518
-341.657
-248.241
-266.401
-343.427
-250.114
-91.3314
-123.584
-58.8862
-95.096
-120.303
-87.9981
-115.271
-56.5712
-85.4728
-117.511
-253.42
-339.62
-328.715
-236.861
-252.355
-329.207
-237.043
-73.8003
-103.952
-47.8721
-73.6264
-104.162
-73.7297
-104.006
-47.5451
-73.1874
-104.14
-252.573
-339.3
-327.912
-235.804
-251.129
-328.693
-236.344
-72.9648
-103.708
-47.225
-73.2849
-103.447
-72.2869
-102.312
-46.52
-71.2729
-102.964
-360.119
-161.061
48.2366
-248.106
-337.478
79.9053
-220.298
-87.1093
-19.2866
-17.9693
-217.478
-263.473
-361.507
-198.393
-637.47
90.5583
-70.048
-874.963
-48.6892
-858.845
-76.2747
-88.1918
-404.311
-137.443
-571.905
-201.644
-291.384
-133.8
-318.479
-235.032
-8.71597
-4.3258
24.3262
-75.9459
-35.94
39.8655
-44.3492
20.3842
11.0325
13.5826
9.58759
15.7527
37.1187
13.7857
30.8327
65.7942
22.9012
20.8407
28.43
26.05
50.3636
3.37719
17.0743
17.9926
-7.0088
50.7169
-21.7179
0.531681
-104.96
-789.847
-26.112
-115.826
-602.745
-83.9863
-160.074
-193.852
-227.705
-318.926
-279.281
-266.749
-460.802
-175.316
-189.169
-331.705
-289.983
-344.896
-291.316
-531.864
-224.316
-128.108
19.1681
-64.6017
-66.6686
-372.187
-109.851
-126.386
57.2662
-2213.72
11.2525
-658.637
-302.16
-647.955
-192.421
-567.513
-443.234
251.13
-138.035
0.67743
-237.443
-373.6
-633.542
-390.055
-1189.85
-1148.68
-1306.53
-982.498
-1277.69
-489.367
-876.435
-768.553
-1184.05
-618.4
-1281.56
-1206.52
-904.701
-531.24
-397.1
-796.576
-1048.24
-656.599
-892.483
-632.247
-644.599
-561.712
-691.687
-893.101
-1792.6
-603.28
-1002.34
184.812
-1736.89
-2024.32
-678.216
-766.298
-822.223
-793.162
-739.935
-729.397
-732.853
-571.107
-494.694
-531.454
-516.847
-578.128
-516.432
-522.858
-584.015
-633.19
-534.164
-553.987
-623.475
-632.188
-525.819
-1455.02
-1590.3
-1796.14
1715.94
-775.816
-401.792
-901.755
-662.862
-402.063
-860.78
-637.19
-539.547
-403.56
-546.565
-285.665
-447.371
-254.399
-480.987
-601.749
-472.048
-905.789
-540.989
-510.895
-342.704
-571.165
-532.056
-688.886
-588.807
-496.739
-660.013
-545.152
-494.119
-841.18
-511.97
-766.826
-503.428
-845.34
-773.42
-527.048
-853.906
-491.135
-781.122
-521.508
-848.397
-780.106
-510.215
-1131.68
-1335.91
-1335.29
-1179.92
-1289.97
-989.605
-951.648
-1339.79
-1332.98
-1179.04
-1167.32
-1295.92
-1551.79
-1528.59
-1556.14
-1545.25
-1455.5
-1421.8
-1498.36
-1533.37
-958.864
-971.692
-1203.16
-1372.38
-1340.66
-1199.49
-1360.47
-1340.49
-1192.74
-1371.38
-1197.05
-1360.22
-66.8982
-31.0721
-94.736
-98.3362
-62.5293
-32.6154
-94.4169
3.64415
0.115996
-10.4798
-10.9717
-3.51382
-1.50711
-16.0783
-21.4281
26.2979
-31.0557
17.0169
-21.7741
-26.3178
3.40472
-32.5678
-69.8178
-17.8343
-39.4376
-28.4061
-28.6808
-47.1082
-295.823
-283.54
-263.056
-252.156
-251.289
-330.339
-293.137
-416.279
-447.329
-460.339
-401.247
-453.189
-392.136
-424.303
-386.829
-343.43
-456.909
-448.457
-437.015
-381.158
-388.006
-353.76
-264.421
-361.104
-388.771
-327.983
-338.913
-377.149
-218.964
-149.042
-264.936
-191.686
-223.609
-176.757
-233.825
-257.375
-267.296
-158.263
-363.579
-209.012
-299.655
-241.164
-154.894
-104.103
-74.0292
-94.152
-130.785
-164.757
-120.308
-324.381
-340.167
-435.369
-399.405
-384.838
-305.052
-338.959
-155.444
-182.625
-45.6212
-231.097
-11.5952
-316.658
-116.118
-219.811
33.9054
-6.45484
150.24
-187.227
-327.195
-213.865
14.8395
81.1282
3.66743
349.888
380.814
-11.0513
-288.128
-937.666
-318.705
-916.29
-8.02342
295.987
368.557
-52.2058
-270.994
-874.891
-266.624
-901.67
-86.8792
-85.2929
59.1462
-238.56
-322.048
122.176
-199.393
192.326
-34.0651
99.4524
195.061
-180.206
-289.797
-164.331
94.1843
229.084
-79.2712
280.369
204.045
-14.5792
-280.832
-704.429
-288.138
-759.277
-67.1601
44.5185
-126.219
100.794
-275.935
-849.197
-269.617
-811.428
-538.566
-563.912
-565.907
-510.579
-521.132
-550.325
-535.975
-618.746
-583.497
-712.548
-667.591
-602.638
-510.303
-453.821
-582.064
-432.594
-515.21
-521.532
-358.455
-718.986
-512.634
-448.89
-655.198
-867.69
-1955.91
-5033.68
-1927.21
1190.98
-714.028
2596.74
-1490.28
-307.507
-757.666
-581.954
-589.557
-487.348
-658.729
-529.179
-332.162
-343.917
-272.163
-265.752
-337.432
-500.733
-355.55
-90.4073
-800.03
-175.096
-676.043
-616.918
-234.507
-438.949
-293.757
-347.979
-402.785
-603.599
-340.643
-323.323
-565.829
-298.132
-195.751
-446.645
-277.769
-283.12
-823.35
-1168.96
-773.674
-566.462
-886.808
-717.048
-757.63
-1062.44
-1306.35
-2489.33
-957.573
-1686.66
-880.223
-937.426
-1168.4
-1833.92
-1660.94
-5436.98
-1730.72
-1459.36
-1345.42
-897.394
-536.047
-653.757
-418.655
-540.683
-614.511
-804.322
-628.588
-525.045
-590.49
-569.74
-551.501
-570.069
-758.878
-665.561
-1124.79
52.0187
-835.519
-702.61
-424.512
-1095.06
-583.667
-605.993
-394.423
-658.194
-559.939
-573.801
-549.313
-542.408
-611.356
-558.961
-345.118
-665.572
-664.65
-425.295
-407.993
-703.49
-734.745
-224.766
-579.342
-562.133
-527.236
-537.831
-549.102
-539.597
-587.246
-685.018
-642.642
-695.083
-640.966
-648.065
-666.825
-639.827
-683.405
-677.067
-632.719
-666.662
-640.227
-654.034
-710.568
-659.925
-696.48
-538.221
-661.217
-647.931
-579.572
-597.917
-428.198
-509.537
-310.505
-508.138
-532.002
-625.989
-520.692
-582.435
-460.483
-597.604
-410.433
-602.514
-665.542
-661.293
-593.547
-626.986
-527.679
-625.145
-524.794
-607.397
-652.113
-600.077
-660.558
-618.448
-475.584
-606.949
-510.762
-411.074
-414.808
-390.169
-436.523
-402.227
-397.9
-398.438
-325.805
-417.039
-290.435
-377.877
-329.011
-399.94
-491.899
-655.105
-688.603
446.755
-752.54
-729.843
-298.047
-237.801
-190.969
-326.071
-576.518
-229.614
-35.3991
-566.246
-429.949
-397.607
-475.933
-423.472
-306.135
-385.727
-372.141
-420.1
-415.287
-373.247
-627.462
-390.104
-597.027
-500.113
-480.57
-506.823
-502.028
-527.359
-449.69
-464.913
-354.466
-516.059
-590.392
-242.87
-878.527
-524.224
-793.776
-589.253
-881.59
-782.052
-572.807
-903.245
-601.38
-804.032
-599.986
-898.192
-816.765
-610.615
-245.475
44.495
-57.7483
-371.293
-972.273
-373.5
-973.271
184.98
202.582
-111.866
-1147.59
-1287.6
-1608.11
-930.956
-916.179
-1147.8
-1303.36
-1279.32
-1146.02
-1273.94
-1258.95
-1149.45
-1298.73
-1144.24
-1266.03
-1500.18
-1512.53
-1493.8
-1512.43
-970.731
-975.767
-1193.05
-1324.58
-1327.43
-1180.52
-1290.96
-1276.26
-1152.65
-1315.15
-1165.98
-1263.37
-1572.11
-1597.6
-1559.14
-1524.16
-268.88
-243.46
-105.539
-265.455
-397.405
25.2051
-273.087
-87.117
12.4612
-116.841
-15.3754
-308.428
-409.669
-290.034
-137.685
1.80742
-111.416
149.343
152.028
-110.992
-369.841
-945.774
-355.571
-953.158
-110.092
177.399
-84.2041
155.774
-372.084
-960.887
-373.952
-955.883
-311.32
-324.283
-167.118
-285.233
35.7872
-411.703
-139.172
-308.795
-4.8166
-180.502
-25.7411
-319.25
-431.808
-321.082
-172.596
-28.482
-110.442
163.991
171.388
-111.427
-373.792
-970.605
-376.155
-967.44
-112.484
170.414
-112.78
174.522
-373.499
-962.679
-372.147
-965.877
-607.962
-621.638
-612.795
-614.996
-657.254
-623.708
-637.799
-637.012
-599.121
-596.128
-587.355
-605.353
-670.686
-655.053
-686.138
-646.197
-535.58
-553.393
-512.879
-563.944
-465.305
-375.113
-385.471
-487.899
-500.534
-409.452
-485.549
-386.857
-491.295
-550.398
-525.163
-523.995
-562.117
-559.434
-561.09
-565.954
-528.199
-546.504
-533.986
-544.389
-557.703
-556.683
-559.859
-556.779
-528.403
-553.415
-529.039
-545.761
-435.122
-460.506
-440.65
-455.708
-404.258
-420.555
-461.074
-491.496
-470.303
-481.348
-385.578
-385.971
-487.41
-469.356
-480.815
-476.338
-486.551
-509.094
-494.616
-500.376
-505.756
-500.75
-492.39
-514.936
-469.604
-476.541
-464.191
-481.335
-490.766
-489.795
-483.516
-497.68
-530.593
-526.305
-525.186
-536.808
-517.67
-515.555
-519.819
-511.02
-504.673
-524.294
-515.119
-512.225
-503.749
-559.223
-529.876
-535.13
-489.137
-377.03
-372.003
-466.87
-472.026
-368.916
-490.201
-374.846
-528.352
-527.259
-496.551
-555.614
-546.613
-539.487
-560.994
-527.201
-515.399
-526.115
-509.638
-532.807
-536.62
-513.655
-530.242
-518.993
-526.154
-560.11
-539.88
-544.643
-528.158
-562.356
-539.13
-549.19
-547.037
-526.616
-526.056
-543.124
-549.062
-532.601
-525.133
-560.98
-525.003
-536.664
-520.349
-542.49
-257.196
-343.492
-332.103
-239.552
-255.355
-333.174
-240.366
-76.9779
-107.649
-50.0714
-77.444
-107.311
-76.2272
-106.035
-49.3223
-75.2952
-106.721
-259.131
-345.596
-335.096
-242.201
-258.525
-335.576
-242.207
-77.7318
-107.882
-50.4719
-77.5032
-108.07
-77.5336
-108.275
-50.254
-77.5584
-108.137
-426.183
-430.991
-416.837
-439.008
-364.016
-369.503
-414.512
-434.644
-422.774
-427.843
-372.993
-367.025
-462.979
-469.824
-459.08
-473.856
-496.804
-491.299
-483.512
-505.7
-477.354
-461.798
-473.312
-465.711
-481.004
-502.689
-493.317
-489.557
-469.29
-456.231
-465.505
-460.234
-476.65
-494.701
-485.455
-485.681
-457.241
-461.617
-464.684
-453.717
-489.191
-487.776
-478.692
-498.735
-531.557
-543.374
-549.511
-525.115
-509.652
-505.502
-500.108
-515.415
-517.026
-500.846
-507.315
-510.237
-524.723
-548.301
-542.783
-530.301
-515.396
-553.609
-522.808
-546.512
-486.529
-364.642
-363.659
-480.78
-480.379
-362.234
-485.039
-365.108
-524.718
-547.061
-555.086
-515.894
-525.974
-551.704
-533.462
-543.78
-520.967
-503.442
-511.909
-512.486
-511.472
-509.711
-501.955
-518.94
-535.49
-544.629
-553.576
-526.976
-526.41
-558.759
-542.65
-541.755
-530.804
-507.625
-514.039
-523.454
-543.358
-541.344
-559.675
-526.061
-513.863
-520.67
-506.357
-528.748
-527.287
-545.669
-513.984
-557.526
-480.627
-363.597
-366.654
-487.845
-488.76
-366.742
-479.939
-365.57
-515.24
-556.845
-526.317
-546.078
-538.933
-543.211
-526.597
-556.881
-512.68
-514.406
-504.318
-523.261
-525.816
-505.306
-517.252
-513.36
-526.462
-555.389
-537.534
-543.591
-523.645
-546.081
-541.646
-527.817
-513.881
-499.639
-504.246
-509.586
-508.869
-503.488
-498.93
-513.1
-528.824
-542.466
-546.911
-524.542
-516.547
-544.804
-513.784
-547.304
-478.359
-358.92
-360.069
-479.704
-479.834
-359.887
-478.111
-360.41
-514.41
-547.351
-544.994
-516.689
-527.517
-542.013
-523.568
-545.196
-509.316
-503.372
-499.74
-513.378
-512.957
-498.972
-503.038
-508.59
-524.411
-545.638
-542.546
-528.105
-409.457
-424.912
-412.016
-421.921
-357.421
-357.128
-409.937
-420.334
-408.824
-422.37
-358.098
-359.569
-450.228
-453.986
-484.288
-474.128
-451.85
-451.793
-448.247
-455.829
-474.259
-480.358
-470.85
-484.111
-453.129
-447.043
-449.933
-449.564
-472.179
-486.513
-476.367
-482.265
-516.171
-548.942
-517.342
-547.099
-479.93
-358.962
-359.973
-479.037
-479.818
-359.508
-480.299
-360.392
-516.964
-545.941
-515.338
-547.882
-546.734
-528.358
-503.86
-513.535
-526.794
-547.153
-544.709
-529.446
-514.005
-500.839
-510.883
-504.474
-528.628
-543.747
-525.755
-546.201
-512.112
-505.963
-502.057
-515.126
-45.7975
54.9005
-494.285
-57.4877
-332.509
-987.899
-1236.12
-628.551
-1149.65
-1198.44
-913.125
-1066.34
-1534.25
-1481.14
-1459.06
107.871
145.922
-567.069
14.1854
-389.528
-112.206
42.2182
-978.221
-483.762
-782.345
-685.352
-135.251
-1384.48
-1405.34
-1542.58
-1493.19
-1377.53
-1489.28
-1408.12
-1319.78
-1375.09
-1197.35
-1487.13
-1208.19
-1321.04
-1446.81
-755.266
171.366
-1505.57
17.7408
-550.359
-1303.71
-35.3428
-1432.18
-1428.29
-1480.15
-1553.2
-1429.66
-1472.61
-1436.79
-1442.3
-1514.2
-1471.1
-1583.88
-1452.89
-1488.92
-1454.49
-66.4084
-541.901
-158.944
-740.121
-99.6521
-163.678
-601.512
-1379.24
-1419.05
-1241.43
-1479.98
-1267.79
-1409.94
-1623.79
-1946.53
-896.991
-1206.06
-583.14
-1130.98
-1428.57
-2043.09
-1645.17
-1618.14
-1442.07
-1525.94
-1629.65
-1545.51
-1626.41
-1656.36
-1538.3
-1629
-1442.31
-1636.17
-1641.27
-1551.1
-1579.16
-1525.93
-1452.16
-1357.39
-1527.46
-1516.46
-1479.31
-1577.28
-1528.55
-1389.91
-1601.53
-1553.69
-1494.9
-1628.87
-136.711
-486.736
-2318.12
-994.224
-1830.12
-1028.18
-399.858
-534.337
-394.012
-3711.59
672.734
-1205.62
-639.952
-1258.39
-1687.61
-1549.47
-1674.42
-1581.4
-1599.09
-1506.34
-1409.34
-1601.37
-1587.68
-1486.43
-1574.6
-1483.86
-1401.99
-1592.15
-1581.27
-1474.41
-1582.48
-1642.38
-1673.1
-1432.54
-1536.89
-1653.07
-1658.53
-1522.8
-1620.49
-1490.07
-1419.36
-1608.87
-1633.31
-1507.77
-1601.14
)
;

boundaryField
{
    left
    {
        type            calculated;
        value           nonuniform List<scalar> 
598
(
-459.033
-90.1245
18.4282
-347.304
-479.392
-340.646
-503.374
-129.86
-628.028
-287.052
-583.257
1.99604
-251.848
-595.117
-341.061
-346.832
-426.51
-421.605
-548.089
-426.757
-420.756
-951.749
-34.3329
20.3805
-575.653
-627.593
-385.619
-406.439
-491.86
-486.337
-607.313
-550.587
-485.245
-484.799
-234.922
-1176.99
-14.3254
-35.1112
-809.379
37.2004
-11.2523
-0.30121
-354.195
-357.501
-339.159
-339.188
-533.299
-507.002
-544.239
-508.974
-552.224
-343.738
-525.862
-454.877
-665.148
-582.739
-499.301
-4.23171
-270.96
-187.494
-444.797
-300.232
-35.1836
-411.128
-524.08
-344
-344.5
-502.63
-494.241
-425.245
-524.615
-529.873
-518.531
-523.018
-424.455
-431.957
-552.149
-647.259
-531.98
-546.692
-428.496
-536.681
-506.064
-419.59
-517.111
-517.534
-518.039
-419.729
-485.741
-300.38
-530.465
-532.569
-414.979
-413.203
-518.319
-509.125
-412.094
-411.476
-58.0318
-70.0257
-18.1523
24.7266
36.3961
34.4296
-349.199
-52.6938
-52.5746
-124.078
-56.0561
-404.743
-339.473
-51.3451
-51.8423
-51.5491
-340.179
-554.733
-410.28
-165.584
-31.5865
-284.966
-220.355
-313.899
-372.073
-366.477
-673.17
-661.957
-595.789
12.9875
-87.0234
-57.7197
-316.671
-221.277
-134.142
-710.566
-637.63
-342.536
-51.7596
-51.8031
-52.7296
-52.1928
-346.171
-431.615
-428.742
-426.318
-538.945
-538.741
-534.563
-535.596
-422.619
-494.032
-602.629
-653.39
-538.064
-537.527
-427.431
-437.515
-433.952
-420.248
-532.935
-533.624
-535.011
-420.356
-415.766
-152.744
-199.098
1.8998
-27.8789
-89.5352
-155.581
-0.300519
28.1426
-531.494
-520.042
-605.733
-569.638
-559.624
-587.325
-586.433
-626.83
-522.916