/*--------------------------------*- C++ -*----------------------------------*\
| =========                 |                                                 |
| \\      /  F ield         | OpenFOAM: The Open Source CFD Toolbox           |
|  \\    /   O peration     | Version:  2012                                  |
|   \\  /    A nd           | Website:  www.openfoam.com                      |
|    \\/     M anipulation  |                                                 |
\*---------------------------------------------------------------------------*/
FoamFile
{
    version     2.0;
    format      ascii;
    class       volScalarField;
    location    "0.104/solid";
    object      sigmaHyd;
}
// * * * * * * * * * * * * * * * * * * * * * * * * * * * * * * * * * * * * * //

dimensions      [1 -1 -2 0 0 0 0];


internalField   nonuniform List<scalar> 
3124
(
223.743
-51.6608
-33.7776
306.041
222.167
217.582
-51.6931
346.384
730.654
81.639
322.91
-51.0745
403.124
371.428
112.947
761.27
349.03
274.781
217.874
221.827
271.441
274.598
270.886
-59.6347
-190.95
-150.976
320.722
179.563
417.587
681.468
158.509
286.112
385.737
347.907
301.39
972.306
373.482
339.471
299.765
303.179
299.094
298.809
-58.8722
-51.5891
-134.937
-148.649
-96.4931
-54.4249
-955.478
-143.407
229.43
227.159
216.538
216.509
65.5038
-49.6532
108.587
97.3451
310.424
535.631
133.205
415.917
647.308
931.729
354.324
836.582
373.839
306.503
1121.58
1068.17
-29.3649
258.781
121.374
88.0169
71.8219
309.897
-1224.44
270.456
310.101
373.732
406.828
274.626
350.268
273.155
423.67
345.487
335.745
773.039
934.14
407.718
459.484
962.834
421.141
151.252
1195.69
1111.29
1175.22
142.667
162.246
395.904
278.513
340.049
312.087
330.919
276.052
326.632
336.387
219.831
220.179
309.897
304.661
317.948
273.256
320.752
325.212
273.767
321.782
317.335
270.116
317.063
299.376
270.19
317.618
-150.762
-75.2253
328.733
327.004
319.414
313.767
253.457
254.559
252.765
252.392
-74.9355
-47.1537
-73.9231
-80.9188
-83.8143
-64.7188
-62.537
-191.567
33.582
-11.2033
-54.3402
46.4747
54.3056
-9.15649
101.718
260.519
54.3787
223.452
29.4999
30.3138
26.2297
217.224
25.0145
216.58
22.5999
-171.008
-13.4488
-85.7451
-84.7338
-98.9683
-40.5273
16.4298
564.18
359.094
419.377
333.221
65.7191
193.27
20.5868
162.756
-45.0957
210.552
84.3892
123.085
345.047
233.437
-11.3372
41.573
-191.97
-17.7801
-378.238
-12.6459
-186.054
408.369
373.619
400.972
218.688
166.743
210.804
124.146
276.096
49.4484
214.688
395.677
315.882
365.194
266.647
269.081
275.22
325.408
325.283
26.2138
218.795
25.8472
29.5648
221.288
27.6176
265.011
263.149
322.811
272.098
323.454
325.662
274.445
325.69
322.24
270.552
321.827
255.029
270.519
322.967
-218.702
-211.949
-104.38
-117.126
-156.003
-113.438
-269.838
-213.186
-536.226
-123.747
-337.852
-62.7182
-223.299
-263.916
-124.828
-142.869
-158.289
-319.359
-115.824
362.314
644.848
243.074
188.718
316.292
354.629
359.433
298.295
126.376
177.405
220.015
275.084
257.866
239.319
320.406
325.869
361.997
384.578
360.633
337.726
373.828
353.359
729.153
257.433
523.349
350.272
357.59
339.385
313.352
321.369
347.204
334.95
340.211
257.325
255.836
280.484
300.87
281.661
284.266
302.012
282.915
279.778
298.857
279.509
252.351
252.258
298.76
279.439
279.395
-88.044
-50.2911
-85.3685
-101.406
-135.653
-71.028
-59.7921
-81.7904
-61.8823
-27.4042
-80.141
-127.394
-58.3087
-68.0662
-98.5435
-274.918
-111.214
-115.349
-138.534
-166.255
-87.9708
-689.261
-67.7888
-430.688
340.737
466.781
-300.514
-86.9408
123.315
-403.967
91.5337
-200.279
-37.0227
-27.7711
-107.361
-140.146
-5.51221
-90.8641
-199.319
-130.575
-773.196
105.766
-260.655
530.695
14.2327
-235.928
-306.734
-147.496
-5.25506
-189.799
-241.831
-138.314
246.858
37.5577
49.7767
224.122
35.9785
30.9854
217.059
24.958
24.7584
216.597
24.6847
23.008
6.32091
192.98
382.664
37.7581
71.5293
170.952
-110.567
52.4817
171.548
-154.247
-76.6061
-26.8475
-50.3095
-75.6169
-63.4546
-65.7077
269.461
111.671
106.787
18.2953
239.437
-70.8289
36.183
257.522
139.148
-411.766
1016.42
702.573
301.322
823.198
217.309
385.232
216.326
489.227
350.001
286.506
318.782
302.856
362.664
382.52
893.096
1850.04
546.935
530.632
-4.22947
154.79
250.325
577.704
307.388
238.978
449.172
688.181
362.254
217.667
429.125
713.639
194.905
486.153
293.286
742.243
211.36
731.086
188.047
497.403
991.559
1039.8
1129.22
1052.94
1048.65
968.284
1062.52
1030.5
1052.98
1051.19
60.9662
-15.0542
-21.0498
-1.85853
-79.8255
-9.84693
34.7008
117.704
208.882
257.446
238.827
244.157
213.674
159.732
105.588
50.7341
53.3915
195.395
-5.85037
246.071
112.886
-16.7793
-48.5446
94.3897
55.2551
63.1881
-21.9786
-87.6269
-2.52154
66.3734
103.48
347.944
429.684
284.036
-103.056
-622.878
-10228.7
-182.763
-420.19
-2807.7
-477.948
299.512
94.5069
542.634
86.8911
-29.0972
221.913
348.859
5138.67
-148.014
422.606
407.522
404.469
411.831
394.799
361.753
382.696
386.105
418.104
403.037
410.33
359.024
315.978
375.84
387.649
338.209
387.98
238.792
243.792
268.257
294.325
270.706
274.159
255.78
273.788
270.43
267.728
139.161
228.563
265.141
321.518
310.063
361.472
273.958
541.835
381.252
731.783
278.077
532.571
738.825
296.775
537.054
431.368
747.083
283.814
527.061
743.54
304.52
32.904
150.525
1008.86
1055.69
1006.5
1005.73
1045.35
1115.22
1032.95
1042.37
1005.85
1049.44
1142.99
1036.98
54.0648
82.3031
127.398
166.985
162.255
47.0052
93.1988
163.929
169.335
172.357
408.817
374.043
382.346
290.194
323.785
336.546
352.378
339.737
354.107
291.233
275.316
294.303
315.737
297.978
319.329
321.965
305.283
275.583
323.47
324.852
336.89
329.133
337.776
338.614
332.885
338.828
219.161
27.4495
26.0634
220.997
27.4159
27.3947
259.047
261.072
292.051
308.182
290.083
285.968
306.417
288
332.062
318.721
332.697
272.71
324.823
324.143
319.699
334.372
333.512
336.512
324.119
336.16
274.189
325.245
325.481
322.927
334.951
335.502
331.485
316.911
331.014
270.305
321.693
321.644
316.811
331.121
330.885
252.923
253.882
301.441
282.19
280.012
300.398
281.07
270.391
322.005
322.457
319.262
332.911
331.588
318.331
332.14
239.291
232.136
313.878
292.015
261.074
295.446
215.315
162.012
215.344
222.677
149.644
216.357
160.875
150.106
155.081
144.95
209.391
217.692
154.837
209.851
144.874
302.37
250.066
334.304
333.307
279.021
348.801
267.567
322.053
356.134
435.741
361.284
345.537
320.108
364.049
155.681
145.117
209.7
218.356
154.915
210.552
145.38
160.306
214.748
149.274
221.872
160.458
214.983
149.018
386.001
561.376
307.988
278.626
237.183
415.574
390.462
416.667
178.902
282.023
367.356
311.099
511.681
301.339
428.374
-961.62
-2233.88
179.513
232.876
226.697
159.419
174.96
230.697
163.059
169.026
225.96
223.532
156.834
171.536
221.963
154.966
154.015
216.908
208.074
143.783
153.356
208.871
144.015
153.497
216.747
207.97
143.653
153.151
208.506
143.623
-31.2117
-47.2349
677.23
631.708
434.724
493.827
374.877
298.32
428.233
555.391
316.419
429.993
326.438
564.675
319.405
536.48
278.52
452.006
744.17
711.998
722.871
706.922
88.978
55.2516
8.28999
-88.4286
412.427
335.317
268.221
320.281
334.679
400.824
353.577
3.52118
176.947
409.811
349.085
431.575
87.8449
291.538
318.414
332.399
299.661
331.138
308.064
308.969
354.079
451.405
354.281
523.368
320.255
446.639
531.795
330.385
496.673
443.759
569.012
359.788
489.143
589.918
387.792
7.15689
630.968
651.132
660.101
775.933
740.444
40.7095
65.1473
115.059
144.271
157.252
219.88
211.862
146.888
157.139
212.239
146.728
158.225
220.648
212.313
147.138
157.384
213.169
147.437
-192.118
-200.235
-227.626
-189.797
-164.353
-255.228
345.971
330.412
308.223
360.584
292.369
307.392
312.214
280.732
320.972
357.294
342.921
339.497
303.405
336.544
316.32
326.294
300.198
292.116
285.983
307.589
326.192
333.756
316.472
336.074
260.193
269.16
257.951
271.258
231.386
232.93
233.796
232.613
257.045
269.786
259.286
267.95
256.013
268.795
267.105
257.851
231.826
231.25
230.477
231.663
258.204
267.379
256.824
268.969
-74.2675
-65.8808
-73.3813
-72.5056
-74.4766
-74.6475
-76.5908
-65.1396
-44.429
-112.707
-76.9726
-72.6923
-101.955
-46.002
-75.3109
-65.4228
-82.1588
-106.465
-83.465
-69.9768
-87.1902
-64.4751
-74.7992
-51.3598
-70.4383
-62.0075
-89.1216
-48.2335
1.84596
21.9468
-18.3764
-25.4567
57.1596
-36.9232
18.4994
8.23993
114.164
-9.60934
-11.4526
4.90992
17.7745
-13.9473
-19.4263
191.286
-64.283
-77.2838
-66.5514
102.029
25.1694
116.943
147.963
79.6176
141.834
130.821
221.625
272.747
259.566
186.285
274.05
205.672
199.131
104.287
65.9677
105.391
90.1374
116.323
162.632
223.21
217.46
151.148
217.215
163.141
150.605
55.3959
73.1304
28.8499
55.2092
73.3658
55.5645
74.4416
28.8271
56.5784
73.7313
49.6514
68.8495
24.8747
50.3368
68.5447
155.029
217.568
209.079
144.311
209.776
154.036
144.656
49.033
24.1669
67.8833
48.7542
68.1784
207.79
142.966
152.196
45.7947
65.9575
46.1594
-45.4809
-85.5963
-22.5045
-95.7046
18.9572
-50.9973
-89.7448
-70.3763
-40.851
-119.148
-80.0288
-69.6563
-116.428
-32.3387
-89.0784
-143.541
-77.0562
-119.067
-79.71
-98.331
-140.049
-41.5132
5.52973
26.4452
-85.7063
27.4034
-98.7628
-19.0156
352.005
998.752
446.877
445.616
472.642
253.422
406.247
68.9771
-20.5485
118.396
91.3891
87.9545
75.6326
90.8477
109.966
72.2866
74.2485
290.968
84.2945
98.7241
130.232
21.9433
-74.5851
27.3662
17.9188
20.3985
72.6342
29.9618
162.955
117.266
237.655
173.523
165.439
106.104
163.921
193.727
167.61
155.848
156.191
191.58
323.565
342.819
367.334
300.087
365.923
339.657
285.929
224.109
191.37
245.62
260.536
218.703
-98.1281
-313.801
-15.729
-120.531
-240.348
-91.2994
-120.232
-64.2497
7.23334
-17.809
-36.1138
-40.6728
-12.6699
-100.914
-184.072
-226.599
-180.782
-101.777
-132.563
-181.489
-212.849
-3.96372
-20.3143
-56.0779
-0.387873
16.3396
-150.268
-39.8301
449.303
415.727
456.414
397.741
393.719
343.024
362.004
422.811
426.523
364.84
366.32
378.203
412.297
463.999
452.019
431.043
138.076
101.931
274.126
60.9558
140.789
99.8123
189.001
212.613
251.432
283.577
205.94
205.228
246.109
220.786
148.372
132.382
53.0784
95.2176
110.576
186.853
146.947
373.569
405.302
400.003
385.439
396.833
341.049
309.176
384.575
351.052
274.058
301.007
356.093
429.595
429.226
406.438
445.194
274.829
282.752
267.238
288.97
241.555
247.25
247.334
242.703
266.038
286.661
274.428
279.892
348.543
355.43
334.002
368.365
310.807
239.464
242.531
319.515
320.08
243.601
241.409
310.171
335.004
368.245
348.201
356.333
49.8697
68.9199
25.0611
50.233
68.8378
155.965
218.774
210.75
145.643
211.054
155.546
145.566
49.5426
24.6967
68.8972
49.7396
68.7887
54.0026
72.8089
28.0409
55.0725
72.2529
159.953
221.682
213.882
148.117
214.662
158.723
148.604
52.9694
27.1251
71.1404
52.433
71.6291
264.194
282.3
271.082
276.511
245.731
241.196
272.973
278.28
265.822
284.509
239.415
244.024
342.114
359.175
362.41
338.369
311.737
235.163
236.625
313.73
314.583
236.737
236.629
312.101
338.056
361.54
341.353
358.486
337.281
367.618
358.436
347.224
319.307
240.896
311.48
239.419
348.019
357.59
336.294
368.038
312.182
238.538
241.015
318.617
337.331
360.16
357.815
339.699
312.939
235.393
235.257
311.308
310.998
234.491
235.818
312.317
340.386
358.219
337.804
360.524
269.668
258.772
233.252
360.104
339.24
233.748
234.59
311.917
-156.561
-38.0968
-152.226
-277.692
-224.535
-76.7454
-79.3974
-161.234
-188.542
-142.108
-150.869
-163.951
-196.228
-136.6
-189.943
-263.034
-278.179
-134.927
-251.235
-217.299
-97.168
-256.402
-247.041
-269.461
-213.834
-224.242
-277.942
-234.305
-264.343
-151.386
-353.706
-537.084
-459.334
-335.35
-435.245
-298.946
-291.618
-301.26
-306.53
-384.131
-270.229
-321.878
-250.093
-338.696
-204.325
-178.947
-167.978
-62.8994
-250.958
-185.356
-50.6385
-198.081
-186.633
-254.304
-205.128
-225.497
-191.23
-211.961
-190.103
-178.301
-189.285
-161.466
-208.309
-177.51
-185.439
-239.827
-288.56
-340.636
-293.938
-277.144
-250.944
-296.448
308.637
321.12
201.217
498.367
189.528
252.983
550.442
229.697
184.713
205.138
352.667
194.487
206.918
176.799
275.637
363.804
357.096
305.616
416.701
68.7691
243.595
332.517
402.932
251.295
389.356
201.784
386.031
350.672
379.97
361.271
384.274
409.513
399.039
395.02
368.116
378.705
361.331
382.353
400.665
390.681
376.097
412.824
336.942
376.406
322.506
382.542
387.004
310.107
286.403
397.278
390.122
257.878
389.866
287.048
348.413
406.213
392.203
366.878
340.787
350.715
334.614
353.958
379.776
385.326
375.852
389.879
361.703
354.419
356.956
359.631
356.314
371.649
366.062
364.173
336.781
332.561
318.342
349.932
298.961
289.969
315.126
300.971
320.739
333.34
337.172
316.789
357.682
342.459
344.828
357.858
346.27
352.345
344.741
351.802
359.378
352.208
350.59
358.778
346.942
346.88
346.326
348.947
258.665
273.039
262.11
270.015
237.125
234.907
233.32
235.57
263.957
271.165
274.667
260.223
291.537
285.761
288.556
288.706
301.707
311.714
304.711
308.66
287.458
287.234
284.832
289.839
306.09
309.754
302.624
313.32
289.499
290.312
286.674
293.326
309.353
311.116
304.505
316.251
294.726
287.978
292.086
290.437
303.405
315.019
307.779
310.406
286.782
285.944
283.905
289.016
303.878
308.048
301.173
310.972
289.13
284.327
286.343
286.737
300.942
310.834
303.482
308.143
257.222
267.239
256.248
268.371
230.541
231.468
231.04
230.777
256.315
268.257
267.08
257.692
288.607
283.948
286.935
285.593
301.186
310.099
308.185
303.134
303.144
308.316
301.015
310.427
286.769
285.7
284.103
288.271
-87.1052
-103.208
-88.6648
-80.0643
-82.3008
-91.1102
-100.091
-106.562
-110.636
-118.462
-132.851
-120.086
-114.254
-109.501
-76.8394
-73.0333
-59.031
-74.6396
-70.5191
-92.3803
-65.4145
-77.7129
-94.8043
-60.9886
-81.5828
-75.0218
-63.9826
-82.905
-59.711
-54.6904
-46.4079
-28.4274
-39.3011
-60.3858
-54.0473
-83.5934
-107.235
-78.861
-104.762
-67.3967
-99.4845
-91.4851
-61.046
-49.1454
-71.0271
-38.7654
-65.305
-42.2618
-65.1599
-114.842
-111.801
-113.483
-99.3648
-125.591
-106.417
-109.886
-161.837
-223.031
-201.392
-225.764
-178.265
-168.381
-191.393
-146.461
-119.713
-161.303
-138
-156.151
-137.115
-125.791
-142.155
-134.148
-187.83
-140.669
-150.215
-127.249
-158.007
-660.269
-608.975
-479.312
-583.361
-525.956
-502.027
-506.549
-469.256
-558.023
-471.755
-389.154
-397.781
-541.576
-475.155
-288.547
-528.137
430.285
1717.19
-1700.43
-78.1801
-187.643
-146.538
-511.056
44.757
-1167.76
1089.76
63.3171
1613.82
54.8583
111.424
110.624
-130.233
-452.725
-703.207
43.7397
-361.928
-439.765
-303.649
-291.242
-196.043
-347.66
-159.28
-205.821
-273.274
-272.663
-141.757
213.869
-76.3124
-149.673
-135.378
-176.266
-75.6431
-366.593
-37.2736
-369.167
-337.817
-487.619
71.7912
-93.4548
-269.352
-23.7308
-150.214
-102.706
-146.836
-155.501
-77.5599
-51.2634
-50.4365
-36.7278
-62.0744
-57.6202
-63.2321
-127.19
-183.117
-86.1369
-132.586
-100.037
-102.237
-153.785
-43.7947
39.7896
-34.3945
-64.0882
-44.2646
-84.0704
-39.3099
-53.3583
-125.341
51.2412
-66.6666
69.1187
182.084
-124.714
-52.9666
-1687.54
1118.53
1718.81
37.6127
754.641
-535.148
-11.8892
-379.262
118.369
28.9487
-61.2642
-205.885
2.35651
16.3393
452.975
50.2514
1194.28
76.2643
847.158
-140.498
-218.125
-179.705
-277.243
-197.915
-178.716
-251.646
-288.925
-212.665
-239.535
-204.856
-161.481
-190.881
-259.072
-179.588
-144.403
-372.081
-188.33
-175.035
-129.047
-307.612
-216.066
186.187
239.653
245.868
176.054
194.964
238.096
168.66
72.1171
83.6811
39.4444
69.0162
86.7887
76.89
97.565
43.0158
84.8184
91.4748
166.959
225.001
218.658
152.114
164.594
220.246
153.403
62.6377
81.1243
33.2832
65.8006
78.8604
59.8699
75.5296
31.3658
58.1577
76.9543
154.371
217.125
208.874
144.127
153.792
209.214
144.134
48.5647
67.6467
23.9358
48.8548
67.6543
48.4002
67.682
23.597
48.4082
67.6249
153.476
216.854
207.927
143.145
152.491
208.604
143.474
47.7865
67.4439
23.198
48.5415
67.0598
47.0698
66.2607
22.4108
46.6118
66.6407
145.23
3.25353
-196.286
59.705
49.1254
-226.828
60.059
-89.823
-168.32
-136.192
-78.9843
14.1797
86.3724
34.6723
218.371
-276.645
-12.1063
199.24
-94.1735
345.814
-54.2609
-41.8463
-38.7121
80.2821
255.095
45.7464
-6.15724
19.3351
100.928
80.932
-63.3047
-104.043
-123.972
-46.1075
-58.5471
-115.906
-55.4085
-55.3014
-43.0594
-38.3966
-38.5853
-49.6212
-65.9423
-46.4497
-77.5293
-126.688
-69.7726
-54.1465
-88.9406
-64.4761
-94.9925
-53.0016
-95.2971
-57.013
-35.2871
-98.3924
-51.1417
-37.0956
-44.1663
289.203
-119.061
-42.4717
234.889
-52.1677
12.2287
66.6127
117.184
140.609
117.108
123.527
193.224
79.5718
51.0267
14.2715
54.8701
106.891
116.776
198.814
77.2359
-4.65593
-112.08
-22.5142
7.06162
123.508
0.293771
34.9185
-347.113
1287.56
-196.3
207.106
-29.876
169.664
-136.988
152.565
116.591
-376.231
-158.954
-251.384
14.3496
42.0753
458.081
43.5971
963.812
841.758
1096.05
717.041
984.095
-40.7906
639.696
121.736
847.671
271.226
1017.07
979.4
580.47
-299.622
-780.618
332.716
573.759
-620.54
524.211
372.065
223.237
15.5045
341.66
380.194
933.953
376.8
540.769
-1777.08
1101.13
112.055
365.837
410.607
436.079
398.304
371.576
408.791
383.563
325.482
289.765
310.158
296.122
336.422
298.545
304.376
315.437
346.702
302.649
308.409
353.045
332.583
293.485
667.378
1469.52
1170.11
-3749.67
401.637
-316.855
512.527
240.232
-114.542
454.747
289.848
283.28
240.443
110.28
-47.3347
249.635
-223.728
251.108
350.861
-58.5959
430.337
277.814
272.95
-194.013
341.591
217.066
363.042
334.304
252.583
310.299
249.707
241.271
422.168
346.409
521.784
267.949
421.785
530.854
296.81
413.062
300.761
527.34
265.948
409.031
523.83
251.517
886.106
1094.54
1036.01
947.521
1079.49
724.304
687.581
1111.57
1029.64
936.248
920.745
1077.67
1305.97
1289.21
1318.86
1305.42
1256.86
1151.95
1250.88
1324.61
680.463
691.049
953.321
1055.83
1103.75
944.506
1118
1106.33
936.832
1054.41
940.184
1118.88
25.9326
-14.1835
53.1908
43.0093
18.1914
-3.13066
43.1861
-30.9187
-30.4047
-36.9622
-17.0299
-34.9738
-28.7436
-21.3141
-12.599
-81.5069
-18.262
-75.1179
-19.6153
-16.4561
-55.8561
-1.34351
37.555
-14.4474
-3.69563
-7.63969
6.71146
8.18769
166.408
161.896
154.942
147.608
146.033
193.238
164.567
246.328
259.923
268.548
236.861
260.717
228.502
251.725
222.887
194.294
260.208
246.14
241.517
219.305
224.133
206.495
153.781
207.581
232.307
197.06
198.469
218.379
114.993
86.1789
151.537
106.177
126.92
100.006
123.483
130.224
140.999
76.214
179.225
111.763
130.575
129.68
70.7326
55.3824
26.2595
39.1309
55.3189
89.5382
56.6639
177.422
193.235
233.799
202.348
187.404
169.411
186.703
-22.7165
8.947
-87.6218
38.8273
-141.3
-0.335527
-32.6722
49.4203
-160.36
-143.809
-268.091
-3.46774
-7.20629
31.8101
-172.42
-199.623
-272.97
-464.216
-489.414
-253.939
-124.252
287.31
-95.8189
270.715
-252.438
-380.328
-465.246
-198.674
-147.235
250.144
-139.638
260.046
-116.336
-121.786
-240.893
39.8401
-44.5596
-233.108
1.36713
-314.914
-132.195
-282.792
-322.428
-9.24367
-77.3438
-33.1313
-273.699
-352.427
-177.006
-397.776
-338.649
-254.578
-82.1051
195.901
-43.3441
204.285
-195.402
-203.536
-121.076
-249.195
-107.227
238.213
-132.149
231.545
368.213
346.04
383.684
319.555
363.89
366.776
326.965
429.515
320.251
423.525
397.889
369.046
344.096
280.821
337.25
303.052
309.732
-717.026
-377.091
-555.382
-266.17
-330.54
-729.857
-112.406
-277.485
-1158.46
-1171.13
-6019.66
-1627.59
-7903.59
-929.173
-141.594
459.037
250.27
118.685
117.325
416.738
76.8618
-14.0942
125.31
97.3255
37.024
90.1341
120.795
125.184
-380.998
506.023
-234.799
489.925
279.528
-126.603
175.235
106.823
-28.1044
119.23
393.921
-71.7926
-201.889
68.4539
0.930292
-299.84
85.6046
-290.101
-31.4046
150.524
198.878
312.865
2.82348
134.847
48.6292
289.057
167.834
316.723
1765.79
17.7957
422.643
174.729
-4.6284
-127.735
239.885
-1345.71
4330.48
-915.574
-196.462
480.233
218.286
-69.544
-162.379
-284.254
-90.7331
48.2296
-55.0233
282.886
283.001
427.922
351.045
351.472
305.858
422.988
329.941
633.226
-183.094
509.632
373.749
224.022
557.672
430.309
381.739
98.922
373.461
319.956
407.051
338.503
322.874
315.902
342.062
160.59
405.925
396.49
224.011
209.258
406.574
447.615
57.3655
321.257
391.496
327.316
328.283
334.009
327.903
339.887
444.552
415.451
450.703
413.799
418.673
429.542
411.349
441.424
437.618
404.382
429.223
411.506
424.651
459.554
428.001
451.878
351.351
433.059
429.954
373.931
403.264
191.323
374.948
123.665
323.364
367.359
414.977
345.035
383.907
271.985
385.416
249.964
382.718
430.236
426.771
378.679
401.5
312.582
398.511
312.977
384.417
417.736
377.416
424.97
396.879
285.901
391.563
305.643
249.446
252.106
229.01
266.712
239.224
235.604
241.809
115.867
272.572
160.549
226.487
186.914
209.799
290.68
334.277
458.75
-1001.74
442.829
341.859
177.205
109.84
-135.004
177.638
99.3073
-25.0552
-97.9957
359.689
229.321
227.064
279.317
288.682
167.321
238.648
221.092
257.754
226.904
190.251
384.876
203.721
366.165
287.889
327.987
317.104
304.012
303.961
275.911
284.477
187.297
309.975
370.004
87.3339
468.332
359.783
558.153
364.704
475.814
545.622
348.11
498.474
438.53
567.975
379.993
495.374
580.907
389.232
68.701
-141.695
-89.6941
-29.2498
323.822
-27.1408
324.24
-255.092
-272.153
-128.992
884.738
1058.72
1359.68
679.26
663.051
889.955
1005.16
1052.84
890.817
1048.12
1037.52
901.084
1002.08
892.697
1041.98
1257.91
1269
1251.29
1265.34
723.124
727.562
951.092
1090.88
1029.09
940.588
1064.47
1050.67
911.893
1018
925.465
1043.56
1326.23
1347.52
1308.96
1280.31
99.0299
72.5949
-42.8569
88.3337
65.5051
-121.471
91.9348
-58.5996
-111.533
-35.1294
-85.2671
128.719
81.8975
110.414
-13.131
-102.783
-130.487
-219.101
-219.308
-131.664
-34.4526
299.191
-44.3359
303.696
-132.348
-260.211
-159.118
-224.052
-30.3971
311.386
-31.0758
307.843
146.392
159.202
25.5335
90.8083
-136.885
75.408
-3.79852
119.096
-88.2992
38.1843
-71.3083
135.973
101.445
135.322
28.892
-68.2207
-132.713
-233.485
-238.474
-130.434
-27.6831
322.206
-23.3596
319.735
-129.338
-239.864
-127.529
-240.108
-28.834
314.511
-31.9819
317.449
397.962
405.208
400.003
401.851
424.713
403.996
411.097
414.528
389.985
386.443
381.017
393.672
435.978
427.676
444.48
423.079
353.89
365.145
339.18
372.468
305.996
247.385
253.474
320.336
328.903
269.447
319.37
255.245
325.039
363.45
346.83
346.144
368.19
364.941
366.364
370.082
343.73
354.724
345.522
355.028
364.109
360.448
363.663
362.163
344.859
361.301
345.236
356.948
273.507
293.331
277.649
290.02
260.663
269.706
290.19
312.019
295.044
306.287
248.35
249.135
311.334
299.586
306.651
304.524
312.342
327.42
318.452
320.97
324.508
322.523
316.254
331.221
300.163
303.86
296.185
307.433
313.398
312.334
308.195
317.717
340.298
339.133
337.076
345.184
330.235
328.284
331.666
325.65
324.139
337.039
330.407
329.952
332.841
368.074
348.843
353.577
320.502
248.243
245.113
306.76
309.321
242.24
320.215
246.345
348.578
348.867
328.684
366.408
356.178
351.051
364.039
344.397
335.199
340.908
330.692
345.891
348.534
333.568
343.701
337.81
343.319
363.128
350.784
354.669
345.592
365.256
351.522
358.006
355.837
342.17
343.28
352.258
358.521
348.005
343.833
365.254
342.171
347.838
338.281
352.356
157.079
219.619
211.19
145.95
155.928
211.991
146.401
51.175
70.3614
26.0473
51.967
69.9738
50.4361
69.1661
25.3009
50.1142
69.5249
158.492
221.008
213.403
147.764
158.24
213.665
147.65
51.736
70.5187
26.4131
51.9729
70.5124
51.5147
70.761
26.1493
51.9188
70.5452
268.363
274.719
262.751
279.483
235.903
239.466
261.072
276.902
266.335
272.589
241.43
237.967
295.814
299.322
292.715
302.421
318.56
316.27
310.291
325.111
304.791
294.515
301.678
297.601
308.657
323.07
316.221
315.084
299.543
290.956
296.573
294.076
305.71
318.076
311.326
312.364
292.04
294.257
296.77
289.226
313.609
313.895
307.18
320.565
345.928
351.997
355.772
341.978
330.752
327.539
324.061
334.422
335.323
324.692
328.606
331.211
341.667
354.985
351.453
345.241
338.64
363.736
343.311
359.337
316.472
238.045
237.443
312.865
312.585
236.395
315.415
238.289
344.539
359.774
364.69
339.036
342.519
357.182
347.144
352.275
337.996
326.233
331.62
332.639
331.956
330.128
325.326
336.563
348.559
352.82
358.401
343.201
343.193
361.976
352.076
352.613
344.455
329.317
334.197
339.09
353.734
351.487
362.689
343.118
333.937
337.219
328.442
343.003
346.349
359.14
338.07
366.336
312.861
237.492
239.398
317.379
318.061
239.505
312.525
238.846
338.667
366.003
345.711
359.2
350.75
352.311
343.231
360.552
332.883
333.294
326.88
339.539
341.137
327.707
335.038
333.513
342.943
359.704
349.957
352.243
340.914
353.468
350.776
343.432
333.355
323.667
326.637
330.605
330.168
326.089
323.31
332.733
344.192
351.236
353.987
341.503
339.124
358.059
337.429
359.558
310.95
233.996
234.734
311.781
311.976
234.661
310.853
235.039
337.651
359.554
357.985
339.164
343.247
350.971
340.84
352.913
330.37
325.961
323.662
332.894
332.638
323.353
325.802
330
341.299
353.077
351.118
343.616
257.555
270.214
259.094
268.504
231.592
231.531
257.966
267.592
257.257
268.872
231.89
232.811
286.431
289.296
310.664
303.41
288.203
287.42
285.384
290.451
303.809
308.53
301.643
310.865
289.077
284.678
287.055
286.305
302.443
312.108
304.844
309.662
338.612
360.22
339.249
359.191
311.806
233.955
234.527
311.298
311.681
233.984
311.82
234.725
339.139
358.614
338.25
359.643
353.268
343.183
325.769
332.448
342.526
353.708
352.329
344.014
333.176
324.235
331.248
326.502
343.802
351.821
342.094
353.251
331.839
327.187
324.91
333.585
-271.576
-416.564
-29.702
-300.917
-76.3138
514.617
704.604
216.074
608.205
676.555
422.36
526.28
921.481
788.736
755.066
-480.987
-509.363
-35.9142
-362.712
-254.655
-322.268
-778.985
-1268.14
-725.491
-529.63
-421.417
-440.687
711.978
756.219
923.329
902.588
737.504
894.06
727.834
673.37
814.249
629.571
886.46
611.461
704.143
866.692
-942.313
-1111.71
-1218.22
-1480.14
-1013.31
-1147.47
-963.113
754.121
776.244
903.2
938.569
749.469
902.487
780.915
757.855
914.957
788.732
949.654
757.312
907.617
787.473
-415.424
-51.4179
-269.341
-50.8778
-298.09
-371.931
-124.613
897.142
948.713
846.152
1169.08
788.643
1047.78
1354.46
1309.13
390.375
814.87
142.015
656.912
1084.25
1246.89
1327.54
1142.7
1054.41
1199.86
1143.72
1213.74
1313.85
1340.14
1209.83
1141.31
1053.81
1148.34
1328.91
1219.34
1284.86
1064.09
1144.74
999.299
1228.54
1063.4
1183.47
1277.65
1207.82
1020.42
1121.7
1085.42
1182.89
1328.17
-1292.11
-878.669
1305.32
-29.1981
572.46
-27.4234
-618.394
-1044.99
-1631.17
1135.55
-3135.43
-999.757
-1422.4
-39.8824
1179.85
1197.65
1342.58
1274.7
1130.88
1183.7
1042.4
1290.33
1128.51
1166.76
1266.96
1158.71
1036.6
1128.49
1123.72
1155.13
1272.53
1317.5
1170.38
1046.79
1188.86
1161.32
1330.05
1179.48
1300.4
1159.86
1039.26
1137.74
1148.68
1169.61
1286.15
)
;

boundaryField
{
    left
    {
        type            zeroGradient;
    }
    bottom
    {
        type            zeroGradient;
    }
    interface
    {
        type            zeroGradient;
    }
    procBoundary0to1
    {
        type            processor;
        value           nonuniform List<scalar> 
224
(
260.658
373.763
559.943
254.949
254.949
254.949
262.913
262.913
262.913
354.003
747.518
43.8409
251.578
406.463
772.92
208.063
208.063
208.063
206.583
206.583
206.583
461.682
671.128
338.205
338.205
230.884
230.884
230.884
959.404
256.949
256.949
256.949
199.235
199.235
199.235
474.813
682.315
907.366
823.251
1045.4
1003.44
313.27
313.27
1766.46
-300.497
1267.97
1267.66
882.561
1363.26
581.574
581.574
581.574
783.588
910.169
948.313
1132.64
1397.73
1407.02
1038.07
1246.13
1241.57
1110.9
1376.15
1359.45
232.199
232.199
232.199
200.892
200.892
200.892
250.671
250.671
250.671
269.509
269.509
269.509
43.8409
251.578
251.578
1107.7
1107.7
1107.7
1107.7
1107.7
1107.7
209.854
209.854
209.854
204.75
204.75
204.75
258.09
258.09
258.09
271.886
271.886
271.886
197.755
197.755
197.755
799.421
1785.04
1053
993.375
84.2435
84.2435
84.2435
595.807
419.805
-2260.18
-2534.95
2278.06
1254.32
1302.52
1327.09
1119.81
504.825
504.825
504.825
504.825
455.369
455.369
1044.75
1260.26
1246.03
1075.26
1294.19
1323.43
215.693
215.693
215.693
202.809
202.809
202.809
336.918
439.571
310.085
384.204
189.674
559.943
373.763
559.943
559.943
213.313
227.049
225.4
211.264
243.118
235.194
258.712
255.401
185.562
184.54
184.337
187.095
182.227
185.131
182.54
180.842
298.158
132.934
207.134
238.098
244.812
228.35
255.829
260.678
175.219
177.699
175.1
174.546
419.805
1217.07
595.807
-300.497
1766.46
2278.06
-2534.95
1267.66
1267.97
1302.52
1254.32
1363.26
882.561
1119.81
1327.09
-1011.21
400.082
360.186
384.204
121.971
1397.73
1241.57
1246.13
1246.03
1260.26
1359.45
1376.15
1323.43
1294.19
200.378
213.876
191.768
187.368
178.469
177.554
178.359
181.561
219.452
652.616
713.308
816.541
792.604
901.713
777.033
675.567
869.399
749.938
808.866
916.447
811.824
816.984
931.282
815.774
)
;
    }
    procBoundary0to2
    {
        type            processor;
        value           nonuniform List<scalar> 
47
(
270.497
302.558
320.433
216.686
21.2363
256.384
259.862
271.075
216.686
208.069
311.989
323.495
339.268
360.279
283.419
305.637
312.759
291.222
288.316
333.87
334.485
327.894
344.667
353.931
152.671
152.671
208.069
142.93
45.8711
65.7634
65.7634
259.862
271.075
233.532
339.268
360.279
233.832
311.989
311.989
291.222
288.316
305.637
312.759
344.667
353.931
334.485
327.894
)
;
    }
    procBoundary0to3
    {
        type            processor;
        value           nonuniform List<scalar> 
43
(
195.59
195.59
195.59
194.945
194.945
194.945
194.527
194.527
194.527
195.021
195.021
195.021
196.574
196.574
196.574
194.517
194.517
194.517
196.905
196.905
194.397
194.397
194.397
195.811
195.811
195.811
172.59
173.011
172.85
174.808
171.48
173.085
171.378
172.009
173.926
171.024
172.568
171.075
172.253
171.944
172.548
171.921
173.714
)
;
    }
    procBoundary0to4
    {
        type            processor;
        value           nonuniform List<scalar> 
58
(
282.638
775.496
775.496
775.496
972.608
404.69
404.69
404.69
404.69
404.69
146.113
1196.78
1370.41
1350.09
1184.8
520.318
728.032
422.528
506.295
1011.5
884.562
251.778
422.528
290.669
35.391
56.566
35.391
147.693
35.391
-161.218
-138.158
1011.5
1057.93
422.528
506.295
290.669
-15.2845
620.126
-113.032
56.566
-161.218
-281.667
-138.158
-33.0632
325.11
-138.158
-138.158
884.562
1063.9
1370.41
754.488
922.738
1057.93
1184.8
788.002
1350.09
1184.8
1203.7
)
;
    }
}

