/*--------------------------------*- C++ -*----------------------------------*\
| =========                 |                                                 |
| \\      /  F ield         | OpenFOAM: The Open Source CFD Toolbox           |
|  \\    /   O peration     | Version:  2012                                  |
|   \\  /    A nd           | Website:  www.openfoam.com                      |
|    \\/     M anipulation  |                                                 |
\*---------------------------------------------------------------------------*/
FoamFile
{
    version     2.0;
    format      ascii;
    class       volScalarField;
    location    "0.104/solid";
    object      sigmaDiff;
}
// * * * * * * * * * * * * * * * * * * * * * * * * * * * * * * * * * * * * * //

dimensions      [1 -1 -2 0 0 0 0];


internalField   nonuniform List<scalar> 
3124
(
-340.502
-70.9
-137.14
-274.935
-193.254
-189.488
-101.747
-544.583
-1031.2
-186.709
-289.672
-235.506
-362.81
-332.125
-220.311
-1063.87
-307.037
-239.575
-189.709
-193.018
-237.463
-239.668
-236.995
-120.9
-939.754
-487.751
-295.114
-299.675
-622.769
-866.444
-365.009
-629.042
-357.507
-351.717
-285.892
-1030.85
-340.584
-304.98
-268.805
-271.998
-268.242
-268.12
-85.4904
-122.294
-364.189
-1122.55
-899.675
-147.951
-2856.46
-515.149
-197.618
-196.355
-188.636
-188.645
-118.395
-101.366
-286.076
-828.435
-332.677
-935.685
-367.391
-311.355
-906.921
-944.052
-1084.03
-950.956
-328.875
-949.005
-745.652
-762.422
-105.846
-280.13
-258.183
-1298.32
-1013.84
-367.675
-3549.12
-405.712
-302.645
-360.948
-377.259
-357.132
-353.31
-271.204
-519.956
-336.265
-292.877
-1086.09
-923.013
-1065.56
-335.77
-1001.32
-1066.1
-1256.62
-807.433
-743.827
-795.465
-1248.65
-1245.11
-362.684
-239.408
-300.063
-279.397
-297.229
-238.404
-291.677
-298.98
-191.444
-191.718
-277.833
-273.312
-284.792
-239
-287.348
-290.815
-239.381
-288.182
-284.283
-236.468
-284.212
-268.893
-236.694
-284.991
-407.84
-430.617
-306.944
-309.986
-293.542
-286.649
-232.526
-233.542
-231.92
-231.6
-93.6325
-55.5758
-89.1347
-159.925
-93.3136
-84.0376
-100.084
-456.892
-93.6722
-125.433
-54.9582
-159.791
-540.612
-214.953
-93.7727
-224.04
-51.0631
-194.266
-39.5602
-39.7901
-39.3562
-189.295
-39.6548
-189.133
-40.8712
-218.978
-126.593
-141.513
-186.865
-145.225
-198.907
-339.493
-790.005
-482.353
-533.148
-641.211
-120.065
-249.72
-133.078
-222.446
-128.146
-215.112
-160.414
-118.131
-330.402
-251.403
-998.897
-126.565
-436.952
-344.295
-607.05
-287.783
-725.35
-378.968
-340.991
-375.889
-220.735
-202.847
-256.77
-240.698
-257.467
-153.867
-260.327
-364.359
-274.216
-329.83
-243.651
-244.662
-239.501
-296.193
-295.392
-39.3675
-190.649
-39.5078
-39.3396
-192.717
-39.5166
-242.871
-241.457
-295.276
-238.023
-295.826
-296.944
-239.744
-297.339
-294.77
-236.719
-294.387
-235.114
-237.791
-296.87
-269.153
-300.309
-194.851
-151.27
-171.159
-264.98
-256.9
-387.714
-445.824
-597.251
-554.968
-469.291
-338.922
-482.12
-300.277
-556.061
-220.516
-605.708
-340.438
-781.192
-812.762
-414.531
-715.606
-646.409
-811.348
-856.291
-546.612
-363.642
-386.795
-465.441
-457.449
-618.578
-463.771
-336.836
-311.664
-337.096
-361.301
-340.19
-347.09
-355.381
-337.258
-719.152
-850.12
-1089.77
-320.101
-321.514
-306.714
-291.834
-298.31
-311.685
-307.49
-310.986
-236.148
-234.773
-253.731
-269.907
-254.893
-257.297
-271.004
-256.105
-253.127
-268.116
-252.959
-231.619
-231.47
-268.048
-252.919
-252.863
-105.754
-65.8156
-150.934
-115.618
-162.942
-113.074
-105.326
-108.59
-93.3348
-72.611
-190.307
-203.195
-65.8507
-132.74
-122.67
-460.723
-250.844
-264.485
-203.526
-254.618
-182.615
-459.131
-1143.92
-624.296
-3049
-3520.29
-833.144
-1172.51
-1963.74
-999.48
-2379.83
-391.176
-155.084
-91.3964
-246.197
-252.845
-165.188
-266.948
-644.863
-288.194
-7734.83
-1133.87
-2013.69
-1057.82
-375.686
-525.789
-646.386
-327.641
-854.644
-327.538
-1656.42
-358.541
-213.496
-42.2445
-46.4192
-194.659
-41.2408
-40.1576
-189.176
-39.8199
-39.7579
-189.084
-39.9615
-40.6782
-581.881
-577.339
-998.485
-126.813
-222.968
-225.166
-609.906
-217.606
-496.122
-226.098
-123.828
-43.9172
-151.201
-112.423
-119.864
-197.928
-821.548
-269.702
-311.386
-222.165
-496.135
-141.275
-262.062
-412.902
-475.461
-892.282
-610.732
-871.458
-1194.87
-1293.68
-518.813
-935.417
-642.176
-753.083
-398.792
-326.59
-397.42
-383.936
-437.444
-511.545
-727.855
-1835.26
-1086.56
-964.476
-671.128
-464.172
-416.361
-755.626
-450.894
-545.072
-1014.88
-795.983
-319.03
-769.967
-960.039
-779.161
-837.664
-1070.12
-326.005
-732.922
-882.411
-757.384
-907.909
-1061.68
-650.908
-623.747
-746.87
-720.856
-728.808
-744.675
-719.886
-714.356
-649.165
-651.312
-109.63
-111.946
-63.8335
-123.006
-121.202
-76.975
-132.664
-148.229
-242.516
-291.244
-283.397
-310.38
-217.873
-206.49
-135.619
-342.206
-173.858
-273.465
-93.2907
-338.018
-179.769
-601.704
-728.955
-483.316
-1288.3
-467.798
-751.109
-773.749
-509.302
-1181.54
-427.436
-339.107
-563.177
-311.853
-1550.47
-1215.85
-19268.7
-2409.96
-940.64
-5440.56
-1610.07
-908.807
-398.749
-517.112
-356.539
-957.963
-1326.55
-2129.16
-5742.71
-1434.64
-286.22
-405.352
-429.331
-300.745
-382.234
-370.412
-287.396
-401.171
-387.726
-378.28
-384.055
-336.508
-325.322
-357.536
-369.253
-342.208
-369.901
-255.003
-255.259
-265.398
-291.673
-261.313
-282.916
-257.762
-244.828
-422.108
-302.602
-172.114
-287.852
-244.96
-327.338
-301.987
-280.004
-278.759
-1037.54
-307.159
-717.715
-818.352
-1064.35
-709.284
-791.967
-1017.89
-313.279
-726.719
-797.73
-1035.29
-708.814
-767.01
-685.253
-464.381
-631.598
-737.941
-630.504
-628.905
-715.141
-751.724
-701.937
-643.26
-619.626
-734.782
-773.245
-710.165
-667.327
-647.736
-490.22
-1233.26
-462.621
-688.231
-635.677
-454.449
-1237.98
-449.216
-375.873
-336.637
-344.625
-249.543
-286.96
-298.221
-312.313
-298.176
-312.266
-267.087
-249.785
-265.777
-282.35
-268.456
-290.473
-288.201
-275.104
-239.174
-290.333
-294.012
-302.54
-293.626
-302.834
-300.647
-296.883
-303.105
-190.938
-39.288
-39.5252
-192.496
-39.375
-39.4245
-237.683
-239.555
-264.245
-276.56
-262.706
-258.825
-274.974
-260.776
-299.525
-285.489
-300.059
-238.546
-297.083
-296.459
-286.415
-301.606
-300.82
-302.695
-290.163
-302.763
-239.652
-297.313
-297.322
-289.161
-301.953
-302.288
-299.033
-283.895
-298.578
-236.535
-294.461
-294.267
-283.838
-298.883
-298.501
-232.328
-233.536
-271.979
-256.741
-253.672
-270.326
-255.094
-237.158
-294.986
-295.752
-287.644
-301.863
-299.571
-286.052
-300.441
-207.906
-212.013
-268.138
-255.839
-225.011
-251.764
-196.36
-153.212
-188.281
-193.86
-144.061
-188.639
-151.885
-144.787
-150.382
-141.126
-184.407
-189.764
-149.435
-184.766
-141.587
-254.236
-228.409
-283.124
-306.729
-236.66
-297.077
-246.532
-343.659
-365.777
-330.562
-358.207
-358.547
-350.754
-353.218
-150.933
-141.288
-184.682
-190.371
-149.546
-185.271
-142.014
-152.493
-187.823
-143.774
-193.263
-151.687
-188.262
-144.123
-724.945
-423.434
-332.661
-370.219
-426.229
-464.398
-649.918
-606.368
-775.655
-565.551
-715.107
-517.616
-425.204
-365.913
-710.972
-2717.25
-3773.36
-159.789
-200.472
-193.144
-149.434
-156.717
-195.872
-152.016
-154.663
-195.866
-191.283
-147.877
-155.105
-190.947
-147.267
-150.127
-189.146
-183.666
-140.622
-149.031
-184.166
-141.221
-150.298
-189.131
-183.697
-140.64
-149.063
-184.236
-141.26
-333.721
-343.909
-429.262
-526.5
-684.783
-440.391
-302.968
-373.734
-686.73
-440.409
-377.056
-728.72
-326.8
-451.631
-411.285
-444.483
-389.873
-708.199
-504.774
-470.459
-511.525
-518.111
-293.205
-296.704
-353.237
-387.435
-327.841
-356.834
-442.863
-398.86
-439.369
-328.342
-365.078
-782.101
-447.878
-497.868
-444.471
-426.075
-887.104
-484.541
-334.978
-334.146
-301.358
-323.383
-345.386
-318.98
-337.665
-676.177
-296.028
-426.791
-351.651
-689.032
-427.408
-361.065
-638.889
-321.324
-445.921
-374.972
-660.252
-446.457
-375.699
-313.549
-480.648
-480.259
-481.864
-509.658
-495.54
-302.892
-293.056
-302.553
-280.284
-151.586
-191.653
-186.304
-142.478
-150.705
-186.621
-142.872
-152.243
-192.343
-186.673
-142.705
-150.9
-187.178
-143.407
-352.173
-421.394
-333.829
-310.396
-412.772
-292.754
-309.065
-319.366
-307.321
-320.803
-262.33
-263.756
-261.324
-268.633
-303.219
-318.99
-308.96
-313.984
-273.919
-300.086
-281.875
-295.447
-265.54
-252.558
-248.442
-272.528
-298.396
-295.369
-284.9
-302.924
-232.767
-235.782
-230.656
-237.798
-196.905
-197.64
-198.738
-197.398
-230.399
-236.303
-231.866
-235.197
-229.233
-235.991
-234.191
-230.976
-197.087
-196.297
-195.959
-196.9
-231.178
-234.63
-230.035
-235.915
-71.1692
-79.8271
-97.797
-86.5964
-82.025
-85.7305
-80.0832
-81.2535
-139.071
-129.178
-132.626
-108.218
-102.434
-115.956
-79.9417
-73.2014
-93.1919
-117.584
-109.097
-70.2107
-91.5874
-70.2468
-90.26
-93.053
-108.738
-74.0205
-84.8682
-99.3063
-245.351
-288.508
-495.629
-386.487
-252.526
-279.929
-442.283
-129.035
-201.753
-156.409
-102.645
-69.7123
-193.981
-157.775
-205.561
-501.401
-305.963
-417.182
-204.25
-288.289
-378.153
-84.9333
-125.97
-72.7802
-103.194
-109.951
-193.762
-239.513
-220.278
-169.364
-234.555
-179.96
-181.093
-75.4614
-59.6526
-86.9469
-65.2117
-96.568
-153.573
-194.228
-188.985
-145.245
-189.155
-153.133
-145.216
-43.7715
-60.9846
-40.0627
-43.3263
-61.2984
-43.8557
-61.9695
-40.2944
-44.0643
-61.5618
-40.6753
-57.8656
-40.1504
-40.5509
-57.8761
-150.819
-189.746
-184.271
-141.235
-184.623
-149.854
-141.677
-40.4609
-40.4249
-57.2597
-39.8385
-57.6422
-184.473
-141.251
-150.246
-39.5293
-56.3945
-39.0643
-220.858
-264.22
-276.928
-255.772
-288.824
-227.087
-255.836
-169.496
-161.109
-161.549
-217.512
-135.886
-188.768
-184.691
-177.332
-167.644
-131.162
-163.484
-141.331
-168.274
-185.025
-196.602
-331.139
-238.698
-237.045
-257.674
-226.235
-202.125
-854.735
-749.8
-840.209
-753.252
-686.073
-1167.82
-696.866
-132.835
-110.161
-135.975
-147.636
-126.536
-129.524
-137.526
-193.316
-232.361
-194.827
-263.271
-196.254
-198.817
-181.126
-126.447
-134.997
-111.705
-84.135
-100.201
-138.673
-118.651
-196.435
-136.732
-235.997
-231.951
-237.139
-145.843
-193.317
-145.217
-145.445
-154.836
-113.473
-171.524
-263.109
-317.966
-315.712
-283.308
-304.858
-278.167
-264.179
-167.755
-197.624
-235.569
-204.773
-200.808
-647.652
-873.89
-688.223
-1103.83
-595.496
-943.829
-793.106
-303.802
-146.515
-200.284
-163.812
-203.893
-190.393
-265.851
-526.484
-651.889
-369.74
-411.818
-316.318
-400.063
-860.015
-408.191
-466.957
-215.717
-336.52
-267.259
-379.773
-533.529
-377.85
-366.111
-390.053
-348.161
-335.96
-279.893
-300.409
-357.949
-358.84
-313.153
-293.678
-337.936
-348.845
-395.883
-382.282
-368.737
-225.608
-198.154
-222.264
-157.216
-216.878
-180.315
-181.45
-243.996
-247.397
-245.704
-240.495
-246.31
-218.283
-256.554
-236.28
-171.27
-149.468
-209.545
-185.768
-200.2
-244.572
-307.678
-334.681
-330.402
-317.885
-331.967
-277.159
-251.667
-317.943
-292.028
-225.248
-248.336
-296.054
-359.193
-354.497
-333.016
-374.283
-244.954
-246.476
-237.226
-252.744
-204.746
-210.305
-211.093
-205.74
-236.534
-250.864
-244.643
-244.367
-287.945
-291.614
-274.126
-304.364
-260.569
-199.925
-202.245
-269.061
-268.484
-202.377
-200.549
-258.975
-276.166
-304.872
-288.474
-293.542
-40.8174
-57.9132
-40.0813
-40.5245
-58.0492
-151.466
-190.746
-185.523
-142.135
-185.628
-150.73
-142.357
-40.7155
-40.2731
-57.9304
-40.3892
-58.0228
-43.0144
-60.7355
-39.9799
-43.1887
-60.5045
-152.962
-193.199
-187.686
-143.663
-187.945
-152.013
-144.134
-42.6008
-40.1343
-59.5544
-41.9071
-60.0673
-236.114
-247.882
-242.641
-242.256
-209.326
-204.685
-243.844
-243.504
-237.087
-249.362
-203.653
-208.036
-284.029
-297.543
-300.548
-280.683
-263.517
-197.587
-198.838
-265.249
-265.799
-199.019
-198.567
-263.773
-280.76
-299.671
-283.337
-297.373
-279.004
-304.728
-296.21
-288.024
-269.085
-201.33
-261.659
-200.018
-288.545
-294.783
-277.509
-304.903
-262.712
-199.758
-201.613
-268.899
-279.999
-298.854
-296.587
-282.196
-264.68
-197.903
-197.7
-263.19
-262.788
-197.252
-198.1
-264.248
-282.903
-296.898
-280.358
-299.288
-238.058
-233.038
-199.37
-300.76
-283.679
-198.275
-199.261
-265.636
-166.579
-171.631
-298.1
-243.353
-193.842
-247.735
-168.657
-177.826
-188.534
-173.785
-154.247
-184.827
-184.934
-153.568
-192.487
-301.282
-260.04
-251.181
-250.31
-227.013
-203.823
-429.537
-407.781
-413.155
-381.424
-398.538
-418.511
-407.068
-469.505
-645.973
-460.455
-501.475
-491.079
-463.486
-481.334
-437.453
-357.868
-470.128
-474.528
-483.088
-580.774
-454.29
-492.17
-528.346
-424.42
-351.121
-544.985
-514.229
-424.107
-390.474
-565.014
-363.175
-295.578
-395.8
-339.898
-375.173
-274.511
-387.884
-322.632
-242.461
-288.047
-223.844
-324.151
-239.615
-298.755
-470.188
-490.946
-658.07
-587.536
-488.748
-487.88
-598.847
-714.825
-354.53
-491.844
-602.439
-701.472
-436.807
-489.805
-466.602
-285.871
-428.652
-518.526
-585.959
-361.342
-388.977
-322.507
-326.65
-318.317
-334.49
-324.287
-422.372
-292.586
-275.21
-357.432
-384.908
-356.552
-344.264
-346.319
-333.235
-338.891
-342.721
-348.59
-363.848
-355.623
-356.436
-336.902
-337.734
-330.729
-342.071
-358.117
-362.73
-351.376
-368.546
-349.291
-341.048
-340.196
-349.271
-353.745
-369.967
-360.558
-363.414
-356.193
-360.358
-352.807
-377.075
-350.223
-369.738
-356.808
-363.289
-300.068
-309.637
-296.128
-310.567
-338.05
-336.91
-330.275
-345.529
-323.84
-312.41
-319.455
-317.067
-311.753
-321.391
-319.208
-315.92
-298.113
-293.486
-283.207
-306.736
-259.973
-249.041
-270.077
-259.462
-288.231
-292.662
-298.554
-282.708
-310.321
-301.486
-302.364
-312.043
-302.36
-301.503
-298.178
-303.592
-310.356
-305.064
-306.912
-306.253
-304.356
-303.13
-304.992
-303.725
-231.585
-239.661
-234.667
-236.769
-201.713
-199.579
-198.441
-200.328
-236.19
-237.995
-240.852
-233.077
-254.563
-250.068
-252.743
-251.792
-261.608
-268.691
-263.807
-266.405
-251.182
-251.358
-249.757
-252.81
-265.269
-266.865
-261.909
-270.409
-252.709
-254.568
-251.143
-256.456
-268.072
-268.562
-264.178
-272.844
-257.324
-252.595
-255.843
-253.874
-262.856
-272.069
-266.999
-267.685
-250.335
-250.811
-248.688
-252.759
-263.423
-266.045
-261.327
-268.426
-252.532
-249.381
-250.898
-250.651
-260.714
-268.548
-263.344
-265.773
-230.406
-234.163
-229.163
-235.503
-196.271
-196.527
-196.551
-195.775
-229.867
-235.305
-234.57
-230.746
-252.193
-248.624
-250.464
-250.375
-261.478
-267.877
-266.374
-262.975
-262.874
-265.927
-260.76
-268.057
-250.843
-250.443
-249.299
-251.909
-105.701
-118.052
-111.613
-98.2237
-95.4725
-120.463
-107.924
-121.32
-145.638
-163.391
-145.953
-144.114
-142.154
-125.99
-94.5876
-98.2703
-99.4241
-115.582
-85.5942
-107.472
-111.042
-126.357
-131.634
-90.3066
-120.877
-104.592
-107.913
-142.807
-112.046
-90.0776
-109.24
-57.5677
-91.9054
-124.56
-77.3901
-149.152
-164.934
-153.56
-201.598
-130.27
-175.23
-169.8
-94.6721
-67.4644
-72.659
-50.7358
-79.7768
-76.9026
-64.6751
-184.614
-141.898
-151.788
-132.997
-180.259
-151.409
-161.14
-291.537
-427.544
-328.937
-386.563
-335.956
-290.233
-363.585
-230.593
-174.749
-270.101
-208.693
-270.268
-230.144
-176.978
-236.313
-197.834
-318.316
-238.649
-236.186
-197.84
-283.186
-648.063
-1064.18
-296.857
-467.333
-432.412
-418.404
-186.812
-602.415
-631.477
-444.245
-673.23
-535.309
-340.729
-796.624
-1928.15
-1366.1
-4347.65
-3719.23
-4435.34
-3229.86
-3146.14
-3352.63
-3371.22
-2688.12
-3815.85
-4219.9
-3777.53
-5164.26
-3397.6
-9864.31
-3884.9
-4236.96
-2107.99
-1211.4
-2386.27
-1917.53
-1504.44
-2553.13
-1304.13
-749.703
-825.451
-1262.22
-791.778
-1352.67
-1076.82
-1983.73
-2546.01
-1771.87
-2296.07
-1978.07
-2758.41
-1660.18
-2270.12
-2181.2
-2960.65
-1735.98
-2710.61
-2448.57
-280.584
-336.421
-302.51
-382.989
-308.191
-240.425
-343.814
-172.637
-102.725
-131.876
-108.666
-143.664
-153.337
-120.44
-247.112
-307.678
-184.457
-245.283
-197.242
-219.424
-303.918
-191.62
-223.993
-133.493
-107.371
-214.184
-160.276
-124.114
-834.9
-936.644
-793.846
-530.137
-661.715
-1148.79
-757.155
-592.099
-7969.66
-2777.18
-3914.55
-2445.23
-2189.66
-3802.26
-1026.72
-1378.94
-2165.55
-2166.9
-2124.02
-1624.13
-989.205
-751.952
-939.559
-752.733
-1520.13
-689.704
-1457.53
-699.077
-549.986
-575.064
-527.325
-978.61
-453.267
-779.749
-732.866
-433.277
-405.989
-425.769
-287.757
-345.869
-564.99
-349.448
-734.373
-1133.37
-1303.54
-1523.41
-1178.74
-962.482
-840.938
-164.54
-205.478
-208.717
-161.332
-171.25
-201.468
-156.022
-52.9483
-69.0366
-43.1467
-50.7697
-71.5825
-55.945
-80.25
-44.6094
-61.0535
-75.31
-154.52
-195.415
-189.663
-145.76
-153.436
-190.09
-146.607
-47.4888
-67.1114
-41.1292
-49.0053
-65.4629
-46.1549
-62.819
-40.8743
-44.9435
-64.029
-150.669
-189.368
-184.123
-141.162
-149.802
-184.3
-141.467
-40.1801
-57.1482
-40.5063
-39.8775
-57.3359
-40.1672
-57.1395
-40.6438
-39.6873
-57.3076
-150.896
-189.349
-184.297
-141.199
-150.126
-184.418
-141.515
-39.9479
-57.0608
-40.8967
-39.7792
-57.0707
-39.7421
-56.5032
-41.296
-39.1605
-56.8655
-423.196
-330.495
-314.63
-292.74
-573.247
-256.85
-302.25
-353.669
-329.116
-312.924
-556.226
-468.933
-558.138
-322.2
-695.96
-402.66
-145.107
-1236.79
-265.827
-886.468
-246.337
-214.786
-855.34
-96.4341
-589.31
-268.961
-565.731
-216.718
-473.712
-282.286
-171.907
-236.933
-230.732
-255.195
-208.476
-183.159
-224.655
-90.3783
-60.612
-49.7318
-59.1179
-59.9635
-82.1293
-69.9214
-121.308
-147.099
-106.758
-75.3741
-148.715
-81.1151
-116.904
-131.268
-185.804
-93.4466
-119.849
-129.548
-180.555
-94.9584
-292.851
-917.502
-319.142
-321.459
-621.525
-224.174
-298.396
-217.624
-194.841
-307.121
-270.394
-248.972
-433.795
-176.175
-232.777
-601.39
-400.652
-416.127
-308.888
-540.357
-251.046
-270.359
-213.465
-177.452
-146.35
-420.143
-233.337
-190.158
-664.695
-1479.04
-390.48
-770.46
-597.618
-875.995
-625.201
-774.748
-576.833
-250.713
-551.8
-466.256
-434.05
-616.992
-367.013
-669.542
-491.361
-641.516
-488.078
-549.275
-631.499
-1184.05
-422.513
-1525.87
-663.827
-876.985
-563.458
-502.285
-633.957
-1766.49
-2543.32
-903.872
-798.588
-2592.4
-609.762
-510.982
-952.009
-1208.96
-656.769
-965.602
-1461.37
-402.022
-812.561
-3926.88
-989.257
-3997.82
-521.226
-627.931
-670.14
-698.285
-621.47
-535.839
-607.694
-384.368
-313.864
-353.009
-359.383
-390.85
-338.441
-338.161
-432.137
-489.412
-378.108
-405.522
-445.07
-499.271
-369.449
-1759.04
-274.183
-1241.1
-5367.83
-681.986
-1611.18
-679.755
-795.738
-1155.16
-701.146
-635.723
-451.842
-270.93
-972.258
-748.192
-310.581
-1124.78
-406
-438.802
-1236.29
-941.326
-442.183
-379.759
-1240.13
-399.842
-586.403
-577.916
-445.587
-415.451
-649.049
-522.325
-447.807
-717.541
-304.605
-434.972
-396.044
-713.956
-441.754
-399.487
-741.629
-325.508
-453.343
-433.718
-750.273
-442.672
-401.984
-531.91
-578.494
-628.344
-520.819
-530.084
-494.837
-494.94
-554.969
-634.103
-529.978
-540.12
-543.525
-635.092
-626.924
-610.02
-617.03
-498.994
-672.07
-628.193
-545.291
-516.962
-517.113
-557.342
-650.559
-581.453
-557.075
-585.539
-569.983
-558.085
-647.635
-556.704
-581.41
-94.8035
-102.379
-87.0301
-110.432
-107.429
-85.7273
-99.0116
-69.5756
-69.059
-84.2538
-49.1122
-82.4736
-60.6795
-72.5891
-83.7176
-103.459
-77.0753
-88.8406
-93.7932
-80.4176
-98.4837
-75.0985
-67.1255
-58.3836
-96.0875
-73.1428
-56.8124
-75.3799
-202.567
-192.812
-170.191
-167.215
-170.935
-213.79
-200.649
-257.614
-282.889
-302.449
-254.104
-291.39
-255.356
-264.782
-250.654
-240.95
-315.258
-321.577
-301.029
-255.781
-256.942
-229.864
-168.472
-242.312
-238.905
-206.617
-216.014
-247.874
-165.104
-112.225
-185.199
-139.892
-161.349
-124.917
-173.084
-196.502
-204.11
-144.292
-328.709
-164.513
-287.668
-182.038
-140.846
-87.65
-100.596
-118.144
-153.146
-125.358
-110.464
-236.493
-240.69
-349.568
-318.426
-326.944
-225.858
-238.845
-339.016
-321.825
-273.733
-335.81
-266.836
-599.032
-264.07
-316.986
-248.237
-303.12
-243.675
-356.589
-640.83
-331.443
-316.474
-238.208
-560.075
-215.846
-223.911
-533.904
-834.969
-1198.23
-829.779
-1194.95
-551.261
-197.926
-219.97
-526.351
-843.896
-1153.99
-814.871
-1185.38
-387.431
-386.166
-364.562
-362.176
-726.363
-250.569
-347.448
-267.454
-329.572
-370.035
-267.992
-345.766
-735.377
-348.005
-372.411
-267.85
-485.91
-201.53
-237.321
-532.697
-690.057
-935.224
-631.864
-1014.96
-511.986
-261.879
-470.978
-261.257
-752.606
-1123.08
-791.607
-1067.54
-324.142
-349.443
-316.769
-304.392
-284.955
-338.521
-338.451
-340.26
-441.942
-457.438
-516.533
-374.719
-305.674
-274.687
-389.042
-234.634
-329.521
-2688.99
-1311.12
-2528.27
-1615.15
-1482.55
-2552.72
-2188.02
-5168.68
-13155.9
-5634.34
-8338.31
-5323.39
-9090.17
-4200.56
-1075.73
-844.738
-659.784
-1007.61
-732.719
-672.889
-1191.06
-779.824
-433.154
-364.586
-451.012
-478.529
-816.405
-467.51
-1276.02
-494.776
-1082.81
-377.963
-690.353
-780.501
-501.987
-372.429
-706.002
-507.315
-598.011
-925.821
-1280.51
-1069.46
-611.807
-1208.12
-735.311
-1470.86
-734.372
-1656.23
-1945.76
-1223.65
-1292.75
-1738.29
-1621.23
-1255.89
-1814.84
-1651.68
-1374.37
-1923.86
-2513.92
-1422.7
-1836.05
-2771.56
-3310.71
-5498.08
-1819.01
-5383.43
-3204.52
-1787.85
-1525.92
-1346.07
-1779.97
-1615.19
-1511.88
-1402.34
-1833.22
-583.973
-403.651
-301.631
-335.461
-320.1
-413.263
-557.825
-597.78
-825.413
-324.009
-530.963
-520.92
-349.507
-919.268
-279.933
-344.101
-588.897
-460.419
-384.491
-292.203
-328.153
-352.189
-488.918
-327.768
-321.054
-409.076
-420.668
-335.758
-346.402
-465.802
-459.036
-318.775
-410.473
-297.39
-304.916
-318.999
-333.747
-326.053
-388.195
-388.474
-373.104
-394.98
-371.373
-369.443
-376.892
-365.545
-386.274
-384.426
-368.206
-378.715
-371.508
-371.699
-402.082
-375.688
-392.77
-332.922
-379.596
-367.243
-351.751
-328.015
-515.27
-252.386
-390.985
-329.47
-289.42
-352.55
-327.868
-341.822
-337.749
-358.892
-305.782
-363.485
-384.911
-381.569
-359.406
-361.56
-358.881
-361.442
-353.627
-365.874
-375.617
-363.037
-380.402
-360.356
-325.409
-353.279
-348.65
-248.593
-254.207
-244.118
-265.237
-250.517
-245.998
-247.379
-417.387
-276.182
-224.973
-248.4
-283.468
-368.179
-327.635
-560.744
-508.065
-1393.66
-584.064
-633.395
-237.274
-277.64
-725.231
-284.906
-992.968
-474.69
-360.079
-364.114
-361.318
-305.187
-314.863
-244.899
-249.169
-245.762
-253.504
-255.794
-325.521
-310.184
-384.441
-311.343
-364.311
-342.702
-266.015
-290.859
-304.963
-345.603
-277.745
-282.996
-289.858
-333.469
-359.058
-299.541
-655.742
-300.739
-434.771
-372.476
-650.854
-428.264
-355.968
-622.285
-315.042
-433.719
-359.847
-622.852
-438.332
-367.977
-313.946
-219.356
-300.8
-803.357
-1194.35
-803.075
-1195.68
-178.842
-180.15
-511.179
-556.069
-569.674
-665.119
-487.221
-482.65
-553.097
-627.341
-567.669
-551.289
-567.86
-563.341
-550.413
-625.74
-549.724
-565.824
-645.001
-643.827
-650.991
-659.588
-487.285
-491.414
-548.237
-579.983
-632.652
-547.629
-572.083
-569.699
-540.772
-631.56
-546.741
-562.469
-660.846
-667.991
-666.92
-655.444
-292.481
-295.733
-286.082
-307.823
-615.548
-212.445
-309.772
-289.347
-206.966
-289.629
-208.576
-305.535
-603.975
-301.105
-288.19
-208.089
-504.335
-176.057
-168.297
-512.23
-797.767
-1190.45
-795.028
-1193.85
-506.345
-191.421
-523.622
-169.233
-797.138
-1196.12
-806.725
-1193.33
-275.989
-267.737
-259.518
-339.712
-219.688
-600.61
-267.024
-314.817
-191.332
-260.057
-201.77
-308.382
-584.484
-306.087
-267.93
-193.692
-508.638
-174.041
-167.086
-507.543
-801.301
-1193.6
-797.896
-1192.84
-506.825
-174.681
-509.347
-166.46
-801.638
-1194.4
-806.907
-1193.86
-334.502
-341.367
-337.719
-337.411
-368.898
-348.08
-358.735
-354.111
-331.109
-329.464
-325.61
-333.446
-374.5
-362.817
-383.692
-357.278
-288.722
-301.699
-278.494
-304.138
-252.989
-202.637
-209.677
-264.49
-271.356
-223.567
-265.018
-209.54
-265.71
-296.707
-284.937
-282.353
-305.586
-308.104
-309.275
-307.892
-291.396
-299.698
-296.228
-297.057
-304.163
-309.067
-306.992
-307.783
-290.651
-301.353
-290.383
-296.895
-245.924
-256.544
-247.644
-254.993
-223.581
-235.592
-259.722
-276.777
-267.521
-268.98
-214.383
-213.239
-270.911
-260.945
-267.585
-264.619
-269.652
-281.739
-273.582
-277.437
-280.166
-276.632
-272.521
-284.753
-261.11
-265.449
-258.375
-267.745
-273.441
-272.663
-269.907
-276.925
-294.542
-290.834
-291.566
-297.149
-288.744
-288.903
-290.465
-285.264
-279.493
-290.274
-285.636
-282.821
-272.185
-303.616
-287.548
-289.027
-265.802
-204.08
-200.89
-253.273
-256.856
-200.445
-267.777
-203.241
-285.428
-284.153
-267.537
-300.356
-299.302
-295.537
-308.301
-287.81
-282.817
-289.49
-280.113
-292.803
-294.55
-281.8
-291.477
-284.253
-287.921
-308.312
-296.557
-298.623
-287.358
-308.667
-294.326
-300.565
-299.481
-288.728
-287.07
-298.342
-299.471
-290.066
-285.637
-306.554
-286.683
-295.165
-284.821
-297.801
-151.981
-191.528
-185.892
-142.338
-150.882
-186.326
-142.878
-41.5367
-58.9585
-40.0397
-41.5157
-58.8784
-41.2484
-58.1372
-40.2684
-40.606
-58.5712
-152.621
-192.646
-187.316
-143.472
-151.912
-187.534
-143.705
-41.8839
-59.0779
-39.9986
-41.5672
-59.2495
-41.7959
-59.2651
-40.1757
-41.6068
-59.2695
-240.326
-240.466
-234.577
-245.416
-200.713
-203.51
-233.675
-242.637
-238.125
-239.022
-205.842
-201.93
-257.842
-262.412
-256.122
-264.272
-275.787
-271.895
-268.227
-280.186
-265.861
-257.44
-263.987
-259.227
-266.945
-278.792
-274.162
-271.053
-261.713
-254.445
-260.038
-256.296
-264.881
-274.125
-269.538
-269.353
-254.938
-257.55
-258.857
-253.34
-271.844
-270.142
-265.675
-276.555
-291.952
-299.587
-303.079
-288.208
-280.588
-278.416
-275.679
-283.604
-284.783
-275.829
-279.688
-280.752
-288.125
-302.31
-299.504
-291.012
-280.959
-301.686
-285.022
-297.74
-267.422
-199.886
-199.18
-264.222
-263.936
-198.543
-266.639
-199.974
-286.17
-297.967
-302.569
-281.156
-288.798
-304.325
-293.026
-299.873
-286.73
-277.599
-282.079
-282.209
-281.616
-281.073
-276.649
-285.842
-293.974
-300.372
-305.34
-289.357
-288.5
-307.936
-298.694
-297.404
-291.962
-279.16
-282.225
-288.29
-298.116
-297.584
-308.282
-288.052
-282.329
-286.979
-278.59
-291.06
-287.409
-296.804
-279.755
-303.851
-264.04
-199.15
-200.818
-268.072
-268.437
-200.865
-263.48
-199.966
-280.83
-303.19
-286.793
-297.435
-295.957
-299.046
-288.681
-307.193
-282.174
-283.309
-277.935
-287.873
-289.432
-278.111
-285.063
-282.178
-288.988
-306.043
-294.921
-299.738
-287.535
-301.346
-298.71
-290.016
-282.926
-275.576
-277.939
-280.721
-280.209
-277.709
-274.98
-282.718
-290.399
-299.258
-301.805
-288.088
-281.761
-296.84
-280.101
-298.356
-263.246
-197.08
-197.615
-264.011
-263.827
-197.434
-262.897
-197.568
-280.844
-298.467
-297.364
-281.946
-289.854
-298.958
-287.494
-300.833
-280.654
-277.713
-275.735
-282.973
-282.657
-274.968
-277.436
-280.008
-288.2
-301.252
-299.619
-290.27
-231.485
-238.506
-233.182
-236.396
-197.346
-196.935
-231.533
-235.322
-230.9
-236.44
-197.929
-198.803
-252.731
-254.61
-270.3
-265.066
-252.748
-253.546
-251.068
-255.566
-264.218
-267.075
-262.338
-269.23
-253.265
-250.239
-251.518
-251.568
-263.254
-271.327
-266.175
-268.388
-282.186
-300.252
-283.075
-298.9
-264.403
-197.221
-197.801
-263.763
-264.401
-197.99
-264.991
-198.083
-282.584
-297.843
-281.335
-299.351
-303.298
-291.943
-279.48
-284.566
-290.214
-303.056
-301.29
-292.097
-283.654
-276.647
-281.816
-278.745
-290.943
-300.375
-289.133
-302.059
-282.967
-280.325
-277.675
-285.04
-487.929
-590.366
-876.121
-558.671
-688.781
-829.782
-947.233
-795.202
-889.902
-859.483
-896.096
-903.695
-925.632
-1123.17
-1160.29
-676.529
-644.52
-1071.86
-583.127
-1176.23
-841.372
-1794.42
-5305.59
-2476.93
-2574.05
-2770.33
-1300.35
-1089.21
-1020.57
-962.683
-901.919
-995.647
-928.924
-1095.75
-1040.44
-959.407
-912.271
-969.521
-988.92
-952.674
-945.798
-4379.21
-2424.86
-6754.32
-3351.95
-4109.71
-6285.65
-2583.38
-1092.27
-1033.44
-882.33
-928.199
-1094.68
-872.707
-1045.56
-1113.04
-911.281
-1101.15
-961.737
-1137.77
-889.011
-1070.18
-904.529
-1113.03
-839.176
-1522.98
-725.192
-1035.98
-1367.47
-1039.9
-852.485
-747.077
-620.885
-844.052
-708.237
-539.55
-1146.47
-1225.59
-829.258
-1157.92
-932.103
-724.683
-1297.69
-723.019
-843.488
-726.737
-698.147
-860.699
-702.655
-716.593
-715.929
-693.082
-870.07
-726.804
-862.432
-710.886
-699.197
-664.104
-876.133
-672.136
-704.625
-690.774
-842.064
-646.192
-689.845
-674.323
-709.218
-855.337
-858.133
-665.72
-679.606
-3352.68
-2763.22
-2356.79
-2184.14
-3564.05
-2257.59
-2372.95
-3465.04
-3655.46
-6238.54
-6317.61
-3994.89
-4179.02
-2745.75
-889.608
-732.304
-753.318
-713.516
-833.789
-697.598
-703.503
-718.834
-817.856
-695.253
-716.882
-701.818
-700.235
-824.221
-815.583
-694.606
-721.044
-744.363
-882.616
-725.708
-728.614
-868.026
-749.236
-723.359
-737.052
-707.422
-718.437
-837.118
-855.947
-717.055
-729.187
)
;

boundaryField
{
    left
    {
        type            calculated;
        value           nonuniform List<scalar> 
598
(
-340.754
-194.44
-74.4293
-198.213
-273.329
-195.842
-284.663
-355.138
-365.482
-336.01
-328.958
-102.568
-296.778
-533.966
-196
-198.377
-237.111
-234.817
-307.312
-237.027
-234.364
-1477.19
-517.101
-147.236
-352.751
-363.161
-327.785
-388.745
-277.893
-274.716
-348.02
-311.261
-274.128
-273.967
-900.686
-1850.99
-187.136
-517.287
-3052.09
-94.9775
-411.881
-143.894
-200.5
-200.876
-195.605
-195.368
-377.279
-3343.26
-425.747
-309.031
-332.319
-318.765
-327.667
-283.995
-385.554
-361.354
-365.381
-116.023
-312.32
-160.378
-300.503
-298.239
-142.344
-370.9
-337.003
-197.422
-197.52
-283.686
-279.203
-236.748
-296.273
-298.867
-292.888
-295.448
-236.366
-237.061
-308.947
-372.54
-299.742
-307.136
-236.075
-303.354
-285.291
-233.864
-292.222
-292.351
-292.943
-234.084
-274.688
-653.804
-310.36
-308.197
-236.815
-235.787
-296.609
-289.748
-235.18
-234.852
-144.673
-245.779
-151.455
-62.16
-90.8975
-86.3534
-199.327
-64.1914
-64.886
-74.4487
-34.6601
-226.678
-196.508
-75.1657
-68.5457
-70.5525
-195.794
-323.308
-376.311
-119.345
-586.803
-974.272
-545.209
-379.113
-285.566
-277.21
-390.142
-388.982
-343.304
-136.632
-237.284
-148.667
-276.67
-247.886
-208.31
-633.638
-475.158
-196.993
-69.5118
-68.6177
-64.5359
-67.49
-198.165