/*--------------------------------*- C++ -*----------------------------------*\
| =========                 |                                                 |
| \\      /  F ield         | OpenFOAM: The Open Source CFD Toolbox           |
|  \\    /   O peration     | Version:  2012                                  |
|   \\  /    A nd           | Website:  www.openfoam.com                      |
|    \\/     M anipulation  |                                                 |
\*---------------------------------------------------------------------------*/
FoamFile
{
    version     2.0;
    format      ascii;
    class       volSymmTensorField;
    location    "0.104/solid";
    object      sigma;
}
// * * * * * * * * * * * * * * * * * * * * * * * * * * * * * * * * * * * * * //

dimensions      [1 -1 -2 0 0 0 0];


internalField   nonuniform List<symmTensor> 
3124
(
(123.028 46.9535 69.9264 288.688 136.524 259.513)
(-33.7383 15.3544 7.5253 -40.9146 -19.8682 -80.3296)
(-22.6916 7.72534 56.1636 -22.6955 33.6515 -55.9457)
(228.684 3.77182 -31.0497 209.82 -11.3286 479.618)
(165.38 -0.886068 -0.10657 153.972 -0.965694 347.148)
(161.925 0.773213 1.44384 150.698 0.0704429 340.122)
(-22.2976 20.1953 15.5171 -36.8505 -24.0286 -95.9312)
(249.414 0.865778 17.0359 137.527 87.8821 652.21)
(377.017 183.004 7.76051 1338.58 45.1101 476.362)
(48.3513 5.01665 62.5108 53.2681 53.4415 143.297)
(242.885 4.18552 -39.5753 221.644 -10.4631 504.203)
(-48.8237 1.12669 92.9213 12.8109 47.7995 -117.211)
(284.287 0.14181 13.7399 284.084 29.9257 641)
(291.047 6.26629 -54.0322 251.169 -0.676896 572.068)
(58.4156 -0.34197 80.3069 88.4666 37.0356 191.96)
(393.126 191.679 -1.31117 1384.79 21.9666 505.898)
(269.616 3.44667 -45.9639 239.285 -4.96894 538.188)
(207.806 -0.247139 -29.0696 190.386 -0.277626 426.151)
(162.168 -0.934612 1.42584 150.919 -0.600381 340.536)
(165.154 0.811834 0.0614234 153.684 -0.249157 346.644)
(204.695 -0.0989767 -28.3465 187.904 -0.216239 421.724)
(207.559 -0.242225 -28.9381 190.169 -0.0355475 426.065)
(204.263 -0.0992187 -28.2636 187.514 -0.0295573 420.881)
(-75.0054 38.3533 45.9158 -55.1811 -11.1475 -48.7176)
(-450.717 -38.3816 292.924 -349.857 -168.677 227.724)
(-155.143 73.4843 186.206 -197.846 -134.441 -99.9406)
(258.531 30.2355 50.6296 459.062 72.8018 244.572)
(128.358 71.0808 98.1134 225.552 84.7606 184.779)
(219.9 112.462 54.9947 740.98 145.951 291.881)
(559.999 -113.669 86.0091 1079.35 218.76 405.056)
(108.668 10.0618 116.999 133.626 130.04 233.235)
(136.354 218.242 106.293 499.512 101.868 222.47)
(278.47 -0.188901 2.67044 260.632 0.931461 618.111)
(247.524 -5.37869 7.30207 225.197 27.6682 571.001)
(275.037 63.6943 8.09262 446.313 -5.7928 182.819)
(617.823 -29.6178 -0.649734 1646.82 12.3499 652.28)
(269.533 1.16516 2.38684 255.265 -3.79946 595.649)
(243.607 -0.0873918 8.24259 235.051 -2.62901 539.756)
(215.172 -0.0183653 1.55945 207.664 -0.261535 476.459)
(217.593 -0.0786083 1.84994 209.98 -0.386031 481.963)
(214.689 0.0210731 1.5214 207.18 -0.127818 475.413)
(214.469 0.036099 1.52576 206.923 0.00882112 475.034)
(-56.6753 28.0701 30.076 -63.7158 -17.3947 -56.2255)
(-59.5559 18.3465 58.2614 -34.0863 -6.88957 -61.125)
(-144.07 58.6241 148.178 -137.345 -97.1475 -123.397)
(-393.082 89.5421 378.313 -382.525 -118.337 329.659)
(-205.49 188.893 302.399 -242.5 -164.818 158.511)
(-72.921 13.4892 72.4789 -21.6543 -4.51355 -68.6995)
(-733.483 125.304 303.288 -28.9778 -937.249 -2103.97)
(-220.195 117.796 189.002 -164.017 -111.169 -46.0083)
(170.513 -0.836139 -5.28512 160.271 -3.84612 357.506)
(168.867 0.938278 -4.0542 158.239 -2.41006 354.372)
(161.142 -0.802537 1.90928 149.958 -0.474821 338.514)
(161.136 0.903459 1.99551 149.921 0.16405 338.472)
(62.3558 35.534 44.6114 78.8699 12.0137 55.2856)
(-35.5469 8.82232 40.143 -29.744 11.3722 -83.6685)
(87.0747 0.781344 123.12 87.6308 65.5891 151.055)
(-2.79369 383.245 58.1798 214.715 104.625 80.1141)
(208.43 0.156618 33.163 199.807 28.9919 523.034)
(637.742 -68.2956 28.1945 758.485 371.526 210.666)
(90.1747 18.665 59.8274 82.8789 159.714 226.563)
(387.231 -2.30926 48.312 565.733 54.7998 294.787)
(344.224 156.863 34.3867 1180.72 84.012 416.982)
(642.415 -77.9186 6.19229 1544.45 -3.54584 608.319)
(56.9594 404.811 9.8434 772.241 49.4734 233.771)
(648.234 -99.6275 64.6662 1366.82 127.779 494.697)
(345.133 41.8945 -11.8548 545.556 25.6986 230.828)
(53.0925 348.884 59.4591 674.803 71.2684 191.613)
(1100.65 -82.2701 6.04951 1496.47 -10.3127 767.626)
(1074.65 -112.01 81.5784 1419.01 27.2089 710.846)
(-29.8429 7.77479 49.2601 -11.0703 10.441 -47.1816)
(174.252 -4.02075 35.743 170.673 32.234 431.416)
(84.2157 8.50802 76.8529 83.5041 89.6649 196.401)
(-86.1107 616.64 -0.553045 299.179 64.2266 50.9821)
(-61.9452 475.333 26.9497 241.816 89.1846 35.5944)
(266.72 -11.7277 -99.5629 178.353 60.7334 484.619)
(-683.88 65.5338 265.114 264 -3.03894 -3253.45)
(236.288 -48.5942 -55.7363 124.233 97.9114 450.848)
(209.033 0.989834 22.3813 216.864 32.3576 504.405)
(257.809 -3.86942 12.3345 253.689 17.865 609.697)
(295.46 -0.029686 -7.083 273.962 1.72712 651.063)
(246.938 -21.6652 -49.3471 128.082 61.685 448.857)
(251.02 -8.34522 3.12798 227.162 30.3578 572.621)
(184.398 -0.367331 27.2841 190.119 29.6546 444.947)
(302.533 -73.1676 -24.3399 254.417 43.5795 714.059)
(238.586 -9.31822 15.5254 237.56 23.503 560.313)
(315.46 53.6537 8.23866 483.973 -6.02125 207.801)
(394.134 199.848 3.07842 1403.85 10.9324 521.136)
(638.297 -68.1807 2.80329 1540.7 -5.43534 623.426)
(121.204 388.859 -7.00368 846.891 29.4314 255.06)
(447.122 16.3007 -4.15796 632.056 15.4999 299.274)
(622.906 -33.8661 5.07715 1619.88 25.0543 645.717)
(136.647 395.661 9.08345 850.74 4.39395 276.038)
(-29.9401 593.392 0.86232 383.111 1.7427 100.584)
(1150.62 -55.5541 -1.827 1618.61 7.61008 817.838)
(1091.05 -77.3504 2.04741 1485.91 -8.96945 756.921)
(1137.08 -57.8004 2.35998 1588.04 15.7651 800.518)
(-35.793 586.979 -1.52334 380.194 44.8268 83.6005)
(-18.9964 586.133 0.638541 399.92 12.3558 105.816)
(286.643 1.59348 -7.4392 269.384 -4.06832 631.684)
(211.641 -0.151004 -31.4847 194.49 -1.58553 429.407)
(246.012 0.324561 -0.562233 237.057 -2.20293 537.076)
(223.537 -0.252078 2.96452 216.688 -0.94902 496.037)
(236.806 -1.3908 6.31475 229.583 -3.15212 526.369)
(209.549 -0.0539406 -30.278 192.177 -0.589444 426.429)
(235.062 -0.455388 -4.17099 226.624 -0.671795 518.21)
(242.739 -0.996619 -1.39908 233.785 -1.33438 532.635)
(163.644 0.770814 1.02452 152.231 -0.0533663 343.618)
(163.921 -0.932381 0.96515 152.492 -0.707875 344.125)
(222.142 -0.173952 2.70111 214.874 -0.631476 492.674)
(218.618 -0.126024 2.00947 211.036 -0.480859 484.329)
(228.739 -0.0427795 -5.66408 220.214 -0.182455 504.889)
(206.204 -0.176094 -28.5976 189.126 -0.0566743 424.438)
(230.826 -0.121658 -5.4236 222.094 -0.309706 509.334)
(234.074 -0.320074 -4.51749 225.417 -0.397022 516.146)
(206.637 -0.161356 -28.6909 189.495 -0.199954 425.169)
(231.584 -0.193067 -5.24846 222.842 -0.299031 510.92)
(228.283 0.00993262 -5.68317 219.778 -0.160393 503.943)
(203.62 0.0316152 -28.0746 186.923 -0.144272 419.805)
(228.047 0.0210772 -5.65935 219.523 0.0566309 503.618)
(214.881 0.0835742 1.57051 207.182 0.0949453 476.065)
(203.662 0.00818043 -28.0358 186.894 -0.00515392 420.014)
(228.442 0.0650071 -5.6307 219.768 0.0260198 504.644)
(-281.306 -37.3767 -4.16205 -266.641 -2.50952 95.6623)
(-174.881 -49.409 160.368 -135.702 6.81912 84.9067)
(232.575 -0.0217915 13.1268 223.638 1.60108 529.986)
(231.95 -1.39423 13.9454 220.107 6.17615 528.954)
(226.098 0.9792 13.3296 219.733 -2.5446 512.412)
(221.844 1.33828 14.5305 216.964 1.45583 502.493)
(177.022 0.0480229 8.29759 175.561 -0.228482 407.786)
(177.797 0.0222324 8.33512 176.319 -0.387381 409.56)
(176.536 0.0164058 8.24971 175.068 -0.20154 406.692)
(176.271 0.0437094 8.18382 174.799 -0.0600834 406.106)
(-82.376 44.9196 12.8598 -80.4799 -2.80157 -61.9507)
(-38.1113 18.3381 10.7314 -45.1476 -15.8947 -58.2023)
(-52.6018 13.5014 22.5482 -51.7326 -2.79982 -117.435)
(-51.6164 42.1716 -3.34851 -54.7681 -47.9128 -136.372)
(-57.6264 27.9365 -8.37556 -72.5252 14.8589 -121.291)
(-57.8441 19.4579 33.6386 -53.3229 -12.7972 -82.9893)
(-48.8972 44.4664 -4.59487 -70.5064 -19.7778 -68.2074)
(-344.134 -61.196 81.8131 29.1901 60.9323 -259.757)
(15.8076 -35.6014 27.9228 32.5224 16.8537 52.4161)
(-27.5198 -11.4766 46.8551 3.14926 38.5888 -9.23924)
(-35.0241 -5.05774 16.4707 -50.9568 -3.34758 -77.0398)
(-29.1454 -36.8632 -41.2952 89.0009 1.1693 79.5687)
(211.246 -114.172 -148.318 15.7183 -149.393 -64.0474)
(-53.9473 -31.2402 67.1422 22.0655 69.553 4.41232)
(101.826 4.87298 -40.91 70.0417 -0.702286 133.287)
(194.643 -1.64802 -13.7547 182.632 -10.8804 404.28)
(41.2156 1.36774 -12.9452 37.7643 -1.61558 84.1563)
(166.173 0.868954 -0.856577 154.997 -0.773494 349.186)
(14.4042 -0.131488 2.48013 20.4468 -0.175724 53.6488)
(15.1588 0.129055 2.04595 21.0517 -0.344387 54.731)
(11.0272 0.116478 4.13656 18.1602 -0.0767675 49.5017)
(161.528 -0.811501 1.66675 150.464 -0.536919 339.681)
(9.61405 -0.0743103 4.76768 17.3247 -0.0560696 48.1047)
(161.044 0.826322 2.43495 149.828 -0.0937682 338.868)
(6.60268 0.121351 6.07675 15.5754 -0.202089 45.6216)
(-119.083 52.1823 69.7286 -148.589 -7.22013 -245.352)
(10.8637 33.6494 43.8527 -6.19122 -12.6619 -45.019)
(-38.8145 8.90364 31.2529 -55.6799 -1.11584 -162.741)
(-49.5015 45.8878 -1.43688 -50.1408 -54.5691 -154.559)
(-43.0016 23.8607 -10.6852 -80.7328 13.3555 -173.171)
(8.84705 12.7075 79.8553 -23.9411 -2.77579 -106.488)
(94.957 118.622 77.9223 47.1588 -5.67248 -92.8265)
(472.894 141.436 -19.8581 252.118 42.3927 967.528)
(246.378 12.7277 20.2001 185.93 69.9548 644.973)
(300.728 -8.42689 18.1226 213.342 -15.995 744.062)
(243.004 27.5383 52.3506 126.018 191.313 630.642)
(30.7144 -5.75246 36.636 51.0788 20.5492 115.364)
(135.791 -19.2101 72.5969 140.743 43.1345 303.277)
(12.3953 -0.741519 49.2882 26.65 44.0855 22.715)
(101.928 -3.78788 39.1572 106.738 53.4779 279.601)
(-68.3128 -29.0324 -27.0428 5.98317 30.8094 -72.9575)
(140.628 -3.53185 -8.57464 153.359 54.5304 337.668)
(55.85 -4.41925 52.2356 66.9092 48.0099 130.408)
(130.255 6.34054 -54.76 84.5535 -0.230922 154.445)
(267.82 12.0584 -73.0179 230.902 3.23605 536.42)
(280.278 12.0833 -121.737 158.842 3.72372 261.19)
(-336.564 -173.141 88.4276 463.725 219.581 -161.173)
(20.8896 -25.9778 52.0274 72.8539 -4.71579 30.9755)
(-148.44 25.0877 82.7081 -13.6412 36.1432 -413.828)
(-41.3241 -50.6607 97.5586 31.9332 130.795 -43.9493)
(-140.132 28.8998 61.8175 -313.857 -145.51 -680.725)
(-70.3149 -70.1602 27.5285 91.1637 85.947 -58.7864)
(-205.238 -82.6665 173.747 9.838 253.055 -362.764)
(300.601 3.48032 -27.1078 274.087 2.17998 650.418)
(300.014 7.75756 -59.1901 247.027 6.17358 573.817)
(300.702 1.76999 -29.0301 264.745 9.70676 637.469)
(139.904 -7.19552 16.9528 161.181 9.96426 354.979)
(120.328 -16.0837 77.9549 142.224 -28.8546 237.677)
(124.863 -1.8749 37.8893 143.308 30.3379 364.242)
(62.4893 -20.8642 78.9902 111.761 55.9838 198.188)
(184.309 -0.119143 -10.1916 203.312 8.42248 440.667)
(6.63711 -39.0614 51.1079 74.8841 36.8233 66.8241)
(125.723 -10.4207 43.9551 159.438 34.7207 358.902)
(287.074 3.4791 -22.8851 268.917 -4.97512 631.04)
(242.004 1.02693 -38.6331 218.812 -5.70234 486.83)
(262.731 2.37267 -18.3929 252.436 -8.22747 580.416)
(186.326 0.178566 9.03564 185.177 -0.688953 428.439)
(188.076 0.0954134 8.83543 187.445 -1.26643 431.721)
(208.294 -0.269822 -29.3001 190.87 -0.252609 426.498)
(229.857 -0.327843 -14.3918 225.457 -0.0400593 520.911)
(230.201 -0.393157 -14.2891 225.5 -0.195 520.149)
(11.0059 -0.143012 4.14308 18.1466 -0.048995 49.4888)
(162.702 0.747699 1.39056 151.548 -0.0132344 342.136)
(10.556 0.111152 4.36378 17.8999 -0.0951142 49.0856)
(14.595 0.0978467 2.4927 20.485 -0.180576 53.6146)
(164.626 -0.829786 0.640451 153.295 -0.791211 345.943)
(12.4144 -0.0671023 3.49612 19.132 -0.134726 51.3064)
(185.137 0.0950038 9.1056 183.693 -0.652676 426.204)
(183.811 0.0694619 8.9989 182.264 -0.59715 423.374)
(226.947 -0.0570198 -14.5731 223.47 -0.130107 518.016)
(205.176 -0.154266 -28.4617 188.379 -0.0803181 422.738)
(227.431 -0.0884678 -14.5847 223.918 -0.21462 519.013)
(229.741 -0.276676 -14.4702 225.518 -0.00162326 521.725)
(207.287 -0.169419 -28.8721 190.026 -0.158622 426.021)
(229.547 -0.229656 -14.5129 225.458 -0.0155184 522.064)
(226.515 -0.0450155 -14.535 223.081 -0.176857 517.125)
(203.944 -0.0174692 -28.2298 187.308 -0.135475 420.405)
(226.187 -0.0153171 -14.4812 222.813 -0.0641585 516.48)
(178.165 0.23543 8.5741 176.079 -0.240898 410.844)
(203.836 -0.147115 -28.0719 186.752 -0.332224 420.969)
(226.906 -0.0546423 -14.3418 222.915 -0.50528 519.08)
(-318.584 -33.5806 3.7803 -270.109 -11.6034 -67.4138)
(-337.178 -81.1122 48.7025 -184.467 50.7374 -114.204)
(-123.786 8.99416 91.0802 -105.812 -26.6812 -83.542)
(-156.963 68.1446 25.1354 -112.422 -10.1683 -81.9937)
(-207.003 36.6048 24.1753 -189.414 -2.77114 -71.5931)
(-172.766 -33.1216 99.1481 -151.55 -0.897534 -15.9978)
(-383.247 -11.7785 -24.3201 -290.835 22.2702 -135.431)
(-324.368 -27.5395 4.09947 -340.515 -17.3842 25.324)
(-726.534 0.0373648 4.23528 -601.099 -9.02429 -281.045)
(-188.111 7.82249 233.717 -248.973 -120.172 65.8429)
(-368.359 26.1555 45.3889 -593.695 -29.5421 -51.5027)
(-142.117 -47.7999 199.375 -126.977 -17.7913 80.9384)
(-308.128 -15.4002 14.4395 -346.727 -15.8216 -15.0431)
(-273.93 146.662 80.3994 -425.177 -80.8617 -92.6406)
(-127.272 19.2869 127.353 -152.111 -71.7408 -95.1021)
(-148.033 52.6967 207.932 -242.744 -144.575 -37.8303)
(-205.097 46.8457 26.7561 -221.73 -11.0261 -48.0402)
(-310.85 70.4433 52.1875 -612.882 -22.4461 -34.3448)
(-143.192 -5.59388 147.238 -177.249 -61.2499 -27.0302)
(139.259 60.571 156.896 659.053 248.096 288.629)
(455.461 -27.5757 131.717 1061.13 148.99 417.957)
(174.844 5.69947 42.7483 361.254 182.479 193.123)
(-35.2053 198.497 104.849 462.524 148.623 138.836)
(159.199 97.1339 199.3 504.491 160.941 285.186)
(232.786 -10.0235 117.853 607.008 327.785 224.092)
(79.328 100.142 127.254 776.454 194.153 222.518)
(151.871 33.019 134.844 414.079 203.186 328.936)
(102.434 27.5766 9.35777 152.116 179.181 124.58)
(130.466 24.7601 146.988 157.596 117.374 244.154)
(148.927 4.31513 118.233 177.601 183.214 333.519)
(220.466 41.4967 175.258 332.345 130.644 272.442)
(175 -4.80577 93.3555 269.115 290.679 329.483)
(148.125 16.608 138.219 213.625 165.673 356.208)
(229.319 -6.09357 16.2896 202.024 32.3721 529.874)
(231.774 -2.92332 15.6386 218.298 10.7886 527.536)
(258.556 -0.210613 11.736 245.388 1.06057 582.047)
(277.45 -1.60739 3.10763 257.703 6.80499 618.581)
(257.613 -1.54528 12.0013 242.502 6.58073 581.785)
(239.332 -3.70353 13.8486 216.409 28.0623 557.436)
(268.903 -3.73704 4.35269 249.484 13.1602 603.097)
(252.044 -2.95514 13.0147 236.423 11.8434 571.61)
(506.368 82.2435 9.57275 1192.24 3.56821 488.852)
(-15.3172 280.078 21.209 622.177 -0.841749 165.44)
(121.375 238.705 23.5167 1099.03 8.57524 349.64)
(250.463 0.790888 11.1208 240.409 -3.62742 559.944)
(257.696 2.75217 3.9001 247.183 -3.18996 567.89)
(242.491 2.09204 11.7895 235 -0.47141 540.663)
(219.104 -1.1503 13.4535 215.079 -5.24315 505.872)
(225.78 0.312215 15.4269 220.425 0.717169 517.902)
(249.806 2.29553 7.12399 240.447 -2.53233 551.358)
(237.144 -0.739412 14.3593 230.522 -3.74917 537.182)
(242.023 1.47775 14.3805 234.302 0.0180499 544.309)
(179.727 0.0136872 8.60248 178.209 -0.48533 414.038)
(178.689 0.0346253 8.43967 177.177 -0.380688 411.641)
(199.365 0.0183657 8.15509 194.311 -0.281071 447.774)
(215.939 -0.0407412 1.63967 208.387 -0.357245 478.283)
(200.175 -7.20978e-05 8.20649 195.093 -0.390481 449.715)
(202.004 -0.027657 8.45828 196.891 -0.44724 453.903)
(216.754 -0.0429868 1.73437 209.145 -0.322218 480.137)
(201.053 -0.00669105 8.31133 195.931 -0.373458 451.76)
(198.868 0.020484 8.10626 193.802 -0.148342 446.664)
(214.49 0.0339135 1.51882 206.987 -0.0526561 475.093)
(198.658 0.0335217 8.0604 193.586 -0.0605594 446.282)
(176.24 0.0739889 8.23663 174.747 0.0730761 406.067)
(176.174 0.0293152 8.17311 174.71 -0.0798168 405.889)
(214.413 0.0202402 1.51975 206.914 -0.0513181 474.953)
(198.62 0.0579245 8.09943 193.521 0.0158088 446.175)
(198.573 0.0322272 8.0553 193.506 -0.0612571 446.108)
(-102.223 50.0234 15.4025 -98.8174 -5.95243 -63.0913)
(-44.0716 23.4398 19.1623 -55.1766 -16.228 -51.6251)
(-86.5789 22.1919 66.3838 -86.2344 -31.241 -83.2922)
(-107.86 53.6206 20.5004 -116.131 -13.4008 -80.2279)
(-174.016 51.3258 24.8327 -165.586 -5.32319 -67.3574)
(-67.6199 22.5336 48.422 -67.4621 -24.1764 -78.0021)
(-50.272 48.3243 1.99111 -78.0877 -16.0642 -51.0165)
(-98.784 50.2528 19.3337 -82.9054 -7.04316 -63.6819)
(-54.657 16.3188 39.5128 -45.2124 -2.14141 -85.7773)
(-60.0686 20.3807 11.4787 -3.35318 -2.07265 -18.7908)
(-89.0349 30.7266 87.9236 -59.1667 -31.4198 -92.2214)
(-194.88 79.2438 39.9743 -89.0748 -15.567 -98.2269)
(-47.0816 25.0232 -4.57588 -49.5508 12.5354 -78.2938)
(-68.5397 25.1277 59.8753 -57.0913 -21.3759 -78.5677)
(-120.951 58.4686 16.9985 -107.008 -9.52275 -67.6715)
(-312.083 200.271 49.8978 -393.7 -46.7557 -118.97)
(-112.224 34.2428 103.715 -118.691 -64.7736 -102.726)
(-122.342 45.0166 113.961 -98.132 -63.575 -125.573)
(-176.88 63.1124 26.1852 -187.96 -10.3396 -50.7628)
(-243 112.338 30.6104 -138.282 -20.7784 -117.482)
(-88.0705 30.8834 78.1896 -83.1305 -43.1844 -92.7115)
(-907.194 18.1883 57.0575 -696.169 9.72638 -464.419)
(-79.4662 79.7751 452.299 -221.02 -302.447 97.1194)
(-438.427 63.2294 49.061 -728.04 -15.9069 -125.597)
(-314.169 389.047 833.865 -110.216 -753.314 1446.59)
(-906.372 1156.42 -102.802 425.83 262.04 1880.88)
(-347.891 348.395 75.6633 -531.354 29.4718 -22.2976)
(-128.044 199.763 420.13 -342.811 -222.736 210.032)
(-434.307 428.799 384.763 -225.033 -82.2547 1029.28)
(-364.898 275.068 157.052 -818.543 -14.2494 -28.4598)
(-583.139 893.774 -88.4833 -198.275 114.77 1056.02)
(-365.858 12.9198 83.0748 -17.5297 28.044 -217.448)
(-65.7553 -2.91914 67.9713 1.00482 27.107 -46.3177)
(-72.948 15.9636 12.8049 9.33668 -4.28338 -19.7018)
(-125.926 32.3851 117.836 -56.0243 -31.6637 -140.133)
(-239.332 82.615 49.8641 -69.9692 -20.1027 -111.137)
(-71.3044 -21.3264 -37.5634 43.9614 38.0174 10.8064)
(-126.44 8.75018 127.702 -17.8238 17.1506 -128.329)
(-482.814 -70.992 -31.1706 100.751 123.267 -215.895)
(-194.405 7.57761 70.1621 -84.1175 -113.234 -113.204)
(1453.42 -2374.84 971.143 -28.6101 -1346.66 -3744.4)
(-322.352 198.185 59.8928 -9.73125 -185.506 649.38)
(-1303.68 514.586 -370.655 327.053 101.025 194.664)
(794.266 -288.754 -374.555 355.29 -73.718 442.529)
(-140.585 18.8342 102.353 56.1845 72.3163 127.099)
(-502.831 131.413 60.1651 -58.6494 -6.62252 -146.302)
(-379.99 305.984 39.492 -435.931 4.69812 -104.283)
(-170.855 58.7149 146.011 -101.073 -71.4288 -170.562)
(-271.921 198.868 207.314 -67.8279 -104.333 323.983)
(-308.521 128.842 33.4262 -120.775 -28.0861 -140.1)
(-906.838 626.479 -185.369 -145.417 14.8515 326.764)
(-210.28 63.587 164.576 -58.6186 -27.4456 -146.045)
(183.049 -0.307841 -10.8465 172.662 -8.39888 384.863)
(22.2265 0.104418 -2.39392 26.2729 -0.958099 64.1737)
(36.3224 0.81379 -9.41967 34.6986 -1.51649 78.3092)
(166.673 -0.692052 -1.35212 155.559 -1.64857 350.135)
(20.8499 0.239239 -1.28535 25.1035 -0.80371 61.982)
(15.6962 -0.000190113 1.61988 21.5421 -0.415232 55.7178)
(161.398 0.815472 1.73843 150.341 0.146059 339.44)
(9.49126 -0.0852474 4.83776 17.2657 -0.0333658 48.1169)
(9.30049 0.136804 4.89753 17.1442 -0.0443433 47.8304)
(161.045 -0.773794 2.3462 149.876 -0.65138 338.872)
(9.14705 0.16922 4.98969 17.0684 -0.0765899 47.8386)
(7.10066 -0.0602067 5.88022 15.8825 -0.14689 46.0408)
(-181.224 190.035 29.4266 209.689 105.987 -9.50268)
(146.556 133.77 237.914 167.597 106.336 264.786)
(594.154 61.966 478.212 171.76 -24.0727 382.079)
(30.6941 42.4625 46.2083 43.577 6.82704 39.0033)
(57.06 41.2761 94.4123 67.2979 49.6683 90.23)
(155.737 80.8304 67.731 208.891 33.7369 148.228)
(-356.417 160.817 88.0312 -32.5352 111.247 57.2521)
(46.9365 30.6447 103.615 45.8969 12.6046 64.6117)
(173.858 189.612 155.056 193.071 77.5038 147.716)
(-63.986 12.9694 46.304 -134.578 -24.1309 -264.176)
(-40.4471 5.87752 34.3581 -49.656 7.71255 -139.715)
(-42.6623 9.68714 0.0180328 -3.96649 4.36332 -33.9137)
(-14.1167 0.0994479 52.7958 -25.1744 24.6974 -111.637)
(-35.1132 18.8432 -13.5475 -60.1273 14.073 -131.61)
(-29.3187 -12.9971 2.32523 -33.3374 27.3157 -127.708)
(-8.96628 0.765388 69.9342 -39.7488 6.65281 -148.408)
(439.104 -90.1374 367.971 172.429 -122.818 196.849)
(149.966 9.02965 69.5625 28.5259 89.8715 156.519)
(85.4523 27.6628 139.045 78.654 62.5395 156.255)
(43.8325 -3.4154 101.519 23.21 35.7973 -12.1565)
(273.102 87.2672 213.106 206.37 116.269 238.838)
(-29.0984 -20.7071 21.5541 -40.6104 26.4586 -142.778)
(59.9081 14.4468 127.412 27.9785 19.9205 20.6625)
(266.225 94.8399 165.953 304.636 62.4242 201.705)
(52.4908 197.429 85.6207 223.504 58.9297 141.449)
(-837.178 251.327 76.6468 -191.276 90.323 -206.844)
(1040.99 -108.841 79.8176 1275.52 31.1088 732.754)
(658.188 -111.111 -2.12117 987.74 330.804 461.79)
(133.831 124.383 -209.355 -47.276 313.209 817.411)
(620.074 -203.396 113.008 1364.25 393.303 485.267)
(161.431 -12.8001 105.31 163.472 220.343 327.023)
(421.82 121.952 63.4591 320.045 443.456 413.832)
(173.618 29.2892 72.5623 139.967 297.337 335.393)
(404.773 81.2245 27.8032 168.936 21.984 893.974)
(228.636 9.14509 27.2827 217.373 38.1309 603.995)
(193.573 14.4979 9.68202 173.713 -1.62232 492.233)
(213.044 11.091 47.1994 184.337 54.851 558.963)
(209.058 36.1585 31.663 170.512 2.39676 528.999)
(239.697 23.9111 20.0344 214.519 -20.807 633.776)
(254.388 15.0076 44.5765 208.232 84.5812 684.941)
(829.922 -60.9671 112.263 1254.7 67.3928 594.671)
(1440.43 -375.82 153.724 2863.87 71.0072 1245.81)
(674.499 39.4052 45.4017 690.949 496.672 275.359)
(330.553 122.198 -49.3633 232.353 194.836 1028.99)
(25.6359 76.1049 -96.772 -113.336 301.205 75.0114)
(121.673 2.58099 64.8396 111.651 214.948 231.045)
(166.774 25.3107 47.4742 132.161 125.831 452.039)
(471.707 -44.9227 -13.6876 853.206 302.693 408.2)
(210.556 55.1419 32.4554 149.005 23.2055 562.603)
(171.605 20.4297 44.4855 103.499 209.607 441.829)
(74.5286 169.739 73.4486 1006.63 57.6468 266.358)
(489.201 -1.30665 99.5175 1141.03 77.2938 434.314)
(325.9 30.4311 37.2886 530.684 14.1401 230.178)
(-31.6771 208.434 96.5798 563.394 86.6732 121.283)
(95.8547 145.138 117.687 937.343 116.192 254.176)
(497.288 14.9827 74.807 1179.9 38.16 463.727)
(-84.4958 247.77 82.5581 562.295 42.6911 106.915)
(75.3715 185.616 49.5678 1069.11 41.1884 313.98)
(250.27 53.8622 31.9158 465.664 7.93595 163.925)
(518.395 21.9717 -7.55341 1219.32 3.04541 489.016)
(-94.4752 263.638 -33.842 605.006 32.3478 123.548)
(495.954 20.7563 32.5208 1213.26 17.4037 484.043)
(-138.265 269.598 48.7161 582.863 31.7802 119.542)
(93.601 186.73 -20.9553 1084.95 15.7372 313.656)
(1052.48 -105.596 82.6102 1250.4 52.1783 671.795)
(1087.6 -89.4371 33.8276 1310.18 10.2979 721.614)
(1110.3 -86.3514 20.9387 1502.32 2.33719 775.024)
(1014.17 -30.2649 3.11882 1431.09 -20.0058 713.555)
(999.745 -34.2469 32.7866 1433.98 14.6816 712.219)
(937.372 -65.7515 102.131 1331.45 47.7933 636.024)
(1060.87 -80.057 36.5236 1410.31 39.491 716.371)
(984.279 -34.0317 48.1963 1404.95 16.7257 702.262)
(1106.34 -86.8084 -1.54875 1335.96 -15.2489 716.631)
(1095.1 -91.7169 31.5431 1337.67 16.6623 720.805)
(24.0375 -4.5748 36.2177 53.1411 -1.05415 105.72)
(-17.6373 -0.307803 48.2782 7.58865 23.41 -35.114)
(-50.7328 6.1165 6.05145 10.3434 -3.18066 -22.7601)
(4.05894 5.35651 52.605 5.65608 29.2486 -15.2906)
(-103.064 -19.3573 -25.6085 -20.9145 7.77824 -115.498)
(-12.776 -9.16159 4.56 11.6129 31.1846 -28.3777)
(23.5204 2.86777 58.3598 34.005 29.5183 46.577)
(65.9567 1.47892 25.1289 83.7446 15.0693 203.409)
(139.51 -6.73051 35.6006 138.683 41.9907 348.452)
(167.762 11.7361 12.8786 161.584 0.780938 442.99)
(159.465 3.32694 49.2132 149.903 44.2778 407.112)
(156.155 27.4451 30.4323 146.734 6.24745 429.583)
(139.943 0.409994 4.41027 151.54 40.7098 349.539)
(106.323 -3.00273 50.5296 109.131 42.0246 263.742)
(55.0189 1.83729 24.7899 80.9654 6.46189 180.779)
(68.3379 38.5998 -7.35774 -52.2851 137.999 136.15)
(44.6559 2.13261 68.3919 43.0596 52.017 72.4589)
(127.808 12.9577 57.3606 119.975 69.1909 338.402)
(-5.96034 -10.7625 16.143 12.4432 38.8268 -24.034)
(153.13 36.5212 35.5653 142.194 13.1341 442.888)
(74.9343 4.8182 57.7005 77.542 44.0832 186.182)
(-200.818 207.108 54.2777 183.538 97.8034 -33.0576)
(-299.636 249.175 62.6625 214.261 28.4125 -60.2586)
(27.5728 212.19 -15.7014 226.208 50.5901 29.3887)
(-110.339 616.132 13.9376 245.193 60.4971 30.9115)
(3.80276 211.071 32.8822 181.722 45.6739 4.0392)
(-276.378 249.574 -59.3649 259.876 53.8339 -49.4338)
(-356.55 268.983 73.4624 176.545 29.5819 -82.8759)
(-107.368 207.968 35.4972 118.468 95.73 -18.6648)
(-90.8304 560.227 32.8382 251.882 71.7544 38.0688)
(50.5737 181.361 66.2565 218.724 48.3162 41.1426)
(274.426 13.354 -84.8735 232.029 7.84741 537.378)
(588.851 14.3592 -235.867 234.84 44.8884 465.363)
(348.907 13.7438 -150.872 194.358 5.88815 308.842)
(-657.654 -265.038 256.675 607.334 218.266 -258.848)
(-595.817 23.0302 318.678 -103.573 55.8148 -1169.24)
(-1931.14 1640.33 266.97 -8011.55 -668.954 -20743.3)
(-526.603 -143.169 -483.324 15.2428 1097.27 -36.9278)
(-330.13 304.825 145.659 -205.836 -183.675 -724.606)
(-5468.91 -1176.28 423.117 -699.036 409.709 -2255.16)
(-416.986 -199.541 378.52 -36.2837 532.92 -980.575)
(-110.288 -177.259 102.121 669.946 114.039 338.879)
(59.1019 -12.4806 125.364 95.2189 150.653 129.2)
(627.226 -14.9309 -232.522 361.608 41.245 639.066)
(-41.0893 -94.8912 -6.90269 230.343 71.9314 71.4198)
(-70.4226 -84.7708 235.534 102.076 395.872 -118.945)
(-355.875 -263.003 219.973 762.331 130.078 259.283)
(4.19078 -1.41936 -253.431 595.854 1021.34 446.531)
(2724.54 -1012.59 -1345.44 5289.91 146.294 7401.57)
(-149.754 -88.1172 298.827 69.6123 614.387 -363.899)
(294.654 -4.43454 0.340433 409.131 53.4299 564.034)
(283.489 1.00101 4.14959 267.302 12.6287 671.775)
(278.779 6.5423 9.98381 258.05 44.5756 676.577)
(275.654 4.21004 -2.62595 396.641 48.2717 563.198)
(274.314 -0.628145 13.1213 264.827 15.1788 645.256)
(243.927 -0.218552 17.4434 238.924 32.2724 602.407)
(264.019 0.387307 4.77005 339.35 37.2126 544.72)
(264.85 2.674 13.5427 250.048 37.8144 643.416)
(306.141 1.16392 -19.2788 280.788 2.69988 667.382)
(293.274 -1.77365 -5.67557 269.031 7.52108 646.807)
(303.048 -0.819901 -18.3924 272.631 8.86757 655.311)
(301.106 7.40833 -61.1089 228.254 14.4766 547.713)
(245.305 -10.8152 -14.7413 195.546 42.6336 507.082)
(287.503 -2.75794 -25.9426 243.541 20.5721 596.476)
(281.437 -4.63013 -3.16238 257.145 14.9229 624.366)
(248.878 -11.0495 -3.62776 217.102 35.8553 548.646)
(287.587 -5.05328 -14.2162 254.674 17.7391 621.679)
(148.527 -1.2708 9.76382 166.601 17.6644 401.247)
(161.284 -2.11069 25.8808 165.731 28.6179 404.36)
(177.927 5.01341 14.0107 187.338 12.5216 439.507)
(197.775 1.939 28.4127 206.419 35.9007 478.782)
(176.861 2.18164 -6.87631 198.016 8.51314 437.241)
(181.603 3.71047 25.2674 183.977 25.432 456.896)
(169.757 -0.941775 28.2675 181.674 30.3491 415.91)
(161.099 -0.415839 -9.84048 255.568 8.07607 404.697)
(165.184 -49.6317 44.299 179.578 116.902 466.528)
(186.857 -31.0544 19.4355 176.086 38.4565 440.242)
(79.0472 -33.6092 37.2807 190.481 43.2954 147.956)
(136.54 -24.8667 39.2264 161.358 37.9855 387.793)
(146.229 -5.51179 3.36056 259.668 13.0361 389.528)
(216.101 -3.19583 27.2734 217.336 28.7084 531.117)
(218.842 -15.3881 14.2587 215.126 30.2109 496.22)
(247.63 1.27573 10.0271 314.328 30.7341 522.46)
(185.272 -8.46476 27.1896 189.652 26.5879 446.951)
(164.92 206.126 29.2421 1113.27 6.19005 347.312)
(371.269 48.8093 13.1591 532.039 -7.5664 240.448)
(522.88 72.6225 17.1229 1187.45 4.09142 485.024)
(17.2402 261.872 9.47047 645.501 -3.74992 171.491)
(142.757 225.606 8.93018 1106.35 -3.39362 348.607)
(542.965 56.9846 17.759 1186.1 -0.0644965 487.411)
(45.2561 242.346 26.5842 667.391 -5.19501 177.678)
(167.821 190.802 -5.61711 1111.32 -5.05747 332.021)
(426.472 33.8165 11.3797 586.436 -6.1022 281.196)
(549.623 24.4997 -9.43262 1207.97 -9.14066 483.654)
(25.5796 230.667 -16.6008 673.535 16.3561 152.328)
(145.373 184.918 -4.33174 1111.91 13.696 323.896)
(556.085 39.0518 9.27712 1189.72 -8.18848 484.818)
(62.9029 226.863 -2.9936 681.265 -2.58123 169.394)
(-185.287 252.196 25.388 275.415 -4.14758 8.58477)
(74.1399 206.242 11.6007 285.761 0.41984 91.6744)
(1043.92 -53.6381 6.01963 1301.6 8.78522 681.063)
(1000.69 12.9012 5.30492 1451.75 11.1876 714.615)
(1045.99 -53.541 -2.68214 1296.51 -1.94367 676.999)
(1053.67 -57.5065 9.51115 1289.43 3.32507 674.081)
(1012.06 -25.2236 0.639183 1418.47 -14.9418 705.515)
(1092.35 -70.7526 3.05141 1496.41 7.40233 756.895)
(1000.96 -6.09111 10.1962 1399.7 -0.762273 698.2)
(1101.41 -79.8697 5.08423 1321.39 -7.50738 704.321)
(1060.07 -60.4181 2.03954 1280.69 -8.85757 676.793)
(998.828 11.8667 5.25549 1441.85 7.7907 707.646)
(1113.04 -63.4971 4.19732 1539.51 17.9232 776.416)
(1000.17 0.0441305 10.9529 1410.13 9.66295 700.633)
(-159.319 242.262 1.99346 299.487 -3.14425 22.0261)
(-127.292 220.811 27.0168 342.58 -3.29321 31.6209)
(39.1358 211.212 -4.16997 278.518 32.5958 64.5392)
(-16.6703 576.726 2.93299 415.508 31.1742 102.116)
(81.4382 198.558 2.29945 316.747 16.5542 88.579)
(-185.099 223.673 -25.0661 327.138 44.1619 -1.02311)
(-113.673 212.919 0.0735406 358.287 -0.312445 34.9825)
(88.723 199.574 -0.429667 305.342 8.24146 97.7221)
(-13.5109 580.812 2.12322 413.652 14.101 107.863)
(99.0435 194.887 14.1551 319.921 5.66705 98.1061)
(296.919 2.36121 -18.1372 277.465 -4.34256 652.066)
(270.331 2.90575 -5.36524 258.041 -6.05832 593.758)
(276.507 2.62698 -15.3035 263.698 -7.98764 606.834)
(221.085 -0.149947 -33.9125 202.536 -3.62306 446.962)
(231.488 0.153148 -14.8654 226.853 -1.47363 513.014)
(241.272 0.923393 -15.7904 235.649 -5.73782 532.717)
(254.894 2.31724 -2.07861 245.317 -5.28053 556.924)
(245.849 0.22496 -12.007 237.854 -1.86931 535.507)
(256.154 1.57908 -12.7453 247.457 -6.5077 558.71)
(203.488 -1.12086 10.4641 202.152 -5.80934 468.06)