/*--------------------------------*- C++ -*----------------------------------*\
| =========                 |                                                 |
| \\      /  F ield         | OpenFOAM: The Open Source CFD Toolbox           |
|  \\    /   O peration     | Version:  2012                                  |
|   \\  /    A nd           | Website:  www.openfoam.com                      |
|    \\/     M anipulation  |                                                 |
\*---------------------------------------------------------------------------*/
FoamFile
{
    version     2.0;
    format      ascii;
    class       volVectorField;
    location    "0.104/solid";
    object      sigmaMidDir;
}
// * * * * * * * * * * * * * * * * * * * * * * * * * * * * * * * * * * * * * //

dimensions      [1 -1 -2 0 0 0 0];


internalField   nonuniform List<vector> 
3124
(
(-0.393365 0.699177 -0.597005)
(0.655681 -0.605389 0.451205)
(-0.530881 0.845897 -0.0512253)
(0.981029 0.147069 0.126301)
(0.997031 -0.0769963 0.000175558)
(0.997625 0.0684042 -0.00811219)
(-0.530778 0.726172 -0.436978)
(0.999061 -0.0218021 -0.0374365)
(-0.0131552 -0.0493249 0.998696)
(-0.608268 0.792474 -0.0446647)
(0.975743 0.15853 0.150974)
(0.685444 -0.664901 0.29677)
(0.931068 -0.364809 -0.00525603)
(0.964896 0.190967 0.180299)
(-0.307292 0.946671 -0.0968798)
(-0.0395106 -0.0163481 0.999085)
(0.979954 0.111286 0.165242)
(0.991339 -0.0206293 0.129701)
(0.996607 -0.0818909 -0.00824532)
(0.997529 0.0702592 -0.000241224)
(0.991806 -0.00955904 0.127396)
(0.991471 -0.0179596 0.129081)
(0.991836 -0.00778556 0.12728)
(0.105759 0.799412 -0.591402)
(0.199611 0.96509 0.169579)
(0.584075 0.791449 -0.180179)
(0.801132 -0.332728 0.497473)
(-0.346409 0.755798 -0.555671)
(0.306759 -0.338385 0.889603)
(0.904528 0.02002 0.425944)
(0.707288 -0.703359 0.0709267)
(0.142318 -0.402878 0.904121)
(0.999909 -0.0110092 -0.0078312)
(0.974205 -0.225648 -0.00270116)
(0.941812 -0.309935 0.130115)
(-0.00801328 -0.0126531 0.999888)
(0.996563 0.0825967 -0.00633313)
(0.999612 -0.0017091 -0.0278154)
(0.99998 -0.002241 -0.00597025)
(0.999926 -0.00998508 -0.00701128)
(0.999979 0.00290913 -0.00583356)
(0.999971 0.0047828 -0.00585538)
(0.162185 0.756732 -0.633287)
(-0.043838 0.946924 -0.318455)
(0.520462 0.843857 -0.130477)
(0.470444 0.874933 -0.114782)
(0.580272 0.786749 -0.2105)
(-0.102108 0.962583 -0.251015)
(0.983608 0.057369 0.170951)
(0.517379 0.84589 -0.129576)
(0.995443 -0.0916779 0.0262406)
(0.996297 0.0828874 0.0228491)
(0.997425 -0.0708813 -0.0109285)
(0.996749 0.0797794 -0.0112931)
(-0.246465 0.768954 -0.589885)
(-0.456045 0.871845 -0.178634)
(-0.468215 0.883602 -0.00479451)
(-0.189573 -0.172839 0.966534)
(0.947653 -0.311391 -0.0706315)
(0.98416 0.0958205 0.149159)
(0.959326 -0.262057 -0.104975)
(0.929898 -0.107125 0.351873)
(0.170828 -0.141216 0.975129)
(0.975992 0.0845821 0.200711)
(-0.0568095 -0.0486435 0.997199)
(0.920367 0.0606437 0.386326)
(0.972545 -0.178952 -0.14877)
(0.0238088 -0.159432 0.986922)
(0.980523 0.196017 0.0123484)
(0.931785 0.274579 0.237452)
(-0.338525 0.911264 -0.23452)
(0.759015 -0.650624 -0.02416)
(0.769957 -0.637886 -0.0163596)
(-0.0955082 -0.0201479 0.995225)
(-0.14714 -0.0825207 0.985667)
(0.930928 0.169242 0.32362)
(0.992365 -0.0699454 0.101579)
(0.940153 -0.157354 0.302246)
(-0.230439 0.968908 -0.0900806)
(0.852913 -0.522042 -0.00341551)
(0.999802 0.000220007 0.0199054)
(0.968863 -0.0567891 0.240995)
(0.958909 -0.283171 0.0175411)
(-0.450136 0.891254 -0.0551634)
(0.814002 -0.567827 0.122364)
(0.740178 -0.67227 0.0137672)
(0.955518 -0.276537 0.102535)
(0.00350721 -0.0131759 0.999907)
(0.971481 0.0743796 0.225149)
(-0.067447 -0.00530262 0.997709)
(0.995765 -0.0841024 -0.0371281)
(0.23346 -0.0169018 0.972219)
(0.0147048 -0.017769 0.999734)
(-0.00203211 -0.00190017 0.999996)
(0.993206 0.116331 -0.00284813)
(0.982617 0.185642 0.00108514)
(0.992108 0.124702 0.013079)
(-0.0702767 -0.011656 0.997459)
(-0.0185485 -0.00503661 0.999815)
(0.995972 0.0868008 0.022495)
(0.989717 -0.0292462 0.14002)
(0.999362 0.035638 0.00220023)
(0.999314 -0.0353774 -0.0109937)
(0.983966 -0.176814 -0.0233911)
(0.9907 -0.0100878 0.135687)
(0.998365 -0.0552702 0.0145737)
(0.993925 -0.10998 0.00429213)
(0.997727 0.0671434 -0.0056612)
(0.996741 -0.0804708 -0.00565674)
(0.999682 -0.0231285 -0.0100344)
(0.999841 -0.0161653 -0.00759027)
(0.999775 -0.00553048 0.020494)
(0.991708 -0.0135773 0.127794)
(0.999701 -0.0147937 0.0194443)
(0.999153 -0.0379337 0.015945)
(0.991676 -0.0138098 0.128015)
(0.99956 -0.0229626 0.0187499)
(0.999787 0.000789863 0.0206039)
(0.991939 0.000997544 0.126716)
(0.999786 0.00264451 0.0205232)
(0.999924 0.0107923 -0.00601631)
(0.991972 0.000565626 0.126455)
(0.999763 0.0076541 0.0203722)
(-0.635304 0.772259 -0.00212991)
(-0.283709 0.939627 0.191337)
(0.998973 -0.0110214 -0.0439471)
(0.988631 -0.143974 -0.0433662)
(0.982562 0.180638 -0.0440742)
(0.961404 0.270351 -0.0511067)
(0.998199 0.0481348 -0.0357989)
(0.99889 0.0305876 -0.0358269)
(0.999158 0.0201162 -0.0357504)
(0.998621 0.0386848 -0.0355035)
(-0.0652927 -0.301977 0.951077)
(0.497473 -0.480418 0.722301)
(-0.568459 0.779182 -0.264066)
(0.766379 -0.507169 0.394262)
(-0.566449 0.70312 0.429835)
(-0.201899 0.826481 -0.525514)
(0.40182 -0.0824026 0.912003)
(0.547077 -0.0720744 0.833974)
(-0.392811 0.811967 0.431751)
(-0.649634 0.726389 -0.224355)
(0.248962 0.967884 0.0348933)
(-0.0796608 -0.626501 0.775339)
(0.0010413 0.79269 -0.609625)
(0.684439 -0.61495 0.391638)
(0.694225 0.516473 0.501305)
(0.98015 -0.190679 0.0542989)
(0.659 0.721484 0.212556)
(0.997038 0.0767433 0.00499263)
(-0.0189972 0.999797 0.00671083)
(0.0249152 0.999652 0.00870842)
(0.0164816 0.999864 0.00027377)
(0.99733 -0.0724035 -0.00955126)
(-0.00776639 0.999965 0.00302459)
(0.997209 0.073407 -0.0136182)
(0.0158976 0.999867 0.00350997)
(-0.353452 0.849055 -0.392654)
(-0.224688 0.815528 -0.533319)
(-0.28434 0.953984 -0.0952074)
(0.775826 -0.51476 0.36485)
(-0.415962 0.888499 0.193764)
(-0.0885676 0.988804 -0.120096)
(-0.433116 0.745214 -0.507017)
(0.898782 0.438393 -0.00173052)
(0.989575 0.124696 -0.0720586)
(0.995155 -0.0879938 -0.0438494)
(0.99058 0.0105239 -0.136534)
(-0.383887 0.92023 -0.0762093)
(-0.578785 0.814116 0.0471484)
(-0.661025 0.742959 -0.10516)
(0.737787 -0.673756 0.0415173)
(0.67296 0.495409 -0.549268)
(0.898626 -0.411166 0.153017)
(-0.631767 0.772511 -0.0640036)
(0.586404 0.635488 0.502281)
(0.864804 0.451523 0.219639)
(0.349135 0.841547 0.412194)
(0.52561 -0.152272 0.836987)
(0.354328 0.718424 0.598597)
(0.933061 -0.266576 0.241523)
(0.831189 -0.437509 0.34309)
(-0.0520837 0.940514 -0.335739)
(0.723364 -0.0645634 0.687442)
(0.89312 -0.217754 0.393599)
(0.986688 0.144179 0.0752263)
(0.959451 0.203156 0.195401)
(0.993646 0.0761317 0.0828975)
(-0.308686 0.950907 -0.0221289)
(0.0762953 0.973662 0.214851)
(-0.292422 0.952938 -0.0799914)
(-0.495436 0.861477 -0.111361)
(0.012635 0.999312 -0.0348744)
(0.620301 -0.618387 0.482519)
(-0.374352 0.92393 -0.0788317)
(0.981548 0.178826 0.0677058)
(0.988277 0.00844657 0.15244)
(0.979951 0.189506 0.0615091)
(0.972491 0.230205 -0.0355958)
(0.934 0.355838 -0.0319856)
(0.991167 -0.0221503 0.130754)
(0.99489 -0.0882387 0.0490676)
(0.99388 -0.0991021 0.0488017)
(-0.0177503 0.999835 0.00390964)
(0.997746 0.0666561 -0.007729)
(0.0156413 0.999877 0.00086093)
(0.018329 0.999824 0.00407067)
(0.997368 -0.0723986 -0.00384008)
(-0.00739157 0.99996 0.00499035)
(0.993604 0.106624 -0.0371907)
(0.996475 0.0752005 -0.0371926)
(0.99849 -0.0230537 0.0498572)
(0.991749 -0.0124261 0.12759)
(0.99813 -0.0354904 0.0497759)
(0.995731 -0.0780774 0.0492291)
(0.991589 -0.0139387 0.128674)
(0.996478 -0.0678199 0.0493171)
(0.998562 -0.0198389 0.0498074)
(0.99187 -0.00265559 0.127225)
(0.99874 -0.00696662 0.0496972)
(0.990298 0.134131 -0.036309)
(0.991914 -0.013897 0.126145)
(0.998515 -0.0240829 0.0488551)
(-0.455778 0.887751 0.0645413)
(-0.470579 0.797404 -0.377759)
(0.286208 0.957779 -0.0272645)
(-0.0631161 -0.407995 0.9108)
(0.584236 0.800891 -0.131306)
(-0.277876 0.933783 0.225466)
(-0.087631 0.984421 -0.152433)
(0.804686 -0.592267 -0.0412425)
(0.00125064 0.999603 0.0281461)
(0.567617 0.814625 -0.119152)
(0.982984 0.132209 -0.127529)
(-0.139065 0.965765 0.218994)
(0.946279 -0.316823 -0.0646434)
(0.80177 0.565712 -0.192703)
(0.51336 0.847452 -0.135228)
(0.636416 0.741488 -0.212533)
(0.74323 0.660633 -0.105699)
(0.95874 0.230066 -0.166995)
(0.436308 0.897639 -0.0622828)
(0.612814 -0.476912 0.63009)
(0.79147 -0.133604 0.596427)
(0.951268 -0.234573 0.200159)
(0.109337 -0.41223 0.904495)
(-0.488874 0.63402 -0.599184)
(0.909504 -0.278213 0.308868)
(0.488094 -0.360413 0.794901)
(-0.593868 0.638439 -0.489609)
(0.989212 -0.0322045 -0.14291)
(-0.561251 0.819702 -0.114394)
(0.813195 -0.579324 0.0556506)
(-0.552099 0.781176 -0.291463)
(0.928528 -0.353434 0.113666)
(-0.658986 0.735177 -0.15891)
(0.970555 -0.239373 -0.0269142)
(0.969043 -0.243227 -0.0423738)
(0.999156 -0.0195134 -0.0361376)
(0.996505 -0.0832063 -0.00742053)
(0.992393 -0.118234 -0.0343151)
(0.981836 -0.187913 -0.026195)
(0.982492 -0.186223 -0.00547436)
(0.977857 -0.206787 -0.0321804)
(0.829055 -0.101719 0.549837)
(0.0611623 -0.0357715 0.997487)
(0.0677724 -0.033056 0.997153)
(0.995001 0.093674 -0.0346212)
(0.970217 0.242041 -0.00972986)
(0.962946 0.267052 -0.037667)
(0.97034 -0.236563 -0.0497771)
(0.996811 0.0599772 -0.052645)
(0.971977 0.234136 -0.021024)
(0.994538 -0.0923449 -0.048648)
(0.979267 0.197155 -0.0465388)
(0.99899 0.0261068 -0.0365737)
(0.998551 0.0399448 -0.0360644)
(0.999446 0.00575936 -0.0327693)
(0.999967 -0.00510519 -0.00625658)
(0.999457 0.00264875 -0.032829)
(0.999434 -0.00261866 -0.033526)
(0.999964 -0.00537854 -0.00659104)
(0.999452 0.00117038 -0.0330954)
(0.999453 0.00527318 -0.0326575)
(0.999973 0.00456595 -0.00582681)
(0.999445 0.00737418 -0.0324967)
(0.997605 0.0592319 -0.0357262)
(0.998996 0.0273271 -0.0354896)
(0.999979 0.00274228 -0.0058322)
(0.999396 0.0118665 -0.0326639)
(0.999447 0.00711805 -0.0324879)
(-0.19055 -0.420354 0.887127)
(0.0648441 -0.620075 0.781859)
(0.382387 0.901148 -0.204239)
(-0.0609495 -0.387905 0.919682)
(0.6264 0.749256 -0.215032)
(0.271629 0.903424 -0.331727)
(0.296005 -0.0363579 0.954494)
(-0.0324423 -0.379777 0.924509)
(-0.308821 0.865882 -0.393544)
(0.188639 -0.141822 0.971752)
(0.220083 0.950084 -0.22114)
(0.180924 -0.235036 0.955)
(-0.596933 0.508269 0.620753)
(0.147748 0.931021 -0.333722)
(-0.113295 -0.374268 0.920374)
(0.735325 0.645206 -0.207379)
(0.505801 0.848675 -0.154648)
(0.423287 0.894206 -0.145682)
(0.705252 0.690408 -0.161112)
(0.163413 -0.0757192 0.983648)
(0.405599 0.891314 -0.202604)
(0.0696183 0.995821 -0.0591111)
(0.596013 0.78627 -0.162936)
(0.966224 0.213897 -0.143734)
(0.64408 0.76434 0.0307421)
(0.504608 0.838895 -0.204025)
(0.638149 0.516591 -0.570876)
(0.604194 0.739412 -0.297017)
(0.55797 0.81502 -0.156242)
(0.790817 0.432021 -0.433551)
(0.630799 0.773493 -0.0616569)
(0.401599 -0.180343 0.897883)
(-0.508888 0.771962 -0.38093)
(0.227796 0.0204117 0.973495)
(0.104899 0.974799 -0.196884)
(0.26664 -0.111658 0.957306)
(-0.235404 -0.625509 0.743857)
(-0.390948 0.848658 -0.356285)
(-0.0267989 -0.329534 0.943763)
(0.721081 0.574973 0.386585)
(0.63061 0.751669 -0.193198)
(0.480622 0.849711 0.21678)
(-0.199721 0.088377 0.975859)
(-0.107819 0.739086 -0.664926)
(-0.170674 0.887811 -0.42739)
(0.120477 -0.117009 0.985796)
(-0.491827 -0.487843 0.72119)
(0.375131 0.920664 -0.107956)
(0.499002 0.865238 -0.0485775)
(0.209882 0.031067 0.977233)
(0.405251 0.818478 0.407266)
(-0.10419 0.890027 -0.443844)
(0.995992 -0.0739442 0.0503214)
(0.0105234 0.999609 0.0259177)
(0.560258 0.814567 0.150303)
(0.997993 -0.0629539 0.00679078)
(0.0491509 0.998516 0.0234696)
(0.00329298 0.999923 0.0119911)
(0.997274 0.0731378 -0.00979994)
(-0.00937585 0.999953 0.00255174)
(0.0166742 0.99986 -0.00121645)
(0.997582 -0.0681994 -0.0134133)
(0.0207922 0.999783 -0.000883203)
(-0.00317962 0.99998 0.00549037)
(-0.169392 -0.268473 0.948277)
(-0.0586927 0.875001 -0.48055)
(0.150329 0.956081 -0.251615)
(-0.0448401 0.733655 -0.678042)
(-0.283971 0.900134 -0.330333)
(0.245067 -0.648735 0.720476)
(0.209814 0.714063 -0.667902)
(-0.0515418 0.958523 -0.280317)
(0.0359963 -0.64212 0.765759)
(-0.0547149 0.979141 -0.195676)
(-0.333226 0.941635 -0.047799)
(-0.119112 -0.103746 0.987446)
(-0.339819 0.938604 0.0595509)
(-0.423716 0.864974 0.268857)
(0.74895 0.627108 0.214032)
(-0.0664847 0.99762 0.0182784)
(0.319457 0.947316 -0.0232376)
(0.810173 -0.395367 -0.432787)
(-0.33355 0.934315 -0.125699)
(-0.303212 0.949462 0.0811422)
(-0.440487 0.891171 -0.108565)
(0.561935 0.759478 0.327755)
(-0.156018 0.985401 -0.0681452)
(-0.384339 0.834049 -0.395785)
(-0.0405826 -0.407697 0.912215)
(-0.123368 -0.531361 0.838114)
(0.89282 0.350709 0.282622)
(0.971895 0.118425 0.203459)
(0.866512 0.497456 0.0411515)
(0.879432 -0.0121839 0.475868)
(0.892062 -0.450598 0.0344565)
(0.952422 -0.119844 -0.280232)
(0.978584 -0.175004 -0.108388)
(0.953414 0.29327 -0.0706773)
(0.921814 0.37312 -0.105071)
(0.882173 0.470168 -0.0267093)
(0.981774 0.116798 -0.149927)
(0.84498 0.52663 -0.0931119)
(0.851596 0.523948 -0.0162199)
(0.986822 0.106344 -0.121958)
(0.917655 0.077651 0.389718)
(0.783659 0.181045 0.594223)
(0.986778 -0.145802 -0.070795)
(0.860087 0.502308 -0.0890916)
(0.94891 0.308754 -0.0651143)
(0.960217 -0.278414 -0.0216482)
(0.981043 0.0591178 -0.184552)
(0.995619 0.0593114 0.0722877)
(0.857786 0.499442 -0.121495)
(0.991656 -0.0597138 -0.114245)
(0.239026 -0.131567 0.962059)
(0.807205 -0.0762454 0.585326)
(0.934163 -0.166447 0.315651)
(0.213102 -0.281312 0.935655)
(0.390001 -0.241104 0.888689)
(0.784165 -0.0565523 0.61797)
(0.170681 -0.186171 0.967579)
(0.135227 -0.0874367 0.986949)
(0.914869 -0.237894 0.326221)
(0.969756 -0.0293972 -0.242301)
(-0.138868 0.00960961 0.990264)
(0.767599 -0.0391549 0.639734)
(0.0722431 -0.110037 0.991298)
(-0.0922725 0.00202779 0.995732)
(0.892244 0.370621 0.257957)
(0.93797 0.330784 0.103892)
(0.976374 0.205854 0.0657033)
(0.997368 0.0722918 0.00557686)
(0.990433 0.0744016 0.116223)
(0.941176 0.127159 0.313078)
(0.970878 0.200984 0.130387)
(0.982863 0.073801 0.168917)
(0.948191 0.317219 -0.0174823)
(0.943834 0.314644 0.10088)
(-0.0703143 0.995155 0.0687133)
(-0.553369 0.80476 -0.214813)
(0.214407 0.0560203 0.975137)
(-0.498127 0.865289 -0.0560818)
(0.732527 0.280073 -0.620454)
(0.9611 0.00846336 0.276072)
(-0.428787 0.898956 -0.0895517)
(-0.0765254 0.991288 -0.1072)
(0.746726 -0.665098 0.00663292)
(0.783956 0.619547 -0.0396844)
(0.889074 -0.448015 -0.0939678)
(0.740888 0.663304 -0.10542)
(-0.121439 0.974255 -0.189945)
(-0.620772 0.783923 -0.0103196)
(0.00753314 0.997779 -0.0661913)
(0.979284 0.123864 -0.160187)
(-0.606048 0.795425 0.00236896)
(0.94647 -0.283141 -0.155001)
(0.932775 -0.183618 0.310185)
(0.73413 0.665954 -0.132509)
(-0.552261 0.832592 -0.0424051)
(-0.0818125 -0.301162 0.950057)
(0.0777864 -0.172227 0.981981)
(-0.280441 0.0583501 0.958096)
(-0.0832235 -0.0411081 0.995683)
(-0.0801693 -0.149952 0.985438)
(-0.22579 0.0132709 0.974086)
(0.0758258 -0.190193 0.978814)
(-0.247753 -0.227702 0.941685)
(-0.0958143 -0.0786935 0.992284)
(0.116406 -0.351791 0.928812)
(0.832869 0.49918 0.239058)
(0.540261 0.507862 0.670965)
(0.29896 0.878734 0.372089)
(0.477632 -0.0859599 0.874345)
(0.909105 -0.12141 0.398481)
(-0.243693 0.968136 -0.0576675)
(0.890913 0.441408 -0.106928)
(0.66691 -0.461771 0.584806)
(0.173992 -0.127369 0.976475)
(0.916293 -0.111913 0.384556)
(0.279942 -0.179623 0.943063)
(0.750815 -0.652958 0.0996093)
(0.692572 0.345754 0.633086)
(0.206809 -0.266083 0.941504)
(0.872313 -0.417973 0.253709)
(0.333412 -0.0791689 0.939451)
(0.942176 0.295642 -0.157799)
(-0.230243 0.944186 -0.235586)
(0.917254 -0.344698 0.199573)
(-0.0441786 0.95376 -0.297305)
(0.998565 0.0521034 -0.0123662)
(0.978758 0.199553 -0.0470266)
(0.0438237 0.964861 -0.259081)
(0.992534 -0.118155 -0.0302474)
(0.972314 -0.232183 -0.0263787)
(-0.0064376 0.984932 -0.172822)
(0.996451 0.0724605 -0.0428409)
(0.997183 0.0534032 0.0526792)
(0.997566 -0.0675126 0.017452)
(0.998559 -0.0120473 0.0522987)
(0.961197 0.170081 0.217192)
(0.986216 -0.145215 0.0793095)
(0.99612 -0.0240468 0.0846533)
(0.984928 -0.172167 0.0166113)
(0.963925 -0.262596 0.0434874)
(0.990824 -0.126024 0.0488443)
(-0.11415 0.991027 -0.0695315)
(-0.572389 0.819183 -0.0361943)
(0.357952 0.931376 -0.0664084)
(-0.23114 0.967576 -0.101839)
(0.112985 0.993078 -0.0320887)
(0.415341 0.90149 -0.12169)
(-0.330345 0.940363 -0.0811802)
(0.00121831 0.998549 -0.0538386)
(0.772703 -0.616874 0.149655)
(0.780959 -0.623386 0.038636)
(0.546122 -0.377456 0.747848)
(-0.561516 0.826282 -0.0442429)
(-0.0516372 0.993877 -0.097686)
(-0.67628 0.736593 -0.00868286)
(0.769315 -0.638094 0.0314658)
(-0.00274506 0.989724 -0.142965)
(-0.634426 0.772872 -0.0131547)
(0.113483 -0.0387188 0.992785)
(0.9564 -0.265068 0.122632)
(0.908544 -0.101703 0.405221)
(0.0385164 -0.013386 0.999168)
(0.0363364 -0.00634596 0.999319)
(0.949992 -0.084218 0.300702)
(0.112921 -0.0456563 0.992554)
(-0.0207489 0.0115689 0.999718)
(0.97662 -0.196033 0.0882328)
(0.990019 -0.0387434 -0.135508)
(-0.102688 0.0142874 0.994611)
(-0.0339786 -0.00939621 0.999378)
(0.988738 -0.0590636 0.137505)
(-0.00893267 0.00900139 0.99992)
(0.067076 -0.048252 0.99658)
(0.0467859 -0.052014 0.99755)
(0.980494 0.195358 0.0216248)
(0.999428 -0.0289996 0.017416)
(0.979647 0.200551 -0.00842707)
(0.974022 0.224801 0.0273101)
(0.998096 0.0616748 -0.000929788)
(0.985799 0.167417 0.01313)
(0.999318 0.0153394 0.033588)
(0.951006 0.309097 0.00677496)
(0.968784 0.247906 -0.000598066)
(0.999484 -0.0270625 0.0173292)
(0.989453 0.143393 0.0205279)
(0.999335 -0.000967927 0.0364617)
(0.0120605 0.000801008 0.999927)
(0.0913534 -0.0548091 0.994309)
(-0.153124 0.000610329 0.988207)
(-0.0460834 -0.0145243 0.998832)
(-0.0672428 -0.0138414 0.997641)
(-0.160462 -0.023639 0.986759)
(0.000966869 0.000329656 0.999999)
(-0.0415442 0.000273583 0.999137)
(-0.0201338 -0.00785684 0.999766)
(0.0534272 -0.0724992 0.995936)
(0.99226 0.11279 0.0519537)
(0.977046 0.212068 0.0202128)
(0.983337 0.174854 0.0497384)
(0.988284 -0.0493666 0.144422)
(0.998421 0.0195363 0.0526757)
(0.990883 0.122558 0.0559495)
(0.975691 0.218896 0.0105593)
(0.998947 0.0196255 0.0414647)
(0.987423 0.151619 0.044807)
(0.867292 -0.495743 -0.0452039)
(-0.694781 0.718443 0.0334591)
(0.999232 0.0181025 -0.0347624)
(0.997088 -0.0752208 -0.0125202)
(0.999258 -0.0167748 -0.0346658)
(0.959303 -0.278939 -0.0439386)
(0.987836 -0.154642 -0.0162914)
(0.981433 -0.188191 -0.0370697)
(0.991099 -0.0131489 0.132477)
(0.997963 -0.0389785 0.0504997)
(0.995714 -0.0784074 0.0490488)
(0.996656 -0.0653483 0.0490595)
(0.99619 -0.0863112 0.0124716)
(0.995004 -0.0880278 0.0470958)
(0.996433 -0.0729001 0.0425058)
(0.99244 -0.122407 0.00895991)
(0.994107 -0.0987992 0.0446115)
(0.99699 -0.0771536 -0.00759844)
(0.0172314 0.99985 0.00157529)
(-0.0094466 0.999946 0.00443285)
(0.997569 0.0695536 -0.00427613)
(-0.0182741 0.999822 0.00462678)
(0.0179712 0.999837 0.00195846)
(0.997921 0.0529103 -0.0368066)
(0.99834 0.044121 -0.0370253)
(0.999359 0.00796719 -0.0349016)
(0.999765 -0.0196326 -0.00915869)
(0.999401 0.000321728 -0.0346028)
(0.999421 -0.00315177 -0.0338654)
(0.999784 -0.0190253 -0.008333)
(0.999404 -0.00469117 -0.0341882)
(0.998555 -0.00707328 0.0532651)
(0.99976 -0.00881479 0.0200397)
(0.998511 -0.0115421 0.0533077)
(0.991759 -0.0102383 0.127705)
(0.997607 -0.0480534 0.0497126)
(0.997994 -0.0391472 0.049747)
(0.999759 -0.00962947 0.0197248)
(0.998395 -0.0205868 0.0527682)
(0.998463 -0.0158432 0.0531144)
(0.997588 -0.0478257 0.050316)
(0.999419 -0.0295598 0.0169817)
(0.997968 -0.0379813 0.0511571)
(0.991588 -0.0164201 0.128386)
(0.997378 -0.05254 0.0497744)
(0.996484 -0.0675528 0.049562)
(0.999499 -0.0261398 0.0178547)
(0.998249 -0.0274667 0.0523797)
(0.998107 -0.0331455 0.0518045)
(0.998572 -0.00396126 0.0532825)
(0.999789 0.00264633 0.0203923)
(0.998571 -0.00114115 0.0534311)
(0.991893 -0.00273574 0.127049)
(0.998713 0.0112384 0.0494649)
(0.99877 0.00110216 0.0495768)
(0.999792 0.00128181 0.0203614)
(0.998582 0.00449093 0.0530372)
(0.998572 0.00251401 0.0533581)
(0.99801 0.0518046 -0.0359568)
(0.994205 0.10129 -0.0360008)
(0.999845 0.0162652 -0.00667125)
(0.998664 0.0394173 -0.0334076)
(0.999331 0.0161024 -0.0328391)
(0.999869 0.0149285 -0.00633247)
(0.999091 0.0269424 -0.0330194)
(0.991993 -0.000895514 0.126286)
(0.998764 0.00647572 0.049289)
(0.998796 0.0017494 0.0490305)
(0.9998 0.00384007 0.0196204)
(0.998601 -0.00501005 0.0526307)
(0.998595 0.00409713 0.0528347)
(0.99977 0.00808618 0.019869)
(0.998602 0.00153503 0.0528318)
(0.950977 0.302254 0.0654557)
(0.917876 0.379524 0.116039)
(0.941701 0.269519 0.201393)
(0.992998 -0.0704367 0.0948313)
(0.95554 0.283042 0.0826451)
(0.947038 0.252987 0.197779)
(0.91752 0.388023 0.0871463)
(-0.0657315 0.99782 0.00594197)
(0.988997 -0.0500196 0.139221)
(0.997907 0.0646303 0.00209138)
(-0.0187786 0.999809 0.00545995)
(0.989973 0.00856379 0.140999)
(-0.0713537 0.997433 0.00592317)
(-0.015961 0.999856 0.00583394)
(0.0260083 0.99966 -0.00166469)
(0.0113072 0.999936 -0.000193033)
(0.990491 0.0301518 0.134236)
(0.997352 -0.0722734 -0.00813226)
(0.00308724 0.999995 -0.000632192)
(0.99041 -0.0293829 0.135001)
(0.0254644 0.999675 -0.0015149)
(0.951962 0.275404 0.13387)
(0.899812 0.409326 0.150963)
(0.946983 0.239137 0.21456)
(0.922668 0.343213 0.175751)
(0.955086 0.279625 0.098081)
(0.940564 0.252361 0.227272)
(0.880317 0.434062 0.191396)
(0.943539 0.325326 -0.0624254)
(0.998255 -0.0506167 -0.0304145)
(0.137228 0.990138 0.0281867)
(0.770301 0.630262 -0.0969821)
(0.741787 0.669196 -0.043906)
(0.935076 0.347177 -0.0714296)
(0.947264 0.307664 -0.0896338)
(-0.0364709 0.999327 0.00389276)
(-0.030401 0.999528 0.00447978)
(0.990122 -0.0409102 0.134104)
(0.998064 0.0617334 -0.00752791)
(-0.0382854 0.99926 0.00365451)
(0.990562 0.0234437 0.135049)
(-0.0314035 0.999495 0.00480986)
(0.0387357 0.999249 -0.000400622)
(0.990143 0.0146484 0.13929)
(0.0256968 0.999669 0.000916042)
(0.997637 -0.0686933 -0.00132583)
(-0.00720514 0.999973 0.00136505)
(0.989542 -0.0386012 0.138984)
(0.0433305 0.999061 -0.000744097)
(0.567513 -0.459417 0.683275)
(0.862153 -0.202877 0.464255)
(0.834006 -0.290969 0.468798)
(0.66969 -0.362342 0.648247)
(0.584619 -0.454265 0.672208)
(0.869209 -0.326438 0.371368)
(0.471049 -0.34279 0.812778)
(0.670941 -0.523681 0.524972)
(0.96617 -0.257524 0.0140056)
(0.862239 -0.505619 0.0298978)
(0.937067 -0.324609 0.128589)
(0.734124 -0.653958 0.18276)
(0.95862 -0.27016 0.089785)
(0.691176 -0.210934 0.691218)
(0.181979 -0.0947939 0.978723)
(0.896411 0.336945 0.28795)
(-0.049523 0.837612 0.544016)
(0.997107 0.0755523 0.00838149)
(0.999273 0.0128915 0.0358739)
(0.987384 0.0062407 0.158222)
(0.0724864 0.997222 0.0171368)
(0.977302 0.211839 0.00229775)
(0.984173 0.0688336 0.163297)
(-0.00196427 0.999677 0.0253363)
(0.505248 0.862974 -0.000755503)
(0.99836 -0.0551295 0.0154547)
(0.98725 0.0395235 0.154195)
(0.129571 0.991526 0.00937389)
(0.922516 0.385943 -0.00341928)
(0.988471 -0.0182753 0.150303)
(0.138209 0.990392 0.0047036)
(-0.0118622 0.999926 0.00265059)
(0.997379 0.0716726 -0.00991556)
(0.990612 -0.0324015 0.132805)
(-0.00312219 0.999994 0.00177913)
(-0.00174619 0.999997 0.00197403)
(0.990467 0.0320063 0.133983)
(-0.0121075 0.999923 0.00267792)
(0.0302199 0.999541 -0.0021121)
(0.99786 -0.0643549 -0.0115652)
(0.990432 0.0382379 0.132597)
(0.0351075 0.99938 -0.00261993)
(0.0324366 0.999472 -0.00197357)
(0.990644 -0.0295678 0.13323)
(0.037855 0.999279 -0.00287885)
(-0.0956377 -0.439422 0.893175)
(0.13394 -0.581902 0.802154)
(0.877308 -0.3412 0.337509)
(0.943845 -0.182673 0.275295)
(0.504742 -0.234359 0.830849)
(0.907083 -0.261487 0.329886)
(0.874733 -0.217897 0.432854)
(0.663421 -0.357831 0.657138)
(0.572126 -0.3202 0.755079)
(0.885172 -0.198176 0.420947)
(0.739267 -0.265214 0.618988)
(-0.0607641 -0.0453747 0.99712)
(0.977534 -0.207169 -0.0388324)
(0.97576 -0.184367 -0.117905)
(0.77142 -0.139191 -0.620916)
(0.979426 -0.201654 -0.0077877)
(-0.249278 -0.0136205 0.968336)
(-0.397519 0.117783 0.910003)
(0.947731 -0.196807 0.251143)
(0.913541 -0.303241 0.271086)
(0.958096 -0.282432 -0.0477963)
(0.960056 -0.277519 0.0357145)
(0.150196 -0.457192 0.876594)
(0.272618 -0.324221 0.905848)
(-0.312053 -0.0174939 0.949904)
(-0.159154 -0.0997087 0.982206)
(0.870533 0.19018 0.453876)
(0.851535 0.444724 0.277684)
(0.901268 0.0129083 0.43307)
(0.880993 0.210558 0.423694)
(0.869833 -0.0347263 0.492122)
(0.931765 0.016469 0.362688)
(0.781434 0.496974 0.37733)
(0.719219 0.0374925 0.693771)
(0.928292 -0.322706 0.184758)
(0.955236 -0.291355 -0.05135)
(0.909364 0.0434526 0.413725)
(0.762672 -0.0563537 0.644325)
(-0.700572 0.710478 0.0664838)
(0.924987 -0.182444 0.333336)
(0.905954 0.417283 -0.0715714)
(0.775594 0.620998 -0.113208)
(0.706468 0.703859 -0.0740583)
(0.00675613 0.991155 -0.132534)
(0.835966 0.545481 -0.0600955)
(0.845733 0.526814 -0.084874)
(0.91187 0.398525 -0.0983408)
(0.266318 -0.117586 0.956686)
(0.961653 -0.269939 0.0485426)
(0.961975 -0.262566 0.0752609)
(0.895021 -0.253328 0.3671)
(0.0962033 -0.015813 0.995236)
(0.963677 -0.261042 0.0564252)
(0.86724 -0.251014 0.429985)
(-0.55244 0.169982 0.816037)
(0.984844 -0.16643 0.0488177)
(0.976885 -0.207401 -0.051784)
(0.94389 -0.21013 -0.254788)
(-0.346035 0.0697093 0.935628)
(0.980414 -0.19416 0.033009)
(0.968564 -0.215941 -0.123502)
(0.101435 -0.0578067 0.993161)
(0.942333 -0.332145 0.0410884)
(0.945374 -0.325699 0.0137366)
(0.945407 -0.325072 0.0230922)
(0.972079 -0.234279 0.0132417)
(0.956406 -0.290193 0.0327841)
(0.122618 -0.0231717 0.992183)
(0.102621 -0.0662853 0.992509)
(-0.27838 -0.0487442 0.959233)
(-0.075909 -0.0238955 0.996828)
(0.0207223 0.999785 -0.000882404)
(0.997235 -0.074071 -0.00598781)
(0.990426 0.0250393 0.135754)
(0.0133694 0.999911 0.000429865)
(0.000257722 1 0.000118951)
(0.990096 -0.0341777 0.136171)
(0.0248644 0.999691 -0.000613353)
(-0.043872 0.999028 0.00422727)
(0.998028 0.0625917 -0.00465471)
(0.989778 -0.0440659 0.135638)
(-0.0286815 0.999577 0.00483868)
(-0.045573 0.998952 0.00433146)
(0.990445 0.0171134 0.136843)
(-0.0275457 0.999609 0.0047978)
(-0.566127 0.817462 0.106097)
(-0.502119 0.864795 0.00239403)
(-0.608298 0.793694 -0.00492745)
(-0.566436 0.786234 0.246954)
(-0.43282 0.880375 0.193924)
(-0.560843 0.820238 0.112533)
(0.989616 -0.124352 -0.0720904)
(0.992113 -0.110715 -0.0587704)
(0.995 -0.0756478 -0.0652079)
(0.996994 -0.0509688 -0.0583501)
(0.995828 -0.0866118 -0.0287154)
(0.999169 0.00251657 -0.0406741)
(0.997827 -0.0543707 -0.03721)
(0.998573 -0.0453655 -0.028179)
(0.994229 -0.0871869 -0.0625108)
(0.997994 -0.0198295 -0.0601291)
(0.997342 -0.0177061 -0.0706719)
(0.994438 -0.0868794 -0.0595358)
(0.99603 0.0444366 -0.0771377)
(0.9949 0.071449 -0.0711953)
(0.997637 0.0126704 -0.0675288)
(0.99574 0.0408927 -0.0826428)
(0.997123 -0.0159388 -0.07411)
(0.990862 -0.126666 -0.0463512)
(0.997016 0.00776946 -0.0768014)
(0.993527 0.0831207 -0.0774235)
(0.996824 -0.00397721 -0.0795399)
(0.995954 -0.0617563 -0.0652893)
(0.995777 -0.0655908 -0.0642396)
(0.998154 0.00670941 -0.0603615)
(0.997349 0.0268507 -0.0676326)
(0.997521 -0.0297032 -0.0637874)
(0.997627 -0.0194782 -0.0660437)
(0.997525 0.0298989 -0.0636399)
(0.99871 -0.0380798 -0.0335756)
(0.99798 0.0527576 -0.0353956)
(0.998253 0.0476521 -0.0349305)
(0.998705 -0.038293 -0.033508)
(0.997646 -0.0177527 -0.0662363)
(0.997378 0.0337868 -0.0640016)
(0.997039 0.0360729 -0.0679123)
(0.997612 -0.0265458 -0.0637688)
(0.99759 -0.0209914 -0.0661287)
(0.997317 0.0361928 -0.0636285)
(0.997649 -0.0255784 -0.0635716)
(0.996979 0.0382447 -0.0676066)
(0.998189 0.0491946 -0.0346104)
(0.998468 -0.0435397 -0.0341465)
(0.998574 -0.041793 -0.0332167)
(0.998063 0.0516254 -0.0347224)
(0.997128 0.0343002 -0.0675285)
(0.997534 -0.028436 -0.0641664)
(0.997443 -0.0253245 -0.0668229)
(0.997381 0.0340351 -0.0638237)
(0.211422 -0.375198 0.902512)
(-0.119089 -0.196331 0.973279)
(0.00489595 -0.550066 0.835107)
(-0.0525793 -0.101677 0.993427)
(0.0905738 -0.355188 0.930396)
(0.118376 -0.4841 0.866969)
(-0.202711 0.133723 0.970065)
(-0.653692 0.659019 -0.371996)
(0.835257 -0.273014 0.477294)
(-0.58744 0.795449 -0.14891)
(0.724694 -0.497723 0.47654)
(-0.645626 0.717758 -0.26075)
(-0.594998 0.795183 -0.116881)
(0.806162 -0.24827 0.537089)
(-0.691809 0.717525 0.0809823)
(-0.442933 0.346618 0.826841)
(-0.691358 0.705616 0.155337)
(-0.54883 0.798129 0.248548)
(-0.636794 0.768556 0.0617625)
(-0.544077 0.678492 -0.493587)
(-0.528259 0.663344 0.530016)
(0.410464 -0.299148 0.861411)
(0.126247 0.0519043 0.99064)
(0.571389 -0.0548982 0.818841)
(0.624771 -0.376101 0.684258)
(0.273349 -0.124156 0.953869)
(0.0720304 0.0987676 0.9925)
(0.711263 -0.18372 0.678492)
(0.538456 -0.147058 0.829722)
(0.409053 0.16107 0.898183)
(0.534812 -0.127062 0.835363)
(0.560183 -0.277998 0.780329)
(0.321551 -0.11319 0.940103)
(0.523352 -0.122969 0.843197)
(0.646834 -0.263778 0.71556)
(-0.0340104 -0.100166 0.994389)
(-0.235335 0.928183 0.288259)
(-0.251548 0.34599 0.903888)
(-0.0366959 -0.445944 0.894308)
(0.203193 0.481415 0.852615)
(-0.48842 0.149076 0.85978)
(0.310957 -0.209123 0.927132)
(0.182056 0.698939 -0.691621)
(-0.00664802 -0.460674 0.887544)
(0.550609 0.696992 -0.459382)
(-0.376911 0.824917 -0.421248)
(-0.244647 0.905362 -0.347084)
(-0.154952 -0.430535 0.889174)
(0.253522 -0.461726 0.850021)
(0.95456 0.151201 0.256813)
(0.909638 0.234343 0.342989)
(0.75944 0.491578 0.426149)
(0.923959 0.162164 0.346413)
(0.938624 0.184338 0.291554)
(0.958593 0.279667 0.0537283)
(0.996677 -0.0193074 0.0791294)
(0.962511 0.200736 0.182419)
(0.579751 0.813301 0.0492898)
(0.946805 0.262708 0.185861)
(0.965389 0.257963 0.0384676)
(0.899538 0.432583 0.0608556)
(0.9707 0.0955663 0.220473)
(0.820825 0.451332 0.350065)
(0.980223 0.0444763 0.192831)
(0.987302 0.0505772 0.150591)
(0.964981 0.108539 0.238812)
(-0.0400846 0.999189 0.0037438)
(0.997146 -0.0754598 0.0025474)
(0.989665 0.0176958 0.142304)
(0.0501112 0.99874 0.00259009)
(0.988739 -0.0504976 0.140869)
(0.0301864 0.999541 0.00260768)