/*--------------------------------*- C++ -*----------------------------------*\
| =========                 |                                                 |
| \\      /  F ield         | OpenFOAM: The Open Source CFD Toolbox           |
|  \\    /   O peration     | Version:  2012                                  |
|   \\  /    A nd           | Website:  www.openfoam.com                      |
|    \\/     M anipulation  |                                                 |
\*---------------------------------------------------------------------------*/
FoamFile
{
    version     2.0;
    format      ascii;
    class       volScalarField;
    location    "0.104/solid";
    object      sigmaEq;
}
// * * * * * * * * * * * * * * * * * * * * * * * * * * * * * * * * * * * * * //

dimensions      [1 -1 -2 0 0 0 0];


internalField   nonuniform List<scalar> 
3124
(
317.271
62.8435
118.933
267.165
187.746
184.089
90.7751
493.835
972.474
170.113
281.724
213.194
361.344
317.25
195.415
997.974
296.049
233.06
184.277
187.494
231.167
233.151
230.714
108.044
865.573
426.227
263.704
269.695
591.708
760.739
324.242
562.085
348.937
338.971
257.103
1013.73
333.575
300.892
265.135
268.278
264.571
264.432
77.7055
109.665
323.77
1005.12
781.16
137.099
2509.67
457.8
192.656
191.222
183.257
183.24
103.107
89.9137
249.883
720.953
328
824.021
328.57
270.07
861.797
929.493
956.906
861.144
289.504
842.969
648.173
660.333
93.6301
272.149
233.926
1125.85
880.921
340.236
3187.56
357.489
299.398
356.02
367.043
314.684
338.633
267.02
463.686
326.312
258.993
1013.71
917.618
950.674
291.499
988.501
948.561
1090.91
703.523
646.292
692.246
1085.04
1081.62
354.301
233.308
295.67
276.042
293.505
232.073
287.554
294.499
185.956
186.2
274.28
269.606
280.682
232.591
283.131
286.607
232.95
283.954
280.183
230.193
280.102
265.131
230.38
280.809
375.571
378.765
302.846
304.258
290.507
284.257
231.944
232.954
231.336
231.01
83.3969
49.2349
79.7252
138.5
80.8753
76.0803
87.1273
396.791
89.4496
110.285
47.686
148.761
481.918
188.978
89.9647
218.038
50.2016
188.865
36.8526
37.1545
36.168
183.965
36.2272
183.743
36.93
189.738
110.035
129.321
161.947
126.656
173.878
298.492
684.978
450.574
494.862
574.104
106.062
223.04
115.251
209.663
116.003
213.675
141.477
113.561
316.049
240.276
888.2
111.757
388.207
305.189
553.169
252.087
638.849
366.885
321.074
360.048
208.445
182.169
245.572
208.764
248.462
143.714
239.554
355.767
265.959
324.862
243.197
244.45
233.012
294.337
293.374
36.1758
185.283
36.2312
36.6901
187.254
36.5129
242.309
240.847
293.909
231.733
294.44
295.185
233.278
295.654
293.424
230.487
293.069
234.201
231.328
295.237
238.936
271.226
168.773
142.835
148.525
233.42
225.233
362.524
398.262
539.474
483.14
416.726
317.473
432.087
260.122
481.971
191.446
525.129
308.213
695.964
715.454
370.339
639.413
562.823
712.509
773.575
485.13
317.364
344.329
415.088
397.39
545.785
417.663
321.455
304.55
330.903
351.671
332.842
334.644
345.211
329.11
709.466
748.681
978.556
315.283
315.738
302.699
289.888
296.048
306.644
304.493
307.241
235.547
234.17
251.372
266.216
252.521
254.916
267.286
253.716
250.76
264.448
250.588
231.018
230.884
264.383
250.536
250.496
98.6643
60.3025
132.799
107.171
142.779
102.08
92.441
98.8591
82.7529
65.0669
173.156
186.198
57.5842
119.861
116.982
440.532
220.382
240.502
178.193
235.675
163.908
397.728
991.692
540.659
2650.52
3174.9
763.756
1015.43
1701.66
879.318
2159.54
339.452
140.097
80.8457
232.145
229.246
143.169
249.081
565.374
251.411
6833.73
984.908
1923.04
921.591
325.396
478.378
616.595
307.336
745.235
295.826
1563.14
336.201
208.561
40.326
45.9215
189.304
39.2689
37.5544
183.85
36.3638
36.2751
183.72
36.4429
36.8143
509.717
518.988
912.761
109.921
200.296
200.146
529.154
189.299
446.722
199.026
113.35
39.6738
136.917
98.6587
109.83
175.801
735.55
233.621
278.514
192.881
450.539
128.558
227.65
359.739
413.874
799.357
529.016
759.766
1046.94
1139.64
454.425
810.104
562.445
658.688
389.994
310.553
382.744
350.895
412.398
485.26
631.102
1688.44
957.622
855.589
588.435
405.462
385.528
674.751
404.094
484.828
916.184
715.058
279.733
683.621
863.244
715.422
735.702
960.808
290.511
717.215
774.206
727.04
792.954
959.016
567.038
541.014
649.023
627.293
635.196
644.967
623.759
621.624
563.379
564.609
95.6195
100.097
55.2879
106.594
105.819
66.711
115.135
139.093
230.343
280.003
277.433
287.372
216.02
193.214
123.308
298.481
151.602
266.078
81.5463
309.131
167.273
526.886
631.539
427.305
1116.49
418.053
650.77
670.123
447.06
1024.76
385.744
323.141
520.019
297.08
1343.9
1081.2
16914.9
2154.61
814.681
4789.82
1441.67
790.331
345.531
491.742
313.805
835.83
1159.47
1898.97
5002.83
1250.82
251.906
397.299
416.302
263.808
377.381
366.557
259.894
392.424
376.082
366.633
370.111
309.975
300.807
338.071
356.767
323.51
354.011
246.685
250.009
259.202
287.942
251.219
281.133
250.924
213.866
375.437
274.795
150.562
261.358
212.363
321.842
286.43
254.538
268.147
943.299
268.014
696.413
726.387
962.027
680.532
707.53
933.603
271.778
695.359
717.659
946.955
675.839
694.485
594.398
411.573
548.213
644.431
547.71
547.163
621.533
653.106
609.757
559.289
539.751
640.894
672.209
617.441
579.914
565.561
434.671
1072.54
415.758
599.837
557.395
405.893
1076.1
404.519
366.711
330.08
338.269
242.99
285.049
295.736
307.114
294.49
308.008
266.059
249.553
263.828
279.191
266.842
288.248
284.962
273.599
232.687
288.118
291.778
298.811
289.525
298.984
296.574
292.592
299.023
185.528
36.309
36.2786
187.048
36.3725
36.4033
237.093
238.955
262.057
272.889
260.393
256.468
271.274
258.428
296.141
281.339
296.642
232.214
295.581
295.024
282.221
298.08
297.351
299.003
285.899
299.092
233.225
295.766
295.718
284.912
298.393
298.68
295.668
279.798
295.232
230.309
293.121
292.956
279.745
295.512
295.158
231.677
232.784
267.87
253.992
251.225
266.434
252.531
230.814
293.598
294.288
283.093
298.096
296.132
281.729
296.887
198.848
207.542
252.547
248.777
213.087
239.219
193.568
152.123
183.44
188.386
142.539
183.767
150.963
143.177
148.586
139.321
180.079
184.346
147.86
180.481
139.674
233.69
222.037
264.914
296.42
220.972
274.091
237.545
328.753
360.354
318.715
352.704
344.031
331.474
349.272
149.117
139.474
180.352
184.966
147.956
180.965
140.097
151.313
182.973
142.264
187.726
150.769
183.532
142.497
639.106
367.578
288.194
341.171
372.581
407.617
592.604
537.785
683.169
511.067
642.228
467.325
379.5
347.205
653.208
2376.75
3489.37
158.903
195.807
187.655
148.183
156.129
189.983
150.802
154.27
190.607
185.875
146.604
154.707
185.82
145.846
148.176
183.755
179.459
138.694
147.261
179.958
139.212
148.251
183.731
179.485
138.685
147.257
180.063
139.184
295.781
299.919
381.204
456.914
624.655
390.073
263.122
339.318
622.837
383.102
336.024
668.963
292.535
397.918
377.627
397.194
382.52
653.65
438.418
409.975
444.876
452.376
261.785
257.848
310.449
338.585
284.554
338.973
384.835
363.165
381.068
287.54
340.83
717.234
387.893
432.521
394.913
369.072
782.146
420.167
323.712
329.513
295.78
321.053
328.717
313.326
336.714
631.339
260.313
379.261
341.688
641.227
378.053
341.511
618.189
278.815
393.063
352.774
634.394
390.024
345.39
274.608
420.946
418.919
419.482
441.572
429.316
267.123
262.117
273.041
259.252
149.988
186.146
181.777
140.787
149.35
182.174
141.067
150.675
186.851
182.149
141.009
149.536
182.649
141.616
325.613
385.113
305.572
282.023
357.727
256.922
302.535
303.614
293.527
311.138
246.735
252.031
248.866
249.147
293.421
309.496
302.435
301.581
267.705
291.735
273.258
288.946
255.179
241.472
239.472
263.167
291.447
286.516
278.668
293.406
229.413
230
227.318
232.036
188.949
189.79
190.89
189.596
226.987
230.572
228.553
229.331
225.891
230.17
228.424
227.575
189.193
188.408
188.088
189.068
227.818
228.774
226.652
230.139
65.2692
69.137
86.6882
75.869
71.3247
74.3241
70.1939
71.6927
120.905
113.098
115.25
93.7218
93.7386
100.606
71.4484
65.8151
80.7074
102.013
94.6306
66.5919
81.5512
62.8509
78.1708
80.9796
96.0107
64.2691
79.559
86.041
212.496
269.69
442.365
337.305
218.702
260.762
386.553
115.664
190.204
135.938
88.893
61.3966
169.304
144.855
188.739
446.124
267.266
368.802
188.341
252.397
353.463
75.4052
119.327
69.8644
91.3354
104.124
187.818
233.474
211.837
169.044
224.084
175.899
179.941
67.465
57.6588
82.7026
58.6595
91.6665
152.467
188.779
184.043
143.649
184.344
152.242
143.57
40.75
58.0386
37.1392
40.1
58.441
40.8791
59.0421
37.3172
40.8098
58.7186
38.3759
55.2261
36.6137
37.8998
55.3665
148.869
184.364
180.056
139.242
180.398
147.973
139.684
38.3632
36.738
54.777
37.517
55.2102
180.305
139.062
148.084
37.9355
54.1631
37.1485
192.485
229.028
240.075
225.366
250.234
197.54
222.704
147.521
140.343
139.943
188.475
118.347
163.53
160.684
156.351
148.593
115.823
141.959
124.311
151.222
162.393
170.625
286.841
207.019
205.335
223.39
196.256
175.458
741.267
659.197
728.308
652.938
599.173
1022.34
609.326
115.52
98.9502
125.2
129.445
111.831
112.175
120.547
176.915
207.244
170.66
247.737
172.635
187.094
158.368
109.53
116.915
103.237
79.213
87.2254
120.223
102.755
187.514
130.899
233.097
220.315
228.293
136.206
178.495
127.991
137.877
148.849
99.7639
162.796
238.493
307.435
284.311
269.662
279.548
247.935
253.339
147.788
189.553
223.975
180.223
191.2
562.675
777.712
620.788
956.997
516.162
829.348
687.837
266.325
134.005
173.55
142.093
188.286
170.218
233.56
460.846
566.32
333.618
358.976
286.592
359.563
747.749
353.825
418.734
187.746
291.982
234.191
329.262
463.01
348.217
334.801
361.307
314.818
310.132
258.104
274.847
335.155
332.435
279.981
266.655
306.381
320.322
369.321
355.775
340.692
199.742
174.984
218.896
137.161
200.631
156.186
175.428
229.704
241.295
238.713
236.11
238.476
213.774
245.05
204.86
151.827
138.08
189.048
169.527
178.275
212.24
288.624
316.545
310.26
300.601
313.404
258.239
234.711
297.733
274.982
211.802
233.138
281.093
337.371
331.135
310.106
351.691
241.677
240.974
234.278
247.208
197.33
202.691
203.611
198.523
233.36
245.213
241.273
238.773
273.354
276.331
259.768
288.921
248.945
190.462
192.857
257.312
256.781
192.899
191.19
247.361
261.695
289.35
273.839
278.095
38.5071
55.265
36.5834
37.891
55.5115
149.549
185.319
181.19
140.211
181.36
148.968
140.389
38.5435
36.687
55.3361
37.9255
55.5238
40.0946
57.7868
36.952
39.9326
57.6708
151.558
187.681
183.088
141.916
183.275
150.623
142.407
39.9256
36.9353
56.777
39.0892
57.3197
232.677
241.981
239.1
236.392
201.503
196.976
240.392
237.718
233.719
243.583
195.776
200.129
269.673
282.19
285.219
266.361
252.217
188.577
189.887
253.97
254.53
190.017
189.675
252.5
266.397
284.421
269.041
281.996
264.5
289.212
280.687
273.436
257.425
191.925
250.096
190.697
273.914
279.341
263.08
289.363
251.185
190.503
192.383
257.336
265.763
283.599
281.338
267.945
253.403
188.895
188.778
251.925
251.603
188.365
189.27
253.059
268.571
281.617
266.088
283.984
231.84
229.327
191.298
284.982
269.033
189.247
190.202
254.162
146.898
150.335
259.698
220.178
167.974
215.682
150.634
154.216
170.873
150.874
135.249
167.185
160.595
134.251
167.743
273.294
225.407
227.33
224.393
197.759
188.372
399.972
379.663
379.79
356.261
371.494
392.703
382.88
429.941
568.99
434.759
456.61
456.177
435.616
465.847
404.791
346.781
448.318
422.816
446.553
507.349
428.931
444.209
486.545
400.358
324.386
476.96
453.575
380.259
384.96
501.165
318.816
278.019
354.519
322.66
327.857
256.13
353.558
279.752
221.3
250.686
194.112
280.803
216.674
260.386
407.206
426.658
581.978
508.821
423.733
427.876
525.514
630.021
307.192
430.931
527.099
639.728
378.424
425.059
437.986
266.137
375.556
453.273
545.023
322.391
370.587
298.251
316.095
311.439
310.971
317.466
365.788
264.023
263.813
352.552
346.781
344.757
302.758
333.836
316.739
327.27
326.184
332.888
348.046
341.62
338.951
322.892
326.51
317.248
329.935
343.282
343.004
333.085
351.742
327.864
328.356
317.879
335.84
339.939
340.28
330.443
347.985
344.019
327.664
342.501
343.715
328.082
352.06
340.818
340.64
289.56
300.263
286.129
300.573
324.987
322.76
317.758
331.243
312.121
302.216
308.369
306.023
300.377
309.682
308.561
303.498
293.047
285.835
277.441
299.851
251.284
241.266
262.322
251.211
282.771
286.046
291
278.447
301.771
292.455
292.525
304.103
292.449
291.844
287.124
294.724
301.14
293.257
296.327
295.841
295.417
295.613
296.525
295.989
228.184
233.811
231.238
230.914
193.781
191.611
190.507
192.46
232.789
232.042
235.037
229.619
247.901
243.854
246.508
245.134
253.648
260.13
255.974
257.699
244.435
245.184
243.463
246.212
257.337
258.197
254.016
261.736
245.956
248.237
244.851
249.702
260.098
259.689
256.089
264.121
250.603
246.201
249.567
246.993
254.871
263.31
258.975
258.921
243.695
244.526
242.483
246.057
255.53
257.335
253.36
259.807
245.874
243.084
244.675
243.893
252.842
259.866
255.386
257.153
227.032
228.427
225.866
229.717
188.333
188.642
188.683
188.025
226.466
229.499
228.715
227.384
245.533
242.44
243.843
244.132
253.498
259.205
257.656
255.041
254.96
257.311
252.893
259.415
244.09
244.189
243.001
245.209
97.0102
112.509
101.565
89.8745
85.5097
109.623
100.623
110.393
131.753
141.977
131.657
128.029
126.97
117.883
87.6915
88.8061
88.4448
103.005
77.6718
98.3406
100.524
113.599
120.578
79.6591
109.549
91.5915
97.0674
131.201
101.384
81.2174
100.933
50.0757
83.6808
116.978
67.2863
136.915
151.851
141.564
190.661
119.523
164.081
159.946
82.7492
58.8878
64.2327
44.9624
69.85
67.2362
57.8881
172.964
136.992
145.208
123.34
176.243
139.949
152.175
273.012
397.201
307.064
381.305
306.055
278.908
344.597
210.58
158.868
240.738
182.208
239.973
211.863
158.887
228.172
186.218
308.967
229.901
232.251
189.787
277.626
578.48
924.49
267.308
415.347
392.505
386.927
163.974
522.583
588.312
395.539
583.16
469.531
315.618
694.22
1673.26
1187.52
3780.69
3482.18
3870.25
2825.97
2724.91
2909.54
2932.91
2502.53
3313.23
3821.01
3364.44
4484.8
2961.85
8548.18
3381.89
3678.94
1832.96
1088.68
2121.74
1719.66
1302.9
2225.41
1147.73
659.58
755.008
1147.22
700.238
1211.48
957.997
1736.31
2271.96
1610.21
2025.48
1771.42
2404.72
1455.81
1966.46
1891.71
2566.83
1509.74
2349.55
2120.65
251.16
292.163
269.325
336.416
276.112
208.885
307.876
154.918
93.6364
118.286
94.1744
134.532
135.413
105.021
223.768
271.173
166.118
231.497
183.613
194.213
275.315
168.935
193.995
119.268
94.2005
185.787
138.869
107.529
754.028
814.206
723.825
464.17
603.47
1005.4
655.75
564.41
7207.15
2464.21
3675.94
2291.01
1954.88
3318.26
889.17
1201.98
1946.27
1927.46
1865.21
1434.53
913.192
719.9
851.096
653.131
1317.29
639.946
1309.88
641.545
533.288
524.153
506.92
930.786
426.696
724.842
706.489
407.185
354.679
405.789
270.523
336.786
520.484
312.754
683.416
1075.97
1232.56
1384.47
1061.97
898.74
829.831
162.815
200.381
201.471
160.716
168.766
195.123
155.008
48.2911
65.8825
41.4122
46.3568
68.3454
50.8754
76.4326
43.2103
55.0771
71.844
153.898
190.027
184.716
144.215
152.715
185.001
145.092
43.7247
63.9642
38.6933
44.8093
62.4262
42.7469
59.8707
38.1793
41.5459
61.0859
148.618
184.001
179.919
139.146
147.884
180.144
139.411
38.0673
54.6572
36.7786
37.4549
54.9429
38.1803
54.6794
36.8413
37.424
54.948
148.697
183.933
180.133
139.041
148.005
180.286
139.358
37.9559
54.5911
37.009
37.4009
54.7506
37.9711
54.2395
37.2403
37.1819
54.6405
366.631
287.085
273.892
283.146
496.473
229.256
263.18
306.287
293.29
271.088
484.841
408.536
483.506
279.144
639.368
351.7
128.925
1084.81
232.14
795.747
214.476
198.028
742.177
87.7191
514.667
241.626
491.911
188.575
414.315
247.538
154.632
207.414
205.31
221.63
182.9
165.328
198.178
84.1178
52.7448
43.0693
51.2253
53.2229
80.047
60.9444
113.092
132.929
94.4936
66.586
135.325
70.5382
109.405
123.41
166.828
84.1618
116.49
123.362
164.865
88.5162
253.746
804.458
279.74
278.487
564.851
207.131
258.45
196.409
173.254
276.149
247.758
222.822
405.277
154.291
211.892
523.234
362.33
371.402
274.214
504.544
226.827
234.25
189.458
153.754
133.119
381.844
203.198
165.038
589.594
1397.92
339.546
696.254
527.064
768.204
543.783
676.032
512.546
217.125
482.043
407.219
376.339
538.778
318.758
580.9
429.594
557.118
434.515
476.483
550.919
1042.08
373.807
1366.59
575.048
807.39
490.703
440.919
549.453
1537.87
2220.54
783.593
727.446
2245.81
561.27
442.747
840.603
1061.49
572.473
841.099
1322.52
356.447
722.984
3578.45
955.637
3471.96
477.362
558.025
600.243
620.089
565.29
490.23
543.649
369.468
307.598
333.943
334.694
365.856
327.448
328.221
406.045
441.989
351.356
373.946
411.353
457.63
350.385
1548.11
242.442
1074.95
5041.33
598.95
1419.49
607.017
693.121
1016.99
629.592
557.611
401.757
248.866
855.175
659.578
297.59
1006.35
360.734
391.577
1102.37
815.339
403.217
359.104
1102.7
357.518
512.029
512.577
397.443
376.024
567.15
463.891
397.414
647.155
266.778
385.661
360.923
649.764
388.065
357.857
675.756
293.824
400.942
393.145
677.725
397.436
388.798
464.688
521.176
545.994
458.805
487.377
431.886
431.513
502.83
550.689
463.78
473.034
497.337
590.592
586.66
566.021
572.715
458.286
614.964
579.571
509.649
451.673
452.709
490.359
564.008
528.802
487.587
529.068
516.631
488.274
561.245
486.409
524.845
84.3422
90.4322
75.6016
95.6377
97.1961
77.2517
85.9026
64.3321
61.1451
74.6879
43.7704
71.8988
52.5506
62.9503
76.2136
90.2042
74.1711
87.2006
82.8905
70.0676
85.8311
65.9465
58.2631
51.4043
84.5081
63.3631
52.8548
65.3852
194.672
183.344
162.764
157.851
159.494
206.134
193.328
254.97
281.126
288.82
246.923
288.745
246.05
259.07
246.05
225.689
297.12
305.091
293.556
243.821
246.565
221.442
166.017
231.226
234.809
197.183
210.87
238.75
156.76
99.2769
172.098
129.835
147.761
116.369
166.032
190.989
191.141
128.443
290.925
149.403
260.386
169.183
128.751
77.3151
87.4484
103.034
132.67
114.896
98.9376
222.185
223.183
313.219
298.221
300.916
207.127
229.101
294.741
281.328
237.308
299.865
238.36
521.42
234.151
276.828
215.094
262.538
211.367
311.048
556.559
291.191
274.082
206.303
486.107
187.913
194.173
462.412
723.267
1049.02
718.61
1044.87
479.57
176.933
194.631
457.324
730.92
1009.6
705.708
1037.01
336.733
337.055
315.724
318.083
629.132
221.229
309.605
234.02
285.452
320.5
232.938
303.539
636.857
309.49
323.142
234.127
422.704
181.53
211.018
461.406
600.017
819.177
549.195
890.465
443.831
241.932
409.414
232.453
652.1
983.863
685.785
934.81
281.813
329.152
283.498
288.2
250.722
296.284
316.476
300.193
403.198
435.507
448.644
352.912
267.743
260.83
369.16
206.482
310.418
2350.32
1160.54
2189.76
1401.42
1289.02
2234.64
1925.45
4598.36
11451.9
4951.85
7487.34
4709.14
8197.31
3761.7
968.926
820.36
571.415
878.187
634.648
647.981
1117.39
687.929
375.172
316.532
390.707
415.119
712.093
405.003
1212.84
450.735
1017.35
327.438
598.32
681.564
436.405
322.541
615.325
448.41
583.119
815.959
1161.42
932.939
530.483
1095.69
637.107
1369.4
655.314
1508.1
1685.1
1152.49
1146.74
1545.9
1467.41
1188.08
1572.17
1512.44
1195.23
1667.44
2177.22
1232.22
1591.7
2415.26
2873.06
4823.79
1682.51
4664.18
2779.85
1550.73
1345.21
1183.16
1557.34
1433.61
1361.58
1280.11
1596.88
530.789
369.809
263.589
328.294
302.048
397.402
512.439
529.29
752.957
295.543
494.247
495.608
312.374
829.576
245.735
336.647
510.01
430.981
362.471
260.527
316.89
331.678
450.206
325.376
287.213
390.948
403.504
307.559
309.618
446.778
433.483
277.112
389.234
265.827
300.007
314.426
323.214
317.883
372.227
363.894
345.353
369.858
344.855
346.879
357.773
344.99
365.209
361.827
345.386
358.296
346.597
347.385
379.116
351.203
369.629
294.748
348.302
334.325
317.443
298.577
450.562
220.019
339.597
291.594
257.68
322.612
286.112
307.402
298.364
325.961
265.789
334.849
357.272
355.545
328.646
340.634
328.693
341.984
323.754
338.865
354.025
337.759
356.468
335.874
293.205
327.286
315.756
242.676
244.687
241.774
255.367
244.725
243.485
235.929
361.487
239.944
201.704
230.066
245.493
319.369
305.12
500.555
445.936
1279.76
508.587
588.752
205.592
242.641
637.616
247.387
861.878
414.366
341.796
323.784
318.594
269.73
296.94
215.295
219.969
224.876
231.326
244.445
292.201
281.369
365.618
284.938
347.696
321.12
237.744
284.787
297.342
335.591
262.34
271.496
259.74
311.988
334.241
259.986
619.268
263.847
380.477
342.437
613.034
376.872
338.635
607.721
273.302
380.002
334.018
605.088
382.895
337.846
278.299
193.621
260.651
695.736
1045.72
695.489
1046.82
165.359
167.703
444.894
483.719
521.126
628.873
422.642
419.484
482.271
545.273
520.851
481.351
521.765
520.26
483.424
544.088
481.189
520.862
608.234
605.132
616.302
622.78
422.169
425.643
484.49
529.913
550.543
485.032
526.671
524.421
476.681
549.795
483.641
520.804
625.992
630.896
629.281
620.894
263.013
265.243
248.274
275.526
537.971
186.392
279.604
250.601
179.726
251.743
180.963
276.67
528.747
274.958
250.393
180.445
437.851
162.023
154.285
445.438
691.077
1042.41
688.552
1045.85
439.689
170.232
456.849
154.538
690.442
1047.3
698.663
1044.89
252.302
250.06
227.532
303.292
192.056
531.231
232.984
289.338
165.875
228.213
175.116
280.96
518.937
282.666
233.867
167.743
441.765
159.631
152.892
440.995
693.952
1045.22
691.001
1044.42
440.299
160.517
443.208
153.569
694.254
1045.62
698.805
1045.39
316.806
325.934
320.798
321.183
350.542
331.124
341.59
335.588
315.15
315.59
310.762
318.717
354.201
343.139
364.343
336.959
273.972
284.349
262.396
288.706
240.195
192.544
199.026
252.374
258.571
211.318
250.757
198.531
250.982
281.837
269.199
268.137
292.001
293.113
293.602
294.818
277.872
288.423
283.666
284.934
291.369
295.453
295.114
293.214
276.595
289.074
276.874
284.208
242.498
250.961
244.563
248.784
215.858
226.849
256.392
269.533
263.011
262.824
206.372
205.72
264.377
254.887
261.477
257.997
261.713
272.98
264.74
269.496
272.251
267.824
264.596
276.03
254.446
259.26
252.25
261.126
266.361
266.427
263.255
270.215
285.877
281.3
282.635
287.928
281.459
281.248
282.589
278.335
271.219
281.353
277.465
273.894
257.823
288.212
272.96
273.86
253.929
194.101
191.211
241.236
245.063
190.871
255.94
193.606
271.041
269.121
253.272
285.253
286.629
283.534
296.272
275.217
271.168
278.546
269.182
281.2
282.948
270.886
280.54
272.632
275.273
296.308
284.525
285.942
274.847
296.509
282.299
287.769
287.639
277.456
275.074
287.058
286.79
277.833
272.981
294.448
275.092
283.992
273.855
286.035
150.207
186.074
181.539
140.443
149.171
181.946
140.987
39.014
56.177
36.6973
38.6406
56.2266
38.9403
55.5208
36.7716
38.0892
56.0009
150.986
187.149
182.727
141.691
150.449
183.045
141.872
39.3137
56.2902
36.7182
38.7124
56.5624
39.3217
56.509
36.8209
38.8438
56.6079
236.812
234.643
231.207
239.523
192.738
195.604
230.241
236.843
234.736
233.123
197.892
194.125
251.048
256.013
249.807
257.447
267.763
263.042
260.239
271.362
259.13
251.178
257.699
252.461
258.932
269.916
266.053
262.21
254.916
248.17
253.659
249.537
256.829
265.414
261.593
260.483
248.11
251.293
252.162
247.002
263.782
261.321
257.68
267.739
279.425
287.885
291.41
275.699
269.186
267.683
264.836
272.3
273.377
264.994
268.819
269.37
275.584
290.76
287.811
278.561
266.546
286.305
270.628
282.298
255.978
190.682
190.092
252.779
252.583
189.519
255.313
190.975
271.668
282.476
287.104
266.708
276.191
292.59
280.46
288.087
275.278
266.597
271.185
270.63
270.12
270.136
265.719
274.391
281.381
288.548
293.572
276.681
275.845
296.002
286.724
284.703
280.352
268.228
270.625
277.293
285.422
285.647
296.31
275.429
270.749
275.935
267.643
279.45
272.818
281.34
265.301
288.304
252.562
189.949
191.658
256.596
256.946
191.641
252.031
190.854
266.3
287.761
272.304
281.881
283.267
287.192
276.06
295.314
270.56
272.415
266.938
276.405
277.852
267.17
274.076
270.625
276.3
294.327
282.344
287.866
275.084
289.719
287.111
277.555
271.603
264.724
267.16
269.309
268.878
266.859
264.188
271.37
277.926
287.649
290.184
275.557
267.507
281.611
265.903
283.107
251.99
188.137
188.738
252.759
252.649
188.572
251.747
188.777
266.531
283.189
282.028
267.664
277.385
287.365
275.073
289.223
269.254
266.873
264.882
271.556
271.3
264.185
266.609
268.707
275.666
289.639
287.954
277.724
227.939
232.316
229.477
230.382
189.33
188.974
228.041
229.365
227.433
230.497
189.899
190.729
245.998
247.383
260.997
256.55
245.794
246.856
244.576
248.408
256.102
258.248
254.241
260.374
246.392
243.823
244.635
245.161
255.045
262.149
257.745
259.425
267.749
284.641
268.562
283.403
253.072
188.264
188.907
252.487
253.089
189.035
253.611
189.23
268.146
282.503
267.02
283.888
291.085
278.847
267.99
272.553
277.435
291.025
289.41
279.195
272.093
265.686
270.303
267.737
278.254
288.7
276.502
290.251
271.283
268.99
266.527
273.202
476.504
548.795
801.337
538.844
627.039
739.655
838.517
690.109
823.253
794.008
786.552
826.153
919.216
1048.88
1071.33
595.147
571.68
949.805
533.133
1032.44
729.823
1626.85
4753.8
2146.87
2230.45
2540.39
1147.95
1018.33
977.068
930.718
886.331
962.015
895.013
1028.73
977.34
865.791
858.114
908.783
909.727
926.559
879.975
4069.63
2253.06
6169.1
2972.74
3852.09
5825.59
2404.01
1025.39
982.764
865.919
922.006
1028.39
855.729
989.605
1037.51
899.126
1032.34
951.517
1056.1
872.45
1007.77
788.351
970.217
727.216
1321.91
636.824
898.742
1191.07
907.714
750.03
650.266
537.704
750.788
613.826
467.266
1011.35
1108.16
721.592
1084.69
807.583
629.919
1207.65
639.844
748.036
633.576
608.534
763.809
611.339
635.573
632.534
602.672
769.882
633.921
765.951
629.069
607.883
586.172
762.097
588.398
610.47
614.255
735.553
565.557
612.676
586.058
615.822
757.095
752.413
579.914
600.134
2996.96
2393.51
2100.63
1902.69
3464.31
1967.43
2116.09
3035.8
3220.67
5643.18
5856.22
3515.46
3620.05
2388.4
793.238
635.651
666.106
635.904
738.309
609.215
610.954
639.223
724.145
607.919
639.268
612.684
608.149
730.361
721.914
607.392
642.609
660.07
786.259
632.224
632.886
771.431
663.455
628.862
654.638
616.687
625.33
741.919
760.511
623.989
648.789
)
;

boundaryField
{
    left
    {
        type            calculated;
        value           nonuniform List<scalar> 
598
(
317.974
168.411
66.9202
197.627
263.028
195.08
273.424
316.705
360.016
293.27
310.637
94.0653
262.537
477.438
195.294
197.497
229.903
227.996
292.336
229.759
227.569
1334.77
453.563
131.419
340.099
354.842
289.916
345.012
274.432
271.343
341.142
306.985
270.76
270.582
782.841
1648.28
170.283
462.325
2651.96
87.44
367.257
128.396
198.499
199.447
194.687
194.624
345.954
3006.82
375.809
303.707
325.814
277.935
313.934
276.233
375.698
345.516
323.345
101.768
272.199
139.811
287.4
268.017
124.695
340.256
331.317
196.669
196.903
280.292
275.734
229.729
292.387
294.909
289.181
291.598
229.392
229.292
304.46
364.404
295.821
302.632
228.504
299.419
282.056
227.134
288.518
288.659
289.162
227.344
271.223
569.416
304.822
304.244
236.604
235.596
293.539
287.045
234.988
234.666
127.478
222.727
131.253
55.8425
83.8775
77.1886
198.177
56.1858
56.7628
72.863
32.6454
222.297
195.475
65.3354
59.7766
61.445
195.084
305.87
338.643
112.034
558.591
856.764
481.026
328.519
258.739
258.93
377.524
372.308
320.563
123.586
206.346
129.805
251.928
216.524
180.427
564.947
441.706
196.208
60.5811
59.8355
56.4824
58.9101
197.667
245.771
244.307
230.021
304.249
303.864
302.292
302.844
228.501
263.735
337.571
367.247
303.107
302.29
229.685
248.31
246.759
227.325
301.411
301.784
303.319
228.181
237.51
592.057
493.222
288.196
333.313
533.88
495.377
293.274
199.577
316.429
299.25
347.81
327.636
332.128
333.488
335.082
356.894
440.627
417.375
364.323
239.119
237.773
273.425
257.206
258.409
254.907
256.04
272.382
323.05
306.938
319.714
307.478
310.45
313.162
297.593
292.399
270.597
254.091
254.281
254.03
253.997
270.522
234.548
234.656
2368.04
1147.27
1811.84
934.103
270.278
307.326
176.398
705.153
343.8
343.494
424
339.702
1108.87
163.73
121.941
70.1578
275.557
192.169
245.59
89.3727
139.876
208.146
50.3074
55.7109
198.285
212.908
36.4426
49.0173
62.0714
64.7231
195.373
195.014
61.8188
61.6152
832.111
440.894
316.527
2747.22
1556.73
995.939
1231.68
2475.97
402.109
734.487
681.099
325.39
369.081
350.093
395.434
322.149
279.964
273.835
466.313
320.66
279.163
287.256
256.628
254.804
294.042
374.85
378.928
384.066
336.644
362.925
363.239
316.336
353.164
324.86
162.302
198.06
111.265
306.038
279.027
242.55
132.756
202.47
225.646
307.902
246.334
257.531
217.433
235.01
311.503
142.073
185.744
159.633
464.026
523.865
422.087
564.582
371.227
380.943
484.011
391.272
58.6645
60.4075
196.441
197.551
59.0595
58.8205
278.908
263.814
265.499
259.961
261.886
277.338
242.471
240.644
304.276
304.275
229.925
293.287
305.385
305.094
305.724
305.772
294.222
289.825
303.337
302.806
304.761
304.042
290.685
228.995
303.454
304.035
294.962
307.378
239.748
316.941
317.518
302.443
375.38
348.093
340.532
297.73
305.728
305.542
303.643
305.72
300.62
229.342
300.808
297.429
270.604
253.918
290.986
277.539
292.05
267.332
270.514
285.242
301.434
301.287
227.173
288.184
301.781
302.07
302.307
301.877
288.255
291.146
304.316
302.618
303.293
289.962
227.734
302.499
301.875
235.254
236.264
272.379
255.848
254.661
257.148
273.64
198.052
185.45
184.829
222.026
214.878
248.071
183.495
184.096
195.298
286.169
236.771
227.709
348.965
337.823
356.381
195.861
184.536
183.689
184.757
185.416
197.795
456.411
504.485
3738.74
183.936
184.6
198.504
201.677
185.571
184.32
183.722
184.607
195.153
194.964
184.143
183.554
408.086
381.641
355.788
453.806
573.835
464.182
318.697
328.736
326.44
184.589
185.162
196.86
197.405
185.562
184.796
678.821
185.207
185.672
198.315
58.3966
105.778
104.681
104.51
105.5
58.1304
37.4379
103.54
108.035
103.001
102.666
28.1241
235.128
206.096
199.231
185.266
108.153
62.1178
106.3
104.926
105.915
106.906
63.1703
195.336
184.38
183.995
264.494
246.406
295.653
247.121
184.433
242.929
116.487
146.862
176.191
184.726
185.03
196.24
62.6002
106.922
105.858
105.036
106.415
61.9469
58.8929
105.657
104.296
105.595
106.338
60.1071
197.875
185.806
185.51
786.759
640.565
447.394
954.595
494.527
268.429
162.162
4417.06
5670.98
3732
4332.29
2228.09
3174.84
2990.22
53.6836
103.921
102.458
104.564
104.882
55.8851
198.469
185.123
185.088
192.215
188.785
206.205
43.6805
102.805
101.596
102.366
102.641
47.2763
64.7225
107.653
106.022
107.791
108.481
66.0118
195.434
185.186
185.032
184.017
184.437
195.159
64.0025
107.287
106.096
105.748
106.918
63.4846
695.903
488.504
591.569
309.232
403.787
566.433
325.877
332.373
289.478
1679.55
2260.63
1979
2609.45
2368.17
1925.78
455.666