/*--------------------------------*- C++ -*----------------------------------*\
| =========                 |                                                 |
| \\      /  F ield         | OpenFOAM: The Open Source CFD Toolbox           |
|  \\    /   O peration     | Version:  2012                                  |
|   \\  /    A nd           | Website:  www.openfoam.com                      |
|    \\/     M anipulation  |                                                 |
\*---------------------------------------------------------------------------*/
FoamFile
{
    version     2.0;
    format      ascii;
    class       volVectorField;
    location    "0.106/solid";
    object      D_0_0_0;
}
// * * * * * * * * * * * * * * * * * * * * * * * * * * * * * * * * * * * * * //

dimensions      [0 1 0 0 0 0 0];


internalField   nonuniform List<vector> 
3125
(
(-1.3566e-05 -7.96908e-06 1.30959e-06)
(-2.32986e-05 -1.39401e-05 1.54964e-06)
(-3.16526e-05 -1.91108e-05 1.65372e-06)
(-4.28005e-05 -2.60679e-05 1.70848e-06)
(-5.17845e-05 -3.17105e-05 1.5926e-06)
(-1.33978e-05 -7.98239e-06 1.96528e-06)
(-2.21491e-05 -1.32316e-05 1.52926e-06)
(-1.45679e-05 -8.58036e-06 1.34282e-06)
(-2.19552e-05 -1.32399e-05 2.29573e-06)
(-1.43958e-05 -8.59301e-06 2.01536e-06)
(-2.31022e-05 -1.39479e-05 2.3263e-06)
(-3.14425e-05 -1.9115e-05 2.48183e-06)
(-4.15549e-05 -2.52872e-05 1.70563e-06)
(-3.28778e-05 -1.98722e-05 1.66362e-06)
(-4.13359e-05 -2.52886e-05 2.55794e-06)
(-3.26662e-05 -1.9876e-05 2.49652e-06)
(-5.17823e-05 -3.16143e-05 1.01893e-06)
(-5.16759e-05 -3.16145e-05 1.42946e-06)
(-4.25808e-05 -2.60691e-05 2.56194e-06)
(-5.16754e-05 -3.17108e-05 2.01349e-06)
(-1.38718e-05 -8.64274e-06 4.74497e-06)
(-1.3842e-05 -8.56908e-06 4.29581e-06)
(-3.19454e-05 -1.99735e-05 5.99286e-06)
(-2.77166e-05 -1.73206e-05 5.83352e-06)
(-2.3002e-05 -1.42905e-05 5.05098e-06)
(-2.68214e-05 -1.6116e-05 1.60217e-06)
(-2.70991e-05 -1.68526e-05 5.25598e-06)
(-2.30259e-05 -1.43801e-05 5.57962e-06)
(-2.71208e-05 -1.6947e-05 5.80616e-06)
(-3.1926e-05 -1.98746e-05 5.42494e-06)
(-2.80169e-05 -1.6856e-05 1.61695e-06)
(-2.76953e-05 -1.72256e-05 5.28073e-06)
(-5.18009e-05 -3.24812e-05 6.19025e-06)
(-4.74252e-05 -2.97154e-05 6.21241e-06)
(-4.24386e-05 -2.64752e-05 5.6005e-06)
(-4.6534e-05 -2.84139e-05 1.71376e-06)
(-4.67897e-05 -2.92174e-05 5.62233e-06)
(-4.24545e-05 -2.65802e-05 6.18668e-06)
(-4.68046e-05 -2.93234e-05 6.21066e-06)
(-5.17908e-05 -3.2382e-05 5.62916e-06)
(-4.77776e-05 -2.91974e-05 1.7146e-06)
(-4.74106e-05 -2.96094e-05 5.62394e-06)
(-1.37699e-05 -8.66937e-06 5.15721e-06)
(-1.3762e-05 -8.58739e-06 4.62092e-06)
(-1.437e-05 -8.95518e-06 4.80611e-06)
(-1.80118e-05 -1.12379e-05 5.19087e-06)
(-1.87907e-05 -1.11662e-05 1.45898e-06)
(-2.24291e-05 -1.39325e-05 5.01695e-06)
(-1.85255e-05 -1.14937e-05 4.74351e-06)
(-1.43406e-05 -8.8804e-06 4.35113e-06)
(-1.77052e-05 -1.05002e-05 1.43241e-06)
(-1.79848e-05 -1.1156e-05 4.69924e-06)
(-2.24533e-05 -1.40212e-05 5.54202e-06)
(-1.85521e-05 -1.15765e-05 5.2398e-06)
(-1.4267e-05 -8.98113e-06 5.22327e-06)
(-1.7901e-05 -1.12592e-05 5.63876e-06)
(-1.86052e-05 -1.11763e-05 2.19018e-06)
(-2.23361e-05 -1.39438e-05 5.39245e-06)
(-1.84375e-05 -1.15079e-05 5.10007e-06)
(-1.42596e-05 -8.89825e-06 4.68015e-06)
(-1.75228e-05 -1.05109e-05 2.15022e-06)
(-1.78976e-05 -1.11707e-05 5.05271e-06)
(-2.23352e-05 -1.40377e-05 6.01758e-06)
(-1.84403e-05 -1.15972e-05 5.69158e-06)
(-3.18169e-05 -1.99816e-05 6.50264e-06)
(-2.75921e-05 -1.7332e-05 6.33153e-06)
(-2.29083e-05 -1.43014e-05 5.4288e-06)
(-2.66184e-05 -1.61222e-05 2.40497e-06)
(-2.70014e-05 -1.68608e-05 5.6477e-06)
(-2.2907e-05 -1.43959e-05 6.05811e-06)
(-2.69969e-05 -1.69589e-05 6.3021e-06)
(-3.18246e-05 -1.98802e-05 5.82773e-06)
(-2.78119e-05 -1.68616e-05 2.42705e-06)
(-2.7597e-05 -1.72335e-05 5.67411e-06)
(-3.25564e-05 -2.0357e-05 6.0113e-06)
(-3.68663e-05 -2.30642e-05 6.11349e-06)
(-3.7822e-05 -2.29527e-05 1.69287e-06)
(-4.18166e-05 -2.60838e-05 5.59554e-06)
(-3.74682e-05 -2.33508e-05 5.54419e-06)
(-3.25372e-05 -2.02576e-05 5.44163e-06)
(-3.6581e-05 -2.21783e-05 1.68699e-06)
(-3.68488e-05 -2.29619e-05 5.53416e-06)
(-4.18326e-05 -2.61885e-05 6.18121e-06)
(-3.74855e-05 -2.34535e-05 6.12456e-06)
(-3.24274e-05 -2.03647e-05 6.5224e-06)
(-3.67344e-05 -2.30691e-05 6.6315e-06)
(-3.76056e-05 -2.2955e-05 2.53956e-06)
(-4.17106e-05 -2.60855e-05 6.00798e-06)
(-3.73638e-05 -2.33539e-05 5.95413e-06)
(-3.24354e-05 -2.02629e-05 5.84547e-06)
(-3.63657e-05 -2.21809e-05 2.53098e-06)
(-3.67446e-05 -2.29653e-05 5.94355e-06)
(-4.16984e-05 -2.61909e-05 6.70295e-06)
(-3.73533e-05 -2.3458e-05 6.64326e-06)
(-5.16623e-05 -3.24812e-05 6.72261e-06)
(-4.72895e-05 -2.97161e-05 6.73475e-06)
(-4.23324e-05 -2.64767e-05 6.01312e-06)
(-4.63129e-05 -2.84145e-05 2.56901e-06)
(-4.66826e-05 -2.92179e-05 6.03538e-06)
(-4.232e-05 -2.65823e-05 6.70863e-06)
(-4.6669e-05 -2.93242e-05 6.73306e-06)
(-5.16822e-05 -3.2382e-05 6.04634e-06)
(-4.75562e-05 -2.91979e-05 2.56988e-06)
(-4.73034e-05 -2.96098e-05 6.03695e-06)
(-1.39439e-05 -8.9363e-06 6.59253e-06)
(-1.37998e-05 -8.29331e-06 2.5165e-06)
(-3.19519e-05 -2.03373e-05 8.31435e-06)
(-3.01332e-05 -1.91889e-05 8.22995e-06)
(-2.29822e-05 -1.39644e-05 2.95631e-06)
(-2.44612e-05 -1.46575e-05 1.56856e-06)
(-2.47241e-05 -1.50443e-05 3.0117e-06)
(-2.30596e-05 -1.47188e-05 7.74602e-06)
(-2.4791e-05 -1.58137e-05 7.8905e-06)
(-3.1922e-05 -1.95196e-05 3.17417e-06)
(-3.04334e-05 -1.83539e-05 1.64268e-06)
(-3.00948e-05 -1.83816e-05 3.14162e-06)
(-5.17585e-05 -3.28591e-05 8.64004e-06)
(-4.99013e-05 -3.16777e-05 8.61512e-06)
(-4.24466e-05 -2.61019e-05 3.27616e-06)
(-4.40458e-05 -2.68494e-05 1.71074e-06)
(-4.43139e-05 -2.72751e-05 3.28312e-06)
(-4.24405e-05 -2.69595e-05 8.57611e-06)
(-4.43036e-05 -2.81365e-05 8.59288e-06)
(-5.17913e-05 -3.19985e-05 3.30743e-06)
(-5.03002e-05 -3.07898e-05 1.71153e-06)
(-4.99231e-05 -3.08122e-05 3.29226e-06)
(-1.38697e-05 -8.96e-06 6.87302e-06)
(-1.37004e-05 -8.307e-06 2.91489e-06)
(-1.44397e-05 -9.25198e-06 6.67713e-06)
(-1.59616e-05 -1.02198e-05 6.91792e-06)
(-2.10138e-05 -1.25326e-05 1.50738e-06)
(-2.24081e-05 -1.36087e-05 2.93666e-06)
(-2.07074e-05 -1.25559e-05 2.87268e-06)
(-1.42998e-05 -8.60104e-06 2.54847e-06)
(-1.55926e-05 -9.20651e-06 1.37435e-06)
(-1.58342e-05 -9.54623e-06 2.64051e-06)
(-2.24891e-05 -1.43578e-05 7.69416e-06)
(-2.07994e-05 -1.32883e-05 7.52711e-06)
(-1.43648e-05 -9.27506e-06 6.96083e-06)
(-1.58848e-05 -1.02411e-05 7.21075e-06)
(-2.08226e-05 -1.25415e-05 2.26289e-06)
(-2.22928e-05 -1.36172e-05 3.3993e-06)
(-2.05945e-05 -1.25653e-05 3.32568e-06)
(-1.41992e-05 -8.61437e-06 2.95185e-06)
(-1.54169e-05 -9.21851e-06 2.06285e-06)
(-1.57302e-05 -9.55855e-06 3.05798e-06)
(-2.2406e-05 -1.43723e-05 8.016e-06)
(-2.07177e-05 -1.33044e-05 7.84278e-06)
(-3.18635e-05 -2.03442e-05 8.65827e-06)
(-3.00455e-05 -1.91971e-05 8.57102e-06)
(-2.2866e-05 -1.39725e-05 3.42196e-06)
(-2.42625e-05 -1.46647e-05 2.35465e-06)
(-2.46057e-05 -1.50516e-05 3.48564e-06)
(-2.29761e-05 -1.47327e-05 8.06977e-06)
(-2.47063e-05 -1.58261e-05 8.21952e-06)
(-3.17965e-05 -1.95238e-05 3.67205e-06)
(-3.02249e-05 -1.83586e-05 2.46541e-06)
(-2.99707e-05 -1.83865e-05 3.63484e-06)
(-3.25614e-05 -2.07221e-05 8.33956e-06)
(-3.43979e-05 -2.18816e-05 8.40688e-06)
(-4.03096e-05 -2.45075e-05 1.70212e-06)
(-4.18241e-05 -2.57112e-05 3.27331e-06)
(-3.9957e-05 -2.45404e-05 3.26267e-06)
(-3.25341e-05 -1.99011e-05 3.18379e-06)
(-3.41081e-05 -2.06376e-05 1.67242e-06)
(-3.43783e-05 -2.10515e-05 3.20985e-06)
(-4.18195e-05 -2.65673e-05 8.569e-06)
(-3.99575e-05 -2.53915e-05 8.54249e-06)
(-3.24727e-05 -2.07286e-05 8.68431e-06)
(-3.43085e-05 -2.18869e-05 8.75379e-06)
(-4.00914e-05 -2.45092e-05 2.55294e-06)
(-4.16929e-05 -2.57125e-05 3.78438e-06)
(-3.98265e-05 -2.45421e-05 3.77255e-06)
(-3.2408e-05 -1.99051e-05 3.68307e-06)
(-3.38952e-05 -2.0641e-05 2.50955e-06)
(-3.42509e-05 -2.10549e-05 3.71277e-06)
(-4.17283e-05 -2.6569e-05 8.92015e-06)
(-3.98666e-05 -2.5394e-05 8.89315e-06)
(-5.0296e-05 -3.05932e-05 5.36814e-07)
(-5.00917e-05 -3.05935e-05 1.32452e-06)
(-5.16666e-05 -3.28592e-05 8.9932e-06)
(-4.98095e-05 -3.16775e-05 8.96538e-06)
(-4.23151e-05 -2.61031e-05 3.78754e-06)
(-4.38255e-05 -2.68504e-05 2.56506e-06)
(-4.41818e-05 -2.7276e-05 3.79514e-06)
(-4.23492e-05 -2.6961e-05 8.92736e-06)
(-4.4212e-05 -2.81374e-05 8.94424e-06)
(-5.16673e-05 -3.19986e-05 3.78522e-06)
(-5.00776e-05 -3.07903e-05 2.57006e-06)
(-4.97902e-05 -3.08125e-05 3.80427e-06)
(-1.39251e-05 -8.8538e-06 6.08226e-06)
(-1.38081e-05 -8.36162e-06 2.95322e-06)
(-2.7735e-05 -1.76742e-05 8.09575e-06)
(-2.95305e-05 -1.88083e-05 8.19879e-06)
(-3.19535e-05 -2.02388e-05 7.67519e-06)
(-3.01218e-05 -1.88292e-05 5.93124e-06)
(-3.01333e-05 -1.90913e-05 7.59691e-06)
(-2.77329e-05 -1.75779e-05 7.47255e-06)
(-2.95175e-05 -1.845e-05 5.90852e-06)
(-2.95301e-05 -1.8711e-05 7.56802e-06)
(-2.29861e-05 -1.4045e-05 3.47095e-06)
(-2.47404e-05 -1.53773e-05 5.1458e-06)
(-2.47273e-05 -1.51266e-05 3.536e-06)
(-2.56359e-05 -1.5383e-05 1.58606e-06)
(-2.70873e-05 -1.65114e-05 3.07585e-06)
(-2.53108e-05 -1.54083e-05 3.02859e-06)
(-2.5326e-05 -1.57435e-05 5.17505e-06)
(-2.70896e-05 -1.65956e-05 3.61154e-06)
(-2.53137e-05 -1.54911e-05 3.55603e-06)
(-2.7141e-05 -1.72989e-05 8.05813e-06)
(-2.53743e-05 -1.61825e-05 7.93503e-06)
(-2.30528e-05 -1.46258e-05 7.1488e-06)
(-2.47633e-05 -1.5469e-05 5.68441e-06)
(-2.47861e-05 -1.57194e-05 7.2825e-06)
(-2.71384e-05 -1.7203e-05 7.4377e-06)
(-2.53486e-05 -1.58359e-05 5.71674e-06)
(-2.537e-05 -1.60877e-05 7.32372e-06)
(-3.19227e-05 -1.96072e-05 3.72738e-06)
(-3.01016e-05 -1.87318e-05 5.36917e-06)
(-3.00961e-05 -1.84681e-05 3.68913e-06)
(-2.92212e-05 -1.76021e-05 1.63044e-06)
(-2.76844e-05 -1.68824e-05 3.09013e-06)
(-2.94892e-05 -1.80047e-05 3.12976e-06)
(-2.9497e-05 -1.83533e-05 5.34861e-06)
(-2.76865e-05 -1.69672e-05 3.62849e-06)
(-2.94907e-05 -1.80908e-05 3.67505e-06)
(-4.74057e-05 -3.00976e-05 8.60836e-06)
(-4.92708e-05 -3.12782e-05 8.61365e-06)
(-5.17864e-05 -3.2768e-05 7.98096e-06)
(-4.99258e-05 -3.12968e-05 6.21526e-06)
(-4.99108e-05 -3.15749e-05 7.95612e-06)
(-4.74152e-05 -2.99952e-05 7.95009e-06)
(-4.92935e-05 -3.08966e-05 6.21536e-06)
(-4.92805e-05 -3.11756e-05 7.9548e-06)
(-4.24449e-05 -2.6194e-05 3.84784e-06)
(-4.43045e-05 -2.76502e-05 5.6124e-06)
(-4.43119e-05 -2.73676e-05 3.85606e-06)
(-4.52903e-05 -2.76314e-05 1.71247e-06)
(-4.68007e-05 -2.88407e-05 3.28892e-06)
(-4.49359e-05 -2.76664e-05 3.28488e-06)
(-4.49261e-05 -2.80419e-05 5.61546e-06)
(-4.67983e-05 -2.89336e-05 3.86295e-06)
(-4.49338e-05 -2.7759e-05 3.85817e-06)
(-4.67857e-05 -2.97054e-05 8.60625e-06)
(-4.49244e-05 -2.85288e-05 8.59708e-06)
(-4.24484e-05 -2.68577e-05 7.9192e-06)
(-4.43199e-05 -2.77557e-05 6.19976e-06)
(-4.43122e-05 -2.80344e-05 7.93512e-06)
(-4.67951e-05 -2.96031e-05 7.94803e-06)
(-4.49414e-05 -2.81477e-05 6.20313e-06)
(-4.49333e-05 -2.84267e-05 7.93916e-06)
(-5.17889e-05 -3.20933e-05 3.89015e-06)
(-4.99152e-05 -3.1193e-05 5.62773e-06)
(-4.9921e-05 -3.09059e-05 3.86763e-06)
(-4.90268e-05 -2.99856e-05 1.71472e-06)
(-4.74218e-05 -2.92323e-05 3.28985e-06)
(-4.92917e-05 -3.04129e-05 3.2918e-06)
(-4.92813e-05 -3.07918e-05 5.62713e-06)
(-4.74195e-05 -2.93253e-05 3.86408e-06)
(-4.92893e-05 -3.05063e-05 3.8667e-06)
(-1.38369e-05 -8.88061e-06 6.42592e-06)
(-1.37131e-05 -8.37701e-06 3.33695e-06)
(-1.44217e-05 -9.16871e-06 6.16045e-06)
(-1.58991e-05 -9.91377e-06 4.98018e-06)
(-1.59458e-05 -1.01344e-05 6.38302e-06)
(-1.80649e-05 -1.15552e-05 7.20922e-06)
(-1.64798e-05 -1.05491e-05 6.9939e-06)
(-1.64197e-05 -1.02401e-05 5.03512e-06)
(-1.80521e-05 -1.14672e-05 6.65231e-06)
(-1.64648e-05 -1.04629e-05 6.45325e-06)
(-1.9894e-05 -1.18439e-05 1.48396e-06)
(-1.84956e-05 -1.11886e-05 2.77715e-06)
(-2.01482e-05 -1.221e-05 2.85013e-06)
(-2.24122e-05 -1.36888e-05 3.44766e-06)
(-2.07321e-05 -1.28721e-05 4.90744e-06)
(-2.07122e-05 -1.26341e-05 3.37254e-06)
(-1.85015e-05 -1.12641e-05 3.26014e-06)
(-2.01741e-05 -1.25235e-05 4.86841e-06)
(-2.01533e-05 -1.22875e-05 3.34581e-06)
(-1.43079e-05 -8.67025e-06 2.99109e-06)
(-1.58708e-05 -9.83581e-06 4.50861e-06)
(-1.58414e-05 -9.61792e-06 3.09912e-06)
(-1.66388e-05 -9.84673e-06 1.40421e-06)
(-1.79536e-05 -1.08539e-05 2.75157e-06)
(-1.63565e-05 -9.86823e-06 2.66923e-06)
(-1.63917e-05 -1.01611e-05 4.55832e-06)
(-1.79598e-05 -1.09286e-05 3.22982e-06)
(-1.63634e-05 -9.94073e-06 3.13316e-06)
(-1.8603e-05 -1.18965e-05 7.27684e-06)
(-2.0244e-05 -1.29365e-05 7.46754e-06)
(-2.24817e-05 -1.42654e-05 7.10081e-06)
(-2.07573e-05 -1.29584e-05 5.42099e-06)
(-2.079e-05 -1.31973e-05 6.94629e-06)
(-1.85908e-05 -1.18078e-05 6.71484e-06)
(-2.01997e-05 -1.2609e-05 5.37785e-06)
(-2.02339e-05 -1.28461e-05 6.89119e-06)
(-1.43326e-05 -9.19483e-06 6.50809e-06)
(-1.57926e-05 -9.93772e-06 5.41128e-06)
(-1.58541e-05 -1.01585e-05 6.74196e-06)
(-1.79858e-05 -1.15741e-05 7.51302e-06)
(-1.64024e-05 -1.05697e-05 7.2896e-06)
(-1.6312e-05 -1.02634e-05 5.47061e-06)
(-1.79573e-05 -1.14886e-05 7.02485e-06)
(-1.63723e-05 -1.04864e-05 6.81575e-06)
(-1.97055e-05 -1.18534e-05 2.22772e-06)
(-1.83864e-05 -1.11992e-05 3.21561e-06)
(-2.00363e-05 -1.22197e-05 3.29965e-06)
(-2.23017e-05 -1.36983e-05 3.89263e-06)
(-2.06411e-05 -1.28846e-05 5.27539e-06)
(-2.06041e-05 -1.26447e-05 3.80831e-06)
(-1.8397e-05 -1.1276e-05 3.68205e-06)
(-2.00839e-05 -1.25365e-05 5.23365e-06)
(-2.00461e-05 -1.22985e-05 3.77829e-06)
(-1.42117e-05 -8.68524e-06 3.37957e-06)
(-1.5787e-05 -9.85228e-06 4.84873e-06)
(-1.57419e-05 -9.63177e-06 3.50106e-06)
(-1.64596e-05 -9.85808e-06 2.10779e-06)
(-1.78455e-05 -1.08649e-05 3.18607e-06)
(-1.62513e-05 -9.8802e-06 3.09118e-06)
(-1.6307e-05 -1.01771e-05 4.90193e-06)
(-1.78562e-05 -1.0941e-05 3.64798e-06)
(-1.62628e-05 -9.9542e-06 3.53934e-06)
(-1.85233e-05 -1.19148e-05 7.58318e-06)
(-2.01627e-05 -1.29531e-05 7.78099e-06)
(-2.23815e-05 -1.42818e-05 7.4957e-06)
(-2.06418e-05 -1.29766e-05 5.88707e-06)
(-2.06918e-05 -1.32156e-05 7.33353e-06)
(-1.84953e-05 -1.18286e-05 7.09052e-06)
(-2.00851e-05 -1.26278e-05 5.84053e-06)
(-2.01363e-05 -1.2865e-05 7.27568e-06)
(-2.76485e-05 -1.76841e-05 8.43214e-06)
(-2.94431e-05 -1.88169e-05 8.53878e-06)
(-3.1846e-05 -2.02469e-05 8.09751e-06)
(-2.99949e-05 -1.88386e-05 6.43654e-06)
(-3.00269e-05 -1.91007e-05 8.01567e-06)
(-2.76282e-05 -1.75893e-05 7.88548e-06)
(-2.93911e-05 -1.846e-05 6.41214e-06)
(-2.94241e-05 -1.8721e-05 7.98544e-06)
(-2.28748e-05 -1.40542e-05 3.91877e-06)
(-2.46449e-05 -1.5387e-05 5.5301e-06)
(-2.46138e-05 -1.51348e-05 3.99172e-06)
(-2.54349e-05 -1.53897e-05 2.38085e-06)
(-2.69662e-05 -1.65176e-05 3.55936e-06)
(-2.51917e-05 -1.54153e-05 3.5051e-06)
(-2.52299e-05 -1.57528e-05 5.56133e-06)
(-2.69734e-05 -1.66026e-05 4.07635e-06)
(-2.51995e-05 -1.5499e-05 4.01417e-06)
(-2.70548e-05 -1.73093e-05 8.39318e-06)
(-2.52892e-05 -1.61944e-05 8.26567e-06)
(-2.29521e-05 -1.46417e-05 7.54605e-06)
(-2.46421e-05 -1.54831e-05 6.17103e-06)
(-2.46837e-05 -1.57336e-05 7.68629e-06)
(-2.70341e-05 -1.7215e-05 7.84898e-06)
(-2.52267e-05 -1.58494e-05 6.20584e-06)
(-2.52672e-05 -1.61014e-05 7.72952e-06)
(-3.18022e-05 -1.9612e-05 4.20583e-06)
(-3.00015e-05 -1.87384e-05 5.76837e-06)
(-2.99771e-05 -1.84736e-05 4.16314e-06)
(-2.90144e-05 -1.76072e-05 2.44717e-06)
(-2.75627e-05 -1.68883e-05 3.5758e-06)
(-2.93658e-05 -1.80099e-05 3.62122e-06)
(-2.93973e-05 -1.83601e-05 5.74647e-06)
(-2.75698e-05 -1.69738e-05 4.09533e-06)
(-2.93722e-05 -1.80966e-05 4.1474e-06)
(-3.25635e-05 -2.06233e-05 7.69859e-06)
(-3.43972e-05 -2.15129e-05 6.06065e-06)
(-3.44013e-05 -2.1782e-05 7.76113e-06)
(-3.68617e-05 -2.3437e-05 8.47858e-06)
(-3.50124e-05 -2.22695e-05 8.42667e-06)
(-3.50131e-05 -2.18997e-05 6.0752e-06)
(-3.68667e-05 -2.33365e-05 7.82785e-06)
(-3.50162e-05 -2.21697e-05 7.77952e-06)
(-3.90651e-05 -2.37293e-05 1.69789e-06)
(-3.74715e-05 -2.29843e-05 3.24342e-06)
(-3.93351e-05 -2.41507e-05 3.25848e-06)
(-4.18225e-05 -2.58031e-05 3.84443e-06)
(-3.99512e-05 -2.49107e-05 5.57731e-06)
(-3.99557e-05 -2.46317e-05 3.83188e-06)
(-3.74707e-05 -2.30747e-05 3.80914e-06)
(-3.93298e-05 -2.45202e-05 5.57003e-06)
(-3.93339e-05 -2.42419e-05 3.82689e-06)
(-3.25346e-05 -1.99891e-05 3.73881e-06)
(-3.43788e-05 -2.14122e-05 5.48631e-06)
(-3.43783e-05 -2.11405e-05 3.76946e-06)
(-3.53428e-05 -2.14064e-05 1.6802e-06)
(-3.68513e-05 -2.25965e-05 3.23765e-06)
(-3.49952e-05 -2.14367e-05 3.21743e-06)
(-3.49949e-05 -2.17986e-05 5.49948e-06)
(-3.68507e-05 -2.26866e-05 3.80227e-06)
(-3.49951e-05 -2.1526e-05 3.77848e-06)
(-3.74797e-05 -2.38271e-05 8.49352e-06)
(-3.93373e-05 -2.49999e-05 8.53178e-06)
(-4.18272e-05 -2.64656e-05 7.91248e-06)
(-3.99677e-05 -2.50146e-05 6.16112e-06)
(-3.99643e-05 -2.52902e-05 7.88756e-06)
(-3.74851e-05 -2.37265e-05 7.84178e-06)
(-3.93465e-05 -2.46238e-05 6.15308e-06)
(-3.93438e-05 -2.48988e-05 7.87753e-06)
(-3.24556e-05 -2.06309e-05 8.12195e-06)
(-3.42669e-05 -2.15193e-05 6.57518e-06)
(-3.42925e-05 -2.17883e-05 8.18718e-06)
(-3.67715e-05 -2.34409e-05 8.82762e-06)
(-3.49228e-05 -2.22745e-05 8.77419e-06)
(-3.48824e-05 -2.19057e-05 6.59071e-06)
(-3.67569e-05 -2.33413e-05 8.25659e-06)
(-3.49072e-05 -2.21756e-05 8.20635e-06)
(-3.88477e-05 -2.37312e-05 2.54685e-06)
(-3.73422e-05 -2.29867e-05 3.75089e-06)
(-3.92049e-05 -2.41526e-05 3.76784e-06)
(-4.16964e-05 -2.58045e-05 4.33522e-06)
(-3.98458e-05 -2.49129e-05 5.98896e-06)
(-3.98304e-05 -2.46337e-05 4.32158e-06)
(-3.73466e-05 -2.30774e-05 4.2966e-06)
(-3.92246e-05 -2.45226e-05 5.98132e-06)
(-3.92089e-05 -2.4244e-05 4.31611e-06)
(-3.24137e-05 -1.99936e-05 4.21856e-06)
(-3.42759e-05 -2.14166e-05 5.8929e-06)
(-3.4256e-05 -2.11443e-05 4.25266e-06)
(-3.51286e-05 -2.14094e-05 2.521e-06)
(-3.67224e-05 -2.25991e-05 3.74435e-06)
(-3.48674e-05 -2.14398e-05 3.72143e-06)
(-3.48917e-05 -2.18027e-05 5.90686e-06)
(-3.67269e-05 -2.26895e-05 4.28902e-06)
(-3.48724e-05 -2.15295e-05 4.26267e-06)
(-3.73894e-05 -2.38308e-05 8.84297e-06)
(-3.92466e-05 -2.50027e-05 8.8822e-06)
(-4.17157e-05 -2.64679e-05 8.34394e-06)
(-3.98342e-05 -2.50179e-05 6.6819e-06)
(-3.98533e-05 -2.52933e-05 8.31836e-06)
(-3.7375e-05 -2.37309e-05 8.27104e-06)
(-3.92133e-05 -2.46273e-05 6.67344e-06)
(-3.9233e-05 -2.49022e-05 8.30803e-06)
(-4.73138e-05 -3.00977e-05 8.95947e-06)
(-4.91789e-05 -3.1278e-05 8.96412e-06)
(-5.16734e-05 -3.2768e-05 8.41472e-06)
(-4.97898e-05 -3.1297e-05 6.73769e-06)
(-4.97984e-05 -3.1575e-05 8.38695e-06)
(-4.73029e-05 -2.99957e-05 8.38164e-06)
(-4.91576e-05 -3.08969e-05 6.73751e-06)
(-4.91681e-05 -3.11758e-05 8.38586e-06)
(-4.23186e-05 -2.61953e-05 4.3389e-06)
(-4.41978e-05 -2.76512e-05 6.02536e-06)
(-4.4185e-05 -2.73686e-05 4.34768e-06)
(-4.50696e-05 -2.76322e-05 2.56739e-06)
(-4.66681e-05 -2.88412e-05 3.8013e-06)
(-4.48037e-05 -2.76671e-05 3.79705e-06)
(-4.48193e-05 -2.80428e-05 6.02848e-06)
(-4.6671e-05 -2.89341e-05 4.35486e-06)
(-4.48069e-05 -2.77598e-05 4.34991e-06)
(-4.66939e-05 -2.97057e-05 8.95745e-06)
(-4.48328e-05 -2.85295e-05 8.94844e-06)
(-4.23368e-05 -2.68598e-05 8.35079e-06)
(-4.41848e-05 -2.77572e-05 6.72211e-06)
(-4.42002e-05 -2.80357e-05 8.3669e-06)
(-4.66828e-05 -2.96038e-05 8.37968e-06)
(-4.48062e-05 -2.81489e-05 6.72553e-06)
(-4.48212e-05 -2.84278e-05 8.37094e-06)
(-5.16689e-05 -3.20934e-05 4.35217e-06)
(-4.98076e-05 -3.11932e-05 6.04124e-06)
(-4.97932e-05 -3.09061e-05 4.35948e-06)
(-4.88051e-05 -2.9986e-05 2.56999e-06)
(-4.72891e-05 -2.92327e-05 3.80226e-06)
(-4.91588e-05 -3.04132e-05 3.804e-06)
(-4.91739e-05 -3.0792e-05 6.0401e-06)
(-4.7292e-05 -2.93258e-05 4.35599e-06)
(-4.91616e-05 -3.05065e-05 4.35846e-06)
(-1.40014e-05 -9.18271e-06 7.90322e-06)
(-1.35138e-05 -8.86962e-06 7.79976e-06)
(-3.19514e-05 -2.05986e-05 9.94905e-06)
(-3.13448e-05 -2.02146e-05 9.91767e-06)
(-2.3083e-05 -1.49767e-05 9.27623e-06)
(-2.36552e-05 -1.53401e-05 9.3356e-06)
(-5.16203e-05 -3.30203e-05 1.01505e-05)
(-5.10936e-05 -3.26913e-05 1.01812e-05)
(-4.24217e-05 -2.72208e-05 1.02526e-05)
(-4.3042e-05 -2.7613e-05 1.02596e-05)
(-1.39615e-05 -9.19436e-06 8.02489e-06)
(-1.34739e-05 -8.88159e-06 7.92003e-06)
(-1.44951e-05 -9.49938e-06 8.00405e-06)
(-1.49946e-05 -9.81953e-06 8.10226e-06)
(-2.25144e-05 -1.46153e-05 9.21462e-06)
(-2.19492e-05 -1.42561e-05 9.15074e-06)
(-1.44551e-05 -9.51071e-06 8.12708e-06)
(-1.49545e-05 -9.83055e-06 8.22663e-06)
(-2.24734e-05 -1.46222e-05 9.35381e-06)
(-2.19083e-05 -1.42632e-05 9.2891e-06)
(-3.19103e-05 -2.06015e-05 1.00976e-05)
(-3.13038e-05 -2.02178e-05 1.00658e-05)
(-2.3042e-05 -1.49833e-05 9.41623e-06)
(-2.36141e-05 -1.53464e-05 9.47638e-06)
(-3.25594e-05 -2.09834e-05 9.97869e-06)
(-3.3169e-05 -2.13692e-05 1.00066e-05)
(-4.18015e-05 -2.68286e-05 1.02447e-05)
(-4.11814e-05 -2.64365e-05 1.02358e-05)
(-3.25185e-05 -2.09862e-05 1.01275e-05)
(-3.3128e-05 -2.13717e-05 1.01558e-05)
(-4.17608e-05 -2.68289e-05 1.03962e-05)
(-4.11407e-05 -2.64369e-05 1.03873e-05)
(-5.10999e-05 -3.12492e-05 1.4293e-06)
(-5.15779e-05 -3.16175e-05 1.82496e-06)
(-5.10041e-05 -3.12538e-05 1.82546e-06)
(-5.15624e-05 -3.30183e-05 1.03612e-05)
(-5.10528e-05 -3.26945e-05 1.03573e-05)
(-4.23811e-05 -2.72209e-05 1.04042e-05)
(-4.30014e-05 -2.76131e-05 1.04111e-05)
(-5.09707e-05 -3.14464e-05 3.11901e-06)
(-5.1672e-05 -3.18076e-05 2.61175e-06)
(-5.1099e-05 -3.13458e-05 2.01689e-06)
(-5.15769e-05 -3.17138e-05 2.41093e-06)
(-5.10917e-05 -3.14419e-05 2.62606e-06)
(-5.10042e-05 -3.13514e-05 2.41615e-06)
(-5.15504e-05 -3.18111e-05 3.1006e-06)
(-1.38937e-05 -8.71211e-06 5.17569e-06)
(-1.33794e-05 -8.33401e-06 4.68225e-06)
(-1.39227e-05 -8.61443e-06 4.40379e-06)
(-1.34295e-05 -8.30563e-06 4.34539e-06)
(-1.34019e-05 -8.40246e-06 5.10729e-06)
(-1.34034e-05 -8.17836e-06 3.49804e-06)
(-1.38271e-05 -8.49908e-06 3.84667e-06)
(-1.33493e-05 -8.26149e-06 4.23906e-06)
(-1.39056e-05 -8.55114e-06 3.9934e-06)
(-1.3412e-05 -8.24327e-06 3.94045e-06)
(-1.3334e-05 -8.19244e-06 3.79588e-06)
(-1.38974e-05 -8.48532e-06 3.54503e-06)
(-2.77448e-05 -1.79344e-05 9.69097e-06)
(-2.83395e-05 -1.83113e-05 9.73352e-06)
(-3.19545e-05 -2.00628e-05 6.53604e-06)
(-3.13359e-05 -1.9591e-05 5.97339e-06)
(-3.20171e-05 -1.99485e-05 5.56722e-06)
(-3.14071e-05 -1.95658e-05 5.54901e-06)
(-3.13453e-05 -1.96799e-05 6.51484e-06)
(-2.77851e-05 -1.72948e-05 5.41834e-06)
(-2.77281e-05 -1.74069e-05 6.36249e-06)
(-2.83148e-05 -1.76957e-05 5.85968e-06)
(-2.83837e-05 -1.767e-05 5.44277e-06)
(-2.83259e-05 -1.77825e-05 6.39099e-06)
(-2.36553e-05 -1.45588e-05 4.19818e-06)
(-2.29936e-05 -1.42075e-05 4.52264e-06)
(-2.3079e-05 -1.42772e-05 4.69855e-06)
(-2.35783e-05 -1.46507e-05 5.08378e-06)
(-2.36559e-05 -1.46377e-05 4.72921e-06)
(-2.3078e-05 -1.41989e-05 4.17096e-06)
(-2.35702e-05 -1.45671e-05 4.552e-06)
(-2.65872e-05 -1.63877e-05 4.3197e-06)
(-2.71802e-05 -1.6841e-05 4.89025e-06)
(-2.65055e-05 -1.64812e-05 5.23012e-06)
(-2.70931e-05 -1.67656e-05 4.70617e-06)
(-2.6586e-05 -1.64693e-05 4.86606e-06)
(-2.71817e-05 -1.67589e-05 4.34118e-06)
(-2.64991e-05 -1.63948e-05 4.68302e-06)
(-2.71524e-05 -1.75589e-05 9.64643e-06)
(-2.65625e-05 -1.71849e-05 9.59987e-06)
(-2.30404e-05 -1.44621e-05 6.08578e-06)
(-2.30898e-05 -1.43534e-05 5.18147e-06)
(-2.36018e-05 -1.4741e-05 5.61587e-06)
(-2.36664e-05 -1.47145e-05 5.21527e-06)
(-2.3616e-05 -1.48237e-05 6.12529e-06)
(-2.71888e-05 -1.69211e-05 5.39281e-06)
(-2.71327e-05 -1.70328e-05 6.33268e-06)
(-2.65275e-05 -1.65749e-05 5.77759e-06)
(-2.65949e-05 -1.65489e-05 5.36614e-06)
(-2.65397e-05 -1.66603e-05 6.30155e-06)
(-3.14043e-05 -1.93973e-05 4.46709e-06)
(-3.19223e-05 -1.97841e-05 4.85746e-06)
(-3.13162e-05 -1.94926e-05 5.40732e-06)
(-3.20107e-05 -1.98647e-05 5.04851e-06)
(-3.14006e-05 -1.94825e-05 5.03198e-06)
(-3.13122e-05 -1.94025e-05 4.84168e-06)
(-3.20148e-05 -1.97792e-05 4.48178e-06)
(-2.83779e-05 -1.75059e-05 4.38145e-06)
(-2.77768e-05 -1.72142e-05 4.91342e-06)
(-2.82937e-05 -1.76001e-05 5.30441e-06)
(-2.76895e-05 -1.71381e-05 4.72833e-06)
(-2.83757e-05 -1.75889e-05 4.93558e-06)
(-2.77787e-05 -1.71316e-05 4.36176e-06)
(-2.82883e-05 -1.75121e-05 4.74953e-06)
(-4.73822e-05 -3.03584e-05 1.02863e-05)
(-4.80016e-05 -3.07505e-05 1.02879e-05)
(-5.18099e-05 -3.25783e-05 6.74304e-06)
(-5.12199e-05 -3.21158e-05 6.20981e-06)
(-5.18677e-05 -3.24512e-05 5.75175e-06)
(-5.12813e-05 -3.20821e-05 5.76978e-06)
(-5.12121e-05 -3.22052e-05 6.78006e-06)
(-4.75031e-05 -2.96923e-05 5.77404e-06)
(-4.74289e-05 -2.98103e-05 6.77429e-06)
(-4.8046e-05 -3.01078e-05 6.2138e-06)
(-4.81238e-05 -3.00846e-05 5.77541e-06)
(-4.80494e-05 -3.02025e-05 6.77581e-06)
(-4.31586e-05 -2.67694e-05 4.63293e-06)
(-4.24385e-05 -2.63799e-05 5.01483e-06)
(-4.25285e-05 -2.6468e-05 5.21407e-06)
(-4.30607e-05 -2.68668e-05 5.60494e-06)
(-4.31507e-05 -2.68597e-05 5.21833e-06)
(-4.25362e-05 -2.63779e-05 4.62912e-06)
(-4.30607e-05 -2.67713e-05 5.01882e-06)
(-4.6268e-05 -2.8728e-05 4.64632e-06)
(-4.68804e-05 -2.92108e-05 5.23514e-06)
(-4.61687e-05 -2.88255e-05 5.6204e-06)
(-4.67905e-05 -2.91212e-05 5.0345e-06)
(-4.62594e-05 -2.88189e-05 5.23325e-06)
(-4.6889e-05 -2.91198e-05 4.64802e-06)
(-4.61694e-05 -2.87294e-05 5.03275e-06)
(-4.67627e-05 -2.99664e-05 1.02844e-05)
(-4.6143e-05 -2.95743e-05 1.0282e-05)
(-4.24595e-05 -2.66742e-05 6.74664e-06)
(-4.25314e-05 -2.65567e-05 5.74933e-06)
(-4.30764e-05 -2.6972e-05 6.19157e-06)
(-4.31534e-05 -2.69485e-05 5.754e-06)
(-4.30812e-05 -2.70661e-05 6.75192e-06)
(-4.68824e-05 -2.93003e-05 5.77234e-06)
(-4.68085e-05 -2.94183e-05 6.77242e-06)
(-4.61838e-05 -2.89315e-05 6.20855e-06)
(-4.62616e-05 -2.89084e-05 5.77029e-06)
(-4.61879e-05 -2.90263e-05 6.77016e-06)
(-5.12912e-05 -3.19042e-05 4.6561e-06)
(-5.17871e-05 -3.22845e-05 5.05347e-06)
(-5.12172e-05 -3.20175e-05 5.62575e-06)
(-5.18786e-05 -3.23741e-05 5.2436e-06)
(-5.12872e-05 -3.19982e-05 5.24007e-06)
(-5.12122e-05 -3.19177e-05 5.04123e-06)
(-5.18833e-05 -3.22817e-05 4.66634e-06)
(-4.8131e-05 -2.99039e-05 4.65066e-06)
(-4.75012e-05 -2.96027e-05 5.23672e-06)
(-4.80319e-05 -3.00018e-05 5.62525e-06)
(-4.74115e-05 -2.95131e-05 5.03596e-06)
(-4.81222e-05 -2.9995e-05 5.23803e-06)
(-4.75099e-05 -2.95116e-05 4.64945e-06)
(-4.80329e-05 -2.99056e-05 5.03719e-06)
(-1.3786e-05 -8.74162e-06 5.60901e-06)
(-1.32788e-05 -8.36132e-06 5.08944e-06)
(-1.37081e-05 -8.66931e-06 5.29137e-06)
(-1.32955e-05 -8.43273e-06 5.53535e-06)
(-1.32177e-05 -8.36191e-06 5.22209e-06)
(-1.318e-05 -8.22724e-06 4.41724e-06)
(-1.37456e-05 -8.51616e-06 4.17902e-06)
(-1.32703e-05 -8.28027e-06 4.56016e-06)
(-1.3693e-05 -8.60036e-06 4.87057e-06)
(-1.32536e-05 -8.20995e-06 4.12408e-06)
(-1.32021e-05 -8.29374e-06 4.80678e-06)
(-1.36712e-05 -8.53299e-06 4.47583e-06)
(-1.43916e-05 -9.02544e-06 5.24237e-06)
(-1.44219e-05 -8.92695e-06 4.46073e-06)
(-1.48741e-05 -9.27123e-06 4.86569e-06)
(-1.49269e-05 -9.24308e-06 4.51621e-06)
(-1.48952e-05 -9.34237e-06 5.30734e-06)
(-1.81057e-05 -1.18084e-05 8.63783e-06)
(-1.75744e-05 -1.14693e-05 8.55487e-06)
(-1.80694e-05 -1.12103e-05 4.81913e-06)
(-1.74761e-05 -1.09022e-05 5.14045e-06)
(-1.80301e-05 -1.13139e-05 5.66194e-06)
(-1.7533e-05 -1.08745e-05 4.77216e-06)
(-1.74949e-05 -1.09775e-05 5.60697e-06)
(-2.19337e-05 -1.34857e-05 4.11348e-06)
(-2.24204e-05 -1.38501e-05 4.49218e-06)
(-2.25054e-05 -1.39189e-05 4.66675e-06)
(-2.18597e-05 -1.35767e-05 4.9817e-06)
(-2.25041e-05 -1.38412e-05 4.14273e-06)
(-2.19354e-05 -1.35628e-05 4.63381e-06)
(-2.18506e-05 -1.34949e-05 4.46062e-06)
(-1.9139e-05 -1.17453e-05 3.95157e-06)
(-1.85968e-05 -1.14782e-05 4.41131e-06)
(-1.85141e-05 -1.14161e-05 4.2474e-06)
(-1.90707e-05 -1.18342e-05 4.78645e-06)
(-1.85927e-05 -1.14052e-05 3.91597e-06)
(-1.91428e-05 -1.1819e-05 4.45142e-06)
(-1.90597e-05 -1.17559e-05 4.28584e-06)
(-1.49033e-05 -9.11043e-06 3.63549e-06)
(-1.43261e-05 -8.80949e-06 3.89618e-06)
(-1.44052e-05 -8.86275e-06 4.04502e-06)
(-1.48451e-05 -9.19537e-06 4.40503e-06)
(-1.43975e-05 -8.79605e-06 3.59084e-06)
(-1.49106e-05 -9.178e-06 4.09532e-06)
(-1.4831e-05 -9.12355e-06 3.94443e-06)
(-1.75136e-05 -1.07337e-05 3.84146e-06)
(-1.80554e-05 -1.11403e-05 4.36997e-06)
(-1.74489e-05 -1.08213e-05 4.65362e-06)
(-1.79731e-05 -1.10792e-05 4.20777e-06)
(-1.75186e-05 -1.08053e-05 4.32738e-06)
(-1.80508e-05 -1.10679e-05 3.87927e-06)
(-1.74367e-05 -1.07452e-05 4.16694e-06)
(-1.86417e-05 -1.21503e-05 8.71833e-06)
(-1.91823e-05 -1.24949e-05 8.79638e-06)
(-2.24683e-05 -1.41027e-05 6.04479e-06)
(-2.25166e-05 -1.39945e-05 5.14641e-06)
(-2.18843e-05 -1.36646e-05 5.50306e-06)
(-2.19469e-05 -1.36378e-05 5.11009e-06)
(-2.18996e-05 -1.37455e-05 6.00232e-06)
(-1.86105e-05 -1.1549e-05 4.86472e-06)
(-1.857e-05 -1.16532e-05 5.7153e-06)
(-1.90969e-05 -1.19179e-05 5.28727e-06)
(-1.91561e-05 -1.18905e-05 4.90895e-06)
(-1.91144e-05 -1.19954e-05 5.76705e-06)
(-1.42826e-05 -9.0542e-06 5.6808e-06)
(-1.42046e-05 -8.98043e-06 5.3589e-06)
(-1.47699e-05 -9.2965e-06 5.28762e-06)
(-1.4785e-05 -9.37038e-06 5.75075e-06)
(-1.47069e-05 -9.29517e-06 5.42469e-06)
(-1.8065e-05 -1.18175e-05 8.76939e-06)
(-1.75338e-05 -1.14787e-05 8.68532e-06)
(-1.78346e-05 -1.12543e-05 5.78353e-06)
(-1.73664e-05 -1.09242e-05 5.58434e-06)
(-1.79132e-05 -1.13375e-05 6.13236e-06)
(-1.73791e-05 -1.10018e-05 6.07321e-06)
(-1.73005e-05 -1.09198e-05 5.72792e-06)
(-2.16707e-05 -1.35162e-05 5.18291e-06)
(-2.23254e-05 -1.38606e-05 4.87654e-06)
(-2.17674e-05 -1.35884e-05 5.35477e-06)
(-2.22564e-05 -1.39493e-05 5.67992e-06)
(-2.17563e-05 -1.35058e-05 4.84248e-06)
(-2.16882e-05 -1.35943e-05 5.64044e-06)
(-2.22392e-05 -1.38706e-05 5.21917e-06)
(-1.88868e-05 -1.17812e-05 4.98189e-06)
(-1.83619e-05 -1.15165e-05 5.37337e-06)
(-1.84244e-05 -1.14294e-05 4.61221e-06)
(-1.89819e-05 -1.1848e-05 5.146e-06)
(-1.89692e-05 -1.17688e-05 4.65374e-06)
(-1.83428e-05 -1.14422e-05 4.93764e-06)
(-1.89057e-05 -1.18562e-05 5.42155e-06)
(-1.46713e-05 -9.15568e-06 4.58856e-06)
(-1.42436e-05 -8.82613e-06 4.23256e-06)
(-1.41898e-05 -8.91072e-06 4.93274e-06)
(-1.47631e-05 -9.21275e-06 4.73785e-06)
(-1.41683e-05 -8.8425e-06 4.53293e-06)
(-1.47475e-05 -9.13976e-06 4.28473e-06)
(-1.46925e-05 -9.22472e-06 4.9933e-06)
(-1.72685e-05 -1.07731e-05 4.84499e-06)
(-1.78227e-05 -1.11797e-05 5.32369e-06)
(-1.73625e-05 -1.08364e-05 5.0039e-06)
(-1.78842e-05 -1.10929e-05 4.56939e-06)
(-1.73487e-05 -1.07594e-05 4.52526e-06)
(-1.72883e-05 -1.08459e-05 5.27249e-06)
(-1.78033e-05 -1.11062e-05 4.89201e-06)
(-1.8601e-05 -1.21591e-05 8.85096e-06)
(-1.91416e-05 -1.25035e-05 8.93005e-06)