/*--------------------------------*- C++ -*----------------------------------*\
| =========                 |                                                 |
| \\      /  F ield         | OpenFOAM: The Open Source CFD Toolbox           |
|  \\    /   O peration     | Version:  2012                                  |
|   \\  /    A nd           | Website:  www.openfoam.com                      |
|    \\/     M anipulation  |                                                 |
\*---------------------------------------------------------------------------*/
FoamFile
{
    version     2.0;
    format      ascii;
    class       volScalarField;
    location    "0.106/solid";
    object      epsilonEq;
}
// * * * * * * * * * * * * * * * * * * * * * * * * * * * * * * * * * * * * * //

dimensions      [0 0 0 0 0 0 0];


internalField   nonuniform List<scalar> 
3125
(
1.62279e-06
1.3343e-06
1.02172e-06
5.09165e-07
7.17979e-08
2.29974e-06
1.37208e-06
1.5951e-06
1.59257e-06
2.21651e-06
1.49953e-06
8.59827e-07
5.70343e-07
9.70122e-07
2.8423e-07
7.74646e-07
6.93271e-08
7.60852e-08
2.34784e-07
7.70739e-08
2.89223e-06
2.68597e-06
1.06191e-06
1.37879e-06
1.68778e-06
1.21091e-06
1.34713e-06
1.79795e-06
1.4278e-06
1.00795e-06
1.16612e-06
1.30188e-06
7.28126e-08
2.21713e-07
4.36809e-07
3.25649e-07
2.40473e-07
4.55161e-07
2.49995e-07
7.66538e-08
2.64895e-07
2.13378e-07
3.80035e-06
3.40043e-06
2.82072e-06
2.34392e-06
1.47552e-06
1.73986e-06
2.12829e-06
2.62103e-06
1.50718e-06
2.18712e-06
1.85472e-06
2.27943e-06
3.71225e-06
3.10269e-06
1.86749e-06
2.18408e-06
2.70401e-06
3.32194e-06
1.95698e-06
2.78008e-06
2.42943e-06
3.01692e-06
1.22532e-06
1.72161e-06
2.11196e-06
1.22011e-06
1.62653e-06
2.34775e-06
1.79683e-06
1.12483e-06
1.12794e-06
1.56039e-06
1.02024e-06
7.51334e-07
7.49094e-07
4.66072e-07
6.84089e-07
9.69134e-07
8.06538e-07
7.17374e-07
4.85879e-07
7.16007e-07
1.15936e-06
7.38785e-07
4.66911e-07
3.68865e-07
6.51988e-07
1.06704e-06
5.37955e-07
6.98899e-07
3.63097e-07
6.85169e-07
4.72567e-08
1.03799e-07
3.35233e-07
1.22075e-07
1.47171e-07
3.25308e-07
1.23623e-07
5.60881e-08
9.46548e-08
1.2644e-07
4.37317e-06
1.75389e-06
1.38455e-06
1.60743e-06
1.25591e-06
1.29498e-06
1.17919e-06
2.63234e-06
2.35767e-06
8.82353e-07
1.07149e-06
9.55303e-07
3.63356e-08
6.86709e-08
4.51561e-07
4.4792e-07
3.71514e-07
4.22301e-07
3.09895e-07
7.60595e-08
1.36698e-07
1.27372e-07
4.45033e-06
2.41096e-06
4.26358e-06
3.93947e-06
1.40805e-06
1.28298e-06
1.36293e-06
1.72022e-06
1.56683e-06
1.62602e-06
2.72636e-06
3.01551e-06
4.33875e-06
4.00806e-06
1.6851e-06
1.60979e-06
1.75806e-06
2.36104e-06
2.1316e-06
2.20892e-06
2.76143e-06
3.06009e-06
1.36227e-06
1.59613e-06
1.56146e-06
1.40624e-06
1.41656e-06
2.66409e-06
2.37913e-06
8.79619e-07
9.47398e-07
1.0064e-06
1.3135e-06
1.11059e-06
6.30765e-07
4.77989e-07
5.56483e-07
8.57519e-07
9.17135e-07
7.84022e-07
4.63682e-07
5.99705e-07
1.28765e-06
1.07429e-06
3.39619e-07
3.36124e-07
4.18844e-07
8.39174e-07
6.92313e-07
7.21511e-07
3.9512e-07
5.36731e-07
1.19687e-07
6.10482e-08
2.88158e-08
3.45134e-08
3.10813e-07
1.91414e-07
2.40331e-07
3.52402e-07
2.38207e-07
6.98832e-08
5.84211e-08
6.83355e-08
3.93741e-06
1.9616e-06
1.92639e-06
1.68486e-06
1.27937e-06
1.1923e-06
1.47394e-06
1.7532e-06
1.23751e-06
1.54167e-06
1.34458e-06
1.53663e-06
1.25097e-06
1.25369e-06
1.07871e-06
1.15318e-06
1.48801e-06
1.1313e-06
1.22029e-06
2.00984e-06
2.26868e-06
2.37577e-06
1.63345e-06
2.13278e-06
1.82647e-06
1.58059e-06
2.05427e-06
9.05856e-07
1.12915e-06
9.88565e-07
1.11979e-06
1.05341e-06
9.80192e-07
1.17108e-06
1.10205e-06
1.01669e-06
1.59546e-07
8.86273e-08
5.02251e-08
1.14261e-07
8.43744e-08
1.82715e-07
1.3955e-07
1.06553e-07
4.49418e-07
3.51062e-07
3.68355e-07
3.86481e-07
2.63498e-07
3.44723e-07
3.23165e-07
2.59723e-07
3.41286e-07
1.8624e-07
2.76296e-07
4.34715e-07
3.65426e-07
3.30935e-07
2.10255e-07
3.36231e-07
2.99031e-07
7.6653e-08
1.09892e-07
1.24603e-07
2.04329e-07
2.36414e-07
1.54537e-07
1.34364e-07
2.3255e-07
1.513e-07
4.32169e-06
2.65455e-06
3.83811e-06
2.61113e-06
3.54515e-06
3.51916e-06
3.83308e-06
2.54302e-06
3.16687e-06
3.44923e-06
1.44259e-06
1.47536e-06
1.39131e-06
1.37696e-06
1.90126e-06
1.47597e-06
1.6154e-06
1.95674e-06
1.51031e-06
1.92058e-06
2.43047e-06
1.80227e-06
1.53749e-06
1.50536e-06
1.59424e-06
2.36849e-06
1.65189e-06
1.7635e-06
3.41638e-06
3.11411e-06
2.45918e-06
2.03092e-06
2.71636e-06
3.0747e-06
2.09159e-06
2.80433e-06
4.21554e-06
3.44926e-06
3.90033e-06
3.5779e-06
3.89931e-06
3.36215e-06
3.48881e-06
3.79645e-06
1.77683e-06
1.95766e-06
1.80724e-06
1.75006e-06
2.40394e-06
1.91598e-06
2.14055e-06
2.47825e-06
1.97153e-06
2.59735e-06
3.08793e-06
2.42497e-06
2.04505e-06
2.00735e-06
2.15902e-06
3.0105e-06
2.19694e-06
2.36806e-06
3.47248e-06
3.16172e-06
2.7026e-06
2.67815e-06
2.99102e-06
3.38769e-06
2.76213e-06
3.08896e-06
1.92993e-06
1.6773e-06
1.33834e-06
1.43102e-06
1.56786e-06
1.89445e-06
1.502e-06
1.6474e-06
1.69573e-06
1.89946e-06
1.53418e-06
1.31299e-06
1.22919e-06
1.36951e-06
1.83007e-06
1.32564e-06
1.48149e-06
2.01704e-06
2.28663e-06
2.60838e-06
2.10685e-06
2.33199e-06
1.97949e-06
2.02807e-06
2.24208e-06
9.38607e-07
1.30521e-06
1.07848e-06
1.03693e-06
1.18384e-06
1.04956e-06
1.3675e-06
1.27508e-06
1.12642e-06
1.21744e-06
9.00152e-07
1.04062e-06
8.64875e-07
1.04644e-06
8.6185e-07
8.26353e-07
9.84741e-07
6.9055e-07
6.58936e-07
5.82367e-07
4.76318e-07
5.56558e-07
5.56886e-07
6.63773e-07
5.87581e-07
5.83638e-07
8.78468e-07
8.57004e-07
7.97488e-07
8.62475e-07
6.84314e-07
7.59071e-07
8.21149e-07
6.90472e-07
7.70596e-07
8.08041e-07
6.48895e-07
4.72172e-07
5.81072e-07
5.93529e-07
7.76693e-07
6.13868e-07
6.37025e-07
1.26499e-06
9.6992e-07
1.055e-06
8.15562e-07
1.00678e-06
9.09748e-07
7.99802e-07
9.88461e-07
4.0064e-07
5.43621e-07
4.48317e-07
3.43993e-07
4.80178e-07
4.33313e-07
5.69282e-07
5.20658e-07
4.65426e-07
8.9385e-07
9.01144e-07
7.64461e-07
6.13253e-07
5.77158e-07
6.84294e-07
8.48493e-07
6.06073e-07
7.23427e-07
7.55695e-07
5.88323e-07
3.85004e-07
4.89172e-07
5.24554e-07
7.40704e-07
5.35274e-07
5.75481e-07
9.74961e-08
4.57094e-08
3.44608e-08
4.3747e-08
3.54833e-08
9.51966e-08
5.58325e-08
4.62891e-08
3.16742e-07
2.44709e-07
2.41813e-07
1.53971e-07
1.58107e-07
2.18759e-07
2.17961e-07
1.56304e-07
2.19062e-07
1.20392e-07
2.04923e-07
3.42993e-07
2.25206e-07
2.31104e-07
1.17029e-07
1.96357e-07
1.98666e-07
6.695e-08
5.60857e-08
6.60596e-08
7.28963e-08
1.39096e-07
8.47354e-08
7.14644e-08
1.3689e-07
8.22753e-08
5.20834e-06
5.3398e-06
1.58244e-06
1.67215e-06
3.11243e-06
2.99944e-06
7.2621e-09
1.10145e-08
3.92842e-07
3.45244e-07
4.98976e-06
5.11855e-06
5.07748e-06
4.94743e-06
3.22671e-06
3.34232e-06
4.86183e-06
4.73476e-06
3.06719e-06
3.1784e-06
1.50056e-06
1.58537e-06
2.95744e-06
2.84902e-06
1.4946e-06
1.40884e-06
4.43181e-07
4.9622e-07
1.41767e-06
1.33673e-06
4.2863e-07
4.78621e-07
6.3942e-08
8.26304e-08
7.18384e-08
8.32802e-09
1.02715e-08
3.81143e-07
3.36124e-07
7.63457e-08
7.59229e-08
6.27199e-08
8.25822e-08
6.47652e-08
7.07927e-08
8.12311e-08
3.23565e-06
2.96458e-06
2.63296e-06
2.69694e-06
3.31681e-06
2.21857e-06
2.4462e-06
2.75167e-06
2.37885e-06
2.43401e-06
2.50414e-06
2.17259e-06
2.24989e-06
2.14914e-06
1.14875e-06
1.10444e-06
1.08874e-06
1.12486e-06
1.19757e-06
1.35368e-06
1.51318e-06
1.33078e-06
1.314e-06
1.45788e-06
1.48512e-06
1.5695e-06
1.58635e-06
1.63658e-06
1.54755e-06
1.51752e-06
1.52462e-06
1.32893e-06
1.32808e-06
1.39322e-06
1.27024e-06
1.36319e-06
1.29866e-06
1.31083e-06
2.35225e-06
2.4563e-06
1.99473e-06
1.69907e-06
1.74216e-06
1.65295e-06
1.93077e-06
1.39409e-06
1.56955e-06
1.47775e-06
1.43523e-06
1.62704e-06
1.09196e-06
9.69214e-07
1.04755e-06
1.06265e-06
1.09468e-06
1.00466e-06
1.06271e-06
1.23891e-06
1.29347e-06
1.25748e-06
1.23035e-06
1.25941e-06
1.26862e-06
1.19114e-06
9.65123e-08
7.41694e-08
7.16248e-08
7.60352e-08
9.09078e-08
1.00423e-07
7.72305e-08
2.72379e-07
2.22676e-07
1.93806e-07
2.40894e-07
1.94044e-07
5.18624e-07
4.39354e-07
5.34226e-07
4.07973e-07
5.03052e-07
5.5016e-07
4.11304e-07
3.5847e-07
3.13638e-07
2.67804e-07
2.46e-07
3.45424e-07
3.2616e-07
2.73213e-07
1.22352e-07
1.51586e-07
4.68125e-07
5.25269e-07
4.24899e-07
4.9366e-07
4.35601e-07
3.04009e-07
2.51794e-07
2.78538e-07
3.35717e-07
2.8136e-07
1.12048e-07
7.69725e-08
7.43638e-08
9.42445e-08
1.06438e-07
7.5301e-08
9.63717e-08
2.61762e-07
2.81849e-07
1.86554e-07
2.18957e-07
2.50258e-07
2.93817e-07
1.92073e-07
3.97523e-06
3.88868e-06
4.13062e-06
4.06974e-06
4.2229e-06
3.84182e-06
3.12824e-06
3.47915e-06
3.96293e-06
3.19956e-06
4.04969e-06
3.76122e-06
3.15532e-06
2.56999e-06
2.75002e-06
2.50797e-06
3.07578e-06
4.18514e-06
4.30981e-06
2.15702e-06
2.40937e-06
2.61714e-06
2.21296e-06
2.6913e-06
1.58413e-06
1.61517e-06
1.62596e-06
1.79281e-06
1.55058e-06
1.66633e-06
1.6616e-06
1.76098e-06
1.9261e-06
1.95575e-06
2.07029e-06
1.79841e-06
1.88059e-06
1.90489e-06
2.08352e-06
2.38896e-06
2.32472e-06
2.55679e-06
2.12762e-06
2.27156e-06
2.3324e-06
1.87582e-06
1.97258e-06
2.2468e-06
2.00741e-06
2.02004e-06
1.83674e-06
2.0598e-06
4.06137e-06
3.93873e-06
2.05974e-06
1.74607e-06
1.91246e-06
1.79397e-06
2.1258e-06
2.10213e-06
2.54392e-06
2.21584e-06
2.04821e-06
2.47168e-06
3.88101e-06
4.03834e-06
3.62435e-06
3.78709e-06
3.94602e-06
3.9928e-06
4.11386e-06
3.39282e-06
3.18882e-06
3.23143e-06
3.32297e-06
3.4848e-06
2.53878e-06
2.02333e-06
2.25679e-06
2.57324e-06
2.08957e-06
2.65902e-06
2.4577e-06
2.94675e-06
3.17892e-06
2.49636e-06
2.62834e-06
2.42758e-06
3.02853e-06
3.09187e-06
3.59935e-06
3.05713e-06
3.87606e-06
3.24369e-06
3.68037e-06
2.98619e-06
3.78906e-06
3.19207e-06
3.26606e-06
2.85655e-06
2.56547e-06
2.63494e-06
3.35324e-06
3.11035e-06
3.87283e-06
3.754e-06
2.51874e-06
2.51173e-06
2.66499e-06
2.60561e-06
2.75484e-06
3.30098e-06
3.14036e-06
2.93154e-06
3.04977e-06
3.20932e-06
2.13316e-06
2.03742e-06
1.25611e-06
1.2926e-06
1.32404e-06
1.32628e-06
1.40026e-06
1.88274e-06
1.77476e-06
1.64736e-06
1.697e-06
1.79968e-06
2.29629e-06
1.95764e-06
2.04046e-06
2.48781e-06
1.89248e-06
2.37681e-06
2.40277e-06
1.90004e-06
1.90396e-06
1.69354e-06
1.51491e-06
1.57609e-06
1.98547e-06
1.82245e-06
2.23061e-06
2.32972e-06
2.43261e-06
2.26672e-06
2.57561e-06
2.34723e-06
2.48672e-06
1.96669e-06
1.85358e-06
1.87302e-06
1.93347e-06
2.05154e-06
1.30144e-06
1.05638e-06
1.18382e-06
1.2846e-06
1.11036e-06
1.3582e-06
1.23102e-06
1.66927e-06
1.82321e-06
1.49514e-06
1.45452e-06
1.39492e-06
1.74327e-06
1.74548e-06
1.10094e-06
1.0531e-06
9.79368e-07
1.01785e-06
1.05414e-06
9.38807e-07
1.01158e-06
8.14581e-07
7.87393e-07
7.95123e-07
8.47618e-07
8.35797e-07
6.13049e-07
4.67669e-07
5.65427e-07
4.9577e-07
5.8174e-07
5.96555e-07
4.96274e-07
7.66816e-07
7.82032e-07
6.74152e-07
6.51402e-07
7.96935e-07
7.5123e-07
6.43686e-07
1.00424e-06
9.34366e-07
1.03087e-06
9.31055e-07
1.03343e-06
9.99343e-07
9.00085e-07
8.56893e-07
8.12867e-07
7.51321e-07
7.05046e-07
8.43747e-07
8.27044e-07
7.36396e-07
8.68258e-07
8.00131e-07
5.01319e-07
5.56918e-07
5.17075e-07
5.88673e-07
5.35222e-07
7.81809e-07
7.55358e-07
6.8128e-07
7.4916e-07
7.16478e-07
1.18732e-06
1.2492e-06
1.09477e-06
1.12e-06
1.17578e-06
8.94415e-07
9.62832e-07
7.68825e-07
7.94121e-07
7.49532e-07
8.07074e-07
8.32332e-07
3.58395e-07
3.62371e-07
4.04235e-07
3.30636e-07
3.95127e-07
3.74618e-07
3.1632e-07
6.03642e-07
6.88017e-07
6.23158e-07
6.06615e-07
5.8149e-07
6.58985e-07
6.30354e-07
1.09379e-06
1.0035e-06
1.21228e-06
1.01048e-06
1.16175e-06
9.51716e-07
1.14133e-06
7.75175e-07
7.47633e-07
7.4733e-07
6.66211e-07
7.10644e-07
8.09097e-07
7.16209e-07
8.28189e-07
7.64188e-07
3.58871e-07
4.03008e-07
3.37315e-07
4.00374e-07
3.82956e-07
7.07228e-07
6.93764e-07
6.33319e-07
6.39841e-07
6.47623e-07
9.66897e-08
7.41548e-08
4.13943e-08
3.56635e-08
4.77046e-08
3.34643e-08
4.92216e-08
6.92396e-08
9.25639e-08
8.59779e-08
7.56301e-08
5.99943e-08
2.39963e-07
3.3116e-07
3.03347e-07
2.89272e-07
3.01468e-07
2.7678e-07
2.50679e-07
1.03285e-07
8.84965e-08
1.69252e-07
1.53081e-07
1.74581e-07
1.0593e-07
8.72555e-08
1.22357e-07
1.50946e-07
3.19582e-07
2.89702e-07
2.94316e-07
2.82561e-07
2.5408e-07
8.30459e-08
1.11994e-07
1.45598e-07
1.34017e-07
1.01609e-07
6.12341e-08
5.9497e-08
4.40295e-08
5.5786e-08
4.68679e-08
5.57166e-08
6.20261e-08
6.72198e-08
7.53732e-08
1.06928e-07
1.32649e-07
1.1311e-07
6.62812e-08
7.53431e-08
4.8682e-06
4.48349e-06
4.98965e-06
2.29729e-06
2.37747e-06
2.3549e-06
2.30126e-06
1.85751e-06
1.76384e-06
1.51034e-06
1.45719e-06
1.59376e-06
1.76601e-06
1.53152e-06
1.67901e-06
1.85349e-06
1.89047e-06
1.87045e-06
1.88506e-06
1.80904e-06
1.81486e-06
1.82334e-06
1.78975e-06
2.77777e-06
2.88781e-06
2.93028e-06
2.53952e-06
2.82561e-06
2.62015e-06
2.44794e-06
2.7222e-06
1.38834e-06
1.34754e-06
1.37179e-06
1.35735e-06
1.43409e-06
1.45144e-06
1.42948e-06
1.46356e-06
2.7243e-08
1.83983e-08
1.50317e-08
4.10393e-08
1.9741e-08
4.32278e-08
5.22001e-08
2.97571e-08
6.28621e-07
6.38556e-07
6.67955e-07
6.01266e-07
5.88637e-07
5.23496e-07
5.60926e-07
5.4948e-07
2.58697e-07
3.00453e-07
4.03986e-07
3.82884e-07
3.59702e-07
2.78966e-07
3.45375e-07
3.17992e-07
1.23076e-07
7.72939e-08
1.15336e-07
8.49966e-08
1.74218e-07
2.04594e-07
1.63398e-07
2.17583e-07
2.50665e-06
2.66018e-06
2.7286e-06
2.02577e-06
2.07339e-06
2.14388e-06
2.09742e-06
2.49549e-06
2.45843e-06
2.40678e-06
2.44568e-06
1.88574e-06
1.95979e-06
2.06693e-06
1.99319e-06
2.64484e-06
2.57535e-06
2.48684e-06
2.5572e-06
4.66376e-06
4.56255e-06
4.78281e-06
3.1665e-06
2.89721e-06
2.92664e-06
3.11448e-06
4.74739e-06
4.15474e-06
4.62729e-06
4.68978e-06
4.81812e-06
4.04669e-06
4.3893e-06
4.5079e-06
1.92941e-06
1.95257e-06
1.91484e-06
1.95492e-06
1.97293e-06
2.0162e-06
2.017e-06
1.98525e-06
2.26243e-06
2.31595e-06
2.26044e-06
2.3358e-06
2.22158e-06
2.29092e-06
2.27426e-06
2.22122e-06
3.5774e-06
3.4592e-06
3.03614e-06
2.82157e-06
3.1432e-06
3.36078e-06
2.91797e-06
3.25143e-06
4.54543e-06
4.22781e-06
4.42786e-06
4.48347e-06
4.60862e-06
4.11757e-06
4.19524e-06
4.31111e-06
2.21487e-06
2.03192e-06
2.07587e-06
2.15246e-06
2.28124e-06
2.19241e-06
2.14993e-06
2.34275e-06
3.00433e-06
2.83186e-06
2.80035e-06
3.05788e-06
2.9461e-06
2.69994e-06
2.73349e-06
2.89098e-06
3.40485e-06
3.29094e-06
2.88087e-06
2.85988e-06
2.9843e-06
3.19485e-06
2.95946e-06
3.08896e-06
2e-06
1.95118e-06
1.87394e-06
1.92379e-06
1.37004e-06
1.42218e-06
1.50958e-06
1.4573e-06
1.85049e-06
1.77628e-06
1.66506e-06
1.73925e-06
9.90596e-07
1.059e-06
1.17111e-06
1.10101e-06
6.78016e-07
7.24373e-07
8.08726e-07
7.60992e-07
1.33414e-06
1.28221e-06
1.19409e-06
1.24579e-06
2.52419e-07
2.94965e-07
3.70417e-07
3.23343e-07
9.48971e-07
8.82552e-07
7.77486e-07
8.41606e-07
1.76072e-06
1.67209e-06
1.41717e-06
1.43856e-06
1.49668e-06
1.66105e-06
1.51653e-06
1.57795e-06
2.02221e-06
1.95729e-06
2.08522e-06
1.91218e-06
1.95449e-06
1.79094e-06
1.83713e-06
1.89093e-06
2.63672e-06
2.74209e-06
2.77867e-06
2.56788e-06
2.67767e-06
2.47981e-06
2.47288e-06
2.57803e-06
1.17119e-06
1.06256e-06
1.10952e-06
1.1104e-06
1.23664e-06
1.22866e-06
1.18117e-06
1.29862e-06
1.42867e-06
1.24414e-06
1.3489e-06
1.24352e-06
1.32507e-06
1.17648e-06
1.1951e-06
1.271e-06
7.48762e-07
6.81309e-07
7.09588e-07
7.18061e-07
7.90956e-07
7.98725e-07
7.62706e-07
8.29937e-07
1.27877e-06
1.29094e-06
1.31129e-06
1.26452e-06
1.23336e-06
1.18097e-06
1.20948e-06
1.19928e-06
6.10246e-07
5.51901e-07
4.50786e-07
5.07048e-07
5.00099e-07
6.06079e-07
5.52398e-07
5.51867e-07
1.33937e-06
1.21474e-06
1.26338e-06
1.18096e-06
1.25781e-06
1.14362e-06
1.11714e-06
1.18929e-06
3.11324e-07
2.7253e-07
3.02067e-07
2.73403e-07
3.53574e-07
3.81462e-07
3.48386e-07
3.95798e-07
9.87221e-07
9.92699e-07
9.46696e-07
1.0464e-06
9.25167e-07
8.34155e-07
8.7896e-07
8.67797e-07
5.85838e-07
5.31037e-07
4.0998e-07
4.40085e-07
4.56882e-07
5.57633e-07
4.87303e-07
5.06084e-07
6.42039e-07
5.96965e-07
5.1852e-07
5.6204e-07
7.16588e-08
1.12963e-07
2.03882e-07
1.61645e-07
2.27824e-07
1.9026e-07
1.38085e-07
1.70082e-07
9.34453e-08
9.0008e-08
7.58944e-08
8.38547e-08
2.56712e-08
1.66965e-08
1.5815e-08
2.56929e-08
1.42991e-08
2.55799e-08
2.74393e-08
1.63669e-08
2.03306e-07
2.31496e-07
2.3625e-07
2.06088e-07
1.71998e-07
1.50332e-07
1.70966e-07
1.44887e-07
2.53932e-07
2.93692e-07
3.65374e-07
3.11948e-07
3.23063e-07
2.4588e-07
2.73876e-07
2.83218e-07
7.79003e-08
7.27505e-08
5.53815e-08
7.8197e-08
5.88285e-08
8.22237e-08
7.44067e-08
9.15132e-08
9.20393e-08
8.91176e-08
9.08596e-08
9.11637e-08
7.58695e-08
8.46663e-08
8.56033e-08
3.59381e-06
4.03751e-06
3.68487e-06
1.95291e-06
2.05013e-06
2.13043e-06
1.84438e-06
2.0369e-06
1.85466e-06
1.76386e-06
1.94497e-06
1.20903e-06
1.34278e-06
1.26532e-06
1.14798e-06
1.19886e-06
1.29852e-06
1.16166e-06
1.24752e-06
1.40768e-06
1.38177e-06
1.32292e-06
1.62984e-06
1.68131e-06
1.56592e-06
1.28369e-06
1.23659e-06
1.35055e-06
1.27499e-06
1.40364e-06
1.61082e-06
1.44191e-06
1.50328e-06
1.45309e-06
1.58615e-06
1.47185e-06
1.43689e-06
1.42142e-06
1.50934e-06
1.48037e-06
1.67787e-06
1.66682e-06
1.65433e-06
1.68101e-06
1.72304e-06
1.75333e-06
1.7446e-06
1.74193e-06
1.35943e-06
1.44018e-06
1.43504e-06
1.39419e-06
1.39027e-06
1.3988e-06
1.3522e-06
2.66906e-06
2.56188e-06
2.22545e-06
2.09473e-06
2.32199e-06
2.51936e-06
2.181e-06
2.41995e-06
2.18494e-06
2.29357e-06
2.11143e-06
1.68729e-06
1.56338e-06
1.80604e-06
1.60768e-06
1.86784e-06
2.21256e-06
1.96787e-06
2.03907e-06
1.695e-06
1.90111e-06
1.7614e-06
1.52865e-06
1.51986e-06
1.74527e-06
1.4771e-06
1.68558e-06
1.97704e-06
1.89784e-06
1.82901e-06
1.1212e-06
1.08803e-06
1.15957e-06
1.07739e-06
1.12704e-06
1.15048e-06
1.04078e-06
1.5828e-06
1.60628e-06
1.60843e-06
1.58934e-06
1.53722e-06
1.51029e-06
1.50962e-06
1.52987e-06
1.20934e-06
1.2139e-06
1.19244e-06
1.11464e-06
1.22578e-06
1.17982e-06
1.15257e-06
3.98037e-08
5.52922e-08
1.23276e-07
1.34339e-07
9.97978e-08
5.98554e-08
1.10638e-07
7.86827e-08
6.1563e-08
5.4275e-08
6.47387e-08
9.15858e-08
1.49632e-07
1.14061e-07
1.22248e-07
9.18905e-08
6.59223e-08
9.72123e-08
7.70616e-08
2.00813e-07
1.5618e-07
1.73198e-07
1.6633e-07
1.79043e-07
1.39178e-07
2.09715e-07
1.66092e-07
1.30733e-07
1.20898e-07
1.46478e-07
4.86836e-07
3.79296e-07
4.40218e-07
3.55569e-07
4.54856e-07
4.71629e-07
3.833e-07
4.34906e-07
3.75909e-07
3.97283e-07
4.12395e-07
4.719e-07
4.85276e-07
5.10536e-07
4.48065e-07
3.90689e-07
2.9537e-07
4.08742e-07
3.28073e-07
4.22861e-07
3.77099e-07
3.00616e-07
2.19831e-07
1.84103e-07
1.49195e-07
2.1456e-07
1.77694e-07
2.42523e-07
2.4449e-07
2.08752e-07
4.48022e-07
3.98752e-07
4.1403e-07
3.94927e-07
4.30506e-07
3.72404e-07
4.62e-07
4.03684e-07
3.64151e-07
3.49055e-07
3.81053e-07
2.29086e-07
2.38829e-07
2.58035e-07
3.0722e-07
3.98948e-07
3.41566e-07
3.67301e-07
3.11207e-07
2.68349e-07
3.17887e-07
2.87575e-07
1.38241e-07
8.8225e-08
1.58049e-07
1.14171e-07
1.30053e-07
1.67703e-07
9.12123e-08
3.2443e-07
3.4222e-07
3.61399e-07
3.06156e-07
2.90417e-07
2.38428e-07
2.53692e-07
2.74466e-07
2.29985e-07
1.60177e-07
1.87975e-07
1.39382e-07
2.18942e-07
1.98488e-07
1.65515e-07
2.27488e-06
2.23132e-06
2.16589e-06
2.21108e-06
2.29328e-06
2.33536e-06
2.3923e-06
2.35182e-06
2.27278e-06
2.20014e-06
2.09801e-06
2.17137e-06
2.29909e-06
2.37106e-06
2.46592e-06
2.39478e-06
4.12954e-06
4.42836e-06
4.22992e-06
3.50356e-06
3.73963e-06
3.41412e-06
2.68014e-06
2.38692e-06
2.91934e-06
2.44693e-06
2.99712e-06
3.64197e-06
3.23778e-06
3.32552e-06
4.5622e-06
4.43551e-06
3.92295e-06
3.62287e-06
4.03822e-06
4.27145e-06
3.72752e-06
4.15441e-06
2.47575e-06
2.32796e-06
2.84242e-06
2.26996e-06
2.76638e-06
2.89571e-06
3.26006e-06
2.97985e-06
3.1509e-06
3.3542e-06
3.06491e-06
2.08084e-06
2.12926e-06
2.13645e-06
2.08824e-06
2.03835e-06
2.07836e-06
2.0285e-06
2.07445e-06
1.61816e-06
1.84663e-06
1.74943e-06
1.75666e-06
1.65285e-06
1.70746e-06
1.70879e-06
1.72428e-06
2.0131e-06
1.79224e-06
1.80531e-06
1.68819e-06
1.83598e-06
1.85473e-06
2.04026e-06
2.49326e-06
2.16799e-06
2.22123e-06
2.21929e-06
1.99782e-06
2.27645e-06
2.13556e-06
2.19131e-06
2.18098e-06
2.13058e-06
2.17717e-06
2.22921e-06
2.17983e-06
2.24278e-06
1.91564e-06
2.30726e-06
2.11773e-06
2.16671e-06
2.06841e-06
1.95632e-06
2.11292e-06
3.69667e-06
3.81712e-06
3.80853e-06
3.31458e-06
3.69508e-06
3.47117e-06
3.21383e-06
3.58263e-06
2.25958e-06
2.54378e-06
2.33535e-06
1.97121e-06
1.89273e-06
2.26108e-06
1.84285e-06
2.19292e-06
2.62951e-06
2.49017e-06
2.41222e-06
2.81258e-06
2.98354e-06
2.73043e-06
2.15323e-06
1.94355e-06
2.33027e-06
1.99536e-06
2.40047e-06
2.89343e-06
2.56921e-06
2.64931e-06
4.02957e-06
4.10991e-06
3.93001e-06
3.53666e-06
3.60028e-06
3.76135e-06
3.6935e-06
3.85367e-06
4.00482e-06
3.73235e-06
3.83094e-06
4.35926e-06
4.23598e-06
3.74062e-06
3.68419e-06
3.85284e-06
4.08018e-06
3.79133e-06
3.966e-06
3.27532e-06
3.50743e-06
3.6691e-06
3.41497e-06
3.5769e-06
3.34335e-06
3.59066e-06
3.43973e-06
3.63424e-06
3.69322e-06
3.53669e-06
2.53288e-06
2.41795e-06
2.37875e-06
2.59214e-06
2.4687e-06
2.26561e-06
2.4082e-06
2.3066e-06
2.62012e-06
2.33012e-06
2.2235e-06
2.83155e-06
2.15631e-06
2.70163e-06
2.74518e-06
2.86497e-06
2.55307e-06
2.2911e-06
2.91814e-06
2.35916e-06
2.78326e-06
3.00493e-06
3.51817e-06
3.16567e-06
2.84494e-06
3.61484e-06
2.91546e-06
3.70198e-06
3.43684e-06
2.7131e-06
2.48899e-06
2.52644e-06
2.65511e-06
2.77451e-06
2.63162e-06
2.83106e-06
2.59615e-06
3.27375e-06
2.93336e-06
2.77469e-06
3.52766e-06
2.70467e-06
3.44044e-06
3.35534e-06
3.51999e-06
3.63636e-06
3.62935e-06
3.36795e-06
3.51909e-06
3.30182e-06
3.26437e-06
3.40989e-06
2.59692e-06
2.79779e-06
2.68753e-06
2.59467e-06
2.78144e-06
2.93573e-06
2.69319e-06
2.84513e-06
2.89396e-06
2.87125e-06
2.77899e-06
3.24758e-06
3.28731e-06
3.15244e-06
2.8466e-06
2.87032e-06
3.02666e-06
2.95976e-06
3.11788e-06
3.18774e-06
2.96428e-06
3.05801e-06
1.7126e-06
1.76383e-06
1.84497e-06
1.79432e-06
1.68064e-06
1.62887e-06
1.54367e-06
1.59586e-06
1.43945e-06
1.51277e-06
1.62653e-06
1.55268e-06
1.39861e-06
1.32605e-06
1.21299e-06
1.28453e-06
9.81308e-07
9.3169e-07
8.45602e-07
8.94458e-07
1.01862e-06
1.0691e-06
1.15735e-06
1.10619e-06
5.42611e-07
4.87593e-07
4.01997e-07
4.53261e-07
5.79244e-07
6.37655e-07
7.37583e-07
6.76175e-07
1.85117e-06
1.94336e-06
2.00964e-06
1.84424e-06
1.92006e-06
1.74575e-06
1.76e-06
1.83204e-06
1.29118e-06
1.41328e-06
1.36324e-06
1.36121e-06
1.47079e-06
1.55658e-06
1.39786e-06
1.47782e-06
1.48982e-06
1.51176e-06
1.43678e-06
1.82504e-06
1.81073e-06
1.74477e-06
1.57413e-06
1.54498e-06
1.63651e-06
1.62038e-06
1.71756e-06
1.72837e-06
1.58813e-06
1.66579e-06
2.21613e-06
1.9696e-06
1.76394e-06
2.23414e-06
1.82791e-06
2.13638e-06
2.3182e-06
1.69091e-06
1.54611e-06
1.59365e-06
1.62714e-06
1.75906e-06
1.71572e-06
1.82279e-06
1.6688e-06
1.97826e-06
1.7614e-06
1.70066e-06
2.15064e-06
1.63802e-06
2.05707e-06
2.06773e-06
2.53282e-06
2.43044e-06
2.10072e-06
2.10556e-06
2.19329e-06
2.38286e-06
2.19542e-06
2.28731e-06
2.50716e-06
2.51517e-06
2.41831e-06
2.1864e-06
2.17903e-06
2.31064e-06
2.26269e-06
2.39837e-06
2.42304e-06
2.24354e-06
2.33043e-06
1.90648e-06
2.06581e-06
1.98908e-06
1.95009e-06
2.09621e-06
2.22355e-06
2.01433e-06
2.13717e-06
2.15334e-06
2.15763e-06
2.07279e-06
1.37302e-06
1.24398e-06
1.22136e-06
1.50904e-06
1.16537e-06
1.43305e-06
1.44567e-06
1.49567e-06
1.47136e-06
1.42357e-06
1.55909e-06
1.42822e-06
1.30169e-06
1.36532e-06
1.34955e-06
1.59386e-06
1.43083e-06
1.2783e-06
1.58611e-06
1.33618e-06
1.66421e-06
1.51931e-06
1.15402e-06
1.15701e-06
1.10029e-06
9.3933e-07
9.48637e-07
9.63774e-07
9.83002e-07
1.00842e-06
1.09806e-06
9.96805e-07
1.04789e-06
1.16399e-06
1.08666e-06
9.11615e-07
9.23538e-07
9.79332e-07
1.12112e-06
9.8407e-07
1.04919e-06
8.24241e-07
9.14699e-07
9.20114e-07
8.81008e-07
8.77432e-07
8.05469e-07
8.77604e-07
8.51356e-07
9.46998e-07
9.30422e-07
8.98527e-07
9.553e-07
9.62481e-07
9.2892e-07
9.92739e-07
9.11586e-07
8.45473e-07
8.73272e-07
8.80419e-07
6.44142e-07
5.25971e-07
6.58585e-07
5.54316e-07
6.75114e-07
6.27599e-07
5.25191e-07
7.36494e-07
6.19236e-07
6.8947e-07
5.83709e-07
7.05851e-07
7.204e-07
6.13534e-07
9.74935e-07
8.93654e-07
9.36649e-07
8.33043e-07
9.67911e-07
9.45497e-07
8.66279e-07
1.07381e-06
1.01293e-06
1.04501e-06
1.0374e-06
1.11858e-06
1.1273e-06
1.15389e-06
1.09698e-06
8.8652e-07
7.85904e-07
9.05616e-07
8.00376e-07
8.74631e-07
9.16088e-07
7.68162e-07
6.71048e-07
7.34347e-07
8.46005e-07
7.53071e-07
7.82611e-07
6.62611e-07
7.00046e-07
7.21477e-07
4.83076e-07
5.11141e-07
5.19243e-07
5.48831e-07
6.52517e-07
6.05297e-07
6.20544e-07
5.69865e-07
5.51593e-07
5.94982e-07
5.56533e-07
7.60876e-07
7.28587e-07
7.17529e-07
6.47284e-07
6.84585e-07
6.41563e-07
7.16804e-07
6.78611e-07
6.82083e-07
6.34662e-07
6.75507e-07
1.22062e-06
1.19329e-06
1.1516e-06
1.0316e-06
9.90008e-07
1.03348e-06
1.05422e-06
1.10386e-06
1.12329e-06
1.01847e-06
1.08422e-06
1.10614e-06
1.03339e-06
8.47836e-07
8.77387e-07
9.12146e-07
1.04681e-06
9.41122e-07
9.78424e-07
8.51123e-07
9.27356e-07
9.64733e-07
8.66348e-07
8.97653e-07
7.7252e-07
8.60838e-07
8.31349e-07
9.54343e-07
9.23737e-07
8.91958e-07
5.3935e-07
5.62967e-07
5.24022e-07
5.88861e-07
4.8866e-07
4.32492e-07
4.42526e-07
4.68755e-07
4.02927e-07
4.41358e-07
4.65194e-07
4.70018e-07
4.2941e-07
4.4983e-07
4.21095e-07
5.50279e-07
5.62817e-07
5.02486e-07
5.21268e-07
5.41262e-07
4.98993e-07
5.74737e-07
1.02715e-06
9.55155e-07
8.51604e-07
1.00373e-06
9.01077e-07
1.07179e-06
9.61901e-07
6.95616e-07
6.22029e-07
6.63319e-07
6.43076e-07
7.52831e-07
7.6889e-07
8.07934e-07
7.25709e-07
8.35831e-07
7.97205e-07
8.03359e-07
9.37213e-07
7.56358e-07
8.7231e-07
8.98093e-07
6.43006e-07
7.02433e-07
7.85527e-07
6.97825e-07
7.25298e-07
6.1135e-07
6.42035e-07
6.67206e-07
3.72907e-07
4.29296e-07
4.15487e-07
4.45053e-07
4.89962e-07
4.81814e-07
4.44086e-07
4.31127e-07
4.75829e-07
5.07196e-07
4.60262e-07
7.15532e-07
6.83582e-07
6.60437e-07
5.83329e-07
5.37923e-07
5.34832e-07
5.8788e-07
5.90116e-07
6.28514e-07
5.56267e-07
6.07348e-07
3.71117e-07
4.10785e-07
4.84771e-07
4.4306e-07
3.40341e-07
3.0216e-07
2.35363e-07
2.72793e-07
7.15992e-08
8.89866e-08
1.23085e-07
9.76179e-08
7.00354e-08
6.22694e-08
6.78312e-08
6.68626e-08
3.86371e-08
5.47361e-08
9.67416e-08
7.73193e-08
7.46929e-08
3.90043e-08
6.00025e-08
5.5389e-08
3.96626e-08
2.76391e-08
3.07316e-08
3.59678e-08
3.90389e-08
4.95661e-08
3.33196e-08
4.84465e-08
2.88734e-08
3.78964e-08
3.12662e-08
9.58823e-08
7.61215e-08
7.76774e-08
7.00171e-08
4.8877e-08
5.14086e-08
6.10986e-08
5.45362e-08
5.98313e-08
4.87571e-08
6.19999e-08
2.0602e-07
2.73148e-07
2.46522e-07
1.82427e-07
2.7325e-07
1.75102e-07
2.15016e-07
8.6451e-08
7.97442e-08
8.74338e-08
7.64538e-08
1.01181e-07
1.22091e-07
1.20801e-07
1.07321e-07
1.23422e-07
1.92815e-07
2.21214e-07
1.53148e-07
1.9727e-07
1.47451e-07
1.27548e-07
2.16806e-07
1.82465e-07
1.2139e-07
1.45977e-07
1.4864e-07
2.10894e-07
1.74145e-07
1.78449e-07
3.32537e-07
3.033e-07
2.94424e-07
2.56304e-07
2.15705e-07
1.82619e-07
2.47918e-07
2.16807e-07
2.66001e-07
2.25308e-07
2.58682e-07
1.16619e-07
1.4161e-07
1.39946e-07
1.69806e-07
1.85885e-07
1.51773e-07
1.58635e-07
1.24624e-07
1.68817e-07
1.94292e-07
1.6583e-07
5.85758e-08
4.50302e-08
6.05933e-08
5.47149e-08
4.84369e-08
5.41534e-08
5.80332e-08
7.17592e-08
6.94863e-08
6.91533e-08
7.23947e-08
7.50731e-08
7.3068e-08
7.95821e-08
6.74828e-08
6.21858e-08
8.8601e-08
7.68283e-08
5.67959e-08
9.45036e-08
6.04373e-08
5.9283e-08
1.06736e-07
7.30229e-08
6.95255e-08
7.07786e-08
9.08331e-08
7.55447e-08
7.66774e-08
6.80622e-08
6.51458e-08
8.55074e-08
1.14813e-07
7.71412e-08
7.75421e-08
9.38998e-08
1.16847e-07
7.66875e-08
9.57896e-08
6.67507e-08
6.335e-08
5.30816e-08
7.44208e-08
7.20997e-08
5.01296e-08
6.8352e-08
1.9351e-06
1.65693e-06
1.78602e-06
1.8172e-06
1.66028e-06
1.9439e-06
1.83911e-06
1.57898e-06
1.20934e-06
1.47132e-06
1.23064e-06
1.58358e-06
1.21004e-06
1.44906e-06
1.53671e-06
1.40463e-06
1.20406e-06
1.16402e-06
1.16387e-06
1.42755e-06
1.5299e-06
1.21192e-06
8.87317e-07
9.06382e-07
1.10516e-06
8.94305e-07
1.19245e-06
1.13271e-06
1.25347e-06
1.18607e-06
9.31329e-07
9.39668e-07
9.34226e-07
1.15932e-06
1.27094e-06
5.78074e-07
4.54398e-07
5.81717e-07
4.25059e-07
6.11639e-07
4.31778e-07
5.48546e-07
5.40992e-07
4.81726e-07
3.98291e-07
3.77431e-07
4.01375e-07
5.15065e-07
5.0675e-07
1.18096e-07
7.48222e-08
7.7538e-08
9.04138e-08
7.57216e-08
8.66928e-08
1.15715e-07
1.5906e-07
1.84277e-07
1.00312e-07
1.28357e-07
1.01546e-07
1.5092e-07
1.96278e-07
3.14251e-06
2.13136e-06
2.46208e-06
3.22692e-06
2.15029e-06
3.09391e-06
3.28871e-06
1.6288e-06
1.25638e-06
1.49219e-06
1.30882e-06
1.62618e-06
1.25537e-06
1.51399e-06
1.67116e-06
1.55552e-06
1.30212e-06
1.33653e-06
1.30329e-06
1.67193e-06
1.53416e-06
1.90824e-06
1.60508e-06
1.79748e-06
1.68904e-06
1.90014e-06
1.60288e-06
1.7761e-06
1.86492e-06
1.73565e-06
1.6563e-06
1.55019e-06
1.55135e-06
1.75671e-06
1.87185e-06
2.15722e-06
1.43965e-06
1.65927e-06
2.16593e-06
1.46239e-06
2.09968e-06
2.23306e-06
2.22932e-06
2.36933e-06
1.54712e-06
1.70811e-06
1.52474e-06
2.28628e-06
2.3024e-06
2.97648e-06
2.06382e-06
3.16242e-06
2.30993e-06
3.02657e-06
2.04432e-06
3.09962e-06
2.90825e-06
2.9705e-06
2.25998e-06
1.9572e-06
1.97736e-06
3.03416e-06
2.85687e-06
1.96931e-06
1.3784e-06
1.51255e-06
2.09652e-06
1.3555e-06
2.02741e-06
2.02927e-06
1.89715e-06
1.89284e-06
1.46479e-06
1.2723e-06
1.29546e-06
1.9599e-06
1.83879e-06
1.13075e-06
8.05465e-07
9.21357e-07
1.10306e-06
8.28468e-07
1.07561e-06
1.16446e-06
1.19773e-06
1.29175e-06
9.63265e-07
9.01558e-07
8.78484e-07
1.22871e-06
1.25416e-06
6.82561e-07
4.8548e-07
6.14997e-07
5.04286e-07
6.498e-07
5.06723e-07
6.47998e-07
7.21068e-07
7.13379e-07
5.58228e-07
5.30534e-07
5.38649e-07
7.52835e-07
6.80776e-07
1.12941e-06
8.48561e-07
1.07761e-06
8.33323e-07
1.15087e-06
8.39818e-07
1.04923e-06
1.0884e-06
9.91686e-07
8.08401e-07
7.91677e-07
8.02147e-07
1.0209e-06
1.06484e-06
3.08536e-07
3.24242e-07
3.62727e-07
2.85192e-07
3.44823e-07
2.7506e-07
3.22197e-07
3.51204e-07
4.04014e-07
3.94091e-07
3.90117e-07
3.73226e-07
3.88754e-07
3.62628e-07
9.56823e-07
7.57717e-07
1.04068e-06
7.98958e-07
1.01047e-06
7.34981e-07
9.81151e-07
8.9389e-07
8.63562e-07
7.60066e-07
6.67089e-07
6.89629e-07
9.20881e-07
8.42074e-07
2.08322e-07
2.98757e-07
2.8628e-07
2.49483e-07
2.7852e-07
2.3721e-07
2.17309e-07
1.75826e-07
1.6019e-07
2.62931e-07
2.35776e-07
2.55792e-07
1.86913e-07
1.52197e-07
7.41571e-08
6.43079e-08
5.56189e-08
7.36208e-08