/*--------------------------------*- C++ -*----------------------------------*\
| =========                 |                                                 |
| \\      /  F ield         | OpenFOAM: The Open Source CFD Toolbox           |
|  \\    /   O peration     | Version:  2012                                  |
|   \\  /    A nd           | Website:  www.openfoam.com                      |
|    \\/     M anipulation  |                                                 |
\*---------------------------------------------------------------------------*/
FoamFile
{
    version     2.0;
    format      ascii;
    class       volSymmTensorField;
    location    "0.106/solid";
    object      epsilon;
}
// * * * * * * * * * * * * * * * * * * * * * * * * * * * * * * * * * * * * * //

dimensions      [0 0 0 0 0 0 0];


internalField   nonuniform List<symmTensor> 
3125
(
(-1.68692e-07 -1.22711e-08 -1.37663e-06 2.47597e-07 -1.81093e-07 -6.59894e-08)
(-8.13906e-08 -1.82311e-08 -1.12005e-06 2.29351e-07 -1.73311e-07 -2.06576e-07)
(-5.50178e-08 -2.14103e-08 -8.58526e-07 1.50025e-07 -1.49016e-07 -1.47614e-07)
(-4.9976e-08 -2.24245e-08 -4.30804e-07 3.7633e-08 -8.01095e-08 -2.09226e-09)
(-2.32634e-10 -5.96961e-08 -1.7183e-08 -2.12737e-09 -4.81749e-10 3.13199e-09)
(-6.04792e-07 -5.23392e-08 -2.86421e-07 -1.00625e-06 -7.72987e-08 2.58662e-06)
(-8.7805e-08 -1.77162e-08 -1.15266e-06 2.369e-07 -1.75151e-07 -2.04669e-07)
(-1.55665e-07 -1.31288e-08 -1.3517e-06 2.51402e-07 -1.80827e-07 -9.58026e-08)
(-3.88627e-07 -4.16648e-08 -2.88234e-07 -7.0703e-07 -8.52238e-08 1.76612e-06)
(-5.7856e-07 -5.1058e-08 -2.89508e-07 -9.71916e-07 -7.84086e-08 2.48977e-06)
(-3.61153e-07 -4.03951e-08 -2.84896e-07 -6.66575e-07 -8.56644e-08 1.65845e-06)
(-1.76141e-07 -3.20281e-08 -2.41188e-07 -3.82967e-07 -8.04308e-08 9.18089e-07)
(-5.02811e-08 -2.28533e-08 -4.82603e-07 4.74662e-08 -8.99259e-08 -1.53526e-08)
(-5.33873e-08 -2.18182e-08 -8.15922e-07 1.36464e-07 -1.43549e-07 -1.31925e-07)
(-1.35162e-08 -2.38451e-08 -1.52124e-07 -1.1777e-07 -5.03771e-08 2.42372e-07)
(-1.51925e-07 -3.09531e-08 -2.32253e-07 -3.44481e-07 -7.8197e-08 8.19187e-07)
(8.1629e-09 -5.71102e-08 -1.73765e-08 -4.38058e-09 -9.98788e-10 3.08677e-10)
(4.10197e-08 -5.78421e-08 -9.6089e-09 -1.0564e-08 -1.9867e-10 -1.15168e-08)
(4.11211e-10 -2.2611e-08 -1.37932e-07 -9.41685e-08 -4.46887e-08 1.82726e-07)
(3.62609e-08 -6.04468e-08 -9.45128e-09 -1.03251e-08 5.63159e-10 -9.56666e-09)
(-1.25034e-06 6.26247e-08 -9.2989e-07 -7.36579e-07 -1.88218e-07 2.99542e-06)
(-1.02927e-06 6.96328e-08 -9.08695e-07 -7.13405e-07 -1.82964e-07 2.8118e-06)
(-4.25072e-07 4.20239e-09 -5.86169e-07 -1.91869e-07 -1.38387e-07 8.78173e-07)
(-5.79022e-07 1.86008e-08 -6.80174e-07 -2.74471e-07 -1.55549e-07 1.23045e-06)
(-6.29275e-07 4.01025e-08 -7.61041e-07 -3.88964e-07 -1.69875e-07 1.62092e-06)
(-6.63181e-08 -1.97274e-08 -1.01552e-06 2.0011e-07 -1.65656e-07 -1.9504e-07)
(-4.86198e-07 2.48905e-08 -6.82631e-07 -2.8605e-07 -1.59405e-07 1.21921e-06)
(-7.76814e-07 3.45635e-08 -7.7375e-07 -3.93516e-07 -1.69801e-07 1.71202e-06)
(-6.02626e-07 2.06201e-08 -6.92644e-07 -2.87874e-07 -1.5761e-07 1.28608e-06)
(-3.42685e-07 6.69209e-09 -5.78863e-07 -1.90468e-07 -1.41421e-07 8.30311e-07)
(-6.25569e-08 -2.02313e-08 -9.78117e-07 1.88512e-07 -1.62234e-07 -1.86066e-07)
(-4.67012e-07 2.26241e-08 -6.70521e-07 -2.7284e-07 -1.57547e-07 1.16644e-06)
(-5.65227e-08 -4.49108e-08 -1.26034e-08 1.114e-08 1.11505e-09 2.16245e-08)
(-7.57579e-08 -2.78246e-08 -1.56445e-07 -2.4253e-08 -3.10163e-08 1.23138e-07)
(-1.24105e-07 -2.5125e-08 -3.07239e-07 -5.74072e-08 -7.64659e-08 2.60451e-07)
(-4.60643e-08 -1.9732e-08 -2.74603e-07 1.6171e-08 -4.77164e-08 2.35662e-08)
(-6.9422e-08 -2.87675e-08 -1.76798e-07 -2.45034e-08 -3.77664e-08 1.20559e-07)
(-1.50051e-07 -2.44795e-08 -3.09288e-07 -6.18636e-08 -7.40361e-08 2.8785e-07)
(-8.32633e-08 -2.81159e-08 -1.7614e-07 -2.87389e-08 -3.69651e-08 1.41086e-07)
(-5.0767e-08 -5.22763e-08 -1.44429e-08 1.20925e-08 2.12874e-09 1.83356e-08)
(-4.32799e-08 -1.86486e-08 -2.22827e-07 1.25585e-08 -3.59163e-08 2.55651e-08)
(-6.30851e-08 -2.85003e-08 -1.57516e-07 -2.03302e-08 -3.145e-08 1.0401e-07)
(-9.73866e-07 3.19327e-08 -3.37104e-07 -1.49422e-06 -9.46996e-08 4.41591e-06)
(-9.78671e-07 5.50158e-08 -4.6133e-07 -1.30762e-06 -1.14669e-07 3.88163e-06)
(-1.22104e-06 6.11989e-08 -9.22204e-07 -7.1318e-07 -1.87348e-07 2.91113e-06)
(-1.02038e-06 5.05583e-08 -8.63009e-07 -5.60203e-07 -1.80779e-07 2.35018e-06)
(-1.12036e-07 -1.5872e-08 -1.24375e-06 2.51739e-07 -1.78779e-07 -1.79144e-07)
(-6.50909e-07 4.2164e-08 -7.7133e-07 -4.0515e-07 -1.71057e-07 1.6828e-06)
(-8.09505e-07 5.54763e-08 -8.37537e-07 -5.28879e-07 -1.77387e-07 2.14586e-06)
(-1.00409e-06 6.81774e-08 -9.01578e-07 -6.91601e-07 -1.82405e-07 2.73426e-06)
(-1.21668e-07 -1.52759e-08 -1.27215e-06 2.53891e-07 -1.7954e-07 -1.63734e-07)
(-8.3312e-07 5.72004e-08 -8.46187e-07 -5.48012e-07 -1.78094e-07 2.21613e-06)
(-8.02909e-07 3.64429e-08 -7.84457e-07 -4.10315e-07 -1.71264e-07 1.77798e-06)
(-9.92459e-07 4.88901e-08 -8.53849e-07 -5.39959e-07 -1.79744e-07 2.27446e-06)
(-9.47464e-07 3.13741e-08 -3.36547e-07 -1.46118e-06 -9.44648e-08 4.31286e-06)
(-7.69339e-07 2.65662e-08 -3.28712e-07 -1.23002e-06 -9.28052e-08 3.59909e-06)
(-4.70969e-07 -4.56221e-08 -2.93645e-07 -8.25253e-07 -8.2841e-08 2.08452e-06)
(-6.00112e-07 3.39489e-08 -4.1239e-07 -8.4482e-07 -1.12048e-07 2.46135e-06)
(-7.59152e-07 4.45469e-08 -4.39238e-07 -1.04487e-06 -1.13746e-07 3.06869e-06)
(-9.53584e-07 5.39816e-08 -4.59535e-07 -1.27829e-06 -1.14565e-07 3.79006e-06)
(-4.98208e-07 -4.70028e-08 -2.93846e-07 -8.63253e-07 -8.17959e-08 2.1883e-06)
(-7.82784e-07 4.5885e-08 -4.42383e-07 -1.07385e-06 -1.13859e-07 3.15752e-06)
(-5.82507e-07 1.87606e-08 -3.10343e-07 -9.69391e-07 -9.0449e-08 2.80916e-06)
(-7.44932e-07 2.57293e-08 -3.26949e-07 -1.19714e-06 -9.2606e-08 3.49856e-06)
(-2.73758e-07 -2.67865e-09 -2.45312e-07 -4.89495e-07 -7.70161e-08 1.39177e-06)
(-3.97231e-07 7.3042e-09 -2.78151e-07 -6.89402e-07 -8.48357e-08 1.9768e-06)
(-5.78386e-07 3.22477e-08 -4.07861e-07 -8.16817e-07 -1.11617e-07 2.37708e-06)
(-2.79554e-07 -3.66345e-08 -2.7036e-07 -5.4384e-07 -8.54361e-08 1.33527e-06)
(-4.34129e-07 1.95255e-08 -3.71459e-07 -6.26603e-07 -1.06865e-07 1.80961e-06)
(-5.60561e-07 1.75968e-08 -3.07337e-07 -9.37386e-07 -9.00292e-08 2.71321e-06)
(-4.1639e-07 8.68081e-09 -2.82315e-07 -7.19452e-07 -8.56494e-08 2.06536e-06)
(-2.88658e-07 3.89462e-09 -3.19996e-07 -4.26953e-07 -9.66294e-08 1.22245e-06)
(-2.52949e-07 -3.5436e-08 -2.64092e-07 -5.02951e-07 -8.47654e-08 1.22865e-06)
(-4.14755e-07 1.76189e-08 -3.65586e-07 -6.00458e-07 -1.05921e-07 1.73225e-06)
(-4.04799e-07 2.15255e-09 -5.71813e-07 -1.81611e-07 -1.35512e-07 8.3312e-07)
(-2.76191e-07 -1.1219e-08 -4.64391e-07 -1.1968e-07 -1.12553e-07 5.5466e-07)
(-5.07572e-08 -2.28756e-08 -6.3267e-07 8.26655e-08 -1.16277e-07 -6.32511e-08)
(-1.33474e-07 -2.3946e-08 -3.25033e-07 -6.29612e-08 -8.13836e-08 2.84527e-07)
(-2.11242e-07 -1.24835e-08 -4.43574e-07 -1.09186e-07 -1.12128e-07 4.85295e-07)
(-3.26436e-07 4.43923e-09 -5.6483e-07 -1.80108e-07 -1.38633e-07 7.87099e-07)
(-5.09493e-08 -2.27163e-08 -6.80495e-07 9.57282e-08 -1.23971e-07 -8.06752e-08)
(-2.24133e-07 -1.05239e-08 -4.59556e-07 -1.16929e-07 -1.15919e-07 5.18723e-07)
(-1.61785e-07 -2.34089e-08 -3.27414e-07 -6.73189e-08 -7.87913e-08 3.12784e-07)
(-2.59957e-07 -1.30182e-08 -4.48102e-07 -1.1217e-07 -1.08795e-07 5.20132e-07)
(-2.57717e-07 -4.11305e-09 -2.40091e-07 -4.62705e-07 -7.56129e-08 1.31389e-06)
(-1.57198e-07 -1.3796e-08 -2.00164e-07 -2.90607e-07 -6.34998e-08 8.16215e-07)
(-6.49001e-08 -2.69613e-08 -1.90202e-07 -2.03612e-07 -6.49882e-08 4.5963e-07)
(-7.49822e-08 -2.2862e-08 -1.87931e-07 -1.20917e-07 -5.58482e-08 3.35266e-07)
(-1.546e-07 -1.28755e-08 -2.50329e-07 -2.35969e-07 -7.75709e-08 6.67814e-07)
(-2.72126e-07 1.9473e-09 -3.1286e-07 -4.03759e-07 -9.49119e-08 1.15475e-06)
(-8.49315e-08 -2.79228e-08 -2.01634e-07 -2.36453e-07 -6.89589e-08 5.43117e-07)
(-1.678e-07 -1.11288e-08 -2.58654e-07 -2.55027e-07 -8.01377e-08 7.22922e-07)
(-6.81847e-08 -2.25865e-08 -1.47272e-07 -1.35088e-07 -4.37733e-08 3.68402e-07)
(-1.44555e-07 -1.50777e-08 -1.9397e-07 -2.68506e-07 -6.14288e-08 7.52572e-07)
(4.45837e-09 -4.04858e-08 -3.15197e-09 -2.26085e-09 3.163e-09 -2.60325e-09)
(-1.24013e-09 -2.5086e-08 -7.24645e-08 -2.94647e-08 -1.42176e-08 5.8112e-08)
(-6.54556e-08 -2.38879e-08 -1.78361e-07 -1.07369e-07 -5.23084e-08 2.95926e-07)
(3.24466e-08 -1.80626e-08 -8.88031e-08 -4.19623e-08 -2.52081e-08 4.84854e-08)
(-1.18473e-08 -2.68265e-08 -1.04534e-07 -3.58665e-08 -2.38267e-08 8.4109e-08)
(-5.89973e-08 -2.33602e-08 -1.39992e-07 -1.19383e-07 -4.09189e-08 3.23022e-07)
(-6.74017e-09 -2.5428e-08 -8.22059e-08 -3.69276e-08 -1.79825e-08 8.07291e-08)
(4.06457e-09 -4.81609e-08 -2.85799e-09 -3.96333e-09 3.94427e-09 -4.79165e-10)
(4.04042e-08 -1.64725e-08 -6.89207e-08 -3.16232e-08 -1.78393e-08 2.0171e-08)
(-6.26218e-09 -2.64838e-08 -9.26321e-08 -2.92508e-08 -1.90792e-08 6.37078e-08)
(-2.03191e-06 -4.08192e-08 -5.4038e-07 -1.53605e-06 -1.33963e-07 4.6899e-06)
(-5.15515e-07 2.75727e-08 -1.08403e-06 -3.10367e-07 -2.11393e-07 1.38373e-06)
(-6.73927e-07 -3.19449e-08 -3.33282e-07 -4.6736e-07 -9.44913e-08 1.40878e-06)
(-7.8603e-07 -3.2642e-08 -3.57671e-07 -5.48288e-07 -1.00257e-07 1.64673e-06)
(-3.03451e-07 1.14396e-08 -9.0514e-07 -1.47197e-07 -2.02217e-07 7.4922e-07)
(-7.56034e-08 -1.87847e-08 -1.08645e-06 2.20632e-07 -1.7115e-07 -2.05522e-07)
(-2.73317e-07 7.66109e-09 -8.66709e-07 -1.26499e-07 -1.98962e-07 6.60283e-07)
(-1.27819e-06 -3.59977e-08 -4.4449e-07 -9.17859e-07 -1.17911e-07 2.75621e-06)
(-1.15009e-06 -3.51118e-08 -4.24317e-07 -8.19246e-07 -1.14145e-07 2.45654e-06)
(-1.68327e-07 -7.96405e-09 -6.87096e-07 -6.34832e-08 -1.72445e-07 3.71724e-07)
(-5.69488e-08 -2.10678e-08 -8.99641e-07 1.6332e-07 -1.5395e-07 -1.62064e-07)
(-1.90778e-07 -3.90751e-09 -7.35658e-07 -7.60664e-08 -1.80775e-07 4.33875e-07)
(-2.9036e-08 -2.16501e-08 -3.89756e-09 4.59081e-09 5.14915e-09 1.20931e-08)
(-3.12067e-08 -2.25359e-08 -3.44981e-08 -6.25894e-09 -1.62444e-09 5.22715e-08)
(-7.26948e-08 -2.56331e-08 -3.64035e-07 -1.79524e-08 -9.53828e-08 1.27054e-07)
(-4.91779e-08 -2.18365e-08 -3.78776e-07 2.89828e-08 -6.98236e-08 9.15375e-09)
(-6.14339e-08 -2.64639e-08 -3.00196e-07 -1.32843e-08 -7.68331e-08 9.91979e-08)
(-1.77097e-07 -2.8835e-08 -1.75725e-07 -1.17618e-07 -4.99713e-08 3.96686e-07)
(-1.21704e-07 -2.83725e-08 -1.43942e-07 -7.81015e-08 -3.97004e-08 2.81348e-07)
(-3.01133e-08 -5.89396e-08 -1.81389e-08 7.75528e-09 9.5602e-11 1.18887e-08)
(-3.63819e-08 -2.33126e-08 -1.11716e-07 1.01637e-08 -1.2206e-08 1.68993e-08)
(-3.2206e-08 -2.56558e-08 -1.02252e-07 2.11289e-09 -1.2826e-08 2.72096e-08)
(-9.96306e-07 -2.84654e-08 -2.32979e-07 -1.46794e-06 -7.14942e-08 5.4173e-06)
(-7.14158e-07 2.49245e-08 -5.25805e-07 -8.8612e-07 -1.48004e-07 2.68691e-06)
(-1.98706e-06 -4.05723e-08 -5.35613e-07 -1.49745e-06 -1.33175e-07 4.56664e-06)
(-1.8526e-06 -3.98643e-08 -5.20603e-07 -1.38303e-06 -1.30725e-07 4.2032e-06)
(-9.5054e-08 -1.71388e-08 -1.18402e-06 2.43192e-07 -1.76642e-07 -1.9953e-07)
(-3.15288e-07 1.24869e-08 -9.17859e-07 -1.55028e-07 -2.03762e-07 7.80658e-07)
(-3.47876e-07 1.60268e-08 -9.53198e-07 -1.78803e-07 -2.05788e-07 8.78833e-07)
(-5.00265e-07 2.69697e-08 -1.0749e-06 -2.98384e-07 -2.10477e-07 1.34028e-06)
(-1.43529e-07 -1.38865e-08 -1.3261e-06 2.53724e-07 -1.80499e-07 -1.22049e-07)
(-4.60896e-07 2.44538e-08 -1.04781e-06 -2.65444e-07 -2.10436e-07 1.21539e-06)
(-1.32141e-06 -3.62742e-08 -4.50988e-07 -9.51525e-07 -1.19086e-07 2.85917e-06)
(-1.45241e-06 -3.71907e-08 -4.69793e-07 -1.0549e-06 -1.22325e-07 3.17694e-06)
(-9.64884e-07 -2.84019e-08 -2.32736e-07 -1.43026e-06 -7.11078e-08 5.28418e-06)
(-8.73651e-07 -2.82268e-08 -2.31551e-07 -1.31887e-06 -7.0008e-08 4.8886e-06)
(-4.16165e-07 -4.29741e-08 -2.90859e-07 -7.47054e-07 -8.4603e-08 1.8732e-06)
(-4.4715e-07 1.14807e-08 -4.72897e-07 -5.84874e-07 -1.4901e-07 1.73755e-06)
(-4.96966e-07 1.46999e-08 -4.87765e-07 -6.41584e-07 -1.49048e-07 1.91215e-06)
(-6.98512e-07 2.43979e-08 -5.25237e-07 -8.67877e-07 -1.47463e-07 2.62657e-06)
(-5.52015e-07 -4.97087e-08 -2.91748e-07 -9.36643e-07 -7.95269e-08 2.39106e-06)
(-6.45965e-07 2.22306e-08 -5.17425e-07 -8.11108e-07 -1.4881e-07 2.44746e-06)
(-5.58061e-07 -2.71765e-08 -2.17817e-07 -9.02691e-07 -6.51785e-08 3.38192e-06)
(-6.2923e-07 -2.73991e-08 -2.22674e-07 -1.00177e-06 -6.64868e-08 3.7453e-06)
(-2.64739e-07 -2.67534e-08 -1.75196e-07 -4.44149e-07 -5.35328e-08 1.65766e-06)
(-3.09099e-07 -2.67153e-08 -1.85274e-07 -5.20132e-07 -5.65207e-08 1.94845e-06)
(-4.32329e-07 1.04965e-08 -4.68734e-07 -5.66599e-07 -1.48122e-07 1.67931e-06)
(-3.33759e-07 -3.91073e-08 -2.80772e-07 -6.25796e-07 -8.58636e-08 1.55056e-06)
(-3.84046e-07 7.02723e-09 -4.51555e-07 -5.10784e-07 -1.4707e-07 1.50864e-06)
(-5.35504e-07 -2.71268e-08 -2.15948e-07 -8.70499e-07 -6.46769e-08 3.26313e-06)
(-4.71272e-07 -2.69526e-08 -2.09765e-07 -7.76468e-07 -6.30526e-08 2.91444e-06)
(-2.11086e-07 -7.56996e-09 -3.68605e-07 -3.02303e-07 -1.30898e-07 8.72672e-07)
(-2.01143e-07 -3.31274e-08 -2.49513e-07 -4.2233e-07 -8.22709e-08 1.0196e-06)
(-2.52389e-07 -3.77491e-09 -3.92535e-07 -3.52008e-07 -1.36365e-07 1.02195e-06)
(-6.37828e-07 -3.16666e-08 -3.24921e-07 -4.41506e-07 -9.24403e-08 1.33319e-06)
(-5.33853e-07 -3.09888e-08 -2.99158e-07 -3.67667e-07 -8.59298e-08 1.11797e-06)
(-5.045e-08 -2.30401e-08 -5.33544e-07 5.83687e-08 -9.92388e-08 -3.02321e-08)
(-7.71519e-08 -2.51753e-08 -3.8491e-07 -1.98155e-08 -1.01272e-07 1.37156e-07)
(-8.9902e-08 -2.30002e-08 -4.46644e-07 -2.54164e-08 -1.17949e-07 1.70047e-07)
(-1.60292e-07 -9.17865e-09 -6.7017e-07 -5.93678e-08 -1.69018e-07 3.52272e-07)
(-5.22404e-08 -2.21346e-08 -7.7215e-07 1.22783e-07 -1.37574e-07 -1.15354e-07)
(-1.40419e-07 -1.30934e-08 -6.1811e-07 -4.90436e-08 -1.58751e-07 2.98321e-07)
(-1.98068e-07 -2.89515e-08 -1.85961e-07 -1.32406e-07 -5.3218e-08 4.39547e-07)
(-2.68098e-07 -2.9418e-08 -2.15867e-07 -1.81528e-07 -6.25269e-08 5.81079e-07)
(-2.50949e-07 -2.67399e-08 -1.716e-07 -4.19965e-07 -5.24343e-08 1.56465e-06)
(-2.12501e-07 -2.67443e-08 -1.60271e-07 -3.50877e-07 -4.89202e-08 1.29818e-06)
(-2.90924e-08 -2.49493e-08 -1.65513e-07 -1.44032e-07 -5.56639e-08 3.08737e-07)
(-4.20351e-08 -2.37024e-08 -2.16556e-07 -9.0728e-08 -7.76234e-08 2.36893e-07)
(-6.72917e-08 -2.16871e-08 -2.48731e-07 -1.22235e-07 -9.05924e-08 3.30467e-07)
(-1.98939e-07 -8.72037e-09 -3.60914e-07 -2.86639e-07 -1.28437e-07 8.24085e-07)
(-1.28568e-07 -2.9893e-08 -2.22653e-07 -3.07118e-07 -7.5546e-08 7.23424e-07)
(-1.60941e-07 -1.23816e-08 -3.3486e-07 -2.40359e-07 -1.21254e-07 6.85695e-07)
(-9.60224e-08 -2.70778e-08 -1.04871e-07 -1.31768e-07 -2.97089e-08 4.45095e-07)
(-1.20427e-07 -2.70265e-08 -1.20318e-07 -1.77507e-07 -3.53855e-08 6.23277e-07)
(-1.31079e-08 -2.15841e-08 -9.94091e-08 8.90021e-09 -1.59919e-08 5.41676e-09)
(4.96154e-08 -2.06013e-08 -2.94526e-08 -1.84718e-08 -1.03476e-08 -1.11069e-08)
(-1.8164e-08 -2.01283e-08 4.41156e-09 9.05081e-10 6.00907e-09 5.9788e-09)
(-1.67683e-08 -2.1772e-08 -1.46177e-08 -1.17216e-08 2.87991e-09 9.69379e-09)
(-3.49895e-08 -2.41374e-08 -2.05671e-07 -8.14764e-08 -7.29796e-08 2.08435e-07)
(1.26713e-08 -2.12278e-08 -1.22811e-07 -7.34745e-08 -3.86269e-08 1.30213e-07)
(-1.45617e-08 -2.48884e-08 -1.71194e-07 -5.65781e-08 -5.83131e-08 1.33701e-07)
(-8.84242e-08 -2.71097e-08 -9.93715e-08 -1.17965e-07 -2.77139e-08 3.9141e-07)
(-6.69801e-08 -2.70645e-08 -8.17922e-08 -8.09115e-08 -2.13799e-08 2.48368e-07)
(2.46511e-08 -5.71876e-08 -6.16406e-09 -9.70647e-09 1.99849e-09 -5.3988e-09)
(5.53508e-08 -2.05902e-08 -2.04565e-08 -2.06714e-08 -3.34314e-09 -1.066e-08)
(2.51117e-08 -2.41897e-08 -4.93921e-08 -1.63945e-08 -6.83609e-09 3.65744e-09)
(-1.73092e-06 -3.45262e-08 -6.68884e-07 -1.35342e-06 -1.54369e-07 4.23348e-06)
(-6.45496e-07 1.73341e-08 -1.05247e-06 -4.14583e-07 -2.08536e-07 1.74225e-06)
(-9.43391e-07 -3.36915e-08 -3.88455e-07 -6.6379e-07 -1.0698e-07 1.98938e-06)
(-8.2457e-07 -3.28483e-08 -3.65542e-07 -5.76339e-07 -1.0203e-07 1.72969e-06)
(-5.76532e-07 -3.06667e-08 -4.17731e-07 -4.0633e-07 -1.11068e-07 1.2686e-06)
(-4.88615e-07 1.03507e-08 -6.27944e-07 -2.24914e-07 -1.46374e-07 1.02123e-06)
(-6.68478e-07 -3.1033e-08 -4.478e-07 -4.76572e-07 -1.17675e-07 1.48041e-06)
(-7.98376e-07 -3.15304e-08 -4.85588e-07 -5.77247e-07 -1.25316e-07 1.78639e-06)
(-5.1066e-07 1.23872e-08 -6.41308e-07 -2.36708e-07 -1.4881e-07 1.07155e-06)
(-7.00225e-07 -3.11468e-08 -4.57502e-07 -5.0099e-07 -1.19693e-07 1.5544e-06)
(-3.8639e-07 3.76463e-09 -8.79847e-07 -2.10257e-07 -1.97015e-07 9.68813e-07)
(-5.66129e-07 3.37298e-08 -7.28774e-07 -3.42626e-07 -1.65882e-07 1.44193e-06)
(-3.4793e-07 1.07969e-09 -8.42331e-07 -1.827e-07 -1.92976e-07 8.57327e-07)
(-7.05204e-08 -1.93398e-08 -1.05147e-06 2.10858e-07 -1.6862e-07 -2.01578e-07)
(-2.34796e-07 2.57595e-09 -8.11308e-07 -1.01872e-07 -1.92378e-07 5.52197e-07)
(-2.62397e-07 6.5288e-09 -8.53008e-07 -1.19688e-07 -1.97063e-07 6.31947e-07)
(-5.45672e-07 3.15413e-08 -7.17631e-07 -3.27927e-07 -1.64406e-07 1.38453e-06)
(-2.99163e-07 -3.11485e-09 -7.88643e-07 -1.49724e-07 -1.86072e-07 7.20596e-07)
(-3.34695e-07 -2.38895e-10 -8.293e-07 -1.74009e-07 -1.91382e-07 8.21756e-07)
(-9.8392e-07 -3.39301e-08 -3.95871e-07 -6.93913e-07 -1.08522e-07 2.07943e-06)
(-1.108e-06 -3.47822e-08 -4.17365e-07 -7.87217e-07 -1.12812e-07 2.35981e-06)
(-1.07878e-06 -3.2657e-08 -5.53734e-07 -8.00519e-07 -1.37479e-07 2.47528e-06)
(-7.00265e-07 2.87053e-08 -7.403e-07 -3.45698e-07 -1.65022e-07 1.52171e-06)
(-9.70866e-07 -3.22398e-08 -5.29294e-07 -7.1357e-07 -1.3333e-07 2.20542e-06)
(-8.32054e-07 -3.16577e-08 -4.94645e-07 -6.03599e-07 -1.27041e-07 1.86701e-06)
(-6.75363e-07 2.6684e-08 -7.28734e-07 -3.30622e-07 -1.63298e-07 1.46085e-06)
(-9.35598e-07 -3.2088e-08 -5.20831e-07 -6.85419e-07 -1.31854e-07 2.1185e-06)
(-2.13673e-07 -1.18571e-08 -6.68181e-07 -9.62749e-08 -1.66014e-07 4.88031e-07)
(-3.93782e-07 1.35177e-08 -6.19647e-07 -2.23631e-07 -1.49047e-07 9.672e-07)
(-2.43223e-07 -8.81133e-09 -7.15462e-07 -1.14442e-07 -1.74599e-07 5.68866e-07)
(-5.94105e-08 -2.06941e-08 -9.39629e-07 1.76196e-07 -1.58367e-07 -1.75022e-07)
(-2.24823e-07 1.3809e-09 -7.96553e-07 -9.60392e-08 -1.90043e-07 5.2693e-07)
(-1.99776e-07 -2.68417e-09 -7.51467e-07 -8.10036e-08 -1.83637e-07 4.5616e-07)
(-4.11576e-07 1.57998e-08 -6.32673e-07 -2.35392e-07 -1.51335e-07 1.01523e-06)
(-2.86962e-07 -4.4599e-09 -7.74558e-07 -1.42119e-07 -1.8403e-07 6.88464e-07)
(-2.54282e-07 -7.4629e-09 -7.30639e-07 -1.21032e-07 -1.77182e-07 5.97566e-07)
(-5.67217e-08 -2.68533e-08 -8.5841e-08 -2.96932e-08 -1.96841e-08 1.33693e-07)
(-3.53028e-08 -2.39171e-08 -4.73615e-08 -1.11016e-08 -5.9846e-09 6.99706e-08)
(-4.26249e-08 -2.9372e-08 -6.68744e-09 3.63755e-09 2.98651e-09 1.68593e-08)
(-5.39228e-08 -2.66102e-08 -7.74583e-08 -4.52656e-09 -7.42558e-09 5.5956e-08)
(-4.54873e-08 -2.33819e-08 -4.61443e-08 -5.6292e-09 -3.39634e-09 5.66833e-08)
(-7.22847e-08 -2.68646e-08 -1.07761e-07 -2.82302e-08 -2.35877e-08 1.36795e-07)
(-5.76864e-08 -2.64856e-08 -9.72079e-08 -1.00503e-08 -1.28725e-08 7.17987e-08)
(-5.04441e-08 -2.43115e-08 -6.13827e-08 -1.05869e-08 -8.15695e-09 7.47358e-08)
(-8.77302e-08 -2.66626e-08 -3.54227e-07 -2.75812e-08 -9.11249e-08 1.62022e-07)
(-9.84566e-08 -2.77858e-08 -2.5247e-07 -4.2165e-08 -6.09597e-08 1.94711e-07)
(-7.27353e-08 -2.70831e-08 -2.91946e-07 -2.00816e-08 -7.32052e-08 1.24582e-07)
(-4.78514e-08 -2.09911e-08 -3.2645e-07 2.17517e-08 -5.90335e-08 1.78924e-08)
(-4.68921e-08 -2.55961e-08 -2.138e-07 -7.25955e-09 -4.94124e-08 6.57726e-08)
(-5.7442e-08 -2.64467e-08 -2.7883e-07 -1.1683e-08 -7.03128e-08 9.04855e-08)
(-9.06714e-08 -2.83443e-08 -2.33898e-07 -3.75137e-08 -5.54775e-08 1.74849e-07)
(-5.43906e-08 -2.60828e-08 -2.07292e-07 -1.10489e-08 -4.67728e-08 8.06542e-08)
(-6.77316e-08 -2.71188e-08 -2.70979e-07 -1.77449e-08 -6.69399e-08 1.13015e-07)
(-6.6812e-08 -2.7329e-08 -9.81209e-08 -3.7524e-08 -2.4059e-08 1.58873e-07)
(-1.05864e-07 -2.81553e-08 -1.32946e-07 -6.66133e-08 -3.60621e-08 2.47387e-07)
(-1.73905e-07 -2.89917e-08 -2.20319e-07 -1.05093e-07 -5.89885e-08 3.73399e-07)
(-1.18248e-07 -2.70301e-08 -2.53486e-07 -4.67849e-08 -5.90935e-08 2.19466e-07)
(-1.28537e-07 -2.85975e-08 -1.80206e-07 -7.09459e-08 -4.68554e-08 2.71023e-07)
(-8.16102e-08 -2.74089e-08 -1.22886e-07 -3.53214e-08 -2.85952e-08 1.60279e-07)
(-1.08738e-07 -2.76048e-08 -2.34474e-07 -4.21112e-08 -5.38333e-08 1.98658e-07)
(-1.15368e-07 -2.83955e-08 -1.66326e-07 -6.09669e-08 -4.25648e-08 2.4066e-07)
(-3.74873e-08 -5.72851e-08 -1.78045e-08 9.22367e-09 6.24226e-10 1.39201e-08)
(-4.45719e-08 -2.79582e-08 -7.89399e-08 -2.55463e-09 -5.96373e-09 4.50008e-08)
(-3.69103e-08 -2.57269e-08 -9.82785e-08 1.85471e-09 -1.10985e-08 3.22218e-08)
(-4.01945e-08 -1.82917e-08 -1.71049e-07 1.06543e-08 -2.40381e-08 2.38079e-08)
(-4.32103e-08 -2.50499e-08 -1.92129e-07 -5.59335e-09 -4.21425e-08 5.77234e-08)
(-3.44129e-08 -2.42664e-08 -1.25489e-07 -4.43709e-11 -1.96429e-08 3.45544e-08)
(-4.76296e-08 -2.73319e-08 -9.89175e-08 -7.37685e-09 -1.19718e-08 5.84076e-08)
(-4.99836e-08 -2.55752e-08 -1.85974e-07 -8.76305e-09 -3.97283e-08 7.0371e-08)
(-3.9407e-08 -2.44352e-08 -1.20933e-07 -1.11795e-09 -1.79014e-08 4.12212e-08)
(-1.13535e-06 -4.78831e-08 -2.53524e-07 -1.44127e-06 -8.14184e-08 5.17184e-06)
(-7.84997e-07 1.46989e-08 -5.15305e-07 -9.85152e-07 -1.43049e-07 2.98354e-06)
(-1.69131e-06 -3.44786e-08 -6.6317e-07 -1.31854e-06 -1.53574e-07 4.12065e-06)
(-1.13404e-06 5.68301e-08 -8.97878e-07 -6.45261e-07 -1.84653e-07 2.66432e-06)
(-1.57317e-06 -3.42882e-08 -6.45209e-07 -1.2154e-06 -1.51039e-07 3.78851e-06)
(-1.67385e-06 -3.87778e-08 -4.99022e-07 -1.23415e-06 -1.27138e-07 3.73445e-06)
(-1.80782e-06 -3.95811e-08 -5.15361e-07 -1.34538e-06 -1.29863e-07 4.08428e-06)
(-1.10539e-06 5.52837e-08 -8.89467e-07 -6.23397e-07 -1.83725e-07 2.58416e-06)
(-1.41748e-06 -3.39086e-08 -6.19357e-07 -1.08181e-06 -1.47328e-07 3.36138e-06)
(-1.53404e-06 -3.42093e-08 -6.38927e-07 -1.18156e-06 -1.5016e-07 3.68002e-06)
(-1.03057e-07 -1.657e-08 -1.21445e-06 2.48163e-07 -1.7785e-07 -1.91089e-07)
(-3.956e-07 2.01544e-08 -9.9733e-07 -2.14532e-07 -2.08076e-07 1.02077e-06)
(-3.60623e-07 1.69653e-08 -9.64929e-07 -1.87689e-07 -2.07032e-07 9.13407e-07)
(-4.00548e-07 5.04494e-09 -8.91858e-07 -2.20067e-07 -1.98235e-07 1.0078e-06)
(-7.17368e-07 4.8135e-08 -8.00969e-07 -4.55961e-07 -1.7413e-07 1.87494e-06)
(-4.41696e-07 7.50396e-09 -9.26377e-07 -2.51034e-07 -2.01172e-07 1.12953e-06)
(-5.00574e-07 1.08377e-08 -9.69093e-07 -2.96338e-07 -2.04126e-07 1.3037e-06)
(-7.40056e-07 5.00388e-08 -8.1037e-07 -4.73641e-07 -1.7501e-07 1.94112e-06)
(-4.56805e-07 8.71722e-09 -9.37409e-07 -2.61983e-07 -2.02069e-07 1.17192e-06)
(-6.27845e-07 1.63162e-08 -1.04406e-06 -4.0035e-07 -2.0804e-07 1.6904e-06)
(-9.29647e-07 6.36929e-08 -8.78929e-07 -6.28067e-07 -1.80661e-07 2.50676e-06)
(-5.7953e-07 1.47908e-08 -1.01752e-06 -3.59372e-07 -2.06842e-07 1.53976e-06)
(-1.32149e-07 -1.46296e-08 -1.29952e-06 2.54546e-07 -1.80081e-07 -1.44678e-07)
(-4.09217e-07 2.0957e-08 -1.00818e-06 -2.24476e-07 -2.09112e-07 1.05842e-06)
(-4.46446e-07 2.37733e-08 -1.03784e-06 -2.54457e-07 -2.09504e-07 1.17476e-06)
(-9.05216e-07 6.21226e-08 -8.71063e-07 -6.07546e-07 -1.80053e-07 2.43272e-06)
(-5.16572e-07 1.19612e-08 -9.79219e-07 -3.08421e-07 -2.04795e-07 1.34941e-06)
(-5.62654e-07 1.3743e-08 -1.00826e-06 -3.46187e-07 -2.06297e-07 1.49089e-06)
(-1.62932e-06 -3.8442e-08 -4.9336e-07 -1.19763e-06 -1.26199e-07 3.62032e-06)
(-1.49642e-06 -3.74719e-08 -4.75854e-07 -1.09006e-06 -1.23329e-07 3.28572e-06)
(-1.11541e-06 -3.27934e-08 -5.61591e-07 -8.30293e-07 -1.38748e-07 2.56818e-06)
(-8.82716e-07 4.20055e-08 -8.1537e-07 -4.63282e-07 -1.75213e-07 1.98342e-06)
(-1.22692e-06 -3.32256e-08 -5.84245e-07 -9.21962e-07 -1.42251e-07 2.85545e-06)
(-1.37897e-06 -3.37785e-08 -6.1257e-07 -1.04917e-06 -1.46355e-07 3.25762e-06)
(-9.09825e-07 4.37631e-08 -8.2526e-07 -4.81813e-07 -1.76405e-07 2.05436e-06)
(-1.26461e-06 -3.33614e-08 -5.91545e-07 -9.53237e-07 -1.43316e-07 2.95398e-06)
(-1.10304e-06 -4.74823e-08 -2.53233e-07 -1.4053e-06 -8.10824e-08 5.04638e-06)
(-8.69621e-07 2.95354e-08 -3.34099e-07 -1.36199e-06 -9.37144e-08 4.00508e-06)
(-1.00834e-06 -4.62301e-08 -2.51809e-07 -1.29865e-06 -8.00893e-08 4.6731e-06)
(-7.59448e-07 -2.79176e-08 -2.2864e-07 -1.17455e-06 -6.84234e-08 4.3716e-06)
(-8.44287e-07 -2.81394e-08 -2.30935e-07 -1.28233e-06 -6.96071e-08 4.75816e-06)
(-8.44154e-07 2.88415e-08 -3.3296e-07 -1.32895e-06 -9.3515e-08 3.90308e-06)
(-8.87601e-07 -4.44697e-08 -2.48387e-07 -1.15978e-06 -7.86786e-08 4.18413e-06)
(-9.77557e-07 -4.58059e-08 -2.51086e-07 -1.26356e-06 -7.97385e-08 4.54985e-06)
(-4.43656e-07 -4.43018e-08 -2.92631e-07 -7.86485e-07 -8.3803e-08 1.97945e-06)
(-5.63101e-07 1.84227e-08 -5.03528e-07 -7.17121e-07 -1.48978e-07 2.1486e-06)
(-5.12133e-07 1.55678e-08 -4.9102e-07 -6.60041e-07 -1.49712e-07 1.97146e-06)
(-4.88198e-07 3.766e-09 -4.62532e-07 -6.45436e-07 -1.41687e-07 1.91722e-06)
(-6.66853e-07 3.87736e-08 -4.24948e-07 -9.29828e-07 -1.13027e-07 2.71822e-06)
(-5.42436e-07 5.99388e-09 -4.76508e-07 -7.08609e-07 -1.42656e-07 2.11248e-06)
(-6.15598e-07 8.9862e-09 -4.92095e-07 -7.93504e-07 -1.43182e-07 2.37724e-06)
(-6.89575e-07 4.02997e-08 -4.28787e-07 -9.58426e-07 -1.13237e-07 2.80502e-06)
(-5.59789e-07 7.11953e-09 -4.8049e-07 -7.2968e-07 -1.42865e-07 2.17838e-06)
(-7.66679e-07 1.37742e-08 -5.13751e-07 -9.63988e-07 -1.4307e-07 2.91567e-06)
(-8.79294e-07 5.07436e-08 -4.53198e-07 -1.19042e-06 -1.14257e-07 3.51693e-06)
(-7.08545e-07 1.25049e-08 -5.06826e-07 -9.00023e-07 -1.43182e-07 2.71296e-06)
(-5.25244e-07 -4.8366e-08 -2.93236e-07 -9.00393e-07 -8.06805e-08 2.29051e-06)
(-5.78515e-07 1.91525e-08 -5.05868e-07 -7.35608e-07 -1.49502e-07 2.20858e-06)
(-6.3041e-07 2.16268e-08 -5.15984e-07 -7.92702e-07 -1.48316e-07 2.38719e-06)
(-8.54885e-07 4.95906e-08 -4.5074e-07 -1.16121e-06 -1.14175e-07 3.42655e-06)
(-6.33367e-07 1.00183e-08 -4.95254e-07 -8.14718e-07 -1.43221e-07 2.44414e-06)
(-6.90465e-07 1.15529e-08 -5.04484e-07 -8.78787e-07 -1.43204e-07 2.64544e-06)
(-7.32263e-07 -2.77967e-08 -2.27648e-07 -1.13929e-06 -6.80202e-08 4.24446e-06)
(-6.54113e-07 -2.74695e-08 -2.24125e-07 -1.0356e-06 -6.68785e-08 3.86859e-06)
(-6.6683e-07 -4.07371e-08 -2.35813e-07 -8.95914e-07 -7.56467e-08 3.24426e-06)
(-6.50279e-07 2.20043e-08 -3.18401e-07 -1.06634e-06 -9.15462e-08 3.10117e-06)
(-7.46255e-07 -4.21227e-08 -2.41412e-07 -9.92466e-07 -7.691e-08 3.58996e-06)
(-8.58464e-07 -4.40025e-08 -2.47223e-07 -1.12573e-06 -7.83306e-08 4.06367e-06)
(-6.73487e-07 2.29975e-08 -3.20793e-07 -1.0989e-06 -9.18105e-08 3.19972e-06)
(-7.73645e-07 -4.25898e-08 -2.43087e-07 -1.02532e-06 -7.72801e-08 3.7071e-06)
(-3.75646e-07 -2.67672e-08 -1.97245e-07 -6.29033e-07 -5.97958e-08 2.36169e-06)
(-3.24916e-07 -2.66932e-08 -1.88467e-07 -5.46579e-07 -5.7406e-08 2.04912e-06)
(-3.16216e-07 -3.41165e-08 -1.88255e-07 -4.43064e-07 -6.30527e-08 1.59426e-06)
(-3.24319e-07 1.65099e-09 -2.60182e-07 -5.72713e-07 -8.0842e-08 1.63443e-06)
(-3.72341e-07 -3.52336e-08 -1.99307e-07 -5.18815e-07 -6.64033e-08 1.87363e-06)
(-4.54134e-07 -3.68044e-08 -2.12581e-07 -6.26892e-07 -7.00268e-08 2.26989e-06)
(-3.41966e-07 3.0876e-09 -2.64884e-07 -6.01309e-07 -8.19274e-08 1.71809e-06)
(-3.92057e-07 -3.56156e-08 -2.02825e-07 -5.45105e-07 -6.73986e-08 1.97026e-06)
(-4.71368e-07 2.56788e-09 -4.57748e-07 -6.24669e-07 -1.41222e-07 1.85277e-06)
(-5.14804e-07 2.69699e-08 -3.93262e-07 -7.33913e-07 -1.09953e-07 2.12872e-06)
(-4.19037e-07 1.16422e-10 -4.41465e-07 -5.62694e-07 -1.39385e-07 1.6626e-06)
(-3.0656e-07 -3.7874e-08 -2.75963e-07 -5.84823e-07 -8.58063e-08 1.44268e-06)
(-3.23276e-07 2.29988e-09 -4.27022e-07 -4.38433e-07 -1.43633e-07 1.28667e-06)
(-3.6969e-07 5.96467e-09 -4.46483e-07 -4.92854e-07 -1.45901e-07 1.45197e-06)
(-4.94185e-07 2.51494e-08 -3.88061e-07 -7.06716e-07 -1.09303e-07 2.04761e-06)
(-3.52806e-07 -3.78553e-09 -4.17301e-07 -4.82178e-07 -1.35733e-07 1.41655e-06)
(-4.02836e-07 -1.11735e-09 -4.35872e-07 -5.42406e-07 -1.38608e-07 1.6001e-06)
(-3.93636e-07 -2.67752e-08 -1.99992e-07 -6.57562e-07 -6.05113e-08 2.46918e-06)
(-4.51006e-07 -2.6882e-08 -2.07448e-07 -7.46038e-07 -6.24516e-08 2.80093e-06)
(-6.41283e-07 -4.02867e-08 -2.33675e-07 -8.64447e-07 -7.51558e-08 3.1311e-06)
(-4.96686e-07 1.39489e-08 -2.97484e-07 -8.42553e-07 -8.84226e-08 2.43008e-06)
(-5.67478e-07 -3.89529e-08 -2.2664e-07 -7.72277e-07 -7.34987e-08 2.7985e-06)
(-4.75832e-07 -3.72184e-08 -2.15643e-07 -6.55098e-07 -7.07996e-08 2.37282e-06)
(-4.76072e-07 1.26641e-08 -2.93888e-07 -8.11374e-07 -8.78416e-08 2.33744e-06)
(-5.43847e-07 -3.85096e-08 -2.24019e-07 -7.42351e-07 -7.28731e-08 2.69008e-06)
(-2.31335e-07 -1.19651e-08 -3.59957e-07 -3.31317e-07 -1.2311e-07 9.59686e-07)
(-3.40559e-07 9.80936e-09 -3.40503e-07 -4.99086e-07 -1.01211e-07 1.43365e-06)
(-2.75499e-07 -9.10969e-09 -3.82976e-07 -3.86047e-07 -1.28781e-07 1.12451e-06)
(-2.26793e-07 -3.42671e-08 -2.5713e-07 -4.62392e-07 -8.37254e-08 1.1233e-06)
(-3.09503e-07 1.17274e-09 -4.21062e-07 -4.21041e-07 -1.42112e-07 1.23207e-06)
(-2.65439e-07 -2.60935e-09 -3.99373e-07 -3.68652e-07 -1.38343e-07 1.07386e-06)
(-3.58584e-07 1.17855e-08 -3.47015e-07 -5.23902e-07 -1.02515e-07 1.50655e-06)
(-3.37368e-07 -5.04833e-09 -4.10923e-07 -4.62573e-07 -1.34582e-07 1.35655e-06)
(-2.90031e-07 -7.83178e-09 -3.90136e-07 -4.04741e-07 -1.3041e-07 1.18139e-06)
(-5.47067e-07 -3.05384e-08 -4.07385e-07 -3.8396e-07 -1.08718e-07 1.20145e-06)
(-3.46687e-07 -3.74131e-09 -5.27164e-07 -1.52975e-07 -1.26306e-07 7.0587e-07)
(-4.62396e-07 -3.01974e-08 -3.75422e-07 -3.20145e-07 -1.01191e-07 1.01053e-06)
(-4.06386e-07 -3.02053e-08 -2.63255e-07 -2.78089e-07 -7.63631e-08 8.58819e-07)
(-5.00709e-07 -3.0726e-08 -2.90362e-07 -3.44271e-07 -8.36556e-08 1.05017e-06)
(-3.28327e-07 -5.69531e-09 -5.11893e-07 -1.44143e-07 -1.23049e-07 6.66097e-07)
(-3.59103e-07 -2.97734e-08 -3.30609e-07 -2.42992e-07 -9.00286e-08 7.81283e-07)
(-4.35522e-07 -3.00728e-08 -3.64445e-07 -2.99985e-07 -9.85464e-08 9.50492e-07)
(-5.04824e-08 -2.30904e-08 -5.83736e-07 7.01457e-08 -1.08046e-07 -4.63334e-08)
(-1.09968e-07 -1.90065e-08 -5.25528e-07 -3.4462e-08 -1.37829e-07 2.21133e-07)