/*--------------------------------*- C++ -*----------------------------------*\
| =========                 |                                                 |
| \\      /  F ield         | OpenFOAM: The Open Source CFD Toolbox           |
|  \\    /   O peration     | Version:  2012                                  |
|   \\  /    A nd           | Website:  www.openfoam.com                      |
|    \\/     M anipulation  |                                                 |
\*---------------------------------------------------------------------------*/
FoamFile
{
    version     2.0;
    format      ascii;
    class       pointVectorField;
    location    "0.106/solid";
    object      pointD;
}
// * * * * * * * * * * * * * * * * * * * * * * * * * * * * * * * * * * * * * //

dimensions      [0 1 0 0 0 0 0];


internalField   nonuniform List<vector> 
4493
(
(-5.81391e-06 -1.08034e-05 3.52147e-07)
(-1.08212e-05 -2.20353e-05 3.89633e-07)
(-3.58912e-06 -6.24904e-06 3.03834e-07)
(-8.26893e-06 -1.61955e-05 3.79e-07)
(-1.33776e-05 -2.79874e-05 3.90556e-07)
(-3.61136e-06 -7.01991e-06 1.21369e-06)
(-8.27567e-06 -1.73132e-05 1.5255e-06)
(-1.33778e-05 -2.92331e-05 1.57887e-06)
(-4.6632e-06 -8.39935e-06 3.3092e-07)
(-5.82762e-06 -1.17722e-05 1.41322e-06)
(-7.02174e-06 -1.34184e-05 3.67976e-07)
(-9.53978e-06 -1.90838e-05 3.85933e-07)
(-1.08232e-05 -2.32463e-05 1.57171e-06)
(-1.21033e-05 -2.50122e-05 3.91099e-07)
(-7.03173e-06 -1.44681e-05 1.47912e-06)
(-1.21036e-05 -2.62463e-05 1.57868e-06)
(-4.68102e-06 -9.27508e-06 1.32539e-06)
(-9.54385e-06 -2.02556e-05 1.55524e-06)
(-3.63266e-06 -7.41785e-06 1.68326e-06)
(-8.28221e-06 -1.78878e-05 2.11375e-06)
(-1.33775e-05 -2.98997e-05 2.2134e-06)
(-5.23023e-06 -9.57214e-06 3.42243e-07)
(-5.81895e-06 -1.12933e-05 8.84408e-07)
(-6.41184e-06 -1.20875e-05 3.60702e-07)
(-1.01799e-05 -2.05544e-05 3.88128e-07)
(-1.08218e-05 -2.26429e-05 9.83146e-07)
(-1.14625e-05 -2.35222e-05 3.90578e-07)
(-3.59737e-06 -6.64111e-06 7.60005e-07)
(-4.11531e-06 -7.29013e-06 3.18135e-07)
(-5.84079e-06 -1.22709e-05 1.95911e-06)
(-8.27135e-06 -1.6758e-05 9.54368e-07)
(-7.64145e-06 -1.47899e-05 3.74047e-07)
(-8.90228e-06 -1.76289e-05 3.82928e-07)
(-1.08253e-05 -2.38687e-05 2.17648e-06)
(-1.33775e-05 -2.86133e-05 9.8879e-07)
(-1.27484e-05 -2.65164e-05 3.91331e-07)
(-4.13531e-06 -8.1149e-06 1.27263e-06)
(-4.69811e-06 -9.72639e-06 1.83776e-06)
(-7.04136e-06 -1.5008e-05 2.05e-06)
(-7.64975e-06 -1.58752e-05 1.50458e-06)
(-8.90761e-06 -1.87754e-05 1.54225e-06)
(-9.54784e-06 -2.08579e-05 2.15437e-06)
(-1.21043e-05 -2.68807e-05 2.18539e-06)
(-1.27465e-05 -2.77529e-05 1.57981e-06)
(-4.66979e-06 -8.84338e-06 8.29656e-07)
(-6.42363e-06 -1.30982e-05 1.44877e-06)
(-5.24595e-06 -1.04959e-05 1.37218e-06)
(-7.02539e-06 -1.39479e-05 9.25478e-07)
(-9.5412e-06 -1.96725e-05 9.72886e-07)
(-1.14638e-05 -2.4747e-05 1.57614e-06)
(-1.01828e-05 -2.17477e-05 1.56491e-06)
(-1.21032e-05 -2.56306e-05 9.87509e-07)
(-7.65777e-06 -1.64333e-05 2.08503e-06)
(-6.41616e-06 -1.25979e-05 9.06566e-07)
(-6.43499e-06 -1.36183e-05 2.00817e-06)
(-7.64446e-06 -1.53367e-05 9.41339e-07)
(-1.27454e-05 -2.83877e-05 2.18721e-06)
(-1.14629e-05 -2.41364e-05 9.85912e-07)
(-1.14651e-05 -2.53764e-05 2.18223e-06)
(-1.27458e-05 -2.7133e-05 9.88324e-07)
(-4.15447e-06 -8.54027e-06 1.7648e-06)
(-5.23603e-06 -1.00399e-05 8.58825e-07)
(-4.12272e-06 -7.70894e-06 7.96758e-07)
(-5.26104e-06 -1.09716e-05 1.90243e-06)
(-8.9128e-06 -1.93648e-05 2.13668e-06)
(-1.01809e-05 -2.11534e-05 9.78905e-07)
(-8.90417e-06 -1.82054e-05 9.64798e-07)
(-1.01858e-05 -2.2361e-05 2.16742e-06)
(-3.589e-06 -5.97152e-06 -6.92429e-08)
(-6.4461e-06 -1.17237e-05 -1.51165e-07)
(-8.3253e-06 -1.5803e-05 -1.88357e-07)
(-1.15502e-05 -2.31222e-05 -2.1195e-07)
(-1.34898e-05 -2.76257e-05 -2.10569e-07)
(-3.08636e-06 -5.98229e-06 1.16325e-06)
(-5.84086e-06 -1.04536e-05 -1.35785e-07)
(-4.12154e-06 -6.99257e-06 -8.5755e-08)
(-5.20272e-06 -1.04603e-05 1.42277e-06)
(-3.58198e-06 -7.00229e-06 1.23647e-06)
(-5.7792e-06 -1.17296e-05 1.47296e-06)
(-7.58493e-06 -1.58064e-05 1.5862e-06)
(-1.09037e-05 -2.16338e-05 -2.10848e-07)
(-8.96577e-06 -1.72312e-05 -1.96992e-07)
(-1.00976e-05 -2.16349e-05 1.65602e-06)
(-8.20538e-06 -1.7234e-05 1.61173e-06)
(-1.3421e-05 -2.69766e-05 -6.78968e-07)
(-1.2735e-05 -2.69767e-05 8.67098e-07)
(-1.07338e-05 -2.31229e-05 1.66191e-06)
(-1.26564e-05 -2.7626e-05 1.66468e-06)
(-3.5466e-06 -6.31058e-06 4.50353e-07)
(-6.3841e-06 -1.21803e-05 4.98648e-07)
(-7.0634e-06 -1.30428e-05 -1.65249e-07)
(-6.99832e-06 -1.35188e-05 5.02683e-07)
(-8.25493e-06 -1.63131e-05 5.08378e-07)
(-7.69051e-06 -1.44047e-05 -1.77725e-07)
(-7.62264e-06 -1.48985e-05 5.05811e-07)
(-1.14714e-05 -2.36885e-05 5.20339e-07)
(-1.2195e-05 -2.46136e-05 -2.11838e-07)
(-1.21153e-05 -2.51857e-05 5.22957e-07)
(-1.34087e-05 -2.82054e-05 5.27708e-07)
(-1.28376e-05 -2.61057e-05 -2.11057e-07)
(-1.27572e-05 -2.66819e-05 5.25263e-07)
(-3.15145e-06 -6.32663e-06 1.46703e-06)
(-5.25004e-06 -9.23815e-06 -1.19475e-07)
(-5.78222e-06 -1.08894e-05 4.9332e-07)
(-5.19504e-06 -9.6518e-06 4.86278e-07)
(-4.07466e-06 -7.35784e-06 4.65249e-07)
(-4.67608e-06 -8.08287e-06 -1.0265e-07)
(-4.625e-06 -8.473e-06 4.77073e-07)
(-4.64272e-06 -9.24586e-06 1.36649e-06)
(-5.27566e-06 -1.08994e-05 1.76633e-06)
(-4.71401e-06 -9.66329e-06 1.70239e-06)
(-3.64936e-06 -7.37232e-06 1.55261e-06)
(-4.10164e-06 -8.09156e-06 1.30431e-06)
(-4.17107e-06 -8.48596e-06 1.63112e-06)
(-5.8536e-06 -1.2189e-05 1.82288e-06)
(-6.36984e-06 -1.30478e-05 1.51693e-06)
(-6.44551e-06 -1.35262e-05 1.87205e-06)
(-7.66264e-06 -1.63182e-05 1.94876e-06)
(-6.97244e-06 -1.44089e-05 1.55466e-06)
(-7.04921e-06 -1.49047e-05 1.91395e-06)
(-1.02565e-05 -2.01525e-05 -2.08145e-07)
(-1.08261e-05 -2.21925e-05 5.17712e-07)
(-1.01804e-05 -2.07017e-05 5.15218e-07)
(-8.89318e-06 -1.77561e-05 5.10665e-07)
(-9.61008e-06 -1.86831e-05 -2.03576e-07)
(-9.53555e-06 -1.9221e-05 5.12893e-07)
(-9.46322e-06 -2.0154e-05 1.64615e-06)
(-1.01776e-05 -2.21941e-05 2.02495e-06)
(-9.54287e-06 -2.0704e-05 2.0143e-06)
(-8.28387e-06 -1.77602e-05 1.9768e-06)
(-8.83201e-06 -1.86852e-05 1.63157e-06)
(-8.91115e-06 -1.92241e-05 1.99847e-06)
(-1.08142e-05 -2.36896e-05 2.03122e-06)
(-1.13708e-05 -2.46141e-05 1.66467e-06)
(-1.14514e-05 -2.51863e-05 2.03404e-06)
(-1.27374e-05 -2.82056e-05 2.03444e-06)
(-1.20078e-05 -2.6106e-05 1.66526e-06)
(-1.20886e-05 -2.66822e-05 2.03451e-06)
(-3.65294e-06 -7.71149e-06 1.98745e-06)
(-8.29085e-06 -1.82758e-05 2.49196e-06)
(-1.33754e-05 -3.04785e-05 2.76772e-06)
(-6.07009e-06 -1.0805e-05 -2.63401e-07)
(-5.55693e-06 -1.08076e-05 9.65129e-07)
(-5.52014e-06 -1.01808e-05 3.47368e-07)
(-5.81599e-06 -1.10533e-05 6.22448e-07)
(-6.11124e-06 -1.14392e-05 3.56589e-07)
(-1.1137e-05 -2.20338e-05 -3.38888e-07)
(-1.05052e-05 -2.20342e-05 1.11446e-06)
(-1.05005e-05 -2.12939e-05 3.88958e-07)
(-1.08214e-05 -2.23439e-05 6.91098e-07)
(-1.11419e-05 -2.27783e-05 3.90167e-07)
(-3.59255e-06 -6.44981e-06 5.35472e-07)
(-3.33498e-06 -5.75531e-06 2.96101e-07)
(-3.79493e-06 -6.2517e-06 -1.87398e-07)
(-3.38209e-06 -6.25609e-06 7.93235e-07)
(-3.84934e-06 -6.76081e-06 3.11177e-07)
(-5.85472e-06 -1.26211e-05 2.31127e-06)
(-8.2699e-06 -1.64817e-05 6.71218e-07)
(-7.95434e-06 -1.54889e-05 3.76658e-07)
(-8.56206e-06 -1.61955e-05 -3.16629e-07)
(-7.97535e-06 -1.61968e-05 1.07146e-06)
(-8.58498e-06 -1.69091e-05 3.81086e-07)
(-1.08303e-05 -2.42779e-05 2.56411e-06)
(-1.33775e-05 -2.82993e-05 6.88952e-07)
(-1.30793e-05 -2.72896e-05 3.91434e-07)
(-1.37084e-05 -2.79868e-05 -3.54962e-07)
(-1.30469e-05 -2.79871e-05 1.1353e-06)
(-3.62115e-06 -7.2157e-06 1.44743e-06)
(-3.6035e-06 -6.82929e-06 9.84194e-07)
(-3.35837e-06 -6.49813e-06 1.18184e-06)
(-3.78577e-06 -7.00192e-06 7.39866e-07)
(-3.4343e-06 -7.0179e-06 1.65498e-06)
(-3.87045e-06 -7.55899e-06 1.24394e-06)
(-4.71511e-06 -1.00508e-05 2.16895e-06)
(-7.05248e-06 -1.53793e-05 2.41763e-06)
(-8.2787e-06 -1.75988e-05 1.81878e-06)
(-8.27324e-06 -1.70328e-05 1.23681e-06)
(-7.96185e-06 -1.65908e-05 1.51558e-06)
(-8.53356e-06 -1.72915e-05 8.76954e-07)
(-8.01695e-06 -1.72963e-05 2.13212e-06)
(-8.591e-06 -1.80417e-05 1.53437e-06)
(-9.55442e-06 -2.12584e-05 2.53897e-06)
(-1.21083e-05 -2.72953e-05 2.57367e-06)
(-1.3378e-05 -2.95538e-05 1.88354e-06)
(-1.33777e-05 -2.89232e-05 1.28408e-06)
(-1.30788e-05 -2.85325e-05 1.58031e-06)
(-1.36656e-05 -2.92198e-05 9.21906e-07)
(-1.30901e-05 -2.92198e-05 2.21012e-06)
(-4.94448e-06 -8.97811e-06 3.36765e-07)
(-4.3867e-06 -7.83649e-06 3.24714e-07)
(-4.89585e-06 -8.40156e-06 -2.27194e-07)
(-4.42956e-06 -8.40506e-06 8.86818e-07)
(-4.66593e-06 -8.62629e-06 5.84186e-07)
(-5.82274e-06 -1.15307e-05 1.14583e-06)
(-5.83368e-06 -1.2019e-05 1.68518e-06)
(-6.04934e-06 -1.17523e-05 8.31573e-07)
(-6.12398e-06 -1.24294e-05 1.43166e-06)
(-5.53484e-06 -1.11274e-05 1.3934e-06)
(-5.60425e-06 -1.17622e-05 1.95646e-06)
(-6.71543e-06 -1.27475e-05 3.64494e-07)
(-7.3305e-06 -1.40995e-05 3.71157e-07)
(-7.29812e-06 -1.34192e-05 -2.93747e-07)
(-7.02324e-06 -1.36882e-05 6.51107e-07)
(-6.74476e-06 -1.34211e-05 1.02682e-06)
(-9.85959e-06 -1.98175e-05 3.87125e-07)
(-9.22062e-06 -1.8354e-05 3.84539e-07)
(-9.84611e-06 -1.90829e-05 -3.31466e-07)
(-9.23315e-06 -1.90837e-05 1.0999e-06)
(-9.54033e-06 -1.9383e-05 6.8405e-07)
(-1.08224e-05 -2.29412e-05 1.27433e-06)
(-1.08242e-05 -2.35566e-05 1.87346e-06)
(-1.11041e-05 -2.32233e-05 9.00067e-07)
(-1.11435e-05 -2.39966e-05 1.57419e-06)
(-1.05029e-05 -2.24965e-05 1.56864e-06)
(-1.0542e-05 -2.32247e-05 2.19968e-06)
(-1.1783e-05 -2.42669e-05 3.90883e-07)
(-1.24242e-05 -2.576e-05 3.91245e-07)
(-1.24247e-05 -2.50096e-05 -3.40816e-07)
(-1.21031e-05 -2.5326e-05 6.94052e-07)
(-1.17812e-05 -2.50098e-05 1.11909e-06)
(-7.27303e-06 -1.44473e-05 8.58342e-07)
(-6.78923e-06 -1.44545e-05 2.05947e-06)
(-7.03618e-06 -1.47359e-05 1.76363e-06)
(-7.33963e-06 -1.51674e-05 1.49244e-06)
(-6.72631e-06 -1.37781e-05 1.46457e-06)
(-7.02816e-06 -1.42055e-05 1.19922e-06)
(-1.23904e-05 -2.62228e-05 9.07329e-07)
(-1.18166e-05 -2.62233e-05 2.20586e-06)
(-1.21039e-05 -2.65627e-05 1.88151e-06)
(-1.24236e-05 -2.69963e-05 1.5794e-06)
(-1.17838e-05 -2.54969e-05 1.57761e-06)
(-1.21034e-05 -2.5935e-05 1.28003e-06)
(-4.88041e-06 -9.25618e-06 7.93283e-07)
(-4.47951e-06 -9.26899e-06 1.8217e-06)
(-4.4056e-06 -8.68711e-06 1.29977e-06)
(-4.68888e-06 -9.49785e-06 1.58055e-06)
(-4.67471e-06 -9.05761e-06 1.07468e-06)
(-4.96124e-06 -9.87821e-06 1.34952e-06)
(-9.81506e-06 -2.02331e-05 8.90196e-07)
(-9.27211e-06 -2.0236e-05 2.17732e-06)
(-9.2253e-06 -1.95136e-05 1.54919e-06)
(-9.54571e-06 -2.05555e-05 1.85405e-06)
(-9.54235e-06 -1.99609e-05 1.26094e-06)
(-9.86309e-06 -2.10005e-05 1.56046e-06)
(-6.72424e-06 -1.25985e-05 1.48782e-07)
(-7.97563e-06 -1.53375e-05 1.38555e-07)
(-1.18374e-05 -2.41372e-05 1.30427e-07)
(-1.31235e-05 -2.71287e-05 1.33482e-07)
(-5.51715e-06 -1.004e-05 1.60042e-07)
(-4.37321e-06 -7.70843e-06 1.69211e-07)
(-4.95305e-06 -1.00493e-05 1.56082e-06)
(-3.86988e-06 -7.7203e-06 1.42757e-06)
(-6.10669e-06 -1.26055e-05 1.66745e-06)
(-7.31229e-06 -1.53424e-05 1.74706e-06)
(-1.05455e-05 -2.11542e-05 1.29056e-07)
(-9.25431e-06 -1.82062e-05 1.31626e-07)
(-9.81583e-06 -2.11559e-05 1.83119e-06)
(-8.55337e-06 -1.82093e-05 1.80068e-06)
(-1.10882e-05 -2.41379e-05 1.84351e-06)
(-1.23638e-05 -2.71289e-05 1.84491e-06)
(-3.38076e-06 -6.88182e-06 1.63919e-06)
(-3.89067e-06 -7.97083e-06 1.72511e-06)
(-4.17308e-06 -8.84987e-06 2.08326e-06)
(-7.66761e-06 -1.68135e-05 2.45852e-06)
(-7.96911e-06 -1.71573e-05 2.10015e-06)
(-8.59685e-06 -1.86239e-05 2.12591e-06)
(-8.92036e-06 -1.97595e-05 2.51855e-06)
(-1.27473e-05 -2.88012e-05 2.57662e-06)
(-1.30767e-05 -2.91684e-05 2.19e-06)
(-5.47506e-06 -9.57405e-06 -2.45904e-07)
(-4.98451e-06 -9.57713e-06 9.27984e-07)
(-5.23263e-06 -9.81099e-06 6.04575e-07)
(-6.11402e-06 -1.12936e-05 1.54462e-07)
(-6.11592e-06 -1.19396e-05 8.95904e-07)
(-5.52556e-06 -1.06598e-05 8.72055e-07)
(-5.52227e-06 -1.13018e-05 1.61752e-06)
(-6.67855e-06 -1.20887e-05 -2.79428e-07)
(-6.41362e-06 -1.23477e-05 6.37917e-07)
(-6.14444e-06 -1.2091e-05 9.98104e-07)
(-1.04914e-05 -2.05531e-05 -3.36014e-07)
(-9.86808e-06 -2.05537e-05 1.10871e-06)
(-1.01802e-05 -2.08587e-05 6.88195e-07)
(-1.1192e-05 -2.26437e-05 1.29344e-07)
(-1.11424e-05 -2.33894e-05 9.84694e-07)
(-1.05013e-05 -2.18974e-05 9.81229e-07)
(-1.04514e-05 -2.26448e-05 1.83922e-06)
(-1.17817e-05 -2.35204e-05 -3.40362e-07)
(-1.14626e-05 -2.3834e-05 6.92977e-07)
(-1.11432e-05 -2.35206e-05 1.11771e-06)
(-3.34366e-06 -6.13344e-06 7.40149e-07)
(-3.83119e-06 -6.64017e-06 1.71898e-07)
(-3.36094e-06 -6.65338e-06 1.35138e-06)
(-3.85716e-06 -7.16644e-06 7.78871e-07)
(-4.33495e-06 -7.29259e-06 -2.07584e-07)
(-3.89456e-06 -7.29653e-06 8.41826e-07)
(-4.11839e-06 -7.50438e-06 5.61181e-07)
(-5.27647e-06 -1.13095e-05 2.24482e-06)
(-6.44747e-06 -1.39797e-05 2.36872e-06)
(-6.13623e-06 -1.29389e-05 1.98457e-06)
(-5.54896e-06 -1.16148e-05 1.93175e-06)
(-7.95705e-06 -1.60437e-05 9.48193e-07)
(-8.61254e-06 -1.67589e-05 1.34582e-07)
(-7.92934e-06 -1.67628e-05 1.77698e-06)
(-8.58713e-06 -1.74788e-05 9.59892e-07)
(-7.92665e-06 -1.47903e-05 -3.06184e-07)
(-7.64267e-06 -1.50683e-05 6.62157e-07)
(-7.35574e-06 -1.47919e-05 1.05125e-06)
(-9.20247e-06 -1.76284e-05 -3.25043e-07)
(-8.60173e-06 -1.76294e-05 1.0876e-06)
(-8.90303e-06 -1.7922e-05 6.78456e-07)
(-1.01915e-05 -2.27663e-05 2.5539e-06)
(-1.14695e-05 -2.57887e-05 2.57041e-06)
(-1.11452e-05 -2.46228e-05 2.17973e-06)
(-1.05054e-05 -2.31146e-05 2.17241e-06)
(-1.30761e-05 -2.79065e-05 9.88865e-07)
(-1.37569e-05 -2.8623e-05 1.45585e-07)
(-1.29982e-05 -2.86237e-05 1.85072e-06)
(-1.30703e-05 -2.651e-05 -3.41131e-07)
(-1.27465e-05 -2.68277e-05 6.94273e-07)
(-1.27486e-05 -2.62073e-05 9.39188e-08)
(-1.24228e-05 -2.65102e-05 1.11977e-06)
(-4.32253e-06 -8.09646e-06 7.68691e-07)
(-4.14411e-06 -8.32454e-06 1.51768e-06)
(-4.12823e-06 -7.9105e-06 1.03194e-06)
(-3.9457e-06 -8.11083e-06 1.74232e-06)
(-4.42372e-06 -9.12564e-06 1.80234e-06)
(-4.97732e-06 -1.03419e-05 1.87111e-06)
(-7.34844e-06 -1.57166e-05 2.06834e-06)
(-6.73679e-06 -1.43083e-05 2.02996e-06)
(-7.89973e-06 -1.5854e-05 8.68476e-07)
(-7.65346e-06 -1.61524e-05 1.79392e-06)
(-7.64677e-06 -1.56034e-05 1.21986e-06)
(-7.39875e-06 -1.58599e-05 2.09945e-06)
(-9.17259e-06 -1.87533e-05 8.841e-07)
(-8.91002e-06 -1.90686e-05 1.83866e-06)
(-8.90567e-06 -1.84874e-05 1.2504e-06)
(-8.64196e-06 -1.87571e-05 2.1579e-06)
(-9.22987e-06 -2.01097e-05 2.14614e-06)
(-9.86653e-06 -2.16086e-05 2.16144e-06)
(-1.24238e-05 -2.76317e-05 2.18632e-06)
(-1.17848e-05 -2.61291e-05 2.18408e-06)
(-1.30338e-05 -2.77271e-05 9.09627e-07)
(-1.27451e-05 -2.80673e-05 1.88284e-06)
(-1.27465e-05 -2.74404e-05 1.28118e-06)
(-1.24569e-05 -2.77273e-05 2.20563e-06)
(-4.93605e-06 -8.84323e-06 1.65107e-07)
(-4.95067e-06 -9.43418e-06 8.44698e-07)
(-4.3937e-06 -8.26811e-06 8.13681e-07)
(-4.40144e-06 -8.8538e-06 1.49745e-06)
(-6.6555e-06 -1.3078e-05 8.46178e-07)
(-6.41943e-06 -1.28459e-05 1.17463e-06)
(-6.42887e-06 -1.3356e-05 1.72751e-06)
(-6.19035e-06 -1.30864e-05 2.01188e-06)
(-5.45684e-06 -1.04765e-05 8.14095e-07)
(-5.24037e-06 -1.02661e-05 1.11258e-06)
(-5.25289e-06 -1.0731e-05 1.6363e-06)
(-5.03318e-06 -1.04878e-05 1.89309e-06)
(-7.34551e-06 -1.39486e-05 1.43373e-07)
(-6.71941e-06 -1.32676e-05 9.16416e-07)
(-7.33382e-06 -1.46378e-05 9.33777e-07)
(-6.70408e-06 -1.39545e-05 1.71061e-06)
(-9.89918e-06 -1.96733e-05 1.29782e-07)
(-9.8608e-06 -2.04115e-05 9.76136e-07)
(-9.22226e-06 -1.89368e-05 9.69118e-07)
(-9.1827e-06 -1.96757e-05 1.81857e-06)
(-1.17481e-05 -2.47237e-05 9.04039e-07)
(-1.14633e-05 -2.44382e-05 1.27794e-06)
(-1.14644e-05 -2.50608e-05 1.87861e-06)
(-1.11792e-05 -2.47246e-05 2.2043e-06)
(-1.04594e-05 -2.17249e-05 8.95471e-07)
(-1.01817e-05 -2.14473e-05 1.26879e-06)
(-1.01842e-05 -2.20533e-05 1.86547e-06)
(-9.90591e-06 -2.1727e-05 2.19099e-06)
(-1.24807e-05 -2.56312e-05 1.31958e-07)
(-1.17831e-05 -2.48835e-05 9.86836e-07)
(-1.24233e-05 -2.63787e-05 9.87975e-07)
(-1.17253e-05 -2.56316e-05 1.84499e-06)
(-3.40188e-06 -7.16702e-06 1.93564e-06)
(-3.53357e-06 -5.75805e-06 -1.77194e-07)
(-3.3386e-06 -5.94904e-06 5.21579e-07)
(-3.85235e-06 -6.47314e-06 -7.74232e-08)
(-3.56882e-06 -6.13226e-06 1.72569e-07)
(-7.97834e-06 -1.75416e-05 2.47613e-06)
(-6.14183e-06 -1.10822e-05 -1.43616e-07)
(-6.37279e-06 -1.14406e-05 -2.71615e-07)
(-6.11317e-06 -1.16944e-05 6.30475e-07)
(-6.41761e-06 -1.194e-05 1.5161e-07)
(-6.75339e-06 -1.23776e-05 -1.58391e-07)
(-6.14942e-06 -1.32949e-05 2.34109e-06)
(-8.24362e-06 -1.5489e-05 -3.1166e-07)
(-7.95544e-06 -1.57713e-05 6.66926e-07)
(-8.64495e-06 -1.65138e-05 -1.9293e-07)
(-8.29336e-06 -1.60445e-05 1.3645e-07)
(-8.00707e-06 -1.50997e-05 -1.83283e-07)
(-1.30722e-05 -2.95763e-05 2.58768e-06)
(-1.12271e-05 -2.23774e-05 -2.11577e-07)
(-1.14595e-05 -2.27766e-05 -3.39774e-07)
(-1.11421e-05 -2.30886e-05 6.92152e-07)
(-1.15149e-05 -2.33901e-05 1.29804e-07)
(-1.18728e-05 -2.38677e-05 -2.12017e-07)
(-1.11499e-05 -2.50337e-05 2.5677e-06)
(-1.34082e-05 -2.72883e-05 -3.50795e-07)
(-1.30774e-05 -2.76001e-05 6.92745e-07)
(-1.37991e-05 -2.82997e-05 -2.59066e-07)
(-1.34509e-05 -2.78942e-05 1.34542e-07)
(-1.31602e-05 -2.68565e-05 -2.10884e-07)
(-3.13512e-06 -5.76267e-06 7.67668e-07)
(-5.77075e-06 -1.01825e-05 -2.54818e-07)
(-4.06217e-06 -6.76338e-06 -1.97542e-07)
(-5.26869e-06 -1.01854e-05 9.4707e-07)
(-3.63535e-06 -6.76753e-06 8.17965e-07)
(-3.331e-06 -6.48339e-06 1.20051e-06)
(-3.11577e-06 -6.14615e-06 1.31099e-06)
(-3.91012e-06 -8.27261e-06 2.03664e-06)
(-5.52238e-06 -1.04253e-05 6.13819e-07)
(-5.5435e-06 -9.83866e-06 -1.27722e-07)
(-5.81377e-06 -1.06601e-05 1.57289e-07)
(-3.85259e-06 -6.96842e-06 5.48669e-07)
(-4.09943e-06 -7.16572e-06 1.7076e-07)
(-4.39623e-06 -7.52932e-06 -9.41834e-08)
(-5.56364e-06 -1.1959e-05 2.2792e-06)
(-5.48905e-06 -1.10885e-05 1.44864e-06)
(-4.92051e-06 -9.84589e-06 1.39538e-06)
(-5.23561e-06 -1.06688e-05 1.59001e-06)
(-3.61242e-06 -7.17825e-06 1.39025e-06)
(-3.83897e-06 -7.53852e-06 1.27108e-06)
(-5.84895e-06 -1.14431e-05 9.82145e-07)
(-7.66459e-06 -1.54905e-05 1.06188e-06)
(-1.08142e-05 -2.12925e-05 -3.37645e-07)
(-8.88175e-06 -1.69089e-05 -3.21089e-07)
(-1.01864e-05 -2.12929e-05 1.11194e-06)
(-8.2878e-06 -1.691e-05 1.08003e-06)
(-5.81272e-06 -1.19476e-05 1.64333e-06)
(-6.07289e-06 -1.2383e-05 1.49573e-06)
(-7.89428e-06 -1.65169e-05 1.5997e-06)
(-7.61983e-06 -1.6049e-05 1.76282e-06)
(-7.27757e-06 -1.51035e-05 1.57119e-06)
(-8.60493e-06 -1.90154e-05 2.50607e-06)
(-1.05008e-05 -2.16004e-05 6.89789e-07)
(-1.05801e-05 -2.0892e-05 -2.09716e-07)
(-1.08688e-05 -2.18982e-05 1.29084e-07)
(-8.58584e-06 -1.71989e-05 6.75054e-07)
(-8.93293e-06 -1.74797e-05 1.32969e-07)
(-9.28756e-06 -1.79546e-05 -2.00541e-07)
(-1.05107e-05 -2.3522e-05 2.55955e-06)
(-1.04155e-05 -2.23783e-05 1.65942e-06)
(-9.78008e-06 -2.08933e-05 1.65163e-06)
(-1.01334e-05 -2.18996e-05 1.83573e-06)
(-8.24059e-06 -1.74832e-05 1.78959e-06)
(-8.51803e-06 -1.7957e-05 1.62234e-06)
(-1.30789e-05 -2.69791e-05 9.43628e-08)
(-1.30856e-05 -2.62017e-05 -6.72524e-07)
(-1.08241e-05 -2.27769e-05 1.11636e-06)
(-1.27507e-05 -2.72885e-05 1.13018e-06)
(-1.2407e-05 -2.62018e-05 8.59509e-07)
(-1.07697e-05 -2.33911e-05 1.84178e-06)
(-1.10522e-05 -2.38683e-05 1.66362e-06)
(-1.29558e-05 -2.83006e-05 1.63878e-06)
(-1.269e-05 -2.78945e-05 1.84498e-06)
(-1.23282e-05 -2.68567e-05 1.66496e-06)
(-3.52614e-06 -6.48037e-06 7.23725e-07)
(-3.36866e-06 -6.68673e-06 1.40947e-06)
(-3.35011e-06 -6.31466e-06 9.58401e-07)
(-3.80768e-06 -6.82548e-06 4.58213e-07)
(-7.3589e-06 -1.60925e-05 2.43904e-06)
(-8.21588e-06 -1.65693e-05 8.729e-07)
(-7.96521e-06 -1.68723e-05 1.807e-06)
(-7.58536e-06 -1.51464e-05 8.63638e-07)
(-7.3437e-06 -1.544e-05 1.77948e-06)
(-6.68981e-06 -1.2844e-05 5.00801e-07)
(-6.35086e-06 -1.24093e-05 8.39207e-07)
(-6.08147e-06 -1.15285e-05 4.96171e-07)
(-6.11945e-06 -1.21823e-05 1.16077e-06)
(-7.03363e-06 -1.32683e-05 1.46021e-07)
(-7.37587e-06 -1.37188e-05 -1.71705e-07)
(-6.98708e-06 -1.27485e-05 -2.86813e-07)
(-6.71707e-06 -1.30126e-05 6.44789e-07)
(-6.96298e-06 -1.37576e-05 8.52539e-07)
(-7.30936e-06 -1.42039e-05 5.04337e-07)
(-6.72243e-06 -1.35205e-05 1.18744e-06)
(-6.74858e-06 -1.46748e-05 2.39421e-06)
(-6.12962e-06 -1.26817e-05 1.70715e-06)
(-6.73114e-06 -1.4041e-05 1.74633e-06)
(-7.93792e-06 -1.56019e-05 5.07145e-07)
(-7.95914e-06 -1.63145e-05 1.22878e-06)
(-8.57343e-06 -1.70315e-05 5.09541e-07)
(-7.65959e-06 -1.46386e-05 1.40872e-07)
(-7.6114e-06 -1.41001e-05 -3.00209e-07)
(-7.33185e-06 -1.43737e-05 6.56891e-07)
(-7.33636e-06 -1.49001e-05 1.21002e-06)
(-1.24274e-05 -2.8047e-05 2.57469e-06)
(-1.33654e-05 -2.85031e-05 9.09991e-07)
(-1.30758e-05 -2.8844e-05 1.88358e-06)
(-1.2711e-05 -2.6972e-05 9.08643e-07)
(-1.24235e-05 -2.73128e-05 1.88233e-06)
(-1.17936e-05 -2.44371e-05 5.21664e-07)
(-1.14263e-05 -2.39735e-05 9.02131e-07)
(-1.11489e-05 -2.29401e-05 5.19015e-07)
(-1.11429e-05 -2.36896e-05 1.27635e-06)
(-1.21593e-05 -2.48843e-05 1.31171e-07)
(-1.25165e-05 -2.53595e-05 -2.11475e-07)
(-1.21034e-05 -2.42648e-05 -3.40691e-07)
(-1.1783e-05 -2.45799e-05 6.93602e-07)
(-1.20695e-05 -2.54736e-05 9.0578e-07)
(-1.24365e-05 -2.59338e-05 5.24173e-07)
(-1.17834e-05 -2.51867e-05 1.27915e-06)
(-1.1789e-05 -2.65427e-05 2.57235e-06)
(-1.11443e-05 -2.43088e-05 1.87635e-06)
(-1.17843e-05 -2.58122e-05 1.8803e-06)
(-1.30796e-05 -2.74348e-05 5.26295e-07)
(-1.30774e-05 -2.82169e-05 1.28246e-06)
(-1.37122e-05 -2.89288e-05 5.38913e-07)
(-1.28016e-05 -2.63781e-05 1.3273e-07)
(-1.2746e-05 -2.57559e-05 -3.40812e-07)
(-1.24235e-05 -2.60735e-05 6.94332e-07)
(-1.24236e-05 -2.66842e-05 1.28064e-06)
(-5.18333e-06 -8.98018e-06 -2.36681e-07)
(-4.61295e-06 -7.83883e-06 -2.17481e-07)
(-4.7047e-06 -8.98346e-06 9.07892e-07)
(-4.15941e-06 -7.84255e-06 8.64786e-07)
(-3.18782e-06 -6.49718e-06 1.60836e-06)
(-3.39726e-06 -6.84074e-06 1.51069e-06)
(-4.05135e-06 -7.54078e-06 7.54839e-07)
(-3.87974e-06 -7.7618e-06 1.48349e-06)
(-4.44152e-06 -9.44278e-06 2.12735e-06)
(-4.59899e-06 -8.66844e-06 7.81489e-07)
(-4.41393e-06 -8.9034e-06 1.55002e-06)
(-5.22448e-06 -9.43419e-06 1.62666e-07)
(-4.9608e-06 -8.65268e-06 -1.111e-07)
(-4.94705e-06 -9.2111e-06 5.94701e-07)
(-5.48664e-06 -1.02636e-05 4.9004e-07)
(-5.75123e-06 -1.11078e-05 8.23221e-07)
(-5.52962e-06 -1.08917e-05 1.12978e-06)
(-4.90772e-06 -9.05474e-06 4.81974e-07)
(-5.16646e-06 -9.85909e-06 8.04137e-07)
(-4.9553e-06 -9.65448e-06 1.09422e-06)
(-4.34721e-06 -7.90719e-06 4.71517e-07)
(-3.86298e-06 -7.3614e-06 1.0087e-06)
(-4.65219e-06 -8.26778e-06 1.67307e-07)
(-4.38961e-06 -8.05719e-06 5.73016e-07)
(-4.39891e-06 -8.47609e-06 1.05392e-06)
(-4.99353e-06 -1.06732e-05 2.20809e-06)
(-5.54134e-06 -1.13685e-05 1.66158e-06)
(-4.96864e-06 -1.01073e-05 1.6093e-06)
(-3.68703e-06 -7.55595e-06 1.69964e-06)
(-4.20996e-06 -8.68202e-06 1.78301e-06)
(-4.6749e-06 -9.44412e-06 1.52996e-06)
(-4.36966e-06 -8.66088e-06 1.33612e-06)
(-4.99265e-06 -1.02743e-05 1.73528e-06)
(-5.31669e-06 -1.11184e-05 1.92578e-06)
(-5.56274e-06 -1.15379e-05 1.79553e-06)
(-4.44005e-06 -9.06696e-06 1.66767e-06)
(-4.75402e-06 -9.87113e-06 1.8584e-06)
(-3.9074e-06 -7.92091e-06 1.59276e-06)
(-4.13299e-06 -8.27899e-06 1.46331e-06)
(-6.44314e-06 -1.27506e-05 1.013e-06)
(-7.04905e-06 -1.41018e-05 1.03957e-06)
(-1.01686e-05 -1.98164e-05 -3.33964e-07)
(-9.52399e-06 -1.83534e-05 -3.28498e-07)
(-9.55027e-06 -1.9817e-05 1.10472e-06)
(-8.91691e-06 -1.83542e-05 1.09421e-06)
(-7.70689e-06 -1.65747e-05 2.11668e-06)
(-7.09278e-06 -1.51529e-05 2.0804e-06)
(-6.14795e-06 -1.28521e-05 1.84838e-06)
(-5.89557e-06 -1.24184e-05 1.98516e-06)
(-6.4039e-06 -1.32747e-05 1.68988e-06)
(-6.66978e-06 -1.37234e-05 1.53657e-06)
(-6.48833e-06 -1.37654e-05 2.03665e-06)
(-6.74602e-06 -1.42107e-05 1.8939e-06)
(-7.35483e-06 -1.56075e-05 1.93223e-06)
(-7.97239e-06 -1.7036e-05 1.96361e-06)
(-7.00696e-06 -1.4644e-05 1.72966e-06)
(-8.85254e-06 -1.80198e-05 8.80675e-07)
(-8.59371e-06 -1.83312e-05 1.82931e-06)
(-9.23692e-06 -2.05074e-05 2.52949e-06)
(-9.4935e-06 -1.94914e-05 8.87263e-07)
(-9.22742e-06 -1.98103e-05 1.84689e-06)
(-1.02223e-05 -2.04124e-05 1.29283e-07)
(-9.93314e-06 -1.94159e-05 -2.06106e-07)
(-9.86005e-06 -2.01193e-05 6.86291e-07)
(-1.05032e-05 -2.14461e-05 5.16444e-07)
(-1.07818e-05 -2.24736e-05 8.97848e-07)
(-1.0502e-05 -2.21936e-05 1.27182e-06)
(-9.85775e-06 -1.99597e-05 5.14037e-07)
(-1.01371e-05 -2.09779e-05 8.92925e-07)
(-9.8618e-06 -2.07028e-05 1.26518e-06)
(-9.21396e-06 -1.84862e-05 5.11775e-07)
(-8.58882e-06 -1.77574e-05 1.244e-06)
(-9.57646e-06 -1.89377e-05 1.30562e-07)
(-9.22126e-06 -1.86503e-05 6.81446e-07)
(-9.22358e-06 -1.92222e-05 1.25602e-06)
(-9.87267e-06 -2.20115e-05 2.54707e-06)
(-1.05041e-05 -2.28045e-05 1.86986e-06)
(-9.8647e-06 -2.13033e-05 1.86022e-06)
(-8.32871e-06 -1.80241e-05 2.14584e-06)
(-8.95649e-06 -1.94947e-05 2.16837e-06)
(-9.49888e-06 -2.04144e-05 1.8255e-06)
(-9.14713e-06 -1.94178e-05 1.63949e-06)
(-9.85995e-06 -2.14481e-05 2.02023e-06)
(-1.02237e-05 -2.24753e-05 2.1959e-06)
(-1.04957e-05 -2.29415e-05 2.02858e-06)
(-9.22655e-06 -1.99624e-05 2.00708e-06)
(-9.58864e-06 -2.09803e-05 2.18482e-06)
(-8.59686e-06 -1.84898e-05 1.9884e-06)
(-8.86748e-06 -1.89404e-05 1.81032e-06)
(-1.14622e-05 -2.4265e-05 1.11859e-06)
(-1.21005e-05 -2.5756e-05 1.11931e-06)
(-1.27874e-05 -2.85032e-05 2.20519e-06)
(-1.21355e-05 -2.69723e-05 2.20589e-06)
(-1.11328e-05 -2.4438e-05 2.033e-06)
(-1.08605e-05 -2.39746e-05 2.20244e-06)
(-1.14068e-05 -2.48848e-05 1.84453e-06)
(-1.16892e-05 -2.53599e-05 1.66517e-06)
(-1.1498e-05 -2.54742e-05 2.20539e-06)
(-1.177e-05 -2.59342e-05 2.03449e-06)
(-1.24094e-05 -2.7435e-05 2.03435e-06)
(-1.30431e-05 -2.89289e-05 2.03961e-06)
(-1.20438e-05 -2.63784e-05 1.84505e-06)
(-1.32836e-05 -2.99134e-05 2.43597e-06)
(-1.30686e-05 -2.75149e-05 6.33233e-07)
(-1.31195e-05 -2.99267e-05 2.81481e-06)
(-1.30613e-05 -2.78305e-05 9.5138e-07)
(-3.64133e-06 -6.86922e-06 9.47141e-07)
(-3.584e-06 -6.65902e-06 8.13668e-07)
(-8.3438e-06 -1.71244e-05 1.15763e-06)
(-7.40076e-06 -1.4981e-05 1.13614e-06)
(-6.1086e-06 -1.19736e-05 9.45393e-07)
(-7.0211e-06 -1.39885e-05 9.72676e-07)
(-6.17543e-06 -1.22499e-05 1.09693e-06)
(-7.09046e-06 -1.4283e-05 1.12757e-06)
(-8.27155e-06 -1.68088e-05 9.99348e-07)
(-7.33062e-06 -1.46809e-05 9.80299e-07)
(-1.34842e-05 -2.90842e-05 1.19863e-06)
(-1.25131e-05 -2.6816e-05 1.20287e-06)
(-1.11525e-05 -2.34654e-05 1.03093e-06)
(-1.21156e-05 -2.57132e-05 1.03566e-06)
(-1.1229e-05 -2.38131e-05 1.19493e-06)
(-1.21928e-05 -2.60664e-05 1.2013e-06)
(-1.34299e-05 -2.87719e-05 1.02208e-06)
(-1.2436e-05 -2.6462e-05 1.03676e-06)
(-3.33802e-06 -6.8852e-06 1.73447e-06)
(-3.37502e-06 -6.66805e-06 1.35209e-06)
(-3.90272e-06 -7.40445e-06 9.689e-07)
(-4.72037e-06 -9.1098e-06 1.02595e-06)
(-5.81072e-06 -1.13253e-05 9.34684e-07)
(-4.94002e-06 -9.4607e-06 8.97096e-07)
(-3.8442e-06 -7.18609e-06 8.32626e-07)
(-4.65846e-06 -8.86816e-06 8.82602e-07)
(-5.87663e-06 -1.15951e-05 1.08487e-06)
(-5.00298e-06 -9.70969e-06 1.0424e-06)
(-3.58823e-06 -7.41963e-06 1.78215e-06)
(-4.37403e-06 -9.12263e-06 1.91242e-06)
(-5.54509e-06 -1.1331e-05 1.60232e-06)
(-4.69413e-06 -9.46754e-06 1.52097e-06)
(-3.62744e-06 -7.19467e-06 1.38921e-06)
(-4.41955e-06 -8.87543e-06 1.49054e-06)
(-5.49188e-06 -1.1605e-05 2.05631e-06)
(-4.6466e-06 -9.72176e-06 1.95158e-06)
(-7.89684e-06 -1.71293e-05 2.24527e-06)
(-6.97473e-06 -1.49876e-05 2.18923e-06)
(-5.8368e-06 -1.19789e-05 1.62616e-06)
(-6.73206e-06 -1.39926e-05 1.68809e-06)
(-5.78181e-06 -1.22591e-05 2.087e-06)
(-6.67207e-06 -1.42903e-05 2.1667e-06)
(-7.96264e-06 -1.68116e-05 1.74932e-06)
(-7.03627e-06 -1.46846e-05 1.70562e-06)
(-8.66137e-06 -1.78526e-05 1.16356e-06)
(-9.62057e-06 -2.00672e-05 1.17829e-06)
(-1.0831e-05 -2.27162e-05 1.02883e-06)
(-9.86675e-06 -2.04765e-05 1.02071e-06)
(-8.58849e-06 -1.75324e-05 1.00456e-06)
(-9.54603e-06 -1.97345e-05 1.0173e-06)
(-1.09071e-05 -2.30616e-05 1.19226e-06)
(-9.94177e-06 -2.08128e-05 1.18232e-06)
(-8.20811e-06 -1.7857e-05 2.26027e-06)
(-9.15057e-06 -2.00701e-05 2.2951e-06)
(-1.04942e-05 -2.27171e-05 1.80938e-06)
(-9.53844e-06 -2.0478e-05 1.79529e-06)
(-8.2752e-06 -1.75349e-05 1.76106e-06)
(-9.22109e-06 -1.97362e-05 1.78853e-06)
(-1.04201e-05 -2.3063e-05 2.32087e-06)
(-9.46692e-06 -2.08153e-05 2.30358e-06)
(-1.29803e-05 -2.90843e-05 2.32628e-06)
(-1.20138e-05 -2.68163e-05 2.32943e-06)
(-1.08134e-05 -2.3466e-05 1.81228e-06)
(-1.17714e-05 -2.57135e-05 1.81686e-06)
(-1.07387e-05 -2.38142e-05 2.32427e-06)
(-1.16951e-05 -2.60668e-05 2.32912e-06)
(-1.30657e-05 -2.8772e-05 1.83868e-06)
(-1.20907e-05 -2.64622e-05 1.81737e-06)
(-3.60351e-06 -7.24666e-06 1.56527e-06)
(-3.73527e-06 -6.08922e-06 -2.6157e-07)
(-8.25158e-06 -1.76695e-05 1.96446e-06)
(-7.93817e-06 -1.69399e-05 1.9517e-06)
(-6.31393e-06 -1.12316e-05 -3.78023e-07)
(-6.62018e-06 -1.18757e-05 -3.88926e-07)
(-6.10439e-06 -1.27332e-05 1.84497e-06)
(-6.40317e-06 -1.341e-05 1.86669e-06)
(-8.50795e-06 -1.59651e-05 -4.41201e-07)
(-8.18867e-06 -1.52607e-05 -4.34175e-07)
(-1.33681e-05 -2.96637e-05 2.00999e-06)
(-1.30434e-05 -2.89353e-05 2.04211e-06)
(-1.14136e-05 -2.2539e-05 -4.74192e-07)
(-1.17366e-05 -2.32831e-05 -4.75018e-07)
(-1.11185e-05 -2.44078e-05 2.03063e-06)
(-1.14389e-05 -2.51626e-05 2.03382e-06)
(-1.36767e-05 -2.77864e-05 -4.75901e-07)
(-1.33522e-05 -2.70292e-05 -4.75289e-07)
(-3.75629e-06 -5.90966e-06 -5.09659e-07)
(-3.16145e-06 -5.91388e-06 8.84734e-07)
(-6.03618e-06 -1.03738e-05 -6.64907e-07)
(-5.73605e-06 -9.76109e-06 -6.47808e-07)
(-4.0239e-06 -6.40889e-06 -5.31003e-07)
(-4.29713e-06 -6.92601e-06 -5.51902e-07)
(-5.29394e-06 -1.03764e-05 1.09967e-06)
(-5.01011e-06 -9.76386e-06 1.07667e-06)
(-3.40851e-06 -6.41289e-06 9.15154e-07)
(-3.6618e-06 -6.92979e-06 9.44654e-07)
(-3.42101e-06 -7.25687e-06 1.99909e-06)
(-3.18693e-06 -6.09728e-06 1.05884e-06)
(-3.86094e-06 -7.79508e-06 1.6045e-06)
(-4.12423e-06 -8.36009e-06 1.64157e-06)
(-6.0108e-06 -1.06002e-05 -3.66585e-07)
(-5.71111e-06 -9.9823e-06 -3.54651e-07)
(-4.00223e-06 -6.59496e-06 -2.75509e-07)
(-4.27483e-06 -7.11838e-06 -2.89327e-07)
(-5.80899e-06 -1.20681e-05 1.82154e-06)
(-5.51726e-06 -1.14153e-05 1.79633e-06)
(-3.67292e-06 -7.80467e-06 2.05189e-06)
(-3.93089e-06 -8.36908e-06 2.10215e-06)
(-5.32203e-06 -1.06052e-05 1.29697e-06)
(-5.03796e-06 -9.98764e-06 1.2718e-06)