/*--------------------------------*- C++ -*----------------------------------*\
| =========                 |                                                 |
| \\      /  F ield         | OpenFOAM: The Open Source CFD Toolbox           |
|  \\    /   O peration     | Version:  2012                                  |
|   \\  /    A nd           | Website:  www.openfoam.com                      |
|    \\/     M anipulation  |                                                 |
\*---------------------------------------------------------------------------*/
FoamFile
{
    version     2.0;
    format      ascii;
    class       volVectorField;
    location    "0.106/solid";
    object      sigmaMidDir;
}
// * * * * * * * * * * * * * * * * * * * * * * * * * * * * * * * * * * * * * //

dimensions      [1 -1 -2 0 0 0 0];


internalField   nonuniform List<vector> 
3125
(
(-0.137496 0.989974 0.0323336)
(-0.16385 0.986056 0.0291024)
(-0.177057 0.984036 0.0179794)
(-0.181589 0.9833 -0.0120943)
(0.0160011 -0.277371 0.96063)
(0.984956 -0.150843 0.0843079)
(-0.161301 0.986451 0.0299387)
(-0.14058 0.989542 0.0323048)
(0.976744 -0.176265 0.12207)
(0.984349 -0.15242 0.0884597)
(0.974831 -0.182621 0.127881)
(0.946488 -0.265983 0.182795)
(-0.182117 0.983246 -0.00780778)
(-0.178237 0.983865 0.015532)
(0.778364 -0.549304 0.303998)
(0.938236 -0.286743 0.19363)
(0.00789401 -0.290105 0.956962)
(-0.00590258 -0.16908 0.985585)
(0.728272 -0.602674 0.326196)
(0.0106064 -0.146585 0.989141)
(0.0214925 0.998224 0.0555633)
(0.0416266 0.997187 0.0623351)
(-0.129389 0.989971 0.056703)
(-0.0850697 0.994328 0.0638344)
(-0.0462062 0.996728 0.0663131)
(-0.17057 0.985016 0.0254696)
(-0.0939894 0.993635 0.0620925)
(-0.0419074 0.997029 0.0646227)
(-0.0792285 0.994783 0.0642655)
(-0.153105 0.986968 0.049519)
(-0.172448 0.98473 0.0238293)
(-0.101253 0.992988 0.0610155)
(0.103201 -0.427117 0.898287)
(-0.25457 0.964371 -0.0719893)
(-0.257127 0.966237 -0.0165076)
(-0.17139 0.984779 -0.0289019)
(-0.261873 0.962251 -0.0741326)
(-0.23737 0.971409 -0.00435793)
(-0.257026 0.964534 -0.0601044)
(0.0673066 -0.345248 0.936095)
(-0.160472 0.986265 -0.0391176)
(-0.255735 0.962749 -0.0878316)
(0.996675 0.0516458 0.0630147)
(0.984354 0.147629 0.0961872)
(0.0186044 0.998247 0.0561894)
(-0.00403067 0.998156 0.0605728)
(-0.15288 0.987736 0.0317065)
(-0.0398812 0.996987 0.0665289)
(0.000326672 0.99782 0.0659881)
(0.0374751 0.997322 0.0627996)
(-0.149871 0.988189 0.0319669)
(0.00545127 0.997825 0.0656876)
(-0.0371887 0.997234 0.0643511)
(-0.00773995 0.998099 0.0611482)
(0.996617 0.0510198 0.0644313)
(0.996151 0.0445307 0.0754935)
(0.980974 -0.162354 0.106446)
(0.986294 0.0961731 0.134068)
(0.985018 0.128099 0.115458)
(0.984402 0.146037 0.0981082)
(0.981998 -0.159176 0.101699)
(0.98489 0.131162 0.113082)
(0.995417 0.0290617 0.091109)
(0.996077 0.0431688 0.0772458)
(0.987523 -0.0736835 0.139171)
(0.993378 -0.00945208 0.114501)
(0.986522 0.0894323 0.137029)
(0.966866 -0.208143 0.147803)
(0.986993 0.0164531 0.159918)
(0.99529 0.0261432 0.0933467)
(0.993758 -0.00340391 0.111505)
(0.965153 -0.185133 0.184948)
(0.963123 -0.219586 0.155486)
(0.986558 0.000588047 0.163409)
(-0.136098 0.989169 0.0549815)
(-0.183702 0.982273 0.0373203)
(-0.181636 0.983358 0.0038323)
(-0.2534 0.967302 -0.0106988)
(-0.216619 0.975998 0.0224641)
(-0.160486 0.985907 0.0472328)
(-0.181029 0.983452 0.00706578)
(-0.210155 0.977315 0.0262545)
(-0.232437 0.97261 0.00141547)
(-0.190439 0.981117 0.0337865)
(0.985825 -0.08733 0.143254)
(0.954492 -0.241811 0.174561)
(0.87831 -0.408528 0.248347)
(-0.58679 0.795012 -0.153733)
(0.770336 -0.615256 0.167459)
(0.956104 -0.225962 0.186565)
(0.898892 -0.371242 0.232751)
(0.801558 -0.572628 0.172055)
(0.792078 -0.576769 0.199875)
(0.944526 -0.275432 0.178909)
(0.0765115 -0.0632854 0.995058)
(-0.470647 0.816548 -0.334277)
(-0.566919 0.808825 -0.156217)
(-0.515643 0.743139 -0.426446)
(-0.429084 0.870603 -0.240703)
(0.759484 -0.618237 0.202402)
(-0.515687 0.804514 -0.29466)
(0.0846756 -0.0502872 0.995139)
(-0.420125 0.760755 -0.494719)
(-0.400052 0.875298 -0.271681)
(-0.0957994 0.995314 0.0131057)
(-0.120155 0.991666 0.0464934)
(-0.177751 0.983911 0.0180171)
(-0.161421 0.986707 0.0187943)
(-0.178405 0.983096 0.0411454)
(-0.166225 0.98569 0.0280212)
(-0.189625 0.981092 0.0387509)
(-0.119835 0.992642 0.0173697)
(-0.127465 0.991679 0.0180579)
(-0.229554 0.973024 0.0230146)
(-0.175708 0.984237 0.0200923)
(-0.22013 0.975072 0.027864)
(0.25323 -0.564523 0.785613)
(-0.364308 0.903345 -0.22638)
(-0.261123 0.965052 -0.0221414)
(-0.18017 0.983488 -0.0170418)
(-0.259013 0.965239 -0.0350151)
(-0.330587 0.943525 -0.0217538)
(-0.359942 0.931996 -0.042721)
(0.0208703 -0.307493 0.951321)
(-0.11031 0.981824 -0.154443)
(-0.154885 0.971056 -0.181825)
(0.99716 -0.0664561 0.0354465)
(0.988293 0.0256351 0.150396)
(-0.0966242 0.995232 0.0133269)
(-0.0995436 0.994935 0.0140113)
(-0.158623 0.986863 0.0306636)
(-0.175169 0.983647 0.0418865)
(-0.163842 0.985522 0.0436084)
(-0.122773 0.991348 0.0464246)
(-0.143677 0.989099 0.0322639)
(-0.132914 0.990049 0.0462356)
(-0.117546 0.99292 0.0171281)
(-0.111658 0.993612 0.0163339)
(0.997068 -0.0673512 0.0363296)
(0.996745 -0.0704723 0.0391489)
(0.978364 -0.170904 0.1166)
(0.930413 -0.323584 0.172119)
(0.959133 -0.223324 0.173755)
(0.988057 0.0172834 0.153114)
(0.983679 -0.154203 0.0927247)
(0.986918 -0.0224625 0.159652)
(0.994427 -0.0909341 0.0533468)
(0.99525 -0.0839569 0.0492863)
(0.979857 -0.181263 0.0838131)
(0.985291 -0.152709 0.0766892)
(0.915642 -0.364122 0.170338)
(0.972615 -0.189859 0.134063)
(0.868093 -0.468861 0.163044)
(0.994093 -0.0936885 0.0547831)
(0.992878 -0.103258 0.0594206)
(-0.656625 0.743574 -0.126261)
(0.953159 -0.248176 0.172906)
(-0.696374 0.705485 -0.131731)
(-0.183681 0.982828 0.0176064)
(-0.204228 0.9788 0.0155427)
(-0.182236 0.983248 -0.00370562)
(-0.261 0.965165 -0.0183282)
(-0.258572 0.965957 -0.00826193)
(-0.232218 0.972434 0.021139)
(-0.179301 0.983709 0.0129591)
(-0.240668 0.970487 0.0153094)
(-0.319877 0.947321 -0.01616)
(-0.28788 0.957662 -0.00300461)
(0.977451 -0.192703 0.0863475)
(0.967193 -0.235853 0.0944036)
(0.819314 -0.498129 0.283886)
(-0.504293 0.851534 -0.143453)
(-0.528872 0.838561 -0.130808)
(-0.640623 0.757828 -0.123686)
(0.92803 -0.310696 0.205497)
(-0.609814 0.783143 -0.12171)
(0.784424 -0.60856 0.11972)
(0.864355 -0.48922 0.116418)
(-0.140531 0.974988 -0.17219)
(-0.108172 0.708873 -0.696992)
(0.328088 -0.195758 0.924141)
(-0.379524 0.677182 -0.630385)
(-0.494009 0.856698 -0.148403)
(0.668169 -0.655674 0.351626)
(-0.463098 0.869296 -0.172813)
(0.754056 -0.645623 0.12071)
(-0.664405 0.736298 -0.128185)
(0.0406072 -0.085663 0.995496)
(0.10203 -0.515849 0.850582)
(-0.213538 0.818306 -0.533645)
(-0.114612 0.993315 0.0137287)
(-0.113892 0.992679 0.0402079)
(-0.143926 0.989409 0.0188423)
(-0.156479 0.9875 0.0189142)
(-0.204653 0.978736 0.0139015)
(-0.109817 0.992096 0.0607034)
(-0.190605 0.981545 0.0154395)
(-0.173903 0.984625 0.0165006)
(-0.103499 0.992715 0.0616864)
(-0.186154 0.982393 0.0158038)
(-0.17077 0.984622 0.0368411)
(-0.0659765 0.995693 0.0651327)
(-0.181289 0.982797 0.035287)
(-0.168478 0.985342 0.026758)
(-0.203757 0.978408 0.0346444)
(-0.192849 0.980501 0.0377623)
(-0.072852 0.995253 0.0645317)
(-0.195837 0.980118 0.0318889)
(-0.185357 0.982078 0.0341545)
(-0.140101 0.98996 0.0187577)
(-0.130255 0.991312 0.0182755)
(-0.147643 0.988902 0.0165582)
(-0.0570411 0.996254 0.0649938)
(-0.15647 0.987541 0.0167515)
(-0.17008 0.98529 0.016635)
(-0.062423 0.995935 0.0649431)
(-0.159645 0.987032 0.0167784)
(-0.223208 0.974532 0.0216015)
(-0.130784 0.989864 0.0553697)
(-0.213724 0.976557 0.025649)
(-0.174155 0.984472 0.022009)
(-0.206892 0.977794 0.0333836)
(-0.217207 0.975682 0.0294177)
(-0.123333 0.990727 0.0570059)
(-0.199813 0.97936 0.0304832)
(-0.209981 0.977323 0.0273485)
(-0.38872 0.915643 -0.102444)
(-0.377363 0.908858 -0.17769)
(0.253575 -0.636699 0.728227)
(-0.212446 0.961382 -0.174962)
(-0.285171 0.940925 -0.182589)
(-0.315018 0.946084 -0.075426)
(-0.228126 0.964616 -0.132192)
(-0.297537 0.944675 -0.13806)
(-0.259499 0.965496 -0.0218484)
(-0.265353 0.963464 -0.0364064)
(-0.257971 0.965542 -0.0343495)
(-0.177297 0.983896 -0.0226706)
(-0.241782 0.968448 -0.0604105)
(-0.256815 0.965621 -0.0402631)
(-0.266567 0.962801 -0.0442431)
(-0.242357 0.968321 -0.0601382)
(-0.256369 0.965754 -0.0399291)
(-0.386087 0.918404 -0.0864379)
(-0.368197 0.928324 -0.0514332)
(-0.296608 0.954805 -0.0192744)
(-0.250313 0.967861 -0.0242713)
(-0.308659 0.950584 -0.0334773)
(-0.315913 0.946648 -0.0636848)
(-0.253594 0.966781 -0.0320016)
(-0.311695 0.949367 -0.0393521)
(0.0321402 -0.32242 0.946051)
(-0.187198 0.956693 -0.222925)
(-0.154723 0.970796 -0.183346)
(-0.142034 0.988039 -0.0600397)
(-0.232551 0.970062 -0.069997)
(-0.180851 0.975041 -0.128792)
(-0.211747 0.963651 -0.162911)
(-0.233637 0.969785 -0.0702253)
(-0.18204 0.974806 -0.128897)
(0.985564 -0.165106 0.0374748)
(0.990734 -0.0327443 0.131814)
(-0.116005 0.993151 0.0139022)
(0.00953179 0.998265 0.0581035)
(-0.120494 0.992609 0.0144301)
(-0.104203 0.994443 0.014987)
(-0.100568 0.994828 0.0142537)
(0.00626404 0.998255 0.0587245)
(-0.127326 0.991745 0.015143)
(-0.122109 0.992409 0.0146106)
(-0.155791 0.987297 0.0311987)
(-0.149497 0.987728 0.0452168)
(-0.160655 0.986024 0.0441259)
(-0.1667 0.985286 0.0377293)
(-0.0217227 0.997537 0.0666933)
(-0.156355 0.986945 0.0386447)
(-0.142456 0.989007 0.0396505)
(-0.0159603 0.997652 0.0666043)
(-0.15234 0.987546 0.0393183)
(-0.117378 0.992284 0.0399252)
(0.0245188 0.997638 0.0641628)
(-0.12578 0.991237 0.0403503)
(-0.146782 0.988647 0.0321321)
(-0.146454 0.988169 0.0455271)
(-0.135747 0.989671 0.0460792)
(0.0199399 0.997713 0.0645793)
(-0.138594 0.989536 0.0401352)
(-0.129445 0.99078 0.0399962)
(-0.105453 0.994307 0.0152529)
(-0.10988 0.993815 0.016069)
(-0.144928 0.989305 0.0164529)
(-0.0236982 0.997717 0.0632383)
(-0.137565 0.990363 0.0160283)
(-0.12918 0.991503 0.0153276)
(-0.0195219 0.997838 0.062757)
(-0.135298 0.990678 0.0158634)
(0.98536 -0.16611 0.0383753)
(0.996428 0.0488003 0.0689244)
(0.984636 -0.169683 0.0412296)
(0.9962 -0.0755643 0.043317)
(0.996626 -0.0715894 0.0401396)
(0.996363 0.047866 0.0704963)
(0.983334 -0.176049 0.0453961)
(0.984347 -0.171107 0.0422248)
(0.979759 -0.166328 0.111387)
(0.978952 -0.112991 0.169958)
(0.966125 -0.191393 0.173122)
(0.953661 -0.252873 0.163054)
(0.985661 0.112627 0.12565)
(0.968167 -0.193622 0.158628)
(0.980269 -0.127327 0.151195)
(0.985469 0.117144 0.122998)
(0.972675 -0.170821 0.157239)
(0.990046 -0.0433813 0.133895)
(0.984551 0.140726 0.104188)
(0.987891 -0.0656161 0.140592)
(0.982891 -0.156488 0.0971415)
(0.981529 -0.0916813 0.167912)
(0.986102 -0.0357431 0.162252)
(0.984619 0.138639 0.106321)
(0.98266 -0.109933 0.149315)
(0.986622 -0.0789064 0.142659)
(0.996043 -0.0769634 0.0444382)
(0.995479 -0.0819383 0.0480291)
(0.978919 -0.196665 0.0551465)
(0.995736 0.0362982 0.0848033)
(0.980964 -0.187306 0.0512376)
(0.982941 -0.177943 0.0465029)
(0.995828 0.0382784 0.0828337)
(0.981528 -0.184665 0.0500156)
(0.989708 -0.12574 0.0683142)
(0.986645 -0.144847 0.0745004)
(0.947419 -0.309063 0.082925)
(0.990978 -0.0404742 0.127769)
(0.958059 -0.276127 0.0766564)
(0.967674 -0.242544 0.0691301)
(0.99175 -0.0314884 0.12426)
(0.960867 -0.266749 0.0747019)
(0.945517 -0.281543 0.163494)
(0.987103 0.0647454 0.146406)
(0.920024 -0.355414 0.165035)
(0.969966 -0.198424 0.140694)
(0.790217 -0.594449 0.148955)
(0.846104 -0.508753 0.158995)
(0.987225 0.0545965 0.149686)
(0.867701 -0.470061 0.16167)
(0.906861 -0.388184 0.164065)
(0.990508 -0.120345 0.0664162)
(0.99239 -0.106925 0.0610679)
(0.978099 -0.200319 0.0565175)
(0.994805 0.0157721 0.100566)
(0.975111 -0.213191 0.0608995)
(0.969485 -0.235708 0.0673911)
(0.994599 0.0115932 0.103142)
(0.973913 -0.218164 0.0624375)
(0.730434 -0.667533 0.144449)
(0.980418 -0.0862816 0.177018)
(0.780866 -0.606261 0.150651)
(0.958619 -0.23284 0.163811)
(0.766847 -0.625399 0.144296)
(0.716472 -0.684317 0.135566)
(0.982934 -0.060347 0.173778)
(0.849741 -0.502573 0.159248)
(0.800706 -0.578991 0.15375)
(-0.209584 0.977701 0.0132326)
(-0.156365 0.986494 0.0487801)
(-0.225341 0.974223 0.0105559)
(-0.237595 0.97131 0.0102841)
(-0.211713 0.977223 0.0145977)
(-0.163268 0.985498 0.04624)
(-0.247899 0.968772 0.00517102)
(-0.230795 0.972956 0.00945846)
(-0.182013 0.983296 4.82145e-05)
(-0.252176 0.967676 0.00337994)
(-0.257403 0.966291 -0.00508774)
(-0.25885 0.965753 -0.0178395)
(-0.23973 0.970827 0.00498366)
(-0.256056 0.966626 -0.00830286)
(-0.248646 0.96859 0.00293227)
(-0.234438 0.972083 0.00968506)
(-0.254284 0.967117 -0.00492964)
(-0.226664 0.973777 0.0195664)
(-0.182336 0.982447 0.0394018)
(-0.235338 0.971805 0.014507)
(-0.180218 0.983575 0.0100741)
(-0.250263 0.968159 0.00605472)
(-0.243042 0.969928 0.0130726)
(-0.189488 0.981208 0.0364082)
(-0.246042 0.969242 0.00579039)
(-0.238468 0.971075 0.012096)
(-0.246834 0.969022 0.00837931)
(-0.277048 0.960856 0.00049504)
(-0.291789 0.956359 -0.0153847)
(-0.215673 0.976317 0.017067)
(-0.276341 0.961042 -0.0057917)
(-0.253634 0.967294 0.00342991)
(-0.209687 0.97753 0.0216185)
(-0.270729 0.962651 -0.00311553)
(0.942955 -0.321856 0.0851117)
(0.97792 -0.138698 0.156316)
(0.925833 -0.366565 0.0919972)
(0.940975 -0.321631 0.105448)
(0.962423 -0.253575 0.0971707)
(0.973889 -0.160208 0.160855)
(0.891162 -0.442147 0.101664)
(0.918627 -0.383698 0.0943393)
(0.852172 -0.45101 0.265316)
(-0.561665 0.818247 -0.122493)
(-0.538583 0.832688 -0.128678)
(-0.521581 0.839978 -0.149636)
(-0.655153 0.73966 -0.153875)
(-0.55425 0.820628 -0.139205)
(-0.59965 0.788971 -0.133958)
(-0.681529 0.714943 -0.156124)
(-0.565768 0.813034 -0.137415)
(0.712016 -0.687715 0.14171)
(0.910054 -0.370355 0.186113)
(-0.666794 0.732504 -0.137201)
(0.915141 -0.338775 0.218512)
(-0.572108 0.811022 -0.122208)
(-0.597181 0.793007 -0.120477)
(0.887329 -0.422903 0.183848)
(-0.612595 0.778925 -0.134181)
(-0.651235 0.746684 -0.135485)
(0.930701 -0.349453 0.108067)
(0.885361 -0.450502 0.114821)
(0.7676 -0.62837 0.126257)
(0.876529 -0.440943 0.193044)
(0.821844 -0.557955 0.115144)
(0.879765 -0.463859 0.104153)
(0.89842 -0.39581 0.190198)
(0.838014 -0.533992 0.112187)
(-0.548873 0.809324 -0.209125)
(-0.442117 0.77415 -0.453017)
(0.144395 -0.0562657 0.987919)
(0.183963 -0.690702 0.699348)
(0.304222 -0.593337 0.745252)
(-0.578771 0.763555 -0.286371)
(-0.268879 0.783972 -0.559546)
(-0.397551 0.71301 -0.577555)
(-0.510087 0.846134 -0.154497)
(-0.512194 0.841037 -0.174111)
(-0.473558 0.862674 -0.177585)
(-0.597428 0.704524 -0.383047)
(-0.39876 0.886128 -0.236151)
(-0.44967 0.874129 -0.18356)
(-0.493887 0.849686 -0.184689)
(-0.403885 0.882304 -0.241695)
(-0.459304 0.867997 -0.188733)
(-0.570437 0.801831 -0.177958)
(-0.638097 0.758183 -0.134128)
(0.748531 -0.649981 0.131248)
(-0.65892 0.71973 -0.218662)
(-0.690907 0.706149 -0.15492)
(-0.607966 0.756564 -0.240808)
(-0.625334 0.74589 -0.22936)
(-0.671988 0.721309 -0.167769)
(0.0489141 -0.0807226 0.995536)
(-0.214118 0.786979 -0.578634)
(-0.208801 0.811843 -0.545264)
(-0.294891 0.733107 -0.612857)
(-0.375178 0.889024 -0.262444)
(-0.268183 0.867972 -0.417975)
(-0.269963 0.850552 -0.451309)
(-0.378716 0.885473 -0.269279)
(-0.265408 0.864368 -0.427114)
(-0.596689 0.802332 -0.0150096)
(-0.597513 0.801723 -0.0147793)
(-0.536589 0.843422 -0.0266923)
(-0.540269 0.841087 -0.026127)
(-0.575199 0.817773 -0.0198495)
(-0.573406 0.819022 -0.020208)
(0.334788 0.81575 -0.471667)
(0.344136 0.936335 0.0696213)
(-0.222084 0.974962 -0.0113127)
(-0.164833 0.986316 -0.00325278)
(0.815808 -0.578083 0.0166822)
(0.816616 -0.576951 0.0162888)
(-0.595462 0.803239 -0.0152229)
(-0.59434 0.804065 -0.0154546)
(-0.576627 0.816776 -0.0194835)
(-0.578044 0.815781 -0.0191321)
(0.815052 -0.579136 0.0170866)
(0.814232 -0.580276 0.017504)
(0.805754 -0.591713 0.0252309)
(0.806197 -0.591137 0.0245393)
(0.802816 -0.594763 0.0417395)
(0.802623 -0.595125 0.0402719)
(0.805445 -0.592102 0.025953)
(0.80492 -0.592783 0.0266932)
(-0.531276 0.846763 -0.027169)
(-0.526118 0.84996 -0.0276975)
(-0.269997 0.96271 -0.0170648)
(-0.31287 0.949552 -0.0215092)
(0.803035 -0.594358 0.0432922)
(0.80302 -0.594256 0.044932)
(0.834114 -0.544324 0.0892477)
(0.826064 -0.55736 0.0834694)
(-0.0302375 -0.458925 0.88796)
(-0.00457973 -0.0171494 0.999842)
(-0.10448 -0.325584 0.939723)
(0.320356 0.830423 -0.455817)
(0.440311 0.873167 -0.209058)
(0.845946 -0.524548 0.0960447)
(0.864628 -0.491458 0.104337)
(-0.0417262 0.179199 0.982927)
(0.0206272 -0.125957 0.991821)
(-0.00999042 -0.419734 0.907592)
(0.0140727 0.0274787 0.999523)
(0.0038684 -0.335952 0.941871)
(-0.0625654 -0.164113 0.984455)
(0.00735959 0.0469919 0.998868)
(0.0489823 0.997325 0.054249)
(0.0242309 0.998197 0.0549214)
(-0.217164 0.9761 -0.00824393)
(-0.21746 0.976035 -0.00821034)
(0.0518481 0.997213 0.0536507)
(-0.148429 0.988795 0.0158919)
(-0.0405684 0.997923 0.0500432)
(0.0456541 0.99704 0.0618554)
(-0.172381 0.984966 0.0112586)
(-0.171736 0.98508 0.0111615)
(-0.0371937 0.998069 0.0497535)
(-0.149234 0.988671 0.016062)
(-0.559747 0.82834 -0.0231705)
(-0.556788 0.830319 -0.0236128)
(-0.112728 0.991994 0.056922)
(-0.12281 0.990723 0.0581917)
(-0.21128 0.977394 -0.00783307)
(-0.211317 0.977386 -0.0078346)
(-0.105477 0.992719 0.0581773)
(-0.211637 0.977316 -0.00792121)
(-0.0642971 0.995956 0.062743)
(-0.0911266 0.993829 0.0632469)
(-0.211569 0.977331 -0.00791134)
(-0.0708493 0.99554 0.0623004)
(-0.167038 0.985794 0.0175733)
(-0.11306 0.992297 0.0506374)
(-0.185311 0.982599 0.0126442)
(-0.0526555 0.996428 0.0660137)
(-0.186209 0.982429 0.0126133)
(-0.165862 0.98599 0.0177245)
(-0.11814 0.991727 0.0502033)
(-0.172416 0.98488 0.0168766)
(-0.191793 0.981362 0.0119686)
(-0.0868241 0.994228 0.0630199)
(-0.150129 0.987605 0.0457976)
(-0.190831 0.981548 0.0121392)
(-0.173411 0.984707 0.016739)
(-0.144721 0.988369 0.0467258)
(-0.561778 0.826977 -0.0226907)
(-0.564067 0.825429 -0.0222493)
(-0.0179472 0.997857 0.0629248)
(-0.212592 0.977108 -0.0080825)
(-0.0468622 0.996797 0.0648014)
(-0.212529 0.977121 -0.00811149)
(-0.0231928 0.997734 0.0631515)
(-0.211626 0.977319 -0.00787225)
(-0.0579347 0.996326 0.0630671)
(-0.0734895 0.995202 0.0645914)
(-0.211862 0.977267 -0.00799593)
(-0.0517411 0.996653 0.0632905)
(-0.180508 0.983472 0.0141052)
(-0.193532 0.980495 0.0342655)
(-0.145645 0.987988 0.0516424)
(-0.199204 0.979913 0.00940172)
(-0.198294 0.980093 0.0098585)
(-0.188244 0.981459 0.0360906)
(-0.181363 0.983321 0.0137105)
(-0.175597 0.984331 0.0160718)
(-0.192714 0.981184 0.0117666)
(-0.108529 0.992291 0.0598356)
(-0.155614 0.986805 0.0447278)
(-0.193685 0.980996 0.0115128)
(-0.174457 0.984527 0.0164796)
(-0.161064 0.985981 0.0435848)
(0.161712 0.981422 0.103248)
(0.171302 0.976821 0.128359)
(0.160532 -0.623585 0.765096)
(-0.18297 0.865443 -0.466402)
(-0.20505 0.951819 -0.228026)
(-0.190552 0.978423 -0.0798675)
(-0.188223 0.905063 -0.381358)
(-0.206908 0.97822 -0.0165451)
(-0.250863 0.966425 -0.0555858)
(-0.249626 0.964453 -0.0866961)
(-0.20501 0.97858 -0.0187617)
(-0.246315 0.966733 -0.0689663)
(-0.192411 0.981311 -0.00259146)
(-0.262564 0.964691 -0.0207614)
(-0.211225 0.977422 -0.00550776)
(-0.260411 0.965231 -0.0226977)
(-0.211576 0.977337 -0.00696228)
(-0.19218 0.981359 -0.00100249)
(-0.264143 0.964136 -0.0258897)
(-0.189611 0.981797 -0.0110941)
(-0.209842 0.97754 -0.0195315)
(-0.265401 0.962092 -0.0627775)
(-0.256335 0.96402 -0.0704144)
(-0.21103 0.977337 -0.0166666)
(-0.187403 0.982195 -0.0131329)
(-0.261331 0.963358 -0.060394)
(0.142007 0.986424 0.0824717)
(0.108048 0.992123 0.0633811)
(-0.232124 0.972678 0.00392711)
(-0.210979 0.977442 -0.00971553)
(-0.242196 0.970169 -0.0106929)
(-0.211064 0.977417 -0.0103835)
(-0.23726 0.971445 -0.00153442)
(-0.208046 0.978011 -0.0145138)
(-0.252965 0.966436 -0.0448355)
(-0.257367 0.965036 -0.0496735)
(-0.209341 0.977744 -0.0139052)
(-0.253145 0.966774 -0.0355726)
(-0.152497 0.970612 -0.186166)
(0.0527005 -0.330981 0.942165)
(-0.135494 0.775175 -0.617045)
(-0.165263 0.847062 -0.505148)
(-0.186754 0.967415 -0.170971)
(-0.11714 0.777507 -0.617868)
(-0.156447 0.845494 -0.510553)
(-0.18026 0.983395 -0.0209867)
(-0.207875 0.977884 -0.0230431)
(-0.245986 0.963579 -0.104908)
(-0.248669 0.965059 -0.0826129)
(-0.205009 0.978368 -0.0277065)
(-0.184372 0.982722 -0.0162807)
(-0.237417 0.966432 -0.0981981)
(0.997854 0.0477067 0.0448562)
(0.996734 0.0521757 0.0616303)
(0.982737 -0.184373 0.0153145)
(0.997893 0.0479273 0.0437336)
(0.982872 -0.183715 0.0145648)
(0.994704 -0.10117 0.0181034)
(0.988278 0.104741 0.111066)
(0.98431 0.149122 0.0943164)
(0.986025 -0.165423 0.0197224)
(0.988169 0.107897 0.108999)
(0.986112 -0.165005 0.0188739)
(0.994626 -0.101776 0.0190145)
(0.0459851 0.997436 0.0548425)
(-0.216795 0.976182 -0.00825193)
(0.0156986 0.99826 0.0568362)
(-0.216513 0.976245 -0.00827922)
(0.0429111 0.997539 0.0554413)
(-0.587438 0.809091 -0.0169781)
(-0.588431 0.808375 -0.0166968)
(-0.214722 0.97664 -0.00828207)
(-0.000491453 0.998201 0.0599606)
(0.0221134 0.998018 0.0589198)
(-0.215007 0.976577 -0.0082924)
(0.0258485 0.997962 0.0583493)
(-0.163803 0.986334 0.0176926)
(-0.107981 0.992842 0.0510292)
(-0.184425 0.982765 0.0126588)
(-0.0336607 0.997207 0.0666653)
(-0.164806 0.986166 0.0177459)
(-0.183564 0.982927 0.0126338)
(-0.103027 0.993354 0.0513219)
(-0.158537 0.987199 0.0174561)
(-0.178579 0.983849 0.0122718)
(-0.0751854 0.99582 0.0518564)
(-0.00493294 0.997791 0.0662482)
(-0.157432 0.987376 0.0174162)
(-0.179365 0.983705 0.0123617)
(-0.0795203 0.99548 0.0519177)
(-0.150993 0.9884 0.016343)
(-0.0441162 0.99776 0.0502956)
(-0.172988 0.984858 0.0113727)
(0.0333241 0.997439 0.0632791)
(-0.150051 0.988545 0.0162266)
(-0.173642 0.984742 0.0114864)
(-0.0476058 0.997585 0.0505795)
(-0.155548 0.98768 0.0171055)
(-0.177821 0.983987 0.012174)
(0.0104581 0.997808 0.0653514)
(-0.070881 0.99614 0.051782)
(-0.177086 0.984122 0.0120577)
(-0.156465 0.987532 0.0172813)
(-0.066761 0.996432 0.0516358)
(-0.586038 0.8101 -0.017247)
(-0.584836 0.810962 -0.0175408)
(-0.0128991 0.997953 0.062635)
(-0.212806 0.977061 -0.00811954)
(-0.0325693 0.997416 0.0640282)
(-0.213107 0.976994 -0.00820061)
(-0.00800275 0.998026 0.0622944)
(-0.214367 0.976718 -0.00824175)
(0.0182368 0.998063 0.059473)
(-0.0115366 0.998027 0.0617111)
(-0.214223 0.97675 -0.0082847)
(0.0142418 0.998096 0.0600119)
(0.997817 0.0473851 0.0460043)
(0.982617 -0.184947 0.0160725)
(0.996554 0.0503836 0.0658899)
(0.997778 0.0470315 0.047187)
(0.982483 -0.185587 0.0168526)
(0.810193 -0.585809 0.0203521)
(0.81082 -0.584959 0.0198379)
(0.98167 -0.189334 0.0218241)
(0.996224 0.0457528 0.0737888)
(0.997587 0.0424213 0.0549581)
(0.997617 0.0434662 0.0535827)
(0.981812 -0.188697 0.0209679)
(0.992812 -0.114618 0.0344436)
(0.98852 0.00343215 0.151053)
(0.986058 0.102365 0.131193)
(0.983874 -0.175296 0.0355325)
(0.988838 0.0151104 0.148229)
(0.984089 -0.174316 0.0343811)
(0.992624 -0.115873 0.0356513)
(0.993607 -0.109152 0.028842)
(0.9851 -0.169685 0.0280217)
(0.989113 0.0650428 0.132)
(0.985143 0.124872 0.1179)
(0.989159 0.0587399 0.134587)
(0.993752 -0.108089 0.0278029)
(0.984957 -0.170344 0.0290193)
(0.994447 -0.103149 0.0208639)
(0.988395 0.101319 0.113182)
(0.985945 -0.1658 0.0205795)
(0.98443 0.144504 0.100082)
(0.994548 -0.102357 0.0199313)
(0.988476 0.0980269 0.115354)
(0.985851 -0.166242 0.0214578)
(0.99397 -0.106585 0.0257489)
(0.985228 -0.169101 0.0270441)
(0.984776 0.133963 0.110772)
(0.989031 0.0710991 0.129468)
(0.988945 0.076567 0.126988)
(0.985343 -0.16858 0.0260772)
(0.993865 -0.107309 0.0267682)
(0.809581 -0.586637 0.0208843)
(0.808862 -0.587607 0.0214351)
(0.997316 0.0283521 0.0675078)
(0.995532 0.0317124 0.0889438)
(0.980363 -0.195 0.0293849)
(0.997357 0.0308714 0.0657739)
(0.980544 -0.194239 0.0283619)
(0.981541 -0.189902 0.0226945)
(0.997556 0.0412696 0.0563742)
(0.995998 0.0416892 0.0790535)
(0.997523 0.0400337 0.0578321)
(0.981375 -0.190646 0.0235878)
(0.802957 -0.595125 0.0329521)
(0.802757 -0.595335 0.0340137)
(0.992063 -0.067505 0.106083)
(0.988912 -0.0613561 0.135235)
(0.975105 -0.215101 0.0538656)
(0.993094 -0.0563759 0.102885)
(0.975656 -0.213151 0.0515924)
(0.978119 -0.204043 0.0406148)
(0.996244 -0.00826533 0.0861927)
(0.992929 -0.0160552 0.117617)
(0.995955 -0.0144943 0.0886812)
(0.977786 -0.205319 0.0421673)
(0.992174 -0.118889 0.0381648)
(0.988042 -0.0094322 0.153897)
(0.986721 0.0822086 0.140083)
(0.983651 -0.176302 0.0367229)
(0.987365 -0.0231408 0.156766)
(0.992423 -0.117201 0.036893)
(0.983392 -0.177479 0.0379541)
(0.990756 -0.127841 0.045389)
(0.981425 -0.186128 0.0464814)
(0.987203 0.0308016 0.156466)
(0.974223 -0.145367 0.172508)
(0.978118 -0.11958 0.17025)
(0.98182 -0.184425 0.0449118)
(0.990408 -0.129929 0.0470244)
(0.803154 -0.594915 0.0319364)
(0.803244 -0.594845 0.0309587)
(0.997267 0.0256256 0.0692979)
(0.995147 0.0230048 0.0956705)
(0.980169 -0.195814 0.0304411)
(0.997207 0.0226898 0.0711515)
(0.979949 -0.196735 0.0315413)
(0.978452 -0.202728 0.039151)
(0.996479 -0.0025164 0.0838057)
(0.994081 0.00209367 0.108618)
(0.996669 0.00279444 0.0815067)
(0.978733 -0.201637 0.0377479)
(0.986775 -0.150012 0.0614131)
(0.880811 -0.44046 0.173689)
(0.971956 -0.147996 0.182752)
(0.976641 -0.205471 0.0628765)
(0.900435 -0.397886 0.175795)
(0.977444 -0.202391 0.0603484)
(0.986049 -0.153638 0.0640503)
(0.98957 -0.134904 0.0505269)
(0.981001 -0.187937 0.0481261)
(0.985823 -0.0170961 0.166916)
(0.969183 -0.17391 0.174471)
(0.962859 -0.204656 0.176119)
(0.980517 -0.189998 0.0498619)
(0.990025 -0.132196 0.0487314)
(-0.120085 0.991212 0.0554914)
(-0.211219 0.977408 -0.007823)
(-0.14278 0.988328 0.0531194)
(-0.211283 0.977393 -0.00790815)
(-0.1275 0.990373 0.0538973)
(-0.476865 0.878461 -0.0300962)
(-0.487255 0.872751 -0.0298031)
(-0.211327 0.977382 -0.0081358)
(-0.176967 0.983383 0.040514)
(-0.172833 0.984127 0.0402857)
(-0.21133 0.977381 -0.00808339)
(-0.165334 0.985297 0.0430701)
(-0.191817 0.98143 0.00110227)
(-0.260544 0.965331 -0.015903)
(-0.210839 0.977512 -0.00411687)
(-0.2492 0.968438 -0.00521325)
(-0.191989 0.981397 0.000208826)
(-0.210406 0.97761 -0.00291141)
(-0.258183 0.966029 -0.0113877)
(-0.189415 0.981876 0.00639155)
(-0.206673 0.978404 0.00349935)
(-0.237548 0.971308 0.0114647)
(-0.222893 0.974669 0.0184305)
(-0.188653 0.982015 0.00751357)
(-0.207415 0.97825 0.00259628)
(-0.241696 0.970318 0.00813298)
(-0.18322 0.982993 0.0124517)
(-0.198796 0.97951 0.0322675)
(-0.200059 0.979743 0.00891106)
(-0.167764 0.984808 0.0448197)
(-0.182245 0.983165 0.013171)
(-0.200948 0.979566 0.00836915)
(-0.20394 0.978518 0.0301916)
(-0.187322 0.982257 0.00898687)
(-0.205939 0.978555 0.00435396)
(-0.203406 0.978639 0.0298557)
(-0.23316 0.972328 0.0146562)
(-0.205166 0.978714 0.00510885)
(-0.187987 0.982136 0.00833427)
(-0.228624 0.973356 0.0176057)
(-0.4625 0.886111 -0.0300182)
(-0.446974 0.894049 -0.0298407)
(-0.226696 0.973924 0.00900111)
(-0.211128 0.977413 -0.00944851)
(-0.227134 0.973839 0.00688266)
(-0.211372 0.97736 -0.00943847)
(-0.220888 0.975202 0.0137939)
(-0.211196 0.97741 -0.00807941)
(-0.18028 0.98291 0.0372429)
(-0.197048 0.979935 0.0299996)
(-0.211418 0.97736 -0.00840222)
(-0.187587 0.981661 0.0339543)
(0.990801 -0.0796099 0.109435)
(0.974516 -0.217133 0.0563225)
(0.983746 -0.10242 0.147495)
(0.989263 -0.0927418 0.112954)
(0.973845 -0.219417 0.0590007)
(0.806862 -0.587924 0.0576139)
(0.805721 -0.589726 0.0550989)
(0.967867 -0.237917 0.0814141)
(0.96249 -0.211394 0.170073)
(0.968601 -0.207388 0.137123)
(0.974036 -0.183385 0.132751)
(0.969189 -0.234076 0.0766844)
(0.952027 -0.258414 0.163914)
(-0.543507 0.82674 -0.145261)
(-0.607825 0.779283 -0.152537)
(0.933761 -0.313151 0.173284)
(-0.557973 0.817573 -0.142272)
(0.94047 -0.301467 0.156952)
(0.945542 -0.270131 0.181605)
(0.971571 -0.210266 0.1088)
(0.96364 -0.248214 0.0989322)
(-0.665271 0.732695 -0.143431)
(0.739558 -0.653032 0.163106)
(-0.644611 0.751314 -0.141434)
(0.974014 -0.202286 0.101873)
(0.96107 -0.255373 0.105491)
(0.984302 -0.162039 0.0699511)
(0.858828 -0.482923 0.170882)
(0.97576 -0.208779 0.0655988)
(0.944333 -0.270369 0.187446)
(0.985244 -0.157545 0.0668862)
(0.835309 -0.523606 0.16762)
(0.974758 -0.212482 0.0685494)
(0.977875 -0.188712 0.0902664)
(0.965863 -0.241731 0.0931387)
(0.832249 -0.525529 0.176581)
(-0.68709 0.711765 -0.145935)
(0.709866 -0.688428 0.148851)
(0.967799 -0.235859 0.0879495)
(0.976071 -0.19524 0.0957445)
(0.808179 -0.585839 0.0603294)
(0.809307 -0.58397 0.0632586)
(0.866694 -0.465157 0.180194)
(0.822991 -0.532519 0.197761)
(0.945039 -0.287509 0.155694)
(0.886372 -0.429236 0.173499)
(0.950059 -0.278655 0.140499)
(0.966398 -0.241976 0.0867368)
(0.96201 -0.233375 0.141677)
(0.932187 -0.312283 0.183049)
(0.954101 -0.261243 0.146433)
(0.964658 -0.24663 0.0927868)
(0.743558 0.651988 0.148435)
(0.74138 0.651507 0.160916)
(0.123615 0.0719685 0.989717)
(0.131523 -0.0601198 0.989488)
(-0.0108136 0.314581 0.949169)
(0.12819 0.144238 0.981205)
(-0.0151364 0.331775 0.943237)
(0.570325 -0.420371 0.705704)
(-0.592979 0.699261 -0.399262)
(-0.416403 0.822326 -0.3878)
(-0.527824 0.702951 -0.476719)
(0.400146 -0.441269 0.803222)
(0.926923 -0.29686 0.22954)
(-0.52908 0.835362 -0.149144)
(-0.548031 0.820972 -0.160206)
(0.925514 -0.325841 0.193008)
(-0.514734 0.84338 -0.154142)
(0.937442 -0.282809 0.203032)
(0.915002 -0.33992 0.217316)
(0.756864 -0.390334 0.52421)
(0.661721 -0.457942 0.593645)
(-0.453358 0.864565 -0.216779)
(-0.413681 0.879674 -0.234611)
(-0.435449 0.874943 -0.211799)
(0.755273 -0.434893 0.490338)
(0.658314 -0.412549 0.629623)
(0.755446 0.640511 0.138008)
(0.776913 0.616027 0.130068)
(0.845306 -0.500148 0.187909)
(0.72628 -0.655789 0.206051)
(0.938854 -0.297033 0.174137)
(0.822614 -0.5333 0.197222)
(0.930875 -0.30769 0.196974)
(0.706032 -0.402477 0.582693)
(-0.642744 0.685907 -0.341191)
(-0.554988 0.788282 -0.265706)
(0.682307 -0.667579 0.297985)
(0.795723 -0.383222 0.469005)
(0.0787331 0.529483 0.844659)
(0.0663083 -0.066345 0.995591)
(0.163318 -0.243065 0.956163)
(0.0809487 0.372229 0.924604)
(0.141862 -0.281944 0.948885)
(0.0375065 0.382863 0.923043)
(0.0866217 0.365845 0.926636)