/*--------------------------------*- C++ -*----------------------------------*\
| =========                 |                                                 |
| \\      /  F ield         | OpenFOAM: The Open Source CFD Toolbox           |
|  \\    /   O peration     | Version:  2012                                  |
|   \\  /    A nd           | Website:  www.openfoam.com                      |
|    \\/     M anipulation  |                                                 |
\*---------------------------------------------------------------------------*/
FoamFile
{
    version     2.0;
    format      ascii;
    class       volScalarField;
    location    "0.106/solid";
    object      sigmaHyd;
}
// * * * * * * * * * * * * * * * * * * * * * * * * * * * * * * * * * * * * * //

dimensions      [1 -1 -2 0 0 0 0];


internalField   nonuniform List<scalar> 
3125
(
419.732
-1905.01
-1709.73
-469.143
25.0898
31706.1
-1806.14
-2.14348
21790
30527.1
20498.5
11666.9
-590.446
-1587.59
3610.3
10490.4
132.957
615.515
2891.48
532
32776.5
34746.4
8490.04
12251.2
19587.1
-1990.56
14526.4
17604.9
12856.4
9657.63
-1953.61
13864
-772.143
751.629
2565.49
-205.633
865.593
2467.9
945.234
-661.014
-167.579
669.333
63304
51848.5
31749.4
25011.9
-1281.84
20369
26243
33753.5
-1024.1
27137.3
18354.6
24116.4
61887.1
51991.5
25619.6
33033.6
41101.8
50641.1
26872.2
42278.8
40860.9
50585.8
20426.8
28930.4
31911
16636.1
24338.4
39495.9
30209.3
16472.3
15364.3
23303.6
8018.07
5160.66
-1018.64
2863.01
5358.2
9118
-1166.63
5773.97
2719.61
4810.16
19287.7
11973.3
6211.32
4529.43
9010.48
15563.1
7206.32
9753.1
5366.68
11034.1
-13.1864
890.733
4000.8
1266.51
1182.84
4700.87
1204.49
-12.2824
940.941
916.332
36463.1
18130
8693.38
10153.2
9703.59
-1966.05
8465.18
18205.2
15833.9
4547.19
-1810
5428.49
-401.442
481.191
1183.21
-358.844
795.59
3314.1
2650.1
-340.253
-302.866
-93.7122
95974.1
35315.4
35169.3
31446
-1670.23
10086.1
11445
17603
-385.286
15894
19052.4
21763.1
93893.6
87622.3
23074.2
22929.7
25142.1
34455.9
29328.1
32187.4
62437.8
68714.7
30835
36374.5
22112.5
19207.6
19948.8
60356.7
54167.7
11676.7
12874.1
13570.5
8250.49
7034.71
-725.186
1306.13
1778.68
4309.87
-1456.38
3537.9
3544.87
4272.23
29046.5
23881.2
4407.42
3384.22
4580.56
11001.4
9351.5
9242.81
7062.39
10573.7
39.2946
651.192
-366.604
-610.875
2989.01
2255.83
2033.23
6013.19
3265.5
310.241
780.631
402.173
37346.9
22170.4
12421.4
10685.5
9286.58
10000.1
10899.1
13349.9
10535.9
11478.6
12095.4
17328.3
10617.6
-1990.34
7004.67
8120.53
16605.4
8830.53
10174.2
13052
15099.4
19369.5
15461.7
16932
14019.2
14783.2
16168.2
5787.7
11368.1
6864.04
-1892.67
6697.2
5699.85
11968.7
8429.95
7223.21
1536.52
765.901
-719.16
-81.0364
180.921
1179.12
132.014
445.405
1518.09
1757.9
1032.38
-266.739
377.682
694.216
1516.56
494.475
894.997
1772.46
2434.55
3068.04
1769.07
2325.03
1408.78
1553.81
2090.55
-466.165
-69.0854
-92.0991
-186.3
289.89
3.15561
110.536
377.792
22.63
84344.6
39435.2
36101.1
28763.2
32498.2
26859.9
30260
27799.5
28017.9
31343.4
-1494.45
13345.8
11865.6
12583.6
22802.3
14195.9
16470.7
23641.3
14726.9
21521.7
30844
19528
-724.148
13803.7
15400.4
29898.5
17043.6
18916.6
25784.3
22725.3
20230.7
20716.2
22963.3
26958
21538.4
23924.2
82486.2
57637.6
76898.6
79222.2
85525.2
56224.2
69444.2
75034
24352.5
28222.4
25976.9
25466.7
36449.9
27996.6
31464.6
37603
28889.6
38512.5
47034.3
35892.9
28108.3
29069.7
31332.4
45839.7
32371.9
34976
77119.5
70813.5
54649.4
44997.9
60165.2
67583.1
46388.4
62014.2
44102.8
38272.9
27136.7
23965.3
31930.3
38638.2
25181.7
33575.8
24594
28600.2
22128.1
17917.3
17061.2
19156.2
27518.1
18900.9
21282.7
46084.3
52126.3
52824.5
35452.2
47409.2
40361.5
34124.7
45626.2
12903.6
19305.1
15046.3
14108.8
16299.6
14292.5
20282.1
18089.7
15815.1
8788.79
6701.73
7409.65
5666.19
6668.65
6292.86
5823.58
6986.99
-866.779
2492.85
1926.39
1687.73
3844.64
2279.33
3184.73
4200.37
2482.76
5471.26
7592
4523.63
-1312.6
2667.87
3332.75
7114.24
3424.16
4247.37
5364.65
4531.43
3331.5
3546.02
4179.16
5467.57
3842.39
4482.91
25590.7
16004.3
21130.9
17514.3
22230
14957.7
15644.7
19706.5
5276.59
6471.98
5059.91
3711.62
6288.21
5057.11
7154.17
6929.94
5566.6
12185.9
12948.8
10201.6
8254.62
7025.95
8623.85
12117.8
7742.94
9544.09
16027.8
11858.7
6645.31
7589.48
9669.62
14364.7
8401.4
10775.5
204.095
-547.425
-52.9214
138.807
-165.389
657.999
252.382
-78.0691
3291.98
2598.05
2218.62
1713.37
1047.86
1731.15
2193.66
1126.31
1897.69
644.054
2490.48
5739.83
2941.41
3360.55
1057.46
2439.07
2685.26
224.483
210.146
400.668
721.115
851.697
478.838
334.284
915.85
490.163
60585.8
62360.3
17026.3
17975.8
34088.8
32761.6
-20.0597
156.644
4955.68
4466.52
92552.8
94733.8
58843.3
57117.5
35446.7
36830.5
90373.2
88198
58521.2
60571.7
28344.2
30038.9
56479
54459.5
16112.3
15218.7
5469.94
6008.82
26680.6
25052.4
6460.17
7480.68
658.449
1055.29
903.174
-249.562
-583.596
5491.1
4581.19
972.313
446.892
447.931
990.758
610.83
839.786
952.893
29678.3
33817.3
18519.9
19375.1
30737.5
12583.6
31180.2
35749.7
17226.4
18019.7
32086.8
11910.5
24216.6
23110.2
6872.55
8975.97
2896.49
3077.99
7272.39
4494.76
10044.6
11661.4
4215.3
9535.38
3281.28
17528.9
6934.77
18819.1
6519.84
3588.13
16837
2040.42
4446.67
15204.1
12982.4
4744.54
1848.54
13591.1
25357.1
26521
14858.7
7448.05
16871.6
7006.62
14183.2
4792.39
10575.1
13480.5
5111.48
11125.1
909.424
8615.35
10212.2
2652.78
2823.84
9112.83
831.411
1505.01
4166.37
13217
12387.6
3901.71
1669.09
11805.4
1691.16
1384.3
-1031.26
-541.659
-1213.72
-945.338
-709.647
554.651
730.288
550.563
398.428
530.554
499.958
2277.52
1090.79
2282.07
1028.4
512.663
2023.64
344.838
553.954
1071.35
762.997
656.67
279.405
946.148
2021.47
2371.95
2195.08
1278.3
2224.16
1214.18
2003.24
689.274
919.379
1144.91
804.579
1102.67
-1048.32
-615.97
-465.568
-1282.85
-956.331
-428.866
-1301.64
70.8698
434.038
479.535
586.932
288.456
188.97
416.38
74704
64720
75595
76318.5
77146.5
67850.2
47264.8
53058.7
69656.5
48361.3
71083.2
66520.5
28637.7
17685
30738.2
16872.1
27618.1
47241
48833
12467.9
25923.6
21924.7
13144
22820.8
4250.74
18230.9
7369.6
21165.6
3910.48
7823.27
18947
6276.34
11001.7
23517.4
25362.2
6745.8
10417
22723.1
10615.9
30285.8
16451.8
32771.8
11253.5
15696
29399.1
7743.77
11608.3
28044.8
24320.8
12234.9
7234.5
25138.9
45681.7
44139.9
15555.5
7913.74
19123.5
8401.89
16274.5
11814.9
21052.4
23239.6
11188.4
20201.5
73086.7
74036.2
60469.8
71466.4
72469.7
75263
77400.3
62962.5
53399.5
61712
63339.8
64558.2
45875.8
30174
34163.6
46215
31199.9
47693.6
44473.4
52869.1
56569.5
37506.2
39930
36442.6
54259.6
55094.1
63842
46167.8
68223.7
49435.8
65185.2
45075.2
66784.5
57027.3
58041.3
43461.2
38576.7
39649.1
59510.1
55646.1
73134.9
71017.2
48744.8
42233.4
50098.1
50354.1
51706.4
61362.1
60084.3
49182.4
58456.8
59755.3
40820
38956.9
24491.1
21585.8
25446.5
25881.8
26876.7
35856.7
34649.8
27665.8
33144.6
34320
41673.5
29152.4
30797.9
44738.2
28140.9
43071.8
43265.1
34742.3
34552.6
25385.6
22263.9
23215.7
35984.9
33374.7
42705.2
44616.1
47141.7
38138.8
48491
45545.9
46886.9
37404.7
36170.3
31502.3
37705.3
38963.5
24122.7
15101.7
17398.9
23570.2
15944.8
24883.7
22861.2
30668.1
33130.2
22282.4
21321
20391.8
31719.1
32016.2
6490.14
2728.98
7563.72
2574.83
6124.95
10428.9
11164.1
1890.52
5522.83
4242.83
1979.56
4521.01
516.998
2542.33
1152.12
3176.1
518.512
1210.85
2819.75
513.269
1601.43
4769.96
4957.21
519.168
1527.27
4410.78
698.836
8132.82
2492.91
8593.67
760.95
2343.01
7662.21
533.039
1681.97
6205.61
5139.92
1767.18
524.059
5525.28
9727.66
9045.18
2391.48
1344.24
2984.56
1408.25
2595.02
1808.22
3978.65
4474.86
1735.2
3724.99
23124.1
24037.7
18170.2
21782.7
22652
16041.2
17445.3
14918.2
12940.8
14315.5
15484
16130.8
6996.22
4219.95
5087.6
6272.46
4727.56
7085.33
6210.5
11514.5
12821.6
8303.7
8291.91
7649.21
12525.1
11771.6
20398.4
14272.7
22276.5
14672.3
21619.2
13461.9
21004.6
14641.2
13903.9
10519.2
8980.39
9677.13
15017.5
13568.1
14678.7
13361
6335.77
6071.57
6612.67
7185.79
7495.76
13738.9
13181.8
10124.9
12083.6
12595.3
18.262
-333.324
248.003
22.7877
572.365
170.622
449.891
1087.56
997.296
626.419
698.986
793.532
4770.13
3737.35
3502.54
5503.41
3281.99
5468.85
4780.24
2000.98
1505.76
1485.42
1162.72
1439.23
1912.12
1608.18
446.597
963.88
5533.2
4073.71
5777.14
4778.64
4992.87
1456.03
1360.65
1568.8
1788.23
1891.94
740.184
65.779
51.4302
723.137
133.13
574.887
843.749
1011.43
1161.22
686.331
916.918
705.125
883.35
1276.77
37285.8
37782.3
38662.9
-22086.6
-21448.9
-22303.5
-21954.1
19943.5
18951.1
9008.37
9159.52
9457.96
10421.6
9647.51
9929.65
-17884.5
-18012.9
-18306.9
-17057.8
-17496.3
-16231.2
-17190.5
-17057.3
30180.8
31463.6
18450
17388.1
17621.7
16055.3
16598.4
16825
-11636.7
-10464.5
-11364.4
-11129
-12180.7
-12402
-11481.7
-12695.4
582.564
365.954
-0.881095
-134.304
277.141
1018.18
177.352
670.469
-2700.15
-2940.5
-3023.24
-2438.64
-2356.32
-1849.23
-2284.86
-2087.59
3554.3
4004.2
3944.55
3090.59
3730.27
3306.41
2869.87
3519.11
-893.935
-766.855
-749.618
-893.313
-858.919
-626.814
-677.131
-847.049
-30976.4
48011.5
47699.1
-24321.9
-24071.5
-25105.4
-25408.4
-29724
-30425.3
-29789.1
-29153.8
34915.6
35065.3
36860.4
36757.5
46357.5
46606.9
45131.7
44942.8
102344
98050.7
104562
56419.4
48876.7
50348.6
55436.3
35936.7
33902
34616.1
53733.5
55420.5
32661.4
32065.6
33327.9
-19046.5
-17827.3
-18654.6
-18778.9
-19352.6
-19482.1
-18536.6
-19720.4
-21840.7
-22137.5
-22010.6
-21267.3
-21847
-21007.3
-21892
-21645.7
39673.9
38243.9
19309.7
19927.5
20199.1
22073.6
20832.2
21121.8
100122
91808.1
97894.3
83857.4
86026.6
89716.6
93418.8
95659.5
40472.7
34846
36334.9
39339.3
41531.3
38265.4
36771.1
42656.5
53631.3
48800.2
47319.2
54641.7
52796.9
45701.7
47186.9
51766.6
64715.3
62639.4
66475.9
64525.3
68713.2
73197.7
66617.9
70954.7
-22970.2
-23166.2
-21955.3
-21820.6
-14000.3
-14113.1
-15445.2
-15364.4
33224.5
33027.6
31102.1
31343.7
19302.1
19718.9
21649.2
21245.7
-4324.17
-4499.64
-5496.55
-5306.97
-12782.2
-12649.8
-11313.4
-11466.3
5979.44
6335.17
7693.81
7309.5
17818.9
17390.2
15523.9
15958.7
33522.5
31766.8
32567.3
32652.8
34521.9
38518.7
34500.2
36507.6
37108.7
34369.8
38252.4
32886.9
36002.2
30902.8
32373.8
34855.3
50463.2
52453.3
64246.1
58284.4
62026.9
57612.6
56220.4
59815.2
22368.4
18919.6
20233.9
21287.7
23497.9
22230
20876.8
24603.9
8582.97
7826.58
8174.72
13513.5
14358.9
7422.62
7422.25
7790.75
-3768.74
-3114.47
-3412.17
-3679.25
-4205.07
-4492.27
-3866.43
-4601.41
-10066.1
-10324.1
-10576.1
-9447.95
-9516.73
-8441.33
-9287.12
-9017.4
7150.78
6572.32
4163.07
3781.35
4385.03
4843.97
4025.3
4613.23
30646.4
27291.9
28762.5
21896.8
23456.9
25568.5
25095.4
26911.2
7038.41
5682
6489.92
6347.74
7823.59
7883.05
6991.53
8583.73
19121.8
18274.6
17002.6
20174.8
18035.7
15137.7
16360.3
17017.2
9683.35
8555.11
7008.89
8173.69
8204.13
10783.9
9344.08
9463.73
-3587.46
-3430.47
-2640.75
-2782.88
-632.198
-614.51
-589.468
-684.689
5102.9
4781.4
3728.51
4009.6
1475.36
1348.73
1178.36
1250.05
-822.952
-763.334
-500.795
-495.445
-734.376
-1067.19
-587.524
-963.558
5024.63
5226.16
5640.16
4506.25
4401.02
3476.09
4103.14
3866.27
2938.31
3730.15
5881.78
5030.04
4826.14
2930.09
4112.75
3841.53
977.408
402.39
345.528
1121.54
391.773
1222.5
967.453
1285.13
1442.9
1318.49
1363.66
1146.2
1174.23
1190.53
1181.52
32924.2
38613.5
34084.9
20973.3
22029.9
12649.2
11819.2
12054.1
10940.7
11240.9
11483.3
7868.55
9803
8310.62
9478.53
3482.66
8122.71
3272.45
7689.48
10340.8
9249.73
8770.8
11370.5
12703.5
10809.8
11089.6
3709.73
8574.93
3953.6
9047.17
12078.8
9749.02
10268.8
2996.33
18066.1
5752.76
15498
2733.23
6127.3
16161.1
-15703.5
-14431
-15226
-15386.6
-16162.7
-16312.4
-16630
-15353.3
2253.17
15897
5398.42
14849.1
2484.19
5063.02
14210.9
28937.4
27717.2
13274.5
13707.8
13924.7
15317.9
14391
14606.5
16669.5
18532.5
15927.7
16156.7
6183.65
12896.7
6585.86
13529.4
17719.7
14510.8
15207.8
11953.7
14710.7
12559.7
14122.5
5806.17
12285.8
5449.7
11695.1
15426.9
13838
13187.6
1003.9
10781.8
3211.08
10148.7
3009.99
1109.89
9622.78
-14237.9
-14421
-14735.4
-13472.4
-13727
-12485.4
-13225.8
-13424.7
1358.89
12584.6
3426.59
10686.7
3655.54
1228.34
11239.7
829.81
1097.47
2183.83
1294.42
1922.38
1340.83
1038.52
1639.7
-828.085
-438.84
-533.559
-332.899
-275.994
-155.151
-589.807
-445.118
-127.034
77.2082
-231.836
1034.33
943.229
816.01
348.29
-16.2286
87.4912
208.687
322.804
699.991
336.86
586.742
485.625
2012.51
898.473
1557.31
467.041
965.127
1783.65
-1344.54
-970.5
-1184.31
-1256.88
-1569.53
-1717.84
-1797.52
-1355.43
396.776
1287.89
826.889
1342.53
437.528
747.519
1137.11
3139.87
2745.07
2430.51
1998.03
2659.63
3095.8
2218.79
2880.52
2666.12
2811.97
2453
1991.1
1068.97
1636.23
1144.53
1817.82
2564.06
2040.95
2244.82
1241.93
1633.8
1444.61
1345.67
989.506
1457.61
904.881
1279.97
1860.02
1841.12
1643
-753.818
-273.166
-326.517
-71.7536
-634.626
-467.497
-256.999
-933.591
-912.413
-1035.4
-708.361
-863.442
-575.147
-837.481
-699.572
-69.8587
295.536
-88.3409
89.1272
118.835
-252.308
253.342
-26958
-27392.9
-26437.5
-26065.7
-28269
-27773.7
-28507.5
-29067.2
40285.6
40294.7
38553.7
38599.9
41972.3
41907.7
43461.7
43583.8
81114.5
86200.5
82874.6
31785
34876.9
30668
29741.8
15311.7
25636.3
16080.9
26617.2
33676.1
28498.4
29572.2
52080.2
50445.9
27317
27966.1
28460.3
30835.6
29100.2
29632.1
26852.5
14565.8
24677.2
13842.7
23739.5
24430.8
29102.4
25414.3
27447.9
30210.7
26419.5
-20519
-20674.1
-19748.7
-20824.6
-20313
-19178
-19978.7
-20113.5
4615.78
21976.5
8796.44
20419.9
5000.3
8299.43
19675.8
5828.42
24494.9
9315.98
21174.3
5405.2
9856.2
21942.3
9999.94
31801.6
14249.1
27661.2
14961.7
9406.74
28525.7
-21252.1
-20245.1
-21158.7
-20982.9
-21357.3
-21565
-21595.3
-20666.3
8278.04
28964.6
13557
26809.8
12885
8831.32
25967.1
41139
42629.4
26207.1
24735.8
25124.1
23059.3
23716.9
24076
17435.8
21115.4
18226.4
19909.8
9444.03
17778.4
8912.46
17015.3
22027.2
19877.8
19040.5
23472.7
25921.7
22538.8
22379.8
10001.8
18563.4
10584.5
19371.4
24909.9
20740.2
21627.4
79350.9
80625.4
77584.3
59053.2
68219.6
69322.4
69844
70898.1
78762.4
74042.7
75814.7
81698.3
79549.2
84437.9
81324.2
86686.8
91177.6
83425.6
88935.9
54810.7
66594
67739.9
64967.3
66150.9
66944.9
71306.5
68720.6
72269.1
73169.7
70495.4
45788.5
41994.4
40496.6
46882.9
44794.6
38656.2
43685.7
40152.9
47276.9
35303.9
33278.8
50655.8
32237.7
48679
49174.6
51476.4
38763.6
34327.8
52136.2
35380.8
50078.1
53615.9
62492.6
48233.2
42895.2
63889.6
43982
65339.8
61134.3
48914.8
42287.7
43782.4
47843
49833.4
45513.9
50887.6
44023.4
58401.1
44648.1
41809.3
62434.5
40728.5
60973.9
59771.6
66804.7
68909.3
82189.9
75017.6
79943.8
75445.5
72915.8
77696.9
52805.7
56481.2
54560.8
43613.4
53585.8
54930
51968.1
53317.1
58320.2
58084.8
56320.7
65170.2
65723.9
63396.5
47784.1
55207.6
56540.6
56831.9
58148.2
63867.8
59853.1
61624.4
-19403.1
-19368.6
-20618
-20701.2
-18081.5
-18077.8
-16728.3
-16773.5
27180.1
27499.3
29435.5
29148.5
25549.4
25197.9
23216.1
23594.9
-7720.6
-7533.09
-6384.94
-6570.47
-8742.7
-8928.64
-10183.2
-10004.8
10744.8
10323.7
8763.09
9166.61
11978.9
12411.3
14154.5
13714.9
35306.5
37122.6
46816.4
42139.3
44709.4
40559.3
40196.1
42626.5
26354.6
28708.5
27871.6
22766.5
28728.8
29802.7
27295.4
28329.6
30306.9
30976.8
29412.9
37435.1
36931.1
35793.2
26415.5
30182.8
31292.4
31655.7
32798.2
35243.2
32562.8
34169.1
40278.3
29693.9
26141.7
40333.5
27135.2
38885
41796.4
31443.2
26886.2
28323.9
30300.1
32580.6
30355.8
33729.1
28899.5
36116.1
26446.2
25156.2
38876.6
24181.4
37498.3
37426
48493.2
46546.8
48943.2
48084.7
51091.1
55424.1
50098.3
53252.3
51057.6
51008.9
49317.7
36791.2
42379
43697.7
43958.5
45288.8
49203.3
45863.9
47586.3
39092.9
42102
40767.1
32807.6
40809.5
42111.1
39251.4
40532
43856.6
44152.3
42453.6
25400.5
18344.3
17680.8
27570
16806.2
26217.7
26696.3
28015.5
26286.2
24870.4
29152.6
26869.8
22863.8
25746.5
24250.7
29331.8
21274.9
18570.9
28937.9
19473.6
30321.5
28006.6
7445.17
8309.2
7039.62
7123.35
2302.51
5437.98
2432.66
5773.7
7849.95
6278.91
6650.75
12706.9
11923.1
6136.72
5984.86
6433.79
7076.04
6319.32
6745.19
5899.67
2183.71
5118.21
2076.51
4814.13
4951.6
6194.04
5261.75
5924.08
6580.87
5584.98
-5991.42
-6292.42
-5562.17
-6445.2
-5494.65
-4685.2
-5071.02
-5364.54
519.226
3502.14
1331.86
3417.59
520.603
1272.12
3111.18
513.314
4571.43
1395.38
3734.9
518.168
1460.42
4064.93
649.781
8084.68
2083.29
6765.9
2207.17
610.725
7207.68
-7438.9
-6486.81
-7261.93
-6967.8
-7978.62
-8262.71
-8469.2
-7449.96
552.677
6651.37
1968.79
6338.96
1863.1
577.651
5924.28
7760.23
8393.88
5856.94
5075.53
5586.64
5084.32
4799.23
5330.67
2885.85
3602.84
3113.49
3257.64
1531.98
3022.15
1471.59
2804.43
3886.26
3589.35
3347.59
4655.78
5124.91
4373.07
4152.31
1597.55
3247.36
1665.24
3481.48
4796.75
3840.78
4101.65
24863.4
24073.8
23400.3
17075.2
19176.7
19960
20466.5
21292.4
22586.6
20558
21964.6
20373.9
18892.5
18249.9
19044.9
19897.2
23321.5
20618.2
21591.2
13935.7
17915.9
18654.2
16685.3
17376.7
15255.3
16962
16530.3
19182.4
18316.3
17839.8
11179.7
11009.1
9966.86
12062.1
10263.5
8423.68
9438.6
9393.13
7822.4
5673.99
5822.57
8841.44
5262.45
8688.75
7941.93
10536.8
7598.49
6407.8
9780.14
7015.54
9593.77
10756.9
19199.1
13800.6
11891.9
18532.5
12666.9
19756.3
18021.7
13966.4
11608.5
12716.9
13033.5
14982.8
14504
15961.6
13335.6
15741.3
11307.3
11134.1
17333.8
10396.2
16161.2
16869.1
10858.8
12088.9
16651.6
14589.6
15105.8
12167.3
13199
13611.7
6551.53
7602.08
7478.42
6812.39
9018.87
9405.15
8080.35
8427.77
8610.37
9477.32
8453.8
14018
13125.2
12820.5
9247.65
10000.1
10427.1
11023.1
11491.1
11928.1
10547.6
11663.6
-1427.73
-1511.04
-2088.44
-1969.82
-1065.04
-1030.36
-790.547
-756.484
2125.7
2303.66
3071.37
2836.23
1722.51
1620.62
1328.72
1349.55
-755.675
-589.268
-328.147
-142.222
-679.164
-1049.08
-391.246
-916.696
28.8514
-120.504
-22.291
72.1226
202.292
350.524
171.287
365.024
-176.613
-38.7182
-56.2752
763.583
333.453
450.352
414.38
302.47
425.737
469.098
569.661
87.9158
49.4944
212.84
4117.44
3034.59
2457.1
3477.56
2854.52
3512.46
4104.47
2469.88
1916.81
2338.85
2121.26
2893.42
3134.56
3337.43
2607.47
2451.16
1822.81
2086.91
2901.68
1746.92
2956.01
2379.2
2211.8
1552.01
131.606
1176.83
697.556
2099.84
1794.09
1356.7
5676.76
4888.99
4855.15
3487.29
3419.63
3581.82
4074.17
4259.5
4095.04
3376.54
4087.88
1150.11
1530.87
1609.6
1981.16
2819.55
2958.29
2275.21
2394.9
2074.63
2724.66
2135.35
649.641
120.822
267.64
471.951
188.749
488.905
624.051
1578.92
1733.22
1429.93
1814.82
1404.86
1131.45
1259.8
1347.57
811.068
492.18
382.075
538.434
526.504
674.002
682.819
-602.555
-103.005
-12.2311
-393.806
-331.93
-141.964
-597.982
161.158
-262.421
-104.595
-1006.07
-540.985
-342.535
-1195
-999.462
-375.384
-1256.79
808.972
136.897
294.9
1030.88
931.113
201.159
919.642
-6447.73
12762.9
18756.8
-2995.03
14905.2
-6985.18
-2724.35
-7989.24
7500.06
-5657.98
9255.86
-7821.56
5898.94
-5614.59
-7637.67
-5542.27
8892.59
5310.31
6855.98
-5616.15
-7757.48
-5477.82
2525.11
4851.59
-4025.89
3690.58
-5428.57
-4223.74
-5906.15
-4562.64
5104.93
4133.91
2909.7
-4378.38
-5924.12
-1265.66
863.325
-835.283
1038.22
-1335.22
316.206
-692.475
-1019.11
-453.198
926.284
178.899
666.913
-571.665
-953.689
-868.997
-233.918
-280.369
-1029.73
-224.658
-990.713
-866.558
-676.995
-449.343
-174.957
-168.832
-267.989
-583.034
-607.736
52643.2
32623.2
36017.7
56311.6
31488.5
52035.3
57373.5
-7956.37
6518.28
-5619.56
10554.3
-8152.46
8184.58
-5634.54
-8257.47
-5538.34
8899.34
10956
7175.55
-8014.43
-5557.73
-7391.51
13944.4
-3359.86
16994.5
-6888.54
11864.6
-3596.27
-7264.22
-4117.98
16484.2
10993.9
13018.8
-3918.68
-7715.96
36760.7
21579.7
23618.4
38565.1
20790.8
35958.2
39740
38076.4
42051.7
22116.6
24446.9
22940.5
38859.4
40883.1
50160.5
30152.7
55301.6
33751.2
50794.1
31237.1
54220.4
48904.6
52086.2
32892.6
29853.6
28809.3
53186.1
48238.9
33825.4
19482.3
21429.4
37413.4
20225.7
34639.1
36234.7
32509.2
33899.1
20622.8
18890.8
18181.5
35077.3
31679.9
19873.9
11355.2
12263.2
20226.3
10871.7
19057.7
21316.3
21089.3
23535.8
12963.9
12018.8
12531.9
22418.1
21916.8
-1712.91
466.275
-978.443
1466.83
-1620.05
1085.62
-1145.83
-2027.64
-1489.94
1323.77
1601.89
639.129
-2118.13
-1305.86
-4944.47
3271.19
-3856.42
4024.76
-4999.07
2176.12
-3652.02
-4516.17
-3258.41
3804.04
1850.84
2882.89
-3470.5
-4436.2
6049.04
3650.66
3744.98
5676.68
3429.69
5509.75
6365.27
6837.8
7856.56
4157.73
4183.24
4402.79
7428.8
7096.04
17077.6
9767.44
19151.4
10434.6
17874.5
10210.6
18091.6
15934.2
16025.7
9786.02
9114.63
8700.82
17048.6
15156.4
4320.27
2776
2665.48
5018.78
2965.28
4800.66
4404.57
3696.27
3293.86
2315.79
2361.11
2191.26
3825.77
3278.77
895.255
777.259
389.285
649.632
733.934
813.825
876.56
7607.79
26967
22881.8
1754.06
2176.27
27770.3
7050.42
408.82
15020.4
-2745.24
11578.5
-2818.14
605.332
14417.4
222.059
-2951.25
11113.8
13256.1
-2906.65
57.5162
13834.6
-7091.52
4246.67
-5221.84
7389.7
-5349.7
-7143.69
5669.53
-7480.88
-5512.16
6244.05
7714.66
-7386.52
-5410.57
4762.24
-336.497
11083.1
-3022.02
9280.02
-3037.99
-435.03
11611
-219.982
-3004.79
12698.1
9703.75
-92.5905
-3014.74
12144.5
-740.081
7334.02
6147.16
-2543.66
-2646.14
7762.1
-737.244
-731.732
-2813.86
6485.25
8650.18
-2723.25
-716.866
8196.73
-6772.22
5123.94
-5132.39
6333.13
-6738.35
-4983.69
3770.71
-6354.71
-4699.37
3323.23
6043.37
-6350.91
-4868.51
4613.67
-585.916
10574.8
-3015.2
8005.86
-519.968
-2967.76
10071.2
-644.66
-2868.53
9109.02
7627.2
-685.876
-2935.84
9587.06
106.775
1943.21
-489.514
1344.11
-391.633
65.5817
1728.07
135.201
-245.511
1191.95
1332.72
-317.052
154.977
1526.57
-566.274
-46.8327
-178.94
484.745
-222.419
-554.15
325.552
-719.379
-361.451
486.952
576.969
-751.991
-276.635
62.7146
152.27
657.775
-125.725
626.198
-127.562
115.271
814.816
167.796
-192.413
1151.56
754.105
165.906
-146.498
977.738
-735.684
-557.593
-222.597
-61.2457
-764.548
-482.445
-224.358
-507.416
169.848
-171.944
188.316
-461.187
-185.438
-148.554
-478.738
-314.348
-268.086
100.19
-562.595
-238.922
9.90383
-24.5071
508.973
-150.094
256.726
57.6812
-196.404
362.63
-139.592
-400.222
78.9123
143.413
-295.109
-282.369
222.006
63970
43074.7
40285.3
59807.4
60952.3
44057.3
62744.6
-8260.69
10441
-5124.04
12815.4
-5214.54
-7931.93
8598.66
-8013.17
-5423.21
7867.96
12375.5
-8291.37
-5369.83
9653.67
1063.89
15626.9
-2619.81
13124.8
-2507.86
826.085
16254.1
1323.17
-2202.68
13633.8
17536.2
-2348.25
1595.51
16885.1
2551.62
20241.7
-1354.1
15863.8
-1575.54
2904.78
19543.3
2210.29
-2001.37
15313.7
18190.4
-1815.18
1894.77
18865.5
5988.9
26183.5
1310.33
20831.3
929.989
6506.18
25399.1
5483.54
180.168
20200.5
23871.3
524.835
5005.49
24634.9
-7787.46
9361.22
-4926.9
14354.1
-8151.85
-4802.35
11267.7
-7973.61
-4399.51
12125
14829.8
-7560.07
-4562.04
10160.3
3683.21
20941.9
-1071.62
17673.8
3285.73
-806.657
21662.6
4105.08
-182.203
23127.7
18266.7
4541.59
-484.529
22384.7
42242.7
24785.7
27519.5
46604.7
25694.1
45457.3
42982.2
40937.7
43181.8
24314.6
26676.7
40171.7
23444.1
44341.7
43559.4
27608.7
26285.2
40627.9
41880.9
28536.6
42243
44869.5
44357
27170.1
30422
43108.5
29482.7
46182.8
50092.9
34252.8
30625.6
49251.9
33295
48021.9
51390.6
48796.1
45574.8
29723.8
31378.7
32328.3
46814.6
47489.2
60274.6
42079.5
58686
37662.8
57520.1
61516.5
41100.1
59030.6
55196.7
36741.6
39132
56379.2
40108
57771.8
44997
27078.8
29774.2
47702.1
26123.7
44278.8
48836
46278.9
51030
27468.6
30626.3
46969.2
28463.5
49912.6
53964.4
35227.3
33216.1
50444.2
36192.7
52678.6
51659.3
55238.8
54036.5
38145.2
34129.2
37174.2
56511.4
52836.4
39615.1
26675.9
23785.7
39396.5
38140.1
25761.8
40929.7
38305.7
35653.9
22924.9
23943.8
36907.4
24843.3
36993.4
28236.1
16273
17712.9
29242.5
15641.9
30409.5
27395.5
29535.6
32740.6
16903.8
18491.5
30370
17567.4
31565.7
33091.3
20412.6
19669.1
30710.8
21276.2
31949.8
31798.5
34385.5
34423
23042.2
20499.6
22159.9
35688.7
33174.5
23044.2
13877.5
13590.7
21191.6
22345.6
14644.6
21845.8
24254.7
24684.5
14336.2
16229.3
23500.7
15434.7
25483.1
25268.7
14406.9
15659.9
28092.4
14995.3
26107.5
26936.3
24000.1
24658.1
13749.1
14916.5
23161.6
13193.7
25797.6
29241.7
19549.3
17339
29496.8
18707
30516.4
28270
27979.2
25863.6
17045.7
16547.6
17865.7
26723.5
27071.2
-2941.07
1872.89
-2258.45
2281.95
-2051.58
-3034.09
1052.09
-2568.69
-1666.14
832.805
2120.01
-2465.79
-1864.87
1587.81
-24.5874
2166.21
-582.142
1882.82
-691.95
22.9923
2403.55
-78.1836
-929.536
2068.37
2908.71
-801.528
-138.36
2648.71
-318.337
4056.61
-1450.42
2934.63
-1306.44
-382.919
3749.77
-258.317
-1047.02
2716.05
3176.26
-1181.15
-197.649
3459.21
-703.642
6923.76
-2449.98
5136.56
-2328.32
-726.878
6519.48
-678.13
-2096.11
4839.7
5754.58
-2223.99
-642.061
6133.5
-3527.58
1291.66
-2450.02
2896.19
-3428.22
-2665.42
2186.27
-3934.54
-3070.63
2520.34
3085.52
-4017.83
-2856.23
1557.83
-498.232
4370.57
-1575.82
3697.38
-441.846
-1715.25
4700.59
-550.985
-1978.2
5392.9
3955.84
-601.398
-1839.33
5037.87
9865.22
5806.08
6009.21
11223.8
6114.54
10339.6
10546.5
8932.82
8654.77
5228.15
5490.57
8292.01
4946.14
9478.98
6750.8
3916.82
4131.28
5934.61
6661.29
4381.12
5999.5
7538.46
8221
4596.83
5383.77
7419.05
4873.24
8364.33
11057.6
7655.69
6617.35
11747
7059.34
10813.4
12019.8
10127
9049.38
6067.52
5922.26
6477.29
9920.26
9227.15
19508.6
13116.4
20067.5
11525.2
18946.6
20668.1
12379.3
18370.1
16776.3
10835.7
10943.3
17858.1
11649
17249.2
12259.8
7061.16
7517.04
12138.5
6716.34
11540.5
13074.2
13308.3
15020
7685.66
8104.75
14057.5
8058.82
14037.2
14035.3
8278.55
8315.74
12698.1
8914.35
13012.4
13687
15081.4
15727.7
10246.8
8940.5
9575.05
16154
14690
4626.62
3472.96
2918.23
5253.36
4606.62
3058.31
5292.29
4003.35
3445.69
2546.84
2301.59
4007.33
2664.98
3423.66
1974
1400.75
1241.22
1616.46
1273.11
1960.1
1706.99
2403
2801.37
1691.01
1491.21
2748.08
1832.29
2357.3
1983.48
1116.69
1352.49
1693.76
1368.66
2056.27
1607.01
2412.83
2935.57
1961.42
1620.44
1652.38
2893.22
2468.8
711.672
807.332
347.867
309.615
834.557
245.837
678.678
1216.71
949.43
707.173
1326.77
1065.8
1390.77
1091.26
1021.34
808.57
829.069
568.952
934.237
732.108
921.04
1040.58
892.263
748.415
1391.64
701.357
1292.24
1147.25
851.58
854.411
410.094
598.765
538.675
730.804
969.104
)
;

boundaryField
{
    left
    {
        type            zeroGradient;
    }
    bottom
    {
        type            zeroGradient;
    }
    interface
    {
        type            zeroGradient;
    }
    procBoundary7to2
    {
        type            processor;
        value           nonuniform List<scalar> 8(-5970.55 -5970.55 20554.9 20554.9 20554.9 -32013.8 43805.9 43088.4);
    }
    procBoundary7to3
    {
        type            processor;
        value           nonuniform List<scalar> 
49
(
884.344
32863.1
64148.5
96920.8
34874.4
20252.3
31816.9
13278
36764
18832.4
33000.9
66138.4
77930.7
78692.5
69172
54273.4
49464.5
72505.4
39128.7
40070.4
-21976.9
-21555.1
-30216.3
-30216.3
49340.2
100122
106773
57169.9
50369.9
39902.9
35266.4
88055.6
84632.5
-6515.5
19298.6
13698.5
-2321.73
53869.4
36880.2
34000.8
58362.3
8188.6
23547.4
2657.1
28572.1
65182.9
41211.6
62056.4
45056.9
)
;
    }
    procBoundary7to6
    {
        type            processor;
        value           nonuniform List<scalar> 
328
(
-5235.06
-3343.51
-785.975
-5430.13
-5430.13
-5430.13
-6007.86
-6007.86
-6007.86
14570.2
14570.2
14570.2
19875.3
19875.3
19875.3
-5235.06
-5235.06
-3343.51
-3343.51
13752.7
13752.7
13752.7
7982.83
7982.83
7982.83
-1012.56
-1012.56
-1012.56
-3031.4
-3031.4
-3031.4
2526.25
2526.25
2526.25
7195.13
7195.13
7195.13
-785.975
-785.975
267.718
2035.71
2035.71
2035.71
699.228
-4518.13
-4241.93
-260.208
-136.346
-5854.63
-5854.63
-5854.63
-5938.89
-5938.89
-5938.89
16948.7
16948.7
16948.7
17709.6
17709.6
17709.6
-4518.13
-4518.13
-4241.93
-4241.93
11263.6
11263.6
11263.6
10431.8
10431.8
10431.8
-1808.26
-1808.26
-1808.26
-2103.61
-2103.61
-2103.61
4301.21
4301.21
4301.21
4977.44
4977.44
4977.44
-260.208
-260.208
-136.346
-136.346
944.507
944.507
944.507
739.15
739.15
739.15
-5017.32
-3651.56
-584.451
-5599.29
-5599.29
-5599.29
-6015.94
-6015.94
-6015.94
15376.3
15376.3
15376.3
19174.1
19174.1
19174.1
-5017.32
-5017.32
-3651.56
-3651.56
12927.1
12927.1
12927.1
8786.97
8786.97
8786.97
-1259.72
-1259.72
-1259.72
-2718.83
-2718.83
-2718.83
3070.3
3070.3
3070.3
6428.66
6428.66
6428.66
-584.451
-584.451
100.836
-49.1135
-585.843
-648.278
-116.092
142.776
1603.57
1603.57
1603.57
793.639
618.343
929.228
581.51
1317.05
1264.03
-4777.3
-3952.17
-407.903
-49.1135
-5741.08
-5741.08
-5741.08
-5992.88
-5992.88
-5992.88
16170.1
16170.1
16170.1
18451.7
18451.7
18451.7
-4777.3
-4777.3
-3952.17
-3952.17
12095.9
12095.9
12095.9
9604.46
9604.46
9604.46
-1526.16
-1526.16
-1526.16
-2408.45
-2408.45
-2408.45
3663.39
3663.39
3663.39
5687.74
5687.74
5687.74
-407.903
-407.903
-49.1135
-49.1135
1237.87
1237.87
1237.87
618.343
618.343
618.343
929.228
581.51
1090.08
-25433.1
-24725.1
-25880.6
-26565.7
-31358.8
-31905.1
-31207
-30629.3
32545.9
31669.7
33306.4
34166
41894
42630.2
41389.3
40625.1
-23521.3
-24244.1
-23000.9
-22262.6
-14855.8
-14118
-15503.3
-16249.8
29991.1
30877.5
29170.7
28270.3
18515.7
17646.7
19408.4
20291.4
-4864.16
-4371.4
-5368
-5899.11
-12746.5
-13467.3
-12103.5
-11393.2
6110.74
5542.08
6756.67
7378.08
15915.3
16763.6
15047.7
14220.7
-3478.72
-3919.17
-3070.74
-2683.9
-535.278
-437.977
-585.843
-648.278
4449.79
4957.97
3933.01
3487.73
1359.98
1479.76
1317.05
1264.03
-27992.5
-28636.5
-27640
-26966.7
-29570.4
-28946
-29829
-30425.7
36420.1
37244.7
35736.7
34888.5
38694.1
37888
39292.3
40075
-20382.4
-19631
-20964.4
-21709.5
-18268.4
-19023.8
-17643.2
-16887.7
25659.4
24755.3
26526.3
27426.6
22972.7
23874.5
22083.5
21184.1
-7592.6
-8207.16
-7024.07
-6438.79
-9460.99
-8809.32
-10084.6
-10759.5
9497.95
10216
8752.59
8076.84
11761.5
11003.2
12582.8
13374.2
-1710.04
-1446.2
-2005.67
-2329.16
-1019.04
-1218
-859.551
-730.96
2318.64
2021.21
2674.91
3045.56
1554.52
1766.44
1409.93
1281.84
-116.092
142.776
-83.4737
)
;
    }
}


// ************************************************************************* //
