/*--------------------------------*- C++ -*----------------------------------*\
| =========                 |                                                 |
| \\      /  F ield         | OpenFOAM: The Open Source CFD Toolbox           |
|  \\    /   O peration     | Version:  2012                                  |
|   \\  /    A nd           | Website:  www.openfoam.com                      |
|    \\/     M anipulation  |                                                 |
\*---------------------------------------------------------------------------*/
FoamFile
{
    version     2.0;
    format      ascii;
    class       volScalarField;
    location    "0.106/solid";
    object      sigmaEq;
}
// * * * * * * * * * * * * * * * * * * * * * * * * * * * * * * * * * * * * * //

dimensions      [1 -1 -2 0 0 0 0];


internalField   nonuniform List<scalar> 
3125
(
73025.4
60043.4
45977.4
22912.4
3230.91
103488
61743.8
71779.5
71665.6
99742.9
67478.8
38692.2
25665.4
43655.5
12790.3
34859.1
3119.72
3423.84
10565.3
3468.33
130150
120869
47785.8
62045.6
75950
54490.8
60620.8
80907.7
64251
45357.8
52475.4
58584.4
3276.57
9977.08
19656.4
14654.2
10821.3
20482.2
11249.8
3449.42
11920.3
9602.01
171016
153019
126933
105477
66398.4
78293.8
95773
117946
67823.3
98420.5
83462.4
102574
167051
139621
84037
98283.4
121680
149488
88064.2
125104
109324
135761
55139.5
77472.4
95038.2
54904.9
73193.8
105649
80857.5
50617.4
50757.5
70217.7
45910.6
33810
33709.2
20973.3
30784
43611
36294.2
32281.8
21864.6
32220.3
52171.2
33245.3
21011
16598.9
29339.5
48016.9
24208
31450.4
16339.4
30832.6
2126.55
4670.97
15085.5
5493.4
6622.7
14638.9
5563.03
2523.96
4259.47
5689.82
196793
78925
62304.6
72334.1
56516
58273.9
53063.4
118455
106095
39705.9
48217.2
42988.6
1635.1
3090.19
20320.2
20156.4
16718.1
19003.5
13945.3
3422.68
6151.4
5731.75
200265
108493
191861
177276
63362.3
57733.9
61332
77410
70507.3
73170.8
122686
135698
195244
180362
75829.4
72440.4
79112.5
106247
95922
99401.4
124264
137704
61302.2
71825.8
70265.9
63281
63745.1
119884
107061
39582.9
42632.9
45288.1
59107.5
49976.4
28384.4
21509.5
25041.7
38588.4
41271.1
35281
20865.7
26986.7
57944.1
48343.2
15282.8
15125.6
18848
37762.8
31154.1
32468
17780.4
24152.9
5385.91
2747.17
1296.71
1553.1
13986.6
8613.62
10814.9
15858.1
10719.3
3144.74
2628.95
3075.1
177184
88272.1
86687.7
75818.5
57571.7
53653.5
66327.5
78893.9
55687.9
69374.9
60506.2
69148.3
56293.7
56416.2
48541.9
51892.9
66960.3
50908.3
54912.9
90442.8
102091
106909
73505.1
95975
82191.2
71126.7
92442.2
40763.5
50812
44485.4
50390.6
47403.3
44108.6
52698.7
49592
45751.1
7179.55
3988.23
2260.13
5141.73
3796.85
8222.19
6279.76
4794.89
20223.8
15797.8
16576
17391.6
11857.4
15512.5
14542.4
11687.5
15357.9
8380.8
12433.3
19562.2
16444.2
14892.1
9461.47
15130.4
13456.4
3449.38
4945.12
5607.13
9194.79
10638.6
6954.17
6046.39
10464.8
6808.52
194476
119455
172715
117501
159532
158362
172488
114436
142509
155215
64916.7
66391.2
62609.2
61963.2
85556.8
66418.9
72692.9
88053.4
67963.9
86426.3
109371
81102
69186.9
67741
71741
106582
74335.1
79357.5
153737
140135
110663
91391.2
122236
138361
94121.3
126195
189699
155217
175515
161005
175469
151297
156996
170840
79957.4
88094.6
81325.7
78752.6
108177
86219.1
96324.9
111521
88719
116881
138957
109124
92027.3
90330.7
97155.9
135472
98862.4
106563
156261
142277
121617
120517
134596
152446
124296
139003
86846.8
75478.5
60225.1
64396.1
70553.7
85250.2
67590.1
74133.2
76307.9
85475.7
69038
59084.7
55313.5
61627.7
82353.2
59653.9
66667.2
90767
102898
117377
94808.3
104940
89076.9
91263
100894
42237.3
58734.5
48531.7
46661.8
53272.7
47230.2
61537.3
57378.4
50688.9
54784.9
40506.8
46827.9
38919.4
47089.9
38783.3
37185.9
44313.3
31074.8
29652.1
26206.5
21434.3
25045.1
25059.9
29869.8
26441.1
26263.7
39531.1
38565.2
35887
38811.4
30794.1
34158.2
36951.7
31071.3
34676.8
36361.8
29200.3
21247.7
26148.2
26708.8
34951.2
27624.1
28666.1
56924.5
43646.4
47474.9
36700.3
45305.2
40938.7
35991.1
44480.8
18028.8
24462.9
20174.3
15479.7
21608
19499.1
25617.7
23429.6
20944.2
40223.2
40551.5
34400.8
27596.4
25972.1
30793.2
38182.2
27273.3
32554.2
34006.3
26474.5
17325.2
22012.7
23604.9
33331.7
24087.3
25896.6
4387.32
2056.92
1550.74
1968.61
1596.75
4283.84
2512.46
2083.01
14253.4
11011.9
10881.6
6928.68
7114.82
9844.17
9808.24
7033.7
9857.79
5417.63
9221.55
15434.7
10134.3
10399.7
5266.33
8836.06
8939.95
3012.75
2523.86
2972.68
3280.34
6259.34
3813.09
3215.9
6160.04
3702.39
234375
240291
71209.8
75246.7
140059
134975
326.794
495.651
17677.9
15536
224539
230335
228487
222634
145202
150405
218782
213064
138024
143028
67525.1
71341.5
133085
128206
67256.9
63397.9
19943.2
22329.9
63794.9
60152.8
19288.3
21537.9
2877.39
3718.37
3232.73
374.761
462.219
17151.4
15125.6
3435.56
3416.53
2822.4
3716.2
2914.43
3185.67
3655.4
145604
133406
118483
121362
149256
99835.6
110079
123825
107048
109530
112686
97766.4
101245
96711.5
51693.8
49700
48993.2
50618.7
53890.8
60915.5
68092.9
59885.2
59129.8
65604.4
66830.5
70627.4
71385.8
73646.1
69639.7
68288.4
68607.7
59801.8
59763.6
62695
57160.8
61343.6
58439.7
58987.5
105851
110534
89762.8
76458.3
78397
74382.9
86884.5
62734.2
70629.7
66498.9
64585.4
73216.6
49138.1
43614.6
47140
47819.2
49260.5
45209.9
47821.8
55750.8
58205.9
56586.4
55365.7
56673.5
57088.1
53601.2
4343.05
3337.62
3223.11
3421.58
4090.85
4519.03
3475.37
12257.1
10020.4
8721.25
10840.2
8731.96
23338.1
19770.9
24040.2
18358.8
22637.3
24757.2
18508.7
16131.1
14113.7
12051.2
11070
15544.1
14677.2
12294.6
5505.84
6821.38
21065.6
23637.1
19120.4
22214.7
19602
13680.4
11330.7
12534.2
15107.3
12661.2
5042.17
3463.76
3346.37
4241
4789.69
3388.54
4336.73
11779.3
12683.2
8394.92
9853.08
11261.6
13221.8
8643.26
178885
174991
185878
183138
190031
172882
140771
156562
178332
143980
182236
169255
141989
115650
123751
112859
138410
188331
193942
97066.1
108422
117771
99583.2
121108
71285.7
72682.9
73168.1
80676.3
69776
74985
74772
79243.9
86674.5
88008.8
93163.1
80928.6
84626.5
85719.9
93758.6
107503
104613
115056
95742.8
102220
104958
84411.9
88766.1
101106
90333.6
90901.7
82653.1
92691.1
182762
177243
92688.3
78572.9
86060.5
80728.7
95661
94595.6
114477
99712.8
92169.3
111226
174645
181725
163096
170419
177571
179676
185124
152677
143497
145415
149534
156816
114245
91049.9
101556
115796
94030.6
119656
110596
132604
143051
112336
118275
109241
136284
139134
161971
137571
174423
145966
165617
134378
170508
143643
146973
128545
115446
118572
150896
139966
174277
168930
113343
113028
119924
117252
123968
148544
141316
131919
137240
144420
95992.3
91683.7
56524.8
58167.2
59581.9
59682.7
63011.6
84723.2
79864
74131.4
76365
80985.5
103333
88093.7
91820.8
111951
85161.8
106957
108125
85501.7
85678.1
76209.5
68170.8
70924.1
89346.4
82010.3
100378
104837
109467
102003
115902
105626
111902
88500.9
83411.2
84286
87006
92319.1
58564.9
47537.2
53271.8
57806.8
49966.1
61119
55395.8
75117.4
82044.5
67281.4
65453.5
62771.3
78447
78546.6
49542.4
47389.4
44071.6
45803.3
47436.5
42246.3
45521.3
36656.1
35432.7
35780.5
38142.8
37610.9
27587.2
21045.1
25444.2
22309.7
26178.3
26845
22332.3
34506.7
35191.4
30336.8
29313.1
35862.1
33805.4
28965.9
45190.8
42046.5
46389.3
41897.5
46504.2
44970.5
40503.8
38560.2
36579
33809.5
31727.1
37968.6
37217
33137.8
39071.6
36005.9
22559.4
25061.3
23268.4
26490.3
24085
35181.4
33991.1
30657.6
33712.2
32241.5
53429.4
56213.9
49264.7
50399.9
52910.3
40248.7
43327.5
34597.1
35735.4
33728.9
36318.3
37454.9
16127.8
16306.7
18190.6
14878.6
17780.7
16857.8
14234.4
27163.9
30960.8
28042.1
27297.7
26167
29654.3
28365.9
49220.4
45157.6
54552.7
45471.4
52278.7
42827.2
51359.8
34882.9
33643.5
33629.8
29979.5
31979
36409.4
32229.4
37268.5
34388.5
16149.2
18135.4
15179.2
18016.9
17233
31825.3
31219.4
28499.4
28792.8
29143
4351.04
3336.97
1862.74
1604.86
2146.71
1505.89
2214.97
3115.78
4165.38
3869.01
3403.35
2699.74
10798.3
14902.2
13650.6
13017.2
13566
12455.1
11280.6
4647.82
3982.34
7616.33
6888.66
7856.16
4766.84
3926.5
5506.07
6792.56
14381.2
13036.6
13244.2
12715.3
11433.6
3737.06
5039.73
6551.9
6030.76
4572.4
2755.54
2677.36
1981.33
2510.37
2109.06
2507.25
2791.18
3024.89
3391.79
4811.77
5969.18
5089.94
2982.65
3390.44
219069
201757
224534
103378
106986
105970
103557
83588
79372.8
67965.4
65573.7
71719.4
79470.5
68918.5
75555.6
83407
85071
84170.2
84827.6
81407
81668.6
82050.2
80538.8
125000
129952
131862
114279
127152
117907
110157
122499
62475.5
60639.3
61730.4
61080.8
64534.2
65314.9
64326.5
65860.1
1225.93
827.921
676.427
1846.77
888.344
1945.25
2349.01
1339.07
28288
28735
30058
27057
26488.6
23557.3
25241.7
24726.6
11641.4
13520.4
18179.4
17229.8
16186.6
12553.5
15541.9
14309.6
5538.4
3478.22
5190.14
3824.85
7839.79
9206.71
7352.92
9791.25
112799
119708
122787
91159.7
93302.7
96474.7
94384
112297
110629
108305
110056
84858.5
88190.7
93011.7
89693.4
119018
115891
111908
115074
209869
205315
215227
142492
130374
131699
140151
213633
186963
208228
211040
216815
182101
197518
202855
86823.5
87865.8
86167.9
87971.4
88781.7
90729
90764.8
89336.1
101809
104218
101720
105111
99971.1
103092
102342
99955.1
160983
155664
136626
126971
141444
151235
131309
146314
204544
190252
199254
201756
207388
185290
188786
194000
99669.2
91436.5
93414.3
96860.6
102656
98658.3
96747
105424
135195
127434
126016
137605
132575
121497
123007
130094
153218
148092
129639
128695
134294
143768
133176
139003
90000.2
87803.1
84327.1
86570.7
61652
63998
67930.9
65578.7
83271.9
79932.5
74927.7
78266.4
44576.8
47654.8
52699.8
49545.6
30510.7
32596.8
36392.7
34244.6
60036.1
57699.7
53734
56060.6
11358.9
13273.4
16668.7
14550.5
42703.7
39714.8
34986.9
37872.3
79232.6
75244.1
63772.7
64735
67350.4
74747.1
68243.9
71008
90999.5
88078
93834.8
86048.1
87951.9
80592.5
82670.7
85091.8
118652
123394
125040
115555
120495
111591
111280
116011
52703.6
47815.4
49928.5
49968
55649
55289.8
53152.6
58437.7
64290.3
55986.1
60700.5
55958.5
59628
52941.4
53779.7
57195.2
33694.3
30658.9
31931.5
32312.8
35593
35942.6
34321.8
37347.2
57544.4
58092.3
59008
56903.5
55501.1
53143.5
54426.8
53967.7
27461.1
24835.5
20285.4
22817.1
22504.5
27273.6
24857.9
24834
60271.7
54663.4
56852.1
53143
56601.7
51463
50271.2
53518
14009.6
12263.9
13593
12303.1
15910.8
17165.8
15677.4
17810.9
44424.9
44671.5
42601.3
47088.2
41632.5
37537
39553.2
39050.9
26362.7
23896.7
18449.1
19803.8
20559.7
25093.5
21928.6
22773.8
28891.7
26863.4
23333.4
25291.8
3224.65
5083.32
9174.69
7274.02
10252.1
8561.71
6213.84
7653.67
4205.04
4050.36
3415.25
3773.46
1155.21
751.343
711.675
1156.18
643.459
1151.1
1234.77
736.509
9148.76
10417.3
10631.2
9273.98
7739.91
6764.93
7693.46
6519.93
11426.9
13216.2
16441.8
14037.7
14537.8
11064.6
12324.4
12744.8
3505.52
3273.77
2492.17
3518.86
2647.28
3700.06
3348.3
4118.1
4141.77
4010.29
4088.68
4102.37
3414.13
3809.98
3852.15
161722
181688
165819
87880.9
92255.6
95869.5
82997.2
91660.5
83459.5
79373.5
87523.8
54406.3
60425.3
56939.3
51659.3
53948.5
58433.2
52274.5
56138.5
63345.7
62179.5
59531.4
73342.9
75659.1
70466.5
57765.8
55646.4
60774.8
57374.3
63163.8
72486.8
64885.7
67647.8
65389.1
71376.9
66233.4
64660.2
63964
67920.1
66616.5
75504.1
75006.8
74444.9
75645.3
77536.9
78900
78507
78386.9
61174.5
64808.1
64576.6
62738.7
62562.2
62945.9
60848.9
120108
115284
100145
94262.7
104490
113371
98144.8
108898
98322.4
103211
95014.5
75927.9
70352.1
81271.6
72345.8
84053
99565.3
88554.1
91757.9
76274.9
85550.1
79263.2
68789.4
68393.7
78537.1
66469.6
75851.1
88966.8
85402.6
82305.3
50453.8
48961.3
52180.8
48482.8
50716.8
51771.7
46835.3
71226.2
72282.4
72379.2
71520.3
69174.8
67963.1
67932.7
68844.2
54420.2
54625.5
53659.9
50158.9
55159.9
53092
51865.8
1791.17
2488.15
5547.41
6045.25
4490.9
2693.49
4978.69
3540.72
2770.34
2442.38
2913.24
4121.36
6733.46
5132.75
5501.17
4135.07
2966.5
4374.56
3467.77
9036.58
7028.08
7793.9
7484.84
8056.93
6263
9437.18
7474.13
5883
5440.4
6591.51
21907.6
17068.3
19809.8
16000.6
20468.5
21223.3
17248.5
19570.8
16915.9
17877.7
18557.8
21235.5
21837.4
22974.1
20162.9
17581
13291.6
18393.4
14763.3
19028.7
16969.5
13527.7
9892.41
8284.65
6713.78
9655.19
7996.23
10913.5
11002.1
9393.83
20161
17943.9
18631.3
17771.7
19372.8
16758.2
20790
18165.8
16386.8
15707.5
17147.4
10308.9
10747.3
11611.6
13824.9
17952.7
15370.5
16528.5
14004.3
12075.7
14304.9
12940.9
6220.85
3970.12
7112.21
5137.7
5852.4
7546.64
4104.55
14599.3
15399.9
16263
13777
13068.8
10729.3
11416.2
12351
10349.3
7207.96
8458.88
6272.21
9852.38
8931.96
7448.17
102370
100410
97465.2
99498.5
103198
105091
107653
105832
102275
99006.5
94410.6
97711.5
103459
106698
110966
107765
185829
199276
190347
157660
168284
153635
120606
107412
131370
110112
134870
163889
145700
149648
205299
199598
176533
163029
181720
192215
167738
186949
111409
104758
127909
102148
124487
130307
146703
134093
141791
150939
137921
93637.7
95816.5
96140.4
93970.9
91725.8
93526.4
91282.4
93350.3
72817.4
83098.2
78724.5
79049.6
74378.3
76835.6
76895.5
77592.4
90589.6
80651
81238.8
75968.4
82619.2
83462.7
91811.5
112197
97559.6
99955.2
99868.2
89901.7
102440
96100.3
98608.9
98144.1
95875.9
97972.7
100314
98092.5
100925
86203.8
103827
95297.6
97501.9
93078.4
88034.5
95081.5
166350
171770
171384
149156
166279
156203
144622
161218
101681
114470
105091
88704.5
85172.9
101749
82928.2
98681.3
118328
112058
108550
126566
134259
122869
96895.5
87459.8
104862
89791.4
108021
130204
115615
119219
181331
184946
176851
159150
162013
169261
166208
173415
180217
167956
172392
196167
190619
168328
165788
173378
183608
170610
178470
147389
157834
165109
153674
160961
150451
161580
154788
163541
166195
159151
113979
108808
107044
116646
111091
101952
108369
103797
117905
104855
100057
127420
97033.9
121573
123533
128924
114888
103100
131316
106162
125247
135222
158318
142455
128022
162668
131196
166589
154658
122090
112004
113690
119480
124853
118423
127398
116827
147319
132001
124861
158745
121710
154820
150990
158400
163636
163321
151558
158359
148582
146896
153445
116861
125901
120939
116760
125165
132108
121194
128031
130228
129206
125054
146141
147929
141860
128097
129164
136200
133189
140305
143448
133393
137610
77066.8
79372.1
83023.7
80744.5
75628.9
73299.1
69465.3
71813.9
64775.1
68074.5
73193.7
69870.7
62937.3
59672.4
54584.3
57803.6
44158.8
41926
38052.1
40250.6
45837.8
48109.3
52080.9
49778.4
24417.5
21941.7
18089.9
20396.7
26066
28694.5
33191.2
30427.9
83302.5
87451.1
90434
82990.6
86402.9
78558.6
79200.1
82441.8
58103.3
63597.8
61345.9
61254.3
66185.7
70046.1
62903.9
66501.8
67041.8
68029.2
64655.1
82126.6
81482.8
78514.8
70836
69524.1
73642.9
72917.1
77290.4
77776.7
71465.9
74960.8
99725.9
88632
79377.4
100536
82255.9
96137
104319
76090.9
69575
71714.1
73221.3
79157.6
77207.2
82025.6
75095.9
89021.9
79263.2
76529.9
96778.8
73711.1
92568.1
93047.7
113977
109370
94532.4
94750.3
98698.2
107229
98793.9
102929
112822
113183
108824
98387.8
98056.4
103979
101821
107927
109037
100959
104869
85791.5
92961.3
89508.5
87754.2
94329.6
100060
90645
96172.5
96900.2
97093.3
93275.7
61786
55979.3
54961.3
67906.8
52441.8
64487.4
65055.3
67305.1
66211.2
64060.6
70159.2
64269.8
58576
61439.3
60729.7
71723.8
64387.6
57523.5
71374.9
60128
74889.5
68369.1
51930.9
52065.5
49513.3
42269.9
42688.6
43369.8
44235.1
45378.9
49412.7
44856.2
47155.1
52379.5
48899.8
41022.7
41559.2
44070
50450.5
44283.2
47213.5
37090.8
41161.4
41405.1
39645.3
39484.5
36246.1
39492.2
38311
42614.9
41869
40433.7
42988.5
43311.6
41801.4
44673.3
41021.4
38046.3
39297.2
39618.8
28986.4
23668.7
29636.3
24944.2
30380.1
28242
23633.6
33142.2
27865.6
31026.2
26266.9
31763.3
32418
27609
43872.1
40214.4
42149.2
37486.9
43556
42547.4
38982.6
48321.6
45581.9
47025.6
46683.2
50336.1
50728.7
51924.9
49363.9
39893.4
35365.7
40752.7
36016.9
39358.4
41224
34567.3
30197.2
33045.6
38070.2
33888.2
35217.5
29817.5
31502.1
32466.4
21738.4
23001.3
23365.9
24697.4
29363.3
27238.3
27924.5
25643.9
24821.7
26774.2
25044
34239.4
32786.4
32288.8
29127.8
30806.3
28870.3
32256.2
30537.5
30693.7
28559.8
30397.8
54927.8
53698.2
51822.1
46422.2
44550.4
46506.8
47439.8
49673.5
50548.1
45831
48789.9
49776.4
46502.4
38152.6
39482.4
41046.6
47106.6
42350.5
44029.1
38300.5
41731
43413
38985.7
40394.4
34763.4
38737.7
37410.7
42945.4
41568.2
40138.1
24270.8
25333.5
23581
26498.8
21989.7
19462.2
19913.6
21094
18131.7
19861.1
20933.8
21150.8
19323.4
20242.4
18949.3
24762.5
25326.8
22611.9
23457
24356.8
22454.7
25863.2
46221.8
42982
38322.2
45167.8
40548.5
48230.6
43285.5
31302.7
27991.3
29849.3
28938.4
33877.4
34600.1
36357
32656.9
37612.4
35874.2
36151.2
42174.6
34036.1
39254
40414.2
28935.3
31609.5
35348.7
31402.1
32638.4
27510.7
28891.6
30024.3
16780.8
19318.3
18696.9
20027.4
22048.3
21681.6
19983.9
19400.7
21412.3
22823.8
20711.8
32198.9
30761.2
29719.7
26249.8
24206.5
24067.5
26454.6
26555.2
28283.1
25032
27330.7
16700.3
18485.3
21814.7
19937.7
15315.4
13597.2
10591.3
12275.7
3221.96
4004.4
5538.81
4392.8
3151.59
2802.12
3052.4
3008.82
1738.67
2463.12
4353.37
3479.37
3361.18
1755.19
2700.11
2492.51
1784.82
1243.76
1382.92
1618.55
1756.75
2230.48
1499.38
2180.09
1299.3
1705.34
1406.98
4314.71
3425.47
3495.48
3150.77
2199.47
2313.39
2749.44
2454.13
2692.41
2194.07
2790
9270.88
12291.6
11093.5
8209.22
12296.2
7879.57
9675.73
3890.29
3588.49
3934.52
3440.42
4553.15
5494.11
5436.03
4829.44
5553.98
8676.68
9954.62
6891.66
8877.14
6635.28
5739.64
9756.26
8210.93
5462.53
6568.97
6688.82
9490.22
7836.54
8030.23
14964.2
13648.5
13249.1
11533.7
9706.72
8217.86
11156.3
9756.33
11970
10138.9
11640.7
5247.87
6372.45
6297.56
7641.26
8364.82
6829.77
7138.58
5608.09
7596.78
8743.15
7462.34
2635.91
2026.36
2726.7
2462.17
2179.66
2436.9
2611.49
3229.17
3126.88
3111.9
3257.76
3378.29
3288.06
3581.2
3036.73
2798.36
3987.05
3457.27
2555.82
4252.66
2719.68
2667.73
4803.1
3286.03
3128.65
3185.04
4087.49
3399.51
3450.48
3062.8
2931.56
3847.83
5166.58
3471.35
3489.39
4225.49
5258.12
3450.94
4310.53
3003.78
2850.75
2388.67
3348.94
3244.49
2255.83
3075.84
87079.4
74561.7
80370.9
81773.8
74712.8
87475.5
82759.8
71054.1
54420.2
66209.6
55378.7
71261.3
54451.7
65207.7
69151.8
63208.2
54182.6
52381
52374.4
64239.5
68845.6
54536.6
39929.3
40787.2
49732.4
40243.7
53660.3
50971.8
56406.2
53373.1
41909.8
42285
42040.2
52169.4
57192.4
26013.4
20447.9
26177.3
19127.6
27523.8
19430
24684.6
24344.6
21677.7
17923.1
16984.4
18061.9
23177.9
22803.8
5314.33
3367
3489.21
4068.62
3407.47
3901.18
5207.2
7157.7
8292.47
4514.03
5776.07
4569.59
6791.39
8832.49
141413
95911.1
110794
145211
96763
139226
147992
73296.2
56537.1
67148.7
58897
73178.3
56491.9
68129.3
75202.2
69998.2
58595.5
60144.1
58648
75236.7
69037.2
85870.6
72228.7
80886.4
76006.9
85506.1
72129.7
79924.6
83921.2
78104.4
74533.5
69758.4
69810.9
79052.1
84233.1
97074.9
64784.2
74667
97466.7
65807.8
94485.7
100488
100319
106620
69620.5
76864.9
68613.2
102883
103608
133942
92871.8
142309
103947
136196
91994.2
139483
130871
133673
101699
88074
88981
136537
128559
88618.9
62028.2
68064.9
94343.4
60997.5
91233.4
91317.2
85371.8
85177.9
65915.5
57253.6
58295.5
88195.7
82745.4
50883.6
36245.9
41461.1
49637.9
37281.1
48402.6
52400.5
53897.7
58128.6
43346.9
40570.1
39531.8
55291.7
56437.1
30715.2
21846.6
27674.9
22692.9
29241
22802.5
29159.9
32448.1
32102.1
25120.2
23874
24239.2
33877.6
30634.9
50823.7
38185.2
48492.6
37499.6
51788.9
37791.8
47215.5
48977.8
44625.9
36378
35625.5
36096.6
45940.3
47917.7
13884.1
14590.9
16322.7
12833.6
15517
12377.7
14498.9
15804.2
18180.6
17734.1
17555.3
16795.1
17493.9
16318.2
43057
34097.2
46830.8
35953.1
45471.3
33074.1
44151.8
40225.1
38860.3
34203
30019
31033.3
41439.6
37893.3
9374.5
13444.1
12882.6
11226.8
12533.4
10674.4
9778.91
7912.15
7208.55
11831.9
10609.9
11510.6
8411.11
6848.85
3337.07
2893.85
2502.85
3312.94
2586.25
3058.6
3044.18
91384.9
98669.6
90111.5
84964.3
86229.1
100898
89742.5
64965.2
65142.2
66087.8
59091.3
65019.9
66183
63430.5
63759.9
62883
57669.7
60081
63958.4
62557.1
61739.3
64642.9
48262.4
59015.1
49633.9
60110.4
64149.3
48330.6
66537.8
62207.5
50347.7
50788.2
66938.4
61144
50319.5
58978
53687.7
58518.1
52220.3
59628.6
57787.3
55247.3
60166.8
61810.4
58444
53568
61361.9
60718.1
56835.9
49355.5
41958.4
41989.6
49199.1
50419.1
43356.5
48122.9
50578.1
52809.3
43242
46210.4
51619.2
51796.3
44777.3
61655.3
46322.1
57938.5
46317.5
62244.9
56806.6
46198.7
59771.8
54528.9
44126.9
45191.5
59079.9
55698.2
44309.4
55400.3
52147.9
57406.7
48304.1
56594.3
56269.8
50633.2
54206.6
53974.4
47665.2
47014.3
53003.7
55135.4
49137.5
23918.5
19970.9
26046
19011.7
24562.8
25362.6
18738.5
22469.8
21583.2
17790.8
16278.9
23075
21010.9
17505.9
18034.2
12045.3
15682.9
13079.6
17171.6
16492.5
13211.9
19617.6
20169.1
15650.3
14296
21165.8
18672.1
14521.4
16611.7
11380.4
15605.4
12910.8
17099.5
15141.5
12603.4
18079.4
20090.4
15053.4
14135.7
19547.9
18592.8
13828.5
6497.64
8259.76
4426.71
5374.54
6761.28
7907.52
4271.64
13405.3
10757.2
14189.1
9406.78
14937.7
12714.7
9550.75
11908.4
9780.77
7049.58
8188.33
10372.7
11248.9
8275.14
12210.7
10161.2
14120.4
9238.89
13670.7
12638.2
8945.3
10766.6
9718.17
6545.71
8021.89
9330.59
11177.6
7740.14
164792
130132
122057
153427
156512
133033
161429
79018.7
62925.4
73642.8
65141.1
72706.6
78890.1
62961.2
77105.4
70887.6
60785.8
63828.1
77152
71834.7
60738.6
68646.9
66885.8
67138.1
63418.1
68200.3
67410.4
68652.7
69895.4
70315.1
64920.5
72276.5
69249.8
71164.1
70453.6
75065.8
79869.8
74594.9
71101.9
73504.3
76412.6
77930.1
73747.4
71367.1
69506.4
74133.4
72439.4
72445.4
76014.1
86567.1
96464
83747.2
84636.3
82529
88140.7
94292
85030.6
80176.9
82840
90026.8
81352.3
83520.3
92141.6
80623
65177.5
74508.8
69028.3
80819.2
75444.9
65163.5
82549.3
77240.2
67457.9
70416.9
82291.5
76301.4
67442.3
79175.2
81844.5
75676.6
75974.5
77781.4
76788.5
83843.4
80593.9
79037.1
87934.8
77667.6
82044.6
77895.2
85877.8
111840
77323.5
85817
118767
76350.4
115797
114319
108633
109723
72469.5
83590.2
106112
73463.4
112715
109809
84926.2
81233.3
101974
105233
87653.4
106349
113278
111774
83710
93158.3
108518
90395.7
116747
127157
104349
93772.4
124797
101529
121565
130620
123688
115052
91251.1
95932.9
98725.9
118299
120220
154659
127241
150297
114283
147177
158048
124350
151254
140857
111714
118594
144011
121471
147840
119926
80247.7
92618.6
121821
81203.1
117500
124760
123073
130688
85089.1
94861.4
125448
84159
127782
137532
107177
101431
128044
110019
134082
131254
140978
137662
115729
103982
112867
144412
134478
99447.6
82222.3
73859.3
98694.9
95442.7
79535.6
102891
96012.4
88936.6
71447.5
74234.2
92172.6
76874.6
92593.6
73658.2
49939.2
57409
72995.8
50988.8
75974
71034.2
76874.2
82069
54611.2
59492
79507.7
53567.6
79064
82435.1
63940.2
61972.6
76077.8
66473.2
79256.3
79094.3
85801.8
85688.7
71621.6
64299.5
69032
89186.4
82476.4
56574.7
44918.2
44302.7
51574.5
54500.3
47162.7
53522.4
59677
60497.6
46392.8
51773.5
57489.8
49447
62821.4
65239.1
47433.4
51222.6
69939.5
46386.5
67848.2
66994.9
62100.1
61086
42913.4
49228.8
59521.2
43959.9
63981.8
72487.8
61441
55112.6
72899.9
58970.2
75774.4
69766
69229.3
63561.8
54135.7
52893.2
56536.7
66008.8
66638
38794.5
29632.8
37835.4
28516.8
36422.3
40089.7
28912.4
37014.2
33555.8
26592.8
27360.7
35643.5
35000.2
27398.6
28225.2
21206.8
27516.1
22643.2
28982.8
26801.1
22447.3
29638.5
31880.2
23855.1
24942.9
30434.9
31045.5
23693.9
35178.8
30000.9
37507.1
28671.2
36119.1
36532.2
28726.3
33816.7
33305.4
27464.5
26197.4
34722.4
32437.3
27457.7
45626.6
40574.6
47969.9
38314.3
46715
46878.9
39208
44366.3
44167.2
37092
36516.3
45453
43090
37853.5
43122.6
31187.3
39227.8
31917.7
41901
40612.1
31826.3
44937
43310.4
33980.1
33048.3
46080.5
41959.9
33425.2
39196.4
31283.7
38869.3
32270.1
37873.2
40223.9
32575.7
40505.3
42871.9
35190.9
33474.7
41805.1
41550.9
33878.5
23757.7
22620.9
22980.9
26619.8
21649.5
24419.4
25756.4
21463.4
20193.8
19147.7
21561.8
19611
20103.7
22232.5
15575.3
15932
16765.6
13222.2
14977.1
17310.6
13749.6
17512.1
18812.5
18101.5
20252.2
16850.2
18750
19551.6
26246.4
26863.5
24002.8
27600.6
25120.1
25282.2
28655.1
23922.5
20883.8
22449.9
21815.1
23438
23031.6
21691.5
47565.7
42719.3
48676
38235.3
45844.3
50515.4
40562.6
44669.8
40323.2
36302.2
36394.2
43046.7
38455.4
41835.5
30337
24300.4
27543.7
28963
25288
28211.6
31305.3
32933.5
36256.4
28092.1
29137.4
35171
27093.5
33787.3
33711.6
28661.1
28988.6
30011.9
30515.9
31146.9
32481
36352.1
37640.4
34383.5
30741.8
32422.3
39059.6
35036.1
10439.7
14616.2
13075.5
11566
10038.5
13359.9
12033.9
8972.46
7359.06
11954.3
11027.6
8626.93
12164.5
7642.06
4022.18
7086.23
7997.88
3802.36
7980.45
4404.67
3569.17
4880.29
6109.8
9695.67
8901.96
5661.79
8801.63
5189.67
4575.8
6997.2
7938.26
3835.8
7935.03
4454.97
3903.11
5429.96
6225.32
9944.8
8876.43
8915.55
6455.32
5258.62
2835.01
2926.68
2417.58
2860.82
3042.79
2308.36
2761.32
2961.49
6335.01
5416.42
3348.37
5436.99
3082.08
3054.76
2808.52
2835.62
3901.32
4598.59
2939.69
4747.61
2881.02
3076.47
6098.17
5310.45
3385.22
5231.1
3407.2
3099.83
2877.56
2888.94
3600
4488.55
4397.77
2777.24
2939.37
)
;

boundaryField
{
    left
    {
        type            calculated;
        value           nonuniform List<scalar> 0();
    }
    bottom
    {
        type            calculated;
        value           nonuniform List<scalar> 0();
    }
    interface
    {
        type            calculated;
        value           nonuniform List<scalar> 
2171
(
3104.26
2985.9
3388.16
3435.3
3186.94
3352.66
2112.11
2511.21
191854
60657.3
70359.1
115137
103109
1592.22
1413.52
2991.38
18813.7
13883.7
3284.1
207581
187001
172667
119259
131952
202468
187283
129613
143498
63919.2
74975.8
125077
111771
57567.1
48745.2
20621.1
26547.2
60384.8
50264.5
17939.1
24678.7
1281.88
461.968
950.244
15909.1
10498
3127.12
173623
84264.2
73732.3
56401.3
64920.1
77160.8
67886.8
87906.5
99216.5
104525
93832.1
80375.9
90381.1
7186.81
3931.27
2225.43
2069.35
3715.98
8205.19
4739.86
8391.46
12401.7
19414.3
14827.5
9444.82
13411.3
3317.91
199094
169211
156209
154118
167968
139451
151957
149589
136286
108199
119540
135373
123424
194256
179874
167465
182280
161056
175129
162596
148213
124957
138224
156424
142722
90704.5
78806.3
61811.1
72481.1
87631.6
76174.3
94798.8
107442
120617
107869
91569.8
103715
53691.6
45956.4
38070.5
45958.1
36585.7
43512.9
35602.1
28686.7
21063.2
26393.1
34413.7
28299.3
58397.6
48614.8
37960.2
47057
36706.5
45512.1
35109.4
27135.8
17329.9
23847.8
33946.6
26226.3
3911.32
1516.6
1530.26
271.728
1132.88
3890.09
1668.99
4969.85
8927.98
15369.9
10156.3
4883.13
8650.49
2995.61
70036.7
137676
248.427
228771
68975.8
136029
66166.5
65144.8
19352.8
3722.16
359.837
17155.1
3386.76
3717.79
3638.92
143197
117967
120832
99450.4
106873
109351
97395.1
99497.3
50993.7
48881
50498.5
60739.6
67010.4
66684
71282.3
69540.1
68132
59697.7
59685.4
61262.1
58342.5
104023
88219
76186.1
62547.6
69490
64387.5
49078.5
47762.5
49201.5
47766
55666.5
58130.9
56601.4
56997.5
4497.25
3036.54
3153.2
3857.56
4068.57
4514.36
12250.5
9993.76
23320.5
24014.5
22613.3
24738.1
16121.7
14099.6
15528.5
14669.4
20978.7
23611.9
22192.5
13672.7
11304.4
5018.35
3358.64
4000.38
4160.6
4746.95
4069.62
4250.04
11773.8
12670.3
11249.3
13215.4
181613
187079
191248
173872
178942
182857
170232
139624
115147
112371
185320
96665.4
115737
71108.3
73060.5
69609.3
74873.2
79007.4
86536.8
80679.1
84493.1
93414.9
104441
95385.2
102053
84136.2
88624
90755.3
82390.7
91087.4
78287.2
80429
94209.7
112494
177336
182911
183378
153735
147798
157894
114961
116195
120071
111291
133420
143552
137119
139622
162920
175022
166580
171096
144514
147487
151423
140819
177903
115282
120799
149582
143649
145435
57383
60015.2
85356.2
81211.3
81590.3
103984
112335
107629
108493
86036.5
85948.6
89633.6
82520.9
111344
116752
89162.1
84827.5
93008.2
58904.1
57942.3
61271.2
55710.1
75579.3
82298.2
78683.7
79032.9
48892.9
47284.7
41687.6
36594.1
35441.5
27564.8
25416.8
26157.6
26815.8
34476
35151.9
35829.6
33767.5
45141.9
46334.9
46452
44918.1
38523.8
36537.7
37925.5
37182.6
22453.9
25032.8
26458.2
35124.5
33689.4
54218.1
56618.7
53287.1
40929.3
34810.1
34047.9
37694.4
16101.9
14762.6
16755.7
14189
27241.8
30948.8
29754.3
28338.1
49486
54671.4
52568.6
51461.9
35029.3
33647.4
36429.4
32352.3
16022.7
15202.2
32012
31475.6
4100.13
867.245
1857.65
2087.83
2012.84
2128.49
2991.61
3837.52
2579.51
10717.7
12887.5
12392.1
11137.1
4505.74
3782.88
4566.77
3786.87
14210.9
13246.9
3618.28
4699.96
2669.13
2664.14
2484.23
2231.32
2363.27
2779.16
2546.13
2920.51
3202.2
2813.33
3263.8
210791
196742
103938
104095
64957.6
63818.6
75877.7
67054.3
83805.7
81793.9
122848
126000
111070
112585
107060
62684.1
61282.2
64763.7
565.19
632.751
1624.89
2068.43
2195.8
28310.7
11733.5
17932.3
17089.1
12579.9
15444.4
5534.11
2794.43
3795.13
3117.1
7838.18
217525
212721
143635
205462
182184
207792
177406
189697
87263.5
89228.2
102343
102275
130590
123436
144696
127668
212084
197379
192317
195953
100531
97712.7
103548
136281
156519
135011
134196
149632
138825
80988.8
66292.6
67529.2
77806.2
71215.8
91809.8
94652.5
88724.2
121313
130242
120590
116273
116154
53184.9
50455.9
61476
54550.6
51609.4
51531
33728.5
57718.3
27230.9
19927.3
22512.8
26528.2
24488.6
62615.6
56929.9
53555.8
52098.3
14139.8
12448.4
16092.8
44865.8
47520.8
42017.5
26630
18564.9
20078.3
25558.8
22324.8
2490.48
4183.32
1004.67
592.971
744.003
328.892
980.536
505.899
9259.79
10726.9
7803.07
16456.7
13989.6
10833.8
12185.6
3425.32
3256.65
3201.19
3519.12
3436.72
3713.81
3247.42
4090.63
4119.39
4047.35
4037.3
4073.88
158383
178072
86382.1
91495.3
80686.5
79671.3
77175.4
53344.9
59177
53811.4
57574.3
62018.2
60897.6
71754.9
74007.9
55500.2
59861
57218.6
70917.5
63528.2
65251.9
66141.4
63835.8
67824.4
75832.7
74761.7
61062.8
64488.3
62442.4
62861.2
95578.7
91613.5
108236
95383
96115.4
100906
70118.6
79900.7
97341.6
86577.5
74609.1
83652.8
68172.6
77224.2
86987.4
83503.8
50390.1
52117
50655.5
51703.4
71513.7
54341.7
53593.5
55090.7
53018.7
1846.46
5782.16
6041.23
2871.47
4953.97
2563.81
2725.52
2289.06
6726.43
5073.18
5493.22
2849.59
4290.84
9000.32
7004.39
8050.77
6217.07
5847.53
5375.78
21891.7
19789.2
20454.2
21201
19575.8
17569.9
18374.5
19016.1
16952.2
10013.4
6936.3
9660.19
11009.2
10992.9
20013.9
17827.7
19356.3
16711.2
16299