/*--------------------------------*- C++ -*----------------------------------*\
| =========                 |                                                 |
| \\      /  F ield         | OpenFOAM: The Open Source CFD Toolbox           |
|  \\    /   O peration     | Version:  2012                                  |
|   \\  /    A nd           | Website:  www.openfoam.com                      |
|    \\/     M anipulation  |                                                 |
\*---------------------------------------------------------------------------*/
FoamFile
{
    version     2.0;
    format      ascii;
    class       volVectorField;
    location    "0.107/solid";
    object      D;
}
// * * * * * * * * * * * * * * * * * * * * * * * * * * * * * * * * * * * * * //

dimensions      [0 1 0 0 0 0 0];


internalField   nonuniform List<vector> 
3125
(
(1.77106e-10 2.35659e-10 -7.52301e-12)
(1.75185e-10 2.31361e-10 -8.1687e-12)
(1.73853e-10 2.17974e-10 -4.75256e-12)
(1.72987e-10 2.1662e-10 -4.51804e-12)
(1.65048e-10 2.06979e-10 -4.95743e-12)
(1.63241e-10 2.05087e-10 -4.93976e-12)
(1.4653e-10 1.8425e-10 2.58888e-11)
(1.45206e-10 1.76454e-10 4.4113e-11)
(1.76339e-10 2.24277e-10 -6.52209e-12)
(1.75437e-10 2.22298e-10 -5.96596e-12)
(1.70331e-10 2.12922e-10 -4.39546e-12)
(1.69216e-10 2.11585e-10 -4.48311e-12)
(1.56239e-10 1.97988e-10 -2.32175e-12)
(1.53501e-10 1.95159e-10 7.1945e-13)
(1.76048e-10 2.39346e-10 -4.18455e-12)
(2.82895e-10 1.46007e-10 -4.12795e-12)
(2.59264e-10 9.61375e-10 -1.43043e-11)
(2.62642e-10 4.24721e-10 -5.67848e-12)
(2.7953e-10 1.4859e-10 -4.06946e-12)
(2.72699e-10 4.07143e-10 -7.3565e-12)
(2.80384e-10 1.44668e-10 -5.46827e-12)
(2.57841e-10 9.49082e-10 -1.54737e-11)
(1.75617e-10 2.28249e-10 -7.57081e-12)
(2.59726e-10 9.35058e-10 -1.18925e-11)
(2.59073e-10 4.26757e-10 -6.21705e-12)
(2.81636e-10 1.41671e-10 -6.73441e-12)
(2.80638e-10 3.87673e-10 -7.86566e-12)
(1.74625e-10 2.19307e-10 -4.95579e-12)
(2.82048e-10 1.32672e-10 -4.06253e-12)
(2.79651e-10 3.82996e-10 -7.64217e-12)
(2.82805e-10 1.33633e-10 -4.30068e-12)
(2.78785e-10 3.76857e-10 -7.34339e-12)
(2.81107e-10 1.31695e-10 -3.85798e-12)
(1.72207e-10 2.15359e-10 -4.3807e-12)
(2.79389e-10 3.82381e-10 -7.45956e-12)
(2.80327e-10 1.30685e-10 -3.87935e-12)
(2.72981e-10 3.64763e-10 -7.77627e-12)
(1.66637e-10 2.08657e-10 -4.78439e-12)
(2.72728e-10 1.24504e-10 -4.28047e-12)
(2.69405e-10 3.58335e-10 -7.61214e-12)
(2.74445e-10 1.25701e-10 -4.11405e-12)
(2.64772e-10 3.48659e-10 -4.74725e-12)
(2.7083e-10 1.23124e-10 -4.14575e-12)
(1.61179e-10 2.0297e-10 -4.71097e-12)
(2.68799e-10 3.57382e-10 -7.35816e-12)
(2.68639e-10 1.21615e-10 -3.887e-12)
(2.6423e-10 3.10823e-10 4.78546e-11)
(1.48406e-10 1.88754e-10 1.38866e-11)
(2.54585e-10 1.07082e-10 3.44168e-11)
(2.83409e-10 2.73463e-10 1.41307e-10)
(2.56871e-10 1.10575e-10 1.76477e-11)
(3.5985e-10 1.27827e-10 4.51383e-10)
(2.51409e-10 1.01063e-10 6.4279e-11)
(1.45567e-10 1.58542e-10 7.16177e-11)
(2.88512e-10 2.64767e-10 1.63861e-10)
(2.47685e-10 8.90573e-11 1.19089e-10)
(1.88482e-10 4.12171e-11 -1.07057e-12)
(2.38952e-10 1.24031e-09 -1.1371e-11)
(1.8833e-10 4.1285e-11 -1.36401e-12)
(1.90137e-10 3.98975e-11 -3.09378e-12)
(2.38051e-10 1.22171e-09 -1.12021e-11)
(2.41144e-10 1.20828e-09 -9.85894e-12)
(2.75501e-10 4.04254e-10 -7.62103e-12)
(1.76708e-10 2.26224e-10 -6.9296e-12)
(2.84151e-10 1.37563e-10 -5.27096e-12)
(2.78039e-10 3.97491e-10 -9.07136e-12)
(2.84117e-10 1.39001e-10 -6.15445e-12)
(2.40789e-10 1.19382e-09 -1.15404e-11)
(2.41944e-10 1.20876e-09 -1.08685e-11)
(1.91389e-10 3.85998e-11 -2.2715e-12)
(1.90506e-10 3.93299e-11 -2.68544e-12)
(2.80368e-10 3.88556e-10 -8.00013e-12)
(1.7502e-10 2.20655e-10 -5.41223e-12)
(2.8314e-10 1.36337e-10 -4.88648e-12)
(2.77504e-10 3.97088e-10 -8.83091e-12)
(2.82918e-10 1.34882e-10 -4.80668e-12)
(1.90845e-10 3.68804e-11 -1.9741e-12)
(1.91096e-10 3.73928e-11 -1.91663e-12)
(2.36383e-10 1.16737e-09 -8.60772e-12)
(2.38677e-10 1.17702e-09 -9.25071e-12)
(2.40233e-10 1.18774e-09 -1.10979e-11)
(2.39232e-10 1.17884e-09 -9.20777e-12)
(1.91153e-10 3.84279e-11 -1.96584e-12)
(1.91232e-10 3.76583e-11 -2.29901e-12)
(1.90544e-10 3.66989e-11 -1.67677e-12)
(1.89976e-10 3.61345e-11 -1.96519e-12)
(2.35612e-10 1.16398e-09 -8.51683e-12)
(2.33177e-10 1.15607e-09 -7.70175e-12)
(2.78547e-10 3.76259e-10 -7.25824e-12)
(1.71351e-10 2.14166e-10 -4.28944e-12)
(2.78385e-10 1.28855e-10 -3.8411e-12)
(2.76275e-10 3.71763e-10 -7.54494e-12)
(2.79482e-10 1.29749e-10 -3.71522e-12)
(2.28983e-10 1.14502e-09 -7.67128e-12)
(2.32201e-10 1.15375e-09 -7.85456e-12)
(1.88913e-10 3.54379e-11 -1.99089e-12)
(1.89652e-10 3.59362e-11 -1.67107e-12)
(2.7342e-10 3.6553e-10 -7.85189e-12)
(1.68007e-10 2.10173e-10 -4.65891e-12)
(2.77186e-10 1.27871e-10 -3.87014e-12)
(2.75898e-10 3.71112e-10 -7.46885e-12)
(2.75887e-10 1.26825e-10 -4.09208e-12)
(1.85671e-10 3.37704e-11 -2.26295e-12)
(1.87019e-10 3.44214e-11 -1.90745e-12)
(2.17214e-10 1.11689e-09 -6.80051e-12)
(2.22408e-10 1.12889e-09 -7.664e-12)
(2.27821e-10 1.14193e-09 -7.84231e-12)
(2.23926e-10 1.13224e-09 -7.54498e-12)
(1.88492e-10 3.52367e-11 -1.74731e-12)
(1.87513e-10 3.46529e-11 -2.14754e-12)
(1.85e-10 3.34972e-11 -1.98929e-12)
(1.83258e-10 3.27306e-11 -2.02742e-12)
(2.15203e-10 1.1125e-09 -6.48277e-12)
(2.64134e-10 3.47332e-10 -3.89902e-12)
(1.58853e-10 2.00597e-10 -3.9223e-12)
(2.63682e-10 1.17981e-10 -1.23616e-12)
(2.60785e-10 3.35116e-10 6.25732e-12)
(2.66302e-10 1.19863e-10 -2.9432e-12)
(1.80236e-10 3.16021e-11 -4.97038e-13)
(1.82431e-10 3.24151e-11 -1.55702e-12)
(2.62949e-10 3.14279e-10 4.03215e-11)
(1.50763e-10 1.92147e-10 5.80797e-12)
(2.61229e-10 1.15774e-10 2.09266e-12)
(2.60524e-10 3.33112e-10 8.86634e-12)
(2.58735e-10 1.13466e-10 7.81345e-12)
(1.73565e-10 3.06821e-11 2.1097e-11)
(1.75989e-10 3.05063e-11 7.51065e-12)
(1.79251e-10 3.12865e-11 5.78043e-13)
(1.76945e-10 3.06752e-11 4.76574e-12)
(1.72097e-10 3.0938e-11 2.9419e-11)
(1.63423e-10 3.1609e-11 8.58137e-11)
(3.80762e-10 9.06375e-11 5.17634e-10)
(1.45772e-10 2.46501e-11 1.05411e-10)
(1.62776e-10 2.8353e-11 1.23694e-10)
(3.62161e-10 8.70273e-11 4.20598e-10)
(6.70706e-11 -1.11525e-11 1.12338e-10)
(4.17491e-10 5.61845e-10 -5.57826e-12)
(2.70585e-10 4.19625e-10 2.44736e-12)
(4.91365e-10 3.40401e-10 -3.55582e-12)
(3.31284e-10 7.92524e-10 -1.87352e-12)
(4.1932e-10 5.5979e-10 -7.09627e-12)
(2.67834e-10 4.22649e-10 -5.89062e-13)
(4.8967e-10 3.41446e-10 -4.92625e-12)
(3.28167e-10 7.84014e-10 -6.76804e-12)
(4.16493e-10 5.55683e-10 -7.68982e-12)
(4.9312e-10 3.40914e-10 -1.45398e-12)
(3.3135e-10 7.89751e-10 -5.6947e-12)
(4.1393e-10 5.43724e-10 -1.25096e-11)
(3.3162e-10 7.60636e-10 -1.07921e-11)
(2.63701e-10 4.17268e-10 -6.43424e-12)
(4.91182e-10 3.30134e-10 -1.22887e-11)
(4.859e-10 3.35882e-10 -9.6203e-12)
(3.27566e-10 7.64984e-10 -1.22962e-11)
(4.17313e-10 5.39409e-10 -1.19496e-11)
(4.12159e-10 5.47074e-10 -1.10376e-11)
(2.60103e-10 4.21635e-10 -6.55071e-12)
(4.84745e-10 3.42597e-10 -4.63102e-12)
(3.24553e-10 7.77881e-10 -1.03107e-11)
(4.13497e-10 5.52302e-10 -9.69351e-12)
(4.83137e-10 3.39872e-10 -1.01711e-11)
(3.24316e-10 7.70696e-10 -1.02504e-11)
(4.18339e-10 5.19849e-10 -7.91814e-12)
(3.35594e-10 7.36356e-10 -9.95697e-12)
(2.80482e-10 3.85532e-10 -7.9323e-12)
(4.95424e-10 3.14781e-10 -6.65596e-12)
(4.18955e-10 5.21589e-10 -8.92347e-12)
(4.94867e-10 3.13545e-10 -8.43263e-12)
(3.35158e-10 7.34246e-10 -8.28176e-12)
(4.17665e-10 5.18771e-10 -8.33486e-12)
(2.79994e-10 3.85245e-10 -7.75752e-12)
(4.93525e-10 3.11494e-10 -8.30324e-12)
(3.33853e-10 7.30286e-10 -7.9322e-12)
(4.16907e-10 5.16888e-10 -7.59466e-12)
(4.94042e-10 3.12957e-10 -6.14768e-12)
(3.34447e-10 7.32469e-10 -9.46939e-12)
(4.14633e-10 5.1266e-10 -7.88548e-12)
(3.31635e-10 7.22125e-10 -7.39285e-12)
(2.78785e-10 3.79397e-10 -7.2311e-12)
(4.90956e-10 3.06845e-10 -8.17069e-12)
(4.9102e-10 3.08522e-10 -5.97966e-12)
(3.32042e-10 7.23948e-10 -8.90809e-12)
(4.14133e-10 5.10923e-10 -7.20796e-12)
(4.15186e-10 5.13786e-10 -7.33684e-12)
(2.78836e-10 3.80169e-10 -7.39478e-12)
(4.92635e-10 3.10696e-10 -5.75981e-12)
(3.33191e-10 7.28189e-10 -9.26007e-12)
(4.16168e-10 5.15651e-10 -8.00041e-12)
(4.9156e-10 3.09456e-10 -8.02577e-12)
(3.32515e-10 7.25787e-10 -7.70412e-12)
(4.03186e-10 4.95672e-10 -7.66727e-12)
(3.22957e-10 7.04113e-10 -9.21384e-12)
(2.71348e-10 3.62285e-10 -7.93606e-12)
(4.81916e-10 2.97079e-10 -6.18309e-12)
(4.04891e-10 4.97832e-10 -8.17337e-12)
(4.8014e-10 2.95655e-10 -8.40603e-12)
(3.21505e-10 7.01412e-10 -7.86998e-12)
(4.01776e-10 4.94228e-10 -8.29571e-12)
(2.70626e-10 3.61634e-10 -7.77016e-12)
(4.77447e-10 2.92586e-10 -8.65516e-12)
(3.18679e-10 6.96172e-10 -7.62131e-12)
(4.00237e-10 4.91717e-10 -7.72518e-12)
(4.78615e-10 2.94672e-10 -6.43984e-12)
(3.20052e-10 6.99008e-10 -9.12015e-12)
(3.9486e-10 4.85337e-10 -7.37397e-12)
(3.11859e-10 6.82951e-10 -5.13913e-12)
(2.66116e-10 3.53075e-10 -6.27731e-12)
(4.70421e-10 2.85415e-10 -6.98714e-12)
(4.71921e-10 2.88077e-10 -5.49926e-12)
(3.1357e-10 6.86708e-10 -7.51892e-12)
(3.92899e-10 4.82088e-10 -6.07984e-12)
(3.96619e-10 4.87237e-10 -7.20522e-12)
(2.66961e-10 3.53973e-10 -6.77791e-12)
(4.7591e-10 2.91326e-10 -6.07987e-12)
(3.17139e-10 6.93424e-10 -8.74103e-12)
(3.98745e-10 4.90038e-10 -8.07165e-12)
(4.73785e-10 2.89407e-10 -7.90022e-12)
(3.15354e-10 6.89916e-10 -6.94017e-12)
(3.76091e-10 4.41236e-10 5.01119e-11)
(2.99165e-10 6.33041e-10 4.77836e-11)
(2.70513e-10 2.97531e-10 7.70059e-11)
(4.58201e-10 2.58293e-10 3.72671e-11)
(3.76754e-10 4.48501e-10 3.44125e-11)
(4.58812e-10 2.52247e-10 5.14788e-11)
(2.99768e-10 6.23249e-10 6.73998e-11)
(3.75709e-10 4.35358e-10 6.61202e-11)
(2.71995e-10 2.93706e-10 8.99133e-11)
(4.61603e-10 2.38219e-10 9.64148e-11)
(3.03433e-10 5.97139e-10 1.21295e-10)
(3.76175e-10 4.24063e-10 9.11398e-11)
(4.59242e-10 2.47561e-10 7.17054e-11)
(3.00964e-10 6.12065e-10 8.95543e-11)
(3.83272e-10 3.64861e-10 2.10846e-10)
(3.41184e-10 4.44162e-10 3.5066e-10)
(3.18354e-10 2.08946e-10 2.93533e-10)
(4.83312e-10 1.48749e-10 3.28982e-10)
(4.7386e-10 1.89416e-10 2.40942e-10)
(3.24467e-10 5.0655e-10 2.70639e-10)
(3.90241e-10 3.14059e-10 2.8483e-10)
(3.80138e-10 3.89903e-10 1.61114e-10)
(3.10749e-10 2.24832e-10 2.53903e-10)
(4.65226e-10 2.28459e-10 1.30603e-10)
(3.08064e-10 5.77845e-10 1.58595e-10)
(3.77729e-10 4.13207e-10 1.18382e-10)
(4.70261e-10 2.09243e-10 1.78564e-10)
(3.14628e-10 5.48112e-10 2.0951e-10)
(5.63443e-10 1.76174e-10 -7.51384e-13)
(5.49607e-10 8.29823e-11 -2.62098e-12)
(1.878e-10 4.09516e-11 -7.40845e-13)
(5.50665e-10 8.10506e-11 -6.26816e-13)
(5.58818e-10 1.80265e-10 -3.72344e-12)
(5.63842e-10 1.76841e-10 1.70917e-13)
(1.86835e-10 4.12222e-11 -6.93459e-13)
(5.49877e-10 8.02673e-11 -1.55521e-12)
(1.38108e-10 1.00922e-09 -3.33853e-13)
(2.4077e-10 1.2617e-09 -1.02481e-11)
(1.8023e-10 1.08677e-09 -8.53764e-12)
(1.81863e-10 1.10688e-09 -4.89761e-12)
(2.41841e-10 1.27826e-09 -6.46339e-12)
(1.82069e-10 1.11032e-09 -3.49776e-12)
(1.36745e-10 9.92862e-10 -5.81705e-12)
(1.37925e-10 1.00802e-09 -2.82475e-12)
(5.63464e-10 1.71251e-10 -9.78857e-12)
(5.54197e-10 1.79225e-10 -7.54928e-12)
(5.44258e-10 8.60139e-11 -2.61395e-12)
(1.88789e-10 4.11642e-11 -2.56034e-12)
(5.43732e-10 8.619e-11 -6.57e-12)
(5.55534e-10 1.81786e-10 -2.98912e-12)
(5.52804e-10 1.80919e-10 -8.56341e-12)
(5.50904e-10 7.95478e-11 -8.16586e-12)
(1.89052e-10 4.06144e-11 -2.67773e-12)
(5.45718e-10 8.35914e-11 -6.06694e-12)
(1.45493e-10 9.65081e-10 -9.01134e-12)
(1.41047e-10 9.70538e-10 -9.40177e-12)
(2.38412e-10 1.21035e-09 -1.00348e-11)
(1.79842e-10 1.08092e-09 -9.09377e-12)
(1.81912e-10 1.06539e-09 -9.71326e-12)
(1.86878e-10 1.05914e-09 -1.02876e-11)
(2.39759e-10 1.20753e-09 -9.61448e-12)
(1.83199e-10 1.06295e-09 -9.8388e-12)
(1.36431e-10 9.88256e-10 -7.70028e-12)
(1.39329e-10 9.73596e-10 -8.03846e-12)
(4.21251e-10 5.34876e-10 -1.05392e-11)
(3.35052e-10 7.5794e-10 -1.2129e-11)
(2.79173e-10 3.99454e-10 -8.90197e-12)
(4.95143e-10 3.2698e-10 -9.34399e-12)
(4.19974e-10 5.37581e-10 -1.2106e-11)
(3.36556e-10 7.54967e-10 -1.03804e-11)
(4.97238e-10 3.24245e-10 -1.03497e-11)
(4.2109e-10 5.33475e-10 -1.06668e-11)
(2.7841e-10 3.99666e-10 -8.99532e-12)
(3.35577e-10 7.49494e-10 -1.0058e-11)
(4.96004e-10 3.22357e-10 -9.59115e-12)
(3.36236e-10 7.52701e-10 -1.16063e-11)
(4.96837e-10 3.23771e-10 -7.60335e-12)
(4.20183e-10 5.30919e-10 -9.67892e-12)
(1.46653e-10 9.64261e-10 -1.02007e-11)
(1.48601e-10 9.59189e-10 -9.65118e-12)
(2.41584e-10 1.2005e-09 -1.19712e-11)
(1.88714e-10 1.04452e-09 -1.08427e-11)
(1.89103e-10 1.0522e-09 -1.09015e-11)
(1.87781e-10 1.0586e-09 -1.03759e-11)
(2.42127e-10 1.20607e-09 -1.15705e-11)
(1.89188e-10 1.05387e-09 -1.10312e-11)
(1.48554e-10 9.51384e-10 -9.51246e-12)
(1.48571e-10 9.58035e-10 -1.05741e-11)
(5.65487e-10 1.69684e-10 -7.97198e-12)
(5.69324e-10 1.66515e-10 -8.387e-12)
(5.55548e-10 7.4884e-11 -6.33015e-12)
(1.91253e-10 3.87219e-11 -2.145e-12)
(5.55614e-10 7.52523e-11 -4.98969e-12)
(5.67686e-10 1.65696e-10 -8.01012e-12)
(5.68802e-10 1.66569e-10 -6.57753e-12)
(5.53992e-10 7.67788e-11 -6.21206e-12)
(1.91266e-10 3.89492e-11 -2.52595e-12)
(5.56519e-10 7.52046e-11 -6.9411e-12)
(4.18554e-10 5.24918e-10 -9.74646e-12)
(2.78536e-10 3.92481e-10 -8.09218e-12)
(3.35472e-10 7.38018e-10 -8.82617e-12)
(4.9514e-10 3.15927e-10 -9.53469e-12)
(4.18919e-10 5.22689e-10 -8.76068e-12)
(3.34939e-10 7.40301e-10 -1.06775e-11)
(4.94043e-10 3.18373e-10 -7.54072e-12)
(4.18495e-10 5.26491e-10 -9.31394e-12)
(2.77812e-10 3.93955e-10 -8.37324e-12)
(3.34815e-10 7.46352e-10 -1.13791e-11)
(4.94656e-10 3.21655e-10 -7.08521e-12)
(4.19286e-10 5.29134e-10 -1.00199e-11)
(3.34527e-10 7.42894e-10 -9.65783e-12)
(4.93769e-10 3.1993e-10 -9.60163e-12)
(5.67619e-10 1.60285e-10 -6.09023e-12)
(5.66799e-10 1.59399e-10 -7.22003e-12)
(5.53155e-10 6.99794e-11 -5.61471e-12)
(1.90924e-10 3.70485e-11 -1.7662e-12)
(5.53212e-10 7.0731e-11 -4.08806e-12)
(5.65697e-10 1.57726e-10 -7.0758e-12)
(5.66231e-10 1.59263e-10 -5.53345e-12)
(5.5455e-10 7.12215e-11 -4.46581e-12)
(1.91141e-10 3.72282e-11 -2.01782e-12)
(5.5418e-10 7.09713e-11 -5.76062e-12)
(1.49992e-10 9.37169e-10 -9.24184e-12)
(1.4986e-10 9.3316e-10 -8.04501e-12)
(2.37277e-10 1.17087e-09 -8.97623e-12)
(1.87519e-10 1.02034e-09 -8.57332e-12)
(1.88372e-10 1.02482e-09 -8.73449e-12)
(1.89051e-10 1.03009e-09 -9.08357e-12)
(2.3807e-10 1.1742e-09 -9.05596e-12)
(1.88645e-10 1.02599e-09 -8.96017e-12)
(1.49016e-10 9.28171e-10 -7.66166e-12)
(1.4963e-10 9.32195e-10 -8.85764e-12)
(1.50008e-10 9.37925e-10 -8.35007e-12)
(1.49673e-10 9.41315e-10 -9.75583e-12)
(1.88627e-10 1.04232e-09 -1.06185e-11)
(2.39924e-10 1.18307e-09 -1.02022e-11)
(1.89007e-10 1.03547e-09 -1.00081e-11)
(1.48588e-10 9.4943e-10 -1.0429e-11)
(1.49403e-10 9.427e-10 -8.95287e-12)
(1.89155e-10 1.03089e-09 -9.27765e-12)
(2.39649e-10 1.18054e-09 -9.66625e-12)
(1.89111e-10 1.03417e-09 -9.7053e-12)
(5.67518e-10 1.60811e-10 -7.95628e-12)
(5.65248e-10 1.64109e-10 -6.58163e-12)
(5.53878e-10 7.50339e-11 -4.61532e-12)
(1.91186e-10 3.8266e-11 -2.31443e-12)
(5.5315e-10 7.49028e-11 -6.45844e-12)
(5.66728e-10 1.65697e-10 -6.25736e-12)
(5.6517e-10 1.64752e-10 -8.20758e-12)
(5.54508e-10 7.2161e-11 -6.41137e-12)
(1.9103e-10 3.79788e-11 -2.10691e-12)
(5.53088e-10 7.3876e-11 -4.91676e-12)
(5.63272e-10 1.54305e-10 -7.00976e-12)
(5.62971e-10 1.56455e-10 -5.40166e-12)
(5.52101e-10 6.96424e-11 -3.87455e-12)
(1.90377e-10 3.65606e-11 -1.93121e-12)
(5.51078e-10 6.95844e-11 -5.51471e-12)
(5.65117e-10 1.57494e-10 -5.32312e-12)
(5.63306e-10 1.56824e-10 -6.99675e-12)
(5.50662e-10 6.78791e-11 -5.58101e-12)
(1.90057e-10 3.63536e-11 -1.74083e-12)
(5.5037e-10 6.8986e-11 -3.99838e-12)
(1.47729e-10 9.18422e-10 -7.17517e-12)
(1.48508e-10 9.21358e-10 -8.25234e-12)
(2.34924e-10 1.16077e-09 -8.10724e-12)
(1.87274e-10 1.01904e-09 -8.40909e-12)
(1.8679e-10 1.01432e-09 -8.20483e-12)
(1.85553e-10 1.01014e-09 -7.94587e-12)
(2.34125e-10 1.15829e-09 -7.94625e-12)
(1.8653e-10 1.0133e-09 -8.008e-12)
(1.48858e-10 9.26984e-10 -8.58605e-12)
(1.48668e-10 9.22342e-10 -7.39061e-12)
(4.12339e-10 5.08343e-10 -7.03861e-12)
(3.30954e-10 7.20582e-10 -8.77926e-12)
(2.77456e-10 3.74524e-10 -7.46761e-12)
(4.90315e-10 3.06056e-10 -5.60241e-12)
(4.13487e-10 5.09937e-10 -7.64029e-12)
(3.30001e-10 7.18581e-10 -7.40388e-12)
(4.89087e-10 3.05048e-10 -7.78497e-12)
(4.11415e-10 5.07305e-10 -7.70372e-12)
(2.76955e-10 3.74095e-10 -7.36091e-12)
(3.28224e-10 7.14852e-10 -7.48513e-12)
(4.87416e-10 3.02845e-10 -8.17404e-12)
(3.29044e-10 7.16868e-10 -8.78953e-12)
(4.8805e-10 3.04382e-10 -5.80823e-12)
(4.10478e-10 5.05495e-10 -7.24029e-12)
(1.47421e-10 9.17638e-10 -8.14992e-12)
(1.46667e-10 9.13747e-10 -7.22035e-12)
(2.30181e-10 1.14798e-09 -7.80793e-12)
(1.82419e-10 1.00023e-09 -7.98707e-12)
(1.83774e-10 1.00414e-09 -7.84784e-12)
(1.85186e-10 1.00925e-09 -7.85111e-12)
(2.31254e-10 1.15089e-09 -7.75006e-12)
(1.84187e-10 1.00522e-09 -7.97169e-12)
(1.45161e-10 9.09275e-10 -7.21959e-12)
(1.46298e-10 9.12818e-10 -8.12542e-12)
(5.6288e-10 1.53977e-10 -5.27282e-12)
(5.60901e-10 1.53474e-10 -6.86074e-12)
(5.47463e-10 6.60616e-11 -5.63214e-12)
(1.89114e-10 3.5628e-11 -1.72258e-12)
(5.47683e-10 6.69384e-11 -3.95419e-12)
(5.59606e-10 1.51485e-10 -7.11443e-12)
(5.60264e-10 1.5326e-10 -5.30871e-12)
(5.4992e-10 6.73068e-11 -3.84791e-12)
(1.89469e-10 3.58089e-11 -1.88557e-12)
(5.48789e-10 6.73006e-11 -5.41328e-12)
(4.07133e-10 5.01188e-10 -8.07734e-12)
(2.74235e-10 3.68281e-10 -7.62664e-12)
(3.24138e-10 7.06225e-10 -7.76294e-12)
(4.83093e-10 2.98065e-10 -8.58778e-12)
(4.06036e-10 4.99134e-10 -7.62669e-12)
(3.2512e-10 7.0848e-10 -9.07994e-12)
(4.83827e-10 2.9986e-10 -6.23672e-12)
(4.0816e-10 5.02417e-10 -7.36866e-12)
(2.74683e-10 3.68924e-10 -7.7145e-12)
(3.27265e-10 7.12917e-10 -8.99606e-12)
(4.86386e-10 3.02001e-10 -5.79105e-12)
(4.09533e-10 5.04315e-10 -7.81881e-12)
(3.26154e-10 7.10508e-10 -7.69954e-12)
(4.84927e-10 3.00755e-10 -8.13163e-12)
(5.54558e-10 1.47656e-10 -5.88348e-12)
(5.51744e-10 1.46815e-10 -7.53632e-12)
(5.38133e-10 6.16176e-11 -6.18122e-12)
(1.86048e-10 3.40163e-11 -2.00832e-12)
(5.38869e-10 6.26622e-11 -4.5757e-12)
(5.49411e-10 1.44188e-10 -7.6523e-12)
(5.50839e-10 1.4647e-10 -6.00426e-12)
(5.42152e-10 6.33101e-11 -4.38858e-12)
(1.86646e-10 3.42561e-11 -2.15466e-12)
(5.40495e-10 6.32053e-11 -6.00276e-12)
(1.41589e-10 8.97485e-10 -8.27149e-12)
(1.40235e-10 8.92267e-10 -7.23239e-12)
(2.1915e-10 1.12102e-09 -7.27591e-12)
(1.73468e-10 9.75108e-10 -7.39598e-12)
(1.75678e-10 9.80627e-10 -7.73362e-12)
(1.78041e-10 9.87553e-10 -7.94356e-12)
(2.2087e-10 1.12497e-09 -7.44544e-12)
(1.76345e-10 9.82105e-10 -7.94237e-12)
(1.3778e-10 8.8592e-10 -6.67022e-12)
(1.39649e-10 8.90974e-10 -8.04402e-12)
(1.42084e-10 8.9859e-10 -7.30264e-12)
(1.43517e-10 9.02474e-10 -8.24321e-12)
(1.81975e-10 9.99069e-10 -7.92887e-12)
(2.26689e-10 1.13854e-09 -7.70381e-12)
(1.80808e-10 9.94249e-10 -8.06443e-12)
(1.44795e-10 9.08238e-10 -8.22555e-12)
(1.4392e-10 9.03568e-10 -7.33157e-12)
(1.78628e-10 9.88798e-10 -8.03021e-12)
(2.25399e-10 1.13539e-09 -7.71856e-12)
(1.80307e-10 9.9305e-10 -7.94371e-12)
(5.55225e-10 1.48056e-10 -7.53919e-12)
(5.55988e-10 1.50157e-10 -5.72579e-12)
(5.46337e-10 6.55604e-11 -4.02362e-12)
(1.88222e-10 3.50911e-11 -2.0146e-12)
(5.44968e-10 6.55029e-11 -5.70861e-12)
(5.58993e-10 1.51174e-10 -5.45424e-12)
(5.56626e-10 1.50488e-10 -7.23534e-12)
(5.43418e-10 6.39565e-11 -5.99612e-12)
(1.87766e-10 3.48765e-11 -1.87743e-12)
(5.43745e-10 6.49765e-11 -4.31713e-12)
(5.42228e-10 1.39162e-10 -6.09178e-12)
(5.44129e-10 1.41937e-10 -5.344e-12)
(5.36466e-10 6.08394e-11 -4.46526e-12)
(1.84512e-10 3.3294e-11 -2.16469e-12)
(5.34495e-10 6.05882e-11 -5.85371e-12)
(5.48529e-10 1.43684e-10 -5.91563e-12)
(5.4521e-10 1.4241e-10 -7.074e-12)
(5.31329e-10 5.87328e-11 -5.30101e-12)
(1.83744e-10 3.30132e-11 -1.91663e-12)
(5.32416e-10 5.99152e-11 -4.13814e-12)
(1.3241e-10 8.69146e-10 -3.06091e-12)
(1.34681e-10 8.75966e-10 -5.9689e-12)
(2.13139e-10 1.10744e-09 -5.68374e-12)
(1.72692e-10 9.7348e-10 -7.11009e-12)
(1.70494e-10 9.66416e-10 -6.25634e-12)
(1.66847e-10 9.57146e-10 -3.80186e-12)
(2.10841e-10 1.1023e-09 -4.71391e-12)
(1.6962e-10 9.64484e-10 -5.67427e-12)
(1.37128e-10 8.84472e-10 -7.42727e-12)
(1.35392e-10 8.77718e-10 -5.53914e-12)
(3.88605e-10 4.76226e-10 -3.38541e-12)
(3.1004e-10 6.79286e-10 -5.08062e-12)
(2.62445e-10 3.42501e-10 -9.5254e-13)
(4.68671e-10 2.83683e-10 -3.6045e-12)
(3.91104e-10 4.79881e-10 -5.58637e-12)
(3.07984e-10 6.74673e-10 -1.74361e-12)
(4.66321e-10 2.81068e-10 -4.02489e-12)
(3.8653e-10 4.73723e-10 -2.09461e-12)
(2.61505e-10 3.41275e-10 5.88077e-13)
(3.04153e-10 6.6527e-10 4.71203e-12)
(4.62673e-10 2.7584e-10 5.3216e-13)
(3.05955e-10 6.70322e-10 -3.06199e-13)
(4.64211e-10 2.79287e-10 -1.67177e-13)
(3.84353e-10 4.69508e-10 1.40105e-12)
(1.31612e-10 8.67219e-10 -3.15859e-12)
(1.29507e-10 8.58328e-10 1.31712e-12)
(1.58786e-10 9.33266e-10 8.46909e-12)
(1.61976e-10 9.43154e-10 2.2153e-12)
(1.65856e-10 9.54998e-10 -2.8757e-12)
(1.63034e-10 9.45784e-10 5.45119e-13)
(1.26321e-10 8.46503e-10 9.35012e-12)
(1.28684e-10 8.55952e-10 2.00505e-12)
(5.41219e-10 1.38459e-10 -3.97053e-12)
(5.3763e-10 1.36565e-10 -3.37554e-12)
(5.23268e-10 5.52236e-11 -6.43984e-13)
(1.80848e-10 3.18902e-11 -8.33297e-13)
(5.2458e-10 5.65341e-11 -8.2329e-13)
(5.34412e-10 1.32558e-10 1.06405e-12)
(5.36337e-10 1.35966e-10 -9.50108e-13)
(5.29337e-10 5.77171e-11 -3.02108e-12)
(1.81804e-10 3.2185e-11 -1.44485e-12)
(5.27111e-10 5.72713e-11 -3.55931e-12)
(3.78704e-10 4.58386e-10 1.55599e-11)
(2.60387e-10 3.23794e-10 2.31065e-11)
(2.98979e-10 6.40678e-10 3.51726e-11)
(4.5775e-10 2.62298e-10 2.46183e-11)
(3.77309e-10 4.52757e-10 2.5032e-11)
(2.99686e-10 6.47834e-10 2.28982e-11)
(4.58082e-10 2.67045e-10 1.78058e-11)
(3.80387e-10 4.61761e-10 1.02487e-11)
(2.60747e-10 3.25705e-10 1.86388e-11)
(3.02572e-10 6.60235e-10 8.14564e-12)
(4.61274e-10 2.73336e-10 6.31754e-12)
(3.82637e-10 4.6656e-10 4.30307e-12)
(3.00985e-10 6.54012e-10 1.58686e-11)
(4.59523e-10 2.69635e-10 9.77978e-12)
(5.30004e-10 1.21683e-10 3.08537e-11)
(5.31323e-10 1.1654e-10 5.04553e-11)
(5.12079e-10 4.55053e-11 6.3203e-11)
(1.74244e-10 3.05859e-11 1.53598e-11)
(5.12487e-10 4.72938e-11 4.67749e-11)
(5.35156e-10 1.07187e-10 9.51253e-11)
(5.31084e-10 1.15133e-10 6.0884e-11)
(5.15095e-10 4.92703e-11 2.36743e-11)
(1.75397e-10 3.04565e-11 1.07639e-11)
(5.1457e-10 4.79162e-11 3.24664e-11)
(1.22784e-10 8.1026e-10 5.31449e-11)
(1.24367e-10 7.90917e-10 8.49599e-11)
(1.52922e-10 8.43837e-10 1.42641e-10)
(1.50743e-10 8.71776e-10 9.42896e-11)
(1.51187e-10 8.96725e-10 5.21642e-11)
(1.50707e-10 8.78093e-10 8.18109e-11)
(1.29938e-10 7.554e-10 1.49643e-10)
(1.25204e-10 7.84493e-10 9.72037e-11)
(1.22794e-10 8.14374e-10 4.62291e-11)
(1.23622e-10 8.28229e-10 2.66881e-11)
(1.57708e-10 9.30439e-10 1.1217e-11)
(1.55059e-10 9.1825e-10 2.18099e-11)
(1.25587e-10 8.43834e-10 1.11316e-11)
(1.24094e-10 8.31685e-10 2.29169e-11)
(1.51845e-10 9.00838e-10 4.455e-11)
(1.54119e-10 9.14671e-10 2.64505e-11)
(5.29911e-10 1.233e-10 2.41918e-11)
(5.2997e-10 1.27786e-10 1.43306e-11)
(5.21296e-10 5.39189e-11 3.34005e-12)
(1.78586e-10 3.1076e-11 1.50212e-12)
(5.19389e-10 5.31488e-11 5.1776e-12)
(5.33563e-10 1.31541e-10 4.36125e-12)
(5.31002e-10 1.28608e-10 9.89039e-12)
(5.16055e-10 5.09835e-11 1.48543e-11)
(1.77538e-10 3.08709e-11 3.14518e-12)
(5.16856e-10 5.24471e-11 1.08344e-11)
(5.52869e-10 4.61797e-11 3.46436e-10)
(5.45464e-10 8.05041e-11 2.13197e-10)
(5.11708e-10 4.23544e-11 8.80461e-11)
(1.70671e-10 3.11502e-11 4.16963e-11)
(5.10047e-10 3.85765e-11 1.22316e-10)
(5.36776e-10 1.03411e-10 1.12738e-10)
(5.44942e-10 8.6959e-11 1.80483e-10)
(4.87123e-10 2.9548e-11 2.39431e-10)
(1.68134e-10 3.21184e-11 5.85209e-11)
(5.03793e-10 3.54814e-11 1.69536e-10)
(1.83542e-10 5.56457e-10 4.02265e-10)
(1.50538e-10 6.6677e-10 2.85258e-10)
(1.54206e-10 8.33577e-10 1.62449e-10)
(1.63338e-10 7.80268e-10 2.35506e-10)
(1.98177e-10 6.50502e-10 3.63112e-10)
(1.68073e-10 7.57799e-10 2.64771e-10)
(1.3228e-10 7.4482e-10 1.70389e-10)
(1.44623e-10 6.89661e-10 2.52592e-10)
(4.48525e-10 1.63918e-10 4.9021e-10)
(3.72829e-10 3.62593e-10 4.4193e-10)
(4.7557e-10 -4.11684e-11 7.58275e-10)
(5.05386e-10 1.03674e-10 4.39396e-10)
(4.14521e-10 2.45772e-10 3.73802e-10)
(4.27616e-10 2.75871e-10 5.48117e-10)
(5.41162e-10 2.34218e-11 5.92241e-10)
(4.19002e-10 1.56493e-10 4.66909e-10)
(4.28966e-10 3.85903e-10 5.28147e-10)
(4.0005e-10 4.37881e-11 4.73482e-10)
(8.11246e-11 -4.12951e-11 1.63942e-10)
(4.96923e-10 -1.07768e-10 6.08513e-10)
(7.33799e-11 -1.94641e-11 1.31654e-10)
(4.63646e-10 1.03175e-10 5.25999e-10)
(5.32762e-10 -8.33453e-11 8.3388e-10)
(4.55878e-10 2.9866e-10 6.02149e-10)
(5.8714e-10 -9.46466e-11 6.85609e-10)
(2.00698e-10 5.11863e-10 4.45815e-10)
(3.00593e-10 3.68348e-10 5.77413e-10)
(3.66023e-10 4.49566e-10 5.28579e-10)
(2.13635e-10 6.08898e-10 3.99481e-10)
(3.09184e-10 4.70035e-10 5.01634e-10)
(3.57612e-10 3.40086e-10 6.19362e-10)
(5.55457e-10 2.94764e-11 4.08246e-10)
(5.91631e-10 -8.32931e-11 6.58895e-10)
(8.11444e-11 -4.66977e-11 1.74852e-10)
(5.24826e-10 -1.42281e-10 6.35911e-10)
(6.23735e-10 -1.48997e-10 7.31972e-10)
(4.69014e-10 1.20688e-11 3.45526e-10)
(1.52046e-10 3.66391e-13 1.98617e-10)
(4.66126e-10 -2.62695e-11 4.88858e-10)
(3.98352e-10 5.4617e-10 1.02138e-12)
(2.61259e-10 4.27031e-10 1.02796e-11)
(4.15369e-10 3.69932e-10 4.81393e-12)
(2.6743e-10 6.11311e-10 5.85181e-12)
(4.04645e-10 5.40104e-10 -4.10978e-12)
(2.653e-10 4.23692e-10 -4.17418e-12)
(4.17752e-10 3.68745e-10 -5.09916e-12)
(2.67253e-10 6.06885e-10 -4.7699e-12)
(4.01596e-10 5.39727e-10 -4.81281e-12)
(4.21355e-10 3.67607e-10 -2.72836e-12)
(2.69779e-10 6.06968e-10 -4.25867e-12)
(4.05006e-10 5.24006e-10 -1.08123e-11)
(2.76227e-10 5.8553e-10 -8.8433e-12)
(2.70153e-10 4.10098e-10 -6.79167e-12)
(4.25214e-10 3.53236e-10 -9.57913e-12)
(4.21632e-10 3.56538e-10 -8.08178e-12)
(2.73773e-10 5.87829e-10 -9.13339e-12)
(4.07803e-10 5.21298e-10 -1.06466e-11)
(3.97262e-10 5.37605e-10 -7.7946e-12)
(2.58715e-10 4.25803e-10 -6.53877e-12)
(4.13469e-10 3.70977e-10 -4.90568e-12)
(2.63764e-10 6.06663e-10 -6.37751e-12)
(3.98983e-10 5.38826e-10 -6.21758e-12)
(4.11349e-10 3.7066e-10 -7.34059e-12)
(2.63527e-10 6.04156e-10 -6.75939e-12)
(4.123e-10 5.01489e-10 -8.3592e-12)
(2.8241e-10 5.63891e-10 -8.78419e-12)
(2.81291e-10 3.86533e-10 -8.03288e-12)
(4.31264e-10 3.36277e-10 -7.49421e-12)
(4.12106e-10 5.02226e-10 -8.82852e-12)
(4.31453e-10 3.35416e-10 -8.61482e-12)
(2.83065e-10 5.62439e-10 -8.08805e-12)
(3.36562e-10 5.90095e-10 -9.83252e-12)
(2.91698e-10 8.73933e-10 -8.9593e-12)
(3.35765e-10 5.87924e-10 -7.26744e-12)
(2.92472e-10 8.76533e-10 -9.79886e-12)
(3.37221e-10 5.91299e-10 -7.6188e-12)
(2.93681e-10 8.81081e-10 -1.01771e-11)
(3.3779e-10 5.93278e-10 -1.03439e-11)
(2.93174e-10 8.78739e-10 -9.3053e-12)
(4.10661e-10 4.97861e-10 -8.04873e-12)
(2.80253e-10 3.83486e-10 -7.48236e-12)
(4.29471e-10 3.3208e-10 -8.14969e-12)
(2.81215e-10 5.58025e-10 -7.58707e-12)
(4.1024e-10 4.9692e-10 -7.75184e-12)
(4.29779e-10 3.32796e-10 -6.95397e-12)
(2.81775e-10 5.58467e-10 -8.1974e-12)
(4.08408e-10 4.91363e-10 -7.73641e-12)
(2.80005e-10 5.50744e-10 -7.25609e-12)
(2.79315e-10 3.77377e-10 -7.09462e-12)
(4.27724e-10 3.26607e-10 -7.90084e-12)
(4.27764e-10 3.27399e-10 -6.66496e-12)
(2.80529e-10 5.51038e-10 -7.81519e-12)
(4.0816e-10 4.90489e-10 -7.44234e-12)
(3.34223e-10 5.84489e-10 -6.92879e-12)
(2.90999e-10 8.71534e-10 -9.45647e-12)
(3.35037e-10 5.86621e-10 -9.47181e-12)
(2.90335e-10 8.68898e-10 -8.55327e-12)
(3.33579e-10 5.83369e-10 -9.18197e-12)
(2.88979e-10 8.64976e-10 -8.18217e-12)
(2.89697e-10 8.66947e-10 -8.98738e-12)
(3.32884e-10 5.81559e-10 -6.68903e-12)
(4.09574e-10 4.95446e-10 -7.73508e-12)
(2.79745e-10 3.81335e-10 -7.57377e-12)
(4.28991e-10 3.31656e-10 -6.9076e-12)
(2.80847e-10 5.57169e-10 -8.16821e-12)
(4.09811e-10 4.96202e-10 -8.02608e-12)
(4.28639e-10 3.30941e-10 -8.09569e-12)
(2.81238e-10 5.55614e-10 -7.52546e-12)
(3.9951e-10 4.76538e-10 -7.9897e-12)
(2.73452e-10 5.36024e-10 -8.32188e-12)
(2.7299e-10 3.63659e-10 -7.98844e-12)
(4.20021e-10 3.15971e-10 -7.30386e-12)
(4.00013e-10 4.77367e-10 -8.24985e-12)
(4.19425e-10 3.15171e-10 -8.53241e-12)
(2.73492e-10 5.34468e-10 -7.75105e-12)
(3.95889e-10 4.71561e-10 -8.09771e-12)
(2.70235e-10 3.59253e-10 -7.49631e-12)
(4.15391e-10 3.10177e-10 -8.35305e-12)
(2.69614e-10 5.28123e-10 -7.36852e-12)
(3.95172e-10 4.70306e-10 -7.78703e-12)
(4.15888e-10 3.11306e-10 -7.2023e-12)
(2.70418e-10 5.28951e-10 -8.01553e-12)
(3.8934e-10 4.61562e-10 -6.08425e-12)
(2.64376e-10 5.16349e-10 -4.40612e-12)
(2.65554e-10 3.50031e-10 -5.15689e-12)
(4.09221e-10 3.01667e-10 -5.89666e-12)
(4.0972e-10 3.03206e-10 -5.23037e-12)
(2.65143e-10 5.17678e-10 -5.56692e-12)
(3.88539e-10 4.59925e-10 -5.31157e-12)
(3.93736e-10 4.68188e-10 -7.53822e-12)
(2.68752e-10 3.55976e-10 -7.34902e-12)
(4.14653e-10 3.0946e-10 -7.07319e-12)
(2.68832e-10 5.26982e-10 -7.84057e-12)
(3.94384e-10 4.69303e-10 -7.97651e-12)
(4.13966e-10 3.08374e-10 -8.10023e-12)
(2.68815e-10 5.2507e-10 -7.05524e-12)
(3.80497e-10 4.18396e-10 5.03565e-11)
(2.59831e-10 4.72145e-10 4.81031e-11)
(2.6672e-10 3.06271e-10 5.62395e-11)
(4.03646e-10 2.69629e-10 4.31511e-11)
(3.7929e-10 4.22186e-10 4.21184e-11)
(4.05674e-10 2.65656e-10 5.00783e-11)
(2.62108e-10 4.66925e-10 5.72993e-11)
(3.85882e-10 3.94167e-10 1.09294e-10)
(2.78694e-10 2.81506e-10 1.21806e-10)
(4.17924e-10 2.38407e-10 1.28846e-10)
(2.74762e-10 4.29313e-10 1.42118e-10)
(3.88773e-10 3.86755e-10 1.26931e-10)
(4.13497e-10 2.45694e-10 1.11872e-10)
(2.70605e-10 4.37989e-10 1.22292e-10)
(4.2486e-10 2.76306e-10 3.46417e-10)
(3.39192e-10 2.65947e-10 4.342e-10)
(3.42295e-10 1.60455e-10 3.9172e-10)
(4.79636e-10 1.12326e-10 4.23854e-10)
(4.64706e-10 1.42303e-10 3.67131e-10)
(3.22684e-10 3.01965e-10 3.79009e-10)
(4.37384e-10 2.44485e-10 3.9803e-10)
(3.96354e-10 3.68354e-10 1.70109e-10)
(2.95903e-10 2.52845e-10 1.89913e-10)
(4.22157e-10 2.3182e-10 1.50394e-10)
(2.78232e-10 4.20068e-10 1.63322e-10)
(3.917e-10 3.79021e-10 1.46261e-10)
(4.29086e-10 2.21167e-10 1.73929e-10)
(2.84881e-10 4.06906e-10 1.89642e-10)
(4.19102e-10 2.36363e-10 1.06552e-11)
(4.22983e-10 2.33665e-10 -6.90082e-12)
(4.2631e-10 2.32518e-10 -3.5614e-12)
(1.08041e-10 6.78864e-10 9.14143e-12)
(1.11295e-10 6.72357e-10 -4.32087e-12)