/*--------------------------------*- C++ -*----------------------------------*\
| =========                 |                                                 |
| \\      /  F ield         | OpenFOAM: The Open Source CFD Toolbox           |
|  \\    /   O peration     | Version:  2012                                  |
|   \\  /    A nd           | Website:  www.openfoam.com                      |
|    \\/     M anipulation  |                                                 |
\*---------------------------------------------------------------------------*/
FoamFile
{
    version     2.0;
    format      ascii;
    class       volVectorField;
    location    "0.107/solid";
    object      D_0_0;
}
// * * * * * * * * * * * * * * * * * * * * * * * * * * * * * * * * * * * * * //

dimensions      [0 1 0 0 0 0 0];


internalField   nonuniform List<vector> 
3125
(
(1.85354e-10 2.30588e-10 -7.02691e-13)
(1.79508e-10 2.28008e-10 -2.60344e-12)
(1.70542e-10 2.19565e-10 -3.42242e-12)
(1.69558e-10 2.18474e-10 -3.4309e-12)
(1.61671e-10 2.0979e-10 -4.56295e-12)
(1.59927e-10 2.07972e-10 -4.56623e-12)
(1.43849e-10 1.87365e-10 2.678e-11)
(1.42626e-10 1.79485e-10 4.5385e-11)
(1.74858e-10 2.24045e-10 -3.53537e-12)
(1.73157e-10 2.2268e-10 -3.55688e-12)
(1.66818e-10 2.15304e-10 -3.73627e-12)
(1.65722e-10 2.14104e-10 -3.91038e-12)
(1.53183e-10 2.01048e-10 -1.93574e-12)
(1.50541e-10 1.98253e-10 1.15096e-12)
(1.89719e-10 2.31977e-10 3.94902e-12)
(2.93892e-10 1.41141e-10 1.31912e-12)
(2.76521e-10 9.49142e-10 -1.75508e-12)
(2.87952e-10 4.12786e-10 -3.08259e-12)
(2.97445e-10 1.41196e-10 2.80454e-12)
(2.77835e-10 4.03339e-10 -4.4414e-12)
(2.86457e-10 1.41568e-10 -1.17829e-12)
(2.70416e-10 9.38963e-10 -3.83848e-12)
(1.77208e-10 2.26194e-10 -3.0479e-12)
(2.6228e-10 9.30618e-10 -2.98376e-12)
(2.81317e-10 4.15835e-10 -3.51819e-12)
(2.84288e-10 1.39854e-10 -3.30155e-12)
(2.70922e-10 3.91296e-10 -5.71717e-12)
(1.71511e-10 2.20566e-10 -3.33527e-12)
(2.7818e-10 1.34194e-10 -2.96228e-12)
(2.68119e-10 3.88272e-10 -5.93535e-12)
(2.79254e-10 1.34853e-10 -2.98775e-12)
(2.66235e-10 3.83224e-10 -6.03954e-12)
(2.77029e-10 1.33454e-10 -2.94105e-12)
(1.68715e-10 2.17418e-10 -3.48278e-12)
(2.67717e-10 3.87798e-10 -5.80697e-12)
(2.76105e-10 1.32627e-10 -3.1127e-12)
(2.59785e-10 3.72541e-10 -6.96932e-12)
(1.63212e-10 2.11387e-10 -4.34903e-12)
(2.6836e-10 1.27096e-10 -3.92442e-12)
(2.56228e-10 3.66463e-10 -6.86852e-12)
(2.70058e-10 1.28223e-10 -3.72498e-12)
(2.51801e-10 3.57093e-10 -3.96991e-12)
(2.66501e-10 1.25779e-10 -3.80448e-12)
(1.5794e-10 2.05921e-10 -4.34394e-12)
(2.55644e-10 3.65543e-10 -6.61802e-12)
(2.64362e-10 1.24324e-10 -3.55165e-12)
(2.52241e-10 3.1957e-10 4.95328e-11)
(1.45635e-10 1.919e-10 1.45501e-11)
(2.50796e-10 1.09982e-10 3.53361e-11)
(2.72094e-10 2.82082e-10 1.44465e-10)
(2.52997e-10 1.1347e-10 1.83156e-11)
(3.49765e-10 1.35011e-10 4.58812e-10)
(2.47734e-10 1.0392e-10 6.56093e-11)
(1.43149e-10 1.61415e-10 7.35116e-11)
(2.77314e-10 2.7332e-10 1.67358e-10)
(2.44146e-10 9.17783e-11 1.21132e-10)
(1.94978e-10 4.01472e-11 2.1766e-13)
(2.57542e-10 1.22538e-09 -1.34096e-13)
(1.93458e-10 4.03957e-11 -2.1126e-13)
(1.91603e-10 3.94497e-11 -2.19779e-12)
(2.51669e-10 1.20966e-09 -6.45391e-13)
(2.44061e-10 1.20305e-09 -1.54142e-12)
(2.79103e-10 4.01031e-10 -4.7027e-12)
(1.76451e-10 2.25186e-10 -3.23919e-12)
(2.82868e-10 1.37449e-10 -2.97945e-12)
(2.73277e-10 3.98313e-10 -6.37113e-12)
(2.84436e-10 1.38146e-10 -3.35373e-12)
(2.36288e-10 1.19487e-09 -5.78699e-12)
(2.4243e-10 1.20531e-09 -3.22993e-12)
(1.90422e-10 3.8524e-11 -1.57728e-12)
(1.91329e-10 3.89829e-11 -1.84249e-12)
(2.70977e-10 3.91957e-10 -5.78475e-12)
(1.72227e-10 2.21515e-10 -3.44582e-12)
(2.80779e-10 1.36774e-10 -3.00773e-12)
(2.72027e-10 3.98216e-10 -6.17743e-12)
(2.79839e-10 1.35746e-10 -3.24555e-12)
(1.88162e-10 3.7249e-11 -1.56146e-12)
(1.88827e-10 3.76155e-11 -1.40234e-12)
(2.27497e-10 1.17464e-09 -5.94711e-12)
(2.30556e-10 1.18239e-09 -5.70348e-12)
(2.34645e-10 1.18985e-09 -5.86894e-12)
(2.31531e-10 1.18348e-09 -5.30025e-12)
(1.89887e-10 3.84192e-11 -1.31274e-12)
(1.89095e-10 3.78266e-11 -1.75973e-12)
(1.87811e-10 3.71083e-11 -1.28825e-12)
(1.87017e-10 3.66417e-11 -1.66588e-12)
(2.26583e-10 1.17171e-09 -6.08963e-12)
(2.23926e-10 1.16487e-09 -5.84557e-12)
(2.65933e-10 3.82705e-10 -5.99724e-12)
(1.67836e-10 2.16395e-10 -3.5279e-12)
(2.74012e-10 1.3108e-10 -3.27178e-12)
(2.63248e-10 3.78905e-10 -6.53869e-12)
(2.75167e-10 1.3184e-10 -3.0592e-12)
(2.19719e-10 1.15496e-09 -6.34492e-12)
(2.22923e-10 1.16283e-09 -6.15182e-12)
(1.85816e-10 3.60468e-11 -1.75611e-12)
(1.86673e-10 3.6471e-11 -1.38305e-12)
(2.60221e-10 3.73261e-10 -7.02879e-12)
(1.64543e-10 2.12808e-10 -4.16328e-12)
(2.72792e-10 1.30214e-10 -3.36968e-12)
(2.62849e-10 3.78319e-10 -6.49255e-12)
(2.71491e-10 1.29266e-10 -3.65567e-12)
(1.82517e-10 3.45224e-11 -2.10248e-12)
(1.83878e-10 3.51293e-11 -1.72103e-12)
(2.0837e-10 1.12837e-09 -5.94837e-12)
(2.13359e-10 1.13992e-09 -6.71407e-12)
(2.18585e-10 1.15212e-09 -6.61369e-12)
(2.1482e-10 1.1431e-09 -6.54266e-12)
(1.85397e-10 3.58685e-11 -1.51658e-12)
(1.84371e-10 3.53424e-11 -1.9616e-12)
(1.81863e-10 3.42635e-11 -1.82107e-12)
(1.80136e-10 3.35369e-11 -1.8693e-12)
(2.06443e-10 1.12409e-09 -5.64557e-12)
(2.51207e-10 3.55789e-10 -3.10912e-12)
(1.55701e-10 2.03609e-10 -3.54978e-12)
(2.59549e-10 1.20785e-10 -8.7319e-13)
(2.48194e-10 3.43768e-10 7.23453e-12)
(2.62095e-10 1.22622e-10 -2.59911e-12)
(1.77179e-10 3.24581e-11 -3.15832e-13)
(1.79333e-10 3.32346e-11 -1.38564e-12)
(2.50875e-10 3.23022e-10 4.18791e-11)
(1.47898e-10 1.9527e-10 6.33155e-12)
(2.57177e-10 1.18609e-10 2.51056e-12)
(2.47992e-10 3.41767e-10 9.88658e-12)
(2.54774e-10 1.16331e-10 8.32423e-12)
(1.70731e-10 3.16458e-11 2.15862e-11)
(1.7306e-10 3.14287e-11 7.82218e-12)
(1.76223e-10 3.21543e-11 7.82421e-13)
(1.73988e-10 3.15814e-11 5.02804e-12)
(1.69316e-10 3.19108e-11 3.0018e-11)
(1.60713e-10 3.25806e-11 8.69797e-11)
(3.70885e-10 9.73698e-11 5.25883e-10)
(1.43866e-10 2.59054e-11 1.0693e-10)
(1.60002e-10 2.92362e-11 1.25298e-10)
(3.58575e-10 8.89541e-11 4.28069e-10)
(6.65306e-11 -1.11349e-11 1.14422e-10)
(4.49024e-10 5.47015e-10 5.71576e-12)
(3.12404e-10 4.00916e-10 4.5961e-12)
(5.2702e-10 3.26793e-10 4.2113e-12)
(3.69011e-10 7.72794e-10 7.86436e-12)
(4.44399e-10 5.47077e-10 3.32682e-12)
(3.05366e-10 4.05473e-10 1.70586e-12)
(5.11201e-10 3.32737e-10 1.44038e-12)
(3.51007e-10 7.71162e-10 1.62812e-12)
(4.35429e-10 5.45963e-10 1.6107e-12)
(5.21723e-10 3.29303e-10 5.74893e-12)
(3.61135e-10 7.7345e-10 3.43633e-12)
(4.20658e-10 5.38757e-10 -5.49909e-12)
(3.36236e-10 7.56361e-10 -4.61029e-12)
(2.74991e-10 4.10764e-10 -3.55458e-12)
(4.95852e-10 3.27226e-10 -7.76036e-12)
(4.94018e-10 3.31479e-10 -4.65944e-12)
(3.35651e-10 7.5882e-10 -5.5878e-12)
(4.21044e-10 5.36062e-10 -5.63614e-12)
(4.22111e-10 5.40989e-10 -3.40915e-12)
(2.73613e-10 4.14359e-10 -3.71318e-12)
(5.01305e-10 3.352e-10 1.26136e-12)
(3.41662e-10 7.67429e-10 -2.49281e-12)
(4.2782e-10 5.44069e-10 -1.15613e-12)
(4.94749e-10 3.34499e-10 -4.84755e-12)
(3.3648e-10 7.62737e-10 -3.04272e-12)
(4.10811e-10 5.23306e-10 -5.39492e-12)
(3.26894e-10 7.40551e-10 -7.00453e-12)
(2.69826e-10 3.89957e-10 -5.98216e-12)
(4.87719e-10 3.17355e-10 -4.37918e-12)
(4.11834e-10 5.24521e-10 -6.15032e-12)
(4.86658e-10 3.1657e-10 -6.32674e-12)
(3.25988e-10 7.39019e-10 -5.56511e-12)
(4.09849e-10 5.22504e-10 -6.01566e-12)
(2.69127e-10 3.89853e-10 -5.87041e-12)
(4.84634e-10 3.15143e-10 -6.51344e-12)
(3.23997e-10 7.3599e-10 -5.64044e-12)
(4.08832e-10 5.21055e-10 -5.48602e-12)
(4.85505e-10 3.16224e-10 -4.19956e-12)
(3.24909e-10 7.37688e-10 -6.97478e-12)
(4.06061e-10 5.17503e-10 -6.27147e-12)
(3.21025e-10 7.29052e-10 -5.75276e-12)
(2.66553e-10 3.85399e-10 -5.78679e-12)
(4.8127e-10 3.11322e-10 -6.87998e-12)
(4.81503e-10 3.12778e-10 -4.5871e-12)
(3.21568e-10 7.30597e-10 -7.13761e-12)
(4.05461e-10 5.16003e-10 -5.72152e-12)
(4.06742e-10 5.18471e-10 -5.57543e-12)
(2.66705e-10 3.8607e-10 -5.90005e-12)
(4.83519e-10 3.14532e-10 -4.11429e-12)
(3.23088e-10 7.34237e-10 -7.16289e-12)
(4.07899e-10 5.20032e-10 -6.06407e-12)
(4.822e-10 3.13576e-10 -6.51093e-12)
(3.22204e-10 7.32185e-10 -5.77277e-12)
(3.94325e-10 5.02111e-10 -6.89169e-12)
(3.12036e-10 7.12679e-10 -8.31612e-12)
(2.58138e-10 3.70229e-10 -7.16571e-12)
(4.71789e-10 3.02643e-10 -5.44967e-12)
(3.96004e-10 5.04156e-10 -7.36927e-12)
(4.70012e-10 3.01319e-10 -7.69421e-12)
(3.10604e-10 7.10102e-10 -6.99861e-12)
(3.92945e-10 5.00724e-10 -7.56352e-12)
(2.57426e-10 3.69612e-10 -7.00958e-12)
(4.67363e-10 2.98395e-10 -7.98333e-12)
(3.07853e-10 7.05072e-10 -6.79794e-12)
(3.91445e-10 4.98317e-10 -7.00195e-12)
(4.68508e-10 3.00386e-10 -5.76133e-12)
(3.09182e-10 7.07789e-10 -8.28536e-12)
(3.86221e-10 4.92127e-10 -6.6924e-12)
(3.01293e-10 6.92192e-10 -4.32515e-12)
(2.53047e-10 3.61402e-10 -5.5282e-12)
(4.60518e-10 2.91464e-10 -6.32394e-12)
(4.61955e-10 2.94052e-10 -4.85474e-12)
(3.02922e-10 6.95854e-10 -6.72756e-12)
(3.84335e-10 4.88961e-10 -5.37909e-12)
(3.87926e-10 4.93978e-10 -6.5053e-12)
(2.5386e-10 3.62269e-10 -6.03271e-12)
(4.65861e-10 2.97179e-10 -5.429e-12)
(3.06362e-10 7.02405e-10 -7.94398e-12)
(3.89995e-10 4.96687e-10 -7.37407e-12)
(4.63769e-10 2.95336e-10 -7.2431e-12)
(3.04634e-10 6.9899e-10 -6.13905e-12)
(3.68469e-10 4.4839e-10 5.17587e-11)
(2.89629e-10 6.42576e-10 4.95469e-11)
(2.58783e-10 3.06273e-10 7.91587e-11)
(4.49106e-10 2.64647e-10 3.86208e-11)
(3.69013e-10 4.5566e-10 3.57898e-11)
(4.49833e-10 2.58613e-10 5.30923e-11)
(2.90373e-10 6.32752e-10 6.94848e-11)
(3.6819e-10 4.42466e-10 6.80264e-11)
(2.60359e-10 3.0243e-10 9.22696e-11)
(4.52888e-10 2.44542e-10 9.87186e-11)
(2.94354e-10 6.06452e-10 1.24282e-10)
(3.68775e-10 4.31091e-10 9.34819e-11)
(4.50385e-10 2.53917e-10 7.35867e-11)
(2.91721e-10 6.21482e-10 9.20195e-11)
(3.76321e-10 3.71371e-10 2.15051e-10)
(3.32972e-10 4.52015e-10 3.57365e-10)
(3.07707e-10 2.17033e-10 2.98893e-10)
(4.75374e-10 1.54204e-10 3.34302e-10)
(4.65615e-10 1.95368e-10 2.45193e-10)
(3.15976e-10 5.1504e-10 2.76122e-10)
(3.83541e-10 3.20013e-10 2.90052e-10)
(3.73018e-10 3.96634e-10 1.64572e-10)
(2.99959e-10 2.33072e-10 2.58712e-10)
(4.56653e-10 2.34721e-10 1.3337e-10)
(2.99158e-10 5.86979e-10 1.62227e-10)
(3.70454e-10 4.20118e-10 1.21165e-10)
(4.61847e-10 2.15372e-10 1.82038e-10)
(3.05914e-10 5.5697e-10 2.13982e-10)
(5.99184e-10 1.65675e-10 3.7584e-12)
(5.67836e-10 7.84227e-11 5.96502e-13)
(1.96563e-10 3.96045e-11 7.33264e-13)
(5.75865e-10 7.46384e-11 3.11674e-12)
(5.80233e-10 1.73632e-10 3.89758e-14)
(5.96397e-10 1.6686e-10 4.55439e-12)
(1.9753e-10 3.95843e-11 9.8341e-13)
(5.8025e-10 7.29614e-11 2.50434e-12)
(1.74728e-10 9.87088e-10 6.829e-12)
(2.65174e-10 1.24328e-09 1.65151e-12)
(2.0065e-10 1.07258e-09 -3.80652e-14)
(2.12289e-10 1.08688e-09 4.28496e-12)
(2.72916e-10 1.25597e-09 5.9481e-12)
(2.16257e-10 1.0886e-09 5.89109e-12)
(1.58771e-10 9.78486e-10 8.86786e-13)
(1.70558e-10 9.8752e-10 4.26137e-12)
(5.6796e-10 1.69038e-10 -6.82506e-12)
(5.64108e-10 1.75373e-10 -4.32489e-12)
(5.59026e-10 8.19045e-11 3.87972e-13)
(1.92327e-10 4.04552e-11 -1.51377e-12)
(5.53645e-10 8.33383e-11 -3.89112e-12)
(5.74768e-10 1.75442e-10 6.74587e-13)
(5.64257e-10 1.76848e-10 -5.26512e-12)
(5.5502e-10 7.79229e-11 -5.83266e-12)
(1.91635e-10 4.00357e-11 -1.71208e-12)
(5.53231e-10 8.10678e-11 -3.52248e-12)
(1.49417e-10 9.60536e-10 -3.56472e-12)
(1.50386e-10 9.62639e-10 -3.4514e-12)
(2.47816e-10 1.20094e-09 -2.30521e-13)
(1.97524e-10 1.06795e-09 -8.3106e-13)
(1.92349e-10 1.05667e-09 -2.202e-12)
(1.90267e-10 1.05458e-09 -3.77299e-12)
(2.45637e-10 1.20028e-09 -5.56647e-13)
(1.91691e-10 1.05513e-09 -2.57271e-12)
(1.55536e-10 9.75061e-10 -1.12661e-12)
(1.50767e-10 9.64786e-10 -1.92374e-12)
(4.20686e-10 5.3368e-10 -5.29351e-12)
(3.36854e-10 7.55058e-10 -6.38063e-12)
(2.78465e-10 3.983e-10 -6.05107e-12)
(4.97413e-10 3.24798e-10 -5.10529e-12)
(4.21486e-10 5.35105e-10 -6.29033e-12)
(3.35972e-10 7.53568e-10 -5.08509e-12)
(4.97113e-10 3.23222e-10 -6.44435e-12)
(4.19015e-10 5.32948e-10 -5.83925e-12)
(2.76645e-10 3.98954e-10 -6.16929e-12)
(3.31427e-10 7.50287e-10 -5.57698e-12)
(4.92543e-10 3.22771e-10 -6.25635e-12)
(3.33721e-10 7.52379e-10 -6.71093e-12)
(4.95044e-10 3.23314e-10 -3.957e-12)
(4.16718e-10 5.31365e-10 -5.32844e-12)
(1.49124e-10 9.60405e-10 -4.91948e-12)
(1.47309e-10 9.5799e-10 -4.87111e-12)
(2.38425e-10 1.20025e-09 -5.62441e-12)
(1.83909e-10 1.04583e-09 -6.11302e-12)
(1.86686e-10 1.05156e-09 -5.53936e-12)
(1.89813e-10 1.05476e-09 -4.09923e-12)
(2.40607e-10 1.20437e-09 -4.60106e-12)
(1.87703e-10 1.05266e-09 -5.44989e-12)
(1.4369e-10 9.52687e-10 -5.36288e-12)
(1.46281e-10 9.57382e-10 -5.9517e-12)
(5.68947e-10 1.67634e-10 -5.07126e-12)
(5.68973e-10 1.65735e-10 -5.70075e-12)
(5.52759e-10 7.49394e-11 -4.49443e-12)
(1.90848e-10 3.85635e-11 -1.39918e-12)
(5.5454e-10 7.47896e-11 -3.01114e-12)
(5.63948e-10 1.66013e-10 -5.61847e-12)
(5.67736e-10 1.65932e-10 -3.96152e-12)
(5.56468e-10 7.54049e-11 -3.97533e-12)
(1.91309e-10 3.8706e-11 -1.73241e-12)
(5.56594e-10 7.45163e-11 -4.85906e-12)
(4.12468e-10 5.26937e-10 -6.43579e-12)
(2.70525e-10 3.94973e-10 -5.67773e-12)
(3.27337e-10 7.41686e-10 -5.61777e-12)
(4.87933e-10 3.18224e-10 -7.08781e-12)
(4.12237e-10 5.25287e-10 -5.74967e-12)
(3.27525e-10 7.43289e-10 -7.18665e-12)
(4.87585e-10 3.20136e-10 -4.89004e-12)
(4.13083e-10 5.28133e-10 -5.71306e-12)
(2.70291e-10 3.96197e-10 -5.89543e-12)
(3.29364e-10 7.47917e-10 -7.24964e-12)
(4.90075e-10 3.22468e-10 -3.98596e-12)
(4.14806e-10 5.30052e-10 -6.02513e-12)
(3.27982e-10 7.45281e-10 -5.86955e-12)
(4.88065e-10 3.21382e-10 -6.75135e-12)
(5.5982e-10 1.62125e-10 -4.27855e-12)
(5.58155e-10 1.61745e-10 -5.56863e-12)
(5.4561e-10 7.17418e-11 -4.51712e-12)
(1.88386e-10 3.73714e-11 -1.31651e-12)
(5.46083e-10 7.22815e-11 -2.90581e-12)
(5.56338e-10 1.60568e-10 -5.65172e-12)
(5.57468e-10 1.6168e-10 -3.95085e-12)
(5.48192e-10 7.2386e-11 -3.11205e-12)
(1.88689e-10 3.75002e-11 -1.53858e-12)
(5.47255e-10 7.23895e-11 -4.48865e-12)
(1.40825e-10 9.42071e-10 -6.33628e-12)
(1.39944e-10 9.39102e-10 -5.47995e-12)
(2.28582e-10 1.17757e-09 -6.05145e-12)
(1.77522e-10 1.02742e-09 -6.21081e-12)
(1.78808e-10 1.03105e-09 -6.04582e-12)
(1.80322e-10 1.03502e-09 -5.87938e-12)
(2.29623e-10 1.18029e-09 -5.83906e-12)
(1.79249e-10 1.03198e-09 -6.15417e-12)
(1.38408e-10 9.35199e-10 -5.47373e-12)
(1.39524e-10 9.38367e-10 -6.395e-12)
(1.41135e-10 9.42551e-10 -5.32122e-12)
(1.41945e-10 9.44752e-10 -6.33148e-12)
(1.83201e-10 1.04403e-09 -6.07901e-12)
(2.3346e-10 1.18612e-09 -5.4566e-12)
(1.81983e-10 1.03862e-09 -6.01886e-12)
(1.43047e-10 9.51121e-10 -6.42733e-12)
(1.42126e-10 9.45822e-10 -5.38926e-12)
(1.80687e-10 1.03553e-09 -5.93188e-12)
(2.32494e-10 1.18438e-09 -5.35704e-12)
(1.81683e-10 1.03762e-09 -5.88102e-12)
(5.59923e-10 1.62568e-10 -6.07864e-12)
(5.58879e-10 1.65296e-10 -4.53358e-12)
(5.50336e-10 7.52532e-11 -2.88158e-12)
(1.89525e-10 3.83209e-11 -1.70386e-12)
(5.48415e-10 7.54978e-11 -4.83665e-12)
(5.62512e-10 1.66107e-10 -3.94058e-12)
(5.59129e-10 1.65854e-10 -6.08733e-12)
(5.4846e-10 7.31911e-11 -4.97411e-12)
(1.89169e-10 3.8091e-11 -1.52969e-12)
(5.47859e-10 7.4604e-11 -3.38735e-12)
(5.53016e-10 1.57807e-10 -5.95926e-12)
(5.53022e-10 1.59719e-10 -4.24355e-12)
(5.44426e-10 7.15094e-11 -2.86292e-12)
(1.87539e-10 3.70057e-11 -1.57956e-12)
(5.43091e-10 7.16109e-11 -4.57896e-12)
(5.55674e-10 1.60398e-10 -3.9658e-12)
(5.53426e-10 1.60041e-10 -5.77753e-12)
(5.42347e-10 7.01111e-11 -4.77651e-12)
(1.87186e-10 3.68305e-11 -1.41189e-12)
(5.42288e-10 7.10953e-11 -3.14012e-12)
(1.36377e-10 9.26828e-10 -5.57282e-12)
(1.37368e-10 9.29291e-10 -6.45275e-12)
(2.25792e-10 1.16891e-09 -5.89012e-12)
(1.7717e-10 1.02631e-09 -6.1412e-12)
(1.76416e-10 1.02221e-09 -6.20475e-12)
(1.74949e-10 1.01862e-09 -6.24515e-12)
(2.2492e-10 1.16677e-09 -5.91811e-12)
(1.7609e-10 1.02132e-09 -6.08445e-12)
(1.38123e-10 9.34188e-10 -6.48489e-12)
(1.37611e-10 9.30158e-10 -5.51495e-12)
(4.03521e-10 5.13759e-10 -5.76177e-12)
(3.20242e-10 7.27708e-10 -7.26756e-12)
(2.64618e-10 3.81292e-10 -6.32699e-12)
(4.80529e-10 3.10642e-10 -4.40573e-12)
(4.04735e-10 5.15138e-10 -6.26692e-12)
(3.19205e-10 7.25942e-10 -5.99373e-12)
(4.79182e-10 3.09819e-10 -6.66171e-12)
(4.02556e-10 5.12835e-10 -6.52135e-12)
(2.64075e-10 3.80935e-10 -6.25726e-12)
(3.17326e-10 7.2263e-10 -6.25656e-12)
(4.77383e-10 3.07899e-10 -7.18648e-12)
(3.18189e-10 7.24415e-10 -7.48135e-12)
(4.78085e-10 3.09253e-10 -4.7645e-12)
(4.01591e-10 5.11219e-10 -6.13021e-12)
(1.36018e-10 9.26138e-10 -6.6095e-12)
(1.35133e-10 9.22659e-10 -5.84755e-12)
(2.20899e-10 1.15763e-09 -6.37101e-12)
(1.71618e-10 1.00975e-09 -6.74408e-12)
(1.73016e-10 1.01326e-09 -6.45491e-12)
(1.74541e-10 1.01784e-09 -6.21462e-12)
(2.21968e-10 1.16025e-09 -6.18812e-12)
(1.7345e-10 1.01422e-09 -6.52514e-12)
(1.33517e-10 9.18669e-10 -6.03561e-12)
(1.3473e-10 9.21809e-10 -6.80414e-12)
(5.5259e-10 1.57515e-10 -4.26931e-12)
(5.5038e-10 1.57222e-10 -5.93358e-12)
(5.38764e-10 6.86289e-11 -4.99886e-12)
(1.86062e-10 3.62133e-11 -1.46873e-12)
(5.39099e-10 6.94107e-11 -3.294e-12)
(5.48935e-10 1.55459e-10 -6.28698e-12)
(5.49732e-10 1.5704e-10 -4.4248e-12)
(5.41544e-10 6.96072e-11 -3.10253e-12)
(1.86432e-10 3.63682e-11 -1.62251e-12)
(5.40236e-10 6.97064e-11 -4.70463e-12)
(3.98217e-10 5.07299e-10 -7.17671e-12)
(2.61085e-10 3.7581e-10 -6.74843e-12)
(3.13201e-10 7.14676e-10 -6.80749e-12)
(4.72961e-10 3.03569e-10 -7.80951e-12)
(3.97136e-10 5.05386e-10 -6.76992e-12)
(3.14178e-10 7.1677e-10 -8.07719e-12)
(4.73708e-10 3.05234e-10 -5.42126e-12)
(3.99247e-10 5.08436e-10 -6.39758e-12)
(2.61543e-10 3.76392e-10 -6.81276e-12)
(3.16342e-10 7.20867e-10 -7.85579e-12)
(4.76322e-10 3.07145e-10 -4.86979e-12)
(4.00626e-10 5.10152e-10 -6.78653e-12)
(3.15215e-10 7.18651e-10 -6.62283e-12)
(4.7482e-10 3.06053e-10 -7.25558e-12)
(5.4375e-10 1.52018e-10 -5.24375e-12)
(5.40904e-10 1.51292e-10 -6.9182e-12)
(5.29293e-10 6.46274e-11 -5.73964e-12)
(1.82906e-10 3.47542e-11 -1.83725e-12)
(5.30042e-10 6.56227e-11 -4.13087e-12)
(5.38607e-10 1.4878e-10 -7.06212e-12)
(5.40021e-10 1.50963e-10 -5.41159e-12)
(5.33341e-10 6.61768e-11 -3.91006e-12)
(1.83499e-10 3.49771e-11 -1.98342e-12)
(5.31641e-10 6.61286e-11 -5.53373e-12)
(1.29912e-10 9.07725e-10 -7.36147e-12)
(1.2859e-10 9.02724e-10 -6.36783e-12)
(2.10229e-10 1.13235e-09 -6.40116e-12)
(1.62856e-10 9.85978e-10 -6.55318e-12)
(1.64987e-10 9.91297e-10 -6.8585e-12)
(1.67278e-10 9.97945e-10 -6.99942e-12)
(2.1188e-10 1.13616e-09 -6.5377e-12)
(1.65631e-10 9.92718e-10 -7.05531e-12)
(1.2621e-10 8.96617e-10 -5.84432e-12)
(1.28019e-10 9.01472e-10 -7.19492e-12)
(1.30399e-10 9.08775e-10 -6.36888e-12)
(1.31831e-10 9.12385e-10 -7.23733e-12)
(1.71168e-10 1.00868e-09 -6.72579e-12)
(2.17491e-10 1.149e-09 -6.56203e-12)
(1.7e-10 1.00422e-09 -6.98186e-12)
(1.33139e-10 9.17719e-10 -7.08346e-12)
(1.32234e-10 9.13403e-10 -6.29321e-12)
(1.6785e-10 9.99128e-10 -7.06509e-12)
(2.16245e-10 1.14606e-09 -6.65292e-12)
(1.69505e-10 1.0031e-09 -6.89074e-12)
(5.44406e-10 1.52398e-10 -6.87088e-12)
(5.45215e-10 1.54365e-10 -5.02057e-12)
(5.37636e-10 6.81861e-11 -3.43088e-12)
(1.85098e-10 3.57434e-11 -1.80341e-12)
(5.36178e-10 6.82119e-11 -5.13936e-12)
(5.48318e-10 1.55179e-10 -4.66441e-12)
(5.45853e-10 1.54665e-10 -6.49268e-12)
(5.34586e-10 6.67818e-11 -5.48483e-12)
(1.84646e-10 3.55485e-11 -1.67182e-12)
(5.34967e-10 6.77353e-11 -3.78904e-12)
(5.31567e-10 1.43963e-10 -5.49716e-12)
(5.33396e-10 1.46662e-10 -4.77669e-12)
(5.27659e-10 6.3886e-11 -4.03634e-12)
(1.81373e-10 3.40731e-11 -2.0062e-12)
(5.25683e-10 6.36791e-11 -5.41937e-12)
(5.37745e-10 1.48295e-10 -5.34384e-12)
(5.34453e-10 1.47111e-10 -6.4904e-12)
(5.22582e-10 6.18979e-11 -4.8607e-12)
(1.80624e-10 3.38057e-11 -1.75138e-12)
(5.23648e-10 6.30412e-11 -3.71284e-12)
(1.21117e-10 8.80253e-10 -2.21455e-12)
(1.23278e-10 8.86905e-10 -5.15398e-12)
(2.04484e-10 1.11915e-09 -4.85498e-12)
(1.6211e-10 9.84392e-10 -6.27086e-12)
(1.60023e-10 9.77502e-10 -5.42731e-12)
(1.56542e-10 9.68419e-10 -2.94848e-12)
(2.02292e-10 1.11408e-09 -3.90185e-12)
(1.5919e-10 9.75599e-10 -4.84064e-12)
(1.25586e-10 8.95206e-10 -6.60956e-12)
(1.23949e-10 8.88607e-10 -4.72221e-12)
(3.80203e-10 4.83206e-10 -2.65226e-12)
(2.99566e-10 6.88598e-10 -4.25298e-12)
(2.49647e-10 3.51069e-10 -1.05424e-13)
(4.58834e-10 2.89765e-10 -2.93545e-12)
(3.82611e-10 4.86789e-10 -4.88805e-12)
(2.97607e-10 6.84061e-10 -8.70488e-13)
(4.56552e-10 2.87213e-10 -3.32118e-12)
(3.78209e-10 4.80733e-10 -1.34649e-12)
(2.48758e-10 3.49864e-10 1.45977e-12)
(2.93993e-10 6.7475e-10 5.68937e-12)
(4.53073e-10 2.82067e-10 1.3113e-12)
(2.95682e-10 6.79752e-10 6.04333e-13)
(4.5452e-10 2.8546e-10 5.54213e-13)
(3.76125e-10 4.76569e-10 2.21774e-12)
(1.20368e-10 8.78349e-10 -2.29536e-12)
(1.18442e-10 8.69548e-10 2.24745e-12)
(1.48973e-10 9.44832e-10 9.54317e-12)
(1.51995e-10 9.54641e-10 3.17796e-12)
(1.55602e-10 9.66325e-10 -2.00335e-12)
(1.52984e-10 9.57228e-10 1.47981e-12)
(1.15483e-10 8.57834e-10 1.04203e-11)
(1.17676e-10 8.6718e-10 2.96133e-12)
(5.30595e-10 1.43275e-10 -3.38085e-12)
(5.27088e-10 1.41457e-10 -2.7369e-12)
(5.14725e-10 5.85121e-11 -1.33553e-13)
(1.77782e-10 3.27345e-11 -6.53893e-13)
(5.15982e-10 5.97946e-11 -3.45967e-13)
(5.24035e-10 1.37516e-10 1.77642e-12)
(5.25839e-10 1.40868e-10 -3.13813e-13)
(5.20649e-10 6.09119e-11 -2.5804e-12)
(1.78717e-10 3.30149e-11 -1.27844e-12)
(5.18447e-10 6.05028e-11 -3.09293e-12)
(3.70763e-10 4.65508e-10 1.66119e-11)
(2.48096e-10 3.32507e-10 2.43758e-11)
(2.89302e-10 6.50225e-10 3.67052e-11)
(4.48544e-10 2.68638e-10 2.58089e-11)
(3.69475e-10 4.59905e-10 2.62544e-11)
(2.89876e-10 6.57361e-10 2.42227e-11)
(4.48762e-10 2.73345e-10 1.88292e-11)
(3.72354e-10 4.68868e-10 1.12131e-11)
(2.48389e-10 3.34406e-10 1.98341e-11)
(2.92522e-10 6.69724e-10 9.19429e-12)
(4.51764e-10 2.79578e-10 7.14732e-12)
(3.74497e-10 4.7363e-10 5.1657e-12)
(2.9105e-10 6.63527e-10 1.70494e-11)
(4.50107e-10 2.75913e-10 1.07145e-11)
(5.20066e-10 1.26785e-10 3.20196e-11)
(5.21561e-10 1.21681e-10 5.19503e-11)
(5.04204e-10 4.90206e-11 6.46518e-11)
(1.71377e-10 3.15362e-11 1.57807e-11)
(5.04496e-10 5.07902e-11 4.79768e-11)
(5.25682e-10 1.12337e-10 9.7275e-11)
(5.21388e-10 1.20274e-10 6.24955e-11)
(5.06922e-10 5.27127e-11 2.45389e-11)
(1.72499e-10 3.13907e-11 1.11168e-11)
(5.06479e-10 5.13838e-11 3.34909e-11)
(1.12563e-10 8.21594e-10 5.50375e-11)
(1.14398e-10 8.02173e-10 8.741e-11)
(1.4426e-10 8.54993e-10 1.46191e-10)
(1.41841e-10 8.83143e-10 9.69627e-11)
(1.41978e-10 9.08272e-10 5.40676e-11)
(1.41721e-10 8.8953e-10 8.42614e-11)
(1.20307e-10 7.66292e-10 1.53217e-10)
(1.15314e-10 7.95691e-10 9.98808e-11)
(1.1249e-10 8.25715e-10 4.79834e-11)
(1.13091e-10 8.39575e-10 2.81047e-11)
(1.47942e-10 9.41989e-10 1.23418e-11)
(1.45474e-10 9.29822e-10 2.31355e-11)
(1.14804e-10 8.5517e-10 1.22526e-11)
(1.13493e-10 8.43032e-10 2.42417e-11)
(1.4256e-10 9.12402e-10 4.63132e-11)
(1.44604e-10 9.2623e-10 2.78679e-11)
(5.19912e-10 1.28392e-10 2.52888e-11)
(5.19808e-10 1.32827e-10 1.52191e-11)
(5.12822e-10 5.72356e-11 3.88177e-12)
(1.75575e-10 3.19555e-11 1.71466e-12)
(5.10967e-10 5.64954e-11 5.77957e-12)
(5.23231e-10 1.36509e-10 5.08823e-12)
(5.20794e-10 1.3363e-10 1.07471e-11)
(5.07791e-10 5.43911e-11 1.56161e-11)
(1.74559e-10 3.17635e-11 3.38694e-12)
(5.0851e-10 5.58289e-11 1.14935e-11)
(5.4427e-10 5.05762e-11 3.51642e-10)
(5.36384e-10 8.54868e-11 2.16852e-10)
(5.03948e-10 4.5887e-11 8.97988e-11)
(1.67932e-10 3.21315e-11 4.2429e-11)
(5.02419e-10 4.20958e-11 1.2451e-10)
(5.27375e-10 1.08554e-10 1.151e-10)
(5.3579e-10 9.19994e-11 1.83768e-10)
(4.79788e-10 3.27778e-11 2.42998e-10)
(1.654e-10 3.31072e-11 5.94467e-11)
(4.96214e-10 3.89648e-11 1.72284e-10)
(1.75027e-10 5.65438e-10 4.1022e-10)
(1.41483e-10 6.76779e-10 2.91205e-10)
(1.45619e-10 8.44607e-10 1.66373e-10)
(1.55057e-10 7.90784e-10 2.4082e-10)
(1.90486e-10 6.59669e-10 3.70915e-10)
(1.59908e-10 7.68013e-10 2.70645e-10)
(1.2274e-10 7.5556e-10 1.74347e-10)
(1.3543e-10 6.99833e-10 2.57954e-10)
(4.42524e-10 1.68014e-10 4.98288e-10)
(3.64973e-10 3.69507e-10 4.50012e-10)
(4.66408e-10 -3.64749e-11 7.69214e-10)
(4.97768e-10 1.08429e-10 4.46029e-10)
(4.08101e-10 2.51043e-10 3.80251e-10)
(4.20201e-10 2.81543e-10 5.57806e-10)
(5.3397e-10 2.69587e-11 6.00569e-10)
(4.14562e-10 1.59297e-10 4.75369e-10)
(4.22727e-10 3.9128e-10 5.38937e-10)
(3.96047e-10 4.5587e-11 4.81142e-10)
(8.0208e-11 -4.14074e-11 1.66345e-10)
(4.9125e-10 -1.06711e-10 6.16629e-10)
(7.27786e-11 -1.94704e-11 1.33821e-10)
(4.58692e-10 1.05831e-10 5.34645e-10)
(5.23863e-10 -7.93905e-11 8.45617e-10)
(4.4893e-10 3.03842e-10 6.1318e-10)
(5.8035e-10 -9.28791e-11 6.94737e-10)
(1.92368e-10 5.20329e-10 4.5452e-10)
(2.92946e-10 3.74993e-10 5.88484e-10)
(3.5945e-10 4.55754e-10 5.39942e-10)
(2.06113e-10 6.17496e-10 4.07996e-10)
(3.02328e-10 4.76812e-10 5.12374e-10)
(3.5022e-10 3.46114e-10 6.31133e-10)
(5.47064e-10 3.35281e-11 4.14107e-10)
(5.83872e-10 -8.11658e-11 6.67361e-10)
(8.0031e-11 -4.69003e-11 1.77392e-10)
(5.18422e-10 -1.41694e-10 6.44071e-10)
(6.16188e-10 -1.47775e-10 7.41261e-10)
(4.62145e-10 1.47759e-11 3.5022e-10)
(1.49362e-10 8.45995e-13 2.01342e-10)
(4.59681e-10 -2.45021e-11 4.95031e-10)
(4.45659e-10 5.24963e-10 8.62306e-12)
(3.13555e-10 4.03595e-10 1.208e-11)
(4.66238e-10 3.49438e-10 8.8862e-12)
(3.17236e-10 5.87046e-10 1.0702e-11)
(4.30789e-10 5.2778e-10 2.2826e-12)
(2.9445e-10 4.10141e-10 -1.73632e-12)
(4.42084e-10 3.58507e-10 -1.3286e-12)
(2.91216e-10 5.9442e-10 -1.45563e-13)
(4.24288e-10 5.28846e-10 1.32684e-12)
(4.49509e-10 3.55788e-10 1.09125e-12)
(2.9758e-10 5.92763e-10 4.04951e-13)
(4.11162e-10 5.19746e-10 -5.92661e-12)
(2.80874e-10 5.81597e-10 -4.77607e-12)
(2.7722e-10 4.05426e-10 -3.91473e-12)
(4.30159e-10 3.49981e-10 -6.17642e-12)
(4.28464e-10 3.52443e-10 -4.63384e-12)
(2.80355e-10 5.82939e-10 -4.99862e-12)
(4.12256e-10 5.17825e-10 -5.92006e-12)
(4.14186e-10 5.28823e-10 -2.05847e-12)
(2.77725e-10 4.16223e-10 -3.85004e-12)
(4.35019e-10 3.61328e-10 -1.17519e-12)
(2.84948e-10 5.95201e-10 -1.78875e-12)
(4.1885e-10 5.28842e-10 -2.89128e-13)
(4.29682e-10 3.62315e-10 -3.66053e-12)
(2.81483e-10 5.94143e-10 -2.27791e-12)
(4.03302e-10 5.05172e-10 -5.87966e-12)
(2.73002e-10 5.67866e-10 -6.30798e-12)
(2.71223e-10 3.9043e-10 -5.96402e-12)
(4.22094e-10 3.39376e-10 -5.28414e-12)
(4.03422e-10 5.05629e-10 -6.25189e-12)
(4.2194e-10 3.38784e-10 -6.47733e-12)
(2.73301e-10 5.66718e-10 -5.70555e-12)
(3.29391e-10 5.93954e-10 -7.2615e-12)
(2.82688e-10 8.79792e-10 -6.38319e-12)
(3.28384e-10 5.92232e-10 -4.95563e-12)
(2.83705e-10 8.81893e-10 -6.96832e-12)
(3.30273e-10 5.94879e-10 -4.82098e-12)
(2.85604e-10 8.85351e-10 -6.7738e-12)
(3.31175e-10 5.96299e-10 -7.2408e-12)
(2.84711e-10 8.83628e-10 -6.20211e-12)
(4.00617e-10 5.02642e-10 -6.00731e-12)
(2.68948e-10 3.88538e-10 -5.72537e-12)
(4.18572e-10 3.36694e-10 -6.41732e-12)
(2.70101e-10 5.63794e-10 -5.66829e-12)
(4.00027e-10 5.01906e-10 -5.79375e-12)
(4.1909e-10 3.37194e-10 -5.15816e-12)
(2.70886e-10 5.63985e-10 -6.21394e-12)
(3.97424e-10 4.9726e-10 -6.25431e-12)
(2.67977e-10 5.57659e-10 -5.82435e-12)
(2.66873e-10 3.83618e-10 -5.74933e-12)
(4.15854e-10 3.32179e-10 -6.60444e-12)
(4.15999e-10 3.3285e-10 -5.32296e-12)
(2.68608e-10 5.57819e-10 -6.33479e-12)
(3.97099e-10 4.96491e-10 -6.01539e-12)
(3.26573e-10 5.8934e-10 -5.0216e-12)
(2.81797e-10 8.77747e-10 -7.10888e-12)
(3.27515e-10 5.91142e-10 -7.35331e-12)
(2.80985e-10 8.75477e-10 -6.41147e-12)
(3.25846e-10 5.88377e-10 -7.42513e-12)
(2.79431e-10 8.72086e-10 -6.38134e-12)
(2.80232e-10 8.73778e-10 -7.0297e-12)
(3.25078e-10 5.86818e-10 -5.08989e-12)
(3.99085e-10 5.00721e-10 -5.93246e-12)
(2.679e-10 3.86926e-10 -5.98243e-12)
(4.17973e-10 3.36366e-10 -5.23807e-12)
(2.69623e-10 5.63085e-10 -6.32334e-12)
(3.99475e-10 5.01322e-10 -6.14457e-12)
(4.17449e-10 3.35823e-10 -6.48742e-12)
(2.69842e-10 5.61715e-10 -5.74832e-12)
(3.87994e-10 4.83948e-10 -7.16574e-12)
(2.60909e-10 5.44452e-10 -7.46941e-12)
(2.59787e-10 3.7149e-10 -7.19877e-12)
(4.07567e-10 3.2279e-10 -6.5097e-12)
(3.88501e-10 4.84717e-10 -7.40643e-12)
(4.06964e-10 3.22043e-10 -7.75315e-12)
(2.60938e-10 5.42953e-10 -6.91448e-12)
(3.84422e-10 4.79204e-10 -7.33192e-12)
(2.57052e-10 3.67325e-10 -6.74966e-12)
(4.02961e-10 3.17322e-10 -7.62777e-12)
(2.57114e-10 5.36927e-10 -6.58887e-12)
(3.8372e-10 4.77993e-10 -7.02965e-12)
(4.03451e-10 3.18396e-10 -6.47233e-12)
(2.57908e-10 5.37695e-10 -7.23321e-12)
(3.78075e-10 4.69509e-10 -5.32897e-12)
(2.52104e-10 5.25471e-10 -3.60328e-12)
(2.5255e-10 3.58421e-10 -4.39196e-12)
(3.96991e-10 3.09089e-10 -5.15227e-12)
(3.97457e-10 3.10587e-10 -4.49611e-12)
(2.52837e-10 5.26755e-10 -4.77741e-12)
(3.77311e-10 4.679e-10 -4.54879e-12)
(3.82324e-10 4.75955e-10 -6.79098e-12)
(2.55613e-10 3.64183e-10 -6.61112e-12)
(4.02247e-10 3.16629e-10 -6.35249e-12)
(2.56358e-10 5.35824e-10 -7.06851e-12)
(3.82955e-10 4.77024e-10 -7.22214e-12)
(4.01576e-10 3.1559e-10 -7.38085e-12)
(2.56356e-10 5.33961e-10 -6.2844e-12)
(3.70254e-10 4.26678e-10 5.20775e-11)
(2.48556e-10 4.81569e-10 4.9831e-11)
(2.54815e-10 3.15014e-10 5.80549e-11)
(3.92332e-10 2.77365e-10 4.47146e-11)
(3.68969e-10 4.30467e-10 4.37102e-11)
(3.94438e-10 2.73397e-10 5.17715e-11)
(2.50911e-10 4.76344e-10 5.91721e-11)
(3.76021e-10 4.02342e-10 1.11961e-10)
(2.67268e-10 2.90168e-10 1.24662e-10)
(4.07202e-10 2.46077e-10 1.3176e-10)
(2.64117e-10 4.38523e-10 1.45367e-10)
(3.78996e-10 3.9488e-10 1.2988e-10)
(4.02678e-10 2.53399e-10 1.14506e-10)
(2.59855e-10 4.47256e-10 1.25232e-10)
(4.1589e-10 2.83396e-10 3.5253e-10)
(3.29675e-10 2.73576e-10 4.41685e-10)
(3.32008e-10 1.68017e-10 3.98398e-10)
(4.69997e-10 1.1874e-10 4.30725e-10)
(4.54871e-10 1.49079e-10 3.73298e-10)
(3.12974e-10 3.09978e-10 3.85763e-10)
(4.28583e-10 2.51214e-10 4.04821e-10)
(3.86767e-10 3.7632e-10 1.73723e-10)
(2.84835e-10 2.61314e-10 1.93799e-10)
(4.11533e-10 2.39447e-10 1.53613e-10)
(2.67688e-10 4.2918e-10 1.66914e-10)
(3.82011e-10 3.87071e-10 1.49519e-10)
(4.18576e-10 2.28722e-10 1.77514e-10)
(2.7446e-10 4.15914e-10 1.93633e-10)
(4.72285e-10 2.17207e-10 1.14472e-11)
(4.48549e-10 2.24155e-10 -5.20095e-12)
(4.55723e-10 2.21641e-10 -2.06932e-12)
(1.58334e-10 6.51999e-10 1.17721e-11)
(1.35711e-10 6.58449e-10 -8.90179e-13)
(1.40215e-10 6.57518e-10 -8.32983e-13)