/*--------------------------------*- C++ -*----------------------------------*\
| =========                 |                                                 |
| \\      /  F ield         | OpenFOAM: The Open Source CFD Toolbox           |
|  \\    /   O peration     | Version:  2012                                  |
|   \\  /    A nd           | Website:  www.openfoam.com                      |
|    \\/     M anipulation  |                                                 |
\*---------------------------------------------------------------------------*/
FoamFile
{
    version     2.0;
    format      ascii;
    class       volVectorField;
    location    "0.107/solid";
    object      D_0_0_0;
}
// * * * * * * * * * * * * * * * * * * * * * * * * * * * * * * * * * * * * * //

dimensions      [0 1 0 0 0 0 0];


internalField   nonuniform List<vector> 
3125
(
(1.98085e-10 2.2377e-10 6.83604e-12)
(1.87596e-10 2.2312e-10 3.64105e-12)
(1.68311e-10 2.20418e-10 -1.92868e-12)
(1.67086e-10 2.19636e-10 -2.18608e-12)
(1.58948e-10 2.12107e-10 -4.13963e-12)
(1.57267e-10 2.10378e-10 -4.18798e-12)
(1.41486e-10 1.90093e-10 2.75726e-11)
(1.40344e-10 1.82202e-10 4.65092e-11)
(1.75505e-10 2.22725e-10 -1.5827e-13)
(1.7263e-10 2.221e-10 -7.94268e-13)
(1.64032e-10 2.17136e-10 -3.01707e-12)
(1.62912e-10 2.16081e-10 -3.30204e-12)
(1.50654e-10 2.03628e-10 -1.61606e-12)
(1.4804e-10 2.00879e-10 1.5018e-12)
(2.08589e-10 2.22595e-10 1.28405e-11)
(3.10737e-10 1.34265e-10 7.50567e-12)
(3.03409e-10 9.32287e-10 1.1738e-11)
(3.26924e-10 3.94876e-10 -5.51298e-13)
(3.22206e-10 1.31465e-10 1.05123e-11)
(2.92492e-10 3.9527e-10 -1.6383e-12)
(2.97377e-10 1.36769e-10 3.76768e-12)
(2.91909e-10 9.24345e-10 8.70977e-12)
(1.81936e-10 2.22806e-10 2.05748e-12)
(2.7183e-10 9.22478e-10 6.74731e-12)
(3.16646e-10 3.99165e-10 -9.1017e-13)
(2.90905e-10 1.36597e-10 6.71618e-13)
(2.65922e-10 3.92764e-10 -3.59532e-12)
(1.69644e-10 2.21051e-10 -1.51575e-12)
(2.75563e-10 1.35077e-10 -1.73983e-12)
(2.60298e-10 3.9154e-10 -4.2265e-12)
(2.77181e-10 1.35398e-10 -1.51589e-12)
(2.56711e-10 3.87982e-10 -4.73837e-12)
(2.74029e-10 1.34621e-10 -1.91135e-12)
(1.66086e-10 2.18847e-10 -2.44087e-12)
(2.59648e-10 3.91231e-10 -4.15544e-12)
(2.72838e-10 1.34038e-10 -2.24016e-12)
(2.49013e-10 3.79046e-10 -6.16944e-12)
(1.60439e-10 2.13602e-10 -3.87834e-12)
(2.64636e-10 1.29314e-10 -3.55233e-12)
(2.4541e-10 3.73431e-10 -6.16741e-12)
(2.66326e-10 1.30352e-10 -3.30957e-12)
(2.41044e-10 3.64431e-10 -3.34391e-12)
(2.62803e-10 1.28069e-10 -3.47141e-12)
(1.55333e-10 2.08405e-10 -4.00879e-12)
(2.44843e-10 3.72557e-10 -5.92968e-12)
(2.60691e-10 1.26676e-10 -3.24941e-12)
(2.41844e-10 3.27306e-10 5.08564e-11)
(1.43215e-10 1.94609e-10 1.51292e-11)
(2.47378e-10 1.12562e-10 3.61203e-11)
(2.62124e-10 2.89781e-10 1.47062e-10)
(2.49502e-10 1.16025e-10 1.88675e-11)
(3.40792e-10 1.4158e-10 4.65049e-10)
(2.44405e-10 1.06505e-10 6.6752e-11)
(1.41001e-10 1.63969e-10 7.51809e-11)
(2.67439e-10 2.80993e-10 1.7024e-10)
(2.40921e-10 9.42418e-11 1.22896e-10)
(2.05529e-10 3.84957e-11 1.73928e-12)
(2.8623e-10 1.20473e-09 1.16667e-11)
(2.0229e-10 3.8978e-11 1.14788e-12)
(1.95707e-10 3.8609e-11 -1.17117e-12)
(2.74648e-10 1.192e-09 1.04844e-11)
(2.54318e-10 1.19317e-09 7.41755e-12)
(2.91814e-10 3.93659e-10 -1.89331e-12)
(1.78788e-10 2.22958e-10 9.02656e-13)
(2.84212e-10 1.36258e-10 -3.37668e-13)
(2.75241e-10 3.9591e-10 -3.7692e-12)
(2.8797e-10 1.36055e-10 -1.3665e-13)
(2.37116e-10 1.19161e-09 5.19109e-13)
(2.49669e-10 1.19739e-09 5.00881e-12)
(1.91177e-10 3.81644e-11 -7.96289e-13)
(1.94545e-10 3.82702e-11 -8.92445e-13)
(2.6647e-10 3.93175e-10 -3.60742e-12)
(1.70901e-10 2.21535e-10 -1.20202e-12)
(2.80568e-10 1.36307e-10 -8.23672e-13)
(2.73007e-10 3.96262e-10 -3.61987e-12)
(2.78535e-10 1.35852e-10 -1.45202e-12)
(1.86284e-10 3.74539e-11 -1.12813e-12)
(1.87635e-10 3.76623e-11 -8.60764e-13)
(2.21788e-10 1.17862e-09 -3.04311e-12)
(2.26237e-10 1.18445e-09 -1.80594e-12)
(2.34024e-10 1.18786e-09 -1.23819e-13)
(2.27889e-10 1.18476e-09 -1.00643e-12)
(1.90195e-10 3.8154e-11 -5.79689e-13)
(1.88124e-10 3.78107e-11 -1.17603e-12)
(1.8582e-10 3.73595e-11 -8.79383e-13)
(1.84666e-10 3.70166e-11 -1.33267e-12)
(2.20573e-10 1.17622e-09 -3.45414e-12)
(2.17329e-10 1.17088e-09 -3.86324e-12)
(2.5629e-10 3.87592e-10 -4.74015e-12)
(1.65108e-10 2.18048e-10 -2.66145e-12)
(2.70435e-10 1.3286e-10 -2.65049e-12)
(2.52864e-10 3.8467e-10 -5.52842e-12)
(2.71717e-10 1.33456e-10 -2.3231e-12)
(2.12827e-10 1.16236e-09 -4.93821e-12)
(2.16213e-10 1.16926e-09 -4.3401e-12)
(1.83216e-10 3.65499e-11 -1.50923e-12)
(1.84269e-10 3.68834e-11 -1.06843e-12)
(2.49467e-10 3.79703e-10 -6.2093e-12)
(1.61738e-10 2.1491e-10 -3.6334e-12)
(2.69128e-10 1.32126e-10 -2.83858e-12)
(2.52413e-10 3.84166e-10 -5.51175e-12)
(2.67776e-10 1.31293e-10 -3.18904e-12)
(1.79738e-10 3.51975e-11 -1.9416e-12)
(1.81141e-10 3.57496e-11 -1.5286e-12)
(2.01782e-10 1.13744e-09 -5.11144e-12)
(2.0655e-10 1.14845e-09 -5.72324e-12)
(2.11675e-10 1.15977e-09 -5.3124e-12)
(2.07962e-10 1.15142e-09 -5.48669e-12)
(1.8277e-10 3.63984e-11 -1.2807e-12)
(1.81637e-10 3.59411e-11 -1.76569e-12)
(1.79089e-10 3.49563e-11 -1.66264e-12)
(1.77353e-10 3.42706e-11 -1.73398e-12)
(1.99943e-10 1.13328e-09 -4.84777e-12)
(2.40469e-10 3.63155e-10 -2.48497e-12)
(1.53138e-10 2.06159e-10 -3.23273e-12)
(2.55935e-10 1.23234e-10 -5.76085e-13)
(2.37544e-10 3.51339e-10 7.95309e-12)
(2.58449e-10 1.25027e-10 -2.31128e-12)
(1.74412e-10 3.32387e-11 -1.75308e-13)
(1.76557e-10 3.39821e-11 -1.24749e-12)
(2.40441e-10 3.30761e-10 4.30958e-11)
(1.45431e-10 1.97948e-10 6.7662e-12)
(2.53587e-10 1.21103e-10 2.84175e-12)
(2.37365e-10 3.49368e-10 1.06383e-11)
(2.51218e-10 1.1886e-10 8.73632e-12)
(1.68098e-10 3.25226e-11 2.19932e-11)
(1.70353e-10 3.22657e-11 8.0689e-12)
(1.73466e-10 3.29478e-11 9.38081e-13)
(1.7126e-10 3.24074e-11 5.23583e-12)
(1.66718e-10 3.28063e-11 3.05223e-11)
(1.58193e-10 3.34805e-11 8.79834e-11)
(3.62097e-10 1.03551e-10 5.32819e-10)
(1.42101e-10 2.70508e-11 1.08241e-10)
(1.57425e-10 3.00596e-11 1.26677e-10)
(3.55229e-10 9.06834e-11 4.34696e-10)
(6.60167e-11 -1.11219e-11 1.16285e-10)
(4.92575e-10 5.27619e-10 1.81196e-11)
(3.69921e-10 3.75321e-10 6.77883e-12)
(5.76381e-10 3.08445e-10 1.27858e-11)
(4.20513e-10 7.46643e-10 1.84109e-11)
(4.80784e-10 5.29984e-10 1.48341e-11)
(3.58126e-10 3.81637e-10 4.03024e-12)
(5.44622e-10 3.19904e-10 8.56376e-12)
(3.85962e-10 7.52704e-10 1.07419e-11)
(4.64765e-10 5.32197e-10 1.1925e-11)
(5.63219e-10 3.1316e-10 1.37131e-11)
(4.03899e-10 7.51134e-10 1.32994e-11)
(4.35382e-10 5.30448e-10 2.36937e-12)
(3.49366e-10 7.47854e-10 2.11107e-12)
(2.97249e-10 3.99411e-10 -7.74795e-13)
(5.08585e-10 3.2135e-10 -2.74744e-12)
(5.11116e-10 3.2378e-10 8.78521e-13)
(3.53059e-10 7.48099e-10 1.72212e-12)
(4.31976e-10 5.29661e-10 1.4151e-12)
(4.40803e-10 5.31402e-10 5.1303e-12)
(2.98555e-10 4.0208e-10 -9.78349e-13)
(5.28773e-10 3.23923e-10 7.88834e-12)
(3.69893e-10 7.51714e-10 6.03028e-12)
(4.51732e-10 5.31981e-10 8.35902e-12)
(5.16184e-10 3.25651e-10 1.09702e-12)
(3.58824e-10 7.49916e-10 4.81327e-12)
(4.06234e-10 5.24996e-10 -2.6285e-12)
(3.22203e-10 7.42283e-10 -3.8257e-12)
(2.63389e-10 3.92319e-10 -4.03859e-12)
(4.83546e-10 3.18399e-10 -1.94024e-12)
(4.07907e-10 5.25666e-10 -3.08882e-12)
(4.81675e-10 3.18134e-10 -4.09504e-12)
(3.20543e-10 7.41394e-10 -2.66022e-12)
(4.04781e-10 5.24481e-10 -3.47166e-12)
(2.6234e-10 3.92411e-10 -3.9854e-12)
(4.78509e-10 3.17366e-10 -4.60787e-12)
(3.174e-10 7.39332e-10 -3.18929e-12)
(4.03319e-10 5.23467e-10 -3.17277e-12)
(4.79962e-10 3.18034e-10 -2.13618e-12)
(3.18846e-10 7.40518e-10 -4.30637e-12)
(3.99649e-10 5.20787e-10 -4.47012e-12)
(3.13071e-10 7.33986e-10 -3.99223e-12)
(2.57562e-10 3.89612e-10 -4.34674e-12)
(4.7377e-10 3.14627e-10 -5.47264e-12)
(4.74298e-10 3.15769e-10 -3.07133e-12)
(3.13872e-10 7.3514e-10 -5.22706e-12)
(3.98843e-10 5.19634e-10 -4.0755e-12)
(4.00568e-10 5.21536e-10 -3.62617e-12)
(2.5789e-10 3.90131e-10 -4.4109e-12)
(4.77001e-10 3.16967e-10 -2.34578e-12)
(3.1606e-10 7.37971e-10 -4.90718e-12)
(4.02042e-10 5.22687e-10 -3.93419e-12)
(4.75269e-10 3.16374e-10 -4.87287e-12)
(3.14808e-10 7.36375e-10 -3.69809e-12)
(3.87025e-10 5.07355e-10 -6.09171e-12)
(3.03224e-10 7.19572e-10 -7.38416e-12)
(2.47318e-10 3.7696e-10 -6.41287e-12)
(4.63293e-10 3.07282e-10 -4.69592e-12)
(3.88705e-10 5.09253e-10 -6.53002e-12)
(4.61499e-10 3.06091e-10 -6.96572e-12)
(3.01804e-10 7.17159e-10 -6.11038e-12)
(3.85662e-10 5.06048e-10 -6.8113e-12)
(2.46613e-10 3.76401e-10 -6.27197e-12)
(4.58851e-10 3.03345e-10 -7.32796e-12)
(2.99102e-10 7.1239e-10 -5.99688e-12)
(3.84211e-10 5.03761e-10 -6.28418e-12)
(4.6e-10 3.05228e-10 -5.08339e-12)
(3.00408e-10 7.14973e-10 -7.45195e-12)
(3.7908e-10 4.97806e-10 -6.07439e-12)
(2.92689e-10 6.99909e-10 -3.63174e-12)
(2.42272e-10 3.68613e-10 -4.88355e-12)
(4.52085e-10 2.96703e-10 -5.75496e-12)
(4.53509e-10 2.99213e-10 -4.2847e-12)
(2.94293e-10 7.03484e-10 -6.02265e-12)
(3.77249e-10 4.94752e-10 -4.77319e-12)
(3.80755e-10 4.99602e-10 -5.85309e-12)
(2.43078e-10 3.69438e-10 -5.37734e-12)
(4.57371e-10 3.0219e-10 -4.8136e-12)
(2.97654e-10 7.09829e-10 -7.18136e-12)
(3.8279e-10 5.02207e-10 -6.70085e-12)
(4.553e-10 3.00448e-10 -6.64052e-12)
(2.95971e-10 7.0654e-10 -5.39794e-12)
(3.61772e-10 4.54575e-10 5.31268e-11)
(2.81414e-10 6.50766e-10 5.09606e-11)
(2.48537e-10 3.14011e-10 8.09048e-11)
(4.41006e-10 2.7024e-10 3.96935e-11)
(3.6226e-10 4.61818e-10 3.69131e-11)
(4.41818e-10 2.64232e-10 5.44089e-11)
(2.82245e-10 6.40967e-10 7.11976e-11)
(3.61566e-10 4.48659e-10 6.96323e-11)
(2.50179e-10 3.10161e-10 9.41897e-11)
(4.45061e-10 2.50193e-10 1.00653e-10)
(2.86418e-10 6.14624e-10 1.26814e-10)
(3.62256e-10 4.37287e-10 9.54611e-11)
(4.42461e-10 2.59545e-10 7.51383e-11)
(2.83686e-10 6.29687e-10 9.40831e-11)
(3.70126e-10 3.77224e-10 2.18613e-10)
(3.25736e-10 4.59006e-10 3.63038e-10)
(2.9826e-10 2.24392e-10 3.03358e-10)
(4.68181e-10 1.59175e-10 3.38804e-10)
(4.58185e-10 2.00789e-10 2.48748e-10)
(3.08506e-10 5.22602e-10 2.80719e-10)
(3.77573e-10 3.25394e-10 2.94496e-10)
(3.66689e-10 4.02684e-10 1.67508e-10)
(2.90394e-10 2.40557e-10 2.62705e-10)
(4.4894e-10 2.40362e-10 1.35697e-10)
(2.91353e-10 5.9506e-10 1.65303e-10)
(3.6402e-10 4.26311e-10 1.23523e-10)
(4.54279e-10 2.20926e-10 1.84947e-10)
(2.98264e-10 5.64889e-10 2.17755e-10)
(6.49625e-10 1.51143e-10 8.74817e-12)
(5.97143e-10 7.1398e-11 4.30414e-12)
(2.09853e-10 3.76143e-11 2.44784e-12)
(6.13423e-10 6.54225e-11 7.40586e-12)
(6.14214e-10 1.63523e-10 4.23872e-12)
(6.43282e-10 1.52885e-10 9.40507e-12)
(2.13114e-10 3.72469e-11 2.93974e-12)
(6.23558e-10 6.28432e-11 7.1537e-12)
(2.24898e-10 9.57529e-10 1.43397e-11)
(3.00474e-10 1.2194e-09 1.40858e-11)
(2.32309e-10 1.05217e-09 8.9335e-12)
(2.55159e-10 1.06016e-09 1.40184e-11)
(3.1532e-10 1.22732e-09 1.94688e-11)
(2.63162e-10 1.05995e-09 1.5827e-11)
(1.92697e-10 9.57549e-10 7.89114e-12)
(2.16347e-10 9.59928e-10 1.16757e-11)
(5.80811e-10 1.64413e-10 -3.64533e-12)
(5.83896e-10 1.68681e-10 -7.86794e-13)
(5.83959e-10 7.55016e-11 3.85103e-12)
(1.99139e-10 3.92743e-11 -2.86789e-13)
(5.72479e-10 7.85113e-11 -8.34209e-13)
(6.06067e-10 1.65698e-10 4.77216e-12)
(5.8598e-10 1.69897e-10 -1.64771e-12)
(5.66309e-10 7.46758e-11 -3.22875e-12)
(1.97204e-10 3.902e-11 -5.95528e-13)
(5.68914e-10 7.6673e-11 -6.37145e-13)
(1.61844e-10 9.51041e-10 2.14648e-12)
(1.69404e-10 9.49237e-10 2.77569e-12)
(2.65864e-10 1.18616e-09 1.01948e-11)
(2.25999e-10 1.0489e-09 7.89038e-12)
(2.12327e-10 1.04248e-09 5.77031e-12)
(2.0169e-10 1.04523e-09 3.1691e-12)
(2.59472e-10 1.18805e-09 9.14427e-12)
(2.09313e-10 1.04202e-09 5.13271e-12)
(1.86067e-10 9.5549e-10 5.73657e-12)
(1.72294e-10 9.50343e-10 4.46562e-12)
(4.26091e-10 5.29696e-10 5.43735e-13)
(3.46421e-10 7.48145e-10 -1.56839e-13)
(2.85713e-10 3.934e-10 -3.29666e-12)
(5.07029e-10 3.19792e-10 -4.28129e-13)
(4.29581e-10 5.29671e-10 1.98968e-13)
(3.42478e-10 7.48334e-10 6.26056e-13)
(5.03598e-10 3.1959e-10 -2.18645e-12)
(4.22399e-10 5.29722e-10 -4.62602e-13)
(2.8251e-10 3.94588e-10 -3.44013e-12)
(3.33244e-10 7.47625e-10 -7.11093e-13)
(4.94578e-10 3.20904e-10 -2.60024e-12)
(3.37703e-10 7.48374e-10 -1.42315e-12)
(4.99314e-10 3.2035e-10 2.10367e-14)
(4.18194e-10 5.29294e-10 -4.78144e-13)
(1.59732e-10 9.51717e-10 6.1767e-13)
(1.53205e-10 9.52245e-10 1.4936e-13)
(2.41013e-10 1.19555e-09 1.28571e-12)
(1.84912e-10 1.04306e-09 -1.03819e-12)
(1.90804e-10 1.04649e-09 1.92952e-13)
(1.99546e-10 1.04623e-09 2.58937e-12)
(2.45308e-10 1.19818e-09 2.94432e-12)
(1.93011e-10 1.04695e-09 5.1167e-13)
(1.44966e-10 9.49937e-10 -1.0117e-12)
(1.50889e-10 9.52252e-10 -1.10357e-12)
(5.80405e-10 1.63211e-10 -1.96441e-12)
(5.7544e-10 1.62866e-10 -2.8727e-12)
(5.54718e-10 7.38312e-11 -2.48513e-12)
(1.92372e-10 3.80917e-11 -5.69261e-13)
(5.5881e-10 7.30068e-11 -8.50875e-13)
(5.65842e-10 1.64552e-10 -3.08778e-12)
(5.7322e-10 1.63223e-10 -1.20327e-12)
(5.65509e-10 7.24905e-11 -1.50446e-12)
(1.93462e-10 3.81281e-11 -8.47023e-13)
(5.62448e-10 7.24609e-11 -2.59221e-12)
(4.10169e-10 5.26965e-10 -2.72401e-12)
(2.68013e-10 3.94971e-10 -3.32807e-12)
(3.23527e-10 7.42818e-10 -2.15487e-12)
(4.84544e-10 3.18941e-10 -4.4474e-12)
(4.09008e-10 5.26064e-10 -2.41224e-12)
(3.24787e-10 7.43571e-10 -3.39693e-12)
(4.85328e-10 3.20174e-10 -1.99805e-12)
(4.11786e-10 5.27658e-10 -1.67482e-12)
(2.68474e-10 3.95846e-10 -3.49581e-12)
(3.29399e-10 7.46276e-10 -2.75253e-12)
(4.90525e-10 3.21161e-10 -5.72913e-13)
(4.14851e-10 5.28621e-10 -1.55534e-12)
(3.26493e-10 7.44746e-10 -1.74926e-12)
(4.86919e-10 3.20973e-10 -3.63117e-12)
(5.55763e-10 1.62821e-10 -2.41528e-12)
(5.52754e-10 1.63015e-10 -3.88503e-12)
(5.40246e-10 7.28771e-11 -3.37484e-12)
(1.8673e-10 3.75284e-11 -8.48675e-13)
(5.41384e-10 7.31734e-11 -1.68725e-12)
(5.49718e-10 1.62367e-10 -4.17956e-12)
(5.51824e-10 1.63023e-10 -2.33615e-12)
(5.44787e-10 7.28439e-11 -1.69764e-12)
(1.87191e-10 3.76065e-11 -1.0404e-12)
(5.42952e-10 7.31567e-11 -3.18032e-12)
(1.36106e-10 9.44017e-10 -3.26195e-12)
(1.34059e-10 9.42153e-10 -2.75567e-12)
(2.23249e-10 1.18095e-09 -2.84703e-12)
(1.70924e-10 1.03155e-09 -3.68577e-12)
(1.72948e-10 1.03429e-09 -3.15485e-12)
(1.75804e-10 1.03694e-09 -2.42868e-12)
(2.24746e-10 1.18306e-09 -2.30729e-12)
(1.73674e-10 1.03497e-09 -3.13465e-12)
(1.31385e-10 9.39361e-10 -3.17471e-12)
(1.33326e-10 9.4164e-10 -3.78315e-12)
(1.36865e-10 9.44201e-10 -2.12158e-12)
(1.39329e-10 9.44899e-10 -2.7339e-12)
(1.8337e-10 1.0418e-09 -1.2115e-12)
(2.31633e-10 1.18537e-09 -2.42301e-13)
(1.79974e-10 1.0383e-09 -1.73439e-12)
(1.43419e-10 9.4889e-10 -2.23719e-12)
(1.40149e-10 9.45564e-10 -1.65024e-12)
(1.76576e-10 1.03713e-09 -2.32833e-12)
(2.29675e-10 1.1847e-09 -6.19984e-13)
(1.79091e-10 1.03775e-09 -1.77753e-12)
(5.56206e-10 1.63176e-10 -4.13748e-12)
(5.57007e-10 1.65133e-10 -2.37806e-12)
(5.51163e-10 7.43968e-11 -9.75071e-13)
(1.89273e-10 3.81511e-11 -1.02303e-12)
(5.47559e-10 7.51843e-11 -3.07446e-12)
(5.63709e-10 1.64799e-10 -1.48152e-12)
(5.57738e-10 1.65571e-10 -3.85444e-12)
(5.4561e-10 7.34918e-11 -3.4547e-12)
(1.88605e-10 3.80006e-11 -8.95934e-13)
(5.46223e-10 7.45004e-11 -1.73738e-12)
(5.44918e-10 1.6049e-10 -4.82962e-12)
(5.45427e-10 1.62048e-10 -3.00832e-12)
(5.38793e-10 7.2758e-11 -1.79518e-12)
(1.85383e-10 3.73001e-11 -1.19915e-12)
(5.36969e-10 7.30723e-11 -3.57196e-12)
(5.4889e-10 1.62258e-10 -2.55467e-12)
(5.4594e-10 1.62311e-10 -4.48617e-12)
(5.35695e-10 7.18542e-11 -3.89683e-12)
(1.84953e-10 3.7168e-11 -1.05033e-12)
(5.35996e-10 7.26596e-11 -2.20201e-12)
(1.28001e-10 9.32865e-10 -3.93185e-12)
(1.29391e-10 9.34633e-10 -4.59967e-12)
(2.19538e-10 1.17395e-09 -3.49932e-12)
(1.70379e-10 1.03064e-09 -3.72585e-12)
(1.69112e-10 1.02733e-09 -4.09491e-12)
(1.6717e-10 1.02464e-09 -4.47325e-12)
(2.18475e-10 1.1723e-09 -3.7426e-12)
(1.68659e-10 1.02663e-09 -4.06531e-12)
(1.30882e-10 9.38542e-10 -4.28392e-12)
(1.29789e-10 9.35309e-10 -3.58337e-12)
(3.96587e-10 5.17864e-10 -4.37393e-12)
(3.12087e-10 7.32942e-10 -5.64738e-12)
(2.54588e-10 3.86619e-10 -5.18552e-12)
(4.72839e-10 3.14109e-10 -3.10829e-12)
(3.97953e-10 5.18961e-10 -4.75239e-12)
(3.10877e-10 7.31498e-10 -4.49734e-12)
(4.71286e-10 3.13548e-10 -5.45856e-12)
(3.95514e-10 5.17087e-10 -5.24139e-12)
(2.53965e-10 3.86365e-10 -5.15154e-12)
(3.08742e-10 7.28661e-10 -4.97728e-12)
(4.69203e-10 3.11952e-10 -6.15452e-12)
(3.09727e-10 7.30204e-10 -6.10493e-12)
(4.70057e-10 3.13112e-10 -3.65786e-12)
(3.94466e-10 5.15689e-10 -4.95233e-12)
(1.2754e-10 9.3233e-10 -5.03496e-12)
(1.2638e-10 9.29413e-10 -4.44029e-12)
(2.14046e-10 1.16475e-09 -4.84484e-12)
(1.63333e-10 1.01705e-09 -5.44584e-12)
(1.64869e-10 1.02013e-09 -5.00198e-12)
(1.66678e-10 1.02403e-09 -4.51446e-12)
(2.15173e-10 1.16707e-09 -4.52811e-12)
(1.6536e-10 1.02098e-09 -5.01744e-12)
(1.24526e-10 9.2597e-10 -4.81125e-12)
(1.25916e-10 9.28693e-10 -5.44997e-12)
(5.44422e-10 1.60249e-10 -3.19594e-12)
(5.41843e-10 1.60248e-10 -4.95684e-12)
(5.31443e-10 7.08027e-11 -4.34207e-12)
(1.83531e-10 3.669e-11 -1.19669e-12)
(5.31986e-10 7.14719e-11 -2.59512e-12)
(5.40079e-10 1.58752e-10 -5.44006e-12)
(5.41148e-10 1.60111e-10 -3.49883e-12)
(5.34779e-10 7.14431e-11 -2.2866e-12)
(1.83936e-10 3.68138e-11 -1.33478e-12)
(5.33206e-10 7.1691e-11 -3.94326e-12)
(3.90926e-10 5.12149e-10 -6.22497e-12)
(2.50428e-10 3.82002e-10 -5.86825e-12)
(3.04397e-10 7.21426e-10 -5.81807e-12)
(4.64488e-10 3.08125e-10 -7.00364e-12)
(3.8984e-10 5.10394e-10 -5.87158e-12)
(3.054e-10 7.2334e-10 -7.03491e-12)
(4.65291e-10 3.09648e-10 -4.58166e-12)
(3.91993e-10 5.13189e-10 -5.37969e-12)
(2.50923e-10 3.82516e-10 -5.90965e-12)
(3.07675e-10 7.27079e-10 -6.6688e-12)
(4.68054e-10 3.11302e-10 -3.91473e-12)
(3.93432e-10 5.14731e-10 -5.69712e-12)
(3.06481e-10 7.25066e-10 -5.50892e-12)
(4.66457e-10 3.10376e-10 -6.35424e-12)
(5.34525e-10 1.55763e-10 -4.60042e-12)
(5.31614e-10 1.55186e-10 -6.29852e-12)
(5.21509e-10 6.73378e-11 -5.3068e-12)
(1.80143e-10 3.54134e-11 -1.66115e-12)
(5.22307e-10 6.8277e-11 -3.68837e-12)
(5.29296e-10 1.52822e-10 -6.49688e-12)
(5.30742e-10 1.54886e-10 -4.82377e-12)
(5.25667e-10 6.87077e-11 -3.42015e-12)
(1.80732e-10 3.56175e-11 -1.80572e-12)
(5.23904e-10 6.87326e-11 -5.05868e-12)
(1.20718e-10 9.15925e-10 -6.43214e-12)
(1.19412e-10 9.1121e-10 -5.50585e-12)
(2.0356e-10 1.14126e-09 -5.51865e-12)
(1.54595e-10 9.948e-10 -5.74165e-12)
(1.56654e-10 9.99877e-10 -5.98451e-12)
(1.58885e-10 1.00616e-09 -6.02477e-12)
(2.05137e-10 1.1449e-09 -5.60333e-12)
(1.57282e-10 1.00123e-09 -6.15924e-12)
(1.171e-10 9.05403e-10 -5.05736e-12)
(1.18859e-10 9.10023e-10 -6.3553e-12)
(1.21209e-10 9.16897e-10 -5.412e-12)
(1.22672e-10 9.20193e-10 -6.19483e-12)
(1.62856e-10 1.01607e-09 -5.47262e-12)
(2.10579e-10 1.15688e-09 -5.35263e-12)
(1.61614e-10 1.01196e-09 -5.84818e-12)
(1.24106e-10 9.25111e-10 -5.90151e-12)
(1.23099e-10 9.2113e-10 -5.21685e-12)
(1.59451e-10 1.00727e-09 -6.06287e-12)
(2.09352e-10 1.15415e-09 -5.52448e-12)
(1.61114e-10 1.01092e-09 -5.7923e-12)
(5.3519e-10 1.56109e-10 -6.19379e-12)
(5.36116e-10 1.57911e-10 -4.30815e-12)
(5.30263e-10 7.0424e-11 -2.82347e-12)
(1.82417e-10 3.62966e-11 -1.58708e-12)
(5.28652e-10 7.05464e-11 -4.56089e-12)
(5.39434e-10 1.58507e-10 -3.86178e-12)
(5.36776e-10 1.5818e-10 -5.74475e-12)
(5.26925e-10 6.92561e-11 -4.96601e-12)
(1.8195e-10 3.61263e-11 -1.46075e-12)
(5.27414e-10 7.01285e-11 -3.24851e-12)
(5.22297e-10 1.48238e-10 -4.99883e-12)
(5.24116e-10 1.50849e-10 -4.2791e-12)
(5.19905e-10 6.66348e-11 -3.63198e-12)
(1.78588e-10 3.47801e-11 -1.86061e-12)
(5.17902e-10 6.64798e-11 -5.02232e-12)
(5.28455e-10 1.52357e-10 -4.80849e-12)
(5.25161e-10 1.51281e-10 -5.96783e-12)
(5.14814e-10 6.47714e-11 -4.48957e-12)
(1.77846e-10 3.4528e-11 -1.60548e-12)
(5.15901e-10 6.58749e-11 -3.3396e-12)
(1.12145e-10 8.89503e-10 -1.51827e-12)
(1.14261e-10 8.96014e-10 -4.43945e-12)
(1.98073e-10 1.12833e-09 -4.1009e-12)
(1.53881e-10 9.93274e-10 -5.47553e-12)
(1.51864e-10 9.86598e-10 -4.68121e-12)
(1.48456e-10 9.77593e-10 -2.2382e-12)
(1.95953e-10 1.12286e-09 -3.18271e-12)
(1.51059e-10 9.84723e-10 -4.11066e-12)
(1.16499e-10 9.04049e-10 -5.84002e-12)
(1.14921e-10 8.97684e-10 -3.9926e-12)
(3.73161e-10 4.89099e-10 -2.0522e-12)
(2.90999e-10 6.96416e-10 -3.57477e-12)
(2.38934e-10 3.58525e-10 5.3777e-13)
(4.5043e-10 2.95038e-10 -2.39085e-12)
(3.7555e-10 4.92606e-10 -4.30213e-12)
(2.89079e-10 6.91959e-10 -1.76675e-13)
(4.48171e-10 2.92548e-10 -2.76167e-12)
(3.71197e-10 4.86652e-10 -7.47724e-13)
(2.3807e-10 3.57343e-10 2.11367e-12)
(2.85531e-10 6.82783e-10 6.44827e-12)
(4.4474e-10 2.87495e-10 1.9226e-12)
(2.87194e-10 6.87711e-10 1.30493e-12)
(4.4617e-10 2.90831e-10 1.11244e-12)
(3.69159e-10 4.82531e-10 2.86246e-12)
(1.11423e-10 8.87659e-10 -1.60212e-12)
(1.09561e-10 8.78993e-10 2.96578e-12)
(1.41091e-10 9.54605e-10 1.03704e-11)
(1.44055e-10 9.6433e-10 3.92104e-12)
(1.47549e-10 9.75698e-10 -1.29133e-12)
(1.45019e-10 9.66789e-10 2.20989e-12)
(1.06675e-10 8.67344e-10 1.12323e-11)
(1.08822e-10 8.76608e-10 3.68957e-12)
(5.21347e-10 1.47563e-10 -2.90477e-12)
(5.17852e-10 1.45817e-10 -2.24084e-12)
(5.07006e-10 6.15192e-11 2.64696e-13)
(1.75013e-10 3.35047e-11 -5.12119e-13)
(5.08266e-10 6.2769e-11 1.96751e-14)
(5.14844e-10 1.41961e-10 2.32631e-12)
(5.16626e-10 1.45241e-10 1.73406e-13)
(5.1291e-10 6.3819e-11 -2.22081e-12)
(1.75937e-10 3.37739e-11 -1.14612e-12)
(5.10708e-10 6.34454e-11 -2.72612e-12)
(3.63881e-10 4.71622e-10 1.74488e-11)
(2.37551e-10 3.40204e-10 2.53355e-11)
(2.8102e-10 6.58397e-10 3.79094e-11)
(4.4038e-10 2.74221e-10 2.6749e-11)
(3.62662e-10 4.66067e-10 2.72389e-11)
(2.81537e-10 6.6551e-10 2.52535e-11)
(4.40548e-10 2.78895e-10 1.96274e-11)
(3.6544e-10 4.74951e-10 1.19777e-11)
(2.37821e-10 3.42087e-10 2.07313e-11)
(2.84097e-10 6.77789e-10 1.00137e-11)
(4.43465e-10 2.85044e-10 7.7913e-12)
(3.67557e-10 4.79654e-10 5.84273e-12)
(2.82665e-10 6.71655e-10 1.79712e-11)
(4.41848e-10 2.8144e-10 1.14418e-11)
(5.11091e-10 1.31372e-10 3.29317e-11)
(5.12708e-10 1.26304e-10 5.31598e-11)
(4.96905e-10 5.22377e-11 6.58527e-11)
(1.68716e-10 3.23993e-11 1.61246e-11)
(4.97117e-10 5.39828e-11 4.89484e-11)
(5.17048e-10 1.16999e-10 9.90606e-11)
(5.12592e-10 1.24907e-10 6.38067e-11)
(4.994e-10 5.58485e-11 2.52247e-11)
(1.69811e-10 3.22394e-11 1.13987e-11)
(4.99031e-10 5.45438e-11 3.43114e-11)
(1.03958e-10 8.31324e-10 5.65423e-11)
(1.05935e-10 8.11872e-10 8.94004e-11)
(1.36889e-10 8.64673e-10 1.49187e-10)
(1.34318e-10 8.93025e-10 9.91692e-11)
(1.34268e-10 9.18048e-10 5.558e-11)
(1.34161e-10 8.99382e-10 8.62649e-11)
(1.12089e-10 7.75927e-10 1.56196e-10)
(1.06908e-10 8.0535e-10 1.02072e-10)
(1.03848e-10 8.35468e-10 4.93662e-11)
(1.04351e-10 8.49302e-10 2.91885e-11)
(1.4007e-10 9.51655e-10 1.32075e-11)
(1.37616e-10 9.39537e-10 2.41693e-11)
(1.06009e-10 8.6474e-10 1.30994e-11)
(1.04741e-10 8.52771e-10 2.52605e-11)
(1.34811e-10 9.22144e-10 4.77001e-11)
(1.36769e-10 9.35955e-10 2.89758e-11)
(5.10908e-10 1.32971e-10 2.61497e-11)
(5.10718e-10 1.37365e-10 1.59033e-11)
(5.05144e-10 6.02714e-11 4.29999e-12)
(1.72823e-10 3.27599e-11 1.87796e-12)
(5.0331e-10 5.95637e-11 6.24923e-12)
(5.14067e-10 1.40968e-10 5.64152e-12)
(5.11683e-10 1.38159e-10 1.14072e-11)
(5.00215e-10 5.75064e-11 1.62103e-11)
(1.71821e-10 3.25807e-11 3.57697e-12)
(5.00903e-10 5.89203e-11 1.20097e-11)
(5.36379e-10 5.46511e-11 3.56032e-10)
(5.28098e-10 9.00632e-11 2.19901e-10)
(4.96752e-10 4.91344e-11 9.12643e-11)
(1.65365e-10 3.30405e-11 4.30454e-11)
(4.9533e-10 4.53489e-11 1.26352e-10)
(5.18811e-10 1.13213e-10 1.17062e-10)
(5.27442e-10 9.66176e-11 1.86501e-10)
(4.72993e-10 3.57837e-11 2.4603e-10)
(1.6285e-10 3.40258e-11 6.02333e-11)
(4.89211e-10 4.21848e-11 1.74602e-10)
(1.67604e-10 5.73456e-10 4.16963e-10)
(1.33701e-10 6.85843e-10 2.96187e-10)
(1.38313e-10 8.54176e-10 1.69678e-10)
(1.47975e-10 7.99942e-10 2.45295e-10)
(1.83816e-10 6.67666e-10 3.77543e-10)
(1.52922e-10 7.77044e-10 2.75581e-10)
(1.14599e-10 7.65189e-10 1.77634e-10)
(1.27555e-10 7.0917e-10 2.62463e-10)
(4.37081e-10 1.71707e-10 5.05272e-10)
(3.58057e-10 3.75727e-10 4.56916e-10)
(4.58173e-10 -3.19773e-11 7.78489e-10)
(4.90832e-10 1.12772e-10 4.51667e-10)
(4.0235e-10 2.5578e-10 3.85772e-10)
(4.13627e-10 2.86668e-10 5.66134e-10)
(5.27353e-10 3.0275e-11 6.07694e-10)
(4.10488e-10 1.61811e-10 4.8282e-10)
(4.17169e-10 3.9604e-10 5.48329e-10)
(3.92304e-10 4.7261e-11 4.87852e-10)
(7.93359e-11 -4.14759e-11 1.68425e-10)
(4.85927e-10 -1.05553e-10 6.23593e-10)
(7.22018e-11 -1.94678e-11 1.35738e-10)
(4.54126e-10 1.08274e-10 5.4218e-10)
(5.15813e-10 -7.54892e-11 8.55585e-10)
(4.42722e-10 3.08468e-10 6.22725e-10)
(5.74019e-10 -9.10391e-11 7.02541e-10)
(1.85109e-10 5.27924e-10 4.61931e-10)
(2.86226e-10 3.80894e-10 5.98013e-10)
(3.53642e-10 4.61311e-10 5.49833e-10)
(1.9961e-10 6.25177e-10 4.15272e-10)
(2.96349e-10 4.8289e-10 5.21685e-10)
(3.43681e-10 3.51452e-10 6.41288e-10)
(5.39358e-10 3.7298e-11 4.19054e-10)
(5.7667e-10 -7.90042e-11 6.74556e-10)
(7.89853e-11 -4.70439e-11 1.79588e-10)
(5.12423e-10 -1.40909e-10 6.51041e-10)
(6.09153e-10 -1.46344e-10 7.49142e-10)
(4.55785e-10 1.7308e-11 3.54225e-10)
(1.46868e-10 1.32319e-12 2.03699e-10)
(4.5368e-10 -2.27726e-11 5.00296e-10)
(5.08267e-10 4.97274e-10 1.68638e-11)
(3.82452e-10 3.72656e-10 1.3867e-11)
(5.33483e-10 3.22453e-10 1.32756e-11)
(3.82765e-10 5.55302e-10 1.58044e-11)
(4.70014e-10 5.10053e-10 9.18701e-12)
(3.37812e-10 3.90329e-10 6.45816e-13)
(4.79822e-10 3.43052e-10 2.64702e-12)
(3.28221e-10 5.75889e-10 4.68245e-12)
(4.59453e-10 5.12789e-10 7.97695e-12)
(4.91664e-10 3.38469e-10 5.1195e-12)
(3.38958e-10 5.72234e-10 5.27003e-12)
(4.26436e-10 5.1152e-10 -6.89425e-13)
(2.94643e-10 5.73254e-10 -6.02562e-13)
(2.94266e-10 3.96296e-10 -1.16235e-12)
(4.44322e-10 3.43015e-10 -2.70615e-12)
(4.45001e-10 3.44442e-10 -1.10906e-12)
(2.9651e-10 5.7346e-10 -7.56594e-13)
(4.25352e-10 5.10543e-10 -8.74494e-13)
(4.42611e-10 5.15253e-10 4.17969e-12)
(3.09243e-10 4.01184e-10 -1.26735e-12)
(4.6944e-10 3.46618e-10 2.74425e-12)
(3.18651e-10 5.77906e-10 2.98258e-12)
(4.50723e-10 5.13841e-10 6.14482e-12)
(4.60296e-10 3.49209e-10 1.82151e-13)
(3.1138e-10 5.78599e-10 2.36572e-12)
(3.98302e-10 5.06838e-10 -3.27956e-12)
(2.68148e-10 5.69506e-10 -3.76585e-12)
(2.65689e-10 3.92235e-10 -3.91652e-12)
(4.17347e-10 3.40621e-10 -3.05101e-12)
(3.98895e-10 5.07012e-10 -3.54857e-12)
(4.16659e-10 3.40356e-10 -4.31899e-12)
(2.67913e-10 5.68714e-10 -3.2575e-12)
(3.24767e-10 5.95959e-10 -4.42866e-12)
(2.7672e-10 8.83105e-10 -3.57348e-12)
(3.23379e-10 5.94713e-10 -2.39653e-12)
(2.78168e-10 8.84683e-10 -3.88879e-12)
(3.26043e-10 5.96602e-10 -1.73571e-12)
(2.81209e-10 8.87045e-10 -3.05243e-12)
(3.27502e-10 5.97444e-10 -3.80021e-12)
(2.79692e-10 8.8596e-10 -2.82697e-12)
(3.93891e-10 5.05456e-10 -3.86805e-12)
(2.61454e-10 3.91571e-10 -3.96959e-12)
(4.11071e-10 3.39563e-10 -4.65361e-12)
(2.62572e-10 5.67311e-10 -3.69681e-12)
(3.93021e-10 5.04924e-10 -3.73917e-12)
(4.1191e-10 3.39831e-10 -3.33693e-12)
(2.63688e-10 5.67252e-10 -4.17478e-12)
(3.89107e-10 5.01513e-10 -4.67925e-12)
(2.58884e-10 5.62764e-10 -4.36527e-12)
(2.57521e-10 3.88202e-10 -4.41237e-12)
(4.06737e-10 3.36366e-10 -5.26863e-12)
(4.07044e-10 3.36863e-10 -3.94275e-12)
(2.59689e-10 5.62733e-10 -4.8285e-12)
(3.88647e-10 5.0091e-10 -4.50412e-12)
(3.21043e-10 5.92491e-10 -2.87541e-12)
(2.75476e-10 8.81464e-10 -4.53893e-12)
(3.22242e-10 5.93866e-10 -4.98995e-12)
(2.74371e-10 8.79663e-10 -4.05881e-12)
(3.2014e-10 5.91746e-10 -5.44336e-12)
(2.72384e-10 8.7706e-10 -4.40808e-12)
(2.73381e-10 8.78336e-10 -4.87499e-12)
(3.19202e-10 5.90564e-10 -3.29332e-12)
(3.9162e-10 5.041e-10 -4.02881e-12)
(2.59551e-10 3.9058e-10 -4.39782e-12)
(4.10258e-10 3.39335e-10 -3.53501e-12)
(2.61893e-10 5.66773e-10 -4.42551e-12)
(3.92255e-10 5.04489e-10 -4.16992e-12)
(4.09454e-10 3.3901e-10 -4.84308e-12)
(2.6183e-10 5.65643e-10 -3.92686e-12)
(3.78521e-10 4.90067e-10 -6.33072e-12)
(2.50735e-10 5.51401e-10 -6.61017e-12)
(2.48996e-10 3.78077e-10 -6.41845e-12)
(3.97273e-10 3.28515e-10 -5.71447e-12)
(3.79054e-10 4.90764e-10 -6.54933e-12)
(3.96647e-10 3.27848e-10 -6.97446e-12)
(2.50748e-10 5.49986e-10 -6.07554e-12)
(3.74959e-10 4.85633e-10 -6.59078e-12)
(2.46238e-10 3.74238e-10 -6.03946e-12)
(3.92622e-10 3.23474e-10 -6.9418e-12)
(2.46928e-10 5.44365e-10 -5.8508e-12)
(3.74277e-10 4.84476e-10 -6.30635e-12)
(3.9311e-10 3.24493e-10 -5.77524e-12)
(2.4773e-10 5.45071e-10 -6.48397e-12)
(3.68713e-10 4.7632e-10 -4.6828e-12)
(2.42016e-10 5.33318e-10 -2.94845e-12)
(2.41794e-10 3.65721e-10 -3.76416e-12)
(3.86728e-10 3.15569e-10 -4.54083e-12)
(3.87187e-10 3.17025e-10 -3.88112e-12)
(2.42752e-10 5.34558e-10 -4.12173e-12)
(3.67975e-10 4.7475e-10 -3.91076e-12)
(3.72893e-10 4.82531e-10 -6.09682e-12)
(2.44814e-10 3.71249e-10 -5.93718e-12)
(3.91926e-10 3.22809e-10 -5.68144e-12)
(2.46202e-10 5.43307e-10 -6.34467e-12)
(3.73526e-10 4.83547e-10 -6.51586e-12)
(3.91252e-10 3.21819e-10 -6.72089e-12)
(2.46203e-10 5.41498e-10 -5.57325e-12)
(3.61295e-10 4.33917e-10 5.34521e-11)
(2.38834e-10 4.89818e-10 5.11979e-11)
(2.44472e-10 3.22754e-10 5.95024e-11)
(3.82424e-10 2.84227e-10 4.59435e-11)
(3.59989e-10 4.37703e-10 4.4968e-11)
(3.84574e-10 2.80265e-10 5.31187e-11)
(2.41242e-10 4.84586e-10 6.06679e-11)
(3.6732e-10 4.09584e-10 1.14183e-10)
(2.57226e-10 2.97879e-10 1.27003e-10)
(3.97694e-10 2.5294e-10 1.34175e-10)
(2.54798e-10 4.46728e-10 1.48052e-10)
(3.70381e-10 4.02111e-10 1.32337e-10)
(3.93097e-10 2.60263e-10 1.16681e-10)
(2.5047e-10 4.55472e-10 1.27653e-10)
(4.07902e-10 2.89841e-10 3.57653e-10)
(3.21258e-10 2.80517e-10 4.4797e-10)
(3.22866e-10 1.74914e-10 4.03985e-10)
(4.61366e-10 1.24618e-10 4.36474e-10)
(4.46082e-10 1.55265e-10 3.78436e-10)
(3.04406e-10 3.17268e-10 3.91413e-10)
(4.20752e-10 2.57325e-10 4.10516e-10)
(3.78283e-10 3.83503e-10 1.76741e-10)
(2.75056e-10 2.68944e-10 1.97006e-10)
(4.02109e-10 2.46292e-10 1.56282e-10)
(2.58459e-10 4.37369e-10 1.6989e-10)
(3.73465e-10 3.94294e-10 1.52235e-10)
(4.09238e-10 2.35536e-10 1.80486e-10)
(2.65319e-10 4.24051e-10 1.96941e-10)
(5.42681e-10 1.91737e-10 1.22127e-11)
(4.88129e-10 2.09636e-10 -3.61371e-12)
(4.99775e-10 2.05499e-10 -6.64928e-13)
(2.24329e-10 6.1682e-10 1.43513e-11)
(1.73161e-10 6.37831e-10 2.48463e-12)
(1.81872e-10 6.34819e-10 2.449e-12)
(4.51458e-10 2.11651e-10 -3.15499e-12)
(4.51941e-10 2.14011e-10 -1.17303e-12)