/*--------------------------------*- C++ -*----------------------------------*\
| =========                 |                                                 |
| \\      /  F ield         | OpenFOAM: The Open Source CFD Toolbox           |
|  \\    /   O peration     | Version:  2012                                  |
|   \\  /    A nd           | Website:  www.openfoam.com                      |
|    \\/     M anipulation  |                                                 |
\*---------------------------------------------------------------------------*/
FoamFile
{
    version     2.0;
    format      ascii;
    class       volScalarField;
    location    "0.107/solid";
    object      sigmaHyd;
}
// * * * * * * * * * * * * * * * * * * * * * * * * * * * * * * * * * * * * * //

dimensions      [1 -1 -2 0 0 0 0];


internalField   nonuniform List<scalar> 
3125
(
756.027
741.305
690.698
685.736
650.714
644.134
584.348
567.324
714.438
707.139
672.04
667.207
620.291
611.439
769.18
395.394
935.811
317.253
407.043
294.191
392.26
922.684
730.284
906.344
333.168
382.088
266.304
695.75
345.821
261.105
349.529
252.507
342.467
681.079
260.741
338.771
238.701
656.672
316.916
231.876
321.016
222.743
312.447
636.83
231.302
307.532
201.058
594.006
275.955
200.074
280.444
233.466
269.82
526.541
203.202
266.973
147.769
1135.08
149.574
137.691
1114.66
1104.96
286.696
722.096
364.118
281.007
370.341
1087.65
1105.64
124.618
130.773
267.543
700.994
360.081
282.578
354.694
111.066
114.711
1058.25
1069.28
1080.62
1071.46
123.452
117.384
109.706
105.752
1054.38
1045.95
251.953
676.619
331.981
246.82
335.232
1033.87
1043.3
100.872
104.07
239.46
662.109
328.589
246.276
324.888
90.0961
93.9616
1004.97
1016.93
1030.48
1020.46
99.3641
95.67
88.1523
83.926
1000.57
222.106
628.868
296.732
212.446
302.276
77.9088
81.7507
201.696
602.584
291.087
211.692
285.548
81.4994
73.5613
75.801
74.4848
85.526
142.518
239.195
221.645
201.041
579.034
258.793
519.352
276.614
257.467
722.926
511.133
301.936
256.467
716.317
511.094
250.786
718.563
496.794
688.697
313.798
240.436
248.454
694.803
491.523
504.652
327.687
258.667
709.704
507.38
258.663
702.582
456.848
655.305
263.173
207.9
458.314
207.516
652.754
453.822
264.399
203.897
647.998
452.595
205.181
650.047
445.403
637.808
256.415
196.715
198.688
639.559
444.08
448.361
257.632
201.623
645.055
449.75
201.455
642.186
423.26
616.291
235.785
181.139
424.657
181.059
613.466
419.914
236.178
176.824
608.035
418.397
178.513
610.419
409.122
594.775
227.929
168.784
170.577
597.743
407.269
413.073
227.396
173.693
604.775
414.757
173.489
601.403
378.195
561.268
194.12
148.913
379.273
150.428
558.57
376.166
200.782
154.774
556.13
376.344
150.292
556.523
378.323
557.237
220.471
205.717
169.375
558.483
402.56
377.142
203.8
151.987
556.902
374.564
162.473
558.196
27.3767
147.627
145.33
142.756
34.0774
25.143
149.809
155.612
1005.79
1160.17
1025.32
1040.7
1181.07
1048.11
992.716
1000.03
20.0029
34.6472
146.048
149.226
146.695
40.5267
41.3964
134.951
143.485
139.105
958.394
963.806
1103.93
1015.37
1002.15
994.059
1102.44
997.644
983.816
969.357
480.43
683.597
278.071
229.223
483.429
679.702
226.794
475.567
283.378
672.952
222.687
675.822
223.065
474.13
955.525
951.417
1095.49
977.092
983.814
991.983
1102.47
987.742
942.638
947.474
11.729
6.5079
118.379
125.379
117.995
4.35042
5.50248
125.288
127.748
123.022
464.281
274.411
658.049
212.203
462.176
660.665
215.445
468.49
278.055
668.61
220.514
470.464
664.487
220.049
-7.24572
-8.02261
102.203
112.206
102.534
-11.3527
-8.69884
106.179
113.672
104.887
923.368
919.557
1062.15
948.458
952.384
958.609
1066.11
954.917
914.02
916.933
925.302
928.099
972.717
1075.7
966.352
938.161
931.052
960.57
1072.97
963.605
-4.75391
1.5459
115.887
122.634
114.839
4.54145
4.07859
109.771
119.896
111.198
-17.2455
-13.2846
100.294
109.056
99.2336
-12.0009
-12.0943
96.3223
107.309
97.0546
902.183
904.15
1050.96
945.744
941.49
936.593
1048.17
939.282
911.148
906.387
440.126
635.551
249.82
194.065
441.275
633.269
194.116
437.45
250.176
629.033
190.541
630.84
192.032
436.277
900.277
896.607
1036.97
925.718
928.954
934.658
1040.24
931.171
891.984
894.28
-18.4804
-18.304
90.947
102.137
91.4596
-21.9881
-18.9397
94.2703
103.478
93.181
429.173
243.201
618.994
183.86
427.814
621.012
185.625
432.176
243.444
626.416
188.141
433.479
623.723
188.075
-28.1328
-28.1736
79.5767
91.5694
80.3739
-32.2791
-28.8889
83.5219
93.2384
82.2578
877.601
873.197
1008.9
899.611
903.629
910.843
1013.01
906.527
867.205
870.164
880.161
882.566
923.273
1026.98
919.227
889.453
885.101
913.398
1023.57
916.711
-27.1479
-23.5886
89.1902
98.7422
88.0726
-22.8362
-22.8173
85.3874
97.1301
86.1414
-37.8119
-34.3022
77.5436
87.3572
76.266
-33.399
-33.6573
73.1715
85.4357
74.0709
851.38
855.073
995.825
896.402
891.257
882.766
990.669
887.551
863.986
858.788
401.09
590.99
217.068
165.09
403.046
587.117
164.854
396.756
218.414
579.494
160.222
582.924
161.818
394.67
847.491
841.682
863.381
868.645
878.91
872.993
832.862
836.984
-39.1803
-39.4473
66.9984
79.1334
67.633
-42.9669
-40.009
70.9571
80.9822
69.7958
384.376
207.656
564.095
152.883
382.464
567.252
153.588
388.275
205.092
575.497
156.117
390.339
571.363
156.048
-47.7193
-45.0495
70.4435
77.329
66.1315
-35.638
-43.3605
62.6048
75.278
64.7196
809.672
806.828
834.024
832.84
840.176
837.542
803.761
801.45
813.958
817.181
858.909
853.178
828.397
822.522
844.358
848.294
-45.6732
-44.5948
64.9254
75.5787
64.5713
-44.6579
-44.5512
63.4038
74.5056
62.8274
66.8453
-10.1015
76.1525
95.1341
83.8961
-36.4382
-19.6863
107.654
115.173
103.228
776.66
790.433
828.799
829.148
792.765
813.721
799.229
803.672
490.437
561.321
342.363
244.36
440.044
555.72
332.598
613.93
608.343
555.422
76.4575
435.987
213.533
579.055
352.901
572.274
429.755
753.802
687.637
614.386
758.197
683.699
617.787
89.46
272.596
44.4057
402.419
358.036
144.583
166.449
270.816
427.424
286.733
299.178
510.574
427.644
308.805
304.216
512.145
428.921
298.272
509.42
408.805
484.326
298.766
281.232
284.884
488.444
405.845
432.397
330.973
307.179
510.888
432.932
310.212
513.521
374.503
453.807
262.188
251.388
375.596
250.368
454.154
671.314
822.029
669.444
824.872
674.682
830.65
676.501
828.058
370.265
259.567
246.529
447.475
369.572
246.695
449.052
361.537
438.157
251.159
238.459
238.857
439.804
360.872
664.326
818.73
666.153
815.911
661.115
810.955
813.089
659.457
367.239
256.789
245.136
445.732
368.276
244.479
446.078
343.37
420.711
235.122
223.499
344.412
222.744
421.098
338.184
231.152
217.791
413.401
337.283
218.047
414.814
328.174
402.601
222.73
209.04
209.247
403.855
327.016
334.376
227.335
215.699
411.242
335.599
214.972
411.678
301.328
373.767
195.391
185.079
301.353
185.241
376.013
302.132
201.079
189.14
375.185
302.072
185.238
370.559
327.307
392.849
233.651
222.983
211.862
384.103
334.739
304.221
198.102
183.304
370.772
300.095
187.881
377.412
-1.53616
19.1222
9.47828
618.649
640.398
636.031
1.5312
10.8247
36.0436
40.8326
609.698
610.971
648.438
641.253
396.839
479.204
279.795
273.877
399.303
477.848
270.562
391.6
279.251
470.317
266.641
471.418
266.019
390.84
604.872
598.672
596.481
595.133
-7.06502
-13.0597
-11.8385
-12.3044
378.842
267.167
455.836
253.994
377.756
457.899
254.966
686.817
843.792
689.459
839.631
388.62
278.232
467.889
265.354
389.808
468.438
265.165
682.432
833.452
680.311
835.93
-24.6212
-25.9178
-27.91
-27.1054
579.332
574.496
571.837
569.976
580.132
578.259
596.132
589.663
-22.6343
-19.3805
-9.24367
-8.7942
-34.6089
-32.8226
-27.8243
-27.9783
561.338
558.95
570.833
565.472
358.712
436.797
248.542
236.92
359.579
437.291
236.243
651.756
800.769
803.216
650.034
654.787
808.401
656.402
806.016
354.614
245.271
430.925
232.355
432.505
232.652
353.972
560.722
556.223
553.576
551.465
-35.4475
-35.7614
-38.7368
-37.5744
346.59
238.047
422.308
225.13
345.872
423.945
225.529
645.005
797.776
646.828
795.019
351.68
242.601
429.38
230.922
352.683
429.795
230.226
-44.9049
-45.2936
-49.1492
-47.4223
543.067
538.219
533.644
532.264
543.903
541.854
552.752
547.772
-44.0753
-42.6005
-39.2289
-39.5055
-54.9995
-52.7218
-49.986
-50.6795
521.019
520.343
532.852
527.577
323.637
399.808
217.733
206.315
324.943
400.333
205.6
316.856
213.285
390.355
199.305
391.119
199.324
315.488
520.203
514.543
506.202
506.403
-56.1263
-57.3138
-60.9281
-57.9998
305.557
203.345
378.112
189.645
304.2
377.592
189.054
311.812
206.642
386.735
195.738
312.937
387.656
195.168
-68.6631
-72.5805
-61.7884
-58.2122
490.058
483.79
481.684
482.657
490.077
491.133
505.447
499.285
-66.346
-62.5057
-62.576
-64.7385
-11.0689
-15.683
-61.6809
-67.3645
481.304
491.944
485.54
480.267
365.856
392.196
257.043
229.298
334.593
405.538
249.175
521.345
425.309
464.581
377.102
569.275
662.422
542.674
645.983
465.917
244.795
318.789
195.043
363.931
374.149
292.988
474.902
473.165
-1.90046
28.4534
569.291
575.835
549.5
300.952
468.491
566.54
543.887
485.266
271.427
470.662
418.045
281.39
290.826
503.664
417.839
285.71
498.556
423.155
307.708
288.563
500.288
420.987
294.559
507.934
415.527
304.215
298.98
498.976
419.801
292.192
494.183
430.787
329.424
305.9
504.487
427.836
308.951
509.969
373.781
262.967
250.703
451.564
373.288
249.267
452.041
371.469
261.941
249.392
449.85
372.396
247.926
450.081
363.067
253.726
242.679
441.236
364.218
240.466
440.727
366.473
257.449
244.374
442.828
365.836
243.593
444.027
342.747
235.975
223.112
418.349
342.114
221.864
418.968
339.642
233.173
221.403
416.269
340.84
219.798
416.37
329.807
224.423
212.817
405.806
331.111
211.431
406.048
333.516
228.012
214.989
408.464
332.685
213.738
409.044
300.254
196.275
185.986
374.187
299.563
182.522
371.254
301.251
194.618
182.745
368.808
299.09
187.58
375.168
321.12
215.229
191.278
375.803
309.874
207.666
390.067
306.067
203.145
195.075
381.822
308.597
186.097
373.2
-14.3211
-7.50542
-95.5382
49.3795
70.4997
-141.639
-105.207
-157.165
63.7277
37.3824
54.6573
-111.89
-156.833
-132.677
-262.443
-265.724
-130.643
-28.6098
317.647
-28.1615
319.043
-134.022
-257.282
-265.72
-129.493
-27.5708
321.718
-25.5656
320.017
3.08461
9.8465
-96.9738
72.2065
39.6301
-142.635
62.6257
-152.988
-86.3551
-96.7291
-155.887
57.4151
34.8613
57.9543
-97.6496
-155.099
-125.226
-268.578
-265.161
-128.334
-119.248
-22.8109
322.821
-24.4866
324.342
1008.45
881.979
1058.41
612.641
615.531
1051.79
1003.64
879.342
875.285
1059.75
1303.59
1287.76
1317.16
1333.79
1357.1
1356.95
1345.43
634.055
636.604
878.096
995.196
1037.85
879.044
1045.81
1057.2
878.568
1002.73
883.255
1051.04
28.1685
18.07
-94.3642
54.8474
30.8999
-156.054
53.6631
-153.093
-100.484
-86.7627
-135.877
71.1785
38.4279
61.5044
-75.5739
-145.908
-133.305
-247.368
-249.422
-132.795
-28.7848
316.192
-26.3948
314.187
-131.115
-247.045
-129.452
-248.469
-30.6765
310.976
-31.5611
312.489
39.1163
41.5062
-68.2359
75.666
49.1215
-133.712
74.7731
-69.7268
-131.374
-66.964
-129.677
77.4054
50.2719
75.0706
-66.2865
-130.769
-142.215
-251.877
-261.298
-135.829
-42.0724
304.575
-43.0619
305.986
-145.389
-268.88
-267.348
-146.727
-37.8402
309.483
-34.6615
307.325
844.229
959.281
1003.13
845.603
1004.55
623.02
614.818
1007.34
962.281
852.987
848.966
1005.57
1266.37
1276.12
1259.12
1257.08
1261.96
1264.27
1260.34
1257.05
635.424
637.328
873.998
981.067
1031.97
870.63
1023.3
1012.53
859.37
973.339
864.534
1016.8
394.394
278.868
474.129
269.155
393.628
473.982
267.198
392.325
281.196
471.466
267.234
393.016
472.862
267.045
840.693
1003.26
955.667
839.492
1001.88
596.424
597.179
996.261
952.237
835.857
836.179
1000.53
1247.67
1242.64
1251.81
1256.62
1265.96
1265.69
1264.43
1260.52
600.108
596.534
829.504
944.09
987.63
830.562
991.527
996.231
833.408
948.022
833.559
993.111
-13.2207
-12.5107
-117.216
46.5601
-163.469
17.3919
-108.819
39.8366
-171.208
-117.193
-170.426
42.2339
14.8593
35.8972
-115.949
-174.172
-161.213
-280.704
-285.63
-158.13
-56.4197
295.015
-56.2852
295.888
-162.585
-283.49
-287.404
-160.373
-55.1408
298.193
-53.1023
296.849
-8.44212
-8.75664
-118.023
39.8341
12.5254
-171.126
35.0605
-174.87
-115.225
-114.742
-170.111
39.6934
12.9312
35.2407
-111.573
-173.497
-158.088
-282.691
-285.557
-156.848
-49.4519
303.384
-46.5354
301.657
-155.777
-273.7
-149.984
-282.373
-52.2018
299.325
-52.4387
300.419
381.397
270.564
461.105
260.874
383.151
459.688
257.706
387.373
278.629
463.604
263.821
386.165
465.617
263.784
-23.1385
-23.6369
-130.353
26.9823
-0.0892809
-181.78
22.0791
-185.797
-126.547
-127.992
-181.648
26.6653
-0.283666
20.9801
-125.298
-185.889
-175.702
-292.411
-297.388
-172.647
-70.7108
280.342
-70.3383
280.866
-176.685
-295.63
-299.129
-174.568
-69.8377
282.506
-68.102
281.504
-21.9245
-23.1452
-131.552
23.0682
-2.97734
-185.171
19.1679
-187.846
-129.82
-127.745
-181.803
25.4752
-1.70241
19.853
-124.107
-186.113
-174.172
-292.951
-296.966
-171.849
-67.1067
286.222
-65.2773
285.124
-173.25
-291.628
-296.785
-169.959
-67.9189
283.478
-67.5439
284.178
810.608
923.271
969.671
809.687
968.485
574.093
574.017
963.853
920.816
806.646
807.549
966.687
1214.94
1212.36
1210.97
1057.24
949.937
1078.2
1059.22
1080.48
1208.98
1212.92
1083.51
1062.08
952.335
1061.47
1214.5
1081.8
1216.82
1218.92
1221.2
1068.87
958.564
1090.67
1068.56
1089.37
1222.38
1225.51
1226.57
1219.01
1085.05
956.481
1064.54
1066.56
1087.48
1216.75
1223.65
1221
574.599
571.309
801.993
914.943
958.411
802.561
960.877
963.021
804.727
917.288
804.443
961.493
584.321
580.564
812.268
926.09
970.113
812.772
971.468
973.227
815.692
927.866
814.382
972.401
1235.36
1238.67
1232.63
1082.27
1105.34
971.861
1235.9
1080.69
1101.92
1229.28
1096.08
968.333
1075.18
1077.4
1098.88
1226.83
1232.01
1229.9
587.782
588.28
826.147
984.895
937.051
823.998
981.316
975.217
818.51
933.07
820.618
978.295
1224.12
1070.45
961.839
1091.36
1071.73
1223.28
1092.56
1228.04
1227.26
1224.78
1094.39
963.49
1073.03
1072.95
1093.48
1225.4
1228.7
1228.68
-10.3694
-14.3146
-123.966
29.6824
4.39907
-179.671
26.5038
-124.588
-180.707
-118.696
-171.053
36.2058
7.56225
29.2219
-112.695
-177.296
-164.841
-282.059
-285.516
-162.916
-58.3463
293.999
-56.5721
292.729
-163.796
-281.696
-161.199
-285.54
-59.1677
290.837
-59.036
291.651
-7.39549
-6.5834
-114.4
39.0921
-170.151
12.1899
-112.367
35.1209
-172.303
-111.933
-168.865
38.9174
12.3022
34.2876
-110.187
-172.041
-168.371
-283.327
-289.638
-164.282
-64.1734
287.088
-64.1685
287.796
-169.874
-290.562
-168.703
-292.688
-62.3707
289.894
-60.2357
288.668
-26.3563
-28.661
-136.421
16.7087
-8.71602
-190.303
13.107
-192.322
-135.632
-132.157
-184.969
20.7145
-6.73116
14.4897
-127.663
-190.071
-178.503
-294.977
-299.051
-176.091
-72.4027
279.445
-70.8549
278.471
-177.915
-295.353
-175.275
-299.491
-72.6833
277.308
-72.1763
277.778
-25.3887
-25.4759
-132.06
22.0845
-4.46692
-185.434
17.6392
-129.567
-188.316
-129.33
-184.001
22.1542
-4.2687
17.0279
-126.866
-187.841
-180.179
-295.405
-300.705
-176.876
-75.5152
274.495
-75.1402
274.952
-181.139
-299.668
-302.748
-179.23
-74.4977
276.573
-72.7475
275.67
790.51
902.854
946.359
790.811
947.756
563.506
560.546
948.978
904.336
792.605
792.021
948.397
1208.36
1210.28
1204.76
1054.75
945.464
1076.36
1054.01
1206.72
1074.28
1202.37
1069.92
1049.87
943.032
1051.74
1200.35
1072.19
1206.14
1204.08
1197.14
1045.04
937.787
1065.53
1046.47
1066.87
1196.05
1201.06
1199.67
1198.12
1068.64
939.368
1048
1047.83
1067.73
1198.89
1202.04
1202.79
564.844
564.704
799.657
910.68
956.893
798.232
954.81
950.12
794.523
907.845
795.798
952.8
358.279
249.517
434.931
236.89
357.851
435.562
235.606
355.883
247.711
433.421
235.665
356.879
433.407
233.927
789.013
945.729
900.161
788.115
944.433
556.045
555.871
940.17
897.846
785.197
786.137
942.732
1188.67
1186.58
1184.88
1033.15
926.993
1053.63
1034.86
1055.52
1183.31
1190.02
1191.52
1186.35
1057.84
1037.06
929.003
1036.66
1187.5
1056.56
1193.47
1043.34
1064.59
934.638
1194.8
1042.93
1063.2
1197.28
1198.59
1195.43
1193.12
1191.36
1059.18
932.625
1039.14
1041.02
1061.4
1189.33
555.929
552.787
781.163
892.676
935.663
781.477
937.693
939.27
783.391
894.62
783.07
938.182
-32.455
-33.0986
-139.235
15.3444
-191.257
-11.0514
-136.497
10.7984
-194.464
-136.391
-189.656
15.7748
-10.7908
10.2991
-133.469
-193.925
-184.169
-299.346
-304.201
-181.24
-79.7961
268.587
-79.3578
269.05
-185.058
-302.555
-305.931
-182.929
-78.996
270.603
-77.391
269.722
-32.0707
-33.5345
-140.757
11.8587
-13.6456
-193.895
8.18573
-196.263
-139.4
-136.789
-189.953
14.8609
-12.1359
9.01147
-133.074
-194.435
-183.219
-299.528
-303.791
-180.571
-77.2169
273.761
-75.7267
272.831
-182.649
-299.99
-179.983
-304.348
-77.5477
271.452
-76.9516
271.987
348.012
240.502
425.208
228.934
349.154
425.013
227.012
351.064
243.442
426.958
230.478
350.486
427.779
229.418
-42.3149
-42.7813
-147.431
5.17793
-20.9431
-198.612
0.64811
-201.681
-144.714
-144.684
-196.967
5.44495
-20.7356
0.0613142
-141.921
-201.167
-190.973
-304.613
-309.272
-188.3
-88.0831
255.099
-87.6967
255.755
-191.984
-307.672
-310.901
-189.73
-87.2245
257.717
-85.6658
256.734
-41.8951
-43.7194
-149.088
1.06692
-23.9692
-201.389
-2.59417
-203.593
-148.291
-145.443
-197.34
4.25983
-22.3007
-1.35623
-141.501
-201.703
-190.316
-304.83
-309.065
-187.55
-85.5936
261.313
-84.1025
260.193
-189.676
-305.593
-309.668
-187.307
-85.8922
258.648
-85.2578
259.2
767.927
877.43
922.496
766.958
920.618
537.3
537.75
915.682
874.444
763.365
764.378
918.744
1158.22
1155.6
1159.91
1161.9
1168.85
1170.74
1166.64
1163.78
537.134
533.425
758.046
867.866
909.794
758.37
912.153
914.58
760.913
870.427
760.519
912.961
546.56
543.25
770.044
880.811
923.364
770.309
925.345
927.033
772.41
882.833
772.001
925.961
1183.15
1184.96
1179.73
1030.97
1052.21
923.114
1181.46
1030.32
1050.36
1177.34
1045.91
920.702
1026.12
1028.08
1048.35
1175.17
1181.06
1178.63
547.091
547.274
779.101
934.634
889.202
778.007
932.759
928.117
774.525
886.418
775.591
930.89
1174.29
1172.25
1175.63
1177.06
-36.7534
-38.5685
-145.011
6.39819
-18.7533
-197.846
2.85226
-144.007
-200.022
-140.998
-193.383
9.9097
-17.034
3.95146
-136.977
-198.04
-186.679
-301.925
-306.097
-184.044
-81.2805
267.824
-79.8279
266.847
-186.105
-302.581
-183.615
-306.693
-81.5633
265.404
-81.0171
265.95
-36.5847
-36.9643
-142.376
10.812
-194.459
-15.4522
-139.793
6.31094
-197.447
-139.597
-192.834
11.0395
-15.2117
5.77888
-136.925
-196.902
-187.714
-301.969
-306.88
-184.788
-83.9769
262.192
-83.5963
262.767
-188.672
-305.423
-186.532
-308.669
-83.0999
264.533
-81.4498
263.613
-47.3765
-49.4905
-153.308
-4.87305
-29.5504
-204.858
-8.6415
-206.996
-153.035
-150.158
-200.968
-1.75231
-27.8282
-6.9973
-145.98
-205.138
-193.442
-306.887
-311.106
-190.555
-89.6255
254.118
-88.2257
253
-192.748
-307.737
-190.552
-311.679
-89.918
251.145
-89.3556
251.873
-48.0571
-48.3644
-151.907
-0.421383
-26.2979
-202.212
-4.87402
-149.048
-205.237
-149.312
-200.639
-0.267935
-26.2047
-5.67074
-146.726
-204.832
-193.762
-306.5
-310.938
-191.354
-92.0345
247.103
-91.6226
247.864
-194.796
-309.201
-312.381
-192.371
-91.2309
250.062
-89.7098
248.979
743.332
852.001
893.148
743.668
895.941
525.724
521.4
899.246
855.24
746.891
746.447
896.98
1151.29
1153.73
1148.71
1145.31
1138.13
1134.87
1140.31
1143.04
525.871
526.932
755.376
863.79
908.735
754.343
906.283
900.568
750.023
860.122
751.123
904.175
322.529
218.25
396.825
205.383
321.481
397.053
203.934
318.597
214.137
393.326
202.737
319.787
394.216
201.995
740.045
892.016
847.377
739.085
889.088
511.915
513.755
882.569
842.958
734.078
735.142
886.844
1114.38
1110.88
1116.68
1120
1129.97
1132.92
1127.03
1122.86
512.219
506.939
726.173
833.287
873.717
726.258
876.984
881.108
730.117
837.314
729.822
878.035
-55.0321
-55.2182
-157.285
-6.81097
-205.854
-32.1962
-154.08
-11.1167
-208.946
-154.903
-204.263
-6.54179
-32.207
-12.1769
-152.361
-208.635
-194.959
-306.993
-310.784
-193.131
-94.6244
239.743
-93.8893
240.21
-195.73
-308.406
-311.759
-192.953
-94.0829
242.078
-92.9501
241.194
-53.4768
-55.7063
-157.208
-10.6767
-34.7975
-207.261
-14.7288
-209.392
-157.506
-154.93
-204.216
-8.29542
-33.2041
-12.696
-150.802
-207.841
-195.754
-307.982
-312.403
-192.57
-93.4718
245.924
-92.1839
244.793
-195.128
-309.213
-193.201
-312.94
-93.5887
243.053
-92.8927
243.772
307.041
202.282
379.445
191.539
307.497
381.752
192.183
310.402
207.053
384.014
194.73
309.218
383.489
192.866
-71.003
-71.1294
-168.937
-17.9542
-39.3064
-207.661
-20.6515
-211.256
-163.518
-167.7
-204.745
-14.0904
-39.0602
-22.2272
-164.816
-210.654
-173.527
-289.892
-288.096
-176.456
-73.5975
252.549
-69.2804
249.314
-169.257
-275.572
-283.312
-162.529
-77.8221
244.342
-80.4395
246.463
-63.3212
-64.3458
-155.305
-5.97864
-29.7698
-192.648
-14.9134
-197.551
-155.739
-160.17
-200.912
-15.7633
-31.3692
-13.4181
-157.483
-200.386
-185.31
-295.242
-301.862
-179.833
-88.8759
238.642
-89.4847
239.397
-187.026
-300.976
-303.068
-186.78
-87.2787
242.238
-84.1174
240.551
704.015
811.181
854.062
704.869
851.32
480.581
484.121
845.975
806.377
700.986
699.803
850.555
1076.64
1074.78
1076.41
1079.62
1085.37
1087.75
1084.61
1080.63
485.253
477.15
699.254
800.016
842.124
694.314
844.151
846.358
695.766
804.23
698.68
842.388
496.842
490.195
708.348
813.541
853.871
707.399
856.976
861.188
711.253
817.903
711.556
857.373
1106.11
1109.28
1103.75
1099.24
495.64
498.567
722.162
872.763
828.608
721.557
869.449
862.47
716.079
823.542
716.794
867.313
1091.6
1088.27
1093.21
1096.91
-59.9399
-62.2288
-160.112
-14.6314
-37.8469
-206.712
-19.5258
-161.182
-209.078
-159.529
-205.766
-14.4569
-36.7589
-17.0709
-155.473
-208.404
-194.992
-305.992
-310.899
-191.18
-94.8058
239.112
-93.9954
238.386
-194.848
-308.181
-193.411
-311.493
-94.6163
237.647
-93.2532
237.747
-63.0748
-62.9967
-163.009
-13.2138
-208.388
-37.4713
-159.073
-17.1267
-211.675
-161.054
-206.738
-12.3877
-37.5537
-18.5889
-158.668
-211.426
-191.581
-303.771
-306.229
-190.889
-92.1722
237.921
-90.4389
237.335
-191.259
-301.951
-187.656
-306.013
-92.6323
237.409
-92.4249
237.261
-44.6633
-39.1264
-106.698
66.5898
38.7024
-92.9018
43.832
-120.918
-92.7505
-131.505
-160.916
13.7711
22.3278
30.358
-137.862
-146.083
-140.468
-242.167
-255.877
-128.23
-58.8039
257.152
-63.4778
261.798
-150.364
-270.109
-156.384
-265.482
-48.4233
274.842
-41.429
268.007
-61.5848
-63.4005
-163.272
-9.20554
-21.4449
-190.656
-6.47559
-156.651
-191.848
-160.176
-175.692
9.28615
-18.2068
-5.36305
-153.988
-186.721
-86.3635
-224.475
-201.323
-110.967
29.8327
329.388
49.9152
310.552
-56.5956
-118.691
-160.292
-14.9601
-8.72796
284.603
-21.9175
296.519
681.567
777.999
798.864
682.583
818.93
493.279
481.339
838.965
796.175
690.203
696.637
825.38
1075.07
1077.02
1074.34
1066.02
1024.83
1002.46
1044.04
1059.49
481.969
484.704
694.526
805.177
845.669
700.33
843.78
838.37
700.597
798.22
693.701
844.954
374.93
278.145
422.107
309.385
413.456
411.674
292.442
604.771
602.956
606.679
636.755
658.571
608.49
620.107
625.966
621.862
635.819
536.969
556.671
557.454
375.978
119.116
409.11
490.843
482.019
514.083
462.175
180.851
453.654
555.128
562.788
520.606
425.956
339.864
430.51
574.411
504.66
523.163
485.879
375.58
444.058
664.633
777.073
746.191
658.029
748.504
484.254
476.166
668.681
717.93
644.566
642.062
707.599
687.101
706.015
716.402
641.913
647.181
705.734
921.426
968.174
849.398
759.354
440.242
624.984
651.446
171.4
50.3333
-33.1852
98.4172
-56.4739
146.583
-79.5096
124.904
-14.3226
8.0279
178.271
222.535
191.379
202.232
154.456
66.8437
365.348
467.236
357.809
68.6424
375.596
387.536
443.157
447.986
314.299
566.483
221.035
362.729
287.696
216.837
219.43
253.224
94.2478
360.467
163.468
348.52
109.438
385.745
108.973
-66.9823
34.5567
0.627938
249.233
289.003
403.233
412.105
740.745
950.516
895.007
772.462
735.787
905.444
748.67
961.534
780.87
914.366
723.173
913.514
883.556
728.263
875.048
715.168
865.415
908.679
868.774
711.366
630.217
776.535
627.954
779.651
634.069
786.187
636.113
783.18
621.201
772.686
623.707
769.024
616.603
760.968
764.751
613.862
572.35
714.074
570.252
715.856
575.323
721.752
577.746
718.667
561.694
711.852
565.77
708.613
553.191
688.416
699.79
551.606
696.837
849.051
853.718
694.098
701.96
861.948
704.678
858.572
641.617
789.371
639.711
791.952
600.761
743.017
747.299
597.584
605.889
756.453
608.899
752.164
589.253
738.238
592.436
733.729
584.637
725.287
581.678
729.076
1300.7
1133.96
1029.68
1159.06
1142.07
1169.18
1289.93
1313.94
1186.14
1160.1
1038.91
1153.87
1323.37
1177.53
1340.31
1052.07
1175.81
1196.32
1338.84
1189.66
1049.86
1169.96
1173.67
1195.42
1333.65
1269.39
1122.68
1012.76
1150.35
1117.73
1277.99
1141.86
1262.38
1131.23
1107.47
1005.48
1110.75
1258.75
1135.47
1259.26
1104.92
995.227
1126.69
1105.12
1127.15
1259.85
1258.09
1128.32
997.133
1104.77
1105.37
1127.45
1257.85
1243.8
1086.59
979.272
1108.71
1089.81
1112.67
1240.07
1247.98
1118.84
1095.7
983.356
1094.05
1251.25
1115.42
1260.35
1104.15
1127.07
992.006
1260.67
1104.43
1126.11
1258.14
1120.92
989.472
1099.79
1102.21
1124.27
1255.17
1154.87
1004.81
900.924
1025.07
1006.78
1027.4
1152.99
1156.84
1030.56
1009.77
903.558
1009.1
1158.36
1028.77
1165.65
1017.71
910.68
1038.91
1016.98
1037.01
1167.38
1163.05
1032.18
908.057
1012.41
1014.54
1034.91
1160.65
1170.67
1019.96
914.671
1040.22
1021.66
1169.18
1042.06
1172.15
1044.49
916.758
1023.92
1023.5
1043.15
1173.31
1148.61
1002
896.128
1023.46
1001.03
1150.71
1021.05
1145.47
1015.31
995.623
892.856
998.013
1142.67
1018.6
1135.34
986.275
884.188
1006.48
988.502
1009.25
1133.16
1137.86
1013.34
887.447
992.359
991.379
1010.94
1139.83
1112.24
965.154
864.603
984.956
967.327
988.254
1110.01
1115.32
993.068
971.775
868.529
970.745
1117.66
990.101
1128.13
982.918
1004.68
878.627
1130.46
981.805
1001.81
1124.45
995.296
874.686
975.655
978.204
999.152
1121.22
1072.62
934.892
831.561
951.458
933.873
953.151
1072.8
1074.55
955.364
934.992
835.433
936.24
1076.01
952.303
1084.25
941.88
841.473
963.023
942.405
960.521
1085.16
1081.34
955.744
837.308
938.496
939.287
959.586
1079.21
1104.96
961.345
983.233
858.934
1107.11
960.425
979.995
1101.1
973.123
854.501
954.16
956.512
977.405
1097.99
1088.8
944.978
844.739
963.408
946.171
1087.32
966.341
1091.86
971.04
848.843
949.993
949.527
967.545
1094.12
1072.86
932.206
833.412
954.113
934.847
1072.67
952.36
1069.62
946.773
930.21
825.797
929.995
1065.19
952.881
1026.18
891.136
795.421
900.413
897.528
921.132
1008.03
1045.2
944.523
817.4
918.185
917.23
932.149
1056.17
941.927
855.774
874.904
748.315
974.39
841.488
838.629
872.552
716.517
710.091
742.324
787.312
782.391
806.172
)
;

boundaryField
{
    left
    {
        type            zeroGradient;
    }
    bottom
    {
        type            zeroGradient;
    }
    interface
    {
        type            zeroGradient;
    }
    procBoundary4to0
    {
        type            processor;
        value           nonuniform List<scalar> 
58
(
311.53
775
784.624
752.589
965.418
434.861
158.884
267.493
526.719
160.231
158.884
1185.04
1185.04
1185.04
1185.04
526.719
730.215
730.215
730.215
730.215
730.215
267.493
267.493
267.493
267.493
267.493
49.4837
160.231
160.231
160.231
160.231
1007.78
1051.69
436.048
518.45
312.292
25.9816
635.533
-66.9371
84.1271
-118.428
-249.337
-13.8833
-13.8833
324.558
-249.337
-105.81
885.437
1057.63
1350.45
752.589
918.126
918.126
918.126
784.624
1335.04
1172.45
1193.64
)
;
    }
    procBoundary4to1
    {
        type            processor;
        value           nonuniform List<scalar> 
78
(
746.55
763.148
766.919
757.4
752.54
898.164
735.859
884.618
778.034
913.113
766.919
757.4
741.039
744.239
904.137
741.039
1040.39
1034
728.367
1035.62
1062.27
1298.67
1314.45
1282.48
1272.81
1280.7
1277.57
734.659
904.137
904.137
1283.59
1284.29
1030.2
1029.88
1090.58
1352.79
1337.06
1114.29
1374.73
1388.19
1264.41
1265.99
1267.93
1272.21
1282.96
1314.45
1298.67
1337.06
1352.79
1392.59
1388.19
1374.73
1272.81
1282.48
1265.99
1264.41
1277.57
1280.7
1272.21
1267.93
1284.29
1283.59
1282.96
889.031
885.501
766.919
766.919
931.294
799.477
945.552
807.299
752.54
757.4
752.54
744.239
744.239
741.039
734.659
)
;
    }
    procBoundary4to5
    {
        type            processor;
        value           nonuniform List<scalar> 
526
(
691.065
647.214
575.516
696.215
698.985
700.699
695.372
693.729
654.224
655.992
658.038
651.199
648.93
588.095
595.956
597.185
589.234
586.644
720.477
676.779
621.867
724.128
726.742
712.856
718.99
716.592
678.963
680.529
671.689
675.4
673.756
624.241
627.062
612.568
618.394
615.641
686.278
639.452
542.892
701.485
706.077
704.398
862.768
862.768
872.057
872.057
859.538
859.538
688.749
690.254
851.434
851.434
660.563
664.241
662.392
814.784
814.784
825.393
825.393
810.894
810.894
641.281
643.737
798.008
595.757
603.114
601.325
749.278
756.942
747.324
471.411
508.52
578.189
573.251
716.901
1017.23
984.885
976.68
681.616
964.638
974.028
931.346
630.951
732.179
890.117
890.117
1257.76
1262.84
706.753
710.078
711.98
884.801
884.801
874.626
874.626
988.686
1228.52
1230.9
999.68
1243.38
1242.26
1010.08
1253.28
1249.7
1001.7
1243.96
1244.67
1226.26
1224.33
1216.1
1217.39
685.393
683.922
840.623
840.623
848.91
848.91
1202.51
1204.28
1214.78
1213.46
666.328
668.262
669.993
837.66
837.66
828.592
828.592
935.772
1170.49
1172.45
947.76
1185.77
1184.12
961.27
1200.51
1198.88
951.325
1187.88
1189.53
1167.67
1165.74
985.817
985.817
985.817
985.817
985.817
985.817
985.817
635.664
632.954
778.723
793.431
963.781
963.781
963.781
963.781
963.781
963.781
980.635
980.635
980.635
980.635
980.635
980.635
603.703
607.783
610.266
773.924
760.201
934.659
934.659
934.659
934.659
934.659
934.659
940.28
940.28
940.28
940.28
940.28
940.28
958.631
958.631
958.631
958.631
958.631
958.631
943.447
943.447
943.447
943.447
943.447
943.447
935.156
935.156
935.156
935.156
935.156
935.156
898.238
898.238
898.238
898.238
898.238
898.238
471.411
688.352
849.49
849.49
849.49
849.49
849.49
849.49
303.775
543.226
1025.51
1032.65
981.663
978.952
967.794
971.046
926.648
921.642
1273.82
1268.59
895.651
1279.27
900.617
992.666
866.004
1235.54
1233.34
996.6
869.189
1238.1
1240.51
1005.48
880.472
1244.9
1246.99
1003.02
877.183
1244.62
1244.45
856.554
1220.48
1222.36
853.865
1219.26
1218.38
843.441
1207.58
1206.15
846.243
1209.58
1211.59
939.806