/*--------------------------------*- C++ -*----------------------------------*\
| =========                 |                                                 |
| \\      /  F ield         | OpenFOAM: The Open Source CFD Toolbox           |
|  \\    /   O peration     | Version:  2012                                  |
|   \\  /    A nd           | Website:  www.openfoam.com                      |
|    \\/     M anipulation  |                                                 |
\*---------------------------------------------------------------------------*/
FoamFile
{
    version     2.0;
    format      ascii;
    class       volScalarField;
    location    "0.107/solid";
    object      sigmaMid;
}
// * * * * * * * * * * * * * * * * * * * * * * * * * * * * * * * * * * * * * //

dimensions      [1 -1 -2 0 0 0 0];


internalField   nonuniform List<scalar> 
3125
(
-520.281
-512.41
-478.19
-474.707
-450.173
-446.013
-433.696
-438.262
-494.944
-489.998
-464.807
-461.419
-433.573
-430.777
-524.986
-271.598
-645.381
-269.191
-277.702
-241.429
-268.552
-640.153
-505.871
-627.524
-289.195
-264.137
-208.595
-481.866
-239.7
-203.536
-242.608
-194.477
-237.218
-471.386
-203.202
-234.669
-180.154
-454.146
-219.402
-173.008
-222.137
-162.364
-216.754
-441.672
-172.116
-214.018
-191.725
-430.545
-229.916
-239.235
-217.779
-140.428
-255.212
-452.182
-235.504
-307.395
-100.926
-1078.83
-101.946
-95.7191
-1058.77
-1046.33
-231.557
-500.292
-252.73
-225.093
-257.644
-1025.56
-1045.44
-86.7334
-91.1152
-210.257
-485.726
-249.439
-227.333
-246.069
-77.3077
-79.9288
-994.336
-1005.79
-1018.48
-1008.32
-85.7319
-81.8544
-76.249
-73.5864
-990.416
-981.483
-193.752
-468.117
-229.693
-188.806
-232.139
-968.899
-978.686
-70.0666
-72.3287
-181.203
-457.878
-227.303
-188.14
-224.735
-62.6836
-65.192
-937.893
-950.924
-965.384
-954.713
-68.9364
-66.4472
-61.3435
-59.0176
-933.016
-160.925
-437.436
-209.995
-162.383
-211.789
-56.7112
-57.7311
-185.52
-429.509
-209.893
-164.346
-211.563
-78.0038
-61.1536
-56.0809
-59.3565
-88.6099
-151.138
-119.49
-260.707
-210.014
-784.034
-379.841
-354.453
-220.989
-172.121
-489.571
-347.916
-252.883
-172.817
-498.02
-349.99
-166.953
-495.886
-342.79
-476.568
-265.768
-167.003
-170.722
-480.081
-341.189
-345.962
-283.217
-173.016
-493.341
-345.717
-174.617
-483.057
-317.323
-454.451
-205.669
-145.633
-318.42
-144.91
-452.472
-314.526
-207.324
-142.288
-448.953
-314.086
-142.795
-450.525
-308.501
-441.59
-199.067
-137.141
-138.059
-442.96
-308.029
-310.843
-200.559
-140.528
-446.987
-311.741
-140.034
-444.776
-293.135
-426.651
-177.649
-125.943
-293.81
-125.704
-424.732
-290.503
-178.151
-123.531
-421.618
-290.401
-123.882
-422.98
-284.975
-415.869
-168.727
-120.657
-120.356
-416.831
-285.453
-287.583
-168.271
-121.755
-420.081
-287.879
-121.933
-418.31
-316.911
-442.211
-210.697
-147.701
-304.073
-162.72
-455.922
-328.113
-226.096
-205.6
-499.832
-350.666
-178.314
-474.798
-461.995
-679.962
-196.158
-401.46
-339.245
-632.455
-557.414
-416.785
-198.966
-234.671
-534.619
-373.062
-287.597
-578.406
-13.8435
-97.545
-99.2044
-92.5493
-21.9307
-12.3262
-102.211
-98.0373
-1022.78
-1104.1
-965.93
-979.976
-1127.26
-986.108
-1008.61
-1018.29
-17.52
-25.5015
-98.7082
-102.226
-100.259
-26.2459
-28.9934
-93.644
-98.8136
-96.4943
-970.111
-978.506
-1047.79
-957.489
-943.181
-930.253
-1045.44
-938.042
-1000.94
-984.665
-334.609
-473.283
-221.168
-160.647
-336.254
-470.865
-158.982
-329.953
-227.953
-466.581
-155.481
-468.494
-155.349
-329.441
-966.831
-960.541
-1033.65
-910.8
-917.794
-927.602
-1041.17
-921.226
-951.239
-957.126
-12.346
-8.54938
-82.6829
-87.2441
-82.8398
-7.16692
-7.63408
-87.6971
-89.213
-85.7734
-322.295
-218.519
-456.349
-148.6
-321.479
-458.254
-150.214
-325.169
-223.062
-463.781
-153.506
-326.224
-460.688
-152.992
0.381611
1.71964
-71.5321
-77.979
-72.2012
3.78685
2.23238
-74.7461
-79.1708
-73.6298
-930.475
-926.021
-998.358
-880.323
-884.565
-890.965
-1002.41
-886.805
-920.135
-923.623
-932.423
-936.181
-906.838
-1013.37
-899.835
-947.105
-939.208
-892.854
-1010.33
-897.09
-1.21822
-5.0069
-81.4142
-85.1875
-80.6558
-7.31607
-6.50743
-77.019
-83.2994
-78.4958
8.08163
5.69332
-70.4169
-75.7795
-69.5922
4.17114
4.9553
-67.2874
-74.4943
-68.2588
-907.401
-909.947
-986.891
-877.845
-873.21
-867.868
-983.962
-871.141
-917.417
-912.155
-304.786
-440.017
-192.152
-135.173
-305.654
-438.197
-134.743
-302.423
-192.681
-435.122
-132.408
-436.486
-132.993
-302.085
-905.538
-901.427
-972.166
-856.669
-860.331
-866.092
-975.522
-862.328
-896.359
-899.231
8.85064
9.54759
-63.2764
-70.7984
-64.0659
11.7498
9.97826
-65.9998
-71.8574
-65.1087
-296.611
-185.524
-428.261
-127.797
-296.291
-429.666
-128.462
-299.04
-185.795
-433.427
-130.661
-299.82
-431.428
-130.286
15.9068
16.4386
-55.6578
-63.4649
-56.4398
18.3864
16.827
-58.3021
-64.6977
-57.4071
-880.797
-875.577
-942.307
-828.666
-833.653
-841.284
-946.725
-836.35
-868.506
-872.612
-883.346
-886.51
-854.433
-961.733
-849.965
-893.919
-888.987
-843.666
-958.137
-847.646
15.3735
13.3709
-62.2464
-68.4815
-61.3882
12.2364
12.9041
-59.352
-67.276
-60.2663
19.7097
19.078
-54.7351
-60.9257
-54.116
18.8768
18.8983
-52.9875
-59.6378
-53.31
-849.081
-854.823
-927.68
-825.608
-819.273
-809.112
-921.868
-815.688
-865.244
-858.622
-284.165
-415.094
-159.243
-119.45
-283.345
-414.362
-120.857
-282.509
-161.602
-415.203
-122.792
-414.298
-120.504
-284.757
-844.889
-836.226
-782.943
-792.079
-805.191
-796.69
-822.776
-831.083
20.0596
18.3109
-54.2207
-56.7161
-52.9487
15.5938
18.0431
-52.5191
-57.6326
-52.8157
-290.634
-174.89
-431.598
-140.016
-297.764
-424.62
-132.161
-288.722
-168.613
-417.197
-123.799
-284.811
-419.944
-128.543
-4.99687
-25.4736
-102.917
-70.4861
-89.5929
-65.2841
-30.2296
-71.2632
-65.1447
-80.6225
-778.972
-762.735
-721.964
-719.344
-741.293
-726.92
-739.976
-753.071
-786.167
-798.45
-777.796
-766.37
-817.283
-805.306
-747.837
-760.253
-3.50358
7.31473
-55.2446
-57.0403
-58.2363
15.4519
8.84748
-66.2512
-57.55
-60.786
-137.872
-107.754
-114.399
-102.216
-122.557
-69.5621
-106.382
-116.428
-129.375
-130.073
-825.14
-793.241
-727.504
-781.598
-805.431
-785.045
-727.552
-787.746
-735.399
-683.7
-172.27
-407.757
-646.812
-664.629
-502.482
-816.441
-700.151
-793.869
-268.134
-732.856
-342.641
-810.571
-208.542
-696.556
-678.441
-797.025
-708.113
-649.52
-770.299
-683.72
-671.98
-146.433
-330.546
-234.433
-608.122
-474.497
-130.24
-215.972
-305.41
-286.176
-235.582
-187.385
-446.975
-288.946
-258.963
-213.617
-446.764
-292.306
-197.143
-441.401
-282.89
-412.829
-247.233
-194.285
-198.087
-418.431
-280.747
-294.14
-286.283
-208.757
-444.161
-292.744
-217.031
-449.391
-260.722
-377.549
-203.555
-175.6
-260.998
-174.993
-378.421
-465.014
-569.64
-464.3
-571.712
-468.11
-575.767
-469.055
-573.94
-257.134
-201.465
-172.723
-371.647
-256.384
-171.622
-373.225
-250.884
-361.958
-192.712
-166.501
-165.877
-363.812
-250.106
-460.691
-567.4
-461.448
-565.525
-457.831
-561.628
-563.438
-457.12
-255.074
-198.544
-171.087
-369.48
-255.343
-170.885
-370.613
-238.161
-343.729
-175.902
-155.355
-238.332
-155.229
-344.815
-234.853
-172.116
-152.87
-336.486
-234.376
-151.642
-337.884
-230.808
-323.922
-162.507
-150.115
-148.464
-325.205
-230.76
-233.344
-167.299
-151.031
-333.468
-233.295
-151.184
-334.634
-267.054
-312.175
-195.151
-177.5
-255.858
-185.002
-322.788
-314.749
-240.883
-250.253
-397.31
-335.237
-231.944
-375.019
-500.923
-376.935
-164.813
-185.62
-199.898
-393.888
-474.469
-381.856
-221.181
-248.266
-410.433
-344.815
-260.072
-441.731
27.2183
-6.49875
4.99646
-571.395
-597.362
-590.782
0.665282
-5.18393
-23.4126
-26.9986
-561.822
-563.716
-608.493
-600.386
-276.304
-406.034
-222.658
-190.507
-276.969
-404.026
-187.374
-271.905
-222.786
-396.263
-187.393
-396.885
-184.731
-271.317
-555.133
-546.469
-545.695
-543.311
6.86926
12.3093
7.88516
9.54012
-263.658
-209.736
-380.33
-177.744
-262.553
-382.801
-177.791
-477.181
-585.617
-478.201
-582.959
-270.011
-222.204
-393.169
-185.38
-270.224
-394.912
-186.11
-473.551
-578.064
-472.536
-580.247
16.6287
18.9164
19.0628
19.3845
-526.636
-520.334
-519.083
-516.151
-527.815
-525.109
-545.859
-537.92
15.5886
14.0061
4.86647
5.76898
24.2566
23.7459
18.4615
19.9836
-507.993
-504.547
-518.143
-511.407
-248.878
-360.122
-189.674
-164.908
-249.093
-361.275
-164.63
-450.692
-554.133
-555.991
-450.084
-453.503
-559.636
-454.25
-557.982
-245.597
-186.751
-354.72
-162.095
-356.391
-161.192
-244.93
-507.213
-501.462
-500.007
-496.838
24.4492
26.0621
27.2681
27.2447
-240.024
-179.341
-345.874
-157.035
-239.396
-347.641
-156.146
-446.58
-552.062
-447.236
-550.303
-243.687
-183.792
-352.722
-160.5
-243.935
-353.88
-160.275
31.0999
32.728
33.6879
33.3575
-488.8
-482.623
-478.53
-476.428
-489.798
-486.767
-499.135
-492.848
31.0589
30.8028
27.134
28.7522
34.3903
34.0956
33.5006
35.1451
-463.465
-462.52
-477.545
-470.761
-230.703
-319.749
-157.488
-148.457
-229.801
-320.808
-149.157
-231.717
-161.212
-306.399
-153.367
-307.548
-150.628
-233.039
-462.215
-454.611
-442.385
-443.351
33.9723
35.2705
28.2264
28.925
-248.21
-181.161
-308.759
-174.914
-253.764
-302.639
-168.591
-236.233
-163.689
-300.3
-152.809
-232.772
-301.011
-154.984
6.11612
1.13762
13.1616
7.08421
-408.293
-399.862
-477.643
-459.334
-409.461
-414.051
-440.58
-431.245
4.64212
9.51616
27.4022
27.2871
117.258
94.1666
26.7647
38.7165
-477.481
-511.485
-500.102
-521.465
-447.95
-353.826
-113.628
-163.368
-456
-345.028
-156.498
-670.621
-380.284
-532.032
-381.105
-719.436
-700.376
-646.634
-702.591
-688.109
-412.058
-307.666
-277.803
-488.765
-613.027
-337.911
-448.933
-425.307
141.081
140.82
-719.596
-806.67
-709.886
-366.741
-582.21
-682.001
-670.994
-681.713
-352.223
-614.766
-280.081
-228.659
-190.52
-436.974
-281.017
-183.93
-429.214
-285.213
-257.483
-185.582
-429.11
-281.116
-198.167
-439.062
-287.389
-253.91
-209.942
-432.737
-288.742
-202.202
-426.037
-292.889
-285.017
-212.641
-438.695
-292.345
-212.904
-445.504
-259.846
-205.245
-175.73
-376.143
-258.948
-173.321
-375.835
-257.881
-204.227
-174.07
-373.789
-257.981
-173.162
-374.318
-251.891
-195.769
-169.336
-365.465
-252.12
-167.575
-364.832
-254.171
-200.115
-171.058
-367.438
-253.304
-169.318
-368.215
-237.425
-177.769
-156.111
-342.327
-236.773
-153.733
-342.193
-235.714
-174.308
-154.335
-339.463
-235.778
-153.477
-339.844
-231.584
-164.088
-150.543
-327.666
-231.199
-150.244
-328.214
-232.609
-169.036
-152.315
-331.465
-232.206
-149.643
-331.272
-271.041
-203.381
-202.03
-339.249
-281.522
-189.779
-326.941
-306.82
-231.022
-208.453
-346.278
-287.208
-225.203
-365.875
-510.611
-170.841
-222.485
-424.778
-452.52
-220.193
-417.958
-396.457
-213.449
-246.945
-448.119
-436.236
-247.388
-443.986
33.5333
32.5725
92.1836
-21.1839
-27.4078
119.352
100.551
125.715
-27.0548
-11.2691
-15.2028
99.1772
133.068
99.431
222.809
223.97
96.2097
23.8374
-218.599
21.9897
-219.288
100.309
218.262
224.579
92.8506
23.2654
-220.561
21.804
-219.928
14.1314
6.38241
80.1959
-45.7133
-17.852
103.367
-32.0676
117.962
65.2508
81.0946
119.706
-26.9935
-12.7039
-27.1426
82.4069
120.703
100.382
227.77
223.47
98.4935
93.8932
22.1908
-221.116
22.4605
-222.307
-1029.58
-908.717
-1167.9
-562.763
-566.128
-1159.05
-1022.89
-904.534
-898.062
-1166.21
-1463.49
-1447.49
-1478.81
-1495.67
-1522.38
-1520.87
-1508.96
-587.177
-589.682
-907.793
-1011.28
-1140.09
-907.131
-1147.99
-1160.98
-903.728
-1019.16
-910.122
-1154.63
-20.2536
-11.3103
68.5429
-38.3998
-16.6283
107.732
-34.2244
109.914
69.871
61.9292
90.7743
-50.9813
-22.4086
-40.6375
49.5592
103.872
95.4506
210.998
210.716
90.264
21.8204
-217.641
19.9387
-216.758
93.6072
209.608
89.8553
209.2
23.4274
-214.836
22.0169
-215.361
-28.4232
-28.3978
49.213
-50.7
-24.5705
92.6383
-47.8425
48.8846
95.254
47.5628
87.6946
-54.9353
-26.2886
-48.842
42.9635
93.7141
99.6193
215.818
223.912
92.1487
30.1449
-210.789
29.481
-211.529
103.278
234.915
230.891
100.262
26.542
-213.839
23.9157
-212.8
-867.702
-971.65
-1100.08
-869.513
-1101.93
-580.13
-568.807
-1106.96
-974.979
-880.889
-874.246
-1103.86
-1424.72
-1434.93
-1416.98
-1414.11
-1416.92
-1418.47
-1415.67
-1413.48
-594.836
-597.17
-905.102
-996.74
-1133.46
-901.525
-1124.77
-1112.68
-888.923
-989.208
-895.298
-1117.72
-274.327
-222.143
-400.294
-187.75
-273.256
-399.008
-184.494
-272.25
-224.886
-396.16
-185.453
-271.986
-398.437
-186.347
-862.417
-1099.02
-965.212
-859.7
-1096.81
-544.675
-544.888
-1090.95
-961.587
-856.198
-855.583
-1094.7
-1398.41
-1393.19
-1403.18
-1408.35
-1418.82
-1419.26
-1416.88
-1412.75
-549.034
-544.351
-850.04
-952.586
-1080.54
-850.35
-1084.18
-1089.9
-853.46
-956.479
-853.383
-1086.56
10.9141
11.8457
85.4153
-32.8438
111.74
-9.79486
75.6457
-24.7738
122.977
85.7445
118.186
-29.9124
-7.45245
-21.7254
80.5265
125.144
112.916
248.902
251.794
107.671
39.8017
-204.212
38.442
-204.635
114.712
251.831
253.862
109.479
38.4176
-206.098
36.5055
-205.594
5.63998
6.75518
84.3496
-29.6105
-5.64683
117.941
-22.4023
124.356
78.2962
81.2829
115.215
-29.038
-5.41603
-22.7571
75.8165
123.641
112.118
250.161
250.98
107.618
34.2711
-209.861
31.8172
-209.116
109.408
240.222
102.429
247.118
36.9435
-207.132
36.0176
-207.793
-265.384
-213.827
-386.829
-182.867
-265.844
-384.932
-180.177
-268.766
-223.533
-389.761
-185.254
-267.715
-391.625
-183.927
15.4638
16.8241
92.4232
-20.7578
2.79646
123.197
-13.8255
132.362
86.1554
90.571
125.159
-20.5799
3.09826
-13.1359
84.7148
131.354
122.787
263.66
266.716
117.396
49.5547
-194.075
48.0931
-194.31
124.223
267.179
268.678
119.132
48.5157
-195.316
46.7375
-194.99
13.8231
16.1448
93.2124
-17.9159
5.17879
128.242
-11.7003
133.005
88.4076
89.7185
122.512
-20.0222
4.63514
-12.5675
83.3679
132.278
122.309
263.874
265.929
117.013
46.4875
-198.011
44.6656
-197.626
121.276
262.059
265.255
115.833
47.552
-196.229
46.1401
-196.61
-828.56
-929.457
-1059.97
-826.823
-1058.33
-521.099
-520.207
-1053.93
-926.998
-824.34
-824.507
-1056.36
-1361.42
-1358.72
-1283.31
-921.862
-881.804
-1093.94
-923.276
-1096.24
-1281.29
-1285.53
-1099.46
-926.323
-884.005
-925.798
-1287.21
-1097.77
-1363.67
-1366.04
-1294.35
-933.209
-890.299
-1106.93
-932.671
-1105.46
-1295.72
-1373.03
-1374.38
-1291.95
-1101.13
-888.297
-928.949
-930.438
-1103.5
-1289.69
-1371.04
-1368.37
-521.837
-517.478
-819.636
-920.768
-1047.51
-819.497
-1049.68
-1052.68
-822.269
-923.099
-821.454
-1050.83
-532.989
-527.831
-830.621
-932.965
-1060.89
-830.635
-1062.2
-1065.05
-834.9
-934.941
-832.469
-1063.53
-1385.2
-1388.85
-1308.16
-947.719
-1124.29
-905.384
-1311.51
-946.145
-1120.82
-1304.54
-1114.56
-902.005
-940.639
-942.633
-1117.61
-1301.98
-1381.72
-1379.38
-537.035
-537.008
-846.602
-1077.41
-944.916
-843.669
-1073.58
-1067.38
-838.201
-941.09
-840.075
-1070.32
-1298.06
-934.988
-894.339
-1108.04
-936.149
-1297.03
-1109.58
-1376.42
-1375.38
-1299.14
-1112.37
-896.099
-938.298
-937.682
-1110.92
-1300.1
-1377.38
-1377.87
5.24835
9.71464
87.812
-22.5186
-0.120666
123.954
-16.957
84.9364
127.87
83.0466
114.37
-28.034
-2.28941
-19.5056
74.6676
125.466
115.517
251.348
252.815
110.239
40.4788
-203.307
38.7203
-202.82
114.468
250.5
109.547
252.351
41.5173
-201.366
40.0702
-201.722
3.31105
3.6665
79.9905
-29.643
114.533
-4.91944
75.3392
-23.4928
122.157
77.97
115.014
-29.841
-5.02892
-23.0836
72.957
120.807
117.296
252.81
257.33
111.186
44.9114
-198.811
43.7094
-199.163
119.383
260.708
114.94
260.738
43.0895
-200.535
41.0561
-200.072
17.0582
20.297
96.8722
-13.071
9.39774
132.519
-7.20574
136.363
92.9347
93.0124
124.765
-16.5972
8.23002
-8.64133
85.8655
135.306
125.181
267.248
269.352
119.765
50.3239
-193.241
48.6639
-192.912
124.586
267.181
119.563
269.354
50.8952
-191.923
49.3501
-192.144
16.7184
17.6671
93.171
-17.4126
6.50798
125.642
-10.7936
87.9344
134.139
90.9309
126.909
-17.5258
6.4025
-10.5362
85.4129
132.396
125.921
267.852
271.322
120.35
52.9492
-189.981
51.5233
-190.19
127.417
272.576
273.611
122.529
51.7477
-191.222
49.9624
-190.955
-807.143
-907.707
-1034.02
-806.821
-1035.27
-510.434
-506.369
-1037.37
-909.328
-809.451
-808.074
-1036.25
-1354.25
-1356.41
-1276.78
-919.2
-877.045
-1091.93
-918.425
-1278.8
-1089.83
-1274.21
-1085.34
-914.5
-874.745
-915.951
-1272.17
-1087.66
-1351.94
-1349.82
-1268.21
-909.451
-869.087
-1080.09
-910.458
-1081.57
-1267.03
-1345.88
-1344.34
-1269.47
-1083.81
-870.63
-912.437
-912.136
-1082.69
-1270.42
-1347.18
-1348.28
-511.955
-511.021
-817.124
-916.044
-1045.69
-814.918
-1043.31
-1038.81
-811.602
-913.314
-812.326
-1041.14
-248.206
-191.606
-359.242
-165.482
-247.44
-359.198
-163.287
-246.388
-189.61
-357.228
-163.962
-246.551
-357.366
-162.727
-805.441
-1033.04
-904.616
-803.824
-1031.39
-502.472
-501.484
-1027.38
-902.337
-801.453
-801.729
-1029.56
-1331.79
-1329.56
-1254.67
-897.663
-857.976
-1067.36
-898.841
-1069.31
-1253.03
-1333.52
-1335.3
-1256.43
-1071.95
-901.32
-859.851
-900.973
-1257.71
-1070.59
-1264.06
-907.535
-1078.91
-865.588
-1265.5
-907.095
-1077.45
-1341.44
-1342.98
-1339.49
-1337.16
-1261.8
-1073.45
-863.695
-903.614
-904.931
-1075.63
-1259.78
-502.455
-498.252
-797.251
-896.746
-1021.89
-796.879
-1023.68
-1026.14
-799.483
-898.747
-798.55
-1024.65
22.219
23.5881
98.8451
-12.217
130.233
11.18
93.4187
-5.54289
139.117
96.511
131.894
-12.6031
11.0502
-5.37899
90.6122
137.194
128.963
273.194
276.219
123.691
56.0859
-185.819
54.5916
-186.022
130.35
276.831
278.182
125.301
55.0596
-186.986
53.3991
-186.743
21.3693
23.9638
100.126
-9.47882
13.1397
135.929
-3.51203
139.475
95.7206
96.5317
128.71
-12.1216
12.425
-4.48158
90.0642
139.028
128.734
273.133
275.444
123.232
53.763
-189.281
52.1465
-188.982
128.145
273.136
123.111
275.534
54.4077
-187.802
52.8388
-188.075
-240.932
-182.173
-348.965
-159.166
-241.118
-348.856
-157.838
-242.917
-185.615
-351.271
-160.853
-242.163
-351.464
-158.802
28.9452
30.2279
104.643
-4.93308
18.2379
136.025
1.60023
145.374
99.3666
102.305
139.263
-5.49391
17.9837
1.7198
96.4866
142.779
133.597
281.818
284.771
128.702
61.8473
-176.521
60.2596
-176.78
135.087
285.607
286.768
129.873
60.6935
-178.022
59.2128
-177.777
27.8424
30.5887
105.396
-2.66561
19.8533
143.481
3.39523
144.893
101.314
102.225
134.534
-4.96366
19.1825
2.33164
95.7929
145.344
133.855
281.722
283.996
128.214
59.6956
-180.56
58.1667
-180.167
133.192
281.82
284.056
128.495
60.3731
-178.905
58.6627
-179.122
-782.744
-879.688
-1006.42
-781.02
-1004.16
-482.686
-482.533
-999.183
-876.694
-777.748
-778.195
-1001.96
-1296.26
-1293.31
-1298.58
-1301.01
-1308.88
-1311.09
-1306.37
-1303.37
-482.574
-477.646
-771.685
-869.12
-991.583
-771.49
-993.91
-997.524
-774.944
-871.859
-773.878
-995.407
-492.751
-488.304
-785.154
-883.753
-1007.79
-784.798
-1009.62
-1012.31
-787.721
-885.904
-786.622
-1010.75
-1325.57
-1327.62
-1249.07
-895.245
-1065.71
-853.736
-1250.91
-894.609
-1063.8
-1246.46
-1059.25
-851.455
-890.635
-892.065
-1061.7
-1244.25
-1323.3
-1320.79
-493.281
-492.755
-794.975
-1020.49
-892.781
-793.157
-1018.3
-1013.78
-790.092
-890.053
-790.56
-1016.22
-1315.3
-1313.04
-1317.09
-1318.88
24.7415
27.5969
103.175
-5.61315
16.7165
139.845
0.254281
99.049
142.404
99.5918
131.424
-8.54744
15.8758
-0.871304
92.9297
142.19
131.275
277.018
279.23
125.745
56.6945
-185.097
55.1399
-184.781
130.678
277.122
125.811
279.329
57.3245
-183.576
55.7347
-183.826
25.1856
26.3297
101.101
-8.88548
132.738
14.5733
95.8212
-2.2655
141.736
98.7897
135.078
-9.17972
14.3767
-2.11476
93.116
139.519
131.478
277.308
280.449
126.294
59.0647
-181.371
57.579
-181.625
132.956
281.349
127.901
282.536
57.9244
-182.745
56.301
-182.508
29.5168
32.074
105.717
-1.55243
21.4894
146.725
4.93135
146.248
101.685
103.316
138.094
-2.68033
21.0198
3.96198
97.102
147.552
135.495
286.079
288.286
129.66
62.1612
-175.651
60.8365
-175.319
134.822
286.049
130.427
288.248
62.8282
-173.883
61.0774
-174.186
31.1707
32.6035
106.654
-1.98708
20.9436
138.804
4.25334
101.484
148.085
104.267
142.891
-3.12212
20.5725
4.33703
98.3472
144.946
134.456
286.109
288.96
129.997
63.8189
-171.352
62.0843
-171.635
135.794
289.856
290.875
130.294
62.7909
-172.953
61.4796
-172.681
-753.867
-850.067
-970.424
-753.963
-973.479
-469.543
-463.716
-978.493
-853.677
-758.558
-757.276
-975.558
-1287.85
-1290.79
-1284.74
-1281.02
-1271.47
-1267.56
-1274.62
-1278.02
-469.715
-470.451
-768.541
-863.876
-989.802
-766.662
-986.863
-980.684
-762.297
-860.088
-762.999
-984.17
-230.269
-159.38
-316.753
-151.511
-230.634
-316.267
-148.082
-231.932
-160.352
-311.297
-150.444
-230.073
-312.409
-151.538
-749.703
-968.101
-843.138
-747.571
-964.331
-451.794
-453.915
-956.362
-838.242
-741.631
-742.705
-960.938
-1239.64
-1234.74
-1243.52
-1247.97
-1260.7
-1264.49
-1256.81
-1251.96
-451.854
-444.35
-729.441
-824.445
-941.997
-730.008
-946.244
-953.361
-736.455
-829.361
-734.872
-949.156
30.1904
32.4202
106.5
-1.00479
143.813
21.2935
101.618
4.47518
149.989
103.744
146.586
-4.07455
20.6014
4.22804
97.1727
147.583
131.82
289.997
292.454
128.166
63.0262
-167.328
60.9568
-167.459
132.363
293.107
294.023
126.292
62.6082
-168.3
61.7304
-168.161
27.1128
28.4623
100.366
-6.70041
18.3541
150.989
1.05201
151.194
95.7836
99.6736
145.428
-4.23163
18.4607
0.747411
94.4639
149.626
134.833
290.373
292.639
128.564
63.5813
-170.44
62.5063
-170.132
134.486
290.362
130.604
292.534
63.8809
-168.926
61.9421
-169.237
-246.568
-175.807
-294.012
-162.06
-240.395
-301.068
-166.734
-236.82
-166.722
-296.073
-160.838
-239.502
-294.262
-155.534
-1.90847
4.15141
100.128
-28.833
-13.4818
170.465
-29.7744
174.577
91.8603
102.485
176.993
-44.1428
-16.5653
-31.442
104.605
179.902
98.9305
299.697
301.88
96.515
28.9203
-182.853
27.8423
-182.818
93.8573
303.546
302.818
91.8275
36.099
-177.637
36.0633
-177.933
1.61978
1.13632
115.716
-44.1913
-51.169
191.531
-39.8574
191.129
124.201
112.661
182.264
-42.6764
-46.7067
-45.047
104.625
184.788
108.599
300.666
302.058
102.267
49.0624
-170.624
48.9701
-170.918
112.348
297.31
300.744
109.735
45.373
-173.67
42.7456
-173.385
-684.719
-775.416
-898.411
-680.903
-891.694
-416.424
-409.622
-877.29
-766.927
-667.445
-670.599
-885.78
-1153.71
-1146.99
-1158.28
-1165.91
-1183.74
-1189.68
-1179
-1171.24
-432.48
-440.709
-638.174
-739.437
-848.441
-639.309
-856.497
-871.355
-655.523
-749.644
-651.882
-862.207
-425.388
-414.45
-693.373
-788.939
-902.751
-694.835
-908.594
-918.86
-704.593
-795.544
-702.215
-912.681
-1225.99
-1231.02
-1221.49
-1215.17
-425.094
-429.895
-723.584
-938.827
-814.78
-720.883
-933.786
-923.129
-712.134
-808.361
-713.999
-929.306
-1199.9
-1193.81
-1204.41
-1210.42
13.9795
11.3156
86.9973
-27.8716
2.1283
163.843
-16.8265
87.073
165.023
87.8136
158.233
-16.4756
3.50251
-15.4914
83.6752
160.475
127.829
293.963
296.149
120.812
60.9674
-167.252
60.3335
-167.119
128.672
293.632
125.566
295.919
60.3117
-166.934
57.8695
-166.963
19.1627
23.8752
99.4222
-6.78821
153.334
14.1912
95.084
-3.23618
156.16
95.7277
155.238
-14.9018
12.7765
-4.42836
88.2525
158.441
121.053
293.045
295.226
118.501
54.5783
-168.633
52.1155
-168.46
119.289
296.055
112.843
296.423
56.2245
-167.505
55.8884
-167.566
71.3364
85.5943
206.084
30.3139
-122.843
227.327
21.6161
234.097
224.352
198.482
229.907
1.21749
-125.435
7.73187
181.144
232.367
86.5404
312.851
312.404
89.0754
20.3297
-190.217
18.0348
-190.172
91.9352
306.74
87.2901
311.184
7.7985
-197.049
13.2605
-198.931
63.5144
52.1371
152.347
-32.6751
-95.4647
202.325
-26.4981
135.34
210.364
163.768
221.6
-12.2365
-95.7611
-14.1096
174.754
220.082
77.0016
311
304.118
81.2353
-25.3001
-210.548
-6.32644
-218.75
64.3984
268.163
284.623
59.4802
1.81394
-208.372
-4.7166
-206.919
-687.995
-825.322
-816.21
-710.613
-848.728
-554.368
-521.873
-852.113
-828.423
-733.441
-733.594
-859.318
-1137.8
-1144.21
-1133.97
-1123.54
-1086.91
-1064.96
-1102.01
-1117.42
-562.004
-547.014
-643.853
-749.773
-843.61
-672.029
-836.286
-836.57
-719.722
-752.843
-688.69
-834.304
-459.631
-117.848
-374.786
-218.538
-504.736
-344.691
-187.356
-750.055
-763.333
-720.413
-646.677
-727.282
-725.58
-704.661
-771.932
-665.027
-736.035
-832.746
-813.869
-872.075
-647.241
-283.525
-670.684
-819.595
-793.694
-833.956
-678.886
-342.942
-704.782
-749.589
-856.606
-774.536
-424.854
-312.912
-586.689
-753.74
-620.317
-731.905
-803.783
-526.679
-712.45
-660.573
-787.287
-775.941
-635.861
-753.129
-411.425
-415.219
-664.288
-743.86
-634.438
-617.756
-711.178
-660.886
-638.913
-733.432
-623.77
-636.088
-648.908
-988.733
-1035.6
-911.2
-803.753
-392.647
-596.271
-721.179
18.7604
132.407
230.229
31.496
219.062
-186.774
242.66
28.8994
200.597
201.225
10.2937
-86.2189
-220.391
-28.7798
66.0398
138.362
-194.645
-403.929
-630.527
-206.504
-551.296
-334.843
-728.121
-581.489
-422.27
-629.125
-81.0604
-220.696
-218.601
-54.6316
-108.199
-34.3474
134.898
-259.139
-48.8268
-218.777
-38.8118
-226.302
3.68746
243.93
40.2834
212.248
-133.699
-191.862
-307.9
-248.128
-505.395
-649.701
-617.19
-525.723
-506.143
-620.277
-508.588
-649.488
-527.281
-619.744
-500.485
-634.955
-610.809
-501.277
-605.588
-495.248
-599.062
-630.727
-601.855
-493.688
-435.958
-538.405
-435.538
-540.316
-439.241
-544.216
-439.837
-542.438
-431.857
-536.266
-432.15
-534.573
-428.461
-531.073
-532.645
-428.569
-457.761
-595.406
-473.184
-576.603
-448.436
-550.02
-438.838
-561.413
-515.544
-618.584
-488.903
-646.413
-544.599
-700.217
-675.528
-603.324
-482.855
-588.81
-591.522
-481.965
-487.224
-596.317
-488.477
-594.304
-443.583
-546.347
-443
-548.23
-423.54
-528.427
-528.21
-425.194
-426.041
-529.537
-425.409
-528.746
-427.319
-529.444
-424.064
-531.834
-428.505
-541.604
-434.162
-535.826
-1385.39
-1005.34
-969.809
-1187.79
-1010.88
-1196.85
-1374.88
-1398.96
-1211.79
-1027.87
-977.928
-1023.68
-1408.29
-1204.75
-1428.52
-994.307
-1047.98
-1223.68
-1425.14
-1215.09
-989.678
-1038.67
-1043.29
-1220.73
-1419.15
-1354.17
-993.863
-954.435
-1179.57
-989.765
-1362.75
-1171.41
-1346.58
-1159.16
-978.828
-947.446
-982.469
-1342.39
-1164.58
-1339.59
-972.11
-932.766
-1148.6
-973.78
-1150.35
-1339.33
-1339.52
-1154.68
-935.437
-975.871
-974.37
-1152.04
-1340.29
-1319.72
-952.226
-913.012
-1127.8
-954.646
-1131.67
-1315.98
-1324.26
-1137.78
-960.651
-916.75
-959.278
-1327.65
-1134.62
-1337.98
-970.957
-1147.58
-926.041
-1339.03
-969.824
-1145.78
-1335.14
-1140.06
-923.253
-964.948
-967.166
-1143.4
-1331.95
-1220.77
-868.534
-830.284
-1035.67
-869.984
-1038.23
-1218.64
-1223.22
-1042.02
-873.514
-832.845
-872.897
-1225.02
-1040.02
-1233.14
-881.681
-840.497
-1051.04
-880.981
-1049.01
-1235.07
-1230.24
-1043.98
-837.984
-876.555
-878.116
-1046.75
-1227.73
-1238.88
-884.282
-845.067
-1052.68
-885.478
-1237.24
-1054.68
-1240.71
-1057.58
-847.066
-888.167
-887.745
-1056.07
-1242.08
-1213.34
-865.198
-824.489
-1033.56
-864.228
-1215.8
-1030.89
-1209.7
-1024.57
-858.658
-821.252
-860.549
-1206.6
-1028.06
-1197.4
-848.117
-811.21
-1013.54
-849.937
-1016.81
-1194.67
-1200.66
-1021.99
-814.527
-854.733
-853.713
-1019.2
-1203.12
-1166.47
-821.457
-785.732
-984.228
-823.668
-988.707
-1162.98
-1171.04
-995.906
-830.19
-790.208
-828.813
-1174.47
-992.001
-1187.94
-843.795
-1010.83
-803.559
-1191.01
-842.495
-1007.32
-1183.26
-999.311
-799.337
-835.404
-837.66
-1003.78
-1179.29
-1077.07
-787.167
-713.904
-894.783
-762.401
-901.626
-1073.12
-1084.58
-914.535
-761.384
-718.16
-774.262
-1090.23
-906.769
-1111.75
-780.437
-737.985
-940.171
-780.867
-933.911
-1116.21
-1104.4
-920.351
-730.908
-773.868
-771.282
-928.27
-1098.47
-1154.5
-815.759
-980.622
-775.393
-1158.27
-814.082
-975.844
-1148.6
-965.262
-769.89
-805.124
-807.755
-971.235
-1143.67
-1126.57
-788.287
-751.633
-944.681
-789.741
-1122.22
-950.566
-1132.72
-960.635
-757.542
-798.163
-796.851
-954.95
-1137.31
-1064.83
-782.538
-748.851
-891.644
-811.996
-1067.1
-887.751
-1057.54
-894.413
-838.63
-757.654
-809.642
-1055.87
-889.799
-1031.4
-852.282
-798.992
-896.375
-838.996
-908.309
-1024.05
-1045.96
-905.019
-808.257
-831.337
-857.963
-908.521
-1047.43
-960.696
-808.95
-870.53
-750.755
-990.801
-798.347
-828.835
-885.115
-692.576
-701.705
-697.936
-721.773
-765.433
-794.338
)
;

boundaryField
{
    left
    {
        type            calculated;
        value           nonuniform List<scalar> 0();
    }
    bottom
    {
        type            calculated;
        value           nonuniform List<scalar> 
243
(
-459.696
-453.905
-417.937
-414.525
-390.087
-386.075
-381.775
-394.904
-434.89
-430.23
-404.507
-401.161
-374.782
-372.749
-228.303
-234.711
-464.241
-447.227
-220.333
-224.908
-194.9
-197.93
-421.654
-411.161
-189.753
-192.327
-174.551
-177.195
-393.962
-381.994
-169.569
-172.022
-197.468
-179.71
-375.398
-437.218
-322.635
-236.011
-105.586
-208.5
-213.737
-440.465
-94.7172
-89.7765
-104.98
-99.0036
-82.4368
-79.5974
-88.2815
-84.4055
-425.821
-201.482
-204.944
-184.709
-187.19
-407.816
-74.308
-71.9692
-78.3321
-75.6605
-66.835
-64.3541
-70.6982
-68.2112
-397.652
-179.767
-182.299
-166.563
-167.689
-378.106
-59.3302
-58.6885
-62.8848
-60.6979
-64.8904
-84.8967
-58.1484
-62.4481
-372.661
-170.794
-167.375
-305.21
-239.074
-98.0242
-168.589
-207.139
-108.158
-104.382
-92.7857
-90.3379
-105.019
-101.689
-81.596
-80.163
-87.5981
-85.628
-73.763
-72.5352
-77.7721
-76.3824
-66.3169
-64.9069
-70.1869
-68.8367
-59.3586
-58.3001
-62.4933
-61.0313
-69.72
-75.9234
-59.4218
-60.0117
-53.8269
-147.701
-232.629
-17.7976
-113.881
-145.536
-337.765
-355.476
-308.031
-392.356
-407.199
-198.567
-240.339
-323.509
-322.58
-323.006
-322.957
-323.144
-323.268
-314.752
-314.098
-316.564
-315.836
-312.121
-311.652
-313.392
-313.012
-321.194
-320.774
-322.632
-322.313
-318.081
-317.139
-320.123
-319.089
-304.432
-303.996
-305.721
-305.362
-302.14
-301.727
-303.234
-302.903
-309.54
-309.077
-310.91
-310.538
-306.979
-306.423
-308.363
-307.845
-295.277
-294.892
-296.467
-296.173
-292.955
-292.508
-294.101
-293.792
-299.857
-299.458
-300.981
-300.673
-297.609
-297.174
-298.765
-298.416
-284.989
-284.558
-286.477
-286.087
-282.066
-281.533
-283.567
-283.205
-290.446
-290.031
-291.746
-291.417
-287.845
-287.346
-289.164
-288.823
-272.676
-272.218
-274.171
-273.813
-270.183
-269.854
-271.361
-271.151
-278.915
-278.413
-280.544
-280.152
-275.729
-275.202
-277.351