/*--------------------------------*- C++ -*----------------------------------*\
| =========                 |                                                 |
| \\      /  F ield         | OpenFOAM: The Open Source CFD Toolbox           |
|  \\    /   O peration     | Version:  2012                                  |
|   \\  /    A nd           | Website:  www.openfoam.com                      |
|    \\/     M anipulation  |                                                 |
\*---------------------------------------------------------------------------*/
FoamFile
{
    version     2.0;
    format      ascii;
    class       volScalarField;
    location    "0.107/solid";
    object      sigmaEq;
}
// * * * * * * * * * * * * * * * * * * * * * * * * * * * * * * * * * * * * * //

dimensions      [1 -1 -2 0 0 0 0];


internalField   nonuniform List<scalar> 
3125
(
997.107
978.724
942.921
938.137
903.042
895.654
813.397
784.769
962.634
955.683
925.357
920.418
867.01
855.442
1006.84
944.377
962.671
235.19
941.74
221.406
932.361
943.951
970.139
941.136
231.354
928.984
210.382
947.297
915.227
207.796
918.602
205.18
911.227
933.895
207.141
907.854
199.045
909.504
880.991
195.321
886.754
188.23
874.475
887.216
194.476
867.077
157.109
829.998
815.371
196
823.022
530.253
810.032
732.511
216.132
820.336
1071.68
666.757
1068.39
1074.41
654.928
649.241
220.805
967.823
928.877
215.098
931.336
639.113
649.08
1080.44
1079.06
210.745
950.862
923.539
213.735
920.542
1073.86
1077.44
626.123
631.061
635.485
631.975
1078.88
1077.38
1072.38
1068.27
624.322
620.986
204.801
929.854
900.656
202.673
904.576
615.559
619.795
1061.5
1067.02
199.579
915.194
896.321
202.153
891.759
1041.99
1050.68
600.178
607.068
613.883
609.017
1059.65
1052.96
1039
1027.84
597.261
186.887
877.665
849.781
175.621
858.868
1011.01
1024.08
158.178
843.171
840.452
173.499
831.104
991.841
993.528
1007.13
995.685
995.483
1035.63
602.947
1028.52
1086.99
925.033
1035.72
967.178
248.574
740.487
703.803
961.964
243.443
727.568
685.622
951.558
737.385
697.231
928.183
664.004
223.009
712.172
707.264
661.657
931.458
930.881
224.5
713.415
672.458
938.109
706.435
664.335
917.085
651.03
208.718
706.053
918.079
704.241
649.836
914.647
207.937
701.796
646.924
913.277
702.227
648.076
906.91
641.819
204.863
696.785
696.012
641.94
906.512
908.904
205.277
699.668
644.961
910.599
697.222
643.2
886.994
629.645
196.863
683.861
889.09
681.171
627.647
883.725
195.97
678.214
624.084
882.039
678.59
625.404
871.502
613.566
190.144
668.579
669.418
615.752
869.1
875.732
191.459
675.888
621.686
878.49
672.76
618.959
820.338
562.959
160.691
645.06
826.092
643.804
553.066
812.259
162.242
644.883
529.006
805.256
642.399
540.454
771.409
516.528
355.102
741.771
700.229
503.829
771.037
787.153
313.279
657.913
518.024
795.525
672.879
509.201
590.97
403.415
1072.32
407.537
583.074
592.234
1065.62
398.665
543.49
680.721
612.638
631.269
692.413
637.802
526.069
535.011
575.853
570.825
403.502
1067.4
399.332
576.968
567.891
397.334
1070.2
399.83
505.265
508.438
649.247
606.344
595.585
596.031
647.859
594.168
520.151
510.145
933.815
665.351
218.347
717.067
933.009
665.052
717.058
930.727
216.646
659.202
712.102
662.266
714.399
927.806
503.284
500.798
643.167
585.485
590.327
595.124
647.075
592.908
494.811
497.565
580.564
580.039
398.736
1081.53
401.341
577.006
579.635
400.593
1081.26
399.261
918.78
210.543
651.509
705.862
919.217
651.079
704.105
920.763
211.018
655.245
707.838
923.247
652.475
704.661
574.323
571.229
393.189
1075.17
395.169
570.231
570.819
395.89
1076.32
395.076
486.05
484.585
627.81
573.154
574.816
578.037
629.7
576.102
482.067
483
487.213
488.031
583.251
633.379
579.581
492.541
489.195
578.789
632.194
578.617
573.383
571.376
398.617
1077.3
397.117
575.619
570.66
395.338
1077.16
397.276
566.479
565.642
392.773
1070.47
391.858
569.744
565.676
389.816
1069.33
391.601
477.387
477.786
622.915
571.905
569.633
568.395
621.689
568.731
480.685
478.855
903.253
640.832
203.175
695.81
904.69
639.404
693.571
900.9
202.571
637.119
691.709
637.861
691.691
899.822
476.288
474.916
616.888
563.447
564.561
567.58
618.471
565.619
472.941
473.587
566.607
562.832
386.443
1063.19
388.362
562.3
562.429
389.553
1064.91
388.817
892.897
199.675
631.318
685.641
891.807
632.022
685.495
895.503
200.282
635.496
689.957
897.32
633.716
687.455
557.102
552.618
377.032
1044.83
379.351
551.227
552.066
381.352
1047.53
380.245
465.846
463.613
602.463
549.391
551.668
556.196
604.953
553.28
459.81
461.631
467.408
468.338
562.294
612.242
559.896
471.563
469.765
557.461
610.459
558.668
557.349
557.387
385.798
1057.07
384.823
562.013
557.821
382.201
1055.04
384.224
543.594
545.098
375.887
1035.04
374.328
550.976
545.859
370.563
1031.54
373.216
447.281
451.143
594.102
547.546
543.244
536.661
590.25
540.807
457.591
453.936
860.983
610.124
182.18
665.843
864.606
606.17
662.227
855.595
179.896
597.367
656.531
601.264
657.964
852.235
443.944
437.121
514.701
523.059
533.925
526.834
423.704
432.519
543.562
537.94
363.305
1015.17
365.987
535.243
537.268
369.12
1019.42
367.196
836.088
163.165
571.252
644.72
831.685
578.179
645.928
842.377
166.632
592.11
653.98
846.931
585.977
650.369
535.498
538.665
384.191
990.424
372.033
557.443
542.98
361.386
991.995
364.246
363.818
331.009
390.097
424.529
463.93
437.593
269.77
314.368
374.484
395.468
510.019
496.885
418.129
403.614
472.495
490.071
531.523
531.458
362.083
1002.71
360.425
536.06
531.405
359.717
998.706
360.569
781.632
652.732
405.067
1004.25
444.039
573.703
622.914
647.141
1015.31
507.371
242.21
196.437
374.726
341.699
324.234
325.643
248.859
214.074
862.239
552.171
735.936
833.857
794.874
612.106
905.642
935.155
602.929
957.968
1399.2
1032.46
1133.26
962.644
736.837
538.577
1022.26
247.337
262.616
378.582
321.713
350.088
271.332
861.008
1015.76
1392.44
1031.76
1002.07
824.979
1195.67
956.248
648.261
253.605
339.899
374.453
635.013
237.474
327.409
357.235
628.263
328.468
360.167
612.068
341.19
220.963
314.766
313.274
340.503
614.81
613.154
227.709
320.379
352.9
620.14
317.035
348.325
604.234
328.262
209.359
306.373
605.101
305.153
326.796
994.296
840.538
992.292
842.285
996.507
845.702
997.774
844.442
600.344
207.382
303.885
325.115
600.639
302.543
324.364
595.545
321.726
204.567
301.094
299.502
320.717
596.446
987.865
838.19
989.809
836.326
985.979
834.434
834.896
984.85
597.906
205.989
302.726
324.272
599.399
301.214
322.648
583.997
313.657
197.897
294.02
585.316
292.68
312.053
579.241
195.094
290.668
309.034
579.55
289.279
308.556
570.32
300.106
188.431
284.186
283.074
300.287
570.21
576.629
193.142
289.422
307.889
578.215
287.94
305.935
537.194
251.731
157.893
262.917
541.001
260.736
244.909
532.233
179.071
283.064
230.908
530.225
274.353
231.877
607.812
453.815
462.942
575.818
510.677
406.329
640.332
540.188
244.861
302.512
241.268
537.655
318.379
248.256
272.609
262.095
264.26
416.846
395.497
398.638
257.574
253.738
255.277
252.116
377.82
377.625
389.988
385.641
617.082
340.548
219.478
315.544
616.89
338.666
314.24
611.396
215.156
334.179
310.879
334.123
309.997
610.513
377.257
375.561
369.265
369.549
259.655
260.335
257.543
256.693
603.997
210.099
328.769
306.763
605.299
327.76
305.086
1001.39
850.053
1004.31
847.138
605.663
212.122
332.706
308.641
608.099
330.499
306.765
999.434
846.192
998.898
845.803
256.059
255.232
254.351
252.939
362.608
361.49
358.962
358.548
363.219
362.558
367.493
365.627
255.904
253.519
255.501
253.77
252.791
250.87
253.479
252.036
355.259
354.568
358.011
356.784
594.625
321.164
203.8
300.431
595.733
319.744
299.137
979.332
828.579
829.835
977.594
981.5
833.225
983.122
831.693
591.177
202.188
318.493
298.32
317.625
296.839
591.724
354.589
353.558
351.631
351.097
252.512
251.291
250.925
249.297
585.787
199.171
314.506
295.003
586.375
313.697
293.485
973.15
826.594
975.226
824.643
589.348
201.078
317.734
297.361
590.664
316.198
295.987
248.42
247.173
246.423
244.551
346.265
345.042
341.079
340.944
347.227
346.763
350.776
349.632
248.856
247.085
250.361
249.04
243.64
241.493
245.844
244.706
330.849
331.423
339.743
338.165
566.658
298.432
185.153
282.715
568.719
295.715
280.883
558.023
176.572
283.936
274.032
285.601
273.533
557.062
328.792
326.398
311.535
313.795
243.207
242.307
241.821
239.038
542.721
158.765
254.738
261.602
540.384
259.197
261.552
552.904
171.335
281.408
272.692
555.823
277.039
270.162
255.659
260.366
323.288
301.716
267.86
260.749
223.633
226.162
273.718
279.397
308.083
303.893
250.46
244.78
242.375
242.378
693.077
613.326
348.446
378.309
409.872
356.911
223.915
232.823
737.4
509.64
671.644
649.868
674.125
568.195
735.353
818.254
787.511
788.947
849.761
804.876
579.837
758.215
615.318
914.729
940.03
905.61
1167.29
848.856
1002.25
1022.4
453.123
507.386
784.001
875.408
870.526
921.497
842.52
781.724
753.589
828.34
798.526
907.424
880.814
811.951
653.446
250.23
339.765
371.677
652.21
340.568
373.754
641.073
239.15
334.774
368.886
647.909
331.672
363.611
609.043
221.453
313.183
342.454
608.507
311.951
340.272
609.562
225.647
313.469
344.4
607.954
313.965
345.655
603.122
208.599
304.526
326.77
602.876
303.871
326.323
600.671
207.114
303.24
325.999
601.554
302.469
324.685
595.319
204.182
299.637
321.888
595.649
299.054
320.789
596.536
205.149
300.414
322.56
596.412
299.716
322.033
582.43
196.938
291.579
311.536
581.962
291.014
311.31
579.615
195.077
290.129
310.5
580.459
289.377
309.03
570.897
188.906
284.54
303.166
572.182
283.5
301.154
574.881
191.888
286.386
304.645
574.011
286.049
304.905
538.254
157.317
262.214
236.224
533.597
262.37
242.707
528.582
171.885
265.888
235.292
533.627
265.467
228.117
587.361
411.776
415.675
325.002
568.832
457.427
356.532
551.337
272.731
372.809
287.335
556.216
344.268
268.966
271.547
269.06
258.418
546.358
269.409
189.549
256.656
193.754
266.592
552.411
272.711
262.541
189.574
443.28
170.407
170.099
443.42
684.967
1029.83
685.511
1028.12
443.095
174.673
170.25
441.397
684.699
1023
683.569
1025.88
266.12
263.68
256.444
267.188
548.645
194.853
268.837
192.378
256.008
255.043
196.096
273.017
551.918
271.872
255.181
192.266
436.016
165.459
157.749
439.015
435.827
679.148
1019.17
681.236
1013.65
545.527
480.324
517.986
412.468
415.84
511.165
541.782
476.252
477.223
517.099
613.113
608.067
612.771
618.617
623.501
621.952
617.971
407.457
402.414
455.035
528.956
498.252
458.806
502.862
510.573
467.186
533.772
463.289
505.845
252.036
253.568
250.591
261.499
536.485
197.218
263.077
190.74
253.989
249.884
193.03
262.112
533.943
261.896
249.579
191.128
440.008
178.38
172.041
440.851
683.456
1030.59
683.688
1030.84
440.45
176.267
442.745
172.287
683.618
1032.95
683.744
1032.01
250.246
249.84
247.129
267.053
534.5
192.933
265.354
248.66
187.272
245.987
191.344
262.141
531.316
263.505
246.506
186.162
442.129
180.265
177.22
441.754
685.815
1036.94
685.37
1035.83
441.741
182.607
176.123
443.287
683.646
1034.05
685.195
1034.28
435.398
504.939
477.12
435.718
479.24
379.679
377.958
482.038
505.952
438.724
436.488
480.139
603.08
606.94
601.25
599.331
590.881
589.928
594.071
595.25
381.369
382.601
448.899
516.062
494.768
445.338
490.711
484.987
439.826
512.883
442.414
487.801
617.102
218.519
338.259
313.925
616.689
338.278
313.526
612.695
215.256
337.053
311.752
614.666
334.987
310.541
434.002
475.98
502.126
432.509
474.322
374.19
374.808
470.974
500.343
431.017
431.228
473.583
578.741
577.135
579.411
581.586
585.623
587.226
584.158
582.344
372.35
370.559
424.672
494.903
465.909
425.292
467.914
470.294
428.122
496.836
426.792
468.508
259.02
258.016
256.908
264.021
199.874
543.305
256.663
263.504
197.311
255.019
200.67
262.091
543.023
264.388
257.409
196.532
446.314
188.859
185.054
447.368
688.369
1041.36
688.006
1041.56
446.042
189.065
184.442
445.637
688.247
1041.77
689.081
1041.23
256.62
255.961
254.938
261.843
539.94
201.042
262.647
196.499
256.169
253.696
200.89
263.99
540.736
263.918
254.808
196.865
445.889
187.427
182.242
445.963
687.318
1038.46
687.932
1038.9
445.844
184.953
445.103
182.67
688.804
1041.09
688.755
1040.36
603.213
209.77
328.976
304.971
603.293
327.723
304.357
603.962
211.055
329.844
305.571
603.713
329.573
304.974
253.613
253.015
254.117
260.282
536.031
201.611
259.996
197.297
255.461
252.096
200.657
258.724
534.614
260.132
253.666
196.486
442.797
192.183
187.56
443.96
682.343
1035.14
681.806
1035.81
442.469
191.589
186.997
442.326
682.433
1037.3
683.638
1036.01
252.469
251.956
252.524
258.183
532.78
200.972
258.562
196.008
253.953
251.092
200.415
259.113
532.867
259.511
252.691
196.316
443.905
191.778
187.009
443.579
684.234
1038.96
685.289
1037.99
443.856
191.231
187.074
444.779
684.223
1037.65
683.816
1038.05
416.727
485.168
457.558
415.871
456.953
360.845
360.807
455.131
484.235
415.244
415.158
456.461
563.745
562.966
591.612
710.709
573.196
560.358
711.228
561.483
590.859
592.351
562.711
713.252
573.992
711.903
593.02
561.888
564.334
565.39
595.83
716.955
577.292
566.009
716.092
565.381
596.488
567.383
568.275
595.052
563.486
576.459
714.451
715.278
564.744
594.037
566.83
565.997
359.863
358.942
412.533
481.494
452.696
412.451
453.923
454.694
413.927
482.483
413.153
453.969
363.512
362.694
417.709
486.568
458.051
417.577
459.103
459.966
418.916
486.992
417.849
459.371
574.681
576.181
601.678
721.363
572.161
581.271
603.153
718.688
570.739
600.631
568.545
579.972
716.94
717.488
569.781
599.543
573.935
573.113
364.367
364.418
422.717
464.697
490.866
421.321
463.319
460.948
419.798
489.456
420.151
462.392
597.739
717.356
578.169
566.493
716.61
597.266
567.245
569.827
569.337
598.167
567.787
578.252
716.413
716.372
567.463
598.586
570.957
571.663
252.208
252.548
252.898
259.526
534.99
201.188
260.054
255.091
195.698
251.387
199.332
259.816
534.08
260.266
252.439
195.948
444.582
190.046
184.908
444.54
686.488
1041.29
687.643
1040.23
444.589
189.59
446.198
185.004
686.343
1040.04
685.964
1040.32
252.127
251.282
252.578
261.905
200.473
535.764
254.383
261.19
195.46
250.521
199.06
259.557
533.788
260.871
251.95
194.451
444.309
190.685
186.341
444.972
685.43
1038.92
684.91
1039.18
443.894
190.567
444.232
185.579
684.935
1040.06
686.265
1039.04
249.993
249.852
250.749
256.039
528.804
200.188
256.34
194.972
252.54
249.247
199.077
256.398
528.384
256.912
250.755
195.211
441.164
191.952
187.155
440.968
680.332
1034.64
681.54
1033.31
441.083
191.819
442.511
187.115
680.025
1032.54
679.602
1033.13
250.382
249.704
251.492
258.108
530.852
200.612
257.661
253.406
195.711
249.432
199.244
256.338
529.126
257.525
250.875
194.84
440.143
192.236
187.505
441.148
678.135
1029.55
677.523
1030.32
439.735
191.548
186.903
439.748
678.195
1032.15
679.48
1030.71
408.153
476.684
447.874
407.955
448.786
355.396
354.735
449.238
477.115
409.023
408.24
448.883
561.296
562.265
589.06
709.586
570.733
559.588
708.045
589.882
558.807
588.339
557.203
706.692
569.834
707.154
587.519
558.215
560.854
560.2
585.94
705.653
568.024
555.278
705.379
556.042
585.489
557.959
557.448
586.386
556.635
568.279
705.992
705.512
556.252
586.738
558.664
559.367
356.128
355.958
411.455
479.63
452.111
410.57
451.413
449.769
409.878
478.619
409.796
450.935
593.3
203.028
319.736
298.398
593.09
319.217
297.719
591.31
201.855
319.023
297.294
591.927
317.857
296.64
407.278
447.475
475.469
406.529
446.971
352.986
352.835
445.374
474.576
405.977
405.844
446.545
552.404
551.634
580.471
699.862
563.315
549.878
700.055
550.913
579.813
553.074
554.006
581.128
551.853
701.468
563.905
700.539
581.636
551.237
584.127
705.003
554.776
566.719
584.74
703.953
554.187
555.841
556.682
555.421
554.671
583.418
552.51
565.915
702.458
703.102
553.62
582.541
352.145
351.393
403.789
472.262
443.19
403.643
444.341
444.942
404.913
473.07
404.202
444.373
249.578
249.046
250.751
256.195
200.102
528.301
252.566
255.907
195.372
248.702
198.787
254.644
526.649
255.853
250.106
194.562
437.066
192.068
187.212
438.341
673.237
1022.64
672.538
1023.62
436.684
191.236
186.657
436.526
673.474
1025.79
674.844
1024.14
248.724
248.272
249.266
254.017
525.079
199.144
254.269
194.019
250.819
247.768
198.429
254.675
525.011
255.149
249.525
194.313
438.657
191.896
187.218
438.202
676.152
1029.08
677.41
1027.65
438.57
191.775
439.94
187.173
675.764
1026.43
675.186
1027.24
585.908
198.905
315.177
293.966
586.483
313.97
293.336
587.9
200.218
315.993
295.1
587.628
315.56
294.434
245.334
244.779
246.869
251.303
519.091
197.66
250.866
192.898
248.79
244.787
196.39
249.35
517.199
250.653
246.225
192.043
428.643
191.141
186.265
430.308
659.768
1002.7
658.609
1004.39
428.182
190.431
185.72
427.696
660.338
1007.71
662.119
1005.45
244.245
243.926
244.974
248.219
514.795
196.851
248.672
191.523
246.824
243.813
195.98
249.36
514.934
249.476
245.517
191.858
430.869
190.941
186.197
430.19
664.242
1012.94
665.899
1010.89
430.835
190.89
186.128
432.643
663.572
1008.72
662.665
1010.05
397.215
464.88
436.731
396.258
435.753
343.905
344.045
433.415
463.488
395.024
395.18
435.102
536.105
534.535
537.287
538.88
542.13
543.472
541.364
540.023
342.684
341.61
390.993
459.488
429.15
391.304
430.967
432.597
393.411
460.863
392.37
431.429
347.936
347.136
398.477
466.817
437.344
398.447
438.676
439.531
399.907
467.708
399.096
438.853
549.777
550.853
578.044
698.864
549.192
561.233
578.85
697.489
548.391
577.184
546.472
560.239
695.769
696.487
547.731
576.183
549.248
548.319
348.852
348.788
402.723
442.695
470.652
401.896
441.945
440.125
401.081
469.531
401.038
441.452
545.475
544.509
546.334
547.431
246.532
246.179
247.23
251.398
520.36
197.963
251.659
248.924
192.735
245.799
197.071
252.072
520.286
252.47
247.511
193.042
435.083
191.386
186.644
434.588
670.806
1021.96
672.233
1020.28
435.036
191.373
436.64
186.606
670.271
1018.62
669.578
1019.67
247.282
246.709
248.626
253.913
198.823
523.659
250.586
253.5
193.958
246.563
197.45
252.122
521.869
253.332
247.993
193.102
433.312
191.563
186.726
434.686
667.269
1013.88
666.342
1015.18
432.877
190.74
432.565
186.161
667.631
1017.87
669.159
1015.96
241.454
241.228
242.688
244.202
507.869
196.648
244.888
191.035
245.019
241.857
195.294
245.842
508.114
245.517
243.353
191.225
425.671
190.943
186.001
424.803
656.099
1001.45
658.015
999.05
425.73
190.62
427.746
185.91
655.183
996.087
654.007
997.877
242.768
242.198
244.765
248.159
513.044
196.624
247.484
246.69
191.898
242.669
195.608
245.729
511.035
247.186
244.292
191.083
422.995
191.329
186.649
424.905
650.315
988.466
648.892
990.569
422.46
191.256
186.215
421.835
651.172
994.675
653.2
992.015
378.501
447.585
415.414
379.598
418.273
334.326
332.668
421.492
449.824
383.115
381.47
419.426
531.036
533.037
529.749
527.564
521.31
518.665
523.264
525.786
336.119
336.777
389.189
456.341
428.124
387.837
426.49
422.944
385.515
454.3
386.204
425.393
564.803
183.256
292.77
278.496
563.16
294.121
278.734
558.685
178.074
290.516
276.138
560.919
287.232
274.325
375.663
413.479
441.886
373.331
410.566
322.32
324.158
404.251
438.552
368.555
370.528
408.342
495.351
490.426
498.863
503.458
512.852
516.216
510.499
506.627
319.357
316.335
354.616
425.74
389.077
357.665
394.347
401.338
364.528
429.957
361.402
397.281
240.529
239.85
243.454
244.354
196.841
505.981
245.128
243.376
192.41
241.525
196.913
241.48
504.087
243.116
243.657
191.977
417.087
194.095
190.006
418.97
639.394
972.314
638.257
974.214
416.525
196.156
190.087
416.392
640.491
978.682
642.478
976.021
239.024
238.931
242.268
240.225
500.292
200.457
240.949
193.92
245.846
241.584
197.277
242.045
500.298
241.051
242.665
193.371
419.568
193.118
187.658
418.758
645.941
986.694
648.031
983.988
419.732
191.701
421.82
187.334
644.772
980.506
643.54
982.509
542.625
161.33
267.607
264.787
546.497
261.69
261.707
551.511
168.439
270.9
266.977
548.536
274.535
268.177
272.63
264.75
270.116
248.799
501.985
227.58
249.582
228.716
265.931
274.725
249.712
258.501
505.694
254.847
286.867
236.374
435.717
252.139
261.319
429.71
639.065
966.494
647.546
959.548
439.267
297.154
273.745
452.068
639.005
956.84
634.581
960.468
279.824
290.172
316.422
302.318
520.208
310.298
288.576
285.768
341.343
304.805
262.724
270.347
511.275
274.078
294
269.155
421.102
241.492
227.511
426.338
632.421
957.631
631.333
957.892
420.588
220.328
222.285
418.469
631.79
958.491
635.063
956.238
294.617
354.449
322.198
284.107
309.172
246.318
254.187
279.347
341.896
260.522
272.936
296.618
341.172
322.016
356.556
374.201
413.289
425.822
402.394
387.326
238.41
231.87
201.53
283.209
200.056
216.703
224.69
263.421
245.96
301.251
231.44
242.927
290.337
284.469
304.385
380.817
332.182
312.236
343.219
359.569
326.986
389.38
320.093
350.767
479.99
486.074
475.236
467.957
295.544
299.945
349.628
384.907
413.957
344.894
379.062
366.162
334.415
407.842
339.477
373.972
445.528
435.209
452.945
461.894
242.092
243.219
252.499
243.695
496.965
220.406
242.792
260.33
210.573
250.538
209.38
241.817
495.215
240.415
249.58
206.911
414.879
202.811
195.549
415.156
635.689
970.352
637.319
968.061
415.141
197.49
416.549
194.367
634.399
965.047
633.964
966.247
242.555
240.947
246.383
241.236
202.174
499.269
247.009
240.018
198.707
245.516
206.428
239.299
498.469
240.573
249.683
199.903
415.325
205.724
204.053
415.895
631.075
959.64
631.798
959.738
415.118
215.606
417.396
206.177
632.069
963.028
632.818
961.582
497.735
555.307
648.918
655.252
717.162
723.953
579.471
631.311
738.384
579.885
497.275
466.309
662.996
512.934
522.235
554.414
490.291
413.684
370.203
519.896
662.923
966.052
650.013
976.327
478.192
317.328
459.912
343.024
666.507
994.441
688.672
977.236
451.43
408.667
393.954
327.774
557.271
337.94
347.21
366.985
362.104
425.962
443.554
413.652
580.859
377.804
472.734
397.273
585.513
457.117
518.586
542.319
746.623
1081.66
805.284
1035.84
632.968
681.375
587.871
702.823
730.801
998.613
696.272
1025.05
286.737
209.206
165.254
246.577
140.232
283.446
326.537
112.824
212.832
189.86
215.94
117.756
285.072
304.211
268.855
251.734
228.811
227.976
230.029
239.87
263.062
240.925
187.958
237.052
179.13
178.059
153.531
114.438
176.667
217.501
173.594
135.602
763.892
723.025
636.356
830.321
779.571
608.307
782.964
883.65
883.735
852.883
631.076
757.656
842.608
814.772
805.716
630.544
790.522
1008.47
959.642
1040.49
1122.75
1332.82
1076.33
1032.66
1111.62
1076.65
953.852
1273.41
1043.57
899.695
1007.77
930.427
649.118
872.065
793.472
806.151
588.337
818.566
1014.54
966.355
935.292
322.252
191.396
282.498
364.94
214.174
540.121
535.444
189.789
273.604
383.39
385.843
219.904
449.086
258.808
161.322
250.784
441.7
354.668
242.844
235.148
267.313
241.12
587.562
166.656
364.909
986.682
962.868
946.85
742.331
826.384
947.027
847.649
847.65
938.868
1059.34
1067.62
983.831
1015.75
914.958
1086.26
1037.39
926.412
911.221
1115.28
1311.07
1008.26
979.881
1099.8
955.158
1210.28
971.006
1047.15
1119.41
1006.75
1098.91
936.039
990.449
982.373
900.062
924.26
1107.3
839.747
1166.05
869.439
775.943
773.377
885.006
991.073
1190.91
875.078
1197.06
1049.42
984.099
883.159
1022.39
1037.33
899.248
1055.68
998.833
1031.61
909.517
1015.45
934.925
866.758
1023.89
858.03
1012.28
860.235
935.695
856.484
1013.74
960.691
812.552
958.146
814.493
963.802
819.378
966.216
817.14
951.375
809.632
954.624
806.561
947.252
800.026
802.89
943.834
873.649
704.101
861.521
719.395
884.893
744.662
892.883
733.672
819.009
684.805
842.504
660.552
783.455
599.091
627.836
763.073
1012.2
854.792
859.007
1008.57
1015.02
862.706
1014.95
862.605
970.697
821.429
968.847
822.644
929.444
781.704
786.261
924.876
934.896
795.986
939.21
791.626
913.507
775.886
919.001
769.467
906.615
753.836
900.6
761.423
641.038
748.514
618.955
603.377
758.99
609.711
635.92
646.148
621.144
777.597
625.429
766.126
651.254
614.47
661.633
641.868
789.944
632.197
659.871
625.296
639.829
783.935
789.989
630.587
655.684
626.937
741.615
600.485
598.634
733.534
631.1
594.232
624.206
589.278
729.357
597.222
730.524
621.975
591.47
618.431
735.281
594.4
585.881
732.6
586.811
617.579
619.091
587.598
594.104
729.315
730.997
587.094
620.028
606.527
723.484
586.575
573.702
725.748
575.83
604.88
608.142
579.177
730.909
588.543
727.596
609.908
577.041
615.161
735.77
585.178
594.877
616.344
735.7
584.115
613.777
580.748
593.574
733.211
734.947
583.047
611.83
564.653
684.15
549.608
534.392
684.798
536.108
563.409
565.881
538.043
686.993
550.697
685.684
566.9
536.841
570.808
692.098
555.079
542.602
690.673
541.578
571.787
569.671
539.092
553.865
688.427
689.476
540.72
568.356
573.722
693.159
557.368
543.394
693.331
572.945
544.562
574.504
545.728
558.013
694.715
693.834
544.984
575.132
560.171
682.625
546.059
533.162
680.717
561.691
531.54
558.439
527.848
677.426
544.282
679.081
556.424
530.213
550.329
670.55
537.522
520.033
671.945
522.704
548.195
552.406
526.155
539.348
675.384
673.406
524.128
554.19
525.204
648.472
516.91
494.392
651.342
499.231
521.019
529.086
505.996
657.349
520.347
653.957
532.65
502.256
542.846
668.387
517.958
531.741
545.457
665.666
515.206
539.863
509.03
528.902
660.411
663.235
512.836
536.426
370.462
533.772
400.366
336.348
545.056
354.619
352.332
387.748
385.462
567.333
413.897
555.568
404.148
369.186
445.709
602.737
456.634
434.388
594.832
423.526
456.601
433.506
398.717
446.477
577.4
587.32
412.955
419.423
511.009
644.924
490.352
506.228
516.048
640.506
485.074
505.325
473.281
501.084
631.376
636.497
480.247
498.737
475.711
608.818
477.735
442.974
614.771
466.685
452.432
483.903
467.106
484.693
626.145
619.843
459.32
491.517
314.508
521.538
364.765
321.073
509.841
332.725
303.061
294.868
272.632
482.905
349.777
495.889
277.651
289.656
241.645
434.3
315.704
258.327
437.122
256.304
242.311
249.87
264.292
324.161
464.433
454.15
254.811
259.8
252.749
418.811
267.148
337.644
241.929
426.3
276.062
262.46
264.391
338.556
418.229
420.011
278.279
261.428
)
;

boundaryField
{
    left
    {
        type            calculated;
        value           nonuniform List<scalar> 0();
    }
    bottom
    {
        type            calculated;
        value           nonuniform List<scalar> 
243
(
1021.5
1004
968.574
963.448
924.409
916.206
834.53
814.251
989.182
982.064
949.288
943.813
885.014
872.829
1167.07
1162.99
1029.58
996.539
1150.87
1152.54
1137.16
1141.16
973.357
958.851
1128.58
1132.48
1096.3
1103.28
931.63
906.94
1079.55
1088.47
1016.32
1026.95
848.219
778.137
1003.01
1006.02
1086.01
1152.43
1155.24
994.637
1092.27
1094.78
1085.4
1091.41
1090.66
1087.93
1093.28
1091.82
977.203
1143.19
1146.22
1119.95
1124.68
954.323
1079.99
1074.96
1086.08
1081.98
1063.07
1054.62
1072.5
1066.05
938.003
1109.3
1114.78
1058.85
1069.78
896.519
1034.71
1021.15
1050.69
1039.69
996.106
988.313
1015.32
1001.48
860.448
1036.65
1047.92
1075.17
1131.61
986.662
1043.17
1307.53
1077.77
1082.05
1094.94
1094.45
1087.48
1087.87
1090.26
1088.76
1092.89
1091.62
1078.57
1076.41
1084.84
1082.93
1060.6
1057.17
1070.63
1067.93
1030.71
1025.14
1047.51
1043.02
993.536
988.618
1011.16
1005.1
1810.57
1492.24
1276.74
1864.75
994.149
1008.26
970.558
1129.38
1278
906.461
814.394
1108.48
939.961
1375.4
1383.51
1398.7
1402.21
1388.9
1394.41
1423.77
1425.19
1419.39
1421.17
1427.1
1427.44
1426.05
1426.44
1408.6
1410.44
1403.9
1405.61
1415.73
1418.2
1411.56
1413.56
1426.18
1426
1426.26
1425.75
1424.11
1423.5
1425.44
1424.59
1427.32
1427.45
1427.17
1426.82
1426.59
1426.55
1426.96
1426.55
1414.56
1413.7
1416.1
1414.92
1410.18
1409.09
1412.62
1411.15
1421.41
1420.78
1422.63
1421.62
1417.94
1417.1
1419.84
1418.65
1393.79
1392.23
1396.72
1394.9
1386.48
1384.6
1390.41
1388.14
1405.57
1404.34
1407.7
1406.29
1399.91
1398.44
1403.01
1401.14
1359.02
1356.55
1363.73
1361.04
1348.22
1345.73
1353.58
1350.65
1378.42
1376.35
1382.25
1380.01
1369.08
1366.7
1373.92
1371.19
1323.41
1323.55
1325.09
1324.08
1323.85
1326.68
1322.19
1323.2
1337.75
1335.74
1342.48
1339.83
1328.84
1327.51
1332.79
1330.67
1774.19
1653.94
1417.71
1310.23
1442.49
1442.26
1987.53
1798.97
1337.23
1344.43
1327.53
1332.07
1382.69
1396.13
1355.3
1364.91
)
;
    }
    interface
    {
        type            calculated;
        value           nonuniform List<scalar> 
1703
(
182.161
165.741
180.041
150.187
147.468
144.468
146.851
137.429
132.995
123.476
131.845
62.2726
123.108
503.761
152.779
163.353
156.281
151.039
155.291
143.898
141.709
138.196
141.099
121.452
103.838
66.4048
99.9987
580.409
925.119
949.382
195.572
190.683
170.882
173.98
149.055
148.385
145.275
145.891
135.906
134.977
127.498
129.02
62.7072
70.3893
318.436
266.319
159.884
158.435
152.474
153.464
143.094
142.528
139.365
140.062
115.483
112.644
82.2029
87.4911
726.177
927.563
592.638
963.5
1294.24
1045.34
1036.07
961.131
728.762
704.44
541.754
1014.79
364.721
273.038
1285.59
1017.09
982.552
204.386
184.256
166.547
177.045
148.968
147.144
144.088
145.779
136.207
133.153
124.444
130.236
59.4988
100.407
435.297
186.038
161.068
156.366
292.087
283.538
150.821
153.86
276.992
282.166
142.872
141.379
267.782
264.976
152.213
150.923
138.007
140.029
149.188
150.435
144.46
146.615
118.919
106.649
239.446
217.981
144.334
142.82
71.4248
95.5376
163.249
247.563
650.514
415.181
748.713
872.525
910.379
718.916
827.925
895.993
802.848
199.422
185.72
168.257
175.357
148.716
147.232
144.188
145.515
135.802
133.579
125.514
129.447
58.7974
85.0365
376.486
221.858
174.673
211.599
220.787
348.593
141.509
140.498
546.905
348.912
140.698
545.782
208.25
230.007
227.606
340.293
340.887
537.402
518.811
512.496
562.92
605.468
616.418
614.5
321.559
545.262
499.401
510.192
558.471
506.74
155.005
205.014
229.971
223.949
352.66
144.798
551.827
352.518
552.541
225.843
204.101
220.947
352.107
551.051
351.294
551.203
521.91
478.087
480.05
300.068
483.039
525.131
596.538
599.517
594.236
584.095
302.628
538.533
495.18
486.108
526.878
488.743
160.182
156.657
521.32
476.521
475.122
288.089
471.956
516.836
571.782
570.529
572.783
578.768
511.009
466.801
468.387
470.638
514.884
209.53
232.973
231.3
353.464
551.557
353.222
161.944
156.563
551.555
234.852
230.834
210.433
352.316
550.228
352.019
550.867
151.132
153.381
153.253
207.713
234.69
231.191
350.624
160.404
546.436
350.233
546.736
234.154
229.959
208.89
351.314
547.797
351.049
548.035
502.309
458.116
457.686
274.509
455.98
499.763
556.981
556.365
675.963
509.99
511.025
674.987
680.9
514.97
514.564
681.489
560.697
273.541
497.408
453.487
455.22
498.759
454.802
278.484