/*--------------------------------*- C++ -*----------------------------------*\
| =========                 |                                                 |
| \\      /  F ield         | OpenFOAM: The Open Source CFD Toolbox           |
|  \\    /   O peration     | Version:  2012                                  |
|   \\  /    A nd           | Website:  www.openfoam.com                      |
|    \\/     M anipulation  |                                                 |
\*---------------------------------------------------------------------------*/
FoamFile
{
    version     2.0;
    format      ascii;
    class       volVectorField;
    location    "0.107/solid";
    object      sigmaMinDir;
}
// * * * * * * * * * * * * * * * * * * * * * * * * * * * * * * * * * * * * * //

dimensions      [1 -1 -2 0 0 0 0];


internalField   nonuniform List<vector> 
3125
(
(0.188428 0.982012 -0.0121535)
(0.189307 0.981836 -0.0127062)
(0.194401 0.980893 -0.00759332)
(0.194306 0.980914 -0.00734751)
(0.190987 0.981557 -0.00830355)
(0.190048 0.981739 -0.00841293)
(0.187912 0.980592 0.0559253)
(0.19839 0.975462 0.0954784)
(0.193499 0.981049 -0.0100377)
(0.193875 0.980981 -0.00938496)
(0.193447 0.981084 -0.00718922)
(0.192998 0.981171 -0.00746521)
(0.186365 0.982474 -0.00363457)
(0.185085 0.98272 0.00216206)
(0.185656 0.982602 -0.00501171)
(0.420024 0.907488 -0.00671999)
(-0.0458324 0.998722 -0.0213189)
(0.274205 0.96167 -0.00178807)
(0.416179 0.90928 -0.002114)
(0.277721 0.960602 -0.010719)
(0.417787 0.908484 -0.0105139)
(-0.0494752 0.998648 -0.015978)
(0.191077 0.98152 -0.0104141)
(-0.0449157 0.99899 0.00141237)
(0.252254 0.96766 -0.0015573)
(0.420986 0.906997 -0.0112571)
(0.278492 0.960398 -0.0087962)
(0.194458 0.98088 -0.00773754)
(0.429006 0.903265 -0.00810626)
(0.276593 0.960919 -0.0114738)
(0.428725 0.903398 -0.00822536)
(0.276868 0.96084 -0.0114209)
(0.429217 0.903166 -0.00793685)
(0.194157 0.980946 -0.00699781)
(0.276014 0.961108 -0.00938434)
(0.429674 0.90295 -0.00784296)
(0.27291 0.961972 -0.0114309)
(0.191797 0.981402 -0.00803968)
(0.430692 0.902449 -0.00953452)
(0.271512 0.96232 -0.0149156)
(0.430611 0.902492 -0.0090676)
(0.269246 0.962965 -0.0143375)
(0.430856 0.90237 -0.00956832)
(0.188966 0.981951 -0.00796752)
(0.270262 0.962705 -0.012558)
(0.431055 0.902279 -0.00921454)
(0.266076 0.961069 0.074501)
(0.18469 0.982353 0.029548)
(0.44113 0.894083 0.0775873)
(0.161331 0.444561 0.881101)
(0.437595 0.89834 0.0386856)
(-0.0235948 -0.00905824 0.999681)
(0.445992 0.88264 0.148454)
(0.233985 0.955293 0.180738)
(0.120936 0.292106 0.948709)
(0.439969 0.84439 0.305668)
(0.579833 0.814735 6.07582e-05)
(-0.14245 0.989707 -0.0137167)
(0.578132 0.815888 -0.0094585)
(0.581119 0.813796 -0.00602764)
(-0.148162 0.988921 -0.00909208)
(-0.139383 0.990232 0.0035096)
(0.283088 0.959061 -0.00791888)
(0.192777 0.981194 -0.00978641)
(0.42639 0.904488 -0.00968356)
(0.276913 0.960834 -0.0108502)
(0.425372 0.904964 -0.00995552)
(-0.138588 0.990341 -0.00429002)
(-0.136349 0.99066 0.00135196)
(0.583405 0.812168 -0.00459907)
(0.582236 0.812915 -0.0130582)
(0.279069 0.960206 -0.0112036)
(0.194276 0.980912 -0.00822036)
(0.426453 0.904459 -0.00956104)
(0.273825 0.961736 -0.00911492)
(0.427613 0.903917 -0.00901537)
(0.585487 0.810674 -0.00365241)
(0.584795 0.811098 -0.0116314)
(-0.13761 0.990484 -0.00213939)
(-0.136938 0.990579 -0.000917259)
(-0.139383 0.990233 -0.00329647)
(-0.137422 0.990513 -0.000323327)
(0.583132 0.812287 -0.0120687)
(0.584528 0.811362 -0.00439947)
(0.585463 0.810622 -0.0111745)
(0.586319 0.810073 -0.0036199)
(-0.137732 0.990468 -0.00193862)
(-0.137483 0.990504 -0.00102429)
(0.276187 0.961061 -0.00913676)
(0.193857 0.981005 -0.00700884)
(0.430118 0.902737 -0.0080536)
(0.274766 0.961432 -0.0123548)
(0.430021 0.902786 -0.00770973)
(-0.138069 0.990421 -0.00159606)
(-0.13751 0.9905 -0.00128296)
(0.587031 0.809555 -0.00394874)
(0.586395 0.809948 -0.0112073)
(0.273445 0.961793 -0.0135318)
(0.192468 0.981273 -0.00768756)
(0.430259 0.902667 -0.00832089)
(0.274201 0.961617 -0.0102988)
(0.430445 0.902574 -0.00877337)
(0.588667 0.808357 -0.00548728)
(0.587879 0.80885 -0.0126017)
(-0.13975 0.990185 -0.00164017)
(-0.138845 0.990313 -0.00161697)
(-0.138194 0.990404 -0.001679)
(-0.138618 0.990345 -0.00142593)
(0.587048 0.809467 -0.0117407)
(0.587822 0.808976 -0.00474265)
(0.58871 0.808235 -0.0132583)
(0.589624 0.807663 -0.00480889)
(-0.140075 0.990139 -0.00177346)
(0.267436 0.96351 -0.0112733)
(0.187719 0.9822 -0.00666107)
(0.431968 0.90188 -0.00408044)
(0.266478 0.96383 -0.00455243)
(0.43144 0.90211 -0.00755177)
(0.590563 0.80699 0.00156524)
(0.589708 0.80753 -0.0118263)
(0.267662 0.962087 0.0524099)
(0.184284 0.982793 0.0125447)
(0.433075 0.901352 0.00309071)
(0.26424 0.964456 0.00128511)
(0.434742 0.900414 0.0159401)
(0.583691 0.805654 0.101124)
(0.590522 0.806524 0.0283403)
(0.590672 0.806906 -0.00289303)
(0.590675 0.806516 0.025206)
(0.57866 0.805007 0.13083)
(0.493777 0.777164 0.390129)
(-0.0439196 -0.0292583 0.998607)
(0.461494 0.737609 0.492905)
(0.432838 0.739487 0.515568)
(0.399795 0.916446 0.0170377)
(0.428177 0.642299 0.635702)
(0.225665 0.974125 -0.0125225)
(0.326868 0.945054 0.00557707)
(0.353344 0.93549 -0.00252459)
(0.116263 0.993218 4.59e-05)
(0.223393 0.97472 0.0039608)
(0.28886 0.957314 0.0105095)
(0.346367 0.937984 -0.0146828)
(0.0979932 0.995124 -0.0112307)
(0.219122 0.97544 -0.022407)
(0.352071 0.935954 0.00609024)
(0.10797 0.994145 -0.00417063)
(0.217734 0.976006 0.00206147)
(0.101035 0.994879 -0.00282221)
(0.274647 0.961465 -0.0124153)
(0.346641 0.937876 -0.0151379)
(0.344463 0.938792 -0.00390576)
(0.0978999 0.995187 -0.00426066)
(0.220337 0.975267 -0.0174795)
(0.21586 0.976169 -0.0223394)
(0.257598 0.966146 -0.0143183)
(0.34306 0.939302 -0.00460525)
(0.0934686 0.995565 -0.0106628)
(0.215959 0.9764 -0.00230764)
(0.341134 0.939818 -0.0192347)
(0.0936426 0.995558 -0.00980244)
(0.223031 0.97465 -0.0177196)
(0.102545 0.994722 -0.00347124)
(0.281796 0.959412 -0.010979)
(0.350121 0.936704 -0.000824904)
(0.222992 0.974809 0.00469569)
(0.34939 0.936852 -0.0153024)
(0.102545 0.994713 -0.00545051)
(0.222799 0.974855 0.00424692)
(0.278889 0.960291 -0.00787051)
(0.349166 0.936923 -0.0160484)
(0.101413 0.994828 -0.00577912)
(0.222661 0.974728 -0.0181087)
(0.349497 0.936937 -0.00134127)
(0.102316 0.994744 -0.00401824)
(0.222715 0.974872 0.00475106)
(0.101557 0.994819 -0.00464875)
(0.280105 0.959927 -0.00900175)
(0.349301 0.936885 -0.0153314)
(0.349284 0.937016 -0.00118603)
(0.102273 0.99475 -0.00350213)
(0.222724 0.97473 -0.0171998)
(0.222719 0.974718 -0.0179011)
(0.279756 0.959993 -0.0122174)
(0.349434 0.936959 -0.00174578)
(0.101593 0.994814 -0.0047899)
(0.222548 0.974914 0.00391934)
(0.3488 0.937064 -0.0158177)
(0.102048 0.994762 -0.00581792)
(0.221265 0.975029 -0.0189677)
(0.0995942 0.995016 -0.00490749)
(0.276287 0.960966 -0.0144675)
(0.349022 0.93711 -0.00282135)
(0.221364 0.975185 0.00343708)
(0.348162 0.937271 -0.0175053)
(0.0995808 0.995008 -0.00656523)
(0.220951 0.97528 0.00313849)
(0.274146 0.961621 -0.01134)
(0.348088 0.937287 -0.0181003)
(0.0984065 0.995126 -0.00628624)
(0.220733 0.975145 -0.0192138)
(0.348427 0.93733 -0.00335022)
(0.0994644 0.995029 -0.00483327)
(0.21996 0.975505 0.002849)
(0.0969243 0.995272 -0.00628666)
(0.271367 0.962406 -0.011621)
(0.347683 0.937441 -0.0179342)
(0.348106 0.937448 -0.00356373)
(0.0980372 0.995169 -0.00516727)
(0.219758 0.975366 -0.0191996)
(0.220306 0.975233 -0.0196478)
(0.27415 0.961569 -0.0150482)
(0.348633 0.937252 -0.0038)
(0.0982099 0.99515 -0.00557711)
(0.220403 0.975405 0.00264134)
(0.347678 0.937435 -0.0183304)
(0.0981291 0.995148 -0.00713264)
(0.224633 0.974273 0.0182073)
(0.0993365 0.994944 0.01477)
(0.276351 0.939728 0.20135)
(0.354793 0.933921 0.0437352)
(0.222529 0.974381 0.0325987)
(0.355114 0.933803 0.0436582)
(0.10195 0.994587 0.0200642)
(0.227466 0.972123 0.0568895)
(0.26645 0.915576 0.301205)
(0.359657 0.927349 0.1033)
(0.110097 0.992986 0.0430925)
(0.231544 0.971681 0.0471466)
(0.359129 0.928989 0.089479)
(0.106094 0.993846 0.0318377)
(0.25912 0.957787 0.1245)
(0.183126 0.934511 -0.305213)
(0.0278553 0.0769055 0.996649)
(0.11731 0.39819 0.909771)
(0.326788 0.799027 0.504744)
(0.142106 0.989833 -0.00604121)
(0.294669 0.954932 0.0357016)
(0.246431 0.965879 0.0796831)
(0.0427773 0.116928 0.992219)
(0.366454 0.912644 0.181086)
(0.116208 0.99183 0.0526283)
(0.237273 0.967089 0.0918712)
(0.360685 0.899929 0.245021)
(0.124126 0.991128 0.0475267)
(0.407528 0.913188 -0.00309602)
(0.521838 0.852971 -0.0111849)
(0.580865 0.813984 -0.00515803)
(0.524483 0.851416 0.00283933)
(0.400094 0.916291 -0.0183322)
(0.406861 0.913299 0.0186846)
(0.580956 0.813921 0.00470779)
(0.526916 0.849879 0.00805818)
(-0.200815 0.979605 -0.00688412)
(-0.133118 0.99101 -0.0133528)
(-0.00133347 0.999847 -0.0174431)
(0.0135385 0.999902 -0.00361227)
(-0.123704 0.992299 -0.00630199)
(0.0182986 0.999793 -0.00889482)
(-0.22395 0.974505 -0.0136729)
(-0.213397 0.976931 0.00820994)
(0.401721 0.91538 -0.026449)
(0.396593 0.917983 -0.00458548)
(0.515864 0.856592 -0.0115952)
(0.578107 0.815948 -0.00463829)
(0.515599 0.856607 -0.0195324)
(0.397355 0.917657 0.00377315)
(0.394543 0.918439 -0.0283996)
(0.520029 0.853933 -0.019204)
(0.578952 0.815257 -0.0130727)
(0.516186 0.856343 -0.0151055)
(-0.216412 0.976275 -0.0073436)
(-0.221019 0.975254 0.00547097)
(-0.148419 0.988923 -0.001961)
(-0.00216976 0.999972 -0.00716733)
(-0.00017966 0.999972 -0.00750564)
(0.00782251 0.999967 -0.00221111)
(-0.144182 0.989546 0.00331374)
(0.00277228 0.999987 0.00416584)
(-0.229158 0.973388 0.00158333)
(-0.222697 0.974818 -0.0116542)
(0.222827 0.974691 -0.0180701)
(0.103358 0.994642 -0.00190444)
(0.287847 0.957645 -0.00779559)
(0.350113 0.936707 -0.000111438)
(0.222177 0.974994 0.00492143)
(0.103607 0.994607 -0.00481464)
(0.34964 0.93677 -0.0146029)
(0.222473 0.974934 0.00297026)
(0.278677 0.960372 -0.00490263)
(0.100796 0.994879 -0.00753222)
(0.348563 0.937125 -0.017331)
(0.102623 0.994709 -0.00468153)
(0.349708 0.936857 -0.00158701)
(0.221943 0.974853 -0.0200785)
(-0.216956 0.976149 0.00799024)
(-0.214333 0.976714 -0.00954665)
(-0.136918 0.990574 -0.00396871)
(0.00521812 0.999939 -0.00977176)
(0.00802841 0.999968 0.000669451)
(0.00886481 0.999944 0.00574238)
(-0.135703 0.990747 -0.0022932)
(0.00853273 0.999934 -0.00767553)
(-0.218647 0.975738 -0.0113612)
(-0.21747 0.976046 0.00648397)
(0.404073 0.914727 -0.000380959)
(0.403818 0.914525 -0.0239683)
(0.522234 0.852542 -0.0210767)
(0.583179 0.812251 -0.0122582)
(0.521804 0.852929 -0.0152492)
(0.402809 0.914882 -0.0271226)
(0.403434 0.915008 0.00089025)
(0.521555 0.853111 -0.0135155)
(0.583295 0.812246 -0.00484919)
(0.523312 0.851938 -0.0186153)
(0.222363 0.974956 0.00384978)
(0.281564 0.959489 -0.0101119)
(0.102396 0.994734 -0.00440898)
(0.349197 0.936922 -0.0154694)
(0.222819 0.974703 -0.0174958)
(0.102533 0.994722 -0.00386666)
(0.348808 0.937192 -0.00212398)
(0.221953 0.974864 -0.0193943)
(0.278372 0.960381 -0.0133021)
(0.100805 0.994885 -0.00649274)
(0.348454 0.937319 -0.00346899)
(0.221604 0.975135 0.00183469)
(0.10154 0.994807 -0.00691657)
(0.3477 0.937448 -0.017213)
(0.404196 0.914672 -9.46855e-05)
(0.40317 0.914771 -0.0254323)
(0.523197 0.851984 -0.0197014)
(0.58509 0.810889 -0.0113364)
(0.522236 0.852673 -0.014799)
(0.403576 0.914558 -0.0266598)
(0.402911 0.915239 8.9951e-05)
(0.522505 0.852514 -0.0144484)
(0.585117 0.81094 -0.0036995)
(0.523124 0.852045 -0.0190073)
(-0.217899 0.975947 0.00693673)
(-0.215932 0.976356 -0.010079)
(-0.13719 0.990543 -0.00196668)
(0.00663425 0.999948 -0.00776113)
(0.00782986 0.999968 0.00171036)
(0.0080561 0.999963 0.00293874)
(-0.136875 0.990586 -0.00199284)
(0.0079109 0.99994 -0.00755697)
(-0.218173 0.975856 -0.0103219)
(-0.21735 0.976072 0.00648674)
(-0.216679 0.976202 -0.00893895)
(-0.216647 0.976228 0.0064823)
(0.00562324 0.999984 -0.000450024)
(-0.139146 0.99027 -0.00184616)
(0.00677395 0.999949 -0.00745378)
(-0.220049 0.975478 0.00465017)
(-0.216201 0.97629 -0.0106977)
(0.00793388 0.999952 -0.00572192)
(-0.138212 0.990403 -0.000200213)
(0.00759294 0.999967 0.00277771)
(0.403716 0.914495 -0.0267)
(0.401533 0.915842 -0.0022498)
(0.520573 0.85366 -0.0163784)
(0.583376 0.812189 -0.00464484)
(0.521079 0.853252 -0.0209404)
(0.402256 0.915526 -0.00142287)
(0.401055 0.915637 -0.0276413)
(0.522635 0.852324 -0.0199235)
(0.583625 0.811932 -0.0122091)
(0.52081 0.853525 -0.0158838)
(0.403954 0.914393 -0.0265797)
(0.402491 0.915424 -0.000496272)
(0.522437 0.852552 -0.0146833)
(0.585652 0.810555 -0.00353988)
(0.52295 0.852145 -0.0192899)
(0.403432 0.91501 -0.000160896)
(0.402439 0.91507 -0.0262519)
(0.52384 0.851594 -0.019498)
(0.585734 0.810425 -0.0113104)
(0.522494 0.852514 -0.0148233)
(-0.218276 0.975843 -0.00932329)
(-0.217225 0.976098 0.00682881)
(-0.137609 0.990485 -0.00169006)
(0.00690733 0.999975 0.00129355)
(0.00741334 0.999946 -0.00728626)
(0.00698897 0.999955 -0.00645537)
(-0.137441 0.99051 -0.000869279)
(0.00770573 0.999967 0.00255712)
(-0.219158 0.975672 0.00580769)
(-0.216333 0.976265 -0.0103106)
(0.222527 0.974768 -0.0175981)
(0.101455 0.994833 -0.00382326)
(0.27923 0.960149 -0.0120242)
(0.349717 0.936855 -0.000989714)
(0.222583 0.974902 0.00476126)
(0.101502 0.99482 -0.00553644)
(0.34896 0.937009 -0.0155619)
(0.222296 0.974969 0.00446751)
(0.277603 0.960654 -0.00892259)
(0.100517 0.994921 -0.00543225)
(0.348906 0.937018 -0.0161884)
(0.101402 0.994838 -0.00386506)
(0.349111 0.93708 -0.00151093)
(0.222147 0.974849 -0.0178802)
(-0.219399 0.975613 0.00664692)
(-0.217409 0.976028 -0.0101541)
(-0.137786 0.990461 -0.0014152)
(0.00587204 0.999956 -0.00728259)
(0.00692924 0.999974 0.00204631)
(0.00700252 0.999973 0.00234509)
(-0.137592 0.990487 -0.00178417)
(0.00695323 0.999948 -0.00745129)
(-0.219562 0.975548 -0.00992088)
(-0.218548 0.975804 0.00663784)
(0.404046 0.914739 0.000200145)
(0.402936 0.914852 -0.0262489)
(0.524298 0.851281 -0.0207896)
(0.586571 0.809817 -0.011478)
(0.52313 0.852111 -0.0155735)
(0.403749 0.914448 -0.0277603)
(0.402718 0.915324 -0.000488675)
(0.523393 0.851967 -0.0145709)
(0.586578 0.809885 -0.00353087)
(0.523848 0.851588 -0.0195102)
(0.221755 0.975095 0.00392225)
(0.276638 0.96092 -0.0102544)
(0.0997697 0.994995 -0.00561043)
(0.348615 0.937113 -0.0169588)
(0.221621 0.97496 -0.0183404)
(0.100671 0.994911 -0.00421075)
(0.348791 0.937197 -0.00234696)
(0.221953 0.974885 -0.0183142)
(0.277708 0.960572 -0.0134048)
(0.100486 0.994928 -0.00467349)
(0.349235 0.937033 -0.00205793)
(0.221944 0.975052 0.00391985)
(0.100672 0.994901 -0.00612729)
(0.348489 0.937166 -0.0165772)
(0.40382 0.914835 -0.00237919)
(0.402807 0.91481 -0.0294701)
(0.525639 0.850344 -0.0248757)
(0.588096 0.808685 -0.0131006)
(0.524165 0.851391 -0.019603)
(0.403772 0.914331 -0.0310905)
(0.402563 0.915386 -0.00330536)
(0.524336 0.851316 -0.0182583)
(0.588109 0.808766 -0.00500841)
(0.524992 0.850783 -0.0234762)
(-0.222081 0.975008 0.00626161)
(-0.219818 0.975484 -0.0105374)
(-0.139332 0.990245 -0.00152608)
(0.00353421 0.999964 -0.00769293)
(0.00491147 0.999987 0.00154811)
(0.00513977 0.999985 0.00166165)
(-0.139043 0.990284 -0.00199169)
(0.00490547 0.999956 -0.00804806)
(-0.222262 0.974935 -0.0100459)
(-0.221384 0.975166 0.00640988)
(-0.220525 0.975332 -0.00981322)
(-0.219563 0.975576 0.00659206)
(0.0059893 0.999981 0.00162514)
(-0.138241 0.990397 -0.00183725)
(0.00607494 0.999952 -0.00766369)
(-0.220785 0.975303 0.00613997)
(-0.218307 0.975825 -0.0104078)
(0.0051335 0.999961 -0.00719704)
(-0.138341 0.990384 -0.00127358)
(0.00622716 0.999979 0.00200223)
(0.403815 0.914369 -0.0293733)
(0.402547 0.915397 -0.00194439)
(0.52368 0.851761 -0.0161992)
(0.587254 0.809392 -0.00420422)
(0.524251 0.851296 -0.0213495)
(0.403698 0.914892 -0.000986046)
(0.40269 0.914912 -0.0278842)
(0.524936 0.850837 -0.0227758)
(0.587274 0.809295 -0.0122722)
(0.523573 0.851801 -0.0174656)
(0.404106 0.914217 -0.0300813)
(0.402715 0.915319 -0.00336296)
(0.524935 0.850908 -0.0199811)
(0.589013 0.808106 -0.00534426)
(0.525818 0.850242 -0.0245673)
(0.403822 0.91483 -0.00370628)
(0.402936 0.914728 -0.0302501)
(0.526542 0.849823 -0.0235443)
(0.588988 0.808036 -0.0130907)
(0.52489 0.850943 -0.0196452)
(-0.22411 0.974513 -0.0099976)
(-0.223589 0.974663 0.0063337)
(-0.140336 0.990102 -0.00207134)
(0.00358296 0.999993 0.00122972)
(0.00312671 0.999959 -0.00848751)
(0.00180674 0.999968 -0.00778233)
(-0.140609 0.990064 -0.0015486)
(0.00331588 0.999994 0.00123279)
(-0.2242 0.974524 0.00608194)
(-0.221618 0.975074 -0.0108001)
(0.219403 0.975461 -0.0183957)
(0.0967016 0.9953 -0.0052302)
(0.27193 0.962254 -0.0110083)
(0.34856 0.937283 -0.00258109)
(0.219437 0.975621 0.0033739)
(0.0965862 0.995304 -0.00640971)
(0.347557 0.937517 -0.0162927)
(0.219176 0.97567 0.00548909)
(0.267584 0.963514 -0.00632821)
(0.0957446 0.995399 -0.00370259)
(0.347935 0.93744 -0.0121815)
(0.0966557 0.995311 -0.003666)
(0.348326 0.937373 0.000592258)
(0.21917 0.975565 -0.0154318)
(-0.226614 0.973964 0.00642682)
(-0.223652 0.974611 -0.0106696)
(-0.000373159 0.999978 -0.00666424)
(0.00130942 0.999998 0.00152405)
(0.00187495 0.999997 0.00132026)
(0.00109347 0.999963 -0.00852671)
(-0.225704 0.974153 -0.00912276)
(-0.226063 0.974088 0.00694907)
(0.404383 0.914588 -0.0015153)
(0.403777 0.914518 -0.0249108)
(0.527574 0.849475 -0.00759561)
(0.589977 0.807371 -0.00890252)
(0.526059 0.850399 -0.0091129)
(0.405421 0.913965 -0.0173985)
(0.403711 0.914878 0.00406551)
(0.525896 0.850388 -0.0165467)
(0.590037 0.807372 -0.00260858)
(0.526893 0.849738 -0.0181424)
(0.22018 0.975293 0.0180036)
(0.265305 0.963857 0.0243573)
(0.0978081 0.995173 0.00798817)
(0.351045 0.936269 0.0129374)
(0.221134 0.975243 0.000596145)
(0.0974759 0.995227 0.00455635)
(0.350819 0.936228 0.0200633)
(0.219661 0.975523 -0.010205)
(0.271066 0.962462 0.013818)
(0.0958742 0.995393 -0.00122044)
(0.349632 0.936862 0.00687773)
(0.219191 0.975635 0.00962097)
(0.0964185 0.995341 -0.000833396)
(0.34901 0.937111 -0.0037157)
(0.411698 0.90766 0.0815994)
(0.41004 0.904253 0.119141)
(0.486038 0.812164 0.322733)
(0.587586 0.806593 0.0644236)
(0.511369 0.829344 0.225145)
(0.397348 0.869223 0.294222)
(0.410574 0.894334 0.177752)
(0.526184 0.844322 0.101244)
(0.589388 0.80614 0.0525397)
(0.519294 0.841509 0.148982)
(-0.227249 0.973713 0.0155229)
(-0.219899 0.975521 -0.00186294)
(0.0141464 0.99985 0.0100018)
(0.0080527 0.999849 0.0153924)
(0.00215606 0.999944 0.010392)
(0.00469938 0.999988 0.00161032)
(-0.212799 0.977059 0.00855123)
(-0.221931 0.974812 0.0221045)
(-0.223973 0.974583 -0.00489717)
(-0.226667 0.97392 0.0100811)
(0.000149135 0.999995 0.00314097)
(0.000188848 0.99998 -0.00637219)
(-0.228706 0.97346 0.00827712)
(-0.22423 0.974494 -0.00909844)
(0.000717439 0.999999 -0.00141301)
(0.00135286 0.999988 0.00469867)
(0.409265 0.911615 0.0382181)
(0.40707 0.912583 0.038557)
(0.527426 0.849572 0.00700034)
(0.590865 0.806706 0.0101971)
(0.527842 0.849193 0.0159735)
(0.406358 0.913596 0.0146485)
(0.406495 0.913647 0.00319427)
(0.526598 0.84799 0.0600586)
(0.590634 0.806896 0.00837398)
(0.527293 0.848779 0.0392031)
(0.10994 0.319833 0.941074)
(0.25616 0.571341 0.779713)
(0.452655 0.764192 0.459471)
(0.565801 0.800924 0.195934)
(0.376707 0.696965 0.61019)
(0.3937 0.833997 0.386586)
(0.281905 0.652385 0.703508)
(0.202971 0.521432 0.828801)
(0.545058 0.795925 0.263469)
(0.296119 0.601152 0.742246)
(-0.126376 -0.693723 0.709068)
(-0.204904 0.978771 -0.00466187)
(0.0196039 0.999523 0.0238593)
(0.0392362 0.998873 -0.0266997)
(0.146007 0.945475 -0.291135)
(0.0557285 0.997698 -0.0386459)
(-0.218016 0.975211 0.0378442)
(-0.198829 0.9799 -0.0162106)
(0.371696 0.835243 -0.405231)
(-0.211317 -0.621742 0.754176)
(-0.0737613 -0.0567948 0.995657)
(-0.00652003 0.148081 0.988954)
(0.333368 0.942379 0.028076)
(-0.211325 -0.561059 0.800347)
(-0.0655333 -0.0227407 0.997591)
(0.341061 0.935633 -0.0909265)
(0.191951 0.936925 -0.292106)
(0.450939 0.891862 0.0351568)
(0.385747 0.5078 0.770285)
(0.128735 0.204979 0.970263)
(0.405908 0.600588 0.688863)
(0.393655 0.913092 -0.106295)
(-0.0497573 -0.062236 0.99682)
(0.174373 0.848383 -0.49984)
(-0.0474549 -0.0504366 0.997599)
(-0.182689 -0.593951 0.783484)
(-0.193469 -0.523683 0.829654)
(0.226318 0.927626 -0.297137)
(0.194691 0.913141 -0.358147)
(0.234086 0.882867 -0.407124)
(-0.0909695 -0.551567 0.829155)
(0.097126 0.274932 0.956545)
(-0.0270379 0.0656931 0.997473)
(0.360843 0.483654 0.797415)
(0.0384721 0.120007 0.992027)
(-0.0331347 0.00860891 0.999414)
(0.154341 0.436394 0.886419)
(0.37761 0.633184 0.675639)
(0.0967036 0.28616 0.95329)
(0.337074 0.941245 -0.0209624)
(0.330713 0.94373 -0.00138945)
(0.288212 0.957547 -0.0062259)
(0.27267 0.962057 -0.00983254)
(0.31829 0.94787 0.0153104)
(0.282509 0.959251 -0.00517409)
(0.267619 0.963428 -0.013678)
(0.24708 0.968875 -0.0152321)
(0.313872 0.948881 -0.0333043)
(0.271478 0.96244 0.00311872)
(0.25142 0.967864 0.00520525)
(0.317317 0.948122 0.0193526)
(0.253135 0.967315 -0.0150044)
(0.279695 0.960042 -0.00943926)
(0.272478 0.961955 -0.0199657)
(0.271779 0.96236 8.98945e-06)
(0.252773 0.967492 0.00802888)
(0.317397 0.94788 -0.0279851)
(0.308383 0.950515 -0.0376827)
(0.259522 0.965684 -0.0101158)
(0.268708 0.963205 0.00559405)
(0.247495 0.968875 0.00530861)
(0.309265 0.950903 0.011805)
(0.26423 0.964232 -0.0209324)
(0.243249 0.969727 -0.0214256)
(0.319875 0.946876 -0.0332483)
(0.254295 0.967105 0.00648766)
(0.284215 0.958703 -0.0105325)
(0.275328 0.961345 0.00312821)
(0.318995 0.947563 0.0191451)
(0.274512 0.961373 -0.0201129)
(0.253338 0.96719 -0.0190698)
(0.108065 0.994134 -0.00444645)
(0.0143054 0.999886 -0.00490378)
(0.107825 0.994137 -0.00804124)
(0.0147022 0.999883 -0.0041765)
(0.108188 0.9941 -0.00773405)
(0.014953 0.999883 -0.00313977)
(0.10829 0.994112 -0.00389032)
(0.0149614 0.999878 -0.00451223)
(0.318652 0.947691 0.0185271)
(0.281663 0.959451 -0.010943)
(0.273694 0.961556 -0.0223772)
(0.252317 0.967472 -0.0182632)
(0.317762 0.947624 -0.0321943)
(0.273021 0.962008 -0.000793034)
(0.252428 0.967596 0.00622519)
(0.319067 0.947527 0.0197043)
(0.252268 0.967497 -0.0175898)
(0.282207 0.959291 -0.0109384)
(0.273626 0.961584 -0.0220346)
(0.273102 0.961985 -0.000282736)
(0.252291 0.967627 0.00683605)
(0.318041 0.947566 -0.0311103)
(0.107747 0.994149 -0.00766608)
(0.0142774 0.999888 -0.00446381)
(0.107793 0.994163 -0.00453667)
(0.0144992 0.999885 -0.0045201)
(0.107764 0.99417 -0.00373204)
(0.0142873 0.999892 -0.00351375)
(0.014549 0.999889 -0.00314404)
(0.107612 0.994168 -0.00702532)
(0.319005 0.947125 -0.034492)
(0.282378 0.959238 -0.0111837)
(0.274304 0.961641 0.00210314)
(0.253068 0.967435 0.00521297)
(0.31786 0.947978 0.0173739)
(0.273668 0.961593 -0.0210767)
(0.252316 0.967437 -0.0200792)
(0.31768 0.947519 -0.0358768)
(0.250275 0.968163 0.00477012)
(0.278398 0.960372 -0.0133815)
(0.272148 0.962255 0.000768273)
(0.316758 0.948347 0.0173874)
(0.271446 0.962175 -0.0231415)
(0.249294 0.968193 -0.0213481)
(0.316746 0.948348 0.0175282)
(0.276059 0.961035 -0.0142787)
(0.270282 0.962443 -0.0255304)
(0.247932 0.968568 -0.020132)
(0.315778 0.948222 -0.0340378)
(0.26997 0.962863 -0.00325923)
(0.248547 0.968607 0.00503312)
(0.31585 0.948645 0.0176265)
(0.245703 0.969135 -0.0201586)
(0.27298 0.961917 -0.0140546)
(0.268588 0.962932 -0.0249634)
(0.268696 0.963222 -0.00258437)
(0.246809 0.969049 0.00534545)
(0.314909 0.948505 -0.0342218)
(0.316766 0.947772 -0.0372565)
(0.276046 0.961033 -0.0146473)
(0.27099 0.962582 -6.59055e-05)
(0.24873 0.968564 0.00423054)
(0.315829 0.948669 0.0166899)
(0.270016 0.962545 -0.02448)
(0.247357 0.968665 -0.0224122)
(0.32037 0.947265 -0.00717558)
(0.246519 0.96814 0.0439657)
(0.274265 0.956646 0.0980143)
(0.273969 0.958348 0.0806897)
(0.31885 0.946294 0.0535048)
(0.269026 0.961326 0.0589692)
(0.243256 0.969874 0.0130669)
(0.326294 0.938383 0.113889)
(0.215137 0.668585 0.711836)
(0.250275 0.861514 0.441765)
(0.251064 0.960167 0.122666)
(0.327727 0.943305 0.0526464)
(0.275221 0.894256 0.35293)
(0.254201 0.955687 0.148474)
(0.0278858 0.19495 0.980417)
(-0.0824605 -0.0925755 0.992285)
(-0.0103152 0.0178815 0.999787)
(-0.0159222 0.0362217 0.999217)
(0.0198771 0.0799671 0.996599)
(-0.0597029 -0.0284393 0.997811)
(-0.128309 -0.136015 0.982363)
(0.334853 0.940078 0.064243)
(0.0883672 0.198609 0.976087)
(0.238147 0.695847 0.677556)
(0.254235 0.926796 0.276431)
(0.329728 0.930554 0.159213)
(0.148238 0.499717 0.85341)
(0.243466 0.917594 0.314239)
(0.353227 0.93547 -0.0112217)
(0.333256 0.942435 -0.0275113)
(0.334007 0.942488 0.0124663)
(0.340969 0.939986 -0.0128775)
(0.308313 0.951223 -0.0108236)
(0.313383 0.949613 0.00510368)
(0.334215 0.941341 -0.0466579)
(0.328816 0.944392 0.00182127)
(0.324927 0.945534 0.0197073)
(0.320432 0.946572 -0.0363914)
(0.31168 0.950102 -0.012748)
(0.315361 0.948957 0.00537942)
(0.300423 0.953793 0.00496574)
(0.308144 0.951227 -0.0146824)
(0.321483 0.946389 -0.0315699)
(0.255572 0.966758 0.00793544)
(0.289076 0.957264 -0.0089518)
(0.275924 0.96117 0.00418901)
(0.320072 0.947164 0.0208604)
(0.255213 0.966736 -0.0169725)
(0.275575 0.961107 -0.0182052)
(0.318218 0.947873 0.0165661)
(0.281272 0.959568 -0.010736)
(0.251832 0.967593 -0.0185583)
(0.272934 0.961778 -0.0221401)
(0.252596 0.967557 0.00530747)
(0.272844 0.962057 -0.00147715)
(0.31712 0.947793 -0.0335208)
(0.312556 0.949885 0.00523099)
(0.317203 0.94826 -0.0136443)
(0.308788 0.95103 -0.0138459)
(0.312642 0.94986 0.00451481)
(0.337681 0.941204 0.0103589)
(0.33675 0.940727 -0.040395)
(0.334885 0.940977 -0.0491372)
(0.332625 0.943058 0.00113938)
(0.319592 0.947356 0.0194143)
(0.283963 0.958771 -0.0110926)
(0.253605 0.96716 -0.0169)
(0.274314 0.961399 -0.0215431)
(0.318619 0.947395 -0.0303944)
(0.253684 0.967263 0.00676996)
(0.27391 0.961755 -0.000648219)
(0.107483 0.994165 -0.00917148)
(0.0134632 0.999888 -0.00655275)
(0.107351 0.994199 -0.00668464)
(0.013948 0.999888 -0.00548322)
(0.317925 0.947437 -0.035867)
(0.281146 0.959592 -0.0118186)
(0.253204 0.967403 0.00432288)
(0.274173 0.961679 0.00138505)
(0.316834 0.94836 0.0151637)
(0.251924 0.967522 -0.0208434)
(0.273002 0.961762 -0.0220003)
(0.107872 0.994155 -0.00441327)
(0.0148462 0.999885 -0.00306675)
(0.108137 0.994109 -0.00732663)
(0.014569 0.999889 -0.00309388)
(0.33628 0.94171 0.00991741)
(0.333806 0.941571 -0.044919)
(0.334838 0.940816 -0.052428)
(0.332266 0.943185 0.00134717)
(0.309146 0.951003 0.00479352)
(0.314258 0.949226 -0.0145362)
(0.308134 0.951241 -0.0139062)
(0.312557 0.949887 0.00487583)
(0.309976 0.95065 -0.013391)
(0.31481 0.949142 0.00497682)
(0.307548 0.951525 0.00372947)
(0.314215 0.949228 -0.0153092)
(0.335508 0.940599 -0.0520461)
(0.332112 0.94324 0.000266701)
(0.333718 0.942624 0.00955918)
(0.330591 0.942692 -0.0451716)
(0.334804 0.940755 -0.053723)
(0.331897 0.943315 0.00135362)
(0.334905 0.942198 0.0100897)
(0.331986 0.942169 -0.0458505)
(0.307968 0.951299 -0.0136399)
(0.312908 0.94977 0.00512438)
(0.307775 0.95145 0.00417714)
(0.313517 0.949464 -0.014994)
(0.318974 0.94716 -0.0338187)
(0.252603 0.967551 0.00605314)
(0.281561 0.959481 -0.0109097)
(0.274029 0.961717 0.00281136)
(0.318088 0.947876 0.0187561)
(0.251775 0.967587 -0.0196333)
(0.27332 0.961702 -0.020633)
(0.107085 0.994242 -0.00405017)
(0.0134081 0.999901 -0.00433259)
(0.01382 0.999898 -0.00368418)
(0.106778 0.994254 -0.00761745)
(0.107259 0.994204 -0.00739998)
(0.0141033 0.999895 -0.00347457)
(0.1075 0.994198 -0.00376498)
(0.0140442 0.999892 -0.00435855)
(0.31817 0.947846 0.018893)
(0.280208 0.959868 -0.0117184)
(0.250952 0.967822 -0.0185374)
(0.272666 0.961831 -0.0231169)
(0.251048 0.967955 0.00622966)
(0.271981 0.962302 -0.00114413)
(0.317204 0.947808 -0.0322761)
(0.307458 0.951551 0.00460864)
(0.312531 0.949792 -0.0148141)
(0.306713 0.951696 -0.014211)
(0.311388 0.950271 0.00474933)
(0.335206 0.942089 0.0102781)
(0.332329 0.942013 -0.0465632)
(0.333943 0.940929 -0.0559922)
(0.3313 0.943526 7.45774e-05)
(0.317737 0.947999 0.018478)
(0.278993 0.960207 -0.0128789)
(0.249876 0.968089 -0.0191191)
(0.271796 0.962051 -0.0241848)
(0.316721 0.94795 -0.0328447)
(0.250037 0.968219 0.00578394)
(0.271164 0.962531 -0.00205679)
(0.106384 0.994294 -0.00792069)
(0.0132283 0.999904 -0.00422902)
(0.106628 0.994289 -0.00445816)
(0.0132318 0.999901 -0.00477414)
(0.318245 0.947361 -0.0350224)
(0.279998 0.959924 -0.012162)
(0.251442 0.967859 0.00514622)
(0.273037 0.962002 0.00160116)
(0.31724 0.948181 0.0176664)
(0.250549 0.967885 -0.0206141)
(0.272357 0.961945 -0.0219801)
(0.333759 0.942636 0.00646948)
(0.330835 0.942207 -0.0528624)
(0.33218 0.941075 -0.0635228)
(0.329345 0.9442 -0.00429719)
(0.30516 0.952294 0.00361806)
(0.310412 0.950466 -0.016061)
(0.304443 0.952405 -0.0154936)
(0.30856 0.951198 0.00370751)
(0.305767 0.951993 -0.0147257)
(0.310508 0.950561 0.00431821)
(0.306221 0.951952 0.00400261)
(0.31167 0.950064 -0.0154637)
(0.333243 0.94096 -0.0595233)
(0.330516 0.943798 -0.00209011)
(0.334288 0.942432 0.00853535)
(0.331353 0.942214 -0.049373)
(0.330926 0.94146 -0.0643477)
(0.327834 0.944734 -0.00178677)
(0.332702 0.943018 0.00512653)
(0.329837 0.942343 -0.0565395)
(0.302781 0.95293 -0.0157515)
(0.306384 0.951901 0.00369827)
(0.303355 0.952873 0.00307836)
(0.308868 0.950955 -0.0168677)
(0.315991 0.948028 -0.0373232)
(0.246894 0.969028 0.00525068)
(0.273392 0.961815 -0.0130065)
(0.269803 0.962913 0.00198077)
(0.315074 0.948902 0.0177211)
(0.245025 0.969263 -0.0221664)
(0.268409 0.96303 -0.0230091)
(0.315353 0.948718 0.0220655)
(0.268937 0.96314 -0.00590327)
(0.242915 0.969915 -0.0160385)
(0.266823 0.963613 -0.0160103)
(0.244768 0.969529 0.0100819)
(0.267762 0.963465 0.00628589)
(0.314492 0.948777 -0.0302718)
(0.301124 0.953579 0.00342903)
(0.30677 0.951633 -0.0169601)
(0.300259 0.953763 -0.0134728)
(0.303024 0.952962 0.00638942)
(0.331582 0.943358 0.0113183)
(0.328943 0.942764 -0.0547138)
(0.329649 0.943001 -0.0456179)
(0.325986 0.945067 0.0241228)
(0.317626 0.947279 0.0421554)
(0.267393 0.962713 0.0410382)
(0.242497 0.97014 0.00477873)
(0.267598 0.963087 0.0292221)
(0.317155 0.948304 -0.0115103)
(0.245176 0.968937 0.0324102)
(0.270431 0.961456 0.0496841)
(0.316103 0.948195 -0.0317211)
(0.270888 0.962608 0.00237763)