/*--------------------------------*- C++ -*----------------------------------*\
| =========                 |                                                 |
| \\      /  F ield         | OpenFOAM: The Open Source CFD Toolbox           |
|  \\    /   O peration     | Version:  2012                                  |
|   \\  /    A nd           | Website:  www.openfoam.com                      |
|    \\/     M anipulation  |                                                 |
\*---------------------------------------------------------------------------*/
FoamFile
{
    version     2.0;
    format      ascii;
    class       volVectorField;
    location    "0.107/solid";
    object      sigmaMaxDir;
}
// * * * * * * * * * * * * * * * * * * * * * * * * * * * * * * * * * * * * * //

dimensions      [1 -1 -2 0 0 0 0];


internalField   nonuniform List<vector> 
3125
(
(0.982087 -0.188425 0.00147109)
(0.981911 -0.189339 -0.00136116)
(0.980918 -0.194418 -0.00156189)
(0.980937 -0.194321 -0.00146739)
(0.981593 -0.190979 0.00177423)
(0.981774 -0.190028 0.00309441)
(0.97903 -0.191566 0.0693074)
(0.971238 -0.208744 0.114554)
(0.981088 -0.193538 -0.00308474)
(0.981014 -0.193911 -0.00312667)
(0.981109 -0.193455 -0.000411593)
(0.981198 -0.193004 -9.55179e-05)
(0.982422 -0.186312 0.0115835)
(0.982563 -0.185094 0.0175983)
(0.982332 -0.185722 -0.0230607)
(0.907504 -0.419975 0.00759625)
(0.991944 0.0480236 0.11722)
(0.105392 -0.0282027 0.994031)
(0.909041 -0.416121 -0.022108)
(-0.0231922 0.017859 0.999571)
(0.908538 -0.417801 0.00100431)
(0.996095 0.0505073 0.0724149)
(0.981487 -0.191191 -0.0113735)
(0.998695 0.0449367 -0.024284)
(0.0662556 -0.0156662 0.99768)
(0.906899 -0.421115 -0.0140245)
(0.0146762 0.00490208 0.99988)
(0.980902 -0.194483 -0.00269953)
(0.903281 -0.429039 -0.00291085)
(0.0749409 -0.00966479 0.997141)
(0.90341 -0.428763 -0.00356174)
(0.0774708 -0.0104734 0.99694)
(0.903184 -0.429247 -0.00243584)
(0.980966 -0.194171 -0.0015181)
(0.0281958 0.00166285 0.999601)
(0.902959 -0.429711 -0.00374074)
(0.0552338 -0.00380521 0.998466)
(0.981434 -0.191795 0.00103368)
(0.902478 -0.43073 -0.00220818)
(0.154785 -0.028365 0.987541)
(0.902522 -0.430642 -0.00163301)
(0.388428 -0.094958 0.916573)
(0.902408 -0.430882 -0.000666669)
(0.981979 -0.188932 0.00475305)
(0.0862152 -0.0112082 0.996213)
(0.902315 -0.431077 -0.000548523)
(0.963269 -0.262184 -0.0580693)
(0.981681 -0.185829 0.0420607)
(0.892792 -0.445991 0.0633516)
(0.960596 -0.275489 -0.0368878)
(0.897841 -0.438883 0.0355416)
(0.963323 -0.267573 0.0203122)
(0.879746 -0.462829 0.108796)
(0.942914 -0.268286 0.197321)
(0.961746 -0.271136 -0.0391158)
(0.838975 -0.50788 0.195394)
(0.814733 -0.579832 0.00205228)
(0.0208732 0.0168587 0.99964)
(0.815883 -0.578192 -0.00549719)
(0.813781 -0.581148 -0.00524905)
(0.0130845 0.0111529 0.999852)
(-0.00390013 -0.00409314 0.999984)
(-0.0422155 0.0207086 0.998894)
(0.981191 -0.192859 -0.0083501)
(0.904517 -0.42643 -0.00246177)
(0.0747049 -0.0102697 0.997153)
(0.90494 -0.425454 -0.00850972)
(0.00799826 0.00545093 0.999953)
(0.000108349 -0.00134979 0.999999)
(0.812167 -0.583419 -0.00262645)
(0.812868 -0.582363 -0.00997999)
(0.0497767 -0.0028135 0.998756)
(0.98093 -0.194315 -0.00425775)
(0.904484 -0.426497 -0.00310788)
(0.0356325 -0.000673727 0.999365)
(0.903912 -0.427673 -0.00626243)
(0.810673 -0.585495 -0.00207269)
(0.811076 -0.58489 -0.00773357)
(0.00609712 0.00300698 0.999977)
(0.00473748 0.00158088 0.999988)
(0.00649095 0.00424254 0.99997)
(0.00351911 0.000814658 0.999993)
(0.812267 -0.583234 -0.00776989)
(0.811358 -0.584542 -0.00305477)
(0.810606 -0.585549 -0.00705508)
(0.810071 -0.586327 -0.00213578)
(0.00584619 0.00277019 0.999979)
(0.0055494 0.00180436 0.999983)
(0.0321411 0.000265416 0.999483)
(0.981028 -0.193867 -0.000717108)
(0.902753 -0.430151 -0.00279161)
(0.0929225 -0.0137626 0.995578)
(0.902804 -0.430047 -0.00216557)
(0.0069368 0.00257847 0.999973)
(0.00617244 0.00215215 0.999979)
(0.809554 -0.587041 -0.00215532)
(0.809932 -0.586481 -0.00701432)
(0.111704 -0.0177792 0.993582)
(0.981302 -0.192472 0.000163137)
(0.90269 -0.430288 -0.00198399)
(0.0400876 -0.0007295 0.999196)
(0.902594 -0.430483 -0.00294174)
(0.808358 -0.588685 -0.00268508)
(0.808836 -0.587986 -0.00749471)
(0.0111385 0.00322835 0.999933)
(0.00909531 0.00290791 0.999954)
(0.00728397 0.00271158 0.99997)
(0.00829235 0.00260045 0.999962)
(0.809452 -0.587142 -0.00717459)
(0.808975 -0.587837 -0.00253785)
(0.808225 -0.588826 -0.00750591)
(0.807667 -0.589637 -0.00170077)
(0.0122516 0.0035242 0.999919)
(0.358741 -0.0887016 0.929213)
(0.982202 -0.187667 0.00770831)
(0.901886 -0.43195 0.00459922)
(0.963144 -0.266102 0.039291)
(0.902141 -0.431435 0.00236453)
(0.806984 -0.590564 0.00334531)
(0.807532 -0.589795 -0.00586512)
(0.963151 -0.265673 -0.0419382)
(0.982463 -0.18456 0.0265492)
(0.90129 -0.433082 0.0107795)
(0.964153 -0.264122 -0.0254795)
(0.900234 -0.434992 0.018987)
(0.803487 -0.591053 0.07117)
(0.806237 -0.591132 0.0233376)
(0.806911 -0.590672 0.00110338)
(0.806311 -0.591151 0.0200715)
(0.801436 -0.591003 0.091737)
(0.7604 -0.603536 0.239866)
(0.958873 -0.281803 0.0339155)
(0.676696 -0.651973 0.342074)
(0.701755 -0.635393 0.322204)
(0.915273 -0.400147 0.0464476)
(-0.658115 0.703706 -0.267735)
(0.974108 -0.225442 0.0170255)
(0.0760059 -0.0321695 0.996588)
(0.935389 -0.353263 0.0159124)
(0.977824 -0.114453 -0.175385)
(0.974687 -0.223344 -0.0101188)
(0.0981968 -0.0405459 0.994341)
(0.936808 -0.345027 0.0578621)
(0.747946 -0.0661991 0.66045)
(0.973951 -0.217299 0.0648072)
(0.935969 -0.352081 0.000665658)
(0.776295 -0.0816877 0.625055)
(0.975005 -0.217414 -0.0457781)
(0.978838 -0.0999126 -0.178587)
(-0.0546635 0.0285032 0.998098)
(0.937996 -0.346566 0.00744128)
(0.937984 -0.344334 -0.0402624)
(0.972847 -0.0966027 -0.210327)
(0.975372 -0.220105 0.0142332)
(0.976014 -0.21505 0.0339093)
(-0.0159196 0.01906 0.999692)
(0.939313 -0.343061 0.000663129)
(0.728153 -0.0610508 0.682691)
(0.976362 -0.215971 -0.00855729)
(0.939836 -0.340599 0.0264732)
(0.97047 -0.0890756 0.224173)
(0.974401 -0.222373 0.0330764)
(0.993244 -0.102201 0.0549744)
(0.0750561 -0.0106347 0.997123)
(0.936506 -0.350065 -0.0202848)
(0.974464 -0.222778 -0.0280899)
(0.936761 -0.348912 0.0271896)
(0.993302 -0.102103 0.0540942)
(0.974563 -0.22262 -0.0258343)
(0.0452982 -0.00496812 0.998961)
(0.9369 -0.348737 0.0245152)
(0.993558 -0.100984 0.051422)
(0.974494 -0.221998 0.0328225)
(0.936741 -0.349453 -0.0199777)
(0.992072 -0.101743 0.0737721)
(0.97454 -0.222505 -0.0276384)
(0.994194 -0.101324 0.0362197)
(0.0273022 0.00140731 0.999626)
(0.936879 -0.348931 0.0224542)
(0.936772 -0.349221 -0.022428)
(0.993484 -0.101964 0.0509267)
(0.974522 -0.222128 0.0310911)
(0.974488 -0.222069 0.032542)
(0.0603195 -0.00487476 0.998167)
(0.936803 -0.349409 -0.0177205)
(0.992514 -0.101028 0.0686302)
(0.974629 -0.222381 -0.0253786)
(0.937001 -0.348331 0.0263485)
(0.993825 -0.101692 0.0443808)
(0.974741 -0.22051 0.035425)
(0.992424 -0.0989756 0.0727945)
(0.128518 -0.0220235 0.991463)
(0.936972 -0.34902 -0.0164018)
(0.974954 -0.221231 -0.0228225)
(0.937205 -0.347603 0.0286294)
(0.993087 -0.0989721 0.0631112)
(0.975048 -0.220825 -0.0227367)
(0.0822782 -0.0117047 0.996541)
(0.937304 -0.347611 0.0250476)
(0.99345 -0.0978681 0.0589887)
(0.97489 -0.219994 0.0345314)
(0.937155 -0.348428 -0.0184155)
(0.992421 -0.098849 0.0730092)
(0.975323 -0.21986 -0.0201439)
(0.99355 -0.0963791 0.0597516)
(0.143425 -0.028496 0.989251)
(0.937442 -0.347191 0.0257107)
(0.937308 -0.348116 -0.0164115)
(0.992463 -0.0973843 0.0743878)
(0.975066 -0.218983 0.0359533)
(0.974919 -0.219493 0.0368351)
(0.211102 -0.0449059 0.976432)
(0.937133 -0.348649 -0.0150097)
(0.992247 -0.0974914 0.0770803)
(0.975212 -0.220303 -0.0207017)
(0.937372 -0.347078 0.0295227)
(0.992969 -0.0974325 0.067222)
(0.973138 -0.22526 0.0475498)
(0.994688 -0.0996917 0.0256539)
(0.96081 -0.274896 -0.0357236)
(0.934896 -0.354865 -0.00636593)
(0.974921 -0.222511 -0.00421828)
(0.933784 -0.356534 0.0305224)
(0.994378 -0.102467 0.0266842)
(0.973438 -0.228558 0.0134078)
(0.963149 -0.264827 -0.0470165)
(0.930492 -0.3647 0.0343276)
(0.992892 -0.111852 0.0406767)
(0.970189 -0.23421 0.0622832)
(0.932447 -0.361222 0.00785453)
(0.993554 -0.10724 0.0367424)
(0.959148 -0.27033 0.0834069)
(0.981289 -0.154978 0.114252)
(0.964207 -0.265072 -0.00649453)
(0.9035 -0.423053 0.0686614)
(0.911983 -0.406734 0.0534261)
(0.98455 -0.140711 0.104222)
(0.948475 -0.296821 0.110873)
(0.962869 -0.253355 0.0932397)
(0.958587 -0.284693 -0.00777776)
(0.926406 -0.375984 0.0201777)
(0.991209 -0.119183 0.0574397)
(0.969551 -0.241649 0.039704)
(0.922078 -0.383569 0.0514463)
(0.988637 -0.127623 0.0794316)
(0.912501 -0.407085 0.0403071)
(0.851914 -0.520427 0.0582915)
(0.813983 -0.580882 -0.00279225)
(0.851282 -0.524335 -0.0197851)
(0.915088 -0.398309 0.0629604)
(0.913461 -0.406602 -0.0162273)
(0.813928 -0.580966 0.000810509)
(0.849087 -0.526796 0.0391925)
(0.0272638 0.0126132 0.999549)
(0.0213116 0.0163318 0.999639)
(0.0290136 0.0174745 0.999426)
(0.0248202 0.00327543 0.999687)
(0.00957214 0.00754373 0.999926)
(0.0237936 0.00845835 0.999681)
(0.0288769 0.0206579 0.999369)
(0.000244136 -0.00835018 0.999965)
(0.91573 -0.401296 0.0200122)
(0.916957 -0.396377 -0.0455545)
(0.856226 -0.515985 -0.0252366)
(0.815946 -0.578121 -0.00284187)
(0.85663 -0.514852 0.0333512)
(0.917646 -0.397316 -0.00813425)
(0.918743 -0.393767 0.0292956)
(0.854115 -0.519677 0.0205666)
(0.815203 -0.579081 -0.0104617)
(0.854745 -0.516183 -0.0544591)
(0.0145507 0.0107463 0.999836)
(-0.0172827 -0.00952541 0.999805)
(0.00229855 0.00232792 0.999995)
(0.0207073 0.00721074 0.99976)
(-0.000688019 0.00750552 0.999972)
(-0.00219232 0.00222832 0.999995)
(-0.0038451 -0.00390895 0.999985)
(-0.00752574 -0.00414488 0.999963)
(-0.00296675 -0.00232505 0.999993)
(0.0135711 0.0150532 0.999795)
(0.974527 -0.222229 0.0302013)
(0.993878 -0.103353 -0.0390554)
(0.0720562 -0.01354 0.997309)
(0.936267 -0.349952 -0.030613)
(0.974279 -0.221814 -0.0397497)
(0.993284 -0.103216 0.0522834)
(0.936689 -0.349206 0.0258628)
(0.974669 -0.222339 -0.0242034)
(0.0570882 -0.0114693 0.998303)
(0.989121 -0.0993921 0.108447)
(0.937042 -0.347992 0.0292201)
(0.986198 -0.101127 0.131102)
(0.936722 -0.349686 -0.0165072)
(0.97455 -0.221114 0.0368872)
(-0.0165374 -0.0118593 0.999793)
(0.0219918 0.0145968 0.999652)
(0.00823318 0.00514428 0.999953)
(0.0128484 0.00970405 0.99987)
(0.00798183 -0.000733535 0.999968)
(-0.00592189 -0.00569001 0.999966)
(0.00479973 0.00297201 0.999984)
(0.0115603 0.00757665 0.999904)
(0.0227661 0.0167406 0.999601)
(-0.00930321 -0.00871538 0.999919)
(0.913921 -0.403735 -0.0418043)
(0.914528 -0.402859 0.0366435)
(0.852649 -0.521512 0.0318524)
(0.812228 -0.583285 -0.00809857)
(0.852154 -0.521989 -0.0368974)
(0.914992 -0.401756 0.0371666)
(0.914686 -0.403266 -0.0269595)
(0.851927 -0.521572 -0.0467219)
(0.81224 -0.583313 -0.00354948)
(0.851964 -0.522633 0.0318185)
(0.974504 -0.222135 -0.0315793)
(0.00117802 0.0101926 0.999947)
(0.99463 -0.102316 0.0155604)
(0.936959 -0.348886 0.0196707)
(0.974581 -0.222289 0.0279242)
(0.994217 -0.102354 0.0325066)
(0.936857 -0.348742 -0.0260564)
(0.974692 -0.221282 0.0317684)
(0.0308215 0.00491031 0.999513)
(0.988724 -0.0994505 0.111953)
(0.937192 -0.348464 -0.0156311)
(0.974862 -0.221496 -0.0241575)
(0.993837 -0.101125 0.0454055)
(0.93743 -0.347221 0.025748)
(0.914206 -0.403994 -0.0318901)
(0.914872 -0.402251 0.0346844)
(0.852094 -0.522601 0.0286991)
(0.810871 -0.585179 -0.00737179)
(0.851833 -0.522391 -0.0385842)
(0.914746 -0.402706 0.0326823)
(0.914833 -0.40273 -0.0298047)
(0.851686 -0.522648 -0.038334)
(0.810939 -0.585126 -0.00214851)
(0.852088 -0.522446 0.0315793)
(-0.012029 -0.00979254 0.99988)
(0.0223448 0.015261 0.999634)
(0.00648716 0.00288387 0.999975)
(0.0107315 0.00768966 0.999913)
(0.00581822 -0.00175594 0.999982)
(0.00289405 -0.00296214 0.999991)
(0.00557513 0.00278209 0.999981)
(0.0108222 0.00747115 0.999914)
(0.0224271 0.0155874 0.999627)
(-0.0105257 -0.00898897 0.999904)
(0.0213362 0.0138897 0.999676)
(-0.0124623 -0.00940499 0.999878)
(0.00654226 0.000413232 0.999979)
(0.00418476 0.00245229 0.999988)
(0.00711183 0.00740559 0.999947)
(-0.0103638 -0.00710457 0.999921)
(0.0200166 0.0153867 0.999681)
(0.00830869 0.00565598 0.999949)
(0.00339256 0.000675588 0.999994)
(0.00164113 -0.00279025 0.999995)
(0.91475 -0.402986 0.0288837)
(0.915254 -0.401361 -0.0349224)
(0.852927 -0.52081 -0.035673)
(0.812187 -0.58339 -0.00276831)
(0.853373 -0.520401 0.0306203)
(0.915203 -0.402155 -0.025996)
(0.915872 -0.400193 0.0319855)
(0.85248 -0.522131 0.0256417)
(0.811902 -0.583732 -0.00849068)
(0.852462 -0.520972 -0.0435389)
(0.914614 -0.403158 0.0307518)
(0.914948 -0.4023 -0.0320322)
(0.851817 -0.522605 -0.0359314)
(0.810554 -0.58566 -0.00186684)
(0.852207 -0.522287 0.0309708)
(0.914631 -0.40327 -0.0286945)
(0.915236 -0.401566 0.0329762)
(0.851719 -0.523295 0.027159)
(0.810405 -0.585823 -0.00737998)
(0.851615 -0.522638 -0.0400221)
(0.0228012 0.0146507 0.999633)
(-0.0113449 -0.00952001 0.99989)
(0.00524797 0.00243537 0.999983)
(0.00464309 -0.00132564 0.999988)
(0.00943414 0.0072162 0.999929)
(0.0106313 0.00638086 0.999923)
(0.00549625 0.00164024 0.999984)
(0.0042396 -0.00258984 0.999988)
(-0.011448 -0.00852337 0.999898)
(0.0217312 0.015373 0.999646)
(0.974494 -0.221855 0.0338025)
(0.992852 -0.101009 0.0635769)
(0.0848022 -0.012185 0.996323)
(0.936696 -0.349677 -0.0180498)
(0.974629 -0.222397 -0.0252579)
(0.993472 -0.10107 0.0528958)
(0.936917 -0.348469 0.0274978)
(0.974689 -0.222116 -0.0253982)
(0.0491811 -0.00493533 0.998778)
(0.99384 -0.100148 0.0474575)
(0.937008 -0.348489 0.0239215)
(0.992804 -0.100945 0.0644181)
(0.936877 -0.349068 -0.0203051)
(0.974614 -0.221494 0.032666)
(-0.0112457 -0.00934131 0.999893)
(0.0229079 0.0155022 0.999617)
(0.00700459 0.00240321 0.999973)
(0.0119062 0.00721229 0.999903)
(0.00615235 -0.00208895 0.999979)
(0.00487435 -0.00237925 0.999985)
(0.00636624 0.00268562 0.999976)
(0.011248 0.00737279 0.99991)
(0.023551 0.015466 0.999603)
(-0.0104377 -0.00913947 0.999904)
(0.914338 -0.403863 -0.0296786)
(0.914994 -0.402019 0.0341501)
(0.851441 -0.523721 0.0276411)
(0.8098 -0.586661 -0.00725925)
(0.851263 -0.523316 -0.0386211)
(0.914695 -0.402895 0.0317472)
(0.914901 -0.402548 -0.0301797)
(0.851225 -0.523556 -0.0361365)
(0.809885 -0.586586 -0.00177851)
(0.851652 -0.523168 0.0313789)
(0.97482 -0.221592 -0.0249761)
(0.0545062 -0.0050363 0.998501)
(0.993778 -0.099364 0.0503186)
(0.93712 -0.348184 0.0239613)
(0.974727 -0.220947 0.0330148)
(0.992918 -0.100199 0.0638322)
(0.936992 -0.348765 -0.0202374)
(0.974623 -0.221255 0.0339949)
(0.0920398 -0.0127147 0.995674)
(0.992646 -0.0999346 0.0683182)
(0.936884 -0.349217 -0.0172228)
(0.974795 -0.221788 -0.0241648)
(0.993494 -0.100196 0.0541278)
(0.937099 -0.347978 0.027501)
(0.914438 -0.403719 -0.0285393)
(0.915071 -0.401808 0.0345785)
(0.850649 -0.525033 0.0271529)
(0.808669 -0.588212 -0.00780897)
(0.850556 -0.524522 -0.0378281)
(0.914708 -0.402853 0.0319124)
(0.914968 -0.402483 -0.029009)
(0.850578 -0.524645 -0.035566)
(0.808767 -0.588125 -0.00235053)
(0.850993 -0.524271 0.0308363)
(-0.00973543 -0.00863903 0.999915)
(0.0252241 0.0164814 0.999546)
(0.010612 0.00303419 0.999939)
(0.0163512 0.00763417 0.999837)
(0.00972323 -0.00159581 0.999951)
(0.00793473 -0.0017024 0.999967)
(0.00955238 0.00335235 0.999949)
(0.0145242 0.00797606 0.999863)
(0.0265977 0.0163628 0.999512)
(-0.0086867 -0.0085447 0.999926)
(0.0247805 0.01566 0.99957)
(-0.00995649 -0.00899729 0.99991)
(0.00606352 -0.00166145 0.99998)
(0.00731183 0.0028756 0.999969)
(0.0120149 0.00759029 0.999899)
(-0.0107197 -0.00872153 0.999905)
(0.0235458 0.0159289 0.999596)
(0.0135287 0.00712703 0.999883)
(0.00802089 0.00240629 0.999965)
(0.00705061 -0.00204612 0.999973)
(0.914684 -0.402944 0.0314397)
(0.914953 -0.402416 -0.0303671)
(0.851025 -0.523907 -0.0357479)
(0.809392 -0.587265 -0.00207492)
(0.851431 -0.52356 0.0308366)
(0.914502 -0.403557 -0.0287873)
(0.915124 -0.401754 0.0337803)
(0.85107 -0.524359 0.0269648)
(0.809278 -0.587377 -0.00761195)
(0.850934 -0.523836 -0.0388178)
(0.914551 -0.403199 0.0320489)
(0.914941 -0.402649 -0.0275065)
(0.850209 -0.525314 -0.0344899)
(0.808109 -0.589029 -0.00214273)
(0.850484 -0.525059 0.0314465)
(0.914448 -0.403764 -0.0275502)
(0.91501 -0.401898 0.035134)
(0.850066 -0.525901 0.0285518)
(0.808028 -0.589099 -0.00723798)
(0.850214 -0.525254 -0.0352616)
(0.0290934 0.0169439 0.999433)
(-0.00753473 -0.00822642 0.999938)
(0.0131225 0.00395182 0.999906)
(0.0108907 -0.00126867 0.99994)
(0.0177524 0.00843071 0.999807)
(0.0205573 0.00774356 0.999759)
(0.0147347 0.00365659 0.999885)
(0.013141 -0.00127626 0.999913)
(-0.00847882 -0.00819114 0.999931)
(0.0272355 0.0172606 0.99948)
(0.975056 -0.218584 0.0385684)
(0.992741 -0.0960728 0.0723534)
(0.917002 -0.255639 0.306194)
(0.937193 -0.348563 -0.0131668)
(0.975487 -0.219346 -0.0176994)
(0.993419 -0.0960009 0.0624758)
(0.937382 -0.34698 0.0303307)
(0.975578 -0.219065 -0.0160555)
(0.956357 -0.264785 0.123569)
(0.994343 -0.0954698 0.0465603)
(0.937312 -0.347556 0.0255322)
(0.993256 -0.0962179 0.0646814)
(0.937296 -0.348288 -0.0131203)
(0.975135 -0.218487 0.037083)
(-0.00727746 -0.00829148 0.999939)
(0.0303818 0.0179126 0.999378)
(0.0275473 0.00667199 0.999598)
(0.0189894 -0.00154864 0.999818)
(0.0153885 -0.00134896 0.999881)
(0.0234484 0.00849873 0.999689)
(0.0324278 0.0168718 0.999332)
(-0.00677651 -0.00870617 0.999939)
(0.914261 -0.404282 -0.0261259)
(0.914567 -0.402813 0.0361712)
(0.849138 -0.527058 0.0342881)
(0.807379 -0.590022 -0.00352882)
(0.849982 -0.526095 -0.0274526)
(0.913863 -0.404768 0.0318954)
(0.914656 -0.403505 -0.0242649)
(0.849837 -0.526153 -0.0306673)
(0.807375 -0.590038 0.000375931)
(0.849696 -0.526125 0.0347643)
(0.975442 -0.22003 -0.00993529)
(0.96379 -0.264412 -0.0345745)
(0.994916 -0.09797 0.0233114)
(0.93597 -0.351264 0.0239704)
(0.974504 -0.22099 0.0387923)
(0.994491 -0.0975791 0.0382987)
(0.936443 -0.350719 -0.00841407)
(0.974903 -0.219109 0.0394446)
(0.962559 -0.271063 -0.00211425)
(0.99418 -0.0956967 0.0494873)
(0.936852 -0.349547 -0.0111889)
(0.975616 -0.219051 -0.0137919)
(0.994587 -0.0963128 0.0390032)
(0.936753 -0.34876 0.0293357)
(0.911152 -0.41169 -0.0177107)
(0.907874 -0.41717 0.0416527)
(0.839002 -0.536995 0.0878156)
(0.805455 -0.590649 0.0487321)
(0.845766 -0.532118 0.0391305)
(0.903127 -0.427258 0.0425753)
(0.908963 -0.416871 -0.00211205)
(0.848192 -0.52962 0.00853625)
(0.805418 -0.591412 0.0391631)
(0.843319 -0.532821 0.0701007)
(-0.0139585 -0.0191952 0.999718)
(0.0668314 0.0169701 0.99762)
(0.748634 -0.0172219 0.662759)
(0.168647 -0.0165304 0.985538)
(0.0503145 -0.0104874 0.998678)
(0.131049 -0.0022123 0.991373)
(0.293181 0.0555 0.954445)
(-0.00825177 -0.0245467 0.999665)
(0.0409218 0.0144245 0.999058)
(-0.0103216 -0.0127519 0.999865)
(0.0221253 -0.0031435 0.99975)
(0.0338151 0.00636216 0.999408)
(-0.00820696 -0.0104302 0.999912)
(0.034342 0.0172317 0.999262)
(0.0522379 0.00137361 0.998634)
(0.0297968 -0.00473689 0.999545)
(0.91132 -0.410467 0.0318245)
(0.913396 -0.406654 -0.0184184)
(0.849501 -0.52722 -0.0196558)
(0.80665 -0.590948 0.00985277)
(0.848067 -0.527986 0.0448673)
(0.913578 -0.40597 -0.0237263)
(0.912978 -0.406326 0.0370131)
(0.846839 -0.529454 0.0504168)
(0.806843 -0.590692 0.00935916)
(0.849561 -0.52744 -0.00733119)
(0.845801 -0.5274 0.0804321)
(0.888181 -0.45744 0.0433981)
(0.839004 -0.539506 0.0707486)
(0.794859 -0.592995 0.128674)
(0.827665 -0.549066 0.11618)
(0.903038 -0.429504 0.00693126)
(0.888867 -0.453608 0.064464)
(0.804382 -0.571448 0.162529)
(0.784831 -0.594911 0.173553)
(0.818527 -0.560216 0.127173)
(0.912042 0.199869 0.358095)
(0.935144 0.197173 0.294327)
(0.869513 -0.0288239 0.493068)
(0.940404 -0.0278804 0.338915)
(0.935967 -0.0367135 0.350169)
(0.944813 -0.0401803 0.325136)
(0.320575 0.0349338 0.946579)
(0.904019 0.189769 0.383063)
(0.922531 -0.381133 0.0606132)
(0.976023 -0.175436 0.128848)
(0.916531 -0.397397 0.0452308)
(0.875453 -0.477096 0.0772099)
(0.936185 -0.334404 0.108316)
(0.967686 -0.23535 0.0905243)
(0.858328 -0.511147 0.044733)
(0.940038 -0.339206 0.0356133)
(0.981379 -0.185388 0.0502635)
(0.890893 -0.452152 0.0432191)
(-0.518646 0.809845 -0.274149)
(0.78255 -0.621977 0.0275704)
(-0.610411 0.739137 -0.284738)
(0.919212 -0.39215 0.0355951)
(0.837283 -0.546715 0.00765996)
(0.983043 -0.179241 0.0387142)
(0.814519 -0.58006 0.00941935)
(0.914106 0.19079 0.357784)
(0.958932 0.077838 0.272747)
(0.973106 -0.20187 0.110966)
(0.931787 -0.0581275 0.358321)
(0.961268 -0.147513 0.232816)
(0.994801 -0.0886101 0.0501983)
(0.830171 -0.552508 0.0745084)
(0.77942 -0.623408 0.0621846)
(-0.475097 0.83109 -0.28909)
(0.763625 -0.643853 0.0482735)
(0.795203 -0.605521 0.0315802)
(0.785453 -0.598451 0.157863)
(-0.595214 0.724922 -0.34671)
(0.741601 -0.659516 0.122745)
(0.940649 -0.337628 -0.0344451)
(-0.0901039 0.0330408 0.995384)
(0.819384 -0.24998 -0.515868)
(-0.0429406 0.0223787 0.998827)
(0.947985 -0.318314 -0.000956705)
(0.0643559 -0.0135713 0.997835)
(0.822844 -0.221136 0.523475)
(0.0903878 -0.00739385 0.995879)
(0.939167 -0.305124 0.157684)
(0.955149 -0.269021 -0.123767)
(0.0432844 -0.0166162 0.998925)
(0.944466 -0.314124 -0.0964847)
(0.00480523 0.0142522 0.999887)
(-0.0112006 0.0130938 0.999852)
(0.953018 -0.266976 0.143111)
(0.924221 -0.261006 -0.278731)
(-0.0227047 -0.00236454 0.999739)
(0.947927 -0.316317 0.0371182)
(0.945758 -0.302103 0.119479)
(0.0199436 0.00511328 0.999788)
(0.963203 -0.268735 0.00469942)
(0.0456352 -0.0171299 0.998811)
(0.950966 -0.309296 0.000839826)
(0.849054 -0.222263 0.479276)
(0.0354113 0.0131961 0.999286)
(0.946128 -0.317368 0.0641832)
(-0.0077779 -0.0046629 0.999959)
(0.0322037 0.00143349 0.99948)
(0.953526 -0.272671 -0.128215)
(0.946622 -0.31756 -0.0553448)
(0.948707 -0.267366 0.168731)
(0.0334362 0.0109464 0.999381)
(0.993791 -0.108145 -0.0261584)
(0.999296 -0.0141265 0.0347567)
(0.993467 -0.107441 0.0384623)
(0.999234 -0.0145408 0.036344)
(0.993444 -0.107821 0.0379871)
(0.999587 -0.0148714 0.0245787)
(0.993699 -0.108357 -0.0286445)
(0.999381 -0.01481 0.0319143)
(0.946882 -0.317366 -0.0518922)
(0.0650201 -0.00770668 0.997854)
(0.949118 -0.266239 0.168203)
(0.0520071 0.00528794 0.998633)
(0.94666 -0.315157 0.0671642)
(0.954608 -0.271023 -0.123572)
(0.0107466 -0.00923661 0.9999)
(0.946638 -0.317631 -0.0546458)
(0.0517147 0.00467193 0.998651)
(0.0662422 -0.00811008 0.997771)
(0.951243 -0.267151 0.154169)
(0.954448 -0.270999 -0.124854)
(0.00728647 -0.0089641 0.999933)
(0.946753 -0.315692 0.0632156)
(0.993507 -0.107388 0.0375651)
(0.99942 -0.0141325 0.0309695)
(0.993818 -0.107875 -0.0262367)
(0.999504 -0.014367 0.0280134)
(0.993797 -0.107825 -0.027208)
(0.999468 -0.0141781 0.0293591)
(0.999513 -0.0144566 0.0276453)
(0.99353 -0.10728 0.037267)
(0.946314 -0.316305 0.0666495)
(0.0375468 0.00059778 0.999295)
(0.955698 -0.272365 -0.11162)
(-0.00279588 -0.004657 0.999985)
(0.947233 -0.316704 -0.0494763)
(0.948771 -0.266291 0.170069)
(0.0357888 0.0114064 0.999294)
(0.946751 -0.314879 0.0671885)
(0.00317438 -0.00574746 0.999978)
(0.0848244 -0.0107067 0.996338)
(0.957743 -0.270795 -0.0969404)
(0.947732 -0.315705 -0.0462045)
(0.951526 -0.264673 0.156675)
(0.0501949 0.00909632 0.998698)
(0.947711 -0.315667 -0.0468924)
(0.142393 -0.0262016 0.989463)
(0.953591 -0.263953 0.144889)
(0.0718344 0.00234356 0.997414)
(0.947422 -0.313149 0.0658008)
(0.958159 -0.268983 -0.0978739)
(0.0223351 -0.0109259 0.999691)
(0.948149 -0.314883 -0.0431574)
(0.0870171 -0.00133965 0.996206)
(0.327942 -0.0793113 0.941363)
(0.956202 -0.263401 0.127661)
(0.959643 -0.267927 -0.0854474)
(0.0297187 -0.0130824 0.999473)
(0.947787 -0.31235 0.0643144)
(0.947074 -0.31389 0.0672555)
(0.136462 -0.0241028 0.990352)
(0.958949 -0.269973 -0.0867889)
(0.00917956 -0.0067249 0.999935)
(0.948147 -0.314897 -0.043101)
(0.95324 -0.263649 0.147727)
(0.0591729 0.00798568 0.998216)
(0.94664 -0.319859 0.0395266)
(0.967359 -0.243066 -0.0716615)
(0.961392 -0.270382 -0.051183)
(0.960727 -0.268869 -0.0686521)
(0.94772 -0.317555 -0.0313902)
(0.962411 -0.27069 0.0221849)
(0.96973 -0.242881 -0.0251725)
(0.94479 -0.327587 -0.00769514)
(0.962092 -0.270205 -0.0369845)
(0.959843 -0.28052 0.00327731)
(0.967642 -0.252258 -0.00595348)
(0.942941 -0.330051 0.043907)
(0.95976 -0.276879 -0.046879)
(0.966918 -0.2545 -0.0173059)
(0.930175 -0.364228 0.0459677)
(0.96324 -0.262842 0.0555249)
(0.96662 -0.2558 0.0145481)
(0.951723 -0.305834 0.0262519)
(0.952987 -0.302964 0.00530253)
(0.960726 -0.27301 0.0497028)
(0.92652 -0.369708 0.0698266)
(0.940062 -0.337956 0.0454821)
(0.958844 -0.282414 -0.0293422)
(0.957329 -0.285785 -0.0429817)
(0.965281 -0.260887 -0.0130939)
(0.942543 -0.334084 0.000635248)
(0.957872 -0.28719 0.00178247)
(0.966384 -0.257097 0.00200052)
(0.933195 -0.353165 -0.0664961)
(0.941615 -0.331198 0.06058)
(0.942275 -0.334204 0.0206152)
(-0.000849536 0.0140065 0.999902)
(0.0454867 -0.00337651 0.998959)
(0.000392231 -0.00550385 0.999985)
(0.942124 -0.335066 -0.011564)
(0.944144 -0.328684 -0.0236295)
(0.944874 -0.32545 0.0359863)
(0.947185 -0.319646 0.0258175)
(0.0189711 0.00719133 0.999794)
(-0.01804 0.000327286 0.999837)
(-0.00195548 -0.00459031 0.999988)
(0.0203545 0.00883767 0.999754)
(0.946148 -0.319702 0.0509433)
(-0.0328119 0.000470274 0.999461)
(-0.00934773 0.0121732 0.999882)
(0.937916 -0.26829 -0.219848)
(0.944748 -0.317456 -0.0816845)
(0.0141929 0.0138063 0.999804)
(0.948091 -0.268619 0.1702)
(0.947219 -0.317185 -0.0465844)
(0.0575802 -0.00570842 0.998325)
(0.0567935 0.0043673 0.998376)
(0.940516 -0.261918 0.216401)
(0.0167947 -0.00986891 0.99981)
(0.953888 -0.270726 -0.129636)
(0.946175 -0.313772 0.0793748)
(-0.0252972 0.00281875 0.999676)
(0.0210742 0.00733562 0.999751)
(0.0359352 0.00288163 0.99935)
(-0.0076922 -0.00222113 0.999968)
(0.941125 -0.337425 -0.0207105)
(0.941527 -0.336929 0.00251178)
(0.942257 -0.334334 0.0192783)
(0.943059 -0.332625 -0.000291921)
(0.946087 -0.31789 -0.0621719)
(0.0393961 -0.00010743 0.999224)
(0.0424038 0.00633876 0.99908)
(0.950349 -0.267602 0.158829)
(0.946719 -0.316475 0.059724)
(0.000212235 -0.00705458 0.999975)
(0.950946 -0.270932 -0.149326)
(0.993562 -0.107076 0.0369955)
(0.999014 -0.0131736 0.0423934)
(0.993882 -0.107487 -0.0253906)
(0.99959 -0.0138062 0.0250969)
(0.946346 -0.314794 0.0730344)
(0.0294369 0.00368628 0.99956)
(0.00624378 -0.00610258 0.999962)
(0.955868 -0.272357 -0.110176)
(0.947734 -0.315909 -0.0447417)
(0.0342481 0.0126112 0.999334)
(0.942864 -0.262957 0.204601)
(0.993683 -0.107957 -0.0306587)
(0.999738 -0.0147904 0.0174875)
(0.993572 -0.107825 0.0344778)
(0.999771 -0.0145187 0.0156961)
(0.941762 -0.336254 -0.00420713)
(0.942635 -0.333601 0.0121936)
(0.942261 -0.334629 0.0129777)
(0.943182 -0.33226 -0.00330239)
(-0.0172734 0.00057538 0.999851)
(0.0283017 0.00593751 0.999582)
(0.0361233 0.00290808 0.999343)
(-0.00896747 -0.00218213 0.999957)
(0.0341958 0.00292766 0.999411)
(-0.0110393 -0.00158167 0.999938)
(-0.0149947 0.000927514 0.999887)
(0.0259218 0.00754146 0.999636)
(0.941977 -0.3356 0.00722816)
(0.943208 -0.332099 -0.00828647)
(0.942644 -0.33377 0.00439428)
(0.943774 -0.330207 0.0159274)
(0.942252 -0.334744 0.01038)
(0.943306 -0.331887 -0.00496047)
(0.942247 -0.334919 -0.000313936)
(0.943282 -0.331693 0.0140855)
(0.0373984 0.00222093 0.999298)
(-0.00942455 -0.00229016 0.999953)
(-0.0172125 0.00117825 0.999851)
(0.0282905 0.00644377 0.999579)
(0.946342 -0.31634 0.0660742)
(-0.00312373 -0.0054405 0.99998)
(0.0499258 -0.00329466 0.998747)
(0.955923 -0.272055 -0.110436)
(0.947153 -0.316856 -0.0500302)
(0.0396366 0.00996028 0.999165)
(0.950008 -0.266506 0.162665)
(0.993928 -0.107153 -0.025023)
(0.999272 -0.0132447 0.0357717)
(0.999272 -0.0136802 0.035618)
(0.993562 -0.106405 0.0388944)
(0.993509 -0.106895 0.0388953)
(0.999397 -0.0139858 0.0317966)
(0.993865 -0.107562 -0.0257548)
(0.999328 -0.0138884 0.0339138)
(0.947074 -0.316888 -0.0513141)
(0.0823145 -0.0118636 0.996536)
(0.0569774 0.00434845 0.998366)
(0.951364 -0.265962 0.15547)
(0.0121884 -0.00959632 0.99988)
(0.955833 -0.27029 -0.115439)
(0.946948 -0.314694 0.065251)
(-0.0165024 0.000489496 0.999864)
(0.0305366 0.00554163 0.999518)
(0.0388258 0.00240815 0.999243)
(-0.00827952 -0.00228463 0.999963)
(0.942142 -0.335209 -0.00147401)
(0.943161 -0.332042 0.013986)
(0.942565 -0.333804 0.0120939)
(0.94352 -0.331297 -0.00343891)
(0.94726 -0.316511 -0.0501854)
(0.101934 -0.0162763 0.994658)
(0.0624032 0.00360365 0.998045)
(0.952376 -0.265283 0.150346)
(0.94713 -0.314194 0.0650137)
(0.0155675 -0.00999299 0.999829)
(0.956746 -0.269767 -0.108915)
(0.993582 -0.105993 0.0395048)
(0.999282 -0.0130697 0.0355589)
(0.993994 -0.106706 -0.0242856)
(0.999265 -0.0130513 0.0360407)
(0.946582 -0.315524 0.0665387)
(0.0588448 -0.00451666 0.998257)
(-0.000624482 -0.00515481 0.999987)
(0.956869 -0.271407 -0.103633)
(0.947502 -0.316118 -0.0480592)
(0.0428675 0.0101806 0.999029)
(0.950621 -0.265478 0.160752)
(0.942656 -0.333765 -0.000171781)
(0.943683 -0.330511 0.0150111)
(0.943168 -0.33209 0.0122754)
(0.944204 -0.329356 -0.00207613)
(-0.0149568 0.000993978 0.999888)
(0.0345732 0.00559643 0.999387)
(0.044259 0.00210417 0.999018)
(-0.00560863 -0.00207827 0.999982)
(0.0411724 0.00223113 0.99915)
(-0.00708127 -0.00222952 0.999972)
(-0.016252 0.00102381 0.999867)
(0.031579 0.00590854 0.999484)
(0.942802 -0.333141 0.0119307)
(0.943794 -0.330521 -0.00305488)
(0.942468 -0.334296 -0.000484921)
(0.943503 -0.331048 0.0144661)
(0.943588 -0.330952 0.0105651)
(0.944731 -0.327837 -0.00229183)
(0.94303 -0.332707 0.000259033)
(0.944026 -0.329537 0.0148206)
(0.0479622 0.00127119 0.998848)
(-0.00568942 -0.00205385 0.999982)
(-0.0140147 0.0012314 0.999901)
(0.0374895 0.00554844 0.999282)
(0.947455 -0.313247 0.064845)
(0.0130249 -0.00873638 0.999877)
(0.906854 -0.253214 0.336896)
(0.960124 -0.268864 -0.0766407)
(0.94853 -0.314213 -0.0395134)
(0.0752001 0.00379419 0.997161)
(0.956456 -0.263581 0.12537)
(0.948516 -0.314393 -0.0383939)
(0.960916 -0.267888 0.0698258)
(0.132978 -0.0169176 0.990975)
(0.96022 -0.26439 0.0898594)
(0.037552 -0.0198698 0.999097)
(0.961016 -0.266603 -0.0732914)
(0.94819 -0.312464 0.0574669)