/*--------------------------------*- C++ -*----------------------------------*\
| =========                 |                                                 |
| \\      /  F ield         | OpenFOAM: The Open Source CFD Toolbox           |
|  \\    /   O peration     | Version:  2012                                  |
|   \\  /    A nd           | Website:  www.openfoam.com                      |
|    \\/     M anipulation  |                                                 |
\*---------------------------------------------------------------------------*/
FoamFile
{
    version     2.0;
    format      ascii;
    class       volVectorField;
    location    "0.105/solid";
    object      D;
}
// * * * * * * * * * * * * * * * * * * * * * * * * * * * * * * * * * * * * * //

dimensions      [0 1 0 0 0 0 0];


internalField   nonuniform List<vector> 
3125
(
(1.70196e-10 2.49398e-10 -2.1803e-12)
(1.65103e-10 2.46447e-10 -3.72703e-12)
(1.56233e-10 2.36972e-10 -3.73404e-12)
(1.55158e-10 2.35815e-10 -3.6799e-12)
(1.48248e-10 2.26805e-10 -4.54876e-12)
(1.46684e-10 2.24943e-10 -4.55225e-12)
(1.31658e-10 2.03684e-10 3.02751e-11)
(1.3077e-10 1.95415e-10 5.08816e-11)
(1.61053e-10 2.41817e-10 -4.16418e-12)
(1.59252e-10 2.4033e-10 -4.05726e-12)
(1.52471e-10 2.32506e-10 -3.82958e-12)
(1.51551e-10 2.31252e-10 -3.95507e-12)
(1.40288e-10 2.17879e-10 -1.48798e-12)
(1.37794e-10 2.15016e-10 1.95788e-12)
(1.73213e-10 2.51341e-10 2.01738e-12)
(2.7235e-10 1.58121e-10 3.52112e-13)
(2.40633e-10 1.0088e-09 -4.39273e-12)
(2.1981e-10 4.64392e-10 -3.26044e-12)
(2.74416e-10 1.58696e-10 1.39652e-12)
(2.132e-10 4.53678e-10 -5.14763e-12)
(2.65675e-10 1.58238e-10 -1.87349e-12)
(2.35618e-10 9.9814e-10 -6.32481e-12)
(1.63207e-10 2.44375e-10 -3.95998e-12)
(2.29348e-10 9.88525e-10 -4.84712e-12)
(2.13913e-10 4.67162e-10 -3.81173e-12)
(2.63877e-10 1.56334e-10 -3.89021e-12)
(2.06817e-10 4.4064e-10 -6.45828e-12)
(1.57326e-10 2.38051e-10 -3.70275e-12)
(2.57398e-10 1.50188e-10 -3.22202e-12)
(2.03646e-10 4.37277e-10 -6.46385e-12)
(2.58593e-10 1.50905e-10 -3.2855e-12)
(2.01683e-10 4.32031e-10 -6.24837e-12)
(2.56159e-10 1.494e-10 -3.14572e-12)
(1.54267e-10 2.3471e-10 -3.67182e-12)
(2.03209e-10 4.36772e-10 -6.30962e-12)
(2.55195e-10 1.48539e-10 -3.2632e-12)
(1.97115e-10 4.20873e-10 -6.57355e-12)
(1.49556e-10 2.28443e-10 -4.33119e-12)
(2.4836e-10 1.42785e-10 -3.87973e-12)
(1.94706e-10 4.1456e-10 -6.41112e-12)
(2.49832e-10 1.43951e-10 -3.68471e-12)
(1.91355e-10 4.0481e-10 -3.17578e-12)
(2.46701e-10 1.41421e-10 -3.74717e-12)
(1.44823e-10 2.22851e-10 -4.27161e-12)
(1.94272e-10 4.13611e-10 -6.15444e-12)
(2.44734e-10 1.39921e-10 -3.43917e-12)
(1.95095e-10 3.65857e-10 5.54206e-11)
(1.3324e-10 2.08454e-10 1.67469e-11)
(2.32742e-10 1.25144e-10 3.89701e-11)
(2.17697e-10 3.26927e-10 1.57889e-10)
(2.34579e-10 1.28749e-10 2.05609e-11)
(3.01199e-10 1.72347e-10 4.93295e-10)
(2.30147e-10 1.18838e-10 7.13854e-11)
(1.31982e-10 1.7634e-10 8.22145e-11)
(2.23448e-10 3.17825e-10 1.82461e-10)
(2.27204e-10 1.05887e-10 1.30528e-10)
(1.78984e-10 4.52841e-11 9.6456e-14)
(2.18805e-10 1.29956e-09 -2.45856e-12)
(1.77578e-10 4.55415e-11 -2.85097e-13)
(1.75972e-10 4.45888e-11 -2.37758e-12)
(2.14093e-10 1.28321e-09 -2.85987e-12)
(2.0851e-10 1.27503e-09 -3.30013e-12)
(2.14629e-10 4.51308e-10 -5.44628e-12)
(1.62638e-10 2.43144e-10 -4.01111e-12)
(2.62627e-10 1.53649e-10 -3.4203e-12)
(2.09575e-10 4.47861e-10 -7.22036e-12)
(2.64189e-10 1.54471e-10 -3.87675e-12)
(2.01491e-10 1.26504e-09 -7.03306e-12)
(2.07237e-10 1.27681e-09 -4.86927e-12)
(1.74781e-10 4.36273e-11 -1.75563e-12)
(1.75718e-10 4.41121e-11 -1.98559e-12)
(2.06948e-10 4.41337e-10 -6.54456e-12)
(1.58181e-10 2.39081e-10 -3.8683e-12)
(2.60423e-10 1.52912e-10 -3.36814e-12)
(2.0833e-10 4.47733e-10 -7.03837e-12)
(2.59325e-10 1.51847e-10 -3.57115e-12)
(1.72155e-10 4.22956e-11 -1.70238e-12)
(1.7293e-10 4.26965e-11 -1.53022e-12)
(1.91695e-10 1.24333e-09 -6.57549e-12)
(1.95191e-10 1.25162e-09 -6.51793e-12)
(1.99807e-10 1.25975e-09 -7.0187e-12)
(1.96324e-10 1.25288e-09 -6.17906e-12)
(1.74191e-10 4.35204e-11 -1.44139e-12)
(1.73249e-10 4.29195e-11 -1.935e-12)
(1.71772e-10 4.21453e-11 -1.36933e-12)
(1.70951e-10 4.16615e-11 -1.73964e-12)
(1.90672e-10 1.24025e-09 -6.6658e-12)
(1.8786e-10 1.23312e-09 -6.20528e-12)
(2.01423e-10 4.31497e-10 -6.1679e-12)
(1.53403e-10 2.33644e-10 -3.66547e-12)
(2.5321e-10 1.46928e-10 -3.32762e-12)
(1.99256e-10 4.27515e-10 -6.38469e-12)
(2.54281e-10 1.47723e-10 -3.15762e-12)
(1.84109e-10 1.22281e-09 -6.40781e-12)
(1.86899e-10 1.23101e-09 -6.44285e-12)
(1.69824e-10 4.1059e-11 -1.77013e-12)
(1.70611e-10 4.14884e-11 -1.39605e-12)
(1.97402e-10 4.21616e-10 -6.64011e-12)
(1.50618e-10 2.29906e-10 -4.16513e-12)
(2.52137e-10 1.4602e-10 -3.38544e-12)
(1.9898e-10 4.26908e-10 -6.30454e-12)
(2.51035e-10 1.45033e-10 -3.63756e-12)
(1.66969e-10 3.95447e-11 -2.05993e-12)
(1.68133e-10 4.01474e-11 -1.64333e-12)
(1.75255e-10 1.19531e-09 -5.72442e-12)
(1.79338e-10 1.20712e-09 -6.54046e-12)
(1.83222e-10 1.21983e-09 -6.6135e-12)
(1.80444e-10 1.21041e-09 -6.38502e-12)
(1.6944e-10 4.0882e-11 -1.47414e-12)
(1.68569e-10 4.03574e-11 -1.9327e-12)
(1.66373e-10 3.92868e-11 -1.73484e-12)
(1.64847e-10 3.85543e-11 -1.78718e-12)
(1.73547e-10 1.19097e-09 -5.37781e-12)
(1.90901e-10 4.03462e-10 -2.231e-12)
(1.42693e-10 2.2049e-10 -3.33944e-12)
(2.40301e-10 1.36273e-10 -4.07469e-13)
(1.88938e-10 3.90959e-10 9.27134e-12)
(2.42649e-10 1.3817e-10 -2.35643e-12)
(1.62194e-10 3.74732e-11 -4.78432e-14)
(1.64104e-10 3.82524e-11 -1.23168e-12)
(1.93463e-10 3.69452e-10 4.71219e-11)
(1.35322e-10 2.11935e-10 7.68887e-12)
(2.3817e-10 1.34031e-10 3.33115e-12)
(1.88932e-10 3.88899e-10 1.21749e-11)
(2.36045e-10 1.31685e-10 9.6992e-12)
(1.56746e-10 3.68014e-11 2.35633e-11)
(1.58603e-10 3.64943e-11 8.82785e-12)
(1.61322e-10 3.71751e-11 1.17677e-12)
(1.59419e-10 3.6627e-11 5.78229e-12)
(1.55499e-10 3.71131e-11 3.25747e-11)
(1.47407e-10 3.77107e-11 9.24378e-11)
(3.23352e-10 1.32472e-10 5.64388e-10)
(1.34683e-10 3.24242e-11 1.14073e-10)
(1.46402e-10 3.39402e-11 1.32922e-10)
(3.4167e-10 9.982e-11 4.6405e-10)
(6.39866e-11 -1.08534e-11 1.24535e-10)
(4.03252e-10 5.90872e-10 3.52117e-12)
(2.39913e-10 4.54259e-10 4.82424e-12)
(4.72908e-10 3.65233e-10 3.02629e-12)
(3.11549e-10 8.31599e-10 6.22258e-12)
(4.00222e-10 5.90392e-10 1.27235e-12)
(2.3407e-10 4.58426e-10 1.83346e-12)
(4.602e-10 3.7006e-10 5.24891e-13)
(2.97447e-10 8.28209e-10 1.20678e-13)
(3.92628e-10 5.88547e-10 -9.38625e-14)
(4.69263e-10 3.67284e-10 4.58646e-12)
(3.05812e-10 8.31389e-10 1.72191e-12)
(3.7991e-10 5.80357e-10 -6.82882e-12)
(2.86001e-10 8.11624e-10 -5.81289e-12)
(2.09496e-10 4.61474e-10 -4.13766e-12)
(4.47268e-10 3.63586e-10 -8.59812e-12)
(4.45014e-10 3.68066e-10 -5.54862e-12)
(2.84935e-10 8.14448e-10 -6.89893e-12)
(3.80695e-10 5.77337e-10 -6.81591e-12)
(3.8091e-10 5.82811e-10 -4.7579e-12)
(2.07817e-10 4.65123e-10 -4.23011e-12)
(4.51141e-10 3.72233e-10 3.56847e-13)
(2.89376e-10 8.23879e-10 -3.94818e-12)
(3.85894e-10 5.86302e-10 -2.76423e-12)
(4.45301e-10 3.71213e-10 -5.67287e-12)
(2.85122e-10 8.1869e-10 -4.33744e-12)
(3.70182e-10 5.63216e-10 -5.96981e-12)
(2.76897e-10 7.94161e-10 -7.79815e-12)
(2.05532e-10 4.39163e-10 -6.63626e-12)
(4.39047e-10 3.52903e-10 -5.01972e-12)
(3.71365e-10 5.64544e-10 -6.84728e-12)
(4.37861e-10 3.52039e-10 -6.8642e-12)
(2.75861e-10 7.92507e-10 -6.24486e-12)
(3.69118e-10 5.62345e-10 -6.62141e-12)
(2.04781e-10 4.39018e-10 -6.5005e-12)
(4.35626e-10 3.50467e-10 -6.95583e-12)
(2.73631e-10 7.89244e-10 -6.20184e-12)
(3.68021e-10 5.60772e-10 -5.9601e-12)
(4.36601e-10 3.51635e-10 -4.76514e-12)
(2.74661e-10 7.91063e-10 -7.66232e-12)
(3.65045e-10 5.57074e-10 -6.64778e-12)
(2.70486e-10 7.8202e-10 -6.0259e-12)
(2.01952e-10 4.34273e-10 -6.13434e-12)
(4.32106e-10 3.46482e-10 -7.07737e-12)
(4.32334e-10 3.47981e-10 -4.91646e-12)
(2.7103e-10 7.83623e-10 -7.54857e-12)
(3.64475e-10 5.55518e-10 -5.96363e-12)
(3.65762e-10 5.58077e-10 -5.93323e-12)
(2.02125e-10 4.34959e-10 -6.28398e-12)
(4.34438e-10 3.49809e-10 -4.55842e-12)
(2.72642e-10 7.87398e-10 -7.71686e-12)
(3.67008e-10 5.59695e-10 -6.56339e-12)
(4.33061e-10 3.48803e-10 -6.82776e-12)
(2.717e-10 7.85266e-10 -6.19455e-12)
(3.55032e-10 5.41051e-10 -6.73578e-12)
(2.63333e-10 7.64936e-10 -8.12452e-12)
(1.95976e-10 4.1847e-10 -6.73764e-12)
(4.24062e-10 3.37432e-10 -5.29901e-12)
(3.5647e-10 5.43152e-10 -7.29966e-12)
(4.22567e-10 3.3606e-10 -7.46055e-12)
(2.62231e-10 7.6228e-10 -6.72703e-12)
(3.53883e-10 5.39627e-10 -7.46553e-12)
(1.95431e-10 4.17829e-10 -6.5811e-12)
(4.20403e-10 3.3304e-10 -7.72859e-12)
(2.60053e-10 7.57091e-10 -6.49098e-12)
(3.52657e-10 5.37142e-10 -6.82147e-12)
(4.21299e-10 3.35092e-10 -5.58557e-12)
(2.61114e-10 7.59893e-10 -8.05938e-12)
(3.47961e-10 5.30764e-10 -6.42708e-12)
(2.54387e-10 7.43766e-10 -3.70857e-12)
(1.92194e-10 4.09295e-10 -4.93946e-12)
(4.14432e-10 3.2587e-10 -5.83119e-12)
(4.15642e-10 3.28551e-10 -4.5346e-12)
(2.55833e-10 7.4756e-10 -6.30816e-12)
(3.46292e-10 5.27476e-10 -4.93122e-12)
(3.49507e-10 5.32682e-10 -6.25004e-12)
(1.92896e-10 4.10207e-10 -5.48309e-12)
(4.19118e-10 3.31782e-10 -5.20383e-12)
(2.58825e-10 7.54342e-10 -7.6681e-12)
(3.51396e-10 5.35475e-10 -7.24271e-12)
(4.17262e-10 3.29879e-10 -6.92023e-12)
(2.57336e-10 7.50826e-10 -5.75253e-12)
(3.3288e-10 4.85696e-10 5.78056e-11)
(2.45347e-10 6.92463e-10 5.56688e-11)
(2.02665e-10 3.52046e-10 8.75431e-11)
(4.05677e-10 2.98254e-10 4.31724e-11)
(3.33099e-10 4.93209e-10 4.03958e-11)
(4.06886e-10 2.92066e-10 5.90524e-11)
(2.46588e-10 6.82249e-10 7.73712e-11)
(3.32964e-10 4.79551e-10 7.54723e-11)
(2.04621e-10 3.48028e-10 1.01683e-10)
(4.11017e-10 2.77559e-10 1.08307e-10)
(2.51663e-10 6.54782e-10 1.36872e-10)
(3.34041e-10 4.67718e-10 1.03144e-10)
(4.07926e-10 2.8722e-10 8.09644e-11)
(2.48466e-10 6.70486e-10 1.01915e-10)
(3.43444e-10 4.05321e-10 2.34037e-10)
(2.94232e-10 4.92751e-10 3.88295e-10)
(2.56412e-10 2.58973e-10 3.23206e-10)
(4.37181e-10 1.82616e-10 3.58924e-10)
(4.25981e-10 2.26341e-10 2.64398e-10)
(2.75893e-10 5.59014e-10 3.0095e-10)
(3.51917e-10 3.51228e-10 3.14129e-10)
(3.3937e-10 4.31752e-10 1.79869e-10)
(2.47978e-10 2.75823e-10 2.80305e-10)
(4.15409e-10 2.67422e-10 1.45277e-10)
(2.5717e-10 6.3438e-10 1.7803e-10)
(3.36204e-10 4.56293e-10 1.33052e-10)
(4.21407e-10 2.47273e-10 1.97416e-10)
(2.64793e-10 6.02958e-10 2.33932e-10)
(5.40948e-10 1.95878e-10 3.3419e-12)
(5.22609e-10 9.80505e-11 3.08995e-13)
(1.80288e-10 4.47575e-11 6.24533e-13)
(5.29662e-10 9.44829e-11 2.70637e-12)
(5.24728e-10 2.03199e-10 -3.25233e-13)
(5.38886e-10 1.96967e-10 4.0378e-12)
(1.80946e-10 4.47492e-11 7.99713e-13)
(5.32995e-10 9.2946e-11 2.13303e-12)
(1.13631e-10 1.05722e-09 5.79232e-12)
(2.24901e-10 1.31838e-09 -8.2571e-13)
(1.49857e-10 1.14201e-09 -1.64619e-12)
(1.58813e-10 1.15772e-09 2.64231e-12)
(2.30665e-10 1.33192e-09 3.53521e-12)
(1.61695e-10 1.15985e-09 4.23e-12)
(1.01685e-10 1.04661e-09 -2.60664e-13)
(1.10591e-10 1.05727e-09 3.1516e-12)
(5.14524e-10 1.98118e-10 -7.38815e-12)
(5.10031e-10 2.04679e-10 -4.89427e-12)
(5.14102e-10 1.01566e-10 5.09662e-14)
(1.76566e-10 4.56025e-11 -1.65071e-12)
(5.09141e-10 1.02918e-10 -4.20517e-12)
(5.19565e-10 2.0498e-10 2.08832e-13)
(5.10021e-10 2.06171e-10 -5.7201e-12)
(5.11059e-10 9.73762e-11 -6.2324e-12)
(1.7593e-10 4.51825e-11 -1.82516e-12)
(5.08909e-10 1.00644e-10 -3.93254e-12)
(9.58096e-11 1.02666e-09 -4.71513e-12)
(9.59243e-11 1.02948e-09 -4.63216e-12)
(2.11113e-10 1.2739e-09 -2.28573e-12)
(1.47377e-10 1.13713e-09 -2.40429e-12)
(1.43695e-10 1.12502e-09 -3.69468e-12)
(1.42772e-10 1.122e-09 -5.15486e-12)
(2.09589e-10 1.27277e-09 -2.47203e-12)
(1.43376e-10 1.12331e-09 -4.03632e-12)
(9.9147e-11 1.04291e-09 -2.30162e-12)
(9.59545e-11 1.03179e-09 -3.09313e-12)
(3.80725e-10 5.74456e-10 -6.34184e-12)
(2.86947e-10 8.10024e-10 -7.62697e-12)
(2.14469e-10 4.48204e-10 -6.8498e-12)
(4.49067e-10 3.61046e-10 -5.99567e-12)
(3.81375e-10 5.76177e-10 -7.48896e-12)
(2.86305e-10 8.0818e-10 -6.22582e-12)
(4.48961e-10 3.59247e-10 -7.25949e-12)
(3.79124e-10 5.73557e-10 -6.89884e-12)
(2.12742e-10 4.48768e-10 -6.99098e-12)
(2.81957e-10 8.04393e-10 -6.5827e-12)
(4.44479e-10 3.58523e-10 -6.98555e-12)
(2.842e-10 8.0672e-10 -7.86354e-12)
(4.46971e-10 3.59217e-10 -4.80935e-12)
(3.76838e-10 5.71759e-10 -6.2236e-12)
(9.57103e-11 1.02637e-09 -6.07635e-12)
(9.4361e-11 1.02326e-09 -5.97087e-12)
(2.03597e-10 1.27077e-09 -7.00174e-12)
(1.3722e-10 1.11173e-09 -7.22291e-12)
(1.39882e-10 1.11791e-09 -6.75218e-12)
(1.42505e-10 1.12199e-09 -5.4448e-12)
(2.05653e-10 1.27532e-09 -6.10175e-12)
(1.40826e-10 1.11914e-09 -6.70685e-12)
(9.0994e-11 1.01741e-09 -6.38505e-12)
(9.34314e-11 1.02251e-09 -7.05182e-12)
(5.15592e-10 1.96684e-10 -5.73843e-12)
(5.15887e-10 1.94584e-10 -6.30408e-12)
(5.08932e-10 9.41838e-11 -4.90739e-12)
(1.75234e-10 4.36723e-11 -1.5445e-12)
(5.1075e-10 9.40779e-11 -3.49926e-12)
(5.10885e-10 1.94711e-10 -6.19499e-12)
(5.14668e-10 1.94743e-10 -4.65706e-12)
(5.12583e-10 9.48201e-11 -4.44774e-12)
(1.7572e-10 4.38255e-11 -1.92277e-12)
(5.12839e-10 9.38436e-11 -5.29368e-12)
(3.72238e-10 5.67121e-10 -7.20866e-12)
(2.06661e-10 4.44432e-10 -6.50542e-12)
(2.7749e-10 7.95391e-10 -6.39676e-12)
(4.3939e-10 3.53813e-10 -7.69607e-12)
(3.71886e-10 5.6538e-10 -6.40731e-12)
(2.77816e-10 7.97094e-10 -8.07691e-12)
(4.39177e-10 3.55792e-10 -5.58497e-12)
(3.72985e-10 5.68361e-10 -6.45936e-12)
(2.06499e-10 4.45661e-10 -6.73288e-12)
(2.7987e-10 8.01892e-10 -8.25347e-12)
(4.41929e-10 3.58176e-10 -4.72965e-12)
(3.74852e-10 5.70377e-10 -6.92546e-12)
(2.78403e-10 7.99148e-10 -6.74661e-12)
(4.39794e-10 3.57048e-10 -7.40242e-12)
(5.06136e-10 1.90763e-10 -4.88267e-12)
(5.04274e-10 1.90304e-10 -6.02805e-12)
(5.00804e-10 9.0852e-11 -4.80529e-12)
(1.72405e-10 4.24298e-11 -1.42852e-12)
(5.01352e-10 9.14328e-11 -3.28687e-12)
(5.02273e-10 1.89005e-10 -6.01289e-12)
(5.03536e-10 1.90216e-10 -4.48329e-12)
(5.03683e-10 9.15983e-11 -3.53497e-12)
(1.72753e-10 4.25731e-11 -1.70408e-12)
(5.02641e-10 9.15769e-11 -4.84472e-12)
(8.774e-11 1.00629e-09 -7.13528e-12)
(8.66695e-11 1.00308e-09 -6.17296e-12)
(1.92919e-10 1.24643e-09 -6.74539e-12)
(1.29961e-10 1.09218e-09 -6.81627e-12)
(1.31413e-10 1.09604e-09 -6.73494e-12)
(1.33199e-10 1.10034e-09 -6.68729e-12)
(1.9411e-10 1.24932e-09 -6.58422e-12)
(1.31933e-10 1.09703e-09 -6.8823e-12)
(8.49259e-11 9.9888e-10 -6.04919e-12)
(8.61979e-11 1.00227e-09 -7.07384e-12)
(8.81247e-11 1.00682e-09 -6.13364e-12)
(8.91107e-11 1.0092e-09 -7.24465e-12)
(1.36506e-10 1.10987e-09 -7.14959e-12)
(1.98528e-10 1.25583e-09 -6.50068e-12)
(1.3518e-10 1.10423e-09 -6.99235e-12)
(9.03594e-11 1.01578e-09 -7.44611e-12)
(8.9358e-11 1.0103e-09 -6.31487e-12)
(1.33639e-10 1.10091e-09 -6.77662e-12)
(1.97435e-10 1.25395e-09 -6.32126e-12)
(1.3483e-10 1.10321e-09 -6.81622e-12)
(5.06316e-10 1.91226e-10 -6.6035e-12)
(5.0545e-10 1.94009e-10 -5.16771e-12)
(5.06364e-10 9.45003e-11 -3.32699e-12)
(1.73778e-10 4.34243e-11 -1.87654e-12)
(5.04283e-10 9.47699e-11 -5.22958e-12)
(5.09391e-10 1.94802e-10 -4.59731e-12)
(5.05785e-10 1.9457e-10 -6.63761e-12)
(5.04081e-10 9.24367e-11 -5.36711e-12)
(1.73367e-10 4.31904e-11 -1.6598e-12)
(5.03592e-10 9.38729e-11 -3.82757e-12)
(4.98828e-10 1.86134e-10 -6.08072e-12)
(4.98798e-10 1.88089e-10 -4.54955e-12)
(4.99548e-10 9.05907e-11 -3.15458e-12)
(1.71485e-10 4.20364e-11 -1.68556e-12)
(4.98152e-10 9.06848e-11 -4.77363e-12)
(5.01574e-10 1.88812e-10 -4.3898e-12)
(4.99229e-10 1.88421e-10 -6.02083e-12)
(4.974e-10 8.91434e-11 -4.89031e-12)
(1.71118e-10 4.18564e-11 -1.45832e-12)
(4.97331e-10 9.01486e-11 -3.34335e-12)
(8.27674e-11 9.90194e-10 -5.84723e-12)
(8.37363e-11 9.92756e-10 -6.8695e-12)
(1.89791e-10 1.23732e-09 -6.39402e-12)
(1.2957e-10 1.09101e-09 -6.70799e-12)
(1.28706e-10 1.08675e-09 -6.67411e-12)
(1.27239e-10 1.08302e-09 -6.56011e-12)
(1.8887e-10 1.23509e-09 -6.35978e-12)
(1.28378e-10 1.08582e-09 -6.51141e-12)
(8.46046e-11 9.97816e-10 -7.04313e-12)
(8.40025e-11 9.93636e-10 -5.95722e-12)
(3.626e-10 5.53205e-10 -5.89506e-12)
(2.69761e-10 7.8063e-10 -7.52692e-12)
(2.00253e-10 4.30022e-10 -6.35167e-12)
(4.31406e-10 3.45779e-10 -4.60848e-12)
(3.63775e-10 5.5463e-10 -6.53409e-12)
(2.68815e-10 7.78804e-10 -6.11553e-12)
(4.30135e-10 3.44923e-10 -6.73567e-12)
(3.61736e-10 5.52244e-10 -6.67757e-12)
(1.99791e-10 4.2965e-10 -6.24123e-12)
(2.67238e-10 7.75338e-10 -6.23908e-12)
(4.28576e-10 3.42915e-10 -7.15761e-12)
(2.67938e-10 7.77213e-10 -7.59536e-12)
(4.29138e-10 3.4433e-10 -4.85635e-12)
(3.60949e-10 5.50549e-10 -6.16079e-12)
(8.24443e-11 9.89479e-10 -6.85705e-12)
(8.17078e-11 9.8589e-10 -5.94234e-12)
(1.85102e-10 1.22562e-09 -6.51546e-12)
(1.2444e-10 1.0738e-09 -6.72295e-12)
(1.25543e-10 1.07749e-09 -6.54857e-12)
(1.26861e-10 1.08222e-09 -6.48269e-12)
(1.86033e-10 1.22836e-09 -6.39856e-12)
(1.25918e-10 1.07849e-09 -6.66967e-12)
(8.0479e-11 9.81712e-10 -5.95302e-12)
(8.1394e-11 9.85016e-10 -6.86965e-12)
(4.98428e-10 1.85833e-10 -4.45345e-12)
(4.96309e-10 1.85519e-10 -5.93791e-12)
(4.94061e-10 8.76067e-11 -4.95476e-12)
(1.70034e-10 4.12288e-11 -1.45263e-12)
(4.94284e-10 8.84216e-11 -3.33695e-12)
(4.95137e-10 1.83692e-10 -6.18785e-12)
(4.95715e-10 1.85333e-10 -4.49493e-12)
(4.96626e-10 8.86273e-11 -3.21492e-12)
(1.70387e-10 4.13849e-11 -1.66253e-12)
(4.95375e-10 8.8718e-11 -4.73158e-12)
(3.58137e-10 5.46429e-10 -7.15201e-12)
(1.97751e-10 4.24274e-10 -6.42807e-12)
(2.64189e-10 7.67011e-10 -6.58096e-12)
(4.25003e-10 3.38387e-10 -7.61821e-12)
(3.57357e-10 5.44433e-10 -6.64511e-12)
(2.64854e-10 7.692e-10 -7.95094e-12)
(4.25484e-10 3.40125e-10 -5.32509e-12)
(3.58957e-10 5.47625e-10 -6.33525e-12)
(1.98077e-10 4.24878e-10 -6.5167e-12)
(2.66478e-10 7.73488e-10 -7.83472e-12)
(4.27678e-10 3.42126e-10 -4.8515e-12)
(3.60142e-10 5.49425e-10 -6.84714e-12)
(2.65612e-10 7.71173e-10 -6.48552e-12)
(4.26392e-10 3.40975e-10 -7.1279e-12)
(4.90874e-10 1.80131e-10 -5.07436e-12)
(4.8841e-10 1.79367e-10 -6.63093e-12)
(4.85924e-10 8.34862e-11 -5.53635e-12)
(1.67287e-10 3.97781e-11 -1.75513e-12)
(4.86447e-10 8.45278e-11 -3.99e-12)
(4.86625e-10 1.76789e-10 -6.75123e-12)
(4.87646e-10 1.79039e-10 -5.21042e-12)
(4.8938e-10 8.50944e-11 -3.78196e-12)
(1.67819e-10 3.99981e-11 -1.94229e-12)
(4.87901e-10 8.50238e-11 -5.34555e-12)
(7.82763e-11 9.70264e-10 -7.05277e-12)
(7.74708e-11 9.65104e-10 -6.01931e-12)
(1.76857e-10 1.1993e-09 -6.20302e-12)
(1.18175e-10 1.04917e-09 -6.23289e-12)
(1.19878e-10 1.05463e-09 -6.56364e-12)
(1.21512e-10 1.06146e-09 -6.73767e-12)
(1.78206e-10 1.20324e-09 -6.33785e-12)
(1.20381e-10 1.05608e-09 -6.77505e-12)
(7.57039e-11 9.5882e-10 -5.45743e-12)
(7.70701e-11 9.6381e-10 -6.85163e-12)
(7.85984e-11 9.71339e-10 -6.0594e-12)
(7.95024e-11 9.75132e-10 -7.00184e-12)
(1.2412e-10 1.07269e-09 -6.66219e-12)
(1.82422e-10 1.21654e-09 -6.4926e-12)
(1.23375e-10 1.06802e-09 -6.82501e-12)
(8.02257e-11 9.80718e-10 -6.9773e-12)
(7.97587e-11 9.76184e-10 -6.07249e-12)
(1.21916e-10 1.06268e-09 -6.82258e-12)
(1.81513e-10 1.21347e-09 -6.53891e-12)
(1.23056e-10 1.06683e-09 -6.70186e-12)
(4.91439e-10 1.80505e-10 -6.62305e-12)
(4.91851e-10 1.82541e-10 -4.90402e-12)
(4.93041e-10 8.71566e-11 -3.39767e-12)
(1.69186e-10 4.07566e-11 -1.79166e-12)
(4.91724e-10 8.7165e-11 -5.02686e-12)
(4.94598e-10 1.83402e-10 -4.63184e-12)
(4.92415e-10 1.82847e-10 -6.304e-12)
(4.90477e-10 8.56945e-11 -5.33338e-12)
(1.68784e-10 4.05653e-11 -1.60892e-12)
(4.90655e-10 8.66883e-11 -3.7011e-12)
(4.80508e-10 1.718e-10 -4.96582e-12)
(4.81951e-10 1.74593e-10 -4.46448e-12)
(4.84457e-10 8.27397e-11 -3.86497e-12)
(1.65954e-10 3.90951e-11 -1.95324e-12)
(4.8269e-10 8.25069e-11 -5.17532e-12)
(4.85876e-10 1.76293e-10 -5.11022e-12)
(4.82933e-10 1.75058e-10 -6.11831e-12)
(4.79978e-10 8.06663e-11 -4.52571e-12)
(1.65262e-10 3.88274e-11 -1.64749e-12)
(4.80817e-10 8.18658e-11 -3.48114e-12)
(7.15427e-11 9.4191e-10 -1.42282e-12)
(7.33891e-11 9.48763e-10 -4.61151e-12)
(1.71792e-10 1.18584e-09 -4.47186e-12)
(1.17561e-10 1.04755e-09 -5.92701e-12)
(1.15809e-10 1.04042e-09 -4.97761e-12)
(1.12714e-10 1.031e-09 -2.20396e-12)
(1.69835e-10 1.18039e-09 -3.44407e-12)
(1.15101e-10 1.03843e-09 -4.33633e-12)
(7.52184e-11 9.57375e-10 -6.21887e-12)
(7.39519e-11 9.5052e-10 -4.21961e-12)
(3.4248e-10 5.21581e-10 -1.88888e-12)
(2.52878e-10 7.40072e-10 -3.51174e-12)
(1.8975e-10 3.98554e-10 1.14824e-12)
(4.12966e-10 3.24124e-10 -2.3768e-12)
(3.44736e-10 5.25229e-10 -4.40143e-12)
(2.51148e-10 7.35438e-10 1.91415e-13)
(4.1091e-10 3.21493e-10 -2.49454e-12)
(3.40681e-10 5.19047e-10 -4.04957e-13)
(1.89012e-10 3.9731e-10 2.87102e-12)
(2.47978e-10 7.25863e-10 7.50138e-12)
(4.0793e-10 3.16177e-10 2.69117e-12)
(2.49452e-10 7.31009e-10 1.93138e-12)
(4.0911e-10 3.1968e-10 1.54259e-12)
(3.38861e-10 5.14783e-10 3.57197e-12)
(7.09128e-11 9.39948e-10 -1.40636e-12)
(6.93028e-11 9.30805e-10 3.57997e-12)
(1.05874e-10 1.0068e-09 1.17397e-11)
(1.08661e-10 1.0168e-09 4.64684e-12)
(1.11867e-10 1.02886e-09 -1.14132e-12)
(1.09572e-10 1.01951e-09 2.75392e-12)
(6.68284e-11 9.1887e-10 1.26636e-11)
(6.86548e-11 9.28366e-10 4.47067e-12)
(4.79651e-10 1.71106e-10 -2.87628e-12)
(4.76515e-10 1.69211e-10 -1.89746e-12)
(4.72993e-10 7.71742e-11 7.41773e-13)
(1.62703e-10 3.77514e-11 -4.09854e-13)
(4.7397e-10 7.85161e-11 2.85808e-13)
(4.74052e-10 1.65142e-10 3.12908e-12)
(4.75395e-10 1.68614e-10 5.42739e-13)
(4.78216e-10 7.96761e-11 -2.20059e-12)
(1.63571e-10 3.80329e-11 -1.12665e-12)
(4.76268e-10 7.92282e-11 -2.55664e-12)
(3.34186e-10 5.03441e-10 1.94231e-11)
(1.89885e-10 3.79286e-10 2.80557e-11)
(2.44631e-10 7.00453e-10 4.15738e-11)
(4.04709e-10 3.02367e-10 2.95153e-11)
(3.33246e-10 4.9765e-10 3.00193e-11)
(2.44857e-10 7.07876e-10 2.79936e-11)
(4.04528e-10 3.07219e-10 2.16256e-11)
(3.35527e-10 5.06912e-10 1.34931e-11)
(1.89968e-10 3.81275e-10 2.31126e-11)
(2.46808e-10 7.20677e-10 1.14845e-11)
(4.06892e-10 3.13613e-10 8.82848e-12)
(3.37444e-10 5.11781e-10 6.80629e-12)
(2.45685e-10 7.14268e-10 2.00732e-11)
(4.05553e-10 3.09872e-10 1.29807e-11)
(4.71774e-10 1.5415e-10 3.58686e-11)
(4.74058e-10 1.48933e-10 5.75564e-11)
(4.65418e-10 6.76308e-11 7.06014e-11)
(1.57217e-10 3.66575e-11 1.73813e-11)
(4.65139e-10 6.94385e-11 5.25977e-11)
(4.79467e-10 1.39363e-10 1.06275e-10)
(4.74151e-10 1.47514e-10 6.87163e-11)
(4.66706e-10 7.1317e-11 2.74055e-11)
(1.582e-10 3.64796e-11 1.23423e-11)
(4.66753e-10 6.99793e-11 3.71803e-11)
(6.55573e-11 8.81166e-10 6.17373e-11)
(6.81516e-11 8.6074e-10 9.69878e-11)
(1.04334e-10 9.12535e-10 1.61422e-10)
(1.01082e-10 9.42321e-10 1.07674e-10)
(1.00287e-10 9.68741e-10 6.07646e-11)
(1.00717e-10 9.49087e-10 9.37849e-11)
(7.54383e-11 8.23167e-10 1.68519e-10)
(6.93733e-11 8.53884e-10 1.10626e-10)
(6.52889e-11 8.85437e-10 5.39538e-11)
(6.52526e-11 8.99837e-10 3.22559e-11)
(1.04973e-10 1.00391e-09 1.48568e-11)
(1.03034e-10 9.9128e-10 2.6784e-11)
(6.63055e-11 9.16077e-10 1.47792e-11)
(6.54721e-11 9.03479e-10 2.79343e-11)
(1.00726e-10 9.73039e-10 5.22731e-11)
(1.02337e-10 9.87535e-10 3.19954e-11)
(4.71424e-10 1.55779e-10 2.87898e-11)
(4.7063e-10 1.60333e-10 1.75921e-11)
(4.71315e-10 7.58952e-11 4.96061e-12)
(1.6078e-10 3.69825e-11 2.17309e-12)
(4.6978e-10 7.51223e-11 7.21174e-12)
(4.73393e-10 1.64121e-10 6.52754e-12)
(4.71473e-10 1.61166e-10 1.29294e-11)
(4.67267e-10 7.29753e-11 1.79138e-11)
(1.59863e-10 3.68005e-11 4.01932e-12)
(4.67587e-10 7.44652e-11 1.32623e-11)
(5.02439e-10 7.35824e-11 3.75875e-10)
(4.92157e-10 1.11468e-10 2.33337e-10)
(4.65646e-10 6.45092e-11 9.73091e-11)
(1.54307e-10 3.73651e-11 4.56418e-11)
(4.64717e-10 6.05804e-11 1.34232e-10)
(4.81502e-10 1.35494e-10 1.25155e-10)
(4.91193e-10 1.18303e-10 1.98396e-10)
(4.43891e-10 4.9708e-11 2.59629e-10)
(1.51877e-10 3.83547e-11 6.3649e-11)
(4.58983e-10 5.71843e-11 1.84793e-10)
(1.34739e-10 6.12278e-10 4.47075e-10)
(9.90365e-11 7.29105e-10 3.18123e-10)
(1.06007e-10 9.01548e-10 1.83428e-10)
(1.16736e-10 8.44819e-10 2.64663e-10)
(1.54545e-10 7.07016e-10 4.07005e-10)
(1.22089e-10 8.20907e-10 2.97181e-10)
(7.82889e-11 8.11897e-10 1.91479e-10)
(9.24281e-11 7.53455e-10 2.82098e-10)
(4.14133e-10 1.89831e-10 5.36613e-10)
(3.28007e-10 4.05717e-10 4.87815e-10)
(4.2237e-10 -1.11389e-11 8.2104e-10)
(4.61144e-10 1.33346e-10 4.77128e-10)
(3.77787e-10 2.78714e-10 4.10414e-10)
(3.85308e-10 3.11654e-10 6.03613e-10)
(4.99365e-10 4.60254e-11 6.40091e-10)
(3.93791e-10 1.74778e-10 5.15904e-10)
(3.93596e-10 4.19947e-10 5.90254e-10)
(3.77056e-10 5.58729e-11 5.17883e-10)
(7.57631e-11 -4.17281e-11 1.7792e-10)
(4.63835e-10 -1.00015e-10 6.55409e-10)
(6.99186e-11 -1.92891e-11 1.44309e-10)
(4.35318e-10 1.20642e-10 5.75981e-10)
(4.81087e-10 -5.75091e-11 9.01403e-10)
(4.16192e-10 3.31677e-10 6.65652e-10)
(5.47585e-10 -8.23841e-11 7.38287e-10)
(1.52975e-10 5.64739e-10 4.95115e-10)
(2.56794e-10 4.09952e-10 6.40939e-10)
(3.28699e-10 4.88709e-10 5.94082e-10)
(1.70997e-10 6.62427e-10 4.47671e-10)
(2.7039e-10 5.12724e-10 5.63378e-10)
(3.15269e-10 3.78218e-10 6.8705e-10)
(5.06273e-10 5.48321e-11 4.41563e-10)
(5.46219e-10 -6.90472e-11 7.07704e-10)
(7.46258e-11 -4.76644e-11 1.89657e-10)
(4.87355e-10 -1.37285e-10 6.8313e-10)
(5.79605e-10 -1.39872e-10 7.85579e-10)
(4.28669e-10 2.90924e-11 3.72434e-10)
(1.3625e-10 3.60611e-12 2.14496e-10)
(4.28307e-10 -1.47167e-11 5.24522e-10)
(3.81677e-10 5.76492e-10 7.58712e-12)
(2.38261e-10 4.57847e-10 1.25254e-11)
(3.95929e-10 3.97227e-10 8.76509e-12)
(2.46526e-10 6.46074e-10 1.04407e-11)
(3.72205e-10 5.77239e-10 1.25795e-12)
(2.25373e-10 4.62135e-10 -1.81052e-12)
(3.78289e-10 4.03979e-10 -1.78106e-12)
(2.27513e-10 6.5044e-10 -7.92445e-13)
(3.66462e-10 5.77917e-10 3.19123e-13)
(3.84907e-10 4.01614e-10 6.82099e-13)
(2.32916e-10 6.4928e-10 -2.16715e-13)
(3.56082e-10 5.67592e-10 -6.88836e-12)
(2.20591e-10 6.36063e-10 -5.6562e-12)
(2.12347e-10 4.55871e-10 -4.5782e-12)
(3.69417e-10 3.94412e-10 -6.93191e-12)
(3.67466e-10 3.96985e-10 -5.36621e-12)
(2.19834e-10 6.37526e-10 -5.87538e-12)
(3.57407e-10 5.65541e-10 -6.88968e-12)
(3.57482e-10 5.7741e-10 -2.99941e-12)
(2.10969e-10 4.67322e-10 -4.22094e-12)
(3.71776e-10 4.06626e-10 -1.67309e-12)
(2.21936e-10 6.50908e-10 -2.49693e-12)
(3.61605e-10 5.77681e-10 -1.26853e-12)
(3.66984e-10 4.07417e-10 -4.19334e-12)
(2.19133e-10 6.49542e-10 -2.99196e-12)
(3.48557e-10 5.51731e-10 -6.58615e-12)
(2.1317e-10 6.21085e-10 -7.06895e-12)
(2.07068e-10 4.39733e-10 -6.67777e-12)
(3.61622e-10 3.82974e-10 -5.99622e-12)
(3.48771e-10 5.5224e-10 -6.97691e-12)
(3.61397e-10 3.82342e-10 -7.16255e-12)
(2.13422e-10 6.19877e-10 -6.42778e-12)
(2.95664e-10 6.35504e-10 -7.88887e-12)
(2.41158e-10 9.35116e-10 -6.99057e-12)
(2.9455e-10 6.33664e-10 -5.49728e-12)
(2.42292e-10 9.37354e-10 -7.69076e-12)
(2.96659e-10 6.365e-10 -5.47212e-12)
(2.44459e-10 9.41101e-10 -7.61452e-12)
(2.97694e-10 6.38059e-10 -7.96816e-12)
(2.43429e-10 9.39222e-10 -6.93709e-12)
(3.4557e-10 5.48946e-10 -6.56685e-12)
(2.04514e-10 4.37595e-10 -6.28601e-12)
(3.57706e-10 3.79973e-10 -6.92958e-12)
(2.09887e-10 6.16608e-10 -6.2143e-12)
(3.44968e-10 5.48149e-10 -6.32781e-12)
(3.58253e-10 3.80523e-10 -5.70812e-12)
(2.10715e-10 6.16853e-10 -6.8027e-12)
(3.42201e-10 5.43327e-10 -6.52909e-12)
(2.07666e-10 6.1025e-10 -6.06109e-12)
(2.02306e-10 4.32447e-10 -6.00472e-12)
(3.54891e-10 3.75288e-10 -6.8145e-12)
(3.55003e-10 3.7598e-10 -5.57936e-12)
(2.08286e-10 6.10424e-10 -6.62624e-12)
(3.41928e-10 5.42533e-10 -6.26102e-12)
(2.92583e-10 6.30634e-10 -5.43727e-12)
(2.40173e-10 9.32969e-10 -7.69731e-12)
(2.93597e-10 6.32517e-10 -7.85919e-12)
(2.39286e-10 9.30603e-10 -6.87841e-12)
(2.91823e-10 6.29631e-10 -7.81037e-12)
(2.37689e-10 9.27094e-10 -6.70524e-12)
(2.38497e-10 9.28845e-10 -7.47349e-12)
(2.91047e-10 6.28024e-10 -5.3931e-12)
(3.43917e-10 5.46907e-10 -6.40077e-12)
(2.03366e-10 4.35862e-10 -6.44934e-12)
(3.57068e-10 3.79618e-10 -5.72398e-12)
(2.09369e-10 6.15862e-10 -6.84696e-12)
(3.4437e-10 5.47529e-10 -6.64607e-12)
(3.56495e-10 3.79043e-10 -6.93337e-12)
(2.09566e-10 6.14441e-10 -6.22588e-12)
(3.34623e-10 5.29442e-10 -6.91285e-12)
(2.02466e-10 5.96456e-10 -7.13456e-12)
(1.97307e-10 4.19787e-10 -6.79009e-12)
(3.48323e-10 3.65492e-10 -6.19093e-12)
(3.35008e-10 5.3024e-10 -7.15772e-12)
(3.47881e-10 3.64713e-10 -7.41914e-12)
(2.02691e-10 5.94899e-10 -6.55624e-12)
(3.31785e-10 5.24545e-10 -7.02415e-12)
(1.95386e-10 4.15461e-10 -6.29925e-12)
(3.44801e-10 3.59817e-10 -7.24264e-12)
(1.99813e-10 5.88646e-10 -6.18182e-12)
(3.31265e-10 5.23284e-10 -6.71471e-12)
(3.45129e-10 3.60925e-10 -6.10142e-12)
(2.00467e-10 5.89452e-10 -6.84686e-12)
(3.2642e-10 5.14509e-10 -4.76344e-12)
(1.95816e-10 5.76778e-10 -2.84423e-12)
(1.91979e-10 4.06204e-10 -3.67798e-12)
(3.39864e-10 3.51274e-10 -4.45628e-12)
(3.40187e-10 3.52838e-10 -3.88037e-12)
(1.96431e-10 5.78113e-10 -4.10991e-12)
(3.25813e-10 5.12847e-10 -3.91465e-12)
(3.30086e-10 5.2119e-10 -6.44624e-12)
(1.94385e-10 4.12211e-10 -6.12921e-12)
(3.44221e-10 3.59104e-10 -5.95936e-12)
(1.99197e-10 5.87517e-10 -6.65972e-12)
(3.3062e-10 5.22296e-10 -6.89584e-12)
(3.43672e-10 3.58034e-10 -6.96792e-12)
(1.99342e-10 5.85599e-10 -5.84472e-12)
(3.21769e-10 4.7022e-10 5.81775e-11)
(1.95298e-10 5.31282e-10 5.58561e-11)
(1.98018e-10 3.61145e-10 6.46875e-11)
(3.38327e-10 3.18445e-10 5.0081e-11)
(3.20255e-10 4.7417e-10 4.91181e-11)
(3.40737e-10 3.14346e-10 5.78356e-11)
(1.97987e-10 5.25842e-10 6.59715e-11)
(3.29029e-10 4.44976e-10 1.23012e-10)
(2.12391e-10 3.35309e-10 1.36578e-10)
(3.5567e-10 2.86056e-10 1.44098e-10)
(2.13361e-10 4.86517e-10 1.59157e-10)
(3.32434e-10 4.3724e-10 1.4232e-10)
(3.50699e-10 2.93618e-10 1.25434e-10)
(2.0866e-10 4.95581e-10 1.37474e-10)
(3.7303e-10 3.20358e-10 3.80596e-10)
(2.84168e-10 3.13377e-10 4.7633e-10)
(2.82453e-10 2.07238e-10 4.2917e-10)
(4.23653e-10 1.52119e-10 4.6254e-10)
(4.07576e-10 1.84235e-10 4.0162e-10)
(2.66556e-10 3.51746e-10 4.16796e-10)
(3.86599e-10 2.86321e-10 4.36185e-10)
(3.40999e-10 4.1791e-10 1.89476e-10)
(2.31564e-10 3.0534e-10 2.10827e-10)
(3.60446e-10 2.79188e-10 1.67459e-10)
(2.1739e-10 4.76773e-10 1.82414e-10)
(3.35819e-10 4.29117e-10 1.63494e-10)
(3.68019e-10 2.68054e-10 1.9316e-10)
(2.24716e-10 4.62945e-10 2.11095e-10)
(3.97753e-10 2.5991e-10 1.20868e-11)
(3.80652e-10 2.6511e-10 -5.21947e-12)
(3.87044e-10 2.62828e-10 -1.98777e-12)
(8.48467e-11 7.16886e-10 1.20454e-11)
(6.93667e-11 7.20057e-10 -1.21954e-12)
(7.29174e-11 7.1964e-10 -1.09906e-12)