/*--------------------------------*- C++ -*----------------------------------*\
| =========                 |                                                 |
| \\      /  F ield         | OpenFOAM: The Open Source CFD Toolbox           |
|  \\    /   O peration     | Version:  2012                                  |
|   \\  /    A nd           | Website:  www.openfoam.com                      |
|    \\/     M anipulation  |                                                 |
\*---------------------------------------------------------------------------*/
FoamFile
{
    version     2.0;
    format      ascii;
    class       volVectorField;
    location    "0.105/solid";
    object      D_0;
}
// * * * * * * * * * * * * * * * * * * * * * * * * * * * * * * * * * * * * * //

dimensions      [0 1 0 0 0 0 0];


internalField   nonuniform List<vector> 
3125
(
(1.72267e-10 2.47902e-10 -1.39567e-12)
(1.66793e-10 2.45147e-10 -3.10723e-12)
(1.57088e-10 2.36238e-10 -3.56704e-12)
(1.56025e-10 2.35112e-10 -3.53133e-12)
(1.49289e-10 2.26165e-10 -4.59458e-12)
(1.47666e-10 2.24293e-10 -4.59682e-12)
(1.32467e-10 2.02969e-10 2.99329e-11)
(1.31558e-10 1.94602e-10 5.04088e-11)
(1.62106e-10 2.40851e-10 -3.81779e-12)
(1.60209e-10 2.39442e-10 -3.76696e-12)
(1.5351e-10 2.31858e-10 -3.73167e-12)
(1.52656e-10 2.30613e-10 -3.89084e-12)
(1.41174e-10 2.17206e-10 -1.57588e-12)
(1.38666e-10 2.14323e-10 1.82116e-12)
(1.75765e-10 2.49506e-10 2.96478e-12)
(2.754e-10 1.56556e-10 9.89115e-13)
(2.44977e-10 1.00511e-09 -3.04883e-12)
(2.27455e-10 4.59866e-10 -2.89464e-12)
(2.78101e-10 1.56811e-10 2.18575e-12)
(2.18744e-10 4.50022e-10 -4.8141e-12)
(2.68237e-10 1.56869e-10 -1.37924e-12)
(2.39516e-10 9.94617e-10 -5.09799e-12)
(1.64609e-10 2.43208e-10 -3.4585e-12)
(2.32191e-10 9.85502e-10 -3.87627e-12)
(2.21277e-10 4.62715e-10 -3.44339e-12)
(2.66076e-10 1.55106e-10 -3.4946e-12)
(2.10619e-10 4.3796e-10 -6.17634e-12)
(1.5819e-10 2.37281e-10 -3.50406e-12)
(2.58884e-10 1.49371e-10 -3.07773e-12)
(2.07303e-10 4.34773e-10 -6.18966e-12)
(2.60102e-10 1.50055e-10 -3.11913e-12)
(2.05426e-10 4.29675e-10 -5.97908e-12)
(2.57646e-10 1.48611e-10 -3.01346e-12)
(1.55171e-10 2.34032e-10 -3.53892e-12)
(2.06865e-10 4.34283e-10 -6.0352e-12)
(2.56703e-10 1.47774e-10 -3.14433e-12)
(2.01182e-10 4.1862e-10 -6.59023e-12)
(1.50653e-10 2.27806e-10 -4.36017e-12)
(2.49955e-10 1.42056e-10 -3.92028e-12)
(1.98612e-10 4.12278e-10 -6.53616e-12)
(2.51461e-10 1.43225e-10 -3.70405e-12)
(1.95084e-10 4.02447e-10 -3.34388e-12)
(2.48267e-10 1.40686e-10 -3.79495e-12)
(1.45761e-10 2.22195e-10 -4.32584e-12)
(1.98151e-10 4.11325e-10 -6.28464e-12)
(2.46282e-10 1.39173e-10 -3.49839e-12)
(1.98613e-10 3.63403e-10 5.49466e-11)
(1.34078e-10 2.07741e-10 1.64866e-11)
(2.34098e-10 1.24321e-10 3.86612e-11)
(2.21068e-10 3.24412e-10 1.56957e-10)
(2.35986e-10 1.27941e-10 2.03391e-11)
(3.04404e-10 1.69957e-10 4.91293e-10)
(2.31466e-10 1.1798e-10 7.09572e-11)
(1.32741e-10 1.75515e-10 8.14947e-11)
(2.26793e-10 3.15303e-10 1.81433e-10)
(2.28464e-10 1.05036e-10 1.29899e-10)
(1.81115e-10 4.48076e-11 2.72766e-13)
(2.23419e-10 1.29515e-09 -1.35571e-12)
(1.7957e-10 4.50887e-11 -1.34894e-13)
(1.77581e-10 4.41892e-11 -2.2678e-12)
(2.18225e-10 1.27894e-09 -1.79938e-12)
(2.11507e-10 1.27136e-09 -2.38947e-12)
(2.19988e-10 4.47731e-10 -5.11382e-12)
(1.63831e-10 2.42086e-10 -3.59528e-12)
(2.64385e-10 1.52623e-10 -3.14919e-12)
(2.13961e-10 4.44784e-10 -6.90932e-12)
(2.66127e-10 1.53355e-10 -3.55163e-12)
(2.03638e-10 1.26207e-09 -6.37738e-12)
(2.09959e-10 1.27332e-09 -4.02324e-12)
(1.7613e-10 4.32727e-11 -1.66917e-12)
(1.77258e-10 4.37245e-11 -1.8857e-12)
(2.10783e-10 4.38631e-10 -6.26139e-12)
(1.59078e-10 2.3826e-10 -3.62695e-12)
(2.62059e-10 1.51957e-10 -3.1368e-12)
(2.12629e-10 4.44698e-10 -6.73065e-12)
(2.60881e-10 1.50952e-10 -3.37553e-12)
(1.73333e-10 4.20002e-11 -1.64051e-12)
(1.74142e-10 4.23831e-11 -1.46378e-12)
(1.93394e-10 1.24117e-09 -6.22064e-12)
(1.96922e-10 1.24926e-09 -6.08581e-12)
(2.01828e-10 1.25691e-09 -6.41807e-12)
(1.98099e-10 1.25042e-09 -5.71217e-12)
(1.75506e-10 4.31748e-11 -1.36005e-12)
(1.74473e-10 4.25992e-11 -1.86393e-12)
(1.7295e-10 4.18558e-11 -1.30917e-12)
(1.72133e-10 4.13892e-11 -1.68125e-12)
(1.92392e-10 1.23814e-09 -6.32757e-12)
(1.89744e-10 1.23114e-09 -5.91072e-12)
(2.05191e-10 4.29152e-10 -5.90132e-12)
(1.54366e-10 2.32984e-10 -3.54758e-12)
(2.54801e-10 1.46192e-10 -3.2447e-12)
(2.03234e-10 4.25239e-10 -6.19107e-12)
(2.55827e-10 1.46975e-10 -3.05331e-12)
(1.86373e-10 1.22088e-09 -6.19179e-12)
(1.88864e-10 1.22905e-09 -6.16233e-12)
(1.71035e-10 4.08049e-11 -1.72948e-12)
(1.71802e-10 4.12219e-11 -1.34134e-12)
(2.01476e-10 4.19365e-10 -6.63377e-12)
(1.51746e-10 2.2927e-10 -4.15126e-12)
(2.53767e-10 1.45292e-10 -3.33014e-12)
(2.02983e-10 4.24638e-10 -6.12949e-12)
(2.52679e-10 1.44308e-10 -3.62154e-12)
(1.68181e-10 3.92901e-11 -2.08585e-12)
(1.69358e-10 3.99004e-11 -1.65122e-12)
(1.77463e-10 1.19334e-09 -5.82772e-12)
(1.81736e-10 1.20517e-09 -6.5621e-12)
(1.85572e-10 1.2179e-09 -6.43663e-12)
(1.82878e-10 1.20846e-09 -6.36047e-12)
(1.7066e-10 4.06312e-11 -1.44286e-12)
(1.69797e-10 4.01109e-11 -1.92838e-12)
(1.67579e-10 3.90291e-11 -1.76592e-12)
(1.66038e-10 3.82847e-11 -1.82393e-12)
(1.75685e-10 1.18901e-09 -5.50505e-12)
(1.94607e-10 4.01085e-10 -2.40306e-12)
(1.43601e-10 2.19842e-10 -3.40608e-12)
(2.41825e-10 1.35496e-10 -4.93498e-13)
(1.92567e-10 3.88527e-10 9.0364e-12)
(2.44177e-10 1.37404e-10 -2.42443e-12)
(1.63369e-10 3.71854e-11 -9.36936e-14)
(1.65288e-10 3.79768e-11 -1.27291e-12)
(1.96988e-10 3.67013e-10 4.66908e-11)
(1.36186e-10 2.1125e-10 7.48334e-12)
(2.39672e-10 1.33248e-10 3.20652e-12)
(1.92541e-10 3.8645e-10 1.19293e-11)
(2.37499e-10 1.30895e-10 9.52806e-12)
(1.57824e-10 3.64833e-11 2.34139e-11)
(1.59726e-10 3.61899e-11 8.73403e-12)
(1.62487e-10 3.68828e-11 1.12301e-12)
(1.60555e-10 3.63267e-11 5.70431e-12)
(1.56561e-10 3.67859e-11 3.2396e-11)
(1.48427e-10 3.73795e-11 9.21316e-11)
(3.26553e-10 1.30159e-10 5.62191e-10)
(1.35387e-10 3.19991e-11 1.13663e-10)
(1.47448e-10 3.36322e-11 1.32527e-10)
(3.43044e-10 9.91001e-11 4.61769e-10)
(6.42086e-11 -1.08691e-11 1.23891e-10)
(4.09891e-10 5.8692e-10 4.8299e-12)
(2.49108e-10 4.48958e-10 5.15339e-12)
(4.80738e-10 3.61414e-10 3.96122e-12)
(3.19312e-10 8.26348e-10 7.37386e-12)
(4.0627e-10 5.86749e-10 2.48527e-12)
(2.42861e-10 4.5333e-10 2.18208e-12)
(4.66693e-10 3.66844e-10 1.28348e-12)
(3.03847e-10 8.23879e-10 1.05469e-12)
(3.98093e-10 5.85267e-10 9.62526e-13)
(4.76433e-10 3.63732e-10 5.46343e-12)
(3.12856e-10 8.26657e-10 2.77584e-12)
(3.84144e-10 5.77549e-10 -6.03609e-12)
(2.90526e-10 8.08151e-10 -5.10993e-12)
(2.15744e-10 4.57484e-10 -3.79094e-12)
(4.52001e-10 3.6099e-10 -8.07568e-12)
(4.50128e-10 3.65288e-10 -4.96516e-12)
(2.89849e-10 8.10754e-10 -6.13793e-12)
(3.84587e-10 5.74716e-10 -6.10209e-12)
(3.85488e-10 5.79885e-10 -3.90435e-12)
(2.14308e-10 4.61039e-10 -3.87883e-12)
(4.57145e-10 3.69137e-10 1.05784e-12)
(2.95228e-10 8.19758e-10 -3.08407e-12)
(3.90911e-10 5.83163e-10 -1.80037e-12)
(4.50791e-10 3.68325e-10 -5.05415e-12)
(2.90475e-10 8.14804e-10 -3.53461e-12)
(3.72798e-10 5.61468e-10 -5.64823e-12)
(2.7987e-10 7.91799e-10 -7.4232e-12)
(2.0924e-10 4.36575e-10 -6.35964e-12)
(4.42374e-10 3.51031e-10 -4.72317e-12)
(3.7401e-10 5.62741e-10 -6.49602e-12)
(4.41136e-10 3.50222e-10 -6.59153e-12)
(2.78787e-10 7.90214e-10 -5.89427e-12)
(3.71712e-10 5.60627e-10 -6.31589e-12)
(2.08471e-10 4.36449e-10 -6.22406e-12)
(4.38863e-10 3.48714e-10 -6.7046e-12)
(2.76522e-10 7.87045e-10 -5.88147e-12)
(3.70605e-10 5.59095e-10 -5.67538e-12)
(4.39851e-10 3.49843e-10 -4.49677e-12)
(2.77559e-10 7.88815e-10 -7.32652e-12)
(3.67681e-10 5.55482e-10 -6.39466e-12)
(2.73484e-10 7.79969e-10 -5.74563e-12)
(2.05636e-10 4.31866e-10 -5.86046e-12)
(4.35404e-10 3.44837e-10 -6.8548e-12)
(4.35597e-10 3.46307e-10 -4.67698e-12)
(2.73977e-10 7.8154e-10 -7.25514e-12)
(3.67147e-10 5.53956e-10 -5.72686e-12)
(3.68372e-10 5.56464e-10 -5.67241e-12)
(2.05793e-10 4.32535e-10 -6.01076e-12)
(4.37675e-10 3.48077e-10 -4.3063e-12)
(2.75538e-10 7.85236e-10 -7.40533e-12)
(3.69596e-10 5.58041e-10 -6.28752e-12)
(4.36302e-10 3.47108e-10 -6.58868e-12)
(2.74613e-10 7.83149e-10 -5.89282e-12)
(3.57969e-10 5.39549e-10 -6.78455e-12)
(2.66695e-10 7.62961e-10 -8.14414e-12)
(1.99984e-10 4.16209e-10 -6.81595e-12)
(4.27606e-10 3.35859e-10 -5.30969e-12)
(3.59439e-10 5.41653e-10 -7.3135e-12)
(4.26079e-10 3.34482e-10 -7.51248e-12)
(2.65548e-10 7.60299e-10 -6.7874e-12)
(3.56783e-10 5.38118e-10 -7.53428e-12)
(1.99413e-10 4.15567e-10 -6.67394e-12)
(4.23849e-10 3.31449e-10 -7.82678e-12)
(2.63262e-10 7.55105e-10 -6.60639e-12)
(3.55506e-10 5.35629e-10 -6.91171e-12)
(4.2478e-10 3.33514e-10 -5.65297e-12)
(2.64379e-10 7.57912e-10 -8.15129e-12)
(3.50696e-10 5.29271e-10 -6.5651e-12)
(2.57414e-10 7.41804e-10 -3.87394e-12)
(1.95983e-10 4.06973e-10 -5.09059e-12)
(4.1774e-10 3.24238e-10 -5.97752e-12)
(4.18983e-10 3.26933e-10 -4.65651e-12)
(2.58893e-10 7.45592e-10 -6.45345e-12)
(3.48999e-10 5.25973e-10 -5.09204e-12)
(3.52271e-10 5.31167e-10 -6.36879e-12)
(1.96707e-10 4.07896e-10 -5.63045e-12)
(4.22532e-10 3.30189e-10 -5.31114e-12)
(2.61978e-10 7.52356e-10 -7.79214e-12)
(3.5421e-10 5.33949e-10 -7.34213e-12)
(4.20635e-10 3.28274e-10 -7.04087e-12)
(2.60438e-10 7.48831e-10 -5.88243e-12)
(3.3535e-10 4.84022e-10 5.72866e-11)
(2.48148e-10 6.90266e-10 5.51624e-11)
(2.06116e-10 3.4959e-10 8.69031e-11)
(4.08778e-10 2.9652e-10 4.27836e-11)
(3.35598e-10 4.91528e-10 3.99859e-11)
(4.09944e-10 2.90312e-10 5.85663e-11)
(2.49322e-10 6.79987e-10 7.67143e-11)
(3.35396e-10 4.77835e-10 7.48369e-11)
(2.08046e-10 3.45581e-10 1.00985e-10)
(4.13994e-10 2.7576e-10 1.07576e-10)
(2.54323e-10 6.52485e-10 1.35938e-10)
(3.36429e-10 4.65952e-10 1.02347e-10)
(4.10944e-10 2.85456e-10 8.0381e-11)
(2.51138e-10 6.68205e-10 1.01127e-10)
(3.45692e-10 4.03465e-10 2.32722e-10)
(2.96743e-10 4.90392e-10 3.86316e-10)
(2.5966e-10 2.56496e-10 3.21687e-10)
(4.39917e-10 1.80851e-10 3.5744e-10)
(4.28791e-10 2.24525e-10 2.63174e-10)
(2.78436e-10 5.56682e-10 2.99264e-10)
(3.54084e-10 3.49408e-10 3.12555e-10)
(3.41672e-10 4.29937e-10 1.78761e-10)
(2.51254e-10 2.73326e-10 2.78923e-10)
(4.18327e-10 2.65616e-10 1.44428e-10)
(2.59828e-10 6.32099e-10 1.7688e-10)
(3.38541e-10 4.54538e-10 1.32126e-10)
(4.24271e-10 2.45443e-10 1.96386e-10)
(2.67406e-10 6.00671e-10 2.32512e-10)
(5.49341e-10 1.9268e-10 3.9347e-12)
(5.2862e-10 9.61333e-11 7.3147e-13)
(1.82651e-10 4.42453e-11 8.23379e-13)
(5.36386e-10 9.23466e-11 3.20475e-12)
(5.31727e-10 2.0047e-10 1.60212e-13)
(5.46988e-10 1.93845e-10 4.62205e-12)
(1.83485e-10 4.41956e-11 1.02542e-12)
(5.40174e-10 9.06906e-11 2.66624e-12)
(1.21211e-10 1.05125e-09 6.59961e-12)
(2.30127e-10 1.31377e-09 3.85769e-13)
(1.55525e-10 1.13722e-09 -7.48766e-13)
(1.65425e-10 1.15226e-09 3.67315e-12)
(2.36431e-10 1.32639e-09 5.06141e-12)
(1.68636e-10 1.15408e-09 5.29102e-12)
(1.07903e-10 1.04161e-09 4.6723e-13)
(1.17802e-10 1.05157e-09 3.94908e-12)
(5.19733e-10 1.95889e-10 -7.04138e-12)
(5.15832e-10 2.02253e-10 -4.49589e-12)
(5.19757e-10 9.97071e-11 4.38948e-13)
(1.78391e-10 4.51714e-11 -1.51607e-12)
(5.14275e-10 1.012e-10 -3.87206e-12)
(5.26344e-10 2.02281e-10 6.82667e-13)
(5.15985e-10 2.03718e-10 -5.31767e-12)
(5.15571e-10 9.58055e-11 -5.95325e-12)
(1.77656e-10 4.47667e-11 -1.70736e-12)
(5.13779e-10 9.89707e-11 -3.61716e-12)
(1.0016e-10 1.02264e-09 -4.10391e-12)
(1.00887e-10 1.02507e-09 -3.96649e-12)
(2.14821e-10 1.26982e-09 -1.2613e-12)
(1.52783e-10 1.13244e-09 -1.5307e-12)
(1.48379e-10 1.12069e-09 -2.87497e-12)
(1.46671e-10 1.11813e-09 -4.42835e-12)
(2.12916e-10 1.26889e-09 -1.49877e-12)
(1.47848e-10 1.11908e-09 -3.23881e-12)
(1.05092e-10 1.038e-09 -1.58453e-12)
(1.01142e-10 1.02728e-09 -2.41177e-12)
(3.84132e-10 5.72088e-10 -5.74013e-12)
(2.91141e-10 8.06722e-10 -6.97013e-12)
(2.19324e-10 4.44883e-10 -6.52558e-12)
(4.53526e-10 3.58545e-10 -5.49934e-12)
(3.85015e-10 5.73658e-10 -6.82249e-12)
(2.90218e-10 8.05058e-10 -5.6215e-12)
(4.53145e-10 3.56889e-10 -6.81063e-12)
(3.82356e-10 5.71271e-10 -6.33773e-12)
(2.17472e-10 4.455e-10 -6.66826e-12)
(2.85458e-10 8.01546e-10 -6.06154e-12)
(4.48289e-10 3.56345e-10 -6.59393e-12)
(2.87888e-10 8.03731e-10 -7.29902e-12)
(4.50965e-10 3.5693e-10 -4.38052e-12)
(3.79904e-10 5.69597e-10 -5.71456e-12)
(9.98898e-11 1.02244e-09 -5.48261e-12)
(9.81036e-11 1.01964e-09 -5.43149e-12)
(2.059e-10 1.26763e-09 -6.28539e-12)
(1.40166e-10 1.10857e-09 -6.68096e-12)
(1.4311e-10 1.1145e-09 -6.14451e-12)
(1.46246e-10 1.11821e-09 -4.74238e-12)
(2.08146e-10 1.27202e-09 -5.32237e-12)
(1.4416e-10 1.11566e-09 -6.07678e-12)
(9.43166e-11 1.01412e-09 -5.91166e-12)
(9.70561e-11 1.01895e-09 -6.5285e-12)
(5.20683e-10 1.94479e-10 -5.39143e-12)
(5.20552e-10 1.92532e-10 -5.99366e-12)
(5.12701e-10 9.28135e-11 -4.68723e-12)
(1.76642e-10 4.33074e-11 -1.45629e-12)
(5.147e-10 9.26483e-11 -3.25925e-12)
(5.15174e-10 1.92791e-10 -5.912e-12)
(5.1925e-10 1.92708e-10 -4.34537e-12)
(5.16917e-10 9.32832e-11 -4.17831e-12)
(1.77176e-10 4.34504e-11 -1.827e-12)
(5.16909e-10 9.23878e-11 -5.0489e-12)
(3.75003e-10 5.65187e-10 -6.80047e-12)
(2.10659e-10 4.41597e-10 -6.21346e-12)
(2.80521e-10 7.92961e-10 -5.99993e-12)
(4.42766e-10 3.51906e-10 -7.39158e-12)
(3.74578e-10 5.63534e-10 -6.03683e-12)
(2.8093e-10 7.94567e-10 -7.64939e-12)
(4.42636e-10 3.53812e-10 -5.25026e-12)
(3.75827e-10 5.66371e-10 -6.02403e-12)
(2.10555e-10 4.42789e-10 -6.43787e-12)
(2.83218e-10 7.99153e-10 -7.7648e-12)
(4.45609e-10 3.56053e-10 -4.3514e-12)
(3.778e-10 5.68282e-10 -6.44691e-12)
(2.81619e-10 7.96529e-10 -6.29288e-12)
(4.43339e-10 3.55019e-10 -7.05563e-12)
(5.09972e-10 1.89062e-10 -4.64192e-12)
(5.08022e-10 1.88663e-10 -5.80724e-12)
(5.04085e-10 8.97035e-11 -4.64703e-12)
(1.73593e-10 4.21289e-11 -1.36716e-12)
(5.04658e-10 9.02644e-11 -3.11768e-12)
(5.05979e-10 1.87414e-10 -5.80233e-12)
(5.07272e-10 1.88585e-10 -4.25838e-12)
(5.07065e-10 9.03841e-11 -3.354e-12)
(1.73946e-10 4.22659e-11 -1.63862e-12)
(5.05959e-10 9.03938e-11 -4.67658e-12)
(9.05563e-11 1.00351e-09 -6.76939e-12)
(8.94146e-11 1.00042e-09 -5.82972e-12)
(1.94611e-10 1.24421e-09 -6.369e-12)
(1.32367e-10 1.08978e-09 -6.47994e-12)
(1.33828e-10 1.09355e-09 -6.37635e-12)
(1.35684e-10 1.09771e-09 -6.28883e-12)
(1.95812e-10 1.24705e-09 -6.18254e-12)
(1.34356e-10 1.09452e-09 -6.515e-12)
(8.76411e-11 9.96331e-10 -5.72654e-12)
(8.89285e-11 9.99637e-10 -6.73591e-12)
(9.09722e-11 1.00401e-09 -5.7597e-12)
(9.20935e-11 1.00622e-09 -6.83903e-12)
(1.39378e-10 1.10676e-09 -6.62693e-12)
(2.00446e-10 1.25313e-09 -5.95037e-12)
(1.37864e-10 1.10134e-09 -6.52444e-12)
(9.36014e-11 1.01254e-09 -6.98745e-12)
(9.23935e-11 1.00727e-09 -5.89783e-12)
(1.36152e-10 1.09825e-09 -6.36684e-12)
(1.99272e-10 1.25137e-09 -5.81469e-12)
(1.37463e-10 1.10037e-09 -6.36391e-12)
(5.10168e-10 1.89516e-10 -6.36639e-12)
(5.09437e-10 1.92221e-10 -4.90481e-12)
(5.10047e-10 9.31555e-11 -3.10816e-12)
(1.7505e-10 4.30882e-11 -1.79698e-12)
(5.0783e-10 9.34777e-11 -5.02789e-12)
(5.13624e-10 1.92899e-10 -4.31096e-12)
(5.09804e-10 1.92769e-10 -6.37671e-12)
(5.07488e-10 9.12062e-11 -5.18433e-12)
(1.7462e-10 4.28624e-11 -1.58629e-12)
(5.07083e-10 9.26051e-11 -3.62868e-12)
(5.02583e-10 1.84639e-10 -5.88376e-12)
(5.02516e-10 1.86559e-10 -4.33634e-12)
(5.0283e-10 8.94576e-11 -2.99168e-12)
(1.72659e-10 4.17526e-11 -1.62438e-12)
(5.01423e-10 8.95725e-11 -4.61847e-12)
(5.05279e-10 1.8723e-10 -4.17225e-12)
(5.02934e-10 1.86882e-10 -5.81357e-12)
(5.00699e-10 8.8063e-11 -4.74252e-12)
(1.72297e-10 4.15788e-11 -1.39991e-12)
(5.00615e-10 8.90529e-11 -3.18524e-12)
(8.56209e-11 9.87814e-10 -5.55462e-12)
(8.65083e-11 9.90319e-10 -6.56481e-12)
(1.9155e-10 1.23526e-09 -6.07087e-12)
(1.31981e-10 1.08862e-09 -6.37696e-12)
(1.31159e-10 1.08444e-09 -6.35906e-12)
(1.29799e-10 1.08079e-09 -6.26543e-12)
(1.90683e-10 1.23307e-09 -6.05081e-12)
(1.3085e-10 1.08353e-09 -6.20047e-12)
(8.73233e-11 9.95283e-10 -6.72483e-12)
(8.67542e-11 9.91184e-10 -5.64929e-12)
(3.65379e-10 5.51672e-10 -5.68767e-12)
(2.72816e-10 7.78599e-10 -7.25834e-12)
(2.04109e-10 4.27714e-10 -6.10425e-12)
(4.3474e-10 3.44147e-10 -4.38803e-12)
(3.66491e-10 5.53081e-10 -6.3055e-12)
(2.71935e-10 7.76792e-10 -5.86702e-12)
(4.33513e-10 3.43313e-10 -6.53962e-12)
(3.64567e-10 5.50715e-10 -6.48707e-12)
(2.03678e-10 4.27351e-10 -6.00319e-12)
(2.70497e-10 7.73345e-10 -6.04373e-12)
(4.32051e-10 3.41323e-10 -7.00671e-12)
(2.71126e-10 7.7521e-10 -7.36821e-12)
(4.32561e-10 3.42729e-10 -4.67056e-12)
(3.63835e-10 5.49032e-10 -6.00187e-12)
(8.53301e-11 9.8711e-10 -6.56882e-12)
(8.47092e-11 9.83552e-10 -5.67737e-12)
(1.87263e-10 1.22368e-09 -6.26918e-12)
(1.27327e-10 1.07162e-09 -6.51583e-12)
(1.28305e-10 1.0753e-09 -6.29483e-12)
(1.29457e-10 1.08e-09 -6.19297e-12)
(1.88092e-10 1.22641e-09 -6.13294e-12)
(1.28635e-10 1.0763e-09 -6.40482e-12)
(8.36364e-11 9.79389e-10 -5.74522e-12)
(8.4434e-11 9.82681e-10 -6.61493e-12)
(5.02199e-10 1.84344e-10 -4.25214e-12)
(5.00133e-10 1.84059e-10 -5.76378e-12)
(4.97456e-10 8.65699e-11 -4.85476e-12)
(1.7124e-10 4.09716e-11 -1.40759e-12)
(4.97653e-10 8.73789e-11 -3.21285e-12)
(4.99039e-10 1.82252e-10 -6.05662e-12)
(4.99557e-10 1.83878e-10 -4.32144e-12)
(4.9995e-10 8.75608e-11 -3.06833e-12)
(1.71583e-10 4.11225e-11 -1.61023e-12)
(4.98712e-10 8.76668e-11 -4.60045e-12)
(3.61128e-10 5.44929e-10 -7.09369e-12)
(2.01823e-10 4.22021e-10 -6.34522e-12)
(2.67573e-10 7.65037e-10 -6.56024e-12)
(4.2856e-10 3.36815e-10 -7.60658e-12)
(3.60342e-10 5.42934e-10 -6.63056e-12)
(2.68236e-10 7.67224e-10 -7.87945e-12)
(4.29038e-10 3.38549e-10 -5.26661e-12)
(3.6193e-10 5.46119e-10 -6.24568e-12)
(2.02137e-10 4.22623e-10 -6.40895e-12)
(2.69794e-10 7.71502e-10 -7.6726e-12)
(4.31189e-10 3.40542e-10 -4.72089e-12)
(3.63073e-10 5.47911e-10 -6.71238e-12)
(2.6897e-10 7.69192e-10 -6.36739e-12)
(4.29931e-10 3.39398e-10 -7.04218e-12)
(4.94833e-10 1.78712e-10 -5.08002e-12)
(4.92336e-10 1.77943e-10 -6.6884e-12)
(4.89313e-10 8.24544e-11 -5.60593e-12)
(1.68503e-10 3.95262e-11 -1.77801e-12)
(4.89851e-10 8.35012e-11 -4.04018e-12)
(4.90491e-10 1.75343e-10 -6.84896e-12)
(4.91554e-10 1.77611e-10 -5.27152e-12)
(4.92817e-10 8.40772e-11 -3.79414e-12)
(1.69042e-10 3.97494e-11 -1.9567e-12)
(4.91322e-10 8.40047e-11 -5.38421e-12)
(8.15369e-11 9.67962e-10 -7.06558e-12)
(8.06657e-11 9.62797e-10 -6.09604e-12)
(1.7913e-10 1.19741e-09 -6.28679e-12)
(1.20973e-10 1.04698e-09 -6.35773e-12)
(1.22772e-10 1.05246e-09 -6.65339e-12)
(1.24504e-10 1.0593e-09 -6.74926e-12)
(1.80545e-10 1.20132e-09 -6.40184e-12)
(1.23304e-10 1.05391e-09 -6.84947e-12)
(7.87739e-11 9.56494e-10 -5.58404e-12)
(8.0235e-11 9.61505e-10 -6.94422e-12)
(8.18713e-11 9.69046e-10 -6.04817e-12)
(8.27775e-11 9.72829e-10 -6.90928e-12)
(1.27041e-10 1.0705e-09 -6.47329e-12)
(1.84833e-10 1.21462e-09 -6.36218e-12)
(1.26374e-10 1.06585e-09 -6.70733e-12)
(8.34163e-11 9.78395e-10 -6.78823e-12)
(8.30202e-11 9.73887e-10 -5.95363e-12)
(1.24923e-10 1.06052e-09 -6.81076e-12)
(1.83952e-10 1.21154e-09 -6.46116e-12)
(1.26065e-10 1.06467e-09 -6.60887e-12)
(4.95401e-10 1.7909e-10 -6.62014e-12)
(4.95811e-10 1.81122e-10 -4.84335e-12)
(4.96459e-10 8.61296e-11 -3.31201e-12)
(1.7041e-10 4.05077e-11 -1.76758e-12)
(4.95155e-10 8.61432e-11 -4.96993e-12)
(4.98515e-10 1.81969e-10 -4.50586e-12)
(4.96366e-10 1.81424e-10 -6.23398e-12)
(4.93921e-10 8.46779e-11 -5.325e-12)
(1.70011e-10 4.03178e-11 -1.59728e-12)
(4.94095e-10 8.56695e-11 -3.66413e-12)
(4.84259e-10 1.70299e-10 -5.101e-12)
(4.85742e-10 1.73123e-10 -4.57792e-12)
(4.87826e-10 8.1698e-11 -3.93933e-12)
(1.67153e-10 3.88343e-11 -1.98551e-12)
(4.86038e-10 8.14551e-11 -5.2628e-12)
(4.89724e-10 1.74846e-10 -5.20756e-12)
(4.86734e-10 1.7359e-10 -6.23475e-12)
(4.83292e-10 7.95891e-11 -4.62725e-12)
(1.66455e-10 3.85625e-11 -1.68383e-12)
(4.84142e-10 8.07985e-11 -3.57166e-12)
(7.4382e-11 9.39641e-10 -1.60192e-12)
(7.6286e-11 9.46476e-10 -4.76941e-12)
(1.7382e-10 1.18411e-09 -4.68298e-12)
(1.20326e-10 1.04536e-09 -6.0568e-12)
(1.1848e-10 1.03829e-09 -5.13339e-12)
(1.15259e-10 1.02899e-09 -2.40157e-12)
(1.71627e-10 1.17951e-09 -3.53956e-12)
(1.17718e-10 1.03636e-09 -4.48494e-12)
(7.82557e-11 9.5504e-10 -6.3522e-12)
(7.689e-11 9.48221e-10 -4.37148e-12)
(3.45141e-10 5.20078e-10 -2.04512e-12)
(2.55858e-10 7.38071e-10 -3.68434e-12)
(1.93408e-10 3.96127e-10 9.59768e-13)
(4.16234e-10 3.22477e-10 -2.52222e-12)
(3.47411e-10 5.23764e-10 -4.55039e-12)
(2.541e-10 7.33418e-10 -1.27698e-15)
(4.14161e-10 3.19822e-10 -2.66334e-12)
(3.43317e-10 5.17529e-10 -5.93174e-13)
(1.92654e-10 3.94854e-10 2.67191e-12)
(2.50919e-10 7.23825e-10 7.2647e-12)
(4.11138e-10 3.14501e-10 2.49254e-12)
(2.52387e-10 7.28998e-10 1.71958e-12)
(4.12339e-10 3.17986e-10 1.36373e-12)
(3.41454e-10 5.1326e-10 3.37192e-12)
(7.37224e-11 9.37626e-10 -1.60024e-12)
(7.20447e-11 9.28487e-10 3.36026e-12)
(1.08423e-10 1.0044e-09 1.14745e-11)
(1.11159e-10 1.01472e-09 4.39913e-12)
(1.14374e-10 1.02664e-09 -1.36087e-12)
(1.12052e-10 1.01738e-09 2.52819e-12)
(6.95177e-11 9.16405e-10 1.23994e-11)
(7.13925e-11 9.26031e-10 4.23975e-12)
(4.83381e-10 1.69589e-10 -3.00819e-12)
(4.80209e-10 1.67656e-10 -2.05217e-12)
(4.76244e-10 7.60471e-11 6.14968e-13)
(1.6388e-10 3.74667e-11 -4.54761e-13)
(4.77225e-10 7.73959e-11 1.73571e-13)
(4.77707e-10 1.63559e-10 2.95261e-12)
(4.79073e-10 1.67043e-10 3.92853e-13)
(4.81505e-10 7.85816e-11 -2.30294e-12)
(1.6475e-10 3.77518e-11 -1.16713e-12)
(4.79533e-10 7.81202e-11 -2.66985e-12)
(3.3675e-10 5.01827e-10 1.91287e-11)
(1.93438e-10 3.76836e-10 2.77213e-11)
(2.47445e-10 6.9831e-10 4.11641e-11)
(4.07842e-10 3.0065e-10 2.91692e-11)
(3.35776e-10 4.96024e-10 2.96659e-11)
(2.47687e-10 7.05791e-10 2.76317e-11)
(4.07695e-10 3.05501e-10 2.13497e-11)
(3.38116e-10 5.05301e-10 1.32566e-11)
(1.93534e-10 3.78811e-10 2.28033e-11)
(2.49723e-10 7.18641e-10 1.12185e-11)
(4.1009e-10 3.11927e-10 8.62913e-12)
(3.40027e-10 5.10219e-10 6.61392e-12)
(2.48553e-10 7.12222e-10 1.97585e-11)
(4.08744e-10 3.08145e-10 1.27516e-11)
(4.75328e-10 1.52573e-10 3.55314e-11)
(4.77548e-10 1.47363e-10 5.71102e-11)
(4.6843e-10 6.64467e-11 7.01653e-11)
(1.58311e-10 3.63452e-11 1.72528e-11)
(4.68185e-10 6.82742e-11 5.22368e-11)
(4.82863e-10 1.37736e-10 1.05627e-10)
(4.77614e-10 1.45934e-10 6.82315e-11)
(4.6984e-10 7.01632e-11 2.71503e-11)
(1.59311e-10 3.61719e-11 1.22357e-11)
(4.69844e-10 6.88237e-11 3.68763e-11)
(6.82306e-11 8.7871e-10 6.12122e-11)
(7.0861e-11 8.58354e-10 9.62884e-11)
(1.06577e-10 9.10121e-10 1.60245e-10)
(1.03281e-10 9.40159e-10 1.0683e-10)
(1.02651e-10 9.66534e-10 6.02794e-11)
(1.02996e-10 9.4678e-10 9.30543e-11)
(7.79938e-11 8.2061e-10 1.67422e-10)
(7.20333e-11 8.51366e-10 1.09823e-10)
(6.79529e-11 8.82956e-10 5.3482e-11)
(6.7916e-11 8.97422e-10 3.19042e-11)
(1.07527e-10 1.00163e-09 1.45876e-11)
(1.05468e-10 9.89041e-10 2.6496e-11)
(6.89725e-11 9.13675e-10 1.45206e-11)
(6.81658e-11 9.0102e-10 2.76144e-11)
(1.03061e-10 9.70671e-10 5.18289e-11)
(1.04709e-10 9.85259e-10 3.16706e-11)
(4.74995e-10 1.54195e-10 2.84737e-11)
(4.74252e-10 1.58745e-10 1.73589e-11)
(4.74554e-10 7.47541e-11 4.82023e-12)
(1.61941e-10 3.66856e-11 2.11593e-12)
(4.73006e-10 7.39733e-11 7.05168e-12)
(4.77039e-10 1.62531e-10 6.34988e-12)
(4.75102e-10 1.59556e-10 1.2708e-11)
(4.70435e-10 7.18275e-11 1.7692e-11)
(1.61006e-10 3.65031e-11 3.95053e-12)
(4.70781e-10 7.33116e-11 1.30815e-11)
(5.05542e-10 7.20696e-11 3.74495e-10)
(4.954e-10 1.09826e-10 2.32318e-10)
(4.68613e-10 6.33082e-11 9.67952e-11)
(1.55356e-10 3.70319e-11 4.54325e-11)
(4.67633e-10 5.93761e-11 1.3361e-10)
(4.84865e-10 1.33855e-10 1.24455e-10)
(4.94468e-10 1.16649e-10 1.97464e-10)
(4.46651e-10 4.85846e-11 2.58687e-10)
(1.52913e-10 3.80187e-11 6.33941e-11)
(4.61843e-10 5.59883e-11 1.84043e-10)
(1.37231e-10 6.09429e-10 4.44789e-10)
(1.01526e-10 7.26377e-10 3.16363e-10)
(1.08294e-10 8.99064e-10 1.82142e-10)
(1.19023e-10 8.42219e-10 2.63004e-10)
(1.56809e-10 7.04113e-10 4.04707e-10)
(1.24327e-10 8.18167e-10 2.95368e-10)
(8.08278e-11 8.09229e-10 1.90268e-10)
(9.49355e-11 7.50748e-10 2.80489e-10)
(4.1624e-10 1.88373e-10 5.34294e-10)
(3.3051e-10 4.03477e-10 4.85503e-10)
(4.25575e-10 -1.29118e-11 8.18232e-10)
(4.63814e-10 1.31728e-10 4.75348e-10)
(3.79928e-10 2.76975e-10 4.08543e-10)
(3.87806e-10 3.09676e-10 6.00867e-10)
(5.01977e-10 4.47035e-11 6.37915e-10)
(3.9544e-10 1.73774e-10 5.13341e-10)
(3.95848e-10 4.18131e-10 5.87087e-10)
(3.78608e-10 5.51743e-11 5.15681e-10)
(7.61316e-11 -4.17503e-11 1.77312e-10)
(4.66044e-10 -1.00581e-10 6.53391e-10)
(7.01657e-11 -1.93128e-11 1.43682e-10)
(4.37187e-10 1.19647e-10 5.73478e-10)
(4.84316e-10 -5.90959e-11 8.9841e-10)
(4.18702e-10 3.29798e-10 6.62517e-10)
(5.502e-10 -8.31909e-11 7.35984e-10)
(1.55466e-10 5.61996e-10 4.92639e-10)
(2.59387e-10 4.07666e-10 6.37849e-10)
(3.31003e-10 4.86582e-10 5.90748e-10)
(1.73289e-10 6.59822e-10 4.4518e-10)
(2.72664e-10 5.10315e-10 5.60212e-10)
(3.17882e-10 3.76054e-10 6.83792e-10)
(5.09317e-10 5.3411e-11 4.40047e-10)
(5.49159e-10 -6.99492e-11 7.05625e-10)
(7.50669e-11 -4.76673e-11 1.89019e-10)
(4.89865e-10 -1.37717e-10 6.81147e-10)
(5.82537e-10 -1.40528e-10 7.83319e-10)
(4.31257e-10 2.81108e-11 3.71258e-10)
(1.37268e-10 3.40397e-12 2.1383e-10)
(4.30788e-10 -1.54196e-11 5.23048e-10)
(3.9087e-10 5.7115e-10 8.49885e-12)
(2.48475e-10 4.51897e-10 1.28002e-11)
(4.05987e-10 3.91973e-10 9.30821e-12)
(2.56117e-10 6.39978e-10 1.10373e-11)
(3.79422e-10 5.73087e-10 2.00921e-12)
(2.33371e-10 4.57448e-10 -1.45642e-12)
(3.85816e-10 3.99994e-10 -1.30076e-12)
(2.34681e-10 6.45843e-10 -2.37801e-13)
(3.73342e-10 5.7391e-10 1.03064e-12)
(3.92802e-10 3.9747e-10 1.18182e-12)
(2.40435e-10 6.44522e-10 3.48308e-13)
(3.61253e-10 5.64266e-10 -6.32458e-12)
(2.25751e-10 6.3236e-10 -5.19027e-12)
(2.18115e-10 4.52105e-10 -4.24489e-12)
(3.74905e-10 3.91182e-10 -6.53612e-12)
(3.73169e-10 3.93648e-10 -4.96064e-12)
(2.25218e-10 6.337e-10 -5.39967e-12)
(3.62375e-10 5.62316e-10 -6.344e-12)
(3.63809e-10 5.73588e-10 -2.33534e-12)
(2.18023e-10 4.63001e-10 -3.86448e-12)
(3.79038e-10 4.02682e-10 -1.20287e-12)
(2.28853e-10 6.46385e-10 -1.95298e-12)
(3.68214e-10 5.73751e-10 -5.86218e-13)
(3.73928e-10 4.03599e-10 -3.73692e-12)
(2.25742e-10 6.45146e-10 -2.46195e-12)
(3.51981e-10 5.49452e-10 -6.26403e-12)
(2.16681e-10 6.18439e-10 -6.74992e-12)
(2.10831e-10 4.37087e-10 -6.39954e-12)
(3.6548e-10 3.80587e-10 -5.70721e-12)
(3.52221e-10 5.49932e-10 -6.64767e-12)
(3.65217e-10 3.79989e-10 -6.87969e-12)
(2.16893e-10 6.17267e-10 -6.11412e-12)
(2.9766e-10 6.33842e-10 -7.5626e-12)
(2.43418e-10 9.33116e-10 -6.64529e-12)
(2.96543e-10 6.32046e-10 -5.19067e-12)
(2.44553e-10 9.35304e-10 -7.32311e-12)
(2.98667e-10 6.34809e-10 -5.12077e-12)
(2.46772e-10 9.38933e-10 -7.19139e-12)
(2.99732e-10 6.36305e-10 -7.58615e-12)
(2.45708e-10 9.37125e-10 -6.54748e-12)
(3.48912e-10 5.46783e-10 -6.2759e-12)
(2.08178e-10 4.35068e-10 -6.01201e-12)
(3.61425e-10 3.77745e-10 -6.66173e-12)
(2.13266e-10 6.14146e-10 -5.92033e-12)
(3.48301e-10 5.46004e-10 -6.03936e-12)
(3.61979e-10 3.78274e-10 -5.43772e-12)
(2.141e-10 6.14366e-10 -6.50701e-12)
(3.4561e-10 5.41304e-10 -6.26417e-12)
(2.11146e-10 6.0794e-10 -5.78515e-12)
(2.06025e-10 4.30074e-10 -5.73337e-12)
(3.58689e-10 3.73194e-10 -6.56012e-12)
(3.58779e-10 3.7387e-10 -5.31982e-12)
(2.11741e-10 6.08098e-10 -6.34712e-12)
(3.45355e-10 5.40525e-10 -6.00027e-12)
(2.94611e-10 6.29082e-10 -5.16009e-12)
(2.42446e-10 9.31006e-10 -7.365e-12)
(2.956e-10 6.30923e-10 -7.57031e-12)
(2.41586e-10 9.28686e-10 -6.56176e-12)
(2.93882e-10 6.281e-10 -7.54774e-12)
(2.40087e-10 9.25244e-10 -6.41643e-12)
(2.40838e-10 9.26962e-10 -7.16809e-12)
(2.93155e-10 6.26523e-10 -5.14161e-12)
(3.47259e-10 5.44798e-10 -6.11771e-12)
(2.07022e-10 4.33394e-10 -6.17597e-12)
(3.60787e-10 3.77401e-10 -5.45535e-12)
(2.12752e-10 6.13415e-10 -6.55536e-12)
(3.47706e-10 5.454e-10 -6.36113e-12)
(3.60214e-10 3.76847e-10 -6.66689e-12)
(2.12948e-10 6.12017e-10 -5.93634e-12)
(3.38349e-10 5.27512e-10 -6.93923e-12)
(2.06292e-10 5.94235e-10 -7.14864e-12)
(2.01357e-10 4.17532e-10 -6.82928e-12)
(3.52416e-10 3.63489e-10 -6.20233e-12)
(3.38744e-10 5.28312e-10 -7.16714e-12)
(3.51959e-10 3.62709e-10 -7.45248e-12)
(2.06499e-10 5.9268e-10 -6.59182e-12)
(3.35404e-10 5.22598e-10 -7.12967e-12)
(1.99317e-10 4.13188e-10 -6.4166e-12)
(3.48752e-10 3.5779e-10 -7.36051e-12)
(2.03464e-10 5.86413e-10 -6.30454e-12)
(3.34852e-10 5.2134e-10 -6.82972e-12)
(3.49103e-10 3.58912e-10 -6.20785e-12)
(2.04144e-10 5.87223e-10 -6.96156e-12)
(3.29866e-10 5.12518e-10 -4.91843e-12)
(1.99291e-10 5.74473e-10 -3.01439e-12)
(1.95728e-10 4.03852e-10 -3.83879e-12)
(3.43657e-10 3.49172e-10 -4.61726e-12)
(3.43996e-10 3.50748e-10 -4.03138e-12)
(1.99926e-10 5.75821e-10 -4.27395e-12)
(3.29238e-10 5.10846e-10 -4.07629e-12)
(3.33633e-10 5.19228e-10 -6.57418e-12)
(1.98242e-10 4.09912e-10 -6.26378e-12)
(3.48147e-10 3.57077e-10 -6.08318e-12)
(2.0282e-10 5.85274e-10 -6.78855e-12)
(3.34184e-10 5.20345e-10 -7.01745e-12)
(3.47579e-10 3.55993e-10 -7.0975e-12)
(2.02942e-10 5.83344e-10 -5.97817e-12)
(3.24968e-10 4.68065e-10 5.76766e-11)
(1.98562e-10 5.28833e-10 5.5368e-11)
(2.01517e-10 3.5869e-10 6.41588e-11)
(3.4189e-10 3.16272e-10 4.96308e-11)
(3.23466e-10 4.72038e-10 4.8659e-11)
(3.44272e-10 3.12187e-10 5.73371e-11)
(2.01237e-10 5.23372e-10 6.5429e-11)
(3.32115e-10 4.42778e-10 1.2219e-10)
(2.15782e-10 3.32812e-10 1.35737e-10)
(3.59081e-10 2.83805e-10 1.43228e-10)
(2.16485e-10 4.84005e-10 1.58186e-10)
(3.35495e-10 4.35036e-10 1.41419e-10)
(3.54123e-10 2.914e-10 1.24648e-10)
(2.118e-10 4.93079e-10 1.36597e-10)
(3.75902e-10 3.18166e-10 3.78852e-10)
(2.87132e-10 3.1092e-10 4.7427e-10)
(2.85662e-10 2.048e-10 4.27343e-10)
(4.26826e-10 1.49968e-10 4.60677e-10)
(4.10773e-10 1.82041e-10 3.99917e-10)
(2.69517e-10 3.49261e-10 4.14908e-10)
(3.89442e-10 2.84154e-10 4.3429e-10)
(3.44026e-10 4.157e-10 1.88382e-10)
(2.34888e-10 3.02816e-10 2.09693e-10)
(3.63829e-10 2.76929e-10 1.66505e-10)
(2.2049e-10 4.74265e-10 1.81342e-10)
(3.38864e-10 4.26909e-10 1.62504e-10)
(3.71381e-10 2.6579e-10 1.92103e-10)
(2.27798e-10 4.60438e-10 2.09913e-10)
(4.08402e-10 2.54888e-10 1.2287e-11)
(3.88632e-10 2.61287e-10 -4.93981e-12)
(3.95399e-10 2.58856e-10 -1.71595e-12)
(9.44392e-11 7.10182e-10 1.23565e-11)
(7.64948e-11 7.15e-10 -7.81634e-13)
(8.03858e-11 7.14413e-10 -6.73406e-13)