/*--------------------------------*- C++ -*----------------------------------*\
| =========                 |                                                 |
| \\      /  F ield         | OpenFOAM: The Open Source CFD Toolbox           |
|  \\    /   O peration     | Version:  2012                                  |
|   \\  /    A nd           | Website:  www.openfoam.com                      |
|    \\/     M anipulation  |                                                 |
\*---------------------------------------------------------------------------*/
FoamFile
{
    version     2.0;
    format      ascii;
    class       volVectorField;
    location    "0.105/solid";
    object      D_0_0_0;
}
// * * * * * * * * * * * * * * * * * * * * * * * * * * * * * * * * * * * * * //

dimensions      [0 1 0 0 0 0 0];


internalField   nonuniform List<vector> 
3125
(
(1.74413e-10 2.4542e-10 -2.26533e-12)
(1.69562e-10 2.42478e-10 -3.8247e-12)
(1.61454e-10 2.32961e-10 -3.68338e-12)
(1.60536e-10 2.31802e-10 -3.6049e-12)
(1.53703e-10 2.22668e-10 -4.80023e-12)
(1.51994e-10 2.20775e-10 -4.80398e-12)
(1.36198e-10 1.99082e-10 2.84868e-11)
(1.35125e-10 1.907e-10 4.8373e-11)
(1.6591e-10 2.37809e-10 -4.21054e-12)
(1.64185e-10 2.36317e-10 -4.07796e-12)
(1.58375e-10 2.28469e-10 -3.85155e-12)
(1.57468e-10 2.27197e-10 -4.06987e-12)
(1.45311e-10 2.1359e-10 -1.94316e-12)
(1.42733e-10 2.1068e-10 1.33631e-12)
(1.77085e-10 2.47263e-10 1.90444e-12)
(2.79184e-10 1.53949e-10 2.9516e-13)
(2.49536e-10 9.97984e-10 -4.72275e-12)
(2.38456e-10 4.51354e-10 -3.13244e-12)
(2.80834e-10 1.54494e-10 1.28925e-12)
(2.32918e-10 4.40462e-10 -5.09158e-12)
(2.7281e-10 1.54041e-10 -1.92858e-12)
(2.44807e-10 9.87302e-10 -6.64703e-12)
(1.67837e-10 2.40388e-10 -4.04742e-12)
(2.39107e-10 9.77565e-10 -5.06114e-12)
(2.32793e-10 4.5403e-10 -3.68784e-12)
(2.71234e-10 1.52115e-10 -3.93862e-12)
(2.27599e-10 4.27396e-10 -6.26178e-12)
(1.62426e-10 2.34041e-10 -3.67611e-12)
(2.65482e-10 1.45936e-10 -3.15681e-12)
(2.24976e-10 4.24028e-10 -6.15519e-12)
(2.6656e-10 1.46655e-10 -3.2392e-12)
(2.23823e-10 4.188e-10 -5.96129e-12)
(2.64379e-10 1.45147e-10 -3.06456e-12)
(1.59838e-10 2.30693e-10 -3.5927e-12)
(2.24629e-10 4.23525e-10 -5.98831e-12)
(2.63563e-10 1.44286e-10 -3.18962e-12)
(2.19482e-10 4.07451e-10 -7.0792e-12)
(1.55185e-10 2.24336e-10 -4.57125e-12)
(2.56685e-10 1.38424e-10 -4.11693e-12)
(2.16496e-10 4.0097e-10 -7.05097e-12)
(2.58278e-10 1.39619e-10 -3.8967e-12)
(2.12609e-10 3.91042e-10 -3.95537e-12)
(2.54919e-10 1.37031e-10 -3.99606e-12)
(1.50022e-10 2.18642e-10 -4.55759e-12)
(2.15982e-10 3.99998e-10 -6.80154e-12)
(2.52865e-10 1.35494e-10 -3.71943e-12)
(2.1508e-10 3.51756e-10 5.27565e-11)
(1.37946e-10 2.03942e-10 1.54975e-11)
(2.40011e-10 1.20412e-10 3.73443e-11)
(2.36673e-10 3.12695e-10 1.52731e-10)
(2.42089e-10 1.24087e-10 1.94221e-11)
(3.18799e-10 1.59678e-10 4.81834e-10)
(2.37142e-10 1.14054e-10 6.90949e-11)
(1.36132e-10 1.71708e-10 7.85825e-11)
(2.42252e-10 3.03607e-10 1.76771e-10)
(2.33934e-10 1.01242e-10 1.27164e-10)
(1.8432e-10 4.38479e-11 1.38959e-13)
(2.28195e-10 1.2865e-09 -2.90728e-12)
(1.83005e-10 4.41094e-11 -2.63676e-13)
(1.8167e-10 4.31537e-11 -2.36373e-12)
(2.23764e-10 1.27e-09 -3.26075e-12)
(2.1876e-10 1.26164e-09 -3.5117e-12)
(2.34406e-10 4.38113e-10 -5.38953e-12)
(1.67395e-10 2.39144e-10 -4.07764e-12)
(2.7029e-10 1.49407e-10 -3.43961e-12)
(2.29844e-10 4.3462e-10 -7.13807e-12)
(2.71718e-10 1.5024e-10 -3.91243e-12)
(2.12226e-10 1.25163e-09 -7.13875e-12)
(2.17628e-10 1.26342e-09 -5.0464e-12)
(1.8071e-10 4.21891e-11 -1.73405e-12)
(1.81482e-10 4.26762e-11 -1.98285e-12)
(2.27665e-10 4.28093e-10 -6.36698e-12)
(1.6319e-10 2.35069e-10 -3.86443e-12)
(2.6819e-10 1.48662e-10 -3.36257e-12)
(2.28656e-10 4.34483e-10 -6.94797e-12)
(2.67188e-10 1.47598e-10 -3.54571e-12)
(1.7836e-10 4.08792e-11 -1.64058e-12)
(1.79028e-10 4.12696e-11 -1.49552e-12)
(2.03446e-10 1.22993e-09 -6.41343e-12)
(2.06438e-10 1.23824e-09 -6.45964e-12)
(2.10637e-10 1.24632e-09 -7.09536e-12)
(2.07448e-10 1.23948e-09 -6.15642e-12)
(1.80152e-10 4.20837e-11 -1.42539e-12)
(1.79315e-10 4.14892e-11 -1.89611e-12)
(1.78012e-10 4.07351e-11 -1.31349e-12)
(1.77295e-10 4.02671e-11 -1.68076e-12)
(2.02641e-10 1.22683e-09 -6.47415e-12)
(2.00615e-10 1.21962e-09 -6.00822e-12)
(2.23657e-10 4.18266e-10 -5.90468e-12)
(1.59169e-10 2.2962e-10 -3.61595e-12)
(2.61807e-10 1.4266e-10 -3.3496e-12)
(2.21934e-10 4.14241e-10 -6.44344e-12)
(2.62786e-10 1.43465e-10 -3.11694e-12)
(1.97631e-10 1.20913e-09 -6.48436e-12)
(1.99911e-10 1.21747e-09 -6.2822e-12)
(1.76262e-10 3.96729e-11 -1.77594e-12)
(1.76987e-10 4.00995e-11 -1.35888e-12)
(2.1984e-10 4.08214e-10 -7.11246e-12)
(1.56425e-10 2.25827e-10 -4.36177e-12)
(2.60751e-10 1.41736e-10 -3.47924e-12)
(2.21667e-10 4.13625e-10 -6.41966e-12)
(2.5959e-10 1.40727e-10 -3.80236e-12)
(1.73303e-10 3.80921e-11 -2.18655e-12)
(1.7453e-10 3.87294e-11 -1.75698e-12)
(1.87457e-10 1.18131e-09 -6.32469e-12)
(1.92232e-10 1.19326e-09 -7.05651e-12)
(1.96763e-10 1.20611e-09 -6.79581e-12)
(1.93573e-10 1.19658e-09 -6.84521e-12)
(1.75883e-10 3.94931e-11 -1.51399e-12)
(1.74991e-10 3.89505e-11 -2.01992e-12)
(1.72678e-10 3.78215e-11 -1.87615e-12)
(1.71085e-10 3.70543e-11 -1.93602e-12)
(1.85561e-10 1.17691e-09 -6.01129e-12)
(2.12089e-10 3.89672e-10 -3.04194e-12)
(1.47797e-10 2.16243e-10 -3.68721e-12)
(2.48254e-10 1.31775e-10 -8.40102e-13)
(2.09721e-10 3.77047e-10 8.02415e-12)
(2.50691e-10 1.33703e-10 -2.69272e-12)
(1.68322e-10 3.59232e-11 -2.71921e-13)
(1.70313e-10 3.67382e-11 -1.40422e-12)
(2.13554e-10 3.55356e-10 4.4689e-11)
(1.40159e-10 2.07539e-10 6.80874e-12)
(2.4601e-10 1.29497e-10 2.7482e-12)
(2.09636e-10 3.74966e-10 1.08322e-11)
(2.43734e-10 1.271e-10 8.88942e-12)
(1.6241e-10 3.50846e-11 2.27488e-11)
(1.64495e-10 3.48513e-11 8.32264e-12)
(1.6741e-10 3.56091e-11 9.06105e-13)
(1.6537e-10 3.50096e-11 5.36705e-12)
(1.61062e-10 3.53652e-11 3.15928e-11)
(1.52771e-10 3.59748e-11 9.07045e-11)
(3.40823e-10 1.2044e-10 5.5176e-10)
(1.38482e-10 3.01961e-11 1.11758e-10)
(1.51928e-10 3.23505e-11 1.30616e-10)
(3.49181e-10 9.65998e-11 4.51383e-10)
(6.52032e-11 -1.08699e-11 1.20944e-10)
(4.15208e-10 5.81434e-10 3.35681e-12)
(2.57622e-10 4.41318e-10 4.90527e-12)
(4.87718e-10 3.55992e-10 2.97794e-12)
(3.25329e-10 8.19116e-10 6.09539e-12)
(4.12534e-10 5.81057e-10 1.14726e-12)
(2.52004e-10 4.45508e-10 1.94052e-12)
(4.7576e-10 3.60857e-10 4.90899e-13)
(3.12089e-10 8.15915e-10 -4.48912e-14)
(4.05297e-10 5.79247e-10 -2.44798e-13)
(4.84443e-10 3.58101e-10 4.58613e-12)
(3.20032e-10 8.19084e-10 1.58954e-12)
(3.93304e-10 5.70975e-10 -6.92591e-12)
(3.01675e-10 7.99173e-10 -5.87908e-12)
(2.28957e-10 4.48238e-10 -4.06414e-12)
(4.63808e-10 3.54273e-10 -8.63321e-12)
(4.61345e-10 3.58749e-10 -5.5521e-12)
(3.00438e-10 8.01985e-10 -6.96986e-12)
(3.94257e-10 5.67958e-10 -6.91393e-12)
(3.94118e-10 5.73434e-10 -4.89077e-12)
(2.27186e-10 4.5187e-10 -4.1453e-12)
(4.66998e-10 3.62964e-10 3.50207e-13)
(3.04389e-10 8.11488e-10 -4.08912e-12)
(3.98839e-10 5.76968e-10 -2.89295e-12)
(4.61431e-10 3.61893e-10 -5.70983e-12)
(3.00419e-10 8.06234e-10 -4.45304e-12)
(3.84834e-10 5.53863e-10 -5.86594e-12)
(2.93628e-10 7.81758e-10 -7.66437e-12)
(2.26524e-10 4.25917e-10 -6.3882e-12)
(4.56669e-10 3.43605e-10 -4.87899e-12)
(3.85887e-10 5.55194e-10 -6.75107e-12)
(4.55602e-10 3.42744e-10 -6.73295e-12)
(2.92724e-10 7.80105e-10 -6.09239e-12)
(3.83886e-10 5.52989e-10 -6.4801e-12)
(2.25848e-10 4.25773e-10 -6.23379e-12)
(4.53641e-10 3.41169e-10 -6.78297e-12)
(2.90819e-10 7.76828e-10 -5.98959e-12)
(3.82935e-10 5.5141e-10 -5.8142e-12)
(4.54462e-10 3.42339e-10 -4.5799e-12)
(2.91673e-10 7.78653e-10 -7.46849e-12)
(3.80444e-10 5.47696e-10 -6.46562e-12)
(2.88487e-10 7.69565e-10 -5.81447e-12)
(2.2378e-10 4.21039e-10 -5.80353e-12)
(4.5074e-10 3.37188e-10 -6.91819e-12)
(4.50794e-10 3.38691e-10 -4.69619e-12)
(2.88813e-10 7.71184e-10 -7.30078e-12)
(3.80052e-10 5.4613e-10 -5.82265e-12)
(3.81e-10 5.48706e-10 -5.76514e-12)
(2.23849e-10 4.21717e-10 -5.95098e-12)
(4.52589e-10 3.40515e-10 -4.33631e-12)
(2.90013e-10 7.74976e-10 -7.47457e-12)
(3.82065e-10 5.50327e-10 -6.38428e-12)
(4.51372e-10 3.3951e-10 -6.63513e-12)
(2.89272e-10 7.72836e-10 -5.95339e-12)
(3.70603e-10 5.31454e-10 -7.19851e-12)
(2.81519e-10 7.52251e-10 -8.61959e-12)
(2.18096e-10 4.04978e-10 -7.32359e-12)
(4.42868e-10 3.2799e-10 -5.6838e-12)
(3.72195e-10 5.33593e-10 -7.70331e-12)
(4.41236e-10 3.26578e-10 -7.92619e-12)
(2.80232e-10 7.49553e-10 -7.28275e-12)
(3.6932e-10 5.30007e-10 -7.93498e-12)
(2.17461e-10 4.04321e-10 -7.18272e-12)
(4.38827e-10 3.23489e-10 -8.25093e-12)
(2.77702e-10 7.44292e-10 -7.111e-12)
(3.67939e-10 5.27482e-10 -7.33317e-12)
(4.39846e-10 3.25589e-10 -6.04446e-12)
(2.78933e-10 7.47138e-10 -8.64048e-12)
(3.62908e-10 5.21041e-10 -7.01217e-12)
(2.71492e-10 7.30873e-10 -4.46651e-12)
(2.13629e-10 3.95595e-10 -5.64168e-12)
(4.32414e-10 3.16185e-10 -6.47113e-12)
(4.33731e-10 3.18904e-10 -5.09112e-12)
(2.73042e-10 7.34695e-10 -6.99958e-12)
(3.61126e-10 5.17734e-10 -5.58427e-12)
(3.64548e-10 5.22967e-10 -6.81011e-12)
(2.14398e-10 3.96518e-10 -6.16989e-12)
(4.37431e-10 3.22208e-10 -5.71164e-12)
(2.76313e-10 7.41511e-10 -8.29494e-12)
(3.66563e-10 5.25789e-10 -7.75238e-12)
(4.35453e-10 3.20261e-10 -7.48168e-12)
(2.74676e-10 7.37958e-10 -6.41454e-12)
(3.46419e-10 4.75358e-10 5.49765e-11)
(2.61217e-10 6.79063e-10 5.2792e-11)
(2.22246e-10 3.37903e-10 8.4018e-11)
(4.22463e-10 2.882e-10 4.09984e-11)
(3.46843e-10 4.83e-10 3.8085e-11)
(4.23431e-10 2.81917e-10 5.63802e-11)
(2.62201e-10 6.68729e-10 7.38561e-11)
(3.46297e-10 4.69139e-10 7.21348e-11)
(2.24045e-10 3.33872e-10 9.78178e-11)
(4.27047e-10 2.67283e-10 1.04421e-10)
(2.66773e-10 6.41087e-10 1.31748e-10)
(3.47116e-10 4.572e-10 9.90424e-11)
(4.24222e-10 2.77028e-10 7.78132e-11)
(2.63818e-10 6.56891e-10 9.76959e-11)
(3.55775e-10 3.9491e-10 2.26929e-10)
(3.08217e-10 4.80012e-10 3.77256e-10)
(2.74517e-10 2.45186e-10 3.14711e-10)
(4.51984e-10 1.73182e-10 3.50591e-10)
(4.41173e-10 2.16283e-10 2.57627e-10)
(2.90149e-10 5.45633e-10 2.91802e-10)
(3.63916e-10 3.41377e-10 3.0546e-10)
(3.51958e-10 4.21205e-10 1.73935e-10)
(2.66263e-10 2.61874e-10 2.72624e-10)
(4.31171e-10 2.57128e-10 1.40691e-10)
(2.72013e-10 6.20675e-10 1.71815e-10)
(3.49047e-10 4.45735e-10 1.28215e-10)
(4.36871e-10 2.37039e-10 1.91771e-10)
(2.79337e-10 5.8933e-10 2.26349e-10)
(5.57841e-10 1.87818e-10 3.40733e-12)
(5.37711e-10 9.24118e-11 3.67254e-13)
(1.85511e-10 4.33171e-11 6.57471e-13)
(5.44443e-10 8.88529e-11 2.79023e-12)
(5.42345e-10 1.95167e-10 -2.62302e-13)
(5.55962e-10 1.88944e-10 4.14274e-12)
(1.86032e-10 4.32965e-11 8.36292e-13)
(5.47448e-10 8.72666e-11 2.1879e-12)
(1.27271e-10 1.04258e-09 5.60582e-12)
(2.33988e-10 1.30528e-09 -1.25115e-12)
(1.62751e-10 1.12801e-09 -1.88896e-12)
(1.71124e-10 1.14359e-09 2.41709e-12)
(2.39293e-10 1.31821e-09 3.25199e-12)
(1.73786e-10 1.14556e-09 3.99086e-12)
(1.16155e-10 1.03212e-09 -4.20623e-13)
(1.24442e-10 1.04273e-09 2.98452e-12)
(5.33164e-10 1.90016e-10 -7.37106e-12)
(5.28307e-10 1.96605e-10 -4.82631e-12)
(5.29424e-10 9.59366e-11 1.18279e-13)
(1.82094e-10 4.41692e-11 -1.62622e-12)
(5.24716e-10 9.72602e-11 -4.1738e-12)
(5.37317e-10 1.96944e-10 2.98902e-13)
(5.28195e-10 1.98087e-10 -5.68304e-12)
(5.27077e-10 9.16929e-11 -6.21764e-12)
(1.81537e-10 4.37494e-11 -1.81855e-12)
(5.24658e-10 9.49973e-11 -3.8875e-12)
(1.11246e-10 1.01202e-09 -4.77806e-12)
(1.11124e-10 1.01482e-09 -4.713e-12)
(2.21018e-10 1.26057e-09 -2.60746e-12)
(1.60441e-10 1.1231e-09 -2.63021e-12)
(1.57167e-10 1.11087e-09 -3.85641e-12)
(1.56581e-10 1.10785e-09 -5.26273e-12)
(2.19681e-10 1.2594e-09 -2.72857e-12)
(1.56944e-10 1.10916e-09 -4.18083e-12)
(1.13809e-10 1.02837e-09 -2.44128e-12)
(1.11052e-10 1.01712e-09 -3.18689e-12)
(3.94569e-10 5.65085e-10 -6.41137e-12)
(3.02757e-10 7.97597e-10 -7.67265e-12)
(2.34463e-10 4.35006e-10 -6.78805e-12)
(4.65763e-10 3.51751e-10 -5.994e-12)
(3.95075e-10 5.66806e-10 -7.55457e-12)
(3.02248e-10 7.9576e-10 -6.27222e-12)
(4.65817e-10 3.49951e-10 -7.28156e-12)
(3.93077e-10 5.64187e-10 -6.93845e-12)
(2.32803e-10 4.35562e-10 -6.92311e-12)
(2.98149e-10 7.91965e-10 -6.59926e-12)
(4.61596e-10 3.49212e-10 -6.98077e-12)
(3.00269e-10 7.943e-10 -7.88761e-12)
(4.63953e-10 3.49919e-10 -4.79058e-12)
(3.90897e-10 5.62384e-10 -6.26057e-12)
(1.11212e-10 1.01174e-09 -6.1296e-12)
(1.10058e-10 1.00863e-09 -6.00778e-12)
(2.14228e-10 1.25737e-09 -7.1293e-12)
(1.51517e-10 1.09757e-09 -7.2553e-12)
(1.54013e-10 1.10377e-09 -6.81299e-12)
(1.5638e-10 1.10785e-09 -5.5417e-12)
(2.16172e-10 1.26193e-09 -6.25307e-12)
(1.54895e-10 1.105e-09 -6.77869e-12)
(1.06925e-10 1.00277e-09 -6.38663e-12)
(1.09188e-10 1.00788e-09 -7.07667e-12)
(5.34313e-10 1.88591e-10 -5.68483e-12)
(5.34883e-10 1.86469e-10 -6.28418e-12)
(5.25571e-10 8.84595e-11 -4.87779e-12)
(1.81114e-10 4.22347e-11 -1.53854e-12)
(5.27244e-10 8.83737e-11 -3.45491e-12)
(5.30159e-10 1.86574e-10 -6.15578e-12)
(5.33725e-10 1.86631e-10 -4.59736e-12)
(5.28763e-10 8.9139e-11 -4.41152e-12)
(1.81553e-10 4.23879e-11 -1.90778e-12)
(5.29212e-10 8.81396e-11 -5.27723e-12)
(3.86569e-10 5.57756e-10 -7.16079e-12)
(2.27206e-10 4.31183e-10 -6.37333e-12)
(2.94099e-10 7.82983e-10 -6.30369e-12)
(4.56905e-10 3.44512e-10 -7.61202e-12)
(3.86313e-10 5.56027e-10 -6.35323e-12)
(2.94315e-10 7.84675e-10 -8.00151e-12)
(4.56579e-10 3.46487e-10 -5.48863e-12)
(3.87232e-10 5.5899e-10 -6.44952e-12)
(2.26992e-10 4.32407e-10 -6.61438e-12)
(2.9617e-10 7.89458e-10 -8.2354e-12)
(4.59143e-10 3.48861e-10 -4.67347e-12)
(3.89001e-10 5.61e-10 -6.92315e-12)
(2.94801e-10 7.86718e-10 -6.71098e-12)
(4.57105e-10 3.47736e-10 -7.35698e-12)
(5.25889e-10 1.8264e-10 -4.72669e-12)
(5.24204e-10 1.82185e-10 -5.87931e-12)
(5.18206e-10 8.51431e-11 -4.67294e-12)
(1.78573e-10 4.10101e-11 -1.38286e-12)
(5.18631e-10 8.57312e-11 -3.13924e-12)
(5.22475e-10 1.80888e-10 -5.82778e-12)
(5.23519e-10 1.82103e-10 -4.28528e-12)
(5.20774e-10 8.58884e-11 -3.41697e-12)
(1.78887e-10 4.11486e-11 -1.65303e-12)
(5.19829e-10 8.58655e-11 -4.73815e-12)
(1.04154e-10 9.91682e-10 -6.99679e-12)
(1.03298e-10 9.88466e-10 -5.98078e-12)
(2.04474e-10 1.23304e-09 -6.61572e-12)
(1.45302e-10 1.07805e-09 -6.58498e-12)
(1.46475e-10 1.08192e-09 -6.55182e-12)
(1.47965e-10 1.08623e-09 -6.57801e-12)
(2.05497e-10 1.23595e-09 -6.49151e-12)
(1.46911e-10 1.08292e-09 -6.71831e-12)
(1.0191e-10 9.84252e-10 -5.78753e-12)
(1.02904e-10 9.87657e-10 -6.85948e-12)
(1.04476e-10 9.92215e-10 -6.01719e-12)
(1.05299e-10 9.94573e-10 -7.17596e-12)
(1.50852e-10 1.09571e-09 -7.16776e-12)
(2.0945e-10 1.24239e-09 -6.54639e-12)
(1.49675e-10 1.09008e-09 -6.96896e-12)
(1.06343e-10 1.00114e-09 -7.43323e-12)
(1.05494e-10 9.95668e-10 -6.26471e-12)
(1.48343e-10 1.08679e-09 -6.68693e-12)
(2.08452e-10 1.24053e-09 -6.33261e-12)
(1.4937e-10 1.08907e-09 -6.77647e-12)
(5.26014e-10 1.831e-10 -6.49811e-12)
(5.24973e-10 1.85886e-10 -5.0499e-12)
(5.23081e-10 8.87839e-11 -3.2603e-12)
(1.79775e-10 4.19895e-11 -1.84565e-12)
(5.21098e-10 8.90517e-11 -5.177e-12)
(5.2871e-10 1.8667e-10 -4.51191e-12)
(5.25259e-10 1.86441e-10 -6.5666e-12)
(5.21083e-10 8.67205e-11 -5.29024e-12)
(1.79397e-10 4.17583e-11 -1.63561e-12)
(5.20481e-10 8.81663e-11 -3.73754e-12)
(5.19606e-10 1.7805e-10 -5.92151e-12)
(5.19346e-10 1.80002e-10 -4.31493e-12)
(5.17043e-10 8.48973e-11 -2.98516e-12)
(1.77759e-10 4.06311e-11 -1.61757e-12)
(5.15754e-10 8.49953e-11 -4.62902e-12)
(5.21835e-10 1.80703e-10 -4.15721e-12)
(5.19707e-10 1.80326e-10 -5.82233e-12)
(5.15217e-10 8.34671e-11 -4.77035e-12)
(1.77427e-10 4.04582e-11 -1.4044e-12)
(5.15028e-10 8.44764e-11 -3.17949e-12)
(1.00667e-10 9.75515e-10 -5.5932e-12)
(1.01278e-10 9.78104e-10 -6.5745e-12)
(2.02008e-10 1.22388e-09 -6.1846e-12)
(1.45011e-10 1.07687e-09 -6.46273e-12)
(1.44494e-10 1.07259e-09 -6.40971e-12)
(1.43513e-10 1.06882e-09 -6.32985e-12)
(2.01352e-10 1.22163e-09 -6.14557e-12)
(1.44282e-10 1.07165e-09 -6.24616e-12)
(1.01688e-10 9.83184e-10 -6.76648e-12)
(1.01425e-10 9.7899e-10 -5.66473e-12)
(3.78486e-10 5.43782e-10 -5.84003e-12)
(2.87957e-10 7.68156e-10 -7.3479e-12)
(2.22741e-10 4.16782e-10 -6.20076e-12)
(4.50175e-10 3.36481e-10 -4.44595e-12)
(3.79504e-10 5.45229e-10 -6.40317e-12)
(2.87183e-10 7.66305e-10 -6.01404e-12)
(4.49035e-10 3.35616e-10 -6.66836e-12)
(3.77721e-10 5.42803e-10 -6.66286e-12)
(2.22339e-10 4.16407e-10 -6.13554e-12)
(2.85823e-10 7.62784e-10 -6.31479e-12)
(4.4764e-10 3.33577e-10 -7.23603e-12)
(2.86436e-10 7.64688e-10 -7.56364e-12)
(4.48128e-10 3.35015e-10 -4.81495e-12)
(3.76999e-10 5.41085e-10 -6.24922e-12)
(1.00454e-10 9.74792e-10 -6.62203e-12)
(1.00015e-10 9.71157e-10 -5.8186e-12)
(1.98516e-10 1.21198e-09 -6.49204e-12)
(1.41355e-10 1.05946e-09 -6.81546e-12)
(1.42317e-10 1.0632e-09 -6.48388e-12)
(1.4325e-10 1.06801e-09 -6.27229e-12)
(1.99271e-10 1.21477e-09 -6.2978e-12)
(1.42611e-10 1.06423e-09 -6.56261e-12)
(9.89976e-11 9.66909e-10 -6.03631e-12)
(9.97726e-11 9.70269e-10 -6.78667e-12)
(5.19265e-10 1.77752e-10 -4.27072e-12)
(5.17318e-10 1.77441e-10 -5.87451e-12)
(5.12163e-10 8.19284e-11 -5.0011e-12)
(1.76458e-10 3.9844e-11 -1.45049e-12)
(5.12327e-10 8.27575e-11 -3.3028e-12)
(5.16284e-10 1.75591e-10 -6.26751e-12)
(5.1676e-10 1.77255e-10 -4.42279e-12)
(5.14532e-10 8.29616e-11 -3.09581e-12)
(1.76789e-10 3.99978e-11 -1.62836e-12)
(5.13357e-10 8.30533e-11 -4.67633e-12)
(3.74108e-10 5.36917e-10 -7.44548e-12)
(2.20361e-10 4.10935e-10 -6.76515e-12)
(2.82536e-10 7.54353e-10 -7.02772e-12)
(4.43913e-10 3.28967e-10 -7.99467e-12)
(3.73203e-10 5.34889e-10 -7.02512e-12)
(2.83332e-10 7.56574e-10 -8.30537e-12)
(4.44483e-10 3.30735e-10 -5.59653e-12)
(3.74995e-10 5.38122e-10 -6.58352e-12)
(2.20724e-10 4.11554e-10 -6.80289e-12)
(2.85083e-10 7.60912e-10 -7.99725e-12)
(4.46758e-10 3.32777e-10 -4.96668e-12)
(3.76211e-10 5.39946e-10 -6.98572e-12)
(2.84178e-10 7.58567e-10 -6.75943e-12)
(4.45447e-10 3.31603e-10 -7.3661e-12)
(5.1183e-10 1.71937e-10 -5.41689e-12)
(5.09203e-10 1.71123e-10 -7.07441e-12)
(5.0368e-10 7.76508e-11 -5.89679e-12)
(1.73639e-10 3.83366e-11 -1.88777e-12)
(5.04265e-10 7.87191e-11 -4.306e-12)
(5.07203e-10 1.68464e-10 -7.2441e-12)
(5.08379e-10 1.70779e-10 -5.62759e-12)
(5.07347e-10 7.93386e-11 -4.04639e-12)
(1.74201e-10 3.85703e-11 -2.05555e-12)
(5.05799e-10 7.9247e-11 -5.66643e-12)
(9.63698e-11 9.55324e-10 -7.57734e-12)
(9.52658e-11 9.50101e-10 -6.62469e-12)
(1.8927e-10 1.18543e-09 -6.78313e-12)
(1.33908e-10 1.03453e-09 -6.8846e-12)
(1.35907e-10 1.04007e-09 -7.17438e-12)
(1.37958e-10 1.04699e-09 -7.25819e-12)
(1.90853e-10 1.18937e-09 -6.89956e-12)
(1.36512e-10 1.04154e-09 -7.37048e-12)
(9.31088e-11 9.43715e-10 -6.11997e-12)
(9.47626e-11 9.48796e-10 -7.47132e-12)
(9.67824e-11 9.56421e-10 -6.5537e-12)
(9.79167e-11 9.6026e-10 -7.35833e-12)
(1.41043e-10 1.05833e-09 -6.80745e-12)
(1.95896e-10 1.2028e-09 -6.7804e-12)
(1.40227e-10 1.05361e-09 -7.13691e-12)
(9.87555e-11 9.65901e-10 -7.1125e-12)
(9.82225e-11 9.61331e-10 -6.38125e-12)
(1.38461e-10 1.04822e-09 -7.3123e-12)
(1.94842e-10 1.19969e-09 -6.92e-12)
(1.39846e-10 1.05242e-09 -7.06116e-12)
(5.1244e-10 1.72327e-10 -6.98188e-12)
(5.12955e-10 1.74406e-10 -5.13075e-12)
(5.11151e-10 8.1474e-11 -3.47276e-12)
(1.7563e-10 3.93639e-11 -1.8406e-12)
(5.09831e-10 8.1471e-11 -5.18322e-12)
(5.15749e-10 1.753e-10 -4.70782e-12)
(5.13542e-10 1.74718e-10 -6.53621e-12)
(5.08514e-10 7.99635e-11 -5.58588e-12)
(1.75215e-10 3.91652e-11 -1.69135e-12)
(5.08722e-10 8.0978e-11 -3.88375e-12)
(5.00684e-10 1.63329e-10 -5.56189e-12)
(5.02268e-10 1.66183e-10 -4.96625e-12)
(5.02132e-10 7.68712e-11 -4.21125e-12)
(1.72237e-10 3.76195e-11 -2.0876e-12)
(5.00289e-10 7.66126e-11 -5.56258e-12)
(5.06396e-10 1.67954e-10 -5.5719e-12)
(5.03294e-10 1.66659e-10 -6.64659e-12)
(4.97439e-10 7.47099e-11 -4.95811e-12)
(1.71518e-10 3.73389e-11 -1.79958e-12)
(4.98336e-10 7.59357e-11 -3.86268e-12)
(8.83378e-11 9.26669e-10 -2.25257e-12)
(9.03751e-11 9.3362e-10 -5.34576e-12)
(1.83609e-10 1.17182e-09 -5.17067e-12)
(1.33203e-10 1.03289e-09 -6.58731e-12)
(1.31201e-10 1.02575e-09 -5.69579e-12)
(1.27842e-10 1.01633e-09 -3.03935e-12)
(1.8143e-10 1.16663e-09 -4.1575e-12)
(1.30406e-10 1.02378e-09 -5.07064e-12)
(9.25341e-11 9.42245e-10 -6.88887e-12)
(9.10181e-11 9.35392e-10 -4.93809e-12)
(3.57124e-10 5.11767e-10 -2.65081e-12)
(2.69861e-10 7.27129e-10 -4.32659e-12)
(2.10762e-10 3.847e-10 1.99795e-13)
(4.30842e-10 3.14407e-10 -3.02613e-12)
(3.59473e-10 5.15484e-10 -5.06542e-12)
(2.68004e-10 7.2242e-10 -7.39319e-13)
(4.28689e-10 3.11732e-10 -3.2632e-12)
(3.55229e-10 5.09206e-10 -1.25947e-12)
(2.09961e-10 3.83429e-10 1.86208e-12)
(2.64643e-10 7.12754e-10 6.27571e-12)
(4.25501e-10 3.06356e-10 1.70133e-12)
(2.66202e-10 7.17955e-10 8.8357e-13)
(4.26786e-10 3.09897e-10 7.16396e-13)
(3.53286e-10 5.04877e-10 2.55937e-12)
(8.76364e-11 9.24688e-10 -2.27704e-12)
(8.58529e-11 9.15591e-10 2.55145e-12)
(1.20617e-10 9.91878e-10 1.03625e-11)
(1.23456e-10 1.00207e-09 3.55455e-12)
(1.26932e-10 1.01414e-09 -2.01818e-12)
(1.24416e-10 1.00474e-09 1.73248e-12)
(8.31748e-11 9.03393e-10 1.12926e-11)
(8.51529e-11 9.13137e-10 3.37175e-12)
(4.99771e-10 1.62612e-10 -3.45544e-12)
(4.96481e-10 1.60664e-10 -2.61329e-12)
(4.90121e-10 7.11096e-11 9.6735e-14)
(1.68857e-10 3.62133e-11 -6.1928e-13)
(4.91173e-10 7.24745e-11 -2.56522e-13)
(4.93803e-10 1.56534e-10 2.21279e-12)
(4.95301e-10 1.60051e-10 -1.7393e-13)
(4.95593e-10 7.36844e-11 -2.64006e-12)
(1.69756e-10 3.6507e-11 -1.30239e-12)
(4.93556e-10 7.32151e-11 -3.06625e-12)
(3.48275e-10 4.93356e-10 1.78071e-11)
(2.10256e-10 3.65274e-10 2.61902e-11)
(2.60679e-10 6.87114e-10 3.9171e-11)
(4.21705e-10 2.92342e-10 2.76229e-11)
(3.4716e-10 4.87471e-10 2.80276e-11)
(2.6105e-10 6.94615e-10 2.59884e-11)
(4.21705e-10 2.97264e-10 2.00939e-11)
(3.49744e-10 4.96869e-10 1.21098e-11)
(2.1043e-10 3.67273e-10 2.13954e-11)
(2.63338e-10 7.07529e-10 1.00521e-11)
(4.24351e-10 3.03772e-10 7.738e-12)
(3.51773e-10 5.01833e-10 5.67855e-12)
(2.62042e-10 7.01067e-10 1.83601e-11)
(4.22882e-10 2.99949e-10 1.16534e-11)
(4.9079e-10 1.45348e-10 3.40172e-11)
(4.92691e-10 1.4006e-10 5.5101e-11)
(4.81189e-10 6.12314e-11 6.82202e-11)
(1.62972e-10 3.4964e-11 1.66825e-11)
(4.81128e-10 6.31033e-11 5.06303e-11)
(4.97548e-10 1.30373e-10 1.02737e-10)
(4.92637e-10 1.38614e-10 6.60658e-11)
(4.83153e-10 6.50566e-11 2.602e-11)
(1.64034e-10 3.48149e-11 1.17617e-11)
(4.82988e-10 6.36875e-11 3.55062e-11)
(8.12204e-11 8.65397e-10 5.8715e-11)
(8.35222e-11 8.44913e-10 9.29513e-11)
(1.17617e-10 8.96922e-10 1.55324e-10)
(1.14699e-10 9.26849e-10 1.03168e-10)
(1.14371e-10 9.53477e-10 5.76809e-11)
(1.14476e-10 9.33611e-10 8.97002e-11)
(9.02841e-11 8.07185e-10 1.62529e-10)
(8.46176e-11 8.3808e-10 1.06186e-10)
(8.10222e-11 8.69771e-10 5.1194e-11)
(8.12508e-11 8.84361e-10 3.01612e-11)
(1.19656e-10 9.8892e-10 1.33539e-11)
(1.17405e-10 9.76224e-10 2.48556e-11)
(8.25821e-11 9.00612e-10 1.3299e-11)
(8.15592e-11 8.87982e-10 2.60153e-11)
(1.1486e-10 9.5787e-10 4.94494e-11)
(1.16623e-10 9.72464e-10 2.98883e-11)
(4.90549e-10 1.46994e-10 2.70537e-11)
(4.90038e-10 1.51633e-10 1.62869e-11)
(4.88345e-10 6.97916e-11 4.24177e-12)
(1.66832e-10 3.54009e-11 1.87365e-12)
(4.86692e-10 6.8991e-11 6.35142e-12)
(4.93081e-10 1.55496e-10 5.58349e-12)
(4.90957e-10 1.5247e-10 1.16933e-11)
(4.83888e-10 6.67695e-11 1.67192e-11)
(1.6586e-10 3.52015e-11 3.65371e-12)
(4.8436e-10 6.8289e-11 1.22757e-11)
(5.19068e-10 6.56025e-11 3.68009e-10)
(5.09479e-10 1.0262e-10 2.27638e-10)
(4.81172e-10 5.80485e-11 9.44776e-11)
(1.59792e-10 3.55974e-11 4.44879e-11)
(4.79983e-10 5.41302e-11 1.30777e-10)
(4.99434e-10 1.26487e-10 1.21312e-10)
(5.0866e-10 1.09372e-10 1.93213e-10)
(4.5847e-10 4.3753e-11 2.54263e-10)
(1.57307e-10 3.65805e-11 6.22286e-11)
(4.74034e-10 5.08039e-11 1.80569e-10)
(1.48611e-10 5.97568e-10 4.34053e-10)
(1.13264e-10 7.13512e-10 3.08288e-10)
(1.19185e-10 8.85918e-10 1.76698e-10)
(1.29509e-10 8.29305e-10 2.55621e-10)
(1.6692e-10 6.92438e-10 3.93866e-10)
(1.34748e-10 8.05515e-10 2.87224e-10)
(9.29948e-11 7.95926e-10 1.84874e-10)
(1.06779e-10 7.37652e-10 2.73172e-10)
(4.25669e-10 1.82729e-10 5.23602e-10)
(3.41766e-10 3.94166e-10 4.74684e-10)
(4.39615e-10 -2.0153e-11 8.04648e-10)
(4.7564e-10 1.24957e-10 4.66937e-10)
(3.89595e-10 2.69801e-10 3.99904e-10)
(3.98937e-10 3.01908e-10 5.87999e-10)
(5.13557e-10 3.94373e-11 6.27519e-10)
(4.02862e-10 1.70136e-10 5.01606e-10)
(4.05574e-10 4.11078e-10 5.72202e-10)
(3.85476e-10 5.26563e-11 5.05447e-10)
(7.77451e-11 -4.17348e-11 1.74376e-10)
(4.75741e-10 -1.02615e-10 6.43539e-10)
(7.12741e-11 -1.93291e-11 1.4076e-10)
(4.45498e-10 1.15988e-10 5.61922e-10)
(4.98347e-10 -6.54231e-11 8.83897e-10)
(4.29554e-10 3.22716e-10 6.47727e-10)
(5.61677e-10 -8.62502e-11 7.2486e-10)
(1.66755e-10 5.50649e-10 4.80916e-10)
(2.70557e-10 3.98638e-10 6.22999e-10)
(3.40991e-10 4.78425e-10 5.75019e-10)
(1.83294e-10 6.48557e-10 4.33364e-10)
(2.82619e-10 5.01433e-10 5.45331e-10)
(3.29082e-10 3.67759e-10 6.68063e-10)
(5.22616e-10 4.73962e-11 4.3283e-10)
(5.61989e-10 -7.35625e-11 6.95493e-10)
(7.69683e-11 -4.75525e-11 1.85934e-10)
(5.00768e-10 -1.39249e-10 6.71424e-10)
(5.95283e-10 -1.43058e-10 7.72282e-10)
(4.42424e-10 2.40041e-11 3.65582e-10)
(1.41646e-10 2.62695e-12 2.10581e-10)
(4.41502e-10 -1.8285e-11 5.15776e-10)
(3.9706e-10 5.64753e-10 7.51681e-12)
(2.55562e-10 4.44738e-10 1.25519e-11)
(4.13146e-10 3.85562e-10 8.79818e-12)
(2.625e-10 6.32684e-10 1.03879e-11)
(3.8867e-10 5.65737e-10 1.21164e-12)
(2.43771e-10 4.49171e-10 -1.68488e-12)
(3.96797e-10 3.92394e-10 -1.71468e-12)
(2.4484e-10 6.37193e-10 -7.91115e-13)
(3.83124e-10 5.6636e-10 2.65199e-13)
(4.03203e-10 3.90095e-10 7.65121e-13)
(2.49989e-10 6.3613e-10 -2.14816e-13)
(3.73666e-10 5.55895e-10 -6.89757e-12)
(2.38962e-10 6.2264e-10 -5.64023e-12)
(2.31988e-10 4.42644e-10 -4.51609e-12)
(3.8897e-10 3.82687e-10 -6.88728e-12)
(3.86923e-10 3.85254e-10 -5.31286e-12)
(2.38129e-10 6.24082e-10 -5.85926e-12)
(3.75069e-10 5.53858e-10 -6.89109e-12)
(3.74501e-10 5.65743e-10 -3.03085e-12)
(2.30048e-10 4.54126e-10 -4.10934e-12)
(3.9047e-10 3.94974e-10 -1.60128e-12)
(2.39487e-10 6.37565e-10 -2.4936e-12)
(3.78443e-10 5.66072e-10 -1.32193e-12)
(3.85857e-10 3.95707e-10 -4.12704e-12)
(2.36888e-10 6.36114e-10 -2.97983e-12)
(3.67343e-10 5.40072e-10 -6.42427e-12)
(2.32574e-10 6.07686e-10 -6.89802e-12)
(2.27915e-10 4.26489e-10 -6.46452e-12)
(3.82281e-10 3.71239e-10 -5.81695e-12)
(3.67484e-10 5.40583e-10 -6.83349e-12)
(3.82124e-10 3.70608e-10 -6.97512e-12)
(2.32891e-10 6.06478e-10 -6.2399e-12)
(3.07622e-10 6.26246e-10 -7.7827e-12)
(2.55279e-10 9.23326e-10 -6.81849e-12)
(3.0666e-10 6.24397e-10 -5.35526e-12)
(2.56237e-10 9.25573e-10 -7.53626e-12)
(3.085e-10 6.27247e-10 -5.37787e-12)
(2.58118e-10 9.29326e-10 -7.52059e-12)
(3.09418e-10 6.28805e-10 -7.91096e-12)
(2.57222e-10 9.27449e-10 -6.82511e-12)
(3.64723e-10 5.37281e-10 -6.34098e-12)
(2.25754e-10 4.24342e-10 -5.98894e-12)
(3.78895e-10 3.68235e-10 -6.65925e-12)
(2.29841e-10 6.03196e-10 -5.93086e-12)
(3.64199e-10 5.36481e-10 -6.08609e-12)
(3.79354e-10 3.68783e-10 -5.4424e-12)
(2.30578e-10 6.03437e-10 -6.53154e-12)
(3.62099e-10 5.31656e-10 -6.29682e-12)
(2.28449e-10 5.96827e-10 -5.79829e-12)
(2.24341e-10 4.19216e-10 -5.69636e-12)
(3.76829e-10 3.63568e-10 -6.57153e-12)
(3.76844e-10 3.64262e-10 -5.30905e-12)
(2.28961e-10 5.97007e-10 -6.34392e-12)
(3.61913e-10 5.30857e-10 -6.04252e-12)
(3.05031e-10 6.21353e-10 -5.26522e-12)
(2.54487e-10 9.21167e-10 -7.49006e-12)
(3.05855e-10 6.23243e-10 -7.71051e-12)
(2.53816e-10 9.18789e-10 -6.66996e-12)
(3.04443e-10 6.2034e-10 -7.64869e-12)
(2.52678e-10 9.15241e-10 -6.51891e-12)
(2.53252e-10 9.17014e-10 -7.25418e-12)
(3.03872e-10 6.18715e-10 -5.23814e-12)
(3.63333e-10 5.35242e-10 -6.14212e-12)
(2.24885e-10 4.22617e-10 -6.12049e-12)
(3.78337e-10 3.67884e-10 -5.43626e-12)
(2.29415e-10 6.02449e-10 -6.55228e-12)
(3.63688e-10 5.35864e-10 -6.39762e-12)
(3.77861e-10 3.67312e-10 -6.64605e-12)
(2.29712e-10 6.01027e-10 -5.92444e-12)
(3.54732e-10 5.17564e-10 -7.39915e-12)
(2.23461e-10 5.82823e-10 -7.64001e-12)
(2.19594e-10 4.06342e-10 -7.32677e-12)
(3.70471e-10 3.53604e-10 -6.6554e-12)
(3.55184e-10 5.18381e-10 -7.62265e-12)
(3.69956e-10 3.52804e-10 -7.91973e-12)
(2.23604e-10 5.81249e-10 -7.09139e-12)
(3.51498e-10 5.12567e-10 -7.61043e-12)
(2.17252e-10 4.01902e-10 -6.92836e-12)
(3.66418e-10 3.47776e-10 -7.84795e-12)
(2.202e-10 5.7487e-10 -6.82244e-12)
(3.50893e-10 5.11291e-10 -7.31064e-12)
(3.66821e-10 3.4892e-10 -6.68718e-12)
(2.20932e-10 5.75702e-10 -7.47585e-12)
(3.45604e-10 5.02387e-10 -5.4727e-12)
(2.15665e-10 5.62838e-10 -3.63315e-12)
(2.13291e-10 3.92457e-10 -4.42442e-12)
(3.6098e-10 3.39057e-10 -5.19593e-12)
(3.61361e-10 3.40641e-10 -4.58092e-12)
(2.16336e-10 5.642e-10 -4.86714e-12)
(3.44933e-10 5.00703e-10 -4.65041e-12)
(3.49581e-10 5.09148e-10 -7.0627e-12)
(2.16025e-10 3.98565e-10 -6.78564e-12)
(3.65765e-10 3.47046e-10 -6.56733e-12)
(2.19501e-10 5.73713e-10 -7.30911e-12)
(3.50176e-10 5.10277e-10 -7.50373e-12)
(3.65152e-10 3.4594e-10 -7.59183e-12)
(2.19576e-10 5.71763e-10 -6.50393e-12)
(3.39562e-10 4.5765e-10 5.53903e-11)
(2.13909e-10 5.16949e-10 5.31044e-11)
(2.17874e-10 3.47018e-10 6.17602e-11)
(3.58158e-10 3.05875e-10 4.75969e-11)
(3.38159e-10 4.61612e-10 4.65693e-11)
(3.60441e-10 3.01746e-10 5.51015e-11)
(2.16478e-10 5.11492e-10 6.29509e-11)
(3.46142e-10 4.32229e-10 1.18539e-10)
(2.31519e-10 3.21084e-10 1.31905e-10)
(3.74484e-10 2.73309e-10 1.39299e-10)
(2.31015e-10 4.72004e-10 1.53802e-10)
(3.49392e-10 4.24455e-10 1.37397e-10)
(3.69669e-10 2.80891e-10 1.21089e-10)
(2.2645e-10 4.81089e-10 1.32622e-10)
(3.88866e-10 3.08421e-10 3.70866e-10)
(3.00555e-10 3.00329e-10 4.64579e-10)
(3.00205e-10 1.94092e-10 4.18783e-10)
(4.41041e-10 1.40798e-10 4.51965e-10)
(4.25135e-10 1.72467e-10 3.92044e-10)
(2.8307e-10 3.38221e-10 4.06113e-10)
(4.02275e-10 2.74856e-10 4.25488e-10)
(3.57663e-10 4.05161e-10 1.835e-10)
(2.50199e-10 2.91171e-10 2.0454e-10)
(3.79093e-10 2.66452e-10 1.62193e-10)
(2.34878e-10 4.62275e-10 1.76503e-10)
(3.52631e-10 4.16341e-10 1.58076e-10)
(3.86492e-10 2.55356e-10 1.87334e-10)
(2.42051e-10 4.48495e-10 2.04567e-10)
(4.16251e-10 2.48646e-10 1.22191e-11)
(4.00426e-10 2.53962e-10 -5.03993e-12)
(4.06616e-10 2.51702e-10 -1.78747e-12)
(1.00677e-10 7.02228e-10 1.19368e-11)
(8.64705e-11 7.05562e-10 -1.1641e-12)
(8.97837e-11 7.05237e-10 -1.05249e-12)