/*--------------------------------*- C++ -*----------------------------------*\
| =========                 |                                                 |
| \\      /  F ield         | OpenFOAM: The Open Source CFD Toolbox           |
|  \\    /   O peration     | Version:  2012                                  |
|   \\  /    A nd           | Website:  www.openfoam.com                      |
|    \\/     M anipulation  |                                                 |
\*---------------------------------------------------------------------------*/
FoamFile
{
    version     2.0;
    format      ascii;
    class       volScalarField;
    location    "0.105/solid";
    object      epsilonEq;
}
// * * * * * * * * * * * * * * * * * * * * * * * * * * * * * * * * * * * * * //

dimensions      [0 0 0 0 0 0 0];


internalField   nonuniform List<scalar> 
3125
(
2.2874e-08
2.24692e-08
2.17099e-08
2.16096e-08
2.08735e-08
2.07147e-08
1.8848e-08
1.81452e-08
2.21219e-08
2.19735e-08
2.1344e-08
2.12406e-08
2.0091e-08
1.98334e-08
2.30868e-08
2.10383e-08
2.20901e-08
5.69878e-09
2.11413e-08
5.45579e-09
2.06534e-08
2.16913e-08
2.2281e-08
2.16603e-08
5.64765e-09
2.04789e-08
5.25797e-09
2.18001e-08
1.99575e-08
5.20945e-09
2.00427e-08
5.15278e-09
1.98618e-08
2.15209e-08
5.19764e-09
1.97822e-08
5.0191e-09
2.10107e-08
1.922e-08
4.92662e-09
1.93386e-08
4.7316e-09
1.90834e-08
2.05317e-08
4.90598e-09
1.89264e-08
3.62418e-09
1.92466e-08
1.77753e-08
4.01592e-09
1.79543e-08
1.16887e-08
1.76351e-08
1.68245e-08
4.43876e-09
1.7878e-08
2.29277e-08
1.54872e-08
2.26981e-08
2.24815e-08
1.52565e-08
1.51885e-08
5.44239e-09
2.22321e-08
2.03513e-08
5.34527e-09
2.04542e-08
1.50035e-08
1.51988e-08
2.2345e-08
2.25001e-08
5.26461e-09
2.18724e-08
2.01995e-08
5.32523e-09
2.0105e-08
2.19718e-08
2.21024e-08
1.47497e-08
1.48521e-08
1.49308e-08
1.48679e-08
2.22638e-08
2.2126e-08
2.19268e-08
2.18109e-08
1.47116e-08
1.46402e-08
5.14537e-09
2.14374e-08
1.96253e-08
5.09987e-09
1.97086e-08
1.45223e-08
1.4615e-08
2.16543e-08
2.17786e-08
5.03185e-09
2.11306e-08
1.95348e-08
5.08954e-09
1.9441e-08
2.12641e-08
2.1436e-08
1.41759e-08
1.43348e-08
1.44858e-08
1.43782e-08
2.16153e-08
2.14807e-08
2.12047e-08
2.09813e-08
1.41061e-08
4.69589e-09
2.03244e-08
1.85534e-08
4.35702e-09
1.87499e-08
2.06468e-08
2.09065e-08
3.70463e-09
1.95545e-08
1.8348e-08
4.29252e-09
1.81398e-08
2.041e-08
2.03379e-08
2.05718e-08
2.03657e-08
2.05519e-08
2.20177e-08
1.33721e-08
2.25818e-08
2.36236e-08
2.04608e-08
2.33456e-08
2.19176e-08
5.91191e-09
1.66377e-08
1.60967e-08
2.1796e-08
5.84491e-09
1.62736e-08
1.57377e-08
2.15453e-08
1.65127e-08
1.59817e-08
2.09891e-08
1.52925e-08
5.48528e-09
1.58067e-08
1.57177e-08
1.52414e-08
2.10418e-08
2.10604e-08
5.52086e-09
1.59172e-08
1.54676e-08
2.12412e-08
1.57415e-08
1.52931e-08
2.06831e-08
1.50374e-08
5.22334e-09
1.55665e-08
2.07073e-08
1.55257e-08
1.50119e-08
2.06315e-08
5.21212e-09
1.54666e-08
1.49522e-08
2.05989e-08
1.54772e-08
1.49761e-08
2.0459e-08
1.48411e-08
5.14726e-09
1.53478e-08
1.53324e-08
1.48436e-08
2.04483e-08
2.0502e-08
5.15706e-09
1.54159e-08
1.49101e-08
2.05412e-08
1.53618e-08
1.48706e-08
2.00247e-08
1.45719e-08
4.96784e-09
1.50695e-08
2.00713e-08
1.5012e-08
1.45261e-08
1.99546e-08
4.94954e-09
1.49486e-08
1.44458e-08
1.99166e-08
1.49565e-08
1.44756e-08
1.96839e-08
1.41964e-08
4.79487e-09
1.4733e-08
1.47544e-08
1.42487e-08
1.9629e-08
1.9777e-08
4.82615e-09
1.48975e-08
1.43903e-08
1.98394e-08
1.48291e-08
1.43245e-08
1.84442e-08
1.29055e-08
3.48284e-09
1.41313e-08
1.86003e-08
1.40783e-08
1.26359e-08
1.82409e-08
3.45143e-09
1.40507e-08
1.19812e-08
1.8042e-08
1.40247e-08
1.22985e-08
1.7108e-08
1.14237e-08
7.61223e-09
1.61607e-08
1.5216e-08
1.11832e-08
1.70104e-08
1.75279e-08
6.63506e-09
1.43087e-08
1.1661e-08
1.77827e-08
1.46083e-08
1.13826e-08
1.31517e-08
8.93389e-09
2.31222e-08
8.99837e-09
1.28554e-08
1.31084e-08
2.31801e-08
8.94115e-09
1.26675e-08
1.57685e-08
1.42522e-08
1.46243e-08
1.59811e-08
1.47344e-08
1.238e-08
1.25208e-08
1.25242e-08
1.24496e-08
8.83085e-09
2.25408e-08
8.75423e-09
1.26691e-08
1.2427e-08
8.63255e-09
2.24865e-08
8.68265e-09
1.20418e-08
1.20836e-08
1.51533e-08
1.41402e-08
1.39305e-08
1.39733e-08
1.51439e-08
1.3918e-08
1.22801e-08
1.21011e-08
2.10751e-08
1.53269e-08
5.39294e-09
1.58847e-08
2.10688e-08
1.53213e-08
1.58753e-08
2.10062e-08
5.37192e-09
1.52038e-08
1.57437e-08
1.52674e-08
1.58e-08
2.09344e-08
1.20146e-08
1.19788e-08
1.50872e-08
1.37836e-08
1.38805e-08
1.39667e-08
1.51635e-08
1.39277e-08
1.1875e-08
1.19209e-08
1.25954e-08
1.25637e-08
8.56905e-09
2.24222e-08
8.6159e-09
1.24607e-08
1.25326e-08
8.63954e-09
2.24773e-08
8.61618e-09
2.07275e-08
5.25921e-09
1.50448e-08
1.55698e-08
2.07316e-08
1.50343e-08
1.55373e-08
2.07723e-08
5.27088e-09
1.51223e-08
1.56366e-08
2.08336e-08
1.5062e-08
1.55615e-08
1.23406e-08
1.22698e-08
8.3714e-09
2.20151e-08
8.40904e-09
1.22367e-08
1.22528e-08
8.43562e-09
2.20576e-08
8.42092e-09
1.17242e-08
1.16963e-08
1.47859e-08
1.35491e-08
1.35843e-08
1.36494e-08
1.4825e-08
1.36095e-08
1.16484e-08
1.16672e-08
1.17442e-08
1.17543e-08
1.37425e-08
1.48889e-08
1.36674e-08
1.18357e-08
1.17729e-08
1.36612e-08
1.48688e-08
1.3653e-08
1.23285e-08
1.22969e-08
8.53168e-09
2.21886e-08
8.50525e-09
1.24132e-08
1.22934e-08
8.44349e-09
2.21505e-08
8.48066e-09
1.21421e-08
1.21269e-08
8.3504e-09
2.18746e-08
8.33366e-09
1.22201e-08
1.21301e-08
8.28451e-09
2.18407e-08
8.31848e-09
1.15528e-08
1.15617e-08
1.46812e-08
1.35244e-08
1.34738e-08
1.34489e-08
1.46554e-08
1.34567e-08
1.16223e-08
1.15828e-08
2.03781e-08
1.48201e-08
5.10952e-09
1.53245e-08
2.04101e-08
1.47885e-08
1.52772e-08
2.03286e-08
5.099e-09
1.47395e-08
1.52368e-08
1.47552e-08
1.5236e-08
2.03038e-08
1.15321e-08
1.15004e-08
1.45517e-08
1.33419e-08
1.33669e-08
1.34331e-08
1.45863e-08
1.33893e-08
1.14588e-08
1.14745e-08
1.21412e-08
1.2062e-08
8.20998e-09
2.16909e-08
8.24668e-09
1.20486e-08
1.20505e-08
8.2722e-09
2.17298e-08
8.259e-09
2.01547e-08
5.0355e-09
1.46094e-08
1.51069e-08
2.01292e-08
1.46255e-08
1.5104e-08
2.021e-08
5.04822e-09
1.47038e-08
1.51986e-08
2.02508e-08
1.46633e-08
1.51454e-08
1.19407e-08
1.18461e-08
8.0161e-09
2.132e-08
8.06373e-09
1.1816e-08
1.18336e-08
8.10441e-09
2.1373e-08
8.08181e-09
1.13063e-08
1.12542e-08
1.42325e-08
1.3026e-08
1.30807e-08
1.31832e-08
1.4288e-08
1.31166e-08
1.11661e-08
1.12132e-08
1.13396e-08
1.13608e-08
1.33179e-08
1.44497e-08
1.32637e-08
1.14315e-08
1.13911e-08
1.32106e-08
1.44106e-08
1.32381e-08
1.19442e-08
1.19457e-08
8.19347e-09
2.1562e-08
8.17581e-09
1.20411e-08
1.19531e-08
8.12186e-09
2.15213e-08
8.1615e-09
1.16494e-08
1.1686e-08
7.99062e-09
2.11251e-08
7.95703e-09
1.18104e-08
1.17e-08
7.87379e-09
2.10549e-08
7.93131e-09
1.08636e-08
1.09632e-08
1.40347e-08
1.29843e-08
1.28804e-08
1.27233e-08
1.39555e-08
1.28268e-08
1.11173e-08
1.10278e-08
1.94456e-08
1.4113e-08
4.55871e-09
1.46686e-08
1.953e-08
1.40135e-08
1.45881e-08
1.9324e-08
4.50229e-09
1.37996e-08
1.44527e-08
1.38943e-08
1.44902e-08
1.92421e-08
1.0791e-08
1.06174e-08
1.2187e-08
1.23817e-08
1.266e-08
1.24708e-08
1.02861e-08
1.05107e-08
1.16476e-08
1.15226e-08
7.70193e-09
2.07282e-08
7.76519e-09
1.14541e-08
1.1507e-08
7.83996e-09
2.08127e-08
7.79436e-09
1.88569e-08
3.9513e-09
1.31273e-08
1.41451e-08
1.87403e-08
1.33087e-08
1.41883e-08
1.90056e-08
4.05356e-09
1.36671e-08
1.43866e-08
1.91188e-08
1.35078e-08
1.42967e-08
1.14308e-08
1.14796e-08
8.13178e-09
2.03311e-08
7.8593e-09
1.18865e-08
1.15791e-08
7.62695e-09
2.03323e-08
7.68084e-09
8.81099e-09
7.97553e-09
8.99549e-09
9.8933e-09
1.09139e-08
1.0222e-08
6.4201e-09
7.57242e-09
9.07198e-09
9.59462e-09
1.20757e-08
1.17272e-08
1.01598e-08
9.7867e-09
1.11256e-08
1.15592e-08
1.13425e-08
1.13601e-08
7.66981e-09
2.04879e-08
7.62563e-09
1.14708e-08
1.13564e-08
7.59374e-09
2.0414e-08
7.62239e-09
1.70991e-08
1.40872e-08
8.63078e-09
2.08435e-08
9.54646e-09
1.22588e-08
1.33791e-08
1.42848e-08
2.124e-08
1.10892e-08
5.34621e-09
4.42809e-09
8.60863e-09
7.69495e-09
7.17095e-09
7.28501e-09
5.90559e-09
4.88166e-09
1.90328e-08
1.22293e-08
1.64487e-08
1.83049e-08
1.75196e-08
1.36084e-08
1.99946e-08
2.07653e-08
1.34177e-08
2.10856e-08
3.13607e-08
2.26099e-08
2.54968e-08
2.12935e-08
1.6489e-08
1.19904e-08
2.25766e-08
5.48119e-09
5.86329e-09
8.40084e-09
7.11902e-09
7.76312e-09
6.03459e-09
1.89276e-08
2.25785e-08
3.12535e-08
2.2747e-08
2.22535e-08
1.83318e-08
2.65607e-08
2.1301e-08
1.47079e-08
5.9989e-09
7.86281e-09
8.73834e-09
1.43916e-08
5.73149e-09
7.6102e-09
8.45406e-09
1.42598e-08
7.62315e-09
8.49492e-09
1.38551e-08
8.16208e-09
5.44028e-09
7.33215e-09
7.29933e-09
8.13848e-09
1.39164e-08
1.39305e-08
5.57497e-09
7.46228e-09
8.36798e-09
1.40718e-08
7.40169e-09
8.28788e-09
1.36549e-08
7.93114e-09
5.22846e-09
7.14666e-09
1.36747e-08
7.12144e-09
7.90099e-09
2.2735e-08
1.9372e-08
2.26919e-08
1.94096e-08
2.27813e-08
1.94806e-08
2.28079e-08
1.94541e-08
1.35692e-08
5.1931e-09
7.09398e-09
7.87163e-09
1.35768e-08
7.06663e-09
7.85292e-09
1.34608e-08
7.80014e-09
5.13282e-09
7.03036e-09
6.99851e-09
7.77727e-09
1.34809e-08
2.25957e-08
1.93216e-08
2.26386e-08
1.92799e-08
2.25554e-08
1.92394e-08
1.92493e-08
2.2531e-08
1.35151e-08
5.16417e-09
7.06906e-09
7.85339e-09
1.35496e-08
7.03771e-09
7.81887e-09
1.32084e-08
7.62592e-09
4.9849e-09
6.87493e-09
1.32408e-08
6.84493e-09
7.58948e-09
1.3106e-08
4.91869e-09
6.79335e-09
7.51768e-09
1.3111e-08
6.76826e-09
7.50819e-09
1.28967e-08
7.29226e-09
4.73876e-09
6.62206e-09
6.60565e-09
7.29952e-09
1.28899e-08
1.30432e-08
4.86381e-09
6.76386e-09
7.48941e-09
1.30828e-08
6.72927e-09
7.44329e-09
1.1988e-08
5.94501e-09
3.56344e-09
5.87932e-09
1.2108e-08
5.78661e-09
5.74878e-09
1.17796e-08
3.68777e-09
6.03825e-09
5.07853e-09
1.1686e-08
5.89084e-09
5.17196e-09
1.33118e-08
9.98943e-09
1.01248e-08
1.26799e-08
1.11748e-08
8.88425e-09
1.40445e-08
1.18433e-08
5.06756e-09
6.45012e-09
5.24901e-09
1.1843e-08
6.76883e-09
5.33737e-09
6.16588e-09
5.87088e-09
5.93697e-09
9.71505e-09
9.36892e-09
9.4106e-09
5.68965e-09
5.62947e-09
5.72337e-09
5.64401e-09
9.06803e-09
9.05025e-09
9.26612e-09
9.18851e-09
1.39556e-08
8.15072e-09
5.40852e-09
7.34544e-09
1.39518e-08
8.11579e-09
7.31862e-09
1.38227e-08
5.33789e-09
8.04228e-09
7.24775e-09
8.03358e-09
7.22742e-09
1.38073e-08
9.06022e-09
9.02766e-09
8.92716e-09
8.92364e-09
5.72772e-09
5.73115e-09
5.64231e-09
5.63555e-09
1.36509e-08
5.24329e-09
7.94142e-09
7.15559e-09
1.36806e-08
7.91638e-09
7.12122e-09
2.2883e-08
1.95651e-08
2.29473e-08
1.9502e-08
1.36996e-08
5.28429e-09
8.01216e-09
7.20017e-09
1.37524e-08
7.96969e-09
7.16344e-09
2.2841e-08
1.94873e-08
2.28303e-08
1.94768e-08
5.57936e-09
5.56211e-09
5.53053e-09
5.50873e-09
8.80959e-09
8.78216e-09
8.74096e-09
8.72623e-09
8.82028e-09
8.79854e-09
8.89496e-09
8.85351e-09
5.57785e-09
5.53847e-09
5.59784e-09
5.55962e-09
5.48568e-09
5.45333e-09
5.51141e-09
5.48339e-09
8.66426e-09
8.64449e-09
8.72229e-09
8.69023e-09
1.344e-08
7.78776e-09
5.11522e-09
7.01594e-09
1.34662e-08
7.75672e-09
6.98871e-09
2.24128e-08
1.91114e-08
1.91394e-08
2.23742e-08
2.2459e-08
1.92138e-08
2.24945e-08
1.91798e-08
1.33669e-08
5.08232e-09
7.7315e-09
6.96979e-09
7.71188e-09
6.94076e-09
1.33788e-08
8.65096e-09
8.62266e-09
8.5877e-09
8.57194e-09
5.47921e-09
5.45652e-09
5.44052e-09
5.41338e-09
1.32502e-08
5.01606e-09
7.6447e-09
6.89591e-09
1.32623e-08
7.6272e-09
6.86728e-09
2.22758e-08
1.90672e-08
2.2323e-08
1.90224e-08
1.33257e-08
5.05739e-09
7.71507e-09
6.94963e-09
1.33575e-08
7.68126e-09
6.92023e-09
5.38021e-09
5.35753e-09
5.32695e-09
5.29617e-09
8.47322e-09
8.43908e-09
8.35058e-09
8.34675e-09
8.49285e-09
8.47934e-09
8.57094e-09
8.53936e-09
5.3907e-09
5.36049e-09
5.42832e-09
5.40404e-09
5.23718e-09
5.20396e-09
5.3123e-09
5.28984e-09
8.09583e-09
8.11058e-09
8.32087e-09
8.27574e-09
1.28032e-08
7.24882e-09
4.63834e-09
6.58279e-09
1.28566e-08
7.18184e-09
6.53621e-09
1.25967e-08
4.39393e-09
6.86847e-09
6.32894e-09
6.91467e-09
6.33303e-09
1.25646e-08
8.04769e-09
7.97993e-09
7.60294e-09
7.66221e-09
5.2223e-09
5.20013e-09
5.12973e-09
5.09035e-09
1.21791e-08
3.76741e-09
6.04799e-09
5.8826e-09
1.21026e-08
6.17598e-09
5.91584e-09
1.24515e-08
4.20827e-09
6.79782e-09
6.28332e-09
1.25339e-08
6.68445e-09
6.20949e-09
5.28756e-09
5.36611e-09
6.70501e-09
6.23435e-09
6.43901e-09
6.22587e-09
5.01171e-09
5.16072e-09
6.59663e-09
6.75337e-09
7.51786e-09
7.39941e-09
5.18617e-09
5.09232e-09
5.13062e-09
5.11668e-09
1.53055e-08
1.3458e-08
7.2894e-09
7.96729e-09
8.99446e-09
7.76637e-09
4.94671e-09
5.04781e-09
1.63072e-08
1.12926e-08
1.49628e-08
1.44055e-08
1.48418e-08
1.26499e-08
1.63674e-08
1.81685e-08
1.7963e-08
1.76641e-08
1.93057e-08
1.78842e-08
1.2916e-08
1.68784e-08
1.37128e-08
2.00807e-08
2.04819e-08
2.0264e-08
2.59877e-08
1.87037e-08
2.18949e-08
2.29524e-08
1.00092e-08
1.12716e-08
1.74057e-08
1.9519e-08
1.93547e-08
2.03435e-08
1.86885e-08
1.77036e-08
1.67433e-08
1.85191e-08
1.7827e-08
1.99466e-08
1.98817e-08
1.79259e-08
1.47906e-08
5.93776e-09
7.86567e-09
8.71124e-09
1.47862e-08
7.8612e-09
8.72076e-09
1.45512e-08
5.76412e-09
7.75725e-09
8.65804e-09
1.46791e-08
7.70622e-09
8.57074e-09
1.38032e-08
5.45101e-09
7.30726e-09
8.17735e-09
1.37934e-08
7.27939e-09
8.13663e-09
1.38299e-08
5.53351e-09
7.31389e-09
8.2119e-09
1.37981e-08
7.32407e-09
8.22817e-09
1.3629e-08
5.21664e-09
7.10945e-09
7.90436e-09
1.36266e-08
7.0924e-09
7.88917e-09
1.35776e-08
5.18927e-09
7.08177e-09
7.88753e-09
1.35983e-08
7.06427e-09
7.85947e-09
1.34558e-08
5.12737e-09
7.00347e-09
7.80409e-09
1.34661e-08
6.98769e-09
7.77802e-09
1.34846e-08
5.14982e-09
7.02033e-09
7.81846e-09
1.34833e-08
7.00475e-09
7.80405e-09
1.31766e-08
4.96806e-09
6.8218e-09
7.57896e-09
1.3166e-08
6.80989e-09
7.57191e-09
1.31123e-08
4.92091e-09
6.78913e-09
7.55427e-09
1.31354e-08
6.76914e-09
7.51921e-09
1.29086e-08
4.75431e-09
6.6464e-09
7.37187e-09
1.29441e-08
6.61746e-09
7.3223e-09
1.30059e-08
4.83823e-09
6.69135e-09
7.41015e-09
1.29844e-08
6.68668e-09
7.41638e-09
1.20049e-08
3.48894e-09
5.74246e-09
5.45842e-09
1.18663e-08
5.79044e-09
5.65362e-09
1.17014e-08
3.57901e-09
5.78256e-09
5.37409e-09
1.18593e-08
5.72421e-09
5.14997e-09
1.28239e-08
8.92784e-09
8.97759e-09
7.00937e-09
1.24419e-08
9.93439e-09
7.72947e-09
1.20951e-08
5.70156e-09
7.9856e-09
6.1544e-09
1.21544e-08
7.35239e-09
5.77246e-09
6.12244e-09
6.09881e-09
5.77408e-09
1.2205e-08
6.1443e-09
4.1639e-09
5.73298e-09
4.22245e-09
6.08475e-09
1.23069e-08
6.19192e-09
5.80563e-09
4.16883e-09
9.56775e-09
3.40102e-09
3.35918e-09
9.61106e-09
1.48079e-08
2.1923e-08
1.47879e-08
2.19751e-08
9.55606e-09
3.43068e-09
3.3797e-09
9.47374e-09
1.48768e-08
2.20573e-08
1.48864e-08
2.20205e-08
6.0041e-09
5.93448e-09
5.63639e-09
6.03629e-09
1.21095e-08
4.14111e-09
6.06484e-09
4.12261e-09
5.58227e-09
5.61679e-09
4.21148e-09
6.14393e-09
1.22128e-08
6.14808e-09
5.65131e-09
4.11891e-09
9.56944e-09
3.36595e-09
3.2543e-09
9.58191e-09
9.57041e-09
1.49022e-08
2.20737e-08
1.49103e-08
2.2064e-08
1.26607e-08
1.11914e-08
1.208e-08
9.65935e-09
9.69899e-09
1.19892e-08
1.26055e-08
1.11494e-08
1.11434e-08
1.20797e-08
1.43608e-08
1.42736e-08
1.43351e-08
1.44424e-08
1.44724e-08
1.44553e-08
1.43971e-08
9.57269e-09
9.48931e-09
1.07807e-08
1.24251e-08
1.18004e-08
1.08424e-08
1.18749e-08
1.19977e-08
1.09862e-08
1.25143e-08
1.09254e-08
1.19259e-08
5.60866e-09
5.62491e-09
5.38457e-09
5.81195e-09
1.16739e-08
4.03228e-09
5.85157e-09
3.92863e-09
5.42414e-09
5.37321e-09
3.98105e-09
5.83073e-09
1.16329e-08
5.84134e-09
5.37981e-09
3.93946e-09
9.35139e-09
3.39259e-09
3.29876e-09
9.33009e-09
1.4657e-08
2.18596e-08
1.46895e-08
2.17879e-08
9.36806e-09
3.40708e-09
9.44837e-09
3.29535e-09
1.4602e-08
2.16974e-08
1.45796e-08
2.17428e-08
5.58022e-09
5.58895e-09
5.37493e-09
5.9728e-09
1.17345e-08
4.05351e-09
5.9644e-09
5.42959e-09
3.93272e-09
5.34261e-09
3.97765e-09
5.87359e-09
1.16399e-08
5.90864e-09
5.31772e-09
3.90547e-09
9.29964e-09
3.39129e-09
3.30575e-09
9.31065e-09
1.45258e-08
2.15726e-08
1.44949e-08
2.15934e-08
9.28633e-09
3.38879e-09
3.28468e-09
9.29028e-09
1.45149e-08
2.16629e-08
1.45683e-08
2.16114e-08
1.04624e-08
1.20274e-08
1.14627e-08
1.04605e-08
1.14938e-08
9.08471e-09
9.05662e-09
1.15305e-08
1.20385e-08
1.05093e-08
1.0469e-08
1.15072e-08
1.42032e-08
1.42681e-08
1.41751e-08
1.41496e-08
1.39986e-08
1.39896e-08
1.40609e-08
1.40726e-08
9.11582e-09
9.12468e-09
1.06751e-08
1.2203e-08
1.17406e-08
1.06115e-08
1.16767e-08
1.15813e-08
1.05159e-08
1.21486e-08
1.056e-08
1.1623e-08
1.39472e-08
5.39212e-09
8.11559e-09
7.31237e-09
1.3944e-08
8.10442e-09
7.2971e-09
1.38572e-08
5.33949e-09
8.09001e-09
7.26421e-09
1.38977e-08
8.05228e-09
7.2412e-09
1.0444e-08
1.14471e-08
1.19944e-08
1.04176e-08
1.14239e-08
9.01065e-09
9.0134e-09
1.13655e-08
1.19636e-08
1.03989e-08
1.03952e-08
1.1412e-08
1.37897e-08
1.37597e-08
1.38012e-08
1.38426e-08
1.3913e-08
1.39381e-08
1.38862e-08
1.38539e-08
8.97878e-09
8.94281e-09
1.02877e-08
1.18723e-08
1.12828e-08
1.02945e-08
1.13188e-08
1.13575e-08
1.0346e-08
1.19095e-08
1.03229e-08
1.13277e-08
5.69176e-09
5.68496e-09
5.47443e-09
5.8291e-09
4.06111e-09
1.17768e-08
5.47583e-09
5.83358e-09
4.00992e-09
5.43283e-09
4.05022e-09
5.79055e-09
1.17608e-08
5.84284e-09
5.45456e-09
3.99161e-09
9.25674e-09
3.43239e-09
3.34922e-09
9.28582e-09
1.44147e-08
2.14014e-08
1.4396e-08
2.14319e-08
9.24841e-09
3.4152e-09
3.34084e-09
9.21995e-09
1.44342e-08
2.14953e-08
1.44623e-08
2.1454e-08
5.63922e-09
5.62089e-09
5.39798e-09
5.76137e-09
1.1659e-08
4.02199e-09
5.78626e-09
3.95245e-09
5.39983e-09
5.37293e-09
4.03146e-09
5.8021e-09
1.16844e-08
5.81822e-09
5.39627e-09
3.9576e-09
9.30084e-09
3.4265e-09
3.34345e-09
9.27856e-09
1.44908e-08
2.15652e-08
1.45181e-08
2.15356e-08
9.30267e-09
3.40851e-09
9.3005e-09
3.34892e-09
1.44924e-08
2.15119e-08
1.44789e-08
2.15301e-08
1.36367e-08
5.23865e-09
7.94251e-09
7.12238e-09
1.36411e-08
7.91509e-09
7.10623e-09
1.36577e-08
5.26595e-09
7.95908e-09
7.13541e-09
1.36541e-08
7.94795e-09
7.12184e-09
5.52211e-09
5.5172e-09
5.3226e-09
5.68091e-09
1.15089e-08
3.97147e-09
5.6908e-09
3.89614e-09
5.34376e-09
5.27984e-09
3.94094e-09
5.6516e-09
1.14758e-08
5.69099e-09
5.29346e-09
3.87737e-09
9.06488e-09
3.38346e-09
3.29328e-09
9.08482e-09
1.41452e-08
2.10374e-08
1.41299e-08
2.10585e-08
9.05731e-09
3.36423e-09
3.28332e-09
9.04327e-09
1.41529e-08
2.11075e-08
1.41806e-08
2.10719e-08
5.49761e-09
5.48797e-09
5.27877e-09
5.63177e-09
1.14269e-08
3.93724e-09
5.65226e-09
3.856e-09
5.29115e-09
5.24798e-09
3.92731e-09
5.6494e-09
1.14306e-08
5.67323e-09
5.27129e-09
3.86007e-09
9.10451e-09
3.3831e-09
3.29913e-09
9.08443e-09
1.42143e-08
2.11843e-08
1.42392e-08
2.11523e-08
9.10425e-09
3.38267e-09
3.29945e-09
9.12211e-09
1.42037e-08
2.11241e-08
1.4192e-08
2.11421e-08
1.01519e-08
1.17054e-08
1.114e-08
1.01338e-08
1.11308e-08
8.77492e-09
8.76906e-09
1.10948e-08
1.16882e-08
1.01249e-08
1.01198e-08
1.1121e-08
1.35068e-08
1.3491e-08
1.40979e-08
1.66007e-08
1.35497e-08
1.33589e-08
1.66108e-08
1.33825e-08
1.40825e-08
1.41136e-08
1.3407e-08
1.66544e-08
1.35659e-08
1.66254e-08
1.41269e-08
1.33911e-08
1.35196e-08
1.35413e-08
1.41836e-08
1.67304e-08
1.36329e-08
1.34716e-08
1.67133e-08
1.34612e-08
1.41956e-08
1.35804e-08
1.35971e-08
1.41681e-08
1.34224e-08
1.36167e-08
1.66795e-08
1.66956e-08
1.34483e-08
1.41472e-08
1.35694e-08
1.35533e-08
8.75685e-09
8.73377e-09
1.0073e-08
1.16352e-08
1.10481e-08
1.00688e-08
1.10735e-08
1.10865e-08
1.00997e-08
1.16553e-08
1.00829e-08
1.10741e-08
8.81937e-09
8.80079e-09
1.01688e-08
1.17278e-08
1.11483e-08
1.01623e-08
1.11667e-08
1.11781e-08
1.01874e-08
1.17332e-08
1.01651e-08
1.11709e-08
1.37157e-08
1.3744e-08
1.42862e-08
1.68072e-08
1.35803e-08
1.36993e-08
1.43138e-08
1.67518e-08
1.35547e-08
1.42663e-08
1.35133e-08
1.36749e-08
1.6718e-08
1.67256e-08
1.35361e-08
1.42465e-08
1.3702e-08
1.36885e-08
8.83533e-09
8.82944e-09
1.02536e-08
1.1261e-08
1.1801e-08
1.02261e-08
1.12388e-08
1.11951e-08
1.02006e-08
1.17752e-08
1.02037e-08
1.12216e-08
1.42172e-08
1.67371e-08
1.36464e-08
1.34801e-08
1.67168e-08
1.42096e-08
1.34935e-08
1.36258e-08
1.36185e-08
1.42243e-08
1.34998e-08
1.36449e-08
1.67089e-08
1.67111e-08
1.34972e-08
1.42297e-08
1.36487e-08
1.36602e-08
5.51398e-09
5.518e-09
5.31086e-09
5.67764e-09
1.14998e-08
3.97123e-09
5.70089e-09
5.33637e-09
3.88082e-09
5.28048e-09
3.94162e-09
5.68504e-09
1.14835e-08
5.70847e-09
5.29682e-09
3.88473e-09
9.17326e-09
3.39752e-09
3.31046e-09
9.15429e-09
1.43379e-08
2.13754e-08
1.43691e-08
2.133e-08
9.17543e-09
3.40751e-09
9.21399e-09
3.30951e-09
1.43157e-08
2.12849e-08
1.42998e-08
2.13101e-08
5.51518e-09
5.50756e-09
5.32555e-09
5.74173e-09
3.99303e-09
1.1547e-08
5.36062e-09
5.74514e-09
3.90099e-09
5.28022e-09
3.94719e-09
5.69518e-09
1.14977e-08
5.73328e-09
5.28731e-09
3.87776e-09
9.13642e-09
3.39691e-09
3.30639e-09
9.1503e-09
1.4258e-08
2.11965e-08
1.42406e-08
2.12156e-08
9.12662e-09
3.37907e-09
9.12025e-09
3.29211e-09
1.42588e-08
2.12669e-08
1.42929e-08
2.12289e-08
5.4334e-09
5.43201e-09
5.22594e-09
5.57386e-09
1.1327e-08
3.90258e-09
5.59402e-09
3.81481e-09
5.24747e-09
5.19446e-09
3.87956e-09
5.58209e-09
1.13181e-08
5.60644e-09
5.21423e-09
3.81778e-09
9.01651e-09
3.35935e-09
3.27323e-09
9.00121e-09
1.40925e-08
2.10197e-08
1.41183e-08
2.09855e-08
9.01526e-09
3.36284e-09
9.04116e-09
3.27114e-09
1.40794e-08
2.09577e-08
1.40686e-08
2.0975e-08
5.44309e-09
5.4356e-09
5.24889e-09
5.62217e-09
1.13789e-08
3.92314e-09
5.62894e-09
5.27818e-09
3.83902e-09
5.20507e-09
3.88712e-09
5.58679e-09
1.13401e-08
5.62413e-09
5.21692e-09
3.81871e-09
8.986e-09
3.36077e-09
3.26934e-09
9.00045e-09
1.40304e-08
2.08781e-08
1.40152e-08
2.08969e-08
8.97752e-09
3.34255e-09
3.25813e-09
8.96904e-09
1.40336e-08
2.09439e-08
1.4062e-08
2.09098e-08
9.98433e-09
1.15378e-08
1.0951e-08
9.97853e-09
1.09699e-08
8.66635e-09
8.64778e-09
1.09783e-08
1.1546e-08
1.00023e-08
9.98378e-09
1.09722e-08
1.34566e-08
1.3477e-08
1.40452e-08
1.6577e-08
1.34971e-08
1.33429e-08
1.65424e-08
1.40624e-08
1.33274e-08
1.40301e-08
1.32933e-08
1.65134e-08
1.34784e-08
1.65228e-08
1.40128e-08
1.33147e-08
1.34474e-08
1.34343e-08
1.39804e-08
1.64925e-08
1.34407e-08
1.32531e-08
1.64856e-08
1.32695e-08
1.39709e-08
1.33868e-08
1.33766e-08
1.39899e-08
1.32814e-08
1.34453e-08
1.64992e-08
1.64881e-08
1.32744e-08
1.39968e-08
1.34023e-08
1.34171e-08
8.68122e-09
8.67353e-09
1.00521e-08
1.15976e-08
1.10366e-08
1.00318e-08
1.10236e-08
1.09888e-08
1.0019e-08
1.15773e-08
1.00155e-08
1.10137e-08
1.3412e-08
5.10288e-09
7.75874e-09
6.97431e-09
1.34089e-08
7.74408e-09
6.95822e-09
1.33686e-08
5.07756e-09
7.74282e-09
6.95074e-09
1.33853e-08
7.71582e-09
6.93419e-09
9.967e-09
1.09426e-08
1.15117e-08
9.94904e-09
1.09328e-08
8.61486e-09
8.60861e-09
1.08983e-08
1.14939e-08
9.93909e-09
9.93455e-09
1.09232e-08
1.32683e-08
1.3252e-08
1.38635e-08
1.63656e-08
1.33389e-08
1.31376e-08
1.637e-08
1.316e-08
1.38493e-08
1.32828e-08
1.3303e-08
1.38776e-08
1.31801e-08
1.64019e-08
1.33514e-08
1.63799e-08
1.38886e-08
1.31672e-08
1.39421e-08
1.64794e-08
1.32424e-08
1.34126e-08
1.39552e-08
1.64552e-08
1.32307e-08
1.33422e-08
1.336e-08
1.33329e-08
1.33172e-08
1.3927e-08
1.31941e-08
1.33956e-08
1.64228e-08
1.64368e-08
1.32183e-08
1.39077e-08
8.59853e-09
8.57706e-09
9.89386e-09
1.14445e-08
1.0852e-08
9.88917e-09
1.08769e-08
1.08888e-08
9.91733e-09
1.1461e-08
9.90038e-09
1.08782e-08
5.41639e-09
5.41116e-09
5.22071e-09
5.57192e-09
3.89686e-09
1.1313e-08
5.24657e-09
5.58156e-09
3.8168e-09
5.17795e-09
3.86451e-09
5.54208e-09
1.12773e-08
5.57929e-09
5.19083e-09
3.79807e-09
8.91336e-09
3.34462e-09
3.25277e-09
8.93129e-09
1.39193e-08
2.07213e-08
1.39037e-08
2.0741e-08
8.90563e-09
3.3258e-09
3.24202e-09
8.89504e-09
1.39239e-08
2.07884e-08
1.3952e-08
2.07536e-08
5.39828e-09
5.39143e-09
5.18665e-09
5.52535e-09
1.12439e-08
3.87036e-09
5.54482e-09
3.78445e-09
5.20374e-09
5.15411e-09
3.8535e-09
5.53866e-09
1.12416e-08
5.563e-09
5.17713e-09
3.78827e-09
8.94932e-09
3.34335e-09
3.25722e-09
8.93069e-09
1.39845e-08
2.08648e-08
1.40098e-08
2.08328e-08
8.94732e-09
3.34395e-09
8.96999e-09
3.25586e-09
1.3973e-08
2.08035e-08
1.39611e-08
2.08214e-08
1.32504e-08
5.01282e-09
7.66046e-09
6.87815e-09
1.32671e-08
7.63165e-09
6.86092e-09
1.3296e-08
5.04329e-09
7.67861e-09
6.90232e-09
1.32905e-08
7.66657e-09
6.88776e-09
5.31307e-09
5.30804e-09
5.12689e-09
5.46142e-09
1.1118e-08
3.8306e-09
5.46611e-09
3.74984e-09
5.15416e-09
5.08237e-09
3.79843e-09
5.41929e-09
1.10784e-08
5.46074e-09
5.09653e-09
3.7291e-09
8.74155e-09
3.31743e-09
3.22603e-09
8.76646e-09
1.36486e-08
2.0328e-08
1.36239e-08
2.03602e-08
8.73201e-09
3.30319e-09
3.21437e-09
8.71542e-09
1.3658e-08
2.04257e-08
1.36937e-08
2.03812e-08
5.28877e-09
5.28366e-09
5.0814e-09
5.38803e-09
1.10287e-08
3.80589e-09
5.41417e-09
3.71502e-09
5.10464e-09
5.0571e-09
3.78722e-09
5.41652e-09
1.10304e-08
5.43205e-09
5.07887e-09
3.72131e-09
8.78613e-09
3.31325e-09
3.22388e-09
8.76435e-09
1.37368e-08
2.0527e-08
1.37688e-08
2.04866e-08
8.78521e-09
3.31274e-09
3.22295e-09
8.81436e-09
1.37224e-08
2.04455e-08
1.37048e-08
2.04704e-08
9.75512e-09
1.1283e-08
1.07154e-08
9.73218e-09
1.06942e-08
8.41698e-09
8.41941e-09
1.06424e-08
1.12539e-08
9.70587e-09
9.70857e-09
1.06797e-08
1.29143e-08
1.28775e-08
1.29421e-08
1.29788e-08
1.30495e-08
1.30786e-08
1.30329e-08
1.30039e-08
8.39159e-09
8.36054e-09
9.6137e-09
1.11611e-08
1.05435e-08
9.62101e-09
1.05851e-08
1.06239e-08
9.67084e-09
1.1192e-08
9.645e-09
1.05975e-08
8.50911e-09
8.48588e-09
9.78188e-09
1.1327e-08
1.07285e-08
9.77992e-09
1.07575e-08
1.07753e-08
9.81236e-09
1.13457e-08
9.79303e-09
1.07611e-08
1.32127e-08
1.32356e-08
1.38116e-08
1.63449e-08
1.31229e-08
1.3293e-08
1.3829e-08
1.63123e-08
1.31063e-08
1.37936e-08
1.30649e-08
1.32716e-08
1.62743e-08
1.6291e-08
1.30922e-08
1.37717e-08
1.32017e-08
1.31823e-08
8.5271e-09
8.52347e-09
9.87208e-09
1.08419e-08
1.1409e-08
9.85248e-09
1.08266e-08
1.07872e-08
9.83694e-09
1.13862e-08
9.83438e-09
1.08165e-08
1.31218e-08
1.31012e-08
1.31404e-08
1.31639e-08
5.34633e-09
5.34179e-09
5.13736e-09
5.46476e-09
1.1145e-08
3.83764e-09
5.48604e-09
5.15762e-09
3.74907e-09
5.10746e-09
3.81827e-09
5.48097e-09
1.11415e-08
5.50249e-09
5.12939e-09
3.75405e-09
8.87137e-09
3.32546e-09
3.23764e-09
8.85301e-09
1.38687e-08
2.07064e-08
1.38962e-08
2.06722e-08
8.86998e-09
3.32696e-09
8.89581e-09
3.2365e-09
1.38562e-08
2.06393e-08
1.38425e-08
2.06595e-08
5.36299e-09
5.35654e-09
5.16984e-09
5.52013e-09
3.86101e-09
1.12131e-08
5.19737e-09
5.52683e-09
3.77915e-09
5.12626e-09
3.8276e-09
5.48398e-09
1.11754e-08
5.52263e-09
5.13976e-09
3.75899e-09
8.83474e-09
3.32804e-09
3.23619e-09
8.85399e-09
1.37971e-08
2.05456e-08
1.37774e-08
2.05702e-08
8.82596e-09
3.31008e-09
8.81351e-09
3.22461e-09
1.38028e-08
2.06239e-08
1.38338e-08
2.0586e-08
5.2076e-09
5.20177e-09
5.01324e-09
5.27549e-09
1.08768e-08
3.78563e-09
5.30989e-09
3.68804e-09
5.04609e-09
4.99864e-09
3.76134e-09
5.32402e-09
1.08817e-08
5.3268e-09
5.01879e-09
3.69345e-09
8.68067e-09
3.31515e-09
3.22049e-09
8.65499e-09
1.35741e-08
2.03031e-08
1.36118e-08
2.02556e-08
8.6822e-09
3.30751e-09
8.71605e-09
3.21876e-09
1.3555e-08
2.01983e-08
1.35312e-08
2.02327e-08
5.23977e-09
5.23606e-09
5.07103e-09
5.38354e-09
1.09898e-08
3.79896e-09
5.38234e-09
5.09868e-09
3.71835e-09
5.02485e-09
3.77021e-09
5.32653e-09
1.0947e-08
5.37382e-09
5.04166e-09
3.69746e-09
8.62583e-09
3.32383e-09
3.23576e-09
8.65632e-09
1.34581e-08
2.00482e-08
1.3428e-08
2.00884e-08
8.61391e-09
3.32429e-09
3.22612e-09
8.59462e-09
1.34734e-08
2.01699e-08
1.3515e-08
2.01174e-08
9.31315e-09
1.0877e-08
1.02174e-08
9.34105e-09
1.02855e-08
8.18722e-09
8.13956e-09
1.03622e-08
1.09295e-08
9.42685e-09
9.38517e-09
1.03132e-08
1.27973e-08
1.28437e-08
1.27687e-08
1.27208e-08
1.25292e-08
1.24401e-08
1.25985e-08
1.26713e-08
8.22763e-09
8.24475e-09
9.5724e-09
1.10838e-08
1.05187e-08
9.53786e-09
1.04806e-08
1.03974e-08
9.48243e-09
1.10383e-08
9.49919e-09
1.04538e-08
1.27629e-08
4.59424e-09
7.10375e-09
6.47209e-09
1.27215e-08
7.13797e-09
6.48391e-09
1.26108e-08
4.43795e-09
7.04213e-09
6.4095e-09
1.26713e-08
6.96054e-09
6.35929e-09
9.24739e-09
1.01725e-08
1.07398e-08
9.18899e-09
1.01082e-08
7.87804e-09
7.9262e-09
9.94544e-09
1.06618e-08
9.06843e-09
9.11907e-09
1.00483e-08
1.18832e-08
1.17785e-08
1.19474e-08
1.20432e-08
1.22748e-08
1.23685e-08
1.22085e-08
1.21177e-08
7.80691e-09
7.72245e-09
8.72843e-09
1.03473e-08
9.58088e-09
8.80507e-09
9.70817e-09
9.87206e-09
8.97111e-09
1.04449e-08
8.89279e-09
9.77815e-09
5.14515e-09
5.14407e-09
5.01678e-09
5.27275e-09
3.78696e-09
1.08299e-08
5.04254e-09
5.26022e-09
3.70791e-09
4.97132e-09
3.77533e-09
5.19511e-09
1.0789e-08
5.24929e-09
4.99804e-09
3.69365e-09
8.50294e-09
3.39024e-09
3.31528e-09
8.53258e-09
1.32387e-08
1.97376e-08
1.3216e-08
1.97708e-08
8.48932e-09
3.44135e-09
3.31638e-09
8.48181e-09
1.32591e-08
1.9857e-08
1.32985e-08
1.98065e-08
5.10563e-09
5.09532e-09
4.96082e-09
5.12771e-09
1.07002e-08
3.83488e-09
5.16928e-09
3.71774e-09
5.01792e-09
4.95343e-09
3.77893e-09
5.19787e-09
1.07002e-08
5.18061e-09
4.96869e-09
3.70953e-09
8.55322e-09
3.36754e-09
3.25862e-09
8.52946e-09
1.3369e-08
2.00127e-08
1.34102e-08
1.99598e-08
8.55792e-09
3.33473e-09
8.59357e-09
3.25252e-09
1.33446e-08
1.98933e-08
1.33205e-08
1.99307e-08
1.21792e-08
3.85795e-09
6.41262e-09
6.03492e-09
1.22881e-08
6.25825e-09
5.94159e-09
1.24176e-08
4.12604e-09
6.5116e-09
6.10563e-09
1.23368e-08
6.60912e-09
6.15095e-09
5.59929e-09
5.45277e-09
5.47152e-09
5.1758e-09
1.06809e-08
4.41323e-09
5.18082e-09
4.44949e-09
5.37557e-09
5.56432e-09
4.9158e-09
5.33003e-09
1.07662e-08
5.28295e-09
5.82294e-09
4.6284e-09
8.99902e-09
4.85402e-09
5.10865e-09
8.83357e-09
1.33745e-08
1.98617e-08
1.3593e-08
1.96677e-08
9.08676e-09
5.98534e-09
5.42351e-09
9.40226e-09
1.33559e-08
1.95548e-08
1.32344e-08
1.9666e-08
5.75636e-09
5.96993e-09
6.49779e-09
6.2707e-09
1.10792e-08
6.34867e-09
5.98231e-09
5.79077e-09
7.06245e-09
6.23489e-09
5.22958e-09
5.58517e-09
1.08702e-08
5.66368e-09
5.98088e-09
5.39545e-09
8.62577e-09
4.58637e-09
4.25638e-09
8.75357e-09
1.31477e-08
1.94998e-08
1.31092e-08
1.95256e-08
8.61366e-09
4.0495e-09
4.12361e-09
8.54779e-09
1.31411e-08
1.95755e-08
1.32327e-08
1.95019e-08
7.23878e-09
8.57405e-09
7.95484e-09
6.97091e-09
7.64383e-09
5.80497e-09
6.04278e-09
6.90113e-09
8.26511e-09
6.36454e-09
6.68508e-09
7.32716e-09
8.12698e-09
7.6311e-09
8.52055e-09
8.95894e-09
9.90393e-09
1.0203e-08