/*--------------------------------*- C++ -*----------------------------------*\
| =========                 |                                                 |
| \\      /  F ield         | OpenFOAM: The Open Source CFD Toolbox           |
|  \\    /   O peration     | Version:  2012                                  |
|   \\  /    A nd           | Website:  www.openfoam.com                      |
|    \\/     M anipulation  |                                                 |
\*---------------------------------------------------------------------------*/
FoamFile
{
    version     2.0;
    format      ascii;
    class       pointVectorField;
    location    "0.105/solid";
    object      pointD;
}
// * * * * * * * * * * * * * * * * * * * * * * * * * * * * * * * * * * * * * //

dimensions      [0 1 0 0 0 0 0];


internalField   nonuniform List<vector> 
5103
(
(2.12517e-11 1.09425e-11 -3.2407e-12)
(1.92706e-11 1.04809e-11 -1.57563e-12)
(1.80406e-11 9.71058e-12 -2.45556e-12)
(1.20714e-11 1.18816e-11 -5.82163e-12)
(2.00001e-11 1.08567e-11 -1.97551e-12)
(1.86452e-11 1.01059e-11 -1.68269e-12)
(1.62696e-11 9.29226e-12 -3.24952e-12)
(2.35314e-11 1.18257e-11 1.73666e-12)
(3.99965e-11 -3.32965e-11 5.9671e-13)
(2.19928e-10 1.14523e-09 -7.39108e-12)
(2.05558e-11 1.11535e-11 -1.85074e-12)
(1.96695e-11 1.071e-11 -1.5269e-12)
(3.88877e-11 -3.24527e-11 -3.71621e-13)
(1.92243e-10 1.10191e-09 -7.47181e-12)
(1.89666e-11 1.02997e-11 -1.51177e-12)
(1.84394e-11 9.92198e-12 -1.94222e-12)
(3.76317e-11 -3.16731e-11 -6.37843e-13)
(1.74042e-10 1.058e-09 -7.14143e-12)
(1.73323e-11 9.47565e-12 -2.97835e-12)
(1.47871e-11 9.45122e-12 -3.16231e-12)
(3.00293e-11 -2.64314e-11 1.30189e-12)
(3.03018e-12 5.76872e-12 -1.12044e-11)
(2.0249e-10 1.12014e-09 -8.41684e-12)
(3.93424e-11 -3.27701e-11 -2.78135e-13)
(1.84086e-10 1.08352e-09 -7.4308e-12)
(3.83614e-11 -3.21354e-11 -4.455e-13)
(3.60809e-11 -3.06965e-11 -7.37758e-13)
(2.10394e-10 1.13269e-09 -4.23569e-12)
(1.8811e-10 1.09325e-09 -7.03408e-12)
(1.97169e-10 1.11141e-09 -6.86613e-12)
(1.79991e-10 1.07219e-09 -7.57616e-12)
(4.16859e-11 -3.40355e-11 -1.19409e-12)
(3.97758e-11 -3.30673e-11 -1.11208e-12)
(3.91356e-11 -3.26494e-11 -5.49003e-13)
(3.86332e-11 -3.23187e-11 -4.35822e-13)
(3.80553e-11 -3.19458e-11 -5.30948e-13)
(3.70356e-11 -3.12811e-11 -7.46246e-13)
(3.43538e-11 -2.96952e-11 -3.82449e-13)
(1.17921e-11 -8.99501e-12 4.96816e-12)
(3.64436e-10 4.99548e-10 9.55471e-13)
(3.46462e-10 4.90201e-10 -5.78812e-12)
(3.35683e-10 4.7505e-10 -5.91776e-12)
(3.3182e-10 4.70602e-10 -5.90367e-12)
(3.21515e-10 4.56047e-10 -6.87385e-12)
(3.16065e-10 4.48825e-10 -6.47461e-12)
(2.97209e-10 4.10602e-10 5.19397e-11)
(2.98567e-10 3.64165e-10 1.59964e-10)
(3.45017e-10 4.84656e-10 -6.37479e-12)
(3.3861e-10 4.79119e-10 -6.40592e-12)
(3.28756e-10 4.66521e-10 -5.93642e-12)
(3.25378e-10 4.61687e-10 -6.41478e-12)
(3.09052e-10 4.39434e-10 -2.39865e-12)
(3.01772e-10 4.27388e-10 1.18945e-11)
(3.73368e-10 1.40534e-10 4.95246e-10)
(2.30619e-11 1.19299e-11 -2.05177e-12)
(8.93638e-11 6.82369e-12 -1.23666e-12)
(1.86725e-10 5.55683e-10 -5.83882e-12)
(2.03671e-11 1.07505e-11 -2.47384e-12)
(1.94922e-11 1.06332e-11 -1.54897e-12)
(8.62556e-11 6.2894e-12 -1.26609e-12)
(1.6568e-10 5.31482e-10 -6.26184e-12)
(1.90927e-11 1.03623e-11 -1.52791e-12)
(1.82737e-11 9.82031e-12 -2.17316e-12)
(8.33466e-11 5.82763e-12 -1.99195e-12)
(1.52355e-10 5.08905e-10 -7.35963e-12)
(1.77135e-11 9.58892e-12 -2.72964e-12)
(1.38049e-11 9.98028e-12 -3.65536e-12)
(7.06965e-11 1.03122e-11 -2.2535e-12)
(1.22827e-10 4.57372e-10 7.03369e-11)
(8.07668e-12 1.69774e-11 -1.55881e-11)
(2.04499e-11 1.11672e-11 -1.95028e-12)
(1.97341e-11 1.07005e-11 -1.71027e-12)
(1.73377e-10 5.41293e-10 -6.94036e-12)
(8.75116e-11 6.59839e-12 -1.44484e-12)
(1.87927e-11 1.02115e-11 -1.5807e-12)
(1.85255e-11 1.00029e-11 -1.78737e-12)
(1.59596e-10 5.2187e-10 -6.48513e-12)
(8.50073e-11 6.04187e-12 -1.39642e-12)
(1.68406e-11 9.3704e-12 -3.16204e-12)
(1.55719e-11 9.28405e-12 -3.20087e-12)
(1.37062e-10 4.8834e-10 1.54954e-12)
(8.02055e-11 5.86134e-12 -2.52853e-12)
(5.26317e-10 2.02795e-10 4.89574e-12)
(1.86733e-10 1.02988e-09 -5.82516e-12)
(5.16867e-10 1.93448e-10 -6.92466e-12)
(1.77433e-10 1.01021e-09 -7.00172e-12)
(5.07991e-10 1.87437e-10 -5.61476e-12)
(1.70814e-10 9.93617e-10 -6.79276e-12)
(5.00394e-10 1.82699e-10 -5.07792e-12)
(1.65143e-10 9.74683e-10 -7.23758e-12)
(4.92786e-10 1.77305e-10 -5.65927e-12)
(1.55526e-10 9.45124e-10 -2.71795e-12)
(4.81302e-10 1.68911e-10 -3.97229e-12)
(1.45217e-10 8.90314e-10 5.36306e-11)
(4.70128e-10 1.53447e-10 2.91895e-11)
(2.09671e-10 6.13282e-10 4.29231e-10)
(4.74335e-10 7.19147e-11 3.76159e-10)
(1.97048e-10 5.67211e-10 8.22814e-12)
(9.23311e-11 5.90133e-12 3.67007e-13)
(5.2408e-10 1.99679e-10 1.14298e-12)
(4.10589e-11 -3.43976e-11 -1.00847e-13)
(3.96906e-11 -3.27839e-11 -7.65704e-13)
(2.13311e-10 1.12838e-09 -3.60003e-12)
(2.32265e-10 1.18081e-09 -2.76191e-12)
(1.92467e-10 1.04715e-09 -2.83185e-12)
(1.78752e-10 5.47106e-10 -6.21191e-12)
(8.85352e-11 6.53734e-12 -1.92776e-12)
(1.69269e-10 5.36201e-10 -6.26262e-12)
(8.69925e-11 6.36811e-12 -1.34748e-12)
(5.03762e-10 1.85478e-10 -4.92651e-12)
(3.89818e-11 -3.25278e-11 -3.84477e-13)
(3.871e-11 -3.23324e-11 -4.35369e-13)
(1.90209e-10 1.09692e-09 -7.09787e-12)
(1.94716e-10 1.10749e-09 -7.45124e-12)
(1.73577e-10 1.002e-09 -7.09003e-12)
(1.62563e-10 5.26827e-10 -6.1364e-12)
(8.56981e-11 6.13607e-12 -1.2664e-12)
(1.56619e-10 5.16056e-10 -6.97698e-12)
(8.43096e-11 5.91647e-12 -1.62061e-12)
(4.87745e-10 1.73715e-10 -5.7665e-12)
(3.7818e-11 -3.17762e-11 -5.57336e-13)
(3.73142e-11 -3.14529e-11 -6.74951e-13)
(1.70035e-10 1.04913e-09 -5.928e-12)
(1.77412e-10 1.06542e-09 -7.59275e-12)
(1.61143e-10 9.62074e-10 -6.74817e-12)
(1.45869e-10 4.99632e-10 -5.82873e-12)
(8.20205e-11 5.78855e-12 -2.3738e-12)
(1.27326e-10 4.75611e-10 2.28561e-11)
(7.75659e-11 6.42923e-12 -2.20348e-12)
(4.72906e-10 1.37389e-10 1.05633e-10)
(3.27983e-11 -2.86713e-11 3.24415e-13)
(2.57012e-11 -2.10477e-11 4.0308e-12)
(1.52203e-10 8.30331e-10 1.67473e-10)
(1.52941e-10 3.67606e-10 1.80494e-10)
(2.71966e-11 8.97233e-12 -4.42043e-12)
(2.06725e-10 1.13042e-09 -7.76589e-12)
(1.80804e-10 1.01992e-09 -7.65184e-12)
(1.99588e-10 1.1134e-09 -7.11564e-12)
(5.11998e-10 1.90992e-10 -4.91332e-12)
(3.95774e-11 -3.30122e-11 -4.79441e-13)
(3.91662e-11 -3.26032e-11 -5.28517e-13)
(1.86117e-10 1.08865e-09 -7.28501e-12)
(1.67858e-10 9.85015e-10 -7.05694e-12)
(1.82214e-10 1.07783e-09 -7.50601e-12)
(4.96612e-10 1.80385e-10 -5.20016e-12)
(3.84603e-11 -3.21861e-11 -4.04393e-13)
(3.81697e-11 -3.20002e-11 -4.85079e-13)
(1.48974e-10 9.22394e-10 1.16178e-11)
(4.7425e-10 1.62486e-10 4.01158e-12)
(3.65754e-11 -3.09744e-11 -7.12666e-13)
(3.53339e-11 -3.02496e-11 -5.32002e-13)
(1.71649e-12 1.13885e-11 3.84109e-11)
(1.81542e-10 5.48227e-10 -6.24764e-12)
(1.64058e-10 5.2898e-10 -6.16684e-12)
(1.49403e-10 5.04521e-10 -6.99797e-12)
(1.29597e-10 4.31926e-10 1.10633e-10)
(1.93434e-10 5.67107e-10 -1.59894e-12)
(3.54072e-10 4.95337e-10 -2.51658e-12)
(3.59983e-10 5.01299e-10 6.99422e-12)
(5.4043e-10 1.92215e-10 3.39582e-12)
(2.0689e-10 1.06186e-09 3.47122e-12)
(5.12816e-10 2.00973e-10 -5.25256e-12)
(1.86354e-10 1.03307e-09 -4.84904e-12)
(3.46291e-10 4.86855e-10 -6.75345e-12)
(1.6746e-10 5.34103e-10 -6.25273e-12)
(3.33729e-10 4.72848e-10 -5.89588e-12)
(3.37489e-10 4.76915e-10 -6.17812e-12)
(5.05746e-10 1.86721e-10 -4.99089e-12)
(1.75623e-10 1.00644e-09 -7.07755e-12)
(5.00969e-10 1.84807e-10 -5.08859e-12)
(1.7225e-10 9.9701e-10 -6.9015e-12)
(3.3053e-10 4.68528e-10 -5.87017e-12)
(1.54724e-10 5.12688e-10 -7.25703e-12)
(3.19154e-10 4.52671e-10 -6.92787e-12)
(3.23775e-10 4.58972e-10 -6.67161e-12)
(4.89706e-10 1.76201e-10 -5.72203e-12)
(1.63431e-10 9.68466e-10 -7.21767e-12)
(4.83938e-10 1.72055e-10 -5.18881e-12)
(1.58635e-10 9.53803e-10 -5.50719e-12)
(3.12883e-10 4.44403e-10 -5.20144e-12)
(1.23638e-10 4.68318e-10 4.24036e-11)
(2.96375e-10 3.95871e-10 9.18073e-11)
(2.99113e-10 4.19981e-10 2.70475e-11)
(4.70528e-10 1.47209e-10 5.75846e-11)
(1.46701e-10 8.66666e-10 9.68734e-11)
(4.76621e-10 1.16928e-10 1.98125e-10)
(1.67292e-10 7.5934e-10 2.75842e-10)
(3.07899e-10 2.89093e-10 2.85289e-10)
(1.76175e-10 5.4528e-10 -6.74855e-12)
(1.61053e-10 5.24484e-10 -6.27245e-12)
(1.4173e-10 4.9425e-10 -3.24304e-12)
(1.84809e-10 1.02654e-09 -7.08006e-12)
(5.16852e-10 1.9086e-10 -5.22164e-12)
(3.41473e-10 4.81932e-10 -6.30661e-12)
(1.78747e-10 1.01328e-09 -7.32041e-12)
(5.07709e-10 1.90498e-10 -5.70342e-12)
(1.71076e-10 5.38049e-10 -6.57246e-12)
(1.69375e-10 9.89333e-10 -6.916e-12)
(4.97869e-10 1.82131e-10 -4.99455e-12)
(3.27204e-10 4.64198e-10 -6.16433e-12)
(1.66667e-10 9.79593e-10 -7.17557e-12)
(4.93946e-10 1.79522e-10 -5.41351e-12)
(1.58155e-10 5.19028e-10 -6.71114e-12)
(1.52363e-10 9.34206e-10 2.37597e-12)
(4.77022e-10 1.66482e-10 -9.77779e-13)
(3.05436e-10 4.33761e-10 2.73125e-12)
(1.46576e-10 9.07524e-10 2.71928e-11)
(4.70935e-10 1.58818e-10 1.36294e-11)
(1.32103e-10 4.82096e-10 9.74567e-12)
(3.4335e-10 4.22466e-10 6.11661e-10)
(5.14828e-10 -8.29696e-11 6.86364e-10)
(9.29904e-11 6.37882e-12 -1.09954e-12)
(8.77007e-11 6.70636e-12 -1.88602e-12)
(8.66117e-11 6.42101e-12 -1.25905e-12)
(8.58444e-11 6.24271e-12 -1.27632e-12)
(8.37742e-11 5.92842e-12 -1.77457e-12)
(8.26375e-11 5.85222e-12 -2.18321e-12)
(7.52606e-11 7.39849e-12 -1.9573e-12)
(6.22861e-11 1.79232e-11 -6.84154e-12)
(8.83879e-11 6.69036e-12 -1.60412e-12)
(8.69452e-11 6.48893e-12 -1.43732e-12)
(8.52736e-11 6.16237e-12 -1.29759e-12)
(8.45713e-11 6.02563e-12 -1.49725e-12)
(8.10873e-11 5.85877e-12 -2.46527e-12)
(7.89673e-11 6.06714e-12 -2.37098e-12)
(5.70532e-12 1.1242e-11 2.49392e-11)
(4.22176e-10 6.02685e-10 5.30186e-12)
(4.14275e-10 6.03254e-10 2.08623e-12)
(3.95094e-10 5.93379e-10 -7.35461e-12)
(3.96447e-10 6.01042e-10 -3.60145e-12)
(3.86751e-10 5.76791e-10 -6.65932e-12)
(3.84233e-10 5.7454e-10 -6.63488e-12)
(3.80383e-10 5.68875e-10 -6.66422e-12)
(3.81887e-10 5.7171e-10 -6.51666e-12)
(3.71498e-10 5.5399e-10 -7.16531e-12)
(3.68998e-10 5.50088e-10 -7.33654e-12)
(3.6306e-10 5.40214e-10 -5.53837e-12)
(3.66331e-10 5.45502e-10 -6.72518e-12)
(3.54068e-10 4.94765e-10 5.84354e-11)
(3.575e-10 4.76042e-10 1.06871e-10)
(3.86452e-10 3.67404e-10 3.30445e-10)
(3.68239e-10 4.41492e-10 1.88867e-10)
(3.97388e-10 8.74217e-11 4.96498e-14)
(3.9963e-10 8.69178e-11 2.76862e-12)
(9.94262e-11 1.44593e-09 7.46524e-12)
(1.02968e-10 1.46867e-09 6.14137e-12)
(3.8886e-10 8.94027e-11 -2.23093e-12)
(3.87395e-10 8.74515e-11 -3.45109e-12)
(9.62185e-11 1.41396e-09 2.32328e-12)
(9.15583e-11 1.40879e-09 -3.72886e-12)
(3.97963e-10 5.88425e-10 -7.08809e-12)
(3.9405e-10 5.86257e-10 -6.76182e-12)
(8.48705e-11 1.40104e-09 -4.2275e-12)
(8.73537e-11 1.4104e-09 -4.80146e-12)
(3.8663e-10 8.48915e-11 -3.17443e-12)
(3.88507e-10 8.52287e-11 -3.36607e-12)
(3.87682e-10 5.79401e-10 -7.27433e-12)
(3.89114e-10 5.83082e-10 -7.00172e-12)
(3.8061e-10 8.24074e-11 -2.89744e-12)
(3.81951e-10 8.28525e-11 -2.95501e-12)
(7.69286e-11 1.3755e-09 -5.07569e-12)
(7.8567e-11 1.3818e-09 -5.41801e-12)
(8.29761e-11 1.38988e-09 -4.73118e-12)
(8.07507e-11 1.38506e-09 -5.66447e-12)
(3.8379e-10 8.47276e-11 -3.15964e-12)
(3.82613e-10 8.37702e-11 -3.17855e-12)
(3.79106e-10 8.191e-11 -2.84027e-12)
(3.77945e-10 8.12306e-11 -2.87439e-12)
(7.55361e-11 1.36871e-09 -4.98764e-12)
(7.4051e-11 1.36357e-09 -5.2273e-12)
(3.78892e-10 5.66398e-10 -6.42226e-12)
(3.76934e-10 5.63819e-10 -6.73245e-12)
(7.13144e-11 1.35276e-09 -4.94687e-12)
(7.25577e-11 1.35881e-09 -5.03302e-12)
(3.75641e-10 8.00508e-11 -2.93355e-12)
(3.76907e-10 8.05745e-11 -2.82202e-12)
(3.73395e-10 5.57506e-10 -7.18573e-12)
(3.75158e-10 5.60787e-10 -6.79385e-12)
(3.6981e-10 7.72123e-11 -3.45865e-12)
(3.71618e-10 7.7969e-11 -3.29966e-12)
(6.5682e-11 1.32329e-09 -3.7593e-12)
(6.7483e-11 1.33197e-09 -4.36933e-12)
(7.01768e-11 1.34616e-09 -4.77504e-12)
(6.89646e-11 1.33927e-09 -4.78341e-12)
(3.74351e-10 7.94175e-11 -3.00761e-12)
(3.73021e-10 7.87407e-11 -3.19909e-12)
(3.67873e-10 7.62696e-11 -3.38691e-12)
(3.65549e-10 7.53485e-11 -3.08839e-12)
(6.3332e-11 1.31362e-09 -2.19617e-12)
(6.03799e-11 1.30151e-09 4.04497e-13)
(3.599e-10 5.3402e-10 -2.46757e-12)
(3.56291e-10 5.26889e-10 2.92393e-12)
(5.25708e-11 1.27248e-09 1.33245e-11)
(5.69264e-11 1.28775e-09 5.14398e-12)
(3.60337e-10 7.33145e-11 -2.70332e-13)
(3.6318e-10 7.42307e-11 -2.12811e-12)
(3.52196e-10 5.08081e-10 2.97377e-11)
(3.53977e-10 5.18251e-10 1.28693e-11)
(3.52325e-10 7.24254e-11 3.92036e-11)
(3.54074e-10 7.12952e-11 2.02725e-11)
(3.32159e-11 1.17293e-09 1.44614e-10)
(3.77787e-11 1.20977e-09 8.50732e-11)
(4.79162e-11 1.25603e-09 2.6499e-11)
(4.26363e-11 1.23453e-09 4.89127e-11)
(3.57891e-10 7.22143e-11 3.29388e-12)
(3.55293e-10 7.17748e-11 9.47893e-12)
(3.51416e-10 7.35847e-11 7.43517e-11)
(3.41087e-10 7.72477e-11 1.46079e-10)
(3.32347e-11 1.11493e-09 2.38182e-10)
(4.94102e-11 9.97854e-10 3.70741e-10)
(4.4582e-10 2.16805e-10 5.63541e-10)
(1.22046e-10 8.03603e-10 5.00476e-10)
(3.15272e-10 6.32422e-11 3.21807e-10)
(1.41387e-10 7.72532e-10 -5.86255e-12)
(4.28918e-10 3.01156e-10 -6.43763e-12)
(1.34082e-10 7.56571e-10 -6.74022e-12)
(4.20103e-10 2.92527e-10 -6.45773e-12)
(1.28897e-10 7.4332e-10 -6.39003e-12)
(4.12821e-10 2.85668e-10 -6.0548e-12)
(1.24834e-10 7.28209e-10 -6.71129e-12)
(4.06117e-10 2.77847e-10 -6.6374e-12)
(1.18454e-10 7.04143e-10 -2.24561e-12)
(3.96518e-10 2.6526e-10 -3.83575e-12)
(1.17847e-10 6.55367e-10 5.45665e-11)
(3.93789e-10 2.39608e-10 4.20592e-11)
(2.14611e-10 3.89348e-10 5.04599e-10)
(4.84749e-10 8.50152e-11 4.82773e-10)
(1.63388e-11 -1.1544e-11 4.72916e-14)
(3.77772e-10 7.94162e-11 1.29769e-12)
(2.34499e-11 -2.7089e-11 5.7402e-13)
(2.38711e-11 -2.64238e-11 6.30585e-14)
(2.64204e-10 1.3687e-09 1.33849e-12)
(2.15773e-10 1.13269e-09 -5.55594e-12)
(2.25739e-10 1.16323e-09 -6.98405e-12)
(2.23152e-10 1.16772e-09 -4.94982e-12)
(1.59418e-11 -1.11854e-11 -8.32129e-14)
(3.64346e-10 7.28916e-11 -2.94362e-12)
(2.28422e-11 -2.59933e-11 -3.64356e-13)
(2.27954e-11 -2.59154e-11 -3.1663e-13)
(2.35195e-10 1.31971e-09 -5.61013e-12)
(1.912e-10 1.09923e-09 -7.31915e-12)
(1.93435e-10 1.10475e-09 -7.51777e-12)
(1.99767e-10 1.12151e-09 -7.37086e-12)
(1.55243e-11 -1.09111e-11 -1.33621e-13)
(3.52964e-10 6.72664e-11 -3.64461e-12)
(2.19853e-11 -2.54174e-11 -5.54947e-13)
(2.18048e-11 -2.53031e-11 -5.12998e-13)
(2.15894e-10 1.26742e-09 -3.90388e-12)
(1.72131e-10 1.05375e-09 -6.70011e-12)
(1.75822e-10 1.06182e-09 -7.39692e-12)
(1.84085e-10 1.07769e-09 -7.03047e-12)
(1.39053e-11 -9.52219e-12 2.40196e-13)
(3.29597e-10 5.52349e-11 5.70426e-11)
(1.65469e-11 -2.28155e-11 1.38542e-12)
(1.31805e-11 -2.09089e-11 3.71584e-12)
(1.55189e-10 9.48341e-10 1.53161e-10)
(2.46046e-10 1.34098e-09 -5.45102e-12)
(2.04496e-10 1.12541e-09 -8.5039e-12)
(2.08569e-10 1.14043e-09 -8.10759e-12)
(2.00885e-10 1.11591e-09 -7.81512e-12)
(1.60874e-11 -1.13351e-11 -7.31536e-14)
(3.69839e-10 7.55251e-11 -2.84153e-12)
(2.30901e-11 -2.63047e-11 -2.94946e-13)
(2.31567e-11 -2.61431e-11 -2.92707e-13)
(2.26563e-10 1.29794e-09 -5.47146e-12)
(1.85088e-10 1.08616e-09 -7.3384e-12)
(1.92707e-10 1.103e-09 -7.33962e-12)
(1.83158e-10 1.08072e-09 -7.50848e-12)
(1.5753e-11 -1.10793e-11 -9.52375e-14)
(3.59357e-10 7.04273e-11 -3.16593e-12)
(2.24902e-11 -2.57415e-11 -4.1975e-13)
(2.23927e-11 -2.56737e-11 -3.71446e-13)
(1.66778e-10 1.03521e-09 1.10078e-11)
(1.50584e-11 -1.05485e-11 -1.30763e-13)
(3.4235e-10 6.24559e-11 1.426e-12)
(2.08977e-11 -2.47451e-11 -5.48123e-13)
(2.03865e-11 -2.45054e-11 -3.41525e-13)
(2.1538e-10 1.15225e-09 -5.16906e-12)
(2.11809e-10 1.13008e-09 -3.10951e-12)
(2.54216e-10 1.35735e-09 -3.60935e-12)
(2.08753e-10 1.1333e-09 -6.1254e-12)
(1.96257e-10 1.11262e-09 -6.99428e-12)
(1.89169e-10 1.09509e-09 -6.97003e-12)
(2.30795e-10 1.30962e-09 -5.50488e-12)
(1.87107e-10 1.09113e-09 -7.18698e-12)
(1.76587e-10 1.05936e-09 -3.00126e-12)
(1.67648e-10 1.04464e-09 -4.76735e-12)
(2.06861e-10 7.4518e-10 3.55999e-10)
(2.37266e-10 1.1884e-09 5.84605e-12)
(4.33919e-10 3.11517e-10 -1.85921e-12)
(1.44724e-10 7.89576e-10 -1.63184e-12)
(1.36315e-10 7.65418e-10 -6.97554e-12)
(4.23224e-10 2.97874e-10 -6.63744e-12)
(2.04165e-10 1.13085e-09 -7.02786e-12)
(1.95956e-10 1.1099e-09 -7.19623e-12)
(1.98391e-10 1.11234e-09 -6.76099e-12)
(2.40343e-10 1.33138e-09 -5.6274e-12)
(4.15633e-10 2.89728e-10 -6.13794e-12)
(1.30816e-10 7.50423e-10 -6.52949e-12)
(1.26616e-10 7.36604e-10 -6.50404e-12)
(4.09271e-10 2.82331e-10 -6.2417e-12)
(1.89191e-10 1.09168e-09 -7.50189e-12)
(1.7877e-10 1.06897e-09 -7.65362e-12)
(1.81152e-10 1.07508e-09 -7.49748e-12)
(2.22171e-10 1.28448e-09 -5.23827e-12)
(4.01798e-10 2.72554e-10 -6.58897e-12)
(1.22084e-10 7.18053e-10 -6.21431e-12)
(1.15291e-10 6.84734e-10 1.20503e-11)
(3.91852e-10 2.55067e-10 7.37614e-12)
(1.57195e-10 1.0035e-09 5.11739e-11)
(4.13392e-10 2.09365e-10 1.45425e-10)
(1.3711e-10 5.97411e-10 1.76113e-10)
(3.81369e-10 8.08994e-11 1.7253e-12)
(2.39766e-11 -2.73724e-11 -9.27662e-13)
(3.7305e-10 7.67227e-11 -4.73051e-12)
(2.37021e-11 -2.63149e-11 -9.80952e-13)
(1.61883e-11 -1.14209e-11 -2.15545e-13)
(2.31987e-11 -2.64068e-11 -7.09073e-13)
(3.67031e-10 7.38148e-11 -3.48414e-12)
(2.28835e-11 -2.60646e-11 -3.77824e-13)
(2.30416e-11 -2.60877e-11 -5.56955e-13)
(1.59797e-11 -1.12671e-11 -1.14174e-13)
(3.61935e-10 7.15339e-11 -3.09075e-12)
(2.26754e-11 -2.58591e-11 -4.43029e-13)
(1.58259e-11 -1.11437e-11 -9.24597e-14)
(2.25686e-11 -2.58088e-11 -3.30415e-13)
(3.56596e-10 6.89499e-11 -3.49363e-12)
(2.21461e-11 -2.55224e-11 -4.31523e-13)
(2.22728e-11 -2.55998e-11 -4.94397e-13)
(1.56584e-11 -1.10073e-11 -1.12316e-13)
(3.48192e-10 6.51201e-11 -2.79504e-12)
(2.15692e-11 -2.51463e-11 -6.20764e-13)
(1.53502e-11 -1.07553e-11 -1.50436e-13)
(2.12998e-11 -2.49754e-11 -5.3138e-13)
(3.36529e-10 5.92366e-11 1.50036e-11)
(1.84586e-11 -2.37084e-11 4.34967e-13)
(1.96037e-11 -2.41461e-11 -1.18164e-13)
(1.46276e-11 -1.02385e-11 -1.3808e-14)
(2.90705e-10 4.23764e-11 2.17336e-10)
(8.67281e-12 -1.58855e-11 8.10673e-12)
(1.35008e-11 -5.30126e-12 2.04053e-12)
(-3.91e-13 1.03112e-11 8.28208e-12)
(3.65459e-10 5.07587e-10 -8.18441e-13)
(3.70225e-10 5.10472e-10 3.04434e-12)
(4.60567e-10 3.8567e-10 2.62973e-12)
(3.63187e-10 8.01606e-10 2.2444e-12)
(3.54321e-10 5.02206e-10 -4.34519e-12)
(4.37824e-10 3.84768e-10 -5.69957e-12)
(3.39847e-10 7.83701e-10 -6.42849e-12)
(3.5125e-10 4.97778e-10 -6.63217e-12)
(3.39803e-10 4.83348e-10 -5.98617e-12)
(3.41832e-10 4.85402e-10 -6.05561e-12)
(4.28698e-10 3.69459e-10 -5.47734e-12)
(3.28144e-10 7.61858e-10 -7.12466e-12)
(3.37793e-10 4.81015e-10 -5.93423e-12)
(4.24356e-10 3.65928e-10 -5.58806e-12)
(3.23813e-10 7.54843e-10 -7.08457e-12)
(3.36234e-10 4.78826e-10 -5.9823e-12)
(3.25281e-10 4.6347e-10 -7.05452e-12)
(3.27652e-10 4.66649e-10 -6.82602e-12)
(4.13377e-10 3.53625e-10 -6.36821e-12)
(3.12581e-10 7.32729e-10 -7.92613e-12)
(3.22554e-10 4.59808e-10 -6.83458e-12)
(4.07697e-10 3.47551e-10 -5.88123e-12)
(3.06607e-10 7.2155e-10 -6.99918e-12)
(3.19326e-10 4.5563e-10 -6.07962e-12)
(3.01108e-10 4.12472e-10 6.97486e-11)
(3.02789e-10 4.24133e-10 3.81723e-11)
(3.91347e-10 3.13217e-10 5.6088e-11)
(2.88788e-10 6.58594e-10 7.57624e-11)
(3.01177e-10 3.90991e-10 1.21336e-10)
(3.93083e-10 2.70794e-10 1.85508e-10)
(2.99866e-10 5.80007e-10 2.22724e-10)
(3.04214e-10 3.41456e-10 2.13046e-10)
(5.90515e-10 1.02804e-10 1.70659e-12)
(6.94392e-13 1.23868e-09 5.67159e-12)
(5.57485e-10 1.09287e-10 -4.40433e-12)
(-5.79095e-12 1.2025e-09 -1.84808e-12)
(3.51376e-10 4.9534e-10 -6.66593e-12)
(3.38962e-10 7.76856e-10 -7.39418e-12)
(4.3896e-10 3.76973e-10 -5.7885e-12)
(3.48538e-10 4.92909e-10 -6.39291e-12)
(-1.13672e-11 1.19576e-09 -5.30931e-12)
(5.64884e-10 1.01211e-10 -5.87924e-12)
(3.43148e-10 4.87343e-10 -6.42289e-12)
(3.44947e-10 4.89899e-10 -6.40864e-12)
(3.31409e-10 7.67584e-10 -7.65059e-12)
(4.31235e-10 3.73437e-10 -6.18719e-12)
(5.53192e-10 9.7823e-11 -5.22593e-12)
(-1.72633e-11 1.17195e-09 -5.70374e-12)
(-1.41867e-11 1.17975e-09 -5.73755e-12)
(5.54425e-10 1.00966e-10 -5.34402e-12)
(5.48128e-10 9.63474e-11 -4.9125e-12)
(-1.91014e-11 1.16084e-09 -5.51491e-12)
(3.34719e-10 4.76805e-10 -5.91069e-12)
(3.20416e-10 7.48769e-10 -7.09558e-12)
(4.21213e-10 3.62386e-10 -5.51716e-12)
(3.32988e-10 4.74617e-10 -6.14092e-12)
(-2.10652e-11 1.15194e-09 -5.42832e-12)
(5.45244e-10 9.42246e-11 -5.04612e-12)
(3.29566e-10 4.69493e-10 -6.65453e-12)
(3.3129e-10 4.72141e-10 -6.32513e-12)
(3.16763e-10 7.41329e-10 -7.57464e-12)
(4.17503e-10 3.58383e-10 -6.00041e-12)
(5.37278e-10 8.98456e-11 -5.81577e-12)
(-2.39975e-11 1.12756e-09 -4.87557e-12)
(-2.23067e-11 1.14055e-09 -5.31902e-12)
(5.41336e-10 9.22885e-11 -5.33149e-12)
(5.31781e-10 8.68601e-11 -5.46462e-12)
(-2.6859e-11 1.11031e-09 -2.181e-12)
(3.15818e-10 4.50862e-10 -4.08526e-12)
(2.9894e-10 7.06783e-10 -9.59087e-13)
(4.00692e-10 3.39504e-10 -1.66991e-12)
(3.11922e-10 4.45485e-10 -2.72885e-13)
(-3.11308e-11 1.08698e-09 7.26596e-12)
(5.25536e-10 8.31649e-11 -1.62011e-12)
(3.04879e-10 4.32485e-10 1.85942e-11)
(3.08299e-10 4.39394e-10 6.70161e-12)
(2.91423e-10 6.8724e-10 1.91884e-11)
(3.94025e-10 3.28799e-10 1.30093e-11)
(5.26319e-10 7.58458e-11 5.53408e-11)
(-3.55963e-11 1.00325e-09 1.12468e-10)
(-3.54124e-11 1.0545e-09 3.5062e-11)
(5.21276e-10 7.92216e-11 1.25002e-11)
(5.50309e-10 7.14023e-11 1.94475e-10)
(-1.52225e-11 8.73963e-10 3.18345e-10)
(3.23632e-10 2.34363e-10 3.78781e-10)
(2.94382e-10 2.16422e-10 3.89272e-10)
(4.31255e-10 2.84269e-10 5.77012e-10)
(4.51797e-10 3.26363e-11 5.99899e-10)
(2.24415e-10 4.26912e-11 3.29917e-10)
(1.65839e-10 5.06973e-10 6.4172e-10)
(6.02518e-10 -6.84967e-11 7.88142e-10)
(3.15693e-12 8.1385e-12 1.50689e-11)
(2.10314e-10 1.06337e-09 7.99892e-12)
(4.56465e-10 3.01127e-10 4.15502e-12)
(1.61294e-10 7.89286e-10 4.34291e-12)
(4.51522e-10 3.91003e-10 3.72525e-12)
(5.45903e-10 1.92002e-10 2.92097e-12)
(1.86619e-10 1.03057e-09 -5.17728e-12)
(3.40491e-10 7.79714e-10 -7.22836e-12)
(-8.93317e-12 1.1997e-09 -5.02638e-12)
(1.86381e-10 1.0288e-09 -6.56972e-12)
(4.21162e-10 3.11904e-10 -5.50004e-12)
(1.38839e-10 7.80182e-10 -4.42955e-12)
(1.40349e-10 7.68655e-10 -6.7047e-12)
(4.28715e-10 2.97953e-10 -6.44514e-12)
(5.21364e-10 1.95839e-10 -6.8086e-12)
(4.39619e-10 3.7935e-10 -7.40614e-12)
(5.64059e-10 1.03402e-10 -4.31303e-12)
(5.25278e-10 1.89768e-10 -6.00893e-12)
(1.34723e-10 7.59919e-10 -6.8782e-12)
(4.18438e-10 2.96824e-10 -6.69897e-12)
(3.30251e-10 7.64679e-10 -7.27497e-12)
(1.76661e-10 1.00855e-09 -7.09143e-12)
(1.78213e-10 1.0115e-09 -7.04439e-12)
(-1.59469e-11 1.17646e-09 -6.04726e-12)
(4.17246e-10 2.91621e-10 -6.20092e-12)
(1.32612e-10 7.53412e-10 -6.64123e-12)
(4.30693e-10 3.70902e-10 -6.06133e-12)
(5.14182e-10 1.85482e-10 -5.09025e-12)
(5.14767e-10 1.87555e-10 -5.98236e-12)
(5.55594e-10 9.83998e-11 -5.02457e-12)
(1.71619e-10 9.9524e-10 -6.7525e-12)
(3.22385e-10 7.51922e-10 -6.98838e-12)
(-2.02898e-11 1.15704e-09 -5.57395e-12)
(1.70152e-10 9.91593e-10 -6.90445e-12)
(4.12457e-10 2.88653e-10 -6.09229e-12)
(1.29912e-10 7.46132e-10 -6.42579e-12)
(1.27781e-10 7.39795e-10 -6.42663e-12)
(4.09798e-10 2.84873e-10 -6.07607e-12)
(5.07588e-10 1.8239e-10 -5.32317e-12)
(4.23316e-10 3.63899e-10 -5.56134e-12)
(5.48064e-10 9.45642e-11 -4.87664e-12)
(5.06146e-10 1.80996e-10 -4.81376e-12)
(1.25872e-10 7.32056e-10 -6.61701e-12)
(4.0632e-10 2.81036e-10 -6.42053e-12)
(3.15026e-10 7.37339e-10 -7.78227e-12)
(1.64389e-10 9.71701e-10 -7.31971e-12)
(1.65997e-10 9.77155e-10 -7.13974e-12)
(-2.31959e-11 1.13493e-09 -5.25673e-12)
(4.02779e-10 2.76208e-10 -6.72191e-12)
(1.23684e-10 7.2306e-10 -6.66439e-12)
(4.16009e-10 3.55925e-10 -6.25549e-12)
(4.98163e-10 1.75382e-10 -5.5057e-12)
(5.0019e-10 1.7712e-10 -5.76439e-12)
(5.40609e-10 9.04957e-11 -5.54077e-12)
(1.5718e-10 9.49558e-10 -4.27155e-12)
(3.0309e-10 7.14781e-10 -4.99519e-12)
(-2.90152e-11 1.1002e-09 1.14708e-12)
(1.5402e-10 9.3997e-10 -6.1596e-13)
(3.97901e-10 2.70018e-10 -5.74772e-12)
(1.20444e-10 7.11189e-10 -4.95375e-12)
(1.16715e-10 6.94856e-10 2.88647e-12)
(3.92616e-10 2.61406e-10 2.14482e-13)
(4.89235e-10 1.69306e-10 -4.91827e-12)
(4.04699e-10 3.43637e-10 -4.63289e-12)
(5.29715e-10 8.45219e-11 -4.15231e-12)
(4.85972e-10 1.66305e-10 -2.53227e-12)
(1.15516e-10 6.7126e-10 2.78199e-11)
(3.90392e-10 2.48829e-10 2.0314e-11)
(2.89207e-10 6.74924e-10 4.05935e-11)
(1.45615e-10 8.79708e-10 7.25432e-11)
(1.45722e-10 8.99218e-10 3.88393e-11)
(-3.6594e-11 1.03322e-09 6.3906e-11)
(4.00136e-10 2.27989e-10 8.0036e-11)
(1.24541e-10 6.32442e-10 9.97506e-11)
(3.92245e-10 3.21912e-10 2.8623e-11)
(4.77005e-10 1.48775e-10 4.1592e-11)
(4.76347e-10 1.5528e-10 2.029e-11)
(5.22572e-10 7.71354e-11 2.86148e-11)
(1.82655e-10 6.97568e-10 3.47407e-10)
(3.31141e-10 4.62806e-10 3.67603e-10)
(2.92278e-11 7.12116e-10 4.88274e-10)
(2.56162e-10 5.1201e-10 5.18829e-10)
(4.38856e-10 1.70515e-10 2.64519e-10)
(1.61702e-10 5.29476e-10 3.03691e-10)
(3.58605e-10 1.82241e-10 7.77561e-10)
(5.95767e-10 -9.83546e-11 8.49678e-10)
(4.79378e-10 9.84397e-11 2.73127e-10)
(3.96665e-10 1.95634e-10 3.42654e-10)
(5.65438e-10 6.20878e-11 3.84525e-10)
(4.84314e-10 2.64609e-11 5.21519e-10)
(4.47235e-10 3.87513e-10 5.14019e-13)
(5.41154e-10 1.94063e-10 2.74461e-12)
(5.22601e-10 2.0104e-10 -2.03534e-12)
(5.70754e-10 1.08195e-10 -5.30042e-12)
(3.86394e-10 7.48625e-11 1.56555e-12)
(1.6352e-11 -1.18093e-11 4.63225e-15)
(3.71834e-10 8.08007e-11 -3.32644e-12)
(1.6335e-11 -1.13981e-11 -1.92054e-13)
(2.16585e-10 1.15173e-09 -4.32342e-12)
(2.57763e-10 1.34887e-09 -8.42144e-13)
(2.36418e-10 1.19372e-09 6.06871e-13)
(2.7482e-10 1.41693e-09 3.56761e-12)
(3.48628e-10 7.93147e-10 -3.14403e-12)
(1.99485e-10 1.05597e-09 -3.72626e-13)
(1.87904e-10 1.03862e-09 -4.19547e-12)
(-3.24748e-12 1.21942e-09 2.97497e-12)
(4.26647e-10 3.677e-10 -5.4369e-12)
(5.11694e-10 1.84807e-10 -5.12845e-12)
(5.09149e-10 1.83881e-10 -4.80759e-12)
(5.51295e-10 9.66945e-11 -5.14269e-12)
(3.65585e-10 7.35001e-11 -3.01919e-12)
(1.59604e-11 -1.12071e-11 -8.39523e-14)
(3.62558e-10 7.26739e-11 -3.08899e-12)
(1.58822e-11 -1.1148e-11 -9.36043e-14)
(1.98031e-10 1.11633e-09 -7.08694e-12)
(2.32999e-10 1.31375e-09 -5.51474e-12)
(2.02054e-10 1.1268e-09 -7.35137e-12)
(2.37759e-10 1.32665e-09 -5.71921e-12)
(3.25859e-10 7.58462e-10 -7.16553e-12)
(1.74578e-10 1.00433e-09 -7.03988e-12)
(1.72923e-10 9.9938e-10 -7.06246e-12)
(-1.84023e-11 1.16676e-09 -5.4414e-12)
(4.11107e-10 3.5065e-10 -6.42138e-12)
(4.95473e-10 1.73724e-10 -5.99747e-12)
(4.92701e-10 1.71529e-10 -5.36795e-12)
(5.35745e-10 8.78817e-11 -5.79455e-12)
(3.54509e-10 6.8514e-11 -3.5683e-12)
(1.56012e-11 -1.09424e-11 -1.16361e-13)
(3.50322e-10 6.66091e-11 -3.39986e-12)
(1.54398e-11 -1.08282e-11 -1.39876e-13)
(1.80761e-10 1.06874e-09 -5.79145e-12)
(2.11635e-10 1.25678e-09 -2.05505e-12)
(1.86976e-10 1.08491e-09 -7.49802e-12)
(2.19427e-10 1.27632e-09 -4.84762e-12)
(3.09979e-10 7.27656e-10 -7.79444e-12)
(1.6239e-10 9.65354e-10 -6.98416e-12)
(1.59988e-10 9.5814e-10 -6.32712e-12)
(-2.54092e-11 1.12015e-09 -4.03723e-12)
(3.91514e-10 2.99771e-10 1.01446e-10)
(4.77028e-10 1.42172e-10 7.83216e-11)
(4.81592e-10 1.26816e-10 1.44641e-10)
(5.3493e-10 7.46168e-11 1.04388e-10)
(3.3369e-10 5.75105e-11 3.04678e-11)
(1.43556e-11 -9.98493e-12 1.32916e-13)
(3.21123e-10 5.11052e-11 1.09483e-10)
(1.35678e-11 -8.52698e-12 7.96698e-13)
(1.6629e-10 8.82213e-10 2.41379e-10)
(1.54414e-10 9.81503e-10 9.10475e-11)
(2.91273e-10 6.32953e-10 1.32185e-10)
(1.48799e-10 8.50515e-10 1.28161e-10)
(1.58105e-10 8.01512e-10 2.16242e-10)
(-3.05034e-11 9.57969e-10 1.91933e-10)
(2.50268e-10 1.35463e-09 -5.22256e-12)
(2.12701e-10 1.14929e-09 -7.50109e-12)
(1.82723e-10 1.02355e-09 -7.44796e-12)
(3.34536e-10 7.72291e-10 -7.71295e-12)
(-1.30824e-11 1.18765e-09 -5.17066e-12)
(1.79574e-10 1.01617e-09 -7.58699e-12)
(2.06011e-10 1.13351e-09 -7.31887e-12)
(2.4296e-10 1.33297e-09 -5.4398e-12)
(5.21633e-10 1.89587e-10 -5.09515e-12)
(4.34736e-10 3.75547e-10 -5.47096e-12)
(5.59398e-10 1.01145e-10 -6.17067e-12)
(5.16205e-10 1.89802e-10 -5.11051e-12)
(3.72563e-10 7.52886e-11 -3.29069e-12)
(1.60942e-11 -1.13937e-11 -9.49558e-14)
(3.6728e-10 7.54971e-11 -3.47735e-12)
(1.60523e-11 -1.12646e-11 -1.17846e-13)
(2.2869e-10 1.30409e-09 -5.51693e-12)
(1.94517e-10 1.10798e-09 -7.18749e-12)
(1.68642e-10 9.87243e-10 -6.9192e-12)
(3.18691e-10 7.45312e-10 -7.34167e-12)
(-2.18869e-11 1.14697e-09 -5.3402e-12)
(1.67312e-10 9.82343e-10 -7.18286e-12)
(1.91112e-10 1.09721e-09 -7.4394e-12)
(2.2453e-10 1.29112e-09 -5.40362e-12)
(5.04082e-10 1.79976e-10 -5.30364e-12)
(4.19705e-10 3.60355e-10 -5.75132e-12)
(5.44293e-10 9.27596e-11 -5.14827e-12)
(5.02143e-10 1.78621e-10 -5.10764e-12)
(3.60303e-10 7.13346e-11 -3.03305e-12)
(1.57981e-11 -1.10856e-11 -8.65611e-14)
(3.57588e-10 7.01032e-11 -3.33054e-12)
(1.57107e-11 -1.10268e-11 -1.02076e-13)
(1.72072e-10 1.04778e-09 1.97754e-12)
(1.50683e-10 9.28423e-10 6.4522e-12)
(2.95061e-10 6.97854e-10 6.39397e-12)
(-3.35932e-11 1.0729e-09 1.75335e-11)
(1.47694e-10 9.15399e-10 1.83198e-11)
(1.61999e-10 1.02008e-09 2.60836e-11)
(4.81958e-10 1.63425e-10 9.7689e-13)
(3.97441e-10 3.34417e-10 3.42466e-12)
(5.237e-10 8.07e-11 3.64616e-12)
(4.79274e-10 1.59195e-10 8.33134e-12)
(3.44999e-10 6.41915e-11 -1.23527e-12)
(1.52227e-11 -1.0644e-11 -1.37842e-13)
(3.39065e-10 6.11784e-11 6.58846e-12)
(1.48609e-11 -1.04039e-11 -6.80032e-14)
(3.24447e-10 5.69293e-10 4.85916e-10)
(2.88314e-10 -5.88741e-11 4.49099e-10)
(7.21349e-12 1.34534e-11 3.30351e-11)
(-6.60269e-12 -1.81108e-11 4.48652e-11)
(1.75777e-10 8.21399e-11 2.48511e-10)
(3.67114e-10 8.03755e-10 5.44806e-12)
(4.19947e-10 6.00933e-10 4.4912e-12)
(4.65485e-10 3.92705e-10 1.91425e-12)
(4.56928e-10 3.02642e-10 8.03685e-12)
(1.64696e-10 7.88505e-10 8.89385e-12)
(4.60606e-10 3.93148e-10 2.31193e-12)
(3.88488e-10 7.50337e-11 2.17918e-12)
(3.59253e-10 7.99358e-10 -6.78653e-13)
(2.29589e-10 1.18161e-09 -3.36311e-12)
(2.40401e-10 1.19796e-09 7.14253e-12)
(4.0216e-10 6.01865e-10 -3.49209e-13)
(4.47378e-10 3.07182e-10 5.54116e-13)
(1.53123e-10 7.90662e-10 8.14369e-13)
(3.91623e-10 7.41286e-11 6.23729e-13)
(3.42521e-10 7.82223e-10 -7.00887e-12)
(3.91634e-10 5.96234e-10 -6.33107e-12)
(4.43735e-10 3.87934e-10 -7.33117e-12)
(4.25321e-10 3.07182e-10 -6.08034e-12)
(1.40786e-10 7.74921e-10 -5.15665e-12)