/*--------------------------------*- C++ -*----------------------------------*\
| =========                 |                                                 |
| \\      /  F ield         | OpenFOAM: The Open Source CFD Toolbox           |
|  \\    /   O peration     | Version:  2012                                  |
|   \\  /    A nd           | Website:  www.openfoam.com                      |
|    \\/     M anipulation  |                                                 |
\*---------------------------------------------------------------------------*/
FoamFile
{
    version     2.0;
    format      ascii;
    class       volVectorField;
    location    "0.105/solid";
    object      sigmaMinDir;
}
// * * * * * * * * * * * * * * * * * * * * * * * * * * * * * * * * * * * * * //

dimensions      [1 -1 -2 0 0 0 0];


internalField   nonuniform List<vector> 
3125
(
(0.174555 0.984634 -0.00520508)
(0.171249 0.985206 -0.00658991)
(0.165443 0.986203 -0.00573279)
(0.164896 0.986294 -0.00573605)
(0.161746 0.986807 -0.0070886)
(0.160907 0.986943 -0.00717303)
(0.158979 0.985347 0.0617809)
(0.169056 0.980009 0.104894)
(0.168296 0.985716 -0.00638269)
(0.167292 0.985887 -0.00630824)
(0.163543 0.986519 -0.00590085)
(0.163175 0.986578 -0.00619857)
(0.157279 0.987553 -0.00178427)
(0.156049 0.987739 0.00447752)
(0.176857 0.984234 0.0024611)
(0.404047 0.914736 -0.00196381)
(-0.0485493 0.998671 -0.0173163)
(0.260869 0.965348 -0.0070712)
(0.404969 0.914325 0.00318776)
(0.259152 0.965772 -0.0111958)
(0.39788 0.917416 -0.00629485)
(-0.0531289 0.998511 -0.0123735)
(0.169865 0.985453 -0.00530478)
(-0.0508824 0.998699 0.0034405)
(0.240257 0.970689 -0.00627279)
(0.39834 0.917206 -0.00771396)
(0.255149 0.966877 -0.00695031)
(0.16609 0.986095 -0.00556882)
(0.399615 0.916659 -0.00659177)
(0.252014 0.967684 -0.00876839)
(0.399904 0.916534 -0.00650444)
(0.251905 0.967717 -0.00829111)
(0.399362 0.91677 -0.00657749)
(0.164448 0.98637 -0.00556522)
(0.251538 0.967821 -0.00709722)
(0.399508 0.916706 -0.00660387)
(0.248586 0.968583 -0.00725169)
(0.162377 0.986705 -0.00680825)
(0.400114 0.916428 -0.00829994)
(0.247547 0.968823 -0.0101289)
(0.400037 0.916466 -0.00781674)
(0.245417 0.969374 -0.00922802)
(0.40024 0.916373 -0.0082774)
(0.159858 0.987118 -0.00663456)
(0.246429 0.969126 -0.0082601)
(0.400373 0.916319 -0.00779503)
(0.244145 0.967245 0.0694934)
(0.15581 0.987216 0.0335873)
(0.41035 0.907713 0.0875752)
(0.216147 0.668335 0.711764)
(0.406857 0.912379 0.0450891)
(-0.0173461 0.000552631 0.999849)
(0.414737 0.894876 0.164896)
(0.202713 0.958963 0.198234)
(0.166753 0.44721 0.878747)
(0.405718 0.851007 0.333436)
(0.571314 0.82073 0.00174816)
(-0.142292 0.989753 -0.0118881)
(0.568984 0.822315 -0.00738935)
(0.570489 0.82129 -0.00501227)
(-0.148735 0.988849 -0.00746157)
(-0.141791 0.989888 0.00412034)
(0.264694 0.964294 -0.00855612)
(0.169307 0.985548 -0.00550154)
(0.400422 0.916304 -0.00699496)
(0.25509 0.966872 -0.00941742)
(0.400922 0.916086 -0.00690551)
(-0.141996 0.989861 -0.00348449)
(-0.139129 0.990272 0.0020001)
(0.571839 0.820357 -0.00386849)
(0.571516 0.820511 -0.0114489)
(0.255636 0.966732 -0.00895901)
(0.166663 0.985998 -0.00565962)
(0.399188 0.91684 -0.00723509)
(0.252152 0.967655 -0.00790799)
(0.399442 0.916731 -0.00705675)
(0.572871 0.819638 -0.00336155)
(0.572515 0.819828 -0.0104457)
(-0.142022 0.989862 -0.00175929)
(-0.141195 0.989982 -0.000482541)
(-0.143035 0.989714 -0.00260832)
(-0.141597 0.989924 0.000113)
(0.571386 0.820612 -0.0106732)
(0.572296 0.820037 -0.00394522)
(0.57279 0.81964 -0.0101181)
(0.573447 0.819236 -0.00339909)
(-0.142214 0.989835 -0.00160389)
(-0.142046 0.98986 -0.000786861)
(0.251398 0.967863 -0.00639113)
(0.163988 0.986446 -0.00567071)
(0.399594 0.916667 -0.00683418)
(0.249846 0.968249 -0.00837591)
(0.399644 0.916648 -0.00648337)
(-0.142572 0.989783 -0.00140412)
(-0.142091 0.989853 -0.00103842)
(0.57398 0.818861 -0.00366052)
(0.573504 0.819139 -0.0101577)
(0.249054 0.968449 -0.00892751)
(0.162827 0.986634 -0.0064392)
(0.399662 0.916635 -0.00707449)
(0.249429 0.96837 -0.00669271)
(0.399847 0.916551 -0.00753696)
(0.575401 0.817855 -0.00520953)
(0.574706 0.81828 -0.0114642)
(-0.144003 0.989576 -0.00141695)
(-0.143275 0.989682 -0.00146363)
(-0.142693 0.989766 -0.00149903)
(-0.143081 0.98971 -0.00128408)
(0.573979 0.818801 -0.010613)
(0.574664 0.818378 -0.00443852)
(0.575428 0.817763 -0.0121231)
(0.576248 0.817264 -0.00427045)
(-0.144258 0.989539 -0.00156536)
(0.243607 0.969851 -0.00663471)
(0.158614 0.987327 -0.00511508)
(0.40114 0.916015 -0.00187363)
(0.243044 0.970015 0.00085522)
(0.400684 0.916198 -0.0058227)
(0.577028 0.816717 0.00339586)
(0.576311 0.817166 -0.0102393)
(0.245434 0.968029 0.0517941)
(0.155329 0.987741 0.015523)
(0.402218 0.915523 0.00611167)
(0.240732 0.970573 0.00597826)
(0.403902 0.914578 0.0202272)
(0.567427 0.815114 0.11669)
(0.576376 0.81637 0.0364638)
(0.577101 0.816673 0.000413503)
(0.576729 0.816355 0.030792)
(0.560817 0.813935 0.151635)
(0.46232 0.779211 0.423191)
(-0.0392674 -0.0226885 0.998971)
(0.419824 0.74093 0.524185)
(0.395944 0.737245 0.547447)
(0.384223 0.922652 0.0329595)
(0.377861 0.628577 0.679788)
(0.218829 0.97572 -0.00917586)
(0.315083 0.949062 -0.00215782)
(0.34806 0.937468 -0.00293075)
(0.111309 0.993786 0.000454242)
(0.215049 0.976582 0.00648775)
(0.278212 0.960516 0.00258802)
(0.338799 0.940751 -0.0142593)
(0.0916624 0.995736 -0.0103792)
(0.209568 0.97761 -0.0189784)
(0.344723 0.93869 0.00518503)
(0.1019 0.994787 -0.00379011)
(0.204965 0.97876 0.00421279)
(0.0915227 0.995801 -0.00199856)
(0.258878 0.965809 -0.013965)
(0.335552 0.941925 -0.013489)
(0.333445 0.942764 -0.003169)
(0.0890246 0.996024 -0.00337383)
(0.206739 0.978287 -0.0146086)
(0.20408 0.97877 -0.0189697)
(0.241557 0.970255 -0.0159743)
(0.33365 0.942687 -0.00435395)
(0.0862974 0.996223 -0.00962515)
(0.205248 0.97871 0.00031226)
(0.331375 0.943332 -0.0177404)
(0.0858393 0.996272 -0.00862602)
(0.205453 0.978541 -0.0156941)
(0.08981 0.995956 -0.00256685)
(0.257772 0.966168 -0.008524)
(0.335937 0.941885 0.000186489)
(0.205584 0.978623 0.00565553)
(0.335106 0.942087 -0.0132677)
(0.08969 0.99596 -0.00449722)
(0.205037 0.978741 0.0050793)
(0.25486 0.96696 -0.00592548)
(0.334621 0.942248 -0.0140298)
(0.0883151 0.996081 -0.00485758)
(0.204721 0.978686 -0.0162061)
(0.334944 0.942238 -0.000352256)
(0.0892763 0.996002 -0.00312432)
(0.204469 0.978859 0.00532782)
(0.0881982 0.996096 -0.00383655)
(0.255338 0.96683 -0.00655159)
(0.33444 0.942323 -0.0133461)
(0.334349 0.942449 -0.000265945)
(0.0888845 0.996038 -0.00271478)
(0.204401 0.978764 -0.0155007)
(0.204547 0.978724 -0.0161152)
(0.254915 0.966919 -0.00923865)
(0.334681 0.942331 -0.000768651)
(0.0883419 0.996083 -0.00390833)
(0.204475 0.978861 0.00463289)
(0.333973 0.942481 -0.0138191)
(0.0887337 0.996043 -0.0049359)
(0.203231 0.978981 -0.0171299)
(0.086611 0.996235 -0.0038744)
(0.252109 0.96765 -0.00967943)
(0.334308 0.942463 -0.00139251)
(0.203247 0.979119 0.00409499)
(0.333433 0.942655 -0.0149699)
(0.0866809 0.996221 -0.00548979)
(0.20298 0.979175 0.0038098)
(0.249972 0.968226 -0.00718396)
(0.33349 0.942625 -0.0155579)
(0.0856796 0.996309 -0.00524)
(0.202799 0.979066 -0.0173701)
(0.333739 0.942664 -0.00191432)
(0.0866232 0.996234 -0.00380538)
(0.202148 0.979348 0.00355954)
(0.0843722 0.996421 -0.00512622)
(0.247397 0.968886 -0.0074271)
(0.333084 0.942775 -0.0151786)
(0.333499 0.942748 -0.00202294)
(0.0854027 0.996338 -0.00410833)
(0.201956 0.979243 -0.0172304)
(0.202455 0.97913 -0.017782)
(0.250393 0.96809 -0.0102548)
(0.334055 0.942551 -0.00231281)
(0.0854996 0.996328 -0.00452761)
(0.202519 0.979273 0.00333492)
(0.333026 0.942787 -0.0157133)
(0.0854657 0.996323 -0.00607835)
(0.207247 0.978004 0.0236083)
(0.0873868 0.996017 0.0177278)
(0.257845 0.952446 0.162364)
(0.340746 0.938908 0.0484183)
(0.205088 0.978087 0.0358322)
(0.341072 0.938673 0.0506331)
(0.0901417 0.995647 0.0237169)
(0.210132 0.975699 0.0621023)
(0.250737 0.941673 0.224462)
(0.345731 0.931438 0.113552)
(0.098235 0.993941 0.0493054)
(0.21404 0.97525 0.0554375)
(0.345299 0.933524 0.0964406)
(0.0942625 0.994877 0.0365275)
(0.240533 0.959501 0.146635)
(0.168618 0.954701 -0.245181)
(0.0410484 0.102713 0.993864)
(0.134599 0.446608 0.884548)
(0.31548 0.800591 0.509438)
(0.128067 0.99147 0.0242189)
(0.274239 0.958187 0.0816738)
(0.228379 0.968846 0.0958122)
(0.0600364 0.155385 0.986028)
(0.352981 0.915643 0.192362)
(0.104205 0.992645 0.061627)
(0.219761 0.970267 0.101423)
(0.346285 0.900728 0.262252)
(0.11162 0.991777 0.0626037)
(0.402831 0.915258 -0.00540149)
(0.516014 0.856495 -0.0121105)
(0.573515 0.819191 -0.00270928)
(0.519685 0.854356 0.00164424)
(0.393434 0.919164 -0.0186222)
(0.400735 0.916063 0.0154865)
(0.574259 0.818644 0.00695316)
(0.521988 0.852935 0.0054917)
(-0.204134 0.978922 -0.00634315)
(-0.132124 0.991166 -0.0115648)
(-0.00456603 0.999851 -0.0166509)
(0.0106437 0.999937 -0.0036068)
(-0.122528 0.992455 -0.00443235)
(0.016134 0.999832 -0.00864697)
(-0.227926 0.973594 -0.01282)
(-0.215827 0.9764 0.00783356)
(0.392422 0.919465 -0.0242537)
(0.38732 0.921935 -0.00442842)
(0.509932 0.860146 -0.0108591)
(0.568106 0.822949 -0.00334508)
(0.50894 0.860593 -0.0189673)
(0.389433 0.921051 0.00251323)
(0.386013 0.922103 -0.026841)
(0.513212 0.858075 -0.0179056)
(0.568694 0.822471 -0.0113058)
(0.509676 0.860267 -0.0130981)
(-0.223236 0.974742 -0.00656146)
(-0.226206 0.974064 0.00546853)
(-0.14967 0.988736 -0.000816151)
(-0.00607489 0.999959 -0.00665275)
(-0.00481123 0.999964 -0.00703824)
(0.00186402 0.999996 -0.00197945)
(-0.14609 0.989263 0.00403396)
(-0.00260749 0.999988 0.00411635)
(-0.232467 0.972603 0.00177661)
(-0.228106 0.973578 -0.0106101)
(0.20797 0.978015 -0.0153516)
(0.0930482 0.995661 -0.00109044)
(0.267563 0.963511 -0.00749557)
(0.338234 0.941062 0.000701118)
(0.207876 0.978133 0.00665856)
(0.0928982 0.995668 -0.00382248)
(0.337633 0.941192 -0.0127406)
(0.207088 0.978311 0.00461494)
(0.258254 0.966065 -0.00486931)
(0.0893527 0.99598 -0.00632536)
(0.335739 0.941832 -0.0152139)
(0.0914078 0.995807 -0.00362363)
(0.336985 0.94151 -0.000535906)
(0.206079 0.97838 -0.0174277)
(-0.223635 0.974642 0.00772304)
(-0.222127 0.97498 -0.00857917)
(-0.140153 0.990125 -0.00312108)
(-0.00218961 0.999958 -0.00891368)
(0.000956152 0.999999 0.000973612)
(0.00240827 0.999981 0.0056247)
(-0.138727 0.99033 -0.0014897)
(0.00173793 0.999974 -0.00699658)
(-0.227012 0.973838 -0.0102365)
(-0.225087 0.974318 0.00630848)
(0.394374 0.91895 0.00012607)
(0.393947 0.918887 -0.0212756)
(0.515113 0.856913 -0.0189219)
(0.571958 0.820213 -0.0107619)
(0.515063 0.857069 -0.0119891)
(0.392332 0.919513 -0.023889)
(0.393139 0.919477 0.00181608)
(0.515013 0.857114 -0.0108345)
(0.572253 0.820067 -0.00397712)
(0.516457 0.856147 -0.0168705)
(0.205444 0.978656 0.0050106)
(0.258926 0.965861 -0.0083324)
(0.0898672 0.995948 -0.00347921)
(0.335277 0.942024 -0.0134456)
(0.205632 0.978509 -0.015361)
(0.0901395 0.995925 -0.00289363)
(0.334859 0.942268 -0.00104327)
(0.20533 0.978546 -0.016969)
(0.255522 0.96674 -0.0110808)
(0.0889551 0.996021 -0.00531772)
(0.33503 0.942205 -0.00225894)
(0.205331 0.978687 0.00333127)
(0.0894604 0.995974 -0.00576653)
(0.33413 0.942407 -0.0150441)
(0.392821 0.919614 0.00120002)
(0.391582 0.919881 -0.0219533)
(0.515555 0.856679 -0.0174146)
(0.572589 0.819778 -0.0102334)
(0.514787 0.857247 -0.0110283)
(0.391826 0.919749 -0.0230925)
(0.391191 0.920309 0.00140164)
(0.515181 0.857014 -0.0107368)
(0.572695 0.819762 -0.00331737)
(0.515627 0.85665 -0.0167482)
(-0.227082 0.973853 0.00667616)
(-0.225514 0.974198 -0.0090564)
(-0.14158 0.989926 -0.00155007)
(-0.00211814 0.999973 -0.00707298)
(-0.000839162 0.999998 0.00194658)
(-0.000482796 0.999995 0.00312649)
(-0.141219 0.989977 -0.00154278)
(-0.000716647 0.999976 -0.00683507)
(-0.227854 0.973651 -0.00930265)
(-0.226832 0.973914 0.00621604)
(-0.226075 0.974077 -0.00795691)
(-0.225501 0.974222 0.00632207)
(-0.00208703 0.999998 -3.69443e-05)
(-0.143008 0.989721 -0.00126469)
(-0.00121796 0.999977 -0.00672282)
(-0.228258 0.97359 0.00462365)
(-0.225242 0.974256 -0.009586)
(-0.000478444 0.999987 -0.00508992)
(-0.142271 0.989828 0.000253909)
(-0.000687143 0.999995 0.00299628)
(0.392447 0.919481 -0.0232454)
(0.390227 0.920718 -0.000860339)
(0.513498 0.857996 -0.0127806)
(0.571342 0.820702 -0.00405345)
(0.513679 0.85778 -0.0186449)
(0.391418 0.920213 -0.00011391)
(0.389935 0.920524 -0.0241962)
(0.515198 0.856889 -0.0176525)
(0.571515 0.820518 -0.0109443)
(0.513546 0.857975 -0.0121872)
(0.391978 0.919692 -0.022811)
(0.390429 0.920633 0.000862345)
(0.514861 0.857204 -0.010883)
(0.572858 0.819648 -0.00329554)
(0.515192 0.856906 -0.0169935)
(0.391583 0.920142 0.00116364)
(0.390408 0.920363 -0.0226477)
(0.516046 0.856391 -0.0170702)
(0.572911 0.819553 -0.0102943)
(0.51484 0.857216 -0.01093)
(-0.228157 0.973588 -0.0083743)
(-0.227003 0.973872 0.00649694)
(-0.142139 0.989846 -0.00139117)
(-0.00196726 0.999997 0.00151321)
(-0.00149807 0.999977 -0.00663308)
(-0.00201363 0.999981 -0.00582851)
(-0.142018 0.989864 -0.00062476)
(-0.00133661 0.999995 0.00269818)
(-0.228774 0.973464 0.00555431)
(-0.226269 0.97402 -0.00928784)
(0.204172 0.978807 -0.0158547)
(0.0880568 0.996111 -0.0029761)
(0.254271 0.967096 -0.00843895)
(0.334789 0.942293 2.39869e-05)
(0.204228 0.978909 0.00533705)
(0.0881261 0.996099 -0.0046172)
(0.333994 0.94248 -0.0134172)
(0.203927 0.978973 0.00505799)
(0.252693 0.967529 -0.00582345)
(0.0871979 0.996181 -0.00448733)
(0.333981 0.942477 -0.0139282)
(0.0880085 0.996115 -0.00297217)
(0.334096 0.942539 -0.000376307)
(0.203767 0.978887 -0.016126)
(-0.229199 0.973359 0.00631969)
(-0.227295 0.973783 -0.00912145)
(-0.142338 0.989817 -0.00119731)
(-0.00297695 0.999974 -0.00655259)
(-0.00201023 0.999995 0.00228231)
(-0.00204322 0.999995 0.00252849)
(-0.142178 0.98984 -0.00153308)
(-0.00204542 0.999975 -0.00672319)
(-0.229311 0.973313 -0.00889147)
(-0.228367 0.973555 0.00633404)
(0.392062 0.919937 0.00167037)
(0.390816 0.9202 -0.0222365)
(0.516391 0.856168 -0.0177924)
(0.573557 0.8191 -0.0104016)
(0.515361 0.8569 -0.011173)
(0.391719 0.919786 -0.0234534)
(0.39059 0.920564 0.00123641)
(0.515708 0.8567 -0.010481)
(0.573603 0.819127 -0.00326995)
(0.516009 0.856418 -0.0168344)
(0.20352 0.97906 0.00453879)
(0.251957 0.967718 -0.00635444)
(0.0867029 0.996224 -0.00460726)
(0.333819 0.942526 -0.0145115)
(0.203434 0.978949 -0.0165516)
(0.0874936 0.99616 -0.00324719)
(0.333895 0.94261 -0.00101393)
(0.203654 0.978903 -0.0165271)
(0.253046 0.967413 -0.00896481)
(0.0871762 0.996186 -0.00369901)
(0.334306 0.942464 -0.000785091)
(0.203595 0.979045 0.00454641)
(0.0874255 0.996158 -0.00511138)
(0.333544 0.942628 -0.014178)
(0.391973 0.919977 -9.87314e-05)
(0.390833 0.920133 -0.0246031)
(0.517581 0.855375 -0.0210695)
(0.574841 0.818177 -0.0119923)
(0.51624 0.856325 -0.0143058)
(0.391938 0.919622 -0.0260843)
(0.390643 0.920542 -0.000936721)
(0.516486 0.856195 -0.0131128)
(0.574887 0.818219 -0.00470166)
(0.517008 0.855751 -0.0198051)
(-0.231517 0.972812 0.00598601)
(-0.229266 0.973318 -0.00944338)
(-0.143696 0.989621 -0.00133961)
(-0.00476279 0.999965 -0.0069063)
(-0.00352054 0.999992 0.00185127)
(-0.00349208 0.999992 0.00195577)
(-0.143462 0.989654 -0.00182643)
(-0.00361972 0.999967 -0.00722924)
(-0.231447 0.972806 -0.00898145)
(-0.230733 0.972998 0.00610734)
(-0.230109 0.973126 -0.00875852)
(-0.229173 0.973365 0.0062889)
(-0.00289425 0.999994 0.00189987)
(-0.142738 0.989759 -0.00167157)
(-0.00268107 0.999973 -0.0069025)
(-0.230464 0.973063 0.00587053)
(-0.228052 0.973604 -0.00933027)
(-0.00353716 0.999973 -0.00642865)
(-0.14284 0.989745 -0.00113831)
(-0.00258547 0.999994 0.00225322)
(0.39188 0.919687 -0.0246106)
(0.390479 0.920612 0.000201806)
(0.515878 0.856585 -0.0115075)
(0.574116 0.818765 -0.00388049)
(0.516285 0.856226 -0.0180792)
(0.391682 0.9201 0.000957325)
(0.390574 0.920275 -0.0233525)
(0.516989 0.855774 -0.019288)
(0.574123 0.818693 -0.011138)
(0.515734 0.856657 -0.0125108)
(0.392272 0.919521 -0.024563)
(0.390847 0.920456 -0.000826157)
(0.516959 0.855887 -0.0145473)
(0.575679 0.817661 -0.00499828)
(0.517696 0.855317 -0.0206103)
(0.392052 0.919942 -0.00127354)
(0.39099 0.920051 -0.0251597)
(0.518372 0.854939 -0.0192358)
(0.575622 0.81763 -0.0118437)
(0.516859 0.855957 -0.0139451)
(-0.233098 0.972413 -0.00881885)
(-0.232707 0.972528 0.00608978)
(-0.14451 0.989501 -0.00193049)
(-0.00470109 0.999988 0.00154099)
(-0.00499355 0.999957 -0.00775147)
(-0.00718159 0.99995 -0.00691189)
(-0.144775 0.989464 -0.00127874)
(-0.00494245 0.999987 0.00152664)
(-0.233337 0.972378 0.0058112)
(-0.230758 0.972963 -0.0097166)
(0.201644 0.979327 -0.0160961)
(0.0842132 0.99644 -0.00396204)
(0.248311 0.968663 -0.00577118)
(0.334007 0.94257 -0.000714063)
(0.201647 0.979449 0.00433192)
(0.0841981 0.996436 -0.00505218)
(0.332915 0.942865 -0.0131208)
(0.201421 0.979482 0.00670526)
(0.243614 0.969871 -0.00185056)
(0.0834718 0.996508 -0.00208063)
(0.333379 0.942753 -0.00864042)
(0.0842865 0.996439 -0.00219301)
(0.333719 0.942668 0.00277223)
(0.201431 0.979419 -0.0128402)
(-0.235356 0.971889 0.00631125)
(-0.232569 0.972532 -0.00962708)
(-0.00824265 0.999952 -0.00526572)
(-0.00803376 0.999965 0.00226863)
(-0.00710221 0.999973 0.00184682)
(-0.00821275 0.999936 -0.00780682)
(-0.234229 0.972151 -0.00770604)
(-0.235067 0.971955 0.00689742)
(0.392684 0.919673 0.00139305)
(0.391824 0.919845 -0.0189538)
(0.519185 0.854659 -0.00222787)
(0.576471 0.81709 -0.00670572)
(0.517846 0.85547 -0.00239281)
(0.393601 0.919218 -0.0108418)
(0.391887 0.919984 0.00734226)
(0.517818 0.855428 -0.0103744)
(0.576588 0.817034 -0.00159758)
(0.518658 0.854877 -0.0133555)
(0.202634 0.979045 0.0202351)
(0.241973 0.969908 0.0269823)
(0.0857652 0.99626 0.0105375)
(0.336749 0.941421 0.0180848)
(0.2036 0.979044 0.00443216)
(0.0853476 0.996328 0.00680738)
(0.336487 0.941393 0.0235636)
(0.20206 0.979348 -0.00705526)
(0.248044 0.968581 0.0180476)
(0.0836336 0.996496 0.000492057)
(0.335186 0.942103 0.00964041)
(0.201531 0.979417 0.0112773)
(0.0842255 0.996446 0.00113218)
(0.334552 0.942377 0.000595996)
(0.400314 0.91237 0.0856157)
(0.398406 0.908579 0.125531)
(0.477067 0.818919 0.319028)
(0.572396 0.816314 0.0774156)
(0.501621 0.83443 0.228259)
(0.387267 0.874318 0.292561)
(0.39949 0.899018 0.179374)
(0.51698 0.849102 0.108427)
(0.574819 0.815931 0.0619693)
(0.509815 0.846587 0.1529)
(-0.235315 0.971788 0.0159704)
(-0.228184 0.973618 0.000417198)
(0.00565768 0.999876 0.0146929)
(4.64754e-05 0.999845 0.0176238)
(-0.00525813 0.999914 0.0120074)
(-0.00289765 0.999988 0.00392478)
(-0.221923 0.974975 0.0131635)
(-0.230472 0.972808 0.0229618)
(-0.232353 0.972627 -0.0028664)
(-0.235376 0.971851 0.0101347)
(-0.00738315 0.999966 0.0037515)
(-0.00848565 0.99995 -0.0052645)
(-0.237041 0.971466 0.00814151)
(-0.232969 0.972453 -0.00776441)
(-0.00731672 0.999973 0.00063168)
(-0.00753351 0.999955 0.00574236)
(0.39751 0.916454 0.0458124)
(0.395336 0.917551 0.0425405)
(0.51905 0.854623 0.0143543)
(0.577187 0.816501 0.0134668)
(0.519176 0.85439 0.0217736)
(0.394719 0.918617 0.0184143)
(0.394576 0.918807 0.010198)
(0.517605 0.853078 0.0659006)
(0.576845 0.816742 0.0135038)
(0.518595 0.853733 0.0468939)
(0.117295 0.338895 0.933484)
(0.26213 0.600006 0.755831)
(0.445439 0.774103 0.449833)
(0.545051 0.808793 0.220845)
(0.373789 0.712585 0.593721)
(0.38559 0.842168 0.376927)
(0.286863 0.67902 0.675752)
(0.20459 0.536383 0.818802)
(0.51967 0.801821 0.295003)
(0.296113 0.619608 0.726913)
(0.103751 0.722831 -0.683191)
(-0.21815 0.975834 0.0126283)
(0.0112377 0.999526 0.0286668)
(0.0293035 0.999438 -0.0162813)
(0.137203 0.951102 -0.276733)
(0.0452962 0.998659 -0.0250844)
(-0.226961 0.973061 0.0405056)
(-0.210781 0.97753 -0.00269297)
(0.359546 0.831048 -0.424366)
(-0.20459 -0.619737 0.757674)
(-0.0726354 -0.0566798 0.995747)
(0.00483884 0.175108 0.984537)
(0.310083 0.944796 0.105869)
(-0.204522 -0.55592 0.805682)
(-0.0572228 -0.0101706 0.99831)
(0.328201 0.940272 -0.0904013)
(0.18629 0.936977 -0.295584)
(0.436354 0.897955 0.0572013)
(0.336748 0.495605 0.80061)
(0.106835 0.178777 0.978072)
(0.356553 0.588464 0.725658)
(0.381949 0.917649 -0.109703)
(-0.0494064 -0.0622557 0.996837)
(0.167933 0.84586 -0.50628)
(-0.0425668 -0.0454208 0.998061)
(-0.173054 -0.603775 0.778144)
(-0.18928 -0.523377 0.830813)
(0.223954 0.926748 -0.301634)
(0.188457 0.917612 -0.34996)
(0.23128 0.881415 -0.411846)
(-0.0882664 -0.549974 0.830505)
(0.102224 0.289905 0.95158)
(-0.023577 0.0680949 0.9974)
(0.307826 0.47021 0.827131)
(0.0351813 0.115806 0.992649)
(-0.0314178 0.00941649 0.999462)
(0.15453 0.446326 0.881427)
(0.340683 0.624156 0.703111)
(0.0956682 0.287201 0.953081)
(0.331357 0.943276 -0.0208266)
(0.320051 0.947367 -0.00789025)
(0.282065 0.959345 -0.00978219)
(0.268758 0.963114 -0.0134131)
(0.310675 0.950417 0.0137095)
(0.270956 0.962544 -0.0096385)
(0.259767 0.965526 -0.0167518)
(0.24139 0.970257 -0.0182518)
(0.306389 0.951328 -0.0331665)
(0.262412 0.964956 -0.000630944)
(0.244685 0.969601 0.00154777)
(0.306957 0.951543 0.0185398)
(0.243275 0.969842 -0.0149792)
(0.26281 0.964795 -0.0100493)
(0.259461 0.965569 -0.018894)
(0.258264 0.966074 -0.00125699)
(0.242474 0.970137 0.00634706)
(0.306852 0.951398 -0.0261404)
(0.299959 0.95328 -0.0357994)
(0.245311 0.969366 -0.0123734)
(0.257388 0.966308 0.00101634)
(0.239586 0.970874 0.00144391)
(0.300886 0.953609 0.0098693)
(0.253594 0.967088 -0.0207782)
(0.236093 0.971476 -0.0222202)
(0.306443 0.951418 -0.0299358)
(0.24027 0.970686 0.0061846)
(0.260799 0.965359 -0.00810301)
(0.257415 0.966296 0.00295533)
(0.305547 0.952001 0.0183236)
(0.256494 0.966411 -0.0161287)
(0.239331 0.970794 -0.0167416)
(0.0907319 0.99587 -0.00314076)
(0.00391545 0.999984 -0.00405334)
(0.0903286 0.99589 -0.006646)
(0.00440624 0.999985 -0.00327892)
(0.0910181 0.99583 -0.0061647)
(0.00488422 0.999986 -0.00218381)
(0.0913266 0.995818 -0.00241831)
(0.00477771 0.999982 -0.00356332)
(0.30487 0.952226 0.0178632)
(0.257698 0.96619 -0.0082615)
(0.255384 0.966667 -0.0182947)
(0.238007 0.971133 -0.015949)
(0.303891 0.952263 -0.0290792)
(0.254557 0.967058 -0.00026279)
(0.237966 0.971253 0.00626115)
(0.305001 0.952164 0.0189072)
(0.237639 0.971237 -0.0150669)
(0.257664 0.966202 -0.00791302)
(0.254906 0.966805 -0.0176394)
(0.254228 0.967144 0.000338052)
(0.237513 0.971359 0.00695761)
(0.303924 0.952287 -0.0279401)
(0.090012 0.99592 -0.00643874)
(0.00379166 0.999986 -0.00366857)
(0.090173 0.99592 -0.00340115)
(0.00394471 0.999985 -0.00378304)
(0.0899512 0.995942 -0.00274972)
(0.00366775 0.999989 -0.0028625)
(0.00394105 0.999989 -0.00247419)
(0.0897535 0.995946 -0.00590816)
(0.305045 0.95183 -0.031096)
(0.258003 0.966107 -0.00840604)
(0.255676 0.96676 0.00226051)
(0.238486 0.971132 0.00519261)
(0.303875 0.952567 0.0166219)
(0.254897 0.966823 -0.0167709)
(0.23771 0.971178 -0.0174957)
(0.30389 0.952176 -0.0318199)
(0.236168 0.971696 0.00565191)
(0.254474 0.96704 -0.00874592)
(0.25383 0.967246 0.00219859)
(0.302883 0.952876 0.0170147)
(0.252874 0.967343 -0.0173828)
(0.235076 0.971816 -0.0176902)
(0.30317 0.952782 0.0171338)
(0.252298 0.967602 -0.00959353)
(0.252103 0.9675 -0.019692)
(0.234045 0.972083 -0.0166441)
(0.302125 0.952791 -0.0301724)
(0.251702 0.967804 -0.00149495)
(0.234628 0.972068 0.00587344)
(0.30226 0.953069 0.0172635)
(0.231894 0.972602 -0.0164237)
(0.249226 0.968402 -0.00916348)
(0.250439 0.96795 -0.0187754)
(0.250625 0.968084 -0.000721219)
(0.233002 0.972456 0.00625059)
(0.30122 0.953079 -0.0301237)
(0.303176 0.952359 -0.0331267)
(0.252537 0.967537 -0.00989569)
(0.252981 0.96747 0.00142325)
(0.234968 0.97199 0.00509904)
(0.302235 0.953094 0.0163239)
(0.251757 0.967613 -0.0185424)
(0.233484 0.972181 -0.0186927)
(0.307262 0.951625 0.000637055)
(0.234139 0.971141 0.045425)
(0.253224 0.963372 0.0882694)
(0.257487 0.963143 0.0778188)
(0.305847 0.950497 0.0548849)
(0.252353 0.965587 0.0629224)
(0.23061 0.972853 0.019388)
(0.313785 0.942128 0.118041)
(0.24306 0.83896 0.486895)
(0.24821 0.898262 0.362653)
(0.240096 0.962434 0.126789)
(0.314601 0.946921 0.0660832)
(0.265479 0.915961 0.300892)
(0.243552 0.959071 0.144445)
(0.0702273 0.308956 0.94848)
(-0.0760293 -0.0810104 0.993809)
(-0.00228492 0.0308352 0.999522)
(-0.00913606 0.0512375 0.998645)
(0.0288422 0.100338 0.994535)
(-0.0508061 -0.00964805 0.998662)
(-0.112557 -0.0967604 0.988923)
(0.321619 0.942955 0.0860087)
(0.121027 0.288419 0.949825)
(0.252059 0.784236 0.566956)
(0.24687 0.936288 0.249839)
(0.317489 0.93385 0.164697)
(0.186093 0.642213 0.743594)
(0.238412 0.93401 0.266056)
(0.347951 0.937322 -0.0188962)
(0.325706 0.944944 -0.03157)
(0.327675 0.944781 0.00430365)
(0.337185 0.941303 -0.0159993)
(0.305057 0.952238 -0.0135113)
(0.31072 0.9505 0.00153608)
(0.32329 0.945399 -0.0412868)
(0.318059 0.94807 -0.00118917)
(0.317329 0.948266 0.00968376)
(0.311109 0.949728 -0.0350409)
(0.306951 0.951639 -0.012795)
(0.311571 0.950215 0.00378719)
(0.298346 0.954456 0.00157562)
(0.305065 0.952197 -0.0160061)
(0.310191 0.950234 -0.028917)
(0.244269 0.969687 0.00624402)
(0.269712 0.962902 -0.00871198)
(0.26111 0.965306 0.00232986)
(0.30886 0.950905 0.019602)
(0.244162 0.9696 -0.0161403)
(0.260978 0.965211 -0.0160525)
(0.305994 0.951896 0.0161719)
(0.260396 0.965458 -0.00917249)
(0.239521 0.970741 -0.0170695)
(0.257083 0.966199 -0.0191599)
(0.240061 0.970745 0.00491086)
(0.256724 0.966484 -0.0013323)
(0.304793 0.951924 -0.0306937)
(0.307855 0.951426 0.00382588)
(0.311893 0.950026 -0.0131964)
(0.30289 0.952939 -0.0128533)
(0.307136 0.951657 0.00391581)
(0.326616 0.945138 0.00598093)
(0.325272 0.945022 -0.0336352)
(0.322104 0.945892 -0.0392084)
(0.320056 0.947398 0.00104128)
(0.306433 0.951707 0.0187692)
(0.26122 0.96524 -0.00876963)
(0.239989 0.97066 -0.0149872)
(0.25693 0.966263 -0.0179456)
(0.305375 0.951835 -0.0274979)
(0.239879 0.970781 0.00658356)
(0.256326 0.96659 -0.000295521)
(0.0913186 0.995797 -0.00706876)
(0.0042351 0.999978 -0.0051626)
(0.0915947 0.995786 -0.00455977)
(0.00443928 0.999981 -0.00423113)
(0.305268 0.951712 -0.0325073)
(0.259184 0.965779 -0.00973852)
(0.240175 0.970722 0.00381508)
(0.257295 0.966332 0.00102)
(0.304183 0.952502 0.0145553)
(0.238958 0.970849 -0.0187304)
(0.256101 0.966479 -0.0182049)
(0.091398 0.995811 -0.00268827)
(0.00492222 0.999986 -0.0020755)
(0.0913901 0.9958 -0.00557616)
(0.00481512 0.999986 -0.00202096)
(0.322336 0.946584 0.00880614)
(0.319624 0.946966 -0.0331138)
(0.320364 0.946489 -0.0390441)
(0.317628 0.948213 0.00234526)
(0.302801 0.953043 0.00449739)
(0.307798 0.951365 -0.0128656)
(0.30137 0.953429 -0.0122058)
(0.306073 0.951996 0.00476332)
(0.303512 0.952753 -0.0119459)
(0.308698 0.951149 0.00470714)
(0.301802 0.953366 0.00316795)
(0.30831 0.951184 -0.0139312)
(0.321697 0.946005 -0.0398192)
(0.318118 0.94805 0.00106761)
(0.320734 0.947137 0.00780927)
(0.317095 0.947767 -0.0344877)
(0.320088 0.946583 -0.0390485)
(0.316872 0.948464 0.00278362)
(0.320281 0.947276 0.00940547)
(0.317157 0.947795 -0.0331187)
(0.301153 0.953504 -0.011715)
(0.306278 0.951928 0.0051555)
(0.301079 0.953591 0.0040677)
(0.306826 0.951675 -0.0131339)
(0.304886 0.951907 -0.0302908)
(0.237859 0.97128 0.00622163)
(0.256958 0.966392 -0.00764124)
(0.255208 0.966881 0.00320405)
(0.303943 0.95252 0.0179943)
(0.237007 0.971364 -0.0167561)
(0.254349 0.966981 -0.0159757)
(0.0891995 0.996009 -0.0031372)
(0.00284037 0.999989 -0.00368881)
(0.00322348 0.99999 -0.00302564)
(0.0889226 0.996017 -0.00655183)
(0.089366 0.995979 -0.00630219)
(0.00348097 0.99999 -0.00280167)
(0.0896201 0.995972 -0.00282718)
(0.00343268 0.999987 -0.00368067)
(0.304088 0.952467 0.0183441)
(0.255651 0.966737 -0.007898)
(0.236385 0.971536 -0.0154702)
(0.25391 0.96706 -0.0180005)
(0.236358 0.971642 0.00678694)
(0.253098 0.967441 5.96216e-05)
(0.303075 0.952533 -0.0287414)
(0.300735 0.953696 0.00471383)
(0.305835 0.952 -0.0126637)
(0.300095 0.953836 -0.0118414)
(0.304915 0.952365 0.00516939)
(0.320393 0.94723 0.0102104)
(0.317384 0.947736 -0.0326293)
(0.319239 0.946854 -0.0394279)
(0.316263 0.948667 0.00276179)
(0.303845 0.952551 0.0180463)
(0.254798 0.966958 -0.00840327)
(0.235628 0.971716 -0.0157174)
(0.253285 0.967214 -0.0185593)
(0.302798 0.952611 -0.0290895)
(0.235723 0.971798 0.0066212)
(0.252604 0.96757 -0.000435431)
(0.0886341 0.996041 -0.00687356)
(0.00269282 0.99999 -0.00357468)
(0.088815 0.996042 -0.00355858)
(0.00274654 0.999988 -0.00413624)
(0.304194 0.9521 -0.0311697)
(0.255532 0.966767 -0.0080554)
(0.236871 0.971524 0.00579497)
(0.254317 0.967117 0.00264401)
(0.303125 0.952796 0.0171809)
(0.235917 0.97162 -0.0172298)
(0.253441 0.967208 -0.0166456)
(0.319227 0.947637 0.00881826)
(0.316282 0.948006 -0.0353715)
(0.31802 0.947081 -0.0435993)
(0.314718 0.949185 7.582e-05)
(0.299045 0.954229 0.00434226)
(0.30444 0.952439 -0.0132656)
(0.298639 0.954279 -0.0128565)
(0.302836 0.953033 0.00435187)
(0.299547 0.954005 -0.0120776)
(0.304371 0.95254 0.0050104)
(0.299692 0.954025 0.00452557)
(0.30523 0.952192 -0.0128749)
(0.318846 0.946917 -0.0410511)
(0.315703 0.948856 0.00175421)
(0.319487 0.94754 0.00984672)
(0.316479 0.948005 -0.0335753)
(0.3169 0.947505 -0.0425234)
(0.313309 0.949648 0.00240029)
(0.318378 0.947933 0.00767278)
(0.315544 0.948159 -0.0377591)
(0.296842 0.954839 -0.0129069)
(0.30066 0.953721 0.00438065)
(0.297588 0.954687 0.00374857)
(0.303182 0.952828 -0.0141126)
(0.302381 0.952625 -0.0327282)
(0.233172 0.972415 0.00626946)
(0.249907 0.968239 -0.00776851)
(0.251921 0.967741 0.00369533)
(0.301449 0.953321 0.0175186)
(0.231167 0.972747 -0.018037)
(0.250226 0.968047 -0.0165077)
(0.301786 0.953117 0.022214)
(0.245355 0.969433 -0.0007319)
(0.229501 0.973239 -0.0115841)
(0.248824 0.968506 -0.00913291)
(0.231356 0.972802 0.0114336)
(0.249912 0.968232 0.0083758)
(0.300925 0.95331 -0.0253834)
(0.295242 0.955413 0.00425011)
(0.301053 0.953506 -0.0139054)
(0.294698 0.955539 -0.009945)
(0.297661 0.954642 0.00758625)
(0.317338 0.94822 0.0132604)
(0.314792 0.948554 -0.0339417)
(0.315679 0.948594 -0.0227328)
(0.311605 0.949901 0.0242768)
(0.304518 0.951523 0.0432748)
(0.244647 0.968703 0.0419898)
(0.229585 0.973233 0.0104342)
(0.25046 0.967497 0.0349129)
(0.303866 0.952702 -0.00501951)