/*--------------------------------*- C++ -*----------------------------------*\
| =========                 |                                                 |
| \\      /  F ield         | OpenFOAM: The Open Source CFD Toolbox           |
|  \\    /   O peration     | Version:  2012                                  |
|   \\  /    A nd           | Website:  www.openfoam.com                      |
|    \\/     M anipulation  |                                                 |
\*---------------------------------------------------------------------------*/
FoamFile
{
    version     2.0;
    format      ascii;
    class       volScalarField;
    location    "0.105/solid";
    object      sigmaEq;
}
// * * * * * * * * * * * * * * * * * * * * * * * * * * * * * * * * * * * * * //

dimensions      [1 -1 -2 0 0 0 0];


internalField   nonuniform List<scalar> 
3125
(
1029.33
1011.12
976.946
972.431
939.308
932.161
848.161
816.532
995.484
988.805
960.482
955.825
904.094
892.501
1038.91
946.724
994.052
256.445
951.357
245.51
929.402
976.108
1002.64
974.712
254.144
921.553
236.608
981.003
898.087
234.425
901.923
231.875
893.783
968.44
233.894
890.199
225.859
945.48
864.901
221.698
870.238
212.922
858.752
923.925
220.769
851.689
163.088
866.096
799.887
180.717
807.944
525.989
793.581
757.101
199.744
804.509
1031.75
696.922
1021.41
1011.67
686.543
683.481
244.908
1000.44
915.808
240.537
920.437
675.159
683.946
1005.53
1012.51
236.907
984.258
908.976
239.635
904.726
988.729
994.61
663.735
668.345
671.886
669.057
1001.87
995.669
986.704
981.492
662.022
658.808
231.542
964.681
883.138
229.494
886.889
653.502
657.676
974.442
980.037
226.433
950.878
879.067
229.029
874.845
956.883
964.62
637.918
645.066
651.862
647.018
972.688
966.63
954.214
944.159
634.775
211.315
914.597
834.904
196.066
843.747
929.106
940.792
166.708
879.954
825.661
193.163
816.293
918.45
915.204
925.73
916.455
924.835
990.798
601.746
1016.18
1063.06
920.735
1050.55
986.291
266.036
748.695
724.35
980.822
263.021
732.313
708.196
969.537
743.073
719.176
944.511
688.161
246.838
711.304
707.297
685.864
946.88
947.72
248.439
716.272
696.044
955.852
708.369
688.189
930.741
676.684
235.051
700.491
931.83
698.657
675.536
928.416
234.545
695.996
672.848
926.95
696.472
673.923
920.655
667.851
231.627
690.652
689.958
667.96
920.172
922.588
232.068
693.714
670.955
924.353
691.28
669.178
901.112
655.737
223.553
678.125
903.21
675.541
653.673
897.959
222.729
672.689
650.059
896.248
673.044
651.401
885.775
638.839
215.769
662.987
663.95
641.19
883.306
889.966
217.177
670.387
647.564
892.774
667.311
644.603
829.99
580.748
156.728
635.908
837.013
633.524
568.615
820.842
155.314
632.279
539.156
811.888
631.113
553.434
769.859
514.065
342.55
727.229
684.718
503.246
765.47
788.755
298.578
643.889
524.744
800.221
657.374
512.217
591.829
402.025
1040.5
404.927
578.493
589.876
1043.1
402.352
570.036
709.581
641.347
658.093
719.151
663.047
557.1
563.434
563.589
560.231
397.388
1014.34
393.941
570.109
559.213
388.465
1011.89
390.719
541.879
543.761
681.897
636.308
626.873
628.797
681.475
626.311
552.605
544.549
948.381
689.71
242.682
714.812
948.094
689.459
714.387
945.28
241.737
684.17
708.468
687.035
711.001
942.049
540.659
539.045
678.922
620.261
624.625
628.501
682.357
626.746
534.374
536.442
566.793
565.364
385.607
1009
387.716
560.73
563.965
388.779
1011.48
387.728
932.737
236.665
677.016
700.64
932.924
676.545
699.177
934.754
237.189
680.502
703.648
937.513
677.791
700.269
555.326
552.14
376.713
990.679
378.407
550.652
551.376
379.603
992.593
378.941
527.591
526.331
665.367
609.711
611.294
614.225
667.127
612.429
524.179
525.024
528.491
528.942
618.412
670.001
615.035
532.608
529.78
614.755
669.094
614.387
554.781
553.362
383.926
998.489
382.736
558.592
553.202
379.957
996.774
381.63
546.395
545.712
375.768
984.359
375.015
549.904
545.853
372.803
982.831
374.331
519.874
520.276
660.652
608.598
606.323
605.203
659.495
605.551
523.003
521.225
917.017
666.906
229.929
689.604
918.456
665.482
687.474
914.787
229.455
663.277
685.654
663.986
685.62
913.672
518.945
517.519
654.825
600.387
601.509
604.489
656.381
602.52
515.648
516.351
546.353
542.789
369.449
976.09
371.1
542.188
542.273
372.249
977.843
371.655
906.962
226.597
657.424
679.809
905.813
658.146
679.681
909.448
227.17
661.672
683.939
911.287
659.849
681.541
537.332
533.075
360.725
959.398
362.868
531.719
532.511
364.698
961.784
363.681
508.783
506.438
640.46
586.168
588.633
593.244
642.961
590.247
502.474
504.594
510.28
511.234
599.305
650.238
596.866
514.416
512.6
594.478
648.476
595.715
537.487
537.555
368.706
970.292
367.912
541.851
537.888
365.484
968.46
367.268
524.223
525.869
359.578
950.627
358.066
531.47
526.498
354.32
947.472
356.909
488.862
493.343
631.563
584.292
579.617
572.551
628
577.207
500.279
496.25
875.051
635.083
205.142
660.086
878.851
630.61
656.464
869.579
202.603
620.984
650.371
625.245
652.057
865.894
485.597
477.783
548.415
557.176
569.702
561.184
462.876
472.982
524.144
518.516
346.587
932.769
349.433
515.435
517.813
352.798
936.573
350.746
848.563
177.809
590.728
636.528
843.314
598.893
638.475
855.252
182.41
615.018
647.396
860.347
607.851
643.354
514.385
516.583
365.93
914.901
353.668
534.892
521.058
343.213
914.955
345.638
396.494
358.899
404.797
445.198
491.124
459.989
288.905
340.759
408.239
431.758
543.404
527.724
457.192
440.402
500.65
520.163
510.412
511.206
345.142
921.954
343.153
516.184
511.039
341.718
918.628
343.007
769.458
633.926
388.385
937.959
429.591
551.647
602.06
642.818
955.799
499.013
240.579
199.264
387.388
346.273
322.693
327.826
265.752
219.675
856.475
550.318
740.194
823.721
788.382
612.378
899.757
934.437
603.799
948.854
1411.23
1017.45
1147.36
958.207
742.007
539.569
1015.95
246.654
263.848
378.038
320.356
349.34
271.556
851.744
1016.03
1406.41
1023.62
1001.41
824.933
1195.23
958.543
661.857
269.951
353.827
393.226
647.624
257.917
342.459
380.433
641.693
343.042
382.271
623.48
367.294
244.813
329.947
328.47
366.231
626.238
626.874
250.874
335.803
376.559
633.229
333.076
372.954
614.47
356.901
235.281
321.6
615.36
320.465
355.545
1023.08
871.74
1021.14
873.432
1025.16
876.627
1026.35
875.436
610.614
233.689
319.229
354.223
610.955
317.998
353.381
605.738
351.006
230.977
316.366
314.933
349.977
606.64
1016.81
869.47
1018.74
867.594
1014.99
865.772
866.218
1013.89
608.178
232.388
318.108
353.403
609.734
316.697
351.849
594.377
343.167
224.321
309.372
595.836
308.022
341.526
589.77
221.341
305.701
338.295
589.994
304.572
337.869
580.35
328.152
213.244
297.993
297.254
328.479
580.044
586.942
218.872
304.374
337.023
588.726
302.817
334.948
539.458
267.525
160.355
264.569
544.862
260.397
258.695
530.083
165.95
271.721
228.534
525.87
265.088
232.738
599.029
449.524
455.616
570.594
502.868
399.791
632.002
532.947
228.04
290.255
236.206
532.937
304.597
240.182
277.465
264.189
267.164
437.177
421.602
423.477
256.034
253.326
257.552
253.981
408.061
407.261
416.976
413.483
628.003
366.782
243.384
330.545
627.831
365.211
329.338
622.022
240.205
361.903
326.149
361.511
325.234
621.327
407.71
406.245
401.722
401.564
257.747
257.902
253.904
253.6
614.289
235.948
357.364
322.001
615.627
356.237
320.455
1029.73
880.43
1032.63
877.588
616.484
237.793
360.547
324.008
618.858
358.636
322.355
1027.85
876.927
1027.36
876.457
251.071
250.295
248.874
247.893
396.432
395.197
393.343
392.681
396.913
395.934
400.273
398.408
251.003
249.231
251.903
250.183
246.856
245.4
248.014
246.753
389.892
389.002
392.503
391.06
604.801
350.449
230.185
315.717
605.98
349.053
314.492
1008.58
860.011
861.272
1006.84
1010.66
864.623
1012.25
863.093
601.512
228.704
347.917
313.641
347.035
312.334
602.044
389.293
388.02
386.447
385.737
246.564
245.543
244.823
243.602
596.261
225.723
344.012
310.316
596.801
343.224
309.028
1002.41
858.024
1004.53
856.007
599.655
227.583
347.178
312.733
601.088
345.657
311.41
242.109
241.089
239.713
238.327
381.295
379.759
375.776
375.604
382.178
381.57
385.692
384.271
242.581
241.222
244.274
243.182
235.673
234.178
239.054
238.043
364.312
364.976
374.439
372.409
576.143
326.197
208.725
296.226
578.548
323.183
294.13
566.852
197.727
309.081
284.802
311.16
284.986
565.405
362.146
359.097
342.133
344.799
235.004
234.006
230.838
229.066
548.06
169.534
272.16
264.717
544.615
277.919
266.213
560.316
189.372
305.902
282.749
564.027
300.8
279.427
237.94
241.475
301.725
280.546
289.755
280.164
225.527
232.233
296.848
303.902
338.304
332.974
233.378
229.154
230.878
230.251
688.749
605.611
328.023
358.528
404.751
349.487
222.602
227.151
733.826
508.169
673.325
648.25
667.883
569.248
736.535
817.582
808.335
794.884
868.756
804.787
581.218
759.529
617.077
903.632
921.686
911.879
1169.45
841.668
985.27
1032.86
450.416
507.22
783.258
878.356
870.961
915.458
840.98
796.663
753.449
833.36
802.214
897.595
894.678
806.663
665.577
267.199
353.955
392.006
665.377
353.754
392.434
654.802
259.386
349.076
389.612
660.561
346.78
385.683
621.144
245.296
328.827
367.981
620.704
327.573
366.148
622.344
249.008
329.125
369.536
620.916
329.583
370.268
613.307
234.749
319.925
355.696
613.197
319.158
355.013
610.99
233.517
318.68
354.939
611.922
317.892
353.676
605.512
230.732
315.156
351.184
605.974
314.446
350.011
606.806
231.742
315.915
351.83
606.747
315.214
351.182
592.946
223.563
306.981
341.053
592.472
306.445
340.736
590.053
221.441
305.511
339.942
591.095
304.611
338.364
580.889
213.944
299.088
331.734
582.483
297.786
329.504
585.268
217.72
301.111
333.457
584.299
300.9
333.737
540.219
157.002
258.411
245.629
533.985
260.57
254.413
526.561
161.056
260.215
241.834
533.668
257.59
231.749
577.076
401.753
403.992
315.422
559.887
447.048
347.826
544.278
256.57
359.352
276.948
546.947
330.858
259.761
275.51
274.447
259.834
549.227
276.493
187.375
257.984
190.01
273.814
553.811
278.637
261.253
187.597
430.549
153.046
151.163
432.498
666.355
986.536
665.456
988.88
430.023
154.381
152.087
426.318
669.456
992.577
669.887
990.921
270.184
267.052
253.637
271.633
544.928
186.35
272.918
185.517
251.202
252.756
189.517
276.477
549.576
276.664
254.309
185.351
430.625
151.468
146.443
431.186
430.668
670.597
993.318
670.964
992.882
569.731
503.613
543.6
434.671
436.455
539.513
567.249
501.724
501.453
543.589
646.238
642.314
645.081
649.906
651.259
650.49
647.871
430.771
427.019
485.133
559.132
531.018
487.91
534.37
539.898
494.377
563.144
491.645
536.667
252.39
253.121
242.306
261.538
525.327
181.453
263.321
176.788
244.086
241.794
179.147
262.383
523.479
262.86
242.091
177.276
420.812
152.667
148.444
419.854
659.564
983.684
661.029
980.456
421.562
153.318
425.177
148.291
657.092
976.382
656.082
978.426
251.11
251.503
241.872
268.776
528.054
182.408
268.398
244.332
176.972
240.417
178.994
264.311
523.795
265.889
239.297
175.746
418.484
152.608
148.759
418.979
653.659
970.766
652.269
971.704
417.885
152.496
147.811
418.062
653.169
974.829
655.573
972.514
470.808
541.234
515.821
470.721
517.223
408.812
407.548
518.873
541.732
472.918
471.107
517.826
639.142
642.064
637.881
636.734
629.939
629.53
632.74
633.267
410.212
410.611
480.381
549.137
528.326
477.517
525.451
521.158
473.214
546.687
475.2
523.036
627.622
242.645
365.201
329.057
627.478
364.699
328.37
623.575
240.277
364.05
326.889
625.395
362.352
325.854
469.982
515.118
539.747
468.791
514.076
405.479
405.603
511.447
538.363
467.952
467.784
513.538
620.535
619.187
621.055
622.919
626.084
627.214
624.878
623.427
404.045
402.426
462.945
534.253
507.724
463.251
509.346
511.089
465.571
535.928
464.532
509.748
256.129
255.823
246.349
262.309
182.75
529.956
246.412
262.511
180.446
244.477
182.26
260.575
529.235
262.928
245.455
179.622
416.553
154.458
150.715
417.862
648.661
963.063
647.818
964.434
416.179
153.684
150.338
414.898
649.539
967.289
650.806
965.429
253.765
252.94
242.909
259.262
524.654
180.99
260.382
177.86
242.992
241.782
181.416
261.094
525.799
261.82
242.832
178.092
418.538
154.193
150.455
417.535
652.087
970.436
653.316
969.104
418.62
153.383
418.522
150.701
652.159
968.038
651.551
968.856
613.652
235.739
357.413
320.507
613.848
356.179
319.78
614.598
236.968
358.158
321.093
614.434
357.658
320.483
248.495
248.274
239.517
255.641
517.901
178.716
256.086
175.326
240.469
237.593
177.342
254.322
516.412
256.095
238.206
174.482
407.92
152.256
148.198
408.817
636.535
946.683
635.847
947.631
407.579
151.39
147.75
406.947
636.879
949.838
638.128
948.237
247.393
246.958
237.544
253.43
514.212
177.176
254.352
173.52
238.102
236.159
176.729
254.223
514.378
255.295
237.208
173.703
409.703
152.24
148.461
408.799
639.643
953.295
640.765
951.853
409.691
152.22
148.475
410.495
639.166
950.584
638.638
951.394
456.837
526.743
501.3
456.019
500.888
394.872
394.608
499.268
525.969
455.62
455.393
500.445
607.805
607.095
634.407
747.033
609.736
601.152
747.487
602.211
633.712
635.112
603.313
749.449
610.464
748.143
635.71
602.598
608.381
609.358
638.26
752.868
613.482
606.22
752.1
605.753
638.803
611.119
611.869
637.563
604.009
612.753
750.578
751.3
605.171
636.623
610.623
609.899
394.058
393.02
453.285
523.583
497.162
453.095
498.307
498.891
454.485
524.489
453.729
498.336
396.872
396.035
457.596
527.751
501.672
457.305
502.501
503.013
458.433
527.996
457.429
502.69
617.204
618.478
642.878
756.324
611.112
616.47
644.123
753.83
609.962
641.983
608.098
615.37
752.308
752.651
609.124
641.09
616.592
615.981
397.59
397.325
461.412
506.743
531.045
460.175
505.745
503.781
459.029
529.883
459.166
504.971
639.775
753.17
614.088
606.604
752.257
639.43
607.208
613.161
612.832
640.093
607.49
614.022
751.902
751.998
607.375
640.336
614.192
614.709
248.129
248.31
238.989
255.494
517.489
178.705
256.54
240.137
174.637
237.621
177.373
255.827
516.756
256.881
238.357
174.813
412.797
152.888
148.971
411.943
645.204
961.892
646.608
959.848
412.894
153.338
414.629
148.928
644.206
957.818
643.493
958.955
248.183
247.84
239.65
258.378
179.686
519.615
241.228
258.531
175.545
237.61
177.624
256.283
517.394
257.998
237.929
174.499
411.139
152.861
148.788
411.764
641.612
953.84
640.826
954.701
410.698
152.058
410.411
148.145
641.645
957.01
643.182
955.299
244.503
244.44
235.167
250.824
509.716
175.616
251.731
171.666
236.136
233.751
174.58
251.194
509.317
252.29
234.64
171.8
405.743
151.171
147.295
405.054
634.163
945.886
635.322
944.348
405.687
151.328
406.852
147.201
633.574
943.096
633.088
943.877
244.939
244.602
236.2
252.998
512.05
176.541
253.303
237.518
172.756
234.228
174.921
251.406
510.305
253.086
234.761
171.842
404.37
151.235
147.12
405.02
631.367
939.515
630.684
940.36
403.989
150.415
146.616
403.607
631.514
942.478
632.79
940.942
449.295
519.199
492.797
449.034
493.644
389.986
389.15
494.024
519.572
450.104
449.27
493.749
605.547
606.465
632.034
745.967
607.371
600.431
744.409
632.81
599.734
631.354
598.199
743.103
606.53
743.524
630.577
599.159
605.134
604.545
629.117
742.162
604.833
596.39
741.852
597.127
628.689
602.408
601.947
629.543
597.662
605.041
742.464
741.964
597.349
629.857
603.101
603.768
390.655
390.309
452.342
521.894
496.645
451.431
496.064
494.496
450.856
520.979
450.699
495.614
603.539
229.63
349.143
313.844
603.398
348.484
313.12
601.587
228.49
348.427
312.783
602.338
347.212
312.038
448.515
492.416
518.028
447.707
491.978
387.669
387.387
490.424
517.226
447.259
447.055
491.544
597.074
596.342
623.856
736.453
600.249
591.19
736.652
592.202
623.219
597.726
598.637
624.492
593.103
738.086
600.814
737.097
624.988
592.526
627.396
741.573
595.91
603.568
627.986
740.482
595.38
600.399
601.202
599.98
599.275
626.714
593.734
602.802
739.025
739.657
594.825
625.846
386.934
385.968
445.224
515.003
488.341
445.013
489.462
489.997
446.28
515.743
445.517
489.518
243.738
243.502
234.932
250.736
175.359
509.086
236.095
251.17
171.756
233.008
173.903
249.393
507.479
251.068
233.587
170.913
401.101
150.508
146.375
401.908
626.37
932.457
625.664
933.347
400.753
149.661
145.891
400.277
626.577
935.478
627.84
933.914
242.922
242.615
233.399
248.641
505.977
174.166
249.517
170.3
234.168
231.935
173.407
249.24
505.871
250.335
232.971
170.472
402.719
150.451
146.575
401.881
629.302
938.917
630.44
937.474
402.629
150.478
403.65
146.514
628.783
936.156
628.248
936.964
596.267
225.577
344.721
309.517
597.019
343.424
308.741
598.322
226.948
345.537
310.605
598.071
344.996
309.949
239.088
238.862
230.71
245.764
500.308
172.377
245.975
168.743
231.937
228.707
170.929
243.868
498.527
245.733
229.344
167.809
393.37
149.284
145.171
394.491
614.188
914.761
613.075
916.209
392.941
148.643
144.647
392.194
614.611
919.156
616.218
917.154
237.995
237.765
228.663
242.462
496.291
171.265
243.638
167.176
229.709
227.569
170.425
243.743
496.366
244.442
228.549
167.459
395.376
149.096
145.075
394.396
618.158
923.714
619.594
921.896
395.334
149.073
145.033
396.646
617.508
920.046
616.715
921.167
438.98
507.736
482.192
437.948
481.241
378.764
378.874
478.907
506.427
436.764
436.885
480.586
581.144
579.486
582.397
584.047
587.227
588.538
586.48
585.173
377.622
376.224
432.616
502.248
474.46
432.946
476.332
478.077
435.188
503.64
434.025
476.886
382.91
381.864
440.184
509.714
482.782
440.096
484.09
484.887
441.556
510.555
440.686
484.248
594.572
595.604
621.521
735.52
590.529
598.187
622.304
734.056
589.784
620.71
587.919
597.224
732.341
733.096
589.15
619.728
594.077
593.205
383.72
383.556
444.244
487.885
513.405
443.361
487.198
485.422
442.662
512.379
442.547
486.742
590.483
589.555
591.317
592.374
240.585
240.38
231.181
245.914
501.526
172.694
246.872
232.093
168.708
229.836
171.822
246.644
501.369
247.612
230.823
168.932
399.211
149.646
145.694
398.385
624.092
931.789
625.327
930.249
399.149
149.713
400.311
145.642
623.527
928.769
622.914
929.678
241.335
241.044
232.643
248.406
173.746
504.589
233.882
248.707
170.062
230.682
172.242
246.779
502.892
248.518
231.289
169.155
397.563
149.762
145.628
398.429
620.871
924.551
619.981
925.657
397.168
148.954
396.608
145.107
621.126
928.075
622.523
926.369
234.342
234.079
225.596
237.397
489.456
170.353
238.945
165.962
227.074
224.939
169.26
239.581
489.676
239.706
225.846
166.205
390.63
149.182
144.922
389.475
610.834
913.642
612.529
911.503
390.699
148.838
392.222
144.844
609.976
908.923
608.902
910.473
235.79
235.623
228.196
242.259
494.542
170.953
242.205
229.44
167.326
226.118
169.659
239.694
492.613
241.822
226.875
166.385
388.162
149.572
145.609
389.535
605.616
902.171
604.258
903.98
387.626
149.593
145.175
386.758
606.304
907.646
608.175
905.282
419.092
489.465
459.782
420.347
462.846
368.425
366.28
466.3
491.826
424.208
422.333
464.092
575.878
577.966
574.591
572.437
563.816
559.807
566.933
570.209
370.244
371.014
430.758
498.773
473.342
429.204
471.628
467.883
426.709
496.721
427.464
470.42
574.332
206.741
319.669
291.244
572.467
321.209
291.776
567.486
199.708
316.896
288.428
570.21
313.224
286.168
416.132
457.762
483.291
413.504
454.868
354.512
356.679
447.545
479.779
408.08
410.358
452.175
534.742
530.031
537.633
541.945
552.368
556.583
549.381
545.296
351.311
347.51
392.779
465.627
431.14
396.228
436.868
444.243
403.7
470.02
400.176
440.017
231.532
231.483
225.755
237.274
170.413
487.345
226.914
236.71
166.856
223.71
169.89
233.78
485.504
236.218
224.912
166.214
382.632
152.561
149.187
383.966
595.744
888.193
594.722
889.686
382.019
154.861
149.237
381.682
596.661
893.566
598.434
891.293
229.753
229.289
223.237
230.747
481.511
172.57
232.618
167.298
225.806
222.904
170.052
233.904
481.51
233.127
223.591
166.929
384.895
151.539
146.638
383.826
601.605
900.573
603.458
898.191
385.107
150.063
386.711
146.363
600.505
895.198
599.424
896.882
548.063
173.608
288.568
271.572
552.964
281.621
267.371
558.792
185.672
293.022
274.753
555.155
297.411
276.793
251.968
245.374
246.218
232.911
480.641
198.595
233.137
200.227
241.901
250.395
221.211
239.851
484.481
237.733
262.032
208.278
404.956
218.431
229.889
397.511
601.852
893.776
611.685
885.047
408.904
269.34
244.058
423.102
601.015
879.967
595.548
884.97
259.036
268.647
292.401
282.181
498.565
285.69
269.204
260.585
317.81
280.57
235.331
251.333
489.159
254.865
269.14
242.795
388.16
206.387
191.537
393.911
591.645
877.491
589.913
878.653
387.615
182.227
185.563
384.651
591.351
880.898
595.47
877.587
325.745
385.832
357.968
313.691
343.972
261.224
271.925
310.551
371.93
286.404
300.829
329.722
365.714
343.399
383.425
403.152
445.677
459.137
434.016
417.922
251.065
240.511
216.109
305.254
222.975
234.752
249.842
292.74
269.582
325.107
252.299
270.173
317.166
309.728
336.666
415.456
368.998
345.436
380.718
398.491
361.958
424.599
354.119
388.829
519.848
526.044
514.486
506.841
323.035
328.473
387.445
426.595
452.319
382.053
420.407
405.85
370.159
445.548
375.924
414.387
481.217
469.322
489.916
500.035
227.941
228.16
229.867
228.559
476.934
190.942
229.295
236.72
182.076
228.487
180.49
229.283
475.117
227.708
227.406
178.466
380.568
162.213
155.177
380.711
592.544
886.457
593.855
884.643
380.916
156.333
381.788
153.94
591.37
882.418
591.197
883.108
228.954
228.419
226.122
231.18
174.174
479.838
226.484
229.965
171.273
224.831
177.531
227.482
479.065
230.033
227.945
172.246
381.468
165.451
164.713
381.363
589.067
879.045
590.155
878.413
381.165
176.742
383.536
167.094
589.807
880.696
590.182
879.891
484.27
544.572
641.438
651.607
703.115
722.12
572.576
626.276
734.481
569.501
485.701
453.899
646.61
503.419
508.47
546.328
466.408
397.733
351.005
499.302
630.339
894.818
615.269
907.651
452.792
292.161
432.027
320.974
635.678
931.164
660.985
910.774
434.99
390.6
373.314
308.501
535.335
315.615
328.783
344.6
341.858
406.871
427.971
397.883
560.182
360.786
455.92
379.387
572.947
445.737
511.529
524.974
732.703
1040.37
798.102
986.861
624.288
682.513
585.037
701.046
710.723
938.697
671.943
970.101
281.983
208.098
162.633
240.119
137.083
273.588
317.427
114.275
212.358
183.202
208.498
115.262
301.459
323.134
283.407
264.336
234.073
231.074
237.791
250.356
253.22
233.173
198.503
250.151
199.231
183.52
170.339
121.256
172.781
227.607
174.362
147.734
762.043
726.38
639.629
834.854
779.833
610.758
786.303
886.695
884.698
856.692
635.015
762.919
849.458
821.162
807.736
633.364
794.404
995.325
947.491
1024.61
1095
1346.2
1051.02
1017.7
1091.83
1057.24
937.863
1287.66
1023.44
898.396
1000.61
927.513
652.146
876.484
794.822
807.241
589.98
819.609
1006.57
966.617
932.936
319.774
190.196
282.806
364.623
214.404
542.055
536.462
191.294
274.931
384.871
386.865
221.161
451.361
257.497
159.687
250.571
442.772
354.167
244.133
237.61
267.245
240.41
590.277
168.584
365.447
993.101
967.951
950.778
742.997
828.214
942.695
847.388
852.18
945.051
1066.03
1076.82
991.234
1014.43
922.426
1094.03
1046.84
940.331
920.121
1087.27
1329.16
994.177
987.334
1084.12
953.745
1241.41
971.898
1054.04
1126.19
1012.48
1108.04
948.895
1003.67
995.972
912.137
936.026
1076.16
843.497
1148.53
880.218
781.351
776.967
895.373
1010.28
1220.44
888.926
1198.83
1077.38
1014.72
910.458
1054.82
1065.47
926.003
1083.56
1028.51
1063.02
935.024
1043.73
967.712
895.041
1052.13
886.686
1040.51
889.487
968.963
885.674
1041.87
989.986
843.612
987.395
845.598
993.052
850.605
995.51
848.291
980.619
840.622
983.912
837.357
976.511
830.456
833.494
973.027
896.663
721.959
882.686
739.606
909.368
769.016
918.718
756.172
834.292
699.812
861.267
672.025
794.349
603.03
635.263
768.19
1040.36
884.894
888.961
1036.79
1043.09
892.268
1043.04
892.221
1000
852.691
998.099
853.962
958.429
810.959
815.857
953.676
963.988
826.326
968.463
821.632
941.342
804.538
947.517
797.106
933.894
779.467
927.194
788.002
672.901
778.238
647.19
634.769
787.591
640.004
668.873
677.219
649.418
804.862
652.81
794.66
681.126
644.022
688.028
665.279
815.102
657.16
687.07
652.412
664.341
810.67
815.044
656.281
684.373
661.814
771.846
630.861
630.927
764.782
665.008
627.534
659.674
623.79
761.432
628.278
761.858
658.16
625.286
656.189
768.558
627.082
622.19
765.424
622.644
655.786
656.498
622.625
626.366
761.627
763.87
622.73
656.851
646.962
758.309
621.241
612.418
760.299
614.269
645.577
648.395
617.076
765.135
622.969
762.113
649.846
615.298
654.192
769.183
621.8
628.304
654.985
769.468
621.171
653.053
618.339
627.289
767.278
768.671
620.274
651.435
608.273
720.51
586.44
575.773
721.198
577.575
606.939
609.566
579.603
723.498
587.571
722.071
610.636
578.384
614.506
728.71
592.065
584.135
727.171
583.152
615.478
613.401
580.661
590.852
724.883
726.008
582.307
612.07
617.376
729.714
594.378
584.918
729.928
616.599
586.086
618.128
587.194
595.002
731.352
730.377
586.506
618.729
603.543
718.985
582.623
574.449
716.865
605.164
572.748
601.747
568.89
713.268
580.789
715.184
599.669
571.312
592.686
706.092
573.454
560.454
707.496
563.457
589.914
595.075
567.11
575.415
711.187
708.923
565.006
597.327
564.938
681.887
550.841
532.448
685.208
537.795
560.685
569.061
544.868
691.873
554.064
687.949
572.576
541.185
583.767
703.837
558.192
567.216
586.711
700.815
555.505
580.476
548.264
563.929
694.959
698.237
552.742
576.479
393.994
550.951
417.011
354.215
564.394
374.941
373.297
413.485
410.035
589.957
432.198
576.048
431.949
391.756
477.66
630.394
482.769
465.583
621.176
453.597
489.616
464.325
425.225
471.133
600.988
612.732
441.429
448.519
549.942
677.997
527.988
539.161
555.417
672.958
522.265
543.951
508.88
532.99
662.673
668.502
516.751
536.515
510.936
637.209
506.243
475.319
644.04
500.968
485.706
520.159
501.927
513.713
656.949
649.57
493.356
528.751
330.274
537.425
374.96
336.307
523.266
351.089
315.539
308.494
278.723
492.064
357.368
507.871
288.553
299.074
244.632
436.807
314.946
257.377
441.397
255.897
243.527
255.589
267.509
324.099
472.044
459.179
255.775
268.312
253.232
420.892
266.326
336.503
242.521
427.998
275.615
263.174
264.618
337.83
419.863
421.716
278.426
261.239
)
;

boundaryField
{
    left
    {
        type            calculated;
        value           nonuniform List<scalar> 0();
    }
    bottom
    {
        type            calculated;
        value           nonuniform List<scalar> 
243
(
1046.42
1027.03
988.247
983.267
947.198
939.48
858.417
836.524
1009.18
1001.81
969.969
964.96
909.531
897.593
1161.6
1168.67
1057.49
1018.12
1130.53
1138.72
1102.78
1107.57
992.919
978.853
1093.34
1097.58
1063.04
1069.45
953.881
930.664
1047.27
1055.72
986.971
996.935
872.945
796.34
978.788
977.982
1047.98
1124.19
1130.19
1015.16
1028.65
1022.49
1041.33
1030.93
1010.84
1005.67
1019.26
1012.91
996.782
1110.84
1115.68
1084.78
1089.36
974.614
996.031
990.821
1003.42
998.108
979.956
972.405
988.544
982.652
959.686
1074.92
1079.93
1027.51
1037.97
920.659
954.283
942.071
968.827
958.86
920.708
918.043
936.79
925.156
885.293
1006.22
1017
1056.57
1103.69
919.542
1000.48
1364.31
1056.73
1053.2
1027.71
1024.91
1036.51
1032.43
1009.41
1007.28
1016.8
1014.26
994.449
992.316
1001.63
999.471
977.795
974.68
986.774
984.346
950.735
945.583
965.984
961.861
919.483
916.163
933.269
927.929
1877.46
1553.39
1288.13
1941.74
931.825
953.001
969.816
1147.12
1288.06
930.372
829.676
1162.03
989.9
1335.15
1335.12
1329.73
1326.89
1333.93
1332.3
1305.09
1304.06
1306.26
1305.22
1299.78
1298.17
1302.9
1301.16
1317.52
1314.64
1323.44
1319.64
1308.47
1307.65
1312.03
1310.02
1283.96
1283.09
1285.68
1284.39
1279.5
1278.34
1281.96
1280.53
1293.35
1292.05
1296.41
1294.43
1287.82
1286.77
1290.48
1288.88
1266.41
1265.47
1268.25
1266.96
1261.94
1260.86
1264.36
1262.92
1275.03
1274.02
1277.09
1275.69
1270.44
1269.36
1272.85
1271.38
1247.17
1245.85
1249.68
1248.14
1240.86
1239.2
1244.25
1242.27
1257.57
1256.45
1259.57
1258.26
1252.51
1251.23
1255.3
1253.6
1216.93
1214.88
1220.97
1218.66
1207.76
1205.72
1212.22
1209.78
1233.82
1232.03
1237.14
1235.19
1225.68
1223.6
1229.88
1227.49
1190.71
1192.12
1190.54
1190.62
1196.26
1201.04
1191.76
1194.35
1199.19
1197.81
1202.91
1200.85
1192.78
1192.33
1195.39
1194.03
1840.4
1716.94
1366.94
1326.68
1357.02
1372.33
2151.14
1903.08
1218.39
1228.96
1203.63
1210.84
1281.12
1303.25
1242.94
1257.84
)
;
    }
    interface
    {
        type            calculated;
        value           nonuniform List<scalar> 
1703
(
210.152
199.304
209.743
188.528
186.604
184.01
186.108
177.653
173.108
162.404
171.872
82.2822
101.301
500.034
131.358
197.302
192.79
189.197
192.301
183.495
181.614
178.414
181.054
160.126
139.767
90.694
135.21
579.98
921.303
943.413
218.257
215.735
203.099
205.666
187.654
187.237
184.647
185.225
176.059
175.158
166.966
168.586
60.8646
60.1273
305.557
250.364
194.765
194.087
190.16
191.01
182.734
182.265
179.417
180.056
153.122
149.968
113.116
119.6
730.905
926.379
593.336
955.001
1285.2
1031.75
1027.97
956.221
734.004
709.336
542.778
1007.71
363.649
273.038
1277.79
1008.72
981.262
224.932
211.085
199.467
207.475
187.183
185.926
183.317
184.821
176.166
173.064
163.339
169.866
73.2006
79.781
428.311
165.69
195.243
192.365
329.888
324.182
188.575
190.859
319.501
323.213
182.242
180.96
311.928
309.358
151.796
150.343
177.908
179.746
148.284
149.823
140.354
144.664
157.002
142.902
283.041
259.406
139.731
133.061
98.2909
129.548
141.864
222.963
652.897
413.466
749.054
873.282
902.58
714.576
833.075
884.573
795.505
220.806
212.001
200.931
206.203
187.07
186.03
183.461
184.645
175.851
173.543
164.587
169.046
65.668
67.6866
366.543
203.382
182.715
214.046
218.069
339.756
123.355
121.237
534.117
339.826
122.411
534.534
206.41
220.041
219.444
337.589
338.327
533.021
544.24
540.636
590.954
638.584
644.17
643.109
349.519
577.931
532.093
539.735
587.758
537.499
161.002
197.674
212.875
208.68
338.447
121.09
533.452
338.601
532.977
214.385
199.956
209.252
334.044
526.195
333.148
527.401
560.845
516.818
518.24
335.396
520.087
562.248
632.393
634.586
630.754
622.984
337.315
572.321
528.979
522.276
563.257
524.172
194.594
192.516
560.787
515.874
514.955
327.22
512.511
557.654
613.384
612.335
614.186
618.975
553.266
508.713
510.014
511.645
556.141
199.993
214.753
213.133
329.872
520.419
329.539
126.253
122.09
520.92
213.401
210.788
198.007
330.813
522.47
330.69
522.438
188.866
190.574
153.992
193.9
210.533
207.815
322.544
120.541
509.998
322.159
510.447
209.023
206.063
193.504
323.82
512.265
323.617
512.298
546.723
502.053
501.775
317.568
500.257
544.561
600.799
600.233
718.323
552.892
553.878
717.394
722.913
557.288
557.015
723.365