/*--------------------------------*- C++ -*----------------------------------*\
| =========                 |                                                 |
| \\      /  F ield         | OpenFOAM: The Open Source CFD Toolbox           |
|  \\    /   O peration     | Version:  2012                                  |
|   \\  /    A nd           | Website:  www.openfoam.com                      |
|    \\/     M anipulation  |                                                 |
\*---------------------------------------------------------------------------*/
FoamFile
{
    version     2.0;
    format      ascii;
    class       volScalarField;
    location    "0.105/solid";
    object      sigmaDiff;
}
// * * * * * * * * * * * * * * * * * * * * * * * * * * * * * * * * * * * * * //

dimensions      [1 -1 -2 0 0 0 0];


internalField   nonuniform List<scalar> 
3125
(
-1105.02
-1085.87
-1051.66
-1046.94
-1012.48
-1005.28
-933.168
-907.021
-1070.93
-1063.89
-1034.46
-1029.59
-978.425
-968.228
-1112.65
-1065.9
-1015.62
-289.022
-1070.27
-275.385
-1044.55
-997.478
-1077.5
-995.816
-287.822
-1036.95
-263.744
-1055.92
-1012.4
-261.354
-1016.74
-258.183
-1007.57
-1042.81
-260.756
-1003.7
-250.78
-1018.82
-976.11
-245.449
-981.91
-233.543
-969.543
-997.136
-244.224
-962.053
-178.732
-947.106
-916.206
-200.234
-921.249
-585.395
-914.33
-859.52
-223.58
-928.335
-1186.81
-800.237
-1174.56
-1163.84
-788.313
-784.414
-273.701
-1075.94
-1032.04
-268.781
-1037.3
-774.199
-784.7
-1157.1
-1165.09
-264.257
-1059.24
-1023.99
-268.042
-1019.54
-1138.01
-1144.73
-760.62
-766.055
-770.399
-766.948
-1152.85
-1145.88
-1135.69
-1129.8
-758.62
-754.783
-257.717
-1038.88
-995.956
-255.353
-1000.13
-748.52
-753.438
-1121.78
-1128.16
-251.538
-1024.43
-991.487
-254.769
-986.894
-1101.86
-1110.65
-729.999
-738.55
-746.596
-740.865
-1119.79
-1112.92
-1098.84
-1087.45
-726.219
-231.295
-988.173
-944.847
-208.713
-953.849
-1070.49
-1083.66
-178.359
-957.854
-935.988
-204.143
-927.481
-1059.79
-1055.34
-1066.75
-1056.53
-1067.52
-1143.75
-662.333
-1173.11
-1227.16
-998.907
-1200.53
-1094.4
-296.483
-846.486
-735.063
-1087.86
-295.736
-826.618
-725.689
-1074.98
-839.533
-735.605
-1046.63
-696.216
-278.367
-803.787
-797.628
-696.326
-1051.02
-1048.67
-281.438
-806.044
-712.876
-1057.4
-796.999
-701.654
-1035.43
-680.645
-262.07
-793.571
-1036.6
-791.26
-679.414
-1032.66
-261.674
-788.365
-676.566
-1031.26
-788.665
-678.167
-1024.35
-670.489
-258.227
-782.631
-781.454
-671.185
-1024.17
-1026.42
-258.843
-785.779
-674.869
-1028.32
-782.788
-672.553
-1003.95
-658.246
-248.139
-769.197
-1006.11
-766.107
-655.772
-1000.5
-247.236
-763.452
-652.356
-999.142
-763.4
-654.029
-988.52
-644.604
-238.079
-753.831
-754.248
-646.076
-986.716
-992.872
-239.721
-761.188
-651.106
-995.517
-757.735
-648.323
-947.378
-623.402
-180.643
-732.864
-951.255
-731.244
-619.957
-940.198
-179.207
-728.328
-608.994
-934.209
-728.694
-614.053
-880.398
-554.929
-393.654
-777.529
-744.876
-569.849
-845.539
-909.789
-344.742
-735.51
-602.335
-923.404
-736.142
-591.309
-681.559
-449.919
-1197.21
-453.127
-665.837
-679.169
-1200.2
-448.384
-656.801
-814.881
-735.381
-754.328
-826.235
-759.827
-641.855
-649.074
-649.221
-644.559
-444.329
-1166.33
-440.723
-655.587
-643.021
-435.587
-1163.76
-437.71
-624.56
-626.509
-782.93
-729.802
-718.799
-720.188
-782.337
-718.007
-636.558
-627.32
-1054.59
-695.49
-270.634
-809.33
-1053.75
-694.872
-808.982
-1050.74
-270.189
-690.479
-801.881
-693.651
-804.76
-1047.2
-623.213
-621.499
-778.602
-709.896
-714.957
-719.711
-782.678
-717.321
-616.126
-618.454
-653.208
-651.635
-433.556
-1161.14
-436.238
-646.243
-649.962
-436.943
-1164.01
-435.851
-1036.87
-264.496
-680.934
-793.394
-1037.63
-681.267
-791.153
-1038.8
-265.463
-686.926
-796.04
-1041.77
-683.274
-791.961
-640.225
-636.462
-424.102
-1140.22
-426.236
-634.834
-635.57
-427.359
-1142.41
-426.64
-608.392
-606.977
-762.54
-697.33
-699.224
-702.65
-764.602
-700.482
-604.515
-605.451
-609.426
-609.88
-707.827
-768.186
-703.816
-614.063
-610.836
-703.257
-767.083
-703.054
-639.529
-637.651
-431.693
-1148.93
-430.422
-643.711
-637.385
-427.432
-1147.03
-429.441
-630.023
-629.083
-423.183
-1132.98
-422.394
-633.976
-629.212
-419.935
-1131.27
-421.835
-599.606
-600.025
-757.008
-696.084
-693.36
-691.958
-755.634
-692.489
-603.145
-601.125
-1020.68
-669.959
-256.055
-781.588
-1022.28
-668.234
-778.913
-1018.12
-255.581
-665.588
-777.154
-666.93
-776.803
-1017.17
-598.529
-596.912
-750.091
-686.292
-687.687
-691.16
-751.914
-688.81
-594.78
-595.55
-630.006
-625.8
-416.387
-1123.62
-418.457
-625.232
-625.21
-419.517
-1125.62
-418.888
-1009.83
-252.108
-659.124
-770.902
-1008.93
-660.503
-770.386
-1012.56
-252.758
-664.403
-775.323
-1014.53
-662.058
-772.387
-619.768
-614.805
-407.39
-1104.68
-409.919
-613.415
-614.173
-411.611
-1107.39
-410.53
-586.915
-584.265
-733.063
-669.28
-672.418
-677.891
-736.044
-674.246
-579.761
-582.126
-588.653
-589.698
-685.084
-744.687
-682.157
-593.345
-591.289
-679.28
-742.614
-680.868
-619.912
-619.854
-415.749
-1117.03
-414.903
-624.865
-620.216
-412.234
-1114.96
-414.422
-605.046
-606.757
-406.459
-1094.74
-404.93
-613.168
-607.451
-401.267
-1091.17
-404.087
-564.267
-569.317
-722.316
-667.124
-661.318
-652.497
-717.944
-658.523
-577.226
-572.673
-979.245
-642.838
-222.732
-751.224
-982.401
-639.983
-747.538
-973.976
-219.535
-635.611
-742.39
-637.065
-743.203
-971.595
-560.513
-551.608
-621.857
-633.625
-649.134
-638.425
-534.482
-546.078
-605.005
-598.602
-394.734
-1074.58
-397.435
-595.173
-597.818
-400.106
-1078.86
-398.215
-958.012
-180.335
-625.376
-731.918
-955.312
-627.144
-732.534
-963.526
-185.928
-633.601
-740.302
-966.955
-630.753
-736.827
-592.142
-591.218
-422.171
-1055.46
-408.381
-602.755
-595.629
-395.414
-1055.26
-398.904
-456.293
-409.577
-422.098
-480.227
-545.553
-500.574
-316.748
-387.052
-470.283
-498.33
-615.688
-595.063
-527.919
-508.388
-558.256
-585.616
-588.02
-590.021
-393.94
-1062.52
-392.555
-596.032
-589.91
-392.852
-1058.85
-393.359
-883.275
-711.201
-447.603
-1082.82
-495.062
-620.335
-670.139
-742.025
-1103.59
-576.082
-263.761
-229.907
-404.59
-387.868
-372.085
-373.546
-282.992
-249.822
-889.766
-597.281
-800.103
-913.736
-838.151
-681.813
-1001.38
-1017.69
-678.951
-1010.6
-1604.62
-1071.11
-1312.38
-1027.73
-818.015
-584.747
-1099.38
-273.857
-302.632
-432.368
-369.347
-403.382
-299.702
-980.904
-1170.57
-1599.39
-1136.35
-1141.7
-950.521
-1379.56
-1106.49
-713.676
-302.294
-363.445
-442.85
-695.547
-289.781
-359.824
-428.393
-690.221
-349.428
-429.57
-671.304
-411.515
-274.866
-335.977
-337.445
-410.879
-674.922
-669.512
-283.996
-343.664
-423.721
-675.596
-347.79
-420.442
-665.592
-398.207
-261.774
-327.892
-666.036
-328.748
-396.81
-1110.68
-881.99
-1108.99
-883.582
-1113.16
-886.328
-1114.14
-885.41
-660.891
-260.192
-327.709
-395.287
-661.279
-323.859
-394.324
-656.27
-391.366
-256.902
-324.467
-321.252
-390.274
-657.267
-1104.53
-879.899
-1106.25
-878.255
-1102.47
-876.757
-877.074
-1101.69
-658.533
-258.665
-323.827
-394.2
-659.765
-325.069
-392.679
-645.527
-381.738
-248.568
-316.029
-646.579
-316.806
-380.074
-640.959
-244.964
-315.099
-375.828
-641.52
-311.408
-375.381
-633.338
-362.49
-234.152
-309.581
-306.374
-363.023
-633.709
-639.078
-241.44
-311.98
-373.933
-640.247
-312.553
-371.735
-614.703
-272.39
-180.182
-300.206
-617.226
-297.479
-267.362
-611.941
-186.025
-304.996
-263.803
-606.734
-302.511
-267.485
-626.172
-518.401
-512.661
-655.347
-580.208
-461.233
-688.513
-606.109
-259.562
-322.949
-269.821
-613.695
-333.399
-263.935
-312.726
-299.985
-303.255
-500.214
-483.593
-485.176
-291.95
-287.967
-291.853
-286.795
-467.376
-466.461
-478.813
-474.704
-679.738
-410.422
-271.189
-338.721
-678.48
-408.278
-336.855
-672.01
-268.035
-404.651
-335.882
-404.006
-330.187
-671.343
-466.578
-464.394
-459.67
-459.193
-294.463
-294.667
-290.388
-289.827
-664.598
-262.994
-399.003
-329.68
-666.134
-397.864
-327.016
-1117.3
-889.275
-1119.93
-886.532
-665.747
-265.614
-402.921
-328.495
-667.834
-401.161
-331.467
-1115.27
-886.386
-1115.3
-885.654
-287.594
-286.465
-285.1
-283.724
-453.252
-451.477
-449.722
-448.674
-453.892
-452.519
-458.118
-455.645
-287.358
-284.941
-288.063
-285.673
-282.987
-281.022
-284.168
-282.414
-445.597
-444.294
-448.769
-446.758
-655.676
-390.546
-255.792
-321.957
-656.53
-389.147
-322.867
-1095.87
-871.534
-872.684
-1094.39
-1098.31
-875.73
-1099.76
-874.37
-651.96
-254.165
-387.707
-322.009
-386.742
-318.569
-652.57
-444.868
-443.066
-441.541
-440.453
-282.747
-281.317
-280.805
-279.145
-646.927
-250.496
-382.958
-318.902
-647.617
-382.117
-315.45
-1089.83
-869.727
-1091.77
-867.964
-650.361
-252.718
-386.677
-319.008
-651.473
-385.173
-319.821
-278.03
-276.656
-275.577
-273.71
-435.384
-433.225
-428.673
-428.303
-436.438
-435.489
-440.665
-438.666
-278.466
-276.636
-280.255
-278.75
-271.658
-269.678
-274.951
-273.676
-414.436
-415.191
-427.069
-424.247
-631.128
-359.448
-227.292
-307.307
-632.481
-355.981
-306.752
-624.484
-211.773
-335.736
-302.809
-338.784
-300.954
-624.315
-411.77
-407.539
-385.941
-389.478
-271.021
-269.89
-266.463
-264.502
-616.281
-176.995
-276.163
-297.342
-615.046
-286.14
-296.662
-622.034
-197.298
-330.362
-302.553
-623.874
-323.666
-300.416
-266.486
-266.249
-337.98
-312.847
-312.098
-294.824
-257.432
-257.641
-322.478
-333.431
-380.996
-373.291
-262.441
-260.543
-266.36
-265.398
-772.419
-685.131
-373.973
-410.843
-467.347
-401.784
-257.001
-258.499
-836.254
-582.9
-735.265
-738.897
-743.295
-648.453
-833.775
-909.48
-925.922
-912.963
-1002.6
-890.554
-667.872
-858.768
-705.657
-976.93
-1035.25
-1051.17
-1346.76
-953.716
-1074.43
-1192.18
-518.175
-579.553
-869.541
-968.113
-969.265
-973.506
-926.802
-915.449
-846.728
-939.796
-896.809
-980.748
-1027.37
-897.396
-719.99
-298.497
-368.144
-440.787
-720.633
-363.132
-440.172
-706.247
-291.301
-354.367
-436.676
-711.654
-360.928
-432.958
-667.068
-275.904
-339.779
-414.238
-664.825
-335.398
-411.343
-662.699
-281.96
-339.602
-416.004
-662.549
-339.817
-417.363
-663.858
-261.526
-328.621
-397.163
-663.498
-323.921
-396.018
-661.2
-260.193
-323.99
-396.066
-661.663
-325.208
-394.659
-655.711
-256.868
-321.194
-391.819
-655.576
-321.306
-390.338
-656.575
-258.271
-323.924
-392.712
-656.379
-319.974
-391.759
-643.561
-248.067
-315.901
-379.614
-643.02
-311.847
-378.916
-640.996
-245.276
-311.803
-377.967
-641.385
-312.521
-376.158
-633.529
-235.228
-307.154
-367.303
-634.199
-307.477
-364.708
-636.973
-240.435
-311.258
-369.91
-636.188
-307.709
-369.919
-617.067
-178.989
-298.08
-265.614
-612.524
-299.494
-269.674
-607.443
-183.415
-300.416
-268.652
-613.372
-296.197
-262.585
-579.085
-457.825
-463.578
-353.394
-606.574
-515.79
-398.174
-615.024
-295.377
-405.577
-297.251
-599.897
-368.717
-279.615
-312.348
-309.56
-299.477
-629.92
-303.546
-215.828
-297.489
-217.439
-303.595
-635.677
-307.987
-301.64
-215.837
-496.423
-157.841
-154.42
-498.419
-769.195
-1123.22
-768.194
-1125.89
-495.734
-161.853
-157.794
-491.253
-772.791
-1129.99
-773.295
-1128.18
-306.447
-302.527
-292.866
-304.063
-625.514
-212.218
-303.773
-212.144
-290.048
-291.821
-216.217
-308.386
-630.872
-308.309
-293.638
-212.164
-496.803
-155.251
-150.88
-497.154
-496.84
-774.071
-1130.78
-774.525
-1130.36
-656.076
-578.425
-594.158
-496.972
-498.854
-589.999
-653.469
-576.292
-576.453
-595.501
-685.044
-680.054
-682.502
-688.594
-688.647
-688.407
-685.09
-493.162
-488.953
-555.834
-644.269
-581.764
-559.442
-585.957
-592.091
-567.631
-648.846
-564.098
-588.171
-286.365
-287.358
-279.772
-293.919
-603.227
-205.176
-294.942
-201.322
-281.658
-279.197
-203.382
-293.628
-600.749
-293.835
-279.508
-202.181
-484.996
-160.878
-154.749
-483.428
-761.355
-1119.97
-763.05
-1116.38
-485.934
-161.44
-489.762
-154.256
-758.485
-1111.89
-757.4
-1114.09
-284.142
-284.083
-279.251
-300.162
-604.769
-207.666
-298.82
-282.13
-202.718
-277.585
-203.673
-295.548
-599.872
-295.925
-276.313
-201.075
-482.06
-160.614
-154.564
-482.402
-754.634
-1105.8
-753.072
-1106.76
-481.402
-161.817
-154.312
-481.113
-754.057
-1110.18
-756.83
-1107.68
-539.958
-623.799
-565.409
-539.81
-566.881
-469.039
-467.066
-567.788
-624.323
-541.645
-540.048
-567.248
-676.816
-680.276
-675.436
-674.471
-667.021
-667.01
-670.423
-670.377
-471.069
-471.499
-549.893
-632.637
-578.671
-546.573
-575.154
-570.445
-541.722
-629.801
-543.816
-572.334
-679.302
-270.502
-408.403
-338.855
-678.943
-407.326
-333.473
-674.055
-268.187
-406.593
-330.833
-675.502
-404.942
-334.24
-539.264
-565.088
-622.293
-538.135
-564.271
-463.694
-463.625
-561.089
-620.722
-537.067
-537.071
-563.941
-657.698
-656.111
-657.936
-660.06
-663.434
-664.411
-662.119
-660.411
-462.205
-460.112
-531.11
-616.016
-557.393
-531.626
-559.517
-561.14
-534.309
-617.951
-533.13
-559.612
-292.863
-292.218
-284.265
-295.52
-205.945
-609.504
-284.207
-295.222
-204.491
-282.117
-205.128
-293.858
-608.688
-296.015
-282.979
-203.315
-479.479
-165.812
-159.801
-480.613
-748.928
-1097.37
-747.979
-1098.88
-479.077
-165.031
-159.826
-477.217
-749.949
-1102.06
-751.416
-1100.04
-290.119
-288.878
-280.244
-292.653
-603.288
-203.58
-293.119
-201.146
-280.103
-278.962
-203.689
-294.726
-604.527
-294.951
-279.964
-201.493
-481.888
-165.042
-159.076
-480.337
-752.882
-1105.47
-754.298
-1104.11
-481.959
-163.2
-481.598
-158.519
-752.959
-1102.92
-752.281
-1103.8
-663.366
-263.062
-399.581
-327.034
-662.753
-397.884
-326.434
-663.065
-265.044
-400.547
-328.992
-662.947
-399.878
-325.243
-284.471
-284.045
-276.175
-289.07
-595.799
-199.996
-288.938
-197.747
-277.011
-273.991
-198.624
-287.546
-594.041
-289.069
-274.405
-196.572
-469.217
-164.753
-158.459
-469.855
-734.971
-1079.19
-734.192
-1080.23
-468.874
-163.866
-158.203
-467.699
-735.371
-1082.67
-736.818
-1080.94
-283.232
-282.482
-273.888
-286.695
-591.534
-198.32
-287.011
-195.45
-274.228
-272.32
-197.526
-287.515
-591.623
-288.218
-273.253
-195.744
-471.358
-164.574
-158.734
-469.883
-738.559
-1086.5
-739.857
-1084.95
-471.35
-164.228
-158.236
-471.907
-738.002
-1083.53
-737.408
-1084.4
-524.347
-607.485
-550.774
-523.543
-550.519
-451.41
-450.881
-548.386
-606.593
-522.955
-522.837
-550.047
-644.415
-643.602
-717.57
-834.574
-697.344
-692.226
-834.852
-693.452
-716.753
-718.312
-694.71
-837.271
-698.145
-835.74
-718.982
-693.877
-644.872
-645.914
-721.866
-841.337
-701.652
-698.056
-840.333
-697.534
-722.444
-647.897
-648.642
-721.106
-695.506
-700.819
-838.678
-839.276
-696.865
-719.99
-647.336
-646.436
-450.53
-449.07
-520.225
-603.856
-546.332
-520.142
-547.885
-548.123
-521.65
-604.904
-520.872
-547.637
-454.014
-452.741
-525.173
-608.605
-551
-524.936
-552.025
-552.08
-526.017
-608.867
-525.056
-552.08
-654.07
-655.447
-726.592
-845.804
-703.434
-705.459
-728.045
-842.883
-702.099
-725.609
-699.977
-704.213
-841.127
-841.368
-701.139
-724.575
-653.356
-652.733
-454.971
-454.499
-529.311
-556.347
-612.339
-528.015
-555.269
-552.874
-526.641
-610.985
-526.863
-554.41
-723.404
-841.797
-702.5
-698.455
-840.61
-723.055
-699.116
-649.895
-649.654
-723.648
-699.329
-702.45
-840.533
-840.445
-699.262
-723.828
-651.011
-651.301
-283.632
-283.692
-275.665
-288.701
-595.142
-200.456
-289.146
-276.689
-197.181
-274.127
-198.943
-288.786
-594.138
-289.512
-274.761
-197.519
-475.106
-164.489
-158.492
-473.669
-744.948
-1096.02
-746.576
-1093.78
-475.245
-164.826
-476.853
-157.951
-743.787
-1091.51
-742.99
-1092.74
-283.514
-282.879
-276.505
-291.591
-201.782
-597.251
-278.095
-291.03
-198.731
-274.173
-199.666
-289.185
-594.65
-290.505
-274.315
-197.306
-473.074
-164.477
-158.157
-473.443
-740.814
-1087.12
-739.927
-1088.04
-472.628
-163.874
-471.835
-157.767
-740.853
-1090.59
-742.632
-1088.74
-280.016
-279.761
-271.07
-283.995
-586.482
-196.137
-284.332
-193.012
-271.844
-269.476
-194.79
-284.252
-585.903
-285.024
-270.219
-193.27
-466.663
-163.989
-158.057
-465.405
-732.242
-1078.28
-733.584
-1076.61
-466.619
-163.935
-467.556
-157.524
-731.557
-1075.2
-731.01
-1076.05
-280.422
-279.842
-272.316
-286.246
-589.024
-197.217
-285.932
-273.544
-194.626
-270.076
-195.605
-284.396
-586.972
-285.781
-270.392
-193.357
-464.983
-164.13
-157.856
-465.34
-729.017
-1071.22
-728.24
-1072.14
-464.608
-163.375
-157.506
-463.697
-729.189
-1074.49
-730.665
-1072.83
-515.75
-598.859
-541.775
-515.561
-542.876
-445.771
-444.524
-542.857
-599.28
-516.65
-515.832
-542.827
-641.984
-642.971
-714.874
-833.238
-694.536
-691.407
-831.346
-715.762
-690.601
-714.124
-688.834
-829.905
-693.586
-830.211
-713.21
-689.942
-641.517
-640.829
-711.741
-828.687
-691.519
-686.842
-828.13
-687.679
-711.264
-638.787
-638.316
-712.15
-688.242
-691.752
-829.068
-828.378
-687.907
-712.454
-639.436
-640.021
-446.587
-445.981
-519.152
-601.936
-545.847
-518.238
-545.303
-543.28
-517.488
-600.87
-517.412
-544.83
-653.812
-255.519
-389.409
-322.235
-653.456
-388.34
-318.039
-651.816
-254.154
-388.381
-318.552
-652.072
-386.962
-319.131
-514.874
-541.486
-597.535
-514.07
-541.147
-442.962
-442.431
-539.103
-596.603
-513.443
-513.33
-540.673
-633.284
-632.46
-705.952
-821.967
-686.126
-680.911
-821.985
-682.076
-705.218
-633.828
-634.77
-706.612
-683.084
-823.816
-686.748
-822.609
-707.148
-682.424
-709.872
-827.911
-686.314
-689.969
-710.526
-826.563
-685.709
-636.729
-637.573
-636.269
-635.394
-709.117
-683.797
-689.106
-824.986
-825.5
-685.068
-708.089
-442.142
-440.741
-511.105
-594.06
-537.073
-510.986
-538.568
-538.75
-512.33
-594.914
-511.562
-538.39
-279.305
-278.873
-270.731
-284.002
-195.412
-585.823
-271.756
-283.874
-193.053
-268.553
-194.014
-282.426
-583.925
-283.848
-268.89
-191.868
-461.088
-163.959
-157.713
-461.606
-723.257
-1063.38
-722.451
-1064.35
-460.751
-163.124
-157.357
-459.723
-723.498
-1066.71
-724.959
-1065.02
-278.419
-277.854
-268.937
-281.765
-582.283
-194.153
-282.066
-191.117
-269.463
-267.288
-193.021
-282.33
-582.052
-283.104
-268.165
-191.408
-463.043
-163.787
-157.911
-461.615
-726.642
-1070.53
-727.959
-1068.98
-462.956
-163.577
-463.718
-157.418
-726.038
-1067.49
-725.43
-1068.37
-646.66
-250.558
-383.951
-315.547
-646.857
-382.419
-315.938
-648.482
-252.36
-385.144
-318.929
-648.082
-384.22
-315.005
-274.469
-274.032
-265.592
-278.985
-575.994
-191.072
-278.671
-188.788
-266.652
-263.321
-189.651
-276.878
-573.92
-278.52
-263.63
-187.413
-451.787
-164.056
-158.051
-452.661
-709.203
-1043.72
-707.917
-1045.3
-451.356
-163.637
-157.706
-449.953
-709.692
-1048.58
-711.547
-1046.4
-273.295
-272.908
-263.077
-275.728
-571.516
-189.498
-276.397
-186.322
-263.771
-261.886
-188.423
-276.907
-571.481
-277.302
-262.666
-186.889
-454.258
-163.687
-157.751
-452.621
-713.787
-1053.65
-715.445
-1051.68
-454.228
-163.341
-157.283
-455.31
-713.035
-1049.6
-712.122
-1050.82
-504.071
-585.779
-530.756
-503.01
-529.795
-432.322
-432.307
-526.97
-584.262
-501.577
-501.818
-529.166
-616.852
-615.063
-617.938
-619.678
-623.021
-624.439
-622.285
-620.743
-431.018
-429.039
-496.911
-579.499
-522.513
-497.378
-524.782
-526.255
-499.807
-581.099
-498.585
-525.079
-437.385
-435.858
-505.418
-588.016
-531.211
-505.428
-532.89
-533.334
-506.974
-588.985
-506.092
-532.814
-630.621
-631.747
-703.344
-820.802
-680.17
-683.65
-704.226
-819.007
-679.312
-702.446
-677.159
-682.565
-817.103
-817.794
-678.586
-701.295
-630.107
-629.057
-438.311
-437.95
-510.001
-536.71
-592.248
-509.11
-536.033
-533.777
-508.215
-591.052
-508.194
-535.58
-626.427
-625.413
-627.158
-628.241
-275.927
-275.52
-266.251
-279.013
-577.308
-192.002
-279.426
-266.893
-188.864
-264.747
-190.78
-279.676
-577.014
-280.332
-265.554
-189.256
-458.866
-163.504
-157.579
-457.427
-720.633
-1062.61
-722.061
-1060.95
-458.811
-163.32
-459.726
-157.115
-719.978
-1059.29
-719.276
-1060.27
-276.711
-276.204
-268.005
-281.588
-193.217
-580.724
-269.099
-281.321
-190.823
-265.786
-191.771
-279.708
-578.733
-281.204
-266.126
-189.54
-456.849
-163.747
-157.597
-457.434
-716.916
-1054.6
-715.892
-1055.81
-456.463
-163.043
-455.314
-157.224
-717.211
-1058.49
-718.825
-1056.64
-269.727
-269.412
-258.764
-271.279
-564.108
-186.126
-272.397
-182.997
-259.671
-258.167
-185.401
-273.222
-564.229
-273.092
-258.862
-183.769
-448.465
-164.902
-158.731
-446.564
-705.328
-1042.45
-707.285
-1040.12
-448.578
-164.06
-449.907
-158.22
-704.338
-1037.23
-703.093
-1038.93
-271.281
-270.887
-262.284
-275.714
-569.667
-188.367
-275.221
-263.35
-186.128
-259.893
-186.801
-273.068
-567.455
-274.985
-260.177
-184.58
-445.338
-165.564
-159.913
-446.507
-699.297
-1029.74
-697.715
-1031.72
-444.749
-166.072
-159.683
-443.114
-700.091
-1035.79
-702.252
-1033.21
-481.825
-564.94
-507.462
-483.298
-510.948
-419.755
-416.767
-514.109
-567.647
-487.521
-485.5
-511.828
-611.503
-613.682
-610.297
-607.795
-597.859
-592.725
-601.557
-605.41
-421.88
-422.719
-494.84
-575.568
-521.562
-493.191
-519.769
-515.535
-490.313
-573.203
-491.252
-518.645
-629.22
-225.107
-351.284
-305.14
-627.912
-352.905
-303.266
-624.425
-214.713
-346.88
-302.119
-625.748
-342.393
-301.076
-478.542
-505.714
-557.925
-475.688
-502.709
-402.04
-404.736
-494.645
-553.887
-469.548
-472.181
-500.055
-567.341
-562.812
-569.347
-573.406
-584.037
-589.053
-580.894
-576.386
-398.193
-392.874
-452.478
-537.648
-477.981
-456.387
-484.291
-491.495
-464.656
-542.709
-460.774
-487.048
-267.23
-267.028
-258.198
-271.48
-185.064
-561.982
-259.194
-270.642
-182.759
-255.693
-183.108
-268.112
-559.909
-270.386
-256.024
-181.237
-437.986
-170.674
-166.049
-439.116
-687.837
-1014.29
-686.621
-1015.94
-437.197
-174.168
-166.389
-435.992
-688.904
-1020.22
-690.955
-1017.73
-265.241
-264.742
-253.383
-265.78
-555.681
-181.93
-267.431
-179.495
-254.704
-253.53
-182.102
-268.631
-555.573
-267.706
-254.103
-179.868
-441.14
-169.181
-162.29
-439.218
-694.646
-1027.96
-696.787
-1025.36
-441.476
-166.861
-442.909
-161.613
-693.377
-1022.02
-692.106
-1023.87
-614.895
-178.622
-303.795
-297.962
-617.512
-294.098
-295.122
-621.213
-192.004
-311.925
-298.956
-618.875
-317.744
-299.253
-272.863
-270.624
-266.853
-266.336
-552.856
-219.355
-265.408
-221.423
-261.442
-272.008
-250.131
-269.469
-556.822
-269.298
-287.073
-234.173
-460.128
-251.817
-264.432
-449.982
-694.211
-1021.12
-705.825
-1011.82
-464.619
-306.828
-279.651
-482.201
-693.45
-1005.98
-686.914
-1011.28
-284.895
-292.845
-331.168
-317.51
-566.804
-329.877
-301.609
-300.696
-363.117
-314.512
-269.669
-281.604
-556.763
-284.445
-298.699
-278.944
-440.303
-238.263
-221.104
-446.491
-682.733
-1002.88
-680.677
-1004.07
-440.239
-209.886
-213.996
-436.167
-682.251
-1006.63
-687.049
-1003.14
-375.965
-442.99
-402.431
-361.655
-387.587
-262.783
-283.222
-351.717
-426.056
-328.501
-346.083
-372.798
-395.544
-371.257
-414.125
-435.153
-477.747
-491.524
-466.641
-449.974
-261.344
-259.279
-231.749
-339.696
-256.544
-259.553
-286.491
-332.986
-307.179
-365.961
-284.441
-308.22
-352.695
-341.393
-388.735
-479.028
-413.452
-398.872
-426.049
-444.252
-417.76
-489.799
-408.831
-433.901
-553.65
-559.724
-548.764
-540.906
-360.191
-367.641
-446.525
-473.693
-522.259
-440.515
-467.185
-451.59
-427.059
-514.408
-433.623
-461.124
-514.365
-501.416
-523.347
-534.336
-261.248
-260.239
-251.592
-262.385
-550.445
-205.256
-264.178
-256.493
-195.773
-251.718
-191.497
-264.671
-548.467
-262.729
-251.021
-187.943
-434.497
-184.249
-174.92
-433.755
-684.075
-1012.42
-685.592
-1010.41
-435.175
-176.242
-435.776
-173.105
-682.699
-1007.97
-682.454
-1008.76
-262.923
-263.067
-254.112
-266.579
-183.511
-554.037
-254.552
-265.246
-180.24
-251.753
-183.184
-262.673
-553.166
-265.513
-252.926
-181.631
-434.512
-188.54
-187.776
-433.916
-679.882
-1004.37
-681.098
-1003.75
-433.766
-203.102
-435.554
-191.022
-680.803
-1006.18
-681.223
-1005.25
-557.106
-623.304
-718.518
-730.946
-803.026
-797.187
-649.705
-693.227
-814.266
-646.089
-546.456
-523.042
-731.015
-576.588
-581.657
-610.863
-536.155
-439.448
-391.005
-575.887
-727.587
-1022.93
-709.707
-1036.54
-519.456
-330.445
-493.121
-360.571
-733.686
-1061.92
-763.239
-1040.63
-502.272
-450.605
-430.745
-350.835
-595.325
-363.785
-376.489
-396.346
-393.248
-469.729
-487.016
-459.43
-625.871
-415.781
-524.965
-433.743
-661.143
-487.967
-557.711
-606.104
-843.721
-1174.63
-912.023
-1121.37
-718.66
-735.778
-633.354
-800.582
-819.663
-1070.74
-775.878
-1103.19
-325.309
-227.399
-184.765
-272.205
-147.929
-295.356
-358.572
-131.245
-240.687
-200.631
-231.059
-121.175
-326.524
-349.678
-307.293
-286.496
-247.565
-243.112
-255.141
-270.059
-255.952
-255.893
-200.219
-267.275
-229.993
-198.731
-196.558
-139.69
-198.783
-243.905
-199.048
-169.674
-868.819
-789.42
-733.553
-949.842
-887.615
-694.98
-887.878
-990.806
-982.547
-969.091
-733.093
-872.747
-958.523
-936.727
-897.317
-727.606
-900.414
-1024.18
-995.094
-1057.76
-1188.6
-1536.39
-1137.75
-1034.52
-1160.34
-1103.47
-1019.91
-1467.91
-1107.22
-980.139
-1034.55
-975.861
-753.019
-1010.76
-878.505
-878.219
-651.713
-875.658
-1028.29
-1087.67
-975.217
-369.193
-218.679
-322.135
-419.179
-247.378
-612.448
-609.923
-220.763
-314.103
-443.971
-444.539
-255.276
-519.088
-274.419
-181.373
-287.568
-510.863
-397.384
-255.444
-246.926
-288.449
-266.148
-676.374
-187.387
-404.213
-1095.54
-1068.79
-1039.17
-824.602
-909.488
-1087.7
-933.294
-943.481
-1037.46
-1172.06
-1195.62
-1117.35
-1171.12
-1017.85
-1200.42
-1150.27
-1038.49
-1053.32
-1179.47
-1523.61
-1119.9
-1134.39
-1169.68
-1083.85
-1429.69
-1121.14
-1191.36
-1274.28
-1161.94
-1246.46
-1071.14
-1085.96
-1068.26
-1031.83
-1050.8
-1211.68
-957.533
-1285.66
-988.566
-838.496
-880.178
-954.181
-1139.38
-1395.93
-1002.35
-1343.43
-1163.47
-1034.69
-923.62
-1128.34
-1152.24
-938.774
-1169.19
-1042.85
-1134.63
-941.393
-1128.44
-988.444
-904.659
-1136.39
-891.688
-1125.49
-894.679
-989.645
-889.682
-1128.38
-1077.06
-857.782
-1075.02
-859.222
-1080.45
-863.316
-1082.62
-861.427
-1068.69
-855.524
-1071.32
-853.199
-1064.46
-848.709
-850.463
-1062
-1008.66
-799.476
-999.248
-808.362
-1018.03
-821.485
-1023.26
-816.383
-957.586
-785.945
-981.155
-765.238
-916.58
-696.187
-731.361
-883.506
-1128.05
-893.722
-897.549
-1124.75
-1131.22
-898.672
-1130.35
-899.932
-1087.1
-865.105
-1085.53
-866.157
-1049.33
-837.983
-840.079
-1046.46
-1054.43
-846.184
-1057.6
-843.445
-1037.76
-835.047
-1041.45
-831.751
-1032.16
-824.991
-1028.81
-827.705
-759.731
-873.67
-741.972
-729.884
-883.433
-736.159
-754.774
-764.823
-747.467
-903.28
-748.271
-892.375
-769.588
-740.941
-777.039
-763.004
-916.806
-756.433
-776.431
-751.034
-761.479
-910.718
-915.628
-755.595
-773.37
-746.316
-865.823
-723.467
-725.297
-858.013
-750.176
-721.277
-743.914
-717.112
-853.888
-720.529
-854.288
-742.254
-718.692
-740.95
-860.857
-718.396
-716.029
-857.518
-716.395
-740.732
-740.974
-715.958
-717.72
-853.88
-855.902
-716.326
-741.074
-731.341
-848.273
-711.003
-704.945
-850.218
-707.114
-729.688
-732.925
-710.398
-855.973
-712.932
-852.559
-734.616
-708.292
-739.415
-861.359
-715.737
-719.194
-740.133
-861.261
-715.103
-738.254
-711.855
-717.96
-858.65
-860.081
-714.113
-736.389
-688.835
-802.671
-669.68
-663.412
-803.324
-665.47
-687.351
-690.19
-667.739
-806.353
-670.982
-804.577
-691.346
-666.353
-695.645
-812.651
-676.356
-672.913
-810.756
-671.787
-696.72
-694.434
-668.924
-674.973
-808.119
-809.246
-670.828
-692.902
-698.795
-813.932
-679.184
-673.781
-813.992
-697.924
-675.117
-699.572
-676.348
-679.881
-815.869
-814.64
-675.571
-700.214
-683.675
-800.657
-664.937
-661.942
-798.02
-685.45
-660.006
-681.738
-655.61
-793.652
-662.796
-795.759
-679.431
-658.388
-671.941
-784.249
-653.782
-646.104
-785.905
-649.524
-668.771
-674.484
-653.617
-656.118
-790.926
-788.06
-651.233
-676.944
-642.005
-751.808
-625.309
-614.425
-756.104
-620.52
-637.312
-646.466
-628.481
-765.43
-629.367
-760.297
-650.187
-624.318
-662.069
-781.136
-643.588
-645.817
-665.272
-777.259
-640.552
-658.596
-632.306
-641.903
-769.763
-773.648
-637.434
-654.263
-454.551
-575.928
-438.803
-399.919
-577.936
-426.365
-430.899
-476.552
-470.37
-615.749
-460.228
-601.708
-497.312
-447.901
-547.583
-677.134
-532.829
-537.237
-664.335
-523.061
-560.646
-533.096
-489.036
-516.965
-635.287
-649.83
-508.44
-515.618
-625.888
-746.166
-609.393
-609.757
-631.67
-739.339
-602.864
-619.688
-587.541
-602.11
-725.232
-732.761
-596.578
-611.71
-584.021
-688.407
-566.726
-548.72
-697.814
-573.015
-560.808
-594.056
-579.562
-576.523
-716.842
-706.777
-569.679
-603.438
-381.322
-554.153
-400.25
-375.629
-558.697
-405.402
-348.527
-355.896
-307.24
-541.321
-389.863
-540.897
-332.913
-327.626
-282.358
-499.455
-363.666
-297.055
-498.078
-294.336
-279.757
-295.128
-299.58
-373.472
-520.035
-518.495
-291.622
-309.46
-290.179
-478.841
-307.407
-388.539
-278.315
-488.46
-317.759
-302.881
-302.686
-389.813
-478.485
-473.384
-320.13
-301.094
)
;

boundaryField
{
    left
    {
        type            calculated;
        value           nonuniform List<scalar> 0();
    }
    bottom
    {
        type            calculated;
        value           nonuniform List<scalar> 
243
(
-1142.82
-1121.48
-1081.42
-1076.07
-1037.69
-1029.66
-956.903
-939.945
-1103.78
-1095.75
-1061.87
-1056.52
-999.7
-988.591
-1324.56
-1332.13
-1152.95
-1112.46
-1288.76
-1297.18
-1258.55
-1263.99
-1086.46
-1071.39
-1247.95
-1252.65
-1214.12
-1221.28
-1044.75
-1020.61
-1196.72
-1206.05
-1135.75
-1144.73
-967.979
-909.686
-1129.56
-1128.37
-1205.14
-1282.64
-1289.5
-1110.11
-1183.33
-1176.31
-1197.25
-1185.72
-1163.11
-1157.22
-1172.58
-1165.43
-1090.49
-1267.46
-1272.72
-1238.36
-1243.53
-1066.86
-1146.3
-1140.37
-1154.65
-1148.65
-1128.05
-1119.48
-1137.79
-1131.11
-1050.91
-1227.35
-1232.94
-1175.34
-1186.63
-1010.57
-1098.95
-1085.16
-1115.42
-1104.13
-1061.37
-1058.94
-1079.23
-1066.26
-977.831
-1153.35
-1164.37
-1219.81
-1272.56
-1061.01
-1153.68
-1570.81
-1215.48
-1211.44
-1182.34
-1179.13
-1191.64
-1187.15
-1161.48
-1159.05
-1169.73
-1166.88
-1144.47
-1142.05
-1152.59
-1150.16
-1125.57
-1122.03
-1135.75
-1133
-1094.92
-1089.09
-1112.18
-1107.5
-1060.14
-1056.55
-1075.28
-1069.28
-2152.37
-1788.24
-1486.14
-2224.79
-1075.28
-1099.82
-1118.61
-1324.58