/*--------------------------------*- C++ -*----------------------------------*\
| =========                 |                                                 |
| \\      /  F ield         | OpenFOAM: The Open Source CFD Toolbox           |
|  \\    /   O peration     | Version:  2012                                  |
|   \\  /    A nd           | Website:  www.openfoam.com                      |
|    \\/     M anipulation  |                                                 |
\*---------------------------------------------------------------------------*/
FoamFile
{
    version     2.0;
    format      ascii;
    class       volScalarField;
    location    "0.105/solid";
    object      sigmaMin;
}
// * * * * * * * * * * * * * * * * * * * * * * * * * * * * * * * * * * * * * //

dimensions      [1 -1 -2 0 0 0 0];


internalField   nonuniform List<scalar> 
3125
(
-1486.48
-1465.41
-1408.49
-1401.37
-1347.19
-1335.91
-1215.2
-1173.08
-1438.4
-1428.77
-1381.4
-1373.87
-1292.9
-1275.84
-1499.23
-1048.26
-1658.76
-547.616
-1053.88
-532.795
-1042.67
-1636.72
-1453.1
-1626.67
-561.205
-1031.83
-513.272
-1415.17
-992.768
-509.357
-997.784
-501.033
-987.557
-1394.71
-508.736
-982.132
-485.093
-1357.06
-945.341
-475.946
-952.885
-462.012
-936.729
-1323.04
-474.813
-926.927
-408.137
-1238.72
-847.676
-385.579
-863.204
-680.441
-824.644
-1078.5
-401.534
-800.107
-812.944
-1625.31
-813.139
-800.085
-1601.69
-1598.07
-526.369
-1446.72
-1015.84
-525.035
-1021.99
-1583.31
-1601.44
-787.494
-794.633
-514.338
-1421.26
-1010.1
-526.106
-1003.59
-768.358
-774.388
-1554.45
-1566.19
-1575.52
-1567.86
-785.442
-777.272
-766.19
-759.601
-1550.08
-1541.09
-500.323
-1388.3
-971.675
-494.874
-976.919
-1527.27
-1538.19
-751.04
-757.226
-486.12
-1365.81
-965.941
-494.052
-959.671
-729.733
-738.385
-1491.27
-1506.67
-1523.19
-1511.09
-748.598
-741.324
-726.061
-715.257
-1485.27
-460.464
-1308.75
-903.888
-442.33
-915.949
-698.934
-710.762
-412.183
-1257.85
-890.9
-439.891
-877.332
-689.588
-682.964
-694.255
-685.729
-694.745
-790.431
-739.478
-871.168
-888.684
-1067.06
-865.39
-1205.88
-505.881
-779.008
-1259.39
-1201.11
-528.579
-780.878
-1251.15
-1197.11
-778.103
-1256.82
-1178.25
-1223.56
-546.716
-766.346
-771.536
-1225.61
-1175.5
-1185.01
-559.281
-781.533
-1240.54
-1190.77
-779.063
-1231.55
-1142.88
-1195.6
-510.557
-739.981
-1144.6
-739.164
-1193
-1139.31
-511.485
-735.056
-1187.69
-1137.41
-736.571
-1189.94
-1127.58
-1175.91
-503.965
-726.051
-727.793
-1177.43
-1126.01
-1131.3
-505.252
-732.138
-1184.06
-1133.59
-730.973
-1180.44
-1094.24
-1148.11
-480.774
-703.559
-1097.07
-702.096
-1143.99
-1088.93
-480.581
-695.49
-1136.28
-1086.04
-697.925
-1139.52
-1069.52
-1115.59
-468.537
-679.834
-683.022
-1120.13
-1065.52
-1076.29
-468.835
-690.597
-1131.43
-1080.08
-688.463
-1126.06
-984.655
-1039.8
-388.513
-624.294
-995.159
-617.932
-1026.63
-972.27
-389.598
-601.037
-994.538
-957.696
-608.432
-1010.73
-875.832
-874.064
-534.099
-603.219
-563.666
-909.569
-845.307
-912.461
-481.817
-585.523
-974.365
-938.139
-575.4
-948.18
-429.402
-457.333
-811.816
-453.322
-441.603
-432.23
-812.898
-455.312
-1380.13
-1654.48
-1485.4
-1506.34
-1676.27
-1513.64
-1368.99
-1374.26
-432.056
-444.078
-460.74
-810.881
-459.747
-449.026
-448.209
-449.971
-805.55
-455.299
-1340.24
-1342.48
-1590.93
-1474.64
-1460.07
-1459.88
-1591.82
-1457.65
-1360.11
-1345.62
-1168.66
-1222
-520.563
-759.385
-1170.41
-1219.76
-757.837
-1164.24
-525.285
-1212.65
-754.025
-1216.07
-755.042
-1161.72
-1338.82
-1336.9
-1592.01
-1445.48
-1452.91
-1459.45
-1599.31
-1457.09
-1328.78
-1332.6
-426.739
-422.79
-438.529
-789.373
-438.971
-421.7
-422.941
-443.828
-791.793
-441.273
-1149.78
-518.931
-1197.67
-743.48
-1148.17
-1199.06
-745.763
-1154.07
-522.305
-1207.32
-751.333
-1157.08
-1202.54
-749.81
-411.761
-410.437
-423.856
-770.465
-424.969
-407.095
-410.012
-428.272
-772.583
-426.794
-1311.54
-1308.17
-1558.75
-1418.35
-1422.37
-1428.9
-1563.09
-1425.22
-1302.83
-1305.27
-1313.3
-1314.74
-1440.85
-1570.55
-1434.11
-1324.24
-1317.27
-1430.56
-1568.36
-1431.82
-413.548
-418.872
-437.402
-783.384
-435.809
-422.277
-420.678
-430.975
-780.291
-433.175
-399.971
-403.87
-422.112
-764.432
-420.643
-406.481
-405.019
-417.037
-762.009
-418.564
-1290.64
-1292.12
-1546.29
-1415.29
-1410.36
-1405.74
-1543.28
-1407.99
-1299.64
-1294.64
-1120.58
-1173.38
-497.633
-723.072
-1122.51
-1170.42
-722.226
-1116.86
-497.672
-1165.18
-717.639
-1167.28
-719.351
-1114.96
-1288.47
-1284.5
-1530.83
-1393.23
-1396.68
-1403.6
-1534.72
-1399.41
-1279.5
-1281.66
-398.855
-397.738
-410.378
-753.338
-411.72
-393.505
-397.027
-414.996
-755.551
-413.63
-1104.02
-489.711
-1151.85
-707.483
-1101.79
-1154.25
-709.489
-1108.43
-490.237
-1161.72
-714.311
-1110.88
-1157.97
-713.082
-384.239
-382.119
-393.6
-732.926
-395.629
-376.213
-381.031
-400.136
-736.065
-398.309
-1262.23
-1257.01
-1496.52
-1360.46
-1365.43
-1375.04
-1501.8
-1369.32
-1249.48
-1252.95
-1265.69
-1268.07
-1390.23
-1518.99
-1385.08
-1276.35
-1271.45
-1378.31
-1514.79
-1381.95
-385.545
-389.74
-408.289
-746.674
-406.691
-392.507
-390.813
-402.657
-744.029
-404.36
-364.09
-370.115
-390.527
-723.079
-388.181
-374.698
-371.453
-382.149
-719.101
-384.792
-1228.01
-1232.9
-1479.04
-1356.15
-1348.77
-1337.1
-1473.03
-1343.8
-1245.04
-1238.4
-1052.99
-1109.27
-451.931
-673.523
-1058.12
-1102.27
-670.524
-1044.64
-451.768
-1088.1
-659.649
-1094.44
-663.865
-1038.99
-1222.6
-1213.68
-1306.4
-1314.68
-1331.68
-1321.22
-1198.85
-1206.46
-362.169
-357.531
-368.612
-702.826
-371.614
-348.787
-356.158
-378.344
-707.299
-375.55
-1013.3
-426.37
-1050.71
-633.895
-1005.17
-1060.14
-639.485
-1022.96
-426.742
-1079.98
-651.783
-1030.07
-1070.75
-647.36
-329.048
-322.257
-362.793
-684.555
-356.001
-322.275
-324.635
-353.326
-683.747
-353.625
-1148.15
-1129.75
-1202.19
-1224.22
-1255.66
-1237.34
-1093.38
-1115.58
-1157.96
-1169.79
-1299.22
-1285.97
-1191.81
-1179.3
-1264.73
-1276.99
-330.938
-339.266
-364.431
-691.381
-361.7
-346.542
-340.192
-355.914
-687.758
-358.077
-580.859
-393.124
-378.52
-710.866
-409.93
-327.663
-359.313
-573.549
-738.566
-475.247
-988.212
-1011.34
-1185.56
-1151.58
-1075.11
-1118.7
-1076.44
-1044.1
-907.623
-898.799
-937.757
-724.882
-850.717
-945.168
-855.446
-1118.72
-1002.74
-1034.31
-854.906
-932.148
-874.224
-1076.17
-942.144
-904.894
-966.919
-973.037
-933.301
-914.878
-1039.2
-987.972
-844.418
-659.592
-938.91
-819.364
-979.499
-982.945
-731.243
-904.347
-914.014
-910.285
-509.674
-580.708
-808.909
-917.047
-537.868
-595.706
-819.332
-915.658
-589.952
-817.611
-896.458
-798.856
-534.738
-580.445
-582.359
-801.361
-896.081
-914.687
-559.916
-598.928
-819.289
-918.271
-600.611
-819.84
-869.637
-776.259
-509.075
-559.075
-871.16
-557.507
-775.94
-1425.69
-1491.78
-1422.77
-1495.23
-1429.55
-1501.78
-1431.77
-1499.06
-864.812
-507.066
-554.789
-770.398
-864.511
-554.221
-771.389
-854.526
-760.988
-498.97
-546.646
-546.201
-761.931
-854.545
-1415.69
-1487.49
-1418.59
-1483.82
-1411.83
-1478.39
-1480.5
-1409.55
-860.869
-504.347
-553.255
-768.676
-862.834
-551.736
-768.074
-830.203
-740.57
-480.71
-528.646
-832.29
-526.993
-739.919
-821.92
-474.968
-520.392
-730.523
-821.067
-520.174
-731.705
-804.936
-714.137
-462.086
-506.259
-506.261
-715.548
-803.297
-815.97
-469.914
-517.558
-727.8
-818.506
-515.74
-726.906
-735.162
-650.742
-398.385
-450.687
-742.261
-446.019
-647.164
-710.525
-382.713
-421.094
-605.622
-697.065
-423.495
-611.818
-658.13
-764.771
-630.986
-675.84
-613.299
-713.436
-712.405
-676.194
-418.362
-419.884
-595.001
-692.798
-423.88
-586.27
-218.683
-249.98
-238.815
-942.687
-968.588
-964.079
-241.113
-248.189
-264.149
-271.025
-944.452
-943.35
-973.298
-966.666
-890.028
-795.792
-520.535
-575.497
-891.906
-794.229
-572.029
-885.931
-522.248
-789.857
-571.335
-790.536
-570.031
-885.189
-941.101
-936.265
-935.9
-934.024
-233.327
-229.034
-233.264
-232.016
-872.826
-512.787
-777.729
-561.154
-872.901
-778.8
-560.981
-1441.53
-1513.59
-1445.47
-1508.59
-881.365
-521.658
-787.83
-570.126
-883.762
-787.309
-569.055
-1437.2
-1503.91
-1435.18
-1505.23
-223.287
-222.643
-221.358
-221.805
-921.176
-916.625
-914.424
-912.177
-921.831
-919.088
-934.883
-928.555
-225.346
-227.726
-234.998
-236.218
-214.836
-216.245
-220.934
-221.092
-903.808
-901.043
-913.056
-907.605
-851.415
-759.654
-496.434
-545.044
-853.024
-759.275
-543.595
-1399.33
-1465.47
-1468.54
-1396.51
-1403.34
-1475.41
-1405.87
-1472.27
-845.845
-492.78
-752.929
-539.738
-753.963
-539.344
-845.583
-902.966
-898.339
-895.089
-892.781
-213.681
-213.628
-210.125
-211.117
-834.739
-484.326
-742.547
-530.774
-834.341
-743.67
-530.494
-1388.94
-1461.38
-1392.11
-1457.44
-841.835
-489.748
-751.182
-537.968
-843.788
-750.611
-536.404
-201.972
-201.585
-195.543
-197.303
-882.242
-876.975
-870.032
-868.743
-883.546
-881.407
-893.868
-888.609
-203.302
-204.702
-209.158
-209.008
-184.753
-187.377
-193.949
-193.152
-851.726
-851.374
-868.53
-862.622
-796.848
-710.453
-454.734
-502.36
-800.067
-709.142
-500.2
-782.64
-443.985
-691.572
-486.699
-693.445
-487.241
-779.588
-849.762
-842.954
-826.206
-827.523
-182.593
-180.884
-169.41
-173.582
-752.329
-416.312
-658.201
-457.895
-746.613
-661.131
-459.785
-771.161
-432.624
-686.421
-481.326
-775.642
-684.397
-478.386
-144.676
-136.252
-183.863
-174.93
-783.98
-772.702
-726.509
-737.228
-787.685
-792.133
-823.481
-815.079
-146.469
-153.922
-166.44
-162.623
-536.462
-473.559
-209.622
-225.524
-825.756
-791.047
-720.674
-702.386
-849.235
-808.357
-806.36
-738.881
-750.182
-866.94
-821.26
-991.12
-992.294
-975.142
-953.733
-1031.78
-1075.18
-1011.59
-1069.4
-939.395
-779.521
-932.069
-905.955
-869.929
-897.699
-945.633
-857.111
-897.523
-612.545
-708.172
-1068.38
-1037
-1020.59
-787.482
-912.608
-1066.34
-1014.39
-960.584
-809.212
-927.577
-907.163
-506.101
-579.041
-808.558
-908.743
-572.575
-803.223
-913.692
-535.445
-579.323
-809.381
-913.871
-584.537
-815.097
-900.331
-538.927
-593.617
-809.015
-903.662
-587.051
-804.457
-912.811
-559.166
-597.927
-812.831
-909.868
-600.252
-817.43
-868.776
-509.714
-558.127
-774.028
-868.479
-556.253
-774.167
-865.949
-508.945
-556.747
-772.537
-867.349
-554.887
-772.137
-855.819
-501.072
-549.762
-763.598
-857.245
-547.225
-762.601
-859.629
-504.651
-551.531
-765.199
-859.073
-550.37
-766.033
-828.785
-480.93
-526.605
-736.81
-827.823
-525.268
-737.448
-823.675
-476.971
-524.105
-734.277
-825.679
-521.887
-733.427
-807.086
-464.079
-511.107
-719.223
-809.721
-508.834
-718.188
-814.126
-469.777
-514.518
-722.741
-812.483
-513.39
-723.666
-732.652
-394.8
-438.527
-634.927
-723.739
-440.127
-638.811
-710.807
-378.86
-431.08
-624.467
-720.581
-428.059
-621.129
-617.382
-571.866
-511.012
-629.886
-649.532
-563.681
-677.817
-676.494
-448.037
-475.3
-598.928
-652.039
-443.749
-583.538
-212.019
-214.456
-101.344
-425.529
-292.055
-1.92254
-94.5695
7.76341
-288.882
-419.57
-282.151
-91.9488
8.64031
-162.506
156.444
158.138
-160.676
-413.925
-968.605
-415.386
-970.041
-163.465
135.563
150.157
-168.244
-412.496
-972.946
-412.622
-971.628
-227.266
-236.337
-111.42
-306.791
-429.069
-15.9414
-298.096
-4.71123
-122.696
-107.892
4.55532
-290.114
-423.9
-291.682
-102.914
1.13487
-160.473
165.429
167.773
-160.281
-162.315
-410.484
-973.594
-411.286
-972.805
-1374.81
-1207.27
-1351.88
-943.273
-943.184
-1350.13
-1374.63
-1210.28
-1205.9
-1357.71
-1629.6
-1613.09
-1639.38
-1657.11
-1672.08
-1674.71
-1664.6
-962.455
-965.232
-1204.93
-1372.05
-1342.28
-1207.42
-1350.18
-1359.57
-1208.5
-1378.32
-1211.74
-1353.99
-261.821
-254.374
-123.706
-298.09
-423.932
-13.4922
-298.244
-16.0232
-117.971
-130.044
-29.4833
-312.904
-429.576
-304.048
-137.891
-22.1796
-169.188
115.496
123.552
-169.441
-415.587
-966.068
-417.302
-963.034
-169.977
124.066
-169.273
126.668
-415.46
-958.528
-414.432
-960.465
-271.785
-272.624
-142.006
-313.968
-438.018
-25.4698
-313.866
-136.866
-30.4009
-144.962
-34.6191
-316.913
-438.935
-315.509
-145.839
-32.7457
-163.644
119.694
130.939
-167.571
-406.623
-950.511
-405.222
-952.001
-161.84
129.344
134.252
-160.059
-408.851
-956.46
-412.419
-953.482
-1178.2
-1340.2
-1313.47
-1178.6
-1313.95
-951.58
-945.668
-1313.6
-1341.27
-1182.35
-1179.67
-1313.82
-1593.96
-1603.52
-1587.55
-1586.81
-1591.97
-1595.82
-1591.1
-1585.96
-962.523
-962.564
-1199.54
-1356.64
-1336.28
-1195.65
-1328.11
-1318.81
-1185.92
-1350.12
-1190.55
-1321.8
-888.623
-519.964
-792.382
-572.262
-888.442
-791.86
-569.666
-886.643
-523.425
-790.775
-570.752
-888.069
-791.351
-570.165
-1176.7
-1314.69
-1339.65
-1176.3
-1314.49
-935.439
-935.349
-1309.11
-1337.05
-1173.82
-1174.11
-1314.03
-1581.46
-1576.37
-1584.75
-1589.7
-1598.03
-1596.9
-1596.74
-1592.93
-938.523
-935.282
-1167.36
-1330.02
-1302.47
-1168.61
-1306.72
-1310.16
-1171.19
-1333.82
-1171.37
-1307.22
-229.835
-229.531
-104.739
-292.359
-6.81291
-414.404
-110.303
-286.396
-1.3994
-105.111
-2.78641
-288.871
-412.629
-283.989
-106.246
0.882322
-152.115
132.793
140.508
-153.434
-396.101
-938.624
-395.895
-939.934
-151.597
132.242
140.467
-152.574
-396.592
-943.51
-398.689
-941.271
-233.636
-234.571
-106.966
-289.092
-411.548
-5.14355
-285.349
-1.3311
-109.095
-108.713
-2.92942
-288.434
-411.936
-285.058
-109.551
-1.77497
-153.611
135.775
143.76
-153.98
-400.156
-949.309
-403.155
-947.068
-154.74
132.923
-158.097
143.296
-399.13
-944.839
-398.795
-945.936
-874.543
-515.406
-781.442
-565.867
-876.225
-779.764
-562.578
-879.85
-522.027
-783.448
-568.181
-878.89
-784.892
-567.569
-225.043
-224.367
-98.836
-279.671
-400.589
2.43162
-275.676
4.72528
-100.814
-100.845
1.36395
-279.386
-400.1
-274.991
-102.452
5.05484
-141.305
132.954
141.566
-143.112
-381.313
-916.488
-381.074
-917.435
-140.668
135.327
142.777
-141.098
-381.977
-920.318
-384.128
-918.316
-225.687
-225.222
-98.3608
-276.359
-397.291
3.87185
-273.541
6.14571
-98.8302
-101.271
2.08388
-278.778
-398.652
-274.239
-103.222
4.56032
-143.065
133.819
141.963
-143.733
-385.049
-925.606
-387.217
-923.658
-143.605
134.528
143.069
-145.492
-384.722
-921.602
-384.59
-922.591
-1151.28
-1311.65
-1287.09
-1150.63
-1286.43
-916.416
-916.064
-1281.36
-1309.36
-1147.71
-1148.72
-1284.8
-1551.08
-1548.4
-1621.21
-1629.57
-1419.76
-1505.47
-1631.85
-1508.05
-1619.07
-1623.08
-1511
-1635.21
-1422.27
-1634.06
-1624.68
-1509.18
-1552.73
-1554.88
-1631.6
-1642.64
-1428.92
-1518.3
-1642.24
-1517.23
-1632.63
-1561.34
-1562.17
-1629.53
-1512.62
-1426.86
-1637.86
-1640.27
-1515.39
-1627.01
-1559.57
-1556.85
-916.556
-913.426
-1142.93
-1303.51
-1276.55
-1143.65
-1279.64
-1280.78
-1145.64
-1305.97
-1145.46
-1279.57
-923.924
-920.854
-1152.59
-1313.69
-1287.12
-1152.96
-1288.43
-1288.69
-1154.76
-1314.76
-1153.88
-1288.82
-1569.5
-1572.72
-1640.54
-1654
-1530.38
-1439.44
-1643.97
-1651.32
-1526.94
-1637.42
-1521.39
-1435.99
-1645.88
-1648.1
-1524.04
-1635
-1566.34
-1564.58
-927.169
-927.048
-1163.97
-1299.8
-1323.06
-1161.99
-1296.58
-1290.5
-1156.95
-1319.27
-1158.92
-1293.8
-1633.73
-1643.76
-1431.18
-1518.65
-1644.32
-1633.2
-1519.52
-1563.16
-1562.88
-1633.83
-1520.04
-1432.11
-1644.25
-1644.7
-1519.9
-1633.94
-1563.88
-1563.19
-234.72
-232.01
-104.27
-281.574
-404.078
0.00231538
-279.445
-102.823
0.847977
-108.468
-6.36892
-287.541
-406.734
-281.668
-112.403
-2.23199
-150.5
127.533
135.535
-151.011
-393.738
-937.127
-395.783
-934.8
-151.006
130.129
-152.151
137.364
-393.547
-932.16
-393.18
-933.37
-237.72
-238.023
-111.427
-289.451
-5.7969
-411.018
-111.412
-286.331
-5.52488
-113.846
-8.7852
-289.444
-410.71
-286.015
-114.772
-5.81664
-147.523
128.618
138.24
-150.071
-388.565
-926.657
-387.996
-927.66
-146.589
133.866
-146.349
140.408
-389.724
-930.91
-392.308
-928.723
-221.574
-219.954
-93.7311
-269.97
-390.343
8.60184
-267.46
10.1528
-93.2175
-97.2543
4.53327
-274.028
-392.283
-268.869
-100.193
7.8658
-138.576
133.183
141.3
-139.236
-378.587
-915.234
-380.575
-913.285
-138.98
134.823
-140.489
142.728
-378.506
-911.617
-378.439
-912.415
-222.866
-222.797
-97.8303
-275.635
-395.336
4.7603
-271.994
-98.8316
6.12906
-100
2.93414
-275.289
-394.924
-271.46
-101.162
6.15084
-136.453
133.424
142.448
-138.575
-374.787
-906.888
-374.483
-907.748
-135.744
137.216
144.235
-135.916
-375.662
-910.614
-377.913
-908.697
-1131.36
-1291.14
-1264.58
-1131.8
-1266.35
-905.292
-902.479
-1266.77
-1292.51
-1133.33
-1132.88
-1266.65
-1544.26
-1546.31
-1614.49
-1626.81
-1414.66
-1503.48
-1625.36
-1616.65
-1501.25
-1612.04
-1496.51
-1620.73
-1411.98
-1622.88
-1609.77
-1499.07
-1542.04
-1539.87
-1606.75
-1616.12
-1406.69
-1492.28
-1617.41
-1493.75
-1605.63
-1536.81
-1535.44
-1607.61
-1495.21
-1408.15
-1618.77
-1618.53
-1494.45
-1608.26
-1537.81
-1538.45
-906.831
-906.497
-1140.48
-1299.15
-1275.11
-1139.16
-1273.17
-1267.81
-1135.29
-1296.08
-1136.69
-1271.23
-850.482
-497.003
-757.097
-544.002
-850.057
-757.49
-542.426
-847.131
-494.89
-755.469
-542.424
-848.607
-754.796
-540.242
-1129.73
-1264.06
-1288.36
-1128.91
-1262.94
-897.822
-897.626
-1257.81
-1285.79
-1125.65
-1126.81
-1261.17
-1523.68
-1521.34
-1593.33
-1601.92
-1394.42
-1478.87
-1603.84
-1481.18
-1591.53
-1525.01
-1526.68
-1594.88
-1483.62
-1606.53
-1396.66
-1605.71
-1596.13
-1482.17
-1602.85
-1614.34
-1491.31
-1403.34
-1604.31
-1613.47
-1489.82
-1532.85
-1534.26
-1530.96
-1528.37
-1600.61
-1485.14
-1401.03
-1608.96
-1611.28
-1487.87
-1598.18
-897.304
-894.132
-1120.99
-1280
-1253.18
-1121.54
-1255.96
-1256.95
-1123.54
-1282.21
-1123.24
-1256.06
-215.932
-215.434
-90.8953
-268.777
10.1865
-387.88
-92.2312
-265.063
11.9242
-93.0767
8.42147
-268.733
-387.538
-264.595
-94.5708
11.9646
-131.412
135.52
144.217
-133.323
-368.254
-897.156
-367.954
-898.08
-130.708
138.686
145.844
-130.972
-369.048
-900.921
-371.21
-898.976
-215.776
-214.832
-88.9854
-264.546
-383.941
12.4329
-262.015
14.2749
-88.8692
-92.3107
9.4819
-267.895
-385.627
-263.067
-94.641
12.3021
-133.224
135.923
144.057
-133.971
-371.964
-905.892
-373.935
-904.005
-133.665
137.295
-135.255
145.434
-371.748
-902.076
-371.694
-902.981
-836.234
-486.529
-745.664
-534.11
-837.929
-744.796
-531.736
-840.565
-490.082
-747.741
-536.194
-839.838
-748.374
-534.881
-203.048
-202.973
-80.2134
-256.087
-373.127
19.2149
-252.234
20.9072
-81.7964
-82.0722
17.843
-255.231
-372.421
-251.366
-83.1674
21.3064
-119.801
138.517
146.962
-121.825
-352.675
-873.324
-351.933
-874.867
-118.811
141.589
148.592
-118.856
-353.765
-878.699
-356.222
-876.316
-202.621
-201.112
-76.7954
-249.438
-367.304
22.9923
-247.19
24.6711
-75.9219
-80.2057
19.4016
-253.793
-369.452
-248.894
-83.0286
22.2119
-122.099
139.064
147.067
-122.7
-357.536
-884.967
-359.784
-882.606
-122.738
140.396
148.311
-124.399
-357.136
-880.096
-356.841
-881.288
-1105.36
-1262.1
-1238.47
-1104.3
-1236.28
-875.175
-875.878
-1230.03
-1258.39
-1099.85
-1101.26
-1234.28
-1488.63
-1485.4
-1490.43
-1492.99
-1501.06
-1503.43
-1498.67
-1495.13
-874.291
-870.253
-1092.71
-1250.02
-1222.93
-1093.52
-1226.36
-1228.85
-1096.72
-1253.3
-1096.1
-1226.92
-886.363
-882.907
-1107.98
-1266.13
-1239.28
-1108.54
-1242.11
-1243.46
-1110.9
-1268.59
-1110.46
-1242.38
-1517.46
-1519.58
-1587.38
-1599.35
-1477.27
-1389.71
-1589.41
-1597.97
-1475.1
-1584.71
-1469.77
-1386.79
-1592.79
-1595.3
-1472.84
-1582.06
-1515.26
-1512.41
-887.337
-887.627
-1118.59
-1252.22
-1276.1
-1117.5
-1250.24
-1244.49
-1113.46
-1272.76
-1114.78
-1248.33
-1507.54
-1505.18
-1508.96
-1510.66
-209.932
-208.528
-83.3655
-257.548
-376.233
17.4475
-255.178
-82.8323
19.1077
-86.8657
13.7764
-261.612
-378.223
-256.604
-89.6037
16.8046
-128.166
137.187
145.19
-128.787
-365.366
-896.084
-367.413
-894.061
-128.695
138.487
-130.284
146.461
-365.076
-891.925
-364.872
-892.942
-210.665
-210.564
-86.904
-263.439
13.8119
-381.417
-88.2359
-259.681
15.4182
-88.9041
12.2871
-262.873
-380.892
-259.003
-90.0513
15.6217
-125.962
137.003
145.737
-128.016
-361.006
-886.27
-360.483
-887.474
-125.123
140.518
-125.233
147.507
-361.975
-890.73
-364.307
-888.631
-193.227
-191.104
-68.1005
-238.566
-355.846
30.3963
-236.579
31.7866
-66.516
-71.4678
26.1442
-243.857
-358.28
-238.942
-74.7805
29.0122
-115.254
139.623
147.747
-115.75
-348.663
-871.71
-351.08
-869.092
-116.115
141.277
-117.824
148.921
-348.054
-865.734
-347.452
-867.423
-193.745
-194.111
-72.7501
-247.568
-363.329
25.0857
-243.536
-74.6921
26.8672
-74.2524
24.2872
-245.855
-362.284
-242.223
-74.9845
27.6428
-112.593
138.713
146.731
-114.634
-342.677
-857.394
-341.72
-859.303
-111.363
140.92
148.153
-111.349
-343.97
-863.905
-346.618
-861.151
-1072.32
-1228.74
-1201.52
-1073.43
-1205.74
-858.189
-853.131
-1209.46
-1233.16
-1077.93
-1076.96
-1206.42
-1480.17
-1483.27
-1477.2
-1472.66
-1458.6
-1450.61
-1464.26
-1469.38
-859.388
-861.056
-1089.27
-1244.7
-1221.8
-1087.9
-1218.72
-1211.07
-1082.14
-1239.9
-1083.92
-1216.33
-794.538
-453.977
-703.536
-497.83
-791.932
-704.882
-497.04
-785.096
-445.936
-698.705
-493.235
-788.633
-697.466
-490.91
-1067.88
-1200.4
-1222.25
-1066.17
-1196.65
-837.684
-840.689
-1186.05
-1216.05
-1058.39
-1060.85
-1193.31
-1421.55
-1416.77
-1424.11
-1427.57
-1438.39
-1445.12
-1434.6
-1429.4
-836.194
-829.427
-1044.53
-1200.46
-1172.32
-1046.27
-1178.17
-1183.69
-1052.58
-1206.5
-1051.15
-1179.31
-180.236
-181.262
-62.0413
-235.943
32.8756
-350.476
-64.6954
-231.593
35.1567
-62.9526
33.3184
-233.001
-349.14
-229.673
-63.294
36.2412
-105.221
135.419
142.158
-106.826
-332.334
-841.116
-331.885
-842.487
-103.906
134.472
142.805
-104.312
-333.686
-846.916
-335.955
-844.437
-180.082
-177.004
-56.1995
-223.877
-341.654
40.3164
-222.41
40.4575
-53.6562
-59.516
34.6715
-230.438
-344.076
-225.566
-63.3198
38.0161
-107.353
137.468
146.241
-108.013
-338.069
-855.252
-340.555
-852.458
-108.398
140.322
-110.06
147.403
-337.355
-848.919
-336.81
-850.673
-754.759
-418.006
-669.188
-467.706
-759.987
-667.427
-465.095
-768.287
-430.752
-676.253
-473.871
-763.739
-678.432
-473.885
-136.135
-139.849
-36.6616
-200.807
-316.632
17.8039
-195.575
19.9691
-38.9086
-40.6845
-5.16153
-199.094
-317.506
-193.611
-51.6093
9.46908
-130.513
60.9307
50.1082
-120.388
-350.652
-859.408
-362.801
-849.489
-137.102
8.36814
34.3707
-154.244
-347.403
-840.929
-339.864
-846.919
-153.085
-153.147
-92.813
-229.576
-319.133
-72.0951
-211.701
-50.2319
-111.927
-75.9377
-24.3132
-201.781
-313.87
-204.3
-67.9402
-31.3816
-108.51
76.0494
94.2387
-116.182
-331.411
-833.188
-329.33
-834.954
-107.56
101.873
100.611
-104.879
-331.741
-839.723
-337.697
-835.274
-996.802
-1146.25
-1128.48
-993.228
-1120.7
-757.986
-768.078
-1102.14
-1134.95
-978.083
-983.199
-1115.16
-1331.98
-1317.93
-1340.33
-1351.03
-1363.32
-1369.91
-1361.88
-1354.45
-755.685
-739.292
-944.897
-1097.74
-1065.76
-949.294
-1078.73
-1096.6
-965.927
-1111.83
-961.343
-1083.21
-804.17
-794.14
-1005.06
-1159.87
-1130.89
-1007.62
-1138.58
-1148.15
-1017.47
-1168.39
-1014.93
-1140.53
-1411.7
-1415.23
-1410.47
-1404.92
-806.148
-811.877
-1038.57
-1170.44
-1190.69
-1036.08
-1164.87
-1151.66
-1025.55
-1182.37
-1028.94
-1160.68
-1385.49
-1374.82
-1392.59
-1401.4
-160.736
-155.471
-41.6583
-204.787
-325.738
27.9251
-203.748
-39.8014
33.6089
-43.9288
34.254
-212.236
-327.108
-207.573
-47.898
39.1011
-101.099
125.113
136.078
-102.847
-329.147
-839.338
-330.811
-837.385
-102.123
132.775
-103.089
137.976
-328.344
-835.373
-329.107
-835.775
-159.593
-162.43
-46.9984
-220.256
40.9477
-334.424
-50.8477
-215.298
45.3591
-46.8938
42.2386
-215.346
-333.201
-212.432
-46.799
44.2841
-102.547
119.846
122.452
-102.226
-327.597
-833.656
-329.722
-832.378
-101.893
107.795
-104.678
119.847
-328.385
-833.943
-328.654
-833.315
-352.55
-402.034
-410.76
-586.305
-504.637
-481.207
-505.79
-389.699
-489.54
-332.626
-251.897
-385.129
-442.005
-441.04
-280.765
-309.011
-211.986
-117.032
-70.5433
-251.408
-386.238
-864.128
-368.907
-878.359
-190.891
-14.1731
-167.034
-39.3985
-399.297
-909.06
-428.038
-886.177
-293.853
-259.177
-149.828
-246.534
-323.768
-98.4598
-266.372
-133.244
-116.125
-180.297
-194.347
-339.603
-343.743
-294.107
-223.248
-149.789
-351.821
-168.556
-236.293
-289.528
-558.456
-1045.94
-633.563
-985.863
-420.268
-433.716
-326.814
-520.648
-501.756
-923.83
-455.759
-959.762
-947.492
-973.541
-987.297
-910.076
-981.709
-716.333
-746.98
-1004.6
-1006.86
-876.59
-898.877
-974.452
-1299.87
-1310
-1295.14
-1281.77
-1220.11
-1192.02
-1247.59
-1270.03
-675.915
-694.819
-930.311
-1072.47
-1061.53
-924.936
-1046.99
-1014.47
-900.062
-1050.89
-906.385
-1037.99
-873.723
-863.43
-919.895
-939.154
-919.181
-899.74
-898.388
-1123.18
-1112.57
-1131.26
-1095.57
-1157.77
-1122.63
-1141.06
-1102.66
-1063.03
-1135.14
-995.314
-1018.44
-1030.03
-932.089
-876.556
-941.634
-946.02
-1019.56
-1014
-950.331
-904.257
-972.311
-1048.09
-1034.14
-982.987
-909.489
-967.306
-898.642
-1026.97
-877.461
-961.988
-947.982
-952.931
-903.527
-958.393
-986.703
-997.244
-986.72
-975.37
-936.994
-922.381
-886.094
-966.727
-979.435
-984.455
-938.375
-1058.21
-973.593
-894.806
-898.212
-1007.7
-1032.65
-1111.54
-1153.97
-1060.47
-968.894
-910.305
-838.144
-925.228
-926.16
-788.234
-697.725
-681.787
-588.683
-778.81
-579.861
-781.363
-708.343
-813.005
-982.993
-958.752
-870.901
-906.43
-978.843
-855.943
-1084.69
-1141.19
-911.327
-830.017
-952.862
-1094.25
-1002.98
-1037.05
-1066.11
-1213.35
-996.094
-1184.84
-1013.43
-1032.41
-925.376
-1020.87
-856.21
-1041.93
-851.944
-1091.03
-727.719
-1179.85
-773.396
-550.851
-626.646
-696.021
-980.193
-1093.88
-1062.96
-1236.04
-1504.9
-1683.79
-1564.56
-1522.67
-1494.25
-1581.6
-1511.35
-1700.44
-1532.08
-1591.81
-1473.89
-1624.69
-1546.69
-1482.81
-1535.61
-1467.12
-1532.99
-1623.11
-1531.61
-1465.4
-1366.57
-1431.37
-1362.4
-1435.74
-1372.28
-1445.43
-1375.97
-1440.97
-1351.06
-1425.59
-1355.94
-1419.73
-1343.8
-1407.05
-1412.89
-1338.27
-1232.82
-1276.47
-1216.77
-1293.61
-1247.03
-1323.39
-1258.6
-1310.01
-1160.43
-1253.99
-1192.48
-1223.94
-1111.09
-1129.52
-1177.89
-1061.52
-1455.47
-1520.46
-1526.51
-1451.14
-1460.26
-1533.59
-1461.97
-1531.84
-1384.25
-1449.87
-1381.05
-1453.17
-1314.75
-1375.75
-1383.41
-1307.65
-1323.76
-1399.79
-1330.25
-1392.23
-1289.38
-1366.47
-1297.91
-1356.6
-1278.92
-1335.03
-1269.74
-1345.32
-1701.29
-1698.97
-1492.42
-1574.92
-1712.49
-1586.7
-1689.53
-1714.88
-1606.27
-1737.35
-1502.67
-1725.57
-1724.99
-1595.81
-1737.15
-1512.53
-1750.38
-1613.24
-1738.85
-1609.76
-1514.37
-1747.04
-1752.28
-1615.21
-1734.59
-1668.25
-1686.54
-1469.91
-1565.15
-1678.02
-1677.24
-1556.41
-1661.99
-1547.51
-1668.73
-1463.16
-1671.46
-1659
-1550.4
-1663.94
-1676.17
-1459.07
-1549.91
-1673.63
-1548.74
-1665.72
-1661.11
-1545.86
-1458.6
-1668.16
-1671.3
-1547.41
-1659.39
-1652.16
-1658.58
-1447.91
-1533.92
-1662.83
-1538.29
-1648.2
-1656.19
-1544.65
-1670.2
-1452.19
-1667.14
-1659.61
-1540.8
-1668.15
-1677.34
-1551.54
-1460.44
-1667.73
-1678.7
-1551.65
-1666.56
-1546.72
-1458.63
-1674.38
-1677.27
-1550.33
-1663.45
-1557.71
-1565.38
-1361.85
-1444.02
-1567.81
-1447.23
-1555.3
-1560.03
-1451.07
-1571.88
-1365.12
-1570.5
-1561.91
-1448.73
-1570.82
-1582.65
-1374.51
-1461.51
-1581.16
-1459.13
-1572.95
-1567.81
-1453.07
-1371.17
-1575.21
-1578.13
-1456.69
-1564.73
-1576.92
-1585.37
-1379.49
-1463.03
-1587.32
-1575.11
-1465.4
-1578.55
-1468.11
-1381.9
-1590.12
-1589.26
-1466.52
-1579.87
-1549.69
-1561.78
-1355.28
-1441.98
-1559.69
-1552.41
-1438.75
-1545.84
-1431.18
-1552.06
-1350.98
-1555.83
-1541.98
-1435.68
-1531.26
-1539.21
-1338.63
-1419.06
-1542.17
-1423.36
-1527.09
-1534.98
-1428.61
-1343
-1547.76
-1545.67
-1425.4
-1538.21
-1496.91
-1504.97
-1308.38
-1386.13
-1509.22
-1392
-1493.33
-1501.25
-1398.93
-1517.33
-1313.46
-1514.12
-1504.29
-1394.88
-1518.84
-1534.65
-1416.72
-1330.47
-1522.83
-1531.81
-1412.92
-1513.79
-1402.58
-1324.54
-1522.54
-1527.05
-1408.96
-1508.93
-1393.92
-1399.07
-1206.86
-1278.27
-1407.97
-1290.06
-1384.26
-1403.98
-1307.56
-1424.9
-1219.63
-1417.21
-1413.13
-1296.29
-1437.35
-1454.13
-1253.64
-1338.21
-1449.44
-1330.76
-1442.44
-1430.12
-1314.28
-1243.16
-1434.24
-1441.97
-1325.23
-1422.33
-1485.01
-1498.94
-1382.96
-1297.9
-1488.73
-1495.6
-1377.35
-1479.63
-1364.9
-1289.88
-1484.48
-1489.78
-1372.83
-1473.89
-1454.66
-1460.92
-1266.9
-1341.66
-1466.39
-1448.74
-1349.35
-1461.54
-1360.17
-1274.75
-1477.46
-1472.86
-1353.19
-1467.34
-1365.03
-1388.06
-1181.25
-1273.01
-1379.29
-1374.61
-1260.31
-1352.42
-1231.92
-1350.48
-1159.86
-1364.9
-1337.12
-1251.72
-1267.67
-1260.82
-1078.48
-1156.75
-1277.84
-1180.65
-1242.2
-1295.27
-1220.3
-1112.19
-1325.26
-1308.75
-1196.09
-1317.26
-1178.45
-1218.62
-1136.29
-1044.26
-1206.81
-1207.63
-1107.58
-1118.35
-984.269
-1011.75
-1104.28
-1157.03
-1055.61
-1063.15
)
;

boundaryField
{
    left
    {
        type            calculated;
        value           nonuniform List<scalar> 0();
    }
    bottom
    {
        type            calculated;
        value           nonuniform List<scalar> 
243
(
-1406.77
-1388.91
-1328.38
-1321.16
-1265.76
-1254.42
-1146.1
-1121.45
-1359.35
-1350
-1300.4
-1292.77
-1211.98
-1195.71
-1109.4
-1115.55
-1419.16
-1376.53
-1090.56
-1101.29
-1049.16
-1054.77
-1335.37
-1314.25
-1037.6
-1043.39
-998.13
-1006.17
-1275.76
-1241.67
-978.792
-988.983
-911.384
-920.152
-1163.59
-1074.77
-922.286
-905.935
-833.929
-1074.42
-1081.39
-1368.27
-815.558
-808.478
-834.024
-822.033
-794.608
-788.787
-806.001
-798.06
-1342.16
-1060.85
-1067.66
-1026.26
-1031.99
-1307.5
-776.788
-770.723
-786.201
-779.642
-757.081
-748.555
-767.773
-760.596
-1284.64
-1013.41
-1020.07
-955.471
-967.533
-1227.46
-728.277
-716.737
-744.146
-733.598
-699.473
-708.349
-711.123
-702.914
-1179.42
-931.036
-942.953
-951.705
-980.78
-715.711
-847.067
-908.402
-833.457
-831.155
-812.895
-809.686
-833.063
-827.271
-793.057
-790.483
-804.351
-800.767
-775.346
-772.66
-784.644
-781.733
-755.083
-751.245
-766.102
-762.901
-725.39
-719.909
-741.615
-736.792
-701.097
-701.689
-708.893
-704.271
-927.671
-940.253
-1066.36
-913.726
-737.221
-778.217
-997.811
-1064.05
-1052.17
-1016.91
-1027.15
-832.924
-796.491
-1328.49
-1328.6
-1324.79
-1323.58
-1327.92
-1327.13
-1296.13
-1294.89
-1299.51
-1297.34
-1289.2
-1287.74
-1293.18
-1291.15
-1314.41
-1311.91
-1320.33
-1317.45
-1303.35
-1301.56