/*--------------------------------*- C++ -*----------------------------------*\
| =========                 |                                                 |
| \\      /  F ield         | OpenFOAM: The Open Source CFD Toolbox           |
|  \\    /   O peration     | Version:  2012                                  |
|   \\  /    A nd           | Website:  www.openfoam.com                      |
|    \\/     M anipulation  |                                                 |
\*---------------------------------------------------------------------------*/
FoamFile
{
    version     2.0;
    format      ascii;
    class       volSymmTensorField;
    location    "0.105/solid";
    object      sigma;
}
// * * * * * * * * * * * * * * * * * * * * * * * * * * * * * * * * * * * * * //

dimensions      [1 -1 -2 0 0 0 0];


internalField   nonuniform List<symmTensor> 
3125
(
(415.221 189.885 -5.04928 1452.79 -4.03007 554.787)
(411.429 183.178 -3.79539 1433.54 -5.45695 550.96)
(385.619 171.589 -1.06417 1379.68 -4.93259 529.236)
(382.891 170.27 -0.977848 1372.87 -4.925 526.419)
(361.193 161.603 -1.35444 1320.66 -5.83385 504.149)
(356.665 159.641 -1.66002 1309.84 -5.80348 500.169)
(307.04 147.028 -8.02006 1188.55 46.5877 492.805)
(296.334 152.868 -15.1802 1138.73 74.5865 500.696)
(397.807 177.654 -1.69065 1408.03 -5.52044 541.267)
(394.66 175.466 -1.3941 1398.97 -5.46362 537.919)
(374.615 166.898 -0.897769 1353.7 -5.01641 517.866)
(371.694 165.749 -0.911714 1346.42 -5.24679 514.778)
(338.709 151.961 -2.5189 1268.7 -1.05241 488.383)
(331.264 149.243 -2.89874 1252.25 4.03855 485.967)
(421.389 193.678 -0.457061 1464.42 2.44439 554.524)
(156.476 393.895 -6.66685 874.277 1.34912 304.997)
(648.804 -49.2849 -10.7883 1656.06 -17.4121 684.808)
(360.258 50.571 -8.09121 533.95 0.0746287 259.305)
(159.14 396.283 3.1366 878.355 1.22401 304.336)
(349.974 49.0506 -0.606724 519.598 -3.0292 257.446)
(163.497 381.26 -4.96058 877.298 -2.89542 307.144)
(643.762 -52.9309 -7.85204 1633.76 -12.2494 681.942)
(406.693 180.367 -0.919199 1421.98 -4.71609 547.572)
(633.438 -50.6015 -0.687915 1624.08 3.24504 674.536)
(378.532 45.1749 -6.0263 550.021 -0.366026 273.748)
(159.458 378.872 0.177176 867.24 -6.17742 306.476)
(332.253 47.7627 -0.884602 500.656 -1.66235 249.543)
(388.376 172.94 -0.952775 1386.01 -4.82665 532.079)
(142.041 370.861 -1.45982 831.06 -4.40234 292.074)
(329.768 46.7499 -2.27413 497.166 -1.77535 248.068)
(143.647 372.669 -1.34195 835.149 -4.40805 294.144)
(322.573 46.4375 -1.99397 488.931 -1.69254 242.902)
(140.692 368.899 -1.52545 826.827 -4.33831 290.265)
(380.104 169.151 -0.834498 1366.48 -4.77559 523.634)
(329.535 46.5668 -1.05629 496.622 -1.63751 247.999)
(138.634 367.596 -1.00695 821.898 -4.55985 288.247)
(309.271 45.1172 -0.983377 473.501 -1.62505 234.331)
(365.094 163.234 -1.14251 1330.15 -5.67091 507.934)
(125.505 357.926 -1.73619 789.021 -5.31852 274.407)
(301.572 44.5316 -2.23029 464.547 -1.99552 230.569)
(128.114 359.996 -1.79721 795.704 -4.98007 277.026)
(289.683 43.6101 -1.94757 450.954 -1.72956 228.532)
(122.502 355.606 -2.24415 781.367 -5.02528 271.878)
(351.391 157.34 -1.91448 1297.53 -5.24876 495.98)
(300.665 44.2723 -1.17453 463.541 -1.78271 230.614)
(119.093 352.954 -2.14157 772.669 -4.65894 269.264)
(240.746 41.6721 8.06664 397.037 8.0926 267.161)
(315.093 145.936 -4.76739 1214.79 26.3116 487.473)
(89.5236 343.08 -3.54879 687.241 55.3369 290.74)
(197.627 43.6532 16.0869 348.863 21.2195 360.769)
(95.5227 342.428 -1.95113 709.027 29.9033 275.715)
(104.503 36.4569 -10.0119 238.284 0.876868 680.266)
(81.0022 346.409 -9.56316 646.234 96.9507 322.555)
(271.944 177.561 -34.1784 1015.62 122.599 520.376)
(189.989 42.9791 18.2703 341.604 22.3432 386.696)
(83.4081 353.789 -30.8876 562.894 174.941 391.2)
(13.5295 556.481 -2.00044 425.569 2.84841 129.425)
(1160.89 -66.8774 -9.15214 1615.57 -10.922 825.536)
(18.854 549.573 -1.85138 432.83 -4.8289 133.203)
(15.0379 545.31 -0.624633 421.276 -3.64859 131.148)
(1145.15 -68.7174 -6.49608 1591.3 -6.92383 813.593)
(1139.99 -65.612 -0.99401 1588.66 3.12263 813.673)
(341.808 50.6633 0.241567 512.44 -2.49456 252.699)
(401.623 179.532 -0.929217 1415.85 -4.87639 544.568)
(149.276 378.666 -2.49328 850.327 -4.37391 300.151)
(342.608 48.0989 -3.18799 512.328 -1.77572 256.372)
(151.436 380.99 -0.794069 855.215 -5.07335 302.857)
(1126.2 -65.5817 -2.78014 1573.89 -3.12399 809.148)
(1140.92 -64.697 -1.63811 1592.35 1.35473 816.747)
(8.76729 542.815 -1.06226 409.108 -2.37986 125.796)
(10.1944 546.38 -0.673759 413.936 -8.83376 127.91)
(333.568 47.7835 -1.95307 501.685 -1.93205 250.13)
(391.439 174.065 -0.83951 1391.81 -4.94572 534.91)
(149.292 374.776 -2.11339 846.889 -4.6947 298.579)
(344.859 47.2141 -1.85469 513.789 -1.70689 258.106)
(146.737 373.347 -0.779163 840.878 -5.10317 296.544)
(3.8268 534.352 -0.763327 394.873 -2.12531 120.063)
(4.94166 537.322 -0.770531 399.058 -7.77629 121.838)
(1101.98 -64.9223 -1.62081 1545.14 -1.58438 793.848)
(1111.44 -64.8586 -1.53167 1556.94 -0.591842 800.14)
(1120.47 -65.7714 -2.28907 1566.01 -2.36108 805.153)
(1113.18 -65.036 -1.32458 1558.55 -0.101919 800.914)
(9.04836 540.583 -1.09033 408.937 -7.82168 125.698)
(6.70328 537.77 -0.664975 401.955 -2.68254 123.228)
(3.17402 533.209 -0.833309 393.476 -7.40219 119.386)
(1.33346 530.768 -0.676594 388.066 -2.19151 117.267)
(1098.56 -64.8739 -1.52416 1540.76 -1.4482 791.472)
(1090.78 -64.6214 -1.30432 1531.81 -0.787158 786.313)
(321.871 46.3463 -0.904871 488.275 -1.46666 242.62)
(377.366 168.054 -0.908907 1360.34 -4.8358 520.809)
(134.755 364.821 -1.25265 812.608 -4.58068 284.027)
(317.606 45.7244 -2.03256 483.061 -1.684 239.575)
(136.531 366.386 -1.42783 817.15 -4.26328 286.144)
(1079.51 -64.4985 -1.29924 1517.97 -1.24899 778.756)
(1088.35 -64.5746 -1.38193 1528.92 -0.98877 784.76)
(-1.16175 527.252 -0.74021 381.453 -2.32721 114.374)
(0.195102 530.011 -0.791186 386.058 -7.39404 116.285)
(310.15 45.2349 -2.06582 474.471 -1.78698 234.64)
(368.541 164.576 -0.927835 1338.62 -5.42269 511.47)
(132.829 363.233 -1.54012 807.532 -4.60795 281.886)
(316.976 45.6044 -0.885924 482.295 -1.53249 239.298)
(130.568 361.687 -1.30452 801.843 -5.02416 279.488)
(-7.30204 518.534 -1.02623 364.899 -3.24037 107.673)
(-5.34764 522.335 -0.994912 371.418 -8.10414 110.062)
(1050.35 -64.1656 -2.19195 1481.93 -1.36421 761.291)
(1062.91 -64.245 -1.60649 1497.37 -1.32478 768.135)
(1076.29 -64.4315 -1.31003 1513.9 -1.3196 776.603)
(1066.45 -64.2834 -1.41305 1501.8 -1.16549 770.238)
(-2.20442 526.301 -0.861274 379.562 -7.6287 113.456)
(-4.05756 523.402 -0.832544 373.776 -2.83309 111.166)
(-8.84888 517.11 -1.20443 362.067 -8.33774 106.468)
(-11.0846 512.133 -1.17783 354.142 -2.36238 104.219)
(1045.49 -64.1161 -2.48423 1475.92 -1.51093 759.08)
(288.356 43.2245 -0.813285 449.598 -1.3779 229.184)
(345.445 154.743 -2.25427 1283.87 -3.86928 491.983)
(111.088 347.178 -2.2685 751.851 -0.312181 265.582)
(272.659 42.5125 -0.068821 431.678 0.201256 233.618)
(115.239 350.162 -2.56771 762.792 -3.0002 267.175)
(-15.1016 504.485 -0.998195 342.491 3.18649 102.185)
(-12.9244 510.368 -1.32291 350.739 -6.68185 103.047)
(245.059 42.0609 5.82498 401.162 6.66149 260.077)
(323.286 147.021 -3.41412 1234.53 12.6773 485.35)
(106.405 344.669 -2.33167 739.441 5.19706 265.835)
(270.368 42.0384 1.41374 429.459 0.906388 235.81)
(101.429 342.698 -1.72189 725.672 14.2326 268.181)
(-19.4155 493.265 2.05935 334.932 78.7865 129.227)
(-20.7709 496.847 0.148135 331.036 25.5847 107.819)
(-17.2176 502.761 -1.03296 338.979 1.02998 101.679)
(-18.6444 497.615 0.0351432 333.355 21.8523 105.722)
(-20.8129 492.736 1.59253 336.278 101.78 142.524)
(11.3974 460.973 2.28595 361.054 287.005 259.48)
(88.3075 38.1328 -24.7301 216.465 -10.3797 738.27)
(136.455 436.49 -28.5363 364.191 367.018 375.247)
(75.7948 441.473 -6.60351 359.759 393.004 364.203)
(218.195 354.678 -33.0979 918.63 20.4205 881.254)
(163.315 449.747 -25.6167 222.052 344.881 560.73)
(164.301 233.478 -12.8671 1153.47 -4.83077 385.336)
(309.139 65.3027 -6.39824 484.204 1.45133 209.945)
(35.3081 276.091 -8.88451 676.507 1.49901 203.362)
(554.156 78.9914 -4.37807 1250.54 0.825919 525.266)
(163.583 228.478 -1.28562 1150.76 5.70892 384.375)
(336.195 55.7448 -7.77653 512.425 3.04716 233.639)
(50.2967 262.787 -21.2254 686.224 -0.980432 211.882)
(561.623 63.3264 -14.1654 1245.25 -6.1966 531.575)
(171.148 219.427 -26.1172 1149.88 -10.1266 387.078)
(38.3902 271.664 -2.31731 678.316 4.01745 204.855)
(556.007 71.7349 -13.6918 1249.47 -1.37487 527.844)
(175.966 209.845 10.744 1134.3 1.14731 388.962)
(549.293 61.9743 1.45231 1217.87 -1.53046 527.506)
(367.358 48.0859 0.718939 533.766 -4.2164 268.44)
(53.0791 254.011 -5.8096 675.774 -5.77986 218.225)
(62.954 250.646 8.5959 682.869 -4.89313 220.317)
(556.05 59.8453 0.123461 1220.25 -2.36966 529.293)
(169.511 212.463 -8.68889 1130.45 -9.90768 389.053)
(180.55 209.131 -15.7246 1141.17 -12.1412 389.396)
(381.45 44.2523 -1.27442 548.193 -4.31512 277.915)
(65.2398 253.506 -3.38957 691.802 -1.4032 217.974)
(564.059 58.4915 -11.2417 1235.42 -5.87785 531.382)
(177.93 212.406 -1.56762 1146.23 0.584865 388.036)
(69.8174 248.916 -12.1852 691.506 -6.2136 221.051)
(562.215 57.6367 -3.87866 1226.53 -5.73689 530.364)
(151.486 207.947 -12.7483 1099.06 -9.62993 375.554)
(527.823 60.211 -2.18075 1190.17 -1.55612 515.515)
(331.096 47.8592 -2.37194 497.774 -1.67867 248.556)
(36.0811 251.055 5.49948 650.439 -1.85604 207.522)
(152.017 208.468 8.60936 1100.79 2.63149 376.296)
(36.944 249.637 -10.4386 650.313 -3.77962 207.137)
(526.305 60.0287 -2.20001 1187.58 -2.86737 514.113)
(150.238 207.159 7.95951 1095.9 2.30698 373.468)
(332.586 47.143 -1.47215 499.052 -1.21535 249.837)
(35.1041 248.43 -9.69561 646.765 -4.44051 205.581)
(523.391 58.8886 -2.07137 1182.46 -3.11346 511.597)
(149.687 206.403 -12.5885 1094.07 -10.0187 373.353)
(36.4998 248.861 5.35875 648.106 -2.10334 205.804)
(524.824 59.6088 -2.75412 1184.59 -1.87773 512.64)
(146.277 204.933 8.73935 1084.76 2.30368 368.943)
(515.632 58.4583 -1.39322 1170.72 -2.458 505.704)
(326.865 46.7656 -0.929078 491.604 -1.50437 245.753)
(31.0669 246.532 -8.8075 638.493 -4.29736 201.92)
(33.8508 246.189 6.19388 640.453 -2.34558 202.582)
(517.481 58.887 -1.90305 1172.17 -1.65813 506.757)
(144.902 204.706 -11.6936 1083.11 -9.55048 368.762)
(148.126 205.274 -12.3455 1088.24 -9.9403 370.899)
(328.066 46.6946 -1.89588 492.923 -1.9729 246.456)
(34.4668 247.791 4.67288 644.13 -2.09009 204.418)
(521.484 58.753 -2.62311 1178.84 -2.41211 510.012)
(148.44 205.75 7.83357 1090.6 1.97032 371.548)
(35.658 246.24 -10.073 643.656 -4.15518 204.146)
(519.575 58.8649 -1.80468 1175.18 -3.17022 508.259)
(132.082 199.515 -12.766 1052.64 -10.2799 355.279)
(497.767 56.5291 -2.69072 1143.18 -2.31799 491.928)
(306.845 45.2929 -2.19793 468.954 -1.90883 232.701)
(20.421 242.327 4.51967 617.598 -2.35911 191.953)
(132.69 200.156 7.53128 1055.51 1.53628 355.94)
(21.3403 240.627 -10.5655 616.912 -4.36768 191.73)
(495.447 56.4163 -2.40208 1139.06 -3.39413 490.135)
(129.826 198.791 7.42041 1047.72 1.32615 352.746)
(307.153 44.7651 -1.31612 469.012 -1.49444 233.371)
(17.0711 239.858 -9.64124 610.549 -4.93687 189.709)
(490.057 55.5607 -2.38677 1131.48 -3.20851 487.203)
(128.302 198.159 -12.5776 1044.81 -10.4045 352.748)
(19.6707 240.138 4.989 612.901 -2.79778 189.993)
(492.767 56.2249 -2.83567 1134.62 -2.24056 488.403)
(121.524 195.653 6.56601 1029.13 1.26819 347.712)
(476.197 54.1255 -2.90765 1110.99 -3.01307 482.059)
(297.055 43.776 -1.35007 457.348 -1.48007 230.487)
(9.77292 236.576 -9.76807 596.179 -4.47974 187.236)
(12.7555 237.117 4.40021 599.136 -2.62137 186.8)
(479.976 54.8573 -3.46683 1115.42 -2.33112 482.725)
(119.389 194.897 -13.0492 1025.15 -9.92893 348.283)
(124.479 196.564 -13.3724 1035.46 -10.4237 350.086)
(296.66 44.5079 -2.30181 457.302 -1.94313 229.193)
(14.4309 239.654 3.9314 605.653 -2.62659 188.009)
(486.86 55.2985 -3.33449 1126.67 -2.6483 485.688)
(125.531 197.384 6.69636 1039.26 1.10033 350.329)
(14.957 237.724 -10.9749 604.416 -4.46032 188.246)
(483.633 55.0895 -3.04803 1121.31 -3.65503 484.095)
(78.9868 192.26 -14.1703 943.491 17.479 384.958)
(421.215 54.2979 -1.45312 1034.86 9.48226 514.209)
(219.952 43.9372 9.94543 374.241 13.9466 290.907)
(-23.4516 234.608 9.1084 538.244 17.5812 219.265)
(83.9167 190.839 6.36018 954.356 21.4868 372.247)
(-27.4535 234.717 -3.95068 531.455 22.0805 235.201)
(411.791 55.7069 -1.75166 1021.3 11.9978 529.618)
(73.8442 193.326 2.5698 928.352 35.8465 400.384)
(221.727 41.6955 12.5985 374.745 15.7352 309.512)
(-38.0468 237.346 -1.06905 508.185 38.9952 284.423)
(391.772 59.834 -5.24702 987.576 21.1407 578.82)
(68.5783 196.219 -19.0548 912.665 34.5942 422.688)
(-32.7512 236.229 9.06423 517.628 33.1667 254.932)
(402.357 57.779 -3.72463 1004.62 17.2374 550.86)
(54.3739 211.143 -34.1318 813.872 59.0806 545.227)
(337.394 80.5413 -55.4665 856.073 -14.6629 778.823)
(150.474 39.398 11.7728 296.657 22.9116 531.244)
(-55.2276 256.093 -29.1077 398.21 64.5403 575.062)
(-70.1043 255.076 -8.3817 417.431 71.8506 455.942)
(353.419 72.7862 -38.8551 899.931 9.67089 719.124)
(74.6171 226.158 -65.4887 777.48 36.367 638.548)
(56.8598 205.354 -37.0976 859.092 50.1827 493.444)
(149.468 44.5118 13.2213 298.339 26.2036 476.883)
(-54.6228 244.832 9.25521 480.25 51.8329 321.815)
(379.519 63.146 -11.2908 966.285 23.3857 616.776)
(61.0708 199.351 -6.69089 887.512 52.3722 451.618)
(-61.1684 246.942 -7.59936 463.084 59.6905 380.422)
(366.486 66.8562 -22.0102 939.364 20.464 663.229)
(-140.978 250.954 -14.6112 318.974 4.16011 44.6398)
(127.69 198.452 -10.5261 337.796 1.75039 132.621)
(8.38945 562.473 -1.67466 418.026 -1.09662 125.737)
(122.594 201.17 2.06059 330.956 -0.625121 126.86)
(-120.083 239.966 -22.4596 338.928 1.89922 60.8389)
(-137.868 249.301 5.32305 323.102 4.16761 47.9648)
(8.53131 564.243 0.145794 417.046 5.73989 125.059)
(129.412 199.479 -4.78598 333.2 5.05322 125.388)
(1100.79 -58.3339 -12.9338 1367.92 -6.94927 723.897)
(1181.05 -63.2268 -10.1049 1645.92 -10.8491 840.1)
(1041.58 -2.20595 -10.7571 1485.18 -12.2856 750.622)
(1049.27 4.82587 -10.9005 1506.28 -2.60338 752.419)
(1198.29 -59.045 -7.5895 1668.96 -4.62607 850.245)
(1052.03 7.35382 -10.983 1513.47 -6.39015 754.265)
(1099.48 -63.2446 -11.5522 1354.03 -11.1478 727.768)
(1101.55 -60.2465 -4.3466 1360.91 4.2461 725.255)
(-117.14 234.132 -9.90442 331.988 -5.36168 68.5405)
(-103.208 229.979 11.4777 347.428 -6.60169 73.5698)
(132.044 194.877 0.942341 345.15 -4.61672 139.303)
(20.9747 545.289 -1.41431 434.444 -1.77157 134.845)
(133.306 192.871 -8.18108 345.639 -2.17188 141.685)
(-107.135 235.149 1.22893 349.6 0.516039 69.4799)
(-98.8479 228.631 -13.0405 352.342 -5.39009 75.4937)
(129.146 191.756 -6.1088 335.223 -2.82685 139.412)
(18.2568 544.361 -0.721539 429.035 -8.74117 133.356)
(131.804 191.735 5.02779 341.585 -7.76054 141.239)
(1074.59 -60.875 -5.40694 1326.26 -5.44152 715.826)
(1079.31 -61.1339 3.08063 1328.26 4.23236 716.039)
(1137.37 -68.6594 -3.29663 1580.53 -1.14527 808.033)
(1035.82 -2.72237 -8.4908 1474.59 -4.9051 745.121)
(1026.74 -2.09985 -2.11695 1460.03 -5.06908 741.327)
(1019.89 0.818318 -0.92395 1459.87 -1.42385 739.695)
(1137.28 -67.119 -1.42236 1581.9 2.98006 809.498)
(1023.72 -1.12995 -0.374703 1457.63 2.95457 739.655)
(1095.26 -63.3008 -1.9736 1344.98 0.691031 723.565)
(1083.45 -61.4882 -5.7344 1331.13 -8.1776 718.532)
(160.034 214.275 -13.0323 1122.95 -9.52074 385.568)
(544.123 63.3495 -0.502853 1216.08 -0.714679 526.527)
(336.381 51.1216 -3.21119 506.357 -1.2127 250.05)
(42.8627 257.525 7.78957 666.828 -2.39348 214.131)
(162.528 214.125 10.8675 1124.89 3.02943 386.12)
(541.206 63.3005 -2.6135 1213.84 -2.42172 525.439)
(41.2726 256.908 -10.7003 665.628 -3.53054 213.46)
(158.673 212.827 6.4615 1119.18 2.31848 382.8)
(342.473 48.8575 -2.55849 512.22 -0.677506 255.173)
(539.286 60.3848 -3.96282 1207.21 -4.02248 523.3)
(42.7612 253.357 -11.8139 663.636 -4.53425 212.62)
(539.946 62.0463 -4.55187 1210.36 -2.10046 524.018)
(41.7281 255.311 3.7588 663.66 -1.6545 211.907)
(159.456 210.845 -14.8741 1117.12 -10.7406 382.865)
(1073.03 -61.0115 3.265 1324.77 5.68674 715.699)
(1069.42 -61.0005 -6.89616 1322.94 -7.03772 715.651)
(1132.69 -65.0262 -3.05873 1582.8 -2.88713 813.455)
(1008.27 -0.989242 -3.57621 1445.42 -6.33496 735.689)
(1013.03 0.423405 -2.89704 1452.9 0.69883 737.98)
(1018.82 1.06142 -0.0431899 1459.43 4.04821 739.767)
(1138.43 -64.5643 -2.44285 1590.26 -1.5195 816.655)
(1015.32 0.742243 -3.64953 1457.05 -5.012 739.85)
(1064.05 -61.7818 -6.61743 1314.29 -8.01617 712.921)
(1067.59 -61.2308 1.53057 1318.42 4.35766 714.185)
(-124.377 236.514 12.0651 325.238 -5.12811 64.2793)
(-127.427 235.552 -14.6075 321.756 -2.08086 62.4413)
(120.12 191.229 -7.9353 323.533 -1.95951 133.765)
(8.15805 544.749 -1.10084 409.4 -7.93916 125.79)
(118.73 192.497 3.21571 323.202 -6.20601 133.47)
(-124.794 232.786 -14.9781 322.301 -2.91139 63.6494)
(-126.374 234.854 7.88931 322.53 -2.66192 62.8143)
(123.173 192.731 4.68188 327.938 -6.70761 135.742)
(8.97585 546.256 -0.806055 410.596 -2.6632 126.671)
(121.789 192.573 -7.63277 325.078 -1.4401 134.528)
(156.928 208.377 9.24626 1106.03 2.00659 378.746)
(340.028 47.9538 -0.740893 506.058 -2.08301 254.454)
(529.998 60.2424 -0.993008 1192.23 -2.28884 516.822)
(39.3601 250.485 -8.36704 654.264 -4.64149 209.65)
(154.656 208.608 -11.3038 1104.18 -9.70618 378.558)
(532.596 60.3164 -1.55202 1193.6 -1.83832 518.007)
(43.5127 249.57 6.70507 657.068 -2.97527 210.672)
(159.391 208.491 -12.9108 1110.13 -10.7031 380.633)
(343.666 47.1954 -1.83531 509.801 -2.55708 256.892)
(537.646 59.7876 -3.96477 1201.96 -3.30729 521.535)
(44.7027 251.272 3.28259 661.979 -2.45948 212.33)
(159.355 209.302 6.45918 1113.16 1.28592 381.163)
(535.465 59.9063 -2.10718 1197.14 -3.76498 519.58)
(46.4333 249.215 -10.4977 661.374 -4.85783 212.349)
(-129.37 231.136 9.63818 313.034 -3.65818 60.1229)
(-128.197 228.964 -13.6588 312.909 -2.55924 59.568)
(112.562 187.195 -7.06455 311.165 -1.76414 127.927)
(4.14826 535.238 -0.785127 396.524 -7.56438 120.567)
(111.999 187.993 3.92765 311.998 -6.17537 128.286)
(-130.082 228.514 -13.1648 309.665 -3.14345 58.5182)
(-128.034 228.691 8.98756 312.809 -3.28637 59.4419)
(114.639 188.584 3.86431 314.831 -6.0608 129.917)
(4.8615 536.336 -0.771303 397.884 -2.09665 121.32)
(113.696 188.311 -7.46191 313.421 -1.32755 129.161)
(1048.92 -61.2562 2.77809 1297.22 4.81809 703.217)
(1045.27 -60.9135 -5.89087 1294.01 -7.0043 701.407)
(1105.42 -64.8387 -1.79568 1549.47 -1.45081 796.223)
(985.727 -0.93305 -2.35585 1418.31 -4.93693 721.077)
(989.117 -0.360506 -1.57515 1422.37 1.35976 723.16)
(994.001 -0.206781 -1.01976 1428.9 2.19631 726.263)
(1108.8 -64.8056 -1.60928 1553.84 -1.4211 798.497)
(990.916 -0.328252 -2.48713 1425.19 -4.78935 724.797)
(1040.95 -61.339 -5.77275 1288.41 -7.12469 698.526)
(1043.58 -60.9638 2.44025 1291.04 4.43229 699.876)
(1050.07 -61.1411 -5.83727 1299.06 -6.33141 704.063)
(1052.36 -60.7512 2.80879 1300.65 4.60744 704.926)
(1005.26 -0.909183 -2.26732 1440.85 -0.0308815 733.042)
(1116.44 -65.6186 -1.62376 1561.07 -1.21622 802.38)
(1000.03 -0.542063 -1.9871 1434.08 -4.73385 730.338)
(1061.09 -61.706 2.16361 1309.75 3.42331 710.213)
(1054.52 -60.8016 -5.56926 1303.14 -7.29576 706.642)
(995.279 -0.218722 -2.05496 1430.55 -3.58038 727.341)
(1114.35 -65.2564 -1.40547 1558.98 -0.00524343 801.281)
(998.087 -0.295313 -0.909519 1431.81 2.10591 728.775)
(-127.346 230.555 -12.1132 315.05 -3.73035 61.4881)
(-121.309 228.954 10.0264 321.83 -4.58096 64.1158)
(119.797 190.126 2.93184 323.521 -6.27411 133.999)
(9.507 538.739 -0.955675 408.321 -2.58368 125.561)
(119.059 189.518 -7.66199 322.274 -1.97988 133.63)
(-122.623 231.777 7.31962 323.689 -3.15769 64.8101)
(-119.611 228.521 -13.1609 323.777 -3.76846 65.215)
(117.057 188.603 -6.68702 317.535 -2.14908 131.491)
(7.99852 537.915 -0.718392 405.507 -8.24833 124.383)
(117.378 189.085 4.37229 319.9 -6.88816 132.492)
(-133.09 226.886 -12.4124 303.191 -3.25077 55.6162)
(-129.007 225.977 9.61278 308.04 -3.75217 57.4502)
(111.38 186.68 3.53741 309.913 -5.86795 127.271)
(3.25951 531.986 -0.798294 392.615 -2.03693 119.052)
(110.466 186.34 -7.34548 308.584 -1.41331 126.684)
(-130.038 228.314 8.65258 309.322 -3.24202 58.369)
(-128.09 225.817 -13.0612 309.156 -2.995 58.1544)
(109.004 185.481 -6.72414 305.234 -1.7697 124.977)
(2.12795 531.188 -0.70155 390.586 -7.59772 118.093)
(108.879 186.049 4.23313 306.743 -6.27692 125.673)
(1030.01 -61.1283 -5.66288 1276.26 -6.48292 691.229)
(1031.99 -60.6548 2.77084 1277.95 4.64832 692.166)
(1095.44 -64.7429 -1.31889 1536.99 -1.25331 789.289)
(983.627 -0.84734 -1.22519 1415.29 1.0509 719.213)
(979.6 -0.658274 -1.95342 1410.32 -4.60185 717.04)
(975.098 -0.879351 -2.08781 1405.72 -4.03713 713.827)
(1092.89 -64.6185 -1.37692 1534 -0.674469 787.65)
(977.862 -0.572156 -1.02395 1407.99 1.86708 715.513)
(1038.79 -61.3183 2.79942 1285.2 4.09893 696.552)
(1033.76 -60.6538 -5.44389 1280.48 -6.99483 693.708)
(142.764 203.764 -12.4286 1077.92 -9.63094 365.954)
(513.832 58.2976 -2.33262 1168.22 -1.79276 504.322)
(320.993 46.4247 -2.04723 485.412 -1.69562 241.632)
(29.1867 246.532 5.07044 635.481 -1.78818 200.279)
(143.062 204.297 8.15088 1079.88 2.42024 366.695)
(512.293 58.2159 -1.95586 1165.25 -2.92168 502.772)
(30.3782 245.03 -10.1977 635.339 -3.82121 199.958)
(141.274 203.178 8.24576 1074.52 2.17285 363.85)
(321.408 46.0286 -1.13236 485.643 -1.24246 242.108)
(508.791 57.4477 -1.66364 1160.14 -2.85034 500.082)
(27.2913 244.5 -9.16469 630.932 -4.43134 198.026)
(510.533 58.018 -2.26386 1162.15 -1.78733 501.227)
(29.3862 244.57 5.69547 632.659 -2.22679 198.488)
(140.306 202.688 -11.9877 1072.6 -9.88104 363.679)
(1028.61 -61.2106 2.83989 1274.03 4.55432 690.014)
(1024.55 -60.7283 -5.48254 1270.26 -6.86914 687.789)
(1082.47 -64.4772 -1.42053 1521.56 -1.11159 780.754)
(965.117 -1.28805 -2.06533 1393.2 -4.50295 706.989)
(968.4 -0.858231 -1.18674 1396.67 1.56712 709)
(973.573 -0.876003 -1.04188 1403.59 1.74545 712.445)
(1085.53 -64.5231 -1.31348 1525.45 -1.35323 782.815)
(970.223 -0.891888 -2.0815 1399.38 -4.63505 710.649)
(1020.25 -61.1296 -5.50948 1265.04 -6.72971 684.918)
(1022.77 -60.7463 2.71035 1267.38 4.51005 686.178)
(-134.046 227.097 9.11891 302.076 -3.26176 54.8778)
(-132.261 224.774 -13.2811 302.21 -2.65279 54.5384)
(105.097 183.985 -6.86381 299.37 -1.85887 121.72)
(-0.577796 527.904 -0.754531 383.588 -7.57694 115.068)
(104.724 184.688 4.01074 300.564 -6.18617 122.277)
(-135.619 225.02 -12.6888 297.59 -3.2854 52.731)
(-132.523 224.673 9.16192 301.704 -3.42686 54.1721)
(107.328 185.252 3.69198 303.409 -5.78379 123.898)
(0.284804 528.881 -0.785729 385.188 -2.00329 115.894)
(106.386 184.977 -7.35601 302.153 -1.2762 123.229)
(136.219 201.141 8.21501 1062.2 1.74822 358.548)
(314.858 45.5181 -1.04464 477.85 -1.38335 237.619)
(500.217 56.7047 -1.73869 1146.9 -2.89291 493.601)
(22.6013 242.427 -9.15802 621.55 -4.66544 193.795)
(134.887 200.728 -11.9632 1059.9 -10.0839 358.336)
(502.384 57.2467 -2.19881 1149.22 -1.95622 494.884)
(25.1284 242.424 5.66707 623.614 -2.56152 194.357)
(138.157 201.65 -12.324 1066.3 -10.0574 360.864)
(315.05 45.8055 -1.93755 478.238 -1.83498 237.529)
(506.704 57.3114 -2.42203 1156.7 -2.25088 498.45)
(25.7361 244.252 4.79607 627.67 -2.13264 196.437)
(138.584 202.155 7.89446 1068.83 1.83786 361.578)
(504.684 57.3243 -1.9046 1152.92 -3.22626 496.626)
(26.7897 242.688 -10.1581 627.145 -4.18131 196.112)
(-140.046 223.382 8.56395 289.063 -3.68483 48.7083)
(-138.567 220.803 -13.538 288.247 -3.17314 48.3886)
(95.4038 180.259 -7.18914 284.464 -2.51975 114.699)
(-6.63021 519.588 -1.02978 367.746 -8.42918 108.48)
(95.2829 181.124 3.49304 286.324 -6.78983 115.25)
(-142.814 220.84 -12.9391 281.984 -3.8344 46.6079)
(-139.146 220.752 8.53276 287.348 -3.95995 47.9174)
(98.611 181.94 3.26726 290.287 -6.3066 117.04)
(-5.32687 520.902 -1.00944 370.058 -2.8907 109.576)
(97.6039 181.497 -7.62664 288.612 -1.91791 116.347)
(1005.81 -61.0408 2.70307 1247.68 4.25438 675.375)
(1000.32 -60.5166 -5.63616 1242.68 -6.99423 672.953)
(1054.71 -64.1549 -2.03792 1487.2 -1.28821 763.475)
(938.379 -2.02979 -2.81544 1360.42 -4.63538 691.244)
(943.31 -1.48301 -1.66564 1365.42 1.23895 693.021)
(950.731 -1.47926 -1.26415 1375.03 1.32138 697.157)
(1058.95 -64.2 -1.70643 1492.49 -1.60573 765.774)
(945.95 -1.55002 -2.42091 1369.28 -4.88278 695.13)
(993.614 -60.9293 -5.99529 1234.92 -6.77697 669.939)
(997.715 -60.5402 2.33181 1238.57 4.20651 670.881)
(1008.04 -60.9753 -5.60246 1251.21 -6.6211 677.234)
(1010.95 -60.5551 2.74801 1253.78 4.45661 678.438)
(963.061 -1.23438 -1.02748 1390.22 1.2986 705.151)
(1072.91 -64.3334 -1.22658 1509.7 -1.43455 774.307)
(958.866 -1.15619 -1.94944 1385.04 -4.71362 702.966)
(1018.19 -61.16 2.91955 1261.84 4.27075 683.068)
(1013.14 -60.5558 -5.32 1257.2 -6.91071 680.356)
(952.993 -1.51864 -2.20803 1378.27 -4.37447 699.076)
(1069.59 -64.2526 -1.39056 1505.51 -1.05476 772.184)
(956.722 -1.09691 -1.1151 1381.95 1.53126 701.093)
(-139.01 223.174 -12.6694 290.354 -3.5952 49.4572)
(-135.312 222.7 9.09632 295.282 -3.784 51.1595)
(103.461 183.63 3.49607 297.618 -5.96851 120.739)
(-2.16879 525.082 -0.857718 378.476 -2.40173 113.021)
(102.478 183.277 -7.40892 296.145 -1.58533 120.033)
(-136.238 225.075 8.76403 296.697 -3.37671 52.1866)
(-134.588 222.65 -13.1982 296.242 -3.00174 51.7782)
(100.667 182.281 -6.94737 292.488 -2.21427 118.198)
(-3.33761 524.093 -0.834557 376.39 -8.01322 112.002)
(100.5 182.99 3.87994 294.1 -6.50481 118.896)
(-147.686 217.986 -12.7437 271.014 -3.07185 45.5771)
(-143.711 218.189 8.07629 277.463 -3.72039 45.8865)
(92.9703 179.775 2.94067 281.832 -6.48176 113.675)
(-8.84682 515.309 -1.20931 360.255 -2.92053 106.032)
(91.8686 179.16 -7.80521 279.695 -1.90118 113.229)
(-143.976 221.055 8.09155 280.485 -3.90348 45.9555)
(-142.92 218.215 -13.7565 278.636 -3.04874 46.1853)
(88.7814 177.716 -7.14048 274.356 -1.74289 112.263)
(-10.4365 513.586 -1.23224 357.414 -8.02987 104.871)
(88.9414 178.699 3.22993 276.783 -6.38843 112.382)
(974.01 -60.9446 -6.34225 1213.34 -6.63544 663.99)
(979.924 -60.5431 1.8471 1218.38 4.00664 663.626)
(1040.23 -64.0907 -2.67965 1469.68 -1.8005 756.761)
(935.366 -1.97516 -1.94734 1356.14 1.01887 689.042)
(928.92 -2.12033 -3.0593 1348.72 -5.14107 687.527)
(918.626 -3.02943 -3.46683 1337.05 -4.53454 684.688)
(1035.07 -64.0846 -3.12138 1463.65 -1.38449 755.125)
(925.484 -2.06392 -2.37201 1343.79 0.993577 685.303)
(990.712 -61.0444 2.2024 1230.37 3.97787 667.869)
(983.515 -60.5104 -6.02063 1223.97 -7.14459 665.963)
(113.969 193.118 -13.7736 1013.08 -8.7618 347.349)
(471.826 53.8585 -3.73995 1104.71 -2.18043 481.411)
(281.865 43.5859 -1.59446 440.752 -0.917986 229.248)
(6.16432 236.486 3.72362 589.721 -1.68866 186.223)
(115.764 193.985 5.99291 1018.18 1.91359 346.493)
(467.348 53.6329 -3.40824 1097.72 -2.86223 480.95)
(6.05406 234.466 -10.8398 587.696 -2.89115 187.725)
(110.256 192.107 5.95354 1005.11 3.5572 346.176)
(282.659 42.4763 -0.419455 441.098 -0.313518 232.236)
(457.144 52.8463 -2.69554 1083.68 -1.03838 482.639)
(-0.0720993 233.212 -8.7239 577.169 -1.218 190.154)
(462.433 53.4519 -3.6797 1089.92 -1.03841 481.191)
(3.48226 233.773 4.36814 581.106 -0.146143 187.726)
(107.207 191.465 -12.9562 999.531 -6.38835 348.456)
(970.299 -61.1087 1.79307 1207.77 4.07377 662.131)
(960.711 -60.5558 -6.23517 1199.13 -6.94886 662.33)
(891.836 -3.43845 -4.02417 1306.35 -3.30734 684.638)
(901.236 -3.31462 -3.10002 1314.65 1.4125 681.105)
(914.746 -2.95634 -2.63998 1331.65 1.18006 682.576)
(905.857 -3.44075 -3.74542 1321.15 -5.01434 682.901)
(946.992 -60.7319 -6.22082 1184.17 -5.7337 664.604)
(955.883 -60.6127 1.61771 1191.77 4.2661 660.429)
(-149.337 218.392 8.05204 268.924 -2.95786 45.139)
(-148.897 215.448 -13.311 265.743 -0.726405 47.1052)
(80.4949 175.009 -5.94726 262.306 2.94866 113.825)
(-14.6312 506.168 -1.23049 345.683 -4.06158 102.141)
(80.8841 175.999 3.69517 265.067 -2.96179 112.425)
(-153.933 215.129 -11.1071 256.686 1.23465 50.2336)
(-149.704 215.417 8.22271 264.405 -1.03955 47.533)
(85.7226 177.17 3.03905 271.036 -5.07269 111.761)
(-12.8905 508.242 -1.25576 348.628 -0.295493 102.959)
(84.6161 176.396 -7.38509 268.536 0.366505 112.212)
(94.6429 190.008 6.19736 973.721 12.2938 356.427)
(259.981 41.4146 3.45743 415.924 4.10791 247.701)
(429.974 53.4494 -1.10114 1046.05 5.89671 502.176)
(-14.7442 232.113 -4.80952 550.679 9.87007 209.656)
(89.9903 190.372 -12.0941 965.553 5.4197 363.546)
(437.701 53.3367 -2.54342 1055.54 4.08541 494.086)
(-10.108 232.03 6.31857 556.331 8.70839 201.346)
(99.2581 190.485 -13.2622 983.648 -2.08901 353.163)
(258.949 42.9388 1.68579 415.689 3.02953 240.984)
(451.06 52.785 -3.10837 1075.55 0.554597 485.146)
(-5.32221 233.737 4.98569 568.593 2.93412 191.701)
(102.438 190.806 6.04896 990.731 6.59437 349.26)
(444.607 52.9282 -2.49184 1066.28 0.872071 488.602)
(-6.72265 232.21 -8.72843 564.921 3.3837 196.672)
(-168.112 216.749 14.774 232.317 17.3629 74.9401)
(-172.004 217.257 -3.81227 222.48 32.6478 98.0543)
(51.831 177.584 9.16002 234.323 64.2172 184.254)
(-20.7289 494.465 0.812716 332.806 53.0604 119.047)
(55.929 176.559 14.0018 237.664 44.5887 162.231)
(-179.077 220.894 3.50543 205.949 55.2418 152.545)
(-174.046 218.281 16.6112 220.474 35.9096 107.662)
(64.4571 174.607 9.95869 244.231 21.8001 135.125)
(-20.0268 495.742 0.835928 331.251 42.7682 112.878)
(63.0513 174.629 1.96461 241.921 36.2242 146.506)
(901.896 -59.6712 2.47441 1133.57 8.09444 692.072)
(883.485 -57.7139 -6.44866 1116.23 -1.33597 720.464)
(808.047 2.46564 -16.0199 1202.09 6.15636 789.412)
(824.454 0.15885 -7.9578 1224.07 8.4486 744.928)
(848.658 -2.08624 -4.49966 1255.57 6.52489 710.333)
(832.631 -1.14284 -7.60965 1237.32 1.94022 737.372)
(854.51 -54.2022 -12.4549 1081.02 1.41201 778.817)
(874.23 -57.2058 1.11325 1101.81 9.39287 728.813)
(908.858 -59.5236 -5.5759 1143.73 -2.71746 687.853)
(922.247 -59.9774 2.29176 1155.2 5.75068 671.566)
(886.537 -3.03493 -3.2125 1299.19 2.28589 683.587)
(874.715 -3.5115 -4.10272 1285.92 -3.1671 691.012)
(941.948 -60.983 1.91415 1176.89 4.89078 663.959)