/*--------------------------------*- C++ -*----------------------------------*\
| =========                 |                                                 |
| \\      /  F ield         | OpenFOAM: The Open Source CFD Toolbox           |
|  \\    /   O peration     | Version:  2012                                  |
|   \\  /    A nd           | Website:  www.openfoam.com                      |
|    \\/     M anipulation  |                                                 |
\*---------------------------------------------------------------------------*/
FoamFile
{
    version     2.0;
    format      ascii;
    class       volVectorField;
    location    "0.105/solid";
    object      sigmaMaxDir;
}
// * * * * * * * * * * * * * * * * * * * * * * * * * * * * * * * * * * * * * //

dimensions      [1 -1 -2 0 0 0 0];


internalField   nonuniform List<vector> 
3125
(
(0.984371 -0.174378 0.0246214)
(0.985114 -0.171123 0.0163644)
(0.986219 -0.165438 0.0013542)
(0.986311 -0.164893 0.000885866)
(0.986832 -0.161733 0.0023198)
(0.986965 -0.160881 0.00415681)
(0.983825 -0.163344 0.0735386)
(0.975986 -0.181289 0.120772)
(0.985732 -0.168271 0.00424405)
(0.985906 -0.167278 0.00266139)
(0.986536 -0.163544 0.000381931)
(0.986597 -0.163177 0.000254198)
(0.98747 -0.157242 0.0133512)
(0.987546 -0.156107 0.0195853)
(0.984221 -0.176868 0.00525289)
(0.91456 -0.403925 0.0205871)
(0.961385 0.0514246 0.270361)
(0.0873901 -0.0163197 0.99604)
(0.914314 -0.404938 -0.00739621)
(0.000479845 0.011463 0.999934)
(0.917406 -0.397801 0.0109993)
(0.979145 0.0545237 0.195709)
(0.985467 -0.169864 0.000609088)
(0.998635 0.050838 0.0119501)
(0.0609097 -0.00862593 0.998106)
(0.917174 -0.398397 -0.00841989)
(0.00771862 0.00515123 0.999957)
(0.986111 -0.166088 0.000797844)
(0.916675 -0.399631 -0.00135105)
(0.0265825 0.00213509 0.999644)
(0.916548 -0.399922 -0.00170205)
(0.0235924 0.002424 0.999719)
(0.916786 -0.399377 -0.00107683)
(0.986385 -0.16445 0.000220066)
(0.0102915 0.00465797 0.999936)
(0.916715 -0.399532 -0.00290077)
(0.0101856 0.0048723 0.999936)
(0.986729 -0.162372 0.00121711)
(0.916452 -0.400141 -0.00175972)
(0.0295482 0.00290031 0.999559)
(0.91649 -0.400057 -0.00112786)
(0.0305283 0.00178623 0.999532)
(0.916405 -0.400253 0.000148232)
(0.987127 -0.159818 0.00617954)
(0.0135519 0.0050764 0.999895)
(0.916348 -0.400383 0.000318888)
(0.960372 -0.231229 -0.155627)
(0.986529 -0.157237 0.0451364)
(0.906107 -0.416679 0.0731298)
(0.966379 -0.250418 -0.0583291)
(0.911731 -0.408641 0.0419422)
(0.968939 -0.246717 0.0169462)
(0.89153 -0.435887 0.123194)
(0.947825 -0.243011 0.206333)
(0.967482 -0.246123 -0.0583352)
(0.846332 -0.487545 0.21453)
(0.820707 -0.571312 0.00649547)
(0.0305009 0.0163889 0.9994)
(0.822325 -0.569013 -0.00247719)
(0.821287 -0.570506 -0.00316936)
(0.0218158 0.0108248 0.999703)
(0.00227462 -0.00383657 0.99999)
(-0.00918513 0.0113933 0.999893)
(0.985563 -0.169307 0.000519002)
(0.91633 -0.400421 0.00168566)
(0.0368928 3.91278e-08 0.999319)
(0.916089 -0.400954 -0.00410707)
(0.00978531 0.00492368 0.99994)
(0.00478402 -0.00134759 0.999988)
(0.82036 -0.571846 -0.00098803)
(0.820473 -0.571615 -0.00902291)
(0.0213106 0.00362993 0.999766)
(0.986013 -0.166666 2.01635e-05)
(0.916865 -0.399198 0.000203494)
(0.0197142 0.00303357 0.999801)
(0.916734 -0.399476 -0.00423787)
(0.81964 -0.572877 -0.00120864)
(0.819801 -0.572595 -0.00776331)
(0.00580985 0.00261085 0.99998)
(0.00517541 0.00122555 0.999986)
(0.00805105 0.00379888 0.99996)
(0.00434748 0.000507705 0.99999)
(0.820593 -0.571467 -0.00725019)
(0.820038 -0.572306 -0.00201274)
(0.819618 -0.572864 -0.00727665)
(0.819237 -0.573454 -0.00144101)
(0.0054713 0.00240642 0.999982)
(0.00459243 0.00145393 0.999988)
(0.00890718 0.00428941 0.999951)
(0.986462 -0.163987 0.000604459)
(0.91668 -0.399616 -0.00221283)
(0.0246888 0.00227724 0.999693)
(0.916663 -0.39966 -0.00127692)
(0.00477137 0.00210588 0.999986)
(0.00492527 0.00175606 0.999986)
(0.818863 -0.573988 -0.0015041)
(0.819117 -0.57358 -0.00737451)
(0.0257807 0.00258532 0.999664)
(0.986654 -0.162829 0.000190965)
(0.916653 -0.399681 -0.00139854)
(0.00865412 0.00468188 0.999952)
(0.916566 -0.399875 -0.00265186)
(0.817858 -0.575416 -0.00213686)
(0.818255 -0.5748 -0.00797008)
(0.0081637 0.0026198 0.999963)
(0.00595986 0.00234166 0.999979)
(0.004847 0.0022133 0.999986)
(0.00521536 0.00205139 0.999984)
(0.818777 -0.574061 -0.007581)
(0.818379 -0.574676 -0.00196116)
(0.817741 -0.575531 -0.00795768)
(0.817269 -0.576256 -0.000836963)
(0.00933088 0.00294212 0.999952)
(0.0107089 0.00415065 0.999934)
(0.987304 -0.158562 0.00940508)
(0.916002 -0.401122 0.00637021)
(0.00374441 -0.00181984 0.999991)
(0.916215 -0.400668 0.00377117)
(0.816698 -0.577038 0.00560216)
(0.817161 -0.57638 -0.00582051)
(0.959796 -0.235145 -0.15329)
(0.987379 -0.155726 0.0288383)
(0.915422 -0.402265 0.0135887)
(-0.0476781 0.00567323 0.998847)
(0.914335 -0.404304 0.0230222)
(0.811619 -0.577558 0.0877641)
(0.815891 -0.577401 0.0305118)
(0.816669 -0.577099 0.00303259)
(0.815988 -0.577465 0.0264212)
(0.808472 -0.57785 0.111637)
(0.752915 -0.597064 0.276828)
(0.964635 -0.261644 0.0319753)
(0.665697 -0.643952 0.377057)
(0.682558 -0.635096 0.361618)
(0.921525 -0.38544 0.0471915)
(-0.649411 0.703257 -0.289302)
(0.974986 -0.21827 0.041959)
(0.0797839 -0.024222 0.996518)
(0.937005 -0.347786 0.0326619)
(0.205808 -0.0234987 0.97831)
(0.976548 -0.215103 0.00915968)
(0.0904861 -0.0288914 0.995479)
(0.938489 -0.336832 0.0760399)
(0.406558 -0.0279067 0.913199)
(0.974331 -0.207154 0.0881278)
(0.938595 -0.344762 0.0133694)
(0.438855 -0.0415339 0.897597)
(0.978023 -0.204639 -0.0399201)
(-0.0965756 0.0108736 0.995266)
(-0.0164164 0.0188551 0.999687)
(0.941984 -0.335374 0.0138232)
(0.941992 -0.333305 -0.0394798)
(-0.0152246 0.00474765 0.999873)
(0.978174 -0.20635 0.0243965)
(0.977868 -0.202903 0.0510279)
(0.00589458 0.0149943 0.99987)
(0.942653 -0.333586 0.0112464)
(0.322556 -0.0187979 0.946364)
(0.978689 -0.205246 0.00649591)
(0.942977 -0.330508 0.0394863)
(0.122624 -0.0019724 0.992451)
(0.978037 -0.204719 0.039152)
(0.262693 -0.0212021 0.964647)
(0.0279062 0.00137371 0.99961)
(0.941653 -0.33585 -0.0222202)
(0.978251 -0.205336 -0.0293772)
(0.941802 -0.33454 0.0330463)
(0.255069 -0.0186047 0.966744)
(0.978414 -0.204826 -0.027416)
(0.0168172 0.0016946 0.999857)
(0.942068 -0.334117 0.0295503)
(0.245545 -0.017044 0.969235)
(0.978219 -0.203987 0.0384379)
(0.942001 -0.334868 -0.0223045)
(0.315863 -0.025337 0.948467)
(0.978453 -0.204219 -0.0304113)
(0.225984 -0.0162581 0.973995)
(0.00890058 0.0044254 0.999951)
(0.942193 -0.334018 0.0265492)
(0.942133 -0.334244 -0.0258327)
(0.279491 -0.022325 0.959889)
(0.978375 -0.203757 0.0355718)
(0.978277 -0.203831 0.0377835)
(0.0209008 0.00404236 0.999773)
(0.942142 -0.33463 -0.0197703)
(0.319887 -0.0246543 0.947135)
(0.978533 -0.204277 -0.0272757)
(0.942245 -0.333424 0.0316679)
(0.228505 -0.0155329 0.973419)
(0.978505 -0.202445 0.0392865)
(0.636105 -0.052308 0.769828)
(0.027947 0.00271783 0.999606)
(0.942274 -0.334269 -0.0195944)
(0.978802 -0.20307 -0.0266422)
(0.942405 -0.332817 0.0332499)
(0.668529 -0.0540812 0.741717)
(0.97886 -0.202812 -0.0264637)
(0.0158047 0.00333835 0.99987)
(0.942496 -0.332968 0.0288857)
(0.837543 -0.0691758 0.541974)
(0.978627 -0.202027 0.0383933)
(0.942422 -0.333698 -0.0220589)
(0.738178 -0.061619 0.671786)
(0.979109 -0.202015 -0.0231435)
(0.96924 -0.0808747 0.232451)
(0.0183027 0.00299085 0.999828)
(0.942621 -0.332554 0.0295439)
(0.942559 -0.333473 -0.0194616)
(0.932802 -0.0785062 0.351734)
(0.978744 -0.20115 0.0399825)
(0.978602 -0.201598 0.0411937)
(0.0326473 0.00214307 0.999465)
(0.942392 -0.334042 -0.0177196)
(0.86257 -0.0717453 0.500825)
(0.979016 -0.202385 -0.0238299)
(0.942525 -0.33236 0.034412)
(0.915481 -0.0761206 0.395095)
(0.976792 -0.208204 0.0502778)
(0.995867 -0.0877884 0.0233047)
(0.965722 -0.248847 -0.0738703)
(0.940111 -0.340778 -0.00784421)
(0.978742 -0.205023 -0.00554209)
(0.938824 -0.342872 0.0323654)
(0.995613 -0.0906874 0.0230356)
(0.977313 -0.211355 0.0137515)
(0.967677 -0.237323 -0.0853194)
(0.935474 -0.351585 0.0357292)
(0.994249 -0.100148 0.0379461)
(0.973882 -0.217453 0.0653301)
(0.937594 -0.347639 0.00807978)
(0.994821 -0.0955317 0.0347127)
(0.963071 -0.254748 0.0871637)
(0.982941 -0.144329 0.113999)
(0.970047 -0.242452 -0.0150081)
(0.907538 -0.413943 0.0709024)
(0.916004 -0.397124 0.056833)
(0.986026 -0.129911 0.104291)
(0.952555 -0.282321 0.113731)
(0.966509 -0.237455 0.0973391)
(0.964525 -0.263429 -0.0172141)
(0.931313 -0.363575 0.0216736)
(0.992602 -0.107682 0.0560806)
(0.97349 -0.224867 0.0418654)
(0.926662 -0.37199 0.0540434)
(0.990062 -0.116408 0.0789066)
(0.914208 -0.40207 0.0506418)
(0.854373 -0.513618 0.0790075)
(0.819195 -0.573513 0.00145353)
(0.854256 -0.519593 -0.0164613)
(0.917291 -0.391115 0.0748751)
(0.916186 -0.400605 -0.0108759)
(0.818623 -0.574297 0.00620075)
(0.851416 -0.521423 0.0566417)
(0.036413 0.014068 0.999238)
(0.0325365 0.0159974 0.999343)
(0.0369917 0.0168086 0.999174)
(0.0365928 0.00321509 0.999325)
(0.0230256 0.00730746 0.999708)
(0.0366038 0.00805168 0.999297)
(0.0346101 0.0212594 0.999175)
(0.0106405 -0.0056703 0.999927)
(0.919693 -0.391872 0.0245285)
(0.920804 -0.387075 -0.0478893)
(0.859769 -0.510033 -0.0257533)
(0.822954 -0.568108 0.000321171)
(0.860207 -0.507645 0.0483846)
(0.921052 -0.389424 -0.00337251)
(0.922191 -0.384978 0.0368129)
(0.858097 -0.512591 0.0303364)
(0.822434 -0.568791 -0.00890717)
(0.857969 -0.509333 -0.0668533)
(0.0168581 0.010591 0.999802)
(-0.00980578 -0.00789088 0.999921)
(0.0105119 0.00241663 0.999942)
(0.0292304 0.0068276 0.999549)
(0.00746748 0.00707405 0.999947)
(0.00329166 0.00197331 0.999993)
(0.00361342 -0.00354408 0.999987)
(0.00130267 -0.00411296 0.999991)
(0.00521054 -0.000581227 0.999986)
(0.0182547 0.015172 0.999718)
(0.977487 -0.207235 0.0396547)
(0.0370463 -0.00236768 0.999311)
(0.0389084 -0.00303121 0.999238)
(0.940623 -0.338053 -0.03081)
(0.977532 -0.207496 -0.0370921)
(0.221926 -0.0169634 0.974916)
(0.940882 -0.337068 0.0335507)
(0.978112 -0.206944 -0.0216871)
(0.0310982 -0.00327547 0.999511)
(0.292577 -0.0201765 0.956029)
(0.941489 -0.335022 0.0368692)
(0.343198 -0.0280867 0.938843)
(0.941392 -0.336952 -0.015656)
(0.977659 -0.205108 0.0459814)
(-0.0109136 -0.0104272 0.999886)
(0.0218466 0.0137736 0.999666)
(0.0105247 0.00464177 0.999934)
(0.0131456 0.00894171 0.999874)
(0.0105324 -0.000983629 0.999944)
(0.000176151 -0.00562514 0.999984)
(0.00812096 0.00264179 0.999964)
(0.013224 0.006973 0.999888)
(0.0215564 0.0155328 0.999647)
(-0.00567903 -0.00778644 0.999954)
(0.918019 -0.393969 -0.0450435)
(0.918597 -0.392821 0.0432599)
(0.856638 -0.513955 0.0449604)
(0.820193 -0.57204 -0.007313)
(0.855961 -0.515034 -0.0455022)
(0.919303 -0.391103 0.0438274)
(0.919122 -0.392931 -0.0286272)
(0.855405 -0.514717 -0.0578739)
(0.820069 -0.572263 -0.00172992)
(0.855798 -0.515363 0.0448461)
(0.978186 -0.205179 -0.0324747)
(0.00449823 0.00742072 0.999962)
(0.0994905 -0.00550134 0.995023)
(0.941939 -0.334899 0.0243748)
(0.978171 -0.20503 0.0338298)
(0.145829 -0.0103245 0.989256)
(0.941874 -0.334751 -0.0285529)
(0.978066 -0.204547 0.039336)
(0.0174059 0.00685944 0.999825)
(0.292568 -0.0210252 0.956014)
(0.942086 -0.335024 -0.015237)
(0.978454 -0.205204 -0.0227799)
(0.160674 -0.00871767 0.986969)
(0.942179 -0.333531 0.032497)
(0.919046 -0.392532 -0.03567)
(0.919697 -0.390537 0.040486)
(0.856479 -0.514619 0.0401237)
(0.819754 -0.572666 -0.00752215)
(0.85592 -0.514639 -0.05048)
(0.919674 -0.39084 0.0380032)
(0.919811 -0.390928 -0.0335144)
(0.855723 -0.51503 -0.0498298)
(0.819764 -0.572701 -0.00115742)
(0.856313 -0.514559 0.044235)
(-0.00964659 -0.0091042 0.999912)
(0.0195631 0.0138222 0.999713)
(0.00632527 0.00247045 0.999977)
(0.0089243 0.00709162 0.999935)
(0.00591957 -0.00194158 0.999981)
(0.0038062 -0.00312463 0.999988)
(0.00568044 0.00236868 0.999981)
(0.00935178 0.00684147 0.999933)
(0.0193641 0.0140833 0.999713)
(-0.00858444 -0.00838145 0.999928)
(0.0190812 0.0125951 0.999739)
(-0.0096053 -0.00871212 0.999916)
(0.00832845 5.43249e-05 0.999965)
(0.00560614 0.00208785 0.999982)
(0.00738 0.00673163 0.99995)
(-0.00730146 -0.00646067 0.999952)
(0.0184591 0.0141043 0.99973)
(0.0076724 0.00509344 0.999958)
(0.00457278 0.000400746 0.999989)
(0.00337376 -0.00299395 0.99999)
(0.919515 -0.39161 0.0336643)
(0.920008 -0.389962 -0.0389216)
(0.856915 -0.513517 -0.0446971)
(0.820705 -0.571351 -0.00140878)
(0.857538 -0.512593 0.0433208)
(0.919855 -0.391269 -0.0278382)
(0.920493 -0.388929 0.0377723)
(0.856792 -0.514395 0.0361391)
(0.820486 -0.571605 -0.00839981)
(0.856312 -0.513354 -0.0565408)
(0.919668 -0.391087 0.0355097)
(0.920033 -0.39014 -0.0364672)
(0.856038 -0.514759 -0.04713)
(0.81965 -0.572864 -0.00105119)
(0.856604 -0.514151 0.0433335)
(0.919678 -0.391344 -0.0322753)
(0.920259 -0.389417 0.0384398)
(0.856234 -0.515196 0.0378941)
(0.819526 -0.572989 -0.0077531)
(0.855757 -0.514641 -0.0531462)
(0.0190579 0.0130653 0.999733)
(-0.00974738 -0.00894271 0.999913)
(0.00474928 0.0020874 0.999987)
(0.00462859 -0.00150409 0.999988)
(0.00745491 0.00664407 0.99995)
(0.00800906 0.00584446 0.999951)
(0.00478979 0.00131835 0.999988)
(0.00389695 -0.00269296 0.999989)
(-0.00960409 -0.00796233 0.999922)
(0.0184591 0.0138212 0.999734)
(0.978334 -0.203452 0.0383381)
(0.37974 -0.0308069 0.92458)
(0.0244259 0.00230134 0.999699)
(0.94209 -0.334717 -0.0207706)
(0.978567 -0.204004 -0.0280812)
(0.321702 -0.024074 0.946535)
(0.942213 -0.333437 0.032474)
(0.97861 -0.203703 -0.0287682)
(0.0127087 0.00269919 0.999916)
(0.319184 -0.0236713 0.947397)
(0.942333 -0.33352 0.0277947)
(0.381968 -0.0309915 0.923656)
(0.942267 -0.334009 -0.0238745)
(0.978479 -0.20308 0.0365685)
(-0.00998321 -0.00884285 0.999911)
(0.0187425 0.0137392 0.99973)
(0.00512382 0.00194643 0.999985)
(0.00803211 0.00657632 0.999946)
(0.00456721 -0.00227311 0.999987)
(0.00398128 -0.00252034 0.999989)
(0.00481644 0.00224062 0.999986)
(0.00804014 0.00673944 0.999945)
(0.0188906 0.0135834 0.999729)
(-0.00963161 -0.00876483 0.999915)
(0.919436 -0.391787 -0.0337804)
(0.92005 -0.389796 0.0395796)
(0.856023 -0.515503 0.0384981)
(0.819074 -0.573637 -0.00768179)
(0.85553 -0.515206 -0.0513004)
(0.919761 -0.390777 0.0365144)
(0.92003 -0.390317 -0.0345905)
(0.855509 -0.515576 -0.0478159)
(0.819129 -0.573609 -0.00104018)
(0.856094 -0.514952 0.0438976)
(0.978683 -0.203307 -0.0290685)
(0.0114013 0.00359748 0.999929)
(0.50011 -0.0395247 0.865059)
(0.942401 -0.333351 0.0275075)
(0.978557 -0.202737 0.0363956)
(0.486572 -0.0398912 0.872729)
(0.942324 -0.33382 -0.0242711)
(0.978464 -0.202925 0.0378023)
(0.0230624 0.00323185 0.999729)
(0.45076 -0.0361341 0.891914)
(0.942264 -0.334253 -0.0203225)
(0.978704 -0.203396 -0.0277214)
(0.395194 -0.0299724 0.918108)
(0.94239 -0.332979 0.0320284)
(0.919481 -0.391765 -0.0327825)
(0.920062 -0.389735 0.0399152)
(0.855367 -0.516647 0.0377271)
(0.81815 -0.574944 -0.00833718)
(0.854966 -0.516258 -0.0501135)
(0.919691 -0.390929 0.0366479)
(0.920015 -0.390454 -0.0334321)
(0.855 -0.516486 -0.0470825)
(0.818222 -0.5749 -0.00173824)
(0.855566 -0.5159 0.0430562)
(-0.00974275 -0.00847144 0.999917)
(0.019856 0.0143764 0.999699)
(0.00753606 0.00244788 0.999969)
(0.0114454 0.00696044 0.99991)
(0.00664352 -0.00182786 0.999976)
(0.00497378 -0.00193839 0.999986)
(0.00642825 0.00277733 0.999975)
(0.00969386 0.00726403 0.999927)
(0.0211881 0.0142705 0.999674)
(-0.00867624 -0.00833382 0.999928)
(0.0194247 0.0135911 0.999719)
(-0.00986107 -0.00878216 0.999913)
(0.00397469 -0.00188836 0.99999)
(0.00461482 0.00235437 0.999987)
(0.00764743 0.00692283 0.999947)
(-0.0102531 -0.0084609 0.999912)
(0.0185032 0.0139147 0.999732)
(0.00873234 0.00645933 0.999941)
(0.00508232 0.00188357 0.999985)
(0.00435239 -0.00224196 0.999988)
(0.919714 -0.390925 0.0361024)
(0.92005 -0.390234 -0.035004)
(0.8554 -0.5158 -0.0473413)
(0.818767 -0.574124 -0.00139977)
(0.855973 -0.515223 0.0430816)
(0.919613 -0.39144 -0.0329695)
(0.920181 -0.389543 0.0390332)
(0.855704 -0.5161 0.0375823)
(0.818665 -0.574214 -0.00811311)
(0.855243 -0.515639 -0.051741)
(0.919532 -0.391297 0.0367018)
(0.919991 -0.390677 -0.0314431)
(0.85476 -0.517047 -0.0452519)
(0.817666 -0.575691 -0.00144971)
(0.855145 -0.516536 0.0437962)
(0.919469 -0.391895 -0.0315361)
(0.919982 -0.38985 0.0406372)
(0.854821 -0.51741 0.0395951)
(0.817612 -0.575719 -0.00758058)
(0.8548 -0.516911 -0.0460461)
(0.023312 0.0146537 0.999621)
(-0.00737461 -0.00802603 0.999941)
(0.0102302 0.0034449 0.999942)
(0.00789275 -0.00150386 0.999968)
(0.0127366 0.00781453 0.999888)
(0.014903 0.00701833 0.999864)
(0.0118399 0.00302462 0.999925)
(0.00986172 -0.00147784 0.99995)
(-0.00832798 -0.00797431 0.999934)
(0.021825 0.0151593 0.999647)
(0.978693 -0.200809 0.0428375)
(0.969718 -0.0810388 0.23039)
(0.0321523 -0.00228726 0.99948)
(0.942455 -0.333978 -0.0154337)
(0.979275 -0.201522 -0.0202497)
(0.982561 -0.08218 0.166795)
(0.942523 -0.332308 0.0349627)
(0.97936 -0.201269 -0.0185643)
(0.00851157 -0.000229973 0.999964)
(0.99284 -0.0829852 0.0859185)
(0.942484 -0.333021 0.028643)
(0.985402 -0.0830258 0.148629)
(0.942572 -0.333639 -0.0155994)
(0.978798 -0.200772 0.040557)
(-0.00746296 -0.00830065 0.999938)
(0.0240422 0.0156443 0.999589)
(0.0194989 0.00542562 0.999795)
(0.0140458 -0.00215564 0.999899)
(0.0113461 -0.00176617 0.999934)
(0.0169107 0.00794485 0.999825)
(0.0249989 0.0139468 0.99959)
(-0.00729124 -0.00885935 0.999934)
(0.919283 -0.392472 -0.0297351)
(0.919526 -0.390834 0.0414883)
(0.853763 -0.518518 0.0472069)
(0.817095 -0.576497 -0.00281934)
(0.854938 -0.517619 -0.0339412)
(0.918828 -0.393009 0.0360421)
(0.919739 -0.391563 -0.0275587)
(0.854609 -0.517797 -0.0391231)
(0.817035 -0.576585 0.00180313)
(0.854294 -0.517552 0.0481827)
(0.979225 -0.202426 -0.0118883)
(-0.534557 0.11005 0.837937)
(0.996079 -0.0859704 0.0208719)
(0.941112 -0.337129 0.0255259)
(0.978184 -0.203607 0.0412309)
(0.995215 -0.0855745 0.0471565)
(0.941686 -0.336335 -0.0102623)
(0.978538 -0.201585 0.0427489)
(-0.123125 0.0130414 0.992306)
(0.993233 -0.0833996 0.0808219)
(0.942107 -0.335052 -0.0132538)
(0.97939 -0.20134 -0.0160637)
(0.995066 -0.0841685 0.0525264)
(0.941867 -0.334391 0.0326852)
(0.91623 -0.400179 -0.0194896)
(0.912535 -0.406445 0.045634)
(0.839993 -0.53163 0.108546)
(0.814506 -0.576926 0.0611284)
(0.849262 -0.525232 0.0537172)
(0.907582 -0.417358 0.0458962)
(0.913957 -0.405807 -0.00160989)
(0.853105 -0.521487 0.0162104)
(0.814718 -0.577732 0.0496032)
(0.845816 -0.52572 0.0906328)
(-0.0176585 -0.0207039 0.99963)
(0.0428465 0.00961372 0.999035)
(0.498219 -0.0155582 0.866911)
(0.0984405 -0.0175428 0.994988)
(0.0322801 -0.0118316 0.999409)
(0.0790817 -0.00368335 0.996861)
(0.175999 0.0267751 0.984026)
(-0.0186316 -0.0280043 0.999434)
(0.0277766 0.00958139 0.999568)
(-0.0123454 -0.0134165 0.999834)
(0.015768 -0.00363472 0.999869)
(0.0224184 0.00545361 0.999734)
(-0.00921426 -0.0106281 0.999901)
(0.0251089 0.0139964 0.999587)
(0.033448 -0.000386607 0.99944)
(0.0197755 -0.00559242 0.999789)
(0.916212 -0.399157 0.0350566)
(0.918534 -0.394809 -0.0205098)
(0.854664 -0.518698 -0.0223981)
(0.816391 -0.577336 0.0137361)
(0.852305 -0.519466 0.0610896)
(0.918638 -0.394192 -0.0267699)
(0.917886 -0.394644 0.0417201)
(0.850677 -0.521353 0.0673773)
(0.816641 -0.576993 0.0133064)
(0.854787 -0.518955 -0.00510815)
(0.847127 -0.524701 0.0840453)
(0.891498 -0.450433 0.04839)
(0.840151 -0.535036 0.0887828)
(0.79928 -0.580793 0.154375)
(0.825702 -0.547231 0.13695)
(0.907719 -0.419488 0.00867914)
(0.89223 -0.446188 0.0695862)
(0.798945 -0.574795 0.17691)
(0.785404 -0.584247 0.20444)
(0.814611 -0.561197 0.146517)
(0.910925 0.206718 0.357047)
(0.930995 0.20421 0.302566)
(0.730938 -0.0277745 0.681879)
(0.929702 -0.0212689 0.367698)
(0.934326 -0.0314841 0.355026)
(0.937957 -0.0338748 0.345093)
(0.11797 -0.0138163 0.992921)
(0.890747 0.193202 0.411392)
(0.926996 -0.370159 0.0605087)
(0.977786 -0.165436 0.128708)
(0.921254 -0.386326 0.045211)
(0.878607 -0.470893 0.079434)
(0.940553 -0.321096 0.110712)
(0.969731 -0.22723 0.089377)
(0.861132 -0.506457 0.0442002)
(0.944597 -0.326244 0.0360644)
(0.982477 -0.179468 0.0503025)
(0.897421 -0.438927 0.0444695)
(-0.49826 0.815262 -0.2951)
(0.784715 -0.619248 0.0274747)
(-0.597896 0.740551 -0.306765)
(0.92414 -0.380377 0.0357479)
(0.839227 -0.543728 0.00763708)
(0.984265 -0.172507 0.038268)
(0.816774 -0.576894 0.00858111)
(0.912668 0.198704 0.357148)
(0.958291 0.0860519 0.272532)
(0.973575 -0.198544 0.112839)
(0.93026 -0.0525691 0.363116)
(0.961522 -0.14257 0.234838)
(0.995312 -0.0817933 0.0516174)
(0.830691 -0.551147 0.0786735)
(0.778219 -0.625017 0.0610673)
(-0.445293 0.839455 -0.311495)
(0.763037 -0.644559 0.0481533)
(0.795784 -0.604801 0.0307134)
(0.777291 -0.605626 0.170397)
(-0.564629 0.733794 -0.37781)
(0.734301 -0.666795 0.127224)
(0.943498 -0.331363 0.00325262)
(-0.0319599 0.0191199 0.999306)
(0.094102 -0.0175178 0.995408)
(-0.0106712 0.0169018 0.9998)
(0.950026 -0.310946 0.027632)
(0.0665971 -0.00875611 0.997742)
(0.546989 -0.132823 0.826535)
(0.0843609 -0.00224387 0.996433)
(0.930587 -0.292013 0.220765)
(0.012283 -0.00268646 0.999921)
(0.0508019 -0.0144143 0.998605)
(0.945988 -0.302914 -0.115546)
(0.0122051 0.0123812 0.999849)
(0.00745773 0.00838381 0.999937)
(0.529627 -0.125904 0.838835)
(-0.489889 0.132085 0.861721)
(-0.0074905 -0.00467002 0.999961)
(0.950432 -0.30486 0.0611522)
(0.939018 -0.288441 0.187209)
(0.0323247 0.00457743 0.999467)
(0.0849438 -0.0236735 0.996104)
(0.0467021 -0.0130103 0.998824)
(0.95331 -0.301039 0.0239749)
(0.417056 -0.0899302 0.904421)
(0.0424621 0.0125309 0.999019)
(0.948641 -0.302651 0.092099)
(-0.00483562 -0.00517426 0.999975)
(0.0135623 0.00472896 0.999897)
(0.754212 -0.199003 -0.625749)
(0.949885 -0.303421 -0.0751882)
(0.716396 -0.178883 0.674372)
(0.0227562 0.0116295 0.999673)
(0.995521 -0.0907833 -0.0264015)
(0.994846 -0.00348458 0.101336)
(0.994981 -0.0899537 0.0438328)
(0.994113 -0.00402536 0.10827)
(0.994915 -0.0906629 0.0438639)
(0.996329 -0.00467969 0.0854764)
(0.995409 -0.0913584 -0.0285574)
(0.994924 -0.00439532 0.100531)
(0.950325 -0.302919 -0.0715662)
(0.0229881 0.00241701 0.999733)
(0.737548 -0.182549 0.650153)
(0.0321574 0.00853283 0.999446)
(0.949174 -0.299997 0.0952399)
(0.715056 -0.188406 -0.673199)
(0.00554977 -0.00780592 0.999954)
(0.949955 -0.302766 -0.0769242)
(0.0300334 0.00815713 0.999516)
(0.0199785 0.00286035 0.999796)
(0.765885 -0.190729 0.614037)
(0.742109 -0.19485 -0.641333)
(0.00219517 -0.00769928 0.999968)
(0.949665 -0.300488 0.0885661)
(0.995074 -0.0896621 0.0422886)
(0.996109 -0.00345388 0.0880655)
(0.995555 -0.0902321 -0.0269853)
(0.997048 -0.003643 0.0766911)
(0.995527 -0.0899931 -0.028769)
(0.997368 -0.00345083 0.072421)
(0.997435 -0.00375414 0.071475)
(0.995138 -0.0894359 0.0412556)
(0.948863 -0.300983 0.0952282)
(0.0132889 0.00515119 0.999898)
(0.765648 -0.201059 -0.611031)
(-0.00280486 -0.00465808 0.999985)
(0.950782 -0.302103 -0.0689022)
(0.710594 -0.175525 0.681357)
(0.022837 0.0124191 0.999662)
(0.949481 -0.299945 0.0922937)
(-0.0030031 -0.00508655 0.999983)
(0.0155944 0.00493916 0.999866)
(0.852898 -0.222749 -0.472173)
(0.95119 -0.301143 -0.0674566)
(0.795563 -0.197677 0.572715)
(0.0256833 0.0119833 0.999598)
(0.95106 -0.301396 -0.0681564)
(0.0260201 0.0031267 0.999657)
(0.844863 -0.210133 0.491986)
(0.0365403 0.00831241 0.999298)
(0.95018 -0.29845 0.0899148)
(0.856692 -0.223523 -0.464884)
(0.00708894 -0.00775294 0.999945)
(0.951724 -0.300718 -0.0615614)
(0.0406311 0.00718442 0.999148)
(0.0287992 0.00204681 0.999583)
(0.905198 -0.227237 0.359138)
(0.92011 -0.238437 -0.310717)
(0.00971039 -0.0087537 0.999915)
(0.950743 -0.297758 0.0861896)
(0.949754 -0.299144 0.0920875)
(0.0189539 0.00527856 0.999806)
(0.899199 -0.234586 -0.369338)
(0.000381723 -0.00533818 0.999986)
(0.951688 -0.300726 -0.0620824)
(0.84592 -0.210706 0.489921)
(0.0299986 0.0120129 0.999478)
(0.950725 -0.307001 0.0432633)
(0.84771 -0.181058 -0.498604)
(0.963118 -0.242467 -0.116676)
(0.962624 -0.248677 -0.107309)
(0.951808 -0.303873 -0.0414978)
(0.967054 -0.253921 0.0181788)
(0.963167 -0.225391 -0.146654)
(0.94915 -0.314586 -0.0122722)
(0.967729 -0.244142 -0.0624177)
(0.9645 -0.26401 -0.00620005)
(0.970706 -0.239254 -0.0220554)
(0.947086 -0.3178 0.0450599)
(0.963948 -0.258009 -0.0650789)
(0.969882 -0.240328 -0.0396337)
(0.934145 -0.353901 0.0461132)
(0.965726 -0.254061 0.0531711)
(0.972284 -0.233612 0.00942958)
(0.955814 -0.293007 0.0237776)
(0.957267 -0.289202 0.00141588)
(0.963308 -0.264348 0.0464536)
(0.930375 -0.35973 0.0706956)
(0.944164 -0.326235 0.0460902)
(0.964793 -0.25927 -0.0442054)
(0.961694 -0.268236 -0.0565188)
(0.968392 -0.247851 -0.028048)
(0.946904 -0.321507 -0.00238344)
(0.96241 -0.271526 -0.00634823)
(0.969495 -0.244952 -0.00883612)
(0.935952 -0.348464 -0.0506674)
(0.942223 -0.32164 0.0936114)
(0.943719 -0.327517 0.0461232)
(0.0173203 0.0107892 0.999792)
(0.0487906 -0.00145835 0.998808)
(0.0118583 -0.00549245 0.999915)
(0.946054 -0.323892 -0.00866127)
(0.947793 -0.317996 -0.0238153)
(0.94632 -0.317307 0.0615976)
(0.949436 -0.308952 0.055856)
(0.0212629 0.00658351 0.999752)
(-0.00876491 -0.00111149 0.999961)
(0.00744051 -0.00397652 0.999964)
(0.0272794 0.00806309 0.999595)
(0.948394 -0.307198 0.0786054)
(-0.0161409 -0.00237238 0.999867)
(0.0069161 0.00710996 0.999951)
(-0.647306 0.173301 0.742268)
(0.946872 -0.305476 -0.10059)
(0.0175851 0.0122143 0.999771)
(0.664869 -0.167665 0.727899)
(0.950723 -0.304638 -0.0576308)
(0.030894 0.00116363 0.999522)
(0.0404708 0.00758332 0.999152)
(0.679054 -0.166502 0.714956)
(0.0137853 -0.00846722 0.999869)
(-0.629898 0.168363 0.75821)
(0.947244 -0.299625 0.113813)
(-0.0154087 0.00096511 0.999881)
(0.0215676 0.00680642 0.999744)
(0.0302073 0.00388051 0.999536)
(-0.00375751 -0.00290199 0.999989)
(0.944951 -0.326405 -0.0229663)
(0.94562 -0.32509 0.0108932)
(0.946566 -0.321072 0.0304377)
(0.947392 -0.320058 0.00347189)
(0.94904 -0.30393 -0.0833643)
(0.0180219 0.00420668 0.999829)
(0.0281617 0.00847075 0.999567)
(0.723395 -0.179971 0.666566)
(0.949432 -0.302137 0.0853891)
(0.000661191 -0.00694493 0.999976)
(-0.67416 0.178997 0.716567)
(0.994851 -0.0909138 0.044797)
(0.986 -0.00331522 0.166712)
(0.995539 -0.0916742 -0.0223168)
(0.993912 -0.00394645 0.110106)
(0.947762 -0.30033 0.10747)
(0.0178324 0.0052962 0.999827)
(0.00559123 -0.00531341 0.99997)
(-0.657575 0.174312 0.732946)
(0.95127 -0.302907 -0.0577215)
(0.0264856 0.0127655 0.999568)
(0.631023 -0.152885 0.76055)
(0.995365 -0.0914375 -0.0298032)
(0.9974 -0.00476026 0.0719021)
(0.995014 -0.0910907 0.040611)
(0.99723 -0.00465183 0.0742333)
(0.946623 -0.322302 -0.00508735)
(0.947508 -0.319109 0.0199568)
(0.947276 -0.31983 0.0194002)
(0.948209 -0.317615 -0.00453117)
(-0.0126113 -0.000711738 0.99992)
(0.0223171 0.00629933 0.999731)
(0.0273191 0.00416182 0.999618)
(-0.00692431 -0.00277716 0.999972)
(0.0270085 0.0039297 0.999627)
(-0.00768571 -0.00245432 0.999967)
(-0.00993881 -0.000176478 0.999951)
(0.0224078 0.007379 0.999722)
(0.946841 -0.321481 0.0118818)
(0.948003 -0.318091 -0.0103828)
(0.947107 -0.320796 0.0088329)
(0.94827 -0.316256 0.0276897)
(0.947386 -0.319747 0.0148638)
(0.948445 -0.316843 -0.0078775)
(0.947319 -0.320293 -0.000245794)
(0.948316 -0.316561 0.02203)
(0.0271615 0.00370303 0.999624)
(-0.00794177 -0.00286043 0.999964)
(-0.0131466 -0.000114494 0.999914)
(0.0214342 0.00688676 0.999747)
(0.949088 -0.30103 0.0928029)
(-0.00427676 -0.0053581 0.999976)
(0.013586 0.00429374 0.999898)
(0.800054 -0.209311 -0.562229)
(0.950666 -0.302013 -0.0708712)
(0.0231413 0.011598 0.999665)
(0.747099 -0.185969 0.638168)
(0.995627 -0.0892521 -0.0275703)
(0.997203 -0.00255693 0.0746911)
(0.996984 -0.00297914 0.0775517)
(0.995189 -0.0885734 0.0418653)
(0.995121 -0.0890198 0.042546)
(0.997152 -0.00326 0.0753443)
(0.995587 -0.089664 -0.0276906)
(0.997012 -0.00313837 0.0771847)
(0.950432 -0.302014 -0.073935)
(0.0208104 0.00266468 0.99978)
(0.0310868 0.00835146 0.999482)
(0.780098 -0.193748 0.594903)
(0.00319523 -0.00776204 0.999965)
(0.767026 -0.200628 -0.609442)
(0.949816 -0.299485 0.0903241)
(-0.0133386 -0.000736104 0.999911)
(0.0219455 0.00624857 0.99974)
(0.0270046 0.00391369 0.999628)
(-0.00815322 -0.00281736 0.999963)
(0.947285 -0.320382 -0.00273509)
(0.948251 -0.316841 0.0207936)
(0.947669 -0.318827 0.0165107)
(0.948655 -0.31624 -0.00675849)
(0.950539 -0.301813 -0.073372)
(0.0218316 0.00293558 0.999757)
(0.0323855 0.0083128 0.999441)
(0.806605 -0.200557 0.556026)
(0.950008 -0.299251 0.0890721)
(0.00371446 -0.00771409 0.999963)
(0.801229 -0.20943 -0.560509)
(0.995209 -0.0882699 0.0420441)
(0.997481 -0.00243263 0.0708952)
(0.995667 -0.0888793 -0.0273555)
(0.997617 -0.00245484 0.0689489)
(0.949371 -0.300301 0.0922761)
(0.0129897 0.00489812 0.999904)
(-0.00432317 -0.00491065 0.999979)
(0.818567 -0.213796 -0.533142)
(0.950992 -0.301297 -0.0695284)
(0.0231193 0.0121135 0.999659)
(0.761491 -0.188866 0.620049)
(0.947678 -0.319221 -0.00205196)
(0.948627 -0.315714 0.0207745)
(0.948083 -0.317611 0.0161961)
(0.949172 -0.314713 -0.00533394)
(-0.0134898 -0.000322566 0.999909)
(0.0229565 0.00658614 0.999715)
(0.0298087 0.00413778 0.999547)
(-0.00671348 -0.00243294 0.999975)
(0.0277958 0.00392736 0.999606)
(-0.00795384 -0.00271832 0.999965)
(-0.0140578 -0.000327176 0.999901)
(0.0215385 0.00661366 0.999746)
(0.947805 -0.318463 0.0157306)
(0.94884 -0.315685 -0.00684371)
(0.94759 -0.319482 -0.00212505)
(0.948558 -0.315934 0.0205856)
(0.948459 -0.316625 0.0132176)
(0.94964 -0.313293 -0.00562649)
(0.947963 -0.318378 -0.00125047)
(0.948881 -0.314968 0.0205104)
(0.031548 0.00370287 0.999495)
(-0.00658621 -0.0025168 0.999975)
(-0.0124515 -4.49105e-05 0.999922)
(0.0250097 0.00684837 0.999664)
(0.950432 -0.29872 0.0862873)
(0.000585978 -0.00658768 0.999978)
(0.0155751 0.0040023 0.999871)
(0.939705 -0.243706 -0.239919)
(0.952271 -0.30009 -0.0559055)
(0.0328447 0.0107259 0.999403)
(0.915288 -0.230961 0.330008)
(0.952335 -0.300286 -0.0537198)
(0.0136953 -0.00271126 0.999903)
(0.0378783 0.00296183 0.999278)
(0.953637 -0.243334 0.177101)
(0.00325036 -0.0125253 0.999916)
(0.952673 -0.244331 -0.180874)
(0.951645 -0.298463 0.0727459)