/*--------------------------------*- C++ -*----------------------------------*\
| =========                 |                                                 |
| \\      /  F ield         | OpenFOAM: The Open Source CFD Toolbox           |
|  \\    /   O peration     | Version:  2012                                  |
|   \\  /    A nd           | Website:  www.openfoam.com                      |
|    \\/     M anipulation  |                                                 |
\*---------------------------------------------------------------------------*/
FoamFile
{
    version     2.0;
    format      ascii;
    class       volVectorField;
    location    "0.105/solid";
    object      sigmaMidDir;
}
// * * * * * * * * * * * * * * * * * * * * * * * * * * * * * * * * * * * * * //

dimensions      [1 -1 -2 0 0 0 0];


internalField   nonuniform List<vector> 
3125
(
(-0.0233354 0.00942153 0.999683)
(-0.0149946 0.00929419 0.999844)
(-0.000387099 0.00587783 0.999983)
(7.21102e-05 0.0058036 0.999983)
(-0.00114273 0.00737048 0.999972)
(-0.00294854 0.00774839 0.999966)
(-0.0825526 -0.0490904 0.995377)
(-0.137373 -0.0819578 0.987123)
(-0.0031094 0.00700588 0.999971)
(-0.0015686 0.00666457 0.999977)
(0.000588265 0.00588387 0.999983)
(0.000760677 0.00615697 0.999981)
(-0.0129045 0.00386178 0.999909)
(-0.0200442 -0.00136549 0.999798)
(-0.00560536 -0.00149326 0.999983)
(-0.0180385 0.0101142 0.999786)
(-0.270892 0.00352179 0.962603)
(0.961411 -0.260454 -0.0886192)
(0.00547169 -0.00590985 0.999968)
(0.965837 -0.25914 0.00250724)
(-0.00758683 0.0101513 0.99992)
(-0.196092 0.00171765 0.980584)
(0.000300865 0.00533115 0.999986)
(-0.0117597 -0.00404386 0.999923)
(0.968796 -0.240184 -0.0611969)
(0.010796 0.00372107 0.999935)
(0.966871 -0.255192 -0.00614863)
(0.000138166 0.00562399 0.999984)
(0.00387273 0.00550261 0.999977)
(0.967358 -0.252158 -0.0251854)
(0.00416125 0.00528097 0.999977)
(0.967464 -0.25203 -0.0222201)
(0.0036141 0.00560011 0.999978)
(0.000698132 0.00552564 0.999984)
(0.967793 -0.251595 -0.00878864)
(0.00529761 0.00489498 0.999974)
(0.968556 -0.248644 -0.00865441)
(-9.54571e-05 0.00691553 0.999976)
(0.0049338 0.00690241 0.999964)
(0.968425 -0.247737 -0.027909)
(0.00416079 0.00671278 0.999969)
(0.968937 -0.245584 -0.029155)
(0.00317721 0.00764478 0.999966)
(-0.00503961 0.007537 0.999959)
(0.969066 -0.246515 -0.0118825)
(0.00282879 0.00727064 0.99997)
(0.134461 -0.104735 0.985368)
(-0.0498406 -0.0261022 0.998416)
(-0.102872 -0.0493438 0.99347)
(0.139255 0.700442 -0.699992)
(-0.0566924 -0.0240447 0.998102)
(0.24669 0.969087 0.00374413)
(-0.182119 -0.0959171 0.978587)
(-0.246038 -0.146065 0.958191)
(0.190191 0.859899 -0.473709)
(-0.345131 -0.195159 0.91804)
(-0.00632977 0.00227623 0.999977)
(0.989355 0.141844 -0.0325204)
(0.00624166 0.00466696 0.99997)
(0.00546249 0.00230843 0.999982)
(0.988636 0.148528 -0.0231825)
(0.989894 0.141799 -0.00170763)
(0.964289 -0.264587 0.0118729)
(0.000419948 0.00550998 0.999985)
(0.00125635 0.00708467 0.999974)
(0.966213 -0.255263 -0.0356706)
(0.00653122 0.00467944 0.999968)
(0.989819 0.141954 -0.0103852)
(0.990263 0.139137 -0.00454999)
(0.00302272 0.00260857 0.999992)
(0.0139478 0.00423679 0.999894)
(0.966538 -0.255767 -0.0196737)
(0.000923384 0.00558382 0.999984)
(0.00270166 0.00671483 0.999974)
(0.967487 -0.252257 -0.0183116)
(0.00670399 0.00477638 0.999966)
(0.00291641 0.00206286 0.999994)
(0.0123458 0.00411881 0.999915)
(0.989846 0.142009 -0.00612174)
(0.989968 0.14119 -0.0052966)
(0.989685 0.143008 -0.00851161)
(0.989915 0.141596 -0.00437556)
(0.012049 0.00461568 0.999917)
(0.0039084 0.00208335 0.99999)
(0.0117605 0.00412501 0.999922)
(0.00312975 0.00195832 0.999993)
(0.989821 0.142202 -0.00575791)
(0.989849 0.142041 -0.00475239)
(0.967843 -0.251443 -0.00754257)
(0.000333659 0.00569306 0.999984)
(0.00475947 0.00538052 0.999974)
(0.967971 -0.249976 -0.023336)
(0.00376163 0.00543275 0.999978)
(0.989773 0.142563 -0.00502287)
(0.989841 0.142084 -0.00512481)
(0.00333274 0.00213414 0.999992)
(0.011867 0.00409104 0.999921)
(0.968146 -0.2492 -0.0243234)
(0.000860077 0.00638436 0.999979)
(0.00410948 0.00592591 0.999974)
(0.968354 -0.249475 -0.00721259)
(0.00544441 0.00584779 0.999968)
(0.00474529 0.00303111 0.999984)
(0.0131114 0.00480021 0.999903)
(0.989544 0.143986 -0.00845586)
(0.989665 0.143263 -0.00623387)
(0.989755 0.142684 -0.00511322)
(0.989697 0.143072 -0.00545521)
(0.0122998 0.00433832 0.999915)
(0.00415568 0.00250538 0.999988)
(0.0134847 0.00533445 0.999895)
(0.00314489 0.00300781 0.999991)
(0.989496 0.144237 -0.0096577)
(0.969815 -0.243662 -0.00937491)
(-0.00847484 0.00654192 0.999943)
(-0.00508365 0.0042716 0.999978)
(0.970008 -0.243038 -0.00407444)
(-0.00112216 0.00684589 0.999976)
(-0.00653492 0.000459213 0.999979)
(0.0106581 0.00501275 0.999931)
(0.13621 -0.0873343 0.986823)
(-0.0309021 -0.0108476 0.999464)
(-0.0148993 -0.000129119 0.999889)
(0.96942 -0.24074 0.0476408)
(-0.0292335 -0.00919569 0.99953)
(-0.138933 -0.0449082 0.989283)
(-0.0459631 -0.0121642 0.998869)
(-0.00271527 0.00141241 0.999995)
(-0.0393504 -0.00988802 0.999177)
(-0.178487 -0.0599844 0.982112)
(-0.46838 -0.190644 0.862714)
(0.26065 0.964898 0.0321602)
(-0.616924 -0.190651 0.763582)
(-0.614283 -0.230484 0.754675)
(-0.0562452 -0.012241 0.998342)
(-0.659914 -0.332146 0.673938)
(-0.0389375 0.0181282 0.999077)
(0.945705 -0.314158 -0.0833518)
(-0.0296002 0.0141145 0.999462)
(0.972241 -0.108801 -0.207145)
(-0.0103407 -0.00436582 0.999937)
(0.956248 -0.27672 -0.0949513)
(-0.0667316 0.0391444 0.997003)
(0.909015 -0.0879257 -0.407382)
(-0.0822231 0.03696 0.995928)
(-0.0143374 -0.000257893 0.999897)
(0.892761 -0.0931286 -0.4408)
(0.0382101 -0.0123024 0.999194)
(0.991109 -0.0908964 0.0971653)
(0.965771 -0.258568 0.0207362)
(-0.00849656 0.0173448 0.999813)
(0.0382763 -0.0101792 0.999215)
(0.995913 -0.0889619 0.0155867)
(-0.0208523 0.0193335 0.999596)
(-0.0460956 0.0289636 0.998517)
(0.970369 -0.24162 -0.00209725)
(-0.00914945 0.00785664 0.999927)
(0.942608 -0.0847734 -0.32296)
(-0.0064217 0.00102767 0.999979)
(-0.0313854 0.0298136 0.999063)
(0.988734 -0.0862491 -0.122336)
(-0.035099 0.0233933 0.99911)
(0.960691 -0.0873092 -0.263535)
(0.965803 -0.257909 -0.026608)
(0.0208662 -0.00764019 0.999753)
(0.027588 -0.011572 0.999552)
(-0.0266939 0.0235696 0.999366)
(0.962754 -0.0878543 -0.255707)
(0.0257928 -0.0105909 0.999611)
(0.966832 -0.254923 -0.0158297)
(-0.0231562 0.0231052 0.999465)
(0.965354 -0.0867909 -0.246088)
(-0.0343128 0.0237221 0.99913)
(0.0211341 -0.00713894 0.999751)
(0.944595 -0.0856625 -0.316862)
(0.0286803 -0.0114312 0.999523)
(0.97013 -0.0867717 -0.226535)
(0.966811 -0.255384 -0.00747537)
(-0.0205601 0.0214537 0.999558)
(0.0244349 -0.00838659 0.999666)
(0.956025 -0.086078 -0.280369)
(-0.0316581 0.0224364 0.999247)
(-0.0336948 0.0234936 0.999156)
(0.966738 -0.25505 -0.0191789)
(0.0188874 -0.00589257 0.999804)
(0.943328 -0.0849219 -0.320812)
(0.0257527 -0.0101106 0.999617)
(-0.0252388 0.0235972 0.999403)
(0.96949 -0.0875029 -0.228979)
(-0.0349929 0.0247459 0.999081)
(0.766726 -0.06914 -0.63824)
(0.967295 -0.25228 -0.0263578)
(0.0189325 -0.00523844 0.999807)
(0.0252543 -0.00942314 0.999637)
(-0.0263609 0.0251943 0.999335)
(0.738617 -0.0679627 -0.670691)
(0.02514 -0.00910087 0.999643)
(0.968124 -0.250053 -0.0144681)
(-0.0220482 0.0242964 0.999462)
(-0.539611 0.0508248 0.840379)
(-0.0340804 0.024785 0.999112)
(0.0214329 -0.00555782 0.999755)
(-0.669021 0.0610013 0.740736)
(0.0219465 -0.0081636 0.999726)
(-0.231205 0.024581 0.972595)
(0.968741 -0.24749 -0.0169933)
(-0.0228056 0.0241483 0.999448)
(0.019022 -0.00458368 0.999809)
(-0.350124 0.0338713 0.936091)
(-0.0356867 0.0249388 0.999052)
(-0.0367491 0.0257414 0.998993)
(0.967594 -0.250593 -0.0310689)
(0.0174742 -0.00373976 0.99984)
(-0.498661 0.0467258 0.865537)
(0.022661 -0.00809095 0.99971)
(-0.0272207 0.0262703 0.999284)
(-0.39318 0.0393317 0.91862)
(-0.0540872 -0.0126405 0.998456)
(-0.0247681 -0.015618 0.999571)
(0.0299536 -0.175846 0.983962)
(-0.00913491 -0.0481915 0.998796)
(-0.00192577 -0.0362071 0.999342)
(-0.0477413 -0.0364967 0.998193)
(-0.0250861 -0.0215364 0.999453)
(-0.0265429 -0.0578037 0.997975)
(0.0270728 -0.2386 0.970741)
(-0.0732025 -0.0938718 0.992889)
(-0.042654 -0.0452942 0.998063)
(-0.0757682 -0.0400063 0.996323)
(-0.0410692 -0.0876322 0.995306)
(-0.0380244 -0.0330662 0.99873)
(-0.120989 -0.120254 0.985343)
(-0.0734484 0.260221 0.962752)
(0.239422 0.964711 -0.109588)
(0.397818 0.793217 -0.46103)
(-0.24781 -0.448717 0.858629)
(-0.106548 -0.0105243 0.994252)
(-0.132033 -0.0466094 0.990149)
(-0.117058 -0.0703732 0.990629)
(0.257074 0.952082 -0.165688)
(-0.0897833 -0.171499 0.981085)
(-0.0623042 -0.0553273 0.996522)
(-0.0634274 -0.0895343 0.993962)
(-0.146234 -0.224305 0.963485)
(-0.0855453 -0.053174 0.994914)
(-0.0441786 0.0253382 0.998702)
(-0.0614494 0.0511159 0.9968)
(0.000363086 0.00305305 0.999995)
(0.0132095 -0.00995931 0.999863)
(-0.061539 0.0465404 0.997019)
(0.00375904 -0.0185469 0.999821)
(-0.00906939 -0.00213118 0.999957)
(-0.0511752 0.0248906 0.998379)
(0.978266 0.203747 -0.0385172)
(0.990699 0.131661 -0.0343627)
(0.999305 0.00394631 -0.037063)
(0.999274 -0.0107685 -0.0365562)
(0.992198 0.12239 -0.0237472)
(0.9992 -0.0164392 -0.0364678)
(0.973063 0.227295 -0.0385417)
(0.976374 0.215894 -0.00916558)
(-0.0130487 0.0319315 0.999405)
(0.0458649 -0.0144708 0.998843)
(0.0276901 -0.00379608 0.999609)
(0.00163606 0.0029353 0.999994)
(-0.0320108 0.0409406 0.998649)
(0.00212755 -0.00362818 0.999991)
(-0.0236121 0.0389628 0.998962)
(-0.0168527 0.0309338 0.999379)
(0.0137565 0.00423283 0.999896)
(0.064183 -0.0228358 0.997677)
(0.974619 0.223081 -0.0187966)
(0.97403 0.226134 0.0113364)
(0.98868 0.149653 -0.0107552)
(0.999554 0.00587769 -0.0292707)
(0.999961 0.00475842 -0.00750124)
(0.999993 -0.00187052 -0.00328797)
(0.989265 0.146103 -0.00305687)
(0.999996 0.00261283 -0.00129193)
(0.97259 0.232473 -0.00493267)
(0.973465 0.227848 -0.0212332)
(-0.0356015 0.0232529 0.999096)
(0.994972 -0.0930244 -0.0371059)
(0.962754 -0.267651 -0.0382998)
(0.0287571 -0.0110805 0.999525)
(0.0348994 -0.0142195 0.99929)
(0.970628 -0.0914162 -0.22254)
(-0.0272832 0.0233152 0.999356)
(0.0202617 -0.00900506 0.999754)
(0.965576 -0.25828 -0.0308888)
(0.952058 -0.0872745 -0.293204)
(-0.0296276 0.0267022 0.999204)
(0.934805 -0.0870612 -0.344326)
(0.0149208 -0.00477133 0.999877)
(-0.0414127 0.0265141 0.99879)
(0.974612 0.223525 0.0129688)
(0.974773 0.221865 -0.0243595)
(0.990074 0.140111 -0.0110713)
(0.999911 0.00207215 -0.0131647)
(0.999944 -0.000945844 -0.0105333)
(0.999997 -0.00240724 -0.000189694)
(0.990297 0.13871 -0.00840892)
(0.999911 -0.00183026 -0.0132115)
(0.973653 0.226711 -0.0245186)
(0.974322 0.225041 0.00728581)
(0.041343 -0.0178797 0.998985)
(-0.0313934 0.0365858 0.998837)
(-0.0288022 0.039369 0.99881)
(0.0121545 0.00464414 0.999915)
(0.0451733 -0.0131743 0.998892)
(-0.0309569 0.0391561 0.998753)
(0.0256085 -0.0129237 0.999589)
(0.0551812 -0.0205379 0.998265)
(0.00369461 0.00227155 0.999991)
(-0.0297004 0.0375988 0.998851)
(0.0307534 -0.011573 0.99946)
(0.965887 -0.258954 -0.00242325)
(0.990972 -0.0897661 -0.0995817)
(-0.0184587 0.0208372 0.999612)
(-0.0299533 0.0219821 0.99931)
(0.985195 -0.089593 -0.146165)
(0.0272537 -0.00857857 0.999592)
(-0.0350211 0.0246737 0.999082)
(0.966647 -0.25567 -0.0150743)
(0.952098 -0.086598 -0.293274)
(0.0151132 -0.00297673 0.999881)
(0.0216108 -0.00793692 0.999735)
(0.982945 -0.0892212 -0.160807)
(-0.0256077 0.0250325 0.999359)
(0.0323316 -0.0151148 0.999363)
(-0.0286687 0.036044 0.998939)
(-0.0254112 0.0356012 0.999043)
(0.0120268 0.00408177 0.999919)
(0.0489495 -0.0165471 0.998664)
(-0.0259279 0.0361282 0.999011)
(0.0302957 -0.0143998 0.999437)
(0.0482346 -0.0164836 0.9987)
(0.00284867 0.00205661 0.999994)
(-0.029276 0.0371504 0.998881)
(0.973828 0.226998 0.0114618)
(0.974044 0.225272 -0.0221754)
(0.989907 0.141567 -0.00661131)
(0.999958 0.00205489 -0.00893908)
(0.999982 0.000850669 -0.00591793)
(0.999993 0.00049469 -0.00380467)
(0.989962 0.141208 -0.00595801)
(0.999956 0.000652679 -0.00935646)
(0.973503 0.227609 -0.0220628)
(0.973896 0.226762 0.0102617)
(0.973923 0.225864 -0.021434)
(0.974196 0.225421 0.0113223)
(0.999963 0.00208665 -0.00832854)
(0.989706 0.142999 -0.0058471)
(0.999972 0.00116828 -0.00738803)
(0.973573 0.228214 0.00858333)
(0.974128 0.225004 -0.0211608)
(0.99997 0.000439372 -0.00767474)
(0.989817 0.142271 -0.00458328)
(0.999994 0.000697245 -0.00337169)
(-0.0218505 0.0345859 0.999163)
(0.0361713 -0.0143967 0.999242)
(0.0449129 -0.012 0.998919)
(0.00347213 0.00252179 0.999991)
(-0.0276024 0.0382417 0.998887)
(0.0256616 -0.0107916 0.999612)
(-0.0253597 0.0370012 0.998993)
(-0.0218868 0.0337433 0.999191)
(0.013148 0.00417905 0.999905)
(0.0547669 -0.0186002 0.998326)
(-0.0237369 0.0348976 0.999109)
(0.0332365 -0.0150312 0.999334)
(0.0460022 -0.0149492 0.998829)
(0.0027495 0.00209901 0.999994)
(-0.0283955 0.0368818 0.998916)
(0.0292425 -0.0137086 0.999478)
(-0.0265592 0.0358489 0.999004)
(-0.0236576 0.0341712 0.999136)
(0.0122526 0.0039946 0.999917)
(0.0511828 -0.0180084 0.998527)
(0.973438 0.227937 -0.0215355)
(0.973845 0.22692 0.0115227)
(0.989835 0.14213 -0.00499776)
(0.999987 0.00197424 -0.00462561)
(0.999971 0.00144855 -0.00746469)
(0.999966 0.00196685 -0.00802067)
(0.989852 0.142014 -0.00492847)
(0.999992 0.00134711 -0.00389333)
(0.973432 0.228703 0.0111708)
(0.97389 0.226038 -0.0211068)
(-0.0342999 0.0233387 0.999139)
(0.920893 -0.0825457 -0.380976)
(0.966824 -0.254401 -0.023037)
(0.019564 -0.00697639 0.999784)
(0.0264001 -0.0109576 0.999591)
(0.942731 -0.0848998 -0.322569)
(-0.0261323 0.023488 0.999383)
(0.0271329 -0.0108164 0.999573)
(0.967463 -0.252746 -0.011614)
(0.943673 -0.0840433 -0.320029)
(-0.0215505 0.0224079 0.999517)
(0.919976 -0.0824248 -0.383211)
(0.0226283 -0.00762177 0.999715)
(-0.0325215 0.0232304 0.999201)
(0.973328 0.229116 0.011744)
(0.973646 0.227062 -0.0213739)
(0.989805 0.14233 -0.00534869)
(0.999963 0.00292416 -0.00805148)
(0.999988 0.00202063 -0.00456262)
(0.99999 0.00205327 -0.00397611)
(0.989829 0.142169 -0.00508607)
(0.999966 0.00199125 -0.00805372)
(0.97317 0.229081 -0.0215013)
(0.973527 0.228287 0.0113785)
(0.0304214 -0.0147798 0.999428)
(-0.0277534 0.035927 0.998969)
(-0.0237889 0.0351108 0.9991)
(0.0122589 0.00411373 0.999916)
(0.0497157 -0.0168794 0.998621)
(-0.0244204 0.0358749 0.999058)
(0.0313601 -0.0146482 0.999401)
(0.0463677 -0.0156925 0.998801)
(0.00272771 0.00208186 0.999994)
(-0.0289258 0.0370634 0.998894)
(0.0275371 -0.0103581 0.999567)
(0.967671 -0.252011 -0.0101269)
(0.86161 -0.0773073 -0.501648)
(-0.0210891 0.0228582 0.999516)
(-0.0322738 0.0236008 0.9992)
(0.869248 -0.0779382 -0.488193)
(0.0232167 -0.00714857 0.999705)
(-0.033651 0.0238698 0.999149)
(0.967179 -0.253184 -0.0214931)
(0.888378 -0.079421 -0.452191)
(0.0194157 -0.00605419 0.999793)
(0.0262157 -0.0100935 0.999605)
(0.914428 -0.0822861 -0.396296)
(-0.0254699 0.0240441 0.999386)
(0.0301978 -0.0127591 0.999463)
(-0.0271386 0.0382366 0.9989)
(-0.0213854 0.0375489 0.999066)
(0.0137162 0.00501892 0.999893)
(0.0502989 -0.0136396 0.998641)
(-0.0235051 0.0383533 0.998988)
(0.0311414 -0.0121982 0.999441)
(0.0470844 -0.013106 0.998805)
(0.00412524 0.00284771 0.999987)
(-0.0266279 0.039205 0.998876)
(0.972782 0.231439 0.0114391)
(0.973161 0.229009 -0.0226223)
(0.989593 0.143681 -0.00780959)
(0.999923 0.00468332 -0.0114782)
(0.999972 0.00353276 -0.00663704)
(0.999982 0.00350176 -0.00496697)
(0.989635 0.143446 -0.00676018)
(0.999946 0.00354937 -0.00971983)
(0.972617 0.231182 -0.0239148)
(0.972979 0.230663 0.0103648)
(0.972971 0.229874 -0.0220301)
(0.973336 0.229091 0.0116111)
(0.999988 0.00290177 -0.0039692)
(0.98975 0.142729 -0.00490361)
(0.999967 0.00262814 -0.00766578)
(0.973027 0.230384 0.0119269)
(0.973473 0.227818 -0.0211881)
(0.999956 0.00348082 -0.00875496)
(0.989733 0.142832 -0.00529925)
(0.999987 0.00259524 -0.00434657)
(-0.023582 0.0367825 0.999045)
(0.0321463 -0.013854 0.999387)
(0.0464874 -0.0145788 0.998812)
(0.00337397 0.00237359 0.999991)
(-0.0275727 0.0377176 0.998908)
(0.0299606 -0.0137939 0.999456)
(-0.0268245 0.0367339 0.998965)
(-0.0222075 0.0359345 0.999107)
(0.0130377 0.00446034 0.999905)
(0.0507753 -0.0159849 0.998582)
(-0.0241367 0.0369836 0.999024)
(0.0292648 -0.0115294 0.999505)
(0.0462521 -0.0109589 0.99887)
(0.00406284 0.00325235 0.999986)
(-0.0268137 0.0402978 0.998828)
(0.0295105 -0.0111928 0.999502)
(-0.0275798 0.0390352 0.998857)
(-0.0238986 0.0369682 0.999031)
(0.0130168 0.00532002 0.999901)
(0.0466219 -0.0118791 0.998842)
(0.972174 0.232804 -0.0260847)
(0.972519 0.232648 0.00903973)
(0.98945 0.144482 -0.0106206)
(0.999958 0.0047131 -0.00788559)
(0.999906 0.00489427 -0.0127751)
(0.999863 0.00707761 -0.0149526)
(0.989394 0.144749 -0.012153)
(0.999939 0.00495726 -0.00985429)
(0.97236 0.233274 0.00995865)
(0.972766 0.230465 -0.024733)
(-0.0387197 0.0243911 0.998952)
(-0.229249 0.023244 0.97309)
(0.968147 -0.248367 -0.0317127)
(0.0147858 -0.00448199 0.999881)
(0.0189606 -0.00832544 0.999786)
(-0.165785 0.0190079 0.985979)
(-0.028605 0.0240062 0.999302)
(0.0168339 -0.0103061 0.999805)
(0.969835 -0.243621 -0.00831115)
(-0.0854458 0.0092375 0.9963)
(-0.0241258 0.0176924 0.999552)
(-0.147917 0.0146884 0.988891)
(0.0137802 -0.00781886 0.999874)
(-0.0371443 0.0207374 0.999095)
(0.971881 0.235294 0.00920677)
(0.972283 0.232242 -0.0270202)
(0.999776 0.00813829 -0.0195427)
(0.999869 0.00806482 -0.014028)
(0.99991 0.00712269 -0.0113332)
(0.999823 0.0080793 -0.0169749)
(0.97186 0.23394 -0.0275695)
(0.971952 0.235001 0.00916929)
(0.0267998 -0.0129571 0.999557)
(-0.030755 0.0336846 0.998959)
(-0.0391906 0.0264112 0.998883)
(0.00616948 0.00385394 0.999974)
(0.0302743 -0.0155306 0.999421)
(-0.0288696 0.024148 0.999291)
(0.0224786 -0.0175529 0.999593)
(0.0388388 -0.0113926 0.999181)
(-0.000552074 0.00234494 0.999997)
(-0.0342781 0.0363999 0.998749)
(0.00754312 -0.0222238 0.999725)
(0.809752 -0.217181 0.5451)
(-0.0216998 -0.00870609 0.999727)
(-0.0301275 -0.00842402 0.999511)
(-0.0412693 0.00405913 0.99914)
(-0.0475659 -0.00275011 0.998864)
(0.00173559 -0.0256427 0.99967)
(-0.0404438 0.0155417 0.999061)
(0.960893 -0.248358 0.122491)
(-0.0805798 0.0062707 0.996728)
(0.00925637 -0.0135248 0.999866)
(0.0134625 -0.0142822 0.999807)
(-0.052435 0.00329747 0.998619)
(-0.0310011 0.0103735 0.999466)
(-0.0164799 -0.0862456 0.996138)
(-0.0924834 -0.0963702 0.99104)
(-0.258495 -0.216197 0.941509)
(-0.094563 -0.0280658 0.995123)
(-0.164712 -0.166906 0.972117)
(-0.162231 -0.247749 0.955145)
(-0.0713439 -0.164583 0.98378)
(-0.0703078 -0.0841195 0.993972)
(-0.0762745 -0.0219747 0.996845)
(-0.157111 -0.0831195 0.984077)
(0.971759 0.234946 0.0220323)
(0.972675 0.227982 -0.0439098)
(0.867033 0.0024156 -0.498246)
(0.995143 0.00168865 -0.098426)
(0.999465 0.00564263 -0.0322151)
(0.996864 0.00319894 -0.0790701)
(0.959049 0.220695 -0.177537)
(0.972901 0.229913 0.0245792)
(0.972235 0.232173 -0.0292425)
(0.971826 0.235212 0.0151559)
(0.999848 0.00744134 -0.0157406)
(0.999713 0.00836537 -0.0224636)
(0.971456 0.236942 0.0114706)
(0.97216 0.232678 -0.027678)
(0.999414 0.00733375 -0.0334443)
(0.999776 0.00764548 -0.0197324)
(-0.0504141 -0.0280386 0.998335)
(0.00202342 -0.0471831 0.998884)
(0.0116964 -0.0238939 0.999646)
(-0.0189904 -0.00306584 0.999815)
(-0.0635049 0.0131585 0.997895)
(0.0173325 -0.0274827 0.999472)
(-0.0423573 0.00710116 0.999077)
(-0.0918356 -0.0211853 0.995549)
(-0.0186595 -0.00335203 0.99982)
(-0.0199748 -0.0427334 0.998887)
(0.518283 0.780921 -0.348632)
(0.369486 0.661137 -0.652976)
(-0.309404 -0.33838 0.888689)
(-0.253122 -0.092375 0.963014)
(-0.422491 -0.439046 0.792932)
(-0.165426 -0.338797 0.926202)
(-0.348763 -0.582964 0.733837)
(0.565534 0.617984 -0.546138)
(-0.336279 -0.125455 0.933369)
(-0.498724 -0.548766 0.670917)
(-0.399313 0.65938 0.636998)
(-0.292675 -0.0777616 0.953045)
(-0.682352 -0.0132909 0.730903)
(-0.367145 0.0259116 0.929803)
(-0.328953 0.307269 0.892959)
(-0.343781 0.0391595 0.938233)
(0.966732 0.230133 -0.111657)
(-0.402668 -0.084315 0.911454)
(0.106797 0.415141 0.903467)
(0.0455814 0.767175 0.639816)
(0.38212 0.920619 0.0802773)
(0.477521 0.864637 -0.15613)
(-0.138594 -0.0652456 0.988198)
(0.133389 0.799575 0.585566)
(0.505151 0.862205 0.0377391)
(-0.00441744 0.0972292 0.995252)
(0.00591548 0.299775 0.953991)
(-0.0650388 -0.0319292 0.997372)
(0.798961 0.299538 -0.521478)
(0.610581 0.764572 -0.206446)
(0.717907 0.32449 -0.615886)
(0.00892459 0.115035 0.993321)
(0.541533 0.836949 0.0791103)
(0.0549674 0.50474 0.86152)
(0.575386 0.815555 0.0616551)
(-0.370257 0.771993 0.516659)
(-0.21413 0.847745 0.48526)
(-0.0446861 0.318934 0.946723)
(-0.314803 0.393985 0.863525)
(-0.148273 0.450313 0.880474)
(0.0395415 0.831167 0.554615)
(0.547268 0.782427 -0.297162)
(0.62755 0.777635 -0.0382567)
(0.840808 0.272429 -0.467787)
(0.645397 0.755733 -0.111041)
(0.604765 0.796321 0.011508)
(0.609868 0.658794 -0.440513)
(0.751751 0.268283 -0.602407)
(0.672049 0.687677 -0.274683)
(0.00383305 0.0207276 0.999778)
(0.946861 -0.319577 0.0363971)
(0.954769 -0.281691 -0.0952175)
(0.963149 -0.268561 0.0148201)
(-0.0305249 -0.00443975 0.999524)
(0.960285 -0.270986 -0.0664751)
(0.795816 -0.22387 -0.562635)
(0.966755 -0.242068 -0.0823934)
(-0.200335 0.0985043 0.974763)
(0.964878 -0.262399 -0.0125575)
(0.968271 -0.244265 -0.0527846)
(0.104331 -0.0530059 0.993129)
(0.969881 -0.243421 -0.00882499)
(0.964819 -0.262868 -0.00499183)
(0.807573 -0.227652 -0.544059)
(0.832652 -0.221936 0.507381)
(0.970129 -0.242512 0.00613446)
(-0.050211 0.0436093 0.997786)
(-0.168137 0.0897713 0.981668)
(0.968905 -0.24558 -0.0302116)
(0.962567 -0.256299 -0.0881751)
(0.969751 -0.239237 -0.0484589)
(-0.0258338 -0.0021948 0.999664)
(0.872786 -0.238021 -0.426135)
(0.970802 -0.236805 -0.0382925)
(-0.0785645 0.0566214 0.9953)
(0.970694 -0.240294 0.00345065)
(0.965298 -0.260882 -0.0118592)
(0.604071 -0.163306 0.780019)
(0.0660194 -0.0403789 0.997001)
(-0.648835 0.184527 0.738216)
(0.970671 -0.239634 -0.0193082)
(0.0265776 0.000731235 0.999646)
(-0.10132 0.00442922 0.994844)
(-0.0430548 0.010572 0.999017)
(-0.108256 0.00373668 0.994116)
(-0.0431221 0.0101258 0.999018)
(-0.0854649 0.00259328 0.996338)
(0.0286589 -0.000200845 0.999589)
(-0.100513 0.00402554 0.994928)
(0.0627362 -0.0387942 0.997276)
(0.965952 -0.257819 -0.0215881)
(-0.625142 0.179532 0.759583)
(0.970731 -0.238388 -0.0291982)
(-0.0819697 0.0565438 0.99503)
(0.651072 -0.17118 0.739461)
(0.971258 -0.23792 -0.00724777)
(0.06752 -0.041423 0.996858)
(0.970889 -0.237976 -0.0272311)
(0.966028 -0.25777 -0.0185662)
(-0.59029 0.170032 0.78908)
(0.620195 -0.163295 0.767263)
(0.971382 -0.237491 -0.00396098)
(-0.0759446 0.0534511 0.995678)
(-0.0415387 0.0102135 0.999085)
(-0.0880516 0.00398821 0.996108)
(0.0271821 0.000952692 0.99963)
(-0.0766761 0.00407439 0.997048)
(0.0288997 0.000149612 0.999582)
(-0.0724103 0.00312059 0.99737)
(-0.071465 0.00274953 0.997439)
(-0.0405599 0.00958226 0.999131)
(-0.0812817 0.0585547 0.99497)
(0.966053 -0.258089 -0.0115095)
(0.590266 -0.157957 0.791604)
(0.971142 -0.238497 0.001613)
(0.0606125 -0.0367414 0.997485)
(-0.655807 0.185593 0.73176)
(0.971068 -0.23803 -0.0192266)
(-0.0783356 0.0582595 0.995223)
(0.971708 -0.236181 0.00171682)
(0.966954 -0.254577 -0.0138236)
(0.456218 -0.121727 0.881503)
(0.0591539 -0.0366157 0.997577)
(-0.550576 0.158654 0.81957)
(0.971638 -0.235436 -0.0221425)
(0.0597741 -0.0369582 0.997528)
(0.9673 -0.252461 -0.0243882)
(-0.471858 0.140668 0.870381)
(0.971539 -0.234489 -0.0335748)
(-0.076665 0.0558348 0.995492)
(0.450251 -0.115732 0.88537)
(0.972059 -0.234573 -0.00870999)
(0.0534808 -0.0350376 0.997954)
(0.971892 -0.232364 -0.0378518)
(0.968017 -0.249386 -0.0273791)
(-0.343361 0.106938 0.933096)
(0.300972 -0.07721 0.950502)
(0.972428 -0.232921 -0.0114826)
(-0.0731759 0.0546019 0.995823)
(-0.0777907 0.0593809 0.9952)
(0.967401 -0.252676 -0.0170056)
(0.35699 -0.0947154 0.929294)
(0.972003 -0.234962 -0.00162533)
(0.0542613 -0.0342988 0.997938)
(-0.470146 0.139026 0.87157)
(0.971898 -0.233922 -0.0263593)
(-0.041366 0.0126875 0.999064)
(0.475991 -0.15525 0.865639)
(0.0910004 -0.114559 0.98924)
(0.0840022 -0.102541 0.991176)
(0.0227655 -0.0649319 0.99763)
(-0.0335306 -0.0562619 0.997853)
(0.138303 -0.0524938 0.988998)
(-0.0255719 -0.115889 0.992933)
(-0.0665056 -0.486354 0.871227)
(-0.0901748 -0.351317 0.931904)
(-0.00910811 -0.128371 0.991684)
(-0.0636694 -0.0484106 0.996796)
(-0.0180232 -0.307321 0.951435)
(0.00329727 -0.149748 0.988719)
(0.349915 0.88278 -0.313464)
(0.24818 0.96379 0.0975499)
(0.233791 0.971841 -0.0294468)
(0.293829 0.954736 -0.0462966)
(0.287764 0.951995 -0.104391)
(0.263546 0.964379 0.0227245)
(0.348904 0.928026 0.130513)
(-0.07152 -0.0663829 0.995228)
(0.233511 0.921734 -0.309644)
(-0.107754 -0.559485 0.821807)
(-0.0356617 -0.248866 0.967881)
(-0.0507256 -0.156709 0.986341)
(0.197828 0.716823 -0.668602)
(-0.0569179 -0.260046 0.963917)
(0.0540763 5.61696e-05 0.998537)
(-0.0783033 0.0602357 0.995108)
(-0.0449858 0.011052 0.998926)
(0.941279 -0.337392 -0.0126657)
(0.951083 -0.305353 -0.0469052)
(0.950427 -0.310676 -0.012978)
(0.0215608 0.0362595 0.99911)
(0.0229567 -0.00644757 0.999716)
(-0.0614836 0.0103828 0.998054)
(-0.0422221 0.0506463 0.997824)
(0.951488 -0.307147 -0.0182138)
(0.950183 -0.311592 0.00798224)
(0.954429 -0.298324 -0.00828802)
(0.951941 -0.305378 -0.0235156)
(-0.0658103 0.0518074 0.996486)
(0.969573 -0.244337 0.0150722)
(0.962916 -0.269759 -0.00474188)
(0.716112 -0.195322 0.670099)
(0.0896637 -0.0496288 0.994735)
(0.969575 -0.244389 -0.0140683)
(0.699885 -0.200639 -0.685496)
(0.0499319 -0.0330097 0.998207)
(0.965008 -0.260555 -0.0295239)
(0.970047 -0.240009 -0.0374703)
(-0.6876 0.196813 0.698907)
(0.97066 -0.239962 -0.0154146)
(0.733022 -0.193811 0.652009)
(-0.0991444 0.0637638 0.993028)
(0.951309 -0.307877 0.0149574)
(0.949872 -0.312098 -0.0183669)
(0.952547 -0.303138 -0.0276104)
(0.951658 -0.307148 0.00268455)
(0.0197541 -0.0131528 0.999718)
(0.000640145 0.0353494 0.999375)
(-0.0162021 0.0469174 0.998767)
(-0.00362254 0.000124698 0.999993)
(0.0736338 -0.0433583 0.996342)
(0.965111 -0.261333 -0.0162966)
(0.970367 -0.240307 -0.0253026)
(-0.640849 0.184242 0.74523)
(-0.0729683 0.0521831 0.995968)
(0.970803 -0.239868 -0.00230781)
(0.692679 -0.183476 0.697519)
(-0.043966 0.0111232 0.998971)
(-0.166691 0.00579636 0.985992)
(0.0226408 0.00249533 0.999741)
(-0.110087 0.00469416 0.993911)
(-0.0925175 0.0636163 0.993677)
(0.965663 -0.259313 -0.0158495)
(0.970713 -0.240147 -0.00670368)
(0.708092 -0.189254 0.680286)
(0.050571 -0.0314039 0.998227)
(0.970669 -0.239351 -0.0226631)
(0.732272 -0.206265 -0.649024)
(0.0299242 -4.81454e-05 0.999552)
(-0.0718912 0.00242402 0.99741)
(-0.0399325 0.0092598 0.999159)
(-0.0742229 0.0023728 0.997239)
(0.00197738 -0.00997593 0.999948)
(-0.00833149 0.0377543 0.999252)
(-0.00587461 0.0432006 0.999049)
(0.00355162 -0.00366302 0.999987)
(0.95297 -0.302834 0.0118036)
(0.95119 -0.308003 -0.0192928)
(0.953116 -0.301588 -0.0247925)
(0.951983 -0.306097 0.00574191)
(0.952445 -0.303722 -0.0245397)
(0.951129 -0.308724 0.00655261)
(0.953319 -0.301818 0.00942206)
(0.951022 -0.308537 -0.0190389)
(0.00156086 0.0415248 0.999136)
(0.0095038 -0.00431505 0.999946)
(-0.0108712 -0.00456321 0.99993)
(-0.0153365 0.0414839 0.999021)
(-0.0015842 0.0417517 0.999127)
(0.00658955 -0.00513628 0.999965)
(-0.00277967 -0.0089887 0.999956)
(-0.0103958 0.0383939 0.999209)
(0.953189 -0.301358 -0.0247835)
(0.951909 -0.306309 0.00668391)
(0.953509 -0.301106 0.012502)
(0.951524 -0.307029 -0.0182854)
(-0.0792213 0.0570429 0.995224)
(0.97129 -0.23788 0.00287945)
(0.966327 -0.257036 -0.0120261)
(0.542938 -0.146049 0.826975)
(0.0620718 -0.0386474 0.997323)
(0.971232 -0.237315 -0.0197298)
(-0.614125 0.174253 0.769731)
(0.0277402 0.000664234 0.999615)
(-0.0746809 0.00389065 0.9972)
(-0.0775419 0.0032665 0.996984)
(-0.0411182 0.0102431 0.999102)
(-0.0418139 0.0100736 0.999075)
(-0.0753344 0.00305596 0.997154)
(0.0278326 0.000333071 0.999613)
(-0.0771722 0.00393462 0.99701)
(0.0648805 -0.0399176 0.997094)
(0.966545 -0.255759 -0.019437)
(0.971162 -0.236744 -0.0282278)
(-0.571819 0.165094 0.803596)
(0.971661 -0.236328 -0.00493924)
(0.589587 -0.154294 0.79283)
(-0.077429 0.054674 0.995498)
(0.953614 -0.300771 0.0124996)
(0.951831 -0.306034 -0.0189811)
(0.953527 -0.300303 -0.0245834)
(0.952345 -0.304946 0.00690579)
(-0.00068045 -0.0105484 0.999944)
(-0.00936853 0.0375403 0.999251)
(-0.00306252 0.0426355 0.999086)
(0.00553818 -0.00475745 0.999973)
(0.064444 -0.0394474 0.997141)
(0.966748 -0.25492 -0.0203622)
(0.971304 -0.236005 -0.0295108)
(-0.534074 0.155803 0.830958)
(-0.076146 0.0546061 0.9956)
(0.971813 -0.23569 -0.0054281)
(0.542423 -0.141238 0.828148)
(-0.0412709 0.0105672 0.999092)
(-0.0708858 0.00375658 0.997477)
(0.0275635 0.00111359 0.999619)
(-0.0689379 0.00431575 0.997612)
(-0.0784958 0.0576614 0.995245)
(0.966713 -0.255612 -0.0113064)
(0.971532 -0.236891 0.00303687)
(0.515045 -0.137751 0.846022)
(0.0610698 -0.0374147 0.997432)
(0.971498 -0.236235 -0.0196054)
(-0.596573 0.169822 0.784386)
(-0.000870467 -0.00901191 0.999959)
(-0.00852707 0.0401249 0.999158)
(-0.00149142 0.0464864 0.998918)
(0.00503904 -0.00175065 0.999986)
(0.954144 -0.299077 0.0127759)
(0.952255 -0.304658 -0.0198596)
(0.9539 -0.298887 -0.0272101)
(0.953019 -0.302858 0.00566138)
(0.953677 -0.299764 -0.0253409)
(0.95252 -0.3044 0.00674897)
(0.953933 -0.299726 0.0133134)
(0.952035 -0.305429 -0.0184901)
(-0.00182234 0.043924 0.999033)
(0.00593992 -0.00382504 0.999975)
(-0.00113228 -0.0100096 0.999949)
(-0.00890771 0.038363 0.999224)
(0.000940211 0.0445204 0.999008)
(0.0045912 -0.00404225 0.999981)
(-0.00125749 -0.00767163 0.99997)
(-0.00755426 0.0423008 0.999076)
(0.954405 -0.297099 -0.0290241)
(0.953709 -0.300681 0.00552471)
(0.954613 -0.297611 0.0118739)
(0.952604 -0.303433 -0.0217536)
(-0.0724228 0.0571976 0.995733)
(0.972435 -0.233164 -0.00210588)
(0.968145 -0.249996 -0.0140802)
(0.231279 -0.063913 0.970786)
(0.0480387 -0.0335351 0.998282)
(0.972359 -0.231622 -0.0294701)
(-0.315651 0.0976857 0.943834)
(0.0445306 -0.037367 0.998309)