/*--------------------------------*- C++ -*----------------------------------*\
| =========                 |                                                 |
| \\      /  F ield         | OpenFOAM: The Open Source CFD Toolbox           |
|  \\    /   O peration     | Version:  2012                                  |
|   \\  /    A nd           | Website:  www.openfoam.com                      |
|    \\/     M anipulation  |                                                 |
\*---------------------------------------------------------------------------*/
FoamFile
{
    version     2.0;
    format      ascii;
    class       volVectorField;
    location    "0.105/solid";
    object      U;
}
// * * * * * * * * * * * * * * * * * * * * * * * * * * * * * * * * * * * * * //

dimensions      [0 1 -1 0 0 0 0];


internalField   nonuniform List<vector> 
3125
(
(-1.03262e-08 6.37609e-09 -5.4812e-09)
(-7.69493e-09 5.08672e-09 -4.1974e-09)
(-1.86553e-09 1.52776e-09 -1.06649e-09)
(-1.87624e-09 1.34493e-09 -9.33114e-10)
(-3.26948e-09 9.53681e-10 1.61143e-10)
(-2.94402e-09 1.03049e-09 1.47565e-10)
(-2.28934e-09 1.11154e-09 1.0592e-09)
(-2.26941e-09 1.87144e-09 1.45339e-09)
(-3.2681e-09 3.03183e-09 -2.30937e-09)
(-2.62733e-09 2.52018e-09 -1.93797e-09)
(-2.76378e-09 1.01399e-09 -6.82861e-10)
(-3.27094e-09 9.58754e-10 -5.37888e-10)
(-2.43437e-09 1.14512e-09 2.7411e-10)
(-2.40477e-09 1.26288e-09 5.42117e-10)
(-1.3589e-08 8.86213e-09 -6.80159e-09)
(-1.46406e-08 6.73721e-09 -4.39207e-09)
(-2.17684e-08 1.37461e-08 -9.3204e-09)
(-3.57883e-08 1.84868e-08 -2.54996e-09)
(-1.89666e-08 8.97846e-09 -5.55016e-09)
(-2.14381e-08 1.30225e-08 -2.22701e-09)
(-1.13275e-08 5.44787e-09 -3.32271e-09)
(-1.86361e-08 1.28427e-08 -8.38723e-09)
(-5.68523e-09 4.28312e-09 -3.33253e-09)
(-1.12469e-08 1.01648e-08 -6.5495e-09)
(-3.38478e-08 1.79644e-08 -2.53959e-09)
(-8.82395e-09 4.56452e-09 -2.61728e-09)
(-9.64249e-09 6.83131e-09 -1.79987e-09)
(-1.97562e-09 1.76185e-09 -1.29566e-09)
(-3.92313e-09 1.95645e-09 -9.0912e-10)
(-8.51366e-09 5.79731e-09 -1.68123e-09)
(-4.11118e-09 2.16388e-09 -1.06766e-09)
(-8.74216e-09 4.93124e-09 -1.68301e-09)
(-3.88582e-09 1.7953e-09 -8.26406e-10)
(-2.01812e-09 1.19153e-09 -8.29079e-10)
(-8.48525e-09 5.71993e-09 -1.67209e-09)
(-3.96784e-09 1.65453e-09 -7.47058e-10)
(-1.13639e-08 4.32616e-09 -2.98702e-10)
(-3.54183e-09 9.37335e-10 4.62622e-11)
(-4.83175e-09 1.43513e-09 1.29705e-10)
(-1.07303e-08 4.49223e-09 4.29297e-10)
(-4.97121e-09 1.41464e-09 -7.31822e-12)
(-9.869e-09 5.12419e-09 6.43945e-10)
(-4.7241e-09 1.46915e-09 1.73923e-10)
(-2.7018e-09 1.03585e-09 1.89578e-10)
(-1.06199e-08 4.51365e-09 4.65647e-10)
(-4.68278e-09 1.55595e-09 2.38143e-10)
(-9.39127e-09 5.58729e-09 1.32356e-09)
(-2.36209e-09 1.19718e-09 9.54551e-10)
(-3.91331e-09 1.88445e-09 9.66079e-10)
(-9.18776e-09 5.91798e-09 2.65624e-09)
(-4.11157e-09 1.82898e-09 7.39642e-10)
(-9.11539e-09 6.68558e-09 5.32473e-09)
(-3.90055e-09 2.15658e-09 1.32119e-09)
(-2.18315e-09 2.1758e-09 2.4448e-09)
(-9.15078e-09 5.96875e-09 2.93156e-09)
(-3.63964e-09 2.29863e-09 1.95317e-09)
(-9.71876e-09 1.85036e-09 -1.18564e-09)
(-2.32744e-08 1.57107e-08 -7.54875e-09)
(-8.79749e-09 1.70297e-09 -1.00372e-09)
(-6.15433e-09 1.37978e-09 -7.02713e-10)
(-1.98459e-08 1.53667e-08 -7.27281e-09)
(-1.18791e-08 1.22249e-08 -6.23512e-09)
(-2.02044e-08 1.25542e-08 -2.21104e-09)
(-4.24019e-09 3.61844e-09 -2.75884e-09)
(-5.79127e-09 3.28751e-09 -1.78651e-09)
(-1.3594e-08 9.36816e-09 -2.05511e-09)
(-7.02869e-09 3.85711e-09 -2.14133e-09)
(-5.99806e-09 7.87452e-09 -4.4612e-09)
(-9.96279e-09 1.11402e-08 -5.78463e-09)
(-4.37238e-09 1.11024e-09 -5.52911e-10)
(-5.68551e-09 1.31022e-09 -6.47457e-10)
(-9.89418e-09 6.99898e-09 -1.82175e-09)
(-2.21663e-09 2.08919e-09 -1.60017e-09)
(-4.97437e-09 2.82581e-09 -1.52188e-09)
(-1.30299e-08 9.10372e-09 -2.02643e-09)
(-4.44157e-09 2.44752e-09 -1.27625e-09)
(-3.2224e-09 7.62862e-10 -3.73004e-10)
(-3.47178e-09 8.63528e-10 -4.21793e-10)
(-2.65271e-09 2.55355e-09 -2.27477e-09)
(-3.09287e-09 3.79003e-09 -2.85223e-09)
(-5.13741e-09 6.97655e-09 -4.0704e-09)
(-3.43e-09 4.42374e-09 -3.10605e-09)
(-4.16604e-09 1.0563e-09 -5.29402e-10)
(-3.55676e-09 9.0318e-10 -4.46234e-10)
(-3.22505e-09 7.32335e-10 -3.69603e-10)
(-3.21794e-09 6.36235e-10 -3.59066e-10)
(-2.68541e-09 2.25044e-09 -2.15011e-09)
(-3.35529e-09 1.40763e-09 -1.86376e-09)
(-8.88923e-09 4.87638e-09 -1.68467e-09)
(-2.3112e-09 1.08573e-09 -7.53962e-10)
(-4.45045e-09 1.47949e-09 -5.85946e-10)
(-1.02208e-08 4.47602e-09 -1.46266e-09)
(-4.1683e-09 1.55111e-09 -6.78285e-10)
(-5.60666e-09 1.1554e-09 -1.58959e-09)
(-3.76759e-09 1.28232e-09 -1.80514e-09)
(-3.41145e-09 5.29005e-10 -2.92512e-10)
(-3.27621e-09 6.03018e-10 -3.54361e-10)
(-1.13517e-08 4.3222e-09 -4.47344e-10)
(-3.58353e-09 9.31511e-10 -2.43529e-10)
(-4.76227e-09 1.43397e-09 -4.58877e-10)
(-1.04325e-08 4.44674e-09 -1.37741e-09)
(-4.96271e-09 1.41557e-09 -2.32868e-10)
(-3.59631e-09 5.08275e-10 9.80658e-11)
(-3.61074e-09 4.68948e-10 -2.92523e-11)
(-6.58611e-09 1.563e-09 3.19168e-10)
(-7.35791e-09 1.33185e-09 -2.44473e-10)
(-6.27382e-09 1.14939e-09 -1.41315e-09)
(-7.3989e-09 1.3073e-09 -5.45713e-10)
(-3.49505e-09 5.07237e-10 -2.56142e-10)
(-3.60823e-09 4.71122e-10 -9.73226e-11)
(-3.575e-09 5.24536e-10 1.25719e-10)
(-3.53305e-09 6.02058e-10 1.7024e-10)
(-6.21754e-09 1.36053e-09 4.80727e-10)
(-9.75319e-09 5.24827e-09 6.46144e-10)
(-2.54709e-09 9.23568e-10 2.15491e-10)
(-4.69285e-09 1.76547e-09 2.86446e-10)
(-9.53625e-09 5.62946e-09 7.32131e-10)
(-4.61757e-09 1.69538e-09 2.44156e-10)
(-3.52806e-09 7.22451e-10 1.61249e-10)
(-3.51213e-09 6.438e-10 1.83091e-10)
(-9.35547e-09 5.42429e-09 1.19992e-09)
(-2.44179e-09 1.07608e-09 8.88154e-10)
(-4.62221e-09 1.78187e-09 4.68184e-10)
(-9.44389e-09 5.758e-09 7.26626e-10)
(-4.34505e-09 1.76546e-09 6.46828e-10)
(-3.17482e-09 8.02281e-10 4.56704e-10)
(-3.31676e-09 7.54304e-10 2.79059e-10)
(-3.50033e-09 7.45761e-10 1.78016e-10)
(-3.38054e-09 7.48321e-10 2.35261e-10)
(-3.16133e-09 8.55873e-10 5.40715e-10)
(-2.99718e-09 9.38999e-10 8.65666e-10)
(-9.19711e-09 6.75145e-09 5.79187e-09)
(-1.96583e-09 1.24034e-09 1.11231e-09)
(-3.04024e-09 9.08329e-10 1.01869e-09)
(-3.78751e-09 2.74863e-09 6.13526e-09)
(-5.97113e-10 8.59809e-11 1.66914e-09)
(-3.41635e-08 1.81006e-08 -9.26992e-09)
(-4.6441e-08 2.38043e-08 -2.42699e-09)
(-3.97048e-08 1.73222e-08 -6.58005e-09)
(-4.01184e-08 2.39756e-08 -8.23711e-09)
(-3.0168e-08 1.58631e-08 -8.50409e-09)
(-4.36923e-08 2.23772e-08 -2.52601e-09)
(-3.06193e-08 1.31674e-08 -5.21903e-09)
(-3.07925e-08 1.74401e-08 -6.47372e-09)
(-2.62274e-08 1.33927e-08 -7.3053e-09)
(-3.52313e-08 1.54639e-08 -6.10042e-09)
(-3.52644e-08 2.02024e-08 -7.4206e-09)
(-1.77153e-08 1.04458e-08 -5.28756e-09)
(-1.78346e-08 1.22157e-08 -4.71017e-09)
(-2.6203e-08 1.50941e-08 -2.33664e-09)
(-1.85932e-08 9.28035e-09 -3.46658e-09)
(-2.1225e-08 1.04079e-08 -3.86079e-09)
(-2.0525e-08 1.35638e-08 -5.10488e-09)
(-1.53937e-08 9.32632e-09 -4.75548e-09)
(-2.00941e-08 1.11556e-08 -5.74516e-09)
(-2.78713e-08 1.56689e-08 -2.38039e-09)
(-2.73026e-08 1.23897e-08 -4.74045e-09)
(-2.6989e-08 1.6137e-08 -5.90356e-09)
(-2.31559e-08 1.24851e-08 -6.56436e-09)
(-2.38027e-08 1.10806e-08 -4.14812e-09)
(-2.35458e-08 1.47102e-08 -5.43178e-09)
(-6.58313e-09 3.74939e-09 -2.07388e-09)
(-7.24467e-09 5.14162e-09 -2.4256e-09)
(-8.95513e-09 6.27173e-09 -1.73437e-09)
(-9.02171e-09 4.70365e-09 -1.89097e-09)
(-6.85919e-09 4.10714e-09 -2.27493e-09)
(-8.66019e-09 4.37123e-09 -1.74346e-09)
(-6.90246e-09 4.72133e-09 -2.25474e-09)
(-6.41242e-09 3.57592e-09 -1.94181e-09)
(-8.8258e-09 6.16561e-09 -1.7205e-09)
(-8.30777e-09 3.99222e-09 -1.57391e-09)
(-6.54383e-09 4.15147e-09 -2.01388e-09)
(-6.31294e-09 3.34272e-09 -1.80387e-09)
(-8.46194e-09 4.22567e-09 -1.67619e-09)
(-6.67694e-09 4.45286e-09 -2.12693e-09)
(-6.40981e-09 2.80721e-09 -1.58124e-09)
(-6.88366e-09 3.25213e-09 -1.77295e-09)
(-8.47998e-09 5.22489e-09 -1.67008e-09)
(-8.47129e-09 3.3494e-09 -1.41709e-09)
(-8.31655e-09 3.5296e-09 -1.47811e-09)
(-6.65897e-09 3.44912e-09 -1.82594e-09)
(-6.60291e-09 2.6341e-09 -1.50954e-09)
(-6.31372e-09 2.93536e-09 -1.63711e-09)
(-8.42942e-09 5.32604e-09 -1.66287e-09)
(-8.2614e-09 3.87665e-09 -1.55131e-09)
(-6.50437e-09 3.93937e-09 -1.94147e-09)
(-6.27805e-09 3.2035e-09 -1.72337e-09)
(-8.24212e-09 3.65872e-09 -1.4904e-09)
(-6.53519e-09 3.66578e-09 -1.88203e-09)
(-8.85054e-09 2.28857e-09 1.42815e-11)
(-9.79084e-09 2.85966e-09 -2.39489e-10)
(-1.11841e-08 4.37887e-09 1.07935e-10)
(-1.04911e-08 2.934e-09 -2.16786e-10)
(-8.97629e-09 2.28502e-09 -1.97384e-10)
(-1.0406e-08 2.97391e-09 2.396e-11)
(-9.64903e-09 2.92073e-09 1.75144e-11)
(-8.71526e-09 2.35195e-09 1.61975e-10)
(-1.10802e-08 4.38682e-09 2.09268e-10)
(-1.01368e-08 3.04454e-09 3.35484e-10)
(-9.16035e-09 2.93588e-09 3.90713e-10)
(-8.48758e-09 2.37682e-09 2.89457e-10)
(-1.02926e-08 2.97175e-09 1.5105e-10)
(-9.43112e-09 2.92744e-09 2.43387e-10)
(-7.88025e-09 2.16505e-09 6.07016e-10)
(-8.25229e-09 2.76331e-09 6.7377e-10)
(-1.01721e-08 4.78311e-09 5.82314e-10)
(-9.49022e-09 3.33755e-09 6.17128e-10)
(-9.66033e-09 3.23371e-09 4.94826e-10)
(-8.43606e-09 2.80971e-09 5.63006e-10)
(-7.81405e-09 2.27851e-09 7.35533e-10)
(-8.03187e-09 2.35561e-09 4.75311e-10)
(-1.02856e-08 4.68146e-09 5.65533e-10)
(-1.00088e-08 3.05189e-09 4.23901e-10)
(-8.88597e-09 2.93191e-09 4.49884e-10)
(-8.33137e-09 2.4751e-09 3.65624e-10)
(-9.8195e-09 3.13024e-09 4.7958e-10)
(-8.63363e-09 3.00388e-09 4.59783e-10)
(-7.09056e-09 3.12032e-09 1.5116e-09)
(-7.63256e-09 4.418e-09 1.3582e-09)
(-9.24119e-09 5.58062e-09 1.85056e-09)
(-8.99909e-09 3.85334e-09 1.07715e-09)
(-7.15572e-09 3.32422e-09 1.09709e-09)
(-8.90484e-09 3.925e-09 1.41102e-09)
(-7.36286e-09 4.87542e-09 1.99655e-09)
(-6.99238e-09 3.39821e-09 1.98594e-09)
(-9.20733e-09 5.45082e-09 1.99744e-09)
(-8.74821e-09 4.14713e-09 2.27493e-09)
(-7.19525e-09 4.8227e-09 2.68069e-09)
(-6.92382e-09 3.70104e-09 2.60682e-09)
(-8.83161e-09 3.94372e-09 1.75419e-09)
(-7.08002e-09 4.89916e-09 2.37116e-09)
(-6.44465e-09 4.69935e-09 3.97042e-09)
(-6.85849e-09 6.52024e-09 5.55589e-09)
(-9.00607e-09 6.06176e-09 4.26193e-09)
(-7.87634e-09 4.91952e-09 4.15225e-09)
(-8.14921e-09 4.58559e-09 3.57005e-09)
(-6.95191e-09 5.42867e-09 5.06504e-09)
(-6.06094e-09 5.20771e-09 4.53903e-09)
(-6.66885e-09 4.09972e-09 3.42378e-09)
(-9.07283e-09 6.05121e-09 3.92839e-09)
(-8.52193e-09 4.19131e-09 2.58993e-09)
(-7.44871e-09 4.52088e-09 3.41409e-09)
(-6.7433e-09 3.58692e-09 2.97748e-09)
(-8.35835e-09 4.48447e-09 3.07078e-09)
(-7.36541e-09 4.65992e-09 4.35243e-09)
(-4.17793e-08 1.42121e-08 -4.17034e-09)
(-2.76468e-08 7.84118e-09 -2.88335e-09)
(-1.12889e-08 2.08538e-09 -1.36736e-09)
(-3.24759e-08 9.30005e-09 -3.42241e-09)
(-3.23744e-08 1.10731e-08 -3.3236e-09)
(-3.98386e-08 1.36991e-08 -4.06377e-09)
(-1.24859e-08 2.36487e-09 -1.56416e-09)
(-3.55708e-08 1.01073e-08 -3.7156e-09)
(-3.91148e-08 2.65362e-08 -5.80899e-09)
(-2.77492e-08 1.62988e-08 -8.49671e-09)
(-2.73818e-08 1.85653e-08 -6.20934e-09)
(-3.39708e-08 2.29862e-08 -7.37358e-09)
(-3.13625e-08 2.357e-08 -1.147e-08)
(-3.62327e-08 2.52929e-08 -7.66525e-09)
(-2.96967e-08 1.98623e-08 -5.06145e-09)
(-3.6606e-08 2.45297e-08 -5.68914e-09)
(-2.01614e-08 7.95142e-09 -2.27663e-09)
(-2.42239e-08 9.18293e-09 -2.60925e-09)
(-2.52505e-08 7.48451e-09 -2.58568e-09)
(-7.65798e-09 1.56907e-09 -8.79968e-10)
(-2.17674e-08 6.58931e-09 -2.20742e-09)
(-3.08982e-08 1.08941e-08 -3.1911e-09)
(-2.53732e-08 9.34282e-09 -2.67262e-09)
(-1.74799e-08 5.66896e-09 -1.81923e-09)
(-6.97745e-09 1.48014e-09 -7.65386e-10)
(-1.9971e-08 6.34022e-09 -2.04896e-09)
(-1.68192e-08 1.39425e-08 -4.15829e-09)
(-2.10062e-08 1.63443e-08 -4.5523e-09)
(-1.68577e-08 1.44702e-08 -7.0392e-09)
(-2.55515e-08 1.80869e-08 -6.02117e-09)
(-2.05187e-08 1.59596e-08 -5.60833e-09)
(-1.51251e-08 1.32191e-08 -4.94027e-09)
(-1.41915e-08 1.34027e-08 -6.67559e-09)
(-1.90774e-08 1.54169e-08 -5.44598e-09)
(-2.7799e-08 1.93532e-08 -4.96697e-09)
(-2.25605e-08 1.69481e-08 -4.67198e-09)
(-1.20045e-08 7.73616e-09 -4.00493e-09)
(-1.55841e-08 1.11766e-08 -4.38769e-09)
(-1.6771e-08 1.09306e-08 -2.15021e-09)
(-1.67192e-08 8.69936e-09 -3.26313e-09)
(-1.36513e-08 8.70251e-09 -4.4175e-09)
(-1.36729e-08 1.00538e-08 -4.04543e-09)
(-1.48374e-08 7.80134e-09 -2.97377e-09)
(-1.08163e-08 7.22479e-09 -3.7245e-09)
(-1.59389e-08 1.06013e-08 -2.13556e-09)
(-1.08534e-08 8.28715e-09 -3.48487e-09)
(-1.22873e-08 6.65273e-09 -2.59272e-09)
(-1.214e-08 9.21959e-09 -3.76847e-09)
(-1.35562e-08 7.36633e-09 -2.81627e-09)
(-9.72561e-09 6.44246e-09 -3.39383e-09)
(-1.56687e-08 1.34347e-08 -4.03196e-09)
(-1.2677e-08 1.14435e-08 -3.64685e-09)
(-7.07282e-09 8.93776e-09 -4.88041e-09)
(-8.59842e-09 8.76998e-09 -3.6497e-09)
(-1.0511e-08 1.04019e-08 -4.10901e-09)
(-1.40525e-08 1.2724e-08 -4.77084e-09)
(-8.38261e-09 1.00272e-08 -5.32067e-09)
(-1.12626e-08 1.08576e-08 -4.26532e-09)
(-9.8221e-09 9.37795e-09 -3.17898e-09)
(-1.18882e-08 1.10448e-08 -3.53216e-09)
(-1.93575e-08 7.81754e-09 -2.25522e-09)
(-1.64247e-08 6.84274e-09 -2.03731e-09)
(-1.23749e-08 4.40641e-09 -1.43471e-09)
(-4.78713e-09 1.17415e-09 -5.69349e-10)
(-1.36078e-08 4.79276e-09 -1.54352e-09)
(-1.39042e-08 6.00471e-09 -1.85975e-09)
(-1.58898e-08 6.74401e-09 -2.02324e-09)
(-1.62427e-08 5.47297e-09 -1.73939e-09)
(-5.11695e-09 1.23374e-09 -6.11448e-10)
(-1.44504e-08 4.95481e-09 -1.59114e-09)
(-7.64479e-09 4.92892e-09 -2.68359e-09)
(-1.09843e-08 7.80206e-09 -1.90275e-09)
(-7.67648e-09 5.57611e-09 -2.59935e-09)
(-9.37619e-09 4.91846e-09 -1.98264e-09)
(-7.18567e-09 4.3789e-09 -2.43303e-09)
(-8.24157e-09 6.19861e-09 -2.81243e-09)
(-9.93992e-09 5.38809e-09 -2.17173e-09)
(-8.18074e-09 5.29992e-09 -2.88746e-09)
(-1.13849e-08 8.04627e-09 -1.93208e-09)
(-9.81869e-09 7.5845e-09 -3.25114e-09)
(-1.14171e-08 6.29954e-09 -2.47705e-09)
(-8.9228e-09 5.99849e-09 -3.17069e-09)
(-8.94044e-09 6.80264e-09 -3.01169e-09)
(-1.05268e-08 5.69531e-09 -2.28464e-09)
(-1.08394e-08 4.6235e-09 -1.52108e-09)
(-1.02199e-08 4.26343e-09 -1.39442e-09)
(-9.04951e-09 3.05189e-09 -9.77876e-10)
(-3.30622e-09 7.93605e-10 -3.78224e-10)
(-9.25919e-09 3.17449e-09 -1.03527e-09)
(-9.8712e-09 3.986e-09 -1.30392e-09)
(-1.01524e-08 4.21973e-09 -1.38909e-09)
(-9.79769e-09 3.44504e-09 -1.13621e-09)
(-3.35838e-09 8.28892e-10 -4.04212e-10)
(-9.38493e-09 3.26183e-09 -1.06049e-09)
(-6.34606e-09 5.98561e-09 -2.38e-09)
(-5.80037e-09 5.24356e-09 -2.19783e-09)
(-2.70931e-09 2.90028e-09 -2.43544e-09)
(-4.66736e-09 3.90358e-09 -2.1194e-09)
(-4.84111e-09 4.40994e-09 -2.29798e-09)
(-5.43026e-09 5.31097e-09 -2.60779e-09)
(-2.85506e-09 3.27376e-09 -2.62932e-09)
(-4.953e-09 4.57009e-09 -2.36648e-09)
(-5.46304e-09 4.61659e-09 -2.01928e-09)
(-5.68772e-09 5.10972e-09 -2.15264e-09)
(-6.58214e-09 6.19954e-09 -2.4439e-09)
(-7.50797e-09 7.31146e-09 -2.68386e-09)
(-8.0997e-09 8.40236e-09 -3.51512e-09)
(-4.43396e-09 6.04793e-09 -3.71114e-09)
(-6.80712e-09 6.99518e-09 -3.11996e-09)
(-9.28631e-09 9.0399e-09 -3.07383e-09)
(-7.88268e-09 7.62749e-09 -2.76775e-09)
(-5.6401e-09 5.54161e-09 -2.69307e-09)
(-3.87522e-09 5.20435e-09 -3.39407e-09)
(-6.48326e-09 6.68439e-09 -3.00911e-09)
(-1.09742e-08 4.68039e-09 -1.52671e-09)
(-1.18679e-08 5.16519e-09 -1.6902e-09)
(-1.1816e-08 4.2574e-09 -1.41137e-09)
(-3.87852e-09 9.98096e-10 -5.09615e-10)
(-1.09155e-08 3.92284e-09 -1.31429e-09)
(-1.3538e-08 5.90974e-09 -1.85732e-09)
(-1.21173e-08 5.25332e-09 -1.70571e-09)
(-9.98672e-09 3.54165e-09 -1.17216e-09)
(-3.75163e-09 9.49649e-10 -4.74608e-10)
(-1.05636e-08 3.78139e-09 -1.27135e-09)
(-9.98837e-09 3.42218e-09 -1.25401e-09)
(-9.81927e-09 3.62829e-09 -1.30136e-09)
(-9.03834e-09 2.97446e-09 -9.89658e-10)
(-3.19183e-09 7.0051e-10 -3.69424e-10)
(-8.94301e-09 2.85248e-09 -9.60525e-10)
(-9.8593e-09 3.9411e-09 -1.32239e-09)
(-9.77879e-09 3.68789e-09 -1.28221e-09)
(-9.06154e-09 2.6661e-09 -9.35177e-10)
(-3.22385e-09 6.67224e-10 -3.60978e-10)
(-9.01981e-09 2.7671e-09 -9.68661e-10)
(-5.94093e-09 3.56673e-09 -1.84509e-09)
(-5.57011e-09 3.91781e-09 -1.88635e-09)
(-2.8139e-09 1.91034e-09 -2.04112e-09)
(-4.66158e-09 3.80644e-09 -2.07969e-09)
(-4.75758e-09 3.31082e-09 -1.96234e-09)
(-5.24585e-09 2.8591e-09 -1.86346e-09)
(-3.04032e-09 1.6372e-09 -1.94434e-09)
(-4.84866e-09 3.22087e-09 -1.94021e-09)
(-5.45042e-09 4.52801e-09 -1.98442e-09)
(-5.50592e-09 4.02051e-09 -1.90471e-09)
(-7.15748e-09 2.43931e-09 -1.38738e-09)
(-7.18496e-09 3.13522e-09 -1.72521e-09)
(-9.37913e-09 4.64775e-09 -1.65537e-09)
(-8.66698e-09 3.2789e-09 -1.40729e-09)
(-6.82753e-09 2.54626e-09 -1.46563e-09)
(-7.55863e-09 3.02679e-09 -1.65614e-09)
(-8.92595e-09 3.14731e-09 -1.31842e-09)
(-7.49386e-09 2.42568e-09 -1.3099e-09)
(-9.58798e-09 4.60709e-09 -1.62975e-09)
(-8.47361e-09 2.92103e-09 -1.44391e-09)
(-9.57055e-09 3.0424e-09 -1.13013e-09)
(-7.99566e-09 2.97962e-09 -1.57117e-09)
(-9.22012e-09 3.10192e-09 -1.27441e-09)
(-7.90369e-09 2.37217e-09 -1.17997e-09)
(-6.11681e-09 3.51519e-09 -1.83721e-09)
(-6.76503e-09 3.3226e-09 -1.77696e-09)
(-4.91442e-09 1.20058e-09 -1.70474e-09)
(-7.23573e-09 2.56412e-09 -1.55614e-09)
(-6.37537e-09 2.60963e-09 -1.73884e-09)
(-5.42916e-09 2.79838e-09 -1.85147e-09)
(-4.28761e-09 1.22157e-09 -1.76207e-09)
(-6.11815e-09 2.64475e-09 -1.77506e-09)
(-7.8229e-09 3.26582e-09 -1.56601e-09)
(-7.01938e-09 3.32652e-09 -1.74742e-09)
(-1.00889e-08 3.39902e-09 -1.27493e-09)
(-1.03834e-08 3.2231e-09 -1.18174e-09)
(-9.67128e-09 2.40483e-09 -7.47269e-10)
(-3.37553e-09 5.49102e-10 -3.13684e-10)
(-9.49914e-09 2.44637e-09 -8.48873e-10)
(-1.0951e-08 3.10665e-09 -1.00449e-09)
(-1.05293e-08 3.19744e-09 -1.17729e-09)
(-9.20692e-09 2.58928e-09 -9.36187e-10)
(-3.31102e-09 5.7914e-10 -3.39746e-10)
(-9.29461e-09 2.49782e-09 -8.78281e-10)
(-8.81791e-09 2.25828e-09 -6.37843e-10)
(-1.10998e-08 4.32882e-09 -9.01506e-10)
(-9.78507e-09 2.84709e-09 -5.01099e-10)
(-1.04712e-08 2.92355e-09 -3.76112e-10)
(-8.95764e-09 2.27578e-09 -3.92045e-10)
(-9.61636e-09 2.84797e-09 -7.9959e-10)
(-1.03309e-08 2.95535e-09 -6.32294e-10)
(-8.59899e-09 2.29533e-09 -8.23291e-10)
(-1.0959e-08 4.34452e-09 -1.04218e-09)
(-8.92518e-09 2.89508e-09 -1.29126e-09)
(-9.86385e-09 3.00282e-09 -1.02244e-09)
(-8.25183e-09 2.3514e-09 -1.0555e-09)
(-9.31988e-09 2.86444e-09 -1.07226e-09)
(-1.01428e-08 2.95762e-09 -8.01989e-10)
(-1.16829e-08 2.95136e-09 -2.30063e-10)
(-1.16198e-08 2.98045e-09 7.88513e-11)
(-1.01351e-08 2.33032e-09 2.42293e-10)
(-3.60897e-09 4.94273e-10 7.06481e-11)
(-1.0185e-08 2.30806e-09 1.34641e-10)
(-1.1403e-08 3.10678e-09 3.49856e-10)
(-1.15721e-08 3.01384e-09 1.28676e-10)
(-1.025e-08 2.25693e-09 -1.13738e-10)
(-3.63019e-09 4.7782e-10 2.03123e-11)
(-1.02415e-08 2.27321e-09 3.83492e-11)
(-9.15947e-09 3.18281e-09 -3.33068e-10)
(-8.97172e-09 3.2397e-09 9.19805e-11)
(-6.88854e-09 1.05133e-09 1.80735e-10)
(-7.85009e-09 2.69125e-09 4.36433e-10)
(-8.2976e-09 2.59069e-09 1.95548e-10)
(-8.63713e-09 2.5071e-09 -3.31235e-10)
(-7.17031e-09 1.19364e-09 4.5159e-11)
(-8.43877e-09 2.60225e-09 8.98684e-11)
(-8.3971e-09 3.35519e-09 4.32856e-10)
(-8.85403e-09 3.24085e-09 2.01621e-10)
(-9.16198e-09 3.11777e-09 -4.87955e-10)
(-8.89814e-09 3.16363e-09 -9.78821e-10)
(-7.51292e-09 2.60445e-09 -1.47884e-09)
(-6.82325e-09 1.12553e-09 -1.17752e-09)
(-8.2093e-09 2.49713e-09 -1.11308e-09)
(-8.08819e-09 3.29306e-09 -1.48349e-09)
(-8.74112e-09 3.11727e-09 -1.12811e-09)
(-8.64616e-09 2.4767e-09 -4.81538e-10)
(-7.21643e-09 1.19254e-09 -8.74575e-10)
(-8.3774e-09 2.50401e-09 -9.77172e-10)
(-1.16676e-08 2.93301e-09 -3.05191e-10)
(-1.14968e-08 2.97113e-09 -6.23416e-10)
(-9.87335e-09 2.34305e-09 -6.74578e-10)
(-3.53434e-09 4.93573e-10 -2.11995e-10)
(-1.00097e-08 2.31141e-09 -5.34335e-10)
(-1.10773e-08 3.06508e-09 -9.70245e-10)
(-1.14102e-08 3.00158e-09 -6.9282e-10)
(-1.0234e-08 2.26727e-09 -2.55782e-10)
(-3.58887e-09 4.80517e-10 -1.48054e-10)
(-1.01558e-08 2.29093e-09 -4.1033e-10)
(-1.08868e-08 3.50009e-09 5.62674e-10)
(-1.1071e-08 3.26119e-09 4.71482e-10)
(-1.00703e-08 2.39097e-09 2.93875e-10)
(-3.55652e-09 5.42739e-10 1.43223e-10)
(-1.00001e-08 2.45962e-09 3.62773e-10)
(-1.13299e-08 3.11059e-09 3.75311e-10)
(-1.11238e-08 3.24256e-09 4.70313e-10)
(-9.86042e-09 2.63605e-09 4.42771e-10)
(-3.53989e-09 5.68654e-10 1.62265e-10)
(-9.90986e-09 2.56873e-09 3.99041e-10)
(-7.14095e-09 2.79519e-09 7.02047e-10)
(-7.4202e-09 3.06247e-09 6.2235e-10)
(-5.48461e-09 -5.06724e-10 1.15312e-09)
(-7.68847e-09 2.69765e-09 4.6436e-10)
(-7.18326e-09 2.22369e-09 6.18415e-10)
(-6.39591e-09 1.36546e-09 8.73718e-10)
(-3.64834e-09 -7.71891e-09 7.83735e-11)
(-6.83207e-09 1.76885e-09 5.31184e-10)
(-8.23376e-09 3.41563e-09 4.77603e-10)
(-7.68806e-09 3.18957e-09 5.86534e-10)
(-7.60171e-09 2.21181e-09 5.7803e-10)
(-7.98691e-09 3.07155e-09 6.65678e-10)
(-9.52753e-09 5.65457e-09 6.39036e-10)
(-9.27979e-09 3.45395e-09 6.03883e-10)
(-7.64333e-09 1.95231e-09 6.27117e-10)
(-7.89695e-09 3.14127e-09 7.0512e-10)
(-9.24859e-09 3.64499e-09 6.73635e-10)
(-7.51034e-09 2.35445e-09 7.47529e-10)
(-9.47241e-09 5.89429e-09 6.70316e-10)
(-7.98127e-09 3.14947e-09 7.69551e-10)
(-9.10499e-09 3.6315e-09 6.86836e-10)
(-7.86809e-09 3.0105e-09 7.44931e-10)
(-9.18265e-09 3.85014e-09 6.99668e-10)
(-7.30001e-09 2.34457e-09 6.74188e-10)
(-6.97203e-09 3.27947e-09 7.80443e-10)
(-6.56729e-09 3.43362e-09 8.40312e-10)
(-6.8254e-09 4.36505e-09 8.62305e-10)
(-6.42039e-09 1.81617e-09 1.04166e-09)
(-6.10904e-09 3.22182e-09 1.02539e-09)
(-6.20798e-09 2.32181e-09 9.17907e-10)
(-6.30705e-09 4.41668e-09 8.5761e-10)
(-6.59674e-09 3.59896e-09 8.59817e-10)
(-1.0789e-08 3.62364e-09 5.50654e-10)
(-1.06441e-08 3.93487e-09 6.04247e-10)
(-9.71012e-09 3.00279e-09 4.20787e-10)
(-3.52786e-09 7.07476e-10 1.74399e-10)
(-9.66361e-09 2.9662e-09 4.14586e-10)
(-1.05547e-08 4.14477e-09 5.69869e-10)
(-1.059e-08 4.08471e-09 5.56461e-10)
(-9.75232e-09 2.76525e-09 4.40413e-10)
(-3.5104e-09 6.84218e-10 1.72764e-10)
(-9.66554e-09 2.88105e-09 4.61384e-10)
(-7.34678e-09 2.86671e-09 8.38336e-10)
(-9.3095e-09 5.64321e-09 9.61312e-10)
(-7.53776e-09 3.89237e-09 1.03062e-09)
(-9.05927e-09 3.73326e-09 9.89273e-10)
(-7.25246e-09 2.86848e-09 9.37412e-10)
(-7.53871e-09 3.42667e-09 1.0392e-09)
(-9.175e-09 3.81398e-09 7.61387e-10)
(-7.46475e-09 2.91814e-09 5.80713e-10)
(-9.33739e-09 5.78897e-09 8.92815e-10)
(-7.89894e-09 3.08755e-09 7.86094e-10)
(-9.14784e-09 3.69342e-09 5.78873e-10)
(-7.31599e-09 2.64129e-09 4.73759e-10)
(-7.70653e-09 3.11923e-09 9.15635e-10)
(-9.2202e-09 3.95205e-09 5.77442e-10)
(-1.04719e-08 3.78917e-09 9.73933e-10)
(-1.03539e-08 3.64946e-09 1.29668e-09)
(-9.09022e-09 3.11807e-09 1.31598e-09)
(-3.1941e-09 7.67482e-10 3.93486e-10)
(-9.18951e-09 3.04054e-09 1.085e-09)
(-1.01285e-08 4.03729e-09 1.93796e-09)
(-1.03128e-08 3.71336e-09 1.43276e-09)
(-9.42317e-09 2.98608e-09 7.57635e-10)
(-3.27717e-09 7.60431e-10 3.13668e-10)
(-9.28723e-09 2.98167e-09 8.75516e-10)
(-6.92799e-09 3.88234e-09 1.39529e-09)
(-7.56757e-09 3.18855e-09 1.80599e-09)
(-5.64673e-09 3.65894e-09 3.76379e-09)
(-4.93982e-09 2.02761e-09 2.59025e-09)
(-5.9045e-09 2.63142e-09 9.07138e-10)
(-5.52107e-09 3.21549e-09 2.03766e-09)
(-6.74783e-09 4.33345e-09 3.1573e-09)
(-7.22957e-09 4.32023e-09 2.25792e-09)
(-6.7691e-09 4.29005e-09 1.21615e-09)
(-6.47223e-09 3.93974e-09 8.5342e-10)
(-6.9553e-09 3.22488e-09 7.3504e-10)
(-6.27972e-09 2.62269e-09 4.37221e-10)
(-6.19137e-09 3.85165e-09 6.86245e-10)
(-6.65773e-09 4.38135e-09 7.45766e-10)
(-5.56975e-09 3.90302e-09 8.29683e-10)
(-5.82685e-09 3.18751e-09 5.77932e-10)
(-1.05036e-08 3.86631e-09 9.07911e-10)
(-1.06394e-08 4.04597e-09 6.37606e-10)
(-9.72614e-09 3.08624e-09 4.55564e-10)
(-3.49741e-09 7.65775e-10 1.73706e-10)
(-9.74151e-09 3.11554e-09 4.71656e-10)
(-1.05581e-08 4.18604e-09 5.46258e-10)
(-1.06362e-08 4.25177e-09 6.12212e-10)
(-9.55578e-09 2.99658e-09 6.60114e-10)
(-3.40096e-09 7.45789e-10 2.05611e-10)
(-9.62059e-09 3.09612e-09 5.17081e-10)
(-8.9856e-09 4.29699e-09 3.77548e-09)
(-9.52561e-09 4.40356e-09 2.92481e-09)
(-8.98591e-09 3.20998e-09 1.52893e-09)
(-3.1317e-09 8.96028e-10 6.31605e-10)
(-8.79427e-09 3.27129e-09 1.82147e-09)
(-9.99725e-09 4.12703e-09 2.07946e-09)
(-9.68465e-09 4.40129e-09 2.712e-09)
(-8.11025e-09 3.16444e-09 2.60187e-09)
(-3.07154e-09 9.27878e-10 7.52002e-10)
(-8.52015e-09 3.31359e-09 2.14097e-09)
(-7.04554e-09 8.6607e-09 6.0431e-09)
(-6.75542e-09 6.36949e-09 4.89195e-09)
(-6.1372e-09 3.86979e-09 4.0135e-09)
(-6.56834e-09 4.84423e-09 4.86872e-09)
(-6.45351e-09 9.15473e-09 5.98449e-09)
(-6.22754e-09 6.61964e-09 5.24706e-09)
(-6.75357e-09 5.51957e-09 3.50407e-09)
(-6.84792e-09 6.05301e-09 4.52181e-09)
(-5.88926e-09 4.93634e-09 6.29232e-09)
(-6.9814e-09 6.88965e-09 6.16147e-09)
(-9.39686e-09 5.25423e-09 7.07287e-09)
(-7.57648e-09 4.81678e-09 4.71898e-09)
(-5.96927e-09 5.52138e-09 5.13381e-09)
(-7.0778e-09 6.61242e-09 7.21953e-09)
(-7.34366e-09 4.15588e-09 5.59911e-09)
(-4.53782e-09 3.7189e-09 6.87154e-09)
(-6.72795e-09 6.18478e-09 8.06442e-09)
(-4.33711e-09 2.51466e-09 5.77641e-09)
(-1.0201e-09 1.37924e-10 1.46636e-09)
(-6.20108e-09 1.89646e-09 4.92577e-09)
(-6.56365e-10 1.29401e-10 1.59276e-09)
(-5.23014e-09 3.5457e-09 6.69943e-09)
(-9.54823e-09 4.78669e-09 7.47894e-09)
(-7.5456e-09 6.64982e-09 8.07197e-09)
(-7.39507e-09 2.57254e-09 5.7864e-09)
(-7.15209e-09 8.51053e-09 6.44623e-09)
(-7.99723e-09 7.54834e-09 7.74259e-09)
(-6.93926e-09 7.15183e-09 8.56715e-09)
(-6.80391e-09 7.56591e-09 6.36362e-09)
(-6.75264e-09 8.60181e-09 8.30027e-09)
(-8.11177e-09 7.63136e-09 8.07054e-09)
(-8.77528e-09 4.10484e-09 4.02593e-09)
(-8.41114e-09 2.70313e-09 5.22145e-09)
(-1.25351e-09 9.45871e-11 1.56005e-09)
(-7.1574e-09 1.40471e-09 4.85562e-09)
(-8.41786e-09 1.96512e-09 5.62749e-09)
(-7.48573e-09 2.88451e-09 3.03947e-09)
(-2.93672e-09 6.39613e-10 1.6396e-09)
(-7.14657e-09 2.0939e-09 3.62113e-09)
(-4.82125e-08 2.55852e-08 -6.48965e-09)
(-5.34353e-08 2.83234e-08 -2.087e-09)
(-5.24958e-08 2.49517e-08 -3.91713e-09)
(-5.0401e-08 2.91792e-08 -4.31981e-09)
(-3.47296e-08 1.72103e-08 -5.22429e-09)
(-3.8252e-08 1.95677e-08 -2.50278e-09)
(-3.52322e-08 1.62035e-08 -3.32036e-09)
(-3.37474e-08 1.867e-08 -3.85434e-09)
(-3.24673e-08 1.62557e-08 -4.91175e-09)
(-3.77518e-08 1.72728e-08 -3.48358e-09)
(-3.61912e-08 1.97679e-08 -3.95444e-09)
(-2.06936e-08 1.20089e-08 -3.75959e-09)
(-1.99849e-08 1.31084e-08 -3.12114e-09)
(-2.29663e-08 1.37204e-08 -2.23243e-09)
(-2.13051e-08 1.14813e-08 -2.62116e-09)
(-2.27852e-08 1.21516e-08 -2.68704e-09)
(-2.15146e-08 1.38741e-08 -3.19475e-09)
(-1.93585e-08 1.1408e-08 -3.62937e-09)
(-2.86041e-08 1.50458e-08 -4.50639e-09)
(-3.17129e-08 1.71506e-08 -2.4412e-09)
(-3.3416e-08 1.59389e-08 -3.21543e-09)
(-3.19862e-08 1.81937e-08 -3.74841e-09)
(-3.05907e-08 1.57595e-08 -4.67048e-09)
(-3.12362e-08 1.51313e-08 -3.0966e-09)
(-2.98663e-08 1.7365e-08 -3.62703e-09)
(-8.79365e-09 5.37583e-09 -2.06155e-09)
(-8.78444e-09 6.38152e-09 -2.05229e-09)
(-9.38587e-09 6.62947e-09 -1.76511e-09)
(-1.02425e-08 6.14172e-09 -1.84549e-09)
(-9.02923e-09 5.56765e-09 -2.12256e-09)
(-9.99112e-09 5.93614e-09 -1.79932e-09)
(-8.52028e-09 6.15944e-09 -2.00757e-09)
(-4.50434e-09 3.21882e-09 -2.09651e-09)
(-4.67089e-09 3.18351e-09 -2.1965e-09)
(-4.42131e-09 2.94932e-09 -1.94408e-09)
(-4.75465e-09 3.48423e-09 -2.35436e-09)
(-4.63196e-09 3.39487e-09 -2.27253e-09)
(-5.20541e-09 4.21865e-09 -2.76536e-09)
(-4.87327e-09 3.78961e-09 -2.50364e-09)
(-4.93168e-09 3.76548e-09 -2.52984e-09)
(-8.13192e-09 4.68168e-09 -1.81891e-09)
(-8.59486e-09 5.92457e-09 -1.69009e-09)
(-9.15595e-09 5.20236e-09 -1.64979e-09)
(-7.72837e-09 5.28828e-09 -1.81825e-09)
(-8.08112e-09 4.59834e-09 -1.79367e-09)
(-9.23762e-09 5.32604e-09 -1.66985e-09)
(-7.81427e-09 5.43082e-09 -1.8387e-09)
(-8.26605e-09 3.84784e-09 -1.66473e-09)
(-8.03709e-09 4.37246e-09 -1.73444e-09)
(-8.64292e-09 5.03589e-09 -1.67868e-09)
(-9.38399e-09 4.41707e-09 -1.60177e-09)
(-9.28812e-09 4.51983e-09 -1.61395e-09)
(-7.93389e-09 4.47573e-09 -1.73799e-09)
(-8.3815e-09 3.77883e-09 -1.65041e-09)
(-4.49171e-09 2.53631e-09 -1.73734e-09)
(-4.66063e-09 2.95315e-09 -2.09112e-09)
(-4.4207e-09 2.79991e-09 -1.82416e-09)
(-4.73514e-09 2.66657e-09 -1.9915e-09)
(-4.61423e-09 2.4106e-09 -1.65066e-09)
(-5.15508e-09 2.24648e-09 -1.83171e-09)
(-4.89438e-09 2.45302e-09 -1.91309e-09)
(-4.83558e-09 2.21837e-09 -1.58808e-09)
(-8.01897e-09 4.36552e-09 -1.74768e-09)
(-8.43897e-09 5.58901e-09 -1.65991e-09)
(-9.13391e-09 5.14914e-09 -1.64392e-09)
(-7.72385e-09 5.20793e-09 -1.79528e-09)
(-8.05568e-09 4.50568e-09 -1.76394e-09)
(-9.09468e-09 5.0265e-09 -1.63136e-09)
(-7.67579e-09 5.06798e-09 -1.77816e-09)
(-1.08304e-08 3.32973e-09 -1.89489e-10)
(-1.08126e-08 3.88221e-09 -3.09663e-10)
(-1.134e-08 4.35005e-09 -1.52737e-10)
(-1.17728e-08 3.88582e-09 -2.94679e-10)
(-1.08591e-08 3.32596e-09 -2.99459e-10)
(-1.17508e-08 3.89337e-09 -1.5901e-10)
(-1.0777e-08 3.87627e-09 -1.70856e-10)
(-1.04128e-08 3.44397e-09 3.3273e-10)
(-1.08583e-08 4.44568e-09 3.75902e-10)
(-1.12386e-08 4.01465e-09 4.07252e-10)
(-1.0088e-08 3.93845e-09 4.16243e-10)
(-1.02886e-08 3.42125e-09 3.99315e-10)
(-1.1347e-08 3.93495e-09 3.32988e-10)
(-1.02248e-08 3.92667e-09 3.6221e-10)
(-9.57985e-09 3.78038e-09 6.19262e-10)
(-9.227e-09 4.51879e-09 6.60436e-10)
(-9.98e-09 5.04591e-09 6.18407e-10)
(-1.0489e-08 4.58432e-09 6.31467e-10)
(-1.05705e-08 4.47964e-09 5.88098e-10)
(-9.34692e-09 4.4342e-09 6.41999e-10)
(-9.5045e-09 3.86837e-09 6.49698e-10)
(-1.00671e-08 3.52098e-09 4.87053e-10)
(-1.05108e-08 4.58765e-09 4.92086e-10)
(-1.11274e-08 4.01059e-09 4.5442e-10)
(-9.96187e-09 4.00594e-09 4.57303e-10)
(-1.01718e-08 3.45758e-09 4.43992e-10)
(-1.10334e-08 4.08797e-09 4.85912e-10)
(-9.85718e-09 4.07732e-09 4.85768e-10)
(-8.93922e-09 4.83629e-09 1.41879e-09)
(-8.69756e-09 5.3883e-09 1.35552e-09)
(-9.38899e-09 5.55425e-09 1.51501e-09)
(-9.87308e-09 4.80466e-09 1.3052e-09)
(-8.9509e-09 4.57999e-09 1.30178e-09)
(-9.76759e-09 4.62427e-09 1.46393e-09)
(-8.72396e-09 5.59678e-09 1.54144e-09)
(-8.69108e-09 4.93964e-09 2.42741e-09)
(-9.22424e-09 5.76802e-09 2.37693e-09)
(-9.64764e-09 5.2512e-09 2.51464e-09)
(-8.49663e-09 5.6488e-09 2.78113e-09)
(-8.65622e-09 4.88958e-09 2.64863e-09)
(-9.59434e-09 4.96992e-09 2.25665e-09)
(-8.51543e-09 5.61916e-09 2.49627e-09)
(-8.05848e-09 5.80987e-09 4.93036e-09)
(-8.36299e-09 6.99416e-09 5.50911e-09)
(-9.00273e-09 6.54279e-09 4.94072e-09)