/*--------------------------------*- C++ -*----------------------------------*\
| =========                 |                                                 |
| \\      /  F ield         | OpenFOAM: The Open Source CFD Toolbox           |
|  \\    /   O peration     | Version:  2012                                  |
|   \\  /    A nd           | Website:  www.openfoam.com                      |
|    \\/     M anipulation  |                                                 |
\*---------------------------------------------------------------------------*/
FoamFile
{
    version     2.0;
    format      ascii;
    class       volVectorField;
    location    "0.105/solid";
    object      D;
}
// * * * * * * * * * * * * * * * * * * * * * * * * * * * * * * * * * * * * * //

dimensions      [0 1 0 0 0 0 0];


internalField   nonuniform List<vector> 
24998
(
(1.91033e-11 5.57885e-11 4.23163e-11)
(-5.8262e-15 2.53431e-13 -8.89369e-13)
(3.56112e-12 -4.06127e-13 2.34368e-11)
(2.63459e-13 -1.54472e-13 1.63664e-11)
(1.68504e-11 -1.34141e-11 1.93608e-11)
(6.97704e-11 2.35975e-10 -4.2035e-12)
(5.80936e-11 2.25215e-10 -3.60136e-12)
(5.02848e-11 2.14223e-10 -4.43886e-12)
(3.19143e-11 1.9013e-10 3.56709e-11)
(3.0667e-11 5.77975e-11 3.95768e-11)
(1.91314e-12 7.44333e-13 4.20355e-11)
(1.70196e-10 2.49398e-10 -2.1803e-12)
(1.35659e-13 1.8097e-13 -1.80823e-12)
(4.56983e-12 -4.80281e-13 2.37136e-11)
(7.2195e-11 2.39926e-10 -3.62546e-12)
(1.79126e-12 2.7271e-13 4.2596e-11)
(-1.88782e-12 -2.44624e-13 3.20439e-11)
(2.6897e-13 -1.47593e-13 1.64117e-11)
(-1.94288e-12 -2.07839e-13 3.18915e-11)
(1.89368e-11 -2.60795e-11 3.81064e-11)
(1.25928e-11 -9.20229e-12 2.00437e-11)
(3.53927e-11 -4.73033e-11 4.0204e-11)
(1.65103e-10 2.46447e-10 -3.72703e-12)
(1.56233e-10 2.36972e-10 -3.73404e-12)
(5.90678e-11 2.26405e-10 -3.66173e-12)
(1.55158e-10 2.35815e-10 -3.6799e-12)
(1.48248e-10 2.26805e-10 -4.54876e-12)
(5.18424e-11 2.1612e-10 -4.40154e-12)
(1.46684e-10 2.24943e-10 -4.55225e-12)
(1.31658e-10 2.03684e-10 3.02751e-11)
(3.08715e-11 1.95816e-10 2.31752e-11)
(1.3077e-10 1.95415e-10 5.08816e-11)
(2.61394e-12 5.00575e-13 -2.82968e-12)
(-6.70856e-11 3.04845e-11 8.01404e-12)
(-2.27963e-13 8.84475e-12 1.92602e-11)
(1.27725e-11 3.965e-11 5.3098e-11)
(8.83063e-11 2.30875e-10 3.4151e-11)
(-9.61226e-13 -9.17176e-12 3.42281e-11)
(-5.02739e-12 -3.21171e-12 2.79175e-11)
(1.82565e-12 -2.66724e-13 2.03413e-11)
(8.0255e-13 -4.3552e-13 1.78451e-11)
(2.06065e-12 1.97943e-14 1.99447e-11)
(1.95271e-12 -1.89588e-13 2.01602e-11)
(1.91161e-13 3.20386e-14 1.6298e-11)
(-2.15762e-06 -5.35126e-07 -2.62769e-06)
(-3.84627e-11 -1.0924e-10 1.21986e-11)
(-5.00383e-08 9.7925e-10 -5.72354e-08)
(-6.65121e-09 -2.24576e-09 2.67964e-08)
(-1.77893e-06 -1.06998e-06 5.27689e-07)
(6.38769e-11 2.31408e-10 -4.15155e-12)
(-1.4375e-05 -8.71825e-06 -6.42846e-06)
(-7.50751e-06 -4.07409e-06 -4.94211e-06)
(-7.5182e-06 -4.88595e-06 1.03552e-06)
(-1.39881e-05 -9.17266e-06 1.33359e-06)
(5.54352e-11 2.21854e-10 -3.72199e-12)
(-3.30528e-05 -2.07905e-05 -8.06608e-06)
(-2.38277e-05 -1.49346e-05 -7.53274e-06)
(-2.40546e-05 -1.56282e-05 1.60001e-06)
(-3.27039e-05 -2.09938e-05 1.72146e-06)
(4.31092e-11 2.07111e-10 -1.67095e-12)
(-5.34934e-05 -3.33945e-05 -8.40592e-06)
(-4.39356e-05 -2.7526e-05 -8.29596e-06)
(-4.42554e-05 -2.80297e-05 1.78705e-06)
(-5.36203e-05 -3.37455e-05 1.66031e-06)
(4.78948e-12 6.39525e-13 -4.11263e-12)
(-1.97065e-12 4.0689e-11 5.24317e-11)
(1.69144e-10 2.36662e-10 4.03119e-11)
(-2.85875e-11 2.52099e-11 2.05132e-11)
(-6.6547e-12 -2.80055e-12 2.9113e-11)
(-6.32478e-11 2.08872e-11 5.39101e-13)
(5.14356e-12 2.15619e-11 5.21215e-11)
(-1.69385e-11 -2.75408e-12 6.12334e-11)
(-2.77045e-11 1.48501e-11 2.18693e-11)
(1.6808e-10 2.46687e-10 2.21683e-11)
(-4.9625e-12 7.4379e-12 1.66244e-11)
(4.13153e-12 -5.31266e-12 3.27985e-11)
(4.60362e-13 1.98407e-11 5.238e-11)
(3.23327e-12 -4.89263e-12 2.72111e-11)
(8.7294e-12 -2.71043e-12 2.79643e-11)
(8.51375e-11 2.375e-10 1.8422e-11)
(-1.18852e-11 -5.20575e-12 5.79024e-11)
(-1.08575e-12 -6.73942e-13 3.42222e-11)
(-3.49234e-12 -4.54483e-13 4.59934e-11)
(2.08293e-12 -8.95916e-14 1.99503e-11)
(1.8662e-12 -1.40362e-13 2.02944e-11)
(-1.25917e-12 -5.76326e-13 3.40048e-11)
(-3.10117e-12 -1.14745e-13 4.53978e-11)
(-3.33352e-12 -3.47078e-13 4.58935e-11)
(7.60601e-13 -4.09946e-13 1.77462e-11)
(-3.13148e-12 -7.29736e-14 4.53586e-11)
(-2.03766e-12 -2.57703e-14 3.18814e-11)
(-3.30911e-12 -2.8827e-13 4.58837e-11)
(-2.35648e-11 -7.17699e-11 1.57285e-11)
(1.93662e-12 -2.02847e-13 2.01853e-11)
(-1.92163e-12 -1.64603e-13 3.20884e-11)
(-3.50002e-11 -1.34564e-10 4.83809e-11)
(-3.41479e-12 -7.63648e-13 4.60552e-11)
(2.05908e-13 -1.47974e-14 1.63411e-11)
(-2.13528e-06 -5.80363e-07 -2.50279e-06)
(-7.77993e-11 -2.81379e-10 4.7075e-11)
(-1.77747e-09 -1.64156e-09 1.10219e-08)
(-1.76339e-06 -1.02833e-06 1.74029e-07)
(-6.49936e-08 -2.12448e-08 -1.1857e-07)
(-2.11171e-06 -4.99505e-07 -2.52387e-06)
(-8.27152e-08 2.62923e-08 -9.02466e-08)
(-2.06932e-06 -5.29881e-07 -2.34929e-06)
(4.52904e-09 -9.54563e-09 2.68507e-08)
(-1.70943e-06 -1.04101e-06 4.49934e-07)
(-4.84563e-08 3.19891e-08 -7.42911e-08)
(-2.38613e-06 -6.75291e-07 -2.78294e-06)
(-7.11371e-06 -3.80682e-06 -4.82486e-06)
(-2.36435e-06 -7.20703e-07 -2.65183e-06)
(-6.70997e-06 -4.29423e-06 3.07603e-07)
(-2.22961e-06 -1.32687e-06 1.92853e-07)
(-7.09905e-06 -3.84961e-06 -4.61011e-06)
(-2.33999e-06 -6.40205e-07 -2.67167e-06)
(-7.06971e-06 -3.77975e-06 -4.62332e-06)
(-2.298e-06 -6.70986e-07 -2.48736e-06)
(-6.64091e-06 -4.30385e-06 8.2419e-07)
(-2.17254e-06 -1.33909e-06 5.03831e-07)
(-7.03518e-06 -3.81124e-06 -4.3124e-06)
(-9.95195e-10 -2.57261e-08 4.94363e-08)
(-1.72742e-06 -1.09576e-06 8.31576e-07)
(-6.72201e-06 -4.35292e-06 9.86322e-07)
(-2.24462e-06 -1.37151e-06 5.9206e-07)
(-6.65209e-06 -4.37247e-06 1.55124e-06)
(-2.18961e-06 -1.39639e-06 9.33922e-07)
(1.61053e-10 2.41817e-10 -4.16418e-12)
(1.59252e-10 2.4033e-10 -4.05726e-12)
(6.25213e-11 2.29786e-10 -3.96279e-12)
(-1.43662e-05 -8.75339e-06 -6.14552e-06)
(-7.50648e-06 -4.82618e-06 3.22252e-07)
(-7.49325e-06 -4.11649e-06 -4.72245e-06)
(-1.39785e-05 -9.11072e-06 4.14555e-07)
(-1.43386e-05 -8.69931e-06 -6.16734e-06)
(-7.46388e-06 -4.04754e-06 -4.73582e-06)
(-1.43131e-05 -8.72652e-06 -5.75972e-06)
(-7.43675e-06 -4.83544e-06 8.62432e-07)
(-7.4299e-06 -4.07886e-06 -4.41772e-06)
(-1.39095e-05 -9.11753e-06 1.08254e-06)
(-1.4889e-05 -9.0623e-06 -6.50986e-06)
(-2.32359e-05 -1.45523e-05 -7.48348e-06)
(-1.48806e-05 -9.0969e-06 -6.22338e-06)
(-2.28582e-05 -1.48226e-05 4.95775e-07)
(-1.50145e-05 -9.78754e-06 4.26212e-07)
(-2.32319e-05 -1.45786e-05 -7.15425e-06)
(-1.48532e-05 -9.04385e-06 -6.24609e-06)
(-2.32084e-05 -1.45407e-05 -7.19227e-06)
(-1.48282e-05 -9.07071e-06 -5.83366e-06)
(-2.27978e-05 -1.48268e-05 1.24275e-06)
(-1.49461e-05 -9.79402e-06 1.10756e-06)
(-2.31915e-05 -1.45621e-05 -6.72379e-06)
(-7.44725e-06 -4.90477e-06 1.62604e-06)
(-1.39159e-05 -9.18649e-06 2.06276e-06)
(-2.2865e-05 -1.48786e-05 1.57674e-06)
(-1.50237e-05 -9.84914e-06 1.36962e-06)
(-2.28006e-05 -1.48873e-05 2.3916e-06)
(-1.4952e-05 -9.86228e-06 2.11329e-06)
(1.52471e-10 2.32506e-10 -3.82958e-12)
(1.51551e-10 2.31252e-10 -3.95507e-12)
(5.46574e-11 2.2059e-10 -3.82925e-12)
(-3.30525e-05 -2.08091e-05 -7.7112e-06)
(-2.40481e-05 -1.55733e-05 5.0388e-07)
(-2.38239e-05 -1.49604e-05 -7.20132e-06)
(-3.26998e-05 -2.09476e-05 5.47068e-07)
(-3.3033e-05 -2.07849e-05 -7.76419e-06)
(-2.38007e-05 -1.49234e-05 -7.24041e-06)
(-3.30232e-05 -2.08011e-05 -7.26473e-06)
(-2.39892e-05 -1.55772e-05 1.25684e-06)
(-2.37843e-05 -1.49444e-05 -6.76919e-06)
(-3.26512e-05 -2.09498e-05 1.32539e-06)
(-3.36851e-05 -2.11857e-05 -8.08919e-06)
(-4.32913e-05 -2.71299e-05 -8.29049e-06)
(-3.36851e-05 -2.1204e-05 -7.73334e-06)
(-4.29622e-05 -2.7208e-05 5.68798e-07)
(-3.39691e-05 -2.17264e-05 5.51305e-07)
(-4.32936e-05 -2.71434e-05 -7.92725e-06)
(-3.36657e-05 -2.11805e-05 -7.78705e-06)
(-4.32764e-05 -2.71284e-05 -7.98749e-06)
(-3.36564e-05 -2.11964e-05 -7.28647e-06)
(-4.29237e-05 -2.72087e-05 1.35533e-06)
(-3.3922e-05 -2.17283e-05 1.33148e-06)
(-4.32716e-05 -2.71412e-05 -7.47886e-06)
(-2.39916e-05 -1.56363e-05 2.42137e-06)
(-3.26515e-05 -2.09982e-05 2.57046e-06)
(-4.29643e-05 -2.72452e-05 1.78368e-06)
(-3.3973e-05 -2.17713e-05 1.73327e-06)
(-4.29225e-05 -2.72467e-05 2.64195e-06)
(-3.3922e-05 -2.17752e-05 2.5843e-06)
(1.40288e-10 2.17879e-10 -1.48798e-12)
(1.37794e-10 2.15016e-10 1.95788e-12)
(3.98408e-11 2.04401e-10 1.3602e-12)
(-5.36329e-05 -3.34887e-05 -8.09025e-06)
(-4.42535e-05 -2.79934e-05 5.69814e-07)
(-4.39381e-05 -2.75392e-05 -7.93264e-06)
(-5.36193e-05 -3.37292e-05 1.06506e-06)
(-5.34862e-05 -3.33983e-05 -8.09678e-06)
(-4.3921e-05 -2.75247e-05 -7.99303e-06)
(-5.36171e-05 -3.34904e-05 -7.66111e-06)
(-4.4216e-05 -2.7994e-05 1.3567e-06)
(-4.39164e-05 -2.75373e-05 -7.48433e-06)
(-5.36016e-05 -3.37294e-05 1.4781e-06)
(-4.42146e-05 -2.8031e-05 2.64576e-06)
(-5.36023e-05 -3.37457e-05 2.08365e-06)
(1.85694e-11 -2.17661e-12 -1.03432e-12)
(1.12409e-10 -1.70375e-11 4.7833e-11)
(6.24862e-11 -3.26936e-11 2.91462e-12)
(4.61792e-10 5.02191e-10 4.14775e-11)
(3.11398e-11 4.23093e-11 3.65604e-11)
(2.2067e-11 6.37755e-11 3.89137e-11)
(6.15755e-11 1.5188e-10 9.94495e-11)
(1.91518e-10 5.88268e-10 2.01732e-10)
(1.97122e-11 3.07663e-11 2.91744e-11)
(1.15641e-10 1.30458e-10 8.31381e-11)
(2.26536e-12 -1.08281e-12 8.9045e-12)
(1.82447e-12 -1.98414e-12 2.1691e-11)
(2.36381e-12 -6.88772e-13 9.16343e-12)
(-4.70518e-14 -6.52012e-14 1.6673e-12)
(1.56922e-13 -1.72298e-14 1.61564e-11)
(-1.70003e-13 -3.41042e-14 1.37112e-12)
(6.00265e-13 4.68378e-12 4.80793e-12)
(3.97197e-11 9.77265e-11 3.39346e-11)
(-1.01726e-10 2.80178e-10 4.60944e-12)
(3.73148e-10 4.16288e-10 -3.72412e-13)
(5.89547e-11 1.60223e-10 -2.63889e-12)
(2.24255e-10 9.25344e-10 -6.62897e-12)
(6.75533e-11 2.33899e-10 -3.62537e-12)
(3.91382e-10 4.28548e-10 2.58504e-12)
(2.16372e-10 9.17052e-10 -3.9256e-12)
(5.61013e-11 1.5833e-10 -3.04018e-12)
(3.32999e-10 3.91594e-10 -3.53087e-12)
(4.33147e-11 1.50521e-10 -2.89492e-12)
(1.95888e-10 8.90972e-10 -7.67807e-12)
(5.71716e-11 2.24107e-10 -3.56506e-12)
(3.40208e-10 3.9671e-10 -3.28403e-12)
(1.92631e-10 8.85301e-10 -6.17823e-12)
(4.20698e-11 1.49595e-10 -2.93429e-12)
(2.91999e-10 3.63201e-10 2.30458e-12)
(3.35403e-11 1.41824e-10 -3.32929e-12)
(1.76548e-10 8.53185e-10 -7.53055e-12)
(4.83338e-11 2.12085e-10 -4.17163e-12)
(3.07209e-10 3.72697e-10 -1.38902e-12)
(1.69528e-10 8.41214e-10 -3.84447e-12)
(3.09178e-11 1.4012e-10 -3.06109e-12)
(2.54901e-10 3.15316e-10 1.35583e-10)
(1.23964e-12 1.2639e-10 2.32001e-11)
(1.31133e-10 7.60806e-10 1.27571e-10)
(4.14581e-11 1.75081e-10 5.05298e-11)
(2.13155e-10 3.36481e-10 7.64616e-11)
(1.6765e-10 6.65158e-10 2.30236e-10)
(1.125e-11 1.19793e-10 3.18414e-11)
(8.97133e-11 3.64955e-10 7.18762e-11)
(5.24111e-11 3.57836e-11 2.5458e-11)
(2.17197e-11 6.83829e-11 3.87319e-11)
(8.6843e-11 1.52576e-10 9.40406e-11)
(1.30997e-10 6.36415e-10 2.05959e-10)
(2.90923e-11 2.96062e-11 2.06267e-11)
(1.61072e-10 9.52894e-11 5.57246e-11)
(6.22999e-12 -1.17169e-11 4.7678e-11)
(-3.33725e-12 -4.61828e-13 6.43551e-11)
(-1.1989e-12 5.20594e-12 5.9975e-11)
(2.31055e-10 4.6448e-10 1.69569e-11)
(1.73213e-10 2.51341e-10 2.01738e-12)
(2.7235e-10 1.58121e-10 3.52112e-13)
(2.40633e-10 1.0088e-09 -4.39273e-12)
(2.53584e-10 1.02746e-09 8.90883e-12)
(2.1981e-10 4.64392e-10 -3.26044e-12)
(2.74416e-10 1.58696e-10 1.39652e-12)
(-2.69634e-12 1.68404e-12 -6.26034e-12)
(-3.09063e-12 8.72816e-12 9.26462e-13)
(-1.12748e-11 1.34432e-11 3.14576e-12)
(8.02659e-12 -7.05476e-15 2.82756e-11)
(2.85361e-12 -1.52274e-12 1.03067e-11)
(7.23288e-12 -1.03287e-13 2.04382e-11)
(4.09312e-10 4.41332e-10 1.25315e-11)
(7.55308e-11 2.42812e-10 9.91947e-13)
(5.98857e-11 1.62401e-10 -1.93281e-12)
(2.28382e-10 9.37094e-10 -5.38262e-12)
(3.91524e-10 4.28807e-10 2.96455e-12)
(2.41705e-10 9.61008e-10 8.21463e-12)
(6.30168e-11 1.64687e-10 -2.09901e-13)
(-3.21912e-12 -2.88398e-12 6.2333e-11)
(8.71203e-13 -3.01183e-12 4.15807e-11)
(4.46918e-13 -2.44999e-12 5.65027e-11)
(-1.68551e-12 -4.10771e-13 3.27574e-11)
(-3.20965e-12 -2.90343e-13 5.02774e-11)
(-2.98743e-12 -4.67265e-13 5.08731e-11)
(4.51933e-13 -2.75032e-13 1.69159e-11)
(-1.78703e-14 -6.54414e-14 1.72239e-12)
(1.65551e-13 -1.05145e-13 2.193e-12)
(-3.25953e-12 -1.97045e-13 5.01575e-11)
(-2.06997e-12 -4.58884e-14 3.16165e-11)
(-3.37567e-12 -6.04178e-15 5.0069e-11)
(1.23675e-12 -4.2292e-12 3.40678e-11)
(5.18286e-12 -7.57473e-11 5.88809e-11)
(-2.47742e-13 -1.16081e-11 5.34667e-11)
(1.69955e-12 -1.35683e-12 1.72974e-11)
(6.9282e-13 2.63423e-12 3.87324e-12)
(1.43762e-13 1.42146e-13 1.958e-12)
(-6.85096e-12 -1.51235e-10 6.38141e-11)
(1.03919e-10 -2.29049e-10 5.44022e-11)
(-7.4084e-10 -1.12814e-09 3.95895e-10)
(2.132e-10 4.53678e-10 -5.14763e-12)
(2.65675e-10 1.58238e-10 -1.87349e-12)
(2.35618e-10 9.9814e-10 -6.32481e-12)
(1.63207e-10 2.44375e-10 -3.95998e-12)
(2.29348e-10 9.88525e-10 -4.84712e-12)
(2.13913e-10 4.67162e-10 -3.81173e-12)
(2.63877e-10 1.56334e-10 -3.89021e-12)
(2.06817e-10 4.4064e-10 -6.45828e-12)
(1.57326e-10 2.38051e-10 -3.70275e-12)
(2.57398e-10 1.50188e-10 -3.22202e-12)
(2.12957e-10 9.63378e-10 -6.8016e-12)
(2.16461e-10 9.69761e-10 -7.76216e-12)
(2.03646e-10 4.37277e-10 -6.46385e-12)
(2.58593e-10 1.50905e-10 -3.2855e-12)
(3.48485e-10 4.02071e-10 -3.01546e-12)
(6.01368e-11 2.2754e-10 -3.60326e-12)
(4.45533e-11 1.51468e-10 -2.96628e-12)
(1.97061e-10 8.93058e-10 -6.48093e-12)
(3.40671e-10 3.96881e-10 -3.44539e-12)
(2.0086e-10 8.99282e-10 -7.47459e-12)
(4.5933e-11 1.5242e-10 -2.92473e-12)
(2.01683e-10 4.32031e-10 -6.24837e-12)
(2.56159e-10 1.494e-10 -3.14572e-12)
(2.1193e-10 9.61195e-10 -7.9152e-12)
(1.54267e-10 2.3471e-10 -3.67182e-12)
(2.09078e-10 9.5522e-10 -6.49306e-12)
(2.03209e-10 4.36772e-10 -6.30962e-12)
(2.55195e-10 1.48539e-10 -3.2632e-12)
(1.97115e-10 4.20873e-10 -6.57355e-12)
(1.49556e-10 2.28443e-10 -4.33119e-12)
(2.4836e-10 1.42785e-10 -3.87973e-12)
(1.96444e-10 9.25216e-10 -7.06032e-12)
(2.00543e-10 9.3477e-10 -8.34056e-12)
(1.94706e-10 4.1456e-10 -6.41112e-12)
(2.49832e-10 1.43951e-10 -3.68471e-12)
(3.17981e-10 3.80187e-10 -3.04397e-12)
(5.30208e-11 2.17781e-10 -4.18733e-12)
(3.55701e-11 1.43321e-10 -3.38314e-12)
(1.78482e-10 8.56329e-10 -6.60313e-12)
(3.08126e-10 3.73038e-10 -1.89131e-12)
(1.83036e-10 8.65536e-10 -8.02579e-12)
(3.70282e-11 1.44615e-10 -3.18314e-12)
(1.91355e-10 4.0481e-10 -3.17578e-12)
(2.46701e-10 1.41421e-10 -3.74717e-12)
(1.9483e-10 9.21962e-10 -7.91709e-12)
(1.44823e-10 2.22851e-10 -4.27161e-12)
(1.88737e-10 9.09722e-10 -4.33628e-12)
(1.94272e-10 4.13611e-10 -6.15444e-12)
(2.44734e-10 1.39921e-10 -3.43917e-12)
(1.95095e-10 3.65857e-10 5.54206e-11)
(1.3324e-10 2.08454e-10 1.67469e-11)
(2.32742e-10 1.25144e-10 3.89701e-11)
(1.60786e-10 8.26469e-10 1.14701e-10)
(1.64153e-10 8.58082e-10 4.99795e-11)
(2.17697e-10 3.26927e-10 1.57889e-10)
(2.34579e-10 1.28749e-10 2.05609e-11)
(2.34299e-10 3.39288e-10 3.74272e-11)
(3.29923e-11 1.99015e-10 1.3454e-11)
(1.6618e-12 1.28699e-10 1.58813e-11)
(1.29914e-10 7.72231e-10 1.03223e-10)
(2.12467e-10 3.35341e-10 7.03947e-11)
(1.37098e-10 7.94813e-10 4.6569e-11)
(6.7504e-12 1.30249e-10 1.00155e-11)
(3.01199e-10 1.72347e-10 4.93295e-10)
(2.30147e-10 1.18838e-10 7.13854e-11)
(1.62643e-10 8.10385e-10 1.44259e-10)
(1.31982e-10 1.7634e-10 8.22145e-11)
(1.97137e-10 6.86748e-10 2.7476e-10)
(2.23448e-10 3.17825e-10 1.82461e-10)
(2.27204e-10 1.05887e-10 1.30528e-10)
(9.61202e-12 -2.53004e-12 -1.08235e-12)
(6.47574e-12 1.31816e-11 1.47516e-12)
(4.17133e-11 -8.0558e-12 1.03916e-12)
(1.31935e-10 -5.68174e-11 5.7166e-11)
(1.02889e-10 -5.33965e-11 2.71399e-11)
(-5.98965e-13 2.2671e-11 2.06873e-12)
(-6.82936e-10 2.19721e-10 -2.13294e-10)
(4.37399e-11 1.05894e-11 1.38751e-11)
(2.78603e-12 9.48132e-12 9.70955e-12)
(-4.32563e-12 1.13749e-11 6.51268e-11)
(2.90146e-11 3.09126e-11 3.53793e-11)
(6.30987e-11 4.46941e-11 3.0189e-11)
(8.31926e-12 4.54328e-11 4.90263e-11)
(4.60828e-12 -4.67996e-12 5.98493e-11)
(2.30426e-10 8.34246e-10 3.10339e-12)
(3.00924e-11 4.26082e-11 3.77542e-11)
(4.67005e-10 5.01514e-10 3.6529e-11)
(8.86176e-11 2.07935e-10 6.94363e-11)
(2.42721e-10 9.00905e-10 3.98191e-11)
(9.1799e-11 1.68272e-10 2.04689e-11)
(2.12657e-10 7.68858e-10 1.11633e-10)
(4.49044e-10 4.68527e-10 2.70528e-11)
(9.90581e-11 1.62443e-10 5.02799e-11)
(2.71977e-10 1.14546e-09 2.18527e-11)
(2.25212e-10 9.57892e-10 7.44464e-11)
(-5.73652e-12 2.86111e-12 6.7258e-11)
(-4.14365e-12 -9.67978e-12 5.52379e-11)
(3.54931e-11 3.78712e-11 5.49392e-11)
(5.23314e-11 4.83436e-11 7.51067e-12)
(5.54755e-11 5.11644e-11 2.05941e-11)
(4.94007e-13 -1.1198e-12 2.12812e-11)
(7.48059e-13 -7.54133e-13 2.10555e-11)
(7.89932e-13 -8.31338e-13 6.13591e-12)
(6.21077e-13 -4.14811e-13 6.12809e-12)
(2.09541e-12 -2.11827e-12 2.0813e-11)
(7.21342e-13 -2.39843e-13 3.24702e-12)
(1.80667e-12 -9.63671e-13 7.01787e-12)
(-5.95304e-13 -2.2817e-13 1.85549e-12)
(2.02435e-13 -5.64132e-13 4.7542e-12)
(2.00953e-12 -2.30308e-14 1.99799e-11)
(2.01748e-12 7.97291e-14 1.99954e-11)
(-1.23671e-12 -3.99116e-14 3.62672e-13)
(-1.34386e-12 -4.00861e-14 1.05272e-13)
(1.51652e-13 -2.64595e-14 1.61542e-11)
(-2.57964e-13 8.47046e-15 1.21984e-12)
(-1.7442e-13 -3.68273e-14 1.36568e-12)
(-1.44023e-12 -7.08238e-15 -6.25472e-14)
(-1.34901e-12 -1.89266e-14 9.84215e-14)
(-8.91998e-07 1.45411e-07 -1.47317e-06)
(-1.02866e-09 -1.02441e-09 -1.12273e-10)
(-7.58468e-07 1.93908e-07 -1.29913e-06)
(-1.3268e-09 -1.22624e-09 -2.03268e-10)
(-2.0613e-06 -1.26683e-06 1.97622e-06)
(-7.87616e-07 -4.19171e-07 1.09763e-06)
(-1.09171e-12 2.69413e-12 3.09099e-12)
(-8.42971e-11 1.78955e-10 5.61849e-12)
(-1.31727e-10 2.05041e-10 -5.41712e-12)
(-4.11773e-07 -2.25621e-07 2.44652e-07)
(-1.35812e-08 -8.17983e-09 4.16925e-08)
(-6.12456e-07 -3.32997e-07 8.70082e-07)
(-1.19117e-10 7.03348e-10 3.62761e-11)
(-2.02081e-06 -1.25623e-06 1.78942e-06)
(-6.76275e-07 -3.81202e-07 3.19756e-07)
(-7.46393e-07 -4.16501e-07 9.9063e-07)
(-1.79238e-08 -1.17704e-08 4.77068e-08)
(-6.52862e-07 -3.34246e-07 9.65096e-07)
(-1.17101e-10 4.58806e-10 2.37641e-11)
(3.65909e-11 4.59104e-11 -9.53211e-14)
(3.3836e-11 4.51563e-11 -1.2502e-12)
(2.57545e-10 1.18798e-09 -2.59494e-12)
(2.4999e-10 1.18408e-09 -2.1711e-12)
(3.7124e-10 4.15604e-10 -6.16257e-13)
(6.55418e-11 2.32858e-10 -3.79789e-12)
(2.08215e-10 9.09576e-10 -7.1963e-12)
(5.07293e-11 1.55615e-10 -3.16511e-12)
(2.14293e-10 9.1801e-10 -6.21417e-12)
(3.59294e-10 4.08612e-10 -2.70257e-12)
(5.28213e-11 1.56859e-10 -3.1193e-12)
(2.41138e-10 1.1743e-09 -6.55393e-12)
(2.48004e-10 1.18712e-09 -3.99814e-12)
(3.10464e-11 4.44564e-11 -1.24336e-12)
(3.33016e-11 4.49435e-11 -6.64754e-13)
(-1.09607e-05 -6.41787e-06 -5.79761e-06)
(-1.05013e-05 -6.10663e-06 -5.69862e-06)
(-1.43246e-05 -9.55116e-06 4.90752e-06)
(-1.08994e-05 -7.28152e-06 4.41419e-06)
(-7.4014e-06 -4.92121e-06 3.3974e-06)
(-1.01102e-05 -6.61462e-06 1.17312e-06)
(-1.041e-05 -6.9472e-06 3.92805e-06)
(-7.43334e-06 -4.94423e-06 3.75053e-06)
(-1.04384e-05 -6.97294e-06 4.33711e-06)
(-1.43003e-05 -9.52385e-06 4.44383e-06)
(-1.10372e-05 -7.22955e-06 1.2157e-06)
(-1.08716e-05 -7.2555e-06 3.99776e-06)
(2.66931e-11 4.31499e-11 -7.68478e-13)
(2.52412e-11 4.27237e-11 -1.3365e-12)
(2.27873e-10 1.15076e-09 -6.22769e-12)
(2.24343e-10 1.14409e-09 -5.82352e-12)
(3.32567e-10 3.91442e-10 -3.37363e-12)
(5.62795e-11 2.23023e-10 -3.59321e-12)
(1.88438e-10 8.77388e-10 -6.48922e-12)
(3.98215e-11 1.4774e-10 -2.99636e-12)
(1.91546e-10 8.83741e-10 -7.49437e-12)
(3.25828e-10 3.86314e-10 -3.60845e-12)
(4.08916e-11 1.48684e-10 -2.90049e-12)
(2.19768e-10 1.13399e-09 -6.00163e-12)
(2.23177e-10 1.14204e-09 -6.05737e-12)
(2.37455e-11 4.21568e-11 -1.35947e-12)
(2.49994e-11 4.25858e-11 -7.94416e-13)
(-2.86776e-05 -1.80358e-05 -7.86291e-06)
(-2.80614e-05 -1.76447e-05 -7.82762e-06)
(-3.30394e-05 -2.13502e-05 6.22296e-06)
(-2.86582e-05 -1.86597e-05 6.05363e-06)
(-2.3784e-05 -1.56072e-05 5.23647e-06)
(-2.77012e-05 -1.79068e-05 1.66072e-06)
(-2.80283e-05 -1.82531e-05 5.45312e-06)
(-2.37998e-05 -1.56336e-05 5.78471e-06)
(-2.8041e-05 -1.82781e-05 6.0246e-06)
(-3.303e-05 -2.13274e-05 5.63227e-06)
(-2.89389e-05 -1.86744e-05 1.678e-06)
(-2.86459e-05 -1.8635e-05 5.47934e-06)
(2.07997e-11 4.0778e-11 -7.81358e-13)
(1.77179e-11 4.01003e-11 -9.34665e-13)
(2.06625e-10 1.10275e-09 -4.70791e-12)
(1.98817e-10 1.08766e-09 -1.08605e-12)
(2.90438e-10 3.62736e-10 3.33975e-12)
(4.59464e-11 2.09702e-10 -3.34253e-12)
(1.5676e-10 8.22122e-10 6.51728e-12)
(2.35494e-11 1.36156e-10 -8.95002e-13)
(1.6669e-10 8.37187e-10 -3.48216e-12)
(2.68323e-10 3.5095e-10 1.25208e-11)
(2.76275e-11 1.38225e-10 -2.27247e-12)
(1.84522e-10 1.06278e-09 1.15747e-11)
(1.95658e-10 1.08215e-09 8.05761e-13)
(1.20476e-11 3.91031e-11 3.39534e-13)
(1.6895e-11 3.98738e-11 -2.00886e-13)
(-4.90878e-05 -3.06901e-05 -8.31683e-06)
(-4.84444e-05 -3.0295e-05 -8.31596e-06)
(-5.36239e-05 -3.38681e-05 6.43159e-06)
(-4.90869e-05 -3.10933e-05 6.45495e-06)
(-4.39282e-05 -2.79435e-05 5.81832e-06)
(-4.81262e-05 -3.03855e-05 1.79307e-06)
(-4.84403e-05 -3.0684e-05 5.84087e-06)
(-4.39325e-05 -2.7962e-05 6.42859e-06)
(-4.84432e-05 -3.07012e-05 6.45323e-06)
(-5.36267e-05 -3.38557e-05 5.84759e-06)
(-4.94157e-05 -3.11724e-05 1.79395e-06)
(-4.90842e-05 -3.10763e-05 5.84249e-06)
(-8.48251e-12 3.61912e-11 6.76623e-12)
(3.20025e-12 3.2385e-11 9.1347e-12)
(1.48098e-10 9.8192e-10 1.59603e-10)
(1.82464e-10 8.71083e-10 2.76052e-10)
(2.65851e-10 3.0187e-10 1.49015e-10)
(3.71759e-11 7.82619e-11 4.09791e-11)
(2.00146e-10 6.03725e-10 2.73701e-10)
(8.59465e-12 4.89503e-11 1.30993e-11)
(2.18802e-10 7.99073e-10 3.16229e-10)
(1.57281e-11 3.07474e-11 1.03518e-11)
(1.62009e-11 6.31519e-12 6.63256e-12)
(3.91539e-12 1.34327e-11 -2.59193e-13)
(2.37442e-11 1.91538e-11 1.1706e-11)
(1.23823e-10 2.88926e-11 2.4707e-11)
(2.67886e-11 4.82699e-11 5.02529e-11)
(3.10356e-12 1.30479e-11 4.42365e-11)
(5.91345e-11 9.05305e-10 1.03801e-11)
(1.19541e-11 3.42498e-11 2.48913e-11)
(9.17769e-11 4.09861e-10 6.94196e-11)
(1.46664e-10 2.09336e-10 7.43718e-11)
(2.34003e-10 9.7622e-10 4.47754e-11)
(2.69622e-10 1.49131e-10 3.74963e-11)
(1.78213e-10 8.27281e-10 1.16768e-10)
(1.90409e-10 4.85699e-10 4.45696e-11)
(2.27847e-10 1.35746e-10 4.15698e-11)
(2.03596e-10 1.2481e-09 2.62623e-11)
(1.43509e-10 1.04164e-09 8.09679e-11)
(-2.81189e-13 1.81822e-11 2.97124e-12)
(1.30751e-12 1.32652e-11 3.74016e-11)
(1.10699e-11 2.51015e-11 1.881e-11)
(1.85746e-10 3.89831e-11 2.2354e-11)
(1.44536e-10 3.13581e-11 2.29525e-11)
(-2.71177e-11 8.58666e-12 2.91924e-11)
(-7.92057e-10 1.88743e-10 -2.21127e-10)
(-2.06252e-11 9.74704e-12 3.063e-11)
(1.87801e-11 1.17098e-12 4.38749e-11)
(1.09663e-12 1.18317e-11 4.39816e-11)
(1.63755e-12 9.75704e-12 5.44125e-11)
(-6.36308e-12 -3.97876e-13 6.99175e-11)
(-3.15751e-11 2.4021e-12 5.54766e-11)
(-3.70876e-12 7.98801e-12 6.21929e-11)
(-1.91815e-12 1.07097e-11 3.93787e-11)
(-3.43976e-11 1.70756e-11 4.15551e-11)
(-6.72135e-13 1.17418e-11 5.3217e-11)
(2.20379e-10 4.74305e-10 2.08339e-11)
(1.69891e-10 2.50473e-10 9.76233e-12)
(2.38517e-10 9.80784e-10 3.38589e-11)
(2.63129e-10 1.63067e-10 2.32971e-11)
(1.73879e-10 5.073e-10 4.14252e-11)
(2.51966e-10 1.01702e-09 1.72841e-11)
(2.67264e-10 1.62269e-10 8.72416e-12)
(1.78984e-10 4.52841e-11 9.6456e-14)
(1.80204e-10 4.54467e-11 1.22251e-12)
(2.18805e-10 1.29956e-09 -2.45856e-12)
(2.3354e-10 1.3305e-09 1.01388e-11)
(2.13889e-10 1.24825e-09 2.34516e-11)
(2.32632e-10 1.31158e-09 1.73915e-11)
(1.81881e-10 4.42019e-11 1.75178e-11)
(1.80244e-10 4.61966e-11 2.78691e-12)
(-6.56337e-12 2.63657e-12 -1.69645e-12)
(-1.34704e-11 1.0535e-11 5.5376e-11)
(-1.65606e-11 1.32423e-11 1.3663e-11)
(7.17342e-13 8.0884e-12 -3.21481e-12)
(-8.6468e-12 1.62884e-11 1.02136e-11)
(-1.14481e-11 3.18844e-12 5.83634e-11)
(3.46531e-11 1.34423e-11 4.44057e-12)
(-1.22125e-11 1.32754e-11 1.96995e-11)
(-4.84534e-12 -3.5577e-12 3.36472e-11)
(-1.74905e-12 -2.42915e-12 4.45282e-11)
(6.11135e-12 6.22422e-12 2.25932e-11)
(1.3101e-12 -1.2142e-12 7.30813e-12)
(4.73221e-12 5.04407e-13 1.55068e-11)
(-5.28145e-12 -6.10169e-12 3.84713e-11)
(3.52021e-12 5.63885e-12 1.49397e-11)
(4.54705e-11 4.08351e-12 2.13764e-12)
(4.14912e-10 4.44136e-10 1.41597e-11)
(8.01954e-11 2.4148e-10 8.63512e-12)
(2.45378e-10 9.06356e-10 3.05147e-11)
(8.38851e-11 1.6851e-10 1.03753e-11)
(4.50889e-10 4.68764e-10 2.49237e-11)
(2.44332e-10 9.49803e-10 1.71329e-11)
(7.2828e-11 1.67157e-10 3.52748e-12)
(3.71099e-11 4.60305e-11 -3.59079e-13)
(4.15103e-11 4.66184e-11 1.00016e-12)
(2.62419e-10 1.20718e-09 -3.02909e-12)
(2.78634e-10 1.25133e-09 9.34121e-12)
(2.7665e-10 1.1466e-09 2.05428e-11)
(2.80328e-10 1.22959e-09 1.71387e-11)
(5.13925e-11 4.85756e-11 5.9283e-12)
(4.3145e-11 4.70817e-11 1.10804e-12)
(-6.15803e-12 -3.58196e-12 6.81542e-11)
(-5.64784e-12 -2.21775e-12 4.70272e-11)
(-2.16884e-12 -2.61331e-12 5.84745e-11)
(3.04054e-13 -3.12699e-12 3.77931e-11)
(-2.31081e-12 -1.04241e-12 5.23616e-11)
(-5.53945e-13 -2.37748e-12 5.52802e-11)
(-4.68375e-12 -1.20312e-12 4.65188e-11)
(-4.27277e-12 -8.98081e-13 5.6543e-11)
(-2.65801e-12 -1.74694e-12 5.80212e-11)
(2.0916e-12 -4.50562e-14 2.00621e-11)
(2.09702e-12 -1.49476e-13 2.00855e-11)
(-1.60604e-12 -4.4802e-13 3.30475e-11)
(-2.46726e-12 -7.83168e-13 5.20053e-11)
(-2.87893e-12 -5.40514e-13 5.11269e-11)
(-5.26316e-12 -2.48837e-13 5.5049e-11)
(-3.0794e-12 -1.99169e-13 4.56048e-11)
(-5.05787e-12 -4.19363e-13 5.55294e-11)
(-4.4847e-12 -6.79707e-13 5.62967e-11)
(-3.1015e-12 -2.15855e-13 4.56848e-11)
(-4.94864e-12 -4.55544e-13 5.57127e-11)
(4.49645e-13 -2.71039e-13 1.69957e-11)
(5.79483e-13 -2.00938e-13 3.01567e-12)
(2.23632e-13 -1.06622e-13 2.31105e-12)
(-1.20429e-12 -6.39709e-14 4.29168e-13)
(-1.05772e-12 -7.26897e-14 8.20658e-13)
(-7.23924e-13 -1.68021e-13 1.58795e-12)
(-9.98979e-13 -9.66542e-14 9.45944e-13)
(-5.30846e-12 -1.87641e-13 5.49506e-11)
(-3.19759e-12 3.77373e-14 4.542e-11)
(-5.41323e-12 3.35559e-14 5.49252e-11)
(-2.0919e-12 -1.99497e-14 3.16157e-11)
(-3.33782e-12 -1.71124e-13 5.06786e-11)
(-3.40045e-12 6.73528e-14 5.01467e-11)
(-3.21258e-12 5.03539e-14 4.55022e-11)
(-5.4038e-12 -2.2054e-13 5.56038e-11)
(-5.43858e-12 7.04002e-14 5.50264e-11)
(3.95261e-13 -5.93237e-12 2.01058e-11)
(9.19691e-13 -3.98854e-12 2.02495e-11)
(-3.27548e-13 -2.14196e-12 3.33702e-11)
(-3.21073e-12 -5.32189e-13 5.099e-11)
(-1.66714e-12 -5.93862e-12 5.26011e-11)
(-3.81709e-12 -9.01381e-11 6.42038e-11)
(-6.16372e-12 -1.586e-11 4.71712e-11)
(-3.06883e-12 -1.42628e-11 5.83634e-11)
(-5.30726e-12 -7.03827e-13 5.59108e-11)
(-4.68081e-12 -7.66477e-12 4.68292e-11)
(-4.13338e-12 -7.2547e-12 5.7513e-11)
(1.26713e-12 -8.3161e-13 1.71705e-11)
(-2.12829e-13 7.14198e-15 1.32299e-12)
(-4.16808e-14 1.23263e-13 1.62801e-12)
(-9.9884e-13 1.59264e-12 2.19406e-12)
(-1.18433e-12 1.45095e-13 5.56407e-13)
(-1.40238e-12 1.52102e-14 2.7918e-14)
(-1.3352e-12 1.05136e-13 2.38645e-13)
(-1.83786e-06 -8.12244e-07 -1.24965e-06)
(-8.64377e-07 1.05155e-07 -1.39027e-06)
(-7.28993e-07 -1.84578e-07 -7.27987e-07)
(-2.61757e-11 -1.73738e-10 7.01817e-11)
(-1.59954e-09 -1.91108e-09 4.67931e-11)
(-1.14476e-09 -1.02489e-09 5.0859e-10)
(-3.07126e-10 -7.05738e-10 -9.36879e-11)
(-3.95807e-07 -1.98499e-07 8.80945e-08)
(-4.05038e-09 6.77208e-09 -3.70628e-08)
(-4.23461e-07 -1.00958e-07 -3.78821e-07)
(-2.33422e-09 -5.42121e-09 -1.83106e-10)
(-1.80092e-06 -8.77291e-07 -8.9275e-07)
(-6.59794e-07 -3.50238e-07 1.1145e-07)
(-6.91591e-07 -2.36219e-07 -5.14929e-07)
(-7.30384e-07 1.55266e-07 -1.22206e-06)
(-2.97993e-09 -6.59421e-09 -2.16296e-09)
(-1.01101e-08 9.75383e-09 -5.41539e-08)
(-4.57623e-07 -5.61052e-08 -5.39009e-07)
(-3.29554e-09 -6.10392e-09 -1.80134e-10)
(-8.51858e-07 1.8446e-07 -1.42968e-06)
(-7.20228e-07 2.33754e-07 -1.26554e-06)
(-1.75008e-06 -7.63517e-07 -9.6373e-07)
(-8.07888e-07 1.60663e-07 -1.32649e-06)
(-6.60418e-07 -1.27178e-07 -5.76654e-07)
(-3.64605e-07 -2.14705e-07 2.12513e-07)
(5.58991e-09 3.09748e-08 -3.27601e-08)
(-3.73259e-07 -6.05504e-08 -2.68285e-07)
(-1.71932e-06 -8.43467e-07 -5.9621e-07)
(-6.19805e-07 -3.64569e-07 2.75281e-07)
(-6.29122e-07 -1.95873e-07 -3.52623e-07)
(-6.76617e-07 2.12813e-07 -1.17272e-06)
(-6.65433e-10 4.55321e-08 -5.47646e-08)
(-4.0237e-07 1.75835e-09 -4.4121e-07)
(-4.30216e-06 -1.91403e-06 -3.80246e-06)
(-4.61899e-06 -2.12486e-06 -3.93852e-06)
(-2.30321e-06 -1.09947e-06 -1.41236e-06)
(-4.28398e-06 -1.95914e-06 -3.63004e-06)
(-3.9696e-06 -2.17027e-06 -1.86823e-06)
(-4.54365e-06 -2.84886e-06 2.61336e-07)
(-6.74281e-06 -4.10191e-06 -1.73125e-06)
(-4.57926e-06 -2.66557e-06 -1.44526e-06)
(-2.26729e-06 -1.16725e-06 -1.011e-06)
(-3.90072e-06 -2.42204e-06 2.45052e-07)
(-3.93709e-06 -2.24328e-06 -1.34243e-06)
(-4.60128e-06 -2.16977e-06 -3.7605e-06)
(-6.77075e-06 -4.02665e-06 -2.40361e-06)
(-4.61062e-06 -2.59156e-06 -2.00972e-06)
(-4.25601e-06 -1.88272e-06 -3.64443e-06)
(-4.57301e-06 -2.09408e-06 -3.7745e-06)
(-2.21224e-06 -1.05229e-06 -1.0861e-06)
(-4.21727e-06 -1.91476e-06 -3.39656e-06)
(-3.87337e-06 -2.12755e-06 -1.43227e-06)
(-4.47802e-06 -2.85955e-06 6.98544e-07)
(-6.64917e-06 -4.07627e-06 -1.15813e-06)
(-4.48688e-06 -2.63694e-06 -9.62842e-07)
(-2.18224e-06 -1.1345e-06 -6.73665e-07)
(-3.83676e-06 -2.4331e-06 6.52883e-07)
(-3.84581e-06 -2.21364e-06 -8.93636e-07)
(-4.53478e-06 -2.12615e-06 -3.51819e-06)
(-6.67354e-06 -3.98967e-06 -1.84571e-06)
(-4.51364e-06 -2.55029e-06 -1.54075e-06)
(-2.0327e-06 -1.31814e-06 2.17691e-06)
(-7.69541e-07 -4.76561e-07 1.21592e-06)
(-3.83713e-07 -2.57426e-07 3.87011e-07)
(-1.67886e-08 -2.97251e-08 5.2467e-08)
(-6.00288e-07 -3.73955e-07 9.52909e-07)
(-1.99906e-06 -1.29158e-06 1.9473e-06)
(-6.39493e-07 -4.10596e-07 5.03129e-07)
(-7.3258e-07 -4.56426e-07 1.08291e-06)
(-2.22725e-08 -3.95865e-08 5.94218e-08)
(-6.36903e-07 -3.92974e-07 1.0714e-06)
(-2.29082e-06 -1.42316e-06 2.09455e-06)
(-4.21471e-06 -2.74262e-06 2.87358e-06)
(-4.55676e-06 -2.90295e-06 8.28468e-07)
(-7.0055e-06 -4.65264e-06 3.31543e-06)
(-4.49686e-06 -2.9429e-06 2.69793e-06)
(-2.25079e-06 -1.4116e-06 1.89688e-06)
(-3.91425e-06 -2.47414e-06 7.72294e-07)
(-4.17819e-06 -2.72513e-06 2.60342e-06)
(-7.03796e-06 -4.67516e-06 3.65996e-06)
(-4.53286e-06 -2.96112e-06 2.97791e-06)
(-2.26109e-06 -1.47372e-06 2.30646e-06)
(-4.17871e-06 -2.78798e-06 3.15794e-06)