/*--------------------------------*- C++ -*----------------------------------*\
| =========                 |                                                 |
| \\      /  F ield         | OpenFOAM: The Open Source CFD Toolbox           |
|  \\    /   O peration     | Version:  2012                                  |
|   \\  /    A nd           | Website:  www.openfoam.com                      |
|    \\/     M anipulation  |                                                 |
\*---------------------------------------------------------------------------*/
FoamFile
{
    version     2.0;
    format      ascii;
    class       volVectorField;
    location    "0.105/solid";
    object      D_0;
}
// * * * * * * * * * * * * * * * * * * * * * * * * * * * * * * * * * * * * * //

dimensions      [0 1 0 0 0 0 0];


internalField   nonuniform List<vector> 
24998
(
(1.98936e-11 5.50419e-11 4.16247e-11)
(-4.13437e-14 2.08864e-13 -9.67237e-13)
(3.51654e-12 -3.25008e-13 2.28783e-11)
(2.49309e-13 -1.32691e-13 1.6217e-11)
(2.00901e-11 -2.47812e-11 1.87277e-11)
(7.06231e-11 2.34816e-10 -3.57171e-12)
(5.83377e-11 2.24581e-10 -3.45167e-12)
(5.07032e-11 2.13659e-10 -4.49424e-12)
(3.21907e-11 1.89386e-10 3.51871e-11)
(3.16836e-11 5.6928e-11 3.87384e-11)
(1.85667e-12 8.4881e-13 4.0917e-11)
(1.72267e-10 2.47902e-10 -1.39567e-12)
(1.09588e-13 1.42576e-13 -1.88114e-12)
(4.52433e-12 -4.06919e-13 2.3124e-11)
(7.33427e-11 2.38596e-10 -2.85001e-12)
(1.7644e-12 3.95924e-13 4.15493e-11)
(-1.91651e-12 -2.11283e-13 3.17548e-11)
(2.54833e-13 -1.25289e-13 1.62552e-11)
(-1.96463e-12 -1.75545e-13 3.16275e-11)
(2.22037e-11 -3.94734e-11 3.85843e-11)
(1.48181e-11 -1.69902e-11 1.9813e-11)
(4.15905e-11 -7.37541e-11 4.10509e-11)
(1.66793e-10 2.45147e-10 -3.10723e-12)
(1.57088e-10 2.36238e-10 -3.56704e-12)
(5.92882e-11 2.25741e-10 -3.49274e-12)
(1.56025e-10 2.35112e-10 -3.53133e-12)
(1.49289e-10 2.26165e-10 -4.59458e-12)
(5.23572e-11 2.15563e-10 -4.46551e-12)
(1.47666e-10 2.24293e-10 -4.59682e-12)
(1.32467e-10 2.02969e-10 2.99329e-11)
(3.11732e-11 1.95121e-10 2.28311e-11)
(1.31558e-10 1.94602e-10 5.04088e-11)
(2.72614e-12 -3.29236e-14 -4.17816e-12)
(-6.22314e-11 2.92497e-11 1.76609e-12)
(-2.43006e-13 8.71646e-12 1.89221e-11)
(1.30319e-11 3.89015e-11 5.18893e-11)
(9.09864e-11 2.28497e-10 3.43718e-11)
(-7.8815e-13 -9.26811e-12 3.35659e-11)
(-4.3716e-12 -2.95732e-12 2.70551e-11)
(2.06347e-12 -2.26191e-13 1.9995e-11)
(7.60138e-13 -3.98607e-13 1.75406e-11)
(2.27909e-12 2.80597e-14 1.96876e-11)
(2.17462e-12 -2.1297e-13 1.9919e-11)
(2.23996e-13 2.23278e-14 1.62563e-11)
(-1.86091e-06 -7.24226e-07 -2.27746e-06)
(-3.97236e-11 -1.06369e-10 1.21927e-11)
(-4.2883e-08 1.37196e-09 -4.92184e-08)
(-5.6424e-09 -8.67417e-10 2.21108e-08)
(-1.5285e-06 -1.1424e-06 4.25246e-07)
(6.42453e-11 2.30525e-10 -3.78819e-12)
(-1.23947e-05 -9.60426e-06 -5.57106e-06)
(-6.47234e-06 -4.61897e-06 -4.28446e-06)
(-6.47213e-06 -5.20071e-06 8.3768e-07)
(-1.20485e-05 -9.70544e-06 1.08625e-06)
(5.59725e-11 2.21292e-10 -3.60147e-12)
(-2.85084e-05 -2.21884e-05 -6.98375e-06)
(-2.05488e-05 -1.61424e-05 -6.52464e-06)
(-2.07277e-05 -1.63885e-05 1.31526e-06)
(-2.81871e-05 -2.18638e-05 1.42269e-06)
(4.34251e-11 2.06537e-10 -1.74905e-12)
(-4.61522e-05 -3.49917e-05 -7.26817e-06)
(-3.78997e-05 -2.90479e-05 -7.18073e-06)
(-3.81521e-05 -2.89781e-05 1.48148e-06)
(-4.62524e-05 -3.47652e-05 1.40399e-06)
(5.13927e-12 1.42601e-13 -5.40939e-12)
(-1.4147e-12 3.9866e-11 5.1071e-11)
(1.73541e-10 2.33773e-10 4.07369e-11)
(-2.51244e-11 2.43465e-11 1.57659e-11)
(-5.94156e-12 -2.49018e-12 2.81638e-11)
(-5.72457e-11 2.04051e-11 -7.12708e-12)
(5.57966e-12 2.11039e-11 5.05882e-11)
(-1.57818e-11 -2.18414e-12 5.93321e-11)
(-2.38935e-11 1.4303e-11 1.61007e-11)
(1.71899e-10 2.44123e-10 2.29561e-11)
(-4.95702e-12 7.31992e-12 1.6276e-11)
(4.2284e-12 -5.44368e-12 3.22642e-11)
(7.99751e-13 1.94204e-11 5.10114e-11)
(3.3662e-12 -5.10977e-12 2.6584e-11)
(8.79371e-12 -2.9573e-12 2.74345e-11)
(8.75512e-11 2.35329e-10 1.90543e-11)
(-1.09954e-11 -4.78714e-12 5.63227e-11)
(-1.16337e-12 -6.12592e-13 3.36697e-11)
(-3.15227e-12 -3.70666e-13 4.53091e-11)
(2.29985e-12 -8.10191e-14 1.96912e-11)
(2.10454e-12 -1.04797e-13 1.99585e-11)
(-1.33254e-12 -5.20944e-13 3.34937e-11)
(-2.8029e-12 -9.39727e-14 4.49152e-11)
(-3.0081e-12 -2.80784e-13 4.52559e-11)
(7.1476e-13 -3.75034e-13 1.74526e-11)
(-2.83282e-12 -5.65601e-14 4.4887e-11)
(-1.99179e-12 -5.16835e-14 3.17891e-11)
(-3.01101e-12 -3.33849e-13 4.54609e-11)
(-2.45999e-11 -7.05101e-11 1.56303e-11)
(2.14827e-12 -2.31882e-13 1.99441e-11)
(-1.85379e-12 -2.48881e-13 3.20225e-11)
(-3.82963e-11 -1.34053e-10 4.80009e-11)
(-3.14098e-12 -8.34733e-13 4.56384e-11)
(2.44056e-13 -3.87203e-14 1.63056e-11)
(-1.84185e-06 -7.64243e-07 -2.17601e-06)
(-8.27546e-11 -2.75578e-10 4.68339e-11)
(-1.62739e-09 -2.43523e-09 8.88956e-09)
(-1.51611e-06 -1.1148e-06 1.2257e-07)
(-5.68271e-08 -1.86858e-08 -1.02986e-07)
(-1.81958e-06 -6.93488e-07 -2.16102e-06)
(-7.04531e-08 2.32084e-08 -7.72988e-08)
(-1.78278e-06 -7.20674e-07 -2.00423e-06)
(3.57341e-09 -8.07025e-09 2.54284e-08)
(-1.47693e-06 -1.12573e-06 4.19636e-07)
(-4.09754e-08 2.77733e-08 -6.34097e-08)
(-2.05781e-06 -8.82102e-07 -2.41217e-06)
(-6.13281e-06 -4.32875e-06 -4.18286e-06)
(-2.03915e-06 -9.21998e-07 -2.30571e-06)
(-5.77704e-06 -4.60601e-06 2.15866e-07)
(-1.9175e-06 -1.43617e-06 1.35362e-07)
(-6.11893e-06 -4.36127e-06 -4.00802e-06)
(-2.0166e-06 -8.51824e-07 -2.28787e-06)
(-6.09951e-06 -4.30538e-06 -3.96455e-06)
(-1.98021e-06 -8.79088e-07 -2.12233e-06)
(-5.73692e-06 -4.6143e-06 7.64562e-07)
(-1.87703e-06 -1.44671e-06 4.69573e-07)
(-6.07094e-06 -4.32815e-06 -3.68588e-06)
(-1.53716e-09 -2.25471e-08 4.51095e-08)
(-1.49346e-06 -1.16465e-06 7.5099e-07)
(-5.78606e-06 -4.63668e-06 7.9723e-07)
(-1.92937e-06 -1.46495e-06 4.77061e-07)
(-5.74795e-06 -4.65355e-06 1.39601e-06)
(-1.89283e-06 -1.48643e-06 8.43051e-07)
(1.62106e-10 2.40851e-10 -3.81779e-12)
(1.60209e-10 2.39442e-10 -3.76696e-12)
(6.28155e-11 2.28975e-10 -3.66013e-12)
(-1.23842e-05 -9.62423e-06 -5.33911e-06)
(-6.46342e-06 -5.17066e-06 2.26656e-07)
(-6.4587e-06 -4.65079e-06 -4.10555e-06)
(-1.20419e-05 -9.6847e-06 2.98281e-07)
(-1.23749e-05 -9.58791e-06 -5.29403e-06)
(-6.43981e-06 -4.59606e-06 -4.06131e-06)
(-1.23557e-05 -9.60103e-06 -4.9301e-06)
(-6.42435e-06 -5.17864e-06 7.99428e-07)
(-6.4118e-06 -4.61831e-06 -3.77627e-06)
(-1.20152e-05 -9.69057e-06 9.97515e-07)
(-1.2838e-05 -9.96984e-06 -5.64144e-06)
(-2.00383e-05 -1.57442e-05 -6.48217e-06)
(-1.28278e-05 -9.98898e-06 -5.40648e-06)
(-1.96982e-05 -1.56155e-05 3.6726e-07)
(-1.2935e-05 -1.03925e-05 3.07815e-07)
(-2.00305e-05 -1.57512e-05 -6.2103e-06)
(-1.28192e-05 -9.95391e-06 -5.36195e-06)
(-2.00324e-05 -1.57342e-05 -6.17912e-06)
(-1.28005e-05 -9.96637e-06 -4.99381e-06)
(-1.96922e-05 -1.56192e-05 1.13702e-06)
(-1.29106e-05 -1.03981e-05 1.01965e-06)
(-2.0022e-05 -1.5737e-05 -5.76257e-06)
(-6.43483e-06 -5.21695e-06 1.4626e-06)
(-1.20225e-05 -9.71737e-06 1.84842e-06)
(-1.97019e-05 -1.56183e-05 1.29492e-06)
(-1.29412e-05 -1.04113e-05 1.11678e-06)
(-1.96968e-05 -1.56258e-05 2.13367e-06)
(-1.29175e-05 -1.04227e-05 1.89263e-06)
(1.5351e-10 2.31858e-10 -3.73167e-12)
(1.52656e-10 2.30613e-10 -3.89084e-12)
(5.5347e-11 2.20049e-10 -3.74447e-12)
(-2.85028e-05 -2.21847e-05 -6.68903e-06)
(-2.07243e-05 -1.63882e-05 3.7449e-07)
(-2.05412e-05 -1.61486e-05 -6.25085e-06)
(-2.81861e-05 -2.18808e-05 4.14205e-07)
(-2.85137e-05 -2.21836e-05 -6.67468e-06)
(-2.05437e-05 -1.61327e-05 -6.22077e-06)
(-2.85106e-05 -2.21778e-05 -6.23206e-06)
(-2.07212e-05 -1.63916e-05 1.14896e-06)
(-2.05339e-05 -1.61349e-05 -5.80188e-06)
(-2.82019e-05 -2.18827e-05 1.20576e-06)
(-2.9054e-05 -2.25933e-05 -7.00361e-06)
(-3.73436e-05 -2.86464e-05 -7.17608e-06)
(-2.90485e-05 -2.25891e-05 -6.70799e-06)
(-3.70394e-05 -2.82193e-05 4.35037e-07)
(-2.92811e-05 -2.26719e-05 4.1822e-07)
(-3.73397e-05 -2.8636e-05 -6.87348e-06)
(-2.90599e-05 -2.25887e-05 -6.69454e-06)
(-3.73558e-05 -2.86452e-05 -6.86897e-06)
(-2.90572e-05 -2.25826e-05 -6.25099e-06)
(-3.70718e-05 -2.82199e-05 1.22956e-06)
(-2.92993e-05 -2.26736e-05 1.21066e-06)
(-3.73577e-05 -2.86341e-05 -6.41907e-06)
(-2.07255e-05 -1.63954e-05 2.15914e-06)
(-2.82048e-05 -2.18676e-05 2.28537e-06)
(-3.70381e-05 -2.81866e-05 1.47849e-06)
(-2.92817e-05 -2.26526e-05 1.43325e-06)
(-3.70739e-05 -2.81878e-05 2.34507e-06)
(-2.9302e-05 -2.2656e-05 2.29696e-06)
(1.41174e-10 2.17206e-10 -1.57588e-12)
(1.38666e-10 2.14323e-10 1.82116e-12)
(4.01444e-11 2.03808e-10 1.22547e-12)
(-4.62668e-05 -3.50651e-05 -7.00583e-06)
(-3.81536e-05 -2.90122e-05 4.36022e-07)
(-3.78958e-05 -2.90372e-05 -6.87804e-06)
(-4.6252e-05 -3.47835e-05 8.90974e-07)
(-4.61696e-05 -3.49936e-05 -6.96082e-06)
(-3.79122e-05 -2.90469e-05 -6.87381e-06)
(-4.6287e-05 -3.5065e-05 -6.57728e-06)
(-3.81874e-05 -2.90127e-05 1.23065e-06)
(-3.79142e-05 -2.90356e-05 -6.42389e-06)
(-4.62728e-05 -3.47836e-05 1.30792e-06)
(-3.81894e-05 -2.89791e-05 2.34828e-06)
(-4.62739e-05 -3.47653e-05 1.83127e-06)
(1.78566e-11 -2.4582e-12 -2.25784e-12)
(1.08265e-10 -1.4435e-11 4.63213e-11)
(5.84518e-11 -3.42845e-11 -1.29278e-12)
(4.62389e-10 4.96216e-10 4.00811e-11)
(3.13125e-11 4.17281e-11 3.59652e-11)
(2.29001e-11 6.30798e-11 3.82672e-11)
(6.35232e-11 1.50007e-10 9.81393e-11)
(1.97233e-10 5.82503e-10 1.99227e-10)
(1.99059e-11 3.03462e-11 2.8666e-11)
(1.15763e-10 1.28823e-10 8.2002e-11)
(2.15231e-12 -1.07046e-12 8.47227e-12)
(1.77709e-12 -1.92812e-12 2.12817e-11)
(2.23263e-12 -6.83477e-13 8.7748e-12)
(-8.18467e-14 -5.53577e-14 1.55018e-12)
(1.60551e-13 1.40494e-15 1.60582e-11)
(-1.84411e-13 -2.48617e-14 1.30859e-12)
(1.90362e-12 3.18484e-12 4.85288e-12)
(5.82861e-11 -4.37654e-11 3.42202e-11)
(-7.61754e-11 2.32954e-10 5.01882e-12)
(3.72857e-10 4.13405e-10 6.63601e-13)
(5.89728e-11 1.59097e-10 -2.04553e-12)
(2.27225e-10 9.2213e-10 -5.31719e-12)
(6.81857e-11 2.32847e-10 -3.10842e-12)
(3.91686e-10 4.2508e-10 3.93474e-12)
(2.18408e-10 9.14247e-10 -2.89763e-12)
(5.598e-11 1.57308e-10 -2.5382e-12)
(3.32678e-10 3.89802e-10 -3.40334e-12)
(4.29747e-11 1.49872e-10 -2.76623e-12)
(1.96942e-10 8.89344e-10 -7.34219e-12)
(5.74705e-11 2.235e-10 -3.42631e-12)
(3.3955e-10 3.94773e-10 -3.05886e-12)
(1.93866e-10 8.83782e-10 -5.89095e-12)
(4.1811e-11 1.48974e-10 -2.80847e-12)
(2.91763e-10 3.61435e-10 2.2471e-12)
(3.34478e-11 1.41251e-10 -3.38808e-12)
(1.78031e-10 8.51724e-10 -7.64662e-12)
(4.86972e-11 2.11516e-10 -4.22835e-12)
(3.07256e-10 3.71018e-10 -1.40093e-12)
(1.70875e-10 8.39725e-10 -3.99374e-12)
(3.07455e-11 1.39535e-10 -3.10494e-12)
(2.54723e-10 3.13604e-10 1.33353e-10)
(1.04567e-12 1.25673e-10 2.27346e-11)
(1.32104e-10 7.58961e-10 1.26388e-10)
(4.17543e-11 1.74312e-10 4.97832e-11)
(2.12784e-10 3.3452e-10 7.54191e-11)
(1.68676e-10 6.631e-10 2.28068e-10)
(1.11013e-11 1.1908e-10 3.11583e-11)
(1.08136e-10 3.51314e-10 7.14995e-11)
(5.46697e-11 3.47684e-11 2.44941e-11)
(2.2794e-11 6.761e-11 3.80169e-11)
(9.00616e-11 1.50215e-10 9.23895e-11)
(1.39234e-10 6.29586e-10 2.03356e-10)
(3.04835e-11 2.87986e-11 1.98283e-11)
(1.6863e-10 9.19855e-11 5.37772e-11)
(6.29043e-12 -1.15028e-11 4.63447e-11)
(-3.12747e-12 -1.90104e-13 6.2899e-11)
(-5.63074e-13 5.50011e-12 5.79282e-11)
(2.41871e-10 4.58144e-10 1.72198e-11)
(1.75765e-10 2.49506e-10 2.96478e-12)
(2.754e-10 1.56556e-10 9.89115e-13)
(2.44977e-10 1.00511e-09 -3.04883e-12)
(2.59499e-10 1.02177e-09 1.06246e-11)
(2.27455e-10 4.59866e-10 -2.89464e-12)
(2.78101e-10 1.56811e-10 2.18575e-12)
(-2.66086e-12 1.61918e-12 -6.52633e-12)
(-3.40527e-12 8.7615e-12 8.44185e-13)
(-1.13067e-11 1.33375e-11 2.63335e-12)
(8.06058e-12 6.74815e-15 2.75902e-11)
(2.7338e-12 -1.51098e-12 9.87027e-12)
(7.08946e-12 -1.37519e-13 1.99255e-11)
(4.10868e-10 4.36738e-10 1.3977e-11)
(7.70868e-11 2.41189e-10 1.88985e-12)
(6.01474e-11 1.61138e-10 -1.2437e-12)
(2.31704e-10 9.33706e-10 -3.9611e-12)
(3.91983e-10 4.25269e-10 4.36735e-12)
(2.46583e-10 9.55611e-10 9.99735e-12)
(6.36004e-11 1.63222e-10 5.36385e-13)
(-3.07363e-12 -2.62079e-12 6.09875e-11)
(7.88535e-13 -2.91405e-12 4.0828e-11)
(5.22912e-13 -2.25937e-12 5.55805e-11)
(-1.73382e-12 -3.69976e-13 3.23848e-11)
(-3.1622e-12 -2.50592e-13 4.98958e-11)
(-2.94949e-12 -4.12936e-13 5.04125e-11)
(4.20824e-13 -2.48213e-13 1.67022e-11)
(-5.56217e-14 -5.52939e-14 1.59732e-12)
(1.05999e-13 -9.39556e-14 2.00806e-12)
(-3.20715e-12 -1.61244e-13 4.97973e-11)
(-2.07005e-12 -1.88541e-14 3.14261e-11)
(-3.30665e-12 2.54516e-14 4.97695e-11)
(1.7498e-12 -5.94619e-12 3.4144e-11)
(3.65497e-12 -9.46805e-11 5.85689e-11)
(-3.90197e-13 -1.4167e-11 5.3336e-11)
(1.98221e-12 -2.03135e-12 1.72903e-11)
(1.5996e-12 1.68459e-12 3.9348e-12)
(2.39135e-13 8.92046e-14 2.01502e-12)
(-8.49237e-12 -1.8764e-10 6.31906e-11)
(1.66263e-10 -3.93641e-10 6.48775e-11)
(-6.68497e-10 -1.36023e-09 3.70282e-10)
(2.18744e-10 4.50022e-10 -4.8141e-12)
(2.68237e-10 1.56869e-10 -1.37924e-12)
(2.39516e-10 9.94617e-10 -5.09799e-12)
(1.64609e-10 2.43208e-10 -3.4585e-12)
(2.32191e-10 9.85502e-10 -3.87627e-12)
(2.21277e-10 4.62715e-10 -3.44339e-12)
(2.66076e-10 1.55106e-10 -3.4946e-12)
(2.10619e-10 4.3796e-10 -6.17634e-12)
(1.5819e-10 2.37281e-10 -3.50406e-12)
(2.58884e-10 1.49371e-10 -3.07773e-12)
(2.14597e-10 9.61568e-10 -6.44415e-12)
(2.18129e-10 9.67783e-10 -7.31204e-12)
(2.07303e-10 4.34773e-10 -6.18966e-12)
(2.60102e-10 1.50055e-10 -3.11913e-12)
(3.47717e-10 3.9996e-10 -2.62049e-12)
(6.03588e-11 2.26839e-10 -3.40045e-12)
(4.41763e-11 1.50791e-10 -2.81869e-12)
(1.98083e-10 8.91391e-10 -6.1247e-12)
(3.39987e-10 3.94928e-10 -3.20119e-12)
(2.01892e-10 8.97442e-10 -7.01378e-12)
(4.55491e-11 1.51711e-10 -2.74403e-12)
(2.05426e-10 4.29675e-10 -5.97908e-12)
(2.57646e-10 1.48611e-10 -3.01346e-12)
(2.13586e-10 9.59422e-10 -7.57583e-12)
(1.55171e-10 2.34032e-10 -3.53892e-12)
(2.10889e-10 9.53561e-10 -6.20068e-12)
(2.06865e-10 4.34283e-10 -6.0352e-12)
(2.56703e-10 1.47774e-10 -3.14433e-12)
(2.01182e-10 4.1862e-10 -6.59023e-12)
(1.50653e-10 2.27806e-10 -4.36017e-12)
(2.49955e-10 1.42056e-10 -3.92028e-12)
(1.98541e-10 9.23667e-10 -7.17864e-12)
(2.0285e-10 9.33172e-10 -8.3674e-12)
(1.98612e-10 4.12278e-10 -6.53616e-12)
(2.51461e-10 1.43225e-10 -3.70405e-12)
(3.18668e-10 3.78675e-10 -3.0153e-12)
(5.36749e-11 2.17239e-10 -4.24058e-12)
(3.5636e-11 1.42774e-10 -3.47433e-12)
(1.8005e-10 8.54862e-10 -6.71865e-12)
(3.08234e-10 3.7137e-10 -1.89591e-12)
(1.84875e-10 8.64074e-10 -8.06219e-12)
(3.73537e-11 1.44109e-10 -3.28743e-12)
(1.95084e-10 4.02447e-10 -3.34388e-12)
(2.48267e-10 1.40686e-10 -3.79495e-12)
(1.96854e-10 9.20394e-10 -8.01987e-12)
(1.45761e-10 2.22195e-10 -4.32584e-12)
(1.90512e-10 9.08127e-10 -4.53691e-12)
(1.98151e-10 4.11325e-10 -6.28464e-12)
(2.46282e-10 1.39173e-10 -3.49839e-12)
(1.98613e-10 3.63403e-10 5.49466e-11)
(1.34078e-10 2.07741e-10 1.64866e-11)
(2.34098e-10 1.24321e-10 3.86612e-11)
(1.6225e-10 8.24708e-10 1.13793e-10)
(1.65711e-10 8.56258e-10 4.94209e-11)
(2.21068e-10 3.24412e-10 1.56957e-10)
(2.35986e-10 1.27941e-10 2.03391e-11)
(2.33944e-10 3.37411e-10 3.69664e-11)
(3.33033e-11 1.98342e-10 1.31835e-11)
(1.48206e-12 1.28014e-10 1.55565e-11)
(1.3113e-10 7.70313e-10 1.02309e-10)
(2.12102e-10 3.33381e-10 6.9463e-11)
(1.38283e-10 7.93115e-10 4.59532e-11)
(6.55711e-12 1.29588e-10 9.77898e-12)
(3.04404e-10 1.69957e-10 4.91293e-10)
(2.31466e-10 1.1798e-10 7.09572e-11)
(1.64268e-10 8.08121e-10 1.43091e-10)
(1.32741e-10 1.75515e-10 8.14947e-11)
(1.98675e-10 6.84482e-10 2.72686e-10)
(2.26793e-10 3.15303e-10 1.81433e-10)
(2.28464e-10 1.05036e-10 1.29899e-10)
(9.15676e-12 -2.93554e-12 -2.41732e-12)
(7.58035e-12 1.1596e-11 -2.1215e-12)
(3.99871e-11 -1.13223e-11 -3.47634e-12)
(1.26051e-10 -5.23379e-11 5.41256e-11)
(9.66001e-11 -5.66955e-11 2.01773e-11)
(1.45164e-12 2.06536e-11 -2.25504e-12)
(-6.31784e-10 1.78147e-10 -2.28181e-10)
(4.28412e-11 3.78394e-12 6.52973e-12)
(2.84133e-12 9.31351e-12 9.51548e-12)
(-4.25622e-12 1.1266e-11 6.43134e-11)
(2.90052e-11 3.05094e-11 3.4818e-11)
(6.26509e-11 4.38954e-11 2.96225e-11)
(9.0939e-12 4.4903e-11 4.83076e-11)
(4.69738e-12 -5.01825e-12 5.86667e-11)
(2.3566e-10 8.26918e-10 2.56646e-12)
(3.01413e-11 4.21343e-11 3.71752e-11)
(4.67944e-10 4.95297e-10 3.53544e-11)
(9.12414e-11 2.05577e-10 6.8886e-11)
(2.50031e-10 8.93622e-10 4.05638e-11)
(9.29478e-11 1.66239e-10 2.05909e-11)
(2.19511e-10 7.61536e-10 1.10451e-10)
(4.51406e-10 4.62515e-10 2.73614e-11)
(9.99583e-11 1.60413e-10 4.97356e-11)
(2.79426e-10 1.1369e-09 2.24384e-11)
(2.32016e-10 9.49549e-10 7.34717e-11)
(-5.60031e-12 2.78243e-12 6.64298e-11)
(-3.98508e-12 -9.86781e-12 5.41731e-11)
(3.5376e-11 3.74405e-11 5.41791e-11)
(5.23158e-11 4.74296e-11 7.58059e-12)
(5.52884e-11 5.02462e-11 2.02205e-11)
(8.23183e-13 -1.01157e-12 2.07706e-11)
(1.0687e-12 -6.58889e-13 2.05747e-11)
(6.955e-13 -8.21886e-13 5.80508e-12)
(5.01682e-13 -4.10129e-13 5.8029e-12)
(2.04336e-12 -2.06659e-12 2.04192e-11)
(6.28991e-13 -2.2641e-13 2.97321e-12)
(1.68847e-12 -9.52603e-13 6.66326e-12)
(-6.77616e-13 -2.1777e-13 1.62533e-12)
(9.436e-14 -5.55919e-13 4.45367e-12)
(2.23204e-12 -1.86948e-14 1.97341e-11)
(2.24064e-12 8.34306e-14 1.9751e-11)
(-1.26799e-12 -3.24452e-14 2.67066e-13)
(-1.35684e-12 -3.29549e-14 5.66316e-14)
(1.55007e-13 -8.38594e-15 1.60627e-11)
(-2.47624e-13 1.49096e-14 1.2174e-12)
(-1.85986e-13 -2.77669e-14 1.31063e-12)
(-1.43219e-12 -1.55304e-15 -5.9596e-14)
(-1.35946e-12 -1.19583e-14 5.62333e-14)
(-7.70613e-07 6.17882e-08 -1.27538e-06)
(-9.54822e-10 -9.49918e-10 -1.00473e-10)
(-6.55573e-07 1.22413e-07 -1.12435e-06)
(-1.22691e-09 -1.13528e-09 -1.83519e-10)
(-1.77372e-06 -1.29031e-06 1.68769e-06)
(-6.77214e-07 -4.10633e-07 9.3806e-07)
(-3.57804e-13 1.98987e-12 3.15076e-12)
(-6.68512e-11 1.50318e-10 5.53622e-12)
(-1.24895e-10 2.54495e-12 -3.10176e-11)
(-3.52587e-07 -2.36923e-07 1.98132e-07)
(-1.17312e-08 -6.49368e-09 3.58823e-08)
(-5.26571e-07 -3.25377e-07 7.44701e-07)
(-9.04615e-11 5.88155e-10 3.13952e-11)
(-1.73932e-06 -1.28691e-06 1.53031e-06)
(-5.79809e-07 -4.04153e-07 2.58188e-07)
(-6.4183e-07 -4.11121e-07 8.47719e-07)
(-1.54118e-08 -9.55534e-09 4.09405e-08)
(-5.61289e-07 -3.24118e-07 8.24963e-07)
(-9.42152e-11 3.87149e-10 2.07969e-11)
(3.62276e-11 4.53483e-11 2.21009e-13)
(3.34058e-11 4.46815e-11 -1.00157e-12)
(2.60665e-10 1.18431e-09 -1.40359e-12)
(2.52112e-10 1.18083e-09 -1.16904e-12)
(3.70876e-10 4.12773e-10 3.71309e-13)
(6.60175e-11 2.31895e-10 -3.36409e-12)
(2.09568e-10 9.07267e-10 -6.46325e-12)
(5.04437e-11 1.54749e-10 -2.81909e-12)
(2.16104e-10 9.15312e-10 -5.2572e-12)
(3.58643e-10 4.06159e-10 -2.02054e-12)
(5.26047e-11 1.5592e-10 -2.6992e-12)
(2.42537e-10 1.17164e-09 -5.84247e-12)
(2.49884e-10 1.18401e-09 -3.06637e-12)
(3.05622e-11 4.4063e-11 -1.08043e-12)
(3.28409e-11 4.44947e-11 -4.42891e-13)
(-9.45003e-06 -7.1474e-06 -5.0253e-06)
(-9.05381e-06 -6.81321e-06 -4.93962e-06)
(-1.23456e-05 -9.94177e-06 4.19787e-06)
(-9.39198e-06 -7.58454e-06 3.77375e-06)
(-6.37745e-06 -5.13669e-06 2.90665e-06)
(-8.70587e-06 -7.02395e-06 9.51621e-07)
(-8.97186e-06 -7.25573e-06 3.36211e-06)
(-6.40352e-06 -5.14439e-06 3.20453e-06)
(-8.99443e-06 -7.26307e-06 3.70757e-06)
(-1.23271e-05 -9.93628e-06 3.80569e-06)
(-9.50489e-06 -7.67035e-06 9.87139e-07)
(-9.36991e-06 -7.57734e-06 3.422e-06)
(2.61964e-11 4.28385e-11 -7.1995e-13)
(2.48406e-11 4.2426e-11 -1.29451e-12)
(2.28965e-10 1.14893e-09 -5.89662e-12)
(2.25629e-10 1.14239e-09 -5.54122e-12)
(3.3231e-10 3.89665e-10 -3.25788e-12)
(5.6675e-11 2.2244e-10 -3.46165e-12)
(1.90113e-10 8.75913e-10 -6.27838e-12)
(3.99526e-11 1.47195e-10 -2.84387e-12)
(1.92874e-10 8.82236e-10 -7.21907e-12)
(3.26245e-10 3.84721e-10 -3.5446e-12)
(4.07834e-11 1.48096e-10 -2.76327e-12)
(2.21501e-10 1.13235e-09 -5.79372e-12)
(2.24562e-10 1.14036e-09 -5.78834e-12)
(2.37743e-11 4.19056e-11 -1.28946e-12)
(2.46508e-11 4.22945e-11 -7.5345e-13)
(-2.47332e-05 -1.93562e-05 -6.80905e-06)
(-2.42016e-05 -1.89525e-05 -6.77867e-06)
(-2.84885e-05 -2.19951e-05 5.33469e-06)
(-2.47089e-05 -1.92726e-05 5.18777e-06)
(-2.05077e-05 -1.61967e-05 4.48973e-06)
(-2.38723e-05 -1.87212e-05 1.36868e-06)
(-2.41692e-05 -1.88917e-05 4.67734e-06)
(-2.05179e-05 -1.61945e-05 4.9548e-06)
(-2.41764e-05 -1.88854e-05 5.1626e-06)
(-2.84846e-05 -2.20061e-05 4.83269e-06)
(-2.49398e-05 -1.95043e-05 1.38399e-06)
(-2.47021e-05 -1.92795e-05 4.70006e-06)
(2.05169e-11 4.04948e-11 -7.99195e-13)
(1.73644e-11 3.98124e-11 -9.45434e-13)
(2.08171e-10 1.10118e-09 -4.81494e-12)
(2.00167e-10 1.08589e-09 -1.2344e-12)
(2.90179e-10 3.60956e-10 3.27174e-12)
(4.62845e-11 2.0914e-10 -3.40634e-12)
(1.57754e-10 8.20805e-10 6.33354e-12)
(2.33218e-11 1.35549e-10 -9.63618e-13)
(1.67968e-10 8.35729e-10 -3.62204e-12)
(2.67947e-10 3.49142e-10 1.23506e-11)
(2.74232e-11 1.37629e-10 -2.32079e-12)
(1.85692e-10 1.06119e-09 1.14291e-11)
(1.97036e-10 1.08049e-09 6.57305e-13)
(1.16786e-11 3.88106e-11 3.07961e-13)
(1.65348e-11 3.95848e-11 -2.16943e-13)
(-4.23461e-05 -3.22508e-05 -7.19833e-06)
(-4.17908e-05 -3.18512e-05 -7.19762e-06)
(-4.62501e-05 -3.46068e-05 5.51407e-06)
(-4.23351e-05 -3.18079e-05 5.53521e-06)
(-3.78882e-05 -2.86743e-05 4.99387e-06)
(-4.1492e-05 -3.13545e-05 1.48675e-06)
(-4.1782e-05 -3.14344e-05 5.01313e-06)
(-3.78872e-05 -2.86549e-05 5.51282e-06)
(-4.17796e-05 -3.14129e-05 5.53377e-06)
(-4.62578e-05 -3.4632e-05 5.01838e-06)
(-4.26047e-05 -3.21483e-05 1.48751e-06)
(-4.23377e-05 -3.18297e-05 5.01448e-06)
(-8.80194e-12 3.58523e-11 6.56457e-12)
(2.86328e-12 3.20426e-11 8.78238e-12)
(1.49112e-10 9.79844e-10 1.58341e-10)
(1.83656e-10 8.68021e-10 2.73498e-10)
(2.65743e-10 3.00305e-10 1.46545e-10)
(3.74034e-11 7.78744e-11 4.04561e-11)
(2.01165e-10 6.01662e-10 2.71234e-10)
(8.48584e-12 4.86131e-11 1.26229e-11)
(2.19775e-10 7.96431e-10 3.13513e-10)
(1.53728e-11 3.04362e-11 9.88483e-12)
(1.67935e-11 6.02401e-12 6.32434e-12)
(5.21167e-12 1.23564e-11 -3.49933e-12)
(2.54859e-11 1.81681e-11 1.0569e-11)
(1.29994e-10 2.75663e-11 2.41088e-11)
(2.75689e-11 4.76918e-11 4.94851e-11)
(4.10891e-12 1.25762e-11 4.20832e-11)
(6.78438e-11 8.95917e-10 9.96279e-12)
(1.3516e-11 3.30746e-11 2.38085e-11)
(1.10691e-10 3.96398e-10 6.9296e-11)
(1.51391e-10 2.06324e-10 7.39805e-11)
(2.43257e-10 9.68208e-10 4.56382e-11)
(2.76084e-10 1.45916e-10 3.81539e-11)
(1.87497e-10 8.18895e-10 1.15681e-10)
(2.06497e-10 4.76079e-10 4.45856e-11)
(2.35098e-10 1.32089e-10 4.10864e-11)
(2.13223e-10 1.23821e-09 2.69159e-11)
(1.52902e-10 1.03148e-09 8.01436e-11)
(1.5815e-12 1.69404e-11 -6.25191e-13)
(2.55474e-12 1.28037e-11 3.49563e-11)
(1.29759e-11 2.38338e-11 1.70306e-11)
(1.90202e-10 3.80228e-11 2.26323e-11)
(1.50099e-10 2.98648e-11 2.27941e-11)
(-2.52963e-11 9.54139e-12 2.70147e-11)
(-7.2835e-10 1.482e-10 -2.64272e-10)
(-1.8961e-11 1.1013e-11 2.82255e-11)
(1.87586e-11 1.20367e-12 4.26546e-11)
(2.09774e-12 1.15546e-11 4.17101e-11)
(2.43817e-12 9.89053e-12 5.23752e-11)
(-5.97272e-12 -4.14462e-14 6.83203e-11)
(-2.90107e-11 3.72406e-12 5.17053e-11)
(-2.73743e-12 8.44067e-12 5.97519e-11)
(-4.83921e-13 1.04425e-11 3.67704e-11)
(-3.15648e-11 1.84894e-11 3.70363e-11)
(5.01379e-13 1.19792e-11 5.07311e-11)
(2.31762e-10 4.67641e-10 2.1069e-11)
(1.73048e-10 2.48254e-10 1.06799e-11)
(2.47255e-10 9.73228e-10 3.50237e-11)
(2.68579e-10 1.60334e-10 2.41175e-11)
(1.89559e-10 4.97928e-10 4.14877e-11)
(2.58579e-10 1.01076e-09 1.87726e-11)
(2.71764e-10 1.59974e-10 9.56176e-12)
(1.81115e-10 4.48076e-11 2.72766e-13)
(1.83038e-10 4.48373e-11 1.46399e-12)
(2.23419e-10 1.29515e-09 -1.35571e-12)
(2.39674e-10 1.32305e-09 1.17543e-11)
(2.23025e-10 1.23897e-09 2.43537e-11)
(2.395e-10 1.30348e-09 1.84394e-11)
(1.86011e-10 4.33214e-11 1.77866e-11)
(1.83299e-10 4.5531e-11 3.04258e-12)
(-6.52075e-12 2.56494e-12 -1.98719e-12)
(-1.33872e-11 1.04879e-11 5.46353e-11)
(-1.65446e-11 1.31581e-11 1.31033e-11)
(3.76825e-13 7.9994e-12 -3.27695e-12)
(-8.72354e-12 1.61555e-11 9.67233e-12)
(-1.13401e-11 3.183e-12 5.76623e-11)
(3.45227e-11 1.33173e-11 4.19843e-12)
(-1.22346e-11 1.31844e-11 1.91141e-11)
(-4.60649e-12 -3.48197e-12 3.28951e-11)
(-1.59508e-12 -2.55945e-12 4.32295e-11)
(6.02106e-12 6.00638e-12 2.21357e-11)
(1.20468e-12 -1.20211e-12 6.95828e-12)
(4.59543e-12 4.79547e-13 1.50837e-11)
(-5.06171e-12 -6.213e-12 3.74399e-11)
(3.41712e-12 5.44688e-12 1.45526e-11)
(4.52851e-11 3.96557e-12 1.91749e-12)
(4.1664e-10 4.39398e-10 1.55554e-11)
(8.21991e-11 2.39552e-10 9.44644e-12)
(2.52366e-10 8.99455e-10 3.16029e-11)
(8.49945e-11 1.66641e-10 1.08557e-11)
(4.53255e-10 4.62897e-10 2.54428e-11)
(2.4976e-10 9.4388e-10 1.86038e-11)
(7.37218e-11 1.65476e-10 4.19929e-12)
(3.68121e-11 4.54307e-11 -1.59326e-14)
(4.13681e-11 4.5896e-11 1.36961e-12)
(2.65883e-10 1.20339e-09 -1.81682e-12)
(2.83909e-10 1.24435e-09 1.12144e-11)
(2.83823e-10 1.13852e-09 2.14281e-11)
(2.8613e-10 1.22206e-09 1.81552e-11)
(5.13782e-11 4.76874e-11 6.10465e-12)
(4.30885e-11 4.63088e-11 1.45768e-12)
(-5.88079e-12 -3.25999e-12 6.66966e-11)
(-5.14335e-12 -2.00463e-12 4.59942e-11)
(-2.01422e-12 -2.38754e-12 5.74709e-11)
(2.22852e-13 -3.04362e-12 3.71007e-11)
(-2.28481e-12 -9.41178e-13 5.17084e-11)
(-5.03294e-13 -2.22589e-12 5.44343e-11)
(-4.244e-12 -1.03379e-12 4.56083e-11)
(-4.19775e-12 -7.88007e-13 5.58524e-11)
(-2.53819e-12 -1.56749e-12 5.71164e-11)
(2.30986e-12 -2.86601e-14 1.97795e-11)
(2.31271e-12 -1.32306e-13 1.97983e-11)
(-1.66069e-12 -4.04231e-13 3.26433e-11)
(-2.44311e-12 -6.97595e-13 5.14033e-11)
(-2.84205e-12 -4.82406e-13 5.0634e-11)
(-5.18023e-12 -2.10222e-13 5.46305e-11)
(-2.78305e-12 -1.66198e-13 4.50729e-11)
(-4.97791e-12 -3.62092e-13 5.50305e-11)
(-4.41412e-12 -5.88448e-13 5.5661e-11)
(-2.80571e-12 -1.80661e-13 4.51299e-11)
(-4.86138e-12 -3.9575e-13 5.51765e-11)
(4.19587e-13 -2.43051e-13 1.67732e-11)
(4.92122e-13 -1.88098e-13 2.7514e-12)
(1.60937e-13 -9.51006e-14 2.1173e-12)
(-1.23827e-12 -5.63056e-14 3.26589e-13)
(-1.11128e-12 -6.42593e-14 6.66724e-13)
(-8.01919e-13 -1.58081e-13 1.36779e-12)
(-1.05532e-12 -8.80223e-14 7.84528e-13)
(-5.22157e-12 -1.53864e-13 5.45515e-11)
(-2.89268e-12 4.92569e-14 4.49734e-11)
(-5.31133e-12 6.36531e-14 5.45807e-11)
(-2.08515e-12 4.01414e-15 3.14496e-11)
(-3.24797e-12 -2.40108e-13 5.04614e-11)
(-3.3277e-12 9.19464e-14 4.98717e-11)
(-2.90591e-12 5.87715e-14 4.50657e-11)
(-5.28928e-12 -2.99159e-13 5.53348e-11)
(-5.333e-12 9.52298e-14 5.47071e-11)
(3.79386e-13 -6.17367e-12 1.98524e-11)
(9.86714e-13 -4.19295e-12 2.0002e-11)
(-3.87665e-14 -2.99552e-12 3.3398e-11)
(-3.117e-12 -6.88833e-13 5.07865e-11)
(-1.67206e-12 -7.24243e-12 5.24575e-11)
(-7.46838e-12 -1.07111e-10 6.37638e-11)
(-6.48402e-12 -1.65478e-11 4.6777e-11)
(-3.48567e-12 -1.66566e-11 5.81708e-11)
(-5.20114e-12 -8.63187e-13 5.56471e-11)
(-4.68811e-12 -8.13863e-12 4.64318e-11)
(-4.25927e-12 -8.49796e-12 5.73086e-11)
(1.46931e-12 -1.2854e-12 1.71716e-11)
(-1.98752e-13 1.23611e-14 1.32775e-12)
(3.2199e-14 8.82293e-14 1.67977e-12)
(-4.91935e-13 1.15214e-12 2.26118e-12)
(-1.12423e-12 1.22657e-13 6.10532e-13)
(-1.39141e-12 2.03308e-14 3.70434e-14)
(-1.28691e-12 9.19774e-14 2.8812e-13)
(-1.5828e-06 -9.48623e-07 -1.10992e-06)
(-7.47345e-07 2.48483e-08 -1.20738e-06)
(-6.2832e-07 -2.46392e-07 -6.46232e-07)
(-3.13788e-11 -2.05841e-10 6.92911e-11)
(-1.5029e-09 -1.81467e-09 4.49895e-11)
(-1.06252e-09 -1.23805e-09 4.68485e-10)
(-1.88218e-10 -1.06753e-09 -7.13781e-11)
(-3.39297e-07 -2.16332e-07 6.46743e-08)
(-3.45118e-09 5.80258e-09 -3.2666e-08)
(-3.64444e-07 -1.36903e-07 -3.39698e-07)
(-2.06635e-09 -5.71139e-09 -2.33918e-10)
(-1.55006e-06 -1.00164e-06 -8.02463e-07)
(-5.66355e-07 -3.81617e-07 8.01427e-08)
(-5.95244e-07 -2.90561e-07 -4.62751e-07)
(-6.31954e-07 8.6868e-08 -1.06095e-06)
(-2.75379e-09 -6.06213e-09 -1.93845e-09)
(-8.7214e-09 8.37539e-09 -4.73897e-08)
(-3.94604e-07 -9.82261e-08 -4.77613e-07)
(-2.98042e-09 -6.24315e-09 -2.2836e-10)
(-7.32629e-07 9.54284e-08 -1.22286e-06)
(-6.19143e-07 1.56693e-07 -1.08233e-06)
(-1.5098e-06 -9.06552e-07 -7.94621e-07)
(-6.94155e-07 7.26694e-08 -1.13043e-06)
(-5.68815e-07 -1.96687e-07 -4.73641e-07)
(-3.14915e-07 -2.30317e-07 1.992e-07)
(4.94383e-09 2.64995e-08 -2.55092e-08)
(-3.21599e-07 -1.02238e-07 -2.1228e-07)
(-1.48407e-06 -9.72437e-07 -4.77342e-07)
(-5.35451e-07 -3.9376e-07 2.5755e-07)
(-5.42434e-07 -2.55554e-07 -2.80244e-07)
(-5.8099e-07 1.36399e-07 -9.99289e-07)
(-2.21701e-10 3.90504e-08 -4.45359e-08)
(-3.4618e-07 -4.84843e-08 -3.61563e-07)
(-3.70905e-06 -2.25862e-06 -3.29659e-06)
(-3.98215e-06 -2.49073e-06 -3.41457e-06)
(-1.98337e-06 -1.26526e-06 -1.25428e-06)
(-3.69291e-06 -2.29604e-06 -3.15653e-06)
(-3.41807e-06 -2.43534e-06 -1.65804e-06)
(-3.91054e-06 -3.06666e-06 1.82669e-07)
(-5.80572e-06 -4.49167e-06 -1.55135e-06)
(-3.94219e-06 -2.94627e-06 -1.29683e-06)
(-1.95151e-06 -1.31939e-06 -9.08508e-07)
(-3.35671e-06 -2.61052e-06 1.7126e-07)
(-3.38918e-06 -2.48964e-06 -1.20505e-06)
(-3.96631e-06 -2.52763e-06 -3.26994e-06)
(-5.83061e-06 -4.44205e-06 -2.13065e-06)
(-3.97008e-06 -2.89271e-06 -1.78313e-06)
(-3.67049e-06 -2.23159e-06 -3.12315e-06)
(-3.94414e-06 -2.46417e-06 -3.2349e-06)
(-1.90908e-06 -1.22452e-06 -8.96361e-07)
(-3.6375e-06 -2.25773e-06 -2.90067e-06)
(-3.34439e-06 -2.39844e-06 -1.18493e-06)
(-3.86862e-06 -3.07587e-06 6.49375e-07)
(-5.74369e-06 -4.46952e-06 -9.3745e-07)
(-3.87536e-06 -2.92154e-06 -7.76487e-07)
(-1.88401e-06 -1.29111e-06 -5.40269e-07)
(-3.31469e-06 -2.62005e-06 6.07324e-07)
(-3.32143e-06 -2.46403e-06 -7.1975e-07)
(-3.91168e-06 -2.48998e-06 -3.00487e-06)
(-5.76395e-06 -4.41011e-06 -1.53143e-06)
(-3.89763e-06 -2.85707e-06 -1.27564e-06)
(-1.75531e-06 -1.3346e-06 1.89777e-06)
(-6.64462e-07 -4.60173e-07 1.05948e-06)
(-3.32118e-07 -2.64696e-07 3.50356e-07)
(-1.46536e-08 -2.52275e-08 4.56592e-08)
(-5.18116e-07 -3.60743e-07 8.29698e-07)
(-1.72572e-06 -1.31741e-06 1.69607e-06)
(-5.53213e-07 -4.29428e-07 4.55126e-07)
(-6.32327e-07 -4.45585e-07 9.42977e-07)
(-1.93907e-08 -3.37933e-08 5.17059e-08)
(-5.49919e-07 -3.74818e-07 9.3341e-07)
(-1.97141e-06 -1.45379e-06 1.78869e-06)
(-3.62909e-06 -2.83699e-06 2.45411e-06)
(-3.92061e-06 -3.09787e-06 6.68295e-07)
(-6.03609e-06 -4.85511e-06 2.83636e-06)
(-3.87326e-06 -3.05964e-06 2.30737e-06)
(-1.93746e-06 -1.44995e-06 1.62216e-06)
(-3.36717e-06 -2.64147e-06 6.22684e-07)
(-3.59856e-06 -2.83067e-06 2.22647e-06)
(-6.06265e-06 -4.86277e-06 3.12694e-06)
(-3.90329e-06 -3.06621e-06 2.54329e-06)
(-1.95253e-06 -1.49744e-06 2.01074e-06)