/*--------------------------------*- C++ -*----------------------------------*\
| =========                 |                                                 |
| \\      /  F ield         | OpenFOAM: The Open Source CFD Toolbox           |
|  \\    /   O peration     | Version:  2012                                  |
|   \\  /    A nd           | Website:  www.openfoam.com                      |
|    \\/     M anipulation  |                                                 |
\*---------------------------------------------------------------------------*/
FoamFile
{
    version     2.0;
    format      ascii;
    class       volVectorField;
    location    "0.105/solid";
    object      D_0_0_0;
}
// * * * * * * * * * * * * * * * * * * * * * * * * * * * * * * * * * * * * * //

dimensions      [0 1 0 0 0 0 0];


internalField   nonuniform List<vector> 
24998
(
(1.92864e-11 5.47528e-11 4.12949e-11)
(-1.07688e-13 1.25676e-13 -1.08544e-12)
(3.43093e-12 -3.27856e-13 2.20182e-11)
(1.97397e-13 -1.15429e-13 1.53537e-11)
(2.39623e-11 -5.2989e-11 1.63367e-11)
(7.17086e-11 2.32426e-10 -4.32294e-12)
(6.08961e-11 2.21645e-10 -3.51313e-12)
(5.29691e-11 2.10494e-10 -4.68965e-12)
(3.39633e-11 1.85783e-10 3.31281e-11)
(3.12262e-11 5.66841e-11 3.85256e-11)
(1.74668e-12 7.75534e-13 3.93221e-11)
(1.74413e-10 2.4542e-10 -2.26533e-12)
(6.07974e-14 7.50397e-14 -1.98786e-12)
(4.41666e-12 -4.27082e-13 2.22495e-11)
(7.39474e-11 2.36344e-10 -3.72816e-12)
(1.71163e-12 3.68543e-13 3.99221e-11)
(-2.00857e-12 -1.90586e-13 3.01445e-11)
(2.00611e-13 -1.08004e-13 1.53855e-11)
(-2.04518e-12 -1.52966e-13 3.00365e-11)
(2.52211e-11 -6.97728e-11 3.83819e-11)
(1.75585e-11 -3.59264e-11 1.84469e-11)
(4.69481e-11 -1.36413e-10 4.18291e-11)
(1.69562e-10 2.42478e-10 -3.8247e-12)
(1.61454e-10 2.32961e-10 -3.68338e-12)
(6.1662e-11 2.22827e-10 -3.6156e-12)
(1.60536e-10 2.31802e-10 -3.6049e-12)
(1.53703e-10 2.22668e-10 -4.80023e-12)
(5.4714e-11 2.12426e-10 -4.66721e-12)
(1.51994e-10 2.20775e-10 -4.80398e-12)
(1.36198e-10 1.99082e-10 2.84868e-11)
(3.30147e-11 1.91599e-10 2.13694e-11)
(1.35125e-10 1.907e-10 4.8373e-11)
(3.13696e-12 -4.79026e-13 -3.8643e-12)
(-4.06942e-11 2.39167e-11 1.00424e-12)
(-3.65332e-13 8.55749e-12 1.84874e-11)
(1.29948e-11 3.83933e-11 5.12168e-11)
(8.85138e-11 2.27128e-10 3.33699e-11)
(-7.06568e-13 -9.45132e-12 3.27258e-11)
(-2.58038e-12 -2.96031e-12 2.53133e-11)
(3.44481e-12 -2.07267e-13 1.83682e-11)
(6.7526e-13 -3.99125e-13 1.66177e-11)
(3.63811e-12 1.59809e-14 1.80708e-11)
(3.65402e-12 -2.55109e-13 1.81801e-11)
(2.68082e-13 4.02902e-15 1.55301e-11)
(-7.46093e-07 -1.03889e-06 -9.4015e-07)
(-3.39703e-11 -7.59937e-11 1.23819e-11)
(-1.6349e-08 3.01649e-09 -1.91544e-08)
(-2.41786e-09 3.25874e-09 4.99025e-09)
(-6.02901e-07 -1.27482e-06 5.95819e-08)
(6.61449e-11 2.27825e-10 -4.22012e-12)
(-4.92883e-06 -1.07401e-05 -2.30489e-06)
(-2.57599e-06 -5.34207e-06 -1.77538e-06)
(-2.56663e-06 -5.71357e-06 1.25791e-07)
(-4.78141e-06 -1.05656e-05 1.82709e-07)
(5.92047e-11 2.18325e-10 -3.71844e-12)
(-1.13367e-05 -2.41173e-05 -2.87494e-06)
(-8.17065e-06 -1.77241e-05 -2.69185e-06)
(-8.22838e-06 -1.76808e-05 2.51907e-07)
(-1.11914e-05 -2.3458e-05 2.91446e-07)
(4.55388e-11 2.03264e-10 -2.10787e-12)
(-1.83626e-05 -3.75668e-05 -2.95461e-06)
(-1.50737e-05 -3.13278e-05 -2.95164e-06)
(-1.51522e-05 -3.09273e-05 3.15157e-07)
(-1.83936e-05 -3.70066e-05 4.27479e-07)
(5.41769e-12 -1.8364e-13 -5.14748e-12)
(-1.26547e-12 3.93392e-11 5.04537e-11)
(1.71396e-10 2.32797e-10 3.95276e-11)
(-1.27489e-11 2.21327e-11 1.42943e-11)
(-4.07332e-12 -2.46806e-12 2.64249e-11)
(-3.44771e-11 1.876e-11 -8.13032e-12)
(5.78698e-12 2.06455e-11 4.9738e-11)
(-1.32771e-11 -2.18556e-12 5.63341e-11)
(-1.09371e-11 1.40796e-11 1.49535e-11)
(1.70901e-10 2.42663e-10 2.16006e-11)
(-5.00902e-12 7.15947e-12 1.58067e-11)
(4.22414e-12 -5.69334e-12 3.15778e-11)
(8.22591e-13 1.89734e-11 5.01336e-11)
(3.39781e-12 -5.54181e-12 2.58045e-11)
(8.74127e-12 -3.45482e-12 2.67686e-11)
(8.58113e-11 2.33707e-10 1.79252e-11)
(-8.6166e-12 -4.82055e-12 5.32459e-11)
(-1.30139e-12 -6.14384e-13 3.19879e-11)
(-1.22682e-12 -3.40926e-13 4.23113e-11)
(3.6555e-12 -9.15935e-14 1.80783e-11)
(3.47841e-12 -8.83085e-14 1.83382e-11)
(-1.46906e-12 -5.19801e-13 3.18118e-11)
(-9.24548e-13 -1.1054e-13 4.19408e-11)
(-1.10911e-12 -2.57585e-13 4.22776e-11)
(6.30171e-13 -3.74811e-13 1.65299e-11)
(-9.40859e-13 -7.72414e-14 4.18987e-11)
(-1.9398e-12 -1.05874e-13 3.03899e-11)
(-9.70218e-13 -4.11525e-13 4.22851e-11)
(-2.10563e-11 -5.21391e-11 1.4937e-11)
(3.62871e-12 -2.752e-13 1.81933e-11)
(-1.76403e-12 -3.97631e-13 3.0661e-11)
(-3.91807e-11 -1.03963e-10 4.41027e-11)
(-1.0946e-12 -9.16364e-13 4.24212e-11)
(2.99375e-13 -8.18914e-14 1.55897e-11)
(-7.41837e-07 -1.06775e-06 -9.20089e-07)
(-8.03048e-11 -2.00144e-10 4.33402e-11)
(-1.47774e-09 -5.10066e-09 1.24947e-09)
(-6.00392e-07 -1.26747e-06 -5.06581e-08)
(-2.52896e-08 -6.35022e-09 -4.28062e-08)
(-7.12835e-07 -1.02667e-06 -8.0878e-07)
(-2.5492e-08 1.17871e-08 -2.94869e-08)
(-6.94838e-07 -1.05038e-06 -7.26322e-07)
(1.15732e-09 -3.05755e-09 1.83327e-08)
(-5.8427e-07 -1.27179e-06 2.79934e-07)
(-1.38354e-08 1.24834e-08 -2.35344e-08)
(-8.2416e-07 -1.217e-06 -9.96434e-07)
(-2.44117e-06 -5.02506e-06 -1.73332e-06)
(-8.20033e-07 -1.24568e-06 -9.75593e-07)
(-2.29253e-06 -5.09728e-06 -9.62476e-08)
(-7.59774e-07 -1.62467e-06 -5.80665e-08)
(-2.4375e-06 -5.04531e-06 -1.69973e-06)
(-7.9116e-07 -1.20495e-06 -8.56748e-07)
(-2.41839e-06 -5.01577e-06 -1.49499e-06)
(-7.73354e-07 -1.22857e-06 -7.69577e-07)
(-2.28142e-06 -5.10054e-06 5.00086e-07)
(-7.4343e-07 -1.62883e-06 3.12236e-07)
(-2.40513e-06 -5.03209e-06 -1.34812e-06)
(-2.01802e-09 -1.10711e-08 2.72577e-08)
(-5.93176e-07 -1.28368e-06 4.2117e-07)
(-2.29411e-06 -5.10175e-06 1.17981e-07)
(-7.62085e-07 -1.63225e-06 6.66564e-08)
(-2.28788e-06 -5.10844e-06 7.68393e-07)
(-7.52065e-07 -1.64078e-06 4.71422e-07)
(1.6591e-10 2.37809e-10 -4.21054e-12)
(1.64185e-10 2.36317e-10 -4.07796e-12)
(6.48477e-11 2.26198e-10 -4.00675e-12)
(-4.92424e-06 -1.07467e-05 -2.25717e-06)
(-2.56511e-06 -5.71034e-06 -9.96064e-08)
(-2.57229e-06 -5.36153e-06 -1.74089e-06)
(-4.78053e-06 -1.05759e-05 -1.09909e-07)
(-4.92198e-06 -1.07336e-05 -2.00718e-06)
(-2.55413e-06 -5.33295e-06 -1.53206e-06)
(-4.91476e-06 -1.07374e-05 -1.81765e-06)
(-2.55564e-06 -5.71347e-06 5.21681e-07)
(-2.54123e-06 -5.34857e-06 -1.38191e-06)
(-4.78717e-06 -1.05782e-05 6.39751e-07)
(-5.10504e-06 -1.11331e-05 -2.33365e-06)
(-7.96763e-06 -1.73012e-05 -2.67477e-06)
(-5.10037e-06 -1.11388e-05 -2.28507e-06)
(-7.82135e-06 -1.68974e-05 -1.01646e-07)
(-5.13521e-06 -1.1334e-05 -1.09772e-07)
(-7.96184e-06 -1.72941e-05 -2.61453e-06)
(-5.09921e-06 -1.11268e-05 -2.03354e-06)
(-7.97637e-06 -1.72972e-05 -2.35291e-06)
(-5.09236e-06 -1.11298e-05 -1.842e-06)
(-7.85249e-06 -1.68988e-05 7.14814e-07)
(-5.14469e-06 -1.13362e-05 6.52272e-07)
(-7.97497e-06 -1.72884e-05 -2.13902e-06)
(-2.56182e-06 -5.72001e-06 8.03306e-07)
(-4.79183e-06 -1.05703e-05 9.99605e-07)
(-7.82097e-06 -1.68649e-05 2.44981e-07)
(-5.13597e-06 -1.13213e-05 1.90902e-07)
(-7.85624e-06 -1.68679e-05 1.13443e-06)
(-5.14918e-06 -1.13258e-05 1.02124e-06)
(1.58375e-10 2.28469e-10 -3.85155e-12)
(1.57468e-10 2.27197e-10 -4.06987e-12)
(5.84467e-11 2.17044e-10 -3.96677e-12)
(-1.133e-05 -2.40993e-05 -2.80606e-06)
(-8.22896e-06 -1.77162e-05 -9.98422e-08)
(-8.16478e-06 -1.77162e-05 -2.63094e-06)
(-1.11935e-05 -2.35138e-05 -8.69103e-08)
(-1.13576e-05 -2.41154e-05 -2.54936e-06)
(-8.18028e-06 -1.77203e-05 -2.36932e-06)
(-1.13609e-05 -2.40965e-05 -2.32466e-06)
(-8.2633e-06 -1.77175e-05 7.20675e-07)
(-8.1792e-06 -1.77108e-05 -2.1544e-06)
(-1.12493e-05 -2.35145e-05 7.46364e-07)
(-1.15538e-05 -2.45439e-05 -2.88277e-06)
(-1.48524e-05 -3.09064e-05 -2.94989e-06)
(-1.1547e-05 -2.45253e-05 -2.8135e-06)
(-1.47127e-05 -3.01711e-05 -7.80833e-08)
(-1.16286e-05 -2.43461e-05 -8.53175e-08)
(-1.48452e-05 -3.08816e-05 -2.87739e-06)
(-1.15753e-05 -2.45421e-05 -2.5573e-06)
(-1.48807e-05 -3.09059e-05 -2.6276e-06)
(-1.15789e-05 -2.45227e-05 -2.33225e-06)
(-1.47871e-05 -3.01713e-05 7.55485e-07)
(-1.16871e-05 -2.43467e-05 7.48344e-07)
(-1.48871e-05 -3.08809e-05 -2.4005e-06)
(-8.26699e-06 -1.76835e-05 1.14578e-06)
(-1.12528e-05 -2.34595e-05 1.19946e-06)
(-1.47092e-05 -3.00972e-05 3.13961e-07)
(-1.16264e-05 -2.42876e-05 2.95621e-07)
(-1.47909e-05 -3.00977e-05 1.22305e-06)
(-1.16907e-05 -2.42889e-05 1.20412e-06)
(1.45311e-10 2.1359e-10 -1.94316e-12)
(1.42733e-10 2.1068e-10 1.33631e-12)
(4.22071e-11 2.00494e-10 7.4857e-13)
(-1.84025e-05 -3.76317e-05 -2.89518e-06)
(-1.51558e-05 -3.10028e-05 -7.76463e-08)
(-1.50665e-05 -3.13027e-05 -2.87907e-06)
(-1.83939e-05 -3.7045e-05 2.26565e-07)
(-1.83922e-05 -3.75678e-05 -2.65145e-06)
(-1.51023e-05 -3.13274e-05 -2.62958e-06)
(-1.84431e-05 -3.76305e-05 -2.46509e-06)
(-1.52318e-05 -3.1003e-05 7.55889e-07)
(-1.51088e-05 -3.13021e-05 -2.4025e-06)
(-1.8437e-05 -3.7045e-05 6.63729e-07)
(-1.52356e-05 -3.09277e-05 1.22433e-06)
(-1.8438e-05 -3.70067e-05 8.75403e-07)
(1.89395e-11 -3.00869e-12 -2.09728e-12)
(1.17879e-10 -1.91475e-11 4.85184e-11)
(6.47692e-11 -4.11759e-11 1.06739e-15)
(4.54013e-10 4.91011e-10 3.93361e-11)
(3.039e-11 4.13246e-11 3.55676e-11)
(2.22879e-11 6.28377e-11 3.80096e-11)
(6.16727e-11 1.49228e-10 9.7371e-11)
(1.9233e-10 5.80574e-10 1.97929e-10)
(1.92745e-11 2.99596e-11 2.83033e-11)
(1.12657e-10 1.27556e-10 8.10647e-11)
(1.95215e-12 -1.08998e-12 7.74442e-12)
(1.6812e-12 -1.94767e-12 2.03777e-11)
(1.97656e-12 -7.09571e-13 7.97296e-12)
(-2.71931e-13 -4.23072e-14 9.06953e-13)
(1.42549e-13 2.26318e-14 1.52502e-11)
(-3.36952e-13 -7.69379e-15 7.52962e-13)
(5.48745e-12 -1.7338e-12 4.69774e-12)
(5.41501e-11 -4.82939e-10 3.13506e-11)
(1.42538e-11 4.83592e-11 7.02419e-12)
(3.72274e-10 4.06384e-10 -7.80845e-13)
(5.84649e-11 1.56886e-10 -2.79773e-12)
(2.30658e-10 9.15292e-10 -7.00843e-12)
(6.96367e-11 2.30338e-10 -3.73818e-12)
(3.89722e-10 4.18573e-10 1.9211e-12)
(2.23337e-10 9.06837e-10 -4.20005e-12)
(5.57582e-11 1.54995e-10 -3.17066e-12)
(3.35206e-10 3.81917e-10 -3.67951e-12)
(4.37499e-11 1.47188e-10 -2.80092e-12)
(2.04461e-10 8.80722e-10 -7.53004e-12)
(6.02799e-11 2.20551e-10 -3.44753e-12)
(3.40977e-10 3.86807e-10 -3.44407e-12)
(2.02051e-10 8.74993e-10 -6.00664e-12)
(4.29833e-11 1.46316e-10 -2.7586e-12)
(2.92016e-10 3.5271e-10 1.87376e-12)
(3.37782e-11 1.38335e-10 -3.53517e-12)
(1.85072e-10 8.42465e-10 -8.10136e-12)
(5.09021e-11 2.0832e-10 -4.4479e-12)
(3.07875e-10 3.62423e-10 -1.61216e-12)
(1.77585e-10 8.30357e-10 -4.54116e-12)
(3.10234e-11 1.36591e-10 -3.27753e-12)
(2.54607e-10 3.05403e-10 1.23931e-10)
(1.06495e-12 1.22348e-10 2.08458e-11)
(1.37724e-10 7.48675e-10 1.21041e-10)
(4.34746e-11 1.70778e-10 4.68367e-11)
(2.12414e-10 3.25158e-10 7.09936e-11)
(1.74033e-10 6.53511e-10 2.1871e-10)
(1.10926e-11 1.15831e-10 2.83839e-11)
(1.03682e-10 3.51253e-10 7.02139e-11)
(5.41508e-11 3.45185e-11 2.43927e-11)
(2.23226e-11 6.74275e-11 3.78108e-11)
(8.84855e-11 1.49749e-10 9.19422e-11)
(1.34967e-10 6.28211e-10 2.02245e-10)
(3.07412e-11 2.83121e-11 1.96329e-11)
(1.66269e-10 9.18633e-11 5.37352e-11)
(6.26793e-12 -1.13845e-11 4.4997e-11)
(-2.79321e-12 -3.11163e-13 6.08946e-11)
(1.20466e-13 5.4625e-12 5.64091e-11)
(2.48179e-10 4.51251e-10 1.69442e-11)
(1.77085e-10 2.47263e-10 1.90444e-12)
(2.79184e-10 1.53949e-10 2.9516e-13)
(2.49536e-10 9.97984e-10 -4.72275e-12)
(2.61198e-10 1.01552e-09 8.52921e-12)
(2.38456e-10 4.51354e-10 -3.13244e-12)
(2.80834e-10 1.54494e-10 1.28925e-12)
(-2.60092e-12 1.51428e-12 -6.9573e-12)
(-4.03047e-12 8.77035e-12 8.19826e-13)
(-1.13559e-11 1.31466e-11 1.82174e-12)
(8.03584e-12 -8.9732e-14 2.68785e-11)
(2.5333e-12 -1.53081e-12 9.16766e-12)
(6.85489e-12 -2.32531e-13 1.91994e-11)
(4.06326e-10 4.30989e-10 1.14433e-11)
(7.70591e-11 2.39102e-10 8.79573e-13)
(5.92768e-11 1.59048e-10 -2.11291e-12)
(2.34478e-10 9.27033e-10 -5.78056e-12)
(3.89753e-10 4.18833e-10 2.27717e-12)
(2.46778e-10 9.49636e-10 7.79409e-12)
(6.2257e-11 1.61271e-10 -4.11596e-13)
(-2.74288e-12 -2.69886e-12 5.88653e-11)
(6.44482e-13 -2.94579e-12 3.91995e-11)
(8.93394e-13 -2.29455e-12 5.34921e-11)
(-1.8522e-12 -3.56088e-13 3.07288e-11)
(-2.82667e-12 -2.46286e-13 4.76739e-11)
(-2.63672e-12 -4.07453e-13 4.81812e-11)
(3.45164e-13 -2.38355e-13 1.57964e-11)
(-2.50155e-13 -4.24572e-14 9.43676e-13)
(-1.15588e-13 -8.52038e-14 1.292e-12)
(-2.86098e-12 -1.56727e-13 4.75793e-11)
(-2.10845e-12 5.10135e-15 2.99047e-11)
(-2.92025e-12 2.14363e-14 4.75649e-11)
(2.33909e-12 -9.31916e-12 3.30224e-11)
(-5.34254e-12 -1.26777e-10 5.54387e-11)
(-1.27623e-12 -1.79806e-11 5.10778e-11)
(2.3919e-12 -3.38336e-12 1.66196e-11)
(3.99159e-12 -1.30678e-12 3.80926e-12)
(3.61323e-13 -2.94745e-14 1.77721e-12)
(-2.13297e-11 -2.49388e-10 5.877e-11)
(2.49164e-10 -8.2907e-10 9.30155e-11)
(-4.84011e-10 -1.73386e-09 2.51569e-10)
(2.32918e-10 4.40462e-10 -5.09158e-12)
(2.7281e-10 1.54041e-10 -1.92858e-12)
(2.44807e-10 9.87302e-10 -6.64703e-12)
(1.67837e-10 2.40388e-10 -4.04742e-12)
(2.39107e-10 9.77565e-10 -5.06114e-12)
(2.32793e-10 4.5403e-10 -3.68784e-12)
(2.71234e-10 1.52115e-10 -3.93862e-12)
(2.27599e-10 4.27396e-10 -6.26178e-12)
(1.62426e-10 2.34041e-10 -3.67611e-12)
(2.65482e-10 1.45936e-10 -3.15681e-12)
(2.24123e-10 9.5241e-10 -6.66002e-12)
(2.27157e-10 9.58804e-10 -7.70882e-12)
(2.24976e-10 4.24028e-10 -6.15519e-12)
(2.6656e-10 1.46655e-10 -3.2392e-12)
(3.48461e-10 3.92131e-10 -3.18915e-12)
(6.26018e-11 2.23957e-10 -3.59301e-12)
(4.47026e-11 1.4811e-10 -2.94276e-12)
(2.05407e-10 8.82819e-10 -6.37497e-12)
(3.41298e-10 3.8697e-10 -3.60199e-12)
(2.08726e-10 8.89042e-10 -7.45807e-12)
(4.59347e-11 1.49055e-10 -2.94892e-12)
(2.23823e-10 4.188e-10 -5.96129e-12)
(2.64379e-10 1.45147e-10 -3.06456e-12)
(2.23297e-10 9.50212e-10 -7.73974e-12)
(1.59838e-10 2.30693e-10 -3.5927e-12)
(2.21193e-10 9.44184e-10 -6.3142e-12)
(2.24629e-10 4.23525e-10 -5.98831e-12)
(2.63563e-10 1.44286e-10 -3.18962e-12)
(2.19482e-10 4.07451e-10 -7.0792e-12)
(1.55185e-10 2.24336e-10 -4.57125e-12)
(2.56685e-10 1.38424e-10 -4.11693e-12)
(2.08004e-10 9.13859e-10 -7.6654e-12)
(2.12789e-10 9.2347e-10 -8.84958e-12)
(2.16496e-10 4.0097e-10 -7.05097e-12)
(2.58278e-10 1.39619e-10 -3.8967e-12)
(3.20241e-10 3.70337e-10 -3.16758e-12)
(5.61913e-11 2.14136e-10 -4.4691e-12)
(3.60645e-11 1.39886e-10 -3.63459e-12)
(1.8721e-10 8.45621e-10 -7.17745e-12)
(3.08923e-10 3.62793e-10 -2.09205e-12)
(1.92569e-10 8.54952e-10 -8.53482e-12)
(3.80019e-11 1.41266e-10 -3.51367e-12)
(2.12609e-10 3.91042e-10 -3.95537e-12)
(2.54919e-10 1.37031e-10 -3.99606e-12)
(2.06202e-10 9.10601e-10 -8.51531e-12)
(1.50022e-10 2.18642e-10 -4.55759e-12)
(1.99674e-10 8.98074e-10 -5.06662e-12)
(2.15982e-10 3.99998e-10 -6.80154e-12)
(2.52865e-10 1.35494e-10 -3.71943e-12)
(2.1508e-10 3.51756e-10 5.27565e-11)
(1.37946e-10 2.03942e-10 1.54975e-11)
(2.40011e-10 1.20412e-10 3.73443e-11)
(1.70219e-10 8.13718e-10 1.0936e-10)
(1.74206e-10 8.45577e-10 4.69562e-11)
(2.36673e-10 3.12695e-10 1.52731e-10)
(2.42089e-10 1.24087e-10 1.94221e-11)
(2.33661e-10 3.28314e-10 3.50628e-11)
(3.5218e-11 1.94923e-10 1.21961e-11)
(1.51711e-12 1.24763e-10 1.42315e-11)
(1.36725e-10 7.60226e-10 9.78688e-11)
(2.11717e-10 3.2403e-10 6.54845e-11)
(1.44172e-10 7.83397e-10 4.35565e-11)
(6.62493e-12 1.26428e-10 8.87777e-12)
(3.18799e-10 1.59678e-10 4.81834e-10)
(2.37142e-10 1.14054e-10 6.90949e-11)
(1.71998e-10 7.97322e-10 1.37739e-10)
(1.36132e-10 1.71708e-10 7.85825e-11)
(2.05959e-10 6.74379e-10 2.63323e-10)
(2.42252e-10 3.03607e-10 1.76771e-10)
(2.33934e-10 1.01242e-10 1.27164e-10)
(9.76237e-12 -3.59125e-12 -2.12223e-12)
(1.17444e-11 6.96201e-12 -1.16448e-12)
(4.68452e-11 -2.04298e-11 -1.99326e-12)
(1.38229e-10 -6.19065e-11 5.79126e-11)
(1.12693e-10 -6.8923e-11 2.72348e-11)
(9.04126e-12 1.37269e-11 -1.25574e-12)
(-2.92009e-10 -1.36942e-11 -1.4486e-10)
(5.95166e-11 -1.37737e-11 1.13785e-11)
(2.63786e-12 9.2066e-12 9.40732e-12)
(-4.41637e-12 1.1073e-11 6.31707e-11)
(2.83085e-11 3.00447e-11 3.4322e-11)
(6.04829e-11 4.34297e-11 2.92766e-11)
(8.61299e-12 4.46695e-11 4.80839e-11)
(4.47212e-12 -5.44162e-12 5.7477e-11)
(2.30779e-10 8.25282e-10 1.6283e-12)
(2.94405e-11 4.15591e-11 3.66488e-11)
(4.59168e-10 4.90054e-10 3.45825e-11)
(8.85242e-11 2.04449e-10 6.80619e-11)
(2.44875e-10 8.89713e-10 3.84287e-11)
(8.97984e-11 1.64651e-10 1.98148e-11)
(2.13759e-10 7.59037e-10 1.08937e-10)
(4.43245e-10 4.57471e-10 2.52723e-11)
(9.66458e-11 1.5892e-10 4.89061e-11)
(2.74129e-10 1.1323e-09 2.05158e-11)
(2.26227e-10 9.466e-10 7.21295e-11)
(-5.63281e-12 2.6513e-12 6.52606e-11)
(-4.06139e-12 -1.01292e-11 5.30012e-11)
(3.46466e-11 3.68173e-11 5.33447e-11)
(5.03165e-11 4.69113e-11 7.17018e-12)
(5.32317e-11 4.97035e-11 1.99334e-11)
(2.35415e-12 -9.71034e-13 1.90462e-11)
(2.57555e-12 -6.19298e-13 1.88664e-11)
(5.24677e-13 -8.38167e-13 5.24453e-12)
(2.69852e-13 -4.34611e-13 5.14388e-12)
(1.9523e-12 -2.08366e-12 1.95074e-11)
(3.83212e-13 -2.21146e-13 2.20493e-12)
(1.44296e-12 -9.65957e-13 5.89441e-12)
(-8.97337e-13 -2.12935e-13 9.87756e-13)
(-1.28884e-13 -5.68503e-13 3.81102e-12)
(3.63957e-12 -4.17867e-14 1.80745e-11)
(3.65413e-12 5.82921e-14 1.80838e-11)
(-1.43633e-12 -2.20487e-14 -2.56723e-13)
(-1.49081e-12 -1.92718e-14 -3.88384e-13)
(1.40599e-13 1.12468e-14 1.52634e-11)
(-3.40374e-13 3.3034e-14 7.92682e-13)
(-3.32356e-13 -1.02484e-14 7.69294e-13)
(-1.51343e-12 1.43252e-14 -3.87238e-13)
(-1.48784e-12 2.05453e-15 -3.75934e-13)
(-3.13361e-07 -1.28213e-07 -5.21292e-07)
(-5.77751e-10 -5.29112e-10 -4.56545e-11)
(-2.67474e-07 -5.15125e-08 -4.58364e-07)
(-7.36279e-10 -6.1254e-10 -9.08446e-11)
(-7.01021e-07 -1.35524e-06 6.03386e-07)
(-2.66673e-07 -3.98143e-07 3.36049e-07)
(1.75427e-12 -3.64891e-13 3.10969e-12)
(-2.43152e-12 3.76064e-11 5.34318e-12)
(-1.81993e-10 -6.38911e-10 -1.10448e-10)
(-1.3724e-07 -2.58843e-07 3.11713e-08)
(-4.87912e-09 -7.45841e-10 1.38979e-08)
(-2.06768e-07 -3.09833e-07 2.71585e-07)
(9.3013e-12 1.31865e-10 1.26183e-11)
(-6.87205e-07 -1.35965e-06 5.56193e-07)
(-2.26556e-07 -4.49151e-07 3.77403e-08)
(-2.52278e-07 -4.02023e-07 3.08851e-07)
(-6.1695e-09 -1.6676e-09 1.52638e-08)
(-2.20888e-07 -3.06166e-07 2.95779e-07)
(-9.64325e-12 1.0207e-10 9.17476e-12)
(3.51494e-11 4.44034e-11 -2.15492e-13)
(3.24767e-11 4.36328e-11 -1.32774e-12)
(2.64136e-10 1.1763e-09 -3.1009e-12)
(2.57165e-10 1.17213e-09 -2.46155e-12)
(3.70433e-10 4.05695e-10 -9.99886e-13)
(6.77318e-11 2.29284e-10 -3.88819e-12)
(2.15621e-10 8.99314e-10 -7.34266e-12)
(5.05667e-11 1.52262e-10 -3.25685e-12)
(2.2138e-10 9.07776e-10 -6.43622e-12)
(3.58862e-10 3.98665e-10 -2.94972e-12)
(5.25886e-11 1.53515e-10 -3.22821e-12)
(2.4879e-10 1.16232e-09 -6.71134e-12)
(2.5531e-10 1.17516e-09 -4.23964e-12)
(2.97463e-11 4.2907e-11 -1.29944e-12)
(3.19612e-11 4.34133e-11 -7.41645e-13)
(-3.75873e-06 -8.08973e-06 -2.08107e-06)
(-3.60132e-06 -7.72785e-06 -2.04582e-06)
(-4.90322e-06 -1.07003e-05 1.52254e-06)
(-3.72886e-06 -8.17436e-06 1.36352e-06)
(-2.53087e-06 -5.5501e-06 1.0613e-06)
(-3.45386e-06 -7.68409e-06 1.49854e-07)
(-3.56269e-06 -7.83538e-06 1.23133e-06)
(-2.54071e-06 -5.54531e-06 1.15292e-06)
(-3.57079e-06 -7.82889e-06 1.33888e-06)
(-4.89718e-06 -1.07101e-05 1.39882e-06)
(-3.77121e-06 -8.38038e-06 1.5803e-07)
(-3.72101e-06 -8.18118e-06 1.25382e-06)
(2.56578e-11 4.15609e-11 -7.82682e-13)
(2.48949e-11 4.11832e-11 -1.26875e-12)
(2.36779e-10 1.13879e-09 -6.0909e-12)
(2.34117e-10 1.13205e-09 -5.66068e-12)
(3.34996e-10 3.81792e-10 -3.52248e-12)
(5.97601e-11 2.19485e-10 -3.49383e-12)
(1.98744e-10 8.66932e-10 -6.58443e-12)
(4.19018e-11 1.44617e-10 -2.93572e-12)
(2.01259e-10 8.73397e-10 -7.34013e-12)
(3.29424e-10 3.76878e-10 -3.73185e-12)
(4.24447e-11 1.4549e-10 -2.70676e-12)
(2.3042e-10 1.12179e-09 -6.08606e-12)
(2.33248e-10 1.12997e-09 -5.9215e-12)
(2.47318e-11 4.07548e-11 -1.35683e-12)
(2.49815e-11 4.10801e-11 -7.12878e-13)
(-9.83492e-06 -2.11286e-05 -2.80567e-06)
(-9.62343e-06 -2.07018e-05 -2.79357e-06)
(-1.13216e-05 -2.346e-05 1.96145e-06)
(-9.81874e-06 -2.05958e-05 1.90345e-06)
(-8.15089e-06 -1.73672e-05 1.662e-06)
(-9.4774e-06 -2.01467e-05 2.70923e-07)
(-9.60723e-06 -2.02132e-05 1.73553e-06)
(-8.15245e-06 -1.73469e-05 1.81231e-06)
(-9.60704e-06 -2.01878e-05 1.89355e-06)
(-1.13236e-05 -2.34912e-05 1.79692e-06)
(-9.90141e-06 -2.09729e-05 2.76604e-07)
(-9.81917e-06 -2.06219e-05 1.74448e-06)
(1.97114e-11 3.91391e-11 -8.39638e-13)
(1.65387e-11 3.84524e-11 -1.01043e-12)
(2.15467e-10 1.09028e-09 -5.29158e-12)
(2.07189e-10 1.07493e-09 -1.79056e-12)
(2.90397e-10 3.52214e-10 2.86085e-12)
(4.84417e-11 2.05901e-10 -3.68175e-12)
(1.64384e-10 8.111e-10 5.33938e-12)
(2.35342e-11 1.32542e-10 -1.27096e-12)
(1.74613e-10 8.26283e-10 -4.2633e-12)
(2.67957e-10 3.40247e-10 1.15706e-11)
(2.76657e-11 1.34654e-10 -2.54978e-12)
(1.9241e-10 1.04977e-09 1.03625e-11)
(2.03921e-10 1.06933e-09 -2.48065e-14)
(1.0828e-11 3.74308e-11 1.71389e-13)
(1.5706e-11 3.82216e-11 -2.99586e-13)
(-1.68435e-05 -3.46879e-05 -2.95791e-06)
(-1.66225e-05 -3.42688e-05 -2.95772e-06)
(-1.83873e-05 -3.6686e-05 2.02783e-06)
(-1.68294e-05 -3.37509e-05 2.03988e-06)
(-1.50646e-05 -3.04874e-05 1.86062e-06)
(-1.64806e-05 -3.34191e-05 3.1716e-07)
(-1.66141e-05 -3.33806e-05 1.86786e-06)
(-1.50596e-05 -3.04461e-05 2.03166e-06)
(-1.66084e-05 -3.33368e-05 2.03939e-06)
(-1.83955e-05 -3.67329e-05 1.86817e-06)
(-1.69233e-05 -3.42514e-05 3.17462e-07)
(-1.68352e-05 -3.3795e-05 1.86834e-06)
(-9.69176e-12 3.43222e-11 5.78368e-12)
(1.82447e-12 3.05133e-11 7.38682e-12)
(1.54957e-10 9.67791e-10 1.52232e-10)
(1.89272e-10 8.56695e-10 2.62741e-10)
(2.65755e-10 2.92727e-10 1.36087e-10)
(3.84726e-11 7.61491e-11 3.83666e-11)
(2.06392e-10 5.9314e-10 2.60077e-10)
(8.18648e-12 4.7092e-11 1.07105e-11)
(2.25415e-10 7.86306e-10 3.00809e-10)
(1.41522e-11 2.90307e-11 8.05578e-12)
(1.67298e-11 5.88702e-12 6.27405e-12)
(8.20369e-12 9.33644e-12 -2.95904e-12)
(2.60321e-11 1.75154e-11 1.04011e-11)
(1.28163e-10 2.75071e-11 2.40451e-11)
(2.72792e-11 4.7479e-11 4.93545e-11)
(5.57891e-12 1.20786e-11 4.148e-11)
(6.38905e-11 8.94838e-10 8.79247e-12)
(1.4052e-11 3.2617e-11 2.35664e-11)
(1.05608e-10 3.9652e-10 6.79926e-11)
(1.48873e-10 2.05694e-10 7.31197e-11)
(2.38791e-10 9.64619e-10 4.34096e-11)
(2.74062e-10 1.45395e-10 3.69155e-11)
(1.82264e-10 8.17024e-10 1.14269e-10)
(2.03664e-10 4.73912e-10 4.41431e-11)
(2.32459e-10 1.31941e-10 4.05222e-11)
(2.08814e-10 1.23403e-09 2.5019e-11)
(1.47817e-10 1.02946e-09 7.89037e-11)
(6.72955e-12 1.27253e-11 -1.9344e-13)
(5.13101e-12 1.22461e-11 3.43249e-11)
(1.39696e-11 2.31171e-11 1.68343e-11)
(1.89597e-10 3.77127e-11 2.21192e-11)
(1.4839e-10 2.98573e-11 2.2565e-11)
(-2.24485e-11 1.00869e-11 2.526e-11)
(-3.58417e-10 4.2369e-11 -2.31744e-10)
(-1.61965e-11 1.17719e-11 2.65426e-11)
(1.85171e-11 1.06942e-12 4.16051e-11)
(3.54787e-12 1.12359e-11 4.08484e-11)
(3.43221e-12 9.90035e-12 5.11564e-11)
(-5.34316e-12 -1.71449e-13 6.61367e-11)
(-2.52069e-11 4.90077e-12 4.8837e-11)
(-1.56495e-12 8.5545e-12 5.81469e-11)
(2.15445e-12 1.02125e-11 3.59442e-11)
(-2.54923e-11 1.99067e-11 3.45988e-11)
(2.23835e-12 1.22051e-11 4.94343e-11)
(2.37377e-10 4.60904e-10 2.07979e-11)
(1.73311e-10 2.46345e-10 9.4188e-12)
(2.43919e-10 9.69099e-10 3.26689e-11)
(2.68236e-10 1.59058e-10 2.27389e-11)
(1.879e-10 4.94968e-10 4.1114e-11)
(2.59112e-10 1.00488e-09 1.65219e-11)
(2.73111e-10 1.58073e-10 8.37654e-12)
(1.8432e-10 4.38479e-11 1.38959e-13)
(1.85105e-10 4.39858e-11 1.21968e-12)
(2.28195e-10 1.2865e-09 -2.90728e-12)
(2.41446e-10 1.31536e-09 9.86298e-12)
(2.19704e-10 1.23404e-09 2.23383e-11)
(2.40066e-10 1.29636e-09 1.64332e-11)
(1.85889e-10 4.28581e-11 1.72912e-11)
(1.84947e-10 4.47333e-11 2.75002e-12)
(-6.49349e-12 2.45738e-12 -2.46088e-12)
(-1.34479e-11 1.03801e-11 5.35223e-11)
(-1.65423e-11 1.29812e-11 1.22089e-11)
(-3.22975e-13 7.75925e-12 -3.26608e-12)
(-8.83706e-12 1.59192e-11 8.79619e-12)
(-1.13692e-11 3.1785e-12 5.66135e-11)
(3.41655e-11 1.30603e-11 3.86355e-12)
(-1.22849e-11 1.30142e-11 1.8152e-11)
(-4.3621e-12 -3.49001e-12 3.21077e-11)
(-1.68957e-12 -2.78311e-12 4.19416e-11)
(5.89836e-12 5.65656e-12 2.16507e-11)
(1.02731e-12 -1.21127e-12 6.39038e-12)
(4.39163e-12 4.17562e-13 1.45088e-11)
(-5.03847e-12 -6.43911e-12 3.63355e-11)
(3.2531e-12 5.14228e-12 1.40722e-11)
(4.48634e-11 3.71824e-12 1.63789e-12)
(4.1169e-10 4.33744e-10 1.29954e-11)
(8.13581e-11 2.37676e-10 8.33236e-12)
(2.48142e-10 8.95161e-10 2.93054e-11)
(8.23702e-11 1.64958e-10 9.93744e-12)
(4.45407e-10 4.57791e-10 2.32332e-11)
(2.48908e-10 9.38201e-10 1.62714e-11)
(7.17654e-11 1.63664e-10 3.23004e-12)
(3.56439e-11 4.45366e-11 -4.85654e-13)
(3.99329e-11 4.51514e-11 8.32126e-13)
(2.68652e-10 1.19566e-09 -3.60697e-12)
(2.83977e-10 1.23724e-09 9.08776e-12)
(2.79439e-10 1.13342e-09 1.93184e-11)
(2.85091e-10 1.21535e-09 1.59263e-11)
(4.94711e-11 4.7125e-11 5.63114e-12)
(4.15117e-11 4.56227e-11 9.20881e-13)
(-5.26581e-12 -3.36532e-12 6.43627e-11)
(-2.99692e-12 -1.95269e-12 4.28606e-11)
(-1.34764e-12 -2.40275e-12 5.51008e-11)
(7.79844e-14 -3.06865e-12 3.54411e-11)
(-1.96828e-12 -9.46567e-13 4.94847e-11)
(-1.61466e-13 -2.27828e-12 5.2284e-11)
(-2.17104e-12 -9.81994e-13 4.25197e-11)
(-3.62987e-12 -7.88582e-13 5.33901e-11)
(-1.9097e-12 -1.5999e-12 5.4712e-11)
(3.65109e-12 -2.85094e-14 1.81816e-11)
(3.65459e-12 -1.30286e-13 1.82003e-11)
(-1.78533e-12 -3.92768e-13 3.09763e-11)
(-2.13138e-12 -6.99531e-13 4.91751e-11)
(-2.53322e-12 -4.78176e-13 4.84003e-11)
(-4.61092e-12 -2.1325e-13 5.21621e-11)
(-9.22453e-13 -1.67543e-13 4.21218e-11)
(-4.43027e-12 -3.59959e-13 5.25642e-11)
(-3.85604e-12 -5.86335e-13 5.31966e-11)
(-9.43475e-13 -1.75968e-13 4.21786e-11)
(-4.31543e-12 -3.92538e-13 5.27094e-11)
(3.42703e-13 -2.33079e-13 1.58639e-11)
(2.48198e-13 -1.82303e-13 1.9899e-12)
(-6.35579e-14 -8.68276e-14 1.39469e-12)
(-1.41072e-12 -4.61358e-14 -2.06696e-13)
(-1.30866e-12 -5.71555e-14 7.68846e-14)
(-1.01876e-12 -1.5325e-13 7.37109e-13)
(-1.25536e-12 -8.13512e-14 1.88811e-13)
(-4.64167e-12 -1.57881e-13 5.20821e-11)
(-9.42746e-13 1.13149e-14 4.19248e-11)
(-4.6903e-12 4.77885e-14 5.21053e-11)
(-2.10603e-12 2.42698e-14 2.99552e-11)
(-2.8109e-12 -3.57339e-13 4.82656e-11)
(-2.92646e-12 7.79446e-14 4.7672e-11)
(-9.31877e-13 1.4107e-14 4.19908e-11)
(-4.62842e-12 -4.16751e-13 5.28289e-11)
(-4.6964e-12 6.8278e-14 5.22297e-11)
(1.72855e-12 -5.5332e-12 1.80283e-11)
(2.41565e-12 -3.85908e-12 1.81726e-11)
(3.20056e-13 -4.60179e-12 3.21899e-11)
(-2.69681e-12 -9.23128e-13 4.85968e-11)
(-1.82037e-12 -9.13356e-12 5.02443e-11)
(-2.01472e-11 -1.29816e-10 5.98959e-11)
(-5.20498e-12 -1.49064e-11 4.33363e-11)
(-4.71212e-12 -1.94522e-11 5.5539e-11)
(-4.56854e-12 -1.07788e-12 5.31391e-11)
(-2.9715e-12 -7.65609e-12 4.30567e-11)
(-4.43899e-12 -9.9456e-12 5.474e-11)
(1.77223e-12 -2.17326e-12 1.65163e-11)
(-2.81415e-13 2.89618e-14 9.21881e-13)
(1.00102e-13 1.81112e-14 1.42006e-12)
(8.98494e-13 -2.60081e-13 2.22511e-12)
(-1.0607e-12 7.86757e-14 4.51476e-13)
(-1.46433e-12 3.57439e-14 -2.73721e-13)
(-1.25626e-12 6.99136e-14 1.09023e-13)
(-6.36739e-07 -1.17437e-06 -5.48546e-07)
(-3.07158e-07 -1.5452e-07 -5.04954e-07)
(-2.56524e-07 -3.68943e-07 -3.17001e-07)
(-4.93608e-11 -2.48079e-10 6.35365e-11)
(-9.77474e-10 -1.11914e-09 3.68969e-11)
(-7.73639e-10 -1.5226e-09 2.91676e-10)
(-8.1838e-12 -2.05402e-09 1.25218e-11)
(-1.33195e-07 -2.52512e-07 -1.53015e-08)
(-1.67266e-09 2.61545e-09 -1.53193e-08)
(-1.48447e-07 -2.1418e-07 -1.78439e-07)
(-1.25986e-09 -5.51588e-09 -3.22735e-10)
(-6.21065e-07 -1.20928e-06 -4.29526e-07)
(-2.23339e-07 -4.4269e-07 -2.60106e-08)
(-2.40868e-07 -3.96985e-07 -2.46455e-07)
(-2.61077e-07 -7.65322e-08 -4.42422e-07)
(-1.68843e-09 -3.25425e-09 -9.51155e-10)
(-3.89032e-09 3.94623e-09 -2.10491e-08)
(-1.62545e-07 -1.90999e-07 -2.3138e-07)
(-1.874e-09 -5.37391e-09 -2.96977e-10)
(-2.82269e-07 -1.15006e-07 -4.56262e-07)
(-2.37601e-07 -3.81873e-08 -4.04008e-07)
(-5.88359e-07 -1.15753e-06 -1.93562e-07)
(-2.64026e-07 -1.35722e-07 -4.08894e-07)
(-2.16851e-07 -3.48581e-07 -1.11096e-07)
(-1.22377e-07 -2.58081e-07 1.36476e-07)
(3.41898e-09 1.0344e-08 -1.1986e-09)
(-1.21666e-07 -2.00969e-07 -2.107e-08)
(-5.80563e-07 -1.19757e-06 -6.4376e-08)
(-2.09992e-07 -4.46704e-07 1.74661e-07)
(-2.08255e-07 -3.82404e-07 -3.17335e-08)
(-2.19718e-07 -5.71984e-08 -3.61821e-07)
(2.07888e-09 1.57011e-08 -9.2374e-09)
(-1.29835e-07 -1.71702e-07 -8.25915e-08)
(-1.47911e-06 -2.75057e-06 -1.36529e-06)
(-1.58747e-06 -3.00703e-06 -1.41439e-06)
(-7.95776e-07 -1.5297e-06 -6.20142e-07)
(-1.47548e-06 -2.77634e-06 -1.33868e-06)
(-1.36473e-06 -2.82814e-06 -8.18958e-07)
(-1.55127e-06 -3.41896e-06 -8.30083e-08)
(-2.30915e-06 -5.0544e-06 -8.22552e-07)
(-1.5702e-06 -3.36402e-06 -6.90883e-07)
(-7.80496e-07 -1.5651e-06 -4.86096e-07)
(-1.33132e-06 -2.91919e-06 -7.75315e-08)
(-1.35089e-06 -2.86174e-06 -6.42858e-07)
(-1.58386e-06 -3.0322e-06 -1.38692e-06)
(-2.32099e-06 -5.02831e-06 -1.0482e-06)
(-1.58354e-06 -3.33186e-06 -8.80048e-07)
(-1.44977e-06 -2.73982e-06 -1.17378e-06)
(-1.55885e-06 -2.99645e-06 -1.21633e-06)
(-7.46935e-07 -1.51337e-06 -2.20221e-07)
(-1.43382e-06 -2.76105e-06 -1.05623e-06)
(-1.31872e-06 -2.81334e-06 -2.97647e-07)
(-1.53653e-06 -3.42259e-06 4.27611e-07)
(-2.27881e-06 -5.04548e-06 -1.53925e-07)
(-1.53287e-06 -3.35408e-06 -1.19886e-07)
(-7.3943e-07 -1.55375e-06 -7.53728e-08)
(-1.31582e-06 -2.92295e-06 4.00816e-07)
(-1.31191e-06 -2.85145e-06 -1.08659e-07)
(-1.54321e-06 -3.01717e-06 -1.09481e-06)
(-2.28492e-06 -5.01548e-06 -3.95118e-07)
(-1.53949e-06 -3.31755e-06 -3.22639e-07)
(-6.97045e-07 -1.37292e-06 8.33176e-07)
(-2.63063e-07 -4.1796e-07 4.65896e-07)
(-1.31274e-07 -2.71179e-07 2.00246e-07)
(-6.264e-09 -9.12719e-09 2.0118e-08)
(-2.04971e-07 -3.24025e-07 3.62137e-07)
(-6.85288e-07 -1.37182e-06 7.37883e-07)
(-2.19146e-07 -4.58881e-07 2.5852e-07)
(-2.5036e-07 -4.15813e-07 4.11436e-07)
(-8.16885e-09 -1.28579e-08 2.28994e-08)
(-2.17566e-07 -3.26471e-07 4.10442e-07)
(-7.79469e-07 -1.53395e-06 6.39558e-07)
(-1.43789e-06 -3.04305e-06 8.79232e-07)
(-1.55307e-06 -3.42593e-06 9.53232e-08)
(-2.39511e-06 -5.24546e-06 1.03521e-06)
(-1.53511e-06 -3.2966e-06 8.39989e-07)
(-7.65868e-07 -1.53834e-06 5.89588e-07)
(-1.33321e-06 -2.9266e-06 8.80264e-08)
(-1.42591e-06 -3.04721e-06 8.10292e-07)
(-2.40519e-06 -5.24083e-06 1.12443e-06)
(-1.54686e-06 -3.29245e-06 9.11556e-07)