/*--------------------------------*- C++ -*----------------------------------*\
| =========                 |                                                 |
| \\      /  F ield         | OpenFOAM: The Open Source CFD Toolbox           |
|  \\    /   O peration     | Version:  2012                                  |
|   \\  /    A nd           | Website:  www.openfoam.com                      |
|    \\/     M anipulation  |                                                 |
\*---------------------------------------------------------------------------*/
FoamFile
{
    version     2.0;
    format      ascii;
    class       volVectorField;
    location    "0.105/solid";
    object      D_0_0;
}
// * * * * * * * * * * * * * * * * * * * * * * * * * * * * * * * * * * * * * //

dimensions      [0 1 0 0 0 0 0];


internalField   nonuniform List<vector> 
24998
(
(2.0248e-11 5.45052e-11 4.11022e-11)
(-9.87073e-14 1.3481e-13 -1.08133e-12)
(3.43883e-12 -2.84156e-13 2.22964e-11)
(2.07258e-13 -1.20706e-13 1.57962e-11)
(2.25158e-11 -3.8284e-11 1.75268e-11)
(7.1589e-11 2.33119e-10 -3.3992e-12)
(5.92471e-11 2.2316e-10 -3.37379e-12)
(5.15321e-11 2.12262e-10 -4.56349e-12)
(3.28459e-11 1.87822e-10 3.43338e-11)
(3.22297e-11 5.63183e-11 3.81454e-11)
(1.74476e-12 8.84781e-13 3.98175e-11)
(1.7435e-10 2.45963e-10 -1.23428e-12)
(6.37274e-14 8.18807e-14 -1.98595e-12)
(4.4422e-12 -3.73512e-13 2.25257e-11)
(7.43745e-11 2.36837e-10 -2.70796e-12)
(1.68352e-12 4.50419e-13 4.04893e-11)
(-1.98417e-12 -1.94484e-13 3.09934e-11)
(2.13742e-13 -1.13148e-13 1.58374e-11)
(-2.02512e-12 -1.59088e-13 3.08805e-11)
(2.43375e-11 -5.43895e-11 3.84096e-11)
(1.6504e-11 -2.60947e-11 1.91189e-11)
(4.55797e-11 -1.04191e-10 4.13422e-11)
(1.68784e-10 2.43282e-10 -2.9268e-12)
(1.58907e-10 2.3465e-10 -3.49264e-12)
(6.01443e-11 2.24301e-10 -3.41866e-12)
(1.57877e-10 2.3354e-10 -3.45887e-12)
(1.51102e-10 2.24627e-10 -4.66757e-12)
(5.32338e-11 2.14171e-10 -4.53796e-12)
(1.49434e-10 2.22756e-10 -4.67153e-12)
(1.33981e-10 2.01269e-10 2.93298e-11)
(3.18395e-11 1.93594e-10 2.22162e-11)
(1.33017e-10 1.92912e-10 4.95718e-11)
(2.94186e-12 -4.85012e-13 -5.00261e-12)
(-5.64808e-11 2.8758e-11 -2.49976e-12)
(-2.90498e-13 8.58786e-12 1.85759e-11)
(1.3185e-11 3.83094e-11 5.09174e-11)
(9.21299e-11 2.26565e-10 3.41888e-11)
(-6.89994e-13 -9.37922e-12 3.28849e-11)
(-3.77612e-12 -2.90103e-12 2.63033e-11)
(2.58679e-12 -2.17646e-13 1.93243e-11)
(6.9529e-13 -3.84745e-13 1.70552e-11)
(2.84109e-12 2.17958e-14 1.90009e-11)
(2.80578e-12 -2.42401e-13 1.91617e-11)
(2.25864e-13 7.41099e-15 1.58907e-11)
(-1.37469e-06 -8.993e-07 -1.69617e-06)
(-3.80929e-11 -9.49405e-11 1.21184e-11)
(-3.12779e-08 2.06151e-09 -3.61021e-08)
(-4.18165e-09 1.03075e-09 1.46133e-08)
(-1.12326e-06 -1.21047e-06 2.64249e-07)
(6.51041e-11 2.28999e-10 -3.677e-12)
(-9.14024e-06 -1.03007e-05 -4.15006e-06)
(-4.77347e-06 -5.05746e-06 -3.1934e-06)
(-4.76599e-06 -5.47793e-06 5.24614e-07)
(-8.87606e-06 -1.01725e-05 6.90113e-07)
(5.72217e-11 2.19925e-10 -3.56494e-12)
(-2.10252e-05 -2.33237e-05 -5.19426e-06)
(-1.5154e-05 -1.70988e-05 -4.85611e-06)
(-1.52739e-05 -1.70751e-05 8.51226e-07)
(-2.07733e-05 -2.26849e-05 9.30447e-07)
(4.41961e-11 2.05105e-10 -1.89819e-12)
(-3.40451e-05 -3.64028e-05 -5.38892e-06)
(-2.79533e-05 -3.03386e-05 -5.33831e-06)
(-2.81218e-05 -2.99386e-05 9.74776e-07)
(-3.4112e-05 -3.58441e-05 9.79363e-07)
(5.45875e-12 -2.52419e-13 -6.20533e-12)
(-1.06011e-12 3.91824e-11 5.0013e-11)
(1.75981e-10 2.31583e-10 4.0629e-11)
(-2.1655e-11 2.42641e-11 1.20764e-11)
(-5.32966e-12 -2.41513e-12 2.73978e-11)
(-5.2451e-11 2.1593e-11 -1.15701e-11)
(5.88363e-12 2.07504e-11 4.9341e-11)
(-1.49277e-11 -2.0424e-12 5.78602e-11)
(-2.09662e-11 1.5129e-11 1.24557e-11)
(1.74307e-10 2.42004e-10 2.30289e-11)
(-4.97211e-12 7.195e-12 1.59145e-11)
(4.25092e-12 -5.58632e-12 3.16885e-11)
(1.00162e-12 1.90686e-11 4.98843e-11)
(3.4328e-12 -5.36425e-12 2.59381e-11)
(8.79285e-12 -3.24257e-12 2.6871e-11)
(8.87218e-11 2.3345e-10 1.90816e-11)
(-1.01987e-11 -4.69672e-12 5.49062e-11)
(-1.26852e-12 -5.90342e-13 3.28056e-11)
(-2.43078e-12 -3.51682e-13 4.40433e-11)
(2.85609e-12 -8.65276e-14 1.90101e-11)
(2.62669e-12 -9.74857e-14 1.92916e-11)
(-1.43329e-12 -5.00611e-13 3.2645e-11)
(-2.03756e-12 -1.01642e-13 4.36446e-11)
(-2.28876e-12 -2.65565e-13 4.4001e-11)
(6.51131e-13 -3.61596e-13 1.69757e-11)
(-2.05953e-12 -6.60139e-14 4.36114e-11)
(-1.99056e-12 -8.679e-14 3.11224e-11)
(-2.15651e-12 -3.86711e-13 4.40843e-11)
(-2.36648e-11 -6.3757e-11 1.52282e-11)
(2.77618e-12 -2.63978e-13 1.91829e-11)
(-1.83139e-12 -3.37123e-13 3.13686e-11)
(-3.96319e-11 -1.2356e-10 4.62354e-11)
(-2.28252e-12 -9.04598e-13 4.42335e-11)
(2.54925e-13 -6.69404e-14 1.59511e-11)
(-1.36181e-06 -9.33482e-07 -1.63083e-06)
(-8.34734e-11 -2.47675e-10 4.52532e-11)
(-1.51986e-09 -3.60071e-09 5.53045e-09)
(-1.11538e-06 -1.19513e-06 4.53783e-08)
(-4.31498e-08 -1.35897e-08 -7.68975e-08)
(-1.33793e-06 -8.76622e-07 -1.57021e-06)
(-5.07418e-08 1.81992e-08 -5.63658e-08)
(-1.30959e-06 -9.01321e-07 -1.44515e-06)
(2.38794e-09 -5.81615e-09 2.24722e-08)
(-1.08971e-06 -1.20318e-06 3.60882e-07)
(-2.90509e-08 2.10422e-08 -4.59217e-08)
(-1.51976e-06 -1.07032e-06 -1.79679e-06)
(-4.52317e-06 -4.75015e-06 -3.11773e-06)
(-1.50713e-06 -1.10424e-06 -1.7283e-06)
(-4.25498e-06 -4.87646e-06 7.7035e-08)
(-1.41105e-06 -1.53626e-06 4.91498e-08)
(-4.51296e-06 -4.77451e-06 -3.00527e-06)
(-1.48331e-06 -1.04798e-06 -1.66267e-06)
(-4.49764e-06 -4.73291e-06 -2.8868e-06)
(-1.45532e-06 -1.07257e-06 -1.53059e-06)
(-4.23591e-06 -4.88256e-06 6.52635e-07)
(-1.38517e-06 -1.54402e-06 4.03367e-07)
(-4.4765e-06 -4.75005e-06 -2.66467e-06)
(-1.91317e-09 -1.74688e-08 3.7438e-08)
(-1.10313e-06 -1.22688e-06 6.09371e-07)
(-4.26036e-06 -4.88741e-06 4.9842e-07)
(-1.41853e-06 -1.55175e-06 2.96342e-07)
(-4.24536e-06 -4.89984e-06 1.12598e-06)
(-1.39808e-06 -1.56759e-06 6.83472e-07)
(1.63956e-10 2.39166e-10 -3.70236e-12)
(1.6203e-10 2.37788e-10 -3.67124e-12)
(6.36536e-11 2.27474e-10 -3.56934e-12)
(-9.1311e-06 -1.03103e-05 -3.99911e-06)
(-4.76084e-06 -5.46846e-06 8.16263e-08)
(-4.76336e-06 -5.08096e-06 -3.07826e-06)
(-8.87258e-06 -1.01781e-05 1.17946e-07)
(-9.13131e-06 -1.02887e-05 -3.86058e-06)
(-4.7489e-06 -5.04056e-06 -2.95756e-06)
(-9.11854e-06 -1.02932e-05 -3.57184e-06)
(-4.74368e-06 -5.47433e-06 6.81757e-07)
(-4.72828e-06 -5.05698e-06 -2.7304e-06)
(-8.87349e-06 -1.01825e-05 8.44611e-07)
(-9.46718e-06 -1.0683e-05 -4.20228e-06)
(-1.47774e-05 -1.6687e-05 -4.82474e-06)
(-9.45809e-06 -1.06916e-05 -4.04925e-06)
(-1.45166e-05 -1.63125e-05 1.6187e-07)
(-9.5309e-06 -1.09133e-05 1.2352e-07)
(-1.47689e-05 -1.66818e-05 -4.64551e-06)
(-9.45932e-06 -1.06713e-05 -3.91043e-06)
(-1.47848e-05 -1.66796e-05 -4.51141e-06)
(-9.44706e-06 -1.06749e-05 -3.61846e-06)
(-1.4544e-05 -1.63152e-05 9.54648e-07)
(-9.53491e-06 -1.09174e-05 8.62426e-07)
(-1.478e-05 -1.66713e-05 -4.18266e-06)
(-4.75272e-06 -5.4899e-06 1.17882e-06)
(-8.88019e-06 -1.01813e-05 1.4817e-06)
(-1.45177e-05 -1.6283e-05 8.36513e-07)
(-9.53412e-06 -1.09049e-05 7.11058e-07)
(-1.4549e-05 -1.62885e-05 1.69993e-06)
(-9.54134e-06 -1.09133e-05 1.51593e-06)
(1.5552e-10 2.30318e-10 -3.71109e-12)
(1.54661e-10 2.29077e-10 -3.91329e-12)
(5.66047e-11 2.18687e-10 -3.7795e-12)
(-2.10172e-05 -2.33067e-05 -4.99802e-06)
(-1.52731e-05 -1.71077e-05 1.66938e-07)
(-1.51455e-05 -1.70928e-05 -4.67547e-06)
(-2.07746e-05 -2.27391e-05 1.96275e-07)
(-2.10454e-05 -2.33202e-05 -4.87739e-06)
(-1.51623e-05 -1.70917e-05 -4.54211e-06)
(-2.1047e-05 -2.33016e-05 -4.52956e-06)
(-1.5304e-05 -1.71102e-05 9.6374e-07)
(-1.51579e-05 -1.70827e-05 -4.21162e-06)
(-2.08285e-05 -2.27405e-05 1.0057e-06)
(-2.14277e-05 -2.37389e-05 -5.20883e-06)
(-2.75431e-05 -2.99288e-05 -5.33494e-06)
(-2.14197e-05 -2.37213e-05 -5.01191e-06)
(-2.73035e-05 -2.92057e-05 2.12657e-07)
(-2.1582e-05 -2.35476e-05 1.99381e-07)
(-2.75356e-05 -2.99044e-05 -5.13247e-06)
(-2.14485e-05 -2.37356e-05 -4.89209e-06)
(-2.7571e-05 -2.99279e-05 -5.02158e-06)
(-2.14505e-05 -2.37165e-05 -4.54361e-06)
(-2.7377e-05 -2.92061e-05 1.02232e-06)
(-2.16388e-05 -2.35488e-05 1.00918e-06)
(-2.7577e-05 -2.99031e-05 -4.66882e-06)
(-1.53088e-05 -1.70802e-05 1.71903e-06)
(-2.08326e-05 -2.26877e-05 1.81228e-06)
(-2.73002e-05 -2.91325e-05 9.72538e-07)
(-2.15804e-05 -2.34905e-05 9.38382e-07)
(-2.73809e-05 -2.91334e-05 1.85546e-06)
(-2.16429e-05 -2.3493e-05 1.8207e-06)
(1.42857e-10 2.15644e-10 -1.72994e-12)
(1.40322e-10 2.12751e-10 1.62785e-12)
(4.08988e-11 2.0236e-10 1.03759e-12)
(-3.41252e-05 -3.64654e-05 -5.21483e-06)
(-2.81253e-05 -3.00135e-05 2.13437e-07)
(-2.79459e-05 -3.03139e-05 -5.13575e-06)
(-3.4112e-05 -3.58823e-05 6.02267e-07)
(-3.4076e-05 -3.64037e-05 -5.08398e-06)
(-2.79816e-05 -3.03378e-05 -5.02519e-06)
(-3.4166e-05 -3.64641e-05 -4.78644e-06)
(-2.82005e-05 -3.00138e-05 1.02308e-06)
(-2.79877e-05 -3.03127e-05 -4.67243e-06)
(-3.41549e-05 -3.58824e-05 1.02701e-06)
(-2.82044e-05 -2.99394e-05 1.85779e-06)
(-3.41561e-05 -3.58442e-05 1.41459e-06)
(1.78986e-11 -2.79161e-12 -3.05732e-12)
(1.08238e-10 -1.54786e-11 4.51912e-11)
(5.87367e-11 -3.73573e-11 -3.30542e-12)
(4.60624e-10 4.90927e-10 3.89566e-11)
(3.11656e-11 4.12567e-11 3.5484e-11)
(2.32827e-11 6.25965e-11 3.77948e-11)
(6.43171e-11 1.4862e-10 9.71022e-11)
(1.99761e-10 5.78292e-10 1.9728e-10)
(1.98532e-11 2.99756e-11 2.82483e-11)
(1.1498e-10 1.27441e-10 8.1033e-11)
(2.00916e-12 -1.06979e-12 7.9726e-12)
(1.69976e-12 -1.91031e-12 2.07589e-11)
(2.067e-12 -6.87779e-13 8.27728e-12)
(-1.8831e-13 -4.7998e-14 1.20375e-12)
(1.34031e-13 1.20159e-14 1.56633e-11)
(-2.73452e-13 -1.67986e-14 1.00196e-12)
(3.52883e-12 9.92572e-13 4.66759e-12)
(6.38174e-11 -2.41455e-10 3.32269e-11)
(-3.65484e-11 1.53609e-10 5.69716e-12)
(3.72591e-10 4.08954e-10 8.80629e-13)
(5.89374e-11 1.57521e-10 -1.90596e-12)
(2.30292e-10 9.16973e-10 -4.98568e-12)
(6.9108e-11 2.31224e-10 -2.93957e-12)
(3.91365e-10 4.20238e-10 4.16276e-12)
(2.21316e-10 9.09517e-10 -2.59842e-12)
(5.59246e-11 1.55798e-10 -2.39532e-12)
(3.33085e-10 3.85919e-10 -3.38786e-12)
(4.29856e-11 1.48537e-10 -2.69289e-12)
(1.99797e-10 8.85156e-10 -7.18829e-12)
(5.84723e-11 2.22097e-10 -3.34488e-12)
(3.39484e-10 3.90749e-10 -3.01431e-12)
(1.96977e-10 8.79644e-10 -5.75105e-12)
(4.19723e-11 1.47669e-10 -2.71193e-12)
(2.9145e-10 3.57504e-10 2.10393e-12)
(3.33765e-11 1.39937e-10 -3.43682e-12)
(1.80743e-10 8.47649e-10 -7.81176e-12)
(4.94982e-11 2.10114e-10 -4.31081e-12)
(3.07104e-10 3.67093e-10 -1.46039e-12)
(1.73418e-10 8.35627e-10 -4.1989e-12)
(3.06555e-11 1.38216e-10 -3.16608e-12)
(2.54403e-10 3.10026e-10 1.29351e-10)
(9.18934e-13 1.24217e-10 2.19554e-11)
(1.34209e-10 7.54499e-10 1.24167e-10)
(4.23885e-11 1.72809e-10 4.85801e-11)
(2.123e-10 3.30335e-10 7.35517e-11)
(1.70572e-10 6.59401e-10 2.24264e-10)
(1.09691e-11 1.1768e-10 3e-11)
(1.19011e-10 3.42236e-10 7.08833e-11)
(5.60086e-11 3.40497e-11 2.3839e-11)
(2.33665e-11 6.70957e-11 3.75121e-11)
(9.1773e-11 1.48572e-10 9.11989e-11)
(1.43517e-10 6.24762e-10 2.0139e-10)
(3.14266e-11 2.81713e-11 1.92568e-11)
(1.73004e-10 8.97748e-11 5.24724e-11)
(6.24491e-12 -1.13562e-11 4.51775e-11)
(-3.05131e-12 -1.0292e-13 6.15652e-11)
(-3.04244e-13 5.62407e-12 5.64369e-11)
(2.51306e-10 4.51514e-10 1.71976e-11)
(1.77983e-10 2.47544e-10 3.08635e-12)
(2.78693e-10 1.54556e-10 1.1433e-12)
(2.49299e-10 9.99513e-10 -2.74528e-12)
(2.6431e-10 1.01646e-09 1.07251e-11)
(2.36075e-10 4.53681e-10 -2.8172e-12)
(2.81569e-10 1.54747e-10 2.33341e-12)
(-2.6365e-12 1.54294e-12 -6.86356e-12)
(-3.91009e-12 8.77568e-12 8.27687e-13)
(-1.13554e-11 1.32138e-11 2.0191e-12)
(8.03605e-12 -8.01186e-15 2.69715e-11)
(2.58885e-12 -1.51046e-12 9.37606e-12)
(6.93001e-12 -1.79564e-13 1.94013e-11)
(4.10681e-10 4.31789e-10 1.40618e-11)
(7.81769e-11 2.39429e-10 1.97591e-12)
(6.01614e-11 1.59521e-10 -1.13282e-12)
(2.3485e-10 9.28385e-10 -3.65411e-12)
(3.91718e-10 4.20429e-10 4.59598e-12)
(2.49934e-10 9.50692e-10 1.00453e-11)
(6.36375e-11 1.61593e-10 6.12071e-13)
(-3.00603e-12 -2.52908e-12 5.96893e-11)
(6.67113e-13 -2.88224e-12 3.99019e-11)
(6.13466e-13 -2.20415e-12 5.44798e-11)
(-1.81773e-12 -3.51535e-13 3.15868e-11)
(-3.05109e-12 -2.39948e-13 4.88957e-11)
(-2.8591e-12 -3.98749e-13 4.93968e-11)
(3.65673e-13 -2.35292e-13 1.62542e-11)
(-1.63313e-13 -4.78423e-14 1.24717e-12)
(-1.83592e-14 -8.67594e-14 1.6192e-12)
(-3.08999e-12 -1.51172e-13 4.88059e-11)
(-2.11146e-12 -5.08424e-15 3.07122e-11)
(-3.17067e-12 2.73255e-14 4.87864e-11)
(2.09299e-12 -7.69058e-12 3.35653e-11)
(9.747e-14 -1.12157e-10 5.70578e-11)
(-7.60092e-13 -1.63635e-11 5.22666e-11)
(2.19554e-12 -2.72876e-12 1.69295e-11)
(2.68427e-12 3.38029e-13 3.77005e-12)
(2.7262e-13 2.90517e-14 1.82231e-12)
(-1.32988e-11 -2.21219e-10 6.11078e-11)
(2.16978e-10 -5.97941e-10 7.76991e-11)
(-5.77783e-10 -1.56732e-09 3.20068e-10)
(2.268e-10 4.44266e-10 -4.70431e-12)
(2.71394e-10 1.5494e-10 -1.22556e-12)
(2.43754e-10 9.89186e-10 -4.77241e-12)
(1.66538e-10 2.41419e-10 -3.28707e-12)
(2.36221e-10 9.80499e-10 -3.58354e-12)
(2.2983e-10 4.5656e-10 -3.35422e-12)
(2.69144e-10 1.53246e-10 -3.35467e-12)
(2.18168e-10 4.32653e-10 -6.05045e-12)
(1.59992e-10 2.35673e-10 -3.42628e-12)
(2.61773e-10 1.47705e-10 -3.00853e-12)
(2.18426e-10 9.57122e-10 -6.28784e-12)
(2.21886e-10 9.63246e-10 -7.14818e-12)
(2.14871e-10 4.29578e-10 -6.03959e-12)
(2.62984e-10 1.4837e-10 -3.04709e-12)
(3.4744e-10 3.95828e-10 -2.52415e-12)
(6.11906e-11 2.25379e-10 -3.32629e-12)
(4.41078e-11 1.49434e-10 -2.75723e-12)
(2.0088e-10 8.87186e-10 -5.97486e-12)
(3.39885e-10 3.90895e-10 -3.15094e-12)
(2.04603e-10 8.93147e-10 -6.85397e-12)
(4.54449e-11 1.50336e-10 -2.68528e-12)
(2.13157e-10 4.24578e-10 -5.84442e-12)
(2.60553e-10 1.46962e-10 -2.94725e-12)
(2.17462e-10 9.54998e-10 -7.4176e-12)
(1.57075e-10 2.32474e-10 -3.47184e-12)
(2.14978e-10 9.49188e-10 -6.06292e-12)
(2.14441e-10 4.29103e-10 -5.88077e-12)
(2.59641e-10 1.4614e-10 -3.08654e-12)
(2.08837e-10 4.13593e-10 -6.75976e-12)
(1.52528e-10 2.26271e-10 -4.42862e-12)
(2.52807e-10 1.40442e-10 -3.99003e-12)
(2.02324e-10 9.19358e-10 -7.35973e-12)
(2.06882e-10 9.28863e-10 -8.52231e-12)
(2.06038e-10 4.07231e-10 -6.73956e-12)
(2.5436e-10 1.41615e-10 -3.76501e-12)
(3.19021e-10 3.74835e-10 -3.03308e-12)
(5.46425e-11 2.15854e-10 -4.32214e-12)
(3.56189e-11 1.41464e-10 -3.53383e-12)
(1.82823e-10 8.50781e-10 -6.88482e-12)
(3.0812e-10 3.6745e-10 -1.9479e-12)
(1.87929e-10 8.59999e-10 -8.21632e-12)
(3.74692e-11 1.42817e-10 -3.38434e-12)
(2.02324e-10 3.97409e-10 -3.59062e-12)
(2.51075e-10 1.39069e-10 -3.86874e-12)
(2.00578e-10 9.16121e-10 -8.20917e-12)
(1.47496e-10 2.20641e-10 -4.41269e-12)
(1.94162e-10 9.0366e-10 -4.71558e-12)
(2.05543e-10 4.06274e-10 -6.48897e-12)
(2.49055e-10 1.37552e-10 -3.58079e-12)
(2.05411e-10 3.58273e-10 5.4054e-11)
(1.35647e-10 2.06079e-10 1.60876e-11)
(2.36599e-10 1.22606e-10 3.8121e-11)
(1.65419e-10 8.19757e-10 1.11978e-10)
(1.69105e-10 8.51416e-10 4.8364e-11)
(2.27506e-10 3.19233e-10 1.55224e-10)
(2.38565e-10 1.26249e-10 1.99693e-11)
(2.33444e-10 3.33362e-10 3.6181e-11)
(3.39926e-11 1.96865e-10 1.27838e-11)
(1.32826e-12 1.26577e-10 1.50043e-11)
(1.33224e-10 7.65954e-10 1.00466e-10)
(2.116e-10 3.29205e-10 6.77856e-11)
(1.405e-10 7.8899e-10 4.49531e-11)
(6.40352e-12 1.28191e-10 9.41125e-12)
(3.10375e-10 1.65461e-10 4.87417e-10)
(2.33862e-10 1.16268e-10 7.02009e-11)
(1.67377e-10 8.03529e-10 1.40885e-10)
(1.34144e-10 1.73909e-10 8.0313e-11)
(2.01754e-10 6.80547e-10 2.68862e-10)
(2.33167e-10 3.10125e-10 1.79523e-10)
(2.30785e-10 1.03404e-10 1.28794e-10)
(9.13291e-12 -3.32899e-12 -3.24655e-12)
(9.27618e-12 9.72585e-12 -4.22083e-12)
(4.13304e-11 -1.5464e-11 -5.6811e-12)
(1.26226e-10 -5.42516e-11 5.33544e-11)
(9.88736e-11 -6.19599e-11 1.87471e-11)
(4.37478e-12 1.81431e-11 -4.65904e-12)
(-5.77637e-10 1.29363e-10 -2.17552e-10)
(4.70555e-11 -3.97985e-12 3.99458e-12)
(2.8139e-12 9.17553e-12 9.36148e-12)
(-4.29476e-12 1.1134e-11 6.34503e-11)
(2.88068e-11 3.01266e-11 3.43229e-11)
(6.17203e-11 4.32299e-11 2.91683e-11)
(9.45314e-12 4.45214e-11 4.78134e-11)
(4.68363e-12 -5.33394e-12 5.7611e-11)
(2.37945e-10 8.21785e-10 1.83452e-12)
(2.99827e-11 4.16896e-11 3.66646e-11)
(4.66325e-10 4.89814e-10 3.43499e-11)
(9.22645e-11 2.03751e-10 6.82849e-11)
(2.53566e-10 8.87747e-10 4.03451e-11)
(9.28599e-11 1.6446e-10 2.04086e-11)
(2.22546e-10 7.56142e-10 1.09212e-10)
(4.50901e-10 4.57076e-10 2.69204e-11)
(9.96452e-11 1.58689e-10 4.91471e-11)
(2.82995e-10 1.12995e-09 2.21746e-11)
(2.35007e-10 9.43275e-10 7.242e-11)
(-5.57247e-12 2.69578e-12 6.55453e-11)
(-3.92572e-12 -1.00546e-11 5.31866e-11)
(3.5105e-11 3.7007e-11 5.34606e-11)
(5.17804e-11 4.6655e-11 7.48526e-12)
(5.45808e-11 4.9477e-11 1.99025e-11)
(1.35972e-12 -9.85775e-13 2.0063e-11)
(1.60209e-12 -6.36017e-13 1.98763e-11)
(5.72392e-13 -8.22299e-13 5.41271e-12)
(3.52177e-13 -4.14601e-13 5.38865e-12)
(1.96677e-12 -2.05022e-12 1.99027e-11)
(4.84555e-13 -2.18318e-13 2.53613e-12)
(1.53235e-12 -9.50793e-13 6.19086e-12)
(-8.06333e-13 -2.11344e-13 1.25958e-12)
(-4.7444e-14 -5.55239e-13 4.05467e-12)
(2.82653e-12 -3.07252e-14 1.90212e-11)
(2.8348e-12 6.9952e-14 1.90367e-11)
(-1.36199e-12 -2.65478e-14 -1.76165e-14)
(-1.43475e-12 -2.63739e-14 -1.92084e-13)
(1.31392e-13 1.14174e-15 1.5675e-11)
(-3.11613e-13 2.1811e-14 9.61434e-13)
(-2.7116e-13 -1.96242e-14 1.01173e-12)
(-1.48795e-12 4.97517e-15 -2.61896e-13)
(-1.43472e-12 -5.41544e-15 -1.87002e-13)
(-5.71302e-07 -3.32857e-08 -9.47535e-07)
(-7.99487e-10 -7.79976e-10 -7.77271e-11)
(-4.86454e-07 3.71845e-08 -8.34779e-07)
(-1.02336e-09 -9.24851e-10 -1.45013e-10)
(-1.3051e-06 -1.31649e-06 1.21504e-06)
(-4.97761e-07 -4.01707e-07 6.75923e-07)
(5.7797e-13 9.44608e-13 3.03887e-12)
(-3.88708e-11 1.01908e-10 5.32627e-12)
(-1.40814e-10 -2.84715e-10 -6.69298e-11)
(-2.57981e-07 -2.47656e-07 1.24733e-07)
(-8.73381e-09 -3.93304e-09 2.63115e-08)
(-3.8684e-07 -3.16115e-07 5.38677e-07)
(-4.65701e-11 3.92465e-10 2.31482e-11)
(-1.27993e-06 -1.3185e-06 1.10569e-06)
(-4.2484e-07 -4.26458e-07 1.61222e-07)
(-4.71637e-07 -4.04555e-07 6.13018e-07)
(-1.13622e-08 -6.0802e-09 2.97738e-08)
(-4.12486e-07 -3.13077e-07 5.94593e-07)
(-5.74663e-11 2.64927e-10 1.56848e-11)
(3.57112e-11 4.46227e-11 2.81335e-13)
(3.28763e-11 4.39873e-11 -9.36353e-13)
(2.63825e-10 1.17819e-09 -1.11211e-12)
(2.55102e-10 1.17524e-09 -9.18052e-13)
(3.70609e-10 4.08354e-10 5.86268e-13)
(6.69065e-11 2.3033e-10 -3.22277e-12)
(2.1233e-10 9.02814e-10 -6.25863e-12)
(5.03498e-11 1.53318e-10 -2.72329e-12)
(2.18972e-10 9.10677e-10 -4.97624e-12)
(3.58336e-10 4.01901e-10 -1.85391e-12)
(5.25394e-11 1.5446e-10 -2.57848e-12)
(2.45379e-10 1.16639e-09 -5.65487e-12)
(2.5283e-10 1.17855e-09 -2.82944e-12)
(3.00134e-11 4.33969e-11 -1.03764e-12)
(3.23114e-11 4.3811e-11 -3.84923e-13)
(-6.96888e-06 -7.72433e-06 -3.74468e-06)
(-6.67674e-06 -7.37281e-06 -3.68098e-06)
(-9.09957e-06 -1.03194e-05 3.0318e-06)
(-6.9215e-06 -7.87702e-06 2.72294e-06)
(-4.69954e-06 -5.34234e-06 2.10203e-06)
(-6.41232e-06 -7.38247e-06 5.99443e-07)
(-6.61286e-06 -7.54773e-06 2.43319e-06)
(-4.71791e-06 -5.3399e-06 2.30988e-06)
(-6.62835e-06 -7.54329e-06 2.67483e-06)
(-9.0874e-06 -1.03275e-05 2.7567e-06)
(-7.00124e-06 -8.0562e-06 6.23112e-07)
(-6.90642e-06 -7.88183e-06 2.47681e-06)
(2.57059e-11 4.22027e-11 -7.03491e-13)
(2.45553e-11 4.18112e-11 -1.25692e-12)
(2.31918e-10 1.14399e-09 -5.75305e-12)
(2.28844e-10 1.13751e-09 -5.40937e-12)
(3.32802e-10 3.85802e-10 -3.24569e-12)
(5.78045e-11 2.21056e-10 -3.38834e-12)
(1.93529e-10 8.71799e-10 -6.26117e-12)
(4.05754e-11 1.45976e-10 -2.7745e-12)
(1.96083e-10 8.78107e-10 -7.09003e-12)
(3.27217e-10 3.81015e-10 -3.54661e-12)
(4.11717e-11 1.46832e-10 -2.65258e-12)
(2.25014e-10 1.12751e-09 -5.77898e-12)
(2.27876e-10 1.1355e-09 -5.67237e-12)
(2.40874e-11 4.13662e-11 -1.25466e-12)
(2.44745e-11 4.16935e-11 -7.0962e-13)
(-1.82404e-05 -2.0414e-05 -5.0658e-06)
(-1.78483e-05 -1.99984e-05 -5.04344e-06)
(-2.10045e-05 -2.26864e-05 3.8663e-06)
(-1.82169e-05 -1.99083e-05 3.75781e-06)
(-1.5121e-05 -1.67772e-05 3.25816e-06)
(-1.75922e-05 -1.94693e-05 8.90292e-07)
(-1.78217e-05 -1.95372e-05 3.3964e-06)
(-1.51262e-05 -1.67579e-05 3.58617e-06)
(-1.78243e-05 -1.95126e-05 3.73924e-06)
(-2.10046e-05 -2.27172e-05 3.51111e-06)
(-1.83792e-05 -2.02716e-05 9.01608e-07)
(-1.82147e-05 -1.99337e-05 3.41316e-06)
(2.00076e-11 3.98777e-11 -8.08294e-13)
(1.68578e-11 3.92002e-11 -9.66484e-13)
(2.10969e-10 1.09639e-09 -4.99539e-12)
(2.02852e-10 1.08112e-09 -1.43456e-12)
(2.89857e-10 3.57025e-10 3.11061e-12)
(4.70677e-11 2.07723e-10 -3.51962e-12)
(1.60311e-10 8.1657e-10 5.93425e-12)
(2.3226e-11 1.34213e-10 -1.08867e-12)
(1.70488e-10 8.31607e-10 -3.87925e-12)
(2.67575e-10 3.45153e-10 1.2031e-11)
(2.73292e-11 1.36303e-10 -2.41135e-12)
(1.88212e-10 1.0562e-09 1.10072e-11)
(1.99634e-10 1.0756e-09 3.81398e-13)
(1.11808e-11 3.81961e-11 2.526e-13)
(1.60332e-11 3.89735e-11 -2.474e-13)
(-3.12339e-05 -3.36049e-05 -5.35087e-06)
(-3.08242e-05 -3.31975e-05 -5.35039e-06)
(-3.41061e-05 -3.55243e-05 3.99651e-06)
(-3.12179e-05 -3.26737e-05 4.01376e-06)
(-2.79411e-05 -2.95065e-05 3.63003e-06)
(-3.05853e-05 -3.23586e-05 9.78638e-07)
(-3.08137e-05 -3.23153e-05 3.64399e-06)
(-2.79367e-05 -2.94653e-05 3.99766e-06)
(-3.08082e-05 -3.22716e-05 4.01276e-06)
(-3.41158e-05 -3.55711e-05 3.64701e-06)
(-3.14062e-05 -3.31671e-05 9.79186e-07)
(-3.12236e-05 -3.27177e-05 3.64495e-06)
(-9.28731e-12 3.51799e-11 6.24603e-12)
(2.319e-12 3.13808e-11 8.19272e-12)
(1.51307e-10 9.74545e-10 1.55779e-10)
(1.85449e-10 8.64211e-10 2.69304e-10)
(2.65486e-10 2.97021e-10 1.42094e-10)
(3.78225e-11 7.71481e-11 3.95807e-11)
(2.0305e-10 5.98505e-10 2.66481e-10)
(8.28121e-12 4.79569e-11 1.18098e-11)
(2.21746e-10 7.92799e-10 3.0802e-10)
(1.47483e-11 2.98329e-11 9.10509e-12)
(1.71645e-11 5.80231e-12 6.11013e-12)
(6.73516e-12 1.11175e-11 -5.48105e-12)
(2.67139e-11 1.73978e-11 9.78037e-12)
(1.33647e-10 2.66469e-11 2.36794e-11)
(2.79933e-11 4.72942e-11 4.89869e-11)
(4.95656e-12 1.22454e-11 4.04287e-11)
(7.24519e-11 8.89515e-10 9.24269e-12)
(1.46272e-11 3.22261e-11 2.30298e-11)
(1.21769e-10 3.8742e-10 6.88293e-11)
(1.53884e-10 2.04176e-10 7.34636e-11)
(2.48283e-10 9.61914e-10 4.54791e-11)
(2.80036e-10 1.43562e-10 3.81832e-11)
(1.92234e-10 8.1292e-10 1.14528e-10)
(2.16649e-10 4.6874e-10 4.44194e-11)
(2.39285e-10 1.296e-10 4.05633e-11)
(2.18464e-10 1.23047e-09 2.67118e-11)
(1.57721e-10 1.02419e-09 7.9218e-11)
(3.78278e-12 1.54113e-11 -2.80399e-12)
(3.71251e-12 1.25704e-11 3.30388e-11)
(1.43927e-11 2.28732e-11 1.57921e-11)
(1.93227e-10 3.7221e-11 2.26563e-11)
(1.53425e-10 2.88344e-11 2.26093e-11)
(-2.46786e-11 1.00183e-11 2.59312e-11)
(-6.46115e-10 1.02497e-10 -2.79037e-10)
(-1.86051e-11 1.17189e-11 2.70307e-11)
(1.86148e-11 1.20375e-12 4.16237e-11)
(2.84709e-12 1.14416e-11 3.99253e-11)
(2.81427e-12 1.00147e-11 5.09561e-11)
(-5.78165e-12 6.58893e-14 6.69144e-11)
(-2.80089e-11 4.548e-12 4.96081e-11)
(-2.31257e-12 8.66816e-12 5.8088e-11)
(5.77292e-13 1.0449e-11 3.47413e-11)
(-3.08448e-11 1.93963e-11 3.46277e-11)
(1.0648e-12 1.22099e-11 4.90917e-11)
(2.41371e-10 4.6089e-10 2.10408e-11)
(1.75397e-10 2.46242e-10 1.0831e-11)
(2.52279e-10 9.67095e-10 3.50133e-11)
(2.72383e-10 1.58074e-10 2.42143e-11)
(1.99766e-10 4.90551e-10 4.13676e-11)
(2.63513e-10 1.00546e-09 1.90509e-11)
(2.75433e-10 1.57815e-10 9.70286e-12)
(1.83619e-10 4.41184e-11 3.27439e-13)
(1.85737e-10 4.41063e-11 1.51312e-12)
(2.2795e-10 1.28821e-09 -1.06664e-12)
(2.44831e-10 1.31701e-09 1.15571e-11)
(2.28275e-10 1.23145e-09 2.42534e-11)
(2.44762e-10 1.29736e-09 1.87358e-11)
(1.88974e-10 4.25292e-11 1.78097e-11)
(1.8606e-10 4.47827e-11 3.09609e-12)
(-6.50476e-12 2.48262e-12 -2.3486e-12)
(-1.33922e-11 1.04057e-11 5.37933e-11)
(-1.65322e-11 1.30452e-11 1.24261e-11)
(-1.73817e-13 7.82365e-12 -3.271e-12)
(-8.82009e-12 1.59942e-11 9.0279e-12)
(-1.13295e-11 3.16936e-12 5.68462e-11)
(3.41959e-11 1.31212e-11 3.94987e-12)
(-1.22584e-11 1.30776e-11 1.84036e-11)
(-4.45235e-12 -3.43801e-12 3.22242e-11)
(-1.53946e-12 -2.7133e-12 4.20777e-11)
(5.90992e-12 5.77544e-12 2.16638e-11)
(1.07753e-12 -1.19924e-12 6.55578e-12)
(4.44283e-12 4.48747e-13 1.46409e-11)
(-4.94067e-12 -6.35786e-12 3.64813e-11)
(3.29816e-12 5.24099e-12 1.41497e-11)
(4.49029e-11 3.8055e-12 1.70302e-12)
(4.16461e-10 4.34433e-10 1.56065e-11)
(8.33391e-11 2.37766e-10 9.56088e-12)
(2.55946e-10 8.93722e-10 3.15501e-11)
(8.5007e-11 1.64913e-10 1.08371e-11)
(4.52817e-10 4.57495e-10 2.50902e-11)
(2.53204e-10 9.39e-10 1.88842e-11)
(7.37602e-11 1.63816e-10 4.26426e-12)
(3.63123e-11 4.4697e-11 3.95725e-14)
(4.08586e-11 4.51484e-11 1.4014e-12)
(2.69132e-10 1.19699e-09 -1.49114e-12)
(2.87121e-10 1.23916e-09 1.08612e-11)
(2.8745e-10 1.13174e-09 2.1281e-11)
(2.89457e-10 1.21682e-09 1.85643e-11)
(5.08517e-11 4.69097e-11 6.05449e-12)
(4.25861e-11 4.5554e-11 1.4845e-12)
(-5.70622e-12 -3.16562e-12 6.53238e-11)
(-4.39111e-12 -1.9534e-12 4.46475e-11)
(-1.80833e-12 -2.32112e-12 5.62719e-11)
(1.04749e-13 -3.01809e-12 3.61917e-11)
(-2.20464e-12 -9.14372e-13 5.06427e-11)
(-4.22567e-13 -2.19567e-12 5.33415e-11)
(-3.50589e-12 -9.9263e-13 4.42949e-11)
(-4.01651e-12 -7.60716e-13 5.47077e-11)
(-2.34504e-12 -1.52746e-12 5.59383e-11)
(2.84919e-12 -3.04751e-14 1.91115e-11)
(2.84777e-12 -1.32317e-13 1.91344e-11)
(-1.74909e-12 -3.85051e-13 3.18341e-11)
(-2.36111e-12 -6.73361e-13 5.03516e-11)
(-2.76025e-12 -4.63587e-13 4.96146e-11)
(-4.96922e-12 -2.03621e-13 5.35418e-11)
(-2.04056e-12 -1.68591e-13 4.38256e-11)
(-4.79205e-12 -3.5445e-13 5.39379e-11)
(-4.23278e-12 -5.63122e-13 5.45286e-11)
(-2.0677e-12 -1.76323e-13 4.38921e-11)
(-4.69208e-12 -3.81216e-13 5.40883e-11)
(3.65009e-13 -2.30082e-13 1.63233e-11)
(3.50697e-13 -1.80191e-13 2.32282e-12)
(3.54167e-14 -8.80348e-14 1.72503e-12)
(-1.33422e-12 -5.03687e-14 3.7103e-14)
(-1.22183e-12 -5.86311e-14 3.43992e-13)
(-9.27947e-13 -1.51997e-13 1.0088e-12)
(-1.16756e-12 -8.24569e-14 4.57356e-13)
(-5.00419e-12 -1.4777e-13 5.34683e-11)
(-2.07877e-12 3.06911e-14 4.36593e-11)
(-5.07173e-12 6.01582e-14 5.34998e-11)
(-2.11749e-12 1.36848e-14 3.07493e-11)
(-3.08644e-12 -3.14542e-13 4.94819e-11)
(-3.18468e-12 8.66945e-14 4.8895e-11)
(-2.0818e-12 3.48421e-14 4.37398e-11)
(-5.02983e-12 -3.75008e-13 5.42405e-11)
(-5.08519e-12 8.44405e-14 5.36287e-11)
(9.00177e-13 -6.03955e-12 1.90324e-11)
(1.55728e-12 -4.14893e-12 1.91901e-11)
(1.51454e-13 -3.84342e-12 3.27928e-11)
(-2.96319e-12 -8.36238e-13 4.97997e-11)
(-1.7437e-12 -8.35353e-12 5.14301e-11)
(-1.29866e-11 -1.20722e-10 6.19495e-11)
(-6.07659e-12 -1.62231e-11 4.52416e-11)
(-4.04615e-12 -1.84456e-11 5.696e-11)
(-4.95504e-12 -1.00389e-12 5.45428e-11)
(-4.02888e-12 -8.13737e-12 4.49373e-11)
(-4.36665e-12 -9.43755e-12 5.61462e-11)
(1.61973e-12 -1.74859e-12 1.68265e-11)
(-2.5713e-13 1.8487e-14 1.08074e-12)
(4.19252e-14 5.13044e-14 1.48288e-12)
(1.20042e-13 5.19133e-13 2.15456e-12)
(-1.11664e-12 9.95496e-14 4.67482e-13)
(-1.44353e-12 2.64741e-14 -1.58906e-13)
(-1.294e-12 7.93929e-14 1.38564e-13)
(-1.16889e-06 -1.07308e-06 -8.68328e-07)
(-5.55387e-07 -6.53314e-08 -9.02464e-07)
(-4.65488e-07 -3.09867e-07 -5.04629e-07)
(-3.91518e-11 -2.31315e-10 6.66537e-11)
(-1.2883e-09 -1.54332e-09 4.12658e-11)
(-9.32495e-10 -1.40902e-09 3.93334e-10)
(-8.25731e-11 -1.5253e-09 -3.52321e-11)
(-2.48802e-07 -2.34363e-07 2.91622e-08)
(-2.62947e-09 4.37314e-09 -2.51738e-08)
(-2.69652e-07 -1.7575e-07 -2.70631e-07)
(-1.69155e-09 -5.74034e-09 -2.82257e-10)
(-1.14348e-06 -1.11526e-06 -6.42777e-07)
(-4.1596e-07 -4.12571e-07 3.29331e-08)
(-4.39904e-07 -3.4568e-07 -3.70209e-07)
(-4.70284e-07 6.40628e-09 -7.92437e-07)
(-2.30799e-09 -4.91631e-09 -1.52221e-09)
(-6.57619e-09 6.37149e-09 -3.59855e-08)
(-2.929e-07 -1.44691e-07 -3.71627e-07)
(-2.48616e-09 -5.99144e-09 -2.69089e-10)
(-5.36537e-07 -8.54726e-09 -8.87526e-07)
(-4.5299e-07 6.23289e-08 -7.85534e-07)
(-1.11002e-06 -1.042e-06 -5.29376e-07)
(-5.06949e-07 -3.01553e-08 -8.14309e-07)
(-4.16234e-07 -2.7292e-07 -3.13295e-07)
(-2.31624e-07 -2.44683e-07 1.72881e-07)
(4.16832e-09 1.93962e-08 -1.46442e-08)
(-2.35095e-07 -1.50454e-07 -1.27168e-07)
(-1.0922e-06 -1.09368e-06 -2.94233e-07)
(-3.94482e-07 -4.21163e-07 2.22743e-07)
(-3.97675e-07 -3.19549e-07 -1.69765e-07)
(-4.2372e-07 4.27747e-08 -7.19922e-07)
(6.96929e-10 2.87709e-08 -2.88544e-08)
(-2.5246e-07 -1.08234e-07 -2.38044e-07)
(-2.73657e-06 -2.54869e-06 -2.45699e-06)
(-2.93785e-06 -2.79653e-06 -2.54501e-06)
(-1.46392e-06 -1.41304e-06 -9.81283e-07)
(-2.72536e-06 -2.57914e-06 -2.36715e-06)
(-2.52048e-06 -2.66095e-06 -1.29643e-06)
(-2.8795e-06 -3.25853e-06 6.43169e-08)
(-4.278e-06 -4.81661e-06 -1.23805e-06)
(-2.90534e-06 -3.18478e-06 -1.03674e-06)
(-1.43917e-06 -1.45548e-06 -7.27555e-07)
(-2.4714e-06 -2.7778e-06 6.03957e-08)
(-2.49802e-06 -2.70091e-06 -9.63866e-07)
(-2.92679e-06 -2.82631e-06 -2.45222e-06)
(-4.29735e-06 -4.78496e-06 -1.66347e-06)
(-2.92702e-06 -3.14646e-06 -1.3938e-06)
(-2.70415e-06 -2.52875e-06 -2.27203e-06)
(-2.90619e-06 -2.77692e-06 -2.35363e-06)
(-1.40478e-06 -1.38293e-06 -5.98154e-07)
(-2.6791e-06 -2.55085e-06 -2.09445e-06)
(-2.465e-06 -2.63367e-06 -7.94171e-07)
(-2.85598e-06 -3.26532e-06 5.55794e-07)
(-4.23901e-06 -4.80021e-06 -5.91674e-07)
(-2.85846e-06 -3.16649e-06 -4.86248e-07)
(-1.38747e-06 -1.43457e-06 -3.34278e-07)
(-2.44687e-06 -2.78482e-06 5.20252e-07)
(-2.4492e-06 -2.68197e-06 -4.49476e-07)
(-2.8816e-06 -2.7985e-06 -2.17004e-06)
(-4.25297e-06 -4.76134e-06 -1.03183e-06)
(-2.87379e-06 -3.12011e-06 -8.56118e-07)
(-1.29552e-06 -1.34919e-06 1.43464e-06)
(-4.90152e-07 -4.38303e-07 8.00926e-07)
(-2.45316e-07 -2.68717e-07 2.85863e-07)
(-1.10348e-08 -1.8122e-08 3.4502e-08)
(-3.82059e-07 -3.42261e-07 6.26056e-07)
(-1.27342e-06 -1.34102e-06 1.27926e-06)
(-4.08624e-07 -4.44961e-07 3.7068e-07)
(-4.66352e-07 -4.30017e-07 7.11527e-07)
(-1.45391e-08 -2.45737e-08 3.91064e-08)
(-4.05605e-07 -3.50542e-07 7.05546e-07)
(-1.45075e-06 -1.48728e-06 1.28774e-06)
(-2.67245e-06 -2.93285e-06 1.76734e-06)
(-2.88563e-06 -3.27269e-06 4.1605e-07)
(-4.44781e-06 -5.04876e-06 2.051e-06)
(-2.85297e-06 -3.17384e-06 1.66753e-06)
(-1.42594e-06 -1.4892e-06 1.17203e-06)
(-2.47782e-06 -2.7926e-06 3.8727e-07)
(-2.65044e-06 -2.9344e-06 1.60897e-06)
(-4.46658e-06 -5.04651e-06 2.25369e-06)
(-2.87458e-06 -3.17228e-06 1.83172e-06)
(-1.44112e-06 -1.51951e-06 1.51994e-06)
(-2.66355e-06 -2.96176e-06 2.07955e-06)