/*--------------------------------*- C++ -*----------------------------------*\
| =========                 |                                                 |
| \\      /  F ield         | OpenFOAM: The Open Source CFD Toolbox           |
|  \\    /   O peration     | Version:  2012                                  |
|   \\  /    A nd           | Website:  www.openfoam.com                      |
|    \\/     M anipulation  |                                                 |
\*---------------------------------------------------------------------------*/
FoamFile
{
    version     2.0;
    format      ascii;
    class       volSymmTensorField;
    location    "0.105/solid";
    object      epsilon;
}
// * * * * * * * * * * * * * * * * * * * * * * * * * * * * * * * * * * * * * //

dimensions      [0 0 0 0 0 0 0];


internalField   nonuniform List<symmTensor> 
24998
(
(-6.48053e-11 8.69772e-10 1.50311e-09 4.46135e-09 4.90025e-09 4.07583e-09)
(-6.61071e-11 1.68209e-11 8.64172e-11 1.2531e-10 9.11356e-11 -2.00474e-10)
(2.4935e-10 -8.83684e-11 1.05747e-09 2.17532e-11 -1.09699e-10 8.78927e-09)
(2.81388e-10 -9.19067e-13 4.72626e-10 1.91107e-12 -3.09096e-11 6.16391e-09)
(-4.23141e-10 1.62329e-09 3.05481e-09 -3.45338e-10 -1.41112e-09 7.67946e-09)
(-1.85454e-09 2.03534e-09 -5.64702e-11 2.64805e-08 -1.90491e-10 -2.62517e-11)
(-2.04244e-09 1.52956e-09 -1.70903e-11 2.54112e-08 -1.55321e-10 -4.70859e-12)
(-2.12738e-09 1.20568e-09 -3.55728e-11 2.42514e-08 -1.7966e-10 7.46855e-12)
(-2.70133e-09 8.32819e-10 -3.41284e-10 2.15745e-08 1.88516e-09 1.06952e-09)
(-9.51909e-10 1.46488e-09 2.2123e-09 4.64154e-09 4.76167e-09 3.68715e-09)
(4.47693e-10 -6.02419e-11 5.11879e-10 -8.56362e-11 4.72715e-11 8.67128e-09)
(-4.79621e-09 6.32949e-09 -1.68309e-10 2.97895e-08 -1.34336e-10 -1.44037e-10)
(1.22049e-11 4.21866e-11 6.0681e-11 1.29525e-10 6.09278e-12 -4.42732e-10)
(2.13113e-10 -1.19273e-10 1.23069e-09 1.35611e-11 -1.0418e-10 8.90979e-09)
(-1.92212e-09 2.13859e-09 -7.80045e-11 2.70224e-08 -1.87587e-10 -1.28529e-10)
(4.1322e-10 -1.48035e-11 6.29847e-10 -3.62936e-11 3.12903e-11 8.89509e-09)
(3.27777e-10 2.47005e-12 3.40068e-10 2.9531e-12 -6.05336e-12 6.66319e-09)
(2.82729e-10 4.02516e-12 4.76542e-10 3.25661e-12 -8.48803e-12 6.18317e-09)
(3.27194e-10 3.72187e-13 3.35462e-10 3.30578e-12 -1.0836e-11 6.62996e-09)
(-3.75545e-10 2.24949e-09 1.87449e-09 -1.0292e-09 -1.16127e-09 8.85451e-09)
(-2.55801e-10 1.11982e-09 2.36688e-09 -3.60262e-10 -1.16786e-09 7.57429e-09)
(-8.28072e-10 4.64723e-09 3.18612e-09 -1.32448e-09 -1.74413e-09 1.01595e-08)
(-4.71589e-09 6.10595e-09 -1.26513e-10 2.93544e-08 -1.81898e-10 -6.48794e-11)
(-4.7963e-09 5.71963e-09 -3.54724e-11 2.83391e-08 -1.6442e-10 -9.06777e-12)
(-2.03178e-09 1.56819e-09 -1.91011e-11 2.55373e-08 -1.57125e-10 -7.03032e-12)
(-4.79219e-09 5.67567e-09 -3.25949e-11 2.82071e-08 -1.64167e-10 -7.95052e-12)
(-4.7756e-09 5.38676e-09 -4.5148e-11 2.72065e-08 -1.94462e-10 -1.04145e-11)
(-2.10652e-09 1.26851e-09 -2.47904e-11 2.44537e-08 -1.81759e-10 -7.68493e-12)
(-4.77792e-09 5.32135e-09 -5.53341e-11 2.69947e-08 -1.93449e-10 5.5473e-12)
(-5.06072e-09 4.90092e-09 -2.67335e-10 2.43231e-08 1.55292e-09 1.13146e-09)
(-2.67762e-09 5.84223e-10 -2.73918e-10 2.22493e-08 1.27243e-09 7.72145e-10)
(-5.01265e-09 5.09559e-09 -5.06005e-10 2.30672e-08 2.48622e-09 1.79942e-09)
(2.11189e-11 3.80971e-10 1.66064e-10 2.67185e-10 -2.16815e-10 -8.50788e-10)
(6.2075e-09 -1.58412e-09 -7.18812e-09 -1.39876e-09 2.98978e-09 -5.09099e-10)
(-5.32988e-10 -5.83482e-11 -1.54632e-11 1.18334e-09 2.74437e-09 5.12436e-09)
(4.42328e-10 -4.6873e-10 7.16418e-10 -3.50216e-09 3.07312e-09 1.48701e-08)
(-7.64634e-10 2.95675e-09 -2.44732e-10 2.58848e-08 1.28372e-09 -1.1015e-09)
(5.08678e-10 3.22461e-10 -8.56248e-12 3.0984e-10 -8.06426e-10 8.46195e-09)
(7.80708e-10 1.3795e-10 -1.86363e-09 -5.80659e-11 -4.18283e-10 1.06696e-08)
(5.67336e-10 -3.05722e-11 -6.49325e-10 7.38176e-12 -4.34104e-11 7.94366e-09)
(2.73575e-10 3.74745e-12 5.6886e-10 1.21205e-11 -4.78706e-11 6.71094e-09)
(5.55428e-10 2.57569e-11 -5.99211e-10 2.88575e-12 8.44823e-12 7.80247e-09)
(5.64994e-10 -3.73639e-11 -6.2721e-10 -1.60455e-11 -3.6798e-11 7.89142e-09)
(2.8264e-10 5.6157e-12 4.66842e-10 -4.07406e-12 1.26215e-11 6.14555e-09)
(1.02794e-05 -1.63628e-07 -1.56432e-07 1.01689e-05 1.07907e-07 -3.4309e-05)
(1.07484e-09 -4.97484e-09 -7.82226e-09 -7.45317e-09 -1.63925e-08 7.94437e-09)
(3.19179e-07 -3.28614e-06 -9.87241e-06 6.40875e-06 -2.78906e-06 -2.2705e-05)
(-4.83566e-07 -5.06443e-08 -1.15611e-06 -1.27401e-06 7.85194e-08 6.71334e-06)
(-2.72594e-06 4.26004e-08 -3.9798e-06 -1.6433e-06 -3.99441e-07 7.11671e-06)
(-1.96952e-09 1.76818e-09 -3.00198e-11 2.60561e-08 -1.77741e-10 -1.26487e-11)
(5.40096e-06 -4.80537e-08 -5.68221e-08 5.39758e-06 -9.32188e-08 -1.81091e-05)
(7.61188e-06 -9.3963e-08 -8.41954e-08 7.57076e-06 -5.01407e-08 -2.54737e-05)
(-1.85611e-06 7.58534e-08 -3.68187e-06 -1.33066e-06 -3.52413e-07 5.29656e-06)
(-1.37372e-06 5.99673e-08 -3.35622e-06 -1.07685e-06 -2.9957e-07 4.07291e-06)
(-2.07649e-09 1.42189e-09 -1.26627e-11 2.50661e-08 -1.59078e-10 -1.21095e-11)
(1.56653e-06 2.63249e-10 -3.51424e-08 1.58951e-06 -6.12064e-08 -5.25013e-06)
(3.16497e-06 -1.35755e-08 -4.32778e-08 3.18526e-06 -8.94843e-08 -1.06292e-05)
(-8.05743e-07 3.73939e-08 -2.75433e-06 -7.10447e-07 -2.18544e-07 2.51688e-06)
(-4.19446e-07 2.19483e-08 -2.12025e-06 -4.22132e-07 -1.50368e-07 1.40313e-06)
(-2.26213e-09 9.19483e-10 -8.55881e-11 2.34867e-08 -2.82123e-11 1.43143e-10)
(1.95687e-08 -7.74519e-10 1.73426e-09 1.41285e-08 -9.47159e-10 7.60227e-09)
(3.51844e-07 1.86553e-09 -2.09875e-08 3.66149e-07 -2.42912e-08 -1.13781e-06)
(-6.68442e-08 6.61316e-09 -1.08101e-06 -1.23927e-07 -6.61361e-08 3.32122e-07)
(9.11005e-08 3.15011e-08 -5.2263e-08 -3.91146e-08 -3.4048e-09 -1.98094e-08)
(4.04059e-10 5.06942e-10 3.94276e-10 3.23654e-10 -3.88441e-10 -1.36826e-09)
(4.39074e-10 2.97295e-11 3.98047e-10 -3.50663e-09 3.16434e-09 1.46959e-08)
(-3.99282e-09 5.79316e-09 2.46915e-10 2.85785e-08 1.57201e-09 -1.01885e-09)
(3.11585e-09 -6.64246e-10 -3.29692e-09 -9.38408e-10 2.76831e-09 3.99579e-09)
(8.69482e-10 1.51615e-10 -2.17444e-09 -4.93464e-11 -4.00731e-10 1.11142e-08)
(7.00926e-09 -1.74756e-10 -6.48977e-09 -4.75996e-10 1.97077e-09 -2.68669e-09)
(2.8431e-10 1.78426e-11 2.9281e-10 1.57604e-10 1.15015e-09 1.3147e-08)
(1.43548e-09 2.25445e-10 -2.28061e-09 -1.62757e-10 -5.4803e-11 1.21131e-08)
(3.21911e-09 -5.347e-11 -2.94687e-09 -6.75969e-10 1.52675e-09 4.65837e-09)
(-4.16055e-09 6.04469e-09 -6.90633e-11 2.94376e-08 7.82044e-10 -7.26614e-10)
(-3.51859e-10 -4.24406e-10 -5.68565e-10 9.87961e-10 2.33662e-09 4.39788e-09)
(5.66872e-10 5.10234e-10 6.76381e-10 2.44841e-10 -3.97949e-10 8.16791e-09)
(2.06503e-10 -1.8392e-10 2.98536e-10 2.81545e-10 1.1997e-09 1.31448e-08)
(6.8109e-10 2.25039e-10 4.2619e-10 3.32917e-10 -2.24266e-10 6.5761e-09)
(7.63932e-10 3.83938e-10 1.17041e-09 1.60968e-10 -5.02131e-11 6.8765e-09)
(-1.16062e-09 2.74658e-09 -2.51546e-10 2.65686e-08 6.23154e-10 -5.80927e-10)
(1.22742e-09 1.24616e-10 -1.99021e-09 -6.22452e-11 -1.853e-10 1.14976e-08)
(3.34085e-10 6.12932e-12 3.96691e-10 2.00747e-11 -2.04494e-11 7.12011e-09)
(8.3132e-10 -7.09383e-12 -1.34802e-09 7.12799e-12 -1.47743e-11 9.3016e-09)
(5.56075e-10 -3.2817e-11 -5.97331e-10 3.28985e-12 -1.75167e-11 7.80554e-09)
(5.66083e-10 2.77812e-11 -6.40592e-10 5.03646e-12 -1.51408e-11 7.92723e-09)
(3.33053e-10 5.25935e-12 3.88898e-10 9.87204e-12 -2.2745e-11 7.07435e-09)
(8.0052e-10 -4.76636e-12 -1.31991e-09 2.65345e-13 -5.68275e-12 9.20455e-09)
(8.25116e-10 -7.51769e-12 -1.3396e-09 3.89289e-12 -5.45176e-12 9.28849e-09)
(2.73289e-10 4.62973e-13 5.57823e-10 5.83922e-12 -6.5975e-11 6.66904e-09)
(7.99916e-10 -4.94301e-12 -1.31979e-09 -7.18542e-14 1.07162e-12 9.19582e-09)
(3.26695e-10 1.00906e-11 3.35054e-10 -1.10707e-11 -1.17277e-12 6.63604e-09)
(8.13675e-10 -1.17554e-11 -1.34464e-09 -3.49737e-11 -2.23408e-11 9.31189e-09)
(1.08704e-09 -3.28898e-09 -5.34546e-09 -5.74872e-09 -1.16972e-08 7.99043e-09)
(5.69016e-10 1.65949e-11 -6.35439e-10 -2.16238e-11 -2.65279e-11 7.90507e-09)
(3.23981e-10 1.92265e-11 3.46048e-10 -2.29915e-11 -1.6518e-11 6.6861e-09)
(2.09585e-09 -3.77764e-09 -3.94542e-09 -9.37625e-09 -7.11318e-09 1.28768e-08)
(8.22484e-10 -2.68836e-11 -1.3571e-09 -7.11332e-11 -4.15575e-11 9.35762e-09)
(2.83476e-10 2.98792e-12 4.71982e-10 -4.40978e-12 -1.48555e-11 6.16416e-09)
(1.01414e-05 5.09192e-08 -4.43539e-07 1.01627e-05 8.11753e-08 -3.36283e-05)
(3.2022e-09 -8.56702e-09 -7.62882e-09 -1.86102e-08 -1.39211e-08 1.62101e-08)
(-4.09908e-07 -1.35126e-07 -6.64286e-07 -5.02215e-07 2.70882e-07 3.00868e-06)
(-9.43673e-07 -4.12525e-08 -3.97891e-06 -1.67044e-07 -3.86522e-07 1.96309e-06)
(1.5332e-06 -3.38682e-06 -5.8792e-06 7.09334e-06 -5.81279e-07 -1.39358e-05)
(9.53305e-06 -2.94505e-07 -1.29065e-07 1.00092e-05 -9.6092e-08 -3.28932e-05)
(7.20298e-06 -2.98891e-06 -7.8573e-06 7.10811e-06 -1.13657e-07 -3.29238e-05)
(9.60034e-06 8.23876e-08 -3.91138e-07 9.15382e-06 -1.1297e-07 -3.11835e-05)
(-5.40687e-07 -4.42985e-07 2.52731e-07 -1.6177e-06 -5.37843e-07 6.86103e-06)
(-1.74867e-06 3.43924e-08 -3.56812e-06 -2.18336e-06 -9.56362e-08 6.4137e-06)
(6.42934e-06 -1.65721e-06 -5.28914e-06 7.72202e-06 3.60752e-06 -3.60004e-05)
(1.01182e-05 -1.58404e-07 -1.51341e-07 1.00153e-05 9.14982e-08 -3.37819e-05)
(7.76485e-06 -9.73717e-08 -8.59685e-08 7.72046e-06 -4.4842e-08 -2.59813e-05)
(9.98476e-06 4.85691e-08 -4.35563e-07 1.00028e-05 6.68328e-08 -3.31017e-05)
(-5.85386e-07 8.58415e-09 -3.66492e-06 -2.25595e-07 -3.18741e-07 1.53486e-06)
(-8.76091e-07 -2.14376e-08 -3.93434e-06 -1.70961e-07 -3.78458e-07 1.87628e-06)
(7.67438e-06 2.75007e-08 -3.53547e-07 7.66345e-06 -6.32688e-08 -2.5399e-05)
(9.39284e-06 -2.87162e-07 -1.38902e-07 9.85936e-06 -1.12625e-07 -3.24054e-05)
(7.28689e-06 -1.95953e-07 -1.94585e-07 7.61535e-06 -2.44126e-07 -2.50741e-05)
(9.45789e-06 7.96929e-08 -4.01736e-07 9.02193e-06 -1.28096e-07 -3.0725e-05)
(-1.21366e-06 5.62066e-08 -3.54913e-06 -1.55156e-06 -4.02967e-08 4.5599e-06)
(-1.68104e-06 4.91782e-08 -3.57654e-06 -2.09594e-06 -8.92711e-08 6.16211e-06)
(7.32421e-06 5.21965e-08 -4.58947e-07 7.0173e-06 -2.53209e-07 -2.38313e-05)
(-9.03849e-07 -6.17751e-07 -2.12463e-08 -3.17214e-06 -1.22252e-06 1.23487e-05)
(-3.47626e-06 -2.44458e-07 -3.43241e-06 -4.13483e-06 6.22258e-08 1.22822e-05)
(-1.93172e-06 7.7342e-08 -3.71955e-06 -1.36397e-06 -3.59178e-07 5.4738e-06)
(-2.60746e-06 5.6565e-08 -3.95086e-06 -1.59767e-06 -3.9787e-07 6.86982e-06)
(-2.52822e-06 -1.54922e-07 -3.49072e-06 -3.01874e-06 9.04237e-08 8.98937e-06)
(-3.36147e-06 -2.2321e-07 -3.45227e-06 -3.98518e-06 6.24695e-08 1.18485e-05)
(-4.79442e-09 5.92181e-09 -5.63549e-11 2.88797e-08 -1.84015e-10 -1.24079e-11)
(-4.77961e-09 5.84887e-09 -4.647e-11 2.86972e-08 -1.82121e-10 -4.33534e-12)
(-1.97544e-09 1.7132e-09 -2.41329e-11 2.58707e-08 -1.70787e-10 1.57957e-12)
(5.3486e-06 1.34666e-08 -3.0174e-07 5.32309e-06 -1.08377e-07 -1.76623e-05)
(-5.61176e-07 8.1718e-09 -3.62877e-06 -2.31765e-07 -3.10626e-07 1.5016e-06)
(7.52429e-06 2.64552e-08 -3.49966e-07 7.51208e-06 -6.83151e-08 -2.48992e-05)
(-4.22366e-07 2.23454e-09 -3.32458e-06 -2.50894e-07 -2.51321e-07 1.25933e-06)
(5.13244e-06 -1.14576e-07 -2.03509e-07 5.33775e-06 -2.78276e-07 -1.75998e-05)
(7.14842e-06 -1.90409e-07 -1.96945e-07 7.46874e-06 -2.48379e-07 -2.45938e-05)
(5.15167e-06 3.24315e-08 -4.52632e-07 4.9598e-06 -2.84644e-07 -1.67817e-05)
(-1.15583e-06 5.35695e-08 -3.53946e-06 -1.47927e-06 -3.39266e-08 4.35092e-06)
(7.18456e-06 5.07905e-08 -4.60217e-07 6.88545e-06 -2.57314e-07 -2.33788e-05)
(-7.91363e-07 3.49978e-08 -3.38302e-06 -1.00671e-06 7.6471e-09 2.99179e-06)
(5.2595e-06 -4.53361e-08 -5.6173e-08 5.25878e-06 -9.42933e-08 -1.76388e-05)
(3.28585e-06 -1.49292e-08 -4.34938e-08 3.30519e-06 -9.05925e-08 -1.1034e-05)
(5.20992e-06 1.27097e-08 -2.99008e-07 5.18381e-06 -1.0921e-07 -1.7201e-05)
(-2.68153e-07 -1.39289e-09 -2.82519e-06 -2.21751e-07 -1.77419e-07 9.06734e-07)
(-4.03722e-07 1.60299e-09 -3.27203e-06 -2.5023e-07 -2.42302e-07 1.22027e-06)
(3.26337e-06 3.81402e-09 -2.53684e-07 3.23628e-06 -1.0162e-07 -1.07374e-05)
(5.00297e-06 -1.09874e-07 -2.03582e-07 5.20116e-06 -2.7791e-07 -1.71511e-05)
(3.16979e-06 -5.22671e-08 -1.81487e-07 3.27825e-06 -2.50714e-07 -1.08138e-05)
(5.02108e-06 3.13526e-08 -4.50785e-07 4.8359e-06 -2.84118e-07 -1.63576e-05)
(-4.4292e-07 1.92228e-08 -2.97527e-06 -5.62775e-07 4.65156e-08 1.69425e-06)
(-7.43809e-07 3.27194e-08 -3.34617e-06 -9.44868e-07 1.32002e-08 2.81315e-06)
(3.17796e-06 1.83169e-08 -3.98812e-07 3.0784e-06 -2.54029e-07 -1.0356e-05)
(-2.42096e-06 -1.48112e-07 -3.48639e-06 -2.88741e-06 9.46411e-08 8.60721e-06)
(-1.72425e-06 -1.03405e-07 -3.35747e-06 -2.01864e-06 1.19395e-07 6.08308e-06)
(-8.65923e-07 3.98519e-08 -2.83249e-06 -7.52401e-07 -2.281e-07 2.68606e-06)
(-1.30815e-06 5.75218e-08 -3.30027e-06 -1.03797e-06 -2.91224e-07 3.89823e-06)
(-1.03367e-06 -5.84998e-08 -2.97246e-06 -1.17653e-06 1.34053e-07 3.5993e-06)
(-1.63138e-06 -9.73316e-08 -3.32387e-06 -1.90335e-06 1.22135e-07 5.74629e-06)
(-4.79119e-09 5.56326e-09 -2.99256e-11 2.78451e-08 -1.67214e-10 -1.61545e-11)
(-4.78629e-09 5.52497e-09 -3.03905e-11 2.77046e-08 -1.74893e-10 -1.68493e-11)
(-2.08282e-09 1.38988e-09 -1.02962e-11 2.49318e-08 -1.6482e-10 -1.23905e-11)
(1.56396e-06 -1.55815e-09 -1.94497e-07 1.54657e-06 -6.77128e-08 -5.10455e-06)
(-2.48286e-07 -1.46368e-09 -2.74945e-06 -2.1456e-07 -1.68025e-07 8.57082e-07)
(3.14434e-06 3.34701e-09 -2.50526e-07 3.11751e-06 -1.00154e-07 -1.03421e-05)
(-1.11635e-07 -8.10285e-11 -2.12806e-06 -1.47757e-07 -1.0472e-07 4.94574e-07)
(1.53844e-06 -1.24351e-08 -1.35738e-07 1.58169e-06 -1.83176e-07 -5.1969e-06)
(3.05645e-06 -4.90202e-08 -1.79671e-07 3.15988e-06 -2.47489e-07 -1.0423e-05)
(1.54305e-06 1.01534e-08 -3.02198e-07 1.50731e-06 -1.83665e-07 -5.01148e-06)
(-4.04956e-07 1.77658e-08 -2.90546e-06 -5.16058e-07 5.02712e-08 1.55506e-06)
(3.06414e-06 1.76758e-08 -3.94249e-07 2.96957e-06 -2.50533e-07 -9.9849e-06)
(-1.79798e-07 1.0559e-08 -2.29303e-06 -2.48561e-07 6.59338e-08 7.41734e-07)
(1.47541e-06 8.89095e-10 -3.47965e-08 1.49865e-06 -5.90676e-08 -4.94376e-06)
(4.02104e-07 2.16586e-09 -2.20941e-08 4.16975e-07 -2.60726e-08 -1.30819e-06)
(1.47418e-06 -1.74604e-09 -1.90264e-07 1.45761e-06 -6.52325e-08 -4.80706e-06)
(1.14655e-08 3.4563e-09 -1.21557e-06 -6.16878e-08 -4.47692e-08 1.29447e-07)
(-9.33263e-08 3.87094e-10 -2.02585e-06 -1.36699e-07 -9.63125e-08 4.43222e-07)
(4.10028e-07 -3.72604e-09 -1.1135e-07 4.0708e-07 -2.87401e-08 -1.28709e-06)
(1.45128e-06 -1.05161e-08 -1.32567e-07 1.49138e-06 -1.78112e-07 -4.89711e-06)
(4.07755e-07 6.78251e-09 -7.26745e-08 4.16347e-07 -9.44519e-08 -1.31828e-06)
(1.45568e-06 9.89175e-09 -2.95159e-07 1.42308e-06 -1.7835e-07 -4.7254e-06)
(-2.26275e-08 7.79689e-09 -1.32846e-06 -6.93797e-08 5.34872e-08 1.76136e-07)
(-1.53877e-07 1.00173e-08 -2.18768e-06 -2.18879e-07 6.63171e-08 6.49349e-07)
(4.13771e-07 7.26485e-09 -1.66492e-07 4.12933e-07 -9.34919e-08 -1.30348e-06)
(-9.56785e-07 -5.33684e-08 -2.90487e-06 -1.08539e-06 1.34483e-07 3.32654e-06)
(-4.91567e-07 -2.21691e-08 -2.30388e-06 -5.48097e-07 1.25529e-07 1.69401e-06)
(-9.54767e-08 8.1742e-09 -1.2077e-06 -1.49363e-07 -7.49476e-08 4.20824e-07)
(-3.70779e-07 2.00558e-08 -2.01712e-06 -3.83231e-07 -1.40615e-07 1.25883e-06)
(-1.43058e-07 2.87851e-09 -1.34359e-06 -1.61392e-07 8.40308e-08 4.86555e-07)
(-4.36417e-07 -1.82752e-08 -2.19942e-06 -4.86258e-07 1.22306e-07 1.50298e-06)
(-4.83116e-09 5.06538e-09 -8.39635e-11 2.61685e-08 -3.50803e-11 1.57972e-10)
(-4.87692e-09 4.97478e-09 -9.66246e-11 2.58225e-08 1.34618e-10 2.79844e-10)
(-2.3453e-09 7.95348e-10 -1.14044e-10 2.31901e-08 1.26873e-10 2.42352e-10)
(3.77972e-08 -1.72571e-09 -1.86935e-09 1.0976e-08 -1.39714e-09 2.16615e-10)
(2.18494e-08 3.68475e-09 -1.08743e-06 -5.30763e-08 -3.86394e-08 9.5927e-08)
(3.60287e-07 -3.83952e-09 -1.04838e-07 3.58126e-07 -2.66523e-08 -1.12262e-06)
(1.18183e-07 3.02771e-08 -5.25996e-08 -4.48947e-08 -2.75288e-09 -2.93921e-08)
(2.27595e-08 7.10105e-09 1.77772e-09 1.50055e-08 1.55293e-09 5.51809e-09)
(3.58489e-07 7.55596e-09 -6.84031e-08 3.65638e-07 -8.85785e-08 -1.14928e-06)
(3.93457e-08 1.08705e-08 -2.25134e-09 1.14562e-08 1.94615e-09 -5.21052e-10)
(-1.11869e-08 7.57115e-09 -1.19033e-06 -5.62274e-08 4.9364e-08 1.33767e-07)
(3.64459e-07 7.26671e-09 -1.56802e-07 3.65014e-07 -8.74441e-08 -1.14142e-06)
(1.00622e-07 2.71342e-08 -5.6705e-08 -4.3503e-08 -4.82045e-11 -2.27825e-08)
(-1.14193e-07 5.01015e-09 -1.2054e-06 -1.3047e-07 7.62958e-08 3.88252e-07)
(7.19053e-08 2.82152e-08 -5.62048e-08 -3.65978e-08 3.39132e-10 -1.28201e-08)
(-1.04163e-09 1.40733e-09 1.58444e-09 -4.03961e-10 -1.41624e-10 3.26457e-10)
(-9.96603e-09 -1.21966e-09 9.61309e-09 -7.15999e-09 -6.71916e-09 1.27224e-08)
(-2.24727e-09 3.64705e-09 6.5342e-09 -2.65674e-09 -3.83141e-09 2.2123e-09)
(1.13745e-08 1.45117e-09 1.84665e-10 1.3573e-08 -9.51412e-10 1.94718e-09)
(-3.99521e-10 5.06895e-10 1.71712e-09 3.83484e-09 4.38591e-09 3.90735e-09)
(-3.2903e-10 -6.81523e-10 2.02406e-09 -4.14239e-10 8.28816e-09 1.19068e-08)
(3.78367e-10 2.51081e-09 1.19937e-09 1.47174e-08 5.04614e-09 -1.81853e-10)
(6.10273e-09 -1.11485e-09 1.40711e-09 1.79637e-08 6.75171e-09 -2.48811e-09)
(7.21706e-10 6.16639e-11 3.61046e-09 1.15716e-09 5.16223e-09 4.74936e-09)
(1.45347e-09 3.4334e-09 1.38167e-09 1.2645e-08 4.10177e-09 -9.52538e-10)
(1.83316e-10 -3.65323e-11 6.58488e-10 3.55206e-11 -1.28933e-10 2.40495e-09)
(2.9547e-10 5.13817e-11 7.67975e-10 -2.11546e-11 -2.45088e-10 8.13981e-09)
(1.90487e-10 6.95623e-13 5.93331e-10 -1.73493e-11 -9.76738e-11 2.16408e-09)
(2.16206e-10 -7.71987e-13 2.30042e-10 1.03344e-12 -9.04931e-12 -2.48923e-10)
(2.83474e-10 2.13558e-12 4.57547e-10 2.49516e-12 8.49679e-12 6.08886e-09)
(2.14429e-10 -1.36083e-12 2.0898e-10 8.65715e-13 -2.58767e-12 -3.48677e-10)
(1.74909e-10 -2.08241e-10 3.95603e-10 4.39061e-10 4.84345e-10 5.92001e-10)
(2.62466e-09 1.25514e-08 7.06807e-09 1.44022e-08 1.35742e-08 1.77124e-09)
(5.55043e-10 -1.17183e-08 -8.80968e-09 4.16553e-08 3.29968e-08 -6.27751e-09)
(7.50725e-09 -1.69018e-10 -9.12897e-11 9.10471e-09 1.59167e-11 -9.66437e-11)
(2.93175e-09 2.65565e-09 -1.21676e-13 1.67547e-08 -9.82458e-11 -4.59236e-11)
(9.21409e-10 -4.00088e-09 -1.67414e-10 2.85719e-08 -4.15267e-10 2.45227e-11)
(-1.87273e-09 1.93737e-09 -5.10588e-11 2.62681e-08 -1.32884e-10 -1.16496e-11)
(7.96385e-09 1.4751e-11 -5.10865e-11 9.51426e-09 7.65064e-11 -1.27226e-10)
(7.79685e-10 -3.94591e-09 -7.10989e-11 2.85956e-08 1.5653e-10 -8.01326e-11)
(2.87321e-09 2.52181e-09 -5.83775e-11 1.65585e-08 -1.0896e-10 -1.52091e-11)
(6.84946e-09 -2.28109e-10 -8.83532e-12 8.41591e-09 -1.31142e-11 -1.22762e-11)
(2.53759e-09 1.89529e-09 -4.44853e-12 1.5803e-08 -1.16406e-10 9.65705e-14)
(3.78999e-10 -3.99085e-09 -3.15352e-11 2.78601e-08 -1.01108e-10 7.02101e-12)
(-2.05532e-09 1.49235e-09 -1.62841e-11 2.52982e-08 -1.50752e-10 -6.50869e-12)
(7.01787e-09 -1.68877e-10 -4.93869e-12 8.58208e-09 2.71273e-12 -4.41565e-12)
(3.2013e-10 -3.98736e-09 -3.74484e-11 2.77165e-08 -7.46514e-11 -4.25626e-12)
(2.50038e-09 1.83755e-09 -7.03085e-12 1.57137e-08 -1.14761e-10 -1.64144e-13)
(6.11003e-09 -3.08703e-10 -9.6616e-11 7.62698e-09 6.74383e-11 1.66809e-10)
(2.24368e-09 1.42434e-09 -2.06378e-11 1.49333e-08 -1.16526e-10 1.90499e-11)
(5.72402e-11 -4.00164e-09 -6.67527e-11 2.67513e-08 -1.13538e-10 4.51289e-11)
(-2.1582e-09 1.12709e-09 -4.80581e-11 2.40218e-08 -1.6099e-10 3.36748e-11)
(6.43256e-09 -2.10864e-10 -4.29562e-11 7.95398e-09 3.33406e-11 7.68715e-11)
(-8.09632e-11 -4.01773e-09 -1.10473e-10 2.63941e-08 -9.41453e-11 1.50006e-10)
(2.16279e-09 1.30369e-09 -3.66549e-11 1.47648e-08 -9.22956e-11 4.18983e-11)
(5.15695e-09 1.55556e-10 -9.17673e-10 6.60635e-09 8.37752e-10 2.7439e-09)
(7.42315e-10 -7.65159e-11 -3.14552e-10 1.34827e-08 1.29051e-09 5.5633e-10)
(-1.51673e-09 -3.34046e-09 -8.27686e-10 2.3484e-08 1.03882e-09 3.09418e-09)
(-2.65183e-09 1.68277e-09 -3.74675e-10 1.96535e-08 2.78914e-09 1.89077e-09)
(5.09354e-09 -4.32616e-10 -9.06772e-10 6.66516e-09 9.7485e-10 1.41022e-09)
(-1.35048e-09 -1.4544e-09 -9.54533e-10 2.09554e-08 -1.23945e-10 4.71413e-09)
(4.43176e-10 3.16058e-10 4.00617e-11 1.27314e-08 1.78526e-09 9.00925e-10)
(2.10172e-09 8.78247e-10 1.68574e-09 8.78492e-09 2.36137e-09 8.23498e-10)
(1.77126e-10 2.23783e-09 3.04977e-09 3.60133e-09 3.07423e-09 2.24025e-09)
(-6.13443e-10 1.41529e-12 3.1564e-09 -3.44563e-10 8.72311e-09 1.19526e-08)
(-2.04152e-09 3.51205e-09 1.76333e-09 1.5587e-08 5.07032e-09 7.81416e-11)
(3.62539e-09 -3.96805e-09 2.79012e-09 2.06398e-08 7.47147e-09 -2.31045e-09)
(1.3404e-10 2.36313e-10 3.37046e-09 8.9336e-10 4.74396e-09 4.48166e-09)
(-1.81038e-09 6.87357e-09 3.3964e-09 1.06893e-08 3.59353e-09 7.28923e-10)
(3.35957e-10 3.38058e-10 6.1294e-10 -1.51589e-09 1.82565e-09 9.34177e-09)
(4.6971e-10 1.3883e-11 5.19767e-11 -1.98944e-10 1.11059e-11 1.30434e-08)
(4.07547e-10 -4.59463e-11 4.62539e-11 -5.12434e-10 8.84001e-10 1.22628e-08)
(3.06679e-09 2.053e-09 2.6277e-10 8.74875e-09 -2.10723e-10 -8.75312e-10)
(-4.72549e-09 6.45593e-09 -1.52354e-11 3.00422e-08 8.14796e-11 -2.87662e-10)
(-5.05913e-09 1.31298e-08 -2.22228e-10 1.88676e-08 4.49706e-11 -1.08435e-10)
(-1.37068e-09 -1.64283e-09 -3.59609e-10 3.22045e-08 -5.80404e-10 -1.70541e-10)
(-1.16923e-09 -1.16907e-09 -4.95945e-11 3.31227e-08 4.02094e-10 -7.36337e-10)
(3.13543e-09 1.6857e-09 -2.69707e-10 8.92517e-09 2.48762e-12 -2.2969e-10)
(-5.01711e-09 1.32094e-08 1.04553e-10 1.89567e-08 4.08003e-11 -1.7725e-10)
(2.95971e-10 -3.20485e-10 -3.32004e-10 4.47093e-10 -2.51349e-10 -1.4694e-09)
(-1.57574e-10 3.08559e-10 7.30281e-11 -9.04861e-12 1.52964e-09 -6.56752e-10)
(6.14926e-10 8.10164e-11 -9.76744e-10 3.52822e-10 1.37393e-09 4.28173e-10)
(-3.68628e-10 6.87393e-10 1.67988e-09 -1.82835e-10 1.36588e-10 1.11119e-08)
(1.74554e-10 -7.51551e-11 7.32153e-10 3.34278e-11 -2.28347e-10 2.88843e-09)
(2.91897e-10 3.74743e-11 1.43667e-09 -4.37739e-10 -6.90731e-11 6.39679e-09)
(7.9302e-09 -2.55882e-10 -2.24921e-10 9.84498e-09 3.98406e-11 -3.56327e-10)
(-1.86847e-09 2.29731e-09 -1.38817e-10 2.74085e-08 4.75707e-11 -2.76997e-10)
(2.91945e-09 2.62813e-09 2.76981e-11 1.70015e-08 -4.44584e-11 -8.504e-11)
(8.65451e-10 -3.91858e-09 -2.41007e-10 2.91506e-08 -6.55951e-10 -1.18836e-10)
(7.84964e-09 -9.58375e-11 -4.43084e-11 9.46676e-09 7.95946e-11 -1.67075e-10)
(1.05755e-09 -3.48786e-09 -2.1948e-10 3.04418e-08 4.06824e-10 -7.59892e-10)
(2.95842e-09 2.73372e-09 -1.55836e-10 1.72572e-08 2.28962e-11 -1.38783e-10)
(4.4973e-10 4.66163e-11 4.97336e-11 -1.07092e-10 -1.43004e-10 1.25992e-08)
(3.59549e-10 5.44124e-12 5.88007e-10 -2.94644e-11 -1.56624e-10 8.6853e-09)
(3.64336e-10 2.38744e-12 2.4834e-10 8.47683e-12 -9.48191e-11 1.14044e-08)
(3.30003e-10 3.60784e-12 3.57694e-10 3.12656e-12 -1.70671e-11 6.8117e-09)
(3.21074e-10 -2.5266e-12 2.76901e-11 4.94518e-12 -1.01651e-11 1.01512e-08)
(3.23782e-10 -3.59209e-12 4.13444e-11 3.32074e-12 -1.55195e-11 1.0272e-08)
(2.79948e-10 1.97257e-12 5.05118e-10 1.51681e-12 -4.61224e-11 6.36596e-09)
(2.17081e-10 -1.85732e-12 2.34691e-10 7.58943e-13 -6.86611e-12 -2.32548e-10)
(2.21457e-10 -1.79818e-12 2.69831e-10 1.31943e-12 -1.42854e-11 -7.25504e-11)
(3.20384e-10 -1.51156e-12 2.46727e-11 4.32675e-12 -5.55065e-12 1.01275e-08)
(3.27093e-10 7.44737e-13 3.2695e-10 2.39883e-12 1.37924e-12 6.57333e-09)
(3.19596e-10 -1.53391e-12 1.84395e-11 3.11392e-12 5.55052e-13 1.01103e-08)
(2.26014e-10 2.95354e-10 5.79152e-10 -2.57047e-10 -2.27386e-10 7.2447e-09)
(1.47202e-09 1.00548e-09 9.39572e-10 -4.68152e-09 -5.94101e-09 1.43212e-08)
(4.32147e-10 2.6445e-10 2.63724e-10 -7.9735e-10 -8.516e-10 1.11913e-08)
(2.22144e-10 1.12487e-10 7.04673e-10 -8.80371e-11 -1.90407e-10 6.57507e-09)
(1.7275e-10 -9.2782e-11 4.03628e-10 2.56895e-10 2.93765e-10 4.48792e-10)
(2.05538e-10 1.004e-11 2.55601e-10 3.75365e-12 1.60759e-11 -1.97782e-10)
(3.25482e-09 8.20135e-10 6.56611e-10 -7.96188e-09 -1.07264e-08 1.78591e-08)
(4.07351e-09 3.75773e-08 5.92022e-09 -3.89266e-09 -9.9817e-09 2.15915e-08)
(4.58304e-08 -3.10155e-08 -5.06782e-08 -1.00286e-07 -8.56511e-08 7.18722e-08)
(2.99642e-09 1.63502e-09 -2.02241e-11 8.65057e-09 -1.00973e-10 -8.78402e-11)
(-4.91886e-09 1.27087e-08 -1.65353e-10 1.88745e-08 -9.65139e-11 -1.30628e-10)
(-1.30634e-09 -1.76436e-09 -2.61735e-10 3.16934e-08 -4.08312e-10 -3.36691e-11)
(-4.72241e-09 6.01224e-09 -3.064e-11 2.91206e-08 -1.57203e-10 -2.64397e-11)
(-1.43967e-09 -1.68672e-09 -2.29305e-11 3.15818e-08 1.08168e-10 -6.97382e-11)
(3.36925e-09 1.50583e-09 -2.00877e-10 9.08558e-09 -1.22009e-11 -1.23538e-10)
(-4.93991e-09 1.26291e-08 5.90586e-12 1.86528e-08 -2.05914e-10 -3.9324e-11)
(2.74855e-09 1.59209e-09 -2.94867e-11 8.36198e-09 -5.54118e-11 -8.45622e-12)
(-4.7962e-09 5.76466e-09 -3.17592e-11 2.84584e-08 -1.60888e-10 -6.11344e-12)
(-4.99741e-09 1.2362e-08 -4.86605e-11 1.79699e-08 -1.46745e-10 3.68921e-12)
(-1.74177e-09 -1.72838e-09 -5.27911e-11 3.08667e-08 -1.21335e-10 2.13636e-12)
(-1.70275e-09 -1.70882e-09 -5.38917e-11 3.10689e-08 -6.85524e-11 -8.96654e-12)
(2.72302e-09 1.55833e-09 -7.58043e-11 8.30296e-09 -5.91783e-11 -3.21741e-13)
(-5.00361e-09 1.24223e-08 -4.47316e-11 1.80465e-08 -1.46935e-10 1.29475e-11)
(7.15346e-09 -1.59565e-10 -1.55095e-11 8.72796e-09 8.08323e-12 -1.11651e-11)
(-2.01721e-09 1.61222e-09 -2.18031e-11 2.56545e-08 -1.5194e-10 -6.79379e-12)
(2.57471e-09 1.95192e-09 -6.83076e-12 1.58956e-08 -1.15129e-10 -5.34902e-13)
(3.95295e-10 -3.99161e-09 -4.17477e-11 2.79351e-08 -1.13037e-10 1.64965e-12)
(6.98762e-09 -2.12908e-10 -8.46197e-12 8.55688e-09 -1.24258e-11 -1.26537e-11)
(4.54248e-10 -3.98298e-09 -4.02236e-11 2.81326e-08 -5.54479e-11 -1.50623e-11)
(2.61378e-09 2.01618e-09 -1.05352e-11 1.59868e-08 -1.14651e-10 3.8631e-13)
(2.64163e-09 1.54792e-09 -6.64658e-11 8.18687e-09 -5.64181e-11 -1.40876e-11)
(-4.98551e-09 1.22966e-08 -5.08482e-11 1.78856e-08 -1.4461e-10 2.30249e-13)
(-1.75271e-09 -1.73008e-09 -5.32467e-11 3.07874e-08 -1.15458e-10 7.74193e-12)
(-4.7931e-09 5.63837e-09 -2.78166e-11 2.80862e-08 -1.59186e-10 -8.77378e-12)
(-1.79931e-09 -1.7327e-09 -4.24282e-11 3.0629e-08 -8.1627e-11 -1.71022e-12)
(2.72177e-09 1.55223e-09 -3.52097e-11 8.29131e-09 -5.45835e-11 3.90182e-12)
(-4.98487e-09 1.22532e-08 -3.35651e-11 1.77906e-08 -1.51995e-10 2.23935e-12)
(2.48516e-09 1.50391e-09 -3.27792e-11 7.9595e-09 -5.41682e-11 -1.28368e-11)
(-4.77775e-09 5.44113e-09 -3.80836e-11 2.73909e-08 -1.8903e-10 -1.64238e-11)
(-4.96214e-09 1.19309e-08 -5.78729e-11 1.71551e-08 -1.77284e-10 1.26093e-12)
(-1.97422e-09 -1.78632e-09 -7.3976e-11 2.97334e-08 -1.25015e-10 2.48002e-11)
(-1.91386e-09 -1.76434e-09 -5.75328e-11 3.00154e-08 -1.18315e-10 -6.37448e-12)
(2.38558e-09 1.48439e-09 -7.43429e-11 7.81806e-09 -6.65175e-11 1.87919e-11)
(-4.96679e-09 1.19999e-08 -5.9907e-11 1.72862e-08 -1.66002e-10 -3.06001e-12)
(6.61738e-09 -2.01392e-10 -1.06221e-11 8.15476e-09 8.0342e-12 2.13868e-11)
(-2.09434e-09 1.31771e-09 -1.5822e-11 2.46312e-08 -1.77068e-10 -1.38061e-11)
(2.30741e-09 1.51884e-09 -1.03345e-11 1.50825e-08 -1.24733e-10 4.50401e-12)
(9.09722e-11 -3.99775e-09 -6.34329e-11 2.68559e-08 -1.12711e-10 2.5727e-11)
(6.39224e-09 -2.75522e-10 -3.97147e-11 7.92041e-09 1.51329e-11 5.48996e-11)
(1.66517e-10 -3.99188e-09 -3.31899e-11 2.71304e-08 -1.05421e-10 -5.72889e-12)
(2.35101e-09 1.58874e-09 3.40132e-12 1.52127e-08 -1.25918e-10 -2.32882e-12)
(2.20096e-09 1.45367e-09 -6.4919e-11 7.57667e-09 -5.7652e-11 1.62574e-10)
(-4.96081e-09 1.18535e-08 -7.48049e-11 1.70014e-08 -1.67509e-10 1.84036e-11)
(-2.00178e-09 -1.79389e-09 -8.85837e-11 2.96265e-08 -1.31634e-10 4.42885e-11)
(-4.78617e-09 5.24468e-09 -6.38158e-11 2.67517e-08 -1.74959e-10 3.34569e-11)
(-2.11814e-09 -1.81692e-09 -1.14082e-10 2.92498e-08 -1.11257e-10 1.53655e-10)
(2.36972e-09 1.47574e-09 -3.9151e-11 7.79889e-09 -5.94237e-11 3.46764e-11)
(-4.96122e-09 1.17651e-08 -7.13858e-11 1.68247e-08 -1.55298e-10 4.44999e-11)
(1.06376e-09 1.38907e-09 2.68888e-10 6.27347e-09 2.69753e-10 1.94425e-09)
(-5.01504e-09 4.86453e-09 -1.58913e-10 2.4975e-08 8.77053e-10 7.30951e-10)
(-5.22745e-09 1.1436e-08 -1.18293e-10 1.46965e-08 1.84456e-09 1.47975e-09)
(-3.46987e-09 -1.44869e-09 -6.60225e-10 2.61638e-08 8.54362e-10 3.13844e-09)
(-3.02376e-09 -1.77473e-09 -3.34961e-10 2.739e-08 3.70316e-10 1.68464e-09)
(-3.91336e-10 1.45511e-09 5.36231e-10 4.64984e-09 7.07316e-10 5.04671e-09)
(-5.12565e-09 1.14143e-08 -6.50375e-11 1.53245e-08 9.96777e-10 8.80781e-10)
(5.30412e-09 -3.54871e-10 -5.2609e-10 6.81226e-09 5.05351e-10 8.54543e-10)
(-2.57372e-09 5.79278e-10 -2.05893e-10 2.25977e-08 7.5827e-10 5.54958e-10)
(1.08547e-09 4.30899e-11 -3.05962e-10 1.37543e-08 9.70609e-10 4.41177e-10)
(-1.46002e-09 -3.60641e-09 -7.23307e-10 2.38741e-08 9.63098e-10 2.65385e-09)
(4.98774e-09 -5.42829e-10 -8.73618e-10 6.54093e-09 9.12572e-10 1.3024e-09)
(-1.03935e-09 -3.95876e-09 -4.17486e-10 2.47505e-08 4.33107e-10 1.51116e-09)
(1.34733e-09 2.49319e-10 -2.49285e-10 1.38584e-08 6.4074e-10 3.63562e-10)
(-4.38619e-09 1.21523e-09 -3.33731e-10 7.31497e-11 2.92289e-11 1.48059e-08)
(-5.37524e-09 1.1547e-08 -3.18772e-10 1.34658e-08 3.23169e-09 2.67652e-09)
(-3.54613e-09 -1.22423e-09 -8.49816e-10 2.55728e-08 8.8814e-10 3.75798e-09)
(-4.84245e-09 5.9187e-09 -1.13928e-09 1.99468e-08 4.08662e-09 3.43862e-09)
(-3.31873e-09 2.42104e-10 -1.46851e-09 2.21029e-08 -5.3426e-10 6.10908e-09)
(-7.30795e-10 1.43264e-09 6.0901e-10 4.32305e-09 7.44775e-10 5.8261e-09)
(-5.20052e-09 1.1793e-08 -1.02959e-09 1.07823e-08 5.83136e-09 5.05922e-09)
(-5.64571e-10 1.01819e-09 1.03314e-09 -4.26275e-10 -2.15232e-10 9.91093e-11)
(-5.93404e-10 -2.74696e-10 6.99928e-10 9.32504e-10 1.37332e-09 3.22492e-10)
(-2.71569e-09 2.08433e-09 4.59289e-09 3.94658e-10 -1.07683e-09 7.95475e-10)
(-9.33487e-09 3.26785e-09 1.2498e-08 -9.66615e-09 -4.59154e-09 1.6308e-08)
(-6.56531e-09 8.26571e-09 9.66713e-09 -4.35347e-09 -3.92358e-09 1.04539e-08)
(-3.18005e-10 -1.16974e-09 -8.10823e-11 1.48559e-09 2.28506e-09 1.44613e-10)
(6.80613e-08 -2.9784e-08 -4.43599e-08 2.15311e-08 -1.9581e-09 -5.97043e-08)
(-6.12776e-09 2.81083e-09 4.32042e-09 1.84548e-09 8.00371e-10 3.98666e-09)
(-2.0868e-10 -2.57492e-10 7.61612e-11 1.68884e-09 2.65342e-09 3.16411e-09)