/*--------------------------------*- C++ -*----------------------------------*\
| =========                 |                                                 |
| \\      /  F ield         | OpenFOAM: The Open Source CFD Toolbox           |
|  \\    /   O peration     | Version:  2012                                  |
|   \\  /    A nd           | Website:  www.openfoam.com                      |
|    \\/     M anipulation  |                                                 |
\*---------------------------------------------------------------------------*/
FoamFile
{
    version     2.0;
    format      ascii;
    class       pointVectorField;
    location    "0.105/solid";
    object      pointD;
}
// * * * * * * * * * * * * * * * * * * * * * * * * * * * * * * * * * * * * * //

dimensions      [0 1 0 0 0 0 0];


internalField   nonuniform List<vector> 
37794
(
(-2.98205e-11 -3.87944e-11 -1.69657e-11)
(7.76009e-14 -2.80359e-13 -5.37371e-13)
(-3.42262e-12 1.80953e-13 -2.37951e-12)
(-4.9131e-12 -1.29772e-13 -1.80179e-12)
(-2.9958e-12 -3.97487e-12 -6.30634e-12)
(2.12517e-11 1.09425e-11 -3.2407e-12)
(1.92706e-11 1.04809e-11 -1.57563e-12)
(1.80406e-11 9.71058e-12 -2.45556e-12)
(1.20714e-11 1.18816e-11 -5.82163e-12)
(-2.23421e-06 -5.99447e-07 -2.59309e-06)
(-1.46063e-05 -8.8918e-06 -6.20598e-06)
(-3.3357e-05 -2.09919e-05 -7.76422e-06)
(-5.38951e-05 -3.36411e-05 -8.41269e-06)
(-3.82379e-12 -1.55151e-12 4.00327e-12)
(-6.1425e-13 1.10428e-12 -1.89011e-11)
(5.69474e-13 2.25614e-12 -2.74101e-12)
(2.70687e-11 9.82652e-12 1.40897e-11)
(8.01953e-12 -2.75838e-12 1.27267e-12)
(-4.71139e-12 -2.81138e-13 -1.77656e-12)
(1.01109e-11 -3.22585e-14 -3.40464e-13)
(-5.03575e-12 9.85703e-14 -1.86897e-12)
(1.03672e-11 -3.55566e-11 -1.47869e-11)
(1.27186e-08 6.98061e-09 -4.03208e-09)
(2.00001e-11 1.08567e-11 -1.97551e-12)
(-7.06998e-06 -4.58752e-06 9.25436e-07)
(1.86452e-11 1.01059e-11 -1.68269e-12)
(-2.34219e-05 -1.52257e-05 1.41503e-06)
(1.62696e-11 9.29226e-12 -3.24952e-12)
(-4.3589e-05 -2.76189e-05 1.56565e-06)
(-1.9647e-06 -1.19501e-06 5.17581e-07)
(-7.27759e-06 -3.93951e-06 -4.68051e-06)
(-1.44597e-05 -9.47922e-06 1.22045e-06)
(-2.35135e-05 -1.47463e-05 -7.21027e-06)
(-3.331e-05 -2.13599e-05 1.52304e-06)
(-4.36057e-05 -2.73322e-05 -7.97622e-06)
(-5.38851e-05 -3.39061e-05 1.5691e-06)
(5.38911e-12 1.10456e-12 8.90878e-12)
(1.00327e-11 -1.33277e-13 -2.62681e-13)
(1.02191e-11 6.38438e-15 -3.96608e-13)
(-2.27419e-08 -1.55624e-08 -2.00497e-08)
(-7.67839e-13 -6.33685e-12 -9.13132e-13)
(-9.12389e-12 5.43353e-13 -2.76348e-12)
(5.61369e-11 6.53299e-12 2.71729e-11)
(-4.75435e-12 -1.69008e-11 -3.00469e-12)
(-4.23418e-12 -1.83959e-11 -1.85664e-11)
(6.70728e-13 -8.18656e-12 1.45328e-11)
(2.36173e-11 2.93088e-11 6.35861e-11)
(2.70334e-13 -1.68599e-12 1.0267e-12)
(-1.04258e-12 -1.40655e-12 2.71139e-12)
(1.44268e-12 -1.05435e-11 -1.40254e-11)
(-5.46658e-12 -2.24521e-12 2.28237e-12)
(-3.06438e-13 -9.99987e-13 1.91338e-12)
(-4.36158e-12 -2.15452e-12 -1.73016e-12)
(-4.87514e-12 -2.37324e-13 -1.80205e-12)
(-4.97529e-12 -1.73754e-13 1.32062e-12)
(2.84852e-13 -4.52449e-14 2.48676e-12)
(-4.96877e-12 -9.35091e-15 -1.81493e-12)
(-4.81154e-12 -9.84616e-14 -2.23686e-12)
(-5.95071e-12 4.43948e-12 -3.02888e-11)
(1.88498e-13 1.12335e-12 2.98599e-12)
(-3.22712e-12 8.89321e-11 -1.17895e-10)
(2.35314e-11 1.18257e-11 1.73666e-12)
(3.99965e-11 -3.32965e-11 5.9671e-13)
(-3.26667e-11 -1.13518e-12 -7.3318e-13)
(2.19928e-10 1.14523e-09 -7.39108e-12)
(2.05558e-11 1.11535e-11 -1.85074e-12)
(1.96695e-11 1.071e-11 -1.5269e-12)
(3.88877e-11 -3.24527e-11 -3.71621e-13)
(-3.1603e-11 -2.22297e-12 -5.92503e-13)
(1.92243e-10 1.10191e-09 -7.47181e-12)
(1.89666e-11 1.02997e-11 -1.51177e-12)
(1.84394e-11 9.92198e-12 -1.94222e-12)
(3.76317e-11 -3.16731e-11 -6.37843e-13)
(-3.01478e-11 -2.86159e-12 -9.01357e-13)
(1.74042e-10 1.058e-09 -7.14143e-12)
(1.73323e-11 9.47565e-12 -2.97835e-12)
(1.47871e-11 9.45122e-12 -3.16231e-12)
(3.00293e-11 -2.64314e-11 1.30189e-12)
(-3.1824e-11 -5.44573e-12 -3.02651e-12)
(1.30392e-10 9.45497e-10 1.36695e-10)
(3.03018e-12 5.76872e-12 -1.12044e-11)
(-1.99963e-06 -9.56256e-07 -9.86002e-07)
(-4.42467e-06 -2.01655e-06 -3.70877e-06)
(-7.89806e-07 1.81192e-07 -1.33325e-06)
(-2.13856e-06 -1.35627e-06 2.02191e-06)
(-1.07014e-05 -6.26272e-06 -5.5115e-06)
(-1.44813e-05 -9.20961e-06 -2.45185e-06)
(-1.89047e-05 -1.17433e-05 -6.76967e-06)
(-1.4549e-05 -9.71529e-06 4.88557e-06)
(-2.83546e-05 -1.78437e-05 -7.5377e-06)
(-3.33186e-05 -2.11791e-05 -3.09748e-06)
(-3.84581e-05 -2.41609e-05 -7.90458e-06)
(-3.33369e-05 -2.15344e-05 6.14069e-06)
(-4.87594e-05 -3.0497e-05 -7.99994e-06)
(-5.38917e-05 -3.37807e-05 -3.21447e-06)
(-5.38856e-05 -3.40271e-05 6.35504e-06)
(1.21489e-12 3.24402e-12 2.68574e-12)
(-4.94253e-10 1.08519e-10 -2.21003e-10)
(-8.5741e-12 2.47579e-12 5.45963e-13)
(3.6623e-12 1.01138e-12 -2.18892e-13)
(-3.74832e-12 -1.46149e-11 -3.38563e-12)
(2.25526e-10 1.10336e-09 3.0019e-11)
(4.19129e-11 -3.38057e-11 1.07552e-11)
(-3.03029e-11 2.03013e-12 1.07253e-12)
(2.13657e-11 4.34273e-12 -1.21998e-11)
(-3.42349e-12 4.59557e-14 -4.35206e-12)
(9.31373e-12 -7.21877e-13 -2.61066e-15)
(-4.18923e-12 -5.91127e-13 1.40425e-12)
(4.35304e-13 -1.57555e-13 2.66251e-12)
(1.01705e-11 -7.6553e-14 -3.34106e-13)
(1.00998e-11 4.54378e-14 -3.37201e-13)
(-5.12192e-12 2.78448e-13 1.19082e-12)
(2.53565e-13 4.19555e-15 2.49413e-12)
(1.04454e-11 -1.57343e-12 -1.21095e-12)
(-2.85287e-12 -1.31815e-09 -3.146e-10)
(-5.04735e-07 -2.84918e-07 2.6296e-07)
(1.36318e-08 -8.11677e-10 7.42067e-09)
(5.09045e-09 -3.70809e-09 -6.62478e-09)
(2.0249e-10 1.12014e-09 -8.41684e-12)
(3.93424e-11 -3.27701e-11 -2.78135e-13)
(-3.20539e-11 -1.71968e-12 -6.70842e-13)
(-4.18588e-06 -2.65876e-06 7.36863e-07)
(-7.09946e-06 -4.30597e-06 -1.83146e-06)
(-7.19807e-06 -4.81092e-06 3.67385e-06)
(-1.05248e-05 -6.88964e-06 1.08615e-06)
(1.84086e-10 1.08352e-09 -7.4308e-12)
(3.83614e-11 -3.21354e-11 -4.455e-13)
(-3.11718e-11 -2.60042e-12 -5.68214e-13)
(-1.87867e-05 -1.22796e-05 1.32957e-06)
(-2.34363e-05 -1.49967e-05 -2.86416e-06)
(-2.34769e-05 -1.54391e-05 5.68893e-06)
(-2.82869e-05 -1.82654e-05 1.47872e-06)
(1.52439e-10 1.01619e-09 1.02057e-11)
(3.60809e-11 -3.06965e-11 -7.37758e-13)
(-2.94066e-11 -3.85164e-12 -1.45619e-12)
(-3.84283e-05 -2.44829e-05 1.55087e-06)
(-4.35936e-05 -2.74761e-05 -3.19563e-06)
(-4.35969e-05 -2.77575e-05 6.32646e-06)
(-4.87526e-05 -3.07617e-05 1.57143e-06)
(1.60979e-10 8.62091e-10 1.18836e-10)
(-6.8737e-07 -3.95895e-07 1.02521e-06)
(2.10394e-10 1.13269e-09 -4.23569e-12)
(-1.0633e-05 -7.12492e-06 4.33324e-06)
(1.8811e-10 1.09325e-09 -7.03408e-12)
(-2.83268e-05 -1.84602e-05 5.95411e-06)
(1.64981e-10 1.03999e-09 -3.22705e-12)
(-4.87538e-05 -3.08883e-05 6.35433e-06)
(1.8623e-10 7.75781e-10 2.91958e-10)
(2.39156e-10 1.17904e-09 1.64465e-11)
(-5.34916e-07 -1.03895e-07 -4.73755e-07)
(-4.21872e-06 -2.38973e-06 -1.43766e-06)
(-4.33558e-06 -2.85759e-06 2.90421e-06)
(1.97169e-10 1.11141e-09 -6.86613e-12)
(-1.05504e-05 -6.60902e-06 -2.16895e-06)
(-1.88045e-05 -1.20281e-05 -2.68253e-06)
(-1.88582e-05 -1.25076e-05 5.33539e-06)
(1.79991e-10 1.07219e-09 -7.57616e-12)
(-2.82981e-05 -1.80608e-05 -3.00081e-06)
(-3.84347e-05 -2.43233e-05 -3.16012e-06)
(-3.84444e-05 -2.46379e-05 6.26028e-06)
(1.37908e-10 9.87947e-10 4.76299e-11)
(-4.8756e-05 -3.06302e-05 -3.21154e-06)
(5.40927e-12 1.33177e-11 -1.37523e-11)
(1.02244e-11 6.9473e-12 -9.71585e-13)
(1.18554e-13 -5.28142e-13 2.75823e-12)
(2.73609e-13 -2.62607e-14 2.48417e-12)
(-2.398e-11 1.69177e-10 5.01202e-11)
(1.1001e-12 4.1789e-12 -2.8193e-12)
(3.50512e-12 -9.2579e-13 7.9225e-13)
(-4.72662e-12 -3.55876e-13 1.35663e-12)
(-1.87043e-12 -1.84842e-12 1.43269e-12)
(-4.53801e-12 -6.10878e-13 -5.20939e-13)
(-5.1042e-12 1.0866e-13 1.30143e-12)
(-3.1225e-10 -2.08359e-09 -9.48157e-10)
(-2.09059e-13 2.25541e-12 2.03962e-12)
(-1.11196e-11 6.23497e-12 4.5568e-13)
(3.08575e-13 -7.42834e-14 2.52614e-12)
(2.73705e-13 1.13909e-13 2.55036e-12)
(-4.23432e-13 1.28887e-11 2.04315e-11)
(-3.24627e-11 -1.3694e-12 -9.44956e-13)
(-3.14305e-11 -2.43256e-12 -5.78574e-13)
(-2.97414e-11 -3.23523e-12 -1.17074e-12)
(-2.10314e-11 2.31059e-13 -4.38089e-12)
(4.19663e-11 -1.84432e-11 3.06127e-12)
(4.16859e-11 -3.40355e-11 -1.19409e-12)
(3.97758e-11 -3.30673e-11 -1.11208e-12)
(3.91356e-11 -3.26494e-11 -5.49003e-13)
(3.86332e-11 -3.23187e-11 -4.35822e-13)
(3.80553e-11 -3.19458e-11 -5.30948e-13)
(3.70356e-11 -3.12811e-11 -7.46246e-13)
(3.43538e-11 -2.96952e-11 -3.82449e-13)
(1.17921e-11 -8.99501e-12 4.96816e-12)
(-3.29611e-11 -5.68236e-13 -1.52856e-12)
(-3.18419e-11 -1.9795e-12 -6.32695e-13)
(-3.06415e-11 -2.68489e-12 -5.86042e-13)
(-2.98807e-11 -4.83203e-12 -1.78397e-12)
(1.58341e-10 -2.04553e-11 7.07564e-11)
(6.53786e-11 1.58584e-10 1.37996e-10)
(1.20549e-10 4.10741e-10 -5.41849e-12)
(9.63706e-11 3.93258e-10 -5.47578e-12)
(7.90592e-11 3.72485e-10 -5.88996e-12)
(4.1418e-11 3.35368e-10 7.47773e-11)
(1.41449e-10 1.65652e-10 1.05884e-10)
(3.64436e-10 4.99548e-10 9.55471e-13)
(-4.09437e-12 9.26658e-12 -4.70375e-11)
(1.27536e-10 4.27956e-10 -1.88566e-12)
(3.46462e-10 4.90201e-10 -5.78812e-12)
(3.35683e-10 4.7505e-10 -5.91776e-12)
(1.00398e-10 3.97573e-10 -5.54109e-12)
(3.3182e-10 4.70602e-10 -5.90367e-12)
(3.21515e-10 4.56047e-10 -6.87385e-12)
(8.56061e-11 3.79382e-10 -6.21665e-12)
(3.16065e-10 4.48825e-10 -6.47461e-12)
(2.97209e-10 4.10602e-10 5.19397e-11)
(3.81258e-11 3.47471e-10 3.29368e-11)
(2.98567e-10 3.64165e-10 1.59964e-10)
(4.20963e-11 -6.5231e-13 5.51056e-12)
(-1.26472e-10 2.00397e-10 -5.77158e-11)
(4.36128e-11 8.83268e-12 1.76729e-10)
(3.60178e-11 1.19837e-10 3.14775e-10)
(1.74362e-10 4.11558e-10 5.98618e-11)
(1.74591e-11 2.18688e-11 3.05477e-10)
(1.10861e-10 4.07307e-10 -5.85238e-12)
(9.26284e-11 3.89351e-10 -5.55053e-12)
(6.87883e-11 3.63902e-10 -2.45955e-12)
(1.35464e-10 2.31381e-10 1.64648e-10)
(6.3963e-11 1.7465e-11 -3.15375e-11)
(-2.24563e-12 1.33652e-10 3.05296e-10)
(3.30541e-10 4.69612e-10 7.19882e-11)
(-3.15156e-11 3.23715e-11 5.94264e-11)
(-2.31985e-10 1.58027e-10 -1.11863e-10)
(1.06382e-12 3.45814e-11 1.93227e-10)
(-4.09496e-11 1.54033e-11 1.47142e-10)
(3.45499e-10 5.018e-10 2.3071e-11)
(-2.21478e-12 2.48139e-12 9.02803e-11)
(1.82681e-11 2.3212e-11 1.65261e-10)
(1.01568e-11 8.97002e-11 1.5164e-10)
(1.763e-12 3.50069e-11 8.41668e-11)
(8.15588e-11 2.50033e-11 7.64191e-11)
(1.5342e-10 4.25011e-10 1.44046e-11)
(3.45017e-10 4.84656e-10 -6.37479e-12)
(3.3861e-10 4.79119e-10 -6.40592e-12)
(1.05484e-10 4.01181e-10 -5.74682e-12)
(3.28756e-10 4.66521e-10 -5.93642e-12)
(3.25378e-10 4.61687e-10 -6.41478e-12)
(8.93765e-11 3.84754e-10 -5.80072e-12)
(3.09052e-10 4.39434e-10 -2.39865e-12)
(3.01772e-10 4.27388e-10 1.18945e-11)
(5.40807e-11 3.54494e-10 8.43837e-12)
(3.73368e-10 1.40534e-10 4.95246e-10)
(-1.60704e-11 -3.18172e-11 -1.05176e-11)
(-1.85855e-11 -3.80357e-11 -2.32655e-11)
(1.81881e-12 -8.77453e-13 1.32357e-11)
(7.96391e-12 2.19524e-11 5.8943e-11)
(9.09406e-13 -1.07985e-12 3.49269e-12)
(-6.57517e-13 3.37652e-12 1.43729e-12)
(-8.39899e-13 -1.13596e-12 -3.47538e-13)
(-1.10351e-12 -5.08954e-13 -3.3335e-12)
(-7.29569e-12 -1.43595e-12 1.92836e-12)
(-4.68789e-12 -2.21137e-13 6.72161e-13)
(-4.25631e-12 -3.39083e-13 -1.13567e-12)
(-4.86674e-12 -1.85756e-13 -1.80144e-12)
(-6.5288e-12 -1.96072e-13 1.23274e-12)
(-5.13466e-12 -6.31199e-14 8.84562e-13)
(-4.91563e-12 -7.27366e-14 -1.80411e-12)
(-4.19314e-12 -1.04208e-12 -3.13224e-12)
(-8.21999e-12 1.86644e-13 -1.83375e-11)
(-5.15092e-12 1.46998e-12 1.14185e-12)
(-2.60064e-12 -1.00176e-11 -1.93749e-11)
(2.30619e-11 1.19299e-11 -2.05177e-12)
(8.93638e-11 6.82369e-12 -1.23666e-12)
(-4.26951e-11 4.91272e-12 -3.34723e-12)
(1.86725e-10 5.55683e-10 -5.83882e-12)
(2.03671e-11 1.07505e-11 -2.47384e-12)
(1.94922e-11 1.06332e-11 -1.54897e-12)
(8.62556e-11 6.2894e-12 -1.26609e-12)
(-4.30156e-11 3.90982e-12 -1.59596e-12)
(1.6568e-10 5.31482e-10 -6.26184e-12)
(1.90927e-11 1.03623e-11 -1.52791e-12)
(1.82737e-11 9.82031e-12 -2.17316e-12)
(8.33466e-11 5.82763e-12 -1.99195e-12)
(-4.214e-11 3.08909e-12 -2.45069e-12)
(1.52355e-10 5.08905e-10 -7.35963e-12)
(1.77135e-11 9.58892e-12 -2.72964e-12)
(1.38049e-11 9.98028e-12 -3.65536e-12)
(7.06965e-11 1.03122e-11 -2.2535e-12)
(-4.36874e-11 4.41673e-12 -4.95766e-12)
(1.22827e-10 4.57372e-10 7.03369e-11)
(8.07668e-12 1.69774e-11 -1.55881e-11)
(-2.09389e-06 -7.93822e-07 -1.78013e-06)
(-3.24089e-06 -1.23757e-06 -3.16905e-06)
(-1.41532e-06 -1.19033e-07 -1.98112e-06)
(-2.29988e-06 -1.44507e-06 2.81963e-06)
(-1.25993e-05 -7.54452e-06 -5.87549e-06)
(-1.45319e-05 -9.0557e-06 -4.33653e-06)
(-1.67116e-05 -1.02945e-05 -6.50375e-06)
(-1.46347e-05 -9.83932e-06 6.77704e-06)
(-3.08398e-05 -1.94136e-05 -7.6627e-06)
(-3.33348e-05 -2.10851e-05 -5.45043e-06)
(-3.58988e-05 -2.25752e-05 -7.84414e-06)
(-3.33632e-05 -2.16231e-05 8.50974e-06)
(-5.13417e-05 -3.2083e-05 -8.0022e-06)
(-5.38955e-05 -3.37163e-05 -5.64063e-06)
(-5.38837e-05 -3.40867e-05 8.91088e-06)
(-4.84616e-12 2.76833e-14 3.52746e-13)
(-4.14603e-12 -1.99943e-12 1.89867e-12)
(-7.99012e-13 2.11962e-12 6.7113e-13)
(1.37633e-12 3.76468e-12 -1.13119e-11)
(9.26534e-13 -3.20773e-12 -1.58265e-11)
(-4.52166e-13 -2.47997e-13 -8.40185e-12)
(-6.61742e-12 1.15719e-11 1.6709e-12)
(6.32764e-13 -1.62004e-11 3.3633e-11)
(3.67752e-13 -3.52122e-11 1.65068e-11)
(-6.41819e-12 6.92484e-12 -1.28812e-11)
(8.72166e-12 3.55335e-12 2.41372e-10)
(-8.42501e-14 -2.07479e-12 -1.58214e-12)
(2.17364e-12 -9.97292e-12 -2.59146e-12)
(3.09933e-11 1.27413e-11 3.46403e-11)
(2.3265e-11 9.91651e-12 6.85723e-12)
(1.99333e-10 5.43074e-10 4.26887e-11)
(9.01258e-11 8.63286e-12 1.4906e-11)
(-3.17992e-11 7.17327e-12 7.35112e-12)
(-6.58515e-12 1.67821e-13 -5.86054e-12)
(5.11532e-13 -2.51311e-12 4.68402e-12)
(2.28362e-12 9.76409e-13 2.5156e-12)
(9.26509e-12 -2.74627e-12 9.87598e-14)
(1.07414e-12 -6.0846e-14 5.7668e-13)
(-4.43931e-12 -9.01877e-13 -1.93105e-12)
(-4.81599e-12 -2.72063e-13 -1.79533e-12)
(-6.38961e-12 -5.45889e-13 1.32937e-12)
(-5.25694e-12 -1.55536e-13 9.32269e-13)
(-1.31805e-13 -7.75032e-16 -2.8952e-12)
(1.2321e-12 -1.07975e-13 3.62029e-12)
(1.01524e-11 -6.34949e-14 -3.35602e-13)
(1.00839e-11 9.92558e-15 -3.27345e-13)
(-5.10575e-14 1.77198e-15 1.88345e-14)
(-4.9766e-12 4.96078e-14 -1.83326e-12)
(-4.99038e-12 1.23095e-13 -1.9599e-12)
(-6.75621e-12 2.67882e-13 1.14055e-12)
(-5.21422e-12 3.87553e-14 8.81721e-13)
(-3.06996e-12 5.3522e-12 -1.23086e-11)
(2.20438e-11 -1.75069e-11 -3.04806e-11)
(1.05209e-11 -7.54487e-12 -3.84781e-12)
(4.70694e-12 -1.99883e-10 -5.42944e-11)
(-2.72467e-14 -1.05201e-13 -2.98894e-13)
(3.39602e-10 2.11407e-09 -9.25884e-10)
(-9.96499e-08 -5.70734e-08 1.238e-07)
(1.33199e-08 4.21751e-09 1.65419e-09)
(7.51038e-09 6.96999e-09 2.20604e-09)
(2.04499e-11 1.11672e-11 -1.95028e-12)
(1.97341e-11 1.07005e-11 -1.71027e-12)
(1.73377e-10 5.41293e-10 -6.94036e-12)
(8.75116e-11 6.59839e-12 -1.44484e-12)
(-4.29935e-11 4.38295e-12 -2.00232e-12)
(-5.55086e-06 -3.57082e-06 8.34758e-07)
(-7.06685e-06 -4.45696e-06 -4.45921e-07)
(-7.1177e-06 -4.70617e-06 2.30217e-06)
(-8.73177e-06 -5.69747e-06 1.00917e-06)
(1.87927e-11 1.02115e-11 -1.5807e-12)
(1.85255e-11 1.00029e-11 -1.78737e-12)
(1.59596e-10 5.2187e-10 -6.48513e-12)
(8.50073e-11 6.04187e-12 -1.39642e-12)
(-4.28629e-11 3.4948e-12 -1.62403e-12)
(-2.10708e-05 -1.3738e-05 1.37515e-06)
(-2.34213e-05 -1.51139e-05 -7.18969e-07)
(-2.34421e-05 -1.53346e-05 3.55895e-06)
(-2.58303e-05 -1.67366e-05 1.44946e-06)
(1.68406e-11 9.3704e-12 -3.16204e-12)
(1.55719e-11 9.28405e-12 -3.20087e-12)
(1.37062e-10 4.8834e-10 1.54954e-12)
(8.02055e-11 5.86134e-12 -2.52853e-12)
(-4.22937e-11 2.31223e-12 -3.47455e-12)
(-4.10062e-05 -2.60499e-05 1.55965e-06)
(-4.35899e-05 -2.75479e-05 -8.12618e-07)
(-4.35915e-05 -2.76891e-05 3.95604e-06)
(-4.6172e-05 -2.91894e-05 1.5694e-06)
(8.15372e-13 5.38882e-12 7.89722e-12)
(-1.95812e-06 -1.08929e-06 -2.27151e-07)
(-2.03043e-06 -1.28539e-06 1.26714e-06)
(-1.13271e-06 -6.66043e-07 3.94911e-07)
(-2.98658e-06 -1.86295e-06 6.31339e-07)
(-5.77407e-06 -2.92171e-06 -4.21246e-06)
(-8.92382e-06 -5.05722e-06 -5.11337e-06)
(-7.17125e-06 -4.13285e-06 -3.25628e-06)
(-7.32031e-06 -4.93105e-06 5.09973e-06)
(-1.44579e-05 -9.3503e-06 -6.09154e-07)
(-1.44928e-05 -9.60144e-06 3.05803e-06)
(-1.24378e-05 -8.15354e-06 1.15653e-06)
(-1.65795e-05 -1.08574e-05 1.27807e-06)
(-2.11754e-05 -1.32298e-05 -7.0048e-06)
(-2.59096e-05 -1.62862e-05 -7.38742e-06)
(-2.34679e-05 -1.4873e-05 -5.05108e-06)
(-2.35298e-05 -1.55494e-05 7.8876e-06)
(-3.33103e-05 -2.12705e-05 -7.83038e-07)
(-3.33196e-05 -2.14483e-05 3.84042e-06)
(-3.07828e-05 -1.98078e-05 1.50314e-06)
(-3.58608e-05 -2.2919e-05 1.53882e-06)
(-4.10289e-05 -2.5747e-05 -7.94778e-06)
(-4.61837e-05 -2.89157e-05 -7.99258e-06)
(-4.35993e-05 -2.74032e-05 -5.61126e-06)
(-4.36051e-05 -2.78264e-05 8.76193e-06)
(-5.38878e-05 -3.3844e-05 -8.18358e-07)
(-5.38844e-05 -3.39677e-05 3.97866e-06)
(-5.13509e-05 -3.23501e-05 1.5723e-06)
(-1.90447e-10 6.02156e-11 2.4162e-11)
(-9.10337e-13 7.61947e-12 3.94834e-12)
(-5.47598e-11 -5.84617e-12 1.32485e-11)
(2.88304e-12 4.92048e-12 3.87784e-12)
(9.13468e-12 1.04878e-11 -1.62438e-12)
(9.83276e-12 -2.40572e-13 -1.49761e-13)
(-2.4305e-13 1.04194e-14 -3.0425e-12)
(1.7031e-12 -2.0097e-13 3.57952e-12)
(1.01397e-11 -8.81244e-14 -3.03841e-13)
(1.01515e-11 6.37358e-14 -3.43637e-13)
(-1.83198e-13 1.65175e-14 -2.97604e-12)
(1.27703e-12 1.86306e-13 3.51525e-12)
(1.03187e-11 -2.51188e-13 -5.55672e-13)
(-3.2909e-07 2.5546e-07 -6.24746e-07)
(-7.93954e-09 -4.35876e-09 -9.91541e-09)
(5.39886e-10 -9.98969e-09 -3.28629e-12)
(1.59565e-11 1.05258e-11 1.06848e-10)
(-6.75373e-12 -9.55643e-12 -1.03232e-12)
(-4.98367e-12 -1.15921e-11 -1.48732e-12)
(-4.0205e-12 -2.74257e-12 3.62216e-12)
(8.06961e-13 -5.00543e-12 4.55919e-13)
(1.17558e-13 7.39193e-15 -7.2703e-15)
(-1.43146e-13 -2.05546e-16 -1.1136e-14)
(-5.86796e-10 -1.54661e-08 -6.78067e-09)
(1.94691e-10 -1.08237e-10 3.40112e-11)
(3.45137e-10 7.1988e-10 6.98886e-11)
(1.35301e-10 1.5105e-10 7.00174e-11)
(2.96564e-10 2.95798e-10 5.70852e-11)
(2.94121e-10 7.96116e-10 -2.95727e-12)
(1.94396e-10 2.39039e-10 -3.46779e-12)
(2.6243e-10 7.62607e-10 -5.47115e-12)
(1.63592e-10 2.24315e-10 -3.76442e-12)
(2.29252e-10 7.18548e-10 -2.47912e-13)
(1.33103e-10 2.07701e-10 -1.73025e-12)
(2.20166e-10 5.91845e-10 2.16067e-10)
(8.20349e-11 1.68422e-10 6.52715e-11)
(6.54054e-11 8.7238e-10 9.21385e-11)
(2.76809e-11 1.09925e-10 5.20222e-11)
(3.87863e-10 1.48133e-10 7.36977e-11)
(2.0622e-10 1.05951e-09 1.37124e-11)
(5.26317e-10 2.02795e-10 4.89574e-12)
(2.8977e-12 1.96849e-11 3.44147e-11)
(3.30909e-10 8.47229e-10 1.10168e-11)
(2.21339e-10 2.51995e-10 2.87303e-12)
(1.86733e-10 1.02988e-09 -5.82516e-12)
(5.16867e-10 1.93448e-10 -6.92466e-12)
(1.77433e-10 1.01021e-09 -7.00172e-12)
(5.07991e-10 1.87437e-10 -5.61476e-12)
(2.75208e-10 7.77577e-10 -5.30044e-12)
(1.76348e-10 2.30807e-10 -3.734e-12)
(1.70814e-10 9.93617e-10 -6.79276e-12)
(5.00394e-10 1.82699e-10 -5.07792e-12)
(1.65143e-10 9.74683e-10 -7.23758e-12)
(4.92786e-10 1.77305e-10 -5.65927e-12)
(2.5084e-10 7.45413e-10 -5.47914e-12)
(1.53508e-10 2.17663e-10 -3.80036e-12)
(1.55526e-10 9.45124e-10 -2.71795e-12)
(4.81302e-10 1.68911e-10 -3.97229e-12)
(1.45217e-10 8.90314e-10 5.36306e-11)
(4.70128e-10 1.53447e-10 2.91895e-11)
(1.84924e-10 6.81035e-10 4.25806e-11)
(8.58681e-11 1.94612e-10 1.60544e-11)
(2.09671e-10 6.13282e-10 4.29231e-10)
(4.74335e-10 7.19147e-11 3.76159e-10)
(3.73625e-12 -2.00422e-13 -3.42701e-12)
(1.639e-11 -6.21688e-12 1.87954e-12)
(3.33478e-10 -9.49489e-11 1.72223e-10)
(-5.36462e-13 -7.62993e-12 -2.21074e-11)
(1.00427e-11 3.16128e-12 7.96818e-13)
(3.09918e-11 -1.58088e-11 9.1568e-12)
(-4.82556e-12 -6.09894e-13 1.21987e-11)
(1.05312e-11 2.00023e-11 2.90003e-11)
(7.38813e-11 2.50424e-10 2.43507e-10)
(-5.05477e-12 -9.30157e-12 7.09851e-12)
(8.13853e-12 -6.37453e-12 7.86541e-12)
(1.56205e-10 4.05236e-10 1.14188e-10)
(1.35321e-11 3.09703e-11 5.63979e-11)
(7.19523e-11 2.95677e-11 4.49263e-11)
(-8.60493e-12 4.41247e-12 -3.02891e-13)
(2.30719e-13 1.89037e-12 -2.94875e-11)
(1.8774e-11 3.27418e-11 -2.0038e-11)
(-3.08419e-12 2.02916e-12 6.75801e-13)
(3.70976e-13 -2.59534e-12 -7.01384e-12)
(-4.35851e-12 -1.30567e-12 -3.18733e-13)
(-4.48274e-12 3.13966e-12 1.95913e-12)
(-3.28671e-12 -3.71453e-12 1.35717e-12)
(-3.46907e-13 5.27903e-14 1.89476e-12)
(1.36795e-12 -1.07102e-12 3.90713e-12)
(-4.9025e-12 -1.05834e-12 9.02268e-13)
(-5.50942e-12 -2.84615e-12 1.83087e-12)
(-6.43186e-12 -3.94525e-13 1.27128e-12)
(-5.1672e-12 -1.05047e-13 8.9417e-13)
(-4.85149e-12 -2.92135e-13 1.35089e-12)
(-5.01368e-12 -4.17879e-14 1.32697e-12)
(3.02555e-13 -3.37671e-14 2.52914e-12)
(3.1373e-13 -5.2199e-14 2.54554e-12)
(-5.14839e-12 -2.01031e-14 8.81417e-13)
(-6.63998e-12 4.46672e-14 1.21447e-12)
(-6.6884e-12 1.58448e-13 6.593e-14)
(-5.3252e-12 1.78613e-13 8.37381e-13)
(-3.54407e-12 -1.84506e-12 -5.9769e-12)
(-5.347e-11 -1.4025e-11 -1.47407e-10)
(-2.89702e-12 9.84504e-12 6.02791e-12)
(3.22671e-13 2.38763e-13 2.64476e-12)
(-5.62387e-12 1.65487e-10 7.69529e-11)
(3.8185e-11 -8.75291e-10 -5.79519e-10)
(1.97048e-10 5.67211e-10 8.22814e-12)
(9.23311e-11 5.90133e-12 3.67007e-13)
(-4.16534e-11 6.6377e-12 -7.45736e-13)
(5.2408e-10 1.99679e-10 1.14298e-12)
(4.10589e-11 -3.43976e-11 -1.00847e-13)
(3.96906e-11 -3.27839e-11 -7.65704e-13)
(2.06633e-10 2.46094e-10 -3.75918e-13)
(-3.24756e-11 -1.12155e-12 -9.81004e-13)
(-3.29054e-11 -1.25596e-12 -9.40338e-13)
(3.09236e-10 8.0716e-10 -2.09119e-12)
(2.13311e-10 1.12838e-09 -3.60003e-12)
(2.32265e-10 1.18081e-09 -2.76191e-12)
(1.92467e-10 1.04715e-09 -2.83185e-12)
(1.78752e-10 5.47106e-10 -6.21191e-12)
(-4.29338e-11 4.76421e-12 -2.08585e-12)
(8.85352e-11 6.53734e-12 -1.92776e-12)
(1.69269e-10 5.36201e-10 -6.26262e-12)
(8.69925e-11 6.36811e-12 -1.34748e-12)
(-4.30095e-11 4.17248e-12 -1.60254e-12)
(5.03762e-10 1.85478e-10 -4.92651e-12)
(3.89818e-11 -3.25278e-11 -3.84477e-13)
(3.871e-11 -3.23324e-11 -4.35369e-13)
(1.69632e-10 2.27536e-10 -3.71659e-12)
(-3.14336e-11 -2.32395e-12 -5.91252e-13)
(-3.16174e-11 -2.10425e-12 -6.05562e-13)
(2.68453e-10 7.69712e-10 -5.58962e-12)
(1.90209e-10 1.09692e-09 -7.09787e-12)
(1.94716e-10 1.10749e-09 -7.45124e-12)
(1.73577e-10 1.002e-09 -7.09003e-12)
(1.62563e-10 5.26827e-10 -6.1364e-12)
(-4.29881e-11 3.7032e-12 -1.53021e-12)
(8.56981e-11 6.13607e-12 -1.2664e-12)
(1.56619e-10 5.16056e-10 -6.97698e-12)
(8.43096e-11 5.91647e-12 -1.62061e-12)
(-4.24562e-11 3.32717e-12 -1.84223e-12)
(4.87745e-10 1.73715e-10 -5.7665e-12)
(3.7818e-11 -3.17762e-11 -5.57336e-13)
(3.73142e-11 -3.14529e-11 -6.74951e-13)
(1.46043e-10 2.13373e-10 -3.63724e-12)
(-2.9881e-11 -3.02262e-12 -1.04146e-12)
(-3.02659e-11 -2.74007e-12 -7.3985e-13)
(2.42411e-10 7.33771e-10 -4.49775e-12)
(1.70035e-10 1.04913e-09 -5.928e-12)
(1.77412e-10 1.06542e-09 -7.59275e-12)
(1.61143e-10 9.62074e-10 -6.74817e-12)
(1.45869e-10 4.99632e-10 -5.82873e-12)
(-4.20652e-11 2.74167e-12 -3.0661e-12)
(8.20205e-11 5.78855e-12 -2.3738e-12)
(1.27326e-10 4.75611e-10 2.28561e-11)
(7.75659e-11 6.42923e-12 -2.20348e-12)
(-4.32163e-11 2.01652e-12 -3.41296e-12)
(4.72906e-10 1.37389e-10 1.05633e-10)
(3.27983e-11 -2.86713e-11 3.24415e-13)
(2.57012e-11 -2.10477e-11 4.0308e-12)
(5.91891e-11 1.90386e-10 3.37271e-11)
(-3.26706e-11 -4.66281e-12 -4.59441e-12)
(-3.08059e-11 -5.34874e-12 -2.19564e-12)
(1.66259e-10 6.66816e-10 1.07377e-10)
(1.41922e-10 8.93285e-10 2.06909e-10)
(1.3198e-10 9.70418e-10 8.34755e-11)
(1.52203e-10 8.30331e-10 1.67473e-10)
(1.52941e-10 3.67606e-10 1.80494e-10)
(-1.91652e-11 3.53818e-12 -8.74112e-12)
(2.71966e-11 8.97233e-12 -4.42043e-12)
(-1.16709e-06 -4.51526e-07 -7.37963e-07)
(-3.02071e-06 -1.60647e-06 -1.21918e-06)
(-4.30158e-06 -2.21623e-06 -2.56919e-06)
(-6.32546e-07 2.34233e-08 -8.8088e-07)
(-1.31662e-06 -8.03777e-07 1.5377e-06)
(-3.14815e-06 -2.04458e-06 2.4773e-06)
(-4.47709e-06 -2.96634e-06 4.03492e-06)
(-8.611e-07 -4.49747e-07 1.46227e-06)
(-1.06114e-05 -6.44325e-06 -3.84435e-06)
(-1.24614e-05 -7.87736e-06 -2.3171e-06)
(-1.65992e-05 -1.05962e-05 -2.57354e-06)
(-1.88453e-05 -1.18887e-05 -4.73694e-06)
(-1.07366e-05 -7.24977e-06 6.01263e-06)
(-1.25365e-05 -8.39047e-06 4.62253e-06)
(-1.66598e-05 -1.10904e-05 5.12294e-06)
(-1.89269e-05 -1.26264e-05 7.39917e-06)
(-2.83215e-05 -1.79526e-05 -5.28601e-06)
(-3.07927e-05 -1.96152e-05 -3.05379e-06)
(-3.58683e-05 -2.27493e-05 -3.13264e-06)
(-3.8445e-05 -2.42413e-05 -5.55476e-06)
(-2.83655e-05 -1.85601e-05 8.25329e-06)
(-3.0816e-05 -1.99924e-05 6.05654e-06)
(-3.5882e-05 -2.30835e-05 6.20805e-06)
(-3.84604e-05 -2.47159e-05 8.67306e-06)
(-4.87583e-05 -3.05628e-05 -5.63414e-06)
(-5.13528e-05 -3.22209e-05 -3.21446e-06)
(-4.87565e-05 -3.09507e-05 8.79762e-06)
(-5.13428e-05 -3.24685e-05 6.35882e-06)
(5.83913e-12 3.75082e-11 8.54348e-12)
(3.74361e-12 2.99274e-12 -1.29685e-12)
(4.2073e-12 4.26272e-12 -1.80276e-12)
(6.76422e-11 4.53984e-11 3.77566e-12)
(-5.50991e-11 3.40616e-11 -6.70009e-11)
(9.06158e-12 9.21835e-12 2.76287e-10)
(7.91835e-12 8.33294e-12 5.36366e-12)
(-1.4638e-11 4.81059e-12 1.28967e-12)
(-1.68969e-11 2.74131e-11 1.59501e-10)
(4.28693e-12 6.59058e-12 -1.71248e-12)
(5.95353e-12 5.54655e-12 3.88355e-12)
(6.85066e-12 3.56377e-11 1.79564e-10)
(3.90603e-12 5.59231e-12 7.14896e-12)
(-2.12654e-12 -5.42173e-12 1.17626e-12)
(2.07294e-10 1.06378e-09 6.08407e-11)
(3.50982e-10 8.06192e-10 2.27761e-11)
(1.67634e-10 1.05444e-09 3.72646e-11)
(2.34862e-10 1.12603e-09 2.82023e-11)
(5.34249e-10 2.04169e-10 6.23301e-11)
(4.25764e-11 -3.1956e-11 2.16144e-12)
(4.14659e-11 -3.24317e-11 2.09275e-12)
(2.61958e-10 2.70247e-10 2.08815e-11)
(-2.77028e-11 4.00454e-12 4.71043e-12)
(-3.19683e-11 8.1429e-13 -9.05849e-13)
(3.64346e-11 -4.19333e-12 -2.02116e-11)
(-9.16756e-12 3.53003e-12 2.21914e-12)
(-3.86395e-11 5.10992e-12 -1.40919e-11)
(-1.91428e-12 8.09067e-12 -2.04717e-12)
(-7.10831e-13 5.27002e-14 -3.46802e-12)
(2.43317e-12 -1.15209e-12 3.06658e-12)
(2.44218e-12 1.58693e-13 -5.53652e-14)
(1.57958e-13 2.81441e-14 -3.92238e-13)
(-4.4728e-12 -4.20812e-13 1.39951e-12)
(-3.62433e-12 -1.23096e-12 1.43933e-12)
(6.81681e-13 -4.65753e-13 3.00062e-12)
(3.51481e-13 -7.94505e-14 2.59988e-12)
(-1.2257e-13 3.55805e-15 -2.9414e-12)
(1.39644e-12 -1.85844e-13 3.65334e-12)
(-1.83626e-13 5.75533e-16 -2.91337e-12)
(1.1705e-12 1.26611e-13 3.60927e-12)
(1.0293e-14 2.31049e-15 8.77334e-15)
(-1.0144e-13 5.44973e-16 1.20264e-14)
(-4.95142e-12 1.51179e-13 8.54154e-13)
(-5.10789e-12 2.21444e-13 1.30502e-12)
(2.82203e-13 -1.51764e-14 2.5263e-12)
(2.69585e-13 3.09982e-14 2.55314e-12)
(-1.77221e-13 3.5113e-13 -3.45691e-12)
(2.2756e-12 -1.68887e-12 1.67505e-12)
(-3.89926e-11 1.08685e-11 -1.91477e-10)
(7.97134e-11 -1.36513e-09 -7.6546e-10)
(-1.51019e-13 -4.71917e-15 -7.68808e-14)
(1.53984e-11 -2.72953e-11 1.83268e-12)
(-5.74669e-07 -3.52046e-07 6.35762e-07)
(-4.9555e-07 -2.05953e-07 -1.00109e-07)
(-1.13512e-07 7.34951e-08 -1.90784e-07)
(-3.62956e-09 -2.44786e-08 -3.28297e-09)
(-2.44754e-07 -1.34751e-07 4.88192e-07)
(-8.24234e-10 6.63451e-09 4.5575e-10)
(2.06725e-10 1.13042e-09 -7.76589e-12)
(2.83203e-10 7.848e-10 -5.62586e-12)
(1.80804e-10 1.01992e-09 -7.65184e-12)
(1.99588e-10 1.1134e-09 -7.11564e-12)
(5.11998e-10 1.90992e-10 -4.91332e-12)
(3.95774e-11 -3.30122e-11 -4.79441e-13)
(3.91662e-11 -3.26032e-11 -5.28517e-13)
(1.84217e-10 2.34681e-10 -3.48457e-12)
(-3.21502e-11 -1.59439e-12 -7.67671e-13)
(-3.18531e-11 -1.83051e-12 -6.71548e-13)
(-4.18149e-06 -2.53663e-06 -3.43224e-07)
(-4.24197e-06 -2.76657e-06 1.82127e-06)
(-5.58213e-06 -3.29362e-06 -1.64169e-06)
(-8.75933e-06 -5.41492e-06 -2.00715e-06)
(-8.84976e-06 -5.92831e-06 4.01715e-06)
(-5.68946e-06 -3.78358e-06 3.30296e-06)
(-1.0565e-05 -7.0128e-06 2.71356e-06)
(-1.05224e-05 -6.75729e-06 -5.34533e-07)
(1.86117e-10 1.08865e-09 -7.28501e-12)
(2.56772e-10 7.54638e-10 -5.60236e-12)
(1.67858e-10 9.85015e-10 -7.05694e-12)
(1.82214e-10 1.07783e-09 -7.50601e-12)
(4.96612e-10 1.80385e-10 -5.20016e-12)
(3.84603e-11 -3.21861e-11 -4.04393e-13)
(3.81697e-11 -3.20002e-11 -4.85079e-13)
(1.58181e-10 2.21123e-10 -3.8332e-12)
(-3.1226e-11 -2.51922e-12 -5.80493e-13)
(-3.08724e-11 -2.64648e-12 -5.50486e-13)
(-1.87855e-05 -1.2158e-05 -6.7035e-07)
(-1.88131e-05 -1.23966e-05 3.33853e-06)
(-2.10869e-05 -1.34974e-05 -2.77924e-06)
(-2.58431e-05 -1.65197e-05 -2.93781e-06)
(-2.58775e-05 -1.6941e-05 5.832e-06)
(-2.11339e-05 -1.39593e-05 5.52374e-06)
(-2.83014e-05 -1.83643e-05 3.72422e-06)
(-2.82867e-05 -1.81648e-05 -7.56094e-07)
(1.59227e-10 1.02888e-09 1.5715e-12)
(2.1004e-10 6.99805e-10 1.21354e-11)
(1.48974e-10 9.22394e-10 1.16178e-11)
(1.45358e-10 1.00241e-09 2.44728e-11)
(4.7425e-10 1.62486e-10 4.01158e-12)
(3.65754e-11 -3.09744e-11 -7.12666e-13)
(3.53339e-11 -3.02496e-11 -5.32002e-13)
(1.1336e-10 2.00843e-10 3.90189e-12)
(-2.94725e-11 -3.49942e-12 -1.31622e-12)
(-2.9416e-11 -4.29529e-12 -1.60485e-12)
(-3.8429e-05 -2.44036e-05 -8.01325e-07)
(-3.84339e-05 -2.45613e-05 3.91486e-06)
(-4.10117e-05 -2.58993e-05 -3.18081e-06)
(-4.61758e-05 -2.90529e-05 -3.20556e-06)
(-4.61768e-05 -2.93216e-05 6.34419e-06)
(-4.10179e-05 -2.61961e-05 6.29913e-06)
(-4.87519e-05 -3.08257e-05 3.97347e-06)
(-4.87538e-05 -3.06964e-05 -8.18404e-07)
(3.0146e-10 6.07157e-10 3.94013e-10)
(1.71649e-12 1.13885e-11 3.84109e-11)
(-5.83635e-12 2.56847e-12 1.50424e-12)
(8.94319e-11 -3.28512e-11 1.9987e-11)
(2.46265e-10 -2.79066e-10 1.09396e-10)
(8.20116e-11 1.60226e-10 1.3561e-10)
(8.00213e-11 1.27008e-10 1.3717e-10)
(1.37773e-10 2.49757e-10 1.63831e-10)
(1.75996e-10 3.63403e-10 1.04524e-10)
(1.24186e-10 4.17092e-10 -4.73313e-12)
(1.81542e-10 5.48227e-10 -6.24764e-12)
(2.02837e-10 2.43515e-10 -2.80858e-12)
(3.0201e-10 7.93407e-10 -1.39443e-12)
(1.15226e-10 4.09355e-10 -5.56804e-12)
(9.83197e-11 3.95343e-10 -5.53343e-12)
(1.64058e-10 5.2898e-10 -6.16684e-12)
(1.66769e-10 2.25915e-10 -3.7587e-12)
(2.65459e-10 7.65879e-10 -5.46482e-12)
(9.44282e-11 3.91372e-10 -5.46073e-12)
(8.27463e-11 3.76165e-10 -6.27241e-12)
(1.49403e-10 5.04521e-10 -6.99797e-12)
(1.40415e-10 2.10694e-10 -3.00499e-12)
(2.36521e-10 7.26598e-10 -3.02378e-12)
(7.44312e-11 3.68394e-10 -4.75974e-12)
(3.45782e-11 3.44584e-10 5.1307e-11)
(1.29597e-10 4.31926e-10 1.10633e-10)
(5.20219e-11 1.81423e-10 4.51041e-11)
(1.76998e-10 6.50144e-10 1.56449e-10)