/*--------------------------------*- C++ -*----------------------------------*\
| =========                 |                                                 |
| \\      /  F ield         | OpenFOAM: The Open Source CFD Toolbox           |
|  \\    /   O peration     | Version:  2012                                  |
|   \\  /    A nd           | Website:  www.openfoam.com                      |
|    \\/     M anipulation  |                                                 |
\*---------------------------------------------------------------------------*/
FoamFile
{
    version     2.0;
    format      ascii;
    class       volScalarField;
    location    "0.105/solid";
    object      sigmaEq;
}
// * * * * * * * * * * * * * * * * * * * * * * * * * * * * * * * * * * * * * //

dimensions      [1 -1 -2 0 0 0 0];


internalField   nonuniform List<scalar> 
24998
(
299.962
10.7576
265.53
182.481
310.181
830.82
798.813
763.997
687.443
323.11
256.498
1029.33
16.1722
271.705
850.081
263.506
195.916
183.034
194.906
330.575
279.498
455.761
1011.12
976.946
802.626
972.431
939.308
770.15
932.161
848.161
705.712
816.532
39.0518
465.949
207.515
529.192
821.932
245.814
325.593
232.626
199.379
228.293
231.33
181.967
1.33606e+06
1057.45
974666
236496
349077
818.235
705278
991975
282601
236619
788.659
204878
414162
173997
123264
740.59
330.279
44936.7
57739.1
4839.29
65.0043
524.439
986.426
264.446
341.984
440.458
392.669
366.684
224.304
1011.46
179.702
238.034
392.439
184.378
203.408
836.327
345.218
209.47
276.356
228.359
232.118
208.243
273.675
275.996
198.169
273.434
195.323
277.525
776.661
231.824
197.102
742.656
279.51
182.55
1.31362e+06
1309.35
110674
221967
667685
1.28011e+06
1.27928e+06
1.21706e+06
242917
312615
1.33761e+06
1.31552e+06
1.01175e+06
1.29307e+06
200039
218404
992214
1.26113e+06
975981
1.19921e+06
256675
304980
930497
441382
514985
289107
340180
397086
499421
995.484
988.805
812.307
690147
197812
972700
179793
685328
957299
655734
250649
912862
211093
686966
429918
672141
151099
176736
419857
667878
421461
639203
168113
205674
405281
383648
295819
181137
229872
209394
284175
960.482
955.825
784.614
200081
146813
404436
112288
203059
406262
196962
162680
390816
122614
192957
51564.2
188479
63404.3
106713
51219.5
191405
52279.7
185812
69417.2
116471
52453.2
199657
137070
64968.9
115968
72530.5
128751
904.094
892.501
731.57
1016.91
56672.8
44809.1
5642.83
593.736
45713.8
1213.57
62120.1
46139.2
5202.23
64603.9
4411.52
115.954
887.976
458.824
333.485
277.508
577.475
531.239
645.387
346.914
473.897
77.3077
243.86
69.9276
17.0121
180.102
18.3339
35.9617
1091.92
2309.78
255.669
485.86
868.848
823.947
269.065
872.159
478.387
233.235
451.883
855.597
795.493
237.795
852.376
449.053
205.596
424.619
827.58
756.993
217.415
817.937
419.103
120.47
391.189
716.107
635.755
157.906
606.105
374.039
272.338
268.658
609.499
601.01
772.918
325.801
558.059
318.453
387.641
373.083
273.656
1038.91
946.724
994.052
1024.34
256.445
951.357
61.7337
83.065
87.9745
354.512
92.7071
208.855
282.307
863.759
493.289
888.118
268.159
928.197
502.739
373.206
257.754
336.949
200.401
299.762
303.378
188.746
16.8932
16.1339
299.07
193.191
298.585
221.084
595.184
346.097
199.139
27.3892
16.9459
875.359
2152.93
7251.83
245.51
929.402
976.108
1002.64
974.712
254.144
921.553
236.608
981.003
898.087
957.42
962.867
234.425
901.923
242.182
806.102
454.827
857.643
237.338
862.681
457.784
231.875
893.783
955.16
968.44
951.319
233.894
890.199
225.859
945.48
864.901
927.393
935.115
221.698
870.238
224.767
775.537
429.422
830.36
217.194
837.622
433.549
212.922
858.752
924.444
923.925
913.808
220.769
851.689
163.088
866.096
799.887
813.765
856.006
180.717
807.944
166.38
714.665
393.663
733.555
157.007
767.171
392.768
525.989
793.581
792.365
757.101
672.813
199.744
804.509
78.3402
90.617
285.989
1052.16
842.36
142.055
4359.85
387.513
164.083
563.215
414.678
459.265
477.424
500.746
813.201
491.837
377.601
748.616
818.672
548.001
748.495
316.239
566.516
571.834
558.351
572.179
452.07
569.118
433.846
468.169
242.636
240.255
79.7292
73.0956
234.556
20.4454
58.7087
26.276
64.6016
228.718
228.901
17.5877
17.7275
180.084
19.0278
18.4607
18.2852
17.7894
1.47788e+06
13071.3
1.51376e+06
17192.1
1.04828e+06
1.15078e+06
40.7836
1738.84
1797.31
373020
769895
1.06161e+06
3698.75
958398
372298
1.05199e+06
874565
1.16291e+06
3136.02
355.547
342.035
599.569
598.87
255.518
822.806
868.662
468.26
877.702
247.438
472.553
590.777
599.908
327.562
337.345
836519
855666
579624
678519
725938
263100
633623
794834
692896
531203
256552
620616
306.092
299.627
578.225
575.167
233.717
792.296
846.743
443.465
851.449
229.19
446.322
570.049
574.078
291.955
297.799
295815
309817
195030
266170
330860
152374
258066
357738
277055
184000
145124
248244
274.108
261.662
551.865
540.585
205.436
749.181
800.123
406.275
814.326
187.844
412.93
516.963
535.774
240.768
257.429
7518.88
10531.5
3372.07
26676.6
65681.1
36090.5
32614.7
65408.6
30874.7
3258.76
28788.2
28451.7
205.591
191.535
385.833
312.468
102.207
630.821
557.756
314.232
295.569
196.182
98.3094
83.6517
237.331
679.315
526.508
355.59
844.268
348.565
287.701
875.207
940.709
948.269
874.247
308.048
834.759
664.333
676.025
106.824
294.968
247.413
1080.57
836.418
422.151
5141.22
419.533
649.171
327.985
387.304
407.051
356.239
371.446
291.676
491.63
353.926
277.099
1026.46
928.386
942.191
312.632
999.37
937.283
1031.75
1037.51
696.922
720.305
662.525
709.371
1039.03
1030.03
52.1339
474.349
140.79
81.5296
112.37
492.955
213.349
168.953
372.528
325.414
224.931
93.438
209.567
276.258
207.825
248.053
285.039
853.177
811.546
533.42
320.455
901.689
518.361
356.274
371.118
610.51
639.212
573.687
627.697
430.896
384.849
395.639
280.167
334.34
233.208
312.137
329.947
277.706
325.501
333.013
229.622
229.877
202.275
310.106
304.889
317.416
274.824
320.162
324.257
275.217
321.172
189.706
19.1974
16.2289
17.642
19.0004
24.4615
19.4654
316.882
273.842
316.815
193.208
303.229
299.15
274.414
321.85
317.514
249.732
244.319
210.706
306.066
327.526
662.622
320.536
368.513
324.687
298.923
347.616
195.49
18.8679
17.2727
33.0762
18.4403
18.2799
18.2332
748744
1.46212e+06
823756
982.638
11164
8397.43
3739.53
219783
350535
621668
11610.5
562502
226433
612391
1.4997e+06
26962.6
507511
842807
15654.7
1.40535e+06
1.42908e+06
549243
1.33574e+06
586437
321982
300603
379382
366905
326857
382034
1.35462e+06
493393
591419
1.17231e+06
1.15201e+06
724249
1.15089e+06
653508
206811
427409
476356
544793
209294
493075
1.13082e+06
563590
630651
1.12728e+06
1.1082e+06
534985
1.07319e+06
492284
275821
305643
328394
359329
282684
336048
1.05521e+06
436656
478262
1.14376e+06
1.25412e+06
553588
899500
1.14324e+06
1.03469e+06
552191
1.1341e+06
1.05331e+06
1.26547e+06
1.03314e+06
928132
309201
739283
833649
944277
316312
847279
809550
913237
1.12678e+06
1.00766e+06
438979
790089
895673
1.01913e+06
453575
910943
873006
990706
1021.41
1011.67
686.543
683.481
244.908
1000.44
970.437
915.808
979.171
240.537
920.437
675.159
683.946
1005.53
1012.51
236.907
984.258
965.654
908.976
239.635
962.822
904.726
988.729
994.61
663.735
668.345
671.886
669.057
1001.87
995.669
241.722
808.696
863.919
464.459
248.045
862.359
460.906
307.975
314.92
579.894
584.373
587.401
584.946
325.534
317.325
819372
395514
456469
411462
190735
364781
838241
541689
477388
305706
188184
349646
810115
828280
773814
328063
368365
298076
233249
275302
790986
422900
381924
244641
227621
267670
562571
545387
375853
549909
319142
163008
201452
238129
291591
166665
251025
533047
249494
301054
548975
532502
314778
526462
275506
184229
182540
205884
236920
189574
213660
510822
224951
262649
615522
725563
775202
344689
672636
856369
741655
559898
332138
658253
565781
471355
202320
341793
421581
518694
209286
433404
369856
458260
600222
496567
239994
355280
440775
546220
250676
453535
386764
482300
986.704
981.492
662.022
658.808
231.542
964.681
945.1
883.138
950.243
229.494
886.889
653.502
657.676
974.442
980.037
226.433
950.878
943.112
879.067
229.029
937.221
874.845
956.883
964.62
637.918
645.066
651.862
647.018
972.688
966.63
224.31
780.284
844.944
440.396
229.654
839.567
437.125
277.121
284.577
554.922
561.87
568.458
563.794
290.411
285.912
288745
134488
173526
189916
132984
157438
302412
233264
187657
119050
128054
147323
291673
305273
281614
133426
165921
174774
146033
151583
294588
212727
177278
121099
140332
143907
117792
108302
122612
115411
90386.8
82845.5
56370.5
78128.3
110286
89040.6
85775
106204
54860.2
80751.9
117656
108318
123164
115194
94201.6
90484.2
61962.6
83917.8
113583
97202.7
91276
106239
59838.7
85170.1
202378
276620
343654
171743
266843
373782
288080
189822
162828
256561
185640
125852
86772.4
71076.7
114315
175509
94060
121285
71188.6
118202
192665
131278
96363.5
74441.1
118418
181069
104366
125518
75663.2
123479
954.214
944.159
634.775
621.115
211.315
914.597
894.278
834.904
909.874
196.066
843.747
596.494
614.696
929.106
940.792
166.708
879.954
888.214
825.661
193.163
865.389
816.293
918.45
915.204
468.595
536.787
589.494
553.192
925.73
916.455
166.65
722.778
794.557
399.789
187.16
774.966
394.751
208.125
215.735
407.929
462.461
508.795
476.97
235.654
218.736
8469.37
8674.91
19516.2
49407.8
35855.6
29059.8
11436.4
47115.8
25941.1
8889.78
28667.8
22473.7
8421.83
11459.9
9918.63
8565.54
22497.4
54664.2
39592.1
32810.1
12948.9
51931.2
29512.5
8709.26
31846.8
25625.1
4984.32
29714.7
68943.8
40829.7
34950.7
69774
34136.5
4626.53
32792.1
30616.9
924.835
990.798
439.375
357.671
601.746
711.579
628.545
1016.18
345.553
1063.06
410.667
389.484
48.4562
12.073
226.702
263.353
233.446
149.183
181.578
147.657
202.34
481.136
422.6
257.234
339.688
339.999
93.5948
26.4737
16.3524
75.4252
300.16
224.777
244.131
328.352
270.599
319.603
197.224
262.114
263.421
185.726
149.741
151.812
261.192
194.146
260.541
270.07
448.361
359.151
227.784
191.129
172.884
632.437
713.988
1056.24
87.5321
33.6162
52.8654
104.279
62.3957
59.7369
73.35
957.236
521.967
397.058
935.237
380.456
1537.94
711.03
335.861
176.208
369.948
325.857
401.871
336.101
277.425
823.384
775.648
683.664
520.075
636.376
571.538
645.593
542.7
194.059
369.519
300.511
373.605
266.764
458.821
163.967
272.53
107.452
234.941
69.4752
71.3715
204.465
165.716
170.914
66.4951
228.617
66.0165
230.397
68.1724
66.7812
181.195
147.247
146.413
1.39701e+06
667.669
3091.66
1980.67
1.48031e+06
60286.9
44149.5
1.4625e+06
1.51822e+06
46172.8
344585
372898
616797
61943.6
588728
358077
614839
1.54221e+06
1.70716e+06
760890
933100
795636
856478
453248
276110
431121
1.10835e+06
1.04442e+06
344919
243306
366089
242285
368138
245973
287248
231268
166817
212646
476446
425845
143765
130565
160099
898.057
27509.8
3074.79
6936.04
63281.9
50516.1
50991.6
67848.6
47417
2897.94
12936.8
15394.8
508.507
592.897
724.581
393.71
158.427
89.225
93.8935
125.467
101.544
138.281
260.339
705.916
774.052
683.676
481.349
613.741
520.36
599.417
126.455
338.877
239.666
253.023
312.717
227.93
175.482
192.11
384.344
336.65
783.309
475.802
979.674
365.734
1592.36
335.801
754.313
411.058
370.442
402.789
197.581
328.714
273.59
197.752
242.044
217.608
256.232
180.666
125.427
310.846
301.527
349.662
216.427
151.653
304.857
193.828
323.671
241.467
339.326
199.646
300.89
123.949
173.03
205.543
152.085
236.198
134.032
150.609
128.678
174.767
216.308
173.724
203.366
122.506
195.487
400.52
314.73
369.851
210.857
275.689
277.333
276.894
335.741
335.249
66.3112
229.033
65.534
69.1611
231.213
66.8705
206.487
274.503
272.78
334.381
274.084
334.818
336.187
275.812
336.332
194.822
164.38
160.7
334.017
273.472
333.819
194.252
263.126
261.742
276.295
339.023
337.307
468.034
355.867
175.301
68.5251
234.847
69.4794
199.947
265.388
268.837
784.229
481.174
539.486
341.48
282.851
345.275
186.564
147.741
150.061
1.03509e+06
1.37535e+06
1.08706e+06
1269.49
2558.06
2411.25
81083.1
163185
66584
131497
45181.3
240501
225278
244542
1.57147e+06
340028
744066
1.0708e+06
237714
1.33566e+06
1.32764e+06
949756
1.26944e+06
992853
288004
87412.3
110127
190117
319630
190112
1.29398e+06
857048
1.00523e+06
1.25399e+06
1.07147e+06
1.01877e+06
1.23183e+06
969632
202249
206390
210279
235931
215049
231310
1.0512e+06
781872
828020
1.20385e+06
1.03234e+06
935295
1.1453e+06
893020
262856
181694
182622
189148
297308
187909
983679
727258
768185
1.47363e+06
1.53091e+06
514820
576828
710870
678533
529918
709063
1.66177e+06
1.71111e+06
1.44322e+06
1.38346e+06
295676
460702
483223
579944
331726
554356
1.12973e+06
1.19397e+06
1.4539e+06
1.39294e+06
410769
520112
548328
668102
483846
636936
1.13603e+06
1.20092e+06
744880
546381
588925
202550
195534
198745
914598
766658
721281
176137
182715
179916
738272
901627
705857
516351
554990
180726
244749
179685
860291
713797
673325
170948
216553
172764
632825
478326
532304
618909
490968
155227
144401
148590
172343
173525
168507
467281
336450
373131
616197
468088
503887
590230
466119
173508
149914
153228
168962
200290
166810
449627
324347
358597
799202
860472
510846
370443
483297
1.11444e+06
1.04994e+06
378121
307701
403631
775603
716309
188244
237579
256845
337913
223062
317120
493754
546919
779034
719362
219354
253331
275146
369767
272769
345070
495691
549069
236528
166542
194603
140122
142364
135749
359404
324419
289629
107083
117703
112180
239576
361790
231869
164759
191767
146395
157197
142659
348469
313533
280813
115603
128631
120676
158928
73731
157570
155374
132098
70017.8
60805.8
67136.3
101838
100979
96447.6
72686.1
51646.1
68419.3
158071
74213.5
156487
153912
131779
76583.7
66900.1
73742.5
110307
110193
104775
73523.5
53483.2
70215.2
247461
288740
246249
190146
225511
478322
427566
151015
145504
168380
232814
195201
72225.7
67465.1
80444.4
138477
108661
122991
75438.4
100500
234306
196731
80451.1
71410.6
84888
145426
120545
129153
77310
102269
1501.36
5247.72
5936.57
54325.1
49830.8
47715.4
27942.8
46689.8
32977.6
7793.27
13072.7
12591.6
1353.58
28405.4
2196.15
5345.81
6646.69
59883.6
54706.8
52702.2
29461.6
48727
34848.3
7379.12
14735.4
14239.3
3894.79
8428.27
67058.6
56691.3
54239.6
69750.4
49381.9
3258.14
15191.2
16860.5
920.735
669.11
773.701
1050.55
262.2
253.436
184.485
163.986
193.587
249.025
243.672
407.913
402.094
612.619
643.025
434.188
369.067
538.128
282.025
565.827
244.141
705.629
348.382
558.728
541.546
1053.67
454.206
582.425
641.517
557.405
410.405
913.768
298.77
365.451
413.857
499.447
376.05
130.384
194.256
64.8923
193.493
261.8
211.416
230.831
68.5565
174.049
191.694
112.029
17.9091
110.362
181.27
146.503
147.295
18.017
109.397
110.042
152.489
179.141
397.158
587.213
3560.26
656.311
320.196
3815.82
634.234
523.045
263.619
437.188
322.943
324.467
433.338
525.045
524.015
263.432
330.509
435.953
529.578
327.681
431.646
511.911
235.738
419.796
305.848
306.511
420.361
511.377
512.859
235.3
308.163
422.073
513.6
307.594
421.229
489.993
212.08
393.472
284.105
286.326
396.302
487.879
492.461
212.061
290.651
401.705
494.261
288.977
399.386
425.987
152.306
272.894
229.576
250.009
300.811
389.3
445.777
153.518
259.907
331.148
455.344
259.493
320.745
699.677
728.57
401.395
632.017
555.834
727.833
777.31
486.856
350.853
341.501
422.952
388.473
558.858
423.935
269.173
354.753
339.369
368.668
389.344
369.764
368.713
382.037
365.192
986.291
720.002
266.036
741.571
979.397
748.695
724.35
980.822
263.021
732.313
708.196
969.537
743.073
719.176
113.586
48.9741
91.0769
95.461
70.6149
88.4365
249.051
119.322
95.6359
77.3255
65.4663
82.5209
101.087
62.1193
84.01
72.9235
42.3474
88.7494
88.4317
307.447
285.803
253.11
194.003
155.409
201.724
243.954
165.1
206.421
564.152
271.093
484.7
350.143
566.087
345.686
481.417
554.193
271.65
335.785
448.54
540.937
340.11
465.512
353.696
354.585
339.423
271.968
323.041
329.102
343.559
338.769
341.72
198.737
266.635
264.945
283.766
300.963
285.124
288.003
302.191
286.548
186.467
155.298
152.591
112.51
16.5915
114.277
117.636
16.4908
114.948
282.927
298.822
282.529
193.551
259.847
260.064
298.645
282.004
282.201
238.663
294.327
316.754
527.872
448.444
408.097
323.812
380.726
352.578
218.086
158.813
168.585
142.556
18.3272
128.86
118.576
17.4823
125.894
767.284
1593.67
1356.89
1251.51
4163.48
1751.17
2608.47
5924.13
2243.31
944.511
688.161
246.838
711.304
707.297
685.864
946.88
947.72
248.439
716.272
696.044
955.852
708.369
688.189
930.741
676.684
235.051
700.491
931.83
698.657
675.536
928.416
234.545
695.996
672.848
926.95
696.472
673.923
517.125
239.305
426.954
311.802
517.542
311.299
426.333
515.961
239.797
309.35
423.497
514.922
310.151
424.846
920.655
667.851
231.627
690.652
689.958
667.96
920.172
922.588
232.068
693.714
670.955
924.353
691.28
669.178
901.112
655.737
223.553
678.125
903.21
675.541
653.673
897.959
222.729
672.689
650.059
896.248
673.044
651.401
499.837
221.187
409.406
296.986
501.106
296.075
407.975
497.951
221.524
292.831
404.146
496.408
294.269
405.965
885.775
638.839
215.769
662.987
663.95
641.19
883.306
889.966
217.177
670.387
647.564
892.774
667.311
644.603
829.99
580.748
156.728
635.908
837.013
633.524
568.615
820.842
155.314
632.279
539.156
811.888
631.113
553.434
461.739
159.446
351.895
257.617
464.029
256.159
346.989
461.184
160.148
257.899
337.699
458.733
257.197
341.964
769.859
514.065
342.55
727.229
684.718
503.246
765.47
788.755
298.578
643.889
524.744
800.221
657.374
512.217
111.404
53.7458
136.244
117.93
182.111
93.6108
88.0138
104.793
65.384
109.017
120.384
213.469
50.6083
91.7525
130.899
492.376
213.395
172.059
224.201
261.819
135.559
474.145
1130.11
772.476
1168.75
2841.22
939.098
1193.76
1734.56
1192.87
2427.55
683.566
274.213
149.725
192.501
287.034
342.46
391.564
1265.45
1719.54
10053.4
1453.89
2416.31
2184.79
1148.35
704.276
690.06
216.191
680.38
345.463
1660.38
503.178
374.089
611.337
1090.72
133.48
211.488
242.06
467.413
216.398
294.902
465.734
491.948
550.607
606.107
667.167
446.218
494.343
1071.3
1127.1
259.521
543.501
435.176
687.695
372.325
362.415
310.338
867.473
423.694
746.795
1098.06
766.625
1050
383.649
720.378
4064.31
572.986
810.924
512.671
484.957
678.395
719.431
557.647
662.813
457.908
1543.2
846.096
925.762
1289.61
433.599
643.287
666.174
753.435
593.177
556.897
511.96
322.004
431.402
557.249
476.213
393.482
549.424
332.911
455.024
371.896
465.655
379.474
541.029
453.852
410.593
569.594
465.536
470.064
487.99
553.856
463.511
414.842
419.689
609.874
500.505
557.606
641.241
670.726
437.675
591.695
591.342
370.285
457.402
636.714
701.691
303.643
552.773
647.392
1102.24
646.165
668.65
693.116
723.88
655.093
433.292
357.608
336.285
440.113
357.259
347.047
359.192
423.592
451.529
335.519
261.888
83.0336
99.4867
235.899
80.0655
72.6965
8.69183
68.6401
28.8679
69.5297
32.0408
27.6615
207.962
201.158
174.969
126.99
27.5403
131.617
163.321
32.1116
135.561
60.448
35.449
52.321
35.581
41.2723
49.6838
228.67
67.0503
66.0517
230.111
67.1286
66.6997
77.2649
17.6363
78.7388
17.6741
80.607
79.5075
180.944
146.379
146.277
109.636
19.1244
108.897
109.247
19.1284
108.815
83.9003
18.1846
83.3574
81.5889
18.1203
82.5697
1.41803e+06
4296.85
7598.84
2827.84
1.60463e+06
68104.9
11047.8
28130.4
1.35209e+06
1.09376e+06
1.40604e+06
1.59009e+06
1.53621e+06
1.10877e+06
1.47687e+06
1.42377e+06
63.1712
128.785
59.244
232.103
235.235
72.3571
20791.8
5289.67
35255.3
366598
647274
638636
545362
1.05567e+06
44795.2
718057
65304
749884
1.06823e+06
743727
5286.94
36772.7
41321
680445
1.00075e+06
710917
366346
643712
623152
1.01457e+06
745358
720631
1.60915e+06
1.67425e+06
1.2921e+06
1.17251e+06
53294.4
1.56726e+06
24691.7
1.49516e+06
1.17461e+06
1.54505e+06
488.777
35256.3
5516.5
280.862
286.692
292.193
352.924
291.276
293.478
289.971
286.959
348.327
286.424
401.315
397.587
472.738
595.699
467.853
404.684
401.578
474.445
595.925
467.186
526.902
439.356
249.986
321.428
526.686
439.052
320.517
525.012
250.539
431.934
317.537
435.665
318.813
522.49
399.428
397.536
594.852
463.854
470.711
474.195
598.335
472.31
391.709
396.405
278.017
274.793
277.9
330.629
277.645
272.049
273.456
281.817
333.533
281.9
779645
913617
939127
876986
737967
621603
793761
869510
635737
812561
519928
686123
493348
269621
401966
423783
672931
458335
484543
960029
1.02322e+06
1.0245e+06
750895
965958
888659
736327
946539
389943
569146
415302
249952
394731
373218
581925
449656
423842
254.337
255.829
263.045
304.371
262.981
258.465
256.899
260.827
302.355
260.285
378.23
378.964
454.081
577.017
452.519
381.099
380.106
450.999
575.92
451.895
509.775
418.907
231.265
304.846
510.466
418.097
304.326
508.556
231.729
415.79
302.379
416.84
303.17
507.607
377.24
376.117
571.404
446.26
448.042
450.405
572.881
448.812
373.743
375.017
253.316
251.952
256.023
294.385
255.562
249.464
250.961
258.15
296.188
258.16
255289
353219
346245
301583
232176
224393
270298
324739
234563
283531
254829
298833
232939
159615
188648
206564
288428
204876
225800
361663
409436
444704
322241
398107
338957
310707
382989
153031
210531
171769
137847
182815
165666
219714
198075
178205
225.426
229.77
240.001
270.507
239.634
235.442
231.963
233.947
266.765
234.095
347.472
352.321
430.908
548.633
426.387
358.422
354.707
419.02
544.723
424.602
482.683
389.849
197.545
281.073
485.162
386.311
278.482
479.669
197.07
377.606
271.823
381.802
274.999
476.854
344.742
338.253
524.308
397.451
406.85
416.897
530.711
409.509
326.777
335.083
222.796
217.544
218.405
247.292
219.154
208.296
214.535
227.372
252.219
226.571
1724.71
22562.2
21177.6
9925.34
3269.89
11229.5
8042.11
22684.5
14911.5
11246.3
63956.2
50565.6
51071.3
43314.5
35209.3
47011.4
45864.8
34811.4
46925
25656.4
41396.5
67079.3
49401.1
47907.2
27086.8
44488.9
42206.6
2715.29
12636.9
14900
21369.1
31328.9
19509.9
16504.7
30852.6
18986.3
164.008
186.521
184.23
197.108
179.747
184.656
184.003
160.525
189.294
169.529
194.136
230.959
317.185
362.418
289.177
259.205
236.711
244.149
336.072
283.228
344.868
235.774
62.2963
191.068
372.086
211.784
171.548
494.756
573.792
341.249
735.795
437.418
247.558
213.874
355.839
414.493
160.92
232.344
167.927
183.45
156.315
446.029
230.655
233.707
300.321
226.933
143.011
150.404
117.421
221.682
192.067
147.045
144.199
187.36
137.506
501.941
489.068
813.804
100.352
194.129
195.705
488.985
169.666
406.749
171.402
84.8779
95.2097
112.274
82.9987
120.143
135.61
656.515
245.285
264.663
164.527
427.543
125.088
197.054
352.965
394.51
728.528
547.213
784.811
1083.06
779.798
1159.96
464.065
830.363
4129.31
580.52
684.446
420.565
328.188
410.424
369.458
436.079
512.869
646.733
1720.7
983.188
890.002
652.401
421.541
414.508
700.46
426.27
510.496
921.613
728.54
297.667
681.747
868.183
728.088
734.153
965.814
307.401
729.633
773.129
738.91
791.402
964.203
587.088
560.801
664.959
644.804
651.861
661.908
639.165
638.052
584.503
584.951
108.175
173.815
124.25
103.381
277.256
95.6304
118.769
141.113
254.253
290.981
300.379
300.111
217.818
208.704
126.825
342.88
152.586
291.074
95.5272
325.132
180.46
518.117
624.836
422.955
1071.31
412.625
644.995
663.365
434.644
979.682
384.636
394.691
625.417
400.827
924.791
2273.15
16572
3177.71
1932.8
4512.47
1633.33
458.186
307.104
621.862
224.033
605.069
799.484
1692.71
2620.24
848.373
270.785
604.585
432.977
216.397
455.442
282.23
411.099
399.284
266.18
429.701
417.682
405.147
410.148
359.422
336.703
378.129
393.864
355.469
391.469
259.603
279.374
270.886
313.1
246.322
294.037
283.223
183.697
378.25
307.835
187.807
287.818
203.518
349.635
317.491
254.251
306.119
946.521
287.486
707.778
721.204
963.989
692.543
704.064
938.102
292.388
708.734
717.351
952.308
688.558
693.283
581.693
591.829
402.025
1040.5
404.927
578.493
589.876
403.279
1043.1
402.352
569.825
570.036
709.581
641.347
658.093
661.985
719.151
663.047
557.1
563.434
569.356
568.68
639.404
669.282
627.247
580.559
561.294
658.543
688.474
634.899
568.369
556.826
429.047
1025.11
411.027
593.841
550.186
399.317
1026.64
398.835
130.635
73.5917
83.2715
58.5179
48.6394
128.749
94.239
211.715
407.686
508.428
364.737
392.435
329.512
295.735
160.888
101.895
106.364
243.469
35.6269
265.646
187.402
110.684
99.4241
99.8633
160.752
229.011
90.5753
90.5544
120.291
84.6987
164.277
381.619
433.378
518.775
398.201
401.98
350.771
374.511
253.376
216.38
298.483
195.932
214.898
185.992
235.02
251.944
110.218
271.756
174.591
285.107
171.639
260.63
228.172
488.858
288.563
292.167
306.667
208.666
253.904
210.959
156.982
284.568
51.9752
167.956
119.517
181.766
176.468
176.308
145.861
235.583
274.689
214.128
267.484
182.034
175.703
80.9486
141.345
97.9358
123.532
93.8099
193.362
124.551
146.399
135.04
135.17
214.552
284.868
303.093
174.567
228.07
219.038
117.764
155.2
96.8841
207.794
138.481
326.583
296.486
227.567
549.017
305.547
475.174
355.098
559.351
459.086
361.098
539.895
307.265
447.417
370.273
538.186
447.801
366.599
300.919
291.401
296.892
357.58
298.337
293.87
291.443
307.27
361.11
306.526
434.399
429.175
477.618
624.989
505.117
409.344
428.344
516.254
635.987
510.704
436.986
422.87
465.225
583.995
471.462
416.877
418.714
513.489
604.71
478.761
309.193
330.027
334.151
418.983
329.396
347.283
337.526
318.784
403.587
320.104
409.428
371.309
381.272
290.993
329.131
340.564
346.922
336.1
350.453
216.579
299.465
282.819
298.095
315.618
301.474
323.131
321.64
308.575
277.323
331.26
334.206
338.667
327.803
339.225
337.582
331.122
339.648
229.227
66.5049
65.6293
230.888
66.4781
66.517
204.393
268.481
270.627
296.045
308.496
294.16
289.802
306.713
291.993
334.93
318.125
335.414
274.468
336.027
335.382
319.102
337.026
336.161
338.508
323.298
338.281
275.577
336.439
336.435
322.223
337.684
338.022
193.653
156.278
159.529
125.797
17.2089
122.334
118.481
16.8907
121.338
76.4603
18.0851
74.7512
18.2632
71.7518
73.9919
62.5568
21.7004
66.596
21.0525
70.5317
67.627
334.504
316.488
334.16
273.603
334.347
333.922
316.446
334.702
334.214
193.58
260.128
260.804
286.079
301.582
284.574
282.431
300.318
283.446
275.287
335.067
336.031
339.752
319.827
337.737
335.443
318.458
336.36
309.047
83.7337
135.099
236.021
78.1799
70.3365
204.253
281.593
273.901
288.717
310.509
292.832
307.939
317.038
298.756
732.809
488.796
526.449
368.855
385.339
433.112
408.508
387.755
432.642
342.49
328.944
346.592
288.452
363.08
351.624
335.849
365.524
353.443
188.219
156.461
151.26
110.005
18.8547
111.564
116.798
18.5609
112.463
68.5342
22.204
78.7935
20.5516
82.41
77.8083
84.5611
18.429
84.5157
18.3876
83.3035
85.7186
950053
773902
982774
1.39698e+06
1.16671e+06
1.10538e+06
799117
1.05308e+06
1.01711e+06
1116.14
1799.84
2046.91
5107.47
10937.7
4245.61
3006.46
9494.45
3492.09
27015.5
6805.87
34120.4
203238
241406
203065
200929
451264
172418
274004
106555
412163
562182
362532
9129.96
64363.3
48836.5
383797
580310
394257
227467
246469
247305
597435
410078
403657
1.55672e+06
1.19113e+06
1.17192e+06
115667
21685.2
103574
660366
645377
232159
884179
260553
1.08544e+06
779983
1.02744e+06
19871.7
77392.6
85599.4
1.35418e+06
1.50548e+06
749911
563284
770776
1.28681e+06
1.05355e+06
1.00821e+06
576144
809103
791019
313194
167501
145832
125373
305818
113943
198273
346994
161947
217493
373973
217773
324934
181450
188024
379635
210076
216162
1.3757e+06
1.06833e+06
1.04168e+06
730066
516701
754500
821240
563548
793313
1.2335e+06
1.09151e+06
918580
700228
887910
1.2115e+06
905953
953795
676683
828226
857844
204487
218293
214238
300628
443539
310505
330683
459851
320520
373001
527267
362183
212016
222472
226807
510038
341006
351506
1.071e+06
890355
843429
712983
585715
741379
798976
608063
770037
1.18468e+06
1.05124e+06
728983
520650
708090
1.12725e+06
837093
878887
506414
666634
687303
269226
184499
183544
203937
313209
205824
209414
320787
207642
216257
351544
214644
289847
185529
186668
343768
211167
212916
1.00151e+06
823205
781854
584980
450463
605253
646072
464328
625617
1.39252e+06
1.19402e+06
1.44897e+06
1.6054e+06
1.54948e+06
1.21023e+06
1.52205e+06
1.46741e+06
544910
743386
731510
657269
1.13402e+06
810898
842864
1.14995e+06
832695
767265
1.08074e+06
801951
542990
740146
718396
1.09547e+06
838438
812694
1.62494e+06
1.69293e+06
1.48804e+06
1.26405e+06
1.59447e+06
1.54004e+06
1.27974e+06
1.59023e+06
1.33375e+06
987940
1.27763e+06
1.30042e+06
1.36299e+06
972947
1.20075e+06
1.25859e+06
302348
513980
490841
528863
779520
555867
592577
792999
564967
670239
902312
640286
323791
521868
546035
888464
601934
630523
1.27928e+06
1.21537e+06
1.04409e+06
853853
1.10296e+06
1.18128e+06
868668
1.12258e+06
1.37328e+06
1.07568e+06
1.31441e+06
1.30864e+06
1.37213e+06
1.05865e+06
1.23389e+06
1.29445e+06
424725
586853
557830
586510
835056
618957
663114
850139
629885
755443
972510
720159
468531
596661
626741
957047
674335
708570
1.28722e+06
1.22255e+06
1.07041e+06
923211
1.13175e+06
1.21354e+06
940031
1.15222e+06
563.589
560.231
397.388
1014.34
393.941
570.109
559.213
388.465
1011.89
390.719
541.879
543.761
681.897
636.308
626.873
628.797
681.475
626.311
552.605
544.549
948.381
689.71
242.682
714.812
948.094
689.459
714.387
945.28
241.737
684.17
708.468
687.035
711.001
942.049
540.659
539.045
678.922
620.261
624.625
628.501
682.357
626.746
534.374
536.442
566.793
565.364
385.607
1009
387.716
560.73
563.965
388.779
1011.48
387.728
932.737
236.665
677.016
700.64
932.924
676.545
699.177
934.754
237.189
680.502
703.648
937.513
677.791
700.269
555.326
552.14
376.713
990.679
378.407
550.652
551.376
379.603
992.593
378.941
527.591
526.331
665.367
609.711
611.294
614.225
667.127
612.429
524.179
525.024
528.491
528.942
618.412
670.001
615.035
532.608
529.78
614.755
669.094
614.387
554.781
553.362
383.926
998.489
382.736
558.592
553.202
379.957
996.774
381.63
517.832
245.219
427.245
312.773
517.879
426.963
313.495
518.585
244.806
428.702
315.723
519.87
427.319
314.836
263.704
262.083
265.855
310.744
265.421
259.53
261.024
268.287
312.873
268.31
386.017
384.864
454.899
581.56
457.317
382.241
383.879
459.643
583.238
458.141
387.02
386.866
462.313
585.732
460.079
389.975
388.572
460.076
584.941
459.489
264.995
267.214
274.301
323.431
274.133
270.834
268.736
271.437
320.805
270.878
763344
646981
603372
496332
415513
522222
575134
435838
548497
290888
395702
281286
193182
191200
194964
380138
262513
271825
895384
661733
706281
684852
520013
656987
602109
498575
629402
226848
320096
235518
185513
187442
183684
334746
253354
244355
756110
883185
722737
607104
567745
426383
341428
445782
485002