/*--------------------------------*- C++ -*----------------------------------*\
| =========                 |                                                 |
| \\      /  F ield         | OpenFOAM: The Open Source CFD Toolbox           |
|  \\    /   O peration     | Version:  2012                                  |
|   \\  /    A nd           | Website:  www.openfoam.com                      |
|    \\/     M anipulation  |                                                 |
\*---------------------------------------------------------------------------*/
FoamFile
{
    version     2.0;
    format      ascii;
    class       volScalarField;
    location    "0.105/solid";
    object      sigmaMin;
}
// * * * * * * * * * * * * * * * * * * * * * * * * * * * * * * * * * * * * * //

dimensions      [1 -1 -2 0 0 0 0];


internalField   nonuniform List<scalar> 
24998
(
-474.595
-1.50509
-471.454
-331.116
-418.885
-1352.31
-1290.6
-1227.19
-1101.88
-453.372
-464.347
-1486.48
2.44734
-478.035
-1377.29
-476.871
-357.805
-332.198
-356.044
-445.79
-405.992
-511.306
-1465.41
-1408.49
-1297.53
-1401.37
-1347.19
-1238.11
-1335.91
-1215.2
-1127.85
-1173.08
-3.81631
-440.688
-325.91
-727.647
-1328.4
-465.045
-587.117
-431.681
-360.259
-423.668
-428.254
-330.018
-62.7157
-614.365
121134
-318367
-318004
-1326.72
1065.76
921.901
-253522
-207043
-1271.24
-585.313
506.873
-144952
-96799.8
-1186.36
-1527.9
-1560.35
-40204.5
-4258.15
-11.7698
-718.868
-1420.08
-368.194
-615.684
-397.443
-703.391
-678.6
-377.119
-1467.7
-283.265
-449.336
-704.59
-369.186
-388.321
-1364.14
-641.111
-382.469
-513.48
-423.844
-430.691
-379.792
-507.329
-512.508
-357.873
-506.854
-356.026
-512.627
-536.019
-428.974
-358.357
-592.282
-514.502
-331.028
-6362.1
-685.264
-141865
-162075
-147506
-4097.78
91129.9
-8911.42
-312977
-288475
201950
68.0745
883.087
-6263.04
-145432
-159246
-4622.88
-3936.57
-2355.17
-8773.02
-227836
-280140
-6702.03
-559468
-495044
-260057
-309447
-376434
-479175
-1438.4
-1428.77
-1316.98
-3475.47
-143653
-4539.79
-128910
-1290.5
-2266.53
-4964.71
-221072
-6583.17
-176144
1076.48
559.882
-3423.71
-105690
-126402
-2720.26
-1234.73
-809.2
-4864.93
-129108
-170024
-3626.35
-362774
-272574
-151909
-200253
-182897
-260522
-1381.4
-1373.87
-1263.95
-2223.71
-102286
-2689
-75597.1
-920.937
-794.231
-2785.55
-123513
-3556.79
-85666.4
-659.357
-1528.15
-2204.52
-40433.2
-71418.7
-1954.65
-947.04
-1723.55
-2751.49
-44184
-80404.6
-2503.06
-172821
-109369
-45967.2
-90106.3
-50720.9
-101277
-1292.9
-1275.84
-1170.93
-2242.02
-35887.2
-1947.49
-5181.25
-1790.51
-1791.24
-2425.33
-39129.2
-2499.6
-4567.54
-44343.5
-3638.81
-23.8317
-442.322
-149.871
-1035.4
-421.339
-737.499
-837.434
-1086.21
-433.369
-739.808
-136.81
-435.954
-122.562
-8.61159
-327.175
-5.50466
-58.4827
-1337.58
-2664.77
-645.269
-959.351
-1538.48
-1340.68
-675.845
-1533.5
-947.146
-596.649
-894.742
-1488.38
-1284.23
-608.903
-1479.28
-888.772
-543.487
-839.677
-1424.37
-1214.83
-564.912
-1405.14
-828.777
-529.844
-740.916
-1283.42
-1030.91
-507.166
-1178.68
-706.787
-553.276
-370.608
-755.176
-842.064
-1193.88
-387.032
-673.386
-474.253
-690.878
-643.267
-528.584
-1499.23
-1048.26
-1658.76
-1697.4
-547.616
-1053.88
-4.68289
-20.0953
-93.9703
-578.33
-162.434
-342.201
-688.296
-1396.05
-970.592
-1563.58
-670.054
-1617.32
-984.591
-669.219
-464.728
-607.309
-365.701
-540.275
-546.648
-341.805
-9.18871
-14.8381
-539.002
-353.025
-538.055
-381.236
-731.595
-581.295
-350.665
-44.0013
-10.1662
-948.118
-1636.62
-4133.63
-532.795
-1042.67
-1636.72
-1453.1
-1626.67
-561.205
-1031.83
-513.272
-1415.17
-992.768
-1584.12
-1595.27
-509.357
-997.784
-619.4
-1304.16
-900.867
-1492.54
-607.025
-1503.7
-907.07
-501.033
-987.557
-1579.84
-1394.71
-1570.27
-508.736
-982.132
-485.093
-1357.06
-945.341
-1520.16
-1535.53
-475.946
-952.885
-578.276
-1247.69
-849.221
-1430.1
-562.329
-1445.33
-857.344
-462.012
-936.729
-1514.41
-1323.04
-1494.57
-474.813
-926.927
-408.137
-1238.72
-847.676
-1369.28
-1411.12
-385.579
-863.204
-500.44
-1142.13
-758.563
-1296.88
-497.059
-1328.14
-767.107
-680.441
-824.644
-1350.05
-1078.5
-1223.82
-401.534
-800.107
-10.6234
-76.5233
-85.2385
-590.068
-434.29
-133.293
-3459.95
-182.686
-259.962
-898.638
-517.895
-709.576
-639.612
-819.981
-839.882
-541.605
-925.97
-1211.44
-1487.46
-1021.69
-1330.75
-760.829
-1016.97
-1400.44
-1323.22
-924.661
-753.832
-777.899
-758.733
-786.716
-450.013
-445.267
-134.442
-120.199
-417.753
-29.1021
-101.88
-37.6039
-104.98
-424.368
-424.756
-11.5909
-7.71903
-327.118
-4.07487
-5.20825
-5.79157
-7.36822
-2975.1
-1205.81
-5114.57
-2071.94
-1.02903e+06
-1.1406e+06
-66.7956
-1966.06
-2193.57
-353014
-1.05716e+06
-1.06511e+06
-3506.27
-947007
-345562
-1.05018e+06
-1.18453e+06
-1.15863e+06
-3073.19
-678.231
-660.876
-1452.49
-1453.52
-646.598
-1335.34
-1520.85
-928.067
-1537.54
-630.328
-936.465
-1439.45
-1458.29
-641.512
-653.986
1070.39
1057.46
-568295
-665946
-716531
-233809
-624399
-780499
-680125
-521980
-227177
-611401
-610.617
-601.461
-1407.68
-1399.14
-598.545
-1277.99
-1465.67
-876.92
-1476.41
-586.733
-882.903
-1385.74
-1396.31
-589.729
-598.305
-48.279
21.1613
-186352
-257289
-321277
-124126
-248255
-348396
-268131
-173937
-117230
-238399
-561.545
-544.951
-1345.44
-1325.83
-546.547
-1201.19
-1373.38
-803.389
-1398.26
-519.445
-816.611
-1293.86
-1318.55
-516.453
-538.137
-1730.82
-1740.83
-137.465
-20345.3
-55980.2
-24015.5
-24886.2
-57171.1
-24127.2
-284.57
-19015
-21226.7
-443.623
-410.384
-1208.66
-1134.86
-508.879
-957.814
-1115.81
-580.643
-1080.76
-401.354
-141.691
-62.4712
-282.782
-548.07
-672.64
-595.099
-984.37
-379.52
-638.012
-1261.51
-1598.2
-994.691
-1438.98
-611.754
-880.558
-1559.85
-1496.84
-116.535
-510.619
-320.865
-767.469
-618.25
-669.051
-4514.99
-643.815
-1070.58
-578.447
-681.08
-727.796
-582.046
-649.168
-524.759
-854.642
-637.61
-561.975
-1489.37
-1593.31
-1054.9
-693.992
-1671.1
-1065.68
-812.944
-816.293
-1625.31
-1675.23
-1547.64
-1645.52
-808.815
-824.933
-40.5967
-767.35
-215.971
-15.0221
-165.75
-804.555
-327.005
-283.603
-627.772
-588.109
-389.961
-157.439
-336.814
-515.706
-352.048
-376.853
-691.892
-1386.19
-1487.39
-1019.4
-772.711
-1588.2
-1004.53
-679.593
-694.634
-1478.59
-1543
-1395.8
-1511.27
-759.74
-712.105
-709.657
-524.006
-609.846
-423.497
-562.68
-594.153
-518.434
-589.075
-604.883
-426.161
-426.693
-369.003
-558.789
-549.357
-573.438
-509.601
-578.422
-586.447
-510.434
-580.327
-343.729
-26.3143
-15.9862
-12.4065
-19.3256
-33.7254
-20.8905
-572.43
-507.487
-572.17
-353.007
-544.717
-538.903
-508.422
-579.363
-573.238
-433.126
-432.497
-372.685
-548.22
-567.94
-780.545
-529.08
-615.554
-582.727
-523.695
-602.109
-346.828
-4.2459
-8.33172
-51.0349
-13.3497
-6.10447
-10.7519
-13435.3
-12130.2
-19091.9
-1029.57
1330.2
-4779.01
-5001.83
-168565
92968.6
-31288.3
-13314.8
-15551.6
-169586
-20914.9
-2361.75
-6584.31
130769
-32732
-18129.4
-6548.52
-8877.09
-8783.81
-10464.1
2639.82
-310417
60343.6
-1008.8
-20953.4
-309589
-9507.56
-7231.6
100866
5106.3
558.112
619.092
-12412.4
-5392.05
-10768.2
-150658
-19991
-18639.6
-16309.3
-152502
-18172.9
-5290.34
-11122.2
-10568.2
-3100.03
-2990.88
-9304.16
-7719.73
-10476.7
-248946
-26358
-24179.9
-21722.7
-256359
-23523.9
-7587.94
-12534.8
-10932.6
-1.15132e+06
-1.2688e+06
-546775
-1.22819e+06
-1.15282e+06
-1.03106e+06
-538981
-1.13912e+06
-1.38605e+06
-1.28433e+06
-1.01402e+06
-911205
-279930
-729828
-823560
-932918
-286804
-837046
-794965
-896638
-1.13426e+06
-1.01437e+06
-418706
-786300
-892342
-1.01548e+06
-433320
-907617
-877647
-997221
-813.139
-800.085
-1601.69
-1598.07
-526.369
-1446.72
-1613.69
-1015.84
-1629.28
-525.035
-1021.99
-1583.31
-1601.44
-787.494
-794.633
-514.338
-1421.26
-1606.34
-1010.1
-526.106
-1597.05
-1003.59
-768.358
-774.388
-1554.45
-1566.19
-1575.52
-1567.86
-785.442
-777.272
-617.46
-1309.95
-1513.25
-920.652
-633.158
-1505.24
-913.604
-613.804
-623.362
-1411.93
-1423.45
-1431.45
-1424.84
-638.199
-627.182
-3927.47
-13331.6
-12466.5
-20429
-137895
-21720
-3991.48
-11381.9
-12189
-23428.6
-135800
-22148.4
-1685.32
-1753.5
-5681.87
-17103.2
-15421.3
-27107.7
-201349
-29295.6
-5788.8
-13108.2
-14846.6
-31906.8
-194938
-29988.6
907.427
887.263
-13633.9
-3060.87
-14576.7
-115238
-26640.6
-25528.1
-23859.8
-118197
-25124.1
-3020.84
-15874.4
-14900.2
-972.455
-939.889
-17640.8
-4240.23
-19182
-146250
-35306
-34394.3
-32480.5
-152092
-33982
-4156.18
-20971.1
-19663.4
-615134
-727354
-771304
-322938
-667842
-860702
-743765
-553953
-310041
-653319
-554609
-461141
-172759
-332241
-412215
-509462
-179672
-424060
-360437
-448163
-599533
-493870
-214668
-347018
-433510
-540129
-225767
-446417
-382013
-479331
-766.19
-759.601
-1550.08
-1541.09
-500.323
-1388.3
-1556.44
-971.675
-1567.35
-494.874
-976.919
-1527.27
-1538.19
-751.04
-757.226
-486.12
-1365.81
-1552.38
-965.941
-494.052
-1539.97
-959.671
-729.733
-738.385
-1491.27
-1506.67
-1523.19
-1511.09
-748.598
-741.324
-575.957
-1256.18
-1461.73
-870.724
-588.723
-1449.69
-864.324
-566.555
-577.211
-1351.19
-1365.94
-1381.8
-1370.25
-586.896
-579.836
-2417.83
-18022.5
-17373.5
-26961.8
-91436.6
-27691.1
-2444.58
-16194.9
-17102.7
-27815.1
-87617.6
-27832.1
-797.406
-790.211
-3085.25
-22878.6
-22525.1
-35489.1
-107039
-35595.3
-3136.8
-21354.9
-22295.5
-34463.2
-101641
-35463.7
-1122.49
-1184.6
-18158.4
-2062.5
-18167.4
-53998.5
-22231.2
-25581.4
-27625.5
-58443.9
-26317.5
-2049.81
-16590.4
-17988
-1222.81
-1280.16
-22859.3
-2579.3
-22230.1
-59575.6
-25519.5
-30189.7
-33899.7
-64752.5
-31357.8
-2564.25
-19455.5
-21783.9
-194430
-269908
-335254
-144128
-257511
-368793
-281564
-179565
-135072
-247103
-176980
-117274
-64189.4
-61251.1
-104131
-165419
-70515.5
-111096
-62869.5
-109637
-184563
-122304
-71118.9
-63662.7
-107491
-170712
-78339.5
-114634
-66349.5
-114412
-726.061
-715.257
-1485.27
-1461.1
-460.464
-1308.75
-1461.75
-903.888
-1487.47
-442.33
-915.949
-1426.93
-1450.35
-698.934
-710.762
-412.183
-1257.85
-1452.56
-890.9
-439.891
-1421.68
-877.332
-689.588
-682.964
-1336.12
-1375.84
-1420.12
-1387.89
-694.255
-685.729
-495.636
-1155.95
-1364.56
-789.798
-522.959
-1336.89
-777.2
-455.366
-475.917
-1219.42
-1248.31
-1285.25
-1257.89
-507.921
-483.877
-1823.7
-9120.63
-10169.6
-20683.1
-22470.9
-14736.6
-1845.43
-15751.9
-11845.3
-9260.73
-18152
-12477.2
-2081.86
-2098.25
-2349.38
-9021.6
-11344.1
-23543.8
-24394.7
-16413.7
-2396.79
-18277.5
-13338.2
-9064.45
-19674.7
-13804.7
-174.309
-22316.1
-58279.8
-26504.9
-26336.8
-60503.8
-26310
-306.453
-20968.6
-22529
-694.745
-790.431
-1317.26
-1223.26
-739.478
-995.11
-1158.8
-871.168
-1165.61
-888.684
-155.396
-201.734
58.6231
0.114888
-389.323
-468.218
-394.526
-249.856
-329.45
-247.183
-323.377
-529.861
-571.245
-460.533
-597.164
-594.903
16.6775
17.8333
0.399687
11.1534
-512.418
-389.059
-420.518
-580.895
-486.934
-567.107
-360.096
-462.647
-464.954
-336.375
-250.847
-254.435
-460.995
-354.651
-459.834
-413.64
-595.571
-541.13
-373.848
-309.34
-282.186
-717.057
-628.118
-946.793
-26.4052
-6.03903
-4.96951
-27.3978
-11.5201
-18.3356
-24.1992
-832.017
-617.42
-415.829
-782.738
-510.248
-1362.81
-706.84
-725.697
-281.904
-591.218
-431.087
-679.374
-524.747
-344.455
-1179.82
-535.19
-712.86
-775.227
-1452.2
-867.423
-826.272
-900.481
-374.526
-643.037
-541.286
-638.426
-476.173
-766.069
-282.609
-504.28
-192.19
-435.606
-131.342
-134.589
-369.331
-278.802
-288.822
-126.051
-424.044
-125.168
-427.073
-128.087
-126.229
-328.741
-246.181
-244.875
-554.679
-186.566
-977.758
-337.784
74358.3
31219.4
-2700.2
-1.41056e+06
-1.46586e+06
-61113.5
-363059
-488138
-659312
-70623.8
-576189
-327109
-603430
-2.00338e+06
-1.71926e+06
1081.76
979.242
-774042
-832363
-440612
-246972
-418172
-1.07266e+06
-1.01181e+06
-330206
-213788
-351780
-361.427
304.49
-240150
-280795
-214138
-137992
-195261
-465804
-416516
-125749
-103557
-142057
-1665.65
-1663.18
68.6656
-4262.42
-48285.5
-34608.6
-37565.2
-63340
-42994.6
-1782.69
-9144.34
-10114.1
-821.866
-712.739
-1003.38
-605.645
24.9642
-61.9379
0.429906
-32.5627
-1.36134
-71.5988
-210.803
-1012.17
-520.817
-710.636
-712.017
-1478.27
-800.961
-745.112
-202.546
-563.776
-295.568
-416.374
-356.046
-446.575
-279.091
-324.913
-669.436
-544.144
-708.688
-616.294
-585.033
-369.608
-952.756
-403.33
-407.059
-739.541
-684.128
-726.954
-448.572
-543.793
-483.942
-374.484
-527.4
-383.872
-478.747
-322.126
-197.603
-503.82
-397.466
-616.02
-351.469
-204.828
-575.595
-381.774
-575.14
-447.639
-591.854
-424.167
-531.051
-300.278
-356.777
-401.254
-307.512
-449.438
-330.352
-310.057
-358.66
-366.71
-401.036
-334.238
-445.781
-314.078
-363.752
-719.64
-586.922
-668.509
-385.618
-487.533
-491.49
-514.989
-600.932
-601.082
-125.724
-424.896
-124.395
-130.928
-428.988
-126.9
-376.426
-484.758
-481.435
-596.226
-508.076
-597.053
-600.985
-511.851
-600.73
-352.257
-276.37
-269.897
-595.562
-506.856
-595.218
-354.512
-463.312
-461.39
-511.156
-602.687
-600.481
-162.941
-450.824
-129.913
-128.302
-431.278
-127.297
-361.783
-466.3
-470.554
-767.04
-556.693
-686.93
-605.393
-517.025
-608.889
-336.333
-246.954
-250.488
644.237
-7085.47
292.199
-973.137
-747.362
-1317.54
-127751
-145957
-2131.23
-16972.2
-32022.2
-63954
-165064
-62824.9
21676.9
-471212
134999
89478.7
-91142.8
-4681.34
-18189.8
-8606.52
-9550.92
-9630.17
-295506
-97630.2
-92356.3
-132942
-296647
-134466
-12197.9
212273
27062.1
309.065
780.804
-128.781
-5852.63
246.869
-147171
-69034
-68402.1
-64607.1
-156731
-65197.3
-4903.3
-800.128
-1604.18
-3557.49
-2618.56
-9173.76
-8293.03
-8295.56
-234717
-118343
-119935
-130905
-271956
-128841
-7076.73
-7248.77
-7543.17
-1.52996e+06
-1.58766e+06
-533650
-793355
-759971
-670455
-510851
-702419
-1.90756e+06
-1.7863e+06
-1.39182e+06
-1.33435e+06
-266615
-448217
-470941
-567346
-301453
-541961
-1.09299e+06
-1.15405e+06
-1.50978e+06
-1.44673e+06
-390294
-510713
-539259
-659734
-463545
-628530
-1.17629e+06
-1.24485e+06
-3670.08
-2355.56
-3347.28
-69620.2
-141812
-70154.5
-4292.68
-2061.68
-1175.1
-71851.1
-131308
-71775.8
-1453.31
-2046.96
-5269.87
-6695.02
-6531.39
-116754
-214411
-115147
-6237.94
-7176.54
-7025.85
-104659
-182336
-106531
1004.4
712.477
-3790.55
-3260.58
-2781.51
-108984
-68497
-69349.1
-71836.3
-123778
-71708.3
-2851.71
-4134.07
-5030.05
-1121.96
-858.483
-6430.47
-4593.6
-6694.69
-134760
-87530.7
-89900.1
-102728
-163979
-100747
-3847.56
-7030.15
-6690.95
-821189
-885593
-501180
-349308
-473184
-1.15348e+06
-1.08534e+06
-365437
-284854
-391541
-754812
-697812
-158871
-220627
-240201
-322989
-193423
-301802
-482632
-534236
-800012
-737436
-193232
-237053
-259452
-356777
-248700
-331472
-503996
-559524
-2308.77
-5990.75
-6648.07
-67503.6
-98773.7
-66369.9
-2578.56
-5452.05
-4605.26
-56389.4
-79692.6
-58440
-862.759
-790.119
-2907.04
-8012.29
-7743.52
-85093.1
-117973
-82578.2
-3370.69
-6889.16
-7237.72
-65772
-90957.6
-68794.1
-875.357
-1393.78
-7020.45
-2140.23
-6425.92
-44978.4
-34309.7
-37587.9
-54175.2
-67162.4
-51803.6
-1997.18
-7219.33
-7778.62
-1056.05
-1532.84
-8035.99
-2670.5
-8266.8
-49284.6
-37977.9
-41807.7
-62658.4
-75167
-59441.7
-2528.46
-8496.87
-8643.14
-247542
-289964
-229705
-163002
-208425
-485954
-433308
-132224
-117696
-149827
-227166
-189990
-51899.9
-52089.2
-64009.5
-120420
-83486.3
-105119
-70910.1
-95911.6
-234044
-195545
-57312.8
-54620.9
-67053.6
-126534
-93412.5
-110219
-73803.7
-99160.3
-1742.02
-6038.39
-4666.13
-30908.4
-31359.8
-27409.4
-1914.52
-7724.92
-6982.79
-7711.06
-9467.86
-9589.12
-1825.63
-1961.36
-1932.38
-6138.61
-4827.24
-34072.5
-34133.5
-30099.3
-2486.68
-8473.94
-8001.75
-7213.92
-9980.55
-10057.6
101.444
-5224.32
-50676.8
-38182.5
-39497.5
-66135.5
-45523.7
-1436.22
-9698.28
-10614.3
-1067.06
-735.221
-1038.15
-865.39
7.01667
51.6372
-45.2568
10.8668
-2.87378
-83.5944
70.8784
-93.7422
33.9591
-314.867
-43.9759
-246.292
-53.4034
-32.7513
-92.5402
-233.925
-29.0818
-63.1216
-151.315
-944.754
-1067.52
-824.594
-880.089
-812.238
-793.23
-918.1
-721.435
-456.741
-452.827
-493.73
-624.063
-638.852
-564.952
105.893
-330.093
-115.334
-325.42
-465.675
-357.844
-390.18
-121.519
-292.65
-322.391
-182.667
-7.05397
-179.686
-328.852
-245.155
-246.542
-6.68537
-177.846
-179.083
-248.208
-236.107
-520
-602.519
-3639.27
-761.11
-367.938
-3964.58
-695.622
-1057.05
-666.543
-1020.08
-812.435
-815.381
-1017.16
-1055.88
-1063.65
-663.984
-826.582
-1025.26
-1070.28
-823.259
-1017.37
-1007.18
-603.751
-970.177
-763.969
-765.506
-972.411
-1005.45
-1010.9
-601.953
-770.613
-977.821
-1012.84
-769.229
-975.204
-949.22
-556.214
-908.825
-711.254
-714.407
-914.245
-945.17
-956.082
-553.537
-723.782
-925.06
-959.631
-721.21
-920.239
-833.777
-535.859
-802.359
-620.405
-634.742
-823.064
-801.324
-856.938
-519.105
-645.418
-836.708
-866.097
-645.604
-833.693
-847.475
-1144.98
-523.831
-643.007
-691.403
-837.87
-901.473
-638.553
-351.008
-417.471
-510.337
-535.745
-633.146
-535.321
-475.572
-595.49
-592.972
-652.164
-690.757
-651.279
-626.226
-675.867
-641.042
-1205.88
-1257.43
-505.881
-782.236
-1206.07
-779.008
-1259.39
-1201.11
-528.579
-780.878
-1251.15
-1197.11
-778.103
-1256.82
19.2539
-0.713556
-9.20613
24.5914
-9.54653
13.6296
40.6492
2.41121
-88.4309
-37.0687
-78.9098
1.13136
3.5442
-67.8955
-42.4211
-39.1919
-23.27
-56.7482
-9.3224
-526.949
-476.953
-436.378
-332.201
-267.706
-349.265
-406.265
-283.976
-359.713
-1104.98
-664.272
-1098.05
-852.378
-1109.23
-847.139
-1091.15
-1094.14
-668.623
-834.284
-1043.83
-1082.76
-838.112
-1068.27
-630.587
-639.919
-608.549
-489.236
-566.82
-579.015
-620.383
-601.185
-608.844
-362.712
-470.548
-467.59
-507.241
-542.326
-509.56
-514.623
-544.469
-512.021
-337.865
-260.51
-255.801
-183.564
-11.322
-186.768
-192.77
-12.0443
-187.992
-505.73
-538.47
-504.956
-353.643
-458.589
-459.009
-538.145
-504.059
-504.381
-393.907
-494.6
-511.631
-669.403
-645.771
-600.188
-544.697
-603.1
-564.294
-367.21
-263.231
-276.508
-234.196
-21.1764
-208.511
-192.223
-17.5464
-203.726
-836.142
-1360.5
-1155.59
-1040.07
-2593.78
-1556.61
-2630.9
-3372.36
-2084.01
-1178.25
-1223.56
-546.716
-766.346
-771.536
-1225.61
-1175.5
-1185.01
-559.281
-781.533
-1240.54
-1190.77
-779.063
-1231.55
-1142.88
-1195.6
-510.557
-739.981
-1144.6
-739.164
-1193
-1139.31
-511.485
-735.056
-1187.69
-1137.41
-736.571
-1189.94
-1022.83
-611.519
-990.541
-781.223
-1024.6
-779.849
-988.128
-1018.95
-613.524
-774.394
-981.291
-1016.84
-776.006
-984.518
-1127.58
-1175.91
-503.965
-726.051
-727.793
-1177.43
-1126.01
-1131.3
-505.252
-732.138
-1184.06
-1133.59
-730.973
-1180.44
-1094.24
-1148.11
-480.774
-703.559
-1097.07
-702.096
-1143.99
-1088.93
-480.581
-695.49
-1136.28
-1086.04
-697.925
-1139.52
-974.085
-569.708
-942.245
-738.732
-976.682
-737.046
-938.742
-968.775
-572.079
-729.682
-930.197
-965.737
-732.013
-934.265
-1069.52
-1115.59
-468.537
-679.834
-683.022
-1120.13
-1065.52
-1076.29
-468.835
-690.597
-1131.43
-1080.08
-688.463
-1126.06
-984.655
-1039.8
-388.513
-624.294
-995.159
-617.932
-1026.63
-972.27
-389.598
-601.037
-994.538
-957.696
-608.432
-1010.73
-883.054
-490.716
-848.276
-656.912
-887.329
-654.363
-843.759
-878.369
-497.587
-649.89
-838.77
-874.628
-650.28
-839.985
-875.832
-874.064
-534.099
-603.219
-563.666
-909.569
-845.307
-912.461
-481.817
-585.523
-974.365
-938.139
-575.4
-948.18
-17.2961
-10.1468
-34.9921
7.24937
-8.14739
-27.2636
-25.0296
-32.6144
-37.3491
-130.046
-65.3569
-103.786
-39.5807
-43.2503
-21.2164
7.95658
-59.3191
-54.3036
-26.6628
-86.8548
-42.4319
59.4454
-644.379
13.3624
-1296.85
-2552.06
-187.363
-618.004
-1109.31
-181.295
-1501.98
-534.31
-278.864
-170.366
-139.416
-168.457
-408.422
-347.122
-1137.81
-1482.31
-4411.49
-1455.04
-2095.28
-2264.5
-1177.02
-554.617
-102.78
-123.106
-670.01
-152.491
-987.577
-469.471
-882.599
-630.457
-349.007
-232.203
-372.717
-270.834
-882.392
-353.259
-265.797
-820.138
-780.564
-907.791
-946.747
-1051.52
-738.84
-767.901
-464.208
-485.731
-398.706
-783.203
-406.69
-1040.93
-535.314
-514.598
-474.454
-1604.71
-1161.6
-1017.8
-901.667
-566.017
-1513.72
-475.765
-725.313
517.411
-604.716
-1149.19
-816.516
-790.199
-1032.93
-1156.77
-858.948
-983.794
-1072.51
-2864.45
-867.353
-1079.96
-495.953
-453.318
-897.751
-893.283
-1089.95
-716.56
-1074.48
-1095.96
-786.334
-934.366
-1062.53
-1075.19
-886.021
-1095.72
-791.265
-1058.86
-883.12
-1070.25
-886.778
-1094.49
-1092.65
-1064.6
-1403.66
-1155.16
-1161.74
-1118.38
-1324.4
-1158.16
-1035.76
-1055.23
-1000.72
-828.641
-918.848
-1011.18
-1074
-733.144
-952.214
-973.635
-641.632
-735.889
-995.858
-1129.77
-533.977
-893.773
-1051.24
-506.358
-981.8
-1008.19
-1074.23
-1093.31
-1024.97
-958.494
-839.967
-791.376
-760.821
-817.816
-825.648
-833.479
-929.37
-761.905
-756.703
-482.699
-153.397
-180.717
-437.455
-148.837
-136.672
-1.07765
-114.77
18.032
-115.945
20.2075
17.2108
-376.19
-340.659
-296.234
-209.698
-43.1792
-219.171
-274.526
-52.2675
-226.621
38.8327
-55.2725
33.3212
22.2286
-65.4136
31.6644
-424.14
-126.962
-125.203
-426.512
-127.074
-126.18
49.8802
-9.72721
50.8072
-9.23997
52.0156
51.3344
-328.271
-244.919
-244.669
-177.964
-4.33801
-176.808
-177.542
-4.43702
-176.71
54.1468
-6.27701
53.8394
52.7087
-6.35111
53.2896
-896.908
-1346.97
-1001.92
-431.253
39722.3
-2071.43
-1155.69
-3771.61
-1.31104e+06
-1.07521e+06
-1.36481e+06
-1.54326e+06
-1.48432e+06
-1.09119e+06
-1.44198e+06
-1.38314e+06
39.2628
-184.772
24.23
-288.352
-135.991
18.9057
-23678.9
-4496.01
-39174
-355223
-647144
-669456
-700223
-1.11605e+06
-43721.1
-758638
-44649.8
-750649
-1.10009e+06
-778053
-4125.46
-48981.1
-48815.4
-668015
-990336
-699615
-336525
-640293
-612627
-1.00516e+06
-742536
-710281
-1.56624e+06
-1.65929e+06
-1.71961e+06
-1.23194e+06
-51959.3
-1.59693e+06
-31532.7
-1.46497e+06
-1.19735e+06
-1.54395e+06
-349.786
-44754.8
-4071
-715.039
-727.039
-727.86
-675.253
-726.844
-738.76
-734.581
-716.941
-668.503
-717.404
-994.157
-984.555
-1162.22
-1442.39
-1152.54
-996.795
-991.608
-1161.37
-1444.95
-1149.34
-1050.12
-1020.59
-633.265
-806.308
-1051.95
-1018.34
-804.39
-1045.06
-636.222
-1005.7
-797.473
-1012.08
-799.384
-1041.72
-991.057
-988.91
-1448.91
-1143.43
-1154.99
-1161.17
-1456.46
-1158.85
-975.597
-984.525
-707.544
-700.248
-697.246
-645.029
-697.296
-694.323
-696.761
-706.373
-649.428
-705.711
1077.62
1012.77
-911393
-851992
-719765
-609774
-773703
-846794
-623730
-791858
-508227
-676824
-481461
-240407
-388462
-410651
-663657
-446109
-472564
-931347
-991609
-995924
-737268
-939654
-865248
-722924
-920974
-376911
-559940
-402567
-220499
-381027
-359117
-572721
-437320
-411225
-651.222
-654.664
-664.173
-608.302
-663.472
-661.401
-657.645
-657.878
-604.961
-657.889
-940.597
-942.719
-1116.29
-1404.26
-1112.58
-948.287
-945.715
-1107.64
-1401.4
-1110.34
-999.94
-967.341
-591.654
-760.333
-1001.81
-964.79
-759.007
-996.067
-593.564
-958.709
-753.664
-961.525
-755.254
-994.03
-937.818
-935.042
-1389.34
-1095.29
-1099.35
-1105.52
-1393.06
-1101.82
-928.941
-931.975
-648.337
-644.894
-646.3
-592.937
-646.365
-638.947
-642.131
-652.346
-596.074
-651.711
-292.925
241.623
-338704
-294885
-225773
-215647
-263399
-317000
-225788
-276442
-240051
-289155
-217924
-131048
-170922
-189022
-278718
-189566
-210684
-353802
-400503
-434616
-313104
-389008
-330974
-301630
-374191
-137386
-200556
-156179
-110366
-164959
-147715
-209771
-182681
-162675
-588.405
-595.4
-612.476
-557.089
-611.616
-606.927
-600.732
-600.474
-551.058
-600.852
-878.038
-884.182
-1060.09
-1339.35
-1053.1
-895.142
-889.728
-1040.92
-1332.64
-1048.61
-932.976
-902.218
-532.011
-703.69
-937.619
-896.015
-700.263
-924.868
-535.172
-881.95
-687.925
-888.588
-691.94
-919.753
-872.047
-864.697
-1302.77
-1011.76
-1021.39
-1035.94
-1311.22
-1026.94
-850.247
-858.088
-582.189
-573.92
-571.844
-524.1
-572.412
-557.819
-566.972
-587.813
-532.001
-586.887
-1706.31
-1693.18
-17298.8
-6886.09
-89.5262
-7189.36
-5245.93
-18449.6
-10204.4
-8021.46
-50390.4
-41431.9
-38762.9
-29214.1
-24619.8
-34169.6
-37001.2
-24941.5
-35123.2
-21596.6
-37024.7
-61896.5
-41561.9
-42896
-22617
-36850.5
-37284
-1199.7
-8122.34
-9819.48
-14130.5
-21601.3
-12965.6
-11203.3
-21756.1
-12745.8
-478.257
-491.116
-480.655
-429.176
-469.405
-498.573
-493.889
-439.019
-410.735
-447.335
-800.591
-811.394
-961.765
-1194.39
-953.959
-810.484
-814.159
-918.75
-1169.02
-948.492
-758.71
-770.068
-482.926
-581.634
-786.368
-754.563
-568.591
-854.704
-1066.84
-917.678
-1055.81
-744.313
-440.959
-524.911
-572.86
-774.844
-679.112
-823.315
-529.975
-780.5
-753.084
-1044.03
-868.969
-894.949
-1027.73
-862.141
-764.977
-472.291
-450.738
-389.164
-486.164
-486.556
-430.128
-373.721
-433.578
-373.82
-532.883
-911.813
-116.733
-220.642
-307.828
-214.277
-182.786
-446.218
12.32
-12.9681
-121.281
-49.3911
-22.4503
-73.0632
-45.9338
-700.658
-252.339
-300.967
-150.195
-532.855
-57.5534
-188.881
-495.87
-408.729
-33.5579
-1377.29
-1219.2
-994.728
-570.775
-1582.91
-521.865
-882.715
544.767
-593.683
-947.682
-671.429
-559.829
-636.121
-596.94
-696.602
-758.737
-1316.8
-3032.94
-1067.72
-1136.82
-341.17
-431.552
-559.025
-1060.8
-630.767
-588.99
-1090.86
-1201.98
-593.888
-704.274
-1034.14
-1234.16
-704.271
-1154.82
-533.64
-1272.43
-743.794
-1266.12
-725.814
-1168.44
-1349.95
-1394.92
-1566.93
-1484.98
-1486.89
-1392.76
-1473.03
-1457.58
-1419.78
-1421.53
-194.353
-197.934
-153.848
-119.903
-270.196
-119.533
-179.856
-279.504
-444.434
-511.045
-492.005
-500.621
-436.075
-360.639
-258.905
-247.143
-200.595
-437.868
-109.472
-516.247
-291.152
-363.668
-371.118
-407.744
-724.844
-375.434
-409.031
-345.066
-326.571
-687.93
-394.999
-679.818
-938.579
-642
-657.677
-1806.45
-1943.53
-3825.69
-1786.53
-2603.23
-1316.46
-855.308
-426.588
-1014.69
-440.085
-499.489
-943.431
-1990.54
-3449.41
-505.629
-648.006
-958.102
-738.859
-647.696
-752.892
-645.969
-714.469
-679.608
-622.07
-720.743
-749.312
-722.661
-736.665
-663.677
-605.887
-687.044
-700.897
-632.756
-703.075
-504.626
-500.952
-512.602
-561.341
-521.99
-531.433
-519.417
-519.027
-642.989
-564.087
-418.402
-525.032
-534.346
-614.888
-589.503
-593.113
-557.543
-1208
-607.381
-1250.87
-794.542
-1208.14
-1246.24
-804.789
-1199.33
-654.363
-1262.66
-799.471
-1196.56
-1246.53
-808.493
-441.268
-429.402
-457.333
-811.816
-453.322
-441.603
-432.23
-459.533
-812.898
-455.312
-1370.1
-1380.13
-1654.48
-1485.4
-1506.34
-1506.44
-1676.27
-1513.64
-1368.99
-1374.26
-1364.99
-1359.27
-1472.01
-1555.66
-1452.02
-1402.42
-1352.11
-1496.22
-1597.2
-1463.06
-458.069
-484.024
-448.563
-828.688
-476.33
-464.66
-493.036
-471.416
-831.522
-481.026
-241.862
-106.995
-76.8428
-12.465
-30.3909
-195.916
-133.953
-368.26
-657.557
-847.706
-591.69
-670.65
-571.202
-479.204
-289.763
-189.391
-138.981
-394.498
-45.2374
-471.194
-295.925
-96.0421
-67.1601
-83.9588
-248.307
-388.101
-175.588
-88.2281
-204.969
-102.008
-294.197
-693.388
-727.106
-867.164
-652.096
-685.791
-614.637
-627.11
-480.381
-402.685
-469.892
-343.14
-370.22
-394.099
-432.331
-460.059
-219.601
-455.092
-316.436
-509.969
-315.379
-457.341
-509.045
-774.729
-492.506
-590.138
-535.338
-488.171
-439.553
-401.88
-387.176
-497.552
-81.5017
-281.348
-182.425
-304.367
-280.925
-274.183
-338.331
-451.313
-490.703
-403.673
-503.276
-394.023
-347.063
-243.346
-266.903
-265.409
-260.489
-255.339
-371.266
-206.646
-355.71
-278.91
-381.615
-383.856
-496.724
-418.925
-375.009
-543.836
-379.682
-332.92
-283.765
-262.397
-339.126
-383.182
-408.86
-496.869
-350.038
-1106.42
-748.587
-1087.57
-863.933
-1110.6
-1067.93
-872.25
-1102.06
-753.369
-1051.1
-886.363
-1100.65
-1052.53
-883.201
-741.259
-726
-734.993
-679.725
-734.943
-737.716
-727.304
-748.733
-684.264
-748.547
-1071.31
-1062.59
-1177.1
-1513.23
-1222.73
-1012.04
-1049.4
-1243.26
-1539.84
-1236.54
-1072.7
-1041.2
-1153.05
-1410.3
-1163.21
-1031
-1032.39
-1234.94
-1456.72
-1178.55
-761.674
-799.002
-793.776
-749.739
-790.08
-826.951
-816.164
-771.069
-732.237
-772.66
-734.722
-671.075
-689.294
-544.355
-598.291
-619.754
-631.744
-614.717
-639.704
-395.68
-529.046
-501.809
-532.82
-569.06
-539.166
-575.427
-579.655
-551.609
-516.538
-598.235
-600.673
-611.137
-593.541
-612.894
-613.755
-599.894
-614.761
-425.309
-126.282
-124.56
-428.355
-126.224
-126.338
-372.722
-473.836
-477.617
-528.86
-555.718
-525.351
-517.804
-552.538
-521.569
-602.439
-574.75
-603.381
-508.835
-599.286
-598.093
-576.49
-606.326
-604.743
-610.216
-584.413
-609.349
-511.223
-600.177
-600.524
-582.33
-607.639
-608.547
-349.952
-262.226
-267.852
-207.445
-20.9959
-201.218
-194.31
-19.7259
-199.422
49.3382
-15.0135
48.2311
-16.0017
46.2897
47.7201
40.2378
-27.0477
42.8656
-25.3192
45.475
43.5587
-601.63
-571.737
-601.037
-507.071
-596.04
-595.378
-571.632
-601.835
-601.096
-353.509
-458.968
-459.989
-509.933
-542.496
-507.863
-504.678
-540.634
-506.183
-509.727
-597.172
-598.639
-609.036
-576.669
-606.387
-602.986
-574.678
-604.39
-440.495
-126.155
-126.94
-431.982
-127.095
-126.969
-366.479
-483.611
-476.161
-513.296
-553.203
-518.133
-532.281
-559.476
-524.24
-800.17
-684.213
-707.29
-537.88
-630.282
-648.228
-637.731
-641.936
-662.728
-612.18
-587.159
-616.17
-520.005
-620.145
-613.56
-593.303
-629.775
-621.737
-338.668
-259.92
-252.302
-178.55
-4.85087
-181.047
-189.418
-5.33816
-182.49
43.5044
-26.095
50.969
-21.5244
53.2843
50.1537
54.6388
-6.67813
54.527
-7.42488
53.7898
55.4061
-12249.3
-14533.3
-13070.7
-6705.77
-5410.2
1262.06
-18278.3
-18605.5
-16508.7
-1044.49
-1504.57
-1502.44
-1168.22
-2861.74
-2478.51
-3032.06
-4915.8
-3018.1
-29816.1
-7151.23
-12353.4
-156784
-49314.7
-19186.5
50467.7
45156.3
-23528.3
21641.7
-24235.8
-28829.4
64010
33898.2
-9803.58
-7639.27
-9869.99
-28478.3
-16694
-26296.4
-167910
-56287
-60971.9
-20007.3
-20976
-23410.3
18082.2
918.508
77113.5
22564.2
-13430.2
-26380
162835
60813.8
-32032.7
50169.9
-55002.7
-33725.2
87852.5
88359.4
-20708.4
-8945.67
-23483.5
-5004.7
-11862.2
-5352.63
-7309.15
-4542.24
-9456.68
-11018.4
-8302.86
-5133.56
2546.6
-3381.62
-310011
-125592
-111662
16964.3
23560
7084.97
-28852.4
21886
-5275.54
-49660.1
-19301.7
-48084.9
-303996
-132560
-135015
-16798.4
-38795.9
-45487.3
31466.9
-10202
10914
147238
33668.7
29473.4
-729.212
35536.4
39945.1
388.282