/*--------------------------------*- C++ -*----------------------------------*\
| =========                 |                                                 |
| \\      /  F ield         | OpenFOAM: The Open Source CFD Toolbox           |
|  \\    /   O peration     | Version:  2012                                  |
|   \\  /    A nd           | Website:  www.openfoam.com                      |
|    \\/     M anipulation  |                                                 |
\*---------------------------------------------------------------------------*/
FoamFile
{
    version     2.0;
    format      ascii;
    class       volVectorField;
    location    "0.105/solid";
    object      sigmaMidDir;
}
// * * * * * * * * * * * * * * * * * * * * * * * * * * * * * * * * * * * * * //

dimensions      [1 -1 -2 0 0 0 0];


internalField   nonuniform List<vector> 
24998
(
(0.787932 -0.518351 0.332379)
(0.903269 -0.274358 0.329899)
(0.875463 -0.469827 -0.113255)
(0.996811 0.00638061 -0.0795444)
(0.606967 0.786612 -0.113284)
(-0.021084 0.00880344 0.999739)
(-0.00363719 0.00632967 0.999973)
(-0.0121413 0.00801319 0.999894)
(-0.112295 -0.0859286 0.989953)
(-0.431609 0.688752 -0.582524)
(0.99057 -0.122787 -0.0607755)
(-0.0233354 0.00942153 0.999683)
(0.937737 -0.325018 0.122528)
(0.748099 -0.653955 -0.112649)
(-0.0321954 0.00944134 0.999437)
(0.996405 -0.042228 -0.0734389)
(0.99853 0.00909803 -0.0534365)
(0.99661 0.0194348 -0.0799452)
(0.99859 0.00309034 -0.0529945)
(0.729243 0.679709 -0.0787417)
(0.642783 0.760442 -0.092508)
(0.682356 0.718101 -0.136823)
(-0.0149946 0.00929419 0.999844)
(-0.000387099 0.00587783 0.999983)
(-0.00445979 0.00642442 0.999969)
(7.21102e-05 0.0058036 0.999983)
(-0.00114273 0.00737048 0.999972)
(-0.00710211 0.00779792 0.999944)
(-0.00294854 0.00774839 0.999966)
(-0.0825526 -0.0490904 0.995377)
(-0.0897299 -0.0563471 0.994371)
(-0.137373 -0.0819578 0.987123)
(0.779517 -0.519687 0.349683)
(0.396764 0.890808 0.221449)
(-0.141006 0.880457 -0.452674)
(0.990952 -0.132554 -0.0210415)
(0.737511 -0.0494297 -0.673523)
(0.836021 0.54565 0.0577505)
(0.976404 0.115081 0.182733)
(0.993964 -0.0675326 0.0864618)
(0.995509 0.037271 -0.087024)
(0.995292 0.0521605 0.0816942)
(0.993572 -0.0757698 0.0841017)
(0.996712 0.0184156 -0.0789081)
(0.583108 0.812394 -8.01123e-05)
(0.903413 -0.428684 0.0086275)
(0.808273 0.463845 -0.362688)
(0.985953 -0.0617153 0.155201)
(-0.0481202 0.998562 0.0236399)
(-0.00865394 0.0074044 0.999935)
(0.69539 0.718618 -0.00453959)
(0.626594 0.779341 -0.00278543)
(-0.0467434 0.99854 0.0270762)
(-0.0545179 0.998259 0.022496)
(-0.00169942 0.00643923 0.999978)
(0.999681 -0.0247615 -0.00493127)
(0.898588 0.438757 -0.00566811)
(-0.0609564 0.99802 0.0155327)
(-0.0620127 0.998024 0.0101681)
(-0.0345388 0.00256862 0.9994)
(0.16958 0.980647 -0.0978499)
(0.988898 -0.148151 -0.0115169)
(-0.0598388 0.998204 0.00291415)
(0.177279 0.595162 0.783808)
(-0.624758 0.69338 -0.359029)
(0.999606 -0.0126221 -0.025089)
(-0.0148775 -0.0499897 0.998639)
(0.786027 0.416243 0.457059)
(0.969835 0.135567 0.202587)
(0.209266 0.956485 0.203334)
(0.999116 -0.0372827 -0.0194009)
(0.964001 0.176563 0.198815)
(0.776345 0.375522 0.506233)
(-0.0486311 -0.0161419 0.998686)
(-0.386092 0.799946 -0.459368)
(0.789417 0.612547 -0.0400836)
(0.731523 -0.680203 0.046882)
(0.881885 0.469149 -0.0466787)
(0.836136 0.525765 -0.156358)
(-0.314951 0.0101122 0.949054)
(0.978217 0.0946885 0.184729)
(0.997997 0.0250942 -0.0580682)
(0.988045 -0.0150832 0.153428)
(0.99442 -0.0672802 0.0812522)
(0.994935 0.0519387 0.0860586)
(0.998118 0.0217739 -0.057318)
(0.988401 -0.00932032 0.151578)
(0.988185 -0.0134468 0.152672)
(0.995909 0.0279485 -0.0859262)
(0.988393 -0.00790536 0.151711)
(0.998101 0.031633 -0.0528517)
(0.988019 -0.0234246 0.152547)
(0.913774 -0.405426 0.0254204)
(0.995964 0.0265735 0.0857312)
(0.996689 0.0608724 -0.0539052)
(0.928839 -0.351029 0.118473)
(0.987063 -0.0480455 0.152965)
(0.996701 0.0166122 -0.0794454)
(0.76402 -0.645131 -0.00894638)
(0.908105 -0.396134 0.135733)
(-0.664817 0.723855 -0.18453)
(-0.0925676 0.995676 0.00776408)
(0.812343 0.486911 -0.320961)
(0.902457 0.430763 -0.00373332)
(0.59535 0.793507 -0.126114)
(-0.176717 0.984261 -0.00104337)
(0.945564 -0.320477 -0.056606)
(-0.00506729 0.999946 0.0090195)
(0.778548 0.625976 -0.044916)
(0.587591 0.809158 -0.000340868)
(0.623193 0.782063 -0.00263631)
(0.755541 -0.655044 -0.00866132)
(-0.0817313 0.996601 0.0102691)
(-0.0902245 0.995864 0.0106955)
(-0.61207 0.790788 0.00503509)
(0.903006 0.429607 -0.00417197)
(0.907147 0.420724 -0.0086523)
(-0.175598 0.984461 -0.00139837)
(0.0190247 0.999663 0.0176407)
(0.00928239 0.999847 0.0148272)
(-0.17154 0.985162 -0.00553562)
(0.971164 -0.237523 -0.0205896)
(-0.647504 0.749107 -0.139919)
(-0.0456509 0.998577 0.0275668)
(-0.0453275 0.998641 0.0257356)
(-0.224799 0.971679 -0.0728417)
(-0.582739 0.801952 -0.131482)
(-0.0031094 0.00700588 0.999971)
(-0.0015686 0.00666457 0.999977)
(-0.00613677 0.00700781 0.999957)
(-0.389142 0.921177 0.000765236)
(-0.080772 0.996687 0.00949618)
(-0.600122 0.799894 0.00479693)
(-0.0733777 0.997294 0.00442665)
(0.915958 0.40106 -0.0131369)
(0.907603 0.419733 -0.00893987)
(-0.184128 0.982861 -0.00903589)
(0.0180524 0.999696 0.016778)
(-0.171912 0.985095 -0.00576274)
(0.0156574 0.999813 0.0113369)
(0.705245 0.708949 -0.00465866)
(0.883026 0.469289 -0.00565394)
(-0.372779 0.92792 0.00045247)
(-0.062463 0.998047 0.000533688)
(-0.0721281 0.997388 0.00384901)
(-0.174357 0.984674 -0.00399553)
(0.91681 0.399098 -0.0134586)
(0.93483 0.354613 -0.0185121)
(-0.185563 0.982589 -0.009227)
(0.0211712 0.999749 0.0073068)
(0.0159976 0.999814 0.0107344)
(-0.22392 0.974536 -0.0117811)
(-0.189976 0.97958 -0.0658142)
(-0.0490171 0.998184 -0.0350275)
(-0.060506 0.998034 0.0163356)
(-0.0554501 0.998224 0.0217776)
(0.014607 0.999714 -0.0189562)
(-0.0377226 0.998765 -0.0323362)
(0.000588265 0.00588387 0.999983)
(0.000760677 0.00615697 0.999981)
(-0.000518375 0.006636 0.999978)
(-0.0188252 0.999776 -0.0096269)
(-0.060914 0.998143 0.000217)
(-0.162684 0.986669 -0.00431387)
(-0.049413 0.998778 -0.000874536)
(0.982918 0.182371 -0.0247647)
(0.936834 0.349263 -0.0189205)
(-0.341581 0.939792 -0.010646)
(0.022256 0.999728 0.00695831)
(-0.228743 0.973415 -0.0118649)
(0.0311248 0.9995 0.0055265)
(0.998684 -0.0510473 -0.00494377)
(0.986982 -0.160499 -0.0103041)
(-0.0108403 0.99989 -0.0100813)
(-0.0367062 0.999326 0.000627766)
(-0.047725 0.99886 -0.000829475)
(0.178679 0.983497 -0.0284253)
(0.987644 0.154713 -0.024958)
(0.850021 -0.526703 -0.00698235)
(-0.354946 0.934833 -0.0100806)
(0.0415728 0.999109 0.00730456)
(0.0324911 0.999457 0.0055316)
(-0.573299 0.819272 0.0110255)
(0.0197267 0.999653 -0.0174692)
(0.0462081 0.998896 -0.00843628)
(-0.0600367 0.998188 0.00403786)
(-0.0618589 0.99804 0.00946243)
(0.0638544 0.997955 0.00298861)
(0.0490699 0.99877 -0.00714732)
(-0.0129045 0.00386178 0.999909)
(-0.0200442 -0.00136549 0.999798)
(-0.0451623 -0.00395859 0.998972)
(0.0543179 0.989132 -0.136632)
(-0.0353812 0.999373 0.000943117)
(0.201133 0.979046 -0.0318609)
(0.144816 0.601941 0.785299)
(-0.518157 0.851927 0.0757277)
(0.827921 -0.560825 -0.00462751)
(-0.30143 0.913352 0.273728)
(0.0426952 0.999057 0.00794443)
(-0.58686 0.809565 0.0141561)
(0.174877 0.654559 0.735507)
(0.0653039 0.997853 0.00499085)
(0.195478 0.6914 0.695525)
(0.182149 0.792743 -0.581704)
(0.302063 0.939881 0.159315)
(0.530246 0.81962 -0.216938)
(0.899725 -0.431447 0.0659385)
(0.660034 -0.616776 0.428885)
(0.94611 -0.318097 0.0607451)
(0.960348 -0.221866 0.16884)
(0.987235 0.00218118 0.159254)
(0.808252 -0.588079 0.0298656)
(0.952732 -0.294522 0.0745509)
(-0.0290215 0.997644 0.0621693)
(0.959951 0.266945 -0.0850577)
(0.882228 0.412344 -0.22726)
(0.021312 0.999636 -0.0165674)
(0.996928 0.00597777 -0.0780988)
(0.00858999 0.999961 -0.00226709)
(0.726124 -0.643383 0.24249)
(0.848612 -0.215568 -0.483102)
(0.966216 0.257724 -0.00214174)
(0.994482 0.104251 -0.0117469)
(0.983209 -0.182344 0.00716048)
(0.886018 0.119508 -0.447985)
(-0.0205844 0.00657289 0.999767)
(0.999937 -0.00919895 -0.00640037)
(0.97895 0.137055 -0.151239)
(0.984312 -0.175737 -0.0157079)
(0.989977 0.141217 -0.00155197)
(0.990325 -0.138673 0.0051657)
(-0.214238 -0.0271617 0.976404)
(-0.00346148 0.00616126 0.999975)
(0.994352 0.106132 -0.00066001)
(-0.183462 -0.0237503 0.98274)
(0.990812 -0.135192 0.00379968)
(0.981149 0.192752 -0.0139015)
(0.9939 -0.110222 -0.00371028)
(-0.138491 -0.0165487 0.990225)
(-0.0180381 0.00755738 0.999809)
(0.990836 0.134935 -0.00601587)
(-0.143016 -0.018357 0.98955)
(0.994699 -0.101926 -0.0136096)
(0.951497 0.0863684 -0.295287)
(0.853073 0.0584978 -0.518502)
(-0.125334 -0.0710552 0.989567)
(-0.142477 -0.13779 0.98016)
(0.930418 0.338615 -0.140225)
(-0.150535 -0.00598985 0.988587)
(-0.0321724 -0.145137 0.988888)
(0.858973 -0.286072 0.42465)
(-0.382045 0.7443 -0.547776)
(0.935875 -0.352206 0.00944043)
(0.372443 -0.339676 0.863659)
(0.913806 0.0379274 0.404377)
(0.790851 -0.609733 0.0527316)
(0.172816 -0.404205 0.898194)
(0.99154 0.0964769 -0.0868419)
(0.999777 0.0206868 -0.00415114)
(0.998753 -0.0499235 -0.000174119)
(0.947674 -0.304871 0.0947015)
(-0.00560536 -0.00149326 0.999983)
(-0.0180385 0.0101142 0.999786)
(-0.270892 0.00352179 0.962603)
(-0.075566 -0.0144486 0.997036)
(0.961411 -0.260454 -0.0886192)
(0.00547169 -0.00590985 0.999968)
(0.756816 0.604316 -0.249061)
(0.977627 -0.101317 -0.184338)
(0.81012 0.583349 0.0583926)
(0.581519 0.8073 -0.100508)
(-0.419347 0.890185 0.178096)
(0.968688 0.123374 -0.215457)
(0.991022 0.131076 -0.0263578)
(-0.0793516 0.00487369 0.996835)
(0.984001 -0.177621 0.0138913)
(0.88166 0.110086 -0.458865)
(0.998234 0.0592022 -0.00493281)
(0.986073 0.117133 -0.11807)
(0.981575 -0.181286 -0.0603848)
(0.99649 0.083655 -0.00309543)
(0.996514 0.0466489 -0.0691645)
(0.999667 0.0128657 -0.0223653)
(0.998383 0.0147718 -0.0548911)
(0.999965 -0.00790266 -0.00282492)
(0.999931 -0.0110108 -0.00417278)
(0.996341 0.0242478 -0.0819503)
(0.0193685 0.999763 -0.00993781)
(0.0446849 0.998558 -0.0297439)
(0.999986 -0.00473908 -0.00251842)
(0.998638 0.00218388 -0.0521304)
(0.999986 -0.00485043 -0.00188306)
(0.885859 0.460168 -0.0591562)
(0.987607 0.156947 0.000354353)
(0.978375 0.206697 -0.00765962)
(0.908892 0.407567 -0.0883488)
(-0.583849 0.811595 -0.0208085)
(-0.0577114 0.998312 0.00645429)
(0.997685 0.0678274 0.00498137)
(0.234261 -0.0328638 0.971618)
(0.860716 -0.389187 0.328178)
(0.965837 -0.25914 0.00250724)
(-0.00758683 0.0101513 0.99992)
(-0.196092 0.00171765 0.980584)
(0.000300865 0.00533115 0.999986)
(-0.0117597 -0.00404386 0.999923)
(0.968796 -0.240184 -0.0611969)
(0.010796 0.00372107 0.999935)
(0.966871 -0.255192 -0.00614863)
(0.000138166 0.00562399 0.999984)
(0.00387273 0.00550261 0.999977)
(-0.0323289 0.00211885 0.999475)
(-0.032206 0.000433853 0.999481)
(0.967358 -0.252158 -0.0251854)
(0.00416125 0.00528097 0.999977)
(0.995002 0.0998345 -0.00204584)
(-0.00580662 0.00628536 0.999963)
(0.989855 -0.142022 0.00417812)
(-0.285941 -0.0370076 0.957532)
(0.991237 0.132086 -0.0014385)
(-0.385934 -0.0528341 0.921012)
(0.989298 -0.145884 0.00272155)
(0.967464 -0.25203 -0.0222201)
(0.0036141 0.00560011 0.999978)
(-0.0321139 0.00194418 0.999482)
(0.000698132 0.00552564 0.999984)
(-0.0247981 0.00126133 0.999692)
(0.967793 -0.251595 -0.00878864)
(0.00529761 0.00489498 0.999974)
(0.968556 -0.248644 -0.00865441)
(-9.54571e-05 0.00691553 0.999976)
(0.0049338 0.00690241 0.999964)
(-0.0386108 0.00188347 0.999253)
(-0.0320219 0.00205715 0.999485)
(0.968425 -0.247737 -0.027909)
(0.00416079 0.00671278 0.999969)
(0.991802 0.127776 -0.00144724)
(-0.00295611 0.00734219 0.999969)
(0.993196 -0.116439 0.00200473)
(-0.146393 -0.0176654 0.989069)
(0.985036 0.172251 -0.00580561)
(-0.115084 -0.0130733 0.99327)
(0.992649 -0.120719 0.00859986)
(0.968937 -0.245584 -0.029155)
(0.00317721 0.00764478 0.999966)
(-0.0446912 0.00173542 0.998999)
(-0.00503961 0.007537 0.999959)
(-0.0505551 0.000662068 0.998721)
(0.969066 -0.246515 -0.0118825)
(0.00282879 0.00727064 0.99997)
(0.134461 -0.104735 0.985368)
(-0.0498406 -0.0261022 0.998416)
(-0.102872 -0.0493438 0.99347)
(-0.0897604 -0.0426116 0.995051)
(-0.0637089 -0.0187834 0.997792)
(0.139255 0.700442 -0.699992)
(-0.0566924 -0.0240447 0.998102)
(0.964685 0.24874 -0.0866698)
(-0.0718258 -0.032391 0.996891)
(0.937325 0.0236609 -0.347652)
(-0.116736 -0.0648863 0.991041)
(0.918758 0.37322 -0.128802)
(-0.104948 -0.0364433 0.99381)
(0.971543 -0.00727001 -0.236752)
(0.24669 0.969087 0.00374413)
(-0.182119 -0.0959171 0.978587)
(-0.107019 -0.0465469 0.993167)
(-0.246038 -0.146065 0.958191)
(-0.149761 0.0357268 0.988077)
(0.190191 0.859899 -0.473709)
(-0.345131 -0.195159 0.91804)
(0.20148 0.752717 -0.626756)
(0.742913 -0.480158 0.466399)
(0.202216 0.944466 -0.259021)
(0.52965 0.839858 -0.118781)
(0.528606 0.817987 -0.226876)
(0.868584 -0.0609549 0.491779)
(0.314976 0.923113 -0.220572)
(0.0737354 0.891567 -0.446847)
(0.783233 -0.486196 0.387504)
(-0.277892 0.958282 -0.066867)
(-0.665312 0.745012 -0.0481397)
(0.780003 -0.38019 -0.497042)
(0.956309 -0.27524 0.098567)
(0.748617 -0.66183 -0.0394016)
(0.98275 -0.0983552 0.156614)
(0.832109 -0.554164 0.0223063)
(0.96236 -0.271594 0.010019)
(0.975248 -0.108484 -0.192671)
(0.987559 0.153455 -0.0343365)
(0.948702 -0.250433 -0.192995)
(0.9887 0.105881 0.106118)
(0.997016 0.0754216 0.0164331)
(0.905536 -0.271149 -0.326316)
(0.977732 0.209151 0.0171973)
(0.99303 0.10897 0.0449207)
(-0.696527 0.71681 -0.0321434)
(-0.672374 0.739058 0.0412992)
(0.725591 -0.687745 0.0228995)
(0.729631 -0.482875 -0.484221)
(-0.644879 0.402778 0.649539)
(0.988939 -0.0991407 0.110323)
(0.992912 0.050079 0.107783)
(-0.107727 0.993009 0.0482545)
(-0.0192386 0.999467 0.0263607)
(0.948868 0.304495 -0.0832649)
(0.103298 0.993689 -0.04372)
(0.848979 0.464286 -0.252335)
(-0.0964514 0.995067 0.0231924)
(-0.0947881 0.994217 0.050467)
(0.994913 -0.0575995 0.0826489)
(0.994707 0.0610058 0.0826808)
(-0.0106188 0.999921 0.00679609)
(-0.0218037 0.999762 -0.000238201)
(0.996928 -0.00686949 -0.0780225)
(-0.00535411 0.999968 0.00593682)
(0.013961 0.999854 -0.00987058)
(-0.00438898 0.999984 -0.00353445)
(-0.00499476 0.99998 0.00393582)
(0.623802 0.781582 0.000719923)
(0.726554 -0.684978 0.0540767)
(0.481247 0.876573 0.00469826)
(-0.564352 0.81022 -0.158276)
(0.126622 0.991779 0.0184871)
(0.236033 0.97146 0.0235366)
(-0.197492 0.90631 -0.37363)
(0.934782 0.354465 -0.0231874)
(0.888713 -0.260245 -0.377442)
(-0.0886848 0.996054 -0.0032856)
(0.970179 -0.194564 0.14456)
(0.752036 0.65555 0.068525)
(0.954774 0.285493 0.083066)
(0.125598 0.991876 0.0201679)
(-0.0688434 0.997583 0.00945672)
(0.280966 0.959275 0.0291471)
(0.971377 -0.136505 0.194404)
(0.415103 0.909026 0.036892)
(0.933835 0.347801 0.0835921)
(0.844211 -0.532815 -0.0584542)
(0.848258 -0.5242 0.075315)
(0.98728 0.158408 -0.0136194)
(0.988329 0.152237 -0.00547005)
(0.997145 0.0749363 -0.00934375)
(-0.0153308 0.00668277 0.99986)
(0.74282 0.0999982 -0.661981)
(0.987285 -0.158891 0.0046704)
(0.968363 0.133855 -0.21061)
(0.993908 0.110194 -0.00210928)
(0.986293 -0.164822 -0.00770221)
(0.988298 0.152408 -0.00622922)
(0.988725 0.149643 -0.00551882)
(0.855939 -0.51141 0.0763434)
(0.852282 -0.521827 -0.0362165)
(0.656275 0.754513 -0.00376049)
(0.651743 0.758432 -0.00362861)
(0.0924867 0.995381 0.0257427)
(0.112853 0.993271 0.0260213)
(0.12546 0.99173 0.0270562)
(-0.050203 0.998419 0.025295)
(0.101063 0.994539 0.0260507)
(0.129531 0.991251 0.0253481)
(0.115404 0.992978 0.0260008)
(0.0683652 0.997384 0.0234892)
(-0.0513163 0.998378 0.0246434)
(0.0971186 0.994938 0.0257996)
(0.870551 -0.491783 -0.0170685)
(0.872271 -0.48412 0.0690811)
(0.988184 0.153239 -0.00324103)
(0.9882 0.15313 -0.00344253)
(0.993285 0.115692 -0.000640239)
(-0.00289607 0.00626386 0.999976)
(-0.141703 -0.0169302 0.989764)
(0.991649 -0.128791 0.00673915)
(-0.153257 -0.0192226 0.987999)
(0.989031 0.147704 -0.00110261)
(0.99126 -0.131787 0.00589703)
(0.988076 0.153935 -0.00314924)
(0.988163 0.15338 -0.0030545)
(0.876584 -0.47622 0.0693902)
(0.875332 -0.483295 -0.0148303)
(0.986278 0.165013 -0.0051877)
(0.981752 0.190095 -0.0051742)
(-0.0192185 0.999702 0.0150809)
(0.00118387 0.999834 0.0181821)
(0.00688898 0.999851 0.0158093)
(-0.0618329 0.997999 0.0131992)
(-0.00990617 0.99987 0.0126989)
(0.0300583 0.999315 0.021588)
(0.00456083 0.999816 0.0186393)
(-0.0215034 0.999719 0.00993998)
(-0.0619386 0.998002 0.0124577)
(-0.011795 0.999855 0.0122952)
(0.88889 -0.457623 -0.0213305)
(0.899175 -0.436296 0.0336113)
(0.987615 0.156736 -0.00708303)
(0.987213 0.158984 -0.0116424)
(0.988978 0.147255 -0.0154647)
(-0.0253443 0.00601876 0.999661)
(-0.123924 -0.0194026 0.992102)
(0.9957 -0.0769746 -0.0515417)
(-0.133618 -0.0174719 0.990879)
(0.973654 0.225681 -0.0326413)
(0.995474 -0.0910931 -0.0270908)
(0.986751 0.160685 -0.0224419)
(0.98698 0.160285 -0.0134224)
(0.924332 -0.381367 -0.0130526)
(0.903868 -0.425466 -0.0447335)
(0.99949 -0.0209286 -0.0241129)
(0.996724 -0.0780908 -0.0210362)
(0.0307004 0.960969 0.274948)
(-0.052148 0.998553 0.013141)
(-0.026182 0.999611 0.0096313)
(-0.0606992 0.998153 -0.0024855)
(-0.0290176 0.999493 0.0131244)
(-0.04407 0.998968 0.0110332)
(-0.0506689 0.998636 0.0125634)
(0.0637551 0.951689 0.300373)
(-0.062726 0.998011 -0.00629047)
(-0.0302872 0.999443 0.0140301)
(0.991713 -0.0784399 -0.10175)
(0.95573 -0.293701 0.017863)
(0.950918 0.157794 -0.266188)
(0.922942 0.0670152 -0.379062)
(0.910632 0.0922152 -0.402798)
(-0.370224 -0.183137 0.910711)
(-0.111347 0.0613663 0.991885)
(0.707366 0.0438078 -0.705489)
(0.968846 -0.00522632 -0.247609)
(0.920861 -0.3173 -0.226575)
(-0.283841 0.763039 -0.580694)
(0.967871 -0.071078 0.241191)
(-0.624192 0.781228 0.00819002)
(-0.198214 -0.17363 0.964657)
(0.87439 -0.478056 0.0830982)
(0.997155 -0.0697261 -0.0286484)
(0.982929 0.109031 0.1482)
(0.985052 -0.140471 -0.099705)
(0.947765 -0.0704969 0.311082)
(0.208012 -0.145325 0.96727)
(0.991436 0.0902476 0.0943968)
(-0.0581008 -0.0496212 0.997077)
(0.931899 0.0729574 0.355303)
(0.976103 -0.173909 -0.130299)
(0.0437671 -0.165787 0.98519)
(0.979654 0.200537 0.00786477)
(0.932482 0.282348 0.225292)
(0.92848 0.0958797 0.358793)
(0.98079 -0.193743 0.0226786)
(0.920095 -0.388113 -0.052852)
(-0.101405 -0.0195472 0.994653)
(-0.153285 -0.0874437 0.984305)
(0.827945 0.461665 0.318391)
(0.387265 0.893938 0.225613)
(0.922264 -0.0152567 0.386259)
(0.642562 0.766137 -0.0121773)
(0.994567 0.102885 -0.015845)
(0.99451 0.104289 -0.00862033)
(0.999233 0.0296419 0.0255837)
(0.961841 0.0553067 0.267962)
(0.998415 -0.0516703 0.0222924)
(0.99934 0.0147145 0.0332151)
(0.93182 -0.296935 0.208663)
(0.999868 0.0140456 0.00813838)
(0.960261 -0.26784 0.0784921)
(3.77189e-06 -0.0130983 0.999914)
(0.996326 0.0803144 0.0297326)
(-0.0761462 -0.00393316 0.997089)
(0.996836 -0.0708551 -0.0360308)
(0.635612 0.00504857 0.771992)
(0.0148461 -0.0177225 0.999733)
(-0.00632977 0.00227623 0.999977)
(-0.00233463 -0.00198647 0.999995)
(0.989355 0.141844 -0.0325204)
(0.992845 0.119279 -0.00552007)
(0.98172 0.19031 -0.00277421)
(0.991755 0.127677 0.0109442)
(-0.0758474 -0.0111865 0.997057)
(-0.0199539 -0.00429853 0.999792)
(0.549882 0.742778 -0.381982)
(0.379696 0.924551 -0.0322015)
(0.708256 0.704047 0.0518772)
(0.991843 -0.0619426 -0.111406)
(0.900724 0.425465 -0.0876142)
(0.786504 0.616566 0.0354701)
(-0.557605 -0.325632 0.763571)
(0.800243 0.599623 0.00798142)
(0.814007 0.578399 -0.0533557)
(-0.349903 0.936253 -0.031588)
(0.945784 0.279486 -0.165469)
(-0.217591 0.972636 0.0814472)
(0.991685 -0.0223118 -0.126738)
(-0.239328 0.970935 0.00284927)
(-0.279766 0.959987 -0.0124577)
(-0.59049 -0.0766675 0.803395)
(0.987399 0.155121 -0.0313192)
(-0.169853 0.00205242 0.985467)
(0.98737 0.150086 -0.0507372)
(0.960844 -0.238599 -0.14089)
(0.995248 -0.0966731 0.0116732)
(0.992045 0.121604 -0.0325514)
(0.968637 -0.209937 -0.132921)
(0.842844 -0.535498 0.0534495)
(0.822881 -0.540182 -0.176269)
(0.988467 0.150344 -0.0181797)
(0.991751 0.127679 -0.0113436)
(0.9812 0.19291 0.00569435)
(0.99065 0.136319 -0.00546756)
(0.710679 -0.479975 -0.514353)
(0.827894 -0.55211 -0.0988229)
(0.995812 0.0872945 0.0271591)
(0.986261 -0.0181561 0.164194)
(0.99921 0.0385043 0.00982885)
(0.996514 0.0524057 -0.0649155)
(0.999667 -0.0245453 -0.00794319)
(0.991751 -0.126819 -0.0186209)
(0.987121 -0.00447366 0.159911)
(0.999059 -0.0386847 0.0196264)
(0.997367 -0.0716463 0.0112249)
(0.995395 0.0505943 0.0814187)
(0.994414 -0.0674002 0.0812235)
(0.998246 0.0205647 -0.0555245)
(0.999836 -0.0166272 -0.00711051)
(0.999873 -0.015195 -0.00479429)
(0.999633 -0.0096485 0.0252965)
(0.988402 -0.0116056 0.151416)
(0.999619 -0.0136133 0.0240126)
(0.999413 -0.0272543 0.0207663)
(0.98839 -0.0116012 0.151498)
(0.999544 -0.0190851 0.0233889)
(0.995924 0.0366007 -0.0824322)
(0.0893484 0.995008 -0.0444554)
(0.0395837 0.998978 -0.021838)
(-0.0353339 0.99937 0.00337308)
(-0.0232962 0.999682 0.00969976)
(-0.0528961 0.998437 0.0180615)
(-0.0493234 0.998754 0.00761386)
(0.999656 -0.00579199 0.0255605)
(0.988375 -0.00166398 0.152026)
(0.999643 -0.00560369 0.0261071)
(0.998648 -0.0014135 -0.0519555)
(0.999686 0.0249333 -0.00242758)
(0.999998 0.000166923 -0.0018135)
(0.988362 -0.00176715 0.15211)
(0.999622 0.00977742 0.0257059)
(0.999657 -0.00133152 0.0261588)
(0.956286 -0.279129 0.087205)
(0.95918 -0.269679 0.0851266)
(0.939643 0.336999 -0.0591884)
(0.998735 0.0501765 -0.00327445)
(0.985401 0.170098 -0.00718611)
(0.999274 0.027569 0.02631)
(0.952415 -0.268201 0.144825)
(0.994035 0.107072 0.0207376)
(0.999407 0.0236365 0.0250342)
(0.966098 -0.210109 0.150027)
(0.996042 0.086255 0.0214763)
(0.943217 0.319706 -0.0901648)
(0.000603134 0.999998 -0.00207658)
(-0.0612238 0.998004 0.0155121)
(-0.0490747 0.962164 -0.268016)
(0.0667695 0.997736 -0.00802108)
(0.00910887 0.999958 0.000497177)
(0.0472625 0.998851 -0.00792409)
(0.975249 0.188558 -0.115481)
(0.936889 -0.349386 -0.0129776)
(0.977111 0.170696 -0.126954)
(0.995491 -0.0924636 0.021165)
(0.848679 -0.525056 0.0637175)
(0.76549 -0.539952 0.349967)
(0.262861 0.294956 0.918643)
(-0.109173 0.993097 -0.0428785)
(0.988312 0.141529 -0.0566455)
(0.96036 0.196157 -0.198071)
(-0.543793 0.627716 -0.557011)
(0.980013 -0.0842229 -0.180226)
(-0.105609 0.994236 -0.0184883)
(0.966487 0.172663 -0.189976)
(0.980948 -0.19359 -0.0162227)
(0.0273825 -0.634406 0.772515)
(0.9821 0.178954 -0.0587876)
(0.97526 0.17302 -0.137597)
(-0.338686 0.691569 -0.637984)
(0.911158 0.412057 -0.000204934)
(0.89073 0.454533 0.000900157)
(-0.117534 0.993067 0.00168423)
(-0.199037 0.979992 0.000810488)
(0.0752569 0.996652 -0.0319703)
(-0.620251 0.763726 -0.178917)
(0.989655 0.114155 0.0868955)
(0.356916 0.926175 -0.121699)
(-0.0938381 0.995581 0.00345506)
(-0.267277 0.960332 -0.0795358)
(0.0147398 0.999244 -0.0359791)
(-0.194307 0.980941 -9.82568e-05)
(0.982687 0.180744 0.0407087)
(0.755092 0.645775 -0.113186)
(0.603373 0.797458 -0.00154607)
(0.606026 0.795443 -0.0017103)
(0.970953 0.209668 -0.115277)
(-0.694156 0.719792 0.00687785)
(0.843063 0.527237 -0.106142)
(-0.0846819 0.996332 0.0123087)
(-0.074361 0.997226 0.00333136)
(-0.102858 0.994659 0.00852483)
(-0.202084 0.979032 0.0256541)
(-0.0857676 0.996234 0.0126924)
(-0.117769 0.992978 0.0111451)
(-0.685136 0.728385 0.00664872)
(0.143657 0.989294 -0.025697)
(0.586797 0.805971 -0.0779735)
(0.904523 0.426377 -0.00647057)
(0.904878 0.425617 -0.00677274)
(-0.126851 0.991914 0.00393299)
(-0.170858 0.985289 -0.00355427)
(-0.134512 0.99089 0.00659002)
(0.0216487 0.999571 0.019706)
(-0.0927528 0.995638 0.0101296)
(-0.0996537 0.994969 0.0102911)
(-0.0993895 0.995027 0.00652036)
(0.0216389 0.999568 0.0198663)
(-0.101371 0.994798 0.0100367)
(-0.170726 0.985311 -0.00381498)
(-0.129662 0.991533 0.00705811)
(-0.133997 0.990958 0.00685773)
(0.997453 -0.0318292 0.0638321)
(0.995366 -0.0771114 0.057445)
(0.907456 -0.39141 0.152713)
(0.947912 -0.30637 0.087182)
(0.996213 -0.0466212 0.0733907)
(0.984947 0.15423 0.0780493)
(0.865429 -0.474864 0.159805)
(0.996801 -0.0351133 0.0717978)
(0.947977 -0.300923 0.103848)
(0.994898 -0.0813787 0.0596218)
(0.127831 0.991612 0.0191045)
(0.135637 0.990494 0.0228953)
(-0.0431549 0.998666 0.028362)
(0.128289 0.991367 0.0270722)
(0.139931 0.989822 0.0259017)
(0.128268 0.991518 0.0209813)
(-0.0428313 0.998682 0.0282682)
(0.14005 0.989816 0.0255086)
(0.130991 0.991064 0.0251804)
(0.135865 0.990453 0.0232927)
(0.997418 -0.0287834 0.065793)
(0.996582 -0.0235542 0.0791768)
(-0.359821 0.927861 -0.0979927)
(0.956363 0.271811 0.107187)
(0.973986 0.205486 0.0955361)
(0.982632 0.16747 0.0799261)
(-0.412955 0.904457 -0.106894)
(0.975057 0.201219 0.0936684)
(0.995174 -0.0304456 0.0932848)
(0.996428 -0.0239729 0.0809722)
(0.00624166 0.00466696 0.99997)
(0.00546249 0.00230843 0.999982)
(0.988636 0.148528 -0.0231825)
(0.989894 0.141799 -0.00170763)
(0.964289 -0.264587 0.0118729)
(0.000419948 0.00550998 0.999985)
(-0.0629456 0.00290017 0.998013)
(0.00125635 0.00708467 0.999974)
(-0.0320759 -0.00275019 0.999482)
(0.966213 -0.255263 -0.0356706)
(0.00653122 0.00467944 0.999968)
(0.989819 0.141954 -0.0103852)
(0.990263 0.139137 -0.00454999)
(0.00302272 0.00260857 0.999992)
(0.0139478 0.00423679 0.999894)
(0.966538 -0.255767 -0.0196737)
(0.000923384 0.00558382 0.999984)
(-0.0527987 0.00241748 0.998602)
(0.00270166 0.00671483 0.999974)
(0.967487 -0.252257 -0.0183116)
(-0.0248779 0.000182693 0.99969)
(0.00670399 0.00477638 0.999966)
(0.00291641 0.00206286 0.999994)
(0.0123458 0.00411881 0.999915)
(0.989846 0.142009 -0.00612174)
(0.989968 0.14119 -0.0052966)
(0.989685 0.143008 -0.00851161)
(0.989915 0.141596 -0.00437556)
(0.012049 0.00461568 0.999917)
(0.0039084 0.00208335 0.99999)
(0.991893 0.127037 -0.0032414)
(-0.00636159 0.00630562 0.99996)
(-0.641669 -0.0868998 0.762043)
(0.98781 -0.155584 0.00506629)
(0.997249 0.0741051 -0.00155096)
(-0.445961 -0.0620262 0.892901)
(0.988546 -0.150917 0.000136782)
(0.867363 -0.492539 0.0713173)
(0.865312 -0.500828 -0.0201475)
(0.988219 0.152997 -0.00387124)
(0.98834 0.152218 -0.00367537)
(0.988106 0.153696 -0.00488016)
(0.988307 0.152423 -0.00392822)
(0.859586 -0.510451 -0.0234977)
(0.861781 -0.501867 0.0739129)
(-0.493569 0.869702 0.0027512)
(0.0182641 0.99977 -0.0112591)
(0.037634 0.999201 -0.013426)
(-0.0684886 0.997649 0.00221888)
(-0.077807 0.996942 0.00721402)
(-0.0559922 0.998431 -0.000202667)
(-0.507579 0.8616 0.00301568)
(0.104889 0.994259 -0.0211389)
(0.047727 0.998754 -0.0145592)
(-0.0452364 0.998974 -0.0022791)
(-0.076759 0.997028 0.00649887)
(-0.0531164 0.998588 -0.000755209)
(0.911417 0.411333 -0.0111332)
(0.910807 0.412691 -0.0108368)
(-0.176876 0.984204 -0.00755797)
(-0.113246 0.993544 0.00672136)
(-0.120123 0.992735 0.00693111)
(-0.0902965 0.995865 0.00995136)
(0.0160372 0.99977 0.0142673)
(-0.0828583 0.996518 0.00930833)
(-0.175923 0.984376 -0.00735018)
(-0.127887 0.991764 0.00704636)
(-0.122212 0.992479 0.00697329)
(-0.0727122 0.997319 0.00829066)
(0.0157033 0.999786 0.0134943)
(-0.0804206 0.99672 0.00908939)
(0.768886 0.639364 -0.00531229)
(0.784282 0.620382 -0.00539369)
(0.0138206 0.999847 -0.0107423)
(-0.273967 0.961738 -0.0016012)
(0.00362705 0.999949 -0.00937561)
(-0.0668492 0.997762 0.0017555)
(-0.0324187 0.999466 -0.00398378)
(-0.0369516 0.999311 -0.00350071)
(-0.0432181 0.999062 -0.00264248)
(-0.0682322 0.997667 0.00224146)
(-0.0386257 0.999248 -0.00326522)
(-0.261115 0.965306 -0.00189141)
(-0.00271064 0.999962 -0.00823533)
(0.00129524 0.999959 -0.00900741)
(0.923472 0.383347 -0.0156599)
(0.924782 0.38016 -0.016017)
(-0.110925 0.993807 0.00664935)
(-0.198983 0.979946 -0.010557)
(-0.103818 0.994575 0.00647633)
(0.0183831 0.999794 0.00858339)
(-0.0530573 0.998571 0.00642301)
(-0.0604984 0.998143 0.00716699)
(-0.0702371 0.997498 0.00804653)
(0.0176356 0.999803 0.00908471)
(-0.0630264 0.997984 0.00742963)
(-0.201922 0.979343 -0.0107092)
(-0.0931123 0.995638 0.00599721)
(-0.101316 0.994834 0.00640008)
(0.986587 -0.103712 0.126052)
(0.992643 -0.0496697 0.110419)
(0.950525 0.2911 0.108457)
(-0.11202 0.992482 -0.0493003)
(0.748584 0.656059 0.0959588)
(0.994961 -0.0318319 0.0950721)
(0.993027 -0.0464028 0.108368)
(0.196647 0.980121 0.0263324)
(-0.0928444 0.994661 -0.0450515)
(0.660571 0.745844 0.0858077)
(0.0892933 0.995675 0.0256475)
(0.0646521 0.997608 0.0244491)
(-0.0587717 0.998097 0.0186726)
(0.0098025 0.999819 0.0162852)
(0.0332049 0.999255 0.0196488)
(0.0643798 0.997658 0.0231211)
(-0.0580236 0.998125 0.0194748)
(0.0369431 0.999115 0.020123)
(0.0339198 0.999183 0.0219729)
(0.0609075 0.99785 0.0242011)
(0.983484 -0.127613 0.12835)
(-0.0392581 0.999123 -0.0145853)
(-0.00354064 0.999709 -0.0238633)
(0.0595278 0.998214 0.00498345)
(0.0819279 0.996594 0.00937511)
(0.172257 0.984785 0.0229506)
(-0.0107789 0.999611 -0.0257119)
(0.08771 0.996092 0.0103555)
(0.0243298 0.999679 -0.00709872)
(-0.0220939 0.999679 -0.0123943)
(0.0117605 0.00412501 0.999922)
(0.00312975 0.00195832 0.999993)
(0.989821 0.142202 -0.00575791)
(0.989849 0.142041 -0.00475239)
(0.967843 -0.251443 -0.00754257)
(0.000333659 0.00569306 0.999984)
(-0.0248466 0.00215208 0.999689)
(0.00475947 0.00538052 0.999974)
(-0.028877 0.00132998 0.999582)
(0.967971 -0.249976 -0.023336)
(0.00376163 0.00543275 0.999978)
(0.989773 0.142563 -0.00502287)
(0.989841 0.142084 -0.00512481)
(0.00333274 0.00213414 0.999992)
(0.011867 0.00409104 0.999921)
(0.968146 -0.2492 -0.0243234)
(0.000860077 0.00638436 0.999979)
(-0.0270385 0.00218757 0.999632)
(0.00410948 0.00592591 0.999974)
(0.968354 -0.249475 -0.00721259)
(-0.0262834 0.00211293 0.999652)
(0.00544441 0.00584779 0.999968)
(0.00474529 0.00303111 0.999984)
(0.0131114 0.00480021 0.999903)
(0.989544 0.143986 -0.00845586)
(0.989665 0.143263 -0.00623387)
(0.989755 0.142684 -0.00511322)
(0.989697 0.143072 -0.00545521)
(0.0122998 0.00433832 0.999915)
(0.00415568 0.00250538 0.999988)
(0.98739 0.158297 -0.0018745)
(-0.000625693 0.00687468 0.999976)
(-0.111158 -0.0125151 0.993724)
(0.991967 -0.126114 0.00988597)
(0.992667 0.120879 -0.000312341)
(-0.123926 -0.0144581 0.992186)
(0.992275 -0.123643 0.0101596)
(0.885012 -0.461891 0.0583931)
(0.881841 -0.471451 -0.00952022)