/*--------------------------------*- C++ -*----------------------------------*\
| =========                 |                                                 |
| \\      /  F ield         | OpenFOAM: The Open Source CFD Toolbox           |
|  \\    /   O peration     | Version:  2012                                  |
|   \\  /    A nd           | Website:  www.openfoam.com                      |
|    \\/     M anipulation  |                                                 |
\*---------------------------------------------------------------------------*/
FoamFile
{
    version     2.0;
    format      ascii;
    class       volVectorField;
    location    "0.105/solid";
    object      sigmaMinDir;
}
// * * * * * * * * * * * * * * * * * * * * * * * * * * * * * * * * * * * * * //

dimensions      [1 -1 -2 0 0 0 0];


internalField   nonuniform List<vector> 
24998
(
(0.172872 0.70429 0.688543)
(0.181927 0.941215 0.284635)
(0.121188 -0.0134398 0.992539)
(0.0795767 -0.00498145 0.996816)
(0.298725 -0.0937278 0.949726)
(0.0712916 0.997429 -0.0072796)
(0.0554577 0.998442 -0.00611826)
(0.0455704 0.998933 -0.00745215)
(0.032616 0.995398 0.0901011)
(0.237991 0.709834 0.662944)
(0.0618488 0.00494427 0.998073)
(0.174555 0.984634 -0.00520508)
(0.322146 0.945707 0.0431247)
(0.137607 -0.0131875 0.990399)
(0.0733029 0.997285 -0.00705966)
(0.0736454 0.0033543 0.997279)
(0.0534467 -0.00088534 0.99857)
(0.0799856 -0.00130889 0.996795)
(0.0529997 -0.00162557 0.998593)
(0.173847 -0.0727457 0.982082)
(0.253172 -0.096905 0.962556)
(0.242339 -0.0456259 0.969118)
(0.171249 0.985206 -0.00658991)
(0.165443 0.986203 -0.00573279)
(0.0566096 0.998377 -0.00616172)
(0.164896 0.986294 -0.00573605)
(0.161746 0.986807 -0.0070886)
(0.0476004 0.998839 -0.00745122)
(0.160907 0.986943 -0.00717303)
(0.158979 0.985347 0.0617809)
(0.0226672 0.998024 0.0585996)
(0.169056 0.980009 0.104894)
(0.571897 0.818209 -0.0588833)
(0.809357 -0.225694 -0.542221)
(-0.00571702 0.45651 0.8897)
(0.0422561 0.159332 0.98632)
(0.108215 0.99308 0.0456144)
(-0.00498283 -0.0976959 0.995204)
(-0.179333 -0.0393266 0.983002)
(-0.0870009 -0.00507749 0.996195)
(0.0873431 -0.00701718 0.996154)
(-0.0818474 0.000804166 0.996645)
(-0.084662 -0.00420834 0.996401)
(0.0788826 0.00210538 0.996882)
(0.812387 -0.583103 -0.00425)
(-0.233922 -0.475908 0.847816)
(-0.471925 0.87869 0.0720499)
(-0.15485 0.0104549 0.987883)
(-0.332983 -0.0383507 0.942153)
(0.0627219 0.998008 -0.0068473)
(0.718628 -0.695394 0.0010184)
(0.779342 -0.626598 -0.00103129)
(-0.388767 -0.0431542 0.920325)
(-0.429311 -0.0437748 0.902095)
(0.0521719 0.998618 -0.00634181)
(0.024716 0.999653 -0.0090719)
(-0.438783 0.898582 -0.00444376)
(-0.490781 -0.043519 0.870195)
(-0.549061 -0.0426203 0.834695)
(0.035646 0.999364 -0.00133662)
(0.976773 -0.154048 0.148943)
(0.147931 0.988833 -0.0180269)
(-0.638686 -0.0405302 0.7684)
(0.915965 0.191526 -0.3526)
(0.739384 0.673151 0.0134058)
(0.026841 0.166414 0.985691)
(0.169787 0.984119 0.0517923)
(-0.590923 0.288739 0.753286)
(-0.199466 -0.0363682 0.97923)
(0.885253 -0.09698 -0.454887)
(0.0226033 0.0874888 0.995909)
(-0.200619 -0.00776214 0.979639)
(-0.591804 0.157861 0.790473)
(0.171656 0.984858 0.0242771)
(-0.115436 0.452168 0.884431)
(0.0847773 -0.0441182 0.995423)
(0.0214735 0.0917107 0.995554)
(0.0703673 -0.0330778 0.996973)
(0.182016 0.00295852 0.983291)
(0.0973673 0.995012 0.0217102)
(-0.18393 -0.0171782 0.982789)
(0.0581569 -0.00281591 0.998303)
(-0.153467 -0.00142159 0.988153)
(-0.0815631 -0.00188274 0.996666)
(-0.0860612 -0.00219058 0.996287)
(0.0574001 -0.00316153 0.998346)
(-0.15159 -0.000520325 0.988443)
(-0.152692 -0.000446706 0.988274)
(0.0862282 -0.00978619 0.996227)
(-0.151714 0.000192493 0.988424)
(0.0528812 -9.56545e-05 0.998601)
(-0.152638 -0.00212303 0.98828)
(-0.221901 -0.445758 0.867214)
(-0.0856685 -0.00348959 0.996318)
(0.054145 -0.00229681 0.99853)
(-0.211064 -0.238562 0.947914)
(-0.153323 -0.00383256 0.988169)
(0.079495 -0.00234778 0.996833)
(0.645114 0.76407 -0.00511275)
(-0.254153 -0.263795 0.930494)
(-0.185445 0.0793666 0.979444)
(-0.570627 -0.0594377 0.819056)
(-0.481535 0.870492 0.101821)
(-0.430768 0.902462 -0.000723056)
(0.781498 -0.608348 -0.13847)
(0.984215 0.176698 -0.00992402)
(0.0377049 -0.0648845 0.99718)
(-0.351518 -0.0102252 0.936125)
(-0.616401 0.776164 0.132739)
(0.809151 -0.587587 -0.00400357)
(0.782064 -0.623197 -0.00116153)
(0.655023 0.755589 -0.0054421)
(-0.59879 -0.0573382 0.798851)
(-0.576233 -0.0609594 0.815009)
(0.790732 0.612087 -0.00961622)
(-0.429614 0.903012 -0.00099118)
(-0.42077 0.907157 -0.00425805)
(0.984411 0.175574 -0.0103968)
(-0.429546 -0.00776041 0.903012)
(-0.361335 -0.0104721 0.932377)
(0.985067 0.171434 -0.0158958)
(0.00202874 -0.0781245 0.996942)
(-0.204056 0.00646697 0.978938)
(-0.383122 -0.0429869 0.922697)
(-0.340026 -0.0396471 0.93958)
(-0.269183 0.00991808 0.963038)
(-0.211532 0.00652969 0.977349)
(0.168296 0.985716 -0.00638269)
(0.167292 0.985887 -0.00630824)
(0.0611797 0.998105 -0.00661937)
(0.921085 0.389114 -0.0139046)
(-0.600715 -0.0562804 0.797479)
(0.799836 0.600138 -0.00989019)
(-0.612752 -0.0485855 0.78878)
(-0.401174 0.915971 -0.0075359)
(-0.419782 0.907614 -0.00444013)
(0.982686 0.183887 -0.0226488)
(-0.439328 -0.00714288 0.898299)
(0.984998 0.1718 -0.0162695)
(-0.505955 -0.00185717 0.862558)
(0.70896 -0.705248 0.00116268)
(-0.469314 0.883022 -0.00415283)
(0.927824 0.372747 -0.0141894)
(-0.629934 -0.0398394 0.775626)
(-0.614578 -0.0474832 0.787426)
(0.984516 0.174252 -0.0190959)
(-0.399218 0.916823 -0.00774562)
(-0.354857 0.934843 -0.0120421)
(0.982407 0.185311 -0.0231596)
(-0.575274 0.00620431 0.817937)
(-0.515113 -0.000960308 0.857122)
(0.974164 0.223438 -0.0328572)
(-0.27826 0.0105641 0.960448)
(-0.347776 0.0158181 0.937444)
(-0.483246 -0.0436088 0.874398)
(-0.435514 -0.0438077 0.899115)
(-0.438783 0.0234441 0.898287)
(-0.358562 0.0166759 0.933357)
(0.163543 0.986519 -0.00590085)
(0.163175 0.986578 -0.00619857)
(0.0512456 0.998664 -0.00660072)
(0.999398 0.0185359 -0.0293123)
(-0.63256 -0.0387716 0.773541)
(0.986504 0.162571 -0.0195247)
(-0.654646 -0.0317263 0.755269)
(-0.182937 0.982859 -0.0228741)
(-0.349519 0.936847 -0.0124269)
(0.938733 0.340599 -0.0526587)
(-0.583205 0.00732961 0.812292)
(0.97302 0.228239 -0.0337338)
(-0.633435 0.0154477 0.773641)
(0.0509991 0.998654 -0.00943079)
(0.160312 0.986921 -0.0169606)
(0.999484 0.0105298 -0.0303568)
(-0.68931 -0.0257738 0.724008)
(-0.658388 -0.0308329 0.752047)
(0.981745 -0.180127 -0.061089)
(-0.155315 0.987566 -0.0242877)
(0.525104 0.848338 -0.0677342)
(0.93368 0.353919 -0.0546115)
(-0.679776 0.0229259 0.733062)
(-0.639862 0.0165488 0.768312)
(0.813821 0.570941 -0.108268)
(-0.450702 0.0244878 0.892338)
(-0.534002 0.031838 0.844884)
(-0.627824 -0.0409052 0.77728)
(-0.558217 -0.0424546 0.828608)
(-0.620229 0.037339 0.783532)
(-0.545572 0.0327969 0.837422)
(0.157279 0.987553 -0.00178427)
(0.156049 0.987739 0.00447752)
(0.0310765 0.999503 0.00536562)
(0.997012 -0.061253 -0.0470731)
(-0.694543 -0.0252677 0.719007)
(0.977046 -0.202841 -0.0650878)
(0.942051 0.158847 -0.29548)
(0.853701 0.509778 0.106402)
(0.559059 0.825916 -0.0729127)
(0.945945 0.322498 -0.0344067)
(-0.684812 0.0234741 0.728342)
(0.803273 0.584318 -0.11544)
(0.924564 0.147671 -0.351247)
(-0.629809 0.037337 0.775852)
(0.887773 0.176595 -0.425057)
(0.610139 0.372802 0.699106)
(0.323615 -0.258297 0.910251)
(0.537812 -0.12735 0.833391)
(0.435262 0.898135 -0.0624529)
(0.175169 0.681526 0.71052)
(0.0910623 0.441322 0.892716)
(0.166075 0.941652 0.292763)
(-0.0479604 0.957565 0.284198)
(0.333471 0.498944 0.799907)
(0.265847 0.926969 0.264676)
(0.264033 -0.0523355 0.963093)
(0.0962179 -0.0289849 0.994938)
(0.266723 -0.0399473 0.962945)
(0.924773 -0.0134133 0.380282)
(0.0780917 0.00141086 0.996945)
(0.949436 -0.00744435 0.313874)
(0.228777 0.558667 0.797215)
(0.458897 0.754303 0.469512)
(-0.229486 0.864074 0.44801)
(-0.104226 0.99455 0.00274915)
(0.182385 0.983211 -0.00558687)
(-0.140267 0.990024 -0.013312)
(0.0683686 0.997647 -0.0051513)
(0.00924932 0.999926 0.00788492)
(-0.137793 0.990445 0.00563998)
(0.175647 0.984429 -0.00690288)
(-0.141219 0.989977 -0.001387)
(0.138708 0.990307 -0.00721222)
(-0.140857 0.990024 -0.0033657)
(0.0543168 0.998506 -0.00596419)
(-0.106132 0.994352 0.000374403)
(-0.141152 0.989985 -0.00242556)
(0.135216 0.99079 -0.00718142)
(-0.192604 0.981212 0.0112716)
(0.110191 0.99388 -0.00783425)
(-0.145117 0.989407 -0.00376089)
(0.0429421 0.999055 -0.00677694)
(-0.134906 0.990846 0.00491153)
(-0.146791 0.989163 -0.00286538)
(0.101847 0.994779 -0.00643114)
(-0.0240866 0.977754 0.208369)
(-0.00832597 0.995095 0.098569)
(-0.131426 0.989831 0.0544283)
(0.070211 0.986361 0.148867)
(-0.306163 0.928416 0.210494)
(-0.0646291 0.997902 -0.00379495)
(0.0253522 0.988964 0.145973)
(0.173106 0.942778 0.284963)
(0.435337 0.667799 0.603759)
(0.15863 0.445131 0.881303)
(0.191154 0.938735 0.28677)
(-0.154958 0.952875 0.260799)
(0.327712 0.49467 0.804927)
(0.407863 0.859424 0.308283)
(0.0703863 0.16251 0.984193)
(0.00413459 0.000842975 0.999991)
(0.00360753 0.0686916 0.997631)
(0.307281 0.951548 -0.0116398)
(0.176857 0.984234 0.0024611)
(0.404047 0.914736 -0.00196381)
(-0.0485493 0.998671 -0.0173163)
(-0.0340426 0.99935 0.011902)
(0.260869 0.965348 -0.0070712)
(0.404969 0.914325 0.00318776)
(-0.623023 0.782189 0.00472032)
(0.194731 0.76729 0.611021)
(-0.443193 0.544174 0.712359)
(0.142946 0.0202265 0.989524)
(0.244546 -0.0781606 0.966482)
(0.218113 -0.00827728 0.975889)
(-0.130943 0.991367 0.00673629)
(0.0777485 0.996972 0.0013147)
(0.177668 0.984088 -0.00221112)
(-0.134479 0.9907 -0.020709)
(-0.0591588 0.998212 0.00851368)
(-0.116343 0.993116 0.0135868)
(0.181599 0.983373 -0.000323121)
(0.00404949 -0.0112374 0.999929)
(0.0700578 -0.0177915 0.997384)
(0.0224732 -0.00830872 0.999713)
(0.0549333 -0.00246666 0.998487)
(0.00281709 -0.00100255 0.999996)
(0.00415637 -0.00151275 0.99999)
(0.0821451 -0.0071496 0.996595)
(0.919578 -0.0139119 0.39266)
(0.859319 -0.0232355 0.510913)
(0.00251585 -0.000548681 0.999997)
(0.05213 0.000214964 0.99864)
(0.00188334 5.46302e-05 0.999998)
(0.0804819 -0.0268437 0.996395)
(0.0430808 -0.27326 0.960975)
(0.0225879 -0.0699602 0.997294)
(0.108368 -0.0262461 0.993764)
(0.464045 0.354638 0.811723)
(0.898415 0.0491151 0.436392)
(0.0183617 -0.339161 0.940549)
(0.719674 0.677785 -0.150591)
(-0.445592 -0.264178 0.85537)
(0.259152 0.965772 -0.0111958)
(0.39788 0.917416 -0.00629485)
(-0.0531289 0.998511 -0.0123735)
(0.169865 0.985453 -0.00530478)
(-0.0508824 0.998699 0.0034405)
(0.240257 0.970689 -0.00627279)
(0.39834 0.917206 -0.00771396)
(0.255149 0.966877 -0.00695031)
(0.16609 0.986095 -0.00556882)
(0.399615 0.916659 -0.00659177)
(-0.0527749 0.998599 -0.00382404)
(-0.0519283 0.998649 -0.00210676)
(0.252014 0.967684 -0.00876839)
(0.399904 0.916534 -0.00650444)
(-0.0998324 0.995004 0.00109549)
(0.0579702 0.998301 -0.00593829)
(0.142049 0.989834 -0.00710445)
(-0.140597 0.99006 -0.00372074)
(-0.132088 0.991237 -0.00130255)
(-0.139654 0.990199 -0.00171675)
(0.1459 0.989274 -0.00705933)
(0.251905 0.967717 -0.00829111)
(0.399362 0.91677 -0.00657749)
(-0.0529369 0.998591 -0.00364334)
(0.164448 0.98637 -0.00556522)
(-0.0532007 0.998581 -0.00257961)
(0.251538 0.967821 -0.00709722)
(0.399508 0.916706 -0.00660387)
(0.248586 0.968583 -0.00725169)
(0.162377 0.986705 -0.00680825)
(0.400114 0.916428 -0.00829994)
(-0.0560606 0.998419 -0.00404807)
(-0.0549989 0.998479 -0.00381716)
(0.247547 0.968823 -0.0101289)
(0.400037 0.916466 -0.00781674)
(-0.127774 0.991803 0.00114293)
(0.0491273 0.998767 -0.00718813)
(0.116452 0.993162 -0.00819841)
(-0.144625 0.989479 -0.00373342)
(-0.172238 0.985052 0.00274802)
(-0.14343 0.989654 -0.00359261)
(0.120789 0.992645 -0.00808475)
(0.245417 0.969374 -0.00922802)
(0.40024 0.916373 -0.0082774)
(-0.056433 0.998397 -0.00425896)
(0.159858 0.987118 -0.00663456)
(-0.0576198 0.998332 -0.00357851)
(0.246429 0.969126 -0.0082601)
(0.400373 0.916319 -0.00779503)
(0.244145 0.967245 0.0694934)
(0.15581 0.987216 0.0335873)
(0.41035 0.907713 0.0875752)
(-0.0494691 0.998042 0.0382772)
(-0.0582046 0.998191 0.0150746)
(0.216147 0.668335 0.711764)
(0.406857 0.912379 0.0450891)
(-0.239917 0.965556 0.100705)
(0.0226799 0.999161 0.0340989)
(0.00163726 0.997382 0.0722952)
(-0.139137 0.989091 0.0483695)
(-0.344239 0.916985 0.201588)
(-0.148615 0.988681 0.0205612)
(0.0189142 0.998718 0.0469488)
(-0.0173461 0.000552631 0.999849)
(0.414737 0.894876 0.164896)
(-0.0430625 0.998183 0.0421418)
(0.202713 0.958963 0.198234)
(0.0114944 0.999342 -0.034392)
(0.166753 0.44721 0.878747)
(0.405718 0.851007 0.333436)
(0.661294 0.367498 0.653938)
(0.0903272 0.762292 0.6409)
(0.582947 0.0964439 0.806766)
(0.362992 -0.0978636 0.926639)
(0.408363 -0.0107341 0.912757)
(-0.257341 0.792612 0.552759)
(0.894761 -0.36632 -0.255368)
(0.379483 0.389276 0.839319)
(-0.0176861 0.605594 0.795577)
(-0.0245119 0.0625123 0.997743)
(0.349503 0.367795 0.861728)
(0.496451 0.8595 0.121638)
(0.0478067 0.47983 0.876058)
(0.0143991 -0.0431853 0.998963)
(0.0116831 0.878177 0.478193)
(0.27212 0.442988 0.854232)
(0.270848 0.955363 -0.117995)
(0.130124 0.986088 0.103435)
(-0.153699 0.988107 -0.00456184)
(0.260926 0.964874 0.0305967)
(-0.119768 0.983661 0.134413)
(-0.0752006 0.997075 -0.0136721)
(0.301683 0.952304 0.045873)
(-0.208829 0.977772 -0.0187503)
(-0.11 0.993707 0.0211348)
(-0.0307502 0.014936 0.999415)
(-0.0221606 -0.0758671 0.996872)
(0.202969 0.245699 0.947858)
(0.570008 0.820639 0.0405379)
(0.559944 0.827422 0.0428442)
(-0.112665 -0.0183304 0.993464)
(-0.10727 -0.0128195 0.994147)
(0.0522324 -0.0428169 0.997717)
(0.0238476 -0.0258993 0.99938)
(0.0986874 -0.0355865 0.994482)
(0.713308 -0.0433746 0.699507)
(0.326911 -0.086297 0.941107)
(-0.209677 -0.0430911 0.976821)
(0.00492561 -0.0502262 0.998726)
(-0.082835 -0.000847528 0.996563)
(-0.08294 0.00172526 0.996553)
(-0.537652 -0.0114398 0.843089)
(-0.604683 -0.0129977 0.79636)
(0.0780079 -0.00237375 0.99695)
(0.95859 0.00344188 0.284769)
(0.951418 -0.0102468 0.307731)
(-0.638317 -8.08378e-05 0.769773)
(-0.610951 -0.00616745 0.791644)
(0.781558 -0.623774 -0.00851181)
(-0.460396 -0.426894 0.778329)
(0.876578 -0.481214 -0.00673764)
(-0.611246 -0.281242 0.739785)
(-0.0758446 -0.00890265 0.99708)
(-0.0719917 -0.00667304 0.997383)
(-0.187505 0.339176 0.921847)
(-0.302593 0.828778 0.470707)
(0.39648 0.849649 0.347708)
(-0.296619 -0.0232606 0.954713)
(-0.158687 -0.0590124 0.985564)
(-0.0865386 -0.00486142 0.996237)
(-0.289241 0.827084 0.481945)
(-0.0904336 -0.00879766 0.995864)
(-0.307554 -0.03024 0.95105)
(-0.0845672 -0.00550588 0.996403)
(-0.197631 -0.0103665 0.980222)
(-0.0748216 -0.00630253 0.997177)
(-0.342149 0.800326 0.492354)
(0.533533 0.84577 -0.00383937)
(0.525869 0.850561 -0.00277594)
(-0.158524 0.987323 -0.00794001)
(-0.152198 0.988326 0.00693297)
(-0.0748984 0.997182 0.00434073)
(0.0650265 0.997867 -0.0056724)
(-0.139014 0.99027 -0.00640084)
(0.15892 0.987268 -0.00682137)
(-0.136399 0.990651 0.00246475)
(-0.110193 0.99391 0.000715974)
(0.164771 0.986308 -0.00679805)
(-0.152434 0.988306 -0.00383221)
(-0.149624 0.988736 0.00370196)
(0.513128 0.858305 -0.00341112)
(0.521923 0.85296 -0.00748887)
(0.754518 -0.656279 6.58667e-05)
(0.758436 -0.651747 -5.68328e-05)
(-0.131177 -0.0134479 0.991268)
(-0.117447 -0.0126702 0.992998)
(-0.123207 -0.0114858 0.992315)
(-0.405711 -0.0435302 0.912964)
(-0.137083 -0.0120145 0.990487)
(-0.104065 -0.0118327 0.9945)
(-0.115664 -0.0125644 0.993209)
(-0.155546 -0.0126004 0.987748)
(-0.411462 -0.0436203 0.910383)
(-0.139212 -0.0120875 0.990189)
(0.491691 0.870718 -0.0094836)
(0.485584 0.874175 -0.00514447)
(-0.153243 0.988188 -0.001256)
(-0.153133 0.988205 -0.000563489)
(-0.115692 0.993285 0.000372215)
(0.0531898 0.998566 -0.00610098)
(-0.142075 0.98985 -0.00340897)
(0.128841 0.991637 -0.00749841)
(-0.141363 0.989954 -0.00266741)
(-0.147705 0.98903 -0.00170801)
(0.131829 0.991246 -0.00731325)
(-0.153939 0.988079 -0.0013105)
(-0.153383 0.988167 -0.000710994)
(0.477704 0.878503 -0.005569)
(0.483196 0.875456 -0.00989637)
(-0.165047 0.986261 -0.00695801)
(-0.190128 0.981737 -0.00668388)
(-0.248509 -0.0193866 0.968436)
(-0.210808 -0.017524 0.97737)
(-0.210287 -0.0140076 0.977539)
(-0.514524 -0.0432046 0.856387)
(-0.242191 -0.0147205 0.970117)
(-0.17809 -0.0158979 0.983886)
(-0.206191 -0.0172987 0.978359)
(-0.288852 -0.0157307 0.957244)
(-0.52285 -0.0430764 0.851336)
(-0.247364 -0.0148315 0.968809)
(0.457527 0.889145 -0.00944907)
(0.436576 0.899667 -0.00110894)
(-0.156746 0.987639 -0.000865495)
(-0.158994 0.987279 1.56581e-05)
(-0.147045 0.989031 0.0139543)
(0.0396459 0.999201 -0.00501085)
(-0.149157 0.988813 0.000707098)
(0.0771752 0.997016 0.00191149)
(-0.147548 0.989052 -0.00245688)
(-0.224641 0.973894 0.0326717)
(0.0910304 0.995842 -0.00353999)
(-0.160664 0.987005 0.00272868)
(-0.160291 0.98707 0.000619075)
(0.381523 0.92427 0.0128292)
(0.425748 0.904835 -0.00348782)
(0.019714 0.998577 -0.0495563)
(0.0772026 0.996206 -0.0401602)
(-0.263118 -0.257605 0.929736)
(-0.514235 -0.0381308 0.856801)
(-0.441674 -0.0202105 0.896948)
(-0.67531 -0.0392327 0.736489)
(-0.530072 -0.0265183 0.847538)
(-0.400692 -0.0277913 0.915791)
(-0.498827 -0.0362036 0.865945)
(-0.302475 -0.2684 0.914588)
(-0.691257 -0.0388982 0.721562)
(-0.543673 -0.0282509 0.838822)
(0.0882419 0.991491 0.0957071)
(0.288383 0.947023 0.141362)
(-0.149618 0.987435 0.0508528)
(-0.0760732 0.997062 -0.00895066)
(-0.011442 0.980034 0.198498)
(0.180995 0.947364 0.264087)
(-0.0158319 0.997855 -0.0635129)
(0.127243 0.973881 0.188055)
(-0.0173923 0.995873 -0.0890728)
(0.355192 0.922372 0.151886)
(0.592909 0.615614 0.519113)
(-0.0825289 0.816278 0.571734)
(0.468747 0.366096 0.803896)
(0.565931 0.783285 0.25727)
(0.169635 0.461623 0.870706)
(0.0351985 0.0946018 0.994893)
(-0.163971 0.884481 0.436815)
(0.159922 0.530643 0.832372)
(0.0171009 0.985098 0.17114)
(0.168369 0.97946 0.110948)
(-0.0903014 0.995908 -0.00371007)
(0.396793 0.915335 0.0686748)
(-0.126769 0.983299 0.130583)
(0.183617 0.980744 0.0665293)
(0.39418 0.908996 0.135453)
(-0.20041 0.979604 -0.014543)
(-0.290603 0.956837 0.0036465)
(-0.313157 0.721473 0.617584)
(0.00236314 0.128054 0.991764)
(0.235846 0.441206 0.86586)
(0.583083 0.808911 0.0753425)
(0.569324 0.806335 0.160294)
(-0.403012 0.0949972 0.910251)
(0.891081 -0.300102 -0.34046)
(-0.378669 0.16521 0.910668)
(0.0371686 -0.0152919 0.999192)
(0.00478781 0.106841 0.994265)
(0.00469831 0.0377946 0.999274)
(-0.0256598 0.00218949 0.999668)
(-0.273156 0.13767 0.952068)
(-0.0185734 0.0713693 0.997277)
(-0.034642 0.110639 0.993257)
(-0.198681 0.0637686 0.977987)
(-0.00882125 0.0492615 0.998747)
(0.269638 0.962873 -0.0130784)
(0.174947 0.984493 0.0128956)
(-0.0801867 0.996765 -0.0054668)
(0.383475 0.922964 0.0329262)
(0.0723587 0.996482 0.0422937)
(-0.0390179 0.998911 0.0255925)
(0.390869 0.920386 0.0105115)
(0.571314 0.82073 0.00174816)
(0.571605 0.820523 0.00296445)
(-0.142292 0.989753 -0.0118881)
(-0.119228 0.992828 0.00874216)
(-0.19033 0.981648 -0.0119074)
(-0.127877 0.991587 0.0200486)
(0.568184 0.821229 0.0524363)
(0.567878 0.822978 0.0148721)
(-0.64215 0.668407 0.375335)
(-0.0822575 0.0684111 0.99426)
(-0.347306 0.283519 0.893865)
(0.111803 0.842526 0.526925)
(-0.140819 0.476793 0.867663)
(-0.0605554 0.0198342 0.997968)
(0.718064 0.272299 0.640498)
(-0.187071 0.236971 0.953336)
(0.0497548 0.0220882 0.998517)
(-0.0159187 0.0277722 0.999488)
(0.164319 0.0277116 0.986018)
(0.0719939 -0.0672255 0.995137)
(0.127156 0.0184167 0.991712)
(-0.0401194 -0.0128211 0.999113)
(0.119043 0.0475621 0.991749)
(0.789787 0.149867 0.59479)
(-0.155097 0.987894 0.00320706)
(0.0870801 0.996117 0.0129343)
(-0.150367 0.988629 -0.00173524)
(0.243197 0.969843 0.0161167)
(0.0967653 0.995278 -0.00761246)
(-0.120588 0.992202 0.0315313)
(0.212397 0.977173 0.00444402)
(0.536118 0.844137 0.00316703)
(0.549353 0.835581 0.00389586)
(-0.150623 0.988475 -0.0151478)
(-0.127552 0.991767 0.0113059)
(-0.192841 0.98117 -0.0108847)
(-0.136117 0.990301 0.0278481)
(0.571673 0.820114 0.0245777)
(0.555697 0.831313 0.0109484)
(-0.0262595 -0.011438 0.99959)
(-0.164339 -0.00682139 0.98638)
(-0.00954373 -0.00758177 0.999926)
(0.065998 -0.0191942 0.997635)
(0.00785951 -0.0035039 0.999963)
(0.0175316 -0.00970065 0.999799)
(-0.159926 -0.00324853 0.987124)
(-0.0197392 -0.00253483 0.999802)
(-0.011573 -0.00444606 0.999923)
(-0.0815045 -0.000367618 0.996673)
(-0.0816081 -0.0029672 0.99666)
(0.055574 -0.0018386 0.998453)
(0.00707126 -0.0024178 0.999972)
(0.0047672 -0.0018189 0.999987)
(-0.0253034 -0.000601092 0.99968)
(-0.151428 -0.000147712 0.988468)
(-0.0240306 -0.00115668 0.999711)
(-0.0208183 -0.00162824 0.999782)
(-0.151516 -0.00071358 0.988455)
(-0.0234153 -0.00116236 0.999725)
(0.0826222 -0.00370528 0.996574)
(0.735986 -0.0358844 0.676045)
(0.845966 -0.0218738 0.532789)
(-0.523267 -0.0213761 0.851901)
(-0.414258 -0.018483 0.909972)
(-0.243581 -0.030441 0.969403)
(-0.391254 -0.0263348 0.919906)
(-0.0255638 -0.000497765 0.999673)
(-0.152026 -7.85725e-05 0.988377)
(-0.0261056 0.000334887 0.999659)
(0.0519546 -0.000673659 0.998649)
(0.002475 -0.00187146 0.999995)
(0.00181342 0.000431367 0.999998)
(-0.152109 0.000520715 0.988364)
(-0.0256873 -0.00202218 0.999668)
(-0.0261584 0.000332171 0.999658)
(-0.119195 -0.0997349 0.987849)
(-0.108783 -0.073999 0.991307)
(0.0681741 -0.014882 0.997562)
(0.00350504 -0.00450819 0.999984)
(0.0139829 -0.038794 0.999149)
(-0.0171917 -0.290032 0.956863)
(-0.168443 -0.067129 0.983423)
(-0.0124475 -0.0775206 0.996913)
(-0.0249177 -0.00521227 0.999676)
(-0.161147 -0.036742 0.986246)
(-0.0178396 -0.0427144 0.998928)
(0.100399 -0.0156398 0.994824)
(0.95739 2.22806e-05 0.2888)
(0.918761 0.0502759 0.391601)
(-0.193787 0.254068 0.947574)
(-0.5015 0.0405085 0.864209)
(-0.632981 0.00538108 0.774149)
(-0.547738 0.0325495 0.836016)
(-0.187968 0.982044 0.016075)
(0.349418 0.936967 0.000203586)
(-0.170359 0.985288 0.0135863)
(-0.0523948 -0.350012 0.935279)
(-0.296847 -0.373142 0.879003)
(-0.506708 -0.170637 0.845062)
(0.697165 0.600132 -0.392177)
(-0.532667 -0.0220282 0.846038)
(-0.128471 0.973286 0.190286)
(-0.194164 0.980522 0.0296287)
(-0.666357 0.0805093 0.741274)
(0.0805724 0.996369 -0.0274942)
(-0.544723 -0.0422867 0.837549)
(-0.172454 0.984857 0.0177604)
(0.193626 0.981075 0.000716333)
(0.757106 -0.491451 -0.430426)
(-0.165978 0.969726 0.179118)
(-0.171729 0.984914 0.0212949)
(-0.671332 0.297468 0.678842)
(-0.412055 0.911156 0.0020632)
(-0.454534 0.890729 0.00113272)
(0.983711 0.116659 -0.136761)
(0.979973 0.199038 -0.00601838)
(0.989409 -0.0786241 -0.122018)
(-0.284333 -0.00632421 0.958705)
(-0.132768 0.958251 0.253235)
(0.911051 -0.373913 -0.173709)
(0.966903 0.091961 -0.237995)
(-0.310509 -0.00769543 0.950539)
(0.976008 -0.022196 -0.216601)
(0.980919 0.194302 -0.00661528)
(-0.185265 0.956753 0.224279)
(-0.644824 0.762707 0.0498016)
(0.797454 -0.603375 -0.00244828)
(0.795439 -0.606029 -0.00228001)
(-0.208897 0.977756 0.0188721)
(0.719753 0.69419 -0.00750518)
(-0.523935 0.849699 0.059193)
(-0.591667 -0.0602197 0.80393)
(0.975413 0.0734286 -0.207793)
(0.975655 0.102554 -0.193857)
(0.962201 0.203357 -0.181148)
(-0.588612 -0.0609449 0.806115)
(0.974695 0.117733 -0.19002)
(0.728344 0.685168 -0.0077793)
(0.980668 -0.145795 -0.130515)
(0.800213 -0.591926 -0.0963448)
(-0.4264 0.904531 -0.00267077)
(-0.425643 0.904887 -0.00286614)
(0.981964 0.126137 -0.140844)
(0.985219 0.170798 -0.0130991)
(0.97895 0.133916 -0.154026)
(-0.400056 -0.00940278 0.916443)
(0.95384 0.0917683 -0.28595)
(0.958734 0.0987819 -0.266592)
(0.964975 0.0979823 -0.243359)
(-0.390267 -0.00984914 0.920649)
(0.96023 0.100477 -0.260506)
(0.985238 0.170661 -0.0134523)
(0.976328 0.12891 -0.173684)
(0.978277 0.13338 -0.158695)
(-0.063795 0.00218043 0.997961)
(-0.0573222 0.00380602 0.998348)
(-0.161721 0.010068 0.986785)
(-0.129212 -0.119665 0.98437)
(-0.0732994 0.00366648 0.997303)
(-0.0790447 0.000322726 0.996871)
(-0.177345 0.00797506 0.984116)
(-0.0717446 0.00277365 0.997419)
(-0.138676 -0.0967326 0.985602)
(-0.0594465 0.00457749 0.998221)
(-0.0776274 -0.00920001 0.99694)
(-0.0899026 -0.010709 0.995893)
(-0.365705 -0.0422085 0.929773)
(-0.121331 -0.0114035 0.992547)
(-0.108327 -0.0106983 0.994058)
(-0.0924231 -0.00911301 0.995678)
(-0.359606 -0.0418082 0.932167)
(-0.106425 -0.0105651 0.994265)
(-0.102495 -0.0117249 0.994664)
(-0.09153 -0.0108614 0.995743)
(-0.0657574 0.00218536 0.997833)
(-0.0791348 0.00271095 0.99686)
(-0.243175 0.00813532 0.969948)
(-0.111671 0.0010341 0.993745)
(-0.0976992 0.000382064 0.995216)
(-0.081111 0.000236104 0.996705)
(-0.234924 0.00761347 0.971984)
(-0.0956885 0.00031418 0.995411)
(-0.0932144 0.00372736 0.995639)
(-0.0809277 0.00282294 0.996716)
(0.568984 0.822315 -0.00738935)
(0.570489 0.82129 -0.00501227)
(-0.148735 0.988849 -0.00746157)
(-0.141791 0.989888 0.00412034)
(0.264694 0.964294 -0.00855612)
(0.169307 0.985548 -0.00550154)
(-0.0515917 0.998649 -0.00615596)
(0.400422 0.916304 -0.00699496)
(-0.0495668 0.99877 0.00115751)
(0.25509 0.966872 -0.00941742)
(0.400922 0.916086 -0.00690551)
(-0.141996 0.989861 -0.00348449)
(-0.139129 0.990272 0.0020001)
(0.571839 0.820357 -0.00386849)
(0.571516 0.820511 -0.0114489)
(0.255636 0.966732 -0.00895901)
(0.166663 0.985998 -0.00565962)
(-0.0522758 0.998619 -0.00518148)
(0.399188 0.91684 -0.00723509)
(0.252152 0.967655 -0.00790799)
(-0.051979 0.998647 -0.00147603)
(0.399442 0.916731 -0.00705675)
(0.572871 0.819638 -0.00336155)
(0.572515 0.819828 -0.0104457)
(-0.142022 0.989862 -0.00175929)
(-0.141195 0.989982 -0.000482541)
(-0.143035 0.989714 -0.00260832)
(-0.141597 0.989924 0.000113)
(0.571386 0.820612 -0.0106732)
(0.572296 0.820037 -0.00394522)
(-0.12704 0.991897 -0.000679086)
(0.0595951 0.998205 -0.00591542)
(-0.139981 0.990142 -0.00495845)
(0.155618 0.987791 -0.00717365)
(-0.074102 0.997249 0.00195256)
(-0.13968 0.990196 -0.00097846)
(0.150914 0.988521 -0.0071405)
(0.494084 0.869402 -0.00471215)
(0.500752 0.865544 -0.00901871)
(-0.153005 0.988224 -0.00166734)
(-0.152219 0.988347 8.00883e-05)
(-0.153708 0.988113 -0.00234423)
(-0.152422 0.988315 0.000767838)
(0.510405 0.859894 -0.00838202)
(0.50352 0.863973 -0.00438982)
(0.869627 0.493564 -0.0120219)
(0.985384 -0.0199065 -0.16918)
(0.987427 -0.0392481 -0.153127)
(0.974686 0.0673863 -0.213183)
(-0.60591 -0.0530324 0.793763)
(0.971324 0.054425 -0.231445)
(0.861526 0.507577 -0.011749)
(0.985079 -0.10679 -0.134965)
(0.987708 -0.0493611 -0.148309)
(0.964502 0.043081 -0.260539)
(-0.607578 -0.0519422 0.792559)
(0.969851 0.0514077 -0.238213)
(-0.411412 0.911429 -0.00602896)
(-0.412766 0.910818 -0.00583736)
(0.984072 0.176703 -0.0194386)
(0.968603 0.111905 -0.222003)
(0.972048 0.119032 -0.202373)
(0.952017 0.089246 -0.292744)
(-0.468338 -0.00509596 0.883535)
(0.945918 0.0815839 -0.313979)
(0.98425 0.175759 -0.0190072)
(0.9756 0.127075 -0.179043)
(0.973036 0.121197 -0.196248)
(0.936253 0.0711201 -0.344052)
(-0.477871 -0.00435047 0.878419)
(0.943665 0.07907 -0.321317)
(-0.639381 0.768887 -0.00228396)
(-0.620399 0.784282 -0.00249733)
(0.984417 -0.0154893 -0.175164)
(0.961619 0.273907 -0.0162355)
(0.980754 -0.0053874 -0.195175)
(-0.62275 -0.0430983 0.781233)
(0.941516 0.029201 -0.3357)
(0.951801 0.034127 -0.304811)
(0.962352 0.0409193 -0.268707)
(-0.620569 -0.0442008 0.782905)
(0.954746 0.0359407 -0.295241)
(0.965183 0.261049 -0.0165631)
(0.97374 0.000764622 -0.227662)
(0.979251 -0.00309363 -0.202625)
(-0.383514 0.923486 -0.00950126)
(-0.380335 0.924797 -0.00977279)
(0.967253 0.109493 -0.228984)
(0.979698 0.198641 -0.0271041)
(0.96246 0.102104 -0.251486)
(-0.550427 0.00295307 0.834878)
(0.910626 0.0510222 -0.410069)
(0.921327 0.0586023 -0.384347)
(0.93354 0.0685719 -0.351855)
(-0.541814 0.00191989 0.840497)
(0.924583 0.0611903 -0.376035)
(0.979082 0.201565 -0.0277584)
(0.954023 0.0909408 -0.285604)
(0.960593 0.0994986 -0.25954)
(-0.12605 0.00659776 0.992002)
(-0.110298 0.00517692 0.993885)
(-0.113713 0.00114618 0.993513)
(-0.306745 0.0126531 0.951707)
(-0.128917 0.00205337 0.991653)
(-0.0949969 0.00387138 0.99547)
(-0.108253 0.00499726 0.994111)
(-0.149252 0.00337988 0.988793)
(-0.316677 0.0133985 0.948439)
(-0.13126 0.0022008 0.991346)
(-0.133343 -0.0135681 0.990977)
(-0.150324 -0.0144845 0.988531)
(-0.461788 -0.0437656 0.88591)
(-0.206272 -0.0139139 0.978396)
(-0.181274 -0.0133123 0.983342)
(-0.158112 -0.0126789 0.98734)
(-0.454977 -0.0438029 0.889425)
(-0.178096 -0.0132318 0.983924)
(-0.174597 -0.0157232 0.984514)
(-0.153042 -0.0146235 0.988112)
(-0.128534 0.00682368 0.991682)
(-0.147914 0.00862511 0.988963)
(-0.403553 0.0204055 0.914729)
(-0.204869 0.00733088 0.978762)
(-0.177536 0.00533726 0.9841)
(-0.15208 0.00356776 0.988362)
(-0.392058 0.0194297 0.919735)
(-0.174048 0.0050883 0.984724)
(-0.175404 0.0112594 0.984432)
(-0.151006 0.00891818 0.988493)
(0.57279 0.81964 -0.0101181)
(0.573447 0.819236 -0.00339909)
(-0.142214 0.989835 -0.00160389)
(-0.142046 0.98986 -0.000786861)
(0.251398 0.967863 -0.00639113)
(0.163988 0.986446 -0.00567071)
(-0.0540038 0.998535 -0.00349182)
(0.399594 0.916667 -0.00683418)
(-0.0533507 0.998572 -0.00286989)
(0.249846 0.968249 -0.00837591)
(0.399644 0.916648 -0.00648337)
(-0.142572 0.989783 -0.00140412)
(-0.142091 0.989853 -0.00103842)
(0.57398 0.818861 -0.00366052)
(0.573504 0.819139 -0.0101577)
(0.249054 0.968449 -0.00892751)
(0.162827 0.986634 -0.0064392)
(-0.0541562 0.998526 -0.00364999)
(0.399662 0.916635 -0.00707449)
(0.249429 0.96837 -0.00669271)
(-0.05475 0.998494 -0.00355)
(0.399847 0.916551 -0.00753696)
(0.575401 0.817855 -0.00520953)
(0.574706 0.81828 -0.0114642)
(-0.144003 0.989576 -0.00141695)
(-0.143275 0.989682 -0.00146363)
(-0.142693 0.989766 -0.00149903)
(-0.143081 0.98971 -0.00128408)
(0.573979 0.818801 -0.010613)
(0.574664 0.818378 -0.00443852)
(-0.158299 0.987391 -0.000807763)
(0.0502859 0.998711 -0.00683452)
(-0.14232 0.989815 -0.00345418)
(0.126192 0.991976 -0.00770595)
(-0.120879 0.992667 3.90549e-05)
(-0.143059 0.989708 -0.00344629)
(0.123724 0.992286 -0.00781663)
(0.462948 0.88637 -0.00528607)
(0.471365 0.881882 -0.0100055)
(-0.156287 0.987711 -0.00103239)
(-0.155308 0.987865 -0.00111328)