/*--------------------------------*- C++ -*----------------------------------*\
| =========                 |                                                 |
| \\      /  F ield         | OpenFOAM: The Open Source CFD Toolbox           |
|  \\    /   O peration     | Version:  2012                                  |
|   \\  /    A nd           | Website:  www.openfoam.com                      |
|    \\/     M anipulation  |                                                 |
\*---------------------------------------------------------------------------*/
FoamFile
{
    version     2.0;
    format      ascii;
    class       volVectorField;
    location    "0.105/solid";
    object      U;
}
// * * * * * * * * * * * * * * * * * * * * * * * * * * * * * * * * * * * * * //

dimensions      [0 1 -1 0 0 0 0];


internalField   nonuniform List<vector> 
24998
(
(-5.04131e-09 4.25848e-09 3.88069e-09)
(1.22972e-10 1.49121e-10 2.98775e-10)
(1.4003e-10 -5.06265e-10 2.73393e-09)
(9.97875e-13 -1.33393e-10 6.78296e-11)
(-1.82337e-08 5.14964e-08 1.74581e-09)
(-3.98044e-09 4.44915e-09 -4.30714e-09)
(4.42729e-10 1.19833e-09 -9.27984e-10)
(-1.06609e-09 7.36963e-10 2.42238e-10)
(-4.35293e-10 1.67319e-09 1.49478e-09)
(-6.25891e-09 4.99652e-09 4.8058e-09)
(1.43774e-10 -6.93656e-10 5.63978e-09)
(-1.03262e-08 6.37609e-09 -5.4812e-09)
(8.08827e-11 1.36216e-10 2.84807e-10)
(1.35947e-10 -4.66693e-10 2.92538e-09)
(-6.02811e-09 5.57235e-09 -5.46077e-09)
(-8.19764e-13 -7.87861e-10 5.2002e-09)
(4.60264e-11 -2.0806e-10 2.64692e-10)
(3.29243e-12 -1.36926e-10 1.29394e-10)
(1.19372e-11 -2.01064e-10 1.13001e-10)
(-1.9168e-08 6.31636e-08 -4.02105e-09)
(-1.24756e-08 3.56479e-08 -4.26432e-12)
(-3.65109e-08 1.22288e-07 -5.62343e-09)
(-7.69493e-09 5.08672e-09 -4.1974e-09)
(-1.86553e-09 1.52776e-09 -1.06649e-09)
(4.87103e-10 1.38241e-09 -1.08229e-09)
(-1.87624e-09 1.34493e-09 -9.33114e-10)
(-3.26948e-09 9.53681e-10 1.61143e-10)
(-1.66907e-09 6.9373e-10 2.98647e-10)
(-2.94402e-09 1.03049e-09 1.47565e-10)
(-2.28934e-09 1.11154e-09 1.0592e-09)
(-5.97781e-10 1.3998e-09 1.0436e-09)
(-2.26941e-09 1.87144e-09 1.45339e-09)
(-3.02161e-10 2.87102e-09 8.05248e-09)
(-2.20306e-08 8.03125e-09 3.61951e-08)
(-5.91153e-12 6.40658e-10 1.67051e-09)
(-1.56299e-09 4.1336e-09 6.63495e-09)
(-1.7242e-08 1.3008e-08 -2.11361e-09)
(-1.05269e-09 4.44821e-10 3.2641e-09)
(-3.42973e-09 -1.76716e-09 4.58872e-09)
(-4.75363e-10 -2.82638e-10 9.20847e-10)
(1.55973e-10 -2.42191e-10 1.07045e-09)
(-2.33304e-10 -7.76499e-11 2.10811e-10)
(-8.64602e-11 1.01789e-10 -8.42634e-11)
(-2.4159e-10 3.55383e-11 -6.01455e-10)
(-0.00100974 0.000980567 -0.00117352)
(1.35334e-08 7.0369e-09 -1.41205e-10)
(-2.46519e-05 -1.22145e-06 -2.73373e-05)
(-3.91419e-06 -5.59219e-06 1.63976e-05)
(-0.000865142 0.000372997 0.000365828)
(-6.15948e-10 2.80511e-09 -2.44726e-09)
(-0.00671643 0.00490386 -0.00287798)
(-0.00351655 0.00299044 -0.00220476)
(-0.00358018 0.00166767 0.000701129)
(-0.00661602 0.00282818 0.000864713)
(-9.06511e-10 8.02424e-10 -8.12634e-10)
(-0.0153751 0.00764587 -0.00364372)
(-0.0111044 0.00666751 -0.00338937)
(-0.0113175 0.00398562 0.000975491)
(-0.0153423 0.0044721 0.00101015)
(-4.41552e-10 7.23478e-10 2.12914e-10)
(-0.0247909 0.00845106 -0.00383502)
(-0.0204036 0.00818832 -0.00375817)
(-0.0206991 0.00471132 0.00102497)
(-0.024908 0.00494999 0.000860864)
(-1.82473e-09 2.73938e-09 7.73588e-09)
(-3.28323e-09 4.46395e-09 7.56038e-09)
(-2.68768e-08 1.61914e-08 -3.45734e-09)
(-1.72997e-08 6.26924e-09 2.63813e-08)
(-3.81874e-09 -2.1402e-09 5.20365e-09)
(-3.30295e-08 6.58532e-09 4.63887e-08)
(-2.5108e-09 2.55073e-09 8.38186e-09)
(-6.54037e-09 -3.92022e-09 1.05801e-08)
(-2.12642e-08 6.16841e-09 3.41523e-08)
(-2.26193e-08 1.39344e-08 -5.72717e-09)
(-7.87943e-11 5.72543e-10 1.70893e-09)
(-6.7024e-10 6.26058e-10 2.56731e-09)
(-2.04076e-09 2.2728e-09 7.44661e-09)
(-8.30433e-10 9.92323e-10 3.08817e-09)
(-4.84535e-10 1.13837e-09 2.56479e-09)
(-1.51761e-08 1.1583e-08 -4.67404e-09)
(-4.68139e-09 -2.91357e-09 8.30681e-09)
(3.19351e-10 -4.04497e-10 1.98326e-09)
(-7.46796e-10 -5.81171e-10 1.96768e-09)
(-2.36358e-10 -7.80655e-11 2.4116e-10)
(-4.82236e-10 -2.48451e-10 8.51259e-10)
(2.98354e-10 -3.64531e-10 1.71111e-09)
(-3.23659e-10 -1.74963e-10 4.42771e-10)
(-6.42296e-10 -4.59156e-10 1.64419e-09)
(1.84736e-10 -2.28241e-10 1.01041e-09)
(-3.06756e-10 -1.46736e-10 3.48114e-10)
(-3.40902e-10 1.06583e-10 -9.74686e-10)
(-9.95504e-11 2.09687e-10 -2.70545e-10)
(1.01008e-08 7.43392e-09 -2.68867e-10)
(-1.76196e-11 1.37524e-10 -9.38559e-11)
(-4.52748e-10 4.1148e-10 -1.14064e-09)
(2.13824e-08 2.24021e-08 -1.56331e-09)
(9.2526e-11 3.58476e-10 -3.85887e-10)
(-2.58933e-10 1.08871e-10 -6.19869e-10)
(-0.00100061 0.000956005 -0.00108793)
(3.53677e-08 2.62491e-08 -2.14321e-09)
(-8.56737e-07 3.03885e-06 7.595e-06)
(-0.000852773 0.000447719 0.000192968)
(-2.70554e-05 -6.45188e-06 -5.1661e-05)
(-0.000986893 0.000997037 -0.00124433)
(-4.26869e-05 1.06066e-05 -4.47762e-05)
(-0.00096611 0.000979323 -0.00119026)
(4.20351e-06 -5.43014e-06 3.277e-06)
(-0.000775645 0.000441823 8.03435e-05)
(-2.62958e-05 1.47916e-05 -3.78907e-05)
(-0.00111735 0.00108054 -0.00124226)
(-0.00333261 0.00286091 -0.00215211)
(-0.00110897 0.0010541 -0.00115241)
(-0.00319183 0.00166226 0.000340954)
(-0.00107469 0.000569536 0.000215649)
(-0.00333598 0.00280439 -0.00200879)
(-0.00109224 0.00109676 -0.00131555)
(-0.00327175 0.00287338 -0.00224643)
(-0.00107116 0.00107706 -0.00125839)
(-0.00302741 0.00165778 0.000167392)
(-0.000986645 0.000563843 9.14237e-05)
(-0.00324573 0.00282205 -0.00214589)
(3.12467e-06 -1.11466e-05 1.32719e-05)
(-0.000778841 0.000361062 0.000250349)
(-0.00320532 0.00150138 0.000671171)
(-0.00108722 0.000483866 0.000410696)
(-0.00302459 0.00149234 0.000489154)
(-0.000988991 0.000472333 0.000282586)
(-3.2681e-09 3.03183e-09 -2.30937e-09)
(-2.62733e-09 2.52018e-09 -1.93797e-09)
(-1.1169e-10 2.33222e-09 -2.043e-09)
(-0.00673189 0.00481615 -0.00269811)
(-0.00356649 0.00183909 0.000354403)
(-0.00352071 0.00293187 -0.00205856)
(-0.00660102 0.00307127 0.000421221)
(-0.00661873 0.00491255 -0.00296617)
(-0.00345329 0.00300266 -0.00229948)
(-0.00658751 0.00482847 -0.00282649)
(-0.00339134 0.00183477 0.000178348)
(-0.00342693 0.0029492 -0.00219626)
(-0.00635273 0.0030681 0.000255403)
(-0.00695545 0.0050236 -0.00291524)
(-0.0108302 0.00658225 -0.00336621)
(-0.00697161 0.00493405 -0.00273372)
(-0.0107462 0.0042046 0.000450387)
(-0.00708554 0.00323537 0.000427242)
(-0.0108561 0.00646797 -0.0031676)
(-0.00685564 0.00503206 -0.00300228)
(-0.0107013 0.00658757 -0.00342933)
(-0.00682415 0.00494607 -0.00286042)
(-0.0104215 0.0042026 0.000337064)
(-0.00682716 0.00323235 0.000266238)
(-0.0106658 0.0064755 -0.00325944)
(-0.00338788 0.00165897 0.00051634)
(-0.00634503 0.00282181 0.000690754)
(-0.010763 0.00388601 0.000967569)
(-0.00710074 0.00298237 0.000881995)
(-0.0104091 0.00388205 0.000850128)
(-0.00681886 0.00297632 0.00071321)
(-2.76378e-09 1.01399e-09 -6.82861e-10)
(-3.27094e-09 9.58754e-10 -5.37888e-10)
(-2.02716e-09 6.58698e-10 -7.2346e-10)
(-0.015409 0.00751233 -0.0034388)
(-0.0113004 0.00431287 0.000451547)
(-0.011131 0.00655177 -0.00319006)
(-0.0153235 0.00485328 0.00045165)
(-0.0152239 0.00764843 -0.00367806)
(-0.0109739 0.00667263 -0.00345063)
(-0.0151855 0.00751596 -0.00348873)
(-0.0109671 0.00431101 0.000346073)
(-0.0109382 0.00655905 -0.00327919)
(-0.0149364 0.00485225 0.000397098)
(-0.0156675 0.00769213 -0.00365497)
(-0.0201061 0.00816803 -0.00375528)
(-0.0157018 0.00755766 -0.00344993)
(-0.020081 0.00511863 0.000447254)
(-0.0159128 0.00490256 0.000451044)
(-0.0201448 0.00802352 -0.0035507)
(-0.0155153 0.00769455 -0.00368775)
(-0.0199424 0.00816872 -0.00377041)
(-0.0154768 0.00756111 -0.00349758)
(-0.0196525 0.00511826 0.000425108)
(-0.0155192 0.00490163 0.000402421)
(-0.0199026 0.0080245 -0.00357277)
(-0.0109541 0.00398192 0.000866468)
(-0.0149196 0.00447008 0.00095542)
(-0.0201014 0.00469537 0.00102407)
(-0.0159318 0.00451481 0.0010129)
(-0.0196325 0.0046947 0.00100252)
(-0.0155019 0.00451301 0.000964384)
(-2.43437e-09 1.14512e-09 2.7411e-10)
(-2.40477e-09 1.26288e-09 5.42117e-10)
(-3.90544e-10 8.32106e-10 5.40746e-10)
(-0.0248912 0.00832276 -0.00365562)
(-0.0206785 0.00513802 0.000446981)
(-0.0204425 0.00804338 -0.00355373)
(-0.0249045 0.00515985 0.000583872)
(-0.0246407 0.00843954 -0.00382755)
(-0.0202395 0.00818892 -0.00377257)
(-0.0246732 0.00831113 -0.00365163)
(-0.0202467 0.00513771 0.00042648)
(-0.0201996 0.00804426 -0.00357472)
(-0.0246717 0.00515969 0.000574099)
(-0.0202264 0.00471075 0.00100491)
(-0.024669 0.00494979 0.000851173)
(5.45113e-09 1.27842e-09 7.17769e-09)
(3.10123e-08 -2.21272e-08 8.51237e-09)
(3.09705e-08 4.25052e-09 2.65238e-08)
(-8.89613e-09 3.15898e-08 7.66191e-09)
(-1.66335e-09 3.17997e-09 3.26104e-09)
(-5.29248e-09 4.01022e-09 3.66721e-09)
(-1.26233e-08 1.05837e-08 7.23336e-09)
(-3.6537e-08 3.27101e-08 1.39187e-08)
(-1.58441e-09 2.22456e-09 2.76923e-09)
(-2.88139e-09 8.80897e-09 6.09826e-09)
(4.89994e-10 -9.0994e-11 1.9925e-09)
(1.62023e-10 -3.75582e-10 1.76245e-09)
(5.69729e-10 -5.04691e-11 1.67096e-09)
(-5.19655e-12 -5.54268e-11 1.23522e-11)
(-9.35232e-11 -1.13233e-10 -2.50921e-10)
(-1.1454e-10 -4.91609e-11 -2.97565e-10)
(-5.71218e-09 5.76138e-09 -8.0033e-10)
(-1.2542e-07 5.66967e-07 -4.62531e-09)
(-9.25639e-08 1.55817e-07 -1.3745e-09)
(1.52124e-09 1.0501e-08 -7.22753e-09)
(-2.24306e-10 4.50458e-09 -4.10128e-09)
(-1.46015e-08 1.12193e-08 -9.00954e-09)
(-2.43733e-09 3.83422e-09 -3.45501e-09)
(-3.08557e-09 1.39088e-08 -9.55265e-09)
(-7.99618e-09 9.21882e-09 -6.96172e-09)
(7.71089e-10 3.89077e-09 -3.40762e-09)
(3.42943e-09 3.731e-09 -9.17794e-10)
(2.57727e-09 1.53093e-09 -7.81867e-10)
(-7.60502e-10 1.74511e-09 -2.13436e-09)
(2.63092e-10 1.04262e-09 -8.37037e-10)
(4.77448e-09 4.46984e-09 -1.57745e-09)
(-1.48957e-09 1.05229e-09 -1.80483e-09)
(2.34478e-09 1.39176e-09 -7.02317e-10)
(9.89052e-10 3.41357e-09 7.31944e-11)
(5.15674e-10 1.00411e-09 3.19096e-10)
(-4.34036e-09 7.6616e-10 4.57702e-10)
(-7.22636e-10 7.61019e-10 2.19202e-10)
(-7.33858e-10 2.7794e-09 -5.93e-11)
(-3.73908e-09 9.24098e-10 6.066e-10)
(1.06722e-09 1.09281e-09 1.76083e-10)
(5.31875e-10 3.89336e-09 6.72148e-09)
(1.13792e-09 1.73265e-09 1.5432e-09)
(-2.02388e-09 2.68599e-09 3.3259e-09)
(-6.3623e-10 2.01038e-09 2.59168e-09)
(1.57433e-09 4.23837e-09 3.1503e-09)
(-2.96065e-09 6.19098e-09 6.75446e-09)
(7.84944e-10 1.84094e-09 2.22698e-09)
(-1.10983e-07 7.96155e-08 1.28487e-09)
(-1.35924e-08 5.81712e-09 5.59179e-09)
(-6.62569e-09 4.51043e-09 4.10088e-09)
(-1.98607e-08 1.36014e-08 9.40737e-09)
(-5.10657e-08 3.91518e-08 1.46055e-08)
(-8.07643e-09 4.48843e-09 4.55973e-09)
(-4.57512e-08 1.92527e-08 1.13436e-08)
(-5.67118e-10 -1.23933e-09 7.08112e-09)
(-1.38291e-09 -1.81997e-09 7.5869e-09)
(-4.12162e-09 -1.89635e-09 1.16232e-08)
(-5.7525e-08 3.09391e-08 -2.02714e-09)
(-1.3589e-08 8.86213e-09 -6.80159e-09)
(-1.46406e-08 6.73721e-09 -4.39207e-09)
(-2.17684e-08 1.37461e-08 -9.3204e-09)
(-3.23308e-08 2.93447e-08 -1.26166e-08)
(-3.57883e-08 1.84868e-08 -2.54996e-09)
(-1.89666e-08 8.97846e-09 -5.55016e-09)
(-2.05236e-10 2.95855e-10 1.15189e-09)
(1.09769e-09 -2.1452e-10 5.75838e-10)
(1.17777e-10 4.83647e-10 2.30745e-09)
(-3.16323e-10 -1.40422e-10 3.59294e-09)
(5.36244e-10 -8.68893e-11 2.03793e-09)
(6.7708e-10 1.51625e-10 2.53499e-09)
(-1.21409e-08 2.20832e-08 -1.06293e-08)
(-8.9447e-09 7.76963e-09 -6.51914e-09)
(-1.92759e-09 5.43439e-09 -4.89114e-09)
(-1.70529e-08 1.21086e-08 -9.89387e-09)
(-4.10877e-09 1.44303e-08 -9.94947e-09)
(-2.82159e-08 2.81825e-08 -1.32506e-08)
(-4.28379e-09 6.91604e-09 -5.40794e-09)
(-9.22167e-10 -1.7447e-09 6.84631e-09)
(3.16451e-10 -6.53847e-10 3.33036e-09)
(-3.43565e-10 -1.29157e-09 4.16524e-09)
(1.52541e-10 -2.59861e-10 7.99892e-10)
(-7.81688e-11 -2.7152e-10 3.61644e-10)
(-5.85877e-11 -3.71996e-10 9.14945e-10)
(9.54406e-11 -1.68833e-10 4.83626e-10)
(1.39071e-11 -5.74766e-11 6.26857e-11)
(1.35747e-10 -6.59277e-11 4.14891e-10)
(-9.99194e-11 -2.4332e-10 2.23362e-10)
(-1.02923e-10 -1.68332e-10 -3.57399e-10)
(-1.77674e-10 -2.31516e-10 -2.12087e-10)
(-2.98995e-09 8.51643e-09 -2.01818e-09)
(2.56547e-09 9.83074e-08 -1.43766e-09)
(1.43674e-10 1.37005e-08 -1.69371e-09)
(-1.58664e-09 3.31537e-09 -8.48887e-10)
(-4.08918e-09 3.75596e-09 -8.7354e-10)
(-6.31588e-10 2.46678e-10 -9.09387e-10)
(2.94546e-10 1.89086e-07 -5.30808e-10)
(-3.40791e-07 7.23696e-07 -4.6511e-08)
(-3.15784e-07 1.22296e-06 6.65572e-08)
(-2.14381e-08 1.30225e-08 -2.22701e-09)
(-1.13275e-08 5.44787e-09 -3.32271e-09)
(-1.86361e-08 1.28427e-08 -8.38723e-09)
(-5.68523e-09 4.28312e-09 -3.33253e-09)
(-1.12469e-08 1.01648e-08 -6.5495e-09)
(-3.38478e-08 1.79644e-08 -2.53959e-09)
(-8.82395e-09 4.56452e-09 -2.61728e-09)
(-9.64249e-09 6.83131e-09 -1.79987e-09)
(-1.97562e-09 1.76185e-09 -1.29566e-09)
(-3.92313e-09 1.95645e-09 -9.0912e-10)
(-2.72451e-09 2.45882e-09 -2.29007e-09)
(-3.11596e-09 3.49536e-09 -2.96618e-09)
(-8.51366e-09 5.79731e-09 -1.68123e-09)
(-4.11118e-09 2.16388e-09 -1.06766e-09)
(5.05967e-09 5.49974e-09 -2.72141e-09)
(4.13832e-10 1.6116e-09 -1.33565e-09)
(2.65586e-09 1.68645e-09 -9.53301e-10)
(-6.76303e-10 1.9922e-09 -2.29714e-09)
(4.87884e-09 4.56439e-09 -1.70587e-09)
(-9.6598e-10 3.05755e-09 -3.05656e-09)
(2.61822e-09 1.87978e-09 -1.20833e-09)
(-8.74216e-09 4.93124e-09 -1.68301e-09)
(-3.88582e-09 1.7953e-09 -8.26406e-10)
(-2.7259e-09 2.23792e-09 -2.14971e-09)
(-2.01812e-09 1.19153e-09 -8.29079e-10)
(-3.35386e-09 1.50647e-09 -1.84847e-09)
(-8.48525e-09 5.71993e-09 -1.67209e-09)
(-3.96784e-09 1.65453e-09 -7.47058e-10)
(-1.13639e-08 4.32616e-09 -2.98702e-10)
(-3.54183e-09 9.37335e-10 4.62622e-11)
(-4.83175e-09 1.43513e-09 1.29705e-10)
(-6.26859e-09 8.46784e-10 4.34697e-10)
(-7.22473e-09 1.21407e-09 -1.86029e-10)
(-1.07303e-08 4.49223e-09 4.29297e-10)
(-4.97121e-09 1.41464e-09 -7.31822e-12)
(-4.26975e-09 1.73607e-09 -2.59498e-10)
(-2.48699e-09 6.04526e-10 1.95421e-10)
(-5.36836e-10 8.33009e-10 5.35105e-10)
(-4.82382e-09 7.96974e-10 4.50965e-10)
(-1.09255e-09 2.71191e-09 -9.54576e-11)
(-6.16142e-09 7.71017e-10 -1.1225e-10)
(-2.15259e-09 5.57381e-10 5.39871e-10)
(-9.869e-09 5.12419e-09 6.43945e-10)
(-4.7241e-09 1.46915e-09 1.73923e-10)
(-5.86825e-09 1.07756e-09 2.97614e-10)
(-2.7018e-09 1.03585e-09 1.89578e-10)
(-4.18176e-09 7.95224e-10 1.05812e-09)
(-1.06199e-08 4.51365e-09 4.65647e-10)
(-4.68278e-09 1.55595e-09 2.38143e-10)
(-9.39127e-09 5.58729e-09 1.32356e-09)
(-2.36209e-09 1.19718e-09 9.54551e-10)
(-3.91331e-09 1.88445e-09 9.66079e-10)
(-3.0559e-09 8.2362e-10 2.27577e-09)
(-3.19674e-09 1.56971e-09 1.54656e-09)
(-9.18776e-09 5.91798e-09 2.65624e-09)
(-4.11157e-09 1.82898e-09 7.39642e-10)
(1.41306e-09 3.9539e-09 1.49252e-09)
(-6.08959e-10 1.34977e-09 1.02904e-09)
(9.63592e-10 1.54793e-09 1.05546e-09)
(-3.89132e-09 3.48841e-09 2.24255e-09)
(1.48307e-09 4.26617e-09 2.7938e-09)
(-3.3391e-09 2.42549e-09 2.11826e-09)
(1.06568e-09 1.46806e-09 8.54696e-10)
(-9.11539e-09 6.68558e-09 5.32473e-09)
(-3.90055e-09 2.15658e-09 1.32119e-09)
(-4.42048e-09 5.5052e-09 3.24719e-09)
(-2.18315e-09 2.1758e-09 2.4448e-09)
(-3.83758e-09 7.15563e-09 5.99122e-09)
(-9.15078e-09 5.96875e-09 2.93156e-09)
(-3.63964e-09 2.29863e-09 1.95317e-09)
(3.35482e-09 2.05763e-09 7.93925e-09)
(-4.04505e-09 7.21595e-09 2.17267e-08)
(1.63051e-08 1.41446e-08 2.83543e-08)
(4.45722e-08 -3.83804e-08 2.08747e-08)
(5.28529e-08 1.15816e-08 4.8644e-08)
(-8.07166e-09 8.85475e-09 2.64183e-08)
(-2.48267e-07 1.89849e-07 1.38223e-07)
(1.72759e-08 3.16315e-08 4.87527e-08)
(-4.83334e-10 9.13688e-10 1.07051e-09)
(-6.16937e-10 4.86662e-10 3.94288e-09)
(-4.25558e-10 2.06667e-09 2.9717e-09)
(1.03162e-09 4.32643e-09 3.11317e-09)
(-4.91173e-09 3.01991e-09 4.15523e-09)
(-7.02663e-10 1.74797e-09 6.23021e-09)
(-3.35448e-08 4.21207e-08 2.19713e-09)
(-7.63092e-10 2.44265e-09 3.06627e-09)
(-1.10915e-08 3.2926e-08 6.29829e-09)
(-1.71208e-08 1.31152e-08 2.62414e-09)
(-4.59887e-08 3.99374e-08 -6.1325e-09)
(-8.83602e-09 1.07994e-08 -1.37086e-09)
(-4.38217e-08 4.14287e-08 5.76439e-09)
(-1.89749e-08 3.14856e-08 -3.41651e-09)
(-7.53347e-09 1.09195e-08 2.61096e-09)
(-4.69528e-08 4.68173e-08 -5.05239e-09)
(-4.35554e-08 4.68908e-08 4.68019e-09)
(-9.51968e-10 3.7351e-10 4.00088e-09)
(-1.04093e-09 9.43363e-10 5.52055e-09)
(2.00416e-10 2.146e-09 3.90462e-09)
(-1.22127e-09 4.91843e-09 -7.62733e-10)
(-3.65327e-10 4.96271e-09 2.00637e-09)
(-1.12748e-09 -7.47185e-10 2.0607e-09)
(-1.07133e-09 -6.57152e-10 1.85986e-09)
(4.0047e-10 -7.19253e-11 1.50033e-09)
(5.21696e-10 -4.62935e-11 1.40331e-09)
(1.9891e-10 -3.46736e-10 1.66173e-09)
(3.31543e-10 -8.05189e-11 9.60859e-10)
(4.96216e-10 -7.84825e-11 1.47864e-09)
(2.95552e-10 -6.19362e-11 8.11818e-10)
(4.56053e-10 -5.98986e-11 1.25645e-09)
(-1.82662e-10 -6.25959e-11 6.06084e-11)
(-1.88301e-10 -6.1458e-11 4.68908e-11)
(-3.25805e-13 -4.12547e-11 5.33587e-12)
(-9.73281e-11 -3.70318e-11 -2.56982e-10)
(-8.41994e-11 -1.11732e-10 -2.8357e-10)
(-2.37517e-10 -3.10404e-11 -6.21571e-10)
(-1.26191e-10 -4.7596e-11 -3.34367e-10)
(-1.9971e-10 -2.51495e-11 -5.27885e-10)
(-1.09744e-10 -3.59048e-11 -2.91677e-10)
(-0.00041211 0.000389488 -0.000663799)
(-1.6541e-07 -1.33869e-07 -3.16306e-08)
(-0.000348914 0.000323138 -0.000586896)
(-2.40359e-07 -1.56123e-07 -5.18479e-08)
(-0.000985309 0.000110631 0.000982352)
(-0.000379381 -4.1718e-05 0.000541431)
(-3.16483e-09 2.66871e-09 -7.28018e-10)
(-6.0893e-08 9.37486e-08 9.21578e-11)
(-9.10333e-08 8.0057e-07 1.02223e-07)
(-0.000207383 5.79305e-05 0.000165402)
(-6.3813e-06 -6.24449e-06 1.96489e-05)
(-0.000294806 -3.39993e-05 0.000425298)
(-1.0519e-07 3.74726e-07 1.59887e-08)
(-0.000962713 0.000151041 0.000881803)
(-0.000336075 0.000116372 0.000219343)
(-0.000358745 -2.39431e-05 0.000485076)
(-8.7168e-06 -7.92497e-06 2.28309e-05)
(-0.000314794 -4.83606e-05 0.000475075)
(-7.97685e-08 2.31872e-07 9.47347e-09)
(1.43415e-09 2.40151e-09 -2.22166e-09)
(1.9029e-09 1.82522e-09 -1.70175e-09)
(-1.5502e-08 1.22812e-08 -8.20648e-09)
(-8.43843e-09 1.04206e-08 -6.88795e-09)
(2.06063e-09 1.01841e-08 -6.86935e-09)
(-1.345e-09 3.31721e-09 -2.90018e-09)
(-3.23441e-09 6.18977e-09 -4.98634e-09)
(1.90764e-09 2.91262e-09 -2.35557e-09)
(-6.41677e-09 8.64696e-09 -6.47488e-09)
(4.11695e-09 7.7535e-09 -4.69869e-09)
(1.46115e-09 3.3879e-09 -2.84891e-09)
(-3.38872e-09 6.76727e-09 -4.86696e-09)
(-6.73449e-09 9.62493e-09 -6.39593e-09)
(2.25958e-09 1.2857e-09 -1.115e-09)
(2.13211e-09 1.65664e-09 -1.51905e-09)
(-0.00512719 0.00402915 -0.00259076)
(-0.0049131 0.00390038 -0.00254591)
(-0.00672691 0.00198551 0.00240723)
(-0.0051295 0.00154143 0.00217624)
(-0.00348487 0.00110194 0.00166912)
(-0.00479828 0.00217371 0.000780824)
(-0.00488855 0.00158396 0.00192231)
(-0.00350967 0.0010125 0.00185842)
(-0.00491424 0.00147547 0.00213972)
(-0.00670017 0.00211528 0.0021636)
(-0.00523327 0.00234136 0.000804109)
(-0.00510365 0.00165259 0.00195523)
(2.4991e-09 7.46189e-10 -3.22812e-10)
(2.29085e-09 6.95427e-10 -2.20976e-10)
(-8.0821e-10 1.3673e-09 -2.12409e-09)
(-1.60839e-09 5.36324e-10 -1.78766e-09)
(3.15721e-09 3.67159e-09 -8.37637e-10)
(-1.42283e-10 9.18557e-10 -8.03479e-10)
(-4.02751e-09 7.76789e-10 -1.53831e-09)
(5.73845e-10 1.03533e-09 -9.70253e-10)
(-1.94101e-09 9.61371e-10 -1.7422e-09)
(-6.99563e-10 2.68191e-09 -4.83921e-10)
(1.78219e-09 1.24665e-09 -7.52491e-10)
(-4.22214e-09 1.90513e-10 -1.52253e-09)
(-2.10484e-09 4.08555e-10 -1.72779e-09)
(5.66358e-10 5.35856e-10 -4.38123e-10)
(2.17394e-09 6.81999e-10 -1.97668e-10)
(-0.0133508 0.00725813 -0.00354587)
(-0.0130656 0.00719312 -0.00352901)
(-0.0154216 0.00310834 0.0029911)
(-0.01339 0.00300767 0.00291903)
(-0.0111059 0.00296996 0.00252164)
(-0.0130158 0.00423774 0.000994284)
(-0.013074 0.00317565 0.00261601)
(-0.0111347 0.0027976 0.00280274)
(-0.0131036 0.00298737 0.0029066)
(-0.0153911 0.003313 0.00269289)
(-0.0135917 0.00430668 0.000999108)
(-0.0133602 0.00319812 0.00262733)
(8.47504e-10 5.80899e-10 1.11028e-10)
(1.38461e-09 6.28449e-10 2.81409e-11)
(-4.59959e-09 -1.96863e-10 3.51612e-10)
(-3.41843e-09 1.41855e-09 6.12208e-10)
(1.14511e-09 3.52193e-09 1.07209e-10)
(-5.77359e-10 6.76946e-10 1.95363e-10)
(-1.06002e-09 -7.15052e-10 3.79806e-10)
(1.46742e-09 1.20892e-09 2.01987e-10)
(-3.28749e-09 6.36217e-10 4.06098e-10)
(1.88788e-09 3.58927e-09 4.77305e-10)
(1.29678e-09 1.15694e-09 1.35983e-10)
(-2.48053e-09 -4.99384e-10 3.76057e-11)
(-3.84221e-09 2.18165e-10 4.23654e-10)
(1.5224e-09 6.58177e-10 9.83945e-11)
(1.44798e-09 6.39209e-10 4.42826e-11)
(-0.0227821 0.00831949 -0.00377014)
(-0.0224851 0.0083055 -0.0037695)
(-0.0249428 0.00324625 0.00308745)
(-0.0228456 0.00319525 0.00309447)
(-0.0204322 0.00340091 0.00277379)
(-0.0224896 0.00475643 0.00102709)
(-0.0225165 0.00342534 0.00278524)
(-0.0204639 0.00317136 0.00308043)
(-0.0225483 0.00319075 0.00309339)
(-0.0249118 0.00347443 0.00279063)
(-0.0230857 0.00477183 0.00102753)
(-0.0228138 0.00343032 0.00278618)
(1.18226e-09 8.60723e-10 7.16075e-10)
(1.16657e-09 9.13021e-10 1.16826e-09)
(-2.11549e-09 2.32932e-09 3.05492e-09)
(-4.44917e-09 1.34429e-08 8.6623e-09)
(1.71205e-10 3.52852e-09 7.39793e-09)
(-6.58173e-10 1.09039e-09 1.7342e-09)
(-2.92431e-09 7.58066e-09 6.62237e-09)
(3.04489e-10 8.88296e-10 1.53941e-09)
(-2.36732e-09 1.07331e-08 6.63979e-09)
(1.10298e-09 8.26054e-10 1.55255e-09)
(-3.5168e-09 1.62955e-09 1.77613e-09)
(-5.91341e-09 4.9748e-09 1.93468e-08)
(-9.99239e-09 5.46721e-09 6.55607e-09)
(-3.71528e-08 7.64881e-09 3.41328e-09)
(-4.79124e-09 3.34132e-09 4.51367e-09)
(-5.42106e-09 2.71068e-09 1.20137e-08)
(-5.37992e-08 5.44017e-08 1.32954e-09)
(-8.93631e-09 6.693e-09 6.17411e-09)
(-1.14159e-07 7.85311e-08 -2.39786e-10)
(-2.92246e-08 1.72195e-08 1.64287e-09)
(-5.68431e-08 4.43596e-08 -6.86842e-09)
(-3.85848e-08 1.82262e-08 -4.85912e-09)
(-5.77915e-08 4.79563e-08 5.27409e-09)
(-9.52822e-08 5.37994e-08 -5.36119e-10)
(-4.39181e-08 2.12077e-08 2.31787e-09)
(-5.90946e-08 5.4853e-08 -5.4123e-09)
(-5.84012e-08 5.79674e-08 3.86884e-09)
(-8.46697e-09 5.49094e-09 2.15263e-08)
(-6.45982e-09 2.87763e-09 1.3546e-08)
(-1.07527e-08 7.10606e-09 1.02489e-08)
(-2.5855e-08 5.19805e-09 -2.02705e-09)
(-3.34073e-08 8.62438e-09 7.25688e-10)
(-1.21167e-08 -5.96816e-09 1.36241e-08)
(-2.72211e-07 1.89812e-07 2.86674e-07)
(-1.15921e-08 -7.73039e-09 1.50469e-08)
(-1.97895e-10 -2.45047e-10 6.57525e-09)
(-5.63493e-09 1.79551e-09 1.25745e-08)
(-5.06437e-09 -6.90808e-10 1.1732e-08)
(-2.45007e-09 -2.40488e-09 8.46396e-09)
(-1.67288e-08 -7.85484e-09 2.30418e-08)
(-6.22284e-09 -2.82618e-09 1.41479e-08)
(-8.10368e-09 2.02027e-09 1.44892e-08)
(-1.94465e-08 -8.33652e-09 2.78702e-08)
(-7.39281e-09 -1.20368e-09 1.4546e-08)
(-6.13562e-08 3.30959e-08 -1.83322e-09)
(-1.78029e-08 1.16199e-08 -6.50429e-09)
(-5.29726e-08 4.13405e-08 -8.76214e-09)
(-3.13606e-08 1.48499e-08 -5.91108e-09)
(-9.20844e-08 5.18451e-08 -7.69155e-10)
(-3.72595e-08 3.37023e-08 -1.04686e-08)
(-2.4579e-08 1.18166e-08 -5.9293e-09)
(-9.71876e-09 1.85036e-09 -1.18564e-09)
(-1.45083e-08 2.74275e-09 -1.6883e-09)
(-2.32744e-08 1.57107e-08 -7.54875e-09)
(-3.31057e-08 4.07345e-08 -1.26098e-08)
(-5.53935e-08 5.07573e-08 -7.01696e-09)
(-3.8352e-08 4.5459e-08 -7.11837e-09)
(-2.35678e-08 4.62345e-09 -1.95897e-09)
(-1.60153e-08 3.12127e-09 -1.7838e-09)
(-2.79659e-10 3.31383e-10 1.27711e-09)
(-6.37065e-10 1.4756e-10 3.45072e-09)
(-8.9306e-11 3.49858e-10 2.50477e-09)
(1.17728e-09 2.28158e-10 4.80888e-10)
(3.34115e-10 5.93746e-10 2.44827e-09)
(-7.83236e-10 6.75637e-12 3.21786e-09)
(1.60759e-10 4.47355e-10 1.19458e-09)
(1.06227e-10 4.1525e-10 2.61431e-09)
(-1.40606e-09 -4.58122e-10 3.96274e-09)
(-1.01575e-09 5.92618e-10 6.86026e-09)
(3.99394e-10 1.05648e-09 2.25151e-09)
(4.72809e-10 -8.34485e-11 1.61764e-09)
(6.44292e-10 1.0945e-10 2.06662e-09)
(-1.34552e-09 4.72632e-10 5.33931e-09)
(4.75817e-10 9.2505e-10 1.8967e-09)
(4.34926e-10 4.84349e-10 1.11491e-09)
(-1.34097e-08 2.31206e-08 -1.03405e-08)
(-1.2177e-08 1.00016e-08 -5.79878e-09)
(-4.34614e-08 3.74239e-08 -8.29367e-09)
(-8.28858e-09 9.70303e-09 -3.64985e-09)
(-1.88453e-08 3.05059e-08 -4.77425e-09)
(-3.20948e-08 3.22229e-08 -1.033e-08)
(-6.60708e-09 8.45285e-09 -4.87612e-09)
(9.84098e-10 2.6643e-09 -2.43483e-09)
(-2.0709e-10 3.54844e-09 -2.69144e-09)
(-1.78648e-08 1.24335e-08 -8.27783e-09)
(-3.15332e-08 3.94311e-08 -1.49319e-08)
(-4.47348e-08 4.36955e-08 -7.00779e-09)
(-3.52037e-08 4.34259e-08 -6.60096e-09)
(-1.20908e-09 4.71713e-09 -1.44802e-09)
(-8.32326e-10 3.91005e-09 -2.55531e-09)
(-1.64289e-09 -2.17887e-09 7.50087e-09)
(-1.90309e-09 -1.47038e-09 4.38038e-09)
(-6.4485e-10 -1.5273e-09 4.52944e-09)
(3.13763e-10 -5.61532e-10 2.92076e-09)
(5.44359e-12 -6.92247e-10 2.23442e-09)
(-1.78061e-10 -1.06134e-09 3.61222e-09)
(-1.45288e-09 -1.16702e-09 3.54587e-09)
(-1.09595e-10 -7.57323e-10 2.31736e-09)
(-4.15736e-10 -1.24582e-09 3.84019e-09)
(-2.88635e-10 -1.27509e-10 4.49623e-10)
(-2.79959e-10 -1.28799e-10 4.94406e-10)
(1.88832e-10 -2.80471e-10 1.00869e-09)
(2.39339e-11 -5.81212e-10 1.88588e-09)
(-7.20292e-11 -3.88761e-10 1.14821e-09)
(-9.4417e-11 -2.73105e-10 4.17276e-10)
(-3.66408e-10 -2.53271e-10 8.70649e-10)
(-1.35049e-10 -4.10426e-10 1.0096e-09)
(-7.5955e-11 -6.21127e-10 1.93638e-09)
(-3.73365e-10 -2.53113e-10 1.06693e-09)
(-2.31225e-10 -4.12122e-10 1.30072e-09)
(8.89886e-11 -1.77493e-10 5.43872e-10)
(3.01645e-10 -7.6528e-11 9.10525e-10)
(1.56414e-10 -6.8749e-11 4.72525e-10)
(1.49711e-11 -4.26469e-11 4.56249e-11)
(1.25252e-10 -4.91576e-11 3.47673e-10)
(2.69894e-10 -5.93402e-11 7.53814e-10)
(1.41937e-10 -5.08249e-11 3.9269e-10)
(-1.08265e-10 -2.38093e-10 2.84624e-10)
(-2.52135e-10 -1.32811e-10 6.42143e-11)
(-1.65278e-10 -2.34466e-10 -1.18267e-10)
(-1.31415e-10 -1.55552e-10 -5.05021e-10)
(-2.70049e-10 3.31298e-10 -8.1943e-10)
(-1.88084e-10 -1.97582e-10 -3.79533e-10)
(-2.39734e-10 -1.22956e-10 -4.05939e-11)
(-2.10243e-10 4.00023e-10 -7.18415e-10)
(-1.72372e-10 -2.13195e-10 -3.01807e-10)
(1.42103e-09 2.14502e-09 -1.49304e-10)
(9.23744e-10 1.6432e-09 -1.73131e-10)
(-1.69031e-09 4.28195e-09 -1.72223e-09)
(-3.18463e-10 8.06317e-10 -9.40619e-10)
(-1.42202e-10 7.00087e-09 -1.49193e-09)
(1.3589e-08 9.32692e-08 -1.23591e-09)
(3.42079e-09 5.97027e-09 -8.82289e-10)
(1.72511e-09 1.34809e-08 -1.58222e-09)
(-1.80672e-10 8.43448e-10 -7.83271e-10)
(1.70288e-09 3.55716e-09 -7.55831e-10)
(6.75764e-10 6.97544e-09 -1.3727e-09)
(-1.14032e-09 2.24548e-09 -8.70464e-10)
(-2.51526e-10 -2.38288e-11 -6.5327e-10)
(-5.29784e-10 1.70444e-10 -8.80389e-10)
(-2.27184e-09 1.7212e-09 -7.70001e-10)
(-4.31803e-10 1.10523e-10 -7.63563e-10)
(-2.12589e-10 -2.30464e-11 -5.58313e-10)
(-3.79858e-10 6.72313e-11 -7.44954e-10)
(-0.000878207 0.000711691 -0.000444005)
(-0.000397849 0.000376852 -0.000609387)
(-0.000347976 0.000304918 -0.000259159)
(1.9591e-08 1.7709e-07 8.51537e-11)
(-1.88346e-07 -4.47263e-08 4.21812e-09)
(-2.91706e-07 1.17125e-06 1.12906e-07)
(-6.27699e-07 1.56903e-06 -7.69582e-08)
(-0.00019759 8.86712e-05 8.68712e-05)
(-2.43973e-06 3.69768e-06 -1.42454e-05)
(-0.000205643 0.000172464 -0.000120749)
(-1.07207e-06 2.10393e-06 2.60242e-07)
(-0.000865 0.000648604 -0.000277938)
(-0.000324805 0.000157959 0.000116781)
(-0.000334247 0.000269767 -0.000159975)
(-0.000334053 0.000311832 -0.00053705)
(-5.81574e-07 -1.12606e-06 -6.43206e-07)
(-5.05201e-06 5.32857e-06 -2.22215e-05)
(-0.000218386 0.000199744 -0.000195503)
(-1.12776e-06 1.67348e-06 2.59878e-07)
(-0.000403989 0.000407802 -0.000712836)
(-0.000342761 0.000342046 -0.000632099)
(-0.000802623 0.000734149 -0.000605204)
(-0.000384982 0.000402889 -0.000680196)
(-0.000305565 0.000330731 -0.00037173)
(-0.000164449 8.11704e-05 3.40537e-05)
(2.90685e-06 1.58069e-05 -2.72198e-05)
(-0.000171192 0.000192122 -0.000207265)
(-0.000784747 0.000664181 -0.000433743)
(-0.000280234 0.000150426 4.59639e-05)
(-0.000288263 0.000287622 -0.000266639)
(-0.000324026 0.000339041 -0.000602324)
(-1.03141e-06 2.29133e-05 -3.75121e-05)
(-0.000187126 0.000227446 -0.000288558)
(-0.00201713 0.00185925 -0.00169508)
(-0.0021656 0.00197954 -0.00175571)
(-0.00110019 0.000874011 -0.000503118)
(-0.00201419 0.001819 -0.00157786)
(-0.00189254 0.00142404 -0.000672327)
(-0.0021707 0.0011538 0.000294126)
(-0.00320884 0.00211087 -0.000565986)
(-0.00218587 0.00150902 -0.000463065)
(-0.0010875 0.000800853 -0.000316303)
(-0.00186687 0.000995422 0.000276279)
(-0.00188143 0.0013195 -0.000427408)
(-0.00216345 0.00193727 -0.00163493)
(-0.00321786 0.00225829 -0.00087933)
(-0.00219642 0.00162424 -0.000726082)
(-0.00197557 0.0018737 -0.0017818)
(-0.00212164 0.00199374 -0.00184382)
(-0.00101296 0.000895728 -0.000677548)
(-0.00195226 0.00183946 -0.00170367)
(-0.00176892 0.00144366 -0.000878147)
(-0.00203887 0.00114881 0.000134816)
(-0.00302938 0.0021226 -0.0007907)
(-0.00204419 0.00152214 -0.000672062)
(-0.000995328 0.00081591 -0.000485494)
(-0.00174599 0.000990272 0.000124017)
(-0.00175233 0.0013331 -0.000628465)
(-0.002098 0.00195738 -0.00176279)
(-0.0030445 0.00227523 -0.00110812)
(-0.00206046 0.00164318 -0.000939573)
(-0.000930931 8.69284e-05 0.000935682)
(-0.000352311 -6.82429e-05 0.000526875)
(-0.000169959 4.44651e-05 0.000113686)
(-6.96509e-06 -1.59683e-05 2.3166e-05)
(-0.000276153 -5.2888e-05 0.000414982)
(-0.000919329 0.000134702 0.000842231)
(-0.000285626 0.000102406 0.000148905)
(-0.000336964 -4.23885e-05 0.000470869)
(-9.48381e-06 -2.04003e-05 2.63707e-05)
(-0.000291602 -7.54814e-05 0.000465286)
(-0.0010939 0.000146008 0.00104159)
(-0.00200053 0.000468133 0.00142919)
(-0.00218375 0.00102485 0.000570684)
(-0.00329992 0.0010344 0.00162964)
(-0.00212626 0.00058999 0.00132962)
(-0.00107116 0.000189486 0.00093506)
(-0.00187978 0.000877222 0.000533541)
(-0.00197688 0.000532269 0.00128334)
(-0.00332459 0.000947723 0.00181453)
(-0.00215002 0.000522975 0.0014807)
(-0.00103568 0.000122656 0.000990926)
(-0.00191602 0.000447212 0.00135596)
(-0.00203808 0.00101477 0.000404288)
(-0.00321026 0.00102193 0.00155817)
(-0.00205635 0.000575832 0.00126727)
(-0.00102476 0.000173398 0.000892352)
(-0.00174593 0.0008668 0.000374847)
(-0.00190988 0.000517873 0.00122291)
(-0.00321124 0.000929605 0.00172723)
(-0.00206187 0.000502406 0.00140504)
(-8.79749e-09 1.70297e-09 -1.00372e-09)
(-6.15433e-09 1.37978e-09 -7.02713e-10)
(-1.98459e-08 1.53667e-08 -7.27281e-09)