/*--------------------------------*- C++ -*----------------------------------*\
| =========                 |                                                 |
| \\      /  F ield         | OpenFOAM: The Open Source CFD Toolbox           |
|  \\    /   O peration     | Version:  2012                                  |
|   \\  /    A nd           | Website:  www.openfoam.com                      |
|    \\/     M anipulation  |                                                 |
\*---------------------------------------------------------------------------*/
FoamFile
{
    version     2.0;
    format      ascii;
    class       volVectorField;
    location    "0.108/fluid";
    object      cellMotionU;
}
// * * * * * * * * * * * * * * * * * * * * * * * * * * * * * * * * * * * * * //

dimensions      [0 1 -1 0 0 0 0];


internalField   nonuniform List<vector> 
16422
(
(0.000176945 -0.000105624 2.83841e-07)
(0.00028176 -0.000224783 -6.65171e-06)
(0.000328166 -0.000302236 -9.84771e-06)
(0.000343739 -0.000317253 -1.00378e-05)
(0.000353045 -0.000350268 -1.06691e-05)
(0.000350646 -0.000365047 -1.13754e-05)
(0.000322925 -0.000316213 -1.05074e-05)
(0.000294828 -0.000282017 -9.66964e-06)
(0.000257881 -0.000233822 -8.2166e-06)
(0.000220457 -0.000189289 -6.82131e-06)
(0.000188678 -0.000167718 -5.90559e-06)
(0.000145664 -0.000119814 -4.40668e-06)
(9.99984e-05 -7.53539e-05 -2.849e-06)
(6.02764e-05 -6.47313e-05 -1.86421e-06)
(0.00211346 -0.00165494 2.33497e-06)
(0.00250309 -0.00237231 -7.57122e-05)
(0.00308126 -0.00329734 -0.000130222)
(0.00330994 -0.00363683 -0.000140599)
(0.00330231 -0.00357024 -0.000128821)
(0.00310798 -0.00313848 -0.000110956)
(0.00285456 -0.0025797 -9.58004e-05)
(0.00261883 -0.00218189 -8.60147e-05)
(0.00237304 -0.00186885 -7.6392e-05)
(0.00210424 -0.00157493 -6.61369e-05)
(0.00183954 -0.00135261 -5.70853e-05)
(0.00153181 -0.00108268 -4.57563e-05)
(0.00119022 -0.000782033 -3.38783e-05)
(0.000848305 -0.000564522 -2.36337e-05)
(0.000477763 -0.000407896 -1.39917e-05)
(0.00985329 -0.00885548 -0.000677924)
(0.00946818 -0.0123593 -0.000670696)
(0.00864523 -0.0122569 -0.0005937)
(0.00773326 -0.0107504 -0.000484915)
(0.00682958 -0.00903787 -0.00038639)
(0.00609529 -0.00733146 -0.000309989)
(0.00548598 -0.00583024 -0.000256521)
(0.0048988 -0.00458303 -0.000209892)
(0.00434279 -0.00361409 -0.000169958)
(0.00380246 -0.0028608 -0.000136618)
(0.00323644 -0.00217754 -0.000106868)
(0.00265468 -0.00158403 -8.06788e-05)
(0.00208058 -0.00115721 -5.95311e-05)
(0.0015261 -0.000935055 -4.38313e-05)
(0.000839852 -0.000613088 -2.48075e-05)
(0.0132516 -0.00893561 -0.00112843)
(0.0138268 -0.018943 -0.00129062)
(0.0126158 -0.0188289 -0.00119272)
(0.0111501 -0.0172806 -0.000982276)
(0.00986489 -0.0144927 -0.000781658)
(0.00886262 -0.0117851 -0.000625351)
(0.00791644 -0.00913055 -0.000489203)
(0.00703335 -0.00709975 -0.000377915)
(0.00618447 -0.0054637 -0.000287938)
(0.00538784 -0.00419512 -0.000218748)
(0.00457811 -0.00313729 -0.000163984)
(0.00380045 -0.00235226 -0.000124493)
(0.00298319 -0.00167139 -9.03245e-05)
(0.00215846 -0.0012367 -6.34383e-05)
(0.00124147 -0.000938833 -3.86786e-05)
(9.65683e-05 -8.6522e-05 -3.42707e-05)
(0.000226488 -0.000173318 -2.36365e-05)
(0.000305558 -0.00025182 -1.99022e-05)
(0.00033342 -0.000268716 -1.66728e-05)
(0.000348102 -0.000289064 -1.51752e-05)
(0.000341525 -0.000280694 -1.38887e-05)
(0.00031737 -0.000248802 -1.1982e-05)
(0.000284754 -0.000212033 -1.00181e-05)
(0.000247361 -0.000173393 -8.27259e-06)
(0.000211402 -0.000143146 -6.77956e-06)
(0.000179349 -0.000126575 -5.65595e-06)
(0.000152264 -0.000128346 -4.9927e-06)
(0.000111453 -0.000101093 -3.66671e-06)
(6.00672e-05 -5.84612e-05 -1.95468e-06)
(0.00162107 -0.00126176 -0.000221834)
(0.00215949 -0.00187492 -0.000224613)
(0.00288594 -0.00265057 -0.000224373)
(0.00325562 -0.00303705 -0.000208508)
(0.00331063 -0.0030048 -0.000179025)
(0.00320726 -0.0027789 -0.000153089)
(0.00299069 -0.00238633 -0.000129974)
(0.0027135 -0.00197826 -0.000107735)
(0.00242206 -0.00164608 -8.89712e-05)
(0.00212779 -0.00137376 -7.41119e-05)
(0.0018271 -0.00114394 -6.06945e-05)
(0.00152905 -0.000966072 -4.88385e-05)
(0.00119022 -0.000713441 -3.6113e-05)
(0.000831601 -0.000483071 -2.41788e-05)
(0.000481584 -0.000383851 -1.50916e-05)
(0.00908957 -0.00568615 -0.000805246)
(0.00899698 -0.00808003 -0.000765924)
(0.00843613 -0.00842153 -0.000663211)
(0.00775674 -0.00811968 -0.00054572)
(0.00702085 -0.00729261 -0.000444915)
(0.0063337 -0.00601997 -0.000363611)
(0.0056834 -0.00486361 -0.000297516)
(0.00504259 -0.00385579 -0.000238663)
(0.00442441 -0.00303595 -0.000187897)
(0.00384043 -0.00239717 -0.000148098)
(0.00326501 -0.00190105 -0.000115792)
(0.00265487 -0.00141509 -8.62422e-05)
(0.00205339 -0.000981105 -6.18008e-05)
(0.00149657 -0.000785297 -4.45111e-05)
(0.000860975 -0.000628366 -2.7156e-05)
(0.0144504 -0.00633253 -0.00171851)
(0.0138663 -0.0120419 -0.0014686)
(0.012525 -0.0128194 -0.00121369)
(0.0112217 -0.0120089 -0.000985102)
(0.0100609 -0.0105382 -0.000795564)
(0.00906307 -0.00880064 -0.00064332)
(0.00809009 -0.00715315 -0.000509484)
(0.00722225 -0.00578367 -0.000405301)
(0.00631608 -0.00445343 -0.000306962)
(0.00542123 -0.00338674 -0.000226892)
(0.00456024 -0.0025696 -0.000167919)
(0.00381165 -0.00207492 -0.000130808)
(0.00299774 -0.00152599 -9.51853e-05)
(0.00215751 -0.00114315 -6.6043e-05)
(0.00121593 -0.000819092 -3.84505e-05)
(0.000122861 -7.64144e-05 -7.61114e-05)
(0.000159218 -0.000108456 -4.04653e-05)
(0.000242177 -0.000166956 -2.69009e-05)
(0.000295963 -0.000208048 -2.12991e-05)
(0.000331605 -0.000244721 -1.79262e-05)
(0.000343821 -0.000257068 -1.55785e-05)
(0.000338716 -0.00025089 -1.36819e-05)
(0.000313217 -0.000221549 -1.12197e-05)
(0.000277251 -0.000182853 -8.85769e-06)
(0.000237758 -0.000141755 -6.93997e-06)
(0.000203719 -0.000117776 -5.62985e-06)
(0.000180634 -0.000123307 -4.97573e-06)
(0.000147569 -0.000109857 -3.96062e-06)
(0.000104835 -7.95387e-05 -2.77722e-06)
(6.0099e-05 -5.49504e-05 -1.62228e-06)
(0.00194288 -0.00109861 -0.000274875)
(0.0022849 -0.00160323 -0.00025023)
(0.00277381 -0.00208143 -0.000229486)
(0.00312119 -0.00243655 -0.000208121)
(0.00321885 -0.00252384 -0.000178115)
(0.00314067 -0.0023613 -0.000150759)
(0.0029498 -0.00206774 -0.000125381)
(0.00268548 -0.00174277 -0.00010118)
(0.0023888 -0.00144515 -8.11962e-05)
(0.00207852 -0.0011673 -6.5074e-05)
(0.00178043 -0.000961814 -5.21917e-05)
(0.00147187 -0.000775127 -3.97308e-05)
(0.00115583 -0.000600826 -2.9462e-05)
(0.000843548 -0.000486377 -2.10325e-05)
(0.000502304 -0.000404841 -1.33083e-05)
(0.00742545 -0.00360728 -0.00065014)
(0.00748849 -0.00515974 -0.000622809)
(0.00743533 -0.00594596 -0.000566522)
(0.0071158 -0.00603172 -0.000485729)
(0.00665288 -0.00552318 -0.000403994)
(0.00613132 -0.00475303 -0.000333867)
(0.00555497 -0.00392305 -0.000270489)
(0.00495983 -0.00317964 -0.00021456)
(0.00437135 -0.0025557 -0.000168152)
(0.00380145 -0.00205309 -0.000131531)
(0.00322495 -0.00163102 -0.000100722)
(0.00260812 -0.00118766 -7.17523e-05)
(0.00203271 -0.000878123 -5.16334e-05)
(0.00147204 -0.000696046 -3.65548e-05)
(0.000873736 -0.000619005 -2.38017e-05)
(0.0129498 -0.00468685 -0.0013634)
(0.0124555 -0.00822616 -0.00123265)
(0.01159 -0.00896539 -0.0010505)
(0.0106022 -0.00858383 -0.000859158)
(0.00972307 -0.00776384 -0.000701632)
(0.00885053 -0.0067147 -0.000562604)
(0.00797646 -0.0056319 -0.000444202)
(0.00709953 -0.0046055 -0.000344937)
(0.00626345 -0.00376959 -0.000267523)
(0.00537734 -0.00291033 -0.00019842)
(0.00449335 -0.00218144 -0.000141804)
(0.003692 -0.0016757 -0.000105151)
(0.00292186 -0.00132999 -7.8596e-05)
(0.0020649 -0.000928763 -5.16865e-05)
(0.00119236 -0.00075776 -3.1971e-05)
(0.000235873 -9.73139e-05 -3.03778e-05)
(0.000248434 -0.000134193 -2.32351e-05)
(0.000275979 -0.000158977 -1.86878e-05)
(0.000310473 -0.0001943 -1.50494e-05)
(0.000329868 -0.000217431 -1.24691e-05)
(0.000339543 -0.000234024 -1.00865e-05)
(0.000331212 -0.000222955 -8.63674e-06)
(0.000307508 -0.000200971 -7.05823e-06)
(0.000273963 -0.00017059 -5.64091e-06)
(0.000233903 -0.0001314 -4.24811e-06)
(0.00019706 -0.000100778 -3.26583e-06)
(0.000172134 -0.000101274 -2.78976e-06)
(0.000143738 -9.82603e-05 -2.31119e-06)
(0.000100375 -6.73075e-05 -1.55224e-06)
(5.66491e-05 -4.59903e-05 -9.0893e-07)
(0.00261208 -0.00116129 -0.000204619)
(0.00272811 -0.00157812 -0.000186932)
(0.00290733 -0.00183377 -0.000161851)
(0.00305168 -0.00201213 -0.000140523)
(0.00307634 -0.0020707 -0.000117002)
(0.0029876 -0.00191756 -9.4846e-05)
(0.00285007 -0.00175229 -7.75062e-05)
(0.00261364 -0.00151447 -6.22868e-05)
(0.00231862 -0.00124794 -4.95435e-05)
(0.00201615 -0.00100248 -3.92197e-05)
(0.00171609 -0.000797858 -3.06683e-05)
(0.0014228 -0.000651289 -2.37558e-05)
(0.00114246 -0.000558042 -1.79211e-05)
(0.000818633 -0.00042286 -1.1863e-05)
(0.000492062 -0.000373719 -7.89871e-06)
(0.00665496 -0.00258402 -0.000429712)
(0.00668126 -0.0036284 -0.000411135)
(0.00667716 -0.00423144 -0.000361094)
(0.00642971 -0.00426985 -0.000296672)
(0.00614095 -0.00404391 -0.000244447)
(0.0057895 -0.00365718 -0.000202254)
(0.00532481 -0.0031361 -0.000162608)
(0.00480075 -0.0026176 -0.000129047)
(0.00425714 -0.0021599 -0.000102007)
(0.00373135 -0.00179371 -8.17078e-05)
(0.00316853 -0.00143558 -6.26354e-05)
(0.00256327 -0.00105175 -4.3798e-05)
(0.00200535 -0.000801097 -3.09877e-05)
(0.00145952 -0.000662426 -2.25966e-05)
(0.000869529 -0.00059474 -1.48673e-05)
(0.0114788 -0.0034788 -0.000890924)
(0.0111209 -0.00564737 -0.00079879)
(0.0105151 -0.00622129 -0.000655868)
(0.00987327 -0.00618702 -0.000530646)
(0.00918869 -0.0058047 -0.000426974)
(0.00846457 -0.0052049 -0.000341716)
(0.00770434 -0.00450288 -0.000270907)
(0.00690481 -0.00378603 -0.000210915)
(0.00611238 -0.00314803 -0.000165094)
(0.00529412 -0.00253074 -0.000126231)
(0.00445566 -0.00196651 -9.12805e-05)
(0.00362403 -0.00147764 -6.39559e-05)
(0.00281714 -0.00110603 -4.48467e-05)
(0.0020004 -0.000817487 -3.30008e-05)
(0.00117259 -0.000704997 -2.06902e-05)
(0.000198957 -8.69508e-05 9.83288e-06)
(0.00136153 -0.000884495 5.85528e-05)
(0.00162751 -0.00119057 2.4507e-05)
(0.0131545 -0.0109822 -0.000976556)
(0.0138656 -0.0228891 -0.00119494)
(0.000145449 -8.52683e-05 3.75512e-06)
(0.00114222 -0.000834374 1.68846e-06)
(0.00145324 -0.0011654 -2.31123e-05)
(6.93073e-05 -7.89125e-05 -2.2183e-05)
(0.00082129 -0.000728421 -0.000135707)
(0.00115201 -0.000994922 -0.000142679)
(0.014007 -0.0191354 -0.00130973)
(0.0145636 -0.00665029 -0.00174296)
(0.0143315 -0.0127017 -0.00154008)
(5.77943e-05 -7.22398e-05 -3.89074e-05)
(0.000771773 -0.000668983 -0.000205294)
(0.001121 -0.000960332 -0.000184515)
(8.95061e-05 -7.07834e-05 -0.00011377)
(0.000109597 -8.69946e-05 -5.5285e-05)
(0.0010294 -0.000663141 -0.000270576)
(0.00128538 -0.000939078 -0.000227083)
(0.00970109 -0.00983674 -0.000557159)
(0.0093701 -0.013265 -0.000604475)
(0.012972 -0.0128989 -0.000937638)
(0.0131481 -0.0206334 -0.00100855)
(0.0136588 -0.0228086 -0.001226)
(0.0127667 -0.0223082 -0.00121313)
(0.000268782 -0.000248524 -7.59035e-06)
(8.78246e-05 -5.34498e-05 7.65277e-06)
(0.000560045 -0.00041527 -6.66577e-06)
(0.000394522 -0.000237506 1.45597e-05)
(0.000390269 -0.00042558 -2.66714e-05)
(3.65726e-05 -4.31422e-05 2.27253e-06)
(0.00957733 -0.0118817 -0.000677058)
(0.0131766 -0.0100589 -0.00114299)
(0.0133539 -0.0174333 -0.001127)
(0.00948912 -0.006484 -0.000817276)
(0.00938684 -0.00862693 -0.000787811)
(0.0136808 -0.00712733 -0.00148781)
(0.0134661 -0.0117835 -0.00133458)
(0.0140196 -0.0161389 -0.00114484)
(0.0136407 -0.00696013 -0.00141422)
(0.0143552 -0.0135375 -0.00136897)
(0.0129247 -0.019067 -0.00123677)
(0.01408 -0.0131918 -0.0014882)
(0.0129914 -0.0138905 -0.0012842)
(0.000137772 -0.000196053 -0.000243867)
(-1.82497e-06 -3.73985e-05 -1.33671e-05)
(0.000262742 -0.000410522 -0.00016512)
(3.68912e-05 -1.5944e-06 -0.00013064)
(0.000144242 -0.000242007 -0.000126179)
(0.000218408 -0.000259514 -0.000387701)
(-9.05688e-06 -1.78238e-05 -5.81998e-05)
(0.0141068 -0.0115903 -0.00153605)
(0.013371 -0.00514661 -0.00145468)
(0.0130392 -0.0085775 -0.00135811)
(9.81433e-05 -5.50896e-05 8.48601e-06)
(0.000597634 -0.000412362 -5.26686e-06)
(0.00046497 -0.000225457 2.30052e-05)
(0.0139174 -0.0191258 -0.00101465)
(0.0141691 -0.0232311 -0.00115642)
(0.0140693 -0.0236241 -0.00144658)
(0.000224765 -0.000248719 -1.99266e-05)
(1.89002e-06 -3.7553e-05 -9.88449e-06)
(0.000273761 -0.000417772 -0.000132519)
(0.000370307 -0.000426986 -3.28809e-05)
(0.000159677 -0.000245221 -7.67722e-05)
(2.98025e-05 -4.15524e-05 1.21977e-06)
(0.0142915 -0.0192477 -0.00130049)
(0.0141514 -0.0197342 -0.0015229)
(0.0142636 -0.0164715 -0.00143023)
(0.0145567 -0.0164837 -0.00145731)
(0.0145782 -0.0173056 -0.0016576)
(0.0139487 -0.00650966 -0.00153663)
(0.0146285 -0.00996851 -0.00166938)
(0.0154505 -0.00649136 -0.00205672)
(0.0146694 -0.0119621 -0.00157273)
(0.0154496 -0.0107556 -0.00195714)
(0.0144442 -0.0144731 -0.00152645)
(0.0145825 -0.0119407 -0.00161934)
(0.0150503 -0.0134858 -0.00179321)
(0.0147457 -0.0142199 -0.00159279)
(0.0150423 -0.0155142 -0.00177181)
(0.0153503 -0.0128943 -0.0018784)
(0.00021864 -0.000107191 6.34246e-06)
(0.000289376 -0.000201976 8.53057e-07)
(0.00177732 -0.00139736 1.17529e-05)
(0.00219127 -0.00206753 -3.19623e-05)
(0.00237075 -0.00178374 0.000103122)
(0.00249278 -0.00220367 1.06911e-05)
(0.00754627 -0.00727844 -0.000274288)
(0.0073652 -0.00971083 -0.000390955)
(0.000259265 -0.000195312 -5.19489e-06)
(0.00161882 -0.00135217 -3.45664e-05)
(0.00210337 -0.00201892 -7.03821e-05)
(0.00010579 -9.18788e-05 -2.20746e-05)
(0.000205306 -0.000158902 -2.06512e-05)
(0.00132903 -0.00113681 -0.000143098)
(0.00188063 -0.00168138 -0.000149136)
(0.00233981 -0.00213906 -5.71749e-05)
(0.00755713 -0.0066988 -0.000405432)
(0.00745159 -0.00888477 -0.000465798)
(0.0016771 -0.00135065 -0.00017062)
(0.00201824 -0.00179428 -0.00018827)
(0.00703405 -0.00496422 -0.00056662)
(0.00713556 -0.00660478 -0.000577166)
(0.000198717 -0.000151163 -2.51317e-05)
(0.00129408 -0.00108461 -0.000177134)
(0.00185799 -0.00162339 -0.000167269)
(0.000134714 -9.94324e-05 -4.40855e-05)
(0.000212328 -0.00015034 -3.02466e-05)
(0.00142826 -0.00106071 -0.00021325)
(0.00183843 -0.00139478 -0.000184812)
(0.00196812 -0.0016936 -0.000223269)
(0.00668895 -0.00436371 -0.000570569)
(0.00684223 -0.00593377 -0.000575702)
(0.00177691 -0.00110687 -0.000281676)
(0.00206072 -0.00151342 -0.000260619)
(0.00581593 -0.00318897 -0.000520402)
(0.00600547 -0.00434999 -0.000518535)
(0.000139123 -9.59637e-05 -4.69547e-05)
(0.00121427 -0.000695435 -0.000251898)
(0.00139666 -0.00093755 -0.000217806)
(0.000209638 -8.92984e-05 -3.7677e-05)
(0.000222059 -0.000121234 -2.95986e-05)
(0.00172937 -0.000780592 -0.000193575)
(0.00181446 -0.00102348 -0.000174343)
(0.000118545 -5.94266e-05 1.15578e-05)
(0.000560357 -0.000274292 1.8879e-05)
(0.000460506 -0.0002062 2.60306e-05)
(0.000670127 -0.000430056 2.04742e-06)
(0.00136899 -0.000905633 4.57638e-05)
(0.0007633 -0.000403774 2.40829e-05)
(0.000260231 -0.00021241 -3.22422e-06)
(9.55702e-05 -5.69758e-05 9.17823e-06)
(0.000440702 -0.000274753 2.72504e-06)
(0.000111454 -8.38427e-05 -2.26384e-06)
(0.000335756 -0.000208998 1.21804e-05)
(0.000353339 -0.000266411 -1.31627e-05)
(4.96142e-05 -5.20027e-05 2.9098e-06)
(0.000493524 -0.000413872 -2.03978e-05)
(0.000594349 -0.00043076 -4.56677e-06)
(0.00117242 -0.000882219 -4.24092e-06)
(0.00099352 -0.000797098 -4.06959e-05)
(0.000597145 -0.000407185 2.65221e-06)
(0.000439977 -0.000433023 -2.80048e-05)
(0.00102538 -0.000846875 -4.35363e-05)
(0.00019564 -0.000207558 -2.29062e-05)
(8.45745e-05 -7.8998e-05 -9.72692e-06)
(1.11324e-05 -4.80803e-05 -1.26939e-05)
(0.000257792 -0.000248554 -6.45301e-05)
(0.000293291 -0.000257598 -3.30023e-05)
(0.000153876 -0.000202775 -5.51474e-05)
(3.60563e-05 -4.98872e-05 2.60291e-07)
(0.000408233 -0.000408157 -5.0587e-05)
(0.000884428 -0.000758501 -8.19654e-05)
(0.000317132 -0.00041889 -0.000125784)
(0.000861717 -0.000774152 -0.000137143)
(0.000400602 -0.00043241 -4.13028e-05)
(0.000919657 -0.000806879 -8.37441e-05)
(0.000350843 -0.000396644 -0.00010211)
(0.000133313 -0.00017895 -0.000166308)
(4.39994e-06 -4.67677e-05 -2.2024e-05)
(0.000235965 -0.000236652 -0.000101383)
(5.91172e-05 -6.71723e-05 -5.32072e-05)
(0.000129777 -0.000192591 -0.000107096)
(0.000239886 -0.000227351 -0.000130415)
(1.2314e-06 -3.31084e-05 -6.08778e-05)
(0.000318469 -0.000339766 -0.000261626)
(0.000296626 -0.000403833 -0.00018153)
(0.00081781 -0.000725448 -0.00019942)
(0.000766835 -0.000615639 -0.000264842)
(0.000315761 -0.000372196 -0.000181941)
(0.000281146 -0.000314914 -0.000342788)
(0.000817995 -0.00068011 -0.000249322)
(0.000178648 -0.000202961 -0.000257895)
(5.02616e-05 -3.38602e-05 -0.000150123)
(7.56213e-05 -6.74501e-05 -9.30414e-05)
(0.000272853 -0.000208519 -0.000245467)
(0.000217338 -0.000237725 -0.000371559)
(0.000259046 -0.000205727 -0.000209031)
(3.49992e-06 -3.02745e-05 -8.26262e-05)
(0.000269617 -0.000197508 2.39658e-05)
(0.000221772 -0.000129741 2.52943e-05)
(6.46346e-05 -4.86047e-05 5.46897e-06)
(0.000372545 -0.000182747 3.71959e-05)
(0.000179586 -0.000129665 1.77814e-05)
(0.000286844 -0.00022522 2.15562e-05)
(0.000485224 -0.000318978 9.68642e-06)
(0.000468323 -0.000413938 -1.07446e-05)
(0.000389267 -0.00020697 3.47224e-05)
(0.000394503 -0.000320447 2.83559e-06)
(0.000274461 -0.000227281 1.96249e-05)
(0.000316305 -0.000340327 -1.57473e-05)
(0.000445043 -0.000416796 -1.37873e-05)
(0.000364307 -0.000325314 -1.27575e-06)
(0.000198864 -0.000240844 3.97757e-06)
(0.000257314 -0.000199029 2.20324e-05)
(0.000111291 -0.000125578 6.86709e-06)
(5.58689e-05 -4.66872e-05 4.62401e-06)
(0.000156184 -0.000128885 1.45318e-05)
(0.000181364 -0.000210268 6.97137e-06)
(0.0144873 -0.0133597 -0.00126506)
(0.0156271 -0.0173095 -0.0016467)
(0.0156095 -0.0188654 -0.00154609)
(0.0146629 -0.0123454 -0.00146799)
(0.0142005 -0.012713 -0.00117947)
(0.0134441 -0.009125 -0.000946025)
(0.0141396 -0.015231 -0.00100177)
(0.0136558 -0.00713426 -0.00117144)
(0.01449 -0.0145304 -0.0012068)
(0.0155758 -0.0231619 -0.00134079)
(0.0144237 -0.0171722 -0.00103489)
(0.0156207 -0.0209616 -0.00144881)
(0.0142305 -0.0119908 -0.00125232)
(0.0139291 -0.0051144 -0.00142332)
(0.0136926 -0.00640783 -0.0012317)
(0.0143811 -0.0104556 -0.00145285)
(3.92981e-05 -0.000210098 -0.000186275)
(2.57104e-05 -0.000122233 -5.21731e-05)
(-1.11425e-05 -3.44923e-05 -2.73174e-05)
(6.86166e-05 -0.000228907 -8.08234e-05)
(1.41782e-05 -0.000117135 -9.77944e-05)
(5.85507e-05 -0.000235758 -0.000210463)
(0.000192795 -0.000339377 -0.000149542)
(0.000229061 -0.000359377 -0.00028056)
(8.67023e-05 -0.000260493 -9.35925e-05)
(0.000164679 -0.000301943 -0.000238434)
(0.000175896 -0.00017653 -0.000409528)
(1.80261e-06 -1.32165e-06 -0.000114577)
(3.31012e-05 -0.000136237 -0.000334663)
(5.40119e-05 -0.000224996 -0.000233448)
(0.000164951 -0.000234581 -0.000337672)
(0.000222428 -0.000334463 -0.000326943)
(0.000184735 -0.000227622 -0.000438769)
(0.000155955 -0.000278441 -0.000282448)
(5.13907e-05 -0.00015555 -0.000325561)
(3.46513e-05 -0.00020046 -0.000207897)
(1.60107e-05 -8.60426e-05 -0.000168433)
(-1.4859e-05 -2.95199e-05 -3.64138e-05)
(-1.46077e-05 -7.47622e-07 -9.80594e-05)
(9.40124e-06 -0.000103524 -0.000122692)
(1.00785e-05 -0.000102131 -0.000262888)
(0.000530259 -0.000160984 5.47723e-05)
(0.000249311 -0.00012881 2.86208e-05)
(0.000133918 -6.21684e-05 1.12358e-05)
(0.000389295 -0.000180732 3.92222e-05)
(0.000354894 -0.000133528 3.76391e-05)
(0.000546624 -0.000179409 5.17277e-05)
(0.000703879 -0.000402523 4.50934e-07)
(0.00052562 -0.000310592 1.33041e-05)
(0.000406142 -0.000204187 3.66654e-05)
(0.000635942 -0.000296384 2.33006e-05)
(0.000569944 -0.000175574 5.4204e-05)
(0.000700679 -0.000288552 2.63051e-05)
(0.000553372 -0.000158248 5.74047e-05)
(0.000400677 -0.000133117 4.11227e-05)
(0.0141756 -0.0239469 -0.000695197)
(0.0140022 -0.0203535 -0.000717702)
(0.0134335 -0.0102256 -0.000855465)
(0.0141313 -0.0167559 -0.000925665)
(0.0132579 -0.0133172 -0.000589176)
(0.0139477 -0.0220597 -0.000635246)
(0.0132271 -0.0147216 -0.000491133)
(0.0142994 -0.022341 -0.00077212)
(0.0156013 -0.0257657 -0.00125356)
(0.0144409 -0.0187841 -0.000968698)
(0.0155463 -0.0288059 -0.0011691)
(0.0141365 -0.0247612 -0.00133717)
(0.0146091 -0.0244082 -0.00134245)
(0.0146326 -0.0268037 -0.0012941)
(0.0140931 -0.023171 -0.00136276)
(0.000110887 -0.000221508 -2.41692e-05)
(3.41417e-05 -0.000121767 -3.47064e-05)
(1.28543e-05 -3.9907e-05 -4.11675e-06)
(7.29265e-05 -0.00022863 -7.11129e-05)
(5.80039e-05 -0.00012734 -1.52985e-05)
(0.000128482 -0.000253874 -2.98161e-05)
(0.000301956 -0.00041872 -7.03107e-05)
(0.000204036 -0.00034352 -0.000112263)
(9.09725e-05 -0.000260489 -8.25817e-05)
(0.000226309 -0.000341071 -6.09553e-05)
(0.000134897 -0.000252737 -2.47284e-05)
(0.000291583 -0.000342611 -2.30048e-05)
(0.000316879 -0.000420824 -5.70836e-05)
(0.000189749 -0.000242364 1.23713e-06)
(0.000241091 -0.000339152 -4.4977e-05)
(0.000117237 -0.000220543 -1.95556e-05)
(9.21909e-05 -0.000123742 2.87374e-06)
(1.71953e-05 -4.00677e-05 -2.32461e-06)
(0.000172326 -0.000211432 4.37364e-06)
(6.73831e-05 -0.000126019 -8.48928e-06)
(0.0144263 -0.0175482 -0.0015653)
(0.0151046 -0.0177303 -0.00166586)
(0.0147726 -0.0184691 -0.00156703)
(0.0147538 -0.017249 -0.00165167)
(0.0141383 -0.0193783 -0.00147195)
(0.0146086 -0.021947 -0.00140701)
(0.0146395 -0.0202897 -0.0014744)
(0.0141025 -0.0203911 -0.00142219)
(0.0150744 -0.0114576 -0.00180686)
(0.0154166 -0.0154603 -0.0017484)
(0.0145476 -0.0120671 -0.00161458)
(0.0153615 -0.0136052 -0.00182278)
(0.0148657 -0.00835625 -0.00181185)
(0.0141512 -0.00497706 -0.00153414)
(0.0143206 -0.00954515 -0.00155577)
(0.014861 -0.00543856 -0.00185882)
(0.0152291 -0.0149633 -0.00179073)
(0.0153459 -0.0164003 -0.00176953)
(0.0151645 -0.0160055 -0.00175878)
(0.0153626 -0.0149211 -0.00182364)
(0.000196991 -0.000193082 -0.00018333)
(7.72177e-05 -7.19024e-05 -5.8324e-05)
(8.44874e-05 -7.16635e-05 -6.87645e-05)
(0.000365769 -0.000274274 -0.000139636)
(0.000286795 -0.000240908 -0.000140369)
(0.00029681 -0.00023035 -0.000163239)
(4.19801e-05 -5.67122e-05 -7.91509e-05)
(0.000401209 -0.000345158 -0.000273815)
(0.000858575 -0.000621337 -0.000284523)
(0.000546633 -0.000376045 -0.000270222)
(0.00106332 -0.000719554 -0.000260252)
(0.000381628 -0.000323071 -0.000316204)
(0.00090189 -0.000682101 -0.000265803)
(0.000558427 -0.000400199 -0.000244137)
(9.56285e-05 -0.00011348 1.82159e-05)
(0.000293159 -0.000242038 7.7208e-07)
(0.000261761 -0.000270537 -6.71166e-06)
(0.000146425 -0.000157979 4.77276e-06)
(0.000171788 -0.000156721 1.08382e-05)
(0.000292187 -0.000261673 2.01907e-06)
(6.90239e-05 -0.000113027 1.07344e-05)
(0.000106208 -0.000113436 2.06628e-05)
(0.000338486 -0.000232902 1.02509e-05)
(0.000240972 -0.000153617 2.23083e-05)
(0.00039228 -0.000250876 1.46771e-05)
(0.000144076 -0.000113997 2.82653e-05)
(0.000204271 -0.000153441 1.72929e-05)
(0.000333996 -0.000252016 1.00442e-05)
(9.12648e-06 -8.78159e-05 -8.85866e-05)
(0.000128195 -0.000207784 -0.000215333)
(0.000125992 -0.000208922 -0.000286844)
(5.52704e-05 -0.000132341 -0.00020185)
(4.54551e-05 -0.00013432 -0.000154966)
(0.000116983 -0.000225661 -0.000245245)
(3.71502e-05 -0.000126753 -0.000258101)
(9.43766e-05 -4.56489e-05 -0.000263944)
(2.70805e-05 -1.56695e-06 -0.000127242)
(6.89875e-05 -4.31931e-05 -0.000256139)
(1.27177e-05 -9.86018e-05 -7.26781e-05)
(0.000129828 -0.00022371 -0.000157264)
(5.67977e-05 -0.000155593 -7.47872e-05)
(0.000140102 -0.000271043 -0.000132368)
(2.16842e-05 -0.000110182 -3.44104e-05)
(4.80675e-05 -0.000146738 -0.000105907)
(0.000123127 -0.000249584 -0.000179887)
(0.000214215 -0.000114242 4.08278e-05)
(0.000531564 -0.000222817 2.92933e-05)
(0.000291019 -0.000149425 2.86653e-05)
(0.000454281 -0.000239471 2.16951e-05)
(0.000158719 -0.000113791 3.11409e-05)
(0.000354168 -0.000148782 3.46891e-05)
(0.000526961 -0.00023087 2.7962e-05)
(4.25255e-05 -0.000112244 -2.25292e-06)
(0.000222133 -0.000271761 -1.80009e-05)
(0.000198611 -0.000245682 -3.04976e-05)
(0.000116903 -0.000157441 -3.56186e-06)
(6.1029e-05 -0.000112628 7.96859e-06)
(9.90587e-05 -0.000158456 -1.23662e-05)
(0.000194725 -0.000273002 -3.14273e-05)
(3.71443e-05 -0.000111894 -6.68844e-06)
(0.000168788 -0.000241741 -5.28914e-05)
(6.76766e-05 -0.00015605 -4.30176e-05)
(0.000154615 -0.000274111 -8.24741e-05)
(2.48526e-05 -0.000110786 -2.52156e-05)
(7.93926e-05 -0.000156177 -2.57746e-05)
(0.000167786 -0.000271126 -5.32182e-05)
(0.000128388 -0.000126804 -0.000320501)
(2.23192e-05 -3.12047e-05 -0.00013767)
(6.40309e-05 -0.00011015 -0.000286789)
(8.37566e-05 -9.90973e-05 -0.000220045)
(5.14085e-05 -4.05688e-05 -0.000111214)
(0.00012093 -0.000107356 -0.000240632)
(3.52735e-05 -3.90024e-05 -0.00010264)
(0.000180997 -0.00022371 -0.000340877)
(0.000167981 -0.000198866 -0.000379472)
(0.000107374 -0.000172801 -0.000333481)
(0.000154585 -0.000171989 -0.000292485)
(0.000247441 -0.000219052 -0.000330298)
(0.000191021 -0.000183487 -0.000316413)
(0.000221789 -0.000209936 -0.000309057)
(2.79632e-05 -7.74828e-05 -0.000168738)
(-1.57161e-07 -2.63562e-05 -0.000110365)
(2.73414e-05 -8.69647e-05 -0.000223224)
(6.02489e-05 -8.60794e-05 -0.000184296)
(2.38571e-05 -3.8241e-05 -7.6333e-05)
(5.50555e-05 -7.34535e-05 -0.000145019)
(2.30368e-05 -3.61251e-05 -8.63088e-05)
(0.000251306 -0.000150019 2.61381e-05)
(0.00031051 -0.000191447 2.95648e-05)
(9.66846e-05 -9.19499e-05 2.00961e-05)
(0.000107702 -9.22229e-05 2.23416e-05)
(0.000213485 -0.00014961 2.18398e-05)
(0.000207319 -0.000132802 2.3316e-05)
(5.57525e-05 -4.68942e-05 6.08599e-06)
(0.000245096 -0.000136628 2.69814e-05)
(4.53906e-05 -4.21388e-05 5.2713e-06)
(0.000264066 -0.000151 2.77641e-05)
(0.00032484 -0.000189702 3.14786e-05)
(0.000133457 -9.30977e-05 2.72183e-05)
(0.000120202 -9.2553e-05 2.4749e-05)
(0.000307903 -0.000151762 3.22535e-05)
(0.000197263 -0.000130771 2.19743e-05)
(3.33417e-05 -3.65779e-05 4.28565e-06)
(0.000164748 -0.000127594 1.85054e-05)
(4.23088e-05 -4.06748e-05 5.03403e-06)
(0.000378475 -0.000307693 1.23531e-05)
(0.000327436 -0.000217864 2.71948e-05)
(0.000301154 -0.000251638 1.6281e-05)
(0.000324731 -0.000246531 1.97082e-05)
(0.00034146 -0.000313181 8.04083e-06)
(0.000405725 -0.000326477 9.59161e-06)
(0.000510253 -0.000399277 -5.4398e-06)
(0.00044898 -0.00031981 1.30732e-05)
(0.000469029 -0.000402862 -7.09542e-06)
(0.000393623 -0.000304612 1.38413e-05)
(0.000341864 -0.000215474 2.90671e-05)
(0.000383203 -0.000237044 2.60545e-05)
(0.000351296 -0.000241068 2.31261e-05)
(0.000436817 -0.000297789 1.77591e-05)
(0.000389925 -0.000328102 8.55564e-06)
(0.000420959 -0.000408453 -1.02448e-05)
(0.000354279 -0.000334081 4.38768e-06)
(0.000456208 -0.000404107 -7.71202e-06)
(0.000297981 -0.000322282 6.96498e-07)
(0.000277341 -0.000255718 1.27704e-05)
(0.000239528 -0.00023361 1.35017e-05)
(0.000255878 -0.000259537 8.98525e-06)
(0.000328296 -0.000315616 6.34051e-06)
(0.000301491 -0.000344316 -4.73946e-06)
(0.000343044 -0.000412635 -2.32209e-05)
(0.000369769 -0.000411711 -1.71545e-05)
(0.000274824 -0.000349142 -1.18005e-05)
(0.00031072 -0.00034131 -2.40206e-06)
(0.000410009 -0.000409447 -1.14336e-05)
(0.000341494 -0.000336153 2.8299e-06)
(0.000379291 -0.000411345 -1.54909e-05)
(0.00028649 -0.000324607 -1.59408e-06)
(0.000228877 -0.000235369 1.1297e-05)
(0.000219149 -0.000267933 -2.29886e-07)
(0.000235077 -0.000262981 4.75595e-06)
(0.000260182 -0.000329798 -8.72258e-06)
(0.000168845 -0.000148454 1.57795e-05)
(8.57854e-05 -9.15737e-05 1.7822e-05)
(0.000222141 -0.000204307 1.60756e-05)
(7.59111e-05 -9.1075e-05 1.56254e-05)
(0.000202156 -0.00014883 2.02203e-05)
(0.000120635 -0.000121841 1.23283e-05)
(1.39816e-05 -2.77765e-05 2.33366e-06)
(9.6501e-05 -0.000119782 8.39971e-06)
(2.06551e-05 -3.07487e-05 3.09547e-06)
(0.000158911 -0.000147757 1.4056e-05)
(0.000211571 -0.000205622 1.39302e-05)
(5.83682e-05 -9.03415e-05 1.10282e-05)
(6.66391e-05 -9.07408e-05 1.33172e-05)
(0.000130274 -0.000147601 9.04898e-06)
(0.000128069 -0.000123276 1.36754e-05)
(3.06831e-05 -3.53204e-05 4.05759e-06)
(0.000156095 -0.00012588 1.72115e-05)
(2.29471e-05 -3.18219e-05 3.33203e-06)
(2.7641e-06 -0.000150742 -7.96709e-05)
(5.17768e-05 -0.000225804 -0.000131631)
(5.96625e-07 -8.18988e-05 -6.00813e-05)
(3.59504e-06 -8.62979e-05 -4.67106e-05)
(-1.10301e-05 -0.000142979 -0.000117443)
(-6.29964e-06 -0.000114099 -4.96166e-05)
(-1.20081e-05 -1.70503e-05 -4.50816e-06)
(6.79696e-06 -0.000114073 -3.39468e-05)
(-1.56935e-05 -1.57084e-05 -6.64533e-06)
(7.39395e-06 -0.000151312 -6.98813e-05)
(5.58313e-05 -0.000227799 -0.000116761)
(9.92448e-06 -8.86911e-05 -2.67489e-05)
(6.86323e-06 -8.82246e-05 -3.55595e-05)
(2.17928e-05 -0.000150253 -4.78848e-05)
(-1.03245e-05 -0.000113481 -5.64388e-05)
(-2.19988e-05 -1.35442e-05 -1.11578e-05)
(-2.29944e-05 -0.000108167 -8.48121e-05)
(-1.69996e-05 -1.52493e-05 -7.55312e-06)
(0.000134089 -0.000324502 -0.000193998)
(7.06078e-05 -0.000254714 -0.000150795)
(8.45158e-05 -0.000255205 -0.000212575)
(9.1773e-05 -0.000269234 -0.000172781)
(0.000121551 -0.000297938 -0.000258496)
(0.000154154 -0.000344649 -0.000177976)
(0.000232894 -0.000403038 -0.000142118)
(0.000166809 -0.000355091 -0.00012866)
(0.000218766 -0.000389199 -0.000195741)
(0.000138555 -0.000330153 -0.000171922)
(7.44951e-05 -0.000257555 -0.000134194)
(0.000107598 -0.000282533 -0.000110765)
(9.89469e-05 -0.000276999 -0.000137794)
(0.000150733 -0.000339399 -0.000124823)
(0.000148792 -0.000337307 -0.000198884)
(0.000200864 -0.000349165 -0.000290484)
(0.000136957 -0.000310012 -0.000265915)
(0.000214247 -0.000382003 -0.000217069)
(0.000145419 -0.000112724 -0.00035484)
(0.000129126 -0.000167552 -0.000396162)
(0.000107191 -0.000107128 -0.00034424)
(1.51571e-05 -1.47916e-06 -0.000121999)
(1.04432e-05 -3.6907e-05 -0.000228236)
(4.04884e-05 -4.02468e-05 -0.00024478)
(7.77616e-05 -0.000154768 -0.000373854)
(2.46772e-05 -9.1616e-05 -0.000304411)
(6.52939e-05 -9.95988e-05 -0.000327834)
(0.000102326 -0.000238052 -0.000352119)
(7.56445e-05 -0.000232086 -0.000255263)
(3.63932e-05 -0.000177004 -0.000305273)
(6.63282e-05 -0.000202842 -0.000292286)
(0.000116558 -0.000283592 -0.000284988)