/*--------------------------------*- C++ -*----------------------------------*\
| =========                 |                                                 |
| \\      /  F ield         | OpenFOAM: The Open Source CFD Toolbox           |
|  \\    /   O peration     | Version:  2012                                  |
|   \\  /    A nd           | Website:  www.openfoam.com                      |
|    \\/     M anipulation  |                                                 |
\*---------------------------------------------------------------------------*/
FoamFile
{
    version     2.0;
    format      ascii;
    class       pointVectorField;
    location    "0.108/fluid";
    object      pointMotionU;
}
// * * * * * * * * * * * * * * * * * * * * * * * * * * * * * * * * * * * * * //

dimensions      [0 1 -1 0 0 0 0];


internalField   nonuniform List<vector> 
20459
(
(0 0 0)
(0 0 0)
(0 0 0)
(0 0 0)
(0 0 0)
(0 0 0)
(0 0 0)
(0 0 0)
(0 0 0)
(0 0 0)
(0 0 0)
(0 0 0)
(0 0 0)
(0 0 0)
(0 0 0)
(0.00180574 -0.00129035 5.33647e-05)
(0.00205511 -0.00178556 -1.9729e-05)
(0.0026277 -0.00271994 -8.0248e-05)
(0.00287538 -0.00317892 -0.000103219)
(0.00288974 -0.0031523 -0.000100227)
(0.00274542 -0.00282494 -8.88833e-05)
(0.00254074 -0.00238424 -7.82067e-05)
(0.00234623 -0.00205016 -7.21141e-05)
(0.00214995 -0.00180227 -6.64923e-05)
(0.00191357 -0.00152461 -5.80816e-05)
(0.00167445 -0.00129543 -5.02304e-05)
(0.00140263 -0.00103491 -4.07026e-05)
(0.0011066 -0.000772364 -3.09287e-05)
(0.000798584 -0.000551197 -2.16117e-05)
(0.000469187 -0.000389579 -1.30314e-05)
(0 0 0)
(0.00872605 -0.00766062 -0.000459762)
(0.00839881 -0.0111538 -0.000537541)
(0.00783807 -0.0115271 -0.000511738)
(0.00711725 -0.0103481 -0.000428979)
(0.00637235 -0.00873751 -0.000343323)
(0.00572606 -0.00717241 -0.000275775)
(0.00516465 -0.00573768 -0.000227964)
(0.00462909 -0.0045263 -0.000187914)
(0.00412286 -0.00357999 -0.000153974)
(0.00363198 -0.00286211 -0.000125363)
(0.00311532 -0.00221194 -9.94205e-05)
(0.00257964 -0.00163636 -7.64464e-05)
(0.00203731 -0.0011943 -5.67051e-05)
(0.00149793 -0.00090145 -4.11673e-05)
(0.000866218 -0.000600835 -2.41772e-05)
(0 0 0)
(0.0130025 -0.00838764 -0.00106794)
(0.0134921 -0.020083 -0.00116434)
(0.0122696 -0.0198566 -0.00110959)
(0.0108324 -0.018042 -0.00092768)
(0.00955361 -0.0150766 -0.000738897)
(0.00857448 -0.0122426 -0.000590199)
(0.00768039 -0.00954432 -0.00046381)
(0.00684203 -0.00742524 -0.000359176)
(0.00604004 -0.00572926 -0.000275282)
(0.00528449 -0.00441057 -0.000210346)
(0.00452322 -0.00334073 -0.000159686)
(0.00374922 -0.00244011 -0.000119939)
(0.00296445 -0.00173918 -8.77674e-05)
(0.00216338 -0.0012479 -6.13496e-05)
(0.00128752 -0.000909359 -3.77364e-05)
(0 0 0)
(0 0 0)
(0 0 0)
(0 0 0)
(0 0 0)
(0 0 0)
(0 0 0)
(0 0 0)
(0 0 0)
(0 0 0)
(0 0 0)
(0 0 0)
(0 0 0)
(0 0 0)
(0 0 0)
(0 0 0)
(0.00124469 -0.000979694 -0.000183273)
(0.00165546 -0.00143934 -0.000184775)
(0.00238509 -0.00217718 -0.000187116)
(0.00280111 -0.00262426 -0.000177745)
(0.00291078 -0.00267976 -0.000155032)
(0.00285345 -0.00252332 -0.000133416)
(0.0026884 -0.00220565 -0.000115095)
(0.00245635 -0.00185292 -9.70213e-05)
(0.00220345 -0.00155622 -8.09371e-05)
(0.00194144 -0.00130317 -6.77983e-05)
(0.00167545 -0.00109249 -5.6066e-05)
(0.00140916 -0.000928215 -4.5329e-05)
(0.00111722 -0.000718618 -3.45493e-05)
(0.000792628 -0.000487258 -2.34141e-05)
(0.000474634 -0.000368522 -1.47e-05)
(0 0 0)
(0.008089 -0.00496085 -0.000688679)
(0.00809308 -0.00737742 -0.000675945)
(0.00778231 -0.00792906 -0.000605161)
(0.00725323 -0.00765805 -0.000505826)
(0.00663655 -0.00703264 -0.000414248)
(0.00602476 -0.00588827 -0.000339594)
(0.00543206 -0.00479056 -0.000280203)
(0.00483524 -0.00381179 -0.000226841)
(0.00425911 -0.003028 -0.000180665)
(0.00371777 -0.00241814 -0.000144226)
(0.00317236 -0.00191621 -0.000113377)
(0.00259104 -0.00143377 -8.46625e-05)
(0.00201362 -0.000985944 -6.08305e-05)
(0.00147573 -0.00075319 -4.35088e-05)
(0.000884164 -0.000597958 -2.72159e-05)
(0 0 0)
(0.0140456 -0.00517804 -0.00163189)
(0.0136622 -0.0119549 -0.00140988)
(0.0123563 -0.0128952 -0.00116996)
(0.0110504 -0.0121821 -0.000951691)
(0.00985094 -0.010783 -0.000767396)
(0.00888204 -0.0090387 -0.000626245)
(0.007938 -0.00734019 -0.000500283)
(0.00708193 -0.00589915 -0.000398968)
(0.00621139 -0.00457811 -0.000306085)
(0.00533995 -0.003461 -0.000226774)
(0.00451879 -0.00265334 -0.000169883)
(0.00375217 -0.00205416 -0.000129224)
(0.00296992 -0.00151111 -9.46276e-05)
(0.00218456 -0.00116159 -6.7376e-05)
(0.00129066 -0.000836921 -4.05632e-05)
(0 0 0)
(0 0 0)
(0 0 0)
(0 0 0)
(0 0 0)
(0 0 0)
(0 0 0)
(0 0 0)
(0 0 0)
(0 0 0)
(0 0 0)
(0 0 0)
(0 0 0)
(0 0 0)
(0 0 0)
(0 0 0)
(0 0 0)
(0.0014999 -0.000859625 -0.000270533)
(0.00179249 -0.00127867 -0.00023575)
(0.00231495 -0.00175723 -0.00020693)
(0.00268857 -0.00211606 -0.000187158)
(0.00283427 -0.00223887 -0.000161522)
(0.0028076 -0.00215507 -0.00013778)
(0.00266419 -0.00192629 -0.000116127)
(0.0024405 -0.00164077 -9.47111e-05)
(0.00217958 -0.00136987 -7.62218e-05)
(0.00190124 -0.00111138 -6.11791e-05)
(0.00163172 -0.000914319 -4.93185e-05)
(0.00135843 -0.000746723 -3.82394e-05)
(0.00107601 -0.00058534 -2.85378e-05)
(0.000795296 -0.000470131 -2.06601e-05)
(0.000488912 -0.000376195 -1.32176e-05)
(0 0 0)
(0.00667132 -0.00315373 -0.000591977)
(0.00679717 -0.00478978 -0.000577203)
(0.00686653 -0.00558539 -0.000533889)
(0.00669302 -0.00578903 -0.000464751)
(0.00632229 -0.00541053 -0.000389827)
(0.00586052 -0.00470227 -0.000324373)
(0.00533128 -0.00390647 -0.000264754)
(0.00477422 -0.00317505 -0.000211452)
(0.00421942 -0.00256157 -0.000166659)
(0.00367301 -0.00205116 -0.000130592)
(0.00312883 -0.00163535 -0.000101055)
(0.00254823 -0.00121037 -7.34324e-05)
(0.00199556 -0.000885666 -5.27504e-05)
(0.00145268 -0.000669713 -3.69555e-05)
(0.000893589 -0.000582812 -2.42827e-05)
(0 0 0)
(0.012697 -0.00416098 -0.0013319)
(0.0122656 -0.00812368 -0.0012136)
(0.0114175 -0.00907118 -0.00103844)
(0.010426 -0.00878631 -0.000852259)
(0.00954433 -0.00797601 -0.000698404)
(0.00869198 -0.00690051 -0.000565821)
(0.00783821 -0.00578953 -0.000450565)
(0.00698511 -0.0047348 -0.000352435)
(0.00615542 -0.00383344 -0.000272156)
(0.00530856 -0.00297637 -0.000203611)
(0.00443724 -0.00220481 -0.000145109)
(0.00367401 -0.00172639 -0.000109413)
(0.00292429 -0.00135874 -8.17675e-05)
(0.0021091 -0.000971839 -5.52522e-05)
(0.0012684 -0.000773683 -3.4747e-05)
(0 0 0)
(0 0 0)
(0 0 0)
(0 0 0)
(0 0 0)
(0 0 0)
(0 0 0)
(0 0 0)
(0 0 0)
(0 0 0)
(0 0 0)
(0 0 0)
(0 0 0)
(0 0 0)
(0 0 0)
(0 0 0)
(0 0 0)
(0.00217016 -0.00092237 -0.000199598)
(0.00227267 -0.00130333 -0.00018142)
(0.00247591 -0.00156119 -0.00015794)
(0.00265968 -0.00176789 -0.000136578)
(0.0027287 -0.00186592 -0.000115098)
(0.00266749 -0.00174752 -9.39497e-05)
(0.00257231 -0.00162546 -7.80162e-05)
(0.00237746 -0.00142594 -6.31245e-05)
(0.00211972 -0.00118981 -5.03662e-05)
(0.00184604 -0.000959576 -3.99773e-05)
(0.0015759 -0.000765336 -3.13205e-05)
(0.00130997 -0.000619299 -2.40299e-05)
(0.00105882 -0.000529054 -1.82075e-05)
(0.000773966 -0.000409649 -1.24978e-05)
(0.000477946 -0.000341075 -8.2217e-06)
(0 0 0)
(0.00606922 -0.00228401 -0.000419519)
(0.00613529 -0.00339382 -0.000405445)
(0.00621734 -0.0040271 -0.000368178)
(0.00606841 -0.00415896 -0.000310582)
(0.00582507 -0.00396444 -0.000256378)
(0.00552603 -0.00361189 -0.000213645)
(0.00510629 -0.00311308 -0.000172758)
(0.00461914 -0.002605 -0.000137634)
(0.00410402 -0.00215048 -0.000109002)
(0.00359776 -0.00177354 -8.67973e-05)
(0.00306852 -0.0014243 -6.70089e-05)
(0.00250456 -0.00106651 -4.7767e-05)
(0.00197089 -0.000807815 -3.37358e-05)
(0.00145485 -0.000664057 -2.46402e-05)
(0.000902114 -0.000585921 -1.65673e-05)
(0 0 0)
(0.0111085 -0.00310662 -0.000892315)
(0.0108246 -0.0054855 -0.00082185)
(0.010255 -0.00620557 -0.000692851)
(0.00964546 -0.0062303 -0.000566372)
(0.00899097 -0.00587023 -0.000458909)
(0.00829625 -0.0052732 -0.000369047)
(0.007557 -0.00455459 -0.000292804)
(0.00678446 -0.00383092 -0.000229038)
(0.00601457 -0.0031893 -0.000178862)
(0.00522916 -0.00258402 -0.000137604)
(0.00441072 -0.00200505 -0.000100518)
(0.0036043 -0.00150829 -7.10097e-05)
(0.0028234 -0.00112596 -4.99781e-05)
(0.00203593 -0.000832353 -3.55757e-05)
(0.00124335 -0.000710055 -2.32724e-05)
(0 0 0)
(0 0 0)
(0 0 0)
(0 0 0)
(0 0 0)
(0 0 0)
(0 0 0)
(0 0 0)
(0 0 0)
(0 0 0)
(0 0 0)
(0 0 0)
(0 0 0)
(0 0 0)
(0 0 0)
(0 0 0)
(0 0 0)
(0.00242873 -0.00090208 0)
(0.0024791 -0.00125481 0)
(0.00260835 -0.00154378 0)
(0.00271442 -0.00173468 0)
(0.00269179 -0.0017012 0)
(0.00261817 -0.00158916 0)
(0.00252907 -0.00150762 0)
(0.0023479 -0.0013467 0)
(0.00209449 -0.00112446 0)
(0.00182334 -0.000903896 0)
(0.00155877 -0.000727659 0)
(0.00130617 -0.000609081 0)
(0.00104533 -0.000504469 0)
(0.000754567 -0.000374955 0)
(0.000459833 -0.000304236 0)
(0 0 0)
(0.00596124 -0.00195947 0)
(0.00600294 -0.0029051 0)
(0.00599363 -0.00342196 0)
(0.00583779 -0.00353287 0)
(0.00562415 -0.003399 0)
(0.00535562 -0.00316087 0)
(0.00498761 -0.00280457 0)
(0.00453746 -0.00239218 0)
(0.00403441 -0.00198015 0)
(0.00353242 -0.0016265 0)
(0.00302266 -0.00131959 0)
(0.00249841 -0.0010468 0)
(0.00196392 -0.000797578 0)
(0.00144335 -0.00064614 0)
(0.000896518 -0.000575511 0)
(0 0 0)
(0.0103964 -0.00268486 0)
(0.0102219 -0.00443775 0)
(0.00978212 -0.00515599 0)
(0.00927378 -0.00529588 0)
(0.00869902 -0.00507204 0)
(0.00807139 -0.00464318 0)
(0.00741034 -0.00411218 0)
(0.00669073 -0.00351791 0)
(0.00593372 -0.00293995 0)
(0.00517946 -0.0024196 0)
(0.00442284 -0.00195916 0)
(0.00363833 -0.00153177 0)
(0.00283365 -0.0011397 0)
(0.00199683 -0.000762803 0)
(0.00119989 -0.000629066 0)
(0 0 0)
(0.000343058 -0.000316415 -2.32483e-05)
(0.000260985 -0.000266791 -0.000232033)
(0 0 0)
(0.000617018 -0.000432959 -8.50588e-06)
(0.000768483 -0.000490931 6.61869e-06)
(0 0 0)
(0.00178258 -0.00141051 1.40328e-05)
(0.00142249 -0.00111507 -7.4692e-05)
(0.00179537 -0.00161722 -0.000109782)
(0.0137799 -0.0180337 -0.0010973)
(0.0135805 -0.00552874 -0.00145576)
(0.0143961 -0.0217195 -0.00163811)
(0.013846 -0.0149731 -0.00136264)
(0 0 0)
(0.000299515 -0.000418539 -0.000152358)
(0 0 0)
(0.000475709 -0.000413519 -0.000100668)
(0 0 0)
(0.00132656 -0.00114132 -0.000183382)
(0.00122807 -0.000849671 -0.000274974)
(0.00164367 -0.00132208 -0.000231646)
(0.0140312 -0.0099972 -0.0015308)
(0.0160157 -0.0040107 -0.00222978)
(0.0150923 -0.0130025 -0.00184892)
(0 0 0)
(0.000491553 -0.000300688 -0.00023495)
(0.000641317 -0.000449117 -0.000148575)
(0.00156409 -0.00103079 -0.000257134)
(0.000541307 -0.000310542 1.6886e-05)
(0.000413972 -0.000436923 -3.38475e-05)
(0.000566772 -0.000457546 -3.88279e-05)
(0.00147575 -0.00127905 -8.78953e-05)
(0.000241714 -0.000299031 -0.000110373)
(0.0141904 -0.0132734 -0.00140995)
(0.0149878 -0.0164199 -0.00181105)
(0.0156198 -0.0110272 -0.0020176)
(0.000271682 -0.000275382 -0.000370647)
(0.000494611 -0.000402884 -0.000148056)
(0.00132318 -0.00102666 -0.000254121)
(0.000500941 -0.000344296 -0.000192)
(0 0 0)
(0 0 0)
(0.000272252 -0.000210952 2.21419e-05)
(0.0120985 -0.010948 -0.00106527)
(0.014283 -0.0128595 -0.00122717)
(0.0145339 -0.0164779 -0.00170593)
(4.63664e-05 -0.000218292 -0.000209909)
(0.0149884 -0.0085285 -0.00185484)
(0.000551494 -0.000166162 5.52085e-05)
(0.0140042 -0.0216406 -0.000714009)
(0.0140247 -0.0262023 -0.00127564)
(0.000122447 -0.00023652 -2.44296e-05)
(0.0142977 -0.0182236 -0.00147544)
(0.0148823 -0.00927355 -0.00177519)
(0.0148899 -0.0139083 -0.0017005)
(0.00853751 -0.00970775 -0.000512217)
(0.0118793 -0.00979339 -0.000895082)
(0.00863466 -0.00622309 -0.000646229)
(0.011564 -0.016309 -0.000864953)
(0.00848042 -0.0090775 -0.000644123)
(0.0127771 -0.0118976 -0.000794555)
(0.0134857 -0.0139248 -0.00102581)
(0.0131963 -0.00816933 -0.000940021)
(0.013188 -0.00635629 -0.00127957)
(0.0129497 -0.0202066 -0.00117024)
(0.0132759 -0.0240321 -0.00110463)
(0.0137116 -0.0199122 -0.00115687)
(0.0139949 -0.0213377 -0.00138048)
(0.0136872 -0.0171069 -0.001267)
(0.0137078 -0.0219614 -0.00156927)
(0.0125005 -0.0154263 -0.0011663)
(0.00807264 -0.00639573 -0.000688647)
(0.0118476 -0.00610089 -0.00115811)
(0.011508 -0.0101295 -0.00104558)
(0.0135275 -0.00479825 -0.00151311)
(0.0140087 -0.00525381 -0.00160111)
(0.0140564 -0.00790307 -0.00157891)
(0.014974 -0.00442061 -0.00192355)
(0.0130677 -0.0126847 -0.00129886)
(0.013058 -0.00995767 -0.00135075)
(0.0138411 -0.0132789 -0.00140847)
(0.0138899 -0.0112789 -0.0014727)
(0.0144561 -0.0126787 -0.00162667)
(0.0137815 -0.0140394 -0.00153087)
(0.0125506 -0.00655258 -0.00128727)
(0.0144145 -0.00408632 -0.00170371)
(0.0138657 -0.00876525 -0.00153491)
(0.000708689 -0.000300611 3.6726e-05)
(0.000422165 -0.000313922 -1.01905e-06)
(0.000326256 -0.000348829 -2.22848e-05)
(0.000278797 -0.000308311 -5.51323e-05)
(0.00012288 -0.000139348 1.07333e-06)
(0.0151205 -0.015854 -0.00162982)
(0.0150688 -0.0168541 -0.00184538)
(0.0158598 -0.0141285 -0.00204794)
(0.000225527 -0.000276074 -0.000182423)
(0.000215977 -0.000257553 -0.000312114)
(5.62464e-05 -0.000109823 -0.000168584)
(0.000259254 -0.00014097 2.44142e-05)
(0 0 0)
(0 0 0)
(0.000775186 -0.00042774 -9.75373e-07)
(0.000528635 -0.000328094 1.18744e-05)
(0.000496436 -0.000432228 -1.65517e-05)
(0.0135918 -0.0224603 -0.000949064)
(0.0148298 -0.0224299 -0.00126368)
(0.0139993 -0.0152242 -0.00126252)
(0.0139779 -0.0100139 -0.00141433)
(0.0138906 -0.00400318 -0.00148952)
(0.0142963 -0.0262255 -0.00162703)
(0.0137564 -0.0204739 -0.00152691)
(0.0146304 -0.0185361 -0.00171516)
(0.0140959 -0.0146437 -0.00140495)
(0.014478 -0.0159481 -0.00157813)
(5.11078e-05 -0.000135292 -5.09982e-05)
(0 0 0)
(0 0 0)
(0.000346174 -0.000429709 -6.88783e-05)
(0.000220866 -0.000342688 -0.000130728)
(0.000261509 -0.000353915 -0.000298394)
(0.000200099 -0.000192474 -0.000406154)
(0 0 0)
(0.0142105 -0.0114855 -0.00151086)
(0.0148915 -0.0106429 -0.00177135)
(0.0163029 -0.00354472 -0.00234567)
(0.0158156 -0.0080944 -0.00211588)
(0.0151683 -0.0145989 -0.00186047)
(0.0153768 -0.0124378 -0.00193043)
(0.0118312 -0.0141646 -0.00088189)
(0.0132705 -0.0181838 -0.000802354)
(0.0135223 -0.0240383 -0.00106304)
(0.0142586 -0.0220078 -0.00165549)
(0.0138407 -0.025715 -0.00133911)
(0.000390031 -0.000191884 3.74378e-05)
(0.000184942 -0.00014159 1.33369e-05)
(0.000404627 -0.000335585 -1.30278e-06)
(0.000185393 -0.000225278 4.37739e-06)
(0.0085453 -0.00793538 -0.000654045)
(0.0121279 -0.0073264 -0.00111734)
(0.0118399 -0.0125909 -0.00100937)
(0.013703 -0.0114279 -0.00122501)
(0.0117755 -0.00872445 -0.00111767)
(0.0139108 -0.0168767 -0.00128668)
(0.0141551 -0.00885628 -0.00154541)
(0.0140901 -0.0127691 -0.00146628)
(0.0132293 -0.0154091 -0.00127944)
(0.014204 -0.0165849 -0.00098824)
(0.0134606 -0.00553946 -0.00122959)
(0.0149425 -0.0185842 -0.00144271)
(0.0144433 -0.0107886 -0.00149969)
(0.0138804 -0.0167972 -0.00156616)
(0.0144727 -0.0136496 -0.00169189)
(0.0142086 -0.0181413 -0.00147628)
(0.0145791 -0.014154 -0.00162937)
(7.93045e-05 -0.000244386 -8.19709e-05)
(3.49847e-05 -0.000122319 -0.000113442)
(0.000189259 -0.000298399 -0.000245507)
(4.55709e-05 -0.000129927 -0.000289184)
(0.0133879 -0.00807482 -0.00144895)
(0.0152737 -0.00436811 -0.00197843)
(0.0145734 -0.0106856 -0.00172607)
(0.0141882 -0.00691885 -0.00162868)
(0.0149473 -0.00801991 -0.00184157)
(0.0147151 -0.0120406 -0.00169957)
(0.000393122 -0.000141996 3.69069e-05)
(0.000696393 -0.00031011 2.71608e-05)
(0.0130128 -0.0122741 -0.000581645)
(0.0147662 -0.0279396 -0.00112436)
(0.0138202 -0.0249951 -0.00151467)
(0.0140943 -0.0214991 -0.00135028)
(8.16117e-05 -0.000139272 -1.70369e-05)
(0.000258231 -0.000346347 -5.69347e-05)
(0.0147531 -0.00409525 -0.00185208)
(0.0139743 -0.0176064 -0.00162648)
(0.0147472 -0.0160982 -0.00162592)
(0.0150873 -0.0128784 -0.00175822)
(0.015867 -0.00955826 -0.00215516)
(0.0154909 -0.0146602 -0.00194059)
(0.00081812 -0.000660192 -5.00715e-05)
(0.00409187 -0.0037135 -0.000250137)
(0.000734765 -0.000564211 -0.000118751)
(0.00360184 -0.00264727 -0.000357206)
(0.000747882 -0.000414369 -0.000144447)
(0.00040617 -0.00015621 2.52858e-05)
(0.00117431 -0.000644495 6.01265e-05)
(0.000227832 -0.00015644 2.74876e-06)
(0.00079818 -0.00061194 -1.53876e-05)
(0.000136118 -0.000148742 -2.76169e-05)
(0.000610033 -0.000573218 -9.20381e-05)
(0.000102318 -0.000132329 -9.06663e-05)
(0.000535391 -0.000497739 -0.000235034)
(0.000130575 -0.000132556 -0.000212883)
(0.000222921 -0.000138411 2.40623e-05)
(0.000399432 -0.000322846 9.4614e-06)
(0.000306794 -0.000338531 -3.43363e-06)
(0.000139675 -0.000132095 1.35245e-05)
(0.0162344 -0.0186078 -0.00165239)
(0.0136391 -0.0117457 -0.00102272)
(0.016283 -0.0232369 -0.0014169)
(0.0136255 -0.00841992 -0.00129506)
(-2.26851e-06 -0.000127534 -6.24121e-05)
(0.000150916 -0.000336585 -0.000188338)
(0.000115191 -0.000237176 -0.000358242)
(-3.58072e-05 -6.40938e-05 -0.000163011)
(0.000335965 -0.000147626 3.5668e-05)
(0.000527114 -0.000300881 1.94162e-05)
(0.0135565 -0.0157723 -0.000709395)
(0.0162542 -0.0290052 -0.00119048)
(0.0139036 -0.0235923 -0.00134932)
(3.30468e-05 -0.000127438 -2.06484e-05)
(0.000187015 -0.000353758 -7.60146e-05)
(0.000237239 -0.000349021 -2.65277e-05)
(7.75818e-05 -0.000128335 4.21693e-07)
(0.014344 -0.0172726 -0.0016111)
(0.0138342 -0.0195308 -0.00143076)
(0.0152566 -0.0136414 -0.00184361)
(0.0146523 -0.00695662 -0.00179011)
(0.0154044 -0.0160128 -0.00183773)
(0 0 0)
(0 0 0)
(0 0 0)
(0.000365747 -0.000205342 6.61885e-06)
(0 0 0)
(0.00117401 -0.00100822 -1.975e-05)
(0 0 0)
(0.00450265 -0.00363032 -9.49982e-06)
(0.00211202 -0.00138617 0.000156301)
(0.000997379 -0.000662019 1.70794e-05)
(0.00174202 -0.00131255 3.18666e-05)
(0.00158291 -0.00119559 -2.0169e-05)
(0.00236072 -0.0022627 -5.31119e-05)
(0.00448358 -0.00501757 -0.000168289)
(0.00248019 -0.00241897 -0.000144487)
(0 0 0)
(0 0 0)
(0 0 0)
(0.000190505 -0.000175392 -5.46466e-05)
(0 0 0)
(0.000964473 -0.00079933 -8.71284e-05)
(0 0 0)
(0.00373657 -0.00256621 -0.000310048)
(0.00131445 -0.00104815 -0.000125927)
(0.000583941 -0.000549398 -0.000164722)
(0.00124333 -0.00103927 -0.000183671)
(0.00120432 -0.000900622 -0.000239619)
(0.00203965 -0.00181194 -0.000186073)
(0.00407482 -0.00367225 -0.000339844)
(0.00232049 -0.00194754 -0.000207328)
(0.00729647 -0.00387171 -0.000655052)
(0.00740047 -0.00592594 -0.00064027)
(0 0 0)
(0 0 0)
(0 0 0)
(0.000228499 -0.000143027 -0.00015763)
(0 0 0)
(0 0 0)
(0.000973157 -0.000689509 -0.000105208)
(0.00351908 -0.00188205 -0.000356329)
(0.00185234 -0.000887612 -0.000239953)
(0.00206784 -0.00153341 -0.0002192)
(0.00381104 -0.00274833 -0.000353162)
(0.00202251 -0.00127225 -0.000216542)
(0.00670381 -0.00408469 -0.000588022)
(0 0 0)
(0.000939071 -0.000381225 -0.000117584)
(0.000995243 -0.000546566 -9.76052e-05)
(0.00219012 -0.00112014 -0.000192175)
(0.00044389 -0.000374204 -3.10095e-05)
(0.000765314 -0.000661187 -5.24355e-05)
(0.0154365 -0.0177537 -0.0017741)
(0.000373334 -0.000330129 -0.00017719)
(0.000666923 -0.000555279 -0.000243567)
(0.000362378 -0.00029155 -0.00022139)
(0 0 0)
(0.000197474 -0.000107342 2.04404e-05)
(0 0 0)
(0 0 0)
(0.000549427 -0.000420241 -9.41517e-06)
(0.000690364 -0.000430646 -4.8539e-06)
(0.00055895 -0.000377718 3.93893e-06)
(0.000549886 -0.000432745 -1.19634e-05)
(0.00090981 -0.000492421 3.29114e-05)
(0.000646735 -0.000388721 1.31549e-05)
(0.000651991 -0.000477589 -1.59681e-05)
(0.00024459 -0.000192584 -1.68998e-05)
(0 0 0)
(0.00199882 -0.00144814 8.76139e-05)
(0.00102512 -0.000698848 1.52072e-05)
(0.00160959 -0.00135096 -4.2053e-05)
(0.000718032 -0.000606355 -5.11177e-05)
(0.00140363 -0.00117025 -8.02741e-05)
(0.0135222 -0.00964392 -0.000829536)
(0 0 0)
(1.57929e-05 -9.16707e-05 -3.1031e-05)
(0 0 0)
(0 0 0)
(0.000257517 -0.000419794 -0.000140999)
(0.000320774 -0.000426884 -0.000102069)
(0.000247928 -0.000385623 -0.000142813)
(0.000277781 -0.00039402 -0.000220057)
(0.000131082 -8.08592e-05 -0.000289821)
(0 0 0)
(0.000509813 -0.000434978 -6.71299e-05)
(0.000348489 -0.000343868 -0.000103578)
(0.000467219 -0.000400026 -0.000130698)
(0.000200283 -0.000170157 -8.66346e-05)
(0 0 0)
(0.00138455 -0.00120987 -0.000134038)
(0.000642517 -0.000603954 -0.000149895)
(0.00129719 -0.00107171 -0.000227256)
(0.000584223 -0.000450678 -0.000299762)
(0.00123713 -0.000918918 -0.000267986)
(0.000216054 -0.000155411 -0.000119932)
(0 0 0)
(0.000360916 -0.000266542 -0.000303046)
(0.000477767 -0.000316283 -0.000219869)
(0.0153619 -0.0253815 -0.00145246)
(0.000356327 -0.000394673 -2.64443e-05)
(0.000452049 -0.000434878 -2.35543e-05)
(0.000365525 -0.000430723 -2.75405e-05)
(0.000376957 -0.000434298 -4.7884e-05)
(0.0126296 -0.00268176 -0.00137201)
(0.000222673 -0.000264483 -0.00035049)
(0.000253044 -0.000306308 -0.000361101)
(0.000209226 -0.000235532 -0.000401741)
(7.97116e-05 -9.65077e-05 3.86753e-06)
(0 0 0)
(0 0 0)
(0 0 0)
(6.68301e-06 -5.35482e-05 -0.000114563)
(0 0 0)
(0 0 0)
(0.000326599 -0.000202095 2.97372e-05)
(0.000130116 -0.000116852 1.74975e-05)
(0.000281372 -0.000246392 1.132e-05)
(0.000225517 -0.00021861 1.39911e-05)
(0.0142473 -0.0145664 -0.00111279)
(0.0138458 -0.00948081 -0.00120151)
(0.0149403 -0.0165916 -0.00134259)
(0.0143757 -0.0142803 -0.00125948)
(0.0143703 -0.0117315 -0.00135393)
(6.2759e-05 -0.000241596 -0.000133352)
(1.28792e-05 -0.00010194 -9.37336e-05)
(8.94774e-05 -0.000230431 -0.000215575)
(2.25119e-05 -0.000155567 -0.000303685)
(0.000464266 -0.000180028 4.5756e-05)
(0.000301717 -0.000117853 4.0112e-05)
(0.000538716 -0.000211076 3.62192e-05)
(0.0141631 -0.0191644 -0.000856669)
(0.0135165 -0.0173478 -0.000609803)
(0.0147014 -0.026072 -0.000912417)
(0.0142357 -0.0233303 -0.000712421)
(0.014301 -0.0272488 -0.0012561)
(0.013827 -0.0257631 -0.00136303)
(0.014076 -0.0236208 -0.00130984)
(0.000151202 -0.000231191 -7.87364e-06)
(9.87032e-05 -0.000241234 -4.7807e-05)
(5.08585e-05 -0.000116593 -8.25213e-06)
(0.000153561 -0.0002658 -3.44211e-05)
(0.0144773 -0.0186751 -0.00148712)
(0.0141344 -0.0196385 -0.00141391)
(0.0140104 -0.0179856 -0.00152948)
(0.0145305 -0.0170886 -0.00156372)
(0.0146104 -0.00979826 -0.00165622)
(0.0147543 -0.00688886 -0.00178829)
(0.0150738 -0.0117489 -0.00177596)
(0.0152238 -0.00964296 -0.00192711)
(0.0149787 -0.0151247 -0.00170526)
(0.0151054 -0.0140317 -0.00175504)
(0.0152396 -0.0145889 -0.00182028)
(0.0136934 -0.0126736 -0.000927874)
(0.0133655 -0.00676029 -0.00109277)
(0.0131696 -0.0103108 -0.000760628)
(0.0153437 -0.0312738 -0.00133535)
(0.000354586 -0.000338477 -9.71305e-06)
(0.000209783 -0.000260262 -5.65829e-06)
(0.000280631 -0.0003434 -3.5071e-05)
(0.000146568 -0.000137228 8.08872e-06)
(8.3186e-05 -0.00011634 6.78141e-06)
(9.3958e-05 -0.000134909 -5.8436e-06)
(0.0153024 -0.0208602 -0.00158957)
(0.0150702 -0.0171258 -0.00153783)
(0.0149748 -0.0141364 -0.00155978)
(0.0149908 -0.0164991 -0.0016686)
(0.0152147 -0.0146224 -0.00174189)
(0.0136114 -0.0102319 -0.00145763)
(0.014399 -0.0169995 -0.00172502)
(0.0149059 -0.0166911 -0.00173252)
(0.0154701 -0.0160842 -0.0019259)
(0.0155149 -0.0140125 -0.00189908)
(0.0158663 -0.0126698 -0.00209275)
(0.0157054 -0.0150535 -0.00199048)
(0.000181524 -0.000266148 -0.000297796)
(0.000110095 -0.000187888 -0.000310027)
(3.00131e-05 -0.000104604 -0.000147112)
(3.6334e-05 -0.000106879 -0.000211541)
(0.000190749 -0.000116569 2.7781e-05)
(0.00021125 -0.000137626 1.90497e-05)
(0.000308359 -0.000137827 3.04708e-05)
(0.000303974 -0.000115196 3.00971e-05)
(0 0 0)
(0.000134016 -0.000102019 1.24111e-05)
(0 0 0)
(0.000692905 -0.000409981 -8.44287e-06)
(0.000719952 -0.000360921 1.68094e-05)
(0.000384725 -0.000231911 2.34416e-05)
(0.000450336 -0.000326994 6.13232e-06)
(0.000590414 -0.000313498 1.97275e-05)
(0.000444413 -0.000427536 -1.42556e-05)
(0.000433798 -0.000381573 -6.43213e-06)
(0.0148757 -0.020677 -0.00112992)
(0.0148988 -0.0203585 -0.00135195)
(0.0148478 -0.0250508 -0.0011892)
(0.0143239 -0.0221901 -0.00134771)
(0.0133196 -0.0136976 -0.000447694)
(0.0143521 -0.0183294 -0.000988193)
(0.013602 -0.00619236 -0.0011457)
(0.0135878 -0.00451225 -0.00134947)
(0.0141104 -0.00752473 -0.00147953)
(0.0143973 -0.00391455 -0.00169676)
(0.013732 -0.0223387 -0.00149776)
(0.0138129 -0.0210753 -0.00141493)
(0.0136696 -0.0185759 -0.00154455)
(2.80583e-05 -0.000114994 -3.60718e-05)
(3.66032e-05 -0.000128689 -7.63891e-05)
(6.03767e-05 -0.000133733 -2.87404e-05)
(4.4699e-05 -9.55904e-05 -8.73151e-06)
(0 0 0)
(-3.4532e-06 -8.0997e-05 -7.92224e-05)
(0 0 0)
(0.00030465 -0.000430145 -6.034e-05)
(0.000286147 -0.000390262 -6.18095e-05)
(0.000118665 -0.000267878 -9.65781e-05)
(0.00019506 -0.000321978 -0.000183445)
(0.000229874 -0.000342217 -8.4975e-05)
(0.000218225 -0.000352753 -0.00031377)
(0.000209999 -0.000328752 -0.000277137)
(0.000108743 -0.00017015 -0.000368751)
(1.04335e-05 -6.07084e-05 -0.000228168)
(0.0152576 -0.00363198 -0.0020343)
(0.0160593 -0.00674604 -0.00225047)
(0.000990665 -0.000741415 -6.31344e-06)
(0.000450713 -0.000203889 1.92713e-05)
(0.00435052 -0.00427488 -0.000100546)
(0.00199427 -0.00136917 0.000116522)
(0.00104291 -0.000909561 -5.78301e-05)
(0.00216186 -0.00203132 -0.000130338)
(0.00073696 -0.000601029 -9.07477e-05)
(0.00029567 -0.000200571 -4.7371e-06)
(0.000210997 -0.000184289 -3.3235e-05)
(0.00407732 -0.00308756 -0.000215602)
(0.00431977 -0.00434285 -0.000282035)
(0.00379818 -0.00310506 -0.000325989)
(0.0015487 -0.00124156 -3.09871e-05)
(0.00130533 -0.00110515 -0.000129032)
(0.0137278 -0.0108358 -0.00107232)
(0.000945932 -0.000733832 -0.00010305)
(0.00200935 -0.00165768 -0.000216066)
(0.000816892 -0.000574246 -0.000119659)
(0.000184238 -0.000167895 -7.49781e-05)
(0.00349679 -0.00212773 -0.000354726)
(0.00386043 -0.00311861 -0.000360504)
(0.00731598 -0.00506827 -0.000651084)
(0.00359312 -0.00231787 -0.000357183)
(0.00121 -0.000966226 -0.000235733)
(0.0007355 -0.000348689 -0.000158071)
(0.000824217 -0.000498077 -0.000123089)
(0.00188893 -0.00107349 -0.000230421)
(0.00095483 -0.000471631 -0.000108372)
(0.000211175 -0.000147259 -0.000144059)
(0.0012306 -0.000696563 6.35919e-05)
(0.000802463 -0.000385284 3.71167e-05)
(0.000301557 -0.000157019 1.34161e-05)
(0.000244605 -0.00011057 2.49168e-05)
(0.00122574 -0.000702717 5.682e-05)
(0.000953903 -0.000628176 1.80322e-05)
(0.00062815 -0.000367981 1.06735e-05)
(0.0135868 -0.0148732 -0.000771482)
(0.000829575 -0.00062769 -1.80052e-05)
(0.000635706 -0.000580319 -9.47599e-05)
(0.000528045 -0.000384418 -7.99688e-06)
(0.000173411 -0.000152274 -9.49819e-06)
(0.000162951 -0.00010415 1.6254e-05)
(0.000105027 -9.90251e-05 8.31533e-06)
(0.000874288 -0.000684021 -1.89648e-05)
(0.000686231 -0.000592962 -4.80921e-05)
(0.000488288 -0.000378973 -5.32556e-07)
(0.000390519 -0.000387689 -1.4786e-05)
(0.000384375 -0.000359831 -6.19305e-05)
(0.000111596 -0.000142157 -5.55102e-05)
(2.952e-05 -9.37298e-05 -1.77221e-05)
(5.99005e-05 -9.50548e-05 -1.61653e-06)
(0.000689387 -0.000634627 -9.45012e-05)
(0.000558599 -0.000542552 -0.000157907)
(0.000263832 -0.000389409 -9.39601e-05)
(0.00031644 -0.000391851 -4.03491e-05)
(0.000551008 -0.00049089 -0.000252138)
(0.000186311 -0.000143312 -0.000250716)
(0.00033921 -0.000329271 -0.000148702)
(0.000124353 -0.000130822 -0.000110522)
(5.404e-06 -9.00604e-05 -5.10357e-05)
(-6.9648e-06 -6.05211e-05 -0.0001062)
(0.00062616 -0.000569468 -0.000208529)
(0.000578433 -0.000476378 -0.000278606)
(0.000225483 -0.000363151 -0.000204429)
(0.000205051 -0.00028861 -0.000333709)
(0.000135035 -0.000129136 -0.000151609)
(0.000328045 -0.000268719 -0.000271229)
(6.90801e-05 -7.34732e-05 -0.000270024)
(0.000140661 -0.000209455 -0.000357533)
(-8.55512e-06 -4.92083e-05 -0.000155051)
(0.000241479 -0.000252887 3.93182e-06)
(0.000104929 -0.000116682 1.23705e-05)
(0.000157741 -0.000116578 2.24882e-05)
(0.000178685 -0.000134989 1.88562e-05)
(0.000274189 -0.000142551 2.95255e-05)
(0.000326535 -0.000238563 1.77906e-05)
(0.000348249 -0.000330118 4.0121e-06)
(0.000458436 -0.000313466 1.43568e-05)
(0.000492391 -0.000423821 -1.11882e-05)
(0.000402139 -0.000429553 -1.93358e-05)
(0.000269993 -0.000344976 -1.31017e-05)
(0.000105943 -0.000129686 7.58876e-06)
(0.0162817 -0.0208413 -0.00154128)
(0.0150114 -0.0152442 -0.00145555)
(0.0143351 -0.0125133 -0.00138535)
(0.0153267 -0.0190708 -0.00167148)
(0.0152479 -0.0154692 -0.00168948)
(0.0149226 -0.018517 -0.00124073)
(0.014359 -0.0161948 -0.00112429)
(0.0136452 -0.0099901 -0.00116375)
(0.0135988 -0.0136043 -0.000868948)
(0.013583 -0.0078762 -0.000996163)
(0.0138733 -0.00826047 -0.00132726)
(0.0163077 -0.026035 -0.00130631)
(0.0153263 -0.023005 -0.0015166)
(0.0135903 -0.00458408 -0.00127871)
(0.0133128 -0.00681625 -0.00141454)
(8.03333e-05 -0.000191841 -0.000276725)
(9.97927e-06 -8.82219e-05 -0.000146547)
(1.97895e-05 -0.000112507 -5.98674e-05)
(-1.90135e-05 -0.000117228 -0.000105456)
(1.4997e-05 -0.000127553 -3.72075e-05)
(0.000102403 -0.000256002 -0.000147588)
(0.000133278 -0.000298378 -0.000276293)
(0.00016813 -0.00035101 -0.000121412)
(0.000237191 -0.000399001 -0.000214537)
(0.000196359 -0.000276843 -0.000408398)
(0.000615096 -0.000415617 -8.52832e-06)
(0.000234519 -0.00011652 3.37081e-05)
(0.000408185 -0.000153189 4.25784e-05)
(0.000608449 -0.000286638 2.46275e-05)
(0.000445836 -0.000220048 3.04144e-05)
(0.0134473 -0.0116135 -0.000645603)
(0.0162296 -0.0324191 -0.00110003)
(0.0148538 -0.0234073 -0.001028)
(0.0134609 -0.0179801 -0.000541946)
(0.0143696 -0.0209863 -0.000858998)
(0.0153884 -0.0281535 -0.00139394)
(0.0139002 -0.0262851 -0.00131986)
(0.0143319 -0.0245096 -0.00130298)
(0.0138167 -0.0231133 -0.00137518)
(0.0138639 -0.0214077 -0.00138801)
(0.000279487 -0.000427373 -9.17948e-05)
(0.000332891 -0.000430851 -4.03118e-05)
(0.000177509 -0.000261853 -1.72229e-05)
(6.52472e-05 -0.000116258 1.87506e-07)
(3.8122e-05 -0.000115553 -1.93373e-05)
(5.37803e-05 -0.000127822 -8.72712e-06)
(0.000208601 -0.000351154 -4.60177e-05)
(0.000132595 -0.000266345 -5.85957e-05)
(0.0146842 -0.00346982 -0.00183119)
(0.0139573 -0.0180987 -0.0015036)
(0.014728 -0.0175252 -0.00158543)
(0.0143914 -0.0171452 -0.00162608)
(0.0150257 -0.0171149 -0.00174811)
(0.014357 -0.0202786 -0.00141875)
(0.0138022 -0.0192199 -0.00145353)
(0.0150226 -0.0129299 -0.00171706)
(0.0145042 -0.0098596 -0.00175199)
(0.0154074 -0.012476 -0.00190924)