/*--------------------------------*- C++ -*----------------------------------*\
| =========                 |                                                 |
| \\      /  F ield         | OpenFOAM: The Open Source CFD Toolbox           |
|  \\    /   O peration     | Version:  2012                                  |
|   \\  /    A nd           | Website:  www.openfoam.com                      |
|    \\/     M anipulation  |                                                 |
\*---------------------------------------------------------------------------*/
FoamFile
{
    version     2.0;
    format      ascii;
    class       volVectorField;
    location    "0.108/fluid";
    object      U_0;
}
// * * * * * * * * * * * * * * * * * * * * * * * * * * * * * * * * * * * * * //

dimensions      [0 1 -1 0 0 0 0];


internalField   nonuniform List<vector> 
16422
(
(1.00266 -0.219775 -0.0267779)
(1.17112 0.0070739 -0.0189035)
(1.1842 -0.00164935 -0.0114466)
(1.1917 -0.00052784 -0.00687936)
(1.19501 -0.000219911 -0.00416382)
(1.19668 -0.000103104 -0.00254563)
(1.19762 -5.90077e-05 -0.0015748)
(1.1982 -4.03078e-05 -0.000984268)
(1.19857 -3.11797e-05 -0.000620845)
(1.19884 -2.98302e-05 -0.000392581)
(1.19904 -3.03596e-05 -0.000248535)
(1.1992 -3.24131e-05 -0.000155327)
(1.19935 -3.82471e-05 -9.47769e-05)
(1.19948 -4.64509e-05 -5.3806e-05)
(1.3234 -0.0130973 -0.00572999)
(1.2079 -0.0527195 -0.0197723)
(1.18611 -0.0238896 -0.0157479)
(1.1908 -0.00916438 -0.0100245)
(1.19412 -0.00434649 -0.00623588)
(1.19629 -0.00232995 -0.00387185)
(1.19764 -0.00134349 -0.00240901)
(1.1985 -0.000807462 -0.00150829)
(1.19904 -0.000497103 -0.00095071)
(1.19938 -0.000310855 -0.000602165)
(1.1996 -0.000194808 -0.000382362)
(1.19975 -0.000119536 -0.000242841)
(1.19984 -7.24656e-05 -0.000153695)
(1.19989 -3.99805e-05 -9.36959e-05)
(1.19993 -1.71014e-05 -5.38702e-05)
(1.25077 0.000776764 -0.00721535)
(1.21748 -0.0173537 -0.0156392)
(1.20081 -0.0149577 -0.0121473)
(1.19759 -0.00929037 -0.00784749)
(1.19741 -0.00554241 -0.00505916)
(1.19798 -0.00335347 -0.00327533)
(1.19858 -0.00206422 -0.00210384)
(1.19904 -0.0012898 -0.00134979)
(1.19937 -0.000813783 -0.000866811)
(1.19959 -0.000517811 -0.000556899)
(1.19973 -0.000328083 -0.000358018)
(1.19983 -0.000210656 -0.000230152)
(1.1999 -0.000132927 -0.00014735)
(1.19994 -7.85773e-05 -9.08991e-05)
(1.19996 -4.18348e-05 -5.21143e-05)
(1.30635 0.0837778 0.00225612)
(1.19431 -0.00345297 -0.016812)
(1.1981 -0.00705586 -0.00958957)
(1.20064 -0.00704445 -0.00578336)
(1.1999 -0.00513044 -0.00384767)
(1.19964 -0.00343618 -0.00259223)
(1.19964 -0.00224621 -0.00172938)
(1.19971 -0.00145538 -0.00114569)
(1.19979 -0.000941965 -0.000757596)
(1.19986 -0.000607524 -0.000497605)
(1.19991 -0.000393101 -0.000325046)
(1.19995 -0.00025466 -0.000213345)
(1.19998 -0.000158543 -0.000138629)
(1.19999 -9.5182e-05 -8.60032e-05)
(1.2 -5.2714e-05 -4.89335e-05)
(1.04783 -0.191402 -0.0363901)
(1.19049 0.00836019 -0.0230529)
(1.19136 -0.00120778 -0.0120179)
(1.19557 -0.000370509 -0.00679859)
(1.19717 -0.000159495 -0.00403997)
(1.19793 -8.35045e-05 -0.0024628)
(1.19838 -5.37224e-05 -0.00152454)
(1.19866 -3.83803e-05 -0.000955184)
(1.19887 -2.9501e-05 -0.000601837)
(1.19902 -2.88024e-05 -0.000380954)
(1.19915 -2.9493e-05 -0.000241263)
(1.19927 -3.28661e-05 -0.000152585)
(1.19939 -3.98877e-05 -9.30204e-05)
(1.19952 -4.78348e-05 -5.24347e-05)
(1.2876 -0.0115732 -0.00342092)
(1.2084 -0.0345403 -0.0291776)
(1.19421 -0.0162401 -0.0172412)
(1.19604 -0.00657813 -0.010069)
(1.1974 -0.00328712 -0.00608415)
(1.1983 -0.00184355 -0.00374191)
(1.19888 -0.00110545 -0.00232855)
(1.19926 -0.000687245 -0.00146039)
(1.19951 -0.00043449 -0.00092226)
(1.19968 -0.000276409 -0.000584714)
(1.1998 -0.0001761 -0.00037194)
(1.19987 -0.000110713 -0.000236886)
(1.19992 -6.74619e-05 -0.000149797)
(1.19995 -3.70948e-05 -9.16414e-05)
(1.19996 -1.64509e-05 -5.25676e-05)
(1.23374 -0.00150615 -0.00402288)
(1.21679 -0.0127267 -0.0127495)
(1.20462 -0.0107216 -0.0106301)
(1.20081 -0.00686184 -0.00729895)
(1.19975 -0.00426462 -0.00483506)
(1.19954 -0.00267982 -0.00314564)
(1.19959 -0.00170897 -0.00202944)
(1.19969 -0.00110006 -0.00130645)
(1.19978 -0.000711454 -0.000841601)
(1.19986 -0.000462594 -0.000540131)
(1.19991 -0.000299423 -0.000348167)
(1.19995 -0.000194704 -0.000224994)
(1.19998 -0.00012431 -0.000143135)
(1.19999 -7.45335e-05 -8.86571e-05)
(1.2 -3.90627e-05 -5.15526e-05)
(1.22798 0.00399127 -0.0104476)
(1.21203 -0.00239442 -0.0130864)
(1.20565 -0.0059534 -0.00809827)
(1.203 -0.00539869 -0.00526671)
(1.20152 -0.00399373 -0.00363872)
(1.20077 -0.00276885 -0.00248385)
(1.2004 -0.00187059 -0.00166845)
(1.20022 -0.00124627 -0.00111086)
(1.20014 -0.000827419 -0.000733934)
(1.2001 -0.000545455 -0.000481828)
(1.20007 -0.000357928 -0.000317486)
(1.20006 -0.000235651 -0.000206293)
(1.20004 -0.000148905 -0.000134558)
(1.20004 -9.09735e-05 -8.50037e-05)
(1.20004 -4.93493e-05 -4.90639e-05)
(1.26793 -0.0135072 0.0351589)
(1.19472 -0.00491675 -0.0267935)
(1.19875 -0.0014322 -0.0183791)
(1.19909 -0.000515005 -0.00937176)
(1.19912 -0.000219747 -0.00526952)
(1.19905 -0.000109787 -0.00311879)
(1.19902 -6.93115e-05 -0.00190107)
(1.19903 -4.93016e-05 -0.00117861)
(1.19907 -3.58497e-05 -0.000737962)
(1.19911 -2.89384e-05 -0.000464368)
(1.19918 -2.86545e-05 -0.000294502)
(1.19925 -2.94734e-05 -0.000187532)
(1.19933 -3.28639e-05 -0.000119128)
(1.19943 -4.12457e-05 -7.20992e-05)
(1.19955 -4.83265e-05 -4.08232e-05)
(1.23706 -0.00605683 -0.00171629)
(1.21403 -0.0126334 -0.0179776)
(1.20403 -0.00728738 -0.0128684)
(1.20123 -0.00391009 -0.00774849)
(1.20036 -0.00226691 -0.00468925)
(1.20005 -0.00139766 -0.00288379)
(1.19995 -0.000893503 -0.00179692)
(1.19992 -0.000581005 -0.00112845)
(1.19993 -0.000380814 -0.000712581)
(1.19994 -0.000247836 -0.000452833)
(1.19996 -0.00016023 -0.000287851)
(1.19998 -0.000102645 -0.00018358)
(1.19999 -6.23164e-05 -0.000115867)
(1.2 -3.47026e-05 -7.15177e-05)
(1.2 -1.57427e-05 -4.07784e-05)
(1.22134 -0.0011068 -0.00174521)
(1.21462 -0.00623186 -0.00757901)
(1.20739 -0.0061208 -0.00739866)
(1.20353 -0.00450979 -0.00544201)
(1.20174 -0.00308547 -0.00367474)
(1.2009 -0.0020788 -0.00240989)
(1.20048 -0.00139653 -0.00156403)
(1.20027 -0.000935452 -0.00100905)
(1.20015 -0.000624645 -0.000651181)
(1.2001 -0.000414813 -0.000420334)
(1.20007 -0.000273487 -0.000269713)
(1.20005 -0.000180268 -0.00017351)
(1.20004 -0.000117478 -0.000110807)
(1.20004 -7.13116e-05 -6.89952e-05)
(1.20003 -3.79683e-05 -3.8996e-05)
(1.21641 -0.000353074 -0.00171236)
(1.2123 -0.0031304 -0.00511209)
(1.20778 -0.0042138 -0.00485262)
(1.20471 -0.00383798 -0.00377252)
(1.20284 -0.0029999 -0.00272831)
(1.20173 -0.00218951 -0.00189298)
(1.20108 -0.00154337 -0.0012838)
(1.20069 -0.00106754 -0.000859633)
(1.20045 -0.000727363 -0.000570506)
(1.2003 -0.000490077 -0.000375388)
(1.20021 -0.000328114 -0.000244544)
(1.20015 -0.000218465 -0.000159999)
(1.20011 -0.000141032 -0.000104762)
(1.20009 -8.74453e-05 -6.57619e-05)
(1.20008 -4.80812e-05 -3.75721e-05)
(1.22242 -0.00107584 0.00290308)
(1.21248 -0.000935574 -0.00670075)
(1.20666 -0.000429093 -0.00686686)
(1.2032 -0.000238318 -0.00436603)
(1.20129 -0.000134032 -0.00259555)
(1.20026 -8.51006e-05 -0.00156398)
(1.19973 -6.2255e-05 -0.000959351)
(1.19946 -4.60606e-05 -0.000596211)
(1.19933 -3.43199e-05 -0.000372349)
(1.19929 -2.87478e-05 -0.00023526)
(1.19929 -2.88476e-05 -0.000147432)
(1.19933 -2.98567e-05 -9.47326e-05)
(1.19938 -3.207e-05 -6.02951e-05)
(1.19946 -4.19278e-05 -3.60516e-05)
(1.19957 -4.90226e-05 -1.9373e-05)
(1.21951 -0.00103541 3.33535e-05)
(1.21357 -0.00340624 -0.00534289)
(1.2078 -0.00302975 -0.00538819)
(1.20418 -0.00226355 -0.00369873)
(1.20222 -0.00158875 -0.0023302)
(1.2012 -0.00109751 -0.00145167)
(1.20065 -0.000753098 -0.000906903)
(1.20036 -0.000512263 -0.000569597)
(1.2002 -0.000344997 -0.000358355)
(1.20012 -0.000230836 -0.000227225)
(1.20007 -0.0001513 -0.000143351)
(1.20005 -9.76954e-05 -9.17449e-05)
(1.20003 -5.96752e-05 -5.7251e-05)
(1.20003 -3.43018e-05 -3.33906e-05)
(1.20002 -1.60699e-05 -1.8089e-05)
(1.21545 -0.000450607 -0.00056788)
(1.21258 -0.00280417 -0.00307294)
(1.20832 -0.00339188 -0.0033885)
(1.20504 -0.0029789 -0.00265285)
(1.20298 -0.00229921 -0.00183195)
(1.20177 -0.00168095 -0.00120916)
(1.20106 -0.00119332 -0.000786168)
(1.20065 -0.000829945 -0.000505936)
(1.2004 -0.000569131 -0.00032264)
(1.20026 -0.000385331 -0.000207729)
(1.20017 -0.000257085 -0.000132253)
(1.20012 -0.00017158 -8.38911e-05)
(1.20009 -0.00011429 -5.23692e-05)
(1.20007 -7.07066e-05 -3.07493e-05)
(1.20006 -3.89515e-05 -1.61117e-05)
(1.21293 -0.000346443 -0.000480965)
(1.21113 -0.00205532 -0.00189375)
(1.20819 -0.00284854 -0.0021625)
(1.20556 -0.00279822 -0.00182174)
(1.20365 -0.00234945 -0.00134748)
(1.20236 -0.0018116 -0.000940667)
(1.20153 -0.00133062 -0.000640989)
(1.20099 -0.000951909 -0.00042708)
(1.20065 -0.000664134 -0.00027851)
(1.20044 -0.000454457 -0.000182097)
(1.2003 -0.000308969 -0.0001167)
(1.20022 -0.000209495 -7.52701e-05)
(1.20016 -0.000137191 -4.71937e-05)
(1.20012 -8.63914e-05 -2.82499e-05)
(1.2001 -4.85861e-05 -1.37306e-05)
(0.746939 -0.359769 -0.0260719)
(1.39195 -0.00766576 -0.00439652)
(1.22211 -0.139482 -0.0153627)
(1.31345 0.0836997 -0.0180636)
(1.18526 -0.00457729 -0.0135623)
(0.749353 -0.355792 -0.0317813)
(1.38471 -0.0101456 -0.00514563)
(1.22039 -0.137896 -0.0199932)
(0.791435 -0.339555 -0.092914)
(1.35198 -0.0115558 -0.00274681)
(1.21431 -0.113956 -0.0308282)
(1.18714 -0.00111962 -0.020995)
(1.23945 0.0065245 -0.016359)
(1.2117 -0.000357478 -0.014403)
(0.812034 -0.332502 -0.0664384)
(1.33229 -0.0106325 -0.00439303)
(1.21408 -0.0926589 -0.0382399)
(1.22991 0.00414167 -0.142601)
(1.22813 -0.00827275 -0.0687543)
(1.24928 0.00739981 -0.00406695)
(1.22674 -0.0165899 -0.025375)
(1.25531 0.000473508 -0.00264036)
(1.22755 -0.0162255 -0.00894705)
(1.26091 0.01933 -0.00403229)
(1.20916 0.034014 -0.00652969)
(1.1925 -0.00722384 -0.0118067)
(1.19423 -0.00676517 -0.00853036)
(1.67316 -0.381052 -0.0252386)
(-0.431599 -0.0404508 -0.0544772)
(1.92529 0.00555842 0.0230585)
(1.69116 -0.389526 0.00425268)
(1.90022 0.00505903 -0.00491211)
(-0.418451 -0.0422293 -0.0568029)
(1.22653 -0.0154241 -0.0151327)
(1.25477 0.019152 -0.0160841)
(1.20964 0.0307476 -0.012684)
(1.23788 -0.00147638 -0.00452116)
(1.22312 -0.0127843 -0.0129453)
(1.23328 0.00500647 -0.00929582)
(1.21637 -0.00176107 -0.00741109)
(1.22755 0.067006 -0.0191156)
(1.28747 0.0240495 -0.0123511)
(1.23148 0.031853 -0.0365707)
(1.19675 -0.00588909 -0.0112494)
(1.20939 -0.00197984 -0.0131138)
(1.20459 -0.00528409 -0.0107264)
(1.26776 -0.180348 -0.0848538)
(-0.372669 -0.110618 -0.196933)
(1.82614 -0.0126208 0.0638639)
(0.566181 0.0628234 -0.250887)
(1.58269 -0.364034 0.00419847)
(1.47732 -0.0679865 0.0156155)
(0.587496 -0.042238 -0.128751)
(1.21394 -0.000146218 -0.0145281)
(1.21834 -0.00018262 -0.00237015)
(1.214 -0.0024465 -0.00569302)
(-0.436993 -0.040307 -0.0221686)
(1.9287 0.00637663 -0.0176902)
(1.69749 -0.390697 -0.0258677)
(1.23156 0.066971 -0.0192698)
(1.19041 0.0259153 -0.0155464)
(1.17171 0.0312313 -0.0131878)
(1.6608 -0.378076 0.00512614)
(-0.397768 -0.0757529 -0.163434)
(1.84367 -0.00326451 0.0248567)
(1.89372 0.00295816 0.0358774)
(1.61502 -0.368941 -0.0237186)
(-0.408073 -0.0420894 -0.0910201)
(1.19094 0.0256575 -0.0258399)
(1.17539 0.0320526 -0.0203354)
(1.19601 -0.00477664 -0.0290282)
(1.20067 0.0169922 -0.0384997)
(1.18039 0.0316727 -0.0160985)
(1.26252 0.0240357 -0.017765)
(1.22738 0.00660128 -0.0217952)
(1.2429 -0.000736635 -0.0289619)
(1.22554 0.0175878 -0.0412127)
(1.22588 -0.00209757 -0.033945)
(1.20324 -0.00804557 -0.0283385)
(1.21713 0.00283946 -0.0189222)
(1.20978 -0.00844551 -0.019433)
(1.20652 -0.00273359 -0.0360541)
(1.1988 -0.00950172 -0.0164793)
(1.21318 -0.00587168 -0.028547)
(1.00053 -0.222422 -0.0227225)
(1.17122 0.00464845 -0.0186731)
(1.20071 -0.108684 -0.0161105)
(1.18123 -0.034412 -0.0152089)
(1.32934 -0.0116751 -0.00394076)
(1.23872 -0.0648257 -0.0133845)
(1.25678 0.00143273 -1.14743e-05)
(1.23126 -0.0184607 -0.0057446)
(1.17333 0.00477092 -0.0209265)
(1.20058 -0.10725 -0.020682)
(1.18309 -0.0337995 -0.0181617)
(1.02656 -0.208697 -0.0588854)
(1.18591 0.00713958 -0.0296312)
(1.20172 -0.0873203 -0.0289536)
(1.18889 -0.026491 -0.02166)
(1.23685 -0.0643343 -0.0186161)
(1.25226 0.00149644 -0.00535041)
(1.2305 -0.0182116 -0.0122841)
(1.29967 -0.0123007 -0.00263945)
(1.22924 -0.050151 -0.0258791)
(1.24209 -5.81211e-05 -0.0017135)
(1.22552 -0.0168183 -0.0102441)
(1.19849 0.011008 -0.0322136)
(1.20361 -0.0698729 -0.0320289)
(1.19235 -0.0224463 -0.0223463)
(1.21875 -0.00325491 -0.0463321)
(1.20111 -0.000937115 -0.0274114)
(1.21844 -0.0169826 -0.0253677)
(1.20346 -0.0106644 -0.0192251)
(1.22668 -0.0425994 -0.0300268)
(1.23791 -0.000437509 -0.00210851)
(1.22393 -0.0153351 -0.010917)
(1.24303 0.00378697 -0.00260027)
(1.22523 -0.0112227 -0.0223665)
(1.22617 0.000144381 -0.00156114)
(1.21963 -0.00769004 -0.0087856)
(1.1937 -0.00771874 -0.0221784)
(1.24329 -0.0105548 -0.000859495)
(1.21799 -0.0192738 -0.0191298)
(1.22135 0.000406998 -0.0101943)
(1.22056 -0.000624499 -0.0168914)
(1.22183 0.00174103 -0.00314076)
(1.21856 -0.00205678 -0.00946043)
(-0.1816 -0.258032 -0.0364781)
(1.21809 -0.348945 -0.0202095)
(1.38837 -0.497135 -0.0186615)
(1.62894 0.00941282 -0.0034756)
(1.34759 -0.0875659 -0.00937604)
(1.45464 -0.157561 -0.0113541)
(1.37242 -0.483776 -0.0271222)
(-0.17737 -0.255625 -0.0476582)
(1.21522 -0.345167 -0.0244181)
(0.75414 -0.349562 -0.04128)
(1.3814 -0.492417 -0.0221705)
(1.21236 -0.338184 -0.0289285)
(-0.161963 -0.248273 -0.0691275)
(1.436 -0.153259 -0.0134367)
(1.62292 0.00881065 0.000702801)
(1.34167 -0.0882669 -0.0119735)
(1.37711 -0.00901951 -0.00288667)
(1.44605 -0.156853 -0.0129539)
(1.60542 0.00849792 0.00376573)
(1.33459 -0.085299 -0.0113987)
(1.35896 -0.470897 -0.0380101)
(0.762334 -0.339764 -0.0538964)
(-0.0835562 -0.273458 -0.162454)
(1.20871 -0.308308 -0.0499718)
(1.20938 -0.327128 -0.0390273)
(1.33493 -0.446939 -0.0536772)
(-0.151475 -0.242459 -0.0922319)
(1.42099 -0.149885 -0.0163689)
(1.36634 -0.0101316 -0.00266869)
(1.55794 0.000602759 0.0161531)
(1.31257 -0.0785806 -0.0178996)
(1.59407 0.00745809 0.0090972)
(1.32534 -0.0830146 -0.0141326)
(1.39772 -0.145048 -0.0215687)
(1.18005 -0.28236 -0.193114)
(0.0247206 -0.368791 -0.192881)
(1.1995 -0.239307 -0.0951485)
(0.970346 -0.107494 -0.173084)
(1.29784 -0.397439 -0.130281)
(1.1937 -0.178028 -0.151095)
(0.843314 0.0919229 -0.300791)
(1.32354 -0.107035 -0.0709629)
(1.52909 -0.00470932 0.0203575)
(1.29694 -0.068678 -0.0251936)
(1.30382 -0.0129269 -0.00790152)
(1.3649 -0.134808 -0.0391393)
(1.40191 -0.0342521 0.00431408)
(1.2735 -0.0533951 -0.0324326)
(1.26551 -0.0812292 -0.104201)
(1.40454 -0.113078 -0.250134)
(1.2353 0.000278208 -0.169966)
(1.31625 0.0302136 -0.0768149)
(1.4123 0.00398291 -0.0212255)
(1.31067 0.0284151 -0.111026)
(1.46052 -0.0972139 -0.275944)
(-0.177008 0.189613 -0.0714062)
(0.688534 -0.376256 -0.0439327)
(-0.429365 -0.0411906 -0.034272)
(-0.16224 0.177253 0.00871132)
(0.686155 -0.374302 -0.0483774)
(-0.0274752 -0.0245372 -0.0355024)
(1.81341 -0.207343 0.0166347)
(1.91656 0.00569423 -0.0124876)
(-0.0183018 -0.0261406 -0.0216134)
(1.8059 -0.20553 -0.0223238)
(-0.0183086 -0.0251084 -0.0275819)
(1.79003 -0.202589 -0.0181956)
(1.91208 0.00479689 0.0283048)
(1.80044 -0.205276 0.0193645)
(-0.0301818 -0.0232781 -0.047057)
(-0.15992 0.17645 -0.00129281)
(0.677405 -0.366928 -0.0674527)
(-0.421776 -0.0412367 -0.0672437)
(0.681998 -0.370126 -0.0567211)
(-0.179219 0.192728 -0.0806327)
(1.34989 0.152568 -0.0121863)
(1.26617 0.101728 -0.0710253)
(1.26118 0.140196 -0.0352598)
(1.30313 0.0550992 -0.0508908)
(1.39401 0.165844 -0.0417068)
(1.53003 0.153772 0.0291315)
(1.40247 0.176221 0.00754529)
(1.50878 0.143024 -0.0306968)
(1.35283 0.161266 -0.0437619)
(1.25602 0.164594 -0.0203484)
(1.35663 0.169242 0.00249962)
(1.25611 0.160391 -0.0269174)
(1.38874 0.156526 -0.0044494)
(1.41953 0.000882678 0.00412891)
(1.50097 0.140003 0.0325401)
(1.32613 0.0507147 -0.0414793)
(0.146923 -0.113831 -0.356128)
(0.659636 -0.426555 -0.196656)
(-0.252249 -0.336323 0.129502)
(-0.139719 0.176309 -0.0239851)
(0.72104 -0.603849 -0.520645)
(0.176337 -0.188867 -0.1847)
(1.70364 -0.2094 0.0321291)
(1.77838 -0.0108587 0.0432261)
(0.0137187 -0.049099 -0.0611532)
(1.66012 -0.211562 -0.0142505)
(0.645635 -0.0378152 0.271317)
(0.508222 0.0759788 -0.218213)
(0.834035 -0.115803 0.00239247)
(0.221799 -0.206767 -0.18215)
(1.37857 -0.147293 -0.0921591)
(1.71905 -0.0388249 0.0714574)
(1.24389 -0.256291 0.267937)
(1.58681 -0.21521 -0.00427251)
(1.34536 -0.376119 -0.0780215)
(0.172984 -0.165224 -0.329272)
(1.27242 -0.267498 -0.352935)
(-0.177891 -0.278664 0.239912)
(0.535201 0.0645125 -0.21896)
(0.634189 -0.4462 -0.586007)
(1.02225 -0.214018 -0.0673176)
(-0.163857 0.177821 0.0147994)
(0.691264 -0.378868 -0.0368506)
(-0.438383 -0.0397585 -0.047622)
(-0.175466 0.187542 -0.0657013)
(0.692633 -0.380033 -0.0362366)
(-0.0181331 -0.0269873 -0.0183326)
(1.93554 0.0058187 0.0202115)
(1.81761 -0.207284 -0.0255522)
(-0.0253076 -0.0256665 -0.0280862)
(1.82321 -0.209012 0.0158477)
(-0.0237933 -0.0265616 -0.024111)
(1.82557 -0.209864 -0.0268085)
(-0.174477 0.186195 -0.0629966)
(0.694921 -0.382722 -0.030146)
(1.36339 0.169683 -0.0285642)
(1.4096 0.177165 0.0162475)
(1.5348 0.15237 -0.0390227)
(1.40585 0.176479 -0.0362138)
(1.54152 0.153287 0.0324929)
(1.41117 0.176913 -0.0300452)
(1.54358 0.152369 -0.0365212)
(1.36208 0.169792 0.0121642)
(1.25709 0.166778 -0.0139773)
(1.35931 0.169487 -0.0352568)
(1.25885 0.166207 -0.0115444)
(1.17949 0.0548508 -0.0109963)
(1.1964 0.110383 -0.0162296)
(1.1972 0.109878 -0.0115696)
(1.17986 0.0547546 -0.0174256)
(-0.153794 0.17637 -0.0259416)
(0.651068 -0.395597 -0.15819)
(-0.390569 -0.0458026 -0.134571)
(-0.174971 0.200793 -0.0826344)
(0.65805 -0.364821 -0.107784)
(-0.0117211 -0.0280735 -0.0466438)
(1.86761 -0.00251249 0.047952)
(1.72893 -0.202773 -0.00194566)
(-0.0107014 -0.0423402 -0.0790332)
(1.75211 -0.2034 0.0280552)
(-0.0287902 -0.0256593 -0.0609977)
(1.78149 -0.203054 0.0226907)
(1.87742 0.00181136 0.00727247)
(-0.0176947 -0.024305 -0.0365867)
(1.76609 -0.201181 -0.0110326)
(-0.180961 0.196856 -0.0886938)
(0.671314 -0.361935 -0.0770649)
(-0.404845 -0.0450158 -0.0978027)
(-0.157123 0.175889 -0.0151374)
(0.664659 -0.363509 -0.0959368)
(1.19168 0.0451876 -0.0205894)
(1.22875 0.054888 -0.0498947)
(1.20979 0.088872 -0.0234642)
(1.20841 0.028731 -0.0397408)
(1.18315 0.052366 -0.0224849)
(1.19675 0.109346 -0.0183616)
(1.19875 0.105891 -0.0236492)
(1.18115 0.0548841 -0.0171663)
(1.23111 0.021473 -0.0395002)
(1.19513 0.0604798 -0.0694642)
(1.21372 0.0721554 -0.0829086)
(1.21875 0.012062 -0.0286769)
(1.24635 0.0323006 -0.0509416)
(1.30145 0.000730116 -0.0490485)
(1.23628 0.0314955 -0.0748145)
(1.2611 0.0357327 -0.0403437)
(1.20224 -0.00464219 -0.0120086)
(1.19018 0.0423516 -0.0422316)
(1.19387 0.0180187 -0.0270254)
(1.20837 -0.000872309 -0.0126916)
(1.2235 -0.0568162 -0.0651033)
(1.22063 0.0031799 -0.0409636)
(1.24443 -0.00858175 -0.115046)
(1.24862 0.00190469 -0.0695977)
(1.20267 -0.0206357 -0.0609649)
(1.28173 0.0110485 -0.097009)
(1.27044 -0.0477537 -0.0720556)
(1.28899 -0.0442326 -0.0685477)
(1.2728 -0.0144263 -0.020209)
(1.26884 0.02609 -0.00788515)
(1.24603 -0.00335986 -0.0169123)
(1.32498 -0.0294569 -0.0261952)
(1.25675 -0.0400161 -0.0407541)
(1.26373 0.0176376 -0.0362915)
(0.245756 0.069101 -0.0460951)
(1.67914 -0.384329 0.0048973)
(1.82002 -0.246368 -0.0041417)
(1.28872 -0.497949 -0.0270458)
(1.29465 -0.502167 -0.0340916)
(1.82757 -0.248513 -0.00288431)
(0.242103 0.0701518 -0.056611)
(0.245546 0.069878 -0.0424137)
(1.6871 -0.387286 -0.0252975)
(1.30473 -0.508212 -0.0292298)
(1.84046 -0.251538 -0.00522316)
(0.248489 0.0688015 -0.035755)
(1.30075 -0.505409 -0.0198511)
(1.83518 -0.250083 -0.00644363)
(0.653599 -0.373015 -0.39016)
(1.45118 -0.257328 -0.0557009)
(1.38611 -0.204358 -0.0743068)
(1.17392 -0.379181 -0.265801)
(1.12684 -0.529144 -0.35549)
(1.60426 -0.244256 -0.0421205)
(1.42375 -0.420926 -0.16291)
(0.630342 0.111651 0.066607)
(0.537484 0.0836695 -0.245213)
(0.731306 0.173021 0.00283504)
(0.60505 -0.308796 -0.247443)
(1.55836 -0.338949 -0.0436083)
(1.22972 -0.496965 -0.0902921)
(1.72791 -0.265351 0.00813861)
(0.303293 -0.0156895 -0.101282)
(1.23096 -0.531794 -0.212254)
(1.69812 -0.26717 -0.0107901)
(0.250418 0.0686878 -0.0296883)
(1.70048 -0.39238 0.00474249)
(1.30914 -0.509955 -0.0156443)
(1.84648 -0.252091 -0.00825872)
(0.248133 0.0695695 -0.0332241)
(1.31203 -0.5119 -0.0259426)
(1.85045 -0.253369 -0.00603865)
(0.244 0.0635805 -0.0736095)
(1.8084 -0.245612 0.000257354)
(1.65131 -0.374513 -0.0249849)
(1.28019 -0.49422 -0.0415411)
(0.243152 0.0682157 -0.0612087)
(1.27213 -0.489211 -0.0370672)
(1.79709 -0.244409 5.14671e-05)
(0.249858 0.055952 -0.0778421)
(1.62951 -0.37315 0.00574324)
(1.24542 -0.485017 -0.0592929)
(1.76076 -0.250166 0.00562108)
(0.274365 0.0205655 -0.0955294)
(1.25947 -0.488523 -0.0518689)
(1.77826 -0.247671 0.00608752)
(1.65277 -0.131725 -0.106717)
(1.45555 -0.111395 -0.317682)
(1.66106 -0.126559 -0.205175)
(1.62775 -0.0702917 0.026491)
(1.1541 -0.103771 0.0231232)
(1.67078 -0.0596685 0.0871618)
(1.14895 -0.112352 0.00897925)
(1.38315 -0.0310082 -0.0890335)
(1.57216 -0.0751388 -0.115198)
(1.53453 -0.106601 -0.22398)
(1.37794 -0.129657 0.0280577)
(1.38957 -0.0534604 0.0280945)
(1.42075 -0.103327 0.0690187)
(1.35419 -0.0852114 -0.0141424)
(1.60706 -0.0783976 -0.257392)
(1.45486 -0.105494 -0.313024)
(1.64933 -0.112579 -0.241735)
(1.56962 -0.0888314 0.00314047)
(1.17442 -0.167342 0.0934486)
(1.48256 -0.099448 -0.0492767)
(1.13085 -0.13694 0.0632011)
(-0.250917 0.673385 -0.046868)
(-0.160467 0.176609 0.00345235)
(-0.0191413 0.362099 -0.0626539)
(-0.0174943 0.359755 -0.0583047)
(-0.263695 0.690991 -0.0975559)
(-0.268673 0.558726 -0.0725205)
(-0.0482035 0.0941797 -0.00791801)
(-0.262877 0.54988 -0.0305672)
(-0.0486731 0.0964658 -0.0313229)
(-0.262933 0.69239 -0.0875396)
(-0.175243 0.187962 -0.067888)
(-0.0185766 0.363387 -0.0516775)
(-0.0174466 0.361076 -0.0549662)
(-0.25549 0.681578 -0.0359165)
(-0.2578 0.543761 -0.0396402)
(-0.0487182 0.0958691 -0.0345997)
(-0.268324 0.55752 -0.0812295)
(-0.0476457 0.0934609 -0.0104437)
(1.30214 -0.229281 -0.0506313)
(-0.0199741 -0.0251897 -0.0236982)
(1.12054 -0.245825 -0.0181349)
(1.12274 -0.247487 -0.0154802)
(1.30118 -0.228124 0.0271196)
(1.26741 -0.198763 0.0298763)
(1.22355 0.0821485 -0.0385793)
(1.26879 -0.19821 -0.0516143)
(1.22088 0.0809256 0.0233577)
(1.306 -0.230163 0.0279306)
(-0.0271405 -0.0250816 -0.0323215)
(1.12704 -0.248262 -0.0143186)
(1.1251 -0.24795 -0.0167348)
(1.30753 -0.229605 -0.0504024)
(1.26361 -0.198039 -0.0517882)
(1.217 0.0810752 0.0236563)
(1.26281 -0.197112 0.0293216)
(1.21828 0.0812908 -0.03825)
(1.29629 -0.227367 0.0272166)
(1.11934 -0.245344 -0.0163333)
(-0.0298672 -0.0236253 -0.0418017)
(1.11672 -0.244642 -0.0188452)
(1.29836 -0.226993 -0.0501808)
(1.25313 -0.195576 -0.0512702)
(1.20682 0.0803282 0.0241998)
(1.20929 0.0810669 -0.0371101)
(1.25208 -0.195108 0.0288921)
(1.2581 -0.196557 0.0291294)
(1.21566 0.0820076 -0.0376376)
(1.25997 -0.196095 -0.0512662)
(1.21212 0.080485 0.0234413)
(1.29108 -0.22618 -0.0501843)
(-0.0204566 -0.0236481 -0.0312974)
(1.11066 -0.242368 -0.0204893)
(1.11303 -0.243932 -0.0176837)
(1.28995 -0.225511 0.0265938)
(-0.259719 0.683417 -0.110691)
(-0.0180993 0.359026 -0.0680774)
(-0.177211 0.19056 -0.0754071)
(-0.0173111 0.356867 -0.0732256)
(-0.24963 0.668672 -0.0581753)
(-0.249811 0.532404 -0.0632328)
(-0.0484912 0.0946959 -0.0435045)
(-0.262387 0.550384 -0.106719)
(-0.0472559 0.0913309 -0.0184425)
(-0.244826 0.659104 -0.0751712)
(-0.158017 0.175878 -0.00854074)
(-0.0189238 0.357087 -0.0847017)
(-0.0175067 0.35529 -0.0784141)
(-0.259877 0.680624 -0.126732)
(-0.263689 0.552297 -0.0923826)
(-0.0478524 0.0924514 -0.0136832)
(-0.255582 0.539799 -0.0487668)
(-0.0484413 0.0953606 -0.0378325)
(-0.108914 0.461703 0.0717149)
(-0.0850407 0.162114 -0.0386983)
(0.365423 -0.278665 -0.370355)
(0.230789 -0.0579201 -0.243634)
(0.0244619 0.173542 0.198937)
(-0.218607 0.492675 0.0092314)
(-0.0570829 0.100598 -0.0350891)
(-0.245361 0.530705 -0.0447687)
(-0.0810461 0.10315 -0.0250173)
(-0.14399 0.520209 -0.0330642)
(-0.158153 0.202162 -0.0678848)
(0.0438158 0.244555 -0.125476)
(0.103752 0.153401 -0.158115)
(-0.211791 0.608355 -0.0546794)
(-0.200808 0.481397 0.101219)
(-0.110203 0.100642 0.139823)
(-0.0821434 0.264481 0.166519)
(-0.0892872 0.122537 0.0230056)
(1.32331 -0.268553 -0.0521834)
(0.054866 -0.0890891 -0.0708099)
(1.21712 -0.326737 -0.108174)
(1.17346 -0.299749 -0.0445338)
(1.36788 -0.302853 -0.0656409)
(1.28979 -0.224236 0.0149941)
(1.21015 0.0807803 -0.0298013)
(1.25979 -0.210169 -0.0429385)
(1.22461 0.0779583 0.0186913)
(1.33216 -0.263323 0.0134844)
(0.0244769 -0.0738591 -0.0832985)
(1.13327 -0.266576 -0.0214604)
(1.15625 -0.28048 -0.0285182)
(1.30015 -0.245424 -0.0411814)
(1.27858 -0.227053 -0.0554761)
(1.22401 0.0717309 -0.00911189)
(1.31706 -0.252884 -0.0538017)
(1.21637 0.0800572 -0.03885)
(0.488232 -0.148869 -0.0465379)
(0.633781 0.00758157 0.184601)
(0.565895 -0.092332 -0.121013)
(0.51674 0.0912521 -0.230652)
(0.980629 0.157815 -0.105982)
(0.850265 0.179171 -0.032288)
(0.693607 -0.0809425 0.149372)
(0.818597 -0.0398349 -0.19686)
(0.673933 -0.0844809 -0.158278)
(1.53564 -0.324198 -0.256182)
(1.29174 -0.366849 -0.199351)
(0.185039 -0.18328 -0.0387723)
(1.32083 -0.362294 -0.31182)
(1.40717 -0.321199 -0.129761)
(1.57291 -0.210736 -0.244676)
(1.70168 -0.148725 0.107521)
(1.19903 -0.26861 0.156115)
(1.66559 -0.208488 0.0342002)
(1.58426 0.123357 -0.126242)
(1.49934 -0.267366 -0.232472)
(1.25992 0.0849845 -0.0629751)
(1.35096 -0.265365 -0.120869)
(1.33701 0.091309 -0.0621033)
(1.57485 -0.274756 -0.251517)
(0.186499 -0.0224382 -0.253223)
(1.55121 -0.320972 -0.0830993)
(1.30943 -0.371719 0.0650792)
(1.63935 -0.296252 -0.00038606)
(1.25703 -0.315643 -0.247548)
(-0.140868 0.506047 0.141546)
(0.285046 -0.23553 -0.420193)
(0.00553856 0.051623 0.22584)
(0.115718 0.113204 -0.200726)
(0.000563142 0.229425 0.291758)
(0.241606 0.0440666 -0.0814009)
(0.576924 0.0433564 -0.215193)
(1.16156 0.111946 -0.176908)
(1.31744 0.0740606 -0.240363)
(0.146538 0.0145187 -0.0553435)
(0.106082 0.258658 -0.192883)
(0.109593 0.288256 -0.0805598)
(1.15567 -0.253003 -0.214533)
(1.01561 -0.0718269 -0.258282)
(1.18053 -0.0734581 -0.293505)
(0.643163 0.169822 -0.300807)
(-0.0707475 0.416299 0.24959)
(-0.0938428 0.120435 0.188685)
(-0.120379 0.33474 0.288617)
(-0.0229752 0.045424 0.000109676)
(-0.265409 0.699143 -0.0742902)
(-0.173937 0.186241 -0.0636325)
(-0.0191893 0.366801 -0.0418918)
(-0.0178896 0.364509 -0.0436882)
(-0.259859 0.690884 -0.0230573)
(-0.263644 0.552003 -0.0257762)
(-0.0489488 0.0967894 -0.0300919)
(-0.272881 0.563341 -0.0664868)
(-0.0479047 0.0947413 -0.00634237)
(-0.255692 0.684087 -0.0297221)
(-0.162364 0.177289 0.0113881)
(-0.0195629 0.365988 -0.0481223)
(-0.266831 0.699057 -0.0800628)
(-0.017875 0.363426 -0.0455277)
(-0.272258 0.563588 -0.0614345)
(-0.0484704 0.0954136 -0.0051136)
(-0.268103 0.556997 -0.0203017)
(-0.0487719 0.0970452 -0.0281968)
(1.31411 -0.232358 0.028542)
(-0.0251924 -0.02616 -0.0265562)
(1.13333 -0.25042 -0.0132279)
(1.31524 -0.231703 -0.0507344)
(1.13186 -0.250344 -0.0153725)
(1.27184 -0.199924 -0.052006)
(1.22526 0.0816004 0.0235177)
(1.27137 -0.198938 0.030002)
(1.22585 0.0815365 -0.038973)
(1.31067 -0.231589 -0.0507633)
(-0.0196863 -0.0262453 -0.0190494)
(1.12803 -0.248487 -0.0163186)
(1.31003 -0.23042 0.0278514)
(1.12981 -0.249895 -0.0138175)
(1.27528 -0.200545 0.0304797)
(1.23063 0.0823733 -0.0394828)
(1.22855 0.0813759 0.0232275)
(1.27629 -0.199939 -0.0520106)
(1.31748 -0.232459 0.0279944)
(1.23249 0.0820414 0.0231053)
(1.27863 -0.200571 0.0301651)
(-0.269243 0.705062 -0.0706468)
(-0.0491072 0.0974042 -0.0281819)
(-0.276261 0.567733 -0.0587157)
(-0.255627 0.66678 -0.165219)
(-0.179161 0.198386 -0.0864138)
(-0.0115659 0.336051 -0.111116)
(-0.00584316 0.325301 -0.111711)
(-0.238194 0.638935 -0.128956)
(-0.246818 0.523106 -0.115519)
(-0.060194 0.0995705 -0.0553789)
(-0.269779 0.553006 -0.104938)
(-0.0513873 0.0907873 -0.0502947)
(-0.235673 0.632991 -0.12377)
(-0.149693 0.176261 -0.0255835)
(0.0169963 0.287641 -0.11461)
(-0.243216 0.647395 -0.118078)
(0.00291366 0.308269 -0.111873)
(-0.262843 0.550642 -0.151347)
(-0.0482395 0.0887991 -0.0414993)
(-0.240523 0.519048 -0.113807)
(-0.0523623 0.0960892 -0.068434)
(1.28763 -0.230303 0.0295699)
(-0.0254009 -0.0298704 -0.0695871)
(1.10775 -0.243916 -0.0189073)
(1.2831 -0.226415 -0.0454505)
(1.10888 -0.245203 -0.020259)
(1.24096 -0.198658 -0.0440935)
(1.19861 0.0767813 0.0279938)
(1.25073 -0.206838 0.0300599)
(1.19943 0.0803632 -0.0307299)
(1.27812 -0.230138 -0.0421835)
(-0.00948939 -0.0308524 -0.0526943)
(1.11068 -0.253932 -0.021639)
(1.28893 -0.240067 0.027437)
(1.10393 -0.248036 -0.0176097)
(1.24981 -0.199035 0.0310023)
(1.20327 0.0816156 -0.0322361)
(1.20213 0.0793953 0.0266494)
(1.24533 -0.195599 -0.04646)
(1.28109 -0.224659 -0.0479951)
(-0.0191484 -0.0234901 -0.0412928)
(1.10379 -0.24171 -0.0213429)
(1.10427 -0.24186 -0.0189358)
(1.2825 -0.226434 0.0278955)
(1.24928 -0.195211 0.0292961)
(1.20712 0.0818249 -0.0359929)
(1.24996 -0.194074 -0.0502199)
(1.20374 0.0799763 0.0244313)
(1.28698 -0.225574 0.0274281)
(-0.0318891 -0.0230948 -0.0549295)
(1.1104 -0.242343 -0.0186344)
(1.28782 -0.224471 -0.0492874)
(1.10816 -0.241779 -0.0207444)
(1.24378 -0.194408 -0.0491434)
(1.199 0.0792688 0.0262601)
(1.20181 0.0808244 -0.0347607)
(1.24495 -0.19601 0.030248)
(-0.239136 0.643605 -0.114309)
(-0.1553 0.175802 -0.0219693)
(-0.0157939 0.345876 -0.107383)
(-0.0162849 0.347089 -0.102315)
(-0.257395 0.671509 -0.161704)
(-0.258393 0.546093 -0.124287)
(-0.0475337 0.0901578 -0.0244622)
(-0.246446 0.52699 -0.078398)
(-0.0485426 0.0943685 -0.0499938)
(-0.256598 0.673259 -0.145588)
(-0.179622 0.194354 -0.0850959)
(-0.0176188 0.352937 -0.091567)
(-0.242881 0.652463 -0.0929348)
(-0.0167616 0.350222 -0.0973114)
(-0.241727 0.520593 -0.0982582)
(-0.0494377 0.0943425 -0.0582223)