/*--------------------------------*- C++ -*----------------------------------*\
| =========                 |                                                 |
| \\      /  F ield         | OpenFOAM: The Open Source CFD Toolbox           |
|  \\    /   O peration     | Version:  2012                                  |
|   \\  /    A nd           | Website:  www.openfoam.com                      |
|    \\/     M anipulation  |                                                 |
\*---------------------------------------------------------------------------*/
FoamFile
{
    version     2.0;
    format      ascii;
    class       volScalarField::Internal;
    location    "0.108/fluid";
    object      V0;
}
// * * * * * * * * * * * * * * * * * * * * * * * * * * * * * * * * * * * * * //

dimensions      [0 3 0 0 0 0 0];


value           nonuniform List<scalar> 
16422
(
4.24159e-05
4.25115e-05
4.25105e-05
4.25009e-05
4.24967e-05
4.24981e-05
4.25024e-05
4.25072e-05
4.25116e-05
4.25141e-05
4.25154e-05
4.25168e-05
4.25175e-05
4.25167e-05
4.26562e-05
4.25922e-05
4.25352e-05
4.25092e-05
4.24992e-05
4.24967e-05
4.24988e-05
4.25025e-05
4.25078e-05
4.25115e-05
4.25131e-05
4.25144e-05
4.25144e-05
4.25147e-05
4.25139e-05
4.27173e-05
4.26154e-05
4.2515e-05
4.24931e-05
4.24875e-05
4.24911e-05
4.24952e-05
4.2501e-05
4.2508e-05
4.25116e-05
4.25121e-05
4.25132e-05
4.25131e-05
4.2512e-05
4.25109e-05
5.34472e-06
4.23868e-05
4.24455e-05
4.24735e-05
4.24844e-05
4.24923e-05
4.24975e-05
4.25011e-05
4.25088e-05
4.25107e-05
4.25116e-05
4.25133e-05
4.25117e-05
4.25108e-05
4.25104e-05
4.24115e-05
4.24968e-05
4.25053e-05
4.25014e-05
4.24993e-05
4.25009e-05
4.25049e-05
4.25091e-05
4.25124e-05
4.25151e-05
4.25164e-05
4.25168e-05
4.25162e-05
4.25167e-05
4.25991e-05
4.25445e-05
4.25174e-05
4.25047e-05
4.24996e-05
4.24985e-05
4.25013e-05
4.25053e-05
4.2509e-05
4.25113e-05
4.25138e-05
4.25151e-05
4.25145e-05
4.25141e-05
4.25146e-05
4.259e-05
4.25504e-05
4.25032e-05
4.24908e-05
4.24916e-05
4.2496e-05
4.24997e-05
4.25046e-05
4.25096e-05
4.25119e-05
4.25128e-05
4.25126e-05
4.25128e-05
4.25124e-05
4.25123e-05
4.25745e-05
4.24498e-05
4.24641e-05
4.24799e-05
4.24898e-05
4.24955e-05
4.25017e-05
4.25062e-05
4.25111e-05
4.25111e-05
4.2513e-05
4.25131e-05
4.25124e-05
4.25111e-05
4.25104e-05
4.28232e-05
4.24815e-05
4.2502e-05
4.25052e-05
4.25021e-05
4.25011e-05
4.25032e-05
4.2507e-05
4.25101e-05
4.25137e-05
4.25152e-05
4.25171e-05
4.25172e-05
4.25176e-05
4.25171e-05
4.25295e-05
4.25172e-05
4.25107e-05
4.25049e-05
4.25006e-05
4.25002e-05
4.25032e-05
4.25072e-05
4.25097e-05
4.25133e-05
4.25151e-05
4.25158e-05
4.25145e-05
4.25154e-05
4.25146e-05
4.25266e-05
4.25197e-05
4.25021e-05
4.2495e-05
4.2497e-05
4.25006e-05
4.2503e-05
4.25074e-05
4.25098e-05
4.25125e-05
4.25144e-05
4.25133e-05
4.25125e-05
4.25141e-05
4.25129e-05
4.25115e-05
4.24989e-05
4.24895e-05
4.2493e-05
4.24975e-05
4.25004e-05
4.25051e-05
4.25094e-05
4.25121e-05
4.25139e-05
4.25137e-05
4.25124e-05
4.25117e-05
4.25134e-05
4.25115e-05
4.25725e-05
4.25363e-05
4.25165e-05
4.25082e-05
4.25035e-05
4.25026e-05
4.25049e-05
4.25085e-05
4.25111e-05
4.25133e-05
4.25155e-05
4.25178e-05
4.25174e-05
4.25182e-05
4.25172e-05
4.25396e-05
4.25284e-05
4.25148e-05
4.25079e-05
4.2503e-05
4.2502e-05
4.25039e-05
4.25076e-05
4.2511e-05
4.2514e-05
4.2516e-05
4.2517e-05
4.25149e-05
4.25154e-05
4.25145e-05
4.25176e-05
4.25131e-05
4.25048e-05
4.25018e-05
4.2502e-05
4.2503e-05
4.25047e-05
4.2508e-05
4.25106e-05
4.25134e-05
4.25159e-05
4.25156e-05
4.25129e-05
4.25131e-05
4.25137e-05
4.24994e-05
4.25005e-05
4.24977e-05
4.24991e-05
4.25024e-05
4.25039e-05
4.25063e-05
4.25095e-05
4.25112e-05
4.25137e-05
4.25145e-05
4.2515e-05
4.25124e-05
4.25119e-05
4.25124e-05
4.23476e-05
4.26836e-05
4.25954e-05
5.33772e-06
4.24731e-05
4.23475e-05
4.26829e-05
4.25903e-05
4.23724e-05
4.26958e-05
4.25681e-05
4.24774e-05
4.25303e-05
4.24274e-05
4.23767e-05
4.26641e-05
4.2544e-05
4.32156e-05
4.24187e-05
4.25006e-05
4.2497e-05
4.27332e-05
4.26763e-05
4.28297e-05
4.26496e-05
4.23847e-05
4.24282e-05
5.31845e-06
6.4702e-07
6.68605e-07
5.31805e-06
6.68645e-07
6.47019e-07
4.26598e-05
4.2881e-05
4.26393e-05
4.26208e-05
4.25891e-05
4.25785e-05
4.25207e-05
5.39528e-06
5.35901e-06
5.39929e-06
4.24287e-05
4.24171e-05
4.2448e-05
5.27759e-06
6.47966e-07
6.69583e-07
6.7102e-07
5.32866e-06
6.54337e-07
6.43034e-07
4.24697e-05
4.25184e-05
4.25036e-05
6.47e-07
6.68598e-07
5.31779e-06
5.39116e-06
4.32235e-05
4.19184e-05
5.31917e-06
6.47594e-07
6.69213e-07
6.68666e-07
5.32411e-06
6.47034e-07
4.32401e-05
4.19367e-05
4.2447e-05
4.31271e-05
4.19846e-05
5.32844e-06
4.27585e-05
4.2769e-05
4.30605e-05
4.29663e-05
4.23951e-05
4.25607e-05
4.22747e-05
4.27331e-05
4.20424e-05
4.23963e-05
4.2418e-05
4.25085e-05
4.25755e-05
4.25423e-05
4.26614e-05
4.26211e-05
4.2739e-05
4.268e-05
4.25039e-05
4.25694e-05
4.25371e-05
4.24178e-05
4.24912e-05
4.25448e-05
4.25205e-05
4.26132e-05
4.27213e-05
4.26642e-05
4.26305e-05
4.25794e-05
4.26327e-05
4.25993e-05
4.24873e-05
4.25278e-05
4.2515e-05
4.24397e-05
4.24913e-05
4.25009e-05
4.25076e-05
4.2558e-05
4.25997e-05
4.25767e-05
4.25193e-05
4.25155e-05
4.2538e-05
4.25329e-05
4.24898e-05
4.25326e-05
4.2511e-05
4.25906e-05
4.25442e-05
4.25493e-05
4.25342e-05
5.24386e-06
4.24734e-05
4.2604e-05
5.33153e-06
4.26255e-05
4.24454e-05
4.2609e-05
5.24395e-06
4.24726e-05
4.23507e-05
4.26046e-05
4.24747e-05
5.24441e-06
4.24509e-05
5.33162e-06
4.26236e-05
4.26857e-05
4.2446e-05
5.33244e-06
4.26242e-05
4.2621e-05
4.23588e-05
5.25169e-06
4.24853e-05
4.248e-05
4.26459e-05
5.24497e-06
4.24636e-05
4.26921e-05
5.34125e-06
4.26256e-05
5.33321e-06
4.2627e-05
4.24894e-05
4.24418e-05
5.26018e-06
4.247e-05
4.23003e-05
4.26584e-05
4.2401e-05
5.20471e-06
4.23562e-05
5.34824e-06
4.2596e-05
4.25584e-05
4.25033e-05
5.27456e-06
4.25185e-05
5.26795e-06
5.50288e-06
4.27506e-05
4.27021e-05
5.21285e-06
4.25221e-05
5.229e-06
5.14895e-08
6.69186e-07
6.4702e-07
5.14895e-08
6.69179e-07
5.4241e-08
6.56663e-07
6.6861e-07
5.4241e-08
6.56665e-07
5.4241e-08
6.56707e-07
6.68621e-07
6.56679e-07
5.42411e-08
5.14895e-08
6.6922e-07
6.47006e-07
6.69199e-07
5.14897e-08
6.75776e-07
5.67184e-06
5.62046e-06
6.79927e-07
6.68254e-07
6.73181e-07
6.64842e-07
6.76497e-07
6.73082e-07
5.57632e-06
6.69736e-07
5.58813e-06
6.7097e-07
6.873e-07
6.79423e-07
6.75114e-07
5.1497e-08
6.70274e-07
6.54463e-07
5.14934e-08
6.72436e-07
5.42508e-08
6.57721e-07
6.72257e-07
5.42457e-08
6.59071e-07
7.10814e-07
7.02226e-07
6.97383e-07
5.42153e-08
6.52566e-07
6.73602e-07
7.13082e-07
6.59277e-07
6.12438e-07
5.14801e-08
6.56139e-07
6.61996e-07
7.30151e-07
6.72805e-07
6.19415e-07
5.14895e-08
6.69171e-07
6.47003e-07
5.14895e-08
6.6919e-07
5.4241e-08
6.68605e-07
6.56651e-07
5.4241e-08
6.56664e-07
5.42398e-08
6.56648e-07
5.14883e-08
6.69168e-07
6.69102e-07
6.64173e-07
6.7307e-07
6.647e-07
6.72629e-07
6.64184e-07
6.72644e-07
6.69091e-07
5.57136e-06
6.69595e-07
5.56922e-06
5.30285e-06
5.51485e-06
5.51325e-06
5.30424e-06
5.14902e-08
6.69899e-07
6.47153e-07
5.14922e-08
6.69412e-07
5.42418e-08
6.68826e-07
6.57372e-07
5.42448e-08
6.56942e-07
5.42417e-08
6.56739e-07
6.6875e-07
5.42412e-08
6.56843e-07
5.14901e-08
6.69243e-07
6.4711e-07
5.14897e-08
6.69335e-07
5.3096e-06
5.4467e-06
5.51095e-06
5.29837e-06
5.30844e-06
5.51748e-06
5.52038e-06
5.30501e-06
5.3924e-06
5.50162e-06
5.38039e-06
5.40506e-06
5.30073e-06
6.62494e-07
6.63811e-07
5.27778e-06
5.27988e-06
5.35454e-06
5.2817e-06
5.33244e-06
4.22847e-05
4.22924e-05
4.24518e-05
4.24425e-05
4.23771e-05
4.24462e-05
4.20834e-05
4.2282e-05
4.24688e-05
4.24927e-05
4.24945e-05
4.22034e-05
4.24655e-05
4.2462e-05
6.72519e-07
5.31831e-06
5.27126e-06
5.32679e-06
5.32658e-06
5.271e-06
6.72528e-07
6.72522e-07
5.31795e-06
5.32638e-06
5.27074e-06
6.72519e-07
5.32643e-06
5.27082e-06
6.78988e-07
5.31561e-06
5.23859e-06
5.26601e-06
5.34254e-06
5.29194e-06
6.22853e-07
6.76742e-07
6.73988e-07
6.81679e-07
6.75508e-07
5.3292e-06
5.34025e-06
5.28462e-06
6.73e-07
5.35105e-06
5.29494e-06
6.72518e-07
5.31808e-06
5.32634e-06
5.27069e-06
6.72516e-07
5.32639e-06
5.27073e-06
6.72571e-07
5.27175e-06
5.31991e-06
5.32726e-06
6.72532e-07
5.32805e-06
5.2726e-06
6.72596e-07
5.32176e-06
5.33313e-06
5.27773e-06
6.72805e-07
5.32975e-06
5.27434e-06
5.57324e-06
5.57251e-06
5.53939e-06
5.40921e-06
5.45525e-06
5.43983e-06
5.45052e-06
5.20387e-06
5.3206e-06
5.23844e-06
5.31883e-06
5.29552e-06
5.34739e-06
5.28552e-06
5.22334e-06
5.47008e-06
5.2912e-06
5.34017e-06
5.30835e-06
5.29255e-06
5.39311e-06
1.00904e-07
5.14895e-08
7.05148e-07
7.05141e-07
1.00907e-07
8.43823e-08
7.12558e-08
8.43885e-08
7.12936e-08
1.00903e-07
5.14895e-08
7.05145e-07
7.0514e-07
1.00906e-07
8.43824e-08
7.12662e-08
8.43884e-08
7.12872e-08
7.92731e-08
5.4241e-08
6.53945e-07
6.53939e-07
7.92738e-08
7.73539e-08
7.45398e-08
7.73544e-08
7.45398e-08
7.92727e-08
5.4241e-08
6.53943e-07
6.53935e-07
7.92735e-08
7.73539e-08
7.454e-08
7.73546e-08
7.45399e-08
7.92733e-08
6.53946e-07
5.42406e-08
6.53947e-07
7.92738e-08
7.73544e-08
7.45403e-08
7.45393e-08
7.73551e-08
7.73539e-08
7.454e-08
7.73547e-08
7.45392e-08
7.92743e-08
5.42402e-08
6.53962e-07
6.5395e-07
7.9274e-08
1.00909e-07
7.05154e-07
5.14895e-08
7.05154e-07
1.00908e-07
8.43935e-08
7.12402e-08
8.43926e-08
7.12306e-08
1.00908e-07
5.14884e-08
7.05161e-07
7.05157e-07
1.00909e-07
8.43947e-08
7.12497e-08
8.43926e-08
7.12432e-08
1.00965e-07
5.15003e-08
7.08654e-07
7.06921e-07
1.01296e-07
8.44268e-08
7.12669e-08
8.44007e-08
7.12596e-08
1.00957e-07
5.14978e-08
7.05688e-07
7.06093e-07
1.00923e-07
8.44303e-08
7.17244e-08
8.48259e-08
7.12951e-08
7.93618e-08
5.42545e-08
6.57456e-07
6.55854e-07
7.94726e-08
7.7408e-08
7.45498e-08
7.73814e-08
7.45607e-08
7.93369e-08
5.42511e-08
6.54583e-07
6.55021e-07
7.93052e-08
7.74288e-08
7.46908e-08
7.75369e-08
7.45707e-08
6.87977e-07
7.22364e-07
6.97054e-07
6.82038e-07
7.19852e-07
6.94751e-07
7.27701e-07
7.33797e-07
7.14478e-07
8.04121e-08
6.60797e-07
5.4137e-08
6.65e-07
7.95848e-08
7.80512e-08
6.06854e-07
7.12276e-07
5.9696e-07
8.12416e-08
7.86413e-08
7.48153e-08
7.766e-08
7.61825e-08
7.99241e-08
5.43042e-08
6.27705e-07
6.59886e-07
6.11016e-07
6.45346e-07
1.02468e-07
7.12489e-07
5.23793e-08
7.17033e-07
1.01544e-07
7.99826e-08
6.88466e-07
7.40006e-07
6.45784e-07
3.50004e-08
1.03238e-07
5.35595e-08
6.33426e-07
6.92295e-07
6.13685e-07
7.01806e-07
8.43082e-08
7.2269e-08
8.51726e-08
1.10195e-07
1.00911e-07
5.14895e-08
7.05147e-07
7.05146e-07
1.00906e-07
8.43988e-08
7.12898e-08
8.43865e-08
7.12136e-08
1.00911e-07
5.14895e-08
7.05146e-07
1.00906e-07
7.05148e-07
8.43998e-08
7.13007e-08
8.43862e-08
7.12089e-08
7.92724e-08
5.4241e-08
6.53941e-07
7.92734e-08
6.53936e-07
7.73542e-08
7.45398e-08
7.73544e-08
7.45398e-08
7.92734e-08
5.4241e-08
6.5394e-07
7.92734e-08
6.53936e-07
7.73537e-08
7.45398e-08
7.45398e-08
7.73543e-08
7.92734e-08
7.45386e-08
7.73539e-08
1.00906e-07
7.12726e-08
8.43875e-08
1.00912e-07
5.14907e-08
7.05233e-07
7.05273e-07
1.0091e-07
8.43902e-08
7.12401e-08
8.44024e-08
7.12846e-08
1.00912e-07
5.1491e-08
7.05468e-07
1.00923e-07
7.05344e-07
8.43924e-08
7.12425e-08
8.43931e-08
7.12546e-08
7.92827e-08
5.42425e-08
6.54054e-07
7.92796e-08
6.54107e-07
7.73655e-08
7.45475e-08
7.73742e-08
7.45444e-08
7.92865e-08
5.42428e-08
6.54337e-07
7.92971e-08
6.54192e-07
7.73623e-08
7.45419e-08
7.45431e-08
7.73594e-08
7.9277e-08
5.42413e-08
6.54023e-07
6.53992e-07
7.92775e-08
7.73556e-08
7.45403e-08
7.73557e-08
7.45399e-08
7.92757e-08
5.42405e-08
6.53968e-07
7.92751e-08
6.53977e-07
7.73573e-08
7.45412e-08
7.45408e-08
7.73578e-08
1.00908e-07
5.14897e-08
7.05203e-07
7.05188e-07
1.00909e-07
8.43893e-08
7.12658e-08
8.43912e-08
7.1265e-08
1.00907e-07
5.14885e-08
7.05168e-07
1.00908e-07
7.05173e-07
8.43907e-08
7.12697e-08
8.43912e-08
7.12691e-08
5.35658e-06
5.35603e-06
5.36163e-06
5.35611e-06
5.36619e-06
5.33889e-06
5.38049e-06
4.25678e-05
4.25631e-05
4.25138e-05
4.25351e-05
4.25297e-05
4.25198e-05
4.25093e-05
5.32522e-06
5.33284e-06
5.34958e-06
5.35235e-06
5.34508e-06
5.32994e-06
5.34755e-06
4.30113e-05
4.27761e-05
4.2846e-05
6.70245e-07
6.37916e-07
6.60532e-07
6.47022e-07
6.60528e-07
6.70263e-07
6.37942e-07
6.51744e-07
6.79837e-07
6.61245e-07
6.68591e-07
6.61231e-07
6.51748e-07
6.79833e-07
6.51769e-07
6.61286e-07
6.68625e-07
6.79866e-07
6.61263e-07
6.79855e-07
6.51779e-07
6.70301e-07
6.60561e-07
6.47014e-07
6.37897e-07
6.6056e-07
6.70298e-07
6.37879e-07
4.30394e-05
4.28628e-05
4.30145e-05
4.28042e-05
4.27814e-05
4.28412e-05
4.27519e-05
4.26521e-05
4.26751e-05
4.28314e-05
4.272e-05
4.26039e-05
4.26686e-05
4.26405e-05
5.38434e-06
5.36766e-06
5.36944e-06
5.40804e-06
5.37675e-06
5.41153e-06
5.38215e-06
6.71524e-07
6.38446e-07
6.61532e-07
6.48874e-07
6.62365e-07
6.7094e-07
6.3899e-07
6.53217e-07
6.80619e-07
6.62245e-07
6.70045e-07
6.6269e-07
6.52634e-07
6.81163e-07
6.4551e-07
6.52235e-07
6.61942e-07
6.40216e-07
6.57871e-07
6.35664e-07
6.58974e-07
6.19347e-07
6.4606e-07
6.32844e-07
6.35381e-07
6.46141e-07
6.32866e-07
5.65997e-07
6.70301e-07
6.3791e-07
6.60526e-07
6.46992e-07
6.60543e-07
6.70262e-07
6.37844e-07
6.51742e-07
6.79835e-07
6.68594e-07
6.61235e-07
6.61235e-07
6.51745e-07
6.7983e-07
6.70491e-07
6.38212e-07
6.61153e-07
6.47352e-07
6.609e-07
6.70663e-07
6.3811e-07
6.52109e-07
6.80319e-07
6.69039e-07
6.61878e-07
6.61696e-07
6.52297e-07
6.80151e-07
6.51807e-07
6.61307e-07
6.79872e-07
6.6867e-07
6.61312e-07
6.51789e-07
6.79888e-07
6.70305e-07
6.60575e-07
6.37903e-07
6.47054e-07
6.60588e-07
6.70306e-07
6.37914e-07
5.31597e-06
5.31044e-06
5.34387e-06
5.30107e-06
5.32291e-06
5.31195e-06
5.29192e-06
5.33475e-06
5.24387e-06
5.33481e-06
5.30568e-06
5.26963e-06
5.30534e-06
5.26986e-06
5.33154e-06
5.27968e-06
5.27972e-06
5.31399e-06
5.31693e-06
5.31709e-06
5.31368e-06
5.33482e-06
5.24401e-06
5.33486e-06
5.30548e-06
5.26986e-06
5.30565e-06
5.26977e-06
5.33537e-06
5.24415e-06
5.33509e-06
5.30592e-06
5.27024e-06
5.30599e-06
5.2701e-06
5.27978e-06
5.33174e-06
5.27988e-06
5.31382e-06
5.3171e-06
5.31392e-06
5.3171e-06
5.28058e-06
5.33202e-06
5.28016e-06
5.31419e-06
5.31765e-06
5.31739e-06
5.31436e-06
5.34227e-06
5.24787e-06
5.33883e-06
5.30932e-06
5.27626e-06
5.31089e-06
5.27373e-06
5.33596e-06
5.24592e-06
5.33689e-06
5.30739e-06
5.27098e-06
5.30681e-06
5.27174e-06
5.33699e-06
5.28885e-06
5.28497e-06
5.31698e-06
5.32209e-06
5.32049e-06
5.318e-06
5.28135e-06
5.33455e-06
5.28263e-06
5.31566e-06
5.31826e-06
5.31904e-06
5.31501e-06
5.34869e-06
5.27782e-06
5.35559e-06
5.31324e-06
5.28167e-06
5.31457e-06
5.28609e-06
5.27239e-06
5.28878e-06
5.33894e-06
5.30591e-06
5.2606e-06
5.28302e-06
5.28616e-06
5.29477e-06
5.35487e-06
5.29908e-06
5.31618e-06
5.32402e-06
5.31913e-06
5.32248e-06
5.24993e-06
5.33871e-06
5.28641e-06
5.30805e-06
5.30159e-06
5.31356e-06
5.29989e-06
5.24e-06
5.24696e-06
5.20186e-06
5.29259e-06
5.2907e-06
5.28681e-06
5.28693e-06
5.42907e-08
5.14894e-08
9.12175e-08
9.12166e-08
5.42909e-08
6.77755e-07
6.68243e-07
6.72909e-07
6.69156e-07
6.68231e-07
6.72903e-07
6.77762e-07
6.70236e-07
6.47038e-07
6.60528e-07
6.37933e-07
6.60533e-07
6.70254e-07
6.37959e-07
5.42907e-08
5.14894e-08
9.12173e-08
9.12165e-08
5.42908e-08
6.77759e-07
6.72913e-07
6.69174e-07
6.68238e-07
6.68241e-07
6.72911e-07
6.77765e-07
7.0999e-08
5.42408e-08
1.01113e-07
1.01113e-07
7.09993e-08
6.51748e-07
6.68602e-07
6.79843e-07
6.61247e-07
6.61239e-07
6.51753e-07
6.79834e-07
7.0999e-08
5.42408e-08
1.01113e-07
1.01112e-07
7.09992e-08
7.09991e-08
1.01113e-07
5.42408e-08
1.01112e-07
7.09994e-08
6.51759e-07
6.68612e-07
6.79845e-07
6.6126e-07
6.6125e-07
6.51756e-07
6.79845e-07
7.09993e-08
5.42409e-08
1.01114e-07
1.01113e-07
7.09995e-08
5.42909e-08
9.12176e-08
5.14894e-08
9.12163e-08
5.4291e-08
6.77791e-07
6.6827e-07
6.69204e-07
6.72939e-07
6.68268e-07
6.72934e-07
6.77792e-07
6.70308e-07
6.46996e-07
6.6055e-07
6.37871e-07
6.60551e-07
6.70299e-07
6.37852e-07
6.77786e-07
6.72925e-07
6.69182e-07
6.68259e-07
6.68253e-07
6.72925e-07
6.77783e-07
5.42908e-08
5.14895e-08
9.12181e-08
9.12171e-08
5.42909e-08
6.38899e-07
6.66268e-07
6.60963e-07
6.70398e-07
6.58997e-07
6.68783e-07
6.40402e-07
6.52958e-07
6.90281e-07
6.65142e-07
6.73846e-07
6.65835e-07
6.52606e-07
6.90605e-07
6.38222e-07
6.65552e-07
6.5763e-07
6.67633e-07
6.58323e-07
6.68046e-07
6.37833e-07
6.53581e-07
6.68523e-07
6.74486e-07
6.92504e-07
6.66499e-07
6.55009e-07
6.91172e-07
6.50811e-07
6.63672e-07
6.73851e-07
6.7555e-07
6.81289e-07
6.43644e-07
6.6853e-07
6.80693e-07
7.31083e-07
6.91587e-07
6.79702e-07
6.82522e-07
7.21632e-07
6.87474e-07
6.66049e-07
6.71365e-07
6.95694e-07
6.85344e-07
6.58201e-07
6.76843e-07
7.04258e-07
6.61573e-07
6.79366e-07
6.86676e-07
6.6955e-07
6.91764e-07
6.72844e-07
6.58813e-07
5.43077e-08
5.15006e-08
9.1379e-08
9.13279e-08
5.43041e-08
6.79228e-07
6.69241e-07
6.73766e-07
6.7081e-07
6.69956e-07
6.74351e-07
6.78584e-07
6.72866e-07
6.50665e-07
6.66712e-07
6.44665e-07
6.63881e-07
6.76696e-07
6.40426e-07
5.42955e-08
5.14939e-08
9.12388e-08
9.12445e-08
5.42949e-08
6.80535e-07
6.77224e-07
6.71691e-07
6.72869e-07
6.71127e-07
6.75429e-07
6.83303e-07
7.10256e-08
5.4258e-08
1.01286e-07
1.01248e-07
7.10116e-08
6.54352e-07
6.71013e-07
6.84708e-07
6.6466e-07
6.63583e-07
6.56568e-07
6.82291e-07
7.10078e-08
5.4246e-08
1.01139e-07
1.01145e-07
7.10065e-08
7.10036e-08
1.01341e-07
5.42238e-08
1.01565e-07
7.09779e-08
6.63444e-07
6.70599e-07
6.8943e-07
6.65897e-07
6.64052e-07
6.60728e-07
6.90836e-07
5.43181e-08
9.14155e-08
5.15455e-08
9.16755e-08
5.42808e-08
6.58489e-07
6.52601e-07
6.61927e-07
6.51446e-07
6.58718e-07
6.44609e-07
6.62738e-07
6.87111e-07
6.67962e-07
6.70674e-07
6.58735e-07
6.67099e-07
6.86048e-07
7.02016e-07
6.85629e-07
6.79353e-07
6.68724e-07
6.7441e-07
6.7008e-07
6.76995e-07
6.87798e-07
5.42907e-08
5.14893e-08
9.12173e-08
9.12164e-08
5.42908e-08
6.77775e-07
6.68234e-07
6.72913e-07
6.69169e-07
6.68246e-07
6.77767e-07
6.72913e-07
6.70313e-07
6.46974e-07
6.60538e-07
6.37902e-07
6.60534e-07
6.70269e-07
6.37829e-07
5.42895e-08
5.14882e-08
9.12173e-08
9.12149e-08
5.42908e-08
6.7778e-07
6.72913e-07
6.69163e-07
6.68249e-07
6.6824e-07
6.72912e-07
6.77771e-07
7.0999e-08
5.42408e-08
1.01113e-07
1.01112e-07
7.09991e-08
6.51741e-07
6.68581e-07
6.79834e-07
6.61246e-07
6.61221e-07
6.79829e-07
6.51745e-07
7.09979e-08
5.42396e-08
1.01113e-07
1.01111e-07
7.09992e-08
1.01112e-07
7.0998e-08
6.61237e-07
9.12157e-08
5.42896e-08
6.72913e-07
6.68234e-07
6.37429e-07
6.64315e-07
6.5701e-07
6.67129e-07
6.57153e-07
6.3737e-07
6.6719e-07
6.52304e-07
6.90141e-07
6.65012e-07
6.72791e-07
6.64703e-07
6.52438e-07
6.9003e-07
6.37511e-07
6.64368e-07
6.575e-07
6.67445e-07
6.57195e-07
6.37652e-07
6.67284e-07
6.52238e-07
6.64524e-07
6.72765e-07
6.89932e-07
6.64669e-07
6.89976e-07
6.52191e-07
6.5702e-07
6.67108e-07
6.37347e-07
6.64532e-07
6.89915e-07
6.52167e-07
5.42911e-08
5.14898e-08
9.12208e-08
9.12199e-08
5.42915e-08
6.78061e-07
6.68877e-07
6.73434e-07
6.69638e-07
6.68626e-07
6.78256e-07
6.73235e-07
6.70418e-07
6.47247e-07
6.60694e-07
6.37978e-07
6.60785e-07
6.70374e-07
6.38033e-07
5.42931e-08
5.14917e-08
9.12334e-08
9.1229e-08
5.42937e-08
6.77959e-07
6.73057e-07
6.6949e-07
6.68417e-07
6.68502e-07
6.73125e-07
6.77898e-07
7.10003e-08
5.42415e-08
1.01117e-07
1.01117e-07
7.10001e-08
6.51987e-07
6.6888e-07
6.79984e-07
6.61477e-07
6.61531e-07
6.80044e-07
6.51918e-07
7.10033e-08
5.42433e-08
1.01134e-07
1.01128e-07
7.10054e-08
7.1e-08
5.42414e-08
1.01117e-07
1.01116e-07
7.10004e-08
6.51833e-07
6.6871e-07
6.79938e-07
6.61395e-07
6.61352e-07
6.7991e-07
6.51863e-07
7.09994e-08
5.42411e-08
1.01115e-07
1.01113e-07
7.09995e-08
5.42911e-08
5.14898e-08
9.122e-08
9.12189e-08
5.42914e-08
6.77807e-07
6.68285e-07
6.72951e-07
6.69244e-07
6.68297e-07
6.77801e-07
6.7296e-07
6.7032e-07
6.47078e-07
6.6065e-07
6.37955e-07
6.60613e-07
6.70343e-07
6.37937e-07
5.42909e-08
5.14896e-08
9.12181e-08
9.12169e-08
5.4291e-08
6.77829e-07
6.73008e-07
6.69281e-07
6.6836e-07
6.68324e-07
6.72983e-07
6.77853e-07
6.45428e-07
6.47657e-07
6.60864e-07
6.56753e-07
6.34021e-07
6.49804e-07
6.56837e-07
6.44918e-07
6.60245e-07
6.49289e-07
6.58202e-07
6.28869e-07
6.55071e-07
6.56209e-07
6.59859e-07
6.6227e-07
6.72518e-07
6.62268e-07
6.59849e-07
6.62889e-07
6.62936e-07
6.72521e-07
6.62289e-07
6.59868e-07
6.62275e-07
6.59858e-07
6.62911e-07
6.62949e-07
6.72513e-07
6.59861e-07
6.62269e-07
6.59849e-07
6.62257e-07
6.62889e-07
6.62924e-07
6.72514e-07
6.59856e-07
6.62264e-07
6.59844e-07
6.62251e-07
6.62877e-07
6.62923e-07
6.66508e-07
6.68797e-07
6.85088e-07
6.69645e-07
6.67066e-07
6.64807e-07
6.67087e-07
6.75128e-07
6.44241e-07
6.43423e-07
6.57483e-07
6.54236e-07
6.58653e-07
6.51884e-07
7.28085e-08
7.34499e-08
7.30182e-08
7.30681e-08
7.30924e-08
7.41709e-08
7.30693e-08
7.41735e-08
7.27236e-08
7.27601e-08
7.26802e-08
7.2845e-08
7.31296e-08
7.43038e-08
7.32977e-08
7.41869e-08
6.74057e-07
6.63658e-07
6.66033e-07
6.61953e-07
6.64369e-07
6.65076e-07
6.66061e-07
6.73354e-07
6.60563e-07
6.62996e-07
6.61038e-07
6.63469e-07
6.64304e-07
6.63872e-07
6.59851e-07
6.6226e-07
6.62908e-07
6.72513e-07
6.59858e-07
6.62264e-07
6.59845e-07
6.62251e-07
6.62874e-07
6.62928e-07
6.72514e-07
6.59856e-07
6.62263e-07
6.59848e-07
6.62253e-07
6.62883e-07
6.62916e-07
6.72549e-07
6.59935e-07
6.62359e-07
6.62321e-07
6.599e-07
6.62981e-07
6.63061e-07
6.72538e-07
6.62296e-07
6.59876e-07
6.62305e-07
6.59884e-07
6.62948e-07
6.62972e-07
6.72634e-07
6.59979e-07
6.62398e-07
6.6003e-07
6.62451e-07
6.63167e-07
6.6313e-07
6.72699e-07
6.60288e-07
6.62716e-07
6.60126e-07
6.62551e-07
6.63309e-07
6.63544e-07
7.23967e-08
4.27322e-08
8.2132e-08
1.00902e-07
7.23976e-08
8.21312e-08
4.27311e-08
5.42894e-08
5.14882e-08
9.12172e-08
9.1215e-08
5.42907e-08
7.23981e-08
1.00904e-07
8.21337e-08
4.27334e-08
8.21323e-08
4.27325e-08
7.23988e-08
8.43836e-08
7.42222e-08
7.42227e-08
7.13892e-08
7.12632e-08
7.13864e-08
8.43871e-08
7.42325e-08
7.42313e-08
7.13678e-08
7.12997e-08
7.13618e-08
7.23981e-08
4.27323e-08
8.21322e-08
1.00904e-07
7.23981e-08
4.27325e-08
8.21321e-08
5.42906e-08
5.14894e-08
9.12167e-08
9.12164e-08
5.42907e-08
7.23983e-08
1.00905e-07
4.27333e-08
8.21336e-08
4.2733e-08
8.2132e-08
7.23986e-08
8.43794e-08
7.42227e-08
7.42162e-08
7.13803e-08
7.12942e-08
7.13671e-08
8.43834e-08
7.42306e-08
7.42232e-08
7.13745e-08
7.13141e-08
7.13521e-08
7.09974e-08
5.42396e-08
1.01113e-07
1.01111e-07
7.09991e-08
4.25154e-08
4.25155e-08
4.25145e-08
4.25154e-08
3.60313e-08
5.87649e-08
7.73534e-08
9.63913e-08
9.63906e-08
5.87648e-08
3.60313e-08
8.15297e-08
7.45386e-08
8.1529e-08
3.60313e-08
7.73534e-08
9.63912e-08
5.87649e-08
9.63906e-08
5.87648e-08
3.60313e-08
8.15297e-08
7.45386e-08
8.1529e-08
7.0999e-08
5.42408e-08
1.01113e-07
1.01112e-07
7.09991e-08
4.25154e-08
4.25154e-08
4.25154e-08
4.25154e-08
3.60305e-08
5.87649e-08
7.73526e-08
9.63903e-08
5.87635e-08
3.60313e-08
9.63896e-08
8.15298e-08
7.45387e-08
8.15291e-08
3.60313e-08
7.73535e-08
5.8765e-08
9.63914e-08
5.87648e-08
9.63907e-08
3.60314e-08
8.15292e-08
7.4537e-08
8.15277e-08
4.25155e-08
4.25155e-08
7.09991e-08
5.42408e-08
1.01112e-07
1.01113e-07
7.09988e-08
4.25155e-08
4.25155e-08
3.60314e-08
5.87642e-08
9.63905e-08
7.73542e-08
9.63911e-08
3.60306e-08
5.8765e-08
7.4539e-08
8.15301e-08
8.15294e-08
8.1529e-08
7.4539e-08
8.15293e-08
3.60314e-08
7.73544e-08
9.6392e-08
5.87653e-08
9.63912e-08
5.87651e-08
3.60315e-08
3.60313e-08
7.73538e-08
5.87647e-08
9.63906e-08
5.87649e-08
9.63909e-08
3.60314e-08
8.15298e-08
7.45388e-08
8.15292e-08
3.60313e-08
7.73534e-08
5.8765e-08
9.63915e-08
3.60314e-08
5.87649e-08
9.63909e-08
8.15289e-08
7.45388e-08
8.15292e-08
7.09992e-08
5.42409e-08
1.01113e-07
1.01113e-07
7.09982e-08
4.25156e-08
4.25157e-08
4.25155e-08
4.25146e-08
7.23994e-08
8.21349e-08
1.00909e-07
4.27348e-08
8.21348e-08
7.23991e-08
4.27349e-08
5.42909e-08
5.14894e-08
9.1217e-08
9.12172e-08
5.4291e-08
7.23993e-08
1.00909e-07
8.21355e-08
4.27342e-08
7.23992e-08
8.21342e-08
4.27347e-08
8.43918e-08
7.42392e-08
7.42342e-08
7.13955e-08
7.1266e-08
7.13767e-08
8.43911e-08
7.42375e-08
7.42334e-08
7.13966e-08
7.12639e-08
7.13769e-08
7.23992e-08
8.21352e-08
4.27338e-08
1.00908e-07
7.23983e-08
8.21346e-08
4.27344e-08
5.42908e-08
5.14894e-08
9.12161e-08
9.1217e-08
5.42897e-08
7.23992e-08
1.00908e-07
8.21351e-08
4.27342e-08
8.21345e-08
4.27341e-08
7.23993e-08
8.43949e-08
7.42387e-08
7.42397e-08
7.13861e-08
7.12289e-08
7.14004e-08
8.43951e-08
7.42367e-08
7.42424e-08
7.13863e-08
7.12441e-08
7.13875e-08
7.24376e-08
4.27438e-08
8.22384e-08
1.01025e-07
7.24241e-08
8.23072e-08
4.27511e-08
5.43053e-08
5.15012e-08
9.12818e-08
9.13066e-08
5.4303e-08
7.24532e-08
1.01089e-07
8.25232e-08
4.28044e-08
8.23616e-08
4.27675e-08
7.24786e-08
8.44094e-08
7.42638e-08
7.4249e-08
7.13819e-08
7.12743e-08
7.13872e-08
8.44065e-08
7.42388e-08
7.4244e-08
7.14217e-08
7.12451e-08
7.14054e-08
7.24121e-08
4.27417e-08
8.22205e-08
1.00935e-07
7.2418e-08
4.27396e-08
8.21872e-08
5.42975e-08
5.14957e-08
9.12679e-08
9.12516e-08
5.42999e-08
7.24088e-08
1.00932e-07
4.27373e-08
8.21652e-08
4.27376e-08
8.21807e-08
7.24066e-08
8.44882e-08
7.42625e-08
7.43176e-08
7.19915e-08
7.14781e-08
7.15638e-08
8.45704e-08
7.47816e-08
7.44268e-08
7.14136e-08
7.13996e-08
7.14533e-08
7.10248e-08
5.42571e-08
1.01192e-07
1.01213e-07
7.10205e-08
4.25236e-08
4.25169e-08
4.25256e-08
4.25254e-08
3.60363e-08
5.87796e-08
7.7397e-08
9.64279e-08
9.64211e-08
5.87767e-08
3.6037e-08
8.15411e-08
7.45498e-08
8.15414e-08
3.60344e-08
7.73849e-08
9.64103e-08
5.87722e-08
9.64114e-08
5.8773e-08
3.60344e-08
8.15534e-08
7.45548e-08
8.15484e-08
7.10115e-08
5.42486e-08
1.01171e-07
1.01157e-07
7.10156e-08
4.25198e-08
4.25195e-08
4.25219e-08
4.25233e-08
3.6037e-08
5.87836e-08
7.74463e-08
9.64423e-08
5.87859e-08
3.60374e-08
9.64545e-08
8.16661e-08
7.46245e-08
8.16173e-08
3.60357e-08
7.74835e-08
5.87753e-08
9.65445e-08
5.87846e-08
9.64878e-08
3.60372e-08
8.15654e-08
7.45872e-08
8.15821e-08
7.47822e-08
7.42104e-08
7.3554e-08
7.57124e-08
7.57572e-08
7.69513e-08
7.84235e-08
7.5055e-08
7.67592e-08
8.16227e-08
7.80523e-08
8.01057e-08
7.4188e-08
7.30465e-08
7.322e-08
7.38333e-08
7.43683e-08
7.40738e-08
7.34689e-08
7.52701e-08
7.51785e-08
7.69699e-08
7.72303e-08
7.54025e-08
7.57674e-08
7.99681e-08
7.70813e-08
7.82238e-08
7.4161e-08
7.44126e-08
7.35317e-08
7.47952e-08
7.88627e-08
7.5128e-08
7.70039e-08
7.66774e-08
8.63894e-08
7.72553e-08
9.51455e-08
1.00257e-07
8.18953e-08
8.47978e-08
7.98315e-08
8.49135e-08
8.19757e-08
8.20979e-08
7.89075e-08
8.62608e-08
4.25851e-08
4.25134e-08
7.12739e-08
5.4297e-08
1.03008e-07
1.02135e-07
7.16187e-08
4.28987e-08
4.36306e-08
6.884e-08
7.35811e-08
6.79324e-08
1.0072e-07
9.63895e-08
4.20396e-08
8.20996e-08
9.53838e-08
7.88181e-08
8.29288e-08
7.77484e-08
1.04806e-07
8.58724e-08
8.59245e-08
8.78354e-08
5.48371e-08
8.22988e-08
9.51985e-08
9.37786e-08
6.81125e-08
3.6645e-08
7.84657e-08
6.10397e-08
9.89337e-08
5.94301e-08
9.79273e-08
3.78843e-08
8.17541e-08
7.50755e-08
8.19537e-08
3.61867e-08
7.79461e-08
5.87701e-08
9.66947e-08
3.6059e-08
5.88769e-08
9.70777e-08
8.20569e-08
7.55819e-08
8.23624e-08
8.22695e-08
7.60777e-08
1.06277e-07
9.88304e-08
6.65523e-08
7.18772e-08
7.45253e-08
1.01069e-07
9.28911e-08
4.87544e-08
6.65489e-08
7.28507e-08
8.30651e-08
1.02514e-07
4.35798e-08
8.32872e-08
7.30872e-08
4.32512e-08
5.44565e-08
5.18119e-08
9.37312e-08
9.22926e-08
5.43846e-08
7.25847e-08
1.02034e-07
8.2674e-08
4.28679e-08
7.24915e-08
8.29997e-08
4.2999e-08
8.96346e-08
9.31204e-08
6.97198e-08
9.28874e-08
6.62478e-08
8.64635e-08
7.97942e-08
8.05941e-08
8.59418e-08
8.55997e-08
8.48843e-08
8.17831e-08
1.00226e-07
1.06524e-07
4.66303e-08
1.04234e-07
9.07187e-08
1.01896e-07
8.48262e-08
9.9013e-08
8.28705e-08
4.74486e-08
7.38085e-08
7.72808e-08
7.50736e-08
7.75657e-08
7.67119e-08
9.77106e-08
9.27329e-08
7.77125e-08
5.46271e-08
6.80752e-08
8.56827e-08
9.5456e-08
9.50419e-08
8.61311e-08
7.83264e-08
7.84012e-08
7.28817e-08
7.41606e-08
7.5039e-08
8.57612e-08
7.54196e-08
7.66591e-08
9.19048e-08
7.91674e-08
8.00001e-08
7.23993e-08
4.27355e-08
8.21353e-08
1.0091e-07
7.23997e-08
8.21348e-08
4.27348e-08
5.42908e-08
5.14893e-08
9.12167e-08
9.12164e-08
5.42909e-08
7.23988e-08
1.00907e-07
8.21339e-08
4.27333e-08
8.21329e-08
4.27338e-08
7.23986e-08
8.43928e-08
7.42468e-08
7.42381e-08
7.1364e-08
7.12892e-08
7.13621e-08
8.4386e-08
7.42251e-08
7.42252e-08
7.14048e-08
7.12432e-08
7.13898e-08
7.23986e-08
4.27354e-08
1.00907e-07
8.21355e-08
7.23996e-08
4.27344e-08
8.2133e-08
5.42908e-08
5.14893e-08
9.12176e-08
9.12159e-08
5.42909e-08
7.23975e-08
1.00905e-07
4.27331e-08
8.21336e-08
7.23986e-08
4.27325e-08
8.21326e-08
8.43958e-08
7.42485e-08
7.42437e-08
7.1355e-08
7.12732e-08
7.13734e-08
8.43894e-08
7.42227e-08
7.42305e-08
7.14066e-08
7.1225e-08
7.14015e-08
7.0999e-08
5.42408e-08
1.01112e-07
1.01112e-07
7.09991e-08
4.25155e-08
4.25154e-08
4.25155e-08
4.25155e-08
3.60313e-08
5.87649e-08
7.73524e-08
9.63912e-08
9.63894e-08
5.87644e-08
3.60313e-08
8.15297e-08
7.45373e-08
8.15277e-08
3.60305e-08
7.73529e-08
9.63912e-08
5.87649e-08
9.63894e-08
3.60313e-08
5.87638e-08
8.15297e-08
7.45382e-08
8.15285e-08
7.09986e-08
5.42408e-08
1.01113e-07
1.01112e-07
7.09991e-08
4.25145e-08
4.25154e-08
4.25154e-08
4.25155e-08
3.60313e-08
5.87649e-08
9.63912e-08
7.73533e-08
5.87648e-08
3.60313e-08
9.63904e-08
7.45386e-08
8.15297e-08
8.1529e-08
8.15296e-08
7.45386e-08
8.1529e-08
3.60313e-08
7.73533e-08
5.87649e-08
9.63911e-08
5.87648e-08
9.63904e-08
3.60313e-08
4.25145e-08
8.15283e-08
5.87639e-08
9.639e-08
3.60305e-08
8.21338e-08
4.27326e-08
7.23977e-08
7.13716e-08
7.4228e-08
7.2399e-08
4.27345e-08
8.21439e-08
1.00909e-07
7.2401e-08
8.21403e-08
4.27334e-08
5.42909e-08
5.14895e-08
9.12236e-08
9.12211e-08
5.42921e-08
7.24004e-08
1.0091e-07
8.214e-08
4.27344e-08
8.21394e-08
4.27343e-08
7.24002e-08
8.43918e-08
7.42285e-08
7.42293e-08
7.1404e-08
7.12563e-08
7.13916e-08
8.43955e-08
7.42452e-08
7.4238e-08
7.13705e-08
7.12944e-08
7.13668e-08
7.24021e-08
4.27344e-08
1.00914e-07
8.21455e-08
7.24013e-08
4.27347e-08
8.2149e-08
5.42926e-08
5.14913e-08
9.12257e-08
9.12266e-08
5.42923e-08
7.24032e-08
1.00916e-07
4.27367e-08
8.21622e-08
7.24051e-08
4.27357e-08
8.21515e-08
8.43902e-08
7.42352e-08
7.42317e-08
7.13967e-08
7.12699e-08
7.13779e-08
8.43916e-08
7.42377e-08
7.42333e-08
7.13923e-08
7.12721e-08
7.13764e-08
7.10002e-08
5.42412e-08
1.01121e-07
1.01118e-07
7.10017e-08