/*--------------------------------*- C++ -*----------------------------------*\
| =========                 |                                                 |
| \\      /  F ield         | OpenFOAM: The Open Source CFD Toolbox           |
|  \\    /   O peration     | Version:  2012                                  |
|   \\  /    A nd           | Website:  www.openfoam.com                      |
|    \\/     M anipulation  |                                                 |
\*---------------------------------------------------------------------------*/
FoamFile
{
    version     2.0;
    format      ascii;
    class       volVectorField;
    location    "0.108/fluid";
    object      cellMotionU;
}
// * * * * * * * * * * * * * * * * * * * * * * * * * * * * * * * * * * * * * //

dimensions      [0 1 -1 0 0 0 0];


internalField   nonuniform List<vector> 
16422
(
(0.000104075 -0.000170618 -5.94064e-07)
(8.02665e-05 -0.000414438 5.24703e-06)
(0.000391186 -0.000412345 1.84224e-05)
(0.00113439 -0.000678102 3.43681e-05)
(0.00208461 -0.00125574 5.03279e-05)
(0.0031619 -0.00223069 6.54429e-05)
(0.004364 -0.00371774 7.47985e-05)
(0.00562143 -0.00554779 8.00976e-05)
(0.00706894 -0.00759815 8.27122e-05)
(0.0087376 -0.00980746 7.62635e-05)
(0.0104342 -0.0116994 7.76076e-05)
(0.0119279 -0.0134256 9.21501e-05)
(0.0122925 -0.0146054 0.000134156)
(0.0106918 -0.0142746 0.000290815)
(0.00734287 -0.0118412 0.000616207)
(0.000219456 -0.000147295 -3.45856e-07)
(0.00101354 -0.000437445 6.06996e-06)
(0.00189493 -0.000536492 1.66975e-05)
(0.00310194 -0.000903903 2.73093e-05)
(0.00448764 -0.00151763 3.72974e-05)
(0.00596068 -0.00235327 4.56452e-05)
(0.00751369 -0.00343444 5.03623e-05)
(0.00912886 -0.00488749 4.95095e-05)
(0.0107831 -0.00667945 4.53248e-05)
(0.0123488 -0.0084927 4.05153e-05)
(0.0135523 -0.0100632 2.63496e-05)
(0.0141296 -0.0117625 2.03297e-05)
(0.0139442 -0.0137031 1.48676e-05)
(0.0131754 -0.0165651 1.73354e-05)
(0.0122677 -0.0196983 -5.59527e-06)
(0.000285618 -9.26669e-05 -9.58472e-08)
(0.00163019 -0.000373297 6.25747e-06)
(0.00288051 -0.000501244 1.4272e-05)
(0.0043365 -0.000729882 2.16022e-05)
(0.00593779 -0.00107672 2.80106e-05)
(0.00756467 -0.00153776 3.25655e-05)
(0.00921879 -0.00214128 3.46294e-05)
(0.0108604 -0.00294647 2.96964e-05)
(0.0123545 -0.0040108 2.1057e-05)
(0.0135688 -0.00517067 9.10803e-06)
(0.0143329 -0.00636642 -5.67219e-06)
(0.0146242 -0.00761685 -1.93955e-05)
(0.0144455 -0.00913202 -3.25647e-05)
(0.0139898 -0.0109975 -4.91861e-05)
(0.0135038 -0.0131725 -6.64403e-05)
(8.18953e-05 -0.00011266 4.86218e-06)
(0.000180013 -0.000302064 8.43498e-05)
(0.000525104 -0.00025641 0.000221009)
(0.00129863 -0.000526928 0.000371946)
(0.00230382 -0.00113427 0.000518512)
(0.00345591 -0.00212084 0.000645522)
(0.00467513 -0.0034033 0.000746094)
(0.00599317 -0.00493504 0.000774699)
(0.00747639 -0.00668425 0.000732495)
(0.00919645 -0.00877343 0.000657885)
(0.0110002 -0.0105405 0.000569442)
(0.0127088 -0.0122498 0.000503078)
(0.0138 -0.0138696 0.000477131)
(0.0144507 -0.0163417 0.000678637)
(0.0154033 -0.0197296 0.000915026)
(0.000185466 -9.56009e-05 6.34844e-06)
(0.00103839 -0.000329349 8.66135e-05)
(0.00197886 -0.000444902 0.00019531)
(0.00319197 -0.000798763 0.000300175)
(0.00456781 -0.00136073 0.000395386)
(0.00606077 -0.0021423 0.000475128)
(0.00762765 -0.00318188 0.000526595)
(0.00926266 -0.00453044 0.000519715)
(0.0109437 -0.00610635 0.000459315)
(0.0124856 -0.00771025 0.000362528)
(0.0137509 -0.00913723 0.000237771)
(0.0145243 -0.0107994 9.32877e-05)
(0.014677 -0.0128078 -4.7551e-05)
(0.0144728 -0.0153372 -0.000172496)
(0.0142422 -0.0181855 -0.000387986)
(0.000249293 -6.07619e-05 6.91173e-06)
(0.00159958 -0.000291527 8.28735e-05)
(0.00288641 -0.000437105 0.000168706)
(0.00436609 -0.000689422 0.000244256)
(0.00596001 -0.00102151 0.000307961)
(0.00760418 -0.00147442 0.000354156)
(0.00927343 -0.0020629 0.00037088)
(0.0108847 -0.00277823 0.000341836)
(0.0123571 -0.00363637 0.000275147)
(0.0135611 -0.004528 0.000174839)
(0.0143731 -0.00554132 5.1922e-05)
(0.0147548 -0.00680364 -7.97674e-05)
(0.0147131 -0.00838064 -0.00021205)
(0.014445 -0.00996035 -0.000343869)
(0.0141457 -0.0121728 -0.000484329)
(0.000105588 -7.72956e-05 1.25857e-05)
(0.000432351 -0.000108904 0.000169055)
(0.000946505 -6.07889e-05 0.000385468)
(0.00177935 -0.000261789 0.000623373)
(0.00286501 -0.000776961 0.000847073)
(0.00410827 -0.00154006 0.00103603)
(0.00545101 -0.00255419 0.00118259)
(0.00695638 -0.00385793 0.00122003)
(0.00849164 -0.00520626 0.00113811)
(0.010062 -0.00631421 0.000941197)
(0.0117939 -0.00727013 0.00064963)
(0.0136595 -0.00833479 0.000281654)
(0.0153355 -0.00907856 -0.000181857)
(0.0173163 -0.00932363 -0.000820156)
(0.019481 -0.0109415 -0.00155786)
(0.000200807 -7.46691e-05 1.40855e-05)
(0.00124664 -0.000253714 0.000159934)
(0.00222269 -0.000289547 0.000341096)
(0.00345498 -0.000586185 0.00051277)
(0.00485323 -0.00108302 0.000664)
(0.00638119 -0.00179918 0.000780147)
(0.00796487 -0.00271337 0.000844802)
(0.00963868 -0.003759 0.000828441)
(0.0112832 -0.00478718 0.000717151)
(0.0127664 -0.00581576 0.000511103)
(0.0139567 -0.00685365 0.000246642)
(0.0149337 -0.00805146 -9.31448e-05)
(0.0155004 -0.00951881 -0.000433134)
(0.0159743 -0.0116517 -0.00077354)
(0.0163183 -0.0143767 -0.00107595)
(0.000255428 -4.59588e-05 1.43109e-05)
(0.00169166 -0.000204648 0.000151634)
(0.00299354 -0.000315707 0.000299452)
(0.00448683 -0.000561012 0.000426918)
(0.00608544 -0.000874264 0.000527607)
(0.00773355 -0.00127884 0.000590772)
(0.00937018 -0.00180079 0.000606952)
(0.0109406 -0.00236381 0.00056089)
(0.0123684 -0.0028982 0.000445421)
(0.0135389 -0.00346685 0.000271765)
(0.0144247 -0.00427002 4.39311e-05)
(0.0149617 -0.00529279 -0.000211982)
(0.0151688 -0.00655128 -0.000463144)
(0.0151997 -0.00811907 -0.000689855)
(0.015162 -0.0102803 -0.000905815)
(0.00509603 -0.00665475 0.000790973)
(0.00412297 -0.0110653 0.000652394)
(0.0125292 -0.0152419 0.00218157)
(0.0143953 -0.0311015 0.00029512)
(0.0145602 -0.0155319 0.00138312)
(0.0158856 -0.0328318 -0.000410534)
(0.0184882 -0.00967279 -0.000872102)
(0.0198599 -0.0238377 -0.00252096)
(0.0187377 -0.00625477 -0.00136236)
(0.0199582 -0.0206087 -0.00263379)
(0.00960805 -0.0123728 0.000352343)
(0.00629396 -0.00819025 0.000640439)
(0.0127199 -0.0156335 0.00110771)
(0.0124507 -0.0158256 0.00190373)
(0.00165414 -0.00100405 0.000239616)
(0.00344778 -0.00329012 0.00136796)
(0.00620285 -0.0160928 0.000449842)
(0.0116191 -0.0199428 5.23762e-05)
(0.0109864 -0.0232453 -4.81179e-05)
(0.0132105 -0.018394 0.0015159)
(0.0132984 -0.0276566 0.000302181)
(0.0135466 -0.0197133 -7.41228e-05)
(0.0130765 -0.0233932 -0.000531197)
(0.0139079 -0.0156661 0.000898085)
(0.0144189 -0.0162299 0.00128415)
(0.0166176 -0.0105183 -0.000306744)
(0.0182004 -0.0106144 -0.000652336)
(0.0103555 -0.0103725 0.00165558)
(0.0120222 -0.00936935 0.00121504)
(0.0155949 -0.0296467 -0.000441287)
(0.0144255 -0.0193476 -0.000250214)
(0.0140268 -0.0231999 -0.000708181)
(0.018791 -0.0136384 -0.00104312)
(0.0191034 -0.0234685 -0.00203029)
(0.0165385 -0.0163223 -0.000946307)
(0.0162112 -0.0206529 -0.00124525)
(0.0170913 -0.00817293 -0.0006917)
(0.0185855 -0.00701063 -0.00119191)
(0.0149635 -0.00202096 -0.000421158)
(0.015362 0.000528449 -0.000926582)
(0.019394 -0.0193676 -0.0022675)
(0.0170079 -0.0148991 -0.00118363)
(0.0167132 -0.0191216 -0.00145073)
(0.00271616 -0.00240917 0.000587762)
(0.00400613 -0.00518723 0.000970016)
(0.00712932 -0.00922144 0.00200432)
(0.00514879 -0.00479475 0.00185407)
(0.00663902 -0.00788644 0.0024554)
(0.00407072 -0.00691432 0.000822843)
(0.00779638 -0.0190358 0.00167611)
(0.00778429 -0.0117629 0.00247888)
(0.00834868 -0.0095626 0.0019508)
(0.00613039 -0.00720207 0.00199032)
(0.00990347 -0.0127091 0.00250946)
(0.0103944 -0.00975744 0.00227866)
(0.0126265 -0.013854 0.0022985)
(0.0081826 -0.00847815 0.00258235)
(0.00993707 -0.011681 0.00297393)
(0.00983169 -0.0239896 0.00153837)
(0.0143288 -0.0205057 0.00169483)
(0.00995589 -0.0157826 0.00264136)
(0.0123301 -0.00974371 0.00169384)
(0.0147608 -0.0141124 0.00127891)
(0.0162771 -0.0145536 0.00054567)
(0.0140032 -0.00868877 0.00105562)
(0.0164946 -0.0131655 0.000306448)
(0.0157949 -0.0214579 0.000910561)
(0.0183433 -0.0321019 -0.00165257)
(0.0183576 -0.0203406 -0.000414878)
(0.0142768 -0.00467887 0.000116986)
(0.0132386 -0.00714291 0.000683052)
(0.0173265 -0.0120795 -0.000169077)
(0.016158 -0.00409396 -0.000226048)
(0.0184425 -0.00826396 -0.00116635)
(0.015141 -0.0064633 0.000415535)
(0.0175456 -0.0106592 -0.000498189)
(0.019 -0.0301086 -0.00207313)
(0.0200701 -0.0136608 -0.00178207)
(0.0190043 -0.0179929 -0.00099556)
(0.0165679 -0.00128762 -0.000768332)
(0.0186095 -0.00507254 -0.00160852)
(0.0188892 -0.00335957 -0.00178363)
(0.0168552 0.00103506 -0.001249)
(0.018638 -0.00243704 -0.00194869)
(0.0200939 -0.0104376 -0.00202117)
(0.0196303 -0.0150205 -0.00267249)
(0.0199914 -0.00645402 -0.00236354)
(0.015844 0.00237355 -0.00136571)
(0.0190573 -0.00115271 -0.00213297)
(0.0172859 0.00269464 -0.00168218)
(0.0187392 -0.000364918 -0.00224595)
(0.01943 -0.0124051 -0.00267802)
(0.019801 -0.00399963 -0.00246725)
(0.00198193 -0.00187503 0.000855952)
(0.00208038 -0.00106032 0.000771093)
(0.0041581 -0.00178342 0.00237722)
(0.00134395 -0.000318923 0.000643942)
(0.00289054 -0.000763793 0.00189361)
(0.00297231 -0.00242321 0.0012332)
(0.00072433 -0.000337711 0.00028472)
(0.000430989 -8.86188e-05 7.10689e-05)
(0.00140887 -9.32486e-05 0.000938003)
(0.00978724 -0.00725968 0.00139347)
(0.00825564 -0.00235549 0.00120121)
(0.0122634 -0.00442446 0.00123206)
(0.00762219 -0.00262212 0.00132304)
(0.0115169 -0.00507564 0.00154824)
(0.0102586 -0.00603722 0.00118352)
(0.00879059 -0.00755058 0.0014854)
(0.00615123 -0.00359789 0.00138855)
(0.00979437 -0.00622532 0.00212353)
(0.00803191 -0.00742141 0.0016088)
(0.00681342 -0.00278442 0.00135279)
(0.0105756 -0.0055206 0.00184463)
(0.0133251 0.00177312 -0.000586472)
(0.011112 0.00380432 -0.00056759)
(0.0149214 0.00473129 -0.00115208)
(0.010915 0.00360153 -0.000377586)
(0.0147685 0.00413673 -0.000930915)
(0.0132879 0.00242959 -0.000781328)
(0.0129981 0.000233346 -0.000293635)
(0.0104834 0.00207873 0.000113218)
(0.0144813 0.00198366 -0.000400539)
(0.0126902 0.000142965 -9.33471e-05)
(0.0106228 0.00287318 -0.000133142)
(0.0145409 0.00306476 -0.000654935)
(0.00191322 -0.00532272 -4.0855e-05)
(9.57827e-07 -0.0057569 -0.00250942)
(0.000491653 -0.0201947 -0.00468351)
(6.40232e-05 -0.0103238 -0.00383155)
(0.00440796 -0.00297666 0.00209728)
(0.0050874 -0.00224672 0.00245733)
(0.00552642 -0.00178442 0.00254594)
(0.00355246 -0.00098819 0.00189653)
(0.00386104 -0.000994662 0.0019564)
(0.00567926 -0.00329206 0.00248659)
(0.0026959 -0.00127687 0.00112172)
(0.000913006 -0.000379526 0.000294652)
(0.00134528 -0.000816011 0.000512845)
(0.00202196 -0.000262643 0.00106555)
(0.00232049 -0.000585452 0.00115738)
(0.00183037 -0.00121388 0.000506859)
(0.00521777 -0.00641697 0.00342034)
(0.00774472 -0.00684025 0.00372132)
(0.00477338 -0.00370425 0.00287037)
(0.00888218 -0.0123481 0.00409047)
(0.00385235 -0.00524184 0.00295921)
(0.00127034 -0.00281088 0.000689589)
(0.00391307 -0.00851807 0.00343695)
(0.00122237 -0.00181367 0.000618576)
(0.00530017 -0.00798193 0.00370444)
(0.00901009 -0.0224001 0.0038881)
(0.00910077 -0.0151733 0.00421962)
(0.00531139 -0.0124432 0.00397809)
(0.00397546 -0.00442726 0.00287822)
(0.00147981 -0.00123045 0.00057723)
(0.00350396 -0.00206807 0.0021271)
(0.00131132 -0.00158179 0.000585013)
(0.00511715 -0.00555491 0.00158084)
(0.0029426 -0.00204051 0.00102039)
(0.00562931 -0.00401388 0.00269825)
(0.00425168 -0.00486693 0.00153101)
(0.00367554 -0.0020926 0.00116996)
(0.00672498 -0.00476756 0.0027356)
(0.00626766 -0.00732861 0.00168497)
(0.00530188 -0.00314089 0.00133776)
(0.00871196 -0.00579793 0.00235816)
(0.00693101 -0.00641939 0.00163507)
(0.0045495 -0.00288629 0.00132135)
(0.00771453 -0.00544359 0.00254889)
(0.00241264 -0.00787798 5.45328e-05)
(0.00363811 -0.0107419 0.000433102)
(0.00371927 -0.0397483 -0.00217112)
(0.00236082 -0.0365038 -0.00327665)
(0.00079347 -0.0256076 -0.00469851)
(0.00186879 -0.0342487 -0.00381028)
(0.00421302 -0.0127451 0.000665447)
(0.00925969 -0.00764347 0.00317248)
(0.0069729 -0.0049374 0.00294445)
(0.00735079 -0.00341799 0.00289352)
(0.00760197 -0.00597059 0.00285436)
(0.00801676 -0.00527993 0.00287853)
(0.00849218 -0.00331389 0.00275343)
(0.0101324 -0.00769652 0.00254715)
(0.00996451 -0.00567264 0.00235359)
(0.0105665 -0.00311357 0.002001)
(0.00889511 -0.00526193 0.00253843)
(0.00939638 -0.00278977 0.0022774)
(0.0107311 -0.0064191 0.00221238)
(0.0135102 -0.0204824 0.00337441)
(0.0090351 -0.00911341 0.00381117)
(0.0103516 -0.0153223 0.00414754)
(0.0116882 -0.0120129 0.00356112)
(0.0147894 -0.0258696 0.00266227)
(0.0173512 -0.0416686 0.000317029)
(0.0149787 -0.0378476 0.00175642)
(0.017285 -0.0287983 0.00139925)
(0.0139924 -0.0247344 0.00327473)
(0.0105697 -0.0271422 0.00363108)
(0.010669 -0.0187059 0.00421565)
(0.0140032 -0.0357197 0.00240711)
(0.0148902 -0.0230563 0.00305898)
(0.0145957 -0.0143624 0.00229492)
(0.0125011 -0.0129462 0.00308926)
(0.0173037 -0.0254502 0.00179697)
(0.00437132 -0.041363 -0.00162777)
(0.00586009 -0.0426654 -0.000779473)
(0.0076772 -0.0386487 0.000175202)
(0.00645386 -0.0430262 -0.000439082)
(0.0138849 -0.00646262 0.000985075)
(0.0135135 -0.00400631 0.00111964)
(0.0138011 -0.00165287 0.000417155)
(0.0127695 -0.00457263 0.00141881)
(0.0130958 -0.00189659 0.000759342)
(0.0141746 -0.00512329 0.000714322)
(0.0128144 -0.00679355 0.00147429)
(0.0109984 -0.00559402 0.00203241)
(0.0114941 -0.00274469 0.0015316)
(0.0117957 -0.00490689 0.00175717)
(0.0117909 -0.00635415 0.00169995)
(0.0121892 -0.00202375 0.00117912)
(0.0202591 -0.0251179 -0.000385475)
(0.0185696 -0.0127004 -0.000217425)
(0.0175277 -0.0141147 0.000514999)
(0.0213573 -0.0229066 -0.00127737)
(0.0198867 -0.0295989 -0.000360651)
(0.018315 -0.0433111 -0.000265418)
(0.0183472 -0.0302771 0.000878675)
(0.0199026 -0.043107 -0.00145505)
(0.0201034 -0.0265189 6.99975e-05)
(0.0152784 -0.0144562 0.00177458)
(0.018386 -0.0268087 0.00130961)
(0.0168418 -0.0141105 0.000949175)
(0.0208384 -0.0303273 -0.000794037)
(0.0213628 -0.0401512 -0.00266401)
(0.0218278 -0.0279391 -0.00172089)
(0.0206118 -0.0434063 -0.00190059)
(0.0115465 -0.00447836 0.000748654)
(0.00884708 -0.00110684 0.00103065)
(0.012872 -0.00296088 0.000883555)
(0.0109566 -0.00430172 0.000947815)
(0.00929437 -0.0004014 0.000820198)
(0.0133501 -0.00181174 0.000555646)
(0.0120789 -0.00252984 0.000453698)
(0.0100946 0.00117276 0.000364282)
(0.0141315 0.00069565 -8.67815e-05)
(0.0122228 -0.00145782 0.000204503)
(0.0097196 0.00088984 0.000578973)
(0.0137502 -0.000211747 0.000217199)
(0.0154651 -0.00366554 -1.19379e-05)
(0.0140699 -0.00245617 0.000743827)
(0.0141912 -0.000431891 5.05041e-05)
(0.0146951 -0.00336062 0.000276949)
(0.0145179 -0.00139339 0.000434986)
(0.0145167 0.000303096 -0.000225303)
(0.0158307 -0.00186829 -0.000376406)
(0.0152834 0.000837981 -0.000196727)
(0.0151042 0.00160368 -0.000754696)
(0.0148597 0.000208507 9.06651e-05)
(0.0146991 0.00148353 -0.000496128)
(0.0157955 -0.000841292 -0.000566083)
(0.0223048 -0.0185856 -0.00215099)
(0.0187874 -0.0111663 -0.000542611)
(0.0219373 -0.0223557 -0.00160302)
(0.019527 -0.0093046 -0.00108021)
(0.0224997 -0.0208239 -0.00267079)
(0.0223575 -0.0285189 -0.00356824)
(0.0223395 -0.0329429 -0.00346773)
(0.0226083 -0.0171713 -0.00291612)
(0.0228395 -0.0233415 -0.00258256)
(0.0218392 -0.0393288 -0.00296845)
(0.0224587 -0.0274638 -0.00205183)
(0.0224466 -0.035431 -0.00339895)
(0.0228802 -0.0179594 -0.00237583)
(0.01995 -0.00582104 -0.00166451)
(0.0195968 -0.00766383 -0.00128013)
(0.0228515 -0.0140738 -0.002659)
(0.0164142 0.00236107 -0.00131598)
(0.015784 0.00485369 -0.00121391)
(0.0151104 0.00418467 -0.00142076)
(0.0156583 0.00434982 -0.000998822)
(0.0150474 0.00399145 -0.00126744)
(0.0161318 0.00302608 -0.00142014)
(0.016237 0.00102281 -0.00106587)
(0.0154335 0.00240305 -0.000498958)
(0.0150577 0.00278819 -0.000945427)
(0.0154535 0.00339212 -0.000737547)
(0.0158382 0.00113879 -0.000835937)
(0.0149369 0.00348567 -0.00108394)
(0.0223127 -0.00772193 -0.00286608)
(0.0196353 0.000221834 -0.00227291)
(0.0198617 -0.00128817 -0.00210579)
(0.0219154 -0.00498032 -0.0029159)
(0.0224049 -0.0121217 -0.00306533)
(0.0225132 -0.0270555 -0.00362454)
(0.0228801 -0.016142 -0.00303257)
(0.0222018 -0.0223773 -0.00355917)
(0.0228512 -0.00957661 -0.00290745)
(0.019816 -0.00408845 -0.00176888)
(0.0231571 -0.0131279 -0.00279651)
(0.019796 -0.00218288 -0.00200175)
(0.0227496 -0.0114688 -0.00315895)
(0.0216502 -0.016933 -0.0034167)
(0.022222 -0.00833135 -0.0031494)
(0.0222963 -0.0211489 -0.00357333)
(0.0142867 0.00346248 -0.0012336)
(0.0112684 0.00466878 -0.000795674)
(0.0150311 0.00568455 -0.00137887)
(0.0135573 0.0038504 -0.00105564)
(0.0116222 0.00475978 -0.000969908)
(0.0155392 0.00592038 -0.00159491)
(0.0153087 0.00415027 -0.00151515)
(0.0122395 0.00507126 -0.00117204)
(0.0165366 0.00612408 -0.00186268)
(0.0172218 0.00377102 -0.00191576)
(0.0158482 0.00580542 -0.00143699)
(0.0149892 0.00487568 -0.00154162)
(0.0162152 0.00426606 -0.00161996)
(0.0164051 0.0059839 -0.00168663)
(0.01529 0.00494995 -0.00171449)
(0.0184421 0.00420739 -0.0022741)
(0.0173914 0.0062244 -0.00200901)
(0.0160051 0.00502332 -0.00195624)
(0.0213641 -0.00171962 -0.00299144)
(0.0193903 0.00142133 -0.00230494)
(0.0220176 -0.00419395 -0.00298007)
(0.0194806 0.00244911 -0.00250805)
(0.021125 -0.00328423 -0.00310227)
(0.0208048 -0.010737 -0.00325491)
(0.0217288 -0.00462436 -0.00317853)
(0.0216574 -0.0156884 -0.0034133)
(0.0223767 -0.00748686 -0.00320594)
(0.0212639 -0.0124532 -0.00334163)
(0.0216392 -0.00117926 -0.00309557)
(0.019611 0.00321056 -0.00259958)
(0.00268231 0.00147841 0.00194526)
(0.00139126 0.00752664 0.00158996)
(0.00474899 -0.00177952 0.00289825)
(0.00122003 0.00607293 0.00152374)
(0.00409081 -0.00090266 0.0027496)
(0.00301193 0.00225326 0.00206961)
(0.000258545 8.56763e-05 3.7516e-05)
(0.0001894 -1.46281e-05 1.20885e-05)
(0.000192524 0.00015282 -0.000130091)
(0.000654724 0.000242519 0.000389373)
(-0.000156654 -0.00105946 -0.0015409)
(0.000380096 -0.0253517 -0.00581391)
(0.000128075 -0.0193451 -0.00588763)
(0.00886502 0.00407606 0.00110044)
(0.00441216 0.0177742 0.000512514)
(0.013494 -0.00495253 0.00134038)
(0.00424959 0.0179689 0.000610567)
(0.0130663 -0.00529784 0.00151768)
(0.00897305 0.00477397 0.000953701)
(0.00718724 0.00272888 0.00172942)
(0.00319557 0.0166484 0.00122225)
(0.0103513 -0.00765819 0.00255491)
(0.00679075 0.00298973 0.00183037)
(0.00337151 0.0171839 0.00112134)
(0.0108019 -0.00732957 0.00240232)
(0.00403231 -0.04522 -0.00231696)
(0.00485311 -0.0458702 -0.00168362)
(0.00795833 -0.0423054 6.95814e-05)
(0.00723239 -0.04392 -0.000243475)
(0.0110636 0.00787168 -0.000875664)
(0.00545157 0.0118506 -0.000622505)
(0.0160347 0.00634626 -0.00134765)
(0.00542251 0.012329 -0.000585015)
(0.0159174 0.00605072 -0.00122792)
(0.010923 0.00801161 -0.000942768)
(0.0107658 0.00700872 -0.000351525)
(0.00527905 0.0149332 -0.000261299)
(0.0155658 0.00228069 -0.000352337)
(0.0105511 0.00742691 -0.000265457)
(0.00530016 0.0145164 -0.000324872)
(0.0155902 0.00306198 -0.000509501)
(0.0111173 -0.0294352 0.000547756)
(0.0115006 -0.027056 0.000471382)
(0.0125817 -0.0184845 -4.11447e-05)
(0.0123728 -0.0204559 0.000105377)
(0.00118097 -0.00515069 -0.000550323)
(0.00260709 -0.00280749 0.0010965)
(0.00199091 -0.00166126 0.000949063)
(0.00168487 -0.00773066 -0.000485311)
(-0.000161879 -0.000847878 -0.000875236)
(-0.000126611 -0.000675858 5.9711e-05)
(0.000142064 -0.0145869 -0.00464183)
(0.000362413 -0.0238412 -0.00556441)
(0.00011582 -0.0181327 -0.0056309)
(0.000396662 -0.0194103 -0.00459459)
(6.38442e-05 -3.76523e-05 -0.000117998)
(0.000118276 0.000162357 -0.000202005)
(0.00370641 0.00128647 0.00161825)
(0.00544209 -0.00172031 0.00292709)
(0.00201629 0.00775432 4.87728e-05)
(0.00465002 -0.000793555 0.0027137)
(0.00168415 0.0062694 -5.1442e-05)
(0.00414119 0.00194456 0.00169555)
(0.000737004 0.000126218 0.000279124)
(0.000205486 -9.25908e-07 9.84564e-05)
(0.000131452 -1.40819e-05 -1.04393e-05)
(0.000828491 0.000216894 0.000540433)
(0.000254341 0.00014986 -0.000101744)
(0.000428253 -3.81075e-05 0.000135732)
(0.00711647 -0.00546775 0.00400458)
(0.007107 -0.00302732 0.00351226)
(0.00577599 -0.00190809 0.00325239)
(0.00890163 -0.00799577 0.00428194)
(0.00159259 -0.00195455 0.00211568)
(0.000199257 -0.00041618 0.000450904)
(0.00161268 -0.00237355 0.00235401)
(0.000214846 -0.00038846 0.000401117)
(0.00748289 -0.0146971 0.0044634)
(0.00949903 -0.0238833 0.00410152)
(0.00954323 -0.0195196 0.00430219)
(0.00746096 -0.0181588 0.00444187)
(0.00172112 -0.000629906 0.00130778)
(0.000469364 -0.000160716 0.000243182)
(0.00150251 -8.29574e-05 0.000980256)
(0.000302282 -0.000249335 0.00025569)
(0.0039795 0.00186456 0.00220981)
(0.00158 0.00889348 0.00163438)
(0.00548363 -0.00302711 0.00302709)
(0.00354466 0.00182713 0.00218371)
(0.00176067 0.010282 0.00163792)
(0.00612164 -0.00383817 0.00308368)
(0.00607714 0.00217112 0.00201396)
(0.0029784 0.0161597 0.00130923)
(0.00973267 -0.00731757 0.00268367)
(0.00630093 0.00319074 0.00191668)
(0.00277417 0.015474 0.00139532)
(0.009164 -0.00703748 0.00279398)
(0.00247719 -0.011116 -0.000204928)
(0.00285881 -0.0034417 0.0011732)
(0.00187114 -0.00860038 -0.000433477)
(0.00346508 -0.00480638 0.00122935)
(0.00281877 -0.0342361 -0.00225154)
(0.00367384 -0.0425514 -0.00233017)
(0.00288993 -0.0408681 -0.00302481)
(0.00356665 -0.0357303 -0.0016032)
(0.000937739 -0.0252745 -0.00411163)
(0.000477825 -0.0256505 -0.00546967)
(0.000510641 -0.0209559 -0.00451158)
(0.000918387 -0.0306598 -0.0050267)
(0.00456971 -0.0165314 0.000782666)
(0.00637426 -0.00838632 0.00181327)
(0.00564798 -0.008169 0.00170008)
(0.00530512 -0.017377 0.00109566)
(0.00582192 0.000609172 0.00218621)
(0.00626297 -0.00294194 0.00305802)
(0.00235327 0.00913483 0.000138849)
(0.00486309 0.00146161 0.00181952)
(0.00693488 -0.00363192 0.00310153)
(0.00265192 0.0105712 0.000225228)
(0.00781552 0.00246669 0.00172983)
(0.0107599 -0.00679156 0.00260399)
(0.0041903 0.0170387 0.00054795)
(0.0101282 -0.00641159 0.00271283)
(0.00393248 0.0163784 0.000493752)
(0.00798982 0.00346796 0.00165245)
(0.0111432 -0.0113268 0.00420278)
(0.00763032 -0.00375623 0.00356116)
(0.00947833 -0.00885043 0.0043056)
(0.00906703 -0.00539554 0.00368345)
(0.016741 -0.034338 0.00147162)
(0.0177094 -0.0426397 5.90655e-05)
(0.0165424 -0.0409492 0.000853389)
(0.0179475 -0.0358329 0.000693846)
(0.0120931 -0.0253792 0.00367791)
(0.0101521 -0.0256957 0.00392772)
(0.0102052 -0.0210636 0.00418329)
(0.0120091 -0.0307153 0.00327953)
(0.0154519 -0.0166626 0.00288618)
(0.0133595 -0.00829107 0.00237092)
(0.0124344 -0.00806894 0.00274071)
(0.0166378 -0.0174913 0.00229282)
(0.000176763 -0.000450797 0.000470298)
(0.00162305 -0.00259103 0.00241204)
(0.0094692 -0.025375 0.00398169)
(0.00744777 -0.0193494 0.00437881)
(0.00376085 -0.0448286 -0.00254123)
(0.00296372 -0.0430902 -0.00324201)
(0.000498568 -0.0272486 -0.00571626)
(0.00095045 -0.0324855 -0.00526452)
(0.0175825 -0.0449112 -0.000162945)
(0.0164314 -0.043164 0.000628805)
(0.0101162 -0.0272763 0.00379142)
(0.0119539 -0.0325268 0.00310259)
(0.00832877 -0.015908 0.00177196)
(0.00969179 -0.00589189 0.0015927)
(0.0091228 -0.00684631 0.00172957)
(0.00894635 -0.0147045 0.00174986)
(0.0045967 -0.0366236 -0.00081696)
(0.00394118 -0.0429311 -0.00210805)
(0.00475047 -0.0435638 -0.00148172)
(0.00382207 -0.0360671 -0.00139654)
(0.00627818 -0.0177413 0.00143534)
(0.00663197 -0.00839321 0.00186027)
(0.0072335 -0.00855441 0.0018573)
(0.00555002 -0.0175477 0.00119002)
(0.00686462 -0.0348787 0.000447867)
(0.00782548 -0.0401155 0.000231393)
(0.00710464 -0.0416804 -6.97631e-05)
(0.00756445 -0.0334468 0.000697712)
(0.0107058 0.00453789 0.000920592)
(0.0144954 -0.00425464 0.00116233)
(0.0056088 0.0186543 0.000582859)
(0.0140702 -0.00459498 0.00134129)
(0.00545004 0.0188938 0.000599576)
(0.0106818 0.00529921 0.0008341)
(0.00898689 0.00330866 0.0015006)
(0.0113102 -0.00675305 0.00242505)
(0.00439618 0.0177158 0.000567695)
(0.0118024 -0.00656553 0.00227034)
(0.00840946 0.00379414 0.00150567)
(0.00459687 0.0182022 0.000597082)
(0.0203147 -0.0159882 -0.000115208)
(0.0170736 -0.00574582 0.000241621)
(0.0166303 -0.00668651 0.000554563)
(0.0208462 -0.0147835 -0.00055056)
(0.0193068 -0.0367283 -0.000274665)
(0.0180625 -0.0430216 -0.000193148)
(0.0183135 -0.0361701 0.000442584)
(0.019019 -0.0436605 -0.000902134)
(0.0180188 -0.0178391 0.00149055)
(0.0136415 -0.00821895 0.00218912)
(0.0170045 -0.0176573 0.00209129)
(0.0145637 -0.00838606 0.00180213)
(0.0214316 -0.0349903 -0.00197879)
(0.0214882 -0.0402315 -0.00287808)
(0.0218879 -0.0335611 -0.00238072)
(0.0210534 -0.0417924 -0.00251697)
(0.00955755 0.00497578 0.000689748)
(0.00454077 0.0177318 0.000409301)
(0.0137653 -0.0038849 0.00113035)
(0.0092069 0.00554945 0.000793338)
(0.00465548 0.0175023 0.000312046)
(0.0140405 -0.00311336 0.000940016)
(0.01044 0.00659698 -3.74147e-06)
(0.00520297 0.01537 -0.000191168)
(0.0153636 0.00156074 -0.000174726)
(0.0103551 0.00708928 -0.000126077)
(0.0051316 0.0158272 -0.000119786)
(0.015184 0.00095291 -7.36751e-06)
(0.00970757 -0.0128215 0.00162922)
(0.00987047 -0.00528471 0.00153375)
(0.00914355 -0.0142588 0.00172891)
(0.0102844 -0.00455693 0.00136673)
(0.0100825 -0.02494 0.00093973)
(0.0108407 -0.0284186 0.000652829)
(0.0103878 -0.0307738 0.000694744)
(0.0105346 -0.0228071 0.000850742)
(0.00843309 -0.031114 0.000905443)
(0.00805587 -0.0395204 0.000313562)
(0.00778886 -0.0329029 0.000762616)
(0.00871553 -0.0375609 0.000508343)
(0.0111415 -0.00808835 0.00107213)
(0.0118154 7.2059e-05 0.000440031)
(0.0114738 -0.000992522 0.000690668)
(0.0115333 -0.00651981 0.000830885)
(0.0113298 0.005385 0.000574658)
(0.0147493 -0.00322149 0.000950015)
(0.00569187 0.0185692 0.000552827)
(0.010852 0.00606188 0.00067571)
(0.015003 -0.0024823 0.000768499)
(0.00578133 0.0182912 0.00052262)
(0.0120727 0.00678318 -3.99015e-05)
(0.0162651 0.00184694 -0.000299658)
(0.00615918 0.0157777 0.000255704)
(0.0160478 0.00138345 -0.000137989)
(0.00609342 0.0163355 0.000306741)
(0.0118856 0.00720564 -0.000105994)
(0.0213927 -0.0129015 -0.00104468)
(0.0171599 -0.00513272 0.000119667)
(0.0209996 -0.0143378 -0.000683289)
(0.017621 -0.00442444 -0.00020398)
(0.0227393 -0.0250671 -0.0032919)
(0.0222821 -0.0285479 -0.00363547)
(0.022293 -0.0309015 -0.00360824)
(0.0227295 -0.0229371 -0.00335706)
(0.0223304 -0.0312322 -0.00279353)
(0.0216097 -0.0396375 -0.00298005)
(0.0220156 -0.0330181 -0.0024967)
(0.0219083 -0.0376814 -0.0032341)
(0.0220257 -0.00817884 -0.00182576)
(0.0183945 0.000116035 -0.00113692)
(0.018321 -0.000924584 -0.000972755)
(0.0220826 -0.00661555 -0.00200206)
(0.0179308 -0.0453053 -0.000412917)
(0.0188739 -0.0459629 -0.00111204)
(0.0213088 -0.0424195 -0.00302499)
(0.0208797 -0.0440299 -0.00268105)
(0.0109784 -0.0302401 0.000565758)
(0.010527 -0.0326709 0.000593344)
(0.0081901 -0.0416916 0.000155963)
(0.00885297 -0.039671 0.000364005)
(0.0220968 -0.0303671 -0.00370214)
(0.0221062 -0.0327966 -0.0036877)
(0.0214288 -0.041807 -0.00312122)
(0.0217237 -0.0397898 -0.00335852)
(0.0127739 -0.000598775 -0.00027298)
(0.0128458 0.00477622 -0.000783035)
(0.0126858 0.00407897 -0.00057555)
(0.0129666 0.000518662 -0.000506078)
(0.0110633 -0.0200241 0.000679941)
(0.0109803 -0.0276389 0.000630131)
(0.0113661 -0.0253356 0.000540122)
(0.0106746 -0.0221024 0.00081297)
(0.0119911 -0.00452309 0.000490182)
(0.0119089 0.000656925 0.000339323)
(0.0121152 0.0013475 0.000128314)
(0.0116545 -0.00600883 0.000747143)
(0.0119672 -0.0142997 0.000173217)
(0.0124626 -0.0170504 -1.69869e-05)
(0.0122494 -0.0189542 0.000138834)
(0.0121899 -0.0126012 -8.77437e-06)
(0.0123338 0.00791578 -0.000812187)
(0.0166487 0.00652126 -0.00138426)
(0.00611831 0.0119289 -0.000127973)
(0.0165527 0.00624873 -0.00126704)
(0.00610515 0.0124472 -8.01384e-05)
(0.012064 0.00807168 -0.000846035)
(0.0122227 0.00724202 -0.000343516)
(0.016302 0.00280205 -0.000462773)
(0.00614256 0.0153925 0.000209603)
(0.0163511 0.00344416 -0.000605285)
(0.0118604 0.00784375 -0.000221162)
(0.00614632 0.0148817 0.000160144)
(0.0217135 -0.000721045 -0.00247106)
(0.0181755 0.00472087 -0.00186178)
(0.0182978 0.004039 -0.00177367)
(0.0215327 0.00039048 -0.0025425)
(0.0226282 -0.0201577 -0.00339071)
(0.0222658 -0.0277688 -0.00363678)
(0.0227129 -0.0222332 -0.00337052)
(0.0221839 -0.0254667 -0.00362205)
(0.0220624 -0.00462649 -0.00218825)
(0.0183409 0.000719518 -0.00118702)
(0.0220871 -0.00610641 -0.0020534)
(0.0184558 0.00138307 -0.00137994)
(0.0221318 -0.0144406 -0.00333861)
(0.0214978 -0.0171847 -0.00342005)
(0.0219122 -0.0127443 -0.00330658)
(0.0217078 -0.0190879 -0.00347857)
(0.0111268 0.00798804 -0.00110562)
(0.00543446 0.0114968 -0.000661592)
(0.015958 0.00697728 -0.0014638)
(0.0108937 0.00839666 -0.00104238)
(0.00542236 0.0110738 -0.000690595)
(0.0159475 0.00735294 -0.00156544)
(0.0131769 0.00187359 -0.000789159)
(0.0128628 0.0051791 -0.000862711)
(0.013024 0.000871103 -0.000580046)
(0.0129289 0.00555998 -0.00100994)
(0.0124333 -0.0105057 -0.000246798)
(0.0125256 -0.0164424 -6.96432e-05)
(0.0122562 -0.0120595 -6.90909e-05)
(0.0126925 -0.0146969 -0.000227612)
(0.0122983 0.00796765 -0.00103467)
(0.0165464 0.00712826 -0.001488)
(0.00605476 0.0115346 -0.000164064)
(0.011963 0.00842345 -0.000921392)
(0.0165108 0.00747724 -0.00158218)
(0.00602054 0.0110758 -0.000202959)
(0.0212626 0.00173812 -0.00263252)
(0.0180569 0.00511715 -0.00188211)
(0.0214678 0.000741048 -0.00256528)
(0.0180071 0.00547847 -0.00200533)
(0.0215974 -0.0106514 -0.00326753)
(0.0214242 -0.0165768 -0.0034011)
(0.0218353 -0.0122033 -0.00329609)
(0.0211967 -0.0148317 -0.00334819)
(0.0220813 -0.0295626 -0.00369944)
(0.0220021 -0.0271843 -0.00367346)
(0.0213322 -0.0186142 -0.00343608)
(0.0215377 -0.0205856 -0.00350221)
(0.0126433 -0.0178546 -9.09968e-05)
(0.0128058 -0.0160462 -0.000241557)
(0.0212602 -0.0179844 -0.00341474)
(0.0210373 -0.016176 -0.00335506)
(0.0021878 0.00181078 0.00179585)
(0.000904859 0.00320135 0.00125637)
(0.0028298 0.000366609 0.00228425)