/*--------------------------------*- C++ -*----------------------------------*\
| =========                 |                                                 |
| \\      /  F ield         | OpenFOAM: The Open Source CFD Toolbox           |
|  \\    /   O peration     | Version:  2012                                  |
|   \\  /    A nd           | Website:  www.openfoam.com                      |
|    \\/     M anipulation  |                                                 |
\*---------------------------------------------------------------------------*/
FoamFile
{
    version     2.0;
    format      ascii;
    class       volScalarField;
    location    "0.108/fluid";
    object      p;
}
// * * * * * * * * * * * * * * * * * * * * * * * * * * * * * * * * * * * * * //

dimensions      [0 2 -2 0 0 0 0];


internalField   nonuniform List<scalar> 
16422
(
-57697.6
-57714.3
-57759.8
-57839.9
-57964.1
-58144
-58389.6
-58696.7
-59014
-59161.8
-58643.3
-56275.1
-49739.6
-36325.7
-18740.6
-57558.4
-57557.7
-57554.5
-57544.5
-57518.3
-57456.8
-57322.8
-57044.5
-56485.1
-55392.9
-53325.7
-49590.5
-43359.5
-34319.8
-23788.9
-57466.8
-57454.8
-57420
-57351.8
-57229.7
-57017.3
-56652.5
-56033.1
-54995.9
-53295.1
-50593.3
-46504.1
-40749
-33450.6
-25354.1
-57666.4
-57679.7
-57715.9
-57779.3
-57876.5
-58014.6
-58197
-58410.1
-58592
-58557.3
-57836.9
-55391.4
-49335.5
-37618
-21958.3
-57529.5
-57526
-57515
-57491.4
-57444
-57351.7
-57174.3
-56837.6
-56205.1
-55033.1
-52909
-49209.5
-43222.2
-34697.3
-24729.2
-57439.3
-57424.8
-57383.3
-57303.5
-57164
-56927.2
-56530.5
-55872
-54792.5
-53056
-50345.6
-46306.5
-40692.5
-33625
-25784
-57591.3
-57596.6
-57610.7
-57634.2
-57667.3
-57707
-57741.9
-57738.6
-57613.5
-57172.1
-55999.1
-53297.6
-47819.2
-38414.2
-26072.2
-57459.9
-57449.6
-57420.2
-57364.1
-57266.6
-57101.1
-56821.6
-56348.9
-55547.7
-54193.7
-51935.4
-48285.9
-42742.3
-35174.1
-26352.6
-57373.4
-57352.9
-57295.2
-57187.7
-57006.6
-56712
-56239.7
-55489.4
-54310.7
-52490.8
-49757.2
-45822.6
-40506.5
-33930.5
-26651.7
-15717.1
-6644.51
-18876.6
-9220.89
-20500.3
-9860.21
-24902.3
-14867.1
-26015.4
-15545
-37173.2
-20638.2
-38513.5
-23636.1
-6642.43
-3173.69
-9193.06
-23051
-14963.2
-20843.9
-11111.3
-23827.8
-15904.6
-39029.2
-25057.3
-39839.5
-28691.6
-14367
-17977.1
-12225.2
-24274.3
-16468.4
-25191.9
-15975.8
-25781.9
-18513
-39838
-29544.9
-25474.8
-26968
-17176.1
-26266.1
-19223.3
-10626.1
-12093.5
-16275.3
-11406.5
-12563.2
-11019.4
-7236.79
-11618.3
-10381.8
-6418.59
-17398.9
-15607.6
-15072.5
-13242
-13617.9
-7614.82
-13874.8
-12057.6
-18112.1
-16724.2
-22107.6
-20492.4
-18407.1
-14583
-11985.6
-16820.8
-23524
-21039.6
-23593.3
-24391.7
-21460.7
-22604.5
-20007.7
-12708.5
-19623.9
-17549
-25852.7
-22736.8
-26936.1
-27015
-23830.1
-20243.1
-17452.5
-21920.2
-28085.8
-27680
-27918.2
-24748.6
-18024.5
-22396.7
8143.59
13138.7
416.525
14394.7
1295.09
6936.74
8452.76
-1829.35
1584.36
-9867.55
-7868.93
-14485.7
-5355.53
-12650.7
-12102.3
-7448.26
171.84
-8718.48
-4936.04
-2619.73
-10743.2
-22823.4
-21380.5
-24248.8
-20280.8
-23432.9
-23759.5
-21787.4
-17643.6
-21512.7
-20581.5
-19043.5
-22550
19823.1
39788.8
36731.1
39316.9
-9506.97
-5815.3
-8979.71
-5163.42
-8498.36
-10042
-9213.41
-5298.65
-8404.53
-4903.21
-8248.62
-9241.02
-8028.93
-9473.74
-8852.18
-8562.91
-7317.79
-4599.2
-4772.98
-7166.5
-7430.1
-5379.77
-7946.5
-4883.43
-7914.23
-8701.65
-8732.96
-7777.78
2914.08
11141.3
-999.146
5089.55
8787.21
-2696.13
301.121
3132.04
-6674.27
-2273.76
5950.11
-4640.9
18628.2
14561.3
24354.9
29600.8
35533.1
31260.5
12961.1
-11730.4
-6833.02
-9653.08
-10797.1
-8071.02
-10517.2
-12756.2
-10964.8
-12534.4
-9467.17
-11465.1
-13891
-9670.14
-9765.93
-8799.27
-10842.5
-9323.99
-7692.96
-6684.29
-10382.7
-9006.62
-5595.24
-8173.18
-6383
-10001.5
-12598.6
-11252.6
-11104.4
22505.3
17011.9
9956.92
15185.2
-17297
-16838.7
-16871.3
-15428.9
-15789.6
-18411.2
-16193.6
-12468.1
-13599.1
-13990.7
-15016.7
-14724.4
-13127.4
-16413.8
-14989
-14375.6
-11940.5
-8054.16
-10757.6
-9202.51
-12715.5
-13065.8
-11493.3
-14512.6
-12341.5
-10809.1
-13561.6
-9597.03
-16042.1
-10231
-16147.6
-14161.9
-12368.4
-17717.7
-17723.2
-16073.5
-20394.8
-19248.2
-14322
-19101.8
-20416.2
-18121.8
-17865.1
-19420.3
-19354.4
-18847.2
-21297.4
-21485.4
-20590.7
-20448.3
-19732.6
-22153.2
-15991.1
-16867.5
-14784
-18193.9
-15540.7
-13991.6
-12823.6
-16662
-15155.8
-11213.8
-13963.5
-12426.9
-16378.1
-19795.1
-18606.7
-17501.6
-24227.3
-24647.5
-23336.4
-23966.7
-22728.4
-24812
-23612.9
-22388.8
-21354.7
-23237.8
-22897.9
-22084.4
-19190.9
-22393.3
-21508.3
-20091.7
-18043.9
-14367.7
-17018.7
-15459.6
-18873.2
-20158.9
-17856.5
-21195
-18366.4
-16804.9
-19283.4
-15807
-25267.5
-22341.8
-24933.8
-24551.6
-23194.5
-25565.1
-25864.3
-23932.9
-26087.6
-25778.1
-25224.5
-23869.4
-25308.9
-25760.9
-24367.2
-26172.3
-26209.1
-24800.5
-21154.4
-22658.1
-20370.6
-23400.9
-20624.4
-18294.7
-20375.1
-17119.5
-19569.4
-18014.8
-21395.2
-23621
6537.39
9572.63
1369.8
10251.9
1915.85
5891.54
6284.27
-2372.95
12393.2
-120.733
39730.4
35897.6
37335.5
-10534.9
-9411.06
-13461.4
-8295.51
-12570.7
-11559.7
-4906.94
-864.178
-6729.82
-3721.19
-2154.41
-7745.91
23174.6
20548.9
10231.3
12713.6
-22313.3
-21675.6
-23289.9
-21187.6
-22889.4
-22758.9
-19637.3
-17557.7
-19947.9
-19001.5
-18252
-20512.5
-1917.12
-3668.57
-9588.71
-8267.72
23452.6
14056.6
15197.8
22052.2
37791.6
39321.2
35483.7
35556
37016.9
33970
24477.1
15527.5
-6267.97
-3334.34
-7117.47
-2897.49
-6790.35
-6631.32
-5956.24
-4077.82
-6918.09
-3063.11
-6494.04
-6251.49
-8465.23
-8261.25
-7834.43
-8829.08
-5508.72
-3905.88
-3963.61
-5463.97
-6024.5
-4780.72
-6323.47
-4482.91
-7928.92
-7587.24
-7422.16
-7944.92
4210.62
8702.97
696.169
5079.35
7756.87
-43.5426
-1316.3
461.557
-5718.05
-2510.3
1754.75
-4699.39
19626.5
13576.9
21484.6
11979.6
24279.1
23569.6
26156
21622.8
31453.5
34989.6
33390.9
33120.5
12735.2
3790.54
5965.8
10235.4
-7540.5
-3864.1
-7496.82
-7058.22
-4455.1
-7940.87
-10567.4
-8988.82
-11320
-8167.97
-10693.8
-11248
-9446.18
-8430.72
-8970.15
-9004.78
-8208.49
-7194.07
-6655.56
-8748.48
-6809.56
-4892.03
-6434.94
-5263.86
-11228
-11974.8
-11167.8
-11902.1
-3332.3
-3395.89
-4217.83
-3918.93
24057
26611.9
35334.6
33494.1
-6643.13
-6102.08
-4330.08
-4703.09
-238.213
-7141.59
-5262.86
-2424.34
18010.1
22682.3
20028.5
20720.9
6891.81
3054.46
884.029
9391.9
10048.2
9652.69
12147.4
7544.47
-15902.3
-15314
-16232.9
-14575.3
-15639.4
-16532.1
-12594.5
-9802.61
-11926.6
-10625.9
-11910.7
-12563
-14958.8
-16342.8
-15550.3
-15655.1
-9506.07
-7379.28
-8933.11
-7952.87
-12832.1
-12245.8
-12130
-13075.7
-11306.2
-10392.5
-11918.9
-9770.12
-13490.5
-10492.5
-14301.2
-12542.4
-11525.2
-15128.6
-17630.3
-16825.6
-19370.6
-18339.4
-16051.9
-18743.4
-5146.85
-7739.72
-3123.68
-9475.17
-1993.85
-1876.26
27.8117
-3863.28
4368.58
8834.65
6730.79
6467.49
-10457
-15307.3
-14005.3
-11984.9
-17710.1
-16011.2
-16787.6
-17119.6
-16701.4
-17348.7
-20340.7
-20282.9
-20309.2
-19748.1
-19856.7
-20810
-16557
-16597.6
-15881.9
-17354.9
-14509.2
-13641.2
-13052.3
-15077.8
-12731.7
-10599.8
-12121.9
-11222.3
-18449
-20064.7
-19437.8
-19030.4
-6830.16
-7407.05
-9868.95
-9240.74
-1301.1
606.424
9412.14
7052.6
-13161.3
-12563.9
-10079.3
-10708.5
-17310.1
-20638.6
-19816.6
-18282.5
-6164.27
-2487.65
-4233.17
-4459.07
-13834.5
-15711.5
-16877.4
-12463.8
-10586.6
-10109.7
-8799.17
-11848.4
-23496.5
-23669.7
-23240.4
-23319.1
-22929
-23812.4
-21666.7
-20776.4
-20727
-21260.6
-21240.1
-21141.4
-21233.3
-22822.6
-22375.5
-21670.2
-15810.3
-13834.2
-15263.1
-14403.8
-19762.3
-20262.5
-19217
-20842.1
-17341.8
-16507.9
-17814.3
-16009.6
-23560.8
-22131.5
-23652.8
-23168.1
-22563
-24006.7
-19445.9
-20890.4
-18585.1
-21616
-13382.6
-10526.4
-12247.1
-11711.3
-24380.5
-23988.5
-23526.6
-24098.7
-24300.2
-23806.9
-22211.2
-22962
-21809.4
-23367.9
-18412.5
-16669.5
-17966.8
-17141.6
-13358
-13936.3
-16079.6
-15571.9
-10011
-11207.1
-16245
-16726.5
7034.94
11058.7
2546.94
7295.19
10778
2322.86
6874.43
11126.3
2624.09
7377.6
10659
2228.67
8211.96
14255.1
39901.8
38979.7
39520.4
38726.8
37750.4
-9465.36
-5935.83
-10701.6
-8369.9
-7128.2
-11648.8
-6088.44
-4695.82
-9747.3
-7240.79
-3443.57
-8755.39
17029.1
19657.1
16145.9
13569.9
-21836.8
-20114.1
-22014.6
-21333.3
-20665.2
-22465.1
-20241.8
-19532.3
-21552.8
-20808.8
-18913.1
-21046.9
-5832.14
-4232.09
-6345.66
-7801.61
25426.5
28771.8
30281.4
23978.6
23837.9
16025.4
15498.5
24594.7
25822
31682.6
30693.6
26654.6
37989.6
39555.8
37772.5
38676
39237.9
37184.4
37034.2
33844.1
37044
33257.8
36456.4
33852.1
37264.8
34095.5
34748.9
30074.9
31594.9
33224.1
35905.5
38426.3
37432.6
36935.5
35171.6
33020.7
32010.8
36208.4
24739.6
16109.3
15636.8
24694
24701
17105.7
26949
32439.6
27069.5
31909.8
26815.6
32473.8
27127.5
32731.7
-5990.72
-2381.03
-6377.35
-2572.48
-5808.37
-6541.17
-5744.29
-2308.73
-6289.48
-2524.88
-5692.91
-6344.65
-8443.56
-8227.93
-7907.4
-8794.26
-8362.81
-7471.16
-7718.49
-8122.77
-8344.82
-7591.97
-7817.03
-8108.41
-5536.82
-4123.39
-5665.96
-3992.23
-5952.23
-7048.58
-7085.76
-5908.63
-5979.95
-7238.32
-6108.56
-7112.21
-6468.67
-7921.12
-7606.99
-6769.95
-5939.37
-4180.79
-5723.01
-4397.44
-6383.02
-7295.93
-7518.26
-6165.67
-7950.96
-7417.07
-7391.58
-8061.42
-7905.16
-7347.89
-7382.47
-7889.69
-7929.65
-7534.02
-8047.92
-7408.58
3226.82
5546.61
-1770.37
2166.06
6687.61
-871.943
-130.323
4295.58
-2720
1016.17
3047.72
-3694.45
21506.6
28192.2
23408.3
26234.4
18944.3
9473.63
11391.9
16746
20815.5
23220.5
25526.1
18569.8
25147.1
29444.4
27663.6
27006.4
23468.5
17618.2
20283.4
20799.2
24339.9
23694.6
26873.1
21151.6
30689.1
29492.8
32641.8
27529.7
30747.2
30232.3
28470.9
32430.8
29978.8
24508.6
26818.4
27685
13554.2
8775.71
6674.05
15957.8
14482.5
16360
19012.1
11923
15316.1
22409.6
17775.8
19874.4
-8077.51
-5830.31
-8959.93
-5114.05
-8665.49
-8425.03
-9907.39
-6582.26
-9503.34
-7362.55
-9268.34
-10093.5
-9383.39
-8348.68
-8928.82
-8756.41
-9620.12
-9900.83
-9218.9
-10182
-9548.81
-9384.55
-8903.93
-10085.3
-8036.6
-5990.71
-7540.61
-6483.74
-8672.01
-10493
-9923
-9216.15
-8498.73
-9214.46
-7998.32
-9741.1
-7260.46
-8039.02
-6882.37
-8436.95
-6944.69
-5835.86
-7385.34
-5398.52
-7396.84
-9049.49
-8580.66
-7841.65
-11010.3
-10141.4
-10901.6
-10380.1
-11083.6
-10863.2
-10280
-11729.2
-10876
-9553.81
-10274.2
-10093.6
-3556.79
-3424.75
-3614.95
-3832.63
29861.2
27456.7
30643.2
32809.3
-5433.79
-5928.72
-5277.65
-4838.84
510.242
-2617.72
-4622.48
2834.78
1176.24
2668.42
5067.15
-1077.93
1945.49
8419.09
4340.1
5885.2
17176.3
16721.7
19895.3
14023.6
17105
16482.3
19133.1
14413.2
16271
10474.9
13131.8
13576.5
6070.17
-1930.84
177.339
3630.87
8500.63
15471.1
11066.9
12792.1
7660.2
9277.81
5153.85
11910.3
9218.84
3779.37
6210.65
6722.46
10904.8
15597.5
13004
13523.2
10072.2
9604.69
7041.55
12688.2
-15260.9
-13036.4
-14425.3
-13814.9
-14604.4
-15042.2
-13276.4
-12256.6
-13824.6
-11446
-13958.1
-13189.9
-14724.6
-14460.8
-15278.8
-14014.7
-14673.2
-14200.5
-13567.6
-15349.1
-14447
-12720.9
-13760.6
-13357.1
-9978.49
-10686.9
-9402.01
-11287.4
-9700.02
-8747.06
-10295.4
-8148.23
-10173.4
-12108.1
-11489.6
-10771.4
-13067.7
-14188.8
-13356.9
-13779.6
-12621.6
-11061.5
-11947.5
-11674.7
-12847.6
-12511
-13533.7
-11881
-11784.4
-13773.1
-13148.3
-12397.3
-11103.5
-8949.22
-10495.2
-9563.96
-11581.4
-12314.5
-12940.7
-10971.7
-14404.7
-13468
-16683.6
-15271.5
-12523.4
-15923.5
-16877.4
-14370.8
-17390.4
-16090.1
-15229.3
-18083.5
-3888.14
1898.99
-1797.04
-341.758
-5790.04
-11613.2
-10022.9
-7648.97
-4552.02
-3127.32
-1056.21
-6475.01
-1342.46
2757.08
694.838
692.962
-2748.37
-7098.21
-5335.42
-4598.99
-2104.22
-2787.17
-83.9806
-4721.37
3562.66
2996.21
5913.51
720.31
3606.26
3476.32
1402.71
5696.97
2806.1
-2115.69
-8.22839
617.144
-9924.51
-12111.9
-13553.8
-8236.25
-9383.75
-8007.73
-6281.59
-10969
-8832.15
-3784.44
-7081.85
-5681.57
-18280.1
-18005.9
-18413.1
-17366.6
-18833.2
-17885.9
-19853.1
-18601.5
-18902.1
-19187.9
-19343.8
-19391.4
-16227.2
-14408.5
-15569.6
-15030.6
-16777.2
-18319.8
-17602.6
-17424.8
-16441.6
-15839.5
-15234.2
-17074.9
-14317.3
-12248.5
-13730.7
-12853.3
-14977.6
-16921.9
-16363.8
-15541.8
-14787.1
-15593.5
-14203.8
-16174.8
-13208.8
-13978.8
-12600
-14594.7
-12932.8
-12045.1
-13533.5
-11428.8
-13409.2
-15397.5
-14796.5
-14007.7
-18249.6
-18547.9
-19220.1
-17633.9
-18079.7
-17368.7
-16809.7
-18652.6
-17884.1
-16036.4
-17279.6
-16620.2
-8207.52
-7604.54
-8412.11
-9031.86
3340.06
1275.56
4062.55
6279.87
-11748.7
-12361.4
-11541.8
-10918.1
-16968.2
-18604
-19529.7
-15875.7
-16510.6
-15234.6
-14106.7
-17525.5
-16154.1
-12450.6
-15014.8
-13711.4
-6872.32
-7655.93
-5187.07
-9252.98
-6706.02
-6383.82
-4791.66
-8253.73
-7406.27
-11197.6
-9757.23
-8933.47
-14264.6
-18282.8
-17240.4
-15492.6
-12891
-8551.7
-11465.9
-10112.7
-13338.1
-12009.7
-14615.8
-10603.9
-11229.9
-14511.9
-13352.4
-12471.1
-10143.8
-6891.98
-8338.54
-8744.34
-10794.9
-11651.2
-12945.2
-9416.17
-23165.1
-22557.4
-22261.2
-22949.1
-22815.3
-22604.8
-22072.7
-22157.3
-21912.3
-21720.3
-22461.3
-21533.6
-21081.8
-21730.2
-22219.5
-20609.5
-20837.9
-19985.9
-19542.5
-21274.7
-20687.1
-18917.2
-20216.4
-19390.4
-16267.4
-17102.8
-15725.3
-17635.1
-15988.3
-15137.5
-16512.1
-14589.9
-16443.3
-18312.2
-17807.3
-16961.1
-19937.9
-21562.7
-21028.3
-20446.8
-19376
-17549.3
-18836.7
-18081
-19549.6
-18755.5
-20054.8
-18252.5
-17779.6
-19552.6
-19104.9
-18244.9
-17180.5
-15315.8
-16681.9
-15839.4
-17620.7
-18475
-18951.5
-17128.6
-23931.2
-23350.4
-24650.8
-24276.7
-22970.6
-24338.4
-24893.6
-23703.4
-24931.8
-24591.5
-24037.3
-25205.4
-18741.9
-15587.5
-17841.7
-16594.1
-19715
-22481.1
-21840.2
-20477.9
-19023.4
-17806.8
-16909.2
-19822.2
-16002
-13497.7
-15084
-14465.1
-16542.8
-17454.4
-15644.2
-18280.9
-13977.3
-14876
-12862.1
-15912.6
-13741
-13157.9
-14761.9
-12087.5
-14328.4
-17164
-16238.1
-15329.3
-21388.5
-22676.5
-23239.5
-20715.2
-20777.6
-18087.3
-20070.9
-18886.9
-24646.5
-24870.1
-24322.2
-24593.2
-24898.9
-24070.4
-25349.2
-25119.9
-24553
-25363.6
-25126.3
-24777.4
-21817.4
-20127.9
-21414
-20541.5
-22339.7
-23864.2
-23496.5
-22708.2
-21946.2
-21058.1
-20673.8
-22317.4
-19501.4
-17884
-19109.5
-18302.9
-19900.8
-20763.8
-19516.9
-21125.4
-18833.1
-19696.3
-18394.8
-20114.9
-18556.1
-17740.1
-18974.8
-17294.5
-18974
-20639.1
-20249.2
-19385
-23161
-23978.2
-24308.7
-22825.3
-22774.8
-21180.6
-22435.3
-21535.8
-14682.9
-14126.2
-14865.1
-15397.9
-13016.3
-13995.9
-12671
-11588.9
-17485.6
-17913.9
-17338
-16883
-7450.53
-5668.99
-8310.4
-6749.49
-8394.65
-5772.98
-7361.23
-9533.6
-8616.05
-8447.4
-10919
-10304.5
-7799.9
-10196.5
-11650.7
-9142.71
-11564.7
-10551.6
-12259.8
-10904.3
-9880.01
-15472.1
-14156.2
-14484.7
-16500.9
-15813.5
-13736.4
-16198.5
-17563.6
-15207.2
-17152.5
-16211.9
-17789.5
-16894.2
-15906.2
-20398.9
-19086.6
-20490.4
-18924.6
-11480.7
-13380.9
-23416.2
-21723.9
5460.31
8012.39
1085.1
8382.51
1380.53
5122.56
3329.41
-1664.3
-6784.77
-2488.64
-1874.88
-2339.5
3184.77
-12228.1
-9532.03
-12570.9
-14621
-11385
-11654.6
-14353
-10188.7
-14213.1
-13256.5
-15141.1
-12906.3
-12174.1
-15868.3
-11299.1
-10615.7
-13531
-10091.9
-13105
-11785
-4205.21
-1706.32
-6442.68
-3633.71
-2327.21
-6941.02
-15347.7
-13451.8
-16569.4
-17699.4
-13797.8
-16741.8
-14791.3
-14720.8
-18992.6
-17802.7
-18685.8
-16878.6
-15833.2
-19657.6
-22395.6
-22230.6
-23133.9
-22009.3
-22943.7
-22605.6
-18968
-18025.4
-19581.5
-18652.9
-18360.3
-19865
-20103
-18294.7
-21113.5
-21443.2
-17893.1
-20583.4
-18852.3
-19316.1
-22015.1
-22225.6
-19740.8
-4710.94
-2363.99
-6655.75
-2110.83
-6467.2
-4929.05
-5114.25
-4991.12
-6237.24
-4285.44
-6127.81
-5387.82
-8758.27
-9790.13
-11076.7
-9693.92
-9817.66
-9751.48
-8721.87
-7668.28
-6942.05
-6301.74
-8896.32
-8594.83
-7992.77
-5984.84
-8989.03
-10332.1
-11288.1
-10349.3
-10033.2
-9967.77
-9332.6
4352.86
7576.56
757.745
4735.81
7157.18
421.616
-2471.52
-1044.33
-5947.29
-3049.29
-412.973
-5448.29
-5399.05
-2637.5
-6851.52
-5160.77
-2921.85
-7064.31
-9642.29
-8314.9
-11139.1
-7887.58
-10807.1
-10012.7
-8938.06
-8085.22
-6715.36
-9282.76
-9763.63
-8418.26
-7220.33
-10981
-12459.6
-13201.7
-12930.1
-11821
-12159.2
-11686.6
-10344.4
-10837.9
-10753.8
-12592.1
-11257
-9787.45
-11451
-15380
-14848.8
-16270.4
-14475.8
-15966.9
-15711.6
-10737.1
-8734.43
-11453.1
-9159.69
-10372.9
-11782.8
-13216.9
-13125.3
-13747.4
-15325.1
-13839.1
-12433.8
-14588.5
-12413.7
-11253.1
-11417.2
-13687.3
-12960.1
-13190.4
-10639.4
-14008.5
-16278.5
-16067.4
-15286.6
-14550.5
-15435.4
-14809.2
-12728.8
-11144.8
-13942.2
-12263.3
-11644.4
-14354.1
-17993.6
-17672.5
-19297.5
-18327.7
-17316.7
-18999.7
-16346.2
-15207.1
-16554.5
-16028.5
-15567.8
-16847.4
-20023.2
-19938.6
-20455
-19672.2
-20228.7
-20265.9
-14727.4
-13444.3
-12195.7
-14399.8
-15120.7
-13961.6
-12973.6
-17113.1
-18075.2
-18955.2
-19386.6
-17399.6
-18657.1
-17834.8
-16369.2
-17098.7
-15999
-18272.7
-16718
-15594.2
-17898.2
-23270.6
-23402
-23422.6
-23228.5
-23269.5
-23432
-20725.9
-20192.2
-20667.3
-20446.4
-20496.4
-20882.8
-19170.5
-18706.3
-20066.5
-20843.8
-19323.3
-18517
-20713.9
-18197.5
-16840.9
-17211.7
-18964.3
-18387.1
-18801.1
-16573.3
-19781.1
-21871.3
-21392.2
-20444.6
-19893.4
-21308.7
-20360.3
-23005.1
-22448.4
-23314.1
-22808.6
-22655.9
-23493.5
-23736.5
-23566.5
-23567.1
-23585.1
-23730.4
-23711.7
-19901.6
-18575.2
-17815.3
-19501.6
-20015.3
-19367.3
-18387.7
-21863.2
-23260.1
-21873.7
-23293.6
-21400.5
-22382
-20949.7
-22852.7
-21433.4
-20896.3
-22862.5
6520.94
9570.92
2367.54
6556.3
9534.23
2314.61
6480.47
9583.77
2416.87
6596.89
9450.42
2348.44
3474.7
-932.249
-1457.96
1323.61
1729.11
-118.719
3493.9
10785.7
14918.9
11221.5
14566.6
7027.04
4511.65
4964.67
5112.32
-8700.38
-6683.94
-10367.3
-8166.35
-7260.48
-10836.3
-7068.29
-6070.98
-9900.22
-7618.77
-5473.28
-9421.58
-21223.8
-20500.2
-21659.3
-20973.2
-20765.6
-21886.7
-20447.9
-20221.4
-21431.1
-20714.7
-19939
-21190.9
27516
31399.8
28683.1
30745.7
28114.7
22960.5
17590.2
20746.7
23507.5
18430.8
24492
22029
23723.5
25900.8
21528.7
19561.1
19115.7
25321.7
24246.2
26698.1
26800.8
28878.2
27816
29892.9
25713.3
36959.5
34472.8
36486.5
34969.7
38389.4
38931.8
39296.8
37956.7
35258.2
33955.4
33267.2
35958.7
35866.2
35899
37751.2
35622.7
36895.5
36660.3
34849.9
36731.7
38423.4
38629
37742.2
37427.9
37555.5
34383.4
31368.9
32396.3
33355.6
28833.4
31857.8
28517.5
32314.9
24502.1
19580
19405.4
24434.6
-4006.49
-1245.47
-5829.48
-1299.02
-3961.88
-5867.23
-3951.53
-1210.43
-5802.11
-1251.9
-3926.49
-5831.73
-8334.86
-7776.61
-8466.73
-8176.43
-7927.19
-8619.35
-8179.41
-8718.46
-8816.23
-9227.16
-9353.43
-8554.12
-9122.4
-8958.89
-8515.51
-8768.84
-9017.53
-8165.01
-8332.63
-8927.87
-8353.6
-8526.28
-8353.66
-8324.28
-9024.44
-8109.91
-8804.54
-8752.22
-6270.5
-7084.59
-6589.41
-7237.48
-6508.09
-6354.28
-7001.43
-5346.5
-4321.52
-4638.88
-5569.28
-5604.03
-4351.52
-5317.68
-5401.89
-5737.67
-4690.43
-4492.49
-5655.81
-5486.21
-4407.38
-6215.88
-7187.63
-6428.08
-6926.23
-6457.01
-6947.99
-6189.79
-6611.38
-7199.8
-7573.48
-6700.35
-7346.07
-6467.99
-6840.98
-5910.53
-5112.55
-6345.6
-5187.49
-6152.44
-6107.08
-4916.74
-6783.02
-7744.88
-7727.81
-7204.53
-7522.14
-7008.43
-6982.82
-5741.19
-5847.84
-4605.87
-5022.54
-5599.3
-5987.04
-4747.78
-7979.7
-7659.25
-8350.6
-7835.91
-8060.75
-7576.92
-8273.27
-8107.52
-8068.05
-8664.4
-8598.01
-8024.55
-8522.11
-8170.29
-8158.98
-8654.55
-8043.91
-8665.91
-7995.15
-8233.67
-8576.79
-7924.93
-7791.09
-7507.99
-8240.75
-7523.81
-8226.98
-7929.74
2005.78
3973.15
-2050.71
1479.29
4551.21
-1597.25
388.779
3344.06
-2515.76
928.489
2753.84
-2984.5
21839.8
21219.6
23372.2
22775.2
24920.7
20319.3
19654.9
16532.2
22277.2
17374.3
20893.4
15370.4
20980.7
23256
25569.3
27685.4
24546.6
24242.8
26369.1
18285.7
18037
16017.3
12725.3
14096.9
19557.9
16816.3
24494.1
24177.4
26199.7
22466.7
24357.9
23860.4
26140.5
25613.3
22578.4
26106.9
27910.9
28987.6
27792.9
27331.9
22727.2
18904.5
20697.4
20933
29398.1
25839.5
27393
27852.1
32375.5
34749.3
34399.3
34232
33674.3
33073.8
33476.8
30846
30170
32162.5
28848.2
30948
32787.6
30584.2
31600.8
29422.7
32079.4
17029.7
19521.3
21715.6
18696.3
20014.9
11996.8
6641.64
11310.5
8200.81
13028.2
10327.2
13641.7
16380
11229.4
11372
9728.28
15240.5
14727.2
15320.7
16485.5
18261.7
13585.5
-6854.63
-5012.97
-8633.36
-4627.75
-7185.1
-8341.16
-7848.8
-5401.76
-8915.81
-5797.79
-7514.38
-9216.1
-9623.63
-9355.53
-9462.85
-10200.3
-9140.54
-9866.2
-9967.51
-9558.48
-9128.59
-9620.86
-10095.1
-9239.58
-9480.29
-9926.33
-9304.25
-9066.25
-8568.48
-9274.52
-9012.15
-8842.06
-9558.6
-9905.64
-10612.1
-10459.4
-10283.9
-9871.69
-10256.5
-10278.2
-8680.06
-9137.89
-8539.44
-9663.28
-8868.15
-8346.1
-9483.11
-8115.44
-7467.51
-7341.23
-8670.28
-8317.59
-7110.85
-8472.97
-7772.56
-7657.83
-7005.91
-6442.76
-7981.08
-7444.66
-6769.13
-9028.71
-10014.7
-9567.28
-10217.1
-9209.56
-9842.94
-9391.88
-7734.46
-8705.32
-8812.03
-8231.55
-8505.16
-7939.96
-8030.99
-6575.59
-5333.16
-6562.23
-5836.54
-6328.79
-6805.1
-5578.5
-7460.22
-8428.71
-7960.89
-7424.69
-7208.54
-8221.3
-7671.97
-6844.58
-7354.95
-6098.4
-6135.03
-7068.54
-7135.36
-5845.93
-10719.9
-9805.1
-10551.7
-10355.6
-10333.2
-10167.5
-10927.8
-11530.1
-12167.4
-12140
-12233.6
-11675.9
-11805.5
-11977.9
-11094.8
-10988.2
-10724.3
-11685.4
-11188.2
-10673.6
-11391
-11122.1
-10721.9
-10935.8
-11719.7
-10544.7
-11315.7
-11537.3
3360.09
7612.03
4989.59
5922.84
-923.363
-5164.13
-3813.81
-2380.25
575.689
-1001.61
-2435.05
2118.88
1777.42
2676.65
4273.7
241.745
15451.5
11656.9
13446
13646.7
18944.8
22068.9
20678.5
20273.7
20761
17122.2
18829.6
16680.7
18470.3
15318.3
17278.9
17078
19103.4
15261.9
8363.87
9347.03
6660.44
11104.8
6982.46
5061.83
3510.81
8643.34
5334.29
473.712
1987.65
3706.91
10090.1
14680.8
11832.1
12889.5
10107.1
9884.92
8157.69
11856.4
10044.9
9754.98
11656.6
11432.6
8366.21
11770.1
14900.1
13411.7
13152.5
13525.4
8390.86
4827
6466.04
6724.31
-13648.3
-12101.3
-14076.8
-12506.5
-13296.4
-14398.3
-12583.3
-11700.2
-13767.7
-11286
-12946.8
-13438.3
-14169.5
-13010.4
-13838.9
-13545.4
-13724.1
-13436.5
-14273.7
-15254.9
-16226.9
-15946.6
-15819.2
-15733.2
-15372.9
-15717.6
-14787.5
-14469.2
-14718
-15467.9
-15225.7
-14314.3
-14924.6
-14612.3
-13960
-14284.6
-15132.7
-13861.2
-14703.2
-15051.8
-10542
-11539.1
-11805
-11090.1
-10696.7
-11397.5
-10940.8
-9221.5
-7835.77
-9031.9
-8429.16
-9406.91
-8841.56
-8215.78
-10150.3
-11146.4
-9933.1
-10601.3
-10312.3
-9765.54
-10996.2
-9609.23
-10178.5
-8810.91
-9000.87
-9788.09
-10004.6
-8604.24
-12837.1
-12301.9
-12587
-13410.5
-13280.7
-12164.9
-12978.1
-12901.4
-12667.7
-12667.3
-13543.9
-12432.7
-13177.9
-13116.6
-12397.1
-11895.9
-11336.6
-12128.7
-11962
-11748
-12552.5
-13372.3
-14020.6
-14210.3
-14031.3
-13697.9
-13845.4
-13566.4
-11749.4
-12214.9
-12749
-11484.6
-12628.4
-11343
-11885.7
-11214.8
-10631
-11773.7
-10402.1
-11370.6
-11622.6
-10219.1
-12156.6
-13154.2
-13454.7
-12689
-13041.5
-12285.9
-12564.8
-10808.6
-10571.2
-9402.55
-9999.12
-10404.2
-10970.7
-9809.6
-14956
-14489.9
-16675.4
-15365.3
-14051.5
-16313.5
-16154.1
-14928
-17022.1
-15765.5
-15343
-17368.8
-4031.13
-3171.6
-1796.4
-5343.97
-5115.79
-6448.85
-3773.62
-7690.1
-2663.46
1128.47
-1237.38
-361.048
-6401.74
-10011.1
-8867.92
-7639.23
-2185.94
-2576.01
-843.415
-3882.03
-1978.77
-1923.22
-651.745
-3233.5
-665.47
2057.03
701.583
676.325
-3473.57
-6323.61
-5132.89
-4701.65
2016.61
-1208.49
213.651
559.885
5142.58
8114.45
6726.83
6525.48
3533.18
3232.45
5100.13
1697.24
3606.57
3495.17
2128.42
4982.99
-7790.05
-4489.35
-6594
-5747.31
-10989.4
-14018.2
-13082.5
-12005.4
-9926.99
-11081.8
-12113.1
-8807.73
-8927.6
-8092.45
-6949.09
-10011.9
-17879.5
-17609.7
-18516.5
-17289.5
-18167.7
-18250.2
-18716.2
-17915.6
-18765.9
-18222.8
-18442.1
-19020.9
-16335.4
-15593.7
-15932.8
-16788.1
-15528.7
-16382.4
-16749.6
-16618.5
-16707.6
-16252.8
-17318.4
-16169.2
-17182.5
-16687.1
-15913.8
-15192.7
-14703.2
-15552.2
-15484.7
-15119
-15972.1
-17057.3
-17526.6
-17763.1
-18102.5
-17650.6
-17109.8
-17487.4
-14954.1
-15466.2
-14662
-15922.2
-15045
-14566.8
-15852.5
-14413.2
-13856.4
-13607
-14903.4
-14527.6
-13467.7
-14793.2
-14027.6
-13759.6
-13218.8
-12674.3
-14147
-13635.9
-13073.7
-15334.5
-16295
-15790.2
-16602.5
-15420
-16231.1
-15708.6
-13777.1
-14762.2
-15074.4
-14276.3
-14675.7
-13883.1
-14174.9
-12435.8
-11042.6
-12174
-11620.8
-12029.4
-12575.7
-11454.3
-13375.9
-14366
-13864.5
-13088
-12970.9
-14272.5
-13488.2
-12839.3
-13369.6
-12024.1
-12271.2
-12973.4
-13240
-11863.8
-17550
-16328.4
-17180.8
-16761.4
-17153.4
-16717.7
-17569.8
-18708.4
-19778.3
-19411.6
-19083.7
-19378.9
-18708
-19094.4
-18312
-17927
-18537.2
-19014
-18963.3
-17902.7
-18324.3
-17936.3
-17134.7
-17470.5
-18317.1
-17098.2
-17947.1
-18313.2
-15414.1
-13000.7
-14633
-13832.7
-17698.1
-19801.5
-19211.1
-18343.3
-17018.9
-17934.4
-18596.2
-16295.7
-16150.3
-15363.7
-14620.1
-16846.7
-8057.04
-10540.2
-9566.47
-9067.85
-5580
-3142.64
-4306.51
-4435.15
-6673.06
-6479.12
-5419.11
-7712.47
-6992.33
-7459.66
-5875.48
-8538.95
-12934.5
-12121.9
-13809.8
-11193
-13864.5
-14885.1
-15718.8
-12956.6
-14720.9
-17246
-16497.2
-15536.4
-12011.9
-9179.62
-11036.4
-10212.2
-10940.5
-11464.6
-12339.8
-10029.1
-10537
-10238.1
-9368.04
-11384.9
-9642.92
-7490.48
-8452.22
-8702.76
-11806.1
-13954.4
-13169.9
-12625.5
-22387.1
-22062.5
-22259
-22268.4
-22199.1
-22437
-21810.3
-21856.1
-22082.5
-21639.1
-22009.9
-21894.8
-20345.9
-19187.1
-20004
-19501.4
-20033.8
-19501.3
-20311.6
-21447.2
-22471.1
-22110
-21660.9
-22180.2
-21376.4
-21736.8
-21147.2
-20776.6
-21559.5
-21814.9
-21876
-20834.1
-21083.2
-20646.6
-19800.8
-20099
-20893.9
-19805
-20607.4
-20937
-16784.4
-17710.5
-18002.5
-17191.6
-16852.2
-17665.5
-17127
-15531.8
-14238.3
-15270.9
-14739.4
-15633
-15165.8
-14613.9
-16433.8
-17369.5
-16150.8
-16965
-16506.3
-16074.7
-17319.8
-15890
-16333.7
-15102.4
-15342.8
-15986.7
-16240.5
-14982
-19378.1
-18543.3
-18863.9
-19689.2
-19712.2
-18529.7
-19360.3
-19826.2
-20159.1
-19441.8
-20516.2
-19464.3
-20530.3
-19794.7
-19033.7
-18205.4
-17832.4
-18673
-18677.8
-18186.1
-19022.7
-20174.7
-20463.7
-21233.6
-20862.2
-20889.4
-20512.3
-20133.6
-17785.7
-18329.7
-18681.6
-17520.4
-18648.2
-17460.5
-17842.7
-17241.7
-16704.2
-17636.9
-16480.1
-17323.3
-17558.4
-16376.3
-18101.7
-18986.7
-19256.7
-18459.5
-18957
-18154.9
-18409
-16916.5
-16671.2
-15695.3
-16148.4
-16582.5
-17001.9
-16040.1
-23920.7
-23795.3
-24472.2
-24083.7
-23624.1
-24323.7
-24393.1
-23963.5
-24612.4
-24241.1
-24123.8
-24751.9
-18699.3
-17944
-17353.6
-19248.5
-19511
-20341
-18941.8
-20859.9
-18117.7
-16065
-17499.5
-16727.8
-20044.2
-21800.7
-21340.2
-20549.7
-16709.2
-17282.3
-16118.2
-17842.4
-15633.2
-13980
-15015.7
-14619.5
-14834.7
-16689.7
-16062.7
-15493.9
-12953.6
-11065.7
-12190.3
-11851.2
-14137.8
-14696.8
-13402.4
-15398.6
-13678
-13306.5
-14364.4
-12597.9
-20248.7
-18499.9
-19762.4
-19025.1
-21462.3
-22219.5
-22622.7
-21017.6
-24445.3
-24627.7
-24508.4
-24491.1
-24573.7
-24385.6
-24815.5
-24756.7
-24624.7
-24885.2
-24695.5
-24740.2
-21742.1
-20902.5
-21174.1
-21933
-20919.9
-21687.6
-21990.2
-22277.6
-22745
-21929.2
-22916.7
-22011.5
-23010.2
-22190.9
-21484.2
-20641.9
-20382.2
-21167.4
-21215.3
-20656.1
-21433
-22531.5
-22681.1
-23164
-23505.2
-23263.4
-22440.2
-22775.5
-20060.5
-20611.7
-19844
-20865.5
-20094.8
-19807.8
-20854.8
-19271.4
-19071.3
-18567.3
-18211.4
-19332.2
-19008
-18486.5
-19275.6
-20115.6
-20359.7
-19585.6
-20097.9
-19316.9
-19546.4
-18165
-17023.1
-17940.8
-17427
-17866
-18237
-17333.6
-18995.8
-19847.4
-19546.3
-18753.6
-18706.8
-19826.9
-19040.2
-18454.9
-18802.3
-17724.6
-17927.8
-18523.8
-18736.1
-17635
-22454.4
-21417.9
-22166.4
-21628.2
-22226.8
-21652.7
-22392
-23228
-22907.2
-23731.3
-23835.2
-23949.6
-23006
-23126.7
5766.44
8980.77
1862.68
8719.11
1643.74
6007.49
3637.28
8463.82
1494.71
7451.07
968.342
4991.23
-3643.67
-1538.61
-1375.75
-2233.7
652.217
6644.19
9704.02
10640.8
11417.7
9508.69
7462.96
9034.09
4652.01
2720.82
39581.3
36408.3
36897.9
-10794
-8997.3
-12216.5
-9539.87
-12665
-10287.5
-4789.3
-3597.46
-7941.97
-2975.26
-7444.17
-5362.14
22308.3
21420.4
11044.7
11882.2
-22173.8
-21536.3
-22538.4
-21773.5
-22743.9
-21948.6
-19283.1
-19018.1
-20416.8
-18698.2
-20145.6
-19585
-2511.18
-3100.08
-9160.67
-8717.31
19904.9
20797.2
23029.3
20402.9
20294.2
17067.5
13616.9
14469.3
16862.1
14031.3
16610.8
17316.4
17475.6
18090.6
14847.7
14754.4
14407.9
17724.9
17837.1
19471.9
22562.5
19485.6
18995
19965.4
38423.1
38927.5
36123.5
35015.1
35660
36077.8
35120
35651.5
36601.6
36569.4
36145.5
34515.5
34622.7
35162.3
21335.6
20987
18498.4
14835.8
18308.1
-4517.46
-1696.92
-6161.61
-1886.13
-6301.78
-4358.56
-4665.48
-1858.1
-6134.01
-2430.47
-6254.98
-4359.52
-8651.83
-8416.13
-8577.26
-8533.91
-8534.56
-8598.95
-8287.84
-8113.05
-8612.28
-8137.79
-8738.79
-8472.33
-8465.34
-8209.71
-7968.46
-7861.97
-7991.99
-8337.31
-8338.99
-8778.79
-8699.36
-8796.51
-8913.6
-8661.58
-5024.43
-5487.72
-5003.09
-3932.79
-4463.52
-4479.93
-4514.7
-3942.85
-4493.5
-5473.09
-4976.72
-4988.29
-6118.03
-5540.37
-5633.56
-5329.11
-4674.72
-5223.12
-6216.7
-5838.09
-5731.84
-5031.78
-4575.95
-5124.79
-8012.67
-7899.76
-7923.81
-8026.81
-7895.11
-7813.53
-7538.21
-7528.88
-7838.62
-7542.66
-7725.83
-7898.74
-7828.65
-7731.58
-7438.52
-7441.67
-7448.66
-7847.81
-7725.59
-8001.63
-7922.71
-7954.66
-7893.08
-8041.36
3924.87
6189.42
-331.675
6678.46
55.1612
3478.11
-1886.34
854.998
-4448.1
237.742
-4945.87
-1316.61
17302.9
20277.8
17161.7
17786.8
16678.1
15566.7
13133.1
16354
13061.8
16100.9
12622
15816.1
17893.1
20891.2
18946.1
18457.7
18377.5
14999.6
14654.4
12534.3
11538.4
12093.7
15253.3
14398
25009.5
23401.4
24138.9
24437
22995.1
23874
25610.2
25306.7
24748.9
22516.7
22370.4
23258
32132.1
32127.8
32798.9
34549.6
34399.9
33949.2
32774.7
34047
33437.7
32654.1
33770.9
33315.9
9243.43
10525
11899.1
10044.6
9721.87
6470.55
3339.25
4518.57
6002.53
4067.61
5692.97
6776.79
7235.4
8299.55
5514.06
5233.57
4784.27
8000.45
7533.87
8453.05
11077.1
8123.76
7648
8929.51
-5662.31
-3560.02
-7544.38
-3230.06