/*--------------------------------*- C++ -*----------------------------------*\
| =========                 |                                                 |
| \\      /  F ield         | OpenFOAM: The Open Source CFD Toolbox           |
|  \\    /   O peration     | Version:  2012                                  |
|   \\  /    A nd           | Website:  www.openfoam.com                      |
|    \\/     M anipulation  |                                                 |
\*---------------------------------------------------------------------------*/
FoamFile
{
    version     2.0;
    format      ascii;
    class       surfaceScalarField;
    location    "0.108/fluid";
    object      phi;
}
// * * * * * * * * * * * * * * * * * * * * * * * * * * * * * * * * * * * * * //

dimensions      [0 3 -1 0 0 0 0];
oriented        oriented;


internalField   nonuniform List<scalar> 
46880
(
0.000174108
0.00153147
-0.000168332
-1.42142e-05
0.000197207
-0.0015359
0.00153817
-0.000190441
-1.66225e-05
0.000257419
-0.00154838
0.00155318
-0.000248243
-2.15822e-05
0.000368726
-0.00157284
0.00158136
-0.000355013
-2.98646e-05
0.000556228
-0.00161351
0.00162658
-0.000534235
-4.27572e-05
0.000862455
-0.00167286
0.00169038
-0.000825224
-6.22543e-05
0.0013568
-0.00174597
0.00176406
-0.00129067
-9.14859e-05
0.00214855
-0.00180557
0.00181051
-0.00202579
-0.000134792
0.00340035
-0.00176589
0.00171912
-0.00316346
-0.000197365
0.00532395
-0.00140191
0.00120789
-0.00485462
-0.000282321
0.00806889
-0.000175406
-0.00038126
-0.00714124
-0.000377133
0.0112307
0.00303893
-0.00435024
-0.0095125
-0.000409274
0.0123129
0.00988498
-0.0122494
-0.00980277
-0.00013975
0.00439124
0.0197412
-0.0216326
0.000836501
-0.00332063
-0.0136618
0.0204484
-0.0172894
0.00171423
0.00881408
0.000138917
0.00152307
-0.000125505
-1.31454e-05
0.000156647
-0.00150135
0.00149425
-0.000141386
-1.50412e-05
0.000203389
-0.00147253
0.00146491
-0.000183377
-1.90513e-05
0.000289609
-0.00143952
0.00142975
-0.000260782
-2.56262e-05
0.00043296
-0.00139411
0.00137931
-0.00038915
-3.55342e-05
0.000661999
-0.00132133
0.00129592
-0.000593284
-4.98116e-05
0.00101918
-0.00119228
0.00114558
-0.000909289
-6.97225e-05
0.00156173
-0.000951919
0.000863932
-0.00138397
-9.64269e-05
0.00235309
-0.000498177
0.000332543
-0.0020644
-0.000129927
0.00342511
0.000348664
-0.000652876
-0.00296127
-0.000166525
0.00466655
0.001873
-0.00240111
-0.003952
-0.000192758
0.0055835
0.00441018
-0.00522337
-0.00459994
-0.000175072
0.00502118
0.00798622
-0.00894601
-0.0040077
-5.57229e-05
0.00163847
0.011427
-0.0119619
-0.00130122
0.00019838
-0.00336617
0.0122372
-0.0119351
0.00046652
0.0025994
7.68115e-05
0.00151769
-5.84383e-05
-1.24447e-05
8.63246e-05
-0.00147929
0.00146622
-6.5647e-05
-1.40171e-05
0.000111694
-0.00142423
0.00140875
-8.48906e-05
-1.74348e-05
0.000158371
-0.00135509
0.00133398
-0.000120286
-2.29579e-05
0.000235289
-0.00125674
0.00122506
-0.000178519
-3.1046e-05
0.000356289
-0.0011054
0.00105517
-0.000269895
-4.21918e-05
0.000540384
-0.000862467
0.000780936
-0.000408392
-5.67414e-05
0.000809704
-0.000467602
0.000335413
-0.000609798
-7.44659e-05
0.00118033
0.000167921
-0.000377622
-0.0008844
-9.36599e-05
0.00163781
0.00115991
-0.00147798
-0.0012183
-0.000109764
0.00208724
0.00262255
-0.00306853
-0.00153726
-0.000113467
0.00228899
0.004577
-0.00512219
-0.00166479
-8.9938e-05
0.00186822
0.00677377
-0.00729077
-0.00134032
-2.37921e-05
0.000588153
0.00854417
-0.00881704
-0.000415855
8.46925e-05
-0.00118446
0.00907723
-0.00897243
0.000855117
0.000204129
5.52522e-05
0.000171216
0.00152992
-0.00016554
-6.77063e-05
6.43262e-05
0.00019368
-0.00153
0.00153069
-0.000187098
-7.87345e-05
8.31913e-05
0.000251939
-0.00153528
0.00153798
-0.000242979
-0.000101734
0.000114916
0.00035938
-0.00155021
0.00155574
-0.000346071
-0.000140431
0.00016437
0.00053939
-0.00157695
0.0015856
-0.000518201
-0.000200757
0.00023917
0.00083153
-0.00161553
0.00162644
-0.000795944
-0.000291943
0.000350791
0.00129927
-0.00165798
0.00166646
-0.00123672
-0.000427701
0.00051514
0.00204053
-0.00167362
0.00166534
-0.00192595
-0.000626909
0.000750903
0.00319737
-0.00157655
0.00151424
-0.00297964
-0.00091158
0.00106819
0.00494594
-0.00115519
0.000952287
-0.00452284
-0.00129326
0.00142428
0.00739757
6.34324e-05
-0.000588342
-0.00657817
-0.00172281
0.00159057
0.0102164
0.00298776
-0.00413071
-0.00871664
-0.00194831
0.000891403
0.0115877
0.00877893
-0.0107074
-0.00929328
-0.00125281
0.0068457
-0.00170503
0.0167764
-0.0184074
0.00144257
-0.00494497
-0.0064022
-0.00500655
0.0188348
-0.016971
0.00510941
0.00443976
5.11219e-05
0.000136637
0.0015219
-0.00012345
-6.2655e-05
5.83008e-05
0.000153952
-0.00149666
0.00148825
-0.000138934
-7.14067e-05
7.36018e-05
0.000199182
-0.00146194
0.00145264
-0.000179634
-9.00851e-05
9.8894e-05
0.000282511
-0.00142161
0.00140968
-0.000254459
-0.000120986
0.000137036
0.000420328
-0.0013664
0.00134863
-0.000377887
-0.000167587
0.000191925
0.00063918
-0.0012804
0.00125112
-0.000573007
-0.000234593
0.000268241
0.00097819
-0.00113447
0.00108306
-0.000873111
-0.000327583
0.000370159
0.00148885
-0.00087465
0.000781806
-0.00132035
-0.000451482
0.000497436
0.00222637
-0.000403764
0.0002356
-0.00195565
-0.000605834
0.000635958
0.00321463
0.000443036
-0.00074107
-0.00278487
-0.000773508
0.000736754
0.00434943
0.00191523
-0.00241523
-0.00369486
-0.000896654
0.000682927
0.00520401
0.00428509
-0.00503063
-0.00430539
-0.000840083
0.000281481
0.00482883
0.00753154
-0.0083939
-0.00386564
-0.000384818
-0.000579414
0.00213876
0.0106455
-0.011157
-0.00164809
0.000597587
-0.00211923
-0.00154911
0.0115937
-0.0113935
0.00173527
0.00172631
4.84191e-05
7.5561e-05
0.00151671
-5.74893e-05
-5.93485e-05
5.44062e-05
8.48438e-05
-0.00147521
0.00146102
-6.45271e-05
-6.66629e-05
6.74511e-05
0.000109503
-0.00141527
0.0013984
-8.32377e-05
-8.26025e-05
8.87509e-05
0.000154646
-0.0013401
0.00131728
-0.000117471
-0.000108651
0.000119945
0.00022864
-0.00123434
0.00120056
-0.000173492
-0.000146794
0.000162877
0.000344378
-0.00107407
0.00102145
-0.000260913
-0.000199264
0.00021883
0.000519457
-0.000821585
0.000737804
-0.00039267
-0.000267561
0.000286804
0.000773865
-0.000418963
0.000285609
-0.000583028
-0.000350409
0.000360251
0.00112135
0.000217462
-0.000425271
-0.000840729
-0.00043981
0.000421917
0.00154723
0.00119359
-0.0015034
-0.00115204
-0.000514893
0.000437123
0.00196471
0.00260872
-0.00303603
-0.00144906
-0.000534144
0.000351665
0.00216143
0.00447049
-0.00498565
-0.00157482
-0.000433309
0.000110169
0.00181234
0.00653962
-0.0070255
-0.0013017
-0.000147376
-0.000287455
0.000707533
0.00821152
-0.00847556
-0.000496423
0.000324437
-0.000732751
-0.000870603
0.00875818
-0.00867492
0.000640925
0.000857678
9.92633e-05
0.000164322
0.0015262
-0.000158895
-0.000107407
0.000114958
0.000185028
-0.00151473
0.00151142
-0.000178747
-0.000124206
0.000148106
0.000238754
-0.00150295
0.00150066
-0.000230376
-0.000159846
0.00020389
0.000336959
-0.00149506
0.0014935
-0.000324677
-0.000219829
0.000290753
0.000499551
-0.00148891
0.00148718
-0.00048027
-0.000313162
0.000421475
0.000759187
-0.0014792
0.00147486
-0.000727353
-0.000453256
0.000614367
0.0011662
-0.00145143
0.00143819
-0.00111168
-0.00065927
0.000893579
0.00179412
-0.00136915
0.00133177
-0.00169742
-0.000955858
0.00128566
0.00274301
-0.00114755
0.00105217
-0.00256651
-0.00136915
0.00180078
0.00411888
-0.000604476
0.00038194
-0.00379184
-0.00190688
0.00237656
0.00595121
0.000614641
-0.00108858
-0.00535173
-0.00250277
0.00274285
0.00794741
0.00308551
-0.00397483
-0.00691018
-0.00288939
0.00221464
0.00897273
0.00735896
-0.0086886
-0.0074362
-0.00241765
0.00661143
-0.000186732
0.0127366
-0.0138477
-0.000189732
-0.00511884
-0.000130307
-0.00390132
0.0149874
-0.014467
0.00333574
0.000184937
9.19032e-05
0.000131183
0.00151886
-0.000118532
-9.94612e-05
0.000104487
0.000147204
-0.0014841
0.0014724
-0.000132914
-0.000112975
0.000131513
0.000189137
-0.00143553
0.00142227
-0.000170645
-0.000142093
0.000176304
0.000265491
-0.00137751
0.00136033
-0.000239248
-0.000190347
0.000243736
0.000390286
-0.00129882
0.00127406
-0.000351075
-0.000262945
0.000340346
0.000585536
-0.00118181
0.00114346
-0.000525296
-0.000366741
0.000473523
0.000882643
-0.000996751
0.000934518
-0.000788723
-0.000509459
0.000649249
0.00132076
-0.000692599
0.000588912
-0.00117348
-0.000697031
0.000865663
0.00193828
-0.000183989
1.04503e-05
-0.00170766
-0.000926831
0.00109824
0.00274237
0.000662475
-0.000947493
-0.00238703
-0.00117243
0.00127224
0.0036396
0.00202764
-0.00247162
-0.00311492
-0.00135628
0.00122589
0.00431499
0.00407253
-0.00469049
-0.00361012
-0.00131539
0.000714238
0.00413915
0.00670662
-0.00738897
-0.00336369
-0.000809169
-0.000409232
0.00243881
0.0091853
-0.00962006
-0.00190273
0.000305666
-0.000470705
-0.00181056
0.0101783
-0.010109
0.00172328
0.000483615
8.70827e-05
7.25673e-05
0.00151406
-5.52152e-05
-9.42547e-05
9.76686e-05
8.1258e-05
-0.00146439
0.00144736
-6.18113e-05
-0.000105655
0.000120823
0.00010413
-0.00139247
0.00137226
-7.91729e-05
-0.000130633
0.000158703
0.000145583
-0.00130283
0.00127588
-0.000110619
-0.0001715
0.000214116
0.000212725
-0.00117923
0.00114046
-0.000161475
-0.000231242
0.000290129
0.00031628
-0.000997848
0.000939604
-0.000239735
-0.000313064
0.000388601
0.000470503
-0.000722996
0.00063396
-0.000355882
-0.000418895
0.00050734
0.000690742
-0.000302263
0.000166222
-0.000520905
-0.000546156
0.000634677
0.000985841
0.000336194
-0.00053971
-0.000740245
-0.000682294
0.00074149
0.00134042
0.00127675
-0.00156829
-0.00100037
-0.000796278
0.000772037
0.00168367
0.00258793
-0.00297495
-0.00124611
-0.000829802
0.000643443
0.0018557
0.00425169
-0.00470336
-0.00135863
-0.000697439
0.000274613
0.00162343
0.0060516
-0.00647112
-0.00117248
-0.000316739
-0.000337696
0.000833197
0.00750494
-0.0077433
-0.000587323
0.000316161
-0.00105012
-0.000353592
0.00804379
-0.00799602
0.000277751
0.00105909
0.0250023
-0.0228856
-0.0182886
0.00253804
0.00245902
-0.00214015
0.00414644
0.000221044
0.00734253
0.0238732
0.00873187
-0.00671891
-0.0142286
-0.0189916
0.00145915
0.00200009
-0.00137367
-0.00174255
0.00412426
0.0227088
-0.0102345
-0.0187533
0.00722574
0.00179911
-0.00161306
0.00414784
0.00156805
0.00492881
0.0184451
0.00115689
-0.00582266
-0.00194103
-0.0167566
0.00152994
0.000968802
-0.00159985
-0.000845247
0.00397192
0.0170313
-0.000439227
-0.0158417
0.00406067
0.000802071
-0.000742499
0.00389594
0.00149751
0.0237604
0.00607687
-0.0267594
0.00133172
0.00987721
-0.0158368
0.00268247
0.0283035
0.00227988
0.0207206
-0.00631774
-0.00249872
0.00918518
-0.0233578
0.00641255
0.00501488
-0.00608104
-0.00710064
0.0256366
0.00830261
0.0130548
-0.0100608
0.000389619
-0.0116839
0.0365108
0.0149176
-0.013977
-0.01266
-0.0126237
-0.0141475
0.05412
-0.00149711
-0.00159647
-0.00188868
-0.00144205
-0.00247228
-0.00245555
-0.00247815
0.0144626
0.00149865
0.00989331
0.0136036
-0.00445146
-0.0131275
0.000617672
0.00612787
-0.00742649
0.0120244
0.000736969
0.0195554
-0.00443936
-0.0172581
0.00587492
0.00500961
-0.00205445
-0.00197649
-0.00203444
-0.00415126
0.0148481
0.00820257
0.00199086
0.0131196
0.00255627
-0.00165562
-0.00325304
-0.0127588
0.00252048
0.00529483
-0.00203602
-0.00633529
0.0118028
0.0193054
0.00979954
-0.0217323
0.00176206
0.00305247
-0.00406967
0.00611494
0.02403
-0.000133901
0.0151996
-0.00695363
-0.000455831
0.00926708
-0.0169175
0.00373846
-0.000967359
-0.00460437
0.00145084
0.0188343
0.0160826
-0.0179674
0.0155214
-0.0116116
-0.0107016
-0.0117105
-0.0104279
0.0432821
0.0102222
0.0135112
-0.0103128
-0.00918925
-0.00944829
-0.0101928
0.0381706
-0.00175963
-0.00173829
-0.00169385
0.0149464
0.00551028
0.00721473
0.0128091
-0.00262551
-0.0125076
0.00219223
0.00480849
-0.0057021
0.0116359
0.00287066
0.0159997
-0.00443983
-0.0152323
0.000935075
0.00536401
-0.00101688
-0.000888808
-0.000947957
-0.00561846
0.0143116
0.00418313
0.00215382
0.011544
0.000820938
-0.00225009
-0.000861455
-0.0114106
0.00317298
0.00316666
-0.00318098
-0.00362183
0.0108137
0.0140039
0.0086012
-0.0155026
-0.000619202
-0.00164465
0.00225542
0.00292932
0.0172378
0.00645459
-0.00848261
0.00124163
-0.0066376
-0.00623009
-0.00675497
-0.00606268
0.025396
-0.000123783
0.00480274
-0.00586535
-0.00528238
-0.00542178
-0.0057583
0.0222078
-0.000733008
-0.000762545
-0.000680843
0.0138101
0.00499137
0.00333439
0.0110568
-0.000415886
-0.0109663
0.00200688
0.00265083
-0.00298957
0.010452
0.00308454
0.00363757
-0.0052999
-0.00610847
-0.00541467
-0.00595455
-0.00923729
-0.00974792
-0.0101513
0.033719
0.0021449
-0.00354341
-0.00609281
-0.00547395
-0.00591495
-0.00550143
-0.00270519
-0.00314651
-0.00226623
0.0142448
-0.0218807
-0.0185406
0.00512449
0.012887
0.0249694
0.00840232
-0.00604979
-0.00631171
-0.00626246
-0.00607268
0.0345774
-0.00315602
0.00478196
-0.00586055
-0.00572289
-0.0058504
-0.00576104
-0.00275201
-0.00313173
-0.00270539
0.0137883
0.00281324
-0.00349078
0.00014307
-0.00300589
0.000862266
0.00238134
-0.000666021
-0.00208624
0.003981
0.00101737
0.0028466
-0.00309145
-0.000758326
-0.00316802
-0.0181065
0.0220533
-0.01304
-0.0116226
-0.0129812
-0.0118794
0.0483067
0.0294229
-0.0140183
-0.0127012
-0.0140247
-0.0125314
0.0524552
-0.0183748
-0.0189466
0.0247079
0.0110328
-0.0107675
0.0113056
-0.00618162
-0.00636279
-0.00629338
-0.00610467
0.0322372
-0.00656923
-0.00356574
0.0074313
-0.00416313
-0.0039797
-0.00428285
-0.00393926
-0.00352373
-0.00330627
-0.00321382
0.0101291
-0.0062073
-0.00640387
-0.00624727
-0.0064794
0.0340315
-0.00331734
-0.00496156
-0.00523616
-0.00515106
-0.0049787
-0.00293784
-0.00335887
-0.0030218
0.0122444
0.00226505
0.00106766
-0.00201279
0.0040151
0.00163696
0.00217721
-0.00355759
-0.00156146
-0.00226027
0.0026276
-0.00289842
-0.00327115
0.0012435
0.0106567
-0.00586632
-0.00603222
-0.0060819
-0.00595815
0.0298811
0.00753902
-0.00369864
-0.00292167
-0.00325506
-0.00314183
-0.00296566
-0.00346409
-0.00373295
-0.00354806
0.0078733
-0.00678297
-0.0182674
0.00664214
0.00429232
0.0213482
0.00938618
-0.00564573
-0.00571467
-0.00568611
-0.00555151
0.0273143
-0.00383192
0.00714087
-0.00222002
-0.00206137
-0.00230871
-0.00202401
-0.00371179
-0.0038096
-0.00364575
0.00575176
0.00182775
-0.00365349
-0.001943
0.00170746
0.00164093
0.00146632
-0.00165715
-0.00127382
0.00415425
0.00165786
0.00133661
-0.00127261
-0.00171736
-0.00383585
-0.0108749
0.00327478
-0.00779413
-0.00697431
-0.00766965
-0.00717255
0.0291161
0.00619913
-0.00885991
-0.00825159
-0.00898699
-0.00802078
0.0333921
-0.00402774
-0.0175832
0.0199021
0.00253661
-0.00789253
0.00641528
-0.00491099
-0.00489082
-0.0048982
-0.00482503
0.0223441
-0.00645782
-0.00380728
0.0056525
-0.000860578
-0.000743743
-0.000891635
-0.000729349
-0.00381027
-0.00377796
-0.00375314
0.00243661
-0.00519566
-0.0052989
-0.00528724
-0.00530757
0.0247616
-0.003845
-0.00129373
-0.00151661
-0.00145754
-0.00131997
-0.00374073
-0.00385412
-0.00378568
0.00392422
0.00126108
0.00166011
-0.00114384
0.00412543
0.00138856
0.000669851
-0.0038258
-0.00149763
-0.000541102
0.00104625
-0.00102118
-0.00384585
0.00163436
0.00507828
-0.00445613
-0.00450259
-0.00448322
-0.00453545
0.0201256
0.00482989
-0.00371699
-0.000312883
-0.000422517
-0.000414876
-0.000316557
-0.00369524
-0.00370425
-0.00370286
0.00128322
0.000596094
-0.0148872
0.00326956
-0.0005977
0.0156938
0.00392773
-0.00417341
-0.00409743
-0.00412467
-0.00410156
0.0181292
-0.00356148
0.00404918
-9.41185e-05
-1.13171e-05
-8.37848e-05
-1.63594e-05
-0.00357908
-0.00358112
-0.00358463
0.00042275
0.000484619
-0.00375892
-0.000388096
0.00133529
0.00128516
0.00058847
-0.00137058
-0.000521358
0.0036327
0.00105553
0.000241449
-0.000102635
-0.00116655
-0.00358776
-0.000999537
-0.00501673
-0.00473644
-0.00511261
-0.004621
0.0195052
0.00127197
-0.0139335
0.0144542
-0.00108372
-0.00376895
-0.00377211
-0.00383319
-0.0037405
0.0163595
-0.0034175
0.000186332
0.000151056
0.00012769
0.000198022
-0.00343818
-0.0033936
-0.00342329
-0.000193
0.000468883
0.00123216
-0.000449773
0.00353372
0.000142872
-2.4251e-05
-0.00348113
0.00100216
-0.016547
0.0149103
0.00264151
-0.000449205
-0.0024964
0.0162954
-0.0049013
0.00426451
0.00410728
0.00440828
0.00446225
0.00406127
-0.00513685
-0.0049323
-0.00516896
-0.00208203
-0.0142214
0.0133362
0.00322968
-0.00342606
-0.00303248
-0.00306347
-0.00340058
0.00424813
0.0046955
0.00433171
0.00460353
5.40322e-05
2.42038e-05
-0.00503484
-0.00535852
-0.0052818
-0.000622208
0.0138189
-0.00342764
-0.00305498
-0.00344796
-0.00306216
0.00408755
0.0155716
0.0130859
-0.00381874
-0.00387484
0.000732681
0.000452164
0.00271973
0.00228359
-0.00154335
-0.000382161
-0.00307759
0.014248
-0.00304238
-0.00267913
-0.00310773
-0.00260973
0.0101442
0.00065809
0.000378147
0.000374468
0.000584835
-0.0116282
0.00561418
0.00483099
-0.00524323
-0.0054878
0.0110485
0.00512926
0.00161945
0.00184913
0.00192081
0.00159088
-0.00332631
-0.00336364
-0.00399321
-0.00484282
0.0048019
0.0036217
-0.00232494
-0.00205346
-0.00209031
-0.0023084
-0.00595919
0.00180788
0.00218798
0.00185561
0.00209858
-0.00360483
-0.00358359
-0.00419606
0.00563401
-0.00244114
-0.00220146
-0.00244876
-0.00217419
0.0044504
-0.00547435
-0.0126699
0.00677021
0.0132403
0.00613787
-0.00645879
0.00239157
0.00283208
0.00244773
0.00273025
-0.00413488
-0.00411613
-0.00768961
0.00446244
-0.00454336
0.00765476
-0.0027916
-0.00251247
-0.00279695
-0.00248484
-0.00578374
0.00217022
0.00243708
0.0021347
0.00252278
-0.00385193
-0.0038878
0.00668759
-0.00266821
-0.00236019
-0.00265157
-0.00239907
-0.00639592
0.00118975
0.00199057
-0.0022225
-0.00236511
0.00602737
0.00207027
0.000434295
0.000542072
0.00056592
0.00042665
-0.00173637
-0.00176051
-0.00172098
-0.000933974
0.000742027
0.00145234
-0.00128182
-0.00112653
-0.00114484
-0.0012693
-0.002669
0.000500116
0.000663013
0.000518078
0.000628751
-0.00189756
-0.00188203
-0.00188292
0.00102581
-0.00134463
-0.00120698
-0.00135201
-0.00119299
0.00169494
-0.00257156
-0.00701487
0.00149184
0.00744404
0.00301774
-0.00339282
0.000701068
0.000905793
0.000724673
0.000860761
-0.00223568
-0.00221784
-0.00184163
0.00220087
-0.00239918
0.00172745
-0.00156115
-0.00140277
-0.00156922
-0.00138512
-0.002867
0.000612562
0.000744
0.00060129
0.000776424
-0.00204393
-0.00207217
0.00133894
-0.00148598
-0.00130605
-0.00147226
-0.00132826
0.00118044
0.00327606
-0.000943161
-0.00490225
0.000367578
0.00102084
0.00129544
0.00097325
-0.0010895
0.0014675
0.00103874
0.000636402
-0.00959211
-0.00289308
0.00126313
-0.000686195
-0.00149283
0.00930908
0.0022536
-0.000737987
-0.000789879
-0.000781317
-0.000735108
-0.00109795
0.00303198
-0.000127607
0.00156449
-0.00230013
-0.00230229
-0.00234185
-0.00227292
0.000109168
-0.000113053
0.000128939
-0.000632638
-0.000704761
-0.000749279
-0.000758694
-0.000682551
-0.000541365
-6.6574e-05
-0.00234958
-0.00239907
-0.00236746
-0.00238363
-7.65257e-05
0.000178596
0.000165839
0.0017726
-0.00978462
-0.00230416
1.2027e-05
-0.000703815
0.00852786
-0.000419827
-0.000536797
-0.000495318
-0.00051693
-0.00284964
-0.00313256
-0.00326027
-0.000272465
0.00291381
-0.00037745
-0.00219518
-0.00167638
-0.00215884
-0.0018575
-0.000130983
1.10897e-05
0.000271302
-0.000515231
-0.000591057
-0.000669816
-0.00051144
-6.13835e-06
-0.00237098
-0.00237888
-0.00236649
-0.00234551
0.000232861
-1.69207e-05
0.000220566
-0.000572833
-0.000122471
0.000504029
-0.000351744
0.000381251
0.000161739
0.000346267
0.00102439
-0.00109134
-0.000295934
-0.000110871
-0.000116877
0.00106283
-5.26528e-05
0.000176731
-0.00113649
-0.000605935
0.000268856
0.000489754
-0.000235711
-0.000340141
0.000423197
0.000120415
0.000552362
0.000413901
-0.000283792
-0.000719404
-8.35048e-05
0.000378208
-0.000239761
3.77607e-05
0.00114889
0.000123246
0.000375646
0.00105496
-9.01799e-05
-0.000251679
0.000645728
0.000418156
1.73239e-05
-0.000801524
-0.000279753
0.000410084
-0.000279804
0.00015692
-0.000739656
0.000246263
0.000361868
-0.000239804
0.00108707
-0.000217962
0.000255159
0.000400343
-0.00022508
-0.000270927
-0.000765447
0.000368631
0.00107558
-0.000244677
0.00015604
0.000504677
-0.000354077
0.000360942
-8.16717e-05
0.000884843
-0.000897745
-4.69486e-05
-0.000317516
0.00106293
-1.92503e-05
-0.00111655
-5.00542e-05
0.000513359
6.9174e-06
-0.000350387
0.000475747
-0.0049005
-0.0155565
0.0118693
0.00568282
0.0159653
0.00521455
-0.00479282
0.00374526
0.00420523
0.00380395
0.00412787
-0.00504317
-0.00477631
-0.00501721
-0.0127654
0.00390124
0.0121798
-0.00337571
-0.00302391
-0.00337726
-0.00301033
0.00617584
-0.00458866
0.00354373
0.00385749
0.0035018
0.00394271
-0.00459139
-0.00482403
-0.00484531
0.0043703
0.0112983
-0.00329065
-0.00291362
-0.00327341
-0.00295174
0.00567719
-0.0147495
0.0101609
0.0142528
-0.0062455
0.00282936
0.00312739
0.00278844
0.00322093
-0.0043738
-0.00440383
-0.00915606
-0.00455873
0.00891602
-0.00300926
-0.00266236
-0.00299266
-0.00270283
-0.00441881
0.00306555
0.00354384
0.00312798
0.00343982
-0.00463149
-0.00442537
-0.00461793
0.00993734
-0.00312651
-0.0028067
-0.00312772
-0.00278333
0.00311301
-0.00481747
0.00131025
0.0017032
-0.00461118
-0.00158027
0.00285386
0.00212546
0.00063202
-0.00206625
-0.00188333
0.00194621
0.000756251
0.000931936
0.00151916
0.00144987
-0.00174148
0.000824243
-0.0044813
0.0025288
0.00173578
-0.00218691
-0.00795324
-0.00342713
0.00240033
0.00856201
0.00274214
-0.000805423
-0.000822591
-0.000790704
-0.0008548
0.00324884
0.00199075
-0.000178374
-0.00211383
-0.00220249
-0.00214362
-0.0021486
4.66484e-05
-0.000194026
2.46025e-05
0.0030667
-0.000851687
-0.000888332
-0.000871747
-0.000845706
0.0022062
-0.000286293
-0.00198403
-0.00197069
-0.0019491
-0.00203427
-0.000265924
-7.87128e-05
-5.07248e-05
-0.00699604
-0.00357235
0.00262573
-0.00327947
0.00628219
0.0032884
-0.000932324
-0.000948672
-0.000930181
-0.000925321
-0.00245435
0.00374487
-0.00046669
0.00246376
-0.00156824
-0.00154353
-0.00161303
-0.00153115
-0.00029667
-0.000445659
-0.000267625
-0.000884813
-0.000884723
-0.000918278
-0.000875706
-0.00034488
-0.00172388
-0.00182069
-0.00175961
-0.00175162
-0.000154931
-0.000364199
-0.000182048
0.00261068
-0.000691696
0.000380779
0.000435029
-0.000359841
-0.000301565
0.000537279
0.000970711
-0.00103976
-0.000152234
0.000389301
-0.000624411
0.000471201
0.000303846
-0.00033003
0.000448238
0.0004953
0.000886694
-0.000268166
-0.000467533
-0.000932504
-0.000360416
0.000716401
0.000340456
-0.00023167
-0.00084916
0.000384278
0.000415577
0.000302816
-0.000203128
-0.000402948
0.00114287
-0.000346349
0.000323942
0.00112184
0.000368341
-0.000218124
0.00079349
0.000425814
0.000309283
-0.000416871
-0.000906712
-0.000205134
0.000362287
-0.000340767
-0.000243055
-0.000830657
0.000352595
-0.00023549
0.00109305
0.000275251
0.000385746
0.000287803
-0.000263393
-0.000779464
0.000337537
0.00111464
-0.000325499
-0.000224697
0.000406406
-0.000286136
0.000571432
0.000405437
0.00056198
0.000699793
-0.000720008
-0.000554804
-0.000453596
0.000801406
-0.000320564
-0.000849304
0.000518967
0.000446622
0.000359699
-0.000437998
-0.000249337
0.00067446
0.000570303
0.00211782
0.00210922
-0.00210996
0.000458474
0.000317067
-0.0019705
0.000406969
0.00205762
-0.00387101
-0.00397341
0.00251186
-0.00253112
-0.00304654
0.00327956
0.00278565
-0.000997252
-0.000978775
-0.000964144
-0.00098964
-0.00244206
0.00407117
-0.000757598
0.00225685
-0.000801042
-0.000761923
-0.000816526
-0.000770478
-0.000658057
-0.000742835
-0.000637316
-0.00313422
-0.000967136
-0.000938571
-0.00096321
-0.000964934
-0.00244282
-0.00066748
-0.000925502
-0.00098823
-0.000957654
-0.000928132
-0.000552212
-0.000684596
-0.000576054
0.00228928
-0.00466918
-0.00268568
-0.00396226
0.00330858
0.00535323
-0.000939028
-0.000923321
-0.000953212
-0.000933929
0.00381996
0.00256291
-0.000518049
-0.00130525
-0.00138944
-0.00134098
-0.00132106
-0.0003668
-0.000537411
-0.000393792
-0.000979743
-0.000976103
-0.000959354
-0.000972428
-0.000630125
-0.00115808
-0.00112494
-0.00112312
-0.00118951
-0.000497518
-0.000611463
-0.000471598
-0.000470595
-0.000905793
0.000249574
-0.000178375
0.000829792
0.00047533
0.000531284
0.000342161
-0.00032274
-0.000546621
-0.000761614
-0.000566104
0.00042952
-0.00066344
-0.000430545
0.000563143
-0.000956505
0.000463549
0.000206506
-0.000471287
-0.000144058
0.000901744
0.000886581
0.000453466
0.000252352
-0.000453391
-0.000165113
-0.000974051
0.000287319
-0.000195705
0.00114788
0.000429675
0.000817333
0.000285221
0.000439953
-0.000924083
-0.00019275
0.000453396
0.000263733
0.00116106
-0.000448429
-0.000178829
0.000280448
-0.000471821
-0.000194788
0.000802084
0.000609824
-0.000632898
-0.000502401
0.000569467
0.000328015
0.000460347
-0.000232492
0.00070803
0.000510454
-0.000625401
-0.000508111
-0.000573127
0.000228656
-0.000152828
0.000459212
-0.000987521
0.000464058
0.000223845
-0.000153919
0.00116308
-0.000465192
0.000451929
0.000197713
-0.000457963
-0.000127185
-0.00102114
0.000247573
0.00116276
-0.000171025
0.000460105
-0.00404058
-0.00953113
0.00337036
0.00362385
0.010077
0.00464074
0.00133768
0.00165289
0.00137644
0.00157927
-0.00309504
-0.00307366
-0.00398321
0.00338179
0.00397888
-0.00211063
-0.00190193
-0.00211921
-0.00187601
0.0042318
0.00118629
0.0013791
0.00116438
0.00143593
-0.00283962
-0.00287515
0.00299197
0.00330717
-0.0020074
-0.00176877
-0.00199164
-0.00180048
0.00326347
-0.00867174
0.00274784
0.00818027
-0.00378765
0.000856555
0.00101644
0.00084058
0.00105985
-0.00241051
-0.00244274
-0.00227821
-0.00276272
0.0021719
-0.00172715
-0.00151944
-0.00171232
-0.00154618
0.000973794
0.00122945
0.00100447
0.0011711
-0.00263502
-0.00261507
0.0026907
-0.00181613
-0.00163386
-0.0018246
-0.00161216
-0.00221989
-0.00216708
-0.00407801
0.00197809
0.002647
0.00265094
-0.000970205
-0.000935112
-0.000970052
-0.000955252
0.00402604
0.00219824
-0.000778729
-0.000611854
-0.000651102
-0.00063859
-0.000602344
-0.000694014
-0.000792573
-0.000713312
0.00236638
-0.000989307
-0.000960269
-0.000950053
-0.000981547
0.00199195
-0.00084361
-0.000513455
-0.00047072
-0.000487899
-0.000514196
-0.000832909
-0.000771334
-0.00075604
-0.00168829
-0.0039914
0.00188882
-0.00222136
0.00131587
0.0019475
-0.000962092
-0.000924516
-0.000918268
-0.000954277
-0.00190556
0.00400265
-0.000891633
0.00170423
-0.000292743
-0.000249027
-0.000282043
-0.000272164
-0.00084076
-0.000884719
-0.00083057
-0.000952806
-0.000913751
-0.000928309
-0.000954095
-0.000850474
-0.000366698
-0.000385598
-0.000387926
-0.000348176
-0.000790359
-0.000860955
-0.000804978
0.00165558
-0.000997623
0.00043644
0.000143309
-0.000447956
-0.000100802
0.000966604
0.000276387
-0.000260532
-0.000785982
0.000522748
-0.000968399
0.000179412
0.000461949
-0.000129883
0.000920432
0.000476525
0.000205087
-0.000855335
-0.000495737
-0.00017408
-0.000430554
0.00100252
0.000131828
-8.50376e-05
-0.00104476
0.000425905
0.000429876
0.000152585
-0.000108978
-0.00043821
0.00111456
-0.000454145
0.000172197
0.0011398
0.000450593
-0.000123621
0.00101143
0.000397174
0.000109082
-0.000408795
-0.00104222
-6.67364e-05
0.000149536
-0.000440309
-9.41733e-05
-0.00104335
0.000208395
-0.000146516
0.00116006
0.000464857
0.000176753
0.00045147
-0.000116417
-0.0010284
0.000186355
0.00114694
-0.000459655
-0.000130369
0.000120545
-8.90097e-05
0.00097662
0.0004308
0.000414378
9.94741e-05
-6.15527e-05
-0.000434603
-0.000909243
0.000154805
-0.000867259
-0.000127137
0.000465705
0.000398023
9.19378e-05
-0.000411223
-6.56616e-05
0.000998364
-0.00044766
-0.00373271
0.00126924
-0.00135372
-0.00144876
0.000244121
0.00123612
-0.000872305
-0.00082429
-0.000823577
-0.000864948
-0.00133308
0.00368818
-0.000900918
0.00117317
-1.50262e-05
2.5481e-05
8.28906e-06
-2.49881e-06
-0.000878577
-0.000899507
-0.000875839
-0.00156612
-0.000876538
-0.000832493
-0.000838976
-0.00087935
-0.00142613
-0.000895044
-5.20162e-05
-4.37966e-05
-6.38411e-05
-2.45871e-05
-0.000868125
-0.000899904
-0.000875038
0.00108621
-0.000690353
-0.00156413
-0.0038656
0.00181195
0.00096955
-0.000919793
-0.000877738
-0.000887781
-0.000922033
0.00388664
0.00160915
-0.000886851
-0.000183827
-0.000186798
-0.000199915
-0.000159434
-0.000845645
-0.000894258
-0.00085607
-0.000921313
-0.000877581
-0.000874435
-0.000913679
-0.000908106
-0.000130482
-8.76641e-05
-0.000114275
-0.000111882
-0.000873623
-0.000904303
-0.000867596
-0.000354665
-0.000995916
3.76658e-05
-3.12296e-05
0.000998397
0.000345795
0.00029501
-3.23963e-05
7.45979e-05
-0.000313103
-0.000924943
-0.00035261
-2.95587e-06
-0.000923522
4.17658e-05
0.000342342
-0.000975472
0.000310346
2.19029e-05
-0.000323413
-1.77405e-05
0.000984437
0.00100214
0.000357808
7.64227e-05
-0.000370003
-4.48491e-05
-0.00102155
0.000140121
-0.0001031
0.0011039
0.000423477
0.00100999
9.4892e-05
0.000390049
-0.00103837
-5.94367e-05
0.000396817
0.000123358
0.0010694
-0.000406715
-9.02678e-05
5.19806e-05
-0.0003682
-3.8336e-05
0.00100207
6.31572e-05
-2.8224e-05
-0.000910651
0.000403318
7.36795e-05
0.000390173
-5.641e-05
0.00100061
2.20865e-05
-0.000929804
1.9222e-05
-0.000372146
6.53654e-05
-3.91348e-05
0.000349388
-0.00101374
0.000359049
9.85891e-05
-7.42096e-05
0.00101541
-0.000369616
0.00031641
5.07892e-05
-0.000328395
-2.78934e-05
-0.000986385
0.000112621
0.00105629
-8.52388e-05
0.000388703
-0.00151781
-0.00519946
0.000545027
0.00127341
0.00551256
0.00183067
0.000354159
0.000483769
0.000367641
0.000457885
-0.00161544
-0.00160191
-0.00072938
0.00132452
0.000527939
-0.0011626
-0.00104347
-0.00116923
-0.00103248
0.00158868
0.000305617
0.000393995
0.000300636
0.00041144
-0.00148102
-0.0015018
0.00110166
0.00032452
-0.00111037
-0.000976859
-0.00109911
-0.000991881
-0.00477378
0.000407042
0.000248528
0.000351994
0.000258616
0.00033238
-0.00138136
-0.00136961
0.000180949
-0.00101053
-0.000907542
-0.00101629
-0.000899004
-0.00101172
6.41628e-05
-0.00348795
0.000855462
8.06888e-05
0.00113841
-0.000827242
-0.000781975
-0.000830291
-0.000785819
0.00354769
0.00108678
-0.000882283
3.95981e-05
5.51923e-05
3.1196e-05
6.80823e-05
-0.000865845
-0.000885207
-0.000870051
0.000957858
-0.000819093
-0.000768612
-0.000769542
-0.000812198
0.000949477
-0.000877137
6.42085e-05
0.000101779
7.38343e-05
8.99202e-05
-0.000877372
-0.000863656
-0.000863286
0.000169954
-0.00334791
-0.000775653
-0.000729866
-0.000731914