/*--------------------------------*- C++ -*----------------------------------*\
| =========                 |                                                 |
| \\      /  F ield         | OpenFOAM: The Open Source CFD Toolbox           |
|  \\    /   O peration     | Version:  2012                                  |
|   \\  /    A nd           | Website:  www.openfoam.com                      |
|    \\/     M anipulation  |                                                 |
\*---------------------------------------------------------------------------*/
FoamFile
{
    version     2.0;
    format      ascii;
    class       pointVectorField;
    location    "0.108/fluid";
    object      pointMotionU;
}
// * * * * * * * * * * * * * * * * * * * * * * * * * * * * * * * * * * * * * //

dimensions      [0 1 -1 0 0 0 0];


internalField   nonuniform List<vector> 
22592
(
(0 0 0)
(-4.47354e-05 -0.000382171 -4.44286e-82)
(0.000115176 -0.000351607 -5.73232e-81)
(0.000753691 -0.000569802 2.26619e-79)
(0.00161292 -0.0010863 1.43768e-78)
(0.00259711 -0.00197965 1.76519e-78)
(0.00370464 -0.00340699 -4.10513e-77)
(0.00486539 -0.00521903 2.63496e-76)
(0.00619373 -0.00726618 2.99835e-74)
(0.00779952 -0.00951233 2.29652e-73)
(0.00953814 -0.0114413 -3.20265e-67)
(0.0112133 -0.0131258 -5.38763e-55)
(0.0118834 -0.0141713 -7.53225e-43)
(0.0104718 -0.0135795 -1.21663e-30)
(0.00673203 -0.00977083 6.41226e-20)
(0.00485034 -0.0141991 1.79923e-22)
(0 0 0)
(0.000809394 -0.000403827 3.7308e-68)
(0.00157342 -0.000466962 1.31589e-65)
(0.00269756 -0.000794755 2.13254e-64)
(0.00402384 -0.00138767 4.89752e-64)
(0.00545527 -0.00222639 1.64994e-64)
(0.00697142 -0.00332728 -6.95927e-68)
(0.00855178 -0.00478575 -1.29366e-62)
(0.010202 -0.00660204 9.2735e-62)
(0.011823 -0.00850962 7.22137e-61)
(0.0131499 -0.0102504 1.27364e-60)
(0.0139092 -0.0119824 -1.16508e-54)
(0.0138716 -0.013918 -5.37712e-43)
(0.0131199 -0.0164055 3.80258e-34)
(0.0120518 -0.0193511 2.95004e-31)
(0.0113134 -0.0238708 -5.19176e-31)
(0 0 0)
(0.00140925 -0.000353132 1.10237e-64)
(0.00259795 -0.000481421 7.84764e-53)
(0.004014 -0.000727512 1.97048e-51)
(0.00558762 -0.00109811 1.8071e-51)
(0.00719718 -0.00158344 1.17039e-56)
(0.00884095 -0.00221647 -1.54559e-65)
(0.0104914 -0.00306873 -8.09098e-55)
(0.0120306 -0.00419677 3.22423e-49)
(0.0133283 -0.00545075 -5.80089e-48)
(0.0141981 -0.00671465 -6.70254e-48)
(0.0145747 -0.00801084 -7.67916e-48)
(0.0144498 -0.00958315 -6.2147e-49)
(0.0139864 -0.0116399 2.09941e-44)
(0.0134716 -0.0139056 4.46886e-44)
(0.0129656 -0.0173317 -3.2841e-44)
(0 0 0)
(0.00150639 0 0)
(0.00285785 0 0)
(0.00435697 0 0)
(0.00600702 0 0)
(0.00771005 0 0)
(0.00939239 0 0)
(0.0110209 0 0)
(0.0124772 0 0)
(0.013607 0 0)
(0.0143287 0 0)
(0.0146248 0 0)
(0.0145375 0 0)
(0.0142129 0 0)
(0.0138116 0 0)
(0.0133608 0 0)
(0 0 0)
(2.48257e-05 -0.000289437 6.1173e-05)
(0.000219654 -0.00021864 0.000179787)
(0.000886758 -0.000437848 0.000318326)
(0.00179386 -0.000978442 0.000456471)
(0.00285323 -0.00191076 0.000577959)
(0.00398843 -0.00319775 0.000674987)
(0.00520236 -0.00480162 0.000714494)
(0.00657336 -0.00659343 0.000693786)
(0.00822049 -0.00867912 0.000633336)
(0.0100342 -0.0105265 0.000567369)
(0.0118724 -0.0122184 0.000527099)
(0.0131176 -0.0136955 0.000535909)
(0.0135321 -0.0156294 0.000823899)
(0.0138327 -0.0171335 0.00143409)
(0.0148245 -0.0346715 -0.000379472)
(0 0 0)
(0.000818621 -0.00030816 6.54061e-05)
(0.00163906 -0.000383679 0.00016355)
(0.00277819 -0.000708266 0.000261909)
(0.00409606 -0.00126062 0.000352753)
(0.0055404 -0.00204805 0.000430589)
(0.00706974 -0.00309766 0.000484515)
(0.00866938 -0.00446207 0.000489779)
(0.0103489 -0.00611859 0.000444775)
(0.0119617 -0.00787985 0.000367643)
(0.0133299 -0.00946867 0.000267566)
(0.0142455 -0.0111664 0.000154252)
(0.0145012 -0.0130947 4.56422e-05)
(0.0142855 -0.0155683 -3.67184e-05)
(0.0139891 -0.0185583 -0.000193119)
(0.0134552 -0.0235307 -0.000701599)
(0 0 0)
(0.00137782 -0.000283157 6.38905e-05)
(0.00259941 -0.00041926 0.000142142)
(0.00403807 -0.000680261 0.000212384)
(0.00560164 -0.0010346 0.000273143)
(0.00722501 -0.0015131 0.000319576)
(0.00888715 -0.00213965 0.000341563)
(0.0105218 -0.00292312 0.000322354)
(0.0120474 -0.00389337 0.000266224)
(0.0133343 -0.00491446 0.000179624)
(0.0142342 -0.00598599 7.17904e-05)
(0.0146862 -0.00729238 -4.58383e-05)
(0.0146785 -0.00896376 -0.000163052)
(0.0143862 -0.0106556 -0.000281908)
(0.0140452 -0.0130124 -0.000409134)
(0.0136455 -0.0164651 -0.000576419)
(0 0 0)
(0.00148046 0 6.52511e-05)
(0.00285519 0 0.000133699)
(0.00438577 0 0.000195023)
(0.00603077 0 0.000245214)
(0.00772047 0 0.000280117)
(0.00940941 0 0.000289333)
(0.0110039 0 0.000260454)
(0.0124248 0 0.000199706)
(0.0135585 0 0.000117334)
(0.0143206 0 1.07165e-05)
(0.0146875 0 -0.00010375)
(0.0146831 0 -0.000216586)
(0.014456 0 -0.000327366)
(0.0141492 0 -0.000428138)
(0.0137671 0 -0.0005204)
(0 0 0)
(0.000259975 -0.00012883 0.000137823)
(0.000613912 -3.03756e-05 0.000347356)
(0.00134835 -0.000195898 0.000582745)
(0.00234613 -0.000673349 0.000811518)
(0.00350657 -0.00145515 0.00101117)
(0.00476406 -0.00247414 0.00117007)
(0.00614735 -0.0037634 0.00123161)
(0.00760689 -0.0051946 0.00117594)
(0.00915974 -0.00645433 0.00101062)
(0.0109183 -0.00755159 0.000757161)
(0.0128883 -0.00865726 0.000434089)
(0.0147118 -0.009492 3.15343e-05)
(0.016655 -0.00986709 -0.000487967)
(0.0186921 -0.0101704 -0.0011081)
(0.0195914 -0.0255897 -0.00259883)
(0 0 0)
(0.00101566 -0.000243897 0.000133847)
(0.00188702 -0.000248808 0.00031256)
(0.0030404 -0.000513099 0.000487518)
(0.00437895 -0.00100018 0.000645648)
(0.0058654 -0.00172491 0.000772108)
(0.00742091 -0.00267685 0.000852956)
(0.00907105 -0.00379229 0.000856571)
(0.0107315 -0.00494356 0.000765817)
(0.0122844 -0.00610134 0.000580542)
(0.0135997 -0.00719998 0.000331658)
(0.0146895 -0.00849423 2.17283e-05)
(0.0153605 -0.00991406 -0.000306621)
(0.0159164 -0.0119424 -0.00065118)
(0.0164219 -0.0147829 -0.000984666)
(0.0160626 -0.0203485 -0.00134807)
(0 0 0)
(0.00146724 -0.000210476 0.000128294)
(0.00270603 -0.000307234 0.000274733)
(0.00415309 -0.000554127 0.000404028)
(0.00571956 -0.00089241 0.000509863)
(0.00735565 -0.00133805 0.000581352)
(0.00899937 -0.00191585 0.000610209)
(0.0105964 -0.00255858 0.000578353)
(0.0120836 -0.0031862 0.000476191)
(0.0133296 -0.00383033 0.000313352)
(0.0142807 -0.00467996 0.000100555)
(0.0148801 -0.0057733 -0.000143933)
(0.0151198 -0.00710453 -0.000391022)
(0.0151543 -0.00871782 -0.000615619)
(0.0151276 -0.0109393 -0.00083432)
(0.0148757 -0.0145164 -0.00105663)
(0 0 0)
(0.00159383 0 0.000125307)
(0.00294013 0 0.000261059)
(0.00447898 0 0.000376625)
(0.00612937 0 0.000464904)
(0.00780704 0 0.000516377)
(0.00946191 0 0.000523993)
(0.0109972 0 0.000479771)
(0.012348 0 0.000382571)
(0.0134818 0 0.000230626)
(0.0143233 0 3.01166e-05)
(0.0148252 0 -0.000191515)
(0.0150026 0 -0.00040822)
(0.014985 0 -0.000609558)
(0.0148733 0 -0.000795362)
(0.014616 0 -0.000959313)
(0 0 0)
(0.000561029 8.31569e-05 0.000159287)
(0.00118314 0.000242413 0.000394983)
(0.00201474 0.000225458 0.000648437)
(0.00310692 -6.29198e-05 0.000889239)
(0.00437254 -0.000550991 0.00109797)
(0.00577974 -0.00120781 0.00124236)
(0.00729564 -0.0019561 0.00128459)
(0.0088389 -0.00268026 0.00118872)
(0.0103414 -0.00317876 0.000939985)
(0.0119187 -0.00332476 0.000528791)
(0 0 0)
(0.00118785 -3.8756e-05 0.000159287)
(0.002277 -1.71689e-05 0.00035463)
(0.00347904 -0.000160854 0.00054624)
(0.00482971 -0.000489185 0.000714909)
(0.00633816 -0.000973157 0.000845072)
(0.00793725 -0.0015945 0.000911915)
(0.00960758 -0.00230726 0.000883141)
(0.011158 -0.00287836 0.000762877)
(0.0125794 -0.00332479 0.000507313)
(0 0 0)
(0.00160889 -9.67709e-05 0.000151534)
(0.00294285 -0.000145639 0.000321056)
(0.00440497 -0.000299328 0.000466076)
(0.00594004 -0.000516656 0.000582353)
(0.00755362 -0.000822636 0.000654141)
(0.00915416 -0.00121105 0.000668625)
(0.0107048 -0.00158697 0.00061149)
(0.012115 -0.0019343 0.000478435)
(0 0 0)
(0.00175167 0 0.00014808)
(0.003157 0 0.000309382)
(0.00471062 0 0.000437318)
(0.00629982 0 0.000534745)
(0.0079405 0 0.000587136)
(0.00953537 0 0.000583877)
(0.0109173 0 0.000530741)
(0.00263952 -0.00241388 -1.34636e-17)
(0.00498468 -0.00868601 -5.04836e-17)
(0.00934584 -0.013055 0.00175237)
(0.00893769 -0.0242237 0.00114613)
(0.0106113 -0.0112929 0.00175211)
(0.0145271 -0.0196844 0.00122066)
(0.0168216 -0.015166 9.71064e-05)
(0.0182518 -0.0341163 -0.00196615)
(0.015748 -0.00453833 -0.000320015)
(0.0194484 -0.0118754 -0.00170128)
(0.0190473 -0.00437541 -0.00190924)
(0.0193343 -0.0167054 -0.00266149)
(0.00607505 -0.00695092 0.00172246)
(0.00897677 -0.0139183 0.00218568)
(0.0137942 -0.00949943 0.000794395)
(0.0179454 -0.0179518 -0.000542191)
(0.0165809 0.000490841 -0.0012783)
(0.0194597 -0.00553566 -0.00228055)
(0.0077894 -0.0102114 0.00112746)
(0.00128893 -0.00140562 0.000375351)
(0.010911 -0.020159 0.000506891)
(0.014156 -0.0129979 0.000633641)
(0.00947798 -0.0106025 0.00127247)
(0.0165995 -0.0211506 -0.000711414)
(0.0167713 -0.00271363 -0.00107989)
(0.0136138 -0.00183178 -0.000381426)
(0.0185668 -0.0121173 -0.00195591)
(0.00449509 -0.00446947 0.00150962)
(0.00463438 -0.00654877 0.00294954)
(0.00572341 -0.00837761 0.00132757)
(0.0102367 -0.0102451 0.00262597)
(0.0138625 -0.0229792 0.0028389)
(0.0141842 -0.0102381 0.00111793)
(0.0196698 -0.0271429 -0.000374571)
(0.012098 -0.00682447 0.00058495)
(0.0165713 -0.00623704 -0.000329692)
(0.0220079 -0.0197651 -0.00234073)
(0.0173621 -0.00106648 -0.00134882)
(0.0220069 -0.0101349 -0.0028868)
(0.0149182 0.00198668 -0.00128119)
(0.0183299 0.00232089 -0.00217457)
(0.020968 -0.00283454 -0.00299256)
(0.00820165 -0.0100554 -7.53243e-32)
(0.00155419 -0.00137387 4.56962e-25)
(0.00875942 -0.0118529 3.35209e-24)
(0.011372 -0.0144201 0.000794993)
(0.0101238 -0.0171516 3.17787e-24)
(0.00460624 -0.0055155 -2.461e-17)
(0.00573971 -0.00875037 -5.19297e-17)
(0.00748952 -0.0107647 0.00110342)
(0.00893284 -0.0224921 -2.31734e-25)
(0.00179689 -0.00459699 -8.9083e-15)
(0.00471782 -0.0104664 -2.56717e-21)
(0.00608507 -0.0171259 0.0011334)
(0.0116003 -0.0210497 -2.20643e-31)
(0.0126195 -0.0191734 3.60615e-05)
(0.011932 -0.0238409 -0.000313572)
(0.011614 -0.0138619 0.000932554)
(0.00889643 -0.0125971 0.00133299)
(0.00423735 -0.0408749 -0.00200978)
(0.0136035 -0.0165657 0.0011054)
(0.0153328 -0.0139291 0.000251869)
(0.0141618 -0.0195748 0.000414233)
(0.0116399 -0.0155792 0.00184269)
(0.0125077 -0.0134514 0.00176422)
(0.0139349 -0.0168664 0.00146923)
(0.0155705 -0.016908 0.000769826)
(0.013662 -0.0277744 -0.000590713)
(0.0121232 -0.0309325 0.00056344)
(0.0171991 -0.0431871 -0.000236904)
(0.014967 -0.025498 0.000515729)
(0.0169099 -0.0359421 -0.00129296)
(0.0137821 -0.0206157 -0.000395658)
(0.0153915 -0.0170714 -0.000564771)
(0.0149624 -0.0225817 -0.00102827)
(0.0151433 -0.00845418 -0.000119668)
(0.0142314 -0.0068546 2.16488e-05)
(0.0177641 -0.010216 -0.000776699)
(0.0172136 -0.00542521 -0.00113832)
(0.017931 -0.01444 -0.00114885)
(0.0178997 -0.0128604 -0.000541032)
(0.0175247 -0.00630624 -0.00075843)
(0.0188225 -0.00982535 -0.00132245)
(0.0189627 -0.00712301 -0.00154988)
(0.0175931 -0.0231208 -0.00180487)
(0.0191888 -0.0303841 -0.00241624)
(0.0217838 -0.0289216 -0.00349471)
(0.0198257 -0.0168066 -0.0021399)
(0.0196189 -0.0209509 -0.00268194)
(0.0164199 -0.0169961 -0.001155)
(0.0170695 -0.0115499 -0.00142708)
(0.0167452 -0.0169592 -0.00167591)
(0.019138 -0.00191371 -0.00224255)
(0.0189853 -0.0124918 -0.00266712)
(0.00222025 -0.00565689 0.000179683)
(0.00555048 -0.00414094 0.00239675)
(0.00801007 -0.0076631 0.00328594)
(0.00904949 -0.0110035 0.00125178)
(0.0133198 -0.00494065 0.00094414)
(0.0175336 -0.010413 -0.000272396)
(0.0124872 0.000204477 -0.000577991)
(0.0157085 0.00407011 -0.00129893)
(0.0185285 0.000725685 -0.00211974)
(0.00368999 -0.0036602 0.00091348)
(0.000913398 -0.000537287 -5.126e-13)
(0.00448211 -0.006301 0.00102572)
(0.000815515 -0.0232015 -0.00438945)
(0.00620346 -0.0101737 0.00146176)
(0.00201998 -0.00217468 -5.56541e-13)
(0.00782487 -0.00947571 0.00199041)
(0.00901117 -0.0125715 0.00206498)
(0.00952591 -0.0258481 0.00322186)
(0.00900968 -0.0176722 0.0017784)
(0.00572378 -0.0126846 0.000977558)
(0.0085032 -0.00989717 0.00197797)
(0.0100301 -0.0071626 0.00210999)
(0.0124005 -0.0110714 0.00131519)
(0.0121446 -0.0116236 0.000877736)
(0.00813039 -0.0390397 5.16655e-05)
(0.011938 -0.01742 0.00202001)
(0.0140116 -0.0126448 0.00186007)
(0.0165169 -0.0195468 0.000298634)
(0.0156459 -0.0114335 0.000470236)
(0.0171005 -0.0148959 -9.8281e-05)
(0.0208912 -0.0406937 -0.00281812)
(0.0185074 -0.0242752 -0.00122291)
(0.0112598 -0.00513344 0.000479474)
(0.0149216 -0.0072038 0.000233261)
(0.0150514 -1.39544e-05 -0.00030537)
(0.0162076 -0.00177091 -0.000828075)
(0.0153035 -0.0014226 -0.000897931)
(0.0188833 -0.01496 -0.00121055)
(0.0187551 -0.0043909 -0.00153135)
(0.0195168 -0.00834363 -0.0020318)
(0.018075 -0.000986917 -0.00165929)
(0.0190741 -0.00408883 -0.00205976)
(0.0210814 -0.017495 -0.00329913)
(0.0196185 -0.00946613 -0.00247975)
(0.0170799 0.00231504 -0.00169963)
(0.0194385 -0.002973 -0.00252095)
(0.0092355 -0.0116331 0.000774687)
(0.00241244 -0.00263807 0.000482804)
(0.0103283 -0.0138253 0.00114601)
(0.0113092 -0.0141317 0.00124054)
(0.00556965 -0.00668742 0.00117726)
(0.006788 -0.0101517 0.00131491)
(0.0103226 -0.0122084 0.00216359)
(0.000616948 -0.00112619 3.37096e-06)
(0.00264488 -0.00128107 0.00127802)
(0.00345857 -0.00467899 0.00100614)
(8.3606e-05 -0.00672831 -0.00234635)
(0.0114075 -0.0180559 0.000665632)
(0.0104936 -0.0247238 1.7743e-05)
(0.0122389 -0.0209931 -9.26021e-05)
(0.0140555 -0.0221438 0.000120745)
(0.00671431 -0.0098997 0.00130571)
(0.00606344 -0.0125649 0.00138601)
(0.0116014 -0.015294 0.00206438)
(0.0123012 -0.0227555 0.00143981)
(0.0136485 -0.0124748 0.000512465)
(0.010707 -0.0129775 0.00118154)
(0.0160444 -0.0148308 0.000214937)
(0.0158991 -0.00797686 -0.000261458)
(0.0142959 -0.013087 0.00112466)
(0.0133073 -0.00946167 0.000475761)
(0.0167608 -0.00909699 -0.000173045)
(0.00766727 -0.0101259 0.00137681)
(0.00748337 -0.0127399 0.00126678)
(0.011835 -0.00652104 0.00156347)
(0.010902 -0.00885012 0.000990232)
(0.00629873 -0.0430773 -0.000794149)
(0.0164274 -0.0179541 -0.000359589)
(0.0161825 -0.027467 -0.00130347)
(0.015324 -0.0193136 -0.000760717)
(0.0180857 -0.0170892 -0.00144609)
(0.015791 -0.016683 0.00066644)
(0.0171893 -0.0262405 -0.000420995)
(0.018122 -0.0125057 -0.000769747)
(0.0195289 -0.021006 -0.0018177)
(0.015866 -0.00395235 -0.00075983)
(0.0148528 -0.00394879 -0.00045536)
(0.0182529 -0.00499598 -0.00153709)
(0.0178327 -0.00336557 -0.00124353)
(0.0157429 0.000661999 -0.00129333)
(0.018409 0.00104029 -0.00205401)
(0.0129255 -0.0041743 0.000103799)
(0.0119817 -0.00219186 -6.24487e-05)
(0.0153815 0.00235083 -0.000834137)
(0.0140267 0.000534495 -0.00085017)
(0.0184596 -0.00949691 -0.00176663)
(0.0180407 -0.0174778 -0.00212193)
(0.0170903 -0.0136441 -0.00156808)
(0.019031 -0.00680308 -0.00173245)
(0.0199629 -0.0129932 -0.00238522)
(0.0192056 -0.00180218 -0.00237293)
(0.0194128 -0.00629984 -0.00260889)
(0.00418846 -0.00350333 0.00213899)
(0.00735157 -0.00733509 0.00250601)
(0.0095237 -0.0153595 0.00384314)
(0.00467983 -0.0117421 0.00324699)
(0.00395815 -0.0100616 0.000599947)
(0.00797962 -0.00637097 0.00251781)
(0.00230139 -0.0354816 -0.00350478)
(0.0113828 -0.011169 0.00296441)
(0.0122267 -0.0103872 0.00189382)
(0.0139687 -0.037521 0.00167468)
(0.0173265 -0.0271631 0.00123223)
(0.0161047 -0.0122772 0.000719205)
(0.0154551 -0.00826629 0.00036346)
(0.0213197 -0.0246781 -0.00160372)
(0.01957 -0.0441038 -0.0017936)
(0.0102983 -0.00807127 0.000946594)
(0.0143135 -0.00239318 0.000298956)
(0.0183938 -0.0074236 -0.00101549)
(0.0170298 -0.00341254 -0.00088127)
(0.0217028 -0.0353327 -0.00336739)
(0.0223148 -0.0149543 -0.00274694)
(0.0187341 -0.00150591 -0.0018708)
(0.0174186 0.00109464 -0.00171273)
(0.0216433 -0.00633869 -0.00297044)
(0.0216382 -0.0229509 -0.00345672)
(0.0131502 0.00212646 -0.00103129)
(0.0166523 0.00510963 -0.00177721)
(0.0187178 0.00244628 -0.00240836)
(0.0205032 -0.012767 -0.00318446)
(0.00586163 -0.00698874 -9.23827e-26)
(0.000303676 -0.000154766 -3.44316e-17)
(0.00921581 -0.018214 5.98938e-25)
(0.00309624 -0.0033366 -1.93629e-16)
(0.00167238 -0.00253438 -4.2712e-15)
(0.00251846 -0.00017311 0.00152503)
(0.000398758 2.99854e-05 0.000157425)
(0.00944786 -0.00120757 0.00125635)
(0.00796792 -0.00214178 0.00164846)
(0.0122456 0.0051539 -0.000769249)
(0.0118988 0.00393877 -0.000313664)
(0.00100238 -0.00569689 -0.000938401)
(-0.000132873 -0.0013372 -0.00116049)
(0.000118013 -0.0143844 -0.00475081)
(6.92419e-05 -0.000223686 -0.000225382)
(0.00414123 -0.000630327 0.00193737)
(0.00152765 -0.000350284 0.000655987)
(0.00705105 -0.00606458 0.00412576)
(0.00199846 -0.00266293 0.00251865)
(0.0075058 -0.0145697 0.00480182)
(0.00207556 -0.00100569 0.00163422)
(0.00452499 -0.00163966 0.00196313)
(0.00628411 -0.00219594 0.0019092)
(0.00244848 -0.0131632 -0.00053851)
(0.0027994 -0.0356697 -0.00240362)
(0.00106593 -0.027241 -0.0041649)
(0.00431743 -0.0185001 0.000452364)
(0.00717511 -0.00274837 0.00259875)
(0.00898335 -0.0020741 0.00210207)
(0.0118521 -0.0134419 0.00432373)
(0.0173281 -0.035942 0.00187156)
(0.0130097 -0.0274431 0.00395281)
(0.0158059 -0.0186609 0.00302709)
(0.00816881 -0.0184763 0.00172768)
(0.00489551 -0.0386566 -0.00067598)
(0.00629594 -0.0201209 0.00131798)
(0.00698499 -0.0370662 0.000513993)
(0.0123337 -0.000607223 0.000939197)
(0.0107798 -0.00144391 0.00153979)
(0.0208964 -0.018581 -0.000186526)
(0.0204046 -0.0389387 -0.000266636)
(0.0188224 -0.0202481 0.00132403)
(0.022386 -0.0373423 -0.00191382)
(0.0105577 0.000592809 0.000742688)
(0.0113399 0.00241937 0.000200159)
(0.0097959 -0.0148082 0.00163932)
(0.0103721 -0.0267045 0.0010801)
(0.00884768 -0.0325577 0.00106215)
(0.011119 -0.0103547 0.00118218)
(0.0133145 0.00115868 0.000328148)
(0.0139476 0.00280379 -0.000217948)
(0.0221441 -0.0149037 -0.00129301)
(0.023838 -0.0269524 -0.00343628)
(0.0234688 -0.0328209 -0.00294122)
(0.0227052 -0.0104508 -0.00199803)
(0.0128637 -0.00222327 -0.000152292)
(0.0115493 -0.0207453 0.000754764)
(0.0121344 -0.005999 0.000531727)
(0.012396 -0.0153459 0.00026449)
(0.0143393 0.00540952 -0.00106869)
(0.0141817 0.00440857 -0.000674771)
(0.0223875 -0.00233763 -0.00263475)
(0.0237103 -0.0209844 -0.00357834)
(0.0227313 -0.00610052 -0.00240465)
(0.0232505 -0.0155666 -0.00354125)
(0.0126154 0.00605349 -0.0011645)
(0.0136584 0.00624027 -0.00153149)
(0.0133543 0.000865563 -0.000754304)
(0.0132901 -0.00681763 -0.000705866)
(0.0129621 -0.0107227 -0.000252122)
(0.0136616 0.00341954 -0.00121253)
(0.0145484 0.0061708 -0.0014258)
(0.0156872 0.00622702 -0.00188197)
(0.0218492 0.000733556 -0.00280109)
(0.0219064 -0.00701595 -0.00343448)
(0.0226144 -0.0109386 -0.00346462)
(0.0212658 0.00327829 -0.00298394)
(0.00234403 -0.00100584 0.00104104)
(0.00547736 -0.00265847 0.00285914)
(0.00632008 -0.00132029 0.00276802)
(0.0084117 -0.00107711 0.0012817)
(0.0138127 -0.00387435 0.00109579)
(0.0145936 -0.000601109 0.000189176)
(0.0110689 0.00580561 -0.000729959)
(0.0159987 0.00625498 -0.00137939)
(0.0154405 0.00588735 -0.0015233)
(0.000361267 -0.000732998 1.04217e-08)
(0.003947 -0.0461665 -0.00241849)
(0.0184199 -0.0464553 -0.000131572)
(0.0112798 -0.0305251 0.000658987)
(0.0229077 -0.0308661 -0.00383323)
(0.000437645 -0.0267584 -0.00587429)
(0.0101527 -0.0269553 0.00417958)
(0.00555612 -0.00339995 0.00156281)
(0.0103163 -0.00669725 0.00245104)
(0.011506 -0.00296215 0.00183383)
(0.00821309 -0.0431296 0.00022479)
(0.022166 -0.0434543 -0.00311575)
(0.0102125 0.00292697 0.000283712)
(0.0155292 0.00190979 -0.00031355)
(0.0156532 0.00322861 -0.00091288)
(0.0129116 -0.0184826 -2.2473e-05)
(0.0220787 -0.0187426 -0.00357509)
(0.000276852 -4.98466e-05 2.55346e-10)
(0.000600011 -0.000283921 5.55894e-10)
(0.00085563 -0.000850736 0.000232133)
(0.00181753 -0.00106055 0.00087795)
(0.00221302 -0.00266263 0.000691716)
(0.000530713 -0.000344952 0.000100274)
(0.00857849 -0.0101751 0.00139136)
(0.00822397 -0.00706831 0.0013004)
(0.010406 -0.00718296 0.00153638)
(0.0102286 -0.00941778 0.00119719)
(0.0132302 -0.00238871 -0.000146353)
(0.0121227 0.000540189 -0.000295031)
(0.0142017 0.00158104 -0.000629548)
(0.0137296 -7.62342e-06 -0.000638373)
(0.00037888 -0.00212917 -0.000474228)
(8.78289e-05 -0.00504506 -0.00245416)
(0.00334887 -0.00190074 0.00146848)
(0.00378307 -0.00263053 0.00161319)
(0.00565237 -0.00514569 0.00220168)
(0.00307073 -0.00293596 0.000798752)
(0.00462552 -0.00542721 0.0037167)
(0.00464133 -0.00493382 0.00272821)
(0.00715406 -0.0109472 0.0037947)
(0.0047164 -0.00907278 0.00332686)
(0.00266561 -0.00367886 0.00176681)
(0.00467451 -0.00649796 0.00130981)
(0.00670731 -0.00907946 0.00144017)
(0.0047972 -0.0057734 0.00123937)
(0.00663896 -0.00638999 0.00209706)
(0.00334133 -0.0164702 -0.000216476)
(0.00231298 -0.0241312 -0.00183067)
(0.00887015 -0.00881003 0.00285687)
(0.00912726 -0.00709545 0.00270114)
(0.009773 -0.00707431 0.00267648)
(0.0111166 -0.00990315 0.00231861)
(0.0120426 -0.0202133 0.00363026)
(0.01511 -0.0244142 0.00353518)
(0.0133451 -0.0177364 0.00322714)
(0.0143302 -0.0306689 0.0024454)
(0.0159423 -0.0262163 0.00214648)
(0.00626903 -0.0290538 0.000841555)
(0.0128996 -0.00651642 0.00140045)
(0.0130663 -0.00973899 0.0015218)
(0.0136029 -0.00645353 0.00102941)
(0.0147841 -0.00885539 0.00074631)
(0.0189505 -0.0285157 0.000409293)
(0.0214051 -0.0293189 -0.00031963)
(0.0190051 -0.0208577 0.000289362)
(0.0209111 -0.0270644 -0.00105276)
(0.0201796 -0.0362638 -0.00110559)
(0.0114899 -0.00719038 0.000815878)
(0.0124781 -0.00482384 0.000347472)
(0.0107136 -0.00357819 0.000667293)
(0.0129327 -0.00312115 0.000471981)
(0.00977732 -0.0212314 0.00141498)
(0.0158485 -0.0065165 2.77804e-05)
(0.0152824 -0.00252813 4.80799e-05)
(0.0157894 -0.0029055 -0.000404741)
(0.0167224 -0.00424596 -0.000608381)
(0.0221334 -0.0232173 -0.00208029)
(0.023799 -0.0214705 -0.0025697)
(0.0214556 -0.0142191 -0.00173736)
(0.0224122 -0.0280492 -0.00298574)
(0.0225451 -0.0180076 -0.00262753)
(0.0120481 -0.0109854 0.000458024)
(0.0161227 0.00209556 -0.00102495)
(0.0169715 -0.00147096 -0.00109377)
(0.0163437 0.00122257 -0.00132028)
(0.0171683 0.000627194 -0.00150935)
(0.0225734 -0.0130315 -0.00290616)
(0.0236783 -0.011202 -0.00316292)
(0.0216119 -0.00577532 -0.00251009)
(0.0221785 -0.00863451 -0.00299771)
(0.0223231 -0.0168277 -0.00330957)
(0.0142834 0.001837 -0.00108475)
(0.0151494 0.00310856 -0.00148528)
(0.0134686 0.00334394 -0.00117147)
(0.0156203 0.00447315 -0.00155817)
(0.0131904 -0.0031611 -0.000684568)
(0.0175113 0.00226824 -0.00188987)
(0.017459 0.00464069 -0.00196141)
(0.0172637 0.00355156 -0.0020725)
(0.0184114 0.0033474 -0.00233771)
(0.0216754 -0.00487361 -0.00305045)
(0.0224523 -0.00336978 -0.0032591)
(0.0208494 0.000367826 -0.0028408)
(0.0211676 -0.00788624 -0.00320194)
(0.0208665 -0.00153131 -0.00307334)
(0.00273811 -0.00665278 0.00207305)
(0.00166904 -0.00329166 -5.39364e-15)
(0.00528837 -0.0426913 -0.00135307)
(0.00322419 -0.0389938 -0.00280643)
(0.0158049 -0.0413727 0.000736014)
(0.0177405 -0.0357215 0.000567657)
(0.0186551 -0.0447387 -0.00108228)
(0.021929 -0.0325321 -0.00349148)
(0.022534 -0.0223101 -0.00325623)
(0.0219042 -0.0261608 -0.00352805)
(0.0201818 -0.0107039 -0.00314676)
(0.00139821 -0.00307609 9.14093e-05)
(0.00275791 -0.00341171 0.000813991)
(0.0016762 -0.00945684 -0.000771871)
(0.00304699 -0.00792608 0.000368861)
(0.00401105 -0.00205755 0.00202779)
(0.00437822 -0.00373858 0.00189263)
(0.00641369 -0.00470651 0.00257571)
(0.0069117 -0.00547718 0.00269009)
(0.000842067 -0.0152043 -0.00295025)
(0.0102574 -0.0155259 0.00470933)
(0.00599899 -0.00510824 0.00292113)
(0.00694238 -0.00503955 0.00269952)
(0.00914366 -0.0113769 0.00380946)
(0.00987549 -0.0097333 0.00336985)
(0.00392512 -0.00265473 0.00136629)
(0.00805546 -0.00554234 0.00290247)
(0.00918697 -0.002696 0.0026012)
(0.00100745 0.000350978 0.000762036)
(0.00259326 0.000207802 0.00184216)
(0.00303564 1.09289e-06 0.00172661)
(0.00709443 -0.00270158 0.00154734)
(0.0122651 -0.00593822 0.00181869)
(0.0133238 -0.00217696 0.00097465)
(0.00826759 -0.0119494 0.00132262)
(0.00959605 -0.00550917 0.00106386)
(0.00965602 -0.00931893 0.00114218)
(0.012633 -0.00558056 0.00128395)
(0.0118308 -0.0053336 0.00103521)
(0.0142218 -0.00464044 0.000718397)
(0.0138174 -0.00324884 0.000629721)
(0.0081614 -0.0260539 0.00140775)
(0.0230161 -0.0263043 -0.00171403)
(0.0169357 -0.0114535 0.000189636)
(0.0148616 -0.00478142 0.000259305)
(0.0204528 -0.0179878 -0.000906429)
(0.0180114 -0.00871534 -0.000684535)
(0.00944914 0.000997551 0.000822698)
(0.0148415 -0.000892947 0.000361842)
(0.0153285 0.00138962 -0.00043856)
(0.010741 0.00457493 -0.000258848)
(0.0158346 0.00441565 -0.000894404)
(0.0156381 0.00477121 -0.00125631)
(0.0122029 -0.000754807 -0.000326079)
(0.0125179 0.00235076 -0.000750667)
(0.0126868 0.0014453 -0.000813171)
(0.0154774 0.00363922 -0.00107724)
(0.0145279 0.0035303 -0.00110427)
(0.016248 0.00386944 -0.00143299)
(0.0159081 0.00506917 -0.00152431)
(0.0127424 -0.00673495 -0.000150819)
(0.0231331 -0.00694277 -0.00321349)
(0.0186416 -0.000198111 -0.00200413)
(0.0163217 0.00282357 -0.00163794)
(0.0210893 -0.00226081 -0.00265471)
(0.0184463 0.0018948 -0.00223653)
(0.0113991 0.00665939 -0.00110859)
(0.0165123 0.00745256 -0.00182861)
(0.0153546 0.00663145 -0.00178016)
(0.0013028 -0.000502269 0.000506559)
(0.000452257 -0.000233005 -4.1692e-16)
(0.00172671 -0.00122308 -9.9699e-13)
(-1.80412e-05 -0.0102141 -0.00505652)
(0.00452298 -0.0103562 0.00438191)
(0.000422685 -0.000492162 6.15133e-09)
(0.000344749 -0.0154841 -0.00405705)
(0.000804358 -0.0182422 -0.00342561)
(0.00148009 -0.0306208 -0.00416958)
(0.00256659 -0.00227779 0.00119191)
(0.00220451 -0.00207788 -7.38777e-13)
(0.00183351 -0.00224343 -3.30279e-15)
(0.00977159 -0.0208076 0.00379711)
(0.00713866 -0.0188767 0.0036176)
(0.0119915 -0.032732 0.00261829)
(0.0065478 -0.00698338 0.0013424)
(0.00655607 -0.0128272 0.00116302)
(0.0048369 -0.0117446 0.000816084)
(0.00515147 -0.020104 0.000519271)
(0.00859714 -0.00729182 0.00190044)
(0.0109211 -0.00661953 0.00187717)
(0.00895118 -0.00651249 0.002371)
(0.0109875 -0.00689035 0.00205357)
(0.00187857 -0.0397067 -0.0043837)
(0.0149277 -0.0399291 0.0021464)
(0.00423914 -0.0288343 -0.000324326)
(0.0188246 -0.029113 0.00156027)
(0.00617099 -0.0468618 -0.000798354)
(0.0207753 -0.0470729 -0.00195193)
(0.00724083 -0.0417211 -0.000310951)
(0.0127371 -0.0119428 0.00244784)
(0.0117323 -0.0068103 0.00184493)
(0.0165154 -0.0206373 0.00176596)
(0.0151148 -0.0124387 0.0012688)
(0.0216773 -0.0333777 -0.00231087)
(0.0204834 -0.0432942 -0.00238585)
(0.0215692 -0.0387115 -0.00318749)
(0.0114932 -0.00136592 0.00019174)
(0.011583 -0.00334272 0.000215082)
(0.0107476 -0.00637834 0.000735528)
(0.0136708 -0.000530452 -0.000107333)
(0.0151629 0.00168419 -0.000578163)
(0.0146737 -0.000739204 -8.21807e-06)
(0.0157704 4.24308e-05 -0.000518367)
(0.00994045 -0.0372239 0.000662624)
(0.0228255 -0.0375557 -0.00368738)
(0.0110745 -0.0159619 0.00103472)
(0.0239712 -0.016194 -0.00300065)
(0.012269 -0.0241866 0.000383373)
(0.0226168 -0.0244372 -0.00374575)
(0.01864 -0.00576221 -0.00130689)
(0.0161583 -0.000635662 -0.000915997)
(0.0216488 -0.00964897 -0.00221729)
(0.0187218 -0.0025951 -0.00171427)
(0.0218298 -0.0121528 -0.00326363)
(0.0215418 -0.0204478 -0.00341699)
(0.0210048 -0.0153105 -0.00328208)
(0.01339 0.00304355 -0.00121807)
(0.0170516 0.00581341 -0.00199724)
(0.0133196 -0.0136976 -0.000447694)
(0.0214511 -0.0139313 -0.00343463)
(0.0188036 0.00326045 -0.00255339)
(0.00267331 -0.00495658 0.00204166)
(0.0163831 -0.0345428 0.00157014)
(0.0193956 -0.0375578 -0.000314734)
(0.0228206 -0.0259005 -0.0032097)
(0.0228124 -0.0201778 -0.00337254)
(0.0209566 -0.00626226 -0.00322181)
(0.00179197 -0.00212435 0.000530084)
(0.00308285 -0.00200371 0.00154829)
(0.00147597 0.000129997 0.00101374)
(0.00163379 -0.000129029 0.00089768)
(0.00397123 -0.000721858 0.00246128)
(0.00351672 -0.000817447 0.00181273)
(0.000218821 -0.000116227 -2.25368e-05)
(0.00083924 -0.000357947 0.000296268)
(0.000229389 0.000174441 6.38226e-06)
(0.00105022 0.000194574 0.000686254)
(-0.000153897 -0.00176349 -0.00133532)
(9.57341e-05 -0.0186178 -0.00594073)
(0.00869114 -0.00146661 0.00146014)
(0.00898069 -0.00613031 0.00123714)
(0.0111501 -0.00637593 0.00131637)
(0.00776503 -0.00197382 0.00144328)
(0.0130602 -0.00493847 0.00146089)
(0.00998608 -8.04442e-05 0.000998102)
(0.0074176 -0.0068646 0.00137096)
(0.00949031 -0.00736019 0.00174485)
(0.00711357 -0.00205039 0.00179438)
(0.00631973 -0.00316576 0.00158055)
(0.0112853 -0.00634186 0.00214354)
(0.00506703 -0.0472002 -0.00154195)
(0.00723078 -0.0454584 -0.000207854)
(0.0120204 0.00472316 -0.000552329)
(0.0123003 0.00182486 -0.000540989)
(0.01431 0.00276183 -0.00087399)
(0.0109042 0.00523027 -0.000501127)
(0.0158823 0.00546016 -0.00114511)
(0.0122883 0.00578692 -0.00097003)
(0.011811 1.65667e-05 -6.2099e-05)
(0.0139117 0.000733056 -0.000371323)
(0.0115977 0.00334549 -6.74365e-05)
(0.0104754 0.00382212 1.08985e-05)
(0.0156381 0.00336633 -0.000613508)
(0.0118232 -0.027305 0.000545879)
(0.0126314 -0.0212489 0.000189142)
(0.000989702 -0.00572444 -0.000795421)
(0.00037932 -0.00999238 -0.00299863)
(0.000505759 -0.0024366 -0.000711571)
(0.0016541 -0.00949403 -0.000866023)
(-4.11692e-05 -0.00770862 -0.00398181)
(-8.06898e-05 -0.00081921 -0.000744701)
(0.000342468 -0.0120154 -0.00322502)
(0.000475569 -0.0211863 -0.00472054)
(0.00476802 -0.00282164 0.00216461)
(0.00517839 -0.00324721 0.00230372)
(0.00271783 -0.000252901 0.00132095)
(0.00465765 -0.00039242 0.00239545)
(0.00562948 -0.00150088 0.00232507)
(0.0020192 -0.00108171 0.000716381)
(0.00239085 -0.00171054 0.000849951)
(0.00151583 -0.000169718 0.000873844)
(0.007485 -0.0103217 0.0045779)
(0.0069206 -0.00797281 0.00357336)
(0.00449153 -0.00291634 0.00313823)
(0.0095377 -0.00979765 0.00449038)
(0.00459561 -0.00793647 0.00421961)
(0.00206956 -0.00188653 0.00209871)
(0.00200011 -0.00347227 0.00278184)
(0.0027432 -0.00294421 0.00154657)
(0.00733748 -0.0151254 0.00401045)