/*--------------------------------*- C++ -*----------------------------------*\
| =========                 |                                                 |
| \\      /  F ield         | OpenFOAM: The Open Source CFD Toolbox           |
|  \\    /   O peration     | Version:  2012                                  |
|   \\  /    A nd           | Website:  www.openfoam.com                      |
|    \\/     M anipulation  |                                                 |
\*---------------------------------------------------------------------------*/
FoamFile
{
    version     2.0;
    format      ascii;
    class       volVectorField;
    location    "0.108/fluid";
    object      U_0;
}
// * * * * * * * * * * * * * * * * * * * * * * * * * * * * * * * * * * * * * //

dimensions      [0 1 -1 0 0 0 0];


internalField   nonuniform List<vector> 
16422
(
(1.19995 2.50291e-05 2.16687e-05)
(1.19976 0.000102228 5.29692e-05)
(1.19944 0.000172383 2.73668e-05)
(1.1995 0.000249363 2.78367e-05)
(1.19944 0.000369526 2.97274e-05)
(1.19932 0.000560436 3.62812e-05)
(1.19915 0.000864178 4.88002e-05)
(1.19895 0.00134423 6.76715e-05)
(1.19869 0.00209316 0.000100323)
(1.19836 0.00325193 0.000157371)
(1.19796 0.00500121 0.000248272)
(1.19741 0.00762146 0.000436838)
(1.19602 0.0119285 0.00100932)
(1.19204 0.0227507 0.00295127)
(1.21159 0.0622594 0.00466201)
(1.19995 1.77895e-05 2.17565e-05)
(1.19977 7.08511e-05 5.51933e-05)
(1.19948 0.000129366 2.88556e-05)
(1.19958 0.000189199 2.86283e-05)
(1.19956 0.000280091 3.13635e-05)
(1.19952 0.000424597 3.54729e-05)
(1.19948 0.000647891 4.43511e-05)
(1.19948 0.000993967 5.99707e-05)
(1.19952 0.00152577 8.21881e-05)
(1.19967 0.00232205 0.000116802)
(1.19999 0.00349537 0.000171181)
(1.20062 0.0052221 0.000246975)
(1.20197 0.00782465 0.000356665)
(1.20558 0.0115047 0.000486702)
(1.21479 0.0117888 0.000250095)
(1.19995 1.59579e-06 2.19504e-05)
(1.19978 6.59889e-06 5.64001e-05)
(1.19951 5.35432e-05 2.91229e-05)
(1.19963 8.85345e-05 2.83773e-05)
(1.19965 0.000138714 3.17029e-05)
(1.19965 0.000212014 3.53745e-05)
(1.1997 0.000325567 4.25007e-05)
(1.19981 0.000497243 5.48617e-05)
(1.20003 0.000757141 7.08339e-05)
(1.20044 0.00114193 9.35782e-05)
(1.20116 0.00169678 0.000122729)
(1.20239 0.00246936 0.000148943)
(1.20449 0.00344035 0.000156876)
(1.2079 0.00417343 0.000113757)
(1.21196 0.00286177 -1.26019e-07)
(1.19997 2.45696e-05 1.40638e-05)
(1.19999 0.000101508 6.63994e-05)
(1.19977 0.000169787 7.61044e-05)
(1.19989 0.00024527 9.22136e-05)
(1.19989 0.000363438 0.000130412)
(1.19984 0.000548453 0.000190424)
(1.19977 0.000838856 0.00028353)
(1.19968 0.0012962 0.000424605)
(1.19958 0.00200391 0.000635245)
(1.1995 0.00308077 0.000948123)
(1.19953 0.00467438 0.00141291)
(1.19973 0.00695195 0.00209377)
(1.19996 0.0103048 0.00302332)
(1.19983 0.0174114 0.00401503)
(1.21386 0.043065 0.00346303)
(1.19997 1.75483e-05 1.33254e-05)
(1.2 7.08652e-05 6.38584e-05)
(1.19981 0.000126825 7.07524e-05)
(1.19997 0.000185635 8.47982e-05)
(1.20003 0.000275228 0.000118197)
(1.20005 0.000414186 0.000170362)
(1.2001 0.000629727 0.000246309)
(1.20019 0.000960345 0.000355026)
(1.20037 0.00146323 0.000509255)
(1.20069 0.00220656 0.000719162)
(1.20125 0.00328688 0.000997283)
(1.20223 0.00483633 0.00134811)
(1.20401 0.00709137 0.00172336)
(1.20782 0.010162 0.00190601)
(1.21591 0.0102833 0.00137668)
(1.19997 1.66695e-06 1.27818e-05)
(1.20001 6.71082e-06 6.24091e-05)
(1.19984 5.19608e-05 6.72146e-05)
(1.20003 8.63069e-05 8.06984e-05)
(1.20011 0.000134984 0.000110129)
(1.20019 0.000207262 0.000157404)
(1.20031 0.000317274 0.000222929)
(1.20051 0.000481122 0.000312381)
(1.20084 0.000726592 0.000432566)
(1.20138 0.00108763 0.00058406)
(1.20226 0.00160118 0.000763581)
(1.20365 0.00230575 0.000951111)
(1.20584 0.00318017 0.00108811)
(1.20913 0.00383135 0.00105452)
(1.21275 0.00258407 0.000699959)
(1.19997 2.3548e-05 2.23783e-05)
(1.19998 9.85937e-05 0.000101503)
(1.19978 0.000164669 0.000129091)
(1.19993 0.000234523 0.000161343)
(1.19996 0.000345379 0.000223593)
(1.19995 0.000517385 0.000323589)
(1.19993 0.000781948 0.000477009)
(1.19993 0.00118947 0.000708446)
(1.19995 0.00180771 0.00105101)
(1.20006 0.00272329 0.00154473)
(1.20033 0.00402925 0.00224471)
(1.20084 0.00580281 0.00320351)
(1.20137 0.00825406 0.00439822)
(1.20072 0.0138509 0.00538152)
(1.21049 0.0392384 0.00419869)
(1.19997 1.6831e-05 2.12133e-05)
(1.2 6.8986e-05 9.75686e-05)
(1.19982 0.000121683 0.000122858)
(1.20001 0.000178232 0.000149822)
(1.20008 0.000261982 0.000204086)
(1.20014 0.00039115 0.000289102)
(1.20024 0.000587881 0.00041624)
(1.20039 0.000883605 0.000596059)
(1.20064 0.0013244 0.000849178)
(1.20105 0.00196309 0.00118971)
(1.20172 0.00286351 0.00163017)
(1.20278 0.00411452 0.00216544)
(1.2045 0.00590666 0.00271014)
(1.20774 0.00843836 0.00294754)
(1.2146 0.00876253 0.00219298)
(1.19997 1.46282e-06 2.03928e-05)
(1.20001 5.68736e-06 9.45762e-05)
(1.19985 4.90058e-05 0.000118157)
(1.20006 8.19828e-05 0.000142812)
(1.20016 0.000127659 0.000191843)
(1.20027 0.000195935 0.000268166)
(1.20043 0.000295701 0.000376912)
(1.20067 0.000443236 0.000525928)
(1.20106 0.000659421 0.000724946)
(1.20165 0.000970592 0.000975616)
(1.20256 0.00140282 0.0012673)
(1.20393 0.0019813 0.00156625)
(1.20597 0.00268949 0.00177657)
(1.2089 0.00321645 0.0017037)
(1.21205 0.00212381 0.0011338)
(1.1763 0.0955826 0.0126454)
(0.923668 -0.146187 -0.0160332)
(1.19387 0.0611134 0.00976731)
(1.33056 -0.0560723 -0.00646584)
(1.19331 0.0621561 0.00506526)
(1.33112 -0.0545951 0.00936578)
(1.19039 0.0581014 0.00478746)
(1.32556 -0.0546508 -0.00937616)
(1.18899 0.0583544 0.00444017)
(1.32452 -0.0545512 0.00732455)
(1.18456 0.0241601 0.00455189)
(1.16865 0.0614439 0.0104669)
(1.19699 0.0170517 0.00632811)
(1.19519 0.0375909 0.00941414)
(0.655193 0.0185672 0.0906217)
(1.16143 -0.00522743 0.0350234)
(1.2944 0.00800578 -0.00535064)
(1.21861 0.0173967 0.000702817)
(1.23375 0.000742682 1.21141e-05)
(1.21461 0.04236 0.00546104)
(1.28862 0.0152156 -0.00112547)
(1.22083 0.0152923 0.00201898)
(1.23501 0.00195077 0.000786328)
(1.19646 0.0171558 0.00486209)
(1.19444 0.0384377 0.00544551)
(1.19791 0.0137741 0.00602077)
(1.19338 0.0339349 0.0056593)
(1.13498 -0.0211602 0.00812262)
(1.13317 -0.0283278 0.0088478)
(1.2869 0.0152855 -0.000162561)
(1.22051 0.0153517 0.00183941)
(1.23425 0.00246652 0.000585731)
(1.21137 0.0393598 0.00411683)
(1.28422 0.0156884 0.0013328)
(1.21927 0.0138365 0.00228012)
(1.2325 0.00194357 0.000158878)
(1.19791 0.0131545 0.00609395)
(1.19236 0.0337922 0.00541958)
(1.12689 -0.0268395 0.00467685)
(1.12525 -0.0283877 0.00773168)
(1.2833 0.0162813 0.000998066)
(1.21867 0.0134423 0.00237915)
(1.23148 0.00189316 -0.000219902)
(1.07122 0.0818597 0.0223936)
(1.16837 0.106899 0.0109427)
(1.2101 0.0684903 0.0169949)
(1.16028 0.0607151 0.0308089)
(1.24274 0.100266 0.0219379)
(0.849949 0.0546687 0.0474327)
(1.34773 -0.0642664 -0.00448047)
(1.31796 0.0929284 0.0209793)
(1.13641 -0.0247858 0.0172386)
(1.13962 -0.0128033 0.0277419)
(1.19346 0.069935 0.00800213)
(1.13266 0.0395882 0.0126513)
(1.21663 0.0925248 0.00874584)
(1.1341 0.049259 0.0102948)
(1.21954 0.10017 0.00911346)
(1.34105 -0.0561285 0.00944001)
(1.28622 0.0893368 0.00758296)
(1.29418 0.0966303 0.00530011)
(1.13206 0.0416699 0.00546568)
(1.21605 0.0937894 0.00408381)
(1.19269 0.058742 0.0060011)
(1.13028 0.0365651 0.00675146)
(1.21396 0.0915233 0.00453666)
(1.28616 0.0910284 0.0019711)
(1.32798 -0.0545721 -0.00796132)
(1.28297 0.0895904 0.00459324)
(1.12895 -0.028686 0.00630366)
(1.13077 -0.0248725 0.00400589)
(1.19142 0.059523 0.00373316)
(1.12707 0.036256 0.0051368)
(1.2111 0.0919156 0.00318301)
(1.12884 0.038824 0.00381988)
(1.21301 0.0924712 0.00241347)
(1.32777 -0.0545161 0.00808699)
(1.28017 0.090481 0.00365844)
(1.28291 0.0902954 1.61159e-05)
(1.12539 0.037259 0.0046434)
(1.20953 0.0925403 0.00282898)
(1.18774 0.0575578 0.00620211)
(1.12374 0.0359398 0.00689302)
(1.20737 0.0924051 0.00446231)
(1.27945 0.0910341 -0.000202164)
(1.32144 -0.0548253 -0.0104789)
(1.27602 0.0914177 0.00488707)
(1.12387 -0.0274023 0.0097972)
(1.18662 0.0567134 0.00814298)
(1.12245 0.0356002 0.00942227)
(1.20506 0.092086 0.00652964)
(1.31911 -0.054603 0.00710249)
(1.27417 0.0916233 0.00192841)
(1.20522 -0.0905872 0.0750384)
(1.21178 -0.191003 0.028958)
(1.13778 -0.0679295 0.0229908)
(1.29071 -0.162261 0.0505567)
(1.1846 -0.0563893 0.0441149)
(1.14618 -0.101421 0.0274355)
(1.25288 -0.0872348 0.101017)
(0.286131 -0.0332691 0.0642873)
(1.18732 -0.00706695 0.045835)
(1.10679 -0.139028 0.0045674)
(1.15507 -0.217048 0.00415293)
(1.11381 -0.0948314 0.00656582)
(1.15568 -0.216186 0.00493852)
(1.11513 -0.0941078 0.00542304)
(1.10588 -0.13996 0.00909295)
(1.10908 -0.131293 0.0129437)
(1.1624 -0.204338 0.000592599)
(1.11966 -0.0881462 0.00589324)
(1.11004 -0.13078 0.00250494)
(1.15986 -0.204933 0.0100204)
(1.11799 -0.0883864 0.00810428)
(1.09596 -0.138509 0.00185747)
(1.14397 -0.216179 0.00757945)
(1.10146 -0.0947827 0.00819607)
(1.14467 -0.215787 0.00222509)
(1.10266 -0.094527 0.00386122)
(1.09525 -0.13871 0.0109133)
(1.0976 -0.136537 0.00879033)
(1.14793 -0.212535 -0.00110555)
(1.10597 -0.0928905 0.00151708)
(1.09852 -0.136523 -0.00133461)
(1.14668 -0.212889 0.00628304)
(1.10469 -0.0930123 0.00559733)
(1.36232 -0.269401 0.0137755)
(1.83777 -0.00030794 -0.107298)
(1.64572 0.0721902 -0.0923086)
(1.72723 0.155406 -0.127197)
(1.13934 0.177364 -0.00929343)
(1.16851 0.12654 0.0349607)
(1.19474 0.233687 0.0255909)
(1.16864 0.134152 0.00736516)
(1.19244 0.245234 -0.00201698)
(1.14569 0.162622 0.0321929)
(1.34683 0.206373 0.0475095)
(0.685591 0.0653259 0.0542949)
(0.785759 0.167971 0.0174891)
(1.30555 0.177757 0.0496659)
(1.39089 0.226088 0.0201919)
(0.739364 0.13128 0.0456038)
(1.61406 0.0885369 0.0117142)
(1.33484 0.271281 0.016369)
(1.36867 0.280663 -0.00498542)
(1.59246 0.0925304 -0.0188705)
(1.8551 0.0594999 -0.0558933)
(1.06297 -0.193155 0.0171274)
(1.8445 -0.10396 -0.0599533)
(1.07818 -0.0616296 0.00452617)
(1.6522 0.0100569 0.0171402)
(1.60683 -0.135891 -0.0426433)
(1.63506 0.0205907 -0.0285276)
(1.61994 -0.156403 0.0127174)
(1.80337 0.127138 -0.0472604)
(0.63196 0.1418 0.0323499)
(1.56774 0.263923 0.00016863)
(1.00686 0.00359092 -0.00310009)
(1.11731 -0.127846 0.0339616)
(1.17962 -0.200212 0.0258417)
(1.13529 -0.0827432 0.0327641)
(1.12376 -0.122643 0.0340804)
(1.17418 -0.201298 0.0274771)
(1.1253 -0.0838874 0.0252531)
(1.11543 -0.136843 0.017711)
(1.16639 -0.217479 0.0093569)
(1.12177 -0.0933517 0.0130304)
(1.11384 -0.139066 0.0162114)
(1.16946 -0.215031 0.01763)
(1.12348 -0.0911983 0.0161765)
(1.33536 -0.243611 0.0161537)
(1.32447 -0.24669 0.0214897)
(1.60137 0.109738 -0.0560028)
(1.60481 0.113676 0.0297273)
(1.6018 0.154075 -0.0416185)
(1.60117 0.12835 -0.0360757)
(1.32159 -0.259792 0.0231981)
(1.11034 0.149076 0.0134112)
(1.13688 0.109707 0.0168237)
(1.16918 0.222889 0.00776479)
(1.11748 0.153676 0.0063962)
(1.13003 0.10748 0.0150545)
(1.15979 0.220879 0.0114231)
(1.10731 0.14396 0.00582004)
(1.12478 0.0998264 0.0114301)
(1.15479 0.213349 0.00883189)
(1.12647 0.101904 0.0123927)
(1.15502 0.21527 0.00471729)
(1.1069 0.142034 0.0126837)
(1.55996 0.0887738 -0.020855)
(1.31823 0.265155 0.0138045)
(1.57763 0.0841504 0.0299973)
(1.30045 0.263125 0.00476673)
(1.59872 0.0162841 0.0317926)
(1.57768 -0.128141 -0.0344008)
(1.57961 -0.129283 0.0339277)
(1.59629 0.0152638 -0.0282718)
(1.6043 0.0207992 -0.0284922)
(1.59942 -0.135304 0.0325376)
(1.62145 0.0137597 0.0349806)
(1.58492 -0.126997 -0.0363651)
(1.55497 0.0841884 0.0263372)
(1.29572 0.2568 0.00226013)
(1.297 0.259377 0.00777105)
(1.55273 0.0824108 -0.0212694)
(1.58895 0.133511 0.0090312)
(1.58333 0.131578 -0.0311982)
(1.58352 0.11936 -0.0440131)
(1.58558 0.118714 0.0362894)
(1.10318 0.140954 0.000838154)
(1.11859 0.0979616 0.00559788)
(1.14927 0.213112 0.00514123)
(1.11967 0.0982609 0.00473355)
(1.14982 0.213203 0.000991536)
(1.10239 0.140568 0.00829127)
(1.10631 0.144277 0.00884256)
(1.12489 0.102836 0.00502883)
(1.1552 0.216519 0.00179871)
(1.12338 0.102181 0.00668744)
(1.10714 0.145061 0.000973182)
(1.15351 0.215928 0.00625892)
(1.54828 0.0838032 0.0255336)
(1.29017 0.257363 -0.000361851)
(1.29113 0.257375 0.00499864)
(1.54748 0.0836702 -0.0230169)
(1.595 0.0181575 -0.0284297)
(1.57951 -0.126802 0.0347231)
(1.59821 0.017973 0.0325143)
(1.57693 -0.126137 -0.0330702)
(1.55104 0.0852283 -0.0218786)
(1.29655 0.259074 0.0059151)
(1.55427 0.0851408 0.0267502)
(1.29374 0.258897 0.0011428)
(1.59228 0.0169425 0.0315153)
(1.57445 -0.12646 -0.0342646)
(1.59157 0.0167683 -0.029585)
(1.57495 -0.126591 0.0348331)
(1.10265 -0.134352 0.00840807)
(1.15378 -0.208916 -0.00228613)
(1.11229 -0.090914 0.00128835)
(1.1037 -0.134282 -0.00205834)
(1.15201 -0.20932 0.00604188)
(1.11088 -0.0910146 0.0047186)
(1.10089 -0.138804 0.00104483)
(1.14896 -0.216206 0.00427574)
(1.10738 -0.0947015 0.00539688)
(1.10011 -0.139316 0.00807201)
(1.14936 -0.215664 0.00161045)
(1.10856 -0.0942595 0.00263089)
(1.10136 0.143023 0.00727199)
(1.11821 0.100642 0.00167512)
(1.14934 0.215745 -0.000518116)
(1.10215 0.14308 -0.00126684)
(1.11695 0.100425 0.00428402)
(1.14817 0.215895 0.0046402)
(1.09922 0.141482 -0.000659908)
(1.11319 0.0982424 0.00457167)
(1.14494 0.215353 0.00453054)
(1.11429 0.0983603 0.00252232)
(1.14577 0.215044 -0.000378991)
(1.09835 0.141421 0.00754709)
(1.54678 0.0854744 -0.023259)
(1.29068 0.258861 0.00366123)
(1.5483 0.0849908 0.0247601)
(1.28905 0.259625 -0.000302206)
(1.58994 0.017959 0.0304708)
(1.57285 -0.126481 -0.0354665)
(1.57323 -0.126496 0.0337371)
(1.58919 0.0182292 -0.0304867)
(1.59119 0.0181301 -0.029819)
(1.57498 -0.126413 0.0337819)
(1.59251 0.0178737 0.0307086)
(1.57417 -0.126301 -0.0344869)
(1.54539 0.0852496 0.0244715)
(1.28631 0.260002 -0.000741778)
(1.28754 0.25924 0.00375179)
(1.54442 0.0857784 -0.0238179)
(1.09458 0.142124 0.000731206)
(1.10727 0.0981922 0.00729662)
(1.13943 0.217617 0.00698847)
(1.10856 0.0984772 0.00380402)
(1.14065 0.217357 0.00073488)
(1.09371 0.141976 0.0101484)
(1.09649 0.142712 0.00809407)
(1.11204 0.0995591 0.00184454)
(1.14402 0.216954 -0.000559315)
(1.11075 0.099368 0.00505066)
(1.09735 0.142687 -0.000947691)
(1.1428 0.217267 0.0052516)
(1.54147 0.0875825 0.0248899)
(1.28082 0.262968 0.00177489)
(1.2829 0.262084 0.00454744)
(1.53922 0.0883808 -0.02238)
(1.58766 0.019201 -0.0302299)
(1.57252 -0.126651 0.0332701)
(1.58909 0.0188014 0.0302162)
(1.57163 -0.126606 -0.0358632)
(1.54257 0.0872717 -0.0233904)
(1.286 0.260894 0.00348938)
(1.54426 0.0865347 0.024262)
(1.2842 0.261919 0.000177441)
(1.58669 0.0194282 0.0307711)
(1.56926 -0.126634 -0.036201)
(1.58465 0.0199245 -0.0294794)
(1.57078 -0.126865 0.033441)
(1.09281 -0.137119 0.0146843)
(1.14211 -0.214905 0.00361231)
(1.09974 -0.0942638 0.00627256)
(1.09339 -0.137489 0.00349362)
(1.14071 -0.214913 0.0117618)
(1.09848 -0.0940954 0.0121694)
(1.09043 -0.136957 0.0106321)
(1.13763 -0.215204 0.010451)
(1.09642 -0.0943903 0.0137912)
(1.09117 0.141772 0.0139002)
(1.10543 0.0984871 0.00628776)
(1.13724 0.218331 0.00311603)
(1.09189 0.142154 0.00319508)
(1.10401 0.0979753 0.011329)
(1.13555 0.218359 0.0107816)
(1.08868 0.140994 0.00969396)
(1.10175 0.0974621 0.013573)
(1.13226 0.218191 0.00925008)
(1.53361 0.0900907 -0.0196137)
(1.27944 0.26342 0.00653535)
(1.53796 0.088932 0.0263175)
(1.27616 0.264174 0.00581545)
(1.57713 0.0215734 0.03457)
(1.56256 -0.126718 0.0339429)
(1.5793 0.0212707 -0.0272735)
(1.56814 -0.127019 0.0337285)
(1.58352 0.0202953 0.0319786)
(1.56458 -0.126155 -0.0363969)
(1.53121 0.0905622 0.0295561)
(1.2737 0.264221 0.0114852)
(1.12533 -0.175001 0.0225508)
(1.11745 -0.66614 0.0505778)
(0.800746 -0.12037 0.042606)
(1.13101 -0.661536 0.0264204)
(0.811901 -0.107487 0.0141952)
(1.11172 -0.182934 0.0233056)
(0.727939 -0.127808 0.0879945)
(0.152496 0.177832 0.024989)
(0.862968 -0.498006 0.158942)
(0.679387 0.0596355 0.0209794)
(0.0564756 0.040451 -0.0433566)
(0.654491 0.111398 -0.142305)
(0.571937 0.112088 -0.191194)
(1.07824 -0.200742 0.00317569)
(1.08704 -0.659053 0.0181404)
(0.782457 -0.134196 0.0208029)
(1.08077 -0.659667 -0.0169342)
(0.77492 -0.135961 -0.0135634)
(1.08601 -0.199189 0.00645228)
(1.08719 -0.19218 0.0060036)
(1.09785 -0.65569 -0.0150365)
(0.791528 -0.129641 -0.0130999)
(1.09631 -0.191965 0.00186327)
(1.08904 -0.654993 0.0239121)
(0.783002 -0.129682 0.0216755)
(0.616098 0.11014 -0.0852997)
(0.622856 0.110412 0.0156446)
(0.610338 0.108693 0.0352539)
(0.593719 0.108935 -0.0708011)
(1.0647 -0.202368 0.00435438)
(1.07599 -0.661356 0.022429)
(0.76831 -0.135958 0.0235327)
(1.06997 -0.661578 -0.0150193)
(0.761248 -0.137011 -0.0124969)
(1.07197 -0.201652 0.00932716)
(1.06969 -0.199116 0.00272041)
(1.08129 -0.658277 -0.0171089)
(0.775047 -0.133314 -0.0171041)
(1.07851 -0.198122 -0.00196977)
(1.07358 -0.65866 0.0209598)
(0.766586 -0.134375 0.0186758)
(0.603549 0.110852 -0.069052)
(0.606255 0.112551 0.0443373)
(0.608749 0.113123 0.0372048)
(0.592985 0.112633 -0.0663595)
(0.913049 -0.18046 0.039749)
(1.37756 -0.855254 0.0578566)
(1.40924 -0.858557 0.03463)
(0.874449 -0.168455 -0.0134482)
(0.0776788 0.00650805 -0.0221783)
(0.027661 -0.00928292 -0.0205874)
(0.556613 0.044661 -0.160386)
(0.577799 0.0831972 -0.120784)
(0.512092 0.0849042 -0.170899)
(0.614757 0.0423295 -0.0968993)
(0.950557 -0.292081 -0.00651516)
(1.05303 -0.68125 0.0899797)
(1.1262 0.220449 0.0208166)
(0.81628 0.160848 0.0419142)
(1.13358 0.67089 0.0415184)
(0.804924 0.175936 0.000159375)
(1.1264 0.685241 8.53016e-05)
(1.13786 0.210802 0.0272368)
(1.00978 0.203166 0.0884195)
(0.304832 0.220797 0.0512793)
(0.607288 0.554137 -0.121578)
(0.636476 0.228866 0.0813629)
(1.01763 0.586891 -0.129041)
(0.476703 0.252378 0.0659872)
(0.815929 0.163839 0.0167163)
(1.3715 0.853036 0.0437348)
(1.36217 0.873752 -0.00706417)
(0.839361 0.167728 -0.0202789)
(0.332093 -0.0461781 0.0900264)
(0.228974 -0.100216 0.0400277)
(0.399089 -0.0690806 0.135346)
(0.310731 -0.0763982 0.0446411)
(0.490124 -0.0507013 -0.0705003)
(0.511959 -0.0862222 0.0117524)
(0.513379 -0.0462873 0.00728452)
(0.499889 -0.0876206 -0.0731063)
(0.786588 0.172731 -0.102103)
(0.623973 0.447668 -0.0751027)
(1.32075 0.783321 -0.181867)
(0.623536 0.0621726 -0.0185907)
(1.10427 -0.193622 0.0303247)
(1.11647 -0.666879 0.0120652)
(0.802359 -0.131001 0.00969749)
(1.11194 -0.190311 0.0257829)
(1.10919 -0.664576 0.046033)
(0.794822 -0.132269 0.0419089)
(1.08988 -0.200162 0.0102788)
(1.09804 -0.66174 0.0227512)
(0.791321 -0.134142 0.0257847)
(1.09696 -0.198754 0.0117058)
(1.09305 -0.662826 -0.0103402)
(0.784182 -0.135808 -0.0064429)
(0.86695 -0.165762 -0.0199484)
(1.37926 -0.85435 0.00863374)
(0.881357 -0.170004 0.0202662)
(1.36565 -0.84735 0.0482068)
(0.523112 0.0465282 -0.0758141)
(0.532056 0.0820069 0.00175297)
(0.507879 0.0827826 -0.0770995)
(0.549224 0.0433098 0.00448114)
(0.623366 0.0462677 -0.050828)
(0.589276 0.0881941 -0.136846)
(0.621383 0.0482693 -0.139363)
(0.584115 0.086976 -0.0621695)
(0.836335 -0.162542 0.0165972)
(1.34997 -0.842782 0.0240006)
(1.3443 -0.845092 -0.0145144)
(0.842357 -0.164154 -0.0259669)
(1.09637 0.195082 0.0120359)
(0.799693 0.147041 0.00123702)
(1.11642 0.658213 0.00293905)
(1.11628 0.196612 0.0136108)
(0.783451 0.14721 0.0346719)
(1.09904 0.655543 0.0363741)
(1.08772 0.189037 0.0084968)
(0.784958 0.141386 0.0268903)
(1.09612 0.647783 0.0240827)
(0.776787 0.14192 -0.00932289)
(1.0893 0.64761 -0.0121109)
(1.09598 0.188689 0.0100119)
(0.821433 0.16187 -0.0140947)
(1.36213 0.846772 -0.00113711)
(0.838897 0.167295 0.0200755)
(1.33431 0.838559 0.0407871)
(0.516 -0.0465484 -0.0580368)
(0.519291 -0.0831579 0.0494197)
(0.509579 -0.0841398 -0.0632933)
(0.526146 -0.044805 0.0432419)
(0.509884 -0.0484087 0.0220681)
(0.494744 -0.086134 -0.0729523)
(0.491476 -0.0480297 -0.0726979)
(0.506213 -0.0860528 0.0258101)
(0.822011 0.162645 0.0197562)
(1.33435 0.831228 0.0280097)
(1.32568 0.831245 -0.0159653)
(0.82811 0.164453 -0.0177432)
(0.245324 -0.117156 0.0523618)
(0.471808 -0.0856131 0.159197)
(0.595503 -0.112363 0.0113451)
(0.58077 -0.113996 -0.0802636)
(0.612135 0.107987 -0.00121046)
(0.584045 0.107917 -0.0839623)
(0.670506 0.11542 -0.150048)
(0.663508 0.113647 -0.0742587)
(0.601653 -0.10882 0.0544972)
(0.589766 -0.109548 -0.0690387)
(0.576392 -0.11172 -0.0789234)
(0.586486 -0.111476 0.0276444)
(0.825354 -0.159196 0.0167898)
(1.33691 -0.837662 0.0207241)
(1.32834 -0.838626 -0.0212313)
(0.834343 -0.161233 -0.0243058)
(0.5612 0.0463654 0.0175886)
(0.535006 0.0843162 -0.0779173)
(0.542538 0.0847467 0.0165999)
(0.551832 0.0454364 -0.0758873)
(0.838872 -0.161564 -0.0214311)
(1.35103 -0.838339 -0.0216298)
(1.3383 -0.835916 0.0276013)
(0.848262 -0.164191 0.0124027)
(0.526819 0.0473316 -0.0604439)
(0.528989 0.0831247 0.0333818)
(0.51502 0.0838815 -0.0649452)
(0.541379 0.0450881 0.0301155)
(1.08086 0.189105 0.00330063)
(0.778134 0.140991 0.0222608)
(1.0895 0.647628 0.0197694)
(0.770402 0.141127 -0.0148928)
(1.08268 0.646947 -0.0170475)
(1.08891 0.189063 0.00558326)
(1.08727 0.193202 0.00461231)
(0.785285 0.144323 -0.0140781)
(1.09706 0.650225 -0.0126098)
(0.776514 0.145956 0.0229569)
(1.09651 0.191329 0.00275724)
(1.08913 0.650952 0.0243082)
(0.819266 0.16335 0.0183614)
(1.32757 0.830702 0.0236968)
(1.3186 0.829561 -0.0207006)
(0.825666 0.165475 -0.0197705)
(0.520962 -0.0468133 0.0427672)
(0.513787 -0.0826074 -0.0628481)
(0.519836 -0.0444324 -0.0559668)
(0.51521 -0.0840886 0.0489765)
(0.817751 0.162355 -0.0178555)
(1.33543 0.833347 -0.0159018)
(0.828637 0.165254 0.0211917)
(1.32411 0.833249 0.0282832)
(0.520227 -0.0459773 -0.0550758)
(0.521215 -0.0828155 0.0513759)
(0.527379 -0.04432 0.0447371)
(0.513733 -0.0835771 -0.0614744)
(1.07737 -0.195413 0.00228784)
(1.08769 -0.655667 -0.0181072)
(0.782871 -0.13115 -0.0172056)
(1.08624 -0.194962 -0.00224283)
(1.07963 -0.655658 0.0205427)
(0.774302 -0.131706 0.0183496)
(1.07105 -0.200978 0.00195786)
(1.0811 -0.659484 0.0186149)
(0.775272 -0.134573 0.0203891)
(1.07868 -0.19991 0.00605518)
(1.07468 -0.659721 -0.0176875)
(0.767901 -0.135903 -0.014851)
(0.830207 -0.158899 -0.0209614)
(1.33817 -0.83518 -0.0238018)
(0.837895 -0.161371 0.0148455)
(1.32717 -0.834225 0.024616)
(0.526206 0.0489579 -0.056367)
(0.527794 0.0852735 0.0422123)
(0.51642 0.0856955 -0.0615473)
(0.537829 0.0472166 0.0375603)
(0.544587 0.0478682 0.0345404)
(0.527017 0.0843245 -0.0669907)
(0.539659 0.0463326 -0.062459)
(0.531214 0.0854073 0.0380566)
(0.824562 -0.157191 0.0179422)
(1.33083 -0.835975 0.0221367)
(1.32197 -0.836413 -0.0217536)
(0.833403 -0.159051 -0.0224425)
(1.07985 0.192864 0.00191108)
(0.777972 0.143252 -0.0176197)
(1.08992 0.649761 -0.0161883)
(1.08894 0.191165 -0.00063029)
(0.769064 0.144582 0.0199111)
(1.08216 0.650439 0.0211137)
(1.07467 0.19133 0.00215443)
(0.771062 0.141354 0.0215103)
(1.08342 0.64976 0.0189742)
(0.763598 0.141852 -0.0161337)
(1.07701 0.649427 -0.0182331)
(1.08243 0.19101 0.00482986)
(0.815951 0.163514 -0.0197668)
(1.32811 0.832262 -0.0197836)
(0.825883 0.165977 0.0193105)
(1.31745 0.832598 0.0247767)
(0.51676 -0.0458336 -0.0551845)
(0.520868 -0.0830949 0.0469861)
(0.512474 -0.083639 -0.0611479)
(0.524614 -0.0441537 0.0410561)
(0.522704 -0.0463392 0.0432795)
(0.517082 -0.0824675 -0.062246)
(0.523039 -0.0440746 -0.0551089)
(0.517333 -0.0839593 0.049443)
(0.815277 0.164729 0.017374)
(1.3214 0.832807 0.0225827)
(1.31309 0.832016 -0.0219482)
(0.821866 0.166941 -0.021169)
(0.595989 -0.108152 -0.0690111)
(0.596029 -0.10948 0.0539904)
(0.603936 -0.108554 0.056829)
(0.594407 -0.109005 -0.0674035)
(0.609626 0.11071 0.0448687)
(0.595742 0.110669 -0.0668805)
(0.608178 0.109721 -0.0732505)
(0.611464 0.110761 0.0402823)
(0.604378 -0.109064 0.0517142)
(0.593695 -0.109236 -0.0670245)
(0.599594 -0.108113 -0.0684767)
(0.598535 -0.10951 0.0545407)
(0.824765 -0.155152 0.0195829)
(1.32544 -0.835174 0.0265256)
(1.31761 -0.835928 -0.0190235)
(0.83214 -0.156496 -0.0203535)
(0.535622 0.0500688 0.0382091)
(0.522355 0.0856753 -0.0634153)
(0.525923 0.0873796 0.0421001)
(0.532099 0.0479133 -0.0581562)
(0.826997 -0.15647 -0.020327)
(1.33139 -0.835153 -0.0218618)
(1.3209 -0.83459 0.0251897)
(0.834973 -0.1591 0.0174771)
(0.519615 0.0512721 -0.0567425)
(0.526524 0.0879792 0.0360838)
(0.513529 0.0879634 -0.0613479)
(0.533037 0.0500681 0.0338954)
(1.06728 0.192993 0.00428407)
(0.76296 0.140919 0.0242248)
(1.07533 0.651541 0.0217168)
(0.755756 0.141764 -0.0140743)
(1.0696 0.651631 -0.0161457)
(1.0747 0.192464 0.00752055)
(1.07259 0.193432 0.00196816)
(0.770277 0.142409 -0.0178164)
(1.08303 0.651009 -0.0166297)
(0.761329 0.143379 0.0200049)
(1.08178 0.192059 -0.000812682)
(1.0751 0.651441 0.0208549)
(0.809201 0.166297 0.0176811)
(1.31255 0.834745 0.0251751)
(1.30557 0.834754 -0.0199568)
(0.814723 0.168281 -0.0210134)
(0.519676 -0.0462655 0.0391737)
(0.515283 -0.0826418 -0.0623703)
(0.518703 -0.0439697 -0.0558546)
(0.517011 -0.0843324 0.0439516)
(0.812053 0.165017 -0.0207274)
(1.32143 0.833797 -0.0204469)
(0.821786 0.167398 0.0182209)
(1.31047 0.833918 0.0242249)
(0.508767 -0.0459497 -0.0567644)
(0.520844 -0.0836162 0.034631)
(0.519925 -0.0445553 0.0320126)
(0.508798 -0.0837421 -0.0617177)
(1.06212 -0.202406 0.00759845)
(1.07552 -0.661194 -0.0126514)
(0.767239 -0.135739 -0.0129739)
(1.07105 -0.201084 0.00225369)
(1.06769 -0.661588 0.0256639)
(0.758861 -0.137048 0.023248)
(0.823215 -0.153565 -0.0187316)
(1.32573 -0.835372 -0.0168285)
(0.832878 -0.15676 0.0202536)
(1.31438 -0.83434 0.030085)
(0.527798 0.0529787 0.029235)
(0.516477 0.0876549 -0.0638258)
(0.521487 0.0501754 -0.0593153)
(0.523037 0.0899385 0.0298965)
(1.06393 0.193917 0.00627269)
(0.761477 0.141183 -0.0141439)
(1.07421 0.652082 -0.0132362)
(1.07335 0.192677 0.00287313)
(0.752618 0.141852 0.0241949)
(1.06588 0.652225 0.0249935)
(0.80384 0.166219 -0.0199372)
(1.31234 0.835619 -0.017103)
(0.814897 0.168948 0.0188084)
(1.30028 0.834914 0.0283883)
(0.514716 -0.0468282 0.0267899)
(0.511107 -0.082723 -0.0635652)
(0.509262 -0.0441251 -0.0583548)
(0.517255 -0.0848073 0.0274552)
(0.598404 -0.108488 -0.0685534)
(0.599096 -0.110132 0.0480035)
(0.605681 -0.109736 0.0372345)
(0.590976 -0.109469 -0.0675113)
(0.597726 0.112442 -0.0691772)
(0.60372 0.114749 0.0299487)
(0.595288 -0.108658 -0.0696839)
(0.600857 -0.110734 0.0288971)
(1.17442 -0.169016 0.0378386)
(1.19119 -0.660264 0.0270433)
(0.862823 -0.100443 -0.004807)
(1.20274 -0.152983 0.0261993)
(1.17075 -0.654668 0.0684804)
(0.84568 -0.103029 0.0460137)
(1.07476 -0.0883622 0.0771166)
(1.26749 -0.542729 0.0167665)
(0.961807 -0.0331106 0.0277653)
(1.27866 -0.0892073 0.0403972)
(1.1096 -0.466497 -0.0905535)
(0.82775 -0.00172737 -0.0723078)
(0.741667 -0.12431 0.13528)
(0.837565 -0.368191 0.194649)
(0.685828 0.00362186 -0.0506597)
(0.683021 0.105513 -0.272958)
(0.355664 0.0629816 -0.0590971)
(0.712849 0.121776 -0.25671)
(0.6202 0.114076 -0.207593)
(1.07856 -0.200665 0.00537603)
(1.08871 -0.658625 -0.011526)
(0.784379 -0.133451 -0.0131585)
(1.08804 -0.197969 0.00192349)
(1.08094 -0.659623 0.0232803)
(0.775237 -0.13595 0.021179)
(1.08537 -0.19221 0.00496332)
(1.09233 -0.654399 0.0249093)
(0.787892 -0.129638 0.0241178)
(1.09179 -0.192613 0.00986916)
(1.08705 -0.654692 -0.014088)
(0.781614 -0.129739 -0.0114142)
(0.625381 0.10969 0.0340506)
(0.608133 0.110568 -0.0780487)
(0.599525 0.10778 -0.0733144)
(0.605683 0.109789 0.0353825)
(1.06521 -0.202263 0.00491507)
(1.0777 -0.660484 -0.0141262)
(0.770513 -0.135105 -0.0150568)
(1.07415 -0.200541 0.000182092)
(1.07021 -0.661244 0.0229823)
(0.761935 -0.136827 0.0206796)
(1.06865 -0.199493 0.00223653)
(1.07887 -0.659124 0.021272)
(0.772292 -0.134031 0.0217864)
(1.07572 -0.199128 0.00739592)
(1.07279 -0.65915 -0.0167585)
(0.765457 -0.134739 -0.0143963)
(0.611131 0.112175 0.0454789)
(0.597351 0.112072 -0.0665968)
(0.600131 0.11146 -0.0675751)
(0.603657 0.113529 0.0411042)
(0.926276 -0.152583 0.0274795)
(0.706381 -0.0617368 -0.0297243)
(0.715825 -0.0680622 -0.0395487)
(0.88745 -0.140386 -0.0241201)
(0.939903 -0.18298 0.00282566)
(1.47864 -0.85384 0.024671)
(1.43562 -0.852337 0.0836727)
(0.979913 -0.195994 0.0454131)
(0.956541 -0.157204 -0.00951403)
(0.788633 -0.078562 -0.0500467)
(0.75627 -0.0731611 -0.031658)
(1.0021 -0.170365 0.029093)
(0.989187 -0.0809798 -0.034068)
(0.650884 -0.0279586 -0.011488)
(0.462854 -0.00841834 -0.105112)
(0.586121 0.0715636 -0.206421)
(0.338264 0.0428437 -0.0575591)
(0.563837 0.0129855 -0.122499)
(0.0887277 0.0169853 -0.0242575)
(0.23612 -0.0380275 -0.0459586)
(0.512413 -0.0226837 -0.103343)
(0.792399 -0.090657 -0.0584528)
(0.55147 -0.0116478 -0.0810253)
(0.812271 -0.0856666 -0.0966207)
(1.0034 -0.109487 -0.045713)
(1.42361 -0.30316 -0.0354186)
(0.546643 0.0220071 -0.12075)
(0.718376 -0.0383122 -0.0430075)
(0.708452 -0.0427651 -0.0765011)
(0.583107 0.0206656 -0.0659633)
(0.604677 0.0416238 -0.134166)
(0.640274 0.0926268 -0.220106)
(0.55454 0.0872035 -0.175779)
(0.669732 0.0460798 -0.186657)
(0.589205 0.0172096 -0.0881806)
(0.791569 -0.0531189 -0.0897064)
(0.758005 -0.049422 -0.051576)
(0.63367 0.0201298 -0.13872)
(1.06617 -0.219844 -0.0150764)
(1.52901 -0.750664 0.0342438)
(1.3294 -0.662154 -0.0600461)
(1.08981 -0.224238 -0.0163386)
(1.48586 -0.572543 0.0735885)
(0.949752 -0.454757 0.191908)
(0.843726 -0.228448 -0.0269217)
(0.369873 -0.0651253 -0.0347056)
(1.09887 -0.199668 -0.040177)
(0.827841 -0.111938 -0.0414925)
(1.11037 -0.206381 -0.0273933)
(0.829556 -0.102748 -0.0623668)
(1.73272 -0.60978 0.0474953)
(1.35674 -0.321946 -0.0176655)
(1.09472 0.218792 0.000484321)
(0.824634 0.1786 -0.0137018)
(1.1624 0.708311 0.00797243)
(0.779546 0.179565 0.0290709)
(1.1575 0.219713 -0.010318)
(1.107 0.696085 0.0352463)
(1.25384 0.213814 0.0341365)
(1.00674 0.198609 0.0508441)
(1.34388 0.708956 0.014874)
(0.89435 0.200148 -0.0253373)
(1.37227 0.235202 0.0358327)
(1.25313 0.667618 -0.134196)
(0.804905 0.1313 0.012632)
(0.628996 0.0589395 -0.0117915)
(0.592771 0.0533551 -0.016719)
(0.834526 0.136895 -0.0252929)
(0.79944 0.155305 -0.0201162)
(1.43645 0.902177 -0.000705957)
(1.34257 0.87503 0.039804)
(0.830698 0.167263 0.0277406)
(0.793391 0.123236 -0.0244644)
(0.599571 0.0555075 0.00122486)
(0.604813 0.0503982 -0.00831873)
(0.81533 0.132928 0.0272207)
(0.314823 -0.0432053 0.0712988)