/*--------------------------------*- C++ -*----------------------------------*\
| =========                 |                                                 |
| \\      /  F ield         | OpenFOAM: The Open Source CFD Toolbox           |
|  \\    /   O peration     | Version:  2012                                  |
|   \\  /    A nd           | Website:  www.openfoam.com                      |
|    \\/     M anipulation  |                                                 |
\*---------------------------------------------------------------------------*/
FoamFile
{
    version     2.0;
    format      ascii;
    class       surfaceVectorField;
    location    "0.108/fluid";
    object      Uf_0;
}
// * * * * * * * * * * * * * * * * * * * * * * * * * * * * * * * * * * * * * //

dimensions      [0 1 -1 0 0 0 0];


internalField   nonuniform List<vector> 
46880
(
(1.19995 2.55816e-05 2.16773e-05)
(1.19998 2.97896e-05 3.67828e-05)
(1.19995 2.45231e-05 2.16762e-05)
(1.19996 2.50265e-05 2.64903e-05)
(1.19976 0.000103905 5.25684e-05)
(1.19981 8.68461e-05 5.77277e-05)
(1.19976 0.000116084 4.67306e-05)
(1.19976 9.9932e-05 5.32883e-05)
(1.19992 0.000103327 5.73871e-05)
(1.19944 0.000175157 2.70972e-05)
(1.19966 0.00016628 2.76505e-05)
(1.19964 0.00018006 2.74208e-05)
(1.19945 0.000168817 2.76174e-05)
(1.19966 0.000173177 3.32086e-05)
(1.19949 0.000253264 2.75872e-05)
(1.19956 0.000237921 2.77687e-05)
(1.19954 0.000262134 2.80554e-05)
(1.19951 0.000244159 2.80241e-05)
(1.19978 0.000250044 3.67354e-05)
(1.19942 0.000376132 2.9527e-05)
(1.19946 0.000352039 2.91299e-05)
(1.19943 0.000389157 3.06722e-05)
(1.19946 0.000361512 2.99151e-05)
(1.19976 0.00037015 4.45665e-05)
(1.19929 0.000570562 3.61873e-05)
(1.19933 0.000532103 3.57158e-05)
(1.1993 0.000592114 3.74033e-05)
(1.19934 0.000548159 3.62048e-05)
(1.1997 0.000560533 6.00648e-05)
(1.19911 0.000880642 4.93476e-05)
(1.19918 0.000819111 4.68725e-05)
(1.19913 0.000914766 5.07648e-05)
(1.1992 0.000844394 4.81766e-05)
(1.1996 0.000862546 8.54275e-05)
(1.19887 0.00137221 6.88822e-05)
(1.19898 0.00127379 6.46024e-05)
(1.19892 0.00142298 7.10959e-05)
(1.19902 0.0013108 6.6545e-05)
(1.19947 0.00134094 0.00012363)
(1.19857 0.0021431 0.000103262)
(1.19873 0.0019832 9.51688e-05)
(1.19865 0.00221593 0.000106573)
(1.19881 0.00203603 9.77449e-05)
(1.19932 0.0020853 0.000185686)
(1.19815 0.00333955 0.000163085)
(1.1984 0.0030836 0.000149463)
(1.19831 0.00343845 0.000166158)
(1.19854 0.00315329 0.000151676)
(1.19917 0.00323569 0.000286302)
(1.19765 0.00515646 0.000259682)
(1.19801 0.00474835 0.000233852)
(1.1979 0.00528045 0.000265362)
(1.19825 0.00483143 0.000237539)
(1.19907 0.00496986 0.000443184)
(1.19692 0.00787365 0.000469426)
(1.19749 0.00724084 0.000405007)
(1.1973 0.00804873 0.000478927)
(1.19786 0.00734622 0.000408029)
(1.19905 0.00753365 0.000731288)
(1.19505 0.0122737 0.00115349)
(1.19628 0.0112531 0.000900722)
(1.19568 0.0127661 0.00115951)
(1.19694 0.0115003 0.000892622)
(1.19888 0.0115486 0.00142422)
(1.18831 0.0235676 0.00375165)
(1.19256 0.0207154 0.00260744)
(1.19133 0.0256381 0.00334725)
(1.19804 0.02081 0.00347826)
(1.19486 0.0213923 0.00242872)
(1.19393 0.0806504 0.00865739)
(1.20176 0.0552082 0.00479593)
(1.22761 0.0729741 0.00296519)
(1.21817 0.0548562 0.00484655)
(1.21342 0.0479811 0.00375351)
(1.19995 1.95697e-05 2.17393e-05)
(1.19998 1.98561e-05 3.71072e-05)
(1.19995 1.66687e-05 2.17945e-05)
(1.19996 1.78716e-05 2.64739e-05)
(1.19977 7.79298e-05 5.49676e-05)
(1.19982 5.87674e-05 5.97975e-05)
(1.19977 8.21894e-05 4.89351e-05)
(1.19978 6.79397e-05 5.53892e-05)
(1.19993 7.15117e-05 5.83822e-05)
(1.19948 0.000136909 2.87278e-05)
(1.1997 0.000124443 2.92673e-05)
(1.19968 0.000135184 2.8797e-05)
(1.19948 0.000122603 2.89122e-05)
(1.19971 0.000129653 3.31382e-05)
(1.19957 0.000199077 2.86481e-05)
(1.19963 0.000180195 2.8586e-05)
(1.19962 0.000198951 2.88032e-05)
(1.19959 0.000178761 2.85728e-05)
(1.19986 0.000189106 3.57066e-05)
(1.19955 0.000294086 3.11423e-05)
(1.19957 0.000266478 3.0803e-05)
(1.19956 0.000295643 3.19017e-05)
(1.19958 0.000265296 3.14358e-05)
(1.19991 0.000280565 4.41284e-05)
(1.19949 0.000445852 3.57324e-05)
(1.19952 0.000403804 3.47335e-05)
(1.19951 0.0004477 3.6341e-05)
(1.19954 0.000401372 3.52659e-05)
(1.19992 0.000423955 5.61256e-05)
(1.19944 0.000681315 4.48308e-05)
(1.19949 0.00061474 4.30183e-05)
(1.19948 0.00068438 4.59201e-05)
(1.19952 0.000612012 4.39719e-05)
(1.19994 0.0006467 7.51768e-05)
(1.19942 0.00104663 6.08733e-05)
(1.19948 0.000943462 5.78296e-05)
(1.19948 0.00105019 6.23521e-05)
(1.19953 0.000937577 5.92135e-05)
(1.20001 0.000991651 0.000105476)
(1.19943 0.00160902 8.4171e-05)
(1.19951 0.00144849 7.90099e-05)
(1.19954 0.00161107 8.57861e-05)
(1.1996 0.00143716 8.03827e-05)
(1.20015 0.0015204 0.000149505)
(1.19953 0.00245379 0.000121124)
(1.19964 0.0022073 0.00011175)
(1.1997 0.00244829 0.000122524)
(1.19979 0.00218294 0.000113094)
(1.20043 0.0023106 0.000212536)
(1.19977 0.00370072 0.000179687)
(1.19994 0.00332677 0.000163368)
(1.20005 0.00368086 0.000179649)
(1.20018 0.00327925 0.000163512)
(1.20095 0.00347229 0.000304371)
(1.20028 0.00554495 0.000265979)
(1.20051 0.0049734 0.000236368)
(1.20073 0.00549748 0.000258619)
(1.20091 0.00488216 0.000230814)
(1.20188 0.00517177 0.000428598)
(1.2014 0.00838587 0.000407444)
(1.20173 0.00744555 0.000340642)
(1.20224 0.00824361 0.000374222)
(1.20242 0.00724141 0.000319272)
(1.20365 0.00769743 0.000591155)
(1.20485 0.0127213 0.000626798)
(1.20492 0.011023 0.000474726)
(1.20638 0.0119307 0.000487811)
(1.20617 0.0104177 0.000404963)
(1.20768 0.0111826 0.000742669)
(1.2167 0.0143571 0.000476491)
(1.21335 0.0123222 0.000314038)
(1.21646 0.0105435 0.000166917)
(1.21664 0.0114085 0.000394937)
(1.21542 0.0106284 0.000211044)
(1.19995 8.08153e-06 2.19508e-05)
(1.19998 -4.04332e-06 3.75111e-05)
(1.19995 3.30741e-06 2.20316e-05)
(1.19996 1.71677e-06 2.66127e-05)
(1.19978 2.85119e-05 5.63158e-05)
(1.19982 -8.264e-07 6.09714e-05)
(1.19978 1.49725e-05 5.01028e-05)
(1.19979 1.36758e-05 5.6466e-05)
(1.19994 6.82687e-06 5.9139e-05)
(1.1995 7.17425e-05 2.91065e-05)
(1.19972 4.96259e-05 2.97273e-05)
(1.19971 5.75244e-05 2.88942e-05)
(1.19951 5.28665e-05 2.90432e-05)
(1.19974 5.34519e-05 3.25754e-05)
(1.19962 0.000107721 2.84035e-05)
(1.19968 8.37784e-05 2.83512e-05)
(1.19967 9.3599e-05 2.85634e-05)
(1.19963 8.16449e-05 2.82894e-05)
(1.19992 8.83729e-05 3.44768e-05)
(1.19964 0.000161698 3.17105e-05)
(1.19965 0.000131115 3.11192e-05)
(1.19965 0.000146852 3.18949e-05)
(1.19966 0.000122702 3.16055e-05)
(1.19999 0.000138572 4.28323e-05)
(1.19964 0.000242395 3.53118e-05)
(1.19965 0.000201491 3.44105e-05)
(1.19966 0.000223889 3.63947e-05)
(1.19966 0.000184217 3.53603e-05)
(1.20006 0.000212115 5.38464e-05)
(1.19968 0.00036992 4.25995e-05)
(1.19969 0.000309003 4.17265e-05)
(1.1997 0.000343559 4.3839e-05)
(1.19971 0.00028055 4.25097e-05)
(1.20016 0.000325483 6.97378e-05)
(1.19977 0.000563509 5.53785e-05)
(1.19978 0.000471931 5.33892e-05)
(1.19982 0.000525157 5.64579e-05)
(1.19983 0.000427012 5.44726e-05)
(1.20035 0.000495973 9.43053e-05)
(1.19998 0.00085641 7.18907e-05)
(1.19999 0.000719585 6.84488e-05)
(1.20007 0.000798555 7.33882e-05)
(1.20006 0.000648217 6.99401e-05)
(1.20065 0.000754373 0.000127121)
(1.20037 0.00129124 9.57253e-05)
(1.20038 0.00108671 9.04054e-05)
(1.20051 0.00120238 9.70192e-05)
(1.2005 0.000975623 9.18521e-05)
(1.20117 0.00113641 0.000170234)
(1.20106 0.00192061 0.000127157)
(1.20105 0.00161802 0.000118979)
(1.20129 0.00178236 0.000126406)
(1.20124 0.00144713 0.000119324)
(1.20203 0.00168557 0.000223541)
(1.20224 0.00280438 0.000157435)
(1.20221 0.00236158 0.000146103)
(1.2026 0.0025841 0.000151331)
(1.20251 0.00210218 0.000142682)
(1.20343 0.00244822 0.000275234)
(1.2043 0.0039393 0.000171552)
(1.20417 0.00331487 0.000157545)
(1.20485 0.00356134 0.000154619)
(1.20463 0.00291351 0.000146558)
(1.20568 0.00340464 0.00030241)
(1.20783 0.00485853 0.000133483)
(1.20742 0.00412383 0.00012247)
(1.20844 0.00416384 0.000102238)
(1.20799 0.00351471 0.000102102)
(1.20913 0.00412928 0.000252932)
(1.21284 0.00369983 1.62365e-05)
(1.21151 0.00320386 1.50065e-05)
(1.21238 0.0023798 -1.06827e-05)
(1.21207 0.002662 1.40401e-06)
(1.21296 0.00284317 9.74262e-05)
(1.19997 2.46678e-05 1.44058e-05)
(1.19997 2.50876e-05 1.41674e-05)
(1.2 2.93368e-05 1.8409e-05)
(1.19997 2.41024e-05 1.39641e-05)
(1.19997 2.44645e-05 1.74802e-05)
(1.19998 0.000102441 7.05134e-05)
(1.19998 0.000103326 6.68011e-05)
(1.2 8.62596e-05 5.81152e-05)
(1.2 0.000115201 7.14204e-05)
(1.19999 9.91948e-05 6.60289e-05)
(1.19998 0.000101652 7.80946e-05)
(1.19976 0.000170923 7.24452e-05)
(1.19976 0.000172521 7.67806e-05)
(1.19998 0.00016405 7.65471e-05)
(1.19997 0.000177139 7.68126e-05)
(1.19977 0.000166213 7.54251e-05)
(1.19977 0.000169563 8.80032e-05)
(1.19989 0.000246653 8.61795e-05)
(1.19988 0.000249294 9.33759e-05)
(1.19994 0.000234045 8.90323e-05)
(1.19993 0.000257704 9.6059e-05)
(1.1999 0.000240141 9.114e-05)
(1.19989 0.000244415 0.000105567)
(1.19988 0.000365228 0.00012008)
(1.19987 0.000369896 0.000132152)
(1.1999 0.000346132 0.000124699)
(1.19989 0.000382787 0.000136762)
(1.19991 0.000355495 0.000128728)
(1.1999 0.000361798 0.000146943)
(1.19983 0.000551225 0.000173938)
(1.19981 0.00055847 0.000193392)
(1.19985 0.000521257 0.000181643)
(1.19983 0.000578812 0.000200238)
(1.19987 0.000536237 0.000187641)
(1.19985 0.000545461 0.0002126)
(1.19976 0.000843784 0.000257963)
(1.19972 0.000855006 0.000288974)
(1.19978 0.000796038 0.000269957)
(1.19976 0.000886882 0.000298572)
(1.19982 0.000819469 0.000278354)
(1.19979 0.000833144 0.000315051)
(1.19966 0.00130536 0.000385274)
(1.1996 0.00132311 0.000434856)
(1.19969 0.00122924 0.000404243)
(1.19967 0.00137091 0.000447058)
(1.19975 0.00126419 0.000414825)
(1.19971 0.00128529 0.000470457)
(1.19955 0.00202032 0.000576139)
(1.19946 0.00205056 0.000654149)
(1.19959 0.00190075 0.000604774)
(1.19957 0.00211856 0.000668827)
(1.19969 0.00194988 0.000617501)
(1.19962 0.00198361 0.000703)
(1.19946 0.00311139 0.00086195)
(1.19932 0.0031629 0.00098358)
(1.19951 0.00292509 0.000903071)
(1.1995 0.00325254 0.00099788)
(1.19967 0.00298832 0.000915324)
(1.19956 0.00304306 0.00104761)
(1.19946 0.00473186 0.00128972)
(1.19926 0.00481536 0.00147937)
(1.19952 0.00444648 0.00134596)
(1.19954 0.00492347 0.00148663)
(1.19978 0.00451971 0.00135223)
(1.19961 0.0046046 0.00155702)
(1.19964 0.00705572 0.00193083)
(1.19936 0.00716588 0.00221761)
(1.19969 0.00662967 0.00199688)
(1.19976 0.00730449 0.00219884)
(1.20008 0.00671687 0.00198263)
(1.19986 0.00682054 0.0023059)
(1.19991 0.0104436 0.00288926)
(1.19938 0.0105225 0.00324956)
(1.19994 0.00980555 0.00289695)
(1.19995 0.0108959 0.00315368)
(1.20055 0.0100123 0.00282404)
(1.20019 0.0100179 0.00338761)
(1.19815 0.0173441 0.0044386)
(1.2 0.0173996 0.00426063)
(1.19979 0.0161263 0.00390573)
(1.19985 0.0192531 0.00408814)
(1.20021 0.0166391 0.00465531)
(1.20149 0.0168903 0.00367765)
(1.20357 0.0520574 0.004265)
(1.21423 0.0427128 0.00430475)
(1.20783 0.0386808 0.00371771)
(1.22326 0.0516549 0.00299222)
(1.21345 0.0416562 0.0040579)
(1.21712 0.0356882 0.00322236)
(1.19997 1.76408e-05 1.37245e-05)
(1.19997 1.92484e-05 1.34153e-05)
(1.2 1.96499e-05 1.75082e-05)
(1.19997 1.64276e-05 1.32724e-05)
(1.19997 1.74982e-05 1.67346e-05)
(1.2 7.13281e-05 6.86352e-05)
(1.2 7.77408e-05 6.40987e-05)
(1.20001 5.88035e-05 5.58657e-05)
(1.20002 8.19646e-05 6.84842e-05)
(1.2 6.78966e-05 6.37893e-05)
(1.2 7.09009e-05 7.58797e-05)
(1.19981 0.000127684 6.80017e-05)
(1.1998 0.00013439 7.14107e-05)
(1.20002 0.000122119 7.14289e-05)
(1.20001 0.00013268 7.1306e-05)
(1.19981 0.000120137 7.01492e-05)
(1.19981 0.000126434 8.28254e-05)
(1.19997 0.000186497 7.99947e-05)
(1.19996 0.000195418 8.55644e-05)
(1.20002 0.000177022 8.20487e-05)
(1.20002 0.000195086 8.80615e-05)
(1.19998 0.000175388 8.4144e-05)
(1.19997 0.000185075 9.78593e-05)
(1.20002 0.000276602 0.000109655)
(1.20001 0.00028915 0.000119538)
(1.20003 0.000262104 0.000113076)
(1.20003 0.000289869 0.000123847)
(1.20004 0.000260305 0.00011696)
(1.20003 0.00027402 0.000134011)
(1.20005 0.000416253 0.000156253)
(1.20003 0.00043525 0.000172613)
(1.20005 0.000393849 0.000162885)
(1.20006 0.000436896 0.000178592)
(1.20008 0.000391518 0.000168308)
(1.20006 0.000411942 0.000190791)
(1.20009 0.000633259 0.000224428)
(1.20006 0.000662104 0.000250389)
(1.20009 0.000598244 0.00023553)
(1.20011 0.000664754 0.000258028)
(1.20013 0.000594965 0.000242676)
(1.20011 0.000625533 0.000274441)
(1.20018 0.000966837 0.000322636)
(1.20014 0.00101131 0.000362551)
(1.20018 0.00091223 0.00033945)
(1.20021 0.00101385 0.000371951)
(1.20024 0.000906086 0.00034832)
(1.20021 0.000952584 0.000394358)
(1.20035 0.00147476 0.000462215)
(1.20028 0.00154302 0.000522912)
(1.20034 0.00139054 0.000487468)
(1.2004 0.00154324 0.000532782)
(1.20044 0.00137824 0.000497149)
(1.20039 0.00144896 0.000564168)
(1.20066 0.002227 0.000652523)
(1.20056 0.00233091 0.000743551)
(1.20064 0.00209987 0.000690079)
(1.20074 0.00232378 0.000750419)
(1.2008 0.00207512 0.000697693)
(1.20072 0.00218111 0.000796009)
(1.20121 0.00332271 0.00090729)
(1.20107 0.00347787 0.00104054)
(1.20116 0.00313308 0.000958966)
(1.20134 0.00345505 0.00103797)
(1.20141 0.00308537 0.000959757)
(1.2013 0.00324188 0.00110284)
(1.20218 0.00489826 0.0012318)
(1.20196 0.00512828 0.00142381)
(1.20208 0.00461533 0.00130137)
(1.2024 0.00507903 0.00139598)
(1.20246 0.00452794 0.00128331)
(1.20229 0.00475769 0.00148818)
(1.20397 0.00718703 0.00158872)
(1.20361 0.00756867 0.00185061)
(1.20372 0.00676765 0.00167892)
(1.20434 0.00744589 0.00176275)
(1.20434 0.00658752 0.00161686)
(1.20407 0.0069532 0.00190432)
(1.20784 0.0102582 0.00179655)
(1.20744 0.0111088 0.00210141)
(1.20718 0.00976587 0.00190452)
(1.20856 0.0105076 0.00188458)
(1.20824 0.009295 0.00176178)
(1.20783 0.00991855 0.0021284)
(1.21821 0.0125726 0.00160809)
(1.21605 0.0103043 0.00130373)
(1.21468 0.0107477 0.00149044)
(1.2173 0.00919796 0.00123112)
(1.21578 0.00998361 0.00156693)
(1.21658 0.00949415 0.00128825)
(1.19997 1.71331e-06 1.32773e-05)
(1.19997 8.03689e-06 1.29028e-05)
(1.2 -3.97078e-06 1.68315e-05)
(1.19997 3.21698e-06 1.28652e-05)
(1.19997 1.67523e-06 1.61495e-05)
(1.20001 6.87309e-06 6.76167e-05)
(1.20001 2.8688e-05 6.26964e-05)
(1.20002 -7.35472e-07 5.45909e-05)
(1.20003 1.50073e-05 6.67346e-05)
(1.20002 1.3726e-05 6.24577e-05)
(1.20001 6.69248e-06 7.44346e-05)
(1.19984 5.22782e-05 6.49752e-05)
(1.19984 7.02205e-05 6.74327e-05)
(1.20005 4.83905e-05 6.79676e-05)
(1.20005 5.56999e-05 6.78809e-05)
(1.19985 5.16344e-05 6.68937e-05)
(1.19984 5.17351e-05 7.91988e-05)
(1.20002 8.67913e-05 7.6499e-05)
(1.20002 0.00010557 8.10255e-05)
(1.20007 8.1545e-05 7.83076e-05)
(1.20008 9.144e-05 8.34913e-05)
(1.20003 7.97924e-05 8.01482e-05)
(1.20003 8.59132e-05 9.34425e-05)
(1.20011 0.000135753 0.000102586)
(1.2001 0.000157914 0.000110808)
(1.20011 0.000127857 0.000105547)
(1.20012 0.000142764 0.000115222)
(1.20012 0.000119714 0.000109356)
(1.20012 0.000134299 0.000125518)
(1.20018 0.000208361 0.000144749)
(1.20018 0.00023739 0.000158521)
(1.20018 0.000196749 0.000150637)
(1.2002 0.000219016 0.000164733)
(1.2002 0.000180116 0.000156324)
(1.2002 0.000206161 0.00017698)
(1.2003 0.000319151 0.000203628)
(1.20029 0.000360396 0.000225143)
(1.20029 0.000301448 0.000213834)
(1.20033 0.000334688 0.000232733)
(1.20033 0.000273672 0.000221152)
(1.20032 0.000315156 0.0002489)
(1.2005 0.000484225 0.000284426)
(1.20048 0.000545097 0.000316297)
(1.20048 0.000457299 0.000299751)
(1.20055 0.00050747 0.000325951)
(1.20054 0.000413174 0.00030939)
(1.20053 0.000477311 0.000347467)
(1.20083 0.000732154 0.000392615)
(1.2008 0.000821931 0.000439568)
(1.20079 0.000691235 0.00041605)
(1.2009 0.000765605 0.000450076)
(1.20088 0.000621973 0.000427156)
(1.20087 0.000719734 0.00047975)
(1.20136 0.00109726 0.000529369)
(1.20132 0.00122997 0.000596303)
(1.2013 0.0010361 0.000563704)
(1.20147 0.00114392 0.000605338)
(1.20143 0.000929484 0.000574558)
(1.20141 0.0010755 0.00064714)
(1.20223 0.00161745 0.000692728)
(1.20217 0.00181205 0.000784484)
(1.20213 0.00152874 0.000740124)
(1.2024 0.00167965 0.00078737)
(1.20233 0.00136597 0.000747405)
(1.20229 0.00158036 0.000844968)
(1.20362 0.00233255 0.000863122)
(1.20352 0.00261681 0.000985912)
(1.20344 0.00220801 0.000928444)
(1.20388 0.00240951 0.000972359)
(1.20374 0.0019639 0.000924659)
(1.20368 0.00227129 0.00105063)
(1.20583 0.00322118 0.000987437)
(1.2057 0.00363585 0.00114181)
(1.20552 0.00306769 0.00107604)
(1.2062 0.00328846 0.00109501)
(1.20594 0.00269591 0.00104794)
(1.20585 0.00312731 0.00119835)
(1.20915 0.00388332 0.0009563)
(1.20914 0.00444412 0.00112474)
(1.20868 0.00378871 0.00107129)
(1.20962 0.00381867 0.00102692)
(1.20917 0.0032375 0.00100484)
(1.20911 0.00376345 0.00115576)
(1.21281 0.00262596 0.000629301)
(1.21368 0.00340181 0.00076684)
(1.21235 0.00290527 0.000760336)
(1.21311 0.00213181 0.000630743)
(1.21286 0.00245334 0.000666631)
(1.21268 0.00252571 0.000764605)
(1.19997 2.36975e-05 2.15927e-05)
(1.19997 2.40437e-05 2.2538e-05)
(1.2 2.81979e-05 2.86688e-05)
(1.19997 2.31105e-05 2.22255e-05)
(1.19997 2.33862e-05 2.31715e-05)
(1.19998 9.91962e-05 9.94861e-05)
(1.19998 0.000100346 0.000101951)
(1.2 8.36884e-05 8.80835e-05)
(1.2 0.000112018 0.000110603)
(1.19999 9.6327e-05 0.00010102)
(1.19999 9.80911e-05 0.000105058)
(1.19978 0.0001655 0.000124484)
(1.19978 0.000167451 0.000129938)
(1.19999 0.00015935 0.000128157)
(1.19999 0.000171423 0.0001316)
(1.19979 0.000161001 0.000128255)
(1.19979 0.000163832 0.000133636)
(1.19993 0.000236136 0.000154751)
(1.19992 0.000238368 0.000163009)
(1.19998 0.000224076 0.000156004)
(1.19998 0.00024614 0.000167563)
(1.19994 0.000229694 0.000159722)
(1.19994 0.000232844 0.000167292)
(1.19995 0.000348073 0.0002145)
(1.19994 0.00035147 0.000226454)
(1.19996 0.000329105 0.00021418)
(1.19996 0.000363551 0.000234125)
(1.19998 0.000337928 0.000220879)
(1.19997 0.000342489 0.000231718)
(1.19993 0.000522046 0.000310389)
(1.19992 0.000526573 0.000328549)
(1.19995 0.000492325 0.000308945)
(1.19995 0.000545262 0.000339869)
(1.19997 0.000505997 0.000318831)
(1.19997 0.000512313 0.000335239)
(1.19991 0.000790295 0.000457978)
(1.19989 0.000796646 0.000485881)
(1.19994 0.000743263 0.000454699)
(1.19993 0.000825059 0.000501744)
(1.19998 0.000764105 0.000468571)
(1.19996 0.000772957 0.000493765)
(1.19989 0.00120499 0.000680736)
(1.19986 0.0012139 0.000724867)
(1.19993 0.00113018 0.000675049)
(1.19993 0.00125522 0.00074529)
(1.19999 0.00116032 0.0006928)
(1.19997 0.00117288 0.000732856)
(1.1999 0.00183602 0.00101126)
(1.19985 0.00184879 0.00108101)
(1.19995 0.00171813 0.00100191)
(1.19996 0.00190659 0.00110471)
(1.20005 0.00175982 0.0010227)
(1.20001 0.00177763 0.00108591)
(1.19998 0.00277412 0.00148928)
(1.19991 0.00279328 0.00159858)
(1.20004 0.00259253 0.00147448)
(1.20008 0.00286632 0.0016215)
(1.2002 0.00264403 0.00149438)
(1.20014 0.00266979 0.00159266)
(1.20022 0.00411912 0.00216998)
(1.20012 0.00414403 0.00233957)
(1.20028 0.00384521 0.00214606)
(1.20038 0.00422795 0.00235163)
(1.20053 0.00390261 0.00215679)
(1.20045 0.00393614 0.00230857)
(1.20069 0.00595682 0.00310833)
(1.20056 0.00596416 0.00336502)
(1.20077 0.00555753 0.00307083)
(1.20092 0.00606634 0.00334419)
(1.20111 0.00562407 0.00305431)
(1.201 0.00564581 0.00328335)
(1.2012 0.00850589 0.00427761)
(1.20096 0.00836707 0.00465843)
(1.20133 0.00789381 0.00424248)
(1.20139 0.00868456 0.00455146)
(1.20181 0.0080785 0.00415505)
(1.20155 0.00800194 0.0045041)
(1.19931 0.0135347 0.00573777)
(1.2007 0.0141732 0.00522251)
(1.20088 0.0127755 0.0053039)
(1.20044 0.0154949 0.00539593)
(1.20082 0.0134655 0.00564294)
(1.20222 0.0135906 0.00503176)
(1.19973 0.0483063 0.00432014)
(1.21093 0.0392998 0.00405984)
(1.20508 0.0346326 0.00453455)
(1.21916 0.0483296 0.00372398)
(1.21007 0.038784 0.00485573)
(1.21405 0.0323351 0.003796)
(1.19997 1.69478e-05 2.04709e-05)
(1.19997 1.84277e-05 2.13555e-05)
(1.2 1.89058e-05 2.72701e-05)
(1.19997 1.57027e-05 2.11198e-05)
(1.19997 1.67116e-05 2.19753e-05)
(1.2 6.94153e-05 9.60003e-05)
(1.2 7.56202e-05 9.80742e-05)
(1.20001 5.71734e-05 8.45849e-05)
(1.20001 7.9682e-05 0.000106314)
(1.2 6.59892e-05 9.72199e-05)
(1.2 6.86342e-05 0.000101155)
(1.19982 0.000122414 0.000118431)
(1.19982 0.000129135 0.000123579)
(1.20003 0.000117248 0.000122306)
(1.20003 0.00012738 0.000124779)
(1.19983 0.000115208 0.000122166)
(1.19983 0.000120991 0.000127459)
(1.2 0.000179369 0.000143662)
(1.2 0.000187528 0.000151057)
(1.20005 0.000170085 0.000145186)
(1.20006 0.000187088 0.000155257)
(1.20002 0.000168478 0.00014871)
(1.20001 0.000177021 0.00015553)
(1.20007 0.000263959 0.000195761)
(1.20007 0.000275266 0.00020623)
(1.20008 0.000249724 0.000195909)
(1.20009 0.000275632 0.000213163)
(1.2001 0.000247696 0.000202147)
(1.20009 0.000259869 0.000211527)
(1.20013 0.000394592 0.000277482)
(1.20012 0.000410979 0.000292912)
(1.20014 0.000372297 0.00027675)
(1.20015 0.000412102 0.000302839)
(1.20016 0.000369883 0.000285713)
(1.20016 0.000387384 0.000299348)
(1.20022 0.000594052 0.000399544)
(1.2002 0.000618075 0.00042295)
(1.20022 0.000559384 0.000398163)
(1.20025 0.000619419 0.000435878)
(1.20027 0.000555442 0.000410167)
(1.20026 0.000581255 0.000430923)
(1.20036 0.000894845 0.000572305)
(1.20034 0.000930106 0.000608359)
(1.20036 0.000840775 0.000570517)
(1.20041 0.000931026 0.000623924)
(1.20043 0.000833933 0.000585099)
(1.20042 0.000871561 0.000616939)
(1.2006 0.00134452 0.000815948)
(1.20056 0.0013961 0.000871152)
(1.2006 0.00126126 0.000813672)
(1.20068 0.00139366 0.000887349)
(1.2007 0.00124801 0.000829641)
(1.20068 0.00130297 0.000878257)
(1.201 0.00199804 0.00114447)
(1.20095 0.00207238 0.00122787)
(1.20099 0.00187218 0.00114256)
(1.20112 0.0020621 0.00124003)
(1.20115 0.00184731 0.00115597)
(1.20111 0.00192609 0.00122899)
(1.20165 0.00292353 0.00157033)
(1.20157 0.00302701 0.00169566)
(1.20162 0.00273676 0.00157034)
(1.20183 0.00300096 0.0016932)
(1.20185 0.0026908 0.00157258)
(1.20179 0.00280039 0.00168176)
(1.20271 0.00421522 0.00208898)
(1.20257 0.00435532 0.00227529)
(1.20263 0.0039378 0.00209529)
(1.20296 0.00430769 0.00223635)
(1.20297 0.00385924 0.00206946)
(1.20287 0.0040093 0.00223036)
(1.20443 0.00606743 0.00261462)
(1.20418 0.00628512 0.00288705)
(1.20424 0.00564903 0.00264704)
(1.2048 0.00619108 0.00276497)
(1.20476 0.00550305 0.0025577)
(1.20458 0.00573794 0.00279283)
(1.20775 0.00865991 0.00283157)
(1.20744 0.00919575 0.0031973)
(1.20721 0.00810119 0.00294915)
(1.20835 0.00874499 0.0029143)
(1.20813 0.00775251 0.00273566)
(1.20773 0.008198 0.00305873)
(1.21663 0.0108904 0.00228614)
(1.21478 0.00892383 0.00207872)
(1.21351 0.00912325 0.00235207)
(1.21586 0.00785034 0.00199138)
(1.21441 0.00856164 0.00233278)
(1.21529 0.00811762 0.00192304)
(1.19997 1.50852e-06 1.96746e-05)
(1.19997 7.70583e-06 2.0536e-05)
(1.2 -4.18552e-06 2.63969e-05)
(1.19997 2.76162e-06 2.04454e-05)
(1.19997 1.41702e-06 2.11631e-05)
(1.20001 5.87012e-06 9.33275e-05)
(1.20001 2.76779e-05 9.50187e-05)
(1.20002 -1.5147e-06 8.19943e-05)
(1.20003 1.36388e-05 0.000103041)
(1.20002 1.29764e-05 9.4463e-05)
(1.20001 5.51211e-06 9.80908e-05)
(1.19985 4.94847e-05 0.000113866)
(1.19985 6.70121e-05 0.000118559)
(1.20006 4.55301e-05 0.000117824)
(1.20007 5.26758e-05 0.000119825)
(1.19986 4.92992e-05 0.000117614)
(1.19986 4.85243e-05 0.000122779)
(1.20005 8.2599e-05 0.000136964)
(1.20005 0.000101097 0.000143347)
(1.2001 7.74671e-05 0.00013852)
(1.20011 8.68694e-05 0.00014779)
(1.20006 7.62656e-05 0.00014209)
(1.20006 8.13419e-05 0.000148316)
(1.20015 0.000128757 0.000183913)
(1.20016 0.000150134 0.000192855)
(1.20016 0.000121037 0.000184484)
(1.20018 0.000135001 0.000200065)
(1.20017 0.000113895 0.000190611)
(1.20017 0.000126512 0.000198979)
(1.20025 0.000197615 0.000257469)
(1.20026 0.000225113 0.000269922)
(1.20025 0.000186135 0.000257254)
(1.20028 0.000206684 0.000280084)
(1.20028 0.000170954 0.000266395)
(1.20028 0.000194085 0.000277578)
(1.20041 0.000298903 0.000361744)
(1.20041 0.000336369 0.000380561)
(1.2004 0.000281352 0.000361593)
(1.20045 0.000311516 0.000393442)
(1.20044 0.000255271 0.000373871)
(1.20045 0.000292206 0.000390264)
(1.20065 0.000448801 0.000504843)
(1.20065 0.000502255 0.000532422)
(1.20064 0.000421974 0.000505093)
(1.20071 0.00046661 0.000548335)
(1.20069 0.000380833 0.00052089)
(1.2007 0.000437259 0.000544464)
(1.20102 0.000669247 0.000696063)
(1.20102 0.000746008 0.000736354)
(1.201 0.000628477 0.000697568)
(1.20112 0.000693362 0.000753962)
(1.20109 0.000564823 0.000716038)
(1.20109 0.000648921 0.000750249)
(1.20161 0.000987503 0.000937217)
(1.20159 0.00109765 0.000995249)
(1.20156 0.000926526 0.000942047)
(1.20174 0.00101844 0.00101049)
(1.20169 0.00082976 0.000960363)
(1.20169 0.000952611 0.00100904)
(1.20251 0.00143127 0.00121809)
(1.20248 0.00158755 0.00130023)
(1.20242 0.00134241 0.00122947)
(1.2027 0.00146782 0.00130551)
(1.20262 0.00119804 0.00124163)
(1.2026 0.00137267 0.00130983)
(1.20389 0.00202752 0.00150637)
(1.20383 0.00224745 0.0016199)
(1.20373 0.0019016 0.00153044)
(1.20414 0.00206559 0.00159955)
(1.204 0.00168944 0.00152478)
(1.20397 0.0019324 0.00161747)
(1.20595 0.002759 0.00170855)
(1.20586 0.00307198 0.00185803)
(1.20568 0.00259853 0.00175883)
(1.2063 0.00277719 0.00178566)
(1.20605 0.00228273 0.00171452)
(1.20599 0.0026155 0.00183453)
(1.20893 0.0033031 0.00163661)
(1.20891 0.00372821 0.00180617)
(1.2085 0.00318263 0.00173312)
(1.20932 0.00320319 0.00165785)
(1.20894 0.00272471 0.00162589)
(1.20887 0.00312286 0.00176167)
(1.21215 0.00218367 0.00108535)
(1.21288 0.00286123 0.00116892)
(1.2117 0.00240348 0.00122984)
(1.21237 0.00172866 0.00102376)
(1.21216 0.00205415 0.00104533)
(1.21195 0.00206027 0.00117715)
(1.16927 0.078505 0.0115536)
(1.12373 0.0883297 0.01754)
(1.16175 0.101178 0.0117979)
(1.19319 0.0820457 0.0154518)
(0.872767 -0.089529 -0.0123497)
(0.986451 -0.0932059 -0.00103639)
(0.93135 -0.128785 -0.0107543)
(1.25689 -0.0823297 -0.0152597)
(1.19359 0.0616335 0.00715073)
(1.19411 0.0493553 0.00958854)
(1.20422 0.0512242 0.00761567)
(1.19366 0.0655234 0.00917343)
(1.16319 0.0519212 0.0112126)
(1.19635 0.0767951 0.00925342)
(1.33083 -0.0553397 0.00146672)
(1.31579 -0.0293643 -0.00512444)
(1.33077 -0.0561071 0.00177383)
(1.36131 -0.0392814 -0.00481513)
(1.33245 -0.0332518 -0.00443257)
(1.19341 0.0502998 0.00525462)
(1.16261 0.053579 0.00526565)
(1.19584 0.0779498 0.00457237)
(1.193 0.0604475 0.00574943)
(1.31576 -0.028424 0.00624356)
(1.36215 -0.037814 0.00658264)
(1.33282 -0.0315592 0.00857378)
(1.33042 -0.0545 0.00118794)
(1.18969 0.0582268 0.00446919)
(1.19138 0.0460219 0.00522274)
(1.20087 0.04819 0.00445293)
(1.19091 0.0588109 0.00440828)
(1.15865 0.0490158 0.00496199)
(1.19178 0.0749897 0.00398241)
(1.32504 -0.0546072 -0.00104038)
(1.31107 -0.0281782 -0.00615582)
(1.3257 -0.0545485 -0.000712355)
(1.35636 -0.0370282 -0.00664327)
(1.3271 -0.031789 -0.00761624)
(1.19014 0.0460766 0.00492935)
(1.15711 0.0496928 0.00454148)
(1.19026 0.0754283 0.00363126)
(1.18836 0.0579551 0.00539289)
(1.31029 -0.0279221 0.00532136)
(1.35559 -0.0367184 0.00504606)
(1.32609 -0.0315878 0.00638037)
(1.32421 -0.0546554 -0.001314)
(1.18637 0.0219066 0.00392502)
(1.18038 0.024192 0.00556446)
(1.18205 0.027685 0.00536972)
(1.19315 0.0215047 0.00524481)
(1.18232 0.0552099 0.00770039)
(1.15337 0.0652707 0.0140945)
(1.18761 0.0518076 0.0120621)
(1.17122 0.0518357 0.00937283)
(1.19673 0.0171038 0.00536625)
(1.19742 0.0159704 0.00586027)
(1.19858 0.017269 0.00558315)
(1.19567 0.0187155 0.00534068)
(1.19556 0.0162647 0.00718691)
(1.19645 0.0187808 0.00685751)
(1.19482 0.0380145 0.00712926)
(1.20023 0.0354572 0.00768614)
(1.19424 0.0413573 0.0084539)
(1.18402 0.0343643 0.0110286)
(1.19397 0.031953 0.00895458)
(0.669845 0.0417299 0.0539023)
(0.776989 0.0208736 0.0489502)
(0.653436 0.0127143 0.091849)
(1.01142 0.041888 0.116369)
(0.63974 0.00843368 0.0672307)
(1.16082 0.0293289 0.032895)
(1.15051 -0.00899274 0.0333603)
(1.19319 -0.0629628 0.0702005)
(1.14269 -0.0347029 0.0249539)
(1.18162 -0.0214867 0.0398385)
(1.1492 -0.0736568 0.0265231)
(1.16938 -0.00149609 0.0390535)
(1.222 -0.0308903 0.0847446)
(1.2857 0.0501165 0.0892363)
(1.28802 -0.00693309 0.0880287)
(1.18637 0.0169294 0.0770926)
(0.87421 -0.0663334 -0.00259501)
(1.55203 -0.00847162 -0.0109977)
(1.54347 0.0249125 -0.00524647)
(1.2926 0.0301117 -0.00348727)
(1.29727 0.0116246 -0.00760427)
(1.279 -0.0036966 -0.00309385)
(1.21606 0.017612 0.000771053)
(1.21751 0.0216032 0.000892848)
(1.22196 0.0160768 0.000587238)
(1.22123 0.0168088 0.00090993)
(1.22768 0.000310672 -6.09269e-05)
(1.23528 0.00120517 -0.000386684)
(1.23222 0.0048342 9.58279e-05)
(1.23561 0.00126912 -3.89402e-05)
(1.2085 0.038046 0.00570808)
(1.21532 0.045535 0.00500125)
(1.22409 0.0509443 0.00479265)
(1.21772 0.0351266 0.00483765)
(1.28776 0.0152491 -0.000701892)
(1.31628 -0.0294269 0.00644931)
(1.31624 -0.00106078 -0.00141122)
(1.31641 -0.00065688 0.00532589)
(1.29009 0.0170431 -0.000938527)
(1.28788 0.0321637 0.000312692)
(1.27556 0.00402718 0.000257312)
(1.22067 0.015322 0.00186885)
(1.21849 0.0153758 0.00212555)
(1.21851 0.012562 0.00166236)
(1.22097 0.0159153 0.0018491)
(1.21959 0.0182853 0.00225733)
(1.22381 0.0144013 0.00184603)
(1.23463 0.00220859 0.000630255)
(1.22877 0.000758491 0.000527372)
(1.23504 0.00207426 0.000877845)
(1.23636 0.00206645 0.000402679)
(1.23348 0.00553421 0.00100837)
(1.19697 0.0159863 0.00468782)
(1.19492 0.0164452 0.00532916)
(1.19584 0.0189984 0.00501999)
(1.1971 0.0162137 0.00567809)
(1.19954 0.036146 0.00470972)
(1.18307 0.0355721 0.0059525)
(1.19465 0.0367936 0.00627012)
(1.19322 0.0326727 0.00542811)
(1.19791 0.0134644 0.00596759)
(1.19851 0.0128593 0.00588811)
(1.1993 0.0141618 0.00560145)
(1.19767 0.0143207 0.00582076)
(1.19662 0.0128618 0.00645528)
(1.19716 0.0153534 0.00608972)
(1.19287 0.0338642 0.0053861)
(1.19836 0.0319345 0.00521176)
(1.19354 0.0347085 0.00531548)
(1.18168 0.0304774 0.00605022)
(1.19288 0.0282426 0.00586931)
(1.13408 -0.0247392 0.00892225)
(1.1357 -0.0229656 0.012271)
(1.13346 0.0105556 0.00679119)