/*--------------------------------*- C++ -*----------------------------------*\
| =========                 |                                                 |
| \\      /  F ield         | OpenFOAM: The Open Source CFD Toolbox           |
|  \\    /   O peration     | Version:  2012                                  |
|   \\  /    A nd           | Website:  www.openfoam.com                      |
|    \\/     M anipulation  |                                                 |
\*---------------------------------------------------------------------------*/
FoamFile
{
    version     2.0;
    format      ascii;
    class       volScalarField::Internal;
    location    "0.108/fluid";
    object      V0;
}
// * * * * * * * * * * * * * * * * * * * * * * * * * * * * * * * * * * * * * //

dimensions      [0 3 0 0 0 0 0];


value           nonuniform List<scalar> 
16422
(
4.25475e-05
4.2545e-05
4.25393e-05
4.25382e-05
4.25364e-05
4.25306e-05
4.25259e-05
4.25238e-05
4.25217e-05
4.25233e-05
4.25265e-05
4.25306e-05
4.25297e-05
4.25003e-05
4.23989e-05
4.25524e-05
4.25494e-05
4.25451e-05
4.25419e-05
4.25365e-05
4.25341e-05
4.25299e-05
4.25286e-05
4.25275e-05
4.25286e-05
4.25317e-05
4.25332e-05
4.25315e-05
4.25236e-05
4.25245e-05
4.25553e-05
4.25528e-05
4.25482e-05
4.25431e-05
4.25379e-05
4.25356e-05
4.25332e-05
4.2533e-05
4.25324e-05
4.25336e-05
4.25368e-05
4.25407e-05
4.2545e-05
4.25517e-05
4.25656e-05
4.25467e-05
4.25451e-05
4.25393e-05
4.25374e-05
4.25346e-05
4.25299e-05
4.25244e-05
4.25224e-05
4.25215e-05
4.25233e-05
4.25252e-05
4.25304e-05
4.2533e-05
4.25124e-05
4.24368e-05
4.2552e-05
4.25494e-05
4.25442e-05
4.25411e-05
4.25366e-05
4.25319e-05
4.25288e-05
4.25283e-05
4.25276e-05
4.25281e-05
4.25298e-05
4.25311e-05
4.25318e-05
4.25291e-05
4.25303e-05
4.25552e-05
4.25522e-05
4.25472e-05
4.25432e-05
4.25381e-05
4.25337e-05
4.25328e-05
4.25324e-05
4.25315e-05
4.25322e-05
4.2535e-05
4.25381e-05
4.25432e-05
4.2552e-05
4.25666e-05
4.25476e-05
4.25431e-05
4.25399e-05
4.2536e-05
4.25329e-05
4.25261e-05
4.25228e-05
4.25194e-05
4.2521e-05
4.25215e-05
4.25226e-05
4.25258e-05
4.25282e-05
4.25231e-05
4.24551e-05
4.25514e-05
4.25482e-05
4.25444e-05
4.25395e-05
4.25348e-05
4.25295e-05
4.25265e-05
4.25258e-05
4.25266e-05
4.2526e-05
4.25259e-05
4.25275e-05
4.25301e-05
4.25323e-05
4.25396e-05
4.25537e-05
4.25515e-05
4.25473e-05
4.25425e-05
4.25364e-05
4.25319e-05
4.25301e-05
4.25303e-05
4.25304e-05
4.25308e-05
4.25318e-05
4.25351e-05
4.25413e-05
4.25507e-05
4.25655e-05
4.2337e-05
5.31173e-06
4.24333e-05
5.31171e-06
4.24332e-05
5.31154e-06
4.24427e-05
5.31127e-06
4.2452e-05
5.31104e-06
4.25013e-05
4.23949e-05
4.25097e-05
4.24526e-05
5.27672e-06
4.2532e-05
4.25071e-05
4.25059e-05
4.25684e-05
4.24357e-05
4.25122e-05
4.25126e-05
4.25714e-05
4.25129e-05
4.24539e-05
4.2522e-05
4.2465e-05
4.2388e-05
4.23858e-05
4.25105e-05
4.25144e-05
4.25724e-05
4.24465e-05
4.2514e-05
4.25231e-05
4.25779e-05
4.25251e-05
4.24742e-05
4.24014e-05
4.24177e-05
4.2518e-05
4.25276e-05
4.25811e-05
4.20556e-05
4.22272e-05
4.24164e-05
4.23263e-05
4.2224e-05
5.29875e-06
5.31235e-06
5.29795e-06
4.23987e-05
4.24341e-05
4.24325e-05
4.23158e-05
4.22004e-05
4.2324e-05
4.22064e-05
5.31203e-06
5.29704e-06
5.29764e-06
4.2314e-05
4.21986e-05
4.24343e-05
4.23153e-05
4.21993e-05
5.29696e-06
5.31137e-06
5.29697e-06
4.2392e-05
4.23873e-05
4.24374e-05
4.23241e-05
4.22052e-05
4.23186e-05
4.22013e-05
5.31125e-06
5.29752e-06
5.2969e-06
4.23337e-05
4.22114e-05
4.24684e-05
4.23501e-05
4.22232e-05
5.29731e-06
5.31204e-06
5.29924e-06
4.24466e-05
4.24968e-05
4.23801e-05
4.22466e-05
5.31249e-06
5.29938e-06
5.37046e-06
5.28947e-06
5.27104e-06
5.37533e-06
5.29857e-06
5.33967e-06
5.3831e-06
6.35774e-07
5.35683e-06
5.30149e-06
5.23816e-06
5.24997e-06
5.23858e-06
5.25027e-06
5.30019e-06
5.30044e-06
5.23954e-06
5.25059e-06
5.30271e-06
5.23867e-06
5.24998e-06
5.30166e-06
5.2387e-06
5.25194e-06
5.23832e-06
5.25105e-06
5.30277e-06
5.30133e-06
5.23802e-06
5.25042e-06
5.30097e-06
5.23814e-06
5.25083e-06
6.60621e-07
7.20574e-07
6.74414e-07
7.0102e-07
5.29559e-06
5.24107e-06
5.22293e-06
5.2517e-06
5.22933e-06
5.29268e-06
5.29059e-06
5.08423e-06
5.26295e-06
5.24635e-06
5.24191e-06
5.26225e-06
6.56054e-07
6.57063e-07
6.57586e-07
6.55857e-07
6.52429e-07
6.70482e-07
6.71462e-07
6.51757e-07
6.52268e-07
6.71143e-07
6.52083e-07
6.71314e-07
6.56225e-07
6.58711e-07
6.57701e-07
6.55517e-07
5.30856e-06
5.26428e-06
5.26003e-06
5.32276e-06
5.24831e-06
5.25385e-06
5.30665e-06
5.24036e-06
5.2505e-06
5.30177e-06
5.24318e-06
5.25222e-06
6.60638e-07
6.57892e-07
6.71291e-07
6.71858e-07
6.74001e-07
6.71671e-07
6.58103e-07
5.28831e-06
5.23575e-06
5.22044e-06
5.2899e-06
5.23286e-06
5.21948e-06
5.28787e-06
5.23125e-06
5.21888e-06
5.23217e-06
5.21908e-06
5.28726e-06
6.55811e-07
6.57054e-07
6.55838e-07
6.56955e-07
6.52038e-07
6.71106e-07
6.71113e-07
6.52024e-07
6.5204e-07
6.71132e-07
6.52069e-07
6.71111e-07
6.5581e-07
6.56935e-07
6.56966e-07
6.55796e-07
6.71402e-07
6.71211e-07
6.71162e-07
6.71265e-07
5.28733e-06
5.23114e-06
5.21896e-06
5.23128e-06
5.21887e-06
5.28734e-06
5.28718e-06
5.2314e-06
5.21888e-06
5.23104e-06
5.28736e-06
5.21885e-06
6.55789e-07
6.56939e-07
6.56955e-07
6.55795e-07
6.52022e-07
6.71106e-07
6.52024e-07
6.71097e-07
6.55793e-07
6.56931e-07
6.55791e-07
6.56954e-07
6.52019e-07
6.71086e-07
6.52021e-07
6.71093e-07
5.30023e-06
5.23811e-06
5.25012e-06
5.30092e-06
5.23791e-06
5.24997e-06
5.30078e-06
5.23795e-06
5.25025e-06
5.30062e-06
5.23799e-06
5.25013e-06
5.28763e-06
5.23136e-06
5.21907e-06
5.28745e-06
5.23138e-06
5.21914e-06
5.28761e-06
5.23169e-06
5.21924e-06
5.23149e-06
5.21913e-06
5.28803e-06
6.558e-07
6.56929e-07
6.55796e-07
6.56941e-07
6.52017e-07
6.71081e-07
6.7107e-07
6.52029e-07
6.52023e-07
6.71081e-07
6.52023e-07
6.71084e-07
6.55788e-07
6.56947e-07
6.56934e-07
6.55808e-07
5.28862e-06
5.2333e-06
5.21993e-06
5.2324e-06
5.21953e-06
5.28996e-06
5.28868e-06
5.23178e-06
5.21927e-06
5.23224e-06
5.28795e-06
5.21944e-06
6.55806e-07
6.57012e-07
6.56955e-07
6.55844e-07
6.52036e-07
6.71072e-07
6.52021e-07
6.71103e-07
6.55817e-07
6.56918e-07
6.55795e-07
6.56975e-07
6.52025e-07
6.71102e-07
6.52065e-07
6.71083e-07
5.30571e-06
5.23918e-06
5.25234e-06
5.30318e-06
5.24036e-06
5.25423e-06
5.3072e-06
5.24205e-06
5.25564e-06
5.29259e-06
5.23357e-06
5.22015e-06
5.29e-06
5.23536e-06
5.22093e-06
5.29343e-06
5.23661e-06
5.22198e-06
6.5593e-07
6.56963e-07
6.55827e-07
6.57121e-07
6.52161e-07
6.71186e-07
6.52162e-07
6.71085e-07
6.52052e-07
6.71196e-07
6.55928e-07
6.57049e-07
6.64645e-07
6.91167e-07
6.43471e-07
6.92178e-07
6.44376e-07
6.62439e-07
8.76958e-08
9.18222e-08
1.05258e-07
8.00779e-08
1.00998e-07
7.62322e-08
7.63032e-08
6.61103e-07
6.90111e-07
6.429e-07
6.90131e-07
6.4286e-07
6.61113e-07
6.61075e-07
6.90214e-07
6.42891e-07
6.61225e-07
6.90179e-07
6.42826e-07
7.62229e-08
7.62212e-08
7.622e-08
7.62197e-08
6.61168e-07
6.89895e-07
6.42985e-07
6.89887e-07
6.42902e-07
6.6128e-07
6.61107e-07
6.89993e-07
6.4287e-07
6.61153e-07
6.89966e-07
6.42842e-07
7.6222e-08
7.62226e-08
7.62217e-08
7.62219e-08
8.30997e-08
7.92194e-08
7.94305e-08
8.30339e-08
6.69272e-08
9.16996e-08
7.14596e-08
7.35289e-08
7.35935e-08
7.14024e-08
7.72206e-08
8.55793e-08
6.58752e-07
6.36441e-07
6.82976e-07
6.36965e-07
6.83118e-07
6.58328e-07
6.62442e-07
6.91526e-07
7.09518e-07
6.38684e-07
6.87107e-07
6.77403e-07
8.2997e-08
7.90896e-08
7.91048e-08
8.29956e-08
7.14616e-08
7.52056e-08
7.35896e-08
7.31264e-08
7.13917e-08
7.35222e-08
7.13912e-08
7.35226e-08
8.30999e-08
7.96725e-08
7.9068e-08
8.52681e-08
6.61576e-07
6.90894e-07
6.43401e-07
6.62646e-07
6.90557e-07
6.43026e-07
6.61235e-07
6.90207e-07
6.4285e-07
6.61123e-07
6.9024e-07
6.42871e-07
8.30238e-08
7.92614e-08
8.30496e-08
7.91874e-08
7.13948e-08
7.35212e-08
7.35248e-08
7.13912e-08
7.13962e-08
7.35436e-08
7.14151e-08
7.35244e-08
8.30189e-08
7.91664e-08
7.91773e-08
8.30134e-08
6.5809e-07
6.36415e-07
6.82935e-07
6.58307e-07
6.36153e-07
6.82886e-07
6.58024e-07
6.3607e-07
6.82838e-07
6.3606e-07
6.82835e-07
6.58032e-07
8.29957e-08
7.90936e-08
8.2996e-08
7.90885e-08
7.13915e-08
7.35204e-08
7.3522e-08
7.13898e-08
7.13911e-08
7.35222e-08
7.13913e-08
7.35221e-08
8.29958e-08
7.90863e-08
7.90866e-08
8.29944e-08
7.86123e-08
7.6307e-08
7.6221e-08
7.62214e-08
7.62203e-08
7.62247e-08
7.62475e-08
7.62252e-08
7.62197e-08
7.62213e-08
7.62211e-08
7.62209e-08
8.30109e-08
7.91622e-08
7.91641e-08
8.30106e-08
7.13908e-08
7.35237e-08
7.35219e-08
7.13932e-08
8.3013e-08
7.91715e-08
7.91642e-08
8.30169e-08
7.13921e-08
7.35212e-08
7.35218e-08
7.13921e-08
6.58028e-07
6.36069e-07
6.82841e-07
6.36036e-07
6.82817e-07
6.5807e-07
6.57999e-07
6.36103e-07
6.82839e-07
6.36028e-07
6.5806e-07
6.82827e-07
8.29956e-08
7.90866e-08
7.90852e-08
8.29952e-08
7.13915e-08
7.3522e-08
7.13914e-08
7.3522e-08
8.29957e-08
7.90865e-08
8.29957e-08
7.90857e-08
7.13914e-08
7.35219e-08
7.13914e-08
7.3522e-08
6.61061e-07
6.90096e-07
6.42896e-07
6.61147e-07
6.90072e-07
6.42806e-07
6.61094e-07
6.90011e-07
6.42866e-07
6.61145e-07
6.90013e-07
6.42822e-07
8.30104e-08
7.91633e-08
8.30114e-08
7.91618e-08
7.13925e-08
7.35233e-08
7.35228e-08
7.13927e-08
7.13914e-08
7.35219e-08
7.13921e-08
7.35213e-08
8.30103e-08
7.91606e-08
7.91598e-08
8.30102e-08
6.58054e-07
6.36106e-07
6.8285e-07
6.58088e-07
6.36085e-07
6.8284e-07
6.58078e-07
6.36177e-07
6.82791e-07
6.36113e-07
6.82791e-07
6.58136e-07
8.29952e-08
7.90854e-08
8.29953e-08
7.90857e-08
7.1391e-08
7.3522e-08
7.35215e-08
7.13914e-08
7.13914e-08
7.35219e-08
7.13914e-08
7.35219e-08
8.29942e-08
7.90843e-08
7.90819e-08
8.29948e-08
7.62214e-08
7.62214e-08
7.62213e-08
7.62213e-08
7.62225e-08
7.6222e-08
7.62207e-08
7.62202e-08
7.62213e-08
7.62209e-08
7.62213e-08
7.62213e-08
8.30065e-08
7.91547e-08
7.91522e-08
8.30053e-08
7.13926e-08
7.35232e-08
7.35234e-08
7.13925e-08
8.30093e-08
7.91597e-08
7.91593e-08
8.30098e-08
7.13913e-08
7.35219e-08
7.35224e-08
7.13918e-08
6.58169e-07
6.36287e-07
6.82699e-07
6.36193e-07
6.82697e-07
6.58272e-07
6.58116e-07
6.36179e-07
6.82779e-07
6.36142e-07
6.58134e-07
6.82759e-07
8.29946e-08
7.90808e-08
7.90775e-08
8.29949e-08
7.13914e-08
7.35224e-08
7.13914e-08
7.35225e-08
8.29946e-08
7.90812e-08
8.29953e-08
7.9081e-08
7.13914e-08
7.35223e-08
7.13913e-08
7.35225e-08
6.6129e-07
6.89877e-07
6.42982e-07
6.61264e-07
6.89866e-07
6.42991e-07
8.3005e-08
7.91518e-08
8.30036e-08
7.9155e-08
7.13918e-08
7.35203e-08
7.13905e-08
7.35215e-08
6.58276e-07
6.3628e-07
6.82679e-07
6.58245e-07
6.36274e-07
6.82664e-07
8.29953e-08
7.90769e-08
8.29941e-08
7.90795e-08
7.13918e-08
7.35215e-08
7.13906e-08
7.35227e-08
7.62212e-08
7.62213e-08
7.62212e-08
7.62213e-08
7.622e-08
7.62214e-08
7.62205e-08
7.62218e-08
6.66095e-07
7.0213e-07
6.49866e-07
6.73808e-07
6.94311e-07
6.45544e-07
7.09624e-07
7.19483e-07
6.59061e-07
6.85576e-07
7.56679e-07
6.81402e-07
8.59274e-08
1.02647e-07
1.09617e-07
7.80875e-08
8.62889e-08
7.71873e-08
7.62797e-08
6.61072e-07
6.90172e-07
6.42889e-07
6.61176e-07
6.90142e-07
6.42843e-07
6.61135e-07
6.90164e-07
6.42862e-07
6.61106e-07
6.90178e-07
6.42849e-07
7.62202e-08
7.62215e-08
7.62208e-08
7.62194e-08
6.61168e-07
6.89928e-07
6.42912e-07
6.61184e-07
6.899e-07
6.42899e-07
6.61121e-07
6.89951e-07
6.42909e-07
6.61188e-07
6.89956e-07
6.42847e-07
7.6222e-08
7.62219e-08
7.62217e-08
7.62221e-08
7.48779e-08
7.09713e-08
7.10132e-08
7.48226e-08
8.30779e-08
8.08129e-08
7.93814e-08
8.36659e-08
7.48571e-08
7.13649e-08
7.09967e-08
7.52915e-08
7.31549e-08
9.21794e-08
7.39147e-08
7.54247e-08
8.31705e-08
7.2959e-08
6.25708e-08
5.62891e-08
7.13738e-08
7.18903e-08
7.26784e-08
6.69924e-08
7.03814e-08
6.70625e-08
7.13956e-08
7.10598e-08
7.11042e-08
7.13438e-08
7.14407e-08
7.4494e-08
7.35725e-08
7.22268e-08
7.13747e-08
7.15165e-08
7.10886e-08
7.20648e-08
8.46701e-08
8.15011e-08
9.07383e-08
8.41776e-08
7.44094e-08
8.68908e-08
6.53122e-08
5.6129e-08
7.43798e-08
7.16744e-08
7.56304e-08
6.66927e-08
7.19872e-08
6.71821e-08
6.5916e-07
6.39855e-07
6.84001e-07
6.37581e-07
6.60522e-07
6.83369e-07
6.64086e-07
6.44172e-07
6.85061e-07
6.49919e-07
6.62344e-07
6.86203e-07
7.4805e-08
7.09685e-08
7.09687e-08
7.48034e-08
8.29973e-08
7.91498e-08
7.91003e-08
8.30018e-08
7.48053e-08
7.09715e-08
7.09691e-08
7.48092e-08
7.1422e-08
7.35275e-08
7.13956e-08
7.35582e-08
7.1407e-08
7.29187e-08
7.11307e-08
7.31203e-08
7.13655e-08
7.10588e-08
7.13401e-08
7.10855e-08
7.13363e-08
7.10549e-08
7.1055e-08
7.13364e-08
7.13927e-08
7.35254e-08
7.13943e-08
7.35227e-08
7.13369e-08
7.10578e-08
7.10551e-08
7.13389e-08
8.30435e-08
7.91446e-08
7.91313e-08
8.30052e-08
7.48865e-08
7.27839e-08
7.10399e-08
7.67326e-08
7.48438e-08
7.09726e-08
7.48112e-08
7.09978e-08
6.61716e-07
6.90342e-07
6.42903e-07
6.6128e-07
6.90474e-07
6.4304e-07
6.61135e-07
6.90321e-07
6.42954e-07
6.61439e-07
6.90244e-07
6.42833e-07
7.48147e-08
7.09819e-08
7.48358e-08
7.09656e-08
8.30323e-08
7.91762e-08
7.92096e-08
8.30191e-08
7.48219e-08
7.09628e-08
7.09712e-08
7.48109e-08
7.13924e-08
7.35259e-08
7.13962e-08
7.3523e-08
7.13383e-08
7.10487e-08
7.1052e-08
7.13347e-08
7.13363e-08
7.10533e-08
7.13399e-08
7.105e-08
7.13393e-08
7.10702e-08
7.13569e-08
7.10534e-08
7.14026e-08
7.35225e-08
7.13939e-08
7.35317e-08
7.13454e-08
7.10506e-08
7.10588e-08
7.13376e-08
8.30158e-08
7.91883e-08
7.91685e-08
8.30228e-08
7.48133e-08
7.0961e-08
7.0965e-08
7.48087e-08
7.481e-08
7.09661e-08
7.48148e-08
7.09635e-08
6.58127e-07
6.36104e-07
6.82858e-07
6.36176e-07
6.58058e-07
6.8288e-07
6.57996e-07
6.36151e-07
6.82855e-07
6.36033e-07
6.58098e-07
6.82834e-07
7.48033e-08
7.09686e-08
7.48038e-08
7.09675e-08
8.29959e-08
7.90865e-08
7.90905e-08
8.2995e-08
7.48036e-08
7.09679e-08
7.09677e-08
7.4803e-08
7.13915e-08
7.35203e-08
7.13898e-08
7.3522e-08
7.13366e-08
7.10529e-08
7.10545e-08
7.1335e-08
7.13366e-08
7.1053e-08
7.1335e-08
7.10545e-08
7.13363e-08
7.1055e-08
7.13364e-08
7.10544e-08
7.13912e-08
7.35219e-08
7.13915e-08
7.35222e-08
7.13364e-08
7.10546e-08
7.10545e-08
7.13366e-08
8.29958e-08
7.90887e-08
7.90862e-08
8.29951e-08
7.48033e-08
7.09662e-08
7.09679e-08
7.48015e-08
7.48033e-08
7.09663e-08
7.48022e-08
7.09679e-08
7.62272e-08
7.62625e-08
7.62249e-08
7.62215e-08
7.62262e-08
7.62221e-08
7.62232e-08
7.62328e-08
7.62195e-08
7.62213e-08
7.62212e-08
7.62211e-08
8.30111e-08
7.91667e-08
7.91632e-08
8.3012e-08
7.48078e-08
7.09602e-08
7.09615e-08
7.48075e-08
7.48074e-08
7.0962e-08
7.48084e-08
7.09611e-08
7.13348e-08
7.10506e-08
7.13367e-08
7.1049e-08
7.1392e-08
7.3522e-08
7.35227e-08
7.13913e-08
7.1336e-08
7.10488e-08
7.10502e-08
7.13353e-08
8.30142e-08
7.91645e-08
7.91686e-08
8.30107e-08
7.48096e-08
7.09638e-08
7.48119e-08
7.09617e-08
7.48099e-08
7.09617e-08
7.48076e-08
7.09629e-08
7.13361e-08
7.10485e-08
7.10489e-08
7.13363e-08
7.13912e-08
7.35231e-08
7.35216e-08
7.13921e-08
7.13353e-08
7.10492e-08
7.10485e-08
7.13362e-08
6.58019e-07
6.36094e-07
6.82833e-07
6.36031e-07
6.58067e-07
6.82821e-07
6.58017e-07
6.36079e-07
6.82831e-07
6.36046e-07
6.5804e-07
6.82823e-07
8.29956e-08
7.90862e-08
7.90854e-08
8.29957e-08
7.48031e-08
7.09677e-08
7.09678e-08
7.48031e-08
7.4803e-08
7.09678e-08
7.48031e-08
7.09678e-08
7.13366e-08
7.10545e-08
7.13366e-08
7.10545e-08
7.13914e-08
7.3522e-08
7.13914e-08
7.3522e-08
7.13366e-08
7.10545e-08
7.10545e-08
7.13366e-08
8.29957e-08
7.90869e-08
7.90855e-08
8.29957e-08
7.48031e-08
7.09678e-08
7.48032e-08
7.09678e-08
7.48031e-08
7.09678e-08
7.48031e-08
7.09678e-08
7.13366e-08
7.10544e-08
7.10545e-08
7.13365e-08
7.13914e-08
7.3522e-08
7.13914e-08
7.3522e-08
7.13366e-08
7.10545e-08
7.10544e-08
7.13366e-08
6.61085e-07
6.90061e-07
6.42848e-07
6.61115e-07
6.90064e-07
6.4281e-07
6.6108e-07
6.90052e-07
6.4286e-07
6.61141e-07
6.90023e-07
6.42816e-07
7.48071e-08
7.0961e-08
7.48084e-08
7.09598e-08
8.30096e-08
7.91621e-08
7.91625e-08
8.30106e-08
7.48066e-08
7.09611e-08
7.09602e-08
7.48071e-08
7.13914e-08
7.35219e-08
7.13921e-08
7.35221e-08
7.13357e-08
7.10489e-08
7.10485e-08
7.13359e-08
7.13346e-08
7.10481e-08
7.13354e-08
7.10469e-08
7.13346e-08
7.10493e-08
7.13363e-08
7.10477e-08
7.13914e-08
7.3522e-08
7.13922e-08
7.35208e-08
7.13346e-08
7.10481e-08
7.10477e-08
7.13355e-08
8.30094e-08
7.91612e-08
7.91604e-08
8.3012e-08
7.48069e-08
7.09615e-08
7.09615e-08
7.48065e-08
7.4806e-08
7.0961e-08
7.4808e-08
7.09607e-08
6.5806e-07
6.36152e-07
6.82834e-07
6.36097e-07
6.5811e-07
6.82829e-07
6.58079e-07
6.36164e-07
6.82824e-07
6.36112e-07
6.58109e-07
6.82803e-07
7.48031e-08
7.09678e-08
7.48032e-08
7.09677e-08
8.29935e-08
7.90855e-08
7.90829e-08
8.29952e-08
7.48015e-08
7.09677e-08
7.09662e-08
7.4803e-08
7.13902e-08
7.35219e-08
7.13914e-08
7.35207e-08
7.13362e-08
7.10548e-08
7.1054e-08
7.13365e-08
7.13353e-08
7.10544e-08
7.13365e-08
7.10532e-08
7.13365e-08
7.10545e-08
7.13365e-08
7.10544e-08
7.13898e-08
7.35219e-08
7.13914e-08
7.35202e-08
7.13349e-08
7.10544e-08
7.10529e-08
7.13365e-08
8.29942e-08
7.90842e-08
7.90837e-08
8.29953e-08
7.48025e-08
7.09681e-08
7.09673e-08
7.48029e-08
7.48017e-08
7.09677e-08
7.48031e-08
7.09664e-08
7.62214e-08
7.62214e-08
7.62213e-08
7.62213e-08
7.62209e-08
7.62212e-08
7.6221e-08
7.62197e-08
7.62213e-08
7.622e-08
7.62213e-08
7.62196e-08
8.30064e-08
7.9156e-08
7.91546e-08
8.30089e-08
7.48082e-08
7.09669e-08
7.09653e-08
7.48075e-08
7.4808e-08
7.09644e-08
7.48072e-08
7.0965e-08
7.1336e-08
7.1049e-08
7.13358e-08
7.10492e-08
7.13925e-08
7.35231e-08
7.35231e-08
7.13916e-08
7.1336e-08
7.10505e-08
7.10493e-08
7.13351e-08
8.30101e-08
7.91575e-08
7.9157e-08
8.30095e-08
7.48062e-08
7.09615e-08
7.48061e-08
7.09617e-08
7.48071e-08
7.09636e-08
7.4807e-08
7.09621e-08
7.13356e-08
7.1054e-08
7.10523e-08
7.13365e-08
7.13915e-08
7.35228e-08
7.35227e-08
7.13914e-08
7.13357e-08
7.1051e-08
7.1052e-08
7.13356e-08
6.58173e-07
6.36216e-07
6.82728e-07
6.36188e-07
6.58179e-07
6.8271e-07
6.58111e-07
6.36218e-07
6.82745e-07
6.36145e-07
6.58187e-07
6.82743e-07
8.29955e-08
7.90794e-08
7.90803e-08
8.29953e-08
7.48024e-08
7.09684e-08
7.09681e-08
7.48027e-08
7.4803e-08
7.09681e-08
7.48028e-08
7.0968e-08
7.13366e-08
7.10549e-08
7.13365e-08
7.10549e-08
7.13914e-08
7.35226e-08
7.13913e-08
7.35225e-08
7.13366e-08
7.10548e-08
7.10549e-08
7.13366e-08
8.29948e-08
7.90812e-08
7.90792e-08
8.29952e-08
7.48027e-08
7.09681e-08
7.48029e-08
7.0968e-08
7.48024e-08
7.0968e-08
7.48027e-08
7.09681e-08
7.13366e-08
7.10548e-08
7.10549e-08
7.13365e-08
7.13913e-08
7.35226e-08
7.13913e-08
7.35225e-08
7.13366e-08
7.10548e-08
7.10548e-08
7.13366e-08
6.6128e-07
6.89885e-07
6.43122e-07
6.61463e-07
6.89858e-07
6.42988e-07
6.61575e-07
6.8988e-07
6.43109e-07
6.61432e-07
6.89905e-07
6.43183e-07
7.48079e-08
7.09657e-08
7.48063e-08
7.09667e-08
8.3004e-08
7.91597e-08
7.91511e-08
8.30039e-08
7.48068e-08
7.09669e-08
7.09668e-08
7.4807e-08
7.13935e-08
7.35223e-08
7.13913e-08
7.35235e-08
7.13376e-08
7.1054e-08
7.13364e-08
7.10545e-08
7.13364e-08
7.10528e-08
7.13351e-08
7.10541e-08
7.13917e-08
7.35216e-08
7.1391e-08
7.35213e-08
7.13363e-08
7.10532e-08
7.1054e-08
7.13357e-08
8.30063e-08
7.91541e-08
7.91627e-08
8.30038e-08
7.48086e-08
7.09676e-08
7.48068e-08
7.09685e-08
6.58234e-07
6.36403e-07
6.82648e-07
6.3627e-07
6.58387e-07
6.82641e-07
6.58451e-07
6.36371e-07
6.82622e-07
6.36421e-07
6.58312e-07
6.82641e-07
7.48032e-08
7.09677e-08
7.4802e-08
7.09687e-08
8.29941e-08
7.90808e-08
7.90749e-08
8.29952e-08
7.48024e-08
7.09676e-08
7.09681e-08
7.48033e-08
7.13933e-08
7.35228e-08
7.13929e-08
7.35242e-08
7.13375e-08
7.1055e-08
7.1337e-08
7.10567e-08
7.13369e-08
7.10541e-08
7.13358e-08
7.10553e-08
7.13911e-08
7.35219e-08
7.13915e-08
7.35219e-08
7.13362e-08
7.10541e-08
7.10546e-08
7.13362e-08
8.29979e-08
7.90737e-08
7.90819e-08
8.29954e-08
7.48054e-08
7.09685e-08
7.48033e-08
7.09705e-08
7.62212e-08
7.62213e-08
7.62212e-08
7.62213e-08
7.62216e-08
7.62232e-08
7.62205e-08
7.62212e-08
7.62218e-08
7.62235e-08
7.62209e-08
7.6221e-08
5.25674e-06
5.31728e-06
5.2873e-06
5.31272e-06
5.28821e-06
5.32093e-06
5.25406e-06
5.2536e-06
5.3118e-06
5.31828e-06
5.28671e-06
5.28686e-06
5.31834e-06
5.25348e-06
5.25335e-06
5.31817e-06
5.28654e-06
5.31144e-06
5.28649e-06
5.25338e-06
5.31809e-06
5.25327e-06
5.31121e-06
5.3178e-06
5.28669e-06
5.28646e-06
5.31783e-06
5.25332e-06
5.25355e-06
5.3178e-06
5.28659e-06
5.31131e-06
5.28703e-06
5.25337e-06
5.31794e-06
5.25876e-06
5.3167e-06
5.2928e-06
5.32296e-06
4.24584e-05
4.2508e-05
4.25044e-05
4.24855e-05
9.67315e-08
5.46373e-08
7.72143e-08
5.464e-08
7.72248e-08
9.66886e-08
5.33714e-06
5.29039e-06
5.30408e-06
5.23092e-06
5.31593e-06
5.3043e-06
5.28057e-06
4.24325e-05
4.2513e-05
4.24394e-05
4.24797e-05
4.2549e-05
4.2552e-05
4.24764e-05
4.25132e-05
4.24379e-05
4.24388e-05
4.24815e-05
4.25541e-05
4.25536e-05
4.24823e-05
9.66636e-08
5.46225e-08
7.72331e-08
5.46257e-08
7.72209e-08
9.66682e-08
9.66689e-08
5.46381e-08
7.72175e-08
9.6682e-08
5.46365e-08
7.72117e-08
4.24367e-05
4.25103e-05
4.24369e-05
4.24833e-05
4.25542e-05
4.24827e-05
4.25546e-05
4.25115e-05
4.24427e-05
4.24387e-05
4.24855e-05
4.2559e-05
4.25562e-05
4.24896e-05
9.66217e-08
5.45846e-08
7.71605e-08
5.45849e-08
7.7155e-08
9.66282e-08
9.66376e-08
5.46036e-08
7.71738e-08
9.665e-08
5.46015e-08
7.71681e-08
4.24487e-05
4.25278e-05
4.24603e-05
4.25051e-05
4.25633e-05
4.24955e-05
4.25716e-05
4.255e-05
4.24835e-05
4.2521e-05
4.25864e-05
9.52482e-08
7.36209e-08
5.24821e-08
7.36251e-08
5.24827e-08
9.5241e-08
1.06263e-07
9.34158e-08
5.41382e-08
9.71977e-08
5.33679e-08
1.07153e-07
5.27714e-06
5.28877e-06
5.29895e-06
5.2929e-06
5.28918e-06
5.29302e-06
5.27507e-06
5.25573e-06
5.31268e-06
5.31925e-06
5.28753e-06
5.288e-06
5.25464e-06
5.32021e-06
5.27574e-06
5.28904e-06
5.2987e-06
5.28816e-06
5.28877e-06
5.29087e-06
5.27444e-06
9.66782e-08
5.46398e-08
7.72243e-08
9.67234e-08
5.46363e-08
7.72098e-08
9.66727e-08
5.46364e-08
7.72155e-08
9.66759e-08
5.46372e-08
7.72122e-08
9.52324e-08
7.36287e-08
5.24827e-08
9.5251e-08
7.3613e-08
5.24814e-08
9.5231e-08
7.36142e-08
5.24799e-08
7.36095e-08
5.24798e-08
9.52366e-08
5.25374e-06
5.31189e-06
5.3187e-06
5.28715e-06
5.28697e-06
5.25402e-06
5.31844e-06
5.27319e-06
5.2872e-06
5.29726e-06
5.28721e-06
5.28737e-06
5.28738e-06
5.27304e-06
5.27336e-06
5.28803e-06
5.28772e-06
5.29727e-06
5.28748e-06
5.27371e-06
5.28757e-06
9.52272e-08
7.35902e-08
5.24864e-08
7.35914e-08
5.2482e-08
9.52356e-08
9.52277e-08
7.36175e-08
5.24805e-08
7.36086e-08
9.52387e-08
5.24791e-08
5.27291e-06
5.28703e-06
5.28705e-06
5.29688e-06
5.28698e-06
5.27293e-06
5.28703e-06
5.2533e-06
5.31132e-06
5.318e-06
5.28649e-06
5.28642e-06
5.25332e-06
5.31804e-06
5.27288e-06
5.28704e-06
5.29687e-06
5.28699e-06
5.28694e-06
5.28704e-06
5.27288e-06
9.66559e-08
5.46209e-08
7.72362e-08
9.66687e-08
5.46186e-08
7.72058e-08
9.66428e-08
5.46046e-08
7.71747e-08
9.66497e-08
5.46048e-08
7.71707e-08
9.52296e-08
7.35894e-08
5.24871e-08
9.52375e-08
7.36023e-08
5.24862e-08
9.5222e-08
7.36229e-08
5.24752e-08
7.36163e-08
5.24756e-08
9.52276e-08
5.25329e-06
5.31135e-06
5.31794e-06
5.28636e-06
5.28655e-06
5.25328e-06
5.3179e-06
5.27297e-06
5.28725e-06
5.29711e-06
5.28728e-06
5.28703e-06
5.28719e-06
5.27301e-06
5.27296e-06
5.28704e-06
5.2869e-06
5.29717e-06
5.28711e-06
5.27289e-06
5.28715e-06
9.52001e-08
7.36052e-08
5.2456e-08
7.35979e-08
5.24565e-08
9.52062e-08
9.52173e-08
7.36219e-08
5.24742e-08
7.36134e-08
9.52284e-08
5.24725e-08
5.2733e-06
5.28714e-06
5.28726e-06
5.29805e-06
5.28763e-06
5.27305e-06
5.28756e-06
5.25367e-06
5.31123e-06
5.31843e-06
5.28786e-06
5.28697e-06
5.25412e-06
5.31804e-06
5.27348e-06
5.2883e-06
5.29789e-06
5.2885e-06
5.28758e-06
5.28776e-06
5.27391e-06
9.6616e-08
5.45828e-08
7.71575e-08
9.66274e-08
5.45812e-08
7.71522e-08
9.51937e-08
7.36021e-08
5.24538e-08
9.52052e-08
7.35942e-08
5.2452e-08
5.25615e-06
5.31455e-06
5.31913e-06
5.2883e-06
5.29044e-06
5.2548e-06
5.32049e-06
5.27865e-06
5.30357e-06
5.29342e-06
5.29266e-06
5.27598e-06
5.2889e-06
5.28892e-06
5.30213e-06
5.29106e-06
5.27458e-06
5.29043e-06
9.69463e-08
5.4952e-08
7.75647e-08
9.75775e-08
5.47441e-08
7.73393e-08
9.95252e-08
5.53608e-08
7.77778e-08
9.79082e-08
5.62071e-08
7.84086e-08
6.72035e-07
6.20835e-07
6.51845e-07
6.44184e-07
6.64145e-07
6.40408e-07
7.29066e-08
6.8619e-07
6.87285e-07
6.83535e-07
6.96851e-07
6.66796e-07
6.5042e-07
6.6644e-07
7.61805e-08
9.66662e-08
5.46351e-08
7.72179e-08
9.66788e-08
5.46332e-08
7.72111e-08
9.66696e-08
5.4636e-08
7.72164e-08
9.66758e-08
5.46351e-08
7.72115e-08
9.66261e-08
5.45937e-08
7.71654e-08
9.66391e-08
5.45904e-08
7.71588e-08
9.66329e-08
5.4595e-08
7.71666e-08
9.66387e-08
5.45954e-08
7.7162e-08
6.74385e-07
6.60092e-07
6.69576e-07
6.55856e-07
6.79669e-07
6.72204e-07
6.47009e-07
6.64667e-07
6.65477e-07
6.49095e-07
6.68763e-07
6.70551e-07
6.75206e-07
6.81708e-07
6.67645e-07
6.62661e-07
6.52882e-07
6.71662e-07
6.82846e-07
6.7222e-07
6.64625e-07
6.52929e-07
6.67542e-07
6.54071e-07
6.70915e-07
7.00553e-07
6.63807e-07
6.76162e-07
6.74753e-07
7.50245e-07
7.26946e-07
7.93894e-07
6.99852e-07
6.53209e-07
6.54153e-07
6.49343e-07
6.60102e-07
6.61528e-07
6.80716e-07
6.78877e-07
6.64092e-07
6.82522e-07
6.68338e-07
6.59877e-07
6.648e-07
6.97138e-07
6.83664e-07
6.86184e-07
6.74443e-07
6.72748e-07
6.50718e-07
6.46245e-07
6.47426e-07
6.49334e-07
7.02372e-07
6.68035e-07
6.90813e-07
6.74568e-07
7.23402e-07
6.83005e-07
7.15203e-07
7.00259e-07
9.53014e-08
7.37656e-08
5.25103e-08
7.3659e-08
9.54197e-08
5.24952e-08
9.56514e-08
7.38215e-08
5.25223e-08
7.40927e-08
9.54513e-08
5.25346e-08
6.69413e-07
6.51653e-07
6.62221e-07
6.55939e-07
6.51558e-07
6.62086e-07
6.69525e-07
6.68456e-07
6.43616e-07
6.57219e-07
6.62363e-07
6.43694e-07
6.62427e-07
6.68414e-07
6.68529e-07
6.62678e-07
6.57264e-07
6.44038e-07
6.43801e-07
6.62499e-07
6.68679e-07
6.69359e-07
6.55887e-07
6.51486e-07
6.61972e-07
6.51514e-07
6.62023e-07
6.69327e-07
6.48501e-07
6.45105e-07
6.5473e-07
6.5266e-07
6.54937e-07
6.48063e-07
6.45558e-07
6.59531e-07
6.78172e-07
6.71622e-07
6.60098e-07
6.61309e-07
6.80194e-07
6.57675e-07
6.58852e-07
6.61146e-07
6.71648e-07
6.7916e-07
6.61336e-07
6.58421e-07
6.79602e-07
6.49323e-07
6.52754e-07
6.53962e-07
6.4526e-07
6.54992e-07
6.46447e-07
6.47937e-07
6.47795e-07
6.44914e-07
6.52165e-07
6.54579e-07
6.44827e-07
6.47878e-07
6.5448e-07
6.58111e-07
6.78812e-07
6.60832e-07
6.71165e-07
6.60861e-07
6.5809e-07
6.78833e-07
6.47753e-07
6.52118e-07
6.44759e-07
6.5441e-07
6.44785e-07
6.54436e-07
6.47729e-07
6.58148e-07
6.60999e-07
6.78961e-07
6.71214e-07
6.58233e-07
6.60906e-07
6.78873e-07
6.70256e-07
6.51855e-07
6.62413e-07
6.5647e-07
6.69755e-07
6.52317e-07
6.627e-07
6.70673e-07
6.46643e-07
6.58362e-07
6.63384e-07
6.45499e-07
6.63602e-07
6.70802e-07
6.69484e-07
6.62887e-07
6.44328e-07
6.58119e-07
6.44708e-07
6.68939e-07
6.63247e-07
6.71084e-07
6.56554e-07
6.51561e-07
6.61933e-07
6.53109e-07
6.62855e-07
6.6968e-07
9.66822e-08
5.46371e-08
7.72122e-08
9.66788e-08
5.46368e-08
7.72115e-08
9.66701e-08
5.46369e-08
7.72158e-08
9.66884e-08
5.46363e-08
7.72081e-08
6.69732e-07
6.62481e-07
6.51691e-07
6.6322e-07
6.51885e-07
6.69523e-07
6.69314e-07
6.46252e-07
6.65256e-07
6.58686e-07
6.69885e-07
6.45535e-07
6.63726e-07
6.69909e-07
6.64485e-07
6.52469e-07
6.70385e-07
6.63094e-07
6.52036e-07
6.69089e-07
6.63037e-07
6.58834e-07
6.44967e-07
6.45277e-07
6.63819e-07
6.68836e-07
6.47862e-07
6.44949e-07
6.47964e-07
6.44849e-07
6.58232e-07
6.78913e-07
6.71534e-07
6.78968e-07
6.5818e-07
6.58256e-07
6.71411e-07
6.79097e-07
6.5836e-07
6.78994e-07
6.4784e-07
6.44768e-07
6.44826e-07
6.47785e-07
6.48212e-07
6.45003e-07
6.45197e-07
6.48013e-07
6.58784e-07
6.80061e-07
6.63708e-07
6.72328e-07
6.59277e-07
6.62067e-07
6.79538e-07
6.48361e-07
6.45777e-07
6.48814e-07
6.45344e-07
6.5862e-07
6.72452e-07
6.79153e-07
6.62182e-07
6.58414e-07
6.79365e-07
6.6934e-07
6.62639e-07
6.51633e-07
6.69452e-07
6.51528e-07
6.68578e-07
6.44583e-07
6.62563e-07
6.44665e-07
6.62838e-07
6.685e-07
6.68613e-07
6.63186e-07
6.44873e-07
6.5751e-07
6.44705e-07
6.68749e-07
6.6272e-07
6.69314e-07
6.51449e-07
6.51507e-07
6.69247e-07
9.52334e-08
7.36181e-08
5.24814e-08
7.36135e-08
9.52379e-08
5.24806e-08
9.52299e-08
7.36202e-08
5.24805e-08
7.36108e-08
9.52409e-08
5.24804e-08
6.69293e-07
6.55812e-07
6.51458e-07
6.61907e-07
6.5146e-07
6.61915e-07
6.69288e-07
6.68377e-07
6.43589e-07
6.62334e-07
6.56962e-07
6.68393e-07
6.43558e-07
6.62298e-07
6.69298e-07
6.55815e-07
6.51471e-07
6.61946e-07
6.6931e-07
6.51463e-07
6.6192e-07
6.68369e-07
6.6229e-07
6.56979e-07
6.43536e-07
6.4355e-07
6.62294e-07
6.6836e-07
6.47703e-07
6.44729e-07
6.54368e-07
6.52029e-07
6.54364e-07
6.47701e-07
6.4473e-07
6.58066e-07
6.78788e-07
6.71106e-07
6.60789e-07
6.60797e-07
6.78794e-07
6.58059e-07
6.58066e-07
6.60798e-07
6.71106e-07
6.78785e-07
6.60796e-07
6.58062e-07
6.78792e-07
6.47701e-07
6.52031e-07
6.54363e-07
6.44721e-07
6.54368e-07
6.44729e-07
6.47694e-07
6.47706e-07
6.52048e-07
6.44733e-07
6.54371e-07
6.44734e-07
6.54373e-07
6.47704e-07
6.58071e-07
6.78801e-07
6.60818e-07
6.71109e-07
6.5808e-07
6.60804e-07
6.78793e-07
6.47709e-07
6.52054e-07
6.44745e-07
6.54395e-07
6.47717e-07
6.44738e-07
6.5438e-07
6.58068e-07
6.60796e-07
6.71106e-07
6.78791e-07
6.60799e-07
6.58065e-07
6.7879e-07
6.69278e-07
6.51453e-07
6.61906e-07
6.55793e-07
6.69283e-07
6.5145e-07
6.61893e-07
6.68348e-07
6.43517e-07
6.56954e-07
6.62266e-07
6.43522e-07
6.62261e-07
6.68344e-07
6.68351e-07
6.62288e-07
6.43534e-07
6.56942e-07
6.43524e-07
6.68357e-07
6.62267e-07
6.69279e-07
6.55793e-07
6.51446e-07
6.61888e-07
6.51452e-07
6.61889e-07
6.69273e-07
6.69149e-07
6.5138e-07
6.69169e-07
6.5136e-07
6.68381e-07
6.44441e-07
6.44448e-07
6.68371e-07
6.68383e-07
6.44479e-07
6.44447e-07
6.68406e-07
6.69152e-07
6.5135e-07
6.51363e-07
6.69141e-07
6.47742e-07
6.44704e-07
6.4472e-07
6.47725e-07
6.58141e-07
6.78905e-07
6.71229e-07
6.7887e-07
6.58169e-07
6.58135e-07
6.71304e-07
6.78853e-07
6.78869e-07
6.58117e-07
6.47747e-07
6.44758e-07
6.47776e-07
6.44726e-07
6.69192e-07
6.51379e-07
6.69167e-07
6.51398e-07
6.68443e-07
6.44579e-07
6.44516e-07
6.68489e-07
6.68432e-07
6.44475e-07
6.44508e-07
6.68406e-07
6.69201e-07
6.5144e-07
6.69237e-07
6.51406e-07
6.47709e-07
6.44705e-07
6.44685e-07
6.47725e-07
6.58102e-07
6.78821e-07
6.71208e-07
6.78831e-07
6.58095e-07
6.58098e-07
6.78849e-07
6.7117e-07
6.7883e-07
6.58114e-07
6.47713e-07
6.44675e-07
6.44687e-07
6.47705e-07
9.5227e-08
7.36123e-08
5.24805e-08
7.36037e-08
9.52367e-08
5.2479e-08
9.5228e-08
7.36125e-08
5.24802e-08