/*--------------------------------*- C++ -*----------------------------------*\
| =========                 |                                                 |
| \\      /  F ield         | OpenFOAM: The Open Source CFD Toolbox           |
|  \\    /   O peration     | Version:  2012                                  |
|   \\  /    A nd           | Website:  www.openfoam.com                      |
|    \\/     M anipulation  |                                                 |
\*---------------------------------------------------------------------------*/
FoamFile
{
    version     2.0;
    format      ascii;
    class       volVectorField;
    location    "0.104/solid";
    object      D_0_0;
}
// * * * * * * * * * * * * * * * * * * * * * * * * * * * * * * * * * * * * * //

dimensions      [0 1 0 0 0 0 0];


internalField   nonuniform List<vector> 
24998
(
(1.71256e-11 5.51582e-11 4.13241e-11)
(-2.51235e-13 -3.74999e-14 -1.33658e-12)
(3.29188e-12 -4.78452e-13 2.05498e-11)
(8.4209e-15 -1.2677e-13 1.27959e-11)
(2.01027e-11 -9.93354e-11 1.07811e-11)
(7.46028e-11 2.26961e-10 -7.29528e-12)
(6.88111e-11 2.13793e-10 -4.14539e-12)
(5.88776e-11 2.02002e-10 -4.97407e-12)
(3.8559e-11 1.76545e-10 2.82415e-11)
(2.96277e-11 5.73585e-11 3.9028e-11)
(1.63756e-12 4.62347e-13 3.68159e-11)
(1.79338e-10 2.40233e-10 -5.83555e-12)
(-4.74371e-14 -5.65941e-14 -2.21011e-12)
(4.22127e-12 -5.93926e-13 2.08063e-11)
(7.53079e-11 2.31615e-10 -7.29505e-12)
(1.66665e-12 9.29276e-14 3.71239e-11)
(-2.32263e-12 -2.24171e-13 2.54493e-11)
(4.0389e-15 -1.19864e-13 1.28296e-11)
(-2.34377e-12 -1.78827e-13 2.53254e-11)
(1.77581e-11 -1.1264e-10 3.54966e-11)
(1.52499e-11 -6.63827e-11 1.46266e-11)
(3.09503e-11 -2.32e-10 4.06402e-11)
(1.76381e-10 2.36386e-10 -6.69935e-12)
(1.73504e-10 2.24217e-10 -4.31651e-12)
(6.95004e-11 2.15108e-10 -4.25013e-12)
(1.72686e-10 2.22918e-10 -4.20315e-12)
(1.64678e-10 2.13305e-10 -5.07363e-12)
(6.07139e-11 2.0397e-10 -4.91883e-12)
(1.62861e-10 2.11384e-10 -5.10469e-12)
(1.45534e-10 1.89191e-10 2.50845e-11)
(3.78738e-11 1.82478e-10 1.79624e-11)
(1.4406e-10 1.80737e-10 4.34957e-11)
(4.25419e-12 -2.166e-12 -2.80279e-12)
(1.18781e-10 -1.15134e-11 1.88676e-11)
(-6.55622e-13 8.31073e-12 1.7775e-11)
(1.33361e-11 3.84412e-11 5.15544e-11)
(8.00798e-11 2.27028e-10 3.00721e-11)
(-7.34435e-13 -9.78839e-12 3.14823e-11)
(1.56266e-12 -3.35924e-12 2.17709e-11)
(7.17876e-12 -2.44938e-13 1.40503e-11)
(4.65733e-13 -4.93084e-13 1.42887e-11)
(7.38382e-12 -5.20319e-14 1.35363e-11)
(7.83673e-12 -2.64423e-13 1.31747e-11)
(2.19454e-13 1.91187e-14 1.30666e-11)
(1.85667e-06 -1.1423e-06 2.21165e-06)
(-5.05474e-12 2.59687e-11 1.37534e-11)
(4.50628e-08 7.47261e-09 5.09628e-08)
(4.32577e-09 1.13629e-08 -3.45673e-08)
(1.53296e-06 -1.43446e-06 -7.72212e-07)
(7.17425e-11 2.20937e-10 -5.77554e-12)
(1.25099e-05 -1.03323e-05 5.35554e-06)
(6.5228e-06 -5.06878e-06 4.12384e-06)
(6.49872e-06 -6.16605e-06 -1.503e-06)
(1.21161e-05 -1.13838e-05 -1.90642e-06)
(6.59614e-11 2.10108e-10 -4.24333e-12)
(2.87733e-05 -2.46706e-05 6.71968e-06)
(2.07438e-05 -1.75988e-05 6.27413e-06)
(2.08664e-05 -1.93244e-05 -2.24175e-06)
(2.83875e-05 -2.60401e-05 -2.38314e-06)
(5.11024e-11 1.94646e-10 -2.83707e-12)
(4.65682e-05 -4.03893e-05 7.10838e-06)
(3.82409e-05 -3.30219e-05 6.91284e-06)
(3.84331e-05 -3.49545e-05 -2.45407e-06)
(4.66447e-05 -4.21601e-05 -1.87727e-06)
(6.39956e-12 -1.44984e-12 -4.03871e-12)
(-4.21175e-13 3.95137e-11 5.12498e-11)
(1.63225e-10 2.34404e-10 3.54829e-11)
(7.74947e-11 5.05957e-12 2.56413e-11)
(2.81529e-13 -2.88231e-12 2.3064e-11)
(1.39925e-10 6.80869e-12 1.88393e-11)
(6.99023e-12 2.02573e-11 5.02856e-11)
(-7.7522e-12 -2.82584e-12 5.12916e-11)
(8.71072e-11 8.21941e-12 3.06585e-11)
(1.66182e-10 2.42299e-10 1.66807e-11)
(-5.15393e-12 6.90035e-12 1.50168e-11)
(4.01971e-12 -6.17461e-12 3.05433e-11)
(1.09735e-12 1.85004e-11 5.02195e-11)
(3.28279e-12 -6.34796e-12 2.46623e-11)
(8.42753e-12 -4.37408e-12 2.57499e-11)
(7.96719e-11 2.32412e-10 1.37508e-11)
(-3.16722e-12 -5.53458e-12 4.7226e-11)
(-1.62225e-12 -7.73079e-13 2.77596e-11)
(3.96347e-12 -4.43802e-13 3.4426e-11)
(7.39443e-12 -1.56901e-13 1.35643e-11)
(7.19034e-12 -1.24065e-13 1.4015e-11)
(-1.79949e-12 -6.54676e-13 2.74793e-11)
(4.25972e-12 -2.27242e-13 3.35946e-11)
(4.03824e-12 -3.49019e-13 3.43445e-11)
(4.26485e-13 -4.63584e-13 1.4173e-11)
(4.28898e-12 -2.04168e-13 3.34699e-11)
(-2.05659e-12 -1.05216e-13 2.57346e-11)
(4.82378e-12 -4.03527e-13 3.30361e-11)
(-1.86381e-12 1.21178e-11 1.33974e-11)
(7.84057e-12 -2.33528e-13 1.31518e-11)
(-1.86586e-12 -4.43764e-13 2.60395e-11)
(-2.46458e-11 1.06896e-11 3.23296e-11)
(4.81314e-12 -6.7861e-13 3.30155e-11)
(2.57849e-13 -8.0744e-14 1.31402e-11)
(1.82136e-06 -1.16271e-06 2.05151e-06)
(-4.39595e-11 6.12451e-11 3.239e-11)
(-1.73247e-09 -1.13249e-08 -1.62067e-08)
(1.51562e-06 -1.41552e-06 -4.31117e-07)
(4.96171e-08 2.75269e-08 1.00346e-07)
(1.89038e-06 -1.17346e-06 2.3293e-06)
(7.77789e-08 -1.42447e-08 8.07504e-08)
(1.86917e-06 -1.20674e-06 2.22713e-06)
(-2.04238e-09 7.57174e-09 -3.81986e-10)
(1.53749e-06 -1.40436e-06 -7.90319e-08)
(4.80877e-08 -2.20134e-08 6.78939e-08)
(2.05586e-06 -1.29755e-06 2.33988e-06)
(6.17935e-06 -4.77e-06 4.02684e-06)
(2.02055e-06 -1.31963e-06 2.17094e-06)
(5.7992e-06 -5.43027e-06 -7.89186e-07)
(1.91811e-06 -1.79473e-06 -4.8281e-07)
(6.1456e-06 -4.81131e-06 3.74242e-06)
(2.0913e-06 -1.32822e-06 2.46546e-06)
(6.23395e-06 -4.79359e-06 4.25418e-06)
(2.07095e-06 -1.36298e-06 2.35821e-06)
(5.88696e-06 -5.42176e-06 -1.64081e-07)
(1.94818e-06 -1.78395e-06 -9.12087e-08)
(6.22491e-06 -4.84464e-06 4.07966e-06)
(-1.46974e-10 1.4479e-08 -1.6106e-08)
(1.54985e-06 -1.41193e-06 -3.8169e-07)
(5.80831e-06 -5.51592e-06 -1.43419e-06)
(1.93446e-06 -1.82219e-06 -8.66717e-07)
(5.89792e-06 -5.49881e-06 -7.45948e-07)
(1.96016e-06 -1.80041e-06 -4.32786e-07)
(1.76017e-10 2.30058e-10 -5.68171e-12)
(1.74951e-10 2.28223e-10 -5.21826e-12)
(7.10779e-11 2.19014e-10 -5.19143e-12)
(1.24794e-05 -1.03866e-05 4.98188e-06)
(6.49053e-06 -6.07301e-06 -8.25932e-07)
(6.48922e-06 -5.11109e-06 3.83283e-06)
(1.21136e-05 -1.12469e-05 -1.03953e-06)
(1.25768e-05 -1.03488e-05 5.65727e-06)
(6.57836e-06 -5.09191e-06 4.35681e-06)
(1.25775e-05 -1.04099e-05 5.42898e-06)
(6.58568e-06 -6.06481e-06 -1.73219e-07)
(6.56999e-06 -5.14377e-06 4.17838e-06)
(1.22527e-05 -1.12409e-05 -2.30086e-07)
(1.29579e-05 -1.07277e-05 5.42312e-06)
(2.02285e-05 -1.71446e-05 6.23306e-06)
(1.29276e-05 -1.07828e-05 5.045e-06)
(1.9835e-05 -1.82232e-05 -1.19926e-06)
(1.30142e-05 -1.20674e-05 -1.06415e-06)
(2.02019e-05 -1.72072e-05 5.80229e-06)
(1.30253e-05 -1.07438e-05 5.72847e-06)
(2.03026e-05 -1.71547e-05 6.58016e-06)
(1.30265e-05 -1.08054e-05 5.49743e-06)
(2.00088e-05 -1.82193e-05 -2.78586e-07)
(1.31585e-05 -1.20616e-05 -2.3716e-07)
(2.0311e-05 -1.72215e-05 6.31638e-06)
(6.59667e-06 -6.14958e-06 -7.84812e-07)
(1.22639e-05 -1.13717e-05 -1.01848e-06)
(1.98321e-05 -1.83946e-05 -2.21368e-06)
(1.30159e-05 -1.22094e-05 -1.95337e-06)
(2.00198e-05 -1.8387e-05 -1.20566e-06)
(1.31697e-05 -1.21979e-05 -1.04646e-06)
(1.69984e-10 2.19298e-10 -4.334e-12)
(1.68852e-10 2.17961e-10 -4.47033e-12)
(6.48489e-11 2.08741e-10 -4.37143e-12)
(2.87504e-05 -2.47381e-05 6.25892e-06)
(2.08698e-05 -1.91497e-05 -1.21363e-06)
(2.07174e-05 -1.76618e-05 5.84074e-06)
(2.83942e-05 -2.58474e-05 -1.28479e-06)
(2.88512e-05 -2.46755e-05 7.0903e-06)
(2.08182e-05 -1.76085e-05 6.62327e-06)
(2.88655e-05 -2.4745e-05 6.80772e-06)
(2.1047e-05 -1.91461e-05 -2.83306e-07)
(2.0827e-05 -1.76756e-05 6.35784e-06)
(2.85896e-05 -2.58454e-05 -3.07948e-07)
(2.93235e-05 -2.51551e-05 6.73904e-06)
(3.76804e-05 -3.25261e-05 6.9082e-06)
(2.93008e-05 -2.52229e-05 6.27717e-06)
(3.73194e-05 -3.37542e-05 -1.31644e-06)
(2.94982e-05 -2.68262e-05 -1.29122e-06)
(3.76602e-05 -3.25961e-05 6.43784e-06)
(2.94016e-05 -2.51597e-05 7.11057e-06)
(3.776e-05 -3.25274e-05 7.28771e-06)
(2.94162e-05 -2.52293e-05 6.82731e-06)
(3.75261e-05 -3.37534e-05 -3.20078e-07)
(2.96954e-05 -2.68244e-05 -3.10319e-07)
(3.77781e-05 -3.2598e-05 6.99975e-06)
(2.10579e-05 -1.93173e-05 -1.22334e-06)
(2.85999e-05 -2.60362e-05 -1.31485e-06)
(3.73102e-05 -3.3958e-05 -2.45063e-06)
(2.94911e-05 -2.70208e-05 -2.39632e-06)
(3.75359e-05 -3.39566e-05 -1.36184e-06)
(2.97057e-05 -2.70173e-05 -1.3237e-06)
(1.55741e-10 2.04112e-10 -2.67973e-12)
(1.5296e-10 2.01134e-10 2.50861e-13)
(4.76237e-11 1.91804e-10 -3.21929e-13)
(4.66687e-05 -4.05578e-05 6.68785e-06)
(3.84425e-05 -3.47499e-05 -1.31783e-06)
(3.82208e-05 -3.3092e-05 6.44236e-06)
(4.66455e-05 -4.20602e-05 -1.34852e-06)
(4.66453e-05 -4.03987e-05 7.42575e-06)
(3.83206e-05 -3.30231e-05 7.29259e-06)
(4.67747e-05 -4.05647e-05 7.15595e-06)
(3.865e-05 -3.47492e-05 -3.2067e-07)
(3.83388e-05 -3.30937e-05 7.00462e-06)
(4.67557e-05 -4.20599e-05 -8.25696e-07)
(3.86597e-05 -3.49533e-05 -1.3645e-06)
(4.67578e-05 -4.21599e-05 -1.34149e-06)
(2.02162e-11 -2.3855e-12 -2.50396e-12)
(1.30437e-10 -2.95677e-12 5.4105e-11)
(6.33655e-11 -3.91961e-11 -1.99228e-12)
(4.345e-10 4.86006e-10 3.85674e-11)
(2.79859e-11 4.11077e-11 3.52509e-11)
(2.02167e-11 6.34593e-11 3.82243e-11)
(5.53087e-11 1.50145e-10 9.70736e-11)
(1.75213e-10 5.8604e-10 1.98125e-10)
(1.76014e-11 2.96685e-11 2.8025e-11)
(1.04977e-10 1.26589e-10 7.99386e-11)
(1.58693e-12 -1.15902e-12 6.41506e-12)
(1.46425e-12 -2.15127e-12 1.83966e-11)
(1.4025e-12 -7.89553e-13 6.22463e-12)
(-8.68492e-13 -2.98686e-14 -1.05508e-12)
(6.68895e-15 3.35589e-14 1.27077e-11)
(-8.76059e-13 1.8028e-14 -1.0969e-12)
(1.21104e-11 -1.25229e-11 3.83152e-12)
(-8.03724e-11 -1.41286e-09 1.77e-11)
(2.22697e-10 -4.03732e-10 1.23418e-11)
(3.72565e-10 3.89358e-10 -5.79709e-12)
(5.77692e-11 1.5187e-10 -5.65352e-12)
(2.3932e-10 8.99574e-10 -1.33566e-11)
(7.36684e-11 2.24305e-10 -6.18557e-12)
(3.86169e-10 4.0398e-10 -5.02256e-12)
(2.36643e-10 8.88432e-10 -9.02738e-12)
(5.59332e-11 1.49496e-10 -5.55552e-12)
(3.41455e-10 3.6077e-10 -4.34855e-12)
(4.80613e-11 1.40341e-10 -3.40594e-12)
(2.26181e-10 8.56812e-10 -8.85459e-12)
(6.79682e-11 2.1257e-10 -4.08554e-12)
(3.48488e-10 3.66392e-10 -4.56282e-12)
(2.23289e-10 8.50592e-10 -7.29231e-12)
(4.68553e-11 1.3931e-10 -3.4221e-12)
(2.93006e-10 3.29858e-10 1.14462e-12)
(3.50036e-11 1.30657e-10 -3.76531e-12)
(2.02949e-10 8.17062e-10 -8.78042e-12)
(5.67085e-11 1.99792e-10 -4.81094e-12)
(3.09357e-10 3.39747e-10 -2.00425e-12)
(1.95046e-10 8.04855e-10 -5.57451e-12)
(3.21608e-11 1.28877e-10 -3.58359e-12)
(2.54331e-10 2.84304e-10 1.01089e-10)
(1.399e-12 1.13891e-10 1.63311e-11)
(1.52094e-10 7.21891e-10 1.0808e-10)
(4.78345e-11 1.61804e-10 3.96649e-11)
(2.11931e-10 3.01265e-10 6.03138e-11)
(1.87482e-10 6.29355e-10 1.95541e-10)
(1.12429e-11 1.07583e-10 2.16699e-11)
(7.34784e-11 3.70915e-10 6.77972e-11)
(5.19706e-11 3.49293e-11 2.51554e-11)
(2.05394e-11 6.82973e-11 3.82568e-11)
(8.23389e-11 1.52206e-10 9.29428e-11)
(1.16616e-10 6.37371e-10 2.03213e-10)
(3.21013e-11 2.7372e-11 2.00317e-11)
(1.55365e-10 9.5802e-11 5.58895e-11)
(6.79536e-12 -1.10597e-11 4.37262e-11)
(-1.96474e-12 -8.53182e-13 5.80948e-11)
(3.78527e-12 6.9351e-12 5.64667e-11)
(2.57874e-10 4.40089e-10 1.55372e-11)
(1.79463e-10 2.43329e-10 -2.41407e-12)
(2.8802e-10 1.48423e-10 -2.54548e-12)
(2.60127e-10 9.82446e-10 -1.11994e-11)
(2.62752e-10 1.00574e-09 4.23916e-13)
(2.63942e-10 4.32638e-10 -4.60444e-12)
(2.86493e-10 1.50276e-10 -2.3131e-12)
(-2.52456e-12 1.32966e-12 -7.76561e-12)
(-5.01555e-12 8.7425e-12 6.18639e-13)
(-1.16192e-11 1.2788e-11 3.53022e-13)
(8.2272e-12 -2.19796e-13 2.6141e-11)
(2.17253e-12 -1.60343e-12 7.90844e-12)
(6.48199e-12 -4.04539e-13 1.81248e-11)
(3.95432e-10 4.20496e-10 2.88772e-12)
(7.63528e-11 2.35347e-10 -3.22627e-12)
(5.73966e-11 1.54622e-10 -5.44268e-12)
(2.41133e-10 9.12291e-10 -1.26989e-11)
(3.85404e-10 4.04576e-10 -4.94826e-12)
(2.4529e-10 9.40028e-10 -6.08455e-13)
(5.87948e-11 1.57574e-10 -4.07177e-12)
(-1.94069e-12 -3.31975e-12 5.532e-11)
(3.53709e-13 -3.28391e-12 3.56905e-11)
(1.86352e-12 -2.84028e-12 4.89094e-11)
(-2.19427e-12 -4.2099e-13 2.61262e-11)
(-1.94887e-12 -3.52041e-13 4.1322e-11)
(-1.79209e-12 -5.34713e-13 4.20218e-11)
(1.28379e-13 -2.78057e-13 1.32875e-11)
(-8.52114e-13 -3.15867e-14 -1.02768e-12)
(-7.41409e-13 -8.82649e-14 -7.06914e-13)
(-1.96298e-12 -2.58724e-13 4.11706e-11)
(-2.33819e-12 1.35327e-15 2.51805e-11)
(-1.94044e-12 -7.27376e-14 4.09899e-11)
(1.59472e-12 -1.27795e-11 2.86949e-11)
(-3.34238e-11 -1.43794e-10 4.61653e-11)
(-4.15267e-12 -1.82061e-11 4.38755e-11)
(2.31205e-12 -4.83525e-12 1.42546e-11)
(8.19845e-12 -7.65841e-12 2.97564e-12)
(2.90547e-13 -1.95968e-13 5.69613e-13)
(-6.61609e-11 -2.82481e-10 4.64307e-11)
(1.98092e-10 -1.61543e-09 1.46032e-10)
(-2.36187e-10 -1.86687e-09 -5.58517e-11)
(2.68679e-10 4.17489e-10 -6.38123e-12)
(2.8399e-10 1.47596e-10 -4.15207e-12)
(2.5769e-10 9.70665e-10 -1.25627e-11)
(1.76062e-10 2.33613e-10 -6.37353e-12)
(2.57127e-10 9.57903e-10 -9.53641e-12)
(2.59857e-10 4.34711e-10 -5.16779e-12)
(2.84159e-10 1.45002e-10 -5.7186e-12)
(2.73352e-10 4.00153e-10 -6.89714e-12)
(1.74186e-10 2.25468e-10 -4.39559e-12)
(2.82865e-10 1.3696e-10 -3.68111e-12)
(2.50993e-10 9.27199e-10 -7.99335e-12)
(2.52969e-10 9.34432e-10 -9.27875e-12)
(2.72335e-10 3.95954e-10 -6.93654e-12)
(2.83635e-10 1.37835e-10 -3.82145e-12)
(3.54611e-10 3.72237e-10 -5.09317e-12)
(7.00525e-11 2.1638e-10 -4.29378e-12)
(4.89598e-11 1.41376e-10 -3.48223e-12)
(2.27041e-10 8.59093e-10 -7.75788e-12)
(3.4879e-10 3.66622e-10 -4.80058e-12)
(2.29296e-10 8.66115e-10 -9.10152e-12)
(4.9635e-11 1.4239e-10 -3.50818e-12)
(2.71406e-10 3.90089e-10 -7.00483e-12)
(2.81912e-10 1.36046e-10 -3.56731e-12)
(2.50289e-10 9.24784e-10 -9.02948e-12)
(1.71909e-10 2.21695e-10 -4.17196e-12)
(2.47862e-10 9.18252e-10 -7.58283e-12)
(2.72093e-10 3.95378e-10 -6.80588e-12)
(2.81103e-10 1.35081e-10 -3.683e-12)
(2.65483e-10 3.77992e-10 -7.86923e-12)
(1.6627e-10 2.15005e-10 -4.85704e-12)
(2.73434e-10 1.28889e-10 -4.39355e-12)
(2.31827e-10 8.871e-10 -8.36843e-12)
(2.3704e-10 8.96836e-10 -9.53285e-12)
(2.61946e-10 3.71412e-10 -7.84879e-12)
(2.75148e-10 1.30111e-10 -4.18352e-12)
(3.22313e-10 3.4788e-10 -3.45234e-12)
(6.22792e-11 2.0572e-10 -4.73013e-12)
(3.73628e-11 1.32242e-10 -3.82137e-12)
(2.05219e-10 8.20254e-10 -7.83809e-12)
(3.10467e-10 3.40139e-10 -2.45341e-12)
(2.1099e-10 8.29772e-10 -9.1635e-12)
(3.93635e-11 1.33657e-10 -3.69673e-12)
(2.57328e-10 3.61475e-10 -5.15644e-12)
(2.71543e-10 1.27477e-10 -4.29685e-12)
(2.29894e-10 8.8382e-10 -9.23437e-12)
(1.60766e-10 2.09227e-10 -4.93386e-12)
(2.22906e-10 8.71245e-10 -6.15106e-12)
(2.61357e-10 3.70437e-10 -7.62191e-12)
(2.69344e-10 1.25927e-10 -4.08893e-12)
(2.5679e-10 3.22133e-10 4.74386e-11)
(1.47632e-10 1.94193e-10 1.31433e-11)
(2.54624e-10 1.10512e-10 3.41691e-11)
(1.9018e-10 7.85669e-10 9.86312e-11)
(1.95349e-10 8.18024e-10 4.11166e-11)
(2.76037e-10 2.83079e-10 1.42191e-10)
(2.57184e-10 1.14294e-10 1.72385e-11)
(2.33472e-10 3.04868e-10 3.05291e-11)
(4.0292e-11 1.8598e-10 9.85104e-12)
(2.01807e-12 1.16455e-10 1.11151e-11)
(1.51462e-10 7.33496e-10 8.71976e-11)
(2.11245e-10 3.00143e-10 5.58974e-11)
(1.59803e-10 7.57196e-10 3.77829e-11)
(7.24197e-12 1.18303e-10 6.76144e-12)
(3.54822e-10 1.33755e-10 4.57956e-10)
(2.51225e-10 1.0411e-10 6.45194e-11)
(1.91589e-10 7.69256e-10 1.2472e-10)
(1.4461e-10 1.621e-10 7.14153e-11)
(2.24155e-10 6.4924e-10 2.40121e-10)
(2.8123e-10 2.74065e-10 1.65119e-10)
(2.47506e-10 9.16677e-11 1.2034e-10)
(9.98064e-12 -4.58246e-12 -1.98336e-12)
(2.94984e-11 -1.45538e-11 3.39316e-12)
(5.43428e-11 -4.39774e-11 -3.22683e-12)
(1.45656e-10 -4.79455e-11 5.52957e-11)
(1.172e-10 -5.97617e-11 2.52944e-11)
(4.70809e-11 -2.10291e-11 4.71505e-12)
(6.40256e-10 -3.13627e-10 1.51806e-10)
(9.17817e-11 -6.84566e-11 6.17119e-12)
(2.06834e-12 9.1381e-12 9.34987e-12)
(-4.83106e-12 1.07778e-11 6.13301e-11)
(2.66469e-11 2.94891e-11 3.37596e-11)
(5.55031e-11 4.31779e-11 2.89124e-11)
(6.94524e-12 4.4984e-11 4.86121e-11)
(3.8691e-12 -5.97688e-12 5.65533e-11)
(2.14987e-10 8.35567e-10 -9.19505e-13)
(2.78901e-11 4.09888e-11 3.62179e-11)
(4.38314e-10 4.85171e-10 3.33935e-11)
(7.93355e-11 2.05122e-10 6.64021e-11)
(2.26663e-10 8.91164e-10 3.12411e-11)
(8.0798e-11 1.63154e-10 1.72712e-11)
(1.93458e-10 7.65622e-10 1.06184e-10)
(4.22616e-10 4.51926e-10 1.89327e-11)
(8.74337e-11 1.57798e-10 4.71249e-11)
(2.55898e-10 1.13419e-09 1.43427e-11)
(2.06284e-10 9.54341e-10 6.96544e-11)
(-5.79718e-12 2.44337e-12 6.34023e-11)
(-4.58552e-12 -1.05114e-11 5.1777e-11)
(3.29502e-11 3.60093e-11 5.23365e-11)
(4.50658e-11 4.65106e-11 5.8432e-12)
(4.81247e-11 4.93517e-11 1.94481e-11)
(6.32455e-12 -1.08884e-12 1.48054e-11)
(6.49418e-12 -7.13676e-13 1.46056e-11)
(2.09032e-13 -8.8995e-13 4.22316e-12)
(-2.60697e-13 -4.81504e-13 3.66889e-12)
(1.76101e-12 -2.27098e-12 1.74605e-11)
(-2.35488e-13 -2.41603e-13 2.9401e-13)
(8.86335e-13 -1.02901e-12 4.16304e-12)
(-1.44927e-12 -2.24977e-13 -6.04073e-13)
(-6.37076e-13 -6.10546e-13 2.36077e-12)
(7.54783e-12 -1.27536e-13 1.33528e-11)
(7.57791e-12 -2.88129e-14 1.33323e-11)
(-1.96474e-12 -1.08552e-14 -1.86506e-12)
(-1.96504e-12 2.27142e-15 -1.88845e-12)
(1.45792e-14 2.25676e-14 1.27269e-11)
(-7.69503e-13 7.28791e-14 -8.28738e-13)
(-8.60682e-13 1.72698e-14 -1.0584e-12)
(-1.88646e-12 4.84995e-14 -1.67423e-12)
(-1.9521e-12 2.49862e-14 -1.85524e-12)
(7.56465e-07 -3.63007e-07 1.25582e-06)
(4.57767e-10 6.90333e-10 1.00685e-10)
(6.41399e-07 -2.96344e-07 1.11078e-06)
(5.86814e-10 9.16135e-10 1.56892e-10)
(1.79141e-06 -1.57102e-06 -1.93313e-06)
(6.86099e-07 -4.348e-07 -1.07702e-06)
(5.83291e-12 -5.60067e-12 2.5818e-12)
(1.50003e-10 -2.38928e-10 4.87966e-12)
(-4.71785e-10 -2.02126e-09 -2.79887e-10)
(3.54902e-07 -2.94302e-07 -3.50193e-07)
(1.10287e-08 1.18251e-08 -3.77158e-08)
(5.36637e-07 -3.20745e-07 -8.38596e-07)
(2.36565e-10 -9.92498e-10 -3.30216e-11)
(1.76148e-06 -1.55965e-06 -1.72216e-06)
(5.84038e-07 -5.16517e-07 -4.6502e-07)
(6.53348e-07 -4.31727e-07 -9.54872e-07)
(1.51576e-08 1.62241e-08 -4.52306e-08)
(5.6906e-07 -3.23746e-07 -9.47311e-07)
(1.90439e-10 -6.00781e-10 -1.94268e-11)
(3.29319e-11 4.22882e-11 -1.80095e-12)
(3.06813e-11 4.11065e-11 -2.52322e-12)
(2.73027e-10 1.15758e-09 -9.09075e-12)
(2.70891e-10 1.15035e-09 -7.10695e-12)
(3.7115e-10 3.8842e-10 -5.77219e-12)
(7.26293e-11 2.22781e-10 -5.86694e-12)
(2.32841e-10 8.7836e-10 -1.04291e-11)
(5.19961e-11 1.46033e-10 -4.76269e-12)
(2.35819e-10 8.88705e-10 -1.07814e-11)
(3.61964e-10 3.79741e-10 -6.19827e-12)
(5.343e-11 1.47609e-10 -5.16429e-12)
(2.6666e-10 1.13753e-09 -9.69331e-12)
(2.7024e-10 1.15255e-09 -8.4375e-12)
(2.84855e-11 3.99883e-11 -2.05024e-12)
(3.0336e-11 4.07607e-11 -1.82499e-12)
(9.53389e-06 -7.70791e-06 4.83223e-06)
(9.13333e-06 -7.35545e-06 4.7502e-06)
(1.24507e-05 -1.20585e-05 -4.7341e-06)
(9.47167e-06 -9.22162e-06 -4.26959e-06)
(6.44054e-06 -6.24576e-06 -3.25009e-06)
(8.74794e-06 -8.26964e-06 -1.69234e-06)
(9.05825e-06 -8.77665e-06 -3.74872e-06)
(6.45788e-06 -6.29178e-06 -3.6397e-06)
(9.07072e-06 -8.83571e-06 -4.19672e-06)
(1.24435e-05 -1.19866e-05 -4.22995e-06)
(9.55287e-06 -9.01753e-06 -1.74988e-06)
(9.45988e-06 -9.16085e-06 -3.81397e-06)
(2.69264e-11 3.84609e-11 -1.05161e-12)
(2.53851e-11 3.79529e-11 -1.54612e-12)
(2.59284e-10 1.1104e-09 -7.38893e-12)
(2.56133e-10 1.10307e-09 -6.89269e-12)
(3.40945e-10 3.60558e-10 -4.14552e-12)
(6.70047e-11 2.1138e-10 -4.10762e-12)
(2.1844e-10 8.42127e-10 -7.61071e-12)
(4.4136e-11 1.37232e-10 -3.47e-12)
(2.22147e-10 8.48905e-10 -8.56157e-12)
(3.33007e-10 3.54859e-10 -4.10955e-12)
(4.5523e-11 1.38291e-10 -3.37203e-12)
(2.50867e-10 1.09234e-09 -7.07838e-12)
(2.54908e-10 1.10086e-09 -7.11208e-12)
(2.33854e-11 3.7295e-11 -1.51604e-12)
(2.50712e-11 3.77905e-11 -9.96737e-13)
(2.49658e-05 -2.13183e-05 6.54972e-06)
(2.44294e-05 -2.08459e-05 6.52022e-06)
(2.87292e-05 -2.69708e-05 -5.94946e-06)
(2.49186e-05 -2.35391e-05 -5.79585e-06)
(2.06949e-05 -1.96087e-05 -4.96079e-06)
(2.40372e-05 -2.21641e-05 -2.31362e-06)
(2.43871e-05 -2.29559e-05 -5.15794e-06)
(2.06927e-05 -1.97006e-05 -5.54962e-06)
(2.43817e-05 -2.30536e-05 -5.76939e-06)
(2.87377e-05 -2.6868e-05 -5.31962e-06)
(2.51134e-05 -2.31248e-05 -2.33367e-06)
(2.49244e-05 -2.34407e-05 -5.18169e-06)
(1.80025e-11 3.56469e-11 -9.17735e-13)
(1.47662e-11 3.49464e-11 -1.13397e-12)
(2.33969e-10 1.06013e-09 -6.02304e-12)
(2.25233e-10 1.04463e-09 -2.89142e-12)
(2.91314e-10 3.29346e-10 2.04707e-12)
(5.41321e-11 1.97335e-10 -4.18937e-12)
(1.81201e-10 7.85363e-10 3.21051e-12)
(2.44633e-11 1.24729e-10 -1.90905e-12)
(1.91882e-10 8.00759e-10 -5.44958e-12)
(2.68354e-10 3.17152e-10 9.85647e-12)
(2.87028e-11 1.26897e-10 -2.98761e-12)
(2.09777e-10 1.01924e-09 8.03777e-12)
(2.21809e-10 1.03904e-09 -1.31575e-12)
(8.94711e-12 3.38869e-11 -1.16572e-13)
(1.39106e-11 3.47094e-11 -4.61383e-13)
(4.27222e-05 -3.69965e-05 6.93084e-06)
(4.21625e-05 -3.64991e-05 6.93e-06)
(4.66307e-05 -4.29588e-05 -6.14604e-06)
(4.2686e-05 -3.94341e-05 -6.15614e-06)
(3.82161e-05 -3.53273e-05 -5.48519e-06)
(4.17995e-05 -3.79462e-05 -2.45998e-06)
(4.21404e-05 -3.88245e-05 -5.50477e-06)
(3.8203e-05 -3.54364e-05 -6.13325e-06)
(4.21262e-05 -3.89345e-05 -6.15468e-06)
(4.66507e-05 -4.28568e-05 -5.51497e-06)
(4.29211e-05 -3.89448e-05 -2.46061e-06)
(4.27004e-05 -3.93241e-05 -5.50613e-06)
(-1.17119e-11 3.04517e-11 3.9361e-12)
(-5.91231e-13 2.66519e-11 4.03235e-12)
(1.69864e-10 9.36257e-10 1.37375e-10)
(2.03142e-10 8.27987e-10 2.3612e-10)
(2.65611e-10 2.7296e-10 1.1073e-10)
(4.1126e-11 7.17949e-11 3.3234e-11)
(2.19595e-10 5.71571e-10 2.32448e-10)
(7.52671e-12 4.32101e-11 6.07091e-12)
(2.38984e-10 7.60341e-10 2.69244e-10)
(1.12783e-11 2.5461e-11 3.63891e-12)
(1.66763e-11 5.57467e-12 6.37707e-12)
(2.20696e-11 -4.91029e-12 1.27994e-12)
(2.84842e-11 1.56358e-11 1.11067e-11)
(1.20938e-10 2.87577e-11 2.46286e-11)
(2.65276e-11 4.78569e-11 5.02074e-11)
(1.44367e-11 1.07725e-11 4.44774e-11)
(4.54366e-11 9.10365e-10 5.70368e-12)
(1.6309e-11 3.23016e-11 2.44445e-11)
(7.35324e-11 4.16389e-10 6.50404e-11)
(1.392e-10 2.086e-10 7.12617e-11)
(2.20625e-10 9.68328e-10 3.58772e-11)
(2.65594e-10 1.48043e-10 3.27892e-11)
(1.60826e-10 8.27514e-10 1.11718e-10)
(1.83555e-10 4.80769e-10 4.28985e-11)
(2.21588e-10 1.36337e-10 3.94734e-11)
(1.9053e-10 1.23944e-09 1.88936e-11)
(1.26613e-10 1.04326e-09 7.66119e-11)
(3.35872e-11 -8.43683e-12 5.46929e-12)
(2.11393e-11 9.78518e-12 3.85619e-11)
(1.85636e-11 2.13006e-11 1.8814e-11)
(1.86437e-10 3.79454e-11 2.04628e-11)
(1.42036e-10 3.14321e-11 2.2249e-11)
(-9.54385e-12 1.37044e-11 2.44239e-11)
(8.33679e-10 -1.22928e-10 8.03509e-11)
(1.92549e-12 1.505e-11 2.8237e-11)
(1.903e-11 1.09739e-12 4.08905e-11)
(1.29946e-11 1.06286e-11 4.33538e-11)
(1.00085e-11 1.22272e-11 5.18395e-11)
(-3.90817e-12 -8.02642e-13 6.31647e-11)
(-9.08385e-12 9.02249e-12 5.01581e-11)
(4.28418e-12 1.13566e-11 5.91516e-11)
(1.96914e-11 9.36919e-12 4.00032e-11)
(1.66484e-11 3.38006e-11 3.67934e-11)
(1.38221e-11 1.68195e-11 5.1025e-11)
(2.44563e-10 4.50772e-10 1.94471e-11)
(1.72398e-10 2.44044e-10 4.52339e-12)
(2.2938e-10 9.70192e-10 2.44632e-11)
(2.64713e-10 1.59022e-10 1.80023e-11)
(1.71244e-10 4.99377e-10 3.99018e-11)
(2.56899e-10 9.97355e-10 8.06624e-12)
(2.7458e-10 1.55668e-10 3.98379e-12)
(1.92085e-10 4.17491e-11 -5.59719e-13)
(1.8952e-10 4.23919e-11 1.24549e-13)
(2.39294e-10 1.26741e-09 -8.62534e-12)
(2.43105e-10 1.3035e-09 2.97546e-12)
(2.0494e-10 1.23586e-09 1.5706e-11)
(2.37825e-10 1.28761e-09 9.35465e-12)
(1.8404e-10 4.26435e-11 1.56767e-11)
(1.88202e-10 4.33759e-11 1.51726e-12)
(-6.49167e-12 2.28116e-12 -3.33843e-12)
(-1.36701e-11 1.02217e-11 5.17441e-11)
(-1.67231e-11 1.26782e-11 1.06629e-11)
(-1.43839e-12 7.29639e-12 -3.39078e-12)
(-9.25063e-12 1.54471e-11 7.21568e-12)
(-1.15501e-11 3.18395e-12 5.4965e-11)
(3.34096e-11 1.25815e-11 3.27853e-12)
(-1.25786e-11 1.26624e-11 1.64915e-11)
(-3.72281e-12 -3.4756e-12 3.12746e-11)
(-2.05895e-12 -3.4341e-12 4.10531e-11)
(5.6699e-12 5.09497e-12 2.08659e-11)
(7.01018e-13 -1.25257e-12 5.37027e-12)
(4.05066e-12 3.0454e-13 1.36053e-11)
(-5.40776e-12 -7.07188e-12 3.5232e-11)
(2.97032e-12 4.64763e-12 1.32967e-11)
(4.39752e-11 3.29699e-12 1.18964e-12)
(3.99607e-10 4.23773e-10 4.40982e-12)
(7.80451e-11 2.35103e-10 3.94566e-12)
(2.32824e-10 8.94591e-10 2.13078e-11)
(7.48864e-11 1.62831e-10 6.58312e-12)
(4.25595e-10 4.51801e-10 1.63577e-11)
(2.44136e-10 9.30529e-10 7.60978e-12)
(6.63319e-11 1.60762e-10 -4.76913e-13)
(3.31145e-11 4.26112e-11 -2.19852e-12)
(3.65504e-11 4.38053e-11 -1.13282e-12)
(2.75434e-10 1.17815e-09 -1.00685e-11)
(2.82323e-10 1.22582e-09 1.44655e-12)
(2.63997e-10 1.13269e-09 1.24298e-11)
(2.79996e-10 1.20653e-09 8.18322e-12)
(4.45569e-11 4.65517e-11 4.01524e-12)
(3.76328e-11 4.45111e-11 -1.03892e-12)
(-3.84418e-12 -4.15325e-12 6.04397e-11)
(2.4859e-12 -2.25684e-12 3.53629e-11)
(3.55966e-13 -2.94999e-12 4.98285e-11)
(-2.25172e-13 -3.35791e-12 3.16688e-11)
(-1.09317e-12 -1.20056e-12 4.382e-11)
(7.60361e-13 -2.79087e-12 4.73069e-11)
(3.23849e-12 -1.20311e-12 3.48724e-11)
(-2.07936e-12 -1.04367e-12 4.70848e-11)
(-2.60003e-13 -2.10932e-12 4.90867e-11)
(7.31954e-12 -7.456e-14 1.37876e-11)
(7.32801e-12 -1.73915e-13 1.38183e-11)
(-2.13034e-12 -4.70539e-13 2.64224e-11)
(-1.26959e-12 -9.07779e-13 4.33813e-11)
(-1.69206e-12 -6.18691e-13 4.23181e-11)
(-3.07132e-12 -3.39047e-13 4.51434e-11)
(4.18067e-12 -2.62462e-13 3.39844e-11)
(-2.92826e-12 -4.98728e-13 4.57613e-11)
(-2.32618e-12 -7.95126e-13 4.67642e-11)
(4.15394e-12 -2.65224e-13 3.40988e-11)
(-2.81632e-12 -5.42826e-13 4.59896e-11)
(1.19651e-13 -2.75608e-13 1.33667e-11)
(-3.71405e-13 -2.03499e-13 6.02599e-14)
(-6.89858e-13 -9.16139e-14 -6.00063e-13)
(-1.94392e-12 -3.63123e-14 -1.82374e-12)
(-1.86561e-12 -5.78485e-14 -1.57376e-12)
(-1.57108e-12 -1.66253e-13 -8.64701e-13)
(-1.81303e-12 -8.36129e-14 -1.45945e-12)
(-3.07955e-12 -2.83565e-13 4.49947e-11)
(4.47657e-12 -1.39154e-13 3.31967e-11)
(-3.03134e-12 -7.94466e-14 4.48026e-11)
(-2.30768e-12 2.82012e-14 2.52392e-11)
(-1.75442e-12 -3.70059e-13 4.14705e-11)
(-1.91261e-12 -1.06133e-14 4.10393e-11)
(4.56654e-12 -1.34122e-13 3.31462e-11)
(-2.86731e-12 -4.12186e-13 4.52145e-11)
(-2.99961e-12 -5.36606e-14 4.48465e-11)
(6.72184e-12 -1.66567e-12 1.28569e-11)
(7.24514e-12 -1.44719e-12 1.29365e-11)
(-3.0917e-14 -6.00591e-12 2.77456e-11)
(-1.70493e-12 -8.80954e-13 4.17441e-11)
(-2.53592e-12 -8.97682e-12 4.31624e-11)
(-5.0462e-11 -1.20838e-10 4.8642e-11)
(1.07432e-12 -4.59619e-12 3.31236e-11)
(-7.38271e-12 -1.66283e-11 4.73456e-11)
(-2.8698e-12 -9.47307e-13 4.5439e-11)
(3.24538e-12 -3.14434e-12 3.308e-11)
(-4.63774e-12 -8.40152e-12 4.67051e-11)
(1.74306e-12 -3.06577e-12 1.4157e-11)
(-6.9161e-13 6.89029e-14 -6.61843e-13)
(-5.89902e-14 -6.44064e-14 1.57431e-13)
(3.44229e-12 -3.30281e-12 1.68602e-12)
(-1.16354e-12 2.53683e-14 -4.55282e-13)
(-1.82058e-12 7.0483e-14 -1.52614e-12)
(-1.41831e-12 5.43926e-14 -8.48001e-13)
(1.55018e-06 -1.27947e-06 8.1175e-07)
(7.21166e-07 -3.69515e-07 1.15804e-06)
(6.00458e-07 -4.89495e-07 4.82845e-07)
(-9.38257e-11 -2.2803e-10 4.76755e-11)
(4.94677e-10 1.05938e-09 1.73595e-11)
(-1.78257e-10 -1.39237e-09 -1.579e-10)
(-4.59932e-11 -3.92529e-09 2.11952e-10)
(3.38647e-07 -3.02756e-07 -1.92675e-07)
(1.79817e-09 -4.04105e-09 2.63167e-08)
(3.46407e-07 -3.10017e-07 2.17758e-07)
(2.18457e-10 -3.1631e-09 -3.77374e-10)
(1.52426e-06 -1.32384e-06 4.86222e-07)
(5.65128e-07 -5.1949e-07 -2.60347e-07)
(5.73806e-07 -5.03359e-07 2.86402e-07)
(6.06428e-07 -3.00371e-07 1.02181e-06)
(1.11612e-09 4.66496e-09 1.59336e-09)
(6.81795e-09 -5.02722e-09 4.17644e-08)
(3.71255e-07 -3.07725e-07 3.65629e-07)
(4.9222e-10 -1.20391e-09 -2.82193e-10)
(7.75906e-07 -3.9763e-07 1.31627e-06)
(6.58524e-07 -3.31968e-07 1.16314e-06)
(1.60093e-06 -1.32175e-06 1.15958e-06)
(7.48186e-07 -4.18633e-07 1.25118e-06)
(6.22369e-07 -5.38229e-07 6.98764e-07)
(3.40046e-07 -2.88588e-07 -2.59493e-08)
(1.98781e-09 -2.62506e-08 5.12489e-08)
(3.58366e-07 -3.46659e-07 3.97359e-07)
(1.56829e-06 -1.35315e-06 8.51959e-07)
(5.67988e-07 -5.04601e-07 -3.94934e-08)
(5.90536e-07 -5.36941e-07 5.14488e-07)
(6.29983e-07 -3.51617e-07 1.10348e-06)
(9.14409e-09 -3.69911e-08 6.84119e-08)
(3.87516e-07 -3.59335e-07 5.38232e-07)
(3.72694e-06 -2.66611e-06 3.18181e-06)
(4.00331e-06 -2.89946e-06 3.2942e-06)
(1.95132e-06 -1.62336e-06 9.14516e-07)
(3.69209e-06 -2.69834e-06 2.95509e-06)
(3.39285e-06 -2.88337e-06 1.20354e-06)
(3.92054e-06 -3.67595e-06 -6.68863e-07)
(5.80284e-06 -5.15111e-06 9.41086e-07)
(3.9259e-06 -3.46065e-06 7.83841e-07)
(1.92607e-06 -1.67693e-06 5.49406e-07)
(3.3636e-06 -3.15378e-06 -6.25236e-07)
(3.36956e-06 -2.96158e-06 7.27924e-07)
(3.96857e-06 -2.93295e-06 3.05977e-06)
(5.82374e-06 -5.04567e-06 1.54656e-06)
(3.94857e-06 -3.37508e-06 1.29374e-06)
(3.77262e-06 -2.69343e-06 3.35896e-06)
(4.05025e-06 -2.92631e-06 3.47813e-06)
(2.01219e-06 -1.66423e-06 1.30502e-06)
(3.7579e-06 -2.73694e-06 3.21829e-06)
(3.48179e-06 -2.92027e-06 1.71431e-06)
(3.98453e-06 -3.6665e-06 -1.3501e-07)
(5.91949e-06 -5.17315e-06 1.61524e-06)
(4.01798e-06 -3.48531e-06 1.35379e-06)
(1.98024e-06 -1.70526e-06 9.58822e-07)
(3.41922e-06 -3.14402e-06 -1.24685e-07)
(3.4527e-06 -2.98714e-06 1.26001e-06)
(4.03628e-06 -2.97088e-06 3.33297e-06)
(5.94427e-06 -5.07752e-06 2.19675e-06)
(4.04602e-06 -3.4107e-06 1.84166e-06)
(1.80469e-06 -1.52635e-06 -1.6672e-06)
(6.87994e-07 -3.84941e-07 -9.23274e-07)
(3.52354e-07 -2.70283e-07 -1.64822e-07)
(1.40707e-08 2.7077e-08 -3.91373e-08)
(5.35962e-07 -2.85286e-07 -7.32602e-07)
(1.77012e-06 -1.52886e-06 -1.51354e-06)
(5.81134e-07 -4.89831e-07 -2.19955e-07)
(6.53012e-07 -3.97043e-07 -8.34015e-07)
(1.8812e-08 3.4531e-08 -4.3657e-08)
(5.70214e-07 -2.72784e-07 -8.1237e-07)
(1.99059e-06 -1.77847e-06 -2.04787e-06)
(3.66094e-06 -3.4969e-06 -2.80002e-06)
(3.93259e-06 -3.73779e-06 -1.20998e-06)
(6.09612e-06 -5.90883e-06 -3.1728e-06)
(3.91406e-06 -3.7477e-06 -2.58833e-06)
(1.96137e-06 -1.76528e-06 -1.82498e-06)
(3.3767e-06 -3.20721e-06 -1.1291e-06)
(3.63696e-06 -3.46946e-06 -2.49855e-06)
(6.11418e-06 -5.95288e-06 -3.55334e-06)
(3.93729e-06 -3.77725e-06 -2.90031e-06)
(2.0061e-06 -1.73446e-06 -1.76817e-06)
(3.69398e-06 -3.45742e-06 -2.4347e-06)
(3.99559e-06 -3.71875e-06 -6.20836e-07)
(6.13782e-06 -5.88529e-06 -2.82278e-06)
(3.94101e-06 -3.721e-06 -2.29279e-06)
(1.97183e-06 -1.73496e-06 -1.60554e-06)