/*--------------------------------*- C++ -*----------------------------------*\
| =========                 |                                                 |
| \\      /  F ield         | OpenFOAM: The Open Source CFD Toolbox           |
|  \\    /   O peration     | Version:  2012                                  |
|   \\  /    A nd           | Website:  www.openfoam.com                      |
|    \\/     M anipulation  |                                                 |
\*---------------------------------------------------------------------------*/
FoamFile
{
    version     2.0;
    format      ascii;
    class       volSymmTensorField;
    location    "0.104/solid";
    object      epsilon;
}
// * * * * * * * * * * * * * * * * * * * * * * * * * * * * * * * * * * * * * //

dimensions      [0 0 0 0 0 0 0];


internalField   nonuniform List<symmTensor> 
24998
(
(-1.56977e-10 8.79704e-10 1.52036e-09 4.29803e-09 4.70179e-09 3.87918e-09)
(-7.26587e-11 -2.34622e-11 5.5931e-11 3.53559e-11 5.52487e-12 -3.30752e-10)
(2.04778e-10 -8.70614e-11 9.60767e-10 2.5118e-11 -8.95379e-11 7.7178e-09)
(2.50519e-10 3.06159e-14 4.07837e-10 2.20052e-12 -2.31447e-11 5.28603e-09)
(1.14176e-10 2.92265e-09 4.36077e-09 -6.01728e-09 -1.18506e-08 8.12154e-09)
(-2.14737e-09 2.27859e-09 -5.14833e-11 2.57134e-08 -2.01476e-10 -2.22504e-11)
(-2.32273e-09 1.84275e-09 -5.23804e-12 2.46396e-08 -1.51774e-10 -4.74581e-12)
(-2.42216e-09 1.4887e-09 -3.97071e-11 2.34641e-08 -1.94872e-10 4.28643e-12)
(-2.96336e-09 1.05892e-09 -3.4137e-10 2.07211e-08 1.63885e-09 9.46748e-10)
(-1.06236e-09 1.56512e-09 2.33088e-09 4.45964e-09 4.5508e-09 3.48712e-09)
(3.89507e-10 -6.63269e-11 4.18056e-10 -8.06227e-11 5.16478e-11 7.53571e-09)
(-5.11754e-09 6.76314e-09 -1.60299e-10 2.89367e-08 -1.44209e-10 -1.38325e-10)
(8.99245e-12 8.39791e-12 2.94934e-11 5.28032e-11 -7.9964e-11 -5.76029e-10)
(1.72101e-10 -1.2127e-10 1.13002e-09 2.07652e-11 -9.36612e-11 7.81184e-09)
(-2.21231e-09 2.36885e-09 -7.14807e-11 2.62483e-08 -2.00824e-10 -1.22062e-10)
(3.55724e-10 -1.90449e-11 5.39388e-10 -3.44883e-11 3.78904e-11 7.76839e-09)
(2.83674e-10 3.28267e-12 2.56792e-10 2.95124e-12 -2.69111e-12 5.73152e-09)
(2.51559e-10 3.25085e-12 4.10148e-10 3.13009e-12 -7.62913e-13 5.29751e-09)
(2.83076e-10 1.31954e-12 2.54561e-10 3.32067e-12 -7.50012e-12 5.7119e-09)
(3.10711e-10 3.43021e-09 2.26034e-09 -6.37452e-09 -5.05254e-09 1.05593e-08)
(1.84293e-10 2.1534e-09 3.32518e-09 -4.09635e-09 -8.13848e-09 7.80825e-09)
(3.05275e-10 6.88916e-09 4.03184e-09 -1.21248e-08 -9.76598e-09 1.48022e-08)
(-5.03925e-09 6.55421e-09 -1.2125e-10 2.85051e-08 -1.902e-10 -6.16679e-11)
(-5.12389e-09 6.22252e-09 -2.83542e-11 2.74844e-08 -1.608e-10 -7.88186e-12)
(-2.32086e-09 1.86738e-09 -9.33273e-12 2.47672e-08 -1.54161e-10 -4.72154e-12)
(-5.11535e-09 6.18905e-09 -2.49224e-11 2.73511e-08 -1.60535e-10 -8.68314e-12)
(-5.10562e-09 5.88477e-09 -5.127e-11 2.63388e-08 -2.08808e-10 -1.21603e-11)
(-2.39872e-09 1.5615e-09 -3.18174e-11 2.36693e-08 -1.95183e-10 -8.40767e-12)
(-5.10943e-09 5.81107e-09 -6.01662e-11 2.61245e-08 -2.10183e-10 1.86808e-12)
(-5.36378e-09 5.32068e-09 -2.82217e-10 2.34025e-08 1.38009e-09 1.04876e-09)
(-2.94875e-09 8.1863e-10 -2.75145e-10 2.13998e-08 1.09968e-09 6.88801e-10)
(-5.30588e-09 5.49804e-09 -5.22912e-10 2.21478e-08 2.24045e-09 1.67694e-09)
(6.7563e-11 5.11814e-10 2.50843e-10 -1.71645e-10 -6.62273e-10 -1.48548e-09)
(2.30961e-11 2.57511e-10 1.87212e-09 2.29658e-11 1.12172e-09 -1.08537e-09)
(-5.13091e-10 -7.58603e-11 -3.77703e-11 1.12297e-09 2.54756e-09 4.71587e-09)
(3.61027e-10 -4.60356e-10 7.96648e-10 -3.41648e-09 2.85176e-09 1.39479e-08)
(-1.05041e-09 3.06015e-09 -2.18454e-10 2.51093e-08 1.2114e-09 -1.0583e-09)
(4.98356e-10 3.1064e-10 3.26807e-11 2.39556e-10 -8.87548e-10 7.70488e-09)
(5.60311e-10 1.25727e-10 -1.03499e-09 -6.84623e-11 -3.77619e-10 8.92479e-09)
(3.8574e-10 -2.95356e-11 -3.55233e-12 5.4884e-12 -3.21898e-11 6.44467e-09)
(2.43165e-10 1.84762e-12 4.84432e-10 1.19255e-11 -4.2066e-11 5.72118e-09)
(3.76388e-10 2.57738e-11 4.8128e-11 2.15135e-12 2.3481e-12 6.31628e-09)
(3.74201e-10 -3.6111e-11 8.0781e-11 -1.37892e-11 -4.63467e-11 6.28811e-09)
(2.47672e-10 9.02137e-12 4.4037e-10 -1.25505e-11 8.65973e-12 5.41773e-09)
(-2.80153e-06 -2.76343e-07 -6.44122e-10 -3.17788e-06 5.72915e-08 1.0062e-05)
(-1.10764e-09 -1.82474e-09 -3.84678e-09 -6.29311e-10 -3.34456e-09 5.77145e-09)
(-8.3416e-08 1.55538e-06 3.50864e-06 -1.75164e-06 1.83518e-06 7.50984e-06)
(1.08983e-07 1.47165e-07 5.72722e-07 1.97523e-06 5.22558e-07 -4.72512e-06)
(1.35979e-06 -1.18161e-07 8.96862e-07 2.44583e-06 -1.93478e-07 -6.12834e-06)
(-2.26493e-09 2.03347e-09 -2.75649e-11 2.52869e-08 -1.83135e-10 -1.00161e-11)
(-1.55444e-06 -1.01375e-07 9.61183e-08 -1.68969e-06 -1.71581e-07 5.42511e-06)
(-2.12649e-06 -1.74838e-07 8.20549e-08 -2.36122e-06 -1.37893e-07 7.53543e-06)
(9.87615e-07 -7.34625e-08 9.61225e-07 1.5389e-06 -9.76966e-08 -4.03734e-06)
(6.78849e-07 -4.85162e-08 9.93893e-07 9.99737e-07 -4.93661e-08 -2.68323e-06)
(-2.33891e-09 1.75875e-09 -1.46843e-11 2.42893e-08 -1.63562e-10 -1.82829e-11)
(-4.95149e-07 -1.39263e-08 6.30961e-08 -5.08592e-07 -1.07721e-07 1.6271e-06)
(-9.49407e-07 -4.32065e-08 8.57527e-08 -1.00458e-06 -1.51747e-07 3.23723e-06)
(3.5432e-07 -2.20401e-08 9.13553e-07 4.82518e-07 -3.25765e-10 -1.33613e-06)
(1.74951e-07 -6.75921e-09 7.45049e-07 2.21694e-07 2.15578e-08 -6.26772e-07)
(-2.55412e-09 1.18236e-09 -8.71641e-11 2.26869e-08 -6.48273e-11 1.25713e-10)
(-1.09847e-08 -5.50245e-10 -4.56892e-09 -2.06747e-08 1.30542e-09 2.54819e-08)
(-1.34674e-07 -5.86704e-10 2.98143e-08 -1.27525e-07 -4.79876e-08 3.70376e-07)
(4.35299e-08 5.49388e-09 3.97623e-07 4.78898e-08 2.26379e-08 -1.2918e-07)
(-2.52622e-08 1.95743e-08 1.86468e-08 1.94453e-08 2.81213e-10 4.02913e-09)
(4.49664e-10 6.73177e-10 5.17237e-10 -3.54332e-11 -8.00952e-10 -2.00479e-09)
(3.20327e-10 2.88593e-11 5.67862e-10 -3.40922e-09 2.9294e-09 1.37469e-08)
(-4.29401e-09 6.10013e-09 2.58684e-10 2.77582e-08 1.50367e-09 -9.82492e-10)
(-2.72266e-10 1.67222e-10 2.08369e-09 -1.08372e-10 1.78138e-09 2.89261e-09)
(6.44376e-10 1.39517e-10 -1.31918e-09 -6.36457e-11 -3.48769e-10 9.35497e-09)
(-4.48814e-10 3.75563e-11 3.09738e-09 1.60567e-09 1.59332e-09 -2.72838e-09)
(1.73368e-10 4.72702e-12 4.57995e-10 1.66623e-10 9.97522e-10 1.20638e-08)
(1.13016e-09 2.08876e-10 -1.80107e-09 -1.9913e-10 -2.25632e-11 1.04975e-08)
(-6.59291e-10 -1.1399e-11 2.6769e-09 3.42409e-10 1.23452e-09 3.79218e-09)
(-4.46358e-09 6.38929e-09 -4.37058e-11 2.85918e-08 7.3222e-10 -7.04504e-10)
(-3.40364e-10 -4.30412e-10 -5.75453e-10 9.35832e-10 2.13514e-09 3.97165e-09)
(5.17712e-10 4.95267e-10 6.84114e-10 1.7508e-10 -4.99941e-10 7.54809e-09)
(1.32988e-10 -1.88795e-10 3.85554e-10 2.66614e-10 1.03312e-09 1.21069e-08)
(6.66084e-10 2.15593e-10 4.50828e-10 2.28606e-10 -3.96522e-10 5.86766e-09)
(7.15898e-10 3.73199e-10 1.16272e-09 5.99459e-11 -2.27447e-10 6.26768e-09)
(-1.44214e-09 2.89465e-09 -2.25245e-10 2.57818e-08 5.74257e-10 -5.57475e-10)
(9.32671e-10 1.14889e-10 -1.53213e-09 -7.83755e-11 -1.65631e-10 9.88508e-09)
(2.88896e-10 5.26406e-12 2.99076e-10 1.98656e-11 -1.71641e-11 6.09317e-09)
(5.85762e-10 -8.23797e-12 -9.68988e-10 5.10031e-12 -9.25418e-12 7.86394e-09)
(3.77724e-10 -3.11537e-11 4.7528e-11 2.76647e-12 -2.00127e-11 6.32334e-09)
(3.8604e-10 2.70611e-11 2.04745e-12 3.70662e-12 -8.30522e-12 6.43571e-09)
(2.88093e-10 4.69555e-12 2.92604e-10 9.72193e-12 -1.97765e-11 6.05859e-09)
(5.59154e-10 -3.29922e-12 -9.44885e-10 -5.58218e-13 -7.20796e-12 7.79343e-09)
(5.81781e-10 -8.07416e-12 -9.64603e-10 2.08734e-12 -1.18492e-12 7.86529e-09)
(2.43477e-10 3.27482e-13 4.737e-10 5.96958e-12 -6.02509e-11 5.68441e-09)
(5.57553e-10 -3.30729e-12 -9.42121e-10 -7.574e-13 -9.85242e-13 7.77816e-09)
(2.83457e-10 1.68009e-11 2.78093e-10 -2.5296e-11 -6.64857e-12 5.8417e-09)
(5.53645e-10 -1.2192e-11 -9.38159e-10 -3.40499e-11 -2.89861e-11 7.80339e-09)
(-5.30052e-10 -1.51864e-09 -2.87055e-09 -6.30312e-10 -2.92082e-09 5.95213e-09)
(3.74222e-10 1.69277e-11 7.68721e-11 -1.88068e-11 -3.76112e-11 6.29055e-09)
(2.83505e-10 3.08949e-11 2.94732e-10 -5.37087e-11 -3.34513e-11 5.9187e-09)
(-7.41534e-10 -3.06424e-09 -3.42062e-09 -2.14967e-09 -2.83308e-09 9.11623e-09)
(5.53761e-10 -2.95176e-11 -9.47718e-10 -6.27921e-11 -4.77743e-11 7.82756e-09)
(2.49063e-10 1.0362e-11 4.50066e-10 -1.53467e-11 -2.5478e-11 5.44923e-09)
(-2.90289e-06 8.68931e-08 7.89083e-08 -2.55499e-06 3.97775e-08 9.10994e-06)
(-2.35751e-09 -5.42621e-09 -5.48371e-09 -2.43284e-09 -4.31068e-09 9.68807e-09)
(-7.61926e-08 5.02132e-08 1.58997e-08 6.19929e-07 1.38655e-06 -3.23078e-06)
(8.4757e-07 8.39672e-08 9.97933e-07 1.58451e-06 -3.0998e-07 -3.91554e-06)
(-9.68194e-07 1.29782e-06 1.80361e-06 -1.66313e-06 1.36786e-06 5.3468e-06)
(-3.62729e-06 -2.29119e-07 9.95813e-08 -3.35095e-06 1.27819e-07 1.16255e-05)
(-2.43551e-06 1.53826e-06 3.16839e-06 -1.98468e-06 1.3188e-06 1.12537e-05)
(-3.49926e-06 7.07216e-08 2.09314e-07 -3.66939e-06 1.07025e-07 1.18074e-05)
(1.39204e-07 1.19453e-07 3.48449e-08 -1.07547e-06 2.9915e-07 2.6119e-06)
(6.25555e-08 6.00699e-08 1.43594e-06 -8.02331e-07 -4.02488e-07 1.17821e-06)
(-2.2207e-06 8.00349e-07 2.60695e-06 -2.4758e-06 1.26096e-07 1.28699e-05)
(-2.75996e-06 -2.70136e-07 9.47277e-09 -3.12726e-06 3.40828e-08 9.90687e-06)
(-2.16525e-06 -1.80356e-07 7.98168e-08 -2.40746e-06 -1.33062e-07 7.67975e-06)
(-2.85838e-06 8.32133e-08 8.85808e-08 -2.5183e-06 1.63844e-08 8.97339e-06)
(6.25413e-07 4.70896e-08 1.03362e-06 1.02825e-06 -1.90087e-07 -2.63792e-06)
(8.32259e-07 7.83304e-08 9.97759e-07 1.49817e-06 -2.86077e-07 -3.74121e-06)
(-2.22578e-06 4.99892e-08 1.61232e-07 -1.99179e-06 -1.47678e-07 7.02468e-06)
(-3.56582e-06 -2.23548e-07 8.92838e-08 -3.29732e-06 1.03808e-07 1.14329e-05)
(-2.69151e-06 -1.43662e-07 1.15067e-08 -2.52268e-06 -6.83315e-08 8.67716e-06)
(-3.44151e-06 6.71558e-08 1.96827e-07 -3.60585e-06 8.30297e-08 1.16069e-05)
(-5.84856e-08 3.34423e-08 1.30966e-06 -4.35862e-07 -2.80495e-07 6.90694e-07)
(2.18304e-08 5.59774e-08 1.43604e-06 -7.4742e-07 -3.78391e-07 1.12546e-06)
(-2.61184e-06 3.60354e-08 1.02904e-07 -2.70193e-06 -8.60151e-08 8.74842e-06)
(2.86109e-07 9.5696e-08 1.19397e-07 -8.59796e-07 4.75152e-07 1.05396e-06)
(6.66845e-07 -2.53203e-08 1.48086e-06 -5.69578e-07 -3.41778e-07 -1.38769e-07)
(1.03412e-06 -7.73134e-08 9.51346e-07 1.62514e-06 -1.05334e-07 -4.24956e-06)
(1.33645e-06 -1.09522e-07 8.94341e-07 2.32053e-06 -1.76884e-07 -5.87298e-06)
(3.88718e-07 -1.70422e-09 1.38987e-06 -2.0472e-07 -2.51234e-07 -3.79682e-07)
(6.07874e-07 -2.01402e-08 1.4941e-06 -5.10907e-07 -3.24824e-07 -1.66781e-07)
(-5.12361e-09 6.39354e-09 -5.34024e-11 2.80277e-08 -1.87506e-10 -9.87743e-12)
(-5.11005e-09 6.32696e-09 -4.34163e-11 2.78438e-08 -1.83403e-10 -1.46364e-12)
(-2.27165e-09 1.9844e-09 -2.13124e-11 2.51006e-08 -1.73866e-10 4.60485e-12)
(-1.58597e-06 2.88694e-08 1.75101e-07 -1.4423e-06 -1.82214e-07 5.02557e-06)
(5.93534e-07 4.37678e-08 1.03919e-06 9.70431e-07 -1.79947e-07 -2.49491e-06)
(-2.18492e-06 4.84198e-08 1.63217e-07 -1.95726e-06 -1.52384e-07 6.8978e-06)
(3.86104e-07 2.54226e-08 1.04197e-06 6.12491e-07 -1.14139e-07 -1.59506e-06)
(-1.84164e-06 -7.48109e-08 -1.18777e-08 -1.75325e-06 -1.1188e-07 5.96842e-06)
(-2.63587e-06 -1.38831e-07 9.11865e-09 -2.47281e-06 -7.35523e-08 8.50075e-06)
(-1.79754e-06 1.67454e-08 6.85203e-08 -1.82939e-06 -1.25394e-07 5.96521e-06)
(-5.46592e-08 3.08912e-08 1.28734e-06 -3.9939e-07 -2.6974e-07 6.27244e-07)
(-2.5587e-06 3.45631e-08 9.96877e-08 -2.64458e-06 -9.10059e-08 8.56615e-06)
(-1.25625e-08 1.68119e-08 1.12147e-06 -1.87899e-07 -1.97646e-07 2.46561e-07)
(-1.5172e-06 -9.72405e-08 9.61573e-08 -1.64674e-06 -1.71756e-07 5.28889e-06)
(-9.82923e-07 -4.58847e-08 8.69249e-08 -1.04178e-06 -1.5408e-07 3.35709e-06)
(-1.54719e-06 2.78322e-08 1.74582e-07 -1.40837e-06 -1.82178e-07 4.90349e-06)
(1.98702e-07 1.23821e-08 9.48978e-07 3.10204e-07 -4.92185e-08 -8.13825e-07)
(3.59489e-07 2.32979e-08 1.03629e-06 5.68263e-07 -1.05287e-07 -1.48219e-06)
(-9.95414e-07 1.47911e-08 1.56784e-07 -9.16821e-07 -1.60322e-07 3.15318e-06)
(-1.79199e-06 -7.13512e-08 -1.25357e-08 -1.70747e-06 -1.12593e-07 5.80835e-06)
(-1.10531e-06 -2.84239e-08 -1.46917e-08 -1.0694e-06 -1.02833e-07 3.5876e-06)
(-1.74956e-06 1.57639e-08 6.69648e-08 -1.77854e-06 -1.2579e-07 5.8019e-06)
(1.32487e-08 7.72133e-09 9.08531e-07 -3.73913e-08 -1.20908e-07 -5.00299e-09)
(-7.38365e-09 1.52187e-08 1.09624e-06 -1.63785e-07 -1.87608e-07 2.03868e-07)
(-1.08619e-06 4.05056e-09 5.2284e-08 -1.08144e-06 -1.11577e-07 3.55242e-06)
(3.74472e-07 -5.08969e-10 1.36479e-06 -1.718e-07 -2.42737e-07 -4.09421e-07)
(2.99496e-07 5.08024e-09 1.17149e-06 4.42184e-09 -1.8447e-07 -5.4999e-07)
(3.85392e-07 -2.4631e-08 9.2992e-07 5.29762e-07 -4.78018e-09 -1.46179e-06)
(6.38106e-07 -4.53058e-08 9.92257e-07 9.32182e-07 -4.30463e-08 -2.51022e-06)
(2.07823e-07 8.17808e-09 9.29032e-07 9.97356e-08 -1.20742e-07 -5.28322e-07)
(2.8902e-07 5.54148e-09 1.14221e-06 2.22971e-08 -1.76244e-07 -5.58094e-07)
(-5.10555e-09 6.0933e-09 -3.13275e-11 2.69845e-08 -1.71529e-10 -2.14932e-11)
(-5.10325e-09 6.0509e-09 -3.56054e-11 2.68427e-08 -1.82812e-10 -2.1528e-11)
(-2.3501e-09 1.72072e-09 -1.81056e-11 2.41535e-08 -1.73081e-10 -1.75597e-11)
(-4.98162e-07 7.18495e-09 1.1686e-07 -4.58793e-07 -1.10267e-07 1.55333e-06)
(1.79648e-07 1.13115e-08 9.2962e-07 2.80706e-07 -4.22826e-08 -7.36106e-07)
(-9.61019e-07 1.41665e-08 1.547e-07 -8.85665e-07 -1.57797e-07 3.04336e-06)
(7.41175e-08 6.6356e-09 7.45444e-07 1.23203e-07 -4.27692e-09 -3.12983e-07)
(-5.265e-07 -4.02854e-09 -8.58956e-09 -5.16391e-07 -6.89524e-08 1.68523e-06)
(-1.0641e-06 -2.6333e-08 -1.45001e-08 -1.03049e-06 -1.01214e-07 3.45308e-06)
(-5.22098e-07 -2.70484e-09 4.12264e-08 -5.00806e-07 -7.34453e-08 1.65465e-06)
(1.37821e-08 7.06086e-09 8.79732e-07 -2.51013e-08 -1.12126e-07 -2.23772e-08)
(-1.04619e-06 3.46621e-09 5.14784e-08 -1.03986e-06 -1.09668e-07 3.41724e-06)
(3.82619e-09 5.13736e-09 6.61072e-07 2.59891e-08 -5.85619e-08 -7.11078e-08)
(-4.68765e-07 -1.26652e-08 6.12745e-08 -4.80262e-07 -1.0432e-07 1.53428e-06)
(-1.49883e-07 -9.41996e-10 3.19422e-08 -1.43326e-07 -5.14854e-08 4.22924e-07)
(-4.71358e-07 6.91335e-09 1.13735e-07 -4.33706e-07 -1.06728e-07 1.46654e-06)
(1.05236e-08 5.76835e-09 4.35536e-07 3.36825e-08 1.32608e-08 -6.24289e-08)
(6.29296e-08 6.33875e-09 7.12266e-07 1.07224e-07 -4.83445e-10 -2.6896e-07)
(-1.50283e-07 4.46634e-09 6.21534e-08 -1.28714e-07 -5.17544e-08 4.18936e-07)
(-4.96521e-07 -3.19036e-09 -8.1592e-09 -4.87241e-07 -6.65142e-08 1.58569e-06)
(-1.47327e-07 3.7094e-09 -1.94324e-09 -1.43735e-07 -2.99535e-08 4.1746e-07)
(-4.92743e-07 -2.96425e-09 4.03868e-08 -4.70956e-07 -7.07631e-08 1.55626e-06)
(-2.05689e-08 6.12783e-09 3.69357e-07 3.06176e-08 -1.78082e-08 -2.79346e-08)
(9.69033e-10 5.13142e-09 6.27172e-07 2.90184e-08 -5.21923e-08 -6.95602e-08)
(-1.4927e-07 -5.12292e-09 2.55215e-08 -1.25454e-07 -3.13946e-08 4.1023e-07)
(1.94975e-07 8.32195e-09 8.9715e-07 1.04461e-07 -1.13282e-07 -5.12678e-07)
(1.02721e-07 8.79792e-09 6.62477e-07 1.02201e-07 -6.62071e-08 -3.46973e-07)
(5.28318e-08 4.60161e-09 4.4247e-07 5.94676e-08 2.42465e-08 -1.63357e-07)
(1.54847e-07 -4.95336e-09 7.13349e-07 1.94e-07 2.32647e-08 -5.49363e-07)
(1.22363e-08 7.70906e-09 3.65094e-07 5.48544e-08 -2.60991e-08 -1.17672e-07)
(8.97752e-08 8.71641e-09 6.27075e-07 9.78727e-08 -6.03275e-08 -3.17953e-07)
(-5.15855e-09 5.53315e-09 -8.93108e-11 2.52912e-08 -7.32057e-11 1.40743e-10)
(-5.20072e-09 5.4341e-09 -1.03455e-10 2.49388e-08 7.95936e-11 2.53572e-10)
(-2.63446e-09 1.05235e-09 -1.15846e-10 2.23842e-08 7.29892e-11 2.15738e-10)
(-2.59853e-08 3.78716e-09 -6.97754e-10 -9.57014e-09 1.46234e-09 2.56896e-08)
(6.47935e-09 5.76405e-09 3.90488e-07 2.79246e-08 1.32681e-08 -4.61094e-08)
(-1.35012e-07 4.42368e-09 5.82037e-08 -1.14051e-07 -4.82006e-08 3.68915e-07)
(-3.55172e-08 1.90753e-08 1.88756e-08 2.25949e-08 1.53425e-10 7.52231e-09)
(-1.01238e-08 -9.49921e-10 -4.46964e-09 -2.05085e-08 -3.02456e-10 2.44466e-08)
(-1.31402e-07 3.78575e-09 -1.77259e-09 -1.27744e-07 -2.77871e-08 3.6349e-07)
(-2.5608e-08 -3.17897e-09 -1.11209e-09 -8.52968e-09 -8.80646e-10 2.54413e-08)
(-2.30987e-08 6.21835e-09 3.29759e-07 2.91817e-08 -1.45515e-08 -2.0652e-08)
(-1.33489e-07 -5.1816e-09 2.39515e-08 -1.09788e-07 -2.90507e-08 3.57762e-07)
(-4.98881e-08 2.06634e-08 1.64546e-08 2.48053e-08 -4.34104e-10 1.26626e-08)
(3.696e-09 7.44597e-09 3.25866e-07 4.83897e-08 -2.24102e-08 -9.31591e-08)
(-4.07572e-08 2.12203e-08 1.63403e-08 2.23917e-08 -6.95108e-10 9.50392e-09)
(-1.12399e-09 1.27844e-09 1.53053e-09 -4.63186e-10 -3.71585e-10 -2.47734e-10)
(-1.06174e-08 -1.27939e-09 9.76412e-09 -7.25537e-09 -5.62257e-09 1.19974e-08)
(-1.68735e-09 2.44948e-09 6.20687e-09 -3.1108e-09 -4.48137e-09 1.52719e-10)
(1.07264e-08 1.43204e-09 2.46168e-10 1.29675e-08 -9.80675e-10 1.8794e-09)
(-4.23245e-10 4.93439e-10 1.65231e-09 3.66183e-09 4.17374e-09 3.69508e-09)
(-4.1818e-10 -6.70474e-10 2.12758e-09 -3.92429e-10 8.03064e-09 1.14028e-08)
(1.46238e-10 2.53256e-09 1.20862e-09 1.42371e-08 4.84139e-09 -1.77695e-10)
(5.44286e-09 -1.10885e-09 1.4804e-09 1.76335e-08 6.57831e-09 -2.42624e-09)
(6.55768e-10 5.25226e-11 3.49414e-09 1.11185e-09 4.90307e-09 4.40555e-09)
(1.28496e-09 3.31003e-09 1.32594e-09 1.21058e-08 3.89583e-09 -9.1474e-10)
(1.8843e-10 -3.76823e-11 5.29476e-10 3.56551e-11 -1.31872e-10 1.52893e-09)
(2.63976e-10 5.05622e-11 6.7776e-10 -2.10381e-11 -2.40598e-10 7.11103e-09)
(1.88152e-10 3.23771e-14 4.52467e-10 -1.78627e-11 -9.9902e-11 1.29889e-09)
(2.13985e-10 1.83358e-13 1.27298e-10 1.14112e-12 -3.90549e-12 -8.90488e-10)
(2.50566e-10 1.69237e-12 4.06864e-10 2.04834e-12 1.70246e-11 5.27247e-09)
(2.13397e-10 -6.14866e-14 1.24827e-10 9.81363e-13 3.8575e-12 -9.00056e-10)
(-3.50271e-10 7.17971e-10 1.35207e-09 -5.9805e-10 -7.97929e-10 9.64512e-10)
(1.28898e-08 1.00809e-08 1.52845e-08 -6.99309e-08 -1.55923e-07 3.42126e-08)
(-5.07519e-09 1.13664e-08 1.27143e-08 -2.77776e-08 -2.43974e-08 8.27175e-09)
(6.94089e-09 -1.13077e-10 -8.4241e-11 8.54296e-09 9.02563e-12 -8.58539e-11)
(2.61433e-09 2.66356e-09 3.33113e-12 1.60482e-08 -1.12614e-10 -4.0128e-11)
(2.62497e-10 -3.823e-09 -1.54124e-10 2.80103e-08 -4.21387e-10 3.65675e-11)
(-2.16637e-09 2.19016e-09 -4.74481e-11 2.5502e-08 -1.42188e-10 -9.005e-12)
(7.37627e-09 5.2138e-11 -3.64164e-11 8.92524e-09 6.63886e-11 -1.1363e-10)
(1.20594e-10 -3.76352e-09 -6.53788e-11 2.80324e-08 1.512e-10 -7.23792e-11)
(2.55521e-09 2.53917e-09 -5.4424e-11 1.58543e-08 -1.20461e-10 -1.17441e-11)
(6.32731e-09 -1.60443e-10 -7.91856e-13 7.88762e-09 -1.86505e-11 -1.03696e-11)
(2.25058e-09 1.98859e-09 1.23621e-11 1.50983e-08 -1.1467e-10 1.39699e-12)
(-2.68339e-10 -3.78757e-09 -1.34991e-11 2.72941e-08 -1.0322e-10 7.45078e-12)
(-2.32553e-09 1.81881e-09 -6.16618e-12 2.45249e-08 -1.48369e-10 -9.98769e-12)
(6.47156e-09 -1.03384e-10 6.31843e-12 8.03825e-09 -5.53889e-12 -3.30333e-12)
(-3.09648e-10 -3.78052e-09 -2.36816e-11 2.71478e-08 -7.67261e-11 -1.18612e-11)
(2.23794e-09 1.95652e-09 8.08161e-12 1.50111e-08 -1.13398e-10 -3.19393e-12)
(5.53818e-09 -2.49183e-10 -9.41026e-11 7.05808e-09 6.33499e-11 1.47513e-10)
(1.92816e-09 1.47421e-09 -2.25481e-11 1.42107e-08 -1.27688e-10 1.62242e-11)
(-6.07986e-10 -3.80619e-09 -7.58853e-11 2.61777e-08 -1.19322e-10 3.79609e-11)
(-2.45313e-09 1.40229e-09 -5.06738e-11 2.32324e-08 -1.79852e-10 2.72216e-11)
(5.8662e-09 -1.47714e-10 -4.5569e-11 7.39126e-09 3.42696e-11 6.87857e-11)
(-7.46056e-10 -3.82011e-09 -1.15769e-10 2.58083e-08 -1.08016e-10 1.30767e-10)
(1.84771e-09 1.34638e-09 -3.66248e-11 1.40384e-08 -1.07378e-10 3.56286e-11)
(4.68178e-09 2.04344e-10 -8.39147e-10 6.13246e-09 7.52492e-10 2.19433e-09)
(4.41699e-10 -6.10303e-11 -2.98076e-10 1.26971e-08 1.06268e-09 4.40903e-10)
(-2.11489e-09 -3.17171e-09 -8.34446e-10 2.29008e-08 9.11439e-10 2.80031e-09)
(-2.89633e-09 1.90561e-09 -3.72185e-10 1.88519e-08 2.43986e-09 1.68714e-09)
(4.55696e-09 -3.70722e-10 -8.3944e-10 6.12245e-09 8.96153e-10 1.14399e-09)
(-1.89633e-09 -1.30438e-09 -9.53245e-10 2.03985e-08 -2.54615e-10 4.23118e-09)
(1.5429e-10 3.4286e-10 6.94655e-11 1.20022e-08 1.46397e-09 7.09237e-10)
(1.21645e-09 1.00785e-09 1.68765e-09 7.90079e-09 2.42673e-09 7.51118e-10)
(1.3484e-10 2.36936e-09 3.27045e-09 3.37464e-09 2.82535e-09 2.01553e-09)
(-7.15745e-10 1.50862e-11 3.33088e-09 -3.24345e-10 8.45611e-09 1.14464e-08)
(-2.30663e-09 3.74873e-09 1.83316e-09 1.50627e-08 4.86502e-09 9.27508e-11)
(2.94045e-09 -3.78895e-09 2.86697e-09 2.02521e-08 7.29199e-09 -2.22433e-09)
(-3.56573e-11 3.35394e-10 3.89998e-09 7.96276e-10 4.33467e-09 4.11659e-09)
(-2.05745e-09 7.27472e-09 3.54309e-09 1.00478e-08 3.3956e-09 8.13079e-10)
(2.48413e-10 2.79352e-10 5.56405e-10 -1.41272e-09 1.69641e-09 8.26844e-09)
(3.80699e-10 -6.2967e-12 8.90146e-11 -2.13912e-10 3.10487e-11 1.17021e-08)
(2.2218e-10 -1.7929e-10 2.43402e-10 -5.22068e-10 9.22272e-10 1.10047e-08)
(2.21276e-09 2.12314e-09 2.69754e-10 7.92194e-09 -1.93093e-10 -8.61174e-10)
(-5.04378e-09 6.86919e-09 -2.61296e-12 2.91788e-08 6.61436e-11 -2.73584e-10)
(-5.51586e-09 1.38222e-08 -2.1661e-10 1.80046e-08 4.09794e-11 -1.04133e-10)
(-2.05325e-09 -1.43526e-09 -3.45445e-10 3.15823e-08 -5.85573e-10 -1.59178e-10)
(-1.84375e-09 -9.87261e-10 -2.16578e-11 3.2456e-08 4.11665e-10 -6.9518e-10)
(2.27139e-09 1.77148e-09 -2.60539e-10 8.08615e-09 2.94359e-12 -2.25257e-10)
(-5.47059e-09 1.38815e-08 1.1451e-10 1.8088e-08 3.36389e-11 -1.65453e-10)
(2.84452e-10 -3.30954e-10 -3.33796e-10 4.15274e-10 -3.73558e-10 -1.78221e-09)
(-4.08653e-10 3.55867e-10 -9.12125e-11 -1.61057e-10 1.44875e-09 -8.73561e-10)
(5.76206e-10 6.05356e-11 -1.0227e-09 3.2877e-10 1.31297e-09 -2.29714e-10)
(-3.99325e-10 6.33816e-10 1.65132e-09 -1.70539e-10 1.04999e-10 1.00461e-08)
(1.77209e-10 -7.52528e-11 6.00797e-10 3.44608e-11 -2.32904e-10 2.02536e-09)
(2.81908e-10 2.75813e-11 1.297e-09 -3.73537e-10 -1.15899e-10 5.51502e-09)
(7.34889e-09 -2.11456e-10 -2.00221e-10 9.2578e-09 1.60632e-11 -3.20217e-10)
(-2.15467e-09 2.51039e-09 -1.27343e-10 2.66204e-08 2.81231e-11 -2.63961e-10)
(2.60649e-09 2.6287e-09 3.08211e-11 1.6291e-08 -6.46514e-11 -7.70664e-11)
(2.0506e-10 -3.74675e-09 -2.25511e-10 2.85903e-08 -6.62363e-10 -1.05307e-10)
(7.27288e-09 -4.57492e-11 -3.40664e-11 8.89097e-09 6.08931e-11 -1.47889e-10)
(4.08709e-10 -3.32835e-09 -1.91969e-10 2.9829e-08 4.1625e-10 -7.17591e-10)
(2.64924e-09 2.72401e-09 -1.47538e-10 1.65422e-08 -4.00264e-12 -1.27639e-10)
(3.65614e-10 3.88386e-11 7.95615e-11 -1.09987e-10 -1.26649e-10 1.12361e-08)
(3.12172e-10 3.7155e-12 4.8778e-10 -3.15994e-11 -1.54301e-10 7.62554e-09)
(2.86274e-10 -2.91306e-12 2.74753e-10 1.07932e-12 -8.76337e-11 1.01579e-08)
(2.85697e-10 3.90132e-12 2.68055e-10 3.18625e-12 -1.39614e-11 5.84143e-09)
(2.54735e-10 -6.12176e-13 5.19818e-11 4.48586e-12 -8.71784e-12 8.96432e-09)
(2.56674e-10 -2.62028e-12 6.16647e-11 2.90333e-12 -1.28677e-11 9.06901e-09)
(2.49956e-10 2.51937e-12 4.28326e-10 1.74442e-12 -3.94614e-11 5.42964e-09)
(2.14704e-10 -8.56338e-13 1.29578e-10 8.72875e-13 -1.62738e-12 -8.85631e-10)
(2.18111e-10 -1.03502e-12 1.50057e-10 1.3966e-12 -1.0133e-11 -7.97546e-10)
(2.5413e-10 7.02436e-13 5.07135e-11 3.83872e-12 -4.26062e-12 8.94492e-09)
(2.82706e-10 2.36927e-12 2.54407e-10 1.81036e-12 4.8365e-12 5.70092e-09)
(2.5337e-10 1.2033e-12 5.08588e-11 1.85689e-12 2.94037e-13 8.93889e-09)
(2.8451e-10 4.58248e-10 5.9438e-10 -8.54825e-10 -6.48795e-10 6.78423e-09)
(2.42284e-09 -1.41466e-09 -1.15109e-09 -1.01186e-08 -9.80502e-09 1.44383e-08)
(5.38366e-10 -4.32744e-11 3.84272e-11 -1.41451e-09 -1.31793e-09 1.02033e-08)
(2.05482e-10 2.16822e-10 8.00433e-10 -3.27319e-10 -6.4009e-10 6.01683e-09)
(-1.81332e-10 4.93571e-10 1.02905e-09 -4.01e-10 -5.0522e-10 6.43115e-10)
(1.84766e-10 4.16235e-11 2.70735e-10 -2.22367e-11 -1.10446e-11 -4.21034e-10)
(4.30481e-09 -3.52725e-09 -2.90902e-09 -1.91365e-08 -1.87809e-08 1.88652e-08)
(-4.67878e-09 5.10204e-08 1.61384e-08 -7.70797e-08 -8.44274e-08 9.49999e-08)
(1.35158e-08 -3.39434e-08 -2.50091e-08 -1.31891e-07 -1.3919e-07 6.91989e-08)
(2.12392e-09 1.72637e-09 -1.77975e-11 7.80054e-09 -9.74507e-11 -8.53988e-11)
(-5.37636e-09 1.34146e-08 -1.61352e-10 1.80122e-08 -9.93646e-11 -1.28928e-10)
(-1.98922e-09 -1.55363e-09 -2.49998e-10 3.10694e-08 -4.13622e-10 -2.27899e-11)
(-5.04753e-09 6.4702e-09 -2.68705e-11 2.82714e-08 -1.63606e-10 -2.4399e-11)
(-2.12468e-09 -1.47229e-09 -1.74333e-11 3.09582e-08 1.04794e-10 -6.34081e-11)
(2.49972e-09 1.59747e-09 -1.93272e-10 8.23752e-09 -1.15618e-11 -1.21371e-10)
(-5.40145e-09 1.33461e-08 1.01651e-11 1.77906e-08 -2.07926e-10 -3.83981e-11)
(1.86266e-09 1.68855e-09 -2.26105e-11 7.50173e-09 -4.96813e-11 -3.28439e-12)
(-5.12632e-09 6.25778e-09 -2.61938e-11 2.76047e-08 -1.5828e-10 -3.95246e-12)
(-5.4736e-09 1.31299e-08 -4.37502e-11 1.71027e-08 -1.41392e-10 4.32472e-12)
(-2.42461e-09 -1.49549e-09 -3.74469e-11 3.02383e-08 -1.21201e-10 3.94856e-12)
(-2.39276e-09 -1.4819e-09 -4.32852e-11 3.04419e-08 -6.75126e-11 -3.60934e-12)
(1.83658e-09 1.65826e-09 -6.6977e-11 7.44254e-09 -5.12952e-11 -8.35437e-13)
(-5.47986e-09 1.31814e-08 -4.04524e-11 1.71796e-08 -1.42217e-10 1.46138e-11)
(6.59184e-09 -9.69801e-11 -8.8968e-12 8.17209e-09 2.30516e-12 -8.67637e-12)
(-2.31136e-09 1.89946e-09 -1.51939e-11 2.48849e-08 -1.50572e-10 -3.77802e-12)
(2.26802e-09 2.0212e-09 4.89166e-12 1.51894e-08 -1.1504e-10 2.91075e-12)
(-2.57387e-10 -3.78997e-09 -2.46238e-11 2.73701e-08 -1.14649e-10 4.31712e-12)
(6.43886e-09 -1.46872e-10 2.44319e-12 8.01204e-09 -2.02007e-11 -1.06183e-11)
(-2.07714e-10 -3.78713e-09 -2.94802e-11 2.75683e-08 -5.57308e-11 -9.22977e-12)
(2.29762e-09 2.06867e-09 -4.22374e-12 1.52799e-08 -1.16415e-10 3.62957e-12)
(1.75767e-09 1.65193e-09 -6.09237e-11 7.32775e-09 -5.19618e-11 -2.50703e-11)
(-5.46049e-09 1.3073e-08 -4.61992e-11 1.70182e-08 -1.39516e-10 -8.71992e-13)
(-2.43149e-09 -1.49544e-09 -3.71679e-11 3.0158e-08 -1.15616e-10 7.33246e-12)
(-5.11128e-09 6.16119e-09 -2.15436e-11 2.72287e-08 -1.56987e-10 -1.19509e-11)
(-2.46494e-09 -1.49403e-09 -3.06933e-11 2.99967e-08 -8.2394e-11 -9.73941e-12)
(1.8354e-09 1.6526e-09 -2.61977e-11 7.43144e-09 -4.71543e-11 2.31271e-12)
(-5.4582e-09 1.30367e-08 -2.98699e-11 1.6923e-08 -1.48811e-10 -8.90225e-13)
(1.59525e-09 1.60484e-09 -4.32837e-11 7.09513e-09 -6.40877e-11 -1.97607e-11)
(-5.10433e-09 5.94888e-09 -4.56194e-11 2.65257e-08 -2.01897e-10 -1.83168e-11)
(-5.44106e-09 1.26956e-08 -6.31179e-11 1.62774e-08 -1.92727e-10 -9.17519e-13)
(-2.66569e-09 -1.55737e-09 -8.58471e-11 2.90947e-08 -1.31487e-10 1.93153e-11)
(-2.59554e-09 -1.53106e-09 -7.3384e-11 2.93792e-08 -1.23083e-10 -1.14789e-11)
(1.49385e-09 1.58186e-09 -8.5468e-11 6.95211e-09 -7.66669e-11 1.33889e-11)
(-5.44459e-09 1.27727e-08 -6.55413e-11 1.64114e-08 -1.79413e-10 -5.42765e-12)
(6.07056e-09 -1.34672e-10 -1.96063e-11 7.6077e-09 1.30534e-11 1.92453e-11)
(-2.38018e-09 1.62329e-09 -2.59906e-11 2.38495e-08 -1.89659e-10 -1.45923e-11)
(1.99474e-09 1.58042e-09 -1.63215e-11 1.43635e-08 -1.34366e-10 4.6792e-12)
(-5.7213e-10 -3.80058e-09 -7.45063e-11 2.6282e-08 -1.17862e-10 2.08454e-11)
(5.82644e-09 -2.12315e-10 -4.31112e-11 7.3591e-09 1.69696e-11 4.70437e-11)
(-4.83556e-10 -3.78958e-09 -5.04442e-11 2.65569e-08 -1.08529e-10 -9.91686e-12)
(2.05093e-09 1.6695e-09 -9.51251e-12 1.44985e-08 -1.35309e-10 -1.53776e-12)
(1.3128e-09 1.54802e-09 -7.70411e-11 6.71227e-09 -7.01607e-11 1.44699e-10)
(-5.43952e-09 1.26106e-08 -7.98261e-11 1.61209e-08 -1.85272e-10 1.50781e-11)
(-2.69433e-09 -1.56579e-09 -9.89152e-11 2.89859e-08 -1.38507e-10 3.68277e-11)
(-5.11738e-09 5.72734e-09 -6.81544e-11 2.5881e-08 -1.95438e-10 2.70375e-11)
(-2.80976e-09 -1.60048e-09 -1.21985e-10 2.86047e-08 -1.27095e-10 1.34362e-10)
(1.4776e-09 1.57233e-09 -5.02482e-11 6.93373e-09 -6.994e-11 2.8731e-11)
(-5.4385e-09 1.25142e-08 -7.66878e-11 1.59419e-08 -1.76769e-10 3.86176e-11)
(2.05652e-10 1.47069e-09 2.25317e-10 5.43537e-09 2.25061e-10 1.82948e-09)
(-5.32668e-09 5.29983e-09 -1.70913e-10 2.40693e-08 7.57417e-10 6.73734e-10)
(-5.67111e-09 1.20989e-08 -1.45219e-10 1.3779e-08 1.68272e-09 1.40328e-09)
(-4.1018e-09 -1.26156e-09 -6.82478e-10 2.55249e-08 7.38496e-10 2.89901e-09)
(-3.6827e-09 -1.57276e-09 -3.52967e-10 2.67527e-08 3.09038e-10 1.54866e-09)
(-1.21175e-09 1.52903e-09 4.57581e-10 3.84582e-09 6.20973e-10 4.80832e-09)
(-5.57974e-09 1.21e-08 -8.61939e-11 1.44166e-08 8.85063e-10 8.287e-10)
(4.73863e-09 -2.97119e-10 -4.97329e-10 6.24762e-09 4.72966e-10 7.44309e-10)
(-2.85236e-09 8.22116e-10 -2.07376e-10 2.17664e-08 6.39638e-10 4.97143e-10)
(7.83719e-10 6.14338e-11 -2.9241e-10 1.29734e-08 8.1368e-10 3.63522e-10)
(-2.06642e-09 -3.43599e-09 -7.30659e-10 2.32845e-08 8.50718e-10 2.41389e-09)
(4.44465e-09 -4.82618e-10 -8.12491e-10 5.99356e-09 8.40476e-10 1.06273e-09)
(-1.67345e-09 -3.78206e-09 -4.23677e-10 2.41686e-08 3.73698e-10 1.3746e-09)
(1.04143e-09 2.70872e-10 -2.39264e-10 1.30933e-08 5.34845e-10 3.10599e-10)
(-5.12358e-09 1.28191e-09 -4.14329e-10 -6.40671e-10 -6.38584e-11 1.42739e-08)
(-5.80803e-09 1.21858e-08 -3.49013e-10 1.25522e-08 2.9998e-09 2.56054e-09)
(-4.16674e-09 -1.0415e-09 -8.77065e-10 2.49426e-08 7.62225e-10 3.46579e-09)
(-5.11693e-09 6.30937e-09 -1.16574e-09 1.90826e-08 3.73755e-09 3.2353e-09)
(-3.8931e-09 4.0178e-10 -1.49386e-09 2.1509e-08 -6.66868e-10 5.62678e-09)
(-1.54367e-09 1.50436e-09 5.2454e-10 3.52553e-09 6.52964e-10 5.56104e-09)
(-5.61013e-09 1.24014e-08 -1.07193e-09 9.93241e-09 5.50581e-09 4.86396e-09)
(-5.30588e-10 9.3567e-10 1.00253e-09 -7.6527e-10 -5.79822e-10 -5.15595e-10)
(-7.94681e-10 6.1155e-10 1.94205e-09 5.43071e-11 -2.29652e-10 -8.46982e-10)
(-1.6884e-09 1.95414e-09 4.93926e-09 -1.46422e-09 -3.23825e-09 -9.9929e-10)
(-9.67237e-09 2.98474e-09 1.26104e-08 -9.32047e-09 -3.94458e-09 1.4419e-08)
(-4.62289e-09 6.29642e-09 1.008e-08 -5.85658e-09 -5.49394e-09 7.51045e-09)
(-1.17474e-09 4.49641e-10 2.41596e-09 5.34149e-10 -1.50452e-10 -1.03402e-09)
(-2.39994e-09 4.1768e-09 1.01096e-08 2.10836e-08 -3.12416e-08 -4.8083e-08)
(-4.03045e-09 3.92655e-09 6.30008e-09 -2.15784e-09 -3.70565e-09 1.77578e-09)
(-2.09452e-10 -2.48758e-10 5.61786e-11 1.59295e-09 2.49463e-09 2.96182e-09)
(-1.15316e-09 -1.97081e-10 -4.65618e-10 -4.94216e-10 1.09125e-09 1.67875e-08)