/*--------------------------------*- C++ -*----------------------------------*\
| =========                 |                                                 |
| \\      /  F ield         | OpenFOAM: The Open Source CFD Toolbox           |
|  \\    /   O peration     | Version:  2012                                  |
|   \\  /    A nd           | Website:  www.openfoam.com                      |
|    \\/     M anipulation  |                                                 |
\*---------------------------------------------------------------------------*/
FoamFile
{
    version     2.0;
    format      ascii;
    class       pointVectorField;
    location    "0.104/solid";
    object      pointD;
}
// * * * * * * * * * * * * * * * * * * * * * * * * * * * * * * * * * * * * * //

dimensions      [0 1 0 0 0 0 0];


internalField   nonuniform List<vector> 
37794
(
(-3.07818e-11 -3.71917e-11 -1.61246e-11)
(2.26931e-13 -1.65052e-13 -3.32682e-13)
(-2.98328e-12 2.57866e-13 -2.3242e-12)
(-4.54309e-12 -7.9362e-14 -1.78649e-12)
(-2.66805e-12 -1.95015e-11 -1.65017e-11)
(2.26874e-11 9.73297e-12 -3.25957e-12)
(2.09237e-11 9.24429e-12 -1.52385e-12)
(1.95998e-11 8.44012e-12 -2.53546e-12)
(1.33485e-11 1.02417e-11 -6.26947e-12)
(7.30482e-07 -1.27918e-06 8.5576e-07)
(4.73078e-06 -1.10736e-05 2.0141e-06)
(1.0764e-05 -2.49837e-05 2.50981e-06)
(1.73649e-05 -3.94974e-05 2.78828e-06)
(-4.6246e-12 -7.38609e-13 6.36278e-12)
(-5.61707e-13 9.13231e-13 -1.72645e-11)
(8.51547e-13 1.61399e-12 -2.92312e-12)
(2.79843e-11 8.76668e-12 1.35798e-11)
(8.86126e-12 -2.5774e-12 5.09153e-13)
(-4.38873e-12 -2.40202e-13 -1.77661e-12)
(1.05296e-11 -6.07999e-14 -8.84199e-13)
(-4.53121e-12 1.33757e-13 -1.84534e-12)
(6.44104e-12 -7.14787e-12 -4.80001e-12)
(-5.18449e-09 1.1345e-08 2.31671e-09)
(2.15037e-11 9.60138e-12 -1.99978e-12)
(2.29796e-06 -5.69563e-06 -2.85642e-07)
(2.05325e-11 8.90603e-12 -1.74199e-12)
(7.56896e-06 -1.81861e-05 -4.41376e-07)
(1.77506e-11 7.95745e-12 -3.41389e-12)
(1.40505e-05 -3.24985e-05 -4.8862e-07)
(6.44049e-07 -1.55023e-06 -1.5449e-07)
(2.36528e-06 -5.28996e-06 1.52634e-06)
(4.68312e-06 -1.14872e-05 -3.79703e-07)
(7.59899e-06 -1.78226e-05 2.33396e-06)
(1.07481e-05 -2.52821e-05 -4.75378e-07)
(1.40567e-05 -3.22505e-05 2.57714e-06)
(1.73582e-05 -3.97355e-05 -4.89541e-07)
(1.50883e-11 -1.32788e-12 2.70819e-12)
(1.04176e-11 -7.21705e-14 -8.03858e-13)
(1.07617e-11 -5.96326e-14 -1.00134e-12)
(7.2614e-09 5.9302e-09 6.04203e-09)
(-4.57799e-13 -6.30462e-12 -9.98447e-13)
(-9.16502e-12 5.58505e-13 -1.38377e-12)
(5.73991e-11 5.42206e-12 3.10202e-11)
(-5.56132e-12 -1.58807e-11 -1.78287e-12)
(-4.28042e-12 -1.76537e-11 -1.75546e-11)
(7.61282e-13 -7.89431e-12 1.40376e-11)
(2.45181e-11 2.78006e-11 6.12729e-11)
(5.07666e-13 -1.81617e-12 1.91437e-12)
(-2.26034e-12 -1.18229e-12 3.34453e-12)
(1.74942e-12 -9.99949e-12 -1.32284e-11)
(-4.6343e-12 -2.19826e-12 1.96872e-12)
(-1.39926e-13 -1.00904e-12 1.97335e-12)
(-4.04333e-12 -2.13376e-12 -1.73613e-12)
(-4.53897e-12 -1.93296e-13 -1.79498e-12)
(-4.12324e-12 -1.5357e-13 1.11019e-12)
(3.76603e-13 -1.72219e-14 2.50272e-12)
(-4.54588e-12 4.91856e-14 -1.78873e-12)
(-4.09713e-12 -8.29487e-13 -2.57698e-12)
(-1.02162e-11 -4.36322e-11 -3.19645e-11)
(2.06612e-12 -8.61564e-13 2.08115e-12)
(-1.03383e-10 9.72096e-11 -5.67408e-10)
(2.48836e-11 1.06046e-11 1.61119e-12)
(4.03066e-11 -3.5006e-11 5.89808e-13)
(-3.26897e-11 -1.85032e-12 -7.71881e-13)
(2.38967e-10 1.11815e-09 -8.19536e-12)
(2.20288e-11 9.91343e-12 -1.88935e-12)
(2.12003e-11 9.45407e-12 -1.513e-12)
(3.92558e-11 -3.42805e-11 -3.63553e-13)
(-3.16049e-11 -2.83446e-12 -4.59954e-13)
(2.1513e-10 1.07464e-09 -7.2505e-12)
(2.08328e-11 9.09956e-12 -1.4842e-12)
(2.01373e-11 8.68275e-12 -2.05408e-12)
(3.79938e-11 -3.35014e-11 -6.64756e-13)
(-3.02374e-11 -3.55144e-12 -9.42764e-13)
(1.9601e-10 1.03025e-09 -7.99898e-12)
(1.88519e-11 8.1781e-12 -3.06591e-12)
(1.62101e-11 8.0557e-12 -3.48128e-12)
(3.03349e-11 -2.82422e-11 1.19296e-12)
(-3.17469e-11 -6.30373e-12 -3.21746e-12)
(1.48508e-10 9.15422e-10 1.23454e-10)
(3.50215e-12 4.61955e-12 -1.11075e-11)
(6.54626e-07 -1.47882e-06 3.33921e-07)
(1.44183e-06 -3.00317e-06 1.2147e-06)
(2.58821e-07 -2.5644e-07 4.4639e-07)
(7.00188e-07 -1.55171e-06 -6.43956e-07)
(3.47128e-06 -8.01637e-06 1.79228e-06)
(4.69031e-06 -1.13067e-05 8.04031e-07)
(6.1156e-06 -1.43682e-05 2.19378e-06)
(4.71148e-06 -1.16313e-05 -1.56109e-06)
(9.15598e-06 -2.13761e-05 2.43795e-06)
(1.07512e-05 -2.51366e-05 1.00991e-06)
(1.24031e-05 -2.86146e-05 2.55433e-06)
(1.07565e-05 -2.5421e-05 -1.95973e-06)
(1.57123e-05 -3.58824e-05 2.58493e-06)
(1.73607e-05 -3.96229e-05 1.04755e-06)
(1.73582e-05 -3.98446e-05 -2.02722e-06)
(2.10295e-12 9.82424e-13 1.19408e-12)
(-1.57305e-11 -8.16621e-11 -5.63589e-12)
(-8.36165e-12 2.4613e-12 5.50852e-13)
(4.99363e-12 8.45918e-13 -9.28505e-13)
(-3.61109e-12 -1.44027e-11 -3.77391e-12)
(2.38285e-10 1.07629e-09 2.71366e-11)
(4.21835e-11 -3.52125e-11 1.04701e-11)
(-3.02509e-11 1.2854e-12 9.66405e-13)
(2.07011e-11 4.25028e-12 -1.17805e-11)
(-2.86499e-12 1.6868e-12 -6.05705e-12)
(9.78632e-12 -5.60334e-13 -5.97944e-13)
(-3.42076e-12 -5.06969e-13 1.19224e-12)
(5.12791e-13 -1.38298e-13 2.67334e-12)
(1.05525e-11 -7.0816e-14 -8.65735e-13)
(1.05735e-11 -7.09159e-15 -9.07565e-13)
(-3.99445e-12 1.84644e-13 9.42654e-13)
(3.67883e-13 4.65495e-14 2.51336e-12)
(1.08634e-11 -1.05147e-12 -1.5466e-12)
(-4.48139e-11 2.20865e-10 2.87817e-11)
(1.68857e-07 -3.64146e-07 -7.05462e-08)
(-4.28718e-09 1.10139e-08 -3.19048e-09)
(-2.08117e-09 6.5392e-09 2.16124e-09)
(2.23335e-10 1.09294e-09 -8.60734e-12)
(3.97005e-11 -3.4561e-11 -2.90142e-13)
(-3.21421e-11 -2.43461e-12 -6.91694e-13)
(1.36459e-06 -3.36397e-06 -2.25213e-07)
(2.30765e-06 -5.53979e-06 6.05393e-07)
(2.33889e-06 -5.78835e-06 -1.17388e-06)
(3.41394e-06 -8.43659e-06 -3.36949e-07)
(2.08377e-10 1.05599e-09 -7.77462e-12)
(3.8734e-11 -3.39758e-11 -4.611e-13)
(-3.083e-11 -3.02986e-12 -6.52172e-13)
(6.07711e-06 -1.47609e-05 -4.14343e-07)
(7.57383e-06 -1.8016e-05 9.35598e-07)
(7.58627e-06 -1.83395e-05 -1.81666e-06)
(9.13357e-06 -2.17068e-05 -4.61463e-07)
(1.72849e-10 9.87686e-10 7.54008e-12)
(3.64492e-11 -3.25048e-11 -7.86879e-13)
(-2.94423e-11 -4.58478e-12 -1.51444e-12)
(1.23927e-05 -2.88846e-05 -4.84059e-07)
(1.40523e-05 -3.23754e-05 1.04124e-06)
(1.40529e-05 -3.2618e-05 -2.01829e-06)
(1.57093e-05 -3.61173e-05 -4.90362e-07)
(1.69649e-10 8.40907e-10 1.12603e-10)
(2.27566e-07 -3.46754e-07 -3.2432e-07)
(2.30506e-10 1.1056e-09 -4.66451e-12)
(3.44839e-06 -8.56114e-06 -1.3848e-06)
(2.12251e-10 1.06583e-09 -6.9634e-12)
(9.14608e-06 -2.18547e-05 -1.90072e-06)
(1.86117e-10 1.01141e-09 -4.61335e-12)
(1.57095e-05 -3.62293e-05 -2.02702e-06)
(2.02876e-10 7.48753e-10 2.639e-10)
(2.55955e-10 1.15014e-09 1.4888e-11)
(1.76755e-07 -3.60443e-07 1.71786e-07)
(1.37518e-06 -3.24131e-06 4.78987e-07)
(1.41267e-06 -3.41312e-06 -9.27184e-07)
(2.18818e-10 1.08419e-09 -6.79555e-12)
(3.42241e-06 -8.26255e-06 7.13541e-07)
(6.08309e-06 -1.45826e-05 8.7769e-07)
(6.09973e-06 -1.49139e-05 -1.70433e-06)
(2.03194e-10 1.04457e-09 -8.24747e-12)
(9.13744e-06 -2.15483e-05 9.79119e-07)
(1.2395e-05 -2.87514e-05 1.02987e-06)
(1.23976e-05 -2.90134e-05 -1.99747e-06)
(1.57289e-10 9.59084e-10 4.17341e-11)
(1.57106e-05 -3.6001e-05 1.04643e-06)
(-9.9001e-13 4.8604e-12 -1.45929e-11)
(9.72133e-12 6.50383e-12 -1.00749e-12)
(2.08813e-13 -5.43928e-13 2.78699e-12)
(3.74435e-13 8.96422e-15 2.50176e-12)
(2.67897e-11 -1.07644e-10 -3.08854e-11)
(2.62111e-12 4.65229e-12 -3.08227e-12)
(4.69882e-12 -1.766e-12 5.10491e-13)
(-3.94094e-12 -3.07743e-13 1.14804e-12)
(-9.83545e-13 -1.74801e-12 1.23973e-12)
(-3.90333e-12 -2.56823e-12 -1.16426e-12)
(-4.12335e-12 1.10638e-13 1.08818e-12)
(-1.1742e-10 -9.43293e-10 -5.99842e-10)
(-8.31239e-14 1.82786e-12 2.18469e-12)
(-1.08681e-11 6.11113e-12 3.40638e-13)
(3.93204e-13 -5.20731e-14 2.53992e-12)
(4.58941e-13 1.13511e-13 2.5444e-12)
(-1.64992e-12 1.18159e-11 1.93385e-11)
(-3.25198e-11 -2.08341e-12 -9.63376e-13)
(-3.10914e-11 -2.87563e-12 -4.7611e-13)
(-2.9799e-11 -3.95014e-12 -1.19885e-12)
(-2.13317e-11 -7.89114e-13 -4.24642e-12)
(4.44122e-11 -2.02282e-11 2.04939e-12)
(4.19795e-11 -3.5675e-11 -1.31398e-12)
(4.01209e-11 -3.48234e-11 -1.14461e-12)
(3.94973e-11 -3.44603e-11 -5.50592e-13)
(3.90058e-11 -3.41561e-11 -4.33488e-13)
(3.84203e-11 -3.37826e-11 -5.59423e-13)
(3.74057e-11 -3.31037e-11 -7.73366e-13)
(3.46985e-11 -3.14852e-11 -4.68837e-13)
(1.22541e-11 -1.07408e-11 5.17056e-12)
(-3.29204e-11 -1.27203e-12 -1.55889e-12)
(-3.19439e-11 -2.67931e-12 -6.17126e-13)
(-3.05906e-11 -3.26448e-12 -7.62355e-13)
(-2.98737e-11 -5.59355e-12 -1.89921e-12)
(1.60688e-10 -8.59227e-13 5.44355e-11)
(6.45093e-11 1.51826e-10 1.31185e-10)
(1.25356e-10 3.9633e-10 -5.86416e-12)
(1.04528e-10 3.78819e-10 -5.23027e-12)
(8.50702e-11 3.57634e-10 -6.50904e-12)
(4.56769e-11 3.18802e-10 6.32883e-11)
(1.50184e-10 1.5764e-10 9.86195e-11)
(3.86656e-10 4.81813e-10 4.67034e-13)
(-6.61982e-12 9.09833e-12 -5.50029e-11)
(1.31484e-10 4.13294e-10 -2.66923e-12)
(3.69828e-10 4.72499e-10 -6.02808e-12)
(3.6096e-10 4.57214e-10 -5.76884e-12)
(1.06978e-10 3.83106e-10 -5.41831e-12)
(3.57868e-10 4.52727e-10 -5.7591e-12)
(3.47011e-10 4.37989e-10 -7.41885e-12)
(9.25045e-11 3.64676e-10 -6.76756e-12)
(3.40924e-10 4.30674e-10 -7.20254e-12)
(3.19402e-10 3.91597e-10 4.65511e-11)
(4.28396e-11 3.31408e-10 2.75824e-11)
(3.19117e-10 3.45044e-10 1.48503e-10)
(4.67964e-11 -2.09758e-11 -1.21306e-11)
(1.26621e-10 4.50575e-12 -7.19341e-11)
(4.13194e-11 7.95563e-12 1.66436e-10)
(3.66264e-11 1.15268e-10 3.02248e-10)
(1.72967e-10 3.96708e-10 5.61866e-11)
(1.67832e-11 1.9811e-11 2.85752e-10)
(1.16202e-10 3.92832e-10 -6.13626e-12)
(1.01852e-10 3.74901e-10 -5.63299e-12)
(7.43285e-11 3.48818e-10 -3.59186e-12)
(1.3983e-10 2.23744e-10 1.37248e-10)
(7.57781e-11 1.01083e-11 -4.64017e-11)
(4.68505e-12 1.27434e-10 2.9178e-10)
(3.47053e-10 4.53277e-10 6.89856e-11)
(1.34502e-11 1.36017e-11 4.46255e-11)
(1.17065e-10 2.69903e-10 -4.94029e-11)
(8.20937e-12 3.28711e-11 1.732e-10)
(1.66668e-11 2.00469e-11 1.2025e-10)
(3.65197e-10 4.84237e-10 2.14172e-11)
(-2.704e-12 2.44667e-12 7.75238e-11)
(1.72001e-11 2.14365e-11 1.53966e-10)
(1.00833e-11 8.077e-11 1.37868e-10)
(1.29518e-12 2.52987e-11 7.28023e-11)
(7.94455e-11 1.51381e-11 6.89651e-11)
(1.55339e-10 4.10073e-10 1.27341e-11)
(3.69086e-10 4.66896e-10 -6.51396e-12)
(3.63231e-10 4.61296e-10 -6.38518e-12)
(1.11252e-10 3.86676e-10 -5.84798e-12)
(3.55241e-10 4.48597e-10 -6.02472e-12)
(3.51586e-10 4.43711e-10 -6.79368e-12)
(9.7871e-11 3.70212e-10 -6.27895e-12)
(3.3329e-10 4.21193e-10 -3.64155e-12)
(3.25216e-10 4.08885e-10 9.37902e-12)
(5.92277e-11 3.39104e-10 5.98992e-12)
(3.91613e-10 1.30645e-10 4.68215e-10)
(-1.74884e-11 -3.01531e-11 -9.43608e-12)
(-1.87172e-11 -3.65951e-11 -2.21768e-11)
(1.95908e-12 -9.25957e-13 1.25579e-11)
(8.5792e-12 2.08468e-11 5.62638e-11)
(1.27406e-12 -1.14047e-12 4.05616e-12)
(-3.89854e-13 3.64599e-12 1.65397e-12)
(-1.18279e-12 -1.76484e-12 -1.14441e-13)
(-6.68602e-13 -5.57904e-13 -3.34821e-12)
(-6.78612e-12 -1.40308e-12 1.70795e-12)
(-4.57453e-12 -2.16927e-13 6.88089e-13)
(-3.87838e-12 -2.61285e-13 -1.10052e-12)
(-4.51849e-12 -1.38439e-13 -1.79174e-12)
(-5.91343e-12 -1.40748e-13 1.13317e-12)
(-4.99603e-12 -2.97241e-14 8.66279e-13)
(-4.52254e-12 -1.79028e-14 -1.78397e-12)
(-3.22682e-12 -4.60449e-12 -5.01894e-12)
(-2.59856e-12 -2.9436e-11 -3.25335e-11)
(-3.35416e-12 -2.25988e-12 -2.43007e-12)
(-1.49646e-11 -6.33274e-11 -8.09891e-11)
(2.44762e-11 1.07364e-11 -2.06782e-12)
(9.11082e-11 5.02728e-12 -1.2979e-12)
(-4.21213e-11 3.89576e-12 -3.35618e-12)
(1.9987e-10 5.3951e-10 -6.29949e-12)
(2.18218e-11 9.52081e-12 -2.50142e-12)
(2.1066e-11 9.38334e-12 -1.51709e-12)
(8.81964e-11 4.40454e-12 -1.25677e-12)
(-4.22535e-11 2.94118e-12 -1.43478e-12)
(1.8149e-10 5.15215e-10 -6.07352e-12)
(2.08586e-11 9.14467e-12 -1.4723e-12)
(1.98799e-11 8.56054e-12 -2.27631e-12)
(8.52314e-11 3.92879e-12 -2.04608e-12)
(-4.15047e-11 2.0546e-12 -2.56769e-12)
(1.67495e-10 4.92325e-10 -7.95499e-12)
(1.925e-11 8.3021e-12 -2.80341e-12)
(1.51711e-11 8.50588e-12 -4.06191e-12)
(7.22499e-11 8.16305e-12 -2.60136e-12)
(-4.3111e-11 2.99974e-12 -5.44662e-12)
(1.35243e-10 4.3925e-10 6.21942e-11)
(9.25116e-12 1.48742e-11 -1.5846e-11)
(6.84936e-07 -1.39827e-06 5.91549e-07)
(1.05779e-06 -2.06256e-06 1.04127e-06)
(4.63417e-07 -6.70901e-07 6.57842e-07)
(7.51898e-07 -1.57048e-06 -9.03397e-07)
(4.08363e-06 -9.50987e-06 1.9086e-06)
(4.70669e-06 -1.11963e-05 1.41145e-06)
(5.40924e-06 -1.26965e-05 2.10905e-06)
(4.73873e-06 -1.17082e-05 -2.17069e-06)
(9.9549e-06 -2.31754e-05 2.47762e-06)
(1.07565e-05 -2.50601e-05 1.76613e-06)
(1.15807e-05 -2.67977e-05 2.53516e-06)
(1.07647e-05 -2.54916e-05 -2.72112e-06)
(1.65421e-05 -3.7704e-05 2.58915e-06)
(1.73622e-05 -3.9565e-05 1.82916e-06)
(1.73575e-05 -3.98981e-05 -2.8485e-06)
(-5.25111e-12 1.00975e-12 2.60699e-12)
(-4.8054e-12 -1.39092e-12 3.45517e-12)
(-3.66854e-13 9.51022e-13 -9.69608e-14)
(1.57236e-12 5.75515e-12 -1.58168e-11)
(8.95118e-13 -3.08934e-12 -1.47446e-11)
(-3.7072e-13 -4.90835e-13 -6.83683e-12)
(-6.69145e-12 1.10558e-11 1.58607e-12)
(6.43806e-13 -1.48465e-11 3.02148e-11)
(3.94674e-13 -3.48921e-11 1.62444e-11)
(-5.63023e-12 6.358e-12 -1.22486e-11)
(1.15775e-11 1.21674e-12 2.24771e-10)
(6.6392e-13 -2.60556e-12 -1.97944e-12)
(2.02015e-12 -1.01272e-11 -2.76676e-12)
(3.1846e-11 1.16451e-11 3.36532e-11)
(2.44529e-11 8.77479e-12 6.52396e-12)
(2.08078e-10 5.27074e-10 4.02189e-11)
(9.13714e-11 7.03708e-12 1.43006e-11)
(-3.1503e-11 6.14503e-12 7.0634e-12)
(-1.73939e-12 1.31965e-13 -4.12547e-12)
(1.79629e-12 -2.38033e-12 4.23806e-12)
(3.62776e-12 1.48003e-12 1.53849e-12)
(9.87391e-12 -2.58676e-12 -5.69644e-13)
(9.0235e-13 -6.49809e-14 6.26279e-13)
(-4.10818e-12 -8.60585e-13 -1.93594e-12)
(-4.49082e-12 -2.30913e-13 -1.79268e-12)
(-5.87029e-12 -4.78399e-13 1.22532e-12)
(-5.14527e-12 -1.37453e-13 9.12215e-13)
(3.34315e-12 9.79952e-16 -1.53026e-12)
(2.22023e-12 -1.3089e-13 3.24887e-12)
(1.0551e-11 -7.63091e-14 -8.71044e-13)
(1.05279e-11 -3.50313e-14 -8.82014e-13)
(-1.58657e-13 3.48722e-16 1.05996e-13)
(-4.51885e-12 1.08049e-13 -1.80367e-12)
(-4.41604e-12 2.02798e-14 -1.99517e-12)
(-5.90554e-12 2.59028e-13 1.00447e-12)
(-5.02588e-12 8.70504e-14 8.58813e-13)
(4.59196e-12 7.58848e-13 -4.5269e-12)
(-7.06215e-12 -2.39008e-11 -1.68252e-11)
(1.00954e-11 -3.24164e-12 -2.5526e-12)
(-5.80982e-12 3.8199e-12 -7.80487e-12)
(-2.32049e-13 1.17417e-13 -2.71035e-13)
(-1.71958e-09 -8.40978e-09 -2.15068e-10)
(3.9314e-08 -3.1198e-08 -1.24371e-08)
(-4.14567e-09 1.03107e-08 -6.11081e-10)
(-3.25431e-09 6.45889e-09 -8.73566e-10)
(2.19427e-11 9.91941e-12 -1.98645e-12)
(2.12458e-11 9.44145e-12 -1.71494e-12)
(1.87756e-10 5.25048e-10 -7.07571e-12)
(8.93631e-11 4.73104e-12 -1.48413e-12)
(-4.24158e-11 3.34849e-12 -2.02137e-12)
(1.80658e-06 -4.472e-06 -2.56619e-07)
(2.29706e-06 -5.62891e-06 1.5758e-07)
(2.31319e-06 -5.74912e-06 -7.30578e-07)
(2.83498e-06 -7.02145e-06 -3.12393e-07)
(2.07019e-11 9.01691e-12 -1.59729e-12)
(2.03344e-11 8.78654e-12 -1.88292e-12)
(1.76489e-10 5.05505e-10 -6.75862e-12)
(8.70244e-11 4.15453e-12 -1.4342e-12)
(-4.16966e-11 2.62225e-12 -1.73788e-12)
(6.81242e-06 -1.64584e-05 -4.28768e-07)
(7.56889e-06 -1.81039e-05 2.45326e-07)
(7.57529e-06 -1.82649e-05 -1.13128e-06)
(8.34365e-06 -1.99374e-05 -4.52244e-07)
(1.83404e-11 8.04771e-12 -3.27883e-12)
(1.70274e-11 7.92285e-12 -3.43361e-12)
(1.51101e-10 4.71477e-10 -2.32348e-13)
(8.20173e-11 3.92038e-12 -2.66249e-12)
(-4.16838e-11 1.20594e-12 -3.64774e-12)
(1.32208e-05 -3.06908e-05 -4.86777e-07)
(1.40509e-05 -3.24373e-05 2.75557e-07)
(1.40512e-05 -3.2559e-05 -1.25669e-06)
(1.48803e-05 -3.43072e-05 -4.89757e-07)
(9.02728e-13 4.59698e-12 6.43677e-12)
(6.41601e-07 -1.5286e-06 8.76001e-08)
(6.65399e-07 -1.55931e-06 -3.98348e-07)
(3.73535e-07 -8.72422e-07 -1.14682e-07)
(9.75783e-07 -2.38537e-06 -1.9125e-07)
(1.87889e-06 -4.08425e-06 1.37633e-06)
(2.8973e-06 -6.60536e-06 1.66493e-06)
(2.33087e-06 -5.42705e-06 1.06589e-06)
(2.37796e-06 -5.84299e-06 -1.63467e-06)
(4.6827e-06 -1.14033e-05 2.10064e-07)
(4.69361e-06 -1.15636e-05 -9.72015e-07)
(4.03119e-06 -9.92895e-06 -3.59368e-07)
(5.36624e-06 -1.3101e-05 -3.98007e-07)
(6.84658e-06 -1.60796e-05 2.26861e-06)
(8.36975e-06 -1.95902e-05 2.39024e-06)
(7.58411e-06 -1.79214e-05 1.63921e-06)
(7.60302e-06 -1.8419e-05 -2.52403e-06)
(1.07484e-05 -2.52103e-05 2.65933e-07)
(1.07511e-05 -2.53526e-05 -1.22033e-06)
(9.93593e-06 -2.34896e-05 -4.69138e-07)
(1.15678e-05 -2.70812e-05 -4.80308e-07)
(1.3229e-05 -3.04327e-05 2.56807e-06)
(1.48849e-05 -3.40672e-05 2.58244e-06)
(1.40543e-05 -3.23122e-05 1.81732e-06)
(1.40554e-05 -3.26776e-05 -2.80068e-06)
(1.73592e-05 -3.96797e-05 2.77563e-07)
(1.73579e-05 -3.9791e-05 -1.2638e-06)
(1.6544e-05 -3.79452e-05 -4.90602e-07)
(7.3637e-13 3.19111e-11 2.18448e-11)
(4.1623e-12 3.22074e-12 -8.19286e-13)
(-3.18709e-12 -3.03505e-11 9.77019e-12)
(6.06853e-12 4.30119e-12 1.75524e-12)
(1.46715e-11 1.26533e-11 -5.62389e-12)
(1.02432e-11 -1.36598e-13 -7.08442e-13)
(3.23775e-12 8.1464e-15 -1.65578e-12)
(2.63265e-12 -9.65647e-14 3.20168e-12)
(1.05181e-11 -6.21896e-14 -8.36299e-13)
(1.06589e-11 -9.49643e-15 -9.29952e-13)
(3.64366e-12 1.98933e-14 -1.48043e-12)
(2.52028e-12 6.50433e-14 3.10825e-12)
(1.08611e-11 -2.75774e-13 -1.14044e-12)
(1.11043e-07 -5.36372e-08 2.12071e-07)
(1.81232e-09 1.72667e-09 2.00637e-09)
(-6.24992e-10 7.90626e-09 -7.98041e-10)
(1.51825e-11 6.9625e-12 9.69604e-11)
(-6.15544e-12 -9.34264e-12 -1.04323e-12)
(-4.69995e-12 -1.12813e-11 -1.55187e-12)
(-4.07371e-12 -2.81853e-12 3.25689e-12)
(8.81868e-13 -5.12756e-12 1.78785e-13)
(-4.21967e-14 6.34933e-15 8.63213e-14)
(-1.71206e-13 -2.29793e-15 6.7054e-14)
(3.44902e-11 7.58075e-09 2.3272e-09)
(1.84718e-10 -1.56837e-10 1.04843e-12)
(3.40935e-10 6.96606e-10 6.42818e-11)
(1.31071e-10 1.43039e-10 6.43885e-11)
(2.83942e-10 2.81223e-10 5.27986e-11)
(3.024e-10 7.71489e-10 -3.54834e-12)
(1.90308e-10 2.25375e-10 -3.88796e-12)
(2.75273e-10 7.37945e-10 -5.46184e-12)
(1.65081e-10 2.11015e-10 -3.67456e-12)
(2.38441e-10 6.93169e-10 -1.38924e-12)
(1.29755e-10 1.93569e-10 -2.32694e-12)
(2.2707e-10 5.67648e-10 1.88504e-10)
(7.83644e-11 1.55066e-10 4.94562e-11)
(8.73816e-11 8.44891e-10 8.78761e-11)
(4.413e-11 9.71635e-11 4.63185e-11)
(4.17627e-10 1.30636e-10 7.09397e-11)
(2.35551e-10 1.02803e-09 1.27193e-11)
(5.60165e-10 1.85468e-10 4.42026e-12)
(9.87493e-13 1.8355e-11 2.34421e-11)
(3.35879e-10 8.21269e-10 9.11858e-12)
(2.1564e-10 2.38322e-10 1.5618e-12)
(2.1946e-10 9.98997e-10 -6.03359e-12)
(5.5357e-10 1.76205e-10 -6.9693e-12)
(2.11793e-10 9.79153e-10 -6.79863e-12)
(5.46189e-10 1.70068e-10 -5.43844e-12)
(2.84999e-10 7.52925e-10 -5.39286e-12)
(1.73198e-10 2.17065e-10 -3.86088e-12)
(2.07303e-10 9.62413e-10 -6.67866e-12)
(5.39896e-10 1.6533e-10 -4.99602e-12)
(2.00929e-10 9.43305e-10 -7.94971e-12)
(5.31939e-10 1.59823e-10 -6.12915e-12)
(2.62415e-10 7.20471e-10 -5.98877e-12)
(1.52737e-10 2.04014e-10 -4.22607e-12)
(1.89327e-10 9.13563e-10 -4.1328e-12)
(5.19136e-10 1.51192e-10 -4.86985e-12)
(1.76778e-10 8.58217e-10 4.78206e-11)
(5.05793e-10 1.35381e-10 2.58373e-11)
(1.92805e-10 6.54784e-10 3.71017e-11)
(8.19025e-11 1.79887e-10 1.29993e-11)
(2.36962e-10 5.8474e-10 4.0151e-10)
(5.04938e-10 5.59952e-11 3.59841e-10)
(2.42328e-12 -2.52876e-12 -4.08352e-12)
(1.55261e-11 -5.74355e-12 -7.52161e-12)
(3.70345e-10 -3.98363e-11 1.4522e-10)
(-6.08329e-13 -4.92198e-12 -1.94325e-11)
(1.02483e-11 3.04046e-12 -1.18174e-13)
(3.36349e-11 -1.8074e-11 7.30473e-12)
(-4.67125e-12 -7.10667e-13 1.1529e-11)
(9.23548e-12 1.85847e-11 2.73546e-11)
(7.83101e-11 2.43718e-10 2.34865e-10)
(-4.95161e-12 -9.06051e-12 6.75447e-12)
(8.34376e-12 -6.1464e-12 7.43577e-12)
(1.62207e-10 3.92511e-10 1.08464e-10)
(1.22554e-11 2.92303e-11 5.4069e-11)
(7.55453e-11 2.72279e-11 4.24487e-11)
(-8.34966e-12 3.96379e-12 -4.89648e-13)
(2.77747e-13 2.57393e-12 -3.48004e-11)
(9.9178e-12 3.20609e-11 -2.37375e-11)
(-2.91258e-12 1.8892e-12 4.49919e-13)
(7.97873e-13 -2.51919e-12 -6.76112e-12)
(-4.23433e-12 -1.25434e-12 -2.79617e-13)
(-3.48568e-12 3.32838e-12 1.60455e-12)
(-2.33874e-12 -3.41068e-12 1.09559e-12)
(-2.86246e-13 6.1368e-14 1.89282e-12)
(1.45342e-12 -1.07674e-12 3.91844e-12)
(-4.80676e-12 -1.02893e-12 8.90657e-13)
(-5.02216e-12 -2.82678e-12 1.7051e-12)
(-5.88026e-12 -3.36104e-13 1.16758e-12)
(-5.04366e-12 -7.85634e-14 8.75431e-13)
(-4.04184e-12 -2.57711e-13 1.14326e-12)
(-4.1026e-12 -3.37702e-14 1.11752e-12)
(3.97517e-13 -2.47998e-15 2.54398e-12)
(4.0101e-13 -2.75905e-14 2.5586e-12)
(-4.98936e-12 2.13359e-14 8.63411e-13)
(-5.92416e-12 1.00283e-13 1.11522e-12)
(-5.69093e-12 -1.30216e-12 -7.84774e-13)
(-5.03971e-12 1.26945e-13 6.90459e-13)
(-4.80122e-12 -1.15664e-11 -7.46061e-12)
(-2.88445e-11 -1.74575e-10 -1.28609e-10)
(7.60521e-12 -8.51379e-12 -9.57283e-13)
(7.65479e-13 -1.15601e-14 2.5118e-12)
(2.78746e-11 -1.59507e-10 -9.48484e-11)
(2.33752e-10 -1.30354e-09 -9.94145e-10)
(2.08716e-10 5.506e-10 7.1611e-12)
(9.39557e-11 4.14641e-12 1.0846e-13)
(-4.10503e-11 5.58475e-12 -7.80855e-13)
(5.59724e-10 1.82472e-10 1.08919e-12)
(4.13612e-11 -3.60677e-11 -1.25391e-13)
(4.00191e-11 -3.45198e-11 -7.86853e-13)
(2.01871e-10 2.32329e-10 -1.13289e-12)
(-3.25179e-11 -1.8342e-12 -9.99726e-13)
(-3.29017e-11 -1.95708e-12 -9.82522e-13)
(3.16329e-10 7.82443e-10 -3.09636e-12)
(2.33007e-10 1.10133e-09 -4.18246e-12)
(2.50367e-10 1.15359e-09 -3.69038e-12)
(2.24056e-10 1.01628e-09 -3.30333e-12)
(1.92641e-10 5.3093e-10 -6.49779e-12)
(-4.23484e-11 3.73978e-12 -2.11438e-12)
(9.03416e-11 4.69681e-12 -1.9885e-12)
(1.84191e-10 5.19947e-10 -6.20834e-12)
(8.88734e-11 4.49002e-12 -1.35759e-12)
(-4.24157e-11 3.15131e-12 -1.55578e-12)
(5.42689e-10 1.68103e-10 -4.69886e-12)
(3.93466e-11 -3.4347e-11 -3.81576e-13)
(3.90792e-11 -3.41647e-11 -4.26881e-13)
(1.68203e-10 2.13918e-10 -3.60241e-12)
(-3.12615e-11 -2.84612e-12 -4.21783e-13)
(-3.1706e-11 -2.77486e-12 -5.43391e-13)
(2.79679e-10 7.45089e-10 -5.51137e-12)
(2.13791e-10 1.06957e-09 -6.9003e-12)
(2.16926e-10 1.08028e-09 -7.2841e-12)
(2.09042e-10 9.7088e-10 -6.77225e-12)
(1.79342e-10 5.10524e-10 -6.06452e-12)
(-4.18488e-11 2.8285e-12 -1.42083e-12)
(8.77093e-11 4.25268e-12 -1.26658e-12)
(1.72674e-10 4.99603e-10 -7.49994e-12)
(8.62584e-11 4.02139e-12 -1.68579e-12)
(-4.16134e-11 2.3646e-12 -2.06842e-12)
(5.26251e-10 1.56119e-10 -6.39243e-12)
(3.81806e-11 -3.36085e-11 -5.87567e-13)
(3.76774e-11 -3.32766e-11 -6.99323e-13)
(1.43269e-10 1.99415e-10 -3.96839e-12)
(-2.99572e-11 -3.72736e-12 -1.06497e-12)
(-3.03468e-11 -3.39338e-12 -8.4448e-13)
(2.52453e-10 7.08586e-10 -5.1473e-12)
(1.91551e-10 1.02135e-09 -6.94991e-12)
(1.99941e-10 1.03775e-09 -8.35331e-12)
(1.95851e-10 9.30535e-10 -7.68489e-12)
(1.6043e-10 4.83015e-10 -6.72818e-12)
(-4.14464e-11 1.67306e-12 -3.1697e-12)
(8.38748e-11 3.86262e-12 -2.43505e-12)
(1.40685e-10 4.5828e-10 1.90107e-11)
(7.92879e-11 4.46144e-12 -2.46225e-12)
(-4.26032e-11 8.38631e-13 -3.75064e-12)
(5.06503e-10 1.18948e-10 9.85379e-11)
(3.31323e-11 -3.0457e-11 2.17661e-13)
(2.60717e-11 -2.30068e-11 4.0208e-12)
(5.49746e-11 1.74988e-10 2.68723e-11)
(-3.26795e-11 -5.72243e-12 -4.68881e-12)
(-3.07687e-11 -6.13887e-12 -2.35081e-12)
(1.73436e-10 6.39637e-10 9.47946e-11)
(1.59098e-10 8.64059e-10 1.87234e-10)
(1.50671e-10 9.4117e-10 7.45247e-11)
(1.81754e-10 7.9784e-10 1.54593e-10)
(1.6431e-10 3.5118e-10 1.62466e-10)
(-1.89436e-11 2.41637e-12 -8.64412e-12)
(2.77442e-11 7.59304e-12 -4.23839e-12)
(3.83295e-07 -8.3339e-07 2.54493e-07)
(9.86547e-07 -2.28595e-06 4.08803e-07)
(1.40196e-06 -3.138e-06 8.45434e-07)
(2.07408e-07 -3.29439e-07 3.01612e-07)
(4.32915e-07 -8.56542e-07 -4.88535e-07)
(1.02783e-06 -2.41013e-06 -7.9017e-07)
(1.458e-06 -3.44975e-06 -1.29338e-06)
(2.82907e-07 -3.55704e-07 -4.67926e-07)
(3.44214e-06 -8.14838e-06 1.25418e-06)
(4.03901e-06 -9.75039e-06 7.60947e-07)
(5.37281e-06 -1.29207e-05 8.42904e-07)
(6.0963e-06 -1.44792e-05 1.53918e-06)
(3.48143e-06 -8.62957e-06 -1.9267e-06)
(4.06255e-06 -1.00647e-05 -1.47718e-06)
(5.39168e-06 -1.32508e-05 -1.63671e-06)
(6.12153e-06 -1.49941e-05 -2.36882e-06)
(9.1451e-06 -2.14631e-05 1.7139e-06)
(9.93936e-06 -2.33376e-05 9.95996e-07)
(1.15704e-05 -2.6942e-05 1.02111e-06)
(1.23985e-05 -2.86825e-05 1.79929e-06)
(9.15828e-06 -2.19306e-05 -2.63998e-06)
(9.94627e-06 -2.36333e-05 -1.93313e-06)
(1.15743e-05 -2.7215e-05 -1.981e-06)
(1.24026e-05 -2.90782e-05 -2.77269e-06)
(1.57116e-05 -3.59411e-05 1.82479e-06)
(1.65449e-05 -3.78297e-05 1.04747e-06)
(1.57103e-05 -3.6285e-05 -2.81187e-06)
(1.65413e-05 -3.80499e-05 -2.02841e-06)
(4.51589e-11 -2.55073e-12 -6.70377e-12)
(4.05514e-12 -2.46335e-12 -3.32261e-12)
(5.447e-12 3.19893e-12 -2.79362e-12)
(3.15939e-11 -3.26029e-11 -2.39247e-11)
(1.13692e-10 7.65643e-11 4.44275e-11)
(8.23388e-12 8.35345e-12 2.61003e-10)
(7.47702e-12 7.79427e-12 5.10175e-12)
(-1.44504e-11 4.75891e-12 1.17224e-12)
(6.30059e-12 2.43912e-11 1.41961e-10)
(5.97871e-12 6.3875e-12 -2.09116e-12)
(7.33213e-12 4.81376e-12 3.12809e-12)
(6.72404e-12 3.21931e-11 1.61851e-10)
(3.40122e-12 5.17367e-12 6.98284e-12)
(-2.12168e-12 -5.03423e-12 1.08153e-12)
(2.17804e-10 1.03754e-09 5.68848e-11)
(3.51911e-10 7.80316e-10 1.95839e-11)
(1.92457e-10 1.02435e-09 3.49887e-11)
(2.49817e-10 1.09854e-09 2.58451e-11)
(5.62748e-10 1.8877e-10 6.05676e-11)
(4.30448e-11 -3.33446e-11 2.09179e-12)
(4.17461e-11 -3.39938e-11 1.84127e-12)
(2.53415e-10 2.56242e-10 1.85003e-11)
(-2.76859e-11 3.18997e-12 4.39753e-12)
(-3.19027e-11 9.76668e-14 -9.56648e-13)
(3.50382e-11 -4.31065e-12 -1.98318e-11)
(-9.06842e-12 3.60365e-12 2.05831e-12)
(-2.93275e-11 6.77115e-12 -1.33403e-11)
(1.25995e-12 1.15373e-11 -2.82281e-12)
(3.08616e-12 4.48905e-14 -1.97393e-12)
(3.55442e-12 -9.37787e-13 2.65952e-12)
(2.33592e-12 8.91918e-14 1.13364e-13)
(-3.00118e-14 2.78201e-14 -3.03887e-13)
(-3.70721e-12 -3.68801e-13 1.19382e-12)
(-2.83461e-12 -1.1458e-12 1.21755e-12)
(7.46278e-13 -4.38487e-13 2.99701e-12)
(4.31371e-13 -5.93801e-14 2.60885e-12)
(3.30638e-12 2.87009e-15 -1.57723e-12)
(2.31409e-12 -1.42171e-13 3.28175e-12)
(3.43241e-12 3.95345e-15 -1.49694e-12)
(2.27839e-12 6.74103e-14 3.22526e-12)
(-1.24902e-13 1.15275e-15 9.99249e-14)
(-1.72596e-13 -1.31251e-15 9.65802e-14)
(-3.84669e-12 -2.73371e-13 5.16903e-13)
(-4.04973e-12 1.90265e-13 1.08242e-12)
(3.87868e-13 2.36805e-14 2.54306e-12)
(3.99044e-13 6.99531e-14 2.56731e-12)
(4.05364e-12 1.81325e-13 -1.75298e-12)
(2.67501e-12 -1.95418e-12 1.51411e-12)
(1.75265e-11 -6.6872e-12 1.53833e-11)
(-1.48883e-10 -1.55931e-10 -2.47016e-10)
(-1.35301e-13 -2.24235e-15 -9.11111e-15)
(-9.48445e-12 1.40786e-11 -1.72615e-12)
(1.91671e-07 -3.62376e-07 -1.95206e-07)
(1.65359e-07 -3.70058e-07 5.02763e-08)
(4.03666e-08 -6.64257e-08 8.95435e-08)
(-1.10872e-09 -1.39226e-09 -5.92908e-09)
(8.19676e-08 -4.80012e-08 -1.5252e-07)
(4.01589e-10 -3.77088e-09 -4.03165e-10)
(2.27213e-10 1.10329e-09 -8.06938e-12)
(2.92166e-10 7.60119e-10 -5.94183e-12)
(2.14344e-10 9.88886e-10 -7.67536e-12)
(2.20796e-10 1.08616e-09 -7.17123e-12)
(5.49547e-10 1.73637e-10 -4.85461e-12)
(3.99322e-11 -3.47867e-11 -5.05705e-13)
(3.95238e-11 -3.44038e-11 -5.3314e-13)
(1.80509e-10 2.20934e-10 -3.76492e-12)
(-3.22312e-11 -2.30846e-12 -7.91588e-13)
(-3.1953e-11 -2.54182e-12 -6.78979e-13)
(1.36318e-06 -3.31612e-06 1.24577e-07)
(1.38263e-06 -3.3968e-06 -5.76423e-07)
(1.81679e-06 -4.33067e-06 5.44502e-07)
(2.84408e-06 -6.85485e-06 6.61717e-07)
(2.87261e-06 -7.13166e-06 -1.28376e-06)
(1.85097e-06 -4.5442e-06 -1.05506e-06)
(3.42671e-06 -8.50454e-06 -8.62124e-07)
(3.41332e-06 -8.35823e-06 1.86082e-07)
(2.10513e-10 1.06117e-09 -7.41152e-12)
(2.69781e-10 7.29868e-10 -5.88427e-12)
(2.04488e-10 9.53716e-10 -7.39828e-12)
(2.0606e-10 1.05026e-09 -8.04241e-12)
(5.36208e-10 1.62979e-10 -5.42105e-12)
(3.88333e-11 -3.40251e-11 -4.11548e-13)
(3.85378e-11 -3.38388e-11 -5.07905e-13)
(1.59939e-10 2.07821e-10 -4.06934e-12)
(-3.08495e-11 -2.93022e-12 -5.7781e-13)
(-3.06435e-11 -3.13729e-12 -7.08829e-13)
(6.07687e-06 -1.46762e-05 2.29716e-07)
(6.08544e-06 -1.48405e-05 -1.06129e-06)
(6.81783e-06 -1.62836e-05 9.08534e-07)
(8.34801e-06 -1.97728e-05 9.59061e-07)
(8.35849e-06 -2.00886e-05 -1.86203e-06)
(6.83232e-06 -1.66125e-05 -1.7642e-06)
(9.13809e-06 -2.17822e-05 -1.18362e-06)
(9.13366e-06 -2.16293e-05 2.57254e-07)
(1.79914e-10 1.00025e-09 -2.83645e-13)
(2.18562e-10 6.74121e-10 9.71092e-12)
(1.81894e-10 8.90616e-10 8.89568e-12)
(1.65204e-10 9.73892e-10 2.04304e-11)
(5.11245e-10 1.44648e-10 2.38016e-12)
(3.6947e-11 -3.27925e-11 -7.48256e-13)
(3.5689e-11 -3.20476e-11 -5.97502e-13)
(1.09673e-10 1.86498e-10 2.55963e-12)
(-2.9522e-11 -4.22362e-12 -1.35632e-12)
(-2.9435e-11 -5.04057e-12 -1.68768e-12)
(1.2393e-05 -2.88186e-05 2.71857e-07)
(1.23943e-05 -2.89498e-05 -1.24377e-06)
(1.32229e-05 -3.0563e-05 1.03648e-06)
(1.48817e-05 -3.41878e-05 1.04446e-06)
(1.48816e-05 -3.44229e-05 -2.02385e-06)
(1.32244e-05 -3.08147e-05 -2.0097e-06)
(1.5709e-05 -3.61738e-05 -1.26212e-06)
(1.57097e-05 -3.60595e-05 2.77498e-07)
(3.17665e-10 5.87402e-10 3.55659e-10)
(1.83143e-12 1.03379e-11 3.6735e-11)
(-5.9819e-12 1.7752e-12 -3.18252e-14)
(8.42205e-11 -4.14332e-11 -3.71928e-13)
(2.36438e-10 -2.06011e-10 6.36226e-11)
(8.55747e-11 1.54225e-10 1.29049e-10)
(7.67495e-11 1.20429e-10 1.29359e-10)
(1.35676e-10 2.40286e-10 1.55876e-10)
(1.7289e-10 3.50055e-10 9.88513e-11)
(1.28588e-10 4.02589e-10 -5.30997e-12)
(1.95122e-10 5.32076e-10 -6.60391e-12)
(1.98378e-10 2.29813e-10 -3.34531e-12)
(3.09937e-10 7.68944e-10 -2.21682e-12)
(1.20331e-10 3.94912e-10 -5.92758e-12)
(1.05605e-10 3.80891e-10 -5.30652e-12)
(1.80403e-10 5.12697e-10 -5.9915e-12)
(1.66879e-10 2.12465e-10 -3.57256e-12)
(2.7757e-10 7.41236e-10 -5.37665e-12)
(1.03319e-10 3.76944e-10 -5.33636e-12)
(8.91021e-11 3.61381e-10 -6.81499e-12)
(1.64227e-10 4.87897e-10 -7.71002e-12)
(1.37277e-10 1.96654e-10 -3.41657e-12)
(2.46063e-10 7.01343e-10 -3.83831e-12)
(8.01931e-11 3.5345e-10 -5.56626e-12)
(3.90529e-11 3.28093e-10 4.34676e-11)
(1.41487e-10 4.13749e-10 9.87696e-11)
(4.75805e-11 1.65979e-10 3.48778e-11)
(1.83888e-10 6.23145e-10 1.37536e-10)
(7.58662e-11 2.89096e-10 9.40677e-11)
(1.54495e-10 6.87592e-11 2.1795e-11)
(4.96428e-11 2.95066e-10 1.63207e-10)
(2.65774e-10 3.71976e-10 9.66557e-11)
(2.0598e-10 5.50782e-10 -2.22877e-12)