/*--------------------------------*- C++ -*----------------------------------*\
| =========                 |                                                 |
| \\      /  F ield         | OpenFOAM: The Open Source CFD Toolbox           |
|  \\    /   O peration     | Version:  2012                                  |
|   \\  /    A nd           | Website:  www.openfoam.com                      |
|    \\/     M anipulation  |                                                 |
\*---------------------------------------------------------------------------*/
FoamFile
{
    version     2.0;
    format      ascii;
    class       volVectorField;
    location    "0.104/solid";
    object      sigmaMinDir;
}
// * * * * * * * * * * * * * * * * * * * * * * * * * * * * * * * * * * * * * //

dimensions      [1 -1 -2 0 0 0 0];


internalField   nonuniform List<vector> 
24998
(
(0.179647 0.704613 0.686475)
(-0.211489 0.977227 -0.0173268)
(0.124982 -0.012759 0.992077)
(0.0802061 -0.00433865 0.996769)
(0.161643 -0.463545 0.871205)
(0.0809855 0.996684 -0.00790734)
(0.0678698 0.997675 -0.00612727)
(0.0572337 0.998326 -0.00835859)
(0.0430272 0.995781 0.0810507)
(0.255822 0.706949 0.659377)
(0.0581417 0.00624304 0.998289)
(0.187937 0.982165 -0.0056557)
(0.0880685 0.988904 -0.119638)
(0.143486 -0.0138361 0.989556)
(0.0823953 0.99657 -0.0077547)
(0.0721815 0.00464372 0.997381)
(0.0469798 -0.000441399 0.998896)
(0.0804906 -9.36227e-05 0.996755)
(0.0467364 -0.00129888 0.998906)
(0.114239 -0.242306 0.963451)
(0.170108 -0.420469 0.891218)
(0.105956 -0.283324 0.953153)
(0.185202 0.982675 -0.00702472)
(0.181284 0.983414 -0.00570081)
(0.0684502 0.997635 -0.00620197)
(0.181114 0.983446 -0.00569784)
(0.178119 0.983978 -0.00782684)
(0.0595856 0.998189 -0.00827529)
(0.177172 0.984147 -0.0080054)
(0.175023 0.982975 0.055912)
(0.0328514 0.998089 0.0523445)
(0.185472 0.977915 0.0963445)
(0.720827 0.67975 -0.135458)
(0.665044 0.453318 0.593481)
(-0.0104494 0.460325 0.887689)
(0.0507059 0.156224 0.986419)
(0.113965 0.992496 0.0443085)
(-0.000509448 -0.116477 0.993193)
(-0.12128 -0.0426588 0.991701)
(-0.000561919 -0.00499628 0.999987)
(0.0874056 -0.00725694 0.996146)
(0.00810347 0.00040492 0.999967)
(0.0136998 -0.0074303 0.999879)
(0.0842697 0.00171725 0.996442)
(-0.000143091 0.00433004 0.999991)
(-0.321048 -0.277819 0.905398)
(0.37043 0.20175 0.906686)
(0.101061 0.991227 0.0851822)
(-0.134873 0.990196 -0.0363533)
(0.0732124 0.99729 -0.00725638)
(0.0141076 -0.0242888 0.999605)
(0.00874386 -0.0140821 0.999863)
(-0.215689 0.974965 -0.0540518)
(-0.534539 0.831049 -0.153708)
(0.0656206 0.997822 -0.00672156)
(0.0299071 -0.0503741 0.998283)
(0.0207993 -0.0358939 0.999139)
(0.913842 -0.0743424 0.399206)
(0.858269 0.0131957 0.513031)
(0.0466993 0.998904 -0.00304319)
(-0.1227 0.0291385 0.992016)
(0.0580517 -0.0946523 0.993816)
(0.776578 0.0582113 0.627326)
(0.415938 0.851688 0.318784)
(0.811854 0.583634 -0.0162368)
(0.0405046 0.163523 0.985708)
(0.180592 0.982241 0.050891)
(0.38353 0.342715 0.857585)
(-0.146776 -0.0379331 0.988442)
(0.488525 0.722184 0.489687)
(0.0380689 0.082812 0.995838)
(-0.182631 -0.00546903 0.983166)
(0.399323 0.220687 0.889853)
(0.183234 0.982792 0.0233278)
(-0.127751 0.457341 0.880068)
(0.0912507 -0.0605045 0.993988)
(0.030459 0.0856784 0.995857)
(0.0824404 -0.066026 0.994406)
(0.195422 -0.0232848 0.980443)
(0.104345 0.994329 0.0205402)
(-0.16428 -0.0178277 0.986253)
(0.05132 -0.00277091 0.998678)
(-0.129749 -0.00101521 0.991546)
(0.0080097 -0.00320542 0.999963)
(0.000332669 -0.00128983 0.999999)
(0.0505092 -0.00321815 0.998718)
(-0.127409 -0.0008501 0.99185)
(-0.129102 -1.65994e-05 0.991631)
(0.0860762 -0.0104888 0.996233)
(-0.127284 -7.04146e-05 0.991866)
(0.0498429 -0.000986741 0.998757)
(-0.126281 -0.00342018 0.991989)
(-0.271981 -0.274797 0.922233)
(0.0129723 -0.00592463 0.999898)
(0.0520576 -0.00531019 0.99863)
(-0.24966 -0.154047 0.956002)
(-0.127085 -0.00544617 0.991877)
(0.085583 -0.00445138 0.996321)
(0.00659315 0.00345883 0.999972)
(-0.292132 -0.169355 0.941264)
(0.0459171 0.950699 0.306696)
(0.0484157 0.997707 -0.0472844)
(0.274779 0.20915 0.938484)
(0.00640091 0.00843528 0.999944)
(0.22258 0.114649 0.96815)
(0.0137021 0.00697536 0.999882)
(0.0177717 0.080879 0.996565)
(0.554558 -0.0999583 0.826119)
(0.166319 0.0163063 0.985937)
(0.000692373 0.00260051 0.999996)
(0.00834857 -0.0133355 0.999876)
(0.00749644 0.00147991 0.999971)
(-0.051739 0.996473 -0.0660699)
(0.0486005 0.9978 -0.0450819)
(0.017327 -0.0162686 0.999718)
(0.00584832 0.00695762 0.999959)
(0.00108935 -0.00611473 0.999981)
(0.0131002 0.00551406 0.999899)
(0.593857 -0.0957081 0.798858)
(0.556827 -0.0973258 0.824907)
(0.00903264 -0.00748203 0.999931)
(0.151907 0.230277 0.961196)
(0.786021 -0.0956607 0.610754)
(-0.201102 0.978297 -0.0499266)
(-0.140208 0.989447 -0.0365661)
(0.788474 -0.0925316 0.608067)
(0.782826 -0.0939217 0.615112)
(0.183029 0.983085 -0.00664091)
(0.182287 0.983224 -0.0064867)
(0.0719333 0.997385 -0.00693117)
(0.0263037 -0.027992 0.999262)
(-0.1289 0.987596 -0.089663)
(0.0178625 -0.017095 0.999694)
(0.912923 -0.0986815 0.396023)
(-0.00138175 -0.0144712 0.999894)
(0.000902433 -0.00671364 0.999977)
(0.00878772 -0.0160604 0.999832)
(0.601727 -0.0959118 0.792922)
(0.00893372 -0.00808844 0.999927)
(0.657838 -0.0944349 0.747216)
(0.0144665 -0.0249363 0.999584)
(0.0203501 -0.0351531 0.999175)
(0.0268782 -0.0286769 0.999227)
(0.856706 -0.0321416 0.514802)
(0.907512 -0.0856652 0.411197)
(0.0374873 -0.0390802 0.998533)
(-0.00150838 -0.0149613 0.999887)
(-0.00299484 -0.0220466 0.999752)
(0.00882853 -0.0165669 0.999824)
(0.705239 -0.0832837 0.704061)
(0.665071 -0.0936958 0.740879)
(0.0112386 -0.0240434 0.999648)
(0.79153 -0.0925962 0.604074)
(0.812196 -0.0907689 0.576279)
(0.918693 -0.0997599 0.382166)
(-0.653955 0.73105 -0.1947)
(0.821909 -0.0823963 0.563627)
(0.814407 -0.0901965 0.573241)
(0.180472 0.983561 -0.00619952)
(0.180067 0.983632 -0.0066575)
(0.0645179 0.997891 -0.00716057)
(0.0562556 -0.0540951 0.99695)
(0.848487 -0.0266932 0.528543)
(0.0383156 -0.0398383 0.998471)
(0.790989 0.00498925 0.61181)
(-0.00382099 -0.0312653 0.999504)
(-0.00307618 -0.0225388 0.999741)
(0.0189388 -0.0340202 0.999242)
(0.709245 -0.0810772 0.700284)
(0.0115016 -0.0245692 0.999632)
(0.724068 -0.0603875 0.68708)
(0.0307503 -0.051696 0.998189)
(0.0549887 -0.0895002 0.994468)
(0.0579285 -0.0554082 0.996782)
(0.735414 0.034973 0.676715)
(0.783217 0.00894965 0.621684)
(0.105315 -0.0908414 0.990281)
(-0.00386339 -0.0320309 0.999479)
(-0.00377427 -0.0531718 0.998578)
(0.0197136 -0.0348512 0.999198)
(0.709963 -0.0259982 0.703759)
(0.724228 -0.056737 0.687222)
(0.045778 -0.0585528 0.997234)
(0.821677 -0.0808756 0.564186)
(0.80944 -0.0660092 0.58348)
(0.784788 0.0543664 0.617375)
(0.84898 0.0199783 0.528048)
(0.764994 -0.0412467 0.642716)
(0.805913 -0.0634111 0.588629)
(0.173419 0.984842 -0.00335251)
(0.172171 0.985064 0.00236366)
(0.0419367 0.999116 0.00306429)
(-0.0105291 0.0402309 0.999135)
(0.729738 0.0385408 0.68264)
(0.110956 -0.0954988 0.989226)
(0.344407 0.891243 0.295075)
(-0.126073 -0.00396009 0.992013)
(-0.00399421 -0.0563259 0.998404)
(-0.0202629 -0.0239837 0.999507)
(0.7053 -0.0212504 0.708591)
(0.0489607 -0.0620855 0.996869)
(0.284866 0.929754 0.233259)
(0.755922 -0.0381028 0.653552)
(0.328992 0.915129 0.23303)
(0.662053 0.387152 0.641716)
(0.334085 -0.229722 0.91412)
(0.565663 -0.237682 0.789641)
(0.42661 0.902034 -0.0658604)
(0.176476 0.682678 0.709088)
(0.0996691 0.442545 0.89119)
(0.170502 0.941405 0.291007)
(-0.04539 0.95812 0.282748)
(0.338407 0.500013 0.797162)
(0.265574 0.927501 0.263082)
(0.32669 -0.0808451 0.941668)
(0.097173 -0.0325304 0.994736)
(0.333142 -0.0633357 0.940747)
(0.99359 -0.00114062 0.11304)
(0.0802333 0.00322547 0.996771)
(0.993923 0.00160656 0.110066)
(0.48475 -0.139167 0.86351)
(0.0488629 -0.58172 0.81192)
(0.258009 -0.375512 0.890181)
(-0.0701496 0.997535 0.00172667)
(0.187628 0.982218 -0.00662655)
(-0.133922 0.990894 -0.0139284)
(0.0784317 0.996903 -0.0056638)
(0.0334229 0.999415 0.00720407)
(-0.131329 0.991323 0.00554026)
(0.181386 0.983381 -0.00785599)
(-0.101235 0.99486 -0.0023343)
(0.149521 0.988732 -0.00724288)
(-0.133701 0.991015 -0.00361493)
(0.0672758 0.997716 -0.00602005)
(-0.0655649 0.997848 -0.000738193)
(-0.133949 0.990985 -0.00263318)
(0.148072 0.98895 -0.00724773)
(-0.158322 0.987325 0.0111412)
(0.117524 0.993029 -0.00900816)
(-0.137992 0.990425 -0.00403846)
(0.054363 0.998491 -0.00783131)
(-0.0956666 0.9954 0.00524358)
(-0.139602 0.990202 -0.00346332)
(0.108496 0.994066 -0.00782406)
(0.034356 0.98406 0.174485)
(-0.0069982 0.996279 0.0859074)
(-0.125049 0.990938 0.049038)
(0.0823546 0.987456 0.134715)
(-0.277564 0.938928 0.203404)
(-0.0576769 0.99826 -0.0122611)
(0.0289545 0.991542 0.126513)
(0.190437 0.929735 0.31516)
(0.465734 0.652752 0.597501)
(0.17164 0.445086 0.878885)
(0.204991 0.93622 0.28543)
(-0.144201 0.954408 0.261365)
(0.382528 0.465166 0.798306)
(0.427657 0.848792 0.310905)
(0.0711401 0.168558 0.983121)
(0.00786028 0.00260122 0.999966)
(0.0210343 0.0788822 0.996662)
(0.313872 0.949408 -0.0103989)
(0.189716 0.981837 0.00209379)
(0.419527 0.90774 -0.0021911)
(-0.0423519 0.998942 -0.0179275)
(-0.0287489 0.99951 0.0124179)
(0.27048 0.962695 -0.00767806)
(0.420118 0.907464 0.00318611)
(-0.613725 0.788685 -0.0363077)
(0.158814 0.786387 0.596971)
(-0.522606 0.563644 0.639678)
(0.153547 0.0191931 0.987955)
(0.282804 -0.110725 0.952765)
(0.227886 -0.017201 0.973536)
(-0.109191 0.994013 0.00394001)
(0.0862623 0.996272 0.000628495)
(0.182363 0.983225 -0.00343775)
(-0.12844 0.991484 -0.021502)
(-0.0283754 0.999574 0.00683959)
(-0.111084 0.993711 0.0140651)
(0.185789 0.982588 -0.00182392)
(0.00727725 -0.0111344 0.999912)
(0.0662062 -0.0199784 0.997606)
(0.0277996 -0.00862523 0.999576)
(0.0480789 -0.00235126 0.998841)
(0.00596808 -0.000973346 0.999982)
(0.00699743 -0.00142124 0.999975)
(0.0818501 -0.00716075 0.996619)
(0.993308 -0.00453674 0.115402)
(0.989632 -0.0103832 0.14325)
(0.00583497 -0.000476039 0.999983)
(0.0468 0.000865357 0.998904)
(0.00585528 3.36877e-05 0.999983)
(0.0840116 -0.0782905 0.993384)
(-0.0401914 -0.328253 0.943734)
(0.00438266 -0.111334 0.993773)
(0.128875 -0.092801 0.987309)
(0.534257 -0.0917346 0.84033)
(0.929694 0.110793 0.351274)
(-0.0612636 -0.374649 0.92514)
(-0.0355749 -0.385339 0.922089)
(-0.0556954 -0.448495 0.892048)
(0.269807 0.962842 -0.0117827)
(0.414062 0.910225 -0.00648626)
(-0.0467332 0.998824 -0.0128794)
(0.184164 0.98288 -0.00561702)
(-0.0443727 0.999009 0.00339249)
(0.251489 0.967836 -0.00681504)
(0.414771 0.909893 -0.00773482)
(0.266537 0.963801 -0.00676206)
(0.181594 0.983358 -0.00557626)
(0.417168 0.908807 -0.00634554)
(-0.0456369 0.99895 -0.00393902)
(-0.0449918 0.998985 -0.00214656)
(0.264002 0.964485 -0.00850314)
(0.417222 0.908783 -0.0062936)
(-0.0610286 0.998136 0.000347371)
(0.0693377 0.997575 -0.00604521)
(0.151004 0.988506 -0.00729081)
(-0.133481 0.991044 -0.00395798)
(-0.0921668 0.99574 -0.002531)
(-0.132714 0.991153 -0.00182752)
(0.153636 0.9881 -0.00741587)
(0.264544 0.964336 -0.00848345)
(0.417167 0.908808 -0.00634491)
(-0.0457379 0.998946 -0.0037656)
(0.181014 0.983465 -0.0055784)
(-0.045876 0.998944 -0.00268988)
(0.263607 0.964607 -0.00664773)
(0.417516 0.908647 -0.00644495)
(0.261098 0.965264 -0.00969091)
(0.178919 0.983835 -0.00748518)
(0.418303 0.908262 -0.0091041)
(-0.0488461 0.998797 -0.0043611)
(-0.0477093 0.998853 -0.00405375)
(0.259743 0.965589 -0.0130651)
(0.418249 0.908292 -0.00853686)
(-0.0866455 0.996237 0.00193457)
(0.0615375 0.998073 -0.00796523)
(0.124766 0.992143 -0.00929654)
(-0.137468 0.990498 -0.0039755)
(-0.134803 0.990868 0.00308217)
(-0.136204 0.990674 -0.00371551)
(0.130651 0.991386 -0.00919659)
(0.257474 0.966204 -0.012552)
(0.418438 0.908199 -0.009201)
(-0.049229 0.998777 -0.00459809)
(0.176061 0.98435 -0.00760343)
(-0.0507324 0.998703 -0.00422879)
(0.258493 0.965951 -0.0109939)
(0.418599 0.908128 -0.00888787)
(0.254554 0.964633 0.0684437)
(0.171821 0.984688 0.0294315)
(0.428811 0.899899 0.0793906)
(-0.04318 0.998496 0.033774)
(-0.0516074 0.998584 0.0129231)
(0.183701 0.538193 0.822559)
(0.425191 0.90424 0.0395346)
(-0.209024 0.97274 0.100432)
(0.0330491 0.999014 0.029657)
(0.00347808 0.997941 0.0640471)
(-0.132856 0.99016 0.0439608)
(-0.320499 0.92655 0.196941)
(-0.142119 0.989678 0.0184224)
(0.0215812 0.998914 0.0413017)
(-0.0217501 -0.00614605 0.999745)
(0.433715 0.888025 0.152654)
(-0.0367562 0.998645 0.0368296)
(0.220958 0.957707 0.184322)
(0.0183349 0.998882 -0.043566)
(0.135417 0.344259 0.929058)
(0.426874 0.847649 0.31507)
(0.77284 0.301621 0.558339)
(0.714848 0.25241 0.652136)
(0.593319 -0.247504 0.765973)
(0.382251 -0.0848183 0.920157)
(0.458563 -0.10202 0.882786)
(0.690091 0.250285 0.679067)
(0.00781499 0.933587 -0.358266)
(0.479779 -0.161342 0.862428)
(-0.0209554 0.607002 0.794424)
(-0.0264647 0.0630027 0.997662)
(0.353368 0.368032 0.860048)
(0.495129 0.860444 0.120347)
(0.0562795 0.481806 0.874469)
(0.0150587 -0.0556813 0.998335)
(0.0153434 0.877896 0.478605)
(0.275205 0.444728 0.852337)
(0.259786 0.957557 -0.124881)
(0.134837 0.985626 0.101784)
(-0.149431 0.988757 -0.00541099)
(0.261587 0.964749 0.0288207)
(-0.116155 0.98425 0.133269)
(-0.0315369 0.999374 -0.0160116)
(0.300741 0.952682 0.0441729)
(-0.202837 0.979012 -0.0198332)
(-0.106671 0.9941 0.0196666)
(-0.0309348 0.0133564 0.999432)
(-0.0224944 -0.0892563 0.995755)
(0.204913 0.245998 0.947362)
(0.573061 0.818613 0.0383955)
(0.560348 0.827255 0.0407398)
(-0.0281273 -0.0193478 0.999417)
(-0.0218967 -0.0123813 0.999684)
(0.0035508 -0.0629887 0.998008)
(-0.0540043 -0.0407519 0.997709)
(0.100169 -0.0402149 0.994157)
(0.964704 -0.0469438 0.25912)
(0.449509 -0.14259 0.881822)
(-0.649985 -0.07818 0.755915)
(-0.0978324 -0.0809301 0.991907)
(0.0107739 -0.0025636 0.999939)
(0.0112553 0.000923822 0.999936)
(0.824248 0.00708943 -0.566185)
(0.826974 -0.00477034 -0.56222)
(0.0804202 -0.00114788 0.99676)
(0.990903 0.0164274 0.133574)
(0.993813 0.0016625 0.111054)
(0.804651 -0.018964 -0.593445)
(0.825584 -0.00555956 -0.564252)
(-0.00836906 0.0257055 0.999635)
(-0.0481854 0.801418 0.596161)
(-0.0125018 0.0311313 0.999437)
(0.110764 0.763658 0.636049)
(0.0580026 0.998304 -0.00490749)
(0.010528 0.99994 -0.00293539)
(0.177277 -0.177363 0.968047)
(0.252083 -0.376773 0.891345)
(0.0780277 -0.592707 0.80163)
(-0.122044 0.992155 -0.02709)
(0.162897 0.975675 0.146705)
(0.00862084 0.999936 -0.00733848)
(0.157314 -0.457619 0.875121)
(0.156667 0.987646 -0.00321841)
(-0.106608 0.993555 -0.0384986)
(0.0408051 0.999142 -0.00715548)
(0.105722 0.991808 0.0716972)
(-0.00603824 0.999979 -0.0021934)
(0.165656 -0.454497 0.875209)
(0.540366 0.841411 -0.00572268)
(0.533286 0.845926 -0.00384246)
(-0.151461 0.988427 -0.00846826)
(-0.1452 0.989378 0.00694868)
(-0.0404784 0.999174 0.00356422)
(0.07529 0.997143 -0.00612712)
(-0.132357 0.99118 -0.00668512)
(0.165279 0.986218 -0.00756816)
(-0.129954 0.991517 0.00233707)
(-0.0740671 0.997253 0.000121797)
(0.170864 0.985265 -0.00765073)
(-0.145232 0.989389 -0.00405628)
(-0.142688 0.989761 0.00368573)
(0.521068 0.853504 -0.00422904)
(0.529462 0.848285 -0.00911099)
(0.0116358 -0.0197026 0.999738)
(0.0112784 -0.0190356 0.999755)
(0.0470127 0.998892 0.00228488)
(0.0495683 0.998771 -0.000134206)
(0.169122 0.985584 0.00460576)
(-0.283676 0.95605 -0.0741336)
(0.173922 0.984717 0.00914731)
(0.0545901 0.998507 -0.0021297)
(0.0501246 0.998743 -0.000420957)
(0.201547 0.979298 0.0188293)
(-0.320732 0.943311 -0.0854139)
(0.175566 0.984417 0.00999664)
(0.50544 0.862804 -0.0099611)
(0.505566 0.862775 -0.00483836)
(-0.145735 0.989322 -0.00153893)
(-0.14577 0.989318 -0.000772387)
(-0.0749679 0.997186 -0.000362154)
(0.0665281 0.997765 -0.00629734)
(-0.134837 0.990862 -0.003521)
(0.143321 0.989643 -0.00808525)
(-0.134153 0.990956 -0.0028668)
(-0.10811 0.994138 -0.00154803)
(0.146062 0.989246 -0.00761059)
(-0.146592 0.989196 -0.00131477)
(-0.146045 0.989278 -0.000884036)
(0.499994 0.866008 -0.00600054)
(0.504573 0.863305 -0.0104938)
(0.0249683 -0.0426614 0.998778)
(0.0243976 -0.0417381 0.998831)
(0.960983 0.101555 0.25729)
(0.964195 0.159627 0.211773)
(0.94656 0.256422 0.195632)
(0.893049 -0.0242944 0.449303)
(0.965474 0.103885 0.23889)
(0.151411 0.988002 0.0304458)
(0.959944 0.190674 0.205307)
(0.953269 0.0764329 0.292295)
(0.88487 -0.0128028 0.465662)
(0.964673 0.0968183 0.245015)
(0.46629 0.884563 -0.0110124)
(0.443467 0.896288 -0.00235242)
(-0.149371 0.988781 -0.00084596)
(-0.150401 0.988625 -0.000222712)
(-0.110639 0.993765 0.0138064)
(0.0508681 0.998685 -0.00634514)
(-0.1422 0.989838 3.43501e-05)
(0.0825273 0.996589 -0.000305059)
(-0.140398 0.990091 -0.00303354)
(-0.193533 0.980549 0.0326945)
(0.0970601 0.995265 -0.00527497)
(-0.152388 0.988317 0.00259757)
(-0.150987 0.988536 0.000237575)
(0.383487 0.923484 0.0106866)
(0.431728 0.901986 -0.0056875)
(0.0928111 -0.167133 0.981556)
(0.0899252 -0.157176 0.983468)
(0.937836 0.295275 0.182416)
(0.853893 0.125729 0.505033)
(0.888952 0.0930436 0.44845)
(0.752568 0.0687077 0.654921)
(0.845068 0.102154 0.524808)
(0.902941 0.114457 0.414242)
(0.860493 0.123501 0.494266)
(0.911407 0.352744 0.211919)
(0.743662 0.0741998 0.664426)
(0.838048 0.104445 0.535506)
(0.0536163 0.995476 0.0784455)
(0.279667 0.954458 0.103908)
(-0.14206 0.988717 0.047523)
(-0.0672753 0.997621 -0.0150425)
(0.0526895 0.986279 0.156455)
(0.202391 0.948904 0.242115)
(-0.00836069 0.997603 -0.0686933)
(0.130991 0.979995 0.149836)
(-0.0105784 0.995971 -0.0890449)
(0.359311 0.927842 0.100023)
(0.646558 0.583873 0.490973)
(0.747811 0.484228 0.454204)
(0.549719 0.295532 0.781325)
(0.579358 0.775063 0.252233)
(0.183089 0.460364 0.868645)
(0.102544 0.0873107 0.990889)
(-0.152577 0.886233 0.437392)
(0.231849 0.519229 0.822586)
(0.0383043 0.979651 0.197019)
(0.17962 0.977555 0.110101)
(-0.0854588 0.996332 -0.00430832)
(0.409448 0.909818 0.0677069)
(-0.119804 0.984126 0.130933)
(0.190938 0.979067 0.070507)
(0.408607 0.90253 0.135942)
(-0.195826 0.980522 -0.0151542)
(-0.283596 0.958936 0.00398753)
(0.691095 0.409931 0.595268)
(0.1307 0.115911 0.984623)
(0.358849 0.411662 0.837713)
(0.589052 0.804807 0.0728222)
(0.57899 0.800761 0.153472)
(-0.350905 0.169 0.921035)
(0.0698605 0.997547 0.00439789)
(-0.251607 0.277603 0.927162)
(0.0399291 -0.0157824 0.999078)
(0.0741531 0.109788 0.991185)
(0.0343162 0.0495351 0.998183)
(-0.0199062 0.00457879 0.999791)
(-0.226944 0.185489 0.956081)
(0.00737855 0.0866965 0.996207)
(0.100976 0.112184 0.988544)
(-0.0760598 0.10465 0.991596)
(0.0456988 0.070721 0.996449)
(0.279163 0.96017 -0.0119292)
(0.187346 0.982217 0.0122857)
(-0.0749319 0.99717 -0.00610348)
(0.397908 0.916875 0.0317724)
(0.0857411 0.995301 0.0450018)
(-0.0337485 0.999106 0.0254733)
(0.406268 0.913696 0.0102641)
(0.579144 0.815222 0.00219146)
(0.579349 0.815075 0.00272609)
(-0.137112 0.990477 -0.0124616)
(-0.116299 0.993168 0.00962471)
(-0.185615 0.982545 -0.0123608)
(-0.12494 0.991977 0.0192976)
(0.575449 0.816303 0.0500828)
(0.575844 0.817426 0.0148008)
(-0.668592 0.687179 0.284199)
(-0.0874246 0.0704736 0.993675)
(-0.397403 0.304681 0.865587)
(-0.0307478 0.846189 0.531995)
(-0.186066 0.520335 0.833445)
(-0.063461 0.0204313 0.997775)
(0.740123 0.275797 0.613313)
(-0.220336 0.253526 0.941901)
(0.059402 0.0217959 0.997996)
(-0.0158554 0.0162882 0.999742)
(0.166772 0.0212094 0.985767)
(0.0399766 -0.0908308 0.995064)
(0.120373 0.0147776 0.992619)
(-0.040912 -0.0317543 0.998658)
(0.111995 0.042655 0.992793)
(0.803841 0.146265 0.576581)
(-0.132616 0.991168 -0.000124975)
(0.0950101 0.995404 0.0120232)
(-0.145609 0.989339 -0.0025811)
(0.245395 0.969316 0.0143874)
(0.116931 0.993074 -0.0114191)
(-0.115448 0.992821 0.0312759)
(0.215847 0.976423 0.00271621)
(0.542853 0.839826 0.00173365)
(0.555225 0.831699 0.00141248)
(-0.143896 0.989464 -0.0159969)
(-0.121599 0.992501 0.0124555)
(-0.186527 0.982379 -0.0117852)
(-0.130426 0.991097 0.0267472)
(0.575296 0.817648 0.0220481)
(0.561068 0.827723 0.00885043)
(-0.0215932 -0.0113143 0.999703)
(-0.140264 -0.00646917 0.990093)
(-0.00193967 -0.00734411 0.999971)
(0.0610667 -0.0217956 0.997896)
(0.01088 -0.00340641 0.999935)
(0.02184 -0.0107139 0.999704)
(-0.135718 -0.00241889 0.990745)
(-0.0147222 -0.00228019 0.999889)
(-0.00481053 -0.00444872 0.999979)
(0.00569123 -0.000255907 0.999984)
(0.00537479 -0.00371984 0.999979)
(0.0486839 -0.00161112 0.998813)
(0.00998434 -0.00227904 0.999948)
(0.00756275 -0.00176283 0.99997)
(-0.0204978 -0.000637446 0.99979)
(-0.127808 -0.000141019 0.991799)
(-0.0194622 -0.00106937 0.99981)
(-0.0160077 -0.00134747 0.999871)
(-0.128038 -0.000742124 0.991769)
(-0.0187784 -0.0010249 0.999823)
(0.0822982 -0.00314362 0.996603)
(0.972137 -0.0331409 0.232059)
(0.988437 -0.0129542 0.151076)
(0.821861 0.0105381 -0.56959)
(0.794268 0.0225189 -0.60715)
(-0.691572 -0.0548841 0.720219)
(0.785223 0.0272423 -0.618614)
(-0.0206035 -0.000564802 0.999788)
(-0.126715 -0.000622135 0.991939)
(-0.0205238 0.000197692 0.999789)
(0.0470381 -0.000252222 0.998893)
(0.00715818 -0.00362913 0.999968)
(0.00601283 0.000354961 0.999982)
(-0.126455 -2.59703e-05 0.991972)
(-0.0196117 -0.00360196 0.999801)
(-0.0203735 8.66343e-05 0.999792)
(-0.0304427 -0.0823294 0.99614)
(-0.0161714 -0.0663242 0.997667)
(0.0709488 -0.043079 0.996549)
(0.00780633 -0.00802138 0.999937)
(0.00786501 -0.0633999 0.997957)
(-0.0940622 -0.304889 0.947732)
(-0.154963 -0.0563785 0.98631)
(-0.0325588 -0.103172 0.99413)
(-0.0193719 -0.00816101 0.999779)
(-0.140971 -0.0344188 0.989415)
(-0.024601 -0.0590268 0.997953)
(0.118365 -0.0632206 0.990956)
(0.989763 0.0169699 0.141712)
(0.950297 0.106458 0.292579)
(0.115948 -0.160399 0.980218)
(-0.595172 -0.0266188 0.803157)
(0.795675 -0.0189573 -0.605427)
(-0.661345 -0.0112114 0.749998)
(0.184666 -0.0674133 0.980487)
(-0.000884344 0.0286372 0.999589)
(0.18062 -0.0620613 0.981593)
(-0.117594 -0.35072 0.929068)
(-0.42522 0.763484 0.486087)
(-0.0819328 -0.443553 0.892495)
(-0.0723923 -0.344055 0.936155)
(0.036651 0.99849 -0.0409089)
(0.0872866 0.123766 0.988465)
(0.424035 -0.249737 0.870532)
(-0.0362986 -0.484615 0.873974)
(0.418759 -0.187836 0.888459)
(0.0304915 0.997595 -0.0622419)
(0.401483 -0.25795 0.878791)
(0.000458098 0.0369112 0.999318)
(0.0819019 0.973894 0.211715)
(0.0924326 0.0372513 0.995022)
(0.201473 -0.0488812 0.978274)
(-0.0134281 -0.500104 0.865861)
(0.0143196 0.0276553 0.999515)
(0.0163282 0.0340909 0.999285)
(0.110968 -0.0158548 0.993697)
(0.022903 0.0269905 0.999373)
(0.121484 -0.01426 0.992491)
(0.493092 -0.205425 0.845376)
(0.0413913 -0.0726413 0.996499)
(0.154554 -0.0395179 0.987194)
(0.156664 -0.0280221 0.987254)
(0.52961 -0.141463 0.836362)
(0.15922 -0.034194 0.986651)
(0.026573 0.033794 0.999075)
(0.0685683 -0.0800808 0.994427)
(0.123341 -0.013449 0.992273)
(0.00492457 -0.00637296 0.999968)
(0.00541435 -0.0073604 0.999958)
(0.192483 -0.0688639 0.978881)
(0.0126766 -0.00858216 0.999883)
(0.215832 -0.0707831 0.973862)
(0.0226745 0.998667 -0.0463592)
(0.449579 -0.121472 0.884942)
(0.443626 -0.140133 0.885189)
(0.425935 -0.175976 0.887475)
(0.0333423 0.998453 -0.0445011)
(0.440686 -0.147591 0.885445)
(0.013286 -0.00968886 0.999865)
(0.242473 -0.0709896 0.967557)
(0.222918 -0.0710311 0.972246)
(0.00303728 -0.000503776 0.999995)
(0.00275387 -0.00132072 0.999995)
(0.108963 -0.0167032 0.993905)
(0.0104098 -0.00186366 0.999944)
(0.107492 -0.0190634 0.994023)
(0.573004 -0.0951156 0.814014)
(0.167159 -0.0316574 0.985422)
(0.158681 -0.0297155 0.986883)
(0.155659 -0.0280065 0.987414)
(0.56749 -0.0951123 0.817868)
(0.156932 -0.0291504 0.987179)
(0.0101645 -0.00267559 0.999945)
(0.112691 -0.0220499 0.993385)
(0.108159 -0.0198217 0.993936)
(0.992253 0.0901978 0.0854246)
(0.994278 0.0764181 0.0746373)
(0.789065 -0.169884 0.590352)
(0.459803 0.84605 0.269777)
(0.992821 0.0805835 0.0883899)
(0.985086 0.141312 0.0981668)
(0.794067 -0.124635 0.594915)
(0.9913 0.0991542 0.0865554)
(0.460832 0.855137 0.237433)
(0.99426 0.074127 0.0771553)
(0.0594938 0.998217 -0.00485019)
(0.0600647 0.998187 -0.00389788)
(-0.168909 0.984757 -0.0415151)
(0.16899 0.985609 0.00407945)
(0.16986 0.985468 0.000845804)
(0.161398 0.986886 -0.00270592)
(-0.160677 0.986209 -0.0396733)
(0.169993 0.985445 0.000420395)
(0.0552343 0.998471 -0.00234781)
(0.0595489 0.998218 -0.00372352)
(0.991907 0.0913924 0.0881363)
(0.989964 0.094857 0.104752)
(0.781289 -0.0923304 0.617303)
(0.981513 0.135655 0.13502)
(0.981819 0.14632 0.120917)
(0.984486 0.143523 0.100941)
(0.780113 -0.0923547 0.618785)
(0.981978 0.147071 0.118701)
(0.988698 0.0917369 0.11858)
(0.989763 0.0947697 0.106714)
(0.577032 0.816689 -0.00732847)
(0.578562 0.815627 -0.00436974)
(-0.14355 0.989612 -0.00781925)
(-0.136627 0.990614 0.00415977)
(0.274812 0.961457 -0.00892245)
(0.183805 0.982946 -0.00577963)
(-0.0449075 0.998971 -0.00638075)
(0.417123 0.908823 -0.00704583)
(-0.0430566 0.999072 0.00106834)
(0.265912 0.963945 -0.010041)
(0.417395 0.908698 -0.0069393)
(-0.136649 0.990613 -0.00363636)
(-0.133944 0.990987 0.00199466)
(0.579955 0.814642 -0.00323842)
(0.579537 0.814868 -0.0112836)
(0.266947 0.963669 -0.00905534)
(0.181902 0.9833 -0.00573121)
(-0.0455244 0.998949 -0.00536543)
(0.416173 0.909257 -0.00720226)
(0.263181 0.964711 -0.0083152)
(-0.0450925 0.998982 -0.0014933)
(0.4166 0.909064 -0.0068985)
(0.581084 0.813839 -0.00252053)
(0.580692 0.81406 -0.0101216)
(-0.136433 0.990648 -0.00186761)
(-0.135715 0.990748 -0.000510274)
(-0.137654 0.990477 -0.00272856)
(-0.136151 0.990688 0.000104533)
(0.579563 0.81486 -0.0104843)
(0.580477 0.814271 -0.0031616)
(-0.0890069 0.99603 -0.00151697)
(0.0706215 0.997484 -0.00610829)
(-0.133244 0.99107 -0.00519645)
(0.162269 0.986716 -0.00779661)
(-0.0366214 0.999328 0.0014614)
(-0.13279 0.991144 -0.00105605)
(0.157966 0.987415 -0.00763822)
(0.506102 0.86246 -0.00477964)
(0.509838 0.860209 -0.0102515)
(-0.145487 0.989358 -0.00193741)
(-0.144808 0.98946 -3.77259e-05)
(-0.146398 0.989222 -0.00252867)
(-0.145036 0.989426 0.000688422)
(0.518417 0.855072 -0.0098013)
(0.512192 0.858856 -0.00502957)
(0.0222486 -0.0231587 0.999484)
(0.289648 -0.0670294 0.954783)
(0.272195 -0.0690078 0.959765)
(0.451103 -0.116168 0.884879)
(0.904318 -0.266335 0.33358)
(0.455442 -0.102181 0.884382)
(0.0217105 -0.022436 0.999513)
(0.248599 -0.0707525 0.966019)
(0.266371 -0.0695533 0.961358)
(0.462137 -0.0866385 0.882566)
(0.918564 -0.182482 0.350627)
(0.456969 -0.0980246 0.884065)
(-0.000441424 -0.011061 0.999939)
(-0.000299608 -0.0105444 0.999944)
(0.00856106 -0.0125234 0.999885)
(0.139503 -0.0274391 0.989841)
(0.127051 -0.0255364 0.991567)
(0.170942 -0.0323396 0.98475)
(0.62628 -0.0960404 0.77366)
(0.184851 -0.0343854 0.982165)
(0.00857331 -0.0119926 0.999891)
(0.114929 -0.0227723 0.993113)
(0.12355 -0.0248676 0.992027)
(0.209326 -0.0369132 0.977149)
(0.634442 -0.0958784 0.767001)
(0.19033 -0.0350517 0.981094)
(0.017053 -0.0295534 0.999418)
(0.0174367 -0.0302198 0.999391)
(0.295584 -0.0662322 0.953018)
(0.031404 -0.0334254 0.998948)
(0.313997 -0.0637509 0.947281)
(0.880379 -0.0506906 0.471554)
(0.483975 -0.0617744 0.872899)
(0.474177 -0.0704425 0.877607)
(0.464189 -0.0831048 0.881829)
(0.887767 -0.0579556 0.45663)
(0.471364 -0.0734846 0.878872)
(0.0320754 -0.0341187 0.998903)
(0.340897 -0.0599607 0.938186)
(0.32043 -0.0628528 0.945185)
(-0.00228856 -0.0182608 0.999831)
(-0.00238817 -0.0187331 0.999822)
(0.144288 -0.0280188 0.989139)
(0.00958637 -0.0200252 0.999754)
(0.161176 -0.0296579 0.98648)
(0.690521 -0.088861 0.717833)
(0.281087 -0.0401155 0.958843)
(0.250248 -0.0393205 0.967383)
(0.216489 -0.0374617 0.975566)
(0.684753 -0.0903604 0.723152)
(0.241046 -0.0389424 0.969732)
(0.00973373 -0.0205253 0.999742)
(0.190229 -0.0314075 0.981237)
(0.167681 -0.030156 0.98538)
(0.98679 0.0730513 0.144596)
(0.987712 0.0828594 0.132508)
(0.981543 0.133491 0.136944)
(0.801081 -0.0923294 0.591393)
(0.981844 0.115251 0.150663)
(0.988582 0.0909639 0.120129)
(0.987828 0.0840182 0.13091)
(0.981626 0.0900212 0.168245)
(0.804119 -0.092137 0.587285)
(0.981871 0.112274 0.152725)
(0.0467626 0.998902 0.00268897)
(0.0509795 0.998677 0.00677545)
(0.914612 -0.237103 0.327518)
(0.930334 0.315287 0.18728)
(0.38862 0.919403 0.0605984)
(0.20809 0.977891 0.0206897)
(0.895935 -0.322724 0.305204)
(0.339667 0.939195 0.0503823)
(0.118094 0.992724 0.0235332)
(0.0531738 0.998556 0.00767063)
(0.986638 0.0712418 0.146527)
(0.985166 0.0579312 0.161529)
(0.82055 -0.0864413 0.565)
(0.975878 0.0319254 0.215972)
(0.979651 0.0566252 0.192556)
(0.981539 0.0862548 0.170707)
(0.819442 -0.0875944 0.566429)
(0.980015 0.0602837 0.189567)
(0.982246 0.040202 0.183239)
(0.984893 0.0557438 0.163945)
(0.58103 0.813823 -0.00977764)
(0.581686 0.813409 -0.00272334)
(-0.136607 0.990624 -0.0017185)
(-0.136443 0.990648 -0.000865264)
(0.264089 0.964476 -0.00649362)
(0.180805 0.983502 -0.0058111)
(-0.046611 0.998907 -0.00363554)
(0.417858 0.908485 -0.00705261)
(-0.0460006 0.998937 -0.0030011)
(0.262747 0.964814 -0.00990052)
(0.417806 0.908513 -0.00650246)
(-0.136951 0.990577 -0.00146099)
(-0.136473 0.990643 -0.00111764)
(0.582254 0.813 -0.00339391)
(0.581753 0.813303 -0.0100641)
(0.261609 0.965105 -0.0115052)
(0.179567 0.983721 -0.00702497)
(-0.0467662 0.998899 -0.00381039)
(0.417955 0.908437 -0.00750503)
(0.262271 0.96496 -0.0081636)
(-0.0474286 0.998868 -0.00375356)
(0.418108 0.908361 -0.00812415)
(0.583781 0.811893 -0.00548382)
(0.583019 0.812369 -0.0121099)
(-0.138433 0.990371 -0.0015759)
(-0.137617 0.990484 -0.00152254)
(-0.137064 0.990561 -0.00155164)
(-0.137426 0.990511 -0.00133319)
(0.582264 0.812926 -0.0109465)
(0.582974 0.812479 -0.0045216)
(-0.119264 0.992863 -5.15138e-05)
(0.0631673 0.997975 -0.00752953)
(-0.135078 0.990829 -0.00355125)
(0.139804 0.990142 -0.00855983)
(-0.0796517 0.996823 0.000383138)
(-0.135821 0.990727 -0.00353862)
(0.13559 0.990725 -0.00887487)
(0.472546 0.881285 -0.00606654)
(0.485221 0.874311 -0.0118554)
(-0.148792 0.988868 -0.000992532)
(-0.147752 0.989024 -0.00101454)
(-0.146832 0.989161 -0.00118534)
(-0.147315 0.989089 -0.00102476)
(0.497343 0.867477 -0.011546)
(0.489124 0.87219 -0.00646786)
(0.0464029 -0.0465589 0.997837)
(0.407467 -0.051265 0.91178)