/*--------------------------------*- C++ -*----------------------------------*\
| =========                 |                                                 |
| \\      /  F ield         | OpenFOAM: The Open Source CFD Toolbox           |
|  \\    /   O peration     | Version:  2012                                  |
|   \\  /    A nd           | Website:  www.openfoam.com                      |
|    \\/     M anipulation  |                                                 |
\*---------------------------------------------------------------------------*/
FoamFile
{
    version     2.0;
    format      ascii;
    class       volScalarField;
    location    "0.104/solid";
    object      sigmaEq;
}
// * * * * * * * * * * * * * * * * * * * * * * * * * * * * * * * * * * * * * //

dimensions      [1 -1 -2 0 0 0 0];


internalField   nonuniform List<scalar> 
24998
(
290.448
10.2741
233.622
156.372
767.669
814.565
782.361
746.959
667.731
317.271
222.879
1018.36
18.7783
238.959
833.468
230.181
168.335
156.695
167.742
557.59
565.14
959.127
1000.42
966.955
786.275
962.503
928.819
753.22
921.488
835.183
686.325
803.489
62.8435
118.933
191.99
499.419
803.403
225.543
267.165
187.746
169.807
184.089
183.588
160.787
391949
344.935
338616
184302
247298
801.943
211757
293701
167412
117970
771.887
64202.6
126779
70967.3
45981.7
723.044
1288.85
15329.1
21351.5
1834.67
90.7751
493.835
972.474
170.113
281.724
213.194
361.344
317.25
195.415
997.974
164.166
222.167
361.93
166.342
188.602
818.356
296.049
178.979
233.06
184.277
187.494
178.091
231.167
233.151
168.739
230.714
172.176
232.007
299.867
183.725
175.022
424.677
233.301
161.824
355340
585.038
128713
164419
242194
453731
448857
461949
99082.4
93146.1
478119
385892
299305
350022
117906
157767
274319
446197
338658
454088
75724.8
91410.5
342243
56365.9
85449.3
175329
237301
76315.6
84852.1
985.159
978.525
796.001
196671
112998
269393
83370.3
233093
331781
233481
73556.8
335119
60257.8
206469
131436
191926
58940.2
79804.6
123848
226860
140363
227102
47645.2
58585.4
139234
74996.7
65571.4
75274
111807
52882.3
64132.6
950.555
945.82
767.81
61532.9
56442.2
119572
40677.4
66299.4
135125
65132.9
46097.3
133956
34587.1
60595
17374.4
58149.1
22793.1
38522.9
17282.8
62425.1
16962.9
61292.5
19288.6
32808.9
16575.4
51072.8
37132.2
23950.9
42988.2
19588.2
34991.2
892.869
880.994
713.802
1388.58
20400.5
15326.7
2097.61
1245.95
14864.1
1362.35
17222.9
14530
2494.39
17388.2
2223.52
108.044
865.573
426.227
317.968
264.963
559.508
517.151
633.951
330.428
454.385
51.2864
213.136
43.9797
31.1588
155.962
31.3951
99.7547
8644.03
1813.64
238.607
469.09
859.442
807.751
251.222
862.762
461.833
217.511
435.696
845.997
778.916
221.584
842.524
433.004
189.232
407.57
818.351
739.846
200.916
808.595
401.892
119.387
372.134
711.036
617.359
148.121
604.497
356.107
263.704
269.695
593.297
591.708
760.739
324.242
562.085
284.919
348.937
338.971
257.103
1027.15
962.115
985.35
1013.73
240.338
965.751
71.2465
79.904
89.1546
323.373
66.8296
180.834
263.853
846.473
476.174
878.858
250.486
916.755
485.25
333.575
226.302
300.892
171.635
265.135
268.278
160.805
31.0548
28.873
264.571
167.442
264.432
220.255
821.993
330.435
190.787
70.8819
21.4221
1414.68
6865.29
9285.23
229.685
944.784
967.32
992.131
966.107
237.36
937.586
221.199
970.932
916.486
948.778
954.352
219.173
920.003
225.545
789.801
438.511
848.129
221.031
853.326
441.379
217.039
912.487
946.449
958.557
942.405
218.683
909.202
211.034
935.187
883.241
918.805
926.378
207.003
888.893
208.579
758.686
412.552
821.017
200.686
827.983
416.904
199.105
876.802
915.868
913.12
905.397
206.134
869.453
159.559
853.718
815.242
808.973
849.874
190.144
823.979
152.785
695.992
374.87
727.681
146.581
760.251
374.506
532.329
808.514
788.457
746.189
672.551
210.112
818.43
77.7055
109.665
323.77
1005.12
781.16
137.099
2509.67
457.8
154.302
532.295
393.4
431.818
462.913
469.318
791.679
469.14
358.67
730.578
807.188
527.541
735.097
298.027
544.415
555.418
542.379
541.103
421.94
539.562
409.413
440.835
192.656
191.222
55.8058
48.7806
203.872
24.9028
34.5332
17.815
40.8538
183.257
183.24
24.4831
24.7025
156.227
29.1787
31.243
23.0934
24.5968
439318
1471.65
451519
2249.63
411414
460623
67.3421
1238.58
14398.8
291580
278505
413715
2673.94
367067
278936
409108
327629
466881
2044.21
334.214
320.942
583.905
583.514
238.513
806.551
859.382
451.715
868.372
230.572
456.027
575.566
584.632
306.483
316.296
249449
254920
209413
249785
267723
144914
229852
298768
255753
188988
137843
224594
287.884
285.14
563.252
560.425
218.072
775.6
836.785
427.419
841.535
213.56
430.327
555.394
559.389
278.206
283.984
91567.8
95757.2
65646.2
90464.8
113087
59247.3
86992.1
123672
94341
61342.5
55707
83536.4
252.959
240.07
536.978
526.24
189.125
731.841
791.363
388.74
804.816
172.202
395.545
503.851
521.418
218.671
235.706
3733.09
4679.48
1843.25
9812.96
22202.5
13577.3
11375
22597.7
11226.6
1737.01
10962.1
9993.58
182.771
166.96
382.018
313.931
102.351
607.321
557.749
291.822
297.065
174.039
103.107
89.9137
249.883
720.953
514.639
328
824.021
328.57
270.07
861.797
929.493
956.906
861.144
289.504
842.969
648.173
660.333
93.6301
272.149
233.926
1125.85
880.921
340.236
3187.56
357.489
596.112
299.398
356.02
367.043
314.684
338.633
267.02
463.686
326.312
258.993
1013.71
917.618
950.674
291.499
988.501
948.561
1087.53
1090.91
681.285
703.523
646.292
692.246
1085.04
1081.62
56.6624
446.007
127.356
79.1093
101.746
466.532
202.129
150.163
340.402
295.152
198.459
69.2934
182.309
249.288
181.714
239.015
266.51
835.443
800.533
514.466
301.484
889.912
500.293
334.955
349.565
594.93
622.23
557.238
610.021
407.017
362.945
354.301
233.308
295.67
201.774
276.042
293.505
232.073
287.554
294.499
185.956
186.2
173.145
274.28
269.606
280.682
232.591
283.131
286.607
232.95
283.954
161.577
25.4012
28.4071
24.2725
22.3968
18.4703
21.8654
280.183
230.193
280.102
167.991
269.787
265.131
230.38
285.192
280.809
190.531
188.599
198.205
273.081
301.441
785.502
260.368
342.828
288.201
247.035
315.361
183.21
28.4895
22.387
47.7174
16.5524
22.5256
17.5056
101221
399203
108398
1305.04
1955.72
7654.83
12358.4
198597
74207.8
59301.7
14367.5
53777.8
187230
56590.8
411269
2429.23
123104
111309
12299.4
509426
520031
319269
519600
346861
93855.9
261998
284547
259649
94600.6
280559
529179
313046
351638
344771
339017
99594.7
314110
96053.7
133713
57592.2
55792.4
53783.8
139375
55152.5
309088
91986.3
95058.8
394909
387752
308415
400657
275243
82547.3
188599
215124
251056
84868
224133
393211
232060
264273
296212
313074
78284.9
218396
293137
275287
82712.6
292643
255480
313606
404402
356872
200365
273275
313073
360884
209179
318898
305077
350266
292878
267355
80261.6
218175
243749
271968
81546.3
247364
236105
263523
1077.45
1069.3
670.889
668.096
229.434
990.061
961.923
932.954
970.625
224.96
937.269
659.818
668.596
1064.87
1070.73
221.448
974.076
957.116
926.289
223.931
954.303
922.398
1050.33
1055.36
648.512
653.015
656.528
653.702
1061.44
1056.12
225.042
792.398
854.598
447.928
231.225
853.007
444.431
288.839
294.21
564.848
569.193
572.162
569.731
304.444
296.436
230296
80349.4
85444
58064.3
99292.7
58892.8
235152
90852.1
86939.1
58374.7
95062.2
58946.9
278026
284617
279613
153735
181584
179999
67462.1
155143
286399
221610
191301
124631
65570.6
147213
170368
165351
78448.8
159354
72163.2
67078
51458.6
54941
57938.5
70040
55871.3
154799
62603.3
69890
184771
178990
144910
184190
119949
52257.5
74365.5
91426.2
117524
53805
97596.6
178319
90394.9
112151
172760
200357
214502
71042.4
188821
232140
204326
159798
69705.7
185166
203863
166689
89529.8
117078
146749
184088
94742.1
151225
128166
161633
168858
141942
57992.8
104612
128111
156217
59597.2
131561
112431
138171
1048.56
1044.01
646.85
643.814
216.764
954.798
936.096
902.365
941.283
214.78
906.085
638.589
642.722
1037.24
1042.7
211.628
940.753
934.137
898.198
214.312
928.414
893.775
1018.37
1026.77
622.983
630.005
636.914
631.98
1035.44
1028.97
208.185
763.467
835.019
424.211
214.004
829.846
420.728
256.218
265.831
539.977
546.943
553.764
548.926
276.117
268.343
87055
41059
49333.1
50080.8
49417.5
45364.6
90942.6
60040.9
52062.1
37927.5
47191.4
43617.3
96022.5
100626
94725
44857.5
59785.1
69166.8
41340
55019
99324.9
83701.7
65333.3
39399.6
39702.6
50776.7
37722.3
34819.8
38301.7
36614
30138.6
29733.9
20418.2
27293.6
35902.4
31971.1
29512.9
33866.2
19703.1
27473.7
38127
35076.5
40445.8
37300.6
28842.2
25305.6
17181.1
24395.8
36032
27240
27055.9
34301.7
16831
25493.3
60103.9
81638.1
101363
45358.5
79543.1
108866
84902.7
56994.5
43358.4
76574.3
62436.4
42345.9
31835.7
23954.8
38048
58462
34527
40343.1
24476.2
39819.2
57237.4
38855.4
26234.7
21985.1
35474.3
54388.5
28448
37638.7
21847.4
36488.1
1015.48
1004.66
620.034
610.561
197.66
903.604
886.432
852.119
901.288
184.612
861.252
586.694
605.411
988.339
1001.03
161.795
868.068
880.681
842.586
182.146
858.743
832.831
970.675
971.476
466.24
527.859
579.302
543.554
984.595
973.505
152.731
704.643
786.19
382.109
171.671
767.536
376.852
185.726
193.376
401.881
452.593
496.026
465.693
213.441
196.363
4064.13
3325.16
7612.17
18067.5
13050.2
10929.7
5020.07
17193.9
9917.58
3325.87
10539.3
8572.69
3194.27
4105.72
3185.07
3502.07
5895.51
14969.2
10886.1
8710.46
4075.01
14341.2
7788.48
3547.66
8716.17
6754.98
909.65
8042.98
20300.9
10854.2
10027.5
20043.3
9333.88
1002.45
8662.23
8740.64
975.085
1024.92
439.366
357.944
606.82
692.329
629.611
1029.47
346.812
1085.08
375.571
378.765
54.6921
19.5316
197.223
232.659
203.309
125.857
156.251
125.223
448.074
2055.11
1232.36
223.595
302.846
304.258
99.3702
32.0173
19.5662
86.5568
268.367
194.651
213.166
290.507
238.319
284.257
169.23
231.944
232.954
158.623
126.129
127.38
231.336
167.421
231.01
359.288
720.465
459.77
282.8
339.419
193.988
1260
1774.13
2432.66
83.3969
49.2349
79.7252
138.5
80.8753
76.0803
87.1273
396.791
89.4496
110.285
47.686
148.761
481.918
188.978
316.803
163.359
345.326
297.941
376.308
314.749
252.139
794.494
746.619
653.718
490.862
620.679
546.054
617.96
508.11
178.913
343.686
275.95
348.096
245.431
426.832
89.9647
218.038
50.2016
188.865
36.8526
37.1545
174.385
138.544
143.494
36.168
183.965
36.2272
183.743
37.0072
36.93
158.698
129.342
127.178
410631
133.171
517.302
210.655
472118
23658.3
20632.1
479331
498919
186092
279680
193347
270978
72096.1
258709
257614
272920
518856
576357
227771
276979
256585
276630
186603
159704
175163
360163
338882
132697
124364
142817
75491
113133
78494.6
91653.2
82676.6
66865.4
75191.7
152463
136129
49270.2
49088.2
55177.2
1526.94
9944.07
1393.92
2868.03
21710.8
18756.8
17594.4
22182.8
15766
1439.03
5215.57
5612.99
507.838
584.836
724.31
386.395
189.738
110.035
129.321
161.947
126.656
173.878
298.492
684.978
745.626
652.994
450.574
602.57
494.862
574.104
106.062
223.04
115.251
209.663
116.003
213.675
141.477
113.561
316.049
240.276
888.2
111.757
388.207
305.189
553.169
252.087
638.849
366.885
321.074
360.048
208.445
182.169
245.572
208.764
248.462
143.714
239.554
158.972
111.457
286.73
273.117
324.999
194.975
124.432
290.048
181.527
305.499
224.463
320.21
188.478
283.466
111.24
159.254
184.241
138.442
217.33
130.143
132.137
131.11
163.999
199.782
163.555
193.52
120.533
184.326
355.767
265.959
324.862
179.977
243.197
244.45
233.012
294.337
293.374
36.1758
185.283
36.2312
36.6901
187.254
36.5129
176.659
242.309
240.847
293.909
231.733
294.44
295.185
233.278
295.654
165.908
137.381
134.211
293.424
230.487
293.069
170.287
236.198
234.201
231.328
296.59
295.237
108.264
219.988
53.9209
37.0963
185.095
37.0504
179.433
239.309
244.103
593.064
333.859
443.626
298.618
235.708
301.928
167.78
130.322
134.339
273492
371954
286251
881.108
850.354
1395.25
251077
200724
52758
91374.1
76020.9
110221
171455
115352
475044
61292.6
227855
336298
47234.1
476715
507726
366900
485925
386206
117209
151629
172872
139527
94347.7
142939
523618
343371
417222
368053
316214
268784
334424
257241
122989
80511
83504.3
105628
151382
101357
289149
211949
222778
423939
359490
361077
430886
342420
77954.6
104019
108472
135540
89370.3
131238
363847
272230
289360
465651
482307
78104.1
88629.4
125101
154482
85519.3
158462
496995
527166
472691
452344
183454
190469
202342
254050
227625
240338
367292
388738
459720
441015
77631.8
127807
132818
152869
83906.1
147970
359776
380435
210996
153724
164398
77685.6
108260
75022.3
254665
208031
197227
62032.1
87100.5
63882.6
252081
311351
252943
186140
201379
99663.4
71455.6
95416.9
313987
266531
249832
72753.3
61976.8
76172.5
190801
145695
150115
177830
139541
61537.2
49865.7
51252.3
60287.6
76395.9
58629.3
136899
98778
108704
208488
156505
180955
208337
166285
49183.2
50298
52682.5
69471.2
56962.2
66342.4
155536
111918
124583
252573
272051
126089
73683.2
121025
352897
332348
100138
66982.8
105425
249999
230541
79800
85255.7
93287.9
129416
105880
119789
158062
175294
246165
227215
54633.7
71591
76924.6
98352.8
62664.9
93023.6
156233
173169
72088.6
51443.6
59595.9
48476.5
54030.4
47076
107013
95612.6
86021.2
37886
42832.2
39548.8
78486.6
119862
77241.2
54011.6
63351
48011.1
44533.7
45807.2
118605
107649
95747.4
33799.6
36327.5
35708.3
50263.6
24203.8
48979
48444.3
41453.8
25146.2
22014.2
24251.5
36156.2
36359.1
34356.4
23793.2
17375.4
22606.6
51394.1
24008.7
50955
50379.2
42552.5
21326.2
18468
20445.9
31907.6
30991.8
30020.7
23453.3
16318.5
21678.8
77489.1
90588.5
69817.9
49218.3
64540.7
150722
134620
44285.3
39240.6
49187.3
74307.5
62361.6
26557.7
23111.1
27454.3
47386.3
40090.1
41945
24564
32434.6
73314
61388.7
21798.5
20821.9
24851.6
42687
32830.1
37974.7
23477.5
31410.4
1648.19
2668.05
2744.66
19714.9
17974.8
17362.5
10158.3
15919.7
11539.6
2819.07
4998.6
4854.02
1317.53
9374.8
1336.48
2653.33
2494.42
16464.6
15132.9
14435.5
9192.59
14717.5
10402.3
3191.89
4215.05
4099.64
903.772
1955.27
19525.2
15203.2
15723.2
21076.8
14620.6
1518.03
4063.69
4806.71
929.915
662.368
774.484
1046.47
238.936
271.226
168.773
142.835
148.525
233.42
225.233
362.524
398.262
539.474
483.14
416.726
317.473
432.087
260.122
481.971
191.446
525.129
308.213
539.572
522.867
1008.09
432.107
557.205
619.16
537.795
395.53
874.14
283.376
349.513
395.073
480.073
359.377
140.531
165.387
39.111
164.188
231.161
182.689
200.799
42.7981
146.669
162.78
91.1481
31.7997
90.4064
156.196
125.388
125.174
31.7249
90.721
90.3942
334.52
294.337
945.363
3050.42
6049.18
1766.94
428.877
4938.33
1342.94
510.185
246.506
422.876
306.405
307.884
418.962
512.137
511.206
246.249
313.72
421.587
516.601
311.056
417.412
498.287
219.832
406.076
289.977
290.466
406.56
497.678
499.341
219.292
291.82
408.115
500.171
291.407
407.323
477.119
195.631
380.125
268.06
270.134
382.796
475.12
479.501
195.57
274.261
387.893
481.164
272.675
385.714
417.497
146.424
270.759
224.55
241.373
296.256
383.917
436.161
146.281
248.338
323.788
444.889
249.098
314.51
695.964
715.454
370.339
639.413
562.823
712.509
773.575
485.13
317.364
344.329
415.088
397.39
545.785
417.663
235.886
321.455
304.55
330.903
351.671
332.842
334.644
345.211
329.11
986.199
709.466
251.104
748.681
978.556
756.628
714.416
980.973
247.282
740.154
698.262
969.616
751.178
709.328
126.85
55.872
104.658
110.125
85.8394
100.402
272.181
126.044
97.2451
78.0333
69.5605
91.9908
110.645
65.3531
94.3137
78.9227
57.8565
93.9691
100.111
276.151
254.418
222.099
165.244
130.43
172.398
212.926
139.991
176.608
550.621
252.95
469.488
332.866
551.989
328.671
466.866
540.939
253.589
318.897
434.078
527.879
323.174
451.16
315.283
315.738
302.699
240.519
289.888
296.048
306.644
304.493
307.241
170.343
235.547
234.17
251.372
266.216
252.521
254.916
267.286
253.716
159.157
129.892
127.901
91.3454
30.5132
92.2848
94.5958
30.2609
92.6913
250.76
264.448
250.588
167.3
231.018
230.884
264.383
250.536
250.496
264.902
289.383
342.313
802.631
527.188
507.632
314.85
392
374.707
244.179
149.205
175.466
252.643
29.2778
142.386
109.462
24.2581
128.829
1409.19
2626.43
2708.09
3325.78
10370
4574.26
4690.7
10738
5015.41
944.827
678.622
230.488
719.702
715.237
676.122
947.49
947.772
231.543
723.787
685.99
955.841
715.822
678.205
932.115
667.388
219.699
710.127
933.163
708.262
666.248
929.827
219.151
705.801
663.565
928.371
706.181
664.63
503.991
222.751
412.861
295.279
504.433
294.783
412.251
502.72
223.316
292.928
409.471
501.61
293.636
410.783
922.172
658.691
216.594
700.813
700.002
658.774
921.697
924.054
216.964
703.645
661.697
925.82
701.173
659.945
902.563
646.618
208.72
688.212
904.642
685.51
644.57
899.317
207.863
682.596
640.946
897.605
682.916
642.286
486.432
204.794
395.489
280.598
487.58
279.6
394.041
484.634
205.11
276.39
390.255
483.22
277.761
392.021
887.059
630.099
201.441
672.895
673.729
632.346
884.623
891.285
202.83
680.233
638.466
894.056
677.082
635.644
832.379
575.576
159.01
647.015
838.955
645.069
564.586
823.247
159.383
644.682
537.576
815.001
642.885
550.567
450.907
147.046
341.673
244.089
452.866
243.117
337.435
450.314
148.18
245.797
329.525
448.196
244.533
333.042
775.898
519.181
352.17
740.79
698.373
507.142
773.884
793.601
309.046
656.847
524.707
803.709
671.021
514.102
98.6643
60.3025
132.799
107.171
142.779
102.08
92.441
98.8591
82.7529
65.0669
173.156
186.198
57.5842
119.861
116.982
440.532
220.382
240.502
178.193
235.675
163.908
397.728
991.692
540.659
2650.52
3174.9
763.756
1015.43
1701.66
879.318
2159.54
339.452
140.097
80.8457
232.145
229.246
143.169
249.081
565.374
251.411
6833.73
984.908
1923.04
921.591
325.396
478.378
616.595
307.336
745.235
295.826
1563.14
336.201
355.805
582.116
1030.79
124.485
198.923
227.713
442.917
202.886
269.523
441.039
463.045
520.984
573.602
633.196
419.377
466.722
1014.19
1076.3
245.412
514.493
413.618
652.868
351.754
342.14
290.944
820.216
408.162
722.816
1064.88
744.986
1025.92
369.951
696.958
3966.94
552.729
781.409
482.439
454.371
647.395
689.38
530.27
634.35
442.593
1508.35
819.483
896.057
1233.98
416.442
614.239
644.1
721.729
568.915
539.432
493.406
302.503
410.559
538.944
458.386
373.87
533.033
313.168
438.273
353.353
448.502
360.435
525.579
436.32
393.225
553.109
448.596
452.528
470.087
537.373
446.122
397.044
401.416
572.539
470.516
528.894
605.614
635.786
410.445
555.155
555.995
342.937
428.511
603.429
670.041
281.025
518.651
610.167
1052.58
610.972
634.787
657.25
691.455
617.767
411.713
338.538
320.039
415.003
339.907
328.368
339.664
402.77
425.372
318.997
208.561
40.326
45.9215
189.304
39.2689
37.5544
27.7779
44.2368
52.9919
45.1365
55.5182
52.5377
177.722
172.81
147.439
102.007
23.9219
106.402
136.453
23.1486
110.137
81.7672
18.6154
74.4317
58.7
21.5607
72.0646
183.85
36.3638
36.2751
183.72
36.4429
36.8143
92.9747
24.8166
93.1148
24.8322
93.0237
93.4301
158.107
125.616
126.638
94.0094
30.562
92.0465
90.9124
30.9609
91.5828
91.7247
24.0315
93.0277
93.4823
24.3204
92.811
417333
584.174
1179.2
248.692
499873
14297
2304.58
11530.7
465740
432784
486436
525795
505436
439955
514752
493397
54.8017
189.337
37.1274
279.293
103.704
37.7808
72374.8
8439.29
46655.9
280984
294910
290384
243579
410389
25297.3
302826
60415
323655
417975
322302
6435.28
22077.1
45096.9
285575
385760
300926
268362
291434
277563
391911
320324
305915
533469
561443
447474
473456
27265.3
554457
10417.5
522426
474540
544437
225.305
19445.2
2453.98
264.67
270.337
277.946
331.625
277.206
276.857
273.558
273.015
327.108
272.411
385.924
381.965
457.241
580.09
452.51
388.968
385.956
459.346
580.414
451.821
513.961
425.137
233.022
304.879
513.706
424.918
303.989
512.029
233.615
417.804
301
421.533
302.249
509.524
384.081
382.359
579.67
448.985
455.842
459.147
583.123
457.428
376.537
381.196
261.83
258.631
264.03
309.557
263.721
255.906
257.29
267.894
312.48
268.036
233157
271439
303945
283399
245499
226403
264927
291475
232172
271498
206536
251274
193849
152204
160419
171437
245863
177439
189699
310868
331835
346393
280080
325557
298217
273933
318670
146436
203982
157770
130991
156833
146253
209069
173434
161622
240.371
241.375
250.439
287.476
250.381
243.224
242.18
248.924
286.672
248.386
363.929
364.468
439.511
562.117
438.118
366.346
365.533
436.797
561.095
437.5
495.949
405.241
215.665
289.035
496.671
404.447
288.547
494.687
216.159
402.139
286.567
403.185
287.364
493.759
362.944
361.919
556.763
432.13
433.919
436.201
558.23
434.68
359.505
360.794
239.518
238.304
244.662
280.941
244.159
235.72
237.305
246.723
282.75
246.747
79405.3
108698
110534
96233.1
75240.5
75781.5
87652.6
105515
79328
91979.7
89965.3
101502
81471.2
62963.8
65853.6
72794.8
97773
70864.8
78743.2
115482
130843
145394
110638
129826
110206
106447
124797
52094.4
70421.9
58755.9
52322.8
63634.9
57222.7
73592.9
68341.1
61075.4
209.208
213.497
225.96
249.17
225.699
219.241
215.777
219.891
245.283
219.939
333.231
337.834
416.466
533.774
412.112
343.724
340.116
405.068
529.934
410.339
470.118
376.622
181.41
265.138
472.435
373.28
262.677
467.183
181.04
365.161
256.501
369.028
259.38
464.657
330.491
324.41
510.291
384.656
393.365
403.005
516.202
395.832
313.631
321.301
206.512
201.345
204.173
225.306
204.723
192.22
198.265
213.076
230.36
212.412
1823.46
8415.03
7470.2
3847.58
1592.45
4541.47
3381.81
8234.16
5803.41
4459.11
21888.4
17278.8
17599.9
16162.3
12292.8
16258.1
15740.5
12160.4
16214.9
8893.18
13869.1
22403.2
17371.2
16330.9
9662.27
15755.8
14516
1471.34
4704.48
5457.29
8299.2
10987
7003.53
6000.32
10831.2
6836.25
157.363
174.399
168.715
173.516
165.161
170.356
171.191
149.719
164.588
155.417
195.806
228.687
311.912
359.946
286.577
253.397
233.704
245.943
334.933
281.372
345.176
236.29
66.4906
189.324
368.968
213.076
174.641
493.64
573.443
340.269
734.879
437.857
238.876
219.571
348.051
414.37
169.599
232.206
174.949
185.745
158.539
446.028
231.533
236.077
301.878
228.572
144.777
145.409
123.422
208.563
197.928
153.919
137.28
171.107
141.547
509.717
518.988
912.761
109.921
200.296
200.146
529.154
189.299
446.722
199.026
113.35
39.6738
136.917
98.6587
109.83
175.801
735.55
233.621
278.514
192.881
450.539
128.558
227.65
359.739
413.874
799.357
529.016
759.766
1046.94
759.547
1139.64
454.425
810.104
4037.66
562.445
658.688
389.994
310.553
382.744
350.895
412.398
485.26
631.102
1688.44
957.622
855.589
588.435
405.462
385.528
674.751
404.094
484.828
916.184
715.058
279.733
683.621
863.244
715.422
735.702
960.808
290.511
717.215
774.206
727.04
792.954
959.016
567.038
541.014
649.023
627.293
635.196
644.967
623.759
621.624
563.379
564.609
95.6195
100.097
55.2879
106.594
105.819
66.711
115.135
139.093
230.343
280.003
277.433
287.372
216.02
193.214
123.308
298.481
151.602
266.078
81.5463
309.131
167.273
526.886
631.539
427.305
1116.49
418.053
650.77
670.123
447.06
1024.76
385.744
323.141
520.019
297.08
1343.9
1081.2
16914.9
2154.61
814.681
4789.82
1441.67
790.331
345.531
491.742
313.805
835.83
1159.47
1898.97
5002.83
1250.82
251.906
554.887
397.299
196.675
416.302
263.808
377.381
366.557
259.894
392.424
376.082
366.633
370.111
309.975
300.807
338.071
356.767
323.51
354.011
246.685
250.009
259.202
287.942
251.219
281.133
250.924
213.866
375.437
274.795
150.562
261.358
212.363
321.842
286.43
254.538
268.147
943.299
268.014
696.413
726.387
962.027
680.532
707.53
933.603
271.778
695.359
717.659
946.955
675.839
694.485
594.398
605.991
411.795
1095.92
414.604
592.5
604.162
411.573
1097.81
411.203
548.213
548.855
694.023
624.7
641.372
644.431
703.349
646.304
535.981
542.203
547.71
547.163
621.533
653.106
609.757
559.289
539.751
640.894
672.209
617.441
579.914
565.561
434.671
1072.54
415.758
599.837
557.395
405.893
1076.1
404.519
110.309
65.468
86.549
70.2413
61.2071
114.68
69.6674
190.067
380.416
479.82
339.195
366.46
304.707
271.784
140.652
85.5062
100.826
222.315
43.3531
243.087
169.071
114.468
94.4963
102.384
145.546
220.488
77.4774
88.357
107.49
85.251
154.416
364.17
411.381
491.712
373.166
382.028
324.878
353.754
238.032
198.136
293.506
180.326
206.772
174.908
214.827
233.512
93.3436
248.579
154.962
261.16
160.406
238.65
209.215
446.91
257.309
268.502
275.536
190.846
222.221
184.221
138.255
254.581
33.8574
143.164
101.336
156.801
154.686
157.238
127.901
211.965
250.434
188.839
247.812
163.547
152.552
69.6329
136.155
98.022
107.389
79.3234
166.573
98.3056
129.266
113.591
139.932
201.222
278.541
299.213
168.579
233.236
210.325
123.822
150.463
98.6481
202.605
145.351
323.127
296.037
223.5
534.244
287.007
459.246
337.488
544.882
442.732
343.199
525.064
288.513
431.109
352.06
523.128
431.436
348.505
283.676
274.343
282.619
336.278
283.848
277.179
274.469
292.456
339.763
291.981
417.74
413.191
462.156
609.678
489.952
393.383
412.468
499.711
620.471
495.409
420.067
405.172
448.173
567.463
454.414
398.99
400.872
496.653
588.166
461.68
291.887
312.281
318.063
395.832
313.685
328.81
319.58
303.726
381.082
304.758
366.711
330.08
338.269
242.99
285.049
295.736
307.114
294.49
308.008
185.334
266.059
249.553
263.828
279.191
266.842
288.248
284.962
273.599
232.687
288.118
291.778
298.811
289.525
298.984
296.574
292.592
299.023
185.528
36.309
36.2786
187.048
36.3725
36.4033
174.905
237.093
238.955
262.057
272.889
260.393
256.468
271.274
258.428
296.141
281.339
296.642
232.214
295.581
295.024
282.221
298.08
297.351
299.003
285.899
299.092
233.225
295.766
295.718
284.912
298.393
298.68
164.903
130.64
133.239
101.014
26.7198
98.1352
95.1986
27.1179
97.357
92.5872
23.7473
92.0108
23.4564
90.4314
91.6139
83.6147
20.2097
86.8403
20.7072
89.5495
87.5728
295.668
279.798
295.232
230.309
293.121
292.956
279.745
295.512
295.158
168.946
231.677
232.784
255.946
267.87
253.992
251.225
266.434
252.531
230.814
293.598
294.288
299.964
283.093
298.096
296.132
281.729
296.887
208.161
35.9733
44.8801
185.543
35.8696
36.8994
186.445
264.464
251.625
259.261
278.422
264.547
286.866
286.799
272.739
708.215
522.515
497.562
285.589
335.738
370.911
399.566
350.211
397.379
302.561
292.937
306.655
239.802
317.445
307.558
300.984
326.473
313.773
170.347
144.806
136.25
94.8196
26.8205
97.8604
106.192
25.8744
99.3399
62.2049
20.5043
76.486
17.5139
83.7008
76.4681
91.7265
21.0976
89.6365
20.3013
85.3973
90.121
164632
103201
169209
378039
308550
291944
105604
181914
174768
1120.05
2323.71
1895.51
1223.21
3458.42
2249.39
4052.14
5651.26
3214.29
137469
16576.1
65064.8
161929
141270
130000
34254
66960.1
20921.7
41995.5
40402.8
82424
75580.6
82995.6
16404.2
42946.5
50131.2
62784
54147.5
65487.1
178990
128875
121380
55028.9
74425.6
69177.7
453052
317306
341003
23230.9
5080.75
6783.97
176270
125967
21125.5
198686
37785.6
190585
126032
204165
9345.19
32773
19825.4
484674
558846
383902
329639
396985
494171
411079
391852
339019
419893
409288
113237
149318
167192
207422
295776
234984
216470
296740
231814
198547
267652
204237
94637.6
147705
145508
274675
213217
209044
548114
415371
425311
368556
353044
416802
426482
360047
429591
362186
321885
160675
98253.8
157098
329305
241826
252912
97098.3
150525
153748
128255
90033.1
86675.6
53581.5
57041.5
54094.7
55505.4
56433.9
54728.2
60696.6
54079.6
59002.3
145260
93589
97358.2
54560.9
56455.2
57608.5
294113
237692
226788
137892
93052.4
141075
147366
94069.1
144225
416616
366503
370558
297375
357184
423254
318516
336580
286292
330689
343879
80235.3
117582
113002
144806
197333
151486
165098
206182
158258
192252
242177
185634
87160.8
122180
126752
233170
171974
178839
371129
312700
295124
279377
242664
291965
317630
253407
304719
416007
305282
430444
502008
487468
307847
447401
434928
85252.4
158692
138642
114791
280071
163418
191086
288177
174266
183769
284504
189136
84467.1
159734
159453
287158
191945
190525
506836
523495
424470
302507
463311
451403
310060
463345
458828
383723
437958
424379
445429
376941
409823
430952
191796
218727
206358
210826
290129
223941
241977
295813
228378
280518
342611
265617
218258
222925
235911
336617
246589
260783
417289
395890
353389
324223
374487
402757
330678
381547
410881
282302
394733
414593
434534
278636
371913
389140
78953
139524
134529
149417
229176
155915
164573
232833
158091
181724
261629
175393
82776.8
141241
146248
258100
166749
173223
407826
387314
324312
247948
342299
366057
251871
348274
578.563
574.366
407.346
1070.74
404.003
583.93
573.047
399.094
1068.84
401.191
520.84
522.679
666.31
619.551
610.32
612.415
665.971
609.772
531.39
523.461
949.35
680.287
227.4
723.7
948.932
680.066
723.362
946.256
226.196
674.704
717.518
677.6
720.031
943.029
519.583
517.961
663.606
603.847
608.211
612.112
667.03
610.357
513.247
515.289
582.08
580.886
396.996
1068.05
399.169
576.427
579.553
399.892
1070.18
398.882
933.883
221.028
667.677
710.059
934.162
667.158
708.402
935.792
221.428
671.015
712.709
938.504
668.332
709.286
571.687
568.528
389.199
1051.99
390.855
567.353
567.83
391.75
1053.63
391.174
506.371
505.128
650.099
593.418
594.934
597.808
651.817
596.039
503.057
503.805
507.231
507.716
601.927
654.629
598.593
511.369
508.538
598.315
653.717
597.918
570.989
569.196
395.489
1058.3
394.352
574.311
568.892
391.855
1056.88
393.473
504.793
228.477
413.12
296.26
504.831
412.805
296.942
505.58
228.025
414.538
299.162
506.858
413.146
298.285
247.722
246.209
252.632
290.816
252.171
244.072
245.269
254.662
292.482
254.721
370.982
369.93
440.306
566.47
442.599
367.446
368.917
444.829
568.095
443.403
371.944
371.729
447.401
570.483
445.175
374.777
373.396
445.235
569.695
444.569
248.971
251.121
260.401
302.353
260.283
254.695
252.631
257.674
299.779
257.072
215802
178836
168090
110165
82150.4
113878
121092
83848.4
117521
53162.7
58445.6
52818.3
103692
70153.5
72513.5
58723.9
52270.4
52526.4
249772
182604
193386
134661
89638.3
131370
124589
88335.7
128015
51259.6
58691.1
51540.5
90998.3
67934.3
65847.1
58880.7
52031.4
51793
258503
304612
259534
222493
206717
185855
162791
196748
219273
172077
207890
138241
171547
131806
69423.6
87301.1
91293.7
163258
119380
125515
307025
227975
244227
266965
211325
254737
230881
201219
242706
96585
131949
102008
63743.3
83449.2
79737.7
139478
113413
107618
185641
150544
106385
76447.9
102536
173172
125614
136024
74350.4
94672.9
98629.8
64247
54076.1
52652.8
46885.1
52729.9
47707.3
49089.4
53893.4
48442
50946.1
57373
50577
73143.9
55537.8
57050.9
56682.9
49656.6
50150.3
141325
122201
111999
78461.9
65102.9
82555.4
90669.6
67534.5
86627.2
202472
162027
175216
136334
164843
202205
147256
161304
128012
144940
154749
50719.6
57775.8
55171.9
60257.5
79808.3
64111
72398.5
85495.2
68157
91345.9
110650