/*--------------------------------*- C++ -*----------------------------------*\
| =========                 |                                                 |
| \\      /  F ield         | OpenFOAM: The Open Source CFD Toolbox           |
|  \\    /   O peration     | Version:  2012                                  |
|   \\  /    A nd           | Website:  www.openfoam.com                      |
|    \\/     M anipulation  |                                                 |
\*---------------------------------------------------------------------------*/
FoamFile
{
    version     2.0;
    format      ascii;
    class       volScalarField;
    location    "0.104/solid";
    object      sigmaMid;
}
// * * * * * * * * * * * * * * * * * * * * * * * * * * * * * * * * * * * * * //

dimensions      [1 -1 -2 0 0 0 0];


internalField   nonuniform List<scalar> 
24998
(
-178.878
10.2541
-182.868
-131.153
-88.2895
-529.036
-501.853
-473.629
-446.619
-145.698
-187.772
-528.721
11.2667
-183.723
-534.392
-191.557
-143.558
-131.479
-143.097
-153.842
-120.063
-168.027
-524.734
-502.67
-504.765
-499.821
-477.057
-478.103
-472.888
-459.84
-450.398
-464.178
42.7365
29.5818
-114.126
-257.181
-491.337
-210.307
-225.252
-165.448
-140.491
-161.966
-160.881
-133.511
-12196
-119.931
-98117.1
54828.3
8876.17
-517.431
-3947.98
-7516.62
-348.371
-4715.18
-492.89
730.154
-946.508
-3197.08
-1482.08
-459.659
484.96
1500.43
-566.863
-221.81
37.1525
-248.757
-474.032
-46.4056
-237.441
9.68535
-284.154
-282.191
-84.7875
-505.591
-99.1179
-211.241
-292.57
-174.406
-180.434
-519.984
-262.257
-152.254
-204.008
-162.233
-165.211
-151.222
-201.055
-203.796
-139.593
-200.637
-145.364
-200.309
-135.991
-160.754
-146.483
-188.655
-200.211
-134.199
-6128.24
-199.176
62816.8
1955.98
-36947.5
-7909.57
-113275
-53.8497
-42179
8050.53
-130030
-11933.1
-7780.74
-5951.73
-5595.76
549.815
-3671.87
-7691.08
-4691.21
26.7721
7490.73
8813.56
708.951
-18856.6
16120.3
373.303
7054.1
10027.8
15434.8
-514.785
-511.395
-513.857
-1743.51
-6324.5
-3534.61
-5038.86
-2055.14
-4508.58
1099.98
7082.21
741.479
4247.32
-3736.21
-1089.95
-1641.78
-2473.03
-4649.35
-385.026
-1912.47
-133.986
1119.17
1690.29
3877.79
1241.65
9341.12
5170.1
-3519.9
-5040.47
1868.05
4671.94
-491.117
-487.97
-489.618
401.53
-2239.51
-320.288
-1094.91
1047.72
-40.0144
882.188
1439.42
1232.72
127.554
814.063
1495.69
433.227
-588.651
-992.908
743.249
1096.09
1433.87
866.494
-530.045
0.234102
753.185
1567.43
80.0307
-618.708
-1316.17
-533.082
-50.0082
-460.392
-457.478
-455.834
485.557
-561.275
752.942
-232.305
457.039
1448.27
434.784
-560.818
754.43
-182.021
-551.013
-180.22
41.8602
387.434
113.01
-877.775
-162.432
-237.334
-313.158
-635.979
-161.81
-291.847
-40.257
-172.048
-34.3684
15.1609
-130.849
15.3978
-4.68392
91.7895
569.302
-554.473
-482.177
-641.207
-524.57
-585.469
-629.81
-476.572
-508.932
-448.89
-608.489
-498.934
-520.34
-603.271
-446.39
-451.724
-416.101
-577.511
-468.938
-475.41
-571.11
-409.274
-440.832
-326.261
-616.074
-440.02
-403.064
-642.776
-305.206
-277.413
-130.656
-214.007
-255.328
-597.985
-110.394
-193.809
-166.536
-278.451
-248.75
-255.194
-528.671
-275.642
-657.78
-652.129
-282.138
-275.219
20.1757
44.2569
-31.3407
-220.46
-50.6422
-121.605
-586.371
-536.857
-487.05
-649.106
-578.511
-666.105
-493.237
-269.614
-186.299
-243.378
-146.118
-215.163
-217.581
-134.278
15.0501
12.9612
-214.68
-142.796
-214.46
-152.667
-229.115
-226.027
-139.857
-3.82526
6.56248
-235.455
-814.932
480.705
-270.584
-277.537
-654.003
-521.229
-645.417
-301.864
-276.72
-252.498
-505.529
-261.855
-626.024
-630.939
-250.302
-263.985
-529.571
-507.679
-451.643
-610.31
-517.665
-615.183
-454.857
-243.041
-259.976
-624.24
-496.989
-618.962
-250.074
-257.887
-229.941
-480.972
-243.716
-595.742
-602.085
-222.503
-246.42
-489.961
-482.252
-422.046
-579.77
-471.669
-586.244
-427.257
-210.959
-241.066
-593.595
-468.559
-587.588
-221.636
-238.302
-222.792
-456.835
-254.341
-635.231
-600.89
-280.717
-241.942
-405.557
-451.568
-345.492
-605.153
-390.278
-579.181
-358.375
-182.41
-280.122
-651.33
-477.597
-697.64
-278.761
-332.081
43.1426
32.6187
86.1664
318.855
59.0829
21.9082
673.464
74.9389
-97.0605
-325.069
-182.492
-249.004
-209.115
-315.076
-658.536
-184.659
-799.892
-454.275
-685.172
-495.994
-715.798
-669.281
-490.297
-1063.81
-1062.91
-335.12
-291.13
-286.545
-315.717
-348.106
-170.451
-168.852
-39.3346
-30.4197
-162.509
7.00263
-25.1588
3.14958
-23.7746
-161.178
-161.185
12.7657
13.0033
-131.056
13.5564
15.2815
11.3071
12.8915
-13201.4
-402.984
-12686.2
-63.2052
33909
44246.4
-12.0832
343.388
1322.28
24085.7
113245
26791.5
249.516
14271.6
21493.8
23131.3
140966
47815.1
269.429
-316.715
-314.388
-1059.56
-1055.88
-555.952
-521.012
-624.962
-466.614
-629.023
-539.904
-471.219
-1041.56
-1057.42
-311.71
-312.466
-5520.91
-5758.04
8673.05
13077.1
7039.58
-2413.55
4385.26
18908.5
13759.8
1697.55
-3062.9
4027.42
-304.151
-302.589
-1013.94
-1006.58
-511.571
-495.967
-596.211
-440.139
-601.498
-499.227
-443.574
-995.078
-1004.15
-299.449
-301.055
54.4715
-53.573
-486.874
-547.12
-1422.55
-2339.7
-1085.68
602.474
-552.981
-771.816
-2093.56
-1039.95
-290.658
-288.715
-959.1
-941.813
-456.371
-464.178
-566.1
-392.236
-569.345
-426.017
-401.362
-913.122
-935.372
-284.251
-286.564
1533.14
1528.61
-365.429
-345.01
-443.268
-450.29
-376.538
-385.939
-350.325
-270.372
-403.25
-365.92
-243.484
-219.833
-858.185
-832.112
-425.621
-389.331
-639.242
-240.499
-778.545
-190.065
-58.2645
36.6889
-86.8609
-49.9935
-214.131
-205.907
-635.366
-78.5293
-405.778
-410.84
-636.936
-230.797
-668.813
-339.238
-181.534
-1084.28
-1062.43
16.6456
-176.561
-75.5341
-49.7349
-24.1047
-229.977
661.362
-226.503
-395.719
-213.62
-260.128
-295.319
-235.933
-253.542
-188.469
-349.914
-247.338
-300.816
-521.003
-633.726
-255.377
-445.9
-646.501
-276.093
-103.538
-100.579
-1102.18
-1144.12
-1076.44
-1129.85
-83.1839
-105.742
-1.75645
-279.816
-81.085
33.105
-72.3405
-299.938
-141.89
-126.631
-271.243
-257.486
-149.478
-48.8392
-112.117
-231.398
-128.421
-148
-590.906
-531.884
-676.787
-503.288
-680.253
-668.295
-501.359
-317.94
-317.29
-1077.77
-1125.16
-1054.02
-1109.76
-323.373
-318.196
-286.614
-207.191
-246.023
-169.173
-223.513
-236.906
-205.402
-235.027
-242.844
-163.69
-163.991
-147.28
-222.119
-218.605
-228.624
-202.521
-230.723
-234.014
-202.936
-231.49
-135.068
8.24854
12.5112
12.5646
10.4706
4.83572
9.88083
-228.166
-200.034
-227.931
-143.136
-217.331
-214.873
-200.088
-230.539
-228.328
-154.938
-157.689
-151.142
-218.636
-224.001
-237.565
-196.294
-237.552
-231.636
-198.153
-236.095
-139.022
13.0071
7.78862
-9.46206
3.21223
10.6941
4.98511
-16425.7
-6586.91
-21098.4
-241.029
-1049.72
258.191
-7695.27
12535.2
-27012.9
-26895.1
500.601
-16619.9
10753.2
-21060.4
-8906.63
-1144.45
-48355.2
-26195
271.159
-9271.34
-9052.94
316.167
-1321.65
-11953.6
-11483.1
-99884.2
-22202.8
402.381
-898.902
-12665.6
-2657.14
-116000
-21851.4
-9972.22
-9694.31
-15431.2
-4830.67
-13042.6
-3295.19
-10482.9
-12480.5
-15592.4
-2478.82
-13196.5
-4678.32
-10354.8
-12330
-6241.81
-6039.29
1691.08
413.573
3496.93
8594.32
5630.36
5045.21
2155.31
8866.05
4655.11
455.386
4141.28
3757.41
1430.57
1992.4
6112.56
98289.6
7648.24
6607.38
15077.9
7662.29
100525
2212.16
32925.6
26460.5
2685.65
7437.99
10312.5
13760.5
3549.15
10730
19697.4
25574.3
1367.75
1009.71
12231.3
3692.12
4864.65
6406.96
13010.9
5046.72
675.371
963.782
-107.274
-105.12
-1085.44
-1080.83
-261.792
-518.148
-640.371
-270.155
-644.386
-263.31
-272.967
-1066.8
-1082
-99.5427
-101.748
-253.843
-508.369
-638.315
-268.512
-265.77
-632.564
-266.435
-93.7297
-95.4898
-1042.79
-1052.11
-1060.89
-1053.76
-99.377
-96.9273
-527.009
-510.646
-622.593
-462.451
-543.687
-616.78
-458.486
-305.699
-307.163
-1017.29
-1026.8
-1035.43
-1028.45
-310.129
-308.722
-2520.39
-6012.43
-7488.24
-9858.59
-6748.15
-8105.11
-2638.96
-9740.98
-8020.9
-6049.87
-6310.63
-7558.85
-3132.59
-3293.21
955.137
4016.83
4231.18
5698.49
5835.68
5590.4
930.229
4194.47
4243.99
4620.2
5427.57
5438.22
-2388.16
-2213.3
-5562.29
-988.049
-4324.91
-3288.76
-2961.83
-3954.58
-5587.97
-3599.47
-4327.93
-905.958
-2972.99
-3955.1
-1001.73
-885.568
3813.64
1218.35
2906.03
2538.21
1937.79
2873.45
4275.84
2852.34
3214.46
1229.69
1721.04
2590.1
140.983
352.925
3539.08
7411.7
2559.2
636.469
385.091
1635.93
6817.29
2431.82
8096.6
4419.52
-4534.8
-1459.58
-786.199
1390.17
-4840.08
-550.082
972.494
3943.61
112.724
-54.0921
2920.33
374.673
834.375
1533.92
3322.31
911.047
-200.397
-76.6103
-93.0224
-90.9155
-1039.46
-1032.01
-242.32
-494.112
-611.888
-253.543
-617.2
-238.246
-255.715
-1020.72
-1029.64
-87.9659
-89.8904
-230.847
-484.598
-610.007
-251.363
-237.609
-604.155
-248.936
-80.9476
-83.4289
-990.391
-1003.36
-1017.4
-1007.08
-86.9709
-84.6458
-486.838
-486.089
-594.282
-436.198
-501.893
-588.392
-431.919
-292.638
-294.381
-964.127
-977.381
-991.695
-981.216
-297.787
-296.152
120.942
-1215.14
-1736.75
-2672.98
-1648.67
-1935.25
74.0061
-2685.96
-1944.71
-1222.02
-1486.47
-1728.62
614.729
546.02
1040.61
179.789
625.992
1659.94
783.298
938.65
1065.6
1465.77
809.078
231.389
596.479
734.363
1293.29
1351.84
-1074.07
617.692
-740.221
-707.06
-521.588
-694.154
-1086.85
-762.808
-772.941
636.591
-463.081
-655.384
1334.99
1349.17
62.7377
781.712
-200.848
-373.718
-432.635
-285.308
97.3142
-299.231
-211.711
775.768
-376.862
-261.342
-366.6
-312.022
319.506
799.203
0.304912
-216.618
-303.034
-239.137
590.184
-36.8945
-479.239
-431.139
-831.403
-454.058
-551.992
-740.976
-927.944
-570.346
-391.053
-426.506
-373.967
-404.688
-410.244
-424.145
-384.449
-261.424
-342.806
-373.959
-418.764
-408.485
-79.6089
-77.2117
-985.526
-969.84
-209.724
-464.313
-583.534
-234.165
-585.942
-194.392
-236.017
-940.546
-962.338
-74.7782
-75.8959
-216.169
-456.01
-584.252
-233.987
-194.422
-593.832
-235.631
-96.3859
-79.1467
-875.266
-894.821
-932.649
-903.853
-74.0984
-77.3775
-398.085
-453.134
-566.328
-381.81
-431.688
-573.677
-370.379
-255.145
-272.463
-857.17
-872.474
-905.023
-879.927
-281.862
-276.793
787.838
-210.616
-300.763
-481.377
-503.966
-399.432
791.361
-417.232
-323.916
-184.472
-475.841
-376.208
1530.87
1520.26
763.574
-220.95
-380.462
-457.401
-594.142
-475.464
764.716
-393.586
-395.131
-180.408
-584.701
-460.82
-313.603
-402.69
-426.994
-564.663
-421.537
-419.907
-408.038
-289.172
-545.874
-417.596
-107.035
-168.697
-877.852
-882.364
-161.134
-401.545
-695.582
-280.25
-831.443
-226.421
235.886
119.395
73.7858
12.255
-143.17
-183.045
-142.256
-86.3853
-130.873
-85.9386
-71.3152
-16.8663
25.7499
-184.906
-231.998
-231.542
64.8751
28.0678
15.9927
37.9162
-188.76
-143.938
-154.419
-225.68
-194.629
-221.448
-144.23
-176.727
-177.499
-132.483
-86.6135
-87.5217
-176.241
-142.774
-175.982
-154.527
-213.309
-199.926
-137.054
-83.0217
-93.9772
-261.247
-185.534
-342.78
61.944
40.2393
60.6338
81.247
85.9478
49.9392
68.4449
211.354
-58.7073
-1.49449
52.3785
-82.8666
-130.46
-12.5402
-400.932
-107.382
-221.8
-130.506
-292.148
-194.429
-99.2257
-607.789
-40.3898
-170.669
-287.614
-1146.52
-318.014
-297.89
-352.536
-177.622
-261.73
-220.266
-247.223
-202.211
-293.558
-75.9101
-194.202
-38.5376
-166.236
-20.4481
-21.0519
-143.389
-96.1847
-101.189
-18.1621
-161.571
-17.3252
-161.071
-15.1893
-15.5766
-132.39
-88.5995
-87.2616
-12913
31.1992
-180.298
20.1592
-43669.8
-17666.9
-4206.81
87033.7
92793
86362.9
51570.4
68342.3
49038
11378
3686.95
11549.1
5981.7
202809
104463
-4610.85
-6750.71
27620
31699.6
-1246.08
-1053.86
-1926.76
51165.4
45814.8
-2079.8
-4239.98
-2372.61
453.032
-550.377
2040.81
2882.39
-1044.23
-2891.51
-910.239
10060.7
7891.85
-614.447
-1664.35
-674.919
1427.49
1507.69
-306.648
-224.697
-504.287
-524.683
-494.989
131.538
23.8913
-268.71
-332.016
-434.386
-430.627
-350.906
-594.902
-286.071
166.972
7.18177
58.2223
80.6238
88.9909
24.7422
17.9246
-541.919
-18.275
-177.512
-246.511
-1147.39
-300.674
-236.081
-51.7768
-156.898
-21.0698
-107.591
67.6131
-140.784
-66.5457
-90.2218
-255.572
-165.679
145.59
-56.1123
134.199
-25.6112
263.514
37.8913
108.512
-299.042
-289.602
-298.416
-163.285
-134.596
-141.337
-116.523
-203.016
-85.3337
-160.698
-138.072
-68.9837
-188.847
-118.823
-270.03
-129.035
-52.9546
-303.21
-195.254
-250.61
-214.006
-247.763
-286.92
-239.887
-162.633
-181.554
-175.204
-142.582
-203.135
-194.357
-141.483
-287.479
-199.984
-184.992
-151.99
-305.115
-206.676
-159.978
-286.129
-236.054
-262.035
-153.54
-186.038
-187.81
-204.435
-229.176
-229.539
-18.149
-162.741
-17.9016
-20.486
-164.684
-19.1319
-149.942
-184.806
-183.48
-226.221
-201.516
-226.707
-229.048
-203.543
-228.844
-137.853
-95.127
-92.6248
-225.79
-200.323
-225.467
-144.412
-178.926
-177.882
-200.269
-226.641
-226.206
25.5563
-143.129
14.254
-14.7364
-160.287
-12.1207
-147.84
-180.322
-182.159
-231.302
-189.593
-227.822
-227.117
-199.933
-227.663
-136.055
-89.1473
-90.9723
-1020.72
-6598.01
-1036.09
-246.98
-278.493
-307.012
-196219
47278
13114.3
25783.1
-9200.21
-4399.12
3943.78
-2723.49
-24035.1
51726.2
-86983.5
-56127
-13982.5
-8564.02
-3437.06
-6258.08
-367.313
-8137.98
-22113.2
-62845.3
-31405
3529.41
6632.29
724.648
-29285.3
-147114
-67251.6
-11106.6
-8595.78
-275.751
-5462.79
-694.874
-4844.46
-10140.6
-10313.9
-5695.96
-624.088
-6841
-4096.23
-362.212
30.4938
-7071.28
-5263.75
-5834.03
214.212
-5097.04
7888.21
7670.72
7944.05
5475.07
9048.62
6732.58
603.822
-3361.32
-3447.42
-51986.9
-55791.2
-11284.1
30613.7
32857.5
6449.86
16731.8
7123.66
66293.3
-50424
84893
78210.1
1114.01
-914.925
-245.613
3100.79
5638.66
2133.71
53023.3
58833.8
-50610.7
-46406.1
10741.8
3910.35
4338.95
6295.48
14614.9
5705.91
-31272.7
-34710.2
-2067.34
-221.946
92.3019
-9724.37
-6964.37
-9217.5
-3141.07
61.4495
-302.544
-6123.01
-5447.88
-6602.2
-2512.04
-3981.64
1039.25
-1906.55
-1803.41
7334.1
6667.32
6954.42
823.585
-2966.6
-2942.72
4457.93
4631.71
4869.25
-3144.26
-1557.65
75.757
-1348.85
-214.847
-2724.85
-3045.06
-3352.63
-5662.16
-4280.3
-5222.59
-599.495
-258.338
-15.5508
-1514.32
-450.553
-1511.29
1163.74
-1618.97
1957.84
1714.22
1997.67
4060.12
3524.42
3678.65
1248.27
-942.742
-772.193
-16467.1
-18822
3796.39
8675.31
3402.46
-30177.3
-27033.3
2081.42
5695.01
2388.65
26328.8
22652.2
-3855.57
-1070.16
-1232.64
-2028.39
-5159.4
-1767.45
10841.7
13368.1
-15722.8
-13613.5
2196.1
757.265
960.777
1984.47
4197.39
1704.84
-6977.85
-8374.84
287.588
-337.118
-192.114
-2757.99
-2024.32
-2492.36
-141.613
-62.1534
-280.322
-1317.32
-1210.11
-1466.73
867.406
217.735
939.48
-406.983
-235.123
1448.47
1205.23
1200.95
1168.43
-599.984
-772.009
92.9565
269.294
234.457
1029.77
1471.65
-224.659
518.372
-343.628
-620.513
-624.398
-671.995
-1183.64
-903.638
-1065.07
700.439
-308.84
-261.669
1221.46
1388.26
-166.431
817.954
-324.024
-488.442
-527.471
-493.266
-33.4219
-112.189
-144.056
754.041
-160.419
-50.3079
-2137.9
-2735.68
681.385
1289.14
502.508
-6548.4
-5370.07
-83.7856
230.845
26.6533
1840.1
1317.72
-677.005
-504.479
-514.999
-607.669
-1170
-564.605
174.761
335.063
-1965.02
-1521.49
-502.712
-480.874
-446.769
-133.214
-163.075
-222.729
-625.884
-736.847
703.328
-208.673
-209.247
-584.07
-538.443
-549.602
776.276
-253.715
-274.956
-167.703
-387.101
-392.132
1471.15
1477.31
677.751
-204.518
-89.5334
-550.36
-580.414
-562.688
755.561
-40.7248
-118.145
-143.087
-527.141
-480.81
-82.1278
-242.629
-501.286
-561.07
-519.312
-598.535
-528.604
-225.802
-450.308
-519.818
-824.966
-350.451
-644.334
-397.831
253.712
160.636
102.364
79.1806
162.257
141.911
293.235
304.309
601.353
225.945
370.73
124.128
303.958
189.772
128.98
156.075
167.263
303.036
175.718
-503.099
-758.403
-429.986
-655.038
-441.067
-458.132
-556.665
-341.486
-143.899
-172.447
-184.641
-280.71
-275.057
-216.775
137.07
-117.85
-31.54
-113.749
-183.095
-127.417
-140.224
-34.6014
-100.242
-112.232
-57.9433
15.5494
-57.4362
-130.808
-86.0527
-85.8914
15.507
-57.6305
-57.4065
-51.5458
33.9678
41.1527
238.798
871.537
66.1962
40.797
945.468
51.3026
-549.451
-577.859
-676.393
-623.182
-630.148
-681.75
-542.594
-555.781
-576.057
-641.48
-690.811
-557.532
-639.891
-686.903
-498.15
-516.084
-626.808
-569.88
-571.235
-628.859
-496.568
-500.507
-513.54
-575.326
-633.323
-501.993
-574.32
-631.246
-448.447
-466.423
-569.153
-507.42
-511.461
-574.306
-443.649
-453.533
-462.333
-522.559
-584.351
-457.562
-519.329
-579.827
-397.132
-434.882
-497.836
-366.928
-371.721
-498.858
-405.148
-397.997
-412.855
-391.714
-494.88
-397.698
-382.76
-497.373
-253.44
-559.373
-182.434
-83.7736
-277.496
-275.875
-212.625
-227.545
-100.184
-124.263
-153.944
-254.273
-188.257
-162.928
-190.595
-230.37
-231.824
-258.136
-277.561
-257.382
-239.671
-269.587
-252.241
-353.374
-502.626
-224.105
-166.771
-350.954
-167.083
-494.411
-351.695
-256.744
-176.14
-510.987
-355.826
-168.046
-505.819
53.7457
21.182
31.0244
58.9318
21.1653
35.8029
66.3005
53.4487
-17.3431
25.0355
-13.1393
39.0022
48.8327
-31.2455
4.74759
-0.725875
5.0591
4.27161
21.7842
-197.409
-177.212
-161.718
-119.585
-94.6617
-126.166
-150.42
-100.586
-131.923
-554.133
-559.84
-717.829
-640.54
-564.844
-632.374
-707.426
-553.337
-570.4
-640.488
-694.948
-557.075
-632.935
-699.89
-250.151
-258.343
-242.61
-196.396
-218.695
-224.984
-250.204
-236.511
-241.638
-145.065
-179.413
-178.386
-199.098
-215.929
-199.905
-201.72
-216.743
-200.778
-133.041
-89.3787
-87.9299
-58.1327
14.3788
-58.8991
-60.6872
14.1328
-59.2505
-198.603
-214.481
-198.396
-142.686
-175.949
-175.885
-214.404
-198.356
-198.311
-153.83
-189.478
-193.234
-218.454
-229.428
-215.954
-210.734
-227.709
-212.997
-139.804
-93.8881
-94.8569
-58.6172
1.04026
-66.07
-65.3526
2.81919
-66.3646
-233.314
-202.784
-209.289
-543.275
-303.725
-720.284
-237.944
692.27
-271.839
-356.165
-493.715
-288.345
-180.838
-183.392
-495.27
-355.809
-356.651
-304.117
-180.93
-509.619
-355.105
-184.07
-501.025
-342.09
-481.205
-251.145
-169.722
-342.894
-169.322
-479.719
-339.962
-252.925
-167.561
-477.029
-339.761
-167.87
-478.313
-508.378
-521.267
-643.244
-585.028
-510.616
-583.256
-640.691
-505.817
-524.12
-578.374
-635.75
-504.287
-579.707
-637.938
-335.208
-470.715
-247.079
-163.537
-164.355
-471.915
-334.861
-337.156
-248.369
-166.298
-475.469
-337.926
-165.987
-473.472
-321.214
-457.067
-227.344
-153.441
-321.866
-153.264
-455.165
-318.603
-227.853
-151.114
-452.094
-318.563
-151.463
-453.493
-469.529
-479.727
-600.682
-540.669
-472.485
-538.312
-597.228
-465.501
-483.075
-529.374
-589.122
-462.1
-532.34
-593.001
-313.141
-446.441
-218.128
-148.251
-147.947
-447.404
-313.68
-315.762
-217.439
-149.341
-450.651
-316.035
-149.575
-448.852
-346.114
-473.7
-242.929
-175.991
-332.778
-191.598
-487.941
-357.657
-259.412
-236.014
-533.532
-381.177
-207.744
-507.542
-398.736
-389.259
-506.451
-428.736
-400.483
-422.053
-501.571
-399.599
-398.912
-404.717
-495.928
-398.928
-411.435
-497.042
-495.723
-721.387
-239.446
-437.432
-373.176
-670.929
-594.623
-449.489
-242.098
-266.041
-569.588
-404.268
-320.646
-614.909
63.5792
37.1658
69.737
75.9343
121.148
51.8097
49.7871
61.4671
50.0593
16.2601
44.7358
86.8226
63.6296
45.4415
65.8916
150.429
86.4795
66.4651
121.078
110.797
59.2606
695.475
97.8732
431.728
-187.321
-1057.7
133.546
90.1077
-84.2951
300.731
-521.466
185.924
10.447
16.7953
46.1441
94.9034
9.27501
29.0549
258.051
150.747
1674.84
-55.0417
-279.672
-463.734
-17.7508
138.163
134.394
68.7733
-52.7212
133.813
-172.16
52.3756
-654.191
-255.917
21.0334
-100.81
-160.583
-59.9801
-423.96
-135.542
-71.815
-377.884
-285.856
-354.448
-346.076
-410.911
-303.942
-281.455
-20.8396
-15.1249
-147.103
-279.644
-143.868
-405.718
-186.742
-330.096
-237.191
-807.009
-989.298
-612.385
-201.644
-52.1072
-593.667
-180.562
-522.109
1334.49
-215.376
-506.76
-314.286
-313.158
-383.191
-481.459
-318.563
-361.935
-880.562
-1369.78
-747.307
-405.466
40.0298
-153.021
-331.814
-503.731
-426.2
-244.523
-630.176
-811.329
-677.59
-734.466
-647.536
-785.504
-702.574
-627.687
-689.258
-759.117
-701.974
-769.082
-701.127
-620.412
-943.895
-894.658
-1076.87
-919.877
-939.469
-954.366
-1032.84
-944.657
-847.583
-875.957
-387.807
-313.335
-354.772
-371.531
-418.453
-273.58
-355.502
-385.534
-253.182
-289.156
-373.009
-463.471
-226.416
-339.891
-412.157
23.9619
-365.41
-383.274
-419.24
-429.095
-386.763
-677.503
-652.18
-582.566
-325.303
-596.09
-648.189
-648.162
-647.296
-314.403
-562.298
-182.524
-26.2492
-34.9785
-166.707
-25.0964
-21.5371
19.5319
-29.5094
36.697
-29.6218
38.6076
36.5147
-146.4
-121.149
-104.517
-66.9306
0.636104
-71.8637
-93.6458
-3.12905
-75.2582
56.7703
-4.29973
51.5897
40.6882
-8.15767
50.0069
-161.441
-17.2664
-17.1466
-161.066
-17.072
-15.8819
64.5851
13.0427
64.6675
13.04
64.607
64.896
-131.914
-86.2028
-86.9033
-60.0195
14.5757
-58.6596
-57.7692
14.8867
-58.3271
63.7026
12.1856
64.621
64.9492
12.5074
64.4554
-13076.3
-146.718
73.7669
24.9335
-22594.4
-6956.22
-5.15594
-1695.36
59669.6
37183.6
63910.3
97434.8
94366.6
38520.6
68801.8
65208.6
40.6667
9.29639
36.3446
19.2512
43.6266
44.5439
21288.9
469.849
10036.7
65468.7
16471.9
49228.3
75100.3
62981.8
2697.97
52056
-15536
20236.5
46179.8
50746.1
-16.0393
12005
11200.4
5929.64
16344.7
8426.18
14789.4
14224.3
7223.69
17384.8
17211.9
9730.77
97951.1
99065.1
170872
82318.7
1112.63
88893.9
5044.81
70334.4
63481
77554.3
63.2431
8783.16
59.3822
-578.739
-585.183
-544.25
-316.76
-542.415
-593.911
-588.658
-535.384
-314.539
-536.795
-749.753
-753.876
-869.309
-1051.54
-861.621
-764.792
-758.863
-856.437
-1051.97
-858.2
-530.803
-670.544
-541.244
-613.207
-535.473
-665.981
-609.459
-527.282
-545.615
-658.503
-603.637
-661.617
-604.649
-525.594
-746.839
-741.339
-1048.69
-840.038
-847.137
-855.059
-1054.81
-849.888
-732.454
-738.484
-575.275
-571.183
-523.838
-311.328
-524.729
-565.377
-569.165
-530.019
-312.854
-529.264
-4835.46
-6499.78
37622.6
33127.9
18169.3
10481.2
21033.4
25191
11109.8
22036.4
539.22
5871.82
-248.506
-1744.96
-2766.58
-2247.26
5492.12
-1318.64
-546.004
39190.1
44104.7
34673.7
16623.1
30929.9
26289.8
15887.5
29732.1
-2182.72
2658.18
-2411.52
-3676.86
-2743.84
-2429.11
2990.94
-1602.99
-2313.6
-539.729
-542.153
-504.009
-304.194
-503.629
-544.781
-543.228
-500.896
-302.657
-501.356
-700.16
-703.171
-814.741
-1011.02
-811.381
-707.891
-704.874
-806.593
-1008.61
-809.683
-492.344
-624.324
-504.307
-566.575
-494.112
-622.051
-565.232
-489.644
-506.952
-616.753
-559.486
-619.259
-561.403
-487.585
-698.479
-695.13
-998.173
-795.542
-799.502
-804.947
-1001.3
-801.376
-689.576
-693.241
-538.513
-536.188
-493.541
-299.494
-494.422
-530.969
-534.673
-498.273
-301.118
-497.673
359.059
-422.339
4839.2
3331.51
1209.61
-512.601
1695.95
2541.58
-521.323
1881.78
-1110.49
-1280.38
-978.247
-2604.02
-783.475
-889.893
-1230.34
-838.756
-945.248
5394.87
7225.39
5810.29
-346.569
4310.73
2808.85
-497.897
3869.86
-642.268
-874.945
-706.492
-1868.72
-768.38
-685.512
-913.255
-812.599
-726.703
-489.176
-495.651
-467.413
-290.779
-466.31
-503.815
-498.747
-458.892
-288.711
-460.152
-640.143
-647.867
-762.543
-953.537
-755.48
-657.953
-651.203
-743.944
-947.638
-751.955
-432.247
-562.889
-439.572
-498.407
-438.042
-556.892
-493.81
-426.367
-444.599
-543.081
-477.772
-549.741
-483.468
-419.355
-636.468
-627.44
-920.672
-716.181
-726.547
-740.088
-928.196
-730.729
-613.427
-623.442
-485.593
-478.748
-441.247
-284.432
-442.678
-466.062
-474.536
-451.883
-286.638
-450.562
1466.02
1515.92
-127.434
-197.119
-411.403
-304.692
-333.2
-269.612
-317.851
-316.513
-479.348
-414.318
-465.033
-481.397
-478.13
-493.566
-405.659
-441.876
-460.333
-101.313
-7.62138
-105.898
-371.79
-174.749
-254.085
-368.454
-194.432
-278.63
-310.503
-380.143
-386.255
-471.556
-439.925
-329.578
-434.465
-396.997
-321.446
-328.017
-377.403
-236.984
-368.907
-383.064
-344.311
-335.659
-224.12
-346.028
-596.623
-601.898
-678.472
-859.307
-680.004
-585.505
-592.439
-666.034
-853.622
-685.205
-432.508
-493.711
-377.498
-359.545
-417.051
-529.91
-354.271
-482.807
-626.316
-613.42
-653.193
-369.929
-204.972
-274.401
-270.525
-432.608
-485.272
-583.127
-317.334
-582.811
-569.715
-667.558
-618.21
-646.501
-698.661
-627.232
-576.429
-333.114
-319.728
-180.549
-254.825
-316.188
-314.294
-169.904
-278.209
44.7659
-100.225
-187.839
-34.6722
-36.049
-140.888
89.3371
-40.5629
-90.0144
130.481
52.1275
34.3744
23.6435
64.9836
39.5368
39.6779
-145.045
-108.4
-60.3645
-27.36
-149.071
44.5132
-24.3135
-231.31
-111.302
275.391
-1023.51
-644.205
-195.295
-33.9997
-684.041
-171.964
-387.803
1326.37
-160.343
-427.696
-229.228
-201.007
-207.156
-228.104
-254.027
-250.497
-872.44
-1470.17
-665.419
-407.032
-57.0392
-119.463
-159.368
-468.037
-238.065
-165.25
-276.723
-561.487
-333.077
-117.221
-274.3
-555.16
-113.264
-317.123
-247.644
-519.616
-128.608
-521.999
-119.564
-315.63
-1032.5
-1059.81
-1093.5
-1012
-1001.02
-962.462
-1049.2
-990.007
-1077.32
-1067.89
-53.3915
-1.55151
21.6122
-0.676776
88.7747
11.5468
-29.6965
-82.0008
-145.821
-176.385
-152.588
-176.396
-143.552
-110.955
-80.5506
-74.4237
-41.5896
-114.538
-1.52644
-179.84
-72.1008
68.7346
60.278
-37.0657
-27.2488
5.58601
34.9398
82.9331
51.1518
-29.2074
-31.1464
-258.068
-309.419
-201.527
140.091
459.209
8384.6
539.528
413.464
2233.21
233.754
-347.472
-86.5877
-407.221
-49.5746
-38.6999
-326.389
-46.1911
-5500.33
51.6221
-392.681
-339.499
-283.489
-415.489
-279.633
-383.87
-273.989
-243.506
-332.818
-264.463
-305.185
-293.295
-302.095
-288.608
-245.712
-285.365
-282.193
-251.724
-287.529
-165.508
-165.941
-188.372
-202.177
-197.989
-182.253
-179.385
-255.132
-213.387
-212.607
-153.328
-176.222
-258.673
-219.932
-232.188
-309.885
-196.148
-350.413
-359.429
-522.388
-171.906
-348.953
-543.534
-180.941
-332.079
-420.712
-549.956
-154.277
-323.915
-555.043
-169.397
-10.4944
-7.81578
-99.5896
-99.8418
-93.3178
-24.3139
-10.2206
-92.1966
-99.222
-92.4199
-1033.37
-1032.73
-1123.79
-986.42
-994.254
-1000.41
-1141.54
-996.889
-1028.52
-1031.82
-1035.05
-1040.67
-1010.5
-1080.38
-1001.21
-1075.49
-1044.61
-998.597
-1103.93
-1000.57
-22.0476
-34.2847
-65.2055
-101.528
-88.1943
-1.99508
-34.9825
-97.7423
-107.709
-98.4529
-103.033
-32.0732
-8.25212
14.2945
4.6898
-63.8773
-29.5953
-152.171
-241.101
-332.045
-217.808
-279.205
-236.366
-174.626
-121.042
-94.9046
-39.909
-146.828
-16.6018
-202.898
-103.449
1.01286
0.370317
-3.42606
-90.4935
-245.891
-102.418
-29.4553
-109.708
-22.6907
-220.989
-328.921
-288.387
-338.5
-249.826
-275.676
-258.591
-256.18
-279.407
-206.765
-325.229
-174.057
-247.893
-295.274
-223.819
-236.902
-125.26
-184.279
-163.321
-225.21
-228.521
-209.986
-342.973
-295.712
-191.459
-437.755
-211.521
-344.529
-172.17
-183.626
-304.801
-194.653
-17.8357
-98.5824
-56.8672
-107.375
-97.6124
-93.8732
-197.072
-201.807
-211.618
-179.312
-231.329
-231.402
-159.021
-179.559
-109.714
-165.588
-121.505
-210.275
-169.449
-68.0033
-290.666
-130.619
-290.636
-172.659
-400.851
-129.833
-304.987
-337.463
-143.909
-248.189
-117.116
-185.002
-122.851
-251.503
-106.184
-207.944
-106.853
-602.953
-654.534
-731.471
-666.115
-582.57
-743.328
-686.882
-614.706
-660.742
-755.301
-707.882
-622.04
-750.096
-704.437
-609.977
-600.374
-549.392
-316.919
-551.297
-594.49
-598.901
-560.745
-317.311
-558.889
-813.782
-799.738
-878.058
-1101.96
-899.648
-771.339
-790.357
-919.765
-1121.32
-908.219
-818.501
-829.997
-918.333
-1057.51
-913.786
-844.096
-836.875
-918.249
-1081.95
-915.859
-619.2
-633.427
-586.249
-319.369
-582.945
-647.988
-641.618
-571.151
-321.243
-574.265
-296.237
-270.851
-276.2
-216.137
-230.707
-240.495
-255.391
-245.355
-255.818
-157.68
-203.583
-192.363
-208.339
-225.907
-210.664
-225.506
-230.293
-215.605
-204.905
-229.681
-229.861
-241.111
-236.847
-242.067
-243.946
-239.777
-243.352
-163.075
-18.9988
-18.0506
-164.444
-18.9787
-18.9755
-148.588
-180.609
-182.024
-206.924
-220.994
-205.641
-202.88
-219.799
-204.248
-236.814
-229.22
-237.316
-202.014
-227.813
-227.25
-229.949
-238.623
-237.949
-240.632
-233.216
-240.227
-203.262
-228.22
-228.53
-232.338
-239.134
-239.641
-136.9
-89.9604
-91.8672
-65.9477
10.4553
-63.5776
-61.2016
10.9778
-62.9184
64.3118
11.8917
63.9075
11.5736
62.8134
63.6249
58.0423
7.58333
60.2994
8.28635
62.2046
60.8166
-236.374
-227.867
-236.028
-200.129
-225.338
-225.315
-227.781
-236.068
-235.921
-143.662
-176.351
-177.045
-201.313
-216.392
-200.336
-198.766
-215.597
-199.51
-200.178
-225.541
-225.839
-238.184
-229.603
-237.412
-236.399
-228.883
-236.819
-150.123
-1.32279
10.3924
-159.539
-5.17873
-10.8655
-149.418
-186.628
-184.27
-202.686
-220.318
-204.466
-208.438
-222.14
-206.421
-242.417
-238.765
-242.265
-193.323
-228.872
-228.242
-238.281
-242.813
-242.615
-238.997
-232.963
-239.913
-199.321
-228.718
-228.244
-234.498
-242.056
-240.98
-137.02
-93.4492
-91.642
-60.5465
11.4251
-62.2834
-64.9978
10.6723
-62.956
44.7508
-2.82252
53.6128
-0.93901
58.266
53.3664
63.7381
9.08023
62.2489
8.1796
59.369
62.6267
-12210.2
-17571.2
-13058
-6870.17
-5501.12
-2246.61
-19362.8
-16107.5
-14325.3
-248.673
-217.765
-252.499
-438.665
-806.627
-403.002
-244.091
28.0787
-279.698
-34037.8
-1117.54
17472.8
73885.8
3311.64
35757.1
-5249.79
-21013.2
529.114
12710.5
1940.51
-7023.94
-1633.32
15324.6
120.052
14054.1
14248.5
-12784.7
-17782.6
-11585.4
6041.99
2174.47
-1069.95
-19811
-7844.59
-10464.8
-19441.1
-9146.29
-43243.3
-9423.71
-218.518
2756.38
-69323.5
-41397.2
-11495.9
-60080.7
-16045.9
-21339.1
-15619.8
-32167.8
120.763
9946.35
6668.35
-8781.51
-18073.8
1309.04
-1922.89
-349.142
-578.699
-16243
-9175.79
-5691.53
-9322.74
-3416.62
-13983.7
-18130.1
-22293.5
-81178
-48132.9
-40210.6
-20536
-32859.4
-28314.8
1056.6
-2252.98
-1817.79
3311.48
-9366.68
-3634.91
-6461.87
-12020.9
-6148.23
-24178.9
-20877
-51812.3
-130513
-54777.7
-57673.9
-19875.5
-36353.6
-39100.9
-10826.5
-8870.1
-11471.1
-14580.9
-10821.8
-5299.73
-541.32
-88.5174
-13787
-9642.38
-10213.8
-4079.59
-9476.82
-10068.4
-10465.3
-11126.2
-11079.4
-12304.6
-11791.3
-11697
-13442.5
-14741.2
-13624.2
-1601.04
-8707.76
-7825.83
-13943.8
-12879.4
-13358
-4240.54
-12.6114
-439.41
-7593.56
-10988.9
-8075.62
-9097.48
-11647.1
-8576.48
-6860.14
-5458.65
2242.09
2552.29
2783.2
267.35
-4380.38
-4742.57
3118.07
3299.79
3107.29
8261.52