/*--------------------------------*- C++ -*----------------------------------*\
| =========                 |                                                 |
| \\      /  F ield         | OpenFOAM: The Open Source CFD Toolbox           |
|  \\    /   O peration     | Version:  2012                                  |
|   \\  /    A nd           | Website:  www.openfoam.com                      |
|    \\/     M anipulation  |                                                 |
\*---------------------------------------------------------------------------*/
FoamFile
{
    version     2.0;
    format      ascii;
    class       volVectorField;
    location    "0.104/solid";
    object      sigmaMidDir;
}
// * * * * * * * * * * * * * * * * * * * * * * * * * * * * * * * * * * * * * //

dimensions      [1 -1 -2 0 0 0 0];


internalField   nonuniform List<vector> 
24998
(
(0.747474 -0.55144 0.370401)
(0.95563 0.210469 0.206093)
(0.820457 -0.560913 -0.110575)
(0.996743 0.00875073 -0.0801659)
(0.93577 0.352339 0.0138479)
(-0.0144644 0.00910779 0.999854)
(0.00248899 0.0059721 0.999979)
(-0.0108506 0.00899384 0.999901)
(-0.10955 -0.0759342 0.991077)
(-0.393365 0.699177 -0.597005)
(0.987083 -0.149898 -0.0565516)
(-0.0193346 0.00945674 0.999768)
(0.994821 -0.0811994 0.0611342)
(-0.680447 0.724675 0.108798)
(-0.0232 0.00969709 0.999684)
(0.995524 -0.0614986 -0.0717608)
(0.998816 0.0126733 -0.0469705)
(0.996638 0.0153294 -0.0804798)
(0.998888 0.00622922 -0.0467274)
(0.919099 0.393902 -0.00991416)
(0.924878 0.380252 0.00286746)
(0.917343 0.397766 0.0162611)
(-0.0119739 0.00940443 0.999884)
(0.00123237 0.00556969 0.999984)
(0.000931558 0.00615264 0.999981)
(0.0017509 0.00547121 0.999983)
(-0.000724478 0.00808517 0.999967)
(-0.00760288 0.00874359 0.999933)
(-0.002095 0.00851119 0.999962)
(-0.0795344 -0.0424872 0.995926)
(-0.087087 -0.049315 0.994979)
(-0.132672 -0.0722271 0.988525)
(0.655681 -0.605389 0.451205)
(-0.530881 0.845897 -0.0512253)
(-0.152532 0.876615 -0.456377)
(0.98965 -0.14062 -0.0286013)
(-0.556905 0.0268873 0.830141)
(0.866689 0.495402 0.0585432)
(0.981029 0.147069 0.126301)
(0.997031 -0.0769963 0.000175558)
(0.995768 0.0291505 -0.08716)
(0.997625 0.0684042 -0.00811219)
(0.995796 -0.0904762 -0.0143163)
(0.995757 0.0369627 -0.0842755)
(0.884054 -0.467381 0.0021503)
(-0.657517 0.753437 -0.00196072)
(0.748391 0.513346 -0.419984)
(0.988473 -0.109743 0.104295)
(0.983944 0.138169 0.112975)
(-0.00531374 0.00766587 0.999956)
(0.886395 -0.46232 -0.0237435)
(0.883667 -0.467897 -0.0143176)
(0.959459 0.221894 0.173787)
(0.802959 0.55613 0.214421)
(-0.00116495 0.00681268 0.999976)
(0.899551 -0.434075 -0.048853)
(0.891725 -0.451239 -0.0347739)
(0.0665814 0.997225 0.0332941)
(-0.0200366 0.999769 0.00780483)
(-0.0305106 0.00447146 0.999524)
(0.991411 -0.041983 0.123858)
(0.392379 0.917542 0.0644678)
(-0.06319 0.997898 -0.0143736)
(0.226318 -0.436462 0.870794)
(-0.530778 0.726172 -0.436978)
(0.999061 -0.0218021 -0.0374365)
(-0.0131552 -0.0493249 0.998696)
(-0.608268 0.792474 -0.0446647)
(0.975743 0.15853 0.150974)
(0.685444 -0.664901 0.29677)
(0.931068 -0.364809 -0.00525603)
(0.964896 0.190967 0.180299)
(-0.307292 0.946671 -0.0968798)
(-0.0395106 -0.0163481 0.999085)
(-0.351315 0.80894 -0.471375)
(0.797253 0.60254 -0.036513)
(-0.661444 0.748692 -0.0441829)
(0.907279 0.417841 -0.0474736)
(0.840376 0.519316 -0.155171)
(-0.223671 0.00333805 0.974659)
(0.979954 0.111286 0.165242)
(0.998394 0.0241719 -0.0512383)
(0.991339 -0.0206293 0.129701)
(0.996607 -0.0818909 -0.00824532)
(0.997529 0.0702592 -0.000241224)
(0.998495 0.021562 -0.0504284)
(0.991806 -0.00955904 0.127396)
(0.991471 -0.0179596 0.129081)
(0.995925 0.0279218 -0.0857556)
(0.991836 -0.00778556 0.12728)
(0.997094 0.057738 -0.0497028)
(0.991449 -0.0335819 0.126097)
(0.715818 -0.69828 0.00304037)
(0.998939 0.044265 -0.0126975)
(0.993695 0.0997062 -0.0512702)
(0.740474 -0.666564 0.0859675)
(0.989449 -0.0708268 0.126386)
(0.994838 0.0551129 -0.0852094)
(0.228744 0.973474 -0.00487536)
(-0.672221 0.736426 -0.0761309)
(0.998945 -0.0436751 -0.0141728)
(0.979204 -0.0380735 0.199274)
(0.743017 0.573309 -0.345316)
(-0.492743 0.870165 -0.00418631)
(0.526583 0.821602 -0.218358)
(0.941057 0.337904 -0.0152532)
(0.995537 0.0909609 -0.0251355)
(0.581576 0.756609 -0.298853)
(0.653804 0.746659 -0.12264)
(0.883817 -0.467833 0.000604675)
(0.883555 -0.46813 -0.0136209)
(0.224932 0.974369 -0.00312826)
(0.959138 0.0680104 0.274643)
(0.977731 -0.0383003 0.206338)
(0.209423 0.977748 0.0122814)
(-0.493204 0.869908 -0.0031682)
(-0.497043 0.867706 0.00584735)
(0.942069 0.335119 -0.0141906)
(0.285703 0.953276 -0.0981787)
(0.519592 0.81563 -0.254502)
(0.94161 0.336652 -0.00598679)
(0.986996 0.0163731 -0.159907)
(0.266201 0.944043 -0.19473)
(0.964405 0.206665 0.164961)
(0.982709 0.143574 0.116918)
(0.168272 0.983354 -0.0685568)
(0.2396 0.957817 -0.158679)
(-0.00162032 0.00705667 0.999974)
(-0.00026669 0.00664667 0.999978)
(-0.00311056 0.00717346 0.999969)
(0.218615 0.975573 0.0215738)
(0.947883 0.149273 0.281487)
(0.209554 0.977711 0.0129748)
(0.10771 0.994182 -0.000563358)
(-0.499548 0.866205 0.011846)
(-0.497269 0.867574 0.00627347)
(0.916982 0.398924 -0.00165158)
(0.268897 0.959137 -0.0880413)
(0.941058 0.338197 -0.00567208)
(0.188834 0.9811 -0.0422528)
(0.886572 -0.46195 -0.024355)
(0.891239 -0.452252 -0.034063)
(0.219883 0.975276 0.0220749)
(0.0423046 0.999073 -0.00802414)
(0.0953006 0.995444 -0.00294631)
(0.243211 0.969545 0.028815)
(-0.499435 0.866265 0.0122085)
(-0.497243 0.867432 0.0176392)
(0.913843 0.406065 -0.00134087)
(0.132392 0.991078 -0.0153785)
(0.18052 0.982846 -0.0377527)
(0.615186 0.78829 0.0120436)
(0.163389 0.984537 -0.0631765)
(0.1376 0.989757 -0.0380352)
(0.0912882 0.995009 0.0402867)
(0.703839 0.68228 0.197748)
(0.114389 0.993201 -0.0216119)
(0.134592 0.990268 -0.0354025)
(0.00114162 0.00609354 0.999981)
(0.000864341 0.0066099 0.999978)
(-0.0023574 0.00732791 0.99997)
(0.29309 0.955433 0.0353039)
(0.0365205 0.9993 -0.00815948)
(0.245925 0.968848 0.0292192)
(0.000549481 0.999961 -0.00886498)
(-0.399497 0.916333 0.0271365)
(-0.496421 0.867895 0.0180389)
(-0.0660006 0.997198 0.0352015)
(0.126426 0.991888 -0.0132051)
(0.544037 0.838938 0.01436)
(0.0875482 0.996149 -0.00470974)
(0.899527 -0.433972 -0.0501862)
(0.393471 0.917324 0.0608006)
(0.297654 0.954005 0.035732)
(-0.0337224 0.999319 -0.0149979)
(-0.00415747 0.999949 -0.00915737)
(0.350149 0.935434 0.0485721)
(-0.373513 0.927194 0.0282705)
(0.604849 0.795089 0.0446226)
(-0.0765976 0.996402 0.036265)
(0.0465515 0.998865 -0.0100619)
(0.0822411 0.996603 -0.00439025)
(-0.15081 0.986434 0.0648416)
(0.111575 0.993553 -0.0200723)
(0.0906261 0.995799 -0.0130672)
(-0.0603261 0.998116 -0.0112099)
(-0.0269155 0.999623 0.00545408)
(0.0649981 0.997796 -0.0133299)
(0.0875066 0.996085 -0.0125032)
(-0.0112316 0.0053816 0.999922)
(-0.0181821 0.000778786 0.999834)
(-0.0410389 -0.00134185 0.999157)
(0.216324 0.97562 -0.0370044)
(-0.0371063 0.999171 -0.0167453)
(0.353296 0.934145 0.0505542)
(0.207189 -0.378711 0.902026)
(0.987254 -0.0984197 0.125076)
(0.602367 0.796813 0.0473627)
(-0.178566 0.983725 0.0199849)
(0.0422425 0.999034 -0.0120856)
(-0.153767 0.985699 0.068942)
(0.149118 -0.283362 0.947349)
(0.0624786 0.997947 -0.0140837)
(0.168264 -0.299626 0.939102)
(0.105759 0.799412 -0.591402)
(0.199611 0.96509 0.169579)
(0.584075 0.791449 -0.180179)
(0.903451 -0.421618 0.077547)
(0.650438 -0.621577 0.436547)
(0.938759 -0.338727 0.0632154)
(0.947048 -0.238112 0.215412)
(0.984547 -0.00501596 0.175048)
(0.801881 -0.596529 0.0337571)
(0.951453 -0.296184 0.0837397)
(0.327807 0.94418 -0.0326641)
(0.954911 0.28477 -0.0839699)
(0.854181 0.442742 -0.27268)
(0.00161998 0.99999 -0.00414877)
(0.996775 0.00148716 -0.0802384)
(-0.00205886 0.99999 0.00399584)
(0.585937 0.784655 -0.202471)
(0.99503 0.0989637 0.0110221)
(0.895073 0.439749 -0.0739241)
(0.997465 0.0701653 -0.0118799)
(0.98219 -0.187546 0.0113669)
(-0.464441 -0.0503424 0.884172)
(-0.0150253 0.00686274 0.999864)
(0.999429 -0.0333862 -0.00515628)
(-0.141018 -0.0242132 0.989711)
(0.983278 -0.181488 -0.0150786)
(0.994862 0.101235 -0.000423307)
(0.988662 -0.1494 0.0150619)
(-0.0346711 -0.00103207 0.999398)
(0.00197273 0.00590069 0.999981)
(0.997848 0.0655656 0.000918615)
(-0.0416017 -0.00296839 0.99913)
(0.98891 -0.147973 0.0127134)
(0.98724 0.158483 -0.015482)
(0.993056 -0.117566 -0.0042473)
(-0.07704 -0.00666837 0.997006)
(-0.0155205 0.00868692 0.999842)
(0.995383 0.0957034 -0.00727563)
(-0.0901268 -0.00922317 0.995888)
(0.993974 -0.108603 -0.0148557)
(0.957466 0.0176391 -0.288006)
(0.759972 0.0611344 -0.647075)
(-0.125107 -0.0647805 0.990026)
(-0.13835 -0.122537 0.982774)
(0.939008 0.309889 -0.149107)
(-0.150949 0.00342025 0.988536)
(0.066975 -0.128206 0.989483)
(0.801132 -0.332728 0.497473)
(-0.346409 0.755798 -0.555671)
(0.923275 -0.383882 0.0140972)
(0.306759 -0.338385 0.889603)
(0.904528 0.02002 0.425944)
(0.707288 -0.703359 0.0709267)
(0.142318 -0.402878 0.904121)
(0.993047 0.0807132 -0.0856967)
(0.999909 -0.0110092 -0.0078312)
(0.974205 -0.225648 -0.00270116)
(0.941812 -0.309935 0.130115)
(-0.00283097 -0.0015855 0.999995)
(-0.015522 0.00958711 0.999834)
(-0.181362 0.00995874 0.983366)
(-0.00801328 -0.0126531 0.999888)
(0.955164 -0.269344 -0.122942)
(0.00560593 -0.0061062 0.999966)
(0.770044 0.587801 -0.248036)
(0.97162 -0.0171228 -0.235927)
(0.768037 0.636973 0.066213)
(0.553995 0.826229 -0.102153)
(-0.41817 0.879714 0.226359)
(0.963836 0.145859 -0.223038)
(0.993679 0.109256 -0.0257743)
(-0.0608172 0.00463619 0.998138)
(0.983063 -0.182266 0.0191566)
(-0.607767 -0.0615623 0.791725)
(0.999587 0.0284056 -0.00435637)
(0.977181 0.111793 -0.180607)
(0.980593 -0.185529 -0.0633775)
(0.996563 0.0825967 -0.00633313)
(0.99689 0.0441539 -0.0652744)
(0.999612 -0.0017091 -0.0278154)
(0.998702 0.0169341 -0.0480323)
(0.99998 -0.002241 -0.00597025)
(0.999926 -0.00998508 -0.00701128)
(0.9963 0.0268841 -0.0816307)
(0.0047007 0.999988 -0.00114862)
(0.0119999 0.999874 -0.0104264)
(0.999979 0.00290913 -0.00583356)
(0.998872 0.00795641 -0.0468054)
(0.999971 0.0047828 -0.00585538)
(0.932179 0.358446 -0.0505856)
(0.993589 -0.113009 0.0030076)
(0.999821 -0.017827 -0.00640651)
(0.899481 0.430125 -0.0769811)
(0.533435 0.807753 -0.250964)
(-0.0857023 0.992581 -0.0862404)
(0.988758 -0.149445 0.00495633)
(0.923346 0.340305 0.177836)
(0.981628 -0.187898 -0.0331811)
(0.962913 -0.269762 0.0053032)
(-0.00579358 0.00976104 0.999936)
(-0.129416 0.00673064 0.991568)
(0.00162092 0.00541105 0.999984)
(-0.00584719 -0.00365549 0.999976)
(0.96441 -0.25118 -0.0825936)
(0.0107992 0.00357747 0.999935)
(0.963794 -0.266578 -0.00610981)
(0.00148024 0.00539719 0.999984)
(0.00416595 0.00506983 0.999978)
(-0.0173547 0.0031497 0.999844)
(-0.0189125 0.00129658 0.99982)
(0.963783 -0.264135 -0.0368114)
(0.00440285 0.00490381 0.999978)
(0.998135 0.061029 -0.00132526)
(-0.00151036 0.00616476 0.99998)
(0.988481 -0.150917 0.0113447)
(-0.0513172 -0.0029233 0.998678)
(0.995744 0.0921673 8.87131e-05)
(-0.0514779 -0.00505144 0.998661)
(0.988111 -0.153585 0.00694886)
(0.963745 -0.264678 -0.0337755)
(0.00393295 0.0051761 0.999979)
(-0.0170677 0.00298754 0.99985)
(0.00215061 0.00527626 0.999984)
(-0.0137528 0.00206087 0.999903)
(0.964571 -0.263661 -0.00929115)
(0.00546854 0.00457998 0.999975)
(0.965039 -0.261249 -0.0211827)
(-5.82682e-05 0.00761854 0.999971)
(0.00568308 0.00740585 0.999956)
(-0.0335041 0.00272537 0.999435)
(-0.0299209 0.00262743 0.999549)
(0.963791 -0.260057 -0.0589648)
(0.00481526 0.00718113 0.999963)
(0.996234 0.0866511 -0.00304676)
(-0.00528977 0.00830637 0.999952)
(0.992186 -0.124768 0.000318604)
(-0.0793774 -0.00701569 0.99682)
(0.990845 0.134822 -0.00703007)
(-0.0646191 -0.00514167 0.997897)
(0.991423 -0.130615 0.00449796)
(0.9634 -0.257686 -0.0738761)
(0.00425559 0.00816992 0.999958)
(-0.0377168 0.00274139 0.999285)
(-0.0038774 0.0084175 0.999957)
(-0.0424526 0.00207393 0.999096)
(0.965503 -0.25871 -0.0295604)
(0.00407221 0.00790956 0.99996)
(0.0599694 -0.0863848 0.994455)
(-0.0475455 -0.0215521 0.998637)
(-0.0943647 -0.0427811 0.994618)
(-0.0898233 -0.0375486 0.99525)
(-0.0622785 -0.0161332 0.997928)
(0.193443 0.800643 -0.567055)
(-0.0508323 -0.019754 0.998512)
(0.971147 0.218539 -0.0954689)
(-0.068521 -0.0273386 0.997275)
(0.901106 0.0246425 -0.432898)
(-0.115217 -0.0594823 0.991558)
(0.926558 0.349865 -0.138148)
(-0.0970692 -0.0324561 0.994748)
(0.956567 -0.00861845 -0.291386)
(0.255999 0.966609 0.0115118)
(-0.169927 -0.0857672 0.981717)
(-0.107705 -0.0405986 0.993354)
(-0.238783 -0.130118 0.962316)
(-0.149959 0.0458277 0.987629)
(0.224984 0.902515 -0.367217)
(-0.328565 -0.17922 0.927321)
(0.162185 0.756732 -0.633287)
(-0.043838 0.946924 -0.318455)
(0.520462 0.843857 -0.130477)
(0.470444 0.874933 -0.114782)
(0.580272 0.786749 -0.2105)
(-0.102108 0.962583 -0.251015)
(0.983608 0.057369 0.170951)
(0.517379 0.84589 -0.129576)
(0.776456 -0.490686 0.395404)
(-0.250654 0.965711 -0.0676341)
(-0.659921 0.749691 -0.0496658)
(0.782626 -0.381558 -0.491843)
(0.947344 -0.302308 0.105593)
(0.756173 -0.652624 -0.0478055)
(0.981363 -0.104921 0.160994)
(0.828465 -0.559507 0.0244395)
(0.965488 -0.260039 0.0145559)
(0.96519 -0.107414 -0.238476)
(0.988479 0.149252 -0.025156)
(0.947404 -0.250951 -0.198621)
(0.987749 0.100392 0.119468)
(0.999222 0.0319038 0.0231993)
(0.903238 -0.269654 -0.333838)
(0.978883 0.203252 0.0218296)
(0.993085 0.105545 0.0514145)
(0.71009 -0.703411 0.0313794)
(-0.693251 0.719042 0.0487919)
(0.72213 -0.691364 0.0233279)
(0.719359 -0.48003 -0.502089)
(-0.642683 0.403246 0.651422)
(0.995443 -0.0916779 0.0262406)
(0.996297 0.0828874 0.0228491)
(-0.15886 0.985305 0.0627521)
(-0.0600521 0.997491 0.0374925)
(0.938925 0.334434 -0.0810755)
(0.0543708 0.998288 -0.0215666)
(0.740743 0.611222 -0.27876)
(-0.0990337 0.994926 0.0177439)
(-0.163623 0.984433 0.0641821)
(0.997425 -0.0708813 -0.0109285)
(0.996749 0.0797794 -0.0112931)
(-0.00486527 0.999973 0.00543824)
(0.0024667 0.999985 -0.00485641)
(0.996754 -0.00368402 -0.0804239)
(-0.0178968 0.999792 0.00980735)
(-0.0016528 0.999999 -0.000179389)
(0.0191657 0.999799 -0.00596258)
(0.00803919 0.999966 0.00190988)
(0.896372 -0.442899 0.0188936)
(0.753679 0.42085 -0.50483)
(0.888838 -0.457519 0.0253695)
(0.733737 0.368833 -0.570606)
(0.996829 -0.0576472 0.0548558)
(0.998455 -0.0103521 0.0546022)
(0.612264 0.78998 0.0326149)
(0.873552 0.484908 -0.0420798)
(0.996739 0.0629507 -0.0504747)
(0.988275 0.124 0.0890865)
(0.974984 -0.181974 0.127636)
(0.997583 -0.00809412 0.0690064)
(0.891315 0.447353 0.073705)
(0.985247 -0.156058 0.0702405)
(0.988334 0.110125 0.105204)
(0.996923 -0.0402327 0.0672677)
(0.97673 -0.117104 0.17968)
(0.99833 0.00615428 0.0574454)
(0.878393 0.471439 0.07856)
(0.840069 -0.539866 -0.0531764)
(0.842467 -0.530684 0.092867)
(0.988392 0.151342 -0.0132703)
(0.989382 0.145238 -0.0054447)
(0.999134 0.0405106 -0.00948519)
(-0.010941 0.00697027 0.999916)
(-0.147331 -0.0130034 0.989002)
(0.986229 -0.165225 0.00728826)
(-0.147733 -0.0216933 0.988789)
(0.997252 0.0740672 -0.00160923)
(0.985263 -0.170915 -0.00662845)
(0.989383 0.145206 -0.00608735)
(0.98975 0.142706 -0.00545489)
(0.850205 -0.518606 0.0905515)
(0.847707 -0.529453 -0.032754)
(0.884926 -0.465324 -0.01947)
(0.884685 -0.465809 -0.0188494)
(0.992243 -0.0469631 0.115103)
(0.993953 -0.0493161 0.0981059)
(0.980409 -0.168709 0.101662)
(0.934814 0.292942 0.200765)
(0.977796 -0.173787 0.117102)
(0.995153 -0.0542318 0.08203)
(0.99414 -0.0498531 0.0959161)
(0.969624 -0.202203 0.137637)
(0.919953 0.331709 0.20894)
(0.977201 -0.175493 0.119499)
(0.862756 -0.505526 -0.00982715)
(0.859599 -0.503208 0.08872)
(0.989322 0.145732 -0.001916)
(0.989316 0.145768 -0.00250946)
(0.997186 0.074968 0.000276878)
(0.000385002 0.00628565 0.99998)
(-0.0579763 -0.00434198 0.998309)
(0.989656 -0.143261 0.00753239)
(-0.0390195 -0.0023916 0.999236)
(0.994138 0.108108 -0.00158988)
(0.989228 -0.145975 0.0109368)
(0.989191 0.146586 -0.00378607)
(0.989275 0.146042 -0.00243195)
(0.863311 -0.497864 0.0826192)
(0.86324 -0.504671 -0.0111785)
(0.895532 -0.443076 -0.0413126)
(0.894725 -0.444783 -0.0404408)
(-0.10176 0.99473 -0.0125551)
(-0.157777 0.98714 -0.0257165)
(-0.250496 0.96656 -0.0548896)
(0.017511 0.999661 0.0192476)
(-0.101087 0.994589 -0.0239674)
(0.973117 -0.154396 0.170898)
(-0.188142 0.981621 -0.0319704)
(-0.0750638 0.997052 -0.0159142)
(0.00609945 0.999855 0.0158994)
(-0.0942468 0.995301 -0.0222273)
(0.884323 -0.46642 -0.0206186)
(0.895612 -0.443027 0.0400695)
(0.988747 0.149359 -0.00840543)
(0.988543 0.150385 -0.0129418)
(0.993686 0.110869 -0.0172021)
(-0.0220348 0.00747412 0.999729)
(-0.094879 -0.0136648 0.995395)
(0.994836 -0.0824003 -0.059251)
(-0.0882827 -0.00946695 0.99605)
(0.980198 0.194673 -0.0362569)
(0.994804 -0.097176 -0.0303585)
(0.987993 0.152405 -0.0253448)
(0.988431 0.150975 -0.0145292)
(0.923542 -0.383424 -0.00752551)
(0.901042 -0.431551 -0.0434486)
(0.308533 0.942116 0.131244)
(0.348536 0.929994 0.116761)
(-0.240542 0.93184 -0.271689)
(-0.122372 0.991679 -0.0399797)
(-0.0925911 0.995439 -0.0229908)
(-0.0680658 0.997331 -0.0264157)
(-0.095599 0.994629 -0.039667)
(-0.117019 0.992942 -0.0192841)
(-0.121827 0.991907 -0.0357512)
(-0.234802 0.8687 -0.436151)
(-0.0694666 0.997019 -0.0335912)
(-0.0957748 0.994427 -0.044068)
(0.995119 -0.0467486 -0.0869067)
(0.951678 -0.289887 0.101363)
(0.947486 0.149718 -0.282586)
(0.923374 0.0565428 -0.379716)
(0.922073 0.0121034 -0.386826)
(-0.347583 -0.161531 0.923631)
(-0.110576 0.067352 0.991583)
(0.233978 -0.177429 0.955915)
(0.970279 -0.0113058 -0.241724)
(0.933111 -0.358819 -0.02349)
(-0.246465 0.768954 -0.589885)
(-0.456045 0.871845 -0.178634)
(-0.468215 0.883602 -0.00479451)
(-0.189573 -0.172839 0.966534)
(0.857423 -0.507033 0.0879938)
(0.947653 -0.311391 -0.0706315)
(0.98416 0.0958205 0.149159)
(0.959326 -0.262057 -0.104975)
(0.929898 -0.107125 0.351873)
(0.170828 -0.141216 0.975129)
(0.975992 0.0845821 0.200711)
(-0.0568095 -0.0486435 0.997199)
(0.920367 0.0606437 0.386326)
(0.972545 -0.178952 -0.14877)
(0.0238088 -0.159432 0.986922)
(0.980523 0.196017 0.0123484)
(0.931785 0.274579 0.237452)
(-0.338525 0.911264 -0.23452)
(0.759015 -0.650624 -0.02416)
(0.769957 -0.637886 -0.0163596)
(-0.0955082 -0.0201479 0.995225)
(-0.14714 -0.0825207 0.985667)
(0.930928 0.169242 0.32362)
(0.992365 -0.0699454 0.101579)
(0.940153 -0.157354 0.302246)
(0.586004 0.810238 -0.0106209)
(-0.230439 0.968908 -0.0900806)
(0.852913 -0.522042 -0.00341551)
(0.999802 0.000220007 0.0199054)
(0.968863 -0.0567891 0.240995)
(0.958909 -0.283171 0.0175411)
(-0.450136 0.891254 -0.0551634)
(0.814002 -0.567827 0.122364)
(0.740178 -0.67227 0.0137672)
(0.955518 -0.276537 0.102535)
(0.00350721 -0.0131759 0.999907)
(0.971481 0.0743796 0.225149)
(-0.067447 -0.00530262 0.997709)
(0.995765 -0.0841024 -0.0371281)
(0.23346 -0.0169018 0.972219)
(0.0147048 -0.017769 0.999734)
(-0.00606341 0.0016194 0.99998)
(-0.00203211 -0.00190017 0.999996)
(0.990053 0.136631 -0.0335777)
(0.993206 0.116331 -0.00284813)
(0.982617 0.185642 0.00108514)
(0.992108 0.124702 0.013079)
(-0.0702767 -0.011656 0.997459)
(-0.0185485 -0.00503661 0.999815)
(0.586109 0.722177 -0.367337)
(0.387713 0.921251 -0.0312257)
(0.680046 0.731114 0.0548706)
(0.989115 0.102382 -0.105681)
(0.894666 0.440363 -0.0751926)
(0.76886 0.638412 0.0358287)
(-0.517666 -0.348472 0.781402)
(0.787536 0.615993 0.0184225)
(0.807279 0.587023 -0.0608707)
(-0.358473 0.933306 -0.020891)
(0.929783 0.329363 -0.164387)
(-0.274822 0.956452 0.0983472)
(0.992703 -0.00892831 -0.12025)
(-0.26734 0.963401 0.0196811)
(-0.19584 0.980431 -0.0200315)
(-0.563627 -0.122598 0.816881)
(0.990699 0.132549 -0.0307472)
(-0.126972 0.000138429 0.991906)
(0.988438 0.145363 -0.0431284)
(0.959602 -0.240775 -0.145569)
(0.993028 -0.116737 0.0163862)
(0.992906 0.116245 -0.0249792)
(0.966808 -0.21333 -0.140618)
(0.837482 -0.541489 0.0735718)
(0.818677 -0.546232 -0.177195)
(0.989473 0.143608 -0.0178609)
(0.992514 0.121725 -0.00997566)
(0.982381 0.186642 0.00962349)
(0.991429 0.130581 -0.00415517)
(0.697373 -0.476227 -0.535611)
(0.825254 -0.558497 -0.0838859)
(0.995972 0.0868008 0.022495)
(0.989717 -0.0292462 0.14002)
(0.999362 0.035638 0.00220023)
(0.996813 0.0527408 -0.0598485)
(0.999314 -0.0353774 -0.0109937)
(0.983966 -0.176814 -0.0233911)
(0.9907 -0.0100878 0.135687)
(0.998365 -0.0552702 0.0145737)
(0.993925 -0.10998 0.00429213)
(0.997727 0.0671434 -0.0056612)
(0.996741 -0.0804708 -0.00565674)
(0.998548 0.0231692 -0.0486336)
(0.999682 -0.0231285 -0.0100344)
(0.999841 -0.0161653 -0.00759027)
(0.999775 -0.00553048 0.020494)
(0.991708 -0.0135773 0.127794)
(0.999701 -0.0147937 0.0194443)
(0.999153 -0.0379337 0.015945)
(0.991676 -0.0138098 0.128015)
(0.99956 -0.0229626 0.0187499)
(0.996074 0.0329724 -0.0821506)
(0.0386595 0.999067 -0.0192726)
(0.0142182 0.999872 -0.00728989)
(-0.0140244 0.9999 -0.00173646)
(-0.0220293 0.999723 0.00826066)
(-0.0619284 0.997943 0.0165829)
(-0.0330321 0.999452 0.00208508)
(0.999787 0.000789863 0.0206039)
(0.991939 0.000997544 0.126716)
(0.999786 0.00264451 0.0205232)
(0.998879 0.00529093 -0.0470361)
(0.999724 0.022417 -0.00707508)
(0.999924 0.0107923 -0.00601631)
(0.991972 0.000565626 0.126455)
(0.999808 -0.000444049 0.0196103)
(0.999763 0.0076541 0.0203722)
(0.95678 -0.290768 0.00520834)
(0.956218 -0.29263 -0.00395426)
(0.947683 0.314635 -0.0538687)
(0.999563 0.0285588 -0.00757432)
(0.999964 0.00354062 -0.00765589)
(0.968031 -0.250347 0.0155394)
(0.894867 -0.431005 0.115959)
(0.990603 -0.135531 0.0183776)
(0.999772 -0.00915732 0.019297)
(0.937444 -0.325976 0.122226)
(0.995029 -0.0978067 0.0187439)
(0.919283 0.384246 -0.0852899)
(-0.0177256 0.999835 0.00407197)
(-0.0989866 0.994274 -0.0402689)
(0.584106 0.809204 0.0633224)
(0.0425003 0.99701 0.0645381)
(0.0243836 0.999702 0.000742835)
(0.028093 0.998817 0.0397031)
(0.202619 0.978824 0.0291376)
(0.319112 0.947336 -0.0268579)
(0.338699 0.940891 -0.00283517)
(0.958256 -0.285593 0.0134785)
(-0.0999523 -0.573386 0.813165)
(0.958202 -0.281352 -0.0518618)
(0.831492 0.497531 0.247151)
(0.988329 -0.0301603 0.149319)
(0.907503 0.399375 -0.130143)
(0.400962 0.913656 0.0667999)
(0.982861 -0.17548 -0.0564819)
(0.268324 0.960282 0.0765509)
(0.984852 -0.019351 0.172313)
(0.377138 0.920955 0.0980278)
(0.370171 0.928324 -0.0344587)
(-0.0254183 -0.210318 0.977302)
(0.898974 0.426555 -0.0994795)
(0.41433 0.909252 -0.0398979)
(0.965053 -0.233129 -0.119684)
(-0.491465 0.87073 -0.017051)
(-0.473245 0.880649 -0.0223108)
(0.980177 0.166875 -0.106796)
(0.918551 0.39403 -0.0316925)
(0.959107 0.259213 -0.113673)
(0.821558 0.429608 -0.374806)
(0.986262 0.162603 -0.0291129)
(0.951049 0.276605 -0.137823)
(0.964086 0.221395 -0.146703)
(0.771692 0.489684 -0.405834)
(0.956226 0.253886 -0.145511)
(0.908423 0.416299 -0.0382433)
(0.973934 0.221406 -0.0493255)
(0.949122 0.29355 -0.113998)
(0.883031 -0.469257 -0.00733934)
(0.883069 -0.46917 -0.00823488)
(0.188141 0.981619 0.0320612)
(0.211894 0.977276 0.00570172)
(0.173192 0.98433 0.0331602)
(0.970058 -0.0107615 0.242635)
(0.201645 0.978938 0.0319322)
(0.218242 0.974859 0.0449537)
(0.253243 0.964882 0.0697828)
(0.972371 -0.0221136 0.232392)
(0.224842 0.973096 0.0502968)
(0.21115 0.977431 0.00666576)
(0.172765 0.984538 0.0289401)
(0.172214 0.984525 0.0324427)
(-0.495448 0.868636 0.00194242)
(-0.495658 0.868514 0.00251205)
(0.983282 0.148551 -0.105302)
(0.944358 0.328791 -0.00921836)
(0.986872 0.123265 -0.104355)
(0.352958 0.92505 -0.140366)
(0.925399 0.349854 -0.145738)
(0.953802 0.262884 -0.145446)
(0.964312 0.221042 -0.145748)
(0.383836 0.909331 -0.160582)
(0.95841 0.245754 -0.145102)
(0.944331 0.328882 -0.00871921)
(0.98434 0.138866 -0.108582)
(0.986948 0.12213 -0.104963)
(-0.0875341 0.995566 -0.0344376)
(-0.0747032 0.99688 -0.0255079)
(0.559552 0.595374 -0.576568)
(0.874813 -0.483757 0.0260988)
(-0.0781676 0.996475 -0.0304671)
(-0.137372 0.989458 -0.0458405)
(0.465344 0.754323 -0.463089)
(-0.0965175 0.994745 -0.0341438)
(0.871236 -0.486867 0.0625221)
(-0.0725165 0.997091 -0.0234744)
(0.996669 -0.0591286 0.0561668)
(0.99598 -0.0596711 0.0668089)
(0.974788 0.173133 0.14076)
(0.980646 -0.168551 0.0996219)
(0.981795 -0.169301 0.0861117)
(0.984373 -0.16079 0.0718064)
(0.977257 0.164597 0.133704)
(0.981935 -0.169424 0.0842528)
(0.995266 -0.0548683 0.0802218)
(0.995902 -0.0591555 0.0684122)
(-0.0885915 0.995446 -0.0351921)
(-0.0912922 0.995086 -0.0383276)
(0.187362 0.978081 -0.0908427)
(-0.129947 0.990246 -0.0502712)
(-0.141149 0.988709 -0.0503225)
(-0.139411 0.989132 -0.0467193)
(0.196132 0.975289 -0.101704)
(-0.142001 0.988596 -0.0501383)
(-0.0876566 0.99538 -0.0391902)
(-0.0911239 0.995093 -0.0385478)
(0.00607557 0.00468043 0.999971)
(0.00500759 0.00180533 0.999986)
(0.989389 0.14333 -0.0237921)
(0.99062 0.136634 -0.00143615)
(0.961344 -0.27459 0.0204488)
(0.0016159 0.00557765 0.999983)
(-0.0423573 0.00447741 0.999092)
(0.002014 0.00682814 0.999975)
(-0.0198106 -0.00192289 0.999802)
(0.962409 -0.266057 -0.0546111)
(0.00683401 0.00449718 0.999967)
(0.990569 0.136604 -0.0105993)
(0.990978 0.133952 -0.00444092)
(0.00265199 0.00208726 0.999994)
(0.013281 0.00440034 0.999902)
(0.963241 -0.267098 -0.028726)
(0.00202274 0.00545426 0.999983)
(-0.0352709 0.00376032 0.999371)
(0.00321791 0.00644798 0.999974)
(0.964344 -0.26331 -0.0265965)
(-0.0143013 0.000849129 0.999897)
(0.00674737 0.00449619 0.999967)
(0.00229142 0.00146099 0.999996)
(0.0114979 0.00423079 0.999925)
(0.990638 0.136422 -0.00502366)
(0.990738 0.135711 -0.0046301)
(0.990447 0.137626 -0.00857389)
(0.990681 0.13615 -0.00382046)
(0.0113939 0.00476162 0.999924)
(0.00329147 0.00153629 0.999993)
(0.996028 0.0890027 -0.00259591)
(-0.00295397 0.00633269 0.999976)
(-0.0999352 -0.0082189 0.99496)
(0.986726 -0.16221 0.00774266)
(0.999329 0.036623 -0.00107323)
(-0.058771 -0.00681031 0.998248)
(0.987444 -0.157951 0.00253426)
(0.859328 -0.503775 0.0881265)
(0.860046 -0.509941 -0.0167609)
(0.989357 0.145482 -0.00266317)
(0.989455 0.144807 -0.0029869)
(0.989217 0.146386 -0.00466714)
(0.98942 0.145038 -0.00343719)
(0.854832 -0.518505 -0.0203822)
(0.855833 -0.509879 0.0870277)
(0.212835 0.976924 0.0178983)
(0.173544 0.984688 0.0164816)
(0.174584 0.984413 0.0212669)
(0.196705 0.980052 0.0283847)
(0.266442 0.962736 0.0463524)
(0.182715 0.982973 0.0194766)
(0.212075 0.9771 0.0173264)
(0.173285 0.984487 0.0275115)
(0.174488 0.984394 0.0228732)
(0.164611 0.986301 0.0106268)
(0.18705 0.982124 0.0211143)
(0.178146 0.983857 0.0170066)
(-0.498802 0.866665 0.00936656)
(-0.498447 0.866874 0.00899184)
(0.932735 0.360545 -0.00347035)
(0.763422 0.639619 -0.0898616)
(0.951557 0.285326 -0.114577)
(0.907104 0.395332 -0.144481)
(0.228427 0.971434 -0.0643204)
(0.787736 0.602747 -0.127156)
(0.934298 0.356474 -0.00373537)
(0.982257 0.15175 -0.110193)
(0.96603 0.231678 -0.114505)
(0.465472 0.88257 -0.0663735)
(0.217315 0.97438 -0.0579552)
(0.716095 0.688578 -0.11432)
(0.888525 -0.457929 -0.0287021)
(0.888833 -0.45729 -0.0293354)
(0.172426 0.984909 0.0149696)
(0.228247 0.973272 0.0253908)
(0.167019 0.985892 0.0109872)
(0.0612853 0.998095 -0.00712605)
(0.124545 0.992213 0.00116478)
(0.14 0.990144 0.00383223)
(0.159848 0.987102 0.00888322)
(0.0684841 0.997631 -0.00652532)
(0.145028 0.989415 0.00494491)
(0.230152 0.972812 0.0258372)
(0.155908 0.98775 0.00647787)
(0.164676 0.9863 0.0097596)
(-0.500149 0.865815 0.0146683)
(-0.500163 0.865801 0.0150274)
(0.610753 0.789003 -0.0667423)
(0.86909 0.494651 0.00157446)
(0.281492 0.95941 -0.0171477)
(0.151372 0.988203 -0.0232828)
(0.167091 0.985911 -0.00773507)
(0.229548 0.973095 -0.019828)
(0.397618 0.916016 -0.0530608)
(0.158144 0.987063 -0.0264093)
(0.258845 0.965581 -0.0255653)
(0.856747 0.515732 0.00224676)
(0.149676 0.988732 0.0026303)
(0.230961 0.972916 -0.0095278)
(-0.0682924 0.996956 -0.0376123)
(-0.0783802 0.996173 -0.0386783)
(-0.127723 0.990543 -0.0501138)
(0.151011 0.987245 -0.0504237)
(-0.109142 0.992855 -0.048231)
(-0.0868336 0.995452 -0.0391911)
(-0.0795804 0.996074 -0.0387795)
(-0.0836372 0.995495 -0.0446684)
(0.14745 0.987957 -0.0468937)
(-0.106126 0.9932 -0.0478572)
(0.991936 -0.0467536 0.117804)
(0.988966 -0.0514263 0.138933)
(0.224122 0.971481 0.0774197)
(-0.308367 0.94899 -0.0657832)
(0.905756 -0.393263 0.157958)
(0.967801 -0.208914 0.140416)
(0.306846 0.946485 0.100063)
(0.925907 -0.343315 0.15758)
(0.978472 -0.120373 0.167638)
(0.988366 -0.0537242 0.142292)
(-0.0664431 0.997089 -0.0373937)
(-0.0528453 0.997968 -0.0356102)
(0.122936 0.992054 -0.0267628)
(-0.0253188 0.999125 -0.0332888)
(-0.0500758 0.997995 -0.0387152)
(-0.0798475 0.995833 -0.0440627)
(0.125814 0.99164 -0.0286618)
(-0.0537488 0.997776 -0.0394318)
(-0.0347493 0.998855 -0.0328731)
(-0.0506154 0.998094 -0.0352974)
(0.0109133 0.00422209 0.999932)
(0.00265775 0.00144743 0.999995)
(0.990616 0.136599 -0.0045615)
(0.990641 0.136438 -0.00391253)
(0.964436 -0.264142 -0.00960176)
(0.00140996 0.00564927 0.999983)
(-0.0204931 0.00268249 0.999786)
(0.00506835 0.00543164 0.999972)
(-0.0183134 0.00216046 0.99983)
(0.963924 -0.26293 -0.0414502)
(0.00410325 0.00527009 0.999978)
(0.990562 0.13694 -0.00588358)
(0.990634 0.136466 -0.00466825)
(0.00328623 0.00182099 0.999993)
(0.011261 0.00431842 0.999927)
(0.963893 -0.261857 -0.0483821)
(0.00073261 0.00700732 0.999975)
(-0.0237225 0.00270287 0.999715)
(0.0045448 0.00617026 0.999971)
(0.964856 -0.262367 -0.0147179)
(-0.0256636 0.002538 0.999667)
(0.00584775 0.00625177 0.999963)
(0.00527876 0.00295861 0.999982)
(0.0132613 0.00538803 0.999898)
(0.99032 0.138409 -0.0104375)
(0.990453 0.1376 -0.00836586)
(0.990543 0.137051 -0.00639349)
(0.990486 0.137412 -0.00750149)
(0.012127 0.00477842 0.999915)
(0.00445747 0.00236678 0.999987)
(0.992857 0.119263 -0.00340618)
(-0.0036729 0.00777701 0.999963)
(-0.0527012 -0.00360557 0.998604)
(0.990162 -0.139744 0.0071915)
(0.996822 0.0796521 -0.00104728)
(-0.0675322 -0.00569458 0.997701)
(0.990758 -0.135549 0.00501451)
(0.879598 -0.47119 0.0654734)
(0.87422 -0.48535 -0.0132152)
(0.988839 0.14878 -0.00787887)
(0.989011 0.147744 -0.00544377)
(0.989155 0.146827 -0.00368923)
(0.989076 0.147307 -0.00533313)
(0.867398 -0.497462 -0.0123431)
(0.869873 -0.487255 0.0768377)