/*--------------------------------*- C++ -*----------------------------------*\
| =========                 |                                                 |
| \\      /  F ield         | OpenFOAM: The Open Source CFD Toolbox           |
|  \\    /   O peration     | Version:  2012                                  |
|   \\  /    A nd           | Website:  www.openfoam.com                      |
|    \\/     M anipulation  |                                                 |
\*---------------------------------------------------------------------------*/
FoamFile
{
    version     2.0;
    format      ascii;
    class       volScalarField;
    location    "0.104/solid";
    object      sigmaHyd;
}
// * * * * * * * * * * * * * * * * * * * * * * * * * * * * * * * * * * * * * //

dimensions      [1 -1 -2 0 0 0 0];


internalField   nonuniform List<scalar> 
24998
(
260.658
-11.9618
258.3
180.009
72.0994
765.174
725.144
684.003
607.896
223.743
254.949
769.626
-16.7126
260.153
777.201
262.913
195.59
180.446
194.945
146.104
126.626
96.9355
760.635
726.461
729.352
722.38
689.681
691.021
683.052
620.342
622.045
601.864
-51.6608
-33.7776
173.087
354.003
747.518
274.391
306.041
222.167
194.229
217.582
216.077
183.718
132685
131.121
184430
-85829.6
-75488.5
747.889
70881.9
99051.1
-49101.9
-32650.9
712.792
20259.1
41705.6
-16226.9
-7479.13
658.402
-200.77
3515.76
-1227.22
-58.0999
-51.6931
346.384
730.654
81.639
322.91
-51.0745
403.124
371.428
112.947
761.27
148.431
267.829
406.463
219.776
228.914
772.92
349.03
208.063
274.781
217.874
221.827
206.583
271.441
274.598
192.85
270.886
198.245
270.497
155.733
215.994
199.826
202.313
270.352
184.696
118692
159.176
-87328.8
-48212.2
88253
151037
222089
150759
54458.2
14249.2
265635
130639
100979
116893
-31988.6
-45850.3
91231.1
148518
112546
148187
6381.25
12995.9
111626
15608.8
-1348.77
-51684.7
-72019.7
-6359.73
-2268.95
744.06
738.798
742.09
64912.3
-30255.8
89557.9
-19385.1
77139.6
110242
75994.2
5628.83
109294
1498.21
69060.9
43302.7
63307.6
-9909.87
-18019.1
40330.7
75039.1
45918.9
73898.3
-947.233
1062.71
45005.6
-6719.35
-7997.33
-17765.8
-30547.9
-7174.83
-8020.25
710.369
705.833
708.04
19382.1
-8961.94
38891.8
-3759.04
20875.9
44150.9
20531.9
-1095.13
43263.8
-1342
19020.6
4215.75
18247.9
-592.241
-3211.21
4548.02
19562.7
4107.94
19258.2
-581.292
-1286.11
4403.91
-6930.37
-4616.67
-1659.39
-6516.8
-1643.88
-4234.91
658.885
649.729
648.877
-320.638
-380.425
3895.17
-175.501
-201.035
3391.18
-282.632
-473.493
3720.78
-403.657
-1334.88
-288.001
-59.6347
-190.95
-150.976
831.131
225.344
344.245
461.682
671.128
200.628
405.469
56.9731
239.004
47.7484
-21.9493
179.565
-22.2845
0.526221
-741.927
-798.884
500.435
605.227
920.055
758.114
526.106
912.619
597.928
461.648
563.885
878.58
721.154
471.462
871.853
560.489
414.173
525.041
832.249
676.209
433.103
818.772
517.456
422.779
441.341
766.552
573.388
384.261
738.833
418.136
320.722
179.563
338.205
417.587
681.468
158.509
286.112
230.884
385.737
347.907
301.39
775.496
402.5
954.52
972.306
329.299
404.69
-35.1809
-46.9063
21.946
307.979
72.7033
176.26
529.31
786.557
611.663
932.427
520.519
959.404
619.574
373.482
256.949
339.471
199.235
299.765
303.179
184.644
-21.7768
-18.7862
299.094
194.527
298.809
201.952
219.133
303.132
191.587
1.97547
-8.4014
131.09
430.345
-1598.22
319.769
406.476
944.366
753.984
935.028
345.016
401.399
304.236
730.418
378.087
904.074
911.481
301.544
380.717
479.546
733.517
567.462
881.303
469.309
888.919
571.387
294.461
375.598
901.349
718.429
894.467
301.248
372.578
281.795
695.598
352.151
859.57
870.095
274.929
356.244
445.169
697.28
531.796
836.25
430.059
847.061
537.808
265.517
347.634
855.674
675.696
842.703
274.302
342.615
242.791
631.033
309.113
790.47
800.105
241.878
314.13
381.243
630.865
458.922
768.041
373.781
775.766
469.472
276.565
302.403
787.855
559.03
755.387
245.144
298.553
-58.8722
-51.5891
-134.937
-148.649
-96.4931
-54.4249
-955.478
-143.407
141.223
492.055
237.526
379.159
310.12
452.472
474.813
222.571
722.025
682.315
907.366
627.771
823.251
596.193
613.717
1045.4
1003.44
511.053
418.575
384.846
440.497
450.106
229.43
227.159
55.5205
44.5903
227.048
-10.4604
34.6605
-4.8171
35.1162
216.538
216.509
-18.4764
-18.8168
179.856
-19.6122
-22.1183
-16.3653
-18.6553
147999
747.777
151614
744.944
-152334
-173310
17.1957
-479.371
-3080.23
-88194.4
-189349
-145745
-630.975
-124864
-89117.7
-142585
-228416
-177171
-547.256
411.372
403.066
1066.77
1066.33
501.897
753.499
902.08
585.422
912.89
488.32
591.075
1055.18
1069.6
393.407
399.315
83840.7
85717.2
-73512.5
-88997.8
-89954.5
-41696
-76599.3
-107995
-91301.1
-62192.8
-39342.3
-74744.5
378.208
375.29
1029.68
1022.74
463.772
717.142
861.966
552.783
869.638
453.191
556.877
1011.87
1020.46
369.307
373.761
29636.1
31068.2
-19777.4
-28853.4
-35475.5
-12044.4
-26308.4
-41156
-30280.9
-17335.4
-10796.7
-25096.3
349.63
341.595
979.365
964.808
417.993
667.632
798.471
499.616
814.012
394.818
508.962
942.681
959.395
327.399
337.635
-421.883
-106.441
771.901
-1008.91
-4156.97
-291.584
-1221.87
-4668.99
-1350.69
667.67
-113.616
-920.638
275.199
249.234
915.128
880.755
410.515
508.073
710.851
335.476
833.875
236.205
65.5038
-49.6532
108.587
97.3451
313.27
310.424
535.631
133.205
415.917
647.308
931.729
354.324
836.582
373.839
306.503
1121.58
1068.17
-29.3649
258.781
121.374
88.0169
71.8219
309.897
-1224.44
270.456
581.574
310.101
373.732
406.828
274.626
350.268
273.155
423.67
345.487
335.745
773.039
934.14
407.718
459.484
962.834
421.141
152.057
151.252
1158.53
1195.69
1111.29
1175.22
142.667
162.246
-2.43516
421.142
100.008
-44.3396
73.3279
446.787
170.467
148.613
346.836
337.322
213.173
69.3782
171.209
299.466
187.023
194.99
532.45
783.588
910.169
634.413
605.358
948.313
629.437
412.463
417.971
1086.19
1132.64
1038.07
1110.9
443.34
426.106
395.904
278.513
340.049
232.199
312.087
330.919
276.052
326.632
336.387
219.831
220.179
200.892
309.897
304.661
317.948
273.256
320.752
325.212
273.767
321.782
185.692
-12.1426
-18.1092
-18.1817
-15.1696
-7.16595
-14.3072
317.335
270.116
317.063
195.021
302.558
299.376
270.19
320.433
317.618
208.206
210.679
203.761
304.039
306.381
234.897
260.713
319.058
321.609
266.154
322.85
191.297
-18.8
-10.5128
14.1614
-4.30835
-15.4803
-7.00985
39060.8
132548
41925.4
147.576
788.206
-1317.8
7558.21
-56550
43950
17243.6
-1548.17
16559.9
-57405.7
15789.2
138583
787.489
79292.3
44491.6
-1578.02
169647
173121
98955.5
169501
111866
23104.4
157972
93132.5
77984.2
18512.1
88720.4
173279
188874
116560
116595
114623
38275.8
104741
36096.2
-37475.8
16328
16613
16595.2
-39421.2
16654.4
103036
33034.1
35353.8
131376
128980
95099.9
130728
84285.7
8906.59
54862.7
63007.1
74761.6
9846.34
65835.4
128294
70847.7
80837.4
-78364.1
-84982.6
6471.18
-156302
-93891.6
-83513.9
2025.94
-91950
-166280
-87077.8
-149556
-130800
-59808
-91911.2
-105905
-122658
-62666.7
-107946
-110458
-128196
-77727.8
-72855.7
-4978.08
-67063.6
-74621.2
-82549.1
-4402.58
-75655.4
-65931.7
-72063
157.541
151.541
1141.03
1138.26
313.2
749.141
924.834
389.874
934.627
314.143
393.303
1126.96
1140.74
143.242
146.265
305.24
734.307
920.654
388.101
315.898
913.264
384.506
134.864
137.221
1104.19
1113.32
1121.03
1114.67
143.214
139.247
477.439
737.495
897.605
580.435
491.434
890.64
575.732
379.622
383.78
1032.98
1042.06
1049.06
1043.28
391.355
385.943
76298.8
26025.8
28797.2
16180.5
-25323.3
15582.8
77943
32225.2
29683.1
14418
-23768.2
15330.4
92230.6
94434.2
91120.3
46700.2
55309.4
52252.7
3620.59
44734.5
93345.3
67628.2
58302.3
35480.8
3031.25
42337.1
56664.9
54942.4
25068.1
52301.7
22096
-13070.7
10916.4
12392.2
14062.3
-14230.1
12843.4
50766.6
17985.3
21080.2
60886.7
58940.8
43962.1
59803.3
36174.9
-301.608
19955.9
25280.8
33313.5
-16.0743
27192.3
57870.8
26847.3
33726.5
-49765.5
-57063.9
-65950.1
-7516.7
-58034.7
-64988.2
-58083.3
-48909.8
-7699.03
-56893.7
-71396.1
-57297.6
-22820.5
-36879
-47320.7
-60467.4
-24648.7
-48896.5
-42832.8
-55389.9
-48705.5
-41245.6
-7736.7
-31244.4
-38806.2
-47773.5
-7861.71
-39911.9
-32757.4
-40176.1
133.984
130.894
1100.8
1093.55
293.89
714.529
884.739
366.693
892.278
289.583
369.559
1082.56
1091.24
126.842
129.526
282.525
700.927
881.954
363.574
289.033
873.225
360.04
116.527
120.371
1054.34
1066.2
1079.34
1069.66
125.509
122.048
442.649
702.904
859.138
548.199
455.347
850.281
543.229
352.729
359.158
983.782
995.636
1008.69
999.121
367.145
361.659
27954.6
9840.7
12816.2
10389.5
-6430.44
8738.3
29259.8
16944.8
13836.9
6461.2
-5688.74
8171.39
30944.2
32495.2
30318.6
12157.4
17023.2
18320
-1356.65
13833.1
31840.5
24715.5
18819.2
8848.13
-1388.41
12480.5
11187.7
10191.1
8890.8
11023.4
6221.24
-1463.66
2355.49
3755.49
5896.96
-1835.52
4267.81
10104
3223.92
5403.91
11312.5
10275.6
10711.3
11301
6906.24
-924.21
2259.19
4210.03
7779.72
-1030.45
4997.9
10303.2
3095.95
5817.11
-16972.7
-23578.6
-30194.4
-6043.97
-23123.3
-31710.2
-24565.4
-15791.7
-5709.99
-22158.5
-18613.4
-11416.9
-3343.27
-4695.97
-9311.92
-16332.8
-4035.25
-10090.3
-5277.66
-10524.6
-16080.8
-10321.8
-2698.76
-4573.62
-8819.99
-14943.6
-3077.93
-9515.71
-4972.22
-9574.55
114.571
110.203
1050
1037.27
264.811
667.638
822.985
331.466
837.99
254.753
337.204
1014.02
1030.76
103.91
107.967
243.372
640.365
818.003
325.539
253.938
803.738
319.661
107.013
99.0926
982.608
986.905
1009.05
990.906
101.7
100.156
375.325
639.574
793.355
489.599
399.477
779.236
479.408
286.343
303.673
913.989
918.817
937.001
922.088
322.374
309.7
179.559
-816.459
643.156
1943.21
22.6947
872.753
481.359
2601.32
1066.92
-818.399
60.8109
543.412
-583.96
-270.525
-63.1282
-856.979
296.023
1739.25
-243.943
526.346
233.8
2368.38
704.11
-890.335
-226.378
202.483
412.152
-1063.61
-4064.26
-611.89
-1281.12
-4414.71
-1370.07
399.551
-464.555
-998.622
111.01
168.677
982.569
936.614
282.599
500.237
726.422
249.556
887.83
226.794
-150.762
-75.2253
-87.9396
-17.4788
205.867
257.738
206.421
124.76
179.693
124.078
87.0366
-129.315
-98.8056
250.671
328.733
327.004
-81.5942
-36.802
-20.9792
-58.9239
275.721
206.434
224.572
319.414
269.509
313.767
196.574
253.457
254.559
182.11
125.067
126.385
252.765
194.517
252.392
179.592
215.23
243.524
177.511
110.326
136.977
180.581
7.81225
83.9946
-74.9355
-47.1537
-73.9231
-80.9188
-83.8143
-64.7188
-62.537
-191.567
33.582
-11.2033
-54.3402
46.4747
54.3056
-9.15649
473.847
152.877
320.625
197.594
385.573
281.373
149.387
649.652
59.8343
252.925
402.644
1081.58
457.565
389.794
500.144
220.372
367.166
310.422
358.382
268.842
426.247
101.718
260.519
54.3787
223.452
29.4999
30.3138
199.349
138.547
144.81
26.2297
217.224
25.0145
216.58
22.236
22.5999
181.998
128.157
126.072
138935
-56.1425
116.492
-87.2201
184552
20010.9
7852.49
-229486
-240725
-117346
-84793.6
-114538
-117502
-26519.9
-84913.8
-79419.4
-90416.4
-372024
-270477
76398.5
93309.8
-107891
-117808
-59732.3
-46576.1
-55782.5
-161089
-149752
-40736.7
-34818.8
-44294.5
24137
37037
-28020.5
-33350.4
-22740.2
-14759.6
-20065.2
-59279.1
-52122.3
-10858.5
-8515.16
-12902.3
-1032.02
1683.37
650.476
1.33812
-2453.81
-853.263
-1569.88
-6523.11
-4241.76
322.848
88.9375
43.0531
463.472
342.243
554.954
330.904
-171.008
-13.4488
-85.7451
-84.7338
-98.9683
-40.5273
16.4298
564.18
43.8409
251.578
359.094
1107.7
419.377
333.221
65.7191
193.27
20.5868
162.756
-45.0957
210.552
84.3892
123.085
345.047
233.437
-11.3372
41.573
-191.97
-17.7801
-378.238
-12.6459
-186.054
408.369
373.619
400.972
218.688
166.743
210.804
124.146
276.096
49.4484
214.688
175.185
99.2291
271.683
179.91
355.052
182.842
84.4671
355.004
231.184
335.469
264.828
340.896
282.354
308.718
186.327
215.674
235.225
179.841
262.311
211.731
182.198
264.681
228.118
233.303
194.051
300.187
208.973
208.832
395.677
315.882
365.194
209.854
266.647
269.081
275.22
325.408
325.283
26.2138
218.795
25.8472
29.5648
221.288
27.6176
204.75
265.011
263.149
322.811
272.098
323.454
325.662
274.445
325.69
189.993
137.176
133.703
322.24
270.552
321.827
196.905
256.384
255.029
270.519
323.495
322.967
-42.7428
186.934
-12.9691
21.6979
215.271
18.6416
201.579
258.109
260.104
257.966
231.67
290.581
323.963
269.993
324.287
187.923
129.045
132.262
87848.3
124216
90885.4
202.612
130.122
124.745
239666
-84185.9
-20976.7
-43682.6
4583.67
-25557.5
-50919.6
-27368.7
166655
-54176.3
144442
121679
25781.8
158724
171576
125721
158597
133009
20740.9
92831.7
51564.3
35438.7
15513.3
37446.9
182335
240878
166814
124571
106802
85895.8
111631
82843
-33767.1
-15085.9
-16192.8
-23996.9
-43571.8
-22487.6
96271.6
68376.3
71733.5
141091
119531
123516
140609
116857
7176.56
22577.6
23983.1
33526.6
11893.2
31780.8
118696
92310.1
98002.4
-84646.2
-85397.1
6397.15
-50803
-61694.3
-43943.4
-410.767
-45306.9
-204793
-123420
-225534
-213360
-54326.5
-61147.2
-65213.2
-83136
-68725.9
-78388.8
-164939
-176700
-84488.1
-83892.8
-5954.99
-36456.7
-38026.2
-43556.4
-3046.7
-42237.9
-77258.9
-79513.5
69766.7
49416
52952.9
-14018.4
-28567.4
-12988.8
84563.5
67034.9
63604.1
-7609.27
-20798.2
-8408.53
83530.8
103407
82381.3
62574.3
67424.7
21216.8
4918.33
19900.7
102383
90033.4
84558.2
12925.1
1970.91
13976.5
63690.3
48208.3
48295.5
58545
44770.4
-10910.7
-2680.24
-3154.38
-6850.1
-16704.3
-6131.23
44735
31342.9
34704.7
68876.1
51376.9
60387.5
67742.8
55741.7
-766.602
6133.89
6823.95
11917.2
664.775
10953.8
50378.1
37040.4
40966
-61387.8
-64726.3
-35937.7
-7029.72
-34300.4
-76440.3
-73814.9
-27455.4
-7936.68
-29202.2
-104672
-95271.6
-19378.6
-23695.4
-26566
-39524.9
-28513.9
-36124.5
-61761.6
-69503.5
-60247.9
-56754.6
-7394.61
-18062.4
-19795
-26865.2
-8003.59
-25104.7
-41997.1
-45764.4
22932
15612.1
18388.6
-2245.7
-8066.35
-1849.35
34668.6
30375.6
27118.9
-205.147
-4353.88
-398.502
25017.8
39008.2
24542.8
17142
19998.3
5488.75
-1212
4887.39
38209.1
35160.4
31484.4
2144.41
-1379.09
2504.3
15492.8
6565.52
14836.2
14994.9
12274.4
-842.986
461.548
449.024
-40.1051
-2708.94
97.8504
6733.18
4265.14
6001.32
15828.2
6517.7
15771.3
15646.6
13203.1
-695.25
409.848
534.925
1820.49
-1214.24
1531.14
6698.78
4195.18
5809.07
-22289.6
-25841.5
-17472.4
-6658.54
-15773.9
-40737.8
-36958.2
-9367.76
-4992.72
-10869.3
-26346.5
-21632.1
-2157.59
-2793.21
-3916.04
-10199.4
-5620.82
-8377.48
-7380.48
-10246.6
-21133.8
-17765.1
-1978.04
-2779.13
-3765.73
-8862.36
-3849.43
-7459.87
-6356.8
-8843.2
-483.513
-621.269
-47.0732
458.641
-206.084
438.409
2172.79
3804.36
2407.3
-553.347
-48.5444
-111.854
-1136.52
1528.04
-625.403
-619.6
-272.333
300.604
-377.556
203.902
1944.56
3478.31
2211.89
-713.994
-355.898
-452.469
295.125
-25.1916
-2465.59
-1057.36
-1664.38
-5598.07
-3563.13
57.0868
-386.434
-189.564
617.169
326.444
576.606
282.637
-218.702
-211.949
-104.38
-117.126
-156.003
-113.438
-269.838
-213.186
-536.226
-123.747
-337.852
-62.7182
-223.299
-263.916
-124.828
-142.869
-158.289
-319.359
-115.824
565.944
735.1
284.028
610.012
447.918
420.417
564.796
429.087
6.71349
240.294
242.834
339.804
312.672
300.145
-171.946
169.086
44.2601
164.642
256.578
185.624
203.981
48.2743
146.381
163.206
83.7357
-22.5435
82.918
179.605
124.268
124.024
-22.488
83.2679
82.8964
64.6305
-60.0961
-94.8279
-514.337
-1553.82
-196.962
-89.9703
-1510.1
-145.462
676.369
520.283
715.651
602.833
606.82
716.855
673.263
682.356
518.114
615.947
724.212
685.346
614.247
719.333
633.271
467.714
673.843
559.834
560.915
675.672
631.986
635.997
465.657
564.583
679.826
637.327
563.695
677.844
586.341
425.839
623.063
509.841
512.501
627.295
583.348
591.841
422.509
521.046
635.765
594.512
518.815
631.933
505.795
413.931
572.221
421.986
425.195
576.341
497.74
516.148
395.219
434.637
573.879
519.561
432.274
575.921
362.314
644.848
243.074
188.718
316.292
354.629
359.433
298.295
126.376
177.405
220.015
275.084
257.866
239.319
258.09
320.406
325.869
361.997
384.578
360.633
337.726
373.828
353.359
520.318
729.153
280.482
257.433
523.349
251.778
728.032
518.691
306.518
262.566
730.505
521.681
253.692
729.037
-87.2539
-31.2582
-53.0631
-83.5594
-43.839
-64.9243
-153.905
-80.3412
8.15682
-28.3217
14.7424
-57.4717
-72.6167
14.9679
-21.7835
-17.1467
-19.4913
-14.7084
-48.0296
285.435
254.572
234.236
171.542
137.356
183.331
213.211
146.814
190.08
696.21
507.855
763.256
624.559
700.328
619.845
756.905
692.079
514.803
618.387
733.235
689.97
616.358
745.059
350.272
357.59
339.385
271.886
313.352
321.369
347.204
334.95
340.211
197.755
257.325
255.836
280.484
300.87
281.661
284.266
302.012
282.915
182.849
129.079
126.952
83.981
-20.8565
85.0588
87.6882
-20.5017
85.5396
279.778
298.857
279.509
194.397
252.351
252.258
298.76
279.439
279.395
195.366
261.656
256.351
212.474
270.169
257.911
286.097
293.081
277.698
185.095
139.037
139.483
80.0821
-0.894756
98.501
97.7495
-2.55982
99.7367
136.305
-87.2745
-76.0778
166.991
-854.327
190.983
-305.104
-1877.3
-262.99
518.348
715.431
333.959
261.688
268.133
719.1
514.889
522.42
346.448
271.326
727.718
522.891
273.716
723.658
493.312
694.492
302.48
243.068
494.326
243.16
692.626
491.122
303.815
240.742
689.043
490.267
241.753
690.606
644.36
472.497
689.328
572.97
645.883
571.669
687.199
641.448
474.779
567.395
682.276
640.104
568.504
684.544
484.511
680.489
297.829
235.277
237.093
681.956
483.419
486.952
298.931
239.194
686.645
488.078
239.344
684.185
464.085
660.414
278.907
221.13
465.49
221.106
657.624
460.757
279.27
216.807
652.17
459.244
218.579
654.597
606.24
436.669
650.067
535.451
608.346
533.71
647.012
601.802
439.379
526.633
639.893
599.469
528.727
643.277
449.844
638.718
270.895
208.543
210.447
641.737
447.954
453.842
270.311
213.652
648.889
455.573
213.465
645.471
417.302
603.725
235.72
187.402
418.548
188.955
600.834
414.95
242.562
193.134
597.905
415.023
188.631
598.536
534.271
370.289
578.571
456.342
537.463
452.976
575.809
529.254
377.838
443.138
573.589
526.606
445.9
573.577
416.065
598.345
263.18
244.945
207.672
599.589
440.807
415.36
245.905
190.097
598.413
412.858
201.043
599.512
-88.044
-50.2911
-85.3685
-101.406
-135.653
-71.028
-59.7921
-81.7904
-61.8823
-27.4042
-80.141
-127.394
-58.3087
-68.0662
-98.5435
-274.918
-111.214
-115.349
-138.534
-166.255
-87.9708
-689.261
-67.7888
-430.688
340.737
466.781
-300.514
-86.9408
123.315
-403.967
91.5337
-200.279
-37.0227
-27.7711
-107.361
-140.146
-5.51221
-90.8641
-199.319
-130.575
-773.196
105.766
-260.655
530.695
14.2327
-235.928
-306.734
-147.496
-5.25506
-189.799
-241.831
-138.314
638.899
259.07
-175.372
134.021
217.296
106.145
539.937
195.233
83.4625
483.438
424.162
509.767
512.441
576.201
414.431
413.097
-86.7158
-99.2151
211.85
400.388
144.129
556.026
271.588
303.238
264.776
978.712
921.565
574.603
236.696
91.5611
799.421
221.183
380.113
-2224.67
243.254
606.283
444.162
429.909
552.205
649.399
456.173
517.786
815.754
1785.04
516.878
484.724
-171.572
176.773
453.221
487.152
569.897
321.297
692.754
782.905
609.028
681.464
689.175
773.026
653.929
710.438
614.131
761.057
659.361
767.807
658.563
711.653
854.619
831.49
1053
876.99
887.139
863.207
993.375
889.516
793.939
815.285
553.986
463.206
516.749
550.076
593.163
409.737
522.227
541.158
362.157
396.98
539.026
631.875
301.595
490.638
581.185
-94.1889
522.072
535.582
581.42
586.084
554.558
672.339
617.964
571.498
439.714
585.056
611.793
611.921
647.785
433.811
543.496
246.858
37.5577
49.7767
224.122
35.9785
30.9854
-27.0931
42.1669
-53.001
42.5985
-55.717
-52.5859
203.658
175.587
149.39
96.3662
-2.01537
102.523
135.71
3.55911
107.195
-82.0319
5.72467
-74.5729
-58.7486
11.5477
-72.283
217.059
24.958
24.7584
216.597
24.6847
23.008
-93.3047
-18.9005
-93.4267
-18.9028
-93.3322
-93.7611
181.337
124.499
125.529
86.8545
-21.1381
84.7476
83.4779
-21.5876
84.2447
-92.0303
-17.6726
-93.3653
-93.8315
-18.1284
-93.1205
141122
60.7484
182.98
-79.8192
178814
7822.02
576.584
3815.28
-203223
-160927
-213615
-253287
-244185
-163927
-226662
-216989
-57.8121
-12.5834
-46.165
-35.4927
-66.0254
-52.1573
-32266.4
-1327.07
-19829.4
-133247
-101064
-122652
-146679
-166938
-5791.34
-125841
5512.82
-112684
-155768
-133238
-580.324
-15373.9
-20959
-94986.1
-131837
-101019
-82974.1
-99742.2
-92400.9
-134315
-111074
-103155
-256014
-263063
-319045
-200267
-6696.24
-249747
-6717.58
-230081
-184842
-239139
-100.514
-12444.2
-316.45
541.904
549.481
533.429
410.087
532.433
557.562
554.141
525.166
406.372
526.201
736.135
733.173
860.293
1058.77
853.051
742.414
738.094
854.322
1060.48
849.951
665.602
713.392
489.679
595.74
667.948
710.59
593.431
661.708
493.123
702.338
587.949
706.259
589.069
659.947
733.769
731.076
1062.34
840.821
848.272
853.765
1068.1
851.149
721.479
727.634
537.119
532.295
511.751
394.836
512.236
527.308
529.883
518.433
397.364
517.675
78247.8
91403.2
-131609
-121195
-96718.7
-80009.9
-105459
-117594
-82222
-108441
-67233.5
-84154.9
-62799
-44105.9
-50583.3
-54413.6
-82246.7
-57012.2
-61315.7
-135159
-146046
-143401
-100722
-133493
-120710
-98336.2
-130250
-46033.8
-67475.8
-50036.8
-37049.5
-49263
-45562.4
-69269.5
-55577.9
-51418
500.017
502.132
490.349
377.654
489.857
505.394
503.568
486.99
376.362
487.314
693.075
695.176
818.27
1026.9
815.321
699.461
697.148
811.114
1024.62
813.549
627.758
671.568
457.575
556.881
629.173
669.468
555.787
624.69
459.696
664.516
550.985
666.854
552.433
623.128
691.11
688.555
1014.81
800.987
804.372
809.398
1017.79
806.348
683.465
686.297
498.436
496.099
479.325
370.903
479.885
491.226
494.234
484.062
372.846
483.449
25475.8
35514.5
-41183.9
-35230.1
-25515.7
-23467.9
-30329.1
-37381.2
-24765
-32023.4
-25891.6
-31403.5
-22862.5
-13366.9
-16710
-19181.2
-30093.3
-19078.1
-21882.5
-43270.1
-49834
-53588.8
-36309.2
-47189.5
-39255.2
-34755.1
-45141
-12458.5
-20503.8
-14785.8
-9619.21
-15899
-13638.1
-21613.2
-18175.9
-15607.1
449.617
455.055
451.149
347.682
450.321
463.416
458.763
442.452
344.145
443.147
641.483
646.503
771.491
974.576
766.103
655.029
650.397
756.749
969.508
762.506
573.922
617.973
404.85
502.784
577.288
613.244
499.87
567.432
408.971
602.773
488.639
607.722
492.038
563.761
637.163
631.602
948.153
735.82
742.267
752.859
953.765
746.391
621.298
626.902
445.359
439.348
423.136
330.566
423.835
427.531
434.502
434.15
335.101
433.319
-975.121
1159.36
-1397.62
-284.244
764.508
80.775
64.7135
-1263.16
-156.097
-211.235
-2886.43
-2719.96
-1865.85
-547.098
-667.815
-1311.57
-2300.29
-815.812
-1570.03
-1866.29
-3577.09
-5962.68
-3046.53
-3873.86
-1695.48
-2572.12
-3265.16
441.769
40.1341
32.5721
31.3304
-490.371
-70.633
-168.049
-606.776
-102.428
331.647
334.843
350.962
265.7
341.854
362.09
343.579
315.428
251.638
321.935
625.813
620.992
716.916
913.251
722.025
606.621
618.928
709.6
902.825
720.93
488.721
562.879
392.008
408.177
495.771
566.988
405.936
505.477
662.342
651.213
603.28
421.168
253.203
334.134
319.858
468.065
525.413
622.063
367.472
611.65
599.698
710.494
665.109
690.974
773.225
663.37
617.933
336.801
330.262
219.469
309.399
342.019
306.679
218.297
298.971
6.32091
192.98
382.664
37.7581
71.5293
170.952
-110.567
52.4817
171.548
-154.247
-76.6061
-26.8475
-50.3095
-75.6169
-63.4546
-65.7077
269.461
111.671
106.787
18.2953
239.437
-70.8289
36.183
257.522
139.148
-411.766
1016.42
702.573
301.322
84.2435
823.198
217.309
385.232
-2260.18
216.326
489.227
350.001
286.506
318.782
302.856
362.664
382.52
893.096
1850.04
546.935
530.632
-4.22947
154.79
250.325
577.704
307.388
238.978
449.172
688.181
362.254
217.667
429.125
713.639
194.905
486.153
293.286
742.243
211.36
731.086
188.047
497.403
991.559
1039.8
1129.22
1052.94
1048.65
968.284
1062.52
1030.5
1052.98
1051.19
60.9662
-15.0542
-21.0498
-1.85853
-79.8255
-9.84693
34.7008
117.704
208.882
257.446
238.827
244.157
213.674
159.732
105.588
50.7341
53.3915
195.395
-5.85037
246.071
112.886
-16.7793
-48.5446
94.3897
55.2551
63.1881
-21.9786
-87.6269
-2.52154
66.3734
103.48
347.944
429.684
284.036
-103.056
-622.878
-10228.7
-182.763
-420.19
-2807.7
-477.948
299.512
94.5069
542.634
86.8911
-29.0972
221.913
348.859
5138.67
-148.014
422.606
504.825
407.522
455.369
404.469
411.831
394.799
361.753
382.696
386.105
418.104
403.037
410.33
359.024
315.978
375.84
387.649
338.209
387.98
238.792
243.792
268.257
294.325
270.706
274.159
255.78
273.788
270.43
267.728
139.161
228.563
265.141
321.518
310.063
361.472
273.958
541.835
381.252
731.783
278.077
532.571
738.825
296.775
537.054
431.368
747.083
283.814
527.061
743.54
304.52
32.904
19.5114
150.699
146.577
144.855
38.2695
22.8499
150.525
146.113
147.693
1008.86
1015.07
1180.44
1045.28
1055.61
1055.69
1196.78
1059.48
1011.03
1013.36
1006.5
1005.73
1045.35
1115.22
1032.95
1042.37
1005.85
1049.44
1142.99
1036.98
54.0648
82.3031
127.398
166.985
162.255
47.0052
93.1988
163.929
169.335
172.357
127.75
44.3909
5.3402
-32.0889
-17.4413
87.6019
50.945
201.618
357.272
477.932
320.286
380.557
323.183
254.991
156.833
100.18
47.6432
206.21
5.02469
267.475
146.094
-2.87322
-8.31762
0.87983
121.121
237.94
97.5276
17.5015
110.452
25.5297
194.574
416.764
411.806
491.756
358.863
393.387
350.395
352.904
297.79
238.334
293.987
195.263
232.545
269.906
256.013
271.052
126.132
247.585
180.043
291.363
205.527
259.997
340.099
409.982
267.704
399.775
297.512
335.128
237.498
231.581
276.592
275.596
26.0107
143.458
81.8488
157.098
141.481
135.479
212.636
263.754
274.189
232.158
295.216
247.697
201.73
169.501
151.03
170.667
152.177
185.29
212.974
96.2394
256.713
161.581
278.317
217.919
343.731
196.201
268.121
369.306
208.707
238.997
159.623
175.799
180.051
264.405
172.566
273.601
171.815
713.289
585.708
763.629
639.599
707.843
760.224
650.7
716.635
590.251
757.667
664.276
717.807
756.689
662.358
563.537
553.923
538.175
411.91
538.38
557.099
553.936
547.377
414.21
546.803
796.036
787.512
871.062
1112.03
898.007
752.399
776.183
913.67
1131.64
907.683
797.429
787.51
875.319
1044.75
877.505
789.365
786.477
908.624
1075.26
885.011
576.236
596.478
575
440.856
573.22
612.555
607.185
560.939
433.827
562.618
408.817
374.043
382.346
290.194
323.785
336.546
352.378
339.737
354.107
215.693
291.233
275.316
294.303
315.737
297.978
319.329
321.965
305.283
275.583
323.47
324.852
336.89
329.133
337.776
338.614
332.885
338.828
219.161
27.4495
26.0634
220.997
27.4159
27.3947
202.809
259.047
261.072
292.051
308.182
290.083
285.968
306.417
288
332.062
318.721
332.697
272.71
324.823
324.143
319.699
334.372
333.512
336.512
324.119
336.16
274.189
325.245
325.481
322.927
334.951
335.502
188.682
129.894
132.651
95.0929
-15.2235
91.7671
88.403
-15.9528
90.864
-92.9063
-17.2399
-92.3312
-16.7883
-90.7504
-91.9233
-83.8814
-11.0631
-87.1252
-12.0458
-89.8624
-87.8689
331.485
316.911
331.014
270.305
321.693
321.644
316.811
331.121
330.885
195.811
252.923
253.882
283.419
301.441
282.19
280.012
300.398
281.07
270.391
322.005
322.457
333.87
319.262
332.911
331.588
318.331
332.14
195.638
9.06137
-5.59844
214.743
12.3839
17.3232
203.158
262.721
261.886
285.072
305.709
286.976
288.492
306.793
288.412
254.478
284.603
297.809
250.219
318.688
309.095
308.135
330.73
319.894
334.724
322.724
335.413
268.855
322.709
324.105
323.45
334.769
335.715
189.297
137.852
133.595
87.6859
-16.4716
90.5592
96.4073
-15.3171
91.8094
-64.3352
5.39327
-77.4411
2.57064
-84.169
-77.0771
-92.0825
-13.1581
-89.9339
-11.8488
-85.7755
-90.4965
59794.1
39884
61367.6
126338
97381
93369.2
41062
65597.6
63296.2
177.412
-48.4788
25.1059
103.624
-17.8559
-15.2004
-286.472
-914.358
-204.302
61838.2
1028.09
-23694.2
-118167
-31946.6
-75454.4
9323.56
31395.9
3206.22
-5177.46
-2354.51
-9209.93
-2908.98
-37717
-984.338
-20106
-20689.6
-5067.96
16434
-6077.73
-53047
-31890.3
-28788.7
16635.7
-9074.39
-6807.47
159022
101345
119041
15279.9
-626.798
-2141.28
115423
64698.5
14741.8
94936.1
24973.4
69669.9
34631.5
75072.7
-1443.83
-14525.4
-8711.4
161392
193638
121401
102988
126121
161352
144053
135526
107331
136610
131125
14302.6
46059.4
42654.4
124745
102933
77434
69354.8
95459
70052.6
56981.6
81345.3
59676.4
17503.6
42188.1
40035.8
85087.6
65595.3
62797.7
193864
147663
160801
222857
128073
152466
142082
121389
150014
122567
108748
58325.4
37551.1
56928.8
109895
77977
81139.4
36824.9
54187.1
55552.7
-35593.8
-18536.3
-17341.3
236.161
16448.8
-279.008
-1413.57
16544.1
-827.55
-4243.31
16650.9
-3438.05
-41449.6
-19783.6
-21099.3
16665.2
-2038.91
-2714.31
97957.7
76431.1
73162.6
48673.2
33824.1
50066.3
52820.2
34597.4
51447.7
138640
121876
116869
91401.2
112480
138116
108425
114671
87801.3
103983
108190
8017.66
26937
25435.9
38891.4
57524.5
40937.7
45180.4
60239
43033.2
54402.8
71699.9
51985.8
10836.5
28491.1
30099.5
68726.5
47383.4
49645.7
121078
106203
100265
87811
74122.1
91763.7
99847
77451.4
95775.3
-88868.1
-80432.4
-90403
-89978.4
-85940.7
-81284.3
-95375.8
-91157.8
1548.39
-47813.2
-52095.7
-74014.5
-107422
-75165.2
-58827
-102576
-63268.8
-53480
-86571.1
-55213.7
1176.74
-47270.9
-45668.6
-87708.3
-57902.6
-55777.4
-92858.8
-111768
-198199
-103726
-123567
-98090.4
-97451.4
-114020
-199679
-141392
-188932
-196908
-209249
-138717
-174585
-185337
-57031.6
-70871.7
-66675
-68762.3
-97846.1
-73323.7
-79598.5
-99844.9
-74898.9
-93099.6
-116236
-87843.2
-65631.4
-72391.4
-76777.9
-114141
-81229.4
-86124
-192816
-180685
-146761
-117953
-157008
-171027
-120488
-160477
-88425.9
-75771.4
-86987
-82449.2
-83610.1
-75079.7
-84518.4
-86434.5
-5495.74
-39994.8
-38513.1
-43881.6
-70361.3
-45860.5
-48370.7
-71443
-46492.5
-52948.3
-79656.6
-51275
-3763.83
-40443.4
-41827.4
-78676.1
-48962.6
-50724.6
-81957.4
-80191.5
-77728.5
-68671.5
-80516.1
-83793.6
-69549.8
-81388
38.9769
50.6752
156.643
159.321
158.004
48.9281
54.5373
152.132
156.044
155.734
989.082
991.457
1132.91
1037.85
1028.6
1025.59
1133.76
1026.16
1004.97
994.666
507.915
712.715
308.343
253.701
509.628
710.553
252.445
505.159
313.957
706.791
251.735
708.395
251.235
504.682
987.954
986.018
1133.59
1015.26
1020.19
1025.05
1139.12
1023
980.288
983.308
32.7109
29.7294
142.789
143.181
142.128
30.903
30.3168
146.192
144.247
144.368
498.591
310.37
696.363
246.231
497.12
698.101
248.926
501.456
313.637
703.822
251.622
502.675
700.79
251.976
24.7763
24.9086
133.784
135.696
133.986
22.7224
24.8227
136.428
136.632
135.407
966.154
963.213
1107.56
993.637
996.845
1001.71
1110.88
998.918
958.86
961.087
967.413
969.041
1011.77
1117.08
1006.85
976.754
971.147
1003.04
1115.31
1004.88
26.6532
31.881
142.6
143.108
141.83
32.3941
33.5279
138.767
141.264