/*--------------------------------*- C++ -*----------------------------------*\
| =========                 |                                                 |
| \\      /  F ield         | OpenFOAM: The Open Source CFD Toolbox           |
|  \\    /   O peration     | Version:  2012                                  |
|   \\  /    A nd           | Website:  www.openfoam.com                      |
|    \\/     M anipulation  |                                                 |
\*---------------------------------------------------------------------------*/
FoamFile
{
    version     2.0;
    format      ascii;
    class       volVectorField;
    location    "0.104/solid";
    object      sigmaMaxDir;
}
// * * * * * * * * * * * * * * * * * * * * * * * * * * * * * * * * * * * * * //

dimensions      [1 -1 -2 0 0 0 0];


internalField   nonuniform List<vector> 
24998
(
(0.639539 0.44658 -0.625744)
(-0.205047 -0.0270284 0.978379)
(0.55788 0.827776 -0.059636)
(-0.00837464 0.999952 0.00502638)
(-0.313379 0.813009 0.490725)
(0.99661 -0.0808593 0.015154)
(0.997691 -0.0678836 -0.00207788)
(0.998302 -0.0571373 0.0113472)
(0.99305 -0.0515223 0.105821)
(0.883074 0.106649 -0.456953)
(0.149288 0.988682 -0.0148777)
(0.981991 -0.187784 0.020767)
(-0.0507412 0.124403 0.990934)
(0.718612 0.688952 -0.0945662)
(0.99633 -0.0821893 0.0239194)
(0.0610043 0.998096 -0.00906199)
(-0.0126386 0.99992 0.00103627)
(-0.0152721 0.999882 0.00132718)
(-0.00616172 0.99998 0.00158857)
(-0.377103 0.886639 0.267702)
(-0.340093 0.82378 0.453567)
(-0.383739 0.872645 0.302051)
(0.982627 -0.185097 0.0135082)
(0.98343 -0.181288 -0.000202241)
(0.997654 -0.0684546 -0.000508206)
(0.983461 -0.181121 -0.000731002)
(0.984009 -0.178108 0.00215299)
(0.998194 -0.0595187 0.00811011)
(0.984178 -0.177148 0.00356973)
(0.981347 -0.178757 0.0707441)
(0.995659 -0.037245 0.0853004)
(0.973652 -0.196126 0.116346)
(-0.224702 0.414058 0.88208)
(-0.525245 -0.281 0.803216)
(0.988243 0.14017 -0.0610543)
(0.134242 0.97766 -0.161738)
(0.82272 -0.119283 0.55579)
(-0.498849 0.860819 0.100697)
(-0.151237 0.988206 0.0240129)
(0.0769945 0.997019 0.00502471)
(-0.0284057 0.999549 0.00977414)
(-0.0684052 0.997658 0.000150353)
(0.0905716 0.995871 0.00615955)
(-0.0369759 0.999315 0.00140487)
(0.467385 0.884046 -0.00376111)
(0.681615 0.595944 0.42456)
(-0.550175 0.83413 0.0391708)
(-0.112729 -0.0736601 0.990892)
(-0.11689 0.0205324 0.992933)
(0.997302 -0.0731706 0.00586058)
(0.462714 0.886381 0.0150072)
(0.468035 0.883671 0.00835266)
(-0.18143 0.0143764 0.983299)
(-0.263675 0.00880498 0.964571)
(0.997844 -0.0656112 0.00160946)
(0.43579 0.899467 0.0323321)
(0.452099 0.891681 0.022622)
(-0.400574 -0.00384584 0.916256)
(-0.51281 -0.0169781 0.858334)
(0.998443 -0.0465843 0.030686)
(0.0452568 0.998693 -0.0237369)
(0.91797 -0.38621 -0.0904044)
(-0.626844 -0.0284786 0.778624)
(0.880781 -0.29005 -0.374293)
(-0.243245 0.363381 0.899326)
(0.0153688 0.986299 -0.164253)
(0.98347 -0.181026 0.0040139)
(0.694921 0.504511 -0.5124)
(-0.162424 0.986625 0.0137446)
(-0.539917 -0.190673 0.819838)
(0.362855 0.927392 -0.0909914)
(-0.188738 0.981581 -0.0295994)
(0.863778 0.234758 -0.445843)
(0.982275 -0.183988 0.0358352)
(0.927501 0.3694 -0.057328)
(-0.596709 0.795792 0.10322)
(0.749376 0.657358 -0.0794758)
(-0.412369 0.906118 0.0943509)
(-0.505547 0.854265 0.121054)
(0.969063 -0.106295 0.222751)
(-0.112702 0.993628 -0.000811784)
(-0.023998 0.999704 0.00400696)
(0.0203232 0.999787 0.00368305)
(0.0819143 0.996636 0.00253862)
(-0.0702588 0.997528 0.00131002)
(-0.0213721 0.999762 0.00430239)
(0.00937284 0.999954 0.00206105)
(0.0178071 0.999839 0.00233508)
(-0.0269171 0.999555 0.0128494)
(0.00771327 0.99997 0.00106082)
(-0.0576171 0.998331 0.0038617)
(0.0328816 0.99943 0.0076317)
(0.643141 0.660978 0.386624)
(-0.0441852 0.999002 0.00649256)
(-0.0992974 0.995003 0.0104672)
(0.623993 0.729357 0.280482)
(0.0695631 0.997474 0.0143898)
(-0.0545308 0.99847 0.00914512)
(0.973464 -0.22877 -0.00562707)
(0.680278 0.654977 0.328978)
(7.9093e-05 -0.307023 0.951702)
(-0.197017 0.0559491 0.978802)
(-0.610264 0.792195 0.0021309)
(0.870151 0.492689 -0.00972628)
(0.820468 -0.558413 -0.1225)
(-0.33797 0.941155 -0.00193423)
(-0.0926814 0.992565 -0.0789015)
(-0.595176 0.646182 0.477717)
(0.738158 -0.665008 -0.113523)
(0.467833 0.883813 -0.00262229)
(0.468253 0.883559 0.00787447)
(0.974346 -0.224949 -0.00697142)
(-0.278168 0.0491604 0.959274)
(-0.204158 0.0541061 0.977442)
(0.977672 -0.209151 -0.0203485)
(0.869894 0.493165 -0.00851903)
(0.867725 0.49704 0.00209405)
(-0.335164 0.94216 -0.0008045)
(0.752135 -0.286541 -0.593454)
(0.64805 -0.570329 -0.504735)
(-0.336584 0.941599 0.010086)
(-0.0525606 0.972987 -0.224795)
(-0.55795 0.315645 0.767503)
(-0.171699 0.0149753 0.985036)
(-0.120934 0.019541 0.992468)
(-0.591602 0.156376 0.79092)
(-0.574261 0.271599 0.772307)
(0.983106 -0.183014 0.00288449)
(0.983245 -0.182282 0.00147382)
(0.997405 -0.0719095 0.00361843)
(0.975457 -0.217886 -0.0317807)
(-0.29138 0.0487063 0.955367)
(0.977634 -0.209258 -0.0210467)
(-0.393663 0.0431697 0.918241)
(0.866285 0.499478 0.00842591)
(0.867596 0.497263 0.00255556)
(-0.398831 0.916843 0.0182327)
(0.752076 -0.266191 -0.602929)
(-0.338126 0.941041 0.0106331)
(0.729103 -0.168895 -0.663237)
(0.462365 0.886555 0.0154251)
(0.453076 0.891197 0.0221264)
(0.975156 -0.21912 -0.0325192)
(-0.514067 0.0286528 0.857272)
(-0.409071 0.0418611 0.911542)
(0.969249 -0.241773 -0.0458504)
(0.86635 0.49936 0.00877888)
(0.867606 0.497067 0.0135604)
(-0.405971 0.913694 0.0187245)
(-0.696499 0.104058 0.709973)
(0.724633 -0.158852 -0.670577)
(0.788302 -0.614834 -0.0236504)
(-0.588883 0.148705 0.79442)
(-0.566924 0.110188 0.816367)
(-0.384277 -0.00212392 0.923215)
(-0.277404 0.00771936 0.960722)
(-0.558014 0.0822357 0.825746)
(-0.564469 0.105986 0.818622)
(0.98358 -0.180475 -2.31393e-05)
(0.983654 -0.180069 0.000340032)
(0.997914 -0.0644991 0.00282521)
(0.954428 -0.29021 -0.0696032)
(-0.527955 0.0262259 0.848867)
(0.968531 -0.24443 -0.0469193)
(-0.61183 0.00734828 0.790955)
(0.916727 0.399195 0.0159917)
(0.868077 0.496237 0.0138585)
(0.99764 0.0666172 -0.0166404)
(-0.693533 0.0978996 0.713742)
(0.838982 -0.543672 -0.0230157)
(-0.68415 0.0635628 0.726567)
(0.435781 0.899442 0.0331572)
(0.917691 -0.387951 -0.0856582)
(0.952915 -0.294626 -0.0717565)
(-0.676779 -0.0117908 0.736092)
(-0.621735 0.00458757 0.783215)
(0.930755 -0.341631 -0.130323)
(0.927617 0.373209 0.0155461)
(0.796331 -0.604157 -0.02916)
(0.996867 0.0772511 -0.0169732)
(-0.702699 0.0399046 0.710367)
(-0.684639 0.0596975 0.726434)
(0.987502 0.153361 -0.0363267)
(-0.558926 0.0794421 0.825404)
(-0.580167 0.0634557 0.812022)
(-0.616821 -0.0284465 0.786589)
(-0.52774 -0.0188431 0.849197)
(-0.640749 0.0519726 0.765989)
(-0.585532 0.0615853 0.808307)
(0.984784 -0.173368 0.0119947)
(0.984899 -0.172185 0.0180446)
(0.998277 -0.0420271 0.0409463)
(0.976265 -0.215747 0.0189754)
(-0.682719 -0.0131106 0.730563)
(0.928909 -0.34388 -0.137388)
(0.915672 -0.249528 -0.315087)
(0.0971383 0.995137 0.0163177)
(0.798209 -0.601595 -0.0307462)
(0.983719 0.178073 0.0242158)
(0.70765 -0.0384567 -0.705516)
(0.986893 0.156661 -0.0387138)
(0.946898 -0.235084 -0.219363)
(-0.651673 0.0514792 0.756751)
(0.929221 -0.269746 -0.252558)
(0.741957 -0.459407 -0.488308)
(0.921164 -0.125814 -0.368277)
(-0.582136 0.56313 0.586518)
(-0.0421821 0.092584 0.994811)
(0.738774 0.384178 -0.553733)
(0.329846 0.830312 -0.449204)
(-0.272082 -0.238869 0.932155)
(-0.169135 -0.286325 0.943086)
(0.492409 0.627806 -0.602821)
(-0.15559 -0.228071 0.961132)
(0.886463 -0.319356 -0.334955)
(-0.280539 0.958044 0.0587356)
(-0.399238 0.894409 0.201596)
(-0.113034 0.0043053 0.993582)
(-0.00174116 0.999994 -0.00309575)
(-0.110058 -0.00419816 0.993916)
(0.64938 -0.60411 -0.461905)
(-0.0867623 0.807346 0.583665)
(-0.363697 0.81585 0.44957)
(0.0119717 -0.000888923 0.999928)
(-0.00992195 0.00864128 0.999913)
(0.875419 0.124879 0.466954)
(0.996806 -0.0783359 0.015517)
(0.00491275 -0.00737229 0.999961)
(0.981258 0.129197 0.142975)
(0.0162537 0.00498958 0.999855)
(0.000184819 0.00236516 0.999997)
(-0.0138101 0.00941283 0.99986)
(0.990415 0.133746 0.0344976)
(0.997732 -0.0672864 -0.00157125)
(-0.000965038 0.000676375 0.999999)
(0.990115 0.133942 0.0416243)
(-0.0115005 0.00904985 0.999893)
(0.0170515 -0.00854793 0.999818)
(0.00527675 0.00844645 0.99995)
(0.987433 0.13789 0.0772226)
(0.998401 -0.0542328 0.0159693)
(0.00774399 -0.00452334 0.99996)
(0.986098 0.13934 0.0905313)
(0.0156172 0.00616512 0.999859)
(0.286493 -0.176958 0.941598)
(0.649919 -0.0607588 0.757571)
(0.984231 0.117667 0.132074)
(0.986953 -0.0995737 0.126523)
(0.203034 -0.149611 0.967674)
(0.986858 0.0588664 0.150489)
(0.997334 -0.0201768 -0.0701207)
(-0.567381 -0.157747 0.808204)
(0.814305 -0.0518152 -0.57812)
(0.343662 0.809032 -0.476826)
(0.92945 -0.0948027 -0.35656)
(-0.401292 -0.297834 0.866175)
(-0.594488 -0.537501 0.598061)
(0.892668 -0.342406 -0.293092)
(-0.0937957 0.982382 -0.161644)
(0.0109884 0.999936 -0.00268752)
(0.224682 0.97101 -0.0815938)
(-0.120309 0.0506333 0.991444)
(0.981835 -0.189721 0.00247876)
(0.90761 -0.419423 0.018112)
(0.982504 0.0448988 0.180749)
(0.999555 0.0286462 0.00837312)
(0.120423 -0.0259194 0.992384)
(0.907452 -0.420085 -0.0076525)
(0.174281 0.180185 0.96807)
(0.175308 -0.617497 0.766788)
(0.370137 -0.5259 0.765786)
(0.818238 -0.563007 -0.116232)
(0.863224 0.462433 -0.202485)
(-0.138162 0.989156 0.049818)
(0.0260504 -0.0011008 0.99966)
(0.994414 -0.0861399 0.0609904)
(-0.0182087 0.00687299 0.999811)
(0.783659 0.114758 0.610499)
(0.0045488 -0.00671315 0.999967)
(0.181043 0.00631842 0.983455)
(0.0626123 -0.0099863 0.997988)
(-0.0825189 0.996521 0.0116972)
(-0.0427441 0.998825 0.0228395)
(0.00194829 0.999961 0.00857437)
(-0.0168015 0.999854 0.00316237)
(0.00224677 0.999997 0.000959952)
(0.00999479 0.999949 0.00135126)
(-0.0262087 0.999613 0.00933473)
(-0.115396 0.0016834 0.993318)
(-0.143124 0.0120373 0.989632)
(-0.0029063 0.999996 0.000493003)
(-0.00798819 0.999968 -0.000492022)
(-0.00478292 0.999989 -5.68202e-06)
(-0.352114 0.930262 0.103094)
(0.105663 0.937805 0.330691)
(0.0184292 0.993623 0.111236)
(-0.417522 0.897987 0.138905)
(0.655756 -0.582341 -0.480482)
(-0.358223 0.0500723 0.932293)
(0.136401 0.915043 0.379593)
(-0.382319 0.857733 0.343695)
(0.182496 0.873811 0.450721)
(-0.00192763 0.0127765 0.999917)
(0.91023 -0.413998 0.00931514)
(0.990489 0.048006 0.128949)
(0.982894 -0.18417 -0.000596654)
(0.998998 0.0443518 0.0060036)
(0.0816489 -0.0141989 0.99656)
(0.909862 -0.414828 -0.00834231)
(0.00769126 0.00488874 0.999958)
(0.983372 -0.1816 -0.000475509)
(0.90882 -0.417186 -0.00167107)
(0.998807 0.0456982 0.0171927)
(0.998808 0.0450243 0.018835)
(0.03775 -0.0015231 0.999286)
(0.908794 -0.41724 -0.00195526)
(0.00134399 -0.000265844 0.999999)
(0.997592 -0.0693272 0.00193415)
(-0.010114 0.00891993 0.999909)
(0.989722 0.133507 0.0512478)
(-0.00032161 0.00251205 0.999997)
(0.989817 0.13263 0.0516928)
(-0.0057272 0.0083953 0.999948)
(0.0348163 -0.000759199 0.999393)
(0.908822 -0.417183 -0.001415)
(0.998808 0.0457953 0.0169131)
(0.983478 -0.181023 -0.00115997)
(0.998852 0.0459085 0.0136437)
(0.0107151 0.003963 0.999935)
(0.908653 -0.41754 -0.00305676)
(0.0229786 0.00382136 0.999729)
(0.983864 -0.178914 0.00142043)
(0.90829 -0.418336 -0.00206384)
(0.998244 0.0489646 0.0333306)
(0.998413 0.0478091 0.0297612)
(0.0603335 -0.00272362 0.998175)
(0.90832 -0.418274 -0.00137017)
(0.00320292 -0.0016633 0.999993)
(0.998091 -0.0614924 0.00579073)
(0.000843812 0.00926364 0.999957)
(0.98732 0.137347 0.0795876)
(0.00738142 -0.00210627 0.999971)
(0.988571 0.136158 0.0647168)
(-0.003258 0.00970538 0.999948)
(0.0746139 -0.00692854 0.997188)
(0.908236 -0.418459 -0.000446317)
(0.998075 0.0493673 0.0375357)
(0.984372 -0.176024 0.00529871)
(0.99781 0.0508661 0.0422923)
(0.0313982 0.00297346 0.999503)
(0.908162 -0.418618 -0.000387151)
(0.965197 -0.249038 -0.0798381)
(0.98398 -0.172987 0.0431144)
(0.898452 -0.433995 0.0665737)
(0.995021 0.0399412 0.0913096)
(0.996724 0.0506956 0.0630229)
(0.96376 -0.263286 -0.0429695)
(0.903675 -0.426568 0.0375654)
(0.114815 -0.0775791 0.990353)
(0.997102 -0.0349912 0.0675499)
(0.433585 -0.0592189 0.899165)
(0.984416 0.12667 0.121986)
(0.196904 -0.138201 0.970633)
(0.985079 0.139585 0.10068)
(0.290714 -0.0457963 0.955713)
(0.966432 -0.256184 0.0194504)
(0.884882 -0.451725 0.113701)
(0.993503 0.0325452 0.109052)
(0.9456 -0.256645 0.199934)
(0.988522 -0.0115749 0.150632)
(0.964906 -0.258751 -0.0447632)
(0.84251 -0.499371 0.202004)
(0.613526 -0.579984 -0.535915)
(0.697905 -0.199058 -0.687972)
(-0.614078 0.476074 0.629493)
(0.795341 -0.476758 -0.374347)
(0.673056 -0.608784 -0.419973)
(0.716484 -0.103885 -0.689825)
(-0.180151 0.353729 0.917835)
(0.708612 -0.50837 -0.489315)
(0.629823 0.625121 -0.461028)
(0.967715 0.251858 0.00976539)
(0.663049 0.550014 -0.507789)
(0.377284 -0.337713 0.862326)
(0.315234 0.82248 -0.473449)
(0.654199 0.755634 0.032277)
(-0.191552 -0.467215 0.863145)
(0.487757 0.699406 -0.522421)
(0.0185359 0.124353 0.992065)
(0.224115 -0.130396 0.9658)
(0.0240656 0.00910775 0.999669)
(0.184387 -0.0792615 0.979653)
(-0.104207 -0.145513 0.983853)
(-0.0236956 0.0152675 0.999603)
(0.30613 -0.140297 0.941595)
(-0.0254026 0.0149866 0.999565)
(-0.0490354 -0.025015 0.998484)
(0.703431 0.710657 0.0122757)
(0.720345 0.689211 0.0780515)
(0.660711 0.679339 -0.319312)
(0.392585 -0.315348 0.863963)
(0.522464 -0.391206 0.757621)
(0.0911167 0.995601 0.0218382)
(-0.083144 0.996482 0.0105204)
(0.987295 0.158766 0.00650776)
(0.996733 0.0578898 0.0563161)
(-0.32922 0.941561 0.0712587)
(-0.257664 0.0348939 0.965604)
(-0.49924 0.778509 0.380373)
(0.753467 0.0633278 0.654429)
(0.98166 0.15602 0.109551)
(0.0709049 0.997481 0.00179333)
(-0.0797847 0.996812 -2.28813e-05)
(0.566208 -0.00172781 0.824261)
(0.562235 0.0026293 0.826973)
(0.0037644 0.999993 0.000847883)
(-0.133385 -0.0121087 0.99099)
(-0.111054 -5.27113e-06 0.993814)
(0.593438 -0.006576 0.804853)
(0.564222 -0.00611289 0.825601)
(0.443223 0.896203 -0.019335)
(0.655474 -0.424988 0.624291)
(0.458051 0.888655 -0.0219509)
(0.670344 -0.529895 0.519471)
(-0.0544799 0.00807371 0.998482)
(-0.0545685 0.00350571 0.998504)
(0.770523 -0.586919 -0.248639)
(-0.416366 0.789244 0.451368)
(-0.0205465 0.802954 0.595686)
(-0.0917467 0.0158999 0.995655)
(-0.151228 -0.122244 0.980911)
(-0.0689426 0.00791564 0.997589)
(-0.425217 0.768414 0.478258)
(-0.0688705 0.0141753 0.997525)
(-0.108766 0.0268339 0.993705)
(-0.0669221 0.00987833 0.997709)
(-0.186604 -0.0510326 0.981109)
(-0.0574577 0.00184287 0.998346)
(-0.448312 0.755763 0.477324)
(0.0478327 -0.0239273 0.998569)
(-0.0765195 0.0527618 0.995671)
(0.0118352 0.0103799 0.999876)
(0.00639608 -0.00608432 0.999961)
(0.00962175 -0.00317718 0.999949)
(0.997102 -0.0752166 0.0114345)
(0.980191 0.131886 0.147753)
(-0.00593736 0.00866853 0.999945)
(0.980452 0.128151 0.149299)
(0.00161383 -2.27137e-06 0.999999)
(0.00783841 0.00640542 0.999949)
(0.00543376 0.00489729 0.999973)
(0.00592502 -0.0028696 0.999978)
(-0.0750929 0.0507791 0.995883)
(0.0326086 -0.00961858 0.999422)
(0.465585 0.884921 0.0120209)
(0.466054 0.884681 0.0115869)
(-0.115083 0.00314417 0.993351)
(-0.0979787 0.00499634 0.995176)
(-0.100974 0.0126778 0.994808)
(-0.213658 0.0123489 0.97683)
(-0.116902 0.0114223 0.993078)
(-0.0817919 0.00659741 0.996628)
(-0.0957746 0.00522624 0.995389)
(-0.138595 0.009483 0.990304)
(-0.225428 0.0115629 0.974191)
(-0.119391 0.0112112 0.992784)
(0.0135145 0.00362695 0.999902)
(-0.0741106 0.0490128 0.996045)
(0.00167127 0.00180173 0.999997)
(0.00237006 0.00112994 0.999997)
(-0.000303249 0.000340378 1)
(0.997784 -0.0665292 3.40311e-05)
(0.98917 0.134813 0.058032)
(-0.00629608 0.00908117 0.999939)
(0.990192 0.134162 0.0389875)
(0.00141321 0.00171084 0.999998)
(-0.00970827 0.00912607 0.999911)
(0.00355244 0.00185556 0.999992)
(0.00227677 0.00122973 0.999997)
(-0.0685615 0.0464894 0.996563)
(0.0149464 0.00341827 0.999882)
(0.444297 0.895469 0.0271418)
(0.445951 0.894665 0.0264924)
(-0.257209 -0.0141165 0.966253)
(-0.213154 -0.00861727 0.976981)
(-0.203165 0.00295117 0.97914)
(-0.449618 -0.00932127 0.893172)
(-0.240088 -0.00100888 0.970751)
(-0.173548 -0.00375155 0.984818)
(-0.20763 -0.00793709 0.978175)
(-0.29265 -0.0067703 0.956196)
(-0.465798 -0.0112286 0.88482)
(-0.246016 -0.00164988 0.969264)
(0.0233749 0.000124285 0.999727)
(-0.0348716 0.0198763 0.999194)
(0.00818478 0.00209197 0.999964)
(0.0127611 0.00216662 0.999916)
(0.0186255 -0.011816 0.999757)
(0.998462 -0.0507145 0.0223861)
(0.98528 0.141542 0.095858)
(0.059074 -0.00458634 0.998243)
(0.986151 0.140111 0.088737)
(0.0419164 -0.0250302 0.998808)
(0.0307273 0.00230097 0.999525)
(0.0254445 0.00129586 0.999675)
(0.0143985 0.0019589 0.999894)
(0.00285218 -0.0127555 0.999915)
(0.0416445 -0.0136333 0.999039)
(0.946675 -0.290662 -0.139005)
(0.932971 -0.332275 -0.138412)
(-0.250205 0.210921 0.944939)
(-0.505857 -0.0276633 0.862174)
(-0.448544 -0.0210848 0.893512)
(-0.654988 -0.0246981 0.755236)
(-0.526042 -0.0166498 0.850296)
(-0.413526 -0.0310618 0.909962)
(-0.494681 -0.0294512 0.868575)
(-0.337944 0.347752 0.874564)
(-0.664937 -0.0211749 0.746599)
(-0.537125 -0.0143569 0.843381)
(0.0828463 -0.0827222 0.993123)
(-0.126868 -0.0705387 0.989408)
(0.286513 -0.00488326 0.958064)
(0.377962 0.0394354 0.924981)
(0.383412 -0.164645 0.908783)
(0.915546 -0.27109 0.297131)
(0.993832 0.0158862 0.109748)
(0.963377 -0.0901578 -0.252539)
(0.241757 0.0889555 0.966251)
(-0.014095 -0.101772 0.994708)
(0.721954 -0.260388 -0.641078)
(-0.482495 -0.0735527 0.872805)
(0.691797 0.363193 -0.624106)
(0.792721 -0.607786 0.0467951)
(0.480941 0.728686 -0.487559)
(0.302388 0.946262 -0.114671)
(-0.0902783 -0.453222 0.886814)
(0.161058 0.813466 -0.558867)
(-0.365818 -0.169729 0.915079)
(0.96879 -0.156345 -0.192359)
(-0.200339 -0.0129476 0.979641)
(0.910563 -0.412148 0.0317693)
(-0.372253 -0.16679 0.913022)
(0.133038 -0.096977 0.986355)
(0.9124 -0.400026 -0.0866333)
(-0.0150784 0.0124409 0.999809)
(-0.226606 -0.0710558 0.971391)
(-0.638584 -0.0394374 0.768541)
(0.637819 0.750502 -0.173015)
(0.527631 0.650873 -0.545866)
(0.802431 -0.593194 0.0649976)
(0.801948 -0.593273 0.0700455)
(-0.101186 0.970977 -0.216715)
(-0.101638 0.00273206 0.994818)
(0.229797 0.947721 -0.221398)
(0.809324 -0.585888 -0.0416006)
(0.970257 0.221728 -0.097147)
(0.520925 0.85148 -0.0601637)
(-0.000128819 0.999989 -0.00458226)
(0.0989969 0.981004 -0.166825)
(0.283617 0.955143 -0.0852234)
(0.887232 0.439409 -0.140493)
(0.575861 0.816468 -0.0419968)
(0.670856 0.736921 -0.0830681)
(-0.0951524 0.0400226 0.994658)
(0.982288 -0.187285 -0.00591329)
(-0.224966 -0.0109414 0.974305)
(0.914943 -0.399139 0.0597306)
(0.0331689 -0.0479946 0.998297)
(0.971781 0.0387579 -0.232681)
(0.913635 -0.406009 -0.0206547)
(0.815203 -0.579146 0.0058809)
(0.815077 -0.579352 0.000555458)
(0.0315553 0.0169415 0.999358)
(0.00394833 -0.00922809 0.99995)
(-0.00336089 0.0119445 0.999923)
(-0.0105676 -0.0207794 0.999728)
(0.814812 -0.577507 0.0506596)
(0.817349 -0.576012 0.0122617)
(0.457668 0.0790269 0.885604)
(0.917625 -0.382531 0.107864)
(0.616124 -0.610444 0.497744)
(0.143893 -0.522955 0.840127)
(-0.406143 0.731664 -0.547463)
(-0.63626 0.769424 -0.0562231)
(-0.429231 0.895825 0.115141)
(-0.575534 0.74584 -0.335386)
(-0.587173 0.809277 0.017275)
(0.933405 0.358712 0.00895907)
(-0.328162 0.943965 0.0352083)
(0.960664 0.277397 -0.0132733)
(0.0070854 0.999851 -0.0157445)
(0.962733 0.266176 0.0479039)
(0.97422 0.192185 -0.118157)
(-0.190169 0.981619 0.0161107)
(0.030459 0.00420138 0.999527)
(0.987346 -0.0957678 0.126402)
(0.0422934 0.00883113 0.999066)
(0.137639 -0.0495282 0.989243)
(-0.0149397 0.0132555 0.999801)
(0.0284355 -0.0281703 0.999199)
(0.136723 -0.032978 0.99006)
(-0.0627262 0.0384867 0.997288)
(0.146601 -0.0995395 0.984175)
(0.0153754 0.0183986 0.999713)
(0.011417 -0.0111492 0.999873)
(-0.0116535 0.00978251 0.999884)
(0.00761086 -0.025976 0.999634)
(0.427441 -0.32351 0.844177)
(0.0644913 -0.0543695 0.996436)
(-0.0870295 0.996161 0.00939446)
(0.0280507 0.999551 0.0105048)
(-0.0356531 0.999338 0.0072703)
(-0.0513253 0.99837 0.0249469)
(0.0354125 0.999368 0.00301917)
(0.177012 0.984186 0.00668048)
(0.00966624 0.999946 0.00376549)
(0.0552308 0.998469 0.00309016)
(0.109959 0.993924 0.00495076)
(-0.0671409 0.997743 0.000637453)
(0.0804902 0.99675 0.0032752)
(-0.0230634 0.99973 0.00273675)
(0.0231502 0.99973 0.00204739)
(0.0161781 0.999868 0.00164029)
(0.00551626 0.999985 0.000750666)
(0.013448 0.999908 0.00187514)
(0.0147701 0.99989 0.00135697)
(0.0379074 0.999279 0.00195356)
(0.0136012 0.999904 0.00250412)
(0.0229393 0.999736 0.00145565)
(-0.0326021 0.999451 0.00584485)
(-0.231203 0.0277069 0.972511)
(-0.150962 0.00935363 0.988495)
(0.569515 0.00941531 0.821927)
(0.607168 0.00681392 0.794544)
(0.719647 0.0331337 0.693549)
(0.618332 0.0187969 0.785692)
(-0.000801333 1 0.000548408)
(-0.00106834 0.999999 0.000490716)
(-0.0026399 0.999996 -0.000251925)
(-0.00527321 0.999986 0.000500815)
(-0.0223906 0.999742 0.00378859)
(-0.0107943 0.999942 -0.000290041)
(-0.00056437 1 -4.57646e-05)
(0.000373325 0.999993 0.00360997)
(-0.00765074 0.999971 -0.000242554)
(0.289216 0.953245 0.0876228)
(0.292209 0.953923 0.0681526)
(-0.311228 0.948235 0.0631482)
(-0.0284962 0.99956 0.00824082)
(-0.003048 0.997982 0.0634255)
(0.232524 0.918896 0.31869)
(0.418567 0.900586 0.117241)
(0.13284 0.985387 0.106616)
(0.00899781 0.999925 0.00833655)
(0.318319 0.944751 0.0782187)
(0.0965001 0.993453 0.0611395)
(-0.375379 0.921064 0.103599)
(-0.141619 -0.00654221 0.9899)
(-0.29519 0.00930602 0.955393)
(0.803353 -0.565209 -0.187516)
(0.802473 -0.0725457 0.592261)
(0.605233 -0.0153535 0.795901)
(0.749556 -0.0473272 0.660247)
(0.961688 -0.193284 -0.194414)
(0.947717 -0.318957 0.00997624)
(0.923396 -0.332977 -0.190964)
(0.260608 0.89187 0.369664)
(0.899554 0.297188 0.320127)
(0.274109 0.850942 0.448065)
(-0.5508 0.796297 0.250062)
(-0.147859 0.0459041 0.987943)
(-0.410875 0.908395 -0.0774583)
(0.812049 -0.320725 -0.487557)
(0.180737 0.856945 0.482679)
(0.86755 -0.206339 -0.452527)
(-0.170694 0.0665532 0.983074)
(0.834613 -0.292069 -0.46703)
(0.928963 -0.369935 0.0132382)
(0.996316 -0.0854244 0.00752928)
(-0.428138 0.903694 0.00593966)
(0.887547 -0.413366 -0.203443)
(0.261712 0.833995 0.485757)
(0.87078 0.490982 -0.0260601)
(0.88078 0.472542 -0.0305127)
(-0.16413 0.985851 0.0340583)
(-0.394638 0.918701 -0.0157677)
(-0.255645 0.965715 0.0451671)
(-0.286186 0.879339 0.380605)
(-0.159919 0.984014 0.0783737)
(-0.267616 0.960171 0.0803339)
(-0.214462 0.974782 0.0617003)
(-0.352142 0.860347 0.368508)
(-0.245521 0.96663 0.0731209)
(-0.417207 0.908599 -0.0196369)
(-0.216222 0.971888 0.0931748)
(-0.289749 0.955849 0.0489714)
(0.469288 0.883039 0.00331663)
(0.469211 0.883077 0.00395949)
(0.963096 -0.177997 -0.201901)
(0.97721 -0.211797 -0.014207)
(0.960948 -0.161508 -0.224709)
(-0.241813 0.0504727 0.969009)
(0.870183 -0.164088 -0.464604)
(0.869233 -0.173243 -0.463056)
(0.868589 -0.195024 -0.455542)
(-0.231048 0.0510201 0.971604)
(0.869046 -0.176921 -0.462014)
(0.977363 -0.211033 -0.0150319)
(0.954651 -0.160142 -0.250988)
(0.959505 -0.160203 -0.231701)
(0.868632 0.495451 -0.00238869)
(0.868513 0.495663 -0.00173715)
(-0.145887 0.988764 0.0326106)
(-0.328756 0.944401 0.00518263)
(-0.120539 0.992191 0.0320632)
(0.739653 -0.367743 -0.563629)
(-0.34014 0.936269 0.087777)
(-0.255113 0.96437 0.0700574)
(-0.214178 0.974862 0.0614141)
(0.72844 -0.405056 -0.552544)
(-0.238373 0.968894 0.0665048)
(-0.328841 0.944367 0.00586958)
(-0.135553 0.990066 0.0373536)
(-0.119309 0.992316 0.0327724)
(-0.0881521 0.0266932 0.995749)
(-0.0763537 0.0197863 0.996884)
(-0.25353 0.785283 0.564848)
(-0.152587 -0.224004 0.962569)
(-0.0905334 0.0233391 0.99562)
(-0.10361 0.0316715 0.994114)
(-0.391041 0.644564 0.656981)
(-0.0894861 0.0254926 0.995662)
(-0.169063 -0.178048 0.96939)
(-0.0786709 0.0177446 0.996743)
(-0.0557798 0.00817561 0.99841)
(-0.0664552 0.00789507 0.997758)
(-0.145802 0.0166927 0.989173)
(-0.0988759 0.0128346 0.995017)
(-0.0850035 0.0137965 0.996285)
(-0.0704296 0.014253 0.997415)
(-0.13839 0.0172879 0.990227)
(-0.0830977 0.0139096 0.996444)
(-0.0799703 0.00676768 0.996774)
(-0.06807 0.00778212 0.99765)
(-0.0909512 0.0270991 0.995487)
(-0.107873 0.0283799 0.99376)
(-0.595385 0.186634 0.781463)
(-0.140523 0.0317964 0.989567)
(-0.126915 0.0323403 0.991386)
(-0.10655 0.0319222 0.993795)
(-0.594101 0.200704 0.778949)
(-0.124721 0.032379 0.991663)
(-0.121628 0.0283529 0.992171)
(-0.109844 0.0284289 0.993542)
(0.816699 -0.577059 -0.0022611)
(0.815623 -0.578576 -0.00303983)
(0.0224242 0.0111516 0.999686)
(0.00199104 -0.00392453 0.99999)
(-0.0172106 0.0141971 0.999751)
(0.982961 -0.183812 -0.000563137)
(0.998093 0.0451371 0.0421126)
(0.908848 -0.417127 0.0010178)
(0.998876 0.0430269 0.019875)
(0.0553135 -0.0048582 0.998457)
(0.908699 -0.417429 -0.00433296)
(0.0100031 0.00505046 0.999937)
(0.00466808 -0.00138183 0.999988)
(0.814644 -0.57996 -0.000949904)
(0.814838 -0.57963 -0.00827212)
(0.030101 0.00105416 0.999546)
(0.983315 -0.18191 -0.00099682)
(0.99834 0.045685 0.0350627)
(0.90928 -0.416186 -0.000242433)
(0.0278474 0.00101903 0.999612)
(0.99888 0.0451092 0.0142484)
(0.909065 -0.416633 -0.00426068)
(0.81384 -0.581088 -0.00101589)
(0.814042 -0.580765 -0.0069032)
(0.00472189 0.00253552 0.999986)
(0.00451801 0.00113392 0.999989)
(0.00811672 0.00388272 0.99996)
(0.00379911 0.000416599 0.999993)
(0.814848 -0.579638 -0.00652475)
(0.81427 -0.580483 -0.00178837)
(0.00245059 0.001742 0.999995)
(0.997499 -0.0706017 0.00339376)
(0.986032 0.133092 0.100138)
(-0.00637512 0.00894951 0.99994)
(0.00112603 -0.00142112 0.999998)
(0.9894 0.132619 0.0591549)
(-0.00129591 0.00794264 0.999968)
(-0.0735977 0.0487083 0.996098)
(0.0196456 0.000271453 0.999807)
(0.00235297 0.00230425 0.999995)
(0.00294996 0.000469855 0.999996)
(0.00424668 0.00318466 0.999986)
(0.0035007 -0.000182621 0.999994)
(0.0225103 -0.00218803 0.999744)
(-0.0721798 0.0488793 0.996193)
(0.976835 -0.212327 -0.0266642)
(0.941269 -0.160923 -0.296846)
(0.946272 -0.161771 -0.28)
(0.870525 -0.161255 -0.464955)
(-0.333494 0.0469623 0.941582)
(0.871314 -0.15272 -0.466357)
(0.977012 -0.211596 -0.0259714)
(0.95298 -0.160557 -0.257003)
(0.947945 -0.161653 -0.27435)
(0.871397 -0.140369 -0.470067)
(-0.348212 0.0461898 0.936277)
(0.87146 -0.149721 -0.467055)
(0.866716 0.498767 0.00589981)
(0.86692 0.498416 0.00551555)
(-0.36046 0.932658 0.0147677)
(-0.630655 0.768202 0.110176)
(-0.279995 0.95809 0.0605504)
(-0.384631 0.917969 0.0969143)
(0.745382 -0.217007 -0.630328)
(-0.587625 0.797191 0.138505)
(-0.356391 0.934228 0.0142608)
(-0.148195 0.988157 0.0398088)
(-0.226983 0.972475 0.0526466)
(0.859953 -0.468729 -0.201927)
(0.741794 -0.20345 -0.639023)
(-0.671553 0.724315 0.156157)
(0.458511 0.888497 0.0184498)
(0.457898 0.888804 0.0188867)
(0.939627 -0.1599 -0.302543)
(0.973097 -0.227209 -0.0381938)
(0.934618 -0.154764 -0.320215)
(-0.470294 0.0351729 0.881809)
(0.866174 -0.108151 -0.4879)
(0.869227 -0.121048 -0.479366)
(0.871193 -0.136835 -0.471485)
(-0.45517 0.0370648 0.889633)
(0.869933 -0.12513 -0.477032)
(0.972626 -0.229071 -0.0390558)
(0.927082 -0.144063 -0.34607)
(0.932849 -0.152522 -0.326391)
(0.865936 0.500031 0.0111146)
(0.865928 0.500038 0.0114373)
(0.778564 -0.61375 -0.130956)
(-0.494561 0.868861 0.0221456)
(0.94593 -0.28045 -0.162983)
(0.707295 -0.124737 -0.695826)
(0.945024 -0.162388 -0.28383)
(0.940576 -0.227023 -0.252541)
(0.891646 -0.39939 -0.213202)
(0.71141 -0.132446 -0.690184)
(0.935359 -0.257172 -0.242829)
(-0.515645 0.856504 0.0226049)
(0.970263 -0.146367 -0.192786)
(0.958405 -0.229182 -0.170104)
(-0.146904 0.0272406 0.988776)
(-0.135206 0.027817 0.990427)
(-0.142339 0.0316979 0.98931)
(-0.579194 0.1297 0.804806)
(-0.155145 0.0309117 0.987408)
(-0.123148 0.0283123 0.991984)
(-0.133654 0.0278897 0.990636)
(-0.171508 0.0297761 0.984733)
(-0.575891 0.124303 0.808021)
(-0.157059 0.0307816 0.987109)
(-0.1178 0.00284153 0.993033)
(-0.139097 0.00038203 0.990279)
(-0.336534 0.00259503 0.941668)
(-0.198467 0.00344946 0.980101)
(-0.169059 0.00649844 0.985585)
(-0.141634 0.00919562 0.989876)
(-0.321164 0.00400064 0.947015)
(-0.165296 0.00687557 0.98622)
(-0.169251 -0.00322952 0.985568)
(-0.142499 -1.51659e-05 0.989795)
(-0.148765 0.0271583 0.9885)
(-0.163263 0.0265459 0.986225)
(-0.558197 0.0914193 0.824656)
(-0.216845 0.0270177 0.975832)
(-0.194362 0.028285 0.980522)
(-0.173797 0.0296187 0.984336)
(-0.559183 0.0947512 0.823612)
(-0.191522 0.0284548 0.981076)
(-0.184351 0.025922 0.982519)
(-0.1656 0.026466 0.985838)
(0.813809 -0.581097 -0.0064283)
(0.813409 -0.581691 -0.00131988)
(0.00428399 0.00232551 0.999988)
(0.00375788 0.001391 0.999992)
(0.0109759 0.00372696 0.999933)
(0.983518 -0.18081 -0.000365286)
(0.998703 0.0466755 0.0203457)
(0.908498 -0.417882 -0.00233486)
(0.998774 0.0460477 0.0181945)
(0.0425949 -0.00134759 0.999092)
(0.908527 -0.417823 -0.00152599)
(0.00562807 0.00225296 0.999982)
(0.00447205 0.00174426 0.999988)
(0.813 -0.582261 -0.00161143)
(0.813287 -0.581824 -0.00664636)
(0.0497066 -0.00156739 0.998763)
(0.983746 -0.179567 0.000537596)
(0.998624 0.0468433 0.02357)
(0.908456 -0.417977 -0.00154977)
(0.0163441 0.00401661 0.999858)
(0.998545 0.0475092 0.0255142)
(0.908379 -0.41814 -0.00269795)
(0.811894 -0.583799 -0.0025586)
(0.812351 -0.583119 -0.00763171)
(0.0101188 0.00300553 0.999944)
(0.00807675 0.00265929 0.999964)
(0.00612049 0.00241328 0.999978)
(0.00724711 0.00235141 0.999971)
(0.812909 -0.582347 -0.00707606)
(0.812479 -0.582986 -0.00224183)
(0.00337573 0.000457382 0.999994)
(0.997996 -0.0631373 0.00415672)
(0.989432 0.135077 0.0527049)
(-0.00592442 0.00948102 0.999938)
(0.00107447 -0.000298503 0.999999)
(0.988429 0.135747 0.0676794)
(-0.00376503 0.00947276 0.999948)
(-0.0548422 0.0362753 0.997836)
(0.0173082 0.00395196 0.999842)
(0.00764349 0.00215377 0.999968)
(0.00523413 0.00180772 0.999985)
(0.0034752 0.00171419 0.999992)
(0.00512399 0.00179922 0.999985)
(0.0164511 0.00387619 0.999857)
(-0.0638656 0.0432094 0.997023)
(0.96216 -0.266419 -0.0571749)
(0.904982 -0.111135 -0.410678)