/*--------------------------------*- C++ -*----------------------------------*\
| =========                 |                                                 |
| \\      /  F ield         | OpenFOAM: The Open Source CFD Toolbox           |
|  \\    /   O peration     | Version:  2012                                  |
|   \\  /    A nd           | Website:  www.openfoam.com                      |
|    \\/     M anipulation  |                                                 |
\*---------------------------------------------------------------------------*/
FoamFile
{
    version     2.0;
    format      ascii;
    class       volVectorField;
    location    "0.104/solid";
    object      U;
}
// * * * * * * * * * * * * * * * * * * * * * * * * * * * * * * * * * * * * * //

dimensions      [0 1 -1 0 0 0 0];


internalField   nonuniform List<vector> 
24998
(
(2.25069e-08 -1.13274e-08 -1.04112e-08)
(-1.40535e-10 -3.05963e-10 -5.80423e-10)
(-1.11547e-09 1.07197e-09 -1.29924e-10)
(1.12955e-10 -1.8842e-11 3.70559e-09)
(6.02766e-09 6.34071e-08 7.63587e-09)
(1.9447e-08 -7.54399e-09 1.70482e-08)
(-1.344e-08 5.88653e-09 3.86318e-09)
(-8.79395e-09 9.73916e-09 1.18279e-09)
(-6.78343e-09 1.17613e-08 6.12292e-09)
(2.49189e-08 -1.39032e-08 -1.46513e-08)
(-2.25504e-09 2.01209e-09 -7.64727e-10)
(3.72375e-08 -1.37389e-08 2.01254e-08)
(-1.76957e-10 -2.85121e-10 -5.89074e-10)
(-9.49157e-10 1.17667e-09 -4.62249e-10)
(3.03275e-08 -1.13878e-08 1.969e-08)
(-2.22799e-09 1.68817e-09 7.89915e-10)
(1.52718e-10 -3.26264e-11 6.94517e-09)
(1.02198e-10 -1.70229e-11 3.70242e-09)
(1.68632e-10 -4.51494e-11 6.92741e-09)
(1.11143e-08 5.82379e-08 3.99254e-09)
(3.60471e-09 4.1491e-08 5.24924e-09)
(2.38527e-08 1.30984e-07 1.72922e-09)
(2.32565e-08 -8.72333e-09 1.67146e-08)
(-1.42931e-08 6.51043e-09 4.04068e-09)
(-1.21981e-08 5.1115e-09 4.04388e-09)
(-1.55765e-08 7.39397e-09 3.66386e-09)
(-1.46868e-08 1.07129e-08 1.25758e-09)
(-9.00901e-09 9.44142e-09 1.23814e-09)
(-1.45594e-08 1.10424e-08 1.2202e-09)
(-1.2595e-08 1.25075e-08 4.53e-09)
(-7.23391e-09 1.16407e-08 4.5199e-09)
(-1.20925e-08 1.26109e-08 6.16292e-09)
(-3.51022e-10 -3.93674e-09 -3.10826e-08)
(-2.92761e-07 1.01761e-07 -1.12517e-07)
(1.0984e-09 -7.70685e-10 -1.69534e-09)
(3.3851e-09 -7.03359e-09 -1.47334e-08)
(8.73146e-08 -3.24494e-08 9.92759e-09)
(1.10408e-09 -5.01957e-10 -4.3562e-09)
(-3.05627e-08 -2.99999e-09 2.17343e-08)
(-9.8588e-09 -9.34134e-10 1.045e-08)
(-2.30969e-10 2.14862e-10 3.24542e-09)
(-6.62064e-09 -1.68885e-10 7.73512e-09)
(-6.43842e-09 -8.11101e-11 7.56567e-09)
(2.05659e-11 -5.43325e-11 3.47921e-09)
(-0.00359859 9.80647e-05 -0.0043588)
(-4.108e-08 -1.42852e-07 -1.6835e-09)
(-8.48843e-05 -6.21226e-06 -9.69407e-05)
(-9.31149e-06 -1.1073e-05 5.46627e-05)
(-0.00295115 0.000214942 0.00114777)
(3.48128e-10 1.46685e-10 9.69602e-09)
(-0.0240996 -0.00086069 -0.0105876)
(-0.0125766 -0.000539079 -0.00815591)
(-0.0125256 0.000564903 0.00224527)
(-0.0233451 0.000995186 0.00287872)
(-1.0639e-08 7.9639e-09 2.7348e-09)
(-0.0554105 0.000188919 -0.0132532)
(-0.0399503 -0.000630373 -0.0123878)
(-0.0401908 0.00201999 0.00343612)
(-0.0546673 0.00323718 0.00368672)
(-8.34148e-09 1.03869e-08 1.47879e-09)
(-0.089684 0.00316036 -0.0138972)
(-0.0736427 0.00166952 -0.0136239)
(-0.074005 0.0051613 0.00381837)
(-0.0898276 0.00665591 0.0031789)
(4.42287e-09 -4.81471e-09 -2.91207e-08)
(5.96959e-09 -7.76801e-09 -1.792e-08)
(1.21375e-07 -4.76423e-08 1.60184e-08)
(-1.60318e-07 5.5088e-08 -7.8342e-08)
(-3.36987e-08 -2.80568e-09 2.29863e-08)
(-3.0813e-07 7.38364e-08 -1.14521e-07)
(2.05409e-09 -1.42286e-09 -1.78614e-08)
(-4.59955e-08 -2.07769e-09 3.39874e-08)
(-1.72898e-07 4.29626e-08 -7.56109e-08)
(1.01064e-07 -3.80195e-08 2.38037e-08)
(6.85274e-10 -6.02025e-10 -1.46696e-09)
(1.07197e-09 -3.51235e-10 -4.14463e-09)
(3.61797e-09 -1.64634e-09 -1.49958e-08)
(1.04424e-09 -5.05386e-10 -4.35625e-09)
(1.02836e-09 -4.80554e-10 -4.05272e-09)
(7.61425e-08 -2.73953e-08 1.82696e-08)
(-3.82024e-08 -3.22973e-09 3.18385e-08)
(-5.1074e-10 2.99766e-10 6.22717e-09)
(-1.41267e-08 -1.5509e-09 1.88044e-08)
(-6.65772e-09 -1.92962e-10 7.79034e-09)
(-9.53195e-09 -8.58852e-10 1.01484e-08)
(-3.57751e-10 2.04189e-10 6.46862e-09)
(-9.33912e-09 -3.40136e-10 1.43472e-08)
(-1.29659e-08 -1.32706e-09 1.78263e-08)
(-2.08543e-10 1.8406e-10 3.31601e-09)
(-9.15158e-09 -2.79819e-10 1.41383e-08)
(7.76505e-11 -6.88443e-11 6.60874e-09)
(-8.92377e-09 -1.93695e-10 1.39112e-08)
(-2.74001e-08 -9.00577e-08 2.40493e-09)
(-6.45996e-09 -1.65857e-10 7.58085e-09)
(6.97581e-11 -6.50901e-12 6.53519e-09)
(-2.12503e-08 -1.61092e-07 1.70128e-08)
(-9.0158e-09 -5.16982e-10 1.40184e-08)
(1.37677e-11 -3.51621e-11 3.44743e-09)
(-0.00354353 8.77874e-05 -0.00411044)
(-5.20999e-08 -3.66586e-07 1.58267e-08)
(3.53828e-07 8.6894e-06 2.41028e-05)
(-0.002924 0.000194039 0.000523814)
(-0.000103668 -4.71865e-05 -0.000198093)
(-0.00360074 0.000158023 -0.00433617)
(-0.000142687 3.59391e-05 -0.000152325)
(-0.00354694 0.000172653 -0.00408012)
(4.15003e-06 -1.45321e-05 2.59402e-05)
(-0.0029369 0.000172661 0.000498092)
(-8.55369e-05 4.76083e-05 -0.000126295)
(-0.00398184 6.1168e-05 -0.0046139)
(-0.0119156 -0.000505703 -0.00796381)
(-0.00392691 5.36055e-05 -0.00435235)
(-0.0111811 0.00039627 0.000952532)
(-0.00370044 0.000220215 0.000584623)
(-0.0118629 -0.00047256 -0.0075256)
(-0.00398691 0.000120209 -0.00459058)
(-0.0119641 -0.00046028 -0.00794274)
(-0.0039346 0.000137161 -0.00432095)
(-0.0112993 0.00038003 0.000922089)
(-0.00372524 0.000199589 0.000559879)
(-0.0119344 -0.000408284 -0.00749723)
(-2.89605e-06 -3.51179e-05 5.99552e-05)
(-0.00296658 0.000171575 0.00111151)
(-0.0111952 0.000520622 0.00213982)
(-0.00372589 0.00025348 0.00128773)
(-0.011324 0.000487773 0.00209706)
(-0.00375405 0.000211597 0.00125191)
(-1.15611e-09 6.09147e-10 9.08252e-09)
(-5.6743e-09 2.57406e-09 7.29784e-09)
(-3.35699e-09 1.83802e-09 7.7543e-09)
(-0.0240494 -0.000787945 -0.0100071)
(-0.0125128 0.000427714 0.00099831)
(-0.0125239 -0.000503308 -0.00770738)
(-0.0233414 0.000772762 0.00127712)
(-0.02419 -0.000828985 -0.0105862)
(-0.0126278 -0.00049454 -0.00813562)
(-0.0241828 -0.000743068 -0.0100074)
(-0.0126445 0.000412075 0.00096477)
(-0.0125996 -0.000440282 -0.00768016)
(-0.0235622 0.00076126 0.00120743)
(-0.0249619 -0.000866819 -0.0107206)
(-0.0389584 -0.000664627 -0.0123077)
(-0.0249118 -0.000791817 -0.0101326)
(-0.0382054 0.00156913 0.00150832)
(-0.0250753 0.000845743 0.00131111)
(-0.0389112 -0.000559387 -0.0116311)
(-0.0250546 -0.000835933 -0.0107208)
(-0.0390828 -0.000645243 -0.012336)
(-0.0250487 -0.00074809 -0.0101354)
(-0.0385136 0.00156192 0.00137766)
(-0.025308 0.000834806 0.00123454)
(-0.0390949 -0.000531928 -0.0116747)
(-0.0126688 0.000533286 0.00219921)
(-0.023585 0.000971981 0.00279411)
(-0.0381999 0.00187531 0.00338779)
(-0.0250778 0.00107952 0.00295461)
(-0.038535 0.00186081 0.00323812)
(-0.0253306 0.00105746 0.00286266)
(-1.54668e-08 9.29372e-09 2.59675e-09)
(-1.51584e-08 9.75776e-09 2.19276e-09)
(-9.9316e-09 8.45592e-09 2.22605e-09)
(-0.0553668 0.000317576 -0.0125229)
(-0.0401974 0.00170454 0.0015307)
(-0.0399034 -0.000523391 -0.0117067)
(-0.0546807 0.00286525 0.00164776)
(-0.0555589 0.000198229 -0.0133104)
(-0.0400765 -0.000611692 -0.0124181)
(-0.055586 0.000330807 -0.0126087)
(-0.0405153 0.00169782 0.00139208)
(-0.0400897 -0.000496923 -0.0117531)
(-0.0550569 0.00286155 0.00145975)
(-0.0564701 0.000262287 -0.0132905)
(-0.0725633 0.00157153 -0.0136152)
(-0.0564265 0.000392085 -0.0125583)
(-0.0718621 0.00452256 0.00170471)
(-0.0568057 0.0030577 0.00165903)
(-0.0725225 0.00171397 -0.0128664)
(-0.0566196 0.000271066 -0.0133493)
(-0.0727254 0.00157398 -0.0136906)
(-0.0566474 0.000404566 -0.0126462)
(-0.0722831 0.00452126 0.00148745)
(-0.0571889 0.00305436 0.00146548)
(-0.0727621 0.00171752 -0.0129786)
(-0.0405365 0.00200648 0.00327797)
(-0.0550774 0.00322978 0.00347623)
(-0.0718432 0.00493841 0.00381194)
(-0.0567915 0.00343641 0.00371084)
(-0.0723033 0.00493586 0.00357177)
(-0.0572093 0.00342976 0.00349456)
(-1.40127e-08 1.14638e-08 1.52736e-09)
(-1.37399e-08 1.16335e-08 1.76677e-09)
(-8.14511e-09 1.06839e-08 1.81945e-09)
(-0.0898746 0.00331313 -0.0132351)
(-0.0740244 0.00474178 0.00170727)
(-0.073602 0.00181251 -0.0128749)
(-0.0898292 0.00644853 0.00217142)
(-0.0898436 0.00317289 -0.013914)
(-0.0738053 0.00167167 -0.0137001)
(-0.0900947 0.00332522 -0.0132836)
(-0.0744491 0.00474067 0.00148874)
(-0.0738425 0.00181564 -0.0129881)
(-0.0900592 0.00644817 0.00205696)
(-0.0744693 0.00515916 0.00357711)
(-0.0900637 0.00665564 0.00306146)
(-1.62973e-09 -2.43629e-09 -3.24255e-08)
(-7.97792e-08 8.62866e-09 -4.25904e-08)
(-5.69514e-08 4.13822e-08 -8.25286e-08)
(1.12314e-07 -5.8757e-08 -2.62892e-08)
(1.41952e-08 -7.03526e-09 -7.70344e-09)
(2.29909e-08 -1.03041e-08 -1.02935e-08)
(6.05219e-08 -2.7902e-08 -1.88501e-08)
(1.71822e-07 -9.01769e-08 -3.94841e-08)
(1.09907e-08 -4.23021e-09 -6.60398e-09)
(3.93055e-08 -1.80567e-08 -1.32263e-08)
(-4.68145e-10 3.05718e-10 -7.21953e-10)
(-5.86689e-10 6.67089e-10 2.07118e-09)
(2.51318e-10 3.28196e-10 1.15191e-09)
(7.23027e-10 -5.92504e-12 2.57651e-09)
(1.0117e-10 -4.74612e-11 3.63861e-09)
(6.82293e-10 -3.0698e-11 2.47943e-09)
(-9.14673e-09 1.49308e-08 1.10639e-09)
(1.93957e-07 1.28626e-06 1.94503e-08)
(-2.89025e-07 6.27899e-07 -7.5231e-09)
(2.13233e-08 -7.65082e-09 3.16073e-08)
(1.66517e-08 -6.78328e-09 1.65152e-08)
(5.81502e-08 -2.42594e-08 3.67422e-08)
(1.12095e-08 -4.44221e-09 1.43729e-08)
(4.90009e-08 -2.30224e-08 4.1817e-08)
(2.47831e-08 -1.00334e-08 2.89461e-08)
(1.03013e-08 -4.06214e-09 1.41724e-08)
(-2.04516e-08 1.73251e-08 5.27103e-09)
(-1.29037e-08 4.29818e-09 3.74637e-09)
(-3.16826e-08 1.89756e-08 8.3605e-09)
(-1.29582e-08 6.66398e-09 3.70687e-09)
(-2.35921e-08 1.32089e-08 8.00058e-09)
(-3.21209e-08 2.20704e-08 7.37528e-09)
(-1.12004e-08 5.24354e-09 3.93397e-09)
(-5.95526e-09 2.63036e-08 1.88625e-09)
(-3.53856e-09 8.60669e-09 1.02192e-09)
(-2.53813e-08 2.89179e-08 2.67724e-09)
(-8.65261e-09 9.96798e-09 1.23075e-09)
(-7.29342e-09 2.52907e-08 1.91402e-09)
(-2.45693e-08 2.9722e-08 2.30112e-09)
(-3.34613e-09 8.80647e-09 9.98598e-10)
(-1.8227e-09 2.55037e-08 2.88878e-08)
(-1.67458e-09 1.05468e-08 5.64977e-09)
(-2.09961e-08 3.52065e-08 1.70771e-08)
(-6.32486e-09 1.10923e-08 8.75503e-09)
(-2.243e-09 3.01608e-08 1.37034e-08)
(-1.7501e-08 2.7186e-08 2.86991e-08)
(-1.1951e-09 1.00751e-08 8.24576e-09)
(4.19007e-07 -2.65783e-07 5.77348e-09)
(5.00509e-08 -1.63612e-08 -1.83207e-08)
(2.59336e-08 -1.21272e-08 -1.2159e-08)
(8.23707e-08 -4.06477e-08 -2.9681e-08)
(2.14124e-07 -1.15896e-07 -4.35825e-08)
(2.20487e-08 -8.08153e-09 -1.35495e-08)
(1.7876e-07 -6.33084e-08 -4.06685e-08)
(-2.368e-09 2.1197e-09 -7.01218e-09)
(-8.42133e-09 3.37566e-09 3.4276e-09)
(-1.1264e-08 4.27236e-09 -9.1527e-09)
(2.08439e-07 -7.79549e-08 3.71823e-09)
(5.51387e-08 -2.04383e-08 2.34557e-08)
(4.69736e-08 -1.42434e-08 1.65185e-08)
(7.94491e-08 -3.14e-08 3.65154e-08)
(1.39264e-07 -6.13983e-08 4.35266e-08)
(1.03424e-07 -3.44875e-08 5.24264e-09)
(7.03872e-08 -2.19125e-08 2.04402e-08)
(-2.40313e-10 -2.6292e-10 -1.2933e-09)
(-1.95687e-09 7.70938e-10 6.65331e-12)
(-2.06255e-10 -1.2077e-10 -2.10714e-09)
(-1.01384e-09 1.30098e-09 -3.86577e-09)
(-5.16871e-10 3.19775e-10 -9.92981e-10)
(-7.10689e-10 2.47403e-10 -2.66632e-09)
(1.0103e-07 -4.31349e-08 4.57559e-08)
(4.41101e-08 -1.63272e-08 2.16952e-08)
(2.49973e-08 -9.9006e-09 1.83874e-08)
(7.24462e-08 -2.90493e-08 3.90581e-08)
(5.53855e-08 -2.40036e-08 4.3069e-08)
(1.27116e-07 -5.64265e-08 4.53252e-08)
(3.5384e-08 -1.35543e-08 1.92297e-08)
(-7.76445e-09 2.49429e-09 5.91784e-09)
(-1.30292e-09 1.02365e-09 4.05907e-09)
(-5.64448e-09 7.18011e-10 9.24101e-09)
(3.36261e-11 1.46607e-11 6.90144e-09)
(-1.85129e-09 -1.65923e-10 1.00934e-08)
(-2.10594e-09 -2.07107e-10 1.03073e-08)
(2.85479e-11 3.428e-11 3.65179e-09)
(7.23284e-10 -1.52874e-12 2.57837e-09)
(6.93848e-10 3.16089e-11 2.49773e-09)
(-1.79124e-09 -1.61373e-10 1.00132e-08)
(1.70742e-10 -6.72111e-11 6.82988e-09)
(-1.70136e-09 -7.85849e-11 9.82903e-09)
(1.07086e-09 4.523e-09 6.03916e-09)
(3.92467e-08 2.05353e-08 1.30275e-08)
(3.84378e-09 -2.05796e-10 1.02267e-08)
(1.27101e-10 1.89513e-09 3.28251e-09)
(-5.81494e-09 8.782e-09 1.06407e-09)
(6.46691e-11 2.24615e-10 1.59943e-09)
(6.30878e-08 4.00055e-08 1.72434e-08)
(8.58827e-08 1.08492e-06 -7.32311e-08)
(-3.28e-07 1.4559e-07 4.26661e-07)
(3.00481e-08 -8.1873e-09 5.83989e-09)
(2.89711e-08 -8.63921e-09 1.31824e-08)
(6.32915e-08 -2.58027e-08 3.40842e-08)
(1.2684e-08 -4.89694e-09 1.37237e-08)
(2.61366e-08 -1.04546e-08 2.65729e-08)
(9.26442e-08 -3.10917e-08 5.46513e-09)
(1.53868e-08 -4.48464e-09 1.0594e-08)
(-3.89511e-08 1.79921e-08 3.91882e-09)
(-1.2123e-08 5.44983e-09 4.74102e-09)
(-1.82758e-08 7.03303e-09 3.27396e-09)
(-3.38972e-08 1.97064e-08 8.41802e-09)
(-2.61925e-08 1.48359e-08 1.05913e-08)
(-5.10977e-08 2.3501e-08 4.00258e-09)
(-1.57874e-08 6.013e-09 3.76278e-09)
(-1.39715e-08 1.00076e-08 1.27696e-08)
(-9.56138e-09 4.26394e-09 4.78625e-09)
(-1.15181e-08 3.72362e-09 3.42791e-09)
(-3.03592e-08 1.79013e-08 8.8031e-09)
(-2.30375e-08 1.2868e-08 8.49278e-09)
(-2.28228e-08 1.31478e-08 1.12708e-08)
(-7.87674e-09 3.32009e-09 4.14259e-09)
(-5.69198e-08 2.78794e-08 4.60277e-09)
(-1.99304e-08 7.88406e-09 2.98435e-09)
(-3.53968e-08 2.07917e-08 8.02407e-09)
(-1.59766e-08 8.13469e-09 3.37302e-09)
(-3.67163e-08 2.39826e-08 7.10536e-09)
(-5.212e-08 2.40301e-08 4.10271e-09)
(-2.08584e-08 8.59342e-09 2.77299e-09)
(-5.8073e-08 3.37019e-08 3.05695e-09)
(-1.47947e-08 1.04813e-08 1.52284e-09)
(-2.14914e-08 1.10557e-08 1.21902e-09)
(-3.25156e-08 3.1271e-08 2.67519e-09)
(-3.30733e-08 2.97378e-08 3.57754e-09)
(-5.8164e-08 3.49564e-08 2.54913e-09)
(-2.14883e-08 1.08645e-08 1.41239e-09)
(-9.18206e-09 2.38838e-08 2.26825e-09)
(-9.22471e-09 9.19299e-09 1.49307e-09)
(-3.79547e-09 8.41178e-09 1.0908e-09)
(-2.57323e-08 2.84863e-08 2.82829e-09)
(-7.48083e-09 2.51697e-08 1.90808e-09)
(-2.65661e-08 2.76666e-08 3.48878e-09)
(-4.09051e-09 8.18263e-09 1.25366e-09)
(-5.79875e-08 3.59105e-08 2.61149e-09)
(-2.15081e-08 1.11824e-08 1.10955e-09)
(-3.238e-08 3.30168e-08 2.35776e-09)
(-1.44284e-08 1.12853e-08 1.31066e-09)
(-3.17482e-08 3.15063e-08 3.10397e-09)
(-5.81422e-08 3.51083e-08 2.54965e-09)
(-2.13317e-08 1.13591e-08 1.13846e-09)
(-5.46356e-08 3.75651e-08 7.29949e-09)
(-1.30655e-08 1.23381e-08 3.25098e-09)
(-1.91686e-08 1.26509e-08 4.17309e-09)
(-2.78284e-08 3.60619e-08 1.42152e-08)
(-2.96711e-08 3.71226e-08 8.54106e-09)
(-5.18854e-08 3.83296e-08 1.38065e-08)
(-1.98125e-08 1.24445e-08 3.02707e-09)
(-3.10757e-09 2.88249e-08 6.19335e-09)
(-7.51593e-09 1.12724e-08 3.33075e-09)
(-1.9768e-09 1.03982e-08 4.08241e-09)
(-2.07797e-08 3.53859e-08 1.42876e-08)
(-2.33743e-09 3.01605e-08 1.23684e-08)
(-2.12518e-08 3.25488e-08 8.61423e-09)
(-2.15275e-09 1.00823e-08 2.95714e-09)
(-4.79602e-08 3.21707e-08 3.06918e-08)
(-1.84603e-08 1.25578e-08 5.75939e-09)
(-2.59355e-08 3.52653e-08 1.7032e-08)
(-1.15981e-08 1.21491e-08 8.71154e-09)
(-2.68501e-08 3.13737e-08 2.89279e-08)
(-5.13924e-08 3.8177e-08 1.52305e-08)
(-1.79239e-08 1.19389e-08 8.49406e-09)
(-2.83739e-09 -1.73417e-09 -3.42022e-08)
(-3.65186e-08 4.59834e-08 -7.58342e-08)
(-6.15879e-08 7.80641e-08 -8.5566e-08)
(-1.0377e-07 4.60313e-08 -4.70633e-08)
(-1.43336e-07 6.45634e-08 -1.42904e-07)
(-7.91653e-08 7.43217e-08 -8.5885e-08)
(-2.52639e-06 1.07766e-06 -7.31962e-07)
(-1.583e-07 1.62881e-07 -1.2065e-07)
(3.50884e-09 -2.17727e-09 -2.73406e-09)
(2.34294e-09 -2.75994e-10 -3.32063e-09)
(8.13265e-09 -2.82665e-09 -5.86594e-09)
(1.70958e-08 -1.07715e-08 -8.23023e-09)
(2.00096e-08 -6.81236e-09 -1.18987e-08)
(3.45853e-09 -7.02491e-10 -8.37643e-09)
(1.61756e-07 -1.24583e-07 -5.99716e-09)
(8.47891e-09 -2.99639e-09 -6.66307e-09)
(1.25611e-07 -6.25267e-08 -2.23061e-08)
(8.6338e-08 -3.37159e-08 -5.2592e-09)
(2.21194e-07 -1.00522e-07 2.6573e-08)
(6.34011e-08 -2.32141e-08 5.88525e-09)
(2.07629e-07 -1.13388e-07 -1.32269e-08)
(1.54858e-07 -6.41852e-08 1.88881e-08)
(5.89589e-08 -2.31878e-08 -4.61768e-09)
(2.26126e-07 -1.16414e-07 2.22426e-08)
(2.07376e-07 -1.28234e-07 -1.0913e-08)
(1.87087e-09 -2.55423e-10 -3.44293e-09)
(2.94759e-09 -4.54903e-10 -6.67913e-09)
(6.78573e-09 -1.56393e-09 -6.36644e-09)
(2.56346e-08 -1.33356e-08 3.09754e-09)
(2.1771e-08 -1.22903e-08 -5.56073e-09)
(-1.58554e-08 -1.97439e-09 1.45554e-08)
(-1.48878e-08 -1.82884e-09 1.38794e-08)
(-4.26539e-10 2.09464e-10 -7.91233e-10)
(2.96814e-10 2.3769e-10 9.55953e-10)
(-5.8609e-10 5.85397e-10 2.29109e-09)
(5.39632e-10 9.47109e-11 2.0538e-09)
(2.65258e-10 2.52328e-10 1.29467e-09)
(4.72477e-10 6.89206e-11 1.6304e-09)
(2.99489e-10 1.73981e-10 1.03718e-09)
(-6.3695e-09 -4.38806e-11 7.50241e-09)
(-6.35086e-09 -3.09388e-11 7.49347e-09)
(6.32987e-10 -5.47274e-12 2.0726e-09)
(5.93754e-10 -2.40935e-11 1.98356e-09)
(9.58372e-11 -4.67923e-11 3.62222e-09)
(5.47634e-10 -5.66896e-11 2.17972e-09)
(6.70071e-10 -3.41194e-11 2.45304e-09)
(4.69552e-10 -4.63977e-11 1.70967e-09)
(5.83291e-10 -2.75512e-11 1.96007e-09)
(-0.00147953 0.000310136 -0.00245787)
(-1.44161e-06 -1.70161e-06 -2.03405e-07)
(-0.00125702 0.000327314 -0.00217025)
(-1.84063e-06 -2.13404e-06 -3.44481e-07)
(-0.003445 0.000310485 0.0035058)
(-0.00131704 5.90202e-05 0.00195377)
(-5.65956e-09 7.24964e-09 6.48194e-10)
(-2.11522e-07 3.83988e-07 5.42107e-10)
(4.11668e-07 1.91464e-06 2.34297e-07)
(-0.000679909 4.98351e-05 0.000526607)
(-2.20033e-05 -1.73088e-05 7.13599e-05)
(-0.0010278 2.13598e-05 0.00153492)
(-3.15077e-07 1.56148e-06 6.32025e-08)
(-0.00338491 0.000285873 0.00314887)
(-0.00111994 9.32736e-05 0.000694119)
(-0.00125204 4.82049e-05 0.00174711)
(-2.94817e-05 -2.46974e-05 8.36649e-05)
(-0.00109199 3.15698e-05 0.00171886)
(-2.77638e-07 9.75894e-07 3.96003e-08)
(8.2731e-09 -4.85849e-09 9.29935e-09)
(4.71793e-09 -2.40942e-09 7.33583e-09)
(6.15204e-08 -2.75821e-08 3.50965e-08)
(2.64671e-08 -1.19181e-08 2.82924e-08)
(1.80618e-08 -6.27168e-09 3.01734e-08)
(5.03596e-09 -1.90647e-09 1.19156e-08)
(-2.62229e-09 2.6732e-09 1.9586e-08)
(1.80622e-09 2.92502e-11 9.64678e-09)
(1.65635e-08 -6.86056e-09 2.65349e-08)
(1.4531e-09 3.03353e-09 2.10703e-08)
(5.49614e-09 -1.80021e-09 1.18396e-08)
(-2.52833e-09 3.03022e-09 1.93287e-08)
(1.7615e-08 -7.66303e-09 2.59462e-08)
(1.39758e-09 5.53616e-12 4.89566e-09)
(3.44372e-09 -1.64164e-09 6.67252e-09)
(-0.0183714 -0.000759036 -0.0095564)
(-0.0176005 -0.000736898 -0.00939446)
(-0.0239796 0.00180728 0.0086398)
(-0.0182417 0.00140834 0.00777998)
(-0.0123994 0.00094259 0.00595578)
(-0.0168586 0.000719457 0.00253893)
(-0.0174421 0.00125722 0.00687831)
(-0.012436 0.0010197 0.00662049)
(-0.0174693 0.00135633 0.00764549)
(-0.0239626 0.00168424 0.00777296)
(-0.018409 0.000779976 0.00262936)
(-0.0182157 0.00130616 0.00699935)
(-1.01105e-08 1.74542e-09 1.72453e-09)
(-5.86665e-09 2.65341e-09 1.84115e-09)
(-3.2807e-08 2.23415e-08 8.23237e-09)
(-3.33688e-08 2.58978e-08 7.17034e-09)
(-1.9583e-08 1.7799e-08 4.98961e-09)
(-1.17186e-08 7.37678e-09 3.28666e-09)
(-2.90385e-08 2.48851e-08 5.50336e-09)
(-6.37015e-09 6.93633e-09 2.59604e-09)
(-3.14483e-08 2.27687e-08 6.94329e-09)
(-1.3243e-08 2.12424e-08 3.36532e-09)
(-8.45148e-09 6.20633e-09 3.39271e-09)
(-3.02983e-08 2.93532e-08 5.36104e-09)
(-3.27534e-08 2.68496e-08 6.75592e-09)
(-9.4057e-10 3.53307e-09 9.00182e-10)
(-4.27704e-09 2.97675e-09 1.6288e-09)
(-0.0480792 -0.000262316 -0.012924)
(-0.0470464 -0.000317274 -0.0128668)
(-0.0553251 0.00461873 0.0109205)
(-0.0479881 0.00386549 0.0106286)
(-0.039854 0.00292415 0.0091432)
(-0.0462939 0.00249985 0.00356181)
(-0.0469641 0.00357939 0.00951637)
(-0.0398514 0.00309221 0.0101634)
(-0.0469545 0.00376332 0.0105784)
(-0.0553417 0.00441878 0.009824)
(-0.0483655 0.00267438 0.00359747)
(-0.0479986 0.00367943 0.00956146)
(6.3475e-10 4.00612e-09 3.96798e-10)
(9.18133e-10 4.104e-09 3.90345e-10)
(-2.66916e-08 3.56758e-08 2.53145e-09)
(-2.53073e-08 3.71556e-08 2.36804e-09)
(-5.74487e-09 2.63569e-08 1.94738e-09)
(-8.57036e-09 1.01638e-08 1.34421e-09)
(-2.37521e-08 3.13864e-08 3.14848e-09)
(-2.90777e-09 9.2038e-09 1.2747e-09)
(-2.2995e-08 2.98738e-08 2.57001e-09)
(-4.48203e-09 2.73653e-08 2.81013e-09)
(-3.15153e-09 9.00589e-09 1.08471e-09)
(-2.49158e-08 3.72347e-08 2.88362e-09)
(-2.54173e-08 3.48029e-08 2.46317e-09)
(1.23367e-09 4.26476e-09 5.72669e-10)
(9.78124e-10 4.13922e-09 4.3126e-10)
(-0.0822738 0.00248269 -0.0136572)
(-0.0811959 0.00237874 -0.0136558)
(-0.089797 0.00833355 0.0112825)
(-0.0821996 0.0075428 0.0113134)
(-0.0735939 0.00638392 0.0101401)
(-0.0804868 0.00583104 0.00382927)
(-0.0811514 0.00719751 0.0101769)
(-0.0735667 0.00660871 0.0112708)
(-0.0811215 0.00742779 0.0113107)
(-0.0898384 0.00811025 0.0101912)
(-0.0826466 0.00605366 0.00383052)
(-0.08223 0.00731202 0.0101794)
(1.72952e-09 4.85539e-09 2.274e-09)
(2.48471e-09 4.7137e-09 4.08421e-09)
(-2.13194e-08 4.17684e-08 2.00476e-08)
(-1.72767e-08 2.62816e-08 3.17541e-08)
(-1.93623e-09 2.35421e-08 3.20454e-08)
(-3.72149e-09 5.22588e-09 6.40829e-09)
(-1.8029e-08 2.31637e-08 3.60896e-08)
(4.50535e-10 4.67083e-09 5.77328e-09)
(-1.8304e-08 2.65239e-08 4.24551e-08)
(3.21237e-09 4.33715e-09 5.46985e-09)
(1.21704e-08 -3.73133e-09 -5.45406e-09)
(-1.89987e-08 2.82201e-08 -6.7781e-08)
(2.47646e-08 -8.88199e-09 -2.03411e-08)
(1.46904e-07 -2.53816e-08 -1.26711e-08)
(1.77695e-08 -7.5728e-09 -1.38022e-08)
(-6.94578e-09 4.09533e-09 -3.31983e-08)
(2.19272e-07 -1.67291e-07 -7.26913e-10)
(2.14151e-08 -1.52349e-08 -1.86673e-08)
(4.40186e-07 -2.66137e-07 1.0732e-08)
(1.27465e-07 -5.24212e-08 -2.36896e-09)
(2.54788e-07 -1.18907e-07 3.04374e-08)
(1.66813e-07 -6.08258e-08 2.14397e-08)
(2.49907e-07 -1.40506e-07 -1.27916e-08)
(3.86378e-07 -1.77365e-07 2.5421e-09)
(1.82267e-07 -7.14387e-08 -8.07193e-09)
(2.62085e-07 -1.48224e-07 2.42174e-08)
(2.50482e-07 -1.72766e-07 -8.9578e-09)
(-4.6463e-08 4.35962e-08 -7.32909e-08)
(-2.06375e-08 9.55357e-09 -3.99258e-08)
(2.12577e-08 -1.30745e-08 -3.33117e-08)
(1.11167e-07 -1.73006e-08 9.64744e-09)
(1.36756e-07 -2.99552e-08 -2.33608e-09)
(-6.56324e-08 1.4478e-08 2.42175e-08)
(-3.00507e-06 4.96299e-07 -7.35232e-07)
(-6.66871e-08 2.22121e-08 1.97804e-08)
(-1.76883e-09 2.40355e-09 -8.6119e-09)
(-1.095e-08 5.91734e-09 -2.92085e-08)
(-1.3519e-08 3.36309e-09 -1.32139e-08)
(-1.31442e-08 3.34832e-09 6.69039e-09)
(-7.80487e-08 8.34724e-09 2.68852e-08)
(-1.88429e-08 4.70217e-09 -8.8963e-09)
(-2.57736e-08 9.69307e-09 -3.52527e-08)
(-1.07031e-07 1.95515e-08 7.53587e-09)
(-2.48306e-08 3.32136e-09 -1.45176e-08)
(2.25157e-07 -8.43587e-08 3.31906e-09)
(7.70796e-08 -2.86261e-08 2.51818e-08)
(2.36171e-07 -1.06852e-07 3.68624e-08)
(1.3355e-07 -4.53265e-08 2.58301e-08)
(3.68385e-07 -1.64964e-07 2.46588e-09)
(1.63408e-07 -7.07298e-08 4.21484e-08)
(9.97644e-08 -3.2165e-08 2.4217e-08)
(2.85986e-08 -2.69396e-09 3.75794e-09)
(5.45238e-08 -5.91359e-09 5.73609e-09)
(8.45562e-08 -3.82541e-08 3.24089e-08)
(1.45903e-07 -7.91028e-08 3.88898e-08)
(2.44575e-07 -1.31494e-07 2.94433e-08)
(1.71274e-07 -8.96576e-08 3.3831e-08)
(1.00835e-07 -1.43918e-08 9.06995e-09)
(6.32489e-08 -7.34399e-09 6.58021e-09)
(-2.08154e-12 -3.10601e-10 -1.25928e-09)
(1.44783e-09 -3.25562e-10 -3.02946e-09)
(1.86191e-10 -1.4459e-10 -2.23904e-09)
(-1.88236e-09 2.49705e-10 -7.87082e-11)
(-3.25879e-10 -3.06386e-10 -1.9234e-09)
(1.29835e-09 -4.36112e-10 -3.31059e-09)
(-7.96961e-10 -8.36397e-10 -8.65043e-10)
(1.5139e-10 -1.84401e-10 -2.08618e-09)
(-6.56787e-10 1.46974e-09 -4.14558e-09)
(2.78792e-09 -1.55729e-10 -8.41154e-09)
(-4.69743e-10 -7.00897e-11 -2.73191e-09)
(-4.42084e-10 2.05627e-10 -9.31817e-10)
(-6.36873e-10 1.30846e-10 -2.16939e-09)
(2.42012e-09 -1.73467e-10 -6.7289e-09)
(-3.72013e-10 -1.77465e-10 -2.10646e-09)
(-1.02634e-09 -6.52852e-10 -9.139e-10)
(1.08345e-07 -4.57186e-08 4.48462e-08)
(6.00589e-08 -2.18271e-08 2.14148e-08)
(2.07446e-07 -9.16912e-08 3.41486e-08)
(5.7607e-08 -2.07119e-08 1.3488e-08)
(1.50681e-07 -6.35714e-08 2.41107e-08)
(1.47237e-07 -6.39687e-08 4.2483e-08)
(4.6926e-08 -1.73493e-08 1.77905e-08)
(1.04374e-08 -5.95473e-09 9.85843e-09)
(1.61468e-08 -9.11227e-09 1.03527e-08)
(7.67249e-08 -3.34672e-08 3.69427e-08)
(1.34994e-07 -7.03915e-08 4.41855e-08)
(2.13443e-07 -1.05064e-07 2.90795e-08)
(1.55042e-07 -7.72185e-08 3.58574e-08)
(2.42888e-08 -1.28015e-08 5.71565e-09)
(1.90312e-08 -1.03463e-08 9.83648e-09)
(-1.18834e-08 2.21196e-09 9.30644e-09)
(-2.29227e-08 -2.96062e-09 2.49418e-08)
(-8.36996e-09 1.21687e-10 1.21966e-08)
(-1.04655e-09 7.95656e-10 4.86087e-09)
(-3.37304e-09 -1.3439e-10 1.06623e-08)
(-4.91275e-09 4.78786e-10 9.89616e-09)
(-1.98483e-08 -2.57017e-09 2.29913e-08)
(-5.04191e-09 -4.63383e-10 1.26315e-08)
(-7.29244e-09 -8.62813e-11 1.25264e-08)
(-7.48629e-09 -3.88727e-10 8.4639e-09)
(-7.61927e-09 -4.33917e-10 8.59372e-09)
(-3.44422e-11 4.40838e-11 6.84699e-09)
(-3.02171e-09 -2.21246e-10 1.06547e-08)
(-2.21226e-09 -2.37889e-10 1.03774e-08)
(-3.00202e-09 -2.31605e-10 1.13675e-08)
(-1.0284e-08 -6.09638e-10 1.52578e-08)
(-3.33199e-09 -2.95271e-10 1.16808e-08)
(-4.55728e-09 -5.08025e-10 1.24825e-08)
(-1.08141e-08 -7.54925e-10 1.5672e-08)
(-3.3989e-09 -3.69674e-10 1.17374e-08)
(1.00299e-11 4.45889e-11 3.63109e-09)
(5.61506e-10 8.64612e-11 2.12389e-09)
(6.81891e-10 3.75291e-11 2.46679e-09)
(6.33157e-10 -1.46311e-12 2.07353e-09)
(6.09269e-10 2.38628e-11 2.00648e-09)
(4.92648e-10 6.37513e-11 1.68785e-09)
(5.99643e-10 2.86726e-11 1.97999e-09)
(-2.92457e-09 -2.1556e-10 1.12536e-08)
(-8.88146e-09 -9.41074e-11 1.37994e-08)
(-2.80591e-09 -8.11387e-11 1.10122e-08)
(1.4853e-10 -7.25496e-11 6.78604e-09)
(-1.6707e-09 -1.35596e-10 9.82169e-09)
(-1.70683e-09 -5.91306e-11 9.82815e-09)
(-8.83964e-09 -5.26611e-11 1.37834e-08)
(-2.76224e-09 -1.91311e-10 1.10643e-08)
(-2.80396e-09 -4.93806e-11 1.10257e-08)
(-7.37948e-09 -5.54291e-09 7.57006e-09)
(-7.15503e-09 -3.46634e-09 7.68015e-09)
(4.68896e-10 1.77245e-09 6.21839e-09)
(-1.54825e-09 -2.15851e-10 9.83362e-09)
(8.49856e-10 -5.17605e-10 1.00689e-08)
(4.18568e-08 -1.56717e-08 1.59426e-08)
(-9.22729e-09 -1.47447e-08 1.48958e-08)
(3.34497e-09 -4.47783e-09 1.17618e-08)
(-2.64265e-09 -3.64765e-10 1.10923e-08)
(-9.25332e-09 -6.52085e-09 1.46014e-08)
(1.08761e-11 -2.45202e-09 1.1491e-08)
(3.3536e-11 1.14265e-09 3.28061e-09)
(5.21616e-10 -5.69272e-11 2.12718e-09)
(1.83381e-10 1.09413e-10 1.67707e-09)
(-3.5385e-09 4.21041e-09 6.65426e-10)
(1.04982e-10 7.18541e-11 1.18323e-09)
(4.47401e-10 -4.83612e-11 1.66255e-09)
(1.85594e-10 1.89132e-11 1.25381e-09)
(-0.00302207 0.000117059 -0.00188408)
(-0.00142202 0.000283208 -0.00230055)
(-0.00118431 0.000156235 -0.00110786)
(6.17691e-08 -3.41459e-08 2.23412e-08)
(-2.05035e-06 -3.04798e-06 2.72106e-08)
(-8.14937e-07 -2.24443e-07 6.23704e-07)
(8.35872e-08 2.58416e-06 -2.75952e-07)
(-0.000651964 6.87485e-05 0.000244542)
(-4.79935e-06 9.19045e-06 -5.76362e-05)
(-0.000683751 0.000127611 -0.000549056)
(-2.01327e-06 -3.3552e-06 6.65528e-08)
(-0.00296442 0.000134387 -0.0012693)
(-0.00108951 0.000103998 0.000322956)
(-0.0011257 0.000138579 -0.000738555)
(-0.00119973 0.000298624 -0.0020256)
(-3.89694e-06 -1.10392e-05 -3.5339e-06)
(-1.48096e-05 1.23441e-05 -8.69242e-05)
(-0.000737691 0.000155216 -0.000826824)
(-3.25266e-06 -5.8899e-06 -3.13187e-08)
(-0.00146383 0.000376254 -0.00244919)
(-0.00123966 0.000394976 -0.00216536)
(-0.00303025 0.000198779 -0.00186668)
(-0.00140041 0.000377093 -0.0022932)
(-0.00116213 0.000251786 -0.00111703)
(-0.000640794 4.14834e-05 0.000225222)
(1.72926e-06 5.05669e-05 -7.22483e-05)
(-0.000665156 0.000196524 -0.000576644)
(-0.00297449 0.000191078 -0.00126317)
(-0.00107754 7.78869e-05 0.000297013)
(-0.00110635 0.000205192 -0.000752846)
(-0.00117557 0.000396189 -0.00202409)
(-9.9786e-06 7.27597e-05 -0.000107046)
(-0.000716654 0.00025323 -0.000856191)
(-0.00719684 -0.000209909 -0.0062876)
(-0.00772858 -0.000248761 -0.00651079)
(-0.00379611 9.36891e-05 -0.00212552)
(-0.00714294 -0.000198289 -0.00593849)
(-0.0065741 1.32486e-05 -0.00280095)
(-0.0075611 0.000316312 0.000805689)
(-0.0112085 3.563e-05 -0.00244417)
(-0.00759431 6.8454e-05 -0.00204393)
(-0.00373993 0.000123872 -0.00143527)
(-0.00648761 0.000292401 0.00075336)
(-0.0065226 8.25744e-05 -0.00189991)
(-0.00767481 -0.000234411 -0.00614987)
(-0.011254 -8.52441e-05 -0.003593)
(-0.00764428 -1.38951e-05 -0.00301038)
(-0.0072224 -0.000157294 -0.00626286)
(-0.00775705 -0.000197052 -0.00648624)
(-0.00381859 0.00017275 -0.00210414)
(-0.00718074 -0.000123835 -0.00590483)
(-0.00664227 8.4705e-05 -0.00277558)
(-0.00763867 0.000298262 0.000781028)
(-0.0113412 7.83979e-05 -0.00243872)
(-0.00768026 0.000116282 -0.00203148)
(-0.00376421 0.000178712 -0.00142566)
(-0.00655164 0.000273739 0.000729453)
(-0.00659286 0.000132117 -0.00188674)
(-0.00771691 -0.000161241 -0.00611647)
(-0.0113837 -2.35286e-05 -0.00357543)
(-0.00772794 5.5096e-05 -0.00298573)
(-0.0034614 0.000224326 0.00345607)
(-0.00131627 -3.72857e-05 0.00191969)
(-0.000670238 -4.01976e-07 0.000505147)
(-2.81938e-05 -4.99076e-05 8.1834e-05)
(-0.00102546 -4.72687e-05 0.00151286)
(-0.00339701 0.000226511 0.00311202)
(-0.00110853 4.29474e-05 0.000662183)
(-0.00125019 -1.87945e-05 0.00172122)
(-3.73793e-05 -6.53548e-05 9.1893e-05)
(-0.00109035 -6.6937e-05 0.00168971)
(-0.00382869 0.000350116 0.00371423)
(-0.00704706 0.000634087 0.00508378)
(-0.00757974 0.000401562 0.00179997)
(-0.0117358 0.000900934 0.00581311)
(-0.00753189 0.000623904 0.00473687)
(-0.00376992 0.00032279 0.00333701)
(-0.00650787 0.000364517 0.00167856)
(-0.006998 0.000585722 0.00457193)
(-0.0117738 0.000974851 0.006462)
(-0.00757956 0.00067543 0.00526686)
(-0.00384853 0.000265223 0.00366378)
(-0.00709437 0.000557974 0.00503054)
(-0.0076646 0.000364971 0.00176343)
(-0.0118002 0.00085557 0.00577036)
(-0.00757229 0.000572441 0.00469752)
(-0.00378481 0.000264331 0.00329971)
(-0.00657814 0.000326659 0.00164289)
(-0.00703503 0.000533388 0.00453287)
(-0.0118555 0.00090887 0.006404)
(-0.00763109 0.00060058 0.00521323)
(2.3258e-08 -2.07615e-09 3.32985e-09)
(8.23397e-09 -5.44289e-10 2.42884e-09)
(6.75337e-08 -3.08648e-08 3.0649e-08)
(2.81641e-08 -1.25437e-08 2.47096e-08)
(2.39209e-08 -6.3194e-09 5.83638e-09)
(4.77475e-09 -1.82519e-09 1.12072e-08)
(-4.35265e-09 3.70484e-09 1.80218e-08)
(-2.37847e-09 1.23333e-09 6.90362e-09)