/*--------------------------------*- C++ -*----------------------------------*\
| =========                 |                                                 |
| \\      /  F ield         | OpenFOAM: The Open Source CFD Toolbox           |
|  \\    /   O peration     | Version:  2012                                  |
|   \\  /    A nd           | Website:  www.openfoam.com                      |
|    \\/     M anipulation  |                                                 |
\*---------------------------------------------------------------------------*/
FoamFile
{
    version     2.0;
    format      ascii;
    class       volVectorField;
    location    "0.104/solid";
    object      D;
}
// * * * * * * * * * * * * * * * * * * * * * * * * * * * * * * * * * * * * * //

dimensions      [0 1 0 0 0 0 0];


internalField   nonuniform List<vector> 
3125
(
(1.79969e-10 2.40346e-10 -2.43626e-12)
(1.75163e-10 2.37408e-10 -3.91108e-12)
(1.67528e-10 2.27856e-10 -3.6467e-12)
(1.66699e-10 2.26696e-10 -3.58226e-12)
(1.5944e-10 2.17557e-10 -4.87616e-12)
(1.57686e-10 2.15669e-10 -4.90589e-12)
(1.41135e-10 1.93755e-10 2.66977e-11)
(1.39855e-10 1.85345e-10 4.57891e-11)
(1.71659e-10 2.32728e-10 -4.24861e-12)
(1.69993e-10 2.31224e-10 -4.09182e-12)
(1.64417e-10 2.2336e-10 -3.93145e-12)
(1.63398e-10 2.22088e-10 -4.1444e-12)
(1.50801e-10 2.08455e-10 -2.30178e-12)
(1.48125e-10 2.05521e-10 7.87627e-13)
(1.82559e-10 2.42236e-10 1.60025e-12)
(2.87868e-10 1.48815e-10 1.93365e-13)
(2.61471e-10 9.83283e-10 -5.10512e-12)
(2.62109e-10 4.3545e-10 -3.28693e-12)
(2.89452e-10 1.49386e-10 1.0826e-12)
(2.56792e-10 4.24612e-10 -5.12705e-12)
(2.81519e-10 1.48913e-10 -1.97513e-12)
(2.56828e-10 9.7266e-10 -6.92088e-12)
(1.73482e-10 2.35328e-10 -4.11327e-12)
(2.51321e-10 9.63052e-10 -5.24275e-12)
(2.56502e-10 4.38117e-10 -3.82451e-12)
(2.7998e-10 1.46995e-10 -3.9794e-12)
(2.52275e-10 4.11369e-10 -6.11232e-12)
(1.68398e-10 2.28939e-10 -3.64565e-12)
(2.74625e-10 1.4076e-10 -3.12663e-12)
(2.50012e-10 4.07998e-10 -6.04278e-12)
(2.75627e-10 1.41482e-10 -3.20808e-12)
(2.48975e-10 4.02772e-10 -6.04916e-12)
(2.73579e-10 1.39971e-10 -3.04986e-12)
(1.66036e-10 2.25587e-10 -3.60861e-12)
(2.49708e-10 4.075e-10 -5.89084e-12)
(2.72781e-10 1.3911e-10 -3.20513e-12)
(2.43832e-10 3.91415e-10 -7.32007e-12)
(1.60969e-10 2.19225e-10 -4.63245e-12)
(2.65525e-10 1.33244e-10 -4.19772e-12)
(2.40559e-10 3.84956e-10 -7.34465e-12)
(2.67178e-10 1.3444e-10 -3.96631e-12)
(2.36304e-10 3.75083e-10 -4.50269e-12)
(2.63694e-10 1.31851e-10 -4.10243e-12)
(1.5566e-10 2.13528e-10 -4.70672e-12)
(2.4001e-10 3.83992e-10 -7.11036e-12)
(2.61571e-10 1.30315e-10 -3.87039e-12)
(2.37235e-10 3.3585e-10 4.99763e-11)
(1.43062e-10 1.98699e-10 1.42726e-11)
(2.47778e-10 1.15095e-10 3.56658e-11)
(2.57592e-10 2.96842e-10 1.47153e-10)
(2.50096e-10 1.18824e-10 1.82795e-11)
(3.37933e-10 1.45769e-10 4.69075e-10)
(2.44637e-10 1.08716e-10 6.66593e-11)
(1.4062e-10 1.66567e-10 7.47577e-11)
(2.62967e-10 2.87799e-10 1.70601e-10)
(2.41156e-10 9.6103e-11 1.23518e-10)
(1.91034e-10 4.2143e-11 1.33965e-13)
(2.40832e-10 1.26835e-09 -3.30487e-12)
(1.8972e-10 4.24121e-11 -2.73951e-13)
(1.88416e-10 4.14634e-11 -2.3651e-12)
(2.36492e-10 1.25199e-09 -3.56269e-12)
(2.31701e-10 1.24382e-09 -3.7127e-12)
(2.58316e-10 4.22263e-10 -5.40967e-12)
(1.73091e-10 2.34079e-10 -4.13344e-12)
(2.79156e-10 1.44257e-10 -3.45942e-12)
(2.54075e-10 4.18642e-10 -7.07557e-12)
(2.80521e-10 1.45109e-10 -3.94894e-12)
(2.25458e-10 1.23371e-09 -7.20443e-12)
(2.30638e-10 1.24558e-09 -5.21306e-12)
(1.8753e-10 4.04937e-11 -1.71924e-12)
(1.88247e-10 4.09854e-11 -1.99439e-12)
(2.52293e-10 4.1207e-10 -6.22504e-12)
(1.69071e-10 2.2997e-10 -3.85324e-12)
(2.77116e-10 1.43499e-10 -3.36041e-12)
(2.52939e-10 4.18496e-10 -6.87223e-12)
(2.7618e-10 1.42428e-10 -3.5251e-12)
(1.85318e-10 3.91982e-11 -1.61246e-12)
(1.85934e-10 3.95831e-11 -1.47513e-12)
(2.17603e-10 1.21189e-09 -6.33257e-12)
(2.2019e-10 1.22024e-09 -6.38413e-12)
(2.23953e-10 1.22837e-09 -7.12813e-12)
(2.21073e-10 1.22149e-09 -6.10237e-12)
(1.86987e-10 4.03902e-11 -1.4181e-12)
(1.86202e-10 3.98001e-11 -1.86538e-12)
(1.84985e-10 3.9057e-11 -1.3052e-12)
(1.84274e-10 3.85897e-11 -1.68721e-12)
(2.16913e-10 1.20876e-09 -6.41455e-12)
(2.15004e-10 1.20153e-09 -6.08156e-12)
(2.48794e-10 4.0224e-10 -6.01822e-12)
(1.6532e-10 2.24513e-10 -3.67524e-12)
(2.70927e-10 1.37481e-10 -3.41681e-12)
(2.46749e-10 3.98201e-10 -6.68422e-12)
(2.71975e-10 1.38287e-10 -3.16404e-12)
(2.11563e-10 1.19109e-09 -6.68971e-12)
(2.1424e-10 1.19939e-09 -6.40323e-12)
(1.83194e-10 3.79864e-11 -1.81225e-12)
(1.8396e-10 3.84209e-11 -1.38864e-12)
(2.44237e-10 3.9218e-10 -7.35594e-12)
(1.62268e-10 2.20717e-10 -4.42549e-12)
(2.6979e-10 1.36557e-10 -3.55059e-12)
(2.4643e-10 3.97588e-10 -6.66385e-12)
(2.68553e-10 1.35547e-10 -3.87155e-12)
(1.8008e-10 3.63826e-11 -2.23162e-12)
(1.81366e-10 3.7027e-11 -1.80751e-12)
(2.00603e-10 1.16331e-09 -6.55985e-12)
(2.05569e-10 1.17527e-09 -7.24198e-12)
(2.10544e-10 1.1881e-09 -7.00152e-12)
(2.06994e-10 1.17859e-09 -7.03159e-12)
(1.82796e-10 3.78031e-11 -1.56549e-12)
(1.81846e-10 3.72517e-11 -2.05845e-12)
(1.79436e-10 3.61096e-11 -1.9403e-12)
(1.77769e-10 3.53334e-11 -2.02077e-12)
(1.98663e-10 1.15887e-09 -6.28853e-12)
(2.35734e-10 3.73721e-10 -3.63877e-12)
(1.53368e-10 2.11126e-10 -3.91509e-12)
(2.56775e-10 1.26592e-10 -1.18261e-12)
(2.32878e-10 3.61139e-10 6.85962e-12)
(2.59316e-10 1.28529e-10 -2.91875e-12)
(1.74875e-10 3.41815e-11 -4.58146e-13)
(1.76973e-10 3.50135e-11 -1.51983e-12)
(2.35856e-10 3.39451e-10 4.2165e-11)
(1.45427e-10 2.02353e-10 5.97952e-12)
(2.54397e-10 1.24305e-10 2.23188e-12)
(2.32713e-10 3.59076e-10 9.55306e-12)
(2.51949e-10 1.2188e-10 8.11491e-12)
(1.6842e-10 3.31931e-11 2.18797e-11)
(1.70761e-10 3.30399e-11 7.81098e-12)
(1.73919e-10 3.38583e-11 6.64238e-13)
(1.71711e-10 3.32206e-11 4.95635e-12)
(1.66977e-10 3.34416e-11 3.05318e-11)
(1.58466e-10 3.4061e-11 8.87722e-11)
(3.59754e-10 1.07255e-10 5.37669e-10)
(1.42531e-10 2.7754e-11 1.09188e-10)
(1.57793e-10 3.06012e-11 1.28017e-10)
(3.57156e-10 9.31535e-11 4.37465e-10)
(6.64767e-11 -1.08879e-11 1.17024e-10)
(4.31176e-10 5.69781e-10 2.96118e-12)
(2.81013e-10 4.25498e-10 4.66656e-12)
(5.07185e-10 3.44785e-10 2.69366e-12)
(3.43901e-10 8.0364e-10 5.66458e-12)
(4.28584e-10 5.69358e-10 8.5484e-13)
(2.75484e-10 4.29657e-10 1.72818e-12)
(4.95341e-10 3.49602e-10 3.38632e-13)
(3.30883e-10 8.0033e-10 -3.07353e-13)
(4.21416e-10 5.67531e-10 -4.69666e-13)
(5.03987e-10 3.46864e-10 4.39534e-12)
(3.38735e-10 8.03529e-10 1.25847e-12)
(4.09522e-10 5.59309e-10 -7.01607e-12)
(3.20706e-10 7.83666e-10 -5.99192e-12)
(2.52735e-10 4.32392e-10 -4.14091e-12)
(4.83525e-10 3.43064e-10 -8.7102e-12)
(4.81002e-10 3.47547e-10 -5.60126e-12)
(3.19412e-10 7.86486e-10 -7.08278e-12)
(4.10546e-10 5.56293e-10 -7.01705e-12)
(4.10299e-10 5.61758e-10 -5.0197e-12)
(2.50954e-10 4.36008e-10 -4.23827e-12)
(4.86598e-10 3.51714e-10 2.68881e-13)
(3.23262e-10 7.9592e-10 -4.26753e-12)
(4.1499e-10 5.65261e-10 -3.04089e-12)
(4.81055e-10 3.50676e-10 -5.80158e-12)
(3.19345e-10 7.90711e-10 -4.60529e-12)
(4.01849e-10 5.42044e-10 -5.8039e-12)
(3.13445e-10 7.66048e-10 -7.5558e-12)
(2.51361e-10 4.09889e-10 -6.23736e-12)
(4.77047e-10 3.32271e-10 -4.77534e-12)
(4.02816e-10 5.43386e-10 -6.67214e-12)
(4.76074e-10 3.31409e-10 -6.66071e-12)
(3.12655e-10 7.64388e-10 -5.99472e-12)
(4.00986e-10 5.41165e-10 -6.39685e-12)
(2.50742e-10 4.09747e-10 -6.08617e-12)
(4.74263e-10 3.29826e-10 -6.73024e-12)
(3.10955e-10 7.61093e-10 -5.90985e-12)
(4.00132e-10 5.39582e-10 -5.76441e-12)
(4.75011e-10 3.31002e-10 -4.47866e-12)
(3.11714e-10 7.62927e-10 -7.35937e-12)
(3.97764e-10 5.35854e-10 -6.46848e-12)
(3.08779e-10 7.53813e-10 -5.89e-12)
(2.48942e-10 4.05014e-10 -5.80316e-12)
(4.71468e-10 3.25842e-10 -6.98948e-12)
(4.71533e-10 3.27348e-10 -4.69252e-12)
(3.09117e-10 7.55435e-10 -7.3122e-12)
(3.97376e-10 5.3429e-10 -5.88895e-12)
(3.98301e-10 5.36867e-10 -5.76082e-12)
(2.49001e-10 4.05698e-10 -5.9253e-12)
(4.73269e-10 3.29171e-10 -4.2675e-12)
(3.10233e-10 7.59234e-10 -7.40512e-12)
(3.99323e-10 5.38493e-10 -6.32776e-12)
(4.72096e-10 3.28166e-10 -6.63245e-12)
(3.09552e-10 7.57089e-10 -5.9348e-12)
(3.87158e-10 5.1964e-10 -7.36847e-12)
(3.00969e-10 7.3655e-10 -8.81292e-12)
(2.42318e-10 3.8895e-10 -7.57379e-12)
(4.62959e-10 3.16645e-10 -5.83466e-12)
(3.88829e-10 5.21783e-10 -7.84371e-12)
(4.61259e-10 3.15235e-10 -8.11655e-12)
(2.99609e-10 7.33856e-10 -7.49952e-12)
(3.85821e-10 5.18195e-10 -8.09411e-12)
(2.41649e-10 3.88298e-10 -7.43853e-12)
(4.58713e-10 3.12146e-10 -8.47362e-12)
(2.96934e-10 7.28604e-10 -7.37101e-12)
(3.84387e-10 5.15673e-10 -7.53855e-12)
(4.59808e-10 3.14247e-10 -6.21234e-12)
(2.98241e-10 7.31447e-10 -8.85642e-12)
(3.79169e-10 5.09238e-10 -7.30651e-12)
(2.90409e-10 7.15234e-10 -4.96008e-12)
(2.37476e-10 3.79608e-10 -6.05998e-12)
(4.51996e-10 3.04859e-10 -6.87318e-12)
(4.53407e-10 3.07572e-10 -5.39197e-12)
(2.92052e-10 7.19051e-10 -7.38799e-12)
(3.77307e-10 5.05938e-10 -5.97058e-12)
(3.80873e-10 5.1116e-10 -7.08209e-12)
(2.38294e-10 3.80523e-10 -6.55539e-12)
(4.57254e-10 3.10867e-10 -5.92465e-12)
(2.95476e-10 7.25835e-10 -8.57339e-12)
(3.82954e-10 5.13983e-10 -7.96003e-12)
(4.55203e-10 3.08922e-10 -7.76943e-12)
(2.93768e-10 7.22293e-10 -6.75713e-12)
(3.61131e-10 4.63374e-10 5.20504e-11)
(2.78713e-10 6.63363e-10 4.9828e-11)
(2.43925e-10 3.21992e-10 8.02826e-11)
(4.4066e-10 2.7679e-10 3.87661e-11)
(3.61809e-10 4.7108e-10 3.57534e-11)
(4.41359e-10 2.7046e-10 5.35871e-11)
(2.79438e-10 6.52994e-10 7.02023e-11)
(3.60782e-10 4.57119e-10 6.86553e-11)
(2.45548e-10 3.17976e-10 9.36957e-11)
(4.44373e-10 2.55757e-10 1.00281e-10)
(2.83411e-10 6.25358e-10 1.26277e-10)
(3.61327e-10 4.45136e-10 9.4712e-11)
(4.41871e-10 2.65542e-10 7.44944e-11)
(2.80767e-10 6.41168e-10 9.32499e-11)
(3.69143e-10 3.83302e-10 2.19246e-10)
(3.23487e-10 4.6596e-10 3.65191e-10)
(2.9435e-10 2.29866e-10 3.05365e-10)
(4.67903e-10 1.62823e-10 3.41392e-10)
(4.57547e-10 2.05119e-10 2.502e-10)
(3.05772e-10 5.30656e-10 2.81885e-10)
(3.76925e-10 3.30586e-10 2.96013e-10)
(3.65618e-10 4.0931e-10 1.67561e-10)
(2.86317e-10 2.46342e-10 2.64206e-10)
(4.48194e-10 2.45612e-10 1.35742e-10)
(2.88327e-10 6.05026e-10 1.65145e-10)
(3.63002e-10 4.33697e-10 1.23059e-10)
(4.53558e-10 2.25636e-10 1.85623e-10)
(2.95308e-10 5.73896e-10 2.18185e-10)
(5.79752e-10 1.78167e-10 3.21428e-12)
(5.56555e-10 8.57025e-11 3.01812e-13)
(1.9223e-10 4.16081e-11 6.26575e-13)
(5.63325e-10 8.21161e-11 2.71702e-12)
(5.64311e-10 1.85538e-10 -3.64286e-13)
(5.77913e-10 1.7929e-10 4.01349e-12)
(1.92745e-10 4.15842e-11 8.02195e-13)
(5.66301e-10 8.05279e-11 2.05399e-12)
(1.45858e-10 1.02419e-09 5.19816e-12)
(2.46525e-10 1.28716e-09 -1.76719e-12)
(1.79603e-10 1.10981e-09 -2.18059e-12)
(1.87818e-10 1.12541e-09 1.99001e-12)
(2.51702e-10 1.30026e-09 2.59124e-12)
(1.90411e-10 1.12742e-09 3.51609e-12)
(1.34996e-10 1.01367e-09 -6.81575e-13)
(1.43112e-10 1.0243e-09 2.61937e-12)
(5.55259e-10 1.80439e-10 -7.42062e-12)
(5.50297e-10 1.87041e-10 -4.84364e-12)
(5.48254e-10 8.92549e-11 1.03116e-13)
(1.88808e-10 4.24772e-11 -1.62425e-12)
(5.43537e-10 9.0604e-11 -4.21257e-12)
(5.59288e-10 1.87327e-10 2.52965e-13)
(5.50176e-10 1.88519e-10 -5.74774e-12)
(5.45997e-10 8.50348e-11 -6.2538e-12)
(1.88265e-10 4.2061e-11 -1.83046e-12)
(5.43513e-10 8.83531e-11 -3.8933e-12)
(1.30334e-10 9.93671e-10 -4.88977e-12)
(1.30112e-10 9.96495e-10 -4.86373e-12)
(2.33825e-10 1.24269e-09 -2.86662e-12)
(1.77338e-10 1.10494e-09 -2.88992e-12)
(1.74154e-10 1.09283e-09 -4.04857e-12)
(1.737e-10 1.08981e-09 -5.39923e-12)
(2.32557e-10 1.24158e-09 -2.95651e-12)
(1.73964e-10 1.09114e-09 -4.35737e-12)
(1.32693e-10 1.00995e-09 -2.67018e-12)
(1.30018e-10 9.9879e-10 -3.35755e-12)
(4.10976e-10 5.53373e-10 -6.49044e-12)
(3.2186e-10 7.82069e-10 -7.75117e-12)
(2.58495e-10 4.19106e-10 -6.77211e-12)
(4.85549e-10 3.40532e-10 -6.02724e-12)
(4.11422e-10 5.55128e-10 -7.62475e-12)
(3.21427e-10 7.80196e-10 -6.34485e-12)
(4.85683e-10 3.38707e-10 -7.33194e-12)
(4.09549e-10 5.52457e-10 -6.97925e-12)
(2.56887e-10 4.19645e-10 -6.8932e-12)
(3.17492e-10 7.76331e-10 -6.62187e-12)
(4.81604e-10 3.37917e-10 -6.99074e-12)
(3.19531e-10 7.78703e-10 -7.92042e-12)
(4.83891e-10 3.38654e-10 -4.79153e-12)
(4.0745e-10 5.50628e-10 -6.29946e-12)
(1.30337e-10 9.93383e-10 -6.22153e-12)
(1.29301e-10 9.90195e-10 -6.05834e-12)
(2.27384e-10 1.23947e-09 -7.22503e-12)
(1.68953e-10 1.07938e-09 -7.26839e-12)
(1.71323e-10 1.08562e-09 -6.87197e-12)
(1.73536e-10 1.0898e-09 -5.66357e-12)
(2.29255e-10 1.24407e-09 -6.38615e-12)
(1.72169e-10 1.08688e-09 -6.85333e-12)
(1.26349e-10 9.84251e-10 -6.37808e-12)
(1.28479e-10 9.8943e-10 -7.10759e-12)
(5.56446e-10 1.79012e-10 -5.68658e-12)
(5.57135e-10 1.76853e-10 -6.30818e-12)
(5.44729e-10 8.17525e-11 -4.87159e-12)
(1.87918e-10 4.05412e-11 -1.54293e-12)
(5.46349e-10 8.16794e-11 -3.43565e-12)
(5.52557e-10 1.76924e-10 -6.14306e-12)
(5.56017e-10 1.77011e-10 -4.57112e-12)
(5.47744e-10 8.24723e-11 -4.40999e-12)
(1.88341e-10 4.06954e-11 -1.9036e-12)
(5.48271e-10 8.14549e-11 -5.29688e-12)
(4.03317e-10 5.45956e-10 -7.11203e-12)
(2.51672e-10 4.15165e-10 -6.25553e-12)
(3.13813e-10 7.67282e-10 -6.22597e-12)
(4.77207e-10 3.3318e-10 -7.55181e-12)
(4.0316e-10 5.44223e-10 -6.3091e-12)
(3.13928e-10 7.68983e-10 -7.92671e-12)
(4.76796e-10 3.35162e-10 -5.40822e-12)
(4.03912e-10 5.47199e-10 -6.44151e-12)
(2.51417e-10 4.16393e-10 -6.50771e-12)
(3.15601e-10 7.73797e-10 -8.21197e-12)
(4.79217e-10 3.37552e-10 -4.62902e-12)
(4.05614e-10 5.49227e-10 -6.91765e-12)
(3.14324e-10 7.71038e-10 -6.67542e-12)
(4.77255e-10 3.36415e-10 -7.3253e-12)
(5.48598e-10 1.7298e-10 -4.61136e-12)
(5.47033e-10 1.72526e-10 -5.80648e-12)
(5.37777e-10 7.84407e-11 -4.63516e-12)
(1.85517e-10 3.93288e-11 -1.36503e-12)
(5.38156e-10 7.90313e-11 -3.06374e-12)
(5.45447e-10 1.71231e-10 -5.77961e-12)
(5.4639e-10 1.72449e-10 -4.17256e-12)
(5.40184e-10 7.91854e-11 -3.33376e-12)
(1.85812e-10 3.94648e-11 -1.61934e-12)
(5.39306e-10 7.91622e-11 -4.6851e-12)
(1.24037e-10 9.73093e-10 -6.87447e-12)
(1.23364e-10 9.69863e-10 -5.85437e-12)
(2.185e-10 1.21502e-09 -6.52404e-12)
(1.63621e-10 1.05974e-09 -6.49335e-12)
(1.64621e-10 1.06363e-09 -6.43733e-12)
(1.65863e-10 1.06796e-09 -6.47556e-12)
(2.19385e-10 1.21794e-09 -6.40493e-12)
(1.64999e-10 1.06464e-09 -6.60321e-12)
(1.22206e-10 9.65639e-10 -5.6889e-12)
(1.23035e-10 9.69059e-10 -6.731e-12)
(1.24303e-10 9.73636e-10 -5.9077e-12)
(1.24958e-10 9.76008e-10 -7.09338e-12)
(1.68335e-10 1.07751e-09 -7.16604e-12)
(2.22857e-10 1.22442e-09 -6.54793e-12)
(1.67295e-10 1.07185e-09 -6.9226e-12)
(1.25815e-10 9.82623e-10 -7.4057e-12)
(1.25108e-10 9.77118e-10 -6.19796e-12)
(1.66184e-10 1.06854e-09 -6.59296e-12)
(2.21962e-10 1.22255e-09 -6.30336e-12)
(1.67045e-10 1.07083e-09 -6.71757e-12)
(5.48693e-10 1.73439e-10 -6.42989e-12)
(5.47524e-10 1.76228e-10 -4.95408e-12)
(5.42279e-10 8.20786e-11 -3.21071e-12)
(1.86625e-10 4.02969e-11 -1.82123e-12)
(5.40346e-10 8.23428e-11 -5.14547e-12)
(5.51139e-10 1.7702e-10 -4.44761e-12)
(5.47788e-10 1.76785e-10 -6.521e-12)
(5.40443e-10 8.00118e-11 -5.24322e-12)
(1.86265e-10 4.00684e-11 -1.6202e-12)
(5.39779e-10 8.14636e-11 -3.66678e-12)
(5.42647e-10 1.68395e-10 -6.00104e-12)
(5.42393e-10 1.70351e-10 -4.29582e-12)
(5.36655e-10 7.81989e-11 -2.93345e-12)
(1.84736e-10 3.89541e-11 -1.60318e-12)
(5.35385e-10 7.82989e-11 -4.6262e-12)
(5.44835e-10 1.71049e-10 -4.07653e-12)
(5.42755e-10 1.70677e-10 -5.82933e-12)
(5.34853e-10 7.67707e-11 -4.82017e-12)
(1.84409e-10 3.87826e-11 -1.41458e-12)
(5.34672e-10 7.77832e-11 -3.1743e-12)
(1.21109e-10 9.56875e-10 -5.6867e-12)
(1.21733e-10 9.59467e-10 -6.57737e-12)
(2.16365e-10 1.2058e-09 -6.16197e-12)
(1.63382e-10 1.05856e-09 -6.38542e-12)
(1.62967e-10 1.05426e-09 -6.39314e-12)
(1.61992e-10 1.0505e-09 -6.41862e-12)
(2.1575e-10 1.20354e-09 -6.16668e-12)
(1.62777e-10 1.05333e-09 -6.2546e-12)
(1.22033e-10 9.64566e-10 -6.67828e-12)
(1.21869e-10 9.60364e-10 -5.64562e-12)
(3.95697e-10 5.31944e-10 -5.96903e-12)
(3.08209e-10 7.52408e-10 -7.45099e-12)
(2.47763e-10 4.0075e-10 -6.38742e-12)
(4.70877e-10 3.25134e-10 -4.51412e-12)
(3.96793e-10 5.33391e-10 -6.47598e-12)
(3.07359e-10 7.50562e-10 -6.1731e-12)
(4.69679e-10 3.24271e-10 -6.80522e-12)
(3.94859e-10 5.30971e-10 -6.78867e-12)
(2.47319e-10 4.00376e-10 -6.33899e-12)
(3.05783e-10 7.47054e-10 -6.52234e-12)
(4.68128e-10 3.2223e-10 -7.41353e-12)
(3.06515e-10 7.48954e-10 -7.73649e-12)
(4.68708e-10 3.2367e-10 -4.94015e-12)
(3.94046e-10 5.29258e-10 -6.41307e-12)
(1.20873e-10 9.56159e-10 -6.73658e-12)
(1.20301e-10 9.52531e-10 -6.00771e-12)
(2.12601e-10 1.19393e-09 -6.68172e-12)
(1.59411e-10 1.04117e-09 -7.03928e-12)
(1.60572e-10 1.0449e-09 -6.67852e-12)
(1.61704e-10 1.04969e-09 -6.38645e-12)
(2.13494e-10 1.1967e-09 -6.46147e-12)
(1.60929e-10 1.04592e-09 -6.7416e-12)
(1.19038e-10 9.48306e-10 -6.27372e-12)
(1.20007e-10 9.51657e-10 -6.98835e-12)
(5.42298e-10 1.68097e-10 -4.32349e-12)
(5.4027e-10 1.67781e-10 -6.01698e-12)
(5.3165e-10 7.52186e-11 -5.12641e-12)
(1.83405e-10 3.81609e-11 -1.49623e-12)
(5.31866e-10 7.60506e-11 -3.38809e-12)
(5.39101e-10 1.65922e-10 -6.44662e-12)
(5.3969e-10 1.67596e-10 -4.53389e-12)
(5.34152e-10 7.62609e-11 -3.13954e-12)
(1.83752e-10 3.83182e-11 -1.65294e-12)
(5.32944e-10 7.63543e-11 -4.77161e-12)
(3.90877e-10 5.25097e-10 -7.5888e-12)
(2.44896e-10 3.94893e-10 -7.01233e-12)
(3.02071e-10 7.38647e-10 -7.2377e-12)
(4.64073e-10 3.17621e-10 -8.17985e-12)
(3.89901e-10 5.23076e-10 -7.18895e-12)
(3.02962e-10 7.40864e-10 -8.50216e-12)
(4.64724e-10 3.1939e-10 -5.74872e-12)
(3.91846e-10 5.263e-10 -6.75159e-12)
(2.45317e-10 3.95515e-10 -7.05277e-12)
(3.0493e-10 7.45191e-10 -8.19568e-12)
(4.67168e-10 3.21431e-10 -5.11544e-12)
(3.93168e-10 5.28124e-10 -7.13079e-12)
(3.03913e-10 7.42852e-10 -6.97488e-12)
(4.65766e-10 3.20258e-10 -7.55264e-12)
(5.34303e-10 1.62251e-10 -5.5613e-12)
(5.31567e-10 1.61439e-10 -7.26864e-12)
(5.22713e-10 7.09161e-11 -6.05522e-12)
(1.80437e-10 3.66302e-11 -1.94248e-12)
(5.23365e-10 7.19824e-11 -4.42461e-12)
(5.29432e-10 1.58778e-10 -7.46875e-12)
(5.30719e-10 1.61096e-10 -5.78443e-12)
(5.26557e-10 7.26054e-11 -4.15173e-12)
(1.81019e-10 3.68671e-11 -2.09399e-12)
(5.24951e-10 7.25185e-11 -5.80459e-12)
(1.15903e-10 9.36748e-10 -7.80317e-12)
(1.1468e-10 9.31536e-10 -6.86515e-12)
(2.0247e-10 1.16744e-09 -6.99326e-12)
(1.51202e-10 1.01629e-09 -7.15922e-12)
(1.53303e-10 1.02183e-09 -7.40686e-12)
(1.55506e-10 1.02874e-09 -7.47181e-12)
(2.04118e-10 1.17138e-09 -7.09533e-12)
(1.53946e-10 1.0233e-09 -7.59461e-12)
(1.12383e-10 9.25164e-10 -6.41148e-12)
(1.14144e-10 9.3024e-10 -7.71532e-12)
(1.16362e-10 9.37847e-10 -6.78495e-12)
(1.17644e-10 9.41671e-10 -7.59214e-12)
(1.59034e-10 1.04005e-09 -7.03457e-12)
(2.09538e-10 1.18479e-09 -6.98212e-12)
(1.58023e-10 1.03534e-09 -7.36217e-12)
(1.18733e-10 9.47304e-10 -7.3486e-12)
(1.18011e-10 9.42746e-10 -6.62137e-12)
(1.56052e-10 1.02997e-09 -7.52643e-12)
(2.08365e-10 1.18169e-09 -7.1118e-12)
(1.57588e-10 1.03416e-09 -7.28388e-12)
(5.3495e-10 1.62645e-10 -7.16947e-12)
(5.35571e-10 1.64727e-10 -5.2761e-12)
(5.30588e-10 7.47553e-11 -3.57436e-12)
(1.82523e-10 3.76715e-11 -1.87925e-12)
(5.29204e-10 7.47533e-11 -5.31685e-12)
(5.38535e-10 1.65629e-10 -4.84784e-12)
(5.362e-10 1.65045e-10 -6.72482e-12)
(5.27776e-10 7.32371e-11 -5.72198e-12)
(1.82088e-10 3.74693e-11 -1.74295e-12)
(5.28044e-10 7.42533e-11 -3.98922e-12)
(5.22583e-10 1.53649e-10 -5.9573e-12)
(5.24303e-10 1.56497e-10 -5.23363e-12)
(5.21116e-10 7.01301e-11 -4.35757e-12)
(1.7897e-10 3.59055e-11 -2.14669e-12)
(5.19196e-10 6.98765e-11 -5.76109e-12)
(5.28598e-10 1.58268e-10 -5.76625e-12)
(5.25372e-10 1.56976e-10 -6.93415e-12)
(5.16205e-10 6.79691e-11 -5.22928e-12)
(1.7823e-10 3.56221e-11 -1.88375e-12)
(5.17189e-10 6.9193e-11 -4.06529e-12)
(1.07291e-10 9.0816e-10 -2.82852e-12)
(1.09468e-10 9.15088e-10 -5.77389e-12)
(1.96674e-10 1.15379e-09 -5.47699e-12)
(1.50469e-10 1.01465e-09 -6.88302e-12)
(1.48359e-10 1.00751e-09 -6.07615e-12)
(1.44843e-10 9.98173e-10 -3.59584e-12)
(1.9452e-10 1.1486e-09 -4.61838e-12)
(1.47544e-10 1.00555e-09 -5.4958e-12)
(1.11776e-10 9.23702e-10 -7.19499e-12)
(1.10148e-10 9.16867e-10 -5.33541e-12)
(3.73118e-10 4.99974e-10 -3.23791e-12)
(2.88681e-10 7.11487e-10 -4.9144e-12)
(2.34215e-10 3.68751e-10 -5.91497e-13)
(4.50343e-10 3.03083e-10 -3.47186e-12)
(3.75576e-10 5.03683e-10 -5.50873e-12)
(2.86716e-10 7.06779e-10 -1.46965e-12)
(4.48079e-10 3.00415e-10 -3.85237e-12)
(3.71126e-10 4.97422e-10 -1.94105e-12)
(2.33352e-10 3.67485e-10 9.93173e-13)
(2.83109e-10 6.97133e-10 5.17684e-12)
(4.4464e-10 2.95032e-10 8.40945e-13)
(2.84802e-10 7.02335e-10 2.4881e-15)
(4.46065e-10 2.98581e-10 4.94862e-14)
(3.69068e-10 4.93073e-10 1.68177e-12)
(1.06545e-10 9.06217e-10 -2.90883e-12)
(1.04583e-10 8.97166e-10 1.6927e-12)
(1.37184e-10 9.73734e-10 9.09009e-12)
(1.40166e-10 9.83902e-10 2.60789e-12)
(1.43893e-10 9.95999e-10 -2.62591e-12)
(1.41186e-10 9.86606e-10 8.72954e-13)
(1.01659e-10 8.84931e-10 1.00185e-11)
(1.03823e-10 8.94736e-10 2.42657e-12)
(5.21633e-10 1.52931e-10 -3.84497e-12)
(5.18163e-10 1.50985e-10 -3.1801e-12)
(5.08499e-10 6.4352e-11 -4.61304e-13)
(1.75449e-10 3.44786e-11 -7.85831e-13)
(5.09678e-10 6.57175e-11 -6.94083e-13)
(5.15223e-10 1.46848e-10 1.39326e-12)
(5.16932e-10 1.50368e-10 -7.52947e-13)
(5.14294e-10 6.69349e-11 -2.93233e-12)
(1.76383e-10 3.47793e-11 -1.42681e-12)
(5.12156e-10 6.64703e-11 -3.45176e-12)
(3.63613e-10 4.81514e-10 1.62552e-11)
(2.32924e-10 3.49398e-10 2.43093e-11)
(2.7842e-10 6.71436e-10 3.67162e-11)
(4.40133e-10 2.80955e-10 2.57306e-11)
(3.62316e-10 4.75577e-10 2.60647e-11)
(2.7901e-10 6.78975e-10 2.40032e-11)
(4.40349e-10 2.8592e-10 1.85931e-11)
(3.65238e-10 4.85035e-10 1.07967e-11)
(2.33212e-10 3.51405e-10 1.96861e-11)
(2.81657e-10 6.91919e-10 8.73903e-12)
(4.43351e-10 2.92449e-10 6.74163e-12)
(3.67433e-10 4.9002e-10 4.64731e-12)
(2.80194e-10 6.85441e-10 1.67295e-11)
(4.4171e-10 2.8861e-10 1.03768e-11)
(5.1131e-10 1.35583e-10 3.2119e-11)
(5.12786e-10 1.3023e-10 5.25186e-11)
(4.97984e-10 5.42167e-11 6.56667e-11)
(1.69068e-10 3.31018e-11 1.59437e-11)
(4.98209e-10 5.61271e-11 4.85466e-11)
(5.16994e-10 1.2045e-10 9.89322e-11)
(5.1259e-10 1.28761e-10 6.32627e-11)
(5.00716e-10 5.81846e-11 2.46025e-11)
(1.70223e-10 3.29829e-11 1.11627e-11)
(5.00311e-10 5.67819e-11 3.37621e-11)
(9.8849e-11 8.46966e-10 5.55764e-11)
(1.00759e-10 8.26454e-10 8.86687e-11)
(1.32508e-10 8.78734e-10 1.4877e-10)
(1.29977e-10 9.08613e-10 9.83673e-11)
(1.30109e-10 9.3525e-10 5.45024e-11)
(1.29871e-10 9.15358e-10 8.53618e-11)
(1.06916e-10 7.88754e-10 1.56062e-10)
(1.01723e-10 8.19657e-10 1.01451e-10)
(9.87761e-11 8.51333e-10 4.83462e-11)
(9.93119e-11 8.65947e-10 2.80709e-11)
(1.36172e-10 9.70784e-10 1.1949e-11)
(1.33675e-10 9.58059e-10 2.29561e-11)
(1.01003e-10 8.82147e-10 1.19037e-11)
(9.97287e-11 8.69566e-10 2.41186e-11)
(1.30706e-10 9.39663e-10 4.65796e-11)
(1.32794e-10 9.54326e-10 2.7791e-11)
(5.11194e-10 1.3725e-10 2.52909e-11)
(5.11017e-10 1.41922e-10 1.50038e-11)
(5.06612e-10 6.30133e-11 3.59498e-12)
(1.73291e-10 3.36408e-11 1.59628e-12)
(5.04801e-10 6.22091e-11 5.5353e-12)
(5.14434e-10 1.45805e-10 4.72351e-12)
(5.12039e-10 1.4277e-10 1.04911e-11)
(5.0165e-10 5.99445e-11 1.5522e-11)
(1.72263e-10 3.34273e-11 3.30103e-12)
(5.02319e-10 6.14798e-11 1.13136e-11)
(5.36855e-10 5.68333e-11 3.59236e-10)
(5.28055e-10 9.28567e-11 2.21355e-10)
(4.97714e-10 5.09699e-11 9.14071e-11)
(1.65616e-10 3.36518e-11 4.32284e-11)
(4.96225e-10 4.70657e-11 1.26988e-10)
(5.18719e-10 1.16551e-10 1.17153e-10)
(5.27402e-10 9.95293e-11 1.87521e-10)
(4.73976e-10 3.72246e-11 2.48277e-10)
(1.63077e-10 3.46264e-11 6.06614e-11)
(4.90063e-10 4.38101e-11 1.75894e-10)
(1.63885e-10 5.81565e-10 4.197e-10)
(1.29034e-10 6.95945e-10 2.97533e-10)
(1.33935e-10 8.67756e-10 1.69447e-10)
(1.43737e-10 8.1153e-10 2.4583e-10)
(1.80536e-10 6.76511e-10 3.79462e-10)
(1.48805e-10 7.88053e-10 2.76416e-10)
(1.09456e-10 7.77577e-10 1.77724e-10)
(1.22729e-10 7.19768e-10 2.63443e-10)
(4.38035e-10 1.75096e-10 5.09256e-10)
(3.56694e-10 3.81565e-10 4.60187e-10)
(4.58081e-10 -2.99493e-11 7.86221e-10)
(4.9121e-10 1.15785e-10 4.55597e-10)
(4.02339e-10 2.60127e-10 3.88343e-10)
(4.13606e-10 2.91428e-10 5.70703e-10)
(5.28741e-10 3.2292e-11 6.13464e-10)
(4.1251e-10 1.65102e-10 4.85866e-10)
(4.18403e-10 4.01549e-10 5.52203e-10)
(3.9442e-10 4.91952e-11 4.91695e-10)
(7.98324e-11 -4.1717e-11 1.70402e-10)
(4.88386e-10 -1.05391e-10 6.30168e-10)
(7.26978e-11 -1.93634e-11 1.36853e-10)
(4.56342e-10 1.10988e-10 5.46391e-10)
(5.16728e-10 -7.39862e-11 8.64197e-10)
(4.43834e-10 3.13247e-10 6.27808e-10)
(5.76659e-10 -9.04365e-11 7.09763e-10)
(1.81889e-10 5.35394e-10 4.65197e-10)
(2.85361e-10 3.86532e-10 6.03051e-10)
(3.54195e-10 4.67323e-10 5.53866e-10)
(1.96799e-10 6.33377e-10 4.17616e-10)
(2.95859e-10 4.89369e-10 5.25401e-10)
(3.43836e-10 3.56673e-10 6.4687e-10)
(5.40095e-10 3.92263e-11 4.23047e-10)
(5.78771e-10 -7.84878e-11 6.81699e-10)
(7.94367e-11 -4.74014e-11 1.8175e-10)
(5.14986e-10 -1.41343e-10 6.58185e-10)
(6.11926e-10 -1.46506e-10 7.57237e-10)
(4.57051e-10 1.84399e-11 3.57869e-10)
(1.47365e-10 1.56181e-12 2.06161e-10)
(4.55499e-10 -2.21808e-11 5.05859e-10)
(4.17815e-10 5.50629e-10 7.14486e-12)
(2.78805e-10 4.28965e-10 1.2261e-11)
(4.3614e-10 3.71584e-10 8.50058e-12)
(2.8416e-10 6.16513e-10 1.00357e-11)
(4.09705e-10 5.51478e-10 1.00081e-12)
(2.6738e-10 4.3328e-10 -1.85905e-12)
(4.20092e-10 3.7832e-10 -1.86209e-12)
(2.66917e-10 6.20837e-10 -9.80902e-13)
(4.042e-10 5.52101e-10 8.51501e-14)
(4.2648e-10 3.76024e-10 6.02904e-13)
(2.72016e-10 6.19798e-10 -4.27872e-13)
(3.94892e-10 5.4168e-10 -6.97474e-12)
(2.61268e-10 6.06331e-10 -5.7013e-12)
(2.55834e-10 4.26802e-10 -4.56303e-12)
(4.12447e-10 3.68667e-10 -6.92983e-12)
(4.10364e-10 3.71239e-10 -5.3591e-12)
(2.60408e-10 6.07778e-10 -5.93203e-12)
(3.96341e-10 5.39646e-10 -6.95458e-12)
(3.95611e-10 5.51479e-10 -3.15643e-12)
(2.5378e-10 4.38224e-10 -4.23278e-12)
(4.13792e-10 3.80891e-10 -1.72217e-12)
(2.61619e-10 6.21196e-10 -2.658e-12)
(3.99544e-10 5.5181e-10 -1.47898e-12)
(4.09186e-10 3.81638e-10 -4.23521e-12)
(2.59049e-10 6.19748e-10 -3.12281e-12)
(3.8939e-10 5.2568e-10 -6.30995e-12)
(2.55671e-10 5.91178e-10 -6.76464e-12)
(2.52651e-10 4.10465e-10 -6.31247e-12)
(4.06519e-10 3.57066e-10 -5.68539e-12)
(3.89489e-10 5.26202e-10 -6.72744e-12)
(4.06419e-10 3.56434e-10 -6.84706e-12)
(2.56047e-10 5.8997e-10 -6.10379e-12)
(3.21627e-10 6.14343e-10 -7.71467e-12)
(2.71953e-10 9.0793e-10 -6.74683e-12)
(3.20766e-10 6.12489e-10 -5.28794e-12)
(2.72799e-10 9.10189e-10 -7.43823e-12)
(3.22415e-10 6.15353e-10 -5.30321e-12)
(2.74444e-10 9.13961e-10 -7.43165e-12)
(3.23229e-10 6.16922e-10 -7.85382e-12)
(2.73666e-10 9.12075e-10 -6.7432e-12)
(3.87015e-10 5.22876e-10 -6.2475e-12)
(2.50751e-10 4.08316e-10 -5.86138e-12)
(4.03469e-10 3.54057e-10 -6.56617e-12)
(2.53305e-10 5.86674e-10 -5.82795e-12)
(3.86541e-10 5.22084e-10 -5.99904e-12)
(4.0389e-10 3.54606e-10 -5.32951e-12)
(2.54004e-10 5.86913e-10 -6.41505e-12)
(3.84552e-10 5.17244e-10 -6.35167e-12)
(2.52037e-10 5.80298e-10 -5.88465e-12)
(2.49512e-10 4.03193e-10 -5.75413e-12)
(4.01507e-10 3.49391e-10 -6.65395e-12)
(4.01537e-10 3.50086e-10 -5.35851e-12)
(2.52567e-10 5.80479e-10 -6.40238e-12)
(3.84364e-10 5.16454e-10 -6.11568e-12)
(3.19271e-10 6.09426e-10 -5.24264e-12)
(2.71255e-10 9.05758e-10 -7.42538e-12)
(3.20034e-10 6.11325e-10 -7.66478e-12)
(2.70651e-10 9.03369e-10 -6.65429e-12)
(3.1871e-10 6.08412e-10 -7.66571e-12)
(2.69537e-10 8.99815e-10 -6.59429e-12)
(2.7012e-10 9.0159e-10 -7.26587e-12)
(3.18133e-10 6.06789e-10 -5.29179e-12)
(3.85733e-10 5.2083e-10 -6.08438e-12)
(2.49997e-10 4.06588e-10 -6.04396e-12)
(4.02947e-10 3.53709e-10 -5.35051e-12)
(2.52924e-10 5.85927e-10 -6.46431e-12)
(3.86064e-10 5.21464e-10 -6.32836e-12)
(4.02502e-10 3.53133e-10 -6.58568e-12)
(2.53257e-10 5.84497e-10 -5.85559e-12)
(3.76385e-10 5.03172e-10 -7.60258e-12)
(2.46228e-10 5.66316e-10 -7.87062e-12)
(2.43906e-10 3.90312e-10 -7.56952e-12)
(3.94406e-10 3.39417e-10 -6.87153e-12)
(3.76886e-10 5.03996e-10 -7.82919e-12)
(3.93852e-10 3.38619e-10 -8.14362e-12)
(2.46333e-10 5.64746e-10 -7.32416e-12)
(3.72965e-10 4.98182e-10 -7.85367e-12)
(2.41363e-10 3.85887e-10 -7.20675e-12)
(3.90074e-10 3.33602e-10 -8.12033e-12)
(2.42688e-10 5.58386e-10 -7.10889e-12)
(3.7233e-10 4.96918e-10 -7.56438e-12)
(3.90522e-10 3.34743e-10 -6.93855e-12)
(2.43465e-10 5.59213e-10 -7.74621e-12)
(3.66745e-10 4.88043e-10 -5.92001e-12)
(2.37801e-10 5.46413e-10 -4.17849e-12)
(2.37045e-10 3.76494e-10 -4.92437e-12)
(3.84274e-10 3.24923e-10 -5.70177e-12)
(3.84714e-10 3.26497e-10 -5.03494e-12)
(2.38528e-10 5.47769e-10 -5.36386e-12)
(3.66033e-10 4.86373e-10 -5.13898e-12)
(3.70932e-10 4.94771e-10 -7.35239e-12)
(2.4001e-10 3.82559e-10 -7.11615e-12)
(3.89385e-10 3.32875e-10 -6.84806e-12)
(2.41953e-10 5.57234e-10 -7.61166e-12)
(3.71575e-10 4.95904e-10 -7.77788e-12)
(3.8873e-10 3.31768e-10 -7.89927e-12)
(2.41988e-10 5.55284e-10 -6.82855e-12)
(3.59085e-10 4.43256e-10 5.24943e-11)
(2.34564e-10 5.00539e-10 5.02461e-11)
(2.39883e-10 3.31112e-10 5.86939e-11)
(3.79923e-10 2.91737e-10 4.50224e-11)
(3.5783e-10 4.47229e-10 4.39453e-11)
(3.82055e-10 2.876e-10 5.22515e-11)
(2.36996e-10 4.95081e-10 5.97971e-11)
(3.64879e-10 4.17812e-10 1.13766e-10)
(2.52645e-10 3.05217e-10 1.26869e-10)
(3.95044e-10 2.59137e-10 1.34128e-10)
(2.50511e-10 4.55671e-10 1.48025e-10)
(3.67958e-10 4.10064e-10 1.32114e-10)
(3.90427e-10 2.66715e-10 1.16429e-10)
(2.46136e-10 4.64737e-10 1.27405e-10)
(4.06089e-10 2.95252e-10 3.60159e-10)
(3.18437e-10 2.8601e-10 4.51541e-10)
(3.19569e-10 1.79572e-10 4.07255e-10)
(4.59883e-10 1.28349e-10 4.40212e-10)
(4.44207e-10 1.59424e-10 3.8144e-10)
(3.01155e-10 3.2329e-10 3.94303e-10)
(4.19308e-10 2.62259e-10 4.13658e-10)
(3.75855e-10 3.90834e-10 1.77031e-10)
(2.70697e-10 2.75419e-10 1.97699e-10)
(3.99462e-10 2.52302e-10 1.56493e-10)
(2.5418e-10 4.45993e-10 1.70108e-10)
(3.71019e-10 4.01973e-10 1.52236e-10)
(4.06649e-10 2.41243e-10 1.81002e-10)
(2.61154e-10 4.32274e-10 1.9748e-10)
(4.40765e-10 2.35238e-10 1.19835e-11)
(4.2523e-10 2.40553e-10 -5.16941e-12)
(4.31408e-10 2.38269e-10 -1.91951e-12)
(1.22241e-10 6.84478e-10 1.15833e-11)
(1.08488e-10 6.87613e-10 -1.36036e-12)