/*--------------------------------*- C++ -*----------------------------------*\
| =========                 |                                                 |
| \\      /  F ield         | OpenFOAM: The Open Source CFD Toolbox           |
|  \\    /   O peration     | Version:  2012                                  |
|   \\  /    A nd           | Website:  www.openfoam.com                      |
|    \\/     M anipulation  |                                                 |
\*---------------------------------------------------------------------------*/
FoamFile
{
    version     2.0;
    format      ascii;
    class       volScalarField;
    location    "0.104/solid";
    object      epsilonEq;
}
// * * * * * * * * * * * * * * * * * * * * * * * * * * * * * * * * * * * * * //

dimensions      [0 0 0 0 0 0 0];


internalField   nonuniform List<scalar> 
3125
(
2.26301e-08
2.22317e-08
2.14879e-08
2.1389e-08
2.06404e-08
2.04775e-08
1.85596e-08
1.78553e-08
2.18924e-08
2.1745e-08
2.11234e-08
2.10182e-08
1.98415e-08
1.95777e-08
2.28255e-08
2.13803e-08
2.18967e-08
5.34084e-09
2.14611e-08
5.10412e-09
2.09952e-08
2.1496e-08
2.20473e-08
2.1469e-08
5.27467e-09
2.08352e-08
4.91554e-09
2.15763e-08
2.03663e-08
4.87051e-09
2.04445e-08
4.82308e-09
2.02775e-08
2.13013e-08
4.85963e-09
2.02045e-08
4.68965e-09
2.07819e-08
1.96276e-08
4.60007e-09
1.97532e-08
4.42455e-09
1.94845e-08
2.02915e-08
4.58076e-09
1.93212e-08
3.54575e-09
1.89715e-08
1.81165e-08
4.22543e-09
1.83106e-08
1.18295e-08
1.7967e-08
1.6582e-08
4.66916e-09
1.81873e-08
2.41673e-08
1.51397e-08
2.39433e-08
2.37621e-08
1.49086e-08
1.48466e-08
5.09854e-09
2.20014e-08
2.07323e-08
4.99911e-09
2.08282e-08
1.46626e-08
1.48577e-08
2.36637e-08
2.37939e-08
4.92107e-09
2.16461e-08
2.05842e-08
4.97625e-09
2.04977e-08
2.33407e-08
2.34525e-08
1.44114e-08
1.45115e-08
1.45895e-08
1.45267e-08
2.35877e-08
2.34693e-08
2.33012e-08
2.32002e-08
1.43744e-08
1.4307e-08
4.81697e-09
2.12177e-08
2.00526e-08
4.77289e-09
2.01352e-08
1.41909e-08
1.42827e-08
2.30497e-08
2.31712e-08
4.70285e-09
2.09056e-08
1.996e-08
4.76249e-09
1.98617e-08
2.26304e-08
2.28172e-08
1.38441e-08
1.40001e-08
1.41536e-08
1.4044e-08
2.30097e-08
2.2866e-08
2.25662e-08
2.23257e-08
1.37785e-08
4.39244e-09
2.00801e-08
1.8936e-08
4.10248e-09
1.91389e-08
2.19631e-08
2.22451e-08
3.59545e-09
1.92904e-08
1.87241e-08
4.04769e-09
1.85074e-08
2.15706e-08
2.15883e-08
2.18799e-08
2.16334e-08
2.16685e-08
2.27759e-08
1.34849e-08
2.28772e-08
2.41129e-08
2.06648e-08
2.32548e-08
2.19155e-08
5.5801e-09
1.68139e-08
1.58759e-08
2.17994e-08
5.49515e-09
1.64479e-08
1.55169e-08
2.1547e-08
1.66928e-08
1.57628e-08
2.09962e-08
1.50805e-08
5.12195e-09
1.59934e-08
1.58942e-08
1.50249e-08
2.10553e-08
2.10616e-08
5.14541e-09
1.60841e-08
1.52442e-08
2.12409e-08
1.59072e-08
1.50712e-08
2.07137e-08
1.48308e-08
4.88219e-09
1.57806e-08
2.0737e-08
1.57392e-08
1.48055e-08
2.06628e-08
4.87002e-09
1.56845e-08
1.47459e-08
2.06305e-08
1.56929e-08
1.47696e-08
2.04927e-08
1.46376e-08
4.81321e-09
1.55736e-08
1.55556e-08
1.46394e-08
2.04822e-08
2.05345e-08
4.82142e-09
1.56366e-08
1.47044e-08
2.05738e-08
1.55816e-08
1.46654e-08
2.0057e-08
1.43693e-08
4.63821e-09
1.52936e-08
2.01032e-08
1.52336e-08
1.43238e-08
1.99848e-08
4.61918e-09
1.51688e-08
1.42432e-08
1.99468e-08
1.51759e-08
1.4273e-08
1.97124e-08
1.40022e-08
4.47647e-09
1.49532e-08
1.49717e-08
1.40521e-08
1.96583e-08
1.98063e-08
4.50734e-09
1.51163e-08
1.41881e-08
1.98679e-08
1.50463e-08
1.41254e-08
1.84973e-08
1.27906e-08
3.53355e-09
1.43781e-08
1.86435e-08
1.43349e-08
1.25464e-08
1.82944e-08
3.54184e-09
1.43263e-08
1.19461e-08
1.81111e-08
1.42863e-08
1.22348e-08
1.72422e-08
1.15374e-08
7.82601e-09
1.6462e-08
1.55194e-08
1.12698e-08
1.71974e-08
1.76356e-08
6.86769e-09
1.45966e-08
1.16602e-08
1.78602e-08
1.49116e-08
1.14245e-08
1.34665e-08
9.15099e-09
2.43537e-08
9.21342e-09
1.31667e-08
1.34258e-08
2.43958e-08
9.13785e-09
1.21968e-08
1.54227e-08
1.38822e-08
1.42527e-08
1.563e-08
1.43623e-08
1.19107e-08
1.2049e-08
1.28569e-08
1.27637e-08
9.05214e-09
2.37942e-08
8.97785e-09
1.29762e-08
1.27344e-08
8.86875e-09
2.37521e-08
8.91536e-09
1.15742e-08
1.16151e-08
1.48069e-08
1.37678e-08
1.35627e-08
1.36092e-08
1.47994e-08
1.35505e-08
1.18087e-08
1.16325e-08
2.10967e-08
1.51175e-08
5.05333e-09
1.60822e-08
2.10874e-08
1.51126e-08
1.60747e-08
2.10279e-08
5.02658e-09
1.49934e-08
1.59448e-08
1.50578e-08
1.60007e-08
2.09562e-08
1.15463e-08
1.15102e-08
1.47468e-08
1.34188e-08
1.35158e-08
1.36025e-08
1.48229e-08
1.35635e-08
1.14055e-08
1.14509e-08
1.29351e-08
1.29086e-08
8.82213e-09
2.37344e-08
8.87043e-09
1.28095e-08
1.28789e-08
8.8865e-09
2.37818e-08
8.86404e-09
2.0753e-08
4.91173e-09
1.48373e-08
1.57791e-08
2.07592e-08
1.48257e-08
1.57423e-08
2.07954e-08
4.92061e-09
1.49115e-08
1.5838e-08
2.08557e-08
1.48518e-08
1.57619e-08
1.27042e-08
1.2634e-08
8.64887e-09
2.33775e-08
8.68566e-09
1.26078e-08
1.26184e-08
8.70556e-09
2.3414e-08
8.69275e-09
1.12527e-08
1.12251e-08
1.44466e-08
1.31871e-08
1.32207e-08
1.32846e-08
1.44848e-08
1.32453e-08
1.1179e-08
1.11957e-08
1.12718e-08
1.12826e-08
1.33762e-08
1.45473e-08
1.33021e-08
1.13638e-08
1.13008e-08
1.32959e-08
1.45271e-08
1.32871e-08
1.26887e-08
1.26488e-08
8.78864e-09
2.35178e-08
8.76338e-09
1.27625e-08
1.26421e-08
8.70789e-09
2.34862e-08
8.74385e-09
1.2523e-08
1.25021e-08
8.63216e-09
2.32542e-08
8.61785e-09
1.2593e-08
1.25029e-08
8.57385e-09
2.32251e-08
8.60682e-09
1.10911e-08
1.10975e-08
1.43452e-08
1.31625e-08
1.31146e-08
1.30922e-08
1.43207e-08
1.30975e-08
1.11539e-08
1.11167e-08
2.04124e-08
1.4617e-08
4.78171e-09
1.55526e-08
2.04444e-08
1.45856e-08
1.55036e-08
2.03624e-08
4.77079e-09
1.45364e-08
1.54649e-08
1.45522e-08
1.54627e-08
2.0338e-08
1.10706e-08
1.10409e-08
1.42203e-08
1.29867e-08
1.30117e-08
1.30763e-08
1.42546e-08
1.3034e-08
1.09988e-08
1.10139e-08
1.25235e-08
1.24426e-08
8.50354e-09
2.30859e-08
8.54182e-09
1.24322e-08
1.24312e-08
8.56459e-09
2.3124e-08
8.55243e-09
2.01875e-08
4.70587e-09
1.44067e-08
1.53323e-08
2.01626e-08
1.44226e-08
1.53287e-08
2.02439e-08
4.71985e-09
1.45005e-08
1.54265e-08
2.02843e-08
1.44603e-08
1.53711e-08
1.23203e-08
1.22205e-08
8.29814e-09
2.26911e-08
8.34853e-09
1.21899e-08
1.22066e-08
8.39263e-09
2.27489e-08
8.36765e-09
1.08407e-08
1.07888e-08
1.38958e-08
1.26685e-08
1.27215e-08
1.28243e-08
1.39524e-08
1.27578e-08
1.07012e-08
1.07451e-08
1.08751e-08
1.08975e-08
1.29618e-08
1.41167e-08
1.29075e-08
1.097e-08
1.09286e-08
1.28523e-08
1.40768e-08
1.28806e-08
1.23242e-08
1.23248e-08
8.48749e-09
2.29537e-08
8.46844e-09
1.24246e-08
1.23325e-08
8.41095e-09
2.291e-08
8.45376e-09
1.20201e-08
1.20539e-08
8.27166e-09
2.24804e-08
8.23668e-09
1.21835e-08
1.20687e-08
8.15178e-09
2.24049e-08
8.21067e-09
1.04098e-08
1.05033e-08
1.37067e-08
1.2627e-08
1.25276e-08
1.2374e-08
1.36315e-08
1.24717e-08
1.06519e-08
1.05664e-08
1.94753e-08
1.39227e-08
4.27268e-09
1.48895e-08
1.95576e-08
1.38314e-08
1.48074e-08
1.9353e-08
4.21965e-09
1.36246e-08
1.46766e-08
1.37175e-08
1.471e-08
1.92751e-08
1.03342e-08
1.01754e-08
1.18596e-08
1.20606e-08
1.23135e-08
1.21481e-08
9.86286e-09
1.00698e-08
1.2018e-08
1.18909e-08
7.9837e-09
2.20523e-08
8.0458e-09
1.1827e-08
1.18744e-08
8.1184e-09
2.21439e-08
8.07309e-09
1.88937e-08
3.76674e-09
1.29964e-08
1.43841e-08
1.87839e-08
1.31666e-08
1.44207e-08
1.90433e-08
3.85662e-09
1.34986e-08
1.46142e-08
1.91518e-08
1.33526e-08
1.45276e-08
1.18134e-08
1.18669e-08
8.41599e-09
2.15298e-08
8.14871e-09
1.22749e-08
1.19624e-08
7.91996e-09
2.15587e-08
7.97372e-09
8.45848e-09
7.68346e-09
8.8797e-09
9.7162e-09
1.06646e-08
1.00284e-08
6.22884e-09
7.29138e-09
8.70978e-09
9.20449e-09
1.17509e-08
1.14415e-08
9.73474e-09
9.39241e-09
1.08681e-08
1.12821e-08
1.17244e-08
1.17349e-08
7.9538e-09
2.17841e-08
7.91212e-09
1.18441e-08
1.1732e-08
7.88549e-09
2.16978e-08
7.91143e-09
1.73845e-08
1.4436e-08
8.8964e-09
2.18944e-08
9.78815e-09
1.26423e-08
1.37483e-08
1.44388e-08
2.21949e-08
1.12649e-08
5.42107e-09
4.4349e-09
8.5098e-09
7.70596e-09
7.25403e-09
7.32692e-09
5.72907e-09
4.85985e-09
1.92408e-08
1.23399e-08
1.65098e-08
1.85681e-08
1.77228e-08
1.36933e-08
2.02188e-08
2.09113e-08
1.34684e-08
2.13648e-08
3.14232e-08
2.29967e-08
2.54448e-08
2.14991e-08
1.65395e-08
1.20379e-08
2.28348e-08
5.53898e-09
5.88572e-09
8.43998e-09
7.19078e-09
7.81334e-09
6.06711e-09
1.91913e-08
2.27545e-08
3.12993e-08
2.30526e-08
2.2443e-08
1.8473e-08
2.67691e-08
2.14491e-08
1.46562e-08
5.65382e-09
7.65748e-09
8.37714e-09
1.43421e-08
5.38161e-09
7.41333e-09
8.09878e-09
1.42032e-08
7.4295e-09
8.14337e-09
1.3812e-08
7.81441e-09
5.08782e-09
7.14839e-09
7.11026e-09
7.78906e-09
1.38754e-08
1.38676e-08
5.20246e-09
7.26068e-09
8.01231e-09
1.40112e-08
7.19414e-09
7.92864e-09
1.36292e-08
7.58812e-09
4.89144e-09
6.97781e-09
1.36472e-08
6.95149e-09
7.55784e-09
2.26217e-08
1.91709e-08
2.25775e-08
1.92092e-08
2.26678e-08
1.92808e-08
2.26944e-08
1.92543e-08
1.35457e-08
4.85729e-09
6.92805e-09
7.53153e-09
1.35513e-08
6.89902e-09
7.51256e-09
1.34436e-08
7.46787e-09
4.80597e-09
6.87235e-09
6.8385e-09
7.44441e-09
1.3462e-08
2.248e-08
1.91201e-08
2.25241e-08
1.90781e-08
2.24394e-08
1.90369e-08
1.90473e-08
2.24138e-08
1.34928e-08
4.8313e-09
6.90493e-09
7.51502e-09
1.35261e-08
6.87199e-09
7.48041e-09
1.31914e-08
7.2927e-09
4.66015e-09
6.71847e-09
1.32207e-08
6.68838e-09
7.25623e-09
1.30855e-08
4.59448e-09
6.6395e-09
7.18532e-09
1.30908e-08
6.61053e-09
7.17511e-09
1.28827e-08
6.97366e-09
4.43086e-09
6.48323e-09
6.46161e-09
6.97926e-09
1.28773e-08
1.30255e-08
4.54509e-09
6.61011e-09
7.15812e-09
1.30614e-08
6.5768e-09
7.1137e-09
1.20575e-08
5.77232e-09
3.53083e-09
5.88876e-09
1.21564e-08
5.82312e-09
5.60071e-09
1.18916e-08
3.86465e-09
6.22044e-09
5.13258e-09
1.1824e-08
6.04155e-09
5.18482e-09
1.35099e-08
1.01218e-08
1.02939e-08
1.28443e-08
1.136e-08
9.03699e-09
1.42458e-08
1.20158e-08
5.31189e-09
6.64523e-09
5.33875e-09
1.1981e-08
6.9903e-09
5.46985e-09
6.18655e-09
5.91181e-09
5.98058e-09
9.3035e-09
8.95609e-09
9.00218e-09
5.75338e-09
5.67925e-09
5.75871e-09
5.66842e-09
8.6587e-09
8.64149e-09
8.84907e-09
8.77212e-09
1.39233e-08
7.80526e-09
5.07127e-09
7.16755e-09
1.39152e-08
7.77202e-09
7.14318e-09
1.37888e-08
4.99603e-09
7.696e-09
7.07176e-09
7.68857e-09
7.05084e-09
1.37708e-08
8.65308e-09
8.62348e-09
8.518e-09
8.517e-09
5.79939e-09
5.80557e-09
5.72307e-09
5.71241e-09
1.36224e-08
4.90216e-09
7.59679e-09
6.98393e-09
1.3651e-08
7.57174e-09
6.94744e-09
2.27665e-08
1.9363e-08
2.28302e-08
1.93004e-08
1.36643e-08
4.93905e-09
7.66618e-09
7.02358e-09
1.37161e-08
7.62227e-09
6.98416e-09
2.27258e-08
1.92872e-08
2.27159e-08
1.92762e-08
5.6715e-09
5.65107e-09
5.6273e-09
5.60012e-09
8.4016e-09
8.37693e-09
8.33679e-09
8.32341e-09
8.41157e-09
8.39162e-09
8.48477e-09
8.44533e-09
5.66703e-09
5.61993e-09
5.67784e-09
5.63367e-09
5.59001e-09
5.55151e-09
5.60963e-09
5.57669e-09
8.26873e-09
8.25043e-09
8.31923e-09
8.2903e-09
1.34241e-08
7.45683e-09
4.79157e-09
6.85962e-09
1.34486e-08
7.42601e-09
6.83141e-09
2.22941e-08
1.89079e-08
1.8936e-08
2.22556e-08
2.23406e-08
1.90109e-08
2.23769e-08
1.89768e-08
1.33508e-08
4.75937e-09
7.4017e-09
6.81496e-09
7.38204e-09
6.78361e-09
1.33615e-08
8.25653e-09
8.23115e-09
8.19487e-09
8.18112e-09
5.58538e-09
5.55837e-09
5.54898e-09
5.5161e-09
1.32323e-08
4.69084e-09
7.31189e-09
6.7403e-09
1.32439e-08
7.29448e-09
6.709e-09
2.21579e-08
1.88639e-08
2.22041e-08
1.88198e-08
1.33101e-08
4.73444e-09
7.38505e-09
6.7944e-09
1.33396e-08
7.35084e-09
6.76426e-09
5.4912e-09
5.46498e-09
5.44278e-09
5.40454e-09
8.07463e-09
8.04375e-09
7.95346e-09
7.95006e-09
8.09591e-09
8.08401e-09
8.17712e-09
8.14811e-09
5.5016e-09
5.46489e-09
5.53724e-09
5.50868e-09
5.36972e-09
5.3266e-09
5.42897e-09
5.40403e-09
7.71183e-09
7.72584e-09
7.92352e-09
7.88362e-09
1.27955e-08
6.93326e-09
4.34524e-09
6.44683e-09
1.28435e-08
6.87072e-09
6.40397e-09
1.25953e-08
4.13098e-09
6.58563e-09
6.22846e-09
6.62717e-09
6.22289e-09
1.25687e-08
7.66515e-09
7.60586e-09
7.25398e-09
7.30925e-09
5.35761e-09
5.33597e-09
5.30339e-09
5.24837e-09
1.22141e-08
3.63047e-09
5.85728e-09
5.87543e-09
1.21497e-08
5.97068e-09
5.88851e-09
1.24682e-08
3.98387e-09
6.52195e-09
6.19124e-09
1.25388e-08
6.41812e-09
6.12864e-09
5.5507e-09
5.64662e-09
7.03359e-09
6.5513e-09
6.18979e-09
6.00746e-09
5.00667e-09
5.10272e-09
6.33565e-09
6.47683e-09
7.17269e-09
7.06837e-09
5.44117e-09
5.32512e-09
5.31129e-09
5.30602e-09
1.54784e-08
1.36593e-08
7.60674e-09
8.28233e-09
9.12474e-09
7.91584e-09
4.97914e-09
5.14187e-09
1.64661e-08
1.13977e-08
1.50487e-08
1.45354e-08
1.50214e-08
1.27302e-08
1.64746e-08
1.8292e-08
1.77261e-08
1.76819e-08
1.91077e-08
1.80046e-08
1.29847e-08
1.69786e-08
1.37705e-08
2.03677e-08
2.08672e-08
2.02586e-08
2.61227e-08
1.89093e-08
2.229e-08
2.29208e-08
1.01144e-08
1.13525e-08
1.75456e-08
1.96262e-08
1.94863e-08
2.05725e-08
1.8844e-08
1.75571e-08
1.68659e-08
1.85876e-08
1.79086e-08
2.02247e-08
1.97715e-08
1.81287e-08
1.47473e-08
5.59988e-09
7.67288e-09
8.35759e-09
1.47418e-08
7.67092e-09
8.37025e-09
1.45007e-08
5.41549e-09
7.56993e-09
8.31159e-09
1.46322e-08
7.51565e-09
8.22124e-09
1.37568e-08
5.09452e-09
7.10711e-09
7.82103e-09
1.37394e-08
7.08513e-09
7.78452e-09
1.37677e-08
5.16025e-09
7.1104e-09
7.85535e-09
1.3738e-08
7.11484e-09
7.86884e-09
1.36039e-08
4.8776e-09
6.93874e-09
7.56089e-09
1.35985e-08
6.92309e-09
7.54747e-09
1.35519e-08
4.85104e-09
6.91267e-09
7.54576e-09
1.35714e-08
6.89545e-09
7.51825e-09
1.34366e-08
4.79785e-09
6.84056e-09
7.46872e-09
1.34446e-08
6.82609e-09
7.44426e-09
1.34632e-08
4.81568e-09
6.85516e-09
7.4813e-09
1.34598e-08
6.83992e-09
7.46746e-09
1.31568e-08
4.64051e-09
6.66353e-09
7.24444e-09
1.31454e-08
6.65109e-09
7.23868e-09
1.30932e-08
4.59535e-09
6.63026e-09
7.22002e-09
1.31127e-08
6.61257e-09
7.18634e-09
1.28951e-08
4.44378e-09
6.49693e-09
7.04768e-09
1.2925e-08
6.47189e-09
7.00064e-09
1.29865e-08
4.51825e-09
6.54023e-09
7.08325e-09
1.29662e-08
6.53369e-09
7.08907e-09
1.20747e-08
3.49215e-09
5.82353e-09
5.36509e-09
1.19545e-08
5.84371e-09
5.53113e-09
1.18159e-08
3.72437e-09
5.88541e-09
5.31633e-09
1.19475e-08
5.85816e-09
5.12904e-09
1.30397e-08
9.12231e-09
9.19099e-09
7.18287e-09
1.26314e-08
1.01429e-08
7.90018e-09
1.22614e-08
5.94372e-09
8.21382e-09
6.32872e-09
1.23506e-08
7.57154e-09
5.92504e-09
6.16309e-09
6.12637e-09
5.89514e-09
1.24826e-08
6.13016e-09
4.35013e-09
5.86178e-09
4.44824e-09
6.095e-09
1.25917e-08
6.19343e-09
5.95782e-09
4.36553e-09
1.00333e-08
3.89536e-09
3.84264e-09
1.00778e-08
1.54674e-08
2.3182e-08
1.54514e-08
2.32278e-08
1.00258e-08
3.93032e-09
3.86397e-09
9.94976e-09
1.55322e-08
2.32967e-08
1.55386e-08
2.32674e-08
6.04542e-09
5.97434e-09
5.79366e-09
6.06519e-09
1.24018e-08
4.39117e-09
6.08618e-09
4.35438e-09
5.75221e-09
5.77285e-09
4.45415e-09
6.17144e-09
1.25037e-08
6.16919e-09
5.80983e-09
4.34775e-09
1.00156e-08
3.84768e-09
3.71455e-09
1.00404e-08
1.00161e-08
1.55421e-08
2.33048e-08
1.55569e-08
2.32839e-08
1.21843e-08
1.07133e-08
1.15661e-08
9.25499e-09
9.29372e-09
1.14776e-08
1.21315e-08
1.06753e-08
1.06701e-08
1.1569e-08
1.38853e-08
1.38042e-08
1.38654e-08
1.39608e-08
1.39951e-08
1.39812e-08
1.39226e-08
9.16568e-09
9.08227e-09
1.03054e-08
1.1954e-08
1.1291e-08
1.03677e-08
1.13662e-08
1.14876e-08
1.05133e-08
1.20448e-08
1.04526e-08
1.14154e-08
5.64918e-09
5.66961e-09
5.56122e-09
5.86408e-09
1.19749e-08
4.31587e-09
5.89182e-09
4.18467e-09
5.61955e-09
5.543e-09
4.24673e-09
5.8683e-09
1.19289e-08
5.87705e-09
5.55698e-09
4.19129e-09
9.83201e-09
3.90734e-09
3.79248e-09
9.82084e-09
1.53243e-08
2.31236e-08
1.53559e-08
2.30579e-08
9.84612e-09
3.91215e-09
9.93025e-09
3.78638e-09
1.5272e-08
2.29802e-08
1.52547e-08
2.30188e-08
5.61296e-09
5.61336e-09
5.52879e-09
6.00255e-09
1.20124e-08
4.3069e-09
5.98351e-09
5.59453e-09
4.16299e-09
5.49771e-09
4.23839e-09
5.90694e-09
1.19196e-08
5.93042e-09
5.48874e-09
4.13978e-09
9.79308e-09
3.91012e-09
3.81563e-09
9.80463e-09
1.52132e-08
2.28797e-08
1.51875e-08
2.28941e-08
9.77978e-09
3.92086e-09
3.79644e-09
9.79456e-09
1.5197e-08
2.29515e-08
1.52479e-08
2.29062e-08
9.98973e-09
1.15603e-08
1.09542e-08
9.98856e-09
1.09853e-08
8.67019e-09
8.64586e-09
1.10223e-08
1.15701e-08
1.00346e-08
9.99604e-09
1.09991e-08
1.37345e-08
1.3797e-08
1.37065e-08
1.36826e-08
1.35331e-08
1.35245e-08
1.35949e-08
1.36053e-08
8.69795e-09
8.70743e-09
1.01989e-08
1.17344e-08
1.12314e-08
1.01364e-08
1.11666e-08
1.10725e-08
1.00411e-08
1.16777e-08
1.00834e-08
1.11149e-08
1.39156e-08
5.05423e-09
7.77042e-09
7.13635e-09
1.39093e-08
7.76214e-09
7.12329e-09
1.38222e-08
4.99721e-09
7.74656e-09
7.08925e-09
1.38622e-08
7.70765e-09
7.06513e-09
9.97144e-09
1.09384e-08
1.15263e-08
9.94569e-09
1.09146e-08
8.60469e-09
8.60931e-09
1.08554e-08
1.14953e-08
9.92525e-09
9.92363e-09
1.09022e-08
1.33236e-08
1.3293e-08
1.33352e-08
1.33771e-08
1.34472e-08
1.34726e-08
1.34199e-08
1.33877e-08
8.57125e-09
8.53675e-09
9.81193e-09
1.14012e-08
1.07702e-08
9.81942e-09
1.08086e-08
1.08472e-08
9.87203e-09
1.14406e-08
9.84911e-09
1.08163e-08
5.76982e-09
5.75796e-09
5.67025e-09
5.89008e-09
4.35208e-09
1.20955e-08
5.67825e-09
5.8879e-09
4.2863e-09
5.62803e-09
4.34954e-09
5.8539e-09
1.20806e-08
5.9012e-09
5.66546e-09
4.27035e-09
9.77172e-09
3.98072e-09
3.88579e-09
9.80415e-09
1.5128e-08
2.27445e-08
1.5112e-08
2.27711e-08
9.76382e-09
3.966e-09
3.87643e-09
9.74227e-09
1.51446e-08
2.28274e-08
1.51721e-08
2.27897e-08
5.71639e-09
5.69532e-09
5.60042e-09
5.82959e-09
1.19825e-08
4.3278e-09
5.84612e-09
4.23816e-09
5.61555e-09
5.57435e-09
4.33615e-09
5.87172e-09
1.20059e-08
5.87896e-09
5.60712e-09
4.24373e-09
9.80768e-09
3.97035e-09
3.8713e-09
9.79321e-09
1.51907e-08
2.28778e-08
1.52158e-08
2.28535e-08
9.80922e-09
3.9454e-09
9.80807e-09
3.87597e-09
1.51959e-08
2.28399e-08
1.51857e-08
2.2853e-08
1.36059e-08
4.89526e-09
7.59561e-09
6.9448e-09
1.3607e-08
7.56981e-09
6.93043e-09
1.36225e-08
4.91796e-09
7.61153e-09
6.95599e-09
1.36176e-08
7.6013e-09
6.942e-09
5.61267e-09
5.60424e-09
5.5401e-09
5.76246e-09
1.18473e-08
4.29385e-09
5.76336e-09
4.19954e-09
5.57185e-09
5.49579e-09
4.26582e-09
5.73286e-09
1.18148e-08
5.76598e-09
5.52332e-09
4.18265e-09
9.60744e-09
3.95544e-09
3.85308e-09
9.63067e-09
1.48918e-08
2.24334e-08
1.48797e-08
2.24506e-08
9.6e-09
3.93764e-09
3.8423e-09
9.59354e-09
1.48969e-08
2.24934e-08
1.49239e-08
2.24611e-08
5.58901e-09
5.57617e-09
5.49981e-09
5.71814e-09
1.17711e-08
4.26642e-09
5.7289e-09
4.16464e-09
5.52586e-09
5.46706e-09
4.25514e-09
5.73419e-09
1.1772e-08
5.75061e-09
5.50132e-09
4.16887e-09
9.64097e-09
3.95296e-09
3.85447e-09
9.62822e-09
1.49506e-08
2.25572e-08
1.49745e-08
2.25284e-08
9.63968e-09
3.94929e-09
3.85403e-09
9.66076e-09
1.49418e-08
2.25072e-08
1.49332e-08
2.25213e-08
9.67557e-09
1.12336e-08
1.06261e-08
9.65819e-09
1.06171e-08
8.36813e-09
8.36379e-09
1.05817e-08
1.12165e-08
9.64949e-09
9.64494e-09
1.06075e-08
1.30429e-08
1.30281e-08
1.3651e-08
1.62846e-08
1.3187e-08
1.29295e-08
1.62952e-08
1.29521e-08
1.36364e-08
1.36656e-08
1.2975e-08
1.63384e-08
1.32028e-08
1.63092e-08
1.36784e-08
1.29597e-08
1.30546e-08
1.30754e-08
1.37333e-08
1.64136e-08
1.32684e-08
1.30381e-08
1.63966e-08
1.30278e-08
1.37453e-08
1.31128e-08
1.31291e-08
1.37182e-08
1.299e-08
1.32524e-08
1.63629e-08
1.63795e-08
1.3015e-08
1.36979e-08
1.31021e-08
1.30865e-08
8.35048e-09
8.32972e-09
9.60042e-09
1.11659e-08
1.05387e-08
9.59663e-09
1.05628e-08
1.05744e-08
9.62504e-09
1.11846e-08
9.60943e-09
1.05625e-08
8.40953e-09
8.39318e-09
9.6918e-09
1.12563e-08
1.06344e-08
9.68634e-09
1.06527e-08
1.06645e-08
9.71038e-09
1.12611e-08
9.68888e-09
1.06573e-08
1.32488e-08
1.32775e-08
1.38362e-08
1.64888e-08
1.31466e-08
1.33339e-08
1.38642e-08
1.64336e-08
1.31204e-08
1.3816e-08
1.30788e-08
1.3309e-08
1.63998e-08
1.64076e-08
1.31018e-08
1.3796e-08
1.3235e-08
1.32209e-08
8.4247e-09
8.42041e-09
9.77683e-09
1.07492e-08
1.13304e-08
9.75019e-09
1.07261e-08
1.06821e-08
9.72363e-09
1.13034e-08
9.72731e-09
1.07089e-08
1.37666e-08
1.64195e-08
1.32813e-08
1.30463e-08
1.63997e-08
1.3759e-08
1.30592e-08
1.31577e-08
1.31505e-08
1.37735e-08
1.30657e-08
1.32797e-08
1.63912e-08
1.63936e-08
1.30628e-08
1.37792e-08
1.31807e-08
1.31923e-08
5.59336e-09
5.59645e-09
5.5213e-09
5.75526e-09
1.18317e-08
4.29e-09
5.76825e-09
5.5617e-09
4.17731e-09
5.48798e-09
4.25547e-09
5.75778e-09
1.18123e-08
5.77539e-09
5.51497e-09
4.18064e-09
9.69547e-09
3.95558e-09
3.8526e-09
9.68417e-09
1.50563e-08
2.27216e-08
1.5087e-08
2.2679e-08
9.69628e-09
3.96112e-09
9.73902e-09
3.85053e-09
1.50359e-08
2.26409e-08
1.50235e-08
2.26623e-08
5.59191e-09
5.57922e-09
5.52873e-09
5.81218e-09
4.30123e-09
1.18696e-08
5.57527e-09
5.80496e-09
4.18855e-09
5.48191e-09
4.25797e-09
5.76488e-09
1.18205e-08
5.79535e-09
5.50319e-09
4.16735e-09
9.66531e-09
3.95719e-09
3.85515e-09
9.68223e-09
1.49876e-08
2.25661e-08
1.49734e-08
2.25811e-08
9.65524e-09
3.9436e-09
9.65706e-09
3.8407e-09
1.49856e-08
2.2626e-08
1.5019e-08
2.25913e-08
5.53093e-09
5.52738e-09
5.45424e-09
5.66891e-09
1.16807e-08
4.24015e-09
5.67914e-09
4.13167e-09
5.48944e-09
5.42059e-09
4.21524e-09
5.67415e-09
1.16694e-08
5.69207e-09
5.45163e-09
4.13482e-09
9.56606e-09
3.93632e-09
3.83642e-09
9.55796e-09
1.48448e-08
2.24183e-08
1.48698e-08
2.2387e-08
9.56361e-09
3.9378e-09
9.5932e-09
3.83363e-09
1.48332e-08
2.23652e-08
1.48254e-08
2.23793e-08
5.53869e-09
5.52707e-09
5.4728e-09
5.71152e-09
1.1726e-08
4.25474e-09
5.70856e-09
5.51341e-09
4.15065e-09
5.42745e-09
4.22031e-09
5.67588e-09
1.16877e-08
5.70581e-09
5.45285e-09
4.13216e-09
9.54062e-09
3.93891e-09
3.83549e-09
9.55865e-09
1.4791e-08
2.22945e-08
1.47781e-08
2.23109e-08
9.53184e-09
3.92192e-09
3.82365e-09
9.53032e-09
1.47924e-08
2.23538e-08
1.48204e-08
2.23219e-08
9.52122e-09
1.10755e-08
1.04504e-08
9.51526e-09
1.04682e-08
8.26782e-09
8.2522e-09
1.04744e-08
1.10823e-08
9.53614e-09
9.51936e-09
1.04694e-08
1.29962e-08
1.30153e-08
1.36011e-08
1.62617e-08
1.31365e-08
1.29145e-08
1.62271e-08
1.36176e-08
1.28998e-08
1.35871e-08
1.28677e-08
1.61989e-08
1.31183e-08
1.62085e-08
1.35709e-08
1.2888e-08
1.29881e-08
1.29761e-08
1.35417e-08
1.61796e-08
1.30833e-08
1.2832e-08
1.61729e-08
1.28472e-08
1.35332e-08
1.29324e-08
1.29231e-08
1.355e-08
1.28571e-08
1.30873e-08
1.61856e-08
1.61747e-08
1.28508e-08
1.35561e-08
1.29466e-08
1.296e-08
8.28125e-09
8.27425e-09
9.5809e-09
1.11306e-08
1.05282e-08
9.56253e-09
1.05162e-08
1.04839e-08
9.5513e-09
1.1111e-08
9.54761e-09
1.05075e-08
1.33956e-08
4.77732e-09
7.42774e-09
6.81598e-09
1.33902e-08
7.41436e-09
6.80051e-09
1.33523e-08
4.75282e-09
7.41263e-09
6.79284e-09
1.33666e-08
7.38649e-09
6.7775e-09
9.50474e-09
1.04429e-08
1.10515e-08
9.48834e-09
1.04337e-08
8.22202e-09
8.21702e-09
1.04e-08
1.10336e-08
9.47857e-09
9.47441e-09
1.04248e-08
1.28176e-08
1.28008e-08
1.34282e-08
1.60538e-08
1.29838e-08
1.27183e-08
1.60584e-08
1.27412e-08
1.34137e-08
1.28324e-08
1.28525e-08
1.34425e-08
1.27614e-08
1.60902e-08
1.29967e-08
1.60687e-08
1.34536e-08
1.27484e-08
1.3506e-08
1.61669e-08
1.28221e-08
1.3057e-08
1.35185e-08
1.61433e-08
1.28108e-08
1.28905e-08
1.29076e-08
1.2882e-08
1.28665e-08
1.34914e-08
1.27753e-08
1.30401e-08
1.61111e-08
1.61254e-08
1.2799e-08
1.34726e-08
8.2055e-09
8.18636e-09
9.43284e-09
1.09847e-08
1.03535e-08
9.42913e-09
1.03788e-08
1.03911e-08
9.45683e-09
1.10014e-08
9.44071e-09
1.038e-08
5.51933e-09
5.51056e-09
5.45245e-09
5.66943e-09
4.2363e-09
1.16696e-08
5.48979e-09
5.66972e-09
4.1368e-09
5.40786e-09
4.20514e-09
5.63842e-09
1.16333e-08
5.66916e-09
5.43386e-09
4.11947e-09
9.47348e-09
3.92744e-09
3.82363e-09
9.49656e-09
1.46849e-08
2.21426e-08
1.467e-08
2.21626e-08
9.46513e-09
3.90925e-09
3.81211e-09
9.45981e-09
1.46889e-08
2.221e-08
1.47182e-08
2.21749e-08
5.50163e-09
5.49186e-09
5.41991e-09
5.62453e-09
1.16012e-08
4.21344e-09
5.63433e-09
4.10705e-09
5.44995e-09
5.38545e-09
4.19553e-09
5.63686e-09
1.15979e-08
5.65412e-09
5.42034e-09
4.11171e-09
9.50801e-09
3.92516e-09
3.82598e-09
9.49503e-09
1.47483e-08
2.22829e-08
1.47739e-08
2.22518e-08
9.50509e-09
3.92434e-09
9.53243e-09
3.8239e-09
1.47372e-08
2.22245e-08
1.47267e-08
2.22416e-08
1.32335e-08
4.68678e-09
7.32819e-09
6.71961e-09
1.3247e-08
7.29997e-09
6.70394e-09
1.32786e-08
4.71738e-09
7.3465e-09
6.7445e-09
1.32718e-08
7.33612e-09
6.73007e-09
5.42172e-09
5.41209e-09
5.36447e-09
5.56207e-09
1.1471e-08
4.17901e-09
5.55723e-09
4.07933e-09
5.40381e-09
5.31808e-09
4.14837e-09
5.51828e-09
1.14288e-08
5.55283e-09
5.34526e-09
4.05942e-09
9.29214e-09
3.90642e-09
3.80297e-09
9.3243e-09
1.43962e-08
2.17159e-08
1.43703e-08
2.17516e-08
9.28175e-09
3.89204e-09
3.79087e-09
9.2688e-09
1.44065e-08
2.18231e-08
1.44458e-08
2.17745e-08
5.39722e-09
5.39063e-09
5.32052e-09
5.49043e-09
1.13767e-08
4.15859e-09
5.50618e-09
4.04712e-09
5.35726e-09
5.29453e-09
4.1378e-09
5.51693e-09
1.1379e-08
5.52498e-09
5.32787e-09
4.05416e-09
9.3402e-09
3.90176e-09
3.80019e-09
9.32191e-09
1.44924e-08
2.19348e-08
1.45275e-08
2.18906e-08
9.33914e-09
3.90077e-09
3.79862e-09
9.37569e-09
1.44763e-08
2.18448e-08
1.44577e-08
2.18728e-08
9.28637e-09
1.08178e-08
1.0209e-08
9.26393e-09
1.01868e-08
8.01895e-09
8.02199e-09
1.01338e-08
1.07869e-08
9.23605e-09
9.23949e-09
1.01718e-08
1.24512e-08
1.24158e-08
1.24785e-08
1.25148e-08
1.25883e-08
1.26185e-08
1.25711e-08
1.25407e-08
7.99213e-09
7.96453e-09
9.14358e-09
1.06952e-08
1.0036e-08
9.15099e-09
1.00772e-08
1.01151e-08
9.19975e-09
1.07261e-08
9.17525e-09
1.00884e-08
8.11283e-09
8.09208e-09
9.31442e-09
1.08626e-08
1.0223e-08
9.3138e-09
1.02528e-08
1.02724e-08
9.34728e-09
1.08822e-08
9.32821e-09
1.02573e-08
1.27599e-08
1.27837e-08
1.33747e-08
1.60323e-08
1.27033e-08
1.29375e-08
1.33928e-08
1.60006e-08
1.26858e-08
1.33556e-08
1.26427e-08
1.29154e-08
1.59622e-08
1.59786e-08
1.2671e-08
1.33332e-08
1.2748e-08
1.27273e-08
8.13258e-09
8.1302e-09
9.41008e-09
1.03429e-08
1.09487e-08
9.39103e-09
1.03267e-08
1.02856e-08
9.37314e-09
1.0924e-08
9.3719e-09
1.03158e-08
1.26637e-08
1.26419e-08
1.2683e-08
1.27077e-08
5.45161e-09
5.44487e-09
5.37323e-09
5.56487e-09
1.14991e-08
4.18545e-09
5.57636e-09
5.4063e-09
4.07626e-09
5.34176e-09
4.16472e-09
5.58022e-09
1.14959e-08
5.59444e-09
5.3757e-09
4.08228e-09
9.43096e-09
3.91127e-09
3.8106e-09
9.41686e-09
1.46331e-08
2.21276e-08
1.46626e-08
2.20916e-08
9.42925e-09
3.91138e-09
9.46133e-09
3.80869e-09
1.46198e-08
2.20564e-08
1.46061e-08
2.20784e-08
5.46855e-09
5.45794e-09
5.40471e-09
5.62055e-09
4.20513e-09
1.15704e-08
5.44408e-09
5.61734e-09
4.10401e-09
5.35915e-09
4.17303e-09
5.58221e-09
1.15308e-08
5.61424e-09
5.38547e-09
4.08489e-09
9.39257e-09
3.91468e-09
3.81094e-09
9.4184e-09
1.4557e-08
2.1955e-08
1.45367e-08
2.1982e-08
9.3828e-09
3.89749e-09
9.37442e-09
3.79888e-09
1.45633e-08
2.20398e-08
1.4597e-08
2.1999e-08
5.32663e-09
5.32188e-09
5.26269e-09
5.391e-09
1.12218e-08
4.14886e-09
5.41314e-09
4.03035e-09
5.30984e-09
5.2453e-09
4.11928e-09
5.43202e-09
1.12265e-08
5.42897e-09
5.27519e-09
4.03521e-09
9.22716e-09
3.90398e-09
3.79789e-09
9.20452e-09
1.4316e-08
2.1689e-08
1.43572e-08
2.16371e-08
9.22821e-09
3.89664e-09
9.26987e-09
3.79555e-09
1.42951e-08
2.15739e-08
1.42699e-08
2.16122e-08
5.35767e-09
5.34764e-09
5.31353e-09
5.48751e-09
1.13374e-08
4.15234e-09
5.47689e-09
5.35243e-09
4.05387e-09
5.26611e-09
4.1267e-09
5.43091e-09
1.12921e-08
5.46994e-09
5.29648e-09
4.03424e-09
9.16859e-09
3.91296e-09
3.81299e-09
9.20663e-09
1.4191e-08
2.14106e-08
1.41592e-08
2.14552e-08
9.15623e-09
3.91284e-09
3.80322e-09
9.14032e-09
1.42075e-08
2.15434e-08
1.42528e-08
2.14862e-08
8.853e-09
1.04173e-08
9.71631e-09
8.87841e-09
9.77927e-09
7.79663e-09
7.75485e-09
9.86037e-09
1.047e-08
8.9624e-09
8.92257e-09
9.81009e-09
1.2335e-08
1.23814e-08
1.23056e-08
1.22611e-08
1.2141e-08
1.20823e-08
1.21768e-08
1.22263e-08
7.8375e-09
7.85279e-09
9.10265e-09
1.06224e-08
1.00126e-08
9.07116e-09
9.97567e-09
9.89392e-09
9.01753e-09
1.05762e-08
9.03351e-09
9.94999e-09
1.27532e-08
4.30219e-09
6.80038e-09
6.34539e-09
1.2714e-08
6.83169e-09
6.35297e-09
1.26106e-08
4.16875e-09
6.74501e-09
6.28793e-09
1.26636e-08
6.66841e-09
6.24434e-09
8.78883e-09
9.67285e-09
1.02884e-08
8.73548e-09
9.60915e-09
7.51107e-09
7.55511e-09
9.46117e-09
1.02119e-08
8.62403e-09
8.67077e-09
9.55872e-09
1.15286e-08
1.14288e-08
1.15916e-08
1.16868e-08
1.19331e-08
1.20254e-08
1.18579e-08
1.17614e-08
7.44285e-09
7.36801e-09
8.29822e-09
9.91152e-09
9.10914e-09
8.36958e-09
9.22768e-09
9.39208e-09
8.53045e-09
1.00068e-08
8.45593e-09
9.29785e-09
5.28948e-09
5.27927e-09
5.27437e-09
5.39143e-09
4.15156e-09
1.11775e-08
5.30926e-09
5.37224e-09
4.05774e-09
5.22967e-09
4.14811e-09
5.32041e-09
1.11341e-08
5.36468e-09
5.27113e-09
4.04591e-09
9.03879e-09
3.97821e-09
3.89205e-09
9.0763e-09
1.3954e-08
2.10657e-08
1.39284e-08
2.11054e-08
9.02548e-09
4.02667e-09
3.8931e-09
9.02044e-09
1.39757e-08
2.1201e-08
1.40197e-08
2.11441e-08
5.25316e-09
5.24841e-09
5.2368e-09
5.27844e-09
1.10474e-08
4.22175e-09
5.30354e-09
4.08317e-09
5.31063e-09
5.22383e-09
4.15416e-09
5.32949e-09
1.10475e-08
5.31007e-09
5.24537e-09
4.0726e-09
9.09283e-09
3.95544e-09
3.83631e-09
9.07171e-09
1.40952e-08
2.13725e-08
1.41404e-08
2.13141e-08
9.09651e-09
3.92343e-09
9.1401e-09
3.82936e-09
1.40689e-08
2.124e-08
1.40428e-08
2.12827e-08
1.22149e-08
3.70352e-09
6.18104e-09
5.98204e-09
1.23108e-08
6.03891e-09
5.90275e-09
1.24346e-08
3.91178e-09
6.26605e-09
6.04264e-09
1.23606e-08
6.354e-09
6.07727e-09
5.90517e-09
5.7383e-09
5.81722e-09
5.41176e-09
1.10525e-08
4.82096e-09
5.42292e-09
4.84923e-09
5.72444e-09
5.91562e-09
5.32011e-09
5.60302e-09
1.11327e-08
5.53461e-09
6.18507e-09
5.02266e-09
9.47208e-09
5.33587e-09
5.5642e-09
9.32714e-09
1.39759e-08
2.0995e-08
1.41725e-08
2.08291e-08
9.55333e-09
6.39966e-09
5.85764e-09
9.84921e-09
1.3971e-08
2.07577e-08
1.38681e-08
2.0845e-08
6.06415e-09
6.29064e-09
6.85313e-09
6.57283e-09
1.14459e-08
6.71428e-09
6.26935e-09
6.15625e-09
7.41862e-09
6.59065e-09
5.62108e-09
5.86623e-09
1.12442e-08
5.94734e-09
6.34393e-09
5.77455e-09
9.1316e-09
5.08894e-09
4.76975e-09
9.25066e-09
1.3808e-08
2.07592e-08
1.37812e-08
2.0769e-08
9.12056e-09
4.59383e-09
4.64782e-09
9.06885e-09
1.37943e-08
2.0791e-08
1.38747e-08
2.07354e-08
6.88655e-09
8.23787e-09
7.55491e-09
6.63669e-09
7.25102e-09
5.64244e-09
5.8438e-09
6.55376e-09
7.94132e-09
6.07407e-09
6.36907e-09
6.95683e-09
7.95024e-09
7.51184e-09
8.28888e-09
8.68295e-09
9.57907e-09
9.87587e-09