/*--------------------------------*- C++ -*----------------------------------*\
| =========                 |                                                 |
| \\      /  F ield         | OpenFOAM: The Open Source CFD Toolbox           |
|  \\    /   O peration     | Version:  2012                                  |
|   \\  /    A nd           | Website:  www.openfoam.com                      |
|    \\/     M anipulation  |                                                 |
\*---------------------------------------------------------------------------*/
FoamFile
{
    version     2.0;
    format      ascii;
    class       pointVectorField;
    location    "0.104/solid";
    object      pointD;
}
// * * * * * * * * * * * * * * * * * * * * * * * * * * * * * * * * * * * * * //

dimensions      [0 1 0 0 0 0 0];


internalField   nonuniform List<vector> 
5103
(
(2.26874e-11 9.73297e-12 -3.25957e-12)
(2.09237e-11 9.24429e-12 -1.52385e-12)
(1.95998e-11 8.44012e-12 -2.53546e-12)
(1.33485e-11 1.02417e-11 -6.26947e-12)
(2.15037e-11 9.60138e-12 -1.99978e-12)
(2.05325e-11 8.90603e-12 -1.74199e-12)
(1.77506e-11 7.95745e-12 -3.41389e-12)
(2.48836e-11 1.06046e-11 1.61119e-12)
(4.03066e-11 -3.5006e-11 5.89808e-13)
(2.38967e-10 1.11815e-09 -8.19536e-12)
(2.20288e-11 9.91343e-12 -1.88935e-12)
(2.12003e-11 9.45407e-12 -1.513e-12)
(3.92558e-11 -3.42805e-11 -3.63553e-13)
(2.1513e-10 1.07464e-09 -7.2505e-12)
(2.08328e-11 9.09956e-12 -1.4842e-12)
(2.01373e-11 8.68275e-12 -2.05408e-12)
(3.79938e-11 -3.35014e-11 -6.64756e-13)
(1.9601e-10 1.03025e-09 -7.99898e-12)
(1.88519e-11 8.1781e-12 -3.06591e-12)
(1.62101e-11 8.0557e-12 -3.48128e-12)
(3.03349e-11 -2.82422e-11 1.19296e-12)
(3.50215e-12 4.61955e-12 -1.11075e-11)
(2.23335e-10 1.09294e-09 -8.60734e-12)
(3.97005e-11 -3.4561e-11 -2.90142e-13)
(2.08377e-10 1.05599e-09 -7.77462e-12)
(3.8734e-11 -3.39758e-11 -4.611e-13)
(3.64492e-11 -3.25048e-11 -7.86879e-13)
(2.30506e-10 1.1056e-09 -4.66451e-12)
(2.12251e-10 1.06583e-09 -6.9634e-12)
(2.18818e-10 1.08419e-09 -6.79555e-12)
(2.03194e-10 1.04457e-09 -8.24747e-12)
(4.19795e-11 -3.5675e-11 -1.31398e-12)
(4.01209e-11 -3.48234e-11 -1.14461e-12)
(3.94973e-11 -3.44603e-11 -5.50592e-13)
(3.90058e-11 -3.41561e-11 -4.33488e-13)
(3.84203e-11 -3.37826e-11 -5.59423e-13)
(3.74057e-11 -3.31037e-11 -7.73366e-13)
(3.46985e-11 -3.14852e-11 -4.68837e-13)
(1.22541e-11 -1.07408e-11 5.17056e-12)
(3.86656e-10 4.81813e-10 4.67034e-13)
(3.69828e-10 4.72499e-10 -6.02808e-12)
(3.6096e-10 4.57214e-10 -5.76884e-12)
(3.57868e-10 4.52727e-10 -5.7591e-12)
(3.47011e-10 4.37989e-10 -7.41885e-12)
(3.40924e-10 4.30674e-10 -7.20254e-12)
(3.19402e-10 3.91597e-10 4.65511e-11)
(3.19117e-10 3.45044e-10 1.48503e-10)
(3.69086e-10 4.66896e-10 -6.51396e-12)
(3.63231e-10 4.61296e-10 -6.38518e-12)
(3.55241e-10 4.48597e-10 -6.02472e-12)
(3.51586e-10 4.43711e-10 -6.79368e-12)
(3.3329e-10 4.21193e-10 -3.64155e-12)
(3.25216e-10 4.08885e-10 9.37902e-12)
(3.91613e-10 1.30645e-10 4.68215e-10)
(2.44762e-11 1.07364e-11 -2.06782e-12)
(9.11082e-11 5.02728e-12 -1.2979e-12)
(1.9987e-10 5.3951e-10 -6.29949e-12)
(2.18218e-11 9.52081e-12 -2.50142e-12)
(2.1066e-11 9.38334e-12 -1.51709e-12)
(8.81964e-11 4.40454e-12 -1.25677e-12)
(1.8149e-10 5.15215e-10 -6.07352e-12)
(2.08586e-11 9.14467e-12 -1.4723e-12)
(1.98799e-11 8.56054e-12 -2.27631e-12)
(8.52314e-11 3.92879e-12 -2.04608e-12)
(1.67495e-10 4.92325e-10 -7.95499e-12)
(1.925e-11 8.3021e-12 -2.80341e-12)
(1.51711e-11 8.50588e-12 -4.06191e-12)
(7.22499e-11 8.16305e-12 -2.60136e-12)
(1.35243e-10 4.3925e-10 6.21942e-11)
(9.25116e-12 1.48742e-11 -1.5846e-11)
(2.19427e-11 9.91941e-12 -1.98645e-12)
(2.12458e-11 9.44145e-12 -1.71494e-12)
(1.87756e-10 5.25048e-10 -7.07571e-12)
(8.93631e-11 4.73104e-12 -1.48413e-12)
(2.07019e-11 9.01691e-12 -1.59729e-12)
(2.03344e-11 8.78654e-12 -1.88292e-12)
(1.76489e-10 5.05505e-10 -6.75862e-12)
(8.70244e-11 4.15453e-12 -1.4342e-12)
(1.83404e-11 8.04771e-12 -3.27883e-12)
(1.70274e-11 7.92285e-12 -3.43361e-12)
(1.51101e-10 4.71477e-10 -2.32348e-13)
(8.20173e-11 3.92038e-12 -2.66249e-12)
(5.60165e-10 1.85468e-10 4.42026e-12)
(2.1946e-10 9.98997e-10 -6.03359e-12)
(5.5357e-10 1.76205e-10 -6.9693e-12)
(2.11793e-10 9.79153e-10 -6.79863e-12)
(5.46189e-10 1.70068e-10 -5.43844e-12)
(2.07303e-10 9.62413e-10 -6.67866e-12)
(5.39896e-10 1.6533e-10 -4.99602e-12)
(2.00929e-10 9.43305e-10 -7.94971e-12)
(5.31939e-10 1.59823e-10 -6.12915e-12)
(1.89327e-10 9.13563e-10 -4.1328e-12)
(5.19136e-10 1.51192e-10 -4.86985e-12)
(1.76778e-10 8.58217e-10 4.78206e-11)
(5.05793e-10 1.35381e-10 2.58373e-11)
(2.36962e-10 5.8474e-10 4.0151e-10)
(5.04938e-10 5.59952e-11 3.59841e-10)
(2.08716e-10 5.506e-10 7.1611e-12)
(9.39557e-11 4.14641e-12 1.0846e-13)
(5.59724e-10 1.82472e-10 1.08919e-12)
(4.13612e-11 -3.60677e-11 -1.25391e-13)
(4.00191e-11 -3.45198e-11 -7.86853e-13)
(2.33007e-10 1.10133e-09 -4.18246e-12)
(2.50367e-10 1.15359e-09 -3.69038e-12)
(2.24056e-10 1.01628e-09 -3.30333e-12)
(1.92641e-10 5.3093e-10 -6.49779e-12)
(9.03416e-11 4.69681e-12 -1.9885e-12)
(1.84191e-10 5.19947e-10 -6.20834e-12)
(8.88734e-11 4.49002e-12 -1.35759e-12)
(5.42689e-10 1.68103e-10 -4.69886e-12)
(3.93466e-11 -3.4347e-11 -3.81576e-13)
(3.90792e-11 -3.41647e-11 -4.26881e-13)
(2.13791e-10 1.06957e-09 -6.9003e-12)
(2.16926e-10 1.08028e-09 -7.2841e-12)
(2.09042e-10 9.7088e-10 -6.77225e-12)
(1.79342e-10 5.10524e-10 -6.06452e-12)
(8.77093e-11 4.25268e-12 -1.26658e-12)
(1.72674e-10 4.99603e-10 -7.49994e-12)
(8.62584e-11 4.02139e-12 -1.68579e-12)
(5.26251e-10 1.56119e-10 -6.39243e-12)
(3.81806e-11 -3.36085e-11 -5.87567e-13)
(3.76774e-11 -3.32766e-11 -6.99323e-13)
(1.91551e-10 1.02135e-09 -6.94991e-12)
(1.99941e-10 1.03775e-09 -8.35331e-12)
(1.95851e-10 9.30535e-10 -7.68489e-12)
(1.6043e-10 4.83015e-10 -6.72818e-12)
(8.38748e-11 3.86262e-12 -2.43505e-12)
(1.40685e-10 4.5828e-10 1.90107e-11)
(7.92879e-11 4.46144e-12 -2.46225e-12)
(5.06503e-10 1.18948e-10 9.85379e-11)
(3.31323e-11 -3.0457e-11 2.17661e-13)
(2.60717e-11 -2.30068e-11 4.0208e-12)
(1.81754e-10 7.9784e-10 1.54593e-10)
(1.6431e-10 3.5118e-10 1.62466e-10)
(2.77442e-11 7.59304e-12 -4.23839e-12)
(2.27213e-10 1.10329e-09 -8.06938e-12)
(2.14344e-10 9.88886e-10 -7.67536e-12)
(2.20796e-10 1.08616e-09 -7.17123e-12)
(5.49547e-10 1.73637e-10 -4.85461e-12)
(3.99322e-11 -3.47867e-11 -5.05705e-13)
(3.95238e-11 -3.44038e-11 -5.3314e-13)
(2.10513e-10 1.06117e-09 -7.41152e-12)
(2.04488e-10 9.53716e-10 -7.39828e-12)
(2.0606e-10 1.05026e-09 -8.04241e-12)
(5.36208e-10 1.62979e-10 -5.42105e-12)
(3.88333e-11 -3.40251e-11 -4.11548e-13)
(3.85378e-11 -3.38388e-11 -5.07905e-13)
(1.81894e-10 8.90616e-10 8.89568e-12)
(5.11245e-10 1.44648e-10 2.38016e-12)
(3.6947e-11 -3.27925e-11 -7.48256e-13)
(3.5689e-11 -3.20476e-11 -5.97502e-13)
(1.83143e-12 1.03379e-11 3.6735e-11)
(1.95122e-10 5.32076e-10 -6.60391e-12)
(1.80403e-10 5.12697e-10 -5.9915e-12)
(1.64227e-10 4.87897e-10 -7.71002e-12)
(1.41487e-10 4.13749e-10 9.87696e-11)
(2.0598e-10 5.50782e-10 -2.22877e-12)
(3.76965e-10 4.77647e-10 -2.84721e-12)
(3.81231e-10 4.83416e-10 6.06812e-12)
(5.75399e-10 1.75004e-10 3.24148e-12)
(2.37423e-10 1.03089e-09 2.85476e-12)
(5.48972e-10 1.8376e-10 -5.29442e-12)
(2.18635e-10 1.00219e-09 -5.14838e-12)
(3.70034e-10 4.69139e-10 -6.9436e-12)
(1.82776e-10 5.1785e-10 -6.11748e-12)
(3.59399e-10 4.54992e-10 -5.72258e-12)
(3.62416e-10 4.59096e-10 -6.08418e-12)
(5.44299e-10 1.69353e-10 -4.77338e-12)
(2.10506e-10 9.75358e-10 -6.79255e-12)
(5.40212e-10 1.67444e-10 -4.90308e-12)
(2.08288e-10 9.65849e-10 -6.63712e-12)
(3.56878e-10 4.50634e-10 -5.81935e-12)
(1.70277e-10 4.96177e-10 -7.81943e-12)
(3.44316e-10 4.34562e-10 -7.53834e-12)
(3.49648e-10 4.40964e-10 -7.14944e-12)
(5.28533e-10 1.58669e-10 -6.2731e-12)
(1.98663e-10 9.37025e-10 -8.04485e-12)
(5.22108e-10 1.54398e-10 -5.91284e-12)
(1.92866e-10 9.22269e-10 -6.60891e-12)
(3.37439e-10 4.26209e-10 -6.12063e-12)
(1.36556e-10 4.50572e-10 3.67951e-11)
(3.17758e-10 3.76616e-10 8.39767e-11)
(3.21989e-10 4.01295e-10 2.33446e-11)
(5.05217e-10 1.28969e-10 5.27306e-11)
(1.77323e-10 8.34321e-10 8.82478e-11)
(5.09078e-10 9.86553e-11 1.87597e-10)
(1.95666e-10 7.2755e-10 2.56718e-10)
(3.27232e-10 2.71846e-10 2.67813e-10)
(1.90321e-10 5.2907e-10 -6.96711e-12)
(1.78033e-10 5.08151e-10 -6.36633e-12)
(1.56018e-10 4.77466e-10 -4.48962e-12)
(2.17947e-10 9.95589e-10 -7.20264e-12)
(5.54025e-10 1.73563e-10 -5.22988e-12)
(3.6583e-10 4.6413e-10 -6.37085e-12)
(2.12672e-10 9.82218e-10 -7.22517e-12)
(5.45558e-10 1.73137e-10 -5.58011e-12)
(1.85699e-10 5.21786e-10 -6.61132e-12)
(2.06077e-10 9.58083e-10 -7.01944e-12)
(5.37483e-10 1.64757e-10 -5.05749e-12)
(3.5364e-10 4.46249e-10 -6.40583e-12)
(2.02957e-10 9.4826e-10 -7.72706e-12)
(5.3336e-10 1.62089e-10 -5.77559e-12)
(1.74707e-10 5.02626e-10 -7.13822e-12)
(1.85683e-10 9.02636e-10 4.56258e-13)
(5.14461e-10 1.48705e-10 -2.16291e-12)
(3.29304e-10 4.15424e-10 9.90358e-13)
(1.7884e-10 8.75652e-10 2.32559e-11)
(5.07354e-10 1.40886e-10 1.13094e-11)
(1.45825e-10 4.65008e-10 7.15882e-12)
(3.70087e-10 4.01551e-10 5.73597e-10)
(5.43589e-10 -9.0818e-11 6.60718e-10)
(9.4679e-11 4.63155e-12 -1.19033e-12)
(8.94777e-11 4.87723e-12 -1.94109e-12)
(8.85176e-11 4.53892e-12 -1.26026e-12)
(8.78219e-11 4.35907e-12 -1.26431e-12)
(8.56847e-11 4.03047e-12 -1.84041e-12)
(8.45054e-11 3.9407e-12 -2.23295e-12)
(7.69155e-11 5.37427e-12 -2.28762e-12)
(6.38089e-11 1.53572e-11 -6.98511e-12)
(9.02206e-11 4.83682e-12 -1.65984e-12)
(8.88067e-11 4.61491e-12 -1.45871e-12)
(8.72974e-11 4.27822e-12 -1.31705e-12)
(8.65583e-11 4.13528e-12 -1.55146e-12)
(8.29227e-11 3.91955e-12 -2.55568e-12)
(8.07387e-11 4.12059e-12 -2.56101e-12)
(5.76813e-12 1.04269e-11 2.35288e-11)
(4.55886e-10 5.78265e-10 4.79412e-12)
(4.49042e-10 5.78938e-10 1.75008e-12)
(4.31167e-10 5.68933e-10 -7.48858e-12)
(4.31993e-10 5.76575e-10 -3.80967e-12)
(4.24885e-10 5.52223e-10 -6.42239e-12)
(4.22843e-10 5.49952e-10 -6.35703e-12)
(4.19888e-10 5.44261e-10 -6.4928e-12)
(4.20976e-10 5.47107e-10 -6.24956e-12)
(4.10406e-10 5.29187e-10 -7.83715e-12)
(4.07452e-10 5.25221e-10 -8.10942e-12)
(4.00692e-10 5.15257e-10 -6.61062e-12)
(4.04362e-10 5.20571e-10 -7.60694e-12)
(3.88649e-10 4.6919e-10 5.26674e-11)
(3.90963e-10 4.50251e-10 9.83629e-11)
(4.17347e-10 3.43008e-10 3.11895e-10)
(4.00468e-10 4.1575e-10 1.76303e-10)
(4.2533e-10 8.30798e-11 1.36793e-13)
(4.26943e-10 8.24834e-11 2.81288e-12)
(1.23722e-10 1.40971e-09 6.66456e-12)
(1.26323e-10 1.43164e-09 4.95107e-12)
(4.17179e-10 8.5138e-11 -2.15319e-12)
(4.16138e-10 8.32196e-11 -3.39231e-12)
(1.21306e-10 1.37778e-09 1.78497e-12)
(1.17167e-10 1.37264e-09 -4.09072e-12)
(4.34495e-10 5.63986e-10 -7.17959e-12)
(4.31008e-10 5.61752e-10 -6.7907e-12)
(1.11277e-10 1.36473e-09 -4.33392e-12)
(1.13375e-10 1.37418e-09 -5.02498e-12)
(4.1613e-10 8.06683e-11 -3.1046e-12)
(4.17684e-10 8.09992e-11 -3.3095e-12)
(4.25388e-10 5.54834e-10 -7.11433e-12)
(4.26448e-10 5.58518e-10 -6.93156e-12)
(4.11026e-10 7.83104e-11 -2.73564e-12)
(4.12138e-10 7.87189e-11 -2.80281e-12)
(1.05213e-10 1.33907e-09 -4.75113e-12)
(1.06247e-10 1.34541e-09 -5.1849e-12)
(1.09763e-10 1.35348e-09 -4.73458e-12)
(1.07939e-10 1.34866e-09 -5.5567e-12)
(4.13516e-10 8.05298e-11 -3.06138e-12)
(4.12565e-10 7.96036e-11 -3.05173e-12)
(4.09726e-10 7.78553e-11 -2.69059e-12)
(4.08723e-10 7.72154e-11 -2.77342e-12)
(1.04484e-10 1.33221e-09 -4.66225e-12)
(1.03603e-10 1.32702e-09 -5.00011e-12)
(4.18668e-10 5.41758e-10 -6.41214e-12)
(4.1677e-10 5.39147e-10 -6.92879e-12)
(1.01347e-10 1.31609e-09 -5.16413e-12)
(1.02512e-10 1.3222e-09 -4.99917e-12)
(4.06557e-10 7.60509e-11 -3.00889e-12)
(4.07793e-10 7.65792e-11 -2.7991e-12)
(4.12734e-10 5.32759e-10 -7.74446e-12)
(4.14833e-10 5.3608e-10 -7.18543e-12)
(4.00223e-10 7.30101e-11 -3.80164e-12)
(4.02216e-10 7.38394e-11 -3.60031e-12)
(9.37446e-11 1.28635e-09 -4.61551e-12)
(9.61532e-11 1.29513e-09 -5.14597e-12)
(9.99568e-11 1.30943e-09 -5.2374e-12)
(9.82487e-11 1.30249e-09 -5.43129e-12)
(4.0522e-10 7.53915e-11 -3.17579e-12)
(4.03775e-10 7.4669e-11 -3.4442e-12)
(3.98088e-10 7.1997e-11 -3.77108e-12)
(3.95551e-10 7.10045e-11 -3.54035e-12)
(9.0859e-11 1.27651e-09 -3.22239e-12)
(8.73793e-11 1.26522e-09 -9.37025e-13)
(3.97113e-10 5.08984e-10 -3.86112e-12)
(3.93045e-10 5.01786e-10 1.00477e-12)
(7.88672e-11 1.23629e-09 1.07859e-11)
(8.36903e-11 1.252e-09 3.52739e-12)
(3.89816e-10 6.88082e-11 -1.01616e-12)
(3.92945e-10 6.98079e-11 -2.69133e-12)
(3.87681e-10 4.82705e-10 2.57798e-11)
(3.90173e-10 4.93054e-10 1.01571e-11)
(3.7966e-10 6.72353e-11 3.62622e-11)
(3.82154e-10 6.63431e-11 1.82009e-11)
(5.73558e-11 1.13543e-09 1.33019e-10)
(6.21962e-11 1.17222e-09 7.76065e-11)
(7.35857e-11 1.21927e-09 2.32616e-11)
(6.8176e-11 1.19737e-09 4.37312e-11)
(3.87024e-10 6.75956e-11 2.2629e-12)
(3.83961e-10 6.70212e-11 8.02059e-12)
(3.77901e-10 6.81157e-11 7.01201e-11)
(3.66774e-10 7.17154e-11 1.39642e-10)
(5.58852e-11 1.07797e-09 2.20958e-10)
(7.21714e-11 9.61323e-10 3.4444e-10)
(4.7546e-10 1.97484e-10 5.36208e-10)
(1.43752e-10 7.73578e-10 4.63163e-10)
(3.39544e-10 5.9594e-11 3.10191e-10)
(1.8052e-10 7.41042e-10 -5.93142e-12)
(4.72525e-10 2.77708e-10 -6.40908e-12)
(1.74918e-10 7.24883e-10 -6.45343e-12)
(4.65457e-10 2.68919e-10 -6.17225e-12)
(1.71771e-10 7.11559e-10 -6.23376e-12)
(4.59892e-10 2.62095e-10 -5.91451e-12)
(1.67086e-10 6.96268e-10 -7.45077e-12)
(4.52711e-10 2.54111e-10 -7.27804e-12)
(1.5876e-10 6.71988e-10 -3.65875e-12)
(4.41405e-10 2.41212e-10 -5.04283e-12)
(1.55682e-10 6.22844e-10 4.90037e-11)
(4.36052e-10 2.1521e-10 3.75301e-11)
(2.47437e-10 3.60947e-10 4.77506e-10)
(5.21297e-10 6.37626e-11 4.60827e-10)
(1.78809e-11 -1.24482e-11 5.26226e-14)
(3.99743e-10 6.95821e-11 1.26243e-12)
(2.28205e-11 -2.89665e-11 5.52781e-13)
(2.32531e-11 -2.83343e-11 4.40274e-14)
(2.82649e-10 1.33705e-09 4.26149e-13)
(2.35186e-10 1.10562e-09 -6.23354e-12)
(2.44339e-10 1.13616e-09 -7.90316e-12)
(2.48377e-10 1.13831e-09 -5.59863e-12)
(1.76143e-11 -1.21594e-11 -7.81714e-14)
(3.88347e-10 6.29137e-11 -2.82448e-12)
(2.22215e-11 -2.8016e-11 -3.63564e-13)
(2.21729e-11 -2.79468e-11 -3.10605e-13)
(2.57529e-10 1.28783e-09 -5.38401e-12)
(2.14442e-10 1.07192e-09 -7.09832e-12)
(2.15974e-10 1.07751e-09 -7.31628e-12)
(2.2881e-10 1.09189e-09 -7.10957e-12)
(1.71921e-11 -1.18837e-11 -1.42736e-13)
(3.76743e-10 5.71678e-11 -3.99552e-12)
(2.13598e-11 -2.74466e-11 -5.81946e-13)
(2.11824e-11 -2.73244e-11 -5.36182e-13)
(2.3731e-10 1.23502e-09 -4.75024e-12)
(1.93861e-10 1.02599e-09 -7.628e-12)
(1.98054e-10 1.03412e-09 -8.20218e-12)
(2.12305e-10 1.0476e-09 -7.92954e-12)
(1.54407e-11 -1.04261e-11 2.03091e-13)
(3.50473e-10 4.45514e-11 5.3259e-11)
(1.59598e-11 -2.47645e-11 1.23366e-12)
(1.25933e-11 -2.2868e-11 3.56633e-12)
(1.78967e-10 9.16601e-10 1.39972e-10)
(2.66319e-10 1.30918e-09 -5.62787e-12)
(2.25166e-10 1.09825e-09 -8.75185e-12)
(2.35651e-10 1.1109e-09 -8.22027e-12)
(2.21908e-10 1.08869e-09 -7.93985e-12)
(1.77181e-11 -1.22856e-11 -7.21043e-14)
(3.93047e-10 6.55751e-11 -2.8232e-12)
(2.24785e-11 -2.82784e-11 -3.17358e-13)
(2.25412e-11 -2.81304e-11 -3.02364e-13)
(2.50297e-10 1.26579e-09 -5.7951e-12)
(2.09478e-10 1.05864e-09 -7.57311e-12)
(2.23001e-10 1.07314e-09 -7.68053e-12)
(2.07262e-10 1.05317e-09 -7.95407e-12)
(1.74366e-11 -1.20655e-11 -9.93148e-14)
(3.83713e-10 6.04257e-11 -3.29362e-12)
(2.1863e-11 -2.7787e-11 -4.3193e-13)
(2.17653e-11 -2.7718e-11 -3.87409e-13)
(1.93431e-10 1.0046e-09 8.30218e-12)
(1.66896e-11 -1.1497e-11 -1.45816e-13)
(3.65265e-10 5.22045e-11 5.26472e-13)
(2.03006e-11 -2.67476e-11 -5.93372e-13)
(1.9789e-11 -2.64939e-11 -4.04686e-13)
(2.41693e-10 1.12286e-09 -5.49781e-12)
(2.31723e-10 1.10301e-09 -3.6114e-12)
(2.73744e-10 1.32567e-09 -4.04239e-12)
(2.29054e-10 1.1062e-09 -6.48794e-12)
(2.26408e-10 1.08287e-09 -6.90823e-12)
(2.1306e-10 1.06772e-09 -6.82379e-12)
(2.54378e-10 1.2776e-09 -5.42638e-12)
(2.11419e-10 1.06368e-09 -7.21049e-12)
(2.03954e-10 1.02899e-09 -4.41545e-12)
(1.88981e-10 1.0165e-09 -5.93994e-12)
(2.28589e-10 7.17114e-10 3.27928e-10)
(2.548e-10 1.1603e-09 4.91172e-12)
(4.76358e-10 2.88091e-10 -1.87513e-12)
(1.8269e-10 7.58147e-10 -1.85504e-12)
(1.76313e-10 7.33769e-10 -6.89145e-12)
(4.67785e-10 2.74277e-10 -6.50673e-12)
(2.32052e-10 1.10129e-09 -6.89596e-12)
(2.17869e-10 1.08269e-09 -7.07386e-12)
(2.19805e-10 1.08512e-09 -6.75055e-12)
(2.61432e-10 1.29955e-09 -5.56435e-12)
(4.61926e-10 2.66126e-10 -5.78485e-12)
(1.7272e-10 7.18698e-10 -6.13813e-12)
(1.69634e-10 7.04766e-10 -6.84504e-12)
(4.56467e-10 2.58712e-10 -6.53238e-12)
(2.18541e-10 1.06174e-09 -8.18959e-12)
(2.01629e-10 1.04133e-09 -8.37091e-12)
(2.04691e-10 1.04749e-09 -8.10948e-12)
(2.44835e-10 1.25221e-09 -5.88338e-12)
(4.47526e-10 2.48656e-10 -7.43029e-12)
(1.63298e-10 6.85967e-10 -7.17483e-12)
(1.5462e-10 6.52451e-10 9.3956e-12)
(4.35709e-10 2.30899e-10 5.18238e-12)
(1.8257e-10 9.72606e-10 4.5255e-11)
(4.53121e-10 1.84695e-10 1.35718e-10)
(1.7262e-10 5.64825e-10 1.63865e-10)
(4.02211e-10 7.10361e-11 1.34194e-12)
(2.33388e-11 -2.92015e-11 -1.00064e-12)
(3.95718e-10 6.68474e-11 -4.78614e-12)
(2.3095e-11 -2.82492e-11 -1.01664e-12)
(1.77863e-11 -1.23518e-11 -2.18912e-13)
(2.25911e-11 -2.83621e-11 -7.42522e-13)
(3.90622e-10 6.385e-11 -3.3971e-12)
(2.22655e-11 -2.80764e-11 -3.79725e-13)
(2.24255e-11 -2.80874e-11 -5.64131e-13)
(1.76312e-11 -1.22305e-11 -1.11422e-13)
(3.8624e-10 6.15546e-11 -3.05063e-12)
(2.20509e-11 -2.78977e-11 -4.41325e-13)
(1.75063e-11 -1.21281e-11 -9.01438e-14)
(2.19436e-11 -2.78523e-11 -3.32876e-13)
(3.80722e-10 5.89091e-11 -3.76078e-12)
(2.15186e-11 -2.75584e-11 -4.57078e-13)
(2.16445e-11 -2.76409e-11 -5.17633e-13)
(1.73363e-11 -1.19878e-11 -1.20783e-13)
(3.716e-10 5.49463e-11 -3.29146e-12)
(2.09562e-11 -2.71622e-11 -6.46638e-13)
(1.70048e-11 -1.17158e-11 -1.60349e-13)
(2.06955e-11 -2.69862e-11 -5.62993e-13)
(3.58644e-10 4.88362e-11 1.31779e-11)
(1.78699e-11 -2.56723e-11 3.19246e-13)
(1.90028e-11 -2.61212e-11 -2.05239e-13)
(1.62195e-11 -1.11689e-11 -4.12054e-14)
(3.0955e-10 3.28787e-11 2.08346e-10)
(8.33816e-12 -1.79672e-11 8.0905e-12)
(1.52876e-11 -6.32728e-12 2.10005e-12)
(4.67687e-14 8.45251e-12 8.12473e-12)
(3.88186e-10 4.89778e-10 -1.22276e-12)
(3.92138e-10 4.9254e-10 2.38395e-12)
(4.88497e-10 3.68212e-10 2.26438e-12)
(3.91257e-10 7.77065e-10 1.65517e-12)
(3.77615e-10 4.84389e-10 -4.62791e-12)
(4.66942e-10 3.67236e-10 -5.85932e-12)
(3.69463e-10 7.59206e-10 -6.72028e-12)
(3.74959e-10 4.7996e-10 -6.84907e-12)
(3.65436e-10 4.65388e-10 -5.8215e-12)
(3.67087e-10 4.67463e-10 -5.93061e-12)
(4.59918e-10 3.51834e-10 -5.30597e-12)
(3.60161e-10 7.37217e-10 -6.9105e-12)
(3.63822e-10 4.63033e-10 -5.76754e-12)
(4.56292e-10 3.48283e-10 -5.43412e-12)
(3.5684e-10 7.30134e-10 -6.88209e-12)
(3.62614e-10 4.60826e-10 -5.87951e-12)
(3.50764e-10 4.45267e-10 -7.63452e-12)
(3.53498e-10 4.48501e-10 -7.34208e-12)
(4.44833e-10 3.35809e-10 -6.91348e-12)
(3.44889e-10 7.07785e-10 -8.64495e-12)
(3.47722e-10 4.4156e-10 -7.49559e-12)
(4.38516e-10 3.29632e-10 -6.6115e-12)
(3.38034e-10 6.96517e-10 -7.95293e-12)
(3.44193e-10 4.37341e-10 -6.90795e-12)
(3.23045e-10 3.93188e-10 6.319e-11)
(3.25471e-10 4.05177e-10 3.36787e-11)
(4.19098e-10 2.94554e-10 5.09111e-11)
(3.16832e-10 6.32587e-10 6.8419e-11)
(3.2226e-10 3.71593e-10 1.11867e-10)
(4.18914e-10 2.52013e-10 1.74404e-10)
(3.25852e-10 5.54171e-10 2.06838e-10)
(3.24342e-10 3.22855e-10 1.98991e-10)
(6.35709e-10 9.12321e-11 1.90561e-12)
(3.03136e-11 1.20196e-09 4.96132e-12)
(6.04002e-10 9.79357e-11 -4.23699e-12)
(2.5353e-11 1.16592e-09 -2.15167e-12)
(3.75438e-10 4.7749e-10 -6.83444e-12)
(3.69411e-10 7.52316e-10 -7.54577e-12)
(4.68902e-10 3.5942e-10 -5.88094e-12)
(3.72908e-10 4.75013e-10 -6.50103e-12)
(2.06612e-11 1.15907e-09 -5.38174e-12)
(6.12643e-10 8.97837e-11 -5.71293e-12)
(3.68072e-10 4.69408e-10 -6.36601e-12)
(3.6959e-10 4.71969e-10 -6.43088e-12)
(3.62573e-10 7.42955e-10 -7.59834e-12)
(4.61786e-10 3.55818e-10 -6.12574e-12)
(6.02543e-10 8.65183e-11 -4.90044e-12)
(1.65266e-11 1.13511e-09 -5.34612e-12)
(1.8621e-11 1.14293e-09 -5.61249e-12)
(6.02981e-10 8.95687e-11 -5.10923e-12)
(5.98218e-10 8.5185e-11 -4.65042e-12)
(1.5928e-11 1.12392e-09 -5.18062e-12)
(3.61326e-10 4.58779e-10 -5.92547e-12)
(3.54018e-10 7.23986e-10 -7.20247e-12)
(4.53543e-10 3.44709e-10 -5.59707e-12)
(3.59641e-10 4.56561e-10 -6.30867e-12)
(1.46917e-11 1.11493e-09 -5.50903e-12)
(5.9573e-10 8.31349e-11 -5.08335e-12)
(3.5578e-10 4.51386e-10 -7.09046e-12)
(3.57798e-10 4.5406e-10 -6.64001e-12)
(3.50004e-10 7.16479e-10 -8.06066e-12)
(4.49598e-10 3.40651e-10 -6.3686e-12)
(5.86976e-10 7.84364e-11 -6.41778e-12)
(1.02001e-11 1.09031e-09 -5.74811e-12)
(1.30113e-11 1.10343e-09 -5.91476e-12)
(5.91633e-10 8.10962e-11 -5.72364e-12)
(5.8076e-10 7.52207e-11 -6.23691e-12)
(6.3318e-12 1.07293e-09 -3.36539e-12)
(3.40372e-10 4.32528e-10 -5.14391e-12)
(3.29586e-10 6.81648e-10 -2.61277e-12)
(4.30838e-10 3.21488e-10 -2.89056e-12)
(3.36129e-10 4.27099e-10 -1.76405e-12)
(1.22475e-12 1.04968e-09 5.24136e-12)
(5.73675e-10 7.13138e-11 -2.83944e-12)
(3.28201e-10 4.13773e-10 1.55054e-11)
(3.32115e-10 4.2085e-10 4.61629e-12)
(3.21058e-10 6.61799e-10 1.57956e-11)
(4.23261e-10 3.10551e-10 1.05669e-11)
(5.71196e-10 6.32301e-11 5.06066e-11)
(-5.72515e-12 9.65397e-10 1.03375e-10)
(-4.07137e-12 1.01698e-09 3.09253e-11)
(5.68215e-10 6.70823e-11 1.01782e-11)
(5.92359e-10 5.83475e-11 1.84326e-10)
(1.25271e-11 8.37195e-10 2.97526e-10)
(3.42278e-10 2.1927e-10 3.57011e-10)
(3.08713e-10 2.06748e-10 3.61561e-10)
(4.55126e-10 2.69086e-10 5.4379e-10)
(4.74685e-10 2.3207e-11 5.73659e-10)
(2.3449e-10 3.76962e-11 3.12026e-10)
(1.92551e-10 4.81245e-10 6.00091e-10)
(6.39343e-10 -7.14131e-11 7.61884e-10)
(3.22866e-12 7.34352e-12 1.36367e-11)
(2.40221e-10 1.03216e-09 7.26928e-12)
(4.98014e-10 2.77761e-10 4.05953e-12)
(1.98089e-10 7.5808e-10 3.98264e-12)
(4.78428e-10 3.73353e-10 2.94689e-12)
(5.8058e-10 1.74655e-10 2.64727e-12)
(2.19136e-10 9.99707e-10 -5.42694e-12)
(3.70548e-10 7.5522e-10 -7.44539e-12)
(2.2672e-11 1.16312e-09 -5.20896e-12)
(2.19313e-10 9.9789e-10 -6.73752e-12)
(4.64211e-10 2.88456e-10 -5.48624e-12)
(1.77542e-10 7.48629e-10 -4.55815e-12)
(1.79902e-10 7.37117e-10 -6.70379e-12)
(4.72826e-10 2.74441e-10 -6.37848e-12)
(5.58003e-10 1.78519e-10 -6.86019e-12)
(4.69175e-10 3.61828e-10 -7.54202e-12)
(6.11251e-10 9.20103e-11 -4.14475e-12)
(5.62444e-10 1.72401e-10 -6.03877e-12)
(1.75125e-10 7.28224e-10 -6.69425e-12)
(4.63364e-10 2.73216e-10 -6.49017e-12)
(3.61808e-10 7.40055e-10 -7.12901e-12)
(2.11271e-10 9.77494e-10 -6.843e-12)
(2.12344e-10 9.80446e-10 -6.89433e-12)
(1.73003e-11 1.13964e-09 -5.8003e-12)
(4.63047e-10 2.68019e-10 -5.8578e-12)
(1.73958e-10 7.21701e-10 -6.27346e-12)
(4.61563e-10 3.53286e-10 -5.93729e-12)
(5.52781e-10 1.6801e-10 -4.88805e-12)
(5.53006e-10 1.70089e-10 -5.8339e-12)
(6.04554e-10 8.70348e-11 -4.73349e-12)
(2.07905e-10 9.64066e-10 -6.55291e-12)
(3.55805e-10 7.27179e-10 -6.91124e-12)
(1.5229e-11 1.12008e-09 -5.40708e-12)
(2.06782e-10 9.60373e-10 -6.89281e-12)
(4.59175e-10 2.65076e-10 -5.80442e-12)
(1.72359e-10 7.14389e-10 -6.10241e-12)
(1.70859e-10 7.07999e-10 -6.50812e-12)
(4.5702e-10 2.61296e-10 -6.14267e-12)
(5.47197e-10 1.64921e-10 -5.18564e-12)
(4.55523e-10 3.46242e-10 -5.50331e-12)
(5.98434e-10 8.34481e-11 -4.73921e-12)
(5.45948e-10 1.6352e-10 -4.79792e-12)
(1.68583e-10 7.0017e-10 -7.18632e-12)
(4.53268e-10 2.5737e-10 -6.91081e-12)
(3.47826e-10 7.12449e-10 -8.40355e-12)
(1.99897e-10 9.40304e-10 -8.0923e-12)
(2.02048e-10 9.45811e-10 -7.77903e-12)
(1.15854e-11 1.09776e-09 -6.0205e-12)
(4.48931e-10 2.52398e-10 -7.46637e-12)
(1.65409e-10 6.91049e-10 -7.52103e-12)
(4.4781e-10 3.38158e-10 -6.72536e-12)
(5.37381e-10 1.57772e-10 -6.01707e-12)
(5.39708e-10 1.59557e-10 -6.18765e-12)
(5.90651e-10 7.92017e-11 -6.05653e-12)
(1.91194e-10 9.18016e-10 -5.51495e-12)
(3.34131e-10 6.8971e-10 -6.21261e-12)
(3.76259e-12 1.06274e-09 -3.41966e-13)
(1.87584e-10 9.08331e-10 -2.24701e-12)
(4.43203e-10 2.46035e-10 -6.71655e-12)
(1.61191e-10 6.7907e-10 -6.07741e-12)
(1.56543e-10 6.62643e-10 9.95675e-13)
(4.37018e-10 2.37265e-10 -1.38489e-12)
(5.27462e-10 1.5151e-10 -5.72267e-12)
(4.35194e-10 3.25684e-10 -5.54534e-12)
(5.78319e-10 7.27706e-11 -5.09178e-12)
(5.23835e-10 1.48449e-10 -3.55647e-12)
(1.54172e-10 6.38946e-10 2.40135e-11)
(4.33552e-10 2.24568e-10 1.7179e-11)
(3.18158e-10 6.49263e-10 3.56115e-11)
(1.76738e-10 8.47521e-10 6.54691e-11)
(1.77646e-10 8.67217e-10 3.40563e-11)
(-5.97411e-12 9.95423e-10 5.78307e-11)
(4.41225e-10 2.03454e-10 7.34421e-11)
(1.61318e-10 5.99879e-10 9.15335e-11)
(4.20825e-10 3.03491e-10 2.50609e-11)
(5.12417e-10 1.30515e-10 3.75644e-11)
(5.12623e-10 1.3718e-10 1.74932e-11)
(5.68634e-10 6.47888e-11 2.53057e-11)
(2.1044e-10 6.66892e-10 3.24228e-10)
(3.55994e-10 4.39825e-10 3.4442e-10)
(5.60618e-11 6.78725e-10 4.57471e-10)
(2.8303e-10 4.86926e-10 4.8603e-10)
(4.77073e-10 1.46317e-10 2.50016e-10)
(1.95841e-10 4.97683e-10 2.85341e-10)
(3.90917e-10 1.61941e-10 7.39677e-10)
(6.31226e-10 -1.11057e-10 8.17253e-10)
(5.11276e-10 8.077e-11 2.60112e-10)
(4.21024e-10 1.7886e-10 3.25621e-10)
(6.05079e-10 5.0851e-11 3.68169e-10)
(5.13855e-10 1.32071e-11 5.01082e-10)
(4.75859e-10 3.70016e-10 2.90681e-13)
(5.76711e-10 1.76765e-10 2.65944e-12)
(5.58716e-10 1.8372e-10 -2.07602e-12)
(6.16687e-10 9.67656e-11 -5.12384e-12)
(4.07982e-10 6.50177e-11 1.45837e-12)
(1.78771e-11 -1.26984e-11 9.56527e-15)
(3.94119e-10 7.09628e-11 -3.37096e-12)
(1.79061e-11 -1.23142e-11 -1.93188e-13)
(2.42452e-10 1.12235e-09 -4.77394e-12)
(2.76858e-10 1.31722e-09 -1.46117e-12)
(2.60702e-10 1.16411e-09 -1.89866e-13)
(2.92373e-10 1.3858e-09 2.38959e-12)
(3.77619e-10 7.68667e-10 -3.58163e-12)
(2.3058e-10 1.02513e-09 -9.17064e-13)
(2.19894e-10 1.00773e-09 -4.56925e-12)
(2.72582e-11 1.18285e-09 2.53755e-12)
(4.58242e-10 3.50062e-10 -5.24824e-12)
(5.50661e-10 1.67328e-10 -4.90327e-12)
(5.48466e-10 1.66405e-10 -4.59111e-12)
(6.01058e-10 8.54468e-11 -4.82026e-12)
(3.89379e-10 6.35316e-11 -2.90871e-12)
(1.7624e-11 -1.21752e-11 -7.98743e-14)
(3.86725e-10 6.27019e-11 -2.9914e-12)
(1.75579e-11 -1.2128e-11 -8.91205e-14)
(2.27693e-10 1.08664e-09 -6.86476e-12)
(2.56026e-10 1.28181e-09 -5.31506e-12)
(2.30478e-10 1.09723e-09 -7.13155e-12)
(2.59416e-10 1.29483e-09 -5.55026e-12)
(3.58391e-10 7.33787e-10 -6.92184e-12)
(2.0975e-10 9.73229e-10 -6.7287e-12)
(2.08684e-10 9.68238e-10 -6.75977e-12)
(1.60071e-11 1.12987e-09 -5.04414e-12)
(4.42236e-10 3.3278e-10 -7.04238e-12)
(5.34362e-10 1.56054e-10 -6.58705e-12)
(5.31262e-10 1.53795e-10 -6.03642e-12)
(5.85103e-10 7.63434e-11 -6.46974e-12)
(3.78462e-10 5.84491e-11 -3.88147e-12)
(1.72751e-11 -1.19188e-11 -1.258e-13)
(3.73914e-10 5.64767e-11 -3.80374e-12)
(1.70994e-11 -1.17948e-11 -1.48869e-13)
(2.08524e-10 1.03866e-09 -6.8591e-12)
(2.32591e-10 1.22416e-09 -3.09815e-12)
(2.15727e-10 1.05492e-09 -8.29099e-12)
(2.41414e-10 1.24399e-09 -5.58439e-12)
(3.41827e-10 7.02644e-10 -8.61092e-12)
(1.97353e-10 9.3387e-10 -7.86324e-12)
(1.94455e-10 9.2658e-10 -7.33229e-12)
(8.24742e-12 1.08278e-09 -5.01471e-12)
(4.18317e-10 2.8087e-10 9.38878e-11)
(5.11374e-10 1.23717e-10 7.24434e-11)
(5.14799e-10 1.08272e-10 1.36024e-10)
(5.7849e-10 6.1662e-11 9.75756e-11)
(3.55231e-10 4.69923e-11 2.78445e-11)
(1.59259e-11 -1.0903e-11 9.95697e-14)
(3.41417e-10 4.0351e-11 1.03958e-10)
(1.50862e-11 -9.44075e-12 7.72401e-13)
(1.88882e-10 8.51388e-10 2.21834e-10)
(1.78945e-10 9.50279e-10 8.21903e-11)
(3.18305e-10 6.06707e-10 1.21372e-10)
(1.7889e-10 8.18061e-10 1.17618e-10)
(1.87072e-10 7.69221e-10 2.00545e-10)
(-1.66545e-12 9.20051e-10 1.78175e-10)
(2.7018e-10 1.32292e-09 -5.51416e-12)
(2.39413e-10 1.11983e-09 -7.72272e-12)
(2.16064e-10 9.92565e-10 -7.52227e-12)
(3.65354e-10 7.47689e-10 -7.77224e-12)
(1.93403e-11 1.15086e-09 -5.14378e-12)
(2.13306e-10 9.85121e-10 -7.55056e-12)
(2.33461e-10 1.10394e-09 -7.30353e-12)
(2.63602e-10 1.30112e-09 -5.49771e-12)
(5.59227e-10 1.72155e-10 -5.07452e-12)
(4.65006e-10 3.57944e-10 -5.4879e-12)
(6.07608e-10 8.97057e-11 -5.98621e-12)
(5.54124e-10 1.72338e-10 -5.01626e-12)
(3.95545e-10 6.53728e-11 -3.32051e-12)
(1.77132e-11 -1.23359e-11 -9.69169e-14)
(3.90665e-10 6.55433e-11 -3.41972e-12)
(1.7692e-11 -1.22213e-11 -1.15919e-13)
(2.52531e-10 1.27199e-09 -5.62703e-12)
(2.24897e-10 1.07817e-09 -7.30449e-12)
(2.05344e-10 9.5597e-10 -7.14251e-12)
(3.52229e-10 7.20493e-10 -7.64911e-12)
(1.37911e-11 1.1099e-09 -5.69564e-12)
(2.038e-10 9.51027e-10 -7.63416e-12)
(2.21023e-10 1.06732e-09 -7.97916e-12)
(2.47827e-10 1.25892e-09 -5.91546e-12)
(5.43932e-10 1.6248e-10 -5.44885e-12)
(4.52001e-10 3.42651e-10 -5.98284e-12)
(5.94775e-10 8.16294e-11 -5.37407e-12)
(5.41889e-10 1.61096e-10 -5.40083e-12)
(3.84665e-10 6.1352e-11 -3.07378e-12)
(1.74818e-11 -1.20709e-11 -8.73558e-14)
(3.8185e-10 6.00885e-11 -3.53586e-12)
(1.73916e-11 -1.20109e-11 -1.08639e-13)
(1.98904e-10 1.01746e-09 6.94026e-14)
(1.83804e-10 8.96766e-10 4.16577e-12)
(3.25233e-10 6.72592e-10 4.04648e-12)
(-1.69317e-12 1.03526e-09 1.47039e-11)
(1.80318e-10 8.83584e-10 1.50683e-11)
(1.87884e-10 9.89546e-10 2.20625e-11)
(5.19398e-10 1.4551e-10 -4.11721e-13)
(4.27179e-10 3.16313e-10 1.7288e-12)
(5.71325e-10 6.87212e-11 1.99669e-12)
(5.16216e-10 1.41201e-10 6.39246e-12)
(3.68175e-10 5.39829e-11 -1.88754e-12)
(1.68668e-11 -1.15981e-11 -1.49324e-13)
(3.61629e-10 5.08661e-11 5.31658e-12)
(1.64733e-11 -1.13447e-11 -8.77383e-14)
(3.45723e-10 5.48868e-10 4.47615e-10)
(3.05107e-10 -6.28835e-11 4.31747e-10)
(7.25647e-12 1.25884e-11 3.16188e-11)
(-5.30642e-12 -1.77035e-11 4.21672e-11)
(1.83707e-10 7.73338e-11 2.30221e-10)
(3.94696e-10 7.79014e-10 4.70576e-12)
(4.54173e-10 5.76646e-10 4.09278e-12)
(4.93001e-10 3.75138e-10 1.38409e-12)
(4.97973e-10 2.79158e-10 7.86303e-12)
(2.00914e-10 7.57156e-10 8.43438e-12)
(4.8897e-10 3.75641e-10 2.02281e-12)
(4.10441e-10 6.50241e-11 2.11611e-12)
(3.87887e-10 7.74851e-10 -1.19104e-12)
(2.54395e-10 1.15217e-09 -4.10258e-12)
(2.63982e-10 1.16786e-09 6.23177e-12)
(4.37313e-10 5.77489e-10 -6.2895e-13)
(4.89461e-10 2.83774e-10 5.09728e-13)
(1.90523e-10 7.59402e-10 5.27952e-13)
(4.13016e-10 6.41124e-11 4.09818e-13)
(3.72442e-10 7.57699e-10 -7.25865e-12)
(4.27415e-10 5.71787e-10 -6.4878e-12)
(4.73131e-10 3.70359e-10 -7.48376e-12)
(4.68678e-10 2.83725e-10 -6.05938e-12)
(1.79713e-10 7.43409e-10 -5.25378e-12)
(4.31322e-10 5.64891e-10 -7.69829e-12)