/*--------------------------------*- C++ -*----------------------------------*\
| =========                 |                                                 |
| \\      /  F ield         | OpenFOAM: The Open Source CFD Toolbox           |
|  \\    /   O peration     | Version:  2012                                  |
|   \\  /    A nd           | Website:  www.openfoam.com                      |
|    \\/     M anipulation  |                                                 |
\*---------------------------------------------------------------------------*/
FoamFile
{
    version     2.0;
    format      ascii;
    class       volVectorField;
    location    "0.104/solid";
    object      sigmaMaxDir;
}
// * * * * * * * * * * * * * * * * * * * * * * * * * * * * * * * * * * * * * //

dimensions      [1 -1 -2 0 0 0 0];


internalField   nonuniform List<vector> 
3125
(
(0.981991 -0.187784 0.020767)
(0.982627 -0.185097 0.0135082)
(0.98343 -0.181288 -0.000202241)
(0.983461 -0.181121 -0.000731002)
(0.984009 -0.178108 0.00215299)
(0.984178 -0.177148 0.00356973)
(0.981347 -0.178757 0.0707441)
(0.973652 -0.196126 0.116346)
(0.983106 -0.183014 0.00288449)
(0.983245 -0.182282 0.00147382)
(0.98358 -0.180475 -2.31393e-05)
(0.983654 -0.180069 0.000340032)
(0.984784 -0.173368 0.0119947)
(0.984899 -0.172185 0.0180446)
(0.981835 -0.189721 0.00247876)
(0.90761 -0.419423 0.018112)
(0.982504 0.0448988 0.180749)
(0.120423 -0.0259194 0.992384)
(0.907452 -0.420085 -0.0076525)
(-0.00192763 0.0127765 0.999917)
(0.91023 -0.413998 0.00931514)
(0.990489 0.048006 0.128949)
(0.982894 -0.18417 -0.000596654)
(0.998998 0.0443518 0.0060036)
(0.0816489 -0.0141989 0.99656)
(0.909862 -0.414828 -0.00834231)
(0.00769126 0.00488874 0.999958)
(0.983372 -0.1816 -0.000475509)
(0.90882 -0.417186 -0.00167107)
(0.03775 -0.0015231 0.999286)
(0.908794 -0.41724 -0.00195526)
(0.0348163 -0.000759199 0.999393)
(0.908822 -0.417183 -0.001415)
(0.983478 -0.181023 -0.00115997)
(0.0107151 0.003963 0.999935)
(0.908653 -0.41754 -0.00305676)
(0.0229786 0.00382136 0.999729)
(0.983864 -0.178914 0.00142043)
(0.90829 -0.418336 -0.00206384)
(0.0603335 -0.00272362 0.998175)
(0.90832 -0.418274 -0.00137017)
(0.0746139 -0.00692854 0.997188)
(0.908236 -0.418459 -0.000446317)
(0.984372 -0.176024 0.00529871)
(0.0313982 0.00297346 0.999503)
(0.908162 -0.418618 -0.000387151)
(0.965197 -0.249038 -0.0798381)
(0.98398 -0.172987 0.0431144)
(0.898452 -0.433995 0.0665737)
(0.96376 -0.263286 -0.0429695)
(0.903675 -0.426568 0.0375654)
(0.966432 -0.256184 0.0194504)
(0.884882 -0.451725 0.113701)
(0.9456 -0.256645 0.199934)
(0.964906 -0.258751 -0.0447632)
(0.84251 -0.499371 0.202004)
(0.815203 -0.579146 0.0058809)
(0.0315553 0.0169415 0.999358)
(0.816699 -0.577059 -0.0022611)
(0.815623 -0.578576 -0.00303983)
(0.0224242 0.0111516 0.999686)
(0.00199104 -0.00392453 0.99999)
(-0.0172106 0.0141971 0.999751)
(0.982961 -0.183812 -0.000563137)
(0.908848 -0.417127 0.0010178)
(0.0553135 -0.0048582 0.998457)
(0.908699 -0.417429 -0.00433296)
(0.0100031 0.00505046 0.999937)
(0.00466808 -0.00138183 0.999988)
(0.814644 -0.57996 -0.000949904)
(0.814838 -0.57963 -0.00827212)
(0.030101 0.00105416 0.999546)
(0.983315 -0.18191 -0.00099682)
(0.90928 -0.416186 -0.000242433)
(0.0278474 0.00101903 0.999612)
(0.909065 -0.416633 -0.00426068)
(0.81384 -0.581088 -0.00101589)
(0.814042 -0.580765 -0.0069032)
(0.00472189 0.00253552 0.999986)
(0.00451801 0.00113392 0.999989)
(0.00811672 0.00388272 0.99996)
(0.00379911 0.000416599 0.999993)
(0.814848 -0.579638 -0.00652475)
(0.81427 -0.580483 -0.00178837)
(0.813809 -0.581097 -0.0064283)
(0.813409 -0.581691 -0.00131988)
(0.00428399 0.00232551 0.999988)
(0.00375788 0.001391 0.999992)
(0.0109759 0.00372696 0.999933)
(0.983518 -0.18081 -0.000365286)
(0.908498 -0.417882 -0.00233486)
(0.0425949 -0.00134759 0.999092)
(0.908527 -0.417823 -0.00152599)
(0.00562807 0.00225296 0.999982)
(0.00447205 0.00174426 0.999988)
(0.813 -0.582261 -0.00161143)
(0.813287 -0.581824 -0.00664636)
(0.0497066 -0.00156739 0.998763)
(0.983746 -0.179567 0.000537596)
(0.908456 -0.417977 -0.00154977)
(0.0163441 0.00401661 0.999858)
(0.908379 -0.41814 -0.00269795)
(0.811894 -0.583799 -0.0025586)
(0.812351 -0.583119 -0.00763171)
(0.0101188 0.00300553 0.999944)
(0.00807675 0.00265929 0.999964)
(0.00612049 0.00241328 0.999978)
(0.00724711 0.00235141 0.999971)
(0.812909 -0.582347 -0.00707606)
(0.812479 -0.582986 -0.00224183)
(0.811759 -0.583941 -0.00777306)
(0.811211 -0.584751 -0.00158604)
(0.0112368 0.00328804 0.999931)
(0.034833 0.00089626 0.999393)
(0.984583 -0.174725 0.00824453)
(0.907771 -0.419437 0.00496076)
(0.222084 -0.0556174 0.97344)
(0.908008 -0.418943 0.00267629)
(0.810534 -0.585679 0.00377698)
(0.811074 -0.584912 -0.00608951)
(0.965455 -0.253013 -0.0623041)
(0.984776 -0.171689 0.0271702)
(0.907181 -0.420584 0.0114922)
(0.922383 -0.240067 -0.302619)
(0.906121 -0.422539 0.0201178)
(0.806524 -0.586259 0.0762842)
(0.809753 -0.586231 0.0251452)
(0.810466 -0.585784 0.00134636)
(0.809828 -0.586267 0.0216765)
(0.804132 -0.586311 0.0980408)
(0.758186 -0.601082 0.252694)
(0.961991 -0.271019 0.0334975)
(0.673492 -0.648651 0.354485)
(0.69542 -0.635142 0.336132)
(0.917524 -0.394889 0.0470286)
(-0.656487 0.702439 -0.274962)
(0.973309 -0.22645 0.037295)
(0.116372 -0.0380824 0.992475)
(0.934737 -0.354173 0.0287839)
(0.851799 -0.100568 0.514124)
(0.974696 -0.223448 0.00622226)
(0.125238 -0.0408452 0.991286)
(0.936536 -0.344053 0.0672848)
(0.702895 -0.0615319 0.708627)
(0.973125 -0.216164 0.0793748)
(0.9362 -0.35131 0.0105037)
(0.746366 -0.0783089 0.660913)
(0.976096 -0.214057 -0.0376227)
(0.97596 -0.0970064 -0.19517)
(-0.026695 0.0226954 0.999386)
(0.939344 -0.342758 0.0122221)
(0.93944 -0.340811 -0.0360714)
(0.981914 -0.095416 -0.163528)
(0.976202 -0.21574 0.0220437)
(0.976112 -0.212375 0.0458434)
(0.00526064 0.0162083 0.999855)
(0.940053 -0.34092 0.00855698)
(0.645641 -0.0527155 0.76182)
(0.976743 -0.214374 0.00398471)
(0.940452 -0.338147 0.0347468)
(0.554994 -0.0444468 0.830666)
(0.976026 -0.214782 0.0352297)
(0.990597 -0.0964803 0.0970023)
(0.0405179 -0.00260997 0.999175)
(0.938885 -0.343601 -0.0208091)
(0.976156 -0.215238 -0.0281565)
(0.939073 -0.342473 0.029236)
(0.991219 -0.0963454 0.0905672)
(0.976272 -0.214912 -0.0265722)
(0.0221178 -0.000470368 0.999755)
(0.939262 -0.342212 0.0260374)
(0.99223 -0.0952608 0.0800304)
(0.976169 -0.214259 0.0344462)
(0.93917 -0.342811 -0.020999)
(0.987821 -0.0957285 0.122662)
(0.976239 -0.214714 -0.0292467)
(0.994234 -0.0958509 0.0480691)
(0.00908305 0.0038773 0.999951)
(0.939256 -0.342406 0.0235854)
(0.939194 -0.342544 -0.0240568)
(0.99244 -0.0962974 0.0760927)
(0.976219 -0.214385 0.0321736)
(0.976176 -0.214312 0.0339124)
(0.0284764 0.00155447 0.999593)
(0.939242 -0.342742 -0.0187414)
(0.989368 -0.0950605 0.110065)
(0.976349 -0.214571 -0.0265062)
(0.939381 -0.341733 0.0279703)
(0.993263 -0.0960335 0.0648578)
(0.976361 -0.212953 0.0370208)
(0.988746 -0.0932946 0.116953)
(0.0551804 -0.00212429 0.998474)
(0.939325 -0.342581 -0.0174936)
(0.976617 -0.213636 -0.0240767)
(0.939525 -0.341127 0.0304343)
(0.990602 -0.0933894 0.0999349)
(0.976697 -0.213273 -0.0240162)
(0.0339497 0.000849822 0.999423)
(0.939627 -0.341172 0.0264972)
(0.991604 -0.0924292 0.0904372)
(0.976512 -0.212428 0.0360491)
(0.939507 -0.341961 -0.0197197)
(0.988959 -0.0932237 0.115195)
(0.976971 -0.212315 -0.0212091)
(0.992294 -0.0911324 0.0839454)
(0.0429897 -0.00108314 0.999075)
(0.939764 -0.340745 0.0271374)
(0.939657 -0.341669 -0.0175162)
(0.989792 -0.0919416 0.108894)
(0.976676 -0.21142 0.0374824)
(0.976524 -0.211935 0.0385387)
(0.0698786 -0.00528934 0.997541)
(0.939482 -0.342226 -0.0159458)
(0.988788 -0.0918858 0.117708)
(0.976864 -0.212749 -0.0217905)
(0.939687 -0.340593 0.0313939)
(0.990697 -0.0919337 0.100335)
(0.974733 -0.217799 0.0495861)
(0.995083 -0.0948606 0.0284786)
(0.963751 -0.262946 -0.0452077)
(0.937264 -0.348561 -0.00639729)
(0.976596 -0.215045 -0.00394869)
(0.936127 -0.350208 0.0319576)
(0.994808 -0.0975051 0.0291508)
(0.975164 -0.221007 0.0145071)
(0.96598 -0.252175 -0.0573666)
(0.932861 -0.358481 0.0355113)
(0.993385 -0.106531 0.0428618)
(0.971845 -0.226634 0.0644602)
(0.934834 -0.354982 0.00852256)
(0.993981 -0.102162 0.0395555)
(0.960975 -0.263094 0.0854913)
(0.982041 -0.149342 0.115293)
(0.967432 -0.252972 -0.00898622)
(0.905628 -0.418324 0.0695959)
(0.914066 -0.401822 0.054974)
(0.985162 -0.135054 0.105907)
(0.950379 -0.290045 0.112488)
(0.96456 -0.245945 0.0955773)
(0.961813 -0.273506 -0.0104438)
(0.92875 -0.370098 0.0212496)
(0.991723 -0.113702 0.0596506)
(0.971343 -0.234045 0.0414192)
(0.924375 -0.377799 0.0528946)
(0.989184 -0.122012 0.081409)
(0.912072 -0.407445 0.0459658)
(0.852385 -0.518921 0.0645069)
(0.813793 -0.581153 0.00134364)
(0.851549 -0.524077 -0.014419)
(0.915256 -0.397166 0.0675628)
(0.913822 -0.405961 -0.0111797)
(0.813263 -0.58187 0.00554302)
(0.849158 -0.526144 0.0458676)
(0.0377896 0.0143561 0.999183)
(0.0333358 0.0164811 0.999308)
(0.0392278 0.0171615 0.999083)
(0.0373366 0.00298922 0.999298)
(0.0221427 0.00676542 0.999732)
(0.037898 0.00775352 0.999252)
(0.036454 0.0221909 0.999089)
(0.00974028 -0.00622911 0.999933)
(0.917184 -0.397827 0.0225217)
(0.918382 -0.393251 -0.0439238)
(0.856944 -0.514944 -0.0219085)
(0.817262 -0.576267 0.000179811)
(0.857519 -0.512931 0.0395443)
(0.918504 -0.395387 -0.00438048)
(0.919664 -0.391283 0.0333986)
(0.855286 -0.517555 0.0249535)
(0.816749 -0.576935 -0.0081803)
(0.855736 -0.514491 -0.0549008)
(0.018148 0.0110431 0.999774)
(-0.011247 -0.00845653 0.999901)
(0.0105703 0.00247907 0.999941)
(0.0301272 0.00696834 0.999522)
(0.00796054 0.00719214 0.999942)
(0.0036221 0.00197024 0.999991)
(0.00336474 -0.00362733 0.999988)
(0.000465448 -0.0042738 0.999991)
(0.00439105 -0.000731359 0.99999)
(0.0195321 0.0158226 0.999684)
(0.975588 -0.21664 0.0359971)
(0.994746 -0.0999024 0.0223663)
(0.0598207 -0.00900834 0.998168)
(0.938045 -0.345342 -0.0284657)
(0.975579 -0.216835 -0.0350509)
(0.984194 -0.0981193 0.147428)
(0.938334 -0.344437 0.0298763)
(0.976085 -0.216366 -0.0210502)
(0.0464106 -0.00765693 0.998893)
(0.969974 -0.092482 0.224939)
(0.938913 -0.342591 0.0327722)
(0.96093 -0.0940058 0.260338)
(0.938726 -0.344338 -0.0149693)
(0.975784 -0.214723 0.0417064)
(-0.0124526 -0.0110432 0.999861)
(0.0234572 0.0143737 0.999622)
(0.0107855 0.004749 0.999931)
(0.0142146 0.0091186 0.999857)
(0.0104632 -0.00103155 0.999945)
(-0.000709944 -0.00575429 0.999983)
(0.00821547 0.00270659 0.999963)
(0.0143491 0.00707432 0.999872)
(0.0231211 0.0162243 0.999601)
(-0.00692929 -0.00828281 0.999942)
(0.915632 -0.399863 -0.0415717)
(0.916189 -0.398813 0.0393301)
(0.85396 -0.51902 0.0370139)
(0.81452 -0.580097 -0.0066577)
(0.85342 -0.519846 -0.0378862)
(0.916838 -0.397266 0.0398506)
(0.916606 -0.398889 -0.0268594)
(0.853064 -0.519605 -0.0478774)
(0.81442 -0.580273 -0.00168323)
(0.853171 -0.520327 0.0368701)
(0.976135 -0.214968 -0.0307979)
(0.0031599 0.00789988 0.999964)
(0.99474 -0.0970171 0.0328641)
(0.939207 -0.342669 0.0216155)
(0.976153 -0.214922 0.0305657)
(0.992513 -0.0969408 0.0742969)
(0.939161 -0.342468 -0.0263166)
(0.976108 -0.21434 0.0356666)
(0.0235817 0.005531 0.999707)
(0.968929 -0.0923042 0.229468)
(0.939366 -0.342612 -0.0144711)
(0.976403 -0.214838 -0.0219625)
(0.989342 -0.0954759 0.109941)
(0.939513 -0.341294 0.0288796)
(0.916478 -0.398716 -0.0330607)
(0.917095 -0.39697 0.0367542)
(0.853708 -0.519695 0.0331611)
(0.813968 -0.580871 -0.00665725)
(0.853403 -0.519598 -0.041489)
(0.917004 -0.397382 0.0345273)
(0.917161 -0.397298 -0.0311574)
(0.853212 -0.519955 -0.040941)
(0.813985 -0.580885 -0.000974089)
(0.853608 -0.519632 0.0365409)
(-0.011638 -0.00985994 0.999884)
(0.0204491 0.0142245 0.99969)
(0.00540116 0.00239737 0.999983)
(0.00867245 0.00708662 0.999937)
(0.0045351 -0.00211498 0.999987)
(0.0025909 -0.00331981 0.999991)
(0.00488593 0.00230136 0.999985)
(0.00934747 0.00685715 0.999933)
(0.0200891 0.0144316 0.999694)
(-0.0107584 -0.00918583 0.9999)
(0.0201877 0.0130275 0.999711)
(-0.0113218 -0.00938664 0.999892)
(0.00802777 1.22854e-05 0.999968)
(0.00542586 0.00208915 0.999983)
(0.00784975 0.00678722 0.999946)
(-0.00871045 -0.00698322 0.999938)
(0.0197425 0.0146671 0.999698)
(0.00787383 0.00507048 0.999956)
(0.00419475 0.00033052 0.999991)
(0.00247024 -0.00316871 0.999992)
(0.916924 -0.397877 0.0307138)
(0.917463 -0.396201 -0.0358611)
(0.854312 -0.518448 -0.0369121)
(0.814929 -0.579559 -0.00127987)
(0.854805 -0.517717 0.0357463)
(0.917286 -0.397378 -0.0260079)
(0.917922 -0.395267 0.0343928)
(0.854005 -0.519402 0.0299624)
(0.814715 -0.579813 -0.00752716)
(0.853894 -0.518374 -0.0463947)
(0.916887 -0.397831 0.0323914)
(0.917285 -0.3968 -0.0337372)
(0.853439 -0.519754 -0.0386947)
(0.813823 -0.581113 -0.000890398)
(0.853845 -0.519298 0.0357662)
(0.916972 -0.397818 -0.0300441)
(0.917512 -0.396171 0.0349317)
(0.853416 -0.520292 0.0312709)
(0.813699 -0.581246 -0.00690631)
(0.853233 -0.519703 -0.0436189)
(0.0201293 0.01351 0.999706)
(-0.0120156 -0.00974471 0.99988)
(0.00353322 0.00199644 0.999992)
(0.00293117 -0.00166022 0.999994)
(0.00711362 0.0066436 0.999953)
(0.00819726 0.00586651 0.999949)
(0.00370573 0.00122574 0.999992)
(0.00227105 -0.00287838 0.999993)
(-0.0119855 -0.00876356 0.99989)
(0.0191448 0.0141936 0.999716)
(0.976159 -0.214192 0.0351382)
(0.990468 -0.0952831 0.0994671)
(0.0389317 -0.00114272 0.999241)
(0.939101 -0.343095 -0.019366)
(0.976325 -0.214643 -0.0267912)
(0.992093 -0.0954676 0.0814713)
(0.939267 -0.341948 0.0291253)
(0.976366 -0.214435 -0.0269558)
(0.0203317 0.00116568 0.999793)
(0.992778 -0.0946557 0.0737049)
(0.939353 -0.342022 0.0252384)
(0.990004 -0.0952352 0.104027)
(0.939263 -0.3425 -0.0218595)
(0.976277 -0.213841 0.0340023)
(-0.0118398 -0.00951301 0.999885)
(0.0204039 0.014401 0.999688)
(0.00555461 0.00204312 0.999982)
(0.00996443 0.00678508 0.999927)
(0.00441986 -0.00229336 0.999988)
(0.0029193 -0.00264081 0.999992)
(0.00478188 0.0022917 0.999986)
(0.00904835 0.00687498 0.999935)
(0.0212607 0.0144569 0.999669)
(-0.010814 -0.0092247 0.999899)
(0.916649 -0.398463 -0.0313246)
(0.917252 -0.396667 0.0361129)
(0.853194 -0.52064 0.0315123)
(0.81322 -0.581913 -0.00704542)
(0.852942 -0.520283 -0.0423797)
(0.91695 -0.397593 0.033509)
(0.917201 -0.397143 -0.0319216)
(0.852889 -0.520603 -0.0393952)
(0.813281 -0.58187 -0.00105638)
(0.853329 -0.520126 0.0360417)
(0.976479 -0.21399 -0.0264007)
(0.023435 0.00221418 0.999723)
(0.992419 -0.0939069 0.0792899)
(0.939456 -0.341732 0.0253318)
(0.97637 -0.213347 0.034416)
(0.990061 -0.0945693 0.104093)
(0.939353 -0.342266 -0.021702)
(0.976265 -0.213645 0.0355284)
(0.0425294 -0.000136966 0.999095)
(0.989192 -0.0941724 0.112387)
(0.939258 -0.342717 -0.0183913)
(0.976471 -0.214133 -0.0255125)
(0.991669 -0.0946001 0.0874304)
(0.939434 -0.341481 0.0292471)
(0.916711 -0.398416 -0.0300875)
(0.917332 -0.39644 0.0365822)
(0.852477 -0.521877 0.0304576)
(0.812202 -0.583321 -0.00804648)
(0.852284 -0.521397 -0.0419211)
(0.916971 -0.397532 0.0336588)
(0.917243 -0.397146 -0.0306698)
(0.852321 -0.521541 -0.0392917)
(0.81229 -0.58325 -0.00212419)
(0.852772 -0.521119 0.0348513)
(-0.0096035 -0.00847984 0.999918)
(0.0232344 0.0156297 0.999608)
(0.00958881 0.00279275 0.99995)
(0.0146767 0.00735748 0.999865)
(0.00848179 -0.001633 0.999963)
(0.00670261 -0.00176116 0.999976)
(0.00853689 0.00310091 0.999959)
(0.0129068 0.00765544 0.999887)
(0.0245946 0.0155242 0.999577)
(-0.00850433 -0.00835067 0.999929)
(0.0227196 0.0147843 0.999633)
(-0.00991814 -0.00888669 0.999911)
(0.00466768 -0.00181227 0.999987)
(0.00621833 0.00259386 0.999977)
(0.0102978 0.00721019 0.999921)
(-0.0108207 -0.00869796 0.999904)
(0.0214229 0.0150017 0.999658)
(0.0118511 0.00680312 0.999907)
(0.00696386 0.00215328 0.999973)
(0.00575895 -0.00213332 0.999981)
(0.916944 -0.397631 0.0332191)
(0.917236 -0.397051 -0.032065)
(0.852734 -0.520869 -0.0392513)
(0.812879 -0.58243 -0.00162971)
(0.853188 -0.52042 0.0351058)
(0.916786 -0.398224 -0.0303596)
(0.91738 -0.396399 0.0358094)
(0.852861 -0.521244 0.0305377)
(0.812772 -0.582532 -0.00767122)
(0.852626 -0.520752 -0.0429633)
(0.916823 -0.397866 0.0337375)
(0.917226 -0.397312 -0.028996)
(0.851957 -0.52222 -0.0381529)
(0.811655 -0.584134 -0.00201423)
(0.852292 -0.521871 0.0353285)
(0.916718 -0.398478 -0.0290393)
(0.917275 -0.396514 0.0371951)
(0.851889 -0.52275 0.0318996)
(0.811572 -0.584203 -0.00753997)
(0.851955 -0.522153 -0.0390928)
(0.0269068 0.0160062 0.99951)
(-0.00725043 -0.00793814 0.999942)
(0.0120104 0.00375315 0.999921)
(0.00963628 -0.00127252 0.999953)
(0.0159568 0.00817945 0.999839)
(0.0183958 0.00730918 0.999804)
(0.0138824 0.00317036 0.999899)
(0.0116679 -0.00126397 0.999931)
(-0.00824121 -0.00797066 0.999934)
(0.0252183 0.0164449 0.999547)
(0.976641 -0.211082 0.0402033)
(0.990891 -0.0908174 0.0994307)
(0.109039 -0.0198944 0.993838)
(0.939544 -0.342143 -0.0139879)
(0.977134 -0.211805 -0.0186298)
(0.992405 -0.0908692 0.0829122)
(0.939687 -0.340525 0.032125)
(0.977215 -0.211575 -0.0169638)
(0.050884 -0.00842599 0.998669)
(0.994248 -0.0905607 0.0571885)
(0.939634 -0.341131 0.0267858)
(0.992331 -0.0911819 0.083452)
(0.939642 -0.34187 -0.0140292)
(0.976733 -0.210979 0.0384791)
(-0.00720853 -0.00807609 0.999941)
(0.0280466 0.0169844 0.999462)
(0.0243435 0.00638912 0.999683)
(0.0168256 -0.00150959 0.999857)
(0.0134995 -0.00135773 0.999908)
(0.0211064 0.00822444 0.999743)
(0.0295205 0.0158006 0.999439)
(-0.00677109 -0.00853325 0.999941)
(0.916538 -0.398998 -0.0275376)
(0.916835 -0.39744 0.0381446)
(0.850911 -0.523925 0.0381231)
(0.810938 -0.585121 -0.00360862)
(0.851817 -0.522977 -0.0300577)
(0.916147 -0.399445 0.0334512)
(0.916957 -0.398166 -0.0255726)
(0.851619 -0.523069 -0.0338092)
(0.810921 -0.585155 0.000628117)
(0.851457 -0.522978 0.038922)
(0.977089 -0.21258 -0.0103531)
(0.96522 -0.251397 -0.0717667)
(0.995321 -0.0931195 0.02578)
(0.938317 -0.344866 0.0250575)
(0.9761 -0.213548 0.0403284)
(0.994728 -0.0926926 0.04386)
(0.938809 -0.344325 -0.00886353)
(0.97649 -0.211632 0.040971)
(0.965637 -0.259495 -0.014388)
(0.994073 -0.0908024 0.0597881)
(0.939205 -0.343152 -0.0118482)
(0.977261 -0.21154 -0.0145228)
(0.994776 -0.0913908 0.0454889)
(0.939082 -0.342302 0.0308845)
(0.913513 -0.4064 -0.0182344)
(0.910142 -0.412008 0.0434846)
(0.839671 -0.534803 0.0945486)
(0.808794 -0.585759 0.0523354)
(0.847252 -0.5294 0.0435816)
(0.905373 -0.42233 0.0440055)
(0.911331 -0.41167 -0.00177032)
(0.850083 -0.526544 0.0105096)
(0.808818 -0.586551 0.0420868)
(0.844448 -0.530099 0.0768336)
(-0.0139257 -0.0188913 0.999725)
(0.0590325 0.0147395 0.998147)
(0.647598 -0.0149722 0.761835)
(0.139091 -0.0160395 0.99015)
(0.0439632 -0.010235 0.998981)
(0.111003 -0.00216458 0.993818)
(0.24628 0.0453769 0.968136)
(-0.0088555 -0.0244501 0.999662)
(0.0366497 0.0130986 0.999242)
(-0.0104055 -0.0126027 0.999866)
(0.0193616 -0.00306398 0.999808)
(0.0301164 0.00606374 0.999528)
(-0.00832974 -0.0101642 0.999914)
(0.0311445 0.0160161 0.999387)
(0.0457865 0.00124541 0.99895)
(0.0262179 -0.00479164 0.999645)
(0.913627 -0.405189 0.0332764)
(0.915739 -0.401315 -0.0191669)
(0.851388 -0.524112 -0.0211068)
(0.810195 -0.586061 0.0107455)
(0.849723 -0.524863 0.0498979)
(0.915883 -0.400671 -0.0249035)
(0.915256 -0.400987 0.0389402)
(0.848387 -0.526438 0.0556985)
(0.810405 -0.585782 0.0101675)
(0.851491 -0.524319 -0.00722693)
(0.847053 -0.525214 0.0815554)
(0.890106 -0.453505 0.0452173)
(0.839737 -0.537564 0.0765969)
(0.796679 -0.588619 0.137221)
(0.827322 -0.548048 0.123214)
(0.905355 -0.424586 0.00765829)
(0.890805 -0.449498 0.0664665)
(0.802874 -0.572205 0.167259)
(0.785368 -0.59103 0.184068)
(0.817525 -0.560171 0.13365)
(0.910822 0.203652 0.359067)
(0.931781 0.200614 0.302554)
(0.817744 -0.0270011 0.574948)
(0.934175 -0.0242356 0.35599)
(0.93461 -0.0334641 0.354097)
(0.940471 -0.0367976 0.337877)
(0.231343 0.0155511 0.972748)
(0.896821 0.191839 0.398634)
(0.924381 -0.376598 0.0607751)
(0.976821 -0.170429 0.129519)
(0.918641 -0.392514 0.0450789)
(0.877196 -0.473745 0.0780574)
(0.938147 -0.328395 0.109716)
(0.968568 -0.231817 0.0901983)
(0.859774 -0.50874 0.0443976)
(0.94165 -0.334647 0.0361316)
(0.981708 -0.183603 0.0503912)
(0.893303 -0.44729 0.0440569)
(-0.511799 0.811582 -0.281773)
(0.783694 -0.620541 0.027434)
(-0.607093 0.738852 -0.292465)
(0.921039 -0.387807 0.0359624)
(0.838118 -0.545437 0.0075778)
(0.983466 -0.176917 0.038676)
(0.815643 -0.578486 0.0090141)
(0.912982 0.194716 0.358538)
(0.959039 0.0801331 0.271704)
(0.973113 -0.201276 0.111976)
(0.930561 -0.0553 0.361937)
(0.961277 -0.146793 0.233235)
(0.994956 -0.0863473 0.0510582)
(0.831095 -0.550942 0.0757915)
(0.779435 -0.623452 0.0615562)
(-0.464818 0.833981 -0.297355)
(0.763848 -0.643597 0.0481538)
(0.795777 -0.604788 0.0311529)
(0.783035 -0.600533 0.161917)
(-0.584704 0.728036 -0.35789)
(0.739368 -0.661771 0.124073)
(0.94178 -0.336228 0.00120187)
(-0.051871 0.0252477 0.998335)
(0.941482 -0.281574 0.185279)
(-0.016698 0.0182351 0.999694)
(0.948326 -0.316708 0.0193229)
(0.0924531 -0.0164536 0.995581)
(0.8027 -0.212457 0.557257)
(0.10118 -0.00588765 0.994851)
(0.937007 -0.302221 0.175158)
(0.962874 -0.269866 -0.00679706)
(0.061359 -0.0177114 0.997959)
(0.945947 -0.310682 -0.0930631)
(0.0141356 0.0123993 0.999823)
(0.00823095 0.00874402 0.999928)
(0.940208 -0.256712 0.223849)
(0.902062 -0.249904 -0.351898)
(-0.0101245 -0.00460684 0.999938)
(0.948848 -0.312017 0.0483015)
(0.943445 -0.298831 0.143567)
(0.0427125 0.00229009 0.999085)
(0.95979 -0.264562 0.0938579)
(0.0561284 -0.0157339 0.9983)
(0.951357 -0.307688 0.0157591)
(0.784619 -0.199638 0.586957)
(0.0503587 0.0114687 0.998665)
(0.947738 -0.310609 0.0729022)
(-0.00825905 -0.00523553 0.999952)
(0.0172432 0.00339182 0.999846)
(0.945668 -0.260509 -0.194542)
(0.948441 -0.310874 -0.0617807)
(0.934447 -0.25298 0.250617)
(0.0264151 0.011055 0.99959)
(0.994525 -0.100999 -0.0268046)
(0.999166 -0.0111139 0.0392905)
(0.994182 -0.100336 0.0391837)
(0.99902 -0.0115553 0.0427236)
(0.994122 -0.100821 0.0394522)
(0.999397 -0.0119628 0.0325929)
(0.994444 -0.101371 -0.0283713)
(0.999153 -0.0118511 0.039416)
(0.948714 -0.310545 -0.0591814)
(0.0321521 -0.000736284 0.999483)
(0.935837 -0.252109 0.24627)
(0.0385053 0.0070033 0.999234)
(0.94832 -0.308316 0.0750357)
(0.945727 -0.258596 -0.196796)
(0.00495031 -0.00884633 0.999949)
(0.948366 -0.310793 -0.0633252)
(0.0367759 0.00678843 0.9993)
(0.0285713 0.000235864 0.999592)
(0.940094 -0.253713 0.227711)
(0.944792 -0.258416 -0.201468)
(0.00121705 -0.00842232 0.999964)
(0.948463 -0.30896 0.0704445)
(0.99424 -0.100263 0.0378618)
(0.99939 -0.0111008 0.0331083)
(0.994539 -0.100672 -0.027521)
(0.999528 -0.0113334 0.0285654)
(0.994501 -0.100642 -0.0289759)
(0.999492 -0.0111765 0.0298347)
(0.999558 -0.0114274 0.0274295)
(0.994263 -0.100205 0.0374119)
(0.94797 -0.309419 0.074924)
(0.0156425 0.00404359 0.999869)
(0.948952 -0.260295 -0.178146)
(-0.00652366 -0.00475579 0.999967)
(0.949088 -0.309806 -0.0570278)
(0.933516 -0.251391 0.255638)
(0.0257157 0.0119851 0.999597)
(0.948283 -0.308209 0.0759368)
(0.000168431 -0.00524867 0.999986)
(0.0335012 0.00256854 0.999435)
(0.953956 -0.260424 -0.148819)
(0.949517 -0.309182 -0.0531379)
(0.939792 -0.250948 0.231983)
(0.0371769 0.0111626 0.999246)
(0.949471 -0.3092 -0.0538567)
(0.0540844 -0.00189593 0.998535)
(0.945158 -0.251287 0.208642)
(0.0529223 0.00618673 0.998579)
(0.948977 -0.306507 0.0741411)
(0.954344 -0.25876 -0.149234)
(0.0145205 -0.00900187 0.999854)
(0.949956 -0.308474 -0.0492702)
(0.0610309 0.00435356 0.998126)
(0.0691293 -0.00590773 0.99759)
(0.951701 -0.25216 0.175157)
(0.9582 -0.258312 -0.122996)
(0.018982 -0.0102808 0.999767)
(0.949389 -0.305755 0.0719387)
(0.948598 -0.307238 0.0759384)
(0.0432827 0.00149452 0.999062)
(0.956985 -0.260214 -0.128328)
(0.00502613 -0.00576378 0.999971)
(0.949963 -0.308458 -0.0492393)
(0.944378 -0.250829 0.212684)
(0.0437719 0.0108043 0.998983)
(0.948579 -0.313702 0.0422949)
(0.964866 -0.233694 -0.120083)
(0.963807 -0.258 -0.0671642)
(0.962366 -0.259848 -0.0795669)
(0.949714 -0.311267 -0.034014)
(0.964673 -0.262437 0.023094)
(0.970895 -0.236033 -0.040643)
(0.946956 -0.321255 -0.00832267)
(0.965209 -0.25774 -0.0440671)
(0.962216 -0.272284 0.00140305)
(0.969327 -0.245619 -0.00872283)
(0.945019 -0.323809 0.0456808)
(0.962014 -0.267993 -0.0520405)
(0.968575 -0.247759 -0.0218634)
(0.932313 -0.358649 0.0465114)
(0.964821 -0.257032 0.0552698)
(0.969774 -0.243652 0.013125)
(0.95394 -0.298905 0.0255707)
(0.955279 -0.295677 0.00421026)
(0.962353 -0.267306 0.0492354)
(0.92862 -0.364256 0.070595)
(0.942166 -0.331858 0.0468327)
(0.962057 -0.270766 -0.033642)
(0.959595 -0.277482 -0.0467084)
(0.966971 -0.254373 -0.0161468)
(0.944722 -0.32787 0.000604906)
(0.960218 -0.279251 -3.98671e-05)
(0.968111 -0.250522 7.78105e-05)
(0.934583 -0.353422 -0.0405831)
(0.941653 -0.328994 0.0710763)
(0.942052 -0.333651 0.034845)
(0.0178061 0.0104442 0.999787)
(0.0543782 -0.00265072 0.998517)
(0.012359 -0.00606404 0.999905)
(0.943777 -0.330501 -0.00734495)
(0.945592 -0.324792 -0.0191236)
(0.944865 -0.324241 0.0457922)
(0.947685 -0.31656 0.041014)
(0.024089 0.00614633 0.999691)
(-0.0106787 -0.000937246 0.999943)
(0.00724755 -0.00415348 0.999965)
(0.0302863 0.00777706 0.999511)
(0.947222 -0.314369 0.0627973)
(-0.0212266 -0.00166 0.999773)
(0.00767089 0.00738376 0.999943)
(0.924035 -0.257562 -0.282528)
(0.946269 -0.312821 -0.0819655)
(0.0205201 0.0121555 0.999716)
(0.932996 -0.256286 0.252659)
(0.949038 -0.31158 -0.0473701)
(0.04636 -0.00290597 0.998921)
(0.0503714 0.0057015 0.998714)
(0.919402 -0.246823 0.306234)
(0.0172743 -0.00997224 0.999801)
(0.948141 -0.260986 -0.181427)
(0.947175 -0.307673 0.0905317)
(-0.0184338 0.00148741 0.999829)
(0.0242732 0.00649835 0.999684)
(0.034434 0.00305686 0.999402)
(-0.00493055 -0.00300055 0.999983)
(0.942778 -0.332898 -0.0186651)
(0.943345 -0.331728 0.00760342)
(0.944325 -0.328199 0.0231472)
(0.945057 -0.3269 0.00213169)
(0.947829 -0.311413 -0.0681348)
(0.0249428 0.00219627 0.999686)
(0.0340922 0.00723221 0.999393)
(0.938555 -0.254302 0.233336)
(0.948351 -0.309943 0.0675717)
(-0.00052322 -0.00757235 0.999971)
(0.939353 -0.258283 -0.225624)
(0.994075 -0.10075 0.0407961)
(0.997543 -0.0108048 0.0692225)
(0.994596 -0.101389 -0.0223393)
(0.998957 -0.011254 0.0442472)
(0.947435 -0.308451 0.0849995)
(0.0250581 0.00362415 0.999679)
(0.00623051 -0.00599614 0.999963)
(0.951287 -0.262181 -0.162217)
(0.949559 -0.310017 -0.0471814)
(0.0319167 0.0121632 0.999417)
(0.918849 -0.246184 0.3084)
(0.994427 -0.101304 -0.0291885)
(0.999568 -0.0119623 0.0268484)
(0.994198 -0.101062 0.0368283)
(0.999533 -0.0118128 0.0281799)
(0.944158 -0.329456 -0.00495057)
(0.945078 -0.326527 0.0144338)
(0.944727 -0.327555 0.0140749)
(0.945645 -0.325168 -0.00459129)
(-0.0161129 -0.000383373 0.99987)
(0.0246487 0.00576268 0.99968)
(0.0302814 0.00321526 0.999536)
(-0.00973317 -0.00289637 0.999948)
(0.030412 0.00306572 0.999533)
(-0.0100532 -0.00243509 0.999947)
(-0.012384 0.000164705 0.999923)
(0.0252061 0.00703675 0.999658)
(0.944391 -0.328717 0.0083915)
(0.945562 -0.325321 -0.00887866)
(0.944745 -0.327747 0.00620863)
(0.945965 -0.323613 0.0206144)
(0.94469 -0.327783 0.0108943)
(0.945749 -0.324825 -0.00688639)
(0.944719 -0.327879 -0.00128901)
(0.945752 -0.324503 0.0158312)
(0.0306539 0.0028364 0.999526)
(-0.010566 -0.00284795 0.99994)
(-0.0173112 0.000268303 0.99985)
(0.0231248 0.0064446 0.999712)
(0.947967 -0.309595 0.0742245)
(-0.00690636 -0.00541228 0.999962)
(0.0196701 0.00282692 0.999803)
(0.949284 -0.260234 -0.176462)
(0.948932 -0.310072 -0.0581725)
(0.028112 0.0110233 0.999544)
(0.936308 -0.252266 0.244312)
(0.99462 -0.100142 -0.0264932)
(0.999085 -0.0103597 0.041498)
(0.999127 -0.0107714 0.0403544)
(0.994251 -0.0994748 0.0396082)
(0.994218 -0.0998974 0.0393773)
(0.999371 -0.0110142 0.0336963)
(0.994563 -0.100464 -0.0274243)
(0.999241 -0.010947 0.0373928)
(0.948797 -0.310234 -0.0594861)
(0.0357244 -0.000386465 0.999362)
(0.0416409 0.00684957 0.999109)
(0.939628 -0.252323 0.231152)
(0.00579646 -0.00860521 0.999946)
(0.947881 -0.258546 -0.186214)
(0.948552 -0.308003 0.0733694)
(-0.0166436 -0.000324782 0.999861)
(0.0248445 0.00579847 0.999675)
(0.0324324 0.0031944 0.999469)
(-0.00896295 -0.0026644 0.999956)
(0.944566 -0.328309 -0.00277979)
(0.945569 -0.325049 0.0155633)
(0.944938 -0.326982 0.0132053)
(0.945907 -0.324399 -0.00503738)
(0.948987 -0.309955 -0.0578994)
(0.0431126 -0.000698919 0.99907)
(0.0461461 0.0066416 0.998913)
(0.942004 -0.252007 0.221633)
(0.948711 -0.30754 0.0732581)
(0.00918434 -0.00863791 0.999921)
(0.950572 -0.258793 -0.171577)
(0.994253 -0.0991126 0.0404621)
(0.999067 -0.010207 0.0419676)
(0.994685 -0.0997664 -0.0254551)
(0.99902 -0.0102112 0.0430631)
(0.948141 -0.308804 0.0752856)
(0.0248064 0.00334032 0.999687)
(-0.00354468 -0.00499172 0.999981)
(0.951545 -0.26034 -0.163659)
(0.949279 -0.309489 -0.0555446)
(0.0316133 0.0115393 0.999434)
(0.937036 -0.251199 0.242616)
(0.945002 -0.327063 -0.000705796)
(0.946013 -0.323678 0.0171139)
(0.945493 -0.325351 0.013767)
(0.94655 -0.322542 -0.00303614)
(-0.0139295 0.000408854 0.999903)
(0.0291757 0.00630694 0.999554)
(0.0376291 0.00334048 0.999286)
(-0.00568333 -0.00217928 0.999981)
(0.0348284 0.00326168 0.999388)
(-0.00731038 -0.0024472 0.99997)
(-0.0155769 0.000287348 0.999879)
(0.0263995 0.00634229 0.999631)
(0.945144 -0.326385 0.013228)
(0.946144 -0.323716 -0.00431243)
(0.944846 -0.327513 -0.00127196)
(0.945857 -0.324166 0.0164433)
(0.945914 -0.324207 0.0116971)
(0.94708 -0.320982 -0.00318286)
(0.945368 -0.326006 -2.4587e-05)
(0.946336 -0.322736 0.0170373)
(0.0402568 0.00286647 0.999185)
(-0.00562516 -0.00207863 0.999982)
(-0.0127117 0.000690732 0.999919)
(0.0319151 0.00643964 0.99947)
(0.949049 -0.306684 0.072461)
(0.00667658 -0.00715522 0.999952)
(0.0529567 -0.00270956 0.998593)
(0.959807 -0.259543 -0.106812)
(0.950385 -0.307817 -0.0449017)
(0.0512967 0.00874106 0.998645)
(0.952547 -0.252629 0.169801)
(0.950365 -0.308078 -0.0435372)
(0.139657 -0.0328015 0.989656)
(0.0717109 -0.00254218 0.997422)
(0.960279 -0.255108 0.113067)
(0.0165955 -0.0146091 0.999756)
(0.961379 -0.257337 -0.0976161)
(0.94991 -0.306048 0.0632828)