/*--------------------------------*- C++ -*----------------------------------*\
| =========                 |                                                 |
| \\      /  F ield         | OpenFOAM: The Open Source CFD Toolbox           |
|  \\    /   O peration     | Version:  2012                                  |
|   \\  /    A nd           | Website:  www.openfoam.com                      |
|    \\/     M anipulation  |                                                 |
\*---------------------------------------------------------------------------*/
FoamFile
{
    version     2.0;
    format      ascii;
    class       volScalarField;
    location    "0.104/solid";
    object      sigmaHyd;
}
// * * * * * * * * * * * * * * * * * * * * * * * * * * * * * * * * * * * * * //

dimensions      [1 -1 -2 0 0 0 0];


internalField   nonuniform List<scalar> 
3125
(
769.626
760.635
726.461
722.38
689.681
683.052
620.342
601.864
744.06
738.798
710.369
705.833
658.885
649.729
775.496
402.5
954.52
329.299
404.69
319.769
406.476
944.366
753.984
935.028
345.016
401.399
304.236
730.418
378.087
301.544
380.717
294.461
375.598
718.429
301.248
372.578
281.795
695.598
352.151
274.929
356.244
265.517
347.634
675.696
274.302
342.615
242.791
631.033
309.113
241.878
314.13
276.565
302.403
559.03
245.144
298.553
152.057
1158.53
157.541
151.541
1141.03
1138.26
313.2
749.141
389.874
314.143
393.303
1126.96
1140.74
143.242
146.265
305.24
734.307
388.101
315.898
384.506
134.864
137.221
1104.19
1113.32
1121.03
1114.67
143.214
139.247
133.984
130.894
1100.8
1093.55
293.89
714.529
366.693
289.583
369.559
1082.56
1091.24
126.842
129.526
282.525
700.927
363.574
289.033
360.04
116.527
120.371
1054.34
1066.2
1079.34
1069.66
125.509
122.048
114.571
110.203
1050
264.811
667.638
331.466
254.753
337.204
103.91
107.967
243.372
640.365
325.539
253.938
319.661
107.013
99.0926
101.7
100.156
111.01
168.677
282.599
249.556
226.794
617.169
282.637
520.318
280.482
251.778
728.032
518.691
306.518
262.566
730.505
521.681
253.692
729.037
518.348
715.431
333.959
261.688
268.133
719.1
514.889
522.42
346.448
271.326
727.718
522.891
273.716
723.658
493.312
694.492
302.48
243.068
494.326
243.16
692.626
491.122
303.815
240.742
689.043
490.267
241.753
690.606
484.511
680.489
297.829
235.277
237.093
681.956
483.419
486.952
298.931
239.194
686.645
488.078
239.344
684.185
464.085
660.414
278.907
221.13
465.49
221.106
657.624
460.757
279.27
216.807
652.17
459.244
218.579
654.597
449.844
638.718
270.895
208.543
210.447
641.737
447.954
453.842
270.311
213.652
648.889
455.573
213.465
645.471
417.302
603.725
235.72
187.402
418.548
188.955
600.834
414.95
242.562
193.134
597.905
415.023
188.631
598.536
416.065
598.345
263.18
244.945
207.672
599.589
440.807
415.36
245.905
190.097
598.413
412.858
201.043
599.512
19.5114
150.699
146.577
144.855
38.2695
22.8499
146.113
147.693
1015.07
1180.44
1045.28
1055.61
1196.78
1059.48
1011.03
1013.36
38.9769
50.6752
156.643
159.321
158.004
48.9281
54.5373
152.132
156.044
155.734
989.082
991.457
1132.91
1037.85
1028.6
1025.59
1133.76
1026.16
1004.97
994.666
507.915
712.715
308.343
253.701
509.628
710.553
252.445
505.159
313.957
706.791
251.735
708.395
251.235
504.682
987.954
986.018
1133.59
1015.26
1020.19
1025.05
1139.12
1023
980.288
983.308
32.7109
29.7294
142.789
143.181
142.128
30.903
30.3168
146.192
144.247
144.368
498.591
310.37
696.363
246.231
497.12
698.101
248.926
501.456
313.637
703.822
251.622
502.675
700.79
251.976
24.7763
24.9086
133.784
135.696
133.986
22.7224
24.8227
136.428
136.632
135.407
966.154
963.213
1107.56
993.637
996.845
1001.71
1110.88
998.918
958.86
961.087
967.413
969.041
1011.77
1117.08
1006.85
976.754
971.147
1003.04
1115.31
1004.88
26.6532
31.881
142.6
143.108
141.83
32.3941
33.5279
138.767
141.264
139.98
18.4508
22.0879
132.695
133.623
131.764
22.5189
23.0414
129.544
132.281
130.241
948.631
950.204
1097.79
991.284
987.552
983.394
1095.41
985.645
956.388
952.137
480.001
678.563
292.254
233.045
481.009
676.517
233.276
477.629
292.628
672.673
230.063
674.34
231.514
476.588
946.968
943.601
1085.45
973.488
976.461
981.684
1088.48
978.528
939.374
941.446
17.4812
17.9957
125.088
128.011
125.564
14.6457
17.5929
127.978
129.132
127.007
469.885
286.256
663.084
223.828
468.575
665.046
225.583
472.751
286.42
670.241
227.885
473.997
667.672
227.933
8.85816
8.91377
114.174
118.037
115.015
4.71761
8.25362
118.14
119.712
116.966
925.448
921.068
1058.25
947.904
951.91
959.099
1062.34
954.821
915.069
918.047
927.981
930.297
971.158
1075.97
967.258
936.974
932.768
961.611
1072.68
964.824
9.88183
13.3961
123.588
124.982
122.514
13.9386
14.1794
120.005
123.487
120.75
-1.11484
2.58029
112.116
113.756
110.815
3.59346
3.3491
107.575
111.804
108.564
899.053
902.728
1045.13
944.689
939.451
930.92
1040.61
935.717
911.834
906.533
441.562
634.859
259.637
204.739
443.639
630.891
204.435
437.077
260.933
623.018
199.569
626.613
201.27
434.954
895.083
889.164
911.069
916.531
927.13
920.97
880.11
884.363
-2.51366
-2.8754
101
105.228
101.71
-6.65909
-3.45308
105.249
107.169
104.088
424.068
249.703
606.84
191.656
422.043
610.27
192.449
428.23
247.081
618.852
195.289
430.445
614.59
195.193
-11.9701
-9.26478
103.702
102.799
99.237
0.236609
-7.56112
95.9021
100.826
98.1397
855.684
852.671
879.052
878.364
886.705
883.574
849.113
846.848
860.299
863.845
906.449
900.44
875.468
869.32
891.178
895.342
-9.78344
-8.58911
98.7575
101.421
98.3677
-8.4235
-8.3849
96.9899
100.25
96.4418
105.006
26.5492
109.295
120.861
117.325
-0.550254
16.8686
141.784
141.049
136.649
820.625
834.603
873.257
873.078
835.654
857.09
843.993
848.275
529.806
602.666
386.236
283.609
478.147
597.382
373.326
654.526
648.759
594.718
99.4706
476.846
237.15
620.692
395.716
613.51
472.679
797.406
730.588
654.898
800.441
725.414
659.766
127.779
313.789
66.2199
444.248
401.104
180.366
190.008
309.501
422.528
282.638
290.669
506.295
437.502
318.346
313.427
524.153
440.199
306.414
520.718
432.576
510
322.301
305.074
308.095
513.547
430.6
447.526
345.455
320.054
526.057
446.917
323.979
529.398
412.046
492.363
300.584
288.473
412.907
287.694
492.962
709.679
864.189
708.181
866.515
712.237
870.953
713.558
869.026
409.467
299.541
285.696
488.111
409.019
285.771
489.64
402.428
480.42
292.841
279.256
279.637
482.064
401.926
704.042
861.416
705.541
858.999
701.348
854.785
856.597
699.93
407.155
297.535
284.729
486.798
408.053
284.216
487.283
385.7
464.288
278.134
265.586
386.771
264.889
464.753
380.514
274.156
259.854
456.969
379.64
260.17
458.451
370.308
445.916
265.505
250.849
251.133
447.246
369.139
376.668
270.259
257.734
454.792
377.915
257.032
455.273
342.157
415.798
236.931
225.667
342.241
225.905
418.145
342.878
242.846
229.812
417.113
342.752
225.868
412.453
368.444
435.361
276.636
264.848
253.353
426.344
376.171
344.915
239.963
223.817
412.531
340.681
228.624
419.371
-15.2845
26.0706
12.9264
620.126
656.59
650.349
23.2675
30.995
43.6274
51.7659
638.725
638.025
664.671
659.633
424.025
506.877
307.798
299.733
425.812
506.066
296.968
423.197
311.447
503.539
298.193
504.338
297.224
422.965
635.038
630.252
633.01
630.862
15.1831
10.6006
17.3417
15.952
415.183
304.194
493.725
290.391
414.462
495.603
291.163
721.012
880.28
722.927
877.143
422.063
312.292
502.146
298.066
422.865
503.079
298.258
717.89
872.887
716.352
874.525
9.57229
8.86911
8.76011
9.34927
620.727
616.365
615.753
613.382
621.26
618.699
633.016
627.155
11.4353
14.255
20.2406
21.767
3.63744
5.3589
8.96394
9.23867
606.752
604.125
614.875
609.678
400.004
479.306
290.611
277.959
400.804
479.892
277.37
693.143
845.611
847.875
691.547
695.872
852.558
697.276
850.429
396.46
287.843
474.094
274.042
475.7
274.354
395.924
606.199
601.797
599.832
597.565
2.82271
2.79942
0.305455
1.48961
388.87
281.058
465.892
267.213
388.202
467.541
267.628
686.84
842.789
688.556
840.149
393.745
285.403
472.68
272.739
394.72
473.18
272.109
-5.53971
-5.82179
-9.83765
-7.96574
589.694
584.787
580.241
578.829
590.533
588.393
599.067
594.1
-4.70518
-3.10773
-0.159948
-0.228476
-15.9654
-13.5085
-10.7015
-11.3034
567.344
566.678
579.442
574.07
365.606
443.062
260.326
248.042
366.975
443.613
247.323
358.565
255.622
433.246
240.685
434.102
240.77
357.189
566.501
560.701
552.022
552.298
-17.1476
-18.2943
-22.3275
-19.2084
346.627
245.113
420.373
230.412
345.207
419.89
229.875
353.362
248.748
429.497
236.992
354.515
430.438
236.43
-30.4902
-34.3634
-23.2088
-19.5559
535.099
528.619
526.408
527.502
535.112
536.298
551.259
544.914
-28.1917
-24.1362
-24.0141
-26.1457
29.8566
25.1782
-22.9064
-28.4417
526.276
537.068
530.411
524.938
407.912
434.589
300.566
271.05
375.89
448.348
291.589
556.953
454.552
497.943
404.439
607.276
702.298
579.793
686.052
502.952
279.611
347.313
221.4
397.522
412.269
320.084
520.014
518.173
39.5725
70.2809
605.694
613.793
585.603
324.226
499.561
601.571
578.541
518.623
294.651
502.886
417.604
280.244
289.226
506.211
419.571
282.558
499.896
430.372
314.995
292.067
507.419
426.71
299.256
516.017
437.619
326.644
319.365
521.101
440.9
313.37
517.101
448.155
346.015
323.526
524.019
446.474
325.414
528.488
411.786
301.759
288.716
491.035
411.549
287.107
491.379
410.375
301.685
287.948
489.84
411.089
286.619
490.218
403.813
295.28
283.15
483.129
404.839
281.037
482.743
406.666
298.415
284.541
484.429
406.18
283.643
485.55
385.114
279.036
265.26
461.967
384.488
264.02
462.611
382.008
276.212
263.558
459.893
383.199
261.943
460.01
372.019
267.236
254.781
449.232
373.352
253.407
449.517
375.807
270.958
257.029
451.995
374.948
255.767
452.577
341.07
237.856
226.638
416.214
340.313
223.122
413.229
342.006
236.284
223.286
410.677
339.765
228.264
417.196
362.129
257.844
232.136
417.714
350.605
249.048
432.417
346.849
245.145
236.102
423.912
349.346
226.864
415.026
-19.1757
-17.6895
-113.032
35.391
56.566
-161.218
-118.244
-167.702
56.1702
27.5447
46.0108
-119.362
-171.016
-136.731
-273.089
-272.722
-138.14
-27.1986
325.14
-24.8088
325.096
-135.034
-255.743
-267.654
-127.139
-30.1932
325.417
-30.2532
325.302
-0.517677
9.81702
-95.3648
76.7709
42.2226
-139.83
66.2798
-152.894
-80.9645
-99.1949
-162.738
56.5129
34.2901
57.7933
-104.175
-159.211
-140.248
-280.326
-281.667
-139.049
-138.158
-33.0632
325.49
-32.2534
325.11
1011.5
884.562
1063.9
621.846
620.333
1063.66
1011.59
888.612
882.721
1068.08
1328.11
1313.83
1339.76
1354.71
1370.41
1371.7
1364.65
644.136
648.952
895.797
1012.62
1057.81
895.76
1063.77
1070.59
891.365
1017.04
897.209
1066.91
44.9166
37.0978
-75.3691
74.8365
49.0662
-137.482
73.2362
-135.588
-79.9671
-69.0464
-121.515
88.4188
55.1733
79.0461
-60.1853
-130.184
-123.783
-236.179
-240.678
-120.888
-21.6219
324.446
-20.7431
323.524
-123.738
-244.649
-124.665
-243.293
-20.5745
321.696
-20.1709
322.252
54.8656
55.1054
-58.6808
85.2223
58.7047
-128.187
84.8365
-63.6544
-123.736
-54.6044
-117.214
91.2024
62.1711
87.9451
-51.5911
-120.159
-127.171
-240.137
-247.894
-122.285
-26.4923
317.464
-26.5558
318.3
-128.923
-251.889
-251.937
-128.833
-23.9396
320.666
-21.7539
319.276
874.593
989.493
1034.94
875.167
1034.92
646.826
640.741
1035.13
990.558
879.687
876.656
1035.04
1295.71
1303.82
1289.89
1289.28
1297.37
1300.88
1294.98
1290.32
657.667
657.518
893.94
1003.06
1053.05
891.586
1046.5
1039.08
883.848
997.816
887.841
1041.63
422.802
307.717
504.221
297.46
422.687
503.735
295.059
423.071
312.658
502.944
297.013
423.268
504.719
297.204
872.769
1035.85
988.517
872.229
1035.6
630.135
629.616
1031.68
986.473
870.448
870.253
1034.93
1289.59
1285.13
1293.02
1297.12
1304.27
1303
1303.44
1300.37
634.236
631.478
867.138
981.337
1025.91
867.706
1029.2
1032.21
869.11
984.297
869.766
1029.9
12.7467
12.2031
-94.8316
68.9682
-143.649
38.7841
-87.9956
62.4925
-150.377
-93.5926
-147.271
66.6713
37.3855
59.9277
-91.1266
-151.897
-137.089
-258.978
-262.956
-134.891
-33.7934
310.728
-33.0452
311.151
-137.583
-258.471
-263.389
-134.421
-33.5698
312.825
-32.1033
311.882
17.921
18.6986
-90.7272
67.6508
38.4271
-144.436
62.5897
-148.851
-87.0314
-88.4159
-145.98
65.961
37.9866
61.6491
-86.4584
-148.586
-136.894
-261.205
-265.299
-134.464
-31.3273
316.519
-29.0474
315.283
-135.603
-256.421
-130.99
-263.823
-32.6463
313.694
-32.2435
314.272
417.209
307.181
497.777
296.126
418.606
496.675
293.245
421.59
313.445
499.431
298.163
420.807
501.096
297.748
12.5252
11.6684
-96.3585
60.6047
31.9532
-149.546
55.7966
-153.124
-93.2936
-93.4902
-148.182
61.0893
32.2087
55.1647
-90.5069
-152.663
-142.574
-260.661
-265.328
-139.743
-40.9331
299.728
-40.2904
300.029
-143.22
-262.893
-266.703
-140.836
-40.3437
301.358
-38.8276
300.512
13.8861
13.1286
-95.8555
58.633
30.6897
-150.603
54.6284
-153.381
-94.0086
-92.2654
-147.974
60.5368
31.695
54.8815
-89.1785
-151.985
-142.015
-261.304
-265.726
-139.26
-38.9347
304.26
-37.332
303.375
-141.467
-261.474
-266.191
-138.573
-39.1835
302.161
-38.5667
302.591
853.366
966.248
1012.74
852.707
1012.02
616.761
616.269
1008.09
964.353
850.377
851.081
1010.54
1263.85
1261.51
1258.63
1103.65
994.979
1125.15
1105.46
1127.14
1256.9
1260.28
1129.55
1107.74
997.006
1107.35
1261.6
1128.17
1265.45
1267.22
1267.27
1113.13
1001.9
1135.3
1113.12
1134.43
1268.1
1272.86
1273.45
1265.5
1130.83
1000.3
1109.77
1111.56
1132.9
1263.53
1271.33
1269.05
617.461
614.495
846.924
959.682
1003.82
847.324
1005.96
1007.47
848.9
961.615
848.797
1006.31
623.669
620.617
854.422
968.034
1012.9
854.659
1013.68
1014.43
856.534
969.074
855.588
1014.24
1278.89
1281.63
1274.85
1122.68
1145.81
1011.3
1277.59
1121.49
1143.04
1272.11
1138.38
1008.51
1116.99
1118.87
1140.58
1270.18
1276.05
1274.49
626.687
626.483
864.581
1023.69
976.012
862.89
1020.86
1015.97
858.604
972.889
860.29
1018.45
1268.97
1114.14
1004.06
1135.64
1115.14
1268.54
1136.33
1274.02
1273.76
1269.13
1137.18
1005.06
1115.52
1115.77
1136.83
1269.29
1274.31
1273.71
22.0414
18.8908
-91.1048
62.4968
35.2802
-147.853
59.1315
-91.358
-149.15
-86.3176
-140.628
68.0794
37.9943
61.158
-81.2255
-146.351
-136.685
-253.956
-258.195
-133.983
-33.9725
309.961
-32.6297
309.052
-136.302
-256.42
-134.527
-259.38
-33.8197
307.738
-33.2446
308.173
24.7423
24.8915
-84.7
68.4082
-142.617
40.2085
-83.8705
64.6409
-144.014
-81.2986
-139.061
69.6708
41.105
64.6647
-78.8904
-142.767
-138.4
-255.054
-260.774
-134.783
-36.9582
304.944
-36.5698
305.356
-139.366
-260.499
-137.738
-263.127
-35.7103
307.012
-33.9562
306.047
11.4546
9.44832
-98.9399
53.9468
26.6689
-154.068
50.281
-156.057
-98.206
-94.7692
-149.087
57.6768
28.5268
51.402
-90.6902
-153.983
-144.019
-261.16
-265.526
-141.314
-41.9821
298.992
-40.5559
298.166
-143.66
-262.539
-141.281
-266.38
-41.8793
297.361
-41.1884
297.611
12.3301
12.0863
-95.5861
58.1526
29.915
-150.571
53.7682
-93.6228
-153.141
-92.5215
-148.341
58.7591
30.4228
53.4282
-89.9411
-152.298
-145.07
-261.518
-266.618
-141.863
-44.0484
295.087
-43.4816
295.379
-145.812
-265.245
-268.488
-143.769
-43.1601
296.766
-41.5754
295.964
837.008
949.262
993.291
837.235
994.49
608.352
605.594
995.367
950.499
838.694
838.216
994.998
1257.92
1259.61
1253.07
1101.47
991.156
1123.51
1100.9
1254.86
1121.65
1250.92
1117.73
1097.14
989.004
1098.89
1249.09
1119.78
1255.89
1254.02
1246.42
1093.01
984.513
1114.05
1094.36
1115.2
1245.49
1251.53
1250.31
1247.22
1116.62
985.849
1095.51
1095.49
1115.91
1247.83
1252.36
1252.89
609.595
609.126
844.938
956.05
1002.47
843.645
1000.62
996.374
840.348
953.523
841.5
998.843
399.749
291.739
477.734
278.254
399.417
478.345
276.921
397.66
290.251
476.407
277.22
398.577
476.456
275.512
835.708
992.759
946.937
834.911
991.626
601.902
601.603
987.605
944.813
832.221
833.096
990.041
1240.22
1238.19
1235.2
1082.15
974.728
1103.11
1083.82
1104.9
1233.72
1241.47
1242.83
1236.57
1107.01
1085.78
976.612
1085.49
1237.64
1105.84
1243.21
1091.53
1113.23
981.758
1244.4
1091.25
1112
1248.25
1249.36
1246.52
1244.34
1241.26
1108.26
979.917
1087.7
1089.49
1110.34
1239.34
601.866
598.824
828.591
940.061
983.479
828.857
985.415
986.785
830.57
941.875
830.325
985.844
6.39649
5.69808
-101.369
52.8699
-154.86
24.7259
-99.0218
48.3278
-157.844
-98.3078
-152.78
53.6052
25.2015
47.9771
-95.4167
-157.071
-147.956
-264.256
-269.035
-145.031
-47.3612
289.989
-46.7973
290.348
-148.717
-267.269
-270.722
-146.537
-46.5814
291.776
-45.0532
290.936
6.83235
5.59127
-102.377
49.9897
22.693
-156.773
46.2918
-159.065
-101.156
-98.3716
-152.94
52.9014
24.1502
46.9448
-94.9483
-157.299
-147.317
-264.482
-268.897
-144.482
-45.3525
294.473
-43.9212
293.632
-146.879
-265.538
-144.368
-269.727
-45.4238
292.529
-44.7319
292.901
390.305
283.499
468.706
270.991
391.418
468.593
269.111
393.224
286.345
470.433
272.491
392.679
471.223
271.383
-2.80486
-3.18654
-108.636
43.7134
15.8546
-161.145
39.1751
-164.085
-106.151
-105.789
-159.378
44.0612
16.1257
38.5556
-103.205
-163.51
-154.232
-268.902
-273.606
-151.466
-55.2071
277.033
-54.7794
277.665
-155.235
-272.153
-275.339
-153.027
-54.2395
279.661
-52.6685
278.631
-2.38487
-4.12428
-110.322
39.5642
12.8139
-163.988
35.9058
-166.037
-109.789
-106.557
-159.746
42.8705
14.5407
37.123
-102.754
-164.071
-153.534
-269.118
-273.367
-150.708
-52.684
283.173
-51.1525
282.047
-152.89
-269.983
-274.047
-150.527
-52.8905
280.58
-52.2643
281.073
815.757
925.31
970.727
814.815
968.847
583.9
584.364
963.932
922.345
811.222
812.235
966.997
1210.39
1207.72
1212.08
1214.06
1220.97
1222.82
1218.78
1215.92
583.746
580.006
805.895
915.763
958.046
806.232
960.404
962.846
808.771
918.345
808.39
961.223
593.075
589.782
817.859
928.64
971.582
818.118
973.518
975.135
820.137
930.617
819.772
974.103
1234.93
1236.64
1230.28
1080.08
1101.76
971.064
1231.95
1079.5
1099.98
1227.95
1095.65
968.728
1075.4
1077.33
1098.04
1225.85
1232.89
1230.51
593.561
593.703
826.627
982.523
936.797
825.606
980.72
976.172
822.215
934.089
823.25
978.938
1226.31
1224.3
1227.61
1228.99
2.68239
0.982981
-106.208
44.9401
17.9953
-160.379
41.3469
-105.406
-162.431
-102.144
-155.862
48.4364
19.7567
42.3932
-98.3433
-160.43
-150.094
-266.303
-270.562
-147.342
-48.6463
289.297
-47.1878
288.354
-149.558
-267.282
-147.149
-271.299
-48.7765
287.077
-48.1722
287.518
2.81608
2.4896
-103.785
49.0898
-157.248
21.0806
-101.493
44.5934
-160.076
-100.857
-155.355
49.5106
21.4435
44.0955
-98.2868
-159.399
-151.001
-266.334
-271.223
-148.024
-51.1115
284.019
-50.6457
284.534
-151.899
-269.813
-149.783
-273.057
-50.1741
286.262
-48.5748
285.336
-8.04767
-10.1441
-114.803
33.3742
6.99516
-167.782
29.6137
-169.732
-114.834
-111.527
-163.615
36.6474
8.82252
31.2964
-107.455
-167.764
-156.836
-271.397
-275.613
-153.915
-56.7993
276.055
-55.3218
274.9
-156.083
-272.248
-153.881
-276.197
-57.0548
273.078
-56.5045
273.773
-8.73547
-8.897
-113.228
38.0446
10.4076
-164.835
33.5658
-110.536
-167.775
-110.568
-163.244
38.2199
10.5298
32.6883
-108.178
-167.354
-157.268
-271.024
-275.53
-154.739
-59.3991
268.96
-58.9678
269.719
-158.335
-274.013
-277.125
-155.98
-58.4428
271.993
-56.9033
270.838
790.939
899.611
941.091
791.277
943.711
572.177
567.774
947.213
902.897
794.596
794.123
944.872
1203.31
1205.8
1200.66
1197.11
1193.68
1190.65
1193.51
1194.89
572.325
573.45
803.2
911.667
956.979
802.185
954.492
948.646
797.798
907.957
798.916
952.36
364.461
260.82
439.979
247.018
363.372
440.267
245.602
360.386
256.514
436.407
244.289
361.594
437.304
243.539
787.596
940.087
895.038
786.653
937.084
557.984
559.914
930.496
890.507
781.513
782.628
934.878
1167.74
1164.95
1168.71
1171.02
1181.94
1186.81
1177.7
1173.32
558.272
552.909
773.305
880.557
921.235
773.453
924.5
928.936
777.473
884.665
777.116
925.78
-16.1091
-16.1538
-118.978
31.3507
-168.832
4.18994
-115.894
26.9845
-171.863
-116.567
-167.301
31.5421
4.19677
25.8151
-114.253
-171.567
-158.924
-271.961
-275.861
-156.962
-62.3951
261.413
-61.6493
261.894
-159.74
-273.729
-276.993
-157.045
-61.6894
263.859
-60.5047
262.887
-14.5596
-16.7701
-119.15
27.1385
1.34483
-170.661
23.0913
-172.606
-119.76
-116.734
-167.299
29.6851
3.04202
25.1641
-112.665
-170.927
-159.534
-272.942
-277.326
-156.337
-60.9494
267.774
-59.5675
266.588
-158.832
-274.068
-156.871
-277.844
-61.0572
264.851
-60.4062
265.552
348.251
244.098
421.868
232.507
348.763
424.24
233.158
351.897
249.149
426.612
235.88
350.587
426.115
234.027
-32.6975
-32.7663
-131.48
19.2389
-3.71635
-171.545
16.5717
-175.073
-126.188
-130.143
-168.517
23.249
-3.43633
14.9268
-127.389
-174.446
-138.337
-255.271
-253.657
-141.26
-41.9765
274.042
-37.5473
270.76
-133.9
-241.302
-249.031
-127.136
-46.2365
265.735
-48.9444
267.841
-24.7872
-25.7329
-117.523
31.4866
5.91427
-156.365
22.4253
-161.194
-118.132
-122.408
-164.596
21.4842
4.29808
23.8996
-119.827
-163.991
-150.03
-260.946
-267.667
-144.618
-57.2103
260.041
-57.7268
260.718
-151.681
-266.715
-268.871
-151.386
-55.6093
263.587
-52.5816
261.875
750.106
857.339
900.675
750.962
897.746
525.332
529.018
891.951
852.175
746.853
745.641
896.873
1128.06
1127.19
1126.16
1128.5
1133.77
1136.36
1133
1129.04
530.167
521.918
744.692
845.12
887.434
739.689
889.578
892.341
741.361
849.722
744.336
887.989
542.278
535.467
754.659
859.947
900.563
753.772
903.896
908.266
757.853
864.528
758.112
904.346
1159.95
1163.38
1156.61
1151.4
541.1
544.155
769.134
920.156
875.612
768.474
916.552
909.598
762.826
870.382
763.579
914.444
1141.41
1137.36
1143.65
1148.19
-21.4345
-23.7631
-122.5
22.7275
-2.14594
-170.541
17.7849
-123.838
-172.763
-121.825
-169.358
23.016
-0.945263
20.3411
-117.813
-171.971
-159.309
-271.49
-276.381
-155.476
-62.7294
260.76
-61.817
259.961
-159.067
-273.547
-157.585
-276.927
-62.5613
259.205
-61.2208
259.304
-24.6053
-24.3502
-125.179
24.4837
-171.86
-1.52839
-121.335
20.5451
-175.108
-123.198
-170.286
25.267
-1.62036
18.9499
-121.03
-174.891
-156.037
-269.238
-271.779
-155.237
-60.3843
259.333
-58.6235
258.771
-155.756
-267.712
-152.216
-271.701
-60.6846
258.952
-60.4512
258.712
-4.5051
1.32953
-66.7039
106.044
76.2471
-54.2639
82.7119
-82.621
-52.6542
-91.9392
-123.45
51.8833
59.4561
68.976
-98.7424
-108.083
-104.873
-206.808
-221.222
-92.1913
-27.1313
278.731
-31.6709
283.29
-114.907
-235.711
-120.909
-230.976
-16.4953
296.789
-9.28757
289.617
-22.1918
-24.1462
-125.299
28.1842
14.4859
-154.284
31.1541
-118.862
-155.306
-121.954
-138.659
47.4397
17.9497
32.3401
-115.627
-149.992
-49.6773
-188.721
-165.158
-74.5148
62.7819
352.485
83.3281
333.341
-19.5024
-81.7881
-123.832
22.1422
24.1473
306.862
10.6466
318.955
726.403
822.061
843
727.384
863.554
538.3
526.249
883.815
840.592
735.061
741.676
870.111
1125.95
1129.52
1122.49
1111.4
1064.18
1040.4
1084.93
1101.99
526.655
529.495
739.634
850.02
890.841
745.491
888.362
883.048
745.646
842.646
738.581
889.688
416.94
321.864
464.949
352.339
456.182
454.345
335.154
643.323
643.312
645.46
675.01
697.386
645.627
657.862
667.265
661.217
675.736
576.939
595.915
597.655
411.353
142.406
444.695
531.691
523.165
555.351
496.508
204.767
488.582
596.205
605.155
562.07
468.507
382.873
473.061
616.558
546.774
565.683
528.714
418.138
486.176
709.153
820.883
789.886
702.631
792.12
528.929
521.175
711.793
761.204
688.771
686.33
750.806
726.077
745.05
756.072
683.937
686.608
746.892
961.718
1008.36
889.736
800.346
483.823
667.624
695.485
214.44
92.7534
8.22217
137.935
-17.571
185.555
-38.7991
165.291
25.3461
50.3574
220.409
264.36
230.766
243.25
197.61
107.39
408.905
511.345
394.299
89.3318
412.832
430.874
485.773
490.761
342.078
609.244
263.459
407.156
330.381
259.668
259.471
295.302
133.582
402.218
197.896
372.123
142.705
409.759
147.352
-29.8635
72.399
38.5993
284.04
310.435
441.591
436.062
752.239
965.658
912.08
784.475
749.825
918.811
754.488
972.608
788.002
922.738
743.514
937.829
904.256
746.68
898.571
738.92
893.962
935.345
895.17
736.648
672.379
821.946
670.113
825.068
676.205
831.559
678.21
828.582
663.388
818.072
665.853
814.389
658.747
806.276
810.053
655.893
612.066
756.429
609.574
758.63
615.515
765.348
618.201
761.913
600.039
753.696
604.436
749.925
590.859
728.6
740.399
589.365
727.885
884.229
887.64
726.009
731.032
892.634
732.583
890.853
683.595
834.68
681.728
837.195
642.503
787.897
792.31
639.236
647.802
801.658
650.869
797.277
630.601
782.935
633.923
778.27
625.667
769.248
622.517
773.379
1322.82
1156.48
1048.5
1181.04
1163.53
1189.18
1313.74
1333.88
1201.64
1177.71
1055.15
1172.91
1341.36
1195.42
1350.09
1057.93
1184.8
1203.7
1351.66
1202.9
1059.58
1184.21
1186.27
1205.73
1349.02
1296.78
1147.56
1036.22
1173.91
1143.58
1303.75
1167.37
1291.55
1159.98
1136.14
1030.99
1138.53
1289.21
1162.61
1293.39
1138.23
1026.14
1160.3
1137.8
1159.56
1294.88
1291.06
1158.32
1026.39
1135.26
1136.59
1158.9
1289.72
1284.3
1126.2
1017.01
1148.63
1128.98
1151.95
1281.16
1287.71
1156.52
1133.56
1020.24
1132.38
1290.33
1153.85
1297.08
1138.81
1161.47
1025.61
1296.67
1139.67
1161.49
1295.74
1157.93
1024.25
1136.59
1138.51
1160.4
1293.47
1205.81
1054.38
949.252
1075.06
1056.37
1077.4
1203.93
1207.79
1080.55
1059.33
951.873
1058.68
1209.3
1078.75
1216.54
1067.18
958.968
1088.84
1066.51
1086.96
1218.25
1213.97
1082.15
956.349
1061.95
1064.07
1084.88
1211.58
1221.47
1069.39
962.877
1090.13
1071.1
1220.02
1091.93
1222.92
1094.28
964.911
1073.25
1072.88
1092.99
1224.04
1199.49
1051.57
944.426
1073.45
1050.63
1201.61
1071.01
1196.35
1065.25
1045.22
941.109
1047.62
1193.46
1068.56
1186.73
1035.9
932.197
1056.27
1038.22
1059.06
1184.82
1188.97
1063.27
935.559
1042.04
1041.25
1060.88
1190.55
1162.91
1014.33
912.332
1034.27
1016.56
1037.65
1160.88
1165.82
1042.65
1021.03
916.31
1020.07
1167.96
1039.64
1179.13
1032.4
1054.58
926.99
1182.07
1031.02
1051.42
1175.09
1044.96
922.889
1024.82
1027.29
1048.76
1171.63
1120.43
981.084
876.567
997.931
979.988
999.784
1120.62
1122.51
1002.64
981.565
880.992
982.712
1123.78
999.171
1132.69
989.462
887.94
1011.24
989.934
1008.59
1133.91
1129.42
1003.23
883.323
985.624
986.552
1007.44
1127.16
1155.49
1010.39
1032.43
906.38
1157.92
1009.47
1029.02
1151.3
1022.07
901.719
1003.11
1005.45
1026.45
1147.84
1138.09
992.792
891.625
1011.79
994.27
1136.38
1015
1141.32
1020.01
895.905
998.751
998.029
1016.38
1143.76
1119.37
978.077
877.616
1000.41
980.421
1119.94
998.264
1115.35
992.15
974.578
869.509
974.907
1110.18
998.659
1069.33
932.755
838.555
944.345
939.387
965.394
1050.77
1089.11
989.757
860.96
961.635
959.911
976.921
1100.65
984.413
896.764
918.282
790.727
1017.06
882.632
881.585
914.735
759.03
752.031
782.929
827.746
825.016
848.083
)
;

boundaryField
{
    left
    {
        type            zeroGradient;
    }
    bottom
    {
        type            zeroGradient;
    }
    interface
    {
        type            zeroGradient;
    }
    procBoundary4to0
    {
        type            processor;
        value           nonuniform List<scalar> 
58
(
301.39
773.039
788.736
755.066
972.306
421.141
151.252
257.433
523.349
150.525
151.252
1195.69
1195.69
1195.69
1195.69
523.349
729.153
729.153
729.153
729.153
729.153
257.433
257.433
257.433
257.433
257.433
32.904
150.525
150.525
150.525
150.525
1008.86
1055.69
428.374
511.681
301.339
7.15689
630.968
-89.6941
68.701
-141.695
-272.153
-29.2498
-29.2498
324.24
-272.153
-128.992
884.738
1058.72
1359.68
755.066
921.481
921.481
921.481
788.736
1342.58
1179.85
1197.65
)
;
    }
    procBoundary4to1
    {
        type            processor;
        value           nonuniform List<scalar> 
78
(
765.174
777.201
781.438
775.859
772.873
920.055
758.114
912.619
786.557
932.427
781.438
775.859
765.89
767.642
934.627
765.89
1066.77
1066.33
753.499
1069.6
1086.19
1328.03
1343.71
1313.79
1304.84
1319.14
1315.49
761.907
934.627
934.627
1323.32
1324.56
1058.77
1060.48
1112.03
1382.19
1363.4
1131.64
1398.58
1410.19
1298.9
1299.71
1303.93
1308.8
1324.28
1343.71
1328.03
1363.4
1382.19
1407.02
1410.19
1398.58
1304.84
1313.79
1299.71
1298.9
1315.49
1319.14
1308.8
1303.93
1324.56
1323.32
1324.28
913.224
911.728
781.438
781.438
947.468
811.685
958.214
815.135
772.873
775.859
772.873
767.642
767.642
765.89
761.907
)
;
    }
    procBoundary4to5
    {
        type            processor;
        value           nonuniform List<scalar> 
526
(
725.144
684.003
607.896
729.352
736.615
737.965
733.7
732.344
691.021
697.231
699.267
692.455
690.239
622.045
634.18
635.86
626.556
623.651
747.889
712.792
658.402
755.168
756.934
742.09
751.521
749.796
719.489
720.926
708.04
716.172
714.601
664.961
667.904
648.877
658.934
656.023
721.154
676.209
573.388
733.517
742.061
740.826
904.074
904.074
911.481
911.481
901.349
901.349
728.171
729.436
894.467
894.467
697.28
705.401
703.569
859.57
859.57
870.095
870.095
855.674
855.674
682.326
684.941
842.703
630.865
642.738
640.668
790.47
800.105
787.855
500.237
540.902
614.698
609.703
755.387
1055.18
1029.68
1022.74
717.142
1011.87
1020.46
979.365
667.632
760.515
924.834
924.834
1302.14
1306.83
737.495
745.058
746.395
920.654
920.654
913.264
913.264
1032.98
1279.25
1281.48
1042.06
1291.95
1291.14
1049.06
1298.22
1294.97
1043.28
1291.95
1292.36
1277.27
1275.47
1268.36
1269.53
725.272
723.973
884.739
884.739
892.278
892.278
1255.88
1257.57
1267.27
1266.08
702.904
709.323
711
881.954
881.954
873.225
873.225
983.782
1224.49
1226.47
995.636
1239.65
1238.03
1008.69
1253.96
1252.4
999.121
1241.71
1243.33
1221.71
1219.72
1037.27
1037.27
1037.27
1037.27
1037.27
1037.27
1037.27
676.628
673.995
822.985
837.99
1014.02
1014.02
1014.02
1014.02
1014.02
1014.02
1030.76
1030.76
1030.76
1030.76
1030.76
1030.76
639.574
647.822
650.399
818.003
803.738
982.608
982.608
982.608
982.608
982.608
982.608
986.905
986.905
986.905
986.905
986.905
986.905
1009.05
1009.05
1009.05
1009.05
1009.05
1009.05
990.906
990.906
990.906
990.906
990.906
990.906
982.569
982.569
982.569
982.569
982.569
982.569
936.614
936.614
936.614
936.614
936.614
936.614
500.237
726.422
887.83
887.83
887.83
887.83
887.83
887.83
326.444
576.606
1062.34
1068.1
1026.9
1024.62
1014.81
1017.79
974.576
969.508
1316.56
1311.83
929.132
1321.13
932.671
1036.42
906.756
1285.54
1283.57
1039.7
909.306
1287.7
1289.87
1045.35
917.321
1291.1
1292.85
1043.78
914.973
1291.42
1291.56
898.807
1272.01
1273.75
896.527
1271.04
1270.28
887.349
1260.64
1259.31
889.898
1262.49
1264.4
987.805
1230.63
1229
863.219
991.857
1233.25
1235.47
866.736
1005.47
879.06
1248.31
1250.25
1002.22
1246.38
1245.13
876.141
1213.72
1216.41
851.487
1210.67
1209.48