/*--------------------------------*- C++ -*----------------------------------*\
| =========                 |                                                 |
| \\      /  F ield         | OpenFOAM: The Open Source CFD Toolbox           |
|  \\    /   O peration     | Version:  2012                                  |
|   \\  /    A nd           | Website:  www.openfoam.com                      |
|    \\/     M anipulation  |                                                 |
\*---------------------------------------------------------------------------*/
FoamFile
{
    version     2.0;
    format      ascii;
    class       volSymmTensorField;
    location    "0.104/solid";
    object      sigma;
}
// * * * * * * * * * * * * * * * * * * * * * * * * * * * * * * * * * * * * * //

dimensions      [1 -1 -2 0 0 0 0];


internalField   nonuniform List<symmTensor> 
3125
(
(379.292 202.894 -4.80897 1400.92 -4.32628 528.668)
(375.416 196.626 -3.63749 1381.75 -5.70599 524.744)
(349.218 186.675 -0.850627 1327.47 -4.82399 502.698)
(346.649 185.672 -0.747671 1320.64 -4.81606 499.849)
(324.303 176.543 -1.5381 1267.63 -6.26425 477.107)
(319.599 174.332 -1.80498 1256.62 -6.3055 472.938)
(268.554 159.62 -8.4665 1131.54 41.4026 460.93)
(257.499 164.941 -15.6874 1081.11 67.2136 466.983)
(361.41 191.806 -1.60207 1355.95 -5.62517 514.822)
(358.174 189.809 -1.30249 1346.79 -5.50209 511.432)
(338.628 182.799 -0.939826 1301.33 -5.14586 491.149)
(335.556 181.527 -1.06816 1293.93 -5.48437 488.008)
(301.394 165.995 -2.67932 1214.89 -2.19617 460.373)
(293.791 163.023 -3.10365 1197.98 2.38781 457.419)
(385.568 206.076 -0.0783888 1412.25 1.98431 528.674)
(113.178 414.665 -6.49829 818.792 1.22938 275.53)
(599.224 -43.0579 -10.3633 1608.29 -17.5672 656.046)
(296.118 53.1443 -7.81618 470.561 0.0883077 221.219)
(116.052 416.446 3.4353 822.811 1.00917 275.206)
(285.096 51.7912 -0.533924 455.395 -2.92352 218.817)
(120.116 402.439 -4.84056 821.773 -2.98094 277.539)
(594.115 -46.6089 -7.49994 1585.87 -12.4087 653.108)
(370.563 194.106 -0.806114 1370.13 -4.90817 521.257)
(583.587 -44.1687 -0.523 1576.07 3.14381 645.425)
(313.849 47.924 -5.79815 485.983 -0.346854 235.216)
(115.848 400.384 0.304954 811.609 -6.23779 276.739)
(266.505 50.6565 -0.678315 435.677 -1.49044 210.526)
(351.885 187.734 -0.785815 1333.81 -4.74839 505.556)
(97.5443 393.896 -1.3125 774.834 -4.24176 261.882)
(263.859 49.7478 -2.00931 432.037 -1.53886 208.736)
(99.1772 395.441 -1.21357 778.961 -4.26651 264.011)
(256.588 49.5579 -1.82771 423.69 -1.55885 203.106)
(96.2148 392.189 -1.38598 770.576 -4.18547 260.003)
(344.036 184.836 -0.646309 1314.24 -4.7096 497.016)
(263.618 49.5781 -0.78593 431.499 -1.41463 208.625)
(94.1926 391.102 -0.896097 765.63 -4.46432 257.912)
(242.947 48.1452 -1.29851 407.943 -1.92263 194.496)
(328.438 178.466 -1.36858 1277.34 -6.05692 481.019)
(80.5648 380.868 -1.89354 732.119 -5.7818 243.769)
(235.151 47.4557 -2.56404 398.899 -2.30001 190.737)
(83.2931 383.18 -1.96624 738.972 -5.3824 246.468)
(223.204 46.4406 -2.31123 385.188 -2.10482 188.161)
(77.4838 378.317 -2.39478 724.296 -5.55815 241.122)
(314.268 171.82 -2.04463 1244.22 -5.86315 468.6)
(234.229 47.1698 -1.50745 397.913 -2.0982 190.763)
(74.04 375.425 -2.30063 715.452 -5.30306 238.354)
(174.256 44.1208 6.75952 331.148 6.75182 222.971)
(277.068 158.995 -5.1274 1158.95 22.7225 457.081)
(43.8679 362.968 -4.35657 627.371 50.4817 256.099)
(131.101 45.871 13.7274 282.829 18.6292 311.703)
(50.0823 363 -2.58582 649.972 26.5519 242.336)
(37.7605 38.4574 -12.4299 172.248 -1.91575 619.686)
(35.1147 365.575 -10.4704 585.921 89.994 286.172)
(233.513 189.281 -34.9722 959.498 112.126 484.08)
(123.405 45.1308 15.7362 275.481 19.5889 336.546)
(38.3867 372.041 -32.158 504.663 165.174 352.609)
(-29.8899 591.553 -1.76703 382.538 3.13508 103.522)
(1110.8 -64.6468 -8.83169 1567.91 -11.0378 796.862)
(-24.6086 584.881 -1.93629 389.923 -4.87655 107.308)
(-28.8577 581.419 -0.378757 378.354 -3.40484 105.128)
(1094.93 -66.5201 -6.22125 1543.46 -6.97422 784.715)
(1089.58 -63.4259 -0.856428 1540.71 3.09425 784.475)
(277.023 53.3499 0.324814 448.391 -2.40802 214.186)
(365.355 193.487 -0.832319 1363.89 -5.03 518.177)
(105.1 400.756 -2.40406 794.334 -4.3864 270.19)
(277.201 50.8779 -3.06714 447.7 -1.69786 217.53)
(107.506 402.815 -0.680791 799.408 -5.12051 272.995)
(1075.5 -63.3127 -2.63963 1525.66 -3.13446 779.711)
(1090.44 -62.4858 -1.50064 1544.31 1.33754 787.477)
(-35.75 579.834 -0.851474 365.926 -2.09374 99.5493)
(-33.9181 582.766 -0.762662 370.916 -8.92503 101.797)
(267.839 50.6636 -1.76262 436.742 -1.76371 211.138)
(354.921 188.613 -0.718371 1339.6 -4.91536 508.398)
(104.976 397.085 -2.03421 790.779 -4.64548 268.548)
(279.377 50.0088 -1.72789 449.086 -1.62752 219.232)
(102.333 395.873 -0.672683 784.723 -5.00159 266.462)
(-41.1155 572.564 -0.527525 351.975 -1.68929 93.7334)
(-39.8796 575.081 -0.876647 356.012 -7.71502 95.5326)
(1051.4 -62.5421 -1.1973 1496.89 -1.56231 764.269)
(1060.67 -62.5371 -1.23941 1508.64 -0.554274 770.663)
(1069.69 -63.4987 -2.14022 1517.72 -2.36595 775.673)
(1062.37 -62.7327 -1.07923 1510.22 -0.0694546 771.427)
(-35.5481 577.747 -1.21378 365.762 -7.85179 99.4282)
(-38.0629 575.375 -0.439628 358.872 -2.29627 96.9323)
(-41.7664 571.56 -0.942258 350.654 -7.32583 93.0636)
(-43.6532 569.45 -0.466593 345.415 -1.88183 90.9195)
(1048.07 -62.48 -1.08103 1492.52 -1.43161 761.823)
(1040.58 -62.2008 -0.981204 1483.61 -0.777751 756.454)
(255.864 49.4787 -0.76725 423.026 -1.36407 202.78)
(341.401 183.922 -0.823722 1308.04 -4.85753 494.141)
(90.2796 388.497 -1.28273 756.225 -4.69955 253.575)
(251.483 48.8685 -2.15069 417.684 -1.78914 199.581)
(92.0968 390.031 -1.38416 760.838 -4.26254 255.743)
(1029.3 -62.0723 -1.43942 1469.67 -1.27501 748.706)
(1038.2 -62.1414 -1.15888 1480.7 -0.988237 754.831)
(-46.2157 566.064 -0.589848 338.769 -2.31694 87.9721)
(-44.7947 568.766 -0.939549 343.438 -7.50036 89.9333)
(243.844 48.2792 -2.37146 408.944 -2.0665 194.786)
(332.157 180.11 -1.15044 1285.98 -5.74766 484.639)
(88.2652 386.825 -1.64561 751.057 -4.84142 251.401)
(250.845 48.7351 -1.03827 416.926 -1.67087 199.329)
(85.8841 385.101 -1.45413 745.258 -5.35506 248.978)
(-52.6154 556.585 -0.94169 321.233 -3.64906 80.9633)
(-50.5915 560.758 -1.24423 328.212 -8.75616 83.4926)
(999.013 -61.8828 -2.5269 1433.05 -1.48417 730.954)
(1011.94 -61.8753 -2.04823 1448.66 -1.3902 738)
(1025.97 -62.0097 -1.56076 1465.51 -1.35564 746.532)
(1015.66 -61.8973 -1.85139 1453.18 -1.22817 740.132)
(-47.3002 565.08 -1.07197 336.804 -8.04722 87.0223)
(-49.23 561.941 -0.733253 330.718 -3.08727 84.6563)
(-54.2058 555.027 -1.46178 318.234 -9.12886 79.6838)
(-56.4562 549.614 -1.11137 309.84 -2.97895 77.2253)
(994.166 -61.8952 -2.78037 1427.15 -1.60136 728.673)
(221.876 46.044 -1.19808 383.828 -1.77983 188.73)
(308.231 169.006 -2.39206 1230.35 -4.6975 464.332)
(65.9781 369.113 -2.51397 694.254 -1.43441 234.166)
(206.191 45.2327 -0.642477 365.897 -0.386599 192.171)
(70.1564 372.383 -2.75998 705.406 -3.82455 236.048)
(-60.4939 541.232 -1.00195 297.452 2.00779 74.7725)
(-58.3188 547.686 -1.60503 306.261 -7.73548 75.9595)
(178.556 44.5579 4.63405 335.266 5.44087 216.293)
(285.554 160.477 -3.68921 1179.56 10.254 455.983)
(61.1944 366.267 -2.6656 681.475 3.61166 233.949)
(203.934 44.755 0.777549 363.675 0.248095 194.204)
(56.1007 363.858 -2.18954 667.229 11.9341 235.652)
(-65.1126 526.981 1.64357 286.523 73.5209 99.6276)
(-66.3652 532.034 -0.386672 284.296 22.2377 79.3473)
(-62.6721 539.281 -1.39777 293.671 -0.723668 74.1007)
(-64.1514 533.202 -0.121916 287.082 19.3426 77.5382)
(-66.6079 525.903 0.80834 287.235 95.1446 112.403)
(-33.7703 491.72 1.60001 312.894 275.267 226.907)
(21.4119 40.2208 -26.7806 150.352 -12.6327 676.033)
(98.928 459.984 -29.3997 310.158 351.554 339.582)
(33.846 470.499 -7.48739 315.833 378.236 330.703)
(166.92 366.538 -33.6747 861.343 18.9133 823.243)
(138.123 465.645 -25.6189 191.242 324.199 518.545)
(110.144 243.242 -12.5747 1097.79 -4.64691 353.024)
(246.195 67.4571 -6.09219 422.308 1.68865 172.943)
(-28.1379 285.315 -8.67546 616.638 1.75681 166.835)
(497.547 83.0616 -3.87108 1194.52 1.09351 492.031)
(109.279 238.493 -0.620543 1095.08 5.56687 351.719)
(272.98 58.0153 -7.42356 450.205 3.17355 196.369)
(-13.3811 272.316 -21.1739 626.137 -0.945319 174.944)
(504.614 67.9491 -13.7905 1189 -6.24839 497.899)
(116.694 229.742 -25.9739 1094.06 -10.1668 354.291)
(-25.2974 281.067 -1.85567 618.342 3.98917 168.03)
(499.295 76.0576 -13.217 1193.43 -1.31362 494.382)
(121.144 220.607 11.1515 1078.12 1.03265 355.779)
(491.731 66.9375 1.57538 1161.19 -1.48121 493.377)
(302.547 50.8396 0.791524 469.524 -4.08843 229.806)
(-11.1315 263.804 -5.80436 615.299 -5.62467 180.895)
(-1.05563 260.393 8.93355 622.423 -4.89325 183.033)
(498.533 64.8523 0.274433 1163.57 -2.33376 495.195)
(114.566 223.262 -8.73744 1074.26 -9.82172 355.84)
(125.845 219.833 -15.7394 1085.06 -12.0978 356.36)
(316.454 47.0774 -1.17036 483.759 -4.21445 239.132)
(1.49775 263.129 -3.04879 631.558 -1.50741 180.921)
(506.744 63.3733 -10.9491 1178.89 -5.94626 497.518)
(123.341 222.951 -1.06723 1090.23 0.354908 355.1)
(6.04583 258.59 -12.209 631.181 -6.07719 183.922)
(504.749 62.641 -3.71516 1169.88 -5.69721 496.349)
(95.6816 219.385 -12.7198 1042.34 -9.41978 341.914)
(469.533 65.3899 -1.90934 1132.9 -1.44621 481.038)
(265.282 50.7943 -2.13546 432.723 -1.4763 209.433)
(-29.5026 261.412 5.88989 589.111 -1.76538 169.594)
(96.2167 219.82 9.09774 1044.07 2.64332 342.688)
(-28.6437 260.05 -10.4035 588.96 -3.51685 169.163)
(468.011 65.2556 -1.91846 1130.29 -2.73327 479.582)
(94.4411 218.674 8.50686 1039.15 2.32941 339.777)
(266.759 50.0869 -1.21757 434.004 -1.003 210.684)
(-30.5744 258.994 -9.63051 585.335 -4.16487 167.464)
(465.111 64.2066 -1.74573 1125.09 -2.95983 476.927)
(93.9067 218.006 -12.5248 1037.28 -9.79751 339.614)
(-29.1687 259.354 5.79271 586.688 -1.9988 167.741)
(466.527 64.8865 -2.4185 1127.25 -1.75848 478.043)
(90.6366 216.76 9.2611 1027.91 2.2929 334.982)
(457.499 63.9369 -1.16666 1113.29 -2.37177 470.679)
(260.93 49.8442 -0.691038 426.414 -1.30691 206.142)
(-34.63 257.353 -8.83373 576.992 -4.10894 163.468)
(-31.858 256.959 6.5926 578.949 -2.28623 164.187)
(459.316 64.3341 -1.59763 1114.74 -1.56316 471.81)
(89.2955 216.596 -11.7327 1026.22 -9.39411 334.742)
(92.436 217.035 -12.3035 1031.4 -9.73198 337.018)
(262.135 49.754 -1.65231 427.757 -1.76092 206.901)
(-31.2633 258.437 5.10024 582.65 -1.98299 166.195)
(463.234 64.1138 -2.27069 1121.45 -2.29246 475.252)
(92.7005 217.428 8.39368 1033.79 1.9923 337.739)
(-30.0143 256.938 -10.0405 582.188 -3.89342 165.859)
(461.374 64.2717 -1.49117 1117.77 -3.03136 473.41)
(75.8744 211.092 -13.3523 995.327 -10.5035 321.053)
(439.109 61.8688 -3.06199 1085.39 -2.5649 456.75)
(240.482 48.2815 -2.53442 403.341 -2.22025 192.899)
(-45.6785 252.959 4.41437 555.714 -2.77486 153.354)
(76.5529 211.818 7.44003 998.212 1.14003 321.707)
(-44.8109 251.175 -11.061 555 -4.63585 153.13)
(436.703 61.7043 -2.79811 1081.23 -3.63419 454.944)
(73.5162 210.28 7.34726 990.311 0.875675 318.443)
(240.791 47.7326 -1.64584 403.426 -1.79991 193.592)
(-49.1619 250.262 -10.1205 548.529 -5.24385 151.053)
(431.142 60.7398 -2.75518 1073.47 -3.46581 451.896)
(71.9472 209.553 -13.122 987.359 -10.6747 318.427)
(-46.5154 250.617 4.88368 550.897 -3.25923 151.354)
(433.935 61.4635 -3.19513 1076.69 -2.51515 453.164)
(65.0102 206.814 6.52605 971.507 0.751576 313.015)
(417.128 59.1899 -3.25241 1052.81 -3.35907 446.216)
(230.607 46.6345 -1.68252 391.678 -1.78837 190.401)
(-56.5044 246.788 -10.2805 533.959 -4.90244 148.173)
(-53.4746 247.36 4.28399 536.952 -3.1552 147.863)
(420.907 59.9576 -3.77767 1057.27 -2.63687 447.033)
(62.8771 205.98 -13.5844 967.48 -10.3235 313.504)
(68.0333 207.801 -13.8968 977.913 -10.7167 315.581)
(230.184 47.3823 -2.63609 391.61 -2.24468 189.139)
(-51.822 250.005 3.82311 543.505 -3.12095 149.272)
(427.861 60.448 -3.66039 1068.54 -2.93167 450.268)
(69.1048 208.7 6.65605 981.714 0.613638 315.902)
(-51.2924 248.013 -11.4597 542.251 -4.79413 149.435)
(424.616 60.2057 -3.38902 1063.22 -3.89808 448.577)
(22.249 202.136 -15.5156 884.251 14.5972 345.407)
(361.772 58.8411 -2.61813 975.685 7.85019 473.717)
(153.562 46.3759 8.22894 308.409 12.166 245.188)
(-89.5804 243.834 8.09103 475.064 15.2035 176.724)
(27.0691 200.98 5.58625 895.163 18.931 333.411)
(-93.4365 243.685 -5.58347 468.368 19.4522 191.932)
(352.304 60.0673 -3.1645 962.18 10.0756 488.018)
(16.8702 202.975 1.50542 868.602 32.1432 359.378)
(155.427 44.0892 10.7205 309.034 13.7806 263.223)
(-104.05 245.879 -3.14236 444.668 35.1557 238.784)
(331.926 63.891 -7.06618 927.885 18.2519 533.903)
(11.6445 205.642 -20.6574 852.792 30.3961 380.632)
(-98.7607 245.004 7.61988 454.199 29.7224 210.454)
(342.671 62.016 -5.30609 945.208 14.8323 507.729)
(-2.99074 219.958 -35.6852 754.165 52.7326 497.02)
(276.192 84.079 -57.512 795.639 -18.0061 723.203)
(83.6761 41.4227 8.8725 230.476 19.6285 475.387)
(-120.887 263.807 -31.5798 335.748 58.9285 519.973)
(-135.842 262.689 -10.4931 354.633 65.9028 404.225)
(292.594 76.4068 -40.9959 839.654 5.84607 666.519)
(17.0714 234.801 -67.5632 718.59 30.4528 586.76)
(-0.433455 214.331 -38.8706 798.899 44.4076 447.616)
(82.7595 46.5456 10.3578 232.218 22.9324 422.738)
(-120.661 253.123 7.39557 416.545 47.024 274.407)
(319.401 67.0413 -13.2622 906.186 20.0647 569.654)
(3.78973 208.579 -8.00686 827.196 47.1848 407.588)
(-127.287 254.975 -9.993 399.401 54.3856 331.015)
(305.992 70.6258 -24.1179 879.065 16.7674 613.477)
(-207.354 260.27 -14.6862 258.765 4.52137 7.12337)
(69.6625 207.308 -10.5149 283.455 2.16005 98.9789)
(-34.9669 597.256 -1.7419 374.851 -1.14138 99.8462)
(64.6914 209.938 2.2581 276.586 -0.673513 93.2862)
(-186.712 249.423 -22.6543 278.535 2.16248 22.9853)
(-204.479 258.7 5.88227 262.745 4.15978 10.2837)
(-34.6679 598.616 0.447783 373.766 5.98151 99.2421)
(71.9431 208.026 -4.65759 279.016 5.50057 92.1208)
(1043.76 -56.8247 -12.5734 1311.15 -6.77934 690.299)
(1131.19 -60.8175 -9.67523 1598.54 -10.9584 811.586)
(986.007 0.242935 -10.5404 1431.55 -12.2722 718.286)
(993.984 7.17072 -10.265 1452.63 -2.45998 720.21)
(1148.07 -56.6973 -6.85715 1620.94 -4.15656 821.335)
(996.697 9.60798 -10.5084 1459.71 -6.0917 722.034)
(1042.06 -61.5854 -11.3606 1297.17 -11.1674 693.875)
(1044.44 -58.6755 -3.80354 1304.07 4.38764 691.559)
(-184.607 243.821 -10.0918 271.224 -5.09832 30.3138)
(-170.241 239.552 11.9252 286.795 -6.648 35.4709)
(73.7428 203.866 1.10826 290.674 -4.72049 105.511)
(-22.5762 580.833 -1.17738 391.604 -1.50093 108.937)
(74.9465 201.893 -8.16899 291.194 -1.77919 107.873)
(-173.871 244.63 1.67126 289.098 0.439734 31.5566)
(-165.689 238.149 -13.247 291.812 -5.10317 37.4889)
(70.4094 200.925 -6.06432 280.568 -2.46297 105.419)
(-25.4501 580.167 -0.794844 386.188 -8.81949 107.396)
(73.036 200.906 5.22586 286.913 -7.88451 107.254)
(1016.71 -59.1223 -5.43451 1269.03 -5.41819 681.504)
(1021.49 -59.3843 3.31986 1271.11 4.31697 681.767)
(1087.08 -66.4597 -3.0922 1532.63 -1.16594 779.012)
(980.071 -0.219322 -8.06653 1420.79 -4.93203 712.677)
(970.835 0.452382 -2.09035 1406.24 -5.02088 708.723)
(963.883 3.38501 -0.937362 1405.94 -1.38947 706.943)
(1086.93 -64.9203 -1.26702 1533.96 2.952 780.383)
(967.763 1.43166 -0.115271 1403.75 2.97727 706.976)
(1037.57 -61.5989 -1.57372 1287.88 0.708166 689.449)
(1025.66 -59.7554 -5.72846 1274.04 -8.17037 684.303)
(104.808 225.152 -13.0922 1066.67 -9.45255 352.261)
(486.472 68.2794 -0.356899 1159.32 -0.700002 492.353)
(271.415 53.8174 -3.11853 442.162 -1.14158 211.452)
(-21.6971 267.405 8.12776 606.155 -2.40658 176.645)
(107.431 224.947 11.2738 1068.64 2.90919 352.819)
(483.447 68.2233 -2.47754 1156.99 -2.39598 491.219)
(-23.462 266.831 -10.7272 604.871 -3.4031 175.928)
(103.29 223.761 6.86785 1062.78 2.19755 349.412)
(277.407 51.5679 -2.43834 447.936 -0.62128 216.528)
(481.251 65.379 -3.82287 1150.14 -3.98697 488.977)
(-22.3539 263.41 -11.8628 602.606 -4.4034 174.952)
(482.047 67.0008 -4.38702 1153.4 -2.09118 489.742)
(-23.2647 265.312 4.0827 602.71 -1.69043 174.261)
(103.949 221.857 -14.9521 1060.63 -10.6536 349.469)
(1015.1 -59.2587 3.50379 1267.43 5.73649 681.328)
(1011.36 -59.2331 -6.90174 1265.48 -7.01499 681.214)
(1082.07 -62.7725 -2.91667 1534.64 -2.88789 784.064)
(951.904 1.61732 -3.55864 1391.15 -6.30224 702.734)
(956.804 3.01629 -2.63126 1398.69 0.684011 705.071)
(962.773 3.62953 0.202512 1405.41 4.02182 706.968)
(1087.87 -62.3285 -2.30072 1542.17 -1.53112 787.326)
(959.15 3.32385 -3.64366 1402.89 -4.97201 706.979)
(1005.78 -60.0018 -6.60542 1256.7 -8.00322 678.385)
(1009.44 -59.464 1.79306 1260.82 4.40226 679.662)
(-192.079 246.278 12.5351 264.286 -5.20181 25.9251)
(-195.455 245.396 -14.8291 260.654 -1.82846 23.9886)
(60.5781 200.676 -7.94367 268.333 -1.57472 99.4565)
(-36.2675 581.59 -1.21404 366.246 -8.01723 99.5633)
(59.2055 201.928 3.3777 268.018 -6.34196 99.1597)
(-193.233 242.757 -15.2278 260.905 -2.63061 25.0372)
(-194.583 244.756 8.34637 261.268 -2.74577 24.2655)
(64.0052 202.042 4.86267 273.001 -6.84245 101.569)
(-35.2822 582.891 -0.579671 367.512 -2.41218 100.511)
(62.6216 201.89 -7.62175 270.124 -1.07519 100.358)
(101.204 219.586 9.67341 1049.36 1.99623 345.205)
(274.406 50.7963 -0.587419 441.179 -1.94336 215.525)
(471.728 65.383 -0.774753 1134.98 -2.16674 482.38)
(-26.1016 260.761 -8.35692 592.997 -4.4082 171.798)
(98.8833 219.89 -11.3262 1047.48 -9.505 344.995)
(474.351 65.4258 -1.34795 1136.37 -1.75014 483.583)
(-21.887 259.784 7.05246 595.821 -2.91846 172.845)
(103.72 219.64 -12.991 1053.5 -10.55 347.147)
(278.034 50.0366 -1.69546 444.929 -2.4364 217.947)
(479.5 64.828 -3.80345 1144.8 -3.27219 487.168)
(-20.5489 261.385 3.57987 600.826 -2.456 174.589)
(103.749 220.381 6.84755 1056.57 1.20916 347.703)
(477.258 64.9856 -1.95629 1139.93 -3.67705 485.181)
(-18.8484 259.363 -10.5465 600.188 -4.66412 174.588)
(-198.332 241.362 10.1457 251.386 -3.62591 21.2751)
(-197.194 239.276 -13.8363 251.264 -2.15434 20.6557)
(52.3109 197.128 -7.01549 255.782 -1.23707 93.2584)
(-40.7455 573.3 -0.888765 353.582 -7.48138 94.2504)
(51.7436 197.886 4.14539 256.566 -6.17414 93.6499)
(-199.228 238.981 -13.3327 247.947 -2.72474 19.4487)
(-197.105 239.04 9.5228 251.099 -3.2258 20.4741)
(54.5137 198.352 4.06562 259.402 -6.07878 95.3698)
(-39.9992 574.247 -0.539955 354.888 -1.67022 95.0068)
(53.5742 198.114 -7.42583 258.043 -0.810106 94.6046)
(990.47 -59.4082 3.1618 1239.41 4.93843 668.578)
(986.807 -59.0243 -5.71274 1236.14 -6.89844 666.688)
(1054.76 -62.4732 -1.40618 1501.21 -1.42353 766.697)
(929.285 1.83957 -2.10779 1363.81 -4.8072 687.812)
(932.62 2.37265 -1.09525 1367.9 1.42297 690.019)
(937.476 2.47757 -0.624673 1374.44 2.25519 693.21)
(1058.08 -62.458 -1.26874 1505.55 -1.38994 769.004)
(934.401 2.39504 -2.28601 1370.68 -4.67919 691.668)
(982.503 -59.4169 -5.55458 1230.46 -6.99194 663.62)
(985.093 -59.0671 2.90127 1233.08 4.58322 665.084)
(991.605 -59.3038 -5.73709 1241.21 -6.25605 669.427)
(993.935 -58.9345 3.11198 1242.87 4.70839 670.316)
(948.817 1.70469 -1.99732 1386.46 -0.0221187 700.042)
(1065.62 -63.3389 -1.45612 1512.73 -1.20203 772.882)
(943.531 2.07832 -1.94721 1379.68 -4.64817 697.328)
(1002.71 -59.9231 2.43151 1251.96 3.50353 675.587)
(996.088 -58.9968 -5.53862 1245.33 -7.2495 672.017)
(938.746 2.44834 -1.93756 1376.07 -3.47654 694.291)
(1063.52 -62.9639 -1.20297 1510.62 0.0199152 771.785)
(941.559 2.33601 -0.599862 1377.36 2.15412 695.737)
(-196.196 240.737 -12.3048 253.459 -3.36394 22.6968)
(-190.023 239.037 10.4915 260.282 -4.58283 25.384)
(60.0161 199.667 3.08299 268.183 -6.37463 99.6019)
(-35.1419 576.042 -0.741156 365.18 -2.24371 99.2861)
(59.2736 199.078 -7.66339 266.972 -1.54602 99.2449)
(-191.166 241.783 7.74866 262.202 -3.20588 26.146)
(-188.219 238.569 -13.3951 262.275 -3.43929 26.5283)
(57.0946 198.278 -6.65837 262.183 -1.67434 97.0248)
(-36.7058 575.364 -0.8294 362.401 -8.23115 98.0983)
(57.4074 198.736 4.55699 264.503 -6.94928 98.0295)
(-202.34 237.586 -12.662 241.453 -2.95582 16.2388)
(-198.222 236.591 10.1217 246.306 -3.73416 18.1796)
(51.0512 196.698 3.74378 254.506 -5.87139 92.5276)
(-41.7072 570.458 -0.572332 349.86 -1.63163 92.7158)
(50.1404 196.396 -7.3195 253.246 -0.910596 91.9048)
(-199.244 238.815 9.18499 247.557 -3.17669 19.2439)
(-197.248 236.402 -13.2613 247.438 -2.60618 18.9338)
(48.6268 195.639 -6.72845 249.925 -1.36155 90.0803)
(-42.826 569.773 -0.822802 347.906 -7.58694 91.7642)
(48.5039 196.178 4.41916 251.397 -6.34454 90.8228)
(971.664 -59.1146 -5.56269 1218.31 -6.41246 655.921)
(973.615 -58.6671 3.23408 1220 4.78279 656.997)
(1045.05 -62.3382 -0.884215 1488.76 -1.23555 759.572)
(927.195 1.93152 -0.704093 1360.76 1.11477 685.898)
(923.263 2.15373 -1.71963 1355.8 -4.48174 683.589)
(918.841 1.97999 -1.96835 1351.15 -3.9529 680.186)
(1042.6 -62.2032 -0.978966 1485.78 -0.66175 757.858)
(921.527 2.24981 -0.537531 1353.41 1.92752 681.996)
(980.345 -59.3866 3.30134 1227.23 4.24647 661.584)
(975.357 -58.6824 -5.23704 1222.48 -6.88501 658.578)
(87.1897 215.727 -12.6233 1020.99 -9.55679 331.827)
(455.712 63.804 -2.16453 1110.76 -1.76411 469.22)
(254.964 49.5767 -2.0218 420.105 -1.68171 201.693)
(-36.5478 257.397 5.36656 573.939 -1.81778 161.744)
(87.4717 216.229 8.55112 1022.95 2.33586 332.606)
(454.176 63.7378 -1.8999 1107.76 -2.90947 467.613)
(-35.3375 255.906 -10.3567 573.785 -3.72995 161.38)
(85.6733 215.146 8.4873 1017.54 2.0024 329.676)
(255.373 49.1746 -1.13992 420.349 -1.25443 202.163)
(450.593 62.9633 -1.79293 1102.56 -2.91676 464.861)
(-38.5164 255.38 -9.44544 569.307 -4.45704 159.397)
(452.387 63.5462 -2.27729 1104.61 -1.83923 466.023)
(-36.3697 255.456 5.872 571.051 -2.37488 159.861)
(84.6651 214.644 -12.3464 1015.59 -9.89093 329.506)
(970.25 -59.1896 3.17501 1216.01 4.64085 654.642)
(966.204 -58.6878 -5.56498 1212.26 -6.87114 652.339)
(1032.31 -62.0426 -1.4374 1473.3 -1.13171 750.73)
(908.777 1.57816 -2.35914 1338.52 -4.53089 673.167)
(912.134 2.01594 -1.04263 1342.05 1.52044 675.203)
(917.312 1.98675 -0.691198 1348.99 1.76418 678.755)
(1035.38 -62.0844 -1.20891 1477.22 -1.36323 752.83)
(913.966 1.98228 -2.15958 1344.75 -4.61025 676.869)
(961.802 -59.1057 -5.79401 1206.92 -6.80884 649.4)
(964.381 -58.7095 2.85193 1209.28 4.51926 650.673)
(-203.33 237.815 9.56586 240.313 -3.34652 15.4607)
(-201.532 235.512 -13.6318 240.456 -2.48207 15.0629)
(44.6019 194.2 -7.00079 243.976 -1.73702 86.6848)
(-45.6056 566.717 -0.934244 340.957 -7.84119 88.6824)
(44.2311 194.916 4.07773 245.206 -6.52085 87.2558)
(-205.001 235.757 -13.1361 235.735 -3.24907 13.2028)
(-201.81 235.418 9.51564 239.914 -3.64418 14.6744)
(46.908 195.453 3.82038 248.084 -5.9635 88.9439)
(-44.7144 567.676 -0.60788 342.582 -1.83071 89.5286)
(45.9485 195.194 -7.43244 246.829 -0.996873 88.2441)
(80.3069 212.96 8.17637 1005.02 1.4198 324.327)
(248.662 48.6064 -1.30267 412.39 -1.61494 197.717)
(441.668 62.088 -2.11389 1089.17 -3.09241 458.42)
(-43.4452 253.129 -9.62067 559.734 -4.87879 155.195)
(78.8797 212.467 -12.5369 1002.7 -10.2483 324.147)
(443.942 62.6783 -2.5173 1091.51 -2.14872 459.682)
(-40.8276 253.183 5.61549 561.841 -2.90913 155.734)
(82.3668 213.527 -12.8288 1009.21 -10.1465 326.675)
(248.861 48.91 -2.17937 412.799 -2.05248 197.599)
(448.437 62.8086 -2.61953 1099.06 -2.37979 463.222)
(-40.1207 255.108 4.83007 565.983 -2.38353 157.793)
(82.8636 214.081 7.96769 1011.76 1.5839 327.372)
(446.342 62.7904 -2.19454 1095.26 -3.36486 461.409)
(-39.1124 253.497 -10.5654 565.431 -4.30824 157.48)
(-209.61 233.911 8.68872 226.966 -4.23246 9.21847)
(-208.179 231.213 -14.139 226.03 -3.41351 8.89015)
(34.6327 190.094 -7.46822 228.346 -2.77089 79.5422)
(-51.9373 557.764 -1.28393 324.236 -9.1583 81.8136)
(34.544 191.001 3.38418 230.349 -7.54315 80.151)
(-212.486 231.129 -13.5385 219.603 -4.11571 7.03648)
(-208.74 231.145 8.64214 225.093 -4.56065 8.4078)
(37.9155 191.941 3.17218 234.523 -6.99518 81.9819)
(-50.567 559.205 -0.921712 326.724 -3.23239 82.9796)
(36.8956 191.447 -7.90167 232.729 -2.11691 81.2738)
(946.999 -59.1027 2.44816 1189.38 4.09214 639.967)
(941.374 -58.6082 -6.15176 1184.29 -7.19071 637.537)
(1003.39 -61.8043 -2.41874 1438.18 -1.37638 733.184)
(881.205 0.648394 -3.29299 1305.23 -4.77809 657.275)
(886.248 1.23713 -1.92427 1310.32 1.05291 659.165)
(893.894 1.30121 -1.54311 1320.06 1.1479 663.346)
(1007.79 -61.8405 -2.13242 1443.64 -1.66787 735.576)
(888.944 1.18005 -2.94847 1314.22 -5.01473 661.303)
(934.487 -59.0847 -6.47328 1176.35 -6.96768 634.372)
(938.687 -58.6499 2.08992 1180.04 4.04989 635.417)
(949.256 -59.0251 -6.12029 1192.89 -6.81247 641.801)
(952.333 -58.5638 2.54862 1195.58 4.33086 642.981)
(906.675 1.62796 -1.0957 1335.49 1.1961 671.311)
(1022.45 -61.9193 -1.56962 1461.24 -1.47488 744.225)
(902.347 1.67325 -2.41418 1330.27 -4.78475 669.16)
(959.708 -59.1453 2.86438 1203.67 4.19814 647.545)
(954.531 -58.5596 -5.76271 1198.92 -7.06342 644.848)
(896.217 1.26565 -2.74649 1323.34 -4.49271 665.278)
(1018.97 -61.8485 -1.79512 1456.97 -1.10869 742.093)
(900.126 1.73103 -1.33745 1327.09 1.3977 667.261)
(-208.572 233.727 -13.2445 228.256 -3.77756 9.96137)
(-204.763 233.347 9.26705 233.305 -4.25227 11.646)
(42.9105 193.827 3.48778 242.163 -6.44771 85.6898)
(-47.2738 563.798 -0.739921 335.646 -2.53754 86.5745)
(41.9169 193.44 -7.61689 240.632 -1.60096 84.9937)
(-205.636 235.812 9.0124 234.804 -3.7249 12.6479)
(-204.018 233.306 -13.7344 234.291 -3.09149 12.2656)
(40.0438 192.347 -7.19005 236.812 -2.33616 83.1585)
(-48.4971 562.726 -1.06874 333.445 -8.56695 85.5118)
(39.885 193.107 3.82463 238.511 -7.11189 83.8532)
(-217.336 228.023 -13.3868 208.365 -3.50874 5.62687)
(-213.323 228.319 8.16064 214.933 -4.41296 6.13092)
(32.2188 189.527 2.81631 225.648 -7.28202 78.4805)
(-54.201 553.082 -1.13212 316.278 -3.40559 79.1895)
(31.0899 188.86 -8.1029 223.398 -2.20931 77.9569)
(-213.635 231.325 8.18709 218.06 -4.5438 6.35567)
(-212.553 228.365 -14.3666 216.12 -3.37364 6.48044)
(28.0308 187.276 -7.4656 217.891 -2.16018 76.8037)
(-55.8127 551.215 -1.49211 313.274 -8.92015 77.9499)
(28.2085 188.306 3.08803 220.444 -7.26869 77.0406)
(914.776 -59.0735 -6.78739 1154.59 -6.85052 627.794)
(920.743 -58.7312 1.65871 1159.72 3.79779 627.723)
(988.711 -61.9301 -2.92247 1420.58 -1.86304 726.091)
(878.162 0.679481 -2.14989 1300.9 0.815444 655.001)
(871.645 0.487836 -3.49051 1293.43 -5.24546 653.282)
(861.279 0.0667612 -3.88947 1281.46 -4.61823 650.019)
(983.411 -62.1866 -3.40371 1414.3 -1.32518 724.103)
(868.115 0.568051 -2.53497 1288.2 0.799066 650.839)
(931.541 -59.2132 1.99533 1171.74 3.813 632.218)
(924.285 -58.6921 -6.46372 1165.21 -7.32775 630.101)
(57.4021 204.084 -14.3446 955.187 -9.34677 312.096)
(412.724 58.8806 -4.09555 1046.5 -2.6033 445.353)
(215.425 46.3788 -2.05047 375.015 -1.35031 188.472)
(-60.1246 246.638 3.55514 527.388 -2.37752 146.953)
(59.1688 205.013 5.92284 960.308 1.2166 311.439)
(408.276 58.6093 -3.81742 1039.7 -3.26904 444.7)
(-60.2083 244.535 -11.4289 525.26 -3.47543 148.253)
(53.6131 203.019 5.80329 947.043 2.66867 310.576)
(216.196 45.2755 -0.889033 375.314 -0.753879 191.289)
(398.044 57.7285 -3.20731 1025.32 -1.68964 445.686)
(-66.2501 243.112 -9.42723 514.704 -2.01564 150.253)
(403.361 58.4076 -4.09781 1031.84 -1.59287 444.637)
(-62.7586 243.78 4.10912 518.564 -0.997179 148.004)
(50.6289 202.276 -13.6328 941.52 -7.24685 312.714)
(910.926 -59.2311 1.57825 1148.64 3.7971 625.679)
(901.478 -58.6835 -6.75178 1140.37 -7.10547 625.646)
(834.436 -0.813371 -4.52453 1250.21 -3.82635 648.555)
(843.846 -0.22441 -3.33172 1259.81 0.930693 645.937)
(857.438 0.223651 -2.83018 1276.13 0.850186 647.822)
(848.522 -0.285808 -4.23489 1266.44 -5.08311 647.948)
(887.803 -58.9575 -6.77556 1125.38 -6.13998 627.151)
(896.624 -58.7451 1.34811 1132.92 3.94942 623.548)
(-218.949 228.392 8.08138 206.282 -3.78012 5.12647)
(-218.441 225.331 -14.0437 202.973 -1.34402 6.84238)
(19.7897 184.267 -6.42883 205.464 2.0526 77.7453)
(-60.0279 543.115 -1.54245 300.856 -5.38638 74.856)
(20.1935 185.309 3.42152 208.372 -4.21276 76.5631)
(-223.392 224.841 -11.9446 193.855 0.358994 9.55955)
(-219.205 225.259 8.15942 201.646 -2.04718 7.20043)
(25.02 186.632 2.84285 214.53 -6.09585 76.196)
(-58.2657 545.379 -1.22057 303.99 -1.12517 75.784)
(23.8807 185.807 -7.78169 211.893 -0.233788 76.4908)
(37.9615 200.458 5.73129 915.15 10.5243 319.092)
(193.665 44.064 2.54845 350.274 3.16964 205.17)
(370.63 58.0784 -2.10207 987.179 4.54352 462.711)
(-80.8078 241.453 -6.03669 487.826 8.10927 167.949)
(33.4083 200.683 -13.1433 906.925 3.53466 325.795)
(378.414 58.0259 -3.3654 996.961 2.95763 455.435)
(-76.2502 241.55 5.64925 493.512 7.0372 160.084)
(42.6876 201.028 -14.0743 925.441 -3.37049 316.561)
(192.579 45.6316 0.853941 349.99 2.15923 198.673)
(391.879 57.6118 -3.70423 1016.98 -0.188835 447.695)
(-71.51 243.553 4.57389 505.989 1.74818 151.388)
(45.7724 201.488 5.77275 932.532 5.32042 313.031)
(385.378 57.6796 -3.2306 1007.77 0.0184248 450.616)
(-72.8247 241.848 -9.64286 502.395 2.17459 156.008)
(-237.332 225.896 14.0089 169 14.8647 32.4215)
(-241.082 226.081 -5.58172 158.863 29.6881 54.4238)
(-8.91415 185.561 7.5475 175.643 59.6947 144.376)
(-66.458 528.715 0.140291 284.989 48.372 89.8659)
(-4.8217 184.716 12.7308 179.356 40.3592 123.176)
(-248.043 229.29 1.28909 141.907 50.8799 106.845)
(-243.069 227.022 15.4146 156.78 32.364 63.6054)
(3.79947 183.176 9.07083 186.556 18.7741 97.3506)
(-65.6275 530.492 0.567451 284.016 39.1271 84.0887)
(2.35898 183.033 0.74568 183.907 33.1656 108.153)
(842.122 -58.0376 1.56825 1073.97 7.18784 650.963)
(823.659 -56.1807 -7.84665 1056.9 -2.28792 677.454)
(749.216 4.68638 -17.7262 1144.53 4.19743 743.405)
(765.917 2.53062 -9.13476 1167.18 7.20266 701.997)
(790.641 0.239664 -5.29492 1198.92 5.40569 670.556)
(774.426 1.0263 -8.92247 1180.77 0.944447 695.521)
(794.275 -52.7441 -14.3515 1021.26 -0.321152 731.807)
(814.029 -55.6765 -0.21364 1041.89 8.24988 684.623)
(849.18 -57.8209 -6.65253 1084.29 -3.60973 647.427)
(862.7 -58.2632 1.66162 1096.28 5.23976 632.552)
(829.176 -0.540679 -3.52632 1242.93 1.83623 647.241)
(817.078 -0.837492 -4.91894 1230.42 -3.47375 653.825)