/*--------------------------------*- C++ -*----------------------------------*\
| =========                 |                                                 |
| \\      /  F ield         | OpenFOAM: The Open Source CFD Toolbox           |
|  \\    /   O peration     | Version:  2012                                  |
|   \\  /    A nd           | Website:  www.openfoam.com                      |
|    \\/     M anipulation  |                                                 |
\*---------------------------------------------------------------------------*/
FoamFile
{
    version     2.0;
    format      ascii;
    class       volScalarField;
    location    "0.104/solid";
    object      sigmaMax;
}
// * * * * * * * * * * * * * * * * * * * * * * * * * * * * * * * * * * * * * //

dimensions      [1 -1 -2 0 0 0 0];


internalField   nonuniform List<scalar> 
3125
(
-340.391
-338.328
-314.806
-312.455
-292.345
-288.213
-238.868
-222.4
-325.699
-322.984
-305.086
-302.325
-272.139
-265.233
-345.748
78.576
-595.35
-220.268
76.7613
-218.78
62.9742
-590.88
-334.193
-581.623
-234.746
66.6996
-210.514
-317.216
83.2679
-208.663
82.3729
-203.043
83.8125
-310.015
-208.611
85.5217
-194.459
-295.982
94.8496
-190.588
93.1552
-188.002
96.8202
-283.532
-190.71
99.0117
-162.313
-248.892
131.785
-117.958
121.375
-27.3159
152.854
-174.746
-110.573
189.839
450.16
-796.396
437.865
441.296
-784.497
-784.461
-214.146
-329.174
78.8346
-217.368
77.5318
-779.669
-787.468
448.543
448.458
-211.083
-320.029
76.7729
-219.182
79.0964
449.93
450.155
-764.259
-770.657
-775.646
-771.423
446.516
448.24
449.88
450.881
-761.815
-756.45
-202.767
-307.589
88.4141
-199.491
87.2725
-748.695
-754.825
451.623
451.681
-194.672
-299.28
89.7087
-199.305
91.3792
452.829
453.102
-730.924
-737.979
-746.519
-740.115
452.099
452.443
453.452
452.636
-728.637
-188.686
-278.219
104.585
-192.047
101.665
451.584
453.274
-166.58
-257.474
108.647
-192.031
113.621
448.018
451.55
452.453
450.161
449.957
423.068
-9.14807
359.564
399.49
-7.44143
370.846
-53.0698
-172.164
136.511
-485.404
-54.6003
-195.3
114.942
-484.762
-63.5419
130.789
-479.611
-72.3351
-484.763
-229.692
107.467
95.8642
-492.186
-65.0281
-77.2762
-239.058
93.9565
-488.65
-74.4034
87.3832
-494.172
-46.9452
-462.978
-209.35
125.301
-47.4851
123.806
-461.493
-46.0717
-210.658
125.204
-458.806
-45.6148
123.966
-459.938
-42.6851
-451.278
-206.131
128.67
125.745
-452.951
-41.3429
-44.3602
-206.851
125.672
-456.821
-44.6887
123.784
-455.062
-29.327
-432.909
-192.764
138.017
-30.0342
136.367
-430.604
-27.4186
-193.535
140.316
-425.229
-25.8772
137.837
-427.769
-19.9239
-411.417
-190.331
146.283
143.497
-414.922
-17.7676
-22.3859
-188.966
142.956
-421.808
-23.504
141.569
-418.686
23.7064
-356.088
-140.523
180.315
17.209
184.79
-346.324
29.1088
-143.281
198.656
-324.769
37.6813
191.726
-336.086
66.3852
-256.654
-72.7621
245.17
251.95
-277.713
62.5839
58.9355
-69.4111
221.36
-310.917
46.8088
232.069
-295.296
324.363
57.3397
461.488
64.551
296.619
319.477
462.96
57.2027
-689.726
-811.082
-717.662
-719.819
-821.155
-721.588
-693.213
-691.494
290.612
273.387
48.7898
432.133
46.1939
279.184
267.493
51.3525
435.26
48.0895
-681.346
-681.693
-778.976
-712.399
-708.67
-706.937
-780.368
-706.963
-689.442
-684.062
-54.3274
-479.607
-211.275
120.389
-57.0286
-476.274
121.75
-53.541
-216.419
-474.131
118.881
-474.304
120.65
-54.4903
-681.221
-680.951
-784.019
-702.626
-705.043
-706.945
-787.303
-706.892
-678.102
-679.613
300.199
302.911
61.7331
450.463
63.9456
299.082
301.341
59.3325
450.59
60.835
-52.541
-215.507
-465.326
121.432
-50.115
-467.859
116.816
-55.0152
-217.893
-472.424
115.938
-55.1047
-470.77
113.391
303.703
301.321
67.9631
449.862
68.9416
303.292
300.976
66.5589
449.798
67.3454
-668.492
-666.473
-766.686
-687.76
-690.011
-693.201
-768.994
-691.615
-663.407
-665.011
-669.229
-670.237
-700.026
-772.871
-697.281
-675.541
-671.801
-694.258
-771.78
-695.729
301.07
293.659
61.2872
444.809
61.6193
296.129
291.452
63.7309
446.17
63.4869
305.874
300.939
68.9097
449.044
69.612
303.153
299.829
70.8925
449.822
71.2137
-655.722
-656.912
-759.566
-685.894
-683.547
-680.147
-757.853
-681.989
-661.508
-658.38
-39.3998
-449.357
-201.616
130.697
-39.6996
-447.886
128.824
-38.1875
-202.138
-444.457
131.755
-446.034
129.658
-37.2199
-654.56
-652.127
-750.72
-673.113
-675.195
-678.748
-752.821
-676.817
-649.179
-650.6
307.034
303.916
74.1625
451.121
74.8676
307.706
304.076
72.5728
450.863
73.3416
-33.4166
-197.683
-435.624
135.781
-32.0116
-437.691
133.208
-35.172
-197.506
-442.16
133.299
-35.709
-440.158
131.587
311.557
308.665
82.0078
452.509
82.47
313.184
309.11
79.6807
452.091
80.418
-639.909
-637.282
-733.157
-657.192
-659.147
-663.333
-735.553
-661.227
-634.104
-635.366
-641.561
-642.917
-671.304
-744.211
-669.101
-647.477
-644.618
-665.215
-742.078
-667.25
310.407
306.098
75.644
451.235
76.3891
308.364
305.366
77.7707
451.805
78.2503
316.782
312.481
84.0808
452.242
84.8877
314.446
311.852
87.1682
452.586
87.3434
-627.502
-627.68
-726.049
-654.979
-653.183
-649.914
-724.052
-650.809
-632.171
-629.817
-12.703
-406.916
-188.274
149.993
-14.617
-402.591
149.214
-9.55706
-191.25
-392.601
154.78
-397.65
151.515
-6.39926
-625.637
-625.336
-648.42
-645.88
-647.783
-647.817
-626.854
-623.505
318.618
316.704
93.9556
451.898
93.6989
321.86
317.246
89.7231
451.809
90.6002
5.7118
-181.999
-365.142
169.712
11.0395
-372.858
164.896
1.4712
-180.304
-386.394
160.553
-2.07208
-379.931
161.297
338.107
343.692
126.252
449.364
119.585
354.937
345.65
109.548
450.308
112.471
-650.805
-676.957
-728.254
-700.597
-670.268
-694.523
-728.141
-684.423
-647.135
-632.469
-647.167
-653.656
-626.078
-632.216
-667.353
-653.766
332.106
325.997
97.2661
450.902
98.5508
324.925
324.982
104.443
450.71
102.908
375.781
391.898
135.701
447.968
151.427
367.088
384.978
234.168
438.912
165.534
-661.71
-719.532
-724.896
-703.543
-641.341
-684.538
-743.843
-733.01
45.5947
-238.6
-70.6733
258.446
49.5939
-199.853
215.077
-38.4876
-261.982
40.2958
792.949
210.496
476.354
16.993
-58.5123
-257.572
203.903
-636.556
-568.519
-420.032
-607.796
-522.334
-482.264
394.368
302.125
822.404
229.155
230.143
287.835
524.647
261.02
-132.682
-170.404
-171.216
-330.336
-157.047
-210.184
-183.887
-354.327
-162.045
-187.536
-351.62
-160.082
-350.41
-221.182
-185.141
-188.94
-353.508
-155.919
-180.94
-237.169
-205.03
-358.807
-177.777
-203.533
-362.536
-137.798
-340.719
-208.227
-167.017
-138.82
-166.414
-341.758
-262.557
-555.463
-261.484
-557.274
-263.974
-560.961
-265.117
-559.22
-137.387
-207.549
-164.24
-337.502
-136.916
-166.396
-339.478
-131.66
-331.579
-202.293
-158.384
-160.651
-333.645
-130.831
-259.041
-553.315
-260.032
-551.346
-257.241
-547.563
-549.28
-255.896
-135.924
-206.203
-164.554
-336.819
-136.55
-164.287
-337.659
-117.789
-320.736
-192.26
-146.276
-118.861
-145.484
-321.67
-114.042
-190.105
-139.605
-316.438
-112.682
-142.296
-318.139
-104.601
-312.832
-187.534
-129.765
-132.442
-313.888
-102.701
-109.941
-188.474
-138.396
-315.657
-111.329
-137.472
-316.818
-53.5447
-315.635
-150.908
-82.5037
-58.311
-80.17
-315.356
-31.7292
-129.389
-47.9521
-276.974
-23.5221
-52.9398
-279.53
35.4991
-180.814
-50.6692
47.7843
35.1577
-186.661
43.4879
-3.06192
-91.2571
-28.8977
-260.161
-12.2267
-22.2344
-257.263
163.745
119.871
134.483
-406.414
-447.756
-442.076
121.57
110.328
97.8262
85.8938
-439.253
-438.978
-456.765
-453.977
-144.934
-348.412
-210.765
-176.678
-148.231
-348.977
-174.405
-148.022
-215.389
-348.019
-175.132
-349.348
-177.211
-148.199
-436.817
-434.117
-438.222
-436.9
131.927
136.703
128.754
129.397
-141.988
-210.779
-341.419
-168.807
-140.607
-343.623
-171.42
-271.864
-570.122
-273.169
-567.646
-149.734
-217.069
-347.693
-178.165
-149.916
-348.903
-177.93
-269.459
-562.998
-267.45
-565.062
136.409
136.023
136.173
134.322
-429.781
-426.975
-426.299
-425.039
-429.836
-428.43
-438.742
-434.783
134.053
129.204
124.733
121.206
140.772
137.397
135.668
133.822
-419.293
-417.862
-425.804
-422.251
-129.22
-331.028
-200.725
-157.753
-129.915
-331.981
-157.349
-251.531
-539.841
-541.822
-250.151
-253.143
-545.658
-254.141
-543.899
-127.201
-198.574
-326.965
-153.508
-328.972
-155.944
-126.424
-419.139
-416.236
-414.4
-413.192
141.714
140.387
143.454
140.816
-120.969
-193.883
-321.408
-146.943
-119.924
-323.389
-149.594
-246.941
-537.449
-248.286
-535.149
-124.787
-197.022
-326.291
-153.246
-125.641
-327.174
-152.681
148.92
147.952
152.861
149.274
-407.91
-404.743
-402.321
-401.456
-408.092
-406.899
-414.115
-410.796
147.997
144.798
143.877
142.561
159.628
155.088
153.834
153.385
-397.657
-396.751
-402.441
-399.183
-98.728
-312.195
-186.8
-127.254
-100.628
-314.126
-126.267
-91.1545
-190.806
-315.852
-115.871
-315.011
-118.36
-88.4734
-398.358
-395.559
-399.332
-397.484
161.18
161.774
169.517
163.485
-69.1773
-172.1
-325.412
-92.2403
-64.7647
-327.025
-95.0882
-82.2073
-184.476
-316.009
-110.798
-84.9177
-320.291
-109.75
193.884
202.048
225.713
209.601
-427.785
-433.442
-402.707
-413.787
-421.751
-415.803
-401.548
-400.502
188.101
178.842
172.365
175.228
306.869
282.676
235.959
256.875
-291.114
-322.074
-397.446
-377.312
54.4791
-160.034
-3.33387
67.9416
60.4071
-152.91
80.7182
-25.0388
-22.966
-10.0506
90.1011
-82.449
-347.514
-95.9975
-303.237
100.836
324.48
168.91
491.285
142.726
246.939
292.735
-271.514
-250.761
328.146
330.695
-40.8817
-2.13256
-35.3732
159.663
-15.6353
-71.1074
-62.4069
76.8394
252.596
23.4654
-123.381
-170.518
-158.817
-331.868
-124.748
-156.553
-327.314
-144.147
-206.385
-169.28
-336.589
-138.184
-171.064
-345.952
-168.091
-224.426
-201.53
-357.82
-173.935
-197.217
-356.17
-185.001
-238.498
-207.855
-359.929
-182.414
-213.5
-363.109
-138.49
-209.082
-167.554
-339.442
-138.779
-167.63
-340.733
-138.397
-209.51
-168.395
-339.004
-139.252
-166.904
-339.947
-133.609
-204.517
-164.384
-333.902
-135.146
-162.308
-334.309
-136.464
-206.826
-165.05
-334.664
-136.322
-165.688
-336.478
-118.303
-192.967
-146.095
-319.027
-117.975
-146.661
-320.395
-115.766
-191.86
-145.804
-318.205
-117.412
-143.753
-319.076
-106.615
-188.634
-136.494
-313.507
-108.567
-134.63
-314.884
-110.11
-189.214
-137.524
-314.379
-109.423
-138.085
-315.396
-48.8328
-148.555
-72.2319
-304.634
-44.4905
-72.5909
-304.648
-36.5351
-128.171
-62.6435
-291.132
-40.4994
-63.5867
-293.802
29.0324
-46.1823
20.6595
-211.141
24.1985
20.3624
-214.272
5.64055
-85.1552
-1.46048
-236.41
14.9317
-6.8344
-238.629
170.169
165.203
269.974
275.381
78.9129
285.339
275.026
296.842
82.5008
287.198
93.4288
281.547
296.085
412.582
388.274
386.772
416.178
431.256
220.037
428.875
221.16
411.025
371.703
382.158
401.908
436.085
222.156
436.385
221.803
148.999
136.409
253.633
65.1362
267.986
268.228
73.8201
279.529
239.439
256.424
292.677
86.4573
278.434
84.4982
262.864
285.431
414.173
394.406
392.273
415.093
412.152
438.781
222.14
438.675
222.2
-685.163
-594.196
-724.084
-410.232
-408.257
-726.529
-687.548
-599.344
-594.81
-728.675
-914.526
-902.515
-926.552
-938.805
-953.311
-955.058
-949.697
-432.914
-439.527
-613.809
-693.902
-726.544
-612.853
-730.506
-733.789
-606.041
-695.7
-612.694
-732.073
94.7438
103.3
228.902
64.9216
251.455
264.735
65.4859
258.212
236.672
221.657
246.362
49.4736
243.189
58.5248
213.919
252.718
395.052
351.084
352.856
393.419
422.028
219.39
421.987
219.019
395.123
359.867
399.496
355.386
419.468
219.408
419.578
219.452
82.6141
81.492
209.483
54.645
238.236
254.338
53.1052
217.386
244.57
204.786
241.41
47.1497
232.555
48.8654
202.818
240.654
398.33
355.109
360.537
394.438
425.323
222.057
425.39
221.32
399.601
366.69
363.869
401.405
422.18
219.916
421.237
220.606
-602.463
-682.048
-713.687
-602.982
-712.723
-444.645
-440.775
-711.506
-682.627
-604.908
-603.861
-712.335
-886.496
-892.81
-881.509
-881.652
-894.159
-898
-890.007
-884.924
-453.431
-453.133
-614.033
-689.832
-723.476
-613.357
-718.688
-714.039
-608.414
-686.044
-610.926
-715.282
-143.812
-210.81
-346.935
-173.586
-144.191
-347.515
-173.396
-147.032
-216.461
-347.109
-176.159
-146.895
-349.289
-175.491
-601.678
-715.23
-682.938
-602.368
-715.813
-433.973
-433.919
-713.516
-681.84
-600.91
-601.206
-715.608
-892.733
-889.159
-895.766
-898.64
-903.705
-901.639
-903.679
-901.538
-438.482
-437.217
-600.277
-679.391
-710.391
-601.001
-712.706
-714.462
-600.988
-681.328
-602.31
-713.027
134.243
133.832
252.912
72.5389
272.36
267.874
246.972
78.0565
276.553
250.47
275.958
74.5053
268.961
81.4544
250.287
277.788
408.843
374.919
376.809
408.467
431.613
226.56
430.951
226.654
409.022
373.98
376.914
406.316
431.945
226.052
431.257
226.398
127.744
125.805
247.265
73.5133
265.14
272.541
77.6101
273.928
245.018
244.168
274.567
76.1976
265.873
79.5792
244.032
273.729
409.206
377.016
378.898
407.49
430.659
223.077
428.943
224.14
408.039
371.808
404.059
377.709
432.022
225.482
431.829
225.093
-145.021
-213.391
-344.596
-177.04
-147.362
-344.592
-174.19
-150.659
-218.024
-345.657
-178.744
-149.969
-347.731
-180.269
131.621
131.858
252.027
80.0532
269.322
277.158
83.6982
277.341
250.719
247.819
274.84
78.7908
268.108
84.608
246.609
276.523
410.753
375.297
377.707
409.458
433.704
231.497
433.215
231.521
411.057
377.001
378.745
409.553
433.32
230.999
432.61
231.326
129.753
129.587
250.463
81.1669
268.623
277.307
84.1416
276.728
250.319
245.892
274.532
79.5693
267.286
84.6166
244.69
275.38
410.871
375.937
378.192
408.815
433.17
229.299
432.276
229.772
410.29
376.117
378.759
408.844
433.037
230.528
432.649
230.33
-590.839
-669.472
-701.624
-590.966
-701.246
-426.763
-426.979
-698.206
-668.018
-588.576
-589.733
-700.059
-875.393
-873.477
-871.617
-763.378
-689.164
-779.248
-765.341
-780.663
-870.257
-872.801
-782.43
-766.394
-690.917
-766.733
-873.759
-781.422
-876.62
-877.775
-877.884
-769.827
-694.157
-786.487
-770.415
-785.955
-878.336
-882.322
-882.41
-876.559
-783.294
-692.922
-767.692
-769.46
-784.761
-875.118
-881.095
-879.258
-427.74
-425.99
-586.345
-664.745
-695.287
-587.155
-696.847
-697.866
-587.764
-666.212
-588.292
-697.099
-431.818
-430.023
-591.348
-670.431
-701.468
-591.952
-701.766
-701.958
-592.686
-671.238
-592.761
-702.129
-884.246
-886.134
-882.084
-776.778
-793.195
-700.954
-884.061
-776.977
-791.097
-879.944
-787.653
-698.731
-773.314
-775.255
-789.161
-878.555
-881.811
-880.672
-434.096
-434.448
-598.618
-708.812
-676.095
-597.929
-706.657
-702.97
-594.26
-673.616
-595.984
-704.749
-878.477
-770.525
-695.617
-786.458
-772.211
-878.301
-786.677
-882.112
-882.086
-878.34
-786.974
-696.587
-772.254
-772.78
-786.921
-878.247
-881.719
-880.731
120.707
123.578
245.842
77.6267
264.95
275.111
79.9799
248.324
272.659
239.985
266.967
71.624
261.223
78.0926
236.53
269.845
406.516
368.993
370.921
404.67
430.198
226.765
429.757
226.921
406.097
371.712
406.464
372.158
429.337
227.429
429.006
227.355
117.559
116.569
239.248
72.3696
270.189
259.8
240.691
74.6438
267.526
234.467
265.213
69.9566
257.564
74.5808
233.699
265.844
407.77
370.113
373.516
405.457
431.706
228.82
431.467
228.647
408.282
375.04
407.86
375.399
430.441
227.816
429.616
228.233
130.923
132.363
252.526
85.0712
270.761
280.111
87.7242
278.56
253.771
247.327
274.554
81.2532
268.206
87.0179
245.006
276.497
411.153
375.09
377.271
409.286
433.816
231.866
433.167
232.187
410.696
376.599
410.045
378.15
433.26
232.487
432.827
232.498
130.017
129.524
249.535
81.6076
268.173
277.137
84.6655
249.625
276.022
245.103
273.747
80.0222
266.558
85.1084
244.206
274.775
411.743
375.49
378.297
409.889
434.59
233.341
434.157
233.359
412.073
378.668
379.797
411.053
433.806
232.797
433.044
233.081
-578.79
-656.956
-687.407
-579.444
-688.159
-420.772
-419.148
-688.685
-657.973
-580.02
-580.32
-688.571
-870.837
-871.96
-867.443
-761.874
-686.737
-778.035
-762.273
-868.773
-776.555
-865.697
-773.473
-759.028
-684.963
-760.843
-864.29
-774.992
-869.048
-867.52
-862.594
-755.456
-681.534
-771.043
-757.288
-771.745
-861.9
-866.361
-865.422
-863.097
-772.728
-682.805
-757.827
-758.23
-772.266
-863.488
-866.758
-866.869
-421.58
-421.847
-584.905
-662.178
-694.276
-584.414
-692.808
-689.379
-581.208
-660.085
-582.707
-691.294
-130.026
-201.536
-329.497
-158.552
-130.132
-330.969
-158.829
-128.705
-200.748
-328.895
-158.821
-129.94
-329.589
-156.946
-577.986
-687.146
-655.397
-577.922
-686.339
-415.771
-416.145
-683.163
-653.7
-575.235
-576.511
-685.016
-858.497
-856.964
-854.728
-747.753
-674.428
-763.355
-749.672
-764.523
-853.653
-859.286
-860.043
-855.634
-765.98
-750.589
-676.065
-750.886
-856.361
-765.178
-860.45
-754.4
-770.569
-679.617
-861.28
-754.818
-769.652
-864.342
-864.948
-862.869
-861.121
-858.929
-766.807
-678.134
-751.85
-753.657
-768.307
-857.496
-416.079
-414.255
-572.856
-650.384
-680.513
-573.51
-681.813
-682.656
-574.207
-651.745
-574.651
-682.107
136.009
136.098
255.116
86.3645
280.999
272.639
254.69
89.7108
280.468
250.707
277.842
84.7681
271.099
90.2234
249.494
279.322
413.082
377.622
380.117
411.644
435.531
235.377
435.063
235.396
413.453
380.047
381.435
412.179
434.937
234.89
434.251
235.15
135.285
135.724
255.314
88.4163
273.127
282.106
91.0607
280.971
255.897
250.26
277.938
85.611
271.18
91.0421
248.696
279.249
413.158
377.841
380.105
410.987
435.099
233.665
434.459
234.012
412.617
378.978
411.75
380.996
434.729
234.497
434.212
234.439
-122.759
-196.054
-323.551
-153.069
-124.335
-324.166
-150.913
-125.322
-197.71
-324.366
-153.38
-125.086
-325.923
-153.965
144.211
143.903
260.812
94.2405
277.727
285.862
97.5659
285.324
260.202
256.611
283.002
92.9522
276.354
98.3402
255.737
284.342
415.341
380.777
383.23
414.218
437.009
239.641
436.474
239.69
415.911
383.42
384.524
414.407
436.418
239.139
435.86
239.324
143.461
144.626
261.665
97.6307
279.065
288.01
100.358
286.609
263.146
257.044
283.351
94.4582
276.877
99.5457
254.908
284.695
415.583
380.962
383.065
413.284
436.8
237.919
436.231
238.301
414.894
382.001
383.867
414.355
436.412
238.749
435.816
238.781
-564.397
-640.835
-672.22
-564.371
-671.034
-403.857
-404.625
-667.569
-638.67
-561.37
-562.54
-669.667
-839.689
-838.07
-840.525
-841.419
-846.127
-847.078
-844.463
-842.483
-404.367
-402.208
-558.802
-634.964
-664.756
-559.162
-665.997
-667.125
-560.018
-636.658
-560.581
-666.345
-409.945
-407.985
-565.639
-642.654
-672.578
-566.175
-673.737
-674.587
-566.959
-644.067
-567.397
-674.081
-854.925
-855.936
-851.375
-746.393
-762.499
-672.196
-852.522
-746.713
-761.195
-849.621
-758.025
-670.359
-743.466
-745.318
-759.677
-848.122
-853.249
-851.465
-409.93
-410.587
-571.569
-679.93
-648.28
-571.355
-678.634
-675.175
-568.252
-646.173
-569.579
-677.198
-849.208
-847.848
-849.902
-850.541
138.753
139.799
258.296
92.7905
275.935
285.012
95.3696
259.393
283.61
253.248
280.079
89.3385
273.632
94.8291
251.219
281.665
414.163
378.918
381.019
412.062
435.827
235.7
435.224
236.06
413.56
380.052
412.894
381.841
435.449
236.555
434.978
236.517
138.791
138.425
256.507
89.4223
282.574
274.126
256.16
92.6644
281.849
252.224
279.561
88.0558
272.674
93.3
251.343
280.768
414.325
378.974
381.587
412.861
436.461
237.552
435.986
237.547
414.789
381.83
413.5
383.012
435.781
236.965
435.093
237.203
149.222
151.049
265.891
103.981
282.986
291.86
106.858
290.211
268.275
261.914
286.93
100.638
280.638
105.223
259.23
288.209
416.474
382.576
384.595
413.975
437.091
239.992
436.67
240.245
415.712
383.521
415.404
385.312
436.635
240.687
435.998
240.722
150.276
149.595
264.9
99.5144
281.146
288.978
102.792
263.944
288.552
260.926
286.477
98.4625
279.966
103.896
260.363
287.751
415.845
382.308
384.666
415.036
436.841
241.477
436.207
241.575
416.494
384.947
385.846
414.784
436.382
241.077
435.95
241.213
-552.86
-627.659
-657.59
-552.621
-658.427
-399.182
-396.975
-659.32
-629.383
-553.109
-554.059
-658.505
-836.101
-837.211
-834.353
-832.125
-832.549
-831.273
-831.177
-831.021
-398.241
-399.142
-557.384
-633.356
-664.502
-557.564
-663.136
-659.637
-554.605
-630.906
-555.48
-661.851
-98.2714
-188.023
-313.012
-125.417
-97.1171
-312.915
-125.691
-93.6907
-190.107
-312.575
-123.151
-95.8842
-315.535
-121.953
-551.6
-658.066
-627.64
-552.586
-657.003
-395.574
-396.065
-654.797
-625.335
-550.811
-550.685
-656.462
-824.92
-825.202
-823.813
-823.232
-826.934
-829.161
-824.866
-823.259
-397.866
-396.176
-553.115
-625.347
-656.479
-551.159
-656.272
-655.498
-549.773
-626.516
-551.971
-655.184
159.635
158.479
271.33
106.756
293.26
286.159
269.631
110.078
293.254
267.838
291.583
106.245
285.362
111.757
267.709
292.772
415.457
383.806
385.904
415.087
435.314
242.083
434.525
242.415
416.002
386.23
386.856
414.26
435.085
242.326
434.945
242.25
157.782
160.294
272.121
112.956
288.458
297.26
115.885
295.086
275.853
268.957
291.914
109.312
285.921
113.122
265.716
293.03
416.718
384.404
386.369
413.998
436.69
241.841
436.404
241.979
415.995
385.118
415.87
386.922
436.036
242.128
435.301
242.277
-72.9759
-172.629
-324.357
-101.677
-75.6988
-331.834
-101.55
-80.2217
-184.447
-323.315
-106.724
-78.0557
-320.112
-106.539
208.583
202.735
304.505
136.237
310.132
311.704
140.356
315.863
296.858
305.553
319.108
140.962
313.111
146.091
309.513
318.043
410.641
389.044
390.935
411.047
421.567
229.314
420.871
230.221
408.578
391.459
390.41
408.472
424.445
233.303
425.603
232.347
203.56
211.408
312.199
158.31
321.219
331.594
160.114
324.485
324.9
312.479
319.485
150.333
316.467
150.458
304.677
321.593
413.511
390.918
392.19
411.677
430.223
238.22
430.331
237.515
414.291
388.775
391.567
413.208
429.181
235.193
428.093
236.277
-578.593
-661.485
-684.584
-588.735
-691.03
-430.98
-435.626
-706.828
-666.444
-605.445
-593.645
-699.71
-893.436
-905.705
-881.115
-871.593
-849.659
-843.379
-856.755
-863.156
-430.544
-413.99
-664.514
-711.841
-761.13
-642.776
-745.579
-719.34
-613.793
-700.417
-631.016
-729.621
-409.546
-410.348
-574.647
-640.882
-676.82
-567.572
-672.465
-664.934
-559.491
-639.021
-565.395
-667.152
-827.561
-826.687
-827.998
-828.076
-404.225
-402.787
-552.867
-658.619
-630.295
-556.134
-659.185
-661.271
-558.555
-629.488
-555.61
-660.909
-834.283
-837.477
-831.232
-829.422
172.77
177.014
284.468
128.372
298.782
307.717
131.03
291.07
304.101
282.373
300.543
123.338
295.457
125.82
277.685
301.781
415.89
386.707
388.456
413.167
434.596
241.987
434.517
241.861
415.494
386.585
415.289
388.616
433.895
241.347
432.845
241.816
175.656
173.063
281.926
117.332
299.466
293.967
278.496
120.766
300.602
279.634
300.216
118.215
294.245
123.783
280.763
300.879
414.039
385.668
387.469
413.988
431.452
239.252
430.482
239.998
414.013
387.962
412.732
388.036
431.719
240.971
431.976
240.57
275.99
292.592
380.741
214.089
371.141
388.384
213.403
376.16
397.592
386.766
367.62
207.582
361.544
204.902
374.237
374.724
404.18
398.089
396.448
403.793
418.669
226.248
418.329
225.254
408.509
392.49
406.654
397.291
411.224
219.309
411.929
221.311
279.757
262.917
354.556
174.61
344.877
339.152
180.213
336.75
350.781
362.942
365.898
190.021
355.389
191.729
375.007
357.502
387.475
394.996
396.909
395.697
359.556
191.945
352.483
200.153
376.57
376.997
381.405
356.303
393.796
212.994
396.194
208.824
-557.515
-683.741
-739.109
-573.366
-770.969
-354.095
-321.31
-812.218
-704.011
-611.764
-603.451
-791.098
-931.038
-920.784
-939.389
-940.872
-909.314
-886.209
-929.769
-939.649
-353.154
-372.36
-668.774
-747.784
-781.644
-662.539
-798.193
-815.923
-637.283
-746.079
-643.368
-813.286
62.2611
-6.47704
-120.968
78.1112
35.195
-139.258
57.4429
-71.7679
-68.4538
-102.098
-303.541
-225.958
-106.095
-146.444
-143.214
-275.048
-173.916
95.6309
41.9696
96.2427
326.612
701.428
263.467
157.96
215.073
161.498
130.135
603.363
198.672
-4.05858
67.9731
58.2474
-91.6172
110.379
45.997
-84.7191
-161.982
-21.2777
150.091
203.373
138.863
-524.51
-704.474
-612.401
-502.841
-664.918
-258.237
-245.519
-603.608
-590.346
-471.192
-475.378
-620.899
-479.728
-641.03
-654.849
-548.393
-436.103
-576.83
-798.853
-850.257
-712.24
-643.626
-168.626
-588.534
-457.19
238.924
351.22
414.349
211.382
392.823
380.505
426.494
230.398
400.874
431.872
283.358
226.601
370.909
179.095
293.166
364.975
23.5582
-16.8413
339.612
733.539
236.613
110.243
242.806
117.886
410.269
-19.521
263.123
160.579
217.265
282.969
218.018
137.344
284.825
61.1764
267.21
181.817
299.376
162.067
288.445
361.576
329.615
331.747
222.754
331.057
8.36475
155.41
-290.053
-601.585
-593.847
-346.823
-290.825
-596.226
-290.99
-609.466
-350.029
-603.155
-293.915
-587.36
-593.182
-294.883
-591.829
-289.871
-584.279
-584.354
-588.019
-285.174
-236.674
-518.522
-234.477
-521.538
-239.086
-527.363
-240.762
-524.673
-229.39
-514.916
-231.658
-511.364
-226.293
-503.167
-507.219
-223.239
-170.269
-420.281
-163.37
-428.761
-175.351
-446.018
-181.718
-437.506
-147.864
-410.978
-156.772
-400.934
-139.143
-374.202
-387.949
-121.625
-275.207
-572.806
-575.157
-274.167
-277
-580.805
-279.615
-577.941
-244.85
-530.158
-243.056
-532.552
-212.225
-482.438
-487.994
-208.012
-216.228
-498.306
-219.547
-493.452
-198.409
-475.996
-203.224
-469.282
-193.386
-454.269
-187.521
-461.892
-910.441
-794.445
-718.088
-811.927
-798.275
-817.607
-903.512
-918.963
-825.838
-803.335
-722.11
-802.369
-924.328
-821.921
-928.541
-717.403
-802.679
-823.592
-931.054
-825.736
-720.713
-805.478
-805.749
-826.631
-930.081
-890.583
-789.89
-713.916
-806.663
-789.037
-895.775
-801.869
-886.704
-797.044
-783.819
-710.005
-786.175
-885.32
-798.44
-891.495
-784.152
-707.909
-800.435
-784.901
-798.947
-893.45
-888.704
-796.556
-708.14
-783.189
-784.262
-797.764
-886.893
-889.035
-778.898
-703.898
-795.238
-781.189
-797.555
-886.693
-891.498
-800.594
-782.899
-706.309
-783.178
-893.232
-798.825
-897.109
-784.74
-802.331
-708.407
-896.017
-786.168
-803.041
-896.619
-801.239
-707.786
-784.415
-785.872
-802.644
-895.337
-836.074
-730.208
-658.19
-745.856
-732.143
-747.076
-835.029
-837.146
-748.762
-733.315
-660.205
-733.512
-837.928
-747.782
-842.563
-737.858
-664.304
-754.056
-738.107
-752.832
-843.606
-840.764
-749.587
-662.341
-734.804
-736.684
-751.341
-839.194
-845.504
-739.207
-666.454
-754.716
-741.154
-844.562
-755.761
-846.365
-757.209
-668.162
-742.108
-742.355
-756.423
-847.03
-832.862
-728.694
-656.198
-745.216
-729.01
-833.928
-743.859
-830.947
-740.561
-725.737
-653.945
-727.47
-829.327
-742.399
-826.986
-721.775
-650.229
-737.431
-723.433
-738.393
-826.467
-827.676
-739.843
-652.363
-724.222
-724.801
-738.937
-827.934
-821.369
-718.69
-647.173
-734.754
-718.94
-734.677
-822.225
-821.459
-734.353
-717.895
-648.661
-719.511
-821.02
-734.089
-824.561
-720.322
-737.462
-649.818
-825.694
-720.9
-736.205
-822.778
-734.243
-647.677
-718.824
-719.614
-735.375
-821.905
-894.811
-771.037
-720.861
-830.297
-782.716
-816.812
-908.26
-883.656
-792.959
-766.834
-714.527
-768.293
-873.014
-802.81
-850.629
-738.95
-680.139
-760.26
-745.488
-766.49
-843.524
-856.793
-781.828
-684.631
-756.519
-752.54
-774.72
-864.833
-824.283
-718.424
-736.334
-651.294
-822.925
-721.151
-736.942
-824.41
-739.07
-650.66
-722.977
-721.581
-738.342
-825.793
-833.237
-734.351
-661.695
-753.16
-731.233
-838.193
-748.964
-830.26
-742.135
-660.223
-724.203
-728.636
-744.387
-827.156
-935.172
-779.587
-722.155
-847.325
-765.258
-922.817
-859.248
-945.748
-865.582
-751.033
-710.355
-767.099
-950.142
-868.386
-924.794
-701.599
-653.392
-796.426
-719.305
-823.373
-901.451
-941.627
-859.655
-677.678
-745.963
-730.199
-842.188
-951.653
-828.456
-680.013
-765.389
-593.419
-868.144
-659.086
-726.407
-756.056
-619.163
-559.698
-565.351
-623.242
-672.654
-702.925
)
;

boundaryField
{
    left
    {
        type            calculated;
        value           nonuniform List<scalar> 0();
    }
    bottom
    {
        type            calculated;
        value           nonuniform List<scalar> 
243
(
-214.024
-217.27
-195.354
-193.443
-176.133
-172.84
-136.908
-128.691
-204.522
-203.023
-186.821
-184.483
-160.465
-155.324
287.714
288.22
-216.779
-213.6
271.86
268.902
285.655
285.192
-197.395
-191.201
287.08
285.781
292.78
291.995
-179.095
-169.149
294.507
293.74
299.671
300.264
-143.612
-112.013
280.253
297.214
450.489
283.151
282.493
-207.365
448.986
450.04
442.751
444.465
451.638
452.076
448.969
450.336
-200.283
282.24
280.352
289.076
288.429
-188.962
453.657
453.939
452.202
453.089
455.213
455.04
454.324
454.765
-181.879
290.896
289.863
296.162
295.558
-165.034
454.463
451.892
455.346
454.384
444.51
431.823
451.48
446.147
-149.788
298.219
297.531
335.297
362.027
425.822
381.793
676.131
460.518
459.265
451.074
451.378
438.439
440.136
451.742
452.028
447.95
448.853
453.332
453.63
451.826
452.378
454.673
454.951
453.944
454.381
453.204
452.761
454.546
454.628
441.298
436.766
449.59
448.057
1242.1
862.279
474.349
1323.95
417.432
399.235
178.853
310.98
489.835
101.672
-24.825
520.134
357.778
260.913
261.097
259.226
257.288
260.595
259.681
262.716
263.043
260.142
261.502
264.254
264.04
263.516
263.78
256.315
255.906
256.697
255.469
258.224
259.491
256.38
257.548
268.027
268.169
266.842
267.316
269.243
269.212
268.502
268.852
264.804
264.871
264.235
264.233
266.153
266.441
265.135
265.665
272.36
272.348
271.494
271.808
273.378
273.408
272.656
272.945
270.247
270.221
269.485
269.753
271.202
271.218
270.477
270.805
276.898
276.849
275.95
276.302
277.929
277.915
277.195
277.365
274.581
274.532
273.639
274.004
275.664
275.712
274.939
275.146
280.412
280.085
279.795
279.874
280.342
279.91
280.128
279.952
278.978
278.851
278.117
278.364
279.81
279.682
279.149
279.231
273.371
271.469
275.115
273.97
265.127
262.336
269.375
266.942
279.549
278.796
279.655
279.352
277.26
276.216
278.187
277.455
1162.85
1010.27
81.4443
106.244
196.269
136.477
1752.54
1347.5
252.833
246.035
259.186
255.342
222.812
195.899
242.296
228.229
)
;
    }
    interface
    {
        type            calculated;
        value           nonuniform List<scalar> 
1703
(
-241.464
-239.376
-253.568
-230.519
-228.541
-222.926
-228.235
-213.741
-210.049
-207.316
-209.713
-239.329
-207.216
-106.727
-195.199
-234.984
-237.57
-231.31
-238.795
-222.434
-219.178
-214.267
-218.722
-207.382
-211.205
-234.578
-212.504
-81.6197
-15.1366
188.159
-199.413
-218.412
-249.429
-257.239
-229.564
-230.353
-225.793
-226.656
-212.368
-212.581
-209.059
-208.467
-232.539