/*--------------------------------*- C++ -*----------------------------------*\
| =========                 |                                                 |
| \\      /  F ield         | OpenFOAM: The Open Source CFD Toolbox           |
|  \\    /   O peration     | Version:  2012                                  |
|   \\  /    A nd           | Website:  www.openfoam.com                      |
|    \\/     M anipulation  |                                                 |
\*---------------------------------------------------------------------------*/
FoamFile
{
    version     2.0;
    format      ascii;
    class       volScalarField;
    location    "0.104/solid";
    object      sigmaMid;
}
// * * * * * * * * * * * * * * * * * * * * * * * * * * * * * * * * * * * * * //

dimensions      [1 -1 -2 0 0 0 0];


internalField   nonuniform List<scalar> 
3125
(
-528.721
-524.734
-502.67
-499.821
-477.057
-472.888
-459.84
-464.178
-514.785
-511.395
-491.117
-487.97
-460.392
-457.478
-528.671
-275.642
-657.78
-282.138
-275.219
-270.584
-277.537
-654.003
-521.229
-645.417
-301.864
-276.72
-252.498
-505.529
-261.855
-250.302
-263.985
-243.041
-259.976
-496.989
-250.074
-257.887
-229.941
-480.972
-243.716
-222.503
-246.42
-210.959
-241.066
-468.559
-221.636
-238.302
-222.792
-456.835
-254.341
-280.717
-241.942
-182.41
-280.122
-477.597
-278.761
-332.081
-103.538
-1102.18
-107.274
-105.12
-1085.44
-1080.83
-261.792
-518.148
-270.155
-263.31
-272.967
-1066.8
-1082
-99.5427
-101.748
-253.843
-508.369
-268.512
-265.77
-266.435
-93.7297
-95.4898
-1042.79
-1052.11
-1060.89
-1053.76
-99.377
-96.9273
-93.0224
-90.9155
-1039.46
-1032.01
-242.32
-494.112
-253.543
-238.246
-255.715
-1020.72
-1029.64
-87.9659
-89.8904
-230.847
-484.598
-251.363
-237.609
-248.936
-80.9476
-83.4289
-990.391
-1003.36
-1017.4
-1007.08
-86.9709
-84.6458
-79.6089
-77.2117
-985.526
-209.724
-464.313
-234.165
-194.392
-236.017
-74.7782
-75.8959
-216.169
-456.01
-233.987
-194.422
-235.631
-96.3859
-79.1467
-74.0984
-77.3775
-107.035
-168.697
-161.134
-280.25
-226.421
-824.966
-397.831
-353.374
-224.105
-167.083
-494.411
-351.695
-256.744
-176.14
-510.987
-355.826
-168.046
-505.819
-356.165
-493.715
-288.345
-180.838
-183.392
-495.27
-355.809
-356.651
-304.117
-180.93
-509.619
-355.105
-184.07
-501.025
-342.09
-481.205
-251.145
-169.722
-342.894
-169.322
-479.719
-339.962
-252.925
-167.561
-477.029
-339.761
-167.87
-478.313
-335.208
-470.715
-247.079
-163.537
-164.355
-471.915
-334.861
-337.156
-248.369
-166.298
-475.469
-337.926
-165.987
-473.472
-321.214
-457.067
-227.344
-153.441
-321.866
-153.264
-455.165
-318.603
-227.853
-151.114
-452.094
-318.563
-151.463
-453.493
-313.141
-446.441
-218.128
-148.251
-147.947
-447.404
-313.68
-315.762
-217.439
-149.341
-450.651
-316.035
-149.575
-448.852
-346.114
-473.7
-242.929
-175.991
-332.778
-191.598
-487.941
-357.657
-259.412
-236.014
-533.532
-381.177
-207.744
-507.542
-495.723
-721.387
-239.446
-437.432
-373.176
-670.929
-594.623
-449.489
-242.098
-266.041
-569.588
-404.268
-320.646
-614.909
-7.81578
-99.5896
-99.8418
-93.3178
-24.3139
-10.2206
-99.222
-92.4199
-1032.73
-1123.79
-986.42
-994.254
-1141.54
-996.889
-1028.52
-1031.82
-30.2586
-36.0622
-105.546
-108.931
-108.006
-31.5594
-37.5546
-105.424
-107.347
-107.668
-1003.67
-1008.14
-1077.41
-980.314
-970.852
-963.86
-1077.7
-967.759
-1023.24
-1012.2
-352.457
-492.359
-256.029
-176.885
-353.146
-491.541
-176.104
-349.525
-263.128
-489.738
-175.139
-490.854
-174.327
-349.738
-1001.95
-998.45
-1073.56
-951.948
-956.811
-962.743
-1079.5
-959.177
-992.385
-996.109
-26.4895
-24.3268
-99.5745
-99.5109
-99.3481
-25.342
-24.4986
-101.901
-100.504
-100.496
-345.461
-260.152
-482.391
-171.84
-345.088
-483.665
-173.045
-347.291
-264.203
-487.966
-174.648
-347.835
-485.334
-174.706
-21.6291
-20.9238
-93.3574
-94.2092
-93.8959
-19.6504
-20.7845
-95.6084
-95.0032
-94.7481
-977.076
-973.704
-1046.19
-929.296
-932.612
-937.464
-1049.54
-934.409
-969.159
-971.791
-978.389
-980.741
-948.827
-1056.83
-943.536
-989.087
-982.986
-938.748
-1054.82
-941.548
-22.8121
-25.7948
-99.7702
-99.2794
-99.3534
-26.3641
-26.6933
-97.0855
-98.0525
-98.3333
-16.3939
-18.5422
-92.7362
-92.712
-92.0368
-19.5335
-19.146
-90.1599
-91.7233
-91.0969
-958.383
-960.417
-1036.46
-927.189
-923.264
-918.848
-1034.04
-921.517
-966.859
-962.275
-331.991
-469.413
-241.28
-161.854
-332.793
-467.73
-161.528
-329.869
-241.843
-464.958
-159.473
-466.235
-159.999
-329.638
-956.794
-953.083
-1023.76
-908.795
-912.13
-917.305
-1026.83
-913.976
-948.466
-951.082
-15.7758
-15.2985
-86.7492
-88.6364
-87.5045
-13.3559
-14.9989
-89.1603
-89.524
-88.3739
-324.516
-235.337
-458.547
-155.257
-324.272
-459.914
-155.869
-326.823
-235.442
-463.481
-157.891
-327.548
-461.553
-157.61
-9.50857
-9.07428
-79.5442
-81.7439
-80.3554
-7.13107
-8.70497
-82.1629
-82.9665
-81.3394
-933.393
-928.172
-994.802
-881.253
-886.26
-893.901
-999.21
-888.978
-921.041
-925.219
-935.9
-939.007
-906.674
-1013.89
-902.365
-946.172
-941.398
-896.246
-1010.42
-900.127
-10.0763
-11.9729
-85.8893
-86.5664
-85.0888
-12.944
-12.4604
-83.187
-85.455
-84.0919
-5.7518
-6.39691
-78.6321
-79.1732
-78.017
-6.62381
-6.67009
-76.8417
-77.876
-77.2108
-901.257
-907.111
-980.045
-878.182
-871.7
-861.351
-974.666
-868.144
-917.765
-910.973
-312.365
-445.722
-203.106
-147.009
-311.533
-444.97
-148.45
-310.641
-204.249
-445.854
-150.414
-444.96
-148.063
-313.02
-897.007
-888.096
-834.545
-843.902
-857.476
-848.611
-874.235
-882.844
-5.37197
-7.15524
-77.9843
-74.8179
-76.7039
-9.86071
-7.40629
-76.3314
-75.78
-76.671
-318.92
-205.202
-462.741
-168.086
-326.344
-455.581
-159.937
-317.036
-198.644
-447.915
-151.409
-313.035
-450.763
-156.307
-30.9875
-52.2357
-128.398
-88.6718
-114.262
-93.6071
-57.2511
-95.2715
-83.281
-105.216
-828.462
-811.329
-764.271
-767.191
-790.874
-775.42
-786.258
-801.176
-836.012
-849.011
-829.243
-817.225
-868.557
-856.028
-797.772
-810.828
-29.4454
-18.236
-78.941
-75.0546
-82.0514
-9.96829
-16.7547
-90.2783
-75.5324
-84.5671
-170.384
-139.105
-140.107
-120.852
-149.234
-98.3293
-137.327
-143.434
-147.748
-156.703
-870.145
-834.302
-767.513
-821.736
-847.95
-825.442
-773.103
-828.593
-777.805
-726.594
-213.408
-443.483
-686.031
-706.454
-539.948
-859.89
-740.927
-836.887
-282.624
-769.086
-358.948
-855.793
-249.087
-738.6
-718.008
-841.709
-750.932
-690.411
-812.69
-725.581
-713.636
-178.781
-366.835
-247.816
-644.539
-513.915
-157.688
-230.091
-337.036
-281.123
-228.621
-180.461
-438.879
-295.145
-268.625
-221.638
-458.591
-299.738
-202.576
-452.569
-298.488
-441.076
-273.844
-211.078
-214.451
-446.114
-297.076
-304.216
-302.258
-217.376
-460.171
-301.872
-229.107
-466.027
-286.54
-421.149
-248.006
-201.545
-286.563
-201.412
-422.243
-491.102
-598.32
-490.596
-600.009
-493.503
-603.032
-494.129
-601.723
-284.103
-247.667
-200.36
-417.552
-283.485
-199.036
-419.172
-278.956
-409.828
-240.948
-195.047
-194.395
-411.75
-278.231
-487.689
-596.456
-488.303
-594.861
-485.272
-591.464
-593.054
-484.65
-282.555
-245.736
-198.696
-416.012
-282.635
-198.96
-417.249
-267.414
-393.084
-225.529
-184.557
-267.448
-184.941
-394.217
-264.1
-221.577
-182.461
-385.68
-263.671
-180.991
-387.24
-260.106
-372.663
-211.257
-179.573
-177.747
-374.137
-260.097
-262.713
-216.666
-180.247
-382.7
-262.505
-180.888
-383.856
-297.623
-343.542
-226.414
-207.608
-285.994
-215.351
-354.435
-347.318
-278.907
-284.498
-431.934
-368.429
-265.327
-408.955
-541.738
-419.251
-207.326
-226.086
-240.511
-436.461
-515.987
-416.8
-264.708
-285.051
-445.98
-378.491
-299.634
-478.372
37.5129
-11.7675
1.94576
-571.515
-614.604
-605.595
-14.3847
-19.2406
-28.4591
-34.1333
-594.36
-593.705
-625.663
-620.262
-294.431
-436.814
-254.835
-208.551
-294.577
-435.396
-206.014
-293.301
-259.838
-433.518
-210.061
-433.896
-206.384
-293.177
-588.985
-582.222
-587.16
-583.801
-8.29539
-3.77286
-12.2833
-10.004
-288.563
-252.534
-423.055
-203.412
-287.686
-425.391
-203.298
-499.985
-610.006
-500.469
-608.098
-292.88
-261.59
-431.799
-207.963
-292.67
-433.917
-209.874
-497.365
-604.661
-496.76
-606.189
-6.87268
-5.08733
-6.25597
-5.76695
-573.719
-568.002
-569.079
-565.572
-574.576
-571.07
-587.719
-580.554
-8.00362
-9.27973
-15.2839
-15.2005
-2.00499
-2.45081
-6.76859
-5.65275
-559.787
-556.096
-568.324
-561.81
-277.237
-408.381
-238.407
-193.409
-277.312
-409.574
-193.515
-478.946
-584.735
-586.431
-478.411
-481.475
-589.698
-482.135
-588.23
-274.302
-235.973
-403.629
-191.294
-405.408
-190.221
-273.702
-559.119
-553.483
-552.758
-549.456
-1.67806
-0.38174
0.505417
0.50309
-269.127
-228.974
-395.195
-186.573
-268.54
-397.027
-185.46
-475.197
-582.82
-475.779
-581.179
-272.629
-233.303
-401.855
-189.476
-272.724
-403.055
-189.74
4.1001
5.52895
6.54783
6.16015
-541.93
-535.661
-531.516
-529.433
-542.905
-539.831
-551.976
-545.702
3.99105
3.68899
0.448082
1.78996
7.25092
6.88971
6.43688
7.87912
-515.996
-515.137
-530.536
-523.627
-260.097
-368.486
-203.867
-177.623
-259.029
-369.469
-178.655
-261.074
-196.554
-354.323
-182.669
-355.777
-179.907
-262.473
-514.721
-506.912
-494.081
-495.22
6.90696
8.03047
1.04317
1.67094
-278.072
-211.629
-339.812
-204.719
-283.798
-333.676
-198.375
-265.804
-193.62
-348.213
-182.062
-262.129
-348.743
-184.369
-23.3877
-28.6627
-26.6877
-32.0733
-457.514
-443.669
-514.476
-495.604
-459.669
-464.536
-492.259
-482.646
-23.3735
-18.7153
0.194453
-0.0759679
78.6901
55.1145
-12.813
-1.11919
-522.509
-557.22
-537.947
-560.009
-488.571
-395.368
-154.898
-203.004
-496.35
-386.482
-196.241
-706.061
-401.283
-561.586
-400.673
-759.105
-740.395
-683.703
-742.969
-723.605
-439.43
-327.643
-295.474
-517.805
-644.644
-356.383
-493.468
-469.228
102.736
102.617
-757.529
-848.341
-748.361
-386.011
-613.57
-717.913
-707.426
-715.515
-370.142
-647.507
-278.578
-224.938
-190.161
-437.333
-281.499
-178.794
-428.224
-289.779
-264.662
-188.013
-435.533
-284.474
-202.719
-446.352
-301.72
-279.354
-224.395
-456.82
-302.413
-217.285
-451.006
-304.038
-303.316
-226.147
-459.58
-304.461
-223.968
-465.293
-285.943
-250.031
-202.707
-420.705
-285.223
-199.719
-420.312
-284.663
-250.242
-200.975
-419.074
-284.518
-200.376
-419.691
-279.862
-243.915
-197.598
-412.997
-279.953
-195.903
-412.455
-281.782
-247.451
-199.331
-414.544
-280.974
-197.209
-415.266
-266.621
-227.308
-185.841
-391.657
-266.012
-182.949
-391.593
-265.025
-223.954
-183.607
-388.856
-264.936
-183.058
-389.189
-260.976
-213.287
-179.768
-376.697
-260.429
-179.785
-377.24
-261.889
-218.192
-182.015
-380.577
-261.531
-178.857
-380.426
-301.818
-235.064
-233.055
-371.547
-312.634
-220.568
-358.855
-339
-265.915
-240.154
-379.018
-318.572
-257.445
-399.283
-553.56
-213.439
-263.188
-467.881
-489.629
-261.25
-461.251
-432.022
-256.957
-288.248
-491.822
-472.844
-288.026
-484.258
36.0906
38.8758
105.167
-9.83033
-16.6029
134.072
108.832
132.26
-22.2906
-4.01689
-9.38455
103.321
142.128
103.115
232.575
230.238
101.957
22.757
-223.784
19.5022
-223.541
100.578
216.257
226.042
90.7486
25.4465
-223.082
25.3569
-223.444
16.4678
6.82569
78.4472
-49.0955
-19.4322
101.145
-34.929
117.345
60.8774
83.4631
124.762
-26.1248
-11.2523
-26.4472
87.2582
124.577
110.22
238.537
238.127
105.412
107.994
29.194
-222.902
27.7349
-222.887
-1032.07
-910.419
-1173.05
-571.988
-569.622
-1171.55
-1030.12
-914.218
-905.515
-1174.96
-1491.86
-1477.73
-1504.97
-1519.89
-1537.37
-1538.2
-1530.9
-597.283
-602.717
-927.029
-1029.6
-1162.19
-925.284
-1167.89
-1175.74
-917.623
-1034.59
-925.29
-1172.08
-31.6047
-24.1465
55.1406
-52.1831
-28.8578
94.5463
-47.7354
97.5693
55.4535
49.9414
81.075
-62.5799
-33.2196
-52.3329
39.1627
93.3453
88.4539
198.8
201.038
81.5663
17.042
-223.395
16.1318
-223.162
89.0475
206.394
86.812
203.176
16.308
-222.294
13.9402
-222.191
-39.3999
-38.1106
43.0874
-56.9294
-30.3382
89.3049
-54.3304
45.1129
90.6596
38.5536
78.7212
-64.4825
-34.1665
-57.8522
32.3963
85.9669
89.522
202.807
209.209
82.8396
19.2344
-219.75
17.9103
-220.138
91.6157
216.678
214.192
87.5915
17.0291
-221.634
15.0072
-221.025
-901.935
-1004.24
-1135.64
-902.717
-1136.03
-606.2
-597.662
-1138.14
-1005.8
-910.585
-905.196
-1136.78
-1458.6
-1466.96
-1452.49
-1451.26
-1457.87
-1460.69
-1455.64
-1451.93
-619.134
-618.826
-926.881
-1020.53
-1157.12
-924.418
-1150.65
-1142.33
-915.935
-1015.33
-920.851
-1145.51
-293.348
-255.177
-433.862
-208.178
-292.825
-432.293
-203.742
-293.112
-261.178
-431.554
-205.883
-292.34
-434.171
-207.785
-898.785
-1135.6
-1001.15
-896.932
-1134.57
-582.897
-581.492
-1130.62
-998.804
-895.644
-894.4
-1133.33
-1446.74
-1442.14
-1450.74
-1455.11
-1463.09
-1462.4
-1461.99
-1458.76
-587.716
-584.082
-892.986
-993.156
-1123.4
-892.726
-1126.35
-1130.29
-894.239
-996.117
-894.734
-1127.8
-7.07767
-5.31904
70.1996
-48.0722
98.2699
-24.1119
61.5039
-40.112
108.763
69.2149
101.631
-46.8002
-22.8535
-38.3441
63.1879
109.516
96.4268
225.795
227.713
91.6397
24.0477
-215.122
22.255
-215.258
97.205
225.425
228.468
91.3218
23.5656
-216.28
21.9636
-215.964
-12.3745
-11.997
65.3085
-48.8248
-23.4715
98.6725
-41.4343
106.093
58.6939
63.2714
98.7311
-46.9558
-22.4446
-40.7733
58.6587
106.278
97.2411
227.409
229.42
91.9158
21.822
-219.003
19.7269
-218.514
95.7323
221.563
89.3708
227.202
23.3299
-217.102
21.9418
-217.433
-289.88
-256.21
-428.27
-207.617
-290.039
-426.661
-205.158
-292.087
-263.703
-430.127
-209.668
-291.353
-431.626
-207.564
-9.23093
-7.60223
68.9541
-43.8963
-19.2898
100.959
-37.0742
109.238
63.2491
66.57
100.713
-44.3721
-19.3315
-36.7953
60.586
108.133
99.9428
229.891
232.578
94.5858
28.9128
-207.504
27.282
-207.599
100.986
232.303
234.138
95.741
28.1707
-208.416
26.4339
-208.105
-10.8009
-8.90542
68.4485
-42.4366
-18.0595
102.942
-36.2021
108.93
63.67
65.1904
99.1527
-44.1471
-18.3973
-36.7266
59.2845
107.936
99.9303
230.292
232.775
94.3681
27.0453
-210.562
25.2615
-210.23
99.3798
230.051
232.763
94.0634
27.6158
-209.176
26.0507
-209.384
-877.389
-976.346
-1108.11
-875.953
-1106.95
-569.659
-568.277
-1103.37
-974.459
-874.29
-874.215
-1105.38
-1417.42
-1414.99
-1336.17
-970.191
-930.543
-1146.11
-971.418
-1148.06
-1334.45
-1338.03
-1150.57
-973.79
-932.349
-973.486
-1339.43
-1149.25
-1419.36
-1421.35
-1345.38
-979.077
-937.133
-1156.44
-978.872
-1155.42
-1346.38
-1427.26
-1428.1
-1343.45
-1151.91
-935.606
-975.904
-977.119
-1153.87
-1341.52
-1425.65
-1423.37
-570.644
-566.678
-870.973
-969.611
-1098.29
-870.644
-1100.12
-1102.41
-872.749
-971.504
-872.122
-1100.95
-577.71
-573.414
-878.732
-978.633
-1108.65
-878.447
-1109.4
-1111.14
-881.524
-979.902
-879.501
-1110.26
-1435.28
-1438.32
-1354.97
-989.39
-1169.11
-947.889
-1357.76
-988.338
-1166.37
-1352.02
-1161.42
-945.253
-983.937
-985.462
-1163.82
-1350.03
-1432.36
-1430.6
-581.242
-580.368
-890.472
-1120.88
-987.434
-888.056
-1117.82
-1112.93
-883.948
-984.435
-885.318
-1115.25
-1347.76
-980.281
-939.854
-1157.11
-981.091
-1347.18
-1158.1
-1429.18
-1428.68
-1348.29
-1159.8
-940.975
-982.22
-982.022
-1158.95
-1348.75
-1429.7
-1429.59
-17.0286
-13.1966
64.9184
-45.1969
-21.4192
100.858
-39.5516
61.8707
105.778
60.6645
93.3497
-49.9547
-23.182
-41.499
52.9733
103.558
95.8159
221.663
223.933
90.019
23.664
-214.419
22.1068
-214.094
95.5868
223.713
91.0793
224.642
23.8848
-213.095
22.1296
-213.206
-18.9535
-18.1434
59.5694
-49.6979
95.6169
-24.0955
55.8277
-43.7535
102.276
56.5709
93.374
-51.1049
-24.8747
-44.1283
51.1667
100.242
96.6508
222.846
226.74
90.7159
26.0083
-211.2
24.5366
-211.36
98.1241
228.878
93.3685
229.424
24.6906
-212.45
22.8072
-212.071
-8.84892
-5.92473
71.0238
-38.617
-14.922
105.898
-32.7595
111.165
67.2228
67.256
100.039
-41.959
-16.018
-34.0112
60.4474
109.549
101.274
231.097
233.516
95.6883
29.3619
-206.814
27.6663
-206.497
101.006
232.145
96.0278
233.967
29.5794
-205.799
27.9212
-205.874
-9.27347
-8.19142
68.0303
-42.1849
-17.1903
101.611
-35.671
63.224
109.138
65.453
100.715
-42.7076
-17.4869
-35.6264
59.9465
107.641
101.762
231.555
234.772
96.1363
31.2044
-204.224
29.6522
-204.322
102.995
235.622
236.845
98.0316
30.176
-205.226
28.3885
-204.939
-860.362
-958.603
-1086.71
-859.957
-1087.74
-561.605
-557.766
-1089.42
-959.928
-862.207
-860.937
-1088.53
-1411.02
-1412.9
-1330.41
-967.945
-926.616
-1144.36
-967.318
-1332.25
-1142.53
-1328.15
-1138.59
-963.894
-924.622
-965.219
-1326.35
-1140.64
-1408.95
-1407.04
-1323.07
-959.722
-919.915
-1134.22
-960.656
-1135.48
-1322.09
-1403.77
-1402.42
-1324.1
-1137.28
-921.185
-962.175
-961.972
-1136.38
-1324.86
-1404.87
-1405.71
-562.967
-561.671
-868.899
-965.668
-1096.72
-866.852
-1094.63
-1090.65
-864.024
-963.306
-864.593
-1092.75
-276.618
-240.39
-407.77
-194.535
-275.912
-407.752
-191.893
-275.06
-238.878
-406.048
-192.78
-275.067
-406.185
-191.748
-858.908
-1085.88
-955.978
-857.402
-1084.42
-554.797
-553.691
-1080.72
-953.935
-855.296
-855.491
-1082.75
-1390.91
-1388.75
-1310.77
-949.193
-910.04
-1122.62
-950.348
-1124.46
-1309.24
-1392.54
-1394.17
-1312.41
-1126.87
-952.572
-911.779
-952.268
-1313.61
-1125.63
-1319.47
-958.122
-1133.21
-916.932
-1320.77
-957.775
-1131.92
-1399.92
-1401.24
-1398.11
-1395.91
-1317.41
-1128.25
-915.225
-954.605
-955.858
-1130.26
-1315.51
-554.901
-550.799
-851.527
-948.839
-1075.67
-851.119
-1077.37
-1079.59
-853.513
-950.687
-852.643
-1078.26
-4.4345
-2.99152
72.8563
-37.891
105.225
-13.4043
67.7563
-31.281
113.082
70.2862
104.598
-38.5359
-13.6486
-31.2316
64.4835
111.623
104.052
235.372
238.273
98.6897
33.7049
-200.615
32.1199
-200.739
105.276
238.742
240.188
100.205
32.7542
-201.648
31.0528
-201.359
-5.20726
-2.89456
73.7246
-35.6064
-11.8103
108.317
-29.6507
113.607
69.5021
70.1189
103.223
-38.1436
-12.5022
-30.5047
63.9303
112.378
103.94
235.408
237.898
98.3283
31.8451
-203.635
30.1506
-203.314
103.572
236.088
98.5137
238.269
32.2391
-202.37
30.6042
-202.525
-270.061
-231.871
-398.291
-188.356
-270.104
-398.237
-187.291
-271.854
-235.116
-400.537
-190.399
-271.15
-400.717
-187.85
1.70632
2.97451
77.8987
-31.396
-7.15637
109.86
-24.9483
117.901
72.8532
75.433
109.967
-32.0992
-7.41897
-24.7991
69.7922
116.248
108.228
243.19
246.163
103.2
39.1314
-191.711
37.4906
-191.929
109.676
247.173
248.303
104.497
37.9344
-193.225
36.379
-192.893
0.66436
3.22138
78.5738
-29.2254
-5.55381
113.691
-23.1752
118.113
74.7503
75.3233
107.866
-31.5332
-6.28088
-24.242
69.0724
117.242
108.44
243.103
245.402
102.764
37.0082
-195.706
35.3706
-195.249
107.844
243.297
245.494
103.056
37.5928
-194.08
35.866
-194.232
-837.403
-932.283
-1060.64
-835.696
-1058.38
-535.743
-535.639
-1053.42
-929.324
-832.413
-832.857
-1056.2
-1355.96
-1352.93
-1358.29
-1360.72
-1368.57
-1370.75
-1366.08
-1363.07
-535.659
-530.671
-826.278
-921.718
-1045.76
-826.121
-1048.12
-1051.76
-829.606
-924.475
-828.524
-1049.64
-545.807
-541.351
-839.803
-936.331
-1061.99
-839.458
-1063.79
-1066.42
-842.318
-938.419
-841.241
-1064.89
-1384.94
-1386.9
-1305.41
-946.939
-1121.06
-906.045
-1307.21
-946.313
-1119.22
-1302.89
-1114.79
-903.84
-942.454
-943.899
-1117.19
-1300.74
-1382.73
-1380.26
-546.26
-545.731
-849.37
-1074.35
-945.102
-847.629
-1072.26
-1067.84
-844.649
-942.478
-845.086
-1070.27
-1374.91
-1372.68
-1376.67
-1378.4
-2.28015
0.367334
76.429
-32.0988
-8.56774
111.274
-26.2118
72.5139
116.072
72.8117
105.383
-34.9692
-9.45732
-27.3171
66.3812
114.832
106.02
238.539
240.848
100.418
34.2336
-199.966
32.584
-199.606
105.549
238.986
100.638
241.069
34.7073
-198.56
33.0627
-198.721
-1.8804
-0.731977
74.586
-35.0725
107.08
-10.5554
69.5939
-28.5493
114.921
72.1005
106.828
-35.5878
-10.8041
-28.4268
66.5648
113.388
106.197
238.792
241.888
100.885
36.3898
-196.472
34.8175
-196.662
107.583
242.834
102.534
244.036
35.2496
-197.793
33.5737
-197.485
2.29903
4.70756
78.9358
-28.108
-3.88215
114.251
-21.6226
118.327
75.1671
76.4485
108.931
-29.2524
-4.44453
-22.6376
70.3869
118.062
110.149
247.698
249.903
104.288
39.4939
-190.858
38.047
-190.45
109.5
247.641
105.017
249.831
40.1109
-189.076
38.3383
-189.327
3.92304
5.30313
79.8704
-28.5026
-4.49261
111.685
-22.3561
74.906
119.742
77.3809
111.886
-29.7662
-4.84985
-22.21
71.6516
117.834
109.192
247.742
250.639
104.579
41.2326
-186.511
39.4457
-186.76
110.527
251.781
252.733
105.056
40.125
-188.162
38.7371
-187.79
-808.035
-902.237
-1024.15
-808.184
-1027.08
-522.343
-516.376
-1032.28
-905.916
-812.958
-811.612
-1029.27
-1347.31
-1350.34
-1344.07
-1339.99
-1333.16
-1329.38
-1334.39
-1336.79
-522.496
-523.355
-823.104
-916.393
-1043.95
-821.233
-1040.96
-1034.58
-816.776
-912.56
-817.498
-1038.2
-259.559
-204.921
-365.17
-180.98
-259.98
-364.874
-177.264
-261.357
-197.94
-359.729
-179.629
-259.295
-360.73
-180.914
-803.765
-1021.9
-895.236
-801.619
-1018.03
-503.918
-506.216
-1009.91
-890.223
-795.45
-796.618
-1014.61
-1299.51
-1294.88
-1302.68
-1306.52
-1319.5
-1324.67
-1314.89
-1310.03
-503.958
-496.293
-782.811
-876.019
-994.986
-783.493
-999.313
-1006.78
-790.163
-881.032
-788.461
-1002.45
2.96199
5.16126
79.8074
-27.4963
111.334
-4.08646
75.0935
-22.0892
119.048
76.9701
110.649
-30.6648
-4.76847
-22.2708
70.5891
116.553
106.749
252.102
254.648
102.964
40.6469
-182.389
38.5267
-182.498
107.324
255.587
256.382
101.266
40.1363
-183.434
39.1712
-183.187
-0.108048
1.07956
73.6661
-33.2561
-6.99404
110.544
-25.4949
113.029
69.3421
72.8838
106.32
-30.7568
-6.96356
-25.819
67.8186
113.563
109.689
252.463
254.684
103.384
41.068
-185.609
39.8611
-185.215
109.333
252.327
105.347
254.528
41.3446
-184.054
39.393
-184.317
-276.412
-206.161
-334.033
-191.54
-269.942
-335.491
-196.356
-266.35
-196.711
-342.245
-190.295
-269.082
-341.914
-184.898
-36.914
-28.5682
64.6832
-56.4881
-39.7688
132.365
-57.8774
136.4
57.3759
65.7803
139.012
-74.2609
-43.075
-60.3423
67.0713
142.185
72.5362
264.522
267.264
70.6602
6.38419
-197.837
5.18913
-197.809
67.4035
269.831
268.727
64.6777
13.5683
-192.659
13.638
-192.885
-35.3987
-37.8661
77.4356
-80.0784
-79.1046
154.78
-74.4502
154.277
86.0527
74.5358
144.897
-74.4119
-74.2729
-78.2936
66.6284
147.475
83.2449
265.324
266.456
76.4515
26.7241
-185.616
26.5728
-185.82
86.9064
261.101
264.887
84.5198
23.0101
-188.641
20.3453
-188.299
-736.119
-824.737
-949.514
-732.114
-942.444
-450.799
-447.224
-927.16
-815.826
-718.027
-721.368
-936.182
-1208.27
-1201.94
-1212.05
-1219.67
-1238.46
-1244.7
-1233.51
-1225.31
-467.956
-476.24
-686.317
-786.694
-896.323
-688.624
-904.912
-920.909
-705.624
-797.336
-701.734
-911.146
-476.375
-465.144
-745.138
-839.04
-954.115
-746.811
-960.297
-970.959
-757.027
-845.895
-754.471
-964.577
-1285.89
-1291.06
-1280.79
-1274.03
-476.152
-481.238
-776.76
-991.628
-865.872
-773.947
-986.269
-975.382
-764.818
-859.263
-766.835
-981.691
-1256.3
-1249.38
-1261.69
-1268.52
-13.7954
-16.4888
57.4157
-55.1458
-23.5959
124.754
-43.9098
54.7398
126.469
59.3592
119.192
-43.2742
-22.2117
-42.4479
55.9534
121.069
102.917
256.795
258.872
95.7741
38.6541
-182.316
37.9095
-182.093
103.698
256.178
100.552
258.567
37.9981
-181.946
35.5042
-181.933
-8.26133
-3.6355
72.6756
-33.3142
113.618
-11.2357
68.5744
-29.8828
115.487
68.858
114.807
-41.6607
-12.6539
-31.0511
61.2666
119.146
95.9904
255.954
258.345
93.4521
32.3305
-183.599
29.7445
-183.395
94.3053
259.646
87.6322
259.78
33.8855
-182.533
33.5131
-182.493
31.9165
46.2967
168.887
-5.66252
-155.185
192.825
-14.4457
199.304
187.67
161.112
194.656
-35.1072
-157.631
-28.672
143.585
197.166
59.0306
280.437
279.948
60.8461
-2.09702
-205.21
-4.65235
-204.88
64.3372
273.435
60.0829
278.297
-14.5978
-211.633
-9.18027
-213.515
24.0984
12.5605
114.482
-68.8347
-125.157
166.144
-63.1483
97.2943
174.335
126.011
185.977
-48.973
-126.089
-50.6602
137.296
184.397
48.6525
278.962
272.423
53.03
-46.736
-223.182
-27.3503
-231.91
36.4822
237.795
253.569
31.9993
-20.2228
-222.719
-27.0865
-220.74
-733.02
-868.828
-861.552
-756
-895.157
-601.137
-568.036
-895.157
-871.091
-776.541
-779.17
-903.989
-1190.99
-1198.92
-1184.61
-1171.56
-1128.63
-1104.37
-1145.6
-1162.58
-609.183
-586.615
-682.081
-791.185
-890.855
-711.174
-882.365
-879.931
-760.978
-792.61
-728.38
-879.272
-499.92
-158.919
-416.071
-258.895
-545.968
-385.766
-227.257
-790.033
-805.052
-759.721
-684.301
-766.196
-763.656
-742.57
-814.522
-704.303
-776.551
-876.935
-857.072
-912.936
-677.191
-298.121
-702.744
-861.748
-827.611
-872.066
-713.009
-359.26
-737.838
-792.746
-902.311
-817.983
-466.237
-354.195
-628.456
-797.611
-661.998
-774.771
-847.09
-567.198
-754.267
-704.85
-831.864
-820.262
-679.778
-797.102
-454.635
-458.872
-706.958
-787.456
-677.785
-661.146
-754.359
-699.491
-678.185
-773.587
-666.687
-675.392
-690.46
-1029.97
-1076.98
-951.972
-844.838
-435.16
-637.566
-764.948
-20.5409
93.9988
193.596
-3.99372
185.116
-219.482
206.146
-6.94284
166.507
163.967
-26.5014
-123.981
-253.524
-65.1349
27.4434
103.625
-231.718
-440.724
-660.902
-216.904
-579.132
-372.407
-762.916
-617.486
-433.073
-659.797
-120.756
-260.496
-258.291
-94.2103
-138.538
-68.5026
104.223
-291.734
-70.319
-230.62
-59.483
-238.306
-24.4616
214.35
12.8022
182.781
-156.307
-206.047
-332.889
-259.53
-511.7
-659.923
-630.028
-532.751
-514.323
-630.747
-511.168
-656.932
-530.912
-625.733
-512.782
-650.024
-625.254
-512.348
-620.687
-509.846
-617.044
-647.18
-618.297
-509.423
-464.966
-569.709
-464.581
-571.583
-468.202
-575.381
-468.755
-573.66
-460.993
-567.599
-461.209
-565.94
-457.604
-562.564
-564.031
-457.703
-487.76
-629.192
-503.83
-609.637
-478.202
-582.172
-468.222
-593.957
-547.704
-653.308
-520.033
-682.2
-577.673
-738.768
-712.485
-638.904
-503.167
-612.223
-613.958
-502.982
-505.938
-616.023
-506.24
-615.39
-472.355
-577.43
-471.818
-579.226
-452.641
-559.996
-559.74
-454.369
-455.22
-561.019
-454.543
-560.241
-456.539
-561.049
-453.216
-563.542
-457.649
-573.509
-463.495
-567.632
-1409.18
-1027.54
-988.702
-1210.95
-1031.32
-1217.78
-1400.67
-1420.31
-1227.55
-1043.93
-994.26
-1042.16
-1427.32
-1223.23
-1437.82
-997.904
-1054
-1229.63
-1438.05
-1228.12
-997.605
-1051.77
-1053.06
-1230.34
-1435.13
-1384.02
-1017.88
-978.659
-1204.61
-1015.34
-1390.75
-1198.57
-1378.46
-1190.09
-1007.5
-973.746
-1009.66
-1375.78
-1193.66
-1377.22
-1006.04
-965.35
-1185.36
-1006.55
-1185.72
-1378.02
-1375.81
-1187.19
-966.326
-1006.06
-1005.87
-1186.18
-1375.31
-1364.61
-993.168
-953.585
-1171.96
-994.974
-1175.09
-1361.52
-1368.33
-1179.45
-999.531
-956.447
-998.82
-1371.01
-1177.13
-1378.66
-1006.08
-1185.39
-962.049
-1378.86
-1005.95
-1184.71
-1376.82
-1180.91
-960.457
-1002.87
-1004.26
-1183.26
-1374.43
-1277.45
-920.592
-882.916
-1091.38
-922.096
-1093.95
-1275.3
-1279.94
-1097.76
-925.625
-885.467
-924.941
-1281.75
-1095.74
-1289.82
-933.722
-893.127
-1106.76
-933.009
-1104.73
-1291.74
-1286.94
-1099.72
-890.61
-928.59
-930.184
-1102.48
-1284.44
-1295.49
-936.242
-897.626
-1108.38
-937.482
-1293.89
-1110.34
-1297.29
-1113.17
-899.575
-940.074
-939.632
-1111.7
-1298.61
-1269.91
-917.313
-877.039
-1089.25
-916.29
-1272.41
-1086.54
-1266.22
-1080.21
-910.765
-873.741
-912.674
-1262.99
-1083.7
-1253.83
-900.018
-863.408
-1068.82
-902.107
-1072.19
-1251.47
-1257.01
-1077.68
-866.902
-907.069
-906.131
-1074.83
-1259.36
-1222.18
-872.742
-837.401
-1038.75
-875.127
-1043.37
-1218.8
-1226.68
-1050.84
-881.636
-841.93
-880.226
-1230.18
-1046.84
-1244.79
-895.63
-1066.13
-855.875
-1248.13
-893.902
-1062.38
-1239.71
-1054.33
-851.469
-886.69
-888.938
-1058.79
-1235.35
-1127.42
-828.766
-759.247
-943.748
-805.352
-951.198
-1122.78
-1135.59
-965.337
-808.838
-765.238
-818.551
-1141.48
-956.936
-1164.47
-829.509
-787.298
-992.697
-829.253
-986.1
-1169.55
-1156.46
-971.614
-779.698
-820.981
-819.789
-980.059
-1150.11
-1209.81
-867.036
-1034.98
-826.665
-1213.96
-865.17
-1029.99
-1203.4
-1019.13
-820.873
-855.911
-858.762
-1025.29
-1198.08
-1180.61
-837.377
-801.77
-997.51
-839.523
-1176.05
-1003.75
-1186.79
-1014.38
-807.946
-848.792
-846.877
-1008.44
-1191.48
-1112.11
-822.2
-788.326
-939.843
-852.74
-1115.55
-934.745
-1103.85
-938.389
-879.212
-796.956
-849.301
-1101.4
-935.332
-1075.65
-893.297
-840.879
-940.002
-879.137
-951.686
-1068.17
-1090.7
-948.559
-849.694
-871.217
-898.517
-951.834
-1092.58
-1004.49
-849.541
-913.959
-793.417
-1034.93
-839.524
-871.954
-928.405
-735.292
-743.84
-738.374
-762.097
-808.269
-836.933
)
;

boundaryField
{
    left
    {
        type            calculated;
        value           nonuniform List<scalar> 0();
    }
    bottom
    {
        type            calculated;
        value           nonuniform List<scalar> 
243
(
-466.394
-464.948
-442.51
-439.82
-417.401
-413.415
-408.68
-422.03
-454.317
-451.391
-431.181
-428.104
-401.978
-399.836
-231.216
-230.343
-465.633
-461.67
-232.861
-233.368
-218.189
-220.346
-445.318
-437.024
-214.243
-216.295
-200.272
-202.88
-421.209
-409.306
-195.249
-197.736
-223.64
-205.413
-402.302
-465.175
-350.86
-263.119
-108.243
-226.496
-229.361
-457.686
-106.344
-103.867
-110.604
-109.243
-99.5747
-97.665
-103.293
-100.997
-448.362
-222.77
-224.79
-209.918
-212.085
-434.131
-93.6099
-91.6123
-96.7902
-94.7018
-86.8379
-84.375
-90.4928
-88.1719
-424.782
-205.361
-207.739
-192.13
-193.318
-405.384
-79.245
-78.4868
-82.9115
-80.6418
-84.6043
-105.069
-77.8957
-82.1985
-399.639
-196.308
-192.886
-328.92
-257.954
-118.249
-188.411
-218.391
-104.658
-104.841
-105.176
-103.816
-112.198
-110.898
-99.0223
-98.0299
-103.098
-101.862
-93.1602
-92.1199
-96.3858
-95.3249
-86.3443
-84.9459
-90.0229
-88.7787
-79.247
-78.1355
-82.4933
-81.0211
-89.596
-95.8325
-79.1622
-79.7128
-63.1996
-157.959
-248.353
-27.4265
-134.365
-165.855
-361.273
-376.131
-328.585
-413.593
-431.324
-209.996
-253.056
-328.16
-328.007
-328.97
-329.495
-328.354
-329.086
-322.125
-321.684
-323.789
-323.173
-319.788
-319.539
-320.91
-320.612
-327.929
-327.899
-328.979
-329.027
-325.254
-324.53
-327.055
-326.221
-313.158
-312.879
-314.319
-313.971
-311.207
-310.947
-312.191
-311.856
-317.58
-317.318
-318.781
-318.484
-315.356
-314.973
-316.622
-316.137
-305.329
-305.072
-306.434
-306.108
-303.244
-302.908
-304.358
-304.003
-309.279
-309.036
-310.285
-309.968
-307.358
-307.058
-308.426
-308.057
-295.73
-295.381
-297.244
-296.787
-292.858
-292.397
-294.422
-293.978
-300.935
-300.63
-302.208
-301.828
-298.477