/*--------------------------------*- C++ -*----------------------------------*\
| =========                 |                                                 |
| \\      /  F ield         | OpenFOAM: The Open Source CFD Toolbox           |
|  \\    /   O peration     | Version:  2012                                  |
|   \\  /    A nd           | Website:  www.openfoam.com                      |
|    \\/     M anipulation  |                                                 |
\*---------------------------------------------------------------------------*/
FoamFile
{
    version     2.0;
    format      ascii;
    class       volVectorField;
    location    "0.104/solid";
    object      sigmaMinDir;
}
// * * * * * * * * * * * * * * * * * * * * * * * * * * * * * * * * * * * * * //

dimensions      [1 -1 -2 0 0 0 0];


internalField   nonuniform List<vector> 
3125
(
(0.187937 0.982165 -0.0056557)
(0.185202 0.982675 -0.00702472)
(0.181284 0.983414 -0.00570081)
(0.181114 0.983446 -0.00569784)
(0.178119 0.983978 -0.00782684)
(0.177172 0.984147 -0.0080054)
(0.175023 0.982975 0.055912)
(0.185472 0.977915 0.0963445)
(0.183029 0.983085 -0.00664091)
(0.182287 0.983224 -0.0064867)
(0.180472 0.983561 -0.00619952)
(0.180067 0.983632 -0.0066575)
(0.173419 0.984842 -0.00335251)
(0.172171 0.985064 0.00236366)
(0.189716 0.981837 0.00209379)
(0.419527 0.90774 -0.0021911)
(-0.0423519 0.998942 -0.0179275)
(0.27048 0.962695 -0.00767806)
(0.420118 0.907464 0.00318611)
(0.269807 0.962842 -0.0117827)
(0.414062 0.910225 -0.00648626)
(-0.0467332 0.998824 -0.0128794)
(0.184164 0.98288 -0.00561702)
(-0.0443727 0.999009 0.00339249)
(0.251489 0.967836 -0.00681504)
(0.414771 0.909893 -0.00773482)
(0.266537 0.963801 -0.00676206)
(0.181594 0.983358 -0.00557626)
(0.417168 0.908807 -0.00634554)
(0.264002 0.964485 -0.00850314)
(0.417222 0.908783 -0.0062936)
(0.264544 0.964336 -0.00848345)
(0.417167 0.908808 -0.00634491)
(0.181014 0.983465 -0.0055784)
(0.263607 0.964607 -0.00664773)
(0.417516 0.908647 -0.00644495)
(0.261098 0.965264 -0.00969091)
(0.178919 0.983835 -0.00748518)
(0.418303 0.908262 -0.0091041)
(0.259743 0.965589 -0.0130651)
(0.418249 0.908292 -0.00853686)
(0.257474 0.966204 -0.012552)
(0.418438 0.908199 -0.009201)
(0.176061 0.98435 -0.00760343)
(0.258493 0.965951 -0.0109939)
(0.418599 0.908128 -0.00888787)
(0.254554 0.964633 0.0684437)
(0.171821 0.984688 0.0294315)
(0.428811 0.899899 0.0793906)
(0.183701 0.538193 0.822559)
(0.425191 0.90424 0.0395346)
(-0.0217501 -0.00614605 0.999745)
(0.433715 0.888025 0.152654)
(0.220958 0.957707 0.184322)
(0.135417 0.344259 0.929058)
(0.426874 0.847649 0.31507)
(0.579144 0.815222 0.00219146)
(-0.137112 0.990477 -0.0124616)
(0.577032 0.816689 -0.00732847)
(0.578562 0.815627 -0.00436974)
(-0.14355 0.989612 -0.00781925)
(-0.136627 0.990614 0.00415977)
(0.274812 0.961457 -0.00892245)
(0.183805 0.982946 -0.00577963)
(0.417123 0.908823 -0.00704583)
(0.265912 0.963945 -0.010041)
(0.417395 0.908698 -0.0069393)
(-0.136649 0.990613 -0.00363636)
(-0.133944 0.990987 0.00199466)
(0.579955 0.814642 -0.00323842)
(0.579537 0.814868 -0.0112836)
(0.266947 0.963669 -0.00905534)
(0.181902 0.9833 -0.00573121)
(0.416173 0.909257 -0.00720226)
(0.263181 0.964711 -0.0083152)
(0.4166 0.909064 -0.0068985)
(0.581084 0.813839 -0.00252053)
(0.580692 0.81406 -0.0101216)
(-0.136433 0.990648 -0.00186761)
(-0.135715 0.990748 -0.000510274)
(-0.137654 0.990477 -0.00272856)
(-0.136151 0.990688 0.000104533)
(0.579563 0.81486 -0.0104843)
(0.580477 0.814271 -0.0031616)
(0.58103 0.813823 -0.00977764)
(0.581686 0.813409 -0.00272334)
(-0.136607 0.990624 -0.0017185)
(-0.136443 0.990648 -0.000865264)
(0.264089 0.964476 -0.00649362)
(0.180805 0.983502 -0.0058111)
(0.417858 0.908485 -0.00705261)
(0.262747 0.964814 -0.00990052)
(0.417806 0.908513 -0.00650246)
(-0.136951 0.990577 -0.00146099)
(-0.136473 0.990643 -0.00111764)
(0.582254 0.813 -0.00339391)
(0.581753 0.813303 -0.0100641)
(0.261609 0.965105 -0.0115052)
(0.179567 0.983721 -0.00702497)
(0.417955 0.908437 -0.00750503)
(0.262271 0.96496 -0.0081636)
(0.418108 0.908361 -0.00812415)
(0.583781 0.811893 -0.00548382)
(0.583019 0.812369 -0.0121099)
(-0.138433 0.990371 -0.0015759)
(-0.137617 0.990484 -0.00152254)
(-0.137064 0.990561 -0.00155164)
(-0.137426 0.990511 -0.00133319)
(0.582264 0.812926 -0.0109465)
(0.582974 0.812479 -0.0045216)
(0.583828 0.811774 -0.0129556)
(0.584738 0.811207 -0.00487654)
(-0.138774 0.990323 -0.00169696)
(0.255663 0.966716 -0.00977788)
(0.174779 0.984587 -0.00633526)
(0.419456 0.907768 -0.00373679)
(0.254856 0.966975 -0.00289563)
(0.418951 0.90798 -0.00721903)
(0.585677 0.810543 0.00169541)
(0.584827 0.811076 -0.0115344)
(0.256164 0.965384 0.04913)
(0.171402 0.985121 0.012598)
(0.420573 0.907252 0.00349183)
(0.252616 0.967564 0.00240934)
(0.422267 0.906322 0.0164498)
(0.578148 0.809087 0.105464)
(0.585536 0.810086 0.0301321)
(0.585786 0.810463 -0.00230622)
(0.585744 0.810073 0.0261829)
(0.572588 0.808267 0.137282)
(0.482419 0.777839 0.402788)
(-0.0424315 -0.0271706 0.99873)
(0.445877 0.738977 0.505081)
(0.419075 0.738432 0.528293)
(0.394335 0.918728 0.0209187)
(0.411297 0.638878 0.65013)
(0.226933 0.973867 -0.00920676)
(0.3211 0.947044 -0.00131126)
(0.354388 0.935095 -0.0025661)
(0.11672 0.993164 0.000890415)
(0.223408 0.974703 0.00662534)
(0.285673 0.958321 0.00339516)
(0.345738 0.938213 -0.0148806)
(0.0980495 0.995122 -0.0108474)
(0.218337 0.975675 -0.0197004)
(0.351269 0.936258 0.00554718)
(0.107726 0.994173 -0.00385945)
(0.214369 0.976743 0.00441012)
(0.0985211 0.995133 -0.00195539)
(0.269924 0.96277 -0.0146538)
(0.342909 0.939269 -0.0137029)
(0.340932 0.940083 -0.0029116)
(0.0961558 0.99536 -0.00340405)
(0.21609 0.976259 -0.0149437)
(0.213434 0.976762 -0.0195322)
(0.25347 0.967194 -0.0170124)
(0.340965 0.940065 -0.00449858)
(0.093203 0.995596 -0.0100973)
(0.214376 0.976751 0.00015033)
(0.338891 0.940649 -0.0182299)
(0.0929916 0.995627 -0.00885712)
(0.215437 0.976388 -0.0159384)
(0.0971766 0.995264 -0.0024685)
(0.269363 0.963002 -0.00840755)
(0.343689 0.939083 0.000711293)
(0.215486 0.976488 0.00605619)
(0.342955 0.939257 -0.0133473)
(0.0971424 0.995261 -0.00442361)
(0.215127 0.976571 0.00549109)
(0.266587 0.963795 -0.0054443)
(0.342639 0.939362 -0.014075)
(0.0959465 0.995375 -0.00475824)
(0.21491 0.976495 -0.016437)
(0.34289 0.939375 0.000211528)
(0.0968288 0.995296 -0.00302719)
(0.214965 0.976605 0.00571125)
(0.0961437 0.99536 -0.00381159)
(0.267789 0.963458 -0.00616826)
(0.342771 0.939321 -0.0135717)
(0.342648 0.939464 0.000218521)
(0.0967772 0.995303 -0.0026347)
(0.214966 0.976493 -0.0158193)
(0.214949 0.976488 -0.0163646)
(0.267261 0.963581 -0.0091122)
(0.342799 0.939409 -0.000224145)
(0.0960633 0.995368 -0.00383201)
(0.214774 0.976651 0.00503917)
(0.3422 0.939524 -0.0139103)
(0.0965493 0.995316 -0.00485872)
(0.213723 0.976725 -0.0181954)
(0.0944635 0.995518 -0.00448002)
(0.264516 0.964299 -0.0125668)
(0.342596 0.93948 -0.00221301)
(0.213784 0.976874 0.00374099)
(0.34171 0.939661 -0.0164928)
(0.0944715 0.995509 -0.00614118)
(0.213412 0.976956 0.00337625)
(0.262338 0.964927 -0.0097319)
(0.341669 0.939664 -0.017163)
(0.0933423 0.995617 -0.00591083)
(0.213182 0.976837 -0.0184997)
(0.341974 0.939705 -0.00283771)
(0.0943622 0.995528 -0.00445751)
(0.212424 0.977173 0.00301471)
(0.091953 0.995746 -0.00595321)
(0.259485 0.965694 -0.0101185)
(0.341257 0.939815 -0.0170681)
(0.341669 0.939815 -0.0031347)
(0.0930178 0.995653 -0.00483364)
(0.212213 0.977047 -0.0185565)
(0.212769 0.976918 -0.0189689)
(0.262425 0.964861 -0.013267)
(0.342217 0.939615 -0.00334672)
(0.0931444 0.995639 -0.0052246)
(0.212859 0.977079 0.00283485)
(0.341224 0.939821 -0.0174261)
(0.0930772 0.995636 -0.0067653)
(0.217127 0.975966 0.0186229)
(0.0944658 0.995417 0.0149052)
(0.266786 0.947769 0.17481)
(0.348496 0.936288 0.0437513)
(0.215059 0.976062 0.0324384)
(0.348721 0.936185 0.0441802)
(0.0969391 0.995085 0.0202394)
(0.21987 0.973874 0.0568021)
(0.258413 0.932354 0.252859)
(0.353302 0.929698 0.104115)
(0.104681 0.993562 0.0433233)
(0.223829 0.973449 0.0479236)
(0.352858 0.931388 0.0894816)
(0.10093 0.994379 0.0319939)
(0.251123 0.959276 0.129332)
(0.177014 0.940773 -0.289158)
(0.0313334 0.084449 0.995935)
(0.120448 0.411088 0.903603)
(0.321407 0.800374 0.506062)
(0.135685 0.990751 0.00124969)
(0.286347 0.956918 0.0481005)
(0.238537 0.967613 0.0826092)
(0.0472824 0.128448 0.990588)
(0.360414 0.91489 0.181875)
(0.110568 0.99243 0.0534554)
(0.229502 0.968887 0.0926647)
(0.354333 0.901665 0.247888)
(0.1182 0.991724 0.0501283)
(0.408084 0.91293 -0.00506985)
(0.520613 0.853713 -0.0116774)
(0.581155 0.813788 -0.00276702)
(0.524154 0.851621 0.00195198)
(0.399205 0.916656 -0.0193928)
(0.406101 0.913673 0.0168411)
(0.58183 0.813277 0.00729212)
(0.52641 0.850202 0.00704624)
(-0.199297 0.979917 -0.00654177)
(-0.126681 0.991869 -0.0121325)
(0.000951918 0.999851 -0.0172121)
(0.0157085 0.99987 -0.00357785)
(-0.117346 0.993083 -0.00412137)
(0.0209285 0.999744 -0.00855109)
(-0.222362 0.97487 -0.0135396)
(-0.210733 0.97751 0.00814217)
(0.398321 0.916904 -0.0250582)
(0.393465 0.919331 -0.00401141)
(0.514822 0.857222 -0.011298)
(0.576265 0.817258 -0.00275217)
(0.51388 0.857656 -0.0188081)
(0.395401 0.918504 0.00293429)
(0.392204 0.919459 -0.0277695)
(0.518013 0.85519 -0.0176747)
(0.576845 0.816778 -0.0111262)
(0.514582 0.857334 -0.0135517)
(-0.217205 0.976102 -0.00683891)
(-0.220141 0.975451 0.00577359)
(-0.144446 0.989512 -0.00092628)
(-0.000370213 0.999976 -0.00696034)
(0.00107346 0.999973 -0.00720091)
(0.00766097 0.999969 -0.00199794)
(-0.140874 0.990019 0.00406518)
(0.00328246 0.999985 0.00427225)
(-0.226705 0.973962 0.00170781)
(-0.222056 0.974971 -0.0110929)
(0.217309 0.975975 -0.0157847)
(0.0999516 0.994992 -0.00108658)
(0.277629 0.960655 -0.00796862)
(0.34551 0.938414 0.00104146)
(0.217199 0.976103 0.00690482)
(0.0997827 0.995002 -0.00391186)
(0.344929 0.938538 -0.0130803)
(0.216509 0.976269 0.00476062)
(0.268681 0.963216 -0.00510002)
(0.0964053 0.995321 -0.0064969)
(0.343215 0.939126 -0.0156621)
(0.0983683 0.995143 -0.0037485)
(0.344372 0.938833 -0.000344381)
(0.215606 0.976316 -0.0179195)
(-0.217657 0.975992 0.00806876)
(-0.216128 0.976324 -0.00896701)
(-0.134862 0.990859 -0.00325126)
(0.00375564 0.999951 -0.00917285)
(0.00681972 0.999976 0.000960223)
(0.00820101 0.99995 0.00575992)
(-0.133494 0.991048 -0.00158571)
(0.00754817 0.999946 -0.00718316)
(-0.220884 0.975241 -0.0107198)
(-0.219088 0.975683 0.00656366)
(0.400236 0.916412 0.000722678)
(0.399822 0.916326 -0.0221199)
(0.51988 0.854032 -0.0188086)
(0.580019 0.814533 -0.0106244)
(0.519772 0.854213 -0.0125479)
(0.398368 0.916889 -0.0248329)
(0.39909 0.916909 0.0023676)
(0.519708 0.85427 -0.0112694)
(0.580266 0.81442 -0.00337218)
(0.521134 0.853312 -0.0166827)
(0.215228 0.976549 0.00535688)
(0.270159 0.962779 -0.00845982)
(0.0971798 0.995261 -0.00338663)
(0.342993 0.93924 -0.0135661)
(0.215462 0.976388 -0.0156037)
(0.0974198 0.995239 -0.00284153)
(0.342571 0.939492 -0.000629503)
(0.215049 0.976449 -0.0173466)
(0.266836 0.963672 -0.0116259)
(0.0961139 0.995355 -0.00545641)
(0.342619 0.939472 -0.00207225)
(0.214964 0.976616 0.00350266)
(0.0966976 0.995297 -0.00582214)
(0.341813 0.939642 -0.0153599)
(0.398999 0.916949 0.00215839)
(0.397894 0.917159 -0.0223677)
(0.52038 0.853772 -0.0166499)
(0.580802 0.813985 -0.00988187)
(0.519623 0.854325 -0.0110133)
(0.398254 0.916974 -0.0234935)
(0.397561 0.917573 0.00247164)
(0.519983 0.854108 -0.0108047)
(0.580881 0.813985 -0.00249846)
(0.520414 0.853764 -0.0160306)
(-0.22071 0.975314 0.00704873)
(-0.21905 0.975668 -0.00940196)
(-0.136012 0.990706 -0.00164049)
(0.00426748 0.999966 -0.00712383)
(0.00544535 0.999983 0.00209028)
(0.00566484 0.999978 0.00330509)
(-0.135689 0.99075 -0.00161713)
(0.00552505 0.999961 -0.00690899)
(-0.221355 0.975146 -0.00962903)
(-0.22036 0.975396 0.00658977)
(-0.219775 0.975516 -0.00827419)
(-0.219209 0.975655 0.00667701)
(0.00389527 0.999992 -4.35571e-05)
(-0.137602 0.990487 -0.00132269)
(0.004795 0.999965 -0.00682499)
(-0.22217 0.974996 0.00487372)
(-0.219018 0.97567 -0.00998927)
(0.00562056 0.999971 -0.00511482)
(-0.136839 0.990593 0.000246597)
(0.00535564 0.999981 0.00315544)
(0.398623 0.916806 -0.0238109)
(0.396451 0.918056 -0.000141801)
(0.518336 0.855074 -0.0132984)
(0.579553 0.814928 -0.00334237)
(0.518522 0.854867 -0.0183538)
(0.397522 0.917593 0.000406621)
(0.396167 0.917838 -0.0249795)
(0.519997 0.853997 -0.0171103)
(0.579731 0.814738 -0.0106663)
(0.518398 0.855049 -0.0124698)
(0.398631 0.916808 -0.0236078)
(0.397081 0.917782 0.00179125)
(0.519752 0.854247 -0.0108961)
(0.581109 0.813822 -0.00249884)
(0.52006 0.853974 -0.0163161)
(0.398059 0.917357 0.00223541)
(0.397049 0.917506 -0.0231405)
(0.52092 0.853442 -0.0167105)
(0.581174 0.813718 -0.0100302)
(0.51975 0.854245 -0.0111526)
(-0.221421 0.975139 -0.00871964)
(-0.220289 0.975411 0.00685901)
(-0.136529 0.990635 -0.00149537)
(0.00445216 0.999989 0.00164717)
(0.00500515 0.999965 -0.00667928)
(0.00460639 0.999972 -0.00590441)
(-0.136406 0.990653 -0.000708803)
(0.0052054 0.999982 0.00286652)
(-0.222234 0.974976 0.00588133)
(-0.219648 0.975532 -0.00964389)
(0.214857 0.976509 -0.0163474)
(0.0960592 0.995371 -0.00303206)
(0.267139 0.963613 -0.0093061)
(0.343164 0.939275 0.000265126)
(0.214863 0.976628 0.00558128)
(0.0961725 0.995353 -0.00476336)
(0.342442 0.939436 -0.0139411)
(0.214645 0.976679 0.00513833)
(0.265584 0.964066 -0.00652493)
(0.0952641 0.995441 -0.00477561)
(0.342444 0.939422 -0.0147525)
(0.0960852 0.995368 -0.0031789)
(0.342573 0.939491 -0.000435393)
(0.214492 0.976581 -0.0167815)
(-0.22246 0.974919 0.0066413)
(-0.220472 0.975347 -0.00955045)
(-0.13671 0.99061 -0.00126458)
(0.00370936 0.99997 -0.00682233)
(0.00468347 0.999986 0.00227265)
(0.00459802 0.999986 0.00262737)
(-0.136549 0.990632 -0.00161729)
(0.00463566 0.999965 -0.00691714)
(-0.222544 0.974878 -0.00936539)
(-0.221586 0.975119 0.00659962)
(0.398723 0.917069 0.00227009)
(0.397595 0.91726 -0.0234982)
(0.521309 0.853165 -0.0185931)
(0.581835 0.813239 -0.0105198)
(0.520259 0.853918 -0.0124523)
(0.398467 0.916835 -0.0252647)
(0.397385 0.917651 0.00133651)
(0.5206 0.853728 -0.0111432)
(0.581866 0.81328 -0.00279516)
(0.520913 0.853441 -0.0170027)
(0.214174 0.976786 0.00431404)
(0.264736 0.964285 -0.0083415)
(0.09461 0.995501 -0.00514951)
(0.342176 0.939502 -0.0158522)
(0.21403 0.97667 -0.0174998)
(0.0954738 0.995425 -0.00373006)
(0.342313 0.939585 -0.00162761)
(0.21435 0.976603 -0.0173509)
(0.265829 0.963955 -0.0111836)
(0.0952314 0.995447 -0.00407942)
(0.342755 0.939424 -0.00116427)
(0.214311 0.976755 0.00445012)
(0.0954482 0.995419 -0.00556171)
(0.342008 0.939572 -0.0153137)
(0.39856 0.917141 -0.00131117)
(0.397481 0.917196 -0.0275667)
(0.522587 0.852259 -0.0235995)
(0.583209 0.812222 -0.0127318)
(0.52115 0.853286 -0.0175006)
(0.398491 0.916705 -0.0292744)
(0.397265 0.917701 -0.00237435)
(0.521341 0.853199 -0.0159822)
(0.583235 0.812288 -0.00490205)
(0.521965 0.852681 -0.0220669)
(-0.224859 0.974372 0.0061036)
(-0.222612 0.974855 -0.0100684)
(-0.138044 0.990425 -0.0014424)
(0.00158629 0.999971 -0.00738154)
(0.00290994 0.999994 0.00160837)
(0.00304695 0.999994 0.00174076)
(-0.137801 0.990458 -0.00189501)
(0.00282776 0.999966 -0.00769255)
(-0.225002 0.974311 -0.00959562)
(-0.224203 0.974523 0.00623167)
(-0.223433 0.974674 -0.00933705)
(-0.222415 0.974931 0.00645854)
(0.00379175 0.999991 0.00179458)
(-0.137096 0.990556 -0.00171689)
(0.00395057 0.999966 -0.00725119)
(-0.22374 0.97463 0.00605685)
(-0.221323 0.97515 -0.00989087)
(0.00300686 0.999972 -0.00683921)
(-0.137184 0.990545 -0.00117762)
(0.00404758 0.99999 0.00211003)
(0.398535 0.916746 -0.0273158)
(0.397235 0.917717 -0.00068548)
(0.520774 0.853589 -0.0134169)
(0.582422 0.812878 -0.00381853)
(0.521227 0.853196 -0.0194854)
(0.398422 0.917202 0.000536848)
(0.397367 0.917301 -0.0256621)
(0.521922 0.852731 -0.0211641)
(0.582437 0.812792 -0.0116469)
(0.520625 0.853654 -0.0149691)
(0.39881 0.916596 -0.0283218)
(0.397408 0.917638 -0.0026208)
(0.52193 0.852799 -0.0180019)
(0.584118 0.811651 -0.00539316)
(0.52276 0.852158 -0.0234105)
(0.398567 0.917135 -0.00289568)
(0.397602 0.917115 -0.0285222)
(0.523494 0.851734 -0.0224317)
(0.584093 0.811585 -0.0128304)
(0.521879 0.852835 -0.0177267)
(-0.226595 0.973943 -0.00949682)
(-0.226381 0.97402 0.0060909)
(-0.139183 0.990265 -0.00204514)
(0.00160091 0.999998 0.00125715)
(0.0012243 0.999966 -0.00820002)
(0.000226572 0.999973 -0.00731459)
(-0.14003 0.990146 -0.00119529)
(0.0013447 0.999998 0.00124836)
(-0.226967 0.973885 0.00589242)
(-0.224437 0.974433 -0.0103693)
(0.211916 0.977128 -0.0177054)
(0.0917555 0.99577 -0.00489309)
(0.260287 0.965487 -0.00923048)
(0.342147 0.939644 -0.00216407)
(0.211905 0.977284 0.00352509)
(0.0916789 0.995771 -0.00600454)
(0.341125 0.939892 -0.0153821)
(0.211695 0.977319 0.00563837)
(0.255825 0.966711 -0.0048784)
(0.0909011 0.995854 -0.00337517)
(0.341517 0.939808 -0.0112934)
(0.0917767 0.995774 -0.00331124)
(0.341917 0.939729 0.00101882)
(0.21167 0.977229 -0.0148165)
(-0.229045 0.973396 0.00621052)
(-0.226036 0.974065 -0.0102099)
(-0.00188705 0.999978 -0.00634505)
(-0.000551655 0.999999 0.00151909)
(0.000525032 0.999999 0.00135077)
(-0.00060057 0.999966 -0.00821359)
(-0.228058 0.973609 -0.00865611)
(-0.228608 0.973495 0.00675955)
(0.399129 0.916895 -0.000799993)
(0.398435 0.916903 -0.0232175)
(0.524513 0.851376 -0.00673428)
(0.585078 0.810932 -0.00852949)
(0.523012 0.852294 -0.00733429)
(0.400102 0.916335 -0.0157546)
(0.398403 0.917199 0.00469775)
(0.52289 0.852274 -0.0146628)
(0.585154 0.810918 -0.00261623)
(0.523866 0.851629 -0.017123)
(0.212739 0.976944 0.0179729)
(0.253625 0.967013 0.0236793)
(0.0929376 0.995638 0.00816782)
(0.344625 0.938643 0.0135358)
(0.213681 0.976903 0.00103122)
(0.0925704 0.995695 0.00481476)
(0.344437 0.938591 0.0202521)
(0.212186 0.977182 -0.00962349)
(0.259692 0.965589 0.0140978)
(0.0910196 0.995849 -0.000914117)
(0.343248 0.939217 0.00724016)
(0.21169 0.977289 0.00968281)
(0.0915078 0.995804 -0.000492974)
(0.342548 0.939496 -0.00289975)
(0.406489 0.910102 0.0805019)
(0.404845 0.906758 0.117857)
(0.483601 0.815494 0.31796)
(0.582332 0.81012 0.0677956)
(0.508339 0.831876 0.222651)
(0.393061 0.872782 0.289403)
(0.405628 0.897206 0.174607)
(0.522989 0.846355 0.100832)
(0.584326 0.809674 0.0546821)
(0.516325 0.843753 0.146591)
(-0.229802 0.973119 0.0151875)
(-0.222548 0.974921 -0.00123456)
(0.0114041 0.999885 0.00995649)
(0.00595428 0.999864 0.0153604)
(0.000454316 0.999948 0.0102249)
(0.00248391 0.999995 0.0019006)
(-0.21631 0.976281 0.00926775)
(-0.225135 0.974083 0.0218302)
(-0.22645 0.974013 -0.00446226)
(-0.229195 0.97333 0.009883)
(-0.00133307 0.999994 0.00309037)
(-0.00195452 0.99998 -0.00600759)
(-0.231175 0.97288 0.00796356)
(-0.226911 0.973878 -0.00853594)
(-0.00094629 0.999999 -0.00120334)
(-0.000814364 0.999988 0.00481464)
(0.403934 0.913971 0.0386439)
(0.401767 0.914936 0.0384186)
(0.524362 0.851453 0.00849944)
(0.58597 0.810263 0.010621)
(0.524755 0.851097 0.0163015)
(0.401094 0.915912 0.0151118)
(0.401131 0.91601 0.00437701)
(0.523507 0.849948 0.0594044)
(0.58571 0.810467 0.00935935)
(0.524159 0.850679 0.0400184)
(0.111271 0.325272 0.939051)
(0.256827 0.581081 0.77226)
(0.450517 0.768501 0.454359)
(0.558712 0.803817 0.204253)
(0.375454 0.70266 0.604403)
(0.390178 0.838834 0.379629)
(0.282386 0.662251 0.694033)
(0.202601 0.525764 0.826151)
(0.536212 0.798103 0.274787)
(0.295308 0.607006 0.737792)
(0.118581 0.704094 -0.700136)
(-0.210622 0.977568 0.000461899)
(0.0163758 0.999586 0.0236521)
(0.035178 0.999086 -0.0242954)
(0.142844 0.947062 -0.287523)
(0.0518457 0.99802 -0.0356185)
(-0.222215 0.974285 0.0372726)
(-0.204101 0.978877 -0.0119011)
(0.366259 0.831644 -0.417399)
(-0.208429 -0.619421 0.756885)
(-0.0731101 -0.0567535 0.995708)
(-0.00379558 0.155728 0.987793)
(0.324773 0.944474 0.0499043)
(-0.208279 -0.557552 0.803589)
(-0.0628171 -0.0190799 0.997843)
(0.336576 0.937226 -0.0912337)
(0.190257 0.936074 -0.295919)
(0.445743 0.894231 0.0407792)
(0.367244 0.503185 0.782264)
(0.117487 0.191457 0.974444)
(0.38862 0.597095 0.701749)
(0.389358 0.914617 -0.108978)
(-0.0494855 -0.0621903 0.996837)
(0.17184 0.844275 -0.507612)
(-0.0459624 -0.0492584 0.997728)
(-0.180025 -0.596345 0.782281)
(-0.192472 -0.519414 0.832564)
(0.226224 0.926582 -0.300447)
(0.192914 0.914237 -0.356308)
(0.234067 0.881615 -0.409839)
(-0.0899462 -0.542574 0.835179)
(0.0980165 0.279262 0.955199)
(-0.0261097 0.0658444 0.997488)
(0.340503 0.478386 0.809447)
(0.0364687 0.117534 0.992399)
(-0.0326823 0.00847791 0.99943)
(0.153668 0.439043 0.885227)
(0.363477 0.629505 0.686737)
(0.0956181 0.28561 0.953564)
(0.336179 0.94157 -0.0207084)
(0.325837 0.9454 -0.00697937)
(0.288214 0.95752 -0.0093684)
(0.272932 0.961946 -0.0129877)
(0.316471 0.948493 0.014365)
(0.279513 0.960089 -0.0100895)
(0.267632 0.963349 -0.01823)
(0.247168 0.968778 -0.0194044)
(0.312673 0.949222 -0.0348384)
(0.269871 0.962896 -0.000113821)
(0.250145 0.968207 0.00180332)
(0.31373 0.949307 0.019764)
(0.249516 0.968246 -0.0155353)
(0.273551 0.961798 -0.0106623)
(0.267789 0.963268 -0.0200811)
(0.266747 0.963766 -0.000645189)
(0.248814 0.968526 0.0069814)
(0.31351 0.9492 -0.0270505)
(0.306917 0.951001 -0.037412)
(0.256877 0.966354 -0.0131969)
(0.265616 0.964078 0.00131191)
(0.245734 0.969336 0.00146129)
(0.307556 0.951475 0.0102334)
(0.262216 0.96475 -0.0223851)
(0.242492 0.969872 -0.023366)
(0.313438 0.949104 -0.03096)
(0.247041 0.968979 0.00711379)
(0.272056 0.962249 -0.00795612)
(0.266389 0.963856 0.0042245)
(0.312567 0.949692 0.0196917)
(0.265525 0.963954 -0.0169901)
(0.246136 0.969082 -0.0172219)
(0.100952 0.994886 -0.00312288)
(0.0112829 0.999928 -0.00408254)
(0.100671 0.994897 -0.00666383)
(0.0117073 0.999926 -0.00330799)
(0.101141 0.994853 -0.00618245)
(0.01204 0.999925 -0.00217285)
(0.101344 0.994849 -0.0023955)
(0.0120013 0.999922 -0.00357752)
(0.312122 0.949845 0.0193374)
(0.269442 0.962984 -0.0079582)
(0.264757 0.964126 -0.019102)
(0.245142 0.969351 -0.0162403)
(0.311193 0.949874 -0.0299769)
(0.263953 0.964535 0.0010299)
(0.245058 0.969481 0.00736361)
(0.312575 0.949677 0.0202552)
(0.245215 0.969343 -0.0156092)
(0.270077 0.962806 -0.00794681)
(0.264757 0.964132 -0.0188109)
(0.2641 0.964494 0.00138476)
(0.24508 0.969471 0.00786721)
(0.311547 0.949788 -0.029019)
(0.100576 0.994908 -0.00646385)
(0.0112298 0.99993 -0.00371268)
(0.100617 0.994919 -0.00338615)
(0.0114469 0.999927 -0.00381309)
(0.100604 0.994923 -0.00274612)
(0.0112683 0.999932 -0.00290878)
(0.0115005 0.999931 -0.00250693)
(0.100496 0.994919 -0.00598078)
(0.312425 0.949399 -0.0321247)
(0.270044 0.962814 -0.00811845)
(0.265164 0.964196 0.00366577)
(0.245696 0.969327 0.00621295)
(0.311238 0.950161 0.018)
(0.264483 0.96423 -0.0176034)
(0.244979 0.969363 -0.0179249)
(0.311398 0.949664 -0.0342083)
(0.243565 0.969871 0.00504959)
(0.266759 0.963696 -0.0114185)
(0.263547 0.964646 0.00131008)
(0.310444 0.950436 0.0172107)
(0.262689 0.964659 -0.0206659)
(0.242498 0.969949 -0.0198574)
(0.310488 0.950421 0.0172552)
(0.264381 0.964337 -0.0124889)
(0.261653 0.964883 -0.0232034)
(0.241273 0.970275 -0.0187983)
(0.309491 0.950346 -0.0325339)
(0.261289 0.965257 -0.00275014)
(0.241836 0.970303 0.00522371)
(0.309613 0.950706 0.0172601)
(0.23909 0.970814 -0.0188537)
(0.261235 0.965196 -0.0123868)
(0.259952 0.965355 -0.0226828)
(0.260022 0.9656 -0.00222228)
(0.240163 0.970717 0.00542224)
(0.308632 0.950617 -0.0327554)
(0.310516 0.949898 -0.0356919)
(0.264453 0.964312 -0.0128995)
(0.262417 0.964954 0.000273465)
(0.2421 0.970241 0.00437556)
(0.309558 0.950739 0.0163748)
(0.261301 0.965003 -0.0221755)
(0.240631 0.970389 -0.0210387)
(0.314208 0.949337 -0.00573615)
(0.240227 0.969766 0.0429567)
(0.263331 0.960612 0.0887728)
(0.265804 0.960983 0.0765509)
(0.312716 0.94839 0.0525799)
(0.260796 0.963688 0.0573698)
(0.236757 0.971469 0.0139584)
(0.320116 0.940688 0.112389)
(0.231701 0.764943 0.60098)
(0.249435 0.883514 0.396466)
(0.244906 0.962316 0.118195)
(0.3213 0.945401 0.0546222)
(0.270213 0.907573 0.321397)
(0.24832 0.958273 0.141596)
(0.0380849 0.225258 0.973555)
(-0.0806303 -0.0891913 0.992746)
(-0.00810217 0.0216055 0.999734)
(-0.0140078 0.0407634 0.999071)
(0.0221809 0.0858456 0.996062)
(-0.057582 -0.0234714 0.998065)
(-0.123617 -0.124341 0.984509)
(0.328461 0.942084 0.0677616)
(0.0975562 0.226208 0.969181)
(0.244333 0.739341 0.627436)
(0.249891 0.933638 0.25666)
(0.32368 0.93294 0.157649)
(0.162197 0.557604 0.814107)
(0.240834 0.930759 0.275113)
(0.352908 0.935456 -0.0194457)
(0.331994 0.942623 -0.0352517)
(0.33364 0.94268 0.00630994)
(0.337087 0.94134 -0.0158371)
(0.306497 0.951766 -0.0141649)
(0.311613 0.950207 0.00191106)
(0.329827 0.942889 -0.0466272)
(0.324843 0.945768 -0.00041801)
(0.32405 0.945967 0.0117586)
(0.318112 0.947237 -0.0393335)
(0.308791 0.951037 -0.013288)
(0.313458 0.949593 0.00423757)
(0.300299 0.953844 0.0017854)
(0.307212 0.951494 -0.0167123)
(0.316644 0.948068 -0.0300773)
(0.250484 0.968096 0.00692555)
(0.279689 0.960046 -0.00923474)
(0.269407 0.963021 0.00319879)
(0.315436 0.948718 0.0208386)
(0.250285 0.968025 -0.0169075)
(0.269196 0.96293 -0.0173079)
(0.312658 0.949711 0.0171634)
(0.270881 0.962563 -0.00977142)
(0.245889 0.969132 -0.0179343)
(0.26563 0.963854 -0.020634)
(0.246421 0.969148 0.0054089)
(0.265246 0.96418 -0.000808079)
(0.31155 0.949691 -0.0320066)
(0.309527 0.950881 0.00429213)
(0.313488 0.949492 -0.0137838)
(0.30476 0.952335 -0.0134133)
(0.308836 0.951105 0.00437664)
(0.333082 0.942866 0.00773697)
(0.331768 0.942581 -0.038356)
(0.328935 0.943298 -0.0446062)
(0.326895 0.945058 0.00226343)
(0.313382 0.949413 0.0201485)
(0.272391 0.962145 -0.0089101)
(0.246726 0.968962 -0.0154285)
(0.265856 0.963827 -0.0189327)
(0.312357 0.94954 -0.0284239)
(0.246572 0.969096 0.00746756)
(0.265278 0.964172 0.000713598)
(0.101124 0.994848 -0.00718514)
(0.0111996 0.999923 -0.00531737)
(0.101308 0.994844 -0.00471505)
(0.0114554 0.999925 -0.00430117)
(0.312139 0.949433 -0.0338596)
(0.270249 0.962736 -0.0102643)
(0.246666 0.969091 0.00427411)
(0.265968 0.96398 0.00169488)
(0.311021 0.950277 0.0154903)
(0.245473 0.969205 -0.0196348)
(0.264886 0.96408 -0.0196128)
(0.101268 0.994855 -0.0027055)
(0.0120215 0.999926 -0.00204453)
(0.101334 0.994837 -0.00558767)
(0.0118744 0.999927 -0.00202138)
(0.329493 0.944082 0.0119673)
(0.326842 0.944354 -0.037011)
(0.327856 0.943732 -0.0433602)
(0.325189 0.945635 0.00510912)
(0.304922 0.952363 0.00527898)
(0.30984 0.950698 -0.0131199)
(0.303688 0.952693 -0.0122649)
(0.308427 0.951231 0.00575739)
(0.305554 0.952096 -0.0122171)
(0.310674 0.950501 0.0054381)
(0.30368 0.952767 0.00360413)
(0.310223 0.950553 -0.0145133)
(0.328754 0.943356 -0.0447193)
(0.325357 0.945586 0.00301552)
(0.327679 0.944736 0.00999032)
(0.324198 0.945174 -0.0392617)
(0.327937 0.943663 -0.0442368)
(0.324861 0.945749 0.0049864)
(0.327867 0.944633 0.0130924)
(0.324875 0.945041 -0.0368013)
(0.303913 0.952624 -0.0120238)
(0.30893 0.951066 0.00597312)
(0.303497 0.952819 0.00499902)
(0.309238 0.950892 -0.013283)
(0.312533 0.94938 -0.0316244)
(0.245499 0.969372 0.00694229)
(0.269568 0.962948 -0.00802619)
(0.265102 0.964211 0.00417232)
(0.311601 0.95002 0.0191522)
(0.24467 0.969447 -0.0175727)
(0.26433 0.964276 -0.0173558)
(0.100089 0.994973 -0.00332835)
(0.0105292 0.999937 -0.00386829)
(0.0109087 0.999935 -0.00318373)
(0.0998203 0.994982 -0.00683868)
(0.100227 0.994943 -0.00648471)
(0.011118 0.999934 -0.00289649)
(0.100422 0.994941 -0.00291262)
(0.011097 0.999931 -0.00380433)
(0.31181 0.949952 0.0191239)
(0.268375 0.96327 -0.00922113)
(0.244101 0.969604 -0.0168209)
(0.263939 0.964327 -0.0202591)
(0.244096 0.969726 0.00693017)
(0.263161 0.964752 7.12386e-05)
(0.31082 0.949982 -0.0304143)
(0.30353 0.952807 0.00536203)
(0.308579 0.951107 -0.0131857)
(0.302953 0.952918 -0.0128763)
(0.307686 0.951473 0.00529311)
(0.328317 0.94448 0.0129062)
(0.325412 0.944827 -0.0375391)
(0.327236 0.943774 -0.0469872)
(0.324415 0.945911 0.00280984)
(0.311436 0.950089 0.0183701)
(0.267283 0.963557 -0.0108599)
(0.243129 0.969833 -0.0176799)
(0.263134 0.964515 -0.0216986)
(0.3104 0.950093 -0.0312335)
(0.243224 0.969951 0.00614498)
(0.262468 0.96494 -0.00130764)
(0.099484 0.995013 -0.0072655)
(0.0103756 0.999939 -0.00380226)
(0.0997001 0.99501 -0.00386285)
(0.0104094 0.999936 -0.00438218)
(0.311891 0.94954 -0.0331305)
(0.268206 0.963311 -0.00987407)
(0.24457 0.969615 0.00570708)
(0.264301 0.964437 0.00252195)
(0.310858 0.950291 0.0177606)
(0.243624 0.969685 -0.0189019)
(0.263521 0.964463 -0.0191914)
(0.327059 0.944974 0.00749223)
(0.324126 0.944953 -0.0447858)
(0.325607 0.94392 -0.0547366)
(0.322534 0.946554 -0.00276947)
(0.301587 0.953431 0.00381153)
(0.306879 0.951631 -0.014962)
(0.300939 0.953533 -0.0145197)
(0.305073 0.952321 0.00380927)
(0.302141 0.953166 -0.0136403)
(0.306907 0.951729 0.00457281)
(0.302495 0.953141 0.00443859)
(0.30796 0.951294 -0.0141686)
(0.326628 0.943784 -0.0508542)
(0.323718 0.946154 -0.000164062)
(0.327508 0.944793 0.0102338)
(0.324576 0.944968 -0.0410563)
(0.324347 0.944335 -0.0550529)
(0.320981 0.947085 -0.000767674)
(0.326001 0.945352 0.00574319)
(0.323186 0.945099 -0.0483668)
(0.299339 0.954032 -0.0147972)
(0.302946 0.953001 0.00368512)
(0.299824 0.953989 0.00315257)
(0.305393 0.952094 -0.0158862)
(0.309764 0.950142 -0.0357272)
(0.240325 0.970678 0.00534112)
(0.261856 0.965041 -0.0112681)
(0.261261 0.965266 0.0021773)
(0.308823 0.950962 0.0173284)
(0.23836 0.970955 -0.0207423)
(0.259742 0.965456 -0.0206908)
(0.309196 0.950751 0.0216907)
(0.25727 0.96633 -0.00427667)
(0.236393 0.971549 -0.0145195)
(0.258239 0.965984 -0.0137224)
(0.238246 0.971151 0.0102363)
(0.259179 0.965808 0.00646629)
(0.308268 0.950867 -0.0286917)
(0.297612 0.95468 0.00349193)
(0.303326 0.952754 -0.0159221)
(0.296879 0.954837 -0.0122573)
(0.299654 0.954025 0.00657031)
(0.324883 0.945689 0.0111003)
(0.322325 0.945508 -0.0460568)
(0.32305 0.945681 -0.0364172)
(0.31917 0.947431 0.0224518)
(0.311482 0.949354 0.0413049)
(0.255782 0.965959 0.0387239)
(0.235898 0.97176 0.00585081)
(0.259129 0.965395 0.0294155)
(0.31092 0.950382 -0.0101157)