/*--------------------------------*- C++ -*----------------------------------*\
| =========                 |                                                 |
| \\      /  F ield         | OpenFOAM: The Open Source CFD Toolbox           |
|  \\    /   O peration     | Version:  2012                                  |
|   \\  /    A nd           | Website:  www.openfoam.com                      |
|    \\/     M anipulation  |                                                 |
\*---------------------------------------------------------------------------*/
FoamFile
{
    version     2.0;
    format      ascii;
    class       volScalarField;
    location    "0.104/solid";
    object      sigmaEq;
}
// * * * * * * * * * * * * * * * * * * * * * * * * * * * * * * * * * * * * * //

dimensions      [1 -1 -2 0 0 0 0];


internalField   nonuniform List<scalar> 
3125
(
1018.36
1000.42
966.955
962.503
928.819
921.488
835.183
803.489
985.159
978.525
950.555
945.82
892.869
880.994
1027.15
962.115
985.35
240.338
965.751
229.685
944.784
967.32
992.131
966.107
237.36
937.586
221.199
970.932
916.486
219.173
920.003
217.039
912.487
958.557
218.683
909.202
211.034
935.187
883.241
207.003
888.893
199.105
876.802
913.12
206.134
869.453
159.559
853.718
815.242
190.144
823.979
532.329
808.514
746.189
210.112
818.43
1087.53
681.285
1077.45
1069.3
670.889
668.096
229.434
990.061
932.954
224.96
937.269
659.818
668.596
1064.87
1070.73
221.448
974.076
926.289
223.931
922.398
1050.33
1055.36
648.512
653.015
656.528
653.702
1061.44
1056.12
1048.56
1044.01
646.85
643.814
216.764
954.798
902.365
214.78
906.085
638.589
642.722
1037.24
1042.7
211.628
940.753
898.198
214.312
893.775
1018.37
1026.77
622.983
630.005
636.914
631.98
1035.44
1028.97
1015.48
1004.66
620.034
197.66
903.604
852.119
184.612
861.252
988.339
1001.03
161.795
868.068
842.586
182.146
832.831
970.675
971.476
984.595
973.505
975.085
1024.92
606.82
1029.47
1085.08
929.915
1046.47
986.199
251.104
756.628
714.416
980.973
247.282
740.154
698.262
969.616
751.178
709.328
944.827
678.622
230.488
719.702
715.237
676.122
947.49
947.772
231.543
723.787
685.99
955.841
715.822
678.205
932.115
667.388
219.699
710.127
933.163
708.262
666.248
929.827
219.151
705.801
663.565
928.371
706.181
664.63
922.172
658.691
216.594
700.813
700.002
658.774
921.697
924.054
216.964
703.645
661.697
925.82
701.173
659.945
902.563
646.618
208.72
688.212
904.642
685.51
644.57
899.317
207.863
682.596
640.946
897.605
682.916
642.286
887.059
630.099
201.441
672.895
673.729
632.346
884.623
891.285
202.83
680.233
638.466
894.056
677.082
635.644
832.379
575.576
159.01
647.015
838.955
645.069
564.586
823.247
159.383
644.682
537.576
815.001
642.885
550.567
775.898
519.181
352.17
740.79
698.373
507.142
773.884
793.601
309.046
656.847
524.707
803.709
671.021
514.102
605.991
411.795
1095.92
414.604
592.5
604.162
1097.81
411.203
548.855
694.023
624.7
641.372
703.349
646.304
535.981
542.203
578.563
574.366
407.346
1070.74
404.003
583.93
573.047
399.094
1068.84
401.191
520.84
522.679
666.31
619.551
610.32
612.415
665.971
609.772
531.39
523.461
949.35
680.287
227.4
723.7
948.932
680.066
723.362
946.256
226.196
674.704
717.518
677.6
720.031
943.029
519.583
517.961
663.606
603.847
608.211
612.112
667.03
610.357
513.247
515.289
582.08
580.886
396.996
1068.05
399.169
576.427
579.553
399.892
1070.18
398.882
933.883
221.028
667.677
710.059
934.162
667.158
708.402
935.792
221.428
671.015
712.709
938.504
668.332
709.286
571.687
568.528
389.199
1051.99
390.855
567.353
567.83
391.75
1053.63
391.174
506.371
505.128
650.099
593.418
594.934
597.808
651.817
596.039
503.057
503.805
507.231
507.716
601.927
654.629
598.593
511.369
508.538
598.315
653.717
597.918
570.989
569.196
395.489
1058.3
394.352
574.311
568.892
391.855
1056.88
393.473
563.536
562.595
388.447
1046.44
387.803
566.683
562.631
385.823
1045.13
387.307
499.101
499.388
645.532
592.313
590.159
589.148
644.434
589.389
501.925
500.253
918.558
657.765
215.177
699.868
919.996
656.352
697.661
916.308
214.685
654.137
695.921
654.85
695.82
915.21
498.175
496.839
639.915
584.403
585.528
588.433
641.457
586.529
494.947
495.625
563.559
559.917
382.659
1038.87
384.382
559.45
559.406
385.406
1040.58
384.86
908.435
211.764
648.301
689.956
907.318
649.017
689.79
910.976
212.393
652.524
694.192
912.794
650.712
691.698
554.412
549.924
373.416
1021.1
375.684
548.543
549.299
377.668
1023.7
376.544
487.832
485.497
625.312
570.085
572.467
577.093
627.86
574.102
481.556
483.527
489.381
490.388
583.282
635.253
580.838
493.65
491.786
578.353
633.455
579.625
554.589
554.616
381.937
1032.92
381.08
559.107
554.963
378.493
1030.95
380.419
540.904
542.427
372.224
1011.62
370.651
548.256
543.091
366.83
1008.22
369.48
468.442
472.647
616.801
568.215
563.74
556.831
613.419
561.225
479.336
475.487
876.388
626.522
192.271
670.028
880.092
622.414
666.335
870.885
189.884
613.109
660.448
617.286
661.949
867.38
465.037
457.892
533.682
542.729
554.106
546.664
443.829
453.142
540.809
535.093
359.266
992.355
362.061
532.214
534.35
365.328
996.475
363.289
850.218
169.503
584.837
647.285
845.277
592.497
648.931
856.95
173.548
607.436
657.64
861.831
600.868
653.741
531.602
534.012
378.72
968.84
366.692
552.369
538.309
356.398
970.144
358.818
380.632
345.756
399.587
437.229
479.906
451.278
280.298
328.112
391.94
414.202
528.789
514.87
438.063
422.659
489.065
507.694
527.597
528.07
357.921
980.286
356.045
532.983
527.94
354.847
976.399
356.014
782.301
649.619
400.338
985.247
440.467
568.904
618.672
649.746
998.771
506.921
243.948
199.571
382.941
346.768
326.431
329.711
257.808
218.693
865.837
555.295
742.943
835.563
797.528
616.199
909.847
941.008
606.076
961.416
1414.04
1034.85
1145.01
967.461
744.278
541.705
1027.57
249.254
264.857
379.799
323.585
351.6
273.02
863.61
1023.95
1408.47
1037.37
1009.93
831.285
1204.61
965.21
659.527
254.422
344.587
376.971
645.394
242.173
333.6
364.445
639.145
334.328
366.452
621.542
351.649
228.952
321.678
319.962
350.508
624.392
624.042
234.111
326.731
360.554
630.503
323.736
356.789
613.312
341.465
220.115
314.002
614.122
312.817
340.103
1017.98
862.692
1015.99
864.415
1020.05
867.636
1021.25
866.444
609.555
218.578
311.762
338.919
609.81
310.456
338.065
604.961
336.054
216.269
309.256
307.732
334.999
605.788
1011.6
860.404
1013.59
858.515
1009.77
856.659
857.129
1008.62
607.175
217.409
310.722
338.176
608.675
309.24
336.619
593.612
328.172
209.707
302.331
594.93
300.977
326.53
588.849
206.752
298.778
323.34
589.085
297.474
322.88
579.723
313.815
199.389
291.745
290.773
314.067
579.48
586.149
204.529
297.455
322.115
587.762
295.956
320.117
542.586
259.754
158.888
264.994
547.037
262.04
252.032
535.121
173.909
279.92
230.966
532.08
271.87
233.317
607.947
455.482
463.226
577.995
511.199
406.665
641.063
540.712
239.035
299.035
240.244
539.147
314.564
246.143
278.395
266.031
269.126
418.658
403.024
405.098
258.902
255.566
259.142
255.079
389.641
388.867
398.208
394.746
626.55
351.237
228.207
322.54
626.183
349.741
321.443
620.494
224.821
346.32
318.229
345.986
317.288
619.684
389.389
388.057
383.31
383.265
260.972
261.251
257.538
257.058
613.009
220.597
341.855
314.277
614.296
340.728
312.635
1024.49
871.334
1027.36
868.52
614.893
222.257
344.978
316.061
617.223
343.002
314.287
1022.66
867.923
1022.22
867.43
255.218
254.298
253.229
252.005
378.072
376.962
375.155
374.554
378.521
377.623
381.814
380.04
255.016
252.897
255.503
253.515
251.55
249.818
252.433
250.951
372.093
371.27
374.365
373.064
604.086
335.557
215.621
308.683
605.187
334.17
307.413
1003.23
850.857
852.121
1001.5
1005.33
855.492
1006.96
853.956
600.786
214.172
333.076
306.673
332.192
305.262
601.268
371.544
370.402
368.769
368.15
251.342
250.127
249.704
248.224
595.455
211.088
329.035
303.314
595.974
328.252
301.905
997.104
848.874
999.187
846.893
598.956
213.05
332.327
305.748
600.281
330.788
304.392
247.104
245.924
244.925
243.204
363.358
361.969
357.906
357.752
364.316
363.781
367.97
366.665
247.572
245.92
249.176
247.891
241.637
239.697
244.303
243.181
347.032
347.663
356.558
354.763
575.798
311.997
195.536
290.107
577.956
309.182
288.179
566.788
185.894
296.353
280.281
298.223
280.03
565.59
344.932
342.264
326.429
328.916
241.092
240.119
238.652
236.176
549.633
163.371
263.578
264.394
546.737
268.68
264.983
561.069
179.274
293.488
278.606
564.247
288.816
275.789
249.781
254.098
316.512
294.809
278.54
270.335
225.3
229.623
285.104
291.457
322.771
318.077
244.852
239.63
239.008
238.771
696.527
614.669
342.303
372.705
410.613
356.213
224.061
231.384
740.975
512.896
677.193
654.094
675.964
572.858
741.355
823.14
797.673
795.686
859.848
810.207
584.312
764.036
619.673
916.548
939.025
911.637
1175.52
850.917
1003.05
1031.44
455.147
510.861
789.553
883.181
876.884
925.761
847.979
790.068
758.967
836.442
805.885
910.11
889.719
815.794
663.627
251.995
345.28
376.091
663.38
345.191
376.661
652.532
243.697
340.647
374.022
658.447
338.204
369.956
619.054
229.253
319.82
351.946
618.271
318.831
350.303
619.546
232.211
319.968
353.491
618.211
320.168
354.098
612.176
219.492
312.243
340.24
611.931
311.539
339.636
609.836
218.297
311.07
339.559
610.712
310.295
338.321
604.648
215.903
307.825
336.093
605.008
307.174
334.992
605.843
216.706
308.482
336.658
605.692
307.796
336.036
592.057
208.823
299.859
326
591.544
299.299
325.741
589.192
206.791
298.362
324.901
590.074
297.566
323.385
580.28
199.97
292.362
317.146
581.624
291.235
315.029
584.395
203.321
294.31
318.746
583.478
294.016
319.008
543.362
157.147
262.059
241.429
537.955
262.967
248.901
531.714
167.597
264.843
239.235
537.637
263.617
230.807
586.786
410.504
413.594
323.229
568.415
456.433
355.508
551.762
267.468
369.622
284.792
555.777
340.719
266.627
277.339
275.687
265.281
561.718
275.857
195.756
263.78
200.171
274.275
566.626
278.704
268.102
196.449
451.499
175.291
172.919
453.499
696.033
1043.19
695.313
1045.25
451.161
176.864
173.878
447.739
698.951
1048.35
699.239
1047.03
272.044
268.845
260.715
272.933
558.081
197.603
273.878
195.947
258.849
259.778
200.437
277.715
562.667
277.614
261.442
195.649
450.703
173.146
167.155
451.819
450.726
699.397
1048.72
700.063
1047.78
548.296
482.1
520.475
416.475
418.217
516.492
545.916
480.389
480.154
520.607
624.84
621.19
623.941
628.235
629.78
629.152
626.517
412.456
408.702
463.742
537.93
508.094
466.547
511.479
516.942
473.099
542.018
470.366
513.695
254.213
255.133
250.255
263.883
538.872
194.214
265.132
188.31
252.88
249.435
191.103
264.074
536.802
264.467
250.064
188.608
442.441
175.83
170.661
441.938
689.592
1040.56
691.017
1037.61
443.075
176.047
446.861
170.387
687.238
1034.11
686.462
1035.85
252.583
252.601
248.795
270.115
540.56
193.81
269.258
251.754
187.335
247.397
190.728
265.812
536.38
266.869
246.993
186.29
440.689
175.956
171.703
441.208
684.596
1029.59
683.437
1030.24
440.09
176.439
170.84
440.755
683.866
1032.82
686.157
1030.78
449.538
520.213
492.938
449.485
494.34
390.158
389.064
496.005
520.654
451.557
449.822
494.958
618.054
620.863
616.79
615.716
608.991
608.604
611.769
612.237
391.408
391.834
458.953
528.048
505.415
456.14
502.499
498.261
451.849
525.497
453.752
500.172
626.203
227.44
349.669
321.136
625.917
349.296
320.548
621.999
224.874
348.595
319.016
623.801
346.844
317.931
448.715
492.228
518.684
447.556
491.159
387.211
387.419
488.491
517.291
446.636
446.563
490.6
599.564
598.184
600.085
601.97
605.125
606.267
603.897
602.446
385.706
384.154
441.537
513.056
484.66
441.874
486.386
488.125
444.241
514.826
443.21
486.734
259.642
259.108
255.161
265.054
195.843
544.299
255.521
264.955
192.883
253.261
195.729
263.426
543.629
265.554
254.946
192.166
439.727
179.133
174.86
441.187
680.76
1023.5
680.041
1024.7
439.372
178.47
174.439
438.402
681.507
1027.23
682.743
1025.54
257.237
256.289
252.019
262.331
539.212
194.751
263.075
190.717
252.7
250.846
195.127
264.227
540.264
264.553
252.321
190.968
441.346
178.666
174.208
440.695
683.58
1029.5
684.711
1028.41
441.415
177.543
441.363
174.419
683.814
1027.79
683.356
1028.38
612.265
220.287
341.802
312.516
612.314
340.641
311.869
613.011
221.308
342.519
313.02
612.794
342.058
312.39
252.57
252.191
249.304
259.311
533.128
193.223
259.351
188.979
250.733
247.311
191.962
257.978
531.668
259.469
248.549
188.219
432.335
177.995
173.389
433.38
670.132
1009.5
669.585
1010.28
432
177.194
172.903
431.709
670.361
1012.2
671.574
1010.75
251.505
250.928
247.492
257.317
529.702
191.989
257.8
187.409
248.664
246.018
191.481
258.038
529.741
258.777
247.56
187.599
433.844
177.883
173.451
433.27
672.776
1015.07
673.852
1013.78
433.786
177.718
173.432
434.734
672.38
1012.82
671.993
1013.46
435.401
505.513
478.175
434.619
477.767
376.566
376.371
476.177
504.743
434.227
434.022
477.337
586.932
586.264
614.295
732.806
593.414
581.827
733.285
582.845
613.64
614.953
583.875
735.229
594.125
733.913
615.528
583.187
587.457
588.391
617.999
738.612
597.079
586.715
737.845
586.253
618.54
590.075
590.808
617.32
584.552
596.357
736.329
737.079
585.675
616.407
589.594
588.892
375.771
374.837
432.019
502.467
474.241
431.849
475.325
475.847
433.127
503.307
432.424
475.312
378.429
377.693
436.131
506.534
478.548
435.885
479.371
479.905
436.967
506.752
435.999
479.578
596.194
597.487
622.627
741.997
591.596
600.027
623.887
739.511
590.418
621.721
588.546
598.906
737.991
738.342
589.582
620.822
595.573
594.942
379.112
378.918
439.958
483.715
509.87
438.759
482.675
480.693
437.564
508.652
437.729
481.903
619.495
738.879
597.658
587.082
737.988
619.153
587.665
592.097
591.772
619.806
587.955
597.585
737.605
737.712
587.828
620.066
593.132
593.652
251.701
251.84
248.459
258.986
532.425
193.05
259.571
250.277
187.979
246.959
191.496
259.1
531.552
259.893
248.174
188.129
436.296
178.001
173.367
435.788
677.532
1022.47
678.916
1020.56
436.333
178.251
438.256
173.274
676.616
1018.84
676.058
1019.8
251.636
251.065
248.793
261.548
193.555
534.131
250.887
261.223
188.485
246.686
191.609
259.419
531.922
260.791
247.644
187.531
434.939
178.074
173.482
435.7
674.441
1015.47
673.803
1016.15
434.486
177.462
434.567
172.831
674.354
1018.17
675.854
1016.61
248.892
248.732
245.441
255.101
525.633
190.807
255.561
185.925
247.025
243.927
189.686
255.337
525.125
256.143
245.323
186.067
430.473
177.134
172.639
430.108
668.014
1008.82
669.139
1007.41
430.362
177.201
431.694
172.513
667.494
1006.44
667.144
1007.07
249.241
248.718
246.276
257.019
527.668
191.463
256.885
248.104
186.779
244.235
189.914
255.415
525.946
256.762
245.378
185.947
429.328
177.251
172.597
430.139
665.594
1003.25
665.016
1003.99
428.933
176.487
172.064
428.864
665.659
1005.92
666.917
1004.49
428.455
498.396
470.267
428.187
471.07
372.052
371.349
471.347
498.705
429.126
428.371
471.121
584.831
585.69
612.051
731.775
591.144
581.152
730.221
612.79
580.489
611.42
579.048
728.95
590.323
729.383
610.69
579.962
584.464
583.926
609.378
728.08
588.748
577.438
727.782
578.125
608.994
581.959
581.541
609.748
578.571
588.93
728.353
727.862
578.288
610.026
582.596
583.199
372.656
372.341
431.14
500.879
473.77
430.314
473.229
471.777
429.809
499.994
429.642
472.836
602.801
214.979
334.248
306.719
602.559
333.646
306.023
600.853
213.877
333.568
305.678
601.498
332.392
304.988
427.713
469.932
497.316
426.975
469.515
369.991
369.766
467.998
496.513
426.535
426.348
469.116
576.793
576.036
604.268
722.42
584.269
572.323
722.626
573.354
603.618
577.456
578.361
604.914
574.262
724.059
584.852
723.09
605.413
573.676
607.769
727.512
576.996
587.565
608.332
726.447
576.486
580.075
580.842
579.69
578.993
607.114
574.888
586.806
725.001
725.643
575.953
606.268
369.248
368.386
424.478
494.31
465.907
424.311
467.048
467.598
425.557
495.065
424.832
467.099
248.37
247.975
245.36
255.124
190.634
525.131
247.04
255.137
186.156
243.354
189.231
253.729
523.499
255.112
244.524
185.376
426.306
176.735
172.063
427.345
660.821
996.418
660.152
997.318
425.931
175.916
171.545
425.692
661.003
999.451
662.318
997.871
247.573
247.134
243.896
253.104
522.056
189.605
253.545
184.817
245.248
242.345
188.799
253.659
521.907
254.436
243.915
185.027
427.861
176.632
172.169
427.276
663.672
1002.73
664.827
1001.33
427.729
176.595
428.959
172.075
663.173
1000.1
662.702
1000.87
595.509
210.905
329.768
302.383
596.115
328.499
301.677
597.537
212.282
330.592
303.502
597.233
330.125
302.853
243.977
243.544
241.401
250.293
516.196
188.055
250.075
183.57
243.172
239.314
186.676
248.323
514.296
249.877
240.537
182.674
418.146
175.789
171.134
419.593
647.827
977.215
646.661
978.821
417.679
175.142
170.589
417.096
648.294
982.041
650.059
979.852
242.875
242.578
239.423
247.069
511.953
187.137
247.778
182.12
241.077
238.254
186.201
248.262
512.053
248.624
239.754
182.437
420.309
175.579
171.009
419.486
652.157
987.066
653.738
985.079
420.261
175.535
170.938
421.906
651.435
983.016
650.595
984.278
417.886
486.8
459.405
416.877
458.404
360.853
360.99
456.022
485.409
415.622
415.777
457.732
560.306
558.71
561.531
563.164
566.474
567.833
565.701
564.332
359.646
358.404
411.461
481.283
451.621
411.795
453.472
455.179
413.989
482.675
412.886
453.979
365.077
364.144
419.149
488.818
460.036
419.121
461.376
462.257
420.628
489.701
419.769
461.577
574.197
575.266
601.861
721.455
571.647
582.188
602.674
720.029
570.86
601.003
568.923
581.193
718.301
719.036
570.195
599.992
573.658
572.729
365.966
365.859
423.453
465.429
492.691
422.596
464.702
462.85
421.791
491.581
421.735
464.209
569.865
568.886
570.735
571.844
245.322
245.019
241.795
250.419
517.46
188.345
250.936
243.283
183.432
240.379
187.412
251.11
517.314
251.75
241.906
183.703
424.393
176.007
171.477
423.759
658.49
995.741
659.815
994.123
424.316
176.012
425.76
171.391
657.89
992.537
657.273
993.526
246.085
245.607
243.212
252.925
189.231
520.668
244.984
252.78
184.681
241.162
187.786
251.199
518.887
252.641
242.346
183.82
422.666
176.161
171.493
423.828
655.067
987.973
654.152
989.192
422.226
175.387
421.849
170.95
655.348
991.789
656.864
989.956
239.698
239.485
236.821
242.595
504.98
186.699
243.591
181.366
238.943
236.038
185.367
244.441
505.195
244.304
237.383
181.584
415.222
175.679
170.905
414.203
644.221
976.006
646.074
973.668
415.269
175.349
417.144
170.8
643.281
970.825
642.147
972.549
241.095
240.644
239.109
246.938
510.185
186.855
246.46
240.859
182.424
236.975
185.701
244.391
508.144
246.147
238.342
181.541
412.586
176.083
171.585
414.298
638.597
963.476
637.165
965.483
412.03
176.078
171.145
411.315
639.336
969.454
641.375
966.878
398.385
468.776
437.234
399.528
440.067
350.849
348.968
443.716
471.148
403.308
401.516
441.454
555.074
557.162
553.754
551.751
546.347
543.706
547.957
550.183
352.687
353.376
409.619
478.008
450.566
408.202
448.905
445.226
405.789
475.931
406.508
447.75
573.894
193.599
306.017
285.543
572.128
307.426
285.884
567.477
187.594
303.526
282.957
569.863
300.078
280.995
395.497
435.278
462.977
393.097
432.412
337.998
339.98
425.753
459.537
388.081
390.185
430.142
518.787
514.298
521.624
525.906
536.988
541.144
533.603
529.262
334.928
331.561
373.42
446.018
409.911
376.631
415.245
422.644
383.87
450.306
380.517
418.403
238.027
237.567
237.347
242.615
186.82
502.989
238.917
241.751
182.598
235.335
186.665
239.418
501.037
241.41
237.201
182.066
406.745
179.02
175.142
408.434
627.928
947.957
626.776
949.743
406.147
181.2
175.189
405.92
628.906
954.047
630.887
951.486
236.392
236.178
235.656
237.53
497.133
189.979
238.659
183.743
238.978
235.072
186.937
239.827
497.137
238.953
236.042
183.267
409.177
177.995
172.634
408.227
634.286
961.764
636.32
959.135
409.343
176.554
411.305
172.321
633.101
955.801
631.925
957.72
549.671
166.658
278.147
269.192
553.985
271.751
265.624
559.555
176.03
281.972
271.919
556.227
285.93
273.477
265.733
258.223
261.775
243.529
497.365
216.943
244.031
218.216
257.6
266.203
239.405
252.136
500.974
249.057
278.328
226.02
426.244
240.114
250.389
419.721
628.916
944.774
637.763
937.312
429.9
287.985
263.594
443.214
628.697
934.098
624.066
938.027
272.887
283.079
308.391
295.778
515.064
302.142
282.121
277.031
333.838
296.579
252.948
263.981
505.987
267.63
285.477
259.855
410.922
229.002
214.639
416.28
621.361
934.162
620.152
934.606
410.425
206.722
209.152
408.098
620.743
935.594
624.363
933.092
309.895
370.704
339.971
298.651
326.296
253.91
262.971
294.919
357.36
273.333
286.608
313.057
357.761
338.033
373
390.733
431.058
444.414
419.448
403.852
244.901
236.632
208.684
294.774
211.487
225.49
237.251
278.225
257.543
313.964
241.768
256.608
303.521
296.979
320.353
398.772
350.485
328.703
362.028
379.021
344.291
407.686
336.993
369.875
503.433
509.932
497.794
489.678
309.077
313.871
368.16
405.526
433.583
363.136
399.332
385.971
352.094
427.197
357.428
394.027
465.531
454.597
473.277
482.909
237.563
238.353
244.508
238.644
493.009
209.519
238.374
252.106
199.846
242.789
198.582
237.897
491.283
236.352
241.843
196.219
404.517
188.133
180.875
404.664
624.288
946.063
625.858
943.873
404.805
182.613
406.079
179.674
622.987
941.052
622.597
942.146
238.32
237.088
239.352
238.353
191.651
495.834
239.945
237.085
188.319
238.27
195.586
235.608
494.942
237.435
242.116
189.399
405.014
191.2
189.818
405.398
619.844
936.081
620.581
936.025
404.733
201.656
406.994
192.008
620.745
939.096
621.486
937.785
495.672
554.95
650.73
658.855
716.389
728.968
581.099
634.108
742.529
579.919
496.213
464.618
660.79
512.851
520.372
555.3
483.629
410.22
365.144
514.716
654.321
944.779
640.575
955.993
470.889
309.436
451.561
336.615
658.416
976.049
681.965
957.687
447.776
403.903
388.056
321.874
552.139
330.951
341.777
360.17
356.199
420.962
440.328
409.972
576.289
373.246
469.153
392.62
584.198
455.986
519.827
538.662
745.795
1072.64
807.702
1023.25
633.677
687.476
591.42
707.053
727.321
981.437
690.871
1010
286.963
211.073
166.224
245.764
141.189
280.918
324.881
115.448
215.074
188.215
214.448
118.919
297.701
318.904
279.35
259.468
233.391
232.397
234.583
246.111
260.354
238.613
192.965
244.513
189.123
180.876
161.623
119.055
175.921
223.565
174.419
142.215
768.287
729.544
642.321
838.287
784.972
613.818
790.193
890.526
889.343
859.441
635.511
763.952
850.902
822.319
810.823
634.849
796.358
1010.81
962.048
1042.29
1121.27
1347.11
1075.19
1034.79
1113.01
1077.7
954.807
1286.96
1043.76
904.795
1012
935.208
654.767
880.224
799.205
811.187
592.464
823.893
1018.86
973.425
940.711
323.601
192.821
284.776
367.441
216.134
544.715
539.561
191.705
276.022
386.722
389.029
221.993
451.479
258.339
162.296
251.046
443.92
353.708
245.361
237.836
270.174
242.288
592.594
169.14
367.655
996.557
971.959
955.898
748.498
833.83
952.424
854.153
856.098
949.067
1070.28
1080.37
994.489
1022.99
925.191
1098.13
1049.76
940.818
923.759
1114.5
1328.63
1012.07
991.76
1103.24
963.399
1231.89
980.587
1057.54
1131.94
1016.75
1111.23
949.261
1005.1
996.665
913.463
935.847
1102.62
847.029
1167.59
880.753
784.727
780.628
896.917
1006.81
1211.66
888.573
1206.75
1071.42
1005.98
900.971
1046.53
1059.58
916.46
1077.24
1019.06
1054.3
925.088
1037.95
958.945
885.55
1046.28
877.293
1034.87
880.359
960.276
876.43
1036.41
984.729
834.67
982.181
836.645
987.817
841.587
990.239
839.319
975.433
831.695
978.661
828.561
971.277
821.844
824.754
967.806
892.559
718.238
878.857
735.174
905.052
762.925
914.014
750.87
832.223
697.005
857.866
670.86
794.059
605.221
636.014
770.837
1035.09
875.808
879.889
1031.52
1037.8
883.186
1037.69
883.157
994.685
843.652
992.84
844.886
953.225
802.853
807.72
948.444
958.839
817.79
963.217
813.349
936.456
796.65
942.316
789.806
929.077
773.006
922.524
781.236
652.46
763.625
630.477
615.052
773.012
620.298
648.498
656.739
629.663
790.191
636.17
780.077
660.584
624.228
667.28
648.091
799.579
637.091
666.417
632.556
647.329
795.884
799.803
636.373
663.737
641.495
757.224
614.194
611.244
750.222
644.635
607.857
639.388
604.227
746.993
611.592
747.347
637.936
605.673
636.055
754.292
610.683
602.788
751.166
603.214
635.653
636.328
603.136
609.92
747.252
749.567
603.273
636.662
626.756
744.001
604.787
592.914
746.022
594.812
625.365
628.198
597.624
750.858
606.58
747.845
629.661
595.785
634.033
754.927
602.402
611.94
634.855
755.212
601.753
632.881
598.893
610.911
753.004
754.42
600.84
631.262
588.258
706.439
570.329
556.592
707.141
558.356
586.982
589.522
560.355
709.414
571.441
708.033
590.58
559.125
594.544
714.601
575.925
564.991
713.116
563.96
595.547
593.395
561.431
574.692
710.848
711.92
563.082
592.057
597.508
715.647
578.273
565.799
715.837
596.713
566.988
598.303
568.179
578.921
717.272
716.337
567.433
598.946
583.668
704.9
566.673
555.33
702.894
585.239
553.682
581.894
549.871
699.506
564.839
701.239
579.929
552.295
573.874
692.439
557.586
541.715
693.827
544.397
571.766
575.963
548.145
559.529
697.387
695.319
545.934
577.785
547.504
669.261
536.075
514.93
672.314
519.881
543.408
551.362
527.028
678.763
539.656
675.119
554.95
523.106
565.914
690.169
539.549
552.068
568.746
687.379
536.735
562.664
530.251
549.086
681.877
684.91
534.316
558.781
384.876
545.843
410.884
346.929
558.208
366.318
365.952
402.842
399.41
582.322
425.599
569.535
419.853
381.974
463.476
620.671
471.879
451.622
612.004
440.097
475.105
450.623
413.588
460.89
593.257
603.976
428.776
435.864
532.884
665.542
510.659
524.663
538.301
660.806
505.049
526.89
492.744
519.224
651.267
656.666
500.028
519.777
495.332
627.163
494.78
460.815
633.654
485.788
470.831
504.035
486.245
502.035
645.836
639.074
478.121
512.079
325.495
532.83
371.571
330.348
519.817
345.281
310.759
304.199
277.744
491.077
355.561
505.162
285.109
296.13
245.054
438.558
318.717
260.047
442.694
258.677
244.958
254.077
268.238
327.647
471.774
460.346
257.851
265.322
254.527
422.302
268.642
339.441
243.936
429.423
277.494
263.798
265.214
340.446
420.784
422.696
279.532
261.612
)
;

boundaryField
{
    left
    {
        type            calculated;
        value           nonuniform List<scalar> 0();
    }
    bottom
    {
        type            calculated;
        value           nonuniform List<scalar> 
243
(
1041.82
1022.69
985.523
980.827
943.915
935.858
850.754
827.988
1005.63
998.358
967.928
962.747
904.73
892.342
1188.21
1194.06
1052.01
1014.12
1158.3
1165.67
1133.61
1137.94
989.932
976.679
1125.04
1128.87
1093.82
1100.67
950.981
926.652
1077.29
1086.12
1012.33
1023.82
866.258
788.654
998.931
1001.29
1101.85
1153.29
1158.82
1011.48
1085.12
1080.11
1095.59
1086.87
1069.87
1065.55
1077.12
1071.65
993.535
1140.7
1145.09
1116.81
1121.33
972.589
1056.98
1051.91
1063.58
1058.9
1040.39
1032.23
1049.57
1043.31
957.167
1106.52
1111.83
1056.73
1067.63
916.28
1012.88
999.692
1028.41
1017.72
975.183
968.271
993.981
980.524
879.486
1034.13
1045.7
1074.15
1128.48
967.381
1033.11
1333.45
1109.47
1106.68
1084.69
1082.22
1091.22
1087.7
1068.75
1066.9
1074.91
1072.66
1055.48
1053.39
1061.99
1060.08
1038.05
1034.69
1047.71
1045.12
1009.03
1003.54
1025.32
1020.96
972.928
968.148
989.96
983.976
1849.24
1522.4
1290.69
1907.86
976.464
993.053
974.405
1141.59
1290.06
918.044
822.61
1130.46
958.482
1425.03
1425.66
1421.69
1419.18
1425.05
1423.84
1401.7
1400.97
1402.13
1401.48
1397.47
1396.05
1400.05
1398.61
1411.02
1408.53
1416.08
1412.71
1403.59
1403.16
1406.31
1404.75
1384.17
1383.49
1385.44
1384.4
1380.52
1379.52
1382.55
1381.36
1391.85
1390.74
1394.5
1392.73
1387.18
1386.33
1389.37
1388.02
1369.05
1368.15
1370.73
1369.56
1364.69
1363.56
1367.05
1365.65
1376.76
1375.87
1378.46
1377.26
1372.74
1371.74
1374.86
1373.55
1348.83
1347.33
1351.58
1349.93
1341.87
1340.01
1345.55
1343.42
1360.16
1358.92
1362.24
1360.91
1354.7
1353.28
1357.67
1355.87
1315.56
1313.22
1320.04
1317.51
1305.33
1302.94
1310.32
1307.6
1334.11
1332.1
1337.77
1335.65
1325.21
1322.89
1329.76
1327.19
1282.41
1282.93
1283.6
1282.96
1284.18
1287.51
1281.75
1283.23
1295.38
1293.52
1299.81
1297.38
1287.1
1285.99
1290.66
1288.79
1811.08
1687.51
1408.49
1325.32
1419.36
1425.8
2065.31
1853.08
1300.37
1308.67
1288.84
1294.33
1352.56
1369.69
1320.73
1332.48
)
;
    }
    interface
    {
        type            calculated;
        value           nonuniform List<scalar> 
1703
(
187.166
176.231
186.328
165.267
163.491
161.348
163.049
154.733
150.089
139.94
148.876
68.6301
113.653
505.988
144.06
174.395
169.568
165.903
168.987
160.882
159.032
155.528
158.449
137.78
118.844
75.093
114.622
584.55
930.151
952.836
196.125
193.031
179.935
182.193
164.474
164.043
161.868
162.363
153.1
152.159
144.237
145.824
58.9397
63.6352
315.236
261.271
171.877
171.008
166.887
167.659
160.217
159.739
156.698
157.387
131.325
128.336
94.569
100.542
733.392
933.136
595.576
967.204
1300.84
1048.41
1039.62
965.726
736.219
711.595
544.923
1019.77
365.567
274.713
1292.82
1022.4
990.115
202.534
188.295
176.472
184.109
164.064
162.907
160.74
161.951
153.344
150.162
140.896
147.058
62.6322
90.8481
435.643
178.25
172.457
169.296
305.708
299.794
165.401
167.651
294.996
298.776
159.785
158.531
288.139
285.625
151.293
149.988
155.205
157.244
148.085
149.505
141.968
144.977
134.957
121.814
259.32
236.885
141.62
138.157
81.5623
109.558
154.411
238.663
656.287
417.508
754.532
879.034
913.953
721.401
835.92
898.119
804.725
198.607
189.271
177.871
182.816
163.924
162.938
160.799
161.793
152.958
150.627
142.047
146.26
58.6586
76.2204
375.079
215.269
177.977
217.159
228.448
355.302
145.455
142.707
556.628
355.51
143.925
556.879
211.736
233.059
231.663
352.227
352.81
554.591
521
517.511
567.828
617.384
622.559
622.154
325.594
554.984
509.106
516.66
564.726
514.442
156.744
204.151
227.222
221.944
354.676
143.052
556.45
354.711
556.114
227.473
205.994
221.482
350.861
550.023
349.978
551.102
537.883
493.858
495.275
311.197
497.143
539.316
611.503
613.581
609.857
602.226
313.029
549.396
505.982
499.315
540.34
501.215
171.78
169.468
537.788
492.891
491.947
303.017
489.475
534.593
592.608
591.531
593.417
598.221
530.137
485.589
486.942
488.584
533.058
207.319
229.401
227.197
347.652
545.199
347.314
150.989
146.083
545.634
228.7
225.264
206.458
348.252
546.771
348.105
546.821
165.649
167.303
152.425
202.358
226.521
223.047
341.53
145.676
536.191
341.143
536.575
225.31
221.526
202.909
342.531
538.052
342.291
538.138
523.49
478.846
478.563
293.148
477.088
521.35
580.129
579.605
699.44
531.657
532.591
698.537
703.884
535.845
535.57
704.328
583.323