/*--------------------------------*- C++ -*----------------------------------*\
| =========                 |                                                 |
| \\      /  F ield         | OpenFOAM: The Open Source CFD Toolbox           |
|  \\    /   O peration     | Version:  2012                                  |
|   \\  /    A nd           | Website:  www.openfoam.com                      |
|    \\/     M anipulation  |                                                 |
\*---------------------------------------------------------------------------*/
FoamFile
{
    version     2.0;
    format      ascii;
    class       volVectorField;
    location    "0.104/solid";
    object      U;
}
// * * * * * * * * * * * * * * * * * * * * * * * * * * * * * * * * * * * * * //

dimensions      [0 1 -1 0 0 0 0];


internalField   nonuniform List<vector> 
3125
(
(3.72375e-08 -1.37389e-08 2.01254e-08)
(2.32565e-08 -8.72333e-09 1.67146e-08)
(-1.42931e-08 6.51043e-09 4.04068e-09)
(-1.55765e-08 7.39397e-09 3.66386e-09)
(-1.46868e-08 1.07129e-08 1.25758e-09)
(-1.45594e-08 1.10424e-08 1.2202e-09)
(-1.2595e-08 1.25075e-08 4.53e-09)
(-1.20925e-08 1.26109e-08 6.16292e-09)
(-1.15611e-09 6.09147e-10 9.08252e-09)
(-5.6743e-09 2.57406e-09 7.29784e-09)
(-1.54668e-08 9.29372e-09 2.59675e-09)
(-1.51584e-08 9.75776e-09 2.19276e-09)
(-1.40127e-08 1.14638e-08 1.52736e-09)
(-1.37399e-08 1.16335e-08 1.76677e-09)
(5.51387e-08 -2.04383e-08 2.34557e-08)
(4.69736e-08 -1.42434e-08 1.65185e-08)
(7.94491e-08 -3.14e-08 3.65154e-08)
(1.03424e-07 -3.44875e-08 5.24264e-09)
(7.03872e-08 -2.19125e-08 2.04402e-08)
(3.00481e-08 -8.1873e-09 5.83989e-09)
(2.89711e-08 -8.63921e-09 1.31824e-08)
(6.32915e-08 -2.58027e-08 3.40842e-08)
(1.2684e-08 -4.89694e-09 1.37237e-08)
(2.61366e-08 -1.04546e-08 2.65729e-08)
(9.26442e-08 -3.10917e-08 5.46513e-09)
(1.53868e-08 -4.48464e-09 1.0594e-08)
(-3.89511e-08 1.79921e-08 3.91882e-09)
(-1.2123e-08 5.44983e-09 4.74102e-09)
(-1.82758e-08 7.03303e-09 3.27396e-09)
(-5.10977e-08 2.3501e-08 4.00258e-09)
(-1.57874e-08 6.013e-09 3.76278e-09)
(-5.69198e-08 2.78794e-08 4.60277e-09)
(-1.99304e-08 7.88406e-09 2.98435e-09)
(-1.59766e-08 8.13469e-09 3.37302e-09)
(-5.212e-08 2.40301e-08 4.10271e-09)
(-2.08584e-08 8.59342e-09 2.77299e-09)
(-5.8073e-08 3.37019e-08 3.05695e-09)
(-1.47947e-08 1.04813e-08 1.52284e-09)
(-2.14914e-08 1.10557e-08 1.21902e-09)
(-5.8164e-08 3.49564e-08 2.54913e-09)
(-2.14883e-08 1.08645e-08 1.41239e-09)
(-5.79875e-08 3.59105e-08 2.61149e-09)
(-2.15081e-08 1.11824e-08 1.10955e-09)
(-1.44284e-08 1.12853e-08 1.31066e-09)
(-5.81422e-08 3.51083e-08 2.54965e-09)
(-2.13317e-08 1.13591e-08 1.13846e-09)
(-5.46356e-08 3.75651e-08 7.29949e-09)
(-1.30655e-08 1.23381e-08 3.25098e-09)
(-1.91686e-08 1.26509e-08 4.17309e-09)
(-5.18854e-08 3.83296e-08 1.38065e-08)
(-1.98125e-08 1.24445e-08 3.02707e-09)
(-4.79602e-08 3.21707e-08 3.06918e-08)
(-1.84603e-08 1.25578e-08 5.75939e-09)
(-1.15981e-08 1.21491e-08 8.71154e-09)
(-5.13924e-08 3.8177e-08 1.52305e-08)
(-1.79239e-08 1.19389e-08 8.49406e-09)
(2.85986e-08 -2.69396e-09 3.75794e-09)
(8.45562e-08 -3.82541e-08 3.24089e-08)
(2.3258e-08 -2.07615e-09 3.32985e-09)
(8.23397e-09 -5.44289e-10 2.42884e-09)
(6.75337e-08 -3.08648e-08 3.0649e-08)
(2.81641e-08 -1.25437e-08 2.47096e-08)
(2.39209e-08 -6.3194e-09 5.83638e-09)
(4.77475e-09 -1.82519e-09 1.12072e-08)
(-2.37847e-09 1.23333e-09 6.90362e-09)
(-1.21272e-08 7.58257e-09 5.06853e-09)
(5.21753e-09 -1.27685e-09 8.55854e-09)
(-4.35237e-09 4.82838e-09 1.70197e-08)
(1.83384e-08 -7.79597e-09 2.26856e-08)
(-3.18677e-09 6.84357e-10 1.69371e-09)
(5.21992e-09 -2.12916e-10 2.24225e-09)
(-3.67965e-08 1.72917e-08 3.97759e-09)
(-9.24611e-09 4.15963e-09 5.84357e-09)
(-8.0776e-09 3.20145e-09 5.57238e-09)
(-1.56628e-08 8.77445e-09 4.94406e-09)
(-1.24342e-08 4.76107e-09 4.53127e-09)
(-1.32502e-08 1.99304e-09 1.04829e-09)
(-1.05443e-08 1.58382e-09 1.17152e-09)
(-3.57106e-08 2.46951e-08 8.04553e-09)
(-2.75772e-08 1.88235e-08 1.00531e-08)
(-1.00977e-08 8.0904e-09 1.53378e-08)
(-2.39086e-08 1.65934e-08 1.11125e-08)
(-4.83742e-09 8.89082e-10 1.57325e-09)
(-9.58427e-09 1.4498e-09 1.20862e-09)
(-1.37174e-08 2.11585e-09 1.09213e-09)
(-1.50346e-08 2.47079e-09 1.06495e-09)
(-3.73044e-08 2.63659e-08 7.68886e-09)
(-3.87997e-08 3.01541e-08 6.92141e-09)
(-5.71291e-08 2.82866e-08 4.62822e-09)
(-1.58115e-08 8.76123e-09 3.01397e-09)
(-2.14181e-08 9.71051e-09 2.25039e-09)
(-5.7988e-08 3.10864e-08 4.16607e-09)
(-2.12726e-08 9.19893e-09 2.53082e-09)
(-3.69177e-08 3.34569e-08 5.41852e-09)
(-3.85115e-08 3.10645e-08 6.59277e-09)
(-1.57378e-08 2.91528e-09 9.46388e-10)
(-1.51759e-08 2.59484e-09 1.09661e-09)
(-5.8071e-08 3.35176e-08 3.15668e-09)
(-1.49438e-08 1.01596e-08 1.82663e-09)
(-2.14575e-08 1.01585e-08 1.95314e-09)
(-5.79492e-08 3.13934e-08 4.05611e-09)
(-2.1469e-08 1.05437e-08 1.66429e-09)
(-1.61739e-08 3.49537e-09 5.14656e-10)
(-1.60408e-08 3.36439e-09 6.99149e-10)
(-3.42499e-08 3.75795e-08 3.2548e-09)
(-3.49721e-08 3.68783e-08 3.58346e-09)
(-3.63894e-08 3.4129e-08 4.97675e-09)
(-3.52403e-08 3.63006e-08 3.87176e-09)
(-1.57595e-08 3.02471e-09 9.28569e-10)
(-1.60217e-08 3.28695e-09 7.11066e-10)
(-1.6166e-08 3.53294e-09 5.293e-10)
(-1.6168e-08 3.63991e-09 5.02046e-10)
(-3.36697e-08 3.63195e-08 3.2038e-09)
(-5.79141e-08 3.59752e-08 2.69898e-09)
(-1.4216e-08 1.15994e-08 1.41816e-09)
(-2.08288e-08 1.16851e-08 1.40484e-09)
(-5.69273e-08 3.64907e-08 3.58899e-09)
(-2.10636e-08 1.16511e-08 1.19393e-09)
(-1.59363e-08 3.83558e-09 7.32154e-10)
(-1.61112e-08 3.71037e-09 5.80031e-10)
(-5.49217e-08 3.7496e-08 6.71566e-09)
(-1.34382e-08 1.19393e-08 2.4358e-09)
(-2.06169e-08 1.19593e-08 1.72412e-09)
(-5.67102e-08 3.67091e-08 3.83007e-09)
(-2.02951e-08 1.21656e-08 2.26013e-09)
(-1.47592e-08 4.40846e-09 2.07673e-09)
(-1.53121e-08 4.25228e-09 1.36521e-09)
(-1.58337e-08 3.91444e-09 8.45459e-10)
(-1.5478e-08 4.1565e-09 1.15642e-09)
(-1.4545e-08 4.45413e-09 2.48969e-09)
(-1.42234e-08 4.30474e-09 4.50913e-09)
(-4.75379e-08 3.0155e-08 3.39336e-08)
(-1.01224e-08 5.59504e-09 6.06516e-09)
(-1.47013e-08 3.90267e-09 6.17736e-09)
(-2.00513e-08 7.33266e-09 3.33099e-08)
(-3.31143e-09 -6.54939e-11 9.5881e-09)
(1.23424e-07 -4.0939e-08 3.29597e-08)
(1.5765e-07 -5.55981e-08 4.45242e-09)
(1.37777e-07 -3.92721e-08 2.24056e-08)
(1.44807e-07 -5.55151e-08 2.78618e-08)
(1.02423e-07 -3.49379e-08 3.06595e-08)
(1.43867e-07 -5.08155e-08 4.757e-09)
(9.05895e-08 -2.449e-08 1.84585e-08)
(9.6385e-08 -3.53396e-08 2.40798e-08)
(8.15818e-08 -2.61403e-08 2.75432e-08)
(1.1461e-07 -3.34077e-08 2.08326e-08)
(1.1948e-07 -4.55022e-08 2.61574e-08)
(3.69226e-08 -1.23357e-08 2.08986e-08)
(3.0096e-08 -1.00136e-08 1.75253e-08)
(5.34989e-08 -1.70248e-08 5.83945e-09)
(2.70251e-08 -6.11262e-09 1.27838e-08)
(4.08961e-08 -1.09327e-08 1.41653e-08)
(4.35287e-08 -1.56716e-08 1.91055e-08)
(2.49137e-08 -7.35134e-09 1.87617e-08)
(4.92704e-08 -1.55099e-08 2.27315e-08)
(6.16814e-08 -1.94079e-08 5.7415e-09)
(7.27338e-08 -2.03537e-08 1.7066e-08)
(7.64314e-08 -2.82701e-08 2.23956e-08)
(6.52935e-08 -2.18661e-08 2.53708e-08)
(5.44369e-08 -1.39304e-08 1.52644e-08)
(5.86974e-08 -2.09173e-08 2.05855e-08)
(-3.21311e-08 1.45033e-08 7.09558e-09)
(-3.3989e-08 1.74983e-08 7.64822e-09)
(-4.51035e-08 2.0673e-08 3.81822e-09)
(-3.31292e-08 1.26859e-08 5.68312e-09)
(-2.89868e-08 1.29027e-08 7.7123e-09)
(-3.6597e-08 1.42337e-08 5.37302e-09)
(-3.75005e-08 1.94166e-08 7.11577e-09)
(-3.44593e-08 1.54084e-08 6.62686e-09)
(-4.66621e-08 2.12839e-08 3.83968e-09)
(-4.16294e-08 1.62746e-08 4.97894e-09)
(-4.29474e-08 2.24394e-08 6.47334e-09)
(-3.66092e-08 1.68237e-08 6.29487e-09)
(-3.90908e-08 1.49972e-08 5.07125e-09)
(-4.04358e-08 2.08491e-08 6.7274e-09)
(-4.02164e-08 1.92291e-08 5.60743e-09)
(-4.78346e-08 2.69111e-08 5.92493e-09)
(-5.54798e-08 2.62846e-08 4.45385e-09)
(-4.67125e-08 1.94063e-08 4.67047e-09)
(-4.58283e-08 1.85236e-08 4.66427e-09)
(-4.72205e-08 2.58593e-08 6.04594e-09)
(-4.0689e-08 2.02081e-08 5.44607e-09)
(-3.94226e-08 1.86524e-08 5.83844e-09)
(-5.48893e-08 2.58707e-08 4.37288e-09)
(-4.32909e-08 1.69112e-08 4.78788e-09)
(-4.48368e-08 2.36202e-08 6.28559e-09)
(-3.81363e-08 1.75396e-08 6.01463e-09)
(-4.48609e-08 1.7969e-08 4.80815e-09)
(-4.62593e-08 2.4896e-08 6.18024e-09)
(-4.05204e-08 2.49176e-08 2.75784e-09)
(-4.74718e-08 3.27473e-08 3.37811e-09)
(-5.81153e-08 3.43365e-08 2.78345e-09)
(-4.80043e-08 2.3695e-08 2.708e-09)
(-4.05405e-08 2.45903e-08 2.96752e-09)
(-4.80077e-08 2.40625e-08 2.57949e-09)
(-4.73821e-08 3.31882e-08 3.1474e-09)
(-4.04578e-08 2.51015e-08 2.50861e-09)
(-5.80737e-08 3.44829e-08 2.71155e-09)
(-4.80554e-08 2.44932e-08 2.2891e-09)
(-4.72909e-08 3.38082e-08 2.75494e-09)
(-4.03262e-08 2.54426e-08 2.37565e-09)
(-4.79942e-08 2.41992e-08 2.32381e-09)
(-4.73125e-08 3.34958e-08 2.9211e-09)
(-3.97308e-08 2.60728e-08 2.31079e-09)
(-4.69315e-08 3.52675e-08 2.96715e-09)
(-5.80326e-08 3.53241e-08 2.57343e-09)
(-4.77903e-08 2.54458e-08 2.35088e-09)
(-4.78258e-08 2.50335e-08 2.11527e-09)
(-4.70167e-08 3.49788e-08 2.98057e-09)
(-3.98188e-08 2.69632e-08 2.50911e-09)
(-3.98994e-08 2.58309e-08 2.32447e-09)
(-5.80725e-08 3.51637e-08 2.59906e-09)
(-4.80464e-08 2.46209e-08 2.11735e-09)
(-4.72199e-08 3.41186e-08 2.64514e-09)
(-4.02656e-08 2.57145e-08 2.26462e-09)
(-4.79331e-08 2.48375e-08 2.14737e-09)
(-4.7068e-08 3.45716e-08 2.79484e-09)
(-3.66584e-08 2.87429e-08 7.54549e-09)
(-4.36752e-08 3.72243e-08 8.00045e-09)
(-5.35578e-08 3.8113e-08 9.51786e-09)
(-4.48041e-08 2.70286e-08 5.919e-09)
(-3.71223e-08 2.84047e-08 6.27004e-09)
(-4.41613e-08 2.74894e-08 7.1955e-09)
(-4.29379e-08 3.74315e-08 9.48037e-09)
(-3.60474e-08 2.87919e-08 8.77889e-09)
(-5.31481e-08 3.82569e-08 1.04149e-08)
(-4.27547e-08 2.76553e-08 1.00596e-08)
(-4.15408e-08 3.82448e-08 1.35865e-08)
(-3.52902e-08 2.89533e-08 1.05847e-08)
(-4.34501e-08 2.74737e-08 8.34718e-09)
(-4.22096e-08 3.79057e-08 1.11453e-08)
(-3.34482e-08 2.80038e-08 1.82572e-08)
(-3.88672e-08 3.28098e-08 2.9098e-08)
(-4.94275e-08 3.57687e-08 2.26026e-08)
(-3.97731e-08 2.42554e-08 2.1945e-08)
(-4.07089e-08 2.62699e-08 1.76754e-08)
(-3.94023e-08 3.58461e-08 2.39139e-08)
(-3.27227e-08 2.57651e-08 2.24482e-08)
(-3.40268e-08 2.87922e-08 1.52136e-08)
(-4.98972e-08 3.62978e-08 2.04556e-08)
(-4.21059e-08 2.75846e-08 1.18025e-08)
(-4.07561e-08 3.80863e-08 1.63996e-08)
(-3.47495e-08 2.92218e-08 1.24048e-08)
(-4.13412e-08 2.70735e-08 1.46251e-08)
(-3.99338e-08 3.74496e-08 1.98152e-08)
(1.39569e-07 -3.08074e-08 1.24018e-08)
(7.87725e-08 -1.30102e-08 9.14201e-09)
(3.68515e-08 -3.6115e-09 4.32027e-09)
(1.03523e-07 -1.92048e-08 1.07835e-08)
(9.06419e-08 -1.87087e-08 1.01725e-08)
(1.29036e-07 -2.93865e-08 1.20464e-08)
(4.38243e-08 -4.546e-09 4.95393e-09)
(1.21061e-07 -2.16443e-08 1.17213e-08)
(1.4066e-07 -6.16241e-08 1.99548e-08)
(1.03786e-07 -4.76557e-08 3.46054e-08)
(8.87277e-08 -3.7732e-08 2.40865e-08)
(1.21508e-07 -5.42491e-08 2.61698e-08)
(1.24572e-07 -5.94066e-08 3.61769e-08)
(1.3328e-07 -5.91013e-08 2.67504e-08)
(9.33748e-08 -3.90503e-08 1.84632e-08)
(1.28064e-07 -5.66022e-08 1.96616e-08)
(2.50118e-08 -3.83773e-09 7.42842e-09)
(4.71192e-08 -9.59424e-09 8.36773e-09)
(6.5383e-08 -1.1474e-08 8.49636e-09)
(1.69997e-08 -1.44066e-09 2.96039e-09)
(4.66539e-08 -7.03651e-09 7.37648e-09)
(8.25302e-08 -1.77952e-08 9.87885e-09)
(5.33245e-08 -1.01882e-08 8.5956e-09)
(2.22884e-08 -2.57083e-09 6.15835e-09)
(1.2966e-08 -1.0064e-09 2.68872e-09)
(3.65094e-08 -5.93781e-09 6.93519e-09)
(2.83754e-08 -1.04013e-08 1.47634e-08)
(4.88036e-08 -2.03527e-08 1.62543e-08)
(5.2533e-08 -2.39581e-08 2.86907e-08)
(7.93256e-08 -3.43447e-08 2.33849e-08)
(5.38047e-08 -2.24218e-08 2.13139e-08)
(2.72525e-08 -1.04126e-08 1.84651e-08)
(3.95056e-08 -1.80627e-08 2.67486e-08)
(4.66335e-08 -1.97956e-08 2.05873e-08)
(8.33589e-08 -3.56078e-08 1.80675e-08)
(5.64686e-08 -2.28211e-08 1.67338e-08)
(6.53079e-09 -9.53145e-10 1.54648e-08)
(1.86884e-08 -5.87371e-09 1.61756e-08)
(6.02851e-09 6.64034e-10 5.57453e-09)
(1.68649e-08 -3.81657e-09 1.1824e-08)
(1.56497e-08 -4.82536e-09 1.72482e-08)
(8.52919e-09 -1.31827e-09 1.47652e-08)
(6.4538e-09 2.3748e-11 1.07087e-08)
(-4.31953e-10 1.11557e-09 1.41051e-08)
(1.37784e-09 2.1742e-09 5.49129e-09)
(-7.82259e-09 5.64418e-09 1.22272e-08)
(-9.04628e-09 4.8791e-09 8.86944e-09)
(-1.27169e-10 2.02907e-09 1.35019e-08)
(-1.19559e-09 1.89521e-09 9.82576e-09)
(-7.21407e-09 4.27487e-09 1.25979e-08)
(2.26021e-08 -8.28774e-09 1.4247e-08)
(7.05132e-09 -3.22387e-10 1.27018e-08)
(2.17184e-09 1.13098e-09 1.88134e-08)
(-8.18552e-09 7.09097e-09 1.29589e-08)
(2.99154e-09 9.90157e-10 1.4931e-08)
(2.18311e-08 -8.31991e-09 1.7731e-08)
(9.68558e-09 -2.89924e-09 2.06725e-08)
(7.12917e-09 -6.22512e-10 1.56334e-08)
(-9.13455e-09 7.7501e-09 1.06473e-08)
(2.67619e-09 1.43238e-09 1.21668e-08)
(2.04229e-08 -3.34202e-09 7.21177e-09)
(3.7853e-09 1.11966e-09 6.44376e-09)
(-9.49779e-09 3.4566e-09 4.41249e-09)
(-5.49843e-10 4.109e-10 1.87293e-09)
(-1.55472e-09 1.48353e-09 4.89312e-09)
(-1.20801e-08 4.97717e-09 5.50294e-09)
(3.79264e-10 1.54229e-09 6.19383e-09)
(1.47061e-08 -1.75499e-09 5.82207e-09)
(1.69205e-09 1.49248e-10 2.03016e-09)
(4.09066e-09 8.32346e-10 5.22724e-09)
(-2.18155e-08 9.715e-09 9.31754e-09)
(-2.87856e-08 1.38992e-08 4.33216e-09)
(-2.99999e-08 1.57457e-08 8.30236e-09)
(-2.97323e-08 1.17437e-08 6.16441e-09)
(-2.58266e-08 1.18031e-08 8.38748e-09)
(-2.53876e-08 1.33822e-08 9.12936e-09)
(-2.51235e-08 9.85268e-09 6.71014e-09)
(-1.77275e-08 8.38924e-09 1.02501e-08)
(-2.60139e-08 1.30086e-08 4.46919e-09)
(-1.43918e-08 8.32228e-09 1.11215e-08)
(-1.47802e-08 6.3284e-09 8.09682e-09)
(-1.24879e-08 5.91334e-09 1.14733e-08)
(-2.0275e-08 1.12275e-08 1.00543e-08)
(-2.07105e-08 8.69179e-09 7.34619e-09)
(-3.47925e-08 1.05656e-08 3.91054e-09)
(-4.02798e-08 1.22855e-08 3.74935e-09)
(-3.76003e-08 9.51404e-09 2.8175e-09)
(-1.2395e-08 1.86561e-09 1.09107e-09)
(-3.50104e-08 8.71272e-09 2.84175e-09)
(-4.53493e-08 1.39129e-08 3.68378e-09)
(-4.13331e-08 1.24851e-08 3.62885e-09)
(-2.97933e-08 7.46487e-09 3.0605e-09)
(-1.16798e-08 1.74185e-09 1.08707e-09)
(-3.3231e-08 8.41757e-09 2.92949e-09)
(-3.3528e-08 2.02553e-08 7.0438e-09)
(-3.90805e-08 2.36278e-08 6.39931e-09)
(-3.35209e-08 2.2861e-08 8.54237e-09)
(-4.17015e-08 2.6296e-08 6.80792e-09)
(-3.80172e-08 2.35535e-08 7.2382e-09)
(-3.12743e-08 1.95334e-08 8.32953e-09)
(-3.08051e-08 2.09955e-08 9.19824e-09)
(-3.65604e-08 2.2887e-08 7.46118e-09)
(-4.44906e-08 2.71988e-08 6.02044e-09)
(-4.0583e-08 2.44657e-08 6.23592e-09)
(-3.14553e-08 1.94493e-08 7.33839e-09)
(-2.4279e-08 1.52601e-08 8.38987e-09)
(-1.13208e-08 8.46657e-09 1.23228e-08)
(-1.52184e-08 1.12327e-08 1.3763e-08)
(-1.99969e-08 1.3419e-08 1.05883e-08)
(-1.24845e-08 9.17206e-09 1.01649e-08)
(-2.16276e-08 1.43062e-08 8.82044e-09)
(-2.93047e-08 1.8656e-08 8.71418e-09)
(-1.97901e-08 1.39856e-08 1.23556e-08)
(-2.24693e-08 1.46155e-08 1.00544e-08)
(-3.32674e-08 1.03693e-08 4.08465e-09)
(-2.60491e-08 8.21001e-09 4.47143e-09)
(-1.36531e-08 3.96422e-09 4.11663e-09)
(-6.82561e-09 1.10875e-09 1.4227e-09)
(-1.9622e-08 5.45492e-09 3.74414e-09)
(-1.46332e-08 5.30691e-09 5.25344e-09)
(-2.4041e-08 7.97113e-09 4.69857e-09)
(-2.7368e-08 7.09562e-09 3.22584e-09)
(-8.06964e-09 1.27089e-09 1.33584e-09)
(-2.27868e-08 5.90783e-09 3.48584e-09)
(-5.07754e-08 1.64999e-08 3.78176e-09)
(-4.91594e-08 1.54472e-08 3.6824e-09)
(-3.87629e-08 9.81256e-09 2.81267e-09)
(-1.433e-08 2.23801e-09 1.06207e-09)
(-4.05516e-08 1.04327e-08 2.83743e-09)
(-4.60564e-08 1.41073e-08 3.603e-09)
(-4.86972e-08 1.52917e-08 3.75832e-09)
(-4.24881e-08 1.13135e-08 2.84178e-09)
(-1.46015e-08 2.36134e-09 1.10927e-09)
(-4.12441e-08 1.07642e-08 2.82429e-09)
(-4.89307e-08 3.22652e-08 5.84468e-09)
(-4.81257e-08 3.04596e-08 5.92726e-09)
(-3.83132e-08 2.78561e-08 7.41943e-09)
(-4.25899e-08 2.69819e-08 6.70568e-09)
(-4.45685e-08 2.9159e-08 6.52548e-09)
(-4.55352e-08 3.14624e-08 6.26391e-09)
(-3.87831e-08 2.90694e-08 7.18121e-09)
(-4.49388e-08 2.97358e-08 6.45835e-09)
(-4.546e-08 2.78295e-08 5.96899e-09)
(-4.76432e-08 3.00965e-08 5.9677e-09)
(-4.10712e-08 2.14125e-08 4.98658e-09)
(-4.81061e-08 2.76886e-08 5.73881e-09)
(-5.77494e-08 2.96069e-08 4.53891e-09)
(-4.71407e-08 1.98643e-08 4.46525e-09)
(-4.09534e-08 2.06785e-08 5.21004e-09)
(-4.81859e-08 2.85517e-08 5.52571e-09)
(-4.75065e-08 2.06268e-08 4.39335e-09)
(-4.10513e-08 2.18191e-08 4.67073e-09)
(-5.7769e-08 2.99512e-08 4.46832e-09)
(-4.80382e-08 2.99572e-08 4.93263e-09)
(-4.78324e-08 2.16731e-08 3.98066e-09)
(-4.81249e-08 2.92095e-08 5.2228e-09)
(-4.7645e-08 2.1024e-08 4.12167e-09)
(-4.0926e-08 2.25205e-08 4.40223e-09)
(-4.90169e-08 3.27232e-08 5.76861e-09)
(-4.90333e-08 3.41891e-08 5.49265e-09)
(-3.7488e-08 3.27633e-08 5.8478e-09)
(-4.47793e-08 3.48442e-08 5.10358e-09)
(-4.52203e-08 3.36092e-08 5.62986e-09)
(-4.55424e-08 3.18892e-08 6.15844e-09)
(-3.80482e-08 3.19996e-08 6.23846e-09)
(-4.5357e-08 3.33621e-08 5.79486e-09)
(-4.86485e-08 3.58637e-08 4.89824e-09)
(-4.89325e-08 3.46273e-08 5.33637e-09)
(-5.09283e-08 1.66765e-08 3.67274e-09)
(-5.1833e-08 1.75597e-08 3.64817e-09)
(-4.42737e-08 1.27378e-08 2.53628e-09)
(-1.55367e-08 2.82234e-09 1.02547e-09)
(-4.37098e-08 1.2319e-08 2.61545e-09)
(-5.23739e-08 1.85012e-08 3.34737e-09)
(-5.18376e-08 1.77196e-08 3.48498e-09)
(-4.28019e-08 1.15983e-08 2.78752e-09)
(-1.5457e-08 2.70307e-09 1.02854e-09)
(-4.358e-08 1.20681e-08 2.75307e-09)
(-4.0714e-08 2.37481e-08 3.47832e-09)
(-5.80308e-08 3.26075e-08 3.53144e-09)
(-4.7545e-08 3.23196e-08 3.66448e-09)
(-4.79873e-08 2.34217e-08 3.00619e-09)
(-4.05838e-08 2.4316e-08 3.23322e-09)
(-4.76348e-08 3.17154e-08 3.93302e-09)
(-4.79229e-08 2.29252e-08 3.15812e-09)
(-4.07662e-08 2.34339e-08 3.80394e-09)
(-5.80329e-08 3.23765e-08 3.6651e-09)
(-4.78889e-08 3.05297e-08 4.5811e-09)
(-4.7855e-08 2.20224e-08 3.6512e-09)
(-4.08531e-08 2.28652e-08 4.0795e-09)
(-4.77463e-08 3.11916e-08 4.27962e-09)
(-4.79106e-08 2.25946e-08 3.48365e-09)
(-5.29166e-08 2.01569e-08 2.37406e-09)
(-5.30721e-08 2.06024e-08 2.21469e-09)
(-4.53099e-08 1.45138e-08 1.47209e-09)
(-1.61153e-08 3.47634e-09 5.86172e-10)
(-4.51189e-08 1.43613e-08 1.50974e-09)
(-5.317e-08 2.0899e-08 1.99504e-09)
(-5.30053e-08 2.06738e-08 2.03754e-09)
(-4.49669e-08 1.40673e-08 1.77556e-09)
(-1.6108e-08 3.43023e-09 6.05478e-10)
(-4.51506e-08 1.42989e-08 1.68783e-09)
(-4.79146e-08 3.87198e-08 3.48623e-09)
(-4.77688e-08 3.94885e-08 3.1757e-09)
(-3.45614e-08 3.78461e-08 3.19673e-09)
(-4.32807e-08 3.91261e-08 2.99911e-09)
(-4.34498e-08 3.87157e-08 3.1602e-09)
(-4.37215e-08 3.78449e-08 3.59404e-09)
(-3.47587e-08 3.74235e-08 3.33942e-09)
(-4.35046e-08 3.86358e-08 3.25867e-09)
(-4.75725e-08 4.01885e-08 2.88769e-09)
(-4.77031e-08 3.97052e-08 3.07094e-09)
(-4.79669e-08 3.85648e-08 3.62431e-09)
(-4.81811e-08 3.74863e-08 4.05196e-09)
(-4.46079e-08 3.51837e-08 4.90833e-09)
(-3.59336e-08 3.49091e-08 4.56211e-09)
(-4.42117e-08 3.62735e-08 4.36286e-09)
(-4.85329e-08 3.61746e-08 4.72163e-09)
(-4.82431e-08 3.733e-08 4.24008e-09)
(-4.37946e-08 3.76466e-08 3.7342e-09)
(-3.55584e-08 3.56386e-08 4.18678e-09)
(-4.40874e-08 3.6631e-08 4.18058e-09)
(-5.29078e-08 2.00635e-08 2.56098e-09)
(-5.26941e-08 1.94459e-08 2.74966e-09)
(-4.42933e-08 1.29888e-08 2.3639e-09)
(-1.59083e-08 3.11457e-09 8.34468e-10)
(-4.46687e-08 1.33169e-08 2.25337e-09)
(-5.23542e-08 1.86527e-08 3.14886e-09)
(-5.26647e-08 1.93303e-08 2.95374e-09)
(-4.49562e-08 1.38627e-08 1.94986e-09)
(-1.59124e-08 3.20875e-09 8.09915e-10)
(-4.46609e-08 1.35764e-08 2.05389e-09)
(-5.29417e-08 2.14933e-08 2.04951e-09)
(-5.3103e-08 2.11939e-08 1.81843e-09)
(-4.52935e-08 1.461e-08 1.37466e-09)
(-1.62109e-08 3.56696e-09 4.73496e-10)
(-4.53784e-08 1.47194e-08 1.36614e-09)
(-5.31416e-08 2.09737e-08 1.85693e-09)
(-5.3134e-08 2.11806e-08 1.89959e-09)
(-4.51879e-08 1.49069e-08 1.45995e-09)
(-1.616e-08 3.61024e-09 5.09312e-10)
(-4.52163e-08 1.4786e-08 1.32703e-09)
(-4.70745e-08 4.18924e-08 2.96204e-09)
(-4.71831e-08 4.06561e-08 2.88327e-09)
(-3.29133e-08 3.44553e-08 4.00387e-09)
(-4.31574e-08 3.91518e-08 2.94457e-09)
(-4.2924e-08 3.9161e-08 2.99428e-09)
(-4.28469e-08 4.06971e-08 3.3252e-09)
(-3.06667e-08 2.89597e-08 2.19935e-09)
(-4.25688e-08 3.91629e-08 2.85481e-09)
(-4.74929e-08 4.03539e-08 2.84482e-09)
(-4.7339e-08 4.084e-08 2.8456e-09)
(-3.95443e-08 2.70949e-08 2.50949e-09)
(-4.68114e-08 3.55663e-08 2.6975e-09)
(-5.7623e-08 3.60882e-08 2.97938e-09)
(-4.75317e-08 2.55355e-08 2.2406e-09)
(-3.96529e-08 2.68003e-08 2.40573e-09)
(-4.64881e-08 3.54917e-08 3.21454e-09)
(-4.73792e-08 2.57495e-08 2.40214e-09)
(-3.9372e-08 2.73711e-08 2.6959e-09)
(-5.74384e-08 3.60238e-08 3.10326e-09)
(-4.59214e-08 3.61715e-08 3.41394e-09)
(-4.69531e-08 2.60053e-08 3.15489e-09)
(-4.60925e-08 3.57695e-08 3.07352e-09)
(-4.72142e-08 2.58733e-08 2.57815e-09)
(-3.90604e-08 2.73791e-08 3.25642e-09)
(-4.6875e-08 4.32111e-08 2.80505e-09)
(-4.70113e-08 4.28619e-08 3.21039e-09)
(-4.19941e-08 4.21958e-08 4.31801e-09)
(-4.24409e-08 4.00532e-08 3.13866e-09)
(-4.26504e-08 4.29759e-08 3.37484e-09)
(-4.27205e-08 4.28343e-08 2.80076e-09)
(-4.61828e-08 4.26069e-08 4.07938e-09)
(-4.69237e-08 4.32819e-08 3.26723e-09)
(-5.27998e-08 2.15262e-08 1.98987e-09)
(-5.25858e-08 2.17397e-08 2.24116e-09)
(-4.45495e-08 1.54174e-08 2.06048e-09)
(-1.59911e-08 3.79292e-09 6.91872e-10)
(-4.46898e-08 1.52418e-08 1.76871e-09)
(-5.21436e-08 2.21284e-08 2.86529e-09)
(-5.24708e-08 2.17786e-08 2.26767e-09)
(-4.50359e-08 1.50298e-08 1.49898e-09)
(-1.6083e-08 3.75646e-09 5.90758e-10)
(-4.48908e-08 1.51041e-08 1.65651e-09)
(-3.82304e-08 2.78015e-08 4.63057e-09)
(-5.58208e-08 3.75264e-08 5.27199e-09)
(-4.41884e-08 3.70531e-08 6.61342e-09)
(-4.53495e-08 2.68725e-08 5.23921e-09)
(-3.75558e-08 2.81418e-08 5.57541e-09)
(-4.45142e-08 3.65231e-08 5.48276e-09)
(-4.58976e-08 2.67154e-08 4.33968e-09)
(-3.85767e-08 2.76597e-08 3.991e-09)
(-5.60879e-08 3.75494e-08 4.84831e-09)
(-4.55684e-08 3.64901e-08 4.26553e-09)
(-4.66056e-08 2.60857e-08 3.36083e-09)
(-3.87668e-08 2.71787e-08 3.41964e-09)
(-4.49842e-08 3.63826e-08 5.05569e-09)
(-4.63109e-08 2.65212e-08 3.89232e-09)
(-5.01497e-08 2.32699e-08 5.06726e-09)
(-4.91674e-08 2.34821e-08 6.57487e-09)
(-4.1028e-08 1.6603e-08 6.15153e-09)
(-1.4926e-08 4.37397e-09 1.81192e-09)
(-4.15908e-08 1.65643e-08 5.14805e-09)
(-4.76509e-08 2.35888e-08 9.20827e-09)
(-4.87351e-08 2.35163e-08 7.03418e-09)
(-4.27331e-08 1.64223e-08 3.77113e-09)
(-1.51286e-08 4.31333e-09 1.51968e-09)
(-4.21634e-08 1.65051e-08 4.43343e-09)
(-4.41712e-08 4.48338e-08 8.36164e-09)
(-4.33515e-08 4.36225e-08 1.08724e-08)
(-3.72397e-08 4.48565e-08 1.61634e-08)
(-3.82016e-08 4.3483e-08 1.22209e-08)
(-4.04941e-08 4.38222e-08 8.2464e-09)
(-3.88048e-08 4.26874e-08 1.10704e-08)
(-4.16786e-08 4.41097e-08 1.60279e-08)
(-4.27837e-08 4.44159e-08 1.18731e-08)
(-4.42743e-08 4.42914e-08 7.58343e-09)
(-4.54863e-08 4.21679e-08 6.01589e-09)
(-4.1762e-08 4.29453e-08 4.43337e-09)
(-4.04242e-08 4.11339e-08 5.34157e-09)
(-4.58217e-08 4.23359e-08 4.31014e-09)
(-4.55334e-08 4.32482e-08 5.52063e-09)
(-4.07148e-08 4.31974e-08 7.86743e-09)
(-4.04576e-08 4.18694e-08 6.09008e-09)
(-5.04155e-08 2.32042e-08 4.78572e-09)
(-5.11939e-08 2.27446e-08 3.74049e-09)
(-4.4288e-08 1.55699e-08 2.24888e-09)
(-1.57388e-08 3.97688e-09 8.99428e-10)
(-4.39614e-08 1.57134e-08 2.55548e-09)
(-5.19338e-08 2.22191e-08 2.92649e-09)
(-5.1376e-08 2.26344e-08 3.59963e-09)
(-4.31841e-08 1.61882e-08 3.30371e-09)
(-1.55929e-08 4.06717e-09 1.06448e-09)
(-4.35652e-08 1.59494e-08 2.84619e-09)
(-4.42149e-08 1.99077e-08 2.08191e-08)
(-4.59628e-08 2.27e-08 1.49128e-08)
(-4.04586e-08 1.66544e-08 7.27604e-09)
(-1.44091e-08 4.47529e-09 2.91993e-09)
(-3.99589e-08 1.65137e-08 8.90062e-09)
(-4.73003e-08 2.35827e-08 9.97479e-09)
(-4.62271e-08 2.30632e-08 1.35099e-08)
(-3.84971e-08 1.48983e-08 1.40963e-08)
(-1.43439e-08 4.4591e-09 3.62209e-09)
(-3.96053e-08 1.62032e-08 1.09612e-08)
(-3.90501e-08 3.76427e-08 3.46795e-08)
(-4.00301e-08 4.30512e-08 2.61261e-08)
(-3.691e-08 4.34081e-08 1.77202e-08)
(-3.62845e-08 4.27533e-08 2.41437e-08)
(-3.54873e-08 3.60889e-08 3.43925e-08)
(-3.60771e-08 4.29389e-08 2.64894e-08)
(-4.14332e-08 4.44019e-08 1.76719e-08)
(-4.03716e-08 4.37084e-08 2.37873e-08)
(-3.12361e-08 1.74242e-08 3.4637e-08)
(-3.81042e-08 2.86793e-08 3.47276e-08)
(-4.65653e-08 2.13968e-08 4.41413e-08)
(-3.88883e-08 2.1071e-08 2.70476e-08)
(-3.22233e-08 2.27998e-08 2.75887e-08)
(-3.75789e-08 2.39764e-08 4.14894e-08)
(-3.78531e-08 1.5797e-08 3.37631e-08)
(-2.4503e-08 1.03545e-08 3.75848e-08)
(-3.3151e-08 2.09475e-08 4.81624e-08)
(-2.24235e-08 7.18155e-09 3.29514e-08)
(-5.26284e-09 -2.14331e-10 9.73692e-09)
(-3.13704e-08 5.42607e-09 3.22083e-08)
(-3.64651e-09 -5.62109e-11 9.53451e-09)
(-2.72549e-08 1.06538e-08 3.72709e-08)
(-4.64806e-08 1.82833e-08 4.724e-08)
(-3.666e-08 2.17963e-08 4.76732e-08)
(-3.72137e-08 8.40677e-09 3.63745e-08)
(-3.86089e-08 3.56142e-08 3.76503e-08)
(-3.78433e-08 2.81563e-08 4.79438e-08)
(-3.3752e-08 2.42042e-08 5.08674e-08)
(-3.47758e-08 3.32506e-08 3.76178e-08)
(-3.38416e-08 2.70194e-08 4.82422e-08)
(-3.78908e-08 2.59892e-08 5.06429e-08)
(-4.34527e-08 1.82888e-08 2.32493e-08)
(-4.17294e-08 1.017e-08 3.31316e-08)
(-6.24049e-09 -5.56814e-10 1.02397e-08)
(-3.53752e-08 3.68425e-09 3.19434e-08)
(-4.13118e-08 6.55874e-09 3.62166e-08)
(-3.64447e-08 1.24485e-08 1.83253e-08)
(-1.43858e-08 2.24561e-09 1.07164e-08)
(-3.49381e-08 8.31261e-09 2.38037e-08)
(1.75152e-07 -6.09924e-08 2.13103e-08)
(1.90239e-07 -6.96394e-08 3.59841e-09)
(1.86747e-07 -6.03912e-08 1.05953e-08)
(1.82312e-07 -7.03863e-08 1.28453e-08)
(1.07004e-07 -3.48283e-08 1.7825e-08)
(1.16415e-07 -3.96875e-08 4.86439e-09)
(1.00643e-07 -2.9172e-08 9.33568e-09)
(9.93355e-08 -3.51209e-08 1.19313e-08)
(9.51427e-08 -3.02265e-08 1.71039e-08)
(1.13681e-07 -3.4289e-08 9.53307e-09)
(1.12282e-07 -4.05958e-08 1.20608e-08)
(3.44473e-08 -9.96791e-09 1.31737e-08)
(2.90271e-08 -8.54894e-09 9.98038e-09)
(3.7533e-08 -1.10573e-08 5.72802e-09)
(2.8792e-08 -6.54952e-09 7.87826e-09)
(3.62966e-08 -9.39357e-09 8.04461e-09)
(3.64849e-08 -1.1599e-08 1.01983e-08)
(2.76513e-08 -7.38077e-09 1.26503e-08)
(7.48374e-08 -2.38399e-08 1.58666e-08)
(8.13591e-08 -2.6798e-08 5.37496e-09)
(9.07375e-08 -2.71812e-08 9.16318e-09)
(8.94955e-08 -3.18771e-08 1.17646e-08)
(8.52535e-08 -2.75088e-08 1.64673e-08)
(7.94055e-08 -2.2965e-08 8.92103e-09)
(7.82528e-08 -2.7344e-08 1.13865e-08)
(-3.73091e-08 1.67699e-08 5.94133e-09)
(-3.70137e-08 1.8518e-08 5.35068e-09)
(-4.11592e-08 1.8952e-08 3.81211e-09)
(-3.80448e-08 1.58354e-08 4.50208e-09)
(-3.52222e-08 1.59831e-08 6.13324e-09)
(-4.02572e-08 1.6756e-08 4.41016e-09)
(-3.92386e-08 1.9549e-08 5.18403e-09)
(-3.02234e-08 1.52537e-08 7.54096e-09)
(-3.81228e-08 2.1498e-08 7.67158e-09)
(-3.22286e-08 1.67391e-08 7.03248e-09)
(-3.58921e-08 1.98685e-08 8.09634e-09)
(-2.81056e-08 1.4372e-08 8.03984e-09)
(-2.99092e-08 1.64528e-08 9.43639e-09)
(-2.51875e-08 1.2633e-08 8.88553e-09)
(-3.31642e-08 1.83996e-08 8.66834e-09)
(-4.50024e-08 2.03239e-08 5.37368e-09)
(-4.96944e-08 2.27582e-08 3.88995e-09)
(-4.98362e-08 2.08508e-08 4.3131e-09)
(-4.87866e-08 2.43764e-08 4.90961e-09)
(-4.61732e-08 2.11053e-08 5.31114e-09)
(-4.84745e-08 2.00967e-08 4.25954e-09)
(-4.73869e-08 2.35539e-08 4.87888e-09)
(-5.09807e-08 2.44893e-08 5.19734e-09)
(-5.41329e-08 2.88841e-08 5.11351e-09)
(-5.64647e-08 2.73426e-08 4.55271e-09)
(-5.55242e-08 2.4678e-08 4.6133e-09)
(-5.50785e-08 2.41273e-08 4.58446e-09)
(-5.36924e-08 2.83111e-08 5.10374e-09)
(-5.12786e-08 2.50449e-08 5.15468e-09)
(-3.45949e-08 1.86558e-08 6.44887e-09)
(-3.98021e-08 2.27098e-08 7.35015e-09)
(-3.35413e-08 1.74493e-08 6.76108e-09)
(-4.09729e-08 2.40252e-08 7.11023e-09)
(-3.51214e-08 1.92423e-08 6.26085e-09)
(-4.19775e-08 2.59674e-08 6.64217e-09)
(-4.16741e-08 2.49547e-08 6.87663e-09)
(-3.5385e-08 2.01808e-08 5.96097e-09)
(-4.81198e-08 2.20228e-08 5.26267e-09)
(-5.31942e-08 2.46219e-08 4.17214e-09)
(-5.07579e-08 2.11828e-08 4.33074e-09)
(-4.96978e-08 2.49117e-08 4.94718e-09)
(-4.71054e-08 2.15352e-08 5.29177e-09)
(-5.18317e-08 2.17658e-08 4.39496e-09)
(-5.0756e-08 2.55374e-08 4.96744e-09)
(-5.19962e-08 3.03252e-08 3.05813e-09)
(-5.46022e-08 3.47546e-08 3.24228e-09)
(-5.80621e-08 3.39428e-08 2.94229e-09)
(-5.68692e-08 2.98084e-08 2.98682e-09)
(-5.19373e-08 3.0209e-08 3.17642e-09)
(-5.68935e-08 3.00264e-08 2.89099e-09)
(-5.46005e-08 3.49857e-08 3.12938e-09)
(-5.19658e-08 3.10984e-08 2.62347e-09)
(-5.80966e-08 3.47821e-08 2.57663e-09)
(-5.69738e-08 3.0927e-08 2.46254e-09)
(-5.46275e-08 3.60738e-08 2.66452e-09)
(-5.19226e-08 3.1341e-08 2.55625e-09)
(-5.69387e-08 3.07455e-08 2.49748e-09)
(-5.45527e-08 3.58633e-08 2.70158e-09)
(-5.16157e-08 3.23855e-08 2.68331e-09)
(-5.42637e-08 3.74953e-08 2.72164e-09)
(-5.79818e-08 3.56567e-08 2.56478e-09)
(-5.66487e-08 3.17837e-08 2.56359e-09)
(-5.66533e-08 3.13818e-08 2.53073e-09)
(-5.42812e-08 3.7238e-08 2.6931e-09)
(-5.14958e-08 3.26121e-08 2.67047e-09)
(-5.19455e-08 3.14998e-08 2.47778e-09)
(-5.81344e-08 3.51402e-08 2.5669e-09)
(-5.69501e-08 3.10275e-08 2.41263e-09)
(-5.46157e-08 3.62416e-08 2.64142e-09)
(-5.19124e-08 3.14384e-08 2.51647e-09)
(-5.6932e-08 3.10247e-08 2.41425e-09)
(-5.45921e-08 3.6224e-08 2.65642e-09)
(-4.81768e-08 3.40961e-08 7.60818e-09)
(-5.11104e-08 3.87119e-08 7.57471e-09)
(-5.42655e-08 3.77084e-08 7.94336e-09)
(-5.3472e-08 3.35309e-08 6.82148e-09)
(-4.84532e-08 3.3868e-08 6.99586e-09)
(-5.31144e-08 3.36948e-08 7.47284e-09)
(-5.07081e-08 3.88281e-08 8.24917e-09)
(-4.63093e-08 3.49765e-08 1.18496e-08)
(-5.22692e-08 3.84233e-08 1.25371e-08)
(-5.06589e-08 3.4247e-08 1.27046e-08)
(-4.84355e-08 3.98784e-08 1.433e-08)
(-4.58536e-08 3.51238e-08 1.29927e-08)
(-5.10512e-08 3.42779e-08 1.15524e-08)
(-4.87933e-08 3.99342e-08 1.30067e-08)
(-4.30139e-08 3.10461e-08 2.57141e-08)
(-4.47596e-08 3.36715e-08 3.13157e-08)
(-4.84241e-08 3.35859e-08 2.77269e-08)
(-4.69247e-08 2.86629e-08 2.8195e-08)
(-4.73866e-08 2.98696e-08 2.54492e-08)
(-4.52131e-08 3.52319e-08 2.843e-08)
(-4.25261e-08 2.95763e-08 2.83376e-08)
(-4.50758e-08 3.4589e-08 1.56439e-08)
(-5.09228e-08 3.76373e-08 1.68163e-08)
(-5.02204e-08 3.4104e-08 1.39129e-08)
(-4.79664e-08 3.97427e-08 1.57794e-08)
(-4.54342e-08 3.48984e-08 1.42375e-08)
(-4.97247e-08 3.35478e-08 1.53498e-08)
(-4.75143e-08 3.91883e-08 1.74108e-08)