/*--------------------------------*- C++ -*----------------------------------*\
| =========                 |                                                 |
| \\      /  F ield         | OpenFOAM: The Open Source CFD Toolbox           |
|  \\    /   O peration     | Version:  2012                                  |
|   \\  /    A nd           | Website:  www.openfoam.com                      |
|    \\/     M anipulation  |                                                 |
\*---------------------------------------------------------------------------*/
FoamFile
{
    version     2.0;
    format      ascii;
    class       volVectorField;
    location    "0.104/fluid";
    object      cellMotionU;
}
// * * * * * * * * * * * * * * * * * * * * * * * * * * * * * * * * * * * * * //

dimensions      [0 1 -1 0 0 0 0];


internalField   nonuniform List<vector> 
16421
(
(7.25949e-07 -3.83513e-08 6.28471e-09)
(5.74879e-06 -1.00899e-07 6.22492e-08)
(8.64728e-06 5.34097e-07 1.25767e-07)
(9.53249e-06 1.86048e-06 1.83377e-07)
(8.81326e-06 3.79094e-06 2.41875e-07)
(6.7048e-06 6.12074e-06 3.02198e-07)
(3.23193e-06 8.58242e-06 3.54727e-07)
(-1.88424e-06 1.09693e-05 4.00456e-07)
(-7.53138e-06 1.25144e-05 4.22593e-07)
(-1.24659e-05 1.2643e-05 3.99442e-07)
(-1.51785e-05 1.09909e-05 3.06703e-07)
(-1.3831e-05 7.64272e-06 1.48471e-07)
(-8.15677e-06 3.57201e-06 -2.88392e-09)
(-2.49519e-06 8.38487e-07 -3.96971e-08)
(1.8199e-11 -9.74695e-10 -1.4514e-10)
(6.42387e-06 -2.67229e-07 5.57403e-08)
(5.08243e-05 -3.78781e-07 5.91536e-07)
(7.54871e-05 5.35554e-06 1.14027e-06)
(8.30939e-05 1.71676e-05 1.65051e-06)
(7.77742e-05 3.38441e-05 2.14416e-06)
(6.03876e-05 5.41232e-05 2.70384e-06)
(2.98214e-05 7.59176e-05 3.17966e-06)
(-1.33155e-05 9.6135e-05 3.56015e-06)
(-6.12229e-05 0.000109417 3.75927e-06)
(-0.000102868 0.000110667 3.59775e-06)
(-0.000125161 9.65752e-05 2.86408e-06)
(-0.000113947 6.78253e-05 1.55614e-06)
(-6.9267e-05 3.26431e-05 1.22827e-07)
(-2.52318e-05 8.55381e-06 -4.63662e-07)
(-1.14557e-06 2.81608e-07 -3.67694e-08)
(1.15338e-05 -3.47671e-07 1.07398e-07)
(9.01015e-05 3.75167e-07 1.09528e-06)
(0.000132802 1.10847e-05 2.03925e-06)
(0.000148547 3.12782e-05 2.87283e-06)
(0.000145218 5.93898e-05 3.80839e-06)
(0.000119569 9.43836e-05 4.94082e-06)
(6.95276e-05 0.000132059 5.87183e-06)
(-2.49053e-06 0.000167221 6.53464e-06)
(-8.48079e-05 0.000191805 7.00931e-06)
(-0.000157022 0.00019658 6.88603e-06)
(-0.000196938 0.000175801 5.89374e-06)
(-0.000182862 0.00012854 3.85773e-06)
(-0.000118302 6.61815e-05 8.95277e-07)
(-4.94078e-05 1.82691e-05 -9.86831e-07)
(-3.2261e-06 5.27092e-07 -1.3019e-07)
(1.5248e-05 -3.46352e-07 1.43039e-07)
(0.000120785 1.72416e-06 1.46714e-06)
(0.000179088 1.63873e-05 2.75566e-06)
(0.000204464 4.16911e-05 3.97843e-06)
(0.000207795 7.53278e-05 5.18756e-06)
(0.000181117 0.000117887 6.69174e-06)
(0.000119332 0.000165434 7.80569e-06)
(3.11217e-05 0.000209439 8.82872e-06)
(-7.44831e-05 0.000241286 9.52595e-06)
(-0.000167641 0.000249495 9.58854e-06)
(-0.000219396 0.000226697 8.58652e-06)
(-0.000209178 0.00017204 6.24311e-06)
(-0.000145707 9.60467e-05 2.12803e-06)
(-7.0039e-05 3.04623e-05 -1.37923e-06)
(-5.40524e-06 9.88487e-07 -1.87494e-07)
(7.77979e-07 -4.35421e-08 6.1937e-08)
(6.24877e-06 -1.46371e-07 5.86645e-07)
(9.40787e-06 5.04017e-07 1.12767e-06)
(1.04982e-05 1.86664e-06 1.63039e-06)
(1.00113e-05 3.85163e-06 2.14176e-06)
(8.22205e-06 6.22573e-06 2.66192e-06)
(5.1672e-06 8.68423e-06 3.11709e-06)
(8.13077e-07 1.10426e-05 3.52778e-06)
(-4.25558e-06 1.26475e-05 3.7134e-06)
(-8.83051e-06 1.28245e-05 3.49125e-06)
(-1.17731e-05 1.1296e-05 2.68403e-06)
(-1.1504e-05 8.08914e-06 1.34427e-06)
(-8.00521e-06 4.22288e-06 -5.91665e-09)
(-3.66675e-06 1.39611e-06 -4.94872e-07)
(-3.70953e-07 1.16161e-07 -1.09861e-07)
(7.02554e-06 -3.36458e-07 5.93271e-07)
(5.54548e-05 -8.60664e-07 5.43481e-06)
(8.25274e-05 5.00648e-06 1.01804e-05)
(9.23119e-05 1.71568e-05 1.47286e-05)
(8.93186e-05 3.44117e-05 1.92852e-05)
(7.48379e-05 5.50993e-05 2.39926e-05)
(4.82403e-05 7.69075e-05 2.8207e-05)
(1.06209e-05 9.7227e-05 3.16977e-05)
(-3.28958e-05 0.000111339 3.35127e-05)
(-7.20527e-05 0.000113498 3.19992e-05)
(-9.57679e-05 0.000100063 2.53913e-05)
(-9.34235e-05 7.23368e-05 1.42672e-05)
(-6.68763e-05 3.8216e-05 1.63017e-06)
(-3.39322e-05 1.20829e-05 -5.3173e-06)
(-8.86585e-06 1.70925e-06 -3.18915e-06)
(1.23917e-05 -4.56528e-07 1.07302e-06)
(9.82094e-05 -4.07287e-07 9.99781e-06)
(0.000146561 1.02293e-05 1.86456e-05)
(0.000167308 3.05491e-05 2.67061e-05)
(0.000168223 5.96742e-05 3.5152e-05)
(0.00014781 9.55032e-05 4.39076e-05)
(0.000104304 0.000133875 5.20891e-05)
(4.05013e-05 0.000170017 5.89803e-05)
(-3.38342e-05 0.000195996 6.30796e-05)
(-0.000100799 0.000202328 6.20599e-05)
(-0.000140044 0.000181994 5.30739e-05)
(-0.000137789 0.000136561 3.55509e-05)
(-0.000106135 7.59191e-05 9.31405e-06)
(-6.87681e-05 2.38088e-05 -1.25069e-05)
(-2.31652e-05 1.19507e-06 -1.01011e-05)
(1.63556e-05 -4.36924e-07 1.45715e-06)
(0.000130708 9.57304e-07 1.36771e-05)
(0.000197713 1.55424e-05 2.60242e-05)
(0.000230707 4.09002e-05 3.76155e-05)
(0.000240097 7.61005e-05 4.94619e-05)
(0.000220998 0.000119533 6.1171e-05)
(0.000168505 0.000167628 7.25445e-05)
(8.87864e-05 0.000213597 8.23878e-05)
(-5.80938e-06 0.00024734 8.86529e-05)
(-9.16298e-05 0.000257376 8.87057e-05)
(-0.000141094 0.000235373 7.99025e-05)
(-0.000141645 0.000180856 5.8414e-05)
(-0.000116013 0.00010395 1.96735e-05)
(-9.18886e-05 3.40785e-05 -1.8528e-05)
(-7.75231e-06 3.41795e-06 -2.90462e-06)
(9.06105e-07 -5.64964e-08 1.10837e-07)
(7.42818e-06 -2.53495e-07 1.03926e-06)
(1.14295e-05 3.84244e-07 1.99646e-06)
(1.30725e-05 1.80788e-06 2.89093e-06)
(1.32393e-05 3.74941e-06 3.72349e-06)
(1.24393e-05 5.97086e-06 4.55425e-06)
(1.04505e-05 8.41761e-06 5.3687e-06)
(7.411e-06 1.07788e-05 6.06764e-06)
(3.66005e-06 1.24477e-05 6.37553e-06)
(-8.34203e-08 1.28757e-05 6.05131e-06)
(-3.28752e-06 1.16084e-05 4.71139e-06)
(-4.90588e-06 8.60555e-06 2.52291e-06)
(-5.25045e-06 4.95643e-06 1.7487e-07)
(-3.66769e-06 1.90914e-06 -9.21018e-07)
(-6.33031e-07 2.4377e-07 -2.31227e-07)
(8.10174e-06 -4.55225e-07 1.02808e-06)
(6.53326e-05 -1.78997e-06 9.40611e-06)
(0.000100077 3.82305e-06 1.77209e-05)
(0.000115795 1.61688e-05 2.57114e-05)
(0.000119245 3.37244e-05 3.36863e-05)
(0.00011251 5.43994e-05 4.16375e-05)
(9.49739e-05 7.63888e-05 4.91781e-05)
(6.86985e-05 9.66635e-05 5.5153e-05)
(3.5453e-05 0.000112333 5.84134e-05)
(3.37244e-06 0.000116669 5.61256e-05)
(-2.16753e-05 0.00010602 4.5649e-05)
(-3.55277e-05 8.05927e-05 2.74301e-05)
(-4.00307e-05 4.60516e-05 4.37384e-06)
(-3.54862e-05 1.64819e-05 -1.0366e-05)
(-1.6144e-05 3.52897e-06 -7.01046e-06)
(1.46251e-05 -6.86074e-07 1.94003e-06)
(0.000117268 -2.13045e-06 1.75576e-05)
(0.000180619 8.08714e-06 3.29638e-05)
(0.000212051 2.87458e-05 4.71782e-05)
(0.000222612 5.93098e-05 6.17116e-05)
(0.000214837 9.57763e-05 7.64102e-05)
(0.000187457 0.000134312 9.04855e-05)
(0.000142475 0.000172018 0.000102972)
(8.6739e-05 0.000200695 0.000110604)
(3.26045e-05 0.000210833 0.000109217)
(-1.42871e-06 0.00019389 9.53294e-05)
(-1.72675e-05 0.00015051 6.66009e-05)
(-3.56586e-05 8.65981e-05 1.9982e-05)
(-7.60386e-05 2.63267e-05 -2.54048e-05)
(-5.52595e-05 -2.92731e-06 -2.72954e-05)
(1.92591e-05 -6.34598e-07 2.66026e-06)
(0.00015659 -6.91208e-07 2.44472e-05)
(0.000244267 1.24905e-05 4.56512e-05)
(0.000292629 3.82515e-05 6.58746e-05)
(0.000314312 7.57145e-05 8.61872e-05)
(0.000311878 0.000120151 0.000106041)
(0.000280092 0.000169018 0.000125451)
(0.000224191 0.000215779 0.000142342)
(0.000152833 0.000252291 0.000153299)
(8.44534e-05 0.000266436 0.000153422)
(4.49891e-05 0.000245885 0.000138375)
(2.95227e-05 0.000190095 0.000102309)
(-5.99817e-06 0.000108708 3.72418e-05)
(-8.95732e-05 3.33692e-05 -2.93334e-05)
(-4.94224e-06 4.73051e-06 -7.23005e-06)
(-1.54804e-08 1.8708e-09 -5.78715e-11)
(-1.84084e-05 6.25282e-06 -3.18778e-07)
(-2.23425e-06 5.97877e-07 -1.04851e-07)
(-3.27255e-06 1.18932e-06 -3.4091e-07)
(-7.17053e-07 2.20794e-07 -1.47989e-07)
(-2.37536e-05 8.35313e-06 -2.76221e-06)
(-7.32058e-06 1.86866e-06 -1.77847e-06)
(-8.68475e-07 2.17758e-07 -2.80274e-08)
(-2.86225e-07 8.57252e-08 -7.23229e-08)
(-4.1766e-06 9.83624e-07 -1.21648e-06)
(-3.00799e-07 2.37776e-07 -1.15405e-07)
(-2.92376e-06 5.04289e-07 -1.13688e-07)
(-6.34662e-06 1.25488e-06 -1.96941e-06)
(-8.19603e-07 6.04202e-07 -2.63133e-07)
(-1.32245e-05 1.24024e-06 -4.96428e-06)
(-8.0218e-07 1.05585e-06 -8.63885e-07)
(-5.14118e-06 9.39533e-07 -1.9702e-07)
(-1.53958e-05 1.35214e-06 -5.90813e-06)
(5.33766e-07 9.04122e-07 -9.74835e-07)
(-1.34424e-05 3.15014e-06 -4.82848e-06)
(1.0277e-05 4.69584e-06 6.77876e-08)
(-6.76038e-06 3.2122e-06 -1.33873e-06)
(1.39126e-05 7.66062e-06 -4.02142e-11)
(-5.56531e-06 1.33832e-06 -1.86151e-06)
(-6.1688e-07 4.71062e-07 -1.85732e-07)
(-5.8204e-07 2.12584e-07 -2.08071e-07)
(-8.94718e-06 2.43367e-06 -3.60204e-06)
(-1.44927e-06 1.19675e-06 -3.56646e-07)
(1.71413e-05 7.67612e-06 -3.373e-07)
(-5.03659e-06 3.81774e-06 -5.96366e-06)
(4.58897e-05 -4.60823e-06 -1.44371e-06)
(-9.52849e-06 2.68296e-06 -3.93358e-06)
(-1.58318e-06 1.31492e-06 -3.86874e-07)
(5.04316e-05 -6.61683e-06 -1.42867e-06)
(-8.55742e-08 2.30198e-08 -2.35417e-08)
(-9.16171e-08 2.2321e-08 -9.78079e-10)
(-7.66342e-08 2.12768e-08 -1.04403e-08)
(-6.48704e-07 1.76217e-07 -9.75425e-08)
(-2.80275e-09 1.71377e-09 -9.47008e-10)
(-3.50588e-06 8.94676e-07 -1.71377e-07)
(-4.34784e-05 1.56018e-05 -8.58644e-07)
(-7.24952e-06 1.53499e-06 -4.27295e-07)
(-3.12237e-05 1.08187e-05 -3.80801e-06)
(-1.04336e-05 2.36027e-06 -2.70014e-06)
(-5.51409e-05 1.8904e-05 -7.64307e-06)
(-2.12574e-05 3.24066e-06 -6.493e-06)
(-9.618e-07 1.29952e-07 -3.21177e-07)
(-1.93483e-06 4.15515e-07 -6.58201e-08)
(-1.92654e-06 4.2448e-07 -3.42842e-07)
(-5.61217e-07 1.12858e-07 -1.69088e-07)
(-2.66406e-06 5.14312e-07 -5.05788e-07)
(-8.548e-06 1.77355e-06 -5.31083e-07)
(-6.4535e-05 2.71494e-05 -1.32795e-06)
(-1.24964e-05 2.99643e-06 -7.84898e-07)
(-6.30004e-05 2.22721e-05 -8.74492e-06)
(-2.48014e-05 3.74391e-06 -7.78378e-06)
(-8.26541e-05 3.18135e-05 -1.27669e-05)
(-2.94531e-05 6.2172e-06 -9.05833e-06)
(-1.66919e-06 -6.56386e-08 -8.08615e-07)
(-4.03018e-06 6.34088e-07 -1.70934e-07)
(-4.92612e-06 6.19525e-07 -1.12433e-06)
(-1.44934e-06 4.46687e-08 -6.06985e-07)
(-5.60914e-06 7.21375e-07 -1.322e-06)
(-1.34069e-05 3.33942e-06 -7.6066e-07)
(-8.4978e-05 3.35093e-05 -1.32441e-05)
(-2.5869e-05 6.10764e-06 -7.22117e-06)
(-5.80808e-06 1.21511e-06 -6.62084e-07)
(5.92834e-07 7.412e-07 8.95499e-07)
(1.19156e-06 1.83679e-06 -1.80426e-06)
(-1.52116e-05 3.49922e-06 -6.73352e-06)
(1.59629e-05 4.70626e-06 -5.0099e-07)
(-4.79929e-05 -1.17729e-06 -2.3593e-05)
(5.71792e-06 5.69609e-06 -4.25204e-06)
(-2.12586e-05 2.31548e-06 -1.31711e-05)
(3.74043e-05 -3.31269e-06 -1.45355e-06)
(-3.01113e-05 6.55525e-06 -1.00705e-05)
(-9.43769e-05 3.35051e-05 -2.79021e-05)
(-4.13043e-05 6.30487e-06 -1.78679e-05)
(8.87738e-06 3.60459e-06 3.15687e-06)
(-7.05449e-06 3.62981e-06 -3.89171e-06)
(1.33794e-05 3.33769e-06 3.24173e-06)
(7.3634e-06 7.42959e-06 -4.66554e-06)
(-2.13926e-05 2.17956e-06 -1.442e-05)
(4.53284e-05 -5.51483e-06 -1.40734e-06)
(-4.15078e-05 6.66897e-06 -1.90132e-05)
(2.91411e-05 3.62199e-06 3.29027e-06)
(-1.55617e-06 6.56907e-06 -7.43488e-06)
(3.50834e-05 5.48778e-06 3.42161e-06)
(-2.22461e-06 6.6927e-07 -1.77831e-07)
(-5.21619e-07 1.56507e-07 -1.38291e-08)
(-1.92568e-07 5.18751e-08 -2.22866e-09)
(-1.4706e-07 4.20127e-08 -1.74153e-08)
(-1.08026e-06 3.02298e-07 -1.39766e-07)
(-1.43846e-06 4.34173e-07 -4.11133e-08)
(-7.77505e-07 2.36093e-07 -5.97221e-08)
(-2.86026e-08 9.1711e-09 -1.06358e-08)
(1.29249e-08 4.17725e-09 2.41429e-10)
(4.97635e-10 7.1187e-10 9.27959e-13)
(-1.58586e-07 3.86352e-08 -4.26489e-08)
(-1.47697e-07 3.09567e-08 -3.42962e-09)
(-1.22913e-06 2.98774e-07 -2.0342e-07)
(-9.6309e-07 2.57025e-07 -1.51413e-07)
(-4.55421e-07 9.78977e-08 -1.32572e-07)
(-6.82654e-08 1.7408e-08 -2.32848e-08)
(2.89013e-09 2.04252e-08 -1.58491e-08)
(1.64447e-08 1.54671e-09 -9.80385e-10)
(-2.41747e-07 5.27182e-08 -8.49824e-08)
(-5.58903e-08 1.75192e-08 -2.08886e-08)
(-2.18003e-09 1.78483e-09 -9.12415e-10)
(1.78318e-08 5.40672e-09 -2.09107e-09)
(1.53916e-08 3.83496e-09 8.64329e-11)
(-1.58461e-07 5.37942e-08 -5.80354e-08)
(1.5412e-10 8.59466e-10 -1.27425e-10)
(-5.31409e-07 6.96374e-08 -2.08933e-07)
(-7.26018e-09 3.61091e-08 -2.17572e-08)
(-3.09041e-07 6.47735e-08 -1.09603e-07)
(-4.59791e-08 6.98739e-08 -4.85955e-08)
(-1.08507e-06 1.25617e-07 -3.75923e-07)
(-2.17457e-06 4.46732e-07 -7.56157e-08)
(-4.09357e-06 5.85168e-07 -8.87391e-07)
(-3.31946e-06 5.60797e-07 -6.69923e-07)
(-1.38038e-06 5.96079e-08 -5.53682e-07)
(-5.8337e-07 6.74674e-08 -2.40406e-07)
(1.22875e-07 5.39322e-08 -8.57912e-08)
(-4.0223e-08 8.06185e-08 -5.96156e-08)
(-7.17204e-07 1.17037e-08 -3.66952e-07)
(-6.1804e-07 -6.68933e-08 -4.74354e-07)
(2.24952e-07 5.6495e-08 -8.98129e-08)
(-7.18039e-07 1.22217e-08 -3.90226e-07)
(6.96993e-07 1.56255e-08 -1.10274e-07)
(-1.57483e-06 3.647e-08 -7.55233e-07)
(-4.28291e-06 7.09941e-07 -1.78314e-07)
(-6.44422e-06 1.16143e-06 -1.2774e-06)
(-6.0518e-06 9.22022e-07 -1.3641e-06)
(-4.82083e-07 4.93355e-07 6.27082e-09)
(-4.3299e-07 3.8061e-08 -3.97689e-07)
(2.12473e-06 1.29628e-06 1.33889e-07)
(9.27879e-07 1.51956e-07 -9.13818e-08)
(7.09985e-07 8.39273e-07 3.9687e-07)
(2.98126e-06 2.79795e-06 4.7392e-07)
(1.84966e-06 1.58893e-06 1.44629e-06)
(-6.3713e-06 2.36836e-06 -5.65803e-07)
(5.60446e-06 3.45096e-06 3.20416e-06)
(2.4778e-06 2.2662e-06 2.51621e-06)
(5.6521e-06 5.1135e-06 6.45485e-07)
(8.56356e-06 5.8279e-06 2.60535e-06)
(3.74241e-06 3.37048e-06 2.40154e-06)
(-2.97266e-07 1.17801e-07 -1.08254e-07)
(-2.34458e-09 1.85203e-09 -1.00245e-09)
(1.53939e-08 7.05168e-09 -2.60301e-09)
(-1.93645e-07 6.7048e-08 -7.16578e-08)
(1.60811e-09 1.92748e-08 -2.8793e-09)
(-3.72666e-09 2.4966e-09 -1.53052e-09)
(-3.31707e-07 1.34027e-07 -1.20963e-07)
(-6.20419e-09 3.7469e-09 -2.22055e-09)
(-7.20689e-09 2.64059e-08 -4.75664e-09)
(-2.83089e-10 2.11187e-08 -3.00946e-09)
(-4.22885e-07 1.79889e-07 -1.50654e-07)
(-3.33646e-09 2.3164e-09 -1.47085e-09)
(1.10495e-05 6.27021e-06 2.68073e-06)
(2.82421e-05 4.05071e-06 -1.21764e-06)
(1.83098e-05 4.96072e-06 2.21794e-06)
(-4.6156e-06 3.59672e-06 -4.32208e-06)
(2.43375e-05 2.79125e-06 3.50479e-06)
(1.93093e-05 3.02848e-06 3.66813e-06)
(3.21773e-05 2.71551e-06 -1.47299e-06)
(3.00402e-05 1.20013e-06 2.012e-06)
(2.19595e-05 4.38314e-06 2.40336e-06)
(-5.15766e-07 2.18679e-07 -1.82842e-07)
(-6.24065e-09 3.771e-09 -2.27107e-09)
(-8.11454e-09 2.69784e-08 -5.03407e-09)
(-4.43076e-07 1.89333e-07 -1.58545e-07)
(-8.58843e-09 2.28522e-08 -5.14973e-09)
(-7.5745e-09 4.51037e-09 -2.62189e-09)
(-5.38274e-07 2.27217e-07 -1.93476e-07)
(-7.59949e-09 2.19637e-08 -5.25128e-09)
(-7.48785e-09 4.46927e-09 -2.6251e-09)
(3.39339e-05 3.40572e-07 2.17835e-06)
(6.5708e-05 -1.01661e-05 -6.53167e-07)
(4.17494e-05 -9.96344e-07 1.9897e-06)
(7.05952e-05 -1.08548e-05 -4.56422e-07)
(4.51657e-05 -8.91562e-07 1.92023e-06)
(-1.75579e-09 -9.8906e-10 -1.31498e-09)
(-9.67706e-09 2.23563e-09 -4.59664e-10)
(-4.12883e-08 8.75488e-09 8.93085e-09)
(-7.89118e-11 3.80907e-10 -1.84857e-10)
(-8.56407e-07 2.73661e-07 -2.2426e-07)
(-2.57194e-05 9.43642e-06 -3.8181e-06)
(-9.13005e-06 2.34066e-06 -2.65275e-06)
(-3.66111e-06 1.75315e-06 -8.34001e-07)
(-1.20903e-06 4.48338e-07 -4.16331e-07)
(-2.75455e-05 1.22956e-05 -6.88978e-06)
(-1.32368e-05 3.75667e-06 -5.05686e-06)
(-5.49286e-07 1.80385e-07 -1.95313e-07)
(-2.26528e-08 8.76629e-09 -7.36683e-09)
(-1.37791e-06 4.09551e-07 -4.18773e-07)
(-4.45683e-07 1.46097e-07 -1.45106e-07)
(-4.36014e-07 1.34699e-07 -1.45448e-07)
(-1.64502e-06 5.11228e-07 -5.47916e-07)
(-2.67802e-08 1.07081e-08 -9.70771e-09)
(-1.54958e-06 1.21005e-06 -4.22054e-07)
(-1.97819e-05 1.4882e-06 -8.22454e-06)
(-1.61196e-06 2.3512e-06 -1.56362e-06)
(-1.47589e-05 3.12558e-06 -6.23431e-06)
(-3.56984e-06 3.12775e-06 -8.56811e-07)
(-4.19119e-05 7.78986e-07 -1.99215e-05)
(-3.16307e-06 7.57538e-06 -3.9616e-06)
(-1.26476e-06 4.95969e-07 -4.53181e-07)
(-2.66574e-05 1.30813e-05 -7.38841e-06)
(-1.3832e-05 4.11164e-06 -5.51675e-06)
(-8.54934e-07 3.29978e-07 -3.25181e-07)
(-4.70218e-08 2.07846e-08 -1.60989e-08)
(-2.26699e-06 8.17223e-07 -8.59767e-07)
(-6.323e-07 2.52682e-07 -2.37006e-07)
(-7.96713e-07 2.98295e-07 -2.99882e-07)
(-2.36108e-06 8.91222e-07 -9.12108e-07)
(-5.29179e-08 2.42171e-08 -1.80506e-08)
(-3.90305e-06 3.48869e-06 -9.27237e-07)
(-4.72572e-05 2.03873e-07 -2.267e-05)
(-3.01998e-06 9.29141e-06 -4.31569e-06)
(-2.78883e-07 7.65087e-08 -9.80847e-09)
(-8.7825e-08 2.46605e-08 -9.62323e-10)
(-1.29548e-08 1.44566e-09 -5.23968e-09)
(-3.83615e-08 8.94452e-09 -5.89308e-10)
(-9.20669e-08 2.16227e-08 6.53685e-09)
(-1.7105e-07 4.64642e-08 -1.32373e-09)
(-1.17547e-07 3.34637e-08 -4.5445e-09)
(-4.25491e-06 1.27248e-06 -3.6523e-07)
(-9.90873e-07 2.73512e-07 -4.23701e-08)
(-5.68959e-06 1.66664e-06 -1.88633e-07)
(-3.29449e-06 8.73195e-07 -4.06747e-07)
(-1.83949e-06 5.12277e-07 -2.11254e-07)
(-6.80989e-06 1.97973e-06 -6.31488e-07)
(-3.23716e-06 9.78945e-07 -9.68864e-08)
(1.62409e-10 -1.84278e-10 1.89198e-11)
(5.40035e-09 -1.05639e-09 4.60455e-10)
(3.1309e-09 -1.43695e-10 1.12336e-09)
(-5.98956e-11 -1.09583e-10 -6.02995e-10)
(-2.01393e-07 5.67136e-08 -5.32171e-08)
(-2.02892e-07 5.85978e-08 -3.90991e-08)
(-1.85334e-08 7.1662e-09 -5.89991e-09)
(-1.06647e-06 3.04969e-07 -2.75896e-07)
(-7.16875e-07 2.00035e-07 -1.43142e-07)
(-3.20936e-07 9.40442e-08 -9.73112e-08)
(-5.87409e-09 2.76707e-09 -1.90268e-09)
(-1.49364e-07 4.30986e-08 -5.78321e-08)
(-1.14758e-07 8.91553e-08 -5.45948e-08)
(1.80668e-08 1.47487e-08 -9.81879e-09)
(-9.14e-07 2.80242e-07 -3.54005e-07)
(2.31162e-08 2.58619e-09 -2.84601e-09)
(-4.51131e-07 1.22814e-07 -1.61538e-07)
(-2.87625e-07 9.27146e-08 -1.11814e-07)
(-2.10799e-09 1.25628e-10 -1.88772e-09)
(5.84386e-09 -9.97709e-10 2.58282e-10)
(5.10699e-09 -1.54662e-10 -2.72834e-10)
(-5.81866e-10 1.19657e-10 -8.98896e-10)
(1.8989e-09 -3.24701e-09 -5.42371e-09)
(2.27907e-08 -6.86648e-09 -3.85967e-09)
(1.65101e-08 -3.84876e-09 -2.96358e-09)
(3.5644e-09 -2.5568e-09 -7.09194e-09)
(1.30082e-08 -4.86147e-09 -8.21587e-09)
(2.54175e-08 -6.2456e-09 -3.85933e-09)
(3.6837e-08 -6.01194e-09 -3.84641e-09)
(4.74738e-09 -2.24502e-09 -7.35696e-09)
(8.66531e-08 1.59592e-08 1.12575e-08)
(1.64997e-07 9.35668e-08 7.7132e-09)
(1.20143e-07 3.08213e-08 1.62135e-09)
(1.2931e-07 8.89817e-08 4.97491e-08)
(4.33946e-07 5.13394e-07 4.20313e-07)
(2.00602e-07 1.47982e-07 1.85703e-08)
(4.84128e-07 5.7067e-07 1.55114e-07)
(1.67592e-07 1.3653e-07 8.47149e-08)
(-6.0284e-07 2.35768e-07 -2.28757e-07)
(6.42831e-10 2.67414e-08 -1.34088e-08)
(-1.43844e-06 5.0684e-07 -5.44139e-07)
(-9.35902e-07 7.45761e-07 -2.41292e-07)
(-4.4492e-07 1.59864e-07 -1.68379e-07)
(-4.62877e-08 6.81607e-08 -1.76746e-08)
(-1.96208e-06 7.67786e-07 -7.26904e-07)
(-6.52428e-07 2.26499e-07 -2.38125e-07)
(-5.08903e-07 1.75518e-07 -1.75414e-07)
(-4.3796e-08 1.90017e-08 -1.50547e-08)
(-2.11554e-06 7.26503e-07 -7.79604e-07)
(-1.87631e-06 6.10877e-07 -6.62967e-07)
(-7.29657e-07 2.63447e-07 -2.70983e-07)
(-3.29426e-08 1.35482e-08 -1.16225e-08)
(-7.58141e-07 3.1677e-07 -2.80687e-07)
(-1.2405e-06 1.01387e-06 -2.98629e-07)
(-9.07665e-08 1.05508e-07 -2.58396e-08)
(-2.85727e-06 1.21394e-06 -1.06939e-06)
(-6.25893e-08 8.24808e-08 -1.95712e-08)
(-2.44924e-06 1.01593e-06 -9.01537e-07)
(-8.74827e-07 3.75541e-07 -3.22206e-07)
(-1.03071e-06 4.41393e-07 -3.82748e-07)
(-9.88138e-08 1.10664e-07 -2.74591e-08)
(-3.11777e-06 1.35029e-06 -1.16496e-06)
(-1.64436e-06 1.37795e-06 -3.87706e-07)
(-9.56348e-07 4.14377e-07 -3.51994e-07)
(-1.04736e-07 1.04691e-07 -2.8651e-08)
(-3.24902e-06 1.4285e-06 -1.21397e-06)
(-5.61709e-08 2.59509e-08 -1.93359e-08)
(-1.06294e-07 1.03456e-07 -3.01079e-08)
(-6.75791e-10 -7.56535e-10 -1.10292e-09)
(1.78839e-10 4.81322e-11 -1.94545e-10)
(7.83718e-11 1.84089e-10 -3.61567e-10)
(2.53442e-10 5.11819e-10 -1.83807e-10)
(-2.88549e-09 -7.3601e-10 -9.28139e-10)
(-2.78104e-07 7.02485e-08 -2.24649e-08)
(-6.25635e-09 -1.52375e-09 -3.26851e-09)
(-6.05233e-08 1.7299e-08 9.88654e-09)
(-3.50876e-08 4.06548e-09 -7.05082e-09)
(-1.02276e-09 -1.15444e-09 -8.28848e-10)
(-6.31064e-09 3.00824e-09 -1.81897e-09)
(-2.38856e-10 4.71596e-10 -4.50224e-10)
(-1.85006e-08 3.36762e-09 -6.58498e-09)
(-2.14467e-07 4.56072e-08 -3.38802e-08)
(-5.91748e-08 1.38844e-08 -1.94599e-09)
(-4.71372e-08 9.57481e-09 -1.20987e-08)
(-1.69172e-07 3.7652e-08 -2.58807e-08)
(-6.87153e-08 1.26458e-08 -1.79891e-08)
(-8.71228e-08 1.95876e-08 -2.93603e-09)
(-2.58448e-07 5.17703e-08 -4.14251e-08)
(-9.59705e-08 1.38085e-08 -2.66718e-08)
(-1.15191e-07 2.33767e-08 -4.03187e-09)
(-7.57866e-08 1.34115e-08 -1.99983e-08)
(-2.95868e-07 5.41612e-08 -4.92459e-08)
(-9.3485e-08 2.06276e-08 -3.12083e-09)
(-5.56526e-07 4.28331e-08 -1.20649e-07)
(-1.87605e-07 2.39581e-08 -8.05934e-09)
(-1.40166e-07 4.72842e-09 -5.10379e-08)
(-4.9372e-07 4.87405e-08 -1.01302e-07)
(-1.60623e-07 -3.30632e-11 -6.31354e-08)
(-2.1944e-07 2.27485e-08 -1.04419e-08)
(-5.97093e-07 4.30905e-08 -1.33778e-07)
(-1.82554e-07 -4.33905e-09 -7.96556e-08)
(-2.50456e-07 2.22696e-08 -1.28112e-08)
(-1.65221e-07 -3.56977e-10 -6.53581e-08)
(-6.33642e-07 4.22812e-08 -1.48128e-07)
(-2.22448e-07 2.36126e-08 -1.04272e-08)
(-6.98916e-07 1.26571e-08 -2.18134e-08)
(-3.51904e-07 3.18998e-08 -1.70882e-08)
(-6.57188e-08 1.18541e-08 8.71599e-09)
(-7.3315e-07 5.8305e-08 -1.16996e-07)
(2.07488e-07 1.3407e-08 3.62797e-07)
(-4.36816e-07 2.71709e-08 -1.88537e-08)
(5.11451e-07 1.06328e-07 8.33144e-07)
(-5.16652e-07 2.98189e-08 -8.64685e-09)
(-4.47129e-07 1.26165e-07 -1.7975e-08)
(-9.58614e-09 2.15619e-09 -4.5131e-09)
(-3.40187e-07 9.25631e-08 -1.79589e-08)
(-6.36763e-07 1.80349e-07 -1.09704e-08)
(-1.23398e-07 3.18122e-08 7.4223e-09)
(-8.19559e-07 2.3208e-07 -4.30141e-08)
(-2.696e-07 7.643e-08 -2.06803e-09)
(3.69257e-09 1.65468e-09 1.45961e-09)
(3.28676e-10 1.73462e-10 -1.23719e-11)
(6.31126e-10 3.29072e-10 -9.75338e-11)
(3.64318e-09 2.0993e-09 1.39325e-09)
(1.74726e-09 1.65013e-09 1.87694e-09)
(4.31017e-10 6.4254e-10 1.0932e-09)
(4.17097e-09 2.27623e-09 1.41601e-09)
(8.92502e-09 1.72615e-09 -1.92936e-09)
(4.76402e-09 3.47949e-09 1.12977e-09)
(1.96041e-09 1.62516e-09 5.80106e-10)
(6.45144e-09 2.84562e-09 9.85355e-10)
(3.66137e-09 1.11262e-09 1.25877e-09)
(-3.97484e-09 2.00883e-09 -1.01747e-09)
(1.9767e-10 5.72463e-10 -2.09549e-10)
(-2.23564e-10 5.83976e-10 6.68438e-10)
(4.18363e-09 1.8281e-09 1.46759e-09)
(-4.8112e-09 3.9195e-09 -2.26752e-09)
(5.27823e-10 4.03235e-10 1.37566e-10)
(4.1325e-10 1.13936e-09 -1.54333e-10)
(6.31184e-09 2.40437e-09 9.93594e-10)
(-1.87982e-07 2.92756e-08 -2.12189e-08)
(-2.92018e-07 6.38172e-08 -9.70582e-09)
(-2.63223e-07 6.18836e-08 -2.05306e-08)
(-1.0278e-08 -2.47592e-10 -6.25547e-09)
(-6.5828e-08 8.70716e-09 -9.59664e-09)
(-4.48253e-07 1.04896e-07 -3.82394e-08)
(-4.36832e-08 -1.93369e-09 -4.85803e-09)
(-9.56374e-08 1.35409e-08 -1.38326e-08)
(-4.75153e-08 1.08992e-08 -1.59444e-09)
(-4.12052e-08 8.43904e-09 -1.04669e-08)
(-1.28357e-07 2.77704e-08 -1.94455e-08)
(-2.91317e-08 4.03543e-09 -6.91938e-09)
(-3.05584e-08 -6.21267e-10 -1.11565e-09)
(-1.17897e-07 1.21706e-08 -1.47816e-08)
(-1.08846e-08 3.24198e-09 -2.72334e-09)
(-3.95444e-08 4.82304e-09 -8.1352e-09)
(-2.56755e-08 2.27925e-09 -5.81449e-09)
(-2.56383e-08 -3.0124e-09 -1.39496e-09)
(-1.06514e-10 -2.81162e-11 2.49603e-10)
(1.17495e-09 8.1329e-10 2.21821e-09)
(3.20407e-12 4.54788e-10 1.07373e-09)
(2.18097e-09 2.67957e-10 1.48293e-09)
(-1.47567e-09 -2.51332e-11 -6.54924e-10)
(-2.03529e-08 3.94726e-09 -6.10688e-09)
(-1.53008e-08 2.17016e-09 -4.18111e-09)
(-2.74618e-09 3.53461e-10 -1.43226e-09)
(-1.72138e-09 1.17934e-10 -4.33436e-10)
(-6.53527e-09 2.06129e-09 -1.4972e-09)
(-7.98296e-10 4.95127e-10 5.90188e-10)
(-1.39138e-08 1.45498e-09 -3.57583e-09)
(7.0563e-09 2.63431e-09 3.88387e-10)
(-3.57847e-08 1.54714e-08 -1.25199e-08)
(-1.20351e-09 1.39117e-09 -5.97829e-10)
(-2.39915e-08 1.06423e-08 -8.63e-09)
(7.10534e-09 2.72205e-09 1.83047e-10)
(7.25701e-09 3.04308e-09 3.93567e-10)
(1.9911e-08 3.3174e-09 -9.20884e-10)
(-1.36431e-08 1.31612e-08 -1.38536e-08)
(-7.60214e-10 6.53387e-09 -9.13018e-09)
(7.31544e-09 3.13e-09 1.89794e-10)
(7.2225e-09 3.03011e-09 4.39763e-10)
(8.41412e-09 2.32078e-09 -3.14344e-09)
(1.81028e-08 3.85153e-09 -6.56397e-10)
(6.62192e-09 2.87975e-09 9.02065e-10)
(1.44254e-09 5.76189e-09 -7.2422e-09)
(7.02409e-09 2.62055e-09 4.34547e-10)
(-8.10865e-09 5.04846e-09 -3.42641e-09)
(-6.30999e-10 1.19635e-09 -4.24134e-10)
(6.46915e-09 2.44512e-09 9.06854e-10)
(-1.94527e-08 9.17031e-09 -6.99675e-09)
(-5.96565e-09 5.89461e-10 -3.14382e-09)
(-2.37605e-08 4.6098e-09 -7.14971e-09)
(-3.64085e-08 6.37883e-09 -1.09944e-08)
(-3.92707e-09 6.89938e-10 -1.87155e-09)
(-2.69265e-09 4.01267e-10 -2.21333e-09)
(6.8272e-09 -7.44531e-10 -1.38973e-09)
(4.77196e-09 3.91006e-10 -5.49917e-10)
(-3.2727e-09 2.79952e-10 -3.23971e-09)
(-7.03341e-09 8.3619e-10 -3.55071e-09)
(-4.88662e-08 6.28827e-09 -1.58024e-08)
(-4.02284e-08 6.77939e-09 -1.22041e-08)
(-8.08957e-09 5.98298e-10 -4.7035e-09)
(-4.12532e-07 5.49943e-08 -7.74169e-08)
(-1.76218e-07 2.44912e-08 -7.30728e-09)
(-1.34772e-07 6.31443e-09 -4.75899e-08)
(-4.44092e-07 5.17866e-08 -8.66232e-08)
(-1.20214e-07 9.54898e-09 -3.91402e-08)
(-1.55939e-07 2.5327e-08 -5.99918e-09)
(-3.781e-07 5.54366e-08 -6.80795e-08)
(-1.00976e-07 1.33758e-08 -2.87381e-08)
(-1.24392e-07 2.39228e-08 -4.40632e-09)
(-3.33785e-07 5.57057e-08 -5.70393e-08)
(-1.16539e-07 1.04231e-08 -3.67106e-08)
(-1.45348e-07 2.45014e-08 -5.52958e-09)
(-8.81635e-10 -2.56814e-09 -5.29258e-09)
(8.13405e-09 -8.68961e-10 -1.66502e-09)
(-3.25598e-09 1.81519e-10 -3.67868e-09)
(1.24003e-08 -2.33476e-09 -2.71396e-09)
(-6.6719e-09 -2.7111e-09 -8.19246e-09)
(-6.48253e-08 1.55499e-09 -2.82447e-08)
(-6.20358e-08 3.70938e-09 -2.41335e-08)
(-4.86745e-09 -1.94308e-09 -9.46543e-09)
(-7.52424e-09 -1.95383e-09 -7.2712e-09)
(-5.1472e-08 6.04409e-09 -1.71799e-08)
(-8.70677e-09 5.59302e-10 -5.30216e-09)
(-6.03525e-08 4.25663e-09 -2.25377e-08)
(2.08647e-09 -4.79264e-09 -1.16008e-08)
(-6.72287e-08 1.1129e-09 -2.99652e-08)
(-7.79119e-08 -1.92368e-09 -3.77303e-08)
(-4.70883e-09 -1.75404e-09 -1.00025e-08)
(1.73434e-08 -4.11987e-09 -7.76294e-09)
(6.82181e-08 -8.24364e-09 -4.15179e-09)
(4.22162e-08 -5.17194e-09 -4.16233e-09)
(3.30677e-08 -1.39911e-09 -5.43831e-09)
(6.41919e-09 -4.677e-09 -1.0766e-08)
(-7.5626e-08 -3.02198e-09 -4.21694e-08)
(-7.83962e-08 -2.03537e-09 -3.85592e-08)
(2.09914e-08 -1.77712e-09 -7.93511e-09)
(-7.44551e-07 5.87202e-08 -1.68497e-07)
(-3.25681e-07 3.41859e-08 -1.62231e-08)
(-1.05456e-07 2.46232e-08 -2.57143e-08)
(-7.22378e-07 7.4917e-08 -1.43159e-07)
(-1.54911e-07 5.6998e-09 -6.74907e-08)
(-2.97119e-07 2.96274e-08 -1.50662e-08)
(-7.28198e-07 5.3747e-08 -1.69615e-07)
(-1.79827e-07 -2.93505e-09 -7.85793e-08)
(-2.64275e-07 2.37154e-08 -1.33911e-08)
(-6.68761e-07 5.10782e-08 -1.53297e-07)
(-1.69403e-07 2.23027e-09 -7.57566e-08)
(-2.90156e-07 2.88827e-08 -1.5064e-08)
(6.90646e-08 3.41014e-09 2.90657e-09)
(7.68198e-08 -3.61951e-09 -3.36802e-09)
(3.9971e-08 3.17174e-10 -3.77534e-09)
(1.02358e-07 1.59757e-08 -1.24924e-09)
(7.03699e-08 1.22016e-08 1.00034e-08)
(2.09939e-08 3.99525e-08 2.47919e-08)
(-4.42858e-08 1.23742e-08 -2.72587e-08)
(1.20051e-07 8.0829e-08 5.84681e-08)
(5.64861e-08 2.54925e-09 2.68559e-09)
(-7.11612e-08 -1.35267e-09 -4.06976e-08)
(2.65844e-08 1.82613e-10 -6.33315e-09)
(-5.84719e-08 5.56926e-09 -3.60659e-08)
(1.71256e-06 1.51283e-06 1.83745e-06)
(1.53416e-06 6.17817e-07 2.02308e-06)
(4.38256e-06 4.6055e-06 3.49955e-06)
(4.37189e-07 4.34448e-07 4.72108e-07)
(6.18715e-08 4.79547e-08 6.60486e-08)
(3.36276e-07 1.39907e-07 4.35798e-07)
(1.5789e-07 1.20278e-07 9.68951e-08)
(7.57138e-07 7.58801e-07 7.96022e-07)
(1.67432e-06 1.71487e-06 1.56491e-06)
(4.37435e-06 4.91123e-06 2.91005e-06)
(7.66377e-07 6.14884e-07 8.94427e-07)
(6.5975e-07 2.40285e-07 9.45526e-07)
(8.83547e-06 8.59654e-06 4.49299e-06)
(5.4227e-06 5.54384e-06 3.82216e-06)
(1.01937e-05 1.01392e-05 3.63252e-06)
(1.44233e-05 1.21e-05 3.52976e-06)
(8.87244e-06 8.84282e-06 3.53865e-06)
(5.42666e-06 5.90421e-06 3.13498e-06)
(1.0116e-05 9.09341e-06 4.55327e-06)
(1.25195e-05 6.4918e-06 6.41931e-06)
(1.43066e-05 1.10101e-05 4.69118e-06)
(7.06226e-09 2.79641e-09 1.01183e-10)
(-3.94238e-08 1.68028e-08 -1.39912e-08)
(-2.89438e-09 2.11066e-09 -1.22495e-09)
(-4.51004e-08 1.96483e-08 -1.65013e-08)
(7.10257e-09 2.73135e-09 1.67279e-10)
(7.2765e-09 3.21312e-09 1.0697e-10)
(-2.09389e-08 1.63975e-08 -1.60484e-08)
(8.30646e-09 1.24522e-08 -3.06849e-09)
(7.31318e-09 3.14021e-09 1.7333e-10)
(-4.21909e-08 2.82798e-08 -2.05994e-08)
(7.27109e-09 3.22227e-09 1.01538e-10)
(-6.51311e-08 4.32798e-08 -2.5224e-08)
(6.08672e-09 1.44482e-08 -3.07411e-09)
(-4.83191e-08 3.16276e-08 -2.23593e-08)
(7.22636e-09 3.29133e-09 7.84678e-11)
(7.05665e-09 2.804e-09 9.64903e-11)
(-5.60938e-08 2.50389e-08 -2.05918e-08)
(-2.55566e-09 1.96417e-09 -1.18708e-09)
(-4.84909e-08 2.10675e-08 -1.794e-08)
(7.00934e-09 2.86296e-09 7.38122e-11)
(6.9537e-09 2.93416e-09 5.93373e-11)
(-9.08204e-08 4.25156e-08 -3.05112e-08)
(-5.16943e-09 3.20935e-09 -1.9724e-09)
(-7.91467e-08 3.6341e-08 -2.75752e-08)
(6.90269e-09 2.98915e-09 4.31644e-11)
(7.17418e-09 3.37614e-09 6.30633e-11)
(-6.29039e-09 2.6067e-08 -3.90084e-09)
(-1.07134e-07 6.63021e-08 -3.58158e-08)
(-9.59575e-08 6.08649e-08 -3.29436e-08)
(7.12727e-09 3.44084e-09 4.73421e-11)
(7.17982e-09 3.3671e-09 6.49076e-11)
(-7.16712e-08 4.693e-08 -2.71395e-08)
(-5.95889e-09 2.56348e-08 -3.62605e-09)
(7.22065e-09 3.30021e-09 7.63508e-11)
(-9.12039e-08 5.81611e-08 -3.13413e-08)
(6.95961e-09 2.92682e-09 6.06197e-11)
(-6.13275e-08 2.74004e-08 -2.23902e-08)
(-4.78269e-09 3.02864e-09 -1.86904e-09)
(7.00348e-09 2.87022e-09 7.23384e-11)
(-7.35057e-08 3.36217e-08 -2.58648e-08)
(2.26908e-05 1.10008e-05 4.60835e-06)
(2.5098e-05 6.51501e-06 7.51665e-06)
(2.0205e-05 6.97237e-06 7.22209e-06)
(2.84868e-05 9.57448e-06 4.59931e-06)
(2.10448e-05 1.17487e-05 3.15251e-06)
(1.60148e-05 1.20916e-05 3.44615e-06)
(2.08951e-05 1.07603e-05 4.63537e-06)
(1.39522e-05 6.91257e-06 6.58478e-06)
(1.85087e-05 7.08341e-06 7.08221e-06)