/*--------------------------------*- C++ -*----------------------------------*\
| =========                 |                                                 |
| \\      /  F ield         | OpenFOAM: The Open Source CFD Toolbox           |
|  \\    /   O peration     | Version:  2012                                  |
|   \\  /    A nd           | Website:  www.openfoam.com                      |
|    \\/     M anipulation  |                                                 |
\*---------------------------------------------------------------------------*/
FoamFile
{
    version     2.0;
    format      ascii;
    class       volVectorField;
    location    "0.104/fluid";
    object      U;
}
// * * * * * * * * * * * * * * * * * * * * * * * * * * * * * * * * * * * * * //

dimensions      [0 1 -1 0 0 0 0];


internalField   nonuniform List<vector> 
16421
(
(1.1999 2.25505e-05 2.25089e-05)
(1.19941 6.66662e-05 2.93872e-05)
(1.19902 3.97542e-05 8.56444e-06)
(1.199 3.69385e-05 1.40691e-05)
(1.19873 3.80352e-05 2.01639e-05)
(1.19831 4.47008e-05 3.23934e-05)
(1.19768 5.97001e-05 4.99869e-05)
(1.19671 8.98981e-05 8.34646e-05)
(1.19513 0.000153946 0.000139508)
(1.19236 0.000307452 0.00024906)
(1.18699 0.000720833 0.000523859)
(1.17465 0.00203352 0.00154217)
(1.13744 0.00674227 0.00655893)
(0.98892 0.0179442 0.0317453)
(0.0651828 0.0217212 0.0510575)
(1.19992 6.61895e-07 2.21187e-05)
(1.19964 3.56075e-05 3.33207e-05)
(1.19939 7.05488e-05 1.31274e-05)
(1.19945 0.000107068 1.57516e-05)
(1.19928 0.000161104 2.1407e-05)
(1.19895 0.000248083 3.15857e-05)
(1.19846 0.000385717 4.96886e-05)
(1.19766 0.000618945 8.11533e-05)
(1.19639 0.00101897 0.00013315)
(1.19429 0.00175687 0.000231169)
(1.19066 0.00322999 0.000463114)
(1.18381 0.00656606 0.00124846)
(1.16861 0.015731 0.00472815)
(1.12794 0.0462667 0.0210641)
(0.58517 -0.00511776 0.0889005)
(1.19992 3.36804e-06 2.16618e-05)
(1.19963 6.86178e-05 3.96458e-05)
(1.19937 0.000122802 1.84152e-05)
(1.19945 0.00018124 1.89646e-05)
(1.19931 0.000270674 2.37731e-05)
(1.19905 0.000410607 3.19103e-05)
(1.19865 0.000635025 4.85023e-05)
(1.19804 0.00100185 7.52717e-05)
(1.19709 0.00161341 0.000122516)
(1.19562 0.00266168 0.000203545)
(1.19332 0.0044963 0.000374969)
(1.18965 0.00774714 0.000908156)
(1.18266 0.0132298 0.00325588)
(1.16157 0.019898 0.014948)
(0.692813 0.0175792 0.0946386)
(1.19992 4.25996e-06 2.12458e-05)
(1.19963 8.36985e-05 4.58715e-05)
(1.19937 0.000145909 2.31283e-05)
(1.19947 0.000212628 2.28084e-05)
(1.19938 0.000318323 2.56114e-05)
(1.1992 0.00048112 3.1763e-05)
(1.19894 0.000738445 4.60134e-05)
(1.19855 0.00115145 6.73051e-05)
(1.19797 0.00181764 0.000108521)
(1.19709 0.00287836 0.000173193)
(1.19579 0.00455597 0.00029571)
(1.19365 0.00709713 0.000638842)
(1.18831 0.0105672 0.00217417)
(1.16471 0.0133437 0.0109907)
(0.67181 -0.00871764 0.0954523)
(1.19993 2.26715e-05 5.02647e-06)
(1.19961 6.64337e-05 6.44259e-05)
(1.19926 3.99612e-05 7.58697e-05)
(1.19925 3.68688e-05 9.37501e-05)
(1.19902 3.82319e-05 0.000134045)
(1.19866 4.34644e-05 0.000204053)
(1.19813 5.87753e-05 0.000319216)
(1.19731 8.79179e-05 0.000508203)
(1.19599 0.000148203 0.00082585)
(1.19375 0.00029017 0.00137709)
(1.1896 0.000671258 0.0023827)
(1.18097 0.00186248 0.00437069)
(1.16003 0.00627054 0.00872668)
(1.09994 0.0243149 0.0186548)
(0.846893 0.0946453 0.0235665)
(1.19995 3.61764e-07 5.24456e-06)
(1.19984 3.6835e-05 6.30875e-05)
(1.19964 7.16271e-05 7.37169e-05)
(1.19973 0.000106411 9.22352e-05)
(1.1996 0.000159446 0.0001318)
(1.19934 0.000243394 0.000198414)
(1.19893 0.000377029 0.000308863)
(1.19828 0.000598931 0.000489889)
(1.19726 0.000982622 0.000789505)
(1.19563 0.00167899 0.00129884)
(1.19299 0.00303902 0.00220382)
(1.18883 0.00597086 0.00390552)
(1.18345 0.0129906 0.00724755)
(1.18593 0.03011 0.0136178)
(1.24125 0.0518125 0.0198129)
(1.19994 3.19351e-06 5.14661e-06)
(1.19983 6.96892e-05 6.12988e-05)
(1.19965 0.000123241 7.0389e-05)
(1.19977 0.000179751 8.75776e-05)
(1.19968 0.000266511 0.000124371)
(1.19948 0.000402601 0.000186266)
(1.19917 0.000618887 0.000285934)
(1.1987 0.000971666 0.00044788)
(1.19798 0.00155656 0.000709992)
(1.19689 0.00254707 0.00114151)
(1.19536 0.00424747 0.00187495)
(1.19355 0.00713706 0.00317526)
(1.19279 0.0115578 0.00552423)
(1.1996 0.0153433 0.0098233)
(1.23127 0.0100314 0.0113326)
(1.19994 4.14891e-06 5.15698e-06)
(1.19984 8.42686e-05 5.92234e-05)
(1.19967 0.000145076 6.63865e-05)
(1.19983 0.000210795 8.11829e-05)
(1.19979 0.000313485 0.000114421)
(1.19967 0.000471636 0.000168964)
(1.19949 0.00072109 0.00025591)
(1.19922 0.00111752 0.000393649)
(1.19883 0.00175062 0.000607123)
(1.19828 0.00275397 0.000945489)
(1.19756 0.00430488 0.00149367)
(1.19671 0.00652368 0.00241638)
(1.19554 0.00894079 0.00399825)
(1.19389 0.00744967 0.00683627)
(1.19958 -0.0400409 0.00904693)
(1.19993 2.31747e-05 7.53959e-06)
(1.1996 6.62563e-05 9.14582e-05)
(1.19928 3.98367e-05 0.000120745)
(1.1993 3.71396e-05 0.000156765)
(1.1991 3.79308e-05 0.000225423)
(1.19878 4.2287e-05 0.000343726)
(1.19834 5.62814e-05 0.000535408)
(1.19766 8.30271e-05 0.000849373)
(1.19659 0.000135011 0.00136768)
(1.19481 0.000256474 0.00223012)
(1.19155 0.000589381 0.00367781)
(1.18478 0.00165983 0.00609254)
(1.16736 0.00582957 0.00977585)
(1.10711 0.0238711 0.0133313)
(0.838993 0.0859347 0.00918784)
(1.19995 2.63639e-07 7.65761e-06)
(1.19984 3.60235e-05 9.16391e-05)
(1.19965 6.95307e-05 0.000118971)
(1.19977 0.000102855 0.000154691)
(1.19968 0.000153615 0.000221822)
(1.19946 0.000231343 0.000334959)
(1.19913 0.000354448 0.000519463)
(1.19862 0.000556799 0.000819125)
(1.19782 0.000901897 0.00130746)
(1.19656 0.00151928 0.0021064)
(1.19461 0.00270365 0.00341726)
(1.19173 0.00521109 0.00552805)
(1.18843 0.0111754 0.00856112)
(1.19037 0.026915 0.0109771)
(1.22841 0.060901 0.00671722)
(1.19994 3.13333e-06 7.56497e-06)
(1.19983 6.8834e-05 9.03985e-05)
(1.19966 0.000120319 0.00011552)
(1.19981 0.000173915 0.000148628)
(1.19975 0.000255663 0.000211451)
(1.1996 0.000382515 0.000315052)
(1.19936 0.000582354 0.000482862)
(1.199 0.000903499 0.000750201)
(1.19846 0.00142994 0.00117821)
(1.19768 0.0023045 0.00185801)
(1.19667 0.00377673 0.00293373)
(1.19576 0.00621335 0.00459545)
(1.19659 0.00981244 0.00687509)
(1.20456 0.0126379 0.00831622)
(1.23089 0.00820891 0.0031168)
(1.19994 3.97647e-06 7.43629e-06)
(1.19984 8.27907e-05 8.85639e-05)
(1.19969 0.000141512 0.000110796)
(1.19987 0.000203426 0.000140354)
(1.19986 0.000300532 0.000196638)
(1.19977 0.000448172 0.000287806)
(1.19965 0.000678819 0.000432988)
(1.19947 0.00104102 0.000660436)
(1.19922 0.00160867 0.00101349)
(1.19889 0.00248992 0.0015515)
(1.19855 0.00381646 0.00237412)
(1.1983 0.00561728 0.00361688)
(1.19826 0.00721089 0.00537415)
(1.19731 0.00408783 0.00689381)
(1.19323 -0.0474811 0.00419328)
(0.238033 -0.053915 0.126019)
(1.105 0.0559812 0.0255914)
(1.16334 0.273011 0.0620386)
(1.0929 0.0238901 0.0287727)
(0.95307 0.0594305 0.0315595)
(1.17566 0.040178 0.0239967)
(1.19486 0.0908193 0.0342839)
(0.381341 -0.130677 0.0483324)
(0.873368 0.0585693 0.00124303)
(1.22242 0.125189 0.0141327)
(1.44652 0.118893 -0.0272109)
(0.693612 0.00874874 0.0939623)
(1.24469 0.0827331 0.0224921)
(1.38815 0.0752919 -0.00117348)
(1.25896 0.026466 0.0303872)
(1.33951 0.0171925 0.0331439)
(0.682848 -0.018807 0.0941368)
(1.25842 0.0125643 0.0301335)
(1.33353 0.00635369 0.0351465)
(1.2365 -0.0273817 0.0244768)
(1.35814 -0.0587449 0.0234471)
(1.20602 -0.0512451 0.0211006)
(1.36063 0.0138859 -0.0320487)
(1.23584 0.0779321 0.0277313)
(1.38632 0.0444083 -0.00390276)
(0.83988 0.0852496 0.00677392)
(1.21925 0.0997765 0.00888907)
(1.38828 0.0835847 -0.000228981)
(1.35283 0.0812109 -0.0173559)
(1.19668 -0.0512837 0.00675062)
(1.33711 0.0481512 -0.0145128)
(1.21489 0.0950796 0.0086421)
(1.37688 0.0700218 -0.00248046)
(1.33597 0.062894 0.00298972)
(1.48836 0.114158 -0.507662)
(-1.99182 0.0738296 -1.22251)
(0.635733 0.0193843 0.0394076)
(1.17992 0.105408 -0.146628)
(0.58102 0.0183985 0.0197585)
(1.06789 0.121979 0.050394)
(1.15811 0.0254112 0.0157465)
(1.08877 0.0306837 0.0293902)
(1.18515 0.0331487 0.0208338)
(1.21672 0.0677008 0.0308364)
(1.20087 0.0211776 0.016354)
(1.23449 0.0262257 0.0285543)
(1.37814 0.057113 0.0528813)
(0.690392 0.0322945 0.0939172)
(1.3038 0.0887259 0.106903)
(1.39626 0.115557 0.0576207)
(1.30063 0.0613358 0.0766209)
(1.09033 0.018612 0.0284067)
(1.16335 0.0123153 0.0122988)
(1.08125 -0.000508363 0.0241841)
(1.20241 0.0162486 0.0153036)
(1.23482 0.0145929 0.0277883)
(1.1974 0.00700842 0.0119726)
(1.21474 -0.013115 0.022727)
(1.36252 0.00302514 0.0323993)
(0.692596 -0.00534163 0.0939923)
(1.29129 0.016609 0.0528469)
(1.36673 0.0120375 0.0380653)
(1.28579 0.00626808 0.0485471)
(1.07231 -0.00060756 0.0214338)
(1.19524 0.00670465 0.0108148)
(1.1996 -0.0205759 0.0202739)
(1.24028 -0.0407588 0.0521764)
(1.33903 -0.0926472 0.0411411)
(1.25263 0.00392552 -0.0390934)
(1.21614 -0.0169831 0.00857208)
(1.28958 0.0227683 -0.0346032)
(1.24034 0.00874444 0.0108065)
(1.2693 0.00368103 0.00957382)
(1.22166 -0.0276539 0.00890058)
(1.30226 -0.0208618 0.00713278)
(1.19694 -0.0143689 0.00906888)
(1.19767 0.00416046 0.00751918)
(1.19745 -0.0223062 0.00768158)
(1.22985 -0.0735411 0.00463987)
(1.20146 -0.0521132 0.0100574)
(1.22634 -0.0949335 0.00728589)
(1.25662 0.00357196 -0.00929639)
(1.21462 -0.0241226 0.00350442)
(1.29067 -0.00529268 -0.00606276)
(1.19489 -0.0201292 0.00566365)
(1.21705 -0.0850389 0.00198393)
(1.19273 -0.0503706 0.00727466)
(1.21479 -0.0902208 0.00545658)
(1.22805 0.124993 0.180056)
(0.792586 -0.00298264 0.0559529)
(-0.0926534 -0.296408 0.319163)
(0.646969 0.0489427 0.0458965)
(1.20385 0.0647895 0.0663552)
(0.863733 0.115134 0.0901209)
(1.01374 0.0319838 0.114804)
(1.65812 0.214814 -0.37885)
(1.99408 0.22553 -0.0294884)
(0.245001 0.0923779 0.0979101)
(1.50909 0.439344 -0.611562)
(-1.9163 0.385866 -0.943488)
(1.2992 0.0591491 0.0878657)
(1.22876 0.227773 -0.00366838)
(1.40916 0.140081 0.0395228)
(1.6264 0.400362 -0.33649)
(1.50958 0.0693477 -0.0496591)
(1.68939 0.190244 -0.119418)
(1.46186 0.149737 0.027424)
(1.22583 0.504912 0.0663086)
(0.0977839 0.0748579 -0.0120361)
(1.94492 0.148808 -0.0287882)
(1.92826 0.234799 0.0278293)
(1.3816 0.357737 -0.0474886)
(0.09531 0.109514 0.151878)
(1.41269 0.0646783 0.0413408)
(1.47789 0.0174463 -0.0600746)
(1.44469 0.113869 0.031063)
(1.41729 0.0659521 0.0229338)
(1.37421 0.0436768 0.0452888)
(0.690216 0.0376165 0.0950841)
(1.29337 0.0300973 0.0545692)
(1.29742 0.0448118 0.0632448)
(1.36763 0.028557 0.0375184)
(1.40696 0.0395934 0.0357456)
(1.37793 0.0472534 0.0085215)
(1.40324 0.00990032 0.0196187)
(1.39706 0.0353803 0.0325641)
(1.39306 0.00922414 0.0286004)
(1.37511 -0.0175524 0.013758)
(1.39565 0.00440494 0.034118)
(1.37291 0.034902 0.00682475)
(1.36361 -0.0162732 0.0380881)
(0.690053 0.00364134 0.0944861)
(1.26589 -0.0199172 0.0482567)
(1.28185 -0.00869576 0.0522746)
(1.35589 -0.0497128 0.0327514)
(1.39528 -0.0235088 0.0365405)
(1.41648 -0.010884 0.0213712)
(1.37601 -0.0227786 0.0215656)
(1.40581 -0.0531347 0.0311596)
(1.40749 -0.0211452 -0.0264948)
(1.3953 -0.103509 0.0305198)
(1.20663 -0.0331204 0.0350343)
(1.23888 -0.0979979 0.0151502)
(1.24794 -0.0653879 0.0224836)
(1.37527 0.100649 -0.0802932)
(1.31634 -0.107524 0.00317943)
(1.33513 -0.0594964 -0.00186265)
(1.3449 0.372535 -7.37043e-05)
(0.0749423 0.0739579 0.0195478)
(1.94599 0.136488 -0.000613155)
(1.33347 0.393616 0.0226774)
(1.93295 0.122564 -0.0233487)
(0.0837895 0.0729182 -0.0183543)
(1.33859 0.373315 0.00854306)
(0.0807373 0.0723301 -0.0171508)
(1.92221 0.114107 -0.0176441)
(1.93071 0.115052 0.00676492)
(1.33255 0.372818 0.00628579)
(0.0794711 0.0722616 0.0117331)
(1.30782 -0.0693042 -0.00478611)
(1.34429 0.0358052 -0.019643)
(1.29946 -0.0985682 0.00260457)
(1.19611 -0.0445625 0.00397682)
(1.21977 -0.0920107 0.0047599)
(1.22212 -0.0804043 0.00116115)
(1.34267 0.0684392 -0.00251226)
(1.29177 -0.0931881 0.00301452)
(1.29706 -0.0780019 -0.00387336)
(1.32534 0.369287 0.0102511)
(0.0799259 0.0721164 0.0128657)
(1.91973 0.110493 0.0126191)
(1.33104 0.369795 0.00498669)
(1.91083 0.110238 -0.0132977)
(0.0798298 0.0720739 -0.0157911)
(1.32315 0.367521 0.00758375)
(1.90855 0.108855 0.0170936)
(0.0795404 0.0720853 0.0143786)
(1.29039 -0.0835046 -0.00206124)
(1.33137 0.0554727 -0.0129312)
(1.28584 -0.0901883 0.00477982)
(1.32873 0.0616782 0.00549716)
(1.28367 -0.0861722 0.00109576)
(1.18414 0.0468531 0.267029)
(0.458664 0.0470475 0.231214)
(1.33077 0.0903276 0.297546)
(0.442813 -0.00394956 0.264332)
(0.965698 0.0779517 0.0265575)
(1.17917 0.037631 0.0157264)
(1.21177 0.0701317 0.0255597)
(1.10573 0.0239604 0.0138827)
(0.952975 0.0738181 0.0110958)
(1.18353 0.0360495 0.0128196)
(1.20022 0.079911 0.0114585)
(1.23966 0.273103 -0.00939782)
(0.286287 0.0851266 0.00849338)
(1.25073 0.193511 0.0624465)
(0.846886 0.0813692 0.00472503)
(1.24363 0.302409 0.0598558)
(1.21824 0.183491 -0.000378439)
(0.30148 0.0833185 -0.00814652)
(1.32419 0.00605302 -0.0184872)
(1.23022 0.0208152 0.0119361)
(1.24988 0.00763293 -0.0409163)
(1.23472 0.0663284 0.00975796)
(1.32943 0.0433547 0.00312217)
(1.23992 0.0220129 0.0113824)
(1.27043 0.0113369 0.0107395)
(0.952895 0.0741291 0.0119583)
(1.18392 0.0350866 0.0119606)
(1.19768 0.076807 0.0105191)
(1.22306 0.274883 0.00984336)
(0.292179 0.0825938 0.00215109)
(1.21447 0.181667 0.0131972)
(0.837637 0.0855597 0.00910591)
(1.22664 0.274835 0.0109587)
(1.21138 0.181525 0.0119187)
(0.292358 0.08233 -0.00197689)
(1.3188 0.0316832 -0.0048727)
(1.22938 0.0205657 0.00347592)
(1.25473 0.0105359 -0.0096509)
(1.14985 0.0509989 0.217066)
(0.270094 0.0473167 0.113648)
(0.141903 -0.133756 -0.0159527)
(0.664587 0.0250273 0.20967)
(1.25839 0.0670966 0.325176)
(0.56742 0.0117636 0.134628)
(0.695628 0.0755716 0.138366)
(1.23123 0.0895232 0.0900941)
(1.07509 0.0790413 0.120109)
(1.01713 0.0818766 0.049456)
(1.25732 0.083259 0.155309)
(1.37692 0.154205 0.297102)
(1.21973 0.0644131 0.0714778)
(0.812132 0.173602 0.060109)
(1.64769 0.181508 0.0401681)
(1.68874 0.111822 -0.246856)
(1.59579 0.188864 -0.149897)
(1.74628 0.0662432 -0.103949)
(1.25133 0.427886 0.234351)
(0.869362 0.139995 0.0353145)
(0.326882 0.0828554 -0.0103374)
(1.20425 0.176845 -0.0451463)
(1.40921 0.222664 0.235139)
(1.26313 0.243715 -0.0992715)
(0.212614 0.0965625 0.0695785)
(1.3134 0.125459 0.0874767)
(1.40368 -0.00581171 -0.0162336)
(1.65232 0.169667 -0.0263354)
(1.36458 0.156616 -0.0201347)
(1.64824 0.127107 -0.00457014)
(1.33971 0.036128 0.0380585)
(1.42575 0.248086 -0.060531)
(1.57426 0.0939519 0.056537)
(1.66051 0.0797649 -0.25532)
(1.53484 0.227421 0.0288067)
(1.6991 -0.00291925 -0.132308)
(1.65226 0.0149003 0.00516485)
(1.55729 0.0511268 -0.0727872)
(1.57027 0.00679499 -0.0677312)
(1.64191 0.0551641 0.00170811)
(1.64125 0.0421805 0.00200038)
(1.56111 -0.00779329 -0.0709526)
(1.55481 0.0420346 -0.0724893)
(1.64653 -0.00415536 0.00312603)
(1.65785 -0.0427376 0.00448001)
(1.60038 0.0320666 -0.0567367)
(1.56894 -0.0291778 -0.073551)
(1.68652 -0.00100981 0.014676)
(1.76045 -0.0817724 0.0193225)
(1.59652 -0.0265946 -0.0647838)
(1.70308 0.000478905 -0.0422114)
(1.67823 -0.0669778 0.01766)
(1.38457 0.224548 -0.0116453)
(1.63516 0.129436 -0.00794528)
(1.32062 0.0959205 0.0155186)
(1.40677 0.0935536 -0.00752894)
(1.37286 0.198939 0.0256716)
(1.62895 0.143567 -0.0120901)
(1.33167 0.135732 -0.00467201)
(1.23422 0.278918 0.018877)
(0.842598 0.0872318 0.0123104)
(0.294651 0.0827729 -0.00469512)
(1.21573 0.183329 0.00866327)
(1.22331 0.1838 0.0221742)
(1.22911 0.276817 0.00531418)
(0.2926 0.0831915 0.00103377)
(1.37204 0.207052 0.00790951)
(1.382 0.0631368 -0.00420211)
(1.61636 0.135002 -0.00511684)
(1.31635 0.127971 0.00257505)
(1.62278 0.126709 -0.00438837)
(1.31327 0.114028 0.00402811)
(1.36962 0.217362 0.00101057)
(1.36104 0.212854 0.00519523)
(1.61285 0.127554 -0.000605389)
(1.3071 0.11904 0.00219867)
(1.37742 0.0785349 0.0020409)
(1.36466 0.208943 0.00462721)
(1.6061 0.130697 -0.000983426)
(1.30716 0.123967 0.00498839)
(0.291134 0.0822635 0.0044115)
(1.60254 0.127914 0.00290281)
(1.1296 0.0905507 0.255886)
(0.0880818 0.0384762 -0.247942)
(1.32416 0.303612 -0.129367)
(0.294307 -0.00572519 0.172685)
(0.425565 0.230392 0.294845)
(1.31212 0.493054 0.595484)
(0.14095 0.192595 1.19972)
(1.14164 0.114155 0.410821)
(0.144118 0.00877734 -2.2839)
(0.39783 -0.0138953 0.338408)
(1.2143 0.190176 -0.711291)
(1.06455 0.0988893 0.14428)
(0.557373 -0.0523211 -2.44722)
(1.33982 0.100155 0.159434)
(0.428672 -0.0110832 0.0712132)
(1.54228 0.0504425 0.155378)
(1.37539 0.0856172 0.201372)
(1.49514 0.0797568 0.153832)
(0.348756 0.0198423 0.0743899)
(1.34704 0.0713613 0.139054)
(1.50979 0.0760037 0.136281)
(0.338113 0.00599906 0.0747297)
(1.50904 0.0700259 0.14733)
(1.34344 0.0776215 0.129264)
(0.337135 0.0407373 0.075532)
(1.35433 0.0254796 0.12033)
(0.335107 0.0157164 0.0761172)
(1.5284 0.0145358 0.126067)
(1.35685 0.0115015 0.120986)
(1.52572 0.022572 0.124998)
(0.335182 -0.0125727 0.0760214)
(1.357 -0.00303737 0.119461)
(1.52919 0.0111294 0.122757)
(0.336239 -0.016808 0.0759433)
(1.52909 -0.000731035 0.123618)
(1.35643 0.0138999 0.118729)
(0.335449 0.0108343 0.0761057)
(1.29476 -0.0479345 0.120381)
(0.327587 -0.0255627 0.0756646)
(1.50779 -0.0676147 0.129212)
(1.31776 -0.0571381 0.12298)
(1.48412 -0.109878 0.120367)
(0.306739 -0.06443 0.0752355)
(1.43663 -0.171832 0.105949)
(0.295083 -0.0460551 0.0746204)
(0.991034 0.062153 0.244211)
(0.00944588 -0.151264 -0.0495099)
(1.10534 -0.0720599 0.727215)
(0.13299 -0.100562 0.261305)
(1.10476 0.0492578 0.421559)
(0.955049 0.0350273 0.34568)
(0.357217 -0.0540103 0.152897)
(0.464732 0.514396 0.066186)
(0.0670744 0.0647652 -0.216706)
(1.33919 0.381677 -0.264681)
(0.842251 0.795992 0.0955166)
(2.18123 0.463131 -0.216417)
(1.72912 0.478676 -0.193863)
(0.749352 0.752507 0.0425219)
(1.7414 0.368132 -0.0490308)
(1.97242 0.281736 -0.0759484)
(1.63147 0.366834 -0.0824913)
(0.821276 0.773669 0.262382)
(1.33472 0.875018 -0.0828297)
(1.20613 0.324653 -0.520647)
(1.30381 0.309021 -0.05848)
(1.60402 0.404143 -0.0730928)
(0.422839 0.512676 0.0702602)
(1.24338 0.283476 0.00687639)
(0.0209108 0.104336 -0.100243)
(1.09547 0.513345 -0.0620063)
(0.481984 0.541084 0.218001)
(1.42564 0.111438 -0.119273)
(-0.597663 -1.05253 -0.307078)
(1.78064 0.0674167 -0.335757)
(0.341285 0.240355 0.878908)
(1.28599 0.0910688 -2.79035)
(1.32602 -0.0919537 -0.357309)
(0.678909 2.599 0.276395)
(1.19839 0.12437 0.267201)
(0.570153 0.0312387 0.0411094)
(1.55083 0.0634744 0.132866)
(1.38684 0.154754 0.323904)
(1.33394 0.0526802 0.270245)
(0.549889 0.345966 0.213781)
(1.51266 0.203325 -0.318208)
(1.24372 0.388405 -0.607187)
(1.30499 0.111152 -1.85415)
(1.34931 0.248244 0.307457)
(0.572658 0.558023 0.114143)
(1.50857 0.245461 0.0681548)
(1.87447 0.330162 -0.184026)
(1.57385 0.331183 -0.127664)
(1.50123 0.233605 -0.139237)
(1.64642 0.190783 0.0884804)
(1.6204 0.0778948 0.0723578)
(1.44759 0.174918 0.266591)
(1.73941 0.0779355 -0.0524473)
(1.51565 0.261979 0.15092)
(1.23485 0.231734 -0.314317)
(1.45995 0.250215 -0.00600962)
(1.47871 0.386848 0.487971)
(0.417293 0.471245 -0.0752167)
(0.916863 0.360012 0.0249499)
(0.0940726 0.078263 -0.0119501)
(0.893495 0.351948 -0.0363564)
(0.420052 0.479574 0.0324083)
(0.772406 0.703758 -0.100073)
(1.9797 0.086455 0.0487918)
(1.5893 0.360219 -0.00182231)
(1.66109 0.336036 0.0223651)
(0.753601 0.711281 0.0519092)
(0.767532 0.714707 -0.100549)
(1.50529 0.415461 0.0411549)
(2.00861 0.071158 0.0240414)
(0.765953 0.767549 0.25273)
(1.67689 0.311672 0.000546209)
(0.420023 0.485705 -0.0944215)
(0.841104 0.520081 0.070454)
(0.0552924 0.0774117 -0.0343102)
(0.472447 0.551215 0.268816)
(0.831514 0.456107 -0.0462551)
(1.57518 0.0851599 0.0611355)
(1.60262 0.0445474 0.0961464)
(1.53995 0.0765782 0.119552)
(1.69297 0.00970381 -0.0616791)
(1.60384 0.0784458 0.0590024)
(1.56834 0.0935108 -0.0279206)
(1.50722 0.156041 0.0580529)
(1.63468 0.0987783 0.0244065)
(1.60992 0.0772161 0.0567086)
(1.56447 0.0784859 0.100544)
(1.55927 0.0720358 0.111929)
(1.63026 0.0942413 0.0382035)
(1.3578 0.0274724 0.121821)
(0.33647 -0.00779754 0.0758625)
(1.52598 0.0379865 0.124913)
(1.35521 0.0397783 0.120126)
(1.52888 0.0312469 0.127603)
(0.335924 0.0201319 0.07601)
(1.35119 0.0562988 0.12301)
(1.52205 0.0542271 0.134335)
(0.335777 0.0269401 0.0758114)
(1.35402 0.0485555 0.12606)
(1.52162 0.0548903 0.129168)
(0.337335 -0.00249926 0.0755721)
(1.64297 0.0725374 0.00713746)
(1.57915 0.0372868 -0.0427068)
(1.65226 0.0485683 0.017185)
(1.56379 0.06291 -0.0661262)
(1.65223 0.0195829 0.0229787)
(1.58435 0.0388916 0.0874134)
(1.58819 0.0315958 0.0899608)
(1.64426 0.0501098 0.0196038)
(1.64299 0.0681508 0.0254421)
(1.57961 0.0566945 0.0973302)
(1.64753 0.051956 0.0325764)
(1.5796 0.0564088 0.0920742)
(1.64393 0.035935 0.0197109)
(1.58733 0.0140955 0.0885451)
(1.58429 0.0233513 0.0875701)
(1.64819 0.000984457 0.0209306)
(1.64633 -0.0192008 0.00100333)
(1.5586 0.0418857 -0.0734114)
(1.55775 -0.0198755 -0.0738726)
(1.6479 0.036392 0.00113385)
(1.64888 -0.014285 0.0181728)
(1.58922 0.0124809 0.0852664)
(1.58844 -0.00162547 0.0861019)
(1.65062 0.0288246 0.0180661)
(1.34606 -0.0350841 0.119717)
(0.332361 -0.0408407 0.0757932)
(1.52389 -0.035746 0.124541)
(1.34251 -0.0220915 0.119802)
(1.52485 -0.0348588 0.124565)
(0.336167 -0.00649298 0.0758216)
(1.34884 -0.00268869 0.121858)
(1.52515 -0.0132839 0.125525)
(0.335223 0.00589661 0.0759277)
(1.35095 -0.016441 0.120706)
(1.52503 -0.00876008 0.127078)
(0.334648 -0.0261543 0.076066)
(1.65598 0.0208795 0.00786848)
(1.55814 -0.0213724 -0.0718331)
(1.64567 -0.0267476 0.00359822)
(1.56868 0.0340496 -0.065831)
(1.65973 -0.0419933 0.0202557)
(1.5932 -0.0371955 0.0872052)
(1.58806 -0.0357199 0.0868569)
(1.68342 -0.0146735 0.0281136)
(1.65714 0.0108338 0.0244614)
(1.58503 -0.0136144 0.0881084)
(1.64803 -0.0228354 0.0207679)
(1.5875 -0.00804398 0.0895156)
(1.74087 -0.0475146 -0.0412386)
(1.47399 -0.220859 0.0316509)
(1.63315 -0.118949 -0.0387806)
(1.74237 -0.0996675 0.0338226)
(1.57765 -0.0715548 0.0926585)
(1.57251 -0.131854 0.0855708)
(1.67547 -0.0725001 0.0322471)
(1.85706 -0.114015 -0.0532504)
(1.77649 0.0179459 -0.0710643)
(1.67602 -0.0634819 -0.0566725)
(1.82483 -0.138236 -0.021962)
(1.54537 -0.211292 0.0699317)
(1.58222 -0.0664416 -0.00876162)
(1.59728 -0.0532456 0.000581998)
(1.6246 -0.0224547 0.0396965)
(1.61856 -0.0273704 -0.0446301)
(1.62284 -0.00208253 -0.0184917)
(1.63501 0.0155811 -0.00772646)
(1.58164 -0.0867492 0.0370731)
(1.31188 -0.261056 -0.00151299)
(1.5749 -0.0916622 -0.0351299)
(0.417626 0.479507 -0.0288038)
(0.891827 0.401162 0.0156121)
(0.0774279 0.0724743 -0.0275003)
(0.891392 0.392038 0.00479045)
(0.416967 0.482751 0.0363507)
(0.756437 0.707127 -0.0147838)
(1.5898 0.355489 0.0113041)
(1.94967 0.0977935 -0.00622416)
(0.744166 0.709429 0.0196858)
(1.61064 0.334732 0.00348834)
(0.75881 0.705975 -0.0301097)
(1.5868 0.346442 -0.00621372)
(1.94431 0.105608 0.0241817)
(1.60329 0.338593 0.0108036)
(0.749554 0.705251 0.0176003)
(0.417907 0.476067 -0.0148763)
(0.895958 0.37783 0.00808136)
(0.0861871 0.0730234 0.00213476)
(0.90254 0.375375 -0.00674285)
(0.41596 0.476408 0.00242351)
(0.415177 0.474731 0.000419263)
(0.889438 0.378865 0.009307)
(0.0816247 0.0723452 0.0107836)
(0.89418 0.378254 0.00021494)
(0.413347 0.473516 -0.00216347)
(0.75106 0.702699 -0.0149306)
(1.92792 0.109474 0.0196591)
(1.57978 0.340345 -0.00371096)
(1.58568 0.338129 0.0106273)
(0.745917 0.700677 0.013887)
(0.750118 0.702771 0.00535961)
(1.58787 0.340936 0.00450677)
(1.9291 0.104716 -0.0112527)
(0.746772 0.703688 -0.00835343)
(1.58907 0.334617 0.00227239)
(0.414834 0.475475 -0.0109443)
(0.891516 0.382515 -0.00201576)
(0.0803517 0.0720389 -0.0197958)
(0.414732 0.476373 0.00966395)
(0.892502 0.379659 0.0121594)
(1.55974 -0.0853253 0.0314355)
(1.29857 -0.259647 -0.00350183)
(1.29987 -0.258483 0.00981946)
(1.55773 -0.0857843 -0.0305418)
(1.60124 -0.00303699 -0.0230442)
(1.60781 -0.00145316 0.0139157)
(1.5598 -0.0697745 -0.0163143)
(1.30691 -0.24678 0.000167737)
(1.30175 -0.247684 0.00648755)
(1.56666 -0.0682706 0.0111966)
(1.6027 -0.0193192 0.0370132)
(1.60067 -0.019225 -0.0378943)
(1.55173 -0.0751271 -0.0201977)
(1.2969 -0.251743 -0.000672684)
(1.55483 -0.0743547 0.0167081)
(1.29395 -0.252477 0.00231303)
(1.59402 -0.0152737 0.0336838)
(1.57329 0.127217 -0.0382642)
(1.57418 0.12607 0.0349339)
(1.59287 -0.0147835 -0.0334144)
(1.59376 -0.00746294 -0.0268416)
(1.57587 0.131136 0.0226324)
(1.5967 -0.00707994 0.0216402)
(1.5738 0.131332 -0.0326972)
(1.55134 -0.0828428 0.0278047)
(1.29204 -0.25928 -0.00179347)
(1.29281 -0.25838 0.00585921)
(1.55024 -0.0829914 -0.0265)
(0.412352 0.472458 -0.00586181)
(0.888063 0.378847 -0.00141906)
(0.0801472 0.0719787 -0.0171756)
(0.888034 0.377176 0.0131606)
(0.413238 0.473783 0.00640221)
(0.745035 0.698843 0.0106944)
(1.57873 0.336884 0.00609878)
(1.91662 0.107477 -0.0121968)
(0.745344 0.700432 -0.0101364)
(1.57682 0.334347 0.00151939)
(0.745742 0.699115 -0.0110811)
(1.57108 0.335812 0.000265615)
(1.91542 0.109154 0.0185276)
(1.575 0.335702 0.0106744)
(0.741972 0.696525 0.0142562)
(0.412809 0.472617 0.00439785)
(0.885828 0.377046 0.0137795)
(0.0802116 0.0721184 0.0133267)
(0.889106 0.377267 0.00183902)
(0.410897 0.470717 -0.00258907)
(1.56934 0.334232 0.00998879)
(0.742694 0.6972 -0.00873306)
(0.885751 0.377015 0.00306869)
(0.411542 0.471498 0.00667819)
(1.54582 -0.0816902 0.0271175)
(1.28654 -0.259901 0.00242902)
(1.28798 -0.259178 0.00574904)
(1.54386 -0.0818671 -0.0222261)
(1.58895 -0.00953614 -0.0281247)
(1.57114 0.131485 0.0293815)
(1.56976 0.132364 -0.0342216)
(1.59098 -0.00961731 0.0270964)
(1.54663 -0.0786106 -0.0211976)
(1.29101 -0.255805 0.00150593)
(1.28901 -0.256554 0.00208995)
(1.54875 -0.078105 0.0213633)
(1.58839 -0.0124434 0.0329981)
(1.5674 0.13203 -0.0362328)
(1.56914 0.131003 0.0346783)
(1.58639 -0.0119891 -0.0295032)
(1.28511 -0.258829 0.00617072)
(1.54212 -0.0803062 0.0262649)
(1.56563 0.134123 0.0332659)
(1.58457 -0.0101661 0.0319718)
(0.00694536 -0.0457883 0.0197525)
(0.111726 -0.137613 0.0500408)
(0.268665 -0.014425 0.161921)
(0.3719 -0.219797 0.295631)
(0.175616 -0.14313 0.366299)
(1.21922 0.518824 -0.126891)
(0.725869 0.279406 -0.0663298)
(0.925222 -0.0422583 -0.138723)
(0.929466 0.052635 -0.141516)
(1.03471 0.0417359 -0.153482)
(1.04812 0.106767 -0.150172)
(1.08601 0.233912 0.349073)
(-0.0858747 -0.502401 -0.0325346)
(0.363483 0.60978 0.197296)
(1.37538 0.177929 0.105526)
(1.22831 0.243968 0.410911)
(1.4262 -0.0996356 -0.0781674)
(0.174362 1.81666 0.156934)
(1.43119 0.429275 -0.184833)
(1.18647 0.404941 -0.150056)
(1.414 0.352857 -0.240528)
(1.18821 0.450431 -0.107135)
(1.39937 0.446408 -0.205291)
(1.63157 0.365279 -0.310952)
(0.364078 0.366638 0.0386774)
(1.06673 0.467272 -0.0704303)
(0.523595 0.19994 -0.0216362)
(1.17312 0.528964 -0.0518065)
(0.82063 -0.0646485 -0.0154464)
(0.755137 0.0606485 -0.0815245)
(0.770599 -0.0558601 -0.0758386)
(0.799811 0.0691753 -0.0165577)
(0.922189 0.051276 -0.141526)
(0.935734 -0.0425792 -0.138816)
(0.804534 0.0717903 -0.0164834)
(0.76018 -0.0545263 -0.0774249)
(0.763322 0.0629404 -0.0797714)
(0.811996 -0.0642817 -0.0141408)
(0.901931 -0.0309353 -0.0227882)
(0.829638 0.0943637 -0.077468)
(0.841097 -0.00100393 -0.0798696)
(0.918069 0.0938664 -0.0150221)
(0.999106 0.0859019 -0.146126)
(1.00685 0.0151348 -0.147667)
(0.987172 0.0873253 -0.0143774)
(0.867104 0.0225886 -0.0844218)
(0.879006 0.114222 -0.0755587)
(0.932863 -0.0186766 -0.0261468)
(0.858969 0.00299723 0.217519)
(0.914159 0.0602448 0.18493)
(0.944177 -0.0789893 0.214054)
(0.80972 0.0299478 0.165768)
(0.868765 0.0437609 0.187694)
(0.898648 0.0338383 0.166499)
(0.898248 0.043066 0.16976)
(0.861559 0.0511839 0.18607)
(0.926979 0.0763303 -0.144439)
(0.955803 0.0529325 -0.144311)
(0.873076 0.0162528 0.183584)
(0.910386 0.00897494 0.16553)
(0.865147 0.00386586 0.182927)
(0.911465 0.00215972 0.169603)
(0.876968 -0.0145535 0.183454)
(0.915773 -0.00875101 0.165612)
(0.915499 -0.00420096 0.170321)
(0.868296 -0.001448 0.182264)
(0.924762 0.0579746 -0.14107)
(0.936742 -0.0352523 -0.139779)
(0.848375 -0.0949247 0.187011)
(0.920593 -0.0800216 0.170925)
(0.854742 -0.0835499 0.187056)
(0.921488 -0.130735 0.175736)
(1.17347 0.924257 -0.0301352)
(1.68387 0.31682 -0.170024)
(1.1462 0.365982 0.244007)
(1.43499 0.299326 -0.0965326)
(1.27564 0.606053 0.0296227)
(1.42147 0.382966 0.0143439)
(1.34746 0.873193 0.189921)
(1.02186 -0.18478 0.201551)
(0.965646 0.0502575 0.174228)
(1.01174 -0.0894179 0.211537)
(0.963118 0.0257768 0.153477)
(1.097 0.202466 0.101259)
(0.936166 0.113149 0.148337)
(0.970832 0.0918948 0.13694)
(0.985383 0.235275 0.0842468)
(1.1305 0.811436 -0.0809807)
(1.2918 0.506838 0.0666929)
(1.26875 0.457239 0.10499)
(1.08774 0.62476 0.0792365)
(1.09433 0.936043 0.234038)
(1.09709 0.538428 0.0920352)
(1.43592 0.413013 0.0170369)
(1.20509 0.781081 -0.0555341)
(1.41713 0.35153 -0.0123698)
(1.23052 0.395327 -0.0339371)
(1.45961 0.3978 -0.0129615)
(1.23953 0.373135 -0.0174876)
(1.52446 0.382621 0.01346)
(1.17161 0.81409 0.0253765)
(0.700195 0.10965 0.0987438)
(0.903138 0.119459 0.16205)
(0.738877 0.0515302 0.141232)
(1.0283 0.234661 0.109316)
(0.842539 0.0517577 -0.0260827)
(0.753725 0.0768056 -0.0865222)
(0.790784 0.0294296 -0.0798392)
(0.768753 0.0804733 -0.0275327)
(0.880003 0.0417668 0.0963357)
(0.862161 0.0314297 0.147327)
(0.862816 0.0435618 0.150628)
(0.867664 0.0539284 0.091158)
(0.876135 0.00787555 0.183628)
(0.911142 0.00755644 0.165531)
(0.866941 0.0207117 0.18233)
(0.915197 0.0123822 0.17006)
(0.871961 0.043712 0.185553)
(0.904217 0.0361854 0.167063)
(0.862945 0.0346405 0.186238)
(0.908665 0.0239143 0.170319)
(0.793146 0.0704635 -0.0215799)
(0.776142 -0.0194609 -0.0751135)
(0.832153 -0.0103763 -0.0166997)
(0.765331 0.0640383 -0.083321)
(0.906104 -0.00924889 0.0932041)
(0.882764 0.00521767 0.147698)
(0.884324 0.0109298 0.151551)
(0.908918 0.0228348 0.0902502)
(0.881278 0.0386129 0.0928196)
(0.87622 0.0351098 0.149148)
(0.908728 0.0233869 0.0944317)
(0.872478 0.0205967 0.150977)
(0.941666 -0.00515389 -0.137625)
(0.93508 0.0580363 -0.143615)
(0.896831 0.0190772 0.0920925)
(0.883468 0.00805874 0.147785)