/*--------------------------------*- C++ -*----------------------------------*\
| =========                 |                                                 |
| \\      /  F ield         | OpenFOAM: The Open Source CFD Toolbox           |
|  \\    /   O peration     | Version:  2012                                  |
|   \\  /    A nd           | Website:  www.openfoam.com                      |
|    \\/     M anipulation  |                                                 |
\*---------------------------------------------------------------------------*/
FoamFile
{
    version     2.0;
    format      ascii;
    class       surfaceVectorField;
    location    "0.104/fluid";
    object      Uf;
}
// * * * * * * * * * * * * * * * * * * * * * * * * * * * * * * * * * * * * * //

dimensions      [0 1 -1 0 0 0 0];


internalField   nonuniform List<vector> 
47458
(
(1.19995 3.91008e-05 3.65086e-05)
(1.19992 2.47518e-05 2.25115e-05)
(1.19992 2.25527e-05 2.68053e-05)
(1.19962 7.02201e-05 3.68998e-05)
(1.19953 6.10638e-05 2.27369e-05)
(1.19959 6.23518e-05 2.96806e-05)
(1.19954 6.69547e-05 3.84161e-05)
(1.19933 4.09749e-05 8.01469e-06)
(1.19927 3.88836e-05 9.2301e-06)
(1.19932 4.32974e-05 8.97802e-06)
(1.19916 4.01697e-05 1.89219e-05)
(1.19908 3.71384e-05 1.34878e-05)
(1.19901 3.67361e-05 1.46309e-05)
(1.19938 4.75321e-05 1.40991e-05)
(1.19914 3.69679e-05 2.67254e-05)
(1.19878 3.75812e-05 1.93591e-05)
(1.19869 3.85828e-05 2.12233e-05)
(1.19919 5.74485e-05 2.01075e-05)
(1.1989 3.79771e-05 3.79482e-05)
(1.19837 4.36143e-05 3.05836e-05)
(1.19824 4.60751e-05 3.43876e-05)
(1.19883 7.77257e-05 3.21392e-05)
(1.19851 4.4444e-05 5.97122e-05)
(1.19777 5.75266e-05 4.7745e-05)
(1.19758 6.24315e-05 5.30877e-05)
(1.19828 0.000112157 5.01491e-05)
(1.19793 5.98571e-05 9.24553e-05)
(1.19686 8.50155e-05 7.88101e-05)
(1.19655 9.57284e-05 8.8728e-05)
(1.1974 0.000175513 8.3276e-05)
(1.19706 8.9702e-05 0.000151507)
(1.19537 0.000143388 0.000130792)
(1.19486 0.000167029 0.000149658)
(1.19597 0.00029784 0.00013899)
(1.19564 0.000153416 0.000250933)
(1.19279 0.00028098 0.000231156)
(1.19186 0.000341158 0.000271337)
(1.19353 0.000558878 0.000247068)
(1.19318 0.000305438 0.000437688)
(1.18788 0.000646973 0.000474175)
(1.18596 0.000819279 0.000592298)
(1.18904 0.00119336 0.000516738)
(1.18848 0.000713673 0.000859914)
(1.17686 0.00178733 0.00133744)
(1.17196 0.00237391 0.00184716)
(1.17938 0.00305983 0.00151194)
(1.17821 0.00200331 0.00218288)
(1.14475 0.00585261 0.00550799)
(1.12795 0.00792509 0.00814821)
(1.15141 0.00983657 0.00654837)
(1.14999 0.00673407 0.00815278)
(1.02011 0.0167127 0.0266797)
(0.949782 0.0184755 0.0395985)
(1.02708 0.0332764 0.0349434)
(1.04529 0.0213051 0.0416607)
(0.113096 0.00627215 0.0508338)
(0.0902863 -0.0531759 0.0512796)
(0.168051 0.00324823 0.102317)
(0.0678471 0.018705 0.0614394)
(0.0522576 0.00577919 0.0238944)
(0.0480172 -0.00280008 0.0516002)
(0.0739577 -0.0010029 0.0633405)
(1.19992 2.60141e-06 2.22116e-05)
(1.19997 3.01064e-06 3.6223e-05)
(1.19992 3.57504e-06 2.20522e-05)
(1.19994 4.21511e-07 2.60935e-05)
(1.19964 4.46665e-05 3.26185e-05)
(1.19982 2.88641e-05 4.02109e-05)
(1.19978 4.20322e-05 2.70116e-05)
(1.19964 4.90636e-05 3.40169e-05)
(1.19977 3.77105e-05 4.1387e-05)
(1.19939 6.9677e-05 1.2455e-05)
(1.19968 6.74016e-05 1.27209e-05)
(1.19964 7.42331e-05 1.36595e-05)
(1.19938 8.39412e-05 1.37703e-05)
(1.19954 7.25253e-05 2.25181e-05)
(1.19945 0.000100649 1.53863e-05)
(1.19952 0.000101764 1.55223e-05)
(1.19948 0.00011281 1.63701e-05)
(1.19945 0.000122177 1.61132e-05)
(1.19962 0.000108168 2.73843e-05)
(1.19927 0.000147942 2.11453e-05)
(1.19931 0.000153168 2.07461e-05)
(1.19924 0.000170111 2.235e-05)
(1.19928 0.000180283 2.17024e-05)
(1.19947 0.000161954 3.84907e-05)
(1.19895 0.000225613 3.15764e-05)
(1.199 0.00023525 2.98697e-05)
(1.1989 0.000262415 3.37363e-05)
(1.19896 0.000274375 3.16164e-05)
(1.19919 0.000248166 5.77082e-05)
(1.19844 0.000349521 4.9726e-05)
(1.19853 0.000365368 4.74183e-05)
(1.19837 0.000409328 5.2628e-05)
(1.19847 0.000424924 4.97698e-05)
(1.19875 0.000385829 9.06559e-05)
(1.19763 0.000558924 8.1692e-05)
(1.19778 0.000584169 7.6235e-05)
(1.19753 0.000658388 8.64155e-05)
(1.1977 0.00067975 8.03428e-05)
(1.19805 0.000617019 0.000146777)
(1.19633 0.000923144 0.00013426)
(1.19658 0.000957272 0.000125106)
(1.19617 0.00109062 0.000142522)
(1.19646 0.00111589 0.000131984)
(1.19693 0.00101578 0.000239412)
(1.19416 0.00160184 0.000234084)
(1.19461 0.0016412 0.000215519)
(1.19393 0.00189411 0.00025045)
(1.19443 0.00191735 0.000227867)
(1.19511 0.00174812 0.000408673)
(1.1904 0.00298901 0.000473017)
(1.19123 0.00299137 0.000422006)
(1.19002 0.00352163 0.000518479)
(1.19099 0.00350665 0.000452004)
(1.19206 0.00320015 0.000772851)
(1.18314 0.00626373 0.00129615)
(1.18493 0.00599879 0.00109483)
(1.18251 0.00729226 0.00147136)
(1.18462 0.0070469 0.00120284)
(1.18681 0.00643253 0.001812)
(1.16617 0.0158036 0.0050649)
(1.17124 0.0140632 0.00401845)
(1.16536 0.0180023 0.00577593)
(1.17096 0.0162473 0.00450454)
(1.17771 0.0149303 0.0058559)
(1.1165 0.0501498 0.0233272)
(1.13502 0.0406774 0.017742)
(1.11773 0.0542982 0.025461)
(1.16423 0.0414976 0.025461)
(1.13524 0.0431342 0.0198484)
(0.482382 -0.0584712 0.0686717)
(0.77222 0.0206539 0.0581168)
(0.577035 0.12349 0.0994994)
(0.626133 0.0156997 0.0915384)
(0.982262 0.0438008 0.131243)
(1.19992 3.25638e-06 2.17084e-05)
(1.19998 8.15754e-06 3.59632e-05)
(1.19992 3.5913e-06 2.16165e-05)
(1.19993 3.22894e-06 2.52419e-05)
(1.19963 6.6493e-05 3.88114e-05)
(1.19981 5.66357e-05 4.56885e-05)
(1.19976 7.92418e-05 3.35444e-05)
(1.19963 7.18143e-05 4.04225e-05)
(1.19977 7.10202e-05 4.62225e-05)
(1.19937 0.000118288 1.77615e-05)
(1.19966 0.000118066 1.82996e-05)
(1.19963 0.000128617 1.87182e-05)
(1.19937 0.000127015 1.9068e-05)
(1.19955 0.000124774 2.60969e-05)
(1.19945 0.000174261 1.85391e-05)
(1.19952 0.00017285 1.87539e-05)
(1.19948 0.000190576 1.95655e-05)
(1.19945 0.000187234 1.94282e-05)
(1.19966 0.000182592 2.89021e-05)
(1.19931 0.000260048 2.34836e-05)
(1.19934 0.000257624 2.32227e-05)
(1.19929 0.000285195 2.45932e-05)
(1.19932 0.000279656 2.40527e-05)
(1.19956 0.000271557 3.89569e-05)
(1.19904 0.000394255 3.18569e-05)
(1.19909 0.000389798 3.05426e-05)
(1.19901 0.00043401 3.36036e-05)
(1.19907 0.000424525 3.18584e-05)
(1.19934 0.000410658 5.58237e-05)
(1.19862 0.000610494 4.88187e-05)
(1.19871 0.000601928 4.60661e-05)
(1.19859 0.000672553 5.12374e-05)
(1.19869 0.000655535 4.82081e-05)
(1.199 0.0006342 8.59156e-05)
(1.19799 0.000964876 7.61262e-05)
(1.19814 0.000946885 7.11149e-05)
(1.19795 0.00106407 8.012e-05)
(1.1981 0.00103265 7.42746e-05)
(1.19848 0.000999246 0.000134369)
(1.19699 0.00155891 0.000123918)
(1.19723 0.00152115 0.000115549)
(1.19694 0.00171896 0.000130493)
(1.1972 0.00165775 0.000121026)
(1.19768 0.00160946 0.000217053)
(1.19543 0.00258666 0.000207136)
(1.19583 0.00250245 0.000190998)
(1.19538 0.00284481 0.000218562)
(1.1958 0.00271905 0.000199941)
(1.19645 0.00265179 0.000357777)
(1.19299 0.00441715 0.000385582)
(1.19366 0.00421583 0.000345652)
(1.19295 0.00482022 0.000413579)
(1.19365 0.00454514 0.00036475)
(1.19462 0.00446738 0.000635966)
(1.18901 0.00776648 0.000946483)
(1.19021 0.00725095 0.000805101)
(1.18901 0.00831535 0.00105727)
(1.19022 0.00768327 0.000872603)
(1.19209 0.00764356 0.00136025)
(1.18146 0.0137929 0.00339622)
(1.18385 0.0124284 0.00277371)
(1.18117 0.0140917 0.00397488)
(1.18356 0.0126663 0.00312809)
(1.18921 0.0128592 0.00399147)
(1.15983 0.0226127 0.0153476)
(1.16537 0.0191715 0.0124853)
(1.15429 0.0203255 0.0180177)
(1.1623 0.0177279 0.014572)
(1.18709 0.0189368 0.016691)
(0.693221 0.0131325 0.0942964)
(0.80991 0.0164207 0.0585316)
(0.692809 0.0163851 0.0777431)
(0.692786 0.00935026 0.0944726)
(1.05817 0.0139659 0.125923)
(1.19992 4.20187e-06 2.12905e-05)
(1.19998 9.57877e-06 3.59153e-05)
(1.19993 4.13484e-06 2.47638e-05)
(1.19963 8.25223e-05 4.51289e-05)
(1.19981 6.86923e-05 5.1188e-05)
(1.19976 9.65026e-05 3.98262e-05)
(1.19977 8.57787e-05 5.05572e-05)
(1.19937 0.000144373 2.25943e-05)
(1.19966 0.000140722 2.32062e-05)
(1.19963 0.000152497 2.33059e-05)
(1.19957 0.000147488 2.88875e-05)
(1.19947 0.000210638 2.23171e-05)
(1.19954 0.000202739 2.26757e-05)
(1.19951 0.00022365 2.32444e-05)
(1.19972 0.000214078 3.08787e-05)
(1.19937 0.000315563 2.5431e-05)
(1.1994 0.000303036 2.52915e-05)
(1.19936 0.000335236 2.62673e-05)
(1.19967 0.000318859 3.84387e-05)
(1.19918 0.000477349 3.17907e-05)
(1.19923 0.000456903 3.10218e-05)
(1.19917 0.000507978 3.31417e-05)
(1.19954 0.000481187 5.2513e-05)
(1.1989 0.000733243 4.63724e-05)
(1.19898 0.000700441 4.38573e-05)
(1.1989 0.000780949 4.81958e-05)
(1.19933 0.000737623 7.86543e-05)
(1.19849 0.00114419 6.81808e-05)
(1.19861 0.00109024 6.37759e-05)
(1.19849 0.00122039 7.15075e-05)
(1.19903 0.00114905 0.000118414)
(1.19786 0.00181033 0.000110749)
(1.19805 0.00171922 0.000102318)
(1.19787 0.00192788 0.000115494)
(1.19857 0.00181098 0.000187907)
(1.19691 0.00287937 0.000177159)
(1.19721 0.00272151 0.000163717)
(1.19695 0.00305439 0.000184337)
(1.19792 0.00286736 0.000298299)
(1.1955 0.00458318 0.000305409)
(1.19598 0.00431051 0.000275308)
(1.19558 0.00482885 0.000321732)
(1.197 0.0045294 0.000499068)
(1.1932 0.00718025 0.000671374)
(1.194 0.00673372 0.000573789)
(1.19325 0.00749164 0.000732957)
(1.19569 0.00700586 0.000976372)
(1.1877 0.0106491 0.00232327)
(1.18936 0.0101001 0.00185111)
(1.18694 0.0110356 0.002672)
(1.19314 0.0101199 0.00269349)
(1.16403 0.0129788 0.011645)
(1.16964 0.0132027 0.00904378)
(1.15606 0.0128379 0.0134929)
(1.18399 0.0109586 0.0123152)
(0.677285 -0.0136269 0.0947879)
(0.789364 -0.00390652 0.0571053)
(0.670328 -0.0191208 0.0793584)
(0.667691 -0.013682 0.095365)
(1.02966 -0.0194331 0.124472)
(1.19993 2.27002e-05 7.04575e-06)
(1.19998 3.93514e-05 9.76793e-06)
(1.19994 2.47201e-05 5.16934e-06)
(1.19993 2.27957e-05 6.96962e-06)
(1.19961 6.66091e-05 6.44247e-05)
(1.1998 7.02012e-05 5.5321e-05)
(1.19973 6.05763e-05 6.97315e-05)
(1.19979 6.22443e-05 6.4165e-05)
(1.1996 6.63813e-05 7.16131e-05)
(1.19926 4.00796e-05 6.8914e-05)
(1.19956 4.09308e-05 7.5974e-05)
(1.19951 3.92447e-05 7.69347e-05)
(1.19956 4.40619e-05 7.56401e-05)
(1.19926 3.99209e-05 8.31697e-05)
(1.19925 3.68813e-05 8.47435e-05)
(1.19934 3.70133e-05 9.04972e-05)
(1.19928 3.68804e-05 9.76432e-05)
(1.19964 4.75372e-05 9.37913e-05)
(1.19926 3.68961e-05 0.000103477)
(1.19902 3.82423e-05 0.000120824)
(1.19907 3.79482e-05 0.000127768)
(1.19899 3.8609e-05 0.000141266)
(1.19948 5.75961e-05 0.000134017)
(1.19903 3.82034e-05 0.00014816)
(1.19865 4.36318e-05 0.00018417)
(1.19871 4.24624e-05 0.000193688)
(1.1986 4.48526e-05 0.000215802)
(1.19918 7.53852e-05 0.000203623)
(1.19867 4.33113e-05 0.000225406)
(1.19811 5.90964e-05 0.000288347)
(1.1982 5.64469e-05 0.000301915)
(1.19804 6.14719e-05 0.000338443)
(1.19872 0.000110016 0.000318373)
(1.19815 5.84758e-05 0.000352519)
(1.19728 8.83521e-05 0.000459347)
(1.19743 8.32247e-05 0.000479649)
(1.19718 9.35945e-05 0.000540481)
(1.198 0.000171155 0.000506917)
(1.19735 8.73907e-05 0.000561242)
(1.19594 0.000149234 0.000747712)
(1.19619 0.000138419 0.000777848)
(1.19577 0.000160348 0.000880991)
(1.19683 0.000286699 0.000822669)
(1.19606 0.000146908 0.00091157)
(1.19366 0.000293095 0.00125167)
(1.1941 0.000265787 0.00129282)
(1.19336 0.000321267 0.00147492)
(1.1949 0.000530276 0.00136808)
(1.19386 0.000286627 0.00151635)
(1.18942 0.00067874 0.00219098)
(1.19027 0.000603434 0.00222533)
(1.18883 0.000761132 0.00256916)
(1.19154 0.00111467 0.00235979)
(1.18982 0.000662164 0.00261643)
(1.18064 0.00188331 0.00418127)
(1.18242 0.00163973 0.00405067)
(1.17924 0.00217087 0.00475941)
(1.18531 0.00277497 0.00430819)
(1.18149 0.00183669 0.00482082)
(1.15936 0.00634041 0.00930445)
(1.16375 0.00541257 0.00799987)
(1.15542 0.00748873 0.00963033)
(1.17273 0.00856036 0.00856576)
(1.16139 0.00620707 0.00966341)
(1.09645 0.0241027 0.0238077)
(1.111 0.0207322 0.017074)
(1.08515 0.029672 0.0204271)
(1.14649 0.0329414 0.0190037)
(1.10114 0.0241493 0.0185427)
(0.860024 0.076648 0.0126425)
(0.902598 0.0862915 0.0250595)
(1.04858 0.149911 0.0429894)
(0.846825 0.0880096 0.0135739)
(0.969069 0.225308 0.0230183)
(0.553502 0.0915195 0.0185398)
(0.973674 0.222523 0.020325)
(0.549581 0.0930712 -0.000660957)
(1.19995 2.61185e-07 7.50633e-06)
(1.19995 2.41591e-06 5.14412e-06)
(1.2 2.52899e-06 1.00142e-05)
(1.19995 3.22667e-06 5.19887e-06)
(1.19995 3.16868e-07 7.26853e-06)
(1.19984 3.76653e-05 6.38791e-05)
(1.19984 4.56229e-05 6.32326e-05)
(1.2 2.98148e-05 5.43122e-05)
(1.19999 4.35041e-05 6.81043e-05)
(1.19984 5.04658e-05 6.28568e-05)
(1.19984 3.71276e-05 7.10924e-05)
(1.19964 7.23341e-05 6.76661e-05)
(1.19964 7.07868e-05 7.40683e-05)
(1.19992 6.87365e-05 7.37437e-05)
(1.1999 7.50913e-05 7.48829e-05)
(1.19964 8.49361e-05 7.33544e-05)
(1.19964 7.16293e-05 8.16893e-05)
(1.19973 0.00010705 8.37895e-05)
(1.19973 0.000100087 9.26582e-05)
(1.1998 0.000101313 8.89287e-05)
(1.19977 0.000112005 9.6169e-05)
(1.19974 0.000121396 9.17704e-05)
(1.19974 0.000106159 0.000102351)
(1.1996 0.000160171 0.000119298)
(1.19959 0.000146659 0.000132352)
(1.19963 0.000151659 0.000125805)
(1.19958 0.000168217 0.000138613)
(1.19961 0.000178302 0.000131128)
(1.19961 0.000158939 0.000145941)
(1.19933 0.000244508 0.000179235)
(1.19932 0.00022127 0.00019946)
(1.19938 0.000231074 0.000188443)
(1.19929 0.000257195 0.000209729)
(1.19935 0.000269309 0.000197192)
(1.19935 0.000242227 0.00021959)
(1.19891 0.00037903 0.00027919)
(1.1989 0.000341375 0.000310768)
(1.19899 0.000357117 0.000292372)
(1.19886 0.000399615 0.000327494)
(1.19895 0.0004153 0.000306519)
(1.19895 0.000374761 0.000341463)
(1.19826 0.000602545 0.000443009)
(1.19825 0.000541656 0.000493406)
(1.19838 0.000565486 0.000462897)
(1.19818 0.000637266 0.000520483)
(1.19833 0.000657853 0.00048557)
(1.19832 0.000594677 0.000541327)
(1.19722 0.000989387 0.000714869)
(1.1972 0.000890084 0.000796203)
(1.19742 0.000923954 0.000744527)
(1.1971 0.00105061 0.00084081)
(1.19734 0.00107616 0.000781297)
(1.19732 0.000974426 0.000871436)
(1.19555 0.00169249 0.00117993)
(1.19551 0.00153005 0.00131222)
(1.19587 0.00157039 0.00122145)
(1.19536 0.00180716 0.00138807)
(1.19577 0.00183245 0.00128222)
(1.19573 0.0016624 0.00143036)
(1.19284 0.00306772 0.00202171)
(1.19275 0.00281013 0.00223286)
(1.19338 0.00282087 0.00206382)
(1.19255 0.00330286 0.00236777)
(1.19327 0.00330076 0.00216767)
(1.19317 0.00300233 0.00241948)
(1.1886 0.00603484 0.00370109)
(1.18832 0.00569189 0.00397865)
(1.18943 0.00548418 0.00363787)
(1.18817 0.00657584 0.00422242)
(1.18949 0.006436 0.00382043)
(1.18923 0.00587611 0.00430656)
(1.18321 0.0131912 0.00752802)
(1.18219 0.01311 0.00749734)
(1.18405 0.0117928 0.00671654)
(1.18287 0.0144994 0.00787619)
(1.18509 0.0137562 0.00703953)
(1.18445 0.0127318 0.00814067)
(1.18554 0.0316295 0.0166502)
(1.18255 0.0331157 0.014672)
(1.18416 0.0272893 0.0126542)
(1.18854 0.033375 0.0146402)
(1.1891 0.0302009 0.013178)
(1.18767 0.0301331 0.0148679)
(1.24296 0.0672726 0.0222737)
(1.23854 0.0644221 0.0237722)
(1.23112 0.0505329 0.0195981)
(1.25445 0.0512917 0.0178009)
(1.23987 0.0462933 0.0182565)
(1.24126 0.061881 0.0153501)
(1.19994 3.19471e-06 6.91413e-06)
(1.19994 3.04519e-06 5.15914e-06)
(1.2 7.99471e-06 9.75021e-06)
(1.19994 3.43713e-06 5.1331e-06)
(1.19994 3.1693e-06 7.53628e-06)
(1.19983 7.07695e-05 6.34086e-05)
(1.19983 6.76894e-05 6.15303e-05)
(1.2 5.75531e-05 5.28075e-05)
(1.19998 8.03537e-05 6.6007e-05)
(1.19983 7.27239e-05 6.10207e-05)
(1.19983 7.01447e-05 7.02945e-05)
(1.19965 0.000124198 6.56806e-05)
(1.19964 0.000118761 7.08557e-05)
(1.19993 0.000118719 7.0483e-05)
(1.19991 0.000128845 7.14754e-05)
(1.19965 0.000127333 6.99296e-05)
(1.19965 0.000123278 7.93205e-05)
(1.19977 0.000180754 8.03152e-05)
(1.19976 0.000172921 8.82466e-05)
(1.19984 0.000171434 8.45253e-05)
(1.19981 0.000188917 9.12034e-05)
(1.19978 0.000185637 8.68411e-05)
(1.19977 0.000179346 9.82308e-05)
(1.19967 0.000267847 0.000113102)
(1.19967 0.000256109 0.000125518)
(1.1997 0.000253835 0.000118759)
(1.19966 0.000280703 0.000130739)
(1.19969 0.000275395 0.000123152)
(1.19969 0.000265474 0.000138702)
(1.19947 0.000404461 0.000168779)
(1.19946 0.000386934 0.000188071)
(1.19951 0.00038255 0.000177067)
(1.19945 0.000425069 0.000196591)
(1.1995 0.000415949 0.000184274)
(1.19949 0.000400651 0.000206663)
(1.19915 0.00062211 0.000258856)
(1.19913 0.000595204 0.000289252)
(1.19921 0.000586832 0.000271125)
(1.19912 0.000655117 0.000302666)
(1.19921 0.000638938 0.000282388)
(1.19919 0.000615223 0.000316752)
(1.19867 0.000977359 0.000405432)
(1.19864 0.000935906 0.000453956)
(1.19877 0.000919002 0.000423845)
(1.19862 0.00103135 0.000474958)
(1.19876 0.00100141 0.000441435)
(1.19873 0.000964799 0.000495471)
(1.19794 0.00156744 0.000643445)
(1.19788 0.00150389 0.00072149)
(1.19808 0.00146868 0.000671017)
(1.19786 0.0016568 0.000754102)
(1.19808 0.00159926 0.000697735)
(1.19803 0.00154361 0.000784565)
(1.19683 0.00256805 0.00103699)
(1.19672 0.00247499 0.00116389)
(1.19705 0.00239734 0.00107675)
(1.19673 0.00271851 0.0012154)
(1.19707 0.00260196 0.00111792)
(1.19698 0.00252195 0.00125847)
(1.19525 0.00428917 0.00171558)
(1.19506 0.00417104 0.00192028)
(1.19558 0.00398995 0.00176344)
(1.19514 0.00454201 0.00200374)
(1.19566 0.00429453 0.0018281)
(1.19551 0.00419675 0.0020595)
(1.19338 0.00721928 0.00297902)
(1.19303 0.00715025 0.00327072)
(1.19377 0.00670508 0.00297543)
(1.19334 0.00762099 0.00340678)
(1.19401 0.00708056 0.00307954)
(1.19385 0.00702762 0.00350254)
(1.1928 0.0117222 0.00561865)
(1.19202 0.0120399 0.00573099)
(1.19271 0.0109467 0.00516136)
(1.19298 0.0121731 0.00594751)
(1.19333 0.0110553 0.00532627)
(1.19365 0.0113168 0.00630994)
(1.201 0.0157962 0.0118572)
(1.19888 0.0177284 0.0102112)
(1.19785 0.0150943 0.00916526)
(1.20194 0.0152845 0.0105117)
(1.19908 0.0135887 0.00938971)
(1.20245 0.014977 0.0116146)
(1.24484 0.0112999 0.0190447)
(1.23075 0.0156807 0.0116353)
(1.22628 0.0112787 0.012102)
(1.23718 0.00867142 0.00738101)
(1.22785 0.00750593 0.010394)
(1.24016 0.0100911 0.0155121)
(1.19994 4.10958e-06 6.58555e-06)
(1.19994 4.12753e-06 5.15024e-06)
(1.2 9.51821e-06 9.56182e-06)
(1.19994 4.11396e-06 7.62468e-06)
(1.19984 8.53441e-05 6.26627e-05)
(1.19984 8.32322e-05 5.94795e-05)
(1.2 6.91754e-05 5.10683e-05)
(1.19999 9.69906e-05 6.36304e-05)
(1.19984 8.46338e-05 6.92549e-05)
(1.19967 0.00014618 6.30588e-05)
(1.19967 0.000143689 6.69231e-05)
(1.19995 0.000140067 6.67024e-05)
(1.19994 0.00015151 6.72215e-05)
(1.19967 0.000145091 7.61124e-05)
(1.19983 0.000212003 7.5371e-05)
(1.19982 0.000208945 8.20282e-05)
(1.19989 0.00020104 7.84691e-05)
(1.19987 0.000221619 8.44478e-05)
(1.19983 0.000210275 9.23374e-05)
(1.19979 0.000314894 0.000104794)
(1.19978 0.000310684 0.000115682)
(1.19981 0.000298531 0.000109367)
(1.19978 0.000330082 0.000120075)
(1.1998 0.000312345 0.000128606)
(1.19966 0.000473867 0.000153819)
(1.19965 0.000467847 0.000171235)
(1.19969 0.000448392 0.000160855)
(1.19965 0.000497699 0.000178046)
(1.19968 0.000469343 0.000188296)
(1.19948 0.0007247 0.000232283)
(1.19945 0.000715728 0.000259798)
(1.19952 0.000684397 0.000243053)
(1.19946 0.000762244 0.000270379)
(1.19951 0.000716923 0.00028424)
(1.1992 0.00112402 0.000356963)
(1.19916 0.00111072 0.000400691)
(1.19926 0.00105884 0.000373531)
(1.19918 0.00118348 0.000416045)
(1.19925 0.0011098 0.000435983)
(1.1988 0.00176264 0.000550601)
(1.19872 0.00174419 0.000620384)
(1.19889 0.00165722 0.00057577)
(1.19877 0.00185548 0.000642268)
(1.19887 0.00173606 0.0006725)
(1.19823 0.00277667 0.000859296)
(1.19811 0.00275498 0.00097059)
(1.19836 0.00260657 0.000895379)
(1.1982 0.00291848 0.00100198)
(1.19834 0.00272648 0.00104494)
(1.19748 0.0043482 0.00136487)
(1.19731 0.00433089 0.00154167)
(1.19766 0.00408037 0.00141185)
(1.19746 0.00455128 0.00158694)
(1.19767 0.00425254 0.00164494)
(1.19658 0.00660363 0.00224981)
(1.19637 0.00660349 0.0025101)
(1.19682 0.00621751 0.00227692)
(1.19659 0.00684164 0.00257572)
(1.19691 0.00641723 0.00266804)
(1.19555 0.00902912 0.00400712)
(1.19531 0.00906262 0.0041836)
(1.19572 0.00867579 0.00375762)
(1.19534 0.00912202 0.00427717)
(1.19612 0.00865702 0.00458043)
(1.19457 0.0070774 0.00835026)
(1.19441 0.00762106 0.0071687)
(1.19408 0.00816388 0.00640167)
(1.19376 0.00585677 0.00729349)
(1.19553 0.0063212 0.00815008)
(1.20279 -0.0456342 0.0143235)
(1.20784 -0.0276452 0.00881036)
(1.19772 -0.0272059 0.00905851)
(1.20548 -0.0567886 0.0068341)
(1.20052 -0.0460747 0.0101498)
(1.19993 2.31469e-05 7.47173e-06)
(1.19998 3.99904e-05 1.39188e-05)
(1.19994 2.54597e-05 7.65577e-06)
(1.19993 2.32249e-05 7.72928e-06)
(1.1996 6.6219e-05 8.90731e-05)
(1.19979 7.01518e-05 7.73921e-05)
(1.19973 6.03252e-05 0.000100788)
(1.19979 6.18497e-05 9.17268e-05)
(1.1996 6.6315e-05 9.37004e-05)
(1.19928 3.98077e-05 0.000116313)
(1.19958 4.07451e-05 0.00011945)
(1.19953 3.91764e-05 0.000123676)
(1.19958 4.34464e-05 0.000120889)
(1.19928 3.98949e-05 0.000124443)
(1.19929 3.70955e-05 0.000150338)
(1.19938 3.72556e-05 0.000150885)
(1.19932 3.71486e-05 0.000163626)
(1.19968 4.74594e-05 0.000156993)
(1.1993 3.72269e-05 0.00016234)
(1.19909 3.78862e-05 0.000215976)
(1.19913 3.78648e-05 0.000215058)
(1.19907 3.80212e-05 0.000237388)
(1.19956 5.65894e-05 0.000225567)
(1.19911 3.79481e-05 0.000233565)
(1.19877 4.24851e-05 0.000329499)
(1.19883 4.12421e-05 0.000326043)
(1.19874 4.35715e-05 0.0003637)
(1.19931 7.23497e-05 0.000343108)
(1.1988 4.20165e-05 0.000356092)
(1.19831 5.66136e-05 0.000513333)
(1.1984 5.40255e-05 0.000507049)
(1.19827 5.8903e-05 0.000567582)
(1.19893 0.000104278 0.000534438)
(1.19837 5.58697e-05 0.000554444)
(1.19761 8.37245e-05 0.00081495)
(1.19776 7.88726e-05 0.00080246)
(1.19755 8.79058e-05 0.000902516)
(1.19835 0.000160531 0.000847423)
(1.19771 8.22508e-05 0.000879224)
(1.19651 0.000136947 0.00131405)
(1.19675 0.000126611 0.00129018)
(1.19641 0.000145391 0.00145573)
(1.19742 0.000262123 0.00136233)
(1.19668 0.000133047 0.00141387)
(1.19466 0.000261322 0.00214758)
(1.19508 0.000235574 0.00210077)
(1.1945 0.00028316 0.0023774)
(1.1959 0.00047407 0.00221614)
(1.19497 0.000251286 0.00230033)
(1.19129 0.000600757 0.00355878)
(1.19208 0.00052953 0.00346028)
(1.19095 0.000668988 0.00392543)
(1.19333 0.000984847 0.00364536)
(1.19183 0.00057721 0.00377787)
(1.18432 0.00168565 0.0059521)
(1.18593 0.00145762 0.00573312)
(1.1834 0.00194319 0.0064946)
(1.18869 0.00244961 0.00602291)
(1.18524 0.00163244 0.00621038)
(1.16666 0.00588116 0.00972461)
(1.17059 0.00500387 0.00926381)
(1.16327 0.0070219 0.0102992)
(1.17901 0.00771683 0.00966057)
(1.16802 0.00577248 0.00985106)
(1.10642 0.0239156 0.0135145)
(1.11936 0.0202651 0.0130232)
(1.09054 0.0291268 0.013421)
(1.15144 0.0311234 0.0134101)
(1.10747 0.0237819 0.0132549)
(0.839396 0.085595 0.00826016)
(0.889412 0.0800331 0.0105701)
(1.02656 0.139476 0.0111899)
(0.838277 0.0857493 0.00918776)
(0.965702 0.209074 0.0180118)
(0.550276 0.0881108 0.00703535)
(0.966192 0.209413 0.00177159)
(0.550118 0.0880079 8.86249e-05)
(1.19995 2.70466e-07 7.59773e-06)
(1.19995 2.23352e-06 7.63324e-06)
(1.2 2.46744e-06 1.40477e-05)
(1.19995 3.20586e-06 7.62131e-06)
(1.19995 2.5993e-07 7.90625e-06)
(1.19984 3.62622e-05 8.92231e-05)
(1.19984 4.49149e-05 9.17287e-05)
(1.2 2.91756e-05 7.7647e-05)
(1.19999 4.25295e-05 0.000100672)
(1.19983 4.96691e-05 9.15272e-05)
(1.19984 3.58427e-05 9.40454e-05)
(1.19965 6.98955e-05 0.000114569)
(1.19965 6.88651e-05 0.000119418)
(1.19994 6.67956e-05 0.000117802)
(1.19992 7.28289e-05 0.000121822)
(1.19965 8.28184e-05 0.000118647)
(1.19966 6.91382e-05 0.000122776)
(1.19977 0.000103413 0.000148417)
(1.19977 9.71149e-05 0.000155313)
(1.19984 9.79514e-05 0.000148851)
(1.19981 0.000108242 0.000161432)
(1.19978 0.000117543 0.00015414)
(1.19978 0.000102235 0.000160133)
(1.19967 0.000154525 0.000212696)
(1.19967 0.00014165 0.000222745)
(1.1997 0.000146232 0.000211657)
(1.19966 0.000161822 0.000233399)
(1.19968 0.000171805 0.000220828)
(1.19969 0.000152597 0.000229694)
(1.19944 0.000233146 0.000321066)
(1.19945 0.00021044 0.000336681)
(1.1995 0.000219994 0.000318057)
(1.19943 0.000244044 0.000354032)
(1.19948 0.000256261 0.000332956)
(1.19948 0.0002294 0.000346999)
(1.1991 0.000357734 0.000498053)
(1.19911 0.00032105 0.000522537)
(1.19918 0.000336101 0.000492046)
(1.19908 0.000375191 0.000550416)
(1.19915 0.000390572 0.000515739)
(1.19916 0.000350904 0.000538062)
(1.19857 0.000563004 0.000786011)
(1.19859 0.000503762 0.000824925)
(1.19869 0.000526476 0.000774591)
(1.19854 0.000591425 0.000869446)
(1.19866 0.000611639 0.000812069)
(1.19867 0.0005501 0.000847781)
(1.19774 0.000913713 0.00125606)
(1.19776 0.000816956 0.00131845)
(1.19794 0.000849319 0.00123478)
(1.19769 0.00096258 0.00138964)
(1.19789 0.000987763 0.00129399)
(1.19791 0.000889181 0.00135162)
(1.19643 0.0015423 0.00202824)
(1.19646 0.00138373 0.00212765)
(1.19675 0.00142349 0.00198729)
(1.19636 0.00163181 0.0022412)
(1.19669 0.00165749 0.00208015)
(1.1967 0.00149468 0.00217282)
(1.19439 0.00275045 0.00330594)
(1.19441 0.00249848 0.00346002)
(1.1949 0.00251481 0.00322192)
(1.1943 0.00293107 0.00363776)
(1.19486 0.00293553 0.00336409)
(1.19484 0.00265429 0.0035103)
(1.19138 0.00530907 0.00539756)
(1.19131 0.00497413 0.00561827)
(1.19213 0.00479722 0.00521898)
(1.1913 0.00572373 0.00586884)
(1.1923 0.00562968 0.00541996)
(1.19208 0.00511015 0.00563461)
(1.18797 0.0113809 0.00850459)
(1.18743 0.0113776 0.00876449)
(1.18876 0.0101521 0.00815166)
(1.18812 0.0124834 0.00896564)
(1.18993 0.0119528 0.00835705)
(1.18885 0.0109713 0.00861626)
(1.18714 0.0301808 0.0114688)
(1.19048 0.027507 0.0112741)
(1.18927 0.0241804 0.01083)
(1.19198 0.0303526 0.0109191)
(1.19058 0.0266723 0.0111872)
(1.19377 0.0273644 0.0106417)
(1.22164 0.076753 0.00768004)
(1.23156 0.0636151 0.00787662)
(1.21963 0.0563099 0.00778984)
(1.24019 0.0638022 0.00519505)
(1.22877 0.0620595 0.00831002)
(1.23005 0.0542409 0.0061397)
(1.19994 3.13587e-06 7.42924e-06)
(1.19994 2.98326e-06 7.56925e-06)
(1.2 7.99143e-06 1.38642e-05)
(1.19994 3.33754e-06 7.55129e-06)
(1.19994 3.11897e-06 7.79065e-06)
(1.19983 6.91556e-05 8.81578e-05)
(1.19983 6.68322e-05 9.0579e-05)
(1.19999 5.6969e-05 7.66791e-05)
(1.19998 7.91878e-05 9.90409e-05)
(1.19983 7.16775e-05 9.01678e-05)
(1.19983 6.85714e-05 9.29355e-05)
(1.19966 0.000120834 0.000111273)
(1.19966 0.000115975 0.000116028)
(1.19994 0.000115995 0.000114524)
(1.19993 0.000125685 0.000118151)
(1.19966 0.000124318 0.000114976)
(1.19966 0.00011979 0.000119249)
(1.1998 0.000174813 0.000142606)
(1.1998 0.000167306 0.000149522)
(1.19987 0.000166079 0.000143196)
(1.19985 0.000182546 0.000154944)
(1.19982 0.000179578 0.000147672)
(1.19982 0.000172958 0.000153833)
(1.19974 0.000257237 0.000202732)
(1.19974 0.000245759 0.000212998)
(1.19977 0.000243732 0.000202009)
(1.19974 0.000268948 0.000222094)
(1.19976 0.000264152 0.000209759)
(1.19976 0.000253987 0.000218968)
(1.19958 0.000385474 0.000302016)
(1.19958 0.000367785 0.000317992)
(1.19962 0.000363847 0.000299581)
(1.19957 0.000403418 0.000332515)
(1.19962 0.000395075 0.000311867)
(1.19961 0.000379327 0.000326361)
(1.19933 0.000587753 0.000462846)
(1.19932 0.000560013 0.00048823)
(1.19939 0.000552934 0.000458102)
(1.19932 0.000615454 0.000510671)
(1.19939 0.000601194 0.000477036)
(1.19939 0.00057652 0.000500151)
(1.19895 0.000913491 0.000719769)
(1.19894 0.00087009 0.000760218)
(1.19905 0.000855651 0.000710666)
(1.19894 0.000957637 0.000794732)
(1.19905 0.000931406 0.000739539)
(1.19904 0.000892752 0.000776551)
(1.19839 0.00144838 0.00113173)
(1.19837 0.00138133 0.00119673)
(1.19853 0.00135141 0.00111506)
(1.19837 0.00151906 0.00124913)
(1.19855 0.00146934 0.00115861)
(1.19853 0.00141016 0.0012182)
(1.19757 0.00233953 0.00178862)
(1.19753 0.00223921 0.00189326)
(1.19779 0.00217305 0.00175788)
(1.19756 0.00245429 0.00197031)
(1.19783 0.00235411 0.00182102)
(1.1978 0.0022671 0.00191688)
(1.19649 0.0038428 0.00283623)
(1.19641 0.00370924 0.00300033)
(1.1968 0.00355551 0.00277544)
(1.19653 0.00402807 0.00311056)
(1.19692 0.00381748 0.00286493)
(1.19685 0.0037071 0.00301459)
(1.19549 0.00633505 0.00447946)
(1.19532 0.006231 0.004718)
(1.19583 0.00585279 0.00435593)
(1.19571 0.00661377 0.00485665)
(1.19614 0.00615624 0.00447229)
(1.19603 0.00608879 0.00468844)
(1.19627 0.0100178 0.00680432)
(1.19595 0.0102759 0.00708068)
(1.19628 0.00932252 0.00657409)
(1.19704 0.0102977 0.00716111)
(1.197 0.00932719 0.00667867)
(1.19691 0.00961497 0.00693586)
(1.20519 0.0129545 0.00879031)
(1.20387 0.0150454 0.00858814)
(1.20289 0.0124816 0.00828446)
(1.2067 0.0125449 0.00815649)
(1.20394 0.0108863 0.00808167)
(1.20507 0.0124491 0.00886587)
(1.23562 0.00847663 0.00636885)
(1.23014 0.0145312 0.00329661)
(1.22663 0.00919593 0.00434188)
(1.23596 0.00717978 0.00141153)
(1.22794 0.00474152 0.00295244)
(1.23251 0.00814148 0.00612343)
(1.19994 3.99078e-06 7.26035e-06)
(1.19994 3.95716e-06 7.453e-06)
(1.2 9.21997e-06 1.36393e-05)
(1.19994 3.95833e-06 7.64115e-06)
(1.19983 8.32127e-05 8.67126e-05)
(1.19984 8.18691e-05 8.87758e-05)
(1.2 6.79388e-05 7.52423e-05)
(1.19999 9.53805e-05 9.66993e-05)
(1.19984 8.23985e-05 9.12347e-05)
(1.19968 0.000142117 0.000106707)
(1.19968 0.000140099 0.000111421)
(1.19996 0.000136952 0.000110024)
(1.19996 0.000147474 0.000113141)
(1.19969 0.000140921 0.000114513)
(1.19986 0.000204536 0.000134606)
(1.19986 0.000201725 0.00014146)
(1.19992 0.00019416 0.000135489)
(1.19991 0.000213709 0.000146025)
(1.19987 0.00020227 0.000145356)
(1.19985 0.000302483 0.000188472)
(1.19984 0.000297893 0.000198632)
(1.19987 0.000286456 0.000188198)
(1.19985 0.00031609 0.000206101)
(1.19987 0.000298418 0.000203647)
(1.19976 0.000451612 0.000275768)
(1.19975 0.000444428 0.000291364)
(1.19979 0.000426542 0.000274302)
(1.19976 0.000472353 0.000302967)
(1.19979 0.000444472 0.000298203)
(1.19963 0.000685086 0.000415127)
(1.19961 0.000673611 0.000439514)
(1.19967 0.000644971 0.000411616)
(1.19963 0.0007167 0.000456895)
(1.19968 0.000672005 0.000448427)
(1.19943 0.00105226 0.000633535)
(1.19941 0.00103451 0.000672063)
(1.1995 0.000987789 0.000627114)