/*--------------------------------*- C++ -*----------------------------------*\
| =========                 |                                                 |
| \\      /  F ield         | OpenFOAM: The Open Source CFD Toolbox           |
|  \\    /   O peration     | Version:  2012                                  |
|   \\  /    A nd           | Website:  www.openfoam.com                      |
|    \\/     M anipulation  |                                                 |
\*---------------------------------------------------------------------------*/
FoamFile
{
    version     2.0;
    format      ascii;
    class       volScalarField::Internal;
    location    "0.104/fluid";
    object      V0;
}
// * * * * * * * * * * * * * * * * * * * * * * * * * * * * * * * * * * * * * //

dimensions      [0 3 0 0 0 0 0];


value           nonuniform List<scalar> 
16421
(
4.25189e-05
4.25183e-05
4.25181e-05
4.25185e-05
4.25195e-05
4.25204e-05
4.25219e-05
4.25232e-05
4.25246e-05
4.25255e-05
4.25246e-05
4.25175e-05
4.2488e-05
4.23056e-05
6.9608e-07
4.25269e-05
4.25249e-05
4.25224e-05
4.25227e-05
4.25224e-05
4.25218e-05
4.25215e-05
4.25223e-05
4.25229e-05
4.25232e-05
4.25237e-05
4.25235e-05
4.25176e-05
4.24991e-05
5.28443e-06
4.25354e-05
4.25321e-05
4.25275e-05
4.25273e-05
4.25267e-05
4.25238e-05
4.2519e-05
4.25194e-05
4.25198e-05
4.252e-05
4.25228e-05
4.25303e-05
4.25434e-05
4.25566e-05
5.27388e-06
4.25424e-05
4.25384e-05
4.25329e-05
4.25336e-05
4.25333e-05
4.25266e-05
4.25215e-05
4.252e-05
4.25199e-05
4.25203e-05
4.25233e-05
4.25308e-05
4.25408e-05
4.25388e-05
5.28601e-06
4.25188e-05
4.25182e-05
4.25178e-05
4.25187e-05
4.25188e-05
4.25199e-05
4.25211e-05
4.25229e-05
4.2524e-05
4.25247e-05
4.2524e-05
4.25188e-05
4.25037e-05
4.24776e-05
4.2397e-05
4.25267e-05
4.2525e-05
4.25225e-05
4.25224e-05
4.25211e-05
4.25212e-05
4.25207e-05
4.25211e-05
4.25217e-05
4.25225e-05
4.25229e-05
4.25234e-05
4.25238e-05
4.25385e-05
4.26537e-05
4.25351e-05
4.25327e-05
4.25274e-05
4.25273e-05
4.25254e-05
4.25221e-05
4.25182e-05
4.25176e-05
4.25177e-05
4.25186e-05
4.2521e-05
4.25295e-05
4.25435e-05
4.2567e-05
4.26093e-05
4.25414e-05
4.2539e-05
4.25333e-05
4.25328e-05
4.25312e-05
4.25265e-05
4.25208e-05
4.25172e-05
4.25177e-05
4.25192e-05
4.25217e-05
4.25303e-05
4.25432e-05
4.25409e-05
4.25417e-05
4.25187e-05
4.2518e-05
4.25181e-05
4.25183e-05
4.25185e-05
4.25198e-05
4.25217e-05
4.25222e-05
4.25229e-05
4.25235e-05
4.25225e-05
4.25182e-05
4.25066e-05
4.24699e-05
4.22815e-05
4.25263e-05
4.25249e-05
4.25234e-05
4.25219e-05
4.25206e-05
4.25199e-05
4.25199e-05
4.25189e-05
4.2519e-05
4.25204e-05
4.25213e-05
4.25217e-05
4.25234e-05
4.25349e-05
4.2596e-05
4.25345e-05
4.25324e-05
4.25293e-05
4.25269e-05
4.25252e-05
4.25205e-05
4.25161e-05
4.25149e-05
4.25148e-05
4.25158e-05
4.2518e-05
4.25261e-05
4.25422e-05
4.25742e-05
4.26342e-05
4.25413e-05
4.25386e-05
4.25352e-05
4.2532e-05
4.25295e-05
4.25236e-05
4.25174e-05
4.2515e-05
4.25159e-05
4.25155e-05
4.2518e-05
4.25264e-05
4.25412e-05
4.25519e-05
4.25325e-05
5.24585e-06
4.24677e-05
4.20636e-05
4.2459e-05
4.25369e-05
4.25146e-05
4.26043e-05
5.26057e-06
4.25657e-05
4.27033e-05
4.30298e-05
5.27429e-06
4.2637e-05
4.28695e-05
4.25616e-05
4.27015e-05
5.28157e-06
4.25647e-05
4.2718e-05
4.25887e-05
4.2784e-05
4.25715e-05
5.32332e-06
4.26649e-05
4.28647e-05
4.22871e-05
4.25733e-05
4.27026e-05
5.32227e-06
4.25252e-05
5.31404e-06
4.25617e-05
4.26877e-05
5.31436e-06
5.53522e-06
6.65057e-07
5.32079e-06
5.3251e-06
5.39281e-06
4.24261e-05
4.25521e-05
4.24922e-05
4.25302e-05
4.25871e-05
4.25596e-05
4.25684e-05
5.27889e-06
5.27944e-06
4.23693e-05
5.28669e-06
4.23708e-05
4.24811e-05
4.25501e-05
4.25104e-05
4.25627e-05
4.25704e-05
4.25521e-05
4.25746e-05
5.28452e-06
5.27436e-06
4.23382e-05
5.27919e-06
4.23502e-05
4.25251e-05
4.25402e-05
4.25431e-05
4.26039e-05
5.33466e-06
4.27502e-05
4.25605e-05
4.26768e-05
4.26359e-05
4.27321e-05
4.25355e-05
4.25893e-05
4.25285e-05
4.25481e-05
4.25229e-05
4.23379e-05
4.25285e-05
4.23181e-05
4.27231e-05
4.25401e-05
4.25869e-05
4.25308e-05
4.23131e-05
4.25476e-05
4.23246e-05
4.22625e-05
4.17137e-05
5.31931e-06
5.26775e-06
5.29744e-06
4.22155e-05
4.20338e-05
5.55478e-06
6.80205e-07
6.50956e-07
5.48988e-06
5.31684e-06
4.21898e-05
5.32956e-06
5.29139e-06
5.52206e-06
5.34848e-06
5.59451e-06
5.28649e-06
5.46094e-06
6.469e-07
6.69163e-07
6.7764e-07
5.32965e-06
6.51666e-07
5.27286e-06
5.3399e-06
5.28042e-06
5.33062e-06
5.2795e-06
5.27788e-06
4.23396e-05
4.23515e-05
5.2792e-06
5.27359e-06
5.33247e-06
5.332e-06
5.27313e-06
5.27872e-06
5.33272e-06
5.27314e-06
5.33993e-06
5.28547e-06
5.27488e-06
4.24664e-05
4.23851e-05
5.3181e-06
5.28001e-06
5.3936e-06
5.34174e-06
5.3242e-06
5.41221e-06
5.34442e-06
4.26347e-05
4.2389e-05
4.25698e-05
5.38181e-06
5.30938e-06
5.3461e-06
5.31582e-06
6.47189e-07
6.69358e-07
5.32816e-06
6.68704e-07
6.46774e-07
5.31731e-06
6.46803e-07
6.6864e-07
6.6878e-07
5.31451e-06
6.4685e-07
5.3093e-06
5.31494e-06
5.30213e-06
4.25239e-05
4.23091e-05
4.23104e-05
5.31556e-06
5.3015e-06
5.3031e-06
5.31444e-06
6.46828e-07
6.68672e-07
5.31534e-06
6.68626e-07
6.468e-07
5.31486e-06
6.68639e-07
6.46812e-07
5.30207e-06
5.31469e-06
5.30339e-06
5.31524e-06
5.30407e-06
7.06645e-07
6.32705e-07
6.68084e-07
6.79941e-07
4.24663e-05
4.25242e-05
4.26061e-05
4.24743e-05
4.23715e-05
4.25217e-05
4.25498e-05
4.26006e-05
5.24694e-06
4.256e-05
4.23289e-05
4.26693e-05
4.24812e-05
5.24145e-06
4.28195e-05
4.26092e-05
4.274e-05
4.26067e-05
4.26913e-05
4.26565e-05
4.27586e-05
4.23629e-05
4.2518e-05
4.254e-05
4.25553e-05
5.24059e-06
4.24201e-05
4.22797e-05
4.25572e-05
4.24164e-05
5.24053e-06
4.26746e-05
4.26542e-05
4.27492e-05
5.12281e-06
5.17181e-06
6.39917e-07
5.09997e-06
6.19533e-07
5.10541e-06
5.16418e-06
4.24425e-05
4.22438e-05
4.2351e-05
4.22634e-05
4.23502e-05
4.24153e-05
4.24525e-05
6.42463e-07
6.73552e-07
6.61635e-07
6.52079e-07
4.35993e-05
4.30656e-05
5.25134e-06
4.27421e-05
4.31885e-05
4.28649e-05
5.31524e-06
4.33863e-05
4.32585e-05
5.35299e-06
4.28863e-05
5.46194e-06
4.29895e-05
4.27419e-05
6.5356e-07
6.7449e-07
6.75138e-07
6.52931e-07
6.53765e-07
6.7547e-07
6.7544e-07
6.53785e-07
6.53851e-07
6.75465e-07
6.75551e-07
6.53779e-07
6.54367e-07
6.78584e-07
6.76182e-07
6.56245e-07
6.68347e-07
6.79198e-07
7.03792e-07
6.56525e-07
4.247e-05
5.34505e-06
4.27592e-05
4.27761e-05
4.25458e-05
5.33497e-06
4.26847e-05
4.25737e-05
4.22998e-05
5.24052e-06
4.24285e-05
4.24455e-05
4.25622e-05
5.24121e-06
4.24373e-05
4.27288e-05
5.3322e-06
4.262e-05
5.3341e-06
4.26433e-05
4.24217e-05
4.241e-05
5.33204e-06
4.26068e-05
4.26788e-05
4.2414e-05
5.33149e-06
4.25988e-05
5.24062e-06
5.33147e-06
6.89866e-07
7.0108e-07
7.00377e-07
6.80091e-07
7.1417e-07
6.50524e-07
4.45669e-08
6.74306e-07
6.52602e-07
6.9733e-07
6.81989e-07
6.90873e-07
6.80092e-07
5.2504e-06
6.49039e-07
6.56072e-07
5.25886e-06
6.56565e-07
6.45303e-07
5.24574e-06
6.5663e-07
6.44188e-07
6.56606e-07
5.24299e-06
6.44847e-07
5.24049e-06
6.43634e-07
6.56671e-07
5.24032e-06
6.56752e-07
6.43643e-07
5.2408e-06
6.56901e-07
6.43663e-07
6.56711e-07
5.24152e-06
6.43625e-07
5.30459e-06
6.4399e-07
6.59226e-07
5.27005e-06
6.709e-07
6.47015e-07
6.80172e-07
6.49207e-07
5.20475e-06
2.46033e-08
5.2322e-06
5.33533e-06
6.13621e-07
5.29217e-06
5.2289e-06
5.40795e-08
7.27217e-07
7.33527e-07
5.72012e-08
7.70451e-07
7.30053e-07
5.57887e-08
6.71773e-07
7.48438e-07
7.30268e-07
5.42532e-08
7.37923e-07
6.82803e-07
7.12706e-07
7.11761e-07
5.28841e-08
6.78821e-07
6.8939e-07
7.31309e-07
5.14958e-08
6.55332e-07
5.21509e-06
5.19876e-06
7.73099e-08
6.64864e-07
5.17719e-06
6.58034e-07
5.21277e-06
6.53236e-07
6.55658e-07
5.27091e-06
6.46917e-07
7.24072e-07
6.53187e-07
6.89214e-07
6.79125e-07
6.39955e-07
9.60258e-08
6.3269e-07
7.35792e-07
7.12726e-07
6.4338e-07
6.39057e-07
6.58772e-07
6.49265e-07
6.48554e-07
6.30926e-07
6.88193e-07
7.02465e-07
6.38531e-07
5.14921e-08
6.69309e-07
6.48048e-07
6.71448e-07
5.14886e-08
5.42453e-08
6.7077e-07
6.57199e-07
6.59715e-07
5.42405e-08
5.42433e-08
6.70105e-07
6.7056e-07
5.42635e-08
6.59254e-07
5.14908e-08
6.79668e-07
6.474e-07
5.15058e-08
6.7061e-07
6.50108e-07
6.59357e-07
6.59889e-07
6.49418e-07
6.53691e-07
6.75356e-07
6.75308e-07
6.53717e-07
6.50244e-07
6.59951e-07
6.59957e-07
6.50296e-07
5.24042e-06
6.43644e-07
6.56692e-07
5.24034e-06
6.56657e-07
6.43794e-07
5.24067e-06
6.56651e-07
6.44082e-07
5.24149e-06
6.5665e-07
6.43889e-07
6.53754e-07
6.75415e-07
6.53763e-07
6.75423e-07
6.50364e-07
6.59975e-07
6.59959e-07
6.50394e-07
6.50352e-07
6.59974e-07
6.50344e-07
6.5995e-07
6.50462e-07
6.59957e-07
6.60027e-07
6.50388e-07
6.53811e-07
6.75733e-07
6.75516e-07
6.54003e-07
6.50428e-07
6.60166e-07
6.59991e-07
6.50612e-07
5.24851e-06
6.44067e-07
6.58995e-07
5.25569e-06
6.57241e-07
6.43727e-07
5.2448e-06
6.56834e-07
6.43637e-07
5.24265e-06
6.57342e-07
6.43769e-07
6.54467e-07
6.75658e-07
6.53934e-07
6.76276e-07
6.50954e-07
6.62205e-07
6.60483e-07
6.5276e-07
6.51059e-07
6.60098e-07
6.50545e-07
6.6058e-07
6.68934e-07
6.79141e-07
6.58229e-07
6.6527e-07
6.62477e-07
6.77345e-07
6.53011e-07
6.71486e-07
6.67468e-07
6.54704e-07
6.70851e-07
6.86142e-07
6.56285e-07
6.58163e-07
6.52742e-07
6.52177e-07
6.52575e-07
6.54562e-07
6.56459e-07
6.57364e-07
6.55909e-07
5.14893e-08
6.69746e-07
6.46792e-07
6.69045e-07
5.14901e-08
5.4241e-08
6.57566e-07
6.68816e-07
5.4242e-08
6.56725e-07
5.42409e-08
6.56582e-07
6.6894e-07
6.56946e-07
5.42403e-08
5.14892e-08
6.68982e-07
6.46939e-07
6.69284e-07
5.14887e-08
5.1489e-08
6.68967e-07
6.46826e-07
6.69053e-07
5.1489e-08
5.42406e-08
6.68711e-07
6.56511e-07
6.56623e-07
5.42405e-08
5.42406e-08
6.56722e-07
6.68659e-07
5.42406e-08
6.56532e-07
5.1489e-08
6.69126e-07
6.46771e-07
5.14895e-08
6.68972e-07
6.55862e-07
6.57199e-07
6.57314e-07
6.5577e-07
6.52071e-07
6.5228e-07
6.55805e-07
6.57524e-07
6.57216e-07
6.56009e-07
6.52128e-07
6.52034e-07
6.55766e-07
6.5726e-07
6.55804e-07
6.57197e-07
6.52052e-07
6.71185e-07
6.71186e-07
6.52033e-07
6.52032e-07
6.7119e-07
6.52071e-07
6.71169e-07
6.55787e-07
6.57193e-07
6.57224e-07
6.55762e-07
5.1489e-08
6.69024e-07
6.46796e-07
6.68974e-07
5.14891e-08
5.42405e-08
6.56576e-07
6.68627e-07
5.42405e-08
6.5651e-07
5.42401e-08
6.56512e-07
6.68653e-07
6.5655e-07
5.42401e-08
5.14886e-08
6.68988e-07
6.46813e-07
6.69019e-07
5.14886e-08
6.56538e-07
5.42397e-08
6.69016e-07
5.14883e-08
6.55794e-07
6.57272e-07
6.57189e-07
6.55825e-07
6.52057e-07
6.71196e-07
6.71187e-07
6.52044e-07
6.55797e-07
6.5721e-07
6.57195e-07
6.55772e-07
6.5206e-07
6.71179e-07
6.71174e-07
6.52092e-07
6.57258e-07
6.55813e-07
6.7116e-07
6.52083e-07
8.56186e-08
6.54045e-07
6.6966e-07
6.33434e-07
7.69568e-08
9.77968e-08
9.78095e-08
9.78243e-08
9.78238e-08
9.78609e-08
9.79784e-08
5.17334e-06
5.20307e-06
5.32824e-06
5.26299e-06
5.28992e-06
5.20028e-06
5.24758e-06
7.21371e-08
8.35293e-08
8.36155e-08
7.20843e-08
9.77945e-08
9.79171e-08
7.20944e-08
8.35322e-08
8.35388e-08
7.20875e-08
7.20982e-08
8.35481e-08
8.35473e-08
7.20984e-08
9.78243e-08
9.78231e-08
7.20982e-08
8.35481e-08
8.3548e-08
7.20985e-08
7.21048e-08
8.35822e-08
8.35554e-08
7.21229e-08
9.7878e-08
9.78398e-08
7.21658e-08
8.35669e-08
8.36455e-08
7.21148e-08
8.18602e-08
9.6701e-08
8.18946e-08
9.67163e-08
8.18136e-08
9.67211e-08
9.67204e-08
8.18105e-08
9.78225e-08
9.7821e-08
8.18202e-08
9.67198e-08
8.1818e-08
9.6719e-08
8.1821e-08
9.67196e-08
9.6717e-08
8.18289e-08
9.78276e-08
9.78244e-08
8.2e-08
9.67406e-08
8.18834e-08
9.68141e-08
6.99169e-07
5.48379e-06
5.69936e-06
5.51445e-06
5.75212e-06
5.74727e-06
6.75491e-07
8.22382e-08
9.67097e-08
8.19623e-08
9.68382e-08
7.1069e-08
8.26892e-08
8.27993e-08
7.09957e-08
6.73049e-07
5.37522e-06
5.37741e-06
5.42138e-06
6.74508e-07
5.36627e-06
5.31611e-06
6.72913e-07
5.35371e-06
5.33454e-06
5.28114e-06
5.34569e-06
5.29343e-06
6.72624e-07
7.10088e-08
8.26849e-08
8.26895e-08
7.09979e-08
7.20985e-08
8.35466e-08
8.3546e-08
7.20983e-08
7.10143e-08
8.26897e-08
8.26901e-08
7.10151e-08
8.18169e-08
9.67198e-08
8.18192e-08
9.67188e-08
8.18086e-08
9.6721e-08
8.18097e-08
9.67197e-08
7.20973e-08
8.35477e-08
7.20982e-08
8.3547e-08
7.10155e-08
8.26878e-08
8.26872e-08
7.10161e-08
7.10146e-08
8.26896e-08
7.10153e-08
8.26883e-08
9.7824e-08
9.78238e-08
7.10161e-08
8.26877e-08
8.26878e-08
7.10161e-08
7.20985e-08
8.35504e-08
8.35477e-08
7.20999e-08
7.10172e-08
8.26888e-08
8.26868e-08
7.10185e-08
8.18524e-08
9.67555e-08
8.19082e-08
9.67276e-08
8.1834e-08
9.6717e-08
8.18241e-08
9.67202e-08
7.21015e-08
8.35478e-08
7.20985e-08
8.35527e-08
7.10232e-08
8.27113e-08
8.26919e-08
7.10369e-08
7.10201e-08
8.2686e-08
7.10171e-08
8.26896e-08
9.78252e-08
9.78309e-08
7.10704e-08
8.26981e-08
8.27479e-08
7.10276e-08
6.72516e-07
5.32031e-06
5.27072e-06
5.32541e-06
5.32668e-06
5.27214e-06
6.72489e-07
6.72522e-07
5.31886e-06
5.33072e-06
5.27675e-06
5.32746e-06
6.726e-07
5.27312e-06
6.7248e-07
5.27052e-06
5.31484e-06
5.32531e-06
6.72489e-07
5.32471e-06
5.26983e-06
6.7248e-07
5.31598e-06
5.32446e-06
5.26944e-06
5.32476e-06
5.26979e-06
6.72477e-07
6.72473e-07
5.31501e-06
5.26926e-06
5.32436e-06
5.32445e-06
5.26937e-06
6.72471e-07
6.72473e-07
5.31442e-06
5.32453e-06
5.26949e-06
5.32437e-06
6.72475e-07
5.26929e-06
5.26932e-06
5.32443e-06
6.72474e-07
1.04077e-07
1.01328e-07
9.78169e-08
9.78135e-08
9.78257e-08
9.78244e-08
9.89926e-08
9.79581e-08
6.31167e-07
6.52807e-07
6.73979e-08
6.17244e-07
6.49673e-07
6.12761e-07
6.32413e-07
7.23017e-08
8.55249e-08
8.38532e-08
7.29916e-08
7.1606e-08
7.13245e-08
7.1541e-08
7.14119e-08
7.17848e-08
7.15464e-08
7.22633e-08
7.16295e-08
9.94076e-08
9.8209e-08
7.15504e-08
7.13283e-08
7.15435e-08
7.13364e-08
7.20964e-08
8.35436e-08
8.35417e-08
7.20978e-08
7.15524e-08
7.13398e-08
7.13377e-08
7.1554e-08
7.20967e-08
8.35478e-08
8.35464e-08
7.20981e-08
7.15557e-08
7.13418e-08
7.15558e-08
7.13416e-08
7.15541e-08
7.13417e-08
7.15557e-08
7.134e-08
9.78242e-08
9.7823e-08
7.15555e-08
7.13418e-08
7.15559e-08
7.13416e-08
7.20982e-08
8.35487e-08
8.35476e-08
7.2099e-08
7.15555e-08
7.13422e-08
7.13416e-08
7.15566e-08
7.21099e-08
8.35517e-08
8.35637e-08
7.2102e-08
7.15629e-08
7.13627e-08
7.158e-08
7.13477e-08
7.15672e-08
7.1345e-08
7.15598e-08
7.13517e-08
9.7831e-08
9.78488e-08
7.16208e-08
7.13547e-08
7.15718e-08
7.13941e-08
7.21526e-08
8.4374e-08
8.36164e-08
7.25689e-08
7.16077e-08
7.17552e-08
7.13846e-08
7.19934e-08
6.64756e-08
6.70322e-07
8.61115e-08
7.4677e-08
8.77315e-08
7.544e-07
1.43362e-08
6.65466e-07
9.61307e-08
4.13448e-08
4.28227e-08
7.88173e-08
9.16259e-08
7.45647e-08
7.47919e-08
7.7117e-08
7.46893e-08
8.18403e-08
9.67197e-08
8.18305e-08
9.67152e-08
8.18167e-08
9.67189e-08
8.18227e-08
9.67207e-08
9.78198e-08
9.78211e-08
8.18192e-08
9.67188e-08
8.18222e-08
9.67192e-08
8.1825e-08
9.67169e-08
8.18194e-08
9.67185e-08
9.78236e-08
9.78263e-08
8.19628e-08
9.7271e-08
8.245e-08
9.67886e-08
9.75862e-08
8.26443e-08
9.97831e-08
7.4546e-08
7.4541e-08
7.45406e-08
7.45433e-08
7.45415e-08
7.45421e-08
7.45399e-08
6.59546e-07
6.4442e-07
2.68182e-08
6.22524e-07
6.16466e-07
6.35336e-07
6.69974e-07
8.49163e-08
7.7646e-07
1.82568e-08
8.676e-08
1.05799e-07
5.53321e-08
7.04778e-08
8.78857e-08
2.99164e-08
9.45886e-08
7.42592e-07
2.01476e-08
8.4927e-08
8.20763e-08
9.15722e-08
7.88151e-08
9.19957e-08
8.22149e-08
7.98204e-08
6.89897e-07
5.43203e-08
6.69706e-07
8.35344e-08
7.7938e-08
7.45644e-08
7.47915e-08
7.74439e-08
7.77592e-08
7.71187e-08
7.46895e-08
8.09887e-08
8.00158e-08
5.43092e-08
6.5861e-07
6.62201e-07
7.94023e-08
1.01003e-07
7.32812e-07
5.15536e-08
7.15985e-07
1.04279e-07
8.45853e-08
7.11621e-08
8.4375e-08
7.12866e-08
1.01231e-07
5.15429e-08
7.08056e-07
7.10538e-07
1.00887e-07
8.43999e-08
7.14325e-08
8.67182e-08
7.11239e-08
6.38912e-07
7.07525e-07
3.25471e-08
8.69139e-08
6.2889e-07
4.065e-08
7.10798e-07
6.47372e-07
6.34808e-07
6.54246e-07
8.89673e-08
6.42123e-07
4.324e-08
6.96724e-07
8.26935e-08
9.83337e-08
8.34315e-08
9.71678e-08
9.46214e-08
8.47089e-08
7.65134e-08
8.12052e-08
8.60758e-08
8.33501e-08
6.92798e-08
6.41064e-08
6.73796e-08
7.09088e-08
7.12264e-08
7.1318e-08
7.08229e-08
7.12755e-08
8.43616e-08
8.30746e-08
7.13625e-08
7.11259e-08
7.13754e-08
7.15431e-08
7.10255e-08
8.02836e-08
6.48619e-08
6.35172e-08
6.36104e-08
1.00908e-07
7.05527e-07
5.149e-08
7.05371e-07
1.00935e-07
8.44132e-08
7.11902e-08
8.44011e-08
7.11979e-08
1.00925e-07
5.1491e-08
7.05238e-07
7.05313e-07
1.00909e-07
8.44004e-08
7.12248e-08
8.44161e-08
7.11912e-08
7.92878e-08
6.54579e-07
5.42422e-08
7.93304e-08
6.54356e-07
7.73772e-08
7.45411e-08
7.45506e-08
7.73578e-08
7.7363e-08
7.45583e-08
7.73978e-08
7.45433e-08
7.93041e-08
5.42432e-08
6.54142e-07
6.5425e-07
7.92803e-08
7.93864e-08
5.4251e-08
6.54805e-07
6.5528e-07
7.92994e-08
7.73922e-08
7.46222e-08
7.75529e-08
7.45513e-08
7.93279e-08
5.42466e-08
6.57007e-07
7.95276e-08
6.55851e-07
7.74423e-08
7.45465e-08
7.73715e-08
7.45771e-08
1.00961e-07
5.14968e-08
7.05655e-07
7.05985e-07
1.00904e-07
8.43886e-08
7.12309e-08
8.447e-08
7.12026e-08
1.00899e-07
5.14925e-08
7.071e-07
1.01019e-07
7.06318e-07
8.44338e-08
7.11994e-08
8.43951e-08
7.12189e-08
9.62654e-08
7.45405e-08
7.45501e-08
7.45579e-08
7.45428e-08
7.46224e-08
7.45511e-08
7.45461e-08
7.45769e-08
7.08343e-08
7.12303e-08
7.12389e-08
7.08254e-08
7.10098e-08
8.26899e-08
8.26896e-08
7.10129e-08
7.08352e-08
7.12428e-08
7.12403e-08
7.08376e-08
7.20978e-08
8.3545e-08
7.20988e-08
8.35454e-08
7.15552e-08
7.13414e-08
7.13412e-08
7.15551e-08
7.15544e-08
7.13409e-08
7.15551e-08
7.13403e-08
7.10141e-08
8.26899e-08
8.269e-08
7.10133e-08
7.08381e-08
7.12449e-08
7.12445e-08
7.08387e-08
7.08379e-08
7.12439e-08
7.08378e-08
7.12435e-08
8.18178e-08
9.67199e-08
8.18139e-08
9.67188e-08
8.18081e-08
9.67201e-08
8.1812e-08
9.67194e-08
7.20974e-08
8.35478e-08
7.20982e-08
8.35466e-08
7.15543e-08
7.13414e-08
7.15551e-08
7.13407e-08
7.15544e-08
7.13416e-08
7.15557e-08
7.13408e-08
7.08384e-08
7.12458e-08
7.12455e-08
7.08389e-08
7.10145e-08
8.26876e-08
8.26862e-08
7.10156e-08
7.08375e-08
7.12454e-08
7.12439e-08
7.08386e-08
7.08379e-08
7.1245e-08
7.08387e-08
7.12443e-08
7.10145e-08
8.26876e-08
8.26871e-08
7.10156e-08
7.08379e-08
7.12454e-08
7.12443e-08
7.08387e-08
9.78242e-08
9.78228e-08
7.08387e-08
7.12458e-08
7.12455e-08
7.08389e-08
7.10161e-08
8.26884e-08
8.26874e-08
7.10173e-08
7.08387e-08
7.12462e-08
7.12456e-08
7.08398e-08
7.20988e-08
8.35478e-08
7.20982e-08
8.35491e-08
7.15563e-08
7.13434e-08
7.13417e-08
7.15576e-08
7.15567e-08
7.13423e-08
7.15559e-08
7.13425e-08
7.10175e-08
8.26873e-08
8.26883e-08
7.10166e-08
7.08395e-08
7.12476e-08
7.12458e-08
7.08408e-08
7.08397e-08
7.12462e-08
7.0839e-08
7.12465e-08
8.18676e-08
9.67199e-08
8.18341e-08
9.67353e-08
8.18274e-08
9.67248e-08
8.1843e-08
9.67181e-08
7.21002e-08
8.35555e-08
7.21031e-08
8.35493e-08
7.15591e-08
7.13419e-08
7.15562e-08
7.13449e-08
7.15579e-08
7.13462e-08
7.15609e-08
7.13434e-08
7.08448e-08
7.12665e-08
7.12517e-08
7.08579e-08
7.1027e-08
8.26893e-08
8.26987e-08
7.10205e-08
7.08485e-08
7.1249e-08
7.12557e-08
7.08425e-08
7.08423e-08
7.12461e-08
7.08395e-08
7.12489e-08
7.10189e-08
8.26922e-08
8.26879e-08
7.10218e-08
7.08411e-08
7.12503e-08
7.12475e-08
7.08437e-08
9.7837e-08
9.78273e-08
7.08891e-08
7.12584e-08
7.12987e-08
7.08493e-08
7.10589e-08
8.30918e-08
8.27218e-08
7.16286e-08
7.08777e-08
7.17111e-08
7.12891e-08
7.14584e-08
8.50177e-08
7.29194e-08
7.20742e-08
7.22984e-08
8.33691e-08
7.219e-08
7.20915e-08
7.20319e-08
1.00916e-07
7.05137e-07
5.14894e-08
7.05162e-07
1.0091e-07
8.44028e-08
7.11957e-08
8.44103e-08
7.11921e-08
1.0091e-07
5.14894e-08
7.05218e-07
1.0092e-07
7.05173e-07
8.44081e-08
7.11918e-08
8.44035e-08
7.11959e-08
7.92841e-08
5.42412e-08
6.53979e-07
6.5401e-07
7.92754e-08
7.73553e-08
7.45466e-08
7.45416e-08
7.73666e-08
7.73613e-08
7.45412e-08
7.45439e-08
7.73533e-08
7.92776e-08
5.42412e-08
6.54098e-07
7.92917e-08
6.54036e-07
7.92747e-08
6.53968e-07
5.42407e-08
6.53945e-07
7.92804e-08
7.73565e-08
7.45402e-08
7.45421e-08
7.73526e-08
7.73528e-08
7.45427e-08
7.45405e-08
7.73586e-08
7.9278e-08
5.42408e-08
6.53928e-07
6.53938e-07
7.92742e-08
1.00911e-07
7.05137e-07
5.14891e-08
7.05122e-07
1.00915e-07
8.44058e-08
7.11919e-08
8.44038e-08
7.11944e-08
1.00914e-07
5.14891e-08
7.0511e-07
7.05119e-07
1.00911e-07
8.44039e-08
7.11939e-08
8.44064e-08
7.1192e-08
1.00909e-07
7.051e-07
5.14882e-08
7.05095e-07
1.00913e-07
8.43987e-08
7.12102e-08
8.43986e-08
7.12233e-08
1.0091e-07
5.1489e-08
7.05093e-07
7.05095e-07
1.00909e-07
8.43996e-08
7.11927e-08
8.44045e-08
7.12035e-08
7.92726e-08
6.53907e-07
5.42397e-08
7.92748e-08
6.53898e-07
7.73536e-08
7.454e-08
7.45405e-08
7.73518e-08
7.73518e-08
7.45407e-08
7.73534e-08
7.45396e-08
7.92743e-08
5.42405e-08
6.53897e-07
6.53898e-07
7.9272e-08
7.92755e-08
5.42398e-08
6.53905e-07
6.53911e-07
7.92726e-08
7.73529e-08
7.45415e-08
7.73551e-08
7.45404e-08
7.92729e-08
5.42406e-08
6.53925e-07
7.92758e-08
6.53913e-07
7.73536e-08
7.45403e-08
7.73521e-08
7.45403e-08
1.00912e-07
5.14882e-08
7.05104e-07
7.05101e-07
1.00912e-07
8.44041e-08
7.11929e-08
8.44053e-08
7.11924e-08
1.00912e-07
5.1489e-08
7.05113e-07
1.00913e-07
7.05106e-07
8.44042e-08
7.11921e-08
8.44047e-08
7.11928e-08
1.00911e-07
7.05096e-07
5.1489e-08
7.05096e-07
1.0091e-07
8.44033e-08
7.12177e-08
8.43994e-08
7.11954e-08
1.00911e-07
5.1489e-08
7.05096e-07
1.0091e-07
7.05094e-07
8.44033e-08
7.12149e-08
8.44001e-08
7.11954e-08
7.92729e-08
5.42405e-08
6.53893e-07
6.53892e-07
7.92716e-08
7.73523e-08
7.45405e-08
7.45403e-08
7.7353e-08
7.73523e-08
7.45399e-08
7.45403e-08
7.73516e-08
7.9273e-08
5.42405e-08
6.53898e-07
7.92737e-08
6.53892e-07
7.92721e-08
6.53896e-07
5.42405e-08
6.53892e-07
7.92735e-08
7.73525e-08
7.45394e-08
7.45402e-08
7.73521e-08
7.73521e-08
7.45399e-08
7.45402e-08
7.73525e-08
7.9273e-08
5.42405e-08
6.53895e-07
6.53892e-07
7.92722e-08
1.00911e-07
7.05094e-07
5.1489e-08
7.05098e-07
1.0091e-07
8.44001e-08
7.11945e-08
8.44031e-08
7.12189e-08
1.0091e-07
5.1489e-08
7.05097e-07
7.05098e-07
1.00911e-07
8.44014e-08
7.12018e-08
8.44015e-08
7.1205e-08
7.73521e-08
7.45394e-08
7.73521e-08
7.45402e-08
7.92722e-08
5.42405e-08
6.53897e-07
7.92731e-08
6.53893e-07
8.4401e-08
7.1193e-08
8.44031e-08
7.12152e-08
1.00911e-07
5.1489e-08
7.05101e-07
1.00911e-07
7.05099e-07
5.29612e-06
5.30143e-06
5.28442e-06
5.2963e-06
5.30167e-06
5.30357e-06
5.27866e-06
5.27967e-06
5.24933e-06
5.27381e-06
5.29696e-06
5.29717e-06
5.27961e-06
5.24915e-06
5.32189e-06
5.26359e-06
5.29028e-06
5.3099e-06
5.31535e-06
5.30439e-06
5.27553e-06
4.24734e-05
4.2567e-05
4.24754e-05
4.26125e-05
4.26502e-05
4.25206e-05
4.23896e-05
4.34574e-05
4.26593e-05
4.27856e-05
4.28098e-05
4.29819e-05
4.28667e-05
4.29171e-05
5.28051e-06
5.27518e-06
5.24984e-06
5.29744e-06
5.29813e-06
5.27991e-06
5.25095e-06
4.25042e-05
4.2575e-05
4.26929e-05
4.25932e-05
4.25939e-05
4.25338e-05
4.26104e-05
4.24946e-05
4.28434e-05
4.27628e-05
4.27673e-05
4.26179e-05
4.2709e-05
4.2661e-05
4.24743e-05
4.25028e-05
4.25701e-05
4.25596e-05
4.25115e-05
4.24688e-05
4.25716e-05
4.2457e-05
4.26665e-05
4.27134e-05
4.25974e-05
4.26693e-05
4.24524e-05
4.2611e-05
5.28727e-06
5.27826e-06
5.25701e-06
5.30624e-06
5.30155e-06
5.29371e-06
5.25333e-06
4.25151e-05
4.25067e-05
4.2566e-05
4.25787e-05
4.24812e-05
4.25253e-05
4.25882e-05
4.25151e-05
4.2689e-05
4.26081e-05
4.27612e-05
4.24701e-05
4.2743e-05
4.26402e-05
4.2582e-05
4.26129e-05
4.25946e-05
4.25693e-05
4.25633e-05
4.26674e-05
4.26076e-05
4.26053e-05
4.29966e-05
4.28042e-05
4.26686e-05
4.28492e-05
4.27694e-05
4.26691e-05
5.26873e-06
5.33551e-06
5.29875e-06
5.3275e-06
5.31057e-06
5.33423e-06
5.26225e-06
5.2572e-06
5.29782e-06
5.32461e-06
5.31707e-06
5.29258e-06
5.32236e-06
5.25943e-06
5.25479e-06
5.31478e-06
5.28963e-06
5.31987e-06
5.29035e-06
5.31997e-06
5.25463e-06
5.25477e-06
5.29001e-06
5.31986e-06
5.31408e-06
5.28985e-06
5.31987e-06
5.2547e-06
5.61159e-06
5.47209e-06
5.6092e-06
5.55013e-06
5.66631e-06
5.54099e-06
5.51809e-06
6.41482e-07
6.62735e-07
6.54722e-07
6.74508e-07
6.60213e-07
6.47843e-07
6.69162e-07
5.60293e-06
5.24955e-06
5.35083e-06
5.41809e-06
5.38007e-06
5.4628e-06
5.47311e-06
5.53001e-06
5.39445e-06
5.25605e-06
5.34849e-06
5.34856e-06
5.35202e-06
5.44412e-06
5.61339e-06
5.51807e-06
5.59827e-06
5.46625e-06
5.69212e-06
5.51867e-06
5.56674e-06
4.244e-05
4.25166e-05
4.24473e-05
4.24718e-05
4.25173e-05
4.25176e-05
4.25031e-05
4.25101e-05
4.25179e-05
4.25237e-05
4.25343e-05
4.25245e-05
4.25383e-05
4.25224e-05
5.27142e-06
5.28118e-06
5.2945e-06
5.2737e-06
5.27356e-06
5.2703e-06
5.29663e-06
5.28987e-06
5.28259e-06
5.30103e-06
5.25903e-06
5.3031e-06
5.28555e-06
5.26607e-06
5.27206e-06
5.2803e-06
5.27011e-06
5.29913e-06
5.2735e-06
5.27215e-06
5.29505e-06
4.24799e-05
4.25157e-05
4.25222e-05
4.25429e-05
4.25233e-05
4.25396e-05
4.25245e-05
4.24896e-05
4.25681e-05
4.25397e-05
4.25485e-05
4.25323e-05
4.25528e-05
4.25286e-05
5.27079e-06
5.28079e-06
5.29856e-06
5.27814e-06
5.27618e-06
5.27252e-06
5.29529e-06
5.27985e-06
5.27377e-06
5.29798e-06
5.24941e-06
5.2968e-06
5.28059e-06
5.24913e-06
5.27011e-06
5.28078e-06
5.27458e-06
5.2941e-06
5.26951e-06
5.27533e-06
5.29544e-06
4.25841e-05
4.25236e-05
4.25434e-05
5.3488e-06
5.33837e-06
5.33792e-06
5.3379e-06
5.31845e-06
5.38385e-06
5.34483e-06
4.27492e-05
4.25904e-05
4.26252e-05
4.26516e-05
4.25491e-05
4.2621e-05
4.27022e-05
4.26002e-05
4.25201e-05
4.25285e-05
4.2602e-05
4.26623e-05
4.2676e-05
4.25921e-05
4.252e-05
4.25933e-05
4.25291e-05
4.2594e-05
4.26571e-05
4.25896e-05
4.26591e-05
5.2018e-06
5.19347e-06
5.2736e-06
5.26013e-06
5.1795e-06
5.266e-06
5.20449e-06
5.23508e-06
5.29819e-06
5.25459e-06
5.28552e-06
5.20226e-06
5.27467e-06
5.27916e-06
6.65074e-07
6.73604e-07
6.92657e-07
6.86337e-07
6.91704e-07
6.86415e-07
6.59155e-07
6.74511e-07
6.65938e-07
6.58806e-07
6.39064e-07
6.74705e-07
6.72456e-07
6.40407e-07
5.3916e-06
5.43666e-06
5.39173e-06
5.5793e-06
5.50896e-06
5.3982e-06
5.3699e-06
5.29979e-06
5.37934e-06
5.28195e-06
5.30339e-06
5.34468e-06
5.25111e-06
5.34248e-06
5.27617e-06
5.32548e-06
5.26613e-06
5.29839e-06
5.27278e-06
5.27277e-06
5.31904e-06
5.39482e-06
5.5326e-06
5.40266e-06
5.61265e-06
5.68389e-06
5.38719e-06
5.42797e-06
5.28763e-06
5.35905e-06
5.40398e-06
5.31619e-06
5.37302e-06
5.3641e-06
5.27221e-06
5.44253e-06
5.54495e-06
5.86206e-06
5.49787e-06
5.77098e-06
5.46593e-06
5.49451e-06
5.2336e-06
5.3256e-06
5.25083e-06
5.29056e-06
5.25825e-06
5.33709e-06
5.21719e-06
6.70491e-07
6.37755e-07
6.60577e-07
6.4748e-07
6.61171e-07
6.70377e-07
6.37856e-07
6.52335e-07
6.80198e-07
6.69812e-07
6.6173e-07
6.62419e-07
6.80369e-07
6.52139e-07
6.54705e-07
6.70854e-07
6.84071e-07
6.72934e-07
6.65882e-07
6.56605e-07
6.82398e-07
6.71182e-07
6.66121e-07
6.3892e-07
6.48261e-07
6.62404e-07
6.71969e-07
6.38339e-07
5.22859e-06
5.27513e-06
5.27436e-06
5.26405e-06
5.26331e-06
5.22938e-06
5.2768e-06
5.27903e-06
5.36384e-06
5.3065e-06
5.33117e-06
5.36686e-06
5.27596e-06
5.2977e-06
5.22594e-06
5.27403e-06
5.25687e-06
5.28317e-06
5.26081e-06
5.22213e-06
5.27538e-06
5.28149e-06
5.29636e-06
5.37016e-06
5.33307e-06
5.36939e-06
5.2822e-06
5.29906e-06
5.26938e-06
5.29512e-06
5.27866e-06
5.27393e-06
5.26987e-06
5.27389e-06
5.29404e-06
5.28149e-06
5.27612e-06
5.30034e-06
5.25519e-06
5.29877e-06
5.28313e-06
5.25275e-06
5.2693e-06
5.27891e-06
5.27427e-06
5.29422e-06
5.26933e-06
5.27403e-06
5.29421e-06
5.23023e-06
5.27539e-06
5.27263e-06
5.26462e-06
5.23005e-06
5.26472e-06
5.2746e-06
5.28337e-06
5.37197e-06
5.33193e-06
5.29726e-06
5.29694e-06
5.37156e-06
5.28373e-06
5.28304e-06
5.29745e-06
5.37094e-06
5.33127e-06
5.28288e-06
5.29645e-06
5.37117e-06
5.23053e-06
5.27293e-06
5.26526e-06
5.27545e-06
5.26497e-06
5.27507e-06
5.23086e-06
5.23311e-06
5.2748e-06
5.28183e-06
5.26938e-06
5.26732e-06
5.23528e-06
5.27754e-06
5.28506e-06
5.37245e-06
5.2974e-06
5.3348e-06
5.37345e-06
5.28416e-06
5.29927e-06
5.23213e-06
5.27473e-06
5.26562e-06
5.27558e-06
5.26641e-06
5.23127e-06
5.27743e-06
5.28613e-06
5.30408e-06
5.37711e-06
5.33509e-06
5.3746e-06
5.28846e-06
5.29947e-06
5.27914e-06
5.29926e-06
5.29378e-06
5.28064e-06
5.27464e-06
5.2859e-06
5.30594e-06
5.28386e-06
5.27647e-06
5.29795e-06
5.25e-06
5.30049e-06
5.2816e-06
5.25127e-06
5.28571e-06
5.29916e-06
5.30988e-06
5.32389e-06
5.29815e-06
5.29391e-06
5.31039e-06
5.24444e-06
5.28322e-06
5.28935e-06
5.2721e-06
5.2382e-06
5.27785e-06
5.29329e-06
5.30932e-06
5.4246e-06
5.36263e-06
5.35513e-06
5.32565e-06
5.39993e-06
5.3311e-06
5.29843e-06
5.30576e-06
5.38056e-06
5.35309e-06
5.29164e-06
5.31672e-06
5.38788e-06
5.25436e-06
5.29696e-06
5.30609e-06
5.32837e-06
5.28706e-06
5.30128e-06
5.2744e-06
5.39824e-06
5.46817e-06
5.36715e-06
5.41706e-06
5.53774e-06
5.36587e-06
5.33658e-06
5.36787e-06
5.36277e-06
5.3404e-06
5.34383e-06
5.41381e-06
5.30844e-06
5.34449e-06
5.2789e-06
5.34537e-06
5.35057e-06
5.36961e-06
5.31901e-06
5.30012e-06
5.34527e-06
5.28814e-06
5.29833e-06
5.32e-06
5.29946e-06
5.30901e-06
5.30593e-06
5.28191e-06
5.29759e-06
5.33481e-06
5.3399e-06
5.32526e-06
5.31523e-06
5.31629e-06
5.31563e-06
6.70327e-07
6.37773e-07
6.60849e-07
6.46845e-07
6.60494e-07
6.70391e-07
6.37717e-07
6.51971e-07
6.80154e-07
6.61925e-07
6.68934e-07
6.61481e-07
6.80054e-07
6.52084e-07
6.51818e-07
6.61236e-07
6.68824e-07
6.79893e-07
6.61364e-07
6.79919e-07
6.51788e-07
6.70289e-07
6.60403e-07
6.46886e-07
6.37677e-07
6.60512e-07
6.70273e-07
6.37693e-07
6.70234e-07
6.37727e-07
6.6039e-07
6.46839e-07
6.60426e-07
6.70232e-07
6.37733e-07
6.51744e-07
6.79847e-07
6.68674e-07
6.61178e-07
6.61211e-07
6.79854e-07
6.51737e-07
6.51768e-07
6.61316e-07
6.79897e-07
6.6867e-07
6.61206e-07
6.51791e-07
6.79875e-07
6.70269e-07
6.60476e-07
6.37683e-07
6.46782e-07
6.60406e-07
6.70282e-07
6.37673e-07
5.27692e-06
5.29779e-06
5.29673e-06
5.30397e-06
5.29279e-06
5.29437e-06
5.27914e-06
5.25635e-06
5.31759e-06
5.29046e-06
5.32054e-06
5.29312e-06
5.3215e-06
5.25541e-06
5.27611e-06
5.2926e-06
5.30501e-06
5.29083e-06
5.29345e-06
5.29359e-06
5.27515e-06
5.25479e-06
5.31417e-06
5.29111e-06
5.32025e-06
5.28975e-06
5.25514e-06
5.31992e-06
5.27447e-06
5.28997e-06
5.30231e-06
5.29176e-06
5.29075e-06
5.29191e-06
5.27431e-06
5.27449e-06
5.29236e-06
5.29155e-06
5.3015e-06
5.29013e-06
5.27487e-06
5.29191e-06
6.70259e-07
6.37715e-07
6.60423e-07
6.46798e-07
6.60404e-07
6.70248e-07
6.37693e-07
6.51731e-07
6.79849e-07
6.61208e-07
6.68621e-07
6.6116e-07
6.79842e-07
6.51738e-07
6.51727e-07
6.61166e-07
6.6863e-07