/*--------------------------------*- C++ -*----------------------------------*\
| =========                 |                                                 |
| \\      /  F ield         | OpenFOAM: The Open Source CFD Toolbox           |
|  \\    /   O peration     | Version:  2012                                  |
|   \\  /    A nd           | Website:  www.openfoam.com                      |
|    \\/     M anipulation  |                                                 |
\*---------------------------------------------------------------------------*/
FoamFile
{
    version     2.0;
    format      ascii;
    class       volVectorField;
    location    "0.107/solid";
    object      D_0;
}
// * * * * * * * * * * * * * * * * * * * * * * * * * * * * * * * * * * * * * //

dimensions      [0 1 0 0 0 0 0];


internalField   nonuniform List<vector> 
3124
(
(3.08643e-11 5.47656e-11 3.75331e-11)
(-2.75949e-12 -4.12618e-14 -2.24612e-12)
(2.87621e-10 -5.40599e-11 -5.33021e-12)
(2.82192e-12 -3.83232e-12 2.0385e-11)
(8.29449e-12 -1.92294e-13 1.25771e-11)
(8.09732e-12 -3.46498e-14 1.23236e-11)
(2.18509e-12 -7.3992e-13 -3.93322e-12)
(2.22557e-12 3.79355e-11 4.90084e-11)
(1.69083e-10 2.26032e-10 3.63455e-11)
(1.68407e-10 -1.71229e-11 1.77423e-11)
(1.22276e-12 -3.60162e-12 2.19573e-11)
(3.04929e-10 1.20266e-11 1.95206e-11)
(8.87207e-12 2.03564e-11 4.85081e-11)
(-7.0573e-12 -3.5341e-12 4.97952e-11)
(1.79824e-10 9.99593e-12 3.01285e-11)
(1.69498e-10 2.35111e-10 1.81541e-11)
(-1.43839e-12 -5.98985e-12 4.48513e-11)
(5.56763e-12 -3.81154e-13 3.16355e-11)
(8.11536e-12 -1.32358e-13 1.23447e-11)
(8.26614e-12 -7.15897e-14 1.25607e-11)
(5.33499e-12 -1.89683e-13 3.11757e-11)
(5.53793e-12 -2.76571e-13 3.15993e-11)
(5.33626e-12 -1.76808e-13 3.1072e-11)
(-3.56889e-13 1.48357e-11 5.68459e-12)
(3.20122e-11 6.27731e-11 3.99676e-11)
(-8.27381e-11 1.57074e-10 2.58182e-11)
(9.61982e-11 3.48967e-10 6.8609e-11)
(5.26346e-11 3.29798e-11 2.40038e-11)
(8.6105e-11 1.45648e-10 8.92717e-11)
(1.31006e-10 6.10708e-10 1.94572e-10)
(3.34039e-11 2.42781e-11 1.90673e-11)
(1.59154e-10 9.05011e-11 5.25935e-11)
(-1.20185e-12 -5.52944e-13 5.73111e-11)
(6.85612e-12 9.36298e-12 5.65088e-11)
(2.66211e-10 4.28518e-10 1.51992e-11)
(2.68569e-10 9.81311e-10 1.65598e-12)
(-1.34412e-12 -3.46296e-12 5.45693e-11)
(1.90808e-12 -3.01147e-12 4.62908e-11)
(-1.93402e-12 -3.59943e-13 3.90415e-11)
(-1.71549e-12 -5.33918e-13 3.97502e-11)
(-1.96652e-12 -2.77704e-13 3.88774e-11)
(-1.99316e-12 -7.952e-14 3.86238e-11)
(-5.65246e-12 7.78303e-12 3.3198e-12)
(3.19561e-12 -2.32089e-11 -1.55177e-13)
(-8.36848e-11 6.67288e-11 6.98843e-12)
(-1.09571e-11 5.99712e-11 3.05663e-12)
(-2.08464e-10 3.16201e-10 3.75578e-11)
(3.04096e-11 -4.83982e-11 -2.42461e-12)
(1.07448e-09 -2.53927e-10 6.2086e-10)
(-1.59473e-10 8.07515e-11 -3.49226e-12)
(7.85925e-12 -1.13496e-12 1.32741e-11)
(7.96211e-12 -7.40132e-13 1.3059e-11)
(8.21607e-12 -1.11797e-13 1.21681e-11)
(8.24468e-12 -1.36207e-14 1.21487e-11)
(1.61384e-11 5.23752e-12 6.17877e-12)
(1.1155e-11 -1.49694e-11 -1.09963e-12)
(2.96886e-11 1.15992e-11 9.99891e-12)
(1.21315e-10 2.73565e-11 2.35729e-11)
(2.38009e-11 1.00221e-11 4.23742e-11)
(6.0894e-11 8.66618e-10 8.99239e-12)
(1.93503e-11 2.81911e-11 2.30138e-11)
(1.0013e-10 3.91131e-10 6.57869e-11)
(1.45496e-10 2.00185e-10 6.93691e-11)
(2.36648e-10 9.37919e-10 3.77046e-11)
(2.70384e-10 1.40762e-10 3.41518e-11)
(1.77984e-10 7.94221e-10 1.08689e-10)
(2.06977e-10 4.59742e-10 4.09092e-11)
(2.26805e-10 1.28749e-10 3.78683e-11)
(2.0715e-10 1.20003e-09 2.0185e-11)
(1.4392e-10 9.99868e-10 7.43464e-11)
(3.14574e-11 -2.85229e-11 1.59188e-12)
(3.69325e-11 7.78543e-12 3.60962e-11)
(2.24947e-11 1.55811e-11 1.68875e-11)
(1.86112e-10 3.63633e-11 2.12504e-11)
(1.42464e-10 2.95441e-11 2.14671e-11)
(-5.16478e-12 1.67296e-11 2.71604e-11)
(1.4268e-09 -2.18912e-10 7.38674e-10)
(1.39303e-11 1.81209e-11 3.31561e-11)
(2.27819e-11 1.14521e-11 4.23898e-11)
(1.57462e-11 1.5305e-11 5.15834e-11)
(-3.00881e-12 -4.15011e-13 6.20069e-11)
(-3.56373e-12 1.09077e-11 5.59793e-11)
(8.46078e-12 1.49847e-11 5.93884e-11)
(3.63171e-11 1.03842e-11 3.91753e-11)
(4.27793e-11 4.91683e-11 4.32957e-11)
(2.27384e-11 2.21479e-11 5.11246e-11)
(2.5291e-10 4.39824e-10 1.89914e-11)
(1.73756e-10 2.37684e-10 5.69225e-12)
(2.42851e-10 9.41315e-10 2.66055e-11)
(2.66022e-10 1.53916e-10 1.97701e-11)
(1.90806e-10 4.81812e-10 3.80642e-11)
(2.63987e-10 9.72294e-10 9.68041e-12)
(2.73706e-10 1.51637e-10 5.04904e-12)
(1.87602e-10 4.16993e-11 8.06655e-14)
(2.5002e-10 1.27234e-09 3.86103e-12)
(2.19309e-10 1.1987e-09 1.6979e-11)
(2.46119e-10 1.25543e-09 1.06679e-11)
(1.8328e-10 4.14856e-11 1.63484e-11)
(1.86453e-10 4.27005e-11 1.59912e-12)
(-2.96567e-12 -4.15218e-12 5.93507e-11)
(4.46428e-12 -2.41572e-12 3.26941e-11)
(5.44366e-13 -3.25404e-12 4.73014e-11)
(-9.10313e-13 -1.2435e-12 4.15793e-11)
(9.73499e-13 -2.69119e-12 4.49035e-11)
(5.13064e-12 -1.28252e-12 3.20647e-11)
(-1.64596e-12 -1.06759e-12 4.46671e-11)
(9.5615e-14 -2.12455e-12 4.65555e-11)
(8.147e-12 -3.47669e-14 1.24842e-11)
(8.17497e-12 -1.29859e-13 1.25001e-11)
(-1.11325e-12 -9.37796e-13 4.11104e-11)
(-1.59753e-12 -6.15258e-13 4.00433e-11)
(-2.82575e-12 -3.33686e-13 4.27484e-11)
(5.37124e-12 -2.00798e-13 3.14459e-11)
(-2.60637e-12 -4.81648e-13 4.3342e-11)
(-1.91945e-12 -8.07805e-13 4.43255e-11)
(5.41099e-12 -2.03876e-13 3.15178e-11)
(-2.48152e-12 -5.29412e-13 4.35644e-11)
(-2.85231e-12 -2.89799e-13 4.25947e-11)
(5.46999e-12 -1.09554e-13 3.08272e-11)
(-2.85525e-12 -7.51879e-14 4.23506e-11)
(-1.98208e-12 4.69567e-15 3.86359e-11)
(5.55569e-12 -9.57348e-14 3.07721e-11)
(-2.83768e-12 -2.58741e-14 4.23626e-11)
(1.17672e-10 2.09819e-10 1.4067e-10)
(3.38877e-11 7.09689e-11 3.67215e-11)
(-6.62128e-13 -1.40867e-13 4.35593e-11)
(-2.11298e-13 1.43919e-12 4.38347e-11)
(-2.63048e-14 -1.94811e-12 4.20086e-11)
(7.98719e-13 -1.58931e-12 4.00299e-11)
(-1.94586e-12 -2.88648e-13 2.9406e-11)
(-1.91271e-12 -3.66222e-13 2.96131e-11)
(-1.96989e-12 -2.31995e-13 2.92522e-11)
(-1.99898e-12 -1.65572e-13 2.91369e-11)
(-3.19023e-11 8.25389e-12 4.9194e-12)
(-5.5638e-12 1.49717e-12 2.44626e-13)
(-5.81819e-12 -1.09705e-12 -2.64002e-12)
(-6.43195e-13 1.81279e-12 -1.16569e-11)
(-2.38573e-12 -8.36054e-12 -1.38721e-11)
(-1.195e-11 1.67469e-12 1.02681e-12)
(-5.70218e-12 2.18126e-12 5.61001e-13)
(5.86005e-10 -5.58292e-10 -7.33773e-11)
(7.23383e-10 -1.72295e-10 -6.03749e-12)
(1.90877e-10 -9.33942e-11 -5.27328e-12)
(4.8908e-10 -1.13019e-10 -5.21605e-11)
(3.48592e-10 -2.1997e-10 1.04892e-10)
(1.81752e-09 -4.5934e-10 1.12413e-11)
(2.76683e-10 -1.70002e-10 -4.70308e-11)
(-7.69739e-13 -2.82061e-13 1.92611e-12)
(6.93163e-12 -3.10172e-12 1.5827e-11)
(5.50903e-12 -2.77638e-13 1.04885e-12)
(8.33404e-12 -2.26794e-13 1.26745e-11)
(7.37936e-12 -2.56574e-14 6.46386e-13)
(7.57617e-12 -4.37171e-14 6.40854e-13)
(7.06746e-12 -1.10026e-14 6.12229e-13)
(8.15342e-12 -1.25899e-13 1.22737e-11)
(7.20505e-12 -8.67156e-15 5.79037e-13)
(8.43676e-12 -6.01121e-15 1.20833e-11)
(7.64969e-12 -4.54865e-15 5.1901e-13)
(6.91321e-11 1.14471e-12 -1.47351e-11)
(8.61343e-12 -6.53354e-14 -2.1629e-12)
(3.58264e-12 -2.17674e-12 -6.48848e-12)
(1.74791e-12 2.14859e-12 -1.49409e-11)
(5.84588e-12 -8.87309e-12 -2.83352e-11)
(1.62335e-11 -1.50092e-12 -4.46431e-12)
(1.39857e-11 3.439e-12 -1.64589e-11)
(6.77273e-11 1.27333e-10 2.15761e-10)
(3.86796e-12 2.4591e-11 5.25262e-11)
(-7.08462e-12 6.72361e-11 1.65997e-10)
(-6.54391e-12 3.70366e-11 5.30562e-11)
(1.45562e-10 -5.14523e-11 6.26428e-11)
(4.89367e-10 -8.54088e-11 1.73905e-10)
(1.19555e-10 -3.88379e-11 9.4124e-12)
(9.44732e-11 -7.65401e-13 2.75466e-11)
(2.81784e-10 -1.57426e-10 8.1444e-11)
(2.12848e-10 -1.66348e-11 1.58472e-10)
(7.69394e-11 -1.22832e-11 1.51423e-11)
(-3.99398e-12 -2.43123e-13 2.16214e-12)
(-8.63827e-12 -1.34338e-12 2.63855e-11)
(-2.11971e-11 -1.71486e-13 4.19819e-12)
(1.37239e-09 4.25025e-10 4.96339e-10)
(7.13218e-10 -5.92292e-11 1.95037e-10)
(5.31695e-10 6.53054e-12 1.78562e-13)
(2.72961e-10 7.14645e-11 4.21497e-11)
(1.84527e-09 -1.78223e-10 2.62959e-10)
(6.07411e-10 1.63906e-10 2.50814e-10)
(4.55547e-10 1.07447e-10 5.4556e-11)
(-6.1995e-12 -1.36672e-12 5.81503e-11)
(-1.34772e-11 1.0528e-12 5.32981e-11)
(-7.96743e-12 3.92923e-12 5.88917e-11)
(2.34068e-10 5.47968e-11 1.32761e-10)
(5.34844e-10 -3.522e-11 1.91035e-10)
(1.02282e-10 9.591e-12 3.66978e-11)
(1.57925e-10 4.28886e-11 3.80677e-11)
(2.23857e-10 2.39629e-12 1.79919e-10)
(4.71148e-10 1.1832e-10 2.15595e-10)
(9.36593e-11 2.23569e-11 3.75583e-11)
(-3.34369e-12 -5.26123e-12 5.51344e-11)
(1.97773e-12 -6.00829e-12 3.90513e-11)
(-9.49309e-13 -6.5212e-12 4.96519e-11)
(-1.47184e-12 -9.51364e-13 3.18142e-11)
(-1.45602e-12 -1.44463e-12 3.22783e-11)
(5.57496e-12 -5.36146e-13 3.1728e-11)
(5.02363e-13 -4.67152e-13 4.22476e-11)
(6.70507e-13 -6.26277e-13 4.22857e-11)
(7.07235e-12 -1.1421e-14 6.10596e-13)
(8.14469e-12 -3.95217e-14 1.2424e-11)
(7.15116e-12 -1.22473e-14 5.98284e-13)
(7.29637e-12 -2.17633e-14 6.57496e-13)
(8.25652e-12 -1.36819e-13 1.255e-11)
(7.30008e-12 -1.5319e-14 6.2508e-13)
(-1.50666e-12 -7.59504e-13 3.14909e-11)
(-1.57921e-12 -6.74551e-13 3.11437e-11)
(-1.02424e-13 -2.36239e-13 4.16936e-11)
(5.32838e-12 -1.91223e-13 3.12833e-11)
(-8.86117e-14 -2.59481e-13 4.18085e-11)
(3.61879e-13 -3.62204e-13 4.22451e-11)
(5.48463e-12 -2.30248e-13 3.15906e-11)
(2.4421e-13 -3.028e-13 4.22257e-11)
(-1.03203e-13 -2.31525e-13 4.15696e-11)
(5.34272e-12 -1.59726e-13 3.09894e-11)
(-9.44966e-14 -1.85637e-13 4.14545e-11)
(-1.97052e-12 8.99223e-14 2.9182e-11)
(5.7592e-12 -6.34073e-14 3.06844e-11)
(1.59235e-13 -7.46258e-15 4.13347e-11)
(5.33834e-11 1.38087e-10 4.91691e-11)
(1.71414e-11 3.33328e-11 1.63068e-11)
(-7.37895e-12 4.26388e-11 1.28199e-11)
(4.76053e-12 2.56719e-11 1.10932e-11)
(-1.27318e-11 1.00612e-10 2.89865e-11)
(2.13947e-11 7.40744e-11 2.961e-11)
(4.1267e-11 8.60062e-11 3.76605e-11)
(1.15197e-10 2.39419e-10 1.35356e-10)
(9.234e-11 3.02597e-10 1.75253e-10)
(9.5894e-12 1.53354e-10 4.65431e-11)
(-2.24959e-11 4.376e-10 1.2814e-10)
(2.78731e-11 6.69318e-11 2.99293e-11)
(7.17512e-11 2.15152e-10 8.80874e-11)
(-1.77229e-10 3.30047e-10 3.69618e-11)
(-2.76377e-11 7.98884e-11 1.95179e-11)
(-3.28829e-11 1.90982e-10 4.07991e-11)
(-3.7743e-11 1.47991e-10 3.40219e-11)
(-7.57092e-11 5.02453e-10 1.12298e-10)
(3.41539e-12 1.07716e-10 3.17863e-11)
(1.62936e-10 2.4748e-10 1.00786e-10)
(1.43525e-10 5.9286e-10 1.11189e-10)
(2.2402e-11 2.15657e-10 4.4267e-11)
(2.85996e-10 2.53479e-10 6.45218e-11)
(2.05252e-10 1.49877e-10 6.3606e-11)
(8.25658e-11 4.26745e-10 1.17676e-10)
(2.38509e-10 4.10839e-10 9.26152e-11)
(1.04909e-10 1.34442e-10 8.43685e-11)
(9.55313e-11 7.2871e-11 6.53991e-11)
(3.89112e-11 2.0013e-11 1.90384e-11)
(3.17543e-11 4.60257e-11 2.63925e-11)
(1.20749e-10 7.34419e-11 6.28456e-11)
(7.96213e-11 1.79588e-10 8.13169e-11)
(3.702e-11 3.73919e-11 2.73264e-11)
(2.36016e-12 8.50547e-13 4.53057e-11)
(1.43995e-12 3.66986e-12 4.34159e-11)
(1.85452e-13 -4.08193e-13 5.12803e-11)
(-3.62788e-13 3.00754e-12 5.83268e-11)
(6.74545e-13 2.26154e-12 5.19808e-11)
(5.70539e-12 4.37918e-12 5.1721e-11)
(1.83988e-12 7.96473e-12 5.76982e-11)
(2.35208e-12 5.65344e-12 5.13689e-11)
(3.3455e-10 7.90609e-10 2.63489e-12)
(4.90088e-10 3.43949e-10 1.14544e-12)
(4.18845e-10 5.61809e-10 -1.14371e-12)
(2.04193e-13 -2.74796e-12 4.88449e-11)
(-5.77048e-13 -4.15566e-12 5.08908e-11)
(6.29924e-13 -2.67608e-12 4.59412e-11)
(6.07814e-13 -3.02273e-12 3.89276e-11)
(1.28665e-12 -1.48947e-12 4.0182e-11)
(1.18363e-12 -3.66329e-12 4.8099e-11)
(2.11654e-12 -2.92049e-12 4.3919e-11)
(1.99701e-12 -2.25137e-12 4.50152e-11)
(-1.79575e-12 -4.81666e-13 3.01239e-11)
(-1.86373e-12 -4.14143e-13 2.98507e-11)
(-1.27189e-12 -3.40655e-13 3.4661e-11)
(-1.86659e-12 -4.34794e-13 3.92677e-11)
(-1.22628e-12 -4.20178e-13 3.4894e-11)
(-1.08376e-12 -5.34426e-13 3.54091e-11)
(-1.79838e-12 -4.73422e-13 3.95047e-11)
(-1.16487e-12 -4.66488e-13 3.5142e-11)
(-1.30194e-12 -2.61412e-13 3.44958e-11)
(-1.97088e-12 -2.11505e-13 3.87706e-11)
(-1.32569e-12 -1.94985e-13 3.43894e-11)
(-2.01191e-12 -3.77561e-14 2.90053e-11)
(-2.01249e-12 -1.24092e-13 2.9052e-11)
(-1.9796e-12 -1.57927e-13 3.86846e-11)
(-1.34206e-12 -6.21993e-14 3.42412e-11)
(-1.33982e-12 -1.45226e-13 3.43024e-11)
(-3.87471e-11 2.10798e-11 6.98281e-12)
(-6.42004e-12 4.1788e-12 2.08418e-12)
(-1.6349e-11 2.53751e-11 7.41108e-12)
(-7.48915e-12 1.39011e-11 6.57077e-12)
(-3.11044e-11 7.93353e-11 2.19463e-11)
(-1.63129e-11 9.9834e-12 3.94536e-12)
(-6.08115e-12 2.99688e-12 3.73807e-12)
(-4.18905e-11 5.26752e-12 2.94685e-12)
(-5.11445e-12 -7.84031e-12 -7.60198e-13)
(2.09035e-11 -7.2075e-11 1.24217e-11)
(-1.54475e-11 -2.44369e-11 -2.87275e-12)
(-6.37099e-11 -5.60956e-11 -1.70628e-11)
(-2.37473e-12 -1.74e-11 -4.62411e-12)
(-1.63358e-11 -4.77494e-12 7.17272e-13)
(-5.3369e-11 2.43652e-11 4.02103e-12)
(-2.30435e-10 2.36637e-10 -1.14363e-11)
(-3.8212e-11 4.35016e-11 9.44065e-12)
(-4.90475e-11 -1.09784e-13 -2.44943e-12)
(-5.68163e-11 1.13929e-10 2.40883e-11)
(-1.0917e-10 -2.06574e-11 -2.70838e-11)
(-3.11174e-11 1.16313e-11 3.39295e-12)
(-1.4333e-11 3.11273e-10 1.11435e-10)
(-2.99391e-11 1.13513e-10 1.4025e-11)
(-1.35231e-10 5.43574e-10 8.73573e-11)
(-4.39203e-10 5.21397e-10 1.96991e-10)
(-7.67968e-10 2.97008e-10 3.7037e-10)
(-3.57068e-10 4.87009e-10 -4.71938e-12)
(-1.47598e-10 3.22487e-10 3.57376e-11)
(-5.48773e-10 8.70874e-10 1.38305e-10)
(-2.90671e-10 7.0783e-10 3.87016e-11)
(-9.96485e-10 6.21602e-10 1.84172e-11)
(2.7948e-10 -4.05614e-10 -7.51677e-11)
(8.79297e-11 -7.38677e-11 -3.319e-12)
(4.63552e-11 -1.00639e-10 1.71351e-11)
(5.45643e-12 -6.18829e-11 -1.25354e-11)
(-4.96521e-11 -1.09406e-10 -2.41323e-11)
(2.40171e-10 -1.99837e-10 6.43269e-11)
(8.5148e-11 -1.16387e-10 -2.52423e-11)
(6.43802e-10 -7.23016e-10 -1.41132e-10)
(6.96978e-10 -2.3004e-10 -7.57137e-11)
(1.06087e-08 -3.58269e-09 4.87625e-09)
(-1.65375e-10 -7.21613e-11 1.18184e-10)
(4.16463e-11 -6.27174e-10 -1.22435e-10)
(2.5615e-09 -6.95161e-10 -2.18919e-11)
(2.08951e-10 -2.55119e-10 -9.31975e-11)
(6.84712e-11 -3.87593e-10 -1.68117e-10)
(-3.34875e-10 3.0858e-10 -3.11681e-11)
(-6.42862e-11 -4.0252e-11 -1.99248e-11)
(-2.39526e-10 7.00962e-11 -1.67642e-11)
(-1.1093e-10 -7.81897e-11 -4.03312e-11)
(-4.93594e-10 -1.06659e-10 -2.1981e-10)
(-1.25288e-11 -1.30761e-10 -5.20326e-11)
(6.89929e-12 -2.45607e-12 1.48968e-11)
(7.27036e-12 -1.36687e-13 7.829e-13)
(6.01374e-12 -2.60728e-13 1.02565e-12)
(8.31484e-12 -3.99043e-13 1.27311e-11)
(7.35724e-12 -1.08647e-13 7.52147e-13)
(7.60563e-12 -5.43646e-14 6.51079e-13)
(8.1621e-12 -2.45444e-14 1.22521e-11)
(7.26631e-12 -6.83542e-15 5.77821e-13)
(7.23912e-12 -8.88979e-15 5.72047e-13)
(8.39206e-12 -1.07819e-13 1.21045e-11)
(7.31608e-12 -6.4386e-15 5.70718e-13)
(7.57738e-12 -4.81508e-15 5.2876e-13)
(3.7315e-10 1.23587e-10 7.70376e-11)
(1.93953e-10 8.90393e-11 4.07554e-11)
(3.63821e-11 1.64999e-11 -8.26915e-12)
(1.20843e-11 3.08331e-12 2.81913e-12)
(2.31605e-11 1.55914e-11 4.69665e-12)
(4.80245e-11 6.3089e-12 1.69509e-11)
(4.09607e-11 3.23433e-11 -2.9121e-11)
(1.98924e-11 5.00743e-12 1.62667e-12)
(3.23229e-11 1.34211e-11 1.0771e-11)
(6.19249e-11 -8.16661e-12 -3.17731e-11)
(4.07654e-12 -5.92479e-12 -4.71984e-12)
(3.32036e-11 -6.36627e-11 1.06143e-11)
(1.92851e-11 -5.94238e-12 -3.18674e-12)
(7.49726e-12 -1.80259e-11 -1.84826e-11)
(4.79363e-11 -2.95103e-11 -1.25565e-11)
(1.75809e-11 -4.24701e-12 -6.31945e-12)
(4.81496e-11 -8.54024e-12 -3.86858e-11)
(6.95293e-11 5.11197e-11 3.93421e-11)
(3.31123e-11 1.38124e-11 9.50255e-12)
(2.73749e-11 5.25384e-13 5.88433e-13)
(1.33312e-10 6.34417e-11 3.13677e-11)
(5.11836e-11 -1.59282e-11 -1.32461e-11)
(2.84588e-11 -3.30664e-13 -2.17146e-13)
(3.63462e-10 3.74066e-11 8.97756e-11)
(7.84026e-11 1.0229e-11 2.03381e-11)
(1.1489e-10 3.49699e-11 4.12355e-11)
(-1.84184e-11 8.28469e-10 5.87502e-11)
(1.69027e-11 4.32958e-10 1.24768e-10)
(-4.18107e-11 1.3451e-10 2.28444e-10)
(9.77855e-11 8.25247e-11 2.72374e-10)
(3.00655e-11 4.4428e-11 3.55734e-11)
(3.29085e-11 2.38867e-10 1.29802e-10)
(-1.63106e-12 4.74412e-11 3.95158e-11)
(4.0565e-11 8.40304e-11 2.30379e-10)
(1.41808e-11 1.2298e-11 4.87932e-11)
(5.55737e-11 2.08736e-11 1.56043e-10)
(2.45964e-11 1.62396e-11 4.36363e-11)
(4.09608e-11 3.10244e-11 1.60843e-10)
(3.21357e-11 3.65744e-11 1.40721e-10)
(1.41694e-11 2.70345e-11 5.32134e-11)
(2.11421e-11 8.79493e-10 6.72634e-11)
(7.90178e-11 2.78518e-10 1.24996e-10)
(2.13315e-11 4.35497e-10 1.47813e-10)
(1.39223e-11 1.30972e-10 2.4228e-10)
(4.94575e-11 8.41209e-11 3.00714e-11)
(2.3611e-11 3.45445e-11 2.70203e-11)
(1.66692e-11 3.00101e-11 3.60026e-11)
(5.94145e-11 1.50579e-10 1.5402e-10)
(3.52042e-11 3.45665e-11 1.67504e-10)
(1.00002e-11 4.6609e-11 4.07732e-11)
(3.44917e-10 5.29892e-10 6.70256e-11)
(1.88863e-10 7.02345e-10 7.70722e-11)
(1.78745e-10 4.24704e-10 6.65552e-11)
(3.49783e-10 2.99541e-10 7.07494e-11)
(2.85887e-10 4.7571e-10 8.68354e-11)
(2.38922e-10 7.61072e-10 6.39596e-11)
(4.1897e-10 3.28662e-10 5.36022e-11)
(3.7995e-10 5.48332e-10 5.8405e-11)
(2.0551e-10 4.20176e-10 6.06036e-11)
(2.8193e-10 8.08864e-10 4.71691e-11)
(4.69189e-10 3.56799e-10 6.06124e-11)
(2.73874e-10 7.89824e-10 5.27772e-11)
(4.67694e-10 3.32655e-10 5.59829e-11)
(3.89022e-10 5.68572e-10 5.31744e-11)
(4.59501e-12 8.90304e-10 4.34351e-11)
(5.74739e-11 9.83247e-10 4.2649e-11)
(1.93459e-10 1.18158e-09 3.06847e-11)
(1.38e-10 1.09648e-09 2.96051e-11)
(1.17305e-10 1.07292e-09 3.99888e-11)
(5.19956e-11 9.37347e-10 5.86515e-11)
(1.68893e-10 1.13079e-09 3.84062e-11)
(1.04139e-10 1.05366e-09 4.3347e-11)
(8.95708e-11 1.02276e-09 3.36556e-11)
(7.14857e-11 9.99028e-10 3.90829e-11)
(1.18292e-10 -5.23611e-11 5.54656e-11)
(6.76771e-11 -3.99642e-11 3.48582e-12)
(5.61644e-11 -8.50302e-11 1.75568e-11)
(3.02686e-11 -1.10135e-11 3.66097e-12)
(2.06922e-10 -1.49517e-10 4.70018e-11)
(5.62235e-11 -3.67307e-11 1.37141e-11)
(5.16813e-11 -1.61965e-11 8.27321e-12)
(1.15177e-10 -3.08869e-11 8.193e-11)
(5.74649e-11 5.85155e-12 3.10594e-11)
(7.1066e-11 1.60082e-11 1.47347e-10)
(3.54962e-11 7.93393e-12 3.33753e-11)
(5.33072e-11 1.59255e-11 1.39628e-10)
(1.62255e-10 -5.58052e-12 1.46513e-10)
(5.13209e-11 1.87399e-13 2.35447e-11)
(9.48796e-11 -3.1765e-11 7.38796e-11)
(4.59766e-11 4.84343e-11 5.84898e-11)
(2.83943e-11 2.93849e-12 9.1123e-12)
(2.89036e-11 1.3495e-11 2.82679e-11)
(5.20846e-11 -2.1334e-11 1.42827e-11)
(4.41377e-11 1.8095e-11 1.41776e-10)
(3.96788e-11 1.66148e-13 1.77305e-11)
(3.95104e-10 1.52796e-10 7.49388e-11)
(5.22341e-10 1.526e-10 5.31235e-11)
(5.65601e-10 6.4545e-11 5.08182e-11)
(1.83028e-10 3.24956e-11 1.79156e-11)
(5.68111e-10 4.73588e-11 4.27197e-11)
(5.5061e-10 1.83757e-10 5.87005e-11)
(5.55882e-10 1.50624e-10 5.28115e-11)
(3.95685e-10 7.4719e-11 4.70171e-11)
(1.67022e-10 3.20272e-11 1.96145e-11)
(5.07874e-10 5.59415e-11 4.91558e-11)
(-1.11963e-11 4.17286e-13 2.75171e-11)
(-4.27867e-11 -5.24724e-12 1.15507e-11)
(-2.83827e-11 2.68992e-13 5.12895e-12)
(1.78798e-09 5.28796e-10 6.498e-10)
(9.26046e-10 -5.78823e-11 8.36695e-11)
(8.2766e-09 -8.37587e-10 3.2891e-09)
(1.20905e-09 -1.10238e-10 4.39041e-10)
(2.8004e-09 -1.40941e-11 6.98768e-10)
(3.73514e-09 9.14532e-11 1.20838e-09)
(7.93283e-10 1.31564e-10 1.20715e-10)
(1.17326e-09 5.37633e-10 4.39801e-10)
(1.06037e-10 3.04979e-11 1.8217e-11)
(-1.69375e-11 2.33402e-11 1.40356e-11)
(5.43512e-10 2.00974e-10 2.72265e-10)
(1.8336e-10 4.34587e-11 2.48884e-11)
(1.48535e-09 6.54774e-10 5.23846e-10)
(9.12951e-10 -5.61224e-11 3.45887e-10)
(2.67757e-09 4.89118e-10 9.14826e-10)
(2.53529e-10 6.86393e-11 2.83438e-11)
(2.05188e-11 3.87293e-11 1.73127e-10)
(1.43956e-11 7.75386e-12 4.34327e-11)
(1.15464e-11 1.85306e-11 4.68273e-11)
(2.89438e-11 3.75972e-11 1.74696e-10)
(1.10479e-11 1.10639e-11 4.85109e-11)
(1.9608e-11 1.70613e-11 4.7789e-11)
(4.8681e-11 3.67235e-11 1.77974e-10)
(1.21022e-11 1.70406e-11 4.75631e-11)
(-4.43012e-12 -4.76401e-13 6.24851e-11)
(-2.01964e-12 3.99741e-12 6.2838e-11)
(-4.16753e-12 4.69672e-12 6.30168e-11)
(-1.49146e-11 1.33154e-11 5.31799e-11)
(6.8282e-12 2.36167e-11 5.53052e-11)
(-6.4254e-12 1.3337e-11 5.7523e-11)
(1.13316e-12 1.05569e-11 6.20097e-11)
(9.20928e-12 2.00958e-11 5.86508e-11)
(-8.66916e-13 1.27588e-11 6.1798e-11)
(1.34874e-10 4.16862e-11 1.32161e-10)
(5.96083e-11 1.054e-11 3.79897e-11)
(8.26305e-11 1.89736e-11 1.20364e-10)
(3.44926e-11 1.58871e-11 4.19446e-11)
(1.70469e-10 8.82376e-12 1.71231e-10)
(7.91199e-11 3.74974e-11 1.28051e-10)
(5.59513e-11 1.7743e-11 4.01885e-11)
(1.91182e-10 6.24291e-11 1.73213e-10)
(1.31646e-10 7.41382e-11 4.24219e-11)
(2.94635e-11 4.42401e-11 4.39565e-11)
(4.1692e-10 1.22692e-10 2.3525e-10)
(7.22998e-11 3.79567e-11 3.88704e-11)
(1.39686e-10 5.40931e-11 1.90833e-10)
(3.11139e-11 1.94025e-11 4.57014e-11)
(3.03368e-11 3.0774e-11 4.83441e-11)
(6.52026e-11 3.79408e-11 1.74663e-10)
(4.86486e-11 2.39801e-11 4.32553e-11)
(3.90954e-10 5.69622e-10 1.25938e-11)
(2.18293e-10 4.67001e-10 2.99045e-11)
(3.18308e-10 7.94296e-10 9.11771e-12)
(4.72199e-10 3.54875e-10 2.98176e-12)
(4.06598e-10 5.64316e-10 3.98511e-12)
(3.00524e-10 7.98272e-10 1.44804e-11)
(4.52162e-10 3.69015e-10 1.45531e-11)
(3.80434e-10 5.74305e-10 2.38493e-11)
(2.03294e-10 4.79533e-10 3.24703e-11)
(2.76615e-10 8.1227e-10 3.35067e-11)
(4.46147e-10 3.76134e-10 5.08241e-11)
(3.80489e-10 5.73734e-10 4.08686e-11)
(2.83576e-10 8.06039e-10 2.4249e-11)
(4.3899e-10 3.80331e-10 2.52336e-11)
(5.52928e-10 1.84781e-10 4.2039e-12)
(5.46522e-10 8.47836e-11 1.70637e-12)
(1.42753e-10 1.00636e-09 7.58814e-12)
(1.87557e-10 1.10578e-09 6.94163e-12)
(1.3766e-10 1.00556e-09 1.1194e-11)
(1.19877e-10 1.00234e-09 1.85826e-11)
(1.42002e-10 1.09436e-09 2.64605e-11)
(2.29679e-10 1.20532e-09 1.70287e-11)
(1.61193e-10 1.08689e-09 1.99108e-11)
(9.2178e-11 1.02125e-09 2.90191e-11)
(1.12342e-10 1.00551e-09 2.24824e-11)
(1.83574e-10 1.10263e-09 9.46621e-12)
(2.38754e-10 1.22863e-09 1.57585e-11)
(1.67565e-10 1.08844e-09 1.73891e-11)
(5.43836e-10 1.90451e-10 5.22941e-12)
(5.13247e-10 2.11617e-10 1.84053e-11)
(5.1871e-10 9.97533e-11 4.10518e-11)
(1.82803e-10 4.40827e-11 8.56523e-12)
(5.10799e-10 1.10219e-10 2.21729e-11)
(5.2835e-10 2.00537e-10 5.39719e-11)
(5.06106e-10 2.16993e-10 2.2361e-11)
(5.33931e-10 9.37668e-11 4.37152e-12)
(1.84795e-10 4.39619e-11 4.87616e-12)
(5.21976e-10 1.0366e-10 1.35706e-11)
(-3.2953e-12 -4.69065e-12 5.99398e-11)
(-1.78786e-12 -5.71989e-12 5.47075e-11)
(-1.65022e-12 -6.57699e-12 5.47065e-11)
(3.54393e-12 -4.29512e-12 3.48054e-11)
(6.04677e-13 -2.72875e-12 4.23764e-11)
(1.81301e-13 -5.09486e-12 4.47034e-11)
(-1.73782e-13 -5.12745e-12 5.00365e-11)
(-1.29942e-13 -3.20975e-12 4.64062e-11)
(-4.89753e-13 -5.66227e-12 4.93042e-11)
(-5.95471e-13 -3.3561e-12 3.572e-11)
(-1.27918e-12 -2.34726e-12 3.33098e-11)
(-5.80354e-13 -1.1999e-12 3.73545e-11)
(-6.17845e-13 -1.72487e-12 4.23191e-11)
(-4.65078e-13 -1.74863e-12 3.80701e-11)
(8.26688e-13 -3.24046e-12 4.1565e-11)
(-7.14836e-14 -2.28705e-12 4.34573e-11)
(-1.29509e-13 -2.56101e-12 3.93524e-11)
(5.47097e-12 -7.99082e-13 3.18535e-11)
(8.42824e-13 -1.30072e-12 4.21584e-11)
(8.36441e-13 -8.38087e-13 4.22849e-11)
(-1.44302e-12 -7.58722e-13 4.54022e-11)
(-1.26061e-12 -1.42941e-12 4.52153e-11)
(-1.0952e-12 -9.99701e-13 4.56579e-11)
(-2.38519e-13 -1.67261e-12 4.60069e-11)
(-6.77166e-13 -1.77626e-12 4.59442e-11)
(-6.4137e-13 -1.24254e-12 4.59356e-11)
(8.15715e-12 -1.39225e-13 1.24459e-11)
(7.08952e-12 -1.28176e-14 6.43603e-13)
(7.14865e-12 -1.22166e-14 6.03266e-13)
(8.24379e-12 -3.26297e-14 1.25392e-11)
(7.12738e-12 -1.27687e-14 6.38652e-13)
(7.26997e-12 -1.38994e-14 6.24253e-13)
(-1.73038e-12 -5.4065e-13 3.04267e-11)
(-1.65496e-12 -6.29189e-13 3.07752e-11)
(-6.66077e-13 -9.13397e-13 3.68953e-11)
(-1.28795e-12 -7.84815e-13 4.07416e-11)
(-7.76413e-13 -7.81307e-13 3.65001e-11)
(-9.95351e-13 -6.16273e-13 3.57285e-11)
(-1.45146e-12 -7.02732e-13 4.03842e-11)
(-8.91e-13 -7.10813e-13 3.61036e-11)
(-2.45584e-12 -2.9206e-13 4.42555e-11)
(-2.75371e-12 -3.96006e-13 4.29185e-11)
(-2.43175e-12 -3.34796e-13 4.43885e-11)
(5.33701e-12 -2.05131e-13 3.13773e-11)
(-1.4964e-14 -2.76874e-13 4.20288e-11)
(-5.76484e-14 -2.68717e-13 4.19271e-11)
(-2.68666e-12 -4.42038e-13 4.31232e-11)
(-2.29209e-12 -3.85538e-13 4.47084e-11)
(-2.37812e-12 -3.64338e-13 4.45486e-11)
(-1.70192e-12 -5.798e-13 4.52551e-11)
(-2.13215e-12 -6.73935e-13 4.40617e-11)
(-1.89501e-12 -4.86614e-13 4.51318e-11)
(5.45312e-12 -1.97491e-13 3.15679e-11)
(4.97448e-14 -2.9963e-13 4.2138e-11)
(1.40276e-13 -2.73653e-13 4.22128e-11)
(-2.32242e-12 -5.97406e-13 4.38079e-11)
(-2.19944e-12 -4.17857e-13 4.48627e-11)
(-2.07169e-12 -4.39379e-13 4.50111e-11)
(-2.47044e-12 -2.73983e-13 4.41159e-11)
(-2.83959e-12 -2.27547e-13 4.24595e-11)
(-2.47885e-12 -2.18163e-13 4.39796e-11)
(5.38872e-12 -1.29026e-13 3.09083e-11)
(-2.74071e-14 -8.78468e-14 4.13393e-11)
(-6.92978e-14 -1.42371e-13 4.13773e-11)
(-2.8393e-12 -1.51404e-13 4.23758e-11)
(-2.43169e-12 -7.94509e-14 4.3878e-11)
(-2.46643e-12 -1.48819e-13 4.38986e-11)
(-2.00401e-12 1.7633e-14 2.90219e-11)
(-1.99652e-12 7.53587e-14 2.90844e-11)
(-1.90623e-12 7.69308e-14 3.88036e-11)
(-1.28042e-12 8.68902e-14 3.44362e-11)
(-1.33044e-12 1.81445e-14 3.42558e-11)
(-1.94054e-12 5.74053e-14 3.87109e-11)
(-1.31049e-12 7.0949e-14 3.43362e-11)
(5.64067e-12 -8.47889e-14 3.0732e-11)
(2.38993e-14 -7.17094e-14 4.13248e-11)
(8.55484e-14 -3.28411e-14 4.1317e-11)
(-2.73564e-12 7.14583e-14 4.24685e-11)
(-2.30546e-12 4.22715e-14 4.39322e-11)
(-2.39494e-12 -5.05951e-14 4.38797e-11)
(-2.77624e-12 2.346e-14 4.23905e-11)
(-2.36079e-12 -5.43925e-15 4.38812e-11)
(-9.30738e-12 -3.13506e-12 3.51128e-11)
(4.59514e-12 -3.3798e-12 1.50878e-11)
(-2.00008e-11 -5.05085e-12 7.1759e-11)
(5.06238e-12 -3.80486e-12 1.86377e-11)
(-1.51512e-11 -3.30427e-12 3.994e-11)
(-1.39039e-11 -4.757e-12 6.51553e-11)
(6.8919e-12 -3.20368e-12 1.35637e-11)
(2.37791e-12 -2.02428e-13 2.18368e-11)
(-2.21787e-12 -2.68981e-13 4.78437e-11)
(8.30986e-12 -1.47168e-13 1.26215e-11)
(1.0563e-11 -1.23525e-13 8.42128e-12)
(-2.25889e-12 -3.72746e-13 4.81624e-11)
(2.35965e-12 -1.93972e-13 2.15666e-11)
(1.06199e-11 -7.09241e-14 8.46804e-12)
(2.26361e-12 -9.79639e-14 2.10435e-11)
(1.03151e-11 -1.58528e-14 8.20447e-12)
(-2.38462e-12 -1.34903e-13 4.71696e-11)
(8.11365e-12 -1.05461e-13 1.23295e-11)
(2.20403e-12 -6.17439e-14 2.09412e-11)
(-2.34971e-12 -8.48715e-14 4.72152e-11)
(1.03582e-11 -9.52992e-14 8.21294e-12)
(-2.71857e-11 -3.28952e-12 4.83117e-11)
(2.36522e-12 -3.60441e-12 1.64805e-11)
(-2.36938e-11 -4.31174e-12 7.49346e-11)
(-2.04613e-12 -3.23678e-12 2.37237e-11)
(-1.91504e-11 -3.22399e-12 4.2621e-11)
(-3.13122e-11 -4.20362e-12 8.10054e-11)
(-1.43576e-12 -3.68205e-12 1.82565e-11)
(1.59217e-11 4.21116e-11 1.34298e-10)
(3.61891e-12 1.82115e-11 4.60196e-11)
(2.353e-11 5.98645e-11 1.29151e-10)
(1.21754e-11 1.58963e-11 4.67276e-11)
(2.97798e-11 3.46042e-11 1.36008e-10)
(1.1167e-11 3.83193e-11 1.34025e-10)
(6.91237e-12 1.53607e-11 4.52474e-11)
(2.20666e-12 -6.11725e-14 2.11912e-11)
(1.03307e-11 -9.11082e-14 8.21594e-12)
(-2.36507e-12 -1.13877e-13 4.72025e-11)
(8.11398e-12 -6.10206e-14 1.2397e-11)
(2.2243e-12 -9.00342e-14 2.09435e-11)
(-2.44335e-12 -1.65851e-13 4.75008e-11)
(1.03681e-11 -1.64142e-14 8.26245e-12)
(2.28396e-12 -1.60309e-13 2.16322e-11)
(-2.29151e-12 -2.49445e-13 4.79157e-11)
(1.05175e-11 -3.18075e-14 8.41241e-12)
(8.25844e-12 -1.31973e-13 1.25785e-11)
(2.27857e-12 -1.41233e-13 2.15629e-11)
(-2.3133e-12 -1.76884e-13 4.79502e-11)
(1.05315e-11 -1.04991e-13 8.42224e-12)
(1.94468e-10 3.85233e-10 8.67763e-11)
(1.02961e-10 5.07225e-10 7.26007e-11)
(6.5377e-11 3.1323e-10 5.61251e-11)
(2.38647e-10 2.99998e-10 7.8731e-11)
(2.07689e-10 2.62533e-10 7.61995e-11)
(7.22545e-11 4.63228e-10 5.78783e-11)
(2.20215e-10 4.42811e-10 8.17786e-11)
(1.12537e-10 1.57567e-10 1.06568e-10)
(3.0965e-11 2.90658e-10 1.17434e-10)
(2.79714e-11 5.29388e-11 3.56546e-11)
(5.76753e-11 1.70042e-10 1.06698e-10)
(3.60979e-11 4.47683e-11 3.40156e-11)
(2.72023e-10 6.11191e-10 8.97463e-12)
(4.18473e-10 3.72207e-10 9.51902e-12)
(4.02444e-10 5.45518e-10 3.57841e-12)
(2.8177e-10 5.69327e-10 5.10382e-10)
(4.34015e-10 2.01031e-09 2.26126e-09)
(3.16847e-13 -1.46401e-12 2.48e-11)
(7.55304e-12 -1.44189e-12 1.3632e-11)
(-3.37872e-12 -1.689e-12 4.90751e-11)
(1.01899e-11 -8.48816e-13 9.15832e-12)
(1.05674e-12 -1.15105e-12 2.38375e-11)
(-4.29795e-12 -2.20631e-12 5.01794e-11)
(9.96943e-12 -1.06809e-12 9.47163e-12)
(1.88207e-12 -7.50636e-13 2.28245e-11)
(8.13556e-12 -6.25377e-13 1.29254e-11)
(-3.05718e-12 -1.33393e-12 4.88224e-11)
(1.03127e-11 -5.70975e-13 8.94531e-12)
(1.47139e-12 -9.15541e-13 2.32415e-11)
(-2.64502e-12 -1.01767e-12 4.85085e-11)
(1.04829e-11 -5.00095e-13 8.80096e-12)
(2.52584e-12 -5.22808e-14 2.07771e-11)
(8.18691e-12 -4.3939e-14 1.22194e-11)
(-2.02767e-12 -8.78178e-14 4.67161e-11)
(1.04559e-11 -9.56525e-14 8.06449e-12)
(2.57841e-12 -8.7835e-14 2.0556e-11)
(-2.12185e-12 -1.44732e-13 4.69245e-11)
(1.04573e-11 -2.12695e-14 8.11235e-12)
(2.7546e-12 -8.88495e-14 2.0619e-11)
(8.28864e-12 -7.99066e-14 1.21581e-11)
(-1.95896e-12 -1.01858e-13 4.66655e-11)
(1.04952e-11 -1.78791e-14 8.04252e-12)
(2.66267e-12 -5.06334e-14 2.04884e-11)
(-1.90751e-12 -4.75194e-14 4.67985e-11)
(1.05748e-11 -9.31883e-14 8.05177e-12)
(2.45435e-10 1.69946e-10 8.0197e-11)
(2.15974e-10 1.4163e-10 8.20738e-11)
(-3.27992e-11 5.63135e-10 5.26025e-11)
(-6.71502e-11 5.24353e-10 2.07652e-11)
(2.73585e-10 5.03777e-10 6.72249e-11)
(1.06873e-10 5.59897e-10 6.11232e-11)
(1.3235e-10 4.0468e-10 7.10894e-11)
(2.51407e-10 3.35054e-10 7.79592e-11)
(2.46218e-10 4.74932e-10 7.70431e-11)
(1.38938e-10 5.76697e-10 6.44615e-11)
(2.84461e-10 3.4934e-10 7.10765e-11)
(3.69929e-10 5.61267e-10 5.50219e-11)
(2.16218e-10 4.41695e-10 4.67665e-11)
(2.13129e-10 6.49545e-10 4.66712e-11)
(3.77308e-10 3.98219e-10 5.21304e-11)
(2.21082e-10 6.37875e-10 4.85066e-11)
(3.96827e-10 3.77915e-10 5.6966e-11)
(3.59349e-10 5.73431e-10 5.43561e-11)
(-3.65792e-11 6.22307e-10 4.35138e-11)
(-6.38436e-12 6.40968e-10 5.58765e-11)
(5.63079e-11 7.17441e-10 3.92449e-11)
(5.496e-11 7.07961e-10 4.13103e-11)
(2.5323e-10 2.0798e-10 8.33219e-11)
(2.86904e-10 2.16918e-10 8.41318e-11)
(3.84179e-10 2.44274e-10 3.92997e-11)
(4.0541e-10 2.1876e-10 4.94474e-11)
(-5.59471e-11 2.10859e-11 6.8247e-11)
(-1.55235e-11 5.26181e-12 3.02512e-11)