/*--------------------------------*- C++ -*----------------------------------*\
| =========                 |                                                 |
| \\      /  F ield         | OpenFOAM: The Open Source CFD Toolbox           |
|  \\    /   O peration     | Version:  2012                                  |
|   \\  /    A nd           | Website:  www.openfoam.com                      |
|    \\/     M anipulation  |                                                 |
\*---------------------------------------------------------------------------*/
FoamFile
{
    version     2.0;
    format      ascii;
    class       volVectorField;
    location    "0.107/solid";
    object      sigmaMaxDir;
}
// * * * * * * * * * * * * * * * * * * * * * * * * * * * * * * * * * * * * * //

dimensions      [1 -1 -2 0 0 0 0];


internalField   nonuniform List<vector> 
3124
(
(0.865632 0.169613 -0.471076)
(-0.102306 0.957195 0.270759)
(0.822766 -0.16655 -0.543431)
(-0.194586 0.97953 0.0515465)
(0.214675 0.976474 -0.020331)
(-0.15147 0.988291 0.0183605)
(-0.325832 0.632017 0.703128)
(0.0212368 0.986144 -0.164526)
(0.986616 -0.160686 -0.0277277)
(0.862671 -0.138977 -0.486297)
(-0.183359 0.982148 0.0420127)
(0.8585 0.0362034 -0.511534)
(0.9501 0.302542 -0.0760203)
(-0.22499 0.973955 -0.0281411)
(0.882865 0.0310887 -0.468597)
(0.985616 -0.16876 0.00902392)
(-0.141303 0.989963 0.00240651)
(0.0657517 0.997803 0.00815211)
(0.181809 0.983179 -0.0174358)
(-0.125795 0.991915 0.0167513)
(0.0197614 0.999799 0.00326764)
(0.0565585 0.998382 0.00586535)
(0.0172106 0.99985 0.00212747)
(0.973315 0.0380726 -0.226293)
(0.872663 0.43406 -0.223719)
(0.88593 0.461091 -0.0502225)
(-0.447154 -0.165219 0.879066)
(0.847239 -0.0459239 -0.529223)
(0.883154 -0.0233403 -0.468503)
(-0.348931 -0.305642 0.885907)
(-0.589785 -0.547677 0.593467)
(0.902745 -0.298915 -0.309357)
(0.0485168 0.998817 -0.00339711)
(0.47761 0.872291 -0.104867)
(-0.146248 0.0535969 0.987795)
(0.979458 0.0355613 -0.198487)
(-0.0600864 0.998086 0.014632)
(-0.0395549 0.999114 0.0144046)
(0.00688325 0.999975 0.00170663)
(0.0213737 0.999769 0.00222117)
(-0.00115562 0.999999 0.00125503)
(-0.00567377 0.999984 0.000368813)
(0.94547 0.28583 -0.156168)
(-0.422696 0.774889 0.469974)
(0.666766 0.709785 0.227221)
(0.952587 0.170972 -0.251689)
(0.885874 0.460747 0.0542146)
(-0.546965 0.659452 0.515706)
(0.892034 -0.339675 -0.298156)
(0.514448 0.790302 0.332815)
(0.248984 0.968506 0.00176644)
(-0.174803 0.983872 0.0379595)
(0.162241 0.986613 -0.0164898)
(-0.200558 0.97936 0.0251265)
(0.795739 -0.330205 -0.507705)
(-0.537765 0.703082 0.465279)
(0.75954 0.270758 -0.591429)
(0.808225 -0.585305 0.0647336)
(0.982552 -0.0433755 -0.180857)
(-0.0777202 -0.451629 0.888814)
(0.0429411 0.845703 -0.531924)
(-0.293946 -0.139688 0.94556)
(0.951104 -0.120792 -0.284272)
(-0.15812 -0.00873444 0.987381)
(0.918894 -0.393947 0.0209637)
(-0.320449 -0.168344 0.932187)
(0.109499 -0.0924889 0.989675)
(0.919913 -0.366541 -0.139308)
(-0.0192383 0.0125837 0.999736)
(-0.205474 -0.068746 0.976245)
(0.640158 -0.597179 -0.483295)
(0.963581 -0.0132193 -0.267088)
(0.93265 -0.0495439 -0.357365)
(0.806771 -0.587002 0.0674565)
(0.813599 -0.57762 0.0664277)
(0.226043 0.961012 -0.159251)
(0.957238 -0.137826 -0.254361)
(0.488266 0.826297 -0.280766)
(0.979386 0.0883228 -0.181668)
(0.823233 0.55741 -0.107615)
(0.0226428 0.999733 -0.0046878)
(0.239306 0.955106 -0.174658)
(0.514649 0.849872 -0.113373)
(0.961499 0.0910574 -0.259284)
(0.708583 0.696374 -0.113904)
(0.810651 0.566901 -0.14652)
(-0.117218 0.041006 0.992259)
(0.983383 -0.177534 -0.0379328)
(-0.194389 -0.0075587 0.980895)
(0.922147 -0.383465 0.0509851)
(0.019126 -0.0471459 0.998705)
(0.843984 0.046865 -0.534316)
(0.917546 -0.395562 -0.040504)
(0.816753 -0.576968 -0.00477689)
(-0.0100404 -0.00941326 0.999905)
(-0.0121236 0.0123006 0.999851)
(-0.0257185 -0.0225584 0.999415)
(0.820247 -0.56981 0.0501154)
(0.819863 -0.572516 0.00704785)
(-0.0815449 0.996591 0.0125308)
(0.116797 0.99289 0.0229637)
(-0.0637444 0.997877 0.0133178)
(0.065118 0.997866 0.00490113)
(0.212831 0.977063 0.0071754)
(0.0793219 0.996764 0.0130183)
(0.0988137 0.995093 0.00514383)
(0.140686 0.99003 0.00698385)
(-0.135935 0.990584 0.0162823)
(0.184422 0.982685 -0.017864)
(0.0445459 0.999001 0.00356157)
(0.0321573 0.99948 0.00247788)
(0.0128307 0.999917 0.00150733)
(0.0320315 0.999481 0.00348152)
(0.0309942 0.999517 0.0023313)
(0.0719953 0.997398 0.00363425)
(0.0324401 0.999465 0.00406047)
(0.0467643 0.998903 0.00244288)
(0.00305204 0.999994 0.00130194)
(-0.00421486 0.999991 0.000657483)
(-0.00423578 0.999991 7.13858e-05)
(-0.0125878 0.999921 -0.00017348)
(-0.00698554 0.999975 -0.00049267)
(-0.0119396 0.999929 -0.000160642)
(0.952865 0.303322 -0.00665122)
(0.712213 0.613953 -0.340315)
(0.0605219 0.998135 -0.00797202)
(0.21583 0.975942 -0.0309061)
(-0.164725 0.986133 0.0201611)
(-0.327176 0.944672 0.0234783)
(-0.144677 0.989455 0.0068922)
(-0.0739179 0.99725 0.0052729)
(-0.0718267 0.997408 0.00416772)
(-0.135654 0.990741 0.00556296)
(0.168379 0.984246 0.053926)
(0.186848 0.979023 -0.081257)
(-0.158508 0.929422 0.333241)
(-0.348372 0.91941 0.182544)
(-0.201626 0.976047 -0.0817271)
(0.0834085 0.970741 0.225177)
(0.0560374 0.961878 -0.267678)
(0.74523 -0.653558 -0.132268)
(0.952284 -0.224771 -0.206477)
(0.761866 -0.371496 -0.530613)
(0.80625 -0.199644 -0.556869)
(0.862014 -0.499591 -0.0856818)
(0.974171 -0.186917 -0.126702)
(0.69799 -0.440709 -0.564434)
(0.856581 -0.511126 0.0708418)
(0.205372 0.977163 0.0545326)
(0.93535 -0.0455027 -0.350786)
(-0.144694 0.989197 0.0234987)
(0.889279 0.00361551 -0.45735)
(0.888379 -0.00164087 -0.459107)
(0.887871 -0.00297316 -0.460082)
(0.165022 0.986162 -0.0158649)
(0.885271 0.000355049 -0.465075)
(-0.225431 0.973814 0.0294593)
(0.879409 -0.00398608 -0.47605)
(-0.509577 0.672923 0.536195)
(-0.596668 0.52926 0.603217)
(-0.308964 0.603744 0.73487)
(-0.379972 0.805401 0.454918)
(-0.247288 0.960541 -0.12732)
(-0.53971 0.33284 0.77326)
(0.605511 -0.529412 -0.594205)
(-0.473317 0.878879 -0.0595151)
(-0.162836 0.977654 -0.132958)
(0.0713614 0.997291 0.0178107)
(-0.068462 0.94967 -0.305679)
(0.917965 -0.382091 -0.106523)
(0.984557 -0.144113 -0.0993964)
(0.813624 -0.318661 -0.486284)
(0.904594 -0.0988485 -0.414654)
(0.883293 -0.465741 -0.0536605)
(0.99108 -0.123765 -0.0494254)
(0.858832 -0.24856 -0.447913)
(-0.647104 0.731245 -0.215726)
(-0.357669 0.931753 -0.0625188)
(-0.566146 0.643614 -0.515014)
(0.955578 0.282974 -0.082441)
(0.994201 -0.0420947 -0.0989532)
(0.856947 0.027208 -0.514685)
(0.852073 0.223586 -0.473266)
(0.996565 -0.0416825 -0.0715602)
(0.956579 0.270685 -0.108107)
(0.850967 0.218947 -0.477407)
(-0.168813 0.985554 -0.0136223)
(-0.195068 0.979463 -0.0509975)
(-0.0470422 0.998346 -0.0330372)
(0.97396 0.157212 -0.163362)
(0.992477 -0.0531929 -0.110275)
(0.917376 0.0357709 -0.396411)
(0.874486 0.187187 -0.447477)
(0.997233 -0.0411526 -0.0619023)
(0.961816 0.253486 -0.103223)
(0.896795 0.17943 -0.404431)
(-0.237311 0.971415 0.00612958)
(0.00254623 0.999624 0.0273017)
(-0.300836 0.953504 0.0180778)
(0.831034 -0.555156 -0.0344081)
(0.978714 -0.201695 -0.0379217)
(0.0767443 0.997007 0.00936788)
(0.816273 0.577163 0.024103)
(0.771495 0.635828 0.0227686)
(0.887874 0.00219832 -0.460081)
(-0.144937 0.989284 0.017607)
(0.886887 -0.00248262 -0.46198)
(0.889628 -0.000638647 -0.456685)
(0.186039 0.982378 -0.0179531)
(0.888111 0.00190549 -0.459625)
(-0.494377 0.868945 0.0229386)
(-0.265884 0.963902 0.0141085)
(0.992726 0.116002 0.0322393)
(0.0270533 0.999629 0.00318714)
(0.984337 0.173383 0.0319213)
(0.845695 0.533063 0.0253674)
(0.0433029 0.999049 0.00511741)
(0.877349 0.479103 0.0268021)
(0.995915 0.0843173 0.0323135)
(0.0063862 0.999978 0.00169377)
(0.999004 0.0309085 0.0321824)
(-0.167865 0.985795 0.00541754)
(-0.0109722 0.99994 -0.000722892)
(0.996758 -0.0745116 0.0303717)
(0.960788 0.276752 0.0171555)
(0.849243 0.494285 -0.185658)
(0.896032 0.360838 -0.258694)
(0.996358 -0.0535902 -0.0663171)
(0.956083 0.290906 -0.0357624)
(0.834783 0.468427 -0.289333)
(0.928376 0.363888 0.0755236)
(0.977258 0.211879 -0.00858158)
(0.952135 0.304275 -0.02926)
(0.858162 0.354163 -0.371653)
(0.99904 -0.0110365 -0.042401)
(0.688649 0.608621 -0.394136)
(0.983829 0.178633 -0.0130646)
(0.889961 0.454686 0.0350907)
(0.86083 0.465973 -0.204549)
(0.954399 0.219155 -0.202716)
(0.926941 0.374709 -0.0193529)
(0.998849 0.0432594 -0.0207158)
(0.87203 0.369009 -0.321553)
(0.704856 0.233789 -0.669717)
(-0.537602 -0.18246 0.823221)
(0.140097 -0.505 0.851673)
(0.920549 -0.206421 -0.331632)
(0.74739 0.114278 -0.654484)
(-0.294521 -0.466093 0.834275)
(0.7787 0.0826549 -0.621928)
(0.75505 0.307348 -0.57917)
(0.351061 -0.625351 0.696916)
(0.720079 0.359573 -0.593459)
(0.476508 0.677945 -0.559759)
(0.68185 0.271612 -0.679196)
(0.24897 0.711992 -0.656568)
(0.66055 0.519665 -0.541869)
(0.337678 0.933997 -0.116723)
(0.349848 0.935146 -0.05576)
(0.0562095 0.998405 -0.00521447)
(0.169195 0.985292 -0.0239349)
(0.200254 0.979331 -0.0284296)
(0.391663 0.914101 -0.104974)
(0.342684 0.93806 -0.0510984)
(0.35074 0.934894 -0.0543511)
(-0.533232 0.0577373 0.843997)
(0.932793 -0.349282 -0.0888714)
(0.970303 -0.219866 -0.100853)
(-0.0692563 0.997445 0.0175063)
(-0.234392 0.971909 0.0213084)
(-0.263752 0.964329 0.0224585)
(0.28391 0.95883 0.00628242)
(-0.172693 0.984901 0.0121044)
(-0.288537 0.957182 0.0234412)
(0.0733605 0.997239 0.0115562)
(-0.272531 0.961934 0.0202324)
(-0.0596644 0.998203 0.00549543)
(-0.107075 0.994229 0.00655395)
(-0.00432594 0.999988 0.00216451)
(0.0120407 0.999925 0.00207185)
(0.00126128 0.999996 0.00248096)
(0.0106984 0.99994 0.00255157)
(0.0135701 0.999906 0.00202242)
(0.00376943 0.99999 0.00242761)
(-0.00600647 0.999981 0.0016132)
(-0.00403732 0.999991 0.000931875)
(-0.00939552 0.999955 0.00129719)
(-0.198581 0.980062 0.0066829)
(-0.0876117 0.996147 0.00394095)
(-0.00230585 0.999997 0.000735448)
(-0.0144823 0.999895 0.00078561)
(-0.00800395 0.999967 0.00111342)
(0.410898 0.910405 0.0482254)
(0.632258 0.759254 -0.154219)
(0.853591 0.513516 -0.0876552)
(0.977747 0.195516 -0.0760565)
(0.916249 0.398811 -0.0379273)
(0.559139 0.82184 0.109283)
(0.261434 0.920346 -0.290887)
(0.120942 0.989455 0.0797018)
(-0.295327 0.868706 0.397659)
(-0.469508 0.877854 0.0945253)
(-0.212222 0.844151 0.492312)
(-0.158813 0.982581 0.0965069)
(-0.232608 0.972505 -0.011314)
(-0.0533703 0.922139 0.38316)
(0.337524 0.938647 0.0708512)
(0.644662 0.75685 0.107652)
(0.756829 0.653399 0.0167111)
(0.182155 0.874863 0.448815)
(0.857616 0.514246 -0.00674861)
(0.0327383 0.995353 0.0905537)
(0.387794 0.879728 0.275125)
(0.955778 0.288763 -0.0557151)
(0.268226 0.739449 -0.617471)
(0.998615 0.030878 -0.0426056)
(0.210762 0.908002 -0.362095)
(0.111314 0.99278 -0.0446821)
(0.725307 0.688076 0.0219495)
(0.466729 -0.544784 0.696688)
(0.377842 0.777934 -0.502049)
(0.986547 0.125097 0.10524)
(0.369255 0.92922 0.0141674)
(-0.649852 0.752933 0.10385)
(0.67113 -0.527265 -0.521129)
(-0.559548 0.822922 0.0985208)
(-0.397112 0.73019 0.55599)
(-0.293783 0.949029 0.114172)
(0.792093 -0.607302 -0.0614235)
(-0.558731 0.600437 0.572097)
(0.701775 -0.69867 -0.139184)
(0.784298 -0.261614 -0.562526)
(0.952413 -0.304548 -0.0125998)
(-0.619475 0.699593 0.356118)
(-0.255538 0.966756 0.00912881)
(0.966685 -0.211072 -0.144809)
(0.62622 -0.524438 -0.5769)
(-0.438541 0.866913 0.236947)
(0.555845 0.828778 0.0645209)
(-0.0916414 0.818076 0.567762)
(0.171976 0.941241 0.29067)
(-0.113874 0.986728 0.115759)
(0.00372723 0.996293 0.0859455)
(-0.376784 0.711142 0.593558)
(0.0642636 0.996704 0.0495011)
(0.902052 -0.0063772 -0.43158)
(0.922417 -0.0264909 -0.385287)
(0.207728 0.978087 -0.0139761)
(0.89794 -0.00713647 -0.440061)
(0.889622 -0.000105014 -0.456697)
(-0.174247 0.984471 0.0213085)
(0.884549 0.00049811 -0.466447)
(0.884722 -0.00330852 -0.466108)
(0.156259 0.987576 -0.016644)
(0.883851 -0.00439117 -0.467749)
(0.880222 -0.000863431 -0.474562)
(0.927364 -0.374039 -0.00952146)
(0.820764 -0.1769 -0.543188)
(-0.578535 0.508451 0.637789)
(0.778923 -0.507843 -0.367933)
(0.819483 -0.115418 -0.561361)
(0.835648 -0.404316 -0.37178)
(0.918297 -0.384445 -0.094515)
(0.764761 -0.301988 -0.569161)
(0.772694 -0.605423 -0.190808)
(-0.331661 0.658737 0.675327)
(-0.396273 0.755977 0.521024)
(-0.532941 0.843242 0.0701215)
(0.636538 -0.51957 -0.569971)
(-0.281871 0.95735 -0.0634784)
(-0.647985 0.760695 -0.0381854)
(-0.515905 0.390986 0.762215)
(-0.511446 0.403074 0.758917)
(-0.268575 0.82854 -0.491313)
(0.789335 0.10078 -0.605635)
(0.74711 -0.103628 -0.656572)
(-0.555558 -0.320365 0.767282)
(-0.672665 0.739933 -0.00450981)
(0.709945 -0.170792 -0.683233)
(-0.61848 0.0187337 0.785577)
(0.855743 -0.503526 -0.119019)
(0.939038 -0.336442 -0.0708099)
(-0.228454 -0.0762755 0.970562)
(-0.0283117 -0.431021 0.901898)
(-0.49197 0.8056 -0.330112)
(-0.429896 -0.37181 0.822768)
(0.368148 0.733316 -0.57159)
(-0.146223 0.74831 -0.647032)
(0.0616895 0.807145 -0.587121)
(-0.364165 0.9313 -0.00803513)
(0.904411 -0.421568 -0.0657384)
(0.969574 -0.239998 -0.0482499)
(0.847671 -0.520889 -0.100641)
(0.806957 -0.587083 -0.0644512)
(0.831749 -0.551114 -0.0668265)
(-0.312163 0.943414 -0.111911)
(-0.339174 -0.108838 0.934407)
(-0.545379 -0.155334 0.82367)
(0.0156219 -0.553517 0.832691)
(-0.565283 0.802299 -0.191758)
(-0.389814 0.72135 -0.57245)
(0.173245 0.773539 -0.60961)
(-0.386741 0.899522 -0.203202)
(0.113756 -0.430165 0.895554)
(-0.701762 0.712218 0.0166081)
(-0.0368707 0.909205 -0.414713)
(0.935336 -0.126123 -0.330514)
(-0.520673 -0.0850607 0.849508)
(-0.265301 -0.0113814 0.964098)
(0.895722 -0.208715 -0.392582)
(0.859394 -0.0536264 -0.508494)
(-0.545863 -0.0345817 0.837161)
(0.918461 -0.27702 -0.282295)
(0.970378 -0.152113 -0.18769)
(-0.267431 0.022984 0.963303)
(0.118288 -0.00519356 0.992966)
(0.939223 -0.310066 0.147373)
(-0.5148 -0.0103103 0.857249)
(0.944996 -0.300891 -0.128244)
(0.982356 -0.16563 0.0868537)
(-0.203152 -0.10986 0.972965)
(-0.0935857 -0.0270837 0.995243)
(-0.0625192 -0.0105213 0.997988)
(-0.0126598 0.0270463 0.999554)
(-0.109124 -0.0244281 0.993728)
(-0.273754 -0.0823503 0.958268)
(-0.108765 -0.0680526 0.991735)
(-0.157884 -0.0292192 0.987025)
(0.00518017 0.0233757 0.999713)
(-0.0879017 -0.0368379 0.995448)
(0.878114 -0.458531 -0.136619)
(0.73618 -0.467633 -0.489243)
(-0.617775 0.781608 0.0862725)
(0.726127 -0.511203 -0.459796)
(0.823853 -0.565406 -0.0397833)
(0.755986 -0.654329 -0.0184086)
(0.789736 -0.398258 -0.466592)
(0.921912 -0.371308 -0.110494)
(0.935834 -0.0458856 -0.34944)
(0.98332 -0.171838 -0.0596171)
(0.942479 -0.212532 -0.257999)
(0.882153 -0.465363 -0.0724099)
(0.990907 -0.122376 -0.055926)
(0.905226 -0.194321 -0.377897)
(0.889084 -0.442302 -0.117887)
(-0.439473 0.784867 -0.436861)
(0.845749 -0.346136 -0.406078)
(0.892266 -0.408274 -0.192807)
(0.790386 -0.612514 -0.0108207)
(0.829036 -0.556255 -0.0572763)
(0.865214 -0.343338 -0.365409)
(0.923342 -0.357456 -0.140233)
(0.917056 -0.354948 -0.181715)
(0.780568 -0.524069 0.340684)
(0.802416 -0.595443 0.0396989)
(0.837146 -0.543406 -0.0624252)
(0.900555 -0.361136 0.242036)
(0.914106 -0.366529 -0.173396)
(0.859044 -0.51086 0.0326322)
(0.809807 -0.586019 0.028189)
(0.812697 -0.419357 -0.404554)
(-0.356491 0.930039 -0.0891122)
(-0.0676847 0.989614 -0.126819)
(0.603918 -0.519451 0.604528)
(0.958816 0.276279 -0.0658874)
(0.847393 -0.0322894 -0.529984)
(0.995042 0.0850572 0.05154)
(0.95007 0.0309415 -0.3105)
(0.979278 0.0405142 -0.198425)
(0.96635 0.253305 -0.0447625)
(0.862835 0.142571 -0.484963)
(0.955776 0.27674 -0.0995324)
(0.787525 0.210657 -0.579161)
(0.466932 0.857761 0.214988)
(0.956217 0.275568 -0.0985485)
(0.785712 0.202709 -0.584437)
(0.957356 0.27327 -0.0937667)
(0.953841 0.00548409 -0.300262)
(0.966393 0.251724 0.0521461)
(0.780177 0.201032 -0.592376)
(0.996858 0.0771378 -0.0180042)
(0.230388 0.972267 -0.0402264)
(-0.15033 0.984059 -0.095024)
(0.999653 0.0263048 -0.00153199)
(0.765814 0.638003 -0.0805022)
(0.905677 0.399102 -0.143063)
(0.991847 0.114461 -0.056027)
(0.747635 0.653867 -0.116189)
(-0.0496856 0.99873 -0.00838288)
(0.139564 0.989949 -0.0228824)
(0.0629288 0.997699 -0.0252345)
(-0.0918589 0.993801 -0.062616)
(0.371714 0.916883 -0.145447)
(0.130085 0.989598 -0.0614233)
(0.318756 0.946448 -0.0512846)
(0.479231 0.868867 -0.124125)
(0.249392 0.966918 -0.0536109)
(0.977402 0.163145 -0.134422)
(0.943858 0.0560759 -0.325559)
(0.995167 -0.0253235 -0.0948797)
(0.948699 0.202899 -0.242492)
(0.997453 -0.0404224 -0.0587625)
(0.979422 0.168827 -0.110587)
(0.928989 0.183914 -0.321179)
(0.97583 0.163274 -0.145251)
(0.829126 0.442832 -0.341248)
(0.734631 0.632803 -0.244701)
(0.969624 0.23121 -0.0798229)
(0.863385 0.358891 -0.354633)
(0.98131 0.171588 -0.0871153)
(0.910862 0.363665 -0.195138)
(0.778346 0.597418 -0.193051)
(0.988675 0.139228 -0.0560213)
(0.897181 0.350994 -0.268085)
(0.968232 -0.190685 -0.161757)
(-0.118165 0.0381696 0.99226)
(-0.400938 0.0350058 0.915436)
(0.939826 -0.335144 -0.0663797)
(0.974896 -0.211109 -0.0707929)
(-0.298315 0.0229175 0.954192)
(0.936153 -0.3145 -0.157187)
(0.983698 -0.179537 -0.0102824)
(-0.0921427 0.0255826 0.995417)
(0.073534 0.0131208 0.997206)
(0.948538 -0.295732 0.113215)
(0.985516 -0.168775 0.0165546)
(-0.154736 0.0204388 0.987744)
(0.953115 -0.302131 -0.0169698)
(0.911939 -0.399578 -0.0932941)
(0.851994 -0.51737 -0.0802199)
(-0.0315073 -0.0169842 0.999359)
(-0.0354405 -0.014408 0.999268)
(-0.00601566 0.00230885 0.999979)
(-0.0352491 -0.00975357 0.999331)
(-0.00645806 0.0220067 0.999737)
(-0.0233353 -0.0115438 0.999661)
(-0.0474868 0.00099209 0.998871)
(-0.0149077 0.0105344 0.999833)
(-0.0143738 0.0126518 0.999817)
(-0.0362556 -0.0100132 0.999292)
(-0.0311138 -0.0262318 0.999172)
(-0.0492917 -0.0139735 0.998687)
(0.919777 -0.391744 -0.0233743)
(0.924597 -0.359065 -0.127248)
(0.852295 -0.499613 0.154856)
(0.826031 -0.563071 0.024963)
(0.870108 -0.490928 0.0436007)
(0.921932 -0.349086 0.167872)
(0.936054 -0.351399 -0.017961)
(0.859994 -0.509546 0.0277996)
(0.823823 -0.566813 0.00620049)
(0.862413 -0.493199 -0.114011)
(-0.127676 0.991769 0.0096464)
(-0.215444 0.976261 0.0223276)
(-0.193022 0.980948 0.0220131)
(0.126696 0.99137 0.0336586)
(0.976031 0.215419 0.030952)
(-0.517682 0.855555 0.00557946)
(-0.262881 0.964515 0.0245883)
(0.00685937 0.999902 0.0121831)
(-0.180307 0.983358 0.0222908)
(0.689576 0.724148 -0.0097843)
(0.973762 0.225195 -0.0327863)
(-0.0157628 0.999852 0.00693637)
(0.122742 0.992417 0.00648731)
(0.0531218 0.99856 0.00743132)
(0.373315 0.927702 0.00206286)
(0.214174 0.976768 0.00730172)
(0.333709 0.942676 0.000854749)
(0.0702525 0.997472 0.0106921)
(0.803844 0.594347 0.024225)
(0.7149 0.6989 0.0213759)
(0.148215 0.988921 0.00826365)
(0.140132 0.990107 0.00716246)
(0.180718 0.98348 0.0104368)
(0.140252 0.99008 0.00846077)
(0.173857 0.984736 0.00828398)
(0.183814 0.982902 0.0107366)
(0.174628 0.984501 -0.0162305)
(0.88983 -0.00188383 -0.456288)
(0.887221 0.00118632 -0.461343)
(-0.137146 0.99041 0.0167031)
(0.889622 0.00308097 -0.456687)
(0.887958 -0.00134715 -0.459923)
(-0.148059 0.98894 0.00876558)
(-0.127504 0.991797 0.00898232)
(-0.00305043 0.999983 0.00491426)
(0.0384712 0.999255 0.00303363)
(0.00865695 0.999955 0.00387055)
(0.0140379 0.999897 0.00287808)
(0.0372993 0.9993 0.00283526)
(0.0169839 0.99985 0.00338226)
(0.0228811 0.999736 0.00204658)
(0.0190567 0.999817 0.00192274)
(0.0332853 0.999442 0.00281222)
(0.0246842 0.999689 0.00359448)
(0.948922 0.314037 0.0304676)
(0.973995 0.22438 0.031428)
(0.0217055 0.999762 0.00213359)
(0.0544572 0.998508 0.00404268)
(0.042566 0.999088 0.00335699)
(0.116158 0.99321 0.00636682)
(0.0588634 0.998261 0.00311343)
(0.0962654 0.995341 0.00543479)
(0.0422334 0.999098 0.00431994)
(0.933908 0.356311 0.0292863)
(0.912992 0.406978 0.0285258)
(0.0535217 0.998563 0.0028644)
(0.0754562 0.997141 0.00397088)
(0.086718 0.99622 0.00509164)
(0.0142562 0.999897 0.00187412)
(-0.000807367 0.999999 0.000914707)
(0.00695133 0.999975 0.0011522)
(0.0058087 0.999983 0.00100202)
(0.998557 -0.0433396 0.0317065)
(0.999485 -0.00296598 0.0319613)
(-0.000556573 1 0.000485634)
(-0.00946324 0.999955 -0.000303673)
(-0.00227177 0.999997 0.000415858)
(-0.121275 0.992611 0.00395889)
(-0.194158 0.980953 0.00579605)
(-0.00817367 0.999967 -0.000141836)
(-0.0207228 0.999785 0.000431074)
(-0.016885 0.999857 0.000224613)
(-0.014318 0.999897 -0.000370704)
(-0.022428 0.999748 9.98505e-05)
(-0.015338 0.999882 -0.000534827)
(0.997856 -0.0574686 0.0313206)
(0.996458 -0.0782493 0.0307971)
(-0.005646 0.999984 -0.000343673)
(-0.0157424 0.999876 -0.000708028)
(-0.0148304 0.99989 -0.000367586)
(-0.0127839 0.999918 -0.000313377)
(-0.0167921 0.999859 -0.000669568)
(0.849953 -0.524853 -0.0459256)
(0.7912 -0.609076 -0.0550357)
(-0.44816 0.892827 -0.0448581)
(0.0375989 0.996894 0.0691975)
(-0.684049 0.728956 0.0264565)
(-0.477661 0.877906 -0.03349)
(0.926355 -0.365506 -0.0909549)
(0.990623 0.0209458 -0.135011)
(0.952667 0.293066 0.0808569)
(-0.117651 0.992884 0.0184356)
(0.967672 0.0110326 -0.251971)
(0.985181 0.151346 0.0807033)
(0.99053 0.0198788 -0.135852)
(0.96751 0.0107782 -0.252604)
(0.990593 -0.00322194 -0.136803)
(0.968092 -0.002536 -0.250582)
(0.994043 -0.0727618 0.0811392)
(0.166678 0.985865 -0.0169865)
(0.99054 0.00090229 -0.137219)
(0.992886 0.0865979 0.08172)
(0.968 -0.00590139 -0.250881)
(-0.438099 0.898927 0.000415847)
(-0.648155 0.761236 0.0203706)
(-0.398117 0.916535 -0.0382849)
(-0.335216 0.942139 0.00178055)
(-0.546207 0.837488 0.0164662)
(-0.363046 0.930337 -0.051673)
(-0.544372 0.838747 -0.0127458)
(0.768577 -0.637689 0.0514095)
(0.337582 0.926887 -0.164072)
(0.995574 -0.0814887 -0.046814)
(0.950618 -0.308165 -0.0368729)
(0.912742 -0.405951 -0.0458936)
(-0.471256 0.876158 -0.101318)
(0.997319 0.0128439 -0.0720398)
(0.990653 0.00646527 -0.136256)
(0.968153 0.00447234 -0.250319)
(0.987554 0.134582 0.0813971)
(-0.139822 0.99001 0.0181885)
(0.990493 0.00587333 -0.137436)
(0.995568 -0.0465415 0.0817195)
(0.968241 0.00525448 -0.249963)
(0.990809 0.0085982 -0.134992)
(0.98718 0.138056 0.0801022)
(0.967907 0.0050405 -0.25126)
(0.189035 0.981786 -0.0190296)
(0.990661 0.0150463 -0.135516)
(0.964947 0.249529 0.081316)
(0.968104 0.00059101 -0.250549)
(-0.693997 -0.104848 0.712302)
(-0.433804 -0.0823627 0.897235)
(-0.423632 -0.200747 0.88331)
(-0.556294 -0.12042 0.822214)
(-0.664709 -0.117127 0.737864)
(-0.320553 -0.21621 0.922225)
(0.724024 -0.0104995 -0.689695)
(0.710959 0.388763 -0.586004)
(0.165836 0.76242 -0.625472)
(0.403339 0.759287 -0.510686)
(0.243466 0.695172 -0.676358)
(0.608044 0.599229 -0.520774)
(-0.110803 0.0210029 0.99362)
(-0.598114 0.169622 0.783255)
(0.916287 -0.31366 -0.249069)
(0.7961 -0.590565 -0.132128)
(0.781317 -0.595261 -0.187638)
(0.994564 0.0107918 -0.103569)
(-0.0568702 0.997551 0.0407134)
(0.99217 0.0782637 0.0973325)
(0.97344 -0.0176321 -0.228263)
(0.99362 0.00500801 -0.112669)
(0.974491 -0.202361 0.0970464)
(0.975868 -0.0160459 -0.217772)
(0.992149 0.00378782 -0.125003)
(0.192965 0.981188 -0.00596089)
(0.99464 0.0475053 0.0918352)
(0.971423 -0.0163817 -0.23679)
(0.992817 0.00799324 -0.119372)
(0.978629 0.185196 0.0893714)
(0.969882 -0.0163787 -0.243025)
(0.990137 -0.00158395 -0.140096)
(-0.18043 0.983307 0.0235136)
(0.996438 0.0311428 0.0783675)
(0.966166 -0.00358066 -0.257894)
(0.98988 -0.00391591 -0.141856)
(0.990899 -0.108708 0.0793842)
(0.966607 -0.00138814 -0.256258)
(0.989702 -0.00990236 -0.142799)
(0.152127 0.988216 -0.0169396)
(0.988871 -0.126798 0.0778251)
(0.96571 -0.0101025 -0.259428)
(0.989706 -0.00856964 -0.142855)
(0.99695 0.00555503 0.0778408)
(0.965325 -0.0116698 -0.260789)
(0.957537 -0.272226 -0.094949)
(0.898327 -0.0767848 -0.432566)
(-0.320087 -0.0589212 0.945554)
(-0.216142 -0.105869 0.970605)
(0.734924 -0.100575 -0.67065)
(-0.295924 -0.0987059 0.950098)
(-0.369212 -0.0457974 0.928216)
(-0.547301 -0.0631136 0.834553)
(-0.677961 0.00489563 0.735081)
(-0.368892 0.00135959 0.929471)
(-0.523015 0.00185934 0.852321)
(0.967223 -0.249409 0.0477042)
(0.0117917 -0.0639423 0.997884)
(0.100771 -0.0345248 0.99431)
(0.494576 -0.150233 0.856052)
(-0.00621449 -0.0404381 0.999163)
(0.274712 -0.127147 0.953083)
(0.84087 -0.200343 0.502793)
(-0.222779 -0.0458862 0.973788)
(-0.236309 0.003934 0.97167)
(0.0364795 -0.0288015 0.998919)
(-0.0424116 -0.0210746 0.998878)
(0.890225 -0.0518956 -0.452555)
(0.862977 -0.162277 -0.478474)
(0.870451 -0.322033 0.372304)
(0.925886 -0.350578 0.140824)
(-0.140359 0.987773 -0.0678499)
(-0.00358178 0.995887 -0.0905307)
(0.156867 0.978066 -0.137042)
(0.166686 0.975872 -0.141032)
(0.225371 0.973108 -0.0476389)
(0.0532662 0.998485 0.0137693)
(-0.24285 0.960343 -0.136987)
(0.628285 0.695941 -0.347741)
(0.66284 0.590415 -0.460491)
(0.472636 0.881255 0.00201937)
(0.305571 0.933629 -0.186986)
(0.21102 0.976912 -0.0333794)
(0.770239 0.567826 -0.290353)
(0.623801 0.684135 -0.37793)
(0.999137 -0.0185339 -0.0371635)
(0.991302 -0.0874877 -0.0983197)
(0.994865 -0.0555446 -0.084611)
(0.964635 0.198301 -0.173658)
(0.94269 -0.331426 -0.0386283)
(0.98901 0.119534 -0.0870101)
(0.973384 0.195158 -0.120154)
(0.882586 -0.274249 -0.381877)
(-0.0692586 0.0158067 0.997474)
(-0.0902257 0.0351089 0.995302)
(-0.298325 0.0934097 0.949883)
(0.935762 -0.314557 -0.159384)
(-0.0780086 0.00507988 0.99694)
(-0.362998 0.0871275 0.927708)
(0.548819 -0.102894 0.829584)
(-0.0605433 0.000325153 0.998166)
(0.0352901 -0.0259644 0.99904)
(0.16215 -0.0807625 0.983456)
(0.785073 -0.188345 0.590074)
(-0.0384968 0.0317192 0.998755)
(0.0617203 -0.0139477 0.997996)
(0.928063 -0.33984 -0.152343)
(-0.0567645 0.0168682 0.998245)
(-0.025872 0.0234334 0.999391)
(-0.0381717 0.00665505 0.999249)
(-0.0219906 -0.0124501 0.999681)
(-0.0370107 0.0222941 0.999066)
(0.928092 -0.32944 -0.173533)
(0.931781 -0.305801 -0.195626)
(0.877363 -0.29515 0.378313)
(0.961081 -0.275138 0.0249239)
(0.990856 0.0025473 -0.134899)
(0.173399 0.984697 -0.0174437)
(0.996634 -0.00260864 0.0819432)
(0.968628 0.000960881 -0.248515)
(0.990753 0.0060924 -0.135538)
(0.981654 0.171947 0.0823941)
(0.968699 -0.00197277 -0.248231)
(0.990758 0.0120653 -0.135107)
(-0.128967 0.991512 0.0164601)
(0.972812 0.21668 0.08177)
(0.968517 0.00769802 -0.248829)
(0.990666 0.0108897 -0.135874)
(0.995703 0.043009 0.0820146)
(0.968417 0.00845982 -0.249193)
(0.940778 0.338168 0.0240525)
(0.907388 0.416895 0.0533424)
(0.87761 0.478182 0.0337982)
(0.921952 0.384214 -0.0488226)
(0.764235 0.59826 -0.240894)
(0.864755 0.501392 -0.0283757)
(0.237613 0.97131 -0.00986992)
(0.185319 0.981823 -0.0409912)
(0.141548 0.988946 -0.0441567)
(0.144067 0.989554 -0.00517138)
(0.0996527 0.994943 -0.0125967)
(0.00411142 0.999969 -0.00671821)
(0.102695 0.994643 0.0117799)
(0.0768677 0.996102 -0.0432685)
(0.13177 0.991196 -0.0129668)
(0.0617429 0.99806 -0.00795319)
(0.0729278 0.997254 -0.0128456)
(0.130261 0.991403 -0.0123683)
(-0.0124976 0.999894 0.00747351)
(-0.0360605 0.999336 0.00523604)
(0.0137745 0.9999 0.00313998)
(-0.0196276 0.999807 -0.00113606)
(0.025332 0.999656 0.00682431)
(0.121325 0.992611 0.00170246)
(0.0320039 0.999488 -0.000100548)
(-0.0732487 0.99729 0.00685004)
(0.0342673 0.999246 0.0182408)
(0.0929359 0.995619 0.0102528)
(0.103739 0.994558 0.00965454)
(0.0227512 0.999361 0.0275712)
(-0.0316221 0.999486 0.00532486)
(0.034432 0.999401 -0.00349854)
(0.0259874 0.999662 -0.000587713)
(-0.0303995 0.999508 0.00771573)
(0.0384951 0.999244 -0.00544001)
(-0.0566357 0.998374 0.00642078)
(-0.0509286 0.998659 0.00927988)
(0.0392191 0.999222 -0.00408315)
(0.023875 0.999715 -0.000864887)
(-0.035561 0.999348 0.00631393)
(-0.0433572 0.999052 0.00384695)
(0.0309227 0.999516 -0.00347358)
(0.0291547 0.999575 -0.000677874)
(-0.0383352 0.999252 0.00502314)
(0.0295222 0.99956 -0.00283877)
(-0.047348 0.998874 0.0029619)
(-0.0529019 0.998571 0.0076296)
(0.0453454 0.998965 -0.00360788)
(0.0436444 0.999035 -0.00497343)
(-0.0560715 0.998411 0.00563782)
(-0.0426205 0.999085 0.0036426)
(0.032393 0.999471 -0.00274009)
(0.0323607 0.999476 -0.000235436)
(-0.0368166 0.999308 0.00533583)
(0.00303185 0.999419 0.0339453)
(0.00266676 0.999738 0.0227183)
(0.145586 0.982651 0.114899)
(0.165851 0.98584 0.0247751)
(0.177851 0.982157 0.0611369)
(-0.0450736 0.994273 0.0969005)
(-0.00514589 0.999541 -0.029851)
(-0.0914627 0.994625 0.0485396)
(-0.241235 0.918009 0.314747)
(-0.246196 0.967241 0.0619086)
(-0.235852 0.969842 -0.0614881)
(-0.169254 0.960998 0.218714)
(-0.161235 0.985986 -0.0428309)
(-0.0942003 0.993776 -0.059462)
(-0.109215 0.994018 -0.00107412)
(-0.116258 0.992846 -0.0272254)
(-0.213124 0.976567 0.0299141)
(-0.202122 0.974479 -0.0976633)
(-0.165538 0.985826 0.0272667)
(-0.150049 0.986236 0.0694562)
(-0.120439 0.989543 -0.0793624)
(0.0228837 0.999177 -0.0334826)
(0.144015 0.988245 -0.0513074)
(0.167199 0.892588 -0.418725)
(-0.0949101 0.974316 -0.204209)
(0.207408 0.977541 -0.0373544)
(-0.0464039 0.996333 -0.071884)
(0.0662403 0.949036 -0.308128)
(0.846821 -0.438114 -0.301578)
(0.792076 -0.596267 -0.130694)
(0.842888 -0.519975 -0.138442)
(0.71457 -0.626226 -0.311818)
(0.873298 -0.471227 -0.123676)
(0.7704 -0.567281 -0.290993)
(0.810835 -0.493786 -0.314199)
(0.849319 -0.433615 -0.301057)
(0.832529 -0.541855 -0.115274)
(0.908282 -0.40416 -0.108067)
(0.840379 -0.483087 -0.245744)
(0.881368 -0.381332 -0.278884)
(0.887096 -0.448501 -0.109124)
(0.804661 -0.528313 -0.270935)
(0.899898 -0.310554 -0.306171)
(0.919146 -0.365596 -0.14666)
(0.974728 -0.186723 -0.122638)
(0.940792 -0.166373 -0.295348)
(0.944443 -0.157285 -0.288598)
(0.930691 -0.342896 -0.127423)
(0.882247 -0.351813 -0.312839)
(-0.673086 0.731319 0.110123)
(-0.395481 0.918277 0.0190151)
(0.969294 -0.191151 -0.154695)
(-0.364366 0.931248 0.00386086)
(-0.549903 0.831791 0.0756967)
(0.955581 -0.289692 -0.0542477)
(-0.0609376 0.995774 0.0687038)
(-0.591606 0.805157 -0.041511)
(0.981836 -0.102445 -0.1597)
(-0.551045 0.833082 -0.048208)
(0.985021 -0.154258 -0.0770621)
(0.97316 -0.191311 -0.127906)
(0.898821 -0.393765 -0.192536)
(0.95492 -0.0962584 -0.280823)
(0.943698 -0.201605 -0.262276)
(0.937402 -0.092288 -0.335799)
(0.849921 -0.498315 -0.171219)
(0.990557 0.021063 -0.135473)
(0.231042 0.972708 -0.0214289)