/*--------------------------------*- C++ -*----------------------------------*\
| =========                 |                                                 |
| \\      /  F ield         | OpenFOAM: The Open Source CFD Toolbox           |
|  \\    /   O peration     | Version:  2012                                  |
|   \\  /    A nd           | Website:  www.openfoam.com                      |
|    \\/     M anipulation  |                                                 |
\*---------------------------------------------------------------------------*/
FoamFile
{
    version     2.0;
    format      ascii;
    class       volScalarField;
    location    "0.107/solid";
    object      sigmaDiff;
}
// * * * * * * * * * * * * * * * * * * * * * * * * * * * * * * * * * * * * * //

dimensions      [1 -1 -2 0 0 0 0];


internalField   nonuniform List<scalar> 
3124
(
-331.982
-27.1944
-2410.13
-240.04
-154.805
-151.784
-54.0125
-566.247
-1007.26
-1443.03
-257.559
-2560.92
-394.822
-318.448
-1530.62
-1039.25
-282.033
-199.487
-152.089
-154.495
-197.066
-199.391
-196.402
-140.621
-778.746
-626.504
-306.127
-285.082
-604.889
-868.641
-353.456
-592.217
-365.315
-407.24
-288.988
-1009.9
-342.145
-281.987
-235.86
-240.42
-234.856
-233.311
-63.6762
-341.036
-405.742
-648.195
-1339.97
-652.144
-12605.9
-819.354
-159.628
-157.938
-150.248
-150.167
-113.236
-249.664
-272.554
-706.159
-452.514
-937.847
-382.19
-339.07
-885.639
-946.844
-1033.43
-955.15
-350.275
-894.395
-751.681
-770.184
-466.831
-483.588
-290.785
-1191.98
-885.328
-436.515
-13487.4
-613.061
-434.912
-436.915
-383.094
-499.276
-429.886
-495.054
-1017.08
-453.851
-298.626
-1062.03
-922.706
-1020.68
-357.247
-984.779
-1029.34
-1208.5
-798.259
-746.165
-789.165
-1152.26
-1185.8
-361.115
-203.481
-276.103
-251.655
-273.347
-200.356
-261.39
-272.599
-153.707
-153.973
-248.853
-242.222
-249.883
-198.861
-253.666
-259.393
-199.155
-254.922
-248.963
-194.968
-247.541
-233.461
-194.681
-247.666
-477.207
-660.584
-316.032
-323.829
-299.799
-281.96
-202.77
-204.25
-201.684
-200.904
-142.954
-35.9836
-57.6407
-60.7662
-137.405
-82.859
-84.8035
-3874.95
-2615.23
-1853.1
-4239.84
-1735.35
-6440.25
-3032.93
-49.9938
-186.943
-72.8132
-155.525
-79.1703
-81.8528
-74.7029
-151.348
-75.8184
-149.932
-79.8718
-181.282
-94.2269
-80.3165
-79.6387
-141.634
-148.122
-240.803
-829.027
-514.988
-561.885
-659.088
-663.425
-1957.4
-1141.04
-889.969
-1283.7
-980.878
-701.22
-63.1748
-321.14
-201.091
-4694.17
-2631.86
-4477.9
-2241.53
-6264.83
-2167.86
-3797.34
-374.82
-347.438
-390.882
-1003.22
-1998.88
-956.472
-1378.09
-1040.4
-1674.06
-900.134
-349.185
-243.8
-308.689
-220.266
-223.556
-199.715
-260.298
-260.387
-74.7546
-153.028
-75.482
-78.1675
-154.558
-77.5978
-217.923
-215.442
-257.079
-197.723
-257.798
-260.304
-199.385
-260.121
-256.324
-195.868
-255.651
-201.675
-194.328
-255.367
-407.373
-403.601
-236.805
-202.358
-323.305
-416.303
-338.158
-479.805
-539.526
-692.489
-690.27
-706.542
-510.849
-859.7
-370.891
-697.715
-413.239
-888.002
-522.188
-758.057
-823.669
-525.397
-666.14
-608.89
-829.545
-832.07
-529.479
-479.395
-369.983
-458.505
-425.687
-628.652
-455.102
-365.168
-332.505
-346.01
-379.81
-356.982
-386.675
-390.465
-365.432
-715.769
-830.108
-1066.8
-324.057
-314.568
-300.518
-274.48
-283.088
-294.605
-286.553
-293.85
-207.984
-206.006
-222.318
-237.335
-223.909
-227.389
-238.879
-225.616
-221.247
-234.227
-220.585
-199.981
-200.269
-233.682
-219.595
-219.995
-138.508
-45.2738
-127.31
-91.4432
-243.618
-87.8792
-94.775
-190.946
-159.4
-429.886
-362.496
-578.315
-176.451
-170.013
-185.13
-900.299
-229.969
-308.284
-334.934
-627.508
-150.562
-643.81
-788.507
-620.263
-4943.72
-8748.23
-1636.65
-1377.82
-2442.29
-1402.32
-5853.01
-2721.83
-1178.16
-574.038
-827.662
-853.213
-1356.6
-1646.92
-5182.6
-8144.69
-35126
-5712.68
-9504.28
-9899.35
-4922.61
-2751.42
-1364.3
-756.46
-1417.85
-926.943
-5106.57
-1880.59
-176.155
-82.7045
-75.2693
-156.017
-82.5173
-82.6417
-151.156
-76.4238
-76.1062
-149.925
-76.8741
-79.2008
-541.353
-480.409
-726.931
-115.786
-215.577
-214.392
-486.81
-195.551
-395.773
-170.791
-119.118
-368.285
-184.334
-168.969
-171.151
-156.924
-571.099
-350.383
-290.405
-218.457
-425.317
-134.354
-233.645
-378.44
-423.385
-694.688
-638.226
-908.036
-1255.33
-1269.74
-511.09
-950.134
-645.049
-813.865
-464.174
-521.567
-485.795
-549.317
-523.175
-554.289
-744.832
-1804.02
-1109.77
-1052.49
-861.379
-468.179
-470.176
-796.524
-609.23
-570.226
-993.308
-809.474
-345.539
-741.651
-938.721
-791.207
-812.899
-1046.68
-351.087
-745.85
-859.912
-767.365
-886.719
-1036.85
-677.52
-645.811
-754.63
-732.62
-742.079
-760.835
-727.895
-728.85
-667.093
-672.359
-590.124
-748.797
-489.41
-331.856
-1016.75
-286.018
-515.03
-602.156
-603.203
-549.531
-462.695
-536.788
-804.499
-518.483
-543.542
-512.818
-280.439
-406.205
-248.349
-552.179
-414.821
-560.958
-702.074
-458.348
-1172.08
-438.13
-727.609
-751.2
-453.938
-1057.32
-407.59
-337.538
-460.961
-260.707
-5957.32
-9234.8
-28334.7
-9439.32
-9622.44
-9470.77
-6837.25
-3775.52
-1680.12
-427.091
-2038.85
-3147.93
-4535.54
-7456.97
-5136.6
-4000.59
-360.339
-436.74
-469.942
-391.545
-430.94
-473.854
-472.327
-460
-389.399
-397.545
-402.566
-378.657
-458.552
-407.3
-411.004
-447.675
-417.932
-718.889
-647.496
-557.639
-505.302
-862.283
-559.435
-636.406
-870.884
-1263.42
-609.498
-1496.63
-781.224
-812.651
-503.321
-502.593
-507.637
-596.346
-1012.67
-318.467
-718.169
-795.27
-1040.42
-712.114
-768.69
-991.357
-327.076
-737.166
-770.862
-1008.29
-715.691
-739.763
-665.852
-450.984
-630.128
-732.694
-631.347
-634.172
-724.261
-750.494
-705.031
-657.716
-628.328
-731.815
-768.704
-710.547
-644.033
-624.098
-468.59
-1149.49
-435.792
-662.245
-608.287
-432.452
-1166.98
-430.362
-367.971
-327.767
-330.173
-216.132
-258.558
-273.016
-294.85
-272.485
-291.817
-249.458
-230.999
-240.118
-256.245
-244.618
-269.732
-263.782
-253.398
-199.94
-258.253
-260.021
-269.178
-264.763
-270.71
-271.685
-269.458
-272.37
-153.334
-75.2649
-75.5262
-154.363
-75.679
-77.1507
-210.139
-212.686
-237.263
-246.647
-234.738
-229.485
-244.375
-232.041
-262.354
-250.924
-263.17
-198.313
-259.615
-258.607
-252.245
-265.616
-264.27
-268.33
-257.861
-267.594
-199.293
-259.873
-259.799
-256.282
-266.244
-266.676
-261.495
-248.126
-260.637
-195.376
-255.069
-255.233
-247.629
-260.111
-260.17
-200.193
-200.806
-234.875
-221.353
-219.783
-234.107
-220.506
-194.496
-255.031
-255.094
-248.568
-260.676
-260.148
-247.919
-260.21
-180.631
-180.44
-238.836
-219.476
-196.512
-219.86
-168.048
-138.386
-150.086
-155.181
-129.206
-150.263
-136.963
-130.109
-134.752
-125.801
-146.898
-151.974
-133.904
-147.248
-126.25
-233.459
-197.027
-258.531
-280.819
-210.42
-280.362
-218.154
-388.528
-396.582
-373.128
-406.14
-417.744
-380.571
-400.429
-135.42
-125.996
-147.255
-152.725
-134.073
-147.876
-126.761
-137.283
-149.335
-128.783
-154.904
-136.625
-150.086
-129.048
-711.454
-441.439
-360.465
-375.42
-422.601
-483.037
-639.553
-593.358
-770.863
-559.727
-713.973
-511.689
-426.561
-365.432
-699.152
-12171.1
-15677.4
-145.08
-162.731
-155.679
-134.247
-142.326
-158.356
-136.404
-140.636
-157.28
-153.323
-132.985
-140.893
-153.17
-132.601
-134.339
-150.909
-145.766
-125.405
-133.27
-146.385
-125.977
-134.374
-150.365
-145.699
-125.458
-133.261
-146.073
-126.119
-309.975
-317.272
-443.259
-567.245
-683.371
-462.145
-324.38
-383.803
-684.835
-461.734
-393.798
-716.98
-350.64
-470.632
-425.245
-464.658
-397.905
-700.591
-532.614
-491.878
-530.539
-539.795
-276.651
-290.414
-351.237
-385.231
-348.138
-383.417
-589.8
-422.48
-538.393
-388.803
-362.506
-1854.33
-1029.18
-809.448
-520.561
-451.806
-2309.28
-940.053
-422.593
-412.283
-471.801
-452.292
-435.839
-478.314
-420.672
-665.187
-304.038
-430.409
-356.029
-674.948
-433.287
-366.96
-632.208
-338.664
-461.968
-389.967
-650.454
-461.585
-390.013
-305.681
-481.837
-483.126
-487.505
-527.43
-509.6
-295.592
-285.018
-294.641
-270.138
-136.129
-153.99
-148.539
-127.21
-135.329
-149.057
-127.586
-136.852
-154.4
-149.006
-127.469
-135.559
-149.332
-128.218
-443.514
-422.763
-411.354
-476.582
-618.05
-469.166
-322.841
-337.852
-322.757
-335.375
-271.397
-271.639
-272.864
-282.13
-314.142
-329.132
-319.79
-325.593
-275.087
-291.21
-281.299
-289.194
-266.827
-258.048
-246.825
-265.379
-302.856
-302.8
-293.633
-306.679
-203.758
-206.633
-201.689
-208.324
-169.387
-169.892
-171.471
-170.375
-201.013
-206.427
-202.283
-205.472
-198.993
-205.217
-203.519
-200.452
-168.903
-168.312
-167.447
-168.349
-201.146
-204.475
-200.227
-205.494
-96.3149
-144.571
-131.467
-115.445
-101.229
-130.78
-111.745
-59.6547
-46.5581
-83.9803
-52.1281
-65.3201
-76.3658
-35.8614
-86.8311
-139.128
-112.46
-111.77
-86.9299
-117.732
-108.828
-66.6277
-87.4507
-65.839
-64.2922
-71.6873
-77.7738
-47.3346
-3387.04
-2892.62
-5077.57
-3598.16
-3556.74
-2713.98
-4612.5
-2482.61
-2213.54
-1963.98
-1586.19
-1888.69
-2620.19
-2084.24
-3971.34
-6068.61
-4553.27
-5959.19
-4359.7
-4221.42
-5538.32
-49.2005
-81.4797
-54.6541
-61.0421
-69.5128
-171.149
-203.131
-185.523
-149.725
-201.036
-159.515
-157.824
-45.5106
-63.0511
-61.5523
-47.3038
-63.2383
-138.998
-155.681
-150.764
-130.916
-151.244
-138.819
-130.739
-48.0861
-60.5855
-80.9678
-46.7282
-61.622
-48.8262
-62.3111
-82.0908
-48.3299
-62.2294
-45.9911
-57.8155
-76.1344
-44.692
-58.5141
-135.182
-151.891
-146.763
-126.05
-147.184
-134.307
-126.403
-46.6405
-76.774
-58.528
-45.8274
-58.8305
-145.845
-126.455
-134.304
-48.9885
-60.9013
-47.8903
-152.293
-179.932
-221.739
-185.466
-218.232
-162.182
-166.398
-105.446
-68.5645
-96.8622
-108.703
-81.9056
-114.097
-98.0347
-109.825
-124.328
-113.022
-118.416
-93.4804
-111.602
-116.55
-134.102
-232.28
-184.954
-134.412
-191.008
-140.155
-128.16
-874.857
-770.129
-867.555
-788.449
-701.913
-1183.13
-726.042
-879.275
-758.504
-780.419
-657.77
-950.239
-761.109
-719.374
-1338.05
-1864.47
-1759.55
-1545.25
-1738.38
-1433.05
-1385.46
-1140.78
-966.784
-1535.51
-1219.13
-1488.95
-1209.56
-934.012
-1050.66
-848.835
-1213.91
-906.643
-1126.69
-1068.26
-839.675
-105.926
-100.481
-97.1478
-73.7903
-129.603
-248.691
-298.802
-321.265
-267.994
-297.024
-274.515
-241.35
-135.924
-143.344
-207.05
-182.659
-164.709
-3930.64
-5341.97
-3592.53
-4402.67
-4019.44
-5135.16
-3433.53
-3083.2
-2489.38
-3446.84
-2529.69
-3178.67
-2384.05
-3312.84
-4155.03
-5951.59
-4635.45
-5768.06
-4367.6
-4510.62
-5407.54
-2929.73
-2797.26
-2320.79
-2123.93
-2277.16
-3006.86
-2687.06
-395.683
-395.797
-407.201
-378.036
-335.065
-263.354
-296.88
-349.246
-370.273
-340.297
-295.01
-362.764
-352.577
-393.368
-378.607
-373.762
-1476.55
-1908.06
-1559.89
-1929.49
-1514.31
-1835.21
-1537.02
-1171.32
-1019.3
-1251.37
-971.561
-1191.85
-1247.57
-971.556
-1443.53
-1354.25
-1814.62
-1637.77
-1759.85
-1510.58
-1298.35
-287.263
-316.289
-312.859
-296.826
-313.133
-257.772
-225.619
-302.74
-268.435
-193.848
-221.102
-272.142
-343.876
-345.217
-321.619
-361.211
-223.369
-224.927
-215.736
-230.543
-183.528
-188.832
-191.344
-186.457
-213.164
-227.011
-221.241
-220.75
-252.424
-258.199
-239.163
-270.181
-224.237
-161.096
-163.43
-232.362
-232.318
-163.746
-161.833
-223.286
-240.298
-269.838
-252.11
-258.923
-46.1375
-57.8624
-76.1124
-44.8665
-58.5808
-136.013
-153.158
-148.152
-127.011
-148.409
-135.393
-127.168
-46.6803
-76.5663
-58.4564
-45.7638
-58.8393
-47.0079
-60.0809
-78.8818
-46.0703
-60.3372
-137.708
-154.84
-149.747
-128.648
-149.734
-136.827
-129.075
-47.5144
-78.9378
-59.7671
-46.5578
-60.3429
-210.319
-221.846
-216.963
-216.057
-186.593
-181.971
-219.21
-218.403
-212.284
-224.224
-179.805
-184.296
-246.083
-260.244
-263.11
-242.672
-225.696
-158.805
-160.137
-227.314
-228.01
-160.36
-159.916
-226.062
-242.541
-262.057
-245.068
-259.733
-242.057
-268.356
-260.059
-250.634
-232.009
-162.411
-224.815
-161.173
-251.58
-259.349
-241.033
-269.079
-225.483
-160.921
-162.676
-231.527
-241.403
-260.483
-258.397
-243.191
-226.48
-159.052
-158.735
-225.148
-224.431
-158.01
-159.036
-225.719
-244.231
-259.083
-242.019
-261.172
-204.267
-199.687
-168.183
-259.115
-241.694
-156.437
-156.882
-224.382
-304.879
-243.677
-438.164
-397.994
-372.116
-289.445
-309.366
-315.864
-391.767
-304.207
-251.123
-373.903
-342.83
-239.446
-323.773
-362.002
-389.824
-339.868
-368.126
-338.094
-340.813
-527.871
-471.705
-538.929
-497.92
-485.883
-498.804
-584.091
-627.751
-886.264
-564.136
-562.734
-567.042
-577.987
-562.387
-535.127
-443.426
-623.122
-613.143
-586.475
-729.722
-562.844
-685.919
-627.828
-602.124
-534.101
-792.13
-743.711
-592.761
-647.806
-807.352
-624.158
-524.39
-594.137
-543.01
-645.722
-512.056
-605.56
-586.353
-473.298
-542.69
-386.851
-601.398
-454.27
-499.145
-821.253
-738.842
-1119.55
-856.292
-832.261
-762.127
-1086.16
-696.581
-349.502
-479.715
-625.249
-730.089
-428.846
-496.491
-467.37
-300.594
-419.451
-547.121
-625.266
-353.34
-399.376
-344.144
-350.02
-339.974
-361.368
-353.669
-454.727
-311.84
-293.717
-385.758
-417.244
-385.282
-370.81
-364.032
-354.419
-355.428
-366.436
-361.342
-373.131
-364.571
-368.995
-349.381
-348.083
-343.325
-351.3
-377.502
-390.069
-377.598
-388.68
-387.22
-368.254
-371.251
-380.365
-409.154
-441.132
-417.947
-425.701
-400.722
-397.399
-391.591
-424.071
-394.33
-407.863
-392.328
-413.082
-297.12
-300.924
-294.595
-301.18
-339.019
-340.904
-334.363
-347.129
-326
-319.282
-323.106
-322.408
-307.567
-313.316
-310.106
-312.441
-283.986
-279.153
-269.931
-290.34
-244.716
-235.31
-257.886
-247.18
-270.526
-275.787
-280.116
-266.798
-291.416
-287.637
-287.368
-294.675
-281.115
-278.357
-276.517
-281.31
-291.766
-291.296
-292.288
-287.812
-283.227
-283.759
-284.995
-282.942
-203.268
-210.729
-206.017
-208.034
-175.615
-173.683
-171.883
-173.662
-208.244
-209.879
-212.508
-205.251
-223.778
-219.704
-222.169
-221.125
-229.596
-236.056
-231.493
-233.808
-220.087
-220.355
-219.003
-221.508
-233.347
-234.71
-230.163
-238.033
-222.568
-224.497
-221.255
-226.1
-237.316
-237.316
-233.345
-241.442
-227.528
-223.259
-226.44
-224.177
-231.533
-240.136
-235.602
-235.896
-218.402
-218.846
-216.917
-220.495
-230.746
-233.1
-228.771
-235.214
-220.733
-218.147
-219.461
-219.193
-227.659
-234.893
-230.044
-232.305
-199.549
-202.995
-198.192
-204.14
-166.92
-166.88
-167.383
-166.845
-198.567
-203.472
-202.87
-199.212
-219.519
-216.342
-217.938
-217.899
-227.537
-233.29
-231.87
-228.675
-229.096
-231.969
-227.249
-233.901
-217.772
-217.458
-216.572
-218.636
-106.191
-146.113
-131.572
-110.863
-104.42
-137.079
-108.056
-130.764
-178.982
-227.005
-179.661
-172.645
-171.219
-136.395
-76.9087
-89.4204
-75.9533
-92.6353
-72.2761
-87.3287
-78.4705
-252.308
-264.068
-196.976
-180.281
-184.678
-263.184
-249.675
-341.205
-417.756
-474.301
-324.836
-351.904
-463.996
-304.817
-357.133
-390.104
-524.116
-547.344
-370.391
-371.255
-503.641
-244.794
-192.42
-146.601
-239.175
-174.145
-258.16
-216.13
-283.017
-205.123
-276.378
-179.716
-306.295
-191.036
-253.839
-492.993
-879.441
-630.502
-773.12
-577.562
-534.262
-712.27
-338.035
-252.239
-471.991
-312.367
-436.41
-366.172
-237.141
-425.265
-418.497
-684.376
-583.171
-462.618
-395.057
-636.684
-1212.64
-1154.43
-653.883
-617.093
-666.864
-633.395
-706.622
-757.911
-926.207
-574.212
-672.893
-581.807
-821.427
-802.862
-754.569
-846.962
-35093.2
-30391.7
-9950.99
-8123.23
-4437.58
-5993.63
-5953.31
-11357.4
-9073.24
-10883.8
-4873.51
-14708.6
-6446.07
-14484.3
-4928.3
-13167
-2060.07
-1579.28
-2621.9
-2623.92
-1170.27
-2529.27
-2477
-1562.78
-1597.38
-2410.23
-1493.24
-2487.73
-2276
-3397.79
-4572.41
-3858.82
-4955.61
-3769.63
-3591.7
-3535.57
-1530.72
-1457.04
-3077.68
-1024.51
-2547.48
-2538.07
-1461.82
-1788.89
-2160.76
-2571.56
-2045.27
-1508.83
-1688.33
-857.778
-556.777
-652.908
-764.07
-644.747
-890.275
-736.817
-1035.05
-1291.27
-745.098
-829.765
-727.316
-1070.5
-1236.17
-1200.71
-1721.57
-1281.32
-1002.9
-1624.1
-1231.8
-967.69
-9150.77
-6978.85
-7236.66
-4691.61
-6568.19
-10274
-6020.11
-18491.9
-34888.1
-33523.3
-23954.8
-27927.8
-23159.5
-18991.4
-12485.1
-8126.17
-17754.5
-6829.33
-14442.2
-14475.9
-6786.76
-11710.5
-9133.54
-8697.04
-14693.6
-8030.54
-13710
-13330.4
-1599.53
-1297.75
-1152.33
-2062.15
-1094.45
-1927.65
-1754.03
-1483.59
-1429.04
-1033.69
-903.916
-975.581
-1569.76
-1359.89
-2502.34
-4382.43
-3332.01
-4114.17
-2839.05
-2831.69
-3706.71
-148.588
-168.244
-171.976
-143.466
-153.644
-164.695
-139.531
-47.7228
-62.6839
-82.3709
-47.487
-62.874
-48.0092
-61.5957
-80.7647
-45.0877
-62.5309
-140.449
-156.672
-151.709
-131.436
-139.276
-151.946
-132.158
-48.5786
-62.6584
-83.6047
-47.408
-63.0811
-49.243
-62.6834
-83.8406
-48.5275
-63.1947
-134.941
-151.214
-146.567
-126.002
-134.235
-146.719
-126.254
-46.5978
-58.728
-77.3987
-45.5253
-59.1889
-46.994
-58.6759
-77.5359
-46.0397
-59.2517
-134.931
-150.49
-145.83
-126.313
-134.235
-146.244
-126.476
-47.2447
-58.9937
-78.7067
-45.7828
-59.965
-48.0448
-60.5039
-79.7017
-47.5078
-60.5344
-350.385
-305.593
-275.258
-274.912
-521.046
-234.299
-294.302
-294.31
-298.692
-274.226
-440.595
-395.992
-489.612
-295.465
-497.536
-317.505
-142.949
-902.591
-226.347
-649.858
-192.884
-212.568
-644.31
-104.953
-444.363
-233.271
-458.392
-171.136
-380.657
-254.216
-135.579
-164.231
-133.474
-197.655
-148.356
-149.507
-152.427
-189.497
-353.794
-274.912
-300.061
-254.768
-211.793
-282.823
-145.959
-145.792
-137.081
-204.643
-124.578
-173.021
-169.66
-158.72
-130.868
-224.606
-175.956
-165.907
-134.128
-223.807
-254.143
-657.79
-224.576
-268.559
-454.514
-225.485
-235.066
-208.42
-198.312
-268.851
-271.242
-252.127
-297.977
-179.466
-225.387
-470.634
-347.711
-364.868
-293.807
-388.553
-254.491
-213.752
-114.191
-139.016
-165.31
-284.316
-169.655
-172.348
-517.03
-1058.51
-307.211
-620.925
-502.185
-743.741
-547.478
-647.914
-459.57
-235.576
-410.861
-414.666
-377.414
-502.35
-319.903
-555.808
-510.157
-668.974
-505.127
-574.713
-678.434
-1379.24
-421.213
-1625.24
-700.316
-935.039
-605.049
-519.821
-634.316
-1835.86
-2556.81
-938.382
-811.768
-2614.29
-630.79
-499.444
-988.485
-1207.45
-670.927
-961.184
-1458.12
-414.229
-810.041
-3894.92
-986.598
-3967.61
-584.686
-711.672
-711.989
-751.82
-664.746
-607.639
-684.117
-516.135
-499.192
-536.029
-496.511
-530.381
-510.595
-477.836
-538.518
-608.828
-546.381
-553.764
-565.513
-606.933
-518.579
-1760.52
-262.595
-1229.75
-5313.03
-746.225
-1724.79
-774.12
-845.324
-1265.42
-741.68
-702.614
-515.537
-331.666
-1137.92
-924.666
-348.845
-1297.47
-510.765
-474.534
-1316.85
-1025.83
-454.4
-407.344
-1363.3
-418.873
-671.341
-702.374
-590.161
-550.779
-762.799
-621.12
-567.322
-716.718
-331.221
-457.655
-409.245
-708.348
-465.433
-414.683
-729.483
-350.059
-475.778
-446.832
-744.116
-463.348
-400.237
-554.716
-602.096
-652.75
-541.909
-550.813
-519.254
-521.039
-575.47
-656.629
-549.47
-561.151
-567.901
-646.333
-636.739
-621.955
-628.771
-510.798
-683.476
-638.736
-556.797
-541.213
-539.34
-572.845
-668.695
-597.189
-573.657
-602.808
-588.969
-577.797
-667.07
-574.255
-598.397
-550.767
-641.769
-502.23
-562.123
-627.44
-550.782
-486.134
-513.641
-480.621
-634.069
-415.039
-608.109
-394.8
-537.264
-631.343
-781.318
-967.881
-796.728
-759.129
-777.644
-652.096
-437.722
-404.734
-340.661
-273.297
-333.416
-455.017
-379.281
-566.047
-565.49
-674.521
-590.513
-624.094
-616.456
-544.503
-557.294
-524.89
-552.022
-594.255
-529.533
-578.948
-567.519
-528.573
-534.233
-549.52
-529.212
-518.815
-566.103
-525.099
-618.096
-712.376
-754.166
-686.695
-705.166
-636.163
-645.039
-432.907
-461.997
-523.935
-512.662
-455.049
-453.846
-484.711
-370.595
-302.692
-295.304
-514.023
-272.948
-425.934
-396.716
-341.386
-365.674
-249.031
-254.872
-252.831
-367.339
-350.859
-453.852
-512.292
-547.739
-508.732
-494.559
-467.391
-481.88
-337.499
-316.691
-259.641
-313.726
-232.649
-568.34
-238.428
-313.502
-225.415
-289.997
-235.817
-352.151
-617.399
-331.59
-307.51
-226.04
-524.213
-190.74
-199.217
-495.62
-773.676
-1091.02
-770.362
-1082.58
-515.825
-173.699
-192.006
-491.755
-778.266
-1031.35
-748.958
-1067.54
-385.754
-384.695
-358.992
-358.82
-706.065
-245.813
-338.532
-259.619
-322.947
-365.295
-259.732
-344.134
-715.404
-336.693
-365.47
-259.944
-443.358
-179.736
-203.775
-491.834
-622.461
-804.991
-567.117
-884.78
-460.554
-220.958
-417.113
-222.803
-684.412
-996.28
-720.3
-939.217
-350.43
-358.951
-334.216
-295.805
-288.871
-383.056
-337.5
-301.368
-415.017
-354.244
-557.208
-329.578
-305.773
-250.427
-329.575
-218.186
-306.634
-9782.22
-6836.14
-7681.78
-5577.93
-6594.67
-10076.8
-7410.6
-12269
-30861
-23290.9
-13770.2
-18761.3
-17389.7
-13362.3
-3486.36
-3181.43
-3079.88
-3739.94
-3041.48
-2814.28
-3788.44
-2260.13
-1441.23
-1905.68
-1997.17
-2259.94
-2368.34
-1578.89
-2825.05
-451.683
-2015.58
-266.609
-1184.67
-2877.71
-2571.33
-2060.88
-2254.41
-2498.66
-2592.03
-2834.43
-3231.31
-3555.39
-2462.46
-2917.86
-2833.02
-3877.04
-2096.38
-3934.24
-5076.97
-3532.89
-4438.57
-3602.48
-5157.25
-3746.91
-4068.47
-5848.99
-4933.3
-6559.57
-3594.04
-5569.46
-5101.8
-3419.01
-5419.37
-3703.56
-4903.58
-3669.77
-3407.75
-5450.83
-4236.44
-4296.38
-5213.86
-3730.4
-5188.99
-3891.9
-4423.9
-627.099
-429.342
-360.455
-394.069
-366.41
-454.267
-608.389
-675.362
-896.138
-341.261
-572.848
-559.459
-392.379
-1005.67
-326.261
-391.207
-639.705
-522.583
-436.131
-407.813
-404.781
-414.33
-528.706
-436.008
-388.668
-490.501
-488.893
-457.839
-410.797
-510.684
-507.033
-352.163
-487.129
-435.963
-466.003
-489.673
-448.996
-452.542
-524.784
-409.745
-405.148
-415.603
-403.248
-381.264
-385.046
-377.254
-393.728
-406.563
-397.84
-399.709
-403.016
-381.463
-403.597
-383.959
-397.267
-418.376
-433.284
-424.119
-431.035
-451.134
-813.612
-331.054
-634.714
-412.791
-320.191
-401.481
-415.566
-483.308
-542.701
-490.921
-508.017
-434.386
-439.333
-432.881
-435.436
-447.933
-449.199
-437.112
-463.368
-428.548
-418.517
-421.261
-427.72
-466.206
-490.841
-471.642
-487.592
-684.759
-856.108
-795.674
-742.653
-807.777
-681.346
-729.752
-1280.78
-1057.9
-945.328
-864.171
-1063.65
-1296.63
-924.34
-1202.43
-842.132
-2590.57
-1007.95
-1629.05
-1223.21
-1544.68
-1682.37
-1242.77
-2231.56
-1363.33
-1192.92
-653.276
-693.998
-857.243
-645.098
-660.536
-834.235
-778.979
-617.498
-635.22
-793.221
-555.253
-499.594
-473.969
-509.01
-591.923
-584.225
-495.95
-512.881
-529.566
-551.717
-575.89
-622.446
-578.14
-544.675
-775.73
-640.636
-309.887
-443.332
-379.931
-641.643
-434.989
-363.314
-620.638
-331.362
-444.819
-371.794
-611.749
-451.303
-381.659
-306.976
-213.074
-291.673
-775.556
-1143.15
-773.671
-1150.31
-167.955
-171.904
-492.494
-555.639
-568.927
-660.064
-496.096
-488.869
-554.241
-629.96
-568.897
-554.181
-571.722
-570.716
-555.685
-629.875
-553.49
-570.765
-650.294
-651.759
-655.616
-661.849
-497.724
-505.065
-560.32
-596.102
-646.13
-558.965
-584.239
-577.848
-548.698
-641.687
-556.074
-573.858
-659.227
-663.912
-665.759
-656.706
-286.681
-288.415
-276.283
-296.739
-594.066
-204.805
-301.285
-281.152
-198.828
-280.304
-201.168
-299.89
-581.088
-291.791
-277.528
-200.798
-472.191
-158.689
-149.711
-482.994
-743.994
-1088.9
-738.789
-1098.64
-474.401
-165.506
-490.106
-147.8
-748.288
-1114.46
-760.678
-1104.8
-271.121
-261.299
-246.283
-334.295
-211.3
-573.408
-254.202
-303.211
-181.217
-248.276
-193.217
-297.085
-558.278
-296.151
-259.191
-183.924
-484.604
-159.933
-155.201
-481.544
-766.515
-1136.78
-764.543
-1129.99
-482.951
-161
-487.506
-152.974
-762.176
-1118.98
-765.723
-1124.85
-324.435
-325.85
-323.872
-324.852
-366.914
-349.873
-358.442
-354.685
-324.33
-320.286
-320.265
-323.213
-369.09
-357.225
-374.446
-354.767
-263.368
-278.985
-252.964
-281.004
-222.677
-166.149
-174.844
-233.085
-243.449
-191.407
-237.205
-175.091
-236.826
-268.936
-258.442
-252.348
-286.092
-288.162
-292.004
-286.814
-269.357
-275.969
-274.597
-272.694
-285.456
-294.729
-288.593
-292.704
-267.621
-275.063
-265.807
-271.919
-226.062
-236.754
-228.217
-235.149
-208.173
-219.641
-242.505
-258.061
-248.539
-251.562
-196.787
-195.725
-246.718
-237.917
-244.005
-241.062
-243.072
-253.893
-246.109
-250.356
-254.55
-250.839
-247.534
-258.18
-235.692
-240.262
-233.487
-241.937
-251.537
-251.299
-248.35
-254.792
-271.753
-266.571
-267.982
-273.197
-268.109
-267.891
-268.723
-265.673
-255.736
-265.349
-261.815
-258.288
-238.466
-270.634
-252.832
-257.037
-231.909
-167.276
-163.157
-220.401
-222.144
-162.001
-232.453
-165.187
-252.308
-254.487
-235.709
-269.248
-268.612
-263.72
-275.735
-257.719
-252.956
-260.237
-251.269
-262.393
-265.292
-254.476
-263.52
-255.707
-256.48
-274.739
-263.531
-266.73
-258.851
-277.322
-263.95
-271.111
-272.893
-263.579
-261.192
-272.813
-271.6
-261.834
-259.004
-276.968
-259.458
-268.578
-258.778
-269.93
-136.532
-153.852
-148.506
-127.189
-135.543
-148.856
-127.65
-46.0955
-58.2904
-76.3744
-44.9172
-58.8091
-46.673
-58.5066
-76.7114
-45.7461
-58.9698
-137.304
-154.69
-149.328
-128.455
-136.715
-149.889
-128.602
-46.5871
-58.5184
-77.2145
-45.2657
-59.3547
-47.169
-59.536
-77.9121
-46.4221
-59.7315
-213.899
-213.461
-207.818
-218.477
-175.353
-178.032
-206.377
-214.973
-210.864
-211.366
-181.151
-177.271
-230.041
-235.078
-228.647
-236.432
-247.666
-243.147
-240.133
-251.218
-238.883
-231.045
-237.621
-232.429
-237.834
-249.048
-245.09
-241.306
-233.213
-226.174
-231.911
-227.651
-234.605
-243.296
-239.252
-238.404
-225.693
-228.76
-229.739
-224.542
-242.104
-239.699
-235.873
-246.144
-256.665
-263.171
-266.55
-252.972
-246.196
-244.613
-241.964
-248.973
-250.471
-242.514
-246.265
-246.626
-252.538
-265.532
-262.834
-255.309
-243.396
-264.448
-247.064
-260.735
-229.953
-161.232
-160.63
-226.975
-226.392
-159.957
-229.019
-161.356
-248.529
-261.809
-265.709
-244.183
-254.006
-268.028
-257.983
-263.872
-253.367
-245.104
-249.481
-248.876
-247.838
-248.001
-243.771
-251.985
-259.342
-265.293
-269.602
-254.932
-255.238
-272.765
-263.857
-263.801
-260.64
-249.071
-251.149
-257.974
-265.254
-263.543
-273.875
-255.595
-250.328
-255.886
-247.603
-258.869
-249.469
-260.439
-242.369
-266.833
-226.793
-160.504
-162.129
-230.543
-230.804
-162.007
-226.146
-161.243
-243.694
-265.88
-249.112
-261.911
-262.03
-263.985
-254.955
-270.767
-249.301
-251.236
-245.822
-254.864
-256.671
-246.451
-253.467
-249.654
-255.155
-270.579
-260.708
-264.688
-251.34
-263.733
-261.353
-253.495
-247.936
-241.495
-243.638
-245.86
-244.919
-242.956
-240.508
-247.22
-254.241
-262.298
-264.622
-252.234
-242.622
-258.226
-240.909
-259.627
-224.225
-157.114
-157.938
-224.745
-224.959
-158.089
-224.248
-158.023
-241.24
-259.292
-258.251
-242.215
-253.03
-261.126
-250.764
-262.908
-244.514
-241.977
-240.166
-246.472
-246.712
-239.959
-242.305
-244.347
-250.931
-262.803
-261.368
-252.774
-199.128
-205.369
-200.455
-203.5
-167.262
-167.146
-199.493
-203.181
-199.185
-203.933
-167.424
-168.211
-217.609
-219.119
-233.157
-228.399
-218.408
-219.122
-216.983
-220.715
-229.261
-232.033
-227.663
-233.698
-219.223
-216.943
-217.965
-217.967
-227.735
-234.865
-230.224
-232.445
-241.448
-259.234
-241.62
-258.449
-224.477
-157.053
-157.28
-224.228
-224.098
-156.708
-224.248
-157.263
-242.051
-258.245
-241.313
-259.235
-262.31
-252.022
-241.211
-245.59
-251.602
-262.714
-261.594
-252.715
-246.384
-240.502
-244.951
-242.114
-252.55
-261.55
-251.339
-262.776
-245.212
-242.737
-240.732
-246.724
-589.936
-580.709
-768.906
-583.199
-805.184
-816.673
-957.111
-793.92
-887.572
-843.285
-907.278
-897.51
-915.666
-1096.96
-1136.25
-470.669
-575.559
-544.785
-535.253
-359.581
-15070.6
-11077.9
-19131.7
-11777.9
-21846.9
-16302.3
-10153.2
-1068.38
-994.703
-966.473
-910.671
-973.561
-935.912
-1071.25
-1025.2
-968.595
-911.359
-974.19
-979.155
-944.226
-953.933
-12363.1
-11577.1
-15940.8
-12417.2
-16845
-10971
-11236.5
-1066.32
-1006.62
-887.834
-921.109
-1069.58
-874.015
-1018.79
-1088.49
-906.559
-1075.29
-949.138
-1112.71
-886.412
-1043.35
-527.802
-618.994
-680.798
-694.795
-560.494
-607.693
-387.643
-1056.94
-865.946
-768.63
-629.937
-864.141
-737.31
-553.241
-1146.92
-1267.97
-860.792
-1173.56
-967.365
-742.554
-1269.08
-733.948
-851.71
-738.686
-707.507
-870.56
-714.043
-726.023
-727.2
-705.291
-880.175
-739.612
-872.383
-722.569
-710.844
-676.845
-888.064
-686.369
-720.758
-704.927
-854.559
-658.13
-702.079
-686.469
-724.016
-865.774
-868.506
-678.875
-691.155
-10482
-11233.6
-6583.92
-8726.39
-8827.58
-8174.23
-10719.1
-10586.2
-9701.06
-11505.7
-8808.91
-13985.7
-12134.7
-8248.52
-882.423
-727.949
-747.845
-718.428
-840.217
-705.596
-711.127
-726.315
-820.616
-700.232
-719.916
-703.312
-704.544
-822.292
-816.526
-698.326
-722.224
-741.475
-875.688
-723.798
-725.16
-863.112
-745.042
-721.28
-735.079
-707.765
-718.148
-834.203
-851.037
-715.627
-728.769
)
;

boundaryField
{
    left
    {
        type            calculated;
        value           nonuniform List<scalar> 
598
(
-335.285
-2664.51
-28.8998
-186.462
-248.97
-182.239
-260.983
-2723.83
-393.821
-1676.55
-313.69
-55.2471
-1604.33
-555.752
-182.568
-185.999
-199.137
-196.218
-284.274
-199.314
-195.581
-1238.34
-809.88
-145.214
-401.285
-369.418
-308.337
-384.177
-245.157
-240.594
-349.109
-288.27
-239.584
-237.983
-1860.68
-886.951
-729.492
-935.446
-17350.7
-66.9421
-475.2
-363.567
-189.024
-190.253
-182.024
-181.913
-416.247
-20299.8
-618.184
-434.766
-406.401
-640.036
-446.336
-501.392
-389.294
-429.896
-481.76
-253.116
-303.191
-152.26
-508.475
-319.553
-504.035
-388.942
-456.071
-184.172
-184.522
-253.656
-246.988
-198.545
-261.415
-265.924
-256.332
-260.153
-198.171
-203.54
-284.648
-369.989
-267.984
-279.819
-200.409
-278.933
-256.547
-194.23
-253.904
-255.401
-254.019
-194.031
-238.133
-893.725
-322.485
-316.119
-207.704
-206.231
-302.395
-284.701
-205.187
-204.421
-2102.06
-3379.67
-4675.48
-38.6162
-79.7886
-57.1887
-188.045
-164.625
-159.366
-61.8455
-151.12
-211.205
-183.275
-160.475
-150.858
-153.091
-182.335
-313.522
-272.268
-33.2727
-4667.8
-3851.91
-2400.99
-1463.64
-926.833
-1017.91
-383.713
-399.138
-344.501
-78.4625
-176.785
-109.958
-943.581
-785.388
-1245.12
-652.791
-504.764
-183.661
-152.576
-150.998
-157.325
-156.527