/*--------------------------------*- C++ -*----------------------------------*\
| =========                 |                                                 |
| \\      /  F ield         | OpenFOAM: The Open Source CFD Toolbox           |
|  \\    /   O peration     | Version:  2012                                  |
|   \\  /    A nd           | Website:  www.openfoam.com                      |
|    \\/     M anipulation  |                                                 |
\*---------------------------------------------------------------------------*/
FoamFile
{
    version     2.0;
    format      ascii;
    class       volSymmTensorField;
    location    "0.107/solid";
    object      sigma;
}
// * * * * * * * * * * * * * * * * * * * * * * * * * * * * * * * * * * * * * //

dimensions      [1 -1 -2 0 0 0 0];


internalField   nonuniform List<symmTensor> 
3124
(
(138.083 39.9707 60.0264 300.889 141.01 274.322)
(4.32507 3.33007 -1.90015 -20.0935 -4.78445 -5.6066)
(-801.612 211.426 1083.2 89.9174 -185.516 136.989)
(197.986 3.49241 -9.12962 184.274 -14.3794 421.61)
(126.482 -1.13497 18.4376 119.804 -0.878279 272.073)
(123.806 0.698936 17.7479 117.203 -0.059392 266.708)
(4.98336 14.1183 9.36631 -23.3561 -10.7678 -28.5949)
(257.394 1.31999 23.4881 151.914 91.2349 686.602)
(402.586 160.58 9.6185 1355.19 40.1844 485.536)
(-345.541 102.548 609.493 159.613 -65.3607 394.256)
(217.048 4.15478 -18.9193 200.522 -14.4491 454.341)
(-805.231 -37.4707 1124.17 216.101 56.9159 414.061)
(295.145 0.0270427 20.5726 301.865 33.5973 684.332)
(272.091 7.61745 -46.7247 234.979 -1.81903 543.883)
(-341.545 -17.4133 633.048 221.59 26.8855 516.325)
(411.351 172.697 1.47278 1391.23 15.5258 511.29)
(241.95 3.69419 -36.6376 217.235 -5.90204 493.351)
(167.878 -0.563415 -18.4636 157.079 -0.398359 354.718)
(124.119 -0.942499 17.7472 117.484 -0.623168 267.238)
(126.286 0.551726 18.3286 119.569 -0.246236 271.715)
(164.725 -0.147399 -18.5373 154.206 -0.271651 349.425)
(167.544 -0.508219 -18.4974 156.684 -0.112848 354.23)
(164.106 -0.140594 -18.4431 153.661 -0.0965472 348.232)
(15.3094 6.2415 18.2438 113.236 43.9938 97.1826)
(-185.092 -64.1566 152.027 -88.0072 75.6402 483.792)
(75.0611 -164.254 -100.64 335.785 228.723 319.887)
(373.772 20.9397 48.976 570.865 64.3368 322.23)
(132.52 66.8899 83.662 234.356 93.3985 202.466)
(248.367 93.6131 47.166 763.082 149.454 302.337)
(603.87 -127.637 73.8638 1089.39 220.506 409.702)
(104.886 16.5138 107.72 135.012 130.092 238.933)
(162.303 192.209 91.4833 534.684 109.293 228.666)
(279.489 -0.887674 5.5761 260.87 0.97132 626.047)
(255.727 -15.4651 21.3594 235.674 36.7245 625.55)
(288.64 62.4706 11.532 456.1 -5.30568 189.851)
(621.246 -34.8651 5.49221 1627.49 8.66065 647.521)
(266.541 0.804406 4.53591 252.193 -4.74091 594.092)
(224.618 0.117755 9.18259 218.358 -3.69685 499.932)
(187.192 -0.0421726 1.97935 181.558 -0.416131 417.399)
(190.699 -0.128207 2.40071 184.955 -0.585403 425.346)
(186.369 0.00410127 1.91092 180.746 -0.292523 415.584)
(185.111 0.0307731 1.84736 179.567 -0.0755622 412.863)
(19.7324 -7.46679 1.63046 53.239 20.7452 65.0463)
(14.1289 66.637 78.7449 -88.1762 -117.157 68.4087)
(151.904 -165.955 -106.407 85.6693 28.7615 161.381)
(-194.786 -14.0131 149.411 -72.7764 58.3695 368.36)
(358.658 -394.105 -290.111 835.788 491.914 695.821)
(-65.6338 148.544 199.823 -148.499 -206.42 42.7616)
(-2776.88 1371.6 3529.35 -190.868 -781.458 6970.69)
(459.936 -300.214 -202.192 72.4696 -21.6289 231.835)
(132.507 -1.48065 16.2355 127.252 -4.46159 284.645)
(130.133 0.350748 17.0788 124.627 -2.98311 280.416)
(122.271 -0.768467 18.4009 115.844 -0.554128 263.616)
(122.035 0.8701 18.5544 115.64 0.00848301 263.231)
(67.6069 35.9157 40.4208 82.6667 20.0303 77.2384)
(2.43991 57.4139 74.184 -46.3492 -70.3345 55.215)
(79.9921 15.7192 114.535 86.6775 61.5115 171.662)
(51.8513 318.164 51.964 276.292 102.595 104.453)
(197.205 7.14383 81.3207 233.864 26.353 617.397)
(664.373 -74.9967 17.5762 768.128 369.74 216.979)
(79.4773 31.6701 58.376 81.5706 163.911 245.397)
(487.186 -9.60855 48.0853 660.27 46.1083 349.7)
(376.194 133.228 33.6691 1204.69 82.2407 426.913)
(674.295 -90.3574 9.18962 1549.48 -6.17618 613.337)
(97.5783 372.471 12.0361 809.359 44.9712 255.687)
(693.223 -113.915 60.9728 1377.81 127.31 499.96)
(400.683 37.3984 -12.1711 600.764 27.793 263.033)
(108.377 310.641 63.08 729.694 65.711 218.698)
(1120.19 -87.0094 7.82363 1503.18 -10.8961 770.826)
(1103.44 -116.925 77.3045 1429.63 26.9788 715.203)
(-46.1061 105.194 156.823 -53.2849 -119.343 92.5549)
(133.159 7.74944 124.353 212.371 22.3261 546.113)
(76.4618 33.5273 89.7298 91.0793 80.4595 263.321)
(-40.9297 563.156 0.343753 330.331 60.7705 74.0595)
(5.05465 408.375 31.4862 302.691 85.0634 71.7232)
(312.717 -36.8662 -35.2397 202.284 77.2659 597.057)
(-4890.2 434.821 2878.71 1512.59 -2281.41 6351.92)
(256.437 -111.317 91.8155 127.772 137.544 579.723)
(203.16 0.607616 74.3989 255.636 35.4711 607.75)
(258.579 -17.4041 37.6912 272.921 27.7081 673.714)
(294.102 -0.528396 -3.59064 271.536 1.87746 654.564)
(272.758 -56.5264 -24.5895 96.3132 93.2407 541.288)
(258.947 -24.5229 21.6884 234.322 43.4704 637.991)
(152.725 -2.29795 120.923 241.384 34.1429 580.307)
(294.697 -219.953 97.5692 297.255 64.7805 1065.86)
(231.048 -34.2557 52.5529 256.821 39.6303 641.686)
(334.983 51.7475 11.8388 500.421 -5.61349 218.293)
(404.162 185.806 6.50562 1398.79 3.62701 522.045)
(665.253 -79.7464 7.27536 1540.85 -8.74966 626.815)
(152.501 360.66 -4.63884 872.836 24.5393 270.731)
(508.626 9.29779 -2.86592 692.073 16.6284 336.896)
(632.473 -40.582 11.5552 1605.51 22.0829 643.093)
(156.499 374.125 12.1796 862.648 -1.52118 285.436)
(-16.6024 569.503 2.03445 387.276 -1.46584 105.978)
(1143.41 -56.8751 2.81061 1601.43 6.87784 810.272)
(1105.34 -81.3733 5.21903 1486.86 -9.95978 757.667)
(1135.39 -59.6361 7.42896 1575.34 16.0924 794.95)
(3.67688 537.93 0.0661874 408.015 41.7256 103.326)
(1.79177 556.549 1.76418 410.27 8.7104 115.511)
(280.387 1.43208 -4.14893 263.701 -4.87856 624.521)
(174.701 -0.726954 -20.5088 164.626 -2.24274 365.77)
(224.63 0.355513 1.5459 218.812 -3.58541 494.789)
(199.708 -0.337905 3.90835 194.853 -1.49073 446.408)
(216.515 -1.26028 7.52578 211.284 -3.64482 484.068)
(170.983 -0.573654 -19.2597 160.673 -1.05853 359.012)
(208.231 -0.570959 -1.82755 202.448 -1.1696 463.757)
(219.344 -0.886137 0.926906 213.294 -2.05455 485.734)
(125.597 0.65798 17.7966 118.762 -0.0488425 270.22)
(125.775 -0.989898 17.8558 118.946 -0.591483 270.572)
(197.356 -0.248571 3.54174 192.079 -1.04492 440.861)
(192.117 -0.189876 2.62262 186.425 -0.684814 428.609)
(198.314 -0.0723172 -3.76515 192.237 -0.328284 442.06)
(166.452 -0.282107 -18.6544 155.631 -0.0884105 352.633)
(201.365 -0.187174 -3.42801 195.078 -0.485246 448.689)
(206.384 -0.429152 -2.25698 200.359 -0.782159 459.695)
(166.801 -0.275965 -18.6518 155.974 -0.196199 353.272)
(202.444 -0.286172 -3.20269 196.179 -0.473388 451.044)
(197.539 -0.013486 -3.80384 191.499 -0.312449 440.401)
(162.676 0.0549753 -18.1143 152.459 -0.203371 345.65)
(196.297 0.0253671 -3.81491 190.373 -0.0338261 437.854)
(185.142 0.0706163 1.87553 179.56 0.0641118 413.004)
(162.33 0.0620442 -17.9733 152.181 -0.0305029 345.111)
(196.288 0.070328 -3.7792 190.348 -0.00534662 437.954)
(-119.737 -85.9752 3.37828 122.954 -0.149095 330.05)
(4.63135 -62.9705 77.2013 107.312 217.939 468.205)
(235.771 -0.426106 15.0364 226.802 1.60644 542.051)
(237.492 -2.30226 16.4387 225.445 6.58797 547.558)
(227.14 0.788106 14.9029 220.803 -3.62351 519.596)
(216.213 1.20651 15.1933 212.1 -1.72474 492.757)
(153.2 0.0333044 6.90215 152.651 -0.401558 355.177)
(154.346 0.00538808 6.99109 153.778 -0.560491 357.783)
(152.347 0.0113208 6.81025 151.797 -0.351351 353.248)
(151.739 0.0378561 6.70802 151.194 -0.20833 351.866)
(72.0948 -19.2891 -0.40252 -37.0634 -7.73901 101.72)
(12.6788 -3.99509 -5.70753 -4.68948 3.85671 27.5711)
(20.4311 8.10826 2.62373 -24.826 -17.9041 18.5549)
(-4.1302 20.1944 -4.69136 -45.7782 -7.74826 -24.8963)
(45.1419 25.6272 -11.0469 -77.4985 7.17959 29.604)
(36.4631 -2.65722 -6.38288 -7.39778 -17.539 66.2805)
(21.5707 -4.58544 -7.98543 -12.6509 21.8316 57.7848)
(-1792.52 1873.19 421.538 -1327.51 -230.496 3.85514)
(-1753.76 496.522 523.728 187.659 -74.641 512.2)
(-565.297 341.293 766.822 -104.239 -323.189 61.5117)
(-1575.69 511.617 1919.98 100.218 -380.944 -112.115)
(-823.81 663.21 128.264 -63.8887 -74.1225 501.676)
(-5305.48 1177.07 786.388 511.065 -14.8053 434.513)
(-983.844 700.58 1242.98 -488.274 -650.787 -386.109)
(22.5109 4.77087 -4.96071 27.0454 -1.47036 68.6274)
(159.48 -2.22349 8.96994 152.433 -12.247 336.953)
(-37.9082 1.20547 23.836 -6.09546 -2.07949 16.921)
(127.007 0.486551 18.7027 120.736 -0.903032 273.819)
(-49.5693 -0.326063 32.1986 -15.8856 -0.236802 -3.52459)
(-52.1555 -0.13456 33.3813 -16.9809 -0.447746 -4.8116)
(-46.0505 0.104571 30.5157 -14.7104 -0.102912 -2.97353)
(123.145 -0.799211 18.0015 116.762 -0.613569 265.745)
(-47.6272 -0.0648112 31.2156 -15.6627 -0.0864462 -4.60739)
(121.234 0.882581 19.3974 115.09 0.0339973 262.197)
(-52.3038 0.214379 33.438 -18.2797 -0.0404404 -8.6352)
(-41.067 61.0601 50.8883 -118.027 -13.7816 -109.589)
(25.7014 29.6808 33.9801 1.65877 -2.78755 1.0777)
(13.9476 11.6641 20.7805 -32.8029 -16.0202 -36.3731)
(-7.25666 30.4028 -2.59732 -45.9535 -14.682 -44.7657)
(36.119 32.2431 -12.9604 -86.689 6.0808 -24.7484)
(38.3849 17.7992 64.8872 -8.9685 -11.9349 -15.1314)
(90.0294 104.335 52.5867 44.4656 19.6623 -16.7287)
(451.681 150.116 -26.7542 253.231 41.5299 995.633)
(253.266 14.5119 31.8938 204.598 73.5386 693.855)
(288.95 -4.57462 22.4303 231.151 -11.6175 791.253)
(245.349 31.0823 58.2159 138.509 193.078 660.927)
(-311.52 176.427 76.9952 28.8615 3.98301 255.332)
(-1160.03 220.46 197.708 281.905 17.3741 720.921)
(-294.853 183.149 463.879 35.4114 -138.673 223.176)
(-100.696 47.1737 336.341 181.157 -2.2602 474.264)
(-663.734 465.073 62.8377 -27.4898 -28.2888 367.112)
(-349.165 78.0025 53.931 245.507 43.8801 609.951)
(-91.222 83.7262 278.004 103.144 -41.2281 295.482)
(50.9541 6.61246 -19.6418 42.4509 -1.1339 92.0088)
(261.638 12.1687 -59.3237 224.1 -2.07537 528.028)
(221.976 13.0725 -96.1413 131.842 0.857576 226.415)
(-2819.21 -1085.81 339.269 557.214 207.845 1475.89)
(-1863.36 97.7715 260.178 349.883 28.0377 708.739)
(-1465.53 -44.2339 1973.92 410.636 88.2774 638.76)
(-559.175 -206.53 910.1 117.183 212.111 619.899)
(-5167.57 268.586 436.735 856.164 206.869 751.431)
(-1310.13 -446.905 202.249 173.97 135.443 669.263)
(-1038.41 -370.981 1554.65 191.444 346.544 924.018)
(289.466 4.30164 -21.7626 263.353 1.4342 636.051)
(294.543 9.09919 -54.247 236.836 6.74959 571.804)
(300.431 1.21468 -24.2038 258.1 11.7273 646.506)
(-323.503 -91.0917 162.038 209.502 10.1566 610.455)
(-1192.25 84.6068 219.113 367.976 -5.06823 753.334)
(-77.3449 -6.86403 347.292 221.436 24.6424 578.245)
(-221.046 -102.562 541.941 203.222 102.234 581.547)
(-335.217 25.9094 64.397 285.193 1.57907 696.091)
(-923.179 -299.139 157.943 146.292 74.2099 634.951)
(-14.3245 -51.1027 326.619 229.121 64.5769 581.058)
(268.044 3.93821 -16.3729 253.347 -6.19733 600.609)
(209.867 0.729788 -28.2812 193.307 -6.48557 433.232)
(238.996 2.28547 -11.2647 233.328 -9.39314 540.407)
(167.258 0.158712 8.28241 167.124 -1.23386 386.756)
(170.389 0.0658268 8.24605 170.743 -1.95793 393.29)
(168.524 -0.651408 -18.5109 157.856 -0.434612 355.704)
(195.092 -0.569775 -7.4222 195.291 -0.364358 454.556)
(196.002 -0.654368 -7.16461 196.067 -0.62383 455.439)
(-46.0837 -0.15609 30.5368 -14.7244 -0.0757794 -2.97758)
(124.709 0.65591 17.832 118.163 -0.0723645 268.921)
(-46.8518 0.0744029 30.9267 -15.1314 -0.114199 -3.58958)
(-48.4427 -0.0821322 31.757 -15.3642 -0.229051 -2.88158)
(126.075 -0.959773 18.1904 119.421 -0.661267 271.566)
(-48.4112 -0.189728 31.6748 -15.584 -0.162547 -3.60144)
(165.037 0.0812949 8.23031 164.587 -1.06189 382.119)
(162.908 0.0504545 8.02153 162.327 -0.93628 377.438)
(190.704 -0.100587 -8.31309 191.347 -0.230758 447.232)
(165.288 -0.22549 -18.6262 154.769 -0.120407 350.632)
(191.346 -0.151504 -8.29854 191.966 -0.3007 448.58)
(194.55 -0.488549 -7.64711 194.8 -0.244606 454.092)
(167.266 -0.373627 -18.587 156.467 -0.206286 354.003)
(194.051 -0.404684 -7.83052 194.343 -0.199044 453.476)
(190.041 -0.072878 -8.28294 190.74 -0.295884 445.821)
(163.553 -0.0345445 -18.3821 153.269 -0.211285 347.316)
(189.434 -0.0267484 -8.22141 190.224 -0.18419 444.554)
(152.104 0.0874572 6.82822 151.384 0.0556834 352.813)
(161.725 0.0959342 -17.7019 151.817 -0.0549821 344.446)
(188.365 0.0985165 -7.78107 189.399 -0.0955252 443.25)
(-166.139 -90.5953 -21.0221 118.784 50.3527 172.438)
(-134.809 -102.998 -0.619666 26.6693 118.013 116.734)
(-0.00905772 -36.5695 21.6366 122.766 73.842 156.958)
(-33.3292 12.1039 10.8378 149.985 32.6073 101.778)
(-73.7719 -87.4052 2.78264 189.587 22.7234 158.762)
(-29.4438 -57.8835 43.0086 108.483 133.016 262.61)
(-132.822 -102.652 -40.7696 74.4383 53.3855 67.5643)
(-170.41 -74.2103 3.21804 155.941 4.58424 293.123)
(-222.911 -49.4588 16.4701 -84.4282 0.294057 299.781)
(21.4516 9.51788 126.974 207.863 248.275 500.168)
(-94.8912 9.86596 27.1071 516.528 72.9861 523.541)
(37.8629 -55.1202 128.574 127.27 230.611 496.319)
(-197.5 -80.7774 -0.894074 235.65 39.9314 266.5)
(12.479 -339.372 -60.4005 494.739 80.6909 323.025)
(20.346 -81.7514 -9.86055 185.828 128.403 229.448)
(17.823 -21.4806 21.1024 379.083 299.601 431.656)
(-63.8295 -140.973 -3.42333 229.28 24.9915 199.17)
(-40.444 -34.8166 8.44823 809.112 98.8424 571.626)
(-4.57939 -39.5596 64.3056 211.056 186.598 343.498)
(195.465 41.9022 126.643 704.463 258.939 312.713)
(528.673 -45.3954 120.432 1121.85 146.117 439.883)
(208.045 8.34113 -25.922 409.262 229.208 160.566)
(61.4493 175.337 98.4191 535.968 144.804 169.738)
(199.734 86.2658 156.676 544.589 180.379 286.136)
(274.05 -19.4886 82.5428 640.654 345.792 231.721)
(147.324 76.5799 114.498 821.044 196.495 233.481)
(179.313 26.6933 109.83 440.364 212.272 361.762)
(55.9092 57.3323 -51.9177 131.966 223.488 77.4085)
(131.076 28.6803 136.049 162.551 113.13 266.892)
(151.147 7.2391 107.543 181.629 183.612 349.042)
(227.728 43.0999 142.472 352.947 143.231 303.286)
(188.756 -3.39238 67.422 282.195 303.371 355.8)
(158.499 17.3046 124.204 223.465 168.056 382.801)
(237.358 -9.5177 22.1455 211.44 36.9815 563.362)
(239.571 -4.75593 19.3323 226.301 12.4966 554.65)
(261.144 -0.692199 14.3482 247.562 0.9961 592.906)
(283.133 -3.68373 7.43714 261.454 7.94156 640.121)
(263.701 -2.95242 15.4247 247.885 7.18463 603.216)
(248.043 -9.45775 22.9402 227.786 34.0678 602.07)
(278.852 -8.70274 11.7883 257.371 16.9034 642.64)
(261.309 -6.04813 18.3251 245.447 14.2822 606.273)
(513.004 79.3319 14.8441 1187.46 1.78703 490.175)
(3.0007 272.28 25.0577 626.54 -2.86854 172.937)
(134.356 230.232 29.2878 1093.4 3.90749 352.4)
(249.799 0.496707 13.305 239.4 -4.75264 562.705)
(249.067 2.3424 5.25477 239.565 -5.62524 553.254)
(235.601 1.72644 12.9808 228.736 -3.4342 528.09)
(205.377 -1.0249 13.58 202.558 -5.8142 475.891)
(214.024 0.512784 15.6252 210.103 -0.728643 492.216)
(234.753 2.21766 7.9413 227.537 -4.81369 521.058)
(220.564 -0.544615 14.8406 215.589 -4.40251 501.2)
(228.376 1.53655 14.7832 222.332 -1.97598 514.932)
(157.137 -0.00419213 7.37883 156.531 -0.702517 364.247)
(155.646 0.0182274 7.15269 155.045 -0.586013 360.794)
(173.409 -0.000243702 7.42908 169.749 -0.448528 391.812)
(188.277 -0.0727096 2.09875 182.602 -0.516991 419.915)
(174.566 -0.0233195 7.526 170.882 -0.564363 394.531)
(177.225 -0.0599375 7.88621 173.506 -0.663894 400.613)
(189.447 -0.0823352 2.23625 183.716 -0.513463 422.571)
(175.833 -0.0326804 7.67969 172.11 -0.576014 397.458)
(172.553 0.0101669 7.34041 168.889 -0.312431 389.888)
(185.807 0.0208195 1.88503 180.215 -0.210647 414.427)
(171.979 0.024856 7.26313 168.332 -0.217594 388.673)
(151.038 0.0591476 6.68116 150.534 -0.00836795 350.278)
(151.286 0.0187148 6.6544 150.777 -0.206164 350.821)
(185.377 0.0114337 1.86015 179.826 -0.167561 413.492)
(171.263 0.0464918 7.23375 167.661 -0.0675716 387.013)
(171.537 0.0208573 7.22226 167.927 -0.186878 387.68)
(63.2763 -42.0805 -1.56493 -10.8001 -6.6102 107.979)
(19.036 -8.57682 -3.74685 19.0953 11.3369 50.1033)
(31.9863 -34.1621 -6.64283 73.9496 29.5667 120.641)
(11.3021 -10.9849 2.6188 70.8696 18.0825 89.0519)
(-18.4397 -87.1896 2.51882 145.163 14.1232 152.863)
(43.1209 -20.8776 -12.0841 24.6896 -3.10554 95.2543)
(28.4279 -9.43088 -1.627 8.39242 27.4489 82.422)
(84.1456 -21.7865 3.14004 -88.1148 -15.5002 95.6359)
(29.601 25.3124 24.1093 -44.5038 -52.8877 56.1219)
(20.0858 160.566 26.6258 -196.229 -31.4275 138.627)
(55.2477 42.2673 51.2067 -136.158 -145.546 39.9697)
(122.918 88.0522 25.8559 -419.087 -43.3308 46.1452)
(61.958 38.3766 -5.18818 -89.5539 0.769778 74.0899)
(54.4314 4.53723 6.39227 -44.7355 -59.8232 75.0096)
(80.9593 -58.0415 -4.73384 -59.6548 -12.1973 102.697)
(253.409 -441.685 -35.6609 109.927 -33.7987 180.08)
(71.8061 -86.1834 -41.2345 95.2032 43.5202 162.333)
(123.663 -48.5879 -26.2316 -106.768 -111.979 54.5941)
(-2.56321 -146.438 -5.56052 154.058 12.7734 176.373)
(197.838 -20.8112 2.17084 -424.266 -43.2799 46.0544)
(74.4189 -40.2777 -24.7331 -6.93064 -31.3826 100.71)
(-310.239 -88.331 37.931 -47.1189 -1.80991 302.179)
(161.223 20.9271 114.838 252.038 365.344 441.952)
(76.5187 -14.8111 22.4922 632.654 56.9313 643.546)
(2338.64 -320.413 -144.331 1965 1716.27 5425.98)
(6383.47 -973.415 -132.888 -2122.75 286.756 3795.49)
(396.975 -809.194 -93.7276 477.071 74.8981 375.732)
(372.347 -13.1938 -121.369 1030.56 653.163 798.637)
(1802.53 -722.816 -354.64 1749.79 950.114 1990.87)
(288.621 -189.349 -96.1118 1552.23 232.244 879.269)
(4227.72 -2001.71 -199.719 -22.2493 33.5074 2190.54)
(-821.971 1304.74 262.929 -1236.06 -98.0212 -19.7184)
(-261.753 271.787 436.878 -186.186 -285.708 37.186)
(-48.6084 246.398 38.9002 -245.343 -41.3558 148.535)
(-45.0991 172.711 209.362 -321.794 -315.292 -92.1832)
(108.455 234.979 46.4371 -587.33 -71.3961 44.2963)
(-549.667 591.063 95.0072 -238.192 -10.8805 322.546)
(-279.51 398.59 576.136 -451.487 -498.928 -211.451)
(-1946.82 2532.42 539.287 -1958.63 -364.834 -24.4712)
(-2882.26 1261.62 3652.77 -120.359 -939.632 -393.142)
(-28622.1 8975.51 89.6859 -3376.23 -1160.92 3346.41)
(159.394 1548.3 1736.76 -782.936 -851.888 2107.09)
(2273.42 2314.86 -527.079 -5851.5 -209.396 955.784)
(-8420.34 2035.4 1347.73 286.931 -46.2057 -2.41829)
(-1355.33 1299.62 1903.47 -1297.45 -1225.4 -1017.12)
(-191.502 1008.93 384.075 -1777.7 -385.653 -271.662)
(467.771 -625.536 -76.8847 -54.1391 -2.1787 216.502)
(169.512 30.4413 73.4926 -337.311 -312.434 -95.5145)
(988.88 -202.92 -147.695 -254.696 -257.7 550.509)
(240.031 103.532 17.3965 -653.335 -80.8108 31.1776)
(2484.37 8.36677 -316.034 -2542.21 -282.651 723.677)
(-18.8958 382.545 508.018 -772.981 -677.578 -406.916)
(146.441 -0.956783 11.8213 141.238 -9.44458 315.527)
(-51.7828 -0.208877 32.1756 -15.1032 -1.20602 0.0931152)
(-40.5931 0.496392 26.7059 -8.10624 -1.81321 12.2991)
(127.568 -1.09385 18.5707 121.376 -1.74798 274.858)
(-51.6741 -0.0811305 32.5915 -15.544 -1.01048 -1.12685)
(-52.8856 -0.271946 33.5712 -17.1329 -0.54192 -4.72458)
(122.851 0.752687 18.1017 116.518 -0.0187618 265.276)
(-48.2568 -0.0506779 31.532 -16.009 -0.04391 -5.08867)
(-48.008 0.144927 31.3845 -15.8868 -0.0702863 -4.97156)
(121.428 -0.666226 19.1983 115.269 -0.554197 262.529)
(-48.7735 0.207624 31.7816 -16.3004 -0.070438 -5.53929)
(-51.5428 0.0224017 33.0837 -17.8663 -0.0521735 -8.01549)
(-69.9642 177.603 40.9005 295.861 96.5216 49.8463)
(158.465 124.178 180.65 194.328 128.304 243.325)
(451.861 83.3427 337.215 105.04 -2.66907 314.876)
(40.6083 39.9926 39.1423 47.2654 13.9672 59.6314)
(71.8231 41.3176 90.3339 75.8212 45.5747 126.624)
(136.951 80.6874 54.9802 195.104 49.0604 143.675)
(-193.361 131.52 80.9934 31.9607 103.453 109.363)
(61.8576 32.6599 89.8812 47.4945 9.1697 97.9729)
(149.832 159.047 104.799 174.186 89.2871 140.425)
(-18.0251 42.7191 32.699 -123.574 -23.7729 -130.206)
(15.2666 24.632 34.0852 -39.6926 -34.7292 -0.225734)
(-6.32092 145.895 13.1153 -144.836 -22.1847 127.572)
(8.10735 38.0169 77.9671 -17.998 -25.6735 17.7387)
(46.2983 43.8992 -14.5093 -92.8695 4.13349 20.6981)
(-43.2243 75.4404 9.12173 -66.2058 15.554 23.8126)
(23.9207 18.9565 66.632 -24.6505 -20.1216 -33.4685)
(326.22 -19.4399 259.325 74.7924 -75.8023 171.76)
(60.092 60.7505 -5.97419 -30.7351 148.1 114.769)
(90.8007 30.5817 129.021 82.743 54.3401 172.909)
(47.2509 22.8599 105.928 30.1877 13.512 69.3911)
(240.841 95.9679 167.163 198.326 125.024 238.549)
(-44.2659 52.111 22.6806 -53.933 21.2393 0.395332)
(68.3244 25.5998 113.962 31.065 6.95921 69.1697)
(267.803 97.0996 131.999 339.23 70.6743 199.438)
(87.1232 172.358 67.8882 251.434 75.1061 146.632)
(-509.625 202.471 73.2301 -42.9649 96.8796 -76.8635)
(1119.51 -114.892 76.3614 1346.78 19.3271 776.233)
(681.389 -114.194 -43.1942 1038.71 340.424 480.216)
(109.918 142.689 -224.323 -55.5606 321.05 843.541)
(626.255 -200.436 98.9215 1357.78 389.743 491.39)
(161.717 -10.6703 96.9655 166.14 219.216 333.608)
(427.629 129.823 34.5501 332.623 452.344 431.472)
(171.615 32.6687 70.4195 143.156 298.058 345.998)
(382.633 94.7485 24.103 178.05 16.4334 953.16)
(231.827 13.0186 51.5419 243.75 39.7032 676.503)
(102.908 28.5602 25.7257 210.074 -0.667731 614.834)
(205.333 24.347 83.9488 210.979 46.8274 645.12)
(150.622 72.0915 40.2349 194.561 -4.64119 640.995)
(211.778 31.7625 30.0578 238.411 -17.7908 709.148)
(255.022 21.9566 60.2752 227.411 83.2207 743.697)
(887.746 -70.5541 106.879 1301.25 59.4877 616.384)
(1448.37 -377.227 133.4 2847.42 72.325 1241.42)
(701.386 35.4282 9.39423 714.703 509.767 285.51)
(322.95 141.399 -53.1333 252.406 203.084 1110.56)
(-62.5373 125.649 -164.212 -175.939 368.405 39.8533)
(115.65 7.4479 58.7309 112.733 218.451 236.13)
(162.75 41.6731 65.6485 146.019 123.005 519.88)
(479.186 -40.0279 -45.2609 912.626 311.728 429.714)
(164.066 96.0171 37.4292 159.809 22.7789 670.433)
(167.196 28.5697 48.6617 108.652 213.693 474.19)
(136.134 148.707 78.4733 1052.87 52.7741 290.288)
(557.912 -15.8599 99.3396 1195.92 70.6509 461.203)
(399.34 25.4424 38.1636 603.42 11.0348 272.378)
(61.1914 189.358 101.153 637.867 78.4277 161.83)
(167.735 121.169 116.997 990.978 109.866 277.095)
(554.895 3.47776 77.2509 1226.12 34.88 488.451)
(-8.22955 231.757 87.7008 624.923 37.6662 143.291)
(127.779 166.544 53.3708 1107.93 37.1667 337.161)
(314.288 49.6031 33.2932 529.848 5.66454 199.209)
(562.368 11.5739 -6.23718 1255.15 2.52126 510.258)
(-37.7812 251.522 -33.326 651.101 32.1051 153.892)
(545.368 10.2044 35.3865 1253.53 15.3514 508.082)
(-77.7006 258.396 52.4125 632.183 28.7736 151.618)
(140.524 168.878 -17.7209 1118.88 12.9314 335.575)
(1113.31 -110.129 78.9093 1302.62 47.7773 697.705)
(1140.42 -93.1495 34.679 1355.74 7.87007 748.142)
(1134.19 -90.7532 21.3401 1512.23 2.05253 779.624)
(1047.24 -35.8266 5.0288 1455.66 -20.1773 727.344)
(1039.67 -39.391 33.6684 1462.54 13.8232 728.288)
(989.649 -73.456 98.4872 1369.07 43.147 654.645)
(1088.41 -83.9075 35.2086 1421.56 39.2908 721.428)
(1028.21 -40.0277 49.3824 1436.91 15.0543 720.43)
(1147.46 -90.7636 -0.0027588 1372.08 -14.3711 737.694)
(1141.74 -95.1964 32.0191 1378 15.2318 742.634)
(-232.247 175.546 76.1135 8.32709 -26.5165 242.459)
(-144.779 156.409 283.121 -32.4952 -146.778 134.03)
(-69.5657 210.831 25.6854 -169.58 -33.3162 145.867)
(-7.61206 68.2953 126.624 3.99148 -47.6479 117.072)
(-490.715 433.823 38.5641 -157.116 -15.1646 223.817)
(-59.1038 105.254 18.7067 -29.4407 13.7658 128.265)
(-47.3779 88.1476 202.304 39.2549 -64.7122 186.292)
(-180.143 131.719 70.3748 85.8391 -1.42899 350.349)
(41.6237 18.0623 197.85 192.707 18.7164 494.265)
(34.1867 30.5714 33.1094 201.946 -0.485462 574.341)
(130.086 27.1741 121.593 183.171 23.071 515.852)
(69.1455 76.8926 42.2835 171.307 -2.7994 558.233)
(-213.15 57.8283 50.1188 225.768 42.3651 572.192)
(34.0262 41.1296 183.27 144.892 -2.36785 388.917)
(-126.752 133.536 63.758 70.6194 -14.3809 333.169)
(-37.741 100.701 -66.3928 -121.231 190.379 125.243)
(38.1697 42.6724 109.624 55.4021 14.4343 184.083)
(115.235 41.4192 101.708 141.683 49.0023 441.223)
(-44.8556 79.5112 24.9299 -4.7096 28.0767 124.859)
(88.1627 90.4093 43.7071 158.324 8.7593 572.043)
(39.3065 53.5439 145.636 96.9763 -5.16162 306.238)
(-88.6199 188.106 63.5607 280.538 87.333 24.7972)
(-215.57 237.187 69.2368 280.269 22.3522 -15.3378)
(86.3646 198.838 -16.2578 274.892 50.7091 61.0245)
(-60.1444 557.616 15.7719 282.062 56.5827 56.743)
(69.7349 197.154 35.4082 237.907 42.9831 39.7915)
(-211.059 238.696 -60.2535 309.575 55.6834 -15.7022)
(-282.985 259.772 77.7525 234.16 24.9524 -44.745)
(4.76243 184.509 45.7214 212.528 85.9462 38.6526)
(-33.5136 496.98 32.9211 298.006 67.5663 66.8739)
(112.671 169.778 64.7694 277.337 46.1366 75.1112)
(282.94 12.5882 -71.7053 237.301 3.13835 551.784)
(526.108 1.25677 -159.999 211.236 24.9996 488.421)
(300.329 12.9219 -127.163 178.045 0.944372 289.769)
(-3452.75 -1343.18 364.386 832.269 149.455 2064.54)
(-3106.4 75.726 4141.39 542.001 -259.183 938.03)
(-28248.3 -2429.48 -1114.59 -450.216 590.579 -7969.77)
(-3564.34 -415.635 2757.62 518.824 -773.714 3881.58)
(-7903.39 -352.538 1868.33 741.138 105.438 945.652)
(-6284.6 -2074.51 191.313 1223.02 826.564 1970.31)
(-1948.39 -478.758 2879.78 389.863 334.708 1575.95)
(-2001.97 -833.622 358.533 636.594 106.187 1457.44)
(-6.14432 -57.3982 764.573 211.84 211.34 532.733)
(547.334 -40.8912 -116.749 448.711 -31.875 799.204)
(-1015.47 -419.551 169.756 347.759 128.057 851.354)
(-210.361 -158.868 1452.98 270.017 342.112 739.915)
(-2468.63 -987.077 434.845 670.005 14.3262 1688.54)
(-2174.18 -225.138 2102.2 962.564 -645.792 3829.01)
(-3301.27 -1247.79 -190.673 1173.79 -96.4529 362.653)
(-254.324 -180.954 1852.36 358.233 462.691 889.216)
(287.196 -11.3498 1.7392 446.437 57.74 629.965)
(293.214 -2.11248 11.6462 283.398 15.2748 718.156)
(290.301 4.68345 20.7904 278.134 47.9802 736.772)
(265.012 -4.57319 -0.793783 441.728 52.2288 643.723)
(280.99 -7.57712 28.0448 283.393 20.3583 699.864)
(240.461 -11.444 56.0406 266.539 39.0661 690.319)
(198.753 -20.5132 21.4658 393.354 41.7273 660.429)
(272.123 -2.55676 34.2831 274.84 41.4077 718.184)
(301.254 1.19615 -15.0106 274.758 2.51633 663.44)
(298.019 -4.08225 -1.04127 270.025 9.33078 666.555)
(306.706 -2.65835 -13.5913 270.456 11.0187 671.763)
(318.328 5.1876 -56.5238 225.28 17.8771 590.329)
(262.022 -39.309 12.6412 186.52 65.9978 608.463)
(301.405 -9.34629 -17.9461 241.712 27.4617 643.211)
(291.929 -11.4349 5.31851 262.079 20.4207 667.038)
(260.701 -34.7897 18.447 219.573 52.7598 633.383)
(300.465 -12.8348 -5.58781 256.575 24.5268 668.272)
(-67.008 -48.4905 91.0826 231.825 35.133 617.285)
(68.8215 -3.19753 197.565 231.241 30.4761 578.516)
(42.5745 6.11924 52.9216 237.555 10.7543 589.582)
(178.083 -9.70117 110.11 254.575 51.3345 621.598)
(-176.638 19.181 50.9594 280.244 8.6971 678.599)
(63.6406 -24.6377 54.2746 225.671 44.9953 602.642)
(104.771 -22.1107 186.28 242.971 54.5675 606.042)
(-191.972 -87.7525 115.392 356.53 62.8294 622.025)
(1.20137 -185.362 360.791 243.052 184.643 869.926)
(162.622 -108.975 121.798 185.544 79.7838 600.16)
(-644.41 -241.876 104.49 328.967 73.2939 770.869)
(30.5737 -95.5788 246.536 199.415 80.8603 571.624)
(-57.316 -79.4183 66.2394 392.398 30.1164 728.389)
(195.718 -25.495 87.4703 252.48 40.6696 650.885)
(193.929 -64.2138 76.0432 227.952 57.2825 609.64)
(155.557 -30.2141 22.8027 380.564 39.7624 651.257)
(124.874 -51.9666 144.742 234.411 52.7439 614.748)
(193.38 192.171 34.9685 1124.16 1.54846 357.178)
(409.611 44.8997 15.9277 567.965 -6.44742 263.503)
(538.753 67.2113 22.7642 1192.21 2.23714 490.793)
(47.0333 251.228 14.0425 662.156 -6.05675 185.852)
(164.256 214.654 15.694 1110.62 -8.08967 356.882)
(567.238 49.6991 22.8372 1198.6 -1.47219 497.548)
(81.5522 230.925 30.4826 689.791 -7.11178 194.628)
(204.463 174.993 0.136153 1131.86 -9.26765 347.367)
(467.079 30.5625 14.3767 624.615 -5.42929 304.753)
(588.715 14.5252 -6.70914 1237 -10.764 500.96)
(78.8393 217.417 -15.2144 712.501 15.4509 177.067)
(186.653 167.575 -1.31626 1137.43 10.1184 339.45)
(588.698 30.0545 13.7508 1211.07 -10.0687 499.314)
(111.428 213.013 1.2236 716.117 -4.53746 193.392)
(-160.208 244.202 27.5776 288.43 -4.83089 20.2294)
(87.5577 199.878 12.6459 294.14 0.0471053 98.9968)
(1045.33 -54.401 10.6145 1298.18 8.80237 679.815)
(1000.31 10.9257 10.4187 1443.24 10.9455 711.517)
(1053.39 -54.7022 2.37123 1299.97 -1.76001 680.236)
(1072.42 -59.494 13.2026 1301.28 3.94913 682.158)
(1041.74 -30.8739 2.78325 1437.59 -16.0815 716.462)
(1101 -74.0751 7.22475 1491.74 6.78016 755.098)
(1020.96 -11.0478 15.0129 1410.12 -1.22515 706.119)
(1138.74 -83.8562 7.09767 1350.34 -7.8709 722.158)
(1084.17 -62.491 6.47241 1300.37 -8.63517 689.167)
(1003.52 8.92647 10.835 1438.89 7.65418 707.813)
(1116.19 -66.2092 8.98331 1529.91 17.8391 772.635)
(1015.41 -4.36534 15.2993 1414.57 9.72399 705.091)
(-126.276 232.1 4.98757 319.931 -4.0339 38.611)
(-82.2361 210 29.1411 374.263 -3.69828 54.3786)
(84.6145 200.182 -3.46195 318.222 32.5543 90.7234)
(17.4628 534.183 4.51806 438.331 27.2766 119.223)
(127.905 185.778 4.26448 353.949 15.5555 113.346)
(-121.101 211.864 -25.9142 375.391 45.545 30.986)
(-60.6795 200.128 3.38522 397.283 -1.12621 62.5843)
(118.05 189.456 0.976751 325.995 7.4815 112.743)
(12.4962 544.833 3.67601 429.655 10.6237 120.409)
(129.518 185.447 15.3937 344.483 5.27986 115.031)
(285.583 2.50687 -13.458 267.501 -5.30576 634.5)
(258.851 2.5356 -2.4385 248.357 -8.02937 575.165)
(260.166 2.36324 -10.6026 250.043 -9.48146 578.909)
(186.261 -0.721538 -23.0845 174.72 -4.2965 387.924)
(201.583 -0.132836 -7.59835 202.301 -2.68724 459.62)
(214.254 0.601277 -8.55125 213.762 -6.95176 485.921)
(237.742 2.03739 0.248927 230.988 -7.44394 524.905)
(221.361 0.0685933 -7.92606 217.322 -3.26235 489.495)
(235.366 1.21001 -8.45987 230.219 -8.15524 521.15)
(188.698 -1.11981 10.258 188.356 -6.40574 436.243)
(176.341 -0.359497 8.59404 177.001 -3.58499 406.591)
(187.252 -0.0187139 8.99137 184.493 -1.52161 424.25)
(203.309 -0.589063 4.42689 198.867 -2.22192 454.927)