/*--------------------------------*- C++ -*----------------------------------*\
| =========                 |                                                 |
| \\      /  F ield         | OpenFOAM: The Open Source CFD Toolbox           |
|  \\    /   O peration     | Version:  2012                                  |
|   \\  /    A nd           | Website:  www.openfoam.com                      |
|    \\/     M anipulation  |                                                 |
\*---------------------------------------------------------------------------*/
FoamFile
{
    version     2.0;
    format      ascii;
    class       volScalarField;
    location    "0.107/solid";
    object      sigmaMin;
}
// * * * * * * * * * * * * * * * * * * * * * * * * * * * * * * * * * * * * * //

dimensions      [1 -1 -2 0 0 0 0];


internalField   nonuniform List<scalar> 
3124
(
-445.23
-5.39161
-850.275
-422.864
-274.378
-268.879
-11.3985
-702.968
-1383.42
-737.391
-456.687
-1084.27
-688.33
-551.72
-852.456
-1421.04
-498.726
-356.526
-269.409
-273.989
-351.268
-356.046
-350.061
-151.933
-522.769
-621.783
-591.353
-361.717
-825.761
-1173.18
-365.283
-659.527
-626.139
-630.032
-476.844
-1628.77
-594.22
-500.286
-417.416
-425.372
-415.601
-412.878
-80.882
-145.453
-344.721
-411.418
-1475.89
-219.014
-8127.04
-687.291
-286.491
-282.387
-265.975
-265.629
-140.149
-112.855
-268.965
-531.763
-634.435
-965.414
-362.273
-667.01
-1234.85
-1558.76
-971.598
-1411.16
-609.364
-869.444
-1522.22
-1467.22
-204.198
-582.172
-331.084
-741.331
-603.025
-617.324
-7769.63
-628.318
-624.326
-678.783
-654.609
-564.375
-643.559
-614.953
-1079.93
-651.444
-515.289
-1432.39
-1548.15
-1022.95
-693.304
-1607.68
-1024.01
-789.582
-1608.44
-1503.65
-1583.56
-782.25
-798.968
-624.637
-367.969
-494.844
-446.479
-484.33
-360.97
-463.775
-485.753
-272.378
-272.745
-440.917
-428.64
-442.118
-354.483
-448.738
-459.718
-355.119
-451.086
-440.461
-347.427
-437.914
-413.02
-346.862
-438.013
-330.079
-574.043
-542.795
-548.556
-520.396
-493.599
-355.414
-358.025
-353.479
-352.091
-102.167
-30.2116
-25.0124
-5.79781
-54.0117
-71.1645
-65.81
-364.848
-630.718
-587.319
-1211.35
-514.416
-806.648
-601.598
-69.2476
-338.225
-25.9071
-276.169
-13.0401
-12.4464
-12.8393
-267.986
-11.7921
-264.818
-9.46607
-6.03519
-59.2475
-22.045
-11.0489
-45.8383
-82.5638
-188.005
-998.601
-707.167
-792.501
-733.209
-269.535
-745.14
-497.205
-629.943
-370.928
-619.282
-440.777
-100.109
-540.708
-320.748
-1524.15
-738.471
-1825.42
-1122.66
-1054.67
-708.403
-1791.29
-637.416
-582.11
-648.536
-637.832
-777.751
-728.789
-857.777
-700.121
-655.092
-728.289
-601.53
-436.932
-541.119
-387.075
-393.612
-357.517
-454.768
-455.638
-12.8469
-271.093
-12.5202
-13.4226
-273.809
-12.7934
-382.436
-377.741
-447.502
-352.485
-448.848
-454.317
-355.835
-453.712
-446.09
-349.137
-444.819
-353.045
-346.145
-443.487
-214.763
-208.98
-215.823
-167.656
-222.835
-339.472
-161.784
-293.277
-300.304
-662.878
-594.119
-622.103
-298.694
-696.41
-349.328
-706.123
-292.494
-845.875
-477.156
-847.091
-1152.52
-545.79
-652.816
-684.614
-838.939
-896.076
-635.411
-330.112
-403.255
-493.619
-528.666
-629.905
-525.326
-568.545
-556.282
-593.528
-640.439
-604.055
-606.496
-643.736
-607.78
-1196.69
-728.767
-1145.94
-563.339
-553.444
-528.702
-476.696
-493.093
-521.355
-502.051
-515.705
-364.512
-361.045
-392.066
-419.935
-394.79
-400.893
-422.593
-397.725
-390.136
-414.442
-388.916
-350.502
-351.043
-413.508
-387.256
-387.921
-108.366
-54.9241
-139.426
-100.345
-187.123
-97.9517
-91.8129
-98.9194
-82.0812
-144.396
-130.828
-140.741
-77.7092
-100.157
-103.684
-629.204
-226.459
-133.953
-244.607
-198.621
-116.062
-304.674
-743.06
-695.364
-6149.92
-6503.43
-1263.13
-1584.4
-3227.84
-1656.68
-5035.83
-346.136
-363.649
-156.205
-171.866
-184.553
-346.394
-349.146
-607.614
-2221.71
-3632.69
-3125.12
-3038.92
-832.698
-725.336
-357.931
-890.46
-198.904
-1046.5
-252.179
-2540.01
-339.379
-316.862
-15.529
-23.5071
-277.185
-14.8715
-12.5219
-267.54
-11.5392
-11.5631
-265.097
-11.2802
-9.82126
-399.335
-492.554
-733.793
-111.83
-219.7
-287.843
-230.052
-177.62
-395.11
-1.33683
-42.5781
-129.397
-91.5962
-62.9005
-39.9021
-68.0341
-527.836
-212.134
-286.117
-169.446
-490.629
-32.9182
-186.137
-475.641
-399.65
-106.998
-1394.97
-1226.92
-981.077
-1533.32
-501.003
-866.266
-573.892
-954.724
-686.186
-616.125
-666.2
-644.277
-711.492
-764.562
-1315.49
-2943.48
-1056.59
-1156.73
-325.18
-410.423
-570.491
-1070.76
-674.963
-580.248
-1081.66
-1202.72
-607.285
-714.386
-1029.67
-1227.85
-707.813
-1138.03
-541.189
-1255.35
-733.866
-1254.01
-719.631
-1147.33
-1353.35
-1390.48
-1532.9
-1459.35
-1466.33
-1383.64
-1442.77
-1440.94
-1404.45
-1411.6
-254.369
-316.511
-149.514
-195.983
-226.441
-135.358
-303.674
-360.527
-570.064
-576.368
-553.368
-561.899
-581.378
-467.171
-341.904
-229.235
-248.509
-480.51
-141.534
-576.66
-371.373
-389.863
-380.982
-404.118
-698.927
-377.249
-404.635
-349.305
-350.713
-665.31
-400.412
-569.713
-668.908
-422.63
-2092.49
-3535.36
179.001
-4960.2
-1325.9
-2633.53
-3191.15
-1494.85
-1096.34
-845.553
-884.972
-1815.81
-1742.56
-4619.73
-1500.02
-2293.17
-646.625
-719.006
-742.728
-656.437
-702.67
-700.42
-667.5
-724.559
-664.076
-666.778
-672.575
-602.332
-618.667
-646.078
-668.125
-640.522
-669.837
-631.261
-647.982
-595.012
-653.166
-681.865
-612.7
-672.397
-647.053
-1017.13
-637.68
-785.939
-670.804
-735.568
-670.121
-628.373
-657.647
-657.64
-1162.36
-579.825
-1199.08
-751.723
-1157.06
-1202.49
-767.544
-1163.88
-630.359
-1237.49
-780.1
-1166.22
-1212.64
-783.646
-395.822
-415.976
-1309.46
-1443.68
-1311.56
-1315.83
-1440.35
-1505.35
-1410.43
-1379.69
-1317.29
-1439.16
-1540.59
-1414.75
-418.776
-456.298
-435.229
-802.955
-459.092
-456.204
-472.413
-438.281
-804.641
-451.791
-635.097
-575.382
-579.538
-390.614
-459.871
-486.368
-525.093
-489.768
-521.63
-436.835
-406.967
-424.6
-455.025
-433.387
-474.562
-468.007
-448.652
-358.748
-456.015
-456.353
-475.713
-470.069
-478.898
-484.229
-478.504
-482.584
-271.597
-13.5691
-12.668
-273.571
-13.422
-12.8312
-368.379
-372.884
-418.815
-436.582
-413.942
-404.665
-432.461
-409.138
-462.251
-443.966
-463.75
-353.545
-452.148
-450.359
-446.24
-467.878
-465.647
-473.706
-456.59
-472.025
-355.541
-452.815
-452.963
-453.645
-469.188
-470.286
-460.722
-439.024
-459.285
-348.243
-443.523
-443.963
-438.151
-458.219
-458.45
-350.768
-351.674
-415.075
-389.793
-387.456
-413.918
-388.486
-346.486
-443.29
-443.208
-439.29
-458.893
-458.177
-438.336
-458.229
-295.081
-302.642
-414.666
-393.656
-328.602
-384.615
-275.321
-185.669
-257.34
-275.169
-178.526
-258.24
-184.32
-179.089
-180.245
-174.445
-251.601
-269.009
-179.757
-252.107
-174.492
-400.174
-334.963
-452.037
-486.42
-358.558
-482.167
-370.771
-601.778
-645.569
-690.964
-658.7
-635.402
-584.428
-663.183
-181.407
-174.776
-252.177
-270.389
-179.974
-253.437
-175.465
-184.698
-256.674
-178.281
-274.327
-184.185
-257.496
-178.469
-858.292
-869.993
-585.661
-589.332
-542.987
-737.445
-844.218
-778.7
-617.881
-623.117
-798.969
-630.243
-760.152
-540.133
-858.227
-12034.2
-10688
-205.768
-292.743
-272.359
-189.704
-199.25
-278.501
-194.944
-192.137
-280.334
-267.062
-186.182
-194.876
-265.063
-184.037
-178.01
-266.882
-248.372
-171.928
-176.623
-249.695
-172.664
-176.682
-265.874
-247.924
-171.581
-176.118
-248.415
-171.628
-257.431
-241.703
-1012.12
-1016.9
-905.494
-809.873
-610.952
-594.181
-897.181
-860.473
-609.456
-910.942
-568.772
-863.232
-617.845
-839.291
-583.817
-922.918
-1084.18
-1030.46
-1040.8
-1035.57
-343.439
-297.296
-254.742
-168.359
-638.021
-619.566
-535.065
-583.195
-588.639
-662.895
-609.059
-647.493
-694.052
-895.23
-707.137
-724.101
-905.821
-881.646
-621.701
-639.218
-606.747
-661.993
-613.413
-624.927
-669.739
-880.45
-540.5
-777.615
-564.016
-877.631
-787.61
-576.658
-943.317
-659.514
-859.063
-638.748
-949.966
-872.403
-659.575
-194.865
-895.713
-918.107
-932.574
-1086.66
-1034.03
-230.431
-261.407
-349.496
-367.543
-183.209
-272.615
-255.026
-177.015
-182.62
-255.714
-177.152
-183.952
-273.456
-255.528
-177.231
-182.752
-256.432
-177.708
-282.31
-254.755
-250.962
-338.343
-440.78
-265.067
-565.49
-552.195
-520.245
-585.564
-466.31
-485.604
-493.749
-460.217
-528.376
-575.231
-558.121
-552.315
-480.818
-513.417
-494.501
-505.336
-473.899
-460.305
-440.834
-467.99
-528.332
-533.477
-513.774
-537.247
-361.14
-369.655
-357.52
-372.669
-307.323
-309.08
-311.527
-309.87
-355.674
-369.456
-358.642
-367.041
-352.391
-366.619
-363.917
-354.901
-306.811
-305.944
-304.12
-305.87
-356.296
-365.268
-354.415
-367.443
-60.7641
-90.3168
-86.6582
-97.1095
-77.6858
-75.6418
-70.0927
-25.1778
-4.77806
-15.5948
-7.54895
-21.484
-24.4899
-2.54736
-39.1962
-73.0656
-40.9038
-28.4658
-33.1066
-51.7572
-45.799
-44.4959
-86.3425
-37.8046
-30.4415
-59.448
-47.7912
-17.4024
-366.691
-419.48
-523.778
-411.72
-437.062
-322.425
-667.598
-502.697
-474.529
-446.129
-298.697
-403.583
-448.586
-362.565
-523.917
-700.217
-668.497
-1206.62
-702.216
-620.292
-730.651
-79.9569
-144.569
-47.1489
-110.858
-119.616
-270.419
-362.058
-325.828
-229.551
-350.165
-243.085
-249.959
-66.5108
-35.9591
-86.593
-46.4122
-100.699
-186.126
-275.902
-259.2
-179.831
-259.296
-186.133
-179.544
-18.9689
-56.528
-12.3481
-18.9446
-56.6457
-18.5719
-56.7648
-11.9205
-18.5346
-56.6589
-17.9407
-54.7565
-11.9924
-18.1458
-54.6914
-180.245
-268.728
-250.758
-173.48
-251.805
-178.613
-174.192
-17.4107
-11.4167
-53.731
-16.5643
-54.3289
-246.716
-170.3
-174.385
-12.7656
-51.0364
-12.6946
-86.8321
-79.9566
-135.607
-70.8059
-171.33
-88.9332
-70.064
-37.1139
-14.2523
-16.1317
-29.5698
-26.2842
-25.5711
-35.6699
-39.5308
-4.90682
-44.5836
-23.983
-36.8467
-34.0947
-6.90199
-72.8616
-174.793
-136.563
-40.6826
-156.966
-53.7928
-63.5764
-793.287
-1330.2
-911.185
-867.896
-804.212
-808.543
-820.962
-408.252
-204.018
-384.428
-352.802
-394.668
-348.317
-367.818
-530.033
-606.583
-531.786
-797.531
-508.75
-581.419
-619.149
-367.694
-248.721
-429.257
-343.126
-456.11
-463.682
-295.06
-567.767
-430.945
-680.29
-556.223
-618.978
-484.238
-512.741
-194.462
-178.819
-158.378
-135.996
-226.138
-439.276
-518.097
-537.153
-452.599
-519.862
-477.033
-412.652
-255.054
-232.876
-349.094
-328.326
-285.242
-1232.66
-1227.97
-1147.52
-1458.14
-905.376
-1712.69
-1121.53
-875.9
-756.771
-873.212
-733.95
-892.66
-720.162
-831.308
-897.74
-1040.98
-865.745
-953.224
-864.255
-1021.94
-1106.16
-1048.86
-878.441
-678.058
-799.512
-810.866
-716.85
-928.758
-685.64
-644.241
-698.993
-608.001
-575.895
-470.065
-514.526
-618.868
-647.487
-552.017
-523.776
-577.291
-606.493
-690.788
-667.751
-643.092
-683.892
-786.366
-761.319
-728.212
-704.313
-759.292
-734.49
-718.182
-680.576
-726.707
-638.12
-708.474
-737.506
-656.063
-713.666
-611.589
-697.742
-723.391
-790.179
-753.394
-650.352
-520.443
-577.009
-567.357
-540.95
-563.329
-462.523
-406.857
-542.302
-483.581
-349.081
-396.841
-493.456
-617.576
-619.893
-577.959
-647.446
-397.484
-404.159
-384.793
-413.856
-334.302
-343.303
-347.122
-339.724
-379.658
-407.105
-393.486
-396.233
-461.63
-475.126
-438.839
-495.24
-405.305
-289.039
-293.805
-418.84
-420.016
-295.063
-291.596
-404.729
-439.535
-493.703
-460.054
-475.053
-18.2865
-54.8709
-12.1683
-18.091
-55.1007
-181.983
-271.063
-253.848
-175.816
-254.217
-181.24
-175.852
-18.0512
-11.8804
-54.9599
-17.7308
-55.1065
-19.1916
-56.5129
-12.7481
-19.2463
-56.5385
-184.904
-274.265
-256.703
-177.847
-257.271
-183.53
-178.322
-18.8387
-12.3459
-55.8944
-18.3105
-56.302
-373.131
-396.542
-384.516
-386.752
-338.722
-331.117
-389.197
-391.34
-377.208
-401.55
-326.566
-334.25
-448.222
-475.569
-480.537
-442.24
-405.816
-284.076
-286.631
-408.711
-410.157
-286.846
-286.508
-406.574
-441.614
-478.845
-446.544
-474.24
-441.824
-490.319
-476.147
-456.863
-418.038
-291.466
-405.846
-289.291
-458.784
-475.608
-440.667
-492.019
-406.645
-288.37
-292.016
-416.785
-439.678
-475.637
-471.997
-442.93
-407.13
-284.418
-284.06
-404.74
-403.637
-282.489
-284.747
-405.707
-444.627
-473.286
-440.87
-476.79
-364.997
-353.553
-305.576
-472.831
-439.834
-279.08
-280.268
-402.792
-201.079
-240.751
-304.672
-177.425
-216.409
-246.456
-297.083
-211.017
-239.339
-227.456
-176.134
-243.574
-193.071
-189.327
-187.93
-162.689
-177.63
-274.461
-188.339
-171.766
-319.241
-366.902
-288.814
-336.125
-334.424
-298.251
-328.986
-413.617
-377.442
-645.095
-329.852
-299.048
-385.962
-365.487
-386.639
-293.434
-297.306
-457.254
-442.75
-447.145
-612.795
-380.415
-561.434
-504.083
-469.677
-422.074
-560.346
-672.887
-346.79
-521.655
-732.233
-461.581
-338.105
-391.432
-374.852
-449.097
-374.704
-442.518
-455.295
-326.422
-417.108
-299.381
-435.499
-336.076
-406.706
-701.023
-585.309
-1004.46
-776.716
-675.468
-669.28
-939.365
-750.146
-607.384
-508.155
-917.788
-627.865
-553.192
-885.273
-549.712
-392.318
-456.314
-653.75
-576.332
-438.816
-446.419
-493.142
-603.249
-592.442
-538.805
-669.885
-289.412
-432.428
-534.283
-678.331
-507.404
-659.957
-410.751
-626.517
-583.494
-616.618
-601.731
-614.809
-646.564
-632.722
-627.725
-593.633
-607.149
-584.635
-610.251
-647.178
-640.982
-621.513
-663.227
-592.321
-626.492
-565.198
-639.589
-665.687
-589.643
-553.582
-682.56
-668.476
-507.277
-662.215
-558.411
-607.101
-673.956
-654.206
-634.593
-524.982
-533.29
-519.241
-535.216
-593.38
-599.22
-587.274
-607.986
-569.779
-562.282
-566.056
-566.561
-544.979
-560.309
-552.65
-555.62
-506.742
-495.793
-478.262
-520.068
-439.322
-425.806
-467.204
-444.768
-478.186
-493.735
-498.133
-474.302
-524.131
-510.116
-510.557
-528.531
-501.094
-504.295
-494.96
-507.367
-525.476
-519.864
-519.296
-521.229
-504.913
-508.985
-507.4
-508.626
-359.985
-376.605
-364.967
-371.934
-318.896
-315.468
-312.027
-315.441
-369.091
-374.905
-380.117
-363.349
-400.69
-393.1
-397.409
-396.159
-411.959
-424.909
-416.094
-420.275
-393.64
-394.407
-391.241
-396.966
-419.095
-422.454
-413.64
-428.125
-398.442
-401.217
-395.584
-404.475
-426.278
-426.514
-418.595
-434.407
-407.477
-398.764
-405.085
-400.924
-415.773
-431.642
-422.814
-424.326
-391.035
-390.987
-387.893
-394.354
-414.311
-418.795
-410.311
-423.008
-395.104
-389.592
-392.432
-391.929
-408.879
-422.11
-412.772
-417.875
-353.346
-363.272
-351.469
-364.931
-302.939
-303.735
-303.973
-303.728
-351.35
-364.03
-362.44
-353.102
-392.907
-387.07
-390.325
-389.564
-408.217
-419.543
-416.698
-410.691
-411.365
-417.337
-408.246
-420.623
-389.49
-388.986
-386.938
-391.53
-104.965
-124.574
-103.604
-105.927
-95.5032
-109.939
-106.431
-122.375
-149.217
-175.347
-140.384
-145.148
-143.707
-121.062
-80.7037
-107.713
-54.6603
-94.2317
-71.9851
-103.49
-64.8215
-105.85
-104.468
-100.4
-91.3121
-87.2828
-105.994
-109.822
-107.515
-123.722
-125.353
-134.465
-124.952
-142.296
-100.746
-105.411
-125.089
-127.375
-163.503
-118.651
-115.311
-131.717
-101.558
-96.4055
-49.5961
-111.435
-72.6703
-113.231
-78.8015
-171.539
-137.275
-131.942
-106.625
-188.123
-128.463
-136.725
-314.583
-655.141
-421.059
-439.65
-408.005
-325.661
-469.261
-255.598
-180.637
-351.694
-241.524
-329.937
-258.566
-178.653
-213.455
-164.677
-310.147
-221.43
-240.3
-158.016
-302.47
-1014.47
-1095.82
-422.925
-287.744
-450.87
-393.886
-475.204
-554.515
-920.813
-504.335
-743.034
-540.637
-600.065
-837.626
-449.87
-866.75
-15274.8
-2188.74
-13804.1
-9918.5
-4212.4
-8149.81
-9127.25
-8566.43
-11726.6
-15139.8
-7825.6
-9233.04
-5165.66
-16851.4
-9563.31
-9884.29
-2716.53
-2350.87
-5061.81
-3362.95
-1959.46
-6115.94
-2448.22
-1330.98
-1304.77
-2085.05
-1277.36
-2511.81
-2057.16
-3719.98
-5808.23
-3250.53
-4727.97
-3943.44
-5883.61
-3139.15
-2130.31
-1275.33
-3808.89
-1718.35
-5114.73
-2096.27
-206.744
-191.131
-345.68
-398.047
-283.384
-177.025
-279.078
-175.991
-128.449
-136.843
-168.314
-130.895
-135.472
-139.614
-124.964
-155.715
-154.239
-154.444
-128.292
-142.174
-195.664
-219.066
-344.547
-255.058
-185.485
-344.784
-166.088
-188.33
-1359.87
-742.394
-637.818
-596.706
-776.335
-721.849
-699.162
-2853.12
3173.43
-7314.84
-2309.17
-2833.14
-1477.62
-3650.39
-3283.52
-687.747
-3830.3
-3114.46
-5898.76
-1134.05
-1583.88
-1458.04
-749.363
-1298.93
-1297.12
-1049.15
-955.641
-2987.12
-921.163
-943.765
-552.815
-1401.42
-625.606
-1390.92
-759.917
-477.021
-204.24
-392.932
-239.497
-348.389
-476.401
-217.739
-902.207
-837.869
-1831.67
-2662.61
-1893
-598.167
-1375.8
-215.18
-303.689
-303.168
-213.861
-228.218
-290.844
-203.209
-29.9098
-63.8423
-16.6573
-26.8249
-66.9055
-34.1746
-77.7032
-18.6737
-42.0233
-71.6336
-190.123
-278.61
-260.768
-180.797
-187.434
-262.496
-182.284
-22.3294
-61.5823
-13.4055
-24.3953
-59.9228
-20.6234
-57.4213
-12.4925
-19.3008
-58.5433
-178.874
-267.493
-250.221
-173.099
-178.126
-250.452
-173.092
-16.3605
-53.0327
-11.0406
-15.9704
-53.4298
-16.4684
-53.4549
-10.8403
-16.1313
-53.5545
-176.599
-265.754
-247.114
-170.64
-174.918
-248.259
-171.359
-15.1378
-52.7319
-10.294
-15.4964
-52.5455
-14.3757
-51.3935
-9.6351
-13.2896
-52.0925
-340.167
-276.371
-66.361
-332.788
-397.799
-39.7529
-294.292
-143.732
-118.044
-111.398
-246.988
-320.458
-393.06
-294.649
-489.398
-33.1575
-108.723
-687.262
-98.1803
-669.144
-117.06
-130.034
-375.181
-157.066
-472.363
-192.095
-304.051
-154.282
-311.809
-226.148
-55.7487
-47.8169
-9.46629
-100.101
-72.806
-18.9949
-67.3182
-54.0166
-122.651
-106.491
-102.909
-82.3497
-56.8592
-88.2667
-40.5766
-15.1513
-47.4708
-80.4574
-38.9257
-53.6219
-36.0491
-54.8628
-11.3371
-59.1928
-78.503
-17.174
-63.0231
-87.2448
-141.601
-595.744
-44.7387
-140.501
-440.782
-132.914
-157.107
-221.257
-265.739
-272.68
-192.047
-303.476
-315.347
-210.252
-227.412
-318.431
-327.341
-361.813
-320.413
-409.963
-254.62
-150.122
-0.672436
-85.2003
-124.091
-252.663
-119.683
-153.805
-73.2796
-1562.44
-77.9047
-585.636
-346.269
-637.088
-281.53
-564.913
-414.648
96.5583
-158.069
-123.598
-288.479
-386.818
-533.674
-424.718
-1272.64
-1206.55
-1370.48
-1039.1
-1374.24
-492.97
-968.787
-799.699
-1265.98
-638.655
-1407.06
-1264.67
-914.124
-545.115
-393.475
-818.27
-1050.75
-655.71
-923.536
-634.192
-667.56
-566.36
-704.453
-899.194
-1807.86
-622.637
-1001.44
191.956
-1721.13
-2008.29
-752.341
-847.219
-873.41
-849.101
-794.315
-802.998
-807.55
-667.381
-612.455
-641.241
-632.561
-679.119
-629.801
-626.674
-674.412
-729.134
-636.24
-659.308
-712.546
-722.535
-633.822
-1476.82
-1597.65
-1796.37
1726.35
-837.751
-420.507
-993.962
-697.062
-426.258
-916.107
-692.77
-600.689
-460.445
-598.873
-317.682
-492.228
-260.397
-557.017
-646.182
-490.532
-963.628
-565.427
-539.119
-354.022
-605.092
-593.028
-780.268
-692.666
-591.37
-735.333
-618.35
-576.645
-897.582
-588.042
-828.29
-569.014
-900.822
-835.794
-594.508
-899.249
-548.58
-835.656
-578.735
-896.51
-831.603
-564.145
-1189.35
-1388.11
-1392.78
-1240.78
-1339.9
-1053.74
-1020.43
-1385.27
-1381.19
-1230.51
-1219.31
-1347.34
-1568.43
-1542.76
-1574.33
-1563.01
-1473.66
-1443.53
-1515.79
-1551.44
-1014.99
-1024.72
-1243.78
-1410.45
-1375.89
-1239.36
-1396.99
-1379.7
-1238.33
-1413.32
-1240.38
-1396.74
-230.829
-153.075
-242.072
-262.935
-257.897
-163.248
-248.958
-149.787
-144.653
-155.913
-144.651
-180.58
-129.807
-157.393
-184.457
-139.969
-286.903
-150.931
-204.583
-207.655
-133.638
-187.389
-214.7
-134.453
-140.383
-141.154
-173.408
-182.187
-448.56
-440.249
-424.147
-421.646
-437.171
-488.262
-446.182
-566.215
-575.797
-581.945
-552.956
-581.489
-530.942
-584.318
-529.827
-490.67
-576.995
-569.367
-557.742
-524.241
-528.418
-522.822
-443.089
-579.78
-573.104
-535.227
-493.709
-550.526
-353.412
-304.79
-422.779
-353.571
-373.021
-322.887
-377.465
-354.376
-342.292
-255.489
-472.719
-279.572
-373.808
-367.225
-269.096
-245.48
-185.905
-188.587
-219.669
-298.626
-248.048
-445.649
-487.376
-553.162
-511.27
-486.346
-441.48
-472.928
-224.435
-260.995
-136.327
-308.916
-93.3784
-388.495
-194.066
-302.542
-50
-89.4475
73.6841
-254.537
-386.394
-284.81
-55.97
1.29319
-64.4236
283.327
321.67
-84.5818
-324.792
-908.381
-353.099
-886.979
-70.8198
240.587
314.454
-111.169
-312.093
-847.621
-311.315
-872.034
-145.156
-135.944
8.8052
-290.781
-367.021
61.4996
-250.971
134.24
-87.6283
46.8016
129.34
-238.547
-338.499
-219.734
34.3125
167.083
-152.707
200.907
126.276
-93.499
-340.47
-690.981
-348.01
-739.894
-152.154
-33.4435
-208.499
27.3068
-327.993
-822.415
-321.203
-787.318
-558.663
-591.9
-579.212
-504.03
-523.998
-579.57
-542.596
-614.976
-533.351
-640.208
-662.954
-596.155
-504.834
-426.929
-522.737
-411.088
-494.656
-2632.22
-1883.38
-2940.93
-1958.92
-2239.73
-3041.01
-2471.77
-2180.93
-4266.53
-4864.42
7646.26
-4242.25
4661
627.145
-1044.55
-1581.56
-1228.61
-1650.46
-1361.57
-1469.48
-1468.87
-913.546
-939.839
-1003.15
-1200.42
-1179.88
-1133.3
-1054.6
-303.027
-899.277
-598.147
-652.309
-914.725
-907.536
-1036.44
-973.415
-746.67
-1165.57
-1490.16
-991.923
-941.869
-1788.28
-1476.69
-1040.85
-1512.54
-1142.24
-1040.89
-1766.59
-1878.2
-1567.56
-1879.96
-1351.31
-2161.7
-1906.56
-1935.75
-3943.24
-2483.54
-4427.19
-1380.22
-2653.39
-3217.32
-1119.68
-1601.88
-475.392
-2086.12
-625.978
-889.383
-2155.69
-2116.46
-2132.61
-3023.7
-1655
-2453.81
-1829.1
-2424.1
-680.215
-575.322
-648.494
-633.476
-603.054
-617.087
-825.733
-726.342
-1210.7
62.635
-894.796
-745.656
-470.9
-1187.31
-632.106
-655.86
-420.388
-729.116
-623.112
-666.431
-621.204
-616.457
-673.481
-645.563
-411.353
-728.609
-725.422
-493.641
-467.376
-753.971
-794.835
-260.111
-656.276
-669.478
-618.694
-640.982
-633.911
-634.858
-666.808
-696.36
-659.386
-704.91
-659.902
-651.349
-669.364
-644.348
-683.77
-691.626
-654.949
-681.877
-662.135
-652.266
-700.303
-654.783
-690.969
-580.198
-697.307
-695.351
-624.82
-740.541
-549.216
-609.928
-347.536
-540.753
-554.473
-673.453
-575.1
-700.207
-566.448
-682.364
-507.692
-652.027
-702.281
-696.924
-643.513
-685.988
-589.83
-683.095
-594.276
-653.344
-686.904
-646.426
-696.011
-683.566
-580.552
-679.785
-597.143
-621.865
-672.562
-631.504
-658.285
-648.386
-594.716
-652.938
-530.003
-556.393
-617.536
-628.696
-603.077
-620.187
-753.444
-858.835
-949.794
692.638
-1116.08
-1295.43
-526.061
-704.378
-413.842
-700.176
-943.514
-263.17
-29.9132
-748.24
-601.193
-636.646
-651.81
-705.995
-691.295
-637.17
-587.239
-633.532
-559.598
-474.434
-700.258
-482.335
-667.932
-616.373
-663.36
-595.001
-627.303
-636.915
-574.028
-628.553
-549.179
-608.11
-680.587
-434.757
-895.698
-552.746
-818.994
-617.858
-902.241
-804.617
-598.791
-934.212
-646.298
-836.324
-636.334
-924.727
-851.504
-649.632
-259.199
21.0309
-79.0509
-374.89
-949.414
-379.344
-950.851
161.263
182.508
-128.977
-1147.13
-1285.84
-1597.04
-958.697
-938.759
-1153.56
-1309.46
-1282.01
-1155.63
-1282.25
-1275.44
-1166.69
-1310.94
-1159.34
-1278.01
-1506.06
-1523.8
-1497.24
-1511.4
-1000.73
-1014.2
-1228.5
-1361.04
-1358.62
-1214.1
-1318.69
-1294.13
-1176.25
-1337.74
-1192.28
-1288.11
-1564.46
-1587.01
-1553.24
-1521.67
-306.656
-276.156
-136.618
-286.619
-415.724
-3.70978
-297.406
-112.273
-20.8215
-152.585
-58.7411
-340.976
-432.053
-319.997
-178.715
-37.6065
-156.428
106.192
101.05
-149.604
-399.353
-917.281
-388.015
-924.527
-160.416
121.691
-139.266
99.4239
-396.771
-933.383
-394.787
-928.509
-352.274
-371.635
-223.213
-333.873
-24.4199
-450.707
-198.969
-356.633
-64.5332
-231.112
-74.8997
-359.258
-467.514
-363.91
-216.559
-82.1779
-139.568
121.078
132.818
-145.514
-384.584
-946.497
-384.49
-942.946
-137.379
145.73
-133.316
143.462
-388.243
-936.371
-389.639
-939.8
-583.857
-589.311
-582.086
-587.931
-647.826
-618.534
-631.694
-629.032
-581.873
-576.537
-573.159
-583.431
-654.155
-634.47
-663.082
-631.465
-485.5
-508.941
-462.372
-518.852
-405.44
-302.345
-315.535
-426.34
-445.326
-344.381
-430.464
-317.94
-434.956
-497.678
-474.362
-466.143
-524.227
-520.221
-526.554
-525.001
-486.102
-502.667
-492.871
-499.184
-521.889
-528.183
-525.153
-526.579
-484.273
-503.912
-481.978
-498.936
-399.845
-425.066
-406.221
-420.165
-376.409
-391.848
-430.377
-458.455
-436.991
-449.901
-353.879
-354.471
-443.708
-427.487
-438.38
-433.433
-437.876
-458.1
-444.174
-451.007
-459.131
-453.386
-446.666
-466.402
-423.351
-431.072
-419.041
-434.636
-451.36
-451.333
-444.921
-457.702
-489.408
-482.251
-482.603
-493.537
-480.506
-478.318
-481.121
-475.701
-461.673
-478.868
-471.81
-467.608
-438.52
-496.921
-463.371
-474.178
-422.822
-303.291
-296.844
-402.058
-403.972
-292.593
-421.227
-299.089
-464.834
-470.47
-434.677
-496.894
-489.117
-479.606
-499.948
-470.703
-459.85
-472.009
-456.197
-476.374
-482.392
-463.025
-478.615
-465.955
-467.142
-497.077
-477.783
-484.868
-474.493
-503.8
-481.848
-494.2
-498.226
-480.114
-477.905
-496.417
-497.182
-479.05
-474.831
-505.798
-474.511
-487.702
-472.306
-491.05
-183.303
-272.352
-254.456
-176.203
-181.67
-255.43
-176.891
-19.094
-56.0048
-12.7656
-19.1622
-56.0122
-18.6988
-55.1949
-12.2373
-18.0012
-55.7173
-184.135
-273.815
-256.249
-177.633
-183.285
-256.955
-177.864
-19.0031
-56.0297
-12.6892
-18.9736
-56.1268
-18.557
-55.7523
-12.296
-18.1483
-55.9913
-378.889
-382.335
-369.008
-390.463
-318.28
-323.622
-365.648
-384.801
-374.039
-377.972
-328.461
-322.567
-412.537
-420.385
-409.405
-423.373
-445.511
-438.593
-432.217
-452.686
-428.474
-414.026
-425.704
-417.08
-427.878
-448.171
-440.265
-435.047
-417.549
-405.106
-414.636
-408.254
-421.339
-438.12
-430.137
-428.916
-404.107
-409.525
-411.813
-401.587
-434.896
-431.922
-424.281
-442.986
-465.356
-474.923
-480.85
-459.017
-445.667
-442.932
-437.69
-451.054
-453.247
-439.085
-445.473
-446.735
-457.993
-479.184
-473.939
-463.367
-443.389
-482.939
-450.057
-476.392
-413.533
-288.561
-287.731
-408.246
-407.362
-286.216
-411.81
-289.1
-452.398
-478.514
-484.967
-444.922
-460.66
-483.464
-467.716
-476.109
-458.9
-443.248
-451.569
-450.514
-448.603
-448.475
-441.045
-455.975
-470.417
-478.575
-486.215
-462.382
-464.116
-492.587
-477.346
-478.708
-472.646
-451.95
-456.304
-467.418
-481.74
-477.389
-495.069
-465.211
-454.436
-463.133
-449.035
-468.996
-454.735
-476.855
-442.452
-487.595
-408.017
-287.529
-290.369
-414.939
-415.639
-290.18
-407.414
-289.205
-443.565
-486.594
-454.428
-477.923
-475.597
-477.365
-463.304
-489.132
-451.442
-455.01
-444.895
-461.883
-465.002
-446.681
-458.825
-452.833
-462.732
-488.861
-473.31
-477.31
-455.79
-475.57
-471.466
-459.525
-448.9
-436.571
-440.867
-444.789
-443.292
-439.298
-435.154
-447.273
-461.112
-473.005
-477.186
-457.306
-441.788
-471.794
-438.959
-474.1
-402.839
-280.703
-282.342
-403.811
-404.473
-282.628
-403.14
-282.837
-439.023
-473.564
-471.334
-441.116
-458.69
-471.121
-454.897
-474.156
-442.527
-437.729
-434.347
-446.052
-446.355
-434.307
-438.262
-442.438
-454.974
-473.877
-471.128
-458.343
-352.276
-366.193
-354.299
-363.488
-303.655
-303.68
-353.093
-362.76
-352.337
-364.387
-303.801
-305.16
-388.786
-391.892
-418.866
-409.741
-390.565
-390.695
-387.557
-393.91
-411.283
-416.746
-408.164
-419.905
-392.072
-387.247
-389.546
-389.459
-408.524
-421.287
-412.252
-417.629
-439.371
-472.965
-439.652
-471.733
-403.183
-280.47
-281.051
-402.735
-402.529
-279.583
-402.568
-281.07
-440.343
-471.587
-439.379
-472.919
-472.601
-456.485
-435.911
-444.032
-455.802
-473.2
-471.49
-457.528
-445.755
-434.702
-443.116
-437.743
-457.705
-471.515
-455.646
-473.442
-443.326
-438.193
-435.058
-445.761
-430.277
-315.31
-673.857
-448.808
-685.796
-1012.64
-1273.66
-639.794
-1164.87
-1210.91
-938.423
-1091.08
-1521.28
-1463.02
-1443.42
-278.394
-226.215
-425.615
-363.459
-232.055
-3603.57
-6178.41
-5985.82
-8490.95
-4870.98
-3926.76
-4786.18
-1404.26
-1415.04
-1553.93
-1513.88
-1390.39
-1513.9
-1424.26
-1343.77
-1409.27
-1214.69
-1500.99
-1235.78
-1337.39
-1475.57
-2853.66
-7094.61
-9618.79
-6344.21
-3493.34
-3003.48
-6979.03
-1436.84
-1431.75
-1494.47
-1549.42
-1438.93
-1479.85
-1436.21
-1438.92
-1508.12
-1459.76
-1574.68
-1444.81
-1488.53
-1446.96
-419.918
-566.962
-753.036
-565.82
-567.626
-742.005
-292.886
-1420.39
-1449.77
-1280.92
-1525.7
-1301.54
-1466.79
-1661.52
-1971.59
-934.194
-1256.91
-604.912
-1168.76
-1478.56
-2042.14
-1666.9
-1634.47
-1468.03
-1549.63
-1647.58
-1571.85
-1645.99
-1679.3
-1566.45
-1649.24
-1471.24
-1656.18
-1664.21
-1578.34
-1606.36
-1555.16
-1490.77
-1396.86
-1559.14
-1542.8
-1512.85
-1601.74
-1558.93
-1423.24
-1623.33
-1576.08
-1527.01
-1652.44
-3058.39
-5256.22
-1872.64
-5613.69
-885.003
-3014.44
-6624.55
-1792.41
-4429.44
4049.02
97.3039
2820.83
-3506.3
-2146.15
-1673.99
-1542.13
-1663.56
-1591.79
-1610.59
-1527.79
-1427.85
-1616.73
-1595.93
-1501.4
-1580.26
-1490.66
-1414.19
-1592.9
-1584.54
-1486.14
-1584.79
-1636.19
-1663.11
-1430.94
-1531.85
-1644.48
-1650.1
-1521.36
-1617.16
-1494.72
-1422.55
-1605.12
-1627.98
-1508.81
-1600.22
)
;

boundaryField
{
    left
    {
        type            calculated;
        value           nonuniform List<scalar> 
598
(
-472.994
-749.966
-7.46779
-280.378
-421.705
-274.325
-452.02
-905.217
-668.503
-765.021
-547.262
-16.1362
-652.921
-628.212
-274.931
-279.895
-351.748
-346.19
-497.433
-352.354
-345.021
-1068.61
-832.962
-156.427
-621.775
-632.976
-388.783
-421.191
-433.344
-425.338
-604.124
-510.143
-423.512
-420.69
-2002.34
-603.791
-205.593
-807.101
-11579.9
-85.4332
-408.315
-126.981
-288.453
-292.843
-271.42
-271.702
-569.245
-13692
-677.28
-603.115
-608.11
-383.792
-597.798
-585.665
-665.103
-637.213
-567.247
-97.5912
-288.83
-188.947
-565.086
-349.12
-188.588
-440.164
-613.293
-277.885
-278.346
-449.091
-436.683
-350.376
-462.106
-470.891
-452.985
-459.713
-349.616
-364.567
-508.471
-637.479
-475.041
-497.981
-357.664
-493.302
-454.744
-342.33
-448.631
-451.303
-448.717
-341.815
-420.835
-764.979
-546.953
-542.979
-362.289
-359.646
-524.36
-498.831
-357.733
-356.315
-552.742
-565.664
-939.157
-30.733
-60.5473
-23.8851
-282.288
-50.0846
-49.4651
-56.0118
-53.0457
-343.839
-270.791
-47.0809
-47.4317
-47.0886
-273.439
-536.406
-316.661
-55.1378
-1178.68
-1323.61
-948.786
-755.293
-645.084
-659.161
-653.816
-663.874
-584.78
-28.8233
-107.354
-69.262
-562.386
-422.335
-446.303
-735.623
-680.423
-276.477
-47.4855
-47.4241
-49.4795
-48.684
-279.494
-386.65
-381.902
-351.299
-466.877
-467.671