/*--------------------------------*- C++ -*----------------------------------*\
| =========                 |                                                 |
| \\      /  F ield         | OpenFOAM: The Open Source CFD Toolbox           |
|  \\    /   O peration     | Version:  2012                                  |
|   \\  /    A nd           | Website:  www.openfoam.com                      |
|    \\/     M anipulation  |                                                 |
\*---------------------------------------------------------------------------*/
FoamFile
{
    version     2.0;
    format      ascii;
    class       volVectorField;
    location    "0.107/solid";
    object      sigmaMinDir;
}
// * * * * * * * * * * * * * * * * * * * * * * * * * * * * * * * * * * * * * //

dimensions      [1 -1 -2 0 0 0 0];


internalField   nonuniform List<vector> 
3124
(
(0.222786 0.71211 0.665782)
(0.956047 0.169801 -0.239042)
(0.542762 -0.0535813 0.838176)
(-0.0414311 -0.0607117 0.997295)
(0.123755 -0.0065468 0.992291)
(0.121433 0.000170901 0.9926)
(0.932072 0.339308 0.126933)
(0.0524173 0.163238 0.985193)
(0.161834 0.985752 0.0458503)
(0.489593 -0.0117335 0.871872)
(-0.079564 -0.0574239 0.995174)
(0.510501 0.0342939 0.859193)
(0.0520616 0.0864944 0.994891)
(-0.165058 -0.00963346 0.986237)
(0.468001 0.0247291 0.883382)
(0.16859 0.985538 0.0170921)
(-0.141536 -0.022608 0.989675)
(-0.0974031 -0.00171267 0.995244)
(0.121279 -0.00482385 0.992607)
(0.123141 -0.00114247 0.992388)
(-0.0988848 -0.00129778 0.995098)
(-0.0976588 -0.000314386 0.99522)
(-0.098696 -0.000418533 0.995118)
(0.120689 0.753804 0.645921)
(0.200293 0.0996649 0.974654)
(-0.326943 0.69762 0.637522)
(0.149445 0.955178 0.255542)
(0.419206 0.669701 0.612998)
(0.176041 0.942252 0.284905)
(-0.17957 0.949611 0.256893)
(0.361453 0.47814 0.800459)
(0.391622 0.868634 0.303491)
(0.0160768 0.00261977 0.999867)
(0.0530089 0.0905323 0.994482)
(0.314755 0.94916 -0.00489969)
(-0.0345358 0.999366 0.00862728)
(0.013806 -0.0138261 0.999809)
(0.0332834 -0.0130904 0.99936)
(0.00859751 -0.00176579 0.999961)
(0.0102308 -0.00244028 0.999945)
(0.00833591 -0.00124535 0.999964)
(0.00811044 -0.000322789 0.999967)
(-0.0531971 0.608544 0.791735)
(0.352317 -0.337286 0.872989)
(0.70798 -0.508018 -0.490594)
(0.235477 0.109598 0.96568)
(-0.400485 0.700506 0.590681)
(0.439119 -0.298472 0.847401)
(0.303213 -0.0394503 0.952106)
(0.844614 -0.399898 -0.355961)
(0.105086 -0.0288285 0.994045)
(0.111412 -0.0185405 0.993601)
(0.127031 -0.00431124 0.991889)
(0.128154 0.000799522 0.991754)
(0.596862 0.569773 0.564902)
(0.467253 -0.210822 0.85862)
(0.511065 0.314062 0.800111)
(0.553144 0.792294 0.257493)
(0.183505 0.0677901 0.980679)
(-0.194393 0.881265 0.430795)
(0.228307 0.510021 0.82931)
(-0.0150378 0.989817 0.141551)
(0.156529 0.981918 0.106474)
(-0.101705 0.994786 -0.00748721)
(0.391982 0.917727 0.0642388)
(-0.14487 0.981215 0.127398)
(0.171819 0.982435 0.072802)
(0.383898 0.914245 0.129532)
(-0.211804 0.977175 -0.0163755)
(-0.305469 0.952198 0.00275938)
(0.451212 -0.216891 0.86566)
(0.267381 0.0636512 0.961486)
(0.35207 0.341349 0.871509)
(0.582675 0.809329 0.0740082)
(0.562255 0.810717 0.163119)
(-0.135778 0.192969 0.971765)
(0.199235 -0.323437 0.925037)
(0.169208 0.22598 0.959324)
(0.173309 0.0945999 0.980314)
(0.086518 0.0641626 0.994182)
(-0.00996655 0.0049145 0.999938)
(-0.122163 0.208074 0.970454)
(0.049484 0.102567 0.993495)
(0.251739 0.0865503 0.963917)
(0.108908 0.0515592 0.992714)
(0.116385 0.0892369 0.989187)
(0.275419 0.961297 -0.00719068)
(0.177854 0.984043 0.00519161)
(-0.0900362 0.995887 -0.0101687)
(0.382507 0.923535 0.0277691)
(0.0495143 0.997707 0.0461505)
(-0.0413026 0.998896 0.0223735)
(0.396055 0.918215 0.00464004)
(0.576975 0.816762 -3.42533e-05)
(-0.121347 0.992577 0.00812579)
(-0.200326 0.979622 -0.0144807)
(-0.13157 0.991125 0.0189855)
(0.567712 0.821673 0.050554)
(0.572421 0.819873 0.0119265)
(-0.0121065 -0.0135622 0.999835)
(-0.105478 -0.0105901 0.994365)
(0.00570336 -0.0129804 0.999899)
(0.0158438 -0.00594483 0.999857)
(0.0281504 -0.0134722 0.999513)
(-0.100841 -0.00496897 0.99489)
(-0.00714136 -0.00445987 0.999965)
(0.00350426 -0.00755191 0.999965)
(0.120365 0.000199918 0.99273)
(0.120636 -0.00459416 0.992686)
(0.0145441 -0.00421325 0.999885)
(0.0110898 -0.00283581 0.999934)
(-0.0154411 -0.00130913 0.99988)
(-0.0987243 -0.000302375 0.995115)
(-0.0138549 -0.00190257 0.999902)
(-0.00890365 -0.00300087 0.999956)
(-0.0985606 -0.00084383 0.995131)
(-0.0128775 -0.00184249 0.999915)
(-0.0156567 -0.001254 0.999877)
(-0.0975799 -0.00106564 0.995227)
(-0.0157871 -0.000138249 0.999875)
(0.00823023 0.000277096 0.999966)
(-0.0969408 -0.000186839 0.99529)
(-0.0156324 -2.60245e-05 0.999878)
(0.00830665 -0.00416779 0.999957)
(0.0773166 0.413245 0.907332)
(0.0489085 0.00501169 0.998791)
(0.0526148 0.019982 0.998415)
(0.0507174 -0.0119449 0.998642)
(0.0546646 -0.0058834 0.998487)
(0.0341127 -0.00197367 0.999416)
(0.0343037 -0.00274166 0.999408)
(0.0338401 -0.00173921 0.999426)
(0.0334622 -0.00103011 0.999439)
(0.0243903 -0.0588504 0.997969)
(-0.335409 0.141319 0.931413)
(-0.0827314 -0.348823 0.93353)
(0.892976 0.384737 -0.233605)
(0.916201 0.158445 -0.368065)
(-0.16131 -0.209832 0.964339)
(-0.198243 0.27348 0.941227)
(0.654765 0.679702 0.330588)
(0.232924 0.0980306 0.967541)
(0.520178 -0.137231 0.842961)
(0.564276 -0.0231169 0.825263)
(0.0746128 -0.0421333 0.996322)
(0.224041 0.870197 0.438819)
(0.584532 -0.104694 0.804588)
(-0.11018 -0.0470455 0.992798)
(0.050832 -0.0662954 0.996504)
(0.348716 -0.0476858 0.936015)
(0.124392 -0.0053752 0.992219)
(0.457358 -0.012435 0.889196)
(0.459029 -0.0156145 0.888284)
(0.46008 -0.00157034 0.887876)
(0.12336 -0.00467827 0.992351)
(0.465073 -0.00388528 0.885264)
(0.133884 0.0010142 0.990996)
(0.47606 0.00239654 0.879409)
(0.860265 0.386458 0.332556)
(0.802486 0.391813 0.449999)
(0.945545 0.111795 0.305691)
(0.850527 0.497542 -0.170457)
(0.961242 0.226662 -0.156967)
(0.834626 0.0914762 0.543167)
(0.765641 0.591238 0.253439)
(-0.0355281 0.0484611 0.998193)
(0.0739963 0.146478 0.986442)
(0.044681 -0.0210345 0.99878)
(0.132156 0.312331 0.940736)
(0.172427 0.142528 0.974656)
(0.113203 0.0909832 0.989397)
(0.493075 -0.0649648 0.867558)
(0.419939 0.039575 0.906689)
(0.0605176 -0.000230518 0.998167)
(0.0655529 0.129829 0.989367)
(0.463982 0.00689175 0.885818)
(-0.377481 -0.0614623 0.923975)
(-0.20851 -0.0144242 0.977914)
(-0.699853 -0.0451943 0.712856)
(0.0333526 0.174095 0.984164)
(0.102648 0.0972548 0.989952)
(0.513642 0.0374262 0.857188)
(0.465398 0.0901504 0.880498)
(0.0777763 0.767877 0.635859)
(0.0528921 0.203537 0.977638)
(0.471789 0.0807839 0.878003)
(-0.0623847 0.00310921 0.998047)
(-0.184914 0.0143362 0.98265)
(-0.0692287 0.0297358 0.997158)
(0.167323 -0.0122081 0.985827)
(0.110988 0.0106246 0.993765)
(0.39507 0.0392336 0.917813)
(0.442432 0.0703143 0.894041)
(0.0622689 0.00768642 0.99803)
(0.0808584 0.0971441 0.99198)
(0.396903 0.0776836 0.914567)
(-0.0492449 -0.0183314 0.998618)
(-0.123637 -0.0267777 0.991966)
(-0.0374742 -0.0307604 0.998824)
(0.0376474 -0.00557844 0.999276)
(0.0369116 -0.0087679 0.99928)
(-0.0974719 -0.00184837 0.995237)
(-0.0285679 -0.00134089 0.999591)
(-0.0275783 -0.00233287 0.999617)
(0.460086 -0.00504497 0.88786)
(0.120923 4.89179e-05 0.992662)
(0.461975 -0.00241974 0.88689)
(0.456664 -0.00838127 0.8896)
(0.122236 -0.00501086 0.992488)
(0.459625 -0.00815993 0.888076)
(0.0378288 -0.00485676 0.999272)
(0.037311 -0.00433461 0.999294)
(-0.0323548 -0.000887677 0.999476)
(-0.0990112 -0.000493076 0.995086)
(-0.0322097 -0.00115097 0.99948)
(-0.0294239 -0.00088674 0.999567)
(-0.0980918 -0.000845878 0.995177)
(-0.0301419 -0.000720039 0.999545)
(-0.0323318 -0.00114891 0.999477)
(-0.0985677 -0.00105607 0.99513)
(-0.0321755 -0.000719711 0.999482)
(0.0339616 0.000290693 0.999423)
(-0.0955481 -0.00032881 0.995425)
(-0.0304853 -0.000387598 0.999535)
(-0.183072 0.58666 0.788869)
(-0.182623 0.604896 0.775081)
(-0.0284903 0.628186 0.777542)
(0.0778998 0.888349 0.452513)
(-0.265867 0.912143 0.311946)
(0.0237227 0.494417 0.868901)
(-0.339513 0.747762 0.570599)
(0.00174823 0.0324176 0.999473)
(0.0317765 -0.00332108 0.999489)
(0.17773 0.474214 0.862283)
(0.03838 0.687238 0.725418)
(0.160422 0.402209 0.901384)
(-0.102805 0.622923 0.775499)
(-0.447658 0.856335 0.257475)
(-0.186437 0.662778 0.725236)
(0.00152887 0.675441 0.737412)
(-0.357952 0.898594 0.253769)
(-0.033726 0.94056 0.337949)
(0.0631257 0.566687 0.821512)
(0.145588 0.876349 0.459148)
(-0.0336239 0.980169 0.195289)
(-0.0181004 0.858706 0.512148)
(0.318462 0.888221 0.331128)
(0.303585 0.817498 0.489421)
(0.043022 0.865645 0.498806)
(0.142823 0.941904 0.304005)
(0.199312 0.733937 0.649316)
(0.0325775 0.751995 0.658364)
(0.440236 0.424352 0.791276)
(0.270127 0.492994 0.827036)
(0.40282 0.635617 0.658579)
(0.109529 0.652867 0.749512)
(0.301989 0.476875 0.825465)
(0.0634824 0.101126 0.992846)
(0.0603337 0.0369062 0.997496)
(0.0431215 0.00279022 0.999066)
(0.0205917 0.0207457 0.999573)
(0.0450931 0.0197737 0.998787)
(0.0613096 0.0879081 0.99424)
(0.0312362 0.0429845 0.998587)
(0.0521081 0.0384649 0.9979)
(0.115367 0.993311 0.00493634)
(0.351569 0.936097 0.0110183)
(0.222259 0.974901 0.0130036)
(0.0423691 -0.0145917 0.998995)
(0.0171218 -0.0177884 0.999695)
(0.044176 -0.0111825 0.998961)
(0.0500583 -0.0213647 0.998518)
(0.0558982 -0.00246949 0.998433)
(0.0275691 -0.0161668 0.999489)
(0.0526726 -0.0154456 0.998492)
(0.051347 -0.00645743 0.99866)
(0.0355594 -0.00337636 0.999362)
(0.034802 -0.00283991 0.99939)
(0.0339563 -0.00201639 0.999421)
(0.00905997 -0.00218101 0.999957)
(0.0341545 -0.00252259 0.999413)
(0.0352373 -0.00292713 0.999375)
(0.00959194 -0.00215269 0.999952)
(0.0345895 -0.00255656 0.999398)
(0.0337168 -0.00140979 0.99943)
(0.00824433 -0.000898566 0.999966)
(0.0334615 -0.000982121 0.99944)
(0.0334768 -3.1921e-05 0.999439)
(0.033294 -0.00102577 0.999445)
(0.00815358 -0.000716625 0.999967)
(0.0334719 -0.000300452 0.99944)
(0.0333583 -0.000845831 0.999443)
(0.0253878 -0.064303 0.997607)
(-0.176713 0.335131 0.925451)
(-0.208345 0.490736 0.846032)
(-0.0409736 0.533529 0.844789)
(-0.364912 0.869921 0.331779)
(-0.223266 0.022316 0.974502)
(-0.0717292 0.31906 0.945016)
(0.372039 -0.11962 0.920477)
(0.259292 -0.327724 0.908496)
(0.236003 0.0216127 0.971512)
(0.345789 -0.406325 0.845772)
(0.969701 0.136856 0.202361)
(-0.580178 -0.129414 0.804143)
(0.0913483 -0.377589 0.921456)
(-0.186961 -0.00692105 0.982343)
(0.762048 -0.647414 -0.0117864)
(-0.486046 0.545523 0.682762)
(0.981858 -0.137389 -0.130685)
(-0.502879 0.841264 0.198465)
(0.999093 -0.0350594 0.0241616)
(-0.451548 -0.0788997 0.888752)
(0.0646099 -0.0213557 0.997682)
(0.176457 0.592402 0.78608)
(0.0109024 0.670716 0.741634)
(-0.0670865 0.382977 0.921319)
(0.991632 -0.113919 -0.0607261)
(-0.684259 0.717047 0.132792)
(-0.0727918 0.761416 0.644164)
(-0.47243 0.628335 0.618066)
(-0.151437 0.941816 0.300083)
(0.927434 -0.367487 -0.069427)
(0.728267 0.577723 0.368597)
(0.506716 -0.186853 0.841621)
(0.244246 0.0501362 0.968416)
(0.504277 -0.332563 0.796936)
(0.946299 0.271897 0.1749)
(0.262481 0.248033 0.932515)
(0.594904 -0.190465 0.780905)
(0.709861 0.669326 0.219316)
(0.579509 -0.0147411 0.814832)
(-0.0651131 -0.243663 0.967672)
(0.511173 0.0151954 0.859344)
(0.93267 0.248993 -0.261014)
(0.249768 0.901592 0.353197)
(0.667161 -0.0224171 0.744576)
(0.878445 0.357811 0.316709)
(0.830246 -0.549594 -0.0929372)
(0.877008 -0.20375 0.435136)
(0.966708 -0.104498 -0.233571)
(0.99319 0.110174 0.0378946)
(0.984839 0.0112488 -0.173108)
(0.765897 -0.121232 0.631431)
(0.0693994 -0.0539471 0.996129)
(0.431049 -0.0384324 0.90151)
(0.383852 -0.0468665 0.922204)
(0.123254 -0.0119977 0.992303)
(0.439662 -0.0309944 0.897628)
(0.4566 -0.020441 0.889437)
(0.124142 0.000495445 0.992264)
(0.466447 -0.00226798 0.884546)
(0.466111 0.000195547 0.884726)
(0.132469 -0.00425527 0.991178)
(0.467758 0.00126397 0.883856)
(0.474561 -0.0012747 0.880222)
(0.360824 0.887287 0.287277)
(0.547969 0.512572 0.661059)
(0.775374 0.100131 0.623513)
(0.616289 0.511313 0.598955)
(0.556863 0.391889 0.732343)
(0.543034 0.709812 0.448644)
(0.325905 0.598557 0.731789)
(0.63595 0.211909 0.742066)
(0.61264 0.632562 0.473855)
(0.940492 0.287022 0.181916)
(0.764381 -0.0427215 0.643348)
(0.022536 -0.0686963 0.997383)
(0.698774 0.0757625 0.71132)
(0.922431 0.2522 -0.292433)
(0.500535 0.463089 0.731446)
(0.839645 0.0544096 0.540404)
(0.78716 -0.134487 0.601908)
(0.185641 0.545012 0.817618)
(0.558598 0.291483 0.776535)
(0.663341 0.179381 0.7265)
(0.608313 0.472492 0.637735)
(0.532922 0.488684 0.690783)
(0.704028 0.1474 0.694707)
(0.597364 0.660715 0.454546)
(0.50907 0.778272 0.367614)
(0.319939 0.77969 0.538259)
(-0.389439 0.92085 -0.0192987)
(-0.217768 0.883247 0.415272)
(-0.199578 0.264717 0.943447)
(-0.16901 0.928303 0.331194)
(0.217626 0.529725 0.819774)
(0.251263 0.660707 0.707342)
(0.18643 0.568571 0.801231)
(0.0465097 0.026802 0.998558)
(0.114842 0.092139 0.989101)
(0.0501682 0.00188628 0.998739)
(0.183749 0.110305 0.976765)
(0.0816408 0.00280161 0.996658)
(0.0578771 -0.0336361 0.997757)
(0.122683 0.156842 0.979974)
(-0.14747 0.987156 0.0614529)
(-0.242718 0.969843 0.0221881)
(0.0972896 0.829683 0.549692)
(-0.0257137 0.215211 0.976229)
(-0.164155 0.557239 0.813964)
(0.172604 0.585543 0.792053)
(0.180951 0.290085 0.939738)
(-0.0941237 0.892685 0.440743)
(0.0840827 0.0596537 0.994672)
(0.13472 0.415729 0.899455)
(0.161451 0.983502 0.0815964)
(-0.0100817 0.995568 0.0935064)
(0.129882 0.990394 0.0474327)
(0.300186 0.935232 0.187696)
(0.159429 0.97301 0.166832)
(0.0106986 0.998779 0.0482338)
(0.31841 0.941281 0.112271)
(0.165313 0.984609 0.0567103)
(0.218658 0.975083 0.0374386)
(0.01667 0.999856 0.00324378)
(0.308355 0.950631 0.0349047)
(0.0154588 0.999653 0.0213065)
(0.311943 0.946995 0.0767556)
(0.165206 0.986185 0.0121035)
(-0.41239 0.910853 0.0167417)
(-0.349973 0.93673 -0.00741761)
(-0.222126 0.975011 -0.00363607)
(-0.0869133 0.995821 -0.0280461)
(-0.0907872 0.995765 0.0145086)
(-0.174804 0.983994 0.0346239)
(-0.226262 0.973162 0.0419636)
(-0.0948265 0.995391 0.0142985)
(-0.332955 0.942724 -0.0203179)
(-0.332074 0.943237 0.00558241)
(0.156325 0.00508894 0.987693)
(0.48029 -0.148321 0.864478)
(0.0458623 -0.0737124 0.996224)
(0.521627 -0.0260861 0.852775)
(0.0939123 0.0669468 0.993327)
(0.206459 0.211659 0.955288)
(0.489223 -0.0500064 0.870724)
(0.144119 0.0639712 0.98749)
(0.351827 0.063162 0.933932)
(0.061161 0.00369965 0.998121)
(0.279959 0.08017 0.956659)
(0.0870404 0.00999537 0.996155)
(0.0718099 0.129498 0.988976)
(0.392794 0.0433796 0.918603)
(0.13928 0.0160715 0.990123)
(-0.0433682 0.467237 0.883068)
(0.482412 0.170821 0.859127)
(0.282236 0.171023 0.943978)
(0.256561 0.314922 0.913784)
(0.0966962 0.0417197 0.994439)
(0.409322 0.0627501 0.91023)
(0.383206 0.881 0.277476)
(0.378675 0.917986 0.117928)
(0.524108 0.845741 0.100165)
(0.591025 0.802142 0.0851919)
(0.545747 0.822145 0.161983)
(0.354321 0.932293 0.0727133)
(0.390687 0.910607 0.134751)
(0.479594 0.825478 0.297617)
(0.579001 0.806018 0.122855)
(0.532068 0.817127 0.221829)
(-0.242575 -2.69592e-05 0.970133)
(0.745495 -0.0343117 -0.665627)
(0.722097 0.0354823 -0.690881)
(0.0496887 0.0652355 0.996632)
(0.52766 -0.0600184 0.847333)
(-0.0893638 0.992105 0.0879913)
(0.310536 -0.191267 0.93112)
(0.195929 0.0583815 0.978879)
(-0.132331 0.638774 0.757929)
(0.487215 0.0210445 0.873029)
(0.094571 0.0312526 0.995027)
(0.557066 0.158626 0.815178)
(-0.359787 -0.0378082 0.932268)
(0.0434124 0.19945 0.978946)
(0.572225 0.120715 0.811164)
(0.12597 -0.102751 0.986698)
(0.296116 -0.183742 0.937312)
(-0.249834 0.967455 -0.0401606)
(0.575938 0.138784 0.805626)
(-0.00410883 0.277344 0.960762)
(0.0271519 0.0348995 0.999022)
(0.046725 0.103081 0.993575)
(-0.00473298 0.236453 0.971631)
(0.0654421 0.0472148 0.996739)
(0.118389 0.0859473 0.989241)
(0.0388021 0.147523 0.988297)
(0.0747328 0.0910092 0.993042)
(-0.0413149 0.00633085 0.999126)
(-0.00308355 0.0235429 0.999718)
(-0.0373085 0.0276186 0.998922)
(-0.19424 0.043791 0.979976)
(0.0185865 0.149292 0.988618)
(-0.0537361 0.0688953 0.996176)
(0.012603 0.04987 0.998676)
(0.0370686 0.12126 0.991928)
(-0.0171754 0.0597678 0.998065)
(0.124093 0.0719822 0.989656)
(0.321809 0.0665989 0.944459)
(0.0956589 0.03157 0.994913)
(0.221862 0.119238 0.96776)
(0.059781 0.0244648 0.997912)
(0.0929317 0.109142 0.989673)
(0.306432 0.104449 0.946145)
(0.115987 0.176357 0.977469)
(0.306272 0.150861 0.939914)
(0.221255 0.117505 0.968111)
(0.0499376 0.132346 0.989945)
(0.346164 0.0900005 0.933847)
(0.0761174 0.0696755 0.994661)
(0.176265 0.0847385 0.980688)
(0.154661 0.115562 0.981186)
(0.0366435 0.138037 0.989749)
(0.253045 0.0889853 0.963353)
(0.194883 0.980772 0.0103498)
(0.254449 0.967062 -0.00689884)
(0.101478 0.994817 0.00640367)
(0.335775 0.941941 -0.00174946)
(0.211238 0.977418 -0.00573853)
(0.0780132 0.996952 0.000445291)
(0.319242 0.947659 0.00522203)
(0.179422 0.983709 -0.0111354)
(0.183272 0.983027 -0.0082993)
(0.0225338 0.999636 -0.0148145)
(0.295752 0.955113 0.0170101)
(0.168594 0.985615 0.011794)
(0.0478189 0.998769 -0.0131759)
(0.302059 0.953266 -0.00670186)
(0.402793 0.915118 0.0178045)
(0.520365 0.853688 0.0208868)
(-0.201322 0.979471 0.010299)
(0.024991 0.999571 0.0152987)
(-0.207309 0.978269 -0.00350585)
(-0.237374 0.971418 0.00110831)
(-0.0773593 0.996751 -0.0224407)
(-0.180069 0.983628 0.00715524)
(-0.0284452 0.999593 -0.00234511)
(-0.32905 0.944196 -0.0148544)
(-0.259299 0.965665 -0.0159474)
(0.0207526 0.999727 0.0107705)
(-0.153671 0.987896 0.0211505)
(-0.0104137 0.999855 0.0134759)
(0.391748 0.920061 -0.00462316)
(0.364082 0.931196 0.0178292)
(0.493782 0.86618 0.0768881)
(0.562111 0.826248 0.0366765)
(0.489173 0.871014 0.0452215)
(0.340274 0.936949 0.079619)
(0.351461 0.936202 0.000330412)
(0.509117 0.860433 0.021302)
(0.566672 0.823791 0.015835)
(0.49973 0.865415 0.0364115)
(-0.0385773 -0.0146844 0.999148)
(-0.00789837 -0.0246059 0.999666)
(-0.0333804 -0.028987 0.999022)
(-0.112161 -0.0193968 0.993501)
(-0.0293985 -0.0104128 0.999514)
(-0.0314559 -0.0255495 0.999179)
(0.000686638 -0.0252976 0.99968)
(-0.0295181 -0.0119756 0.999493)
(-0.0296467 -0.0280852 0.999166)
(0.0414079 -0.0259357 0.998806)
(0.0372579 -0.0156347 0.999183)
(0.0378552 -0.00633549 0.999263)
(0.0176039 -0.00871285 0.999807)
(0.0379254 -0.00945391 0.999236)
(0.0454634 -0.0205157 0.998755)
(0.0211627 -0.0121135 0.999703)
(0.0395012 -0.0148894 0.999109)
(-0.0982347 -0.00374855 0.995156)
(-0.0276412 -0.00335905 0.999612)
(-0.0269533 -0.00300342 0.999632)
(-0.0386804 -0.00255271 0.999248)
(-0.00471822 -0.00656601 0.999967)
(-0.0362282 -0.00394805 0.999336)
(-0.0308584 -0.00417009 0.999515)
(-0.00113474 -0.00821175 0.999966)
(-0.0332981 -0.0046901 0.999434)
(0.120693 -0.00504299 0.992677)
(0.45628 -0.0035815 0.889829)
(0.461341 -0.00589052 0.887203)
(0.121988 0.000153343 0.992532)
(0.456698 -0.00656284 0.889598)
(0.459912 -0.00469194 0.887952)
(0.0361638 -0.00344349 0.99934)
(0.0366781 -0.00433515 0.999318)
(0.0376844 -0.00479584 0.999278)
(0.0133403 -0.0035492 0.999905)
(0.0370983 -0.00418919 0.999303)
(0.0358093 -0.00337925 0.999353)
(0.012172 -0.00329135 0.999921)
(0.0363904 -0.00399864 0.99933)
(-0.0456913 -0.000999238 0.998955)
(-0.01484 -0.00164003 0.999889)
(-0.045577 -0.00129297 0.99896)
(-0.0989211 -0.0011354 0.995095)
(-0.0316483 -0.00133916 0.999498)
(-0.0320009 -0.00108386 0.999487)
(-0.0143379 -0.00182258 0.999896)
(-0.0448514 -0.00159851 0.998992)
(-0.0452151 -0.00143023 0.998976)
(-0.0404555 -0.00167372 0.99918)
(-0.0103365 -0.00250918 0.999943)
(-0.0417717 -0.00141546 0.999126)
(-0.0984616 -0.000140702 0.995141)
(-0.0313152 -7.41113e-05 0.99951)
(-0.0308585 -0.000832053 0.999523)
(-0.0116057 -0.00224627 0.99993)
(-0.0439766 -0.000650588 0.999032)
(-0.0427714 -0.00138315 0.999084)
(-0.0458033 -0.0012193 0.99895)
(-0.0155514 -0.000927152 0.999879)
(-0.0459915 -0.000831301 0.998941)
(-0.0981678 -0.000426959 0.99517)
(-0.031748 -0.000269639 0.999496)
(-0.0319636 -0.000704329 0.999489)
(-0.0155893 -0.000494251 0.999878)
(-0.0456451 -0.0001286 0.998958)
(-0.0459502 -0.000519809 0.998944)
(0.0336149 0.000120894 0.999435)
(0.0336159 0.000748283 0.999435)
(0.00874947 0.000213353 0.999962)
(0.033963 0.000273044 0.999423)
(0.033605 0.000342983 0.999435)
(0.00850459 0.00049251 0.999964)
(0.0337128 0.000656484 0.999431)
(-0.0963401 -0.00094544 0.995348)
(-0.0314018 -0.000509151 0.999507)
(-0.0309081 -0.000208209 0.999522)
(-0.0148751 0.000259655 0.999889)
(-0.0450139 -1.31909e-06 0.998986)
(-0.0454087 -0.000306257 0.998968)
(-0.0151083 0.000120208 0.999886)
(-0.0453289 -9.23022e-05 0.998972)
(0.0287565 -0.040824 0.998752)
(0.0206938 -0.0632773 0.997781)
(-0.159655 -0.0305655 0.9867)
(-0.00607643 -0.0690171 0.997597)
(-0.00159882 -0.0377681 0.999285)
(-0.14924 -0.0435166 0.987843)
(0.07153 -0.0663704 0.995228)
(0.135153 -0.00549545 0.99081)
(-0.0815216 -0.0099664 0.996622)
(0.123744 -0.00376191 0.992307)
(0.252038 -0.0051428 0.967704)
(-0.0819356 0.00191386 0.996636)
(0.135974 -0.00493472 0.9907)
(0.252677 -0.00605949 0.967532)
(0.136805 0.00037003 0.990598)
(0.250578 -0.00151049 0.968095)
(-0.0808781 0.00653223 0.996703)
(0.121227 -0.00339272 0.992619)
(0.137219 0.000140626 0.990541)
(-0.0815548 -0.00545082 0.996654)
(0.250877 -0.00139126 0.968018)
(-0.0769295 -0.0379531 0.996314)
(-0.0404073 -0.0610928 0.997314)
(-0.177944 -0.0362169 0.983374)
(-0.12366 -0.0458722 0.991264)
(-0.0271301 -0.0373346 0.998934)
(-0.199836 -0.023576 0.979546)
(-0.11062 -0.0567172 0.992243)
(0.0303217 0.116577 0.992719)
(0.0517214 0.155776 0.986437)
(0.0448833 -0.0253659 0.99867)
(0.0707365 0.0994471 0.992525)
(0.0553993 0.0116891 0.998396)
(0.0303807 0.130931 0.990926)
(0.0693209 0.149489 0.98633)
(0.13628 -0.00346198 0.990664)
(0.250334 -0.00299694 0.968155)
(-0.0809368 -0.0088977 0.99668)
(0.120444 -0.0012276 0.992719)
(0.137455 -0.00306276 0.990503)
(-0.0816648 0.00308013 0.996655)
(0.249981 -0.00317668 0.968245)
(0.135006 -0.00102879 0.990844)
(-0.0816488 0.0055674 0.996646)
(0.251277 -0.00320654 0.96791)
(0.122101 -0.00427218 0.992508)
(0.135555 -0.00161333 0.990768)
(-0.082383 -0.00618299 0.996582)
(0.25055 -0.0026352 0.9681)
(0.214529 0.914287 0.343595)
(0.0886699 0.987077 0.133481)
(0.0232738 0.9724 0.232156)
(0.182717 0.947504 0.262392)
(0.22186 0.912135 0.344655)
(0.187079 0.939973 0.285397)
(0.221727 0.95036 0.218296)
(0.088923 0.776912 0.623298)
(0.129381 0.61195 0.780242)
(0.218393 0.46209 0.859521)
(0.101645 0.675214 0.730585)
(0.215445 0.506806 0.834705)
(0.270595 0.962643 0.009827)
(0.285815 0.958225 0.0107425)
(0.330901 0.943203 0.0295311)
(0.311794 0.213148 0.925933)
(0.375276 0.207832 0.903313)
(0.103791 -0.0226503 0.994341)
(0.0957092 -0.0351443 0.994789)
(-0.0960929 -0.019461 0.995182)
(0.227722 -0.0282651 0.973316)
(0.112743 -0.0186496 0.993449)
(-0.101173 -0.0101248 0.994817)
(0.21709 -0.0361925 0.97548)
(0.125038 -0.0108873 0.992092)
(0.116575 -0.0168932 0.993038)
(-0.0918185 -0.00253813 0.995773)
(0.236427 -0.0213869 0.971414)
(0.119474 -0.0138681 0.99274)
(-0.088526 -0.0128454 0.995991)
(0.242762 -0.016545 0.969945)
(0.140091 -0.00321767 0.990133)
(0.125209 -0.000749517 0.99213)
(-0.0781323 -0.00870001 0.996905)
(0.257886 -0.00261705 0.966172)
(0.141846 -0.00281251 0.989885)
(-0.0794924 0.00334454 0.99683)
(0.256253 -0.00282521 0.966606)
(0.142815 0.00094374 0.989749)
(0.128804 -0.00282938 0.991666)
(-0.077577 0.00690103 0.996962)
(0.25943 -0.00107162 0.965761)
(0.142864 0.000434503 0.989742)
(-0.0778123 -0.00517327 0.996955)
(0.260797 -0.00085178 0.965393)
(0.287384 0.874852 0.389928)
(0.287754 0.846848 0.447266)
(0.286366 0.94536 0.155849)
(0.0875032 0.988003 0.127253)
(0.228364 0.967886 0.105099)
(0.193006 0.967952 0.160676)
(0.152702 0.982221 0.109201)
(0.227582 0.948356 0.220968)
(0.214589 0.95774 0.191535)
(0.158873 0.985375 0.0616128)
(0.20083 0.97211 0.121116)
(0.246642 0.967421 0.0571404)
(0.192782 0.979376 0.0604783)
(0.172042 0.984947 0.0167636)
(0.202172 0.977816 0.0547991)
(0.190767 0.980784 0.0408808)
(0.213078 0.974624 0.0686042)
(0.238832 0.97098 -0.0125257)
(0.157943 0.983996 0.0825007)
(0.293142 0.953688 0.0674306)
(0.279021 0.960126 0.0174934)
(0.271488 0.961916 0.031822)
(0.222843 0.916105 0.333305)
(0.280316 0.941675 0.186204)
(0.299526 0.946692 0.118569)
(0.332106 0.932942 0.139011)
(-0.356867 0.0134507 0.934058)
(-0.245875 0.086875 0.965401)
(-0.278672 0.176955 0.943943)
(-0.22728 0.177208 0.957571)
(-0.290607 0.113815 0.950049)
(-0.274346 0.00137444 0.96163)
(-0.350739 0.0447355 0.935404)
(0.610776 -0.164378 0.774553)
(0.451258 0.175771 0.874912)
(0.224983 -0.122878 0.966584)
(0.0199937 0.190044 0.981572)
(-0.49716 0.136667 0.856828)
(0.40992 -0.0920193 0.907468)
(0.42619 0.107587 0.898213)
(0.0389845 0.110177 0.993147)
(0.107468 0.106864 0.988449)
(0.0873332 0.048559 0.994995)
(0.150879 0.124824 0.98064)
(0.0565667 0.0446464 0.9974)
(0.0755558 0.0972322 0.99239)
(0.0949887 0.133575 0.986476)
(0.307494 0.95115 0.0275937)
(0.260374 0.965504 0.00277879)
(0.259731 0.965624 -0.010517)
(0.272035 0.962244 -0.00918871)
(0.316164 0.948572 -0.0158501)
(0.2558 0.966612 0.0150905)
(0.266967 0.963605 0.0139611)
(0.23414 0.971595 -0.0343893)
(0.143376 0.989633 0.00837403)
(0.198852 0.979856 0.0184415)
(0.218596 0.974822 0.0440119)
(0.222608 0.974793 0.01497)
(0.179675 0.983426 -0.0243068)
(0.204143 0.97894 0.00105634)
(0.347632 0.937243 0.0269915)
(0.333822 0.942631 0.00305415)
(0.325203 0.945544 -0.013752)
(0.321127 0.947018 0.00595998)
(0.220406 0.97526 0.0169944)
(0.285959 0.958181 -0.0107883)
(0.332805 0.942941 -0.0101889)
(0.318049 0.947471 0.033807)
(0.266344 0.955385 0.127675)
(0.273893 0.960741 0.0442703)
(0.134899 8.16597e-05 0.990859)
(0.119664 -0.00348465 0.992808)
(-0.0819253 0.00638437 0.996618)
(0.248516 -0.00158962 0.968626)
(0.135542 -0.00018663 0.990772)
(-0.0826875 -0.00546808 0.996561)
(0.248229 -0.00157364 0.9687)
(0.135154 -0.00321475 0.990819)
(0.120406 -0.000818947 0.992724)
(-0.0817813 -0.00892986 0.99661)
(0.248857 -0.00289963 0.968536)
(0.135916 -0.00321777 0.990715)
(-0.0822385 0.00345936 0.996607)
(0.249225 -0.00288023 0.968441)
(-0.119753 0.2651 0.956756)
(-0.133267 0.16502 0.977245)
(-0.248721 0.393938 0.884845)
(-0.114325 0.390414 0.913513)
(-0.0274434 0.403343 0.914637)
(-0.224315 0.436197 0.871444)
(0.0741534 -0.00800711 0.997215)
(0.0653956 0.0292994 0.997429)
(0.0697768 0.0345275 0.996965)
(0.0606008 -0.00360643 0.998156)
(0.0326165 0.00938656 0.999424)
(0.0405062 0.00654621 0.999158)
(0.0418117 -0.0161484 0.998995)
(0.0359208 0.040602 0.99853)
(0.0653044 0.0043724 0.997856)
(0.0633574 0.0040331 0.997983)
(0.0731488 0.0074968 0.997293)
(0.0632725 0.004137 0.997988)
(0.0781678 -0.00647427 0.996919)
(0.070821 -0.00267081 0.997485)
(0.0703024 -0.00410097 0.997517)
(0.0835881 0.00277325 0.996497)
(0.0654694 -0.00847081 0.997819)
(0.0397667 -0.00657433 0.999187)
(0.0729218 -0.00223465 0.997335)
(0.0784082 -0.0010886 0.996921)
(0.0818433 -0.0209959 0.996424)
(0.0690986 -0.0167219 0.99747)
(0.0661822 -0.016588 0.99767)
(0.0656207 -0.0290116 0.997423)
(0.0661962 -0.00322155 0.997801)
(0.0632268 0.00131529 0.997998)
(0.0643059 -0.00108502 0.99793)
(0.0629376 -0.00578988 0.998001)
(0.0257039 0.00445205 0.99966)
(0.0277992 -0.00485169 0.999602)
(0.0278203 -0.00786971 0.999582)
(0.0259266 0.00306732 0.999659)
(0.0642776 -0.000671719 0.997932)
(0.0633363 -0.00405154 0.997984)
(0.0663842 -0.000961135 0.997794)
(0.0630677 0.00151717 0.998008)
(0.0641309 -0.00119375 0.997941)
(0.0628271 -0.00260666 0.998021)
(0.0625908 0.000985811 0.998039)
(0.0658426 0.000162223 0.99783)
(0.0268027 -0.00621769 0.999621)
(0.0260758 0.00242674 0.999657)
(0.0248853 0.0038895 0.999683)
(0.0265141 -0.0041557 0.99964)
(0.0657655 -0.000832508 0.997835)
(0.063404 0.000681088 0.997988)
(0.0649499 -0.00186787 0.997887)
(0.0629731 -0.00300884 0.998011)
(-0.368634 -0.0304378 0.929076)
(-0.104146 -0.0223172 0.994312)
(-0.00911975 -0.114798 0.993347)
(-0.149219 0.000253905 0.988804)
(-0.174937 -0.0295822 0.984135)
(-0.0984581 -0.100948 0.990008)
(-0.414449 0.025035 0.909728)
(0.849844 0.10337 -0.516798)
(0.891901 0.337557 -0.300947)
(0.946334 0.25369 -0.200233)
(0.845339 0.173542 -0.505258)
(0.95532 0.214529 -0.203325)
(0.908313 0.131281 -0.397156)
(0.852931 0.0497569 -0.519646)
(0.788862 0.0860168 -0.608521)
(-0.618929 -0.050981 0.783791)
(0.938432 0.21313 -0.271883)
(0.956706 0.175138 -0.232465)
(0.962289 0.167514 -0.214335)
(-0.432585 -0.12866 0.892366)
(0.879373 0.06925 -0.471071)
(-0.501052 0.040444 0.864472)
(-0.251507 0.0866984 0.963965)
(-0.271383 0.449963 0.850814)
(-0.351925 0.159049 0.922417)
(-0.265518 0.0930051 0.959609)
(-0.545614 0.0349986 0.837305)
(-0.449483 0.304081 0.83994)
(0.465623 0.336592 0.818475)
(0.56376 0.632463 0.531193)
(0.531844 0.765976 0.361141)
(0.666586 0.474262 0.575099)
(0.423171 0.607908 0.671844)
(0.587018 0.453035 0.670946)
(0.563548 0.513784 0.646868)
(0.303705 -0.0650911 0.95054)
(0.238734 0.163148 0.957282)
(-0.0139093 -0.287343 0.957727)
(0.29835 0.033786 0.953859)
(0.24561 -0.134416 0.960004)
(-0.103375 -0.423446 0.900004)
(0.39498 0.135615 0.908625)
(0.375391 0.194297 0.906272)
(0.389651 0.789192 0.474708)
(0.181125 0.339218 0.923106)
(0.338881 0.440099 0.831548)
(0.320103 0.240942 0.916232)
(0.160765 0.0705109 0.984471)
(0.458922 0.49443 0.738193)
(0.132774 -0.026992 0.990779)
(-0.111542 -0.0685675 0.991391)
(0.150205 -0.0378468 0.98793)
(-0.0719637 -0.03229 0.996884)
(0.0305208 -0.0705576 0.997041)
(0.0440196 -0.0417118 0.99816)
(0.0233406 -0.0673913 0.997454)
(-0.125446 -0.0410685 0.99125)
(0.153862 -0.0626124 0.986107)
(-0.134758 -0.0318265 0.990367)
(0.0716116 -0.0405923 0.996606)
(0.117162 -0.0664988 0.990884)
(0.192138 -0.0408549 0.980517)
(0.278239 -0.0395645 0.959697)
(0.253282 -0.0696608 0.964881)
(0.332387 -0.05061 0.941784)
(0.156653 -0.0712826 0.985078)
(0.135583 -0.00388324 0.990758)
(0.124255 -0.00765473 0.992221)
(-0.0818806 0.00347038 0.996636)
(0.253611 -0.00788652 0.967274)
(-0.0817248 -0.00871956 0.996617)
(0.135779 -0.00507606 0.990726)
(0.253405 -0.0061424 0.967341)