/*--------------------------------*- C++ -*----------------------------------*\
| =========                 |                                                 |
| \\      /  F ield         | OpenFOAM: The Open Source CFD Toolbox           |
|  \\    /   O peration     | Version:  2012                                  |
|   \\  /    A nd           | Website:  www.openfoam.com                      |
|    \\/     M anipulation  |                                                 |
\*---------------------------------------------------------------------------*/
FoamFile
{
    version     2.0;
    format      ascii;
    class       volScalarField;
    location    "0.107/solid";
    object      sigmaHyd;
}
// * * * * * * * * * * * * * * * * * * * * * * * * * * * * * * * * * * * * * //

dimensions      [1 -1 -2 0 0 0 0];


internalField   nonuniform List<scalar> 
3124
(
237.765
-7.12502
-191.569
267.957
172.787
169.239
-15.6559
365.303
747.771
69.4426
290.637
-58.356
427.114
350.318
132.124
771.291
317.512
226.559
169.613
172.523
222.785
226.153
222
75.2428
70.2309
243.578
422.289
189.781
437.928
700.986
159.61
308.551
388.802
372.317
311.53
965.418
370.942
314.302
262.05
267
260.9
259.18
46.0059
-1.8795
132.985
33.5992
630.089
-57.1237
1334.31
254.747
181.468
178.392
167.244
166.969
75.8373
3.76856
112.777
144.199
349.489
549.827
135.482
499.052
669.267
945.704
387.542
856.998
421.493
352.256
1131.4
1082.76
-2.27869
297.214
143.621
121.154
126.49
370.686
991.436
321.31
355.515
401.738
406.734
303.453
377.087
324.805
552.604
376.518
351.232
775
944.305
432.023
512.532
960.359
434.861
158.884
1185.04
1116.62
1168.56
171.673
175.857
389.536
235.032
312.743
280.323
303.956
230.223
291.479
306.124
171.527
171.764
276.765
269.05
277.537
224.905
281.711
288.813
225.349
283.222
276.48
220.262
274.841
259.235
219.874
274.864
111.089
193.383
334.875
336.832
322.513
307.023
220.342
221.969
219.131
218.267
45.5839
11.8535
4.71999
-24.9349
-0.917505
31.7819
22.2348
-1038.73
-351.302
-202.675
-529.196
-128.674
-1453.3
-619.409
39.3945
216.288
-9.02754
173.854
-22.9932
-24.6493
-21.2448
168.55
-22.6324
166.174
-26.4063
-89.5608
9.47928
-18.4094
-32.6586
-25.1061
4.76168
39.2554
566.848
383.906
437.118
348.262
-9.10887
-52.4019
-12.0886
184.908
-108.037
168.764
102.468
61.8046
337.922
193.411
-262.035
-268.245
-138.71
59.3024
-1186.66
-155.633
25.6843
396.29
367.727
401.679
165.485
-23.6468
240.779
187.908
215.356
-47.3119
265.285
374
278.802
337.577
240.379
244.808
227.361
281.646
282.503
-21.2619
170.597
-21.8576
-22.2295
172.354
-22.5322
237.248
234.224
276.428
223.563
277.297
281.147
225.912
280.623
275.534
221.379
274.737
218.767
219.329
273.671
41.694
2.86467
93.2381
72.8113
91.5257
113.883
3.06023
92.8845
-2.51932
243.161
315.059
220.484
101.55
276.748
145.207
276.187
121.54
446.765
183.325
404.214
696.802
259.291
255.719
343.486
382.142
400.616
327.146
88.428
186.84
227.272
294.653
275.584
254.921
337.387
340.174
367.204
394.902
371.601
359.3
392.954
371.01
730.215
267.493
526.719
350.635
347.295
330.809
294.609
305.448
327.783
312.451
321.88
225.972
223.828
244.99
263.598
246.66
250.448
265.245
248.467
243.777
260.15
242.995
217.283
217.628
259.565
241.979
242.381
53.4852
29.4116
75.5255
57.0745
93.1953
54.3549
39.7474
30.5556
13.7397
-12.5054
-13.647
-83.3414
15.498
28.2352
41.3337
181.139
109.781
23.8296
109.289
-60.1245
56.066
-18.3929
285.071
450.906
3243.21
2685.4
416.593
733.848
1847.73
906.707
2132
-692.581
-136.918
-48.4719
-153.025
-144.86
-155.105
-314.149
-1309.97
-1131.92
-9550.64
494.516
-874.098
-2711.94
-1223.3
-746.955
210.044
-87.771
428.231
-127.375
221.946
-399.598
201.068
-22.2643
-12.1334
174.601
-22.7816
-24.9144
168.215
-23.1182
-22.9554
166.409
-23.5377
-25.8082
91.9142
198.706
290.592
49.1684
91.4227
158.577
-17.3459
69.1083
154.814
-90.6019
-8.21724
-7.86144
2.61601
-8.62441
-28.5392
-11.3995
190.924
48.0421
115.484
48.9432
225.905
-32.6012
56.1864
268.824
161.73
-209.818
1080.84
733.438
299.299
825.141
220.488
397.241
220.256
504.614
384.027
309.272
353.811
328.726
386.446
408.71
935.126
1845.74
567.199
561.971
-66.2076
154.838
276.216
607.176
331.436
250.013
493.097
738.345
425.046
286.963
478.603
756.49
253.328
524.289
347.782
775.926
255.737
768.993
235.367
531.661
1037.88
1081.43
1142.01
1076.75
1076.83
1004.45
1077.13
1061.85
1085.75
1087.46
6.17969
-14.4148
-31.0931
37.817
-141.338
13.2401
59.3897
85.3484
242.865
270.158
276.37
266.228
194.937
189.279
92.3452
-11.2431
92.5518
232.714
25.0978
272.843
147.507
72.2383
16.4538
140.76
92.8868
115.811
27.6046
-31.1902
85.3144
110.456
155.04
357.342
408.589
256.048
-185.314
-542.124
-12222.8
278.686
-2072.2
-1030.42
5.8058
30.6866
246.143
598.416
61.2144
266.524
-36.6939
872.464
-588.275
331.042
454.533
431.589
435.069
450.154
421.416
399.106
417.512
421.716
413.151
411.533
416.308
377.979
352.335
395.443
407.015
371.219
408.437
260.701
292.86
289.904
351.419
260.735
297.318
317.928
262.194
371.393
316.108
151.809
267.204
354.49
366.361
343.84
395.793
324.678
558.238
413.693
740.584
298.347
543.919
754.462
321.99
561.229
465.483
775.559
322.802
554.512
766.361
340.312
49.4837
160.231
1007.78
1051.69
1011.2
1018.62
1065.27
1115.94
1045.73
1070.41
1024.57
1050.07
1139.58
1045.02
77.4222
115.468
164.52
191.672
198.4
95.0919
133.063
185.596
187.52
196.344
395.861
360.791
363.039
249.635
287.835
304.646
331.212
309.393
328.911
271.099
253.311
265.331
285.701
270.908
295.827
293.755
280.334
228.403
284.154
283.418
297.803
295.52
300.042
304.712
300.946
302.729
170.951
-20.8526
-21.7482
172.182
-21.1643
-22.3071
228.392
231.196
261.616
273.991
258.522
252.8
271.417
255.55
288.7
278.715
289.676
224.262
279.346
278.254
280.138
292.255
290.874
296.341
286.752
295.14
225.659
279.849
280.083
284.866
293.165
293.98
287.724
275.586
286.833
220.791
273.854
274.179
275.029
286.098
286.293
217.419
217.948
260.402
243.416
242.07
259.725
242.643
219.582
273.658
273.561
275.58
286.405
286.031
275.036
286.041
179.11
185.368
264.369
251.506
203.034
244.176
166.362
101.073
158.169
173.169
98.775
158.883
100.451
98.8873
97.8288
96.668
154.376
169.255
97.7376
154.7
96.5072
257.74
207.786
291.176
307.039
226.57
312.092
231.683
347.31
383.156
456.202
392.794
370.61
341.263
398.308
98.5553
96.874
154.736
170.127
97.8541
155.585
97.1349
100.629
157.813
98.7277
172.691
100.452
158.258
98.7607
463.479
646.924
414.757
369.26
312.344
476.04
463.113
436.515
193.954
292.106
383.153
326.54
518.45
312.292
436.048
4449.2
1694.8
116.13
185.411
169.351
106.67
111.625
173.587
110.366
105.98
176.881
165.641
104.049
108.3
163.937
102.281
96.0727
167.753
152.067
94.6619
95.2972
152.99
95.0446
94.9063
167.01
151.723
94.3386
94.8637
152.002
94.083
76.8699
63.9927
768.548
729.871
499.196
558.49
446.521
371.772
496.529
623.11
390.131
471.859
373.603
608.397
365.125
579.055
322.703
493.476
814.798
775.082
766.768
751.797
178.699
138.372
55.729
-46.7502
457.07
382.686
268.79
350.415
340.568
455.018
387.664
-97.6066
201.332
464.984
442.299
545.434
-115.989
430.52
351.273
373.03
326.258
379.365
339.95
335.233
397.627
468.739
376.713
536.971
338.139
460.828
548.298
351.219
534.23
489.051
607.755
402.677
528.782
629.349
431.115
25.9816
635.533
661.951
677.617
823.588
779.867
62.8976
93.2715
170.189
195.153
99.7933
171.623
156.62
98.2782
99.5939
157.057
98.2257
100.147
172.113
156.914
98.359
99.6204
157.558
98.4477
66.0047
63.9974
45.8365
72.5691
97.4669
10.2481
355.077
339.349
315.533
369.184
297.455
313.398
320.875
287.447
326.255
362.87
349.655
344.77
301.583
324.793
312.955
316.743
303.505
296.777
282.931
297.633
330.843
338.071
322.421
339.25
227.018
235.177
224.783
237.03
199.409
200.742
202.134
201.179
223.424
235.059
225.474
233.39
221.431
233.077
231.482
223.008
199.159
198.702
197.421
198.533
223.906
232.274
222.674
233.691
20.5701
35.3252
33.4811
45.69
31.3021
24.886
24.202
-1.09206
-17.095
-27.3923
-14.1618
-12.0118
-9.48951
-12.7795
4.32798
23.297
-4.74958
-24.0221
-7.88131
10.2082
2.02051
14.172
42.3756
4.66352
1.28868
23.5599
12.9242
-4.01913
-829.09
-600.012
-1270.92
-907.706
-774.963
-666.474
-981.639
-382.036
-303.424
-268.69
-284.291
-295.334
-464.662
-393.801
-862.628
-1385.25
-906.198
-918.392
-864.381
-811.567
-1185.63
49.9443
94.1908
17.4481
75.8257
75.8154
161.058
229.731
204.902
134.653
220.682
142.27
148.71
38.6113
3.97826
48.7147
20.0317
60.6506
101.256
173.655
159.585
99.249
159.523
101.344
99.0393
-4.31969
22.7553
-24.3624
-3.80423
22.4285
-4.95512
22.2602
-25.2124
-4.77811
22.1938
-4.37027
22.3941
-22.5964
-3.6614
22.0431
97.6683
168.99
153.721
95.7426
154.505
96.5943
96.1898
-5.0945
-23.3696
21.2095
-5.5078
21.599
150.618
92.8096
92.9263
-10.1332
17.8455
-9.75787
0.714512
-31.2637
13.2193
-30.6742
46.8666
-4.24993
-30.0323
-21.4702
-18.7357
-39.2096
-32.3963
-18.0719
-41.1312
-13.474
-24.9569
-67.6497
-12.3138
-44.1311
-15.4074
-31.9224
-65.4154
-1.76711
41.3749
34.1483
-36.7653
47.4335
-28.9242
-2.34264
360.985
985.724
451.48
457.171
476.137
254.958
417.268
32.7785
-92.2393
47.82
60.7776
1.6987
29.9638
47.2061
-27.776
-159.444
-161.963
134.516
-182.763
-30.5209
40.9988
-90.4482
-115.497
-146.493
-122.045
-118.914
-20.9546
-70.7048
102.023
58.9953
144.848
127.533
107.882
32.4439
125.143
137
117.21
98.4658
95.416
146.536
291.435
327.078
351.314
284.147
341.833
319.47
259.734
180.702
142.761
219.426
228.183
182.715
-301.545
-697.463
-223.814
-328.777
-544.82
-302.215
-286.834
-308.19
-235.505
-391.641
-232.453
-308.872
-227.763
-376.797
-652.149
-1064.44
-783.762
-1119.16
-740.186
-590.631
-922.719
-117.656
-204.981
-214.945
-107.733
-112.424
-390.637
-193.402
447.741
412.527
453.469
390.679
374.543
309.91
337.445
402.683
423.925
359.65
350.78
369.216
395.615
449.145
435.126
418.022
36.0424
-8.88635
98.1093
-54.4253
43.0324
-14.6199
73.3492
176.15
203.433
168.577
172.509
157.547
174.345
189.327
76.8394
14.4818
-41.2801
6.43984
42.4962
99.0608
62.471
341.038
377.624
372.41
353.306
366.142
302.888
266.193
354.721
314.78
225.927
257.19
320.039
402.754
407.275
380.075
422.341
250.238
257.341
242.47
263.232
216.552
222.138
224.181
219.884
239.175
258.923
247.725
252.233
301.08
311.719
286.959
323.918
260.807
184.587
187.661
269.124
270.272
188.688
186.5
260.826
287.01
322.692
299.792
311.3
-4.12958
22.4735
-22.4345
-3.78517
22.3718
98.8203
170.558
155.795
97.3524
156.081
98.398
97.3018
-4.55462
-22.8781
22.305
-4.47212
22.2715
-3.7038
22.9512
-23.1235
-3.27139
22.8655
100.64
172.598
157.655
98.4125
158.171
99.7889
98.6258
-4.22158
-23.4977
22.5541
-4.29726
22.6616
234.703
251.989
241.733
246.045
219.215
214.618
244.845
249.02
237.43
255.317
211.638
216.345
291.898
310.904
313.941
288.159
260.251
181.012
182.623
262.07
263.069
182.723
182.619
260.75
287.641
312.88
290.843
309.931
288.203
320.331
311.692
297.61
268.511
186.078
260.948
184.729
298.899
311.57
287.654
321.549
261.306
183.965
186.37
267.523
286.357
310.671
308.461
288.403
261.021
181.176
180.958
259.514
258.821
179.816
181.365
260.013
289.481
309.334
287.181
311.433
232.103
222.161
198.35
308.716
286.17
177.209
178.001
257.804
52.7138
106.238
67.183
-27.4858
16.6915
94.1602
122.094
72.1753
80.2055
95.9304
74.1341
78.4245
50.9518
83.7527
40.9863
12.5831
-18.4997
96.2528
9.91233
33.0463
130.104
87.3519
58.8687
115.551
96.418
43.2367
85.0758
133.406
16.1149
145.598
-2.24039
-36.6447
86.7971
48.6608
55.45
-4.97141
53.9233
129.998
192.638
184.873
244.042
118.89
225.438
173.404
126.135
124.601
122.285
248.457
20.8915
167.254
265.877
178.468
131.903
159.307
126.072
185.223
145.934
167.279
184.525
134.207
178.655
133.591
182.193
135.317
178.656
298.264
263.022
470.152
357.947
295.42
302.871
376.199
356.896
431.108
238.39
563.736
195.55
342.867
645.033
242.788
197.783
226.865
398.452
196.656
216.544
185.237
283.279
377.788
371.304
316.867
439.951
59.4255
249.182
346.459
423.369
260.428
408.501
205.068
393.859
360.445
388.623
371.271
386.35
409.967
400.207
395.954
371.768
383.328
366.098
385.148
407.658
398.64
385.459
418.357
352.407
391.233
335.761
397.438
408.029
324.588
301.147
416.394
410.975
268.617
409.779
302.312
364.377
418.933
407.14
381.63
333.96
338.72
329.575
340.828
376.414
382.456
373.471
386.632
360.493
356.662
358.113
359.661
347.581
358.975
352.764
355.792
320.455
314.655
301.915
330.7
281.698
273.783
300.302
285.559
301.116
313.764
315.976
298.89
335.025
324.114
325.294
336.806
319.703
324.32
317.428
324.906
336.442
333.198
331.168
335.611
321.584
324.21
322.533
324.494
226.235
239.427
229.395
236.576
206.806
204.715
202.435
204.596
232.014
238.392
241.733
228.325
255.173
250.092
252.757
252.431
263.355
272.29
266.115
269.283
250.662
250.913
248.752
252.917
267.955
270.839
264.617
274.277
253.819
255.081
251.599
257.484
272.527
273.317
267.591
278.332
259.514
253.515
257.619
255.329
265.9
276.458
270.243
271.996
249.076
248.561
246.713
251.03
264.863
268.263
262.252
270.981
251.602
247.67
249.564
249.548
261.478
270.324
263.826
267.795
222.018
231.14
220.994
232.066
196.622
197.38
197.297
197.315
220.682
231.587
230.461
221.958
250.179
246.234
248.644
247.724
260.912
268.743
266.907
262.568
262.991
267.451
261.095
269.447
247.982
247.404
246.008
249.385
57.1314
68.8546
50.3914
54.3959
46.7057
57.5492
58.5259
67.6829
85.3175
82.1195
72.3549
73.3423
77.2706
67.6569
42.5579
59.9624
15.033
41.0462
35.3253
59.2546
21.6153
12.1372
8.92197
28.4808
24.9158
18.0642
10.9747
19.761
-20.4288
-34.2946
-43.7981
14.4076
-2.76073
-30.7947
-13.9688
-25.7925
-21.1255
-64.349
-46.4174
-14.9812
-24.2561
-53.6568
8.28524
27.4093
0.170522
24.2809
8.41874
18.6115
-0.894198
59.6429
65.0049
28.3082
43.8211
68.3987
60.2979
44.7473
97.2223
207.519
133.89
76.7285
136.907
91.7319
135.653
112.515
85.6795
145.951
109.979
132.38
106.274
88.3808
33.3125
-0.735115
13.7081
-12.7404
49.0404
3.56257
22.4212
575.468
663.417
136.964
-40.6145
145.416
75.3866
205.504
222.552
592.549
266.36
387.27
241.281
279.874
487.852
45.7059
475.038
755.231
-10466
8464.9
4619.91
2549.88
4583.43
5851.7
1985.5
6189.74
9727.67
4830.09
3631.11
2292.14
9125.77
7514.88
3159.05
1647.64
1535.41
3439.53
1932.71
1406.9
4756.25
1053.41
507.628
489.091
848.104
485.249
1177.69
841.609
1862.38
3264.88
1306.39
2192.88
1942.14
3873.26
1333.84
1200.68
485.746
2161.48
1080
3790.19
730.413
-349.345
-520.173
-455.357
-597.789
-490.897
-392.07
-379.152
-132.092
-76.4149
-91.5535
-100.951
-101.966
-174.469
-129.497
-252.487
-340.263
-117.115
-168.597
-142.223
-246.606
-279.469
-223.406
-287.755
-230.363
-170.096
-269.884
-280.514
-169.58
-2102.01
-1864.82
-1977.95
-1162.72
-1635.09
-3047.3
-1649.81
-3522.96
-16918.3
-5748.76
-6421.45
-8090.69
-7086.76
-2845.37
-1316.92
-2350.33
-2849.42
486.765
420.818
-4273.62
-987.619
-2746.05
-2499.31
-1767.37
-4161.3
-1773.55
-4097.19
-1928.31
186.191
287.509
19.8655
402.545
119.267
417.543
-31.4588
-183.858
-378.446
-50.2488
-135.44
-88.6885
-199.379
-334.873
-141.892
-922.341
281.474
829.129
564.146
-561.293
-170.936
122.884
193.302
189.885
123.765
131.904
181.97
116.223
5.59139
28.3817
-21.1514
3.02096
30.9719
9.2487
40.9231
-18.6775
17.251
35.2768
104.246
175.546
160.641
99.8916
102.328
162.108
100.9
-1.45608
26.3769
-24.5338
0.853663
24.7367
-3.27167
22.6858
-25.4468
-4.16745
23.4607
96.5895
168.148
153.351
95.4353
96.2058
153.529
95.304
-6.0029
20.5047
-23.9696
-5.90887
20.6572
-6.06115
20.9077
-24.1983
-5.97354
20.7476
94.6152
166.838
150.956
93.1657
93.4167
151.844
93.7013
-7.34295
20.1303
-25.1837
-6.4309
19.5556
-8.33449
18.3255
-26.1829
-9.07854
18.9219
142.34
124.845
-75.5675
154.055
118.893
-99.6536
129.745
-9.77729
-55.9672
-23.9073
-5.1594
102.029
134.089
145.401
182.544
-123.853
31.934
180.828
-29.5427
276.96
1.10372
9.3855
25.3712
91.6126
212.56
57.1297
50.943
49.3134
114.092
86.647
-14.9455
-51.8803
-74.301
-3.50195
-10.8052
-60.5922
-14.828
-12.4844
-11.7613
5.42824
-9.9241
-10.8559
-18.4106
-17.8023
-21.2137
-58.234
-8.9473
5.26913
-24.9674
-5.57254
-34.6415
-12.5015
-55.9376
-23.449
-1.81027
-49.4832
-9.3754
-0.799601
3.55104
225.622
-72.8996
2.07282
164.69
2.44225
33.997
94.8728
136.055
119.176
50.8026
145.903
127.355
101.388
82.7739
53.2655
120.014
135.818
136.818
158.237
103.376
33.686
-67.4284
6.19429
35.0394
75.7209
25.8253
53.0799
-168.933
909.365
-79.3216
216.446
54.8194
216.452
-22.452
200.704
150.171
-217.474
-66.6356
-110.458
78.3893
103.333
365.681
119.758
1043.93
888.192
1152.67
770.259
1057.03
-104.124
732.837
106.16
907.599
279.271
1116.92
1029.31
584.571
-324.757
-791.226
334.148
571.839
-630.454
535.243
379.581
222.277
25.7408
347.296
388.113
945.086
385.455
538.322
-1774.95
1091.01
108.401
387.115
433.942
446.669
416.088
387.968
425.722
405.429
349.068
314.772
326.94
327.733
359.129
323.365
331.663
337.301
371.557
316.504
333.289
369.638
357.231
317.935
686.897
1484.29
1174.23
-3727.08
421.161
-355.94
545.213
242.148
-150.18
477.367
299.987
304.238
263.111
85.9265
-96.5568
270.506
-294.103
271.671
367.307
-81.7322
437.492
290.19
281.431
-242.846
356.77
229.672
384.642
364.861
273.817
324.765
264.095
259.922
478.841
415.289
577.292
327.585
476.386
586.697
359.044
457.903
350.844
575.853
316.229
456.275
570.121
298.839
939.97
1138.51
1084.6
1004.08
1122.64
782.563
750.098
1150.37
1070.68
984.249
968.425
1120.36
1317.96
1299.26
1332.27
1319.03
1270.73
1168.7
1265.39
1338.92
730.536
738.527
991.104
1087.9
1133.61
981.087
1148.71
1139.69
978.426
1089.83
980.132
1150.23
7.61408
-89.674
29.0378
19.4381
4.18647
-48.7096
38.0415
-48.6569
-37.7147
-74.4532
-15.0625
-49.0835
-22.1344
-46.8581
-56.1986
-141.381
-81.7932
-130.946
-85.2518
-83.5776
-104.232
8.79633
39.3935
-1.58426
20.2044
7.07937
-8.55669
16.6603
160.933
161.353
113.547
139.315
137.936
182.544
169.207
261.973
276.817
275.104
240.333
279.108
226.582
272.87
239.579
211.397
270.197
267.843
258.224
225.73
242.514
206.257
112.841
202.246
226.963
190.344
178.428
215.64
133.548
92.4481
163.479
110.006
148.318
108.244
131.095
150.408
165.613
97.112
200.706
125.758
139.523
160.91
91.1939
75.6276
58.084
62.791
79.9817
116.105
78.7816
201.379
218.796
260.438
222.197
210.239
198.436
209.925
40.5866
83.0668
1.46303
120.437
-46.4368
78.0521
53.7931
129.824
-70.075
-63.6381
-192.999
61.6047
56.5232
98.8073
-104.308
-119.767
-198.106
-388.096
-420.715
-173.26
-66.0175
308.491
-40.0582
293.902
-183.037
-314.557
-399.26
-131.986
-82.829
279.534
-72.2296
285.564
-64.4908
-78.0121
-195.618
89.8955
3.61439
-175.654
50.3384
-260.101
-82.1934
-235.734
-258.361
45.7051
-25.6892
19.6788
-218.426
-294.208
-93.8074
-308.945
-246.897
-166.134
-0.25056
238.781
35.46
243.645
-97.7134
-106.984
-25.6224
-158.561
-32.9045
269.984
-55.7077
265.477
373.87
369.686
388.321
318.776
363.629
375.576
335.282
445.602
306.989
407.637
391.355
385.726
338.763
268.649
312.304
289.952
302.598
-1257.94
-694.892
-53.8123
-316.238
-412.483
-967.215
-577.943
-2643.98
-9556.03
-3354.26
-14818.8
-2971.66
-11860.2
-5551.56
-452.34
288.076
27.8996
59.0831
41.7509
307.436
-156.645
-75.9228
223.269
120.51
182.836
120.944
65.5246
259.23
-833.194
639.595
-300.786
551.573
368.75
-342.181
14.0777
70.4737
-162.099
65.9465
392.687
-240.342
-427.628
178.078
229.992
-300.978
191.764
-550.387
24.1648
133.64
-130.759
170.007
-17.1512
-13.8255
-58.7644
298.297
171.051
1016.72
217.384
1085.31
-112.933
85.9727
680.004
-124.332
-506.973
-1340.52
-44.1577
-901.079
-289.172
-161.098
221.643
174.663
438.311
-78.3094
70.6577
70.3087
318.328
300.004
302.871
458.775
376.919
375.666
323.952
450.977
351.335
674.544
-207.119
536.749
388.309
237.636
597.751
457.153
405.344
95.468
396.254
345.019
446.306
367.163
350.808
337.773
372.379
169.104
420.266
414.615
221.954
219.675
424.207
469.436
58.744
342.724
434.943
347.763
351.493
361.531
358.322
352.343
445.302
417.351
450.571
417.07
416.037
427.578
409.725
437.846
440.512
410.574
432.977
417.146
418.491
449.063
419.662
444.276
355.315
444.022
448.399
383.356
485.593
182.891
439.156
64.3402
321.537
375.499
438.736
358.646
434.422
289.439
412.451
259.159
397.083
440.719
436.929
392.806
417.049
326.118
416.969
327.045
398.13
429.265
392.132
435.809
412.235
313.286
409.735
326.814
265.965
254.171
230.791
280.803
243.459
240.995
281.175
-19.4425
128.611
191.877
208.641
138.07
63.2239
307.166
330.984
590.008
-1777.78
611.899
430.394
20.0485
22.7822
-360.067
133.368
-68.9985
-381.879
-427.552
423.524
251.249
255.274
312.536
382.805
294.779
255.197
282.57
294.432
187.62
178.853
399.571
207.367
369.148
297.184
373.993
322.182
331.504
327.367
289.241
313.551
228.14
298.655
379.942
78.1113
490.966
387.202
582.623
393.414
500.985
568.346
374.748
532.12
479.956
599.244
415.468
526.098
613.345
426.823
84.1271
-118.428
-66.9371
-13.8833
326.221
-9.18404
324.558
-227.652
-249.337
-105.81
885.437
1057.63
1350.45
706.618
685.767
896.835
1011.81
1055.54
901.237
1055.27
1051.58
918.826
1013.99
908.759
1052.58
1262.09
1277.2
1253.25
1263.84
752.029
764.112
985.035
1121.18
1056.11
973.114
1088.34
1066.27
935.387
1038.28
951.081
1064.4
1319.38
1338.8
1303.81
1277.56
136.17
105.133
-11.7352
111.723
90.9752
-93.4473
117.213
-33.4082
-79.3562
0.617362
-43.9094
161.144
111.872
141.469
27.7798
-64.8426
-77.895
-171.184
-164.063
-85.7433
14.6784
318.451
8.32661
320.194
-74.1343
-192.296
-96.1
-159.928
11.9756
322.959
6.89702
322.365
185.857
204.877
81.0322
136.854
-78.496
120.692
55.0973
166.036
-31.0264
87.528
-25.1641
176.539
143.492
177.481
71.0538
-17.1963
-96.7241
-187.603
-197.711
-89.4363
-3.38222
325.962
-1.74
325.671
-97.8135
-210.664
-100.501
-206.026
1.18953
324.406
1.15589
324.809
379.668
381.715
377.431
381.848
416.359
397.983
405.006
406.552
376.713
372.213
369.966
377.599
422.435
410.929
426.818
410.183
317.863
333.715
302.882
340.532
262.945
194.59
202.401
276.311
289.017
221.51
279.599
204.934
284.987
326.767
311.352
305.285
341.556
337.23
341.804
341.218
314.827
325.201
317.559
324.396
339.309
340.567
340.008
340.813
314.266
327.142
312.507
324.787
250.949
270.355
255.621
267.007
242.413
250.955
270.496
290.716
273.88
285.779
227.703
228.627
282.815
272.273
279.067
276.447
280.279
293.728
285.1
288.51
293.817
291.139
286.102
299.147
269.95
274.312
266.801
276.99
287.663
287.277
283.151
291.575
313.151
310.015
309.057
316.6
305.903
304.207
306.499
302.608
295.848
306.974
301.854
300.44
287.089
325.225
302.488
311.471
273.393
194.76
190.888
260.411
260.953
187.44
271.443
191.778
304.105
309.419
285.031
325.884
317.102
310.244
322.546
305.938
297.874
304.75
294.95
308.032
312.108
299.623
309.151
302.125
303.257
320.335
308.574
314.139
308.906
325.403
312.363
320.579
323.011
310.898
310.727
320.953
323.129
311.157
309.314
327.582
308.147
315.023
306.039
317.779
99.7274
171.38
156.178
97.6053
98.7041
156.907
97.982
-3.42192
23.2695
-22.0329
-2.8807
23.0556
-3.9992
22.4854
-22.6389
-4.23045
22.7358
100.135
172.32
157.4
98.3122
99.6192
157.861
98.4309
-3.69988
23.1931
-22.4596
-3.19148
22.9271
-4.32303
22.5303
-23.0993
-4.38241
22.6548
238.127
243.326
232.2
248.154
206.406
209.898
229.845
244.755
235.208
240.423
212.691
209.272
262.958
267.241
260.501
269.544
284.87
281.48
276.597
290.145
272.938
263.489
270.778
265.902
273.806
287.119
281.415
279.155
265.845
257.819
263.596
260.247
269.463
280.798
275.074
274.984
257.456
260.495
262.359
255.442
278.01
277.086
271.512
283.832
301.271
305.733
309.374
297.401
288.009
285.972
282.594
291.455
292.732
283.619
287.51
288.791
296.676
308.282
304.954
300.118
288.894
315.49
293.107
311.482
265.278
183.995
183.5
261.923
261.383
182.392
264.09
184.307
294.561
312.954
316.794
289.921
298.428
311.054
302.79
306.522
296.497
286.188
291.488
291.224
289.935
289.408
284.815
294.493
304.6
308.054
312.8
299.571
301.06
317.148
307.864
309.974
305.48
292.161
295.49
301.711
312.012
308.101
318.896
301.899
294.153
298.861
290.237
303.026
296.249
312.087
288.596
318.587
261.864
183.438
185.137
266.272
266.825
185.018
261.596
184.511
288.985
318.195
296.102
312.358
308.011
307.748
300.444
314.985
291.878
293.758
287.347
298.496
300.443
288.662
296.138
292.992
299.824
314.708
306.549
307.329
295.18
305.881
303.38
297.459
289.985
281.784
284.572
287.352
286.405
283.486
280.961
288.838
298.569
304.307
306.92
296.175
287.618
308.309
285.9
309.683
258.128
178.594
179.658
258.716
259.25
179.868
258.379
180.059
285.783
309.336
307.875
287.184
296.91
303.139
294.618
304.985
285.874
282.491
280.353
288.082
288.232
280.442
282.842
285.879
294.612
304.71
302.986
296.73
221.253
232.649
222.484
231.101
197.118
197.215
221.817
230.614
221.284
231.693
197.144
197.988
247.188
249.503
268.255
261.897
248.634
248.182
246.371
250.541
262.826
266.861
260.805
268.884
249.588
246.11
247.956
247.596
261.102
269.599
263.274
267.47
285.92
308.786
286.065
308.084
258.236
178.387
178.72
257.982
257.799
177.571
257.687
178.681
286.54
308.071
286.036
308.774
303.803
295.382
281.274
286.694
294.983
304.159
303.169
295.977
287.849
280.499
286.191
282.442
296.246
303.187
295.012
304.341
286.233
282.58
280.723
287.696
59.8759
-46.9422
222.099
84.6462
208.301
539.407
736.72
234.871
629.751
694.811
443.666
554.498
918.126
784.624
752.589
43.3724
-110.204
116.794
68.1343
53.1046
-2116.95
831.138
-3417.58
2027.56
-5020.49
-2520.06
71.8334
738.112
774.058
940.545
925.515
757.995
920.685
750.981
702.981
847.691
653.863
905.941
644.163
727.401
896.633
-2212.99
1354.59
1645.46
253.8
-3546.81
-1716.28
1433.8
768.69
789.37
921.527
944.59
767.088
916.017
791.185
765.811
917.493
790.217
951.528
761.495
915.32
792.309
153.366
213.145
324.447
176.386
232.456
395.501
62.0257
930.264
974.367
879.13
1213.53
813.348
1095.21
1386.82
1332.71
405.193
852.368
153.725
673.896
1128.54
1247.23
1347.08
1159.05
1078.92
1223.06
1161.09
1238.66
1331.74
1361.02
1237.15
1161.66
1080.97
1167.97
1349.91
1245.4
1309.53
1089.22
1181.5
1035.76
1255.67
1088.24
1217.16
1300.3
1237.96
1052.27
1144
1108.1
1214.74
1350.17
-1146.37
-151.868
-896.062
1181.11
-2448.99
-625.236
1334.8
-2103.42
544.796
-10374.5
-3420.17
-8600.44
-1368.66
-1045.54
1172.45
1193.64
1335.04
1285.31
1143.66
1205.22
1061.23
1304.76
1139.67
1183.44
1273.55
1168.35
1050.83
1134.26
1131.02
1168.81
1276.46
1314.07
1166.53
1049.19
1187.37
1158.88
1324.68
1181.37
1299.66
1167.44
1045.81
1139.72
1149.44
1174.13
1287.33
)
;

boundaryField
{
    left
    {
        type            zeroGradient;
    }
    bottom
    {
        type            zeroGradient;
    }
    interface
    {
        type            zeroGradient;
    }
    procBoundary0to1
    {
        type            processor;
        value           nonuniform List<scalar> 
224
(
269.34
386.39
575.547
258.629
258.629
258.629
262.095
262.095
262.095
369.146
756.23
56.7583
268.207
425.383
776.292
185.197
185.197
185.197
182.237
182.237
182.237
473.04
683.234
348.047
348.047
241.327
241.327
241.327
950.255
241.668
241.668
241.668
171.182
171.182
171.182
481.688
693.942
915.03
835.647
1048.4
1009.7
317.376
317.376
1756.61
-300.39
1267.76
1268.38
887.681
1365.39
623.579
623.579
623.579
781.083
914.575
942.783
1120.32
1383.77
1392.59
1037.64
1243.78
1238.17
1101.84
1366.69
1345.1
215.251
215.251
215.251
173.563
173.563
173.563
258.995
258.995
258.995
262.039
262.039
262.039
56.7583
268.207
268.207
1100.07
1100.07
1100.07
1100.07
1100.07
1100.07
188.936
188.936
188.936
179.238
179.238
179.238
270.098
270.098
270.098
258.795
258.795
258.795
169.075
169.075
169.075
803.65
1781.21
1058.78
1001.59
88.786
88.786
88.786
594.153
421.664
-2245.5
-2503.37
2248.04
1259
1304.9
1331.81
1126.13
540.822
540.822
540.822
540.822
484.51
484.51
1040.93
1252.66
1239.22
1068.36
1283.39
1312.64
196.951
196.951
196.951
176.313
176.313
176.313
357.532
456.981
327.252
406.33
202.48
575.547
386.39
575.547
575.547
217.295
228.753
232.539
220.434
238.596
233.228
252.426
244.3
163.89
161.872
163.477
167.576
158.211
161.875
158.137
155.678
315.173
136.146
217.723
249.23
230.841
213.235
242.012
248.454
147.639
150.467
147.305
146.358
421.664
1206.08
594.153
-300.39
1756.61
2248.04
-2503.37
1268.38
1267.76
1304.9
1259
1365.39
887.681
1126.13
1331.81
-1121.75
424.259
382.997
406.33
118.17
1383.77
1238.17
1243.78
1239.22
1252.66
1345.1
1366.69
1312.64
1283.39
183.916
197.747
174.385
168.885
152.096
150.669
152.303
156.105
233.195
668.747
727.287
810.689
804.943
912.198
791.17
692.832
881.711
766.225
817.13
917.478
817.996
816.035
929.16
817.11
)
;
    }
    procBoundary0to2
    {
        type            processor;
        value           nonuniform List<scalar> 
47
(
218.947
261.189
276.394
166.107
-27.913
219.794
223.006
233.164
166.107
150.764
257.402
273.803
285.896
308.487
244.32
263.697
269.959
251.048
248.771
286.98
288.152
283.059
296.337
304.033
93.2637
93.2637
150.764
92.6014
-10.3034
17.4976
17.4976
223.006
233.164
198.271
285.896
308.487
177.173
257.402
257.402
251.048
248.771
263.697
269.959
296.337
304.033
288.152
283.059
)
;
    }
    procBoundary0to3
    {
        type            processor;
        value           nonuniform List<scalar> 
43
(
165.751
165.751
165.751
164.599
164.599
164.599
162.831
162.831
162.831
162.93
162.93
162.93
167.297
167.297
167.297
163.721
163.721
163.721
164.163
164.163
163.127
163.127
163.127
163.365
163.365
163.365
143.549
143.652
144.061
146.398
141.671
143.461
141.415
141.68
142.086
140.091
141.456
140.36
141.81
140.449
141.179
140.367
141.825
)
;
    }
    procBoundary0to4
    {
        type            processor;
        value           nonuniform List<scalar> 
58
(
286.733
769.18
769.18
769.18
961.534
407.043
407.043
407.043
407.043
407.043
149.809
1181.07
1357.1
1340.31
1175.81
519.352
722.926
427.424
510.574
1008.45
881.979
257.467
427.424
299.178
49.3795
70.4997
49.3795
155.612
49.3795
-141.639
-119.248
1008.45
1052.07
427.424
510.574
299.178
-1.53616
618.649
-95.5382
70.4997
-141.639
-265.161
-119.248
-22.8109
324.342
-119.248
-119.248
881.979
1058.41
1357.1
748.67
914.366
1052.07
1175.81
780.87
1340.31
1175.81
1196.32
)
;
    }
}


// ************************************************************************* //
