/*--------------------------------*- C++ -*----------------------------------*\
| =========                 |                                                 |
| \\      /  F ield         | OpenFOAM: The Open Source CFD Toolbox           |
|  \\    /   O peration     | Version:  2012                                  |
|   \\  /    A nd           | Website:  www.openfoam.com                      |
|    \\/     M anipulation  |                                                 |
\*---------------------------------------------------------------------------*/
FoamFile
{
    version     2.0;
    format      ascii;
    class       volVectorField;
    location    "0.107/solid";
    object      U;
}
// * * * * * * * * * * * * * * * * * * * * * * * * * * * * * * * * * * * * * //

dimensions      [0 1 -1 0 0 0 0];


internalField   nonuniform List<vector> 
3124
(
(3.97922e-10 7.50806e-10 1.55661e-09)
(1.55144e-08 -8.72913e-09 -5.92502e-10)
(-2.11173e-08 1.0972e-08 -7.05492e-10)
(4.18386e-09 1.93129e-09 -1.96336e-09)
(-8.54347e-11 -3.21378e-11 2.40528e-10)
(2.06559e-10 -4.27297e-11 -8.9739e-11)
(1.0317e-08 -5.01124e-09 4.59993e-10)
(1.3637e-10 1.11986e-09 1.97416e-09)
(-1.0694e-08 5.6284e-09 -5.76345e-10)
(-8.40635e-09 4.50531e-09 1.9817e-10)
(5.00458e-09 2.2804e-09 -2.81847e-09)
(-2.71215e-08 -2.49133e-08 -3.19789e-08)
(-3.74332e-11 6.43612e-10 2.26648e-09)
(7.24649e-09 3.17408e-09 -4.6517e-09)
(-1.11534e-08 -1.12967e-08 -9.84194e-09)
(-9.48183e-09 4.65755e-09 -2.36757e-09)
(3.98632e-09 2.51004e-09 -1.86791e-09)
(-2.14914e-10 -4.56749e-11 5.35411e-10)
(1.80565e-10 -4.74102e-11 -5.6001e-11)
(-1.20216e-10 -4.4596e-11 2.37084e-10)
(2.34822e-10 -8.13793e-11 -2.60519e-11)
(-2.14043e-10 -8.83717e-11 4.54267e-10)
(2.56387e-10 -7.62361e-11 -6.03155e-11)
(3.87446e-08 -3.69536e-08 -1.22469e-08)
(2.19086e-07 -1.97673e-07 3.01821e-08)
(2.62199e-07 -3.86332e-07 -3.36419e-08)
(-3.64361e-08 2.90613e-08 -1.07111e-10)
(-6.71516e-10 4.43331e-10 1.57998e-09)
(-3.20742e-09 3.4301e-09 4.27024e-09)
(-1.30166e-08 9.78792e-09 6.04831e-09)
(3.44793e-09 3.08707e-10 9.22626e-10)
(-1.36855e-08 5.77092e-09 5.83677e-09)
(1.4545e-09 3.52132e-10 5.65582e-10)
(1.8792e-09 -1.02295e-09 2.74668e-10)
(-2.02247e-08 9.8113e-09 -1.0513e-09)
(-8.28814e-09 5.43636e-09 -6.75418e-09)
(1.05095e-09 4.37877e-10 8.05617e-10)
(1.41241e-10 1.4614e-10 5.76117e-10)
(2.0255e-10 -1.0982e-11 5.8259e-10)
(5.36284e-11 7.52414e-14 6.56244e-10)
(2.33339e-10 -6.18495e-12 5.96735e-10)
(2.99055e-10 1.86573e-11 6.14603e-10)
(2.87179e-08 -2.76209e-08 -7.94625e-09)
(8.16662e-08 -3.31764e-08 -1.36103e-09)
(2.42963e-07 -2.59396e-07 -2.33414e-08)
(3.59124e-07 -3.03277e-07 1.37219e-07)
(5.62395e-07 -7.11251e-07 1.91159e-08)
(9.83396e-08 -2.25387e-08 -1.59056e-09)
(-7.20418e-07 -1.51942e-07 -1.26069e-06)
(4.46326e-07 -3.92081e-07 5.45311e-09)
(4.39492e-10 3.30065e-10 7.78888e-11)
(2.61498e-10 2.49726e-10 1.69707e-10)
(3.17464e-10 -3.21051e-11 -1.78457e-10)
(2.91253e-10 -1.86493e-11 -1.69619e-10)
(1.64353e-09 -6.61784e-10 1.51902e-10)
(4.87409e-08 -1.4528e-08 2.00392e-09)
(6.49122e-09 1.26008e-10 1.16205e-09)
(-9.6283e-09 2.28758e-09 2.22195e-09)
(1.21193e-09 1.34209e-09 3.5583e-09)
(-1.44838e-08 1.14163e-08 3.89492e-09)
(2.7693e-09 1.62198e-09 1.46159e-09)
(-4.00301e-08 3.00639e-08 -6.6936e-10)
(-9.23682e-09 5.53429e-09 1.79648e-09)
(-2.17766e-08 1.2574e-08 -2.10145e-09)
(-1.74869e-08 8.06063e-09 -6.63862e-10)
(-1.73144e-08 1.26899e-08 3.98797e-09)
(-4.47019e-08 2.7589e-08 1.61012e-11)
(-1.56748e-08 7.93136e-09 3.46213e-09)
(-2.28901e-08 1.41634e-08 -1.88895e-09)
(-1.80553e-08 1.48451e-08 3.01808e-09)
(5.49905e-08 -7.05722e-09 1.6487e-09)
(2.15993e-09 1.30328e-09 3.78399e-09)
(6.42535e-09 2.02905e-09 2.76644e-09)
(-1.23378e-08 2.879e-09 -5.32594e-10)
(-9.54171e-09 3.43313e-09 1.21377e-09)
(1.22727e-08 -4.01299e-09 -8.68438e-09)
(-1.38504e-06 1.31386e-07 -1.32827e-06)
(7.9399e-09 -4.73456e-09 -1.0644e-08)
(5.65741e-10 9.13966e-11 3.41991e-09)
(1.09328e-09 -1.62381e-09 1.04716e-09)
(2.21249e-09 7.58839e-10 -4.21843e-11)
(1.38554e-08 -4.38755e-10 -1.31559e-08)
(2.83728e-09 -1.79566e-09 -1.1356e-09)
(7.79623e-10 -3.95543e-10 3.36986e-09)
(1.09169e-08 -1.07627e-08 -9.81204e-09)
(1.61509e-09 -3.13725e-09 4.62605e-10)
(-2.26871e-08 1.13068e-08 -8.32966e-10)
(-6.61388e-09 3.32492e-09 -3.25447e-09)
(-2.05237e-08 1.10174e-08 -3.59424e-09)
(-1.51656e-08 6.46848e-09 -2.63144e-09)
(-4.33851e-08 2.61903e-08 1.52218e-10)
(-1.16711e-08 7.20836e-09 -6.28029e-09)
(-1.07938e-08 4.34586e-09 -3.24487e-09)
(-5.68568e-09 9.20649e-10 -9.1871e-10)
(-8.13205e-09 1.01238e-08 -6.31471e-09)
(-2.14866e-08 1.22929e-08 -3.15318e-09)
(-1.18147e-08 1.03523e-08 -5.10051e-09)
(-1.16995e-08 2.55079e-09 -8.24545e-10)
(-6.84554e-09 1.25691e-09 -1.0328e-09)
(1.47031e-09 8.03211e-10 4.46697e-10)
(5.20311e-10 5.98444e-10 3.60956e-10)
(1.19561e-10 2.234e-10 6.78146e-10)
(5.71011e-11 3.03949e-12 6.81083e-10)
(9.76325e-11 1.28869e-10 6.38958e-10)
(8.78367e-11 3.35073e-10 5.6661e-10)
(3.97712e-12 -2.16108e-11 7.06462e-10)
(2.25601e-11 1.71167e-10 7.0603e-10)
(1.27669e-10 -1.17097e-11 6.60351e-11)
(4.26402e-11 1.45866e-11 9.56029e-11)
(8.30857e-11 -1.12609e-11 6.7267e-10)
(8.79433e-11 7.0037e-11 6.58017e-10)
(2.07749e-10 -4.3339e-11 5.23429e-10)
(2.69301e-10 -2.69631e-11 3.12552e-10)
(-9.64299e-11 -1.05906e-11 7.59684e-10)
(4.33095e-11 -4.72895e-11 6.6326e-10)
(4.05354e-11 1.669e-10 2.68526e-10)
(2.08403e-11 1.77086e-10 6.78619e-10)
(2.4083e-10 -2.71495e-11 5.17536e-10)
(4.11509e-10 -5.72131e-11 -2.06231e-10)
(3.20154e-10 -1.23384e-11 5.25399e-10)
(3.37498e-10 1.70576e-11 6.59476e-10)
(4.14499e-10 -2.28941e-11 -2.14351e-10)
(3.60264e-10 -9.43999e-12 5.38309e-10)
(1.5011e-07 -4.50024e-07 -7.40197e-08)
(6.93533e-08 -1.04631e-07 -3.79578e-08)
(6.7739e-10 9.64855e-11 1.07809e-09)
(7.67533e-10 -1.23144e-11 1.08386e-09)
(5.59673e-10 5.61524e-11 1.19252e-09)
(4.12146e-10 -1.60966e-10 9.83357e-10)
(2.85274e-10 1.93225e-11 6.59011e-10)
(2.71169e-10 1.82256e-11 6.68499e-10)
(3.07076e-10 2.64363e-11 6.85585e-10)
(3.27879e-10 3.10154e-11 7.06192e-10)
(1.52642e-07 -1.24396e-07 1.35059e-08)
(2.05816e-08 -1.41025e-08 -2.41127e-09)
(3.66559e-08 -2.03038e-08 -1.15728e-09)
(1.69526e-08 -1.01547e-08 9.35045e-09)
(9.49969e-08 -5.66504e-08 2.28206e-08)
(5.03547e-08 -3.51052e-08 -4.95006e-09)
(2.56667e-08 -1.79389e-08 8.59254e-09)
(3.87524e-07 1.39398e-07 1.63943e-07)
(-1.45475e-07 7.79574e-08 1.75156e-08)
(3.78972e-08 2.22068e-08 7.11055e-09)
(-2.4431e-08 1.8912e-08 -3.13811e-09)
(1.09874e-07 7.53649e-08 2.71256e-08)
(-8.02687e-07 2.96396e-07 -6.21547e-11)
(1.1874e-07 7.76677e-10 2.7299e-08)
(6.5077e-09 1.44728e-10 -7.86422e-10)
(1.55245e-09 8.03928e-10 -5.80493e-10)
(2.66062e-09 7.82893e-11 -3.15626e-10)
(-5.63672e-11 3.94219e-11 2.70033e-10)
(-1.5098e-10 -2.98293e-14 -2.91407e-11)
(-8.93596e-11 5.76884e-12 -3.36558e-11)
(2.86854e-10 -5.62363e-12 -9.48919e-11)
(2.50694e-10 -3.81003e-11 -1.35262e-10)
(3.57806e-10 -4.79869e-12 -1.08166e-10)
(2.96985e-10 -3.18665e-11 -1.79845e-10)
(4.81501e-10 -1.45187e-11 -1.21293e-10)
(3.03835e-08 -1.54179e-08 1.01878e-08)
(6.01631e-09 -2.66605e-09 4.93441e-10)
(2.38782e-08 -1.10192e-08 9.21485e-10)
(1.41613e-08 -8.29631e-09 8.93688e-09)
(7.89864e-08 -4.30365e-08 2.11975e-08)
(1.3716e-08 -5.56717e-09 8.99617e-10)
(5.92152e-09 -3.5715e-09 6.55758e-09)
(3.44981e-09 2.02069e-09 4.77672e-09)
(1.61679e-10 1.22943e-09 2.3965e-09)
(1.17394e-09 2.36152e-09 7.87176e-09)
(4.25555e-10 1.5986e-09 1.33093e-09)
(3.3186e-08 1.90964e-08 1.71531e-08)
(-7.71335e-08 4.00715e-08 -2.12214e-08)
(1.88037e-08 1.40136e-08 2.88548e-09)
(-1.10069e-10 2.47052e-09 1.48075e-09)
(8.00087e-08 5.41879e-08 2.31868e-08)
(-1.24654e-08 1.03455e-08 5.22459e-09)
(1.13296e-08 7.24739e-09 3.20333e-09)
(8.34548e-09 1.93062e-10 -9.86335e-10)
(9.10993e-09 1.77011e-09 -5.97805e-09)
(1.50357e-08 5.08516e-11 -1.67965e-09)
(-1.74156e-07 -3.57561e-07 -1.81553e-07)
(-1.88523e-07 1.32054e-08 -1.13604e-07)
(-6.50597e-08 -4.14698e-08 -9.22909e-08)
(-2.06749e-08 -3.20523e-08 -3.61554e-08)
(-8.07373e-07 -3.95662e-08 -5.6924e-07)
(-9.1284e-08 -1.21351e-07 -1.1877e-07)
(-3.98233e-08 -2.64825e-08 -6.86937e-08)
(4.37009e-09 2.11773e-09 -2.1744e-09)
(1.06261e-08 2.24818e-09 -7.79687e-09)
(6.38433e-09 1.47472e-09 -3.86776e-09)
(-2.07743e-08 -2.19506e-08 -1.95656e-08)
(-1.12101e-07 6.42731e-09 -5.54107e-08)
(-2.62502e-09 -5.15127e-09 -2.39076e-09)
(-5.21224e-09 -1.99417e-08 -1.60228e-08)
(-1.9582e-08 1.15986e-09 -2.31034e-09)
(-6.57423e-08 -7.78674e-08 -8.08033e-08)
(1.38759e-10 -9.20692e-09 -5.74266e-09)
(2.44737e-09 1.82101e-09 -7.95713e-10)
(2.07684e-09 1.44207e-09 -6.51476e-10)
(1.38388e-09 1.2966e-09 -2.42741e-11)
(2.04204e-10 2.51271e-12 6.54447e-10)
(2.13945e-10 7.46372e-12 6.85916e-10)
(-2.20259e-10 3.27975e-11 6.16793e-10)
(-1.78518e-10 -7.16489e-11 6.12535e-10)
(-1.84353e-10 1.15077e-11 6.96274e-10)
(2.55464e-10 -3.9181e-12 -9.04029e-11)
(1.44642e-10 -5.29e-11 -1.88166e-11)
(1.80917e-10 -5.73757e-12 -8.04074e-11)
(-1.52588e-10 -3.12444e-12 -3.12857e-11)
(-6.36134e-11 -4.92835e-11 1.38668e-10)
(-8.65859e-11 -1.86378e-12 -4.57902e-11)
(2.10477e-10 4.33698e-12 6.55802e-10)
(2.1671e-10 3.66891e-12 6.50864e-10)
(1.64593e-10 -9.80204e-11 2.20836e-10)
(1.73661e-10 -9.76413e-11 7.04723e-11)
(1.26507e-10 -1.53887e-10 3.20827e-10)
(-1.47715e-10 -1.34436e-10 5.07605e-10)
(-1.86147e-10 -8.76751e-11 3.14337e-10)
(-9.52602e-11 -1.75342e-10 3.05166e-10)
(1.98981e-10 -6.64296e-11 1.86009e-10)
(3.03305e-10 -6.82696e-11 -1.15366e-10)
(2.40586e-10 -4.55622e-11 1.6207e-10)
(4.73403e-10 -2.28553e-11 9.91248e-10)
(3.66903e-10 -7.70466e-11 -1.38342e-10)
(3.26829e-10 -1.14812e-10 1.81145e-10)
(1.52025e-07 -2.99675e-07 -4.16441e-08)
(4.20359e-08 -1.51688e-08 -1.04105e-08)
(7.77963e-08 -1.07728e-07 -2.45406e-08)
(6.86202e-08 -7.23464e-08 -5.41161e-09)
(1.93198e-07 -2.94581e-07 -8.08217e-09)
(9.49171e-08 -1.37054e-07 -4.37648e-08)
(7.05461e-08 -8.36321e-08 -1.02216e-08)
(1.89929e-07 -5.91275e-07 -7.12521e-08)
(5.07175e-07 -9.63125e-07 8.41106e-08)
(2.55213e-07 -4.62577e-07 -5.79225e-08)
(6.47835e-07 -1.29895e-06 2.36732e-08)
(7.52456e-08 -1.35962e-07 -3.93007e-08)
(2.07564e-07 -5.49876e-07 -3.91089e-08)
(6.05203e-07 -8.88936e-07 -8.80202e-09)
(1.32875e-07 -2.10075e-07 -3.3816e-08)
(2.53833e-07 -4.65188e-07 -4.58189e-08)
(2.6556e-07 -4.27589e-07 -1.17117e-09)
(6.67201e-07 -1.31766e-06 3.35953e-08)
(1.3429e-07 -2.61591e-07 -4.72676e-08)
(-8.28377e-09 8.59258e-09 9.4883e-09)
(-2.50951e-08 2.09368e-08 5.18769e-09)
(-1.82799e-08 1.96649e-08 -3.23079e-09)
(-2.67027e-08 2.00927e-08 6.65501e-09)
(-1.25352e-08 1.09014e-08 9.36445e-09)
(-1.37729e-08 1.29154e-08 8.17572e-09)
(-2.14111e-08 1.65639e-08 6.07594e-09)
(3.42492e-10 3.35324e-09 6.32703e-09)
(1.21873e-08 -1.79117e-09 5.28859e-09)
(2.73603e-09 1.59645e-10 8.96342e-10)
(1.16078e-09 5.21293e-10 1.05585e-09)
(4.97369e-09 1.11434e-09 4.00432e-09)
(4.54947e-10 2.78687e-09 4.67333e-09)
(1.11416e-09 5.62531e-10 1.22793e-09)
(6.70368e-10 -3.03766e-10 1.27133e-09)
(8.30544e-10 -1.28848e-10 1.15001e-09)
(1.00395e-09 1.85045e-10 9.12955e-10)
(1.70396e-09 1.42688e-10 6.15893e-10)
(1.1254e-09 2.86318e-11 9.0779e-10)
(1.16835e-09 -5.35628e-10 1.06891e-09)
(2.2592e-09 -8.44195e-11 1.44184e-10)
(1.35315e-09 -1.94497e-10 9.06701e-10)
(-1.51186e-08 6.7543e-09 -5.04966e-09)
(-1.71592e-08 6.31751e-09 -4.08155e-09)
(-1.39323e-08 5.54043e-09 -5.63909e-09)
(8.08281e-10 1.74804e-10 1.05491e-09)
(6.40674e-10 2.17559e-10 8.60956e-10)
(5.21644e-10 -4.46628e-11 9.40497e-10)
(2.95063e-10 4.89725e-11 6.23463e-10)
(3.29678e-10 -7.20416e-11 6.7114e-10)
(2.94165e-10 9.28679e-11 7.03659e-10)
(2.27198e-10 8.41082e-11 5.73459e-10)
(2.90994e-10 -3.71868e-11 6.51383e-10)
(2.28276e-10 1.21603e-11 6.44207e-10)
(2.53829e-10 1.09829e-11 6.72897e-10)
(2.32713e-10 6.33039e-12 6.5411e-10)
(1.73383e-10 -1.97938e-11 6.15287e-10)
(2.13458e-10 7.35478e-13 6.63281e-10)
(1.46175e-10 8.64273e-12 6.68561e-10)
(1.26773e-10 -2.77291e-11 6.57988e-10)
(1.8561e-10 -1.53195e-12 6.70828e-10)
(2.58841e-10 1.58621e-11 6.65519e-10)
(2.58735e-10 4.86254e-12 5.91306e-10)
(2.84139e-10 2.70504e-11 6.7546e-10)
(3.66699e-10 4.30823e-11 7.4452e-10)
(3.51808e-10 3.67596e-11 7.4474e-10)
(2.79019e-10 1.76053e-11 6.3383e-10)
(3.24193e-10 3.03982e-11 7.20662e-10)
(3.10484e-10 3.41866e-11 7.03615e-10)
(1.69811e-07 -1.55659e-07 1.23474e-08)
(2.48749e-08 -2.08625e-08 -5.08927e-09)
(7.29909e-08 -8.29608e-08 -1.68292e-08)
(5.78894e-08 -5.34745e-08 -1.552e-09)
(1.9723e-07 -2.59804e-07 -3.98843e-09)
(6.29918e-08 -5.63612e-08 -1.02317e-08)
(2.78312e-08 -2.09705e-08 8.3657e-09)
(1.99543e-07 -1.59223e-07 1.9209e-08)
(5.87044e-08 -3.06128e-08 -7.88022e-10)
(1.94925e-07 -6.97794e-08 3.21849e-08)
(1.28793e-07 -7.08915e-08 -6.77466e-09)
(4.01357e-07 -2.39426e-07 2.85242e-08)
(1.19083e-07 -6.71889e-08 2.79754e-08)
(8.52423e-08 -5.74622e-08 -5.90792e-09)
(2.25226e-07 -2.0517e-07 1.89419e-08)
(7.15436e-07 -8.37255e-07 5.11587e-08)
(1.3039e-07 -1.54064e-07 -2.15265e-08)
(1.85019e-07 -1.41213e-07 -1.35531e-08)
(2.71697e-07 -3.69957e-07 3.03e-09)
(4.89561e-07 -3.45353e-07 3.71208e-08)
(1.13124e-07 -9.99958e-08 -1.32524e-08)
(8.29224e-07 -1.04936e-06 3.58631e-07)
(2.55177e-07 -3.95936e-07 -6.47185e-09)
(9.7077e-07 -1.64808e-06 2.15888e-07)
(1.39038e-06 -1.4204e-06 -7.25329e-08)
(3.29621e-06 -2.56554e-06 1.54598e-06)
(1.04717e-06 -1.3511e-06 1.59423e-07)
(7.00583e-07 -9.41982e-07 3.51041e-08)
(1.62049e-06 -2.03683e-06 8.49074e-08)
(1.20334e-06 -1.75436e-06 2.43473e-07)
(2.77051e-06 -2.42595e-06 1.26619e-06)
(5.16917e-07 -2.67156e-08 1.26346e-07)
(8.82336e-08 2.44654e-09 1.43854e-09)
(2.14016e-07 -5.59029e-08 3.08313e-08)
(1.71254e-07 -6.28124e-08 -2.15695e-09)
(4.80359e-07 -2.40343e-07 4.13348e-08)
(1.74237e-07 4.02293e-08 2.51256e-08)
(1.81868e-07 -2.82271e-08 8.93179e-09)
(6.14268e-07 1.22893e-07 2.78017e-07)
(2.70423e-07 -5.52839e-09 -2.13963e-07)
(-8.17767e-06 3.27323e-06 -1.49647e-05)
(1.37805e-06 -1.07071e-06 -1.83904e-07)
(2.36774e-06 -1.23376e-06 1.17524e-06)
(-1.3714e-06 5.68998e-07 -6.0885e-08)
(4.64643e-07 -1.58492e-07 3.82853e-08)
(8.67399e-07 -3.03548e-07 1.82139e-07)
(9.89835e-07 -1.08615e-06 1.31657e-07)
(2.94756e-07 -1.7194e-07 -5.05396e-10)
(8.07362e-07 -6.82568e-07 6.67147e-08)
(6.05199e-07 -3.67262e-07 5.441e-08)
(2.18873e-06 -1.49124e-06 1.00297e-06)
(3.94503e-07 -1.76579e-07 3.7794e-08)
(1.25264e-09 6.76079e-10 -3.67932e-10)
(7.64718e-10 3.90902e-11 -1.12486e-10)
(2.19787e-09 6.42608e-11 -2.55719e-10)
(-3.97979e-11 7.74958e-11 2.80851e-10)
(4.59121e-10 2.83519e-11 -8.04631e-11)
(-8.29997e-12 1.25279e-11 -3.96387e-11)
(2.4018e-10 -3.57538e-11 -1.28152e-10)
(4.25518e-10 -2.81731e-12 -1.1754e-10)
(3.70168e-10 -5.52348e-12 -1.09987e-10)
(3.14415e-10 -1.91007e-11 -2.00174e-10)
(4.3542e-10 -3.16901e-12 -1.19341e-10)
(4.83455e-10 -8.53715e-12 -1.23578e-10)
(-3.59133e-08 2.11606e-08 1.23073e-09)
(-5.41057e-09 2.19785e-09 8.62011e-09)
(3.61859e-08 -1.57424e-08 5.08959e-09)
(3.7102e-09 -1.5595e-09 1.52629e-10)
(5.80798e-09 -1.96065e-09 1.66439e-09)
(6.29359e-10 3.5699e-10 1.76547e-09)
(2.23246e-08 -3.69795e-09 1.88902e-08)
(9.21354e-09 -3.47793e-09 6.68065e-10)
(1.33501e-09 -1.83244e-09 1.33827e-09)
(3.99812e-08 -1.61241e-08 1.5017e-08)
(3.68394e-08 -1.52203e-08 1.78206e-09)
(1.51274e-07 -4.63072e-08 2.93572e-08)
(2.67581e-08 -5.45313e-09 3.2195e-09)
(9.77252e-08 -4.977e-08 2.49236e-08)
(6.20294e-08 -1.12488e-08 2.7142e-08)
(2.06477e-08 -6.5698e-09 2.01007e-09)
(3.60839e-08 -9.74546e-09 1.18726e-08)
(1.2682e-08 -4.41509e-10 2.50689e-09)
(6.79141e-09 -1.90796e-09 8.61046e-10)
(1.31505e-08 -8.03543e-10 2.50504e-09)
(6.47233e-09 -2.48992e-09 7.85999e-09)
(4.44473e-08 -7.1792e-09 2.28223e-08)
(1.10285e-08 -2.39662e-09 1.05221e-09)
(-3.24382e-08 1.58425e-08 -5.24569e-09)
(-1.98987e-09 3.8106e-09 3.72383e-09)
(1.68845e-08 9.04436e-09 6.75074e-09)
(-2.55895e-08 2.41751e-08 1.95001e-09)
(-7.58457e-09 9.48245e-09 5.30246e-09)
(2.95323e-09 2.09459e-09 2.208e-09)
(-9.11658e-10 3.55964e-10 3.34907e-09)
(5.73449e-10 1.99873e-10 7.59315e-10)
(-2.00511e-09 2.59543e-09 4.67473e-09)
(6.08949e-10 9.29469e-10 4.61699e-10)
(4.68699e-09 2.30339e-09 6.26868e-09)
(5.46697e-10 1.26112e-09 3.05423e-09)
(3.35291e-09 3.48296e-09 1.45279e-08)
(2.09624e-09 2.02906e-09 3.36194e-09)
(1.04063e-08 4.66508e-09 1.6351e-08)
(2.48234e-09 3.38559e-09 1.03354e-08)
(8.35482e-10 1.86869e-09 2.2032e-09)
(-2.23783e-08 2.01426e-08 2.9408e-09)
(-7.52718e-09 2.29425e-09 4.48965e-09)
(-6.85554e-09 6.99732e-09 5.77539e-09)
(4.45396e-09 2.17692e-09 1.02379e-09)
(8.1493e-09 2.79097e-09 1.63497e-09)
(1.40985e-09 5.59035e-10 7.90125e-10)
(2.53427e-09 2.31119e-09 2.59277e-09)
(6.94949e-11 9.52524e-10 5.4137e-09)
(1.21115e-08 3.84302e-09 1.53665e-08)
(9.5048e-10 1.69111e-09 1.12924e-09)
(-3.0113e-08 1.77121e-08 2.26671e-09)
(-3.10742e-08 2.2377e-08 3.17737e-09)
(-4.51791e-08 3.04997e-08 -2.89712e-10)
(-3.33918e-08 2.04713e-08 3.11154e-09)
(-2.66018e-08 1.65455e-08 4.65038e-09)
(-3.48179e-08 2.34744e-08 1.57175e-09)
(-3.73267e-08 2.08945e-08 1.32392e-09)
(-3.16123e-08 1.75484e-08 1.45902e-10)
(-4.61668e-08 3.05273e-08 -2.43522e-10)
(-3.59228e-08 2.19399e-08 -1.74444e-09)
(-3.82687e-08 1.9238e-08 -1.52077e-09)
(-3.6527e-08 2.33386e-08 -1.46869e-10)
(-3.88414e-08 2.06119e-08 -1.64569e-10)
(-3.15312e-08 1.62172e-08 -1.79251e-09)
(-2.79218e-08 2.46e-08 1.19786e-09)
(-3.32548e-08 2.60745e-08 5.50829e-10)
(-2.25833e-08 1.57432e-08 -2.27371e-10)
(-3.01219e-08 2.03085e-08 -1.63197e-09)
(-3.03518e-08 2.26189e-08 2.36775e-10)
(-2.45521e-08 2.09105e-08 2.30863e-09)
(-2.09174e-08 1.63932e-08 1.3504e-09)
(-2.97614e-08 2.29312e-08 7.99479e-10)
(-3.36954e-08 2.34476e-08 -1.1656e-09)
(-3.42082e-08 2.63432e-08 5.96357e-11)
(4.86057e-08 1.4218e-08 2.15e-08)
(4.61197e-08 6.39805e-09 2.09599e-09)
(1.62287e-07 -3.40305e-08 2.89609e-08)
(2.96335e-08 -1.58646e-09 3.6183e-09)
(1.2464e-07 3.32358e-08 2.60621e-08)
(6.48586e-08 -6.533e-09 2.80154e-08)
(2.48248e-08 4.01917e-09 3.46971e-09)
(2.75105e-08 1.2687e-08 1.8126e-08)
(2.64316e-09 1.52248e-09 3.17453e-09)
(3.20355e-09 3.28843e-09 1.47329e-08)
(4.49622e-09 2.32032e-09 4.08638e-09)
(1.32891e-08 5.57256e-09 1.87514e-08)
(-3.46267e-09 6.91893e-09 1.02674e-08)
(8.01726e-09 3.59672e-09 3.84486e-09)
(3.73725e-08 9.68228e-09 2.20969e-08)
(1.3567e-08 2.0658e-09 1.01489e-08)
(1.49777e-08 8.0018e-10 3.91334e-09)
(6.40986e-09 2.3684e-09 3.92612e-09)
(4.75181e-08 -4.02468e-09 2.47009e-08)
(1.58383e-08 4.66175e-09 1.82627e-08)
(1.33895e-08 2.63748e-09 4.22912e-09)
(-3.4923e-08 1.74971e-08 1.02122e-09)
(-4.23624e-08 1.96225e-08 3.42939e-10)
(-3.6644e-08 1.27931e-08 -1.36005e-09)
(-1.22716e-08 3.09461e-09 -1.31497e-11)
(-3.60482e-08 1.3061e-08 2.51514e-10)
(-4.24138e-08 1.7313e-08 -1.17958e-09)
(-4.28731e-08 1.87113e-08 -1.69025e-10)
(-2.42732e-08 1.12467e-08 3.81277e-09)
(-1.15575e-08 2.97716e-09 3.45665e-10)
(-3.59454e-08 1.42258e-08 -2.02751e-10)
(1.00822e-08 1.26845e-09 -6.93929e-09)
(2.69917e-08 -3.3818e-10 -3.43057e-09)
(1.77475e-08 -1.80098e-10 -1.95899e-09)
(-1.47869e-07 -4.14481e-07 -7.20125e-08)
(-2.27695e-07 -4.1143e-08 -4.19104e-07)
(-1.24426e-05 -9.89782e-08 -1.14765e-05)
(1.28752e-07 3.41954e-07 4.9049e-08)
(-1.40542e-06 -5.87115e-07 -1.44457e-06)
(9.82723e-07 3.46202e-07 1.62171e-06)
(-3.67058e-08 5.69822e-08 -9.26972e-08)
(6.1541e-09 -3.1348e-07 -8.54846e-08)
(-3.63501e-09 -9.26089e-09 -1.14609e-08)
(2.30597e-08 -8.09724e-09 -3.81289e-09)
(-4.29937e-08 -1.26732e-07 -9.21286e-08)
(-8.31527e-09 -9.38136e-09 -1.17846e-08)
(7.35085e-08 -3.3601e-07 1.84962e-08)
(1.98059e-07 1.60379e-07 1.037e-07)
(4.68452e-07 6.5705e-08 7.53422e-07)
(-4.51957e-09 4.52338e-09 -5.57362e-09)
(2.58539e-10 9.72625e-10 8.46963e-09)
(7.33234e-10 -3.85246e-10 1.40181e-09)
(2.38304e-10 -2.75105e-10 2.02461e-09)
(1.58121e-10 7.96108e-10 9.16928e-09)
(7.59078e-10 -8.09626e-10 1.39983e-09)
(3.23675e-10 -1.50166e-09 2.01768e-09)
(-1.20493e-09 -7.19955e-10 8.09431e-09)
(2.44872e-10 -7.96602e-10 2.14085e-09)
(3.21134e-09 1.45391e-09 -1.0414e-09)
(3.14694e-09 4.50633e-10 -2.89458e-10)
(4.56178e-09 9.77416e-10 -2.1191e-09)
(1.31369e-08 -1.16597e-09 -1.01619e-08)
(7.16163e-09 -3.55104e-09 -6.17797e-09)
(7.84816e-09 -5.19636e-10 -5.34754e-09)
(3.39655e-09 -5.92647e-11 -1.22816e-09)
(4.79586e-09 -2.58982e-09 -3.10829e-09)
(5.21883e-09 -5.1301e-10 -3.17302e-09)
(-7.91975e-09 -7.61611e-09 9.26914e-09)
(8.44738e-10 -1.90749e-09 1.78717e-09)
(-6.09568e-10 1.80997e-09 1.07796e-08)
(4.59402e-10 -1.61524e-09 2.61827e-09)
(-9.40937e-09 1.38069e-09 6.17762e-09)
(-2.4184e-09 -3.02647e-09 5.16616e-09)
(1.71801e-09 -3.87243e-09 7.92196e-10)
(-1.82966e-08 -1.64903e-08 -2.32195e-08)
(-1.88004e-09 -2.28417e-08 -1.54283e-08)
(7.63628e-09 -8.19276e-09 -4.72175e-09)
(-3.76876e-08 -7.48536e-08 -6.98378e-08)
(3.77518e-09 -8.73217e-09 -6.43322e-09)
(-9.34649e-09 -1.02094e-08 -6.70066e-09)
(3.83036e-10 -2.86554e-09 1.82626e-09)
(2.59349e-09 -5.56827e-09 -5.64927e-10)
(-2.58346e-09 -1.62263e-09 8.22331e-09)
(1.84649e-09 -4.90743e-09 -5.32861e-11)
(-2.16888e-08 9.84136e-09 -5.25107e-09)
(-3.19924e-08 1.75071e-08 -2.6112e-10)
(-1.93344e-08 9.58662e-09 -4.63143e-09)
(-2.11639e-08 8.23092e-09 -4.09297e-09)
(-1.74747e-08 7.23208e-09 -5.60162e-09)
(-2.43657e-08 1.27119e-08 -4.28897e-09)
(-2.65501e-08 1.13648e-08 -4.02555e-09)
(-2.55922e-08 1.15413e-08 -4.65504e-09)
(-3.43227e-08 1.87676e-08 -7.55681e-11)
(-3.34482e-08 1.91494e-08 -3.14749e-09)
(-3.5931e-08 1.73258e-08 -2.86832e-09)
(-2.951e-08 1.43432e-08 -3.41517e-09)
(-2.91155e-08 1.54383e-08 -3.87107e-09)
(-3.11206e-08 1.3544e-08 -3.69933e-09)
(-2.06207e-08 6.56365e-09 -2.51331e-09)
(-1.68979e-08 4.63657e-09 -2.27704e-09)
(-1.49752e-08 9.04359e-09 -3.56972e-09)
(-1.32417e-08 8.61758e-09 -4.76393e-09)
(-1.70271e-08 1.01138e-08 -3.39607e-09)
(-2.40288e-08 1.48808e-08 -2.73077e-09)
(-2.91959e-08 1.91482e-08 -2.22369e-09)
(-1.87467e-08 1.07321e-08 -3.94082e-09)
(-2.36386e-08 1.40786e-08 -3.33567e-09)
(-3.25402e-08 2.22605e-08 -1.62872e-09)
(-2.63311e-08 1.59453e-08 -2.4977e-09)
(-1.51558e-08 9.46172e-09 -4.4936e-09)
(-1.55438e-08 1.04028e-08 -4.39353e-09)
(-2.17423e-08 1.29891e-08 -3.63049e-09)
(-2.23388e-08 7.12323e-09 -2.51982e-09)
(-3.11565e-08 1.11171e-08 -2.43308e-09)
(-3.48983e-08 1.17115e-08 -1.80959e-09)
(-1.01132e-08 2.09792e-09 -1.11538e-09)
(-2.9149e-08 9.0373e-09 -2.45614e-09)
(-4.15014e-08 1.65761e-08 -1.64816e-09)
(-3.32866e-08 1.18854e-08 -2.30417e-09)
(-1.95208e-08 5.46091e-09 -2.35428e-09)
(-8.73407e-09 1.63376e-09 -1.09352e-09)
(-2.55325e-08 7.69193e-09 -2.52649e-09)
(2.02317e-09 1.2869e-09 -1.6043e-10)
(8.84848e-10 5.42015e-10 7.01051e-10)
(1.1565e-09 9.50259e-10 3.50711e-10)
(1.16063e-09 9.83476e-10 -4.63877e-12)
(2.29318e-10 4.8582e-10 6.50029e-10)
(6.79466e-10 8.4033e-10 4.54962e-10)
(3.94473e-10 3.13589e-10 7.39681e-10)
(1.55243e-10 3.62064e-10 7.29011e-10)
(5.31327e-10 6.20134e-10 6.38348e-10)
(2.4908e-10 5.01783e-11 6.80993e-10)
(2.27092e-10 2.40822e-11 7.07226e-10)
(1.28981e-10 5.9934e-12 6.8705e-10)
(5.66154e-11 3.14782e-11 7.08844e-10)
(1.39903e-10 2.92491e-11 7.04731e-10)
(1.90628e-10 1.0646e-10 6.53396e-10)
(7.40008e-11 9.1495e-11 7.05014e-10)
(1.60427e-10 6.91611e-11 7.02038e-10)
(-1.43829e-10 1.52078e-10 6.41377e-10)
(-2.18095e-11 2.5399e-10 7.17184e-10)
(-1.39134e-10 1.1526e-10 7.29118e-10)
(-8.41252e-11 -5.73381e-11 6.88531e-10)
(-2.03968e-11 3.51239e-11 7.45633e-10)
(-1.06929e-10 2.00323e-11 7.50667e-10)
(-1.67719e-11 2.1216e-10 7.56559e-10)
(-1.30631e-11 1.10203e-10 7.45238e-10)
(-8.69762e-11 1.08662e-10 7.64283e-10)
(1.23048e-10 -5.52477e-11 1.93697e-11)
(7.05862e-11 -1.33198e-12 -5.90974e-11)
(1.48107e-10 -4.77405e-12 -7.54439e-11)
(-9.53152e-11 -2.73174e-11 1.34048e-10)
(3.23828e-11 2.29635e-12 -5.53692e-11)
(-6.92699e-11 -2.30178e-12 -4.90349e-11)
(2.26377e-10 1.86619e-11 6.54843e-10)
(2.23698e-10 1.18898e-11 6.57124e-10)
(1.4004e-10 -4.28175e-12 6.79334e-10)
(1.20812e-10 -1.09341e-11 6.3506e-10)
(1.57971e-10 -7.10393e-13 6.66046e-10)
(1.54402e-10 2.91991e-11 6.6934e-10)
(1.50843e-10 2.81823e-11 6.33458e-10)
(1.7153e-10 1.45984e-11 6.60567e-10)
(1.85972e-10 -8.28705e-11 4.02956e-10)
(1.53255e-10 -6.20086e-11 5.73716e-10)
(1.29771e-10 -1.31779e-10 4.82623e-10)
(1.38046e-10 -1.07142e-10 2.00252e-10)
(1.57008e-10 -1.74665e-10 1.08239e-09)
(8.74939e-11 -2.52663e-10 5.31534e-10)
(7.64114e-11 -7.26687e-11 6.54845e-10)
(-1.98392e-10 -9.0888e-11 1.06487e-09)
(4.51802e-11 -2.06722e-10 6.51075e-10)
(-3.59788e-11 -1.10564e-10 5.96165e-10)
(1.02988e-10 -3.15849e-11 5.81516e-10)
(3.97395e-11 -1.13086e-10 4.30739e-10)
(-2.37565e-10 5.40464e-12 1.94099e-10)
(6.47624e-11 8.37149e-10 5.77513e-10)
(-8.07443e-11 -1.67061e-11 -9.08976e-11)
(1.98384e-10 5.91081e-11 5.28925e-10)
(-3.89291e-11 5.89125e-10 7.3757e-10)
(2.05054e-10 1.01603e-10 2.19229e-10)
(2.24525e-10 -4.52432e-11 3.72778e-10)
(2.58665e-10 -3.69902e-12 5.11188e-10)
(2.5667e-10 -1.09982e-11 3.70048e-10)
(3.30637e-10 -5.93752e-11 -1.29001e-10)
(3.10418e-10 -4.80476e-11 1.20703e-10)
(2.8288e-10 -3.7069e-11 1.72888e-10)
(2.74506e-10 4.60081e-13 5.50604e-10)
(3.19265e-10 -5.21663e-11 3.66336e-10)
(2.84154e-10 -1.73093e-11 3.99384e-10)
(3.9817e-10 4.40362e-11 8.03191e-10)
(4.25461e-10 3.31618e-11 8.69524e-10)
(4.13147e-10 -1.01454e-10 8.13639e-10)
(4.373e-10 -6.42384e-11 9.36452e-10)
(3.56792e-10 2.21818e-11 7.61171e-10)
(3.73316e-10 -2.09151e-11 7.04669e-10)
(3.89793e-10 8.76296e-12 8.06026e-10)
(4.17348e-10 -4.81213e-11 -2.29243e-10)
(3.24009e-10 -4.77861e-11 9.88103e-11)
(3.51366e-10 -7.67831e-11 9.63021e-11)
(3.96365e-10 -1.06825e-10 6.71687e-10)
(3.69577e-10 -1.19586e-10 4.47407e-10)
(3.52377e-10 -4.43264e-11 3.37946e-10)
(3.74756e-10 -4.15399e-11 5.59514e-10)
(3.70748e-10 -6.39737e-11 3.375e-10)
(5.59807e-09 1.68974e-09 -2.51751e-09)
(5.24466e-09 1.90101e-09 -2.21272e-09)
(8.46142e-09 2.8304e-09 -3.77412e-09)
(2.72868e-09 1.54563e-09 -1.2116e-09)
(1.01294e-08 2.06778e-09 -6.37504e-09)
(5.28839e-09 2.19957e-09 -2.05499e-09)
(3.42217e-09 1.57523e-09 -1.19808e-09)
(-5.57778e-10 2.1323e-11 5.09255e-10)
(-6.09312e-10 -2.14207e-11 8.26228e-10)
(-1.4518e-10 -1.46903e-11 3.00918e-10)
(-1.0449e-10 -2.18537e-11 2.13019e-10)
(-7.38865e-10 2.19836e-12 9.82033e-10)
(-5.93078e-10 -7.39612e-12 5.66225e-10)
(-1.569e-10 -2.80204e-12 2.41735e-10)
(3.47866e-10 -4.9947e-11 -3.68571e-10)
(2.32799e-10 -3.87666e-11 -7.73419e-11)
(2.08506e-10 -6.77089e-11 -1.02604e-10)
(1.72374e-10 -4.30898e-11 -6.20251e-11)
(2.52573e-10 -5.47802e-11 -2.29858e-10)
(1.53945e-10 -7.37307e-11 -4.5903e-11)
(1.95874e-10 -4.16512e-11 -7.46811e-11)
(1.54522e-08 1.84639e-09 -1.08048e-08)
(6.33774e-09 2.0109e-09 -2.95582e-09)
(9.90133e-09 2.98e-09 -4.49082e-09)
(6.48067e-09 2.35975e-09 -4.16358e-09)
(1.17833e-08 1.89584e-09 -7.47375e-09)
(1.49091e-08 3.07051e-09 -1.21024e-08)
(7.73625e-09 2.10713e-09 -3.95812e-09)
(9.52356e-12 9.71161e-10 7.57608e-09)
(-3.86004e-11 3.9723e-10 2.20921e-09)
(6.2461e-10 1.13534e-09 6.87443e-09)
(-3.79664e-11 5.3075e-10 2.7078e-09)
(6.81105e-10 6.89485e-10 8.44473e-09)
(2.52964e-10 1.06338e-09 6.41898e-09)
(-9.01959e-11 9.75686e-11 2.5059e-09)
(2.15706e-10 -3.3735e-11 -2.52657e-10)
(2.01711e-10 -3.79711e-11 -5.81518e-11)
(1.53215e-10 -6.37189e-11 -1.64118e-11)
(1.29818e-10 -5.04474e-11 -1.33649e-11)
(2.14692e-10 -3.33424e-11 -2.05104e-10)
(3.59301e-11 -5.9977e-11 8.00404e-11)
(1.45196e-10 -3.72625e-11 -3.36897e-11)
(-4.65893e-10 -3.19395e-11 3.63707e-10)
(-6.27433e-10 -6.44902e-11 7.85253e-10)
(-1.24377e-10 -3.68441e-11 2.00901e-10)
(-1.29403e-10 -5.72365e-11 2.30555e-10)
(-5.6693e-10 -3.76473e-11 5.05509e-10)
(-6.21865e-10 -6.64274e-11 7.42831e-10)
(-1.47582e-10 -4.18108e-11 1.89567e-10)
(-2.63448e-08 2.09442e-08 5.59374e-09)
(-3.35618e-08 2.75067e-08 1.543e-09)
(-3.29015e-08 2.80548e-08 -2.28271e-09)
(-3.7218e-08 2.6368e-08 1.16319e-09)
(-3.25844e-08 2.50894e-08 9.67332e-10)
(-2.98307e-08 2.62592e-08 9.7963e-10)
(-3.22596e-08 2.39192e-08 3.29546e-09)
(-2.12206e-09 2.64756e-09 5.13619e-09)
(-2.32563e-09 2.12139e-09 3.89846e-09)
(1.35659e-10 2.60298e-10 1.17842e-09)
(-1.79538e-09 1.65208e-09 4.307e-09)
(5.43079e-11 4.08941e-10 1.3571e-09)
(-1.88672e-08 8.99061e-09 -2.56116e-09)
(-2.11451e-08 8.75938e-09 -2.1644e-09)
(-1.8971e-08 7.79393e-09 -3.856e-09)
(1.15097e-06 -2.12018e-06 -2.08001e-07)
(4.09361e-06 -5.83472e-06 -2.59065e-06)
(1.10882e-09 5.12486e-10 -2.708e-10)
(6.33342e-10 4.32999e-10 -2.4661e-12)
(3.65516e-10 5.50575e-10 6.39277e-10)
(5.89462e-10 3.17531e-10 1.32026e-11)
(5.41239e-10 4.05922e-10 1.00811e-10)
(7.69111e-10 7.09578e-10 5.00966e-10)
(8.18038e-10 4.14804e-10 -8.43181e-11)
(-7.34377e-11 2.26212e-10 3.60573e-10)
(9.28815e-11 1.68519e-10 2.4751e-10)
(1.99166e-11 3.9234e-10 8.24815e-10)
(3.56618e-10 2.32066e-10 1.03599e-10)
(1.54664e-10 2.79576e-10 3.04494e-10)
(-3.17116e-10 2.79876e-10 9.67764e-10)
(1.56363e-10 1.63452e-10 1.71634e-10)
(5.13767e-10 -3.0793e-11 -5.20215e-10)
(2.40537e-10 -2.29371e-11 -1.19662e-10)
(4.53534e-10 -6.03399e-11 -3.22515e-10)
(3.46859e-10 -2.05853e-11 -1.56909e-10)
(4.89444e-10 -2.81347e-13 -4.40578e-10)
(3.08768e-10 -1.39745e-11 -1.90781e-10)
(2.69312e-10 -5.82614e-12 -1.29706e-10)
(6.00471e-10 -2.90987e-11 -5.94852e-10)
(2.734e-10 -5.18182e-11 -1.5688e-10)
(4.29444e-10 -1.06341e-10 -3.08745e-10)
(3.37165e-10 -3.35442e-11 -1.60003e-10)
(5.12678e-10 -8.28128e-11 -4.74599e-10)
(4.01803e-10 -1.35179e-10 -2.91003e-10)
(3.11616e-10 -3.86465e-11 -1.58928e-10)
(-3.98622e-08 2.57858e-08 -5.43821e-10)
(-3.60477e-08 2.54058e-08 -4.09654e-09)
(-3.12158e-08 2.95929e-08 3.73791e-10)
(-2.84211e-08 2.9122e-08 -1.95966e-09)
(-3.74386e-08 2.43498e-08 1.85801e-09)
(-3.68527e-08 2.8143e-08 5.48704e-10)
(-4.12574e-08 2.90076e-08 -2.20929e-10)
(-4.03596e-08 2.68372e-08 1.49828e-10)
(-3.49546e-08 2.36923e-08 2.51979e-09)
(-3.80708e-08 2.73579e-08 6.83037e-10)
(-4.20744e-08 2.60616e-08 5.99673e-10)
(-4.1213e-08 2.35341e-08 -1.15935e-09)
(-4.59176e-08 2.88155e-08 -2.10714e-11)
(-4.15998e-08 2.60208e-08 -7.70147e-10)
(-4.51986e-08 2.44325e-08 -7.56917e-10)
(-4.28955e-08 2.76405e-08 -4.59102e-10)
(-4.6008e-08 2.56823e-08 -5.85839e-10)
(-4.068e-08 2.23335e-08 -1.70256e-09)
(-3.46139e-08 3.05376e-08 -3.10287e-10)
(-3.57536e-08 2.98197e-08 -1.30447e-11)
(-3.97526e-08 2.83707e-08 1.10291e-10)