/*--------------------------------*- C++ -*----------------------------------*\
| =========                 |                                                 |
| \\      /  F ield         | OpenFOAM: The Open Source CFD Toolbox           |
|  \\    /   O peration     | Version:  2012                                  |
|   \\  /    A nd           | Website:  www.openfoam.com                      |
|    \\/     M anipulation  |                                                 |
\*---------------------------------------------------------------------------*/
FoamFile
{
    version     2.0;
    format      ascii;
    class       volVectorField;
    location    "0.108/solid";
    object      D_0;
}
// * * * * * * * * * * * * * * * * * * * * * * * * * * * * * * * * * * * * * //

dimensions      [0 1 0 0 0 0 0];


internalField   nonuniform List<vector> 
3125
(
(1.79413e-09 1.30791e-09 -1.23777e-09)
(1.00244e-09 1.41329e-10 -2.95238e-10)
(5.13999e-10 -2.28842e-10 -2.92545e-10)
(1.84871e-09 1.61269e-09 -1.53192e-09)
(1.08879e-09 2.18671e-10 -3.41644e-10)
(5.60142e-10 -2.003e-10 -2.42763e-10)
(9.26571e-10 3.75382e-09 -3.72158e-09)
(1.49482e-09 6.79139e-10 -6.79355e-10)
(7.81133e-10 -3.78161e-11 -2.12759e-10)
(1.46464e-09 3.02849e-09 -2.97736e-09)
(1.38613e-09 5.34546e-10 -5.64586e-10)
(7.18644e-10 -8.47199e-11 -2.02761e-10)
(5.62062e-09 2.67599e-09 -1.37572e-09)
(2.18277e-09 1.22305e-09 -1.11073e-09)
(4.38866e-09 4.26029e-09 -2.76268e-09)
(1.70694e-09 1.05796e-09 -1.00629e-09)
(6.61529e-09 3.87417e-09 -2.15244e-09)
(4.12313e-09 3.09005e-09 -2.01509e-09)
(2.01547e-09 9.92341e-10 -8.92471e-10)
(2.2722e-09 1.04396e-10 -2.73889e-10)
(9.75006e-10 1.29397e-10 -2.484e-10)
(2.60826e-09 5.95645e-10 -6.38601e-10)
(9.22679e-10 7.38466e-11 -2.58993e-10)
(2.824e-09 4.55847e-10 -3.54199e-10)
(2.32826e-09 2.83298e-10 -5.25801e-10)
(8.67218e-10 6.45355e-11 -2.17273e-10)
(8.1513e-10 -6.45235e-10 -1.02825e-09)
(3.36734e-10 -2.32714e-10 -2.65859e-10)
(1.44355e-09 -4.99562e-10 -7.20735e-10)
(4.72341e-10 -2.44287e-10 -3.83446e-10)
(9.97451e-10 -6.4359e-10 -5.38064e-10)
(1.31746e-09 -4.96387e-10 -1.12262e-09)
(2.83606e-10 -2.48987e-10 -3.55313e-10)
(3.99705e-09 4.50559e-09 -3.00442e-09)
(3.67175e-09 6.27188e-09 -4.12117e-09)
(7.53234e-09 5.78088e-09 -3.65892e-09)
(1.84399e-09 1.98709e-09 -1.90567e-09)
(2.33073e-09 1.50256e-09 -1.39238e-09)
(4.4421e-09 4.66621e-09 -3.06044e-09)
(6.72011e-09 4.03429e-09 -2.29567e-09)
(4.3221e-09 6.42973e-09 -4.25348e-09)
(2.43659e-09 1.8439e-09 -1.75532e-09)
(4.01432e-09 4.10158e-09 -2.72477e-09)
(3.88618e-09 2.94451e-09 -2.00876e-09)
(2.80013e-09 6.219e-10 -7.0282e-10)
(3.07184e-09 1.02079e-09 -8.91291e-10)
(3.56936e-09 9.60446e-10 -5.19062e-10)
(1.18177e-09 3.08097e-10 -4.00006e-10)
(1.09291e-09 2.03567e-10 -2.88746e-10)
(2.70993e-09 6.98259e-10 -6.85121e-10)
(2.9001e-09 4.99681e-10 -3.69602e-10)
(3.03388e-09 1.11326e-09 -8.72562e-10)
(1.22163e-09 2.88988e-10 -3.39888e-10)
(2.71741e-09 5.24289e-10 -6.56654e-10)
(2.47737e-09 2.26705e-10 -5.41893e-10)
(1.73321e-09 -5.0055e-10 -6.43724e-10)
(1.89268e-09 -3.60351e-10 -4.99354e-10)
(1.30024e-09 -4.67663e-10 -3.08337e-10)
(6.08579e-10 -1.65839e-10 -2.14903e-10)
(3.93778e-10 -2.03414e-10 -2.16293e-10)
(1.49414e-09 -4.72844e-10 -6.37624e-10)
(1.02444e-09 -6.32429e-10 -4.94941e-10)
(1.66214e-09 -3.32564e-10 -4.88605e-10)
(4.55536e-10 -1.68857e-10 -1.86994e-10)
(1.68523e-09 -5.28097e-10 -7.24539e-10)
(1.55956e-09 -5.35088e-10 -1.11225e-09)
(2.22001e-09 1.07747e-08 -7.32434e-09)
(2.03214e-09 3.43077e-09 -3.54844e-09)
(7.34362e-09 9.03352e-09 -6.65666e-09)
(2.4121e-09 1.32341e-08 -7.07128e-09)
(1.86443e-09 1.25863e-09 -1.63969e-09)
(1.56841e-09 3.85792e-10 -5.05985e-10)
(1.31976e-09 2.54892e-10 -3.55566e-10)
(4.67227e-09 5.27959e-09 -2.66197e-09)
(4.37412e-09 3.89848e-09 -1.94102e-09)
(5.50407e-09 2.5648e-09 -1.29439e-09)
(1.60377e-09 8.51338e-10 -8.23744e-10)
(3.63909e-09 2.01229e-09 -1.36044e-09)
(1.67396e-09 6.3952e-10 -5.90408e-10)
(4.00517e-09 2.81569e-09 -1.82896e-09)
(4.57075e-09 1.71619e-09 -8.50348e-10)
(1.84311e-09 8.00432e-10 -7.22753e-10)
(3.85243e-09 2.5776e-09 -1.30294e-09)
(4.25044e-09 3.53054e-09 -1.75412e-09)
(1.05147e-09 1.33579e-10 -2.25964e-10)
(1.27443e-09 2.19223e-10 -3.12153e-10)
(5.92067e-10 -1.76268e-11 -9.39872e-11)
(4.64513e-10 -4.84217e-11 -7.70065e-11)
(2.75286e-09 8.20905e-10 -6.04023e-10)
(2.45112e-09 4.5041e-10 -4.98998e-10)
(2.20949e-09 7.09883e-11 -2.66781e-10)
(8.49059e-10 1.45616e-11 -2.3161e-10)
(2.00262e-09 -3.43634e-11 -4.4775e-10)
(6.79259e-10 -4.36424e-11 -1.78871e-10)
(2.24106e-09 2.04991e-10 -4.99336e-10)
(1.75715e-09 -2.0399e-10 -2.43342e-10)
(7.68882e-10 7.31207e-12 -1.94206e-10)
(2.1091e-09 5.26331e-11 -4.31849e-10)
(2.35853e-09 3.45298e-10 -4.7447e-10)
(3.3211e-10 -8.10809e-11 -6.44384e-11)
(4.36847e-10 -5.70975e-11 -7.1442e-11)
(1.14823e-10 -1.40322e-10 -1.04384e-10)
(5.35075e-11 -1.51883e-10 -1.64684e-10)
(1.51515e-09 -5.04578e-10 -7.84394e-10)
(1.38712e-09 -5.03672e-10 -1.25704e-09)
(7.91818e-10 -6.12106e-10 -1.12763e-09)
(2.56289e-10 -1.28232e-10 -2.57335e-10)
(1.28748e-09 -4.27795e-10 -1.30564e-09)
(9.59894e-11 -1.27406e-10 -2.33552e-10)
(1.36477e-09 -4.41915e-10 -1.46927e-09)
(2.65857e-11 -1.42513e-10 -2.06905e-10)
(9.47669e-10 1.0704e-08 -6.9274e-09)
(1.85207e-09 9.69132e-09 -6.27145e-09)
(3.40489e-09 6.89865e-09 -4.55549e-09)
(7.56469e-09 6.02032e-09 -3.90936e-09)
(1.73773e-09 2.45049e-09 -2.37975e-09)
(2.94281e-09 9.79458e-09 -6.59819e-09)
(2.35692e-09 2.78399e-09 -2.81231e-09)
(7.53301e-09 8.66038e-09 -6.23962e-09)
(4.16479e-09 7.04868e-09 -4.72645e-09)
(2.46398e-09 2.26386e-09 -2.22116e-09)
(1.60365e-09 4.42547e-10 -5.80261e-10)
(1.84298e-09 6.52225e-10 -8.45428e-10)
(4.72637e-09 5.82247e-09 -2.96081e-09)
(4.62559e-09 7.89513e-09 -4.10779e-09)
(3.19484e-09 1.19305e-08 -6.35901e-09)
(4.45223e-09 8.71999e-09 -4.57921e-09)
(1.97038e-09 1.09581e-09 -1.42895e-09)
(1.83975e-09 7.4688e-10 -9.73156e-10)
(3.54707e-09 1.89014e-09 -1.37265e-09)
(3.81674e-09 2.6755e-09 -1.8304e-09)
(3.45476e-09 1.70414e-09 -1.25861e-09)
(3.16329e-09 1.1533e-09 -9.64415e-10)
(3.66067e-09 1.01888e-09 -5.46188e-10)
(1.28117e-09 4.12268e-10 -4.7311e-10)
(3.51225e-09 1.82026e-09 -1.24324e-09)
(1.51267e-09 5.03604e-10 -4.86488e-10)
(4.46399e-09 1.63653e-09 -8.03632e-10)
(3.15058e-09 1.25149e-09 -9.46884e-10)
(1.36157e-09 3.87998e-10 -4.04674e-10)
(6.25067e-10 -6.06166e-12 -1.03789e-10)
(7.80588e-10 3.5509e-11 -1.3364e-10)
(2.85999e-09 9.59487e-10 -6.49569e-10)
(3.20681e-09 1.45558e-09 -8.27664e-10)
(3.71896e-09 2.31925e-09 -1.18561e-09)
(3.32977e-09 1.64198e-09 -9.01547e-10)
(1.00775e-09 1.10125e-10 -2.00039e-10)
(8.193e-10 5.16281e-11 -1.49572e-10)
(2.58917e-09 2.98367e-10 -5.24313e-10)
(2.19412e-09 -7.73141e-11 -4.61822e-10)
(2.4033e-09 1.52539e-10 -5.15716e-10)
(2.27271e-09 -6.49997e-11 -4.56423e-10)
(2.5129e-09 2.01374e-10 -5.01301e-10)
(2.1311e-09 -1.34257e-10 -4.5613e-10)
(1.94704e-09 -3.15477e-10 -4.7588e-10)
(1.79875e-09 -5.56238e-10 -6.95448e-10)
(1.98376e-09 -4.02485e-10 -5.14639e-10)
(2.20647e-09 -1.40071e-10 -4.51111e-10)
(2.0336e-09 -3.45158e-10 -4.84073e-10)
(1.34002e-09 -4.47829e-10 -2.93721e-10)
(6.61229e-10 -1.27229e-10 -2.02789e-10)
(1.92902e-09 -9.49888e-11 -4.42209e-10)
(5.97556e-10 -8.94245e-11 -1.71469e-10)
(1.70612e-09 -2.29911e-10 -2.44549e-10)
(1.72517e-09 -2.85214e-10 -4.64625e-10)
(5.23117e-10 -1.30922e-10 -1.73446e-10)
(1.30073e-10 -1.34057e-10 -9.25458e-11)
(2.0314e-10 -1.14718e-10 -7.03522e-11)
(1.56761e-09 -4.7117e-10 -6.82309e-10)
(1.74277e-09 -3.08692e-10 -4.98054e-10)
(2.03116e-09 -2.88307e-11 -4.29422e-10)
(1.81107e-09 -2.48355e-10 -4.66213e-10)
(3.09231e-10 -8.80678e-11 -6.2719e-11)
(2.22321e-10 -1.08388e-10 -6.70627e-11)
(1.74554e-09 -5.90805e-10 -7.92178e-10)
(1.62596e-09 -6.02302e-10 -1.25548e-09)
(3.24001e-10 -1.40468e-10 -2.44891e-10)
(1.53114e-09 -4.73389e-10 -1.29019e-09)
(1.587e-09 -5.40978e-10 -1.46366e-09)
(5.6938e-10 -9.68865e-12 -1.20839e-09)
(1.37536e-10 3.52651e-11 -3.39799e-10)
(8.46146e-10 -2.705e-11 -1.20329e-09)
(8.52879e-11 4.02441e-11 -3.40953e-10)
(1.55015e-10 3.05529e-11 -3.32439e-10)
(9.45551e-10 -4.63753e-11 -1.17628e-09)
(4.20418e-09 2.56485e-09 -1.86251e-09)
(6.06078e-09 3.16102e-09 -1.66331e-09)
(4.88653e-09 3.00856e-09 -1.78802e-09)
(4.47013e-09 1.97871e-09 -1.44545e-09)
(4.70605e-09 2.26851e-09 -1.64613e-09)
(5.09186e-09 3.36563e-09 -2.00828e-09)
(4.03663e-09 2.24877e-09 -1.64726e-09)
(4.35616e-09 2.76645e-09 -2.04839e-09)
(6.17592e-09 3.29398e-09 -1.77116e-09)
(5.11353e-09 2.79601e-09 -2.08168e-09)
(5.47531e-09 4.11666e-09 -2.52431e-09)
(4.50659e-09 3.14823e-09 -2.32426e-09)
(4.88234e-09 2.44663e-09 -1.822e-09)
(5.28464e-09 3.68677e-09 -2.23971e-09)
(1.94826e-09 2.41907e-10 -4.37433e-10)
(2.50174e-09 2.509e-10 -3.02201e-10)
(2.21712e-09 2.36619e-10 -4.22167e-10)
(1.84797e-09 7.30015e-11 -3.30311e-10)
(1.97672e-09 1.57255e-10 -3.57972e-10)
(2.33993e-09 3.40393e-10 -4.50146e-10)
(1.84195e-09 1.51403e-10 -4.06875e-10)
(2.04833e-09 2.98833e-10 -4.6224e-10)
(2.57092e-09 2.89114e-10 -3.13245e-10)
(2.22909e-09 3.0389e-10 -4.13438e-10)
(2.59999e-09 5.51001e-10 -5.18195e-10)
(2.16448e-09 4.02131e-10 -5.02588e-10)
(2.08747e-09 2.07752e-10 -3.76819e-10)
(2.46553e-09 4.32473e-10 -4.80054e-10)
(7.96843e-10 -4.79389e-10 -7.32981e-10)
(8.88489e-10 -6.7989e-10 -7.73278e-10)
(9.49417e-10 -5.47038e-10 -1.05901e-09)
(6.00483e-10 -5.04249e-10 -8.00635e-10)
(6.49931e-10 -5.25458e-10 -6.72542e-10)
(9.93249e-10 -5.77293e-10 -8.94916e-10)
(7.52059e-10 -4.55357e-10 -8.64785e-10)
(8.40685e-10 -4.81045e-10 -6.32775e-10)
(9.08608e-10 -6.82322e-10 -7.03804e-10)
(7.66381e-10 -4.9478e-10 -4.92063e-10)
(1.09315e-09 -5.60494e-10 -6.53317e-10)
(8.93936e-10 -4.57627e-10 -5.46594e-10)
(7.01183e-10 -5.22865e-10 -5.74793e-10)
(1.03971e-09 -5.8216e-10 -7.61449e-10)
(4.83735e-09 4.1533e-09 -3.22895e-09)
(7.20803e-09 4.92902e-09 -2.99105e-09)
(5.98225e-09 6.13367e-09 -4.05439e-09)
(5.74969e-09 4.22037e-09 -3.39089e-09)
(4.87513e-09 4.72363e-09 -3.68246e-09)
(5.59605e-09 3.69969e-09 -2.95532e-09)
(5.90606e-09 5.4961e-09 -3.58059e-09)
(4.74977e-09 3.85677e-09 -2.91874e-09)
(7.12773e-09 4.73413e-09 -2.80108e-09)
(5.27149e-09 3.0116e-09 -2.31359e-09)
(5.64223e-09 4.50388e-09 -2.82438e-09)
(4.63797e-09 3.3918e-09 -2.56453e-09)
(5.4792e-09 3.43625e-09 -2.65023e-09)
(5.79468e-09 5.02554e-09 -3.1921e-09)
(2.52014e-09 6.61144e-10 -6.29133e-10)
(3.26253e-09 7.41034e-10 -4.45716e-10)
(3.19519e-09 1.07101e-09 -7.23204e-10)
(2.80946e-09 6.6576e-10 -5.80436e-10)
(2.6578e-09 7.98494e-10 -6.94567e-10)
(2.6388e-09 5.38433e-10 -5.2101e-10)
(3.03468e-09 9.13769e-10 -6.59281e-10)
(2.40069e-09 5.8602e-10 -5.87058e-10)
(3.17896e-09 6.90499e-10 -4.25093e-10)
(2.35046e-09 3.61658e-10 -4.39496e-10)
(2.73743e-09 6.56342e-10 -5.57977e-10)
(2.27393e-09 4.67309e-10 -5.35299e-10)
(2.50607e-09 4.71927e-10 -4.86396e-10)
(2.88455e-09 7.92478e-10 -6.07813e-10)
(1.05702e-09 -3.70689e-10 -4.01606e-10)
(1.16869e-09 -5.48784e-10 -3.67703e-10)
(1.35347e-09 -3.9323e-10 -4.1536e-10)
(1.02522e-09 -3.60258e-10 -3.19612e-10)
(1.122e-09 -3.19989e-10 -3.73435e-10)
(9.48201e-10 -4.09046e-10 -3.46071e-10)
(1.28018e-09 -4.49327e-10 -4.52994e-10)
(1.0018e-09 -3.97376e-10 -4.3559e-10)
(1.13519e-09 -5.65191e-10 -3.93591e-10)
(8.20268e-10 -4.75916e-10 -4.31655e-10)
(1.15015e-09 -5.34576e-10 -5.69085e-10)
(9.43677e-10 -4.39378e-10 -4.87705e-10)
(8.89353e-10 -4.33625e-10 -3.82008e-10)
(1.21359e-09 -4.89864e-10 -5.02441e-10)
(2.64498e-09 9.46341e-09 -8.16935e-09)
(6.31982e-09 1.11214e-08 -8.5898e-09)
(3.43882e-09 1.23874e-08 -9.26236e-09)
(4.24821e-09 8.53386e-09 -7.88902e-09)
(3.35366e-09 8.77167e-09 -7.40685e-09)
(6.7218e-09 1.06493e-08 -8.07447e-09)
(5.00613e-09 1.0066e-08 -7.35871e-09)
(5.30573e-09 6.89886e-09 -6.22177e-09)
(4.34972e-09 1.12834e-08 -8.29907e-09)
(4.89223e-09 7.89812e-09 -7.09365e-09)
(3.99373e-09 7.67429e-09 -6.51888e-09)
(4.03125e-09 1.42073e-08 -8.93199e-09)
(1.37451e-09 1.4771e-08 -7.86482e-09)
(4.57913e-09 1.19089e-08 -7.14747e-09)
(3.38746e-09 1.40627e-08 -8.4885e-09)
(1.80252e-11 1.64231e-08 -8.7071e-09)
(2.84698e-09 1.46783e-08 -8.96252e-09)
(5.54063e-09 1.15622e-08 -7.06659e-09)
(4.51497e-09 1.36463e-08 -8.44514e-09)
(5.54961e-09 7.03727e-09 -6.93346e-09)
(5.21927e-09 4.12381e-09 -4.27682e-09)
(1.89954e-09 1.42263e-09 -1.84677e-09)
(5.26075e-09 4.66611e-09 -4.85184e-09)
(6.27684e-09 5.64277e-09 -5.40279e-09)
(5.91229e-09 6.76941e-09 -6.53368e-09)
(1.70075e-09 1.63643e-09 -2.10653e-09)
(4.68937e-09 5.18353e-09 -5.47763e-09)
(4.66883e-09 1.54526e-09 -1.16772e-09)
(5.07928e-09 1.86819e-09 -1.4099e-09)
(4.50836e-09 1.55359e-09 -1.34475e-09)
(1.4625e-09 3.38052e-10 -4.52349e-10)
(4.19657e-09 1.35539e-09 -1.18168e-09)
(5.55805e-09 2.31737e-09 -1.80655e-09)
(5.14279e-09 1.92823e-09 -1.48908e-09)
(3.7997e-09 1.07868e-09 -9.27338e-10)
(1.42028e-09 2.93357e-10 -3.9582e-10)
(4.09656e-09 1.24446e-09 -1.05199e-09)
(5.15318e-09 3.49971e-09 -1.67521e-09)
(5.47924e-09 4.11882e-09 -1.99254e-09)
(5.46425e-09 5.12273e-09 -2.64332e-09)
(4.59005e-09 4.76573e-09 -2.39141e-09)
(5.21795e-09 4.37091e-09 -2.2272e-09)
(5.88396e-09 5.02346e-09 -2.51972e-09)
(5.57895e-09 4.27998e-09 -2.10811e-09)
(4.85897e-09 3.57476e-09 -1.78455e-09)
(4.48958e-09 4.32099e-09 -2.15489e-09)
(5.1355e-09 4.19811e-09 -2.10782e-09)
(3.70744e-09 1.81707e-09 -1.33501e-09)
(4.68628e-09 2.74021e-09 -1.60922e-09)
(5.08097e-09 2.15641e-09 -1.07693e-09)
(4.28982e-09 1.83036e-09 -1.3119e-09)
(3.87849e-09 2.08078e-09 -1.50327e-09)
(4.48033e-09 2.4413e-09 -1.43833e-09)
(4.06024e-09 1.58804e-09 -1.15623e-09)
(3.55143e-09 1.67586e-09 -1.2231e-09)
(4.96793e-09 2.06257e-09 -1.0154e-09)
(4.08449e-09 1.96311e-09 -1.1667e-09)
(3.66667e-09 1.25927e-09 -9.33239e-10)
(4.28319e-09 2.2152e-09 -1.29979e-09)
(3.8841e-09 1.46342e-09 -1.05466e-09)
(3.38424e-09 1.45411e-09 -1.09088e-09)
(5.04969e-09 3.36502e-09 -1.58618e-09)
(4.72428e-09 2.84548e-09 -1.34109e-09)
(3.98722e-09 2.87179e-09 -1.43701e-09)
(4.1211e-09 2.3488e-09 -1.1713e-09)
(4.39809e-09 2.78833e-09 -1.36771e-09)
(4.77035e-09 3.43084e-09 -1.69168e-09)
(4.11994e-09 3.1792e-09 -1.585e-09)
(4.48694e-09 2.9093e-09 -1.44009e-09)
(4.30958e-09 2.29273e-09 -1.08238e-09)
(4.62249e-09 2.73186e-09 -1.27234e-09)
(4.59991e-09 1.49662e-09 -1.10902e-09)
(4.20847e-09 1.2265e-09 -9.23677e-10)
(3.0505e-09 6.59418e-10 -5.86851e-10)
(1.13658e-09 1.5926e-10 -2.48676e-10)
(3.30408e-09 7.77796e-10 -6.60626e-10)
(3.77254e-09 9.58766e-10 -7.37467e-10)
(4.13869e-09 1.18662e-09 -8.80177e-10)
(3.69049e-09 9.896e-10 -8.29716e-10)
(1.18204e-09 1.88038e-10 -2.8206e-10)
(3.41519e-09 8.50151e-10 -7.34159e-10)
(1.7996e-09 -4.99776e-12 -2.4994e-10)
(2.00983e-09 8.98873e-11 -2.7934e-10)
(1.77042e-09 1.1626e-10 -2.48796e-10)
(5.41084e-10 -2.87463e-11 -8.84221e-11)
(1.6168e-09 5.88843e-11 -2.27828e-10)
(2.28882e-09 2.12626e-10 -3.25555e-10)
(2.05714e-09 1.04587e-10 -2.85638e-10)
(1.40117e-09 -1.75416e-11 -1.98652e-10)
(5.10824e-10 -3.87101e-11 -8.09577e-11)
(1.54054e-09 3.30741e-11 -2.14244e-10)
(2.37587e-09 2.87066e-10 -3.86846e-10)
(2.56769e-09 4.69258e-10 -4.24278e-10)
(2.79779e-09 7.646e-10 -5.44649e-10)
(2.6494e-09 6.85885e-10 -5.63408e-10)
(2.60567e-09 5.58755e-10 -4.8867e-10)
(2.84206e-09 7.23302e-10 -4.90502e-10)
(2.63224e-09 5.15516e-10 -4.38244e-10)
(2.36994e-09 3.30081e-10 -4.32238e-10)
(2.55014e-09 5.65572e-10 -5.28934e-10)
(2.54685e-09 5.10066e-10 -4.72842e-10)
(1.65357e-09 2.14495e-11 -3.67816e-10)
(2.10263e-09 1.55743e-10 -4.01195e-10)
(2.00171e-09 -5.88814e-11 -2.50406e-10)
(1.74712e-09 2.85557e-11 -3.17845e-10)
(1.75061e-09 1.01299e-10 -3.89166e-10)
(1.99098e-09 6.39454e-11 -3.82748e-10)
(1.6302e-09 -4.61105e-11 -2.98476e-10)
(1.57028e-09 -2.28939e-11 -3.56959e-10)
(1.94505e-09 -8.83446e-11 -2.47203e-10)
(1.78538e-09 -8.90827e-11 -3.61915e-10)
(1.43247e-09 -1.51986e-10 -2.81262e-10)
(1.88689e-09 -7.69808e-12 -3.70535e-10)
(1.53857e-09 -8.54802e-11 -2.92259e-10)
(1.48175e-09 -9.38579e-11 -3.44767e-10)
(2.31701e-09 2.46516e-10 -3.77491e-10)
(2.14309e-09 8.57397e-11 -3.54358e-10)
(2.18901e-09 1.4556e-10 -4.40615e-10)
(1.96138e-09 -4.91092e-11 -3.78895e-10)
(2.10708e-09 9.10229e-11 -3.89434e-10)
(2.31616e-09 2.87376e-10 -4.21318e-10)
(2.27087e-09 2.40588e-10 -4.54766e-10)
(2.15598e-09 1.28546e-10 -3.95524e-10)
(1.93168e-09 -9.19079e-11 -3.41236e-10)
(2.08967e-09 5.00454e-11 -3.49541e-10)
(1.75635e-09 -1.78422e-11 -2.46309e-10)
(1.56598e-09 -1.0192e-10 -2.26663e-10)
(1.02807e-09 -1.45602e-10 -1.68135e-10)
(3.69988e-10 -7.33675e-11 -6.53827e-11)
(1.14219e-09 -1.05098e-10 -1.73837e-10)
(1.35406e-09 -1.88455e-10 -2.15858e-10)
(1.52661e-09 -1.13259e-10 -2.2566e-10)
(1.33142e-09 -4.00623e-11 -1.89392e-10)
(3.95199e-10 -6.56606e-11 -6.89993e-11)
(1.20583e-09 -8.51595e-11 -1.78761e-10)
(4.46177e-10 -4.98046e-10 -7.20202e-10)
(5.34278e-10 -5.14199e-10 -5.46593e-10)
(4.3369e-10 -3.59462e-10 -2.96074e-10)
(9.03922e-11 -1.46689e-10 -1.19606e-10)
(3.57716e-10 -3.90538e-10 -3.44104e-10)
(6.74565e-10 -4.68216e-10 -3.95032e-10)
(5.60175e-10 -5.12208e-10 -5.01053e-10)
(2.47302e-10 -4.08825e-10 -4.87905e-10)
(7.5399e-11 -1.51832e-10 -1.3915e-10)
(3.11878e-10 -4.04667e-10 -4.05823e-10)
(1.09435e-09 -5.85629e-10 -1.21809e-09)
(1.15502e-09 -6.3064e-10 -9.40905e-10)
(1.32602e-09 -5.6274e-10 -7.02993e-10)
(1.46461e-09 -5.25331e-10 -9.13043e-10)
(1.24962e-09 -5.94068e-10 -8.92668e-10)
(1.25549e-09 -6.04501e-10 -6.7293e-10)
(1.17738e-09 -6.36992e-10 -8.63376e-10)
(1.17043e-09 -5.44686e-10 -1.24508e-09)
(1.42075e-09 -5.26382e-10 -1.06995e-09)
(1.22768e-09 -5.89487e-10 -9.69272e-10)
(6.70288e-10 -2.56328e-10 -1.24561e-09)
(9.08153e-10 -4.75312e-10 -1.2415e-09)
(7.03623e-10 -4.25619e-10 -1.43792e-09)
(5.60278e-10 -4.36639e-10 -9.6553e-10)
(7.0805e-10 -3.94676e-10 -1.0285e-09)
(8.71961e-10 -3.49558e-10 -1.44593e-09)
(5.17213e-10 -3.03779e-10 -1.17636e-09)
(7.08769e-10 -6.41236e-11 -1.36837e-09)
(1.36707e-09 -2.0719e-10 -1.71884e-09)
(1.02183e-09 -2.19533e-10 -1.66946e-09)
(1.02514e-09 -7.91181e-11 -1.36711e-09)
(4.90459e-10 -1.49534e-11 -1.19724e-09)
(1.8308e-11 2.95411e-11 -3.08609e-10)
(2.70577e-10 -6.2416e-11 -1.0856e-09)
(6.97659e-11 3.91488e-11 -3.36804e-10)
(6.1817e-10 -7.42115e-11 -1.35617e-09)
(6.88848e-10 -3.33366e-10 -1.52579e-09)
(9.24316e-10 -2.45174e-10 -1.6389e-09)
(3.7702e-10 -1.38993e-10 -1.23181e-09)
(1.07543e-09 -5.45326e-10 -1.32276e-09)
(1.01731e-09 -3.83522e-10 -1.63453e-09)
(1.40625e-09 -2.5474e-10 -1.81793e-09)
(1.08843e-09 -2.74978e-10 -1.74833e-09)
(1.1547e-09 -5.04473e-10 -1.34946e-09)
(1.35629e-09 -3.48994e-10 -1.7042e-09)
(1.10827e-09 -3.43232e-10 -1.66626e-09)
(9.96644e-10 -3.13069e-10 -1.71895e-09)
(4.31504e-10 -4.6811e-10 -7.95756e-10)
(3.42955e-10 -2.72596e-10 -1.08357e-09)
(-1.75779e-12 2.54457e-11 -2.98625e-10)
(2.06279e-10 -8.82536e-11 -1.03081e-09)
(3.12427e-10 -1.67855e-10 -1.17149e-09)
(2.25578e-10 -3.6013e-10 -6.14582e-10)
(-2.40821e-12 -9.03487e-11 -3.18792e-10)
(1.7997e-10 -2.69733e-10 -7.71273e-10)
(4.79037e-09 5.79187e-09 -4.65801e-09)
(7.72259e-09 7.06689e-09 -4.78443e-09)
(5.98997e-09 6.70939e-09 -4.55473e-09)
(5.78881e-09 4.5452e-09 -3.78977e-09)
(4.88149e-09 5.08673e-09 -4.08086e-09)
(5.92932e-09 7.49495e-09 -5.1608e-09)
(5.83963e-09 5.18868e-09 -4.34908e-09)
(4.6575e-09 6.24019e-09 -5.16409e-09)
(7.67129e-09 7.36467e-09 -5.1109e-09)
(5.4678e-09 9.18154e-09 -6.56234e-09)
(5.61772e-09 6.39317e-09 -5.57104e-09)
(4.35298e-09 7.11804e-09 -5.88804e-09)
(5.75867e-09 8.20608e-09 -5.79819e-09)
(5.74502e-09 5.59287e-09 -4.86383e-09)
(6.36867e-09 3.54135e-09 -3.02004e-09)
(6.03093e-09 2.96027e-09 -2.47381e-09)
(4.58687e-09 1.69348e-09 -1.51776e-09)
(1.71354e-09 5.02736e-10 -6.52133e-10)
(4.9056e-09 1.93265e-09 -1.73167e-09)
(5.60855e-09 2.39227e-09 -1.91335e-09)
(6.00509e-09 2.8655e-09 -2.33032e-09)
(5.25151e-09 2.40228e-09 -2.24156e-09)
(1.73502e-09 5.75698e-10 -7.49639e-10)
(4.94432e-09 2.11139e-09 -1.96178e-09)
(6.4048e-09 7.45087e-09 -4.08893e-09)
(6.2755e-09 6.35421e-09 -3.39897e-09)
(5.5304e-09 5.33214e-09 -2.79679e-09)
(4.746e-09 6.45198e-09 -3.30233e-09)
(5.70762e-09 6.24614e-09 -3.33211e-09)
(5.97044e-09 5.21783e-09 -2.67002e-09)
(6.21784e-09 6.11787e-09 -3.20387e-09)
(5.78541e-09 7.61956e-09 -4.21515e-09)
(4.71623e-09 7.11917e-09 -3.67873e-09)
(5.74113e-09 6.5018e-09 -3.52907e-09)
(6.40795e-09 7.73987e-09 -4.34057e-09)
(6.32309e-09 9.08721e-09 -5.22551e-09)
(4.8672e-09 1.14198e-08 -6.75301e-09)
(3.76793e-09 1.07164e-08 -5.69957e-09)
(5.44459e-09 9.7017e-09 -5.65782e-09)
(5.7852e-09 1.11153e-08 -6.66476e-09)
(6.23223e-09 9.44476e-09 -5.54654e-09)
(5.75981e-09 7.93342e-09 -4.46674e-09)
(4.177e-09 9.68468e-09 -5.1147e-09)
(5.57047e-09 9.31196e-09 -5.33977e-09)
(6.35143e-09 3.66264e-09 -3.21122e-09)
(6.56728e-09 4.38272e-09 -3.92126e-09)
(5.53474e-09 3.72955e-09 -3.76925e-09)
(1.89472e-09 9.69006e-10 -1.26502e-09)
(5.34887e-09 3.29058e-09 -3.3062e-09)
(6.47507e-09 5.43822e-09 -5.08027e-09)
(6.47966e-09 4.53981e-09 -4.17235e-09)
(5.2213e-09 2.6331e-09 -2.54598e-09)
(1.93809e-09 8.45127e-10 -1.09955e-09)
(5.49047e-09 2.98952e-09 -2.90891e-09)
(2.93628e-09 1.04548e-09 -8.30878e-10)
(3.99738e-09 1.27279e-09 -6.42276e-10)
(3.35843e-09 1.2113e-09 -7.8907e-10)
(2.95398e-09 7.42764e-10 -6.25879e-10)
(2.78753e-09 8.85498e-10 -7.48245e-10)
(3.53263e-09 1.39409e-09 -8.70643e-10)
(3.14048e-09 8.90747e-10 -7.01048e-10)
(3.07623e-09 1.1471e-09 -8.9927e-10)
(4.09664e-09 1.34087e-09 -6.77848e-10)
(3.89632e-09 1.77151e-09 -1.05888e-09)
(3.49931e-09 1.15383e-09 -8.55673e-10)
(3.23513e-09 1.33477e-09 -1.00356e-09)
(3.70894e-09 1.55756e-09 -9.54816e-10)
(3.29687e-09 9.80574e-10 -7.60373e-10)
(2.9331e-09 5.15751e-10 -4.67004e-10)
(2.65188e-09 3.73161e-10 -3.99989e-10)
(1.85332e-09 1.4614e-10 -2.67459e-10)
(6.81805e-10 6.84852e-12 -1.11283e-10)
(2.02404e-09 2.11573e-10 -2.94694e-10)
(2.34036e-09 2.29646e-10 -3.34887e-10)
(2.59591e-09 3.53347e-10 -3.86978e-10)
(2.30251e-09 3.21645e-10 -3.54244e-10)
(7.17709e-10 2.04326e-11 -1.237e-10)
(2.11399e-09 2.46504e-10 -3.19327e-10)
(3.47077e-09 1.35094e-09 -6.93048e-10)
(3.21974e-09 1.0757e-09 -6.03492e-10)
(2.86193e-09 8.20335e-10 -5.65714e-10)
(2.97179e-09 1.1148e-09 -7.02264e-10)
(3.07155e-09 1.05682e-09 -6.39227e-10)
(2.9127e-09 7.76204e-10 -5.09444e-10)
(3.14253e-09 1.01469e-09 -5.78625e-10)
(3.36917e-09 1.39456e-09 -7.60954e-10)
(3.08705e-09 1.27516e-09 -7.60739e-10)
(3.14132e-09 1.12112e-09 -6.66495e-10)
(3.55475e-09 1.42146e-09 -7.25133e-10)
(3.82768e-09 1.74095e-09 -8.40224e-10)
(4.03524e-09 2.24658e-09 -1.11461e-09)
(3.58637e-09 2.0711e-09 -1.07924e-09)
(3.772e-09 1.87399e-09 -9.60882e-10)
(4.2126e-09 2.19642e-09 -1.02918e-09)
(3.91843e-09 1.82315e-09 -8.815e-10)
(3.44469e-09 1.46905e-09 -7.9583e-10)
(3.45689e-09 1.85245e-09 -9.8602e-10)
(3.6909e-09 1.78701e-09 -9.16412e-10)
(2.99345e-09 5.39005e-10 -4.84742e-10)
(3.30254e-09 7.0457e-10 -5.70737e-10)
(2.94218e-09 6.00079e-10 -5.31045e-10)
(9.3087e-10 8.88551e-11 -1.82833e-10)
(2.71196e-09 4.99049e-10 -4.73793e-10)
(3.70466e-09 9.25745e-10 -7.05177e-10)
(3.36706e-09 7.32186e-10 -5.94688e-10)
(2.39931e-09 3.62883e-10 -3.86702e-10)
(8.89123e-10 6.94835e-11 -1.62625e-10)
(2.60854e-09 4.49711e-10 -4.31377e-10)
(2.35266e-09 1.89044e-11 -4.6737e-10)
(2.43378e-09 1.05095e-10 -4.81747e-10)
(1.86506e-09 -5.09603e-10 -6.19697e-10)
(1.92876e-09 -4.59517e-10 -5.59634e-10)
(2.14962e-09 -2.14268e-10 -4.53577e-10)
(2.09154e-09 -2.80449e-10 -4.64832e-10)
(1.25665e-09 -2.31855e-10 -3.45072e-10)
(1.49112e-09 -3.55867e-10 -2.62597e-10)
(1.42982e-09 -3.44538e-10 -3.89318e-10)
(1.09191e-09 -3.32181e-10 -2.99622e-10)
(1.18388e-09 -2.88787e-10 -3.56072e-10)
(1.51284e-09 -2.8043e-10 -3.71899e-10)
(1.17843e-09 -2.78205e-10 -2.8921e-10)
(1.32543e-09 -1.96705e-10 -3.39518e-10)
(1.53666e-09 -3.3304e-10 -2.55741e-10)
(1.69071e-09 -1.52311e-10 -3.59457e-10)
(1.34942e-09 -1.87088e-10 -2.81795e-10)
(1.40593e-09 -1.33181e-10 -3.41325e-10)
(1.59843e-09 -2.24562e-10 -3.62253e-10)
(1.2533e-09 -2.46834e-10 -2.80303e-10)
(9.61209e-10 -3.45402e-10 -2.51011e-10)
(8.35887e-10 -4.02178e-10 -2.85842e-10)
(4.71091e-10 -3.4369e-10 -2.58516e-10)
(1.56598e-10 -1.27588e-10 -8.29236e-11)
(5.48016e-10 -3.1324e-10 -2.29836e-10)
(6.97553e-10 -4.6183e-10 -3.664e-10)
(8.1104e-10 -4.09586e-10 -3.03446e-10)
(6.73984e-10 -2.66466e-10 -1.91864e-10)
(1.74221e-10 -1.21256e-10 -7.60898e-11)
(5.89492e-10 -2.98123e-10 -2.07576e-10)
(1.52724e-09 -4.09691e-10 -4.08109e-10)
(1.4139e-09 -5.04177e-10 -4.75925e-10)
(1.35354e-09 -5.51302e-10 -6.53909e-10)
(1.62141e-09 -4.2206e-10 -6.03136e-10)
(1.4449e-09 -4.80785e-10 -5.36486e-10)
(1.28382e-09 -5.94603e-10 -6.23398e-10)
(1.37998e-09 -5.22718e-10 -5.05427e-10)
(1.58396e-09 -3.67996e-10 -4.40299e-10)
(1.67976e-09 -3.68659e-10 -5.42765e-10)
(1.4771e-09 -4.60774e-10 -5.07421e-10)
(1.56642e-09 -3.86463e-10 -3.91983e-10)
(1.69537e-09 -2.76265e-10 -3.58366e-10)
(1.91641e-09 -8.21044e-11 -3.78199e-10)
(1.95411e-09 -1.07911e-10 -4.33548e-10)
(1.78258e-09 -2.05851e-10 -3.86291e-10)
(1.88302e-09 -1.23212e-10 -3.416e-10)
(1.73936e-09 -2.48896e-10 -3.51381e-10)
(1.62085e-09 -3.43243e-10 -4.24768e-10)
(1.8812e-09 -1.78953e-10 -4.45398e-10)
(1.74169e-09 -2.34846e-10 -3.92412e-10)
(9.89631e-10 -3.37184e-10 -2.40504e-10)
(1.13023e-09 -2.75358e-10 -2.24842e-10)
(9.70335e-10 -1.63598e-10 -1.67731e-10)
(2.74926e-10 -9.51339e-11 -6.354e-11)
(8.67208e-10 -2.00377e-10 -1.67643e-10)
(1.31839e-09 -1.98527e-10 -2.17763e-10)
(1.16234e-09 -2.66319e-10 -2.1926e-10)
(7.20818e-10 -2.50808e-10 -1.79549e-10)
(2.53916e-10 -1.01675e-10 -6.41323e-11)
(8.14744e-10 -2.16918e-10 -1.72848e-10)
(1.70904e-09 -6.15632e-10 -9.16322e-10)
(1.67113e-09 -6.21198e-10 -1.07109e-09)
(1.49765e-09 -2.31756e-10 -1.70096e-09)
(1.1433e-09 -1.00307e-10 -1.3385e-09)
(1.52398e-09 -2.84819e-10 -1.80612e-09)
(1.57462e-09 -4.42268e-10 -1.69564e-09)
(5.13828e-09 2.68539e-09 -1.65148e-09)
(5.77346e-09 2.83404e-09 -1.45823e-09)
(5.39757e-09 2.89692e-09 -1.52123e-09)
(5.34138e-09 2.34416e-09 -1.40051e-09)
(5.49036e-09 2.50021e-09 -1.48995e-09)
(5.55232e-09 3.06706e-09 -1.61078e-09)
(5.00999e-09 2.53781e-09 -1.55784e-09)
(3.90496e-09 2.89441e-09 -2.17507e-09)
(3.67498e-09 3.27507e-09 -2.51213e-09)
(4.88946e-09 4.29073e-09 -2.70597e-09)
(4.32086e-09 3.80003e-09 -2.47663e-09)
(4.01486e-09 3.30014e-09 -2.45404e-09)
(3.61225e-09 2.85232e-09 -2.23252e-09)
(4.76169e-09 3.84252e-09 -2.41548e-09)
(5.70219e-09 3.48407e-09 -2.21804e-09)
(6.46064e-09 3.66639e-09 -2.00679e-09)
(6.29275e-09 3.45177e-09 -2.16905e-09)
(6.31914e-09 4.17566e-09 -2.33176e-09)
(5.82428e-09 3.67814e-09 -2.35554e-09)
(6.14264e-09 3.24565e-09 -2.0301e-09)
(6.16111e-09 3.95057e-09 -2.18543e-09)
(3.79925e-09 2.69209e-09 -1.98032e-09)
(4.46586e-09 3.13676e-09 -1.94921e-09)
(4.22438e-09 3.46782e-09 -2.24118e-09)
(3.44969e-09 2.30947e-09 -1.81972e-09)
(3.54216e-09 2.65639e-09 -2.04097e-09)
(4.61772e-09 3.50707e-09 -2.17664e-09)
(3.66702e-09 2.35698e-09 -1.76142e-09)
(2.18186e-09 1.73727e-10 -3.63955e-10)
(2.34968e-09 1.53376e-10 -2.80185e-10)
(2.27145e-09 1.64756e-10 -3.27663e-10)
(2.15009e-09 6.42925e-11 -2.93056e-10)
(2.22648e-09 1.12314e-10 -3.02148e-10)
(2.34915e-09 2.17364e-10 -3.36382e-10)
(2.11381e-09 1.29519e-10 -3.53269e-10)
(2.02651e-09 3.44455e-10 -5.108e-10)
(2.2031e-09 4.24596e-10 -5.88199e-10)
(2.57798e-09 6.14899e-10 -5.95357e-10)
(2.51183e-09 4.76888e-10 -5.94552e-10)
(2.12819e-09 4.52917e-10 -5.5328e-10)
(2.11576e-09 3.15813e-10 -5.43024e-10)
(2.46342e-09 4.94732e-10 -5.53172e-10)
(2.52193e-09 4.02237e-10 -4.32997e-10)
(2.73437e-09 3.96264e-10 -3.36797e-10)
(2.68554e-09 3.85219e-10 -3.77666e-10)
(2.79858e-09 5.3728e-10 -4.19392e-10)
(2.59967e-09 4.56272e-10 -4.496e-10)
(2.59747e-09 3.26654e-10 -3.61305e-10)
(2.70855e-09 4.72901e-10 -4.01177e-10)
(8.08842e-10 -5.75645e-10 -9.20761e-10)
(8.42428e-10 -6.63237e-10 -9.35249e-10)
(8.796e-10 -6.10302e-10 -1.08076e-09)
(7.23316e-10 -6.03493e-10 -9.63262e-10)
(7.5082e-10 -6.19994e-10 -8.77033e-10)
(9.08756e-10 -6.29135e-10 -9.87685e-10)
(7.83568e-10 -5.5337e-10 -1.00576e-09)
(9.36306e-10 -5.77801e-10 -6.05465e-10)
(9.64281e-10 -6.61017e-10 -5.85947e-10)
(9.18348e-10 -5.98534e-10 -5.16195e-10)
(1.06086e-09 -6.17901e-10 -5.84636e-10)
(9.67317e-10 -5.63718e-10 -5.60179e-10)
(8.84034e-10 -6.16918e-10 -5.60895e-10)
(1.02652e-09 -6.35172e-10 -6.34015e-10)
(3.45271e-09 3.39538e-09 -2.70848e-09)
(3.95032e-09 5.06922e-09 -3.34621e-09)
(3.41364e-09 3.91196e-09 -3.04948e-09)
(3.19715e-09 4.85092e-09 -3.76635e-09)
(3.83868e-09 5.57043e-09 -3.69532e-09)
(3.34297e-09 4.20805e-09 -3.33904e-09)
(6.42039e-09 5.21357e-09 -3.62856e-09)
(7.42131e-09 5.47533e-09 -3.40695e-09)
(7.09821e-09 6.21035e-09 -3.87821e-09)
(7.13699e-09 5.18247e-09 -3.64414e-09)
(6.49007e-09 5.50058e-09 -3.8632e-09)
(7.03098e-09 4.87831e-09 -3.40389e-09)
(6.98177e-09 5.88086e-09 -3.62863e-09)
(4.1575e-09 4.04039e-09 -3.05879e-09)
(3.71124e-09 3.51477e-09 -2.75471e-09)
(4.99924e-09 4.69798e-09 -3.01167e-09)
(4.44792e-09 5.23136e-09 -3.42187e-09)
(4.09287e-09 3.54538e-09 -2.7029e-09)
(3.71897e-09 4.0339e-09 -3.10827e-09)
(5.07717e-09 5.24463e-09 -3.38254e-09)
(6.02326e-09 4.04042e-09 -2.66256e-09)
(6.86959e-09 4.2608e-09 -2.44298e-09)
(6.37186e-09 3.55902e-09 -2.30639e-09)
(6.38746e-09 4.34601e-09 -2.48174e-09)
(5.90545e-09 3.82718e-09 -2.50278e-09)
(6.51581e-09 3.78333e-09 -2.46226e-09)
(6.54023e-09 4.58934e-09 -2.63704e-09)
(3.45417e-09 3.15633e-09 -2.47848e-09)
(3.98973e-09 3.64515e-09 -2.45112e-09)
(3.42989e-09 2.73797e-09 -2.20646e-09)
(3.9516e-09 3.317e-09 -2.22761e-09)
(3.33063e-09 2.202e-09 -1.80674e-09)
(3.3911e-09 2.54354e-09 -2.02397e-09)
(3.15849e-09 8.55036e-10 -6.09038e-10)
(3.46064e-09 8.82097e-10 -4.89435e-10)
(3.50138e-09 1.07252e-09 -6.02321e-10)
(3.40052e-09 8.34539e-10 -5.46215e-10)
(3.25221e-09 9.26673e-10 -6.37445e-10)
(3.29378e-09 7.57431e-10 -5.18162e-10)
(3.39198e-09 9.87661e-10 -5.71551e-10)
(2.32951e-09 6.42216e-10 -6.44122e-10)
(2.28036e-09 4.84562e-10 -6.25619e-10)
(2.6969e-09 7.21688e-10 -6.39747e-10)
(2.81368e-09 8.35243e-10 -7.41815e-10)
(2.21912e-09 5.17577e-10 -5.89896e-10)
(2.37429e-09 6.09976e-10 -6.82795e-10)
(2.82131e-09 8.59905e-10 -6.94288e-10)
(2.74933e-09 5.54139e-10 -4.8826e-10)
(2.99422e-09 5.62937e-10 -3.84059e-10)
(2.75218e-09 4.13174e-10 -3.9303e-10)