/*--------------------------------*- C++ -*----------------------------------*\
| =========                 |                                                 |
| \\      /  F ield         | OpenFOAM: The Open Source CFD Toolbox           |
|  \\    /   O peration     | Version:  2012                                  |
|   \\  /    A nd           | Website:  www.openfoam.com                      |
|    \\/     M anipulation  |                                                 |
\*---------------------------------------------------------------------------*/
FoamFile
{
    version     2.0;
    format      ascii;
    class       volVectorField;
    location    "0.108/solid";
    object      D_0_0_0;
}
// * * * * * * * * * * * * * * * * * * * * * * * * * * * * * * * * * * * * * //

dimensions      [0 1 0 0 0 0 0];


internalField   nonuniform List<vector> 
3125
(
(7.31888e-11 2.09494e-10 -5.85486e-12)
(6.28111e-11 1.96152e-10 -5.24078e-12)
(4.23757e-11 1.72356e-10 2.94871e-11)
(7.39597e-11 2.11227e-10 -6.40529e-12)
(6.47417e-11 1.98217e-10 -5.29862e-12)
(4.18749e-11 1.77591e-10 1.91059e-11)
(7.53911e-11 2.199e-10 -1.03805e-11)
(7.03084e-11 2.0496e-10 -5.13162e-12)
(5.50218e-11 1.8868e-10 -2.7019e-12)
(7.54805e-11 2.17081e-10 -9.03381e-12)
(6.9153e-11 2.03401e-10 -5.09445e-12)
(5.15563e-11 1.85898e-10 -1.66505e-14)
(3.49382e-10 3.53866e-10 -6.30933e-12)
(5.54099e-11 1.38313e-10 -4.9417e-12)
(2.32505e-10 8.37092e-10 -1.26433e-11)
(7.23229e-11 2.07933e-10 -5.445e-12)
(3.57466e-10 3.61129e-10 -7.53542e-12)
(2.29591e-10 8.29334e-10 -1.00361e-11)
(5.40684e-11 1.36972e-10 -4.61934e-12)
(2.97969e-10 3.19581e-10 1.08416e-12)
(4.1356e-11 1.27188e-10 -4.0039e-12)
(2.08461e-10 7.92492e-10 -9.3338e-12)
(6.05811e-11 1.93868e-10 -4.95617e-12)
(3.14778e-10 3.29918e-10 -2.32582e-12)
(2.00366e-10 7.79915e-10 -5.81456e-12)
(3.84295e-11 1.25329e-10 -3.70511e-12)
(2.55805e-10 2.75667e-10 1.07855e-10)
(7.12956e-12 1.11446e-10 1.77048e-11)
(1.58286e-10 7.03511e-10 1.09633e-10)
(5.06894e-11 1.58299e-10 4.10654e-11)
(2.17512e-10 2.92674e-10 6.27344e-11)
(1.91761e-10 6.16296e-10 1.97012e-10)
(1.56054e-11 1.05283e-10 2.33758e-11)
(2.55632e-10 9.08202e-10 -1.21535e-11)
(2.57082e-10 9.17795e-10 -1.48804e-11)
(3.65584e-10 3.69816e-10 -9.91014e-12)
(7.46521e-11 2.13032e-10 -6.9688e-12)
(5.66272e-11 1.3975e-10 -5.49642e-12)
(2.3339e-10 8.39864e-10 -1.20118e-11)
(3.57908e-10 3.61562e-10 -7.95196e-12)
(2.35583e-10 8.49263e-10 -1.49096e-11)
(5.78584e-11 1.41295e-10 -6.06691e-12)
(2.55016e-10 9.05255e-10 -1.27453e-11)
(2.52808e-10 8.97205e-10 -1.02917e-11)
(2.36573e-10 8.6291e-10 -9.0689e-12)
(2.42003e-10 8.73179e-10 -1.05511e-11)
(3.28589e-10 3.38732e-10 -4.12427e-12)
(6.64139e-11 2.00085e-10 -5.21293e-12)
(4.38691e-11 1.28873e-10 -4.16957e-12)
(2.10817e-10 7.95803e-10 -8.54275e-12)
(3.15953e-10 3.30348e-10 -2.8173e-12)
(2.16897e-10 8.05861e-10 -1.0183e-11)
(4.60484e-11 1.30405e-10 -4.12752e-12)
(2.34567e-10 8.59502e-10 -9.79601e-12)
(2.27464e-10 8.4657e-10 -6.35742e-12)
(1.95736e-10 7.66411e-10 9.95558e-11)
(2.00314e-10 7.95375e-10 4.20026e-11)
(2.38594e-10 2.94581e-10 3.14236e-11)
(4.42207e-11 1.8055e-10 1.06868e-11)
(8.15222e-12 1.13531e-10 1.23144e-11)
(1.57591e-10 7.13523e-10 8.86654e-11)
(2.16843e-10 2.91269e-10 5.79772e-11)
(1.65473e-10 7.3387e-10 3.88228e-11)
(1.34748e-11 1.14999e-10 7.57207e-12)
(1.97155e-10 7.51525e-10 1.25517e-10)
(2.28494e-10 6.36815e-10 2.39773e-10)
(2.36245e-10 8.669e-10 -1.95986e-11)
(6.07603e-11 1.4717e-10 -9.13315e-12)
(3.73649e-10 3.81957e-10 -1.44542e-11)
(2.69471e-10 1.12116e-09 -1.85366e-11)
(3.57653e-11 4.10126e-11 -4.07219e-12)
(3.17744e-11 3.80824e-11 -1.7489e-12)
(3.00655e-11 3.74035e-11 -2.02758e-12)
(2.65139e-10 1.08407e-09 -1.10523e-11)
(2.61919e-10 1.07496e-09 -9.52612e-12)
(3.48783e-10 3.53489e-10 -5.99721e-12)
(7.13596e-11 2.06462e-10 -5.19846e-12)
(2.2469e-10 8.19382e-10 -9.39942e-12)
(5.12233e-11 1.34445e-10 -4.24754e-12)
(2.28435e-10 8.2724e-10 -1.09891e-11)
(3.402e-10 3.46712e-10 -5.33011e-12)
(5.26774e-11 1.35707e-10 -4.31709e-12)
(2.56577e-10 1.06238e-09 -8.77205e-12)
(2.6068e-10 1.0722e-09 -9.46003e-12)
(2.79937e-11 3.65894e-11 -1.83306e-12)
(2.97743e-11 3.71976e-11 -1.41078e-12)
(2.20504e-11 3.47061e-11 -1.02152e-12)
(1.8708e-11 3.39622e-11 -1.16271e-12)
(2.38904e-10 1.02787e-09 -6.54464e-12)
(2.30005e-10 1.01203e-09 -3.08303e-12)
(2.96273e-10 3.19033e-10 2.02744e-12)
(5.80082e-11 1.91368e-10 -4.19544e-12)
(1.86507e-10 7.60386e-10 3.45203e-12)
(3.09096e-11 1.21144e-10 -1.77493e-12)
(1.97222e-10 7.75743e-10 -5.54167e-12)
(2.73377e-10 3.06676e-10 1.01338e-11)
(3.50244e-11 1.2331e-10 -2.95909e-12)
(2.14525e-10 9.86472e-10 8.22245e-12)
(2.26548e-10 1.00625e-09 -1.41801e-12)
(1.32971e-11 3.29361e-11 -4.22837e-14)
(1.79147e-11 3.37262e-11 -4.45216e-13)
(-8.22143e-12 2.98811e-11 4.76974e-12)
(2.32883e-12 2.61362e-11 5.27784e-12)
(1.75836e-10 9.12507e-10 1.38141e-10)
(2.0762e-10 8.12112e-10 2.37075e-10)
(2.65546e-10 2.635e-10 1.18499e-10)
(4.178e-11 7.02187e-11 3.39458e-11)
(2.22219e-10 5.59737e-10 2.33827e-10)
(9.3813e-12 4.21378e-11 7.43728e-12)
(2.42032e-10 7.45737e-10 2.69837e-10)
(1.37625e-11 2.47689e-11 5.20929e-12)
(2.5537e-10 9.36286e-10 -1.91552e-11)
(2.55936e-10 9.31102e-10 -1.91349e-11)
(2.57061e-10 9.20039e-10 -1.44382e-11)
(3.66062e-10 3.70406e-10 -1.04357e-11)
(7.52018e-11 2.14864e-10 -7.80885e-12)
(2.36402e-10 8.61705e-10 -1.94507e-11)
(6.02739e-11 1.44958e-10 -7.87594e-12)
(3.73723e-10 3.81161e-10 -1.37216e-11)
(2.36102e-10 8.51369e-10 -1.43863e-11)
(5.91753e-11 1.42998e-10 -6.93157e-12)
(3.20341e-11 3.83289e-11 -2.42137e-12)
(3.37603e-11 3.91585e-11 -2.32442e-12)
(2.66089e-10 1.08798e-09 -1.14955e-11)
(2.68601e-10 1.09998e-09 -1.3245e-11)
(2.69524e-10 1.11353e-09 -1.72823e-11)
(2.69127e-10 1.10249e-09 -1.36454e-11)
(3.56773e-11 4.05939e-11 -3.2164e-12)
(3.39604e-11 3.9481e-11 -3.10362e-12)
(2.48693e-10 8.87041e-10 -9.73778e-12)
(2.51939e-10 8.95081e-10 -1.11764e-11)
(2.47551e-10 8.84539e-10 -1.07682e-11)
(2.43505e-10 8.75866e-10 -9.50739e-12)
(3.29432e-10 3.39075e-10 -4.43371e-12)
(6.78686e-11 2.01792e-10 -5.14677e-12)
(2.23294e-10 8.16926e-10 -1.04782e-11)
(4.96692e-11 1.33154e-10 -4.13321e-12)
(3.39504e-10 3.46339e-10 -5.05403e-12)
(2.18679e-10 8.08493e-10 -9.07643e-12)
(4.79521e-11 1.31814e-10 -4.1702e-12)
(2.26369e-11 3.49283e-11 -1.60057e-12)
(2.51787e-11 3.55885e-11 -1.17675e-12)
(2.41455e-10 1.03243e-09 -6.97317e-12)
(2.48105e-10 1.04505e-09 -8.1232e-12)
(2.55082e-10 1.05902e-09 -8.77138e-12)
(2.50027e-10 1.04863e-09 -8.13524e-12)
(2.76471e-11 3.63986e-11 -1.26797e-12)
(2.56015e-11 3.5786e-11 -1.72951e-12)
(2.09108e-10 1.09689e-09 -3.92059e-12)
(2.15855e-10 8.26145e-10 3.25575e-12)
(2.24856e-10 8.42287e-10 -5.97269e-12)
(1.96968e-10 1.07053e-09 7.81563e-12)
(2.06305e-10 1.09104e-09 -2.23667e-12)
(2.12719e-10 8.20882e-10 6.73365e-12)
(2.03089e-10 8.01769e-10 3.10255e-11)
(1.71463e-10 9.89791e-10 1.23886e-10)
(1.79182e-10 1.02905e-09 5.47816e-11)
(1.93481e-10 1.06331e-09 1.30536e-11)
(1.82789e-10 1.03808e-09 4.05033e-11)
(2.4146e-10 2.94451e-10 2.8231e-11)
(4.77869e-11 1.83163e-10 4.30517e-12)
(1.82434e-10 7.55497e-10 6.58771e-12)
(2.58075e-11 1.18902e-10 2.7119e-13)
(2.70864e-10 3.06118e-10 1.19839e-11)
(1.69653e-10 7.38906e-10 2.91587e-11)
(1.97936e-11 1.16771e-10 3.34689e-12)
(-7.8701e-12 3.05707e-11 4.23938e-12)
(1.43958e-12 3.159e-11 3.30248e-12)
(1.76782e-10 9.24649e-10 1.10474e-10)
(1.8948e-10 9.51005e-10 5.10289e-11)
(2.09919e-10 9.7972e-10 1.31465e-11)
(1.94767e-10 9.57952e-10 3.8309e-11)
(1.18346e-11 3.26838e-11 8.96321e-13)
(3.89394e-12 3.18324e-11 2.13452e-12)
(1.71171e-10 9.6983e-10 1.57473e-10)
(2.00142e-10 8.29569e-10 2.84737e-10)
(6.74198e-11 6.80909e-11 4.81748e-11)
(2.59378e-10 5.68563e-10 2.88946e-10)
(2.32616e-10 7.47054e-10 3.28668e-10)
(1.41636e-10 1.72788e-10 1.357e-10)
(3.80141e-11 1.1299e-11 5.01926e-11)
(2.16579e-10 1.81035e-10 2.33338e-10)
(2.04308e-11 1.64259e-11 2.3842e-11)
(4.52746e-11 7.00223e-12 6.29108e-11)
(2.49754e-10 1.69681e-10 2.73217e-10)
(1.66299e-10 4.08069e-10 -9.08199e-12)
(3.53258e-10 3.57217e-10 -6.65955e-12)
(2.53731e-10 5.40936e-10 -8.45019e-12)
(2.001e-10 2.79159e-10 -7.37214e-12)
(2.0201e-10 2.80883e-10 -7.43193e-12)
(2.55446e-10 5.43154e-10 -9.55602e-12)
(1.64801e-10 4.0605e-10 -8.45697e-12)
(1.67555e-10 4.09249e-10 -9.15801e-12)
(3.53801e-10 3.57618e-10 -7.02136e-12)
(2.05301e-10 2.83833e-10 -8.14799e-12)
(2.58631e-10 5.47536e-10 -1.04904e-11)
(1.68767e-10 4.11331e-10 -9.893e-12)
(2.03483e-10 2.81899e-10 -8.00675e-12)
(2.57051e-10 5.45051e-10 -9.23233e-12)
(1.35615e-10 3.79145e-10 -6.28225e-12)
(3.0622e-10 3.24739e-10 -6.2002e-13)
(2.13662e-10 5.00579e-10 -3.05402e-12)
(1.60706e-10 2.54333e-10 -3.47459e-12)
(1.64894e-10 2.56922e-10 -3.9634e-12)
(2.17635e-10 5.04303e-10 -4.85612e-12)
(1.32196e-10 3.75966e-10 -5.25475e-12)
(1.3843e-10 3.80962e-10 -6.5302e-12)
(3.07638e-10 3.25242e-10 -1.29058e-12)
(1.71728e-10 2.60728e-10 -4.94807e-12)
(2.24666e-10 5.10707e-10 -6.30508e-12)
(1.41286e-10 3.83787e-10 -7.15807e-12)
(1.68111e-10 2.58315e-10 -4.82126e-12)
(2.21245e-10 5.07336e-10 -4.98267e-12)
(8.62799e-11 3.39781e-10 7.751e-11)
(2.30593e-10 2.92127e-10 8.43231e-11)
(1.82392e-10 4.31897e-10 1.33834e-10)
(1.07293e-10 2.19503e-10 6.96569e-11)
(9.0903e-11 2.29353e-10 5.83202e-11)
(1.63555e-10 4.50968e-10 1.1302e-10)
(1.03804e-10 3.22274e-10 9.47665e-11)
(7.89385e-11 3.44814e-10 6.62942e-11)
(2.23331e-10 2.91293e-10 7.81528e-11)
(8.7841e-11 2.34974e-10 4.30925e-11)
(1.47346e-10 4.62309e-10 7.9854e-11)
(7.63122e-11 3.49335e-10 5.44838e-11)
(8.62829e-11 2.31842e-10 5.00465e-11)
(1.52034e-10 4.58485e-10 9.6468e-11)
(1.72277e-10 4.16596e-10 -1.11796e-11)
(3.61811e-10 3.65699e-10 -9.06796e-12)
(2.64371e-10 5.57565e-10 -1.29997e-11)
(2.11541e-10 2.90267e-10 -1.0402e-11)
(1.73428e-10 4.18876e-10 -1.22005e-11)
(2.09669e-10 2.88009e-10 -9.9026e-12)
(2.62832e-10 5.54845e-10 -1.15245e-11)
(1.71156e-10 4.15147e-10 -1.09004e-11)
(3.6137e-10 3.65177e-10 -8.60939e-12)
(2.06636e-10 2.84898e-10 -8.85304e-12)
(2.60038e-10 5.49732e-10 -1.03001e-11)
(1.69911e-10 4.12698e-10 -1.0038e-11)
(2.0833e-10 2.86847e-10 -9.10415e-12)
(2.6144e-10 5.52495e-10 -1.16525e-11)
(1.48343e-10 3.89495e-10 -7.42024e-12)
(3.2317e-10 3.34943e-10 -3.78829e-12)
(2.35953e-10 5.2155e-10 -7.5707e-12)
(1.82713e-10 2.6724e-10 -5.78961e-12)
(1.50458e-10 3.91787e-10 -7.73195e-12)
(1.79995e-10 2.6525e-10 -5.96512e-12)
(2.33384e-10 5.18828e-10 -6.66642e-12)
(1.46246e-10 3.88017e-10 -7.56156e-12)
(3.22151e-10 3.34528e-10 -3.4109e-12)
(1.74484e-10 2.61977e-10 -5.58984e-12)
(2.27752e-10 5.13386e-10 -6.06811e-12)
(1.43709e-10 3.85416e-10 -7.14508e-12)
(1.77613e-10 2.64106e-10 -5.50328e-12)
(2.30697e-10 5.16398e-10 -7.12045e-12)
(8.42011e-11 3.51382e-10 2.95126e-11)
(2.26132e-10 2.91386e-10 4.15845e-11)
(1.62042e-10 4.67794e-10 3.28565e-11)
(1.08815e-10 2.36424e-10 2.00382e-11)
(8.96227e-11 3.53261e-10 2.16229e-11)
(1.01734e-10 2.35195e-10 2.54148e-11)
(1.55824e-10 4.65409e-10 4.30272e-11)
(8.01182e-11 3.50864e-10 3.64029e-11)
(2.24167e-10 2.92262e-10 4.55168e-11)
(9.09398e-11 2.34662e-10 3.69591e-11)
(1.4747e-10 4.62909e-10 6.65358e-11)
(7.70369e-11 3.49522e-10 4.60652e-11)
(9.62072e-11 2.35279e-10 3.10226e-11)
(1.50755e-10 4.64134e-10 5.31898e-11)
(1.78374e-10 4.36525e-10 -1.88602e-11)
(3.75527e-10 3.88007e-10 -1.65831e-11)
(2.70626e-10 5.81567e-10 -1.98374e-11)
(2.19767e-10 3.04985e-10 -1.72116e-11)
(1.78045e-10 4.34162e-10 -1.80796e-11)
(3.75698e-10 3.87069e-10 -1.59292e-11)
(2.70068e-10 5.72671e-10 -1.75688e-11)
(2.18353e-10 3.00221e-10 -1.48534e-11)
(2.70255e-10 5.7752e-10 -1.95791e-11)
(2.19117e-10 3.03148e-10 -1.5771e-11)
(1.77811e-10 4.29943e-10 -1.65196e-11)
(3.83135e-10 7.27715e-10 -1.8958e-11)
(2.69293e-10 1.13002e-09 -1.97839e-11)
(3.35562e-10 8.36549e-10 -1.76573e-11)
(3.36392e-10 8.47928e-10 -1.91786e-11)
(2.68716e-10 1.13762e-09 -2.00154e-11)
(3.36466e-10 8.50755e-10 -1.98619e-11)
(3.81429e-10 7.15106e-10 -1.66139e-11)
(3.82739e-10 7.24974e-10 -1.80081e-11)
(2.52351e-10 2.25592e-10 -1.40885e-11)
(1.69928e-10 1.52405e-10 -9.8622e-12)
(3.66738e-11 4.14405e-11 -3.85624e-12)
(1.7215e-10 1.53923e-10 -1.05734e-11)
(2.50037e-10 2.21941e-10 -1.21078e-11)
(2.52158e-10 2.24938e-10 -1.39848e-11)
(3.67005e-11 4.19443e-11 -4.70146e-12)
(1.72174e-10 1.55026e-10 -1.14988e-11)
(2.27667e-10 2.04197e-10 -5.52673e-12)
(2.31059e-10 2.06171e-10 -6.34321e-12)
(1.57133e-10 1.42312e-10 -5.15555e-12)
(3.12215e-11 3.78677e-11 -2.15783e-12)
(1.55245e-10 1.412e-10 -5.02533e-12)
(2.34765e-10 2.08631e-10 -7.01791e-12)
(2.31648e-10 2.06518e-10 -6.10075e-12)
(1.51681e-10 1.39495e-10 -4.63947e-12)
(3.0927e-11 3.76451e-11 -1.61246e-12)
(1.54275e-10 1.40551e-10 -4.7097e-12)
(3.63275e-10 6.78325e-10 -8.14465e-12)
(3.66039e-10 6.82237e-10 -8.31471e-12)
(3.26201e-10 8.07432e-10 -1.01607e-11)
(2.64163e-10 1.08045e-09 -1.03434e-11)
(3.24023e-10 8.02799e-10 -9.58297e-12)
(3.69441e-10 6.87468e-10 -9.24036e-12)
(3.66879e-10 6.83009e-10 -8.89099e-12)
(3.2084e-10 7.97905e-10 -8.84091e-12)
(2.63098e-10 1.0776e-09 -9.99042e-12)
(3.23248e-10 8.01739e-10 -9.14874e-12)
(1.6208e-10 4.0305e-10 -8.04361e-12)
(2.52028e-10 5.3911e-10 -8.90283e-12)
(3.44913e-10 3.50309e-10 -5.77223e-12)
(1.98567e-10 2.78192e-10 -6.82807e-12)
(1.635e-10 4.04941e-10 -8.51075e-12)
(2.50268e-10 5.36885e-10 -7.94161e-12)
(1.96649e-10 2.76484e-10 -6.8994e-12)
(1.60694e-10 4.01854e-10 -8.16632e-12)
(3.44282e-10 3.49937e-10 -5.48653e-12)
(2.46645e-10 5.32627e-10 -7.5857e-12)
(1.9303e-10 2.73857e-10 -6.63858e-12)
(2.48499e-10 5.34944e-10 -8.48323e-12)
(1.95059e-10 2.75527e-10 -6.47419e-12)
(1.59061e-10 3.99791e-10 -7.79252e-12)
(3.62351e-10 6.77415e-10 -7.61516e-12)
(3.59465e-10 6.73409e-10 -7.603e-12)
(2.58039e-10 1.06571e-09 -9.0918e-12)
(3.13812e-10 7.86996e-10 -7.94044e-12)
(3.16614e-10 7.91527e-10 -8.0301e-12)
(3.20029e-10 7.96866e-10 -8.47758e-12)
(2.59401e-10 1.06898e-09 -9.16318e-12)
(3.17457e-10 7.92662e-10 -8.35374e-12)
(3.5536e-10 6.68092e-10 -7.15555e-12)
(3.5848e-10 6.7237e-10 -7.10586e-12)
(2.27002e-10 2.03857e-10 -5.78818e-12)
(2.23803e-10 2.02001e-10 -5.1272e-12)
(1.45098e-10 1.36364e-10 -4.12304e-12)
(2.88927e-11 3.6812e-11 -1.37488e-12)
(1.47795e-10 1.37383e-10 -4.07291e-12)
(2.1953e-10 1.99807e-10 -4.85929e-12)
(2.231e-10 2.01675e-10 -5.42968e-12)
(1.50733e-10 1.38916e-10 -4.25287e-12)
(2.9226e-11 3.70144e-11 -1.86066e-12)
(1.488e-10 1.37914e-10 -4.27872e-12)
(1.82452e-10 1.83756e-10 -1.45292e-12)
(1.89574e-10 1.86591e-10 -2.85314e-12)
(1.26208e-10 1.28815e-10 -2.96299e-12)
(2.09439e-11 3.44725e-11 -1.41267e-12)
(1.22439e-10 1.27378e-10 -2.8849e-12)
(1.97044e-10 1.89626e-10 -3.79016e-12)
(1.91e-10 1.87018e-10 -2.82021e-12)
(1.15323e-10 1.25097e-10 -2.08354e-12)
(2.02286e-11 3.42375e-11 -8.61248e-13)
(1.20202e-10 1.26669e-10 -2.36428e-12)
(3.18069e-10 6.2801e-10 -4.81274e-13)
(3.24689e-10 6.35033e-10 -2.22157e-12)
(2.93044e-10 7.59661e-10 -5.28236e-12)
(2.36184e-10 1.02274e-09 -5.64227e-12)
(2.87918e-10 7.53017e-10 -4.28537e-12)
(3.32344e-10 6.4285e-10 -4.03365e-12)
(3.26674e-10 6.36575e-10 -3.13009e-12)
(2.80101e-10 7.43744e-10 -1.69932e-12)
(2.33232e-10 1.0175e-09 -4.65559e-12)
(2.8611e-10 7.51126e-10 -3.55408e-12)
(1.24992e-10 3.70558e-10 -2.97955e-12)
(2.09451e-10 4.97228e-10 -2.35623e-12)
(2.86689e-10 3.13353e-10 4.7303e-12)
(1.56937e-10 2.52802e-10 -2.20749e-12)
(1.28928e-10 3.73976e-10 -4.60841e-12)
(2.04801e-10 4.93131e-10 1.45051e-13)
(1.52056e-10 2.49955e-10 -1.21024e-12)
(1.211e-10 3.68396e-10 -1.70492e-12)
(2.84606e-10 3.12741e-10 6.06402e-12)
(1.94311e-10 4.8516e-10 5.35716e-12)
(1.41674e-10 2.45377e-10 2.30433e-12)
(1.99812e-10 4.89444e-10 1.73079e-12)
(1.47541e-10 2.48305e-10 5.59503e-13)
(1.1632e-10 3.64803e-10 8.65589e-13)
(3.15751e-10 6.26274e-10 7.52523e-13)
(3.0803e-10 6.18474e-10 3.70894e-12)
(2.18852e-10 9.93221e-10 4.06932e-12)
(2.6034e-10 7.22376e-10 9.31411e-12)
(2.68556e-10 7.31108e-10 4.10108e-12)
(2.78006e-10 7.41684e-10 -6.32795e-13)
(2.22846e-10 9.99777e-10 1.0692e-12)
(2.71002e-10 7.33393e-10 2.50112e-12)
(2.96243e-10 6.08279e-10 1.03045e-11)
(3.05295e-10 6.1652e-10 5.43816e-12)
(1.80757e-10 1.83285e-10 -1.28177e-12)
(1.7264e-10 1.80219e-10 7.15572e-13)
(9.78799e-11 1.2003e-10 1.25408e-12)
(1.54237e-11 3.32308e-11 7.42444e-14)
(1.0463e-10 1.21917e-10 4.2345e-13)
(1.60619e-10 1.76466e-10 3.93897e-12)
(1.7058e-10 1.79735e-10 1.1354e-12)
(1.12817e-10 1.24361e-10 -1.20678e-12)
(1.64399e-11 3.34721e-11 -6.66078e-13)
(1.07754e-10 1.22645e-10 -6.95032e-13)
(1.05456e-10 1.44688e-10 4.92685e-11)
(8.53192e-11 1.54623e-10 3.80924e-11)
(4.22971e-11 1.08304e-10 1.68369e-11)
(-8.70881e-12 2.86602e-11 4.30552e-12)
(3.75683e-11 1.01171e-10 1.74423e-11)
(9.77257e-11 1.65494e-10 3.06798e-11)
(8.60998e-11 1.57594e-10 3.5664e-11)
(5.24044e-11 8.6903e-11 2.29017e-11)
(-4.26641e-12 2.70485e-11 4.84659e-12)
(4.08658e-11 9.27557e-11 1.92459e-11)
(2.80243e-10 5.32142e-10 1.75538e-10)
(2.5279e-10 5.66374e-10 1.38788e-10)
(2.1237e-10 6.83025e-10 1.04965e-10)
(1.78857e-10 8.92644e-10 1.69176e-10)
(2.18057e-10 6.70067e-10 1.39345e-10)
(2.42825e-10 5.78085e-10 9.64163e-11)
(2.47907e-10 5.70902e-10 1.27025e-10)
(2.52213e-10 6.17842e-10 1.92021e-10)
(1.8844e-10 8.60615e-10 2.02815e-10)
(2.22873e-10 6.62273e-10 1.52323e-10)
(1.56662e-10 2.65548e-10 1.35506e-10)
(2.08481e-10 3.97854e-10 1.58713e-10)
(3.18478e-10 2.20201e-10 1.59085e-10)
(1.30008e-10 2.10059e-10 8.24617e-11)
(1.25126e-10 2.94342e-10 1.1151e-10)
(2.48612e-10 3.61429e-10 1.9899e-10)
(1.61699e-10 1.90205e-10 1.00645e-10)
(1.81414e-10 2.38363e-10 1.62453e-10)
(3.31465e-10 5.13504e-10 3.41239e-10)
(3.07719e-10 4.36586e-10 2.66131e-10)
(2.58149e-10 2.59656e-10 2.65562e-10)
(1.27311e-10 1.60564e-10 1.16278e-10)
(1.08226e-11 1.29845e-11 9.64376e-12)
(1.23422e-10 1.02529e-10 6.51189e-11)
(1.63754e-11 1.66131e-11 1.95048e-11)
(1.68797e-10 2.17221e-10 1.38848e-10)
(3.58966e-10 2.21653e-10 1.69323e-10)
(3.12907e-10 3.84816e-10 2.49934e-10)
(1.71791e-10 1.31352e-10 8.33147e-11)
(2.9308e-10 5.13333e-10 1.90038e-10)
(3.54562e-10 4.39661e-10 2.45804e-10)
(3.38259e-10 5.92291e-10 3.31745e-10)
(3.55138e-10 4.9913e-10 2.79755e-10)
(2.66919e-10 5.96724e-10 2.07335e-10)
(2.96025e-10 6.63748e-10 2.99443e-10)
(3.33972e-10 5.15675e-10 2.61796e-10)
(3.79278e-10 4.25724e-10 2.63543e-10)
(1.19284e-10 1.40077e-10 5.24509e-11)
(1.67203e-10 1.12497e-10 6.73352e-11)
(1.08906e-11 1.07114e-11 9.79759e-12)
(1.3452e-10 7.96384e-11 5.5422e-11)
(1.90327e-10 9.89082e-11 7.07191e-11)
(7.37048e-11 8.37085e-11 2.52607e-11)
(2.04963e-11 2.07327e-11 7.82249e-12)
(9.20841e-11 7.10031e-11 2.97759e-11)
(1.75945e-10 4.22862e-10 -1.3882e-11)
(3.70251e-10 3.75371e-10 -1.15912e-11)
(2.65893e-10 5.59678e-10 -1.30231e-11)
(2.13038e-10 2.91611e-10 -1.13983e-11)
(1.7463e-10 4.20233e-10 -1.25955e-11)
(2.67486e-10 5.62475e-10 -1.47382e-11)
(2.15059e-10 2.94171e-10 -1.2044e-11)
(1.76918e-10 4.24463e-10 -1.44651e-11)
(3.70639e-10 3.76114e-10 -1.22562e-11)
(2.69643e-10 5.6879e-10 -1.70817e-11)
(2.17755e-10 2.98597e-10 -1.36977e-11)
(1.77469e-10 4.27674e-10 -1.58739e-11)
(2.68755e-10 5.64996e-10 -1.50528e-11)
(2.16385e-10 2.95741e-10 -1.30503e-11)
(2.42309e-10 2.14093e-10 -9.04577e-12)
(2.39026e-10 2.11562e-10 -7.72408e-12)
(1.57862e-10 1.42963e-10 -5.65389e-12)
(3.29173e-11 3.86019e-11 -2.04613e-12)
(1.60424e-10 1.44122e-10 -5.87656e-12)
(2.35286e-10 2.08986e-10 -6.82085e-12)
(2.38451e-10 2.11151e-10 -7.87899e-12)
(1.63342e-10 1.46166e-10 -6.66984e-12)
(3.31752e-11 3.88845e-11 -2.65991e-12)
(1.61186e-10 1.44805e-10 -6.33963e-12)
(3.75895e-10 6.99882e-10 -1.18046e-11)
(3.73527e-10 6.95142e-10 -1.11283e-11)
(3.26877e-10 8.08766e-10 -1.06638e-11)
(2.67051e-10 1.09227e-09 -1.22471e-11)
(3.29019e-10 8.14461e-10 -1.1373e-11)
(3.7023e-10 6.88566e-10 -9.88716e-12)
(3.72719e-10 6.93764e-10 -1.04132e-11)
(3.31585e-10 8.20731e-10 -1.26211e-11)
(2.679e-10 1.09639e-09 -1.26482e-11)
(3.29643e-10 8.15919e-10 -1.19072e-11)
(3.76603e-10 7.00697e-10 -1.25718e-11)
(3.78766e-10 7.05157e-10 -1.34973e-11)
(3.35267e-10 8.33756e-10 -1.67901e-11)
(2.69545e-10 1.10787e-09 -1.56638e-11)
(3.34208e-10 8.26514e-10 -1.50567e-11)
(3.80943e-10 7.12815e-10 -1.56601e-11)
(3.79322e-10 7.05875e-10 -1.43517e-11)
(3.3217e-10 8.21668e-10 -1.32155e-11)
(2.6946e-10 1.10479e-09 -1.45789e-11)
(3.33746e-10 8.25427e-10 -1.4297e-11)
(2.42865e-10 2.14576e-10 -8.97116e-12)
(2.46652e-10 2.17669e-10 -1.0523e-11)
(1.69844e-10 1.51405e-10 -8.97652e-12)
(3.50867e-11 4.02318e-11 -3.52709e-12)
(1.67999e-10 1.49831e-10 -8.50948e-12)
(2.4985e-10 2.2136e-10 -1.20851e-11)
(2.47128e-10 2.18265e-10 -1.04909e-11)
(1.64181e-10 1.47081e-10 -7.39887e-12)
(3.48923e-11 3.98518e-11 -2.80539e-12)
(1.67167e-10 1.4869e-10 -7.82334e-12)
(1.54264e-10 3.95312e-10 -7.84294e-12)
(3.34326e-10 3.42619e-10 -4.62687e-12)
(2.38292e-10 5.2371e-10 -7.01395e-12)
(1.84787e-10 2.68272e-10 -6.22267e-12)
(1.52295e-10 3.93118e-10 -7.52787e-12)
(2.40582e-10 5.26219e-10 -7.87845e-12)
(1.87233e-10 2.70089e-10 -6.02616e-12)
(1.55911e-10 3.96562e-10 -7.64938e-12)
(3.35082e-10 3.42969e-10 -4.90759e-12)
(2.44738e-10 5.30646e-10 -8.15142e-12)
(1.91313e-10 2.72877e-10 -6.20827e-12)
(1.57587e-10 3.98593e-10 -7.97591e-12)
(2.42689e-10 5.28259e-10 -7.29629e-12)
(1.89106e-10 2.71084e-10 -6.41129e-12)
(2.09202e-10 1.94873e-10 -4.67309e-12)
(2.0468e-10 1.92729e-10 -4.09468e-12)
(1.28004e-10 1.29465e-10 -3.40533e-12)
(2.38511e-11 3.51721e-11 -1.17088e-12)
(1.31816e-10 1.30763e-10 -3.37568e-12)
(1.98249e-10 1.90012e-10 -3.63451e-12)
(2.03618e-10 1.92363e-10 -4.34029e-12)
(1.36181e-10 1.32534e-10 -3.52e-12)
(2.43668e-11 3.53859e-11 -1.63721e-12)
(1.33392e-10 1.31351e-10 -3.61725e-12)
(3.44706e-10 6.56112e-10 -5.81837e-12)
(3.40445e-10 6.5109e-10 -5.71335e-12)
(2.94581e-10 7.61275e-10 -5.79741e-12)
(2.43866e-10 1.0368e-09 -7.55687e-12)
(2.99049e-10 7.67202e-10 -6.30075e-12)
(3.34039e-10 6.442e-10 -4.73218e-12)
(3.38957e-10 6.49817e-10 -5.13962e-12)
(3.04223e-10 7.73965e-10 -6.87883e-12)
(2.46065e-10 1.04094e-09 -7.78199e-12)
(3.00371e-10 7.68651e-10 -6.68978e-12)
(3.45988e-10 6.57173e-10 -6.32147e-12)
(3.49791e-10 6.61786e-10 -6.2946e-12)
(3.12872e-10 7.85784e-10 -7.63113e-12)
(2.53538e-10 1.05545e-09 -8.48653e-12)
(3.09871e-10 7.81235e-10 -7.58183e-12)
(3.54308e-10 6.6709e-10 -6.68064e-12)
(3.5094e-10 6.62746e-10 -6.7697e-12)
(3.0539e-10 7.75246e-10 -7.20188e-12)
(2.5186e-10 1.05207e-09 -8.42556e-12)
(3.0881e-10 7.79996e-10 -7.27672e-12)
(2.10081e-10 1.95195e-10 -4.39619e-12)
(2.14314e-10 1.97212e-10 -4.93647e-12)
(1.44025e-10 1.35808e-10 -3.82828e-12)
(2.70059e-11 3.62116e-11 -1.73506e-12)
(1.41828e-10 1.34765e-10 -3.91913e-12)
(2.18782e-10 1.99474e-10 -5.16095e-12)
(2.15105e-10 1.97531e-10 -4.63068e-12)
(1.3748e-10 1.33093e-10 -3.83032e-12)
(2.66017e-11 3.60099e-11 -1.27184e-12)
(1.40558e-10 1.34187e-10 -3.73428e-12)
(2.00348e-10 1.07758e-09 3.45949e-12)
(2.03423e-10 1.08441e-09 2.88209e-13)
(1.73289e-10 1.00533e-09 9.55455e-11)
(1.7597e-10 1.01829e-09 7.28889e-11)
(1.90038e-10 1.05527e-09 2.00405e-11)
(1.86494e-10 1.0468e-09 2.88743e-11)
(1.00915e-10 3.57386e-10 1.05938e-11)
(2.55139e-10 2.99654e-10 2.03066e-11)
(1.68671e-10 4.70295e-10 2.5675e-11)
(1.15381e-10 2.37226e-10 1.53435e-11)
(9.48975e-11 3.5453e-10 1.64403e-11)
(1.75495e-10 4.73811e-10 1.82146e-11)
(1.22925e-10 2.39472e-10 1.12179e-11)
(1.06161e-10 3.59273e-10 7.04435e-12)
(2.58016e-10 3.00031e-10 1.78225e-11)
(1.88445e-10 4.81456e-10 8.24354e-12)
(1.36181e-10 2.43734e-10 4.86112e-12)
(1.11692e-10 3.62689e-10 3.07313e-12)
(1.82083e-10 4.77257e-10 1.34548e-11)
(1.29264e-10 2.40883e-10 7.67134e-12)
(1.26645e-10 1.69555e-10 1.63449e-11)
(1.13949e-10 1.67822e-10 2.21031e-11)
(4.35527e-11 1.10699e-10 1.56023e-11)
(-4.75224e-12 3.09962e-11 4.41193e-12)
(5.11427e-11 1.12755e-10 1.44506e-11)
(9.99099e-11 1.66029e-10 2.91763e-11)
(1.10951e-10 1.67965e-10 2.3858e-11)
(6.54069e-11 1.14469e-10 1.0355e-11)
(-2.16471e-12 3.13142e-11 3.4182e-12)
(5.62345e-11 1.12952e-10 1.21371e-11)
(2.64208e-10 5.87845e-10 4.02743e-11)
(2.53446e-10 5.8253e-10 5.6974e-11)
(2.13086e-10 6.85055e-10 9.46596e-11)
(1.79974e-10 9.34408e-10 8.65032e-11)
(2.18938e-10 6.90566e-10 6.78735e-11)
(2.43624e-10 5.78666e-10 8.7255e-11)
(2.50314e-10 5.81493e-10 6.38031e-11)
(2.3145e-10 6.99133e-10 4.15256e-11)
(1.84416e-10 9.4322e-10 6.69802e-11)
(2.21726e-10 6.9244e-10 6.03022e-11)
(2.6789e-10 5.89193e-10 3.53471e-11)
(2.79105e-10 5.96299e-10 2.38262e-11)
(2.57487e-10 7.20051e-10 1.17152e-11)
(2.05076e-10 9.72516e-10 1.96843e-11)
(2.481e-10 7.11265e-10 1.99211e-11)
(2.93066e-10 6.06359e-10 1.27548e-11)
(2.82684e-10 5.98146e-10 2.03234e-11)
(2.34752e-10 7.0103e-10 3.62506e-11)
(2.00009e-10 9.65166e-10 2.77671e-11)
(2.44897e-10 7.08908e-10 2.35197e-11)
(1.29969e-10 1.69649e-10 1.47621e-11)
(1.43122e-10 1.72411e-10 9.76814e-12)
(9.37397e-11 1.1929e-10 2.8761e-12)
(9.25943e-12 3.23918e-11 9.18579e-13)
(8.5832e-11 1.17295e-10 4.12723e-12)
(1.58023e-10 1.76008e-10 4.71144e-12)
(1.46219e-10 1.7274e-10 8.58085e-12)
(7.11301e-11 1.14813e-10 7.88371e-12)
(7.22067e-12 3.21341e-11 1.96624e-12)
(8.05324e-11 1.16689e-10 6.1932e-12)
(1.7401e-10 9.39523e-10 1.96144e-10)
(1.82224e-10 8.94285e-10 2.39351e-10)
(3.51438e-10 5.11558e-10 3.76485e-10)
(2.93583e-10 2.49951e-10 3.09668e-10)
(3.46034e-10 5.90292e-10 3.63253e-10)
(2.84967e-10 6.53329e-10 3.69988e-10)
(2.57545e-10 3.94491e-10 -7.7687e-12)
(3.50916e-10 3.55218e-10 -6.21727e-12)
(3.31783e-10 4.40262e-10 -7.13494e-12)
(2.81745e-10 3.09161e-10 -6.85339e-12)
(2.83132e-10 3.1045e-10 -6.41642e-12)
(3.33263e-10 4.41545e-10 -7.2655e-12)
(2.56503e-10 3.93492e-10 -7.57143e-12)
(1.59028e-10 4.9949e-10 -9.71902e-12)
(1.95155e-10 6.03838e-10 -1.2143e-11)
(2.3815e-10 7.17245e-10 -1.14399e-11)
(2.31628e-10 8.34002e-10 -1.08685e-11)
(1.60071e-10 5.01885e-10 -1.10687e-11)
(1.94329e-10 6.0114e-10 -9.81361e-12)
(2.36957e-10 7.14473e-10 -1.07346e-11)
(2.62134e-10 3.99172e-10 -8.79876e-12)
(3.55912e-10 3.59697e-10 -7.46201e-12)
(2.89318e-10 3.15755e-10 -7.66944e-12)
(3.39345e-10 4.47941e-10 -8.55904e-12)
(2.62961e-10 4.00033e-10 -9.05155e-12)
(2.88061e-10 3.14433e-10 -8.01205e-12)
(3.3783e-10 4.46462e-10 -8.30761e-12)
(1.58067e-10 4.98241e-10 -1.02007e-11)
(2.34318e-10 7.10046e-10 -9.90909e-12)
(2.30628e-10 8.31793e-10 -1.15722e-11)
(1.92641e-10 5.97544e-10 -9.09474e-12)
(1.93579e-10 5.99839e-10 -1.12487e-11)
(2.35671e-10 7.12397e-10 -1.03902e-11)
(1.56904e-10 4.96109e-10 -9.00192e-12)
(2.1481e-10 3.61695e-10 -2.52919e-12)
(3.01302e-10 3.21805e-10 6.62098e-13)
(2.83328e-10 4.02064e-10 -8.83129e-14)
(2.335e-10 2.79184e-10 -5.56499e-13)
(2.36507e-10 2.81279e-10 -5.88281e-13)
(2.86553e-10 4.04238e-10 -7.13596e-13)
(2.12528e-10 3.60177e-10 -1.89615e-12)
(1.34541e-10 4.68052e-10 -7.45109e-12)
(1.75215e-10 5.707e-10 -9.9851e-12)
(2.09451e-10 6.75597e-10 -7.72968e-12)
(2.05984e-10 7.88259e-10 -7.66604e-12)
(1.37064e-10 4.71325e-10 -8.6398e-12)
(1.72971e-10 5.67065e-10 -7.89138e-12)
(2.06529e-10 6.71737e-10 -7.0594e-12)
(2.24633e-10 3.68487e-10 -4.57999e-12)
(3.11984e-10 3.28025e-10 -2.11716e-12)
(2.49201e-10 2.88384e-10 -3.11137e-12)
(2.99309e-10 4.13417e-10 -3.5738e-12)
(2.26418e-10 3.6965e-10 -4.87105e-12)
(2.46796e-10 2.86644e-10 -3.37372e-12)
(2.9661e-10 4.11496e-10 -3.22234e-12)
(1.65621e-10 3.19823e-10 9.87731e-11)
(2.47182e-10 2.85078e-10 9.90364e-11)
(2.4581e-10 3.47919e-10 1.24181e-10)
(1.92821e-10 2.42962e-10 9.12269e-11)
(1.81646e-10 2.51575e-10 8.54495e-11)
(2.37411e-10 3.58321e-10 1.14542e-10)
(1.76338e-10 3.10846e-10 1.06284e-10)
(1.40122e-10 3.33619e-10 6.66708e-11)
(2.17163e-10 2.91773e-10 6.75748e-11)
(1.55411e-10 2.57654e-10 5.50303e-11)
(2.0674e-10 3.70693e-10 7.02764e-11)
(1.39701e-10 3.33495e-10 6.11117e-11)
(1.55084e-10 2.57016e-10 5.88354e-11)
(2.06472e-10 3.69962e-10 7.65232e-11)
(2.43559e-10 6.36679e-10 -1.04085e-11)
(2.56292e-10 9.11692e-10 -1.37837e-11)
(2.44156e-10 6.39687e-10 -1.34931e-11)
(2.44918e-10 6.44159e-10 -1.46503e-11)
(2.56761e-10 9.14578e-10 -1.3207e-11)
(2.44581e-10 6.41323e-10 -1.14086e-11)
(2.68737e-10 4.07438e-10 -1.11577e-11)
(3.6389e-10 3.68094e-10 -9.69825e-12)
(3.46752e-10 4.57497e-10 -1.10941e-11)
(2.96909e-10 3.23456e-10 -1.00557e-11)
(2.69637e-10 4.08443e-10 -1.15645e-11)
(2.95494e-10 3.2185e-10 -1.02582e-11)
(3.45105e-10 4.55779e-10 -1.06722e-11)
(1.61871e-10 5.06151e-10 -1.21172e-11)
(1.95832e-10 6.05437e-10 -1.07698e-11)
(2.39297e-10 7.19864e-10 -1.1911e-11)
(2.34192e-10 8.43297e-10 -1.37984e-11)
(1.60928e-10 5.03391e-10 -1.06702e-11)
(1.96566e-10 6.0844e-10 -1.31485e-11)
(2.40416e-10 7.23086e-10 -1.2658e-11)
(2.64608e-10 4.02018e-10 -9.50437e-12)
(3.59347e-10 3.6304e-10 -7.95013e-12)
(2.89797e-10 3.15962e-10 -8.44473e-12)
(3.3965e-10 4.48597e-10 -8.81762e-12)
(2.63701e-10 4.00878e-10 -9.20266e-12)
(2.91071e-10 3.17374e-10 -8.0986e-12)
(3.41038e-10 4.50045e-10 -9.03676e-12)
(2.42984e-10 6.3502e-10 -1.25325e-11)
(2.54331e-10 9.0208e-10 -1.11232e-11)
(2.42289e-10 6.3228e-10 -9.51484e-12)
(2.53655e-10 8.99766e-10 -1.17272e-11)
(2.40901e-10 6.28576e-10 -8.81699e-12)
(2.41674e-10 6.30931e-10 -1.1695e-11)
(2.37008e-10 3.77416e-10 -5.98028e-12)
(3.26418e-10 3.37189e-10 -4.12924e-12)
(3.12342e-10 4.23329e-10 -5.2283e-12)
(2.62159e-10 2.96037e-10 -4.56427e-12)
(2.38344e-10 3.78342e-10 -6.0995e-12)
(2.60324e-10 2.94621e-10 -5.01243e-12)
(3.10245e-10 4.21761e-10 -5.07896e-12)
(1.41265e-10 4.76058e-10 -8.96512e-12)
(1.76998e-10 5.72594e-10 -8.39011e-12)
(2.12159e-10 6.78722e-10 -8.03109e-12)
(2.12986e-10 7.99486e-10 -9.9309e-12)
(1.3908e-10 4.73101e-10 -7.99975e-12)
(1.78948e-10 5.75824e-10 -1.0247e-11)
(2.14702e-10 6.82157e-10 -8.42194e-12)
(2.29687e-10 3.71909e-10 -5.25891e-12)
(3.1848e-10 3.32164e-10 -2.83401e-12)
(2.50385e-10 2.88526e-10 -3.90588e-12)
(3.00341e-10 4.14169e-10 -3.8802e-12)
(2.27989e-10 3.70659e-10 -5.00865e-12)
(2.52668e-10 2.90251e-10 -3.55099e-12)
(3.02787e-10 4.15924e-10 -4.09182e-12)
(1.43001e-10 4.77651e-10 -8.194e-12)
(2.19237e-10 6.88081e-10 -8.74435e-12)
(1.82194e-10 5.80473e-10 -1.02833e-11)
(2.15033e-10 8.02472e-10 -8.94907e-12)
(1.80502e-10 5.77531e-10 -8.51906e-12)
(1.449e-10 4.80314e-10 -9.0507e-12)
(2.17045e-10 6.84969e-10 -8.51554e-12)
(1.55828e-10 3.34892e-10 3.05565e-11)
(2.33418e-10 2.92648e-10 3.45531e-11)
(2.26993e-10 3.73593e-10 3.23675e-11)