/*--------------------------------*- C++ -*----------------------------------*\
| =========                 |                                                 |
| \\      /  F ield         | OpenFOAM: The Open Source CFD Toolbox           |
|  \\    /   O peration     | Version:  2012                                  |
|   \\  /    A nd           | Website:  www.openfoam.com                      |
|    \\/     M anipulation  |                                                 |
\*---------------------------------------------------------------------------*/
FoamFile
{
    version     2.0;
    format      ascii;
    class       volScalarField;
    location    "0.108/solid";
    object      epsilonEq;
}
// * * * * * * * * * * * * * * * * * * * * * * * * * * * * * * * * * * * * * //

dimensions      [0 0 0 0 0 0 0];


internalField   nonuniform List<scalar> 
3125
(
0.00122075
0.00053421
0.000324963
0.0013584
0.000587866
0.000335986
0.00229827
0.000890386
0.000416366
0.00197117
0.000800836
0.000389045
0.000344594
0.00126719
0.000606994
0.00109916
0.000508732
0.000522793
0.00112167
0.000118518
0.000467334
0.000311862
0.000488175
0.000130975
0.000284637
0.000415245
6.88919e-05
0.000249648
0.000170083
0.000314518
9.07282e-05
0.000124857
0.000244422
0.000663559
0.00079827
0.000764973
0.00151982
0.00143333
0.000643861
0.000528277
0.00079064
0.00162818
0.000631617
0.000551744
0.000351559
0.000389929
0.000162833
0.00064987
0.00052839
0.000322679
0.000129504
0.000359345
0.000599146
0.00034057
0.000312964
0.000199582
0.000233607
0.000111087
0.000349193
0.000256111
0.000182082
9.29032e-05
0.000212883
0.000266665
0.000186425
0.00013775
0.00127094
0.00250009
0.00106012
0.000608735
0.00304407
0.00168759
0.00139019
0.000226421
0.000175262
0.000334571
0.000989616
0.000439058
0.000876112
0.000498981
0.000230648
0.000992119
0.000161789
0.000166807
0.00106257
0.001302
0.000553575
0.00044327
0.000177517
0.000180734
0.000120524
0.000449144
0.000253486
0.000335191
0.000276714
0.000117063
0.000371407
0.00017697
0.000181172
0.000334806
0.000411955
0.000239024
0.000247988
8.96169e-05
4.42736e-05
6.60402e-05
0.000413066
0.000108673
0.000291055
4.15828e-05
0.000252399
0.00126373
0.00113216
0.000859671
0.000793023
0.00171795
0.00114163
0.00215252
0.00104105
0.000858801
0.00186345
0.00179764
0.00218044
0.000257179
0.00037425
0.000564603
0.000422265
0.00284956
0.00232595
0.00047006
0.000530091
0.000452638
0.000404
0.000163379
0.000720739
0.000420848
0.000772407
0.000226615
0.000373596
0.000680284
0.000596421
0.0007443
0.000175954
0.000170739
0.000162753
0.000168538
0.00099132
0.000800434
0.000202887
0.000278871
0.000305303
0.000199364
0.000202233
0.000270284
0.000243549
0.000122989
0.000169391
0.000197257
0.000178802
0.000111459
0.000366751
0.000245791
0.000305945
0.000118401
0.000221951
0.00028318
0.000240167
0.00025628
0.000107939
0.000149416
0.000174236
0.000158139
0.000313804
0.000267329
0.000101482
3.64299e-05
0.000447289
0.000120461
2.69474e-05
0.000147256
0.000422809
0.000194226
0.000378269
0.000450578
0.000211747
0.000777081
0.000411719
0.000449327
0.000648453
0.000672555
0.000479314
0.000728686
0.000823485
0.00042623
0.000770394
0.000561485
0.000881024
0.000740494
0.00052316
0.000318541
0.000123946
0.000198375
0.000255986
0.000263174
0.000203932
0.000304898
0.000334568
0.000121989
0.000290416
0.000217815
0.000350876
0.0002819
0.000211091
0.000169826
7.82965e-05
9.05994e-05
0.000130688
0.000145792
0.000102344
0.000150963
0.000180621
8.07948e-05
0.000160205
0.000122466
0.000189442
0.000154513
0.00011317
0.00107404
0.00065225
0.00079506
0.00103153
0.00116081
0.00098165
0.000732898
0.00100626
0.000627294
0.000849694
0.000615997
0.000936045
0.000888401
0.000665457
0.000410564
0.000142835
0.000257866
0.000361678
0.000433514
0.000350041
0.0002473
0.00038898
0.000143502
0.000313014
0.000227016
0.000369537
0.00032305
0.000235493
0.000209686
0.000103906
0.000153984
0.000181485
0.000216767
0.00017743
0.000147204
0.000203
0.000102528
0.000166556
0.000131394
0.000195948
0.000170696
0.000139612
0.00204522
0.00112327
0.00142146
0.0017471
0.00188568
0.00111936
0.00122606
0.00153137
0.00132303
0.00161697
0.00173318
0.000966759
0.000652682
0.000971754
0.00107759
0.000691893
0.00114261
0.000884907
0.000935574
0.00162541
0.00137322
0.0032542
0.00139562
0.00144542
0.00156184
0.00345758
0.00151325
0.000621869
0.000663104
0.000697478
0.0015824
0.000707534
0.000762069
0.000711756
0.000623093
0.0014841
0.000612753
0.000261682
0.00030202
0.000395122
0.000204844
0.000345839
0.000382495
0.00032751
0.000284983
0.000186138
0.000318763
0.000647118
0.000414358
0.000280581
0.000590285
0.00068849
0.000390599
0.000570266
0.00061158
0.000273954
0.000343036
0.000502694
0.00036233
0.000520023
0.000575751
0.000241179
0.000213366
0.000161393
0.0002113
0.000224044
0.000263072
0.000163445
0.000241577
0.000179233
0.000197185
0.000579717
0.000545196
0.000486804
0.00113823
0.000479701
0.000478837
0.000508749
0.000541179
0.00121763
0.000550139
0.000238402
0.000250523
0.000276346
0.000513929
0.000276482
0.000277734
0.000263225
0.00025158
0.00047703
0.000251934
0.000134622
0.000132194
0.000160782
0.000178314
0.000162386
0.000130686
0.000133457
0.000160753
0.000179303
0.000159735
0.000279917
0.000192656
0.000117443
0.000240601
0.000291213
0.000188173
0.000234635
0.000268311
0.000119301
0.000179395
0.000217032
0.000183503
0.000222073
0.00025884
0.000133764
0.000135764
0.000179146
0.000156319
0.000157455
0.000158623
0.000180456
0.000159233
0.000135423
0.000135091
0.000228186
0.000218251
0.00021476
0.000357713
0.00021548
0.000202035
0.000210138
0.000231809
0.000383761
0.000231193
0.000132558
0.000153142
0.00017942
0.000240756
0.000181271
0.000160729
0.000156733
0.000174759
0.000244244
0.000178804
4.92212e-05
5.48113e-05
9.1373e-05
7.05796e-05
7.10061e-05
7.81189e-05
5.86618e-05
5.52635e-05
5.40048e-05
6.60936e-05
0.00011084
7.92517e-05
4.63321e-05
0.000115461
0.000140906
6.7744e-05
8.6235e-05
0.000131043
7.87908e-05
6.47254e-05
0.000170398
0.000128435
0.000296922
8.02959e-05
0.000354669
0.000117977
4.70413e-05
5.79055e-05
7.84746e-05
4.88609e-05
3.53758e-05
5.78413e-05
4.53344e-05
5.35811e-05
3.61721e-05
4.4373e-05
3.82976e-05
0.000124125
7.10688e-05
0.00028249
6.91921e-05
6.89505e-05
0.000157129
0.000240555
0.000102212
0.00135436
0.000910298
0.000874619
0.00113881
0.00124618
0.000950671
0.00120236
0.00146406
0.000938067
0.00112948
0.00140082
0.00159592
0.00104177
0.00132424
0.00102325
0.000944016
0.000806772
0.00191701
0.000799305
0.000817586
0.000881066
0.000922153
0.00204245
0.000923584
0.000603056
0.000519632
0.000427848
0.000290417
0.000495069
0.000413245
0.000483864
0.000618239
0.00033186
0.000534017
0.000641957
0.000730902
0.000915336
0.000518317
0.000811509
0.000849358
0.000770113
0.000662913
0.000469892
0.000760889
0.00109234
0.00118925
0.00123111
0.00265948
0.00121418
0.0013735
0.0012628
0.00106052
0.00248865
0.00106791
0.000485052
0.000190167
0.000272775
0.000393555
0.000458238
0.000285766
0.000406909
0.000513105
0.000192211
0.000320145
0.000459373
0.000544153
0.000304334
0.000444221
0.000349282
0.000329352
0.000306408
0.000642396
0.000305526
0.000293326
0.000310481
0.000339929
0.000691649
0.000341881
0.00013638
0.00013556
0.000164742
0.000174533
0.000163724
0.000133092
0.000131515
0.000169698
0.000172525
0.000169339
0.000142678
0.000147401
0.00019756
0.000164507
0.000190825
0.00016684
0.000156503
0.000177503
0.000166542
0.000180316
0.000371845
0.000394781
0.000426376
0.000923763
0.000431466
0.00044756
0.000421472
0.0003834
0.000860369
0.00038005
0.000201016
0.000201424
0.000142158
0.000157058
0.000192302
0.000186519
0.000231911
0.000116108
0.000160108
0.000189159
0.000224432
0.000165489
0.000193342
0.000240633
0.000115529
0.000174927
0.00020664
0.000248868
0.000170485
0.000202169
0.000174099
0.000169897
0.000181906
0.000242726
0.00018043
0.000163579
0.000166513
0.000184737
0.000248736
0.000185085
0.000120312
0.000107942
9.80337e-05
0.000124402
0.000117384
8.44016e-05
0.000103107
0.000136225
0.000138006
0.000122779
0.000123388
0.000130116
0.000154425
0.000170226
0.00015056
0.000134451
0.000131899
0.000139997
0.000165206
0.000147973
0.000178279
0.000183758
0.000202417
0.000296036
0.00020174
0.000195595
0.000188915
0.000191811
0.000279994
0.000192187
7.87361e-05
5.68894e-05
7.97533e-05
0.000182835
5.5675e-05
2.65132e-05
0.000516325
0.000373198
0.000323015
0.000387961
0.000393558
0.000325569
0.0004991
0.000879902
0.00092971
0.000580779
0.00057629
0.000928431
0.000880693
0.000544098
0.000619413
0.000469172
0.000508961
0.000442209
0.000644668
0.000496728
0.000434453
0.000828994
0.000479655
0.000547443
0.000798291
0.000840479
0.000508497
0.000787716
0.000206652
0.000120655
0.000128947
0.000144405
0.000143377
0.000126982
0.000204787
0.000384605
0.000434935
0.000261582
0.000301924
0.000401705
0.000417176
0.000252949
0.000229668
0.000125869
0.000153835
0.000130277
0.000231433
0.000155732
0.000132888
0.000105895
7.22664e-05
6.76988e-05
8.25803e-05
8.67926e-05
6.98061e-05
9.78026e-05
0.000129431
8.74772e-05
0.00010787
9.19227e-05
0.000133078
0.000105495
8.82637e-05
0.000986997
0.000702132
0.0010292
0.00114472
0.000745615
0.0010889
0.00086173
0.000714395
0.000680331
0.000752889
0.000902435
0.000731657
0.000664728
0.00104832
0.000976637
0.000626711
0.000684763
0.000988427
0.00103648
0.000675069
0.000707025
0.000569103
0.000565711
0.000494191
0.000677922
0.000578962
0.000504142
0.000936593
0.000601876
0.000901448
0.000576407
0.000825124
0.000856784
0.000279065
0.000151966
0.000148849
0.000186308
0.000283363
0.000187533
0.000151737
0.000441752
0.000453956
0.000270946
0.000333974
0.00042197
0.000474575
0.000281253
0.0002445
0.000135469
0.000163981
0.000136506
0.000240837
0.000163035
0.000133858
0.00046527
0.00030482
0.000519898
0.00034642
0.000496265
0.000487946
0.000292581
0.000155865
0.00010924
0.00011777
0.000125367
0.000157533
0.000124483
0.000115846
0.000140012
9.63665e-05
0.000110621
9.59808e-05
0.000136948
0.000112879
9.96191e-05
0.00135127
0.00109207
0.000985172
0.00108102
0.00099228
0.00109135
0.00129566
0.000973799
0.00101541
0.00106361
0.00109607
0.000374968
0.000404185
0.000531277
0.000488198
0.000287284
0.000317677
0.0004504
0.000408983
0.000460113
0.000285911
0.0003072
0.000346476
0.00047447
0.00028498
0.00034202
0.000667808
0.000658532
0.000457488
0.000385176
0.000404916
0.000692103
0.000635466
0.000707114
0.000451459
0.000762318
0.000478087
0.000743332
0.000428011
0.000724929
0.000389859
0.000249655
0.000220088
0.000275059
0.00021882
0.000276589
0.000379338
0.000278181
0.000250309
0.000179859
0.00019886
0.000362718
0.000332365
0.000261157
0.000281264
0.000129285
0.000132928
0.000148158
0.000141734
0.000111894
0.000111427
0.00011037
0.000108675
0.000197956
0.000126958
0.000118855
0.000139782
0.000198385
0.00012866
0.000141491
0.000182494
0.000117777
0.000127452
0.000135908
0.000126601
0.000135398
0.000181454
0.000113756
0.000114447
0.000118024
0.000117272
0.000130462
0.000128209
0.000122871
0.000124408
8.47578e-05
9.02023e-05
0.00010596
0.000104177
6.01406e-05
6.35741e-05
8.42074e-05
7.92216e-05
8.21679e-05
6.36011e-05
5.99779e-05
7.69789e-05
9.22069e-05
6.01551e-05
6.93397e-05
0.000205088
0.000409431
0.000280776
0.000376807
0.000252124
0.000237526
0.000374737
0.000134088
8.79438e-05
0.000183074
9.5361e-05
0.000162303
7.77398e-05
0.000155261
0.00017046
0.000188672
0.000338413
0.000293822
0.000218903
0.000134423
0.00033697
5.96486e-05
5.48644e-05
8.03291e-05
7.11941e-05
0.00152761
0.00102475
0.00140483
0.00122006
0.000934533
0.00130105
0.000990167
0.000841933
0.000742023
0.000820819
0.000944845
0.000758336
0.000840859
0.00119845
0.000998323
0.000939204
0.00102516
0.00125032
0.000928065
0.00100823
0.000777568
0.000722708
0.000553125
0.000594125
0.000704217
0.000650606
0.000467762
0.000512322
0.000726276
0.000781328
0.000968142
0.000920768
0.000808126
0.000857287
0.0010426
0.00099422
0.000690431
0.000489325
0.000718275
0.000784679
0.000508584
0.000755091
0.000657073
0.000435261
0.000631075
0.000303221
0.000175157
0.000162791
0.000204629
0.000296741
0.00016024
0.00020443
0.000571627
0.000628512
0.000365897
0.000404398
0.000600555
0.000598398
0.000349058
0.000352932
0.000208511
0.000195812
0.000246439
0.000361062
0.000197927
0.000245924
0.000540756
0.000318432
0.000544348
0.000388243
0.00051502
0.000571158
0.000332839
0.0001871
0.000174391
0.000148193
0.000155939
0.000125372
0.000117324
0.000108365
0.00011111
0.000125039
0.000134864
0.000176605
0.000159564
0.00018956
0.000202847
0.000255
0.000234511
0.00016299
0.000113007
0.000119562
0.000127138
0.000161425
0.000120758
0.000127932
0.00017656
0.000117628
0.000126734
0.000133926
0.000176954
0.000127012
0.00013468
0.000117625
0.000116724
0.000106513
0.000108688
0.000112099
0.000109995
8.78471e-05
9.25774e-05
0.000113441
0.000114691
0.00011882
0.000119111
0.00011737
0.000118813
0.000124049
0.000123446
0.000443102
0.000310282
0.000267886
0.000201078
0.000105591
0.000173679
0.000162409
0.000184076
0.000201386
0.000267866
0.000414478
0.000255921
0.000180409
0.000238303
0.00022256
0.000215047
0.000388958
0.000228375
0.000296318
0.00026007
0.000531284
0.00037842
0.000418155
0.000354098
0.000550571
0.00041029
0.000350241
0.000601964
0.000460911
0.000467239
0.000398669
0.000579408
0.000476295
0.000404574
0.000212066
0.000120861
0.000145167
0.000127631
0.000213042
0.000147065
0.000129828
0.000223426
0.000125725
0.000152185
0.000131293
0.000220809
0.0001511
0.000128865
0.000109982
7.4562e-05
9.59191e-05
7.65121e-05
0.000117327
9.17058e-05
7.32179e-05
0.000126066
8.44304e-05
9.95684e-05
8.05835e-05
0.000121472
0.00010224
8.40631e-05
0.000837047
0.00069883
0.000685066
0.000610456
0.000799629
0.000702651
0.000624492
0.000727906
0.000581141
0.000621134
0.000551864
0.000761081
0.000603859
0.000539703
0.000270849
0.000151565
0.000181125
0.000146503
0.000265885
0.000180464
0.000143797
0.000251703
0.000135701
0.000167153
0.000136786
0.0002546
0.000168838
0.000139642
0.000152192
0.000106406
0.00011995
0.000109929
0.000149998
0.000121526
0.000112429
0.000143636
9.9843e-05
0.000117776
0.000107008
0.000146126
0.000116103
0.000103918
0.00152985
0.00112901
0.00103757
0.00114804
0.00147926
0.00102972
0.00114286
0.00138473
0.00109726
0.00101535
0.0011136
0.00143627
0.00101603
0.00110919
0.00102198
0.00104009
0.000994992
0.000960873
0.000921504
0.000896278
0.00101469
0.000534768
0.000468094
0.000486621
0.000532039
0.000541731
0.000493838
0.000530756
0.000483023
0.00051078
0.000485701
0.000530891
0.000490384
0.00103641
0.00100638
0.000889237
0.000899042
0.000912775
0.000888781
0.000946942
0.000987522
0.000902372
0.000931807
0.000914904
0.00096171
0.00112003
0.00112716
0.00114579
0.00113858
0.00113227
0.00161273
0.00110477
0.00115204
0.00112557
0.00157362
0.0012171
0.00118636
0.0016369
0.00192438
0.00309219
0.00187402
0.00320257
0.00157472
0.0011686
0.00119262
0.00151302
0.00199623
0.00340729
0.00204769
0.00329325
0.00111617
0.00108732
0.00111202
0.00108097
0.0014462
0.00108371
0.00106886
0.0010905
0.00109409
0.00110921
0.00110641
0.00108303
0.00146604
0.00106205
0.00114065
0.00107821
0.0017298
0.00125066
0.00125618
0.00167576
0.00349718
0.00210868
0.000437806
0.000401259
0.000424289
0.000420557
0.00061623
0.000412914
0.000412526
0.000425778
0.00040027
0.000425829
0.000449575
0.00043087
0.000625174
0.000422116
0.000462305
0.000423423
0.000810677
0.00055352
0.000578033
0.000778037
0.00105234
0.00178937
0.00107424
0.00173258
0.000807453
0.000606405
0.00057242
0.000841303
0.00100943
0.0016255
0.000988912
0.00167881
0.000454507
0.000489507
0.000512278
0.000517207
0.000716802
0.000537799
0.000503589
0.000505871
0.000555291
0.000509207
0.000491209
0.000498635
0.000706671
0.000491564
0.000480715
0.000507267
0.000708021
0.000516756
0.000488234
0.000736795
0.000892681
0.00143098
0.000875054
0.00147819
0.000710845
0.000473461
0.000493893
0.000682769
0.000930857
0.00157654
0.000949621
0.00152619
0.000354027
0.00031956
0.000262113
0.000271602
0.000238276
0.000267307
0.000260614
0.000295795
0.000297981
0.000289465
0.000290445
0.000270146
0.000187086
0.00016802
0.000208531
0.000156528
0.000197398
0.000315152
0.000382038
0.000297243
0.000304138
0.000275323
0.00021496
0.000182419
0.000241192
0.000356254
0.000277699
0.000285786
0.000260501
0.000167354
0.00017396
0.000132061
0.000155043
0.000140219
0.000367125
0.000404469
0.000384769
0.000364564
0.000385442
0.00037282
0.000353594
0.000311505
0.000335103
0.000342579
0.000344511
0.000340044
0.000128021
0.000237538
0.000290204
0.000185402
0.00023899
0.000199182
0.000118486
0.000115417
0.000101707
0.000102432
0.000102071
0.000138469
0.000225906
0.000311415
0.000258047
0.000254647
0.000209467
0.000150853
0.000124401
0.000115833
0.000140796
0.000111869
0.000447093
0.000304096
0.000264637
0.000325069
0.00043364
0.000264853
0.000328226
0.000401459
0.000251453
0.000234226
0.000290318
0.000412357
0.000235238
0.000288231
0.000231495
0.000227068
0.000233465
0.00022781
0.000207308
0.000225886
0.000250259
0.000184304
0.000219064
0.000207407
0.000209221
0.00020109
7.19726e-05
0.000113373
0.00010726
7.34808e-05
8.57221e-05
0.000197926
0.000210319
0.000129929
0.000193003
0.000134399
8.63822e-05
8.69039e-05
0.000144019
0.000199281
0.000224467
0.000204492
8.8037e-05
0.000137644
7.12972e-05
9.97476e-05
7.26498e-05
0.000106141
0.00010143
0.000221206
0.000175446
0.000260369
0.000107963
0.000223371
0.000164388
8.41974e-05
9.42862e-05
9.36182e-05
9.7681e-05
9.59586e-05
0.000149363
0.000243024
0.000212796
0.000210006
0.000158075
9.21457e-05
8.01891e-05
9.99779e-05
7.48053e-05
9.50235e-05
0.000220048
0.00019782
0.000168077
0.000181678
0.000146975
0.000167385
0.00015877
0.000176951
0.000182797
0.000193297
0.000182112
0.000162412
0.000311662
0.00033601
0.000356818
0.000362187
0.000378664
0.000548036
0.000387263
0.000356947
0.000357479
0.000356071
0.000349742
0.000357288
0.000539866
0.000349162
0.000335902
0.000360018
0.000547862
0.000382292
0.000362423
0.000569369
0.000697575
0.00109864
0.000683308
0.00113722
0.000549042
0.000352066
0.000366375
0.000527475
0.000727908
0.00121647
0.000742793
0.00117593
0.000302867
0.000277685
0.00030098
0.000305813
0.000474272
0.000298673
0.000298295
0.00030692
0.000284127
0.000301698
0.000321952
0.00030767
0.000482092
0.000304909
0.000327093
0.0003048
0.000624395
0.000407128
0.000424218
0.000599791
0.000823703
0.00138725
0.000840303
0.00134208
0.000622478
0.000443076
0.000647231
0.000419274
0.000789456
0.0012557
0.000773613
0.00129858
0.000137267
0.000133209
0.000147222
0.000155743
0.000237521
0.000155379
0.000153869
0.0001573
0.000143116
0.000149705
0.000161615
0.000155143
0.000242945
0.000157149
0.000154724
0.000158906
0.000297935
0.000193222
0.000198515
0.000287927
0.000390337
0.000601767
0.000398964
0.000579155
0.000299326
0.000205839
0.000199198
0.000309223
0.000375315
0.00053788
0.000367484
0.000558741
0.000136507
0.000141979
0.000159835
0.000166123
0.000267964
0.000173098
0.000167915
0.000168842
0.000167184
0.000157447
0.000165015
0.000166849
0.00026204
0.000164204
0.000151881
0.000167545
0.000269834
0.000188906
0.000184046
0.000277861
0.000334328
0.000464614
0.0003277
0.000482473
0.00026827
0.000178841
0.000182931
0.000260108
0.000346995
0.000519581
0.000354412
0.000499999
0.000111128
0.000111032
0.000122751
0.000132615
0.000122125
0.000120369
0.000121054
0.000119095
0.000118799
0.000134686
0.00012146
0.000120441
0.000135021
0.000168038
0.000132068
0.00017053
0.000130835
0.000174419
0.000163719
0.000135681
0.000179015
0.000137343
0.000128493
0.000136285
0.000173684
0.000138624
0.00017134
0.000108973
0.000109562
0.000114933
0.000133436
0.000114027
0.00011813
0.000114891
0.000117199
0.000119491
0.000130866
0.000116343
0.000115913
0.000143509
0.000182207
0.000145754
0.000179472
0.000141952
0.000175151
0.000139981
0.000177318
0.000193313
0.000118543
0.000128182
0.000139449
0.000192041
0.000126655
0.00013857
0.00018657
0.000118397
0.000127201
0.000136519
0.000186776
0.000128306
0.000137875
0.000122783
0.000123493
0.000135781
0.000124813
0.000124883
0.000115461
0.000114495
0.0001262
0.000134225
0.00012591
0.000124133
0.000125282
0.000150285
0.00017884
0.000179344
0.000150557
0.00015038
0.000181994
0.000150024
0.000180826
0.000147508
0.000182565
0.000146503
0.000182387
0.000147951
0.000182791
0.000149312
0.000182382
0.000116962
0.000117763
0.000127521
0.000134709
0.000127866
0.000126615
0.000127566
0.000127002
0.000126202
0.000136355
0.000127436
0.000127854
0.000125222
0.000127528
0.000143251
0.000147662
0.000153979
0.000222433
0.000146401
0.000149683
0.000152465
0.000140774
0.00014923
0.000148066
0.000217544
0.000146803
0.000137787
0.000150704
0.000226872
0.000167514
0.000165345
0.000231591
0.000271893
0.000350654
0.000267556
0.000362912
0.000225196
0.000161488
0.000163808
0.000220233
0.000280477
0.000389209
0.000285513
0.000375386
0.000126581
0.000125471
0.000136901
0.000142631
0.000201429
0.000145482
0.000141941
0.000146715
0.000134646
0.000139373
0.000149246
0.000142688
0.000205819
0.000144564
0.000141227
0.000148562
0.000244218
0.000168545
0.000171639
0.000237745
0.000310536
0.000448948
0.000316754
0.000432345
0.000245868
0.000176377
0.000252158
0.000173025
0.000300021
0.00040242
0.000294556
0.00041742
9.75781e-05
9.34217e-05
0.000111085
0.000101357
0.000139948
0.000126647
0.000106278
0.000134142
0.000104421
0.000116591
0.000140854
0.000114655
0.000145502
0.000111958
0.000120067
0.000139118
0.000195767
0.000160654
0.000160438
0.000196602
0.000219142
0.000242815
0.000217894
0.000241955
0.000195078
0.000158681
0.000160032
0.000193451
0.000219401
0.000241664
0.000220841
0.000241655
9.93012e-05
0.000102101
0.000126241
0.000122239
0.000157848
0.000142571
0.000122343
0.000143615
0.000126765
0.000123828
0.000141361
0.000118537
0.000155608
0.000119707
0.000121126
0.000142684
0.000198065
0.000162204
0.000161463
0.000197522
0.000225966
0.000250196
0.000225691
0.000247652
0.000198365
0.000153258
0.000159288
0.000195711
0.000223489
0.000243107
0.000222147
0.000244374
6.81823e-05
6.39712e-05
5.80578e-05
5.02328e-05
4.60727e-05
5.84686e-05
4.52285e-05
4.62855e-05
6.30025e-05
5.09383e-05
6.06493e-05
4.44719e-05
5.54563e-05
8.81576e-05
6.76903e-05
7.61175e-05
4.35766e-05
5.32496e-05
3.1847e-05
6.45191e-05
7.0446e-05
7.55253e-05
8.25113e-05
7.11131e-05
6.96381e-05
7.72738e-05
6.24936e-05
4.97476e-05
6.72948e-05
6.50192e-05
7.16645e-05
5.5676e-05
2.08336e-05
3.40909e-05
2.59239e-05
3.30584e-05
1.83077e-05
4.36004e-05
2.27282e-05
3.60621e-05
7.6396e-05
5.44131e-05
4.60204e-05
5.26249e-05
6.86272e-05
5.17503e-05
5.91247e-05
0.000107096
0.000144928
0.000116669
7.01462e-05
0.000110706
0.000103961
8.97325e-05
6.45154e-05
9.64112e-05
0.000157987
0.000134158
0.000126393
0.000113616
0.000162381
0.000143571
0.000124923
0.000318424
0.00014582
9.67806e-05
0.000102864
0.000124358
0.000187482
0.000339779
0.000171812
9.73356e-05
0.000104104
8.81082e-05
4.7743e-05
5.73934e-05
7.11762e-05
8.36741e-05
5.23337e-05
7.70293e-05
9.21542e-05
7.06721e-05
8.10267e-05
5.55267e-05
4.71031e-05
4.77395e-05
5.38721e-05
4.45507e-05
4.30758e-05
5.02942e-05
3.33302e-05
4.21422e-05
3.934e-05
4.61012e-05
3.98448e-05
4.63592e-05
3.53396e-05
2.11153e-05
3.25312e-05
4.04094e-05
2.11564e-05
2.69165e-05
2.62231e-05
2.98828e-05
3.48356e-05
2.92997e-05
3.59026e-05
2.37795e-05
3.20123e-05
2.23349e-05
3.2853e-05
4.40026e-05
3.79696e-05
3.73916e-05
5.21641e-05
6.30349e-05
8.68603e-05
9.35441e-05
0.000117055
0.000109672
9.72302e-05
8.54541e-05
0.000105393
7.25607e-05
6.19939e-05
5.92284e-05
9.57529e-05
7.10382e-05
5.7117e-05
8.6973e-05
6.33435e-05
5.65628e-05
9.63668e-05
0.000258186
8.42101e-05
5.79841e-05
8.82077e-05
6.79131e-05
0.000250295
6.1738e-05
5.48484e-05
5.63688e-05
5.97373e-05
6.07109e-05
0.000151393
6.38528e-05
0.000109755
8.73355e-05
0.000215803
0.00025596
0.000226835
0.000258051
0.000178378
0.000146503
0.000191095
0.000133106
0.000194749
0.000261034
0.000122467
0.000261417
0.000467062
0.000472385
0.000483764
0.000488149
0.000496189
0.000179869
0.000190462
0.000226114
0.000212956
0.000308286
0.00029214
0.000252353
0.000267665
0.000452151
0.000444171
0.000410646
0.000424161
0.000333768
0.000350864
0.000389072
0.000374254
0.00101895
0.000859205
0.000816758
0.000894425
0.00106754
0.000800407
0.000871991
0.00116662
0.00098395
0.000875606
0.000961146
0.00111357
0.000890503
0.000979747
0.000672482
0.000719151
0.000744787
0.000748437
0.000958788
0.000771389
0.000723071
0.000727483
0.000800006
0.000736809
0.000703007
0.000709037
0.000943852
0.000706205
0.000699887
0.000725522
0.000923441
0.000714562
0.000674539
0.000964049
0.00114262
0.00184373
0.00111825
0.00190423
0.0009268
0.000650299
0.000888597
0.000679332
0.00119081
0.00202968
0.00121741
0.00196427
0.000645286
0.000595304
0.000612985
0.000594357
0.000814281
0.000587413
0.000589235
0.000579911
0.00060694
0.000618583
0.000645577
0.000623561
0.000826586
0.000604065
0.000668496
0.000607224
0.00106236
0.000765574
0.000798957
0.00101718
0.00135165
0.00230656
0.00138506
0.00222908
0.00105977
0.000841344
0.000795846
0.00110862
0.00129702
0.00209092
0.00126697
0.00216138
0.000589481
0.000640787
0.000616363
0.000576225
0.000626397
0.000597836
0.000584165
0.000521766
0.00054162
0.000545146
0.000559285
0.000562354
0.000250325
0.000190053
0.000226979
0.000204796
0.000256217
0.000338353
0.000444302
0.000317942
0.000354718
0.000236304
0.000342673
0.000275012
0.000389289
0.000475624
0.000396314
0.000376457
0.000362266
0.00029686
0.000266851
0.000242145
0.000224955
0.000291658
0.0005684
0.000519815
0.000428395
0.000433795
0.000405956
0.000442285
0.000440856
0.000496745
0.000492369
0.00046052
0.000476159
0.000458786
0.000357004
0.000327006
0.000306314
0.000381838
0.000338449
0.000266174
0.000285675
0.000312786
0.000845649
0.000790831
0.000668339
0.000669764
0.000653915
0.000686759
0.000697613
0.000764433
0.000744073
0.000703996
0.000727392
0.000721356
0.00051451
0.000468716
0.000522202
0.000450243
0.000500103
0.000421247
0.000443186
0.000483272
0.000863609
0.000916846
0.000850897
0.000892903
0.000829928
0.000843947
0.00085528
0.000791058
0.000793209
0.000795396
0.000806866
0.000833294
0.000427475
0.000348274
0.000370839
0.000403112
0.000445583
0.000408841
0.000387243
0.000465623
0.00091754
0.000861566
0.000873903
0.000838899
0.00109543
0.00083452
0.000837309
0.000836199
0.000857649
0.000883012
0.000906348
0.000882548
0.00111339
0.000853212
0.000939673
0.000859681
0.00139526
0.00103951
0.00107344
0.00133525
0.00175958
0.00300296
0.00180918
0.0028957
0.00139503
0.00111663
0.0014594
0.0010718
0.00169027
0.00271034
0.00164454
0.00280968
0.000947384
0.000993683
0.00101531
0.00100486
0.00102935
0.00128739
0.00106508
0.000976539
0.000986997
0.00100957
0.000969977
0.000971345
0.00126772
0.000967418
0.000976812
0.000988976
0.00121833
0.000981059
0.000932655
0.00127633
0.00147844
0.00237644
0.00144073
0.00246031
0.00121962
0.000898262
0.00116654
0.00093413
0.00154074
0.00263007
0.0015827
0.00253765
0.000157125
0.000149977
0.000128757
0.000132306
0.000107434
0.000103837
0.000113195
0.000113757
0.000127393
0.000121265
0.000112975
0.000119936
0.000101724
0.00010783
0.000112041
0.000105449
0.000177617
0.000175996
0.00017202
0.000174165
0.000161275
0.000164381
0.000169005
0.000166575
0.00013077
0.000136541
0.000143714
0.000138947
0.000157772
0.000154306
0.000147493
0.000151836
0.000312496
0.000175798
0.000167975
0.000212318
0.000318537
0.000170684
0.000212867
0.000342567
0.000207451
0.000186835
0.000235554
0.000334248
0.000184712
0.000236033
0.00016556
0.000175958
0.000195442
0.000202549
0.000334029
0.000211521
0.000203334
0.000203148
0.000208814
0.000193572
0.000198692
0.000203118
0.000327199
0.000198638
0.000184227
0.000202944
0.000334843
0.000227938
0.000219212
0.000346779
0.000423404
0.000622887
0.000414344
0.000646931
0.000333712
0.000212444
0.000321699
0.000219129
0.000441041
0.00069641
0.000450926
0.000670481
0.000164479
0.000155084
0.00017255
0.000182306
0.00029173
0.000179126
0.000178809
0.000165231
0.000182445
0.000174751
0.000189453
0.000181606
0.000298144
0.000183015
0.000184959
0.000183286
0.000376133
0.000237248
0.000245493
0.000362024
0.000499524
0.000803993
0.000510592
0.000774763
0.00037684
0.000255797
0.00024477
0.000390887
0.000479154
0.0007207
0.000468894
0.000748021
0.00011288
0.000118803
0.000117034
0.000138505
0.000112837
0.000120446
0.000110389
0.000109856
0.000118706
0.00013328
0.000115054
0.000110947
0.000126053
0.000166259
0.000129397
0.000163472
0.000123234
0.000179195
0.000161916
0.000133736
0.000174639
0.000125763
0.000132144
0.000121485
0.000129778
0.000167046
0.000174969
0.000180354
0.000131324
0.000118661
0.000124078
0.000158996
0.000162288
0.000120317
0.000114319
0.000109901
0.000117332
0.00013048
0.000112299
0.000113811
0.000111802
0.000111159
0.000113578
0.000134186
0.000117071
0.00011085
0.000110579
0.00017654
0.000173148
0.000124913
0.000182608
0.000125888
0.000107417
0.000110567
0.00014734
0.000151536
0.000106185
0.000112561
0.000127809
0.000166315
0.000180876
0.000175718
0.000126528
0.000115503
0.000113011
0.000156699
0.000153132
0.000117022
0.000145623
0.000133238
0.000125983
0.000141257
0.000112617
0.000122656
0.000116349
0.00012234
0.000127996
0.000148348
0.000130787
0.000116649
7.96092e-05
0.000115974
7.61042e-05
0.000122212
8.91754e-05
0.000186814
0.000128114
0.000199848
8.70731e-05
0.000193234
0.000125402
8.22611e-05
0.000129749
0.000124285
8.64678e-05
9.03719e-05
0.000122824
0.000188498
0.000189091
0.000183444
0.000124265
9.30639e-05
0.000146832
0.000161089
0.000149138
0.000142812
0.000165824
0.000150575
0.000133022
0.000123929
0.000141691
0.000156614
0.000139315
0.000131334
0.000100971
0.000183884
0.000174587
0.000123364
0.000178296
0.000104105
0.000122982
9.7883e-05
0.000144546
0.000140066
0.000102362
9.50743e-05
0.000132834
0.000138085
9.04273e-05
9.90269e-05
0.000123248
0.000183508
0.000180027
0.000186559
0.000122916
9.58799e-05
0.000216976
0.000200511
0.000221306
0.000230043
0.000368996
0.000224514
0.000224527
0.000209748
0.000229866
0.000222763
0.000240208
0.000229744
0.000376207
0.00022975
0.000239739
0.000229308
0.000483036
0.000306196
0.000318182
0.000464199
0.000642322
0.00106329
0.000656003
0.00102642