/*--------------------------------*- C++ -*----------------------------------*\
| =========                 |                                                 |
| \\      /  F ield         | OpenFOAM: The Open Source CFD Toolbox           |
|  \\    /   O peration     | Version:  2012                                  |
|   \\  /    A nd           | Website:  www.openfoam.com                      |
|    \\/     M anipulation  |                                                 |
\*---------------------------------------------------------------------------*/
FoamFile
{
    version     2.0;
    format      ascii;
    class       pointVectorField;
    location    "0.108/solid";
    object      pointD;
}
// * * * * * * * * * * * * * * * * * * * * * * * * * * * * * * * * * * * * * //

dimensions      [0 1 0 0 0 0 0];


internalField   nonuniform List<vector> 
5097
(
(-4.21922e-06 -6.03276e-08 1.70325e-06)
(-1.93421e-06 4.13234e-07 4.36721e-07)
(-9.02043e-07 6.61722e-07 1.86286e-07)
(-5.70033e-06 -7.40937e-07 -3.48849e-07)
(-2.93921e-06 2.56213e-07 9.38995e-07)
(-1.30282e-06 5.02388e-07 2.39256e-07)
(-4.81034e-06 -3.43861e-07 1.46587e-06)
(1.52954e-08 -1.53691e-06 7.45983e-07)
(-6.05818e-05 -1.10072e-05 7.22751e-06)
(-3.5751e-06 1.26248e-07 1.34174e-06)
(-2.38464e-06 3.48126e-07 6.37668e-07)
(-1.04293e-07 -3.52737e-07 2.22653e-07)
(-2.78627e-05 9.65856e-06 2.52707e-06)
(-1.58094e-06 4.60952e-07 3.10624e-07)
(-1.08416e-06 5.50183e-07 2.16222e-07)
(-8.11144e-08 1.41792e-07 1.00089e-07)
(-1.30268e-05 1.3806e-05 5.93808e-06)
(-2.97491e-07 4.67713e-07 -6.22975e-08)
(-9.45429e-05 -2.26754e-05 1.4218e-06)
(2.2906e-07 -2.78918e-06 4.57574e-07)
(-4.18826e-05 3.10583e-06 4.69744e-06)
(-9.1779e-08 -8.19549e-07 4.43442e-07)
(-1.87437e-05 1.26261e-05 2.12548e-06)
(-1.00177e-07 -6.79397e-08 1.25749e-07)
(-5.06842e-05 -2.74972e-06 6.16527e-06)
(-2.28347e-05 1.14019e-05 2.05416e-06)
(-1.09289e-05 1.17666e-05 1.21092e-05)
(-7.31648e-05 -2.02832e-05 6.40037e-06)
(-3.42241e-05 7.03414e-06 3.42657e-06)
(-1.55424e-05 1.34527e-05 3.10812e-06)
(-6.18284e-08 -1.14301e-06 6.03652e-07)
(-1.03417e-07 -1.93044e-07 1.61856e-07)
(6.84231e-08 2.94654e-07 -1.56027e-08)
(1.53995e-07 -2.04408e-06 7.43504e-07)
(-1.01835e-07 -5.58341e-07 3.14345e-07)
(-9.42444e-08 3.37665e-08 1.09794e-07)
(-3.94628e-05 -6.37615e-06 5.03062e-06)
(-1.51715e-05 4.37257e-06 1.46522e-06)
(-5.494e-06 7.122e-06 4.77526e-06)
(-4.91137e-05 -1.18041e-05 5.07962e-06)
(-1.95288e-05 2.89372e-06 1.99966e-06)
(-7.12912e-06 6.8617e-06 2.43193e-06)
(-8.53672e-05 -1.93364e-05 -1.99701e-06)
(-3.1609e-05 -2.19165e-06 3.97245e-06)
(-1.17598e-05 5.43175e-06 1.26418e-06)
(-3.85162e-06 3.57351e-06 1.10301e-05)
(-6.30141e-05 -1.73263e-05 2.59494e-06)
(-2.49832e-05 7.9663e-07 2.85372e-06)
(-9.13278e-06 6.22723e-06 1.49091e-06)
(-4.51884e-06 -1.85784e-07 1.71808e-06)
(-2.86913e-06 -1.24063e-06 1.99212e-06)
(-4.22636e-05 -5.56559e-06 6.36567e-06)
(-3.90254e-06 4.18939e-08 1.54897e-06)
(-2.14645e-06 3.83415e-07 5.26122e-07)
(-1.38275e-06 -5.61888e-08 6.0231e-07)
(-1.93631e-05 5.63416e-06 2.04261e-06)
(-1.74698e-06 4.38564e-07 3.6627e-07)
(-9.91969e-07 5.86641e-07 2.10025e-07)
(-6.46707e-07 4.70318e-07 2.66666e-07)
(-8.99065e-06 8.20033e-06 3.63578e-06)
(-8.19196e-07 8.55303e-07 7.55735e-08)
(-6.72004e-06 -8.62389e-07 -1.80311e-06)
(-5.1581e-06 -5.34975e-07 7.98193e-07)
(-6.49513e-05 -1.17626e-05 8.35625e-08)
(-4.71266e-06 -2.64224e-06 1.04824e-06)
(-3.25031e-06 1.96754e-07 1.1308e-06)
(-2.6493e-06 3.06083e-07 7.7443e-07)
(-2.91733e-05 2.04564e-06 3.96194e-06)
(-2.05253e-06 -5.04428e-07 1.17665e-06)
(-1.43397e-06 4.81708e-07 2.68104e-07)
(-1.18739e-06 5.24327e-07 2.23264e-07)
(-1.29972e-05 7.3177e-06 1.54601e-06)
(-9.44544e-07 2.14453e-07 3.44013e-07)
(-4.57018e-08 3.28394e-07 5.89048e-07)
(-5.14396e-05 -7.69805e-06 3.85961e-06)
(-3.90143e-05 -4.08894e-06 2.32869e-06)
(-1.89487e-05 8.62143e-06 1.17033e-06)
(-1.18789e-05 3.98371e-06 5.4124e-07)
(-6.82123e-06 1.05613e-05 1.12567e-05)
(-1.99069e-06 5.71881e-06 6.06278e-06)
(-8.10546e-05 -2.73807e-05 2.64358e-06)
(-6.4841e-05 -1.34663e-05 9.8438e-07)
(-3.1804e-05 3.25564e-06 2.00115e-06)
(-2.24093e-05 1.27283e-06 1.07516e-06)
(-1.12623e-05 1.1349e-05 2.46911e-06)
(-5.69676e-06 5.4854e-06 1.24665e-06)
(-5.08138e-05 -1.04852e-05 5.42307e-06)
(-3.39294e-06 -1.80589e-06 1.99744e-06)
(-5.02608e-05 -8.31758e-06 2.44227e-06)
(-3.24475e-08 -1.33029e-06 6.83546e-07)
(7.80857e-08 -1.77099e-06 7.74243e-07)
(-6.42954e-05 -1.66068e-05 4.20335e-06)
(-5.54667e-05 -6.58367e-06 6.81447e-06)
(-6.62963e-05 -1.57792e-05 7.18441e-06)
(-3.53553e-05 -1.12873e-06 5.33075e-06)
(-2.45686e-06 -8.2756e-07 1.59819e-06)
(-2.38061e-05 4.19041e-06 2.82929e-06)
(-1.68745e-06 -2.51349e-07 8.41761e-07)
(-1.64928e-05 2.85275e-06 6.87578e-07)
(-1.04291e-07 -2.67838e-07 1.8882e-07)
(-1.03354e-07 -4.49148e-07 2.64088e-07)
(-2.46154e-05 6.40452e-06 1.40482e-06)
(-2.51587e-05 1.06243e-05 2.23192e-06)
(-3.08797e-05 8.47686e-06 2.92691e-06)
(-1.58011e-05 6.62118e-06 1.59896e-06)
(-1.13906e-06 9.42846e-08 4.41521e-07)
(-1.07795e-05 7.8419e-06 2.07264e-06)
(-7.88593e-07 3.21084e-07 3.00672e-07)
(-3.73353e-06 6.05941e-06 2.63986e-06)
(-5.43212e-08 2.49315e-07 6.63107e-08)
(-8.94117e-08 8.23516e-08 1.06832e-07)
(-8.80874e-06 1.2033e-05 5.23229e-06)
(-1.19346e-05 1.3395e-05 8.52472e-06)
(-1.42062e-05 1.37248e-05 4.20351e-06)
(-7.34631e-06 7.19435e-06 7.70305e-06)
(-2.06105e-07 4.13608e-07 -1.39921e-08)
(-0.000111369 -1.61091e-05 -2.6816e-06)
(-0.000106562 -3.56497e-05 -1.46712e-06)
(-8.21599e-05 -2.32628e-05 4.52538e-06)
(-8.55398e-05 -1.84453e-05 -2.1072e-06)
(1.07155e-07 -3.27358e-06 2.42959e-07)
(2.2e-07 -2.37761e-06 6.39569e-07)
(-4.61552e-05 4.60847e-07 5.43004e-06)
(-4.07134e-05 -1.25135e-06 2.89521e-06)
(-3.78964e-05 5.26806e-06 4.02113e-06)
(-2.98512e-05 -9.58085e-07 1.67938e-06)
(-8.11077e-08 -9.733e-07 5.21331e-07)
(-9.8413e-08 -6.81562e-07 3.74024e-07)
(-2.0672e-05 1.20663e-05 2.00937e-06)
(-1.45778e-05 1.0207e-05 1.41085e-06)
(-1.70456e-05 1.3082e-05 2.46119e-06)
(-8.34287e-06 4.82059e-06 6.76982e-07)
(-1.02077e-07 -1.26836e-07 1.41042e-07)
(-9.75794e-08 -1.50535e-08 1.15543e-07)
(-9.81453e-06 8.56459e-06 1.6502e-05)
(3.8644e-08 2.73419e-07 5.51312e-07)
(-4.39737e-05 -8.96072e-06 5.27187e-06)
(-3.87057e-05 -3.19453e-06 5.96016e-06)
(-4.43354e-05 -6.06421e-06 2.51249e-06)
(-5.75489e-05 -1.18344e-05 4.17987e-06)
(-3.53703e-05 -4.1182e-06 4.54926e-06)
(-1.72212e-05 3.6964e-06 1.69247e-06)
(-1.74813e-05 6.1729e-06 1.77716e-06)
(-1.4038e-05 3.46376e-06 5.83173e-07)
(-2.16103e-05 7.60912e-06 1.23826e-06)
(-1.33574e-05 4.94328e-06 1.3202e-06)
(-6.28894e-06 7.09887e-06 3.34454e-06)
(-8.19703e-06 8.09017e-06 5.14259e-06)
(-2.83315e-06 6.21291e-06 3.93522e-06)
(-7.79842e-06 1.18546e-05 7.74878e-06)
(-4.71641e-06 6.43126e-06 7.17555e-06)
(-4.61836e-05 -8.10736e-06 6.29899e-06)
(-5.52639e-05 -1.4714e-05 4.23372e-06)
(-5.69952e-05 -1.08211e-05 1.97479e-06)
(-7.19645e-05 -2.19062e-05 3.75209e-06)
(-2.14687e-05 4.98242e-06 2.39237e-06)
(-2.21119e-05 1.93788e-06 2.38722e-06)
(-1.92737e-05 2.12997e-06 8.51765e-07)
(-2.80041e-05 4.96919e-06 1.66081e-06)
(-9.84496e-06 8.05753e-06 2.68135e-06)
(-8.06405e-06 6.56097e-06 1.84384e-06)
(-4.65224e-06 5.78552e-06 1.79978e-06)
(-9.94372e-06 1.17744e-05 3.55004e-06)
(-0.000123992 -3.60326e-05 -3.43888e-06)
(-9.85255e-05 -2.02803e-05 -3.05062e-06)
(-7.60707e-05 -8.52006e-06 -3.87419e-06)
(-7.29868e-05 -1.90714e-05 2.85698e-07)
(-4.5844e-05 -4.19308e-06 3.39765e-06)
(-3.42055e-05 -2.39615e-06 2.02222e-06)
(-3.21741e-05 6.08805e-07 4.63548e-06)
(-2.8148e-05 -5.66171e-07 3.39014e-06)
(-1.66169e-05 9.47885e-06 1.21852e-06)
(-9.98897e-06 4.43068e-06 5.68161e-07)
(-1.43226e-05 6.99786e-06 1.51775e-06)
(-1.03587e-05 5.85545e-06 1.31189e-06)
(-5.69638e-06 7.63797e-06 1.54691e-05)
(-1.07905e-06 3.10521e-06 9.51481e-06)
(-6.48749e-06 4.06009e-06 1.18734e-05)
(-5.67853e-05 -1.20406e-05 3.38478e-06)
(-9.23276e-05 -3.23439e-05 8.28989e-07)
(-7.42436e-05 -1.60922e-05 -4.84227e-07)
(-2.63773e-05 3.2245e-06 3.35405e-06)
(-3.60363e-05 1.20472e-06 2.41839e-06)
(-2.59279e-05 2.53165e-07 1.35489e-06)
(-1.18253e-05 7.59503e-06 1.71563e-06)
(-1.28e-05 1.08255e-05 1.79942e-06)
(-6.91863e-06 5.16748e-06 8.90848e-07)
(-2.66267e-06 -1.02088e-06 1.81381e-06)
(-1.25419e-06 2.3803e-08 5.13172e-07)
(-5.58988e-07 6.76676e-07 1.72107e-07)
(-3.09625e-06 -1.49753e-06 2.0789e-06)
(-1.52724e-06 -1.47349e-07 7.11009e-07)
(-7.19208e-07 3.80456e-07 2.9066e-07)
(-6.12387e-06 -3.13053e-06 2.2348e-07)
(-2.25238e-06 -6.56624e-07 1.37984e-06)
(-1.03655e-06 1.57231e-07 3.85482e-07)
(-3.38347e-08 3.06813e-07 5.52972e-07)
(-3.87399e-06 -2.18599e-06 1.66777e-06)
(-1.86325e-06 -3.69975e-07 9.96651e-07)
(-8.62766e-07 2.67941e-07 3.16496e-07)
(-5.01472e-05 -8.18158e-06 3.71609e-06)
(-5.64557e-05 -1.15922e-05 3.89027e-06)
(-1.72786e-05 5.66443e-06 9.82269e-07)
(-1.99566e-05 4.79049e-06 1.09952e-06)
(-5.08377e-06 8.7014e-06 7.29519e-06)
(-6.04416e-06 9.05452e-06 4.93364e-06)
(-7.17717e-05 -1.96721e-05 2.87465e-06)
(-6.35425e-05 -1.5458e-05 3.67419e-06)
(-2.64081e-05 2.52384e-06 1.58252e-06)
(-2.29891e-05 3.75471e-06 1.30065e-06)
(-8.19468e-06 8.50027e-06 2.32229e-06)
(-7.0552e-06 8.86165e-06 3.35615e-06)
(-0.000125883 -3.14676e-05 -3.50656e-06)
(-0.000108955 -3.04565e-05 -2.72402e-06)
(-0.000102925 -3.42177e-05 -5.11614e-07)
(-0.00011774 -2.69615e-05 -5.52014e-07)
(-6.09048e-05 2.55583e-06 -3.00802e-06)
(-6.86804e-05 3.30853e-06 -2.90532e-06)
(-3.14984e-05 2.3521e-06 4.93459e-07)
(-2.75019e-05 2.60136e-06 5.42883e-07)
(-5.78416e-05 -1.44311e-05 3.00404e-06)
(-5.21837e-05 -9.24779e-06 2.96832e-06)
(-4.44382e-05 -5.2556e-06 3.32432e-06)
(-3.92375e-05 -2.77518e-06 2.84887e-06)
(-4.20876e-05 -1.07948e-06 2.4468e-06)
(-4.69485e-05 -4.81143e-06 2.75436e-06)
(-2.0643e-05 2.96709e-06 3.66848e-07)
(-2.38945e-05 2.80905e-06 4.79339e-07)
(-8.92173e-06 3.20008e-06 -2.0733e-08)
(-7.32806e-06 3.19273e-06 -2.07703e-08)
(-2.34508e-05 1.00141e-05 1.15295e-06)
(-2.08155e-05 1.12534e-05 1.09536e-06)
(-1.49241e-05 6.40638e-06 9.57531e-07)
(-1.28649e-05 7.04229e-06 1.04003e-06)
(-1.64118e-05 1.31526e-05 1.29281e-06)
(-1.84784e-05 1.22877e-05 1.12618e-06)
(-4.71294e-06 3.17292e-06 7.08155e-08)
(-5.93079e-06 3.18168e-06 8.39391e-09)
(-6.81871e-07 3.30863e-06 1.36357e-06)
(-2.37592e-09 3.31602e-06 2.11991e-06)
(-9.50804e-06 1.50893e-05 7.34346e-06)
(-8.63411e-06 1.41908e-05 1.10108e-05)
(-4.1259e-06 6.91506e-06 1.07948e-05)
(-7.76642e-06 1.18396e-05 1.56227e-05)
(6.65765e-07 2.72703e-06 3.77216e-06)
(-8.16775e-05 -2.39297e-05 1.38338e-06)
(-9.3958e-05 -2.77616e-05 -6.82671e-07)
(-3.5959e-05 2.09594e-06 2.44642e-07)
(-4.10067e-05 1.88965e-06 -2.89861e-07)
(-6.40579e-05 -2.02402e-05 2.76894e-06)
(-7.11397e-05 -2.63085e-05 2.19865e-06)
(-9.00385e-05 -3.51223e-05 2.88114e-07)
(-7.95837e-05 -3.17767e-05 1.31092e-06)
(-5.3423e-05 2.03294e-06 -2.17727e-06)
(-4.67712e-05 1.83649e-06 -1.13746e-06)
(-3.02414e-05 1.05805e-06 1.9428e-06)
(-3.45123e-05 -6.9069e-07 2.37214e-06)
(-1.07351e-05 3.19906e-06 6.50812e-09)
(-1.27921e-05 3.1835e-06 6.04094e-08)
(-2.64327e-05 8.52908e-06 1.29845e-06)
(-2.97756e-05 6.74691e-06 1.51553e-06)
(-3.76011e-05 2.02543e-06 2.11144e-06)
(-3.34958e-05 4.60529e-06 1.79186e-06)
(-1.77283e-05 3.07674e-06 2.47121e-07)
(-1.51137e-05 3.14556e-06 1.41797e-07)
(-2.58033e-05 1.59376e-05 2.27646e-06)
(-2.18497e-05 1.70734e-05 2.26594e-06)
(-2.36684e-05 1.66019e-05 2.20588e-06)
(-1.6037e-05 1.78673e-05 5.54847e-06)
(-1.73184e-05 1.78686e-05 3.97087e-06)
(-2.02026e-05 1.74334e-05 2.50926e-06)
(-1.8692e-05 1.77066e-05 3.03165e-06)
(-9.52279e-06 8.07367e-06 1.66077e-06)
(-1.10721e-05 7.59228e-06 1.25833e-06)
(-1.29975e-06 3.25321e-06 8.90849e-07)
(-1.96942e-06 3.20742e-06 5.63005e-07)
(-1.04984e-05 1.51801e-05 4.84626e-06)
(-1.16627e-05 1.4912e-05 3.24565e-06)
(-1.46047e-05 1.38747e-05 1.64054e-06)
(-1.30278e-05 1.44611e-05 2.24695e-06)
(-3.65649e-06 3.17093e-06 1.74587e-07)
(-2.74696e-06 3.18072e-06 3.32716e-07)
(-1.48297e-05 1.74999e-05 8.09066e-06)
(-1.37192e-05 1.62629e-05 1.18848e-05)
(-1.261e-05 1.34584e-05 1.67605e-05)
(-5.27589e-05 -9.39129e-06 1.97975e-06)
(-4.95849e-05 -5.50991e-06 1.4257e-06)
(-1.74502e-05 7.26296e-06 4.72274e-07)
(-1.51428e-05 5.55411e-06 1.97934e-07)
(-4.98335e-06 9.80709e-06 1.05062e-05)
(-3.0014e-06 7.58841e-06 8.06391e-06)
(-8.60852e-05 -2.94088e-05 -3.83481e-07)
(-8.27319e-05 -1.87233e-05 -1.04672e-06)
(-3.12129e-05 1.71315e-06 8.49512e-07)
(-2.84776e-05 1.8726e-06 4.75619e-07)
(-9.3687e-06 1.01467e-05 1.93217e-06)
(-7.35384e-06 7.5353e-06 1.38414e-06)
(-1.4325e-06 -9.40534e-07 8.35113e-08)
(-2.85426e-05 -4.76394e-06 2.05906e-06)
(7.37053e-07 -1.72635e-06 7.13916e-07)
(9.13864e-07 -1.98767e-06 7.61517e-07)
(-5.94446e-05 -1.31177e-05 5.47229e-06)
(-6.14127e-05 -1.39757e-05 5.90661e-06)
(-5.79738e-05 -8.73564e-06 7.0583e-06)
(-6.33379e-05 -1.33766e-05 7.27304e-06)
(-6.05962e-05 -6.52712e-06 7.64987e-06)
(-3.21242e-07 -2.40854e-07 1.8659e-08)
(-9.18843e-06 1.44869e-06 6.05284e-07)
(3.57214e-08 -3.80231e-07 2.15345e-07)
(8.25559e-08 -4.87867e-07 2.52963e-07)
(-2.73653e-05 1.13504e-05 2.16142e-06)
(-2.5907e-05 7.93574e-06 2.04833e-06)
(-2.64758e-05 1.01637e-05 2.36638e-06)
(-2.93317e-05 9.09376e-06 2.71446e-06)
(-3.00903e-05 1.16576e-05 2.79264e-06)
(8.58899e-08 2.46268e-08 1.57303e-08)
(-1.82073e-06 3.35419e-06 1.4714e-06)
(-1.37572e-07 1.56112e-07 1.31612e-07)
(-1.33363e-07 9.73247e-08 1.29993e-07)
(-1.28144e-05 1.59513e-05 6.36245e-06)
(-1.07845e-05 1.2948e-05 5.67147e-06)
(-1.24765e-05 1.36884e-05 7.11288e-06)
(-1.35988e-05 1.37978e-05 4.97709e-06)
(-1.53286e-05 1.47107e-05 6.09317e-06)
(-9.18355e-05 -2.72934e-05 2.84043e-06)
(-0.000102363 -2.02574e-05 -5.58961e-07)
(-9.89538e-05 -2.87189e-05 3.68322e-07)
(-9.10617e-05 -1.38929e-05 2.78247e-06)
(-8.78645e-05 -2.34997e-05 3.11487e-06)
(-2.38734e-06 -1.58743e-06 -3.40866e-08)
(-4.8133e-05 -1.02904e-05 -5.09902e-07)
(1.75189e-06 -3.49353e-06 4.24292e-07)
(1.56944e-06 -3.02205e-06 5.94767e-07)
(-4.11246e-05 3.61856e-06 3.82361e-06)
(-4.39859e-05 1.8421e-06 5.05892e-06)
(-4.071e-05 7.41739e-07 3.93091e-06)
(-4.35297e-05 6.13504e-06 4.9987e-06)
(-3.98525e-05 4.23505e-06 4.34993e-06)
(-7.53654e-07 -5.16093e-07 4.66571e-08)
(-1.68653e-05 -7.13455e-07 1.35858e-06)
(3.62424e-07 -1.08012e-06 4.87584e-07)
(2.74342e-07 -9.05175e-07 4.15882e-07)
(-1.83952e-05 1.47908e-05 2.01704e-06)
(-1.96826e-05 1.23591e-05 2.04503e-06)
(-1.64448e-05 1.14043e-05 1.8231e-06)
(-2.11667e-05 1.39861e-05 2.31221e-06)
(-1.7865e-05 1.28652e-05 2.26145e-06)
(-6.30797e-08 -7.55538e-08 1.07645e-08)
(-4.50219e-06 2.58931e-06 4.92129e-07)
(-6.67024e-08 -1.2918e-07 1.43331e-07)
(-9.04799e-08 -6.43293e-08 1.31559e-07)
(-0.000121424 -9.93557e-06 -4.60341e-06)
(-0.00011336 -3.95558e-05 -4.62094e-06)
(-0.000109476 -2.56843e-05 -5.18814e-06)
(-6.39655e-05 -1.14306e-05 1.17622e-06)
(-6.72397e-05 -1.83364e-05 1.7971e-06)
(-5.02785e-05 -5.43039e-06 5.17606e-06)
(-5.17265e-05 9.48055e-07 6.47601e-06)
(-5.30423e-05 -4.59509e-06 6.50635e-06)
(-4.9749e-05 -3.31759e-06 4.8466e-06)
(-4.83899e-05 -1.07762e-06 5.8005e-06)
(-4.08994e-05 -2.88404e-06 1.41992e-06)
(-3.79238e-05 -1.18277e-06 9.542e-07)
(-2.09806e-05 4.02384e-06 2.08982e-07)
(-2.34867e-05 4.95776e-06 5.11626e-07)
(-2.05786e-05 9.9643e-06 1.67816e-06)
(-2.51796e-05 1.30852e-05 2.27785e-06)
(-2.39612e-05 1.10301e-05 2.12639e-06)
(-2.2406e-05 1.33587e-05 1.82476e-06)
(-2.17262e-05 1.17453e-05 2.01467e-06)
(-1.28257e-05 8.92783e-06 8.39852e-07)
(-1.06791e-05 6.67323e-06 5.14216e-07)
(-4.95469e-06 8.2217e-06 3.38697e-06)
(-6.89627e-06 1.09485e-05 4.58011e-06)
(-8.72633e-06 1.11728e-05 1.17942e-05)
(-1.3076e-05 1.24331e-05 1.24527e-05)
(-1.14284e-05 1.27884e-05 1.01979e-05)
(-1.08411e-05 1.3621e-05 1.34442e-05)
(-1.0438e-05 1.03123e-05 1.42811e-05)
(-7.15503e-05 -1.45968e-05 7.21372e-06)
(-7.5811e-05 -2.38241e-05 4.76236e-06)
(-6.95425e-05 -1.81083e-05 6.89632e-06)
(-7.73198e-05 -2.20496e-05 5.60557e-06)
(-7.16844e-05 -2.41816e-05 4.98829e-06)
(-3.62314e-05 9.49581e-06 3.71971e-06)
(-3.25734e-05 5.00195e-06 2.81988e-06)
(-3.25114e-05 7.78734e-06 3.16449e-06)
(-3.60206e-05 6.19077e-06 3.71264e-06)
(-3.36125e-05 8.25997e-06 2.86092e-06)
(-1.79536e-05 1.45586e-05 3.25749e-06)
(-1.3247e-05 1.24172e-05 2.84883e-06)
(-1.48553e-05 1.36033e-05 3.58953e-06)
(-1.62728e-05 1.32774e-05 2.73936e-06)
(-1.5264e-05 1.56989e-05 3.15252e-06)
(1.82238e-06 -4.01078e-06 2.55319e-07)
(-2.21264e-05 -2.45586e-06 1.86137e-06)
(5.88618e-07 -1.48969e-06 6.44174e-07)
(-1.05928e-06 -7.07621e-07 6.88568e-08)
(4.65445e-07 -1.27478e-06 5.65255e-07)
(-6.53689e-06 2.10064e-06 4.62228e-07)
(-4.16306e-09 -2.85686e-07 1.84897e-07)
(-1.75103e-07 -1.4728e-07 1.27339e-08)
(-3.80741e-08 -2.02504e-07 1.61049e-07)
(-7.04091e-07 3.34327e-06 3.323e-06)
(-9.78132e-08 2.56813e-07 9.16153e-08)
(2.18202e-07 1.19619e-07 -2.55796e-08)
(8.30827e-08 4.14673e-07 5.04146e-08)
(-3.67322e-05 -7.53435e-06 1.30041e-06)
(1.11742e-06 -2.28193e-06 7.67089e-07)
(1.34446e-06 -2.6205e-06 7.15001e-07)
(-1.88046e-06 -1.22184e-06 5.82163e-08)
(-1.25885e-05 5.46768e-07 9.06651e-07)
(1.36871e-07 -6.10265e-07 2.98367e-07)
(2.00579e-07 -7.48881e-07 3.5273e-07)
(-5.11192e-07 -3.61509e-07 2.95791e-08)
(-2.97489e-06 2.98696e-06 7.67446e-07)
(-1.2418e-07 4.62778e-08 1.25528e-07)
(-1.09651e-07 -6.45737e-09 1.25692e-07)
(2.17763e-08 -2.03424e-08 1.25376e-08)
(-4.19718e-05 -7.72715e-06 5.28649e-06)
(-4.13303e-05 -6.60762e-06 4.17249e-06)
(-5.14996e-05 -9.19088e-06 5.39326e-06)
(-3.76587e-05 -5.28271e-06 4.89628e-06)
(-1.63083e-05 4.06118e-06 1.60051e-06)
(-1.45191e-05 3.87926e-06 1.16541e-06)
(-1.96572e-05 6.14175e-06 1.58156e-06)
(-1.43654e-05 4.68882e-06 1.40956e-06)
(-5.95198e-06 7.19433e-06 3.99979e-06)
(-4.2451e-06 6.7197e-06 4.47725e-06)
(-7.1602e-06 9.72522e-06 6.5301e-06)
(-5.15591e-06 6.93911e-06 5.81223e-06)
(-4.67922e-05 -1.04728e-05 5.34264e-06)
(-5.24177e-05 -1.34005e-05 4.84727e-06)
(-5.23054e-05 -1.1917e-05 4.01785e-06)
(-6.42208e-05 -1.70481e-05 5.30297e-06)
(-1.84998e-05 3.31656e-06 1.87277e-06)
(-2.09604e-05 2.43154e-06 2.22619e-06)
(-1.92365e-05 2.42546e-06 1.61301e-06)
(-2.53501e-05 4.05205e-06 2.14518e-06)
(-6.77428e-06 7.03878e-06 2.86836e-06)
(-7.66283e-06 6.76015e-06 2.12876e-06)
(-5.94984e-06 6.36624e-06 2.20777e-06)
(-9.19953e-06 9.54581e-06 3.18813e-06)
(-9.29575e-05 -1.90567e-05 -2.6499e-06)
(-0.000111496 -2.76844e-05 -2.69056e-06)
(-9.11022e-05 -2.14253e-05 -1.71205e-06)
(-7.95537e-05 -1.96022e-05 -8.77684e-07)
(-0.000118075 -4.24513e-05 -3.93326e-06)
(-0.000115932 -7.2698e-07 -7.28168e-06)
(-5.1669e-05 1.94143e-06 -1.79107e-07)
(-5.68305e-05 -1.39956e-05 2.04225e-06)
(-3.3713e-05 -3.17537e-06 4.34316e-06)
(-4.11719e-05 -3.18441e-06 4.29064e-06)
(-3.25046e-05 -2.54268e-06 3.31821e-06)
(-3.0079e-05 -1.38706e-06 3.74557e-06)
(-4.51806e-05 -5.04421e-06 1.80177e-06)
(-3.91282e-05 3.49893e-06 -1.25058e-07)
(-1.46747e-05 5.44209e-06 -4.15743e-07)
(-2.10236e-05 8.79264e-06 6.37965e-07)
(-1.26493e-05 5.22155e-06 1.30522e-06)
(-1.52101e-05 7.62826e-06 1.42095e-06)
(-1.08501e-05 4.92797e-06 1.02548e-06)
(-1.11422e-05 5.6814e-06 1.29646e-06)
(-1.60516e-05 1.09844e-05 8.0186e-07)
(-9.83698e-06 5.66029e-06 -2.06925e-07)
(-1.46128e-06 6.26579e-06 3.20676e-06)
(-7.48466e-06 1.35264e-05 8.38036e-06)
(-4.3569e-06 5.62552e-06 8.921e-06)
(-5.15967e-06 5.58208e-06 1.36047e-05)
(-2.51933e-06 3.32491e-06 1.03809e-05)
(-5.15273e-06 3.82894e-06 1.15142e-05)
(-2.07668e-06 1.74649e-06 7.2096e-06)
(-5.5274e-06 9.31149e-06 1.68939e-05)
(4.21111e-07 3.19656e-06 8.76084e-06)
(-5.93389e-05 -1.62314e-05 3.60311e-06)
(-6.822e-05 -1.85057e-05 1.56847e-06)
(-8.24587e-05 -2.50694e-05 2.38826e-06)
(-6.77564e-05 -1.76879e-05 1.68475e-06)
(-6.74177e-05 -4.15948e-08 -1.3709e-06)
(-7.09968e-05 -2.58041e-05 1.15236e-06)
(-9.0214e-05 -3.80647e-05 -1.50954e-06)
(-8.83102e-05 -1.49554e-06 -4.58024e-06)
(-2.37054e-05 1.37637e-06 2.661e-06)
(-2.67439e-05 1.1633e-07 3.17249e-06)
(-3.24859e-05 1.07586e-06 3.07589e-06)
(-2.51869e-05 3.71435e-07 2.35214e-06)
(-2.09627e-05 5.09428e-06 -4.48977e-07)
(-2.73924e-05 5.69388e-06 8.22543e-07)
(-3.54001e-05 1.27939e-06 1.25834e-06)
(-2.90111e-05 4.50019e-06 -3.29275e-07)
(-8.6683e-06 6.43835e-06 1.66511e-06)
(-9.82127e-06 6.08249e-06 1.40493e-06)
(-1.17869e-05 8.7214e-06 1.81117e-06)
(-8.04854e-06 5.71804e-06 1.28203e-06)
(-3.51632e-06 6.0471e-06 1.21299e-06)
(-9.45733e-06 1.35611e-05 3.55074e-06)
(-1.22619e-05 1.25353e-05 1.5543e-06)
(-6.18637e-06 5.8362e-06 2.62006e-07)
(-7.91147e-06 4.21331e-06 1.2129e-05)
(-3.55908e-06 1.97684e-06 7.76565e-06)
(-4.21125e-08 3.16826e-07 5.70225e-07)
(-4.22464e-08 3.4257e-07 6.09066e-07)
(-0.000133522 -3.48528e-05 -3.844e-06)
(-0.00013089 -4.23038e-05 -5.97331e-06)
(-0.000126274 -2.80437e-05 -6.30316e-06)
(-0.000105541 -2.12831e-05 -2.85833e-06)
(-5.63777e-05 -8.26489e-06 1.46376e-06)
(-5.96136e-05 -1.35438e-05 2.05394e-06)
(-5.44253e-05 -9.68702e-06 4.04279e-06)
(-4.61136e-05 -5.94382e-06 4.9027e-06)
(-5.07567e-05 -9.14947e-06 2.00303e-06)
(-4.85835e-05 -5.87482e-06 3.63634e-06)
(-4.65436e-05 -5.86155e-06 1.73188e-06)
(-4.34602e-05 -3.16431e-06 1.22016e-06)
(-4.17638e-05 -5.16573e-06 2.47138e-06)
(-3.67105e-05 -4.4149e-06 3.79916e-06)
(-4.50619e-05 2.79512e-06 -7.8326e-08)
(-3.669e-05 -3.31921e-06 2.20898e-06)
(-1.78736e-05 4.8522e-06 1.69093e-07)
(-2.02769e-05 6.20754e-06 4.50586e-07)
(-2.02391e-05 8.13548e-06 1.18964e-06)
(-1.72929e-05 6.94501e-06 1.44588e-06)
(-1.83715e-05 9.98202e-06 6.66042e-07)
(-1.7745e-05 9.06676e-06 1.17835e-06)
(-1.49781e-05 8.16068e-06 5.93256e-07)
(-1.27555e-05 6.15427e-06 3.0654e-07)
(-1.29672e-05 3.70082e-06 5.6276e-07)
(-1.25652e-05 4.44445e-06 1.05415e-06)
(-1.20922e-05 5.56148e-06 -3.36403e-07)
(-1.09376e-05 4.1888e-06 5.53055e-07)
(-3.95479e-06 8.32895e-06 5.22515e-06)
(-5.92161e-06 1.0901e-05 7.01148e-06)
(-7.31451e-06 1.14007e-05 9.38261e-06)
(-6.22282e-06 8.61718e-06 9.50217e-06)
(-6.6311e-06 1.21462e-05 1.24549e-05)
(-6.32166e-06 9.25919e-06 1.33541e-05)
(-3.76342e-06 6.97629e-06 1.47643e-05)
(-1.8005e-06 4.77394e-06 1.20023e-05)
(-2.38838e-06 6.10965e-06 4.85679e-06)
(-3.40293e-06 6.06266e-06 6.77381e-06)
(-5.61624e-07 5.86068e-06 5.32938e-06)
(-1.64214e-06 4.93105e-06 7.6296e-06)
(-9.83868e-05 -3.49624e-05 -2.40785e-06)
(-9.4875e-05 -2.24338e-05 -3.05925e-06)
(-7.26186e-05 -1.497e-05 3.86645e-07)
(-7.59158e-05 -2.37086e-05 1.03207e-06)
(-7.23107e-05 -2.128e-05 4.27642e-06)
(-7.62949e-05 -2.46526e-05 3.28123e-06)
(-8.63645e-05 -2.99721e-05 1.81571e-06)
(-7.97103e-05 -3.22287e-05 2.47701e-08)
(-5.9228e-05 -1.48547e-05 3.15802e-06)
(-6.09766e-05 -1.23184e-05 1.57949e-06)
(-6.9558e-05 -1.49967e-05 3.32328e-07)
(-7.70425e-05 -9.35718e-07 -2.72974e-06)
(-3.57977e-05 -3.84878e-07 1.11347e-06)
(-3.29416e-05 4.78735e-07 6.94812e-07)
(-2.45031e-05 3.04097e-06 3.12009e-07)
(-2.712e-05 3.47492e-06 6.46287e-07)
(-2.87282e-05 2.69692e-06 2.56629e-06)
(-2.98521e-05 4.14819e-06 1.81983e-06)
(-3.3866e-05 2.27377e-06 2.19978e-06)
(-3.11801e-05 3.68381e-06 1.01469e-06)
(-2.20474e-05 1.48832e-06 1.94694e-06)
(-2.08714e-05 1.66115e-06 9.6968e-07)
(-2.42085e-05 7.15765e-07 1.22455e-06)
(-2.47465e-05 4.83742e-06 -4.07028e-07)
(-1.09629e-05 9.58415e-06 1.26041e-06)
(-8.88598e-06 7.12797e-06 8.55366e-07)
(-6.05828e-06 7.90664e-06 2.18333e-06)
(-8.02377e-06 1.0619e-05 2.97601e-06)
(-1.04011e-05 9.16438e-06 2.3319e-06)
(-1.0578e-05 1.15744e-05 2.94789e-06)
(-1.2003e-05 1.10976e-05 2.09225e-06)
(-1.07433e-05 1.31162e-05 2.32696e-06)
(-6.92299e-06 6.05476e-06 1.63356e-06)
(-5.16721e-06 5.63115e-06 1.50068e-06)
(-6.30064e-06 5.31855e-06 1.05447e-06)
(-4.74155e-06 5.93269e-06 6.5588e-07)
(-4.64577e-05 -9.12181e-06 4.3e-06)
(-4.73923e-05 -7.30102e-06 2.5478e-06)
(-5.37077e-05 -9.70202e-06 2.30031e-06)
(-5.90507e-05 9.72625e-07 -5.56515e-07)
(-2.51729e-05 -3.54023e-06 2.03575e-06)
(-1.23996e-06 -8.16961e-07 7.86703e-08)
(-3.2347e-05 -6.11313e-06 1.84091e-06)
(-1.64794e-06 -1.07353e-06 7.90599e-08)
(-5.74449e-05 -1.29239e-05 5.59653e-06)
(-6.08318e-05 -1.41479e-05 4.23498e-06)
(-6.7989e-05 -1.92023e-05 4.04448e-06)
(-6.35011e-05 -1.95889e-05 1.80209e-06)
(-5.56081e-05 -9.40774e-06 5.67434e-06)
(-5.60615e-05 -2.51363e-06 7.15682e-06)
(-5.44345e-05 -7.86553e-06 5.25022e-06)
(-6.55736e-05 -1.07975e-05 7.75504e-06)
(-6.79703e-05 -1.89482e-05 5.67842e-06)
(-6.50268e-05 -1.87949e-05 5.41471e-06)
(-1.67346e-05 3.21384e-06 1.35252e-06)
(-1.528e-05 3.13033e-06 6.37748e-07)
(-1.79046e-05 2.45764e-06 7.73929e-07)
(-1.76182e-05 5.2909e-06 -4.52247e-07)
(-7.77796e-06 1.80003e-06 5.13857e-07)
(-2.43433e-07 -1.90992e-07 1.51263e-08)
(-1.07857e-05 1.03499e-06 7.35981e-07)
(-4.09259e-07 -2.98139e-07 2.34282e-08)
(-2.23341e-05 5.1877e-06 1.81632e-06)
(-2.30675e-05 7.0312e-06 1.30945e-06)
(-2.62608e-05 5.71646e-06 1.52124e-06)
(-2.40157e-05 7.37856e-06 6.93777e-07)
(-2.30962e-05 9.04594e-06 1.80952e-06)
(-2.7461e-05 1.24348e-05 2.47702e-06)
(-2.4713e-05 1.24813e-05 1.93737e-06)
(-3.30102e-05 1.06943e-05 3.20853e-06)
(-2.90598e-05 6.60371e-06 2.38715e-06)
(-3.03291e-05 9.96034e-06 2.47181e-06)
(-5.08239e-06 6.6318e-06 3.09605e-06)
(-3.29818e-06 6.16086e-06 3.22143e-06)
(-4.19167e-06 5.92533e-06 2.18348e-06)
(-2.45956e-06 6.17655e-06 2.00762e-06)
(-1.23954e-06 3.51194e-06 2.11666e-06)
(1.17953e-07 5.23799e-08 1.26363e-08)
(-2.36694e-06 3.17249e-06 1.04743e-06)
(5.59453e-08 2.6313e-09 1.44217e-08)
(-8.14032e-06 9.81222e-06 4.5196e-06)
(-8.29449e-06 1.20232e-05 6.37166e-06)
(-9.3568e-06 1.19316e-05 4.30162e-06)
(-8.38507e-06 1.37897e-05 5.46479e-06)
(-9.74002e-06 1.26432e-05 8.23835e-06)
(-1.41665e-05 1.41878e-05 8.74209e-06)
(-1.17822e-05 1.54066e-05 9.35661e-06)
(-1.65751e-05 1.47239e-05 4.3445e-06)
(-1.19404e-05 1.27754e-05 3.94725e-06)
(-1.39607e-05 1.59522e-05 4.38556e-06)
(-0.000115894 -2.52867e-05 -2.52727e-06)
(-0.000107149 -1.97453e-05 1.22305e-06)
(-0.000107494 -4.12588e-06 -1.41654e-06)
(-0.000114914 -3.62581e-05 -2.56345e-06)
(-9.54444e-05 -2.75302e-05 -2.03484e-07)
(-0.000103011 -4.19626e-05 -3.07566e-06)
(-9.90474e-05 -3.42734e-05 -2.96617e-07)
(-7.95593e-05 -1.64304e-05 5.6276e-06)
(-8.02688e-05 -2.78202e-05 4.12114e-06)
(-8.58017e-05 -2.76175e-05 2.97684e-06)
(-9.2164e-05 -1.97165e-05 -2.69521e-06)
(-7.83854e-05 -2.00188e-05 -1.84155e-07)
(-0.000101415 -1.46382e-06 -6.44768e-06)
(-7.99164e-05 -1.75597e-05 -1.28359e-06)
(-5.52395e-05 -1.14346e-05 -1.12173e-06)
(-2.65001e-06 -1.80245e-06 -8.20283e-08)
(-4.19334e-05 -8.96057e-06 4.56257e-07)
(-2.12752e-06 -1.39259e-06 1.96433e-08)
(-4.53202e-05 -2.06641e-06 4.56314e-06)
(-4.53119e-05 4.87228e-07 4.34914e-06)
(-4.75393e-05 3.81234e-06 5.73202e-06)
(-4.32224e-05 -2.65953e-06 3.14462e-06)
(-3.6632e-05 -8.64117e-07 3.66072e-06)
(-4.00645e-05 -1.59832e-06 1.53327e-06)
(-3.83199e-05 2.86821e-08 2.64936e-06)
(-3.97458e-05 8.00022e-06 4.32064e-06)
(-3.72158e-05 6.17486e-06 3.31776e-06)
(-3.64575e-05 3.07088e-06 3.33967e-06)
(-3.20937e-05 -1.74157e-06 1.87306e-06)
(-2.86682e-05 -9.59065e-07 2.81779e-06)
(-3.37905e-05 4.06259e-06 -2.26161e-07)
(-2.79421e-05 -4.08234e-07 1.53125e-06)
(-1.93681e-05 -1.51766e-06 1.61795e-06)
(-8.99812e-07 -6.05901e-07 5.75319e-08)
(-1.46108e-05 -3.11905e-08 1.11618e-06)
(-6.25258e-07 -4.34318e-07 3.73893e-08)
(-1.83756e-05 1.07452e-05 1.67196e-06)
(-2.02929e-05 1.41343e-05 1.84133e-06)
(-2.30674e-05 1.35893e-05 2.21635e-06)
(-1.55642e-05 9.85643e-06 1.29377e-06)
(-1.33823e-05 8.21479e-06 1.52916e-06)
(-1.40253e-05 1.18284e-05 1.078e-06)
(-1.36581e-05 1.05281e-05 1.5761e-06)
(-1.94741e-05 1.43068e-05 2.62706e-06)
(-1.67358e-05 1.53035e-05 2.41803e-06)
(-1.47415e-05 1.19573e-05 2.18624e-06)
(-9.1655e-06 4.61117e-06 6.18061e-07)
(-9.35142e-06 5.34721e-06 1.0929e-06)
(-7.8772e-06 5.74885e-06 -1.48691e-08)
(-7.62644e-06 4.98317e-06 7.75278e-07)
(-5.44972e-06 2.36053e-06 4.52953e-07)
(-1.15211e-07 -1.09158e-07 1.1265e-08)
(-3.68125e-06 2.79528e-06 5.91034e-07)
(-1.76653e-08 -4.6117e-08 1.11842e-08)
(-7.64911e-06 8.13823e-06 1.60707e-05)
(-8.56838e-06 6.27647e-06 1.4603e-05)
(-9.79409e-06 1.05088e-05 1.81822e-05)
(-1.19279e-05 8.96782e-06 1.69954e-05)
(-2.77409e-07 1.54672e-06 6.25138e-06)
(3.07158e-07 -1.57108e-07 6.17991e-07)
(-1.66923e-08 2.93735e-07 5.34306e-07)
(-2.82229e-06 1.86113e-06 7.52387e-06)
(-4.33129e-06 2.07094e-06 7.95779e-06)
(-5.3144e-05 -9.8116e-06 3.81557e-06)
(-4.88585e-05 -7.5323e-06 5.20425e-06)
(-3.91037e-05 -5.53542e-06 4.08696e-06)
(-5.29373e-05 -6.87121e-06 1.43573e-06)
(-5.61004e-05 -1.13854e-05 2.02361e-06)
(-4.71564e-05 -6.64631e-06 3.5135e-06)
(-4.39704e-05 -7.90555e-06 4.36284e-06)
(-2.69254e-05 -4.3194e-06 2.07993e-06)
(-5.45155e-05 -1.10306e-05 5.57622e-06)
(-5.84406e-05 -1.16285e-05 5.82966e-06)
(-5.98007e-05 -1.3456e-05 3.8153e-06)
(-6.0116e-05 -9.8441e-06 1.32766e-06)
(-6.3321e-05 -1.58638e-05 1.95099e-06)
(-5.28937e-05 -7.34532e-06 5.44417e-06)
(-2.37149e-05 -3.13905e-06 1.97182e-06)
(-1.8542e-05 5.24289e-06 1.02056e-06)
(-1.84852e-05 6.56254e-06 1.51145e-06)
(-1.35884e-05 4.17933e-06 1.128e-06)
(-1.64787e-05 5.21125e-06 1.61824e-07)
(-1.88191e-05 6.75648e-06 4.4341e-07)
(-1.60325e-05 6.04571e-06 9.49206e-07)
(-1.56761e-05 3.56134e-06 1.28174e-06)
(-8.4977e-06 1.58926e-06 5.60056e-07)
(-2.10075e-05 5.6851e-06 1.69936e-06)
(-2.44612e-05 8.51343e-06 1.91538e-06)
(-2.13892e-05 4.29333e-06 1.17897e-06)
(-1.93956e-05 4.44703e-06 1.66451e-07)
(-2.18328e-05 5.60853e-06 4.64021e-07)
(-2.18022e-05 9.52456e-06 1.7293e-06)
(-7.16773e-06 1.92393e-06 4.87923e-07)
(-5.54462e-06 8.99656e-06 5.9962e-06)
(-6.70747e-06 9.36423e-06 7.86826e-06)
(-3.87397e-06 6.55392e-06 5.45059e-06)
(-3.48598e-06 8.12925e-06 6.49227e-06)
(-5.46162e-06 1.05401e-05 8.62552e-06)
(-4.59058e-06 8.03198e-06 8.88064e-06)
(-4.71298e-06 6.72779e-06 3.72804e-06)
(-1.54815e-06 3.44195e-06 1.77661e-06)
(-7.66602e-06 9.84274e-06 5.43137e-06)
(-1.02537e-05 1.28817e-05 6.83617e-06)
(-6.52217e-06 8.99001e-06 4.05535e-06)
(-4.461e-06 8.31626e-06 4.20351e-06)
(-6.39947e-06 1.09924e-05 5.67137e-06)
(-9.2379e-06 1.21055e-05 9.89794e-06)
(-9.19917e-07 3.51258e-06 2.61008e-06)
(-6.3003e-05 -8.66525e-06 7.75867e-06)
(-6.83929e-05 -1.28098e-05 7.57676e-06)
(-6.73952e-05 -1.75237e-05 3.33205e-06)
(-6.822e-05 -1.91998e-05 4.92269e-06)