/*--------------------------------*- C++ -*----------------------------------*\
| =========                 |                                                 |
| \\      /  F ield         | OpenFOAM: The Open Source CFD Toolbox           |
|  \\    /   O peration     | Version:  2012                                  |
|   \\  /    A nd           | Website:  www.openfoam.com                      |
|    \\/     M anipulation  |                                                 |
\*---------------------------------------------------------------------------*/
FoamFile
{
    version     2.0;
    format      ascii;
    class       volScalarField;
    location    "0.108/solid";
    object      sigmaDiff;
}
// * * * * * * * * * * * * * * * * * * * * * * * * * * * * * * * * * * * * * //

dimensions      [1 -1 -2 0 0 0 0];


internalField   nonuniform List<scalar> 
3125
(
-6.31062e+07
-2.7183e+07
-1.59695e+07
-6.98912e+07
-3.0137e+07
-1.6339e+07
-1.17733e+08
-4.62627e+07
-2.05538e+07
-1.00339e+08
-4.15635e+07
-1.90138e+07
-1.75593e+07
-6.50553e+07
-3.07461e+07
-5.70013e+07
-2.6349e+07
-2.70841e+07
-5.78549e+07
-5.55735e+06
-2.39912e+07
-1.53755e+07
-2.46161e+07
-6.5854e+06
-1.40123e+07
-2.11182e+07
-3.37229e+06
-1.21285e+07
-8.65207e+06
-1.57664e+07
-4.60497e+06
-6.46442e+06
-1.20585e+07
-3.40417e+07
-3.9623e+07
-3.9714e+07
-7.77473e+07
-7.318e+07
-3.21749e+07
-2.74274e+07
-3.78075e+07
-8.26754e+07
-3.26274e+07
-2.86602e+07
-1.73949e+07
-1.9462e+07
-8.42992e+06
-3.35067e+07
-2.72981e+07
-1.59746e+07
-6.56826e+06
-1.81076e+07
-3.1071e+07
-1.6839e+07
-1.55489e+07
-1.02031e+07
-1.19161e+07
-5.74015e+06
-1.69101e+07
-1.22814e+07
-9.24879e+06
-4.75964e+06
-1.07891e+07
-1.27138e+07
-9.53744e+06
-7.14003e+06
-6.40677e+07
-1.27311e+08
-5.48682e+07
-3.14204e+07
-1.5726e+08
-8.7405e+07
-7.21444e+07
-1.14477e+07
-9.01659e+06
-1.68982e+07
-5.14056e+07
-2.27269e+07
-4.54617e+07
-2.59147e+07
-1.14639e+07
-5.13562e+07
-8.27711e+06
-8.66158e+06
-5.52121e+07
-6.76011e+07
-2.8484e+07
-2.2527e+07
-9.22232e+06
-9.35359e+06
-5.69332e+06
-2.24142e+07
-1.26736e+07
-1.65702e+07
-1.36648e+07
-5.93991e+06
-1.86504e+07
-9.07617e+06
-9.35723e+06
-1.64773e+07
-2.08061e+07
-1.14084e+07
-1.2182e+07
-4.6528e+06
-2.29961e+06
-3.33569e+06
-2.08048e+07
-5.63336e+06
-1.43803e+07
-2.0896e+06
-1.2487e+07
-6.40077e+07
-5.64712e+07
-4.22238e+07
-4.11066e+07
-8.74618e+07
-5.66526e+07
-1.09021e+08
-5.39121e+07
-4.09955e+07
-9.42985e+07
-9.30312e+07
-1.12612e+08
-1.31755e+07
-1.9439e+07
-2.91123e+07
-2.18804e+07
-1.4715e+08
-1.20065e+08
-2.40938e+07
-2.7486e+07
-2.30785e+07
-2.02677e+07
-8.42641e+06
-3.7312e+07
-2.17003e+07
-4.01301e+07
-1.12566e+07
-1.89513e+07
-3.53401e+07
-3.07721e+07
-3.85916e+07
-9.1421e+06
-8.82042e+06
-8.29502e+06
-8.66765e+06
-5.15088e+07
-4.15405e+07
-1.03457e+07
-1.40642e+07
-1.52148e+07
-1.0104e+07
-1.02798e+07
-1.36747e+07
-1.24101e+07
-6.26277e+06
-8.57495e+06
-9.99877e+06
-9.04458e+06
-5.76442e+06
-1.77973e+07
-1.23365e+07
-1.48702e+07
-6.01783e+06
-1.12328e+07
-1.3571e+07
-1.13381e+07
-1.18807e+07
-5.57657e+06
-7.62802e+06
-8.91787e+06
-8.07017e+06
-1.52637e+07
-1.25079e+07
-5.18904e+06
-1.86116e+06
-2.2677e+07
-6.24901e+06
-1.23986e+06
-7.35079e+06
-2.18767e+07
-9.8183e+06
-1.94716e+07
-2.33863e+07
-1.07168e+07
-3.92873e+07
-2.1125e+07
-2.20145e+07
-3.19559e+07
-3.27517e+07
-2.30781e+07
-3.71434e+07
-4.13609e+07
-2.19972e+07
-3.64378e+07
-2.62571e+07
-4.37734e+07
-3.55502e+07
-2.47176e+07
-1.59618e+07
-5.88105e+06
-9.54896e+06
-1.27757e+07
-1.32146e+07
-9.83934e+06
-1.5172e+07
-1.69096e+07
-5.85487e+06
-1.48581e+07
-1.07265e+07
-1.78534e+07
-1.43549e+07
-1.02816e+07
-8.54266e+06
-3.69729e+06
-4.63075e+06
-6.54593e+06
-7.22875e+06
-5.12489e+06
-7.72709e+06
-9.08171e+06
-3.94252e+06
-7.86694e+06
-6.13033e+06
-9.38863e+06
-7.61644e+06
-5.63554e+06
-5.19405e+07
-3.3883e+07
-3.89393e+07
-4.81544e+07
-5.54922e+07
-4.54965e+07
-3.54487e+07
-4.89707e+07
-3.2593e+07
-3.96787e+07
-2.89452e+07
-4.6144e+07
-4.09967e+07
-3.16995e+07
-2.12049e+07
-7.41608e+06
-1.32743e+07
-1.87918e+07
-2.24615e+07
-1.81751e+07
-1.26382e+07
-2.00158e+07
-7.43368e+06
-1.6151e+07
-1.13428e+07
-1.8917e+07
-1.67142e+07
-1.18956e+07
-1.03067e+07
-5.37371e+06
-7.82503e+06
-8.76078e+06
-1.05131e+07
-8.60651e+06
-7.46909e+06
-9.94302e+06
-5.28913e+06
-8.14377e+06
-6.61705e+06
-9.72792e+06
-8.33147e+06
-7.07398e+06
-1.03469e+08
-5.83199e+07
-7.19933e+07
-8.65323e+07
-9.40337e+07
-5.80864e+07
-6.18597e+07
-7.48772e+07
-6.68506e+07
-7.94597e+07
-8.591e+07
-5.02329e+07
-3.37558e+07
-5.01479e+07
-5.52868e+07
-3.58479e+07
-5.88215e+07
-4.59097e+07
-4.86112e+07
-7.97048e+07
-6.68782e+07
-1.68261e+08
-6.91595e+07
-7.05322e+07
-7.66748e+07
-1.78893e+08
-7.46311e+07
-3.03351e+07
-3.16955e+07
-3.37513e+07
-8.20159e+07
-3.43718e+07
-3.54074e+07
-3.37972e+07
-3.09396e+07
-7.69733e+07
-3.03448e+07
-1.32244e+07
-1.53031e+07
-1.95652e+07
-1.02886e+07
-1.70113e+07
-1.97092e+07
-1.67682e+07
-1.41641e+07
-9.43584e+06
-1.54271e+07
-3.33269e+07
-2.06632e+07
-1.40596e+07
-2.9449e+07
-3.52606e+07
-1.97315e+07
-2.86941e+07
-3.15927e+07
-1.36131e+07
-1.76721e+07
-2.56906e+07
-1.85261e+07
-2.64239e+07
-2.98381e+07
-1.20209e+07
-1.08162e+07
-8.31543e+06
-1.09761e+07
-1.14974e+07
-1.3028e+07
-8.48146e+06
-1.23594e+07
-9.2527e+06
-9.94779e+06
-2.84725e+07
-2.71987e+07
-2.49347e+07
-5.9136e+07
-2.45732e+07
-2.43137e+07
-2.55424e+07
-2.73255e+07
-6.32442e+07
-2.78045e+07
-1.19238e+07
-1.26774e+07
-1.40494e+07
-2.63578e+07
-1.40849e+07
-1.42957e+07
-1.34471e+07
-1.25595e+07
-2.4363e+07
-1.25383e+07
-6.95061e+06
-6.74079e+06
-8.00993e+06
-9.25602e+06
-8.23228e+06
-6.48266e+06
-6.78362e+06
-8.26854e+06
-9.29375e+06
-8.1308e+06
-1.37138e+07
-9.31787e+06
-5.78577e+06
-1.17764e+07
-1.43336e+07
-9.16423e+06
-1.14191e+07
-1.2988e+07
-5.90475e+06
-8.89813e+06
-1.03231e+07
-9.03349e+06
-1.05676e+07
-1.25494e+07
-6.91907e+06
-7.05078e+06
-9.20832e+06
-8.12111e+06
-8.16928e+06
-8.18159e+06
-9.30228e+06
-8.25149e+06
-7.03387e+06
-7.01855e+06
-1.12446e+07
-1.06004e+07
-1.00898e+07
-1.77801e+07
-1.00496e+07
-9.50259e+06
-9.99556e+06
-1.12064e+07
-1.92432e+07
-1.12274e+07
-6.44523e+06
-7.54906e+06
-8.87391e+06
-1.16017e+07
-8.89363e+06
-7.90878e+06
-7.7311e+06
-8.52304e+06
-1.18768e+07
-8.80601e+06
-2.5575e+06
-2.63428e+06
-4.7119e+06
-3.65819e+06
-3.57479e+06
-4.03988e+06
-2.89583e+06
-2.86639e+06
-2.76003e+06
-3.31052e+06
-5.70048e+06
-4.11642e+06
-2.35554e+06
-5.87623e+06
-7.27378e+06
-3.35381e+06
-4.46849e+06
-6.53206e+06
-4.09152e+06
-3.32644e+06
-8.65618e+06
-6.39032e+06
-1.49762e+07
-4.05935e+06
-1.8096e+07
-5.87495e+06
-2.28529e+06
-2.95292e+06
-3.84234e+06
-2.53614e+06
-1.68735e+06
-2.99949e+06
-2.29346e+06
-2.76066e+06
-1.8133e+06
-2.17851e+06
-1.77645e+06
-6.0348e+06
-3.68503e+06
-1.44161e+07
-3.47897e+06
-3.37588e+06
-7.74983e+06
-1.22034e+07
-5.1158e+06
-6.47127e+07
-4.71648e+07
-4.32862e+07
-5.38495e+07
-5.97577e+07
-4.73983e+07
-5.73662e+07
-7.10191e+07
-4.85293e+07
-5.68232e+07
-6.79392e+07
-7.77064e+07
-5.22384e+07
-6.38226e+07
-4.85247e+07
-4.3885e+07
-3.82564e+07
-9.91361e+07
-3.79089e+07
-3.78429e+07
-4.08359e+07
-4.37075e+07
-1.05542e+08
-4.30902e+07
-3.13315e+07
-2.69985e+07
-2.14372e+07
-1.50208e+07
-2.5111e+07
-2.13906e+07
-2.51168e+07
-3.17456e+07
-1.72371e+07
-2.72416e+07
-3.33307e+07
-3.79323e+07
-4.71554e+07
-2.67286e+07
-4.19107e+07
-4.40803e+07
-3.99334e+07
-3.41314e+07
-2.4281e+07
-3.92348e+07
-5.19197e+07
-5.74458e+07
-6.02946e+07
-1.37264e+08
-5.82214e+07
-6.70652e+07
-6.10382e+07
-4.99219e+07
-1.28455e+08
-5.14489e+07
-2.52018e+07
-9.64429e+06
-1.41295e+07
-2.04354e+07
-2.37831e+07
-1.4841e+07
-2.11005e+07
-2.66596e+07
-9.69265e+06
-1.65909e+07
-2.36432e+07
-2.82432e+07
-1.58084e+07
-2.29411e+07
-1.81389e+07
-1.71126e+07
-1.58113e+07
-3.32125e+07
-1.57477e+07
-1.51724e+07
-1.61135e+07
-1.7642e+07
-3.58185e+07
-1.775e+07
-6.84557e+06
-6.69776e+06
-8.19286e+06
-9.06119e+06
-8.00978e+06
-6.60656e+06
-6.39654e+06
-8.42208e+06
-8.9381e+06
-8.35486e+06
-7.25877e+06
-7.63107e+06
-1.02648e+07
-8.39032e+06
-9.83685e+06
-8.62857e+06
-8.12459e+06
-8.92887e+06
-8.52941e+06
-9.23002e+06
-1.92771e+07
-2.03838e+07
-2.20492e+07
-4.79896e+07
-2.23029e+07
-2.2848e+07
-2.16778e+07
-1.99115e+07
-4.46784e+07
-1.97414e+07
-1.01916e+07
-1.02189e+07
-7.22496e+06
-7.96302e+06
-9.73419e+06
-9.43495e+06
-1.11531e+07
-5.97417e+06
-8.11614e+06
-9.06102e+06
-1.0936e+07
-8.37296e+06
-9.17694e+06
-1.16534e+07
-5.94416e+06
-8.75563e+06
-9.69004e+06
-1.1941e+07
-8.57582e+06
-9.568e+06
-8.35457e+06
-8.2385e+06
-8.85357e+06
-1.13443e+07
-8.84474e+06
-8.01804e+06
-8.12889e+06
-8.90706e+06
-1.15328e+07
-8.87195e+06
-6.22849e+06
-5.59735e+06
-5.07671e+06
-6.38906e+06
-6.09944e+06
-4.38156e+06
-5.35125e+06
-7.07412e+06
-7.062e+06
-6.37943e+06
-6.38753e+06
-6.74111e+06
-8.0241e+06
-8.69991e+06
-7.82209e+06
-6.98047e+06
-6.83697e+06
-7.27067e+06
-8.43142e+06
-7.6858e+06
-8.4856e+06
-8.57955e+06
-9.22102e+06
-1.42204e+07
-9.25616e+06
-8.9729e+06
-8.80521e+06
-8.98716e+06
-1.32654e+07
-9.03736e+06
-4.04997e+06
-2.944e+06
-4.14251e+06
-9.28915e+06
-2.89083e+06
-1.37634e+06
-2.45249e+07
-1.90343e+07
-1.62321e+07
-1.89687e+07
-1.93019e+07
-1.65001e+07
-2.41525e+07
-4.50935e+07
-4.77913e+07
-2.8198e+07
-2.9491e+07
-4.73132e+07
-4.54751e+07
-2.68596e+07
-2.87549e+07
-2.42783e+07
-2.59152e+07
-2.28961e+07
-3.0174e+07
-2.50899e+07
-2.238e+07
-4.26997e+07
-2.43564e+07
-2.8228e+07
-4.14258e+07
-4.35233e+07
-2.55249e+07
-4.07106e+07
-1.00704e+07
-5.65585e+06
-6.22256e+06
-6.73304e+06
-6.74868e+06
-6.13797e+06
-9.8576e+06
-1.92363e+07
-2.17589e+07
-1.2912e+07
-1.48555e+07
-2.01706e+07
-2.0785e+07
-1.24246e+07
-1.1566e+07
-6.2203e+06
-7.68199e+06
-6.19375e+06
-1.17202e+07
-7.76009e+06
-6.37011e+06
-5.28109e+06
-3.44131e+06
-3.43975e+06
-4.0529e+06
-4.14091e+06
-3.43506e+06
-4.96972e+06
-6.37788e+06
-4.41859e+06
-5.47551e+06
-4.69237e+06
-6.53364e+06
-5.31353e+06
-4.4396e+06
-5.1078e+07
-3.56935e+07
-5.30928e+07
-5.84199e+07
-3.74569e+07
-5.58723e+07
-4.20832e+07
-3.70915e+07
-3.5295e+07
-3.9049e+07
-4.45203e+07
-3.78682e+07
-3.45341e+07
-5.2622e+07
-4.99498e+07
-2.98133e+07
-3.36959e+07
-5.0005e+07
-5.26279e+07
-3.16431e+07
-3.35033e+07
-2.955e+07
-2.88615e+07
-2.55857e+07
-3.18678e+07
-2.96658e+07
-2.61696e+07
-4.86006e+07
-3.12149e+07
-4.68242e+07
-2.99473e+07
-4.28553e+07
-4.45179e+07
-1.44808e+07
-7.89114e+06
-7.71311e+06
-9.67709e+06
-1.47215e+07
-9.74443e+06
-7.85893e+06
-2.2466e+07
-2.28778e+07
-1.34836e+07
-1.66181e+07
-2.13782e+07
-2.40225e+07
-1.41038e+07
-1.25384e+07
-6.9642e+06
-8.35794e+06
-6.72045e+06
-1.22623e+07
-8.35405e+06
-6.63554e+06
-2.38222e+07
-1.5538e+07
-2.6578e+07
-1.73463e+07
-2.52681e+07
-2.5062e+07
-1.48073e+07
-7.75942e+06
-5.65566e+06
-6.11116e+06
-6.44428e+06
-7.79244e+06
-6.39555e+06
-6.00384e+06
-6.92589e+06
-4.94615e+06
-5.60963e+06
-4.90272e+06
-6.75996e+06
-5.76581e+06
-5.13491e+06
-6.78854e+07
-5.65871e+07
-5.10333e+07
-5.61444e+07
-5.13457e+07
-5.66713e+07
-6.49963e+07
-4.93301e+07
-5.16736e+07
-5.51537e+07
-5.68881e+07
-1.88935e+07
-2.03808e+07
-2.73949e+07
-2.51093e+07
-1.48979e+07
-1.64747e+07
-2.33668e+07
-2.1219e+07
-2.26321e+07
-1.43582e+07
-1.54529e+07
-1.68328e+07
-2.30048e+07
-1.41418e+07
-1.65019e+07
-3.46973e+07
-3.41641e+07
-2.37416e+07
-2.00106e+07
-2.10002e+07
-3.59464e+07
-3.3018e+07
-3.67048e+07
-2.31631e+07
-3.95997e+07
-2.48409e+07
-3.85269e+07
-2.20962e+07
-3.7668e+07
-1.97042e+07
-1.23376e+07
-1.0993e+07
-1.35511e+07
-1.0893e+07
-1.34364e+07
-1.93507e+07
-1.43656e+07
-1.29138e+07
-9.16084e+06
-1.00835e+07
-1.80998e+07
-1.64628e+07
-1.27964e+07
-1.36537e+07
-6.13325e+06
-6.48036e+06
-7.6065e+06
-7.18712e+06
-5.62652e+06
-5.50448e+06
-5.26106e+06
-5.1738e+06
-9.48059e+06
-6.28494e+06
-5.75625e+06
-6.50722e+06
-9.43595e+06
-6.3861e+06
-6.74082e+06
-8.69284e+06
-5.91656e+06
-6.51545e+06
-6.72262e+06
-6.48018e+06
-6.69126e+06
-8.66972e+06
-5.73371e+06
-5.84489e+06
-6.12012e+06
-6.0607e+06
-6.10635e+06
-6.03782e+06
-6.02803e+06
-6.0208e+06
-3.99617e+06
-4.19824e+06
-5.35174e+06
-5.25822e+06
-3.07644e+06
-3.17383e+06
-4.30553e+06
-4.01814e+06
-4.26811e+06
-3.27599e+06
-3.09006e+06
-3.85134e+06
-4.72949e+06
-3.12545e+06
-3.57729e+06
-1.06555e+07
-2.09576e+07
-1.44323e+07
-1.89007e+07
-1.29048e+07
-1.23261e+07
-1.90742e+07
-6.8695e+06
-4.55215e+06
-9.51148e+06
-4.89618e+06
-8.42449e+06
-3.90204e+06
-7.95019e+06
-8.84604e+06
-9.37476e+06
-1.68305e+07
-1.47567e+07
-1.10779e+07
-6.8909e+06
-1.70294e+07
-3.08971e+06
-2.84875e+06
-3.90793e+06
-3.58405e+06
-7.7295e+07
-5.05462e+07
-7.08542e+07
-6.18598e+07
-4.57716e+07
-6.56768e+07
-4.91914e+07
-4.36537e+07
-3.85186e+07
-4.25658e+07
-4.66378e+07
-3.92921e+07
-4.36446e+07
-6.0068e+07
-5.16652e+07
-4.855e+07
-5.32601e+07
-6.27789e+07
-4.80616e+07
-5.23721e+07
-4.04023e+07
-3.7553e+07
-2.86315e+07
-3.07614e+07
-3.60542e+07
-3.32662e+07
-2.41879e+07
-2.65036e+07
-3.69659e+07
-3.98597e+07
-4.91976e+07
-4.66254e+07
-4.19676e+07
-4.45261e+07
-5.40832e+07
-5.15646e+07
-3.55848e+07
-2.51961e+07
-3.70825e+07
-4.06899e+07
-2.62937e+07
-3.91078e+07
-3.37077e+07
-2.20749e+07
-3.23107e+07
-1.57427e+07
-8.95667e+06
-8.45794e+06
-1.0586e+07
-1.54191e+07
-8.31931e+06
-1.05328e+07
-2.96411e+07
-3.25499e+07
-1.90041e+07
-2.07552e+07
-3.11776e+07
-3.09197e+07
-1.80937e+07
-1.81561e+07
-1.03902e+07
-9.90727e+06
-1.22641e+07
-1.84579e+07
-1.00184e+07
-1.23318e+07
-2.79655e+07
-1.63533e+07
-2.79505e+07
-1.9813e+07
-2.65753e+07
-2.94229e+07
-1.71792e+07
-9.62248e+06
-9.02561e+06
-7.65022e+06
-8.09428e+06
-6.51282e+06
-6.06448e+06
-5.21172e+06
-5.50649e+06
-6.49713e+06
-6.97868e+06
-8.95269e+06
-8.12883e+06
-9.69024e+06
-1.02496e+07
-1.25096e+07
-1.15641e+07
-8.03406e+06
-5.8297e+06
-6.18902e+06
-6.49259e+06
-7.97748e+06
-6.26016e+06
-6.54325e+06
-8.58912e+06
-6.02643e+06
-6.53342e+06
-6.73433e+06
-8.46773e+06
-6.54361e+06
-6.79704e+06
-5.99887e+06
-5.98654e+06
-5.41363e+06
-5.52356e+06
-5.82476e+06
-5.71529e+06
-4.53225e+06
-4.78682e+06
-5.89439e+06
-5.9591e+06
-6.16142e+06
-6.18655e+06
-5.98565e+06
-6.02465e+06
-6.11463e+06
-6.18928e+06
-2.27867e+07
-1.60292e+07
-1.38758e+07
-1.04466e+07
-5.44665e+06
-8.9031e+06
-8.14426e+06
-9.18116e+06
-1.00069e+07
-1.37367e+07
-2.14516e+07
-1.31852e+07
-9.0781e+06
-1.17976e+07
-1.10173e+07
-1.11433e+07
-2.00161e+07
-1.17846e+07
-1.51963e+07
-1.28635e+07
-2.52557e+07
-1.93709e+07
-2.08348e+07
-1.81176e+07
-2.57949e+07
-2.02297e+07
-1.77483e+07
-2.78303e+07
-2.37994e+07
-2.33894e+07
-2.04115e+07
-2.71723e+07
-2.39767e+07
-2.08423e+07
-1.0398e+07
-5.67375e+06
-6.86484e+06
-6.03168e+06
-1.04827e+07
-7.01921e+06
-6.20291e+06
-1.12111e+07
-6.19796e+06
-7.4494e+06
-6.14059e+06
-1.09623e+07
-7.46122e+06
-6.08201e+06
-5.4558e+06
-3.46736e+06
-4.65006e+06
-3.6713e+06
-5.75494e+06
-4.40333e+06
-3.53052e+06
-6.18323e+06
-4.18322e+06
-4.88946e+06
-3.90189e+06
-5.96925e+06
-5.1003e+06
-4.18819e+06
-4.08207e+07
-3.63034e+07
-3.53466e+07
-3.17182e+07
-3.86347e+07
-3.634e+07
-3.24389e+07
-3.45915e+07
-3.01923e+07
-3.20351e+07
-2.86754e+07
-3.66913e+07
-3.09978e+07
-2.80116e+07
-1.40486e+07
-7.87254e+06
-9.4011e+06
-7.52033e+06
-1.37469e+07
-9.37617e+06
-7.40699e+06
-1.29292e+07
-6.98469e+06
-8.61824e+06
-6.88268e+06
-1.3132e+07
-8.68381e+06
-7.02883e+06
-7.55174e+06
-5.49711e+06
-6.13723e+06
-5.68391e+06
-7.44469e+06
-6.2376e+06
-5.82884e+06
-7.1437e+06
-5.15343e+06
-6.05209e+06
-5.54354e+06
-7.24043e+06
-5.95109e+06
-5.36446e+06
-7.67253e+07
-5.86575e+07
-5.38739e+07
-5.94894e+07
-7.41564e+07
-5.34738e+07
-5.90971e+07
-6.95495e+07
-5.68867e+07
-5.26273e+07
-5.77778e+07
-7.20157e+07
-5.26809e+07
-5.75774e+07
-5.22172e+07
-5.34285e+07
-5.15623e+07
-4.99102e+07
-4.67318e+07
-4.54664e+07
-5.26618e+07
-2.51629e+07
-2.29455e+07
-2.37829e+07
-2.47732e+07
-2.53932e+07
-2.45379e+07
-2.53858e+07
-2.40792e+07
-2.48114e+07
-2.47216e+07
-2.51923e+07
-2.48039e+07
-5.29451e+07
-5.11587e+07
-4.48311e+07
-4.66848e+07
-4.70907e+07
-4.46447e+07
-4.89267e+07
-5.1132e+07
-4.54851e+07
-4.83837e+07
-4.61954e+07
-4.97133e+07
-5.81901e+07
-5.85642e+07
-5.94404e+07
-5.90936e+07
-5.85287e+07
-7.97513e+07
-5.70756e+07
-5.98413e+07
-5.82579e+07
-7.70258e+07
-6.24245e+07
-6.08597e+07
-8.06533e+07
-9.69995e+07
-1.60665e+08
-9.39882e+07
-1.66407e+08
-7.73374e+07
-6.0155e+07
-6.1295e+07
-7.37207e+07
-1.0048e+08
-1.77048e+08
-1.03599e+08
-1.71119e+08
-5.79738e+07
-5.64494e+07
-5.77811e+07
-5.60637e+07
-7.10988e+07
-5.63111e+07
-5.54702e+07
-5.66492e+07
-5.68334e+07
-5.76332e+07
-5.74397e+07
-5.61592e+07
-7.21603e+07
-5.50705e+07
-5.92605e+07
-5.60015e+07
-8.50878e+07
-6.39618e+07
-6.39352e+07
-8.20075e+07
-1.81718e+08
-1.0656e+08
-2.22766e+07
-2.03137e+07
-2.12016e+07
-2.02321e+07
-2.99162e+07
-2.04714e+07
-1.99932e+07
-2.10948e+07
-2.00124e+07
-2.12856e+07
-2.25206e+07
-2.12471e+07
-3.04093e+07
-2.04734e+07
-2.32877e+07
-2.10304e+07
-3.85745e+07
-2.7082e+07
-2.83786e+07
-3.71381e+07
-5.31383e+07
-9.29765e+07
-5.41719e+07
-9.00225e+07
-3.84698e+07
-3.00174e+07
-2.81124e+07
-3.98997e+07
-5.10533e+07
-8.44485e+07
-5.01101e+07
-8.72275e+07
-2.32919e+07
-2.51034e+07
-2.61263e+07
-2.61292e+07
-3.3902e+07
-2.74645e+07
-2.51333e+07
-2.56966e+07
-2.84424e+07
-2.59501e+07
-2.48823e+07
-2.46347e+07
-3.33456e+07
-2.44979e+07
-2.44978e+07
-2.57122e+07
-3.44339e+07
-2.50053e+07
-2.34077e+07
-3.55942e+07
-4.55203e+07
-7.43045e+07
-4.46985e+07
-7.67758e+07
-3.44884e+07
-2.26631e+07
-2.36925e+07
-3.3295e+07
-4.73946e+07
-8.18988e+07
-4.82828e+07
-7.92723e+07
-1.83907e+07
-1.65981e+07
-1.35117e+07
-1.36115e+07
-1.22379e+07
-1.38331e+07
-1.34039e+07
-1.52889e+07
-1.5475e+07
-1.4681e+07
-1.50434e+07
-1.39374e+07
-8.99477e+06
-8.55912e+06
-1.0029e+07
-8.04058e+06
-9.87175e+06
-1.56653e+07
-1.88754e+07
-1.53519e+07
-1.49004e+07
-1.41719e+07
-1.06772e+07
-9.17728e+06
-1.23382e+07
-1.73605e+07
-1.35691e+07
-1.38771e+07
-1.33726e+07
-8.45629e+06
-8.45432e+06
-6.82861e+06
-7.51953e+06
-7.22434e+06
-1.90715e+07
-2.1012e+07
-1.99499e+07
-1.87656e+07
-2.00229e+07
-1.93684e+07
-1.83612e+07
-1.61431e+07
-1.74066e+07
-1.75241e+07
-1.78992e+07
-1.7636e+07
-6.56555e+06
-1.19622e+07
-1.40551e+07
-9.37424e+06
-1.16964e+07
-1.00664e+07
-6.08184e+06
-5.68619e+06
-5.26304e+06
-5.01997e+06
-5.29468e+06
-7.0757e+06
-1.14999e+07
-1.52663e+07
-1.24899e+07
-1.25142e+07
-1.06049e+07
-7.66934e+06
-6.0781e+06
-5.99821e+06
-6.89086e+06
-5.80057e+06
-2.19914e+07
-1.52334e+07
-1.30935e+07
-1.57168e+07
-2.16293e+07
-1.31714e+07
-1.57414e+07
-2.02851e+07
-1.24554e+07
-1.16506e+07
-1.40541e+07
-2.06181e+07
-1.16282e+07
-1.40235e+07
-1.19111e+07
-1.16169e+07
-1.17481e+07
-1.16467e+07
-1.05853e+07
-1.1608e+07
-1.28554e+07
-9.4077e+06
-1.08992e+07
-1.05465e+07
-1.0671e+07
-1.02442e+07
-3.64124e+06
-5.88524e+06
-5.56766e+06
-3.78642e+06
-4.38804e+06
-1.02555e+07
-1.0886e+07
-6.74059e+06
-1.00275e+07
-6.98341e+06
-4.4111e+06
-4.45359e+06
-7.45138e+06
-1.03388e+07
-1.15984e+07
-1.06253e+07
-4.50913e+06
-7.14304e+06
-3.60598e+06
-5.16043e+06
-3.56832e+06
-5.49679e+06
-5.22638e+06
-1.11589e+07
-8.8857e+06
-1.31109e+07
-5.55452e+06
-1.14274e+07
-8.34373e+06
-4.13146e+06
-4.8767e+06
-4.59773e+06
-5.04256e+06
-4.94392e+06
-7.68309e+06
-1.22289e+07
-1.10204e+07
-1.07622e+07
-8.06664e+06
-4.72807e+06
-3.92286e+06
-5.14699e+06
-3.67774e+06
-4.90876e+06
-1.12249e+07
-1.00855e+07
-8.55425e+06
-9.26252e+06
-7.59051e+06
-8.47331e+06
-8.14837e+06
-9.03435e+06
-9.28083e+06
-9.87338e+06
-9.21808e+06
-8.31849e+06
-1.53951e+07
-1.65695e+07
-1.73914e+07
-1.74442e+07
-1.84802e+07
-2.73102e+07
-1.90874e+07
-1.69602e+07
-1.72656e+07
-1.7358e+07
-1.6942e+07
-1.70131e+07
-2.68542e+07
-1.66156e+07
-1.64331e+07
-1.73235e+07
-2.76422e+07
-1.83767e+07
-1.75138e+07
-2.85691e+07
-3.60326e+07
-5.6907e+07
-3.53274e+07
-5.89432e+07
-2.76348e+07
-1.70922e+07
-1.76566e+07
-2.66656e+07
-3.75543e+07
-6.30885e+07
-3.82901e+07
-6.09597e+07
-1.48396e+07
-1.35408e+07
-1.44602e+07
-1.49033e+07
-2.40449e+07
-1.4403e+07
-1.44697e+07
-1.45535e+07
-1.37926e+07
-1.45142e+07
-1.54154e+07
-1.48822e+07
-2.44779e+07
-1.47629e+07
-1.58612e+07
-1.45628e+07
-3.0892e+07
-1.93707e+07
-2.01087e+07
-2.98241e+07
-4.22462e+07
-7.20219e+07
-4.30487e+07
-6.96581e+07
-3.0878e+07
-2.10909e+07
-3.18997e+07
-1.98786e+07
-4.05464e+07
-6.51406e+07
-3.97853e+07
-6.73947e+07
-6.7875e+06
-6.46079e+06
-7.26945e+06
-7.50924e+06
-1.18903e+07
-7.63545e+06
-7.43512e+06
-7.81062e+06
-6.94015e+06
-7.36041e+06
-8.0879e+06
-7.51642e+06
-1.21652e+07
-7.62071e+06
-7.74298e+06
-7.84647e+06
-1.53807e+07
-9.90765e+06
-1.02267e+07
-1.48106e+07
-2.00823e+07
-3.0622e+07
-2.05519e+07
-2.94029e+07
-1.54323e+07
-1.06354e+07
-1.02381e+07
-1.59943e+07
-1.92509e+07
-2.71816e+07
-1.88161e+07
-2.8321e+07
-6.82647e+06
-7.22439e+06
-8.1626e+06
-8.40527e+06
-1.36906e+07
-8.91537e+06
-8.47285e+06
-8.63133e+06
-8.61651e+06
-8.06065e+06
-8.41481e+06
-8.40062e+06
-1.33916e+07
-8.26944e+06
-7.69913e+06
-8.59364e+06
-1.37037e+07
-9.56133e+06
-9.21763e+06
-1.41974e+07
-1.69192e+07
-2.31998e+07
-1.65383e+07
-2.41906e+07
-1.36547e+07
-8.91436e+06
-9.20081e+06
-1.31516e+07
-1.76448e+07
-2.61953e+07
-1.80599e+07
-2.51264e+07
-5.37004e+06
-5.50138e+06
-6.2697e+06
-6.81948e+06
-6.34486e+06
-6.13802e+06
-6.28039e+06
-6.15221e+06
-5.99343e+06
-6.92075e+06
-6.15436e+06
-6.2458e+06
-6.61307e+06
-8.44902e+06
-6.50957e+06
-8.5681e+06
-6.64066e+06
-8.90721e+06
-8.24345e+06
-7.04015e+06
-9.19864e+06
-7.13462e+06
-6.53981e+06
-6.67708e+06
-8.70896e+06
-6.74859e+06
-8.58477e+06
-5.24411e+06
-5.1991e+06
-5.56919e+06
-6.7286e+06
-5.75097e+06
-5.7944e+06
-5.86681e+06
-6.04137e+06
-5.93362e+06
-6.59062e+06
-5.7507e+06
-5.93105e+06
-6.91189e+06
-9.09485e+06
-6.9789e+06
-8.96089e+06
-6.8478e+06
-8.75988e+06
-6.80015e+06
-8.87048e+06
-9.18607e+06
-5.74397e+06
-6.42098e+06
-6.64974e+06
-9.06339e+06
-6.35163e+06
-6.60037e+06
-8.92748e+06
-5.94993e+06
-6.47192e+06
-6.66523e+06
-8.75455e+06
-6.52906e+06
-6.79288e+06
-6.32365e+06
-6.4168e+06
-7.04138e+06
-6.43605e+06
-6.48634e+06
-5.93744e+06
-5.83648e+06
-6.54468e+06
-6.96368e+06
-6.51407e+06
-6.42001e+06
-6.50621e+06
-7.17425e+06
-8.81551e+06
-8.83446e+06
-7.17556e+06
-7.1557e+06
-8.99843e+06
-7.15426e+06
-8.93758e+06
-7.02927e+06
-9.09257e+06
-7.00727e+06
-9.07434e+06
-7.05735e+06
-9.07947e+06
-7.10263e+06
-9.06333e+06
-6.01845e+06
-6.09275e+06
-6.62384e+06
-6.99919e+06
-6.59674e+06
-6.57695e+06
-6.59712e+06
-6.58277e+06
-6.54947e+06
-7.08506e+06
-6.61454e+06
-6.61252e+06
-5.89271e+06
-5.99662e+06
-6.69429e+06
-6.73219e+06
-7.35431e+06
-1.08439e+07
-6.975e+06
-7.01349e+06
-7.17388e+06
-6.62108e+06
-6.95557e+06
-6.80767e+06
-1.05903e+07
-6.86007e+06
-6.33353e+06
-7.14132e+06
-1.08874e+07
-7.78408e+06
-7.59921e+06
-1.12324e+07
-1.31319e+07
-1.68503e+07
-1.28533e+07
-1.75678e+07
-1.08449e+07
-7.29711e+06
-7.5673e+06
-1.04587e+07
-1.36702e+07
-1.90371e+07
-1.39753e+07
-1.82492e+07
-5.99326e+06
-6.10853e+06
-6.44224e+06
-6.76906e+06
-9.53429e+06
-6.71605e+06
-6.81004e+06
-6.80105e+06
-6.3925e+06
-6.55997e+06
-6.76097e+06
-6.74806e+06
-9.7757e+06
-6.93033e+06
-6.46976e+06
-6.90357e+06
-1.21451e+07
-8.0455e+06
-8.30572e+06
-1.1704e+07
-1.55135e+07
-2.23459e+07
-1.58737e+07
-2.14233e+07
-1.21901e+07
-8.61185e+06
-1.26135e+07
-8.32376e+06
-1.48852e+07
-1.97676e+07
-1.45564e+07
-2.06183e+07
-4.70844e+06
-4.45652e+06
-5.26442e+06
-4.80658e+06
-6.90853e+06
-6.06033e+06
-5.09887e+06
-6.51637e+06
-4.82837e+06
-5.65894e+06
-6.95236e+06
-5.64634e+06
-7.18902e+06
-5.42396e+06
-5.86819e+06
-6.84017e+06
-9.71837e+06
-8.05013e+06
-8.06074e+06
-9.79199e+06
-1.0751e+07
-1.17109e+07
-1.06648e+07
-1.17569e+07
-9.73112e+06
-8.00253e+06
-8.08199e+06
-9.58853e+06
-1.08401e+07
-1.18679e+07
-1.09214e+07
-1.17914e+07
-4.89381e+06
-5.07122e+06
-6.35617e+06
-6.2031e+06
-7.84058e+06
-7.16127e+06
-6.16701e+06
-7.22119e+06
-6.37157e+06
-6.16919e+06
-6.99936e+06
-5.83328e+06
-7.70273e+06
-5.99021e+06
-5.9994e+06
-7.1178e+06
-9.93377e+06
-8.13473e+06
-8.07106e+06
-9.86285e+06
-1.13388e+07
-1.25526e+07
-1.13481e+07
-1.23594e+07
-9.90735e+06
-7.56254e+06
-7.90168e+06
-9.79378e+06
-1.11512e+07
-1.19935e+07
-1.10635e+07
-1.21345e+07
-3.21515e+06
-3.09116e+06
-3.00897e+06
-2.57287e+06
-2.39401e+06
-2.96024e+06
-2.34006e+06
-2.22935e+06
-2.91854e+06
-2.568e+06
-2.98728e+06
-2.24149e+06
-2.79634e+06
-4.48897e+06
-3.36188e+06
-3.9178e+06
-2.2363e+06
-2.7602e+06
-1.65478e+06
-3.3469e+06
-3.41124e+06
-3.73719e+06
-4.24138e+06
-3.64989e+06
-3.61417e+06
-3.90558e+06
-3.22482e+06
-2.41876e+06
-3.19255e+06
-3.27138e+06
-3.54963e+06
-2.80771e+06
-1.06411e+06
-1.76562e+06
-1.33842e+06
-1.69681e+06
-949742
-2.20451e+06
-1.13477e+06
-1.76712e+06
-3.94591e+06
-2.82579e+06
-2.23899e+06
-2.59792e+06
-3.35857e+06
-2.67071e+06
-3.07221e+06
-5.50598e+06
-7.29715e+06
-6.02957e+06
-3.6378e+06
-5.71747e+06
-5.34012e+06
-4.57736e+06
-3.33422e+06
-4.95751e+06
-7.96813e+06
-6.95047e+06
-6.52553e+06
-5.67774e+06
-8.18016e+06
-7.30722e+06
-6.30376e+06
-1.60686e+07
-7.52651e+06
-4.83175e+06
-5.33891e+06
-6.40979e+06
-9.73532e+06
-1.73199e+07
-8.92131e+06
-5.01311e+06
-5.14236e+06
-4.50408e+06
-2.22009e+06
-2.68452e+06
-3.51147e+06
-4.25766e+06
-2.58189e+06
-3.86559e+06
-4.53293e+06
-3.49342e+06
-4.08364e+06
-2.88518e+06
-2.4426e+06
-2.43999e+06
-2.7681e+06
-2.29865e+06
-2.04491e+06
-2.57612e+06
-1.62721e+06
-2.1247e+06
-1.82652e+06
-2.32168e+06
-2.01946e+06
-2.37248e+06
-1.83588e+06
-1.05118e+06
-1.68626e+06
-2.03342e+06
-1.04917e+06
-1.37241e+06
-1.31399e+06
-1.54552e+06
-1.78181e+06
-1.5224e+06
-1.79562e+06
-1.23527e+06
-1.66289e+06
-1.12829e+06
-1.70007e+06
-2.09353e+06
-1.85093e+06
-1.85166e+06
-2.65574e+06
-3.26447e+06
-4.15378e+06
-4.47594e+06
-5.55538e+06
-5.4054e+06
-4.44094e+06
-4.25242e+06
-5.02783e+06
-3.69242e+06
-3.22112e+06
-3.03076e+06
-4.78916e+06
-3.64372e+06
-2.94378e+06
-4.24532e+06
-3.1791e+06
-2.86497e+06
-4.63273e+06
-1.33763e+07
-4.16468e+06
-2.87983e+06
-4.58244e+06
-3.5077e+06
-1.29741e+07
-3.00517e+06
-2.58012e+06
-2.72044e+06
-2.83678e+06
-2.95722e+06
-7.55261e+06
-3.23017e+06
-5.25627e+06
-4.08036e+06
-1.08935e+07
-1.29083e+07
-1.14112e+07
-1.31289e+07
-8.98827e+06
-7.23634e+06
-9.61546e+06
-6.57098e+06
-9.82954e+06
-1.35465e+07
-6.31838e+06
-1.34464e+07
-2.41102e+07
-2.44735e+07
-2.51369e+07
-2.53357e+07
-2.57422e+07
-9.26537e+06
-9.78797e+06
-1.15251e+07
-1.08783e+07
-1.5544e+07
-1.46928e+07
-1.27598e+07
-1.35367e+07
-2.32479e+07
-2.26882e+07
-2.08017e+07
-2.16354e+07
-1.67432e+07
-1.76883e+07
-1.97065e+07
-1.88239e+07
-5.06408e+07
-4.45086e+07
-4.22539e+07
-4.64626e+07
-5.33597e+07
-4.15052e+07
-4.5268e+07
-5.84907e+07
-5.09431e+07
-4.53654e+07
-4.9918e+07
-5.56312e+07
-4.6043e+07
-5.08948e+07
-3.49369e+07
-3.73613e+07
-3.86497e+07
-3.87317e+07
-4.51545e+07
-4.00272e+07
-3.72732e+07
-3.77105e+07
-4.15397e+07
-3.82265e+07
-3.64104e+07
-3.63611e+07
-4.43267e+07
-3.63844e+07
-3.63162e+07
-3.75784e+07
-4.33885e+07
-3.60304e+07
-3.38223e+07
-4.54266e+07
-5.73197e+07
-9.58029e+07
-5.61785e+07
-9.8946e+07
-4.35911e+07
-3.2488e+07
-4.16201e+07
-3.40322e+07
-5.96358e+07
-1.05462e+08
-6.09351e+07
-1.02066e+08
-3.34867e+07
-3.0868e+07
-3.16226e+07
-3.00343e+07
-3.76652e+07
-3.01908e+07
-2.99859e+07
-2.99182e+07
-3.1209e+07
-3.19304e+07
-3.33371e+07
-3.20087e+07
-3.83783e+07
-3.07753e+07
-3.45735e+07
-3.12719e+07
-5.02665e+07
-3.88382e+07
-4.05998e+07
-4.75088e+07
-6.7287e+07
-1.19838e+08
-6.90501e+07
-1.15813e+08
-5.00252e+07
-4.2946e+07
-4.04759e+07
-5.28196e+07
-6.46769e+07
-1.08642e+08
-6.31671e+07
-1.12297e+08
-3.02444e+07
-3.29188e+07
-3.13405e+07
-2.99391e+07
-3.24113e+07
-3.06049e+07
-3.02346e+07
-2.70514e+07
-2.78641e+07
-2.83251e+07
-2.86082e+07
-2.91478e+07
-1.1931e+07
-9.65342e+06
-1.08143e+07
-1.03002e+07
-1.25693e+07
-1.6933e+07
-2.22967e+07
-1.64631e+07
-1.79505e+07
-1.16551e+07
-1.77689e+07
-1.3414e+07
-2.02181e+07
-2.40318e+07
-2.03168e+07
-1.90942e+07
-1.88004e+07
-1.43907e+07
-1.25999e+07
-1.20018e+07
-1.12755e+07
-1.37591e+07
-2.93154e+07
-2.67967e+07
-2.22119e+07
-2.24616e+07
-2.10938e+07
-2.28529e+07
-2.29055e+07
-2.57867e+07
-2.5309e+07
-2.38955e+07
-2.46038e+07
-2.38239e+07
-1.66025e+07
-1.5823e+07
-1.49496e+07
-1.76877e+07
-1.5831e+07
-1.31627e+07
-1.3986e+07
-1.4654e+07
-4.30413e+07
-4.01523e+07
-3.40525e+07
-3.47773e+07
-3.37768e+07
-3.47639e+07
-3.6037e+07
-3.9445e+07
-3.74925e+07
-3.65279e+07
-3.68963e+07
-3.72104e+07
-2.37699e+07
-2.26354e+07
-2.42981e+07
-2.17181e+07
-2.30023e+07
-2.01653e+07
-2.1226e+07
-2.22488e+07
-4.37336e+07
-4.65917e+07
-4.27036e+07
-4.60753e+07
-4.30387e+07
-4.25708e+07
-4.40878e+07
-4.07695e+07
-4.0101e+07
-4.12692e+07
-4.05585e+07
-4.29812e+07
-1.96565e+07
-1.68018e+07
-1.77897e+07
-1.86285e+07
-2.05164e+07
-1.9543e+07
-1.85397e+07
-2.13438e+07
-4.76238e+07
-4.47259e+07
-4.5408e+07
-4.33582e+07
-5.25869e+07
-4.33445e+07
-4.33849e+07
-4.34501e+07
-4.45398e+07
-4.58816e+07
-4.70897e+07
-4.58076e+07
-5.35392e+07
-4.42109e+07
-4.88268e+07
-4.46562e+07
-6.79774e+07
-5.34928e+07
-5.52225e+07
-6.43477e+07
-8.79387e+07
-1.5603e+08
-9.09063e+07
-1.50446e+08
-6.77959e+07
-5.74903e+07
-7.15236e+07
-5.51178e+07
-8.45956e+07
-1.4081e+08
-8.19075e+07
-1.45976e+08
-4.91266e+07
-5.15558e+07
-5.27541e+07
-5.21835e+07
-5.34851e+07
-6.28144e+07
-5.53388e+07
-5.06779e+07
-5.12842e+07
-5.24521e+07
-5.04015e+07
-5.03603e+07
-6.17904e+07
-5.02175e+07
-5.07386e+07
-5.13854e+07
-5.84135e+07
-5.04126e+07
-4.78194e+07
-6.17987e+07
-7.36568e+07
-1.23463e+08
-7.15736e+07
-1.27818e+08
-5.86058e+07
-4.60084e+07
-5.53034e+07
-4.78763e+07
-7.6641e+07
-1.36643e+08
-7.90402e+07
-1.31836e+08
-8.14194e+06
-7.78397e+06
-6.69015e+06
-6.87475e+06
-5.57756e+06
-5.37491e+06
-5.86752e+06
-5.89824e+06
-6.60683e+06
-6.28675e+06
-5.86568e+06
-6.22582e+06
-5.27879e+06
-5.59938e+06
-5.82121e+06
-5.47536e+06
-8.92581e+06
-8.83777e+06
-8.6729e+06
-8.78312e+06
-8.20264e+06
-8.36047e+06
-8.56415e+06
-8.43553e+06
-6.76288e+06
-7.05774e+06
-7.40839e+06
-7.16001e+06
-8.06533e+06
-7.88389e+06
-7.56894e+06
-7.78926e+06
-1.6221e+07
-8.97684e+06
-8.68957e+06
-1.08743e+07
-1.64955e+07
-8.83635e+06
-1.09497e+07
-1.76291e+07
-1.03458e+07
-9.5721e+06
-1.19428e+07
-1.72864e+07
-9.42086e+06
-1.1852e+07
-8.59523e+06
-9.09337e+06
-1.0102e+07
-1.05123e+07
-1.73548e+07
-1.08817e+07
-1.05615e+07
-1.05056e+07
-1.07334e+07
-9.98847e+06
-1.02874e+07
-1.05523e+07
-1.7001e+07
-1.03187e+07