/*--------------------------------*- C++ -*----------------------------------*\
| =========                 |                                                 |
| \\      /  F ield         | OpenFOAM: The Open Source CFD Toolbox           |
|  \\    /   O peration     | Version:  2012                                  |
|   \\  /    A nd           | Website:  www.openfoam.com                      |
|    \\/     M anipulation  |                                                 |
\*---------------------------------------------------------------------------*/
FoamFile
{
    version     2.0;
    format      ascii;
    class       volVectorField;
    location    "0.108/solid";
    object      sigmaMinDir;
}
// * * * * * * * * * * * * * * * * * * * * * * * * * * * * * * * * * * * * * //

dimensions      [1 -1 -2 0 0 0 0];


internalField   nonuniform List<vector> 
3125
(
(0.747976 -0.65985 -0.0716306)
(-0.632325 0.774142 0.0294946)
(-0.413481 0.887711 0.20249)
(0.758502 -0.648302 -0.0661843)
(-0.650681 0.758685 0.0318027)
(-0.449764 0.882705 0.136179)
(0.74432 -0.654131 0.134534)
(0.711486 -0.700609 -0.0541736)
(-0.567707 0.822446 0.0359325)
(0.763171 -0.641851 0.0748201)
(-0.697867 0.714686 0.0469722)
(-0.542347 0.838892 0.0460494)
(0.202017 -0.161186 0.966027)
(0.727824 -0.68392 -0.0502429)
(0.778802 -0.624256 0.0614144)
(0.736488 -0.672979 -0.0684495)
(0.121988 -0.0898609 0.988455)
(0.769456 -0.636412 0.054014)
(0.718791 -0.693348 -0.0510701)
(-0.696601 0.70347 -0.140986)
(-0.630165 0.776306 0.0155243)
(0.713768 -0.698777 0.0473873)
(-0.612446 0.789984 0.0288986)
(0.692573 -0.691329 0.20593)
(-0.70193 0.711169 -0.0391366)
(-0.610414 0.791926 0.0157421)
(-0.505034 0.562041 0.655019)
(-0.354794 0.906212 0.230002)
(-0.606939 0.784487 0.1273)
(-0.373162 0.872163 0.316356)
(-0.659713 0.717636 0.223108)
(-0.616052 0.75127 0.236797)
(-0.297733 0.886903 0.353212)
(0.787087 -0.615237 0.0444692)
(0.782119 -0.609298 0.130559)
(0.11337 -0.0843139 0.989969)
(0.767009 -0.640138 -0.0438219)
(0.736366 -0.675435 -0.0393939)
(0.780881 -0.619928 0.0769022)
(0.114462 -0.0822913 0.990013)
(0.757519 -0.572461 0.313772)
(0.743684 -0.668409 -0.0128157)
(0.784507 -0.618818 0.0401695)
(0.774101 -0.631635 0.0424919)
(0.715847 -0.697059 0.0408983)
(0.730645 -0.681206 0.0460153)
(0.671353 -0.654851 0.347066)
(-0.667629 0.743643 0.0355964)
(-0.647452 0.761904 0.0175713)
(0.718451 -0.693816 0.0494682)
(0.6923 -0.685856 0.224324)
(0.732054 -0.678979 0.055544)
(-0.662674 0.748601 0.0214165)
(0.710533 -0.702578 0.0390843)
(-0.69511 0.718195 -0.0318932)
(-0.613015 0.786522 0.0748037)
(-0.638345 0.769573 0.0165134)
(-0.687294 0.726169 0.0174763)
(-0.483923 0.870244 0.092163)
(-0.408946 0.899802 0.152052)
(-0.615211 0.782849 0.0930693)
(-0.666173 0.722229 0.186008)
(-0.642094 0.766303 0.0222561)
(-0.456034 0.884468 0.0987415)
(-0.605468 0.789115 0.103467)
(-0.622051 0.763499 0.173558)
(0.609444 -0.5025 0.613247)
(0.741417 -0.660815 0.116726)
(0.177808 -0.141617 0.973822)
(0.353109 -0.156822 0.922345)
(-0.637865 0.767669 -0.0617519)
(-0.628521 0.777757 0.00747506)
(-0.615973 0.787332 0.0261954)
(0.45174 -0.168022 0.876185)
(0.763686 -0.471635 0.440845)
(0.233197 -0.192714 0.953142)
(0.724323 -0.68669 -0.0617527)
(0.753603 -0.654737 0.0583158)
(-0.699224 0.713776 0.0401236)
(0.765655 -0.640797 0.0561392)
(0.475414 -0.431897 0.76645)
(0.70932 -0.703338 -0.0466928)
(0.794415 -0.563947 0.22554)
(0.7835 -0.514103 0.349037)
(-0.599177 0.800373 0.0197166)
(-0.6144 0.788878 0.0135794)
(-0.541887 0.840418 -0.00747209)
(-0.507939 0.861393 -0.000707181)
(0.771282 -0.627434 0.107004)
(0.768673 -0.633624 0.0875374)
(-0.695469 0.706701 -0.129987)
(-0.590988 0.806092 0.0307948)
(-0.679413 0.733394 -0.0230501)
(-0.561611 0.826973 0.026601)
(-0.69793 0.71525 -0.0362047)
(-0.694967 0.714849 -0.0775394)
(-0.587735 0.808829 0.0190448)
(0.756508 -0.651048 0.0619115)
(0.767789 -0.635745 0.0795584)
(-0.447274 0.894314 0.0121603)
(-0.496924 0.867783 -0.00451816)
(-0.193795 0.962882 0.187889)
(-0.0669914 0.932553 0.354762)
(0.742931 -0.667348 -0.0519711)
(0.783998 -0.590888 -0.190258)
(-0.454529 0.49992 0.737213)
(-0.309989 0.846465 0.432901)
(-0.647994 0.725925 0.230513)
(-0.161547 0.861418 0.48152)
(0.805433 -0.554635 -0.208944)
(-0.045469 0.888227 0.45715)
(0.646777 -0.581751 0.493198)
(0.672078 -0.568157 0.474877)
(0.768771 -0.598848 0.22444)
(0.115564 -0.0858479 0.989583)
(0.770416 -0.637524 0.004665)
(0.607434 -0.468522 0.641492)
(0.746507 -0.660179 0.0830131)
(0.168299 -0.132913 0.976734)
(0.702596 -0.511709 0.494483)
(0.747772 -0.663199 0.0316918)
(-0.629245 0.777036 0.0162823)
(-0.637494 0.770037 -0.0253853)
(0.339138 -0.0905069 0.936373)
(0.225537 -0.0345662 0.973621)
(0.306067 -0.109996 0.945634)
(0.22707 -0.0417002 0.972985)
(-0.638154 0.766561 -0.0717273)
(-0.637257 0.770341 -0.0218662)
(0.755503 -0.653375 0.0481288)
(0.769359 -0.637205 0.0453528)
(0.750342 -0.659228 0.0490387)
(0.735864 -0.675508 0.0468249)
(0.662484 -0.639279 0.390433)
(-0.683304 0.728999 0.0407015)
(0.749364 -0.659511 0.0591474)
(-0.688264 0.724703 0.0331476)
(0.532536 -0.495136 0.686474)
(0.736508 -0.674061 0.0565405)
(-0.676175 0.736256 0.0267258)
(-0.548867 0.835909 0.000810246)
(-0.573311 0.819335 -0.0021337)
(0.775158 -0.621193 0.115102)
(0.78224 -0.606167 0.143742)
(0.7917 -0.576435 0.202322)
(0.786227 -0.597949 0.155898)
(-0.596457 0.802616 0.00677005)
(-0.577726 0.81618 0.00909621)
(0.714968 -0.696374 0.0623264)
(-0.673238 0.739166 -0.0195941)
(-0.690098 0.723112 -0.0295681)
(0.711263 -0.701245 0.0485809)
(-0.703454 0.708268 -0.0592346)
(-0.666992 0.744911 -0.0151353)
(-0.64642 0.762963 0.00527558)
(-0.692695 0.7212 -0.00664969)
(-0.701262 0.71227 -0.0300542)
(0.711904 -0.700819 0.0452342)
(-0.704957 0.7084 -0.0347166)
(-0.689165 0.7246 0.00252985)
(-0.514628 0.855051 0.0636118)
(-0.672347 0.740029 -0.0174875)
(-0.531437 0.846139 0.0402874)
(-0.693492 0.717241 -0.0680806)
(-0.65056 0.759406 0.0085793)
(-0.496531 0.865726 0.0630432)
(-0.229403 0.961304 0.152539)
(-0.330228 0.941136 0.0721998)
(0.736152 -0.67643 -0.0228582)
(0.735425 -0.677112 0.025871)
(0.750402 -0.658632 0.055683)
(0.740498 -0.671109 0.0357141)
(-0.429847 0.902762 0.0158962)
(-0.356427 0.932679 0.0554076)
(-0.689584 0.724165 0.00764987)
(0.72974 -0.68167 -0.0529726)
(-0.347959 0.843253 0.409694)
(-0.654811 0.742833 0.139363)
(0.606856 -0.372951 0.701878)
(-0.48855 0.788525 0.373561)
(-0.23112 0.618924 0.750678)
(-0.542662 0.818808 0.187273)
(-0.177337 0.605895 0.775528)
(-0.27032 0.629969 0.728056)
(-0.556463 0.808406 0.191907)
(0.724054 -0.689599 -0.0141038)
(0.159022 -0.122561 0.979638)
(0.732112 -0.6391 0.235721)
(-0.671871 0.736977 -0.0738543)
(-0.66888 0.740819 -0.0615303)
(0.721926 -0.625218 0.296523)
(0.726321 -0.686837 0.0267046)
(0.733546 -0.679044 0.0284366)
(0.142947 -0.106603 0.983973)
(-0.671529 0.731069 -0.120781)
(0.595635 -0.471915 0.650012)
(0.730923 -0.682342 -0.0127042)
(-0.675729 0.729468 -0.10615)
(0.69308 -0.577868 0.430939)
(-0.652249 0.757843 -0.0156437)
(-0.694964 0.700069 -0.164099)
(-0.703054 0.707337 -0.0734154)
(-0.628753 0.77599 -0.0500977)
(-0.628372 0.776522 -0.0465017)
(-0.704595 0.705188 -0.0790938)
(-0.64958 0.759518 -0.0343225)
(-0.661749 0.748686 -0.0394785)
(-0.695691 0.696069 -0.177488)
(-0.634402 0.771205 -0.0527008)
(0.710266 -0.698067 0.0906968)
(-0.663783 0.747687 -0.0188565)
(-0.635133 0.770229 -0.0579125)
(0.709237 -0.699796 0.0852588)
(-0.468371 0.82091 0.326703)
(-0.603581 0.667588 0.435908)
(-0.584897 0.700435 0.409006)
(-0.483642 0.765244 0.424844)
(-0.508772 0.789619 0.343005)
(-0.595942 0.734362 0.324908)
(-0.466703 0.793708 0.390149)
(-0.48495 0.838982 0.246844)
(-0.621729 0.687128 0.375909)
(-0.534684 0.818089 0.211763)
(-0.622498 0.760974 0.182798)
(-0.501485 0.839337 0.209825)
(-0.521569 0.811186 0.264467)
(-0.609542 0.752211 0.250274)
(0.742964 -0.655043 0.137562)
(0.10703 -0.0766668 0.991296)
(0.263931 -0.152551 0.952402)
(0.408789 -0.395805 0.822332)
(0.73878 -0.657323 0.148767)
(0.512305 -0.498708 0.699167)
(0.276847 -0.161743 0.947204)
(0.737973 -0.674449 0.0226766)
(0.109085 -0.0789674 0.990891)
(-0.666144 0.699359 -0.25913)
(0.427467 -0.299315 0.853043)
(0.740296 -0.670217 0.0526448)
(-0.617705 0.645512 -0.449171)
(0.322269 -0.203567 0.924502)
(-0.68347 0.728648 -0.0440456)
(0.683741 -0.669613 0.290029)
(0.720219 -0.684253 0.114372)
(-0.645271 0.761662 -0.0591307)
(-0.684244 0.729 -0.0192082)
(-0.646719 0.759737 -0.0674905)
(0.719791 -0.685596 0.108904)
(-0.674433 0.738063 -0.0200485)
(0.68637 -0.678081 0.262874)
(-0.641099 0.764817 -0.0636216)
(0.714725 -0.692641 0.0970407)
(-0.673035 0.738378 -0.0426697)
(-0.640005 0.76626 -0.0569168)
(0.715469 -0.691092 0.102447)
(-0.555639 0.827961 0.0757987)
(-0.682326 0.727517 0.0717727)
(-0.660986 0.749901 0.0273227)
(-0.5804 0.812213 0.0586989)
(-0.565688 0.821532 0.0712876)
(-0.576629 0.813254 0.0782158)
(-0.656009 0.752881 0.0531351)
(-0.53658 0.834269 0.126794)
(-0.679441 0.727604 0.094618)
(-0.553799 0.818393 0.153427)
(-0.636918 0.759918 0.129846)
(-0.523128 0.83986 0.144819)
(-0.560851 0.819148 0.120178)
(-0.644756 0.759427 0.0869503)
(0.685581 -0.611147 0.395573)
(0.2322 -0.190223 0.953886)
(0.555376 -0.430922 0.711241)
(0.591129 -0.582154 0.558268)
(0.681256 -0.603979 0.413643)
(0.218972 -0.176934 0.959555)
(0.429307 -0.302238 0.851086)
(0.503482 -0.481359 0.717495)
(0.490092 -0.361338 0.793249)
(0.545546 -0.534478 0.645533)
(0.672088 -0.574767 0.466841)
(0.341656 -0.204542 0.917297)
(0.410236 -0.220242 0.884986)
(0.339823 -0.214414 0.915722)
(0.414212 -0.308968 0.856135)
(0.473513 -0.310382 0.824287)
(0.463783 -0.345137 0.815957)
(0.25292 -0.129471 0.958785)
(0.289642 -0.185821 0.938924)
(0.495375 -0.580282 0.646434)
(-0.446958 0.655064 -0.609196)
(-0.637155 0.766697 -0.0788029)
(-0.461835 0.684734 -0.56378)
(0.395829 -0.464261 0.792326)
(0.466055 -0.56779 0.678533)
(-0.637967 0.767845 -0.0584105)
(-0.506627 0.729891 -0.458899)
(-0.595873 0.798237 -0.0880467)
(-0.594663 0.795673 -0.115242)
(-0.54462 0.829114 -0.126328)
(-0.623081 0.78178 0.0243055)
(-0.540677 0.840966 -0.0211007)
(-0.575176 0.759095 -0.304874)
(-0.597712 0.789443 -0.139713)
(-0.535791 0.844312 -0.00808892)
(-0.621949 0.782948 0.0130787)
(-0.542798 0.837265 -0.0660084)
(0.432633 -0.273605 0.859051)
(0.265899 -0.174293 0.948114)
(0.26009 -0.148772 0.954055)
(0.594891 -0.284164 0.751902)
(0.466141 -0.305707 0.830214)
(0.173413 -0.097376 0.980023)
(0.283574 -0.150244 0.947107)
(0.654472 -0.488146 0.57739)
(0.711342 -0.404926 0.574481)
(0.488226 -0.356257 0.796691)
(0.718705 -0.694603 0.0314585)
(0.732183 -0.651801 0.197647)
(0.311795 -0.266751 0.911936)
(-0.664356 0.745562 -0.0526137)
(0.717055 -0.696991 -0.00600831)
(0.734483 -0.655036 0.17738)
(-0.667118 0.741828 -0.068153)
(0.709654 -0.704543 0.00322644)
(0.366592 -0.323691 0.872258)
(0.732172 -0.664142 0.151129)
(-0.662238 0.746133 -0.0687547)
(0.731337 -0.662712 0.16112)
(-0.659744 0.749522 -0.054364)
(0.710692 -0.702531 0.036983)
(0.447335 -0.34237 0.826241)
(0.60248 -0.432434 0.670835)
(0.793159 -0.553908 0.253151)
(0.747601 -0.59419 0.296702)
(0.72875 -0.611146 0.308908)
(0.683092 -0.558425 0.470687)
(0.792161 -0.534834 0.293996)
(0.724903 -0.566113 0.392468)
(0.695259 -0.533672 0.481466)
(0.624611 -0.524722 0.578384)
(-0.592429 0.801874 -0.0776251)
(-0.592064 0.80221 -0.0769365)
(-0.525615 0.850375 -0.024303)
(-0.605953 0.795425 0.0109374)
(-0.531898 0.845287 -0.0507422)
(-0.587957 0.805341 -0.0757183)
(-0.588581 0.805359 -0.0704892)
(-0.537746 0.841567 -0.0509396)
(-0.608061 0.793525 0.0240915)
(-0.530855 0.847346 -0.0140523)
(-0.559459 0.82724 -0.0517679)
(-0.561386 0.82567 -0.0558111)
(-0.497238 0.865841 -0.0554392)
(-0.530309 0.847804 -0.00113556)
(-0.493345 0.86877 -0.0430067)
(-0.566504 0.821659 -0.062848)
(-0.565005 0.822816 -0.0611766)
(-0.485192 0.873611 -0.0373168)
(-0.521553 0.853186 -0.00744575)
(-0.488967 0.870911 -0.0492469)
(0.75217 -0.645846 0.130857)
(0.732227 -0.669126 0.126943)
(0.758144 -0.641154 0.118909)
(0.769932 -0.630223 0.100122)
(0.769153 -0.626493 0.126137)
(0.731478 -0.664535 0.152753)
(0.753683 -0.638509 0.155783)
(0.76839 -0.630664 0.10881)
(0.76965 -0.631562 0.0936375)
(0.760077 -0.641812 0.101783)
(-0.635964 0.771271 -0.0262904)
(-0.698062 0.712971 -0.0661929)
(-0.696269 0.70953 -0.108516)
(-0.621776 0.782294 -0.0375537)
(-0.639593 0.768651 -0.00982731)
(-0.696308 0.71527 -0.0595308)
(-0.621691 0.782282 -0.0391841)
(-0.625108 0.780538 -0.00057141)
(-0.694924 0.712252 -0.0988852)
(-0.688912 0.723528 -0.0436696)
(-0.61363 0.789221 -0.0242775)
(-0.691075 0.720944 -0.0515396)
(-0.614221 0.788736 -0.0250469)
(-0.620391 0.78416 -0.0144046)
(0.730768 -0.674541 0.104754)
(0.750467 -0.652192 0.106981)
(0.76022 -0.646184 0.0671715)
(0.769909 -0.633826 0.0741989)
(0.760098 -0.645953 0.0706794)
(0.759237 -0.645104 0.086024)
(0.76511 -0.639619 0.0741229)
(0.768913 -0.632833 0.0910775)
(0.7486 -0.657536 0.0851148)
(0.729634 -0.678654 0.0840423)
(-0.555785 0.830056 -0.0459419)
(-0.553251 0.83211 -0.0388125)
(-0.466016 0.884688 -0.0124852)
(-0.466825 0.884346 0.00262102)
(-0.470026 0.88228 -0.0256433)
(-0.546086 0.837464 -0.0210701)
(-0.549484 0.834879 -0.032314)
(-0.479957 0.876396 -0.0396303)
(-0.480696 0.876882 0.00319521)
(-0.476156 0.87893 -0.0275177)
(-0.418951 0.771448 0.478902)
(-0.443789 0.834279 0.327154)
(-0.384894 0.89966 0.206078)
(-0.1495 0.961629 0.23004)
(-0.37049 0.892532 0.257145)
(-0.477958 0.855145 0.200706)
(-0.452346 0.841639 0.295005)
(-0.335756 0.848581 0.408875)
(-0.106354 0.953779 0.281058)
(-0.350335 0.878091 0.325918)
(-0.573367 0.494507 0.653233)
(0.687005 -0.624266 -0.371907)
(0.753235 -0.646846 -0.119276)
(0.752706 -0.651917 -0.091856)
(0.754732 -0.622352 -0.207503)
(0.714472 -0.683062 -0.15151)
(0.711889 -0.644363 -0.279302)
(0.721338 -0.547537 -0.424116)
(0.764601 -0.628208 -0.144017)
(0.738992 -0.614877 -0.275349)
(-0.531728 0.723758 0.439816)
(-0.579607 0.640716 0.503527)
(-0.198171 0.185804 0.962396)
(-0.473572 0.700387 0.53403)
(-0.46277 0.743363 0.482965)
(0.678354 -0.6739 -0.292736)
(-0.524238 0.639136 0.562743)
(-0.547575 0.823899 0.146124)
(-0.691205 0.717877 -0.0829959)
(-0.671449 0.737785 -0.0694999)
(-0.567012 0.820455 0.0731514)
(-0.477094 0.788692 0.387745)
(-0.0382661 0.587827 0.808081)
(-0.409064 0.637558 0.65283)
(-0.132832 0.597245 0.790983)
(-0.546136 0.819839 0.172042)
(-0.109552 0.0637589 0.991934)
(-0.685928 0.727458 -0.0175318)
(-0.549199 0.745261 0.378108)
(-0.511655 0.415015 0.752311)
(-0.135068 0.04045 0.99001)
(0.779367 -0.618021 0.103134)
(0.758115 -0.644888 0.0968565)
(0.692343 -0.506183 -0.514237)
(0.821608 -0.564809 0.0771367)
(0.755033 -0.581375 0.303198)
(0.693172 -0.509747 -0.509579)
(-0.411822 0.744266 0.525804)
(-0.459765 0.577228 0.674851)
(0.0397623 0.581562 0.81253)
(-0.36919 0.568368 0.735293)
(-0.497147 0.700223 0.512379)
(-0.323244 0.791472 0.518734)
(-0.0418245 0.765428 0.642161)
(-0.357553 0.667343 0.653306)
(0.706948 -0.610631 0.356867)
(0.133719 -0.102006 0.985756)
(0.273398 -0.160305 0.948449)
(0.404534 -0.374678 0.834248)
(0.722205 -0.615869 0.314843)
(0.294877 -0.179045 0.938611)
(0.390921 -0.3713 0.84221)
(0.68215 -0.571948 0.455573)
(0.139662 -0.107042 0.984397)
(0.374028 -0.250112 0.893055)
(0.453242 -0.435523 0.777748)
(0.677179 -0.583894 0.447768)
(0.330346 -0.21043 0.920104)
(0.428429 -0.399461 0.810481)
(0.284258 -0.364632 0.886702)
(0.364008 -0.437927 0.822021)
(-0.543398 0.833321 -0.101459)
(-0.633889 0.773407 -0.00516133)
(-0.526442 0.793449 -0.305447)
(-0.565875 0.72681 -0.389271)
(0.375397 -0.486045 0.7892)
(-0.454478 0.6839 -0.570729)
(-0.634188 0.773178 0.000647118)
(-0.512566 0.772377 -0.375113)
(0.134654 -0.0662918 0.988673)
(0.167907 -0.0672242 0.983508)
(0.29186 -0.157494 0.943405)
(0.274985 -0.0536455 0.959951)
(0.181341 -0.0850013 0.97974)
(0.201534 -0.089981 0.97534)
(0.13739 -0.0687527 0.988128)
(0.173171 -0.0809266 0.981561)
(0.239618 -0.0386734 0.970097)
(0.222177 -0.104869 0.96935)
(0.167506 -0.0678883 0.983531)
(0.159733 -0.0820736 0.983743)
(0.288205 -0.181228 0.940263)
(0.269539 -0.0798436 0.959674)
(0.257339 -0.138575 0.956333)
(0.209601 -0.119272 0.970485)
(0.196499 -0.0874653 0.976595)
(0.216377 -0.103667 0.97079)
(0.242707 -0.0546756 0.968558)
(0.210311 -0.111144 0.971296)
(0.300673 -0.352718 0.886107)
(0.303793 -0.384502 0.871704)
(0.416969 -0.627346 0.657703)
(-0.63824 0.768464 -0.0459702)
(0.411187 -0.608379 0.678823)
(0.368696 -0.458777 0.808447)
(0.326773 -0.382681 0.864161)
(0.427484 -0.636098 0.642368)
(-0.6388 0.767731 -0.050228)
(0.407164 -0.614492 0.675734)
(-0.693318 0.72045 -0.0162066)
(0.632621 -0.606116 0.482093)
(0.724428 -0.678622 0.121146)
(-0.652075 0.754958 -0.0695419)
(-0.693157 0.719467 -0.0435879)
(0.724527 -0.677456 0.126941)
(-0.65026 0.757394 -0.0592955)
(-0.702192 0.710794 -0.0412092)
(0.606208 -0.572173 0.552386)
(0.728319 -0.6705 0.141354)
(-0.65507 0.75338 -0.0574661)
(-0.701763 0.712327 -0.0108752)
(0.7286 -0.671597 0.134535)
(-0.657219 0.750462 -0.0697784)
(-0.575817 0.814539 -0.0704284)
(-0.57486 0.815024 -0.0726045)
(-0.500797 0.864377 -0.0453188)
(-0.558895 0.82922 -0.00549713)
(-0.50494 0.861146 -0.0588392)
(-0.570094 0.818764 -0.0679541)
(-0.571286 0.817955 -0.0676873)
(-0.512172 0.85681 -0.05964)
(-0.564454 0.825453 0.00438191)
(-0.507676 0.860396 -0.0445437)
(0.725164 -0.649599 0.228382)
(0.750857 -0.620101 0.227354)
(0.767654 -0.623761 0.147069)
(0.776746 -0.617573 0.123569)
(0.756098 -0.639592 0.1387)
(0.75316 -0.630588 0.187372)
(0.729486 -0.658425 0.185275)
(0.753326 -0.637267 0.162454)
(0.780772 -0.610398 0.133452)
(0.765644 -0.620019 0.171366)
(0.744855 -0.605163 0.281015)
(0.715785 -0.634919 0.29074)
(0.742624 -0.626858 0.23571)
(0.791146 -0.583061 0.184736)
(0.757348 -0.60723 0.240201)
(0.692967 -0.604538 0.392849)
(0.730711 -0.580747 0.35888)
(0.762523 -0.614883 0.201191)
(0.787436 -0.592844 0.168762)
(0.749289 -0.633586 0.192704)
(-0.579381 0.811578 -0.0752295)
(-0.580191 0.811366 -0.0711599)
(-0.525628 0.848965 -0.0545386)
(-0.589187 0.807869 0.0144016)
(-0.520037 0.853476 -0.0337616)
(-0.584441 0.808363 -0.070559)
(-0.583737 0.808382 -0.0759602)
(-0.514067 0.856784 -0.0406925)
(-0.585679 0.81054 0.00214007)
(-0.519061 0.852766 -0.0580077)
(-0.705478 0.70688 -0.0512032)
(-0.703174 0.708899 -0.0548515)
(-0.696937 0.716923 -0.0173395)
(-0.701011 0.712708 -0.0251188)
(0.710199 -0.702754 0.0418849)
(-0.705289 0.707898 -0.0380419)
(-0.589112 0.807255 0.0358732)
(-0.691173 0.721975 -0.0321153)
(-0.669591 0.742704 0.00626613)
(-0.592423 0.805105 0.0289926)
(-0.58151 0.81293 0.0314714)
(-0.673205 0.739393 -0.00965889)
(-0.59454 0.803849 0.0186766)
(-0.602554 0.79807 0.00349128)
(-0.692755 0.719884 -0.0430967)
(-0.682959 0.729671 -0.0338879)
(-0.605372 0.795908 -0.00742608)
(-0.608495 0.793441 0.013605)
(-0.68016 0.732692 -0.0233415)
(-0.604158 0.796859 -0.00298909)
(-0.521058 0.851831 0.0536845)
(-0.510331 0.854562 0.0963693)
(-0.401715 0.901658 0.16012)
(-0.266748 0.95611 0.121243)
(-0.411195 0.903103 0.123793)
(-0.486688 0.85538 0.177369)
(-0.503795 0.856353 0.11336)
(-0.430706 0.900173 0.0646629)
(-0.297388 0.949931 0.0958727)
(-0.423809 0.901117 0.0915095)
(0.720894 -0.693007 0.00727389)
(0.738793 -0.673762 -0.0151184)
(0.765212 -0.639158 -0.0769934)
(0.732753 -0.680492 -0.00167349)
(0.757156 -0.65222 -0.036386)
(0.733993 -0.671692 -0.100418)
(0.717296 -0.695152 -0.0474321)
(0.759222 -0.650772 0.00878152)
(0.734714 -0.678227 0.0142388)
(0.76812 -0.640257 -0.0079475)
(0.742335 -0.669275 0.0317742)
(0.724827 -0.687746 0.0403777)
(0.76103 -0.64639 0.0548938)
(0.747706 -0.662136 0.05012)
(0.769933 -0.635687 0.0557322)
(0.727882 -0.682727 0.0638096)
(0.745801 -0.663286 0.0619024)
(0.769254 -0.638191 0.0309904)
(0.74295 -0.667956 0.0431262)
(0.760585 -0.648236 0.0360691)
(-0.526171 0.849379 0.041233)
(-0.533059 0.845969 0.0135746)
(-0.458875 0.888483 -0.00568261)
(-0.40625 0.913316 0.0285443)
(-0.454408 0.890738 0.00993509)
(-0.542114 0.840197 -0.0134866)
(-0.537413 0.843309 0.00413133)
(-0.440709 0.896613 0.0431428)
(-0.384615 0.922293 0.038031)
(-0.44606 0.894705 0.0230874)
(-0.701717 0.712047 0.0241421)
(0.723099 -0.689555 -0.0405228)
(-0.666456 0.742359 -0.0688363)
(-0.579237 0.813134 0.0574208)
(-0.684817 0.686488 -0.244459)
(0.486195 -0.481046 0.729527)
(0.717128 -0.644398 0.26548)
(0.179906 -0.128273 0.975284)
(0.26608 -0.202737 0.94239)
(0.286264 -0.263266 0.921273)
(0.222371 -0.182121 0.957801)
(0.236694 -0.159951 0.958328)
(0.712597 -0.64944 0.265393)
(0.745621 -0.666354 -0.00459525)
(0.750187 -0.660462 -0.0317636)
(0.742574 -0.650132 0.160975)
(0.776155 -0.628141 0.0549715)
(0.745714 -0.665503 -0.0318724)
(0.753238 -0.657747 0.00120917)
(0.745096 -0.654701 0.127271)
(0.538627 -0.435001 0.721564)
(0.128054 -0.082127 0.988361)
(0.123953 -0.115993 0.985485)
(0.138459 -0.098739 0.985434)
(0.359111 -0.285858 0.888439)
(0.157085 -0.108666 0.981589)
(0.149455 -0.0848458 0.985121)
(0.739161 -0.672959 -0.0276997)
(0.74192 -0.662822 0.101099)
(0.772918 -0.632178 0.0543085)
(0.745238 -0.66677 0.00615415)
(0.74327 -0.668485 -0.0260299)
(0.741407 -0.662015 0.10978)
(0.738383 -0.674381 -0.000557888)
(-0.691074 0.719709 -0.0666005)
(-0.697493 0.701866 -0.144526)
(0.724726 -0.677425 0.125962)
(-0.662696 0.740023 -0.114897)
(-0.659797 0.74387 -0.106424)
(0.729946 -0.670898 0.130672)
(-0.68822 0.72147 -0.0763831)
(-0.669647 0.742379 -0.0211244)
(-0.673189 0.739456 -0.00447762)
(-0.701282 0.709946 -0.0646484)
(0.709041 -0.703745 0.0447772)
(-0.674711 0.738 -0.0109488)
(-0.67087 0.741214 -0.0231351)
(-0.699115 0.712422 -0.0607653)
(-0.69414 0.71401 -0.0914292)
(0.695515 -0.693422 0.188214)
(-0.653927 0.741655 -0.149421)
(0.725773 -0.664225 0.17905)
(-0.695218 0.713333 -0.0884716)
(-0.661496 0.735566 -0.146169)
(0.72465 -0.66914 0.164726)
(-0.554588 0.71443 0.426641)
(-0.545857 0.609563 0.574868)
(-0.562771 0.548299 0.618593)
(-0.513894 0.639787 0.571476)
(-0.540237 0.671316 0.507423)
(0.601591 -0.588826 -0.539789)
(-0.541219 0.692385 0.477163)
(-0.599888 0.769217 0.220089)
(-0.647645 0.712911 0.268914)
(-0.606735 0.764299 0.218449)
(0.698924 -0.686403 -0.20089)
(-0.610465 0.768347 0.19229)
(-0.599721 0.759521 0.251919)
(-0.685726 0.68668 0.241351)
(0.771642 -0.636004 -0.00820921)
(0.787606 -0.613561 0.0567445)
(0.769642 -0.637738 -0.0306951)
(0.768732 -0.639568 -0.00199725)
(0.787015 -0.611088 0.0847331)
(0.773321 -0.633956 0.00858297)
(0.230398 -0.13627 0.963508)
(0.111305 -0.0730147 0.9911)
(0.123509 -0.0853002 0.988671)
(0.117758 -0.107381 0.987219)
(0.211209 -0.147864 0.966192)
(0.131552 -0.091011 0.987123)
(0.122489 -0.0669423 0.99021)
(0.751602 -0.659424 -0.0159442)
(0.75962 -0.650343 0.00559579)
(0.738406 -0.628595 0.244182)
(0.781322 -0.61419 0.110933)
(0.752035 -0.659109 0.00438727)
(0.755311 -0.654964 -0.0229701)
(0.705147 -0.580315 0.407433)
(0.250344 -0.15673 0.955387)
(0.109853 -0.0683971 0.991592)
(0.133024 -0.109048 0.985095)
(0.128656 -0.0853551 0.988009)
(0.369383 -0.282624 0.885257)
(0.115892 -0.078158 0.990182)
(0.126317 -0.0724685 0.989339)
(0.765773 -0.642303 -0.032227)
(0.781852 -0.622229 0.0392272)
(0.766001 -0.642802 -0.0069641)
(0.77785 -0.627085 0.0413987)
(0.758181 -0.652044 -0.000378557)
(0.75918 -0.650423 -0.0244165)
(0.704267 -0.700708 0.114092)
(0.681244 -0.661911 0.312697)
(0.714475 -0.640446 0.2817)
(-0.651894 0.7239 -0.225838)
(0.704911 -0.700284 0.11271)
(-0.662509 0.717167 -0.216226)
(0.717718 -0.648136 0.254561)
(-0.686075 0.727448 -0.0109955)
(-0.683135 0.729858 -0.0251805)
(0.706674 -0.704246 0.0681809)
(0.723034 -0.688862 0.0518664)
(-0.681636 0.731329 -0.0230429)
(-0.684928 0.728593 -0.00504467)
(0.708498 -0.702063 0.0716844)
(-0.702392 0.706172 -0.0892579)
(0.692964 -0.683057 0.230723)
(-0.666032 0.726061 -0.170988)
(0.722776 -0.664487 0.189874)
(-0.699141 0.707654 -0.102118)
(-0.663983 0.730703 -0.158744)
(0.728395 -0.655892 0.198106)
(-0.692776 0.720776 -0.0233053)
(0.715209 -0.694544 0.0780112)
(-0.696066 0.717966 -0.00419864)
(0.72762 -0.683891 0.0535001)
(-0.694832 0.718711 -0.025755)
(-0.696601 0.717399 -0.00925014)
(0.713743 -0.696401 0.0748092)
(-0.64507 0.762876 0.0436571)
(-0.684673 0.72794 0.0364093)
(0.719639 -0.694254 -0.0114891)
(-0.632379 0.773991 0.032172)
(-0.649568 0.759489 0.035183)
(-0.634455 0.771687 0.0443381)
(0.714777 -0.698831 -0.0269948)
(-0.624452 0.767966 0.142437)
(-0.671023 0.725069 0.154929)
(-0.622071 0.762318 0.178604)
(0.701804 -0.693281 -0.16381)
(-0.620496 0.768249 0.157412)
(-0.619405 0.768808 0.158969)
(0.707766 -0.693093 -0.136711)
(0.399552 -0.302678 0.8653)
(0.191898 -0.148185 0.970163)
(0.20779 -0.1384 0.968333)
(0.212265 -0.180744 0.960352)
(0.226569 -0.152626 0.961962)
(0.224891 -0.187153 0.956242)
(0.372786 -0.278259 0.885213)
(0.172051 -0.10408 0.979574)
(0.185866 -0.109239 0.976484)
(0.171121 -0.170772 0.970337)
(0.184706 -0.175868 0.96693)
(0.18323 -0.183775 0.96574)
(0.160719 -0.136005 0.977585)
(0.113282 -0.110416 0.987409)
(0.12606 -0.0977814 0.987192)
(0.198723 -0.120264 0.972649)
(0.173203 -0.0938386 0.980406)
(0.115519 -0.0605799 0.991456)
(0.125102 -0.058133 0.990439)
(0.718479 -0.668078 0.193547)
(0.310581 -0.245766 0.918226)
(0.258661 -0.201486 0.944721)
(0.311741 -0.316889 0.895767)
(0.71276 -0.662257 0.231058)
(0.356117 -0.264296 0.896286)
(0.402829 -0.368503 0.837815)
(0.724002 -0.689749 -0.0081964)
(0.72663 -0.686778 0.0185653)
(0.757678 -0.650013 0.05837)
(0.732119 -0.675275 0.0894714)
(0.732567 -0.674488 0.0917214)
(0.726177 -0.687451 -0.0088269)
(0.721926 -0.691839 0.0134805)
(0.730447 -0.682937 0.00666949)
(0.737399 -0.668495 0.0967348)
(0.73513 -0.677712 -0.0170379)
(0.76178 -0.64536 0.0565758)
(0.731911 -0.681164 -0.0179593)
(0.737349 -0.669022 0.0934129)
(0.736248 -0.67659 0.0128153)
(0.721339 -0.678512 0.138895)
(0.434 -0.378014 0.817771)
(0.608783 -0.525362 0.594456)
(-0.608862 0.622708 -0.491448)
(0.580588 -0.47583 0.660684)
(-0.599294 0.610239 -0.518125)
(0.716259 -0.678913 0.161402)
(0.217952 -0.137948 0.966161)
(0.248234 -0.150075 0.957004)
(0.462123 -0.340333 0.818911)
(0.407361 -0.285719 0.867422)
(0.209074 -0.22598 0.951431)
(0.2478 -0.242474 0.937977)
(0.43466 -0.508608 0.743229)
(0.398502 -0.442324 0.803459)
(-0.602342 0.78679 -0.134707)
(-0.602544 0.7872 -0.131368)
(-0.599776 0.77629 -0.194017)
(-0.604011 0.777386 -0.175618)
(0.765548 -0.626612 0.145927)
(0.765249 -0.626477 0.148055)
(0.754629 -0.620927 0.212098)
(0.757749 -0.620999 0.200438)
(-0.682565 0.727849 -0.0658918)
(0.726769 -0.676686 0.117907)
(-0.696327 0.707972 -0.117917)
(-0.650316 0.753247 -0.0985308)
(-0.684039 0.726698 -0.0632496)
(0.724395 -0.680832 0.108261)
(-0.65635 0.748283 -0.0963132)
(-0.677569 0.734565 -0.0362429)
(-0.695881 0.713501 -0.081647)
(0.723228 -0.686758 0.0728304)
(-0.656349 0.751819 -0.0630482)
(0.727925 -0.681321 0.0769877)
(-0.653057 0.755059 -0.0583286)
(-0.674788 0.73676 -0.0429695)
(0.766549 -0.628581 0.131484)
(0.768206 -0.627814 0.125335)
(0.77357 -0.628124 0.0839655)
(0.773103 -0.6285 0.085433)
(-0.599975 0.790714 -0.12166)
(-0.601771 0.79106 -0.109984)
(-0.598537 0.797985 -0.0705271)
(-0.598327 0.798198 -0.0698924)
(-0.455376 0.66179 0.595539)
(-0.484179 0.697211 0.528647)
(-0.563381 0.793698 0.229446)
(-0.550594 0.790719 0.267599)
(-0.583342 0.476611 0.657689)
(0.639609 -0.51437 -0.571247)
(0.764803 -0.614039 -0.195017)
(0.753981 -0.613704 -0.234265)
(-0.530254 0.601347 0.597672)
(-0.522707 0.486368 0.70016)
(-0.39691 0.414383 0.818993)
(-0.495236 0.581408 0.645528)
(-0.536438 0.654437 0.532866)
(-0.465929 0.395566 0.791478)
(-0.461914 0.509983 0.72564)
(-0.370354 0.751519 0.545946)
(-0.278558 0.763947 0.582057)
(-0.399709 0.815252 0.419042)
(-0.270314 0.84869 0.454594)
(-0.368658 0.812472 0.451642)
(-0.415794 0.768561 0.48624)
(-0.234656 0.759988 0.606098)
(-0.540598 0.758506 0.363898)
(-0.606271 0.702222 0.373255)
(-0.504396 0.774933 0.380873)
(-0.684111 0.728728 -0.0307914)
(-0.486956 0.765081 0.421337)
(-0.680621 0.732619 0.00489984)
(-0.571269 0.77437 0.272035)
(-0.333706 0.729924 0.596532)
(-0.320479 0.803958 0.500943)
(-0.224816 0.851834 0.473114)
(-0.122096 0.754595 0.644731)
(-0.339288 0.808128 0.48147)
(-0.310889 0.697777 0.645333)
(-0.186266 0.756426 0.626996)
(-0.525751 0.411479 0.744493)
(-0.444132 0.330174 0.832906)
(-0.427528 0.60773 0.669242)
(-0.389614 0.531175 0.752365)
(0.719301 -0.65716 0.22527)
(0.701497 -0.565447 0.433787)
(0.73909 -0.644382 0.19626)
(0.76671 -0.638192 0.0697619)
(0.741559 -0.583866 0.33044)
(0.756548 -0.647838 0.0891079)
(0.232367 -0.147377 0.961398)
(0.120676 -0.082906 0.989224)
(0.126658 -0.0818444 0.988564)
(0.133054 -0.110234 0.984959)
(0.238104 -0.161295 0.957753)
(0.135795 -0.0829722 0.987257)
(0.134046 -0.100427 0.985873)
(0.327815 -0.227855 0.916853)
(0.159026 -0.119568 0.980007)
(0.193821 -0.134306 0.9718)
(0.189291 -0.169418 0.967195)
(0.335233 -0.254492 0.907112)
(0.182685 -0.113608 0.976586)
(0.191789 -0.15163 0.969652)
(0.111253 -0.110082 0.987676)
(0.1152 -0.09306 0.988974)
(0.109384 -0.0981221 0.989145)
(0.105995 -0.0777181 0.991325)
(0.105809 -0.0551859 0.992854)
(0.104762 -0.0484712 0.993315)
(0.111867 -0.0567336 0.992102)
(0.104493 -0.0461715 0.993453)
(0.109528 -0.057713 0.992307)
(0.113255 -0.0560755 0.991982)
(0.161452 -0.0944258 0.982353)
(0.151237 -0.0858634 0.984761)
(0.115062 -0.108011 0.987469)
(0.121124 -0.102287 0.987353)
(0.162222 -0.165974 0.972696)
(0.159901 -0.148966 0.975828)
(0.739537 -0.67301 0.0119342)
(0.760012 -0.648128 0.0480827)
(0.741988 -0.670371 -0.00748503)
(0.751021 -0.660102 -0.0152619)
(0.765065 -0.642298 0.0461352)
(0.749176 -0.662339 0.00646505)
(0.732445 -0.680824 -0.00161896)
(0.74573 -0.664498 0.0482606)
(0.729481 -0.683822 0.0156679)
(0.71252 -0.692851 0.110783)
(0.658724 -0.628745 0.413235)
(0.708307 -0.637406 0.30334)
(-0.661816 0.702798 -0.260909)
(0.70863 -0.693915 0.127771)
(0.711882 -0.62298 0.324223)
(-0.661573 0.708217 -0.246474)
(0.712834 -0.701085 0.018626)
(0.716652 -0.697427 -0.00249496)
(0.727219 -0.680748 0.0879528)
(0.745169 -0.664326 0.0582706)
(0.715494 -0.698619 -0.000196461)
(0.716522 -0.697198 0.0226249)