/*--------------------------------*- C++ -*----------------------------------*\
| =========                 |                                                 |
| \\      /  F ield         | OpenFOAM: The Open Source CFD Toolbox           |
|  \\    /   O peration     | Version:  2012                                  |
|   \\  /    A nd           | Website:  www.openfoam.com                      |
|    \\/     M anipulation  |                                                 |
\*---------------------------------------------------------------------------*/
FoamFile
{
    version     2.0;
    format      ascii;
    class       volScalarField;
    location    "0.108/solid";
    object      sigmaMax;
}
// * * * * * * * * * * * * * * * * * * * * * * * * * * * * * * * * * * * * * //

dimensions      [1 -1 -2 0 0 0 0];


internalField   nonuniform List<scalar> 
3125
(
4.51559e+07
1.41649e+06
-1.062e+07
5.46297e+07
4.47392e+06
-1.00755e+07
9.50985e+07
2.27226e+07
-5.2845e+06
8.61545e+07
1.70873e+07
-6.86604e+06
3.3572e+07
5.42372e+07
2.98623e+07
3.66846e+07
5.12237e+07
1.90549e+07
4.46916e+07
-4.5585e+06
4.03457e+06
-6.43761e+06
-1.18886e+06
486539
-8.92564e+06
927045
-1.74951e+07
-1.0418e+07
-1.659e+07
-1.05385e+07
-1.38728e+07
-1.89144e+07
-1.07334e+07
2.69387e+07
3.96452e+07
7.46318e+07
6.49522e+07
6.49231e+07
3.4011e+07
5.23807e+07
4.76221e+07
7.67314e+07
2.31111e+07
1.30686e+07
-8.15077e+06
-5.01783e+06
8.18706e+06
8.05141e+06
7.65232e+06
-5.37774e+06
863251
-1.49919e+06
1.18543e+07
-8.97276e+06
-1.0895e+07
-1.69024e+07
-1.50671e+07
-1.03778e+07
-9.24719e+06
-9.69604e+06
-1.58359e+07
-1.34903e+07
-1.38652e+07
-8.74884e+06
-1.76299e+07
-1.98707e+07
6.87455e+07
1.16629e+08
1.03828e+08
4.85979e+07
1.13961e+08
5.82685e+07
4.42682e+07
1.96948e+07
1.01719e+07
3.2687e+07
2.92263e+07
8.00733e+06
2.88262e+07
1.59185e+07
1.93042e+07
3.62441e+07
982638
7.41445e+06
2.86431e+07
3.97006e+07
5.60043e+06
846282
-8.35783e+06
-1.01206e+07
-4.71352e+06
-3.40599e+06
-1.12051e+07
-4.00669e+06
-9.58563e+06
-7.45823e+06
-1.73571e+06
-1.20927e+07
-1.06455e+07
-4.11858e+06
-624417
-9.61597e+06
-9.80964e+06
-1.89282e+07
-2.19864e+07
-1.77245e+07
-7.4005e+06
-1.97871e+07
-8.60725e+06
-2.24159e+07
-9.21892e+06
5.65707e+07
5.46757e+07
4.38891e+07
7.61587e+07
7.57178e+07
6.54835e+07
1.03056e+08
1.01774e+08
5.23562e+07
8.9541e+07
6.39536e+07
8.09486e+07
2.34347e+07
3.50987e+07
4.76148e+07
3.89657e+07
1.07125e+08
8.75627e+07
3.12729e+06
1.02435e+07
1.15879e+06
-3.69764e+06
8.69293e+06
1.22274e+07
5.74035e+06
2.23502e+07
1.86319e+07
99050.1
1.67241e+07
7.58534e+06
1.39712e+07
-7.69472e+06
-5.33147e+06
-684110
-4.36673e+06
2.51138e+07
1.66335e+07
-1.16287e+07
-1.27425e+07
-1.14141e+07
-1.34031e+07
-1.2063e+07
-1.31794e+07
-1.45298e+07
-1.86858e+07
-1.609e+07
-1.38769e+07
-1.54366e+07
-1.01727e+07
-8.17979e+06
-1.17178e+07
-5.92485e+06
-7.60104e+06
-1.32718e+07
-7.50533e+06
-9.3551e+06
-8.33895e+06
-1.77475e+07
-1.49875e+07
-1.25847e+07
-1.4289e+07
-5.19594e+06
-7.65091e+06
-1.98057e+07
-2.31056e+07
-7.18989e+06
-2.07009e+07
-2.36645e+07
-1.70068e+07
-2.49174e+06
-1.69253e+07
-3.05206e+06
-1.75737e+06
-1.70587e+07
3.96789e+07
4.13505e+07
2.95965e+07
4.02398e+07
4.28067e+07
3.33037e+07
3.61317e+07
4.49501e+07
4.23778e+07
5.24408e+07
4.22271e+07
4.90039e+07
4.95274e+07
3.79732e+07
-2.06298e+06
-2.53808e+06
-5.93774e+06
-1.89768e+06
-1.09276e+06
-5.01999e+06
-3.07777e+06
-385016
-2.22697e+06
2.04291e+06
-2.6016e+06
844927
1.0951e+06
-3.7988e+06
-1.44958e+07
-1.61809e+07
-1.77229e+07
-1.53528e+07
-1.44971e+07
-1.69556e+07
-1.53027e+07
-1.36681e+07
-1.56397e+07
-1.31158e+07
-1.51987e+07
-1.32685e+07
-1.36723e+07
-1.60827e+07
6.59537e+07
6.3698e+07
6.35622e+07
7.52063e+07
7.11547e+07
7.14928e+07
5.82023e+07
5.95155e+07
6.23321e+07
5.99359e+07
4.75021e+07
5.48962e+07
6.32502e+07
5.23374e+07
6.49306e+06
4.47808e+06
3.96321e+06
9.88869e+06
8.20789e+06
8.60777e+06
2.2456e+06
4.24546e+06
4.04414e+06
4.57325e+06
-1.05827e+06
2.78469e+06
5.67918e+06
394808
-1.12082e+07
-1.16996e+07
-1.1967e+07
-1.05193e+07
-1.08961e+07
-1.08894e+07
-1.26619e+07
-1.20852e+07
-1.19707e+07
-1.22184e+07
-1.42825e+07
-1.2413e+07
-1.17817e+07
-1.3467e+07
1.14163e+08
1.17717e+08
1.04368e+08
1.23327e+08
1.09005e+08
1.15263e+08
9.38507e+07
1.10648e+08
9.93039e+07
1.15205e+08
1.02963e+08
9.09976e+07
4.81123e+07
8.04688e+07
8.63213e+07
4.54838e+07
8.81501e+07
8.26002e+07
8.82766e+07
1.21473e+08
9.55697e+07
1.20702e+08
9.60888e+07
1.08429e+08
1.15886e+08
1.27016e+08
1.04559e+08
3.95593e+07
4.43014e+07
4.45276e+07
5.35992e+07
4.4206e+07
5.39146e+07
4.85881e+07
3.59672e+07
4.84609e+07
3.62542e+07
2.37973e+07
2.83873e+07
3.4636e+07
1.6332e+07
2.91829e+07
3.68937e+07
3.16119e+07
2.14452e+07
1.30479e+07
2.61201e+07
2.84023e+07
2.55409e+07
2.59285e+07
3.43085e+07
3.14897e+07
2.23435e+07
3.20677e+07
2.43543e+07
2.51531e+07
1.60886e+07
2.49076e+07
1.88402e+07
2.68684e+07
2.16717e+07
2.10006e+07
1.70663e+07
2.83498e+06
9.25151e+06
1.25732e+07
1.87984e+07
5.0504e+06
1.48454e+07
1.13028e+07
1.46553e+07
3.57653e+07
3.16032e+07
2.22601e+07
3.19384e+07
2.24802e+07
2.46156e+07
2.82634e+07
2.89191e+07
3.5968e+07
2.86652e+07
-1.72176e+06
-194497
942676
3.96429e+06
843003
3.02168e+06
1.24788e+06
-1.87243e+06
2.25399e+06
-1.78951e+06
-6.76466e+06
-5.99606e+06
-5.43419e+06
-8.97095e+06
-6.32268e+06
-4.38348e+06
-5.25868e+06
-7.7374e+06
-9.56209e+06
-6.96174e+06
-5.3364e+06
-6.82736e+06
-6.08606e+06
-3.79237e+06
-4.53484e+06
-7.51583e+06
-4.45651e+06
-6.60498e+06
-6.21895e+06
-8.80549e+06
-6.59269e+06
-8.21251e+06
-6.08639e+06
-7.19415e+06
-7.39181e+06
-8.10089e+06
-1.16169e+07
-1.01794e+07
-9.47467e+06
-8.28018e+06
-1.1129e+07
-8.99663e+06
-9.35536e+06
-8.65332e+06
-2.98279e+06
-4.28461e+06
-6.25048e+06
-3.09187e+06
-6.20753e+06
-6.46407e+06
-5.39767e+06
-4.1557e+06
-1.83006e+06
-4.2219e+06
-1.52419e+07
-1.37155e+07
-1.1471e+07
-9.77314e+06
-1.17583e+07
-1.22721e+07
-1.31302e+07
-1.28933e+07
-9.87366e+06
-1.24448e+07
-1.94317e+07
-1.87767e+07
-1.69865e+07
-2.01606e+07
-1.85704e+07
-1.64339e+07
-1.81145e+07
-1.99047e+07
-2.13037e+07
-1.91103e+07
-1.72402e+07
-1.84313e+07
-1.85826e+07
-1.59947e+07
-1.5914e+07
-1.92283e+07
-1.70951e+07
-1.87072e+07
-2.2243e+07
-2.08212e+07
-1.90592e+07
-1.69417e+07
-5.2277e+06
-1.71813e+07
-3.79351e+06
-1.84527e+07
-1.86164e+07
-2.03429e+07
-1.79917e+07
-1.97768e+07
-2.05724e+07
-2.32086e+07
-2.13854e+07
-2.02192e+07
-2.29605e+07
-2.11094e+07
-2.0661e+07
-1.57918e+07
-1.70999e+07
-5.2728e+06
-1.71445e+07
-1.77206e+07
-1.40177e+07
-7.70246e+06
-1.58589e+07
8.37074e+07
8.78806e+07
6.98151e+07
8.39928e+07
7.794e+07
7.55946e+07
8.81326e+07
9.0516e+07
8.97459e+07
8.78607e+07
1.0172e+08
9.66566e+07
8.20067e+07
9.72551e+07
7.6418e+07
6.99063e+07
5.33951e+07
6.91115e+07
5.37461e+07
5.8687e+07
6.46424e+07
6.38174e+07
7.53165e+07
6.34392e+07
5.70971e+07
5.05243e+07
3.81038e+07
2.71954e+07
4.43627e+07
4.0529e+07
4.65174e+07
5.51316e+07
3.12054e+07
4.81846e+07
6.12822e+07
6.82127e+07
7.73792e+07
4.54403e+07
7.02791e+07
7.90305e+07
7.23356e+07
5.91059e+07
4.24741e+07
6.64684e+07
8.2071e+07
8.91173e+07
8.55316e+07
1.00585e+08
8.50767e+07
1.02464e+08
9.50854e+07
7.41417e+07
9.36892e+07
7.45484e+07
1.28167e+07
1.30183e+07
6.14801e+06
1.32787e+07
1.08167e+07
8.16408e+06
1.47601e+07
1.58442e+07
1.36001e+07
1.30869e+07
2.03855e+07
1.81643e+07
1.07305e+07
1.86817e+07
1.10309e+07
8.65133e+06
3.98383e+06
9.48279e+06
4.10183e+06
4.68099e+06
6.73914e+06
7.7566e+06
1.17837e+07
7.61774e+06
784759
-1.01831e+06
-4.6209e+06
-6.97916e+06
-3.47505e+06
-3.44927e+06
-2.26642e+06
-717674
-6.19067e+06
-2.38371e+06
2.30146e+06
4.64203e+06
7.31263e+06
-2.06747e+06
4.55643e+06
9.23869e+06
6.41223e+06
672748
-3.3025e+06
2.90351e+06
1.3236e+07
1.59893e+07
1.6862e+07
2.22241e+07
1.66719e+07
2.16982e+07
1.85294e+07
1.182e+07
1.91565e+07
1.1983e+07
-1.29512e+07
-1.24957e+07
-1.77037e+07
-1.68378e+07
-1.43467e+07
-1.48651e+07
-9.67121e+06
-8.95662e+06
-1.12674e+07
-9.61231e+06
-9.99595e+06
-1.06566e+07
-9.28594e+06
-8.70397e+06
-8.79313e+06
-9.44028e+06
-7.91484e+06
-8.2929e+06
-1.00164e+07
-8.26497e+06
-9.87885e+06
-1.05232e+07
-1.0785e+07
-9.13635e+06
-1.05527e+07
-1.17422e+07
-1.10259e+07
-9.65808e+06
-8.7526e+06
-9.86331e+06
-1.25444e+07
-1.36371e+07
-1.63268e+07
-1.66989e+07
-1.48931e+07
-1.56928e+07
-1.42668e+07
-1.32096e+07
-1.57822e+07
-1.43227e+07
-1.1999e+07
-1.11268e+07
-1.06275e+07
-1.31062e+07
-1.13849e+07
-9.86835e+06
-1.06184e+07
-1.27201e+07
-1.36715e+07
-1.1834e+07
-9.35874e+06
-8.76548e+06
-7.83553e+06
-6.05756e+06
-7.89272e+06
-7.44455e+06
-8.13005e+06
-8.9393e+06
-6.96196e+06
-8.76949e+06
-2.10076e+07
-2.22143e+07
-2.26678e+07
-1.93585e+07
-2.34911e+07
-2.40598e+07
3.64921e+07
3.65562e+07
3.05124e+07
3.42435e+07
3.51989e+07
3.11293e+07
3.47992e+07
3.9256e+07
3.76814e+07
3.68968e+07
2.60205e+07
4.28156e+07
3.41637e+07
3.28438e+07
4.82933e+07
4.75832e+07
4.81661e+07
4.3941e+07
5.01011e+07
4.72267e+07
4.33045e+07
3.40294e+07
2.50591e+07
2.23763e+07
2.65567e+07
2.96095e+07
2.85706e+07
3.09481e+07
-3.74359e+06
-3.85891e+06
-5.33059e+06
-4.51607e+06
-4.21129e+06
-5.15378e+06
-4.23854e+06
-2.76138e+06
-3.10469e+06
-4.23835e+06
-7.34528e+06
-1.78455e+06
-4.09342e+06
-5.28468e+06
-101997
-618660
-292373
-2.10135e+06
362671
-521425
-2.23281e+06
-1.66659e+07
-1.70717e+07
-1.77587e+07
-1.70781e+07
-1.68505e+07
-1.76359e+07
-1.69263e+07
-1.44061e+07
-1.44358e+07
-1.3806e+07
-1.4676e+07
-1.40815e+07
-1.41563e+07
-1.51227e+07
3.37503e+07
3.10484e+07
3.67571e+07
4.55045e+07
3.52507e+07
4.2146e+07
7.08884e+07
7.0221e+07
6.54162e+07
7.0427e+07
7.31701e+07
6.92068e+07
6.46745e+07
5.27409e+07
4.27683e+07
4.17555e+07
3.83548e+07
4.86656e+07
4.67955e+07
4.63783e+07
5.59538e+07
5.62277e+07
5.29516e+07
4.85618e+07
5.37907e+07
5.41733e+07
4.9314e+07
2.8677e+07
1.94884e+07
2.60744e+07
1.61585e+07
1.93092e+07
2.15243e+07
7.22328e+06
6.65632e+06
4.76878e+06
7.10028e+06
7.91921e+06
6.73621e+06
4.50399e+06
1.28029e+06
-1.51819e+06
-2.90907e+06
-4.22841e+06
99999.4
-323999
-1.6064e+06
2.26242e+06
2.08234e+06
1.24814e+06
-711238
1.56687e+06
1.65953e+06
-430921
3.47289e+06
1.59091e+06
2.94729e+06
-2.91189e+06
1.52522e+06
4.87773e+06
20303
-1.12014e+07
-1.08052e+07
-1.11858e+07
-1.06455e+07
-1.10196e+07
-1.08383e+07
-1.14489e+07
-1.32249e+07
-1.29377e+07
-1.32396e+07
-1.40823e+07
-1.34963e+07
-1.29274e+07
-1.3687e+07
1.07479e+08
1.08272e+08
9.50196e+07
1.01194e+08
9.58753e+07
1.02998e+08
1.04791e+08
9.75931e+07
1.02531e+08
1.02864e+08
1.07372e+08
3.52009e+07
3.82188e+07
5.2473e+07
4.90445e+07
2.99754e+07
3.29596e+07
4.71311e+07
4.34662e+07
3.0577e+07
2.69608e+07
2.98885e+07
3.04991e+07
3.19242e+07
2.64631e+07
2.98023e+07
1.97204e+07
1.42173e+07
1.04107e+07
1.26032e+07
1.51805e+07
1.64948e+07
1.74457e+07
2.37089e+07
2.13648e+07
2.25737e+07
1.3086e+07
2.63591e+07
1.83529e+07
1.99342e+07
2.16035e+07
2.15388e+07
1.68235e+07
1.99029e+07
1.73016e+07
2.06311e+07
2.0327e+07
2.89957e+07
2.62521e+07
1.61589e+07
1.83435e+07
3.4366e+07
3.16706e+07
2.10363e+07
2.33403e+07
-3.56232e+06
-2.59668e+06
1.99615e+06
871622
-5.43527e+06
-4.96785e+06
-1.77173e+06
-2.58988e+06
-5.31833e+06
-5.89786e+06
-5.19804e+06
-5.38197e+06
-5.14581e+06
-6.0254e+06
-5.36832e+06
-7.68638e+06
-7.02936e+06
-8.07627e+06
-7.58383e+06
-7.91627e+06
-7.40798e+06
-7.90545e+06
-5.67132e+06
-6.09608e+06
-8.27516e+06
-7.89571e+06
-3.82295e+06
-4.41966e+06
-6.95938e+06
-6.50569e+06
-1.66715e+07
-1.61706e+07
-1.28717e+07
-1.33441e+07
-1.85572e+07
-1.81818e+07
-1.51165e+07
-1.57309e+07
-1.76695e+07
-1.81849e+07
-1.81075e+07
-1.74764e+07
-1.73228e+07
-1.83704e+07
-1.77325e+07
-1.47029e+07
-5.86399e+06
-1.23851e+07
-7.60704e+06
-1.23834e+07
-1.46194e+07
-6.21729e+06
-1.75239e+07
-1.90249e+07
-1.64992e+07
-2.08102e+07
-1.61911e+07
-1.99166e+07
-1.78913e+07
-1.49406e+07
-1.31792e+07
-7.85975e+06
-7.29784e+06
-1.25273e+07
-1.54004e+07
-6.63673e+06
-1.87448e+07
-1.90968e+07
-1.69518e+07
-1.73734e+07
6.16519e+07
5.16393e+07
5.84675e+07
5.07182e+07
4.80528e+07
5.42078e+07
8.01693e+07
8.07216e+07
7.0924e+07
7.60022e+07
7.75978e+07
7.17535e+07
7.75059e+07
9.76445e+07
9.71942e+07
8.96724e+07
9.58841e+07
1.00148e+08
8.89125e+07
9.44215e+07
7.49788e+07
7.09091e+07
5.35554e+07
5.73721e+07
7.01279e+07
6.55614e+07
4.83456e+07
5.22961e+07
7.1522e+07
7.63532e+07
9.62253e+07
9.13508e+07
7.6383e+07
8.08659e+07
1.00961e+08
9.67539e+07
8.46714e+06
5.28363e+06
1.00475e+07
1.53388e+07
7.65157e+06
1.34654e+07
5.54352e+06
-620943
4.21439e+06
1.04806e+07
1.03441e+07
6.69921e+06
9.18275e+06
9.53475e+06
7.06184e+06
9.73053e+06
1.20544e+07
1.12656e+07
9.89632e+06
3.71254e+06
1.39995e+07
9.30783e+06
7.70157e+06
1.71792e+07
1.65476e+07
1.41888e+07
1.70893e+07
1.81577e+07
1.38176e+07
1.65801e+07
9.08696e+06
3.53616e+06
5.10749e+06
1.8014e+06
7.42911e+06
6.78231e+06
5.40039e+06
9.86568e+06
8.33507e+06
2.3556e+06
3.65063e+06
5.42104e+06
3.98844e+06
-1.35803e+06
-248518
5.99491e+06
7.57762e+06
1.54007e+07
1.34037e+07
1.03441e+07
1.2075e+07
2.04009e+07
1.83521e+07
-1.03177e+07
-9.74632e+06
-1.07271e+07
-1.01806e+07
-1.05091e+07
-1.05032e+07
-9.97627e+06
-8.52619e+06
-8.00795e+06
-8.53191e+06
-8.06455e+06
-8.48245e+06
-8.69971e+06
-8.16734e+06
-9.72916e+06
-1.00846e+07
-1.25757e+07
-1.21064e+07
-1.13284e+07
-1.17577e+07
-1.46378e+07
-1.40664e+07
-1.10465e+07
-1.06439e+07
-8.49624e+06
-8.87288e+06
-9.58282e+06
-9.18044e+06
-7.05293e+06
-7.38472e+06
-5.53653e+06
-1.24716e+07
-1.46559e+07
-1.70306e+07
-2.1695e+07
-1.83724e+07
-1.68728e+07
-1.5768e+07
-1.55927e+07
-1.19052e+07
-2.34832e+06
-1.20121e+07
-1.69832e+07
-1.53987e+07
-1.55031e+07
-1.25314e+07
-3.07288e+06
-1.23313e+07
-1.16098e+07
-1.53391e+07
3.88352e+07
3.81189e+07
3.87577e+07
3.48802e+07
4.04139e+07
3.79406e+07
3.43093e+07
4.56355e+07
4.58054e+07
4.30338e+07
3.89698e+07
4.37017e+07
4.41224e+07
3.96615e+07
-2.96497e+06
-3.38171e+06
-3.22202e+06
-4.36353e+06
-2.62368e+06
-3.32568e+06
-4.4556e+06
-986034
-1.17983e+06
-1.89487e+06
-3.51757e+06
-1.57928e+06
-1.53705e+06
-3.2669e+06
-1.61709e+07
-1.67866e+07
-1.58216e+07
-1.68554e+07
-1.57981e+07
-1.624e+07
-1.7182e+07
-1.49518e+07
-1.49858e+07
-1.51844e+07
-1.62361e+07
-1.52468e+07
-1.47856e+07
-1.57579e+07
6.75528e+07
6.79856e+07
6.40223e+07
5.92991e+07
6.51488e+07
6.53946e+07
6.01105e+07
5.89561e+07
5.8236e+07
5.87486e+07
5.41522e+07
6.10326e+07
5.76553e+07
5.34435e+07
6.05855e+06
5.89934e+06
4.91655e+06
2.70146e+06
5.24635e+06
5.3901e+06
3.01723e+06
3.27506e+06
2.73359e+06
3.12498e+06
1.05061e+06
3.85302e+06
2.82656e+06
840348
-1.16863e+07
-1.12286e+07
-1.16035e+07
-1.22569e+07
-1.19105e+07
-1.13585e+07
-1.19636e+07
-1.27052e+07
-1.24508e+07
-1.21039e+07
-1.27658e+07
-1.24479e+07
-1.23628e+07
-1.31113e+07
1.20555e+08
1.2132e+08
1.05688e+08
1.12781e+08
1.18087e+08
1.06603e+08
1.14683e+08
1.114e+08
1.11206e+08
1.01214e+08
1.08357e+08
1.13774e+08
1.00394e+08
1.06782e+08
1.10149e+08
1.14564e+08
1.02223e+08
9.19972e+07
9.78144e+07
9.80424e+07
1.05441e+08
5.2307e+07
4.44304e+07
4.47775e+07
5.23886e+07
5.25853e+07
4.26397e+07
5.12149e+07
4.32451e+07
4.80035e+07
3.95266e+07
5.06435e+07
3.77705e+07
1.08782e+08
1.04153e+08
8.84559e+07
8.39378e+07
9.04075e+07
8.91373e+07
9.43432e+07
1.00169e+08
9.3875e+07
8.71217e+07
9.3418e+07
9.66447e+07
1.16532e+08
1.20514e+08
1.21206e+08
1.13726e+08
1.1016e+08
1.20141e+08
1.10595e+08
1.17333e+08
1.16858e+08
1.15141e+08
1.13121e+08
1.10052e+08
1.19249e+08
1.05538e+08
8.38839e+07
1.03669e+08
8.64582e+07
1.13932e+08
1.03472e+08
1.06881e+08
1.09859e+08
1.09779e+08
9.05421e+07
1.11681e+08
8.80394e+07
1.14243e+08
1.10428e+08
1.08397e+08
9.95079e+07
1.07744e+08
1.02002e+08
9.98174e+07
1.05308e+08
1.03999e+08
1.12029e+08
1.10641e+08
1.04349e+08
1.10563e+08
1.02506e+08
1.15431e+08
1.07833e+08
1.25298e+08
1.15163e+08
1.18128e+08
1.21465e+08
9.21277e+07
1.14569e+08
4.28729e+07
3.97939e+07
3.94114e+07
3.55571e+07
3.96524e+07
3.70072e+07
3.57229e+07
3.89835e+07
3.63678e+07
4.13581e+07
4.29027e+07
3.87739e+07
4.15698e+07
3.81685e+07
4.43376e+07
4.10117e+07
5.45745e+07
4.69405e+07
4.97082e+07
5.17263e+07
5.40008e+07
4.50135e+07
5.57712e+07
4.26449e+07
5.60895e+07
5.51132e+07
5.22897e+07
5.89527e+07
5.05532e+07
3.86798e+07
4.8887e+07
4.09162e+07
4.3838e+07
4.72655e+07
5.07422e+07
4.78054e+07
5.08299e+07
5.22755e+07
4.7088e+07
5.01658e+07
5.40507e+07
4.85535e+07
4.56647e+07
4.41634e+07
4.86811e+07
4.4334e+07
4.51083e+07
4.78971e+07
4.64121e+07
4.55265e+07
4.29851e+07
4.89871e+07
4.16314e+07
3.12464e+07
4.01385e+07
3.32661e+07
4.50427e+07
3.82089e+07
4.06745e+07
4.24893e+07
4.47458e+07
3.69768e+07
4.63366e+07
3.48331e+07
3.74494e+07
3.4242e+07
2.66e+07
2.47025e+07
2.34321e+07
2.74704e+07
2.59333e+07
3.01582e+07
3.13015e+07
2.7471e+07
3.04131e+07
2.7444e+07
2.02728e+07
1.72353e+07
2.24115e+07
1.6169e+07
2.0882e+07
2.74505e+07
3.33687e+07
2.8899e+07
2.62674e+07
2.66422e+07
2.24602e+07
1.90476e+07
2.27323e+07
3.04305e+07
2.25998e+07
2.37925e+07
2.48663e+07
1.75317e+07
1.872e+07
1.2742e+07
1.66925e+07
1.37562e+07
3.85604e+07
4.20282e+07
4.01389e+07
3.58308e+07
3.94779e+07
3.91606e+07
3.63345e+07
3.16473e+07
3.47833e+07
3.26652e+07
3.57623e+07
3.45833e+07
1.28345e+07
1.58782e+07
2.24997e+07
1.58298e+07
1.68849e+07
1.76691e+07
1.15248e+07
1.20544e+07
6.69777e+06
1.03292e+07
7.5276e+06
1.44378e+07
2.11698e+07
2.50545e+07
2.0049e+07
1.90545e+07
1.91978e+07
1.58225e+07
1.33951e+07
1.04443e+07
1.52714e+07
9.55628e+06
2.85306e+07
2.85268e+07
2.31711e+07
2.65734e+07
2.70527e+07
2.37174e+07
2.74101e+07
2.33882e+07
2.27196e+07
2.00982e+07
2.33114e+07
2.45441e+07
1.96663e+07
2.27134e+07
2.36033e+07
2.2162e+07
2.02302e+07
2.28244e+07
1.98661e+07
2.2555e+07
2.51207e+07
1.6452e+07
1.78404e+07
1.9534e+07
2.03042e+07
1.85745e+07
2.3822e+06
-1.14983e+06
-763150
1.52517e+06
3.30763e+06
5.34498e+06
9.98195e+06
5.03979e+06
5.99124e+06
6.34922e+06
2.48817e+06
4.39076e+06
8.84801e+06
8.23281e+06
1.1862e+07
7.6262e+06
5.28869e+06
7.44205e+06
3.24795e+06
798585
4.24275e+06
389399
8.91576e+06
1.36577e+07
1.45048e+07
1.79223e+07
1.00689e+07
1.28627e+07
1.28308e+07
7.61876e+06
4.87211e+06
9.12891e+06
4.22856e+06
7.56207e+06
9.96704e+06
1.57288e+07
1.01559e+07
1.09808e+07
1.1534e+07
6.47112e+06
6.47873e+06
2.09061e+06
5.17311e+06
2.67083e+06
2.16871e+07
1.93313e+07
1.34615e+07
1.19549e+07
1.05388e+07
1.41323e+07
1.23253e+07
1.53679e+07
1.69655e+07
1.40126e+07
1.62843e+07
1.34252e+07
2.76436e+07
3.02942e+07
3.30895e+07
3.07905e+07
3.45658e+07
3.33738e+07
3.57069e+07
3.02846e+07
3.29016e+07
3.13849e+07
2.93797e+07
2.79885e+07
3.16889e+07
2.81454e+07
2.87131e+07
3.11206e+07
3.00952e+07
2.93875e+07
2.74122e+07
3.21273e+07
2.66283e+07
1.88425e+07
2.54797e+07
2.04111e+07
2.90372e+07
2.37187e+07
2.56229e+07
2.70189e+07
2.90791e+07
2.33104e+07
3.03172e+07
2.16153e+07
2.69113e+07
2.45423e+07
2.43348e+07
2.1367e+07
2.46922e+07
2.2685e+07
2.15165e+07
2.4211e+07
2.20096e+07
2.58315e+07
2.72357e+07
2.38022e+07
2.61699e+07
2.33787e+07
2.81344e+07
2.57676e+07
3.65494e+07
3.04984e+07
3.26732e+07
3.42714e+07
3.64405e+07
2.97192e+07
3.78464e+07
2.78093e+07
3.77619e+07
3.69542e+07
4.00515e+07
3.47108e+07
3.3671e+07
2.46571e+07
3.23613e+07
2.64373e+07
-1.14482e+06
-2.08184e+06
-2.06556e+06
-3.34287e+06
-1.66202e+06
-2.50425e+06
-3.20075e+06
-1.83289e+06
-3.05256e+06
-1.43369e+06
-559140
-2.3577e+06
-1.01908e+06
-2.42786e+06
-478040
-1.18595e+06
3.54617e+06
991954
1.93424e+06
2.5024e+06
4.02595e+06
1.70163e+06
4.63117e+06
858697
4.0416e+06
3.78326e+06
2.8144e+06
5.09017e+06
2.79802e+06
-473904
2.23527e+06
302800
-836291
286914
1.62674e+06
574191
2.03401e+06
2.58103e+06
434926
1.85126e+06
2.73875e+06
894522
339259
-579665
1.30109e+06
-456810
-237819
1.10338e+06
695482
509799
-327317
1.60543e+06
-257978
-2.89639e+06
-746643
-2.22414e+06
267987
-1.91232e+06
-1.09079e+06
-644469
808881
-1.02048e+06
1.32987e+06
-1.74789e+06
-4.02194e+06
-4.51568e+06
-6.24869e+06
-6.71403e+06
-7.01373e+06
-6.05302e+06
-6.59905e+06
-5.81687e+06
-5.25687e+06
-6.01228e+06
-5.44194e+06
-6.24894e+06
-7.47094e+06
-9.17907e+06
-7.0951e+06
-9.34509e+06
-6.87835e+06
-6.74335e+06
-5.50514e+06
-6.13859e+06
-6.76526e+06
-6.54552e+06
-6.57042e+06
-7.80785e+06
-9.97906e+06
-8.16555e+06
-9.78676e+06
-3.74924e+06
-3.09917e+06
-3.54122e+06
-4.37392e+06
-4.19912e+06
-3.72364e+06
-4.69975e+06
-5.55915e+06
-4.67624e+06
-5.22014e+06
-4.46751e+06
-5.09192e+06
-8.9484e+06
-1.12209e+07
-9.23452e+06
-1.1018e+07
-8.72289e+06
-1.03926e+07
-8.42652e+06
-1.05858e+07
-6.00343e+06
-5.60745e+06
-6.76002e+06
-6.23612e+06
-6.36233e+06
-6.60392e+06
-6.04119e+06
-7.11017e+06
-6.64996e+06
-7.25376e+06
-6.77911e+06
-7.09468e+06
-7.39762e+06
-6.84085e+06
-6.74098e+06
-7.2527e+06
-7.43499e+06
-6.92506e+06
-7.63766e+06
-6.9085e+06
-6.50109e+06
-8.32489e+06
-8.03803e+06
-7.64074e+06
-7.45393e+06
-7.95167e+06
-1.12072e+07
-1.30664e+07
-1.29108e+07
-1.15126e+07
-1.09295e+07
-1.24847e+07
-1.06191e+07
-1.26134e+07
-9.78849e+06
-1.15672e+07
-9.48332e+06
-1.17287e+07
-1.00579e+07
-1.22095e+07
-1.03714e+07
-1.20505e+07
-7.12722e+06
-7.5172e+06
-8.94144e+06
-9.26975e+06
-9.56885e+06
-8.7488e+06
-9.2109e+06
-8.55041e+06
-8.07802e+06
-8.72495e+06
-8.26692e+06
-8.90744e+06
-5.56143e+06
-4.92506e+06
-4.0435e+06
-4.88906e+06
-3.28225e+06
-3.64008e+06
-3.26312e+06
-4.75834e+06
-3.7982e+06
-4.58479e+06
-4.96962e+06
-5.65603e+06
-4.20987e+06
-5.41698e+06
-5.43838e+06
-4.36096e+06
-4.71749e+06
-4.79942e+06
-5.36248e+06
-4.05472e+06
-5.21153e+06
-6.76878e+06
-5.58669e+06
-6.26723e+06
-5.04872e+06
-6.63453e+06
-5.95894e+06
-5.75419e+06
-4.40989e+06
-5.37961e+06
-4.02077e+06
-5.92151e+06
-5.66352e+06
-6.01046e+06
-6.39215e+06
-7.09891e+06
-6.34996e+06
-6.77079e+06
-6.89336e+06
-6.32187e+06
-6.933e+06
-5.86469e+06
-5.60036e+06
-6.38364e+06
-5.83078e+06
-6.33373e+06
-5.51381e+06
-5.75323e+06
-2.57733e+06
-4.43539e+06
-3.71235e+06
-3.37653e+06
-1.98537e+06
-3.36332e+06
-1.53283e+06
-3.99347e+06
-2.20594e+06
-2.33175e+06
-1.42141e+06
-3.04865e+06
-2.90839e+06
-4.97957e+06
-3.33466e+06
-4.39849e+06
-1.49997e+07
-1.56096e+07
-1.54484e+07
-1.60689e+07
-1.47064e+07
-1.52909e+07
-1.56337e+07
-1.46276e+07
-1.61735e+07
-1.48025e+07
-1.3609e+07
-1.4621e+07
-1.41694e+07
-1.50066e+07
-1.42268e+07
-1.4028e+07
-1.15536e+07
-1.23159e+07
-1.18835e+07
-1.18556e+07
-1.06841e+07
-1.01615e+07
-1.05558e+07
-1.0192e+07
-1.12041e+07
-1.10716e+07
-1.13706e+07
-1.10185e+07
-1.09237e+07
-1.02361e+07
-1.10995e+07
-1.02107e+07
-1.44966e+07
-1.39249e+07
-1.26964e+07
-1.27977e+07
-1.25268e+07
-1.19248e+07
-1.30296e+07
-1.21655e+07
-1.22908e+07
-1.32486e+07
-1.3162e+07
-1.39759e+07
-1.29827e+07
-1.35964e+07
-1.38317e+07
-1.27033e+07
-1.23732e+07
-1.25221e+07
-1.29931e+07
-1.20899e+07
-1.1527e+07
-9.97342e+06
-1.17652e+07
-1.00524e+07
-1.27286e+07
-1.41798e+07
-1.35547e+07
-1.30865e+07
-1.1385e+07
-1.02098e+07
-1.1224e+07
-1.01795e+07
-1.75147e+07
-1.79605e+07
-1.89968e+07
-1.9334e+07
-1.99142e+07
-1.88782e+07
-1.96287e+07
-1.91269e+07
-1.83746e+07
-1.89519e+07
-1.8521e+07
-1.94442e+07
-1.93551e+07
-1.98832e+07
-1.86148e+07
-2.05847e+07
-2.00792e+07
-2.20827e+07
-2.08647e+07
-2.13209e+07
-1.70023e+07
-1.63323e+07
-1.5938e+07
-1.68919e+07
-1.66523e+07
-1.64668e+07
-1.73244e+07
-1.8678e+07
-1.77476e+07
-1.76647e+07
-1.71792e+07
-1.79788e+07
-2.20804e+07
-2.38093e+07
-2.2242e+07
-2.36337e+07
-2.19226e+07
-2.27914e+07
-2.15588e+07
-2.33658e+07
-1.8103e+07
-1.82317e+07
-1.9064e+07
-1.8395e+07
-1.84085e+07
-1.89121e+07
-1.82775e+07
-1.94677e+07
-1.87088e+07
-1.96006e+07
-2.17518e+07
-2.14247e+07
-2.11816e+07
-2.03718e+07
-2.13151e+07
-2.06518e+07
-1.90019e+07
-2.01503e+07
-1.99894e+07
-1.70956e+07
-1.59556e+07
-1.61881e+07
-1.44009e+07
-4.68966e+06
-1.38194e+07
-1.70555e+07
-1.67672e+07
-1.64641e+07
-1.29439e+07
-4.0025e+06
-1.32817e+07
-1.90397e+07
-1.84389e+07
-1.88016e+07
-1.91294e+07
-1.83531e+07
-1.87789e+07
-1.98212e+07
-1.98043e+07
-1.93639e+07
-1.8127e+07
-1.8141e+07
-1.83497e+07
-1.93529e+07
-2.00882e+07
-1.9935e+07
-1.9501e+07
-2.03751e+07
-1.95875e+07
-1.92323e+07
-2.08282e+07
-2.03517e+07
-2.02107e+07
-1.99445e+07
-2.05268e+07
-2.24572e+07
-2.3754e+07
-2.27313e+07
-2.19981e+07
-2.20273e+07
-2.23842e+07
-2.41405e+07
-2.28959e+07
-2.25152e+07
-2.39879e+07
-2.23459e+07
-2.40615e+07
-2.25874e+07
-2.4301e+07
-2.27601e+07
-2.43429e+07
-1.96851e+07
-2.0839e+07
-2.03798e+07
-1.79111e+07
-1.75557e+07
-1.71111e+07
-1.6613e+07
-1.58002e+07
-1.61107e+07
-1.66639e+07
-1.68084e+07
-1.63636e+07
-1.73582e+07
-1.72377e+07
-1.75403e+07
-1.65946e+07
-1.7412e+07
-1.76886e+07
-1.67846e+07
-1.69199e+07
-1.69259e+07
-1.52074e+07
-5.1944e+06
-1.52691e+07
-1.71048e+07
-1.71389e+07
-1.70539e+07
-7.53119e+06
-1.68493e+07
-1.78858e+07
-1.7468e+07
-1.77483e+07
-1.75799e+07
-1.49288e+07
-1.70842e+07
-1.59836e+07
-1.67087e+07
-1.22037e+07
-9.70119e+06
-1.17057e+07
-9.36374e+06
-1.39074e+07
-1.4393e+07
-1.34173e+07
-1.50261e+07
-1.2536e+07
-5.72274e+06
-1.43578e+07
-8.39145e+06
4.46271e+07
4.42757e+07
4.17443e+07
4.3362e+07
3.91732e+07
1.83317e+07
1.94849e+07
2.34629e+07
2.22257e+07
3.17975e+07
3.04234e+07
2.62896e+07
2.76046e+07
4.41025e+07
4.37688e+07
4.16257e+07
4.24458e+07
3.4548e+07
3.59002e+07
3.95692e+07
3.83823e+07
8.38333e+07
8.31983e+07
7.7435e+07
8.29554e+07
8.63271e+07
7.66462e+07
8.15682e+07
9.37548e+07
9.45017e+07
8.3113e+07
8.86412e+07
9.10287e+07
8.39734e+07
9.03097e+07
6.44614e+07
6.86805e+07
7.28344e+07
6.89245e+07
7.25279e+07
7.40451e+07
6.79036e+07
7.14879e+07
7.6701e+07
7.0102e+07
6.60417e+07
6.44544e+07
6.9934e+07
6.46291e+07
6.58954e+07
6.88144e+07
6.67376e+07
6.5699e+07
6.25904e+07
6.99253e+07
6.03954e+07
4.68872e+07
5.85595e+07
4.93437e+07
6.51097e+07
5.66737e+07
6.19642e+07
5.97337e+07
6.41707e+07
5.38084e+07
6.61216e+07
5.12213e+07
6.31971e+07
5.93808e+07
5.87474e+07
5.3802e+07
5.87607e+07
5.5336e+07
5.39746e+07
5.49146e+07
5.78325e+07
6.12188e+07
6.26959e+07
5.78908e+07
6.11526e+07
5.70266e+07
6.48729e+07
6.03366e+07
7.65937e+07
6.74214e+07
7.07428e+07
7.31475e+07
7.5152e+07
6.3137e+07
7.72187e+07
6.04047e+07
7.82709e+07
7.71323e+07
7.38246e+07
8.1765e+07
7.10938e+07
5.58097e+07
6.91234e+07
5.84466e+07
5.94085e+07
6.38654e+07
6.10565e+07
5.57431e+07
6.21545e+07
5.9977e+07
5.82006e+07
5.21487e+07
5.45486e+07
5.18803e+07
5.56827e+07
5.59658e+07
2.62877e+07
1.98805e+07
2.40454e+07
2.10421e+07
2.60651e+07
3.03205e+07
3.95535e+07
3.06987e+07
3.16833e+07
2.43822e+07
3.3108e+07
2.80935e+07
3.76624e+07
4.28733e+07
3.58192e+07
3.44577e+07
3.5133e+07
2.98312e+07
2.80455e+07
2.4942e+07
2.37158e+07
3.03509e+07
5.80564e+07
5.38759e+07
4.41031e+07
4.17286e+07
4.11917e+07
4.51649e+07
4.45692e+07
5.01766e+07
5.01091e+07
4.52883e+07
4.90385e+07
4.65701e+07
3.63809e+07
3.29891e+07
3.16529e+07
3.85408e+07
3.44795e+07
2.77276e+07
2.90096e+07
3.21924e+07
8.30306e+07
7.81107e+07
6.58122e+07
6.27428e+07
6.43222e+07
6.69216e+07
6.84498e+07
7.50586e+07
7.25764e+07
6.67449e+07
7.15216e+07
7.0861e+07
5.06956e+07
4.45352e+07
5.1264e+07
4.37142e+07
4.91882e+07
4.18383e+07
4.29681e+07
4.79686e+07
8.45249e+07
8.96154e+07
8.38936e+07
8.81246e+07
7.76432e+07
8.30924e+07
8.41093e+07
7.74131e+07
7.74587e+07
7.38524e+07
7.84769e+07
8.16481e+07
4.24902e+07
3.55067e+07
3.68691e+07
4.05059e+07
4.44381e+07
4.02777e+07
3.89537e+07
4.60731e+07
8.76423e+07
8.33508e+07
8.22851e+07
7.5884e+07
8.19808e+07
7.75635e+07
7.60619e+07
7.78293e+07
8.05813e+07
8.53318e+07
8.6128e+07
8.06759e+07
8.47525e+07
7.94266e+07
8.9335e+07
8.33565e+07
1.01472e+08
9.11725e+07
9.47447e+07
9.74832e+07
9.84491e+07
8.20422e+07
1.00546e+08
7.92828e+07
1.02954e+08
1.0143e+08
1.07018e+08
9.8059e+07
9.40642e+07
7.47189e+07
9.20538e+07
7.74491e+07
8.93366e+07
9.40322e+07
9.86228e+07
9.27192e+07
9.85532e+07
9.76454e+07
1.02454e+08
9.12319e+07
9.57138e+07
9.53202e+07
8.97411e+07
8.7797e+07
9.47987e+07
8.80097e+07
9.07166e+07
9.29863e+07
9.04412e+07
8.91802e+07
8.57368e+07
9.42782e+07
8.24047e+07
6.51938e+07
8.03623e+07
6.7933e+07
8.88075e+07
7.89739e+07
8.50716e+07
8.24721e+07
8.66777e+07
7.27051e+07
8.8833e+07
6.98772e+07
1.57135e+07
1.46901e+07
1.13038e+07
1.22493e+07
5.53552e+06
6.24225e+06
9.05441e+06
8.27138e+06
-1.94788e+06
-1.58854e+06
-70845.5
-434121
3.77148e+06
3.24531e+06
1.21004e+06
1.6948e+06
-9.35122e+06
-9.15733e+06
-8.47875e+06
-8.67604e+06
-6.95858e+06
-7.18069e+06
-7.98726e+06
-7.76433e+06
-2.89973e+06
-3.19081e+06
-4.38428e+06
-4.08603e+06
-6.35837e+06
-6.10214e+06
-5.13146e+06
-5.38481e+06
1.18244e+07
1.12229e+07
9.11454e+06
1.17215e+07
1.26545e+07
8.79962e+06
1.12894e+07
1.56308e+07
1.55275e+07
1.13748e+07
1.41475e+07
1.45293e+07
1.17911e+07
1.47791e+07
6.05687e+06
7.55564e+06
9.27913e+06
7.89943e+06
9.67421e+06
1.0401e+07
7.66051e+06
9.42904e+06
1.07744e+07
8.30005e+06
7.41562e+06
6.33802e+06
8.70559e+06
6.46295e+06
6.78995e+06
8.42412e+06
7.90091e+06
7.56458e+06
6.44195e+06
9.10674e+06
6.32149e+06
2.34092e+06
5.6722e+06
3.23753e+06
7.32312e+06
4.3399e+06
6.12755e+06
5.42492e+06
7.73865e+06
4.86096e+06
8.43847e+06
3.88875e+06
5.6454e+06
4.32514e+06
4.32519e+06
2.62328e+06
4.73344e+06
3.62106e+06
2.74587e+06
3.02011e+06
4.49871e+06
5.17355e+06
6.2108e+06
3.96713e+06
5.5759e+06
3.77957e+06
6.4682e+06
5.36644e+06
1.16761e+07
8.20569e+06
9.45638e+06
1.031e+07
1.20196e+07
8.5356e+06
1.28303e+07
7.41128e+06
1.23494e+07
1.19254e+07
1.06299e+07
1.37287e+07
1.03858e+07
5.60589e+06
9.6352e+06
6.64343e+06
1.99933e+06
3.34467e+06
2.2994e+06
551430
721648
1.89935e+06
-335530
-1.83505e+06
160798
-775281
572161
-984350
-6.3957e+06
-8.73723e+06
-6.8011e+06
-8.55242e+06
-5.85983e+06
-5.98478e+06
-4.46192e+06
-5.83022e+06
-5.90539e+06
-6.19562e+06
-5.37927e+06
-5.38464e+06
-4.47055e+06
-3.56982e+06
-5.06775e+06
-5.0892e+06
-4.94944e+06
-5.03114e+06
-6.00824e+06
-7.84587e+06
-8.03452e+06
-5.57435e+06
1.50556e+06
312568
-2.73021e+06
-3.37895e+06
-3.89327e+06
-2.45303e+06
-3.33677e+06
-2.2503e+06
-1.13383e+06
-2.29845e+06
-1.39555e+06
-2.86923e+06
-3.64266e+06
-2.91102e+06
-954791
-2.4326e+06
-2.98616e+06
-3.02684e+06
-3.22818e+06
-4.30149e+06
-6.27262e+06
-6.48793e+06
-3.79446e+06
-4.20087e+06
-4.10019e+06
-2.10433e+06
-4.12969e+06
-3.99136e+06
-3.55042e+06
-4.59391e+06
-4.75765e+06
-7.31992e+06
-7.10676e+06
-5.23147e+06
1.0021e+07
8.32077e+06
3.87144e+06
2.71669e+06
1.37767e+06
4.36904e+06
2.62271e+06
4.77301e+06
6.42447e+06
4.24796e+06
5.92969e+06