/*--------------------------------*- C++ -*----------------------------------*\
| =========                 |                                                 |
| \\      /  F ield         | OpenFOAM: The Open Source CFD Toolbox           |
|  \\    /   O peration     | Version:  2012                                  |
|   \\  /    A nd           | Website:  www.openfoam.com                      |
|    \\/     M anipulation  |                                                 |
\*---------------------------------------------------------------------------*/
FoamFile
{
    version     2.0;
    format      ascii;
    class       volVectorField;
    location    "0.108/solid";
    object      sigmaMidDir;
}
// * * * * * * * * * * * * * * * * * * * * * * * * * * * * * * * * * * * * * //

dimensions      [1 -1 -2 0 0 0 0];


internalField   nonuniform List<vector> 
3125
(
(0.130555 0.0404543 0.990615)
(0.149 0.0841668 0.985249)
(0.614421 0.107909 0.781564)
(0.11796 0.0367049 0.99234)
(0.140578 0.0791965 0.986897)
(0.537734 0.145882 0.830398)
(-0.0772144 0.115805 0.990266)
(0.134459 0.060066 0.989097)
(0.221115 0.110293 0.968991)
(-0.0239807 0.0875745 0.995869)
(0.133661 0.065523 0.988859)
(0.274996 0.12546 0.953224)
(0.688448 -0.678178 -0.257126)
(0.0819868 0.0140414 0.996534)
(0.0619636 0.173991 0.982796)
(0.134895 0.0469564 0.989747)
(0.709635 -0.688382 -0.150159)
(0.0996873 0.203197 0.97405)
(0.0871652 0.0169975 0.996049)
(0.608962 0.683634 0.402255)
(0.0901988 0.0533313 0.994495)
(0.44092 0.500886 0.744784)
(0.163012 0.0904374 0.98247)
(-0.0567356 0.23239 0.970967)
(0.57291 0.596406 0.562206)
(0.103201 0.0598107 0.992861)
(0.563975 -0.359594 0.743387)
(0.779555 0.150923 0.607879)
(0.690221 0.440902 0.57376)
(0.673011 0.0197653 0.739368)
(0.745149 0.663199 0.0701409)
(0.482989 0.12279 0.866974)
(0.834329 0.0619298 0.547777)
(0.0861165 0.180984 0.979708)
(-0.00861761 0.198925 0.979977)
(0.715572 -0.684319 -0.140229)
(0.0904298 0.0402316 0.99509)
(0.068195 0.0161666 0.997541)
(0.0414796 0.174292 0.98382)
(0.714416 -0.685656 -0.139591)
(-0.163212 0.299304 0.940095)
(0.0414763 0.0269974 0.998775)
(0.101327 0.191824 0.976185)
(0.143944 0.240979 0.959796)
(0.495196 0.548093 0.674073)
(0.371941 0.45364 0.809858)
(-0.206174 0.284786 0.936157)
(0.135925 0.0747431 0.987896)
(0.0836211 0.0481048 0.995336)
(0.393277 0.46384 0.793842)
(-0.0789289 0.237029 0.968291)
(0.271904 0.365967 0.89002)
(0.0810832 0.0432886 0.995767)
(0.533659 0.574239 0.620853)
(0.624043 0.624821 0.469222)
(0.714697 0.511683 0.476853)
(0.726952 0.59566 0.341656)
(0.725991 0.685942 0.0491932)
(0.444137 0.153491 0.882714)
(0.690806 0.196371 0.695863)
(0.710763 0.499702 0.49509)
(0.741878 0.667266 0.0661281)
(0.720521 0.593309 0.358934)
(0.548616 0.192024 0.813725)
(0.69436 0.460227 0.553223)
(0.473729 0.190511 0.859818)
(-0.366762 0.507065 0.779981)
(-0.0725421 0.093999 0.992926)
(0.704491 -0.672618 -0.226446)
(-0.49157 0.807709 0.325522)
(-0.0519766 0.0370887 0.997959)
(0.0210206 0.00737852 0.999752)
(0.0354064 -0.00554936 0.999358)
(0.648421 -0.612715 -0.451808)
(-0.195817 0.481466 0.854311)
(0.675279 -0.673201 -0.301328)
(0.135352 0.0538004 0.989336)
(0.153693 0.261766 0.952815)
(0.0854866 0.0277581 0.995953)
(0.110058 0.216488 0.970062)
(-0.52897 0.555803 0.641306)
(0.0874311 0.0220578 0.995926)
(0.226818 0.619926 0.751163)
(-0.0726654 0.482045 0.873128)
(0.0318868 -0.000750588 0.999491)
(0.0296533 0.00588909 0.999543)
(0.0165358 0.01955 0.999672)
(0.0237308 0.014814 0.999609)
(0.602616 0.773954 0.194549)
(0.620027 0.771722 0.141462)
(0.647711 0.694883 0.312425)
(0.185475 0.0986312 0.977687)
(0.672121 0.634638 0.38143)
(0.169628 0.0836107 0.981955)
(0.604859 0.615771 0.504947)
(0.710501 0.699279 0.0787184)
(0.126921 0.0689282 0.989515)
(0.643176 0.757803 0.109813)
(0.624239 0.770238 0.130612)
(0.0643531 0.0186183 0.997753)
(0.0285091 0.0215286 0.999362)
(0.957413 0.143846 0.250338)
(0.996536 0.0449781 0.0699477)
(0.660127 0.717605 0.221982)
(0.33679 0.147422 0.929967)
(0.559229 -0.484039 0.67303)
(0.74814 -0.0637962 0.660467)
(0.326713 -0.00846734 0.945086)
(0.949715 0.00308735 0.313101)
(0.204717 -0.0705 0.976279)
(0.998965 0.0409791 0.0197379)
(-0.273558 0.426684 0.862037)
(-0.27198 0.407075 0.871961)
(-0.0886339 0.247791 0.964751)
(0.718726 -0.680437 -0.142962)
(0.0412913 0.0571976 0.997509)
(-0.403503 0.513627 0.757214)
(-0.0437839 0.0757519 0.996165)
(0.704822 -0.676493 -0.213503)
(-0.310001 0.405384 0.859978)
(0.000947058 0.0487971 0.998808)
(0.0228725 -0.00242665 0.999735)
(-0.0119026 0.0231013 0.999662)
(0.714596 -0.622574 -0.31899)
(0.730596 -0.655113 -0.192499)
(-0.569114 0.775134 0.274365)
(0.711111 -0.675524 -0.194907)
(-0.0550196 0.0475195 0.997354)
(-0.0147634 0.0161654 0.99976)
(0.219255 0.321385 0.921216)
(0.158338 0.258993 0.952813)
(0.24231 0.343303 0.90743)
(0.336032 0.424342 0.840843)
(-0.240126 0.312473 0.919076)
(0.133901 0.0703178 0.988497)
(0.170437 0.278427 0.945214)
(0.0829961 0.0332665 0.995994)
(-0.467378 0.504161 0.726209)
(0.241778 0.340396 0.908666)
(0.081223 0.0384421 0.995954)
(0.0184482 0.0111442 0.999768)
(0.0186971 0.0156863 0.999702)
(0.589884 0.776888 0.220188)
(0.539204 0.774347 0.331127)
(0.330629 0.682781 0.651532)
(0.505784 0.767653 0.393563)
(0.0253822 0.0104308 0.999623)
(0.0237822 0.00569248 0.999701)
(0.681106 0.713862 0.162776)
(0.690644 0.638067 0.340413)
(0.644033 0.632241 0.430689)
(0.691641 0.710505 0.129674)
(0.694873 0.702869 0.152073)
(0.70145 0.634667 0.324293)
(0.723111 0.610421 0.323259)
(0.702669 0.676917 0.21918)
(0.702517 0.6976 0.140798)
(0.691816 0.710919 0.126434)
(0.699391 0.702457 0.131936)
(0.723765 0.688194 0.0505249)
(0.35121 0.142538 0.925383)
(0.686759 0.632417 0.358344)
(0.246504 0.108971 0.962996)
(0.71339 0.696819 0.0742789)
(0.715459 0.609044 0.342321)
(0.377258 0.149822 0.913909)
(0.925448 0.166871 0.340148)
(0.529638 0.121439 0.839486)
(0.670012 0.723559 0.16597)
(0.671302 0.733247 0.108178)
(0.651589 0.75126 0.10507)
(0.66518 0.739467 0.103556)
(0.0917974 0.026181 0.995433)
(0.317747 0.0652334 0.945929)
(0.697039 0.660813 0.278321)
(0.43393 0.401868 0.806354)
(0.697625 -0.0590415 0.714026)
(0.296652 0.0830141 0.951371)
(-0.406163 0.61355 0.677192)
(0.246473 -0.285979 0.925995)
(0.814608 -0.298775 0.497139)
(0.161895 -0.116814 0.97987)
(0.867996 -0.275098 0.413406)
(0.778789 -0.301528 0.550062)
(0.156622 -0.124771 0.979746)
(0.0798402 0.0634838 0.994784)
(0.699381 -0.686371 -0.199399)
(-0.112361 0.228004 0.967155)
(-3.60347e-05 0.0996806 0.995019)
(-0.00563753 0.0777144 0.99696)
(-0.163087 0.262715 0.950991)
(0.0702394 0.112813 0.991131)
(0.0593093 0.105639 0.992634)
(0.706209 -0.685556 -0.176868)
(-0.0500756 0.117854 0.991768)
(-0.444761 0.480094 0.756107)
(0.0712215 0.0577522 0.995787)
(-0.0277517 0.118725 0.992539)
(-0.271273 0.344786 0.898629)
(0.187962 0.181697 0.965224)
(0.111032 0.329962 0.937442)
(0.493685 0.559772 0.66553)
(0.129201 0.167782 0.977321)
(0.0830633 0.126411 0.988494)
(0.403687 0.490004 0.772615)
(0.248283 0.254581 0.934636)
(0.188837 0.217407 0.95764)
(0.0558989 0.29879 0.952681)
(0.0526254 0.111107 0.992414)
(0.226389 0.348519 0.909551)
(0.147389 0.155484 0.976781)
(0.0848873 0.144128 0.985911)
(0.294561 0.404045 0.866015)
(0.696753 0.115805 0.707901)
(0.796588 0.52806 0.294279)
(0.528977 -0.0528616 0.846988)
(0.696608 0.0426577 0.716182)
(0.753034 0.215078 0.621837)
(0.639861 0.189776 0.744689)
(0.623749 -0.0173483 0.781432)
(0.715719 0.218542 0.663314)
(0.775193 0.608432 0.169959)
(0.794091 0.400702 0.457009)
(0.747663 0.509215 0.426264)
(0.727569 0.277906 0.627226)
(0.774559 0.32018 0.545475)
(0.716342 0.38739 0.58033)
(-0.0387825 0.163046 0.985856)
(0.718163 -0.683547 -0.130405)
(0.697691 -0.651608 -0.297716)
(-0.54568 0.616242 0.567873)
(-0.0605603 0.155098 0.986041)
(-0.452751 0.534959 0.713327)
(0.694937 -0.647079 -0.313609)
(0.03863 0.0757691 0.996377)
(0.714213 -0.687102 -0.133383)
(-0.138412 0.225483 0.964365)
(0.612546 -0.598079 -0.516806)
(0.0323823 0.113766 0.99298)
(-0.278942 0.354182 0.892607)
(0.672292 -0.638332 -0.374907)
(0.123753 0.175122 0.976738)
(-0.154403 0.255696 0.954348)
(0.0661046 0.2318 0.970515)
(0.0230275 0.0967575 0.995042)
(0.10489 0.124447 0.986667)
(0.0413258 0.123258 0.991514)
(0.0893219 0.247044 0.964879)
(0.121656 0.137869 0.982951)
(-0.130857 0.240412 0.96181)
(0.058491 0.13135 0.989609)
(0.162815 0.299707 0.940036)
(0.149959 0.192727 0.969726)
(0.0345397 0.10269 0.994114)
(0.125211 0.271103 0.954372)
(0.706594 0.422203 0.567864)
(0.730949 0.680554 0.0505893)
(0.735541 0.64026 0.221466)
(0.770549 0.524449 0.362226)
(0.694962 0.428425 0.577477)
(0.765078 0.503912 0.40091)
(0.740685 0.628655 0.23702)
(0.724475 0.378399 0.576151)
(0.733209 0.678148 0.0501933)
(0.781786 0.44765 0.434074)
(0.750428 0.572536 0.330243)
(0.723286 0.347632 0.596665)
(0.791243 0.487607 0.369017)
(0.74899 0.60495 0.270278)
(-0.226847 0.336977 0.913776)
(0.68548 -0.663761 -0.299229)
(-0.475753 0.536839 0.696751)
(-0.346758 0.441492 0.827552)
(-0.254431 0.334469 0.907412)
(0.68858 -0.668736 -0.280444)
(-0.597832 0.611247 0.518627)
(-0.466026 0.547977 0.694652)
(-0.545693 0.582458 0.602463)
(-0.41979 0.492389 0.762449)
(-0.288313 0.377585 0.879946)
(-0.563076 0.736911 0.374042)
(-0.40318 0.826621 0.392612)
(-0.595239 0.704809 0.385921)
(-0.539433 0.674289 0.504328)
(-0.292687 0.827223 0.479622)
(-0.491804 0.665765 0.561146)
(-0.623195 0.736228 0.263812)
(-0.593963 0.734341 0.32856)
(-0.386486 0.519221 0.762259)
(-0.341848 0.504244 0.793018)
(-0.0614043 0.0514228 0.996787)
(-0.326962 0.459435 0.825842)
(-0.480587 0.630489 0.609524)
(-0.424155 0.529656 0.734545)
(-0.0489193 0.0352873 0.998179)
(-0.257673 0.379752 0.888478)
(-0.0201739 0.0947233 0.995299)
(-0.0613928 0.0979817 0.993293)
(-0.0669751 0.10715 0.991984)
(0.0320162 -0.00555654 0.999472)
(0.00545622 0.0285883 0.999576)
(-0.178711 0.247088 0.952371)
(-0.0551728 0.133351 0.989532)
(0.0151331 0.0191809 0.999701)
(0.0278121 0.00539535 0.999599)
(-0.0309671 0.0585888 0.997802)
(-0.60672 0.61644 0.501889)
(-0.663903 0.679993 0.311196)
(0.681791 -0.67137 -0.290557)
(-0.522304 0.574376 0.63031)
(-0.583066 0.599619 0.54817)
(-0.689141 0.698897 0.191385)
(0.687851 -0.656295 -0.310061)
(-0.365106 0.464678 0.806704)
(-0.339129 0.518181 0.785163)
(-0.549221 0.584018 0.597728)
(0.0769455 0.124418 0.989242)
(-0.0777262 0.208329 0.974965)
(-0.642692 0.647692 0.409196)
(0.00464553 0.0745117 0.997209)
(0.0818433 0.0756326 0.993771)
(-0.0564383 0.201515 0.977858)
(0.0097572 0.10018 0.994922)
(0.0836895 0.0888418 0.992524)
(-0.609744 0.624535 0.488025)
(-0.0224259 0.198257 0.979894)
(0.0155143 0.105394 0.99431)
(-0.03707 0.197265 0.979649)
(0.00827815 0.0795856 0.996794)
(0.0838129 0.136748 0.987054)
(-0.561098 0.611973 0.557367)
(-0.436783 0.524834 0.730596)
(0.131608 0.561742 0.816777)
(-0.0868514 0.355437 0.930656)
(-0.132909 0.316293 0.939305)
(-0.279997 0.394996 0.874974)
(0.0232015 0.507756 0.861189)
(-0.196302 0.376352 0.905442)
(-0.2591 0.438731 0.860455)
(-0.354925 0.468977 0.808758)
(-0.036826 0.0692988 0.996916)
(-0.00979519 0.0882972 0.996046)
(0.00996798 0.0347217 0.999347)
(0.0283582 0.00785882 0.999567)
(-0.0199419 0.0474016 0.998677)
(-0.00554982 0.0895889 0.995963)
(-0.0305719 0.0649565 0.99742)
(-0.0211328 0.0469458 0.998674)
(0.0348367 -0.00364689 0.999386)
(0.0139003 0.0252854 0.999584)
(0.0703386 0.109616 0.991482)
(-0.00292272 0.0654625 0.997851)
(-0.0178888 0.0536536 0.998399)
(0.0189733 0.013207 0.999733)
(0.0157238 0.0583415 0.998173)
(-0.014618 0.0662344 0.997697)
(0.0394026 0.100969 0.994109)
(0.0313131 0.0600085 0.997707)
(0.0196855 0.0207572 0.999591)
(-0.00918174 0.0513146 0.99864)
(0.622331 0.761495 0.181186)
(0.641906 0.740325 0.199689)
(0.56913 0.739607 0.359267)
(0.609868 0.772897 0.17519)
(0.575914 0.765062 0.288102)
(0.588408 0.728378 0.351058)
(0.589625 0.761593 0.268921)
(0.603699 0.770708 0.203856)
(0.615432 0.7729 0.154498)
(0.610312 0.75883 0.227366)
(0.339426 0.31015 0.88803)
(0.584016 0.620404 0.523474)
(0.697344 0.704489 0.131933)
(0.141185 0.159121 0.977112)
(0.254561 0.223848 0.940793)
(0.629584 0.648505 0.427861)
(0.212636 0.21671 0.952797)
(0.36262 0.291059 0.88532)
(0.702339 0.701797 0.119171)
(0.68291 0.668072 0.295488)
(0.381986 0.323628 0.865651)
(0.665468 0.662482 0.343904)
(0.273522 0.242561 0.930779)
(0.462593 0.38069 0.800676)
(0.661554 0.737655 0.134949)
(0.639213 0.757394 0.133269)
(0.637443 0.761882 0.114905)
(0.623201 0.771791 0.12633)
(0.635794 0.761761 0.124441)
(0.628183 0.760959 0.162256)
(0.629367 0.767189 0.123765)
(0.61701 0.771805 0.153678)
(0.649299 0.753023 0.106621)
(0.671461 0.734273 0.0999147)
(0.0195104 0.068272 0.997476)
(0.133567 0.134603 0.981856)
(0.162458 0.0994302 0.981693)
(0.0482109 0.0224897 0.998584)
(0.0763122 0.0695639 0.994654)
(0.307905 0.22404 0.924663)
(0.0765536 0.0888224 0.993101)
(0.0103681 0.0508369 0.998653)
(0.0361827 0.016194 0.999214)
(0.0648418 0.066301 0.995691)
(0.838414 0.126158 0.530233)
(0.87594 0.326789 0.354876)
(0.920731 0.358759 0.153452)
(0.974443 0.103842 0.19919)
(0.919721 0.313824 0.235858)
(0.871876 0.434106 0.226683)
(0.868979 0.341519 0.358108)
(0.921297 0.205447 0.330156)
(0.989258 0.0729877 0.126654)
(0.929665 0.28366 0.235074)
(0.584939 -0.311195 0.749002)
(0.64795 0.294614 0.702399)
(0.65498 0.720996 0.226198)
(0.636084 0.684143 0.356856)
(0.607512 0.543647 0.579118)
(0.698803 0.707399 0.106118)
(0.687144 0.556928 0.466545)
(0.447371 -0.0991079 0.88884)
(0.5448 0.510586 0.665202)
(0.584536 0.381969 0.715833)
(0.343932 -0.290032 0.89308)
(0.446814 -0.266864 0.853897)
(-0.672188 0.688842 -0.271404)
(0.610622 -0.175868 0.772147)
(0.553598 -0.183177 0.812389)
(0.166682 -0.246886 0.954602)
(0.384693 -0.411813 0.826088)
(0.0957896 -0.111762 0.989108)
(-0.0850748 0.0332159 0.995821)
(-0.0995199 0.00316087 0.995031)
(0.0657512 -0.043442 0.99689)
(0.260612 -0.294389 0.919465)
(0.994714 -0.0547042 0.0868978)
(0.357376 -0.546342 0.757492)
(0.915622 -0.231595 0.328633)
(0.104622 -0.137013 0.985029)
(-0.690696 0.712763 -0.122097)
(-0.0707525 -0.0426956 0.99658)
(0.166562 -0.345755 0.923423)
(0.611095 -0.439721 0.658186)
(0.769199 -0.625542 0.130501)
(-0.156372 -0.03246 0.987165)
(-0.157547 -0.0369977 0.986818)
(0.471018 -0.222846 0.853511)
(-0.092589 0.0012985 0.995704)
(-0.308589 0.0929283 0.946645)
(0.308219 -0.429456 0.848863)
(0.82203 0.0543938 0.56684)
(0.411449 -0.534982 0.737905)
(0.985167 0.113032 -0.129112)
(0.37228 -0.634489 0.677371)
(0.215959 -0.472082 0.854693)
(0.937098 0.191397 0.291914)
(0.991996 0.108456 -0.0646649)
(0.6685 -0.305592 0.678027)
(-0.219322 0.290429 0.931423)
(0.712898 -0.681048 -0.167181)
(0.694931 -0.648831 -0.309983)
(-0.554012 0.625382 0.549517)
(-0.178018 0.27435 0.945009)
(0.682911 -0.647564 -0.338072)
(-0.562698 0.627708 0.537916)
(-0.285453 0.365304 0.886042)
(0.714735 -0.677139 -0.175034)
(0.637398 -0.63015 -0.443435)
(-0.5167 0.582611 0.627364)
(-0.285971 0.351851 0.891303)
(0.664999 -0.639901 -0.385102)
(-0.536644 0.609151 0.583908)
(-0.542448 0.701423 0.462338)
(-0.487567 0.662388 0.568788)
(-0.041915 0.0937768 0.994711)
(0.00787821 0.0131298 0.999883)
(-0.169726 0.253952 0.952209)
(-0.212001 0.327996 0.920584)
(-0.47711 0.628666 0.614122)
(-0.321775 0.471408 0.821118)
(0.00693921 0.00485486 0.999964)
(-0.197183 0.319308 0.926909)
(-0.679733 0.719811 0.140842)
(0.711232 -0.682568 -0.168078)
(0.681196 -0.658162 -0.320616)
(0.735261 -0.631598 -0.245917)
(0.699018 -0.689618 -0.189213)
(0.711798 -0.670587 -0.208944)
(-0.689804 0.709274 0.145261)
(-0.690385 0.7008 0.179579)
(0.741294 -0.637963 -0.208536)
(0.697617 -0.677462 -0.233186)
(-0.696251 0.698157 0.166769)
(-0.660985 0.731274 0.168336)
(-0.623593 0.709648 0.32792)
(-0.629182 0.739836 0.238269)
(-0.653396 0.704179 0.277859)
(-0.633271 0.739683 0.227678)
(-0.66679 0.718324 0.198498)
(-0.68558 0.691806 0.226683)
(-0.676338 0.706215 0.209347)
(-0.6669 0.710156 0.225663)
(-0.534017 0.707535 0.462839)
(-0.538322 0.685623 0.490031)
(-0.378055 0.538339 0.75317)
(-0.0373059 0.0287705 0.99889)
(-0.376818 0.564639 0.734296)
(-0.503644 0.632403 0.588565)
(-0.524015 0.68758 0.502635)
(-0.351184 0.537913 0.766368)
(-0.0351896 0.0360609 0.99873)
(-0.384385 0.555844 0.737079)
(0.0940529 0.112762 0.989161)
(-0.312252 0.37003 0.874972)
(0.0427319 0.219609 0.974652)
(0.0296918 0.117085 0.992678)
(0.105647 0.161231 0.981246)
(0.0259693 0.210875 0.977168)
(0.0157489 0.0914721 0.995683)
(0.0928894 0.148842 0.984488)
(-0.365756 0.416176 0.832478)
(-0.00620208 0.199826 0.979812)
(0.0111202 0.0856617 0.996262)
(0.0872942 0.10113 0.991036)
(0.00805514 0.204806 0.978769)
(0.0215498 0.111254 0.993558)
(-0.0256579 0.0680966 0.997349)
(0.0103431 0.0959619 0.995331)
(0.00801672 0.0569873 0.998343)
(0.016663 0.0178582 0.999702)
(-0.0219449 0.0553379 0.998226)
(0.0216548 0.0976576 0.994984)
(-0.0215047 0.0675242 0.997486)
(-0.0234306 0.0554746 0.998185)
(0.0203676 0.00862044 0.999755)
(0.00464254 0.0544332 0.998507)
(0.0858356 0.414366 0.906054)
(0.264949 0.598122 0.756342)
(0.509067 0.732913 0.451319)
(0.578288 0.77706 0.248516)
(0.437933 0.651945 0.619017)
(0.499758 0.733692 0.460367)
(0.37494 0.611477 0.69679)
(0.209698 0.466891 0.859093)
(0.558918 0.777783 0.287513)
(0.347328 0.622695 0.701152)
(0.0325781 0.453652 0.890583)
(-0.0658322 0.353136 0.933253)
(-0.0410407 0.308701 0.950273)
(0.403464 0.724514 0.558835)
(0.0142442 0.38311 0.923593)
(-0.189125 0.373386 0.908193)
(-0.117486 0.410871 0.904092)
(0.149342 0.46987 0.870011)
(0.467717 0.752998 0.462855)
(0.0559765 0.350539 0.934874)
(0.00296554 0.0943981 0.99553)
(-0.027829 0.0675693 0.997326)
(-0.0215357 0.0508098 0.998476)
(0.0278562 0.00249613 0.999609)
(0.00634513 0.0433859 0.999038)
(-0.0291225 0.0660034 0.997394)
(-0.00191101 0.0921856 0.99574)
(0.00435671 0.0500486 0.998737)
(0.0218727 0.0131653 0.999674)
(-0.0229896 0.0539128 0.998281)
(0.69643 0.704824 0.134937)
(0.697099 0.702543 0.143127)
(0.703103 0.687862 0.180253)
(0.7014 0.695401 0.156385)
(0.694032 0.708879 0.125734)
(0.699246 0.703498 0.127067)
(0.627447 0.429017 0.649812)
(0.719946 0.691737 0.056367)
(0.726096 0.652796 0.215965)
(0.723063 0.515495 0.459832)
(0.66354 0.451555 0.596501)
(0.719715 0.658174 0.220945)
(0.719947 0.521855 0.457541)
(0.582844 0.437059 0.685035)
(0.717565 0.694028 0.0585398)
(0.699576 0.666728 0.257035)
(0.545847 0.421928 0.723897)
(0.506131 0.374836 0.776743)
(0.70871 0.665369 0.234551)
(0.60835 0.463651 0.644156)
(0.843684 0.50451 0.183485)
(0.84113 0.472669 0.26284)
(0.908294 0.370011 0.195177)
(0.874396 0.187184 0.447654)
(0.909029 0.39617 0.129292)
(0.859275 0.432161 0.273649)
(0.857871 0.480618 0.181833)
(0.898421 0.420864 0.125351)
(0.744781 0.167984 0.645819)
(0.893792 0.399708 0.203394)
(0.691305 0.719787 0.0632746)
(0.672131 0.734995 0.0895645)
(0.639119 0.739856 0.210098)
(0.674515 0.725987 0.134063)
(0.65101 0.748815 0.12435)
(0.679005 0.722634 0.12943)
(0.696653 0.714271 0.0670228)
(0.646972 0.756118 0.0985536)
(0.672333 0.730803 0.117879)
(0.635562 0.760863 0.130953)
(0.665207 0.741843 0.0846673)
(0.684662 0.725612 0.0687371)
(0.639424 0.761709 0.10458)
(0.655636 0.748111 0.102329)
(0.627786 0.770222 0.112438)
(0.67815 0.730515 0.080375)
(0.657545 0.747865 0.0912819)
(0.631863 0.767036 0.111379)
(0.661859 0.742723 0.101515)
(0.643055 0.759826 0.0956255)
(0.810097 0.485911 0.328075)
(0.815883 0.50972 0.272985)
(0.775035 0.403393 0.486411)
(0.130632 0.0271323 0.99106)
(0.622095 0.309338 0.719241)
(0.397365 0.270464 0.876898)
(0.683562 0.432732 0.58778)
(0.86602 0.412043 0.283248)
(0.201561 0.0437062 0.9785)
(0.8858 0.437637 0.154375)
(0.664653 0.642055 0.382103)
(0.587672 0.583309 0.560707)
(-0.037405 0.0589198 0.997562)
(0.0590354 -0.028411 0.997852)
(-0.188221 0.157451 0.969424)
(-0.435731 0.590194 0.679565)
(-0.148911 0.230453 0.961622)
(0.693544 -0.686565 -0.218234)
(0.691434 -0.641047 -0.333132)
(-0.631119 0.671651 0.388039)
(-0.650711 0.703849 0.284907)
(0.710136 -0.644686 -0.282996)
(-0.153975 0.224287 0.962282)
(0.0994019 0.104402 0.989555)
(0.120802 0.0896672 0.988619)
(-0.0349911 0.202359 0.978686)
(0.0767861 0.180691 0.980538)
(0.0997582 0.0642278 0.992937)
(0.114652 0.133107 0.984448)
(-0.00321686 0.187293 0.982299)
(-0.495626 0.528976 0.688868)
(0.708219 -0.690069 -0.149099)
(-0.674655 0.718427 0.169417)
(0.737843 -0.653436 -0.169144)
(0.64091 -0.616454 -0.457404)
(-0.671087 0.717454 0.18682)
(0.726016 -0.666944 -0.167588)
(0.106497 0.0761669 0.991391)
(0.0325235 0.186184 0.981976)
(0.0875508 0.191031 0.977672)
(0.125749 0.1496 0.980718)
(0.129383 0.105465 0.98597)
(0.0178969 0.183041 0.982942)
(0.108225 0.11768 0.987137)
(0.196878 0.2761 0.940748)
(0.385168 0.537273 0.750322)
(0.642858 0.730559 0.230254)
(0.340589 0.434459 0.833813)
(0.312261 0.400232 0.861573)
(0.621991 0.731264 0.279966)
(0.219793 0.307675 0.925758)
(0.246378 0.248893 0.93667)
(0.245832 0.229505 0.941751)
(0.367227 0.43749 0.820821)
(0.48915 0.536582 0.687613)
(0.200766 0.197783 0.959466)
(0.285403 0.28686 0.914471)
(0.426729 0.483924 0.764016)
(0.112332 0.232902 0.965991)
(0.0186108 0.279249 0.960038)
(-0.0347087 0.167884 0.985196)
(0.0907867 0.350475 0.932161)
(0.0404453 0.161709 0.986009)
(0.0722897 0.256539 0.963827)
(0.191266 0.424945 0.884782)
(0.610179 0.000541239 0.792263)
(0.581384 -0.218507 0.783739)
(0.567466 -0.287886 0.77143)
(0.647242 -0.148047 0.74777)
(0.749147 0.109011 0.653373)
(0.605419 -0.104734 0.788985)
(0.563992 -0.121992 0.81672)
(0.753673 0.450962 0.478132)
(0.754309 0.64973 0.0941748)
(0.792324 0.603606 0.0887877)
(0.712463 0.692754 0.111752)
(0.770509 0.519874 0.368845)
(0.800113 0.574051 0.174026)
(0.726696 0.664641 0.173682)
(0.120167 0.133097 0.983791)
(0.0658496 0.175375 0.982297)
(0.115103 0.0913009 0.989149)
(0.0780477 0.0907095 0.992814)
(0.034356 0.180544 0.982967)
(0.0900386 0.123212 0.988287)
(0.701727 -0.662708 -0.261528)
(0.716172 -0.685532 -0.130932)
(0.742317 -0.653251 -0.149094)
(-0.682707 0.713181 0.159009)
(0.710376 -0.655754 -0.255643)
(-0.682566 0.71381 0.156777)
(0.733644 -0.665833 -0.135765)
(0.0791016 0.0661088 0.994672)
(0.096969 0.121762 0.987811)
(-0.104425 0.251144 0.9623)
(0.00754074 0.187018 0.982327)
(0.0816808 0.0997975 0.991649)
(0.101927 0.0827757 0.991342)
(-0.233383 0.35264 0.906188)
(0.69747 -0.655205 -0.290246)
(0.713638 -0.688983 -0.126584)
(-0.687713 0.705563 0.170971)
(0.733879 -0.661884 -0.152745)
(0.638865 -0.614564 -0.462777)
(-0.685148 0.715469 0.136665)
(0.742682 -0.654253 -0.142748)
(0.132205 0.108182 0.985301)
(0.11575 0.206692 0.971535)
(0.137008 0.152664 0.978735)
(0.128176 0.222792 0.966403)
(0.150081 0.173946 0.973252)
(0.142598 0.129606 0.981258)
(0.0269971 0.187025 0.981984)
(-0.16191 0.280336 0.946149)
(-0.154947 0.24779 0.956343)
(-0.121866 0.193937 0.973415)
(-0.0168625 0.142314 0.989678)
(-0.06552 0.232076 0.970489)
(-0.0973986 0.268538 0.958332)
(0.167585 0.172725 0.970609)
(0.239958 0.256895 0.936176)
(0.30746 0.392445 0.866865)
(0.348036 0.428097 0.834029)
(0.202449 0.218769 0.954544)
(0.21082 0.204804 0.95583)
(0.261703 0.355711 0.897207)
(0.054536 0.178421 0.982442)
(-0.078697 0.246443 0.965957)
(-0.03987 0.194251 0.980141)
(-0.00298537 0.271744 0.962365)
(0.0436196 0.184775 0.981812)
(-0.0164923 0.197933 0.980077)
(0.00753362 0.296789 0.954913)
(0.172003 0.196533 0.965293)
(0.188117 0.2988 0.935591)
(0.18568 0.185659 0.964911)
(0.308055 0.395443 0.86529)
(0.206517 0.233703 0.950123)
(0.145376 0.153763 0.977355)
(0.219782 0.324098 0.920139)
(0.741982 0.6117 0.274382)
(0.728595 0.682255 0.0606503)
(0.693816 0.71834 0.051058)
(0.774461 0.630732 0.0488463)
(0.748504 0.630681 0.204899)
(0.771044 0.627804 0.106547)
(0.698507 0.711484 0.0766758)
(0.759999 0.555357 0.337608)
(0.739909 0.668263 0.0771951)
(0.782744 0.61087 0.118952)
(0.711263 0.694753 0.106884)
(0.761334 0.542006 0.35581)
(0.784949 0.610062 0.108071)
(0.706029 0.700635 0.103124)
(0.622118 -0.603751 -0.498451)
(0.698131 -0.674167 -0.241064)
(0.714569 -0.654551 -0.246889)
(-0.668089 0.69036 0.277597)
(0.711014 -0.649089 -0.270449)
(-0.660135 0.692573 0.2908)
(0.638597 -0.615193 -0.462311)
(0.718296 -0.667249 -0.197055)
(0.721235 -0.659744 -0.211087)
(-0.617988 0.748434 0.240702)
(-0.608824 0.751863 0.25305)
(-0.595563 0.760826 0.257777)
(-0.599924 0.773035 0.206177)
(-0.615405 0.772421 0.156978)
(-0.612545 0.775091 0.154992)
(0.722174 -0.652956 -0.228283)
(0.729664 -0.656376 -0.19173)
(0.739543 -0.661104 -0.126562)
(0.73576 -0.664269 -0.131923)
(-0.0800164 0.197029 0.977127)
(0.677663 -0.620153 -0.395199)
(-0.664931 0.672278 0.325436)
(-0.602487 0.663066 0.444243)
(-0.134205 0.194569 0.971664)
(0.644673 -0.624854 -0.440402)
(-0.549743 0.634449 0.543376)
(0.113802 0.107717 0.987647)
(0.147879 0.182735 0.971977)
(0.136837 0.245677 0.959645)
(0.08427 0.220127 0.971824)
(0.0705735 0.209279 0.975306)
(0.143597 0.139106 0.979811)
(0.123801 0.148303 0.981162)
(0.115377 0.133017 0.984375)
(0.0452747 0.191809 0.980387)
(0.135893 0.122691 0.983097)
(0.123894 0.230848 0.96507)
(0.109725 0.0918054 0.989713)
(0.0577615 0.200221 0.978047)
(0.136031 0.166523 0.976609)
(-0.040204 0.159185 0.98643)
(-0.562547 0.595298 0.573725)
(-0.412416 0.430528 0.802844)
(-0.31299 0.380682 0.870126)
(-0.461706 0.475962 0.748524)
(-0.320517 0.410177 0.853829)
(-0.0625616 0.167886 0.983819)
(0.717723 -0.648172 -0.254454)
(0.705542 -0.648934 -0.284772)
(0.590409 -0.570956 -0.570461)
(0.630559 -0.599081 -0.493455)
(-0.583327 0.752062 0.306811)
(-0.567196 0.748593 0.343361)
(-0.437714 0.601927 0.667899)
(-0.468479 0.654955 0.592926)
(0.18733 0.303372 0.934277)
(0.145782 0.270397 0.951648)
(-0.0514159 0.20458 0.977499)
(0.0251369 0.238829 0.970736)
(0.610893 0.77911 0.140701)
(0.594055 0.775858 0.21247)
(0.15778 0.485479 0.859893)
(0.402268 0.686396 0.605839)
(0.384129 0.434004 0.814915)
(0.664398 0.736105 0.129321)
(0.672384 0.700942 0.237864)
(0.698482 0.643887 0.312302)
(0.239342 0.305507 0.921619)
(0.657722 0.729595 0.187335)
(0.643743 0.622025 0.445735)
(0.619256 0.596405 0.510709)
(0.703853 0.700176 0.119768)
(0.682148 0.726841 0.0798478)
(0.74138 0.658208 0.130836)
(0.674752 0.731764 0.0960819)
(0.740987 0.652988 0.156666)
(0.65847 0.627333 0.415778)
(0.615931 0.77758 0.126488)
(0.61706 0.77827 0.116329)
(0.625206 0.778094 0.0607259)
(0.62381 0.777785 0.0768908)
(0.253514 0.332147 0.90852)
(0.585236 0.530464 0.613275)
(0.784987 0.60179 0.147122)
(0.760972 0.593391 0.262314)
(0.667574 -0.188763 0.720218)
(0.82541 0.163507 0.540337)
(0.822912 0.563808 0.0702544)
(0.832676 0.542933 0.108967)
(0.592613 -0.303995 0.74592)
(0.554953 -0.205236 0.806167)
(0.637737 0.764517 0.093837)
(0.650184 0.748059 0.132922)
(0.479924 -0.368236 0.796288)
(0.606771 -0.364657 0.706297)
(0.588168 -0.570185 0.573539)
(0.600953 -0.307328 0.737838)
(0.535315 -0.224267 0.814335)
(0.620291 -0.491873 0.610983)
(0.583236 -0.441717 0.681705)
(0.491372 -0.340269 0.801729)
(0.784182 -0.168982 0.597079)
(0.629879 -0.087839 0.77171)
(0.799914 -0.0647895 0.596607)
(0.675598 -0.0995348 0.730521)
(0.458519 -0.284572 0.84189)
(0.833921 -0.163012 0.52726)
(0.319985 -0.214655 0.922786)
(0.385024 -0.151488 0.910389)
(0.488452 -0.107665 0.865923)
(0.0019591 0.0440517 0.999027)
(0.518277 -0.135181 0.844461)
(-0.00889889 -0.0149544 0.999849)
(0.275779 -0.131074 0.952242)
(0.523279 -0.382926 0.76128)
(0.849556 0.0100331 0.527402)
(0.870653 -0.0424031 0.490067)
(0.9639 -0.0647132 0.258279)
(0.745633 -0.0810111 0.661415)
(0.563343 -0.411577 0.716414)
(0.894475 -0.133458 0.426735)
(0.634381 -0.393406 0.665426)
(0.690562 -0.46615 0.553017)
(0.530957 -0.430354 0.729986)
(0.514141 -0.552327 0.656196)
(-0.10926 0.213219 0.970876)
(-0.250862 0.373803 0.892939)
(-0.0769439 0.208689 0.97495)
(0.027811 0.141579 0.989536)
(-0.172502 0.31004 0.934943)
(-0.00372846 0.131988 0.991244)
(0.707622 -0.652532 -0.271059)
(0.71559 -0.683396 -0.14457)
(0.735637 -0.660795 -0.14896)
(-0.69179 0.701329 0.171942)
(0.703721 -0.650991 -0.284584)
(0.740884 -0.653075 -0.156793)
(-0.686157 0.708387 0.165455)
(0.662203 -0.636752 -0.395011)
(0.707726 -0.678291 -0.1976)
(0.722273 -0.650819 -0.233999)
(-0.66975 0.698033 0.253348)
(0.659575 -0.62412 -0.41885)
(0.720531 -0.660347 -0.211605)
(-0.669378 0.702325 0.242224)
(-0.622292 0.767165 0.1556)
(-0.621728 0.769722 0.144851)
(-0.620133 0.770969 0.145056)
(-0.618154 0.775744 0.126912)
(0.738791 -0.663939 -0.115637)
(0.735716 -0.668264 -0.110204)
(0.738477 -0.663297 -0.1212)
(0.741015 -0.662626 -0.108737)
(0.734938 -0.667444 -0.119939)
(0.737548 -0.664228 -0.121754)
(0.726833 -0.661961 -0.183086)
(0.723409 -0.669301 -0.169457)
(-0.625931 0.764013 0.156504)
(-0.621059 0.76813 0.155765)
(-0.616682 0.752481 0.231246)
(-0.618422 0.755391 0.216651)
(0.179043 0.21377 0.960337)
(0.195738 0.29882 0.93402)
(0.164338 0.171048 0.971461)
(0.152486 0.150907 0.976716)
(0.177509 0.27922 0.943677)
(0.163473 0.194346 0.967216)
(0.179281 0.190579 0.965162)
(0.27132 0.369047 0.888926)
(0.198039 0.233076 0.95208)
(0.000331247 0.158222 0.987404)
(-0.24907 0.336036 0.908319)
(-0.171984 0.260946 0.94991)
(-0.137499 0.228332 0.963825)
(-0.0173467 0.163898 0.986325)
(-0.179564 0.284857 0.941601)
(-0.115178 0.228815 0.966632)
(0.135048 0.163275 0.977294)
(0.153705 0.15445 0.975971)
(0.0996556 0.231488 0.96772)
(0.191773 0.297156 0.935372)
(0.12025 0.122877 0.98511)
(0.162626 0.198498 0.966515)
(0.11668 0.244992 0.962479)
(-0.0206061 0.177151 0.983968)
(-0.411798 0.473232 0.778765)
(-0.368279 0.384767 0.84636)
(-0.260717 0.320924 0.910513)
(-0.056982 0.146424 0.987579)
(-0.295914 0.370042 0.880627)
(-0.199791 0.319847 0.926165)
(0.13036 0.137831 0.98184)
(0.159593 0.277719 0.947313)
(0.181606 0.214955 0.95959)
(0.214175 0.31724 0.923844)
(0.15052 0.178841 0.972296)
(0.167334 0.169509 0.971219)
(0.137102 0.259906 0.955851)
(-0.160235 0.283741 0.945418)
(-0.104658 0.2776 0.954979)
(-0.0592549 0.223949 0.972798)
(-0.041366 0.232423 0.971735)
(-0.216935 0.328914 0.919105)
(-0.160955 0.344753 0.924791)
(0.101041 0.459429 0.882449)
(-0.00292169 0.363695 0.931513)
(-0.254797 0.35973 0.897593)
(-0.286014 0.3756 0.881545)
(-0.546574 0.536052 0.643355)