/*--------------------------------*- C++ -*----------------------------------*\
| =========                 |                                                 |
| \\      /  F ield         | OpenFOAM: The Open Source CFD Toolbox           |
|  \\    /   O peration     | Version:  2012                                  |
|   \\  /    A nd           | Website:  www.openfoam.com                      |
|    \\/     M anipulation  |                                                 |
\*---------------------------------------------------------------------------*/
FoamFile
{
    version     2.0;
    format      ascii;
    class       volVectorField;
    location    "0.108/solid";
    object      sigmaMaxDir;
}
// * * * * * * * * * * * * * * * * * * * * * * * * * * * * * * * * * * * * * //

dimensions      [1 -1 -2 0 0 0 0];


internalField   nonuniform List<vector> 
3125
(
(0.650759 0.750308 -0.116406)
(0.760239 0.627392 -0.168568)
(0.671953 0.447576 -0.590046)
(0.640906 0.760498 -0.104315)
(0.746226 0.646626 -0.158186)
(0.71313 0.446711 -0.540273)
(0.663344 0.747463 -0.035688)
(0.689716 0.711013 -0.136939)
(0.792979 0.558049 -0.24447)
(0.645752 0.761812 -0.0514423)
(0.703645 0.69637 -0.141252)
(0.793875 0.529641 -0.298735)
(0.696583 0.717004 -0.0260354)
(0.680845 0.729421 -0.0662921)
(0.624202 0.761598 -0.174186)
(0.662864 0.73817 -0.125364)
(0.693929 0.71976 -0.0202057)
(0.630873 0.744104 -0.219794)
(0.689741 0.720402 -0.0726535)
(-0.379357 -0.194356 0.904607)
(0.771204 0.628097 -0.103629)
(-0.544174 -0.510709 0.665621)
(0.773522 0.606421 -0.184165)
(0.719114 0.684148 -0.121724)
(-0.423165 -0.372207 0.826071)
(0.78533 0.607681 -0.118237)
(0.653355 0.74485 -0.13537)
(-0.516154 -0.394971 0.759989)
(-0.39398 -0.436102 0.80907)
(0.638597 0.488816 -0.594351)
(0.0976297 -0.212522 0.972267)
(0.622256 0.648472 -0.4385)
(-0.463951 -0.457786 0.758407)
(0.610801 0.767286 -0.195432)
(0.623069 0.767584 -0.150332)
(0.689278 0.724291 -0.0172487)
(0.635231 0.767206 -0.0887456)
(0.673137 0.737242 -0.0579658)
(0.623301 0.765056 -0.161816)
(0.690295 0.72326 -0.0196912)
(0.632082 0.763351 -0.133296)
(0.667244 0.743304 -0.0478006)
(0.611786 0.761753 -0.21319)
(0.616481 0.736862 -0.277463)
(-0.492285 -0.462281 0.737531)
(-0.572554 -0.574604 0.584818)
(0.711883 0.700047 -0.0561791)
(0.731981 0.664386 -0.150981)
(0.757505 0.645901 -0.0948568)
(-0.573726 -0.550882 0.606108)
(0.71728 0.688054 -0.109962)
(0.624632 0.63644 -0.452525)
(0.744505 0.661606 -0.0893853)
(-0.458641 -0.420279 0.782952)
(-0.356921 -0.306258 0.882504)
(-0.336779 -0.34578 0.875794)
(-0.253093 -0.230099 0.93968)
(-0.0237349 -0.0464978 0.998636)
(0.75403 0.468098 -0.460785)
(-0.596281 -0.389609 0.701893)
(-0.341074 -0.370735 0.863843)
(0.076357 -0.182048 0.98032)
(-0.261848 -0.246506 0.933097)
(0.700752 0.425257 -0.572802)
(-0.388938 -0.406802 0.826583)
(0.623405 0.61707 -0.480199)
(0.702897 0.70027 -0.124729)
(0.667112 0.74464 -0.0217556)
(0.687079 0.726312 -0.0198284)
(0.796036 0.568342 -0.20812)
(0.768392 0.639773 0.0162432)
(0.777508 0.628522 -0.0209865)
(0.786971 0.616505 -0.0244583)
(0.612765 0.772236 -0.167839)
(0.615174 0.73875 -0.275334)
(0.699727 0.713906 -0.0268522)
(0.676045 0.724957 -0.131914)
(0.639109 0.709082 -0.297897)
(0.709773 0.699824 -0.0804274)
(0.633766 0.736554 -0.23628)
(0.702974 0.710315 -0.0357763)
(0.699443 0.710513 -0.0771397)
(-0.563434 -0.545579 0.620392)
(0.617129 0.709458 -0.340325)
(0.799981 0.599501 -0.0250716)
(0.788437 0.614522 -0.0270111)
(0.840289 0.541586 -0.0244908)
(0.861066 0.507723 -0.0279661)
(-0.204883 -0.0855695 0.975039)
(-0.157188 -0.0544624 0.986066)
(-0.311116 -0.133088 0.941007)
(0.785068 0.583513 -0.2078)
(-0.294367 -0.243656 0.92411)
(0.809827 0.555989 -0.187234)
(-0.383458 -0.330519 0.86239)
(-0.110493 0.000385182 0.993877)
(0.799036 0.58399 -0.143169)
(-0.118411 -0.0432547 0.992022)
(-0.144314 -0.0506186 0.988236)
(0.892079 0.447052 -0.0658794)
(0.867326 0.496478 -0.0354377)
(-0.214018 -0.228402 0.949752)
(-0.0492734 -0.358219 0.932336)
(-0.110845 -0.199225 0.973665)
(0.521458 0.79317 -0.314584)
(0.693301 0.718183 -0.0595602)
(-0.586679 -0.528609 0.613498)
(0.688013 0.687722 -0.231682)
(-0.268224 -0.507888 0.8186)
(0.556209 0.829102 -0.05676)
(0.00120186 -0.457574 0.889171)
(0.711931 0.692464 -0.116827)
(0.688722 0.715183 -0.119059)
(0.633353 0.761565 -0.137416)
(0.685623 0.72776 -0.0169332)
(0.636203 0.768304 -0.0703902)
(0.684259 0.718801 -0.122944)
(0.663935 0.747279 -0.0276441)
(0.689131 0.724356 -0.0201736)
(0.640514 0.757507 -0.126191)
(0.663955 0.746851 -0.0371172)
(0.77687 0.629451 -0.0162458)
(0.770363 0.637581 -0.00556151)
(0.611832 0.77731 -0.146463)
(0.644486 0.75474 -0.122498)
(0.763172 0.622148 -0.174643)
(0.665402 0.736158 -0.123738)
(0.767941 0.640411 0.0118511)
(0.77051 0.637427 0.00107138)
(0.617368 0.685429 -0.386063)
(0.618883 0.725873 -0.300152)
(0.615038 0.669 -0.417332)
(0.587866 0.603011 -0.539251)
(0.709545 0.702626 -0.0535012)
(0.717751 0.680894 -0.145662)
(0.639848 0.698229 -0.321048)
(0.720697 0.688258 -0.0830437)
(0.705666 0.707575 -0.0370683)
(0.631743 0.65557 -0.413677)
(0.73225 0.67561 -0.0857945)
(0.835706 0.548754 -0.0215377)
(0.819124 0.573101 -0.0243123)
(-0.2262 -0.102784 0.968643)
(-0.312025 -0.181514 0.932573)
(-0.513707 -0.448925 0.731144)
(-0.355006 -0.230579 0.905982)
(0.802243 0.596405 -0.0265937)
(0.815884 0.57777 -0.0226992)
(-0.157845 -0.0739288 0.984693)
(-0.264124 -0.215646 0.940072)
(-0.33013 -0.278174 0.902016)
(-0.125451 -0.058632 0.990366)
(-0.149342 -0.0658156 0.986593)
(-0.251175 -0.205684 0.945836)
(-0.243415 -0.212776 0.946296)
(-0.162574 -0.147152 0.975662)
(-0.121252 -0.0776227 0.989582)
(-0.120765 -0.0587148 0.990943)
(-0.11785 -0.0687285 0.99065)
(-0.0348693 -0.036651 0.99872)
(0.782182 0.498569 -0.373657)
(-0.276245 -0.228922 0.933426)
(0.810438 0.521703 -0.266488)
(-0.100716 -0.00294374 0.994911)
(-0.254736 -0.228839 0.939544)
(0.78175 0.477568 -0.400993)
(-0.301531 -0.219198 0.927918)
(0.781302 0.315461 -0.538563)
(-0.0957277 -0.137494 0.985866)
(-0.0922186 -0.0621896 0.993795)
(-0.111035 -0.0425621 0.992905)
(-0.0959068 -0.0529268 0.993982)
(0.898223 0.429343 -0.094125)
(0.878634 0.35476 -0.319607)
(-0.196496 -0.197258 0.960458)
(0.528379 0.611415 -0.589056)
(0.626293 0.534265 -0.56773)
(0.69514 0.66431 -0.274722)
(0.683196 0.696035 -0.220858)
(0.837001 0.544468 -0.054635)
(0.531975 0.726407 -0.435127)
(0.824201 0.562057 -0.0691703)
(0.463827 0.746467 -0.477129)
(0.566051 0.715695 -0.409104)
(0.815977 0.57525 -0.0571842)
(0.685106 0.721404 -0.101023)
(0.696834 0.71685 -0.0234316)
(0.671854 0.734551 -0.0951145)
(0.740668 0.668527 -0.0669459)
(0.743349 0.667194 -0.0478053)
(0.672477 0.734904 -0.0876955)
(0.683758 0.718003 -0.130181)
(0.677047 0.726457 -0.117764)
(0.693423 0.720173 -0.0227137)
(0.739285 0.672048 -0.0425335)
(0.668885 0.739464 -0.0760711)
(0.678733 0.728749 -0.0908099)
(0.736628 0.673633 -0.0599816)
(0.667871 0.739724 -0.0822038)
(0.734331 0.626626 -0.260958)
(0.71042 0.633268 -0.307042)
(-0.51185 -0.431659 0.742752)
(0.766796 0.608021 -0.205753)
(0.773466 0.617279 -0.143934)
(-0.583595 -0.512451 0.629929)
(0.71861 0.598599 -0.353947)
(0.725554 0.626262 -0.285248)
(0.716163 0.65285 -0.246775)
(0.77121 0.626816 -0.111072)
(0.666537 0.62549 -0.405576)
(0.733258 0.645592 -0.213408)
(0.767724 0.621269 -0.156923)
(0.640482 0.589096 -0.492696)
(-0.543289 -0.559192 0.626211)
(0.033729 -0.52486 0.85052)
(0.614881 0.711756 -0.339596)
(0.529931 0.642326 -0.553706)
(-0.417241 -0.574668 0.704036)
(0.485212 0.651688 -0.582986)
(0.626998 0.608051 -0.486978)
(-0.502563 -0.498346 0.706457)
(0.111931 -0.397071 0.910937)
(-0.28902 -0.412515 0.863886)
(-0.231292 -0.40202 0.885937)
(-0.468142 -0.467206 0.750041)
(-0.357804 -0.489348 0.795308)
(-0.339577 -0.533017 0.774971)
(0.668207 0.73779 -0.0957331)
(0.687594 0.725869 -0.0181004)
(0.666009 0.743058 -0.0655458)
(0.731522 0.68087 -0.0359303)
(0.67122 0.737477 -0.0747754)
(0.729767 0.681989 -0.048272)
(0.66364 0.745069 -0.0667405)
(0.673723 0.734423 -0.0819695)
(0.691376 0.722257 -0.0185527)
(0.732867 0.678273 -0.053405)
(0.664875 0.743446 -0.0723149)
(0.671501 0.733394 -0.105923)
(0.735277 0.67666 -0.038719)
(0.666458 0.742356 -0.0688579)
(0.719412 0.662121 -0.209863)
(0.713203 0.697308 -0.0714398)
(0.69059 0.691423 -0.212179)
(0.763606 0.64071 -0.079974)
(0.721671 0.673106 -0.161617)
(0.761608 0.638441 -0.11111)
(0.688421 0.684783 -0.239059)
(0.728244 0.660496 -0.182773)
(0.715383 0.694556 -0.0762802)
(0.765226 0.630716 -0.128943)
(0.680191 0.656067 -0.32698)
(0.724248 0.646261 -0.240438)
(0.767594 0.634272 -0.0921886)
(0.687333 0.669996 -0.280498)
(-0.438167 -0.369086 0.819625)
(0.0120407 -0.0869806 0.996137)
(-0.148584 -0.166483 0.974785)
(-0.26342 -0.255466 0.93024)
(-0.443874 -0.376214 0.813289)
(-0.286628 -0.291017 0.912772)
(-0.145044 -0.194843 0.970051)
(-0.432687 -0.40101 0.807449)
(0.0276442 -0.103478 0.994247)
(-0.286562 -0.360337 0.887716)
(-0.176616 -0.307778 0.934922)
(-0.450771 -0.416878 0.789315)
(-0.24368 -0.302053 0.92162)
(-0.152656 -0.239388 0.958848)
(0.691751 0.716202 -0.0923881)
(0.690072 0.723351 -0.023731)
(0.682068 0.725334 -0.0931348)
(0.728234 0.682774 -0.0591123)
(0.686408 0.723423 -0.0741882)
(0.69131 0.72214 -0.0246008)
(0.676972 0.731457 -0.081725)
(0.727548 0.684116 -0.0515707)
(0.679727 0.728133 -0.0882784)
(0.725366 0.68694 -0.0442524)
(0.682036 0.725997 -0.0880575)
(0.752473 0.644302 -0.136597)
(0.818017 0.517872 -0.250312)
(0.728156 0.676218 -0.111883)
(0.733104 0.670726 -0.112631)
(0.830735 0.468365 -0.300856)
(0.736908 0.661541 -0.139031)
(0.74004 0.664233 -0.105521)
(0.750543 0.652851 -0.102326)
(0.777967 0.627441 -0.0329383)
(0.826661 0.562699 -0.00144384)
(0.768286 0.639947 0.0143142)
(0.824502 0.565737 0.0116983)
(0.782531 0.622049 -0.0264481)
(0.776457 0.630142 -0.00601801)
(0.768508 0.639663 0.0150503)
(0.82276 0.568372 -0.00431932)
(0.802825 0.594848 -0.0403396)
(0.801628 0.597749 -0.0094175)
(0.836005 0.548715 -0.0028261)
(0.781502 0.62353 -0.0215675)
(0.841213 0.540332 -0.0200455)
(0.79827 0.602265 -0.00646062)
(0.79981 0.599164 -0.0361499)
(0.844215 0.535508 -0.023054)
(0.782564 0.622063 -0.0251311)
(0.839292 0.543649 -0.00587423)
(0.666873 0.738337 -0.10069)
(0.69895 0.712202 -0.0650955)
(0.68375 0.726037 -0.0731848)
(0.610986 0.767687 -0.193271)
(0.665392 0.739595 -0.10126)
(0.703571 0.708563 -0.0540917)
(0.668166 0.739394 -0.0827629)
(0.66209 0.738774 -0.125894)
(0.615617 0.753342 -0.231282)
(0.678227 0.729386 -0.0894687)
(0.691044 0.708553 -0.142866)
(0.676659 0.729215 -0.101873)
(0.699807 0.71368 -0.0305086)
(0.747402 0.662258 -0.0529658)
(0.692195 0.71308 -0.111277)
(0.676277 0.728231 -0.11104)
(0.744889 0.663065 -0.0740698)
(0.699563 0.704078 -0.12201)
(0.702725 0.710761 -0.031581)
(0.680751 0.72084 -0.130264)
(0.749133 0.657403 -0.0813714)
(0.681008 0.722426 -0.119701)
(0.751445 0.657178 -0.0587108)
(0.698493 0.698392 -0.156067)
(0.696463 0.712932 -0.0816534)
(0.668011 0.733178 -0.127323)
(0.594625 0.614517 -0.518449)
(0.658445 0.721528 -0.214119)
(0.671758 0.725575 -0.149271)
(0.674527 0.729479 -0.113461)
(0.609871 0.675379 -0.414633)
(0.660289 0.7334 -0.161689)
(0.670435 0.722986 -0.166758)
(0.695622 0.710441 -0.106691)
(0.80478 0.593461 -0.0115247)
(0.805832 0.590476 -0.0444198)
(0.850664 0.52503 -0.0267268)
(0.794995 0.606 -0.0273189)
(0.846573 0.532206 -0.00835622)
(0.808873 0.586004 -0.0482049)
(0.80786 0.589217 -0.0136108)
(0.842842 0.538109 -0.00746026)
(0.793126 0.608527 -0.0254262)
(0.847349 0.530438 -0.0252012)
(0.825868 0.551052 -0.119512)
(0.827549 0.560343 -0.0343365)
(0.86743 0.497434 -0.0111897)
(0.847592 0.530145 -0.0230894)
(0.869692 0.491767 -0.0424429)
(0.823929 0.566118 -0.025511)
(0.824146 0.559266 -0.0894691)
(0.873847 0.482911 -0.0564711)
(0.852992 0.521193 -0.0276213)
(0.872254 0.488754 -0.0170946)
(-0.216665 -0.054846 0.974704)
(-0.227596 -0.0647322 0.971602)
(-0.318292 -0.204702 0.925628)
(-0.187793 -0.0738232 0.97943)
(-0.276996 -0.148951 0.949256)
(-0.344552 -0.166911 0.92381)
(-0.290352 -0.110827 0.950481)
(-0.212425 -0.0909525 0.972935)
(-0.169948 -0.0612821 0.983546)
(-0.223162 -0.110697 0.968476)
(0.693065 0.555832 -0.459034)
(-0.414288 -0.32676 0.849467)
(-0.170059 -0.016188 0.985301)
(0.770364 0.602243 -0.209386)
(0.725341 0.599223 -0.33884)
(-0.344642 -0.260444 0.901882)
(0.753848 0.584013 -0.301068)
(0.691192 0.553214 -0.464982)
(-0.154277 -0.0133638 0.987937)
(-0.242968 -0.173743 0.954348)
(0.691046 0.521915 -0.500059)
(-0.28208 -0.203365 0.937589)
(0.740215 0.564854 -0.364723)
(0.633342 0.490069 -0.598924)
(-0.168301 -0.0293157 0.9853)
(-0.167944 -0.0316308 0.985289)
(-0.125427 -0.0445355 0.991103)
(-0.137337 -0.0510215 0.989209)
(-0.134224 -0.0496496 0.989706)
(-0.170133 -0.0691518 0.982992)
(-0.136028 -0.0480429 0.989539)
(-0.167546 -0.0619692 0.983915)
(-0.134201 -0.0245515 0.99065)
(-0.129518 -0.01647 0.99144)
(0.831097 0.553485 -0.0541393)
(0.822236 0.538029 -0.185611)
(0.869734 0.455456 -0.190061)
(0.883035 0.46629 -0.0531338)
(0.879348 0.465556 -0.100026)
(0.779092 0.498458 -0.380204)
(0.83199 0.543219 -0.11272)
(0.877231 0.4789 -0.0334861)
(0.876141 0.480434 -0.0395123)
(0.876967 0.47232 -0.0885611)
(-0.34863 -0.62366 0.699647)
(-0.189155 -0.444058 0.875804)
(-0.064122 -0.248805 0.966429)
(-0.167659 -0.25394 0.952578)
(-0.129812 -0.323885 0.937149)
(-0.106719 -0.283336 0.953065)
(-0.200648 -0.418341 0.885851)
(-0.196162 -0.487547 0.850775)
(-0.100286 -0.291509 0.951296)
(-0.113966 -0.385349 0.915706)
(0.573669 0.811554 -0.110827)
(0.328915 0.723529 -0.606895)
(-0.0603174 -0.248504 0.966751)
(-0.169798 -0.327036 0.929632)
(-0.247608 -0.563139 0.788394)
(0.0346924 -0.181694 0.982743)
(-0.145074 -0.524049 0.839241)
(0.528706 0.830892 -0.173462)
(-0.344352 -0.587075 0.732642)
(0.334974 0.689947 -0.64169)
(0.773935 0.626143 -0.0947055)
(0.681479 0.719908 -0.131605)
(0.713366 0.700695 0.0116129)
(0.63472 0.691758 -0.344386)
(0.692368 0.643318 -0.326755)
(0.715579 0.696352 0.0551493)
(0.759728 0.64955 -0.0299827)
(0.831256 0.555608 -0.0177231)
(0.717633 0.695377 0.0381142)
(0.734338 0.675029 0.0713019)
(0.821081 0.570058 -0.0293138)
(0.839323 0.539723 -0.0650908)
(0.0952863 0.807135 -0.582627)
(0.839613 0.543168 -0.00435911)
(0.379462 0.767894 -0.516088)
(0.831137 0.55596 -0.0109454)
(0.714798 0.698501 0.0340463)
(0.724222 0.684822 0.0807556)
(0.818924 0.570122 0.0657561)
(0.603964 0.796497 -0.0286283)
(0.624572 0.779141 0.0533769)
(0.606741 0.785491 0.121939)
(0.632803 0.763381 0.129649)
(0.546629 0.833138 -0.0841352)
(0.562483 0.825221 0.0512283)
(0.578532 0.808311 0.109242)
(0.651547 0.74547 0.140573)
(0.393279 0.665665 -0.63421)
(0.786972 0.61693 0.00846652)
(-0.166929 0.805611 -0.568441)
(0.851531 0.523814 0.0226549)
(0.840361 0.535561 0.0834749)
(-0.131757 -0.580464 0.803556)
(0.119142 -0.634316 0.763837)
(0.652122 0.679166 -0.336854)
(0.672401 0.736736 -0.0713932)
(0.6884 0.725099 -0.0183493)
(0.665075 0.743855 -0.0659883)
(0.727615 0.684481 -0.0454121)
(0.668379 0.738538 -0.088501)
(0.668341 0.740677 -0.0686795)
(0.72839 0.684193 -0.0364547)
(0.673192 0.734458 -0.0859274)
(0.685309 0.728028 -0.018064)
(0.673667 0.735088 -0.076273)
(0.726356 0.68621 -0.0390296)
(0.677974 0.731621 -0.0712888)
(0.669812 0.739085 -0.071453)
(0.726954 0.685103 -0.0466103)
(0.790536 0.612413 -0.0015907)
(0.793585 0.607834 -0.0275961)
(0.838428 0.544777 -0.0160296)
(0.773384 0.633774 -0.0144159)
(0.833098 0.553125 0.00097741)
(0.796769 0.603462 -0.0315201)
(0.794634 0.607074 -0.00410211)
(0.830609 0.556826 0.00581765)
(0.773147 0.63417 -0.00844414)
(0.8357 0.549068 -0.0113669)
(0.720994 0.690998 -0.0518646)
(0.68261 0.727723 -0.0667959)
(0.671408 0.736219 -0.0848069)
(0.619496 0.773438 -0.134237)
(0.691729 0.719168 -0.0656389)
(0.672851 0.736354 -0.0710977)
(0.710841 0.701572 -0.0500211)
(0.70241 0.708753 -0.0654878)
(0.62695 0.769095 -0.124199)
(0.681152 0.728043 -0.0773584)
(0.697981 0.712719 -0.0696783)
(0.733201 0.677128 -0.0625591)
(0.726684 0.68085 -0.0915115)
(0.729026 0.668032 -0.149179)
(0.711934 0.696368 -0.0906684)
(0.745007 0.662302 -0.0795065)
(0.718873 0.690189 -0.082829)
(0.695098 0.714603 -0.0786187)
(0.695457 0.705883 -0.134424)
(0.714853 0.695216 -0.0752318)
(0.790204 0.612359 -0.0243795)
(0.786079 0.618125 -0.00130147)
(0.826566 0.562697 0.0127008)
(0.768933 0.639246 0.0103058)
(0.83002 0.557726 -0.00292389)
(0.781285 0.624171 -0.00210427)
(0.786529 0.617081 -0.0241524)
(0.833023 0.553199 -0.00656142)
(0.768567 0.639756 0.00398041)
(0.828532 0.559854 0.00988201)
(0.714468 0.684278 -0.14594)
(0.708724 0.704061 -0.0448281)
(0.688025 0.700888 -0.18809)
(0.757573 0.645236 -0.0987641)
(0.713002 0.675552 -0.187769)
(0.688757 0.704688 -0.170378)
(0.759548 0.64652 -0.0714088)
(0.705902 0.687472 -0.170541)
(0.706211 0.706693 -0.043013)
(0.68521 0.714492 -0.141379)
(0.755486 0.651982 -0.0644921)
(0.707042 0.694523 -0.133151)
(0.684893 0.712047 -0.154632)
(0.753391 0.651482 -0.0892905)
(0.817176 0.576098 -0.0183119)
(0.818186 0.571425 -0.0635945)
(0.865527 0.499604 -0.0354685)
(0.829071 0.558636 -0.0237981)
(0.862875 0.505336 -0.00904453)
(0.821294 0.565763 -0.0734042)
(0.820469 0.571305 -0.0209858)
(0.858563 0.51264 -0.008337)
(0.825213 0.564405 -0.0216784)
(0.861536 0.506711 -0.0316288)
(0.683206 0.637434 -0.356242)
(-0.604993 -0.507667 0.613398)
(-0.389305 -0.271589 0.88016)
(-0.249498 -0.121575 0.960714)
(-0.486343 -0.407296 0.773033)
(-0.427775 -0.253089 0.867729)
(-0.572075 -0.438832 0.692934)
(0.623319 0.613111 -0.485354)
(-0.279294 -0.149894 0.948434)
(-0.541437 -0.477312 0.692112)
(0.666431 0.6542 -0.35762)
(0.69521 0.687149 -0.210971)
(0.66845 0.715369 -0.203522)
(-0.459679 -0.367586 0.808441)
(0.652856 0.696059 -0.298797)
(0.695721 0.703646 -0.144411)
(0.672502 0.702793 -0.231998)
(0.629488 0.633357 -0.450114)
(-0.401478 -0.285536 0.870221)
(0.659873 0.689704 -0.298121)
(0.815051 0.576568 -0.0570992)
(0.814005 0.58062 -0.0166236)
(0.850442 0.526001 -0.00842397)
(0.807517 0.589357 -0.0239748)
(0.85412 0.519322 -0.0279777)
(0.810914 0.584973 -0.0150335)
(0.811941 0.581395 -0.0522673)
(0.857739 0.513241 -0.0294611)
(0.810248 0.585535 -0.0254393)
(0.854428 0.519502 -0.00837928)
(-0.131474 -0.0595358 0.98953)
(-0.139998 -0.0624063 0.988183)
(-0.141154 -0.113433 0.983468)
(-0.128924 -0.0920093 0.987377)
(-0.118051 -0.0602267 0.991179)
(-0.116713 -0.0630186 0.991164)
(-0.509173 -0.40532 0.759248)
(-0.0629109 -0.0158381 0.997893)
(-0.156308 -0.149158 0.976381)
(-0.355268 -0.293379 0.887532)
(-0.470702 -0.367754 0.801995)
(-0.169723 -0.14179 0.975238)
(-0.358048 -0.285473 0.888992)
(-0.54518 -0.414805 0.728502)
(-0.0720522 -0.00962909 0.997354)
(-0.210145 -0.151837 0.965808)
(-0.579289 -0.434173 0.689868)
(-0.611201 -0.47953 0.629671)
(-0.187385 -0.14299 0.971823)
(-0.514688 -0.387353 0.764888)
(-0.129214 -0.140899 0.981555)
(-0.179062 -0.215194 0.960015)
(-0.116737 -0.223842 0.967609)
(-0.405312 -0.225425 0.885949)
(-0.0677213 -0.165695 0.983849)
(-0.157423 -0.28559 0.945334)
(-0.10123 -0.188855 0.976773)
(-0.085623 -0.112084 0.990003)
(-0.597378 -0.263463 0.757447)
(-0.146705 -0.167991 0.974811)
(-0.0490854 -0.0405858 0.99797)
(-0.0492333 -0.0763312 0.995866)
(-0.0773217 -0.209977 0.974644)
(-0.0900138 -0.0993638 0.990971)
(-0.0538568 -0.11784 0.991571)
(-0.014372 -0.163185 0.986491)
(-0.0127117 -0.0811189 0.996623)
(-0.0707758 -0.0691427 0.995093)
(-0.0903548 -0.0770344 0.992926)
(-0.0777965 -0.105639 0.991357)
(-0.0802372 -0.0417151 0.995903)
(-0.0765723 -0.0221774 0.996817)
(-0.109413 -0.044488 0.993)
(-0.105251 -0.0436517 0.993487)
(-0.114401 -0.0515815 0.992095)
(-0.101488 -0.0152311 0.99472)
(-0.106841 -0.0273745 0.993899)
(-0.0948517 -0.0660969 0.993295)
(-0.0998384 -0.0468771 0.993899)
(-0.0893942 -0.0495368 0.994764)
(-0.258624 -0.206026 0.943751)
(-0.224018 -0.156592 0.961922)
(-0.43446 -0.218797 0.873712)
(0.904376 0.406347 -0.130331)
(-0.637582 -0.33301 0.69469)
(0.740415 0.470019 -0.480487)
(-0.493892 -0.318705 0.80901)
(-0.236187 -0.162192 0.958076)
(0.900802 0.384011 -0.202708)
(-0.128017 -0.0893115 0.987742)
(-0.256574 -0.284174 0.923805)
(-0.363001 -0.429261 0.827022)
(0.744605 0.667406 -0.0114995)
(0.813018 0.581383 -0.031547)
(0.703988 0.70989 0.0213864)
(0.757464 0.648279 -0.077343)
(0.680848 0.729139 -0.0693062)
(0.69759 0.715664 -0.0345538)
(0.671655 0.740241 -0.0303907)
(0.720931 0.692515 -0.0261175)
(0.726035 0.686607 -0.038007)
(0.663085 0.747527 -0.0390065)
(0.684469 0.726583 -0.0598291)
(0.658915 0.73829 -0.144081)
(0.650097 0.745486 -0.147052)
(0.66885 0.732379 -0.127518)
(0.625849 0.756829 -0.188477)
(0.658755 0.743626 -0.114285)
(0.647679 0.741385 -0.175673)
(0.666949 0.732317 -0.137446)
(0.681349 0.728669 -0.0693237)
(0.694282 0.719069 -0.0302018)
(0.727651 0.685863 -0.0107962)
(0.660619 0.750515 -0.01762)
(0.678435 0.733668 -0.0381661)
(0.724546 0.688078 -0.039777)
(0.67124 0.740261 -0.0380789)
(0.665056 0.735748 -0.127968)
(0.669699 0.72526 -0.159691)
(0.628437 0.750905 -0.202999)
(0.654834 0.730094 -0.195334)
(0.656361 0.73621 -0.16488)
(0.670817 0.726796 -0.147556)
(0.665641 0.728945 -0.159878)
(0.695453 0.637015 -0.332501)
(-0.604275 -0.467678 0.64508)
(-0.248003 -0.0858957 0.964944)
(0.666959 0.513432 -0.539958)
(0.683492 0.535231 -0.496353)
(-0.283384 -0.123084 0.951075)
(0.691407 0.620337 -0.370322)
(0.700622 0.622033 -0.349576)
(0.697411 0.632876 -0.336282)
(0.611022 0.551887 -0.567515)
(-0.507931 -0.465643 0.724695)
(0.710252 0.645165 -0.281612)
(0.684455 0.606888 -0.40399)
(-0.573708 -0.508204 0.64233)
(0.711021 0.660263 -0.241873)
(0.71827 0.664219 -0.207127)
(0.755761 0.649433 -0.0840418)
(0.681918 0.660282 -0.314668)
(0.71766 0.681913 -0.141274)
(0.746456 0.627001 -0.222873)
(0.662042 0.609651 -0.435919)
(0.565785 0.699707 -0.43623)
(0.603351 0.762028 -0.235117)
(0.601059 0.785169 -0.149127)
(0.563019 0.754158 -0.338017)
(0.383305 0.733111 -0.561806)
(0.52111 0.801445 -0.29348)
(0.623695 0.71114 -0.324475)
(-0.268536 -0.452701 0.850265)
(0.107583 -0.263836 0.958549)
(0.0639964 -0.226953 0.971801)
(0.0624602 -0.221232 0.973219)
(-0.183435 -0.373328 0.909383)
(0.0124381 -0.30593 0.951973)
(0.0411477 -0.294487 0.954769)
(0.624602 0.760121 -0.17913)
(0.61265 0.769926 -0.178529)
(0.628015 0.764823 -0.143674)
(0.634791 0.763364 -0.119648)
(0.615977 0.770698 -0.163086)
(0.627588 0.763491 -0.152363)
(0.674163 0.736375 -0.0570623)
(0.688991 0.724372 -0.0240118)
(0.658568 0.752321 -0.0173625)
(0.721141 0.692706 -0.0106732)
(0.671384 0.740354 -0.0334621)
(0.718886 0.694401 -0.0317825)
(0.668403 0.743091 -0.0324456)
(0.654857 0.748859 -0.101849)
(0.643098 0.749818 -0.155556)
(0.666222 0.736067 -0.119805)
(0.624082 0.766678 -0.150753)
(0.654043 0.745396 -0.128888)
(0.647392 0.751113 -0.12928)
(0.669552 0.734084 -0.113228)
(0.671464 0.739015 -0.0547126)
(0.691848 0.721543 -0.0268757)
(0.713691 0.700207 -0.0188637)
(0.666985 0.744731 -0.0225149)
(0.674839 0.736502 -0.046451)
(0.719126 0.694259 -0.0293676)
(0.657623 0.752796 -0.028822)
(0.629376 0.758777 -0.167759)
(0.612625 0.755056 -0.233625)
(0.628069 0.750666 -0.20501)
(0.61524 0.74641 -0.253676)
(0.634537 0.737958 -0.229742)
(0.635068 0.748434 -0.191144)
(0.709422 0.688499 -0.150633)
(0.713927 0.695187 -0.0838068)
(0.682288 0.726932 -0.0778047)
(0.748454 0.662085 -0.0382069)
(0.709096 0.699535 -0.0885103)
(0.746183 0.657125 -0.106764)
(0.689489 0.712606 -0.129607)
(0.707967 0.664067 -0.240411)
(0.689744 0.633492 -0.350629)
(0.637244 0.591628 -0.493859)
(0.596735 0.58498 -0.549278)
(0.703127 0.645986 -0.297178)
(0.697444 0.653611 -0.293878)
(0.655395 0.61691 -0.435753)
(0.709698 0.685191 -0.163833)
(0.716664 0.687531 -0.117021)
(0.744857 0.659622 -0.100429)
(0.691076 0.696141 -0.194426)
(0.713652 0.681971 -0.160051)
(0.747566 0.653372 -0.119373)
(0.685116 0.694062 -0.221121)
(0.70034 0.664723 -0.260129)
(0.673119 0.654467 -0.34436)
(0.693553 0.670862 -0.262542)
(0.61292 0.613122 -0.498408)
(0.688883 0.654857 -0.31081)
(0.702576 0.679482 -0.211404)
(0.665031 0.640301 -0.384379)
(-0.182614 -0.209388 0.960629)
(-0.0193095 -0.0680532 0.997495)
(-0.0271941 -0.0447146 0.99863)
(-0.0175147 -0.0558053 0.998288)
(-0.133429 -0.159431 0.978151)
(-0.0543857 -0.101786 0.993319)
(-0.0343771 -0.0736621 0.996691)
(-0.180168 -0.319072 0.930447)
(0.0475616 -0.166433 0.984905)
(0.0184248 -0.213798 0.976704)
(0.0397069 -0.191523 0.980685)
(-0.188032 -0.340621 0.921206)
(0.0138947 -0.191722 0.981351)
(0.0243101 -0.169509 0.985229)
(0.673296 0.737476 -0.0529283)
(0.689774 0.723561 -0.0259186)
(0.667993 0.743242 -0.0371131)
(0.713162 0.700525 -0.0257858)
(0.665676 0.745244 -0.0385443)
(0.716691 0.696646 -0.0322073)
(0.673219 0.737638 -0.0516402)
(0.674129 0.737527 -0.0400404)
(0.667288 0.743508 -0.0438368)
(0.767339 0.640846 -0.0225378)
(0.771503 0.635431 -0.0318011)
(0.782133 0.622391 -0.0299572)
(0.783748 0.619613 -0.0426488)
(0.780028 0.625439 -0.0195509)
(0.780319 0.624238 -0.0378127)
(0.662551 0.747787 -0.0429052)
(0.661507 0.748575 -0.0452155)
(0.663123 0.747844 -0.0315689)
(0.665588 0.745229 -0.0403298)
(0.690931 0.717532 -0.0881037)
(0.666567 0.744989 -0.0260615)
(0.700686 0.712352 -0.0399182)
(0.734729 0.678177 -0.0157837)
(0.688449 0.723573 -0.0498028)
(0.676445 0.734646 -0.0521366)
(0.731786 0.679471 -0.0529924)
(0.680345 0.715991 -0.156482)
(0.670925 0.703523 -0.234341)
(0.638122 0.719115 -0.27509)
(0.675944 0.703952 -0.218064)
(0.677027 0.708003 -0.200912)
(0.672344 0.712784 -0.199732)
(0.680806 0.706657 -0.192715)
(0.673153 0.718264 -0.175957)
(0.673938 0.718557 -0.171705)
(0.664167 0.725019 -0.18229)
(0.635878 0.728162 -0.255812)
(0.672508 0.726352 -0.141934)
(0.673038 0.715766 -0.186277)
(0.662898 0.717283 -0.21464)
(0.691415 0.717134 -0.0875475)
(0.703694 0.709032 -0.0457086)
(0.677714 0.733921 -0.0454302)
(0.72892 0.683605 -0.0368811)
(0.670631 0.739625 -0.0566441)
(0.733563 0.677763 -0.0502246)
(0.695025 0.714767 -0.0777758)
(0.66134 0.748895 -0.0422623)
(0.66377 0.745897 -0.0552034)
(0.661709 0.747116 -0.0629166)
(0.660646 0.747975 -0.0638793)
(0.784868 0.619142 -0.0254162)
(0.78542 0.617102 -0.0479714)
(0.787069 0.615631 -0.0390086)
(0.788495 0.612686 -0.0537816)
(0.775946 0.53752 -0.330122)
(0.784658 0.554258 -0.277686)
(0.798514 0.596256 -0.0827885)
(0.79658 0.58192 -0.163796)
(-0.201858 -0.0185672 0.979239)
(-0.247978 -0.0746395 0.965886)
(0.636899 0.615435 -0.464327)
(-0.513806 -0.378444 0.769925)
(0.621732 0.530921 -0.575823)
(-0.174302 -0.0156496 0.984568)
(-0.251054 -0.0863463 0.964114)
(-0.298683 -0.134273 0.944859)
(0.689061 0.615285 -0.382908)
(-0.20653 -0.0644984 0.976312)
(-0.393446 -0.230558 0.889968)
(-0.396765 -0.323597 0.858989)
(-0.142622 -0.0258769 0.989439)
(-0.107772 -0.00806706 0.994143)
(-0.139864 -0.0391313 0.989397)
(-0.121799 -0.0179928 0.992392)
(-0.15638 -0.0590908 0.985928)
(-0.333285 -0.252268 0.90845)
(-0.181748 -0.0159745 0.983215)
(-0.170578 -0.0120249 0.985271)
(-0.103476 0.00552005 0.994617)
(-0.114774 -0.00615063 0.993373)
(0.758789 0.514246 -0.399737)
(-0.54348 -0.304684 0.782175)
(-0.159843 -0.0326948 0.986601)
(-0.250852 -0.103763 0.962448)
(0.589049 0.725536 -0.355835)
(0.290291 0.69797 -0.654651)
(0.0736029 -0.228394 0.970783)
(0.0591262 -0.28282 0.957349)
(0.555448 0.824881 -0.105113)
(0.531909 0.832647 -0.15418)
(0.0914739 -0.196136 0.976301)
(0.0936693 -0.252536 0.963043)
(0.69893 0.709072 -0.0933421)
(0.598838 0.794023 -0.104505)
(0.704642 0.709349 -0.017415)
(0.627374 0.753336 -0.197199)
(0.652436 0.722092 -0.230025)
(0.630991 0.775621 -0.0161881)
(0.668185 0.738108 -0.0934052)
(0.788283 0.565187 -0.243255)
(0.554494 0.62276 -0.552002)
(0.665947 0.572406 -0.4784)
(-0.535787 -0.524908 0.661365)
(0.638482 0.57444 -0.51221)
(0.785414 0.573004 -0.234076)
(0.499512 0.629162 -0.595518)
(0.778051 0.615298 -0.126668)
(0.695839 0.695655 -0.17853)
(0.712039 0.622806 -0.324212)
(0.729375 0.683385 -0.0315639)
(0.703038 0.629585 -0.330697)
(0.732582 0.680474 0.0166978)
(0.773044 0.619008 -0.138676)
(0.784104 0.566197 -0.254169)
(-0.418983 -0.594601 0.686223)
(-0.437517 -0.522093 0.732119)
(-0.236619 -0.652991 0.719454)
(0.573512 0.58341 -0.57508)
(0.765502 0.586269 -0.265133)
(-0.406471 -0.640319 0.651746)
(0.566697 0.822141 -0.0542011)
(0.570851 0.820786 -0.0209736)
(0.731645 0.667428 -0.138691)
(0.764107 0.642485 -0.0579042)
(0.686053 0.722965 -0.0815672)
(0.66706 0.735215 -0.120372)
(0.669198 0.735677 -0.104659)
(0.641391 0.756747 -0.126299)
(0.648331 0.750317 -0.129195)
(0.653927 0.750256 -0.09744)
(0.667291 0.743291 -0.0473397)
(0.688018 0.725325 -0.0231426)
(0.66543 0.746091 -0.0234873)
(0.709735 0.704263 -0.0170554)
(0.669391 0.741751 -0.0414968)
(0.657762 0.752734 -0.0272113)
(0.714996 0.698643 -0.0260477)
(0.673813 0.736634 -0.057851)
(0.688356 0.725 -0.0232443)
(0.663894 0.747259 -0.0291365)
(0.718055 0.695736 -0.0186639)
(0.672741 0.738721 -0.0413687)
(0.668925 0.742318 -0.038777)
(0.71774 0.695519 -0.0332006)
(0.774839 0.631934 -0.0168457)
(0.774715 0.631559 -0.030814)
(0.776833 0.629268 -0.023483)
(0.778878 0.626244 -0.0341832)
(0.665576 0.745747 -0.0294801)
(0.669139 0.742343 -0.0343479)
(0.664934 0.746203 -0.0323047)
(0.663308 0.747526 -0.0350261)
(0.669231 0.742421 -0.0306881)
(0.66573 0.745424 -0.0338686)
(0.667567 0.743567 -0.0382434)
(0.673652 0.738013 -0.0391086)
(0.771343 0.636095 -0.0203013)
(0.774348 0.632071 -0.0295128)
(0.770316 0.637357 -0.0197152)
(0.769406 0.638117 -0.0286643)
(0.648868 0.708067 -0.278588)
(0.619733 0.700455 -0.35397)
(0.649959 0.722043 -0.237083)
(0.642429 0.735862 -0.213991)
(0.619004 0.713785 -0.327635)
(0.641881 0.723558 -0.253874)
(0.656797 0.707219 -0.261647)
(0.6085 0.649805 -0.455501)
(0.654705 0.691421 -0.305448)
(0.701652 0.703508 -0.112965)
(0.709963 0.701256 -0.0647537)
(0.684634 0.724997 -0.0752062)
(0.736949 0.67375 -0.0544797)
(0.705367 0.701156 -0.104106)
(0.678956 0.728528 -0.0909202)
(0.740982 0.667886 -0.0698074)
(0.688208 0.694133 -0.211068)
(0.680283 0.699815 -0.217885)
(0.679133 0.694979 -0.236183)
(0.638707 0.685835 -0.348831)
(0.688192 0.704864 -0.171927)
(0.678343 0.68885 -0.255611)
(0.677257 0.689202 -0.257534)
(0.700728 0.704556 -0.112171)