/*--------------------------------*- C++ -*----------------------------------*\
| =========                 |                                                 |
| \\      /  F ield         | OpenFOAM: The Open Source CFD Toolbox           |
|  \\    /   O peration     | Version:  2012                                  |
|   \\  /    A nd           | Website:  www.openfoam.com                      |
|    \\/     M anipulation  |                                                 |
\*---------------------------------------------------------------------------*/
FoamFile
{
    version     2.0;
    format      ascii;
    class       volScalarField;
    location    "0.108/solid";
    object      sigmaMid;
}
// * * * * * * * * * * * * * * * * * * * * * * * * * * * * * * * * * * * * * //

dimensions      [1 -1 -2 0 0 0 0];


internalField   nonuniform List<scalar> 
3125
(
8.04285e+06
-7.30608e+06
-1.38535e+07
1.11364e+07
-6.27781e+06
-1.29183e+07
1.89e+07
58756.9
-9.71246e+06
1.81742e+07
-1.94397e+06
-1.04273e+07
2.17571e+07
1.29049e+07
8.39818e+06
5.07939e+06
3.62096e+07
3.69719e+06
9.65359e+06
-5.03907e+06
-4.70826e+06
-9.69324e+06
-8.19361e+06
-1.31885e+06
-1.18325e+07
-5.80005e+06
-1.81413e+07
-1.24972e+07
-1.93554e+07
-1.46957e+07
-1.53008e+07
-2.16703e+07
-1.33099e+07
5.1743e+06
9.20767e+06
5.62223e+07
1.40805e+07
1.63425e+07
9.98247e+06
3.76997e+07
1.47973e+07
1.98431e+07
3.7242e+06
-631861
-1.20172e+07
-9.86914e+06
3.34432e+06
-5.06951e+06
-3.45038e+06
-8.95424e+06
-1.15392e+06
-6.60673e+06
-1.98637e+06
-1.26793e+07
-1.45446e+07
-2.03966e+07
-1.90219e+07
-1.27213e+07
-1.20052e+07
-1.13982e+07
-1.87336e+07
-1.51722e+07
-1.7146e+07
-1.03343e+07
-2.09306e+07
-2.30057e+07
2.2838e+07
3.05878e+07
8.06248e+07
3.60415e+07
2.06215e+07
8.45317e+06
5.03624e+06
1.16201e+07
4.5558e+06
2.07006e+07
2.399e+06
-1.63043e+06
4.03132e+06
2.2482e+06
1.05456e+07
6.67838e+06
-1.88192e+06
2.80546e+06
807598
3.58347e+06
-5.17062e+06
-6.25944e+06
-1.31234e+07
-1.55245e+07
-5.30078e+06
-8.9823e+06
-1.44354e+07
-7.64554e+06
-1.25437e+07
-9.29328e+06
-6.76497e+06
-1.79102e+07
-1.62178e+07
-7.52325e+06
-6.67011e+06
-1.10682e+07
-1.22628e+07
-2.14183e+07
-2.308e+07
-1.86948e+07
-1.32332e+07
-2.29412e+07
-1.17416e+07
-2.39368e+07
-1.19899e+07
1.18691e+07
1.21614e+07
1.01516e+07
5.80918e+07
1.65175e+07
2.19229e+07
2.69049e+07
7.86622e+07
1.65927e+07
2.33512e+07
1.0179e+07
1.38572e+07
1.49132e+07
2.58518e+07
3.62019e+07
2.94423e+07
1.9296e+07
1.55471e+07
-5.44771e+06
-1.94764e+06
-6.45326e+06
-9.09591e+06
3.58563e+06
-3.63948e+06
-2.7699e+06
1.71902e+06
1.00103e+07
-5.7332e+06
-275993
-4.6167e+06
-3.12647e+06
-1.2165e+07
-8.91568e+06
-3.40552e+06
-7.61713e+06
-281680
-2.34888e+06
-1.85565e+07
-1.67527e+07
-1.51316e+07
-2.04345e+07
-1.90906e+07
-1.72445e+07
-1.85886e+07
-2.29191e+07
-2.2097e+07
-2.08286e+07
-2.1799e+07
-1.25696e+07
-1.11777e+07
-1.50234e+07
-8.49148e+06
-9.50218e+06
-1.66244e+07
-9.36568e+06
-1.05088e+07
-9.0699e+06
-2.10549e+07
-2.00539e+07
-1.8396e+07
-1.9664e+07
-7.86077e+06
-8.67213e+06
-2.32127e+07
-2.43354e+07
-1.41181e+07
-2.41365e+07
-2.4848e+07
-2.25221e+07
-1.16803e+07
-2.38572e+07
-1.04654e+07
-1.24871e+07
-2.45752e+07
1.19615e+07
2.78615e+07
1.18543e+07
1.50091e+07
1.58733e+07
1.36543e+07
1.11949e+07
1.47739e+07
2.91477e+07
1.98668e+07
1.80833e+07
1.55099e+07
1.90045e+07
1.58156e+07
-6.25038e+06
-3.20496e+06
-7.3503e+06
-5.07903e+06
-4.65324e+06
-6.53285e+06
-6.71309e+06
-5.34447e+06
-3.05079e+06
-3.10153e+06
-4.83769e+06
-4.88033e+06
-3.55776e+06
-5.63061e+06
-1.68514e+07
-1.65594e+07
-1.93042e+07
-1.70609e+07
-1.61491e+07
-1.82884e+07
-1.79965e+07
-1.61583e+07
-1.63615e+07
-1.4692e+07
-1.67857e+07
-1.54009e+07
-1.5281e+07
-1.74461e+07
2.23026e+07
4.74275e+07
3.21408e+07
3.07438e+07
2.29363e+07
2.87717e+07
2.84258e+07
1.91613e+07
4.57088e+07
2.33274e+07
2.11964e+07
1.85083e+07
2.43752e+07
2.45254e+07
-2.08343e+06
1.025e+06
-1.09352e+06
700614
-1.54705e+06
129818
-2.06081e+06
-3.3293e+06
833295
-1.83971e+06
-3.92488e+06
-3.82081e+06
-1.33303e+06
-3.06899e+06
-1.33014e+07
-1.39333e+07
-1.44333e+07
-1.18775e+07
-1.26516e+07
-1.23299e+07
-1.49685e+07
-1.40071e+07
-1.40623e+07
-1.37536e+07
-1.61346e+07
-1.46737e+07
-1.33126e+07
-1.56114e+07
4.14286e+07
9.0587e+07
5.40764e+07
5.62873e+07
3.81398e+07
8.88163e+07
4.97276e+07
4.98887e+07
5.19928e+07
5.18294e+07
3.66092e+07
6.62033e+07
3.40717e+07
5.0285e+07
5.09985e+07
2.99258e+07
5.1756e+07
6.18641e+07
6.44142e+07
5.74276e+07
4.05881e+07
2.20615e+07
4.26171e+07
5.08113e+07
5.45181e+07
2.31979e+07
4.58019e+07
1.47509e+07
1.67509e+07
1.62173e+07
7.52702e+06
1.57215e+07
2.08566e+07
1.8683e+07
1.22359e+07
5.91105e+06
1.27324e+07
1.44458e+07
1.77234e+07
1.94637e+07
8.82549e+06
1.56612e+07
2.48201e+07
2.0712e+07
1.06222e+07
6.49019e+06
1.31852e+07
7.86806e+06
9.96979e+06
1.55571e+07
1.21577e+07
8.62428e+06
8.36052e+06
1.13156e+07
5.58492e+06
1.47424e+07
5.23715e+06
7.97373e+06
6.67253e+06
8.76341e+06
4.8737e+06
1.1922e+07
9.54978e+06
-381127
3.52987e+06
5.24191e+06
8.70001e+06
1.19054e+06
6.7652e+06
5.75866e+06
7.55609e+06
1.30124e+07
1.11422e+07
6.10792e+06
1.51553e+06
6.57488e+06
7.88315e+06
9.5921e+06
9.50644e+06
2.78632e+06
9.01369e+06
-4.77536e+06
-3.97262e+06
-3.512e+06
-5.50008e+06
-3.74838e+06
-2.41568e+06
-3.31029e+06
-5.01185e+06
-5.97311e+06
-4.79962e+06
-9.55751e+06
-8.22254e+06
-7.38273e+06
-1.3961e+07
-8.83567e+06
-5.87389e+06
-7.40414e+06
-1.08459e+07
-1.47771e+07
-9.58282e+06
-7.99632e+06
-8.3171e+06
-7.29842e+06
-6.04577e+06
-7.50158e+06
-9.14563e+06
-6.46654e+06
-8.70994e+06
-7.53672e+06
-1.08489e+07
-7.82255e+06
-1.00863e+07
-7.35634e+06
-9.27898e+06
-1.0279e+07
-1.14284e+07
-1.74018e+07
-1.41051e+07
-1.31708e+07
-1.15063e+07
-1.68015e+07
-1.25946e+07
-1.30484e+07
-1.20618e+07
-5.34816e+06
-6.0947e+06
-7.16681e+06
-7.28952e+06
-6.95706e+06
-7.3511e+06
-6.58938e+06
-5.93431e+06
-6.92408e+06
-6.13491e+06
-1.63605e+07
-1.53106e+07
-1.34325e+07
-1.1521e+07
-1.35185e+07
-1.39023e+07
-1.47782e+07
-1.44413e+07
-1.19381e+07
-1.42823e+07
-2.07303e+07
-1.91563e+07
-1.88372e+07
-2.17645e+07
-1.95669e+07
-1.81115e+07
-1.87384e+07
-2.14873e+07
-2.22448e+07
-1.99742e+07
-2.0802e+07
-2.05896e+07
-2.01911e+07
-1.78848e+07
-1.88268e+07
-2.18311e+07
-1.96179e+07
-2.36384e+07
-2.41631e+07
-2.2914e+07
-2.49997e+07
-2.1803e+07
-9.50414e+06
-2.0046e+07
-9.82069e+06
-2.29063e+07
-2.05101e+07
-2.23195e+07
-2.10951e+07
-2.1147e+07
-2.20476e+07
-2.48732e+07
-2.29977e+07
-2.19122e+07
-2.42956e+07
-2.28526e+07
-2.23259e+07
-1.68382e+07
-1.91504e+07
-1.00872e+07
-1.96698e+07
-2.04476e+07
-1.56674e+07
-1.14613e+07
-1.7181e+07
2.73998e+07
6.7398e+07
3.61817e+07
3.58229e+07
2.64617e+07
3.98459e+07
3.80178e+07
3.13893e+07
6.94329e+07
4.67331e+07
4.51269e+07
3.27259e+07
4.35973e+07
4.30709e+07
3.33335e+07
2.89851e+07
1.94221e+07
1.11318e+07
2.00969e+07
2.30461e+07
2.63001e+07
2.49568e+07
1.28893e+07
2.35975e+07
4.18737e+07
3.67159e+07
2.22845e+07
1.84298e+07
2.69706e+07
2.82074e+07
3.29789e+07
3.49976e+07
2.21644e+07
2.99922e+07
4.5765e+07
5.08736e+07
4.84257e+07
3.49407e+07
4.53011e+07
5.88743e+07
5.45975e+07
3.80177e+07
3.25565e+07
4.26256e+07
3.6249e+07
4.06721e+07
3.68751e+07
1.81165e+07
3.49184e+07
4.77925e+07
4.37113e+07
2.89721e+07
1.65757e+07
3.08203e+07
510211
6.3329e+06
53525.8
2.39774e+06
-81632.9
1.16065e+06
3.04138e+06
2.22594e+06
6.66732e+06
3.74035e+06
5.72288e+06
2.88013e+06
2.47396e+06
5.00306e+06
1.43038e+06
261218
-2.30274e+06
-4.23202e+06
-2.03044e+06
-1.64804e+06
-629157
-314409
-3.57745e+06
-632539
-1.05138e+06
-2.47845e+06
-6.56884e+06
-1.1184e+07
-4.99721e+06
-4.98208e+06
-3.38191e+06
-2.66683e+06
-1.00622e+07
-4.17036e+06
-21854.6
1.39419e+06
2.28193e+06
-4.84718e+06
717892
4.19764e+06
2.65309e+06
-1.78955e+06
-6.30114e+06
-316756
2.46199e+06
3.80323e+06
3.96285e+06
-897372
3.54177e+06
6.51852e+06
4.99369e+06
1.30351e+06
-1.8201e+06
1.67246e+06
-2.00277e+07
-1.95644e+07
-2.26477e+07
-2.23666e+07
-2.11681e+07
-2.15022e+07
-1.1296e+07
-1.12148e+07
-1.37424e+07
-1.08443e+07
-1.19567e+07
-1.31466e+07
-1.0334e+07
-1.06057e+07
-1.10387e+07
-1.17043e+07
-8.75422e+06
-9.96491e+06
-1.23811e+07
-9.29311e+06
-1.10512e+07
-1.18953e+07
-1.23452e+07
-1.00352e+07
-1.22821e+07
-1.33082e+07
-1.25239e+07
-1.10121e+07
-9.4661e+06
-1.10844e+07
-1.61236e+07
-1.67461e+07
-1.85022e+07
-2.07442e+07
-1.79376e+07
-1.77198e+07
-1.71682e+07
-1.69617e+07
-2.0392e+07
-1.75691e+07
-1.56715e+07
-1.49467e+07
-1.46141e+07
-1.88389e+07
-1.54167e+07
-1.3605e+07
-1.44509e+07
-1.65584e+07
-1.92844e+07
-1.58654e+07
-1.03832e+07
-9.42597e+06
-8.06438e+06
-8.08823e+06
-8.25959e+06
-7.79741e+06
-8.77485e+06
-9.70115e+06
-8.42023e+06
-9.60859e+06
-2.35347e+07
-2.39173e+07
-2.48386e+07
-2.57284e+07
-2.50326e+07
-2.46955e+07
1.48092e+07
2.38285e+07
1.86983e+07
1.88489e+07
1.96978e+07
1.96467e+07
1.45425e+07
1.01713e+07
7.67653e+06
1.34867e+07
6.77683e+06
1.09972e+07
6.99439e+06
1.17715e+07
2.13937e+07
3.35284e+07
3.06412e+07
3.08162e+07
2.24152e+07
2.94358e+07
2.95512e+07
7.76059e+06
8.30227e+06
5.21874e+06
4.00026e+06
4.72377e+06
9.89528e+06
6.91953e+06
-5.55114e+06
-4.34425e+06
-6.29011e+06
-5.01438e+06
-4.85266e+06
-6.12606e+06
-5.69685e+06
-7.68786e+06
-8.6948e+06
-7.01723e+06
-1.0405e+07
-7.21946e+06
-9.15568e+06
-7.78368e+06
-3.33876e+06
-1.97872e+06
-2.21965e+06
-2.83252e+06
-3.16527e+06
-2.41477e+06
-3.11001e+06
-1.79684e+07
-1.74911e+07
-1.88406e+07
-1.78838e+07
-1.73737e+07
-1.83445e+07
-1.84912e+07
-1.57469e+07
-1.57216e+07
-1.55059e+07
-1.62495e+07
-1.53871e+07
-1.56463e+07
-1.63459e+07
4.21616e+06
6.66075e+06
4.6575e+06
6.60525e+06
7.94814e+06
6.47882e+06
3.66001e+07
5.29574e+07
4.94917e+07
4.88436e+07
3.81586e+07
4.73528e+07
4.79718e+07
1.42388e+07
1.00314e+07
1.55032e+07
1.16092e+07
1.35129e+07
1.05737e+07
1.74471e+07
2.61479e+07
4.04772e+07
3.36918e+07
3.38757e+07
2.48577e+07
3.50129e+07
3.52121e+07
2.17953e+06
2.21054e+06
1.58903e+06
776372
-1.00034e+06
-378725
639964
2.46188e+06
1.40907e+06
2.02795e+06
790682
1.83511e+06
1.12411e+06
-5.8748e+06
-7.98119e+06
-6.14319e+06
-8.20786e+06
-6.37016e+06
-7.51196e+06
-5.34212e+06
-2.23289e+06
-512436
-1.4954e+06
-2.10677e+06
-2.40043e+06
-1.29993e+06
-1.94279e+06
-4.86895e+06
-3.51697e+06
-6.15184e+06
-7.42055e+06
-6.65242e+06
-4.32787e+06
-4.39918e+06
-1.30714e+07
-1.32143e+07
-1.39649e+07
-1.3043e+07
-1.27452e+07
-1.31981e+07
-1.40743e+07
-1.47589e+07
-1.47349e+07
-1.49585e+07
-1.57415e+07
-1.49513e+07
-1.48783e+07
-1.56883e+07
5.80055e+07
8.36475e+07
7.29807e+07
7.1614e+07
7.42732e+07
7.2895e+07
5.7093e+07
8.2684e+07
8.5928e+07
7.83499e+07
8.1291e+07
2.16319e+07
2.36374e+07
3.58248e+07
3.33634e+07
2.17092e+07
2.3829e+07
3.65826e+07
3.38722e+07
1.2587e+07
1.64779e+07
1.86966e+07
1.65523e+07
1.27436e+07
1.5589e+07
1.58377e+07
1.97219e+06
-1.19821e+06
-422588
2.26525e+06
3.55902e+06
-539538
1.23026e+06
3.91108e+06
6.56943e+06
1.94749e+06
874377
4.71757e+06
5.11758e+06
1.24012e+06
7.67833e+06
1.18984e+07
8.59674e+06
9.19269e+06
9.03231e+06
9.49551e+06
7.40273e+06
2.04249e+07
1.84534e+07
9.97656e+06
1.13468e+07
2.07646e+07
1.89195e+07
1.07266e+07
1.19991e+07
-4.25529e+06
-3.76683e+06
-779391
-1.32978e+06
-6.97951e+06
-6.16507e+06
-2.42527e+06
-3.2173e+06
-6.60294e+06
-7.30417e+06
-6.13825e+06
-5.8412e+06
-6.26942e+06
-7.50564e+06
-6.19684e+06
-8.75159e+06
-8.63288e+06
-1.03065e+07
-9.07206e+06
-1.01757e+07
-8.87116e+06
-9.03074e+06
-7.29411e+06
-8.06891e+06
-1.09952e+07
-1.03784e+07
-4.32655e+06
-5.00046e+06
-8.15157e+06
-7.47789e+06
-1.70663e+07
-1.64649e+07
-1.44273e+07
-1.48595e+07
-1.96202e+07
-1.89753e+07
-1.65941e+07
-1.69654e+07
-1.99003e+07
-1.94458e+07
-1.93015e+07
-1.84667e+07
-1.90237e+07
-1.9971e+07
-1.91491e+07
-2.01709e+07
-1.31736e+07
-1.77512e+07
-1.26312e+07
-1.68809e+07
-2.1328e+07
-1.23637e+07
-2.19668e+07
-2.16475e+07
-2.11171e+07
-2.39181e+07
-2.00656e+07
-2.27724e+07
-2.3054e+07
-1.89757e+07
-1.53827e+07
-1.18635e+07
-1.12847e+07
-1.58313e+07
-1.78572e+07
-1.16251e+07
-2.00772e+07
-2.06157e+07
-1.76357e+07
-1.83718e+07
7.36318e+06
1.18648e+07
7.83519e+06
7.77422e+06
1.11223e+07
7.48773e+06
4.25149e+07
6.13827e+07
5.31467e+07
5.23854e+07
4.09948e+07
5.4681e+07
5.39154e+07
5.33855e+07
7.53919e+07
6.9691e+07
6.84174e+07
5.42748e+07
6.8303e+07
6.70715e+07
5.506e+07
5.20968e+07
3.70671e+07
3.97347e+07
5.75147e+07
5.41418e+07
3.83203e+07
4.12074e+07
5.9618e+07
6.31024e+07
8.07219e+07
7.73321e+07
5.6626e+07
5.97526e+07
7.66531e+07
7.37057e+07
-5.37588e+06
-4.35971e+06
-4.83297e+06
-2.75146e+06
-3.20097e+06
-3.34699e+06
-6.60625e+06
-7.39648e+06
-7.09517e+06
2.05322e+06
4.46567e+06
2.36281e+06
3.02662e+06
1.82833e+06
2.60662e+06
3.27137e+06
-1.11194e+06
-2.7057e+06
886532
-3.82251e+06
-441138
-3.30778e+06
-253226
5.86428e+06
8.69273e+06
7.22821e+06
7.76727e+06
6.01823e+06
6.79521e+06
7.51338e+06
-2.5311e+06
-2.45867e+06
-5.11091e+06
-4.81605e+06
-3.13165e+06
-4.56494e+06
-1.4604e+06
3.85289e+06
3.12313e+06
-709908
-74385.7
2.29404e+06
1.49517e+06
-2.11783e+06
-1.49898e+06
2.71764e+06
3.53631e+06
9.1793e+06
7.92519e+06
3.96962e+06
4.8214e+06
1.03634e+07
9.24295e+06
-1.20139e+07
-1.20517e+07
-1.33531e+07
-1.23701e+07
-1.22533e+07
-1.32629e+07
-1.22321e+07
-1.00286e+07
-1.01379e+07
-1.10842e+07
-9.91274e+06
-9.61282e+06
-1.12277e+07
-1.01233e+07
-1.1715e+07
-1.22348e+07
-1.4286e+07
-1.38488e+07
-1.42169e+07
-1.46564e+07
-1.64337e+07
-1.60473e+07
-1.40344e+07
-1.35618e+07
-1.12345e+07
-1.181e+07
-1.15632e+07
-1.10251e+07
-8.34409e+06
-9.02051e+06
-1.40726e+07
-1.89848e+07
-2.2551e+07
-2.24174e+07
-2.4991e+07
-2.41024e+07
-2.28595e+07
-2.26812e+07
-2.32462e+07
-2.07166e+07
-1.14159e+07
-2.01015e+07
-2.35471e+07
-2.45544e+07
-2.40562e+07
-1.88221e+07
-1.06572e+07
-1.94308e+07
-2.13543e+07
-2.53571e+07
1.65536e+07
2.55079e+07
2.30007e+07
2.3043e+07
1.6802e+07
2.19987e+07
2.19491e+07
1.93556e+07
3.15862e+07
2.57015e+07
2.5702e+07
1.88874e+07
2.68215e+07
2.68629e+07
-5.00491e+06
-3.88697e+06
-3.94723e+06
-4.99181e+06
-4.78395e+06
-4.21904e+06
-5.26036e+06
-3.9802e+06
-2.49065e+06
-3.32182e+06
-4.01366e+06
-4.12716e+06
-3.15093e+06
-3.88216e+06
-1.74255e+07
-1.70232e+07
-1.6593e+07
-1.73698e+07
-1.69331e+07
-1.68642e+07
-1.77196e+07
-1.61704e+07
-1.59325e+07
-1.61643e+07
-1.68713e+07
-1.6455e+07
-1.60482e+07
-1.67777e+07
3.41399e+07
5.05307e+07
4.26979e+07
4.31321e+07
3.25906e+07
4.41697e+07
4.46099e+07
2.84123e+07
4.2681e+07
3.93288e+07
3.97014e+07
2.99088e+07
3.79423e+07
3.82755e+07
-238726
1.77455e+06
600095
-35790.5
-433553
820369
164920
-1.48086e+06
78219.7
-249569
-854441
-1.32528e+06
-434286
-1.11387e+06
-1.34293e+07
-1.34636e+07
-1.37306e+07
-1.4608e+07
-1.36345e+07
-1.36254e+07
-1.45386e+07
-1.44052e+07
-1.45098e+07
-1.43434e+07
-1.51638e+07
-1.40878e+07
-1.4481e+07
-1.52599e+07
6.41834e+07
9.28041e+07
8.0547e+07
7.92022e+07
6.34951e+07
8.14755e+07
8.00803e+07
6.06554e+07
8.60799e+07
7.81319e+07
7.67253e+07
6.08064e+07
7.70545e+07
7.57607e+07
9.24073e+07
9.48983e+07
7.97234e+07
6.58745e+07
8.34857e+07
8.40452e+07
8.13445e+07
4.99345e+07
3.99455e+07
4.03225e+07
5.06286e+07
5.04088e+07
3.68722e+07
4.78558e+07
3.73371e+07
4.37594e+07
3.15633e+07
4.77812e+07
3.04222e+07
9.0838e+07
8.79547e+07
7.57295e+07
6.20646e+07
7.17607e+07
7.70499e+07
7.44023e+07
7.83332e+07
8.09932e+07
6.45107e+07
8.0042e+07
7.61853e+07
8.82818e+07
9.05998e+07
8.85457e+07
8.17078e+07
7.57081e+07
5.79807e+07
7.67357e+07
8.60525e+07
8.32549e+07
5.2864e+07
7.31273e+07
7.11276e+07
5.55312e+07
3.60047e+07
2.04771e+06
3.46214e+07
2.33042e+06
5.21182e+07
6.62231e+07
6.83312e+07
4.93423e+07
3.7237e+07
2.18643e+06
3.8874e+07
1.57519e+06
8.67031e+07
8.42448e+07
7.98559e+07
6.85046e+07
5.11227e+07
7.38375e+07
6.96779e+07
7.58629e+07
7.67972e+07
8.27113e+07
7.98206e+07
7.31289e+07
5.33423e+07
7.18822e+07
8.48731e+07
7.84113e+07
5.76687e+07
7.3228e+07
7.47739e+07
5.51104e+07
1.54875e+06
3.92011e+07
2.774e+07
2.55679e+07
2.3575e+07
1.82888e+07
1.4808e+07
2.12083e+07
1.90321e+07
2.26599e+07
2.1456e+07
2.54822e+07
2.6266e+07
2.20382e+07
1.64701e+07
2.11165e+07
2.75893e+07
2.48975e+07
2.06301e+07
2.50118e+07
2.69989e+07
1.93231e+07
1.62613e+07
-994089
1.70286e+07
-1.54101e+06
2.23523e+07
3.18061e+07
2.98198e+07
2.3534e+07
1.46082e+07
-2.17453e+06
1.39792e+07
-1.81742e+06
2.88107e+07
3.11654e+07
3.32653e+07
2.92963e+07
2.05204e+07
3.40752e+07
2.82141e+07
3.25245e+07
3.56251e+07
3.11051e+07
2.82984e+07
2.48935e+07
1.86927e+07
2.58239e+07
2.86352e+07
3.00178e+07
1.79769e+07
2.45503e+07
2.28099e+07
1.89795e+07
1.11508e+07
-3.50543e+06
1.05703e+07
-3.16528e+06
1.63466e+07
1.85874e+07
2.02868e+07
1.52312e+07
1.26841e+07
-2.382e+06
1.33813e+07
-2.88186e+06
2.78798e+07
2.55323e+07
1.8361e+07
1.4668e+07
1.56868e+07
1.94697e+07
1.75615e+07
2.11484e+07
2.31172e+07
1.72974e+07
2.18442e+07
1.90283e+07
1.89687e+07
1.44468e+07
2.09498e+07
1.32099e+07
1.8358e+07
1.54857e+07
1.86072e+07
1.97548e+07
1.42569e+07
1.78628e+07
1.99623e+07
1.6513e+07
1.46587e+07
1.61855e+07
1.15642e+07
1.2276e+07
1.63637e+07
1.50596e+07
1.72631e+07
9.91412e+06
1.54368e+07
1.09633e+07
2.94006e+07
3.19126e+07
3.13027e+07
2.42061e+07
2.90689e+07
2.98133e+07
2.65762e+07
2.25526e+07
2.56875e+07
2.11952e+07
2.70497e+07
2.48273e+07
1.04784e+07
7.26295e+06
1.0741e+07
9.21909e+06
7.42327e+06
1.05527e+07
9.31286e+06
1.08622e+07
4.48156e+06
9.35111e+06
5.14917e+06
1.20302e+07
1.33808e+07
1.27751e+07
9.57988e+06
9.07487e+06
1.17737e+07
1.33907e+07
1.22615e+07
7.87647e+06
1.39542e+07
6.98321e+06
1.10492e+07
1.72745e+07
1.29861e+07
1.33562e+07
1.07683e+07
1.36772e+07
1.38548e+07
9.0319e+06
1.30736e+07
1.12245e+07
1.15369e+07
9.18528e+06
1.05894e+07
1.11479e+07
1.61939e+07
1.4566e+07
1.17367e+07
1.51686e+07
1.28441e+07
1.52461e+07
1.69962e+07
1.01969e+07
9.54769e+06
1.23401e+07
1.3169e+07
1.16698e+07
1.30025e+06
-3.86665e+06
-3.32766e+06
57529.8
1.77623e+06
885687
3.70535e+06
1.99906e+06
1.11027e+06
2.81512e+06
1.00163e+06
2.81013e+06
4.52281e+06
2.56295e+06
4.99573e+06
2.23476e+06
3.70164e+06
3.55716e+06
2.1807e+06
-1.36287e+06
3.52548e+06
-1.96843e+06
6.89181e+06
5.69153e+06
8.2969e+06
8.47605e+06
7.9728e+06
5.38889e+06
7.07484e+06
6.79957e+06
2.84045e+06
8.2061e+06
2.20844e+06
5.65095e+06
5.17471e+06
6.88704e+06
3.86497e+06
4.03815e+06
6.16012e+06
4.76126e+06
5.73375e+06
127397
4.42383e+06
677651
1.41897e+07
1.25695e+07
7.65966e+06
5.7445e+06
6.01455e+06
8.19614e+06
7.13338e+06
9.37039e+06
1.05746e+07
7.47928e+06
9.82339e+06
8.03437e+06
1.55943e+07
1.72433e+07
1.88283e+07
1.59518e+07
1.94759e+07
1.27322e+07
2.06453e+07
1.53028e+07
1.83357e+07
1.7159e+07
1.52146e+07
1.30464e+07
1.12378e+07
1.35274e+07
1.54029e+07
1.63443e+07
1.03799e+07
1.36669e+07
1.26607e+07
1.11854e+07
5.20217e+06
-5.68541e+06
4.73776e+06
-5.4325e+06
9.08251e+06
9.52528e+06
1.06301e+07
8.19761e+06
6.40333e+06
-4.84766e+06
6.96774e+06
-5.24253e+06
1.49539e+07
1.34556e+07
1.19453e+07
9.14047e+06
7.99278e+06
1.04779e+07
9.46955e+06
1.12861e+07
1.05529e+07
1.3444e+07
1.39001e+07
1.13036e+07
9.32014e+06
1.10168e+07
1.4915e+07
1.30944e+07
1.25157e+07
1.34489e+07
1.4799e+07
1.15245e+07
9.36959e+06
-3.70983e+06
9.99923e+06
-4.1552e+06
1.39829e+07
1.84136e+07
1.48771e+07
1.7051e+07
8.00791e+06
-4.67123e+06
7.49238e+06
-4.38429e+06
-2.64044e+06
-3.1613e+06
-3.63717e+06
-4.4847e+06
-4.74224e+06
-4.04957e+06
-4.37221e+06
-3.65243e+06
-4.20921e+06
-2.93407e+06
-2.64583e+06
-3.59243e+06
-4.18173e+06
-3.69797e+06
-2.47537e+06
-2.88243e+06
-2.61918e+06
-2.55404e+06
-2.01223e+06
-3.06966e+06
-3.55343e+06
-8.13e+06
-3.29165e+06
-8.29023e+06
-1.99657e+06
-552409
-986484
-1.57867e+06
-4.12651e+06
-8.43169e+06
-4.35659e+06
-8.32352e+06
-2.58108e+06
-2.03058e+06
-1.12715e+06
-1.92643e+06
-2.6135e+06
-846119
-1.99773e+06
-1.103e+06
-612243
-1.92404e+06
-2.44195e+06
-2.92378e+06
-3.26242e+06
-2.77151e+06
-2.58582e+06
-1.98651e+06
-3.58786e+06
-2.3476e+06
-2.72958e+06
-3.21961e+06
-5.3044e+06
-8.71224e+06
-5.50529e+06
-8.6193e+06
-4.13052e+06
-4.09605e+06
-3.62406e+06
-4.522e+06
-4.80183e+06
-8.45844e+06
-4.57993e+06
-8.5889e+06
-4.86859e+06
-5.7612e+06
-8.36853e+06
-9.26676e+06
-1.00908e+07
-8.08134e+06
-9.43553e+06
-8.31438e+06
-6.97361e+06
-8.57178e+06
-7.30794e+06
-9.02933e+06
-1.28066e+07
-1.53114e+07
-1.22312e+07
-1.55859e+07
-1.14595e+07
-9.74753e+06
-7.80688e+06
-9.33263e+06
-1.01675e+07
-9.96968e+06
-1.10053e+07
-1.31894e+07
-1.63835e+07
-1.37206e+07
-1.61225e+07
-4.52157e+06
-3.69004e+06
-4.4583e+06
-6.28912e+06
-5.84011e+06
-4.86675e+06
-6.67638e+06
-7.91582e+06
-6.05959e+06
-7.0654e+06
-5.72825e+06
-7.14953e+06
-1.48279e+07
-1.80468e+07
-1.52716e+07
-1.7735e+07
-1.45206e+07
-1.69105e+07
-1.40621e+07
-1.71786e+07
-7.07702e+06
-6.55295e+06
-8.43745e+06
-7.06824e+06
-7.27839e+06
-8.28757e+06
-6.84945e+06
-8.30099e+06
-8.2704e+06
-9.32771e+06
-8.00888e+06
-7.84416e+06
-9.49392e+06
-8.26581e+06
-9.17009e+06
-1.0434e+07
-1.05711e+07
-9.45114e+06
-1.10443e+07
-9.13166e+06
-8.42046e+06
-1.19528e+07
-1.11829e+07
-1.03704e+07
-1.01249e+07
-1.13929e+07
-1.74652e+07
-2.00202e+07
-1.98965e+07
-1.77995e+07
-1.72259e+07
-1.95025e+07
-1.68776e+07
-1.95928e+07
-1.59495e+07
-1.8456e+07
-1.55631e+07
-1.86331e+07
-1.62269e+07
-1.91644e+07
-1.66264e+07
-1.89801e+07
-9.40438e+06
-1.0072e+07
-1.21003e+07
-1.28424e+07
-1.3553e+07
-1.18923e+07
-1.30675e+07
-1.22452e+07
-1.10691e+07
-1.23062e+07
-1.13059e+07
-1.27685e+07
-6.11822e+06
-5.48125e+06
-4.57207e+06
-5.06746e+06
-4.23039e+06
-5.59828e+06
-4.12106e+06
-5.35331e+06
-4.47411e+06
-5.20254e+06
-5.4791e+06
-5.95557e+06
-6.08191e+06
-5.95815e+06
-5.71377e+06
-5.1491e+06
-6.24639e+06
-5.31813e+06
-5.69072e+06
-5.93127e+06
-7.26462e+06
-9.19065e+06
-7.42455e+06
-9.11533e+06
-6.66508e+06
-6.69522e+06
-6.36783e+06
-6.9612e+06
-6.86936e+06
-8.98676e+06
-6.69657e+06
-9.08143e+06
-6.31348e+06
-7.09141e+06
-7.00067e+06
-7.86986e+06
-7.37744e+06
-7.1238e+06
-7.84572e+06
-6.7394e+06
-7.66661e+06
-6.48751e+06
-5.6911e+06
-7.09755e+06
-6.9625e+06
-7.28933e+06
-5.74949e+06
-6.21358e+06
-5.46422e+06
-5.46188e+06
-5.05136e+06
-5.80507e+06
-5.89842e+06
-8.73608e+06
-5.70226e+06
-8.84863e+06
-4.9896e+06
-3.92249e+06
-4.65711e+06
-4.26769e+06
-6.33861e+06
-8.95875e+06
-6.51673e+06
-8.8767e+06
-1.57248e+07
-1.61711e+07
-1.60306e+07
-1.66078e+07
-1.61948e+07
-1.60997e+07
-1.63464e+07
-1.57432e+07
-1.64441e+07
-1.57587e+07
-1.51042e+07
-1.57981e+07
-1.57367e+07
-1.5897e+07
-1.53262e+07
-1.54231e+07
-1.38104e+07
-1.44275e+07
-1.4072e+07
-1.42301e+07
-1.281e+07
-1.19509e+07
-1.25958e+07
-1.2213e+07
-1.36119e+07
-1.3353e+07
-1.3717e+07
-1.31998e+07
-1.32864e+07
-1.26166e+07
-1.35102e+07
-1.23678e+07
-1.55272e+07
-1.51107e+07
-1.44705e+07
-1.47163e+07
-1.43617e+07
-1.38629e+07
-1.47767e+07
-1.4146e+07
-1.40298e+07
-1.47502e+07
-1.47324e+07
-1.51799e+07
-1.47048e+07
-1.51404e+07
-1.51836e+07
-1.44653e+07
-1.50098e+07
-1.46797e+07
-1.50447e+07
-1.4562e+07
-1.45561e+07
-1.33195e+07
-1.48777e+07
-1.3129e+07
-1.52197e+07
-1.58003e+07
-1.5372e+07
-1.56117e+07
-1.41533e+07
-1.2772e+07
-1.3904e+07
-1.3007e+07
-1.78335e+07
-1.84476e+07
-2.03135e+07
-2.02396e+07
-2.11104e+07
-1.97664e+07
-2.06104e+07
-1.946e+07
-1.85495e+07
-1.96807e+07
-1.91453e+07
-2.00784e+07
-2.13558e+07
-2.2918e+07
-2.11912e+07
-2.30134e+07
-2.15048e+07
-2.32957e+07
-2.16823e+07
-2.31622e+07
-1.75581e+07
-1.71637e+07
-1.75161e+07
-1.82175e+07
-1.83061e+07
-1.76124e+07
-1.86067e+07
-1.90976e+07
-1.81085e+07
-1.85694e+07
-1.79792e+07
-1.87788e+07
-2.27847e+07
-2.48161e+07
-2.30431e+07
-2.42504e+07
-2.23504e+07
-2.34413e+07
-2.18428e+07
-2.37095e+07
-2.04515e+07
-1.9727e+07
-2.09108e+07
-2.04329e+07
-2.11257e+07
-2.05188e+07
-1.98185e+07
-2.29201e+07
-2.39689e+07
-2.31603e+07
-2.37677e+07
-2.48319e+07
-2.45577e+07
-2.34293e+07
-2.32834e+07
-2.3755e+07
-2.46964e+07
-2.40891e+07
-2.38947e+07
-2.13352e+07
-2.18367e+07
-2.11432e+07
-1.62117e+07
-9.3074e+06
-1.6826e+07
-2.06787e+07
-1.96566e+07
-2.03778e+07
-1.81208e+07
-9.6955e+06
-1.74514e+07
-2.21266e+07
-2.24638e+07
-2.17644e+07
-2.11982e+07
-2.08203e+07
-2.15401e+07
-2.27129e+07
-2.18344e+07
-2.21957e+07
-2.17301e+07
-2.0868e+07
-2.1279e+07
-2.08135e+07
-2.14443e+07
-2.15422e+07
-2.12459e+07
-2.17617e+07
-2.13981e+07
-2.09011e+07
-2.21554e+07
-2.18729e+07
-2.19189e+07
-2.16163e+07
-2.19318e+07
-2.40048e+07
-2.4638e+07
-2.35291e+07
-2.29432e+07
-2.34974e+07
-2.3193e+07
-2.45933e+07
-2.38652e+07
-2.31584e+07
-2.51549e+07
-2.30954e+07
-2.53976e+07
-2.31796e+07
-2.50963e+07
-2.35596e+07
-2.53269e+07
-2.15279e+07
-2.2356e+07
-2.18153e+07
-1.97086e+07
-1.89564e+07
-1.7659e+07
-1.72096e+07
-1.64333e+07
-1.72504e+07
-1.67982e+07
-1.78277e+07
-1.69978e+07
-1.85439e+07
-1.88191e+07
-1.95189e+07
-1.78211e+07
-1.87225e+07
-1.94874e+07
-1.75654e+07
-1.92478e+07
-1.89264e+07
-1.5878e+07
-1.09924e+07
-1.61889e+07
-1.93117e+07
-1.95119e+07
-1.9142e+07
-1.32337e+07
-1.73797e+07
-2.02243e+07
-1.97683e+07
-2.0258e+07
-2.00098e+07
-1.67996e+07
-1.80429e+07
-1.66955e+07
-1.70288e+07
-1.53474e+07
-1.33804e+07
-1.48555e+07
-1.35682e+07
-1.64415e+07
-1.59644e+07
-1.60791e+07
-1.64425e+07
-1.53681e+07
-1.30871e+07
-1.68616e+07
-1.34465e+07
3.49741e+07
3.36697e+07
2.91007e+07
3.175e+07
2.50498e+07
1.47615e+07
1.58578e+07
1.9678e+07
1.85417e+07
2.73787e+07
2.63811e+07
2.25265e+07
2.36017e+07
3.54187e+07
3.60914e+07
3.5341e+07
3.52687e+07
3.00925e+07
3.08814e+07
3.36249e+07
3.31986e+07
4.51292e+07
6.39704e+07
5.97462e+07
5.87701e+07
4.65195e+07
5.8197e+07
5.72444e+07
5.0719e+07
7.27879e+07
6.34345e+07
6.2323e+07
4.94301e+07
6.49331e+07
6.38156e+07
4.64179e+07
4.93778e+07
5.17961e+07
4.65233e+07
3.17206e+07
5.2207e+07
4.51722e+07
5.03679e+07
5.45674e+07
4.9146e+07
4.52862e+07
4.11324e+07
2.95953e+07
4.23076e+07
4.60711e+07
4.74134e+07
2.72984e+07
3.99172e+07
3.77156e+07
2.89272e+07
1.83329e+07
-806090
1.76176e+07
-421218
2.5587e+07
3.23831e+07
2.38402e+07
3.4601e+07
2.00632e+07
400807
2.09426e+07
-192345
4.4978e+07
4.22119e+07
3.96337e+07
3.25553e+07
2.32343e+07
3.63518e+07
3.36237e+07
3.68446e+07
3.82963e+07
4.20613e+07
4.27968e+07
3.75321e+07
2.52632e+07
3.62937e+07
4.46788e+07
4.1066e+07
3.17023e+07
4.05487e+07
4.29352e+07
2.93337e+07
2.40754e+07
1.59195e+06
2.51206e+07
986587
3.33228e+07
4.85777e+07
4.62482e+07
3.54464e+07
2.23465e+07
498822
2.14776e+07
896480
4.84838e+07
5.17357e+07
5.10988e+07
4.1105e+07
4.85347e+07
4.92848e+07
4.54141e+07
4.0188e+07
4.40416e+07
3.74656e+07
4.58056e+07
4.31798e+07
2.48089e+07
1.6857e+07
2.27144e+07
1.82073e+07
2.3581e+07
1.77572e+07
2.322e+07
2.12731e+07
1.90845e+07
2.19005e+07
2.32318e+07
2.56528e+07
2.70053e+07
2.58627e+07
2.27494e+07
2.12307e+07
2.49189e+07
2.74458e+07
2.67587e+07
2.22125e+07
2.07467e+07
2.89732e+07
4.65114e+07
4.34142e+07
3.4264e+07
2.88646e+07
3.07319e+07
3.58432e+07
3.33826e+07
3.82649e+07
4.06963e+07
3.22389e+07
3.89975e+07
3.53992e+07
3.5246e+07
3.04409e+07
2.89092e+07
3.74818e+07
3.31969e+07
2.48239e+07
2.6324e+07
3.09531e+07
6.91721e+07
6.56047e+07
5.46884e+07
4.64886e+07
5.06346e+07
5.65161e+07
5.38215e+07
5.93848e+07
6.20071e+07
5.01825e+07
6.01746e+07
5.61617e+07
4.9408e+07
4.10027e+07
4.95747e+07
4.03883e+07
4.81575e+07
3.91282e+07
4.00902e+07
4.69281e+07
7.13655e+07
7.49297e+07
7.24643e+07
6.98072e+07
5.84764e+07
7.09228e+07
6.69123e+07
6.15642e+07
6.56559e+07
5.5158e+07
6.73955e+07
6.46936e+07
4.16203e+07
3.2928e+07
3.43872e+07
3.94859e+07
4.34729e+07
3.77198e+07
3.64567e+07
4.52682e+07
6.57754e+07
6.26755e+07
5.92829e+07
5.03135e+07
3.68217e+07
5.4796e+07
5.15389e+07
5.60383e+07
5.70207e+07
6.21257e+07
6.19597e+07
5.59015e+07
3.8998e+07
5.44592e+07
6.49723e+07
6.00563e+07
4.56542e+07
5.79394e+07
6.0336e+07
4.28397e+07
3.28066e+07
2.60811e+06
3.43527e+07
1.96673e+06
4.68367e+07
6.58983e+07
4.94334e+07
6.35916e+07
3.13178e+07
2.08543e+06
3.00056e+07
2.42409e+06
6.75018e+07
7.0703e+07
7.27305e+07
6.50813e+07
7.14793e+07
4.63153e+07
7.53797e+07
6.36771e+07
6.97084e+07
6.98217e+07
6.45572e+07
5.97029e+07
4.41329e+07
6.09399e+07
6.65196e+07
6.67896e+07
4.01003e+07
5.74208e+07
5.50141e+07
4.25353e+07
2.66762e+07
1.52696e+06
2.55698e+07
1.91376e+06
3.86202e+07
4.91622e+07
3.59299e+07
5.16126e+07
2.83148e+07
2.39191e+06
2.96402e+07
1.74771e+06
1.2167e+07
1.11236e+07
7.90912e+06
8.7893e+06
2.54511e+06
3.14651e+06
5.76596e+06
4.98628e+06
-5.6061e+06
-5.10042e+06
-3.20601e+06
-3.78822e+06
897491
271279
-1.77502e+06
-1.22278e+06
-1.58468e+07
-1.56119e+07
-1.46879e+07
-1.49564e+07
-1.25455e+07
-1.28756e+07
-1.3952e+07
-1.36612e+07
-6.85261e+06
-7.34755e+06
-8.90114e+06
-8.46979e+06
-1.16635e+07
-1.13086e+07
-9.95781e+06
-1.0366e+07
3.07504e+06
5.2701e+06
4.05906e+06
4.67265e+06
3.22681e+06
3.72296e+06
4.45975e+06
4.68349e+06
7.73341e+06
5.18565e+06
5.85519e+06
4.4294e+06
5.49152e+06
6.12116e+06
1.44819e+06
2.18451e+06
3.3273e+06
2.20032e+06
1.2143e+06
3.62133e+06
2.12606e+06
3.28507e+06
4.0325e+06
2.28131e+06
1.51643e+06
880593
340377
1.09542e+06
1.40003e+06
2.10252e+06
-168267
1.51718e+06
1.01435e+06
310772
-2.77145e+06
-8.09521e+06
-3.03643e+06
-7.96827e+06
-889262
-792123
-1.4087e+06
-167655
-2.10833e+06
-7.73064e+06
-1.80211e+06
-7.92216e+06
1.36383e+06
736117
26609.7
-1.15528e+06
-1.58511e+06
-606057
-971365
-737482
-87012.9
939184
1.226e+06
-12295.8
-831746
-78468.8
1.53903e+06
934395
1.10437e+06
1.24074e+06
1.96123e+06
506184
-426606
-7.22022e+06
-63997.8
-7.45555e+06
1.94267e+06
3.90713e+06
3.32296e+06
2.49226e+06
-1.2006e+06
-7.68431e+06
-1.50906e+06
-7.53014e+06
122882
810016
395183
-1.32553e+06
-326719
14880.4
-1.13091e+06
-2.51389e+06
-1.17428e+06
-2.24447e+06
-873472
-1.66357e+06
-1.11995e+07
-1.46946e+07
-1.18249e+07
-1.44016e+07
-9.96946e+06
-9.06261e+06
-6.19204e+06
-8.86665e+06
-8.67361e+06
-1.04513e+07
-8.19626e+06
-9.36803e+06
-6.92168e+06
-5.46709e+06
-7.54926e+06
-8.03434e+06
-7.66378e+06
-8.83491e+06
-1.0747e+07
-1.34272e+07
-1.37538e+07
-1.00614e+07
-220627
-921401
-3.52075e+06
-4.62746e+06
-5.37712e+06
-3.17753e+06
-4.48979e+06
-2.99282e+06
-1.93829e+06
-3.80335e+06
-2.3535e+06
-3.94891e+06
-6.91892e+06
-5.17136e+06
-3.07661e+06
-4.18941e+06
-5.68568e+06
-5.02676e+06
-6.29286e+06
-8.29728e+06
-1.11622e+07
-1.15504e+07
-7.48068e+06
-7.62306e+06
-6.39032e+06
-3.83438e+06
-6.79588e+06
-6.38676e+06
-5.62936e+06
-8.18554e+06
-8.83468e+06
-1.26822e+07
-1.23337e+07
-9.57945e+06
5.32929e+06
4.35358e+06
1.25901e+06
95009.8
71165.8