/*--------------------------------*- C++ -*----------------------------------*\
| =========                 |                                                 |
| \\      /  F ield         | OpenFOAM: The Open Source CFD Toolbox           |
|  \\    /   O peration     | Version:  2012                                  |
|   \\  /    A nd           | Website:  www.openfoam.com                      |
|    \\/     M anipulation  |                                                 |
\*---------------------------------------------------------------------------*/
FoamFile
{
    version     2.0;
    format      ascii;
    class       volSymmTensorField;
    location    "0.108/solid";
    object      sigma;
}
// * * * * * * * * * * * * * * * * * * * * * * * * * * * * * * * * * * * * * //

dimensions      [1 -1 -2 0 0 0 0];


internalField   nonuniform List<symmTensor> 
3125
(
(-9.21748e+06 -3.09501e+07 1.41874e+06 -1.76186e+07 4.47003e+06 -8.41237e+06)
(9.64589e+06 -1.3197e+07 773525 1.4936e+07 1.34399e+06 7.07429e+06)
(1.4571e+07 -5.64723e+06 215716 2.32421e+07 3.14326e+06 1.325e+07)
(-1.38143e+07 -3.41798e+07 1.58258e+06 -2.51962e+07 4.58304e+06 -1.1494e+07)
(8.49811e+06 -1.47578e+07 868013 1.29405e+07 1.5675e+06 6.02838e+06)
(1.42027e+07 -6.26372e+06 268692 2.28668e+07 2.30843e+06 1.23388e+07)
(-2.94188e+07 -5.80034e+07 5.96295e+06 -4.37003e+07 -1.62249e+06 -1.82453e+07)
(1.10585e+06 -2.28777e+07 1.231e+06 67283.8 3.10236e+06 -414502)
(1.21253e+07 -9.48877e+06 529449 1.92413e+07 1.08065e+06 9.46865e+06)
(-2.7675e+07 -4.9293e+07 4.10594e+06 -4.42962e+07 1.11013e+06 -1.8173e+07)
(3.49492e+06 -2.05634e+07 1.15292e+06 4.22408e+06 2.62839e+06 1.61397e+06)
(1.27281e+07 -8.52787e+06 458653 2.03029e+07 1.16041e+06 1.01422e+07)
(-2.72556e+07 -6.08801e+06 1.33532e+06 -2.76818e+07 -673913 -1.64044e+07)
(-1.94977e+07 -3.23353e+07 998014 -2.37996e+07 2.81379e+06 -1.30267e+07)
(-1.11313e+07 -1.47165e+07 2.77769e+06 -1.72308e+07 2.49156e+06 -9.01441e+06)
(-5.19124e+06 -2.80519e+07 1.34611e+06 -1.07991e+07 4.09462e+06 -5.45711e+06)
(-4.32707e+07 -7.62324e+06 1.57727e+06 -4.38962e+07 -788448 -2.5141e+07)
(-2.86681e+06 -1.29517e+07 2.61689e+06 -7.45118e+06 2.10864e+06 -4.40489e+06)
(-1.4534e+07 -2.87814e+07 918244 -1.68687e+07 2.64181e+06 -9.77902e+06)
(7.43344e+06 -2.52325e+06 663512 7.53326e+06 -419018 4.74672e+06)
(5.56366e+06 -1.16944e+07 549549 1.04486e+07 752831 4.61804e+06)
(1.49038e+07 -6.94974e+06 1.58917e+06 1.47621e+07 705389 8.27805e+06)
(1.06082e+07 -1.18065e+07 686167 1.66084e+07 1.18436e+06 7.97074e+06)
(2.678e+06 -3.17686e+06 839763 2.75836e+06 -530160 1.49481e+06)
(1.67837e+07 -6.00157e+06 1.32121e+06 1.70465e+07 584679 9.86589e+06)
(7.01337e+06 -1.01671e+07 486357 1.23412e+07 662752 5.70957e+06)
(1.85608e+07 -1.08826e+06 -844679 1.86439e+07 1.06877e+06 1.92991e+07)
(1.32083e+07 -3.65492e+06 -4447.03 2.04255e+07 2.7187e+06 1.18279e+07)
(2.10947e+07 -3.278e+06 426664 2.24522e+07 1.56361e+06 1.76406e+07)
(1.46169e+07 -5.076e+06 207403 2.25331e+07 4.41092e+06 1.4389e+07)
(1.66699e+07 -1.47445e+06 -603158 1.68725e+07 803731 1.41091e+07)
(2.20107e+07 -2.82843e+06 210962 2.26045e+07 1.44339e+06 2.13483e+07)
(1.35958e+07 -3.05105e+06 -90591 2.02285e+07 3.86491e+06 1.30109e+07)
(-5.68825e+06 -1.61453e+07 3.02774e+06 -1.33405e+07 2.92773e+06 -5.98129e+06)
(-1.54051e+07 -1.89343e+07 3.78895e+06 -2.3731e+07 2.78157e+06 -9.73898e+06)
(-6.46949e+07 -9.39438e+06 2.60994e+06 -6.57284e+07 -1.54826e+06 -3.53485e+07)
(-1.87972e+07 -3.79882e+07 1.9645e+06 -3.30109e+07 4.21757e+06 -1.44295e+07)
(-2.50164e+07 -3.63438e+07 1.18198e+06 -3.15248e+07 2.73062e+06 -1.64675e+07)
(-1.43502e+07 -1.54018e+07 2.91272e+06 -2.09158e+07 2.58631e+06 -1.05635e+07)
(-4.45283e+07 -7.44973e+06 1.64396e+06 -4.52931e+07 -829355 -2.52123e+07)
(-2.50524e+07 -1.79987e+07 3.94995e+06 -3.22916e+07 2.44495e+06 -1.489e+07)
(-3.09086e+07 -4.1033e+07 1.56866e+06 -3.9753e+07 2.24216e+06 -1.99688e+07)
(-2.8315e+06 -1.54627e+07 2.94582e+06 -9.90353e+06 2.81927e+06 -4.58397e+06)
(4.38941e+06 -1.35381e+07 2.83554e+06 -838616 2.39957e+06 -395864)
(1.80127e+07 -7.63046e+06 1.79986e+06 1.77643e+07 932548 9.93665e+06)
(1.60786e+07 -8.86808e+06 2.11564e+06 1.50474e+07 1.17224e+06 8.24087e+06)
(-4.18172e+06 -3.99045e+06 1.0295e+06 -4.17929e+06 -624826 -2.92751e+06)
(7.1259e+06 -1.6502e+07 965586 1.05513e+07 1.85579e+06 4.79625e+06)
(3.8685e+06 -1.34214e+07 613531 8.21984e+06 897060 3.35548e+06)
(1.41766e+07 -7.31051e+06 1.68433e+06 1.38371e+07 768646 7.67069e+06)
(2.29735e+06 -3.15647e+06 865882 2.33978e+06 -547585 1.35854e+06)
(1.15807e+07 -8.49212e+06 1.9723e+06 1.05311e+07 980724 5.60092e+06)
(1.88111e+06 -1.53651e+07 676531 5.58394e+06 1.09475e+06 1.88369e+06)
(1.85296e+07 -7.27024e+06 1.69569e+06 1.8507e+07 859048 1.04272e+07)
(1.98292e+07 -6.33936e+06 1.41339e+06 2.034e+07 713854 1.17143e+07)
(2.25214e+07 -3.64161e+06 722975 2.41291e+07 1.45288e+06 1.7754e+07)
(2.20127e+07 -4.14133e+06 856637 2.35275e+07 956282 1.5532e+07)
(1.43245e+07 -1.6978e+06 14750.7 1.45074e+07 151927 1.03852e+07)
(1.37513e+07 -6.93336e+06 327079 2.21186e+07 1.72994e+06 1.15398e+07)
(1.25622e+07 -4.28829e+06 54559.5 1.97052e+07 1.91289e+06 1.08042e+07)
(2.08003e+07 -3.42522e+06 490104 2.22277e+07 1.39074e+06 1.66263e+07)
(1.65282e+07 -1.45743e+06 -507273 1.67218e+07 713623 1.36623e+07)
(2.00166e+07 -3.90612e+06 694306 2.13557e+07 882689 1.42932e+07)
(1.18701e+07 -4.96107e+06 135269 1.87531e+07 1.35808e+06 9.92258e+06)
(2.27177e+07 -3.50205e+06 670443 2.4268e+07 1.6191e+06 1.87422e+07)
(2.33371e+07 -3.10812e+06 506086 2.41466e+07 1.45966e+06 2.24034e+07)
(-3.87742e+07 -2.8158e+07 1.0812e+07 -4.07645e+07 -1.58641e+06 -1.67226e+07)
(-4.61938e+07 -6.29614e+07 4.82031e+06 -6.02755e+07 -1.7894e+06 -3.00663e+07)
(-9.05772e+07 -1.23763e+07 5.79905e+06 -9.22299e+07 -4.03282e+06 -5.06047e+07)
(-4.16461e+07 -6.72536e+06 8.22404e+06 -3.96335e+07 -1.24336e+06 -2.05373e+07)
(-4.97238e+07 -7.71853e+07 1.35283e+06 -2.11565e+07 -4.00015e+06 -2.04024e+07)
(-2.37181e+07 -4.2719e+07 636240 -5.39404e+06 875625 -8.47301e+06)
(-1.68458e+07 -3.49959e+07 224073 454685 1.27037e+06 -5.03712e+06)
(-1.39637e+07 -4.07699e+06 2.16551e+06 -1.63402e+07 550015 -9.2581e+06)
(-4.69797e+06 -3.77709e+06 2.09607e+06 -6.86442e+06 435329 -4.32069e+06)
(-2.63022e+07 -6.20841e+06 1.31695e+06 -2.66271e+07 -672438 -1.6247e+07)
(-1.7652e+06 -2.5373e+07 1.29308e+06 -4.9087e+06 3.60778e+06 -2.7721e+06)
(5.12736e+06 -1.0826e+07 2.41015e+06 2.39566e+06 1.53605e+06 819661)
(-6.41812e+06 -2.26306e+07 835605 -5.64546e+06 1.98746e+06 -4.15843e+06)
(-560997 -1.23888e+07 2.57338e+06 -4.63668e+06 1.9386e+06 -2.9728e+06)
(-1.42624e+07 -4.92895e+06 1.20604e+06 -1.44601e+07 -672952 -8.96759e+06)
(-1.0179e+07 -2.55642e+07 873510 -1.08246e+07 2.33608e+06 -6.8068e+06)
(4.38839e+06 -3.30543e+06 1.97109e+06 2.75065e+06 281139 1.05472e+06)
(-2.07301e+06 -3.65032e+06 2.07626e+06 -4.0542e+06 385622 -2.84556e+06)
(-8.79293e+06 -2.64785e+07 234872 6.72561e+06 850401 -814453)
(-1.41503e+07 -3.2759e+07 506493 2.37075e+06 936777 -3.60402e+06)
(2.76661e+06 -1.29685e+07 293382 1.4522e+07 31634.3 5.16514e+06)
(4.96974e+06 -9.85387e+06 176650 1.58703e+07 91500.5 6.25389e+06)
(1.55746e+07 -2.24031e+06 1.31983e+06 1.4843e+07 98386.5 8.6438e+06)
(1.77247e+07 -1.96994e+06 1.10336e+06 1.70942e+07 71139 1.03004e+07)
(7.71362e+06 -2.53389e+06 633526 7.84048e+06 -395505 4.86704e+06)
(1.14264e+07 -1.05759e+07 603263 1.80247e+07 1.09412e+06 8.75748e+06)
(1.85146e+07 -4.9371e+06 1.02661e+06 1.93229e+07 567709 1.16818e+07)
(9.33774e+06 -7.6442e+06 358563 1.53642e+07 663272 7.52712e+06)
(1.7324e+07 -5.71965e+06 1.24874e+06 1.76979e+07 565895 1.03578e+07)
(1.12534e+07 -2.0392e+06 422720 1.13909e+07 -228230 7.50531e+06)
(8.2592e+06 -8.822e+06 422868 1.39608e+07 630314 6.66683e+06)
(1.96935e+07 -1.63477e+06 835982 1.92805e+07 118279 1.21976e+07)
(1.8333e+07 -1.88821e+06 1.0259e+06 1.77333e+07 87304.7 1.07998e+07)
(7.42903e+06 -6.58689e+06 128989 1.72982e+07 242438 7.51041e+06)
(5.76704e+06 -8.96832e+06 218960 1.62952e+07 48495.8 6.66282e+06)
(1.13756e+07 -1.92883e+06 -67341 2.02232e+07 2.11625e+06 1.01097e+07)
(1.23005e+07 -651088 -118520 2.04087e+07 4.03793e+06 1.13548e+07)
(2.25814e+07 -1.12724e+06 185240 2.22826e+07 558032 1.90635e+07)
(2.35239e+07 -1.01101e+06 -491.649 2.2813e+07 408455 2.30154e+07)
(1.87171e+07 -1.02062e+06 -752528 1.87855e+07 913254 1.99769e+07)
(1.26643e+07 -5.73747e+06 90165.4 2.23309e+07 7.37786e+06 1.38437e+07)
(2.24892e+07 -2.65863e+06 132409 2.2756e+07 917421 2.29036e+07)
(1.18096e+07 -1.99196e+06 -186602 1.9278e+07 5.96783e+06 1.22488e+07)
(2.38352e+07 -955421 -47696 2.30663e+07 137480 2.39567e+07)
(1.20099e+07 -390877 -204921 1.90752e+07 5.07263e+06 1.18296e+07)
(-2.64497e+07 -2.93015e+07 9.87639e+06 -2.67699e+07 -1.92299e+06 -7.78309e+06)
(-2.60234e+07 -2.62703e+07 7.94052e+06 -2.94016e+07 -145587 -9.61665e+06)
(-1.86694e+07 -2.01798e+07 4.40053e+06 -2.66753e+07 2.39007e+06 -1.03612e+07)
(-6.6277e+07 -9.2434e+06 2.84458e+06 -6.74909e+07 -1.73466e+06 -3.55348e+07)
(-2.37047e+07 -4.28178e+07 2.75271e+06 -3.99764e+07 3.11757e+06 -1.68102e+07)
(-3.74878e+07 -2.5151e+07 8.76601e+06 -4.15557e+07 -85261.4 -1.71938e+07)
(-4.21562e+07 -5.3981e+07 3.43458e+06 -5.51043e+07 -228216 -2.67366e+07)
(-8.87656e+07 -1.22258e+07 5.38439e+06 -9.02446e+07 -3.66079e+06 -4.92877e+07)
(-2.86823e+07 -1.92333e+07 4.70837e+06 -3.57445e+07 2.0948e+06 -1.58829e+07)
(-3.68127e+07 -4.67616e+07 2.29732e+06 -4.79078e+07 1.24406e+06 -2.34141e+07)
(-2.70898e+07 -4.54903e+07 276476 -7.78236e+06 1.04657e+06 -1.01828e+07)
(-3.51735e+07 -5.52992e+07 1.02411e+06 -1.41386e+07 -651923 -1.38299e+07)
(-1.75678e+07 -4.19551e+06 2.24156e+06 -2.00239e+07 575715 -1.10153e+07)
(-2.91742e+07 -4.57736e+06 2.96807e+06 -3.1107e+07 511915 -1.63291e+07)
(-4.11911e+07 -6.0148e+06 6.64382e+06 -4.04053e+07 -600962 -2.07228e+07)
(-3.30217e+07 -4.78195e+06 3.51423e+06 -3.45818e+07 366120 -1.78897e+07)
(-4.69336e+07 -7.2213e+07 1.91599e+06 -2.0459e+07 -3.92826e+06 -1.90031e+07)
(-3.87889e+07 -5.89579e+07 610094 -1.62941e+07 -858551 -1.55242e+07)
(1.10373e+07 -1.12891e+07 2.60807e+06 8.04403e+06 1.7811e+06 4.2056e+06)
(6.33146e+06 -1.29748e+07 2.79829e+06 1.73442e+06 2.21411e+06 880785)
(1.22816e+07 -1.07825e+07 2.52292e+06 9.76782e+06 1.62526e+06 5.16469e+06)
(1.52821e+07 -9.30498e+06 2.22364e+06 1.39181e+07 1.28505e+06 7.55874e+06)
(-4.70022e+06 -3.9519e+06 1.05239e+06 -4.75058e+06 -636442 -3.09429e+06)
(5.47821e+06 -1.84367e+07 1.06245e+06 7.6801e+06 2.20999e+06 3.33835e+06)
(6.69261e+06 -1.03208e+07 2.33282e+06 4.35806e+06 1.39318e+06 1.93888e+06)
(-3.19819e+06 -1.99594e+07 789910 -1.25131e+06 1.64759e+06 -1.83987e+06)
(-1.35562e+07 -4.99964e+06 1.18882e+06 -1.36808e+07 -669518 -8.7804e+06)
(1.05219e+07 -8.9284e+06 2.0705e+06 9.1874e+06 1.08168e+06 4.77707e+06)
(-453981 -1.75406e+07 736567 2.45798e+06 1.34626e+06 163960)
(1.68905e+06 -1.41158e+07 211369 1.3918e+07 156792 4.61105e+06)
(-1.28076e+06 -1.81228e+07 366790 1.19399e+07 200653 3.11646e+06)
(1.47434e+07 -2.35354e+06 1.3963e+06 1.39205e+07 111023 8.03257e+06)
(1.17708e+07 -2.68584e+06 1.63172e+06 1.07216e+07 150477 5.90671e+06)
(6.18083e+06 -3.17119e+06 1.91492e+06 4.70905e+06 243222 2.17888e+06)
(1.05562e+07 -2.81284e+06 1.70942e+06 9.38122e+06 174020 5.08085e+06)
(-6.77257e+06 -2.46519e+07 436356 8.07059e+06 544682 264917)
(-2.75788e+06 -1.9585e+07 233007 1.10393e+07 416427 2.34097e+06)
(2.0131e+07 -1.78257e+06 1.22909e+06 2.01761e+07 355979 1.18524e+07)
(2.10299e+07 -5.23162e+06 1.12834e+06 2.20593e+07 667347 1.32126e+07)
(2.02019e+07 -6.07874e+06 1.34163e+06 2.08558e+07 686981 1.21169e+07)
(2.18782e+07 -1.58419e+06 979769 2.19213e+07 303626 1.35452e+07)
(2.05432e+07 -1.68943e+06 1.17096e+06 2.06916e+07 319881 1.22616e+07)
(2.12631e+07 -4.98456e+06 1.06275e+06 2.24048e+07 682486 1.361e+07)
(2.18378e+07 -4.32905e+06 906435 2.32662e+07 850853 1.49542e+07)
(2.3781e+07 -1.11514e+06 680820 2.3883e+07 598043 1.88895e+07)
(2.32715e+07 -1.3392e+06 774895 2.33636e+07 406450 1.62168e+07)
(2.22715e+07 -1.56952e+06 930042 2.23012e+07 307876 1.40085e+07)
(2.30435e+07 -1.39099e+06 808443 2.31149e+07 367228 1.55582e+07)
(1.41661e+07 -1.68471e+06 77599.5 1.43345e+07 93908.8 1.01789e+07)
(1.3263e+07 -7.68131e+06 391726 2.12525e+07 1.36345e+06 1.0819e+07)
(1.88536e+07 -4.70241e+06 958558 1.97959e+07 589488 1.2146e+07)
(1.02805e+07 -6.61774e+06 290897 1.66017e+07 776245 8.32918e+06)
(1.14627e+07 -2.04821e+06 384863 1.16199e+07 -195451 7.63943e+06)
(1.97419e+07 -4.08855e+06 758410 2.09933e+07 772159 1.36655e+07)
(1.11159e+07 -5.72849e+06 216598 1.77183e+07 995406 9.11309e+06)
(1.09398e+07 -2.32217e+06 -33587 1.98648e+07 1.72806e+06 9.7524e+06)
(9.83959e+06 -3.64538e+06 41735.8 1.88729e+07 881809 8.91601e+06)
(2.22543e+07 -1.17345e+06 273957 2.20306e+07 483413 1.78415e+07)
(2.13962e+07 -1.30464e+06 513056 2.12087e+07 268251 1.50519e+07)
(2.00736e+07 -1.56284e+06 770487 1.97331e+07 131656 1.26765e+07)
(2.10924e+07 -1.36669e+06 583670 2.08628e+07 218168 1.4357e+07)
(8.03865e+06 -5.91667e+06 139211 1.76374e+07 288491 7.84034e+06)
(9.34302e+06 -4.13684e+06 59926.8 1.85357e+07 709390 8.60308e+06)
(2.39286e+07 -1.02193e+06 633601 2.40147e+07 655368 2.00699e+07)
(2.43283e+07 -711364 358357 2.4169e+07 465714 2.39104e+07)
(1.33074e+07 -6.9392e+06 218339 2.33391e+07 7.54228e+06 1.45284e+07)
(2.36827e+07 -2.95501e+06 399374 2.41728e+07 918257 2.39319e+07)
(2.43164e+07 -575528 202604 2.42825e+07 167151 2.4818e+07)
(1.90963e+07 -3.22053e+06 -82760.2 2.20283e+07 704717 2.27618e+07)
(9.75769e+06 -5.36571e+06 -74421.8 1.16922e+07 8.79939e+06 1.70906e+07)
(1.99983e+07 -4.49372e+06 101861 2.36025e+07 712095 2.39253e+07)
(9.24975e+06 -3.86237e+06 -17756.7 1.07613e+07 8.30639e+06 1.60301e+07)
(9.97401e+06 -6.50216e+06 -6166.84 1.2014e+07 8.94655e+06 1.74001e+07)
(2.05616e+07 -4.96782e+06 8961.22 2.41794e+07 743755 2.46684e+07)
(-1.89056e+07 -1.9476e+07 1.80022e+06 -2.08842e+07 2.13253e+06 -1.22421e+07)
(-3.42184e+07 -6.88696e+06 1.4098e+06 -3.46784e+07 -690230 -2.05408e+07)
(-1.7573e+07 -1.07549e+07 1.87106e+06 -1.96824e+07 595967 -1.17774e+07)
(-2.58145e+07 -1.58232e+07 1.58476e+06 -2.26327e+07 763155 -1.50855e+07)
(-2.81527e+07 -1.62409e+07 1.19657e+06 -2.46695e+07 593835 -1.59128e+07)
(-2.07533e+07 -1.12584e+07 1.89276e+06 -2.29264e+07 630709 -1.35039e+07)
(-1.64139e+07 -1.83319e+07 2.45644e+06 -1.8292e+07 2.10696e+06 -1.16088e+07)
(-2.25881e+07 -2.04132e+07 2.63931e+06 -2.55418e+07 2.36562e+06 -1.51834e+07)
(-3.533e+07 -6.74048e+06 1.44152e+06 -3.59098e+07 -703212 -2.06662e+07)
(-3.59275e+07 -1.80808e+07 1.33765e+06 -3.25138e+07 589947 -1.98693e+07)
(-2.81356e+07 -1.25359e+07 2.04672e+06 -3.08146e+07 709870 -1.73301e+07)
(-2.54481e+07 -2.16937e+07 1.96898e+06 -2.85117e+07 2.30566e+06 -1.57844e+07)
(-3.32714e+07 -1.76241e+07 1.70923e+06 -3.01801e+07 844015 -1.90577e+07)
(-2.44693e+07 -1.1972e+07 1.98109e+06 -2.70851e+07 709859 -1.54899e+07)
(9.00151e+06 -7.74693e+06 922569 1.13685e+07 545145 5.9681e+06)
(5.3867e+06 -2.83683e+06 740104 5.49297e+06 -469337 3.2825e+06)
(1.10019e+07 -4.35829e+06 956986 1.11579e+07 30372.8 6.61487e+06)
(7.00142e+06 -6.16439e+06 804137 9.68028e+06 25008 4.96843e+06)
(6.33513e+06 -6.41061e+06 678478 9.1179e+06 -32267.9 4.60036e+06)
(1.01513e+07 -4.58964e+06 1.02019e+06 1.02762e+07 23947.6 5.98462e+06)
(9.70375e+06 -7.25558e+06 1.18185e+06 1.20656e+07 469479 6.27125e+06)
(7.96679e+06 -8.17413e+06 1.33862e+06 1.00978e+07 532746 4.95956e+06)
(5.06322e+06 -2.82145e+06 766813 5.13727e+06 -488834 3.15911e+06)
(3.95121e+06 -7.23929e+06 765431 6.85755e+06 -36629.7 3.06504e+06)
(8.12748e+06 -5.14192e+06 1.15143e+06 8.1002e+06 29710.5 4.53971e+06)
(7.14578e+06 -8.72946e+06 1.04771e+06 9.27415e+06 617804 4.62389e+06)
(4.72913e+06 -6.96548e+06 917410 7.51766e+06 20843.1 3.47572e+06)
(9.12956e+06 -4.88496e+06 1.089e+06 9.1329e+06 27529.2 5.24737e+06)
(1.75134e+07 -3.09451e+06 -145336 2.02843e+07 2.4842e+06 1.65881e+07)
(1.77681e+07 -1.3306e+06 -884063 1.79343e+07 1.13475e+06 1.69163e+07)
(1.97495e+07 -1.94135e+06 -399310 1.99992e+07 1.25583e+06 1.96319e+07)
(1.77129e+07 -2.37192e+06 -492824 1.91892e+07 2.18033e+06 1.74104e+07)
(1.7305e+07 -2.63648e+06 -487896 1.90806e+07 2.17881e+06 1.59864e+07)
(1.93214e+07 -2.08099e+06 -357219 1.97674e+07 1.41116e+06 1.82358e+07)
(1.80338e+07 -2.89146e+06 -93973.1 2.01713e+07 2.35628e+06 1.81238e+07)
(1.70795e+07 -3.30553e+06 95062 2.01796e+07 2.24179e+06 1.53171e+07)
(1.75974e+07 -1.34385e+06 -826324 1.77683e+07 1.09298e+06 1.62176e+07)
(1.63588e+07 -2.9396e+06 -318721 1.8634e+07 1.65153e+06 1.37978e+07)
(1.84614e+07 -2.29976e+06 -191798 1.91602e+07 1.19723e+06 1.56919e+07)
(1.67584e+07 -3.52066e+06 -14804.1 2.00474e+07 2.02516e+06 1.45208e+07)
(1.67093e+07 -2.82348e+06 -370915 1.8849e+07 1.91493e+06 1.46836e+07)
(1.88762e+07 -2.2056e+06 -292971 1.94761e+07 1.36743e+06 1.68949e+07)
(-3.72172e+07 -2.55541e+07 3.63954e+06 -4.25066e+07 2.33619e+06 -2.25458e+07)
(-5.49182e+07 -8.26519e+06 2.07115e+06 -5.58967e+07 -1.12477e+06 -3.01256e+07)
(-4.55547e+07 -1.58526e+07 3.26144e+06 -4.93147e+07 438077 -2.54565e+07)
(-5.39198e+07 -2.27428e+07 2.40973e+06 -5.07775e+07 -113945 -2.83046e+07)
(-4.06905e+07 -2.74008e+07 3.21954e+06 -4.60182e+07 1.94774e+06 -2.30449e+07)
(-5.07948e+07 -2.19711e+07 2.49903e+06 -4.79514e+07 438722 -2.75145e+07)
(-4.11052e+07 -1.49772e+07 2.80628e+06 -4.48072e+07 611664 -2.34694e+07)
(-3.27856e+07 -2.42559e+07 2.37274e+06 -3.70079e+07 2.29755e+06 -1.9428e+07)
(-5.34647e+07 -8.43839e+06 1.93941e+06 -5.42808e+07 -1.02686e+06 -3.00344e+07)
(-4.16272e+07 -1.96278e+07 1.96278e+06 -3.86676e+07 769682 -2.32256e+07)
(-3.23428e+07 -1.33406e+07 2.2273e+06 -3.54994e+07 740292 -1.94132e+07)
(-2.95693e+07 -2.27607e+07 2.96841e+06 -3.36978e+07 2.48251e+06 -1.88895e+07)
(-4.45827e+07 -2.01876e+07 1.69542e+06 -4.12908e+07 403325 -2.40054e+07)
(-3.64748e+07 -1.4015e+07 2.43456e+06 -3.96913e+07 690038 -2.13346e+07)
(3.54376e+06 -1.03744e+07 1.67502e+06 5.02824e+06 786450 1.7302e+06)
(-928731 -3.53172e+06 961820 -927084 -597627 -709272)
(2.94445e+06 -6.46424e+06 1.41786e+06 2.52354e+06 98748.9 973357)
(-2.05937e+06 -9.2153e+06 927537 1.099e+06 38268.6 -725801)
(2.41567e+06 -1.10768e+07 1.30476e+06 3.88016e+06 883268 1.29694e+06)
(-991668 -8.88688e+06 1.14068e+06 2.01168e+06 104184 -190312)
(4.33656e+06 -6.14172e+06 1.36183e+06 3.95768e+06 82891.8 1.91352e+06)
(4.97103e+06 -9.8363e+06 1.17645e+06 6.80186e+06 730341 3.08125e+06)
(-487130 -3.56075e+06 937134 -440608 -582604 -560169)
(2.08687e+06 -7.86994e+06 1.02997e+06 4.98484e+06 47703.1 1.7725e+06)
(6.92852e+06 -5.47534e+06 1.22544e+06 6.75748e+06 45226.5 3.69821e+06)
(5.93281e+06 -9.20998e+06 1.50383e+06 7.77425e+06 638512 3.46135e+06)
(1.17541e+06 -8.17192e+06 849621 4.20855e+06 -13109.6 1.30486e+06)
(5.74883e+06 -5.76428e+06 1.28584e+06 5.54122e+06 53982 2.88496e+06)
(1.54353e+07 -4.1171e+06 405828 1.86467e+07 1.14869e+06 1.19424e+07)
(1.53949e+07 -1.55635e+06 -180564 1.55784e+07 357498 1.1733e+07)
(1.67201e+07 -2.71716e+06 260443 1.73784e+07 510048 1.20938e+07)
(1.42769e+07 -3.58104e+06 80621.1 1.66723e+07 675695 1.07277e+07)
(1.51082e+07 -4.36307e+06 280590 1.83138e+07 1.05003e+06 1.15349e+07)
(1.45942e+07 -3.48064e+06 53666.8 1.69474e+07 838464 1.11736e+07)
(1.71416e+07 -2.61494e+06 144581 1.78072e+07 642481 1.28126e+07)
(1.59567e+07 -3.92415e+06 125740 1.92808e+07 1.47077e+06 1.2883e+07)
(1.55368e+07 -1.57472e+06 -263046 1.57327e+07 435324 1.20233e+07)
(1.56543e+07 -3.15369e+06 -170985 1.79805e+07 1.32087e+06 1.26994e+07)
(1.80098e+07 -2.40695e+06 -88248.9 1.87108e+07 1.00311e+06 1.4596e+07)
(1.62579e+07 -3.70556e+06 238676 1.95479e+07 1.65211e+06 1.34219e+07)
(1.53609e+07 -3.23701e+06 -114566 1.77362e+07 1.09564e+06 1.21105e+07)
(1.76107e+07 -2.4921e+06 37528.9 1.83316e+07 817735 1.36771e+07)
(-6.17878e+07 -4.89127e+07 1.29835e+07 -6.72583e+07 -2.61734e+06 -3.72402e+07)
(-1.01825e+08 -1.49199e+07 7.35263e+06 -1.03654e+08 -5.19375e+06 -6.22224e+07)
(-7.07793e+07 -3.00744e+07 1.17669e+07 -7.65056e+07 -3.25385e+06 -4.35347e+07)
(-8.50288e+07 -4.00414e+07 9.31859e+06 -8.09338e+07 -3.62928e+06 -5.04464e+07)
(-6.07753e+07 -4.4722e+07 1.01376e+07 -6.67745e+07 -1.98505e+06 -3.45657e+07)
(-9.99382e+07 -1.44285e+07 7.09782e+06 -1.01617e+08 -4.90196e+06 -5.96999e+07)
(-6.66799e+07 -2.41501e+07 8.92166e+06 -7.17146e+07 -1.92476e+06 -3.71749e+07)
(-7.84712e+07 -3.36631e+07 7.37982e+06 -7.50536e+07 -2.73242e+06 -4.27823e+07)
(-6.91587e+07 -2.6876e+07 1.04352e+07 -7.4525e+07 -2.55952e+06 -4.00664e+07)
(-8.0388e+07 -3.62688e+07 7.69856e+06 -7.7141e+07 -3.62279e+06 -4.52512e+07)
(-5.8642e+07 -4.041e+07 1.01209e+07 -6.51222e+07 -1.00534e+06 -3.28617e+07)
(-7.72728e+07 -1.37985e+07 1.05209e+07 -7.54317e+07 -2.59077e+06 -4.5261e+07)
(-4.01491e+07 -7.7293e+06 1.00326e+07 -3.6881e+07 -2.02261e+06 -1.95105e+07)
(-6.39834e+07 -1.63169e+07 8.67153e+06 -6.31694e+07 -1.63621e+06 -3.3922e+07)
(-6.65572e+07 -1.99236e+07 9.99626e+06 -6.49835e+07 -2.61241e+06 -3.68136e+07)
(-3.61134e+07 -9.03541e+06 1.18078e+07 -3.1384e+07 -2.99876e+06 -1.75481e+07)
(-6.66952e+07 -2.13319e+07 1.22158e+07 -6.50118e+07 -2.96859e+06 -3.75276e+07)
(-7.16101e+07 -1.10174e+07 7.72376e+06 -7.0591e+07 -1.67151e+06 -3.89537e+07)
(-7.578e+07 -1.30244e+07 8.56312e+06 -7.37301e+07 -2.72387e+06 -4.28461e+07)
(-9.23474e+07 -3.57638e+07 6.65563e+06 -7.73684e+07 -4.55032e+06 -5.09535e+07)
(-7.57842e+07 -2.90585e+07 3.30488e+06 -5.2892e+07 -4.70279e+06 -3.61732e+07)
(-5.20221e+07 -8.25076e+07 2.41081e+06 -2.15336e+07 -5.10989e+06 -2.16494e+07)
(-7.56213e+07 -2.9903e+07 3.56892e+06 -5.23758e+07 -6.40996e+06 -3.76381e+07)
(-8.40703e+07 -3.042e+07 5.24281e+06 -7.03226e+07 -3.80263e+06 -4.27441e+07)
(-8.81911e+07 -3.40765e+07 5.12734e+06 -7.39512e+07 -5.66452e+06 -4.74729e+07)
(-5.39575e+07 -8.78117e+07 1.59681e+06 -2.14138e+07 -4.3666e+06 -2.29653e+07)
(-8.15025e+07 -3.33468e+07 3.89931e+06 -5.63267e+07 -5.17262e+06 -4.24602e+07)
(-2.87783e+07 -1.44762e+07 1.09339e+06 -2.00077e+07 206879 -1.47484e+07)
(-3.29893e+07 -1.51627e+07 492045 -2.39707e+07 -224985 -1.66983e+07)
(-3.43896e+07 -1.54436e+07 441233 -2.10009e+07 -525993 -1.61307e+07)
(-2.1711e+07 -3.99591e+07 232206 -3.47135e+06 1.30256e+06 -7.52722e+06)
(-3.41572e+07 -1.56241e+07 547488 -1.98741e+07 204052 -1.57303e+07)
(-4.11451e+07 -1.69191e+07 582467 -3.14937e+07 -415080 -2.06396e+07)
(-3.64227e+07 -1.61676e+07 1.18967e+06 -2.69932e+07 218453 -1.86461e+07)
(-2.70799e+07 -1.39894e+07 493112 -1.39027e+07 243747 -1.22481e+07)
(-1.86532e+07 -3.74761e+07 556806 -1.27442e+06 1.01768e+06 -5.93203e+06)
(-2.72912e+07 -1.38334e+07 360428 -1.49014e+07 -301962 -1.27035e+07)
(-1.78798e+07 -5.0629e+06 2.06729e+06 -1.92538e+07 -215058 -1.16826e+07)
(-2.26051e+07 -5.52343e+06 1.65473e+06 -2.29916e+07 -272220 -1.35984e+07)
(-2.62598e+07 -7.7019e+06 1.84929e+06 -2.73642e+07 182651 -1.55464e+07)
(-1.06431e+07 -3.9912e+06 2.13084e+06 -1.30247e+07 519320 -7.53301e+06)
(-2.08897e+07 -7.15159e+06 2.26154e+06 -2.27315e+07 126985 -1.33946e+07)
(-3.05671e+07 -6.14791e+06 1.75715e+06 -3.08094e+07 -265923 -1.75218e+07)
(-2.51063e+07 -5.63498e+06 2.17883e+06 -2.65386e+07 -168027 -1.55228e+07)
(-1.39355e+07 -6.36131e+06 2.16465e+06 -1.57331e+07 64958 -9.67989e+06)
(-7.51911e+06 -3.87029e+06 2.10985e+06 -9.73994e+06 473063 -5.89111e+06)
(-1.85411e+07 -6.83226e+06 1.75426e+06 -1.97503e+07 136755 -1.17069e+07)
(-1.10661e+07 -1.64407e+07 2.31652e+06 -1.20051e+07 1.79911e+06 -8.27452e+06)
(-1.43695e+07 -1.01134e+07 1.81026e+06 -1.60865e+07 500756 -9.93248e+06)
(-2.02777e+07 -5.48662e+06 1.27012e+06 -2.05772e+07 -671364 -1.24996e+07)
(-2.13102e+07 -1.4579e+07 1.13198e+06 -1.78159e+07 490704 -1.21996e+07)
(-1.32067e+07 -1.7481e+07 1.70781e+06 -1.42294e+07 1.86626e+06 -8.90697e+06)
(-1.16545e+07 -9.65208e+06 1.79896e+06 -1.33095e+07 462786 -8.35206e+06)
(-1.92955e+07 -1.418e+07 1.50606e+06 -1.60688e+07 617675 -1.13925e+07)
(-8.31251e+06 -1.56562e+07 1.63139e+06 -8.52414e+06 1.58322e+06 -5.86419e+06)
(-1.9453e+07 -5.57983e+06 1.25506e+06 -1.96661e+07 -670492 -1.23163e+07)
(-6.60959e+06 -8.6416e+06 1.717e+06 -7.86722e+06 334356 -5.2655e+06)
(-1.36367e+07 -1.26665e+07 1.43096e+06 -1.04172e+07 456635 -8.04446e+06)
(-8.91474e+06 -9.06793e+06 1.7411e+06 -1.02303e+07 373272 -6.68181e+06)
(-1.53659e+07 -1.30545e+07 1.09712e+06 -1.19093e+07 359583 -8.80123e+06)
(-6.48299e+06 -1.47051e+07 2.17391e+06 -6.63101e+06 1.4921e+06 -5.26501e+06)
(-1.57369e+07 -4.95841e+06 1.60377e+06 -1.61915e+07 -303818 -9.9739e+06)
(-1.17063e+07 -4.54105e+06 1.9729e+06 -1.29733e+07 -255524 -8.18674e+06)
(2.45197e+06 -3.41551e+06 2.01536e+06 731163 309603 -156539)
(-3.07371e+06 -5.05241e+06 1.97219e+06 -4.65341e+06 -42403.5 -3.32963e+06)
(-6.33777e+06 -5.4288e+06 1.67298e+06 -7.54555e+06 7543.85 -5.00772e+06)
(-1.19276e+07 -6.08646e+06 1.7148e+06 -1.31602e+07 65773.5 -8.18096e+06)
(273962 -3.54791e+06 2.05239e+06 -1.62916e+06 354195 -1.45467e+06)
(-8.03936e+06 -5.66896e+06 2.08009e+06 -9.73991e+06 7411.13 -6.31731e+06)
(-6.45804e+06 -4.06336e+06 1.86124e+06 -7.60045e+06 -284458 -5.05316e+06)
(-9.88e+06 -4.44204e+06 1.55597e+06 -1.0355e+07 -326409 -6.68398e+06)
(-2.57413e+07 -1.3584e+07 474064 -1.73481e+07 -200409 -1.2981e+07)
(-2.2067e+07 -1.2936e+07 1.03931e+06 -1.39402e+07 120827 -1.11427e+07)
(-1.53698e+07 -1.11395e+07 479416 -4.20944e+06 45148.5 -6.11427e+06)
(-1.02005e+07 -2.84962e+07 470439 5.47892e+06 753459 -1.5348e+06)
(-1.55218e+07 -1.10633e+07 346460 -4.88669e+06 -301045 -6.55367e+06)
(-1.621e+07 -1.1521e+07 989935 -8.7121e+06 10367.1 -7.87857e+06)
(-1.93974e+07 -1.21447e+07 490374 -1.16178e+07 -240325 -9.56142e+06)
(-2.10087e+07 -1.23854e+07 338816 -9.52344e+06 -261286 -9.48698e+06)
(-1.2544e+07 -3.05203e+07 228760 3.85617e+06 1.08812e+06 -2.79033e+06)
(-2.0826e+07 -1.25e+07 480463 -8.68917e+06 165617 -9.02456e+06)
(5.46896e+06 -5.49488e+06 558294 9.91824e+06 -178761 4.75552e+06)
(4.18985e+06 -5.87692e+06 386183 8.85323e+06 -337398 3.99588e+06)
(2.53239e+06 -6.05294e+06 307730 9.6027e+06 -435765 3.54094e+06)
(3.45165e+06 -1.1848e+07 195395 1.49826e+07 99587.2 5.49506e+06)
(2.58624e+06 -6.03261e+06 370903 9.80333e+06 -258873 3.75767e+06)
(1.56735e+06 -6.65951e+06 429677 6.65352e+06 -378913 2.44713e+06)
(3.05192e+06 -6.23336e+06 643347 7.90264e+06 -219365 3.30707e+06)
(4.83216e+06 -5.31769e+06 325479 1.14691e+07 -221485 5.01495e+06)
(4.37637e+06 -1.08377e+07 256498 1.5484e+07 15932.8 5.96773e+06)
(4.78754e+06 -5.34082e+06 274324 1.13076e+07 -383512 4.82185e+06)
(1.17787e+07 -2.05297e+06 999041 1.12834e+07 -202085 6.97536e+06)
(1.05276e+07 -2.24459e+06 911958 1.02344e+07 -243416 6.19347e+06)
(1.06693e+07 -3.07332e+06 1.12051e+06 9.79279e+06 -92911.3 5.79895e+06)
(1.63139e+07 -2.13916e+06 1.24667e+06 1.56282e+07 91620.8 9.21689e+06)
(1.20264e+07 -2.85963e+06 1.21564e+06 1.10247e+07 -96644.3 6.66225e+06)
(8.36811e+06 -2.51241e+06 1.03221e+06 8.03698e+06 -276949 4.71843e+06)
(9.85792e+06 -2.30108e+06 1.13666e+06 9.26874e+06 -235353 5.57846e+06)
(1.37522e+07 -2.56059e+06 1.07388e+06 1.28725e+07 -79019.2 7.96448e+06)
(1.70426e+07 -2.03694e+06 1.16564e+06 1.63844e+07 73115 9.76806e+06)
(1.26354e+07 -2.75254e+06 992733 1.18203e+07 -78927.4 7.18147e+06)
(1.11894e+07 -6.44661e+06 1.03104e+06 1.375e+07 454525 7.44348e+06)
(1.1876e+07 -4.09772e+06 885985 1.21373e+07 44068.8 7.27641e+06)
(9.48051e+06 -2.26271e+06 548691 9.60051e+06 -332793 6.17529e+06)
(8.39013e+06 -5.67757e+06 585844 1.10564e+07 4387.73 5.96041e+06)
(1.05907e+07 -6.87771e+06 800596 1.31522e+07 516506 7.16206e+06)
(1.26051e+07 -3.8988e+06 818903 1.28898e+07 62003.9 7.84667e+06)
(8.96087e+06 -5.46091e+06 685404 1.1539e+07 65002.6 6.2988e+06)
(1.1957e+07 -6.11497e+06 680403 1.46961e+07 536613 8.25483e+06)
(9.7205e+06 -2.27309e+06 516056 9.86347e+06 -305668 6.2954e+06)
(1.39815e+07 -3.50298e+06 680040 1.43756e+07 122238 9.00087e+06)
(1.06592e+07 -4.84734e+06 560460 1.31515e+07 146749 7.52037e+06)
(1.33566e+07 -3.67466e+06 750574 1.37301e+07 91238.9 8.45812e+06)
(1.01682e+07 -5.03529e+06 485892 1.27352e+07 77952.5 7.19324e+06)
(1.24704e+07 -5.73797e+06 884341 1.5213e+07 493724 8.53331e+06)
(1.23503e+07 -2.00168e+06 787419 1.21111e+07 -201498 7.52031e+06)
(1.34315e+07 -1.84e+06 849542 1.30088e+07 -156071 8.24068e+06)
(1.92893e+07 -1.71406e+06 893939 1.88198e+07 106743 1.17348e+07)
(1.65179e+07 -2.07482e+06 772995 1.57803e+07 827.032 1.02867e+07)
(1.56886e+07 -2.2209e+06 731312 1.50281e+07 -22603.6 9.57272e+06)
(1.42695e+07 -2.46506e+06 863192 1.35532e+07 -55697.6 8.42566e+06)
(1.88214e+07 -1.81336e+06 969410 1.82734e+07 97592.2 1.1267e+07)
(1.52449e+07 -2.30175e+06 919016 1.44444e+07 -48841.7 9.15005e+06)
(1.48541e+07 -1.65662e+06 703842 1.44906e+07 -97150.2 9.4483e+06)
(1.39265e+07 -1.79487e+06 659047 1.37236e+07 -150247 8.73692e+06)
(6.45711e+06 -5.18436e+06 333151 1.07413e+07 -267726 5.35996e+06)
(7.56156e+06 -4.84753e+06 465004 1.16572e+07 -103132 6.04558e+06)
(8.46586e+06 -4.14499e+06 204846 1.41565e+07 -22002.9 7.13514e+06)
(6.97635e+06 -7.33567e+06 180331 1.69992e+07 135483 7.27776e+06)
(8.43209e+06 -4.16353e+06 178020 1.40339e+07 -175506 6.95568e+06)
(9.38194e+06 -4.28461e+06 361882 1.31732e+07 16080.5 7.2267e+06)
(8.42264e+06 -4.57738e+06 268082 1.23742e+07 -164542 6.58343e+06)
(6.73738e+06 -4.71283e+06 231571 1.27676e+07 -298921 5.94713e+06)
(6.28324e+06 -8.1083e+06 154614 1.66279e+07 136344 6.91627e+06)
(6.77548e+06 -4.69055e+06 270619 1.29037e+07 -145260 6.12696e+06)
(1.71595e+07 -1.96477e+06 -795847 1.90954e+07 2.45601e+06 1.70346e+07)
(1.64262e+07 -2.33839e+06 -600179 1.91402e+07 2.24541e+06 1.47244e+07)
(1.44484e+07 -2.42489e+06 -426731 1.89059e+07 1.75321e+06 1.1894e+07)
(1.16921e+07 -1.49104e+06 -59735.3 2.05204e+07 2.60261e+06 1.04564e+07)
(1.4468e+07 -2.43284e+06 -465460 1.90164e+07 2.17147e+06 1.24443e+07)
(1.53181e+07 -2.6155e+06 -436494 1.83628e+07 1.51782e+06 1.26745e+07)
(1.59566e+07 -2.45423e+06 -518825 1.87988e+07 2.12109e+06 1.40144e+07)
(1.5168e+07 -2.13536e+06 -699219 1.9096e+07 3.06218e+06 1.44869e+07)
(1.20284e+07 -1.0557e+06 -96352.9 2.06889e+07 3.20287e+06 1.0845e+07)
(1.51137e+07 -2.22438e+06 -603897 1.93825e+07 2.64268e+06 1.34817e+07)