/*--------------------------------*- C++ -*----------------------------------*\
| =========                 |                                                 |
| \\      /  F ield         | OpenFOAM: The Open Source CFD Toolbox           |
|  \\    /   O peration     | Version:  2012                                  |
|   \\  /    A nd           | Website:  www.openfoam.com                      |
|    \\/     M anipulation  |                                                 |
\*---------------------------------------------------------------------------*/
FoamFile
{
    version     2.0;
    format      ascii;
    class       volVectorField;
    location    "0.108/solid";
    object      U;
}
// * * * * * * * * * * * * * * * * * * * * * * * * * * * * * * * * * * * * * //

dimensions      [0 1 -1 0 0 0 0];


internalField   nonuniform List<vector> 
3125
(
(-0.166516 -0.0232243 0.026788)
(-0.0706094 0.019311 0.00805539)
(-0.0296739 0.0301872 0.016488)
(-0.183583 -0.033095 0.0274655)
(-0.0790539 0.0167001 0.00941741)
(-0.0331037 0.0296457 0.0121472)
(-0.302542 -0.0567064 -0.00615063)
(-0.123035 -0.000133851 0.0186302)
(-0.0505609 0.0249539 0.00627238)
(-0.25986 -0.0577003 0.0081841)
(-0.110496 0.00529919 0.0157912)
(-0.0453651 0.0263379 0.00658941)
(-0.40566 -0.0635322 0.00630338)
(-0.175682 -0.0290625 0.0199272)
(-0.424609 -0.0735507 0.0503892)
(-0.150992 -0.0143265 0.0245579)
(-0.507747 -0.115879 0.00342324)
(-0.368607 -0.0305586 0.0447897)
(-0.156253 -0.0203066 0.0185804)
(-0.125908 0.0472162 7.82868e-05)
(-0.0624593 0.0139418 0.00582306)
(-0.186598 0.0620021 0.0166953)
(-0.0631047 0.0215061 0.0070677)
(-0.16715 0.033566 -0.000358543)
(-0.15878 0.0718316 0.0142756)
(-0.0540867 0.0162919 0.00509601)
(-0.0290719 0.0681193 0.06732)
(-0.0181744 0.0262874 0.0145293)
(-0.0828552 0.0910626 0.0439004)
(-0.0263341 0.0294419 0.0234877)
(-0.0415655 0.0731276 0.0311065)
(-0.0714568 0.0817858 0.0761713)
(-0.0146151 0.0261354 0.0211069)
(-0.44219 -0.0646726 0.0562946)
(-0.504779 -0.108984 0.0523374)
(-0.65546 -0.187625 -0.0145782)
(-0.203313 -0.0432441 0.0253671)
(-0.19745 -0.0388328 0.0198665)
(-0.445053 -0.0877472 0.050897)
(-0.522599 -0.122569 0.00209448)
(-0.516383 -0.13653 0.04521)
(-0.222674 -0.0492529 0.0176057)
(-0.424521 -0.0514921 0.0554563)
(-0.373887 -0.0111275 0.0486255)
(-0.211748 0.0697468 0.0201336)
(-0.245411 0.0572675 0.0253263)
(-0.226403 0.0126868 0.000900601)
(-0.0884947 0.0135739 0.0111561)
(-0.0719287 0.0111669 0.00687173)
(-0.19696 0.0585836 0.0179846)
(-0.173362 0.031826 -0.000343523)
(-0.231778 0.0443674 0.0227807)
(-0.0825933 0.00787911 0.00824426)
(-0.201809 0.0726491 0.0188025)
(-0.174702 0.0809072 0.0160396)
(-0.10281 0.0964165 0.0381295)
(-0.11673 0.0945919 0.0237973)
(-0.0599543 0.0673991 0.0120437)
(-0.0367323 0.0286936 0.00930834)
(-0.0216951 0.0254052 0.0104924)
(-0.0868228 0.0912485 0.0369008)
(-0.0433626 0.0728451 0.0277649)
(-0.100235 0.0885393 0.0225951)
(-0.0254596 0.0242358 0.00779029)
(-0.0985897 0.0959076 0.04526)
(-0.0864886 0.0854118 0.0780915)
(-0.714917 -0.160334 -0.00101447)
(-0.337104 -0.0745915 -0.00298281)
(-0.89441 -0.263274 -0.0524013)
(-0.744271 -0.213737 0.00592965)
(-0.195197 -0.00606102 -0.00795066)
(-0.109523 0.000293361 0.00458208)
(-0.0888642 0.00344922 0.00467253)
(-0.443907 -0.0978329 0.0420839)
(-0.385222 -0.0451463 0.0382027)
(-0.393761 -0.0585436 0.00629399)
(-0.13654 -0.00663517 0.0216521)
(-0.302075 0.0109922 0.0342453)
(-0.122497 -0.00618168 0.0141906)
(-0.351156 -0.0197899 0.042311)
(-0.311002 -0.0203568 0.00399159)
(-0.138611 -0.0126932 0.0165009)
(-0.315593 0.00725498 0.0298609)
(-0.367004 -0.0304756 0.0362949)
(-0.067188 0.0065777 0.00330214)
(-0.0840223 0.00426439 0.00419739)
(-0.0330501 0.010128 0.000918358)
(-0.0247781 0.0107688 0.000772663)
(-0.194535 0.0722941 0.0150833)
(-0.165049 0.0840347 0.0131598)
(-0.121104 0.0484548 0.000319454)
(-0.0564503 0.0233653 0.00646)
(-0.128736 0.0809808 0.0141315)
(-0.0402587 0.0200425 0.00468367)
(-0.150582 0.0742218 0.0137472)
(-0.0896156 0.0583891 0.00305862)
(-0.046718 0.0183009 0.00470621)
(-0.133627 0.0957598 0.0138614)
(-0.156343 0.0872241 0.0129024)
(-0.0164082 0.0113616 0.0010023)
(-0.0227408 0.0108903 0.000745211)
(-0.0044878 0.0127399 0.0053244)
(-0.000810878 0.0127847 0.00974869)
(-0.0859236 0.107404 0.050058)
(-0.0744 0.0965955 0.0873746)
(-0.0273585 0.0648523 0.074665)
(-0.0136421 0.0144058 0.016799)
(-0.0675975 0.0732505 0.0904279)
(-0.00435207 0.0124368 0.0140894)
(-0.0704956 0.0873204 0.103231)
(0.00131882 0.0120069 0.0127285)
(-0.686634 -0.10919 0.0033878)
(-0.637316 -0.123633 0.0178514)
(-0.53015 -0.119231 0.047421)
(-0.67599 -0.195236 -0.0183808)
(-0.227742 -0.0522332 0.0191745)
(-0.663152 -0.167253 0.0115267)
(-0.290835 -0.0684963 0.00508861)
(-0.864254 -0.257773 -0.0484563)
(-0.545613 -0.149135 0.0400964)
(-0.253075 -0.0595347 0.0126016)
(-0.115427 -0.000717684 0.00448933)
(-0.141399 -0.00406294 0.00140457)
(-0.465237 -0.117181 0.0422796)
(-0.539801 -0.177664 0.0375431)
(-0.691197 -0.22098 0.0142626)
(-0.570195 -0.195326 0.0337685)
(-0.183439 -0.00649472 -0.00638787)
(-0.149433 -0.00477418 5.00869e-05)
(-0.312173 0.0273046 0.0373013)
(-0.35814 -0.00115964 0.0460227)
(-0.297951 0.033989 0.0347112)
(-0.257583 0.0528788 0.0273486)
(-0.234286 0.0102188 0.00111851)
(-0.0989732 0.00981823 0.0132835)
(-0.286819 0.0184014 0.03169)
(-0.107822 -0.000670067 0.0119492)
(-0.301231 -0.0168325 0.0036715)
(-0.244595 0.0393504 0.0247744)
(-0.094536 0.00397346 0.00994464)
(-0.0356653 0.00993729 0.00110475)
(-0.046337 0.00896135 0.00160668)
(-0.205422 0.0675867 0.016114)
(-0.241936 0.050035 0.02023)
(-0.29963 0.0173847 0.0277478)
(-0.25538 0.043149 0.0219065)
(-0.0631657 0.00711325 0.0027989)
(-0.0496233 0.00863923 0.00196036)
(-0.185397 0.101134 0.0158914)
(-0.1452 0.0885611 0.0155524)
(-0.166634 0.082851 0.0154763)
(-0.153937 0.109999 0.0162754)
(-0.177134 0.103621 0.0156624)
(-0.138867 0.0898698 0.0161662)
(-0.121772 0.0937775 0.0210579)
(-0.109446 0.117614 0.043251)
(-0.123621 0.116508 0.0262841)
(-0.146981 0.1116 0.0171291)
(-0.128988 0.115603 0.0229196)
(-0.0625693 0.0667335 0.0105744)
(-0.0407826 0.0275741 0.00753984)
(-0.122303 0.0826021 0.014769)
(-0.0346172 0.0215757 0.00510234)
(-0.0859901 0.0592916 0.00370516)
(-0.105235 0.0874402 0.0198657)
(-0.0297155 0.0229576 0.00607908)
(-0.00539633 0.0125799 0.00437233)
(-0.00897061 0.0120438 0.00246533)
(-0.0899966 0.10779 0.0414197)
(-0.103921 0.105236 0.0244023)
(-0.126915 0.0980675 0.0148598)
(-0.10913 0.103808 0.0209743)
(-0.014862 0.0114657 0.00116202)
(-0.0101041 0.0119122 0.00201898)
(-0.105277 0.116763 0.0520016)
(-0.093835 0.104244 0.0899359)
(-0.0166079 0.0150561 0.0168708)
(-0.0824158 0.0764913 0.0927706)
(-0.0903877 0.0941243 0.106279)
(-0.0268972 0.0176968 0.0812408)
(-0.00643212 -0.00029113 0.0238784)
(-0.0405619 0.0197387 0.0863597)
(-0.00413862 -0.000370088 0.0224893)
(-0.00711514 -0.000247915 0.0241777)
(-0.0450773 0.0203196 0.0870634)
(-0.34098 -0.0552458 0.0347082)
(-0.447632 -0.0851354 0.00608074)
(-0.383898 -0.0631179 0.028535)
(-0.331406 -0.0415446 0.0214227)
(-0.35444 -0.0534357 0.0231491)
(-0.407025 -0.0781405 0.0299032)
(-0.320995 -0.0425735 0.0325219)
(-0.359672 -0.0636032 0.0352613)
(-0.460843 -0.0910038 0.00559254)
(-0.400502 -0.074522 0.0233661)
(-0.456517 -0.109305 0.0306715)
(-0.381771 -0.0781302 0.0363952)
(-0.374857 -0.0609162 0.0227213)
(-0.430904 -0.0920247 0.0304394)
(-0.124729 0.0387033 0.00985123)
(-0.142633 0.0416255 -0.000291225)
(-0.136555 0.0525955 0.00801961)
(-0.107812 0.0367728 0.0052191)
(-0.117233 0.0336925 0.00574844)
(-0.146419 0.0488305 0.00826422)
(-0.116063 0.0418911 0.00924736)
(-0.132859 0.0365692 0.0102794)
(-0.148106 0.040163 -0.000392125)
(-0.136503 0.0281772 0.00659382)
(-0.167913 0.0408767 0.00933283)
(-0.142671 0.0328036 0.0112663)
(-0.125797 0.031806 0.00572346)
(-0.156744 0.045345 0.00872172)
(-0.0413565 0.0608968 0.0451225)
(-0.034334 0.0730556 0.0486467)
(-0.0446625 0.0725358 0.0692402)
(-0.0259871 0.053224 0.0503661)
(-0.0294481 0.0561509 0.0409247)
(-0.0483245 0.0767451 0.0569909)
(-0.0377456 0.0572758 0.0550836)
(-0.0444685 0.0619444 0.0376426)
(-0.0359534 0.0736326 0.0435312)
(-0.0364449 0.0562555 0.0274459)
(-0.0556953 0.0787171 0.0385022)
(-0.048091 0.0619232 0.0309007)
(-0.0326789 0.0567415 0.0337118)
(-0.0519269 0.0785297 0.0469745)
(-0.452263 -0.113917 0.0323262)
(-0.593232 -0.157883 -0.00560257)
(-0.577885 -0.181502 0.0207729)
(-0.513533 -0.123399 0.0133741)
(-0.482245 -0.130437 0.0289135)
(-0.479347 -0.107513 0.0168731)
(-0.543455 -0.161525 0.0249678)
(-0.427904 -0.103633 0.0349775)
(-0.575997 -0.150459 -0.00310547)
(-0.423472 -0.0830242 0.021625)
(-0.483261 -0.125093 0.0297274)
(-0.402712 -0.0875993 0.0356869)
(-0.45266 -0.0981302 0.020523)
(-0.5124 -0.144283 0.0281199)
(-0.173276 0.0228044 0.0142362)
(-0.201987 0.0219478 0.000170833)
(-0.219517 0.0201645 0.0134216)
(-0.182937 0.0138689 0.00987861)
(-0.185679 0.0174704 0.0159665)
(-0.169277 0.0189764 0.00834801)
(-0.205353 0.0264895 0.0121307)
(-0.162927 0.0258051 0.0133073)
(-0.194972 0.024016 4.91764e-05)
(-0.146207 0.0259395 0.00677473)
(-0.179591 0.0367321 0.0101047)
(-0.151865 0.0302794 0.0119496)
(-0.158329 0.0216399 0.00797545)
(-0.192202 0.031422 0.011062)
(-0.0587723 0.0593519 0.0186666)
(-0.0520866 0.0701335 0.0174222)
(-0.0730036 0.0739921 0.0180692)
(-0.0518598 0.0517261 0.0129177)
(-0.0631231 0.0577179 0.0157716)
(-0.0472501 0.0534118 0.0155357)
(-0.0681475 0.0757715 0.0217606)
(-0.0551838 0.0602257 0.0217197)
(-0.0499246 0.0706782 0.0196254)
(-0.0396533 0.0556922 0.0227522)
(-0.059555 0.0782601 0.0317857)
(-0.0513411 0.0614871 0.0261995)
(-0.043682 0.0542586 0.0186553)
(-0.0637447 0.0769901 0.026115)
(-0.791758 -0.18372 -0.0202477)
(-1.02963 -0.284451 -0.0594054)
(-0.945733 -0.261411 -0.0283962)
(-0.83612 -0.191033 -0.0265909)
(-0.738209 -0.183801 -0.0147948)
(-0.995927 -0.281384 -0.0591742)
(-0.8154 -0.255523 -0.0172389)
(-0.724256 -0.177925 -0.0197247)
(-0.879179 -0.260839 -0.024119)
(-0.78298 -0.186773 -0.0236087)
(-0.680207 -0.180474 -0.0071867)
(-0.961927 -0.316808 -0.0332753)
(-0.804749 -0.194155 -0.00342777)
(-0.798428 -0.259554 -0.0122401)
(-0.89409 -0.255196 -0.0230046)
(-0.871841 -0.161544 -0.0118068)
(-0.92799 -0.249885 -0.0251472)
(-0.83171 -0.306635 -0.0235592)
(-0.928232 -0.317711 -0.0315029)
(-0.830652 -0.141686 -0.0345331)
(-0.575222 -0.0773203 -0.0206069)
(-0.208746 -0.00616451 -0.00957352)
(-0.620934 -0.0846466 -0.022229)
(-0.722736 -0.130364 -0.0291062)
(-0.806728 -0.141566 -0.032927)
(-0.221818 -0.0051445 -0.00934859)
(-0.657883 -0.0839568 -0.0229961)
(-0.326441 -0.0256013 0.0123102)
(-0.362687 -0.0385228 0.013473)
(-0.320693 -0.0307891 0.011346)
(-0.101449 0.00145913 0.00493717)
(-0.295541 -0.0231399 0.0113334)
(-0.41204 -0.0552188 0.0124644)
(-0.371607 -0.0404885 0.0127769)
(-0.258985 -0.013478 0.0109477)
(-0.0961572 0.00240369 0.00465486)
(-0.28157 -0.0202616 0.0117069)
(-0.396584 -0.0713389 0.0208617)
(-0.432822 -0.098359 0.0219881)
(-0.47152 -0.118553 0.0298803)
(-0.423568 -0.0788717 0.0412249)
(-0.434447 -0.089483 0.0299019)
(-0.485241 -0.136627 0.0212975)
(-0.445162 -0.105372 0.0218626)
(-0.389373 -0.0571998 0.0279527)
(-0.404084 -0.0616416 0.0399224)
(-0.42307 -0.0824813 0.0295485)
(-0.285715 -0.0246172 0.0286737)
(-0.362213 -0.0512644 0.0271632)
(-0.355939 -0.0401374 0.00546589)
(-0.312983 -0.0351565 0.0210722)
(-0.304 -0.0354156 0.03128)
(-0.341113 -0.0384849 0.0252846)
(-0.292133 -0.0249877 0.0188754)
(-0.27016 -0.0185562 0.0271663)
(-0.345141 -0.035924 0.00521469)
(-0.302008 -0.0177036 0.0215739)
(-0.256481 -0.0109647 0.0158947)
(-0.321285 -0.0284698 0.0235725)
(-0.275388 -0.0195776 0.0181792)
(-0.253401 -0.00945483 0.0245362)
(-0.385359 -0.0653815 0.0205454)
(-0.352277 -0.0424916 0.0185595)
(-0.332183 -0.00430292 0.0320543)
(-0.3099 -0.00675756 0.0213166)
(-0.338372 -0.0247661 0.023958)
(-0.378948 -0.0512335 0.0272271)
(-0.349295 -0.0165684 0.0341877)
(-0.347981 -0.0297827 0.0248343)
(-0.311779 -0.0182498 0.0157541)
(-0.342002 -0.0374803 0.0180345)
(-0.31838 -0.0239589 0.0125515)
(-0.285738 -0.0128901 0.0106911)
(-0.196304 0.00190213 0.00786286)
(-0.0730612 0.00583097 0.00351793)
(-0.214475 -0.00314612 0.00905642)
(-0.248944 -0.00214096 0.00865173)
(-0.278386 -0.0115378 0.0107051)
(-0.246312 -0.0110343 0.010693)
(-0.0774916 0.00515916 0.00404865)
(-0.226062 -0.00516294 0.00958642)
(-0.0973973 0.0341135 0.00210055)
(-0.11177 0.0307313 0.00231195)
(-0.098468 0.0208901 0.00248302)
(-0.0298744 0.0103958 0.000873459)
(-0.0886082 0.0231308 0.00210332)
(-0.131954 0.026387 0.00274551)
(-0.11559 0.030364 0.00215996)
(-0.0739194 0.0255546 0.00191978)
(-0.027562 0.0105455 0.000766447)
(-0.0825594 0.0236332 0.00210356)
(-0.140889 0.0633881 0.0060714)
(-0.15636 0.0566929 0.00620211)
(-0.183795 0.0550535 0.0101191)
(-0.184237 0.0767377 0.0142354)
(-0.166995 0.0624088 0.00925003)
(-0.179205 0.0470397 0.00690114)
(-0.161715 0.0549789 0.00625215)
(-0.146916 0.0702697 0.00872453)
(-0.174534 0.0806116 0.0135965)
(-0.161871 0.0641007 0.00904633)
(-0.101283 0.0464176 0.00891728)
(-0.127469 0.0555401 0.00792245)
(-0.106496 0.0532294 0.00117407)
(-0.100289 0.038375 0.00547505)
(-0.108903 0.0437029 0.00910287)
(-0.118821 0.0587509 0.00809745)
(-0.0920348 0.0410145 0.00531836)
(-0.0950059 0.0479612 0.00910046)
(-0.102312 0.054283 0.00158713)
(-0.103318 0.0640173 0.00911266)
(-0.0782678 0.0446791 0.00613101)
(-0.110875 0.0612616 0.0084236)
(-0.0854662 0.0423875 0.00585157)
(-0.0883357 0.0503 0.00940189)
(-0.136175 0.0648291 0.00620192)
(-0.122645 0.0704967 0.00669719)
(-0.140717 0.0931127 0.0132252)
(-0.113963 0.082537 0.0104569)
(-0.125372 0.078108 0.00929339)
(-0.142397 0.0716903 0.00872146)
(-0.148222 0.090344 0.0129288)
(-0.129337 0.0769173 0.0090588)
(-0.10672 0.0765197 0.00832563)
(-0.118529 0.0717067 0.00704162)
(-0.0940401 0.0344171 0.00233806)
(-0.0814737 0.0373234 0.00253848)
(-0.0498394 0.029446 0.00271791)
(-0.0185265 0.0111888 0.000868365)
(-0.0564059 0.0279885 0.00244723)
(-0.0676062 0.0401145 0.00357588)
(-0.0785459 0.0375807 0.00288503)
(-0.0685973 0.0259691 0.0020773)
(-0.0203079 0.0110817 0.000809339)
(-0.0610525 0.0276305 0.00210435)
(-0.0151187 0.0469459 0.0452125)
(-0.0204596 0.0498203 0.0325383)
(-0.0161555 0.0360001 0.0156684)
(-0.00327851 0.0129055 0.00641793)
(-0.0124687 0.0368689 0.0192037)
(-0.0276422 0.0491051 0.0213587)
(-0.021928 0.0501055 0.0292245)
(-0.00610614 0.036034 0.0297578)
(-0.0021719 0.0129692 0.00789647)
(-0.00964073 0.0368082 0.023714)
(-0.0477413 0.0829388 0.0820959)
(-0.0530342 0.0898654 0.0614414)
(-0.0682823 0.0962872 0.042865)
(-0.0819863 0.105941 0.0605533)
(-0.0626622 0.0951039 0.0578047)
(-0.0602645 0.0917516 0.0407419)
(-0.054768 0.0910689 0.0555421)
(-0.0554413 0.0861957 0.0843755)
(-0.0781737 0.102616 0.0730009)
(-0.0608918 0.0937748 0.0637039)
(-0.0306346 0.0401968 0.0826773)
(-0.0409421 0.0651057 0.0829463)
(-0.0205898 0.048979 0.0982684)
(-0.0228547 0.0478586 0.0621666)
(-0.0341239 0.051174 0.0669643)
(-0.0370549 0.0542236 0.0988869)
(-0.0194301 0.0377039 0.0772306)
(-0.0330805 0.0264318 0.0922227)
(-0.0665836 0.0562065 0.123551)
(-0.0444362 0.0514663 0.117117)
(-0.0493727 0.0292016 0.097839)
(-0.0224835 0.0170258 0.0796341)
(-0.000321253 -0.000163775 0.0200727)
(-0.00775155 0.0152795 0.0709332)
(-0.00337325 -0.000338164 0.0220552)
(-0.0277341 0.0254605 0.0903573)
(-0.0180024 0.0429251 0.105061)
(-0.0373524 0.0494306 0.114681)
(-0.0110524 0.0228667 0.0808811)
(-0.0459406 0.0788515 0.0899059)
(-0.0396489 0.0626599 0.114142)
(-0.0685316 0.0647155 0.129074)
(-0.0453525 0.0597567 0.12324)
(-0.0536328 0.0819648 0.0921788)
(-0.0666798 0.0755323 0.120129)
(-0.0474505 0.065401 0.116547)
(-0.0373583 0.0570369 0.12104)
(-0.0137999 0.0445202 0.0505487)
(-0.00784102 0.0295408 0.0709499)
(0.0010289 -0.00015846 0.019677)
(-0.00258305 0.0149209 0.0675633)
(-0.00535543 0.0220338 0.0772372)
(-0.00459889 0.0323117 0.0385095)
(0.00268567 0.00836851 0.0205005)
(-0.00225149 0.0252667 0.049379)
(-0.549201 -0.155778 0.0173274)
(-0.750294 -0.224753 -0.0308372)
(-0.615374 -0.198774 0.0149536)
(-0.545537 -0.133034 0.00754424)
(-0.511821 -0.140658 0.0238038)
(-0.657753 -0.217412 0.0080499)
(-0.586867 -0.148486 0.00175944)
(-0.586425 -0.164541 0.00985268)
(-0.775465 -0.231963 -0.0354793)
(-0.757534 -0.246304 -0.00876073)
(-0.676597 -0.170737 -0.0125158)
(-0.63384 -0.175311 0.00112723)
(-0.704615 -0.232462 -0.000128636)
(-0.626311 -0.157617 -0.00577169)
(-0.532712 -0.0933527 0.000288872)
(-0.479642 -0.0761939 0.00592708)
(-0.336323 -0.0339626 0.00990695)
(-0.124468 -0.00194257 0.0036233)
(-0.364631 -0.0424078 0.00875173)
(-0.42207 -0.0574487 0.0110282)
(-0.467944 -0.0737771 0.00840956)
(-0.414878 -0.0545886 0.00310501)
(-0.131255 -0.00290464 0.00294778)
(-0.38277 -0.0456753 0.00577145)
(-0.613794 -0.225125 0.00879682)
(-0.560403 -0.18835 0.0153678)
(-0.484168 -0.126475 0.0295733)
(-0.488024 -0.137736 0.0417065)
(-0.52616 -0.158508 0.0269958)
(-0.49902 -0.144625 0.0204338)
(-0.544466 -0.179598 0.017271)
(-0.590445 -0.199529 0.0196508)
(-0.512651 -0.157825 0.0401924)
(-0.540799 -0.166987 0.0257137)
(-0.632923 -0.233832 0.00570152)
(-0.698107 -0.268665 -0.00417414)
(-0.770023 -0.258157 -0.00847418)
(-0.644959 -0.219193 0.0221005)
(-0.692222 -0.241879 0.00385513)
(-0.802498 -0.302568 -0.0196126)
(-0.721884 -0.276088 -0.00820839)
(-0.608198 -0.207583 0.0171863)
(-0.604932 -0.209934 0.0284792)
(-0.669725 -0.235918 0.00738539)
(-0.546809 -0.0956619 -0.00336734)
(-0.609626 -0.112527 -0.0116465)
(-0.542455 -0.0768042 -0.0155161)
(-0.170669 -0.00594754 -0.00396976)
(-0.50044 -0.0683784 -0.0113929)
(-0.701421 -0.129294 -0.0249186)
(-0.627156 -0.114463 -0.0161591)
(-0.436599 -0.0574211 -0.00158565)
(-0.160878 -0.0057101 -0.00212381)
(-0.473487 -0.0664042 -0.00553787)
(-0.211073 0.00752027 0.0192284)
(-0.26174 -0.000792507 0.002146)
(-0.23424 0.0142839 0.0147712)
(-0.195221 0.0106926 0.010434)
(-0.197257 0.0138961 0.0171327)
(-0.250049 0.00673205 0.0163778)
(-0.210538 0.0046086 0.0122865)
(-0.223941 0.00325426 0.0206029)
(-0.270544 -0.00374145 0.00243999)
(-0.283939 -0.0093133 0.0198306)
(-0.2413 -0.00643148 0.0151141)
(-0.239211 -0.00436714 0.0230207)
(-0.266423 -0.000294262 0.0179676)
(-0.224239 0.000810561 0.0129896)
(-0.180708 0.0150796 0.00489344)
(-0.159717 0.0206648 0.00359164)
(-0.105309 0.0202625 0.0026274)
(-0.0392788 0.00960976 0.00119807)
(-0.116535 0.0176319 0.00319966)
(-0.136277 0.0259341 0.00266512)
(-0.154851 0.0212267 0.0036092)
(-0.136973 0.0137445 0.00424879)
(-0.0422212 0.00936268 0.00146495)
(-0.124231 0.0168397 0.0034824)
(-0.234037 0.0218616 0.0100739)
(-0.211842 0.033117 0.00853237)
(-0.189582 0.0530346 0.0104919)
(-0.216963 0.0622161 0.0173232)
(-0.208508 0.0442638 0.0118533)
(-0.185263 0.0449971 0.00709469)
(-0.205019 0.0355528 0.00820674)
(-0.236207 0.0313722 0.0142014)
(-0.229112 0.0565262 0.0186918)
(-0.215008 0.0418489 0.0123846)
(-0.241676 0.0189483 0.0105173)
(-0.266456 0.00549945 0.0124402)
(-0.301084 -0.00257929 0.0204337)
(-0.284236 0.0269228 0.0256789)
(-0.27507 0.0124523 0.0179051)
(-0.302409 -0.014068 0.0151766)
(-0.274948 0.00201056 0.0129757)
(-0.243459 0.028477 0.0148792)
(-0.269505 0.0352809 0.0237432)
(-0.267039 0.0159303 0.0171027)
(-0.186153 0.0143798 0.00493211)
(-0.209777 0.00772958 0.00657782)
(-0.185761 0.00351346 0.00726946)
(-0.0579362 0.00772485 0.00258118)
(-0.169554 0.00780681 0.00615571)
(-0.242259 -0.00105241 0.00857838)
(-0.215832 0.00685402 0.00665324)
(-0.145579 0.0127387 0.00466745)
(-0.0542691 0.008142 0.00214547)
(-0.159985 0.00908899 0.00562383)
(-0.161289 0.108055 0.0157868)
(-0.169065 0.106001 0.0155885)
(-0.113782 0.117636 0.0362213)
(-0.118538 0.117277 0.0306633)
(-0.140659 0.113142 0.0184557)
(-0.134674 0.114407 0.0203447)
(-0.0722755 0.0548534 0.0120779)
(-0.0719251 0.0636186 0.00701397)
(-0.0781492 0.0724368 0.0153263)
(-0.0560385 0.0507769 0.0108267)
(-0.0672419 0.0566824 0.0138321)
(-0.0838204 0.070365 0.0130026)
(-0.0614145 0.0489456 0.00924425)
(-0.0770383 0.0536845 0.0109212)
(-0.0750284 0.0628471 0.00603355)
(-0.0963899 0.0661591 0.00998996)
(-0.0725643 0.0458713 0.00702254)
(-0.0828505 0.0516361 0.00999871)
(-0.0898181 0.0685366 0.0113612)
(-0.0663201 0.0478946 0.00785752)
(-0.0435011 0.0450642 0.00928457)
(-0.0365609 0.0470099 0.0126484)
(-0.0184475 0.0356235 0.0128139)
(-0.00662088 0.0123833 0.00363141)
(-0.0221842 0.0345239 0.010514)
(-0.0289964 0.0489835 0.019211)
(-0.0350411 0.0472057 0.0141069)
(-0.0288686 0.0329763 0.00706445)
(-0.00759559 0.0122273 0.00297624)
(-0.0246486 0.0341204 0.00858377)
(-0.078269 0.0866195 0.0180197)
(-0.0707634 0.0894569 0.0243311)
(-0.0702301 0.0963299 0.0388518)
(-0.0944129 0.107356 0.0344092)
(-0.0765999 0.0948729 0.0288825)
(-0.0621773 0.0917452 0.0367527)
(-0.0685183 0.0899156 0.0269312)
(-0.0862532 0.0919176 0.0198937)
(-0.0990246 0.106517 0.0288304)
(-0.0788419 0.0944342 0.0262781)
(-0.0809245 0.0859436 0.0163488)
(-0.0897587 0.0824751 0.0123893)
(-0.110497 0.0835364 0.0110066)
(-0.120614 0.100221 0.0163316)
(-0.100525 0.0872839 0.0133089)
(-0.103129 0.0775378 0.00896082)
(-0.0928651 0.0816328 0.0113363)
(-0.0888644 0.0912573 0.0182523)
(-0.114701 0.102059 0.0183145)
(-0.0975017 0.0881095 0.0143016)
(-0.0453183 0.0448623 0.00827253)
(-0.0534438 0.0427995 0.00609824)
(-0.0458128 0.0297781 0.00329565)
(-0.0130235 0.0116309 0.00138677)
(-0.0401243 0.0310813 0.00387066)
(-0.0650724 0.0403404 0.00407064)
(-0.0556066 0.042593 0.00539142)
(-0.0317772 0.0326134 0.00573942)
(-0.0116934 0.0117431 0.00167235)
(-0.0366791 0.0314136 0.004764)
(-0.101178 0.114754 0.0626662)
(-0.0971626 0.110829 0.0753003)
(-0.0745307 0.0573052 0.124821)
(-0.0550465 0.0299935 0.0987216)
(-0.0775997 0.0664401 0.131126)
(-0.0869122 0.0813008 0.124253)
(-0.38786 -0.062298 0.0208705)
(-0.419669 -0.0706763 0.00609642)
(-0.399885 -0.0680935 0.0139367)
(-0.388075 -0.0522889 0.0114055)
(-0.401766 -0.0591808 0.0116964)
(-0.413951 -0.0760088 0.014105)
(-0.375441 -0.0558254 0.0204223)
(-0.344898 -0.058714 0.0425448)
(-0.358458 -0.0546953 0.0497091)
(-0.437894 -0.0936163 0.0424718)
(-0.405243 -0.0573352 0.0489969)
(-0.36478 -0.0736333 0.0438433)
(-0.340888 -0.0401512 0.0479944)
(-0.415416 -0.0768164 0.0414811)
(-0.45103 -0.0961204 0.0213848)
(-0.491189 -0.107008 0.0039721)
(-0.485869 -0.099271 0.00998453)
(-0.498158 -0.124366 0.0127816)
(-0.465523 -0.104125 0.0208336)
(-0.469808 -0.0907498 0.0105205)
(-0.481536 -0.114487 0.0131661)
(-0.328669 -0.0506864 0.0412392)
(-0.3737 -0.0487678 0.0382485)
(-0.386574 -0.0446882 0.0471548)
(-0.310214 -0.0202349 0.0435341)
(-0.326548 -0.0329289 0.04628)
(-0.394177 -0.0634189 0.040298)
(-0.310541 -0.0376488 0.0388654)
(-0.129091 0.0442365 0.0050211)
(-0.131416 0.0453631 -0.000152075)
(-0.130011 0.0500562 0.00290795)
(-0.121508 0.0438451 0.00172412)
(-0.126933 0.0420451 0.0016793)
(-0.135542 0.0479979 0.00280855)
(-0.124064 0.0458993 0.00501589)
(-0.138335 0.0411223 0.0127795)
(-0.158136 0.0480992 0.0158951)
(-0.17583 0.0508623 0.0137193)
(-0.176757 0.0657694 0.0157195)
(-0.147605 0.0373193 0.0138529)
(-0.149213 0.0515296 0.0147332)
(-0.165401 0.0550724 0.0128039)
(-0.155536 0.0355549 0.00568472)
(-0.160466 0.0359608 -0.000526142)
(-0.161317 0.0315721 0.00187363)
(-0.170337 0.0354729 0.00315589)
(-0.161573 0.0334011 0.00588436)
(-0.154758 0.0339026 0.00166482)
(-0.163624 0.0381296 0.00292266)
(-0.0352356 0.0663302 0.0589822)
(-0.0309302 0.070414 0.0605394)
(-0.0346986 0.0709756 0.0710493)
(-0.0273571 0.0623646 0.0622106)
(-0.0293516 0.0645095 0.056024)
(-0.0366702 0.0733841 0.0642406)
(-0.0333309 0.0638794 0.0651589)
(-0.0442046 0.0698976 0.0355119)
(-0.0396024 0.0735331 0.0347854)
(-0.0404128 0.0666953 0.029317)
(-0.0475315 0.0769993 0.0340673)
(-0.0461402 0.0695966 0.0320041)
(-0.0383921 0.0671842 0.0327071)
(-0.0454862 0.0773723 0.037905)
(-0.373796 -0.0477308 0.0528307)
(-0.461529 -0.0809694 0.0565034)
(-0.39119 -0.0623477 0.0529976)
(-0.427361 -0.0835135 0.0480489)
(-0.481756 -0.0941514 0.0551119)
(-0.406875 -0.0700959 0.0514987)
(-0.576494 -0.160504 0.0106667)
(-0.633307 -0.177265 -0.011694)
(-0.639246 -0.201208 -0.00269711)
(-0.626288 -0.161716 -0.0058529)
(-0.596134 -0.169752 0.00783637)
(-0.60478 -0.151836 -0.00297101)
(-0.61701 -0.189571 -0.000119143)
(-0.405413 -0.0989778 0.0432397)
(-0.37411 -0.0627855 0.0502403)
(-0.461525 -0.108735 0.0422383)
(-0.466772 -0.105229 0.0504332)
(-0.382841 -0.0826795 0.0439393)
(-0.393745 -0.0784443 0.04986)
(-0.487044 -0.127104 0.0413723)
(-0.494191 -0.118657 0.0193495)
(-0.540283 -0.131927 0.000339518)
(-0.498966 -0.103607 0.00885302)
(-0.511339 -0.131271 0.0117022)
(-0.478583 -0.110209 0.0202494)
(-0.516226 -0.11259 0.0077083)
(-0.529085 -0.141688 0.0104627)
(-0.359875 -0.0400124 0.0522014)
(-0.40697 -0.0361991 0.0534889)
(-0.343963 -0.0263301 0.0499938)
(-0.390492 -0.0244206 0.0514255)
(-0.315766 -0.00753683 0.0451015)
(-0.330883 -0.0194242 0.0482322)
(-0.207505 0.0172983 0.00859936)
(-0.217837 0.0160463 0.000460483)
(-0.227856 0.013207 0.00545109)
(-0.218005 0.0133162 0.00385931)
(-0.215196 0.0142712 0.00906378)
(-0.209616 0.0165805 0.00338196)
(-0.21925 0.0169363 0.00492725)
(-0.166462 0.0303949 0.0162432)
(-0.166155 0.0461459 0.0169777)
(-0.186788 0.0470066 0.0147269)
(-0.207973 0.0540255 0.0193656)
(-0.156039 0.0349243 0.0147861)
(-0.176141 0.0420156 0.018534)
(-0.198509 0.0419725 0.0160232)
(-0.173678 0.0295241 0.00649728)
(-0.180499 0.0292463 -0.000337968)
(-0.166883 0.0305263 0.00193192)
(-0.176112 0.0336942 0.00328753)
(-0.167192 0.0318473 0.00618682)
(-0.173901 0.028025 0.00216832)
(-0.183277 0.0308312 0.00347341)
(-0.175922 0.0275429 0.0174678)
(-0.223902 0.031326 0.0190344)
(-0.196195 0.0346638 0.0218817)
(-0.219543 0.0498882 0.0210139)
(-0.18509 0.0396574 0.0199246)
(-0.187569 0.0221277 0.0193056)
(-0.2108 0.037355 0.017365)
(-0.0610488 0.0652487 0.015877)
(-0.0571674 0.068379 0.0135952)
(-0.0657536 0.0713074 0.0142825)
(-0.0584307 0.0612966 0.012066)
(-0.0636255 0.0643583 0.0143675)
(-0.055672 0.0622885 0.0135087)
(-0.0629243 0.0723581 0.0158864)
(-0.049997 0.068773 0.0261134)
(-0.0455195 0.0721444 0.0247156)
(-0.0420877 0.0665493 0.0263353)
(-0.049248 0.0768127 0.0305741)
(-0.0479326 0.0693668 0.0289435)
(-0.0443018 0.0657887 0.0235843)
(-0.0514761 0.076086 0.0274367)
(-0.84505 -0.24158 -0.028744)
(-0.927864 -0.270347 -0.0557309)
(-0.870321 -0.27953 -0.0385694)
(-0.854017 -0.226046 -0.0410747)
(-0.904105 -0.2877 -0.0413398)
(-0.887262 -0.232904 -0.0439959)
(-0.813611 -0.235809 -0.0256378)
(-0.880433 -0.310941 -0.0476585)
(-0.913752 -0.31908 -0.0502479)
(-0.875991 -0.19395 -0.0550628)
(-0.908543 -0.199518 -0.0581031)
(-0.393272 -0.0417324 0.00368059)
(-0.40707 -0.0475266 0.00354756)
(-0.494772 -0.0829023 0.000945377)
(-0.478619 -0.0761128 0.00101583)
(-0.406333 -0.0771816 0.00844911)
(-0.420104 -0.0855777 0.00856008)
(-0.505621 -0.138669 0.00610982)
(-0.489365 -0.128207 0.00638159)
(-0.35321 -0.0453002 0.0193251)
(-0.38922 -0.0629337 0.0137078)
(-0.380485 -0.0519101 0.00577053)
(-0.377577 -0.0491068 0.011292)
(-0.364911 -0.051295 0.0198309)
(-0.37588 -0.0555695 0.0130748)
(-0.364652 -0.0426961 0.0107468)
(-0.265056 -0.0138389 0.0321232)
(-0.254369 0.0106829 0.0328652)
(-0.317898 0.00110467 0.0369441)
(-0.299842 -0.00482774 0.029141)
(-0.317283 -0.0152603 0.0316648)
(-0.268762 0.00177182 0.0358712)
(-0.24958 -0.00451338 0.0293457)
(-0.278869 -0.0196623 0.0341897)
(-0.354198 -0.0373236 0.0363246)
(-0.296766 -0.0140805 0.0412947)
(-0.334273 -0.00787747 0.0395959)
(-0.295616 -0.0307593 0.0369679)
(-0.335304 -0.024883 0.0338459)
(-0.281406 -0.00335984 0.0382188)
(-0.301387 -0.0206915 0.0157411)
(-0.322374 -0.0254856 0.0042255)
(-0.309125 -0.0219539 0.0100243)
(-0.298122 -0.0147447 0.00790673)
(-0.320547 -0.0276329 0.0105535)
(-0.309263 -0.0197079 0.00852734)
(-0.291202 -0.0160479 0.015001)
(-0.394735 -0.0708871 0.00859855)
(-0.381667 -0.0631346 0.0078823)
(-0.313746 -0.0261942 0.00588764)
(-0.324955 -0.0321876 0.00637126)
(-0.381775 -0.0384215 0.00404223)
(-0.368812 -0.0332914 0.00315196)
(-0.299732 -0.00830631 0.00180088)
(-0.310912 -0.0124714 0.00208188)
(-0.117588 0.0435539 -0.00111723)
(-0.122987 0.0420658 -0.00129122)
(-0.158253 0.0328718 -0.00153236)
(-0.151728 0.0347313 -0.00188571)
(-0.131244 0.0534728 0.001275)
(-0.136695 0.0513297 0.00114323)
(-0.171999 0.0375908 0.00104623)
(-0.16539 0.040347 0.000790349)
(-0.115041 0.0485552 0.00514256)
(-0.125519 0.0513138 0.00306882)
(-0.115972 0.0501834 0.000465829)
(-0.117192 0.0445783 0.00191708)
(-0.1197 0.0469999 0.00502826)
(-0.120362 0.0532267 0.00317283)
(-0.112147 0.0462663 0.00201708)
(-0.0947496 0.0548702 0.00628664)
(-0.0937864 0.0570218 0.00245339)
(-0.0946622 0.0618918 0.00537785)
(-0.086749 0.053545 0.00407272)
(-0.0988568 0.0603764 0.00485618)
(-0.0908656 0.0522075 0.00363221)
(-0.0909283 0.0560967 0.0067022)
(-0.126448 0.0550641 0.00157235)
(-0.121367 0.0570405 0.00167149)
(-0.0952955 0.0665423 0.00434068)
(-0.099427 0.0649762 0.00377162)
(-0.112978 0.044301 -0.000740616)
(-0.107965 0.0456551 -0.000766656)
(-0.0819407 0.0521175 0.00173322)
(-0.0860299 0.0510154 0.00122372)
(-0.0219187 0.0606537 0.0581394)
(-0.0237795 0.0625918 0.0520337)
(-0.0346751 0.0641195 0.0263388)
(-0.0326929 0.0645897 0.0293955)
(-0.0354745 0.0760186 0.0753707)
(-0.0373017 0.0786179 0.0680982)
(-0.0476437 0.0827363 0.0354542)
(-0.0456966 0.0830196 0.0395707)
(-0.0296298 0.0562416 0.0791093)
(-0.0330172 0.0673783 0.0783107)
(-0.0253316 0.0605607 0.0824733)
(-0.0256238 0.0592814 0.0690334)
(-0.0316324 0.0605869 0.0719431)
(-0.0309233 0.0629783 0.0860557)
(-0.0235604 0.0550937 0.0762275)
(-0.0280305 0.0302065 0.0616193)
(-0.0127495 0.0106036 0.0257526)
(-0.0377848 0.0390699 0.0519948)
(-0.0110062 0.0136706 0.0159442)
(-0.0302659 0.0368967 0.0497065)
(-0.0355975 0.0319819 0.0639659)
(-0.0100328 0.0100587 0.024791)
(-0.0415924 0.0428555 0.0868476)
(-0.0540145 0.0695527 0.0873447)
(-0.0563679 0.0576323 0.0729708)
(-0.0637943 0.0614491 0.107206)
(-0.0448956 0.0541698 0.0702209)
(-0.0503598 0.0583062 0.103807)
(-0.0528407 0.0456223 0.0900434)
(-0.0202311 0.0283546 0.0586677)
(-0.0135875 0.0323738 0.0435465)