/*--------------------------------*- C++ -*----------------------------------*\
| =========                 |                                                 |
| \\      /  F ield         | OpenFOAM: The Open Source CFD Toolbox           |
|  \\    /   O peration     | Version:  2012                                  |
|   \\  /    A nd           | Website:  www.openfoam.com                      |
|    \\/     M anipulation  |                                                 |
\*---------------------------------------------------------------------------*/
FoamFile
{
    version     2.0;
    format      ascii;
    class       surfaceScalarField;
    location    "0.106/fluid";
    object      phi;
}
// * * * * * * * * * * * * * * * * * * * * * * * * * * * * * * * * * * * * * //

dimensions      [0 3 -1 0 0 0 0];
oriented        oriented;


internalField   nonuniform List<scalar> 
47156
(
-3.92367e-09
0.00153046
9.74562e-09
3.72303e-09
-9.72139e-08
-0.0015299
0.00152972
-1.44853e-07
9.80211e-08
-1.31065e-07
-0.00152929
0.00152916
-3.31943e-07
1.34031e-07
-1.72016e-07
-0.00152879
0.00152867
-4.78253e-07
1.75644e-07
-2.55502e-07
-0.00152828
0.00152815
-6.16184e-07
2.62106e-07
-4.048e-07
-0.00152776
0.00152763
-7.14024e-07
4.12886e-07
-6.66226e-07
-0.00152719
0.00152703
-7.47019e-07
6.77848e-07
-1.09591e-06
-0.00152648
0.00152625
-7.13824e-07
1.11645e-06
-1.80701e-06
-0.00152543
0.0015251
-6.07049e-07
1.83408e-06
-2.97714e-06
-0.00152384
0.00152331
-3.43775e-07
3.01178e-06
-4.91531e-06
-0.00152111
0.00152007
2.89583e-07
4.97119e-06
-8.07841e-06
-0.00151515
0.00151251
1.97208e-06
8.22793e-06
-1.30642e-05
-0.00149806
0.00148925
7.84348e-06
1.37118e-05
-1.98974e-05
-0.00143312
0.00139521
3.48501e-05
2.29142e-05
-2.08874e-05
-0.00112894
0.000163947
2.98022e-05
0.000304779
0.000173233
0.000304839
0.000173419
3.49695e-08
7.54087e-08
0.00152958
-9.08506e-08
-3.50597e-08
6.75594e-08
7.9144e-07
-0.00152683
0.00152602
-9.6496e-07
-6.28641e-08
1.48084e-07
1.40657e-06
-0.0015238
0.00152313
-1.70689e-06
-1.39181e-07
2.09892e-07
1.93189e-06
-0.00152137
0.00152082
-2.34136e-06
-2.00633e-07
2.31526e-07
2.37988e-06
-0.00151925
0.00151873
-2.87928e-06
-2.21182e-07
2.0445e-07
2.73931e-06
-0.00151719
0.00151671
-3.31247e-06
-1.97282e-07
5.74313e-08
2.90174e-06
-0.00151538
0.00151496
-3.53461e-06
-5.20623e-08
-2.54151e-07
2.8578e-06
-0.00151372
0.0015133
-3.51697e-06
2.60295e-07
-8.11374e-07
2.53812e-06
-0.00151201
0.00151157
-3.1593e-06
8.28197e-07
-1.77758e-06
1.7761e-06
-0.00151024
0.0015098
-2.2402e-06
1.81014e-06
-3.39661e-06
2.13381e-07
-0.00150844
0.00150795
-4.2223e-07
3.44082e-06
-5.96051e-06
-2.88325e-06
-0.00150615
0.00150543
2.98535e-06
6.04528e-06
-9.634e-06
-1.01621e-05
-0.00150305
0.00150241
1.02224e-05
9.92199e-06
-3.2046e-05
-1.35043e-05
-0.00150351
0.00150648
1.46064e-05
2.83279e-05
-9.08826e-05
-1.24821e-05
-0.00153906
0.00156436
1.52281e-05
6.36023e-05
7.02929e-08
1.32584e-07
0.00152884
-1.40529e-07
-6.98806e-08
1.97173e-07
1.36461e-06
-0.00152411
0.00152272
-1.46039e-06
-1.89321e-07
3.65828e-07
2.41972e-06
-0.00151893
0.0015178
-2.57703e-06
-3.52654e-07
5.17954e-07
3.29012e-06
-0.00151474
0.00151382
-3.50437e-06
-5.03561e-07
6.45063e-07
4.05457e-06
-0.00151114
0.0015103
-4.3197e-06
-6.32455e-07
7.3798e-07
4.68528e-06
-0.00150789
0.00150714
-5.00229e-06
-7.23952e-07
7.34346e-07
5.08362e-06
-0.001505
0.0015043
-5.45555e-06
-7.19333e-07
5.9269e-07
5.22118e-06
-0.00150224
0.00150155
-5.63028e-06
-5.71677e-07
2.38584e-07
4.87332e-06
-0.00149958
0.001499
-5.2774e-06
-2.04286e-07
-4.44802e-07
3.65897e-06
-0.00149751
0.00149707
-4.05922e-06
4.98187e-07
-1.52989e-06
1.45375e-06
-0.00149565
0.0014951
-1.8534e-06
1.58629e-06
-3.03666e-06
-1.8436e-06
-0.00149312
0.00149234
1.24131e-06
3.08799e-06
-4.7728e-06
-6.47899e-06
-0.00148994
0.00148935
4.85988e-06
4.85985e-06
-5.88801e-06
-1.20655e-05
-0.00149023
0.00149226
6.75004e-06
6.21702e-06
-4.20606e-06
-1.28759e-05
-0.00150779
0.00151631
8.41857e-07
5.07199e-06
9.50788e-08
1.37973e-07
0.00152834
-9.42931e-08
2.65452e-07
1.58579e-06
-0.00152233
0.00152058
-2.54516e-07
4.70983e-07
2.75735e-06
-0.00151584
0.00151441
-4.5859e-07
6.85852e-07
3.77686e-06
-0.00151044
0.0015092
-6.68639e-07
9.07831e-07
4.72667e-06
-0.00150569
0.00150457
-8.84598e-07
1.11805e-06
5.60227e-06
-0.00150139
0.0015004
-1.09078e-06
1.24217e-06
6.24091e-06
-0.00149771
0.00149687
-1.21299e-06
1.22735e-06
6.52969e-06
-0.00149457
0.00149388
-1.18072e-06
1.00291e-06
6.18516e-06
-0.00149209
0.00149158
-9.36503e-07
5.28893e-07
4.96939e-06
-0.00149019
0.00148974
-4.60321e-07
-8.04477e-08
2.94118e-06
-0.00148795
0.00148716
1.5249e-07
-7.14945e-07
5.05116e-07
-0.00148406
0.00148269
7.77721e-07
-1.22687e-06
-1.24463e-06
-0.00147695
0.00147437
1.33049e-06
-1.97141e-06
2.46442e-06
-0.00146377
0.00145887
2.53339e-06
-6.97603e-06
4.45526e-05
-0.0014408
0.00143774
1.32696e-05
-2.82039e-09
0.00153045
1.59302e-08
2.54181e-09
-9.25443e-08
-0.0015299
0.00152973
-1.11361e-07
8.78905e-08
-1.31561e-07
-0.00152933
0.00152921
-2.80846e-07
1.26832e-07
-1.74694e-07
-0.00152889
0.0015288
-3.98199e-07
1.69383e-07
-2.60759e-07
-0.00152849
0.00152839
-5.02951e-07
2.53921e-07
-4.07036e-07
-0.00152802
0.00152789
-6.42723e-07
3.95296e-07
-6.60786e-07
-0.0015275
0.00152737
-7.58162e-07
6.41492e-07
-1.08383e-06
-0.00152699
0.00152685
-7.6554e-07
1.04726e-06
-1.77644e-06
-0.00152634
0.00152613
-6.7623e-07
1.71537e-06
-2.91614e-06
-0.00152541
0.00152511
-4.59196e-07
2.81679e-06
-4.84244e-06
-0.00152388
0.00152328
4.28314e-08
4.68812e-06
-8.27717e-06
-0.00152035
0.00151873
1.24914e-06
8.09141e-06
-1.53638e-05
-0.00150952
0.00150378
5.32006e-06
1.54121e-05
-3.48065e-05
-0.00146567
0.00143865
2.42407e-05
3.75138e-05
-0.000100546
-0.00122168
0.000122163
0.000138127
0.000338766
0.000191861
0.000332258
0.00019928
3.23292e-08
5.75678e-08
0.00152961
-6.38285e-08
-3.07439e-08
5.13208e-08
6.62986e-07
-0.00152694
0.00152615
-8.05236e-07
-4.86996e-08
1.12004e-07
1.19222e-06
-0.00152403
0.00152339
-1.43777e-06
-1.03972e-07
1.64111e-07
1.64764e-06
-0.00152168
0.00152115
-2.0017e-06
-1.53684e-07
1.84628e-07
2.08734e-06
-0.00151956
0.00151902
-2.56309e-06
-1.70209e-07
1.62653e-07
2.56484e-06
-0.00151734
0.00151678
-3.13343e-06
-1.4881e-07
4.20781e-08
2.96228e-06
-0.00151517
0.00151466
-3.58683e-06
-3.54626e-08
-2.65914e-07
3.06567e-06
-0.00151337
0.00151301
-3.74362e-06
2.60926e-07
-8.31279e-07
2.81908e-06
-0.00151197
0.00151164
-3.46569e-06
8.09354e-07
-1.78088e-06
2.1405e-06
-0.00151078
0.00151054
-2.63914e-06
1.72758e-06
-3.37989e-06
8.13059e-07
-0.00150985
0.0015096
-1.09482e-06
3.28096e-06
-6.02961e-06
-1.5463e-06
-0.00150868
0.00150831
1.5281e-06
5.88592e-06
-1.05413e-05
-6.74462e-06
-0.00150719
0.001507
6.78436e-06
1.04611e-05
-2.17927e-05
-1.81186e-05
-0.0015088
0.00151122
1.85996e-05
1.93832e-05
-6.30534e-05
-2.52459e-05
-0.00153459
0.00155238
2.78619e-05
4.35099e-05
6.49138e-08
9.19437e-08
0.00152892
-9.43758e-08
-6.23177e-08
1.60591e-07
1.09875e-06
-0.00152438
0.00152303
-1.15363e-06
-1.50926e-07
2.95202e-07
1.9765e-06
-0.00151937
0.00151826
-2.0865e-06
-2.73907e-07
4.3435e-07
2.80983e-06
-0.00151515
0.00151418
-2.97562e-06
-4.07201e-07
5.60022e-07
3.6593e-06
-0.00151129
0.00151035
-3.87916e-06
-5.28461e-07
6.48917e-07
4.4563e-06
-0.00150771
0.00150691
-4.73096e-06
-6.13822e-07
6.45115e-07
5.05623e-06
-0.00150462
0.00150391
-5.38113e-06
-6.11442e-07
4.85406e-07
5.3455e-06
-0.00150189
0.0015013
-5.70193e-06
-4.54281e-07
9.32054e-08
5.04077e-06
-0.00149974
0.00149933
-5.40121e-06
-6.31684e-08
-6.03924e-07
3.97134e-06
-0.00149823
0.00149791
-4.32976e-06
6.1116e-07
-1.65314e-06
2.16769e-06
-0.00149673
0.00149628
-2.55649e-06
1.62624e-06
-3.12049e-06
-4.44204e-07
-0.00149459
0.00149386
-1.11103e-07
3.0667e-06
-5.0379e-06
-4.04785e-06
-0.00149136
0.00149057
2.79736e-06
4.98895e-06
-6.99343e-06
-8.68214e-06
-0.00148969
0.00149044
5.28972e-06
7.01875e-06
-6.49091e-06
-1.05824e-05
-0.00149813
0.00150244
3.98561e-06
6.62379e-06
8.6969e-08
8.85504e-08
0.00152844
-8.45907e-08
2.18599e-07
1.20006e-06
-0.00152261
0.00152091
-2.04645e-07
3.83838e-07
2.18369e-06
-0.00151627
0.00151484
-3.56061e-07
5.78978e-07
3.15226e-06
-0.00151079
0.00150951
-5.41684e-07
7.74234e-07
4.14979e-06
-0.00150583
0.00150467
-7.29406e-07
9.52227e-07
5.14476e-06
-0.00150134
0.00150032
-8.99888e-07
1.05455e-06
5.94891e-06
-0.00149752
0.0014967
-9.95584e-07
9.94976e-07
6.33499e-06
-0.00149462
0.00149406
-9.29739e-07
7.05926e-07
6.06613e-06
-0.00149267
0.00149226
-6.37219e-07
2.44328e-07
5.09674e-06
-0.00149101
0.0014905
-1.95067e-07
-3.18749e-07
3.64276e-06
-0.00148844
0.00148769
3.40409e-07
-9.18564e-07
1.74319e-06
-0.00148468
0.00148324
9.2935e-07
-1.53132e-06
3.31254e-07
-0.00147731
0.00147477
1.53152e-06
-2.65336e-06
1.06202e-06
-0.00146595
0.0014629
2.39415e-06
-6.40497e-06
6.28098e-06
-0.00145703
0.00145771
4.15165e-06
-1.28268e-09
0.00153046
1.77704e-08
5.00772e-10
-6.57411e-08
-0.0015299
0.00152974
-9.16079e-08
5.56669e-08
-1.01542e-07
-0.00152935
0.00152924
-2.48008e-07
9.01409e-08
-1.39969e-07
-0.00152896
0.00152888
-3.51028e-07
1.26149e-07
-2.17848e-07
-0.00152866
0.00152858
-4.20549e-07
1.95116e-07
-3.3078e-07
-0.00152827
0.00152815
-5.65218e-07
2.99041e-07
-5.26456e-07
-0.0015278
0.00152771
-7.34187e-07
4.75724e-07
-8.61303e-07
-0.00152745
0.00152737
-7.9499e-07
7.77815e-07
-1.40718e-06
-0.0015271
0.00152701
-7.65297e-07
1.27034e-06
-2.31536e-06
-0.00152675
0.00152667
-6.14126e-07
2.08706e-06
-3.87628e-06
-0.00152636
0.00152622
-2.58902e-07
3.50247e-06
-6.77715e-06
-0.00152554
0.00152516
4.4875e-07
6.10477e-06
-1.29982e-05
-0.00152311
0.00152198
2.20104e-06
1.15179e-05
-2.98482e-05
-0.00151686
0.00151495
7.15401e-06
2.44429e-05
-8.27506e-05
-0.0015224
0.00154084
1.48163e-05
4.94644e-05
2.54541e-08
4.95243e-08
0.0015296
-5.7098e-08
-2.38554e-08
4.36273e-08
5.79042e-07
-0.00152691
0.00152613
-6.96183e-07
-4.28629e-08
8.27386e-08
1.0543e-06
-0.00152402
0.00152341
-1.26413e-06
-7.54373e-08
1.16038e-07
1.47123e-06
-0.00152177
0.00152126
-1.77567e-06
-1.02789e-07
1.29728e-07
1.90103e-06
-0.00151973
0.00151921
-2.33949e-06
-1.14873e-07
1.10972e-07
2.40491e-06
-0.00151761
0.00151706
-2.95209e-06
-9.93769e-08
2.11655e-08
2.88971e-06
-0.00151545
0.00151496
-3.51457e-06
-1.92176e-08
-2.18742e-07
3.13304e-06
-0.00151367
0.00151332
-3.80221e-06
1.94451e-07
-6.63217e-07
3.00707e-06
-0.00151243
0.00151221
-3.6371e-06
5.97048e-07
-1.42625e-06
2.46548e-06
-0.00151177
0.00151172
-2.96521e-06
1.28642e-06
-2.72162e-06
1.40685e-06
-0.00151178
0.00151186
-1.72106e-06
2.45786e-06
-4.932e-06
-2.20771e-07
-0.0015122
0.0015124
1.14236e-07
4.45159e-06
-8.85291e-06
-3.01588e-06
-0.00151354
0.00151428
3.06377e-06
7.92477e-06
-1.55522e-05
-8.34703e-06
-0.00151882
0.00152162
7.93978e-06
1.34808e-05
-2.16233e-05
-1.39291e-05
-0.00153703
0.00154495
1.15137e-05
1.65165e-05
5.15192e-08
6.91461e-08
0.00152893
-6.39358e-08
-4.77282e-08
1.21937e-07
9.21472e-07
-0.0015244
0.00152307
-9.57029e-07
-1.12275e-07
2.11048e-07
1.69195e-06
-0.00151945
0.00151838
-1.77034e-06
-1.90058e-07
3.16989e-07
2.44533e-06
-0.00151535
0.00151439
-2.57546e-06
-2.80119e-07
4.19451e-07
3.32245e-06
-0.00151148
0.00151053
-3.50553e-06
-3.77322e-07
4.96455e-07
4.20828e-06
-0.00150786
0.00150706
-4.45566e-06
-4.50211e-07
4.98921e-07
4.93824e-06
-0.00150483
0.00150414
-5.24118e-06
-4.53318e-07
3.59502e-07
5.35515e-06
-0.00150222
0.00150174
-5.70817e-06
-3.25531e-07
2.03946e-08
5.14744e-06
-0.00150064
0.0015004
-5.51549e-06
-1.95978e-08
-5.36546e-07
4.24105e-06
-0.00149989
0.00149979
-4.60013e-06
4.89623e-07
-1.38319e-06
2.72515e-06
-0.00149949
0.00149938
-3.07437e-06
1.25062e-06
-2.61547e-06
7.65782e-07
-0.00149882
0.00149856
-1.20804e-06
2.37027e-06
-4.30892e-06
-1.63043e-06
-0.00149778
0.00149763
8.34384e-07
3.90737e-06
-6.09213e-06
-4.02161e-06
-0.00149837
0.00149926
2.45411e-06
5.47534e-06
-5.7381e-06
-3.71427e-06
-0.00150422
0.0015064
1.32156e-06
4.99178e-06
7.11279e-08
5.69108e-08
0.00152845
-6.56894e-08
1.61403e-07
9.57445e-07
-0.00152263
0.00152093
-1.47149e-07
2.72751e-07
1.81118e-06
-0.00151627
0.00151484
-2.42895e-07
4.13676e-07
2.70836e-06
-0.00151082
0.00150954
-3.67968e-07
5.70061e-07
3.69765e-06
-0.00150586
0.0015047
-5.11839e-07
7.11621e-07
4.73347e-06
-0.0015014
0.00150039
-6.39059e-07
7.9299e-07
5.65425e-06
-0.0014976
0.00149679
-7.17194e-07
7.3113e-07
6.22307e-06
-0.0014948
0.00149434
-6.5839e-07
4.60764e-07
6.11668e-06
-0.00149342
0.00149321
-4.0232e-07
1.13069e-07
5.30901e-06
-0.00149261
0.0014924
-1.01375e-07
-3.06132e-07
3.96999e-06
-0.00149147
0.00149102
2.78435e-07
-8.10821e-07
2.57932e-06
-0.00148897
0.00148798
7.37764e-07
-1.3487e-06
1.53218e-06
-0.00148412
0.00148258
1.23023e-06
-1.82614e-06
1.40159e-06
-0.00147775
0.00147624
1.65053e-06
-1.95326e-06
3.15056e-06
-0.00147298
0.00147247
1.71328e-06
3.04872e-09
0.00153045
1.86622e-08
-4.04587e-09
-2.28527e-08
-0.0015299
0.00152975
-7.43553e-08
1.94253e-09
-5.15046e-08
-0.00152939
0.00152928
-2.16247e-07
3.73933e-08
-7.64308e-08
-0.001529
0.00152892
-3.21208e-07
5.75382e-08
-1.17526e-07
-0.00152869
0.00152861
-4.28951e-07
8.88791e-08
-1.81974e-07
-0.00152834
0.00152824
-5.72062e-07
1.38064e-07
-2.92627e-07
-0.00152797
0.00152789
-7.23334e-07
2.20523e-07
-4.76452e-07
-0.00152773
0.0015277
-8.10982e-07
3.58404e-07
-7.75278e-07
-0.00152763
0.00152763
-8.05488e-07
5.88101e-07
-1.27444e-06
-0.00152771
0.00152776
-6.81382e-07
9.69003e-07
-2.13248e-06
-0.00152807
0.00152822
-4.34404e-07
1.62218e-06
-3.66413e-06
-0.00152891
0.00152922
-3.62026e-08
2.77251e-06
-6.48199e-06
-0.00153058
0.00153124
5.53429e-07
4.81009e-06
-1.11542e-05
-0.00153439
0.00153606
1.2842e-06
7.86383e-06
-1.42357e-05
-0.00154481
0.00154916
9.74986e-07
8.61586e-06
1.71785e-08
4.46765e-08
0.00152959
-5.10947e-08
-1.54111e-08
4.12054e-08
5.12056e-07
-0.00152688
0.00152611
-6.16533e-07
-4.28584e-08
4.94354e-08
9.32363e-07
-0.00152406
0.00152347
-1.12086e-06
-3.95559e-08
6.23466e-08
1.33394e-06
-0.00152187
0.00152136
-1.60763e-06
-4.87203e-08
6.84724e-08
1.77469e-06
-0.00151988
0.00151938
-2.16694e-06
-5.30091e-08
6.47464e-08
2.30067e-06
-0.00151778
0.00151723
-2.80439e-06
-5.09011e-08
1.73583e-08
2.80552e-06
-0.00151569
0.00151524
-3.38958e-06
-1.61354e-08
-1.13144e-07
3.07824e-06
-0.0015141
0.00151379
-3.70592e-06
8.40331e-08
-3.60131e-07
3.03395e-06
-0.00151309
0.00151296
-3.6322e-06
2.69615e-07
-7.80131e-07
2.59922e-06
-0.00151281
0.00151287
-3.10411e-06
5.91611e-07
-1.49062e-06
1.79712e-06
-0.00151334
0.00151361
-2.16168e-06
1.1292e-06
-2.67916e-06
6.86667e-07
-0.00151475
0.00151527
-8.92902e-07
2.01791e-06
-4.59314e-06
-6.65346e-07
-0.00151742
0.0015184
5.86367e-07
3.43117e-06
-7.04477e-06
-2.01038e-06
-0.00152256
0.00152443
1.94038e-06
5.11923e-06
-7.33371e-06
-1.91756e-06
-0.00153147
0.00153406
1.69934e-06
4.84046e-06
3.16277e-08
6.23279e-08
0.0015289
-5.83542e-08
-2.63134e-08
8.22173e-08
8.17625e-07
-0.00152434
0.00152302
-8.4967e-07
-7.31426e-08
1.17967e-07
1.50647e-06
-0.00151947
0.00151841
-1.57363e-06
-9.096e-08
1.70695e-07
2.21957e-06
-0.00151544
0.00151449
-2.3321e-06
-1.31565e-07
2.26819e-07
3.04702e-06
-0.00151174
0.00151084
-3.21708e-06
-1.72808e-07
2.72441e-07
3.96239e-06
-0.00150827
0.00150747
-4.19302e-06
-2.06412e-07
2.85446e-07
4.75012e-06
-0.00150529
0.00150465
-5.031e-06
-2.18461e-07
1.98077e-07
5.18937e-06
-0.00150304
0.00150266
-5.52124e-06
-1.51729e-07
9.11681e-09
5.04972e-06
-0.0015019
0.00150177
-5.38577e-06
-1.00277e-08
-2.96081e-07
4.31832e-06
-0.00150163
0.00150167
-4.62786e-06
2.19901e-07
-7.54662e-07
3.09669e-06
-0.00150192
0.00150203
-3.37406e-06
5.7029e-07
-1.43389e-06
1.64315e-06
-0.00150233
0.00150243
-1.96526e-06
1.07406e-06
-2.3325e-06
2.55767e-07
-0.00150289
0.00150316
-6.93265e-07
1.74738e-06
-3.16699e-06
-6.20237e-07
-0.00150476
0.00150559
-1.41876e-08
2.35069e-06
-2.76335e-06
9.15007e-08
-0.00150875
0.00150983
-8.38659e-07
1.9935e-06
4.31836e-08
4.57884e-08
0.00152844
-3.60797e-08
1.03092e-07
8.44175e-07
-0.00152256
0.00152083
-9.07682e-08
1.52774e-07
1.59527e-06
-0.00151614
0.00151471
-1.18959e-07
2.24023e-07
2.43339e-06
-0.00151071
0.00150946
-1.71559e-07
3.08234e-07
3.39538e-06
-0.00150586
0.00150473
-2.34149e-07
3.86066e-07
4.44381e-06
-0.00150151
0.00150053
-2.92868e-07
4.33414e-07
5.3711e-06
-0.00149792
0.0014972
-3.28999e-07
3.87657e-07
5.95657e-06
-0.00149552
0.00149517
-2.97848e-07
2.57127e-07
5.90465e-06
-0.0014946
0.00149452
-2.07365e-07
9.13485e-08
5.20927e-06
-0.00149449
0.00149449
-7.41799e-08
-1.59167e-07
4.07542e-06
-0.00149432
0.00149415
1.105e-07
-4.27654e-07
3.00843e-06
-0.00149314
0.00149265
3.10695e-07
-7.32079e-07
2.21087e-06
-0.00149088
0.00149024
5.34024e-07
-9.99676e-07
2.00451e-06
-0.00148844
0.00148793
7.41587e-07
-1.05017e-06
2.93448e-06
-0.0014867
0.00148636
7.85777e-07
-0.00112636
-1.55063e-05
0.000165882
0.000304581
0.000173167
0.000304387
0.00017315
1.52839e-05
-0.00152608
9.38802e-05
-1.30391e-05
-0.00012551
0.0015563
4.34006e-06
7.08723e-05
-2.55951e-06
-0.00171355
-3.95671e-05
-2.57129e-05
-2.58156e-05
-3.94375e-05
4.98385e-05
-0.00144456
-2.20446e-06
0.00144315
-5.99459e-07
-6.51133e-06
6.33612e-07
-0.000397204
6.50991e-06
-0.00152389
-0.000122293
0.00155245
1.90283e-05
6.7537e-05
-0.00170563
6.81839e-06
-3.84138e-05
-2.50491e-05
-3.87159e-05
-2.48074e-05
-0.00117401
-6.69143e-05
0.000142758
0.000316119
0.000183187
0.00031841
0.000180129
3.45306e-05
-0.00152333
7.39985e-05
-2.89979e-05
-0.000100539
0.00154532
1.92646e-05
5.57559e-05
-1.41873e-05
-0.0016752
-3.45104e-05
-2.05568e-05
-2.17586e-05
-3.28795e-05
-6.88947e-06
-0.000394167
6.08769e-06
1.75082e-07
1.07537e-05
-0.00145238
-9.79816e-06
0.00145385
7.15949e-06
-2.91585e-06
-0.00147044
7.72315e-07
2.90181e-06
1.6822e-06
2.8823e-06
-0.00152606
-8.51312e-05
0.00154467
3.89863e-05
4.70063e-05
-0.00165527
2.32814e-05
-2.72719e-05
-1.91005e-05
-3.08251e-05
-1.68317e-05
-0.00148342
-0.000122064
0.00149182
3.09719e-05
7.10121e-06
-0.00154332
2.5584e-05
-3.18962e-05
-2.46886e-06
-1.74346e-05
-1.85173e-05
-0.00153791
2.31859e-05
2.76071e-05
-3.25311e-05
-2.72383e-05
0.00154753
1.66965e-05
1.31441e-05
-1.1233e-05
-2.74673e-05
-0.0015733
-1.30457e-05
-0.00151483
-3.70971e-06
0.00152503
-5.96722e-08
3.00424e-07
-3.47196e-06
1.10441e-06
-0.00154479
-2.61213e-06
4.97492e-06
-0.00146889
-2.40191e-06
0.00148529
2.77308e-05
-3.11417e-06
6.79175e-06
-1.0211e-06
-8.85287e-07
1.35276e-06
-0.00156014
1.18847e-05
2.44626e-06
-0.00146648
-1.38402e-06
0.00146185
5.04681e-06
2.77072e-05
-2.06569e-06
-0.00144972
-3.24267e-06
-0.00153366
-1.86822e-06
8.32462e-08
-0.00146284
0.00147637
8.08539e-06
2.41409e-05
-5.26648e-07
5.31752e-06
-1.25408e-06
-0.0015423
-4.34727e-06
1.01197e-05
-1.17812e-05
-0.00149841
-6.12778e-06
0.00150357
3.78502e-06
-1.31147e-06
1.06553e-06
-7.24734e-07
-0.00151355
-2.54515e-06
6.46905e-06
-0.00146059
-8.07867e-06
0.00146242
7.26222e-06
1.27681e-06
3.75279e-07
-0.00147157
6.06101e-06
2.47393e-05
8.14925e-06
-0.00144638
1.29476e-06
-0.00146396
-2.84056e-06
0.00146036
7.7313e-06
5.11537e-06
-6.97798e-06
-0.00145385
2.14189e-05
-8.28869e-06
0.000380223
0.000374569
0.000379642
0.000374107
7.91488e-05
0.00143879
1.6349e-05
3.60985e-05
-0.00144042
0.000375541
2.88189e-05
0.000370997
0.000377277
0.000373431
6.53361e-05
5.93243e-06
-0.00146337
-5.38061e-07
3.3547e-06
-0.00146878
-2.33731e-06
0.00146832
5.82837e-06
1.0247e-06
-9.17119e-07
-0.00146828
9.96209e-08
-1.09899e-05
3.63604e-06
7.33248e-06
-7.80774e-08
5.55023e-07
1.1187e-05
-1.807e-05
-4.48123e-07
-0.000148867
4.87494e-06
-0.000408481
9.3462e-05
-4.17571e-06
-0.000117134
0.000431494
0.00145315
5.03351e-05
-0.00145221
-1.44577e-06
0.00038245
0.000383713
0.000376718
0.000378137
8.64178e-05
0.000385952
0.000380381
8.65904e-05
1.28954e-06
2.2383e-05
0.000390188
-5.9037e-07
-3.10019e-05
1.02625e-05
-0.000405508
9.07915e-05
-8.47312e-06
0.000427389
-0.000114416
-1.09397e-05
3.595e-06
7.33306e-06
1.11376e-07
1.11073e-05
-1.80189e-05
-0.000148621
6.97688e-07
-0.000407478
9.27901e-05
5.84501e-06
-0.000116684
0.000430444
1.50533e-06
1.08629e-05
-0.000146834
-1.28669e-06
-1.77366e-05
7.05469e-07
-1.09286e-05
7.32204e-06
-5.75082e-07
3.47625e-06
-0.00040397
8.91107e-05
0.000425585
1.26592e-05
-0.000113075
4.64153e-06
-1.14833e-05
2.97136e-06
7.42988e-06
-3.55937e-06
3.88635e-06
9.76733e-06
-1.66937e-05
-3.48334e-06
-0.000142628
1.06917e-05
-0.000146348
-1.7612e-05
1.78167e-06
2.35712e-05
-0.000402312
8.20731e-05
-1.91327e-05
-0.000105039
0.00042089
-1.08454e-05
7.34591e-06
3.3618e-06
8.43251e-07
2.11432e-05
0.000387612
-3.00255e-05
2.57145e-06
-2.01685e-07
9.90475e-07
-1.5938e-06
-0.000385527
6.73396e-07
6.90333e-06
1.58652e-05
-2.23003e-05
-6.46947e-06
0.000381274
0.00145654
1.73626e-05
-0.00145156
-1.6162e-05
0.00146172
8.09308e-06
1.31049e-05
0.000370747
0.000368889
0.000368288
0.000367203
2.24805e-05
-1.32368e-06
-2.62248e-06
-0.000375639
4.36589e-06
1.17895e-05
-3.9032e-06
-3.30048e-06
-2.67888e-06
-5.58638e-06
6.05257e-06
6.76816e-06
-7.97938e-06
0.000373266
5.36501e-06
-0.000406453
3.73737e-05
3.634e-05
-4.07517e-05
0.000418464
-4.4912e-05
-1.19747e-05
2.67745e-06
7.66392e-06
6.27497e-06
9.06628e-06
-1.61192e-05
-0.000141319
4.40733e-06
-1.44727e-05
2.97775e-06
-4.71235e-05
3.66658e-06
2.77172e-06
4.01165e-06
2.5969e-06
-0.000400029
7.54018e-05
2.95815e-05
-9.87443e-05
0.000417413
2.99447e-07
4.06306e-06
-0.000115334
-6.85651e-06
2.31528e-06
-3.84895e-05
1.52496e-05
2.77718e-06
-2.38539e-05
4.4317e-05
-0.00142992
-1.7675e-05
0.00139173
3.59272e-05
2.33588e-05
-1.83909e-05
0.000121451
-0.00125266
1.52011e-05
-0.00150135
3.35097e-05
-1.41934e-05
-3.4381e-05
0.00150173
1.63495e-05
7.54916e-05
-1.43551e-05
-9.21675e-05
-0.00151052
-0.00154229
-1.09405e-05
0.0015691
6.62608e-05
2.83111e-06
-1.22367e-06
-0.00165476
3.85505e-05
6.51889e-06
-0.00152613
-5.93218e-06
0.00153826
-2.73242e-05
2.37662e-06
-5.67002e-07
-0.00156175
-1.07967e-05
0.00011961
3.09883e-05
-0.00125604
-0.00150174
-3.29588e-05
0.00150186
1.65367e-05
7.29468e-05
-8.94928e-05
1.94392e-05
-0.00150951
-0.00145378
-3.08271e-05
0.0014216
2.8138e-05
7.69062e-05
-5.76568e-05
0.000103117
-0.00129623
2.07312e-05
-0.00150678
2.5094e-05
-1.95544e-05
-2.58606e-05
0.00150699
3.14174e-05
5.86125e-05
-2.74038e-05
-7.2373e-05
-0.00151256
-3.21514e-05
-0.00152098
4.6231e-05
0.000405867
0.000369054
0.000369593
-8.05286e-05
-8.08221e-05
-7.44291e-05
-7.42415e-05
0.000267422
-1.54847e-06
2.15822e-05
1.09299e-05
2.16222e-05
4.81171e-05
2.09396e-06
-0.000113731
0.00152358
3.12314e-05
-2.38018e-05
0.000168545
-0.00153508
0.000160562
4.42046e-05
0.000305967
0.000174331
0.000306147
0.000173812
-0.00113501
-2.30037e-05
0.00040707
0.000370503
0.000370036
-8.1546e-05
-8.13592e-05
-7.49684e-05
-7.50986e-05
0.000272811
4.16718e-05
0.00016377
-0.00153408
5.87582e-06
2.15391e-05
1.09031e-05
2.16066e-05
4.76351e-05
-4.0652e-06
-0.000114417
-0.00164721
4.21892e-06
3.56337e-05
-0.00152002
0.00153051
7.55329e-06
-2.60937e-05
-0.00155156
2.34877e-06
-9.47686e-06
-0.00153459
-2.17984e-05
0.00155499
5.10195e-05
1.11015e-05
-8.60532e-06
-0.0016232
2.85101e-05
9.61838e-06
-0.00151245
-9.1306e-06
0.00152006
-2.14048e-05
3.68799e-06
-3.52443e-06
-0.00153521
-6.67125e-06
8.9471e-05
9.72033e-05
-0.0013313
-0.00150983
-2.23901e-05
0.00151052
2.12597e-05
5.0104e-05
-6.14978e-05
3.42231e-05
-0.00151646
-0.00150695
-3.46182e-05
0.00150112
1.04724e-05
6.44196e-05
-8.53028e-05
2.47938e-05
-0.0014873
-0.0015198
1.11736e-05
1.7457e-05
-1.9473e-05
-1.11689e-05
0.00152229
2.0388e-05
2.56387e-05
-2.97231e-05
-2.26338e-05
-0.00153088
-0.000134779
-0.00156015
0.000135484
0.000401707
0.000403875
0.000395176
-4.29812e-05
-5.08986e-05
-4.88128e-05
-4.24468e-05
0.000138016
-2.79281e-05
2.32582e-05
1.27952e-05
2.42349e-05
4.28305e-05
4.08574e-05
-0.000128015
0.00153227
8.63496e-05
-7.19228e-05
0.000121153
-0.00154508
8.78047e-05
0.000149218
0.000370548
0.000233717
0.000384915
0.000220929
-0.00130877
-9.91545e-05
0.000401553
0.000374004
0.00037673
-6.94197e-05
-6.58184e-05
-6.19014e-05
-6.45433e-05
0.000206612
8.48012e-05
8.8683e-05
-0.00155889
6.06645e-05
6.16632e-05
3.06061e-05
5.37917e-05
2.59588e-05
-7.30094e-05
-0.000198156
-0.00161074
1.33172e-05
2.36455e-05
-0.00151202
0.00151863
-1.86359e-05
9.78617e-06
8.56167e-07
-0.00153142
-5.22912e-06
3.54114e-06
-0.00153632
-2.46712e-05
0.00154517
1.79602e-05
8.6704e-06
-8.15008e-06
-0.00156463
9.68162e-06
5.36926e-06
-0.00151377
7.97569e-06
-8.7813e-06
-8.98975e-06
0.0015176
-6.02172e-07
2.50166e-06
-2.55787e-06
-1.80055e-06
-0.001524
-0.0016267
-1.46757e-05
2.07174e-05
-0.00154111
-1.54491e-05
0.00155053
2.0149e-05
-1.89919e-07
2.81369e-06
-0.00157238
6.26285e-06
-0.00154133
-2.07542e-05
0.00154488
2.71895e-06
2.43993e-06
-7.52077e-06
-0.00155233
1.66266e-06
-0.00153662
3.7784e-06
8.49661e-06
-1.12083e-05
-4.05973e-06
0.00153957
1.78883e-06
2.21877e-06
-3.18629e-06
-2.63867e-06
-0.00154447
-0.00153006
1.74663e-05
0.000409689
0.000372008
-8.21309e-05
-7.56335e-05
0.000277862
0.000167011
0.000304447
0.000173178
-0.00112586
2.16616e-05
1.09895e-05
2.1726e-05
4.81333e-05
-1.10679e-06
-0.000113936
-1.89411e-05
0.00152666
0.000171662
-0.00153681
0.000173254
-0.00153936
0.000408862
0.00037106
0.00037149
-8.18423e-05
-8.19507e-05
-7.54657e-05
-7.53894e-05
0.000276342
0.000209453
9.89234e-06
-9.38349e-05
-0.000104494
0.000462052
0.000455851
-0.00165194
-0.00171714
-3.89112e-05
-2.50567e-05
6.82426e-05
1.68918e-06
-1.1371e-05
-1.86231e-05
-1.88338e-05
-1.40106e-06
-0.000496515
3.52548e-05
-7.2987e-06
-0.000209751
9.52548e-06
-0.00161981
0.000114198
-0.00162283
0.000113256
1.33329e-05
-9.37025e-05
-0.000104115
-0.000104324
0.000460311
0.000460953
0.000454825
0.000454158
-0.0016473
-1.93013e-05
0.000201444
2.77908e-05
-9.14756e-05
-0.000101427
-0.000102021
0.0004553
0.000456256
0.000450314
0.000449345
-0.00163484
-1.853e-05
-1.12672e-05
-1.86981e-05
-0.000494993
2.20293e-06
3.48267e-05
-0.00020574
1.33486e-05
-0.00161391
0.000110638
-0.00169847
1.00057e-05
-3.81356e-05
-2.42883e-05
-3.76794e-05
-2.46687e-05
6.61892e-05
-9.23867e-05
-0.000103376
-0.000103003
0.000458855
0.000458097
0.000452013
0.000452783
-0.00164133
4.58477e-06
-1.81866e-05
-1.10841e-05
-1.84391e-05
-0.000490367
-3.58151e-06
3.38882e-05
1.80588e-05
-0.00160896
0.00010769
-0.00151972
6.76954e-05
0.000403744
0.000368931
0.000368431
-7.94616e-05
-7.88537e-05
-7.28066e-05
-7.31813e-05
0.000258023
0.000154423
0.000309707
0.000175477
0.000308851
0.000176802
-0.00114775
2.20968e-05
1.11107e-05
2.19894e-05
4.47713e-05
-1.83529e-05
-0.000121019
-5.56052e-05
0.00152259
0.00014256
-0.00153812
0.00015592
-0.00153457
0.000401955
0.000369392
0.000369544
-7.51358e-05
-7.64673e-05
-7.05025e-05
-6.97457e-05
0.000240347
2.1456e-05
1.08925e-05
2.15555e-05
4.74499e-05
8.32379e-06
-0.000114641
0.000193482
4.01005e-05
-9.96472e-05
-8.78334e-05
-9.85604e-05
0.000452729
0.000451427
0.000445644
0.000446959
-0.00162678
-0.00168818
-3.59602e-05
-2.36182e-05
-3.68345e-05
-2.28958e-05
6.21722e-05
1.10524e-05
-1.01397e-05
-1.69147e-05
-1.73257e-05
-8.64353e-06
-0.000478328
2.99104e-05
-2.45873e-05
-0.000179045
3.23216e-05
-0.001596
9.25887e-05
-1.79912e-05
-1.08125e-05
-1.81114e-05
-0.000487506
5.66412e-06
3.33141e-05
-0.00160268
0.000101929
5.7904e-05
-8.4617e-05
-9.33382e-05
-9.52663e-05
0.000446136
0.00044782
0.000442351
0.000440497
-0.00161772
-7.88871e-05
9.85489e-05
7.40482e-05
-4.98244e-05
-3.87719e-05
-5.82493e-05
0.000420155
0.000426113
0.000421431
0.000418058
-0.00159456
-1.61767e-05
-8.90354e-06
-1.59896e-05
-0.00047112
1.2543e-05
2.80546e-05
-0.000153684
3.99003e-05
-0.00158728
7.86048e-05
-0.0016276
1.80787e-05
-2.06006e-05
-6.90477e-06
-1.53162e-05
-1.11463e-05
2.88996e-05
-6.945e-05
-8.64909e-05
-8.15646e-05
0.000440186
0.000436608
0.000431269
0.00043475
-0.00160391
1.2161e-05
-3.22807e-06
-2.42642e-06
-6.07408e-06
-0.000435643
-1.52294e-05
9.17434e-06
3.73739e-05
-0.00158015
5.40937e-05
-0.000413033
2.32265e-05
0.000422248
-2.70723e-05
3.10295e-05
-5.94965e-07
7.27878e-06
-4.79948e-06
-3.16738e-05
-0.000427178
-7.50149e-06
3.17981e-05
-0.00150626
-4.82156e-05
-2.67388e-05
-4.44434e-05
-3.42165e-05
8.4773e-05
-0.0016433
4.02284e-05
-2.28812e-05
-9.16421e-06
-1.59239e-05
-1.44073e-05
2.02065e-05
9.61777e-06
-0.000436439
-5.18413e-06
1.72254e-05
-5.19236e-06
-7.3581e-06
-8.39012e-06
-0.00160752
4.14614e-05
-3.08054e-05
-2.22036e-05
-2.8484e-05
-2.28381e-05
5.9052e-05
-0.000255115
2.92881e-05
0.000284526
4.71258e-05
-2.40456e-05
-3.30595e-05
-3.34671e-05
-2.18529e-08
1.33738e-05
-1.34106e-05
5.86385e-08
1.33395e-06
2.91656e-05
-7.02524e-05
-2.45091e-05
-1.32238e-06
6.55862e-05
1.31291e-08
-1.09965e-05
-4.90588e-09
7.33777e-06
3.65066e-06
-9.13875e-07
2.92591e-05
-7.0452e-05
6.58503e-05
8.39051e-07
-2.45808e-05
4.56889e-08
1.3289e-05
-1.92875e-08
-1.33154e-05
-3.72886e-08
-2.07597e-05
2.07232e-05
7.38687e-08
-3.91122e-07
1.12061e-05
4.87693e-07
-0.000149343
-1.81076e-05
8.71793e-07
-0.000119497
2.36255e-05
0.000128449
-6.77747e-07
-3.27694e-05
-6.56979e-07
-0.000119816
2.37121e-05
-3.2875e-05
0.00012883
8.07932e-07
7.34243e-08
-2.06396e-05
-3.64576e-08
2.06026e-05
-2.07356e-05
1.26088e-09
2.0697e-05
1.1177e-05
-2.64916e-07
-0.000149515
-1.811e-05
-0.000119979
2.36991e-05
-3.29035e-05
-4.63019e-07
0.000128992
1.33535e-05
6.94935e-09
-1.33823e-05
-1.10202e-05
2.29278e-08
7.33798e-06
3.67251e-06
2.92656e-05
-7.03661e-05
6.57312e-05
-9.63525e-07
-2.45792e-05
0.00011655
7.68556e-08
4.78737e-06
3.28345e-08
-0.000114923
1.13538e-07
1.5111e-05
0.000103821
-6.17053e-08
-8.03497e-08
-0.000116164
1.59714e-06
0.000118016
1.69383e-07
-8.37083e-08
-4.41712e-06
1.17398e-07
-0.000118665
3.21508e-08
-4.53241e-06
-0.000119807
6.48627e-09
-0.000115052
4.45831e-07
1.71507e-06
-2.46275e-07
0.000116833
1.50834e-06
3.17159e-08
0.000118396
-4.59825e-06
-0.000120178
8.79548e-08
4.86261e-06
-0.000114532
1.78287e-07
7.46409e-07
1.50307e-05
-5.71245e-07
0.000102587
1.51271e-05
0.000103442
1.45398e-07
4.98928e-07
4.89093e-06
-3.09931e-07
-0.000113426
7.61078e-08
1.31934e-05
-1.32177e-05
-5.18115e-08
2.91491e-05
-7.03687e-05
-2.45136e-05
1.32969e-06
6.57394e-05
2.89581e-07
-1.09558e-05
-2.35453e-07
7.32233e-06
3.57945e-06
2.08566e-06
2.89895e-05
-7.01718e-05
6.54439e-05
-1.95427e-06