/*--------------------------------*- C++ -*----------------------------------*\
| =========                 |                                                 |
| \\      /  F ield         | OpenFOAM: The Open Source CFD Toolbox           |
|  \\    /   O peration     | Version:  2012                                  |
|   \\  /    A nd           | Website:  www.openfoam.com                      |
|    \\/     M anipulation  |                                                 |
\*---------------------------------------------------------------------------*/
FoamFile
{
    version     2.0;
    format      ascii;
    class       pointVectorField;
    location    "0.106/fluid";
    object      pointMotionU;
}
// * * * * * * * * * * * * * * * * * * * * * * * * * * * * * * * * * * * * * //

dimensions      [0 1 -1 0 0 0 0];


internalField   nonuniform List<vector> 
20255
(
(0 0 0)
(0 0 0)
(0 0 0)
(0 0 0)
(0 0 0)
(0 0 0)
(0 0 0)
(0 0 0)
(0 0 0)
(0 0 0)
(0 0 0)
(0 0 0)
(0 0 0)
(0 0 0)
(0 0 0)
(0 0 0)
(-8.63986e-06 1.32901e-05 -1.40772e-06)
(-1.0827e-05 2.87419e-05 -2.48735e-06)
(-1.16938e-05 4.33608e-05 -3.15907e-06)
(-1.57824e-05 5.70409e-05 -3.66222e-06)
(-2.44638e-05 6.89182e-05 -4.28331e-06)
(-3.6085e-05 7.89553e-05 -5.25016e-06)
(-4.87432e-05 8.49814e-05 -6.50824e-06)
(-6.17495e-05 8.40246e-05 -7.73991e-06)
(-7.3704e-05 7.41878e-05 -8.09805e-06)
(-7.78438e-05 5.63303e-05 -6.11536e-06)
(-6.54567e-05 3.65789e-05 -1.02204e-06)
(-3.5413e-05 1.97625e-05 6.34663e-06)
(-2.83475e-06 8.64034e-06 9.88907e-06)
(6.60643e-06 2.74961e-06 5.02377e-06)
(2.66549e-06 1.79655e-06 3.12507e-07)
(0 0 0)
(-2.01895e-05 2.36756e-05 -2.93462e-06)
(-2.7102e-05 5.12472e-05 -5.17949e-06)
(-3.08437e-05 7.70077e-05 -6.51952e-06)
(-4.01363e-05 0.000102208 -7.43475e-06)
(-5.71951e-05 0.000125588 -8.44184e-06)
(-8.01345e-05 0.000145194 -9.98972e-06)
(-0.000106815 0.000158609 -1.23297e-05)
(-0.000136129 0.000159299 -1.49952e-05)
(-0.000164991 0.000142494 -1.65174e-05)
(-0.000179295 0.000111397 -1.43334e-05)
(-0.000161871 7.53863e-05 -6.2239e-06)
(-9.97155e-05 4.2345e-05 9.6004e-06)
(-6.50383e-06 1.99617e-05 2.4014e-05)
(3.38061e-05 9.61766e-06 1.75696e-05)
(1.1842e-05 1.10103e-05 1.59053e-06)
(0 0 0)
(-3.48362e-05 2.84788e-05 -4.50644e-06)
(-5.01645e-05 6.09086e-05 -7.86649e-06)
(-5.83659e-05 9.2545e-05 -9.78945e-06)
(-7.29111e-05 0.000123836 -1.09494e-05)
(-9.76331e-05 0.000154582 -1.20978e-05)
(-0.000131061 0.000181485 -1.38405e-05)
(-0.000172211 0.000200849 -1.66652e-05)
(-0.000217384 0.000203484 -2.01682e-05)
(-0.00025972 0.000183986 -2.2812e-05)
(-0.000280585 0.000146367 -2.12976e-05)
(-0.000258238 0.000100251 -1.21027e-05)
(-0.000161407 5.53262e-05 9.72245e-06)
(-5.54875e-06 2.29703e-05 3.10084e-05)
(2.91543e-05 1.23844e-05 1.22731e-05)
(2.20419e-06 5.15222e-06 4.3453e-07)
(0 0 0)
(0 0 0)
(0 0 0)
(0 0 0)
(0 0 0)
(0 0 0)
(0 0 0)
(0 0 0)
(0 0 0)
(0 0 0)
(0 0 0)
(0 0 0)
(0 0 0)
(0 0 0)
(0 0 0)
(0 0 0)
(-1.32798e-05 8.9053e-06 -1.5676e-06)
(-2.03645e-05 1.99306e-05 -2.77387e-06)
(-2.43135e-05 3.22709e-05 -3.53418e-06)
(-2.96994e-05 4.60486e-05 -4.04851e-06)
(-3.88365e-05 6.03198e-05 -4.59456e-06)
(-5.24848e-05 7.27869e-05 -5.42224e-06)
(-7.07894e-05 8.09345e-05 -6.6005e-06)
(-9.29961e-05 8.13926e-05 -7.80561e-06)
(-0.000114498 7.2816e-05 -8.24827e-06)
(-0.000125704 5.6485e-05 -6.65973e-06)
(-0.000112939 3.79226e-05 -2.09528e-06)
(-7.21155e-05 2.16965e-05 4.45236e-06)
(-2.48423e-05 1.03691e-05 7.5529e-06)
(-1.62896e-06 3.77249e-06 4.04952e-06)
(7.96243e-07 1.95197e-06 3.95024e-07)
(0 0 0)
(-2.82823e-05 1.58598e-05 -3.19917e-06)
(-4.38591e-05 3.56018e-05 -5.66228e-06)
(-5.30947e-05 5.7525e-05 -7.18155e-06)
(-6.49221e-05 8.25407e-05 -8.19542e-06)
(-8.41758e-05 0.00010853 -9.15327e-06)
(-0.000112124 0.000132327 -1.05547e-05)
(-0.000149359 0.000148766 -1.26619e-05)
(-0.000195386 0.000151676 -1.5102e-05)
(-0.000242861 0.000138079 -1.64726e-05)
(-0.000273351 0.000110887 -1.4634e-05)
(-0.000259118 7.87838e-05 -7.37181e-06)
(-0.000186002 4.85232e-05 6.02286e-06)
(-6.80654e-05 2.63817e-05 1.89189e-05)
(5.43951e-06 1.4063e-05 1.5411e-05)
(1.03776e-05 1.39903e-05 2.39437e-06)
(0 0 0)
(-4.43187e-05 1.81875e-05 -4.69819e-06)
(-7.03725e-05 4.21367e-05 -8.40905e-06)
(-8.57981e-05 6.88666e-05 -1.05948e-05)
(-0.000104874 9.9277e-05 -1.1965e-05)
(-0.000133408 0.000131235 -1.31446e-05)
(-0.000174093 0.000162723 -1.47861e-05)
(-0.00022898 0.000185615 -1.73857e-05)
(-0.000296797 0.000191359 -2.06072e-05)
(-0.000361974 0.000176776 -2.25286e-05)
(-0.000402085 0.000145856 -2.06877e-05)
(-0.000389285 0.000106597 -1.23151e-05)
(-0.000282514 6.71402e-05 5.82591e-06)
(-8.91586e-05 3.47622e-05 2.56106e-05)
(1.69508e-05 1.65197e-05 1.6372e-05)
(9.39497e-06 1.75504e-05 1.16174e-06)
(0 0 0)
(0 0 0)
(0 0 0)
(0 0 0)
(0 0 0)
(0 0 0)
(0 0 0)
(0 0 0)
(0 0 0)
(0 0 0)
(0 0 0)
(0 0 0)
(0 0 0)
(0 0 0)
(0 0 0)
(0 0 0)
(0 0 0)
(-1.75699e-05 4.58756e-06 -1.35691e-06)
(-2.84884e-05 1.23118e-05 -2.42374e-06)
(-3.44109e-05 2.34102e-05 -3.09299e-06)
(-4.0938e-05 3.73155e-05 -3.50967e-06)
(-5.11139e-05 5.29787e-05 -3.91651e-06)
(-6.6322e-05 6.68693e-05 -4.47404e-06)
(-8.82127e-05 7.62635e-05 -5.35147e-06)
(-0.000115903 7.7919e-05 -6.31526e-06)
(-0.00014272 7.10815e-05 -6.73297e-06)
(-0.00015714 5.7317e-05 -5.692e-06)
(-0.000144824 4.07178e-05 -2.35148e-06)
(-0.000102814 2.53706e-05 2.44507e-06)
(-5.10427e-05 1.39035e-05 5.06298e-06)
(-1.89216e-05 7.05566e-06 3.34989e-06)
(-1.01292e-05 5.00881e-06 1.0528e-06)
(0 0 0)
(-3.55558e-05 8.15514e-06 -2.72605e-06)
(-5.79641e-05 2.15749e-05 -4.85393e-06)
(-7.13198e-05 4.11795e-05 -6.23714e-06)
(-8.5826e-05 6.54605e-05 -7.09244e-06)
(-0.00010749 9.28252e-05 -7.85759e-06)
(-0.000139418 0.000119604 -8.90327e-06)
(-0.000184438 0.000138975 -1.052e-05)
(-0.000241032 0.000144361 -1.23756e-05)
(-0.00029853 0.000134243 -1.34341e-05)
(-0.00033546 0.000111704 -1.20959e-05)
(-0.000323697 8.36909e-05 -6.65943e-06)
(-0.000248381 5.62414e-05 2.97696e-06)
(-0.000132725 3.44522e-05 1.21963e-05)
(-5.19678e-05 2.11878e-05 1.15704e-05)
(-3.21973e-05 1.78808e-05 4.59442e-06)
(0 0 0)
(-5.24558e-05 9.21628e-06 -3.94879e-06)
(-8.70383e-05 2.5233e-05 -7.11376e-06)
(-0.000109046 4.76702e-05 -9.07616e-06)
(-0.000133057 7.61163e-05 -1.02859e-05)
(-0.000165422 0.000108999 -1.12556e-05)
(-0.000211527 0.000143257 -1.25373e-05)
(-0.000277596 0.000169773 -1.46592e-05)
(-0.000360239 0.000179706 -1.71303e-05)
(-0.000442666 0.000170154 -1.84445e-05)
(-0.000492556 0.000146044 -1.66305e-05)
(-0.000480721 0.000114469 -9.90373e-06)
(-0.000378467 8.15162e-05 3.08867e-06)
(-0.000203561 5.2636e-05 1.76874e-05)
(-7.12496e-05 3.2099e-05 1.84758e-05)
(-4.29739e-05 2.76633e-05 7.30812e-06)
(0 0 0)
(0 0 0)
(0 0 0)
(0 0 0)
(0 0 0)
(0 0 0)
(0 0 0)
(0 0 0)
(0 0 0)
(0 0 0)
(0 0 0)
(0 0 0)
(0 0 0)
(0 0 0)
(0 0 0)
(0 0 0)
(0 0 0)
(-1.99127e-05 1.5993e-06 -7.55785e-07)
(-3.30576e-05 7.38016e-06 -1.37411e-06)
(-4.06767e-05 1.7325e-05 -1.76052e-06)
(-4.83151e-05 3.06486e-05 -1.99323e-06)
(-5.93481e-05 4.68115e-05 -2.20945e-06)
(-7.55251e-05 6.2425e-05 -2.51644e-06)
(-9.95142e-05 7.34503e-05 -3.0342e-06)
(-0.000129787 7.61922e-05 -3.60824e-06)
(-0.000158869 7.06458e-05 -3.90105e-06)
(-0.000173829 5.85502e-05 -3.34664e-06)
(-0.000162015 4.36203e-05 -1.47327e-06)
(-0.000124567 2.96861e-05 1.14486e-06)
(-7.96619e-05 1.90372e-05 2.74888e-06)
(-4.94598e-05 1.29364e-05 2.48936e-06)
(-3.90659e-05 1.14698e-05 1.66371e-06)
(0 0 0)
(-3.94134e-05 2.86405e-06 -1.50898e-06)
(-6.61807e-05 1.24643e-05 -2.73641e-06)
(-8.2589e-05 2.9439e-05 -3.53195e-06)
(-9.95359e-05 5.29162e-05 -4.01339e-06)
(-0.000122806 8.07694e-05 -4.42287e-06)
(-0.00015642 0.000109639 -5.00402e-06)
(-0.000205226 0.000131657 -5.95887e-06)
(-0.000267214 0.000139479 -7.06884e-06)
(-0.000329047 0.000131559 -7.66892e-06)
(-0.000365766 0.000112154 -6.9126e-06)
(-0.000353267 8.75966e-05 -3.79652e-06)
(-0.000285653 6.36092e-05 1.42644e-06)
(-0.000191507 4.35929e-05 6.04884e-06)
(-0.000124105 3.09308e-05 6.67079e-06)
(-0.000102553 2.65356e-05 4.88141e-06)
(0 0 0)
(-5.69787e-05 3.22178e-06 -2.21182e-06)
(-9.70785e-05 1.38869e-05 -4.01306e-06)
(-0.000123792 3.30191e-05 -5.18481e-06)
(-0.000150859 6.01589e-05 -5.91538e-06)
(-0.000185814 9.34562e-05 -6.47998e-06)
(-0.000234969 0.000128855 -7.18789e-06)
(-0.000305776 0.00015755 -8.36433e-06)
(-0.000395935 0.000170747 -9.82872e-06)
(-0.000486436 0.000165154 -1.05452e-05)
(-0.000542248 0.000145803 -9.45135e-06)
(-0.000530988 0.000120474 -5.53904e-06)
(-0.000442334 9.39175e-05 1.5931e-06)
(-0.000308702 6.95822e-05 9.1442e-06)
(-0.000204509 5.08275e-05 1.15785e-05)
(-0.000171455 4.1357e-05 8.90653e-06)
(0 0 0)
(0 0 0)
(0 0 0)
(0 0 0)
(0 0 0)
(0 0 0)
(0 0 0)
(0 0 0)
(0 0 0)
(0 0 0)
(0 0 0)
(0 0 0)
(0 0 0)
(0 0 0)
(0 0 0)
(0 0 0)
(0 0 0)
(-2.02873e-05 6.89507e-07 0)
(-3.40725e-05 5.7222e-06 0)
(-4.24641e-05 1.50669e-05 0)
(-5.06188e-05 2.77893e-05 0)
(-6.20966e-05 4.41771e-05 0)
(-7.89568e-05 6.03886e-05 0)
(-0.000103742 7.20003e-05 0)
(-0.000134855 7.53808e-05 0)
(-0.000164537 7.0212e-05 0)
(-0.000179101 5.90213e-05 0)
(-0.000168221 4.4924e-05 0)
(-0.000134466 3.18575e-05 0)
(-9.50047e-05 2.18319e-05 0)
(-6.80156e-05 1.61694e-05 0)
(-5.79405e-05 1.50558e-05 0)
(0 0 0)
(-3.99727e-05 1.30609e-06 0)
(-6.82159e-05 9.59061e-06 0)
(-8.62012e-05 2.54096e-05 0)
(-0.000104115 4.82497e-05 0)
(-0.000127532 7.56665e-05 0)
(-0.00016161 0.000104852 0)
(-0.000211107 0.000127724 0)
(-0.00027409 0.000136369 0)
(-0.000335933 0.00012942 0)
(-0.000371841 0.000111434 0)
(-0.000359346 8.86822e-05 0)
(-0.00029806 6.65473e-05 0)
(-0.000217194 4.78109e-05 0)
(-0.000159532 3.57727e-05 0)
(-0.000138614 3.16885e-05 0)
(0 0 0)
(-5.78083e-05 1.51458e-06 0)
(-9.95322e-05 1.02754e-05 0)
(-0.000128484 2.81462e-05 0)
(-0.000156785 5.44865e-05 0)
(-0.000192235 8.68081e-05 0)
(-0.000242893 0.000122937 0)
(-0.000313885 0.000151986 0)
(-0.00040546 0.000165943 0)
(-0.000496177 0.000161917 0)
(-0.000552518 0.000144786 0)
(-0.000543366 0.000122048 0)
(-0.000464254 9.83141e-05 0)
(-0.000351684 7.5962e-05 0)
(-0.000266118 5.8271e-05 0)
(-0.000232652 4.8841e-05 0)
(6.31168e-07 2.46111e-07 3.28354e-07)
(3.5179e-07 2.45279e-07 2.88112e-07)
(-9.60615e-07 6.45638e-07 3.32665e-07)
(0 0 0)
(7.72028e-06 2.49316e-06 4.94366e-06)
(2.35263e-06 1.7579e-06 3.09111e-07)
(3.01071e-05 8.42165e-06 1.16702e-05)
(2.24659e-06 2.94695e-06 1.0112e-06)
(0 0 0)
(1.74806e-06 9.67935e-07 1.57299e-06)
(0 0 0)
(8.68599e-08 3.50089e-08 6.74336e-09)
(4.3638e-06 1.69947e-06 1.96671e-06)
(3.23741e-06 3.10658e-06 4.56486e-06)
(2.17082e-06 1.77023e-06 3.24825e-07)
(6.904e-06 9.46149e-06 1.03982e-06)
(2.31701e-05 1.32572e-05 1.27189e-05)
(4.49996e-06 1.09531e-05 -2.52989e-07)
(0 0 0)
(-9.07788e-07 1.22337e-06 1.24828e-06)
(0 0 0)
(3.09878e-08 4.06494e-08 9.22695e-09)
(0 0 0)
(7.1654e-07 2.20037e-06 1.6854e-06)
(-8.68018e-06 4.95352e-06 3.54351e-06)
(-2.57723e-06 2.83289e-06 6.02448e-07)
(1.43433e-05 1.43502e-05 6.50411e-06)
(0 0 0)
(-7.67526e-06 2.80982e-06 1.25927e-06)
(-3.44369e-06 1.63684e-06 3.12513e-07)
(-1.21798e-05 5.32087e-06 1.97801e-06)
(2.18855e-06 9.26997e-07 1.57163e-06)
(4.36289e-06 1.58782e-06 1.93902e-06)
(5.47735e-07 2.36543e-07 3.10099e-07)
(7.44829e-06 5.63854e-06 1.34821e-06)
(6.58955e-07 1.02177e-06 1.40499e-06)
(7.0207e-08 3.25178e-08 7.65057e-09)
(3.10298e-06 1.83567e-06 1.81347e-06)
(-4.13913e-08 3.07109e-07 2.59758e-07)
(8.60314e-06 1.02177e-05 1.95558e-06)
(-3.27796e-06 1.70433e-06 1.15277e-06)
(-2.94223e-07 2.64677e-07 4.53509e-08)
(-3.76061e-06 3.18782e-06 1.68957e-06)
(-4.48202e-06 1.86061e-06 6.4572e-07)
(0 0 0)
(0 0 0)
(2.01144e-05 7.53005e-06 6.35772e-06)
(2.02489e-05 1.28907e-05 6.89689e-06)
(-1.98255e-06 1.09242e-05 1.51404e-06)
(8.97029e-10 -4.28355e-10 -5.75273e-11)
(2.58126e-06 1.03671e-05 1.79603e-06)
(7.67876e-06 -1.16867e-06 6.94911e-07)
(9.26828e-10 -4.81151e-10 -9.9316e-11)
(9.1365e-10 -5.90058e-10 -1.50263e-10)
(7.69217e-06 1.49879e-08 -4.2466e-07)
(1.50106e-05 1.0547e-05 6.762e-06)
(3.23113e-06 9.13358e-06 1.83591e-07)
(7.8595e-10 -4.11952e-10 -7.71046e-10)
(3.65429e-05 7.43966e-06 1.70906e-05)
(8.0029e-06 9.09606e-06 1.5845e-06)
(2.14232e-05 1.79594e-05 3.09869e-05)
(2.27468e-05 9.05707e-06 8.25672e-06)
(3.84945e-05 1.26659e-05 1.70683e-05)
(2.19135e-05 1.19175e-05 1.63265e-05)
(7.41456e-06 1.00929e-05 1.11126e-06)
(1.3801e-05 1.26651e-05 1.759e-06)
(3.70443e-05 1.42996e-05 2.65866e-05)
(-4.36245e-05 2.81904e-05 2.84945e-05)
(3.06689e-05 1.09228e-05 1.2159e-05)
(1.46201e-05 1.20941e-05 5.14497e-06)
(1.94327e-05 1.10661e-05 9.44264e-06)
(2.56481e-05 1.28616e-05 1.21767e-05)
(2.22051e-06 4.53529e-06 7.50283e-07)
(4.9663e-06 4.56765e-06 6.53055e-08)
(5.88696e-06 6.2958e-06 2.92457e-07)
(3.20441e-06 7.11792e-06 1.04968e-08)
(1.17489e-05 1.24239e-05 8.32539e-06)
(1.24451e-05 1.74959e-05 1.73964e-05)
(1.2236e-05 1.7757e-05 2.26909e-06)
(-1.33941e-05 2.29678e-05 2.47705e-05)
(-1.55335e-05 2.29222e-05 1.85152e-05)
(2.19724e-05 1.44584e-05 1.43828e-05)
(1.79356e-05 1.49838e-05 1.10964e-05)
(1.63012e-05 1.53718e-05 1.54803e-05)
(-1.55782e-06 2.24041e-05 4.04658e-06)
(7.52747e-06 1.48251e-05 1.88028e-07)
(1.13056e-05 1.50402e-05 3.32241e-06)
(6.52978e-06 1.65889e-05 7.81888e-07)
(-4.76519e-05 2.75061e-05 1.31329e-05)
(2.04454e-07 8.07408e-08 7.44633e-08)
(6.13383e-07 2.44218e-07 3.25505e-07)
(1.18039e-07 5.08905e-08 6.66242e-08)
(-4.39939e-06 4.22551e-06 -1.33072e-06)
(4.65698e-07 2.37487e-07 3.00043e-07)
(1.40264e-07 7.50587e-08 6.37118e-08)
(1.7848e-07 2.6425e-07 2.70504e-07)
(5.34107e-08 4.49133e-08 5.46883e-08)
(-4.10657e-06 7.44131e-06 -1.18106e-06)
(-3.56004e-07 4.01949e-07 2.68342e-07)
(-4.47209e-07 3.55252e-07 1.24444e-07)
(-2.52183e-07 1.68107e-07 8.48838e-08)
(1.50151e-05 8.09214e-06 4.93783e-06)
(2.03471e-05 6.84883e-06 8.79631e-06)
(5.25659e-06 1.3426e-06 6.74522e-07)
(9.19282e-08 4.44093e-08 5.96077e-08)
(0 0 0)
(0 0 0)
(8.61119e-08 3.60369e-08 7.55836e-09)
(1.91906e-07 7.54833e-08 6.78572e-08)
(8.02605e-08 3.44173e-08 7.23593e-09)
(7.4548e-06 8.11254e-06 1.28735e-06)
(-6.29862e-06 8.68886e-06 -1.78944e-06)
(5.84905e-06 9.53022e-06 1.02644e-06)
(1.44205e-05 1.20052e-05 6.25837e-06)
(1.66714e-05 1.13452e-05 1.03219e-05)
(5.95772e-06 8.37121e-06 1.56553e-07)
(2.39681e-06 8.76851e-06 -6.0182e-07)
(-1.61404e-08 5.46415e-08 4.84742e-08)
(0 0 0)
(0 0 0)
(5.18685e-08 3.48117e-08 8.55595e-09)
(2.68774e-08 9.61918e-08 6.10399e-08)
(-1.68709e-08 7.13863e-08 1.28898e-08)
(-2.09017e-08 1.73039e-08 1.196e-09)
(0 0 0)
(1.33515e-05 1.18278e-05 4.14682e-06)
(1.15826e-05 1.27865e-05 5.28837e-06)
(2.11407e-05 7.12503e-06 8.00511e-06)
(4.05951e-05 9.14888e-06 1.65026e-05)
(4.69439e-05 9.94299e-06 2.59816e-05)
(4.82252e-06 7.03932e-06 1.36713e-06)
(2.00441e-05 1.05237e-05 6.2779e-06)
(1.54622e-05 1.07672e-05 5.14282e-06)
(5.40058e-06 3.47277e-06 4.73896e-07)
(2.08318e-05 9.64616e-06 9.29723e-06)
(1.17846e-06 7.00184e-06 1.30719e-06)
(7.51948e-08 4.35241e-08 5.72076e-08)
(1.95284e-05 1.07965e-05 8.03231e-06)
(2.72687e-05 1.48539e-05 1.65221e-05)
(1.55358e-05 1.78509e-05 2.51517e-05)
(1.13965e-05 1.40295e-05 1.21281e-06)
(1.29385e-05 1.21634e-05 5.21748e-06)
(1.55323e-05 1.56346e-05 8.74435e-06)
(5.28205e-06 5.64039e-06 -7.80976e-08)
(1.81447e-05 1.29464e-05 8.49778e-06)
(9.27689e-06 1.1969e-05 1.52014e-06)
(1.63844e-05 1.11893e-05 9.35766e-06)
(1.91877e-05 1.27159e-05 1.27603e-05)
(2.83048e-08 1.14395e-05 1.56004e-06)
(-9.35333e-06 8.01797e-06 -2.28384e-06)
(3.00671e-06 9.83497e-06 3.00303e-06)
(6.06241e-06 6.34121e-06 -2.82986e-07)
(-7.46841e-08 7.32339e-08 5.13526e-08)
(-1.50864e-06 1.99569e-05 1.0804e-05)
(1.64017e-05 1.36206e-05 9.90233e-06)
(7.93617e-06 1.35006e-05 2.44429e-06)
(1.08916e-07 4.79777e-08 6.3839e-08)
(2.04712e-07 7.84485e-08 7.16667e-08)
(9.12323e-10 -5.19586e-10 -6.22467e-11)
(-4.72723e-06 7.26546e-06 -1.38119e-06)
(5.86671e-06 6.13656e-06 7.49826e-07)
(7.86337e-06 2.76103e-07 1.37828e-07)
(1.71761e-07 7.4592e-08 6.61751e-08)
(9.44725e-10 -4.97904e-10 -1.0474e-10)
(2.19304e-08 4.69613e-08 5.06327e-08)
(9.13099e-08 8.07935e-08 6.15699e-08)
(8.83541e-10 -6.87948e-10 -3.81382e-10)
(2.80958e-06 2.90101e-06 -8.10521e-07)
(6.75011e-06 9.25819e-06 1.97867e-06)
(2.60643e-06 1.30678e-05 -1.84446e-07)
(-8.342e-08 1.44258e-07 6.91351e-08)
(-4.7961e-08 3.64392e-08 1.17056e-08)
(3.43076e-06 2.16961e-06 3.32518e-06)
(1.22782e-05 4.33369e-06 5.16832e-06)
(-6.33775e-07 2.38e-06 2.94225e-06)
(2.84344e-07 1.87171e-07 2.72816e-07)
(1.01014e-05 5.54339e-06 4.94253e-06)
(-8.01516e-06 3.28711e-06 2.16645e-06)
(-3.41365e-07 2.83641e-07 2.23785e-07)
(-6.85483e-06 8.06187e-06 4.46132e-06)
(-1.12171e-05 3.65238e-06 8.9954e-07)
(4.24968e-07 1.93164e-07 2.95825e-07)
(1.23314e-06 5.49619e-07 3.85432e-07)
(1.09541e-06 5.37298e-07 3.66847e-07)
(3.84429e-08 2.03417e-07 2.38962e-07)
(6.26674e-07 5.76284e-07 3.45884e-07)
(-3.8145e-07 8.48851e-07 3.73118e-07)
(-5.67629e-07 3.05109e-07 8.96421e-08)
(2.38761e-09 4.14464e-10 5.73268e-10)
(5.94263e-09 1.30478e-09 1.22086e-09)
(5.84839e-09 1.43295e-09 1.2639e-09)
(2.80071e-09 6.10362e-10 7.15776e-10)
(2.20997e-09 3.5902e-10 5.42646e-10)
(5.60046e-09 1.15832e-09 1.17482e-09)
(5.01571e-09 1.14343e-09 1.1417e-09)
(2.03882e-09 3.83647e-10 5.02461e-10)
(1.34717e-09 3.56463e-10 3.29886e-10)
(2.84716e-09 4.89111e-10 9.60908e-10)
(3.56358e-09 1.34485e-09 1.09075e-09)
(1.7444e-09 3.07098e-10 4.19201e-10)
(8.4254e-10 4.31139e-10 1.76599e-10)
(-1.70263e-11 2.10038e-09 6.50289e-10)
(-9.9165e-09 1.26647e-08 2.31267e-09)
(-1.51275e-09 2.17953e-09 5.65944e-10)
(0 0 0)
(4.62065e-06 8.06303e-06 9.84211e-06)
(0 0 0)
(-9.51299e-07 4.09869e-06 4.43706e-06)
(0 0 0)
(0 0 0)
(0 0 0)
(7.03757e-07 4.2323e-07 6.67395e-07)
(0 0 0)
(5.11551e-06 5.01236e-06 8.11795e-06)
(-1.31332e-05 9.28899e-06 8.84358e-06)
(1.66586e-05 5.60562e-06 1.08999e-05)
(8.07961e-06 6.27584e-06 1.07116e-06)
(2.58048e-06 1.80012e-06 3.10201e-07)
(8.81306e-07 5.28677e-07 9.65618e-08)
(3.32737e-06 1.5884e-06 9.80742e-07)
(2.53737e-06 1.77386e-06 3.15995e-07)
(0 0 0)
(-1.07513e-05 4.70891e-06 3.38652e-06)
(0 0 0)
(0 0 0)
(0 0 0)
(-4.20654e-07 5.14821e-07 5.2313e-07)
(0 0 0)
(-9.49033e-06 6.50441e-06 6.37127e-06)
(-3.75756e-05 1.18562e-05 6.17102e-06)
(-1.22335e-06 8.17956e-06 8.98167e-06)
(3.72142e-06 6.88001e-06 1.34857e-06)
(1.6196e-06 1.81213e-06 3.48796e-07)
(2.28959e-07 5.93118e-07 1.25005e-07)
(9.04253e-07 1.89174e-06 9.17408e-07)
(-5.32567e-07 2.26347e-06 4.72887e-07)
(-1.9689e-05 1.70465e-05 1.3529e-05)
(-5.30633e-06 1.52853e-05 3.43458e-06)
(0 0 0)
(-2.25315e-05 6.34592e-06 2.30803e-06)
(0 0 0)
(0 0 0)
(0 0 0)
(0 0 0)
(-1.49395e-06 7.07572e-07 1.29823e-07)
(-3.15518e-05 9.9036e-06 4.57623e-06)
(-3.44186e-05 1.32286e-05 6.68657e-06)
(-3.32125e-05 9.89952e-06 3.06327e-06)
(-2.05132e-05 1.06439e-05 2.4813e-06)
(-2.322e-05 8.13512e-06 1.53545e-06)
(-3.61656e-05 1.80571e-05 8.01533e-06)
(0 0 0)
(-2.28448e-05 6.07643e-06 1.12871e-06)
(-1.7904e-05 5.44162e-06 7.32096e-07)
(-4.18526e-05 1.15476e-05 2.03648e-06)
(1.3524e-06 5.24497e-07 8.44949e-07)
(1.96774e-06 7.28625e-07 9.34059e-07)
(5.98793e-07 5.6579e-07 7.56063e-07)
(1.26654e-06 8.04236e-07 8.56571e-07)
(-1.88648e-06 1.11075e-06 6.92429e-07)
(-2.19917e-06 1.63133e-06 8.53982e-07)
(-2.2779e-06 1.1512e-06 4.77395e-07)
(8.98811e-07 4.12028e-07 6.67977e-07)
(0 0 0)
(8.05521e-07 5.36327e-07 9.83949e-08)
(3.10289e-06 1.52614e-06 9.67381e-07)
(0 0 0)
(2.73717e-08 1.31136e-08 1.70077e-08)
(0 0 0)
(0 0 0)
(2.05664e-06 9.55977e-07 1.60331e-06)
(1.15148e-06 5.36679e-07 8.3526e-07)
(1.27003e-06 9.83516e-07 1.49925e-06)
(2.36883e-07 4.33247e-07 5.90055e-07)
(0 0 0)
(1.95074e-09 -4.08758e-10 1.34969e-11)
(8.66655e-08 3.5971e-08 7.01241e-09)
(1.11553e-07 4.06901e-08 2.20378e-08)
(8.35831e-08 3.53639e-08 6.98976e-09)
(4.49518e-06 1.65467e-06 1.9808e-06)
(1.88329e-06 7.55962e-07 9.31308e-07)
(3.90156e-06 1.75032e-06 1.90216e-06)
(7.00953e-07 5.11705e-07 1.01196e-07)
(2.59512e-06 1.63504e-06 9.271e-07)
(0 0 0)
(-3.297e-09 1.55064e-08 1.34879e-08)
(0 0 0)
(0 0 0)
(-6.04477e-08 1.09865e-06 1.32128e-06)
(-2.89961e-07 6.9277e-07 6.75746e-07)
(-1.94748e-06 1.40849e-06 1.17831e-06)
(-1.44543e-06 7.36408e-07 4.93635e-07)
(0 0 0)
(1.19743e-09 -1.16276e-09 -7.14226e-10)
(4.23134e-08 3.65111e-08 8.85642e-09)
(3.34218e-08 5.00633e-08 2.2248e-08)
(1.22406e-08 5.17805e-08 1.0332e-08)
(-6.96399e-09 5.66444e-09 -2.63425e-10)
(0 0 0)
(2.06757e-06 1.9711e-06 1.73825e-06)
(1.1932e-07 9.88741e-07 7.90389e-07)
(-1.17134e-06 2.58198e-06 1.65682e-06)
(-1.23893e-06 1.18662e-06 2.38882e-07)
(-2.81781e-06 2.81501e-06 1.05198e-06)
(-1.99857e-06 8.20884e-07 2.7905e-07)
(0 0 0)
(-1.39953e-06 8.34467e-07 1.57016e-07)
(-3.71998e-06 1.65007e-06 4.47364e-07)
(8.20837e-08 3.67553e-08 7.98709e-09)
(8.76376e-08 3.95391e-08 2.15982e-08)
(7.55953e-08 3.35737e-08 7.50911e-09)
(1.81679e-09 -5.80374e-10 -2.46039e-10)
(6.04721e-08 3.44611e-08 8.1117e-09)
(-2.85074e-07 2.51168e-07 6.39506e-08)
(-7.9882e-08 1.19453e-07 1.98553e-08)
(-8.04784e-08 7.24257e-08 1.03112e-08)
(0 0 0)
(1.61529e-08 1.29245e-08 1.53428e-08)
(0 0 0)
(0 0 0)
(0 0 0)
(-8.54223e-08 5.77402e-08 2.82877e-08)
(0 0 0)
(0 0 0)
(-3.54395e-06 1.13036e-05 8.60551e-07)
(-1.69422e-05 1.1875e-05 -2.39165e-06)
(-3.66809e-06 1.01279e-05 1.28495e-06)
(8.91786e-10 -4.0617e-10 -5.53879e-11)
(1.70158e-08 1.0521e-08 1.12845e-08)
(3.20947e-08 1.29783e-08 1.2771e-08)
(9.04819e-10 -4.63967e-10 -6.04662e-11)
(-2.26856e-07 8.81356e-06 9.92372e-07)
(3.25778e-07 1.13701e-05 1.35171e-06)
(-1.02106e-05 1.15585e-05 -1.73137e-06)
(7.8024e-06 -2.18661e-06 9.71575e-07)
(4.72193e-06 1.99229e-07 2.62529e-07)
(8.17726e-06 2.04645e-06 6.52829e-07)
(7.99806e-06 -1.72937e-07 4.82542e-07)
(1.0604e-08 9.2955e-09 9.92053e-09)
(9.17263e-10 -5.41506e-10 -7.06506e-11)
(2.55125e-08 1.18765e-08 1.15921e-08)
(9.38115e-10 -4.77621e-10 -1.18318e-10)
(9.5333e-10 -5.55258e-10 -1.05378e-10)
(1.36209e-09 9.87374e-09 9.07403e-09)
(1.20946e-08 1.27495e-08 1.06838e-08)
(8.75774e-10 -6.17215e-10 -2.57355e-10)
(3.45111e-06 1.54271e-06 -8.13159e-07)
(8.5724e-06 2.83823e-06 -4.66242e-07)
(8.19441e-06 4.35896e-07 -9.51435e-08)
(7.44928e-06 5.54031e-07 -5.64888e-07)
(9.46789e-06 9.20019e-06 4.4428e-06)
(1.01813e-05 9.16721e-06 3.79077e-06)
(1.35943e-06 6.31923e-06 -5.75643e-07)
(4.10977e-06 8.37642e-06 5.27044e-07)
(2.28433e-06 1.01294e-05 -1.7828e-07)
(-1.67394e-08 1.56195e-08 1.06998e-08)
(8.75645e-10 -5.95553e-10 -5.70098e-10)
(-1.70315e-08 2.41891e-08 1.22117e-08)
(7.23336e-10 -1.62322e-10 -1.02108e-09)
(6.16508e-06 6.50405e-06 -2.78714e-09)
(5.93466e-06 6.63611e-06 4.95967e-07)
(8.3824e-06 2.99514e-06 5.17293e-08)
(1.89963e-07 7.32149e-08 6.58868e-08)
(1.04474e-07 4.53605e-08 5.90027e-08)
(-1.05868e-05 8.21546e-06 -2.06648e-06)
(-5.17801e-06 5.61948e-06 -1.4572e-06)
(1.4272e-07 6.63288e-08 5.67708e-08)
(2.02031e-08 1.18669e-08 1.10939e-08)
(1.05244e-07 6.87757e-08 5.44768e-08)
(5.68636e-08 3.80361e-08 4.82213e-08)
(7.05196e-09 9.61304e-09 9.658e-09)
(3.29993e-08 3.90219e-08 4.49849e-08)
(-9.66835e-06 7.41122e-06 -2.27877e-06)
(-8.18302e-06 9.61983e-06 -5.39938e-07)
(9.48136e-07 3.46995e-06 -9.28659e-07)
(2.66805e-06 7.4341e-06 3.47346e-07)
(-1.71566e-07 1.88658e-07 7.46641e-08)
(-1.62896e-07 1.27409e-07 4.32757e-08)
(-1.11651e-07 8.8853e-08 5.23147e-08)
(-1.11179e-07 7.98137e-08 3.41481e-08)
(5.92189e-06 5.44063e-06 9.75031e-07)
(7.2184e-08 3.7789e-08 5.00244e-08)
(8.52834e-08 3.91093e-08 5.21283e-08)
(1.3526e-08 9.50475e-09 1.02801e-08)
(3.23422e-08 1.39495e-08 1.79113e-08)
(0 0 0)
(2.22351e-08 1.23943e-08 1.60657e-08)
(0 0 0)
(1.12967e-07 4.16382e-08 2.33823e-08)
(2.052e-09 -2.27747e-10 4.98328e-11)
(1.77738e-07 6.83678e-08 6.01995e-08)
(2.92894e-08 1.20574e-08 1.18984e-08)
(1.6295e-07 6.71219e-08 5.82167e-08)
(1.76409e-09 -1.80624e-10 8.60365e-11)
(1.02429e-07 4.02459e-08 2.21121e-08)
(-1.36457e-05 1.26408e-05 -2.12711e-06)
(-8.7166e-06 8.11944e-06 -2.21119e-06)
(-5.50141e-06 8.03353e-06 -1.56832e-06)
(4.18842e-06 1.61313e-06 -2.74702e-07)
(5.55922e-06 6.69853e-06 -5.14131e-07)
(3.16772e-06 5.25952e-06 -8.07107e-07)
(1.54412e-06 1.13328e-05 -4.87216e-07)
(-3.4789e-08 5.24126e-08 4.1637e-08)
(4.07883e-09 4.28792e-08 4.20773e-08)
(-5.25817e-09 1.13464e-08 9.01218e-09)
(7.26095e-09 1.30438e-08 1.39887e-08)
(0 0 0)
(-1.98801e-08 2.01515e-08 1.39627e-08)
(0 0 0)
(6.3538e-08 4.20709e-08 2.18854e-08)
(1.38035e-09 -5.27737e-10 2.21142e-10)
(5.77853e-08 7.65881e-08 5.30221e-08)
(1.90479e-09 1.50954e-08 1.0427e-08)
(-1.44517e-08 1.00832e-07 5.48629e-08)
(2.52379e-10 1.39706e-09 -8.35432e-10)
(-2.81929e-08 8.4118e-08 2.76669e-08)
(-2.59988e-08 2.0272e-08 3.65937e-09)
(-1.31054e-08 9.88004e-09 2.2875e-09)
(2.30255e-06 3.91918e-06 4.42636e-06)
(8.66142e-06 4.56439e-06 8.00808e-06)
(1.82e-06 2.23348e-06 3.23147e-06)
(8.37653e-07 4.22791e-07 6.81241e-07)
(4.47556e-07 1.91838e-07 2.93156e-07)
(1.87975e-05 4.71024e-06 1.06374e-05)
(6.497e-06 5.76316e-06 1.09125e-06)
(1.24625e-05 4.9539e-06 5.16379e-06)
(3.31317e-06 1.57447e-06 9.86053e-07)
(-5.59438e-06 4.27796e-06 3.9373e-06)
(4.99645e-07 4.23278e-07 6.33822e-07)
(-1.35394e-06 5.57135e-06 7.33668e-06)
(-4.0367e-06 2.69284e-06 2.50248e-06)
(-6.82953e-08 4.62804e-07 5.5291e-07)
(3.64235e-07 1.87357e-07 2.84904e-07)
(9.15699e-07 5.44348e-07 8.00621e-07)
(1.7171e-07 1.90065e-07 2.55032e-07)
(2.472e-08 1.25854e-08 1.65146e-08)
(1.92366e-08 1.24349e-08 1.56385e-08)
(9.16278e-06 6.79892e-06 1.00119e-05)
(7.30669e-06 6.4533e-06 1.1225e-06)
(3.70439e-06 6.45913e-06 4.61017e-06)
(3.09218e-06 1.59906e-06 9.56115e-07)
(1.89845e-06 1.71499e-06 9.11167e-07)
(-1.62439e-05 5.33994e-06 2.7646e-06)
(-8.55231e-07 5.95536e-07 4.96569e-07)
(-1.95051e-05 7.8544e-06 5.33031e-06)
(-1.35012e-05 4.30014e-06 1.91797e-06)
(-1.23372e-07 2.29843e-07 2.2643e-07)
(-9.31766e-07 8.36248e-07 6.57776e-07)
(-7.26028e-07 4.15905e-07 2.55903e-07)
(-1.05105e-08 1.68949e-08 1.33431e-08)
(-3.81187e-08 3.01589e-08 1.75241e-08)
(-1.56784e-05 1.02257e-05 7.65869e-06)
(-5.42705e-06 8.11552e-06 1.82694e-06)
(-7.23409e-06 1.46213e-05 8.28478e-06)
(-2.36281e-05 1.08971e-05 4.39035e-06)
(-6.06136e-07 2.23198e-06 9.553e-07)
(-1.46673e-05 4.39721e-06 1.30097e-06)
(-9.89526e-06 3.52544e-06 6.10339e-07)
(-2.57017e-05 8.3366e-06 2.19771e-06)
(-1.9226e-05 5.4345e-06 9.04369e-07)
(-1.63134e-06 7.16478e-07 1.89293e-07)
(1.17632e-06 5.46903e-07 3.82907e-07)
(1.3067e-06 5.35884e-07 8.57009e-07)
(2.90857e-08 1.30414e-08 1.71098e-08)
(3.55704e-08 1.51883e-08 1.92636e-08)
(2.00503e-06 7.49051e-07 9.51589e-07)
(8.69212e-07 5.40824e-07 9.73931e-08)
(1.20131e-06 5.43792e-07 3.79052e-07)
(1.12909e-07 4.12392e-08 2.27042e-08)
(1.12784e-07 4.28784e-08 2.48869e-08)
(8.34732e-06 2.81308e-06 3.57049e-07)
(1.63384e-06 7.71324e-07 8.96402e-07)
(8.97242e-07 5.48506e-07 3.54696e-07)
(8.18878e-07 5.20972e-07 9.85215e-08)
(1.07223e-07 4.08842e-08 2.22605e-08)
(9.59896e-08 3.98194e-08 2.2108e-08)
(2.01261e-07 6.10411e-07 7.11106e-07)
(2.28973e-09 1.38913e-08 1.35892e-08)
(1.14585e-08 1.2566e-08 1.44504e-08)
(7.79201e-07 8.66534e-07 8.18263e-07)
(5.04909e-07 5.32116e-07 1.09591e-07)
(2.32387e-07 6.63265e-07 3.49245e-07)
(5.02621e-08 4.4569e-08 2.19991e-08)
(7.5304e-08 4.11863e-08 2.19648e-08)
(8.74489e-06 3.16337e-06 -2.03961e-07)
(-8.07581e-07 1.21368e-06 7.88476e-07)
(-1.47298e-06 1.26679e-06 4.65021e-07)
(-2.73783e-07 7.71272e-07 1.57488e-07)
(8.72287e-09 6.23087e-08 2.39077e-08)
(-1.02386e-07 1.3536e-07 3.79933e-08)
(-8.88892e-07 4.37358e-07 1.7773e-07)
(-1.61217e-06 8.81173e-07 2.70982e-07)
(-4.75208e-07 2.77901e-07 4.87771e-08)
(-8.09178e-09 6.31142e-09 3.31365e-10)
(-9.94935e-08 8.39672e-08 1.98089e-08)
(-3.44539e-08 2.48593e-08 1.01759e-08)
(1.82056e-09 -5.20144e-10 -7.07457e-12)
(1.99048e-09 -1.23695e-09 1.92649e-11)
(-1.72453e-05 1.10647e-05 -2.22678e-06)
(-1.68263e-05 1.24357e-05 -2.54447e-06)
(7.3646e-10 7.52568e-10 -7.34819e-10)
(-2.61175e-09 4.166e-09 -6.82785e-10)
(3.49585e-08 1.41486e-08 1.39225e-08)
(1.98107e-08 1.15539e-08 1.2465e-08)
(1.47936e-08 9.74023e-09 1.05679e-08)
(2.47005e-09 4.2314e-10 5.78294e-10)
(2.22037e-09 3.63125e-10 5.27549e-10)
(5.83386e-09 1.37198e-09 1.23405e-09)
(3.06038e-08 1.24717e-08 1.2319e-08)
(1.96187e-09 -2.9399e-10 2.43311e-11)
(5.68016e-09 1.20597e-09 1.15828e-09)
(1.9121e-09 -2.03087e-10 5.27923e-11)
(-1.15986e-05 1.00419e-05 -2.11796e-06)
(-1.21843e-05 1.25164e-05 -1.96143e-06)
(4.57655e-06 -1.22096e-06 4.35613e-07)
(8.19597e-06 1.23858e-06 9.0147e-07)
(4.65499e-06 1.0926e-06 6.07684e-08)
(2.33369e-08 1.19211e-08 1.14807e-08)
(9.13022e-09 9.47857e-09 9.87759e-09)
(1.19551e-08 9.29833e-09 1.0062e-08)
(2.07844e-09 3.15114e-10 4.9306e-10)
(2.73708e-08 1.20262e-08 1.18225e-08)
(5.18001e-09 1.168e-09 1.14395e-09)
(4.18392e-09 1.28527e-09 1.0081e-09)
(1.8705e-09 3.45382e-10 4.43149e-10)
(1.62736e-08 1.22817e-08 1.09548e-08)
(4.26209e-09 9.64892e-09 9.37291e-09)
(-1.76529e-09 1.04475e-08 8.94696e-09)
(1.5305e-09 2.56167e-10 3.4132e-10)
(1.10312e-09 3.7393e-10 2.48398e-10)
(3.23953e-09 8.22276e-10 1.10126e-09)
(7.44371e-09 1.3715e-08 1.05736e-08)
(1.66273e-09 -1.48119e-09 -2.54893e-10)
(1.6665e-09 1.30481e-09 6.75169e-10)
(1.25079e-09 -8.03412e-11 -6.14108e-11)
(3.0424e-06 1.55043e-06 -9.0228e-07)
(3.8808e-06 1.66505e-06 -5.37738e-07)
(8.08132e-06 3.37329e-06 -6.73269e-07)
(3.25915e-06 8.28116e-06 1.78054e-06)
(2.20256e-06 6.29976e-06 -3.0068e-07)
(1.29401e-06 8.08362e-06 -5.57685e-07)
(-4.44624e-08 4.47111e-08 1.8097e-08)
(-3.27212e-08 2.72489e-08 1.51674e-08)
(-1.00116e-08 1.2623e-08 9.38864e-09)
(4.26573e-10 5.99645e-10 6.16916e-12)
(-5.86813e-09 1.80963e-08 1.0846e-08)
(-2.21872e-09 3.53697e-09 6.72649e-10)
(0 0 0)
(0 0 0)
(0 0 0)
(0 0 0)
(0 0 0)
(0 0 0)
(0 0 0)
(0 0 0)
(0 0 0)
(0 0 0)
(0 0 0)
(0 0 0)
(0 0 0)
(0 0 0)
(0 0 0)
(0 0 0)
(0 0 0)
(-1.47665e-06 6.68841e-07 3.28556e-07)
(-3.48167e-06 2.00534e-06 6.40235e-07)
(1.21803e-07 5.22079e-08 5.9709e-08)
(1.03077e-07 4.54829e-08 5.29807e-08)
(7.37207e-08 4.34222e-08 4.91428e-08)
(8.91642e-08 4.3506e-08 5.06254e-08)
(4.72945e-08 4.47307e-08 4.62581e-08)
(1.37597e-08 4.96107e-08 4.39163e-08)
(-1.37652e-07 1.19441e-07 6.02791e-08)
(1.14059e-10 1.40849e-10 -5.93499e-10)
(-3.33348e-08 6.30145e-08 4.43187e-08)
(-7.87497e-08 4.91483e-08 1.08441e-08)
(-3.86704e-07 2.53955e-07 6.12999e-08)
(-1.40391e-07 8.16428e-08 3.07995e-08)