/*--------------------------------*- C++ -*----------------------------------*\
| =========                 |                                                 |
| \\      /  F ield         | OpenFOAM: The Open Source CFD Toolbox           |
|  \\    /   O peration     | Version:  2012                                  |
|   \\  /    A nd           | Website:  www.openfoam.com                      |
|    \\/     M anipulation  |                                                 |
\*---------------------------------------------------------------------------*/
FoamFile
{
    version     2.0;
    format      ascii;
    class       volVectorField;
    location    "0.106/fluid";
    object      U;
}
// * * * * * * * * * * * * * * * * * * * * * * * * * * * * * * * * * * * * * //

dimensions      [0 1 -1 0 0 0 0];


internalField   nonuniform List<vector> 
16422
(
(1.19994 2.32711e-05 7.41741e-06)
(1.19969 6.8396e-05 0.000100352)
(1.19934 4.11278e-05 0.000141543)
(1.19935 3.79699e-05 0.000187448)
(1.19919 3.79888e-05 0.000271252)
(1.19895 4.09336e-05 0.000410323)
(1.19861 5.30874e-05 0.000638974)
(1.19812 7.64134e-05 0.00101135)
(1.19736 0.000119583 0.00161503)
(1.19611 0.000216383 0.0026018)
(1.19379 0.000491413 0.00422493)
(1.18851 0.00142899 0.00689689)
(1.17298 0.00527303 0.0112859)
(1.11279 0.0227378 0.0180358)
(0.836522 0.0844755 0.0208898)
(1.19996 6.05728e-07 7.52163e-06)
(1.19992 3.40195e-05 0.000101547)
(1.19972 6.66442e-05 0.000140071)
(1.19984 9.76839e-05 0.000184503)
(1.19978 0.000144853 0.000265149)
(1.19963 0.000215201 0.000400052)
(1.19941 0.000325124 0.000619922)
(1.19907 0.000501855 0.000973927)
(1.19854 0.000797376 0.00154306)
(1.19773 0.0013181 0.0024544)
(1.19648 0.00230402 0.00390723)
(1.19454 0.00439619 0.00616054)
(1.19181 0.00949396 0.00937339)
(1.19164 0.0238193 0.0127751)
(1.22207 0.0581586 0.0117643)
(1.19996 3.47365e-06 7.47235e-06)
(1.19992 6.56078e-05 0.000100736)
(1.19973 0.000116449 0.000136511)
(1.19987 0.000166031 0.000177265)
(1.19985 0.000241796 0.00025216)
(1.19975 0.000356284 0.000376193)
(1.19961 0.000533707 0.00057575)
(1.1994 0.000814324 0.000891535)
(1.19909 0.00126646 0.00138903)
(1.19867 0.00199877 0.00216069)
(1.1982 0.00321603 0.00334052)
(1.19797 0.00524498 0.00506467)
(1.19915 0.00839406 0.00728927)
(1.20576 0.0116074 0.00914126)
(1.22639 0.00927046 0.00659708)
(1.19996 4.24133e-06 7.37366e-06)
(1.19992 7.85929e-05 9.84279e-05)
(1.19975 0.000137089 0.0001318)
(1.19992 0.000193971 0.000167322)
(1.19994 0.000283138 0.000234283)
(1.19992 0.000417154 0.000343683)
(1.19987 0.000621537 0.000515941)
(1.19981 0.000938795 0.000783371)
(1.19974 0.00142339 0.00119315)
(1.19969 0.00215418 0.00180441)
(1.19974 0.00323019 0.00270918)
(1.20007 0.00465976 0.00402716)
(1.20083 0.00594414 0.0059474)
(1.20106 0.00370113 0.00921266)
(1.19429 -0.0384726 0.0164017)
(1.19994 2.38698e-05 6.07897e-06)
(1.19969 6.98753e-05 9.17591e-05)
(1.19936 4.17182e-05 0.000135134)
(1.19941 3.77331e-05 0.000180497)
(1.1993 3.72466e-05 0.000262532)
(1.19913 4.0245e-05 0.000397138)
(1.19891 4.91373e-05 0.000617895)
(1.19862 6.67213e-05 0.000974712)
(1.19819 0.000100622 0.00155074)
(1.19751 0.000169964 0.00249236)
(1.19623 0.00036119 0.00408071)
(1.19312 0.00101326 0.00693568)
(1.18329 0.00367855 0.0129813)
(1.14217 0.0161756 0.0307056)
(0.912178 0.0619356 0.103906)
(1.19997 5.80828e-07 6.50761e-06)
(1.19993 3.24691e-05 9.22651e-05)
(1.19976 6.44455e-05 0.000134836)
(1.19991 9.2362e-05 0.000177558)
(1.1999 0.000134364 0.000256867)
(1.19982 0.000196511 0.000387665)
(1.1997 0.00029158 0.000597852)
(1.19954 0.000439401 0.000937119)
(1.1993 0.000679472 0.00147893)
(1.19895 0.00108614 0.00234462)
(1.19843 0.00182887 0.00373865)
(1.19762 0.00334942 0.00601437)
(1.19648 0.00690947 0.00983288)
(1.19711 0.0164866 0.0162096)
(1.2182 0.039503 0.022697)
(1.19996 3.41635e-06 6.50952e-06)
(1.19993 6.30708e-05 9.17602e-05)
(1.19976 0.000112477 0.000132743)
(1.19993 0.000157287 0.000171271)
(1.19995 0.000224903 0.000242759)
(1.19992 0.000326355 0.000363229)
(1.19988 0.000479885 0.000554819)
(1.19982 0.000715166 0.000857303)
(1.19975 0.00108248 0.00132761)
(1.19969 0.00165713 0.00205307)
(1.19972 0.00258324 0.00315679)
(1.20013 0.00409564 0.00477613)
(1.20176 0.0064832 0.00696088)
(1.20714 0.0094419 0.00910498)
(1.22065 0.00938641 0.00776045)
(1.19996 4.12885e-06 6.41918e-06)
(1.19993 7.46958e-05 8.92208e-05)
(1.19978 0.000132901 0.000128859)
(1.19998 0.000183126 0.000162024)
(1.20004 0.000263882 0.000224775)
(1.20007 0.000382106 0.000330386)
(1.2001 0.0005586 0.000497386)
(1.20016 0.000824242 0.000751798)
(1.20027 0.00122091 0.00113766)
(1.20048 0.00179651 0.0017089)
(1.2009 0.00260995 0.00253829)
(1.20174 0.00366733 0.00371158)
(1.20341 0.00469997 0.00537248)
(1.20686 0.0045116 0.00790979)
(1.21663 0.000565101 0.0111396)
(1.19994 2.42515e-05 3.15052e-06)
(1.19969 7.1194e-05 6.2601e-05)
(1.19939 4.24298e-05 0.000100384)
(1.19946 3.7774e-05 0.000138088)
(1.19939 3.68179e-05 0.000202878)
(1.19928 3.93183e-05 0.000307767)
(1.19917 4.59122e-05 0.000476625)
(1.19905 5.86649e-05 0.000750444)
(1.19891 8.30385e-05 0.00119158)
(1.19873 0.000128297 0.00191745)
(1.19843 0.000235286 0.00315708)
(1.1977 0.000549385 0.00543208)
(1.19551 0.00158347 0.0102144)
(1.19031 0.00480946 0.022372)
(1.20012 0.00956107 0.0506548)
(1.19997 5.94608e-07 3.51127e-06)
(1.19994 3.09966e-05 6.20449e-05)
(1.19979 6.35729e-05 0.000100199)
(1.19997 8.84816e-05 0.000137349)
(1.2 0.00012476 0.000198233)
(1.19998 0.000179905 0.000299121)
(1.19996 0.000261508 0.000461232)
(1.19995 0.000383495 0.000720368)
(1.19995 0.000574199 0.00113453)
(1.2 0.000876007 0.00179897)
(1.20015 0.00138029 0.00287615)
(1.20051 0.00229512 0.004659)
(1.20152 0.00406497 0.00767044)
(1.20515 0.00742189 0.0124339)
(1.21875 0.0103639 0.0154337)
(1.19996 3.34998e-06 3.64585e-06)
(1.19994 6.06265e-05 6.1236e-05)
(1.19979 0.000110412 9.87522e-05)
(1.2 0.000150221 0.000133423)
(1.20005 0.000209536 0.000187803)
(1.20007 0.000299072 0.000279533)
(1.20011 0.000431755 0.000426332)
(1.20018 0.000628232 0.000657665)
(1.2003 0.000921153 0.00101658)
(1.20054 0.0013537 0.00156758)
(1.20101 0.00200305 0.00240006)
(1.20197 0.00297322 0.00361187)
(1.204 0.00432935 0.0051879)
(1.20827 0.0057038 0.00652177)
(1.21548 0.00503595 0.00524676)
(1.19996 4.03088e-06 3.59131e-06)
(1.19994 7.2927e-05 5.93489e-05)
(1.19981 0.00012776 9.57625e-05)
(1.20004 0.000174921 0.000126729)
(1.20013 0.000246684 0.000173406)
(1.2002 0.000351264 0.000254548)
(1.2003 0.000503404 0.000380759)
(1.20046 0.000725073 0.000576379)
(1.20072 0.00104429 0.000868483)
(1.20114 0.00148323 0.00129597)
(1.20183 0.00206801 0.00190638)
(1.203 0.00277169 0.0027241)
(1.205 0.00342221 0.00368909)
(1.20829 0.00349859 0.00440899)
(1.2129 0.00222271 0.00337015)
(1.19994 2.45086e-05 -4.40073e-06)
(1.1997 7.14628e-05 1.27954e-05)
(1.19942 4.31157e-05 4.72052e-05)
(1.1995 3.86328e-05 6.96927e-05)
(1.19945 3.63295e-05 0.00010388)
(1.19939 3.7922e-05 0.000158458)
(1.19934 4.36963e-05 0.000245223)
(1.19934 5.32352e-05 0.0003845)
(1.19939 7.16209e-05 0.000611125)
(1.19954 0.000101133 0.000983611)
(1.19987 0.000155099 0.00161259)
(1.20055 0.000272175 0.002712)
(1.20188 0.000517861 0.00465565)
(1.20497 0.000887637 0.00761528)
(1.21343 0.000666627 0.00910403)
(1.19997 7.244e-07 -4.36092e-06)
(1.19995 3.14883e-05 1.15155e-05)
(1.19981 6.32409e-05 4.51021e-05)
(1.20001 8.71686e-05 6.81909e-05)
(1.20006 0.000118962 0.0001013)
(1.20009 0.000168733 0.000152971)
(1.20013 0.000241 0.000236171)
(1.20022 0.000346929 0.000369281)
(1.20038 0.000504426 0.000581973)
(1.20069 0.000734433 0.000921206)
(1.20126 0.00107285 0.00146898)
(1.20234 0.00157878 0.00234595)
(1.20437 0.00229208 0.0036688)
(1.20819 0.00304373 0.00515966)
(1.21443 0.00271252 0.00489089)
(1.19996 3.40152e-06 -4.56578e-06)
(1.19995 6.06208e-05 9.78972e-06)
(1.19982 0.000109887 4.2159e-05)
(1.20004 0.000147162 6.44815e-05)
(1.20012 0.000201092 9.54904e-05)
(1.20018 0.000281522 0.000142333)
(1.20027 0.000398926 0.000216043)
(1.20041 0.000570596 0.000335833)
(1.20067 0.000814182 0.000519454)
(1.2011 0.00115057 0.000798806)
(1.20184 0.00160909 0.00121934)
(1.2031 0.00219588 0.00181268)
(1.20523 0.00282676 0.00252342)
(1.20853 0.00313795 0.00297212)
(1.21245 0.00228615 0.00218533)
(1.19996 4.06585e-06 -4.83292e-06)
(1.19995 7.2423e-05 7.31967e-06)
(1.19984 0.00012597 3.86473e-05)
(1.20008 0.000170894 6.03223e-05)
(1.2002 0.000235257 8.64644e-05)
(1.2003 0.00033125 0.000127416)
(1.20044 0.000468782 0.000191723)
(1.20066 0.000660982 0.000293307)
(1.20101 0.000926357 0.000440168)
(1.20156 0.0012742 0.00065648)
(1.20241 0.0017072 0.000960046)
(1.20372 0.00216611 0.00134394)
(1.20566 0.00250247 0.00173291)
(1.20824 0.00239663 0.0018652)
(1.21083 0.00146328 0.00122864)
(0.834907 0.0852903 0.0149103)
(1.20972 0.0940741 0.0121544)
(1.36747 0.0757519 0.0037095)
(1.1928 -0.0435065 0.012796)
(1.3112 0.0572958 -0.0119325)
(1.20787 0.0915154 0.014505)
(1.36091 0.072562 0.00392559)
(0.871386 0.0733862 0.068956)
(1.20644 0.0756955 0.0269228)
(1.33316 0.0603424 0.0134036)
(1.30428 0.0578911 0.00710362)
(1.21564 -0.00366179 0.014586)
(1.24112 0.000844759 -0.00480678)
(1.20823 0.065121 0.0313794)
(1.31587 0.051285 0.0182396)
(1.16733 0.0195678 0.0817316)
(1.21395 0.00911739 -0.0444607)
(1.21637 0.0240487 0.02454)
(1.24331 0.0176969 0.0110377)
(1.22912 0.00892785 0.00760677)
(1.25128 0.00392731 0.00171709)
(1.21415 -0.0209325 0.0111553)
(1.28175 -0.015073 0.00169769)
(1.19992 0.00360827 0.00865058)
(1.19662 -0.0181933 0.011877)
(1.24651 0.00411242 -0.00205119)
(1.2134 -0.017345 0.0124341)
(1.27295 -0.0122218 -0.00569288)
(1.22215 0.0098726 0.00794376)
(1.23506 0.00273955 9.46803e-05)
(1.21653 -0.00101503 0.0124882)
(1.23297 0.00165026 -0.00133188)
(1.19841 -0.0155769 0.0142774)
(1.20579 0.00448103 0.008778)
(1.21131 -0.000468238 0.0131921)
(1.20849 -0.0712951 0.0183011)
(1.19793 -0.0303568 0.0254449)
(1.20989 -0.0610333 0.0351401)
(1.22798 0.00269995 -0.00150125)
(1.21373 0.00236464 0.00430473)
(1.21699 0.000585072 -0.000171843)
(0.078348 0.0714474 -0.0136856)
(1.8928 0.110532 -0.00771369)
(1.3177 0.364708 0.0172428)
(1.19321 -0.0445598 0.00844267)
(1.21008 -0.0777094 0.0124727)
(1.21277 -0.0786165 0.00691988)
(1.27292 -0.0781419 0.0117074)
(1.30645 0.354478 0.0333122)
(0.077864 0.071666 0.0163638)
(1.88973 0.109577 0.0225731)
(1.31453 0.362845 0.015792)
(1.86664 0.106984 0.00459758)
(0.0775596 0.0720608 -0.00561861)
(1.30092 0.349244 0.036166)
(0.0854044 0.078134 0.0418494)
(1.81189 0.0941745 0.0357372)
(1.8606 0.104661 0.0356797)
(1.29063 0.319583 0.0721897)
(0.0762222 0.0731523 0.0249448)
(1.26788 -0.0743674 0.0106574)
(1.28478 0.0155954 -0.000729823)
(1.25922 -0.0559548 0.0323494)
(1.21515 -0.0103841 0.0238901)
(1.22328 -0.0073463 0.0145914)
(1.22713 -0.0189576 0.0323299)
(1.2623 0.0212152 -0.00284873)
(1.23468 -0.00579321 0.00819786)
(1.24623 -0.0209092 0.0277492)
(1.3013 0.137814 0.133831)
(0.0864269 0.0838983 0.0873864)
(1.7952 0.0843429 0.0680293)
(0.567914 0.0151707 -0.210356)
(1.27888 0.297059 0.0881765)
(1.47878 -0.0182335 0.0611663)
(0.459853 0.0293547 0.242498)
(1.11004 0.0233308 0.01581)
(0.950943 0.0735562 0.0173108)
(1.18494 0.0330632 0.0129443)
(1.19434 0.0750694 0.0131662)
(1.22437 0.060498 0.0105858)
(1.31095 0.0368976 0.00307115)
(1.22861 0.0203523 0.00845109)
(1.25264 0.00977455 0.00397298)
(0.953461 0.0727094 0.0226483)
(1.18575 0.0318101 0.013957)
(1.19364 0.0728975 0.0153315)
(1.13115 0.0186609 0.0277905)
(0.988017 0.0640079 0.0567508)
(1.19082 0.0254163 0.0175106)
(1.19599 0.0595991 0.0250881)
(1.21145 0.26468 0.0317252)
(0.288305 0.0819158 0.00885856)
(1.20595 0.17686 0.0230041)
(0.840801 0.0828656 0.0301287)
(1.21437 0.269205 0.0225829)
(1.20456 0.172854 0.0302568)
(0.289029 0.0813022 0.0136806)
(1.3054 0.03445 0.00183212)
(1.22585 0.0197425 0.00746792)
(1.24769 0.00947533 -0.000458142)
(1.21852 0.0464993 0.0200746)
(1.28577 0.0277553 0.00807279)
(1.22227 0.0167769 0.00959026)
(1.23855 0.00720954 0.00266169)
(1.0209 0.0564356 0.0743753)
(1.19354 0.0222313 0.0181712)
(1.19909 0.0513852 0.0280642)
(1.18137 0.00706089 0.0268726)
(1.16648 0.0158306 0.0617494)
(1.20223 0.0116576 0.0156461)
(1.21059 0.0210424 0.0228011)
(1.24713 0.136749 0.127498)
(0.318523 0.075342 0.119728)
(1.21162 0.132265 0.068781)
(0.996019 0.0425943 0.129299)
(1.21742 0.206954 0.100433)
(1.22598 0.0987755 0.0764612)
(0.607543 0.0503436 0.248153)
(1.27577 0.0231199 0.0100329)
(1.22099 0.0149243 0.00959383)
(1.23478 0.00609286 0.00239848)
(1.2181 0.0160417 0.0191704)
(1.2383 0.0104086 0.007443)
(1.21723 0.00836058 0.00762664)
(1.22407 0.00322479 0.00173361)
(1.27805 -0.00718748 0.0454174)
(1.21909 0.0145048 0.0190262)
(1.24133 8.13706e-05 0.00832805)
(1.21038 0.00164532 0.0125315)
(1.218 0.000804037 -0.00234119)
(1.21478 0.00450275 0.0074741)
(1.21977 0.00285705 0.00060727)
(1.22042 0.273336 0.0131713)
(0.834739 0.0857807 0.0118248)
(0.289269 0.0818732 0.00160469)
(1.20776 0.179269 0.0176311)
(1.21001 0.180635 0.0149171)
(1.21741 0.271889 0.0163521)
(1.35701 0.209149 0.00689258)
(1.37023 0.0732148 0.000166963)
(1.59379 0.129241 0.00341046)
(1.29872 0.120738 0.00758278)
(1.30094 0.120114 0.00436255)
(1.35267 0.209018 0.009613)
(1.34046 0.201548 0.0189816)
(1.58861 0.128068 0.00789242)
(1.29359 0.117568 0.00911419)
(1.35461 0.0711339 0.00701653)
(1.34711 0.205653 0.0133126)
(1.57301 0.125076 0.0118315)
(1.28906 0.114539 0.0130212)
(1.2092 0.256355 0.0464713)
(0.850358 0.0797152 0.0455728)
(0.299736 0.0767345 0.0717702)
(1.20633 0.153305 0.0538127)
(1.20418 0.165891 0.0407135)
(1.21001 0.239924 0.0679298)
(0.288728 0.0813481 0.0261279)
(1.33162 0.194055 0.0277613)
(1.34524 0.0671136 0.0098727)
(1.52996 0.111933 0.03062)
(1.27583 0.0993733 0.023433)
(1.56295 0.122995 0.0185263)
(1.28284 0.108901 0.0176894)
(1.32036 0.180425 0.0391983)
(1.28608 0.10037 0.0708222)
(1.50331 0.103959 0.0414346)
(1.26664 0.0851036 0.0310572)
(1.29262 0.0308585 0.0209469)
(1.30319 0.15577 0.058846)
(1.39352 0.0347548 0.0481223)
(1.25768 0.0574655 0.0354775)
(1.32533 0.0966389 0.111018)
(1.34275 -0.103563 -0.106145)
(1.19049 0.0173375 0.064906)
(1.30236 0.035078 -0.00377922)
(1.41579 0.0312398 0.047442)
(1.2768 0.0392081 0.0497441)
(0.699729 0.0802224 0.173586)
(0.407768 0.4669 0.00684134)
(0.878828 0.373408 0.0223794)
(0.0784374 0.0715006 0.0148766)
(0.881747 0.374524 0.00713805)
(0.404635 0.463347 -0.000632015)
(0.737365 0.691146 -0.00785419)
(1.8989 0.110506 0.0203156)
(1.5589 0.332412 0.00685134)
(1.5635 0.333552 0.0136572)
(0.732434 0.686716 0.0168225)
(0.736023 0.690093 0.0141767)
(1.90104 0.110449 -0.00999611)
(1.56544 0.333779 0.00403206)
(0.40677 0.465855 -0.00279423)
(0.0786658 0.0713933 -0.0152499)
(0.8805 0.374515 0.017281)
(1.52014 -0.0715785 -0.0171609)
(1.27761 -0.236792 0.00899981)
(1.55903 -0.0086126 0.0358732)
(1.53453 0.125393 -0.0366952)
(1.54291 0.127377 0.0334736)
(1.54987 -0.00963631 -0.0210431)
(1.56172 -0.00815302 -0.0254261)
(1.54543 0.127193 -0.0361873)
(1.51734 -0.0721228 0.0311982)
(1.27116 -0.234116 0.0165249)
(1.27513 -0.236481 0.01352)
(1.50856 -0.0724709 -0.0117886)
(0.40151 0.459674 0.00200325)
(0.880477 0.373447 0.0133091)
(0.0779734 0.0715774 -0.0111194)
(0.877454 0.371534 0.0314463)
(0.406243 0.465199 0.0089382)
(0.727678 0.681963 0.0204027)
(1.55633 0.331139 0.0168925)
(1.88182 0.10895 -0.0029296)
(0.734604 0.688657 -0.00491818)
(1.55073 0.3289 0.0126487)
(0.731328 0.685293 -0.000740238)
(1.53964 0.323862 0.0215357)
(1.87769 0.10784 0.0277178)
(1.54729 0.327315 0.0232801)
(0.720384 0.674696 0.0270594)
(0.40414 0.462768 0.0117494)
(0.876842 0.368401 0.0476429)
(0.0771877 0.0720529 0.0189982)
(0.880969 0.371402 0.0243949)
(0.396417 0.453722 0.00693522)
(0.395522 0.453202 0.0260434)
(0.893164 0.345725 0.1347)
(0.0761681 0.0762516 0.0404872)
(0.896957 0.359146 0.0826616)
(0.371385 0.425126 0.0335243)
(0.72097 0.673838 0.020101)
(1.8359 0.0973861 0.0487872)
(1.50019 0.297839 0.0591408)
(1.51647 0.3092 0.0488167)
(0.690379 0.643415 0.0624833)
(0.709364 0.663119 0.0390775)
(1.53458 0.320998 0.0331202)
(1.8451 0.101876 0.0169707)
(0.726752 0.680555 0.00654948)
(1.52425 0.314382 0.0358788)
(0.387665 0.443521 0.0158465)
(0.884133 0.367753 0.0446521)
(0.0781297 0.0736127 0.00725413)
(0.400881 0.459074 0.0167027)
(0.88004 0.361568 0.0775382)
(1.47195 -0.0629483 0.0619518)
(1.22559 -0.14665 0.105379)
(1.25462 -0.208126 0.0500394)
(1.39607 -0.0622331 0.0791129)
(1.5217 -0.0119989 -0.000147295)
(1.52958 0.126436 0.0325688)
(1.50573 0.11598 -0.0241349)
(1.54449 -0.00823552 0.0410657)
(1.48166 -0.0714969 0.00915941)
(1.26703 -0.231255 0.0231954)
(1.25929 -0.222137 0.0378187)
(1.50308 -0.0710186 0.0377581)
(1.51209 -0.00486478 0.062783)
(1.42425 0.0128334 0.0183968)
(1.49889 0.11651 0.0410692)
(1.42493 -0.0316001 0.0708771)
(1.23091 -0.0487428 0.105296)
(1.30746 0.00630449 0.0789473)
(1.30965 0.00709666 -0.0211887)
(1.31856 0.0129864 0.0622769)
(0.350801 0.400255 0.0961715)
(0.931548 0.337305 0.156605)
(0.123936 0.0830857 0.178397)
(0.966878 0.30041 0.245315)
(0.385168 0.443082 0.0439945)
(0.672735 0.611468 0.140363)
(1.48631 0.286526 0.0754755)
(1.74644 0.0770531 0.0612843)
(0.711698 0.663447 0.0456044)
(1.45788 0.254955 0.101146)
(0.7143 -0.0573416 0.286551)
(0.79578 -0.0857416 0.362191)
(1.45388 -0.0646079 0.638499)
(0.728803 0.661668 0.165511)
(1.39673 0.0925745 0.121086)
(1.69295 0.0379828 0.0913326)
(1.26179 -0.181478 0.317297)
(1.42983 0.211084 0.127641)
(1.59406 0.0542656 0.492592)
(0.384058 0.449864 0.149477)
(1.34795 0.165443 0.350063)
(0.158287 0.0841701 0.265224)
(0.913486 -0.0983579 0.515512)
(1.07312 0.269832 0.294792)
(1.50804 0.0389514 0.676121)
(1.28115 0.0806573 0.0910531)
(1.11705 0.0358964 0.121943)
(1.17455 0.0203612 0.118987)
(1.2362 0.0312438 0.0441782)
(1.24638 0.0575618 0.0627493)
(1.2522 0.037691 0.0578604)
(1.09646 0.0477802 0.142404)
(1.27187 0.0436917 0.0524519)
(1.26766 0.0155915 0.00773677)
(1.25959 0.0298881 0.0228816)
(1.2342 0.024095 0.0208732)
(1.31297 0.0159679 0.0227504)
(1.24904 0.0336125 0.0248459)
(1.24308 0.0300443 0.0397973)
(1.12812 0.787392 0.00146988)
(1.3221 0.366621 0.0139169)
(1.16866 0.419161 0.00926468)
(1.41638 0.388494 0.0072271)
(1.12856 0.786989 0.0142128)
(1.31955 0.365873 0.0109698)
(1.16542 0.417389 0.0134747)
(1.41106 0.386759 0.0104075)
(1.16745 0.41856 0.0162004)
(1.41358 0.387704 0.013735)
(1.12368 0.784201 0.00599033)
(1.11903 0.77824 0.0268382)
(1.30859 0.357962 0.0236057)
(1.39623 0.377375 0.0259078)
(1.1581 0.40915 0.0337646)
(1.16087 0.412419 0.0319821)
(1.40007 0.380154 0.0256588)
(1.10903 0.771571 0.0251446)
(1.11773 0.779211 0.0128611)
(1.31257 0.360795 0.0236885)
(1.16407 0.416312 0.0220759)
(1.40752 0.384769 0.0180844)
(1.16185 0.414279 0.0211648)
(1.12416 0.78355 0.0189641)
(1.40459 0.383022 0.0164874)
(1.09624 0.758378 0.0470655)
(1.38998 0.37219 0.03788)
(1.29905 0.342683 0.0487826)
(1.15809 0.405506 0.0492065)
(1.11196 0.769969 0.0407808)
(1.15513 0.399314 0.0555357)
(1.38515 0.366998 0.0412763)
(1.10313 0.755602 0.0665439)
(1.29154 0.332264 0.0554212)
(1.15567 0.379394 0.0930589)
(1.3694 0.347913 0.0658173)
(1.15881 0.391281 0.0786407)
(1.37644 0.357119 0.0574965)
(1.0754 0.735165 0.0886077)
(1.11657 0.652045 0.274832)
(1.27825 0.19849 0.132584)
(1.35042 0.139769 0.149656)
(1.30426 0.17114 0.230902)
(1.24004 0.257579 0.21874)
(1.33835 0.223363 0.150961)
(1.44252 0.127662 0.418787)
(0.600918 0.0478336 0.0731668)
(0.599723 -0.0304081 -0.0830974)
(0.623281 -0.0321935 0.15632)
(1.06253 0.691136 0.198694)
(1.28278 0.269291 0.10863)
(1.16967 0.359151 0.132359)
(1.35618 0.325969 0.092037)
(1.17573 0.330267 0.161045)
(1.09058 0.729428 0.115657)
(1.34721 0.30379 0.108844)
(1.65138 -0.104134 0.0417512)
(1.25233 -0.0788786 0.0965959)
(1.62367 -0.0402172 0.195641)
(1.6024 -0.0162171 0.165651)
(1.13056 -0.0874685 0.0340008)
(1.66162 -0.0438641 0.111439)
(1.08192 -0.0663227 0.100736)
(1.38692 0.0700032 0.10013)
(1.55983 -0.0194079 0.0292819)
(1.46692 0.0464215 0.135488)
(1.39904 -0.010229 0.107601)
(1.39629 -0.00687593 0.0522118)
(1.3776 0.0294226 0.0771818)
(1.43875 -0.0516743 0.0776801)
(1.36739 0.118165 0.270331)
(1.08231 -0.0159441 0.259088)
(1.47775 0.0575701 0.285288)
(1.51364 0.0237747 0.19613)
(0.794569 0.0424506 0.0995918)
(1.48103 0.0671943 0.188785)
(0.969055 -0.0142864 0.130914)
(0.255137 0.20081 0.00607422)
(0.68424 0.520176 0.00967184)
(0.400549 0.461086 0.00393096)
(0.673656 0.520223 0.00974421)
(0.25916 0.197232 0.0103294)
(0.0779106 0.0309466 0.00951338)
(-0.034178 0.0158466 -0.0213335)
(0.0773777 0.0235444 0.00666966)
(-0.0352721 0.0160064 0.0270384)
(0.255377 0.201549 0.0124124)
(0.401005 0.462321 0.00520724)
(0.680277 0.51843 0.0111238)
(0.671543 0.519853 0.01115)
(0.257054 0.195415 0.00731383)
(0.0773054 0.0300985 0.0054394)
(-0.0348559 0.015175 0.0269574)
(0.0784619 0.0248167 0.0078018)
(-0.0343518 0.0167067 -0.0219792)
(1.8421 0.718233 0.0208069)
(1.60896 0.811434 0.00695623)
(0.728172 0.684748 0.0192203)
(1.84954 0.721451 -0.00755207)
(1.6041 0.809954 0.013112)
(1.89217 0.676221 -0.0111081)
(1.19766 0.137308 0.00999289)
(1.19848 0.137267 -0.0137553)
(1.89215 0.676487 0.0215769)
(1.89351 0.676197 0.0211812)
(1.20284 0.13833 -0.013944)
(1.90103 0.679861 -0.0123965)
(1.19995 0.137169 0.010156)
(1.84063 0.718158 -0.00627302)
(0.728356 0.685665 -0.00792106)
(1.60282 0.808749 0.0136909)
(1.60139 0.809019 0.00777399)
(1.84129 0.718216 0.0214643)
(1.84725 0.720642 -0.0098291)
(0.730515 0.687774 -0.0111238)
(1.60931 0.811943 0.0094762)
(1.60724 0.812067 0.00364086)
(1.84928 0.721119 0.018066)
(1.89902 0.678467 -0.0142545)
(1.20348 0.138027 0.00992236)
(1.90063 0.679295 0.0188948)
(1.20304 0.137701 -0.0143809)
(0.256368 0.203656 0.00808434)
(0.402231 0.463725 0.00268713)
(0.682883 0.52084 0.00626107)
(0.673637 0.522223 0.00665443)
(0.258602 0.197646 0.00202327)
(0.078092 0.0329499 0.0059606)
(-0.0343237 0.0161074 -0.0247729)
(0.0779469 0.0256418 0.00220718)
(-0.0350814 0.0167113 0.026119)
(0.253848 0.198422 0.0188974)
(0.676666 0.514511 0.0186315)
(0.399143 0.460178 0.00807357)
(0.668568 0.516182 0.0177652)
(0.254565 0.191478 0.0154794)
(0.0766233 0.0270247 0.0108727)
(-0.0351505 0.0145005 0.0281122)
(0.0780122 0.0225988 0.0121885)
(-0.0341782 0.0163112 -0.0176294)
(0.253381 0.197529 0.0125535)
(0.398293 0.45812 0.00660985)
(0.681903 0.517448 0.014947)
(0.25783 0.194951 0.0155561)
(0.671397 0.516946 0.0155933)
(0.0775178 0.0280098 0.0149781)
(-0.0339822 0.0153359 -0.0159702)
(0.0763335 0.0197071 0.013584)
(-0.0356405 0.0150943 0.0284529)
(1.83168 0.714649 -0.00165914)
(0.725117 0.682585 -0.00419363)
(1.59436 0.803722 0.0204274)
(1.5936 0.804496 0.0137355)
(1.83101 0.713813 0.0268139)
(1.88435 0.672977 0.0243867)
(1.19723 0.137791 -0.0135515)
(1.19365 0.136406 0.0102545)
(1.89288 0.677309 -0.00934962)
(1.88293 0.673117 -0.00733519)
(1.19065 0.1364 0.0103275)
(1.19232 0.136648 -0.0132767)
(1.8814 0.67245 0.0256974)
(1.83342 0.714765 0.0249611)
(0.724542 0.680934 0.022486)
(1.60231 0.807936 0.0116116)
(1.84171 0.718653 -0.00388343)
(1.59711 0.806046 0.0183657)
(1.82273 0.709871 0.0326406)
(1.59425 0.802563 0.0195364)
(0.720074 0.675528 0.0287461)
(1.58868 0.800125 0.0277225)
(1.83213 0.714627 0.00224635)
(1.87111 0.66905 -3.33904e-05)
(1.18165 0.135178 0.0114595)
(1.18465 0.135916 -0.0117772)
(1.86668 0.666807 0.0330223)
(1.8732 0.66867 0.0305271)
(1.19071 0.137206 -0.0126704)
(1.18622 0.135543 0.0109899)
(1.88306 0.67391 -0.00431608)
(1.82007 0.709866 0.00694456)
(0.721108 0.67846 0.00330708)
(1.58249 0.796449 0.0321112)
(1.58317 0.797961 0.0244042)
(1.81677 0.707633 0.036141)
(0.250867 0.191091 0.0248453)
(0.679714 0.512825 0.0238483)
(0.395141 0.453683 0.0117422)
(0.669536 0.511335 0.0263867)
(0.255906 0.190535 0.0238966)
(0.0768414 0.0216137 0.0260263)
(-0.0337809 0.0142062 -0.00605187)
(0.074357 0.0118483 0.0268863)
(-0.0363819 0.0132728 0.0320433)
(0.251309 0.192203 0.03182)
(0.396524 0.457183 0.0140847)
(0.671081 0.507958 0.0325679)
(0.664447 0.510121 0.0303211)
(0.250044 0.18377 0.0313234)
(0.0757484 0.020568 0.0210409)
(-0.0356723 0.0131921 0.0301521)
(0.077275 0.017949 0.0192316)
(-0.0339279 0.0153802 -0.00991185)
(0.238891 0.146721 0.101513)
(0.674987 0.489147 0.0732161)
(0.382657 0.435274 0.0380923)
(0.668977 0.481452 0.0873665)
(0.24548 0.161091 0.075855)
(0.0775041 -0.0369306 0.105117)
(-0.0369428 0.00129054 0.0586168)
(0.0675142 -0.0579649 0.123294)
(-0.0420805 0.00056812 0.0746812)
(0.23781 0.144634 0.117887)
(0.386738 0.445475 0.0487623)
(0.64815 0.468727 0.111417)
(0.652341 0.47554 0.102547)
(0.2222 0.122868 0.135907)
(0.0753327 -0.0287402 0.0846268)
(-0.0394349 0.00512814 0.0511014)
(0.0730445 -0.0174436 0.0656412)
(-0.0345539 0.00769307 0.0356488)
(1.79319 0.692044 0.0696988)
(1.56922 0.781284 0.0570475)
(0.706846 0.655381 0.0607842)
(1.80332 0.700364 0.0312718)
(1.56453 0.776074 0.0728274)
(1.83956 0.656168 0.0358047)
(1.16676 0.131237 0.0170954)
(1.17277 0.134114 -0.00319801)
(1.82034 0.645641 0.0673807)
(1.8445 0.654353 0.0606024)
(1.17805 0.13561 -0.0066605)
(1.85544 0.662816 0.0198285)
(1.1743 0.133657 0.0168273)
(1.78631 0.693083 0.0488568)
(0.710813 0.664818 0.0441963)
(1.54029 0.765321 0.0883926)
(1.54927 0.771427 0.0765072)
(1.76894 0.683334 0.0802625)
(1.80528 0.702819 0.0216404)
(0.716115 0.672555 0.0166068)
(1.566 0.784473 0.05235)
(1.5691 0.787556 0.0427681)
(1.79782 0.697968 0.0524128)
(1.85945 0.662676 0.0409489)
(1.18309 0.13646 -0.0107662)
(1.87024 0.66931 0.00433511)
(1.17841 0.134549 0.0128908)
(1.80912 0.70274 0.0456298)
(0.714169 0.667488 0.0393823)
(1.58327 0.794586 0.0330928)
(1.81928 0.709001 0.0127179)
(1.57766 0.791068 0.0437003)
(1.8568 0.663424 0.0124605)
(1.17314 0.13365 0.0141698)
(1.84794 0.658375 0.0459636)
(1.17754 0.13505 -0.00876705)
(0.246617 0.178301 0.0581092)
(0.392522 0.452441 0.0251108)
(0.662585 0.495039 0.0588022)
(0.658939 0.49859 0.053885)
(0.241081 0.166041 0.0639915)
(0.0746306 0.00630737 0.0408117)
(-0.0367793 0.0105964 0.0353241)
(0.0757773 0.00792459 0.0333585)
(-0.0337492 0.0131604 0.00473939)
(0.246484 0.177688 0.0488664)
(0.390254 0.446593 0.020536)
(0.676951 0.504871 0.0404407)
(0.252416 0.181661 0.0403387)
(0.667796 0.501284 0.0464435)
(0.0758411 0.00594926 0.049387)
(-0.0340078 0.0113058 0.0136721)
(0.0707512 -0.00704462 0.0549333)
(-0.0380152 0.00932939 0.0418633)
(0.232158 0.0706424 0.250299)
(0.658252 0.413313 0.252788)
(0.384545 0.443776 0.0983645)
(0.668496 0.429105 0.213881)
(0.215539 0.0267602 0.322303)
(0.0880541 -0.120864 0.191503)
(-0.0470255 -0.0110854 0.108257)
(0.0730159 -0.0869262 0.149491)
(-0.0408342 -0.0178946 0.11111)
(0.227999 0.0771243 0.213258)
(0.371763 0.420455 0.0679823)
(0.674306 0.457708 0.139647)
(0.230778 0.112891 0.155068)
(0.678626 0.443635 0.172545)
(0.10283 -0.149945 0.248257)
(-0.0425404 -0.0430218 0.238767)
(0.10209 -0.173915 0.336186)
(-0.0540447 -0.0374436 0.200468)
(1.76449 0.677299 0.100088)
(0.714862 0.661661 0.103886)
(1.50742 0.721495 0.171711)
(1.52764 0.739818 0.145453)
(1.72573 0.647987 0.142436)
(1.82712 0.64088 0.0928936)
(1.17767 0.134588 -0.00290244)
(1.183 0.132523 0.0156718)
(1.8349 0.653016 0.0447502)
(1.82154 0.646383 0.0771841)
(1.1701 0.12651 -0.000138446)
(1.17767 0.134339 -0.00281747)
(1.77871 0.617984 0.110157)
(1.77279 0.67346 0.112339)
(0.698577 0.637933 0.101661)
(1.5483 0.758378 0.100382)
(1.77974 0.686887 0.0627515)
(1.54781 0.748554 0.127043)
(0.498099 -0.135449 0.0241392)
(0.886754 -0.145496 0.398065)
(0.599571 -0.180823 0.205383)
(0.615984 -0.0592042 0.0967347)
(0.891553 -0.129702 0.460345)
(0.697521 -0.0611138 0.252334)
(1.12032 -0.122523 0.462704)
(1.0871 -0.229345 0.563792)
(0.791069 -0.198066 0.338554)
(1.75104 0.521394 0.272149)
(1.53641 0.6672 0.213877)
(0.747065 0.573085 0.321909)
(1.54479 0.59887 0.320845)
(1.75205 0.639422 0.148121)
(1.89498 0.416887 0.314122)
(1.69337 -0.0698865 0.167229)
(1.50748 -0.126577 0.415562)
(1.66957 -0.0179145 0.235883)
(1.50032 0.15009 0.00646882)
(1.8316 0.533659 0.223138)
(1.2039 0.136902 -0.0121881)
(1.26022 0.141837 0.0113685)
(1.81615 0.624074 0.115108)
(1.72649 0.368286 0.318369)
(1.10042 0.609329 0.722314)
(1.48191 0.114075 0.280391)
(1.59317 -0.0100888 0.466321)
(1.57422 0.0594189 0.280389)
(1.52757 0.323235 0.375316)
(0.390034 -0.0373887 0.64893)
(0.740404 0.382378 0.342705)
(0.391013 0.406597 0.306229)
(0.820752 0.335836 0.521621)
(0.251645 0.0145325 0.38356)
(0.366175 -0.256292 1.00853)
(0.965763 -0.1165 0.725813)
(1.07179 -0.160445 0.599787)
(1.17026 -0.127983 0.774603)
(0.0223762 -0.0664957 0.806706)
(0.700399 -0.0487769 0.805542)
(0.574754 0.539999 0.697609)
(1.39269 0.116912 0.498594)
(1.35306 -0.139001 0.703494)
(1.34979 0.0172395 0.626404)
(1.13713 0.169093 0.617443)
(0.211742 -0.236046 0.733969)
(-0.0528165 -0.0868222 0.435237)
(0.124182 -0.220866 0.446643)
(-0.0571789 -0.0660846 1.04479)
(1.23128 0.00256578 0.000221921)
(1.21673 0.00167425 0.0102507)
(1.22636 0.00102027 0.00175575)
(1.21654 0.00616405 0.0060469)
(1.22192 0.00173346 0.000674778)
(1.21411 0.00280586 0.00471486)
(1.21744 0.000517264 0.000687313)
(1.38753 -0.0396274 0.00574095)
(1.31388 0.0585038 0.00729613)
(1.31064 0.0166414 -0.00468791)
(1.36224 0.0110479 -0.00699705)
(1.31311 0.0170235 0.00816814)
(1.36582 0.0127598 0.00152401)
(1.38382 -0.0400328 -0.000917203)
(1.3633 -0.0406787 0.00267071)
(1.30351 0.0183033 0.0106687)
(1.35271 0.00807495 -0.00279907)
(1.29821 0.0500056 -0.00659281)
(1.29794 0.0139834 0.00276739)
(1.34299 0.00508081 -0.0111814)
(1.37421 -0.0402906 0.0065741)
(1.28431 -0.0106363 -0.00308326)
(1.26717 -0.0377252 0.00722188)
(1.26935 -0.0364107 0.00163728)
(1.24988 -0.00968085 -3.37774e-05)
(1.25978 0.0067385 0.000818059)
(1.26326 0.00996115 -0.00390181)
(1.24764 -0.0114117 0.00484256)
(1.26003 -0.0327101 0.00567581)
(1.25962 -0.00969672 -0.000884383)
(1.24893 -0.0269249 0.0140622)
(1.23887 -0.00856684 0.0083935)
(1.25386 0.00809605 -0.00105919)
(1.24292 -0.00833632 0.00391901)
(1.24795 0.00215196 0.00276911)
(1.24261 0.00141083 -4.0716e-05)
(1.22907 -0.00221486 0.00727549)
(1.23836 -0.00656426 0.0140092)
(1.23417 -0.000251115 0.00740218)
(1.23285 0.00113012 -0.000805299)
(1.23944 0.00491605 0.00131441)