/*--------------------------------*- C++ -*----------------------------------*\
| =========                 |                                                 |
| \\      /  F ield         | OpenFOAM: The Open Source CFD Toolbox           |
|  \\    /   O peration     | Version:  2012                                  |
|   \\  /    A nd           | Website:  www.openfoam.com                      |
|    \\/     M anipulation  |                                                 |
\*---------------------------------------------------------------------------*/
FoamFile
{
    version     2.0;
    format      ascii;
    class       surfaceVectorField;
    location    "0.106/fluid";
    object      Uf;
}
// * * * * * * * * * * * * * * * * * * * * * * * * * * * * * * * * * * * * * //

dimensions      [0 1 -1 0 0 0 0];


internalField   nonuniform List<vector> 
47156
(
(1.19994 2.32418e-05 7.49593e-06)
(1.19998 4.0254e-05 1.3863e-05)
(1.19996 2.56097e-05 7.54016e-06)
(1.19994 2.33242e-05 7.32933e-06)
(1.19969 6.82149e-05 9.99272e-05)
(1.1998 7.20444e-05 8.34284e-05)
(1.19974 6.24088e-05 0.000112543)
(1.19988 6.34093e-05 0.000101028)
(1.19969 6.8581e-05 0.000100302)
(1.19933 4.10196e-05 0.000140028)
(1.1996 4.20468e-05 0.000139801)
(1.19955 4.04827e-05 0.000145063)
(1.19965 4.37564e-05 0.000141878)
(1.19934 4.12316e-05 0.000142188)
(1.19934 3.8005e-05 0.000185507)
(1.19942 3.81674e-05 0.000180013)
(1.19938 3.78805e-05 0.000195983)
(1.19975 4.71606e-05 0.00018752)
(1.19936 3.80274e-05 0.00018814)
(1.19918 3.80944e-05 0.000268015)
(1.19922 3.79651e-05 0.000258664)
(1.19917 3.80221e-05 0.000285655)
(1.19966 5.50735e-05 0.000270943)
(1.1992 3.78475e-05 0.000273111)
(1.19892 4.10872e-05 0.000405812)
(1.19898 4.0143e-05 0.000389623)
(1.19891 4.20299e-05 0.000433778)
(1.19949 6.8357e-05 0.000410034)
(1.19897 4.08274e-05 0.000412674)
(1.19857 5.36006e-05 0.000632097)
(1.19866 5.11306e-05 0.000604841)
(1.19856 5.53599e-05 0.000677431)
(1.19922 9.68297e-05 0.00063764)
(1.19865 5.25963e-05 0.000642514)
(1.19806 7.75378e-05 0.00100055)
(1.19819 7.26921e-05 0.000956099)
(1.19804 8.06832e-05 0.00107372)
(1.19881 0.000145615 0.00100804)
(1.19818 7.51322e-05 0.00101683)
(1.19726 0.000121865 0.00159935)
(1.19747 0.000112745 0.00152528)
(1.19724 0.000127956 0.00171658)
(1.19818 0.000231379 0.00160871)
(1.19746 0.000117279 0.00162233)
(1.19594 0.000222069 0.00257889)
(1.19631 0.000199744 0.00245475)
(1.1959 0.000237917 0.00276841)
(1.19715 0.000404922 0.00258573)
(1.19629 0.000210578 0.00261184)
(1.1935 0.000506194 0.00418845)
(1.19417 0.000441038 0.0039826)
(1.19335 0.000559658 0.00449937)
(1.19539 0.000829608 0.0041825)
(1.19409 0.000475956 0.0042425)
(1.188 0.00146774 0.0068177)
(1.18945 0.00124968 0.00649811)
(1.18737 0.00168352 0.00734881)
(1.19194 0.00209095 0.00678261)
(1.18905 0.00138485 0.00695387)
(1.17211 0.00538554 0.011006)
(1.17601 0.00450096 0.0106336)
(1.16911 0.00640215 0.0120178)
(1.18347 0.00683597 0.010949)
(1.17401 0.0051289 0.0115637)
(1.11141 0.0230343 0.0168793)
(1.12528 0.019208 0.0170954)
(1.09575 0.0279275 0.0189745)
(1.15475 0.0291004 0.0172408)
(1.11482 0.0222924 0.0194058)
(0.835678 0.0848845 0.0178322)
(0.888409 0.0785934 0.0217646)
(1.02106 0.136236 0.0219453)
(0.838624 0.0836724 0.0253389)
(0.960886 0.206763 0.0352019)
(0.546634 0.0878309 0.0134357)
(0.960976 0.207315 0.0158013)
(0.547261 0.0875733 0.00838838)
(1.19996 6.09416e-07 7.56354e-06)
(1.19997 2.48719e-06 7.52404e-06)
(1.2 2.58297e-06 1.39941e-05)
(1.19996 3.64987e-06 7.51412e-06)
(1.19996 6.01395e-07 7.47993e-06)
(1.19992 3.42257e-05 0.000101025)
(1.19992 4.37043e-05 0.000101707)
(1.2 2.7472e-05 8.45734e-05)
(1.2 4.04734e-05 0.000113426)
(1.19992 4.77567e-05 0.000101622)
(1.19992 3.38477e-05 0.000101505)
(1.19972 6.70383e-05 0.000138689)
(1.19972 6.65241e-05 0.000140568)
(1.19996 6.41717e-05 0.000138452)
(1.19995 6.96734e-05 0.000143664)
(1.19972 8.01113e-05 0.000139793)
(1.19972 6.6286e-05 0.000140775)
(1.19983 9.83779e-05 0.000182553)
(1.19984 9.28255e-05 0.000185232)
(1.1999 9.30822e-05 0.000177329)
(1.19988 0.000102769 0.000192687)
(1.19984 0.000112191 0.000183856)
(1.19985 9.69949e-05 0.000185403)
(1.19977 0.000146096 0.000262109)
(1.19978 0.000133973 0.000266377)
(1.1998 0.000138109 0.000253006)
(1.19977 0.000152289 0.000278956)
(1.19979 0.0001626 0.000263858)
(1.19979 0.000143565 0.000266802)
(1.19961 0.000217453 0.000395667)
(1.19962 0.000196158 0.000402194)
(1.19965 0.000204924 0.000379896)
(1.19961 0.000226687 0.000422808)
(1.19964 0.000238849 0.000397648)
(1.19966 0.000212888 0.000402369)
(1.19937 0.000329181 0.000613331)
(1.19939 0.000294867 0.000623649)
(1.19944 0.000308927 0.000587343)
(1.19937 0.000343335 0.000656575)
(1.19943 0.00035855 0.000615454)
(1.19944 0.000320954 0.000623166)
(1.19901 0.000509424 0.000963704)
(1.19904 0.000454322 0.000980745)
(1.19912 0.000475485 0.000921415)
(1.19901 0.00053181 0.00103307)
(1.1991 0.000551477 0.000965494)
(1.19913 0.000494125 0.000978893)
(1.19845 0.000811878 0.00152801)
(1.19849 0.000722331 0.00155619)
(1.19862 0.000752675 0.00145894)
(1.19846 0.000848811 0.0016377)
(1.1986 0.000873671 0.001527)
(1.19864 0.00078262 0.00155)
(1.19758 0.00134625 0.00243331)
(1.19764 0.00119992 0.00247991)
(1.19785 0.00123765 0.00231963)
(1.1976 0.00141221 0.00260593)
(1.19784 0.00143758 0.00242306)
(1.19789 0.00128931 0.00246314)
(1.19624 0.00236027 0.00387719)
(1.19631 0.00212763 0.00395802)
(1.19667 0.00214714 0.00369347)
(1.19628 0.00249307 0.00414606)
(1.19669 0.00250081 0.00384395)
(1.19673 0.00224602 0.00391926)
(1.19418 0.0045127 0.00611022)
(1.19419 0.00420163 0.00626568)
(1.19482 0.00404963 0.00583424)
(1.19423 0.00482772 0.00651848)
(1.19503 0.00476044 0.0060268)
(1.19491 0.00427333 0.00618862)
(1.19135 0.00974577 0.00924073)
(1.19099 0.0097345 0.00960615)
(1.19215 0.00860887 0.00893193)
(1.19145 0.0106407 0.00982875)
(1.19317 0.0102306 0.0090763)
(1.19231 0.00921385 0.00949216)
(1.18869 0.0270306 0.0133662)
(1.19138 0.0243699 0.0123449)
(1.19103 0.0212598 0.01241)
(1.19259 0.0271269 0.0130276)
(1.19204 0.023138 0.0132546)
(1.19499 0.0244435 0.0121454)
(1.21496 0.0735973 0.0131355)
(1.22322 0.059329 0.0109435)
(1.21449 0.0532923 0.0123729)
(1.23255 0.0615924 0.01067)
(1.2214 0.0569061 0.013207)
(1.22421 0.0519345 0.0107547)
(1.19996 3.48327e-06 7.49632e-06)
(1.19996 3.3208e-06 7.48062e-06)
(1.2 8.02943e-06 1.39357e-05)
(1.19996 3.65984e-06 7.46096e-06)
(1.19996 3.46521e-06 7.43518e-06)
(1.19992 6.59397e-05 0.000100156)
(1.19992 6.37961e-05 0.000100946)
(1.2 5.42669e-05 8.40118e-05)
(1.19999 7.58654e-05 0.00011225)
(1.19992 6.83772e-05 0.000100515)
(1.19992 6.52787e-05 0.000100744)
(1.19972 0.000117001 0.000135071)
(1.19972 0.000112264 0.000137046)
(1.19997 0.000112407 0.000135184)
(1.19996 0.000121421 0.000139783)
(1.19973 0.000120362 0.000135944)
(1.19973 0.000115915 0.000137318)
(1.19986 0.000167141 0.000175316)
(1.19986 0.000159678 0.000178346)
(1.19992 0.000158784 0.000170659)
(1.19991 0.000174044 0.000184861)
(1.19987 0.000171486 0.000176116)
(1.19988 0.000164903 0.00017824)
(1.19983 0.000243756 0.00024945)
(1.19984 0.00023253 0.000254078)
(1.19986 0.000230819 0.000240915)
(1.19984 0.000253879 0.000264898)
(1.19986 0.000249693 0.000250072)
(1.19986 0.000239736 0.000253453)
(1.19973 0.000359879 0.00037211)
(1.19974 0.000342627 0.000379677)
(1.19977 0.00033951 0.000357702)
(1.19974 0.000374978 0.000397012)
(1.19977 0.000367884 0.000372421)
(1.19978 0.000352597 0.000378251)
(1.19958 0.000540439 0.000569577)
(1.19958 0.000513398 0.000582242)
(1.19963 0.000507724 0.000546373)
(1.19959 0.00056284 0.000608674)
(1.19964 0.000550802 0.00056875)
(1.19964 0.000526906 0.000578838)
(1.19934 0.000826629 0.000882274)
(1.19935 0.000784176 0.0009035)
(1.19943 0.000772769 0.000844979)
(1.19936 0.000861156 0.00094372)
(1.19945 0.000839554 0.000878768)
(1.19945 0.000801837 0.000895978)
(1.19901 0.00128906 0.00137584)
(1.19901 0.00122329 0.00141116)
(1.19913 0.00119947 0.00131615)
(1.19904 0.00134193 0.00147031)
(1.19917 0.00130135 0.00136559)
(1.19917 0.0012434 0.00139474)
(1.19855 0.00204078 0.00214296)
(1.19855 0.00194225 0.00220204)
(1.19873 0.00188956 0.00204794)
(1.19861 0.00212283 0.00228619)
(1.1988 0.00204162 0.00211744)
(1.1988 0.00195603 0.00216722)
(1.198 0.00329336 0.00331803)
(1.19798 0.00315936 0.00341751)
(1.19826 0.00303321 0.00316987)
(1.19814 0.00342399 0.00352854)
(1.19841 0.00324975 0.00326183)
(1.19839 0.00313747 0.00334681)
(1.19769 0.00537978 0.00503936)
(1.1976 0.00526331 0.00520285)
(1.19796 0.00494256 0.00482162)
(1.198 0.00558429 0.0053249)
(1.19829 0.00519205 0.00492966)
(1.19824 0.00510617 0.00506864)
(1.19884 0.00859805 0.00724971)
(1.19857 0.00879068 0.00751281)
(1.19884 0.00794977 0.0069985)
(1.19955 0.0088556 0.00757498)
(1.19954 0.0079757 0.00709432)
(1.19947 0.00817882 0.00730626)
(1.20569 0.0117788 0.00901271)
(1.20507 0.0136051 0.00943302)
(1.20441 0.0113153 0.00899185)
(1.20747 0.0117211 0.00916697)
(1.20551 0.0100854 0.00907493)
(1.20589 0.0114209 0.00925029)
(1.22776 0.00909914 0.00684318)
(1.22612 0.0145281 0.00703254)
(1.2231 0.00998826 0.00732347)
(1.23034 0.00838481 0.00551532)
(1.22439 0.0060884 0.00726566)
(1.22584 0.00933349 0.00751024)
(1.19996 4.25316e-06 7.38831e-06)
(1.19996 4.23461e-06 7.38583e-06)
(1.2 9.23628e-06 1.37257e-05)
(1.19996 4.22949e-06 7.33215e-06)
(1.19992 7.8936e-05 9.7958e-05)
(1.19992 7.7801e-05 9.87856e-05)
(1.2 6.44323e-05 8.2208e-05)
(1.2 9.10776e-05 0.000109438)
(1.19992 7.81566e-05 9.82635e-05)
(1.19974 0.000137734 0.000130238)
(1.19974 0.000135671 0.000132387)
(1.19999 0.000132804 0.000130699)
(1.19998 0.000142561 0.000134664)
(1.19975 0.000136512 0.000132769)
(1.19991 0.000195293 0.000165562)
(1.19991 0.000192459 0.00016865)
(1.19997 0.000185456 0.000161576)
(1.19997 0.000203408 0.000174024)
(1.19993 0.000192596 0.000168172)
(1.19993 0.000285516 0.000231857)
(1.19993 0.000280807 0.000236642)
(1.19995 0.000270206 0.00022424)
(1.19995 0.000297398 0.000245515)
(1.19996 0.000280714 0.000235358)
(1.1999 0.000421429 0.000339962)
(1.1999 0.00041362 0.000347962)
(1.19992 0.000397687 0.000327318)
(1.19991 0.00043877 0.000361999)
(1.19994 0.000412808 0.000345438)
(1.19984 0.000629393 0.000510303)
(1.19984 0.000616685 0.000523799)
(1.19988 0.000591705 0.000490904)
(1.19986 0.000654863 0.000543933)
(1.1999 0.000613566 0.000518861)
(1.19976 0.000952816 0.000775424)
(1.19976 0.000932965 0.000797471)
(1.19982 0.000892403 0.000744122)
(1.1998 0.000990291 0.000827029)
(1.19985 0.000924453 0.000787033)
(1.19967 0.00144839 0.00118212)
(1.19966 0.00141857 0.00121833)
(1.19975 0.00135306 0.00113388)
(1.19973 0.00150136 0.00125867)
(1.19981 0.00139798 0.0011976)
(1.19959 0.00219923 0.00178972)
(1.19957 0.00215647 0.00184968)
(1.1997 0.00204857 0.00171644)
(1.19969 0.00227074 0.00190151)
(1.19979 0.00210881 0.00180943)
(1.19959 0.00330793 0.0026915)
(1.19957 0.00325495 0.00278768)
(1.19973 0.0030774 0.00257916)
(1.19976 0.00339496 0.00285219)
(1.19989 0.00315179 0.00271301)
(1.19986 0.00478442 0.00400949)
(1.19986 0.00473857 0.00415228)
(1.20001 0.00446979 0.00383967)
(1.20015 0.00484982 0.00423246)
(1.20029 0.00453492 0.00402474)
(1.20052 0.00610065 0.00591048)
(1.20074 0.0061142 0.00609932)
(1.20073 0.0058313 0.00566822)
(1.20094 0.00597685 0.0062635)
(1.20117 0.00579104 0.00595309)
(1.20049 0.00365472 0.00893929)
(1.20171 0.00409227 0.00921288)
(1.20121 0.00442211 0.0086899)
(1.20081 0.00224735 0.00986971)
(1.20177 0.00381195 0.00940162)
(1.19354 -0.0409939 0.0146272)
(1.20384 -0.0272329 0.0144191)
(1.19621 -0.0270193 0.0153365)
(1.19328 -0.0548743 0.0173374)
(1.1961 -0.0344211 0.0204357)
(1.19994 2.37833e-05 6.2975e-06)
(1.19998 4.12044e-05 1.13367e-05)
(1.19996 2.63282e-05 6.31357e-06)
(1.19994 2.39401e-05 5.867e-06)
(1.19969 6.97005e-05 9.38541e-05)
(1.1998 7.35811e-05 7.53229e-05)
(1.19974 6.37692e-05 0.000104015)
(1.19989 6.44618e-05 9.24088e-05)
(1.19969 7.00584e-05 8.91792e-05)
(1.19936 4.1644e-05 0.000137335)
(1.19962 4.27282e-05 0.000133055)
(1.19958 4.09842e-05 0.000138918)
(1.19968 4.37618e-05 0.000135368)
(1.19937 4.17889e-05 0.000132123)
(1.1994 3.78056e-05 0.000183234)
(1.19948 3.80992e-05 0.000173199)
(1.19944 3.74819e-05 0.000188873)
(1.19981 4.58702e-05 0.00018035)
(1.19942 3.76825e-05 0.000176811)
(1.19928 3.72725e-05 0.000266305)
(1.19932 3.71803e-05 0.000250294)
(1.19928 3.7386e-05 0.000276351)
(1.19978 5.24709e-05 0.00026249)
(1.19931 3.72048e-05 0.000257311)
(1.19911 4.02973e-05 0.000402745)
(1.19915 3.96089e-05 0.000377022)
(1.1991 4.10717e-05 0.000419906)
(1.19968 6.47498e-05 0.000397077)
(1.19915 4.01914e-05 0.000389504)
(1.19887 4.96519e-05 0.00062673)
(1.19894 4.77184e-05 0.000585081)
(1.19888 5.07816e-05 0.000654886)
(1.19953 8.78219e-05 0.000616571)
(1.19894 4.86587e-05 0.000605807)
(1.19856 6.78198e-05 0.00098911)
(1.19866 6.38192e-05 0.000921842)
(1.19857 7.02233e-05 0.00103432)
(1.19931 0.00012677 0.000971835)
(1.19868 6.571e-05 0.000955233)
(1.19809 0.000103092 0.00157399)
(1.19825 9.55526e-05 0.00146532)
(1.19812 0.000106624 0.00164726)
(1.19898 0.000195706 0.00154391)
(1.19829 9.81895e-05 0.00151928)
(1.19734 0.000175689 0.00252991)
(1.19761 0.00015801 0.00235141)
(1.19739 0.000185211 0.00265283)
(1.19848 0.000325279 0.0024764)
(1.19768 0.000164366 0.00244237)
(1.19592 0.000378161 0.00413649)
(1.19644 0.000326433 0.00383981)
(1.19598 0.000408318 0.00435891)
(1.19759 0.000630395 0.0040323)
(1.19653 0.00034432 0.00400407)
(1.19252 0.00107221 0.00699699)
(1.19369 0.000888213 0.00648809)
(1.19243 0.00119024 0.00747191)
(1.19574 0.00151766 0.00676309)
(1.19373 0.000952237 0.006834)
(1.18175 0.00393178 0.012915)
(1.18525 0.00314279 0.0119565)
(1.18076 0.00446662 0.0143093)
(1.19079 0.00478809 0.0122236)
(1.18492 0.00340285 0.0129287)
(1.13666 0.0174181 0.0292962)
(1.15106 0.0136081 0.0273403)
(1.13003 0.0200835 0.0354771)
(1.17225 0.020345 0.0268728)
(1.14882 0.0146591 0.0314765)
(0.891719 0.0676682 0.0853394)
(0.960756 0.059189 0.0891304)
(1.06178 0.101444 0.0863614)
(0.954106 0.052258 0.117766)
(1.06627 0.171586 0.167011)
(0.604271 0.0827639 0.0745447)
(1.0457 0.183574 0.126285)
(0.627301 0.0764651 0.0875202)
(1.19996 5.82455e-07 6.74416e-06)
(1.19997 2.48842e-06 6.51913e-06)
(1.2 2.48632e-06 1.2021e-05)
(1.19996 3.7322e-06 6.51867e-06)
(1.19997 5.83905e-07 6.27327e-06)
(1.19993 3.27004e-05 9.44766e-05)
(1.19993 4.27003e-05 9.25502e-05)
(1.20001 2.61622e-05 7.61017e-05)
(1.20001 3.87939e-05 0.00010418)
(1.19993 4.62249e-05 9.24093e-05)
(1.19993 3.22696e-05 8.95429e-05)
(1.19975 6.4644e-05 0.000136903)
(1.19976 6.47963e-05 0.000135112)
(1.2 6.20867e-05 0.000132719)
(1.19999 6.72513e-05 0.000138525)
(1.19975 7.7865e-05 0.000134745)
(1.19976 6.42951e-05 0.000131904)
(1.1999 9.29929e-05 0.000180148)
(1.1999 8.81443e-05 0.000178196)
(1.19996 8.8284e-05 0.000170757)
(1.19995 9.68959e-05 0.000185476)
(1.19991 0.000106601 0.000176989)
(1.19992 9.17797e-05 0.000174107)
(1.19988 0.00013568 0.000260576)
(1.19989 0.000124751 0.000258099)
(1.19991 0.000128398 0.000244875)
(1.19989 0.00014092 0.000270421)
(1.1999 0.000151222 0.000255501)
(1.19991 0.000133071 0.000251782)
(1.1998 0.00019885 0.000393049)
(1.19981 0.000179638 0.000389794)
(1.19983 0.000187416 0.0003683)
(1.19981 0.000206642 0.000409462)
(1.19983 0.000218701 0.000385224)
(1.19984 0.000194263 0.000380155)
(1.19967 0.000295724 0.000606531)
(1.19969 0.00026458 0.000601618)
(1.19972 0.000277809 0.000566695)
(1.19968 0.000306967 0.000633019)
(1.19972 0.000322241 0.000593471)
(1.19974 0.000287551 0.000586103)
(1.19948 0.000447175 0.000951121)
(1.19951 0.000397819 0.000944118)
(1.19956 0.000417582 0.000886952)
(1.19951 0.000463987 0.000993437)
(1.19957 0.000483228 0.000928807)
(1.19959 0.000431824 0.000918244)
(1.19921 0.000694043 0.00150177)
(1.19926 0.000615432 0.00149182)
(1.19933 0.000643528 0.00139883)
(1.19926 0.000720348 0.00156893)
(1.19935 0.000744498 0.00146311)
(1.19939 0.000665276 0.00144849)
(1.1988 0.00111502 0.00238075)
(1.19888 0.000987393 0.00237032)
(1.199 0.00102412 0.00221662)
(1.1989 0.00115805 0.00248882)
(1.19903 0.00118461 0.00231326)
(1.1991 0.00105788 0.00229671)
(1.19819 0.00188905 0.00379396)
(1.1983 0.00168279 0.00379211)
(1.19851 0.00171197 0.00353173)
(1.19835 0.00196848 0.0039724)
(1.19859 0.00198408 0.00367257)
(1.19866 0.00176937 0.00366451)
(1.19723 0.00348687 0.0060869)
(1.19737 0.00318049 0.00613219)
(1.19774 0.00310043 0.00567426)
(1.19749 0.0036565 0.00640134)
(1.19797 0.00362652 0.00585678)
(1.19801 0.00321113 0.00590906)
(1.19582 0.00727155 0.00987364)
(1.19594 0.00703208 0.0101189)
(1.19662 0.00629947 0.00925613)
(1.19634 0.00769068 0.0104921)
(1.19744 0.00748179 0.00938494)
(1.19715 0.0065358 0.00971967)
(1.19532 0.0187655 0.0171906)
(1.19614 0.0176336 0.0159623)
(1.19662 0.014794 0.0152761)
(1.19782 0.0186665 0.0172024)
(1.19821 0.0152504 0.0162362)
(1.19949 0.0172047 0.0148224)
(1.21321 0.0512771 0.0270404)
(1.21836 0.0430023 0.0213583)
(1.21294 0.036161 0.0222636)
(1.22542 0.0420146 0.022312)
(1.21844 0.0351756 0.0233702)
(1.21975 0.0358653 0.0193084)
(1.19996 3.42255e-06 6.72524e-06)
(1.19996 3.26704e-06 6.51535e-06)
(1.2 7.83683e-06 1.19955e-05)
(1.19996 3.59238e-06 6.50093e-06)
(1.19996 3.40977e-06 6.28688e-06)
(1.19993 6.33757e-05 9.40132e-05)
(1.19993 6.14473e-05 9.1919e-05)
(1.2 5.2045e-05 7.57637e-05)
(1.2 7.32388e-05 0.00010343)
(1.19993 6.57745e-05 9.15713e-05)
(1.19993 6.27332e-05 8.90033e-05)
(1.19976 0.000112918 0.000134554)
(1.19976 0.000108512 0.000133116)
(1.2 0.000108836 0.000130829)
(1.2 0.000116944 0.000136081)
(1.19976 0.000116281 0.000132309)
(1.19977 0.000112131 0.000130031)
(1.19993 0.00015833 0.000173708)
(1.19993 0.000151364 0.000172233)
(1.19999 0.000150757 0.00016514)
(1.19998 0.00016446 0.000178392)
(1.19994 0.000162374 0.000170201)
(1.19994 0.000156292 0.000167987)
(1.19994 0.000227035 0.000246364)
(1.19994 0.00021617 0.000244811)
(1.19996 0.000215116 0.000231883)
(1.19995 0.000235674 0.000255149)
(1.19996 0.000232391 0.000240609)
(1.19997 0.00022282 0.000237928)
(1.1999 0.000330099 0.000368497)
(1.19991 0.000313884 0.0003668)
(1.19993 0.000311601 0.000345352)
(1.19992 0.000342681 0.000383249)
(1.19994 0.00033686 0.000359387)
(1.19994 0.000322665 0.000356041)
(1.19985 0.000486485 0.000563093)
(1.19985 0.000461706 0.000561098)
(1.19988 0.000457585 0.000526608)
(1.19987 0.000504667 0.000586473)
(1.19991 0.000495199 0.000548072)
(1.19991 0.000473425 0.000543592)
(1.19977 0.000727371 0.00087021)
(1.19978 0.000688566 0.000868856)
(1.19983 0.000680688 0.00081292)
(1.19981 0.00075378 0.000906844)
(1.19986 0.000737258 0.000844884)
(1.19987 0.000703347 0.000839797)
(1.19966 0.00110508 0.00134843)
(1.19968 0.00104489 0.00134923)
(1.19975 0.00102875 0.00125886)
(1.19974 0.00114248 0.00140431)
(1.19981 0.00111304 0.00130485)
(1.19982 0.00106062 0.00130001)
(1.19956 0.00169929 0.00208624)
(1.19959 0.00160889 0.00209381)
(1.19969 0.00157235 0.00194744)
(1.19968 0.00175269 0.00217054)
(1.19979 0.00169409 0.0020108)
(1.1998 0.00161616 0.00200967)
(1.19954 0.00266225 0.00320911)
(1.19956 0.00253363 0.00323459)
(1.19971 0.00244546 0.0029973)
(1.19975 0.00273909 0.00333249)
(1.19988 0.00261391 0.00307823)
(1.1999 0.00250572 0.00308869)
(1.19986 0.00424313 0.00485496)
(1.19985 0.00409633 0.00492685)
(1.20004 0.00387081 0.00454627)
(1.20024 0.00434854 0.00502485)
(1.20037 0.00406611 0.00463233)
(1.20038 0.00394837 0.00467265)
(1.20143 0.00674605 0.00707037)
(1.20132 0.00672691 0.00725118)
(1.20144 0.00613935 0.00666666)
(1.20216 0.00685228 0.00725964)
(1.20209 0.00621359 0.00671506)
(1.20208 0.00620952 0.00680942)
(1.20695 0.00981858 0.0092398)
(1.20663 0.0105385 0.00962855)
(1.20614 0.00909618 0.00889064)
(1.20836 0.00970855 0.0092262)
(1.20729 0.0085068 0.00880816)
(1.20732 0.00899833 0.00889233)
(1.2214 0.00962967 0.00787285)
(1.22082 0.0122067 0.00867703)
(1.21863 0.00973855 0.00828666)
(1.22294 0.00867831 0.00688058)
(1.21969 0.00791523 0.0079614)
(1.21991 0.00891521 0.00753378)
(1.19996 4.1446e-06 6.62391e-06)
(1.19996 4.12327e-06 6.43411e-06)
(1.2 8.97684e-06 1.18079e-05)
(1.19996 4.11366e-06 6.19213e-06)
(1.19993 7.51407e-05 9.14022e-05)
(1.19993 7.4077e-05 8.96e-05)
(1.20001 6.12698e-05 7.36632e-05)
(1.20001 8.67638e-05 0.000100732)
(1.19993 7.43478e-05 8.66233e-05)
(1.19978 0.000133438 0.000130617)
(1.19978 0.000131504 0.00012941)
(1.20002 0.00012863 0.000127351)
(1.20002 0.000137912 0.000131631)
(1.19979 0.000132258 0.000126205)
(1.19997 0.00018441 0.00016416)
(1.19998 0.000181743 0.000163242)
(1.20003 0.000175626 0.000156703)
(1.20003 0.000191637 0.000168197)
(1.19999 0.000181955 0.00015909)
(1.20003 0.000266228 0.00022827)
(1.20003 0.000261726 0.000227089)
(1.20004 0.000252306 0.000215123)
(1.20005 0.000276449 0.000235784)
(1.20005 0.000261579 0.000220117)
(1.20005 0.000386476 0.000335277)
(1.20005 0.000378707 0.000334682)
(1.20006 0.000364881 0.000314871)
(1.20007 0.000401097 0.000347771)
(1.20009 0.000377861 0.000323861)
(1.20008 0.000566301 0.000505038)
(1.20007 0.000554333 0.000504899)
(1.2001 0.000533157 0.0004728)
(1.20011 0.000586824 0.000524664)
(1.20013 0.00055112 0.000487016)
(1.20012 0.000838287 0.000763177)
(1.20012 0.000819018 0.000765551)
(1.20015 0.000785727 0.000715093)
(1.20017 0.000866799 0.00079269)
(1.2002 0.000810702 0.000736441)
(1.20021 0.00124579 0.00115586)
(1.20021 0.00121647 0.0011621)
(1.20026 0.00116389 0.00108182)
(1.20029 0.00128348 0.00119911)
(1.20033 0.00119682 0.00111351)
(1.20039 0.00184018 0.00173751)
(1.20039 0.00179747 0.00175211)
(1.20045 0.00171467 0.00162687)
(1.20052 0.00188585 0.00179905)
(1.20057 0.00175421 0.00167144)
(1.20076 0.00268586 0.00258425)
(1.20076 0.00262995 0.00261376)
(1.20083 0.00249566 0.00242053)
(1.20098 0.00273245 0.0026667)
(1.20103 0.00253652 0.00247946)
(1.20154 0.00378995 0.00378787)
(1.20158 0.0037346 0.00383484)
(1.2016 0.0035271 0.00354577)
(1.2019 0.00380876 0.00389197)
(1.20192 0.00354738 0.00361625)
(1.20311 0.00486009 0.00551862)
(1.20329 0.0048591 0.00553575)
(1.20314 0.00459134 0.0051348)
(1.20371 0.00477597 0.00563676)
(1.20366 0.00453677 0.0051949)
(1.20633 0.00449634 0.00835435)
(1.20696 0.00485162 0.00800013)
(1.20626 0.00465961 0.00753462)
(1.20756 0.00423338 0.00833415)
(1.2072 0.00444572 0.00741819)
(1.21614 -0.00154858 0.0131204)
(1.21668 0.00117038 0.0106952)
(1.21481 0.00123457 0.010875)
(1.21907 4.73835e-05 0.0108119)
(1.21608 0.00116519 0.00915279)
(1.19994 2.4197e-05 3.96959e-06)
(1.19998 4.18964e-05 5.62583e-06)
(1.19996 2.67209e-05 3.2665e-06)
(1.19994 2.42749e-05 2.97749e-06)
(1.19969 7.10429e-05 6.76143e-05)
(1.1998 7.49338e-05 5.00627e-05)
(1.19975 6.50098e-05 7.23192e-05)
(1.19989 6.50772e-05 6.27749e-05)
(1.1997 7.11811e-05 5.79148e-05)
(1.19939 4.23189e-05 0.000105954)
(1.19964 4.34564e-05 9.8197e-05)
(1.19961 4.17083e-05 0.000103725)
(1.19971 4.40843e-05 0.00010079)
(1.19939 4.25782e-05 9.43021e-05)
(1.19946 3.77097e-05 0.000144943)
(1.19952 3.83128e-05 0.000132173)
(1.1995 3.73607e-05 0.000144804)
(1.19987 4.52634e-05 0.00013837)
(1.19947 3.78791e-05 0.000130495)
(1.19938 3.691e-05 0.000212533)
(1.19941 3.6732e-05 0.000193412)
(1.19938 3.69374e-05 0.000213617)
(1.19988 5.05273e-05 0.000202762)
(1.1994 3.68014e-05 0.000192052)
(1.19927 3.94918e-05 0.000322356)
(1.1993 3.88171e-05 0.000292299)
(1.19927 3.99379e-05 0.000325173)
(1.19984 6.13117e-05 0.000307223)
(1.1993 3.90782e-05 0.000291377)
(1.19914 4.6263e-05 0.000499492)
(1.19918 4.48987e-05 0.000451522)
(1.19915 4.70579e-05 0.000504955)
(1.19979 7.9619e-05 0.000475743)
(1.1992 4.55895e-05 0.000451265)
(1.199 5.96603e-05 0.000786633)
(1.19906 5.6525e-05 0.000709917)
(1.19903 6.11928e-05 0.000796026)
(1.19974 0.000110193 0.000747771)
(1.19909 5.77317e-05 0.000710315)
(1.19883 8.50303e-05 0.00124933)
(1.19893 7.94181e-05 0.00112594)
(1.19889 8.71956e-05 0.0012658)
(1.19969 0.000162819 0.00118627)
(1.19898 8.12323e-05 0.00112775)
(1.19859 0.000133034 0.00201027)
(1.19876 0.000120787 0.0018085)
(1.1987 0.00013756 0.00204179)
(1.19963 0.000253312 0.00190471)
(1.19886 0.000124062 0.00181482)
(1.19818 0.000249499 0.00330969)
(1.19848 0.00021676 0.00296781)
(1.19837 0.000259541 0.00337683)
(1.19956 0.00043754 0.00311822)
(1.19866 0.000222598 0.00298785)
(1.19718 0.000602034 0.00570094)
(1.19783 0.000491542 0.00507324)
(1.19753 0.00062738 0.0058623)
(1.19944 0.000895024 0.00528799)
(1.19815 0.00050343 0.00513143)
(1.19418 0.00181355 0.0108099)
(1.1959 0.00139161 0.00941642)
(1.195 0.00184132 0.0112212)
(1.19916 0.00221596 0.0095982)
(1.19662 0.00139312 0.00955101)
(1.18584 0.00593525 0.0246374)
(1.19097 0.00424439 0.020239)
(1.18947 0.00548781 0.0250982)
(1.19966 0.00619218 0.0195548)
(1.19336 0.00400217 0.0200437)
(1.18371 0.0145672 0.0672376)
(1.19522 0.00928883 0.0466365)
(1.20916 0.00903809 0.0541643)
(1.21784 0.012662 0.0411972)
(1.20109 0.0076485 0.0395908)
(1.19997 6.22416e-07 4.32132e-06)
(1.19997 2.61182e-06 3.53564e-06)
(1.2 2.45265e-06 6.2028e-06)
(1.19997 3.70383e-06 3.5697e-06)
(1.19997 6.58115e-07 3.12363e-06)
(1.19994 3.11216e-05 6.74997e-05)
(1.19994 4.16377e-05 6.23623e-05)
(1.20002 2.49075e-05 4.96374e-05)
(1.20002 3.73393e-05 7.16758e-05)
(1.19994 4.50079e-05 6.21484e-05)
(1.19994 3.0686e-05 5.77041e-05)
(1.19979 6.3654e-05 0.000105888)
(1.19979 6.42634e-05 0.000100442)
(1.20003 6.12389e-05 9.78483e-05)
(1.20003 6.61743e-05 0.00010365)
(1.19979 7.69407e-05 0.000100179)
(1.19979 6.34057e-05 9.40622e-05)
(1.19996 8.88531e-05 0.00014393)
(1.19997 8.48507e-05 0.000137693)
(1.20002 8.49307e-05 0.000131685)
(1.20002 9.23741e-05 0.000143671)
(1.19997 0.000102445 0.000137032)
(1.19998 8.81882e-05 0.000129959)
(1.19999 0.000125854 0.00020769)
(1.19999 0.000116236 0.000199242)
(1.2 0.000119551 0.000189175)
(1.2 0.000130513 0.000208559)
(1.2 0.00014088 0.000197158)
(1.20001 0.000123764 0.000187762)
(1.19996 0.000181794 0.000313546)
(1.19997 0.000165015 0.000300787)
(1.19999 0.00017178 0.000284099)
(1.19998 0.000188859 0.000315992)
(1.19999 0.000200541 0.000297165)
(1.2 0.00017816 0.000283119)
(1.19993 0.000264941 0.000483336)
(1.19995 0.000237598 0.000464237)
(1.19997 0.000249958 0.000437275)
(1.19996 0.000274304 0.000488183)
(1.19998 0.000289575 0.00045769)
(1.19999 0.000258375 0.000436695)
(1.1999 0.000389782 0.000755243)
(1.19993 0.00034711 0.000725785)
(1.19995 0.000365613 0.000682094)
(1.19995 0.000403454 0.000763398)
(1.19997 0.000422582 0.000713864)
(1.19999 0.000377834 0.000681839)
(1.19988 0.000586121 0.00118961)
(1.19992 0.000519589 0.00114479)
(1.19995 0.000546166 0.00107328)
(1.19996 0.000605595 0.00120346)
(1.19999 0.000629741 0.0011221)
(1.20002 0.000563395 0.00107375)
(1.19988 0.000899897 0.00188654)
(1.19995 0.00079483 0.00181957)
(1.19999 0.000831315 0.00170058)
(1.20001 0.000926719 0.00190994)
(1.20006 0.000956093 0.00177397)
(1.20011 0.000854268 0.0017023)
(1.19995 0.00143196 0.00301618)
(1.20006 0.00126238 0.00292075)
(1.20012 0.00130338 0.00271562)
(1.20018 0.00146949 0.00305816)
(1.20025 0.00149798 0.00282197)
(1.20032 0.00133312 0.00272124)
(1.20018 0.00241724 0.00488909)
(1.20036 0.0021437 0.00476017)
(1.20044 0.00215236 0.00439127)
(1.20058 0.00246355 0.00496444)
(1.2007 0.00247946 0.00452725)
(1.2008 0.00218418 0.00440305)
(1.20096 0.004389 0.00808172)
(1.20126 0.00398536 0.00790585)
(1.20132 0.00378444 0.00721706)
(1.20175 0.00439669 0.00818372)
(1.20193 0.00439126 0.00729635)
(1.202 0.00377882 0.00721096)
(1.20434 0.00837663 0.0133033)
(1.20473 0.00790682 0.0130514)
(1.2044 0.00691506 0.0117693)
(1.2061 0.00796327 0.0130904)
(1.20587 0.00790849 0.0113252)
(1.20576 0.00664564 0.0114817)
(1.21843 0.0132026 0.0176303)
(1.21892 0.0121397 0.0172303)
(1.21628 0.0103305 0.0155038)
(1.22183 0.0097736 0.0147011)
(1.21837 0.0104535 0.0131571)
(1.21757 0.00910766 0.013359)
(1.19996 3.36517e-06 4.44746e-06)
(1.19996 3.21195e-06 3.65018e-06)
(1.2 7.72238e-06 6.39875e-06)
(1.19996 3.53608e-06 3.64285e-06)
(1.19996 3.3598e-06 3.14244e-06)
(1.19993 6.08205e-05 6.69806e-05)
(1.19994 5.92595e-05 6.14696e-05)
(1.20001 5.00976e-05 4.90761e-05)
(1.20002 7.06543e-05 7.06463e-05)
(1.19994 6.327e-05 6.1091e-05)
(1.19994 6.01608e-05 5.76153e-05)
(1.19979 0.000110581 0.000104683)
(1.19979 0.000106626 9.89872e-05)
(1.20003 0.000106845 9.63853e-05)
(1.20003 0.000114504 0.000102136)
(1.1998 0.000113981 9.84864e-05)
(1.1998 0.0001101 9.27301e-05)
(1.19999 0.000150988 0.000139671)
(1.19999 0.000144734 0.000134078)
(1.20004 0.000144487 0.000128328)
(1.20005 0.000156532 0.00013902)
(1.2 0.000154994 0.000132641)
(1.2 0.000149545 0.000126368)
(1.20004 0.000211239 0.000196626)
(1.20004 0.000201349 0.000189321)
(1.20006 0.000200948 0.000179621)
(1.20006 0.000219064 0.000197157)
(1.20006 0.000216585 0.000186135)
(1.20006 0.000208044 0.000178038)
(1.20006 0.000302151 0.000293114)
(1.20006 0.000287524 0.000282395)
(1.20007 0.000286163 0.00026581)
(1.20008 0.00031323 0.000294935)
(1.20009 0.000308874 0.000276536)
(1.20009 0.000296276 0.000264567)
(1.20009 0.000437252 0.000447029)
(1.20009 0.000415311 0.00043141)
(1.20011 0.000412546 0.000404773)
(1.20012 0.000452893 0.000450523)
(1.20013 0.000445615 0.000420913)
(1.20014 0.000426732 0.000403377)
(1.20014 0.000638029 0.000689546)
(1.20015 0.000604662 0.000666691)
(1.20017 0.000599929 0.000623731)
(1.20019 0.000659588 0.000695477)
(1.20021 0.000647726 0.000648046)
(1.20022 0.00061935 0.00062246)
(1.20024 0.00093936 0.00106611)
(1.20025 0.00088844 0.00103339)
(1.20028 0.000879006 0.000964151)
(1.20033 0.00096753 0.00107494)
(1.20036 0.000947835 0.000998785)
(1.20036 0.000904702 0.000961936)
(1.20045 0.00138809 0.00164474)
(1.20047 0.00131197 0.00159976)
(1.2005 0.00129127 0.00148752)
(1.20059 0.00142289 0.0016563)
(1.20062 0.00138615 0.00153419)
(1.20063 0.00132246 0.00148262)
(1.20087 0.00206945 0.00251972)
(1.2009 0.00195745 0.00246337)
(1.20094 0.00190911 0.00227982)
(1.2011 0.00210698 0.00253225)
(1.20112 0.00203383 0.00233655)
(1.20114 0.00194256 0.00226865)
(1.20176 0.00310372 0.00379666)
(1.2018 0.0029498 0.00373985)
(1.20181 0.00283389 0.00344092)
(1.20215 0.00312525 0.00379523)
(1.20212 0.00297379 0.0034901)
(1.20214 0.00285387 0.00340926)
(1.20376 0.00458513 0.00547193)
(1.20377 0.00441072 0.00544916)
(1.20366 0.00414404 0.00498081)