/*--------------------------------*- C++ -*----------------------------------*\
| =========                 |                                                 |
| \\      /  F ield         | OpenFOAM: The Open Source CFD Toolbox           |
|  \\    /   O peration     | Version:  2012                                  |
|   \\  /    A nd           | Website:  www.openfoam.com                      |
|    \\/     M anipulation  |                                                 |
\*---------------------------------------------------------------------------*/
FoamFile
{
    version     2.0;
    format      ascii;
    class       surfaceVectorField;
    location    "0.106/fluid";
    object      Uf_0;
}
// * * * * * * * * * * * * * * * * * * * * * * * * * * * * * * * * * * * * * //

dimensions      [0 1 -1 0 0 0 0];


internalField   nonuniform List<vector> 
47156
(
(1.19994 2.32624e-05 7.52114e-06)
(1.19998 4.02665e-05 1.38842e-05)
(1.19996 2.56547e-05 7.56527e-06)
(1.19994 2.33445e-05 7.35523e-06)
(1.19968 6.80846e-05 0.000100078)
(1.1998 7.19337e-05 8.35859e-05)
(1.19974 6.22808e-05 0.000112646)
(1.19987 6.32837e-05 0.000101182)
(1.19968 6.84505e-05 0.00010046)
(1.19933 4.09738e-05 0.000139973)
(1.1996 4.19954e-05 0.000139736)
(1.19955 4.04382e-05 0.000145022)
(1.19964 4.3721e-05 0.000141823)
(1.19934 4.1186e-05 0.000142134)
(1.19934 3.79617e-05 0.000185504)
(1.19942 3.81231e-05 0.000180009)
(1.19938 3.78377e-05 0.000195983)
(1.19975 4.71311e-05 0.000187517)
(1.19936 3.79836e-05 0.000188138)
(1.19918 3.80521e-05 0.000268035)
(1.19922 3.7923e-05 0.000258681)
(1.19917 3.798e-05 0.000285678)
(1.19966 5.50421e-05 0.000270963)
(1.1992 3.78057e-05 0.000273131)
(1.19892 4.10467e-05 0.000405856)
(1.19898 4.01028e-05 0.000389664)
(1.19891 4.19895e-05 0.000433826)
(1.19949 6.83282e-05 0.00041008)
(1.19897 4.0788e-05 0.00041272)
(1.19858 5.35534e-05 0.000632172)
(1.19866 5.10848e-05 0.000604914)
(1.19856 5.53112e-05 0.00067751)
(1.19922 9.67982e-05 0.000637716)
(1.19865 5.25495e-05 0.000642593)
(1.19806 7.74651e-05 0.00100065)
(1.19819 7.26248e-05 0.000956201)
(1.19804 8.06068e-05 0.00107382)
(1.19881 0.000145565 0.00100815)
(1.19818 7.50624e-05 0.00101694)
(1.19726 0.000121734 0.00159948)
(1.19747 0.000112626 0.00152541)
(1.19724 0.000127818 0.00171671)
(1.19818 0.000231281 0.00160885)
(1.19747 0.000117154 0.00162247)
(1.19594 0.000221792 0.00257901)
(1.19631 0.0001995 0.00245487)
(1.1959 0.00023761 0.0027685)
(1.19716 0.000404701 0.00258586)
(1.19629 0.000210316 0.00261195)
(1.1935 0.000505316 0.00418841)
(1.19418 0.00044029 0.00398256)
(1.19335 0.000558675 0.00449925)
(1.19539 0.000828578 0.0041825)
(1.1941 0.00047513 0.00424241)
(1.18801 0.00146505 0.00681706)
(1.18946 0.0012474 0.0064975)
(1.18738 0.00168045 0.00734791)
(1.19194 0.00208816 0.00678208)
(1.18906 0.00138231 0.00695305)
(1.17214 0.00537665 0.0110034)
(1.17603 0.00449337 0.0106312)
(1.16914 0.00639194 0.0120145)
(1.18348 0.00682756 0.0109467)
(1.17404 0.0051204 0.0115606)
(1.11151 0.0230081 0.0168721)
(1.12536 0.0191849 0.0170884)
(1.09585 0.0278985 0.0189661)
(1.15478 0.0290748 0.0172336)
(1.11491 0.022267 0.0193975)
(0.835921 0.0848476 0.0178239)
(0.888626 0.0785526 0.021755)
(1.02115 0.136195 0.0219324)
(0.838862 0.0836353 0.0253289)
(0.961201 0.206761 0.0351947)
(0.546833 0.0878289 0.0134316)
(0.961293 0.207313 0.0157897)
(0.547459 0.0875709 0.00838435)
(1.19996 4.44514e-07 7.58537e-06)
(1.19996 2.32912e-06 7.54687e-06)
(1.2 2.44303e-06 1.40127e-05)
(1.19996 3.47328e-06 7.53638e-06)
(1.19996 4.3594e-07 7.50231e-06)
(1.19992 3.42093e-05 0.000101177)
(1.19991 4.36616e-05 0.000101862)
(1.2 2.74402e-05 8.47329e-05)
(1.2 4.04537e-05 0.000113527)
(1.19991 4.77214e-05 0.000101777)
(1.19992 3.38317e-05 0.000101662)
(1.19971 6.6979e-05 0.000138636)
(1.19971 6.64585e-05 0.000140515)
(1.19996 6.41097e-05 0.000138387)
(1.19995 6.96207e-05 0.000143625)
(1.19971 8.0034e-05 0.00013974)
(1.19972 6.62276e-05 0.000140724)
(1.19983 9.83384e-05 0.000182552)
(1.19984 9.278e-05 0.000185231)
(1.1999 9.30431e-05 0.000177326)
(1.19988 0.00010273 0.000192689)
(1.19984 0.000112136 0.000183855)
(1.19985 9.69566e-05 0.000185402)
(1.19977 0.000146049 0.000262129)
(1.19978 0.000133922 0.000266397)
(1.1998 0.000138065 0.000253024)
(1.19977 0.000152241 0.00027898)
(1.19979 0.000162539 0.000263879)
(1.1998 0.000143519 0.000266824)
(1.19961 0.000217385 0.000395714)
(1.19962 0.000196089 0.000402241)
(1.19966 0.00020486 0.00037994)
(1.19961 0.000226615 0.000422859)
(1.19964 0.000238765 0.000397695)
(1.19966 0.00021282 0.000402417)
(1.19937 0.000329065 0.000613406)
(1.19939 0.000294755 0.000623725)
(1.19944 0.000308819 0.000587416)
(1.19937 0.000343211 0.000656655)
(1.19943 0.000358413 0.000615531)
(1.19944 0.00032084 0.000623244)
(1.19901 0.000509212 0.00096382)
(1.19904 0.000454123 0.000980861)
(1.19912 0.000475291 0.000921527)
(1.19901 0.000531584 0.00103319)
(1.1991 0.000551237 0.000965615)
(1.19913 0.000493919 0.000979014)
(1.19845 0.000811473 0.00152817)
(1.19849 0.000721952 0.00155635)
(1.19862 0.000752306 0.0014591)
(1.19846 0.000848375 0.00163786)
(1.1986 0.000873221 0.00152717)
(1.19864 0.000782227 0.00155017)
(1.19758 0.00134544 0.0024335)
(1.19765 0.00119915 0.00248009)
(1.19785 0.00123692 0.00231982)
(1.1976 0.00141133 0.00260613)
(1.19784 0.00143668 0.00242327)
(1.19789 0.00128852 0.00246334)
(1.19624 0.00235859 0.00387734)
(1.19631 0.002126 0.00395816)
(1.19667 0.00214562 0.00369364)
(1.19628 0.00249125 0.0041462)
(1.19669 0.00249888 0.00384415)
(1.19673 0.0022444 0.00391943)
(1.19418 0.00450919 0.0061101)
(1.1942 0.00419802 0.00626552)
(1.19483 0.00404648 0.00583417)
(1.19423 0.00482393 0.00651826)
(1.19503 0.00475614 0.00602678)
(1.19492 0.00426997 0.00618849)
(1.19135 0.0097383 0.00923959)
(1.191 0.00972617 0.00960492)
(1.19216 0.0086022 0.00893095)
(1.19146 0.0106326 0.00982736)
(1.19318 0.010221 0.00907547)
(1.19232 0.00920679 0.00949098)
(1.1887 0.0270122 0.0133621)
(1.19139 0.0243539 0.0123411)
(1.19104 0.0212456 0.0124067)
(1.19261 0.0271099 0.0130235)
(1.19205 0.0231231 0.013251)
(1.195 0.0244236 0.0121425)
(1.21498 0.0735669 0.013128)
(1.22324 0.0592983 0.010936)
(1.2145 0.0532653 0.012367)
(1.23257 0.0615621 0.0106636)
(1.22142 0.0568779 0.013199)
(1.22423 0.0519036 0.0107498)
(1.19996 3.27897e-06 7.5179e-06)
(1.19996 3.11835e-06 7.5027e-06)
(1.2 7.8494e-06 1.39555e-05)
(1.19996 3.45416e-06 7.48351e-06)
(1.19996 3.26139e-06 7.45774e-06)
(1.19991 6.59243e-05 0.000100308)
(1.19991 6.37727e-05 0.000101102)
(1.2 5.42346e-05 8.41732e-05)
(1.19999 7.58362e-05 0.000112353)
(1.19991 6.83599e-05 0.000100672)
(1.19991 6.5264e-05 0.000100903)
(1.19972 0.000116897 0.000135024)
(1.19972 0.000112162 0.000136998)
(1.19997 0.000112299 0.000135125)
(1.19996 0.000121325 0.00013975)
(1.19972 0.000120253 0.000135898)
(1.19973 0.000115812 0.000137272)
(1.19986 0.000167059 0.000175319)
(1.19986 0.000159599 0.000178349)
(1.19992 0.000158704 0.00017066)
(1.19991 0.000173962 0.000184867)
(1.19987 0.000171402 0.000176119)
(1.19988 0.000164823 0.000178243)
(1.19983 0.000243663 0.000249473)
(1.19984 0.000232442 0.000254102)
(1.19986 0.00023073 0.000240936)
(1.19984 0.000253782 0.000264925)
(1.19986 0.000249597 0.000250096)
(1.19986 0.000239644 0.000253478)
(1.19973 0.000359752 0.00037216)
(1.19974 0.000342505 0.000379727)
(1.19977 0.000339389 0.000357748)
(1.19974 0.000374844 0.000397066)
(1.19977 0.000367754 0.000372473)
(1.19978 0.000352472 0.000378303)
(1.19958 0.000540237 0.000569659)
(1.19958 0.000513205 0.000582324)
(1.19963 0.000507535 0.000546451)
(1.19959 0.000562628 0.000608763)
(1.19964 0.000550596 0.000568834)
(1.19964 0.000526708 0.000578924)
(1.19934 0.000826297 0.000882411)
(1.19935 0.000783856 0.000903637)
(1.19943 0.000772461 0.000845111)
(1.19936 0.000860805 0.00094387)
(1.19945 0.000839221 0.000878913)
(1.19945 0.000801513 0.000896123)
(1.19901 0.00128846 0.00137606)
(1.19901 0.00122271 0.00141137)
(1.19913 0.00119893 0.00131636)
(1.19904 0.0013413 0.00147055)
(1.19917 0.00130076 0.00136582)
(1.19917 0.00124282 0.00139497)
(1.19855 0.00203963 0.00214328)
(1.19855 0.00194113 0.00220236)
(1.19873 0.00188851 0.00204826)
(1.19861 0.0021216 0.00228654)
(1.1988 0.00204049 0.00211779)
(1.1988 0.00195493 0.00216758)
(1.198 0.00329105 0.00331848)
(1.19798 0.00315708 0.00341796)
(1.19826 0.00303112 0.00317033)
(1.19814 0.00342148 0.00352906)
(1.19841 0.00324751 0.00326236)
(1.19839 0.00313524 0.00334735)
(1.19769 0.00537476 0.00503998)
(1.1976 0.00525833 0.00520347)
(1.19796 0.00493808 0.00482232)
(1.19799 0.0055788 0.00532568)
(1.19829 0.0051872 0.00493051)
(1.19824 0.00510138 0.00506949)
(1.19884 0.00858625 0.00725056)
(1.19856 0.00877916 0.00751373)
(1.19884 0.00793937 0.00699965)
(1.19955 0.00884266 0.00757632)
(1.19954 0.00796421 0.00709589)
(1.19946 0.00816769 0.00730788)
(1.20568 0.0117499 0.00901395)
(1.20507 0.0135788 0.00943463)
(1.2044 0.0112901 0.00899407)
(1.20746 0.0116896 0.00916972)
(1.2055 0.0100561 0.00907862)
(1.20589 0.0113941 0.00925381)
(1.22777 0.00903963 0.00684182)
(1.22613 0.0144828 0.00703607)
(1.22311 0.00993367 0.00732763)
(1.23036 0.00832471 0.00551859)
(1.22439 0.00602377 0.00727435)
(1.22585 0.00927909 0.00751497)
(1.19996 4.05779e-06 7.41383e-06)
(1.19996 4.03672e-06 7.41174e-06)
(1.2 9.06029e-06 1.375e-05)
(1.19996 4.03572e-06 7.35952e-06)
(1.19991 7.89422e-05 9.81118e-05)
(1.19991 7.78039e-05 9.89429e-05)
(1.2 6.44207e-05 8.2371e-05)
(1.2 9.10613e-05 0.000109543)
(1.19992 7.81632e-05 9.84235e-05)
(1.19974 0.000137607 0.0001302)
(1.19974 0.000135548 0.000132348)
(1.19999 0.000132673 0.000130649)
(1.19998 0.000142445 0.000134639)
(1.19975 0.000136388 0.000132732)
(1.19991 0.000195198 0.000165569)
(1.19991 0.000192366 0.000168656)
(1.19997 0.000185362 0.00016158)
(1.19997 0.000203313 0.000174034)
(1.19993 0.000192502 0.000168179)
(1.19993 0.000285408 0.000231885)
(1.19993 0.0002807 0.00023667)
(1.19995 0.000270102 0.000224267)
(1.19995 0.000297287 0.000245546)
(1.19996 0.000280608 0.000235388)
(1.1999 0.000421281 0.000340019)
(1.1999 0.000413475 0.00034802)
(1.19992 0.000397546 0.000327372)
(1.19991 0.000438616 0.000362062)
(1.19994 0.000412662 0.000345499)
(1.19984 0.000629176 0.000510394)
(1.19984 0.000616468 0.00052389)
(1.19988 0.000591499 0.000490991)
(1.19986 0.000654637 0.000544034)
(1.1999 0.000613353 0.000518957)
(1.19976 0.000952489 0.000775594)
(1.19976 0.000932638 0.000797642)
(1.19982 0.000892098 0.000744284)
(1.1998 0.000989949 0.000827216)
(1.19985 0.000924135 0.000787212)
(1.19967 0.00144786 0.0011824)
(1.19966 0.00141803 0.00121861)
(1.19975 0.00135257 0.00113415)
(1.19973 0.0015008 0.00125898)
(1.19981 0.00139746 0.0011979)
(1.19959 0.00219833 0.00179017)
(1.19957 0.00215553 0.00185014)
(1.19969 0.00204774 0.00171688)
(1.19969 0.0022698 0.00190202)
(1.19979 0.00210794 0.00180994)
(1.19959 0.00330635 0.00269224)
(1.19956 0.00325325 0.00278845)
(1.19972 0.00307595 0.00257991)
(1.19976 0.00339327 0.00285307)
(1.19989 0.00315027 0.00271389)
(1.19985 0.00478139 0.00401081)
(1.19986 0.00473521 0.00415374)
(1.20001 0.00446706 0.00384109)
(1.20014 0.00484657 0.00423417)
(1.20029 0.00453204 0.00402651)
(1.2005 0.00609386 0.00591347)
(1.20073 0.00610634 0.00610284)
(1.20071 0.00582539 0.0056716)
(1.20093 0.00596932 0.00626792)
(1.20115 0.00578474 0.00595772)
(1.20044 0.00362962 0.00894827)
(1.20167 0.00406425 0.00922469)
(1.20117 0.00440211 0.00870114)
(1.20076 0.00221562 0.00988565)
(1.20173 0.00378968 0.00941887)
(1.19339 -0.0412517 0.0146385)
(1.20372 -0.0274368 0.0144611)
(1.19605 -0.0272114 0.0153804)
(1.19311 -0.0552564 0.0173826)
(1.19595 -0.0346511 0.0205177)
(1.19994 2.38013e-05 6.32457e-06)
(1.19998 4.12152e-05 1.13587e-05)
(1.19996 2.63641e-05 6.33916e-06)
(1.19994 2.39574e-05 5.89341e-06)
(1.19968 6.95689e-05 9.4017e-05)
(1.1998 7.34693e-05 7.54848e-05)
(1.19974 6.36396e-05 0.000104129)
(1.19988 6.43351e-05 9.25698e-05)
(1.19968 6.99263e-05 8.93394e-05)
(1.19936 4.15978e-05 0.000137291)
(1.19962 4.26761e-05 0.000133003)
(1.19958 4.0939e-05 0.000138887)
(1.19968 4.37259e-05 0.000135325)
(1.19936 4.17427e-05 0.000132082)
(1.1994 3.77625e-05 0.000183234)
(1.19948 3.80556e-05 0.000173197)
(1.19944 3.74401e-05 0.000188876)
(1.19981 4.58415e-05 0.000180351)
(1.19942 3.76397e-05 0.000176812)
(1.19929 3.72337e-05 0.000266327)
(1.19932 3.71417e-05 0.000250313)
(1.19928 3.73482e-05 0.000276376)
(1.19978 5.24472e-05 0.000262513)
(1.19931 3.71672e-05 0.000257334)
(1.19911 4.02594e-05 0.000402793)
(1.19915 3.95715e-05 0.000377065)
(1.1991 4.10331e-05 0.000419956)
(1.19968 6.4722e-05 0.000397124)
(1.19915 4.01536e-05 0.00038955)
(1.19887 4.96061e-05 0.000626808)
(1.19894 4.76739e-05 0.000585153)
(1.19888 5.07349e-05 0.000654967)
(1.19953 8.77862e-05 0.000616649)
(1.19895 4.86136e-05 0.000605883)
(1.19856 6.77582e-05 0.000989221)
(1.19866 6.37615e-05 0.000921946)
(1.19857 7.01588e-05 0.00103443)
(1.19931 0.000126727 0.000971946)
(1.19868 6.56506e-05 0.000955341)
(1.19809 0.000102983 0.00157413)
(1.19825 9.5454e-05 0.00146545)
(1.19812 0.00010651 0.00164739)
(1.19899 0.000195622 0.00154405)
(1.19829 9.80874e-05 0.00151941)
(1.19734 0.000175478 0.00253001)
(1.19762 0.000157826 0.00235152)
(1.19739 0.000184984 0.00265291)
(1.19848 0.000325111 0.00247652)
(1.19768 0.000164172 0.00244247)
(1.19593 0.000377527 0.00413631)
(1.19644 0.00032592 0.00383968)
(1.19598 0.000407619 0.00435866)
(1.19759 0.000629718 0.00403223)
(1.19653 0.000343764 0.00400388)
(1.19252 0.00107024 0.00699591)
(1.1937 0.000886589 0.00648717)
(1.19243 0.00118806 0.00747058)
(1.19574 0.00151566 0.00676232)
(1.19374 0.000950491 0.00683291)
(1.18177 0.00392513 0.012911)
(1.18527 0.00313735 0.0119529)
(1.18079 0.00445926 0.0143044)
(1.19079 0.00478213 0.0122206)
(1.18494 0.00339702 0.0129245)
(1.13673 0.0173973 0.0292836)
(1.15112 0.0135908 0.0273287)
(1.13011 0.0200609 0.0354621)
(1.17227 0.0203263 0.026863)
(1.14888 0.0146409 0.0314628)
(0.891921 0.0676318 0.0853205)
(0.960923 0.0591507 0.0891107)
(1.06184 0.101407 0.0863389)
(0.954288 0.0522216 0.117742)
(1.06652 0.171568 0.166987)
(0.60443 0.0827563 0.0745424)
(1.04596 0.183562 0.126261)
(0.627456 0.0764559 0.0875172)
(1.19996 4.15902e-07 6.76743e-06)
(1.19996 2.3285e-06 6.5427e-06)
(1.2 2.34519e-06 1.20407e-05)
(1.19996 3.55429e-06 6.54212e-06)
(1.19996 4.17244e-07 6.29633e-06)
(1.19992 3.26856e-05 9.46385e-05)
(1.19992 4.26593e-05 9.27104e-05)
(1.20001 2.61311e-05 7.62626e-05)
(1.20001 3.87773e-05 0.000104293)
(1.19992 4.61915e-05 9.25698e-05)
(1.19993 3.22554e-05 8.97011e-05)
(1.19975 6.45899e-05 0.000136862)
(1.19975 6.47355e-05 0.000135072)
(1.2 6.20305e-05 0.000132671)
(1.19999 6.72033e-05 0.000138496)
(1.19975 7.77932e-05 0.000134706)
(1.19976 6.42423e-05 0.000131868)
(1.1999 9.29564e-05 0.000180149)
(1.1999 8.81009e-05 0.000178197)
(1.19996 8.82473e-05 0.000170756)
(1.19995 9.68595e-05 0.000185481)
(1.19991 0.000106548 0.00017699)
(1.19991 9.17431e-05 0.000174109)
(1.19988 0.000135635 0.000260602)
(1.19989 0.000124701 0.000258125)
(1.19991 0.000128355 0.000244899)
(1.19989 0.000140872 0.00027045)
(1.1999 0.000151162 0.000255527)
(1.19991 0.000133026 0.000251808)
(1.1998 0.000198786 0.000393098)
(1.19981 0.000179573 0.000389841)
(1.19983 0.000187356 0.000368345)
(1.19981 0.000206575 0.000409513)
(1.19983 0.000218622 0.000385272)
(1.19984 0.000194201 0.000380203)
(1.19967 0.000295616 0.000606611)
(1.19969 0.000264475 0.000601696)
(1.19972 0.000277708 0.000566769)
(1.19968 0.000306853 0.000633103)
(1.19972 0.000322114 0.000593551)
(1.19974 0.000287444 0.000586182)
(1.19948 0.000446988 0.000951247)
(1.19951 0.000397644 0.000944238)
(1.19956 0.00041741 0.00088707)
(1.19951 0.000463788 0.000993566)
(1.19957 0.000483016 0.000928934)
(1.19959 0.000431644 0.000918367)
(1.19921 0.000693699 0.00150195)
(1.19926 0.000615114 0.00149199)
(1.19934 0.000643217 0.001399)
(1.19926 0.000719982 0.00156911)
(1.19935 0.00074412 0.00146329)
(1.19939 0.00066495 0.00144867)
(1.19881 0.00111434 0.00238096)
(1.19889 0.00098677 0.00237052)
(1.199 0.00102352 0.00221683)
(1.1989 0.00115733 0.00248903)
(1.19904 0.00118388 0.00231349)
(1.1991 0.00105724 0.00229692)
(1.19819 0.00188769 0.00379414)
(1.1983 0.00168152 0.00379226)
(1.19851 0.00171076 0.00353192)
(1.19835 0.00196705 0.00397256)
(1.19859 0.00198257 0.00367282)
(1.19866 0.00176812 0.0036647)
(1.19723 0.00348418 0.00608678)
(1.19737 0.00317781 0.00613203)
(1.19774 0.00309806 0.0056742)
(1.19749 0.0036537 0.00640114)
(1.19798 0.00362333 0.00585686)
(1.19801 0.00320868 0.00590895)
(1.19583 0.00726625 0.00987246)
(1.19594 0.00702631 0.0101177)
(1.19662 0.00629488 0.00925513)
(1.19635 0.00768528 0.0104906)
(1.19744 0.00747508 0.00938439)
(1.19716 0.00653115 0.0097185)
(1.19533 0.0187535 0.0171867)
(1.19615 0.0176236 0.0159585)
(1.19663 0.0147854 0.0152726)
(1.19783 0.0186565 0.017198)
(1.19822 0.015242 0.0162323)
(1.19949 0.0171921 0.0148201)
(1.21322 0.051258 0.0270302)
(1.21837 0.0429843 0.0213492)
(1.21295 0.0361461 0.0222555)
(1.22542 0.0419982 0.0223022)
(1.21845 0.0351614 0.0233613)
(1.21976 0.035847 0.0193018)
(1.19996 3.22084e-06 6.74963e-06)
(1.19996 3.06682e-06 6.53964e-06)
(1.2 7.65918e-06 1.2017e-05)
(1.19996 3.39018e-06 6.52601e-06)
(1.19996 3.20887e-06 6.31138e-06)
(1.19992 6.3365e-05 9.41783e-05)
(1.19992 6.14285e-05 9.20818e-05)
(1.2 5.20156e-05 7.59283e-05)
(1.2 7.32169e-05 0.000103546)
(1.19992 6.57619e-05 9.17355e-05)
(1.19992 6.27239e-05 8.91643e-05)
(1.19975 0.000112819 0.000134518)
(1.19976 0.000108415 0.000133081)
(1.2 0.000108733 0.000130787)
(1.2 0.000116853 0.000136056)
(1.19976 0.000116177 0.000132275)
(1.19976 0.000112032 0.00013)
(1.19992 0.000158253 0.000173711)
(1.19993 0.000151289 0.000172235)
(1.19999 0.000150681 0.00016514)
(1.19998 0.000164383 0.000178397)
(1.19994 0.000162294 0.000170204)
(1.19994 0.000156215 0.00016799)
(1.19994 0.000226946 0.000246391)
(1.19994 0.000216085 0.000244838)
(1.19996 0.000215031 0.000231906)
(1.19995 0.000235583 0.000255179)
(1.19996 0.0002323 0.000240636)
(1.19997 0.000222733 0.000237954)
(1.1999 0.000329979 0.000368552)
(1.19991 0.000313769 0.000366853)
(1.19993 0.000311486 0.000345403)
(1.19992 0.000342555 0.000383307)
(1.19994 0.000336736 0.000359442)
(1.19994 0.000322546 0.000356095)
(1.19985 0.000486299 0.000563185)
(1.19985 0.000461528 0.000561187)
(1.19989 0.000457411 0.000526694)
(1.19987 0.000504472 0.000586571)
(1.19991 0.00049501 0.000548166)
(1.19991 0.000473244 0.000543683)
(1.19977 0.000727075 0.000870367)
(1.19978 0.000688281 0.000869007)
(1.19983 0.000680412 0.000813066)
(1.19981 0.00075347 0.00090701)
(1.19986 0.000736962 0.000845044)
(1.19987 0.00070306 0.000839953)
(1.19967 0.00110456 0.00134868)
(1.19968 0.00104439 0.00134947)
(1.19975 0.00102829 0.0012591)
(1.19974 0.00114194 0.00140458)
(1.19981 0.00111253 0.00130511)
(1.19982 0.00106013 0.00130026)
(1.19956 0.00169834 0.00208665)
(1.19959 0.00160797 0.0020942)
(1.19969 0.00157149 0.00194784)
(1.19968 0.00175168 0.00217099)
(1.19979 0.00169317 0.00201124)
(1.1998 0.00161526 0.0020101)
(1.19954 0.0026604 0.00320982)
(1.19956 0.00253184 0.00323523)
(1.19971 0.00244382 0.00299797)
(1.19975 0.00273714 0.00333326)
(1.19988 0.00261215 0.00307901)
(1.1999 0.00250401 0.00308941)
(1.19986 0.00423933 0.00485628)
(1.19985 0.00409268 0.004928)
(1.20004 0.0038675 0.00454751)
(1.20024 0.00434456 0.00502632)
(1.20037 0.00406255 0.00463385)
(1.20038 0.00394495 0.00467402)
(1.20143 0.00673789 0.0070733)
(1.20132 0.00671923 0.00725359)
(1.20144 0.00613239 0.00666932)
(1.20216 0.00684392 0.00726293)
(1.20209 0.0062061 0.00671854)
(1.20208 0.00620246 0.00681238)
(1.20695 0.00980169 0.00924663)
(1.20663 0.0105235 0.00963371)
(1.20614 0.00908213 0.0088967)
(1.20836 0.0096922 0.0092334)
(1.20729 0.00849135 0.00881656)
(1.20732 0.00898469 0.00889876)
(1.22141 0.00960396 0.00788243)
(1.22083 0.0121869 0.00868366)
(1.21863 0.00971701 0.00829566)
(1.22296 0.00865725 0.00688847)
(1.2197 0.00789281 0.00797527)
(1.21992 0.00889665 0.00754183)
(1.19996 3.95603e-06 6.65338e-06)
(1.19996 3.93195e-06 6.4631e-06)
(1.2 8.80725e-06 1.18345e-05)
(1.19996 3.92662e-06 6.22165e-06)
(1.19992 7.51478e-05 9.15704e-05)
(1.19992 7.40811e-05 8.97669e-05)
(1.20001 6.12584e-05 7.38301e-05)
(1.20001 8.67519e-05 0.000100855)
(1.19992 7.43559e-05 8.6788e-05)
(1.19977 0.000133323 0.000130586)
(1.19978 0.000131391 0.00012938)
(1.20002 0.000128513 0.000127315)
(1.20002 0.000137805 0.000131611)
(1.19978 0.000132145 0.000126178)
(1.19997 0.000184319 0.000164167)
(1.19997 0.000181652 0.000163248)
(1.20003 0.000175534 0.000156707)
(1.20003 0.000191548 0.000168206)
(1.19999 0.000181865 0.000159097)
(1.20003 0.000266125 0.000228304)
(1.20003 0.000261625 0.000227122)
(1.20004 0.000252208 0.000215152)
(1.20005 0.000276343 0.00023582)
(1.20005 0.000261479 0.00022015)
(1.20005 0.000386338 0.000335338)
(1.20005 0.000378572 0.00033474)
(1.20006 0.00036475 0.000314926)
(1.20007 0.000400953 0.000347835)
(1.20009 0.000377725 0.000323919)
(1.20008 0.000566098 0.000505149)
(1.20007 0.000554131 0.000505008)
(1.2001 0.000532964 0.000472904)
(1.20011 0.000586613 0.000524783)
(1.20013 0.000550921 0.000487127)
(1.20012 0.000837993 0.000763364)
(1.20012 0.000818724 0.000765734)
(1.20015 0.00078545 0.000715266)
(1.20017 0.000866494 0.000792893)
(1.2002 0.000810415 0.000736628)
(1.20021 0.00124533 0.0011562)
(1.20021 0.001216 0.00116243)
(1.20026 0.00116346 0.00108214)
(1.20029 0.001283 0.00119947)
(1.20033 0.00119639 0.00111385)
(1.20039 0.00183942 0.00173812)
(1.20038 0.00179669 0.0017527)
(1.20045 0.00171398 0.00162744)
(1.20052 0.00188506 0.00179972)
(1.20057 0.00175349 0.00167207)
(1.20076 0.00268458 0.00258542)
(1.20076 0.0026286 0.00261489)
(1.20083 0.0024945 0.00242163)
(1.20097 0.00273113 0.002668)
(1.20103 0.00253533 0.00248066)
(1.20154 0.00378768 0.00379046)
(1.20157 0.00373215 0.00383732)
(1.2016 0.00352507 0.00354813)
(1.20189 0.00380642 0.0038949)
(1.20192 0.00354532 0.00361888)
(1.20311 0.00485573 0.00552553)
(1.20329 0.00485427 0.00554218)
(1.20313 0.0045876 0.00514084)
(1.2037 0.00477153 0.00564464)
(1.20366 0.00453303 0.00520163)
(1.20631 0.00448582 0.00837708)
(1.20695 0.00484049 0.00801971)
(1.20625 0.00465159 0.00755311)
(1.20755 0.00422329 0.00835898)
(1.20719 0.00443804 0.00743782)
(1.21614 -0.00158061 0.0131962)
(1.21669 0.00114668 0.0107475)
(1.2148 0.00121494 0.0109293)
(1.21909 2.64631e-05 0.0108729)
(1.21609 0.00114996 0.00920035)
(1.19994 2.4212e-05 3.99292e-06)
(1.19998 4.19057e-05 5.64589e-06)
(1.19996 2.67481e-05 3.28868e-06)
(1.19994 2.42888e-05 2.99839e-06)
(1.19969 7.09101e-05 6.77561e-05)
(1.1998 7.48208e-05 5.02023e-05)
(1.19975 6.48793e-05 7.24251e-05)
(1.19989 6.49487e-05 6.29171e-05)
(1.19969 7.10486e-05 5.80485e-05)
(1.19938 4.22728e-05 0.000105931)
(1.19964 4.34044e-05 9.81714e-05)
(1.19961 4.16636e-05 0.000103713)
(1.19971 4.40493e-05 0.00010077)
(1.19939 4.25319e-05 9.4285e-05)
(1.19946 3.76674e-05 0.00014495)
(1.19952 3.82697e-05 0.000132179)
(1.1995 3.73201e-05 0.000144813)
(1.19987 4.52371e-05 0.000138377)
(1.19947 3.78369e-05 0.000130504)
(1.19938 3.68756e-05 0.000212554)
(1.19941 3.66976e-05 0.000193429)
(1.19938 3.69037e-05 0.000213638)
(1.19988 5.05144e-05 0.000202782)
(1.1994 3.67678e-05 0.000192071)
(1.19927 3.94567e-05 0.000322395)
(1.1993 3.8783e-05 0.000292333)
(1.19927 3.99025e-05 0.000325211)
(1.19984 6.12854e-05 0.000307261)
(1.1993 3.90445e-05 0.000291412)
(1.19914 4.62207e-05 0.000499555)
(1.19918 4.48579e-05 0.000451579)
(1.19915 4.70151e-05 0.000505018)
(1.19979 7.95844e-05 0.000475805)
(1.1992 4.55482e-05 0.000451323)
(1.199 5.96078e-05 0.000786723)
(1.19907 5.64751e-05 0.00071)
(1.19903 6.11387e-05 0.000796115)
(1.19974 0.000110157 0.000747859)
(1.19909 5.76815e-05 0.000710397)
(1.19883 8.49447e-05 0.00124944)
(1.19893 7.93399e-05 0.00112605)
(1.19889 8.71066e-05 0.00126591)
(1.19969 0.000162756 0.00118639)
(1.19899 8.11511e-05 0.00112786)
(1.1986 0.000132887 0.00201036)
(1.19876 0.000120656 0.00180859)
(1.1987 0.000137406 0.00204186)
(1.19963 0.000253189 0.00190481)
(1.19886 0.000123927 0.0018149)
(1.19818 0.000249157 0.00330956)
(1.19848 0.000216478 0.00296772)
(1.19837 0.000259175 0.00337663)
(1.19957 0.000437255 0.00311816)
(1.19866 0.000222306 0.00298774)
(1.19718 0.000600944 0.00570001)
(1.19783 0.000490665 0.00507249)
(1.19753 0.000626243 0.00586123)
(1.19944 0.000893886 0.00528739)
(1.19816 0.00050253 0.0051306)
(1.19419 0.00181031 0.0108064)
(1.19591 0.00138909 0.00941355)
(1.19502 0.00183805 0.0112173)
(1.19917 0.00221316 0.00959596)
(1.19663 0.00139061 0.00954796)
(1.18587 0.0059264 0.0246258)
(1.19099 0.00423768 0.0202299)
(1.1895 0.00547961 0.0250863)
(1.19967 0.0061855 0.0195481)
(1.19338 0.00399586 0.0200345)
(1.18376 0.014551 0.0672108)
(1.19526 0.00927688 0.0466156)
(1.2092 0.00902595 0.0541422)
(1.21784 0.0126515 0.041183)
(1.20112 0.00763847 0.0395705)
(1.19996 4.56122e-07 4.34164e-06)
(1.19996 2.45197e-06 3.55616e-06)
(1.2 2.31187e-06 6.22007e-06)
(1.19996 3.52697e-06 3.59042e-06)
(1.19996 4.92035e-07 3.14377e-06)
(1.19993 3.11092e-05 6.764e-05)
(1.19993 4.15972e-05 6.25038e-05)
(1.20002 2.48762e-05 4.97762e-05)
(1.20002 3.73266e-05 7.17825e-05)
(1.19993 4.49768e-05 6.22901e-05)
(1.19994 3.06739e-05 5.78366e-05)
(1.19978 6.36045e-05 0.00010587)
(1.19978 6.42073e-05 0.000100426)
(1.20003 6.11886e-05 9.7829e-05)
(1.20003 6.613e-05 0.000103643)
(1.19978 7.68738e-05 0.000100165)
(1.19979 6.33581e-05 9.40499e-05)
(1.19996 8.88167e-05 0.000143938)
(1.19997 8.48075e-05 0.000137701)
(1.20002 8.48947e-05 0.000131693)
(1.20002 9.23374e-05 0.00014368)
(1.19997 0.000102392 0.00013704)
(1.19997 8.8152e-05 0.000129968)
(1.19999 0.00012581 0.000207712)
(1.19999 0.000116187 0.000199262)
(1.2 0.000119508 0.000189193)
(1.2 0.000130467 0.000208582)
(1.2 0.000140821 0.000197178)
(1.20001 0.000123719 0.000187781)
(1.19997 0.000181737 0.000313589)
(1.19998 0.000164956 0.000300828)
(1.19999 0.000171725 0.000284138)
(1.19998 0.000188799 0.000316035)
(1.19999 0.000200469 0.000297207)
(1.2 0.000178104 0.000283158)
(1.19993 0.000264842 0.000483404)
(1.19995 0.000237501 0.000464301)
(1.19997 0.000249866 0.000437336)
(1.19996 0.000274199 0.000488253)
(1.19998 0.000289458 0.000457756)
(1.19999 0.000258278 0.000436758)
(1.1999 0.000389624 0.000755349)
(1.19993 0.000346962 0.000725883)
(1.19995 0.000365467 0.000682189)
(1.19995 0.000403288 0.000763504)
(1.19997 0.000422403 0.000713968)
(1.19999 0.000377681 0.000681935)
(1.19988 0.000585848 0.00118976)
(1.19992 0.000519339 0.00114493)
(1.19995 0.000545919 0.00107342)
(1.19996 0.000605309 0.00120361)
(1.19999 0.00062944 0.00112225)
(1.20002 0.000563138 0.00107389)
(1.19989 0.000899387 0.00188673)
(1.19995 0.000794367 0.00181973)
(1.19999 0.00083086 0.00170076)
(1.20002 0.000926187 0.00191012)
(1.20006 0.000955545 0.00177418)
(1.20011 0.000853796 0.00170247)
(1.19995 0.00143101 0.00301636)
(1.20006 0.00126151 0.00292088)
(1.20012 0.00130254 0.00271579)
(1.20018 0.00146851 0.00305832)
(1.20025 0.00149696 0.0028222)
(1.20032 0.00133226 0.0027214)
(1.20018 0.00241552 0.00488903)
(1.20036 0.00214207 0.00476007)
(1.20044 0.00215084 0.00439125)
(1.20058 0.00246182 0.00496431)
(1.2007 0.00247751 0.00452735)
(1.2008 0.00218266 0.00440301)
(1.20096 0.00438608 0.00808075)
(1.20126 0.00398234 0.00790502)
(1.20132 0.00378191 0.00721629)
(1.20176 0.00439386 0.00818259)
(1.20193 0.0043877 0.00729595)
(1.202 0.00377635 0.00721011)
(1.20435 0.00837231 0.0132998)
(1.20473 0.0079018 0.0130487)
(1.2044 0.00691137 0.0117664)
(1.2061 0.0079594 0.0130868)
(1.20587 0.00790293 0.0113233)
(1.20576 0.00664222 0.0114788)
(1.21843 0.0131982 0.0176229)
(1.21892 0.0121344 0.0172249)
(1.21628 0.0103273 0.0154979)
(1.22183 0.00977125 0.0146948)
(1.21837 0.0104484 0.0131531)
(1.21757 0.00910469 0.0133534)
(1.19996 3.16691e-06 4.47045e-06)
(1.19996 3.01497e-06 3.6722e-06)
(1.2 7.54876e-06 6.418e-06)
(1.19996 3.33784e-06 3.66562e-06)
(1.19996 3.1623e-06 3.16456e-06)
(1.19993 6.08122e-05 6.71227e-05)
(1.19993 5.9242e-05 6.16129e-05)
(1.20001 5.00681e-05 4.92168e-05)
(1.20002 7.06368e-05 7.07559e-05)
(1.19993 6.32583e-05 6.1235e-05)
(1.19993 6.01532e-05 5.77482e-05)
(1.19979 0.000110488 0.000104671)
(1.19979 0.000106535 9.89793e-05)
(1.20003 0.000106751 9.6374e-05)
(1.20003 0.000114418 0.000102135)
(1.19979 0.000113883 9.84814e-05)
(1.19979 0.000110009 9.27237e-05)
(1.19999 0.000150912 0.000139679)
(1.19999 0.00014466 0.000134087)
(1.20004 0.000144412 0.000128338)
(1.20005 0.000156456 0.000139029)
(1.2 0.000154915 0.00013265)
(1.2 0.00014947 0.000126378)
(1.20004 0.000211154 0.000196648)
(1.20004 0.000201267 0.000189342)
(1.20006 0.000200865 0.000179639)
(1.20006 0.000218977 0.00019718)
(1.20006 0.000216498 0.000186155)
(1.20006 0.00020796 0.000178057)
(1.20006 0.000302036 0.000293162)
(1.20006 0.000287415 0.00028244)
(1.20007 0.000286054 0.000265853)
(1.20008 0.000313111 0.000294983)
(1.20009 0.000308756 0.000276582)
(1.20009 0.000296163 0.00026461)
(1.20009 0.000437085 0.000447108)
(1.20009 0.000415152 0.000431484)
(1.20011 0.000412388 0.000404844)
(1.20012 0.000452719 0.000450605)
(1.20014 0.000445445 0.00042099)
(1.20014 0.000426569 0.00040345)
(1.20014 0.000637771 0.000689685)
(1.20015 0.000604415 0.000666819)
(1.20017 0.000599688 0.000623855)
(1.20019 0.00065932 0.000695618)
(1.20021 0.000647467 0.000648183)
(1.20022 0.000619102 0.000622588)
(1.20024 0.000938942 0.00106634)
(1.20025 0.00088804 0.00103361)
(1.20028 0.000878623 0.000964358)
(1.20033 0.000967095 0.00107517)
(1.20036 0.000947424 0.000999016)
(1.20036 0.000904306 0.000962149)
(1.20045 0.00138737 0.00164513)
(1.20047 0.00131128 0.0016001)
(1.2005 0.00129062 0.00148786)
(1.20059 0.00142214 0.00165669)
(1.20062 0.00138545 0.00153459)
(1.20063 0.00132178 0.00148298)
(1.20087 0.00206815 0.00252038)
(1.2009 0.00195621 0.00246394)
(1.20094 0.00190796 0.00228041)
(1.2011 0.00210566 0.00253293)
(1.20112 0.00203261 0.00233724)
(1.20114 0.00194138 0.00226925)
(1.20176 0.00310136 0.00379786)
(1.2018 0.00294757 0.00374084)
(1.20181 0.00283184 0.00344197)
(1.20215 0.00312288 0.00379646)
(1.20212 0.00297162 0.00349138)
(1.20214 0.00285181 0.00341033)
(1.20376 0.0045809 0.0054742)
(1.20377 0.00440681 0.00545089)