/*--------------------------------*- C++ -*----------------------------------*\
| =========                 |                                                 |
| \\      /  F ield         | OpenFOAM: The Open Source CFD Toolbox           |
|  \\    /   O peration     | Version:  2012                                  |
|   \\  /    A nd           | Website:  www.openfoam.com                      |
|    \\/     M anipulation  |                                                 |
\*---------------------------------------------------------------------------*/
FoamFile
{
    version     2.0;
    format      ascii;
    class       volVectorField;
    location    "0.107/fluid";
    object      cellMotionU;
}
// * * * * * * * * * * * * * * * * * * * * * * * * * * * * * * * * * * * * * //

dimensions      [0 1 -1 0 0 0 0];


internalField   nonuniform List<vector> 
16422
(
(4.49419e-06 3.2804e-06 -1.17116e-06)
(4.03387e-05 2.87264e-05 -1.06281e-05)
(8.0368e-05 5.03437e-05 -1.95718e-05)
(0.000114411 6.67708e-05 -2.78673e-05)
(0.000134166 7.71685e-05 -3.56589e-05)
(0.00013789 8.03035e-05 -4.29125e-05)
(0.000124723 7.44249e-05 -4.94562e-05)
(9.59596e-05 6.08949e-05 -5.39619e-05)
(5.43311e-05 4.0767e-05 -5.47096e-05)
(5.4046e-06 1.38573e-05 -4.90967e-05)
(-4.21774e-05 -1.6087e-05 -3.57632e-05)
(-6.86689e-05 -3.69585e-05 -1.62536e-05)
(-4.98868e-05 -3.945e-05 6.89884e-06)
(1.08748e-05 -2.25485e-05 2.07762e-05)
(3.72403e-06 -2.1325e-05 5.9538e-06)
(5.44306e-06 2.47465e-06 -1.23488e-06)
(4.90585e-05 2.23565e-05 -1.13689e-05)
(9.9402e-05 3.93953e-05 -2.06786e-05)
(0.000142898 5.26141e-05 -2.90944e-05)
(0.000171127 6.12729e-05 -3.69625e-05)
(0.000181405 6.39248e-05 -4.42015e-05)
(0.000173157 5.93838e-05 -5.03287e-05)
(0.000145954 4.84767e-05 -5.41021e-05)
(0.000100994 3.17724e-05 -5.38892e-05)
(4.69171e-05 9.44512e-06 -4.74913e-05)
(-3.86627e-06 -1.57225e-05 -3.38542e-05)
(-3.78663e-05 -3.66405e-05 -1.44689e-05)
(-3.48971e-05 -4.44489e-05 6.53792e-06)
(9.15907e-07 -3.76573e-05 2.04108e-05)
(1.81875e-05 -2.98462e-05 1.68138e-05)
(6.05113e-06 1.2423e-06 -1.26769e-06)
(5.50548e-05 1.14112e-05 -1.16066e-05)
(0.000112057 2.04752e-05 -2.11283e-05)
(0.000161821 2.74432e-05 -2.94412e-05)
(0.000195941 3.2167e-05 -3.71241e-05)
(0.000211422 3.38003e-05 -4.40106e-05)
(0.000207531 3.15595e-05 -4.94088e-05)
(0.000183036 2.58416e-05 -5.21336e-05)
(0.000139371 1.69123e-05 -5.06271e-05)
(8.60126e-05 4.96175e-06 -4.3335e-05)
(3.32789e-05 -9.34369e-06 -2.95603e-05)
(-4.30509e-06 -2.23896e-05 -1.0993e-05)
(-1.54133e-05 -2.95206e-05 7.8612e-06)
(-4.89688e-06 -2.96247e-05 1.95601e-05)
(3.13316e-06 -2.79942e-05 1.67946e-05)
(3.53321e-06 3.92334e-06 -1.14181e-06)
(3.16876e-05 3.41857e-05 -1.02971e-05)
(6.58782e-05 6.02671e-05 -1.90449e-05)
(9.57142e-05 7.94516e-05 -2.6685e-05)
(0.000111174 9.05587e-05 -3.39088e-05)
(0.000108567 9.11985e-05 -4.07754e-05)
(8.51456e-05 7.93469e-05 -4.70314e-05)
(4.451e-05 5.92284e-05 -5.14443e-05)
(-9.39779e-06 3.39858e-05 -5.24631e-05)
(-6.8292e-05 4.80507e-06 -4.80886e-05)
(-0.000122544 -2.5535e-05 -3.715e-05)
(-0.00014955 -4.62077e-05 -2.10215e-05)
(-0.00012521 -4.96012e-05 -1.33858e-06)
(-4.40128e-05 -3.31622e-05 1.40782e-05)
(-1.62729e-06 -2.70259e-05 9.74549e-06)
(4.16244e-06 2.96058e-06 -1.20712e-06)
(3.71958e-05 2.65763e-05 -1.10084e-05)
(7.91862e-05 4.70694e-05 -2.01417e-05)
(0.000117894 6.25088e-05 -2.81835e-05)
(0.000141249 7.16999e-05 -3.57232e-05)
(0.000143818 7.23718e-05 -4.25187e-05)
(0.000125859 6.34788e-05 -4.83869e-05)
(8.67435e-05 4.68393e-05 -5.20776e-05)
(3.07542e-05 2.57313e-05 -5.19761e-05)
(-3.2086e-05 1.30434e-06 -4.65505e-05)
(-8.88562e-05 -2.41668e-05 -3.51968e-05)
(-0.000122035 -4.51497e-05 -1.89327e-05)
(-0.000111414 -5.39332e-05 -9.10887e-07)
(-6.0248e-05 -4.909e-05 1.21404e-05)
(-2.33227e-05 -4.52608e-05 1.16633e-05)
(4.4662e-06 1.52707e-06 -1.26469e-06)
(4.10938e-05 1.35606e-05 -1.11987e-05)
(8.75847e-05 2.44657e-05 -2.05434e-05)
(0.000131186 3.26858e-05 -2.86552e-05)
(0.000160564 3.75007e-05 -3.61059e-05)
(0.000168986 3.80742e-05 -4.2732e-05)
(0.000156007 3.35965e-05 -4.79326e-05)
(0.000120599 2.49172e-05 -5.06036e-05)
(6.64626e-05 1.3591e-05 -4.93868e-05)
(3.3885e-06 -4.00708e-08 -4.31322e-05)
(-5.31962e-05 -1.47155e-05 -3.14241e-05)
(-8.82505e-05 -2.76988e-05 -1.55969e-05)
(-9.12242e-05 -3.54464e-05 4.73359e-07)
(-6.92522e-05 -3.7729e-05 1.06871e-05)
(-5.08742e-05 -3.98638e-05 1.00096e-05)
(2.64609e-06 4.39602e-06 -8.92275e-07)
(2.37775e-05 3.82908e-05 -8.03436e-06)
(5.21009e-05 6.75746e-05 -1.47017e-05)
(7.83514e-05 8.92693e-05 -2.06179e-05)
(9.07903e-05 0.000100476 -2.62078e-05)
(8.30567e-05 9.79769e-05 -3.15318e-05)
(5.37275e-05 8.13641e-05 -3.63635e-05)
(6.13765e-06 5.60424e-05 -3.99768e-05)
(-5.39662e-05 2.65378e-05 -4.1264e-05)
(-0.00011704 -5.10127e-06 -3.86925e-05)
(-0.000171861 -3.56808e-05 -3.15418e-05)
(-0.00019738 -5.76474e-05 -2.02385e-05)
(-0.000177901 -6.72281e-05 -5.90532e-06)
(-0.000116191 -6.33865e-05 6.23998e-06)
(-7.0991e-05 -6.22563e-05 8.10339e-06)
(2.96976e-06 3.36148e-06 -9.46421e-07)
(2.65416e-05 2.9931e-05 -8.61978e-06)
(6.08489e-05 5.28644e-05 -1.57055e-05)
(9.45853e-05 7.00452e-05 -2.19781e-05)
(0.000113908 7.95125e-05 -2.78277e-05)
(0.000111289 7.7911e-05 -3.32489e-05)
(8.66133e-05 6.51032e-05 -3.7671e-05)
(4.05903e-05 4.39742e-05 -4.06806e-05)
(-2.12802e-05 1.93198e-05 -4.10655e-05)
(-8.85396e-05 -6.80634e-06 -3.78047e-05)
(-0.000145678 -3.14885e-05 -3.01954e-05)
(-0.000178959 -5.28972e-05 -1.86983e-05)
(-0.000171802 -6.53444e-05 -5.96059e-06)
(-0.000130905 -6.9521e-05 3.93795e-06)
(-9.96621e-05 -7.53715e-05 5.381e-06)
(3.07593e-06 1.73199e-06 -9.88845e-07)
(2.86492e-05 1.52463e-05 -8.72573e-06)
(6.5269e-05 2.72589e-05 -1.59181e-05)
(0.000103507 3.65491e-05 -2.23526e-05)
(0.000128503 4.156e-05 -2.81282e-05)
(0.000131311 4.09913e-05 -3.32759e-05)
(0.000110605 3.39954e-05 -3.74611e-05)
(6.86856e-05 2.29366e-05 -3.96951e-05)
(9.0566e-06 9.66607e-06 -3.92346e-05)
(-5.743e-05 -4.63987e-06 -3.52158e-05)
(-0.000115439 -1.86933e-05 -2.72434e-05)
(-0.000150266 -3.12271e-05 -1.62036e-05)
(-0.000153975 -4.04782e-05 -4.87411e-06)
(-0.000135354 -4.69772e-05 2.55854e-06)
(-0.000121703 -5.50709e-05 3.35486e-06)
(2.08609e-06 4.63107e-06 -4.51898e-07)
(1.89423e-05 4.02558e-05 -4.07491e-06)
(4.31484e-05 7.16113e-05 -7.495e-06)
(6.66047e-05 9.48806e-05 -1.05481e-05)
(7.68765e-05 0.00010592 -1.33915e-05)
(6.68699e-05 0.000101488 -1.60407e-05)
(3.50435e-05 8.20592e-05 -1.85054e-05)
(-1.46519e-05 5.38233e-05 -2.04577e-05)
(-7.62075e-05 2.18047e-05 -2.13432e-05)
(-0.000139685 -1.08785e-05 -2.04474e-05)
(-0.000191315 -4.05216e-05 -1.74062e-05)
(-0.000215769 -6.38636e-05 -1.19756e-05)
(-0.00020627 -8.00591e-05 -4.86301e-06)
(-0.000174882 -9.14098e-05 1.15912e-06)
(-0.000155985 -0.000106852 3.12119e-06)
(2.34934e-06 3.58321e-06 -4.79661e-07)
(2.12125e-05 3.14117e-05 -4.35106e-06)
(4.91897e-05 5.60642e-05 -7.93861e-06)
(7.83148e-05 7.45683e-05 -1.11068e-05)
(9.4913e-05 8.39046e-05 -1.41139e-05)
(8.9955e-05 8.0697e-05 -1.6899e-05)
(6.1727e-05 6.50466e-05 -1.93191e-05)
(1.32603e-05 4.12452e-05 -2.10298e-05)
(-5.03369e-05 1.49668e-05 -2.14599e-05)
(-0.000117752 -1.07456e-05 -2.00856e-05)
(-0.000174183 -3.39907e-05 -1.6768e-05)
(-0.000206476 -5.4761e-05 -1.14236e-05)
(-0.000207126 -7.22256e-05 -5.02319e-06)
(-0.000185635 -8.64077e-05 -7.91063e-09)
(-0.000173193 -0.000104378 1.437e-06)
(2.55301e-06 1.78208e-06 -4.76865e-07)
(2.21132e-05 1.61099e-05 -4.38838e-06)
(5.20061e-05 2.91046e-05 -8.0648e-06)
(8.50928e-05 3.89862e-05 -1.14138e-05)
(0.000106585 4.41734e-05 -1.44855e-05)
(0.000105904 4.26885e-05 -1.72366e-05)
(8.13141e-05 3.41585e-05 -1.9404e-05)
(3.57688e-05 2.08703e-05 -2.08789e-05)
(-2.50028e-05 6.9714e-06 -2.08269e-05)
(-9.09493e-05 -6.33927e-06 -1.89105e-05)
(-0.000149894 -1.90726e-05 -1.51985e-05)
(-0.00018578 -3.10045e-05 -1.00869e-05)
(-0.000194384 -4.26189e-05 -4.50435e-06)
(-0.000185306 -5.35646e-05 -6.85317e-07)
(-0.000183692 -6.75121e-05 2.49685e-07)
(-6.49774e-06 -2.16912e-05 2.54692e-06)
(-2.08831e-05 -7.15641e-06 -1.05675e-06)
(-1.27918e-05 -1.9112e-05 1.87209e-06)
(-2.06517e-05 -4.57485e-06 -1.12561e-06)
(-9.00211e-07 -1.97172e-05 6.78068e-06)
(-2.03461e-05 -1.94178e-05 8.15336e-07)
(2.20839e-05 -2.06082e-05 2.26791e-05)
(1.06099e-05 -1.99126e-05 9.39958e-06)
(5.37382e-06 -2.16313e-05 5.9668e-06)
(-1.8287e-05 -1.19737e-05 -3.90336e-07)
(2.48328e-05 -2.59327e-05 1.60677e-05)
(-4.21207e-06 -2.32558e-05 5.56143e-06)
(1.15958e-05 -1.89601e-05 2.11265e-05)
(5.06881e-06 -1.74779e-05 8.59712e-06)
(-2.67301e-05 -2.34342e-05 1.63304e-05)
(2.69614e-06 -1.86075e-05 1.08982e-05)
(-2.49825e-05 -1.51429e-05 -8.85577e-07)
(-2.68425e-05 -1.30564e-05 -5.65823e-07)
(-1.91823e-05 -1.03241e-05 -4.85096e-07)
(1.93229e-05 -2.77712e-05 1.50805e-05)
(-5.17166e-06 -2.65607e-05 5.27698e-06)
(1.0444e-06 -2.30868e-05 8.28442e-06)
(-1.54346e-05 -2.42283e-05 1.59854e-06)
(-3.57359e-06 -3.63473e-05 1.26271e-05)
(-1.49623e-05 -4.0383e-05 4.32097e-06)
(-2.45535e-06 -2.32914e-05 8.70623e-06)
(-1.7088e-05 -2.62479e-05 1.8478e-06)
(-4.36498e-05 -4.66947e-05 9.77295e-06)
(-4.75557e-05 -5.61491e-05 3.72143e-06)
(-1.89032e-05 -1.90531e-05 -3.76635e-07)
(-2.2094e-05 -1.99991e-05 -4.82954e-07)
(-2.30075e-05 -1.9784e-05 -2.93096e-06)
(-1.49579e-05 -1.10017e-05 -2.73952e-06)
(-3.05334e-05 -1.61112e-05 -1.36861e-06)
(-3.13457e-05 -1.80167e-05 -3.74646e-06)
(-1.40999e-05 -1.74946e-05 2.20009e-06)
(-3.12878e-05 -1.46689e-05 -9.11004e-07)
(-3.29673e-05 -1.91597e-05 -3.26495e-06)
(-1.67666e-05 -7.21445e-06 -2.99858e-06)
(-2.14945e-05 -8.14257e-06 -6.73755e-07)
(-1.93504e-05 -9.85465e-06 -2.11014e-06)
(-3.81248e-05 2.05138e-05 -5.05493e-06)
(-3.60824e-06 -1.64499e-05 6.68982e-06)
(-1.46403e-05 -1.26069e-05 2.87775e-06)
(-1.47569e-05 -1.57783e-05 2.12219e-06)
(-3.83628e-05 1.92622e-05 -4.75378e-06)
(-2.85623e-05 -1.53459e-05 -2.29232e-07)
(-3.82083e-05 -5.74843e-06 8.41215e-07)
(-2.53209e-05 -1.27958e-05 -6.15374e-07)
(-3.66616e-05 2.05183e-05 -5.26818e-06)
(-8.05789e-06 -1.70417e-05 3.94026e-06)
(-6.10703e-06 -1.664e-05 5.54664e-06)
(-9.83984e-06 -1.95175e-05 2.84545e-06)
(-1.79578e-05 -1.3204e-05 1.70487e-06)
(-1.96629e-05 -1.56288e-05 -4.11221e-07)
(-1.67235e-05 -1.56997e-05 1.27755e-06)
(-3.64257e-05 1.9289e-05 -5.04345e-06)
(-2.25223e-05 -1.30782e-05 -7.75038e-08)
(-2.80492e-05 -1.49787e-05 5.87401e-07)
(-1.69708e-05 -1.76668e-05 9.17825e-07)
(-3.63862e-05 -5.75064e-06 5.71032e-07)
(-1.84744e-05 -1.30339e-05 -1.20972e-06)
(-2.57313e-05 -1.23376e-05 -4.56129e-07)
(-4.14431e-05 -1.26261e-05 -4.24346e-06)
(-6.06565e-05 -1.98584e-05 -7.40239e-06)
(-4.56176e-05 -6.06452e-06 -5.65797e-06)
(-6.25945e-05 -1.63792e-05 -8.15803e-06)
(-4.81255e-05 -6.14036e-06 -6.50194e-06)
(-4.05993e-05 -1.25167e-05 -3.50822e-06)
(-4.15827e-05 -1.42572e-05 -4.52264e-06)
(-5.58687e-05 -1.34936e-05 -7.8095e-06)
(-4.22596e-05 -7.83005e-06 -6.21551e-06)
(-3.87114e-05 -1.27498e-05 -4.42359e-06)
(-6.09651e-05 -1.4038e-05 -8.21167e-06)
(-4.73804e-05 -6.31629e-06 -6.66453e-06)
(-5.24733e-05 -1.49822e-05 -7.69437e-06)
(-3.94e-05 -1.31065e-05 -5.99447e-06)
(-3.65927e-05 -1.70374e-05 -4.38176e-06)
(-4.12927e-05 -1.3515e-05 -5.34949e-06)
(-5.28349e-05 -1.74219e-05 -7.5892e-06)
(-3.8345e-05 -1.87364e-05 -4.52702e-06)
(-1.56243e-05 -7.36693e-06 -1.52758e-06)
(-1.28086e-05 5.67987e-06 -3.65812e-06)
(-2.83077e-05 -3.69911e-06 -5.51533e-06)
(-1.40781e-05 7.82293e-06 -3.83097e-06)
(-4.48171e-05 -1.50371e-05 -4.65745e-06)
(-4.77034e-05 -7.58649e-06 -5.09492e-06)
(-6.23344e-05 -2.25128e-05 -7.29234e-06)
(-5.04576e-05 -7.59813e-06 -5.84546e-06)
(-6.43037e-05 -1.95087e-05 -7.98519e-06)
(-4.36646e-05 -1.43673e-05 -4.14312e-06)
(-4.50919e-05 -1.60845e-05 -4.9915e-06)
(-4.53778e-05 -7.54961e-06 -5.80754e-06)
(-5.79181e-05 -1.45844e-05 -8.01638e-06)
(-4.97033e-05 -7.05329e-06 -6.11819e-06)
(-4.25445e-05 -1.28654e-05 -5.05131e-06)
(-6.25403e-05 -1.63437e-05 -8.17399e-06)
(-1.64447e-05 1.60114e-05 -3.78841e-06)
(-3.46134e-05 -4.66183e-06 -4.82891e-06)
(-3.45398e-05 4.42244e-07 -5.81444e-06)
(-2.32099e-05 8.7057e-06 -3.13057e-06)
(-1.47583e-05 1.20195e-05 -3.62286e-06)
(-1.6065e-05 -6.05932e-06 -1.57584e-06)
(-1.3196e-05 6.90373e-06 -3.63978e-06)
(-1.7699e-05 -2.10063e-06 -1.50686e-06)
(-1.62655e-05 1.30464e-05 -3.7558e-06)
(-2.95762e-05 -8.99099e-08 -5.68989e-06)
(-1.44869e-05 8.73826e-06 -3.80633e-06)
(-3.43092e-05 2.06638e-07 -5.85096e-06)
(-1.56119e-05 1.17376e-05 -3.44334e-06)
(-2.32649e-05 -5.49887e-06 -6.74442e-07)
(-2.2565e-05 5.53249e-06 -2.81375e-06)
(-1.82934e-05 -1.44935e-06 -1.41907e-06)
(-1.5912e-05 -1.08716e-05 2.2508e-06)
(-3.8339e-05 -1.09946e-05 -3.38737e-06)
(-3.43433e-05 -7.81363e-06 -3.15335e-06)
(-2.9456e-05 -9.16783e-06 -2.37523e-06)
(-3.08143e-05 -1.18778e-05 -1.62486e-06)
(-2.70595e-05 -1.11668e-05 -9.93753e-07)
(-2.40105e-05 -1.02527e-05 -3.91823e-07)
(-3.28596e-05 -9.1347e-06 -1.78467e-06)
(-3.82831e-05 7.74853e-06 -2.13953e-06)
(-3.43941e-05 -4.34455e-06 -3.34523e-06)
(-3.00321e-05 -9.92688e-06 -1.70224e-06)
(-3.64908e-05 -3.14161e-06 -2.60233e-06)
(-3.43324e-05 -1.08449e-05 -1.20582e-06)
(-3.82807e-05 6.10236e-06 -1.76338e-06)
(-3.64717e-05 -1.08449e-05 -4.32445e-08)
(-3.72635e-05 -6.1845e-06 -1.44643e-06)
(-3.38599e-05 -1.42225e-05 -1.80842e-07)
(-1.82512e-05 -1.11515e-05 6.4236e-07)
(-3.58266e-05 -8.1534e-06 -3.47795e-06)
(-3.8505e-05 -1.13439e-05 -4.25635e-06)
(-3.03547e-05 -8.77524e-06 -2.80831e-06)
(-3.3101e-05 -1.24154e-05 -2.60307e-06)
(-2.54671e-05 -9.92184e-06 -1.06513e-06)
(-2.81377e-05 -1.09909e-05 -1.94266e-06)
(-3.06824e-05 -8.58723e-06 -1.72855e-06)
(-3.6407e-05 7.75112e-06 -2.44143e-06)
(-3.36725e-05 -8.84069e-06 -4.22249e-06)
(-3.36816e-05 -4.07127e-06 -3.33411e-06)
(-3.19043e-05 -2.58394e-06 -2.60438e-06)
(-3.49436e-05 -2.94828e-06 -2.28846e-06)
(-2.92777e-05 -9.58946e-06 -2.47193e-06)
(-3.12075e-05 -1.03782e-05 -7.92643e-07)
(-3.63925e-05 6.10758e-06 -2.06765e-06)
(-2.99682e-05 -1.22416e-05 1.48667e-07)
(-3.46275e-05 -1.0624e-05 6.1089e-07)
(-3.1483e-05 -4.20355e-06 -2.17879e-06)
(-3.52485e-05 -6.06108e-06 -1.03777e-06)
(-3.02781e-05 -1.357e-05 5.21051e-07)
(-6.725e-05 -9.10642e-06 -9.39832e-06)
(-9.56016e-05 -1.46652e-05 -1.34802e-05)
(-4.39248e-05 9.6918e-06 -5.94292e-06)
(-9.85191e-05 -1.41973e-05 -1.425e-05)
(-4.421e-05 1.02844e-05 -6.17749e-06)
(-6.31887e-05 -6.51386e-06 -8.29679e-06)
(-6.14026e-05 -4.63042e-06 -9.41279e-06)
(-8.55962e-05 7.5105e-07 -1.37475e-05)
(-3.7951e-05 7.77814e-06 -5.99149e-06)
(-5.95308e-05 -2.20892e-06 -9.32363e-06)
(-8.80028e-05 -1.21934e-06 -1.38509e-05)
(-3.95593e-05 9.03969e-06 -6.09097e-06)
(-3.61773e-05 -1.2644e-05 2.14037e-06)
(-3.73454e-05 -1.13315e-05 2.13756e-06)
(-4.19441e-05 -7.42972e-06 1.76258e-06)
(-4.07733e-05 -8.15317e-06 1.80323e-06)
(-5.41971e-05 -6.52707e-06 -8.90163e-06)
(-8.34545e-05 2.36968e-06 -1.36753e-05)
(-3.70512e-05 6.29487e-06 -5.95977e-06)
(-5.84896e-05 -3.06633e-06 -9.32247e-06)
(-8.10975e-05 4.34921e-06 -1.3573e-05)
(-3.58665e-05 6.03567e-06 -5.92759e-06)
(-3.51053e-05 -7.54842e-06 7.65046e-07)
(-3.59461e-05 -1.14195e-05 1.80827e-06)
(-3.47483e-05 -1.26313e-05 1.77101e-06)
(-3.6306e-05 -6.31651e-06 7.9705e-07)
(-3.44e-05 6.88344e-06 -2.59394e-06)
(-4.35857e-05 4.84325e-06 -5.67557e-06)
(-4.15525e-05 3.92049e-06 -5.62866e-06)
(-3.56011e-05 8.10613e-06 -2.5896e-06)
(-5.55196e-05 -8.55933e-06 -7.71341e-06)
(-3.74932e-05 6.22376e-06 -5.87657e-06)
(-8.56911e-05 -4.41128e-07 -1.18777e-05)
(-3.63036e-05 6.49981e-06 -5.90123e-06)
(-8.3099e-05 1.96276e-06 -1.19485e-05)
(-5.9976e-05 -5.36245e-06 -8.2049e-06)
(-2.41635e-05 -7.56933e-06 -1.55122e-06)
(-2.56881e-05 -1.14516e-05 -4.0252e-07)
(-2.4499e-05 -1.26615e-05 -3.51211e-07)
(-2.53492e-05 -6.33717e-06 -1.59321e-06)
(-2.50197e-05 6.91546e-06 -4.70623e-06)
(-3.91448e-05 4.1224e-06 -6.48608e-06)
(-3.69597e-05 3.26263e-06 -6.50677e-06)
(-2.62116e-05 8.13972e-06 -4.70155e-06)
(-3.57825e-05 -1.30636e-05 2.13138e-06)
(-3.45856e-05 -1.42714e-05 2.09351e-06)
(-2.58457e-05 -1.30966e-05 -1.7219e-08)
(-2.46555e-05 -1.43027e-05 3.51931e-08)
(-4.07296e-05 1.29398e-05 -2.92214e-06)
(-5.09484e-05 1.71907e-06 -5.83752e-06)
(-5.09947e-05 5.24488e-06 -6.08833e-06)
(-4.18922e-05 1.37622e-05 -2.96644e-06)
(-3.7868e-05 -4.61258e-06 7.68922e-07)
(-3.63411e-05 -1.09978e-05 1.81558e-06)
(-3.7507e-05 -9.68446e-06 1.80505e-06)
(-3.67005e-05 -5.893e-06 7.99933e-07)
(-3.71892e-05 9.77378e-06 -2.60054e-06)
(-4.41473e-05 5.97218e-06 -5.67323e-06)
(-4.62069e-05 5.66784e-06 -5.78035e-06)
(-3.5998e-05 8.51395e-06 -2.58751e-06)
(-4.13685e-05 -1.56256e-06 4.39435e-07)
(-4.21307e-05 -5.8457e-06 1.4269e-06)
(-4.09525e-05 -6.56893e-06 1.47077e-06)
(-4.25635e-05 -8.01675e-07 4.12386e-07)
(-6.92966e-05 -1.21826e-05 -7.89491e-06)
(-4.40282e-05 9.49577e-06 -5.67986e-06)
(-9.65953e-05 -1.73018e-05 -1.10227e-05)
(-4.48217e-05 9.87333e-06 -5.90837e-06)
(-0.000101659 -1.85477e-05 -1.16564e-05)
(-6.41045e-05 -8.37275e-06 -7.26695e-06)
(-6.37962e-05 -6.55593e-06 -8.2898e-06)
(-3.8678e-05 8.56131e-06 -5.95522e-06)
(-8.84042e-05 -1.87534e-06 -1.18853e-05)
(-4.01308e-05 9.12869e-06 -6.00807e-06)
(-6.18828e-05 -2.94391e-06 -8.33285e-06)
(-9.0848e-05 -4.37096e-06 -1.18507e-05)
(-3.12772e-05 1.29357e-05 -4.43515e-06)
(-4.69474e-05 1.10972e-06 -5.93166e-06)
(-4.66214e-05 4.24991e-06 -6.44722e-06)
(-3.24502e-05 1.37573e-05 -4.41723e-06)
(-2.69349e-05 -4.63655e-06 -1.57838e-06)
(-2.60838e-05 -1.10292e-05 -4.13846e-07)
(-2.57449e-05 -5.91485e-06 -1.59932e-06)
(-2.72759e-05 -9.71886e-06 -4.12396e-07)
(-2.77806e-05 9.81393e-06 -4.6897e-06)
(-3.97525e-05 5.34652e-06 -6.51494e-06)
(-2.66073e-05 8.54905e-06 -4.70184e-06)
(-4.18121e-05 4.89931e-06 -6.63774e-06)
(-3.04864e-05 -1.58136e-06 -1.27546e-06)
(-3.20843e-05 -5.86703e-06 -3.31873e-08)
(-3.16654e-05 -8.12896e-07 -1.24266e-06)
(-3.08892e-05 -6.60317e-06 -8.76476e-08)
(-3.38064e-05 -5.82949e-06 -2.78387e-06)
(-5.63038e-05 -9.91896e-06 -6.94339e-06)
(-4.46116e-05 5.62534e-07 -5.63177e-06)
(-3.8716e-05 -2.78324e-07 -4.68073e-06)
(-4.9588e-05 -8.02055e-06 -6.0108e-06)
(-4.22042e-05 -5.42484e-06 -4.63772e-06)
(-3.69092e-05 -2.98194e-06 -3.91723e-06)
(-4.08191e-05 -2.59425e-06 -4.02302e-06)
(-5.07579e-05 -3.11844e-06 -5.91207e-06)
(-3.83583e-05 1.43067e-05 -3.64499e-06)
(-3.85744e-05 5.90119e-06 -4.63314e-06)
(-5.5008e-05 4.31544e-06 -5.16806e-06)
(-4.12921e-05 -3.14626e-06 -4.43284e-06)
(-3.87179e-05 7.26185e-06 -3.99602e-06)
(-4.13555e-05 -9.75472e-06 -6.25668e-07)
(-3.82411e-05 -6.56715e-07 -2.71664e-07)
(-5.71783e-05 -9.729e-06 4.23873e-07)
(-3.81389e-05 -7.82945e-06 5.25438e-07)
(-5.62995e-05 -5.39718e-06 -9.66675e-07)
(-3.86002e-05 -4.61961e-06 -2.70741e-07)
(-4.07495e-05 -1.22936e-05 1.28771e-07)
(-3.43595e-05 -6.37761e-06 -3.31792e-06)
(-4.4937e-05 6.32959e-07 -5.67729e-06)
(-5.54578e-05 -1.09276e-05 -6.28587e-06)
(-3.87385e-05 7.57983e-08 -4.87986e-06)
(-4.99995e-05 -8.87858e-06 -5.63117e-06)
(-3.74611e-05 -2.58448e-06 -4.30471e-06)
(-4.18333e-05 -5.76457e-06 -4.61818e-06)
(-3.77021e-05 -2.64162e-06 -3.90666e-06)
(-3.58298e-05 1.44947e-05 -4.07111e-06)
(-4.78512e-05 -3.68746e-06 -5.63132e-06)
(-3.73137e-05 6.07428e-06 -4.7622e-06)
(-4.81781e-05 4.39918e-06 -4.7725e-06)
(-3.6788e-05 7.45053e-06 -4.05724e-06)
(-3.95118e-05 -3.30349e-06 -4.4823e-06)
(-3.66202e-05 -9.71499e-06 1.81946e-08)
(-3.63791e-05 -6.57715e-07 -5.60147e-07)
(-5.00994e-05 -9.83789e-06 1.25277e-06)
(-3.59098e-05 -7.83927e-06 5.52446e-07)
(-4.85028e-05 -5.42721e-06 -4.34176e-07)
(-3.63232e-05 -4.57451e-06 -2.85979e-07)
(-3.58841e-05 -1.22179e-05 8.72505e-07)
(-2.62416e-05 -1.26777e-05 -3.03007e-08)
(-2.7432e-05 -1.13666e-05 -3.71995e-08)
(-3.2264e-05 -7.44976e-06 3.46097e-07)
(-3.10634e-05 -8.18988e-06 2.92347e-07)
(-5.62346e-05 -1.12159e-05 8.44332e-07)
(-4.95968e-05 -1.11078e-05 1.68288e-06)
(-6.77448e-05 -8.37953e-06 -9.6423e-06)
(-9.43143e-05 -8.21676e-06 -1.41037e-05)
(-4.24234e-05 9.68052e-06 -6.1566e-06)
(-6.70348e-05 -5.24152e-06 -9.7516e-06)
(-9.66416e-05 -1.08055e-05 -1.42097e-05)
(-4.36418e-05 1.06338e-05 -6.20313e-06)
(-6.34992e-05 -3.67769e-06 -9.56404e-06)
(-9.24008e-05 -5.72379e-06 -1.40366e-05)
(-4.17252e-05 9.9338e-06 -6.16217e-06)
(-6.61825e-05 -4.41462e-06 -9.75424e-06)
(-9.02972e-05 -3.0339e-06 -1.39586e-05)
(-4.07477e-05 1.04305e-05 -6.1414e-06)
(-3.88615e-05 -9.67756e-06 2.00575e-06)
(-3.77283e-05 -1.08922e-05 2.11821e-06)
(-3.92389e-05 -9.32426e-06 1.95772e-06)
(-4.03812e-05 -8.42909e-06 1.83342e-06)
(-3.51706e-05 -5.8633e-06 4.18671e-07)
(-3.63821e-05 3.3694e-07 -6.4253e-07)
(-3.51784e-05 -9.02987e-07 -6.59922e-07)
(-3.63718e-05 -4.62906e-06 4.47228e-07)
(-3.46578e-05 5.44954e-06 -2.21239e-06)
(-3.63171e-05 1.95483e-06 -1.0219e-06)
(-3.51132e-05 7.14352e-07 -1.03609e-06)
(-3.58588e-05 6.67759e-06 -2.2065e-06)
(-2.41088e-05 -5.88186e-06 -1.94202e-06)
(-2.53279e-05 3.39427e-07 -3.10056e-06)
(-2.41432e-05 -9.02703e-07 -3.07878e-06)
(-2.52939e-05 -4.64639e-06 -1.97917e-06)
(-2.47411e-05 5.47775e-06 -4.43828e-06)
(-2.54115e-05 1.964e-06 -3.45711e-06)
(-2.42259e-05 7.21307e-07 -3.44067e-06)
(-2.59319e-05 6.7066e-06 -4.43877e-06)
(-4.03415e-05 1.26448e-05 -2.89534e-06)
(-4.87199e-05 6.04922e-06 -5.9142e-06)
(-5.06031e-05 5.67547e-06 -6.04776e-06)
(-3.91763e-05 1.17161e-05 -2.78012e-06)
(-4.09841e-05 1.15054e-05 -2.55191e-06)
(-4.26089e-05 7.604e-06 -1.40341e-06)
(-4.14301e-05 6.71612e-06 -1.37657e-06)
(-4.21396e-05 1.23962e-05 -2.60458e-06)
(-4.05956e-05 1.12018e-05 -2.52466e-06)
(-3.98583e-05 5.49014e-06 -1.24832e-06)
(-3.9429e-05 1.02628e-05 -2.40987e-06)
(-4.10347e-05 6.42082e-06 -1.35371e-06)
(-3.79362e-05 -2.93397e-06 4.136e-07)
(-3.67778e-05 7.56796e-07 -6.44112e-07)
(-3.67668e-05 -4.20676e-06 4.49109e-07)
(-3.79555e-05 2.01366e-06 -6.83111e-07)
(-3.8253e-05 -4.19717e-06 7.42044e-07)
(-3.90272e-05 -8.04982e-06 1.66879e-06)
(-3.78899e-05 -9.24651e-06 1.78367e-06)
(-3.94037e-05 -3.05943e-06 6.22558e-07)
(-3.8323e-05 -2.52129e-06 3.86111e-07)
(-3.95216e-05 3.54074e-06 -8.29147e-07)
(-3.83467e-05 2.42026e-06 -7.10713e-07)
(-3.94801e-05 -1.39398e-06 2.6636e-07)
(-3.75889e-05 1.01911e-05 -2.61997e-06)
(-4.83901e-05 6.10245e-06 -5.88067e-06)
(-4.67122e-05 6.48794e-06 -5.78862e-06)
(-3.8783e-05 1.13684e-05 -2.73226e-06)
(-3.74452e-05 8.34504e-06 -2.22678e-06)
(-3.67131e-05 2.37253e-06 -1.02384e-06)
(-3.6255e-05 7.08827e-06 -2.20555e-06)
(-3.78939e-05 3.62543e-06 -1.06026e-06)
(-3.78437e-05 8.75866e-06 -2.24858e-06)
(-3.94667e-05 5.15763e-06 -1.20564e-06)
(-3.90358e-05 9.91891e-06 -2.36307e-06)
(-3.8287e-05 4.03235e-06 -1.08789e-06)
(-4.14505e-05 1.103e-07 8.89169e-08)
(-4.26792e-05 5.94945e-06 -1.0189e-06)
(-4.149e-05 5.08358e-06 -9.97784e-07)
(-4.26476e-05 8.97163e-07 6.63456e-08)
(-4.09675e-05 -1.83701e-06 4.64709e-07)
(-3.94065e-05 -7.70402e-06 1.62139e-06)
(-4.05572e-05 -6.83952e-06 1.49972e-06)
(-3.979e-05 -2.72555e-06 5.77909e-07)
(-4.10488e-05 -1.66606e-07 1.12789e-07)
(-3.99129e-05 3.87305e-06 -8.71514e-07)
(-4.10925e-05 4.79331e-06 -9.76119e-07)
(-3.98681e-05 -1.06254e-06 2.22892e-07)
(-6.9942e-05 -1.15025e-05 -8.15425e-06)
(-4.30101e-05 9.52294e-06 -5.94905e-06)
(-9.74621e-05 -1.226e-05 -1.17048e-05)
(-4.42095e-05 1.04227e-05 -5.97814e-06)
(-6.91644e-05 -8.07633e-06 -8.35352e-06)
(-9.99007e-05 -1.50973e-05 -1.17159e-05)
(-6.5697e-05 -6.13902e-06 -8.34806e-06)
(-4.2268e-05 9.76987e-06 -6.00503e-06)
(-9.54454e-05 -9.46144e-06 -1.17579e-05)
(-4.12361e-05 1.04312e-05 -6.03864e-06)
(-6.82492e-05 -6.95736e-06 -8.44281e-06)
(-9.32316e-05 -6.47434e-06 -1.18197e-05)
(-3.08755e-05 1.26515e-05 -4.4507e-06)
(-4.43137e-05 5.08723e-06 -6.45097e-06)
(-4.62393e-05 4.70102e-06 -6.40551e-06)
(-2.97004e-05 1.17613e-05 -4.53495e-06)
(-3.09988e-05 1.14928e-05 -4.16406e-06)
(-3.16687e-05 7.6185e-06 -3.16477e-06)
(-3.04873e-05 6.73785e-06 -3.16803e-06)
(-3.21883e-05 1.23693e-05 -4.15405e-06)
(-3.05974e-05 1.1206e-05 -4.17979e-06)
(-2.89244e-05 5.51573e-06 -3.26622e-06)
(-2.9423e-05 1.03067e-05 -4.26397e-06)
(-3.00919e-05 6.44508e-06 -3.18326e-06)
(-2.68772e-05 -2.95376e-06 -1.95875e-06)
(-2.5723e-05 7.58796e-07 -3.10119e-06)
(-2.56892e-05 -4.22502e-06 -1.98425e-06)
(-2.69033e-05 2.01626e-06 -3.07143e-06)
(-2.73322e-05 -4.22251e-06 -1.55524e-06)
(-2.88805e-05 -8.08638e-06 -2.83586e-07)
(-2.85232e-05 -3.08042e-06 -1.44535e-06)
(-2.76757e-05 -9.28143e-06 -3.94247e-07)
(-2.72728e-05 -2.54293e-06 -1.93529e-06)
(-2.84619e-05 3.55182e-06 -2.94387e-06)
(-2.72946e-05 2.42251e-06 -3.04799e-06)
(-2.84573e-05 -1.41042e-06 -1.82647e-06)
(-2.81648e-05 1.02327e-05 -4.67226e-06)
(-4.39793e-05 5.21251e-06 -6.46591e-06)
(-4.23142e-05 5.71281e-06 -6.57823e-06)
(-2.93146e-05 1.14159e-05 -4.57538e-06)
(-2.75005e-05 8.38031e-06 -4.42094e-06)
(-2.58064e-05 2.38175e-06 -3.45702e-06)
(-2.63276e-05 7.11865e-06 -4.43884e-06)
(-2.69843e-05 3.63577e-06 -3.42856e-06)
(-2.78855e-05 8.79532e-06 -4.40166e-06)
(-2.8537e-05 5.17908e-06 -3.30286e-06)
(-2.90369e-05 9.96321e-06 -4.30335e-06)
(-2.73738e-05 4.0426e-06 -3.40532e-06)
(-3.04125e-05 9.94378e-08 -1.66693e-06)
(-3.15869e-05 5.97087e-06 -2.8013e-06)
(-3.041e-05 5.10335e-06 -2.80664e-06)
(-3.15887e-05 8.91924e-07 -1.64214e-06)
(-3.00919e-05 -1.85835e-06 -1.29852e-06)
(-2.92818e-05 -7.74404e-06 -2.3708e-07)
(-2.89171e-05 -2.74805e-06 -1.40305e-06)
(-3.04859e-05 -6.87396e-06 -1.16092e-07)
(-3.00198e-05 -1.80623e-07 -1.68758e-06)
(-2.88499e-05 3.8864e-06 -2.9067e-06)
(-3.00158e-05 4.8106e-06 -2.82219e-06)
(-2.88492e-05 -1.07998e-06 -1.78617e-06)
(-4.09944e-05 -1.48532e-06 -3.37724e-06)
(-3.83115e-05 1.26419e-05 -3.27074e-06)
(-5.58529e-05 1.14026e-06 -3.32174e-06)
(-3.83408e-05 3.98778e-06 -2.42115e-06)
(-5.71657e-05 4.58593e-06 -4.99007e-06)
(-4.14288e-05 -2.14107e-06 -2.60081e-06)
(-3.86121e-05 6.23775e-06 -3.27432e-06)
(-4.18006e-05 -6.35314e-06 -1.20116e-06)
(-3.82549e-05 1.04696e-06 -6.42225e-07)
(-5.59085e-05 5.08963e-07 -2.81304e-06)
(-3.86198e-05 1.43277e-06 -1.6882e-06)
(-5.61618e-05 -3.21721e-06 -1.36094e-06)
(-4.19823e-05 -3.66083e-06 -1.95336e-06)
(-3.88126e-05 -1.23975e-06 -9.08425e-07)
(-3.69571e-05 -1.4802e-06 -3.12538e-06)
(-3.64297e-05 1.26374e-05 -3.56418e-06)
(-4.80058e-05 1.13911e-06 -2.88873e-06)
(-3.6107e-05 4.04078e-06 -2.52753e-06)
(-4.99878e-05 4.60003e-06 -4.43811e-06)
(-3.65274e-05 6.3665e-06 -3.32757e-06)
(-3.68118e-05 -2.11964e-06 -2.31027e-06)
(-3.67294e-05 -6.33575e-06 -8.10066e-07)
(-3.63756e-05 1.04706e-06 -9.38035e-07)
(-4.74926e-05 5.12762e-07 -2.49048e-06)
(-3.60986e-05 1.45031e-06 -1.78878e-06)
(-4.80218e-05 -3.24318e-06 -9.4816e-07)
(-3.63543e-05 -1.18024e-06 -1.00876e-06)
(-3.66865e-05 -3.64305e-06 -1.70605e-06)
(-2.90406e-05 -9.71366e-06 8.93861e-08)
(-2.78318e-05 -1.09272e-05 -2.04264e-08)
(-2.94444e-05 -9.36466e-06 1.37362e-07)
(-3.06568e-05 -8.46507e-06 2.62216e-07)
(-1.5667e-05 -3.06366e-05 2.32134e-06)
(-1.63603e-05 -4.13882e-05 1.14846e-05)
(-2.41162e-05 -4.66516e-05 3.91579e-06)
(-4.85833e-05 -5.08392e-05 9.18225e-06)
(-5.25119e-05 -6.04647e-05 3.37388e-06)
(-7.14357e-05 -6.47333e-05 7.34037e-06)
(-7.43882e-05 -7.46227e-05 2.6352e-06)
(-1.63826e-05 -4.48333e-06 -1.83279e-06)
(-1.73986e-05 -3.79772e-06 -2.47873e-06)
(-1.42459e-05 2.55762e-06 -3.24511e-06)
(-1.62997e-05 8.37465e-06 -3.26729e-06)
(-1.70648e-05 -1.71038e-06 -1.8875e-06)
(-1.74987e-05 -8.32608e-07 -2.5567e-06)
(-2.07862e-05 -4.23541e-06 -1.12603e-06)
(-1.83021e-05 -2.83995e-07 -2.43003e-06)
(-1.48871e-05 5.388e-06 -3.22067e-06)
(-1.79304e-05 1.16762e-07 -1.792e-06)
(-1.21545e-05 -1.33574e-05 -6.79658e-07)
(-1.40861e-05 -1.69351e-05 1.72735e-06)
(-6.05645e-06 -1.81158e-05 2.70258e-06)
(-5.78597e-05 8.07702e-06 -7.98591e-06)
(-3.9102e-05 1.99399e-05 -4.78138e-06)
(-3.77077e-05 2.08873e-05 -5.18432e-06)
(-3.87164e-05 1.95833e-05 -4.74436e-06)
(-3.73196e-05 2.05462e-05 -5.15546e-06)
(-5.87849e-05 4.86984e-06 -8.02292e-06)
(-4.84465e-05 1.04942e-05 -7.4781e-06)
(-3.32278e-05 1.4554e-05 -4.57305e-06)
(-3.18681e-05 1.55099e-05 -5.09416e-06)
(-4.78529e-05 1.08125e-05 -7.47786e-06)
(-3.36254e-05 1.49684e-05 -4.56647e-06)
(-3.22654e-05 1.5923e-05 -5.08952e-06)
(-1.46026e-05 -1.1671e-05 -8.34851e-07)
(-1.89685e-05 -1.23256e-05 -1.94801e-07)
(-1.5624e-05 -1.27419e-05 -3.7507e-07)
(-7.87324e-06 -2.0168e-05 2.93699e-06)
(-1.43602e-05 -1.76098e-05 1.63361e-06)
(-7.66639e-06 -1.82688e-05 2.58805e-06)
(-1.40747e-05 -1.99984e-05 1.7046e-06)
(-1.74997e-05 -1.8378e-05 6.36516e-07)
(-1.0949e-05 -2.28107e-05 2.70848e-06)
(-1.40101e-05 -1.74036e-05 9.70301e-07)
(-7.79968e-06 -2.33755e-05 3.56623e-06)
(-1.28221e-05 -2.96765e-05 2.62219e-06)
(-1.36297e-05 -2.42279e-05 2.05942e-06)
(-8.52776e-06 -2.77947e-05 4.39095e-06)
(-4.65829e-05 1.06028e-05 -7.4579e-06)
(-3.28296e-05 1.41495e-05 -4.58018e-06)
(-3.147e-05 1.51056e-05 -5.09939e-06)
(-4.73347e-05 1.0737e-05 -7.47559e-06)
(-3.24323e-05 1.37565e-05 -4.58569e-06)
(-3.10715e-05 1.47108e-05 -5.10471e-06)
(-4.70562e-05 9.90248e-06 -7.53739e-06)
(-3.03553e-05 1.50882e-05 -5.34516e-06)
(-2.90319e-05 1.4142e-05 -5.4282e-06)
(-2.99562e-05 1.46939e-05 -5.34951e-06)
(-2.86329e-05 1.3749e-05 -5.43122e-06)
(-4.78527e-05 1.00277e-05 -7.54333e-06)
(-1.6743e-05 -3.3251e-06 -2.97098e-06)
(-2.13247e-05 -2.19458e-06 -4.80086e-06)
(-1.57585e-05 5.39049e-06 -4.01124e-06)
(-5.8101e-05 6.85599e-06 -7.52215e-06)
(-3.65985e-05 2.08557e-05 -5.33773e-06)
(-3.52797e-05 1.99224e-05 -5.33385e-06)
(-3.61862e-05 2.05399e-05 -5.31794e-06)
(-3.49124e-05 1.96035e-05 -5.30293e-06)
(-5.81688e-05 4.22139e-06 -7.439e-06)
(-4.91517e-05 9.89462e-06 -7.52746e-06)
(-3.07533e-05 1.54928e-05 -5.34214e-06)
(-2.943e-05 1.45471e-05 -5.42823e-06)
(-3.11498e-05 1.59069e-05 -5.33987e-06)
(-4.84958e-05 1.02722e-05 -7.54848e-06)
(-2.98253e-05 1.49633e-05 -5.42893e-06)
(-1.8065e-05 1.02288e-05 -4.0465e-06)
(-1.74278e-05 -6.20101e-08 -3.05023e-06)
(-2.36591e-05 1.44279e-06 -5.02338e-06)
(-2.00219e-05 -7.35579e-06 -3.11049e-06)
(-1.8964e-05 1.91134e-07 -2.93592e-06)
(-1.68595e-05 7.91813e-06 -4.00212e-06)
(-2.62404e-05 1.83137e-06 -5.00207e-06)
(-1.75433e-05 8.79391e-06 -2.97777e-06)
(-2.10051e-05 -4.17755e-06 -1.00466e-06)
(-2.20157e-05 -2.45199e-06 -1.17258e-06)
(-2.0172e-05 -3.98321e-06 -1.73667e-06)
(-1.90676e-05 -1.01748e-07 -2.17839e-06)
(-2.10316e-05 4.0029e-06 -2.43926e-06)
(-1.91576e-05 4.25426e-07 -1.58606e-06)
(-1.97462e-05 1.0759e-05 -3.81674e-06)