/*--------------------------------*- C++ -*----------------------------------*\
| =========                 |                                                 |
| \\      /  F ield         | OpenFOAM: The Open Source CFD Toolbox           |
|  \\    /   O peration     | Version:  2012                                  |
|   \\  /    A nd           | Website:  www.openfoam.com                      |
|    \\/     M anipulation  |                                                 |
\*---------------------------------------------------------------------------*/
FoamFile
{
    version     2.0;
    format      ascii;
    class       volScalarField;
    location    "0.107/fluid";
    object      p;
}
// * * * * * * * * * * * * * * * * * * * * * * * * * * * * * * * * * * * * * //

dimensions      [0 2 -2 0 0 0 0];


internalField   nonuniform List<scalar> 
16422
(
0.122102
0.121495
0.121492
0.121198
0.121089
0.121054
0.121061
0.121128
0.121312
0.121775
0.123002
0.126469
0.13702
0.171231
0.248069
0.122036
0.121405
0.121368
0.121023
0.12084
0.12069
0.120514
0.120283
0.119973
0.11957
0.119134
0.118892
0.119087
0.117302
0.094149
0.121998
0.121349
0.121284
0.120905
0.120672
0.120443
0.120139
0.119691
0.119
0.117888
0.116035
0.112804
0.106765
0.0947381
0.0722278
0.121949
0.121338
0.121299
0.120928
0.120696
0.12047
0.120189
0.119816
0.119324
0.118718
0.118141
0.118103
0.119957
0.125146
0.113737
0.121879
0.121249
0.121181
0.120767
0.120472
0.120151
0.119721
0.119115
0.118246
0.11701
0.11529
0.112945
0.109455
0.101955
0.0799206
0.121839
0.121194
0.121101
0.120658
0.12032
0.119935
0.119401
0.118622
0.117462
0.115701
0.112983
0.108679
0.10156
0.0893317
0.0694839
0.121824
0.121206
0.121132
0.120694
0.12035
0.119954
0.119411
0.118631
0.117495
0.115836
0.113432
0.109943
0.104598
0.0948149
0.0734164
0.12175
0.121117
0.12102
0.120545
0.120148
0.119674
0.119013
0.118055
0.116649
0.114579
0.111526
0.106993
0.100013
0.088483
0.0692543
0.121708
0.121062
0.120943
0.120442
0.12001
0.119484
0.118741
0.117652
0.116038
0.113623
0.109991
0.104501
0.0961667
0.0836852
0.0663789
0.121749
0.121127
0.121024
0.120538
0.12012
0.119609
0.118889
0.11783
0.116251
0.113869
0.110256
0.104752
0.0963262
0.0835156
0.0652729
0.121673
0.121038
0.120914
0.120396
0.119932
0.119355
0.118536
0.117336
0.115558
0.112906
0.108949
0.103058
0.0943552
0.0818191
0.0651036
0.121629
0.120984
0.120839
0.120298
0.119803
0.119181
0.118296
0.116994
0.115061
0.112184
0.107914
0.101628
0.092581
0.0801613
0.0645738
0.396986
-0.0844658
0.378131
-0.0767321
0.168079
0.0247932
0.193868
0.32203
0.260114
-0.0450527
0.11103
0.0408856
0.185913
0.304584
0.143943
0.167119
0.561546
0.470705
-0.0305607
0.108533
0.0426
0.141115
0.0327084
0.0910186
0.0460356
0.125795
0.0329008
0.0794878
0.045066
0.586453
0.591615
0.462243
0.27959
0.568439
0.449373
0.323453
0.477317
0.375345
0.279799
-0.0397569
0.214476
0.222976
0.190381
0.291948
0.1743
0.0504117
0.00625359
-0.135254
0.100602
0.226263
0.229966
0.193107
0.150628
0.296348
0.22742
0.179516
0.0519507
-0.0242587
0.0189649
0.0974528
-0.127249
0.175264
0.110212
0.610692
0.601833
0.738375
0.734241
0.922398
0.505964
0.663496
0.818486
1.03587
0.695248
0.795792
1.00198
0.814847
1.03656
0.700091
1.04269
0.847722
0.718421
-0.328887
0.0579013
0.673038
0.207334
0.63206
0.745593
0.633068
0.930804
0.772758
0.523874
0.6854
1.0435
0.85577
1.01056
0.715709
0.835514
0.211995
0.439603
0.630909
0.134689
0.0784238
-0.321983
0.0655527
-0.284858
0.220755
0.678449
0.215308
0.656628
0.0748124
-0.179815
0.0413649
-0.271676
0.251818
0.362385
0.448518
0.266999
0.364103
0.239367
0.287396
0.075342
-0.168507
0.169115
0.179939
0.0339286
-0.0094361
-0.154027
-0.0856107
-0.043652
-0.0749066
0.26136
0.45375
0.383106
0.271848
0.377469
0.290706
0.253043
0.0972924
-0.164759
0.335323
0.176083
0.0971407
0.0444974
0.198354
0.0137446
-0.150463
-0.13298
-0.0732278
0.0278912
-0.0323453
-0.0512137
0.907455
0.806199
1.07854
0.985595
1.35737
0.737723
1.14977
1.21299
1.6293
1.14905
1.22166
1.63162
-0.789117
-0.787456
-0.528886
-0.653253
1.13135
1.19942
1.61842
1.1431
1.18017
1.60142
-0.564784
-0.761036
-0.746656
-0.575466
0.538007
0.890812
0.866238
0.559976
1.15514
1.61242
1.24255
1.59413
1.21905
1.16901
-0.418228
-0.597593
-0.604185
-0.405687
0.630297
0.963987
0.931265
0.665731
-0.787191
-0.772195
-0.631826
-0.636737
0.503419
0.593641
0.771399
0.291069
-0.573957
-0.762312
-0.760867
-0.574909
0.580247
0.897644
0.911051
0.567373
-0.500352
-0.512546
-0.638733
-0.406288
0.933983
1.08142
0.841145
1.35883
1.03073
0.758672
1.17989
1.6247
1.25978
1.62872
1.17686
1.27173
0.616188
0.642444
0.845716
0.361478
-0.38306
-0.593024
-0.399521
-0.576175
0.699959
0.973059
0.676853
0.992813
-0.315285
-0.376046
-0.270026
-0.460596
0.375728
0.491138
0.602207
0.396051
0.518511
0.350503
0.411349
0.166662
0.488448
-0.0607485
0.295327
0.157893
0.27631
0.142326
-0.11418
-0.125467
-0.320661
-0.125103
-0.258385
-0.103499
-0.151075
0.387378
0.605528
0.513506
0.3994
0.534082
0.414119
0.365224
0.187594
-0.0548603
0.524414
0.300061
0.202397
0.14788
0.295197
-0.0829232
-0.118172
-0.238261
-0.115727
-0.176095
-0.0941928
-0.119682
-0.628143
-0.611707
-0.393316
-0.483601
-0.340011
-0.256829
1.00729
1.17854
1.57036
1.07903
1.11063
1.48702
1.14006
1.20897
1.60372
1.11521
1.22214
1.62559
-0.761606
-0.783563
-0.749435
-0.683057
-0.488812
-0.187554
-0.19003
-0.496353
0.331218
-0.0822749
-0.0882246
0.349256
-0.345882
-0.0433695
-0.0661898
-0.331453
0.430729
0.0578291
0.0322922
0.463088
0.528695
0.886681
0.81218
0.576823
0.312395
-0.133368
-0.0664749
0.149643
0.331296
-0.0599287
0.368535
-0.0729486
-0.493521
-0.183937
-0.494778
-0.17945
-0.570736
-0.737543
-0.756823
-0.559998
-0.48952
-0.171797
-0.175103
-0.480391
0.58362
0.896742
0.912048
0.58012
0.368349
-0.0773571
0.356138
-0.0711785
0.37253
-0.0643019
0.370226
-0.0660452
-0.442208
-0.190765
-0.162485
-0.364612
-0.517523
-0.726292
-0.666147
-0.554811
-0.456521
-0.167302
-0.171997
-0.474724
1.03683
1.5701
1.23165
1.48743
1.11011
1.16103
1.17146
1.60254
1.26245
1.62393
1.14682
1.27451
0.647568
0.971393
0.890525
0.702902
0.435525
-0.0265004
0.0906054
0.230675
0.46075
0.110267
0.505136
0.0878296
-0.308326
-0.0344242
-0.325043
-0.0148027
-0.375482
-0.54165
-0.354798
-0.568394
-0.301187
0.00398947
-0.00694462
-0.282857
0.705604
0.981834
0.995179
0.706648
0.497973
0.0677284
0.474455
0.0884145
0.504696
0.105556
0.507586
0.096752
-0.252271
-0.0843693
0.000901466
-0.23347
-0.326322
-0.530057
-0.347488
-0.480938
-0.261381
0.00886163
-0.0038599
-0.276769
0.0800192
-0.107729
-0.0955065
0.011716
0.0796584
0.00718264
0.0599385
-0.0815293
-0.125259
-0.129176
-0.0368529
-0.225912
-0.0400583
-0.0784474
0.103197
-0.101134
-0.0326783
0.0188541
0.128936
0.0662782
0.0345936
-0.0519203
-0.118703
-0.0663294
-0.0300267
-0.146827
-0.0711094
-0.0108305
-0.575468
-0.604268
-0.563186
-0.506636
0.0362845
0.0847853
0.0465635
0.0783019
0.0464069
0.0724975
0.0488954
-0.212123
0.0399999
-0.0642944
-0.038385
-0.200278
0.0458717
-0.0645419
0.0496725
-0.052651
-0.179959
0.127291
0.0309216
0.105552
1.48562
1.28766
1.41646
1.71074
1.83359
1.17397
1.97078
2.08731
2.37838
1.97053
2.09373
2.3702
0.129322
-0.00672921
0.121875
0.0970663
0.0350511
0.104358
0.037547
0.0124017
0.0830573
0.0954699
0.0845146
0.0418548
0.0402631
0.0746117
1.94441
2.07553
2.36758
1.96213
2.06233
2.33989
1.96887
2.33211
2.115
2.30311
2.09974
1.98937
0.159852
0.412343
0.155161
1.516
1.40955
1.32167
1.7992
1.76127
1.19654
1.99899
2.3432
2.12897
2.33482
1.99903
2.13686
0.166579
0.164045
0.416109
0.267212
0.1595
0.164338
0.403099
-0.0288511
-0.0558528
-0.103605
0.045396
0.0478818
-0.00324224
-0.153647
0.153436
0.306984
0.247585
0.129839
0.148624
0.365183
0.141482
0.513751
0.457232
0.641031
0.376185
0.712496
0.448994
0.504315
0.242248
0.129026
0.0626306
0.292518
0.068779
0.331437
0.217526
-0.154402
-0.131064
-0.162195
-0.137796
-0.158853
-0.12942
-0.159242
0.521124
0.641496
0.471376
0.378355
0.725078
0.506197
0.460083
0.2554
0.0633295
0.131946
0.294412
0.073954
0.222108
0.343709
0.026128
-0.00401755
-0.0567186
0.043756
0.049045
0.0158839
-0.0325929
-0.130367
-0.123436
-0.135663
-0.132321
-0.132083
-0.125007
-0.136329
0.0917062
0.209814
0.111154
0.143695
0.0972047
0.108302
0.163398
-0.162235
-0.134683
1.92546
2.09909
2.37407
1.95484
2.07664
2.33623
1.97154
2.10104
2.38101
1.96649
2.1074
2.37804
-0.482226
-0.574745
-0.571444
-0.482197
-0.348461
-0.163322
-0.167194
-0.346454
0.311949
0.83442
0.821755
0.323026
0.142177
0.0155983
0.00925844
0.151361
-0.387749
-0.467812
-0.33437
-0.21807
-0.225189
-0.473319
-0.38064
-0.25512
0.0482251
-0.100212
-0.0582301
-0.108546
-0.0708848
-0.244929
0.398434
0.902931
0.662284
0.478116
0.884823
0.466662
0.416386
0.227008
0.196889
0.116251
0.350015
0.101943
0.33872
0.243647
0.14749
0.0294265
0.16061
0.0271405
0.249107
0.581795
0.683945
0.238791
0.285379
0.801523
0.75294
0.314446
0.124932
0.0327049
0.0196924
0.11931
-0.337575
-0.148031
-0.154039
-0.32614
-0.476977
-0.576708
-0.572831
-0.483081
-0.472514
-0.549408
-0.566292
-0.455588
-0.340845
-0.160911
-0.34672
-0.15707
0.166345
0.0289883
0.164926
0.0273313
0.333835
0.840919
0.841042
0.330806
0.333011
0.825167
0.836437
0.326651
0.163818
0.0205573
0.15885
0.0244433
-0.285936
-0.143046
-0.131291
-0.315681
-0.35032
-0.28026
-0.411809
-0.235689
-0.405135
-0.524785
-0.480746
-0.43913
-0.251215
-0.0736424
-0.117421
-0.170761
1.95906
2.34084
2.15175
2.30275
1.98958
2.12892
2.00429
2.34822
2.15291
2.34428
2.00097
2.1587
0.24543
0.142845
0.34233
0.195731
0.265511
0.133251
0.315568
0.338015
0.633949
0.526043
0.317376
0.75104
0.37061
0.307485
0.385179
0.455876
0.880128
0.582238
0.827593
0.42023
0.418501
0.211277
0.16518
0.102271
0.229032
0.113361
0.274055
0.186175
-0.219519
0.076082
-0.0280858
-0.071081
-0.0785381
-0.0343041
-0.208014
-0.363344
-0.462086
-0.210914
-0.311269
-0.201248
-0.373898
-0.452326
-0.226416
0.0721613
-0.0926436
-0.0493232
-0.0846618
-0.237278
-0.0403911
-0.354593
-0.180927
-0.300663
-0.424205
-0.192816
-0.339974
-0.441733
0.272896
0.223132
0.145086
0.355984
0.272269
0.142808
0.362602
0.437602
0.913705
0.485649
0.678391
0.429842
0.917611
0.488295
0.267253
0.221028
0.127669
0.358075
0.25735
0.136733
0.362577
0.439772
0.475023
0.904914
0.672452
0.915337
0.434377
0.485911
-0.183501
-0.0262906
0.0687334
-0.0681666
-0.0238167
-0.201684
-0.0625263
-0.254774
-0.210419
-0.119241
-0.222763
-0.146655
-0.170249
-0.316428
-0.164529
0.0519379
-0.00261678
-0.0534233
-0.0244622
-0.063757
-0.104796
-0.295698
-0.173336
-0.402384
-0.245537
-0.325491
-0.156825
-0.366838
0.193068
0.354739
0.203006
0.279866
-0.119868
-0.172473
-0.171219
-0.131012
-0.163043
-0.129115
-0.134073
0.109721
0.0338306
0.100626
0.0409188
-0.121224
-0.139047
-0.162847
-0.118074
-0.152944
-0.122595
-0.11032
-0.103779
-0.190842
-0.141985
-0.143306
-0.061943
-0.0234526
-0.0829965
-0.00930673
-0.100592
-0.166116
-0.149829
-0.127805
-0.142172
-0.129825
-0.110734
0.220546
0.38889
0.251695
0.261059
0.243349
0.302556
0.20522
0.13945
0.0915186
0.0756473
0.175442
0.142845
0.0723407
0.150204
-0.10103
-0.134885
-0.141513
-0.114219
-0.130646
-0.106141
-0.103285
-0.069431
-0.149633
-0.0888177
-0.0918395
-0.10189
-0.0487874
-0.108989
-0.028141
0.044384
0.0170796
-0.0412677
-0.0429889
0.0235472
-0.00871489
1.64118
1.94984
2.1802
1.83555
2.02199
1.76941
1.97383
2.10149
2.39067
2.10033
2.37475
1.9828
-0.790239
-0.789059
-0.558021
-0.609966
1.93123
2.02883
2.32374
2.04424
2.32207
1.92555
-0.643554
-0.568256
-0.647009
-0.755813
-0.70864
-0.703114
-0.695229
-0.751839
-0.699998
-0.569869
-0.656394
-0.649338
0.431403
0.593124
0.54143
0.416376
0.596075
0.637389
0.916672
0.856013
0.773686
0.890604
0.656494
0.7465
0.626957
0.74822
0.884445
0.845704
0.878745
0.623839
0.737315
0.43974
0.549579
0.618192
0.447454
0.604269
1.95412
2.28706
2.06145
2.28504
2.07887
1.94856
-0.490933
-0.417737
-0.489332
-0.599503
-0.537686
-0.54007
-0.546167
-0.602272
-0.544127
-0.409894
-0.48105
-0.483875
0.532812
0.679925
0.638247
0.512998
0.686702
0.735454
1.00995
0.926014
0.861162
0.979928
0.759137
0.830237
0.721069
0.825928
0.967738
0.912781
0.964719
0.714434
0.817854
0.545725
0.650543
0.716546
0.558683
0.698508
-0.782336
-0.777644
-0.633586
-0.635268
0.365663
0.549614
0.453206
0.410475
0.490923
0.457145
0.596473
0.623899
0.507051
0.650409
0.379107
0.546426
0.533642
0.687429
0.818141
0.669491
0.730256
0.599866
0.603886
0.298439
0.388897
0.333163
0.138266
0.422359
-0.657802
-0.572614
-0.656046
-0.763351
-0.709033
-0.710078
-0.708495
-0.761729
-0.708408
-0.574675
-0.656471
-0.656778
0.477874
0.642703
0.572905
0.484686
0.631498
0.667426
0.925631
0.87691
0.780917
0.919778
0.665703
0.76851
0.674631
0.795879
0.947558
0.880031
0.924609
0.691043
0.772283
0.470009
0.568912
0.625459
0.455495
0.626817
-0.56317
-0.481716
-0.538801
-0.555173
-0.485809
-0.530609
-0.601137
-0.602559
-0.572383
-0.438309
-0.445685
-0.492812
1.67357
2.14632
2.00211
1.98916
1.88675
1.80306
2.00322
2.35707
2.14824
2.33974
2.14585
2.01448
0.481628
0.648975
0.556874
0.535756
0.580468
0.545666
0.654899
0.68135
0.564829
0.729157
0.455722
0.613718
0.635776
0.775252
0.917113
0.736015
0.820551
0.71102
0.68269
0.390734
0.478941
0.39624
0.229629
0.498017
-0.388236
-0.459693
-0.464531
-0.532445
-0.58854
-0.528313
-0.395909
-0.475642
-0.471786
-0.516212
-0.581992
-0.52153
0.600539
0.689288
0.752499
0.611147
0.738533
0.776434
1.02164
0.871072
0.954529
0.771793
1.0184
0.860993
0.588903
0.682116
0.727002
0.571116
0.731183
0.786679
0.893161
1.0516
0.959618
1.0257
0.806395
0.867063
-0.309696
-0.382106
-0.373062
-0.346623
-0.399562
-0.367016
-0.277074
-0.308432
-0.329673
-0.41758
-0.434704
-0.399559
0.256615
0.324295
0.380509
0.350423
0.237875
0.337919
0.289722
0.17056
0.0151851
-0.0279601
-0.00694072
0.0584248
0.108157
0.0586294
0.172508
0.152969
0.232442
0.046755
0.151423
0.214529
0.0795487
-0.146205
-0.127595
-0.149515
-0.115943
-0.153549
-0.122967
-0.140067
-0.164114
-0.222304
-0.308327
-0.225867
-0.207181
-0.174971
-0.217126
-0.151311
-0.192026
-0.172257
-0.277678
-0.189481
-0.13228
-0.203477
0.187346
0.0186646
-0.0121276
0.00139291
0.0703336
0.113977
0.0775707
0.281821
0.351711
0.421497
0.377433
0.270567
0.359624
0.319844
0.198374
0.185011
0.0685621
0.274949
0.181189
0.10608
0.247659
-0.123136
-0.119918
-0.12289
-0.111918
-0.126675
-0.117933
-0.116397
-0.131169
-0.174125
-0.224347
-0.173332
-0.159006
-0.142747
-0.16234
-0.117978
-0.133063
-0.127093
-0.195668
-0.142419
-0.102614
-0.147342
-0.623797
-0.617964
-0.408658
-0.450517
-0.23865
-0.185779
-0.190798
-0.185858
-0.153528
1.8889
1.99464
2.24695
1.83447
2.05111
2.30041
1.9755
2.10436
2.39226
1.9831
2.104
2.37716
-0.771031
-0.778743
-0.73337
-0.71142
-0.396455
-0.493558
-0.400177
-0.187272
-0.302011
-0.300873
-0.300832
-0.190061
-0.302996
-0.49322
-0.400679
-0.398981
0.129491
0.335952
0.134527
-0.0827202
0.0269796
0.0258017
0.0168427
-0.086791
0.0209174
0.343022
0.143208
0.140907
-0.25776
-0.34283
-0.25274
-0.0500034
-0.150693
-0.156308
-0.170387
-0.0589559
-0.164699
-0.335832
-0.240743
-0.245497
0.240688
0.440346
0.25209
0.0504085
0.163509
0.155762
0.134899
0.0405502
0.145499
0.451807
0.27134
0.263085
0.466296
0.58147
0.547873
0.447562
0.599082
0.668524
0.932689
0.844255
0.780678
0.906086
0.748451
0.686129
0.649901
0.718426
0.864215
0.820134
0.634753
0.878497
0.728164
0.480418
0.56368
0.633482
0.617376
0.483255
0.132698
0.271839
0.0971295
-0.0728009
-0.0717661
0.0104806
0.0319877
-0.0932695
-0.00674435
0.228145
0.00594329
0.0828311
0.349068
0.140975
0.159051
0.0510847
-0.0643865
0.0460658
0.359254
0.169054
0.162378
0.0307857
-0.0612895
0.0471555
-0.493384
-0.396181
-0.396598
-0.299124
-0.1834
-0.299999
-0.496861
-0.398395
-0.400184
-0.296162
-0.179662
-0.296385
-0.657219
-0.566324
-0.649477
-0.745676
-0.688152
-0.695741
-0.70478
-0.752541
-0.700485
-0.563686
-0.642813
-0.65279
-0.391915
-0.488671
-0.39201
-0.171096
-0.286747
-0.287509
-0.29202
-0.175094
-0.29226
-0.483338
-0.384756
-0.386933
0.496718
0.645175
0.580488
0.488588
0.640716
0.688849
0.941661
0.882027
0.788062
0.933808
0.693829
0.776889
0.690263
0.797753
0.949788
0.885298
0.694821
0.937271
0.779343
0.495518
0.579981
0.640444
0.493213
0.638522
0.364101
0.161419
0.160673
0.0327589
-0.0759295
0.0363175
0.359412
0.15042
0.154418
0.0420455
-0.0713571
0.0417357
0.371488
0.167794
0.16787
0.0483169
-0.0621819
0.0518797
0.372328
0.166484
0.171517
0.0475546
-0.0662209
0.0484189
-0.357565
-0.431873
-0.354463
-0.152865
-0.259369
-0.240847
-0.267571
-0.179028
-0.275553
-0.386188
-0.312957
-0.314843
-0.583973
-0.529892
-0.601543
-0.711047
-0.679
-0.663412
-0.624704
-0.691116
-0.646085
-0.540903
-0.640302
-0.617503
-0.371268
-0.463104
-0.37373
-0.169859
-0.281855
-0.283171
-0.279691
-0.165247
-0.277556
-0.470616
-0.379457
-0.379178
1.92221
2.21412
2.04688
1.86861
2.26667
2.10434
2.00752
2.35888
2.15281
2.01567
2.34353
2.15343
0.599802
0.687141
0.670494
0.577725
0.708866
0.78963
1.04206
0.927506
0.881316
1.01419
0.847444
0.808372
0.769065
0.811496
0.967642
0.901251
0.750846
0.984712
0.824678
0.615586
0.688824
0.74747
0.729918
0.619102
0.27118
0.386817
0.228182
0.0545713
0.0358681
0.125926
0.179487
0.0439029
0.137099
0.328186
0.101057
0.193861
0.482359
0.286464
0.308864
0.215422
0.104287
0.208712
0.495119
0.321438
0.314142
0.186816
0.105726
0.208926
-0.313305
-0.215798
-0.220779
-0.142382
-0.0281848
-0.137073
-0.320944
-0.233536
-0.228343
-0.123934
-0.019952
-0.128957
-0.370142
-0.452301
-0.446114
-0.483832
-0.551408
-0.492516
-0.361363
-0.429835
-0.43712
-0.508566
-0.560855
-0.501747
-0.20842
-0.296225
-0.203644
0.00268627
-0.102806
-0.105598
-0.116224
-0.00337462
-0.112394
-0.288249
-0.192646
-0.196792
0.628622
0.756765
0.704783
0.617824
0.753909
0.809601
1.0511
0.966548
0.889234
1.04211
0.815869
0.877426
0.809638
0.896601
1.05568
0.969298
0.812472
1.04448
0.879216
0.629128
0.70551
0.755041
0.62835
0.752548
0.490137
0.306504
0.30136
0.173916
0.074477
0.18269
0.481986
0.282602
0.29191
0.196966
0.083211
0.191872
0.506457
0.315017
0.31855
0.21269
0.105672
0.214355
0.508621
0.320249
0.323422
0.20527
0.0997065
0.209228
-0.172321
-0.255022
-0.184737
-0.0179751
-0.14543
-0.0976296
-0.0942293
-0.0318753
-0.117201
-0.225748
-0.188879
-0.160999
-0.332732
-0.392079
-0.401007
-0.473567
-0.516923
-0.462682
-0.341867
-0.421146
-0.412352
-0.433824
-0.500503
-0.448881
-0.179984
-0.265152
-0.179223
0.00570586
-0.0974614
-0.0982873
-0.100883
0.00840096
-0.0941878
-0.272538
-0.186961
-0.184631
-0.0879921
-0.148491
-0.075347
-0.0730779
-0.0201553
-0.12963
-0.118736
-0.0374247
-0.11881
-0.0551419
-0.0622125
-0.111109
-0.00982041
-0.0652162
-0.00842834
0.0999836
-0.0139705
-0.0050467
0.036581
-0.0802618
0.0375298
-0.125891
-0.129224
-0.146748
-0.111528
-0.133271
-0.147898
-0.109386
-0.0925705
-0.120973
-0.164168
-0.0921441
-0.128036
-0.0775472
-0.127686
-0.104834
-0.17695
-0.155095
-0.199273
-0.119832
-0.139872
-0.151714
-0.067274
-0.141275
-0.0584272
-0.0657896
0.000503107
-0.111095
-0.112861
-0.00894815
-0.0849197
0.00383464
-0.0121179
-0.0764001
0.0376231
-0.0367056
0.0188545
0.137918
0.0133355
0.0501143
0.0627768
-0.0464387
0.0802725
-0.105019
-0.124158
-0.121684
-0.107559
-0.110802
-0.123538
-0.105497
-0.0636412
-0.084632
-0.0961301
-0.0405494
-0.092064
-0.0486834
-0.0746011
-0.0759209
-0.118431
-0.112278
-0.124394
-0.0904758
-0.101062
-0.0966869
-0.586487
-0.596233
-0.548653
-0.530104
0.128102
0.129768
0.138606
0.143748
0.174277
0.120873
0.126703
0.120989
0.121705
0.128132
0.135668
0.122131
0.124323
0.139967
0.163875
0.125436
0.129521
0.17782
0.243773
0.130449
0.122262
0.118981
0.120002
0.118734
0.117766
0.119969
0.120003
0.117346
0.115654
0.120081
0.120575
0.114893
0.111638
0.120788
0.120597
0.110076
0.102845
0.119585
0.106376
0.099158
0.0821756
0.0956238
0.0400538
0.0743315
0.0467778
0.119256
0.118683
0.119041
0.118189
0.118389
0.117221
0.117817
0.116323
0.116706
0.114606
0.115658
0.112934
0.113656
0.109629
0.111703
0.106596
0.107742
0.0995015
0.104282
0.0948422
0.0956159
0.079483
0.0907185
0.0751764
0.0725029
0.048477
0.0690617
0.0494067
0.122123
0.120233
0.122007
0.120118
0.121521
0.120732
0.121402
0.120594
0.121528
0.12105
0.12138
0.120861
0.121247
0.121142
0.121041
0.120869
0.121158
0.121148
0.120857
0.120743
0.121154
0.12119
0.120706
0.120583
0.121211
0.121307
0.120538
0.120393
0.121354
0.121561
0.12034
0.120175
0.121659
0.1221
0.120119
0.119976
0.122318
0.123343
0.119947
0.120002
0.123874
0.126538
0.120104
0.12093
0.127999
0.135889
0.121492
0.124864
0.140522
0.168144
0.126885
0.137907
0.209417
0.196298
0.229832
0.182551
0.120209
0.12205
0.120144
0.121986
0.120093
0.121931
0.120028
0.120699
0.121426
0.120611
0.121376
0.120562
0.121308
0.120477
0.121004
0.121396
0.120881
0.121346
0.120819
0.121253
0.120701
0.121079
0.121063
0.120903
0.120994
0.12081
0.120867
0.120646
0.121057
0.120896
0.120802
0.120793
0.120659
0.120614
0.120427
0.121055
0.120772
0.120674
0.120614
0.120462
0.120359
0.120122
0.121104
0.120639
0.120522
0.120405
0.120214
0.120029
0.119704
0.121249
0.120479
0.120338
0.120143
0.119908
0.119577
0.119126
0.121616
0.120288
0.120143
0.119823
0.119571
0.118951
0.118339
0.122572
0.120103
0.120064
0.119497
0.119378
0.118108
0.117344
0.125228
0.120101
0.120523
0.119405
0.119919
0.117073
0.116271
0.13316
0.120827
0.122545
0.12033
0.122954
0.116026
0.115399
0.158605
0.123454
0.126783
0.124537
0.132733
0.115197
0.113809
0.23179
0.127455
0.11919
0.136791
0.146605
0.112495
0.100153
0.231033
0.220718
0.205565
0.142458
0.176899
0.156564
0.161514
0.120124
0.122019
0.120097
0.121916
0.120008
0.121898
0.119981
0.120584
0.121372
0.120532
0.121287
0.120451
0.121254
0.120401
0.120845
0.121309
0.120763
0.121226
0.120667
0.12117
0.120591
0.120852
0.120934
0.120732
0.12083
0.120599
0.120746
0.120488
0.120727
0.120708
0.120549
0.120562
0.120358
0.120441
0.120197
0.120562
0.120493
0.120291
0.120284
0.120021
0.120106
0.119779
0.120348
0.120211
0.119923
0.119918
0.119551
0.119649
0.119179
0.12006
0.119805
0.119369
0.119406
0.118887
0.118989
0.118294
0.119678
0.119188
0.118504
0.118681
0.11795
0.118011
0.116964
0.119237
0.118216
0.117113
0.117664
0.11667
0.116535
0.114934
0.118914
0.116643
0.114794
0.116292
0.115014
0.114273
0.111764
0.119019
0.113979
0.110576
0.114534
0.112824
0.110703
0.106511
0.118436
0.108977
0.101734
0.112084
0.108381
0.104653
0.0968843
0.104371
0.0981039
0.0816074
0.106145
0.0922386
0.0932828
0.0781676
0.0418356
0.0740397
0.0474588
0.0838354
0.0471936
0.0716107
0.0492008
0.120072
0.122172
0.120111
0.121877
0.119956
0.122056
0.119998
0.120508
0.121376
0.120518
0.121231
0.120377
0.121262
0.120392
0.120736
0.121291
0.120729
0.121145
0.120564
0.121157
0.12056
0.120698
0.120893
0.120673
0.120719
0.120456
0.120711
0.120435
0.120504
0.12064
0.120452
0.120406
0.120154
0.120379
0.12011
0.120225
0.120383
0.120132
0.12006
0.11972
0.120009
0.119637
0.119821
0.120031
0.119662
0.119584
0.11909
0.119489
0.11895
0.119204
0.11951
0.118936
0.118889
0.118151
0.118731
0.117923
0.118219
0.118693
0.117749
0.117849
0.116724
0.117588
0.116329
0.116594
0.117343
0.115741
0.116259
0.114508
0.115804
0.113811
0.113798
0.115039
0.112211
0.113776
0.110971
0.112968
0.109713
0.108672
0.110952
0.105794
0.109776
0.105054
0.108318
0.102849
0.0985636
0.103483
0.0941511
0.102981
0.0945761
0.100491
0.091331
0.0789967
0.0901022
0.0749041
0.0908513
0.0763071
0.0874818
0.0734231
0.0489624
0.068938
0.0497534
0.0703202
0.0502158
0.0680017
0.0506756
0.121971
0.120081
0.121873
0.119983
0.121364
0.12055
0.121263
0.120429
0.121332
0.1208
0.121203
0.120633
0.120974
0.12078
0.12079
0.120533
0.120758
0.12061
0.120486
0.120241
0.120559
0.120383
0.120151
0.119827
0.120317
0.12009
0.1197
0.119244
0.120004
0.119711
0.119063
0.118407
0.119603
0.119254
0.118146
0.117204
0.119137
0.11884
0.116832
0.11551
0.118782
0.118917
0.114993
0.113177
0.119138
0.120829
0.112471
0.109914
0.121913
0.127529
0.108842
0.104143
0.130159
0.133213
0.101642
0.0875892
0.132934
0.11156
0.0891314
0.105525
0.120056
0.121893
0.119991
0.121851
0.119958
0.121794
0.119894
0.120518
0.12127
0.120434
0.121237
0.120399
0.12117
0.120317
0.120758
0.121207
0.120643
0.12117
0.120593
0.121083
0.120484
0.120722
0.120804
0.120562
0.120747
0.12048
0.120629
0.120331
0.120529
0.120522
0.120304
0.120428
0.120168
0.120268
0.119963
0.120267
0.120224
0.119939
0.120071
0.119724
0.119848
0.119433
0.11992
0.119828
0.119433
0.119587
0.119096
0.119268
0.118673
0.119459
0.119277
0.11872
0.1189
0.118194
0.118435
0.117572
0.118876
0.1185
0.117724
0.117912
0.116897
0.117226
0.115968
0.118264
0.117423
0.116391
0.116496
0.115069
0.115466
0.113647
0.118007
0.116005
0.114733
0.11451
0.112541
0.112921
0.110293
0.119201
0.114274
0.112736
0.111772
0.108975
0.109233
0.105261
0.123677
0.112109
0.108988
0.1078
0.10271
0.103572
0.0966298
0.122595
0.10699
0.0933914
0.100069
0.0860349
0.0933819
0.0790805
0.0962791
0.101837
0.0971161
0.0869084
0.0832539
0.0780771
0.0904148
0.119971
0.12186
0.119944
0.121778
0.119874
0.121757
0.119846
0.120409
0.121216
0.120359
0.121149
0.120293
0.121117
0.120246
0.12061
0.121125
0.120535
0.121057
0.120452
0.121004
0.120382
0.120516
0.120685
0.120408
0.120595
0.120288
0.120518
0.120188
0.120238
0.120353
0.120081
0.120221
0.119903
0.120112
0.119761
0.119843
0.119979
0.11961
0.119782
0.119347
0.119627
0.119141
0.119287
0.119464
0.118932
0.119174
0.118547
0.118946
0.11824
0.118493
0.118717
0.117933
0.118296
0.117382
0.117955
0.116912
0.117359
0.117614
0.116438
0.117014
0.115675
0.11649
0.114936
0.115772
0.115958
0.114173
0.115138
0.11318
0.114305
0.111973
0.113603
0.113439
0.110673
0.112393
0.109518
0.111022
0.10749
0.110511
0.109513
0.104994
0.108349
0.103947
0.106038
0.100575
0.104591
0.103025
0.0950095
0.102081
0.0945737
0.0982999
0.0896628
0.0877254
0.0913992
0.0767426
0.0911883
0.0772414
0.0860661
0.0727857
0.0479966
0.070542
0.0496475
0.0711628
0.049865
0.0675719
0.0507311
0.119919
0.122019
0.119962
0.121736
0.119822
0.12192
0.119865
0.120335
0.121225
0.120351
0.121094
0.120222
0.121127
0.12024
0.120509
0.121114
0.120506
0.12098
0.120356
0.120996
0.12036
0.120376
0.120652
0.120357
0.120491
0.120158
0.120491
0.120141
0.12004
0.120294
0.119997
0.12008
0.119722
0.120058
0.119685
0.119553
0.119886
0.119474
0.119586
0.119089
0.119543
0.119021
0.118847
0.119309
0.118714
0.118891
0.118166
0.118811
0.118052
0.117798
0.118472
0.117582
0.117873
0.1168
0.117745
0.116618
0.116214
0.117215
0.115845
0.116364
0.114757
0.116158
0.11446
0.11378
0.115277
0.113138
0.114102
0.111676
0.113767
0.111194
0.109956
0.112243
0.108818
0.110684
0.106989
0.110137
0.106195
0.103707
0.107367
0.101758
0.105468
0.0997623
0.104572
0.0985229
0.0930336
0.0993716
0.090238
0.0974006
0.0885606
0.0960457
0.0869701
0.0751918
0.0864503
0.0727828
0.0849466
0.0719954
0.0833559
0.0708092
0.0505384
0.0675589
0.0509316
0.0670588
0.0512552
0.0661519
0.051545
0.121846
0.119953
0.121798
0.119901
0.121232
0.120393
0.121175
0.120318
0.121164
0.120584
0.121081
0.120472
0.120736
0.120462
0.120612
0.120293
0.120407
0.120134
0.120221
0.11988
0.120032
0.119665
0.11975
0.119278
0.11952
0.118996
0.119089
0.118401
0.118786
0.118022
0.118122
0.117096
0.117715
0.116596
0.116678
0.115131
0.116148
0.114522
0.114499
0.112152
0.113871
0.111506
0.111189
0.107597
0.110551
0.106965
0.106115
0.100527
0.105432
0.0989946
0.0981954
0.0893037
0.0958753
0.081174
0.0855771
0.0716997
0.0738949
0.0461481
0.0662042
0.0483621
0.119929
0.121766
0.119864
0.121776
0.119877
0.121717
0.119813
0.120363
0.121138
0.120282
0.121149
0.120289
0.121083
0.12021
0.120544
0.121045
0.120437
0.12105
0.120434
0.120966
0.120332
0.120409
0.120578
0.120264
0.120572
0.120244
0.120462
0.120107
0.120063
0.120194
0.119863
0.120167
0.119813
0.12002
0.119628
0.119565
0.119738
0.119284
0.119678
0.119187
0.119478
0.118931
0.118854
0.119104
0.11845
0.11899
0.118274
0.118712
0.117915
0.11782
0.118188
0.117233
0.117985
0.116921
0.117593
0.116415
0.11631
0.116848
0.115446
0.116489
0.114893
0.115937
0.114182
0.114118
0.114882
0.112827
0.114244
0.111838
0.113471
0.110851
0.110945
0.112001
0.108981
0.110856
0.107205
0.109789
0.105875
0.106192
0.107755
0.103155
0.105707
0.100088
0.104283
0.098405
0.0979739
0.101218
0.0935259
0.0977564
0.0889261
0.0960074
0.0871588
0.0803704
0.090103
0.0761219
0.0852499
0.0716633
0.0835805
0.0708087
0.047307
0.0700917
0.0493649
0.0663232
0.0490359
0.0659309
0.0503892
0.119844
0.121729
0.119816
0.121701
0.119793
0.12168
0.119765
0.120258
0.121085
0.120211
0.121062
0.120187
0.121031
0.120142
0.120406
0.120968
0.120336
0.120942
0.120302
0.120892
0.120236
0.120222
0.120469
0.120124
0.12043
0.120067
0.120358
0.119976
0.119805
0.120042
0.119667
0.119977
0.119574
0.119878
0.119447
0.119201
0.119524
0.119003
0.119419
0.118856
0.119281
0.118676
0.118329
0.118795
0.118036
0.11863
0.117808
0.118434
0.117549
0.117053
0.11773
0.11661
0.117476
0.116261
0.117191
0.115881
0.115174
0.116156
0.114488
0.115768
0.11396
0.115351
0.113402
0.112404
0.11381
0.111312
0.113227
0.110531
0.112611
0.10971
0.108305
0.110296
0.106535
0.109439
0.105422
0.108535
0.104232
0.102074
0.104996
0.099269
0.103792
0.0978001
0.102497
0.0961903
0.0919699
0.0969138
0.0881437
0.0953703
0.0864874
0.0936733
0.0847048
0.0748828
0.0845694
0.0717131
0.0829346
0.0704379
0.0812222
0.069384
0.0502242
0.0667734
0.0509983
0.0657404
0.0508871
0.0650564
0.0515815
0.119792
0.121892
0.119835
0.121658
0.119742
0.121843
0.119785
0.120187
0.121095
0.120206
0.121009
0.120118
0.121044
0.120139
0.120311
0.120959
0.120316
0.120868
0.12021
0.120887
0.120217
0.120094
0.120443
0.120079
0.120332
0.119946
0.120335
0.119935
0.11963
0.119989
0.119594
0.119847
0.119412
0.119832
0.119378
0.118954
0.119443
0.118887
0.119243
0.118631
0.119204
0.118569
0.117966
0.118664
0.117856
0.118385
0.117486
0.118313
0.117387
0.116504
0.11753
0.116333
0.117123
0.115791
0.117014
0.115645
0.114322
0.115845
0.114047
0.11525
0.113266
0.115089
0.113047
0.111043
0.113315
0.110608
0.112461
0.109507
0.112219
0.109184
0.106095
0.109502
0.1054
0.108311
0.103936
0.107955
0.103464
0.0985859
0.103724
0.097542
0.102173
0.0957881
0.101659
0.0951699
0.0872619
0.0950381
0.0859839
0.0932499
0.0842647
0.0926101
0.0836285
0.0711004
0.082423
0.0702097
0.0808009
0.0691251
0.0802016
0.0687829
0.0514247