/*--------------------------------*- C++ -*----------------------------------*\
| =========                 |                                                 |
| \\      /  F ield         | OpenFOAM: The Open Source CFD Toolbox           |
|  \\    /   O peration     | Version:  2012                                  |
|   \\  /    A nd           | Website:  www.openfoam.com                      |
|    \\/     M anipulation  |                                                 |
\*---------------------------------------------------------------------------*/
FoamFile
{
    version     2.0;
    format      ascii;
    class       surfaceScalarField;
    location    "0.107/fluid";
    object      phi;
}
// * * * * * * * * * * * * * * * * * * * * * * * * * * * * * * * * * * * * * //

dimensions      [0 3 -1 0 0 0 0];
oriented        oriented;


internalField   nonuniform List<scalar> 
47046
(
1.17518e-07
0.0015299
-1.14217e-07
-4.1103e-08
1.3891e-06
-0.00152801
0.00152745
-1.3416e-06
3.13483e-07
2.28399e-06
-0.00152595
0.00152549
-2.23476e-06
5.34064e-07
2.95111e-06
-0.00152427
0.00152391
-2.89305e-06
7.13168e-07
3.38396e-06
-0.00152297
0.0015227
-3.33282e-06
9.00722e-07
3.619e-06
-0.001522
0.0015218
-3.57922e-06
1.11132e-06
3.58809e-06
-0.00152127
0.00152111
-3.57244e-06
1.33151e-06
3.27505e-06
-0.00152072
0.00152062
-3.30813e-06
1.58002e-06
2.72287e-06
-0.0015204
0.00152034
-2.7965e-06
1.88995e-06
1.86405e-06
-0.00152028
0.0015203
-1.98113e-06
2.22965e-06
6.12428e-07
-0.00152043
0.00152046
-7.77389e-07
2.67836e-06
-3.16547e-06
-8.89716e-07
-0.00152048
0.00152041
6.8083e-07
3.21351e-06
-4.0359e-06
-2.56214e-06
-0.00151975
0.0015193
2.4855e-06
4.12204e-06
-6.18968e-06
-6.1504e-06
-0.00151676
0.00151546
6.55006e-06
6.53253e-06
-4.23712e-05
-1.12987e-05
-0.00151729
0.00153164
1.42627e-05
2.4676e-05
9.19215e-08
0.00152985
-8.27322e-08
-4.88887e-08
1.10294e-06
-0.00152776
0.00152709
-9.97842e-07
3.21971e-07
1.91351e-06
-0.00152518
0.00152461
-1.7528e-06
5.34527e-07
2.51166e-06
-0.00152309
0.00152266
-2.31379e-06
7.10499e-07
2.93619e-06
-0.00152148
0.00152113
-2.71667e-06
8.86969e-07
3.20036e-06
-0.00152026
0.00152001
-2.98073e-06
1.08362e-06
3.29191e-06
-0.00151934
0.00151916
-3.09626e-06
1.28176e-06
3.17304e-06
-0.00151874
0.00151866
-3.01941e-06
1.47808e-06
2.82054e-06
-0.00151859
0.00151864
-2.73137e-06
1.71772e-06
2.20524e-06
-0.00151896
0.00151914
-2.20487e-06
1.96393e-06
-2.18353e-06
1.19099e-06
-0.00151986
0.00152014
-1.27391e-06
2.22876e-06
-2.48223e-06
-1.3397e-08
-0.00152105
0.00152136
-1.79369e-07
2.53001e-06
-2.81477e-06
-1.49521e-06
-0.00152235
0.00152271
1.08485e-06
2.88703e-06
-3.20807e-06
-3.49238e-06
-0.00152429
0.0015251
2.56293e-06
3.33352e-06
-4.20549e-06
-3.41688e-06
-0.00152943
0.00153165
3.63671e-06
2.03856e-06
4.97644e-08
0.00152984
-4.17944e-08
-4.49895e-08
6.5177e-07
-0.00152764
0.0015269
-5.16975e-07
3.12525e-07
1.15316e-06
-0.00152473
0.00152405
-9.04992e-07
5.16219e-07
1.51683e-06
-0.00152232
0.00152183
-1.18148e-06
6.82972e-07
1.79544e-06
-0.00152047
0.00152005
-1.40308e-06
8.57753e-07
2.0115e-06
-0.00151902
0.00151875
-1.57594e-06
1.0456e-06
2.13078e-06
-0.00151808
0.00151791
-1.67204e-06
1.2271e-06
2.13668e-06
-0.00151756
0.00151751
-1.68793e-06
1.40737e-06
2.03589e-06
-0.00151756
0.00151765
-1.62943e-06
1.60847e-06
-1.76916e-06
1.7578e-06
-0.0015182
0.00151847
-1.42633e-06
1.80961e-06
-1.96041e-06
1.18955e-06
-0.00151951
0.00151993
-1.00112e-06
2.0029e-06
-2.13609e-06
5.10972e-07
-0.00152135
0.00152187
-4.89774e-07
2.18759e-06
-2.26152e-06
-1.24302e-07
-0.00152357
0.00152421
-3.89439e-08
2.31402e-06
-2.24101e-06
-3.72393e-07
-0.0015264
0.00152719
7.56924e-08
2.29823e-06
-1.96942e-06
1.01247e-06
-0.00152946
0.0015301
-1.0133e-06
2.0314e-06
3.44665e-08
1.52908e-07
0.00152985
-1.46695e-07
-3.37589e-08
-3.09134e-07
1.68117e-06
-0.00152781
0.00152723
-1.63251e-06
2.99387e-07
-5.2582e-07
2.74661e-06
-0.00152567
0.00152519
-2.67829e-06
5.15922e-07
-7.01807e-07
3.56656e-06
-0.00152391
0.00152351
-3.48519e-06
6.83824e-07
-8.81417e-07
4.12704e-06
-0.00152249
0.0015222
-4.05279e-06
8.50961e-07
-1.07835e-06
4.38062e-06
-0.0015215
0.00152132
-4.32026e-06
1.03957e-06
-1.29313e-06
4.25024e-06
-0.00152092
0.00152083
-4.22224e-06
1.24683e-06
-1.53347e-06
3.8329e-06
-0.00152069
0.00152068
-3.85395e-06
1.48254e-06
-1.84075e-06
3.26006e-06
-0.00152074
0.00152078
-3.31766e-06
1.77991e-06
-2.19389e-06
2.53028e-06
-0.001521
0.0015211
-2.64028e-06
2.12476e-06
-2.62385e-06
1.61447e-06
-0.00152139
0.00152148
-1.7449e-06
2.53815e-06
-3.12016e-06
7.99852e-07
-0.00152165
0.00152165
-9.63142e-07
3.00808e-06
-3.90712e-06
4.41149e-07
-0.00152147
0.00152135
-5.79035e-07
3.69569e-06
-5.69647e-06
8.14367e-07
-0.00152101
0.00152105
-6.80564e-07
4.9996e-06
-9.72309e-06
2.2732e-06
-0.00152364
0.00152609
-2.1088e-06
7.00342e-06
3.8024e-08
1.16635e-07
0.0015298
-1.04772e-07
-3.50703e-08
-3.18285e-07
1.36257e-06
-0.00152757
0.0015269
-1.24118e-06
3.08447e-07
-5.34794e-07
2.28884e-06
-0.00152502
0.00152445
-2.09818e-06
5.20777e-07
-7.10313e-07
3.0027e-06
-0.00152288
0.00152243
-2.75716e-06
6.89751e-07
-8.80301e-07
3.53822e-06
-0.00152113
0.00152076
-3.26317e-06
8.51208e-07
-1.06286e-06
3.82249e-06
-0.00151987
0.00151965
-3.54539e-06
1.03165e-06
-1.2571e-06
3.84579e-06
-0.0015191
0.00151897
-3.60328e-06
1.21786e-06
-1.45647e-06
3.66613e-06
-0.00151872
0.0015187
-3.47797e-06
1.40869e-06
-1.69508e-06
3.30881e-06
-0.00151883
0.00151895
-3.20384e-06
1.64063e-06
-1.9492e-06
2.82095e-06
-0.00151944
0.00151967
-2.77459e-06
1.89267e-06
-2.21006e-06
2.02549e-06
-0.00152048
0.00152077
-2.04373e-06
2.14671e-06
-2.49333e-06
1.35062e-06
-0.00152161
0.00152187
-1.41757e-06
2.41127e-06
-2.81082e-06
1.05169e-06
-0.00152264
0.0015229
-1.16524e-06
2.6922e-06
-3.15711e-06
1.33461e-06
-0.00152387
0.0015243
-1.48334e-06
2.94838e-06
3.42723e-06
-3.29428e-06
-0.00152608
0.0015268
2.91565e-06
-3.3531e-06
4.01712e-08
6.11963e-08
0.00152981
-5.06197e-08
-3.75926e-08
-3.13929e-07
8.03819e-07
-0.00152752
0.00152679
-6.31883e-07
3.05991e-07
-5.26244e-07
1.3671e-06
-0.00152467
0.00152401
-1.0683e-06
5.1592e-07
-6.95716e-07
1.78723e-06
-0.00152227
0.00152175
-1.39128e-06
6.80393e-07
-8.56246e-07
2.12317e-06
-0.00152029
0.00151985
-1.6559e-06
8.35775e-07
-1.03685e-06
2.35421e-06
-0.0015188
0.00151855
-1.83593e-06
1.00616e-06
-1.21584e-06
2.4472e-06
-0.00151794
0.0015178
-1.92021e-06
1.1853e-06
-1.39874e-06
2.44075e-06
-0.00151755
0.00151754
-1.92674e-06
1.3619e-06
-1.60084e-06
2.35862e-06
-0.00151773
0.00151788
-1.88215e-06
1.55726e-06
-1.80271e-06
2.09476e-06
-0.00151853
0.00151883
-1.68605e-06
1.75634e-06
-1.99668e-06
1.66069e-06
-0.00151988
0.00152027
-1.36268e-06
1.94367e-06
-2.17312e-06
1.27697e-06
-0.00152152
0.00152195
-1.07617e-06
2.1089e-06
-2.29022e-06
1.17703e-06
-0.0015233
0.00152376
-1.02093e-06
2.21537e-06
-2.26151e-06
1.59065e-06
-0.0015252
0.00152569
-1.37432e-06
2.17766e-06
-1.98721e-06
2.89092e-06
-0.00152701
0.00152737
-2.33679e-06
1.8942e-06
2.94792e-08
1.66967e-07
0.00152984
-1.60862e-07
-2.78617e-08
-2.45071e-07
1.83316e-06
-0.00152779
0.0015272
-1.7766e-06
2.22205e-07
-4.3555e-07
3.04244e-06
-0.00152563
0.00152515
-2.95519e-06
3.94313e-07
-5.74815e-07
3.9734e-06
-0.0015238
0.00152337
-3.87489e-06
5.28148e-07
-7.12809e-07
4.63012e-06
-0.00152226
0.00152195
-4.535e-06
6.44263e-07
-8.6311e-07
4.87361e-06
-0.00152124
0.00152108
-4.79611e-06
7.83458e-07
-1.03588e-06
4.62565e-06
-0.00152084
0.00152083
-4.60166e-06
9.40125e-07
-1.23202e-06
4.11158e-06
-0.0015209
0.00152094
-4.12663e-06
1.12067e-06
-1.4868e-06
3.50879e-06
-0.00152121
0.00152134
-3.55301e-06
1.34891e-06
-1.77023e-06
2.78835e-06
-0.00152182
0.00152201
-2.87805e-06
1.60392e-06
-2.09349e-06
2.02898e-06
-0.00152259
0.00152277
-2.14767e-06
1.89019e-06
-2.45713e-06
1.563e-06
-0.00152327
0.00152341
-1.72167e-06
2.20953e-06
-2.83993e-06
1.72013e-06
-0.0015238
0.00152393
-1.90115e-06
2.51269e-06
-3.17801e-06
2.81495e-06
-0.00152447
0.00152473
-2.9579e-06
2.69168e-06
-2.92038e-06
5.24561e-06
-0.00152587
0.00152634
-5.19709e-06
2.27384e-06
2.70828e-08
1.31045e-07
0.0015298
-1.17626e-07
-2.59294e-08
-2.56714e-07
1.48009e-06
-0.00152758
0.00152692
-1.34316e-06
2.32417e-07
-4.4609e-07
2.49467e-06
-0.00152508
0.0015245
-2.2812e-06
4.06122e-07
-5.87092e-07
3.32333e-06
-0.00152284
0.00152233
-3.04733e-06
5.34579e-07
-7.18537e-07
3.93421e-06
-0.00152096
0.00152058
-3.61811e-06
6.5796e-07
-8.67445e-07
4.23191e-06
-0.00151967
0.00151945
-3.91546e-06
7.92253e-07
-1.02526e-06
4.20019e-06
-0.001519
0.00151891
-3.93399e-06
9.3462e-07
-1.18881e-06
3.92992e-06
-0.00151884
0.00151889
-3.72585e-06
1.08291e-06
-1.38647e-06
3.47095e-06
-0.00151923
0.00151941
-3.33356e-06
1.26898e-06
-1.60034e-06
2.94044e-06
-0.00152007
0.00152034
-2.84916e-06
1.45553e-06
-1.80437e-06
2.34295e-06
-0.00152122
0.00152153
-2.31715e-06
1.6405e-06
-1.99965e-06
2.01083e-06
-0.0015224
0.00152269
-2.01764e-06
1.80919e-06
-2.15771e-06
2.22086e-06
-0.00152349
0.00152374
-2.22713e-06
1.93585e-06
-2.20267e-06
3.14478e-06
-0.00152452
0.00152479
-3.07517e-06
1.94342e-06
-1.9191e-06
4.94451e-06
-0.00152565
0.0015259
-4.58517e-06
1.6453e-06
3.15229e-08
6.79266e-08
0.0015298
-5.54493e-08
-2.71627e-08
-2.59148e-07
8.62493e-07
-0.00152749
0.00152677
-6.76902e-07
2.31318e-07
-4.44967e-07
1.48411e-06
-0.00152465
0.00152398
-1.15737e-06
4.05902e-07
-5.82399e-07
1.98236e-06
-0.00152218
0.00152162
-1.54e-06
5.33027e-07
-7.13929e-07
2.36172e-06
-0.00152013
0.00151971
-1.84237e-06
6.53153e-07
-8.56238e-07
2.60007e-06
-0.0015187
0.00151845
-2.02824e-06
7.86911e-07
-1.01052e-06
2.65202e-06
-0.00151788
0.00151776
-2.07152e-06
9.22674e-07
-1.16274e-06
2.57109e-06
-0.00151762
0.00151765
-2.02492e-06
1.06342e-06
-1.32504e-06
2.40028e-06
-0.00151799
0.00151817
-1.91155e-06
1.21617e-06
-1.49814e-06
2.1072e-06
-0.0015189
0.00151921
-1.69494e-06
1.37025e-06
-1.65331e-06
1.81581e-06
-0.00152024
0.00152061
-1.48495e-06
1.51128e-06
-1.77571e-06
1.66709e-06
-0.00152179
0.00152219
-1.38972e-06
1.61629e-06
-1.8405e-06
1.83816e-06
-0.00152336
0.00152374
-1.52229e-06
1.66618e-06
-1.79349e-06
2.38743e-06
-0.0015248
0.00152514
-1.96094e-06
1.62302e-06
-1.52917e-06
3.23708e-06
-0.00152602
0.00152624
-2.56518e-06
1.38045e-06
1.9808e-08
1.68632e-07
0.00152988
-1.63468e-07
-1.8572e-08
-1.24354e-07
1.88007e-06
-0.00152787
0.00152728
-1.82169e-06
8.52461e-08
-2.41787e-07
3.19382e-06
-0.00152565
0.00152515
-3.09702e-06
1.82884e-07
-3.3302e-07
4.19155e-06
-0.00152376
0.00152334
-4.0836e-06
2.54196e-07
-4.14531e-07
4.85034e-06
-0.00152224
0.00152194
-4.74727e-06
3.19262e-07
-4.97442e-07
5.05605e-06
-0.00152126
0.00152112
-4.97667e-06
3.8558e-07
-6.04735e-07
4.77558e-06
-0.00152094
0.00152095
-4.74177e-06
4.69313e-07
-7.1489e-07
4.20565e-06
-0.00152112
0.00152121
-4.21393e-06
5.51935e-07
-8.41124e-07
3.55439e-06
-0.00152159
0.00152175
-3.5952e-06
6.44426e-07
-9.96306e-07
2.82244e-06
-0.00152236
0.00152259
-2.90407e-06
7.67668e-07
-1.18211e-06
2.14302e-06
-0.00152332
0.00152357
-2.26867e-06
9.05736e-07
-1.35841e-06
1.78585e-06
-0.00152431
0.00152455
-1.94551e-06
1.03744e-06
-1.48136e-06
1.94456e-06
-0.00152528
0.00152553
-2.13783e-06
1.12527e-06
-1.45673e-06
2.71795e-06
-0.00152637
0.00152667
-2.9191e-06
1.08333e-06
-1.07339e-06
4.11387e-06
-0.00152759
0.00152786
-4.25415e-06
7.70118e-07
1.82253e-08
1.38574e-07
0.0015298
-1.2783e-07
-1.70676e-08
-1.32562e-07
1.52371e-06
-0.00152759
0.00152693
-1.38821e-06
9.19732e-08
-2.53963e-07
2.60756e-06
-0.00152506
0.00152447
-2.38257e-06
1.9344e-07
-3.41342e-07
3.49607e-06
-0.00152279
0.00152227
-3.20519e-06
2.63584e-07
-4.20757e-07
4.12906e-06
-0.00152092
0.00152054
-3.806e-06
3.30115e-07
-5.04221e-07
4.39617e-06
-0.00151966
0.00151945
-4.07296e-06
3.88552e-07
-6.06323e-07
4.29286e-06
-0.00151905
0.00151899
-4.00232e-06
4.687e-07
-6.95797e-07
3.93123e-06
-0.00151904
0.00151912
-3.69201e-06
5.40306e-07
-8.07165e-07
3.45528e-06
-0.00151957
0.00151978
-3.27986e-06
6.23348e-07
-9.2332e-07
2.96255e-06
-0.0015205
0.00152078
-2.8704e-06
7.17293e-07
-1.03682e-06
2.49877e-06
-0.00152171
0.00152203
-2.48642e-06
8.05103e-07
-1.13521e-06
2.28462e-06
-0.00152298
0.00152328
-2.31428e-06
8.7465e-07
-1.1855e-06
2.5173e-06
-0.00152414
0.00152442
-2.54058e-06
9.07254e-07
-1.14891e-06
3.20469e-06
-0.00152525
0.00152551
-3.15685e-06
8.70826e-07
-9.41202e-07
4.24218e-06
-0.00152627
0.00152648
-4.0444e-06
7.07579e-07
1.68525e-08
7.98385e-08
0.00152974
-6.34106e-08
-1.53982e-08
-1.36143e-07
8.96753e-07
-0.00152731
0.00152658
-7.03088e-07
9.51437e-08
-2.56537e-07
1.54722e-06
-0.00152454
0.00152389
-1.20422e-06
1.96635e-07
-3.41138e-07
2.08327e-06
-0.00152207
0.0015215
-1.61884e-06
2.62291e-07
-4.24053e-07
2.48957e-06
-0.00151998
0.00151957
-1.93405e-06
3.27803e-07
-5.04036e-07
2.70798e-06
-0.0015186
0.00151837
-2.10713e-06
3.91566e-07
-5.8961e-07
2.67634e-06
-0.00151791
0.00151782
-2.08733e-06
4.54216e-07
-6.80093e-07
2.5078e-06
-0.00151776
0.00151782
-1.96904e-06
5.29517e-07
-7.90664e-07
2.28758e-06
-0.00151823
0.00151841
-1.81917e-06
6.06108e-07
-8.80014e-07
2.14064e-06
-0.00151907
0.00151937
-1.73588e-06
6.80335e-07
-9.77038e-07
2.01198e-06
-0.00152043
0.00152082
-1.66471e-06
7.62095e-07
-1.03044e-06
2.00978e-06
-0.001522
0.00152238
-1.67041e-06
7.98924e-07
-1.05147e-06
2.13235e-06
-0.00152351
0.00152386
-1.72595e-06
8.15024e-07
-1.01771e-06
2.44107e-06
-0.00152483
0.00152512
-1.97237e-06
7.84852e-07
-8.81886e-07
2.88962e-06
-0.00152588
0.0015261
-2.30283e-06
6.78602e-07
1.62637e-05
-0.00149644
4.96775e-05
-5.33145e-05
0.00149389
3.10871e-07
-9.04169e-06
8.93231e-06
-0.000412364
-0.00149945
-4.66935e-05
0.0014963
2.30963e-05
-9.12455e-06
8.45482e-06
-0.000410496
1.14605e-06
-0.00152033
2.80712e-06
1.23649e-05
-1.76741e-05
-2.39192e-06
0.00152489
-1.1325e-05
-1.09167e-06
1.07791e-05
-0.00154608
-6.82648e-07
2.24863e-06
4.96114e-07
1.93287e-06
7.13252e-06
-0.00151375
8.19532e-06
-6.57904e-06
0.0015108
1.31993e-05
2.92021e-05
-2.82577e-05
-0.00150146
-0.00151685
0.0015328
3.02286e-05
-3.76146e-07
8.76969e-07
-0.00160794
7.10069e-07
3.66718e-06
-0.00153329
6.31097e-06
-1.16971e-05
0.00153824
4.0514e-07
-4.96319e-06
3.55681e-06
-0.00154796
-0.00151436
-4.79395e-06
0.00151177
7.63419e-06
2.40951e-05
-2.36806e-05
1.64643e-05
-0.00150382
-0.00151893
4.4319e-07
6.50962e-06
-7.25008e-06
4.70772e-08
0.00151845
2.10812e-06
1.06817e-05
-1.38872e-05
-1.26432e-06
-0.00151851
3.82508e-05
-2.35514e-05
-4.40831e-06
0.000349463
0.000344963
0.000346632
0.000346922
-0.00145279
-5.54759e-06
4.455e-05
0.000353198
0.000355926
0.000354537
0.000357789
-0.00146788
1.2443e-06
7.88468e-06
6.13875e-07
-0.00159998
-4.856e-07
-1.23985e-06
-0.00153161
-8.70665e-06
0.00153594
3.99144e-06
-6.06501e-06
5.05568e-06
-0.00154435
6.33168e-07
-0.00152212
-1.2641e-05
0.0015258
1.90049e-06
2.01856e-06
-1.64761e-06
-0.00153728
-1.0181e-05
3.42028e-06
-0.00152744
-2.06733e-06
-3.79514e-06
8.63629e-07
0.00152931
3.67252e-07
-7.64104e-06
-4.54654e-07
8.17607e-06
-0.00153263
-0.00152351
2.64853e-06
0.00152685
8.38369e-06
-1.20346e-05
1.26205e-05
-0.00153586
1.93752e-07
-5.29874e-06
-0.0015258
3.12416e-06
-4.20712e-06
5.21009e-06
0.00152673
-8.80679e-06
5.07669e-07
-5.79957e-07
8.66728e-06
-0.00152844
-2.60172e-06
0.000344336
0.000346769
-0.0014462
2.27824e-05
0.000344263
0.000345533
-0.001445
0.000396227
1.80543e-05
-5.23085e-05
-3.45972e-05
0.000391
8.49912e-05
3.46242e-06
2.05211e-05
0.000405142
-3.03976e-05
3.70894e-05
0.000348242
0.000344886
0.000346681
0.000345445
-0.00145156
3.23167e-05
0.000395094
-3.21514e-05
-5.08303e-05
-3.3264e-05
-4.9567e-05
0.000390024
0.000395499
0.000390638
7.60333e-05
-3.49057e-05
0.00150472
2.5898e-05
3.12857e-05
-0.00150455
4.31286e-05
0.000352027
0.000355882
0.000354354
0.000356901
-0.00146686
0.000393215
3.995e-05
-2.84194e-05
-3.39896e-05
-4.37121e-05
-2.43969e-05
0.000389683
0.000394193
0.000391309
5.87149e-05
1.93955e-05
0.000403683
-2.94507e-05
4.90998e-06
8.86579e-07
-3.04778e-06
-2.68978e-06
5.02269e-06
-0.000404374
9.55275e-06
1.26514e-05
-1.97669e-05
-9.19045e-06
0.00039998
2.73958e-05
-7.54664e-08
-9.47525e-06
-2.77643e-05
9.92101e-06
-3.00771e-05
0.00151744
-5.48924e-06
1.97333e-05
-0.0015154
-5.29346e-06
0.000377596
0.000374875
0.000375411
0.000375079
-0.00150584
0.00153965
-6.89364e-06
-1.16461e-05
-1.89982e-05
-1.53978e-05
-1.25138e-05
2.69064e-05
-2.49938e-07
3.01616e-06
1.51877e-05
9.44335e-06
-0.00156536
-1.2959e-05
9.76822e-07
3.90743e-06
-3.03184e-06
6.0327e-06
-4.80568e-06
-4.67508e-07
-1.06445e-05
4.9562e-07
-1.29198e-06
-9.8176e-06
-8.27173e-06
-1.68392e-05
-1.2897e-05
-1.07519e-05
1.96558e-05
2.73063e-05
-2.84405e-05
-8.78146e-06
9.84123e-06
-1.13062e-05
0.0015274
-0.00151911
1.07397e-05
-2.90581e-05
0.00151609
-0.00151439
1.89311e-05
-2.47543e-05
-2.39778e-06
0.00153572
2.35785e-06
1.39288e-05
0.000376873
0.000374652
0.000374673
0.000374908
-0.00150466
0.000389222
-4.44411e-06
-6.03189e-06
-7.51831e-06
-3.70526e-06
0.000388339
0.000386779
0.000386464
1.32233e-05
0.00153803
-1.14095e-05
-1.86917e-05
-1.22057e-05
-1.5119e-05
2.61872e-05
1.54865e-05
2.14783e-06
9.42286e-06
-5.78793e-06
-1.72519e-06
9.199e-06
-0.000394859
-0.00156313
3.80315e-07
3.61985e-06
-3.27467e-06
5.37859e-06
-4.25395e-06
5.07528e-06
-2.5344e-06
-5.86717e-06
-5.22575e-06
-4.29687e-06
-7.74262e-06
1.05644e-05
-1.10139e-05
-4.27438e-07
-1.31131e-06
3.58834e-06
-4.89912e-06
0.000392354
7.75309e-06
-8.40403e-06
-1.67691e-05
-1.09187e-05
-1.29162e-05
1.94703e-05
0.000352692
-3.49396e-05
1.68461e-05
-1.2596e-05
-2.14737e-05
-0.000358291
2.62753e-05
-1.07306e-05
-2.45664e-05
-3.01323e-05
-9.62738e-06
9.91099e-05
0.000100042
-2.7087e-05
2.94024e-05
-2.11664e-06
2.81057e-05
8.67988e-05
7.88866e-05
7.33734e-05
8.84239e-05
-1.41313e-05
-1.31264e-05
-3.23253e-05
-1.31849e-05
-3.22714e-05
9.83235e-05
9.89615e-05
-1.71333e-05
-2.37921e-06
8.54038e-05
7.05679e-05
8.45784e-05
7.13807e-05
1.82545e-05
-8.71782e-06
0.000348791
-3.76177e-05
-0.000347515
8.94221e-06
-5.87365e-06
-1.45337e-05
-3.339e-05
-1.44502e-05
-3.33563e-05
9.82332e-05
9.80157e-05
3.84929e-05
1.06402e-05
-6.99918e-06
-1.74653e-06
8.2938e-05
6.9333e-05
8.32522e-05
6.90256e-05
-6.17254e-06
-1.42779e-05
-3.31087e-05
-1.4287e-05
-3.31853e-05
9.77899e-05
9.77459e-05
-2.0352e-06
8.2755e-05
6.95995e-05
8.3601e-05
6.88434e-05
-0.000348104
-1.46649e-05
-3.35564e-05
-1.46621e-05
-3.36074e-05
9.84742e-05
9.85347e-05
3.902e-05
-1.49165e-06
8.29334e-05
6.94071e-05
8.33588e-05
6.89976e-05
3.7635e-05
6.84998e-06
8.27045e-05
6.87856e-05
6.83507e-05
8.31505e-05
-0.000346862
9.58396e-05
5.74398e-06
-1.41058e-05
-3.34391e-05
-3.35288e-05
-1.40548e-05
9.79686e-05
9.59513e-05
9.80218e-05
5.99719e-06
2.95837e-08
-4.73512e-06
5.02192e-06
3.77608e-08
-0.000123983
-0.00011982
7.89208e-07
1.68857e-06
-5.46191e-07
0.000121719
-3.83126e-06
1.33014e-06
1.53058e-05
-2.64672e-05
-1.11208e-06
0.000106778
9.12597e-07
4.91953e-06
-6.85374e-07
-6.84544e-06
-0.000118123
-3.20176e-05
0.00035131
1.65335e-05
-1.23106e-05
-2.68078e-05
2.63675e-05
2.78119e-05
8.65604e-05
7.86954e-05
7.26166e-05
8.83816e-05
-2.1282e-05
-0.000357365
9.57006e-05
2.60696e-05
-9.7062e-06
-2.39739e-05
-2.97045e-05
-8.73263e-06
9.88759e-05
9.63826e-05
9.96893e-05
-1.68741e-05
8.5081e-05
6.98557e-05
7.06829e-05
8.42985e-05
-1.39399e-05
9.57405e-05
-1.21895e-05
-3.20042e-05
-1.22917e-05
-3.19204e-05
9.78327e-05
9.65351e-05
9.84847e-05
1.79576e-05
-3.52602e-05
-8.50761e-06
0.000347475
1.04711e-05
3.66717e-05
8.26952e-05
6.86912e-05
6.83631e-05
8.30384e-05
-0.000346266
8.80265e-06
9.54939e-05
-1.38351e-05
-3.32391e-05
-1.38037e-05
-3.31484e-05
9.77258e-05
9.56e-05
9.75192e-05
8.24872e-05
6.89388e-05
6.81471e-05
8.33355e-05
9.55627e-05
-1.35161e-05
-3.28164e-05
-1.34689e-05
-3.2928e-05
9.72914e-05
9.53429e-05
9.72461e-05
-2.7986e-06
0.000117861
3.928e-06
-6.68372e-06
-0.000116261
3.95494e-06
8.06429e-06
8.6912e-06
-1.67086e-05
-7.36383e-06
0.000103017
-3.29279e-06
1.35782e-05
0.000105857
-2.46717e-05
4.26552e-06
0.000111822
6.77179e-06
2.99446e-06
-6.5857e-06
-4.12408e-06
-0.000110873
-0.000118201
2.62035e-06
1.83072e-06
-1.90479e-06
-4.24465e-06
0.000119899
-4.71182e-06
4.86922e-06
-0.000123602
2.25603e-07
-0.000119405
1.65996e-06
1.11424e-06
0.000121328
-3.90974e-06
9.91781e-07
-4.30605e-06
-0.000122051
-6.17785e-07
4.0147e-06
4.72631e-06
-2.12288e-06
-7.0241e-06
-0.000116579
1.51353e-05
-2.63239e-05
0.000106423
1.58483e-06
4.83652e-06
1.27372e-06
-6.89101e-06
-0.000117713
1.45988e-05
0.000105956
-2.56413e-05
-2.64801e-06
1.15454e-06
-4.06544e-06
3.72119e-06
0.000119671
3.06203e-07
-2.97864e-07
2.51073e-06
-0.000115826
-2.57126e-06
5.4923e-06
1.29956e-06
-5.99432e-06
-2.52089e-06
0.00011355
-4.51118e-06
-0.000121938
3.58951e-06
1.97415e-06
-1.58169e-05
0.000379485
-5.46107e-06
-0.000377459
2.12391e-05
-2.09027e-06
-4.31308e-06
-2.98959e-06
-1.83658e-06
9.63991e-05
9.56004e-05
1.02952e-05
1.94023e-05
-1.37087e-06
9.45317e-05
9.17993e-05
9.44627e-05
9.37538e-05
4.31139e-06
-0.000377935
0.000390385
-1.51682e-06
-6.74844e-06
-1.06266e-05
-8.98196e-06
-7.84639e-06
0.000382625
-1.47857e-06
-0.000391798
3.47235e-06
0.000394561
-4.60862e-06
-2.97587e-06
1.41308e-06
-3.078e-07
-5.92577e-07
3.25284e-07
-8.38025e-07
1.61918e-06
0.000412601
-2.40982e-06
-7.46849e-06
-1.13168e-05
-8.79833e-06
-1.06071e-05
-6.98994e-06
-7.25166e-06
0.000421376
-2.99412e-06
-4.07498e-06
-1.25139e-06
-1.21858e-06
-6.44089e-06
4.35446e-06
0.000395257
-1.86759e-07
-1.08381e-06
-3.473e-07
2.70375e-06
1.02905e-07
-1.04653e-06
-0.000415676
-3.31278e-06
-4.0734e-06
5.10908e-06
6.38911e-06
5.45956e-06
6.0191e-06
-3.52666e-06
3.05677e-06
2.17967e-06
1.48586e-06
3.85573e-06
1.07189e-06
1.84415e-06
-1.55453e-05
-2.35692e-06
0.000378878
7.42052e-06
1.90762e-05
9.444e-05
9.18531e-05
9.44138e-05
9.37802e-05
-0.000376918
2.0991e-05
9.64511e-05
-1.33187e-06
-3.69012e-06
-2.23962e-06
-9.94278e-07
9.63518e-05
9.59477e-05
9.54396e-05
-0.000377889
8.9491e-07
0.000390483
-6.63528e-06
-1.04385e-05
-7.7204e-06
-8.87236e-06
0.000381943
9.16014e-06
-0.000391047
0.000393669
-4.22752e-06
-4.7076e-06
-3.64604e-06
-3.12006e-06
-4.45385e-06
1.70043e-06
-8.71171e-07
-3.26382e-07
-8.10579e-07
2.39068e-06
-3.41756e-06
9.81885e-05
7.35426e-06
0.0004121
-2.89931e-06
-7.49599e-06
-1.11116e-05
-1.04837e-05
-8.75509e-06
0.000100426
-1.7383e-06
5.09089e-06
3.33513e-06
-0.000100338
0.000420624
-4.23311e-06
-1.14344e-06
-6.39609e-06
-1.4689e-06
7.24167e-07
-7.05967e-06
-5.56419e-06
-7.25841e-06
-5.74132e-06
1.10084e-05
0.000394265
-7.44744e-06
-4.61264e-07
-1.55479e-06
-1.30971e-06
-4.26661e-07
3.00227e-06
-5.89045e-07
-1.05979e-06
-8.41675e-07
3.56302e-06
-0.000102095
-2.19857e-06
-0.000414835
-1.08737e-05
4.57451e-06
6.2717e-06
5.37335e-06
5.51666e-06
-2.28977e-06
3.44321e-06
3.41789e-06
0.000101351
2.64514e-06
2.27476e-06
3.88033e-06
1.19311e-06
-9.24959e-06
7.38355e-07
2.3945e-06
1.75401e-06
1.45942e-06
8.77701e-05
-1.27094e-05
8.94334e-06
-7.94539e-06
-1.55432e-05
-9.0041e-05
2.59815e-05
2.01408e-05
-1.06791e-05
-1.44559e-05
-1.39943e-05
-9.19406e-06
2.93471e-05
2.60719e-05
2.7784e-05
-1.12251e-05
1.0535e-05
-6.63335e-07
9.60288e-06
1.73938e-05
1.74233e-05
1.71251e-05
1.86809e-05
2.54711e-05
-1.04815e-05
-1.17581e-05
-1.45824e-05
-1.42655e-05
-1.18585e-05
2.66262e-05
2.5957e-05
2.69756e-05
-7.71784e-07
-8.59258e-06
1.55146e-05
1.41859e-05
1.41256e-05
1.49684e-05
8.22292e-06
-1.948e-06
8.26486e-05
-1.4882e-05
2.58934e-06
-8.33337e-05
2.19943e-06
-1.66376e-06
2.52283e-05
-1.21265e-05
-1.48399e-05
-1.21699e-05
-1.47165e-05
2.66193e-05
2.50519e-05
2.63588e-05
1.48301e-05
1.92267e-06
-1.53923e-06
-4.35312e-07
1.41555e-05
1.31519e-05
1.41671e-05
1.30805e-05
-1.6464e-06
2.49298e-05
2.76484e-06
-1.21338e-05
-1.46786e-05
-1.47424e-05
-1.20832e-05
2.62966e-05
2.49054e-05
2.62307e-05
-4.7748e-07
2.44429e-06
1.41306e-05
1.28434e-05
1.3166e-05
1.39597e-05
1.00128e-06
-9.29966e-06
-1.22215e-06
-9.50906e-06
-1.72465e-06
1.52762e-06
-2.44058e-05
-8.80293e-06
5.83643e-06
-9.96671e-06
3.98295e-06
-4.17247e-06
1.42434e-06
8.29546e-05
-1.50039e-05
-8.34169e-05
-1.25848e-06
2.52301e-05
-1.2187e-05
-1.4806e-05
-1.21657e-05
-1.48086e-05
2.66206e-05
2.51185e-05
2.64518e-05
1.4937e-05
-1.28152e-06
-4.04471e-07
1.42209e-05
1.30481e-05
1.41323e-05
1.32168e-05
2.51545e-05
-1.21717e-05
-1.48428e-05
-1.4751e-05
-1.22034e-05
2.65536e-05
2.50548e-05
2.63767e-05
-3.72678e-07
1.40809e-05
1.29693e-05
1.30285e-05
1.40216e-05
-7.77306e-06
-3.8969e-08
7.86678e-06
-5.66806e-07
9.81436e-06
-8.70341e-07
-8.4551e-07
7.46116e-07
-8.84444e-06
9.40787e-06
-8.53706e-07
-8.47042e-06
-6.28824e-07
-8.14282e-07
-8.07947e-06
-1.18155e-08
7.0712e-07
8.19856e-06
1.61096e-05
5.49729e-06
-2.16142e-05
4.33378e-08
3.75397e-07
1.13882e-05
-1.0876e-05
-5.1522e-07
2.48572e-05
1.14763e-05
2.48274e-05
-1.09234e-05
1.53157e-08
6.47813e-08
1.61156e-05
5.46155e-06
-3.12918e-08
-2.16109e-05
-1.44197e-05
8.27031e-05
1.35628e-06
-1.22419e-06
1.43043e-05
1.48354e-06
1.40863e-05
1.27814e-05
1.29692e-05
1.39769e-05
-1.20136e-06
-8.31596e-05
2.51165e-05
1.61981e-06
-1.21347e-05
-1.46475e-05
-1.46604e-05
-1.21e-05
2.64326e-05
2.50175e-05
2.62761e-05
1.39448e-05
1.27042e-05
1.27815e-05
1.38696e-05
2.50436e-05
-1.2124e-05
-1.47083e-05
-1.46077e-05
-1.21539e-05
2.63821e-05
2.49566e-05
2.62106e-05
1.59155e-06
-7.54969e-06
-7.15338e-08
7.66957e-06
-5.44267e-07
9.75732e-06
-8.41013e-07
-8.86803e-07
7.2792e-07
-8.75767e-06
9.34371e-06
-8.85782e-07
-8.37545e-06
-6.20659e-07
-7.77133e-07
-7.83547e-06
-5.53366e-08
6.81069e-07
7.98674e-06
1.57213e-05
5.51013e-06
-2.12373e-05
3.47511e-08
3.72186e-07
1.13467e-05
-1.07754e-05
-5.10996e-07
2.46837e-05
1.14418e-05
2.46647e-05
-1.08293e-05
-3.70431e-09
6.78085e-08
1.57059e-05
5.46859e-06
-3.23746e-08
-2.12096e-05
8.5544e-07
-7.41431e-07
-9.62141e-07
8.31932e-07
-7.25975e-07
-9.29569e-07
1.59578e-05
5.12232e-06
-2.13412e-05
1.19022e-06
4.4148e-06
7.26312e-06
-7.06024e-06
-4.86831e-06
2.62312e-05
-2.46928e-06
1.09091e-05
2.48649e-05
-1.0609e-05
2.77449e-06
3.21633e-06
2.26415e-05
3.86005e-06
-2.19857e-06
-2.75206e-05
-7.65769e-06
-1.3302e-06
-7.94195e-09
7.80716e-06
1.18879e-06
-7.97673e-07
-1.04547e-06
-8.32665e-06
-1.48981e-06
-8.09322e-07
-8.52741e-06
1.31767e-06
-7.5513e-06
2.11591e-08
-9.40033e-07
7.65601e-06
1.68195e-07
1.56908e-05
5.41951e-06
-2.11401e-05
-1.38696e-07
1.13932e-05
-1.08858e-05
2.21932e-07
2.48741e-05
6.59874e-07
1.13606e-05
2.44956e-05
-1.08119e-05
-7.74877e-07
1.61014e-05
5.47647e-06
1.12819e-07
-2.16263e-05
-7.53738e-06
2.55759e-06
-1.8837e-07
7.84763e-06
-2.67939e-06
-7.60944e-06
1.86223e-06
4.90927e-06
-2.35686e-05
3.25657e-06
-9.43214e-07
-8.8847e-06
-3.39517e-06
-6.22543e-06
-2.13794e-05
1.24892e-06
3.95577e-06
2.23991e-05
-1.15972e-05
8.74691e-05
8.79115e-06
-7.81917e-06
-1.07043e-05
9.61668e-06
9.23842e-06
1.72292e-05
1.72619e-05
1.67465e-05
1.86277e-05
-1.54491e-05
-9.00164e-05
2.59539e-05
2.01906e-05
-1.05007e-05
-1.42576e-05
-1.37301e-05
-9.02804e-06
2.91253e-05
2.60506e-05
2.76838e-05
-8.23898e-06
1.53042e-05
1.38816e-05
1.3816e-05
1.47694e-05
2.53591e-05
-1.0385e-05
-1.16149e-05
-1.43646e-05
-1.40282e-05
-1.17209e-05
2.64262e-05
2.5861e-05
2.67786e-05
8.03105e-06
-1.41176e-05
-1.9004e-06
8.23499e-05
2.52284e-06
1.86544e-06
1.41444e-05
1.40097e-05
1.28808e-05
1.2827e-05
1.40077e-05
-8.30637e-05
2.16428e-06
2.51127e-05
-1.20533e-05
-1.46749e-05
-1.20974e-05
-1.45424e-05
2.64208e-05
2.49472e-05
2.61643e-05
2.36225e-06
1.39872e-05
1.25737e-05
1.29138e-05
1.37923e-05
2.48072e-05
2.71893e-06
-1.20493e-05
-1.44853e-05
-1.45593e-05
-1.19827e-05
2.60843e-05
2.47994e-05
2.60309e-05
-1.01555e-06
1.55517e-05
5.08568e-06
-2.09272e-05
1.30572e-06
4.51391e-06
7.10642e-06
-6.87664e-06
-4.97721e-06
2.61874e-05
-2.50955e-06
1.08263e-05
2.47149e-05
-1.04963e-05
2.82346e-06
3.64275e-06
2.23749e-05
3.71555e-06
-2.49419e-06
-2.72377e-05
-7.43511e-06
-1.2723e-06
-6.02371e-08
1.13931e-06
7.62819e-06
9.24883e-06
-8.28633e-07
-8.24713e-06
-1.0143e-06
-7.32608e-06
-2.3178e-08
-8.97511e-07
7.46952e-06
9.47233e-06
-1.42956e-06
-8.43884e-07
-8.46991e-06
1.27077e-06
1.82316e-07
1.52826e-05
5.41694e-06
-1.49045e-07
-2.07324e-05
1.13553e-05
-1.0784e-05
2.46989e-05
2.14366e-07
1.56918e-05
5.48574e-06
1.13577e-07
-2.1223e-05
6.61026e-07
1.13067e-05
2.43189e-05
-1.07007e-05
-7.79187e-07
-7.44381e-06
2.33752e-06
-2.89268e-07
-2.3898e-06
7.78525e-06
-6.59304e-06
2.45002e-05
1.49646e-06
-2.36168e-05
4.21427e-06
-5.30515e-06
-2.13117e-05
9.65117e-07
3.28651e-06
2.23661e-05
1.0019e-05
3.02549e-06
-1.05118e-06
-8.91117e-06
-3.08239e-06
-8.00335e-06
9.52547e-05
-1.56045e-06
-9.47553e-05
1.10096e-05
2.46658e-05
-8.79443e-07
-4.478e-06
-1.86427e-06
-7.17757e-08
3.34893e-05
2.4057e-05
2.46506e-05
3.07057e-06
8.22459e-06
-1.16531e-07
2.31173e-05
2.15048e-05
2.28658e-05
2.27286e-05
1.08536e-06
-9.28467e-05
0.000100497
-2.79037e-07
-3.5506e-06
-6.63491e-06
-5.36992e-06
-3.51747e-06
9.65371e-05
-2.75795e-07
-9.88861e-05
-2.8765e-06
0.000102767
7.05422e-07
-2.18584e-06
-2.59072e-06
-2.27829e-06
-2.11076e-06
1.43818e-06
-1.11993e-07
2.42825e-05
3.47171e-06
-3.02428e-07
2.78915e-06
-6.0117e-06
1.3091e-06
2.21604e-06
-2.06794e-07
0.00011576
-6.73291e-07
-5.70494e-06
-7.58173e-06
-6.26276e-06
-6.13641e-06
3.16636e-05
5.32999e-07
3.16092e-06
-3.38257e-05
1.68426e-06
7.97478e-07
-3.25073e-06
-2.39391e-06
-3.62393e-06
-2.87289e-06
-8.6278e-07
0.000121059
-5.02593e-06
-3.63912e-06
-5.03999e-06
-4.20319e-06
-2.51256e-06
0.000104185
-0.000105502
-7.08554e-07
2.76902e-06
2.12559e-06
2.57131e-06
2.18292e-06
-4.17466e-07
-7.26935e-06
8.49426e-06
4.17838e-07
-1.22521e-06
2.85764e-05
1.95022e-06
-5.85482e-06
-2.83599e-05
-3.92129e-06
-0.000119783
1.68497e-06
-1.28194e-06
2.16406e-06
1.74487e-06
1.34781e-06
2.45304e-06
-2.92051e-05
1.2823e-06
-3.02839e-06
-4.21638e-06
2.8942e-05
-1.1984e-06
-0.000122294
2.14166e-06
1.14149e-06
1.45728e-06
1.91772e-06
-1.06519e-06
3.04654e-06
2.60939e-06
3.26223e-06
2.51584e-06
-7.85648e-06
-8.6542e-07
9.51906e-05
2.50846e-06
8.00171e-06
2.31611e-05
2.16088e-05
2.29196e-05
2.27653e-05
-9.48492e-05
1.09081e-05
2.472e-05
-7.55935e-07
-4.24191e-06
-1.70787e-06
1.26725e-07
3.35043e-05
2.41034e-05
2.4691e-05
-9.29179e-05
3.65922e-07
0.000100568
-3.4558e-06
-6.52254e-06
-3.42566e-06
-5.32151e-06
9.66004e-05
-1.21833e-06