/*--------------------------------*- C++ -*----------------------------------*\
| =========                 |                                                 |
| \\      /  F ield         | OpenFOAM: The Open Source CFD Toolbox           |
|  \\    /   O peration     | Version:  2012                                  |
|   \\  /    A nd           | Website:  www.openfoam.com                      |
|    \\/     M anipulation  |                                                 |
\*---------------------------------------------------------------------------*/
FoamFile
{
    version     2.0;
    format      ascii;
    class       pointVectorField;
    location    "0.107/fluid";
    object      pointMotionU;
}
// * * * * * * * * * * * * * * * * * * * * * * * * * * * * * * * * * * * * * //

dimensions      [0 1 -1 0 0 0 0];


internalField   nonuniform List<vector> 
19865
(
(0 0 0)
(3.53051e-05 2.53334e-05 -9.21925e-06)
(7.44349e-05 4.71839e-05 -1.80726e-05)
(0.000108942 6.39466e-05 -2.6245e-05)
(0.000130108 7.50579e-05 -3.39703e-05)
(0.00013595 7.93327e-05 -4.11802e-05)
(0.000125875 7.51652e-05 -4.77244e-05)
(0.000100594 6.31633e-05 -5.25172e-05)
(6.26924e-05 4.43748e-05 -5.38674e-05)
(1.69918e-05 1.84657e-05 -4.92032e-05)
(-2.89581e-05 -1.14198e-05 -3.68668e-05)
(-5.7735e-05 -3.38792e-05 -1.80117e-05)
(-4.58648e-05 -3.88716e-05 5.00589e-06)
(9.13728e-06 -2.38107e-05 2.09169e-05)
(4.55564e-06 -2.02437e-05 7.0954e-06)
(-2.15759e-05 -1.04909e-05 -1.48414e-07)
(0 0 0)
(4.35678e-05 2.03597e-05 -9.93066e-06)
(9.30574e-05 3.81144e-05 -1.92182e-05)
(0.000137508 5.20813e-05 -2.76474e-05)
(0.000167424 6.15637e-05 -3.54943e-05)
(0.00018007 6.53289e-05 -4.2753e-05)
(0.000174684 6.19856e-05 -4.90549e-05)
(0.000151147 5.19468e-05 -5.32484e-05)
(0.000110136 3.59544e-05 -5.3786e-05)
(5.92774e-05 1.39567e-05 -4.84095e-05)
(8.20004e-06 -1.21249e-05 -3.56018e-05)
(-2.81522e-05 -3.43155e-05 -1.66753e-05)
(-2.99603e-05 -4.3666e-05 4.79342e-06)
(3.20347e-06 -3.72645e-05 2.01184e-05)
(2.23532e-05 -2.8306e-05 1.76618e-05)
(-6.96783e-06 -2.7174e-05 4.62288e-06)
(0 0 0)
(4.94344e-05 1.12555e-05 -1.02059e-05)
(0.000106321 2.13903e-05 -1.97201e-05)
(0.000157645 2.93659e-05 -2.80666e-05)
(0.000193818 3.49295e-05 -3.57367e-05)
(0.000212127 3.72959e-05 -4.27066e-05)
(0.000211448 3.55398e-05 -4.8344e-05)
(0.000190626 2.9887e-05 -5.15426e-05)
(0.000150833 2.06716e-05 -5.07908e-05)
(9.92868e-05 7.84053e-06 -4.43839e-05)
(4.64758e-05 -7.93702e-06 -3.13803e-05)
(6.4889e-06 -2.26947e-05 -1.31045e-05)
(-8.22288e-06 -3.12123e-05 6.27889e-06)
(2.71783e-07 -3.1521e-05 1.95416e-05)
(8.99862e-06 -2.85139e-05 1.8491e-05)
(-6.66456e-06 -3.21613e-05 6.17601e-06)
(0 0 0)
(5.18388e-05 0 -1.02914e-05)
(0.000110646 0 -1.97635e-05)
(0.000163609 0 -2.80223e-05)
(0.000201906 0 -3.55834e-05)
(0.000222218 0 -4.23267e-05)
(0.000223436 0 -4.75811e-05)
(0.000203619 0 -5.02348e-05)
(0.000165142 0 -4.87374e-05)
(0.000113468 0 -4.18726e-05)
(6.01255e-05 0 -2.88365e-05)
(2.00337e-05 0 -1.12585e-05)
(8.14451e-07 0 6.72092e-06)
(-4.79963e-07 0 1.80672e-05)
(1.0219e-06 0 1.65085e-05)
(-1.24411e-05 0 5.81124e-06)
(0 0 0)
(2.81991e-05 3.02523e-05 -9.1221e-06)
(6.13985e-05 5.68458e-05 -1.80111e-05)
(9.17504e-05 7.66773e-05 -2.57832e-05)
(0.000108729 8.88185e-05 -3.31443e-05)
(0.000108406 9.10881e-05 -4.01078e-05)
(8.83625e-05 8.13524e-05 -4.65347e-05)
(5.12578e-05 6.28326e-05 -5.12914e-05)
(7.1877e-07 3.88199e-05 -5.28394e-05)
(-5.61544e-05 1.02762e-05 -4.91262e-05)
(-0.000110298 -2.03919e-05 -3.8696e-05)
(-0.00014062 -4.22899e-05 -2.27185e-05)
(-0.000122233 -4.69931e-05 -2.68191e-06)
(-4.58777e-05 -3.09422e-05 1.3985e-05)
(-9.79995e-07 -2.30293e-05 9.96769e-06)
(-1.89219e-05 -2.70974e-05 1.26571e-06)
(0 0 0)
(3.34941e-05 2.43338e-05 -9.84298e-06)
(7.47745e-05 4.58177e-05 -1.91786e-05)
(0.000114219 6.22416e-05 -2.73914e-05)
(0.000139535 7.25692e-05 -3.50499e-05)
(0.000144785 7.4721e-05 -4.21354e-05)
(0.000129652 6.7183e-05 -4.82898e-05)
(9.37837e-05 5.13742e-05 -5.24637e-05)
(4.06789e-05 3.05342e-05 -5.29988e-05)
(-2.04975e-05 5.98316e-06 -4.82512e-05)
(-7.80099e-05 -2.04262e-05 -3.73078e-05)
(-0.000114284 -4.24769e-05 -2.10918e-05)
(-0.000108112 -5.22738e-05 -2.38172e-06)
(-5.76935e-05 -4.69872e-05 1.21504e-05)
(-1.54342e-05 -4.07824e-05 1.29697e-05)
(-2.57487e-05 -4.72727e-05 2.96969e-06)
(0 0 0)
(3.73553e-05 1.34223e-05 -1.00817e-05)
(8.37453e-05 2.56782e-05 -1.96313e-05)
(0.000128857 3.5214e-05 -2.79928e-05)
(0.000160201 4.1098e-05 -3.55871e-05)
(0.000171605 4.247e-05 -4.246e-05)
(0.000161714 3.8367e-05 -4.80163e-05)
(0.000129738 2.94967e-05 -5.11852e-05)
(7.83287e-05 1.74209e-05 -5.05795e-05)
(1.6587e-05 2.65125e-06 -4.48728e-05)
(-4.10555e-05 -1.36168e-05 -3.34919e-05)
(-7.92716e-05 -2.83744e-05 -1.7531e-05)
(-8.547e-05 -3.73321e-05 -6.21228e-07)
(-6.35783e-05 -3.94543e-05 1.11499e-05)
(-4.14992e-05 -4.01318e-05 1.17984e-05)
(-4.99675e-05 -4.74508e-05 3.53589e-06)
(0 0 0)
(3.91546e-05 0 -1.02608e-05)
(8.70454e-05 0 -1.96846e-05)
(0.000133216 0 -2.7862e-05)
(0.000166865 0 -3.54132e-05)
(0.000180541 0 -4.21945e-05)
(0.000172415 0 -4.74634e-05)
(0.00014154 0 -5.01034e-05)
(9.13959e-05 0 -4.8896e-05)
(3.14694e-05 0 -4.27697e-05)
(-2.48077e-05 0 -3.12999e-05)
(-6.30288e-05 0 -1.57771e-05)
(-7.43053e-05 0 2.98072e-08)
(-6.38434e-05 0 1.02321e-05)
(-5.25559e-05 0 1.03347e-05)
(-6.29568e-05 0 3.38758e-06)
(0 0 0)
(2.12604e-05 3.41395e-05 -7.3634e-06)
(4.85674e-05 6.41234e-05 -1.43595e-05)
(7.51061e-05 8.6828e-05 -2.0544e-05)
(8.90781e-05 9.95293e-05 -2.63254e-05)
(8.39015e-05 9.90767e-05 -3.18674e-05)
(5.76041e-05 8.44831e-05 -3.698e-05)
(1.28537e-05 6.03791e-05 -4.09616e-05)
(-4.48067e-05 3.17182e-05 -4.26716e-05)
(-0.000106589 4.32042e-07 -4.05193e-05)
(-0.000162748 -3.09266e-05 -3.35501e-05)
(-0.000191538 -5.3707e-05 -2.21636e-05)
(-0.000175923 -6.36817e-05 -7.22438e-06)
(-0.000113735 -5.86812e-05 6.24415e-06)
(-6.01446e-05 -5.40952e-05 9.36257e-06)
(-6.40976e-05 -6.7831e-05 2.60656e-06)
(0 0 0)
(2.41669e-05 2.75128e-05 -7.9388e-06)
(5.73582e-05 5.17522e-05 -1.54095e-05)
(9.16713e-05 7.0274e-05 -2.20281e-05)
(0.000112783 8.11482e-05 -2.81637e-05)
(0.000112821 8.12479e-05 -3.38602e-05)
(9.08454e-05 6.97557e-05 -3.87365e-05)
(4.75299e-05 4.91271e-05 -4.2189e-05)
(-1.26743e-05 2.41507e-05 -4.30566e-05)
(-7.89052e-05 -2.50447e-06 -4.01215e-05)
(-0.000137686 -2.85151e-05 -3.26365e-05)
(-0.000174068 -5.0986e-05 -2.09191e-05)
(-0.000169726 -6.39579e-05 -7.2692e-06)
(-0.000126667 -6.65751e-05 4.08861e-06)
(-8.80473e-05 -6.92053e-05 6.66672e-06)
(-9.28592e-05 -8.37996e-05 1.5407e-06)
(0 0 0)
(2.60931e-05 1.52294e-05 -8.11573e-06)
(6.22824e-05 2.88983e-05 -1.57404e-05)
(0.00010135 3.97004e-05 -2.25517e-05)
(0.000128312 4.59937e-05 -2.86548e-05)
(0.000134157 4.62574e-05 -3.41312e-05)
(0.000116727 3.95099e-05 -3.86686e-05)
(7.75462e-05 2.78131e-05 -4.13741e-05)
(1.99016e-05 1.33188e-05 -4.1312e-05)
(-4.64891e-05 -2.59188e-06 -3.75726e-05)
(-0.000106179 -1.84804e-05 -2.962e-05)
(-0.000144169 -3.28187e-05 -1.81573e-05)
(-0.000150154 -4.31029e-05 -5.90603e-06)
(-0.000130123 -4.9372e-05 2.85472e-06)
(-0.000111236 -5.62381e-05 4.49461e-06)
(-0.000121025 -6.84586e-05 8.64559e-07)
(0 0 0)
(2.72574e-05 0 -8.19601e-06)
(6.44366e-05 0 -1.57842e-05)
(0.000104517 0 -2.24625e-05)
(0.000133307 0 -2.85263e-05)
(0.000141274 0 -3.39562e-05)
(0.000125874 0 -3.83361e-05)
(8.85168e-05 0 -4.0617e-05)
(3.17337e-05 0 -4.00215e-05)
(-3.2662e-05 0 -3.58334e-05)
(-9.07099e-05 0 -2.776e-05)
(-0.00012839 0 -1.66453e-05)
(-0.000138774 0 -5.20352e-06)
(-0.000128706 0 2.39895e-06)
(-0.000119627 0 3.59243e-06)
(-0.000132648 0 6.51415e-07)
(0 0 0)
(1.66807e-05 3.61282e-05 -4.04303e-06)
(3.97332e-05 6.83806e-05 -7.91481e-06)
(6.34258e-05 9.29406e-05 -1.1374e-05)
(7.52641e-05 0.000105776 -1.45955e-05)
(6.7543e-05 0.000103418 -1.76182e-05)
(3.83062e-05 8.57729e-05 -2.04448e-05)
(-9.00365e-06 5.84976e-05 -2.2734e-05)
(-6.87051e-05 2.68764e-05 -2.39038e-05)
(-0.000131537 -6.06787e-06 -2.31148e-05)
(-0.000184726 -3.67379e-05 -1.99403e-05)
(-0.000211975 -6.07292e-05 -1.40932e-05)
(-0.000204476 -7.67843e-05 -6.14783e-06)
(-0.000170912 -8.64202e-05 1.06785e-06)
(-0.00014505 -9.83483e-05 3.89241e-06)
(-0.000158687 -0.000124492 2.45906e-06)
(0 0 0)
(1.8951e-05 2.91225e-05 -4.36492e-06)
(4.58947e-05 5.52088e-05 -8.47565e-06)
(7.53538e-05 7.51946e-05 -1.21082e-05)
(9.34611e-05 8.61816e-05 -1.55347e-05)
(9.09497e-05 8.46824e-05 -1.86997e-05)
(6.52139e-05 7.02026e-05 -2.14719e-05)
(1.89544e-05 4.67014e-05 -2.35547e-05)
(-4.30452e-05 1.97539e-05 -2.42898e-05)
(-0.000110379 -7.33328e-06 -2.30462e-05)
(-0.000168439 -3.21403e-05 -1.95331e-05)
(-0.000203525 -5.39302e-05 -1.36366e-05)
(-0.000205969 -7.13428e-05 -6.34081e-06)
(-0.000182526 -8.45232e-05 -1.67366e-07)
(-0.000163584 -9.99467e-05 2.01155e-06)
(-0.000178536 -0.000125562 9.76175e-07)
(0 0 0)
(1.97756e-05 1.61892e-05 -4.43609e-06)
(4.87758e-05 3.09691e-05 -8.63945e-06)
(8.23607e-05 4.2559e-05 -1.24358e-05)
(0.000105731 4.91283e-05 -1.59219e-05)
(0.000108091 4.8471e-05 -1.90657e-05)
(8.61563e-05 3.9985e-05 -2.16532e-05)
(4.30769e-05 2.59086e-05 -2.33845e-05)
(-1.66522e-05 1.01852e-05 -2.36432e-05)
(-8.28327e-05 -5.1072e-06 -2.17975e-05)
(-0.000143149 -1.96191e-05 -1.78167e-05)
(-0.000182021 -3.31339e-05 -1.20874e-05)
(-0.000192542 -4.56925e-05 -5.64422e-06)
(-0.000182092 -5.68866e-05 -8.38634e-07)
(-0.000175451 -7.05958e-05 6.20076e-07)
(-0.000193328 -8.79087e-05 -8.6773e-08)
(0 0 0)
(2.03086e-05 0 -4.46101e-06)
(5.02845e-05 0 -8.6524e-06)
(8.48163e-05 0 -1.24827e-05)
(0.000109719 0 -1.59976e-05)
(0.000113453 0 -1.8992e-05)
(9.32863e-05 0 -2.13718e-05)
(5.26376e-05 0 -2.2922e-05)
(-4.56007e-06 0 -2.30372e-05)
(-7.00893e-05 0 -2.10217e-05)
(-0.000130096 0 -1.68122e-05)
(-0.000168735 0 -1.11515e-05)
(-0.000182034 0 -5.19271e-06)
(-0.00017854 0 -1.03377e-06)
(-0.000178367 0 1.42694e-07)
(-0.000198558 0 -3.84369e-07)
(0 0 0)
(1.54011e-05 3.65353e-05 0)
(3.69325e-05 6.90244e-05 0)
(5.91726e-05 9.39281e-05 0)
(6.99382e-05 0.000106656 0)
(6.18919e-05 0.000104108 0)
(3.17524e-05 8.55228e-05 0)
(-1.59446e-05 5.7349e-05 0)
(-7.54279e-05 2.49626e-05 0)
(-0.000137203 -7.84481e-06 0)
(-0.000188097 -3.7636e-05 0)
(-0.000214537 -6.20129e-05 0)
(-0.000211932 -8.10793e-05 0)
(-0.000192389 -9.76171e-05 0)
(-0.000182143 -0.000118033 0)
(-0.000201422 -0.000149467 0)
(0 0 0)
(1.76027e-05 2.94593e-05 0)
(4.23955e-05 5.57626e-05 0)
(6.95374e-05 7.61379e-05 0)
(8.62696e-05 8.71368e-05 0)
(8.296e-05 8.49897e-05 0)
(5.62838e-05 6.9654e-05 0)
(9.46828e-06 4.54791e-05 0)
(-5.25022e-05 1.81067e-05 0)
(-0.000118755 -8.25621e-06 0)
(-0.000175796 -3.21148e-05 0)
(-0.000210289 -5.36003e-05 0)
(-0.00021648 -7.32374e-05 0)
(-0.000203607 -9.12797e-05 0)
(-0.000196596 -0.000112401 0)
(-0.000216682 -0.000142073 0)
(0 0 0)
(1.82797e-05 1.64212e-05 0)
(4.48442e-05 3.12687e-05 0)
(7.56897e-05 4.29042e-05 0)
(9.70745e-05 4.94738e-05 0)
(9.78115e-05 4.85289e-05 0)
(7.52251e-05 3.98472e-05 0)
(3.1008e-05 2.50051e-05 0)
(-2.87403e-05 9.22311e-06 0)
(-9.45586e-05 -5.35142e-06 0)
(-0.00015428 -1.8984e-05 0)
(-0.000193598 -3.23405e-05 0)
(-0.000206502 -4.58399e-05 0)
(-0.000201613 -5.87369e-05 0)
(-0.000202132 -7.46905e-05 0)
(-0.000224539 -9.42044e-05 0)
(0 0 0)
(1.85805e-05 0 0)
(4.59791e-05 0 0)
(7.77275e-05 0 0)
(0.000100359 0 0)
(0.000102441 0 0)
(8.16109e-05 0 0)
(4.03613e-05 0 0)
(-1.70311e-05 0 0)
(-8.26921e-05 0 0)
(-0.000142714 0 0)
(-0.000182167 0 0)
(-0.000197292 0 0)
(-0.000197733 0 0)
(-0.000202237 0 0)
(-0.000226444 0 0)
(-3.73986e-05 1.99488e-05 -5.04093e-06)
(-1.2612e-05 -1.70171e-05 3.19144e-06)
(-1.66074e-05 -1.36582e-05 -1.7831e-06)
(-1.39146e-06 -1.83287e-05 7.05122e-06)
(-2.1511e-05 -1.48503e-05 2.26886e-07)
(-2.58777e-06 -1.81834e-05 9.38703e-06)
(-2.53292e-05 -2.18762e-05 1.08843e-06)
(-1.04285e-05 -2.33e-05 3.79482e-06)
(-1.39283e-05 -1.34008e-05 4.14527e-06)
(-3.72951e-05 -6.582e-06 8.93603e-07)
(-1.82386e-05 -1.48422e-05 -5.82142e-07)
(-1.7246e-05 -1.72265e-05 2.16005e-06)
(6.31351e-06 -1.27479e-05 1.63065e-05)
(-3.02808e-05 -1.483e-05 -1.41903e-06)
(-2.71208e-06 -2.46934e-05 5.70992e-06)
(-1.83516e-05 -3.14287e-05 6.63215e-06)
(-2.21141e-05 -1.53405e-05 -1.44646e-06)
(-2.28129e-05 -1.69452e-05 -2.07753e-06)
(-3.32607e-05 -1.66838e-05 -2.44795e-06)
(-1.64827e-05 1.1978e-05 -3.61069e-06)
(-1.13983e-05 -1.49283e-05 4.04418e-06)
(-2.89973e-05 -1.28563e-05 -6.20801e-07)
(-1.28635e-05 -1.55247e-05 2.55142e-06)
(-2.64067e-05 -1.23902e-05 -6.03331e-07)
(9.54132e-06 -1.90706e-05 2.18585e-05)
(-4.86205e-06 -1.70518e-05 5.49639e-06)
(2.17254e-05 -1.91554e-05 1.7638e-05)
(-1.64994e-05 -2.41533e-05 1.73642e-05)
(1.88249e-05 -2.37684e-05 1.29302e-05)
(7.15441e-06 -1.98506e-05 7.12697e-06)
(-7.87038e-06 -1.84799e-05 4.18703e-06)
(-1.07433e-05 -1.98556e-05 1.44004e-06)
(3.6145e-07 -1.88085e-05 6.74525e-06)
(-1.45305e-05 -2.00937e-05 2.28466e-06)
(-1.93535e-05 -1.3344e-05 -3.41217e-08)
(-1.85425e-05 -8.57842e-06 -9.52106e-07)
(-1.6863e-05 -5.2784e-06 -2.04219e-06)
(-2.16865e-05 -9.79385e-06 -1.56458e-07)
(9.11116e-06 -2.66218e-05 1.07175e-05)
(6.1854e-06 -3.28705e-05 1.52032e-05)
(-1.2738e-05 -3.57898e-05 3.81189e-06)
(-4.22514e-05 -2.49958e-05 1.52512e-05)
(-3.14843e-07 -1.83767e-05 1.07478e-05)
(-2.34446e-05 -2.30934e-05 1.08628e-06)
(-1.14709e-05 -2.43843e-05 1.47496e-05)
(-5.69452e-06 -3.18995e-05 1.16616e-05)
(-2.21884e-05 -3.50345e-05 1.07556e-05)
(1.69186e-08 -1.97388e-05 8.41673e-06)
(-2.44476e-06 -1.98688e-05 9.14563e-06)
(-4.16736e-06 -2.33576e-05 6.64507e-06)
(-1.87484e-05 -3.70357e-05 2.07958e-06)
(-3.00133e-05 -4.38185e-05 1.98336e-06)
(-1.99484e-05 -2.09755e-05 8.25043e-07)
(-2.28042e-05 -2.34034e-05 1.22748e-06)
(-1.53213e-05 -2.41481e-05 2.16189e-06)
(-1.60972e-05 -4.22072e-05 8.27065e-06)
(-5.25041e-05 -4.78314e-05 1.04452e-05)
(-5.69178e-05 -6.081e-05 3.395e-06)
(-5.61982e-05 -5.83023e-05 6.41663e-06)
(-3.7517e-05 -9.84151e-06 -2.8463e-06)
(-3.47861e-05 -9.40108e-06 -2.63366e-06)
(-3.73414e-05 6.92978e-06 -2.10359e-06)
(-3.54487e-05 -9.89519e-06 -4.30097e-06)
(-2.81834e-05 -9.11853e-06 -1.78134e-06)
(-3.7489e-05 -7.0128e-06 -3.76963e-06)
(-9.19021e-06 -1.62356e-05 3.06125e-06)
(-3.61237e-05 -1.28487e-05 -4.16155e-06)
(-1.68482e-05 -1.44793e-05 2.9644e-06)
(-7.52036e-06 -1.39982e-05 6.34013e-06)
(-1.38624e-05 -1.35149e-05 -1.67444e-06)
(-3.32394e-05 -6.59707e-06 -5.69246e-06)
(-2.02524e-05 -1.25325e-05 -1.80874e-06)
(-1.04965e-05 -1.53567e-05 4.71973e-06)
(-1.26634e-05 -1.84176e-05 2.32025e-06)
(-2.64346e-05 -1.0817e-05 5.73465e-08)
(-1.95491e-05 -9.59405e-06 -9.35648e-07)
(-1.45064e-05 -1.86662e-05 3.25633e-06)
(-6.03938e-06 -1.46956e-05 6.81653e-06)
(-8.53547e-06 -1.82465e-05 5.37442e-06)
(-3.30413e-05 -1.51332e-05 8.30749e-07)
(-2.30482e-05 -1.77256e-05 9.27464e-07)
(-1.31578e-05 -1.82079e-05 1.67178e-06)
(-1.50694e-05 -1.91856e-05 2.48565e-06)
(1.84688e-05 -1.54706e-05 1.7309e-05)
(-2.07674e-06 -1.65699e-05 5.27065e-06)
(-4.44023e-06 -1.78534e-05 4.15981e-06)
(2.75142e-08 -2.09977e-05 5.44248e-06)
(-8.15892e-06 -1.85003e-05 1.39035e-06)
(-1.45582e-05 -8.27779e-06 -1.81794e-06)
(-1.55902e-05 -1.84489e-05 1.84565e-05)
(-8.63526e-06 -1.48901e-05 5.38327e-06)
(5.48799e-06 -1.87026e-05 1.54131e-05)
(-8.89672e-06 -1.90857e-05 1.5441e-05)
(-1.21975e-05 -1.62896e-05 3.87729e-06)
(-2.21218e-06 -1.5298e-05 8.60033e-06)
(-4.51149e-06 -1.65139e-05 6.89234e-06)
(-2.68001e-05 -1.63249e-05 -1.47668e-06)
(-4.27677e-05 -5.58896e-06 -4.07956e-06)
(-4.21068e-05 -9.42416e-06 -4.50599e-06)
(-2.55551e-05 -1.38198e-05 2.03517e-07)
(7.06281e-06 -2.54956e-05 1.16895e-05)
(-1.49789e-05 -2.62005e-05 2.01306e-06)
(-5.06156e-07 -3.28007e-05 9.41789e-06)
(-9.51704e-06 -3.2708e-05 6.45959e-06)
(-1.42818e-05 -1.90378e-05 1.35728e-06)
(-1.84188e-05 -3.86721e-06 -1.85997e-06)
(-6.93533e-06 -1.96724e-05 4.41701e-06)
(-1.74956e-05 -1.75681e-05 7.10639e-07)
(-1.78825e-05 -2.96243e-05 1.13816e-05)
(-2.7397e-05 -3.82081e-05 2.37263e-06)
(-2.21768e-05 -3.7118e-05 6.20894e-06)
(-4.91968e-05 -5.16523e-05 7.29886e-06)
(-5.92518e-06 -1.90057e-05 6.73493e-06)
(-2.05952e-05 -1.9462e-05 1.47242e-06)
(-7.4813e-06 -1.99602e-05 5.40025e-06)
(-2.01754e-05 -1.97228e-05 1.33525e-06)
(-3.14864e-05 -1.10037e-05 -4.23561e-06)
(-2.88618e-05 -6.2283e-06 -5.61068e-06)
(-2.87889e-05 -1.77951e-05 -2.32465e-06)
(-1.42395e-05 6.62499e-06 -3.69573e-06)
(-3.90133e-05 -5.47614e-06 -5.87055e-06)
(-2.77286e-05 -1.50781e-05 -1.01801e-06)
(-2.64024e-05 9.94764e-07 -2.57618e-06)
(-2.06451e-05 -4.62256e-06 -8.60618e-07)
(-2.32233e-05 -1.33783e-05 2.27714e-07)
(-1.72815e-05 -1.30699e-05 1.72832e-06)
(-3.29544e-05 -7.68326e-06 -1.28795e-06)
(-3.01006e-05 -1.78485e-05 4.56843e-07)
(-2.29378e-05 -1.32794e-05 -7.32621e-07)
(-2.69802e-05 -1.73299e-05 9.28632e-07)
(-5.68516e-05 -1.08728e-05 -7.34578e-06)
(-5.36331e-05 -8.54992e-06 -7.57542e-06)
(-4.57793e-05 -1.11393e-05 -7.07193e-06)
(-3.18686e-05 -7.52202e-06 8.20756e-07)
(-3.26246e-05 5.30813e-06 -2.12052e-06)
(-4.69102e-05 -1.27504e-05 -6.52023e-06)
(-2.03227e-05 -7.61217e-06 -1.88221e-06)
(-2.28115e-05 5.34972e-06 -4.50735e-06)
(-3.87987e-05 1.18571e-05 -2.42433e-06)
(-3.46995e-05 -3.60875e-06 8.72679e-07)
(-3.57144e-05 8.97522e-06 -2.12559e-06)
(-3.75699e-05 -4.32155e-07 5.79788e-07)
(-5.9124e-05 -1.34161e-05 -6.70699e-06)
(-5.61902e-05 -1.00063e-05 -7.14177e-06)
(-2.89218e-05 1.19211e-05 -4.29232e-06)
(-2.3139e-05 -3.72223e-06 -1.95108e-06)
(-2.58451e-05 9.03553e-06 -4.51856e-06)
(-2.60983e-05 -4.99217e-07 -1.69112e-06)
(-2.97267e-05 -9.30448e-06 -1.69394e-06)
(-3.79563e-05 -5.10407e-06 -3.06748e-06)
(-3.93158e-05 -9.83049e-06 -8.33682e-07)
(-3.09274e-05 -9.49439e-06 -2.4606e-06)
(-3.52604e-05 -4.91301e-06 -3.12301e-06)
(-3.50516e-05 -9.64929e-06 -3.79527e-07)
(-5.46752e-05 -4.96575e-06 -6.45008e-06)
(-4.31975e-05 8.7385e-07 -5.26645e-06)
(-3.73765e-05 1.34655e-05 -3.6061e-06)
(-5.24751e-05 -5.71259e-06 -6.27533e-06)
(-3.62188e-05 -2.6566e-07 -4.1486e-06)
(-3.37979e-05 -1.22932e-05 2.09155e-06)
(-2.33219e-05 -1.24768e-05 -4.11008e-07)
(-5.26793e-05 2.3045e-06 -7.33721e-06)
(-3.92132e-05 1.35005e-06 -5.91114e-06)
(-5.01708e-05 1.3405e-06 -7.71697e-06)
(-3.73119e-05 1.98131e-07 -6.028e-07)
(-4.65081e-05 -9.56935e-06 1.11656e-06)
(-3.82027e-05 -9.54066e-06 6.59255e-07)
(-3.64164e-05 -1.07939e-05 8.60001e-07)
(-3.1363e-05 -1.48414e-05 -2.13056e-06)
(-4.69752e-05 -1.47871e-05 -5.20813e-06)
(-4.02163e-05 -1.08496e-05 -4.36008e-06)
(-3.26828e-05 -1.38535e-05 -1.66421e-06)
(-2.55777e-05 -1.77759e-05 -1.82313e-06)
(-2.96691e-05 -1.25321e-05 -3.97951e-06)
(-3.15624e-05 -1.33436e-05 -3.99416e-06)
(-3.60479e-05 -1.43328e-05 -5.38613e-06)
(-2.61614e-05 -1.9789e-05 -2.28283e-06)
(-1.32623e-05 3.05676e-06 -3.542e-06)
(-3.61028e-05 5.06346e-06 -5.16835e-07)
(-4.36064e-05 -1.23817e-05 -4.39936e-06)
(-3.4693e-05 -1.60556e-05 -3.12319e-06)
(-4.90797e-05 -1.7164e-05 -5.76732e-06)
(-3.54866e-05 -1.58664e-05 -2.59361e-06)
(-1.53713e-05 8.57889e-06 -3.61724e-06)
(-2.45141e-05 4.96621e-06 -3.11941e-06)
(-2.2967e-05 9.29683e-06 -4.54964e-06)
(-1.88954e-05 1.00527e-05 -3.24707e-06)
(-1.64186e-05 4.21896e-06 -2.50677e-06)
(-1.88083e-05 -1.29141e-05 1.78808e-06)
(-1.84656e-05 -1.36033e-05 1.54878e-06)
(-1.5646e-05 -1.26742e-05 2.35854e-06)
(-3.38147e-05 -8.82756e-06 -1.21553e-06)
(-2.77135e-05 -1.1823e-05 -7.85407e-07)
(-3.32608e-05 -8.9355e-06 -1.44176e-06)
(-3.07478e-05 -1.42476e-05 -3.12016e-07)
(-2.06368e-05 -1.34742e-05 3.33617e-07)
(-1.7878e-05 -1.27742e-05 1.26027e-06)
(-1.9515e-05 -1.38511e-05 2.42194e-07)
(-2.92631e-05 -8.30251e-06 -1.58184e-06)
(-3.15576e-05 -8.58278e-06 -1.09928e-06)
(-2.59883e-05 -1.1377e-05 -1.3348e-06)
(-2.73482e-05 -1.3711e-05 2.81878e-08)
(-1.73566e-05 -1.11988e-05 -8.59162e-07)
(-1.43118e-05 -7.18871e-07 -2.63498e-06)
(-1.9593e-05 -6.57336e-06 -9.26434e-07)
(-5.85462e-05 1.20827e-06 -7.62218e-06)
(-4.45254e-05 4.27125e-06 -6.13907e-06)
(-5.61949e-05 -2.65484e-07 -7.69317e-06)
(-4.38442e-05 -6.42205e-06 -4.05315e-06)
(-3.87813e-05 -1.42627e-05 -3.06886e-06)
(-2.95143e-05 -1.07898e-05 -1.30082e-06)
(-4.35081e-05 -8.50487e-06 -4.58494e-06)
(-3.37763e-05 -1.03457e-05 -2.38243e-06)
(-3.63997e-05 -1.14154e-05 -2.827e-06)
(-2.66942e-05 -9.95023e-06 -1.0025e-06)
(-4.61664e-05 2.95163e-06 -1.81218e-06)
(-3.67083e-05 2.94851e-06 -2.7737e-06)
(-3.68539e-05 2.78105e-07 -2.01897e-06)
(-4.0433e-05 -6.53109e-06 -5.62831e-06)
(-4.01776e-05 -1.56533e-05 -3.93504e-06)
(-2.93311e-05 -4.3176e-07 -3.58391e-06)
(-2.86885e-05 -1.0583e-05 -2.59865e-06)
(-2.78143e-05 -9.98946e-06 -1.42589e-06)
(-2.46538e-05 -1.09607e-05 -8.86164e-07)
(-3.27162e-05 -5.69173e-06 -2.35075e-06)
(-2.81945e-05 -9.7015e-06 -1.91567e-06)
(-4.18796e-05 -1.49991e-05 -5.08769e-06)
(-4.13756e-05 -4.62758e-06 -4.09134e-06)
(-3.57961e-05 -7.54733e-06 -3.87255e-06)
(-3.51663e-05 -1.3726e-05 -4.16404e-06)
(-4.18499e-05 -9.17189e-06 -5.00839e-06)
(-3.43765e-05 -1.4081e-05 -4.40531e-06)
(-3.82264e-05 -1.43207e-05 -4.18258e-06)
(-3.32625e-05 1.22178e-06 -3.55085e-07)
(-2.17352e-05 1.11236e-06 -3.25435e-06)
(-3.66342e-05 -8.64823e-06 1.95122e-06)
(-2.62846e-05 -8.75219e-06 -2.93242e-07)
(-3.34511e-05 -1.58632e-05 4.66549e-07)
(-3.0596e-05 -7.57792e-06 -5.5696e-06)
(-4.31119e-05 -1.65914e-05 -5.60974e-06)
(-1.97425e-05 5.83321e-06 -4.59116e-06)
(-3.74045e-05 -4.18395e-06 -6.04712e-06)
(-2.61386e-05 -4.10616e-06 -1.41226e-06)
(-2.23378e-05 -5.30225e-06 -6.06419e-07)
(-2.79498e-05 -1.50891e-05 6.73388e-07)
(-3.4147e-05 -9.98813e-06 -3.25797e-07)
(-3.3297e-05 -1.58546e-05 3.76392e-07)
(-3.13215e-05 -1.53759e-05 1.12913e-06)
(-1.34526e-05 -4.03608e-06 -2.46992e-06)
(-1.54584e-05 1.26526e-06 -2.56031e-06)
(-5.68262e-05 -8.92826e-06 -7.72645e-06)
(-4.79505e-05 -1.55551e-05 -5.0557e-06)
(-4.07798e-05 -1.00325e-05 -4.15992e-06)
(-6.0915e-05 -6.19528e-07 -7.72457e-06)
(-4.54689e-05 4.62226e-06 -5.97102e-06)
(-4.75142e-05 -9.8328e-06 -5.32046e-06)
(-4.60197e-05 -1.40634e-05 -5.46485e-06)
(-3.92664e-05 -1.11872e-05 -4.61518e-06)
(-5.01042e-05 -9.00973e-06 -7.37515e-06)
(-5.59106e-05 2.34658e-06 -7.48817e-06)
(-4.23235e-05 4.1527e-06 -6.11308e-06)
(-3.52253e-05 -1.04226e-05 2.08388e-06)
(-3.81145e-05 -7.39843e-06 1.77809e-06)
(-3.9373e-05 -1.56292e-05 -5.14775e-06)
(-3.24383e-05 -1.55969e-05 -4.11403e-06)
(-4.98107e-05 2.01571e-06 -7.28638e-06)
(-3.66159e-05 -6.18145e-08 -5.82422e-06)
(-3.17991e-05 -7.81633e-07 -4.04175e-07)
(-3.23074e-05 -1.41607e-05 2.00332e-06)
(-3.3298e-05 -5.67291e-06 8.85206e-07)
(-3.4195e-05 7.13482e-06 -2.10709e-06)
(-3.43057e-05 -1.65928e-05 -3.96622e-06)
(-3.92807e-05 -1.78156e-05 -5.35789e-06)
(-4.69226e-05 1.11154e-06 -7.71717e-06)
(-5.21705e-05 -1.01659e-05 -6.93821e-06)
(-2.03508e-05 -8.87281e-07 -3.1958e-06)
(-2.1862e-05 -1.42918e-05 -3.23756e-07)
(-2.17614e-05 -5.82502e-06 -1.95199e-06)
(-1.81996e-05 2.59668e-06 -4.42938e-06)
(-2.43797e-05 7.16165e-06 -4.51969e-06)
(-3.72436e-05 1.06126e-05 -2.26922e-06)
(-3.75715e-05 6.3769e-06 -6.69549e-07)
(-4.70072e-05 6.68695e-06 -3.66274e-06)
(-3.46567e-05 3.13581e-06 -3.86895e-07)
(-3.60758e-05 -1.87036e-06 7.29588e-07)
(-4.63767e-05 -2.82921e-06 -3.09467e-07)
(-5.9146e-05 -1.11917e-05 -7.13469e-06)
(-4.38188e-05 -1.18063e-05 -4.19152e-06)
(-5.00919e-05 -1.80739e-05 -5.52963e-06)
(-5.86582e-05 -2.28272e-06 -7.59116e-06)
(-4.88581e-05 -1.10973e-05 -5.25668e-06)
(-4.29011e-05 -1.18534e-05 -4.73564e-06)
(-4.83825e-05 -1.54986e-05 -6.06129e-06)
(-5.35464e-05 1.19405e-06 -7.79893e-06)
(-2.73541e-05 1.06517e-05 -4.39401e-06)
(-2.60672e-05 6.28517e-06 -3.00316e-06)
(-2.50295e-05 7.9477e-06 -4.23449e-06)
(-3.91041e-05 6.8047e-06 -4.32461e-06)
(-2.31483e-05 2.99997e-06 -3.22965e-06)
(-2.45919e-05 -2.01962e-06 -1.81721e-06)
(-2.48005e-05 -1.05848e-05 -4.19695e-07)
(-2.16122e-05 7.324e-06 -4.59214e-06)
(-1.88652e-05 2.74267e-06 -2.16043e-06)
(-3.69671e-05 -2.85855e-06 -1.16603e-06)
(-2.78869e-05 -7.46583e-06 -1.27688e-07)
(-2.66784e-05 -1.19031e-05 -5.46135e-07)
(-2.41176e-05 -1.06476e-05 -6.23686e-08)
(-2.24752e-05 -1.13124e-05 5.86165e-08)
(-3.66991e-05 -7.05457e-06 -3.36513e-06)
(-3.28273e-05 -6.5118e-06 -2.97363e-06)
(-3.18901e-05 -8.97014e-06 -1.5284e-06)
(-3.93801e-05 -5.33441e-06 -2.0407e-06)
(-3.20087e-05 -7.72696e-06 -2.05122e-06)
(-3.6728e-05 3.32497e-06 -3.40674e-06)
(-3.42403e-05 -1.15781e-05 -4.40408e-07)
(-3.42598e-05 -1.13813e-05 -6.32414e-07)
(-3.69804e-05 -4.75609e-06 -5.71127e-07)
(-3.81489e-05 -1.47008e-05 3.93092e-07)
(-2.62707e-05 -1.09264e-05 -1.00911e-06)
(-2.77857e-05 -1.22004e-05 -1.75672e-06)
(-2.40099e-05 -1.11707e-05 -8.44258e-07)
(-3.61415e-05 -6.96037e-06 -3.77513e-06)
(-3.53129e-05 -5.13477e-06 -1.84975e-06)
(-2.91752e-05 -8.21217e-06 -2.40981e-06)
(-3.10124e-05 -7.36787e-06 -2.10483e-06)
(-2.91105e-05 -1.09424e-05 -5.0994e-07)
(-3.19897e-05 -1.10142e-05 -3.99338e-08)
(-3.40407e-05 -1.43309e-05 1.07517e-06)
(-6.45797e-05 6.3827e-07 -8.98457e-06)
(-5.70771e-05 5.01187e-06 -8.89895e-06)
(-5.38823e-05 5.00576e-06 -8.77793e-06)
(-3.42652e-05 1.04261e-05 -3.4216e-06)
(-5.49271e-05 3.82918e-06 -8.21171e-06)
(-2.64018e-05 1.04587e-05 -5.18697e-06)
(-4.05795e-05 1.62861e-05 -3.73209e-06)
(-3.58568e-05 1.20536e-05 -3.40507e-06)
(-6.56516e-05 -1.19703e-06 -7.98883e-06)
(-5.86116e-05 3.94514e-06 -8.28516e-06)
(-3.26765e-05 1.63543e-05 -4.93412e-06)
(-2.79857e-05 1.2093e-05 -5.18802e-06)
(-4.29943e-05 -3.38776e-06 -4.97401e-06)
(-4.30146e-05 5.26255e-06 -4.64914e-06)
(-4.07414e-05 -6.70318e-06 1.45297e-07)
(-4.29824e-05 -3.69959e-06 -4.95826e-06)
(-3.96295e-05 5.27683e-06 -4.66931e-06)
(-3.58072e-05 -6.70292e-06 1.05238e-07)
(-6.30246e-05 2.57925e-06 -9.12749e-06)
(-6.03736e-05 4.42289e-06 -9.04444e-06)
(-3.90282e-05 1.51626e-05 -3.6334e-06)
(-3.74557e-05 1.375e-05 -3.45965e-06)
(-6.46571e-05 5.1393e-07 -8.20479e-06)
(-6.18908e-05 2.7176e-06 -8.28147e-06)
(-3.10719e-05 1.51907e-05 -4.99068e-06)
(-2.95261e-05 1.37966e-05 -5.13722e-06)
(-4.07775e-05 4.85332e-06 -2.79599e-06)
(-4.12838e-05 -1.71775e-07 -1.22421e-06)
(-3.59569e-05 4.85978e-06 -3.00215e-06)
(-3.54787e-05 -1.62079e-07 -1.55447e-06)
(-4.00396e-05 1.93142e-05 -4.52128e-06)
(-4.46794e-05 1.14394e-05 -6.01524e-06)
(-3.73977e-05 1.68056e-05 -4.35728e-06)
(-3.46983e-05 1.92912e-05 -5.29783e-06)
(-3.89192e-05 8.65483e-06 -5.03834e-06)
(-3.38277e-05 1.36376e-05 -4.23764e-06)
(-3.33338e-05 1.26118e-05 -5.46125e-06)
(-2.84692e-05 1.36577e-05 -5.44512e-06)
(-3.73036e-05 -3.2149e-06 1.45952e-07)
(-4.07827e-05 -6.57366e-06 1.39706e-06)
(-3.3809e-05 -6.58215e-06 3.77644e-07)
(-3.70946e-05 -7.93787e-06 8.75436e-07)
(-3.70152e-05 1.69791e-05 -4.31875e-06)
(-3.69476e-05 1.56995e-05 -5.4944e-06)
(-3.15713e-05 1.70036e-05 -5.35764e-06)
(-3.73597e-05 1.01893e-05 -2.85393e-06)
(-3.73249e-05 3.59454e-06 -1.3523e-06)
(-4.10112e-05 6.92942e-06 -1.51015e-06)
(-3.36612e-05 6.94305e-06 -2.69202e-06)
(-3.72694e-05 5.05623e-06 -2.10083e-06)
(-5.93438e-05 -9.19405e-06 -8.05803e-06)
(-7.73657e-05 -1.23219e-05 -1.08749e-05)
(-5.36975e-05 -8.09775e-07 -7.44814e-06)
(-5.73128e-05 -1.02458e-05 -7.23124e-06)
(-5.76751e-05 -7.66996e-06 -8.1201e-06)
(-5.32964e-05 -7.26654e-06 -7.8151e-06)
(-7.14878e-05 -5.6289e-06 -1.07951e-05)
(-4.98257e-05 4.59317e-07 -7.48983e-06)
(-4.98152e-05 -9.75899e-06 -7.6215e-06)
(-6.28523e-05 -3.65285e-06 -1.03533e-05)
(-4.28928e-05 -3.08473e-06 -7.05413e-06)
(-3.18859e-05 -4.08093e-06 2.27467e-07)
(-3.18482e-05 -1.09965e-05 1.39558e-06)
(-3.25947e-05 -6.60336e-06 8.60193e-07)
(-3.38576e-05 6.61833e-06 -3.30183e-06)
(-3.18301e-05 2.41612e-06 -1.14133e-06)
(-3.3416e-05 6.2279e-06 -2.11086e-06)
(-4.39921e-05 -3.65485e-06 -6.49104e-06)
(-6.4032e-05 -5.77842e-06 -9.30865e-06)
(-5.11823e-05 -1.16154e-05 -6.9288e-06)
(-2.02271e-05 -4.18026e-06 -2.56114e-06)
(-2.07267e-05 -1.11081e-05 -1.14407e-06)
(-2.10377e-05 -6.72057e-06 -1.92551e-06)
(-2.62029e-05 6.73276e-06 -5.19469e-06)
(-2.09384e-05 2.37324e-06 -3.82215e-06)
(-2.35849e-05 6.27089e-06 -4.51406e-06)
(-4.10199e-05 1.24064e-05 -3.67105e-06)
(-3.79911e-05 1.1328e-05 -2.35176e-06)
(-3.76891e-05 9.51911e-06 -1.42131e-06)
(-3.9954e-05 1.18832e-05 -2.53763e-06)
(-3.46918e-05 -7.12696e-06 1.46735e-06)
(-3.39997e-05 -4.65006e-06 8.93738e-07)
(-3.47256e-05 -1.53641e-07 2.59485e-07)
(-3.53905e-05 -2.68087e-06 8.1169e-07)
(-3.74227e-05 1.03873e-05 -3.33742e-06)
(-3.49539e-05 8.05497e-06 -2.10526e-06)
(-3.64849e-05 9.82559e-06 -2.18437e-06)
(-3.47362e-05 6.26733e-06 -1.13428e-06)
(-3.75488e-05 -3.96933e-06 1.169e-06)
(-3.76164e-05 3.01521e-06 -2.68212e-08)
(-3.67745e-05 -1.09455e-06 6.50068e-07)
(-3.88293e-05 -8.53973e-08 4.86498e-07)
(-5.52517e-05 -2.4532e-06 -6.63559e-06)
(-6.16497e-05 -1.18671e-05 -7.24595e-06)
(-7.97528e-05 -1.58268e-05 -9.29817e-06)
(-5.91757e-05 -1.24959e-05 -6.57501e-06)
(-5.15405e-05 -4.03212e-07 -6.89281e-06)
(-5.59667e-05 -8.11048e-06 -7.33783e-06)
(-5.99639e-05 -9.7531e-06 -7.44863e-06)
(-7.38559e-05 -8.12249e-06 -9.57589e-06)
(-3.3374e-05 1.24966e-05 -5.01934e-06)
(-2.80816e-05 1.1382e-05 -4.33198e-06)
(-2.67034e-05 9.49233e-06 -3.62096e-06)
(-3.02495e-05 1.1961e-05 -4.26081e-06)
(-2.24525e-05 -4.78878e-06 -1.96543e-06)
(-2.30279e-05 -2.79735e-07 -2.61047e-06)
(-2.38602e-05 -2.80827e-06 -1.89595e-06)
(-2.3576e-05 -7.26904e-06 -1.23236e-06)
(-2.51206e-05 8.09316e-06 -4.52874e-06)
(-2.97664e-05 1.05179e-05 -5.22185e-06)
(-2.66047e-05 9.87263e-06 -4.4668e-06)
(-2.37768e-05 6.21024e-06 -3.84291e-06)
(-2.59716e-05 2.92899e-06 -2.36913e-06)
(-2.52966e-05 -1.21378e-06 -1.74668e-06)
(-2.74928e-05 -1.39285e-07 -1.62323e-06)
(-2.65713e-05 -4.05587e-06 -9.54552e-07)
(-3.82163e-05 -8.51426e-06 -3.58758e-06)
(-3.4993e-05 -7.89843e-06 -3.02327e-06)
(-3.24197e-05 -6.65475e-06 -2.68624e-06)
(-4.39222e-05 -1.82826e-06 -3.69171e-06)
(-3.81602e-05 -5.56794e-06 -3.52697e-06)
(-3.94325e-05 -4.29894e-06 -2.67708e-06)
(-3.87673e-05 8.493e-07 -3.50523e-06)
(-4.48685e-05 -7.85713e-06 -8.5251e-07)
(-4.02582e-05 -6.90095e-06 -1.47648e-06)
(-3.93796e-05 -6.24219e-06 -7.51449e-07)
(-3.93753e-05 -1.22096e-05 -2.02256e-07)
(-3.90998e-05 -9.07643e-06 -3.97726e-06)
(-3.33209e-05 -6.63162e-06 -3.15465e-06)
(-3.53751e-05 -8.09727e-06 -3.51172e-06)
(-3.9203e-05 -1.72528e-06 -3.76632e-06)
(-3.6362e-05 9.55629e-07 -3.41698e-06)
(-3.62957e-05 -5.36686e-06 -3.81117e-06)
(-3.57111e-05 -4.11617e-06 -2.55842e-06)