/*--------------------------------*- C++ -*----------------------------------*\
| =========                 |                                                 |
| \\      /  F ield         | OpenFOAM: The Open Source CFD Toolbox           |
|  \\    /   O peration     | Version:  2012                                  |
|   \\  /    A nd           | Website:  www.openfoam.com                      |
|    \\/     M anipulation  |                                                 |
\*---------------------------------------------------------------------------*/
FoamFile
{
    version     2.0;
    format      ascii;
    class       volVectorField;
    location    "0.107/fluid";
    object      U_0;
}
// * * * * * * * * * * * * * * * * * * * * * * * * * * * * * * * * * * * * * //

dimensions      [0 1 -1 0 0 0 0];


internalField   nonuniform List<vector> 
16422
(
(1.19997 4.2071e-06 7.61151e-06)
(1.19996 7.42205e-05 9.56735e-05)
(1.1998 0.000131226 0.000126969)
(1.19998 0.000184261 0.000157359)
(1.20005 0.00026757 0.000215504)
(1.20009 0.000394874 0.00031048)
(1.20013 0.000587526 0.000455893)
(1.20021 0.000874924 0.000673915)
(1.20035 0.00130307 0.00100041)
(1.20058 0.00192621 0.00146116)
(1.20096 0.00280197 0.00211838)
(1.20158 0.00397925 0.0030562)
(1.20225 0.00562162 0.00447426)
(1.20189 0.00954048 0.00712055)
(1.20729 0.0290821 0.0116309)
(1.19997 1.91389e-06 7.4474e-06)
(1.19997 5.03364e-05 9.33638e-05)
(1.19982 9.55551e-05 0.000121091)
(1.20004 0.000140086 0.000148256)
(1.20014 0.000203864 0.000199386)
(1.20023 0.000299373 0.00028137)
(1.20035 0.000444226 0.000405335)
(1.20054 0.000655169 0.000582138)
(1.20083 0.000964938 0.00083437)
(1.20126 0.00141176 0.00117351)
(1.20191 0.00203112 0.00161854)
(1.20289 0.00288263 0.00218453)
(1.20436 0.00409081 0.00285777)
(1.20686 0.00579907 0.00348144)
(1.2117 0.00609448 0.00327783)
(1.19997 -6.0348e-06 7.26722e-06)
(1.19998 -3.77613e-06 9.06461e-05)
(1.19985 3.5429e-05 0.000117858)
(1.20008 6.20243e-05 0.000142408)
(1.2002 9.75645e-05 0.000189434)
(1.20032 0.00015022 0.000263606)
(1.20049 0.000222221 0.000372453)
(1.20075 0.000330495 0.000523826)
(1.20112 0.000484342 0.000728422)
(1.20167 0.000703978 0.000987983)
(1.20249 0.00100709 0.00129826)
(1.20367 0.00140747 0.00162907)
(1.20534 0.00188983 0.00189324)
(1.20763 0.00224 0.00189116)
(1.21001 0.00147907 0.00135075)
(1.19997 4.10778e-06 6.63525e-06)
(1.19997 7.13815e-05 8.72047e-05)
(1.19982 0.000124 0.000123256)
(1.20004 0.00017468 0.000152648)
(1.20014 0.000249195 0.000207441)
(1.20022 0.000362465 0.000298251)
(1.20033 0.000528601 0.000438406)
(1.2005 0.000770043 0.000646631)
(1.20076 0.00111873 0.000951628)
(1.20117 0.00160535 0.00138713)
(1.2018 0.00225014 0.00198557)
(1.20278 0.00304447 0.00281)
(1.20423 0.00393168 0.00401042)
(1.20658 0.00495979 0.00604701)
(1.21294 0.00575524 0.00885268)
(1.19997 1.81624e-06 6.53495e-06)
(1.19997 4.82606e-05 8.59495e-05)
(1.19985 8.94745e-05 0.000116126)
(1.20009 0.000131568 0.000143156)
(1.20022 0.000189873 0.000191734)
(1.20034 0.000275487 0.000271339)
(1.20051 0.000401305 0.000387427)
(1.20077 0.00057925 0.000559141)
(1.20114 0.000828114 0.000797044)
(1.20168 0.00117126 0.00111618)
(1.20247 0.00161877 0.00152465)
(1.20357 0.00216795 0.00202596)
(1.20513 0.00278954 0.0025985)
(1.20741 0.00331335 0.00307684)
(1.21049 0.00257076 0.00277273)
(1.19997 -6.14976e-06 6.40139e-06)
(1.19998 -6.33114e-06 8.44217e-05)
(1.19987 3.37391e-05 0.0001123)
(1.20012 5.74424e-05 0.000137127)
(1.20027 9.0043e-05 0.000181121)
(1.20042 0.000136267 0.000252652)
(1.20064 0.000200428 0.000357389)
(1.20094 0.000292919 0.000505099)
(1.20138 0.000414431 0.000698428)
(1.202 0.000581928 0.000942565)
(1.20286 0.000800182 0.0012312)
(1.20403 0.00105596 0.00152842)
(1.20556 0.00131131 0.00175284)
(1.20743 0.00140366 0.00172087)
(1.20916 0.000847988 0.0011906)
(1.19997 4.03043e-06 3.75106e-06)
(1.19997 6.99326e-05 5.77484e-05)
(1.19986 0.00011788 9.0217e-05)
(1.2001 0.000164913 0.000119755)
(1.20022 0.000234481 0.00015976)
(1.20034 0.000334272 0.000229583)
(1.2005 0.000476847 0.000335601)
(1.20074 0.000680209 0.000497368)
(1.2011 0.0009593 0.000724413)
(1.20165 0.00133181 0.00104642)
(1.20247 0.00178685 0.001484)
(1.20366 0.00227968 0.00203706)
(1.20538 0.00267118 0.00266638)
(1.20782 0.00266781 0.00314396)
(1.21085 0.00176793 0.00254058)
(1.19997 1.68648e-06 3.64726e-06)
(1.19998 4.70321e-05 5.59461e-05)
(1.19988 8.49579e-05 8.54867e-05)
(1.20014 0.000123179 0.000110587)
(1.20029 0.000177058 0.000148245)
(1.20045 0.000254491 0.000207361)
(1.20066 0.000363563 0.000297964)
(1.20096 0.000513957 0.00042925)
(1.2014 0.000713273 0.000606749)
(1.20203 0.000969869 0.000844151)
(1.2029 0.00127882 0.00114501)
(1.20407 0.0015998 0.00148388)
(1.2056 0.00184017 0.00179855)
(1.20747 0.00180106 0.00188772)
(1.20929 0.00108725 0.0013479)
(1.19997 -6.23858e-06 3.56419e-06)
(1.19999 -7.18427e-06 5.51896e-05)
(1.1999 3.06857e-05 8.24903e-05)
(1.20017 5.3319e-05 0.000104681)
(1.20034 8.26482e-05 0.000139497)
(1.20051 0.000124216 0.000193377)
(1.20076 0.000182632 0.00027458)
(1.20111 0.000261103 0.000386673)
(1.2016 0.000355827 0.00053395)
(1.20227 0.000481378 0.000718189)
(1.20316 0.000629768 0.000930837)
(1.20431 0.000777249 0.00113742)
(1.20569 0.000876244 0.00126944)
(1.20719 0.000823451 0.0011911)
(1.20843 0.000455438 0.000752861)
(1.19997 4.03776e-06 -4.91819e-06)
(1.19998 6.98339e-05 4.98389e-06)
(1.19988 0.000114858 3.50996e-05)
(1.20013 0.000158721 5.49666e-05)
(1.20028 0.000225674 7.83433e-05)
(1.20042 0.000315496 0.000111734)
(1.20062 0.000444657 0.000168265)
(1.2009 0.000622874 0.000250981)
(1.20133 0.000854566 0.000364301)
(1.20195 0.00115396 0.00052787)
(1.20286 0.00149004 0.000744824)
(1.20412 0.00180456 0.000994957)
(1.20579 0.00196531 0.00122424)
(1.20777 0.00175993 0.00126761)
(1.20956 0.000987029 0.000818734)
(1.19997 1.57404e-06 -4.99361e-06)
(1.19999 4.63671e-05 2.90107e-06)
(1.1999 8.26536e-05 3.24548e-05)
(1.20017 0.000117661 5.03612e-05)
(1.20034 0.000169347 7.13486e-05)
(1.20052 0.000241017 9.90141e-05)
(1.20076 0.000339833 0.000148035)
(1.2011 0.000470489 0.000216098)
(1.20158 0.000639404 0.000302465)
(1.20225 0.00084192 0.000423803)
(1.20317 0.00106652 0.00057598)
(1.20435 0.00126091 0.000730703)
(1.20579 0.00133602 0.00084572)
(1.20732 0.00116208 0.000820974)
(1.20858 0.000623166 0.00050941)
(1.19997 -6.31196e-06 -4.98037e-06)
(1.2 -7.80841e-06 1.32896e-06)
(1.19992 2.8624e-05 3.08036e-05)
(1.2002 5.0346e-05 4.70442e-05)
(1.20038 7.78429e-05 6.70947e-05)
(1.20057 0.000117416 9.2335e-05)
(1.20084 0.000170124 0.000134143)
(1.20122 0.000238238 0.000193169)
(1.20174 0.000318694 0.000264052)
(1.20244 0.000418622 0.000359395)
(1.20334 0.000524163 0.000472319)
(1.20447 0.000610686 0.000568546)
(1.20575 0.000637899 0.000617773)
(1.20702 0.000542787 0.000560534)
(1.20799 0.000276877 0.000333036)
(1.18623 0.051572 0.0124559)
(1.30391 -0.0514921 -0.00866779)
(1.18844 0.0465603 0.0167829)
(1.29757 -0.0501417 0.00930469)
(1.21264 0.0103288 0.0149726)
(1.23791 -0.000822247 -0.0031793)
(1.1986 0.0100354 0.00754279)
(1.19176 0.0286475 0.0112567)
(1.20681 0.0329943 0.00940807)
(1.27091 0.01783 0.00108023)
(1.21508 0.0107501 0.00340748)
(1.22548 0.00180947 -0.000234606)
(1.19987 0.00911131 0.0081949)
(1.19407 0.0256157 0.0140675)
(1.20511 0.00583566 0.00779917)
(1.20879 0.0086619 0.0130744)
(1.13169 -0.0216743 0.0247687)
(1.14763 -0.0168204 0.0441037)
(1.26453 0.0167683 -0.00289038)
(1.21447 0.00945889 0.00374764)
(1.22356 0.00131063 -0.000298057)
(1.2122 0.00940462 0.0112101)
(1.2265 4.51218e-05 -0.000598598)
(1.21252 0.00471033 0.00352444)
(1.21672 0.000917456 -0.00051205)
(1.21417 0.00563181 0.0112002)
(1.22499 -0.00241827 -0.000425865)
(1.21207 0.00216266 0.00375672)
(1.21472 -0.000164933 -3.70617e-05)
(1.12708 -0.0244136 0.0169684)
(1.12614 0.0321606 0.0161806)
(1.20133 0.0837199 0.0124137)
(1.26355 0.0838557 0.0126269)
(1.1308 0.0291474 0.0239144)
(1.20053 0.0780772 0.019443)
(1.19296 0.0378883 0.0262209)
(1.14684 0.0238345 0.0426838)
(1.20331 0.0669439 0.0370704)
(1.25917 0.0813664 0.0122322)
(1.27923 -0.0118086 0.00330172)
(1.25265 0.0608364 0.0355237)
(1.19496 -0.0217308 0.535173)
(1.20928 -0.00238884 0.0242674)
(1.19801 -0.00695265 0.0435606)
(1.21933 -0.00626294 0.0305292)
(0.921679 -0.0050367 0.377637)
(1.24712 -0.00151461 -0.0132637)
(0.620527 -0.0364203 -0.0670631)
(1.2374 -0.00484709 0.0156191)
(1.20209 0.0197129 0.532449)
(1.21144 0.0177229 0.0246598)
(1.20871 0.00860636 0.0234447)
(1.21998 0.012047 0.0156367)
(1.19725 0.0134737 0.0423148)
(1.22285 0.0245402 0.0342812)
(1.21827 0.0105105 0.0297966)
(0.932052 0.00625979 0.376704)
(1.25771 -0.0197491 0.000122003)
(1.2452 0.000642063 -0.0126504)
(1.23128 0.0083084 0.00956401)
(0.640177 0.00487526 -0.0695849)
(1.24141 0.0257413 0.0306938)
(1.23576 0.00665256 0.0154215)
(1.10406 -0.106518 0.0480151)
(1.13884 -0.126071 0.0905674)
(1.11804 -0.0633424 0.113503)
(1.1351 -0.164484 0.056624)
(1.12216 -0.0743094 0.0699097)
(1.12066 -0.0911542 0.0694591)
(1.09896 -0.118164 0.0372091)
(1.13346 -0.192221 0.0242538)
(1.10917 -0.0860142 0.028521)
(1.09415 -0.122849 0.021699)
(1.13178 -0.186478 0.03829)
(1.11125 -0.082181 0.0428834)
(1.13683 -0.196934 0.0202752)
(1.10848 -0.0878993 0.0222519)
(1.09539 -0.126518 0.0234703)
(1.11495 0.0922389 0.0212385)
(1.13336 0.200188 0.0194026)
(1.09479 0.131188 0.0225154)
(1.54056 -0.118213 -0.0351039)
(1.55395 0.0203328 -0.0207333)
(1.26436 0.246746 0.0154521)
(1.50881 0.0837488 -0.0120328)
(1.10337 0.111149 0.0466186)
(1.12229 0.0678615 0.112534)
(1.13656 0.129601 0.0896084)
(1.12775 0.0785432 0.0692333)
(1.13189 0.168171 0.0558023)
(1.11979 0.0954966 0.068126)
(1.09832 0.122854 0.0362151)
(1.11553 0.090331 0.0283621)
(1.12995 0.195951 0.0234223)
(1.11719 0.0864573 0.0418948)
(1.09366 0.127709 0.020823)
(1.12838 0.190123 0.0376136)
(1.47391 0.0750734 0.0653265)
(1.22177 0.155514 0.108974)
(1.24883 0.221532 0.0518939)
(1.39771 0.0677698 0.0860169)
(1.52706 0.0238722 0.00214255)
(1.53602 -0.118601 0.0343088)
(1.5491 0.0198356 0.0420196)
(1.51188 -0.107986 -0.0204777)
(1.48318 0.0839767 0.0108503)
(1.26036 0.244534 0.0234232)
(1.50376 0.0831679 0.0385427)
(1.25305 0.235749 0.0380745)
(1.5178 0.0164019 0.0664074)
(1.42718 -0.0112571 0.0252027)
(1.42941 0.0367045 0.0778255)
(1.50514 -0.108684 0.0449539)
(1.21104 -0.0176002 0.0561201)
(1.2117 -0.0295623 0.0929838)
(1.19923 -0.0204536 0.100589)
(1.22708 -0.0090924 0.0820422)
(1.1942 -0.0306023 0.0678313)
(1.21942 -0.0184612 0.0637254)
(1.20794 -0.00598552 0.0615454)
(1.26655 0.00670339 0.0273758)
(0.0664072 -0.0536576 -0.105345)
(1.26736 -0.00296377 0.0680061)
(1.24152 -0.0119047 0.0513899)
(1.30994 0.00881401 0.0400119)
(1.2749 0.0262111 0.00189963)
(0.123511 -0.0444329 -0.107268)
(1.28331 0.0260196 -0.00745792)
(1.30326 0.0240589 0.02189)
(1.27018 0.0355239 -0.021115)
(1.20922 0.0221759 0.0549098)
(1.19899 0.0248064 0.0995333)
(1.20906 0.0333404 0.0919234)
(1.22657 0.0123265 0.0808328)
(1.19275 0.0348675 0.0666854)
(1.20735 0.0107404 0.060169)
(1.21711 0.0216033 0.0624618)
(1.26334 -0.00672696 0.0281025)
(0.0808778 0.0358821 -0.10317)
(1.22862 0.0539755 0.108607)
(1.26591 0.00472132 0.0676471)
(1.30667 -0.00519751 0.0853002)
(1.30743 -0.00911988 0.0404857)
(1.23844 0.01344 0.051212)
(1.27132 -0.0275386 0.00365176)
(0.138533 0.0221998 -0.106245)
(1.3089 -0.00978559 -0.0143758)
(1.28076 -0.0302426 -0.00688081)
(1.31818 -0.0129754 0.0688566)
(1.3001 -0.0262772 0.022265)
(1.26683 -0.0379783 -0.0185354)
(1.09654 -0.125711 0.115642)
(1.06457 -0.450422 0.264588)
(0.924156 -0.076262 0.18141)
(1.0674 -0.555479 0.135058)
(0.829482 -0.100452 0.12282)
(1.10792 -0.115317 0.125923)
(1.07033 -0.178473 0.0333894)
(1.0701 -0.616582 0.0106025)
(0.794915 -0.124574 0.0108726)
(1.07852 -0.177904 0.0233967)
(1.06127 -0.614542 0.0511614)
(0.788781 -0.124742 0.0462974)
(0.569359 0.106764 -0.0933378)
(0.582821 0.110395 -0.0767387)
(1.11855 -0.0642248 -0.357897)
(0.593449 0.113939 -0.229028)
(1.07159 -0.182113 0.0182936)
(1.07081 -0.619071 0.0382405)
(0.794726 -0.125392 0.0382391)
(1.07915 -0.180803 0.0259662)
(1.06605 -0.621126 0.000713004)
(0.786634 -0.127138 0.00372342)
(0.480133 0.0503366 -0.0700651)
(0.511024 0.0866276 -0.0188433)
(0.490225 0.0855453 -0.0715356)
(0.501226 0.049734 -0.0137817)
(0.795767 -0.144828 0.0231728)
(1.30051 -0.795813 0.0443604)
(1.2975 -0.800518 -0.00517068)
(0.796174 -0.144352 -0.0129248)
(1.07492 0.174324 0.0180296)
(0.788737 0.131237 0.0385725)
(1.07099 0.612081 0.0375529)
(0.78029 0.132933 0.00178238)
(1.06639 0.613962 -0.000467963)
(1.08271 0.173085 0.0238323)
(0.467441 -0.0441369 -0.0680408)
(0.504033 -0.0808103 -0.0200723)
(0.482742 -0.0797064 -0.0699445)
(0.487292 -0.0434135 -0.0145689)
(0.774934 0.156276 0.0216759)
(1.28885 0.798838 0.0431596)
(1.2863 0.802824 -0.00583515)
(0.774274 0.156286 -0.0131556)
(0.598225 0.110962 -0.0238067)
(0.572806 0.109159 -0.0774677)
(0.594518 -0.106191 -0.0236554)
(0.569005 -0.104574 -0.076387)
(0.770382 -0.139347 0.0791167)
(1.26063 -0.521585 0.279562)
(1.26839 -0.751267 0.132343)
(0.939102 -0.155378 0.093098)
(0.477321 0.0514707 -0.0542778)
(0.484314 0.0835242 -0.0854774)
(0.495516 0.0871717 -0.0663934)
(0.467214 0.0480391 -0.0846214)
(0.777665 -0.140014 -0.00710603)
(1.30143 -0.796495 0.00405483)
(1.28402 -0.789423 0.0595874)
(0.796649 -0.145514 0.0255715)
(0.465883 0.0653109 -0.161498)
(1.04809 -0.036249 -0.309482)
(0.506477 0.0973037 -0.193489)
(1.05446 -0.00216843 -0.257934)
(1.09944 0.120112 0.114414)
(0.919993 0.0803299 0.175697)
(1.06557 0.449056 0.266166)
(0.822571 0.106124 0.117092)
(1.06777 0.553414 0.134344)
(1.11011 0.112824 0.122861)
(1.07325 0.170796 0.0317589)
(0.788611 0.130376 0.00923741)
(1.06995 0.609841 0.00986547)
(0.78218 0.130036 0.0468129)
(1.08199 0.170247 0.0237006)
(1.06079 0.607834 0.0508836)
(0.748346 0.152968 0.0825165)
(1.25552 0.526804 0.28579)
(1.2584 0.759265 0.13452)
(0.92673 0.167701 0.109898)
(0.465345 -0.0453062 -0.0542559)
(0.477395 -0.0772585 -0.0823434)
(0.455042 -0.0417494 -0.0809658)
(0.489573 -0.0807195 -0.0660338)
(0.755514 0.152406 -0.00685871)
(1.28957 0.79982 0.00381297)
(0.77465 0.157724 0.0245416)
(1.27199 0.793212 0.0587476)
(0.461033 -0.0592289 -0.14471)
(1.04877 0.0410602 -0.270459)
(1.0524 0.0089581 -0.221439)
(0.505213 -0.0913969 -0.176499)
(1.22068 -0.0259105 0.117481)
(1.23435 -0.0917562 0.18291)
(1.16944 -0.0235536 0.149858)
(1.2288 -0.015764 0.143743)
(1.19798 -0.0389985 0.136085)
(1.24036 -0.0370239 0.131292)
(1.21 -0.00920312 0.139072)
(1.31956 -0.0127247 0.078149)
(1.27722 -0.140942 0.197231)
(0.218167 -0.0498799 0.0179811)
(1.33694 -0.023556 0.132117)
(1.32967 -0.0753528 0.159146)
(1.27932 -0.0336102 0.114496)
(1.42074 -0.0200981 0.119959)
(1.3255 0.0302668 -0.0969128)
(0.436111 -0.0375728 -0.0810999)
(1.2507 -0.119959 -0.274469)
(1.42063 -0.0357606 -0.105653)
(1.31554 -0.0920206 -0.237121)
(1.44599 -0.0374418 -0.102548)
(1.31458 0.0283756 -0.106892)
(1.21884 0.0283167 0.115295)
(1.16963 0.0261862 0.14557)
(1.23324 0.0911073 0.182132)
(1.2276 0.0175942 0.14041)
(1.19794 0.040279 0.13412)
(1.20991 0.0119958 0.136941)
(1.23771 0.0375217 0.128858)
(1.31775 0.0111582 0.0776146)
(0.233944 0.035043 0.0234754)
(1.27596 0.141026 0.201143)
(1.33402 0.0244705 0.127909)
(1.32786 0.0642646 0.170799)
(1.41882 0.0191447 0.117371)
(1.2769 0.0329597 0.112807)
(1.32186 -0.0366467 -0.0883848)
(0.452813 0.00934927 -0.0827632)
(1.25168 0.0958259 -0.24537)
(1.42058 0.0257583 -0.10443)
(1.31358 0.0697536 -0.210525)
(1.44521 0.0286144 -0.102085)
(1.31128 -0.0353698 -0.0987348)
(0.566294 -0.101822 -0.0904137)
(0.580299 -0.105283 -0.0748973)
(1.12545 0.0665983 -0.319022)
(0.595517 -0.109592 -0.211741)
(1.23449 -0.129714 -0.293375)
(1.23813 0.103756 -0.26371)
(1.0841 -0.154588 0.0870321)
(1.06787 -0.598012 0.0607975)
(0.809202 -0.115008 0.0586337)
(1.08693 -0.158785 0.0670642)
(1.05517 -0.58803 0.124773)
(0.810858 -0.111428 0.102772)
(1.06707 -0.174953 0.0395157)
(1.05875 -0.607789 0.0692516)
(0.79702 -0.121024 0.0648668)
(1.0762 -0.172674 0.0555318)
(1.05678 -0.611683 0.0258317)
(0.786199 -0.124446 0.026463)
(0.561024 0.107348 -0.162307)
(0.543252 0.102801 -0.124643)
(0.519062 0.0998534 -0.19102)
(0.589107 0.128237 -0.238124)
(0.458508 0.0287953 -0.0514638)
(0.586462 -0.026496 -0.00911639)
(0.576062 -0.0254279 -0.0294547)
(0.474366 0.027769 -0.00748038)
(0.789168 -0.126973 0.0175907)
(0.592059 -0.0472059 -0.00891689)
(0.587001 -0.0467708 -0.012995)
(0.789847 -0.127356 -0.0163705)
(0.442843 -0.0213384 -0.0490715)
(0.571064 0.0340979 -0.0104176)
(0.561692 0.0328324 -0.0284644)
(0.457643 -0.0202581 -0.00916865)
(0.768786 0.123042 0.0194191)
(0.576902 0.0576094 -0.0110203)
(0.572647 0.0568415 -0.0120312)
(0.768578 0.123246 -0.0199459)
(0.741173 -0.130386 0.0266604)
(1.28732 -0.781203 0.0540695)
(1.25479 -0.75247 0.150484)
(0.774871 -0.142417 0.0431716)
(0.761761 -0.124865 0.0542838)
(0.804967 -0.053134 -0.0394627)
(0.560309 -0.0451012 -0.0174783)
(0.938873 -0.14671 0.0666572)
(0.726552 -0.114779 0.0098754)
(0.538772 -0.0468424 -0.0273485)
(0.759348 -0.126864 0.0271202)
(0.540124 -0.0354273 -0.0242227)
(0.451233 0.0290706 -0.0339375)
(0.565568 -0.0272119 -0.0379915)
(0.4473 0.0266367 -0.0624979)
(0.559799 -0.0240005 -0.0230789)
(0.433315 0.0492626 -0.108242)
(0.471374 0.0858774 -0.139496)
(0.460101 0.0814564 -0.112312)
(0.44346 0.0502582 -0.110373)
(0.414343 0.0279781 -0.0793358)
(0.5348 -0.0234467 -0.0396128)
(0.528597 -0.0241856 -0.0482358)
(0.423847 0.0275983 -0.069107)
(0.775778 -0.141047 0.0306031)
(1.27655 -0.77945 0.0822288)
(1.28247 -0.791007 0.0197973)
(0.762629 -0.13673 0.000719555)
(0.767689 -0.123432 -0.0135293)
(0.580063 -0.0480804 -0.0182407)
(0.788118 -0.128618 0.0177246)
(0.568714 -0.0445849 -0.0161929)
(0.762685 -0.124344 0.0201118)
(0.548221 -0.0433551 -0.0236567)
(0.749179 -0.121014 -0.00941469)
(0.549637 -0.0452895 -0.0236025)
(0.433403 0.0377695 -0.112052)
(0.871377 -0.0295734 -0.0799525)
(0.542637 -0.0245862 -0.0499686)
(0.934603 0.00745991 -0.184856)
(0.466264 0.0661071 -0.152278)
(0.437625 0.0805737 -0.165172)
(0.500014 0.105046 -0.198145)
(0.401694 0.0490625 -0.143394)
(0.43568 0.0389898 -0.0958249)
(0.509886 -0.0262251 -0.0582631)
(0.532541 -0.0135189 -0.0497908)
(0.3878 0.026553 -0.100713)
(1.08637 0.148439 0.0851524)
(0.802457 0.120853 0.0557301)
(1.06758 0.592891 0.0601304)
(0.804565 0.117053 0.101083)
(1.09005 0.151724 0.0667105)
(1.05507 0.584453 0.12516)
(1.06987 0.167354 0.0391547)
(0.790754 0.126586 0.0644013)
(1.05843 0.601889 0.0689387)
(0.779252 0.129732 0.0241964)
(1.07923 0.165366 0.0532083)
(1.05614 0.605194 0.0248988)
(0.719561 0.143813 0.0302015)
(1.27581 0.78661 0.0545446)
(1.24426 0.759624 0.151761)
(0.752713 0.156007 0.0437666)
(0.743348 0.119985 0.0640971)
(0.808245 0.0620262 -0.00682208)
(0.547827 0.056191 -0.00486372)
(0.928035 0.147094 0.0850489)
(0.708385 0.110302 0.0113319)
(0.525809 0.0578524 -0.0221737)
(0.739845 0.12251 0.0326151)
(0.526938 0.0467715 -0.0191512)
(0.43534 -0.0214039 -0.0341257)
(0.551533 0.0347894 -0.0358028)
(0.43136 -0.0190812 -0.0585448)
(0.546458 0.0313666 -0.023511)
(0.42369 -0.0433092 -0.102932)
(0.466237 -0.0787494 -0.136397)
(0.433684 -0.0445179 -0.109027)
(0.45454 -0.0746344 -0.107233)
(0.3997 -0.0204794 -0.0737113)
(0.523346 0.0306751 -0.0382013)
(0.516997 0.0313895 -0.0446243)
(0.408634 -0.0201418 -0.0674083)
(0.753768 0.153705 0.0301424)
(1.26503 0.784514 0.0818677)
(1.27044 0.794985 0.0196975)
(0.740711 0.149884 0.00209013)
(0.747197 0.118983 -0.0166549)
(0.565554 0.0585367 -0.0160976)
(0.76705 0.124602 0.0204143)
(0.554388 0.0553937 -0.0169585)
(0.742763 0.119971 0.0238687)
(0.534684 0.0545133 -0.0226696)
(0.729864 0.116557 -0.0111955)
(0.536249 0.0560071 -0.0203133)
(0.42351 -0.0301017 -0.0970156)
(0.871183 0.0387419 -0.0491979)
(0.53267 0.0315163 -0.0364612)
(0.928875 0.000416444 -0.157151)
(0.459924 -0.0600416 -0.144203)
(0.432277 -0.0730971 -0.15689)
(0.394098 -0.0433869 -0.135335)
(0.497052 -0.0981543 -0.189636)
(0.423801 -0.0309326 -0.0903611)
(0.499224 0.033427 -0.0524497)
(0.521745 0.0207724 -0.0437777)
(0.374072 -0.0192889 -0.0925135)
(1.34999 0.00754177 0.0326842)
(0.106089 -0.0311323 -0.0254213)
(1.32065 -0.0499836 -0.0408299)
(1.44798 -0.0233098 -0.0109487)
(1.34389 -0.06791 0.130535)
(1.35571 0.020728 -0.0101542)
(1.47204 -0.0203892 0.0605738)
(1.33731 0.0313183 -0.0746396)
(0.361689 -0.037053 -0.087943)
(1.33258 -0.0537194 -0.0943661)
(1.46606 -0.0339543 -0.0652998)
(1.315 -0.0739277 -0.202282)
(1.35014 0.0256564 -0.0470979)
(1.44177 -0.0315345 -0.0853335)
(1.34718 -0.00938413 0.0342048)
(0.125343 0.0177159 -0.0209968)
(1.3264 0.0302068 -0.00895368)
(1.44984 0.018888 -0.0139601)
(1.34055 0.0533117 0.14416)
(1.47054 0.0180889 0.0588307)
(1.35303 -0.0236857 -0.0073986)
(1.33557 -0.0376194 -0.0684386)
(0.37753 0.00825461 -0.0891745)
(1.34578 0.0326064 -0.0627755)
(1.46807 0.0285375 -0.0684535)
(1.31524 0.0520849 -0.178368)
(1.44339 0.0241177 -0.0867887)
(1.34857 -0.0306463 -0.0433799)
(0.55995 -0.102024 -0.158056)
(0.54185 -0.097672 -0.119481)
(0.518718 -0.0944144 -0.183018)
(0.589252 -0.123061 -0.229953)
(1.22059 0.000154031 0.00211892)
(1.21194 0.00347465 0.0030988)
(1.21485 0.000403995 -0.000306136)
(1.21136 0.00221796 0.00337745)
(1.21345 0.000230539 0.000550506)
(1.21021 0.00159732 0.00175719)
(1.21137 9.47328e-05 -0.000131655)
(1.36198 -0.00444923 -0.00502316)
(1.30303 -0.00865307 -0.00183268)
(1.38066 0.0489551 0.000482583)
(1.36101 0.0498406 0.00593817)
(1.35307 -0.00114499 0.000135509)
(1.29637 -0.00857308 0.0124099)
(1.2917 -0.0425257 -0.0028631)
(1.29132 -0.00452919 0.00626905)
(1.37166 0.0496909 0.00900777)
(1.3434 0.0014954 -0.00749617)
(1.25582 0.0446288 0.00620157)
(1.24618 -0.00365567 0.000417918)
(1.23484 0.0179567 0.00369539)
(0.811078 -0.470802 0.355686)
(0.461891 -0.35942 0.420478)
(0.787086 -0.157562 0.562431)
(0.468096 -0.355398 0.28837)
(0.894353 -0.200321 0.428989)
(0.881572 -0.37093 0.46628)
(0.764356 -0.558881 0.0104735)
(0.455308 -0.411381 0.0475678)
(0.78145 -0.233209 0.0549989)
(0.768273 -0.562298 0.0485483)
(0.44846 -0.405767 -0.00482211)
(0.77259 -0.232687 0.00893103)
(1.25104 0.0404296 0.00702253)
(1.25153 0.0122587 0.000965032)
(1.24045 0.0330257 0.0146645)
(1.22836 0.0146885 0.00829601)
(1.24174 -0.0037011 0.000965445)
(1.23194 0.0157476 0.00485873)
(1.23655 0.000680663 0.00333938)
(1.23591 0.000705751 0.00210076)
(1.22294 0.00662979 0.00739563)
(1.23164 0.0115964 0.0147802)
(1.22462 0.00583238 0.00753381)
(1.2235 0.000393813 -0.000263142)
(1.22904 -0.00270995 0.00233904)
(1.22082 0.00470117 0.00382417)
(0.768714 -0.563649 0.0471439)
(0.451996 -0.40915 -0.0127729)
(0.772106 -0.231879 0.00361889)
(0.76495 -0.560546 0.00774797)
(0.45257 -0.409327 0.0405992)
(0.783796 -0.234668 0.0508812)
(0.782474 0.547001 0.0491057)
(0.788519 0.253761 0.00574724)
(0.455834 0.398362 -0.0151605)
(0.802118 0.257921 0.0504347)
(0.456822 0.398511 0.0428079)
(0.777282 0.543177 0.00626636)
(1.2879 0.0492205 0.00669734)
(1.26616 0.125785 0.00994707)
(1.34814 0.0948887 0.00575334)
(0.818923 0.453694 0.350527)
(0.792952 0.159464 0.55342)
(0.463361 0.354424 0.427427)
(0.908666 0.219375 0.41633)
(0.469131 0.344093 0.291755)
(0.884423 0.359962 0.461286)
(0.777081 0.542029 0.00762342)
(0.797838 0.254936 0.0527931)
(0.459083 0.400427 0.0491016)
(0.790193 0.255096 0.00910489)
(0.780471 0.544764 0.0493629)
(0.451838 0.394865 -0.00825476)
(1.33156 0.0919905 0.0178181)
(1.28198 0.047951 0.0118891)
(1.26079 0.123321 0.0224905)
(1.25813 0.0775081 0.0212701)
(1.27894 0.046716 0.0151174)
(1.34011 0.0936488 0.0174969)
(1.2572 0.119488 0.0249407)
(1.33786 0.0427009 0.013601)
(1.28168 -0.0367699 0.0135462)
(1.29643 -0.0152261 -0.0163514)
(1.27932 0.011136 0.0157113)
(1.2809 -0.00225845 0.0205377)
(1.30895 0.0279522 0.0115068)
(1.32083 -0.00122648 -0.00852078)
(1.3135 0.0816752 0.034342)
(1.24053 0.088838 0.0562714)
(1.2504 0.0733277 0.0274348)
(1.26877 0.0412231 0.0270191)
(1.26929 0.0442476 0.0237191)
(1.24909 0.107657 0.0471704)
(1.2901 0.0655657 0.0393872)
(1.26281 -0.03071 0.252167)
(1.17434 -0.106017 0.544922)
(1.15019 -0.0724716 0.545181)
(1.38632 -0.0128685 0.328546)
(1.23051 -0.0797487 0.391622)
(1.29558 -0.00709003 0.289896)
(1.23644 -0.0153514 0.224412)
(1.41027 -0.0169406 0.267246)
(1.08448 -0.0531126 0.454327)
(0.582543 -0.033182 0.215781)
(1.47652 -0.0112171 0.339772)
(0.87306 -0.0378054 0.313857)
(1.41078 -0.00472083 0.302034)
(1.39174 -0.0229398 0.286666)
(1.34316 0.0263328 -0.104395)
(0.563609 -0.0378596 -0.0707012)
(0.804245 -0.00856384 -0.101886)
(1.20645 -0.0121067 -0.0541707)
(0.753031 0.0035892 -0.100453)
(1.20811 -0.00868238 -0.0489079)
(1.33511 0.0193517 -0.110364)
(1.25999 0.032104 0.245815)
(1.15292 0.0692866 0.539475)
(1.17755 0.10069 0.548741)
(1.38687 0.0114929 0.320313)
(1.23108 0.0742221 0.384609)
(1.23702 0.0165388 0.217793)
(1.29246 0.00618009 0.28509)
(1.41603 0.00783567 0.262069)
(0.600344 0.025573 0.218324)
(1.09252 0.0481298 0.461567)
(1.48004 0.00904744 0.331131)
(0.889392 0.0285911 0.318097)
(1.39974 0.0173881 0.279136)
(1.41338 2.13747e-05 0.298766)
(1.26239 -0.00445006 0.00463423)
(1.25173 -0.0225959 -0.0129648)
(1.25591 -0.0322686 -0.0116787)
(1.25882 -0.00817626 0.0127079)
(1.25245 -0.0125966 -0.000916699)
(1.26534 -0.00898166 0.0111545)
(1.25785 -0.0174453 -0.00861831)
(1.34917 -0.0464942 -0.102195)
(0.582871 0.00869859 -0.0730249)
(0.822573 -0.0184102 -0.103465)
(1.22441 0.000229944 -0.0564431)
(0.772135 -0.0309397 -0.10143)
(1.22369 -0.00598717 -0.0496244)
(1.3412 -0.0365537 -0.108477)
(1.25618 0.0104589 0.0210677)
(1.24246 0.0334693 0.0549279)
(1.25081 0.00986066 0.0236794)
(1.24177 0.0146965 0.0234484)
(1.24578 0.00364123 0.0137813)
(1.26163 0.0156501 0.0374276)
(1.24299 0.0211245 0.0341812)
(0.853591 -0.0189906 -0.104059)
(0.871316 -0.00743828 -0.105615)
(0.766443 -0.545578 0.0774706)
(0.456034 -0.407619 0.0715798)
(0.796824 -0.231623 0.104048)
(0.773644 -0.554522 0.0959606)
(0.443546 -0.395562 0.03266)
(0.775057 -0.227572 0.0775385)
(0.765504 -0.558562 0.0787722)
(0.445137 -0.401141 0.0084349)
(0.76455 -0.227972 0.0431114)
(0.758922 -0.550026 0.0473146)
(0.451267 -0.407773 0.0573717)
(0.783575 -0.234214 0.083682)
(1.39971 0.0394451 0.000464436)
(1.37597 0.102906 -0.0185926)
(1.37127 0.102156 -0.00134689)
(1.40396 0.0402008 -0.0147475)
(1.42097 -0.0250944 0.00386139)
(1.44029 -0.0988529 -0.00638808)
(1.43716 -0.100793 0.00803593)
(1.42476 -0.0239304 -0.0108531)
(1.50401 -0.389245 0.0230949)
(1.35992 -0.427829 0.0107954)
(1.36049 -0.435502 0.0267717)
(1.50451 -0.383165 0.00720552)
(1.49208 -0.302982 0.017627)
(1.46119 -0.193903 -0.00167703)
(1.45878 -0.196861 0.0126336)
(1.49362 -0.298664 0.00272311)
(1.39208 -0.0193002 -8.0073e-05)
(1.36911 -0.081502 -0.0180768)
(1.54653 -0.112369 0.0322574)
(1.56912 -0.0870445 -0.0332017)
(1.57531 -0.0800794 0.0369428)
(1.36438 -0.081566 -0.00177181)
(1.39639 -0.0193051 -0.0143631)
(1.4135 0.0471851 0.00290768)
(1.55948 0.0282493 0.0363332)
(1.55539 -0.0295345 -0.025891)
(1.43189 0.1245 -0.00659801)
(1.5608 -0.0223379 0.0344167)
(1.42881 0.125552 0.0069982)
(1.41738 0.0467386 -0.0107998)
(1.49645 0.39989 0.0217589)
(1.35169 0.435781 0.00995772)
(1.267 0.254355 0.0185261)
(1.39422 0.215014 0.00617934)
(1.35241 0.442945 0.0254507)
(1.39723 0.223007 0.0240391)
(1.49684 0.394423 0.00648505)
(1.48655 0.317563 0.0165153)
(1.51328 0.0915741 0.0323772)
(1.4535 0.217297 -0.00216105)
(1.47939 0.141065 -0.0047129)
(1.45116 0.21936 0.0115849)
(1.48347 0.149402 0.0311314)
(1.48807 0.31397 0.00226587)
(1.43459 -0.282517 0.0557235)
(1.42164 -0.195235 0.0385278)
(1.45837 -0.290386 0.0557396)
(1.39759 -0.187798 0.0365698)
(1.44251 -0.330686 0.116836)
(1.28956 -0.287309 0.17641)
(1.31686 -0.359015 0.141599)
(1.42077 -0.271159 0.145971)
(1.45808 -0.357362 0.074726)
(1.34317 -0.402359 0.0790966)
(1.33243 -0.392259 0.0837378)
(1.4771 -0.365696 0.0723627)
(1.4284 -0.262842 0.0790201)
(1.42988 -0.128459 0.0649075)
(1.39896 -0.174293 0.0465108)
(1.43758 -0.21016 0.101905)
(1.38095 -0.0372253 0.00224339)
(1.39509 -0.107215 -0.000710207)
(1.40115 -0.109166 0.01269)
(1.37408 -0.0368503 -0.0133366)
(1.37535 0.0323969 -0.0130363)
(1.36904 0.0975773 -0.00182899)
(1.34698 0.0938486 -0.0189467)
(1.39724 0.0354021 0.00142515)
(1.35683 0.0240522 -0.00694192)
(1.32047 0.0820679 -0.0346394)
(1.32815 0.0837617 -0.013744)
(1.34945 0.023334 -0.0246878)
(1.39786 -0.0305639 -0.0067827)
(1.43456 -0.101609 0.0124261)
(1.41844 -0.0277905 0.00634543)
(1.41629 -0.104087 0.000522293)
(1.46476 -0.302456 0.0333858)
(1.42107 -0.196588 0.0114963)
(1.45887 -0.295332 0.0230177)
(1.42688 -0.200898 0.0230196)
(1.49139 -0.383878 0.0200304)
(1.35714 -0.425939 0.0356524)
(1.35172 -0.42826 0.0227377)
(1.50083 -0.382249 0.0323055)
(1.48326 -0.384808 0.0435213)
(1.34316 -0.415553 0.0399579)
(1.3463 -0.428344 0.0486778)
(1.47837 -0.374663 0.0339072)
(1.4757 -0.300346 0.0141159)
(1.45599 -0.195442 0.0187118)
(1.48907 -0.298948 0.0254484)
(1.4401 -0.197323 0.00757341)
(1.34982 -0.0345809 -0.00653375)
(1.39634 -0.109622 0.0215181)
(1.37206 -0.10236 0.0163283)
(1.37471 -0.0428583 0.00372587)
(1.33315 0.0298535 -0.0520831)
(1.37521 0.140334 -0.103144)
(1.30708 0.0864752 -0.0856964)
(1.38697 0.0811899 -0.0628595)
(1.32223 0.0232228 -0.0294733)
(1.31621 0.0694096 -0.026216)
(1.29139 0.0785013 -0.0508058)
(1.34786 0.0138101 -0.0128244)
(1.35842 -0.0280981 -0.017146)
(1.4199 -0.0515254 0.0276285)
(1.37789 -0.0939011 0.016009)
(1.40593 0.0172403 -0.0163423)
(0.777824 0.529276 0.0738627)
(0.812829 0.25221 0.102092)
(0.458881 0.396716 0.0736098)
(0.791817 0.24884 0.0771714)
(0.784922 0.537205 0.096413)
(0.445794 0.385171 0.0290351)
(0.77818 0.541488 0.0805647)
(0.780324 0.248389 0.045135)
(0.447704 0.390415 0.00615359)
(0.801288 0.255619 0.0832986)
(0.769989 0.532701 0.0456582)
(0.454428 0.39665 0.059954)
(1.43173 0.301347 0.0591231)
(1.41517 0.221994 0.0411426)
(1.44644 0.124909 0.0677452)
(1.45947 0.07993 0.0416554)
(1.45463 0.308556 0.0576873)
(1.39156 0.214826 0.0407195)
(1.43501 0.125915 0.0497955)
(1.43824 0.342789 0.120004)
(1.28499 0.293164 0.1794)
(1.22881 0.190918 0.0896372)
(1.30968 0.143727 0.107745)