/*--------------------------------*- C++ -*----------------------------------*\
| =========                 |                                                 |
| \\      /  F ield         | OpenFOAM: The Open Source CFD Toolbox           |
|  \\    /   O peration     | Version:  2012                                  |
|   \\  /    A nd           | Website:  www.openfoam.com                      |
|    \\/     M anipulation  |                                                 |
\*---------------------------------------------------------------------------*/
FoamFile
{
    version     2.0;
    format      ascii;
    class       surfaceVectorField;
    location    "0.107/fluid";
    object      Uf;
}
// * * * * * * * * * * * * * * * * * * * * * * * * * * * * * * * * * * * * * //

dimensions      [0 1 -1 0 0 0 0];


internalField   nonuniform List<vector> 
47046
(
(1.19997 4.40219e-06 7.76223e-06)
(1.2 8.49935e-06 1.40279e-05)
(1.19997 4.11173e-06 7.7296e-06)
(1.19997 4.20773e-06 7.70709e-06)
(1.19996 7.55022e-05 9.60022e-05)
(1.20001 6.01764e-05 8.00437e-05)
(1.20001 8.65134e-05 0.000106335)
(1.19997 7.21966e-05 9.53657e-05)
(1.19997 7.36838e-05 9.54651e-05)
(1.19979 0.000133576 0.00012797)
(1.20002 0.000127314 0.00012633)
(1.20002 0.00013642 0.000129704)
(1.1998 0.000128251 0.00012643)
(1.1998 0.00013049 0.000128132)
(1.19998 0.00018727 0.000158874)
(1.20003 0.00017645 0.000152758)
(1.20003 0.000193101 0.000163391)
(1.19999 0.000180493 0.000156434)
(1.19999 0.000183153 0.000158537)
(1.20003 0.000272272 0.000218266)
(1.20005 0.000255452 0.000207072)
(1.20006 0.000281358 0.000225768)
(1.20006 0.000261905 0.000213609)
(1.20006 0.000265364 0.000216892)
(1.20007 0.000401929 0.00031521)
(1.20008 0.0003767 0.000296953)
(1.20009 0.000415578 0.0003267)
(1.2001 0.000386289 0.000306975)
(1.2001 0.000390937 0.000312577)
(1.2001 0.000597979 0.000464041)
(1.20013 0.000559982 0.000435801)
(1.20014 0.000618675 0.000479822)
(1.20016 0.00057484 0.000449694)
(1.20016 0.000580606 0.000459131)
(1.20016 0.000892065 0.00068856)
(1.2002 0.000834022 0.000643269)
(1.20023 0.000921319 0.000710448)
(1.20026 0.000854669 0.000662376)
(1.20025 0.00086227 0.000678078)
(1.20028 0.00133126 0.00102592)
(1.20033 0.00124223 0.000955618)
(1.20037 0.0013719 0.001053)
(1.20042 0.00127082 0.000979413)
(1.2004 0.00128064 0.00100586)
(1.20047 0.00197181 0.00150561)
(1.20054 0.00183922 0.00139879)
(1.20061 0.0020246 0.00153534)
(1.20067 0.00187606 0.00142424)
(1.20065 0.00188704 0.00146921)
(1.20082 0.00287591 0.00219464)
(1.2009 0.0026822 0.00202887)
(1.20103 0.00293733 0.00222526)
(1.20109 0.0027244 0.00205394)
(1.20107 0.00273444 0.00212661)
(1.20141 0.00410618 0.00304504)
(1.20138 0.00408313 0.00318539)
(1.20148 0.00382221 0.00292954)
(1.20166 0.0041618 0.00321159)
(1.20175 0.00387572 0.00294471)
(1.20173 0.0038652 0.00306481)
(1.20197 0.00585413 0.00444501)
(1.20194 0.0057035 0.00470325)
(1.20216 0.00539328 0.00427553)
(1.20227 0.00593496 0.00473595)
(1.20252 0.00553305 0.00426912)
(1.20248 0.00541936 0.00450181)
(1.20078 0.00938855 0.00769712)
(1.20134 0.0101289 0.00690312)
(1.20197 0.00883108 0.00671994)
(1.20154 0.0108223 0.00768946)
(1.2024 0.00901819 0.00732793)
(1.20291 0.00942229 0.00658908)
(1.19763 0.0378697 0.0143408)
(1.207 0.0315129 0.0107249)
(1.2035 0.0257968 0.0112502)
(1.21342 0.0378484 0.0113367)
(1.20708 0.026927 0.0137357)
(1.21019 0.0241721 0.0097403)
(1.19997 2.68593e-06 7.61333e-06)
(1.2 3.69243e-06 1.36964e-05)
(1.19997 1.52696e-06 7.58858e-06)
(1.19997 1.90982e-06 7.55146e-06)
(1.19997 5.5725e-05 9.37025e-05)
(1.20001 3.91253e-05 7.81425e-05)
(1.20002 6.0105e-05 0.000103554)
(1.19997 4.80702e-05 9.31272e-05)
(1.19997 4.99959e-05 9.35121e-05)
(1.19982 0.000101951 0.00012202)
(1.20004 9.23131e-05 0.000120879)
(1.20005 9.99146e-05 0.000123379)
(1.19983 9.0324e-05 0.000120656)
(1.19983 9.48728e-05 0.000121745)
(1.20004 0.000147458 0.000149569)
(1.20008 0.00013364 0.000144032)
(1.2001 0.000147078 0.000153709)
(1.20005 0.00013243 0.00014756)
(1.20005 0.000139111 0.00014933)
(1.20013 0.000214104 0.00020149)
(1.20014 0.000194767 0.000192072)
(1.20015 0.00021418 0.000208336)
(1.20015 0.000192852 0.000198173)
(1.20015 0.000202269 0.000200671)
(1.20021 0.000314392 0.000285072)
(1.20022 0.000285666 0.000269807)
(1.20024 0.000315066 0.000295261)
(1.20024 0.000283507 0.000279038)
(1.20024 0.000296548 0.00028342)
(1.20033 0.000467078 0.000411685)
(1.20033 0.000423739 0.000388334)
(1.20037 0.0004673 0.000425404)
(1.20037 0.000419833 0.000401021)
(1.20037 0.000439139 0.000407881)
(1.20051 0.000689357 0.000593399)
(1.20051 0.000625369 0.000558)
(1.20057 0.000689147 0.00061096)
(1.20057 0.000619183 0.00057415)
(1.20057 0.000646042 0.000585855)
(1.20077 0.00101664 0.00085444)
(1.20078 0.000921499 0.000800507)
(1.20087 0.00101461 0.000874189)
(1.20087 0.000911108 0.000819536)
(1.20087 0.000948387 0.000839638)
(1.20119 0.00148955 0.00120793)
(1.2012 0.00135016 0.00112897)
(1.20133 0.0014823 0.0012263)
(1.20132 0.00133206 0.0011472)
(1.20131 0.00138302 0.00118044)
(1.20184 0.00208762 0.00160905)
(1.20181 0.00214623 0.00167782)
(1.20182 0.00194778 0.00156085)
(1.20202 0.00212907 0.00168733)
(1.202 0.00191603 0.00157219)
(1.20199 0.00198192 0.0016262)
(1.2028 0.00298332 0.00217399)
(1.20274 0.00305287 0.0022877)
(1.20274 0.00277007 0.00211324)
(1.20304 0.0030225 0.00227038)
(1.20301 0.00271796 0.00210262)
(1.20298 0.00279814 0.00219325)
(1.20426 0.00427696 0.00284176)
(1.20414 0.00436403 0.00304578)
(1.20414 0.0039349 0.00277852)
(1.2046 0.00430341 0.00295367)
(1.20453 0.00383802 0.00270943)
(1.20446 0.00394041 0.00287159)
(1.2068 0.00614806 0.00343265)
(1.20665 0.00636331 0.00383265)
(1.20647 0.00561089 0.00342951)
(1.2073 0.00605932 0.00353906)
(1.20713 0.00537947 0.00320459)
(1.20693 0.00551955 0.00352312)
(1.21314 0.00771803 0.00352983)
(1.21191 0.00656596 0.0031815)
(1.21098 0.00639263 0.00340705)
(1.21266 0.00555703 0.0030723)
(1.21157 0.00573994 0.00337456)
(1.21226 0.0057176 0.00270252)
(1.19997 -8.4754e-07 7.47454e-06)
(1.2 -1.18697e-05 1.33109e-05)
(1.19997 -4.04276e-06 7.47357e-06)
(1.19997 -6.03707e-06 7.36521e-06)
(1.19998 1.69603e-05 9.1078e-05)
(1.20002 -1.07904e-05 7.58069e-05)
(1.20003 3.60801e-06 0.000100676)
(1.19999 5.10681e-06 9.03035e-05)
(1.19998 -4.22759e-06 9.08857e-05)
(1.19985 5.18205e-05 0.000118107)
(1.20007 3.23966e-05 0.000117781)
(1.20008 3.85979e-05 0.000119875)
(1.19986 3.78816e-05 0.000117714)
(1.19985 3.52673e-05 0.000118442)
(1.20008 7.89396e-05 0.000143057)
(1.20012 5.85849e-05 0.000138544)
(1.20013 6.58255e-05 0.00014746)
(1.20008 5.92305e-05 0.000141826)
(1.20008 6.14337e-05 0.000143435)
(1.2002 0.000116672 0.000190559)
(1.20019 9.24499e-05 0.000182773)
(1.20022 0.000103355 0.000197609)
(1.20021 8.84043e-05 0.000188713)
(1.20021 9.66902e-05 0.00019048)
(1.20031 0.000174111 0.00026557)
(1.2003 0.000142935 0.000253272)
(1.20034 0.000158142 0.000275983)
(1.20033 0.000132609 0.000262364)
(1.20033 0.000148629 0.000265381)
(1.20048 0.000253977 0.000376199)
(1.20047 0.000211923 0.000357698)
(1.20052 0.000234063 0.00038993)
(1.2005 0.000192735 0.000370416)
(1.20051 0.000219516 0.000375062)
(1.20073 0.000374635 0.000530273)
(1.20071 0.00031528 0.000503535)
(1.20079 0.000347703 0.000547939)
(1.20076 0.000284368 0.000520621)
(1.20077 0.000325971 0.000527474)
(1.20109 0.000547953 0.000739852)
(1.20107 0.000463062 0.000701732)
(1.20118 0.000508871 0.000759876)
(1.20114 0.0004154 0.000722224)
(1.20115 0.000476034 0.000733372)
(1.20163 0.000720586 0.000980533)
(1.20164 0.000796681 0.00100752)
(1.2016 0.000673861 0.000955038)
(1.20176 0.000738913 0.00102694)
(1.20171 0.000602856 0.000976431)
(1.20172 0.00068948 0.000994209)
(1.20244 0.00103594 0.00128946)
(1.20244 0.00114125 0.00133099)
(1.20237 0.000966959 0.00126053)
(1.20262 0.00105483 0.0013428)
(1.20253 0.000863049 0.00127777)
(1.20254 0.00098271 0.0013056)
(1.20362 0.00145758 0.00161934)
(1.2036 0.0016006 0.00168417)
(1.2035 0.00135688 0.00159233)
(1.20385 0.00147042 0.00167209)
(1.20372 0.00120639 0.00159319)
(1.20372 0.00136659 0.00163726)
(1.20532 0.00197379 0.00188284)
(1.20528 0.00216759 0.00198338)
(1.20511 0.00183682 0.00187249)
(1.20561 0.00195882 0.00191618)
(1.20541 0.00161543 0.00183324)
(1.20538 0.00182367 0.00190161)
(1.20768 0.00236123 0.0018783)
(1.20766 0.00261286 0.00201851)
(1.20734 0.00223269 0.0019174)
(1.20798 0.00224466 0.00185828)
(1.20767 0.00191312 0.00180303)
(1.20763 0.00214581 0.00190037)
(1.21016 0.00157146 0.00133609)
(1.21062 0.00201125 0.00137118)
(1.20978 0.00168646 0.00145218)
(1.21029 0.00121927 0.00123553)
(1.21012 0.00145099 0.00120974)
(1.20994 0.00141035 0.00135782)
(1.19997 4.13766e-06 6.97535e-06)
(1.19997 4.31615e-06 6.77704e-06)
(1.2 8.29921e-06 1.20591e-05)
(1.19997 4.0153e-06 6.75638e-06)
(1.19997 4.11802e-06 6.52868e-06)
(1.19997 7.15736e-05 8.91216e-05)
(1.19997 7.23449e-05 8.73965e-05)
(1.20001 5.78358e-05 7.20581e-05)
(1.20002 8.30836e-05 9.82277e-05)
(1.19997 6.95816e-05 8.70041e-05)
(1.19997 7.10113e-05 8.48495e-05)
(1.19982 0.000125024 0.000125466)
(1.19982 0.000126714 0.000124386)
(1.20004 0.00012047 0.000122245)
(1.20005 0.000128902 0.000125946)
(1.19983 0.000120875 0.000122522)
(1.19983 0.000123174 0.000120688)
(1.20004 0.000175973 0.000154965)
(1.20004 0.000177508 0.000154154)
(1.20008 0.000167288 0.000148149)
(1.20009 0.000182729 0.000158469)
(1.20005 0.000170913 0.000151701)
(1.20005 0.000173516 0.000150099)
(1.20013 0.000251534 0.000210839)
(1.20013 0.000253509 0.000209975)
(1.20013 0.000238339 0.000199566)
(1.20015 0.000261635 0.000217164)
(1.20015 0.000244015 0.000205685)
(1.20015 0.000247236 0.000203653)
(1.2002 0.000366556 0.000303305)
(1.2002 0.000368847 0.00030271)
(1.2002 0.000346574 0.000285317)
(1.20023 0.0003804 0.000313693)
(1.20023 0.000354672 0.00029506)
(1.20023 0.000358892 0.000292775)
(1.20031 0.000536263 0.000446026)
(1.2003 0.000537821 0.000446573)
(1.20031 0.000504957 0.00041877)
(1.20035 0.000555111 0.000461805)
(1.20036 0.000517272 0.00043213)
(1.20035 0.000521797 0.000430082)
(1.20046 0.000783353 0.000657576)
(1.20046 0.000784632 0.00066077)
(1.20047 0.000736022 0.000618069)
(1.20052 0.00080838 0.000680737)
(1.20053 0.00075274 0.000635627)
(1.20053 0.00075817 0.000634715)
(1.20071 0.00114196 0.000969097)
(1.2007 0.00114288 0.0009762)
(1.20072 0.00106989 0.000909822)
(1.2008 0.00117337 0.00100128)
(1.20081 0.00109086 0.000932141)
(1.2008 0.00109784 0.000933247)
(1.2011 0.00164569 0.00141386)
(1.20109 0.00164397 0.00142934)
(1.20111 0.00153847 0.00132848)
(1.20124 0.00167989 0.00145719)
(1.20124 0.00156254 0.0013529)
(1.20124 0.00156915 0.00135902)
(1.2017 0.0023192 0.00202726)
(1.2017 0.00231181 0.00205769)
(1.20171 0.0021643 0.00190728)
(1.20191 0.00234545 0.00208159)
(1.2019 0.00218518 0.00192722)
(1.2019 0.00218858 0.00194421)
(1.20263 0.00316123 0.00288109)
(1.20266 0.00313517 0.00293114)
(1.20263 0.00294333 0.00270238)
(1.20293 0.00315743 0.00294851)
(1.20289 0.00295474 0.00271227)
(1.20291 0.00294214 0.00274392)
(1.204 0.00414126 0.00415366)
(1.2041 0.0040354 0.00422228)
(1.20401 0.00382705 0.00385369)
(1.20445 0.0040594 0.00423395)
(1.20435 0.00383368 0.00383844)
(1.20442 0.00375709 0.00388447)
(1.20611 0.00547794 0.00647721)
(1.20643 0.00497677 0.0065279)
(1.20618 0.00483853 0.00577727)
(1.207 0.00515113 0.00647175)
(1.20676 0.00489257 0.00564164)
(1.20687 0.00459086 0.00568319)
(1.21262 0.00767417 0.0103441)
(1.2136 0.00568736 0.0101665)
(1.21173 0.00585325 0.00872253)
(1.21464 0.00545328 0.00877738)
(1.21318 0.00545489 0.00746525)
(1.2127 0.00496612 0.00745977)
(1.19997 1.84029e-06 6.87484e-06)
(1.19997 2.55513e-06 6.68434e-06)
(1.2 3.46459e-06 1.18618e-05)
(1.19997 1.39809e-06 6.66085e-06)
(1.19997 1.81725e-06 6.43672e-06)
(1.19998 4.83754e-05 8.79233e-05)
(1.19998 5.35689e-05 8.60833e-05)
(1.20002 3.7344e-05 7.10549e-05)
(1.20003 5.76319e-05 9.62581e-05)
(1.19998 4.59564e-05 8.57424e-05)
(1.19998 4.79293e-05 8.35251e-05)
(1.19985 9.02672e-05 0.000118127)
(1.19985 9.55641e-05 0.000117106)
(1.20007 8.66669e-05 0.000115512)
(1.20009 9.35758e-05 0.000118659)
(1.19986 8.47715e-05 0.000115674)
(1.19986 8.88471e-05 0.000113859)
(1.20009 0.000132718 0.000145459)
(1.20009 0.000138568 0.000144562)
(1.20013 0.000125523 0.000139182)
(1.20015 0.000138088 0.000148311)
(1.2001 0.00012451 0.000142369)
(1.2001 0.000130522 0.000140636)
(1.20021 0.000191717 0.00019492)
(1.20021 0.000199569 0.000193876)
(1.20021 0.000181695 0.000184753)
(1.20024 0.000199154 0.000200412)
(1.20023 0.000179495 0.000190417)
(1.20023 0.000188253 0.000188256)
(1.20033 0.000278591 0.000275845)
(1.20033 0.000289229 0.000274843)
(1.20033 0.000263332 0.000260266)
(1.20036 0.000289208 0.000284384)
(1.20035 0.000260837 0.000269068)
(1.20036 0.000272809 0.000266323)
(1.2005 0.000406818 0.000394421)
(1.20049 0.000421571 0.000393737)
(1.20049 0.000383578 0.000371286)
(1.20054 0.00042109 0.000406962)
(1.20053 0.000379512 0.000383352)
(1.20053 0.00039642 0.000380047)
(1.20074 0.000588928 0.00056857)
(1.20074 0.000609182 0.000569838)
(1.20073 0.000554458 0.000535995)
(1.20081 0.000607164 0.000586638)
(1.2008 0.000547624 0.000551784)
(1.2008 0.000570852 0.000548947)
(1.2011 0.000845427 0.000811571)
(1.2011 0.00087245 0.000815868)
(1.20109 0.000793852 0.00076543)
(1.2012 0.00086694 0.000834652)
(1.20118 0.000781728 0.000783534)
(1.20118 0.000813061 0.000781831)
(1.20163 0.00120195 0.00113753)
(1.20163 0.00123638 0.00114905)
(1.20161 0.00112471 0.00107458)
(1.20177 0.00122395 0.00116615)
(1.20174 0.00110454 0.00109187)
(1.20173 0.00114472 0.00109419)
(1.2024 0.00167135 0.00155591)
(1.2024 0.00171153 0.00158022)
(1.20236 0.00156057 0.00147372)
(1.20259 0.00168593 0.00158736)
(1.20253 0.00152613 0.00148318)
(1.20253 0.00157426 0.00149402)
(1.20349 0.00225907 0.002075)
(1.20348 0.00229797 0.00212082)
(1.20341 0.00210025 0.00196564)
(1.20374 0.00224974 0.00210332)
(1.20364 0.00204243 0.00195499)
(1.20364 0.00209318 0.00198068)
(1.20504 0.00295518 0.00267829)
(1.20504 0.00297228 0.00276795)
(1.20491 0.00272153 0.00253754)
(1.20538 0.00288099 0.00268291)
(1.20521 0.00262167 0.00247361)
(1.20521 0.00266075 0.0025282)
(1.20737 0.00362061 0.00321645)
(1.20741 0.00357723 0.00338226)
(1.2071 0.00328992 0.00305245)
(1.20779 0.00335192 0.00312164)
(1.20747 0.0031013 0.00285308)
(1.20746 0.00309129 0.00295638)
(1.21126 0.00297754 0.00296295)
(1.21068 0.00297992 0.00298245)
(1.21013 0.00282712 0.00290969)
(1.21094 0.00223592 0.00259916)
(1.21037 0.00232931 0.00258083)
(1.21062 0.00252002 0.00231216)
(1.19997 -6.12455e-06 6.7425e-06)
(1.19997 -8.73483e-07 6.57171e-06)
(1.2 -1.22798e-05 1.15458e-05)
(1.19997 -4.33659e-06 6.53704e-06)
(1.19997 -6.15957e-06 6.30992e-06)
(1.19999 -6.22922e-06 8.62131e-05)
(1.19999 1.45865e-05 8.44659e-05)
(1.20003 -1.29789e-05 6.97937e-05)
(1.20004 8.94246e-07 9.43752e-05)
(1.2 3.10531e-06 8.4013e-05)
(1.19999 -6.60426e-06 8.21443e-05)
(1.19987 3.40455e-05 0.000114292)
(1.19988 4.98899e-05 0.000112719)
(1.20009 3.06256e-05 0.000111916)
(1.20011 3.66941e-05 0.000114627)
(1.19988 3.71144e-05 0.00011204)
(1.19988 3.33549e-05 0.00011015)
(1.20012 5.79625e-05 0.000139505)
(1.20012 7.43982e-05 0.000137709)
(1.20016 5.44616e-05 0.000133545)
(1.20018 6.0759e-05 0.000141826)
(1.20013 5.55209e-05 0.000136716)
(1.20013 5.69689e-05 0.000134501)
(1.20026 9.10365e-05 0.000184179)
(1.20027 0.000108659 0.000182311)
(1.20026 8.52105e-05 0.00017488)
(1.20029 9.53448e-05 0.00018892)
(1.20028 8.24926e-05 0.000180387)
(1.20028 8.91108e-05 0.000177765)
(1.20041 0.000138127 0.000257072)
(1.20042 0.000159374 0.00025492)
(1.2004 0.000129989 0.000242738)
(1.20045 0.00014322 0.000264395)
(1.20043 0.000121277 0.000251413)
(1.20044 0.000134617 0.000247915)
(1.20062 0.000203127 0.000363802)
(1.20063 0.000230146 0.000360743)
(1.20061 0.000191236 0.000342908)
(1.20067 0.000210829 0.000374661)
(1.20065 0.000174555 0.000355756)
(1.20065 0.000198136 0.00035052)
(1.20092 0.000297692 0.000513442)
(1.20093 0.000332267 0.000511123)
(1.2009 0.000280295 0.000485646)
(1.20099 0.000306876 0.000528143)
(1.20096 0.000252464 0.000502287)
(1.20097 0.000288847 0.000496058)
(1.20135 0.00042341 0.000710841)
(1.20136 0.000469491 0.000709273)
(1.20132 0.000397915 0.000673493)
(1.20145 0.000433426 0.000728193)
(1.2014 0.00035563 0.000692614)
(1.20141 0.000406738 0.000685458)
(1.20196 0.00059756 0.000960177)
(1.20197 0.000659359 0.000961104)
(1.20191 0.000559321 0.000911879)
(1.2021 0.000607901 0.000979587)
(1.20202 0.000498944 0.000932333)
(1.20204 0.000568773 0.000924747)
(1.20282 0.000826823 0.00125535)
(1.20283 0.00090792 0.00126206)
(1.20274 0.000772317 0.00119724)
(1.20299 0.000832661 0.00127267)
(1.20289 0.000686673 0.00121342)
(1.2029 0.000778163 0.00120748)
(1.20399 0.00110134 0.00156214)
(1.20399 0.00120199 0.0015796)
(1.20387 0.00102587 0.00149739)
(1.20421 0.00109323 0.00156779)
(1.20406 0.000906465 0.00149809)
(1.20407 0.00101983 0.00149673)
(1.20554 0.00138616 0.00179709)
(1.20553 0.00150235 0.00183523)
(1.20536 0.00128805 0.00173894)
(1.20579 0.00134286 0.00177321)
(1.20559 0.00112448 0.001703)
(1.20559 0.00125395 0.00171255)
(1.20747 0.00151105 0.00177339)
(1.20747 0.00162688 0.0018362)
(1.2072 0.00141806 0.00175248)
(1.20769 0.00138855 0.00168929)
(1.20743 0.00120141 0.0016494)
(1.20742 0.00132431 0.0016736)
(1.20929 0.000928057 0.00123792)
(1.20947 0.00108271 0.0012146)
(1.20901 0.000975381 0.00129024)
(1.20934 0.00070028 0.00108448)
(1.20917 0.000816855 0.00107932)
(1.20909 0.00079295 0.00114577)
(1.19997 4.05829e-06 4.71381e-06)
(1.19997 4.24192e-06 3.8646e-06)
(1.2 8.12838e-06 6.43708e-06)
(1.19997 3.94287e-06 3.83851e-06)
(1.19997 4.03179e-06 3.26764e-06)
(1.19998 6.99262e-05 6.43323e-05)
(1.19998 7.09058e-05 5.7868e-05)
(1.20002 5.65832e-05 4.62214e-05)
(1.20003 8.11377e-05 6.65911e-05)
(1.19998 6.82778e-05 5.75644e-05)
(1.19998 6.95122e-05 5.54469e-05)
(1.19986 0.000118526 9.67957e-05)
(1.19986 0.000120604 9.10952e-05)
(1.20007 0.000114801 8.86223e-05)
(1.20009 0.000122397 9.32225e-05)
(1.19986 0.000114693 8.97064e-05)
(1.19986 0.000117134 8.56695e-05)
(1.20009 0.000166151 0.000125656)
(1.20009 0.000167868 0.000121051)
(1.20014 0.000158009 0.000115769)
(1.20015 0.000172529 0.000124192)
(1.2001 0.000161197 0.000118713)
(1.2001 0.000163808 0.000114091)
(1.20021 0.000236176 0.000167833)
(1.20021 0.000238452 0.000161639)
(1.20021 0.00022464 0.000153865)
(1.20024 0.000245459 0.000167385)
(1.20023 0.000229481 0.00015858)
(1.20023 0.00023311 0.000151773)
(1.20032 0.000337665 0.000241154)
(1.20032 0.000339989 0.000233119)
(1.20032 0.000320224 0.00021994)
(1.20035 0.000349958 0.000241104)
(1.20035 0.000327172 0.000226951)
(1.20035 0.000331486 0.000217676)
(1.20048 0.000482869 0.000352674)
(1.20048 0.000485066 0.000341849)
(1.20048 0.000456752 0.00032058)
(1.20053 0.000499408 0.000353675)
(1.20052 0.000466795 0.000330953)
(1.20052 0.000471955 0.00031836)
(1.20071 0.000690601 0.000522294)
(1.20071 0.000692731 0.000508004)
(1.20071 0.000651943 0.000475254)
(1.20078 0.00071159 0.000523351)
(1.20077 0.000665089 0.000489075)
(1.20077 0.000671645 0.000471761)
(1.20106 0.000977907 0.00076221)
(1.20106 0.000979452 0.000743656)
(1.20105 0.000920885 0.000693664)
(1.20116 0.00100195 0.000761497)
(1.20115 0.000935997 0.000709426)
(1.20114 0.000943633 0.000686331)
(1.2016 0.00136335 0.00110222)
(1.20159 0.0013634 0.00107891)
(1.20157 0.00128175 0.00100363)
(1.20174 0.00138636 0.00109815)
(1.20171 0.00129612 0.00102086)
(1.2017 0.00130524 0.000990871)
(1.2024 0.00183995 0.00156595)
(1.2024 0.00183637 0.00153874)
(1.20235 0.00172834 0.00142778)
(1.2026 0.00184993 0.00155281)
(1.20253 0.00173385 0.00144109)
(1.20253 0.00174222 0.00140461)
(1.20357 0.00236622 0.00215956)
(1.20359 0.00235263 0.00212641)
(1.20349 0.00222133 0.00197038)
(1.20385 0.00234053 0.00212246)
(1.20372 0.00220595 0.00196795)
(1.20374 0.00220766 0.00192257)
(1.20529 0.0028072 0.00286167)
(1.20535 0.00276603 0.00280566)
(1.20514 0.00263776 0.00260063)
(1.20566 0.00270176 0.0027577)
(1.20542 0.00258095 0.00256028)
(1.20547 0.00256173 0.00249554)
(1.20779 0.00287215 0.00347543)
(1.20789 0.00275952 0.00334463)
(1.20749 0.00270512 0.00312968)
(1.20821 0.00261707 0.00317545)
(1.2078 0.00258359 0.0029901)
(1.20785 0.00251762 0.00288563)
(1.21115 0.00200173 0.00298207)
(1.21118 0.00176103 0.00269764)
(1.21053 0.00194761 0.00274111)
(1.21125 0.00155341 0.00229322)
(1.21075 0.00171198 0.00231567)
(1.21068 0.00161996 0.00225899)
(1.19997 1.72103e-06 4.65362e-06)
(1.19997 2.46536e-06 3.76064e-06)
(1.2 3.15218e-06 6.20621e-06)
(1.19997 1.27934e-06 3.71554e-06)
(1.19997 1.6756e-06 3.17501e-06)
(1.19999 4.69441e-05 6.27544e-05)
(1.19999 5.24967e-05 5.61465e-05)
(1.20003 3.63265e-05 4.46534e-05)
(1.20004 5.59352e-05 6.45717e-05)
(1.19999 4.48128e-05 5.57082e-05)
(1.19999 4.66375e-05 5.40672e-05)
(1.19988 8.54275e-05 9.19795e-05)
(1.19988 9.06443e-05 8.61373e-05)
(1.2001 8.2429e-05 8.44049e-05)
(1.20012 8.87184e-05 8.79568e-05)
(1.19989 8.06241e-05 8.51903e-05)
(1.19989 8.44746e-05 8.16948e-05)
(1.20014 0.000124201 0.000116585)
(1.20014 0.000129918 0.000111802)
(1.20018 0.000117722 0.000107101)
(1.2002 0.00012911 0.000114726)
(1.20015 0.000116542 0.000109817)
(1.20015 0.000122215 0.000105533)
(1.20028 0.000178596 0.000155692)
(1.20028 0.000186357 0.000149945)
(1.20028 0.000169474 0.000142928)
(1.20031 0.000185523 0.000154758)
(1.2003 0.000167246 0.000147156)
(1.2003 0.000175803 0.000141028)
(1.20043 0.000257015 0.000218219)
(1.20043 0.000267251 0.000210189)
(1.20042 0.000243594 0.000199104)
(1.20047 0.000266573 0.000217387)
(1.20046 0.000240682 0.000205584)
(1.20046 0.000252404 0.000196511)
(1.20064 0.000367942 0.000312698)
(1.20064 0.00038153 0.000302699)
(1.20063 0.000348338 0.000285409)
(1.20069 0.000380487 0.000313002)
(1.20068 0.000344307 0.00029485)
(1.20067 0.000360081 0.000282988)
(1.20094 0.000521805 0.000451088)
(1.20094 0.000540004 0.000437781)
(1.20092 0.000493312 0.000411713)
(1.20101 0.000536842 0.000449981)
(1.20098 0.000486219 0.000423451)
(1.20098 0.000507461 0.000407191)
(1.20137 0.00072661 0.000638624)
(1.20137 0.000751198 0.000620964)
(1.20134 0.000686459 0.000583262)
(1.20147 0.000743104 0.000635137)
(1.20143 0.000673212 0.000596842)
(1.20143 0.000702467 0.000574751)
(1.202 0.00099313 0.000889199)
(1.202 0.00102396 0.000868686)
(1.20195 0.00093589 0.00081381)
(1.20213 0.00100766 0.000881206)
(1.20207 0.000914373 0.000826685)
(1.20207 0.0009511 0.000799665)
(1.20286 0.00131815 0.00120769)
(1.20286 0.0013525 0.00118604)
(1.20279 0.00124027 0.00110814)
(1.20304 0.00132168 0.00119056)
(1.20295 0.00120466 0.00111535)
(1.20295 0.00124743 0.00108457)
(1.20403 0.00166461 0.00157129)
(1.20404 0.00169649 0.00155101)
(1.20392 0.00156425 0.0014468)
(1.20425 0.00163987 0.00153286)
(1.20412 0.00150531 0.00143557)
(1.20412 0.00154914 0.00140254)
(1.20557 0.00194357 0.00192119)
(1.20559 0.00195861 0.00190404)
(1.2054 0.00182347 0.00177303)
(1.20583 0.00186045 0.00183696)
(1.20563 0.00172901 0.00172345)
(1.20564 0.00176297 0.0016903)
(1.2075 0.00194896 0.00204966)
(1.20754 0.00192745 0.00203543)
(1.20725 0.00183631 0.00191021)
(1.20774 0.00176201 0.00187098)
(1.20745 0.00168802 0.00178417)
(1.20747 0.00169775 0.00175503)
(1.20946 0.00121058 0.00150751)
(1.20957 0.00116635 0.00140807)
(1.20913 0.00122878 0.00146676)
(1.20949 0.000928471 0.00122105)
(1.20924 0.00105728 0.00120478)
(1.2092 0.00100743 0.00122909)
(1.19997 -6.22281e-06 4.58828e-06)
(1.19997 -9.7339e-07 3.64748e-06)
(1.2 -1.26752e-05 5.98672e-06)
(1.19997 -4.36619e-06 3.6328e-06)
(1.19997 -6.23873e-06 3.10442e-06)
(1.2 -7.3286e-06 6.2144e-05)
(1.2 1.39467e-05 5.50245e-05)
(1.20003 -1.39529e-05 4.39889e-05)
(1.20005 -1.63605e-08 6.35876e-05)
(1.20001 2.68876e-06 5.46687e-05)
(1.2 -7.48502e-06 5.36653e-05)
(1.1999 3.10432e-05 8.89995e-05)
(1.19991 4.69674e-05 8.29123e-05)
(1.20012 2.79955e-05 8.17484e-05)
(1.20014 3.33152e-05 8.45434e-05)
(1.19991 3.45613e-05 8.21774e-05)
(1.19991 3.02893e-05 7.89692e-05)
(1.20017 5.38637e-05 0.000110677)
(1.20017 7.00121e-05 0.000105288)
(1.20021 5.03342e-05 0.000101465)
(1.20023 5.65215e-05 0.000108528)
(1.20018 5.25774e-05 0.000104223)
(1.20018 5.27981e-05 0.000100055)
(1.20033 8.35428e-05 0.000146608)
(1.20033 0.000100935 0.000140449)
(1.20032 7.84552e-05 0.000134578)
(1.20036 8.73222e-05 0.000145522)
(1.20034 7.66558e-05 0.00013878)
(1.20034 8.18726e-05 0.000132873)
(1.2005 0.000125506 0.000203437)
(1.20051 0.000146188 0.000194947)
(1.20049 0.000118472 0.000185885)
(1.20054 0.000130618 0.000202589)
(1.20052 0.000111119 0.000192639)
(1.20052 0.000123196 0.000183474)
(1.20074 0.000184765 0.000288271)
(1.20075 0.000210449 0.000277252)
(1.20072 0.00017444 0.00026369)
(1.2008 0.000191644 0.000287539)
(1.20077 0.000159528 0.000273295)
(1.20077 0.000180804 0.000260724)
(1.20109 0.000264944 0.000406811)
(1.20109 0.000296462 0.00039141)
(1.20106 0.000250616 0.000371839)
(1.20116 0.000272333 0.000404238)
(1.20112 0.000225593 0.000384414)
(1.20112 0.000257942 0.000366606)
(1.20158 0.000362586 0.000561625)
(1.20158 0.000403854 0.000542002)
(1.20153 0.000343184 0.000514919)
(1.20167 0.000370321 0.000556843)
(1.20161 0.000305865 0.000529938)
(1.20162 0.000350514 0.000506098)
(1.20224 0.000493045 0.00075593)
(1.20225 0.000545911 0.000731832)
(1.20217 0.00046477 0.000695551)
(1.20237 0.000499974 0.000745913)
(1.20229 0.000413193 0.000711063)
(1.2023 0.000472265 0.000680566)
(1.20313 0.000649731 0.000980928)
(1.20314 0.000715054 0.000953936)
(1.20304 0.000611766 0.00090649)
(1.20329 0.000650152 0.000961138)
(1.20318 0.000540411 0.000918426)
(1.20319 0.000614214 0.000882527)
(1.20428 0.000809508 0.00120179)
(1.20429 0.000884662 0.00117409)
(1.20416 0.000761743 0.00111761)
(1.20448 0.00079557 0.00116399)
(1.20433 0.00066727 0.00111733)
(1.20434 0.000752755 0.00107698)
(1.20569 0.000925043 0.00134706)
(1.2057 0.00100142 0.00132358)
(1.20552 0.000871577 0.00126521)
(1.20589 0.000883085 0.00127912)
(1.20571 0.00075251 0.00123909)
(1.20571 0.000840583 0.00119876)
(1.20724 0.000885246 0.00127228)
(1.20724 0.000948033 0.00125792)
(1.20703 0.000845592 0.00122228)
(1.20739 0.000800026 0.00116091)
(1.20719 0.000707086 0.00115259)
(1.20718 0.000779972 0.00111984)
(1.20853 0.000495635 0.000813849)
(1.20856 0.000538518 0.000780345)
(1.20833 0.00052421 0.000829667)
(1.20855 0.00037999 0.000675071)
(1.2084 0.000416153 0.000712575)
(1.20838 0.000427936 0.000701386)
(1.19997 4.01383e-06 2.71452e-07)
(1.19997 4.25634e-06 -4.85475e-06)
(1.2 8.18928e-06 -9.57621e-06)
(1.19997 3.9436e-06 -4.88439e-06)
(1.19997 3.98368e-06 -2.37359e-06)
(1.19999 6.89635e-05 2.05583e-05)
(1.19999 7.09173e-05 5.1967e-06)
(1.20003 5.65373e-05 -2.2135e-06)
(1.20004 8.08834e-05 1.14845e-05)
(1.19999 6.80307e-05 4.64947e-06)
(1.2 6.85045e-05 7.52496e-06)
(1.19988 0.000114462 4.83637e-05)
(1.19988 0.000117379 3.55754e-05)
(1.20009 0.000112229 3.32025e-05)
(1.20011 0.000118951 3.74153e-05)
(1.19988 0.000111869 3.47888e-05)
(1.19989 0.000113665 3.51796e-05)
(1.20013 0.000158794 6.94383e-05)
(1.20013 0.000162099 5.57359e-05)
(1.20017 0.00015218 5.24735e-05)
(1.20019 0.000166034 5.76861e-05)
(1.20014 0.000154778 5.44304e-05)
(1.20014 0.000157486 5.19133e-05)
(1.20027 0.000226199 9.41587e-05)
(1.20027 0.000229113 7.94633e-05)
(1.20027 0.000216354 7.5262e-05)
(1.2003 0.000235751 8.18841e-05)
(1.20029 0.000220956 7.75242e-05)
(1.20028 0.000224256 7.21536e-05)
(1.20041 0.00031703 0.000132253)
(1.2004 0.000321021 0.000113908)
(1.2004 0.000302934 0.000106793)
(1.20044 0.000329656 0.000117821)
(1.20043 0.000308684 0.000110103)
(1.20042 0.000313218 0.00010023)
(1.20061 0.000447446 0.00019568)
(1.2006 0.00045211 0.000171531)
(1.20059 0.000426523 0.000160282)
(1.20065 0.000464803 0.000177644)
(1.20064 0.000435572 0.00016578)
(1.20063 0.000441685 0.000148941)
(1.20089 0.000628184 0.00028877)
(1.20088 0.000634186 0.000256668)
(1.20086 0.000598613 0.000239779)
(1.20095 0.000649357 0.000264094)
(1.20093 0.00060894 0.000246628)
(1.20092 0.000618132 0.000220575)
(1.20131 0.000864641 0.000417365)
(1.20129 0.000872017 0.000374298)
(1.20127 0.000823031 0.00034911)
(1.2014 0.000889417 0.000382817)
(1.20137 0.000834358 0.000356536)
(1.20135 0.000846862 0.000317606)
(1.20193 0.00117137 0.000601691)
(1.20191 0.00118008 0.000544715)
(1.20187 0.00111455 0.0005059)
(1.20205 0.00119584 0.000554245)
(1.202 0.00112363 0.000514646)
(1.20198 0.00114127 0.00045748)
(1.20282 0.00151884 0.000848814)
(1.20281 0.00153035 0.000772473)
(1.20273 0.00144846 0.00071776)
(1.203 0.00153339 0.000777645)
(1.20291 0.00144604 0.000723373)
(1.20289 0.00146971 0.000644266)
(1.20409 0.00185006 0.00113719)
(1.20409 0.00186168 0.00103908)
(1.20395 0.00177063 0.0009667)
(1.20432 0.00183709 0.00103073)
(1.20417 0.00174508 0.000961436)
(1.20417 0.00177239 0.000859925)
(1.20577 0.00203087 0.00140845)
(1.2058 0.00203858 0.00128811)
(1.20558 0.00195973 0.0012056)
(1.20604 0.00196367 0.00124981)
(1.20581 0.00189271 0.00117662)
(1.20583 0.00191937 0.00105444)
(1.2078 0.00183749 0.00147383)
(1.20785 0.0018359 0.00134336)
(1.20754 0.00181157 0.00128634)
(1.20804 0.00169435 0.00124897)
(1.20773 0.00168821 0.00121194)
(1.20778 0.0017061 0.00108201)
(1.2097 0.00104245 0.000970746)
(1.20974 0.00103348 0.000869882)
(1.2094 0.00111349 0.000912301)
(1.20975 0.000846705 0.000715683)
(1.20945 0.000944196 0.000776268)
(1.20951 0.000948902 0.000685352)
(1.19997 1.57746e-06 2.71416e-07)
(1.19997 2.4458e-06 -4.9455e-06)
(1.2 2.89731e-06 -9.76991e-06)
(1.19997 1.21313e-06 -4.97411e-06)
(1.19997 1.54838e-06 -2.36961e-06)
(1.2 4.59773e-05 1.92475e-05)
(1.2 5.19764e-05 3.05498e-06)
(1.20003 3.57011e-05 -4.09618e-06)
(1.20005 5.51469e-05 9.35405e-06)
(1.2 4.44026e-05 2.5619e-06)
(1.20001 4.55872e-05 6.204e-06)
(1.19991 8.25481e-05 4.61475e-05)
(1.1999 8.82925e-05 3.28028e-05)
(1.20012 8.04357e-05 3.07562e-05)
(1.20014 8.59833e-05 3.44562e-05)
(1.19991 7.83702e-05 3.22354e-05)
(1.19991 8.19705e-05 3.35329e-05)
(1.20017 0.000117818 6.47089e-05)
(1.20017 0.000124186 5.09727e-05)
(1.20021 0.000112511 4.80073e-05)
(1.20024 0.000123326 5.29166e-05)
(1.20018 0.000111279 4.99512e-05)
(1.20018 0.000116795 4.8848e-05)
(1.20034 0.000169732 8.74216e-05)
(1.20034 0.000178483 7.22705e-05)