/*--------------------------------*- C++ -*----------------------------------*\
| =========                 |                                                 |
| \\      /  F ield         | OpenFOAM: The Open Source CFD Toolbox           |
|  \\    /   O peration     | Version:  2012                                  |
|   \\  /    A nd           | Website:  www.openfoam.com                      |
|    \\/     M anipulation  |                                                 |
\*---------------------------------------------------------------------------*/
FoamFile
{
    version     2.0;
    format      ascii;
    class       volVectorField;
    location    "0.104/solid";
    object      D_0_0;
}
// * * * * * * * * * * * * * * * * * * * * * * * * * * * * * * * * * * * * * //

dimensions      [0 1 0 0 0 0 0];


internalField   nonuniform List<vector> 
3125
(
(2.87733e-05 -2.46706e-05 6.71968e-06)
(2.07438e-05 -1.75988e-05 6.27413e-06)
(4.65682e-05 -4.03893e-05 7.10838e-06)
(3.82409e-05 -3.30219e-05 6.91284e-06)
(2.02285e-05 -1.71446e-05 6.23306e-06)
(1.9835e-05 -1.82232e-05 -1.19926e-06)
(1.30142e-05 -1.20674e-05 -1.06415e-06)
(2.02019e-05 -1.72072e-05 5.80229e-06)
(2.03026e-05 -1.71547e-05 6.58016e-06)
(2.00088e-05 -1.82193e-05 -2.78586e-07)
(1.31585e-05 -1.20616e-05 -2.3716e-07)
(2.0311e-05 -1.72215e-05 6.31638e-06)
(2.87504e-05 -2.47381e-05 6.25892e-06)
(2.08698e-05 -1.91497e-05 -1.21363e-06)
(2.07174e-05 -1.76618e-05 5.84074e-06)
(2.83942e-05 -2.58474e-05 -1.28479e-06)
(2.88512e-05 -2.46755e-05 7.0903e-06)
(2.08182e-05 -1.76085e-05 6.62327e-06)
(2.88655e-05 -2.4745e-05 6.80772e-06)
(2.1047e-05 -1.91461e-05 -2.83306e-07)
(2.0827e-05 -1.76756e-05 6.35784e-06)
(2.85896e-05 -2.58454e-05 -3.07948e-07)
(2.93235e-05 -2.51551e-05 6.73904e-06)
(3.76804e-05 -3.25261e-05 6.9082e-06)
(2.93008e-05 -2.52229e-05 6.27717e-06)
(3.73194e-05 -3.37542e-05 -1.31644e-06)
(2.94982e-05 -2.68262e-05 -1.29122e-06)
(3.76602e-05 -3.25961e-05 6.43784e-06)
(2.94016e-05 -2.51597e-05 7.11057e-06)
(3.776e-05 -3.25274e-05 7.28771e-06)
(2.94162e-05 -2.52293e-05 6.82731e-06)
(3.75261e-05 -3.37534e-05 -3.20078e-07)
(2.96954e-05 -2.68244e-05 -3.10319e-07)
(3.77781e-05 -3.2598e-05 6.99975e-06)
(4.66687e-05 -4.05578e-05 6.68785e-06)
(3.84425e-05 -3.47499e-05 -1.31783e-06)
(3.82208e-05 -3.3092e-05 6.44236e-06)
(4.66453e-05 -4.03987e-05 7.42575e-06)
(3.83206e-05 -3.30231e-05 7.29259e-06)
(4.67747e-05 -4.05647e-05 7.15595e-06)
(3.865e-05 -3.47492e-05 -3.2067e-07)
(3.83388e-05 -3.30937e-05 7.00462e-06)
(2.49658e-05 -2.13183e-05 6.54972e-06)
(2.44294e-05 -2.08459e-05 6.52022e-06)
(4.27222e-05 -3.69965e-05 6.93084e-06)
(4.21625e-05 -3.64991e-05 6.93e-06)
(1.62327e-05 -1.36192e-05 5.84764e-06)
(1.67187e-05 -1.40482e-05 5.9015e-06)
(1.30289e-05 -1.14928e-05 2.14941e-06)
(1.62041e-05 -1.36783e-05 5.44169e-06)
(1.58474e-05 -1.4005e-05 2.30024e-06)
(1.68124e-05 -1.55068e-05 -1.14902e-06)
(1.98309e-05 -1.77238e-05 1.52028e-06)
(1.68095e-05 -1.50355e-05 1.4439e-06)
(1.30132e-05 -1.16421e-05 1.31957e-06)
(1.58358e-05 -1.46254e-05 -1.12978e-06)
(1.58334e-05 -1.41647e-05 1.41527e-06)
(1.66903e-05 -1.41078e-05 5.49204e-06)
(1.98428e-05 -1.75528e-05 2.46461e-06)
(1.6823e-05 -1.48727e-05 2.34519e-06)
(1.63036e-05 -1.36324e-05 6.17525e-06)
(1.67901e-05 -1.4061e-05 6.23187e-06)
(1.32007e-05 -1.15139e-05 3.02757e-06)
(1.63084e-05 -1.36969e-05 5.92699e-06)
(1.60315e-05 -1.40228e-05 3.23094e-06)
(1.69749e-05 -1.55022e-05 -2.6261e-07)
(2.00312e-05 -1.77332e-05 2.53551e-06)
(1.69992e-05 -1.50471e-05 2.41912e-06)
(1.31854e-05 -1.16567e-05 2.22587e-06)
(1.59941e-05 -1.46205e-05 -2.56685e-07)
(1.6019e-05 -1.4177e-05 2.37501e-06)
(1.67953e-05 -1.41258e-05 5.98142e-06)
(2.00401e-05 -1.75665e-05 3.44994e-06)
(1.70108e-05 -1.48895e-05 3.29112e-06)
(2.49413e-05 -2.1384e-05 6.09912e-06)
(2.83957e-05 -2.51097e-05 2.67941e-06)
(2.51225e-05 -2.22219e-05 2.61528e-06)
(2.08654e-05 -1.8642e-05 1.54265e-06)
(2.40421e-05 -2.19806e-05 -1.25013e-06)
(2.40367e-05 -2.14512e-05 1.60095e-06)
(2.44047e-05 -2.09114e-05 6.07145e-06)
(2.08768e-05 -1.84687e-05 2.49943e-06)
(2.40465e-05 -2.12717e-05 2.58971e-06)
(2.83876e-05 -2.52956e-05 1.65953e-06)
(2.51189e-05 -2.29388e-05 -1.26021e-06)
(2.51131e-05 -2.24032e-05 1.61757e-06)
(2.50424e-05 -2.13253e-05 6.91228e-06)
(2.45058e-05 -2.08533e-05 6.88137e-06)
(2.50543e-05 -2.13939e-05 6.63603e-06)
(2.86109e-05 -2.51164e-05 3.73058e-06)
(2.53322e-05 -2.22309e-05 3.64766e-06)
(2.10688e-05 -1.86508e-05 2.56921e-06)
(2.42282e-05 -2.19777e-05 -2.95644e-07)
(2.42483e-05 -2.1458e-05 2.65602e-06)
(2.45174e-05 -2.09217e-05 6.60626e-06)
(2.10769e-05 -1.84814e-05 3.49593e-06)
(2.42541e-05 -2.12816e-05 3.61436e-06)
(2.86077e-05 -2.53001e-05 2.74138e-06)
(2.53075e-05 -2.29361e-05 -2.99157e-07)
(2.53271e-05 -2.24094e-05 2.68046e-06)
(3.32056e-05 -2.85752e-05 6.84403e-06)
(3.37634e-05 -2.90672e-05 6.85501e-06)
(2.9499e-05 -2.60827e-05 2.69683e-06)
(3.31842e-05 -2.86443e-05 6.37642e-06)
(3.28346e-05 -2.90243e-05 2.73847e-06)
(3.39542e-05 -3.07731e-05 -1.30939e-06)
(3.73109e-05 -3.31754e-05 1.72246e-06)
(3.39464e-05 -3.0202e-05 1.70609e-06)
(2.94913e-05 -2.62698e-05 1.67104e-06)
(3.28356e-05 -2.97826e-05 -1.30589e-06)
(3.2828e-05 -2.92146e-05 1.69887e-06)
(3.37422e-05 -2.91364e-05 6.38686e-06)
(3.73163e-05 -3.29821e-05 2.7727e-06)
(3.39526e-05 -3.00108e-05 2.74911e-06)
(3.32846e-05 -2.85781e-05 7.22047e-06)
(3.38425e-05 -2.90698e-05 7.23196e-06)
(2.97157e-05 -2.60885e-05 3.75294e-06)
(3.3301e-05 -2.86483e-05 6.9338e-06)
(3.30552e-05 -2.90282e-05 3.80592e-06)
(3.41576e-05 -3.0772e-05 -3.17231e-07)
(3.75412e-05 -3.31766e-05 2.82913e-06)
(3.41737e-05 -3.02042e-05 2.80703e-06)
(2.97131e-05 -2.62738e-05 2.75786e-06)
(3.30377e-05 -2.97813e-05 -3.15866e-07)
(3.30542e-05 -2.92172e-05 2.79705e-06)
(3.38592e-05 -2.91401e-05 6.945e-06)
(3.75405e-05 -3.29839e-05 3.84871e-06)
(3.41743e-05 -3.00141e-05 3.81932e-06)
(4.2703e-05 -3.70674e-05 6.46072e-06)
(4.66476e-05 -4.12725e-05 2.80459e-06)
(4.29268e-05 -3.79573e-05 2.79087e-06)
(3.84338e-05 -3.41692e-05 1.72634e-06)
(4.18095e-05 -3.774e-05 -1.31985e-06)
(4.18003e-05 -3.71549e-05 1.73422e-06)
(4.21432e-05 -3.65698e-05 6.45975e-06)
(3.84389e-05 -3.39754e-05 2.77813e-06)
(4.18048e-05 -3.69599e-05 2.78873e-06)
(4.6646e-05 -4.13708e-05 2.27981e-06)
(4.29318e-05 -3.87387e-05 -1.31996e-06)
(4.29223e-05 -3.81525e-05 1.73588e-06)
(4.28022e-05 -3.69968e-05 7.31168e-06)
(4.22426e-05 -3.64995e-05 7.31078e-06)
(4.28215e-05 -3.70678e-05 7.02456e-06)
(4.6762e-05 -4.12722e-05 3.34842e-06)
(4.31534e-05 -3.79574e-05 3.87018e-06)
(3.86648e-05 -3.417e-05 2.83422e-06)
(4.20189e-05 -3.77395e-05 -3.21699e-07)
(4.2033e-05 -3.71551e-05 2.84401e-06)
(4.22616e-05 -3.65703e-05 7.0235e-06)
(3.86638e-05 -3.39767e-05 3.85538e-06)
(4.20312e-05 -3.69603e-05 3.86802e-06)
(4.67614e-05 -4.13704e-05 2.82772e-06)
(4.31415e-05 -3.87383e-05 -3.21968e-07)
(4.31553e-05 -3.81524e-05 2.84565e-06)
(2.71312e-05 -2.32249e-05 6.65441e-06)
(2.23074e-05 -1.89768e-05 6.38831e-06)
(4.49722e-05 -3.89975e-05 6.9425e-06)
(3.99223e-05 -3.45109e-05 6.92313e-06)
(1.43327e-05 -1.19417e-05 5.61538e-06)
(1.87025e-05 -1.57988e-05 6.10053e-06)
(1.43031e-05 -1.19985e-05 5.2246e-06)
(1.42616e-05 -1.22441e-05 3.94517e-06)
(1.8813e-05 -1.73066e-05 -1.18372e-06)
(1.98282e-05 -1.80586e-05 -3.03685e-07)
(1.88062e-05 -1.71451e-05 -3.01243e-07)
(1.30069e-05 -1.19291e-05 -2.7992e-07)
(1.39355e-05 -1.29047e-05 -1.08738e-06)
(1.39283e-05 -1.2762e-05 -2.84341e-07)
(1.86752e-05 -1.58602e-05 5.67823e-06)
(2.01732e-05 -1.7473e-05 4.38826e-06)
(1.86432e-05 -1.61215e-05 4.29253e-06)
(1.44018e-05 -1.19565e-05 5.9309e-06)
(1.87755e-05 -1.581e-05 6.44101e-06)
(1.44045e-05 -1.20194e-05 5.69206e-06)
(1.43582e-05 -1.22596e-05 4.41438e-06)
(1.89834e-05 -1.73025e-05 -2.73563e-07)
(2.00142e-05 -1.8059e-05 6.68005e-07)
(1.89886e-05 -1.71457e-05 6.59092e-07)
(1.31631e-05 -1.19299e-05 5.90868e-07)
(1.40848e-05 -1.28992e-05 -2.43955e-07)
(1.40895e-05 -1.27628e-05 6.04111e-07)
(1.87826e-05 -1.5876e-05 6.18254e-06)
(2.02793e-05 -1.74835e-05 4.90344e-06)
(1.87473e-05 -1.61333e-05 4.79809e-06)
(2.71077e-05 -2.32917e-05 6.19749e-06)
(2.87361e-05 -2.50197e-05 4.74204e-06)
(2.70908e-05 -2.35709e-05 4.69378e-06)
(2.08631e-05 -1.89821e-05 -3.05847e-07)
(2.19166e-05 -2.00853e-05 -1.22688e-06)
(2.191e-05 -1.9915e-05 -3.07745e-07)
(2.22817e-05 -1.90409e-05 5.94773e-06)
(2.06895e-05 -1.79288e-05 4.41756e-06)
(2.2257e-05 -1.93116e-05 4.50034e-06)
(2.83881e-05 -2.56641e-05 -3.14314e-07)
(2.72958e-05 -2.48729e-05 -1.2775e-06)
(2.72896e-05 -2.46913e-05 -3.13726e-07)
(2.72086e-05 -2.32306e-05 7.02196e-06)
(2.23827e-05 -1.89854e-05 6.74307e-06)
(2.7222e-05 -2.32998e-05 6.74175e-06)
(2.88498e-05 -2.50248e-05 5.29132e-06)
(2.72034e-05 -2.35769e-05 5.23863e-06)
(2.10525e-05 -1.89826e-05 6.76278e-07)
(2.2097e-05 -2.00819e-05 -2.87721e-07)
(2.21026e-05 -1.99153e-05 6.83938e-07)
(2.23928e-05 -1.90532e-05 6.47311e-06)
(2.07963e-05 -1.79389e-05 4.93571e-06)
(2.23654e-05 -1.93207e-05 5.02663e-06)
(2.85957e-05 -2.56642e-05 7.18376e-07)
(2.74891e-05 -2.48707e-05 -3.05304e-07)
(2.74951e-05 -2.46914e-05 7.13882e-07)
(3.09815e-05 -2.66152e-05 6.79037e-06)
(3.59999e-05 -3.10409e-05 6.89013e-06)
(2.92871e-05 -2.55049e-05 4.75622e-06)
(3.09594e-05 -2.66836e-05 6.32561e-06)
(3.0948e-05 -2.69676e-05 4.79464e-06)
(3.61967e-05 -3.27593e-05 -1.31461e-06)
(3.73137e-05 -3.35611e-05 -3.1396e-07)
(3.6191e-05 -3.2567e-05 -3.14358e-07)
(2.94921e-05 -2.66412e-05 -3.1473e-07)
(3.06069e-05 -2.78087e-05 -1.29686e-06)
(3.06009e-05 -2.76222e-05 -3.14986e-07)
(3.59793e-05 -3.11106e-05 6.4204e-06)
(3.76557e-05 -3.2885e-05 4.88616e-06)
(3.59731e-05 -3.13983e-05 4.87121e-06)
(3.106e-05 -2.66191e-05 7.1643e-06)
(3.60793e-05 -3.10427e-05 7.26876e-06)
(2.94011e-05 -2.55097e-05 5.30682e-06)
(3.10754e-05 -2.6689e-05 6.87929e-06)
(3.10629e-05 -2.69716e-05 5.34869e-06)
(3.64024e-05 -3.27584e-05 -3.19322e-07)
(3.75326e-05 -3.35609e-05 7.40563e-07)
(3.64089e-05 -3.25669e-05 7.38902e-07)
(2.97016e-05 -2.66413e-05 7.22428e-07)
(3.08059e-05 -2.78071e-05 -3.1242e-07)
(3.08122e-05 -2.76222e-05 7.26067e-07)
(3.60968e-05 -3.11132e-05 6.98099e-06)
(3.77732e-05 -3.28863e-05 5.4482e-06)
(3.60901e-05 -3.14002e-05 5.43198e-06)
(4.49585e-05 -3.90731e-05 6.47385e-06)
(4.66539e-05 -4.08773e-05 4.92217e-06)
(4.4966e-05 -3.93735e-05 4.91309e-06)
(3.84368e-05 -3.45561e-05 -3.13516e-07)
(3.95654e-05 -3.57462e-05 -1.31883e-06)
(3.95597e-05 -3.55518e-05 -3.13041e-07)
(3.99025e-05 -3.45813e-05 6.45255e-06)
(3.82165e-05 -3.33809e-05 4.89008e-06)
(3.98996e-05 -3.48711e-05 4.89951e-06)
(4.66442e-05 -4.17641e-05 2.02225e-07)
(4.5202e-05 -4.05724e-05 -3.13964e-07)
(4.50517e-05 -3.89981e-05 7.31842e-06)
(4.00021e-05 -3.45117e-05 7.30345e-06)
(4.50765e-05 -3.90738e-05 7.03253e-06)
(4.67721e-05 -4.08766e-05 5.48644e-06)
(4.50846e-05 -3.93734e-05 5.47774e-06)
(3.86565e-05 -3.45559e-05 7.41972e-07)
(3.97736e-05 -3.57456e-05 -3.21115e-07)
(3.97802e-05 -3.55516e-05 7.43143e-07)
(4.00207e-05 -3.45824e-05 7.01564e-06)
(3.83341e-05 -3.33821e-05 5.45245e-06)
(4.00176e-05 -3.48719e-05 5.46267e-06)
(4.67574e-05 -4.17638e-05 7.39396e-07)
(4.54252e-05 -4.05718e-05 7.45859e-07)
(2.65871e-05 -2.27458e-05 6.63018e-06)
(2.28342e-05 -1.94408e-05 6.42342e-06)
(4.44051e-05 -3.84935e-05 6.93546e-06)
(4.04826e-05 -3.50077e-05 6.92549e-06)
(1.48008e-05 -1.2355e-05 5.67599e-06)
(1.82008e-05 -1.53562e-05 6.0532e-06)
(1.30516e-05 -1.1338e-05 3.00299e-06)
(1.39492e-05 -1.2314e-05 2.20239e-06)
(1.39711e-05 -1.21556e-05 3.07576e-06)
(1.47715e-05 -1.24124e-05 5.28124e-06)
(1.6167e-05 -1.39315e-05 4.1114e-06)
(1.47309e-05 -1.26599e-05 3.98807e-06)
(1.4889e-05 -1.31517e-05 2.25265e-06)
(1.58677e-05 -1.38402e-05 3.20997e-06)
(1.49102e-05 -1.29901e-05 3.14473e-06)
(1.78052e-05 -1.64008e-05 -1.16698e-06)
(1.68053e-05 -1.53522e-05 -2.95465e-07)
(1.77982e-05 -1.62427e-05 -2.98507e-07)
(1.98264e-05 -1.78924e-05 5.98757e-07)
(1.88094e-05 -1.6816e-05 1.49638e-06)
(1.88046e-05 -1.69819e-05 5.88095e-07)
(1.68041e-05 -1.51954e-05 5.64906e-07)
(1.78019e-05 -1.59196e-05 1.47093e-06)
(1.77968e-05 -1.60826e-05 5.76813e-07)
(1.30063e-05 -1.17876e-05 5.10959e-07)
(1.3934e-05 -1.2467e-05 1.35312e-06)
(1.39275e-05 -1.26164e-05 5.25398e-07)
(1.48764e-05 -1.37577e-05 -1.10924e-06)
(1.58287e-05 -1.44746e-05 -2.92099e-07)
(1.48693e-05 -1.36108e-05 -2.88396e-07)
(1.48745e-05 -1.33082e-05 1.38502e-06)
(1.58275e-05 -1.43213e-05 5.52369e-07)
(1.48683e-05 -1.34613e-05 5.39201e-07)
(1.81732e-05 -1.54172e-05 5.63394e-06)
(1.66541e-05 -1.43626e-05 4.1496e-06)
(1.81404e-05 -1.56771e-05 4.25887e-06)
(1.98599e-05 -1.73775e-05 3.43466e-06)
(1.88218e-05 -1.66476e-05 2.42733e-06)
(1.88397e-05 -1.64747e-05 3.3838e-06)
(1.68425e-05 -1.47051e-05 3.27152e-06)
(1.78148e-05 -1.57539e-05 2.38754e-06)
(1.78335e-05 -1.55835e-05 3.32944e-06)
(1.48704e-05 -1.23694e-05 5.99469e-06)
(1.82735e-05 -1.53678e-05 6.3913e-06)
(1.32199e-05 -1.13636e-05 3.839e-06)
(1.41254e-05 -1.2334e-05 3.09924e-06)
(1.41432e-05 -1.21799e-05 3.92978e-06)
(1.48737e-05 -1.24328e-05 5.75339e-06)
(1.62671e-05 -1.39453e-05 4.5982e-06)
(1.48285e-05 -1.2675e-05 4.46193e-06)
(1.50693e-05 -1.31706e-05 3.16701e-06)
(1.60468e-05 -1.38619e-05 4.09662e-06)
(1.50859e-05 -1.3013e-05 4.01562e-06)
(1.79717e-05 -1.63965e-05 -2.68236e-07)
(1.698e-05 -1.53528e-05 6.39254e-07)
(1.79769e-05 -1.62433e-05 6.49517e-07)
(2.00223e-05 -1.78973e-05 1.60703e-06)
(1.90063e-05 -1.68261e-05 2.49931e-06)
(1.8997e-05 -1.69872e-05 1.58435e-06)
(1.69887e-05 -1.52014e-05 1.53409e-06)
(1.79953e-05 -1.59304e-05 2.46053e-06)
(1.79854e-05 -1.60882e-05 1.56006e-06)
(1.31727e-05 -1.17953e-05 1.41271e-06)
(1.4111e-05 -1.24808e-05 2.27845e-06)
(1.40989e-05 -1.26236e-05 1.44577e-06)
(1.50303e-05 -1.37526e-05 -2.50466e-07)
(1.59991e-05 -1.44753e-05 6.28282e-07)
(1.50352e-05 -1.36116e-05 6.16575e-07)
(1.50559e-05 -1.33212e-05 2.32814e-06)
(1.6008e-05 -1.43277e-05 1.50642e-06)
(1.50443e-05 -1.34681e-05 1.47699e-06)
(1.82801e-05 -1.54336e-05 6.13473e-06)
(1.67552e-05 -1.4376e-05 4.64045e-06)
(1.82437e-05 -1.56893e-05 4.76094e-06)
(2.00509e-05 -1.73941e-05 4.37401e-06)
(1.90161e-05 -1.66623e-05 3.40054e-06)
(1.9028e-05 -1.64925e-05 4.31145e-06)
(1.70249e-05 -1.47254e-05 4.17285e-06)
(1.8006e-05 -1.57696e-05 3.34763e-06)
(1.8019e-05 -1.56026e-05 4.24443e-06)
(2.65633e-05 -2.28124e-05 6.17471e-06)
(2.4921e-05 -2.16598e-05 4.61724e-06)
(2.65458e-05 -2.30909e-05 4.67622e-06)
(2.84074e-05 -2.49205e-05 3.72565e-06)
(2.7298e-05 -2.41416e-05 2.66006e-06)
(2.73102e-05 -2.39536e-05 3.69967e-06)
(2.51361e-05 -2.20369e-05 3.63931e-06)
(2.62066e-05 -2.31787e-05 2.63871e-06)
(2.62195e-05 -2.29922e-05 3.67093e-06)
(2.08612e-05 -1.88132e-05 6.08807e-07)
(2.19119e-05 -1.95699e-05 1.56353e-06)
(2.1908e-05 -1.97435e-05 6.18252e-07)
(2.29744e-05 -2.10291e-05 -1.23903e-06)
(2.40357e-05 -2.18053e-05 -3.10797e-07)
(2.29679e-05 -2.08563e-05 -3.09388e-07)
(2.29693e-05 -2.05065e-05 1.58295e-06)
(2.40334e-05 -2.16291e-05 6.3537e-07)
(2.29657e-05 -2.06824e-05 6.27103e-07)
(2.28087e-05 -1.95054e-05 5.98064e-06)
(2.43837e-05 -2.11864e-05 4.59601e-06)
(2.27848e-05 -1.97771e-05 4.52549e-06)
(2.08932e-05 -1.82912e-05 3.4821e-06)
(2.19227e-05 -1.93944e-05 2.53185e-06)
(2.19384e-05 -1.92147e-05 3.5262e-06)
(2.40608e-05 -2.10884e-05 3.60471e-06)
(2.29796e-05 -2.0329e-05 2.56192e-06)
(2.29946e-05 -2.01474e-05 3.56704e-06)
(2.83854e-05 -2.54804e-05 6.62861e-07)
(2.72895e-05 -2.4326e-05 1.64681e-06)
(2.7287e-05 -2.45093e-05 6.56794e-07)
(2.62037e-05 -2.39031e-05 -1.26932e-06)
(2.51125e-05 -2.27613e-05 -3.1198e-07)
(2.61974e-05 -2.37235e-05 -3.12952e-07)
(2.61977e-05 -2.33616e-05 1.63284e-06)
(2.51101e-05 -2.2583e-05 6.43065e-07)
(2.61949e-05 -2.35433e-05 6.50202e-07)
(2.66643e-05 -2.27518e-05 6.99658e-06)
(2.29097e-05 -1.94492e-05 6.77989e-06)
(2.66773e-05 -2.28209e-05 6.71728e-06)
(2.5032e-05 -2.16671e-05 5.15486e-06)
(2.6658e-05 -2.30972e-05 5.21939e-06)
(2.86139e-05 -2.49285e-05 4.72869e-06)
(2.75114e-05 -2.41489e-05 3.70566e-06)
(2.75153e-05 -2.39626e-05 4.69731e-06)
(2.53379e-05 -2.20479e-05 4.62414e-06)
(2.64183e-05 -2.31869e-05 3.67806e-06)
(2.6423e-05 -2.30021e-05 4.66251e-06)
(2.10604e-05 -1.88177e-05 1.62813e-06)
(2.21182e-05 -1.9578e-05 2.60048e-06)
(2.21103e-05 -1.97477e-05 1.6477e-06)
(2.31577e-05 -2.10261e-05 -2.91834e-07)
(2.42339e-05 -2.18056e-05 6.97512e-07)
(2.31634e-05 -2.08566e-05 6.91007e-07)
(2.31783e-05 -2.0514e-05 2.62939e-06)
(2.42413e-05 -2.16326e-05 1.68246e-06)
(2.31709e-05 -2.06862e-05 1.66579e-06)
(2.29202e-05 -1.95171e-05 6.50855e-06)
(2.44942e-05 -2.1194e-05 5.13157e-06)
(2.28938e-05 -1.97857e-05 5.05427e-06)
(2.10866e-05 -1.83066e-05 4.43224e-06)
(2.21255e-05 -1.94061e-05 3.5386e-06)
(2.21341e-05 -1.9229e-05 4.48624e-06)
(2.42607e-05 -2.11004e-05 4.58206e-06)
(2.31849e-05 -2.03398e-05 3.57804e-06)
(2.31925e-05 -2.01605e-05 4.53614e-06)
(2.86023e-05 -2.54827e-05 1.73595e-06)
(2.75076e-05 -2.43311e-05 2.72305e-06)
(2.75019e-05 -2.45119e-05 1.72444e-06)
(2.63947e-05 -2.39007e-05 -3.02375e-07)
(2.53134e-05 -2.27615e-05 7.03476e-07)
(2.64007e-05 -2.37237e-05 7.08924e-07)
(2.64138e-05 -2.33673e-05 2.70277e-06)
(2.53205e-05 -2.25862e-05 1.69776e-06)
(2.64077e-05 -2.35462e-05 1.71173e-06)
(3.15362e-05 -2.7104e-05 6.8053e-06)
(3.54401e-05 -3.05466e-05 6.8826e-06)
(2.95101e-05 -2.58922e-05 3.74898e-06)
(3.06071e-05 -2.70597e-05 2.71243e-06)
(3.06176e-05 -2.68682e-05 3.76977e-06)
(3.15143e-05 -2.71725e-05 6.33973e-06)
(3.31754e-05 -2.89303e-05 4.83526e-06)
(3.15034e-05 -2.74569e-05 4.80574e-06)
(3.17192e-05 -2.80405e-05 2.72628e-06)
(3.28441e-05 -2.88309e-05 3.80425e-06)
(3.17292e-05 -2.78479e-05 3.78815e-06)
(3.50748e-05 -3.17655e-05 -1.31228e-06)
(3.39484e-05 -3.05828e-05 -3.14933e-07)
(3.5069e-05 -3.15741e-05 -3.14688e-07)
(3.73103e-05 -3.33684e-05 6.94739e-07)
(3.61884e-05 -3.21827e-05 1.71783e-06)
(3.61877e-05 -3.23751e-05 6.9218e-07)
(3.39452e-05 -3.03927e-05 6.85945e-07)
(3.50667e-05 -3.11915e-05 1.71239e-06)
(3.50658e-05 -3.13831e-05 6.89256e-07)
(2.94893e-05 -2.6456e-05 6.68417e-07)
(3.05998e-05 -2.7248e-05 1.68139e-06)
(3.0598e-05 -2.74356e-05 6.73484e-07)
(3.17196e-05 -2.87943e-05 -1.30173e-06)
(3.28298e-05 -2.95934e-05 -3.15072e-07)
(3.17137e-05 -2.86064e-05 -3.15095e-07)
(3.17123e-05 -2.82298e-05 1.69065e-06)
(3.28267e-05 -2.94044e-05 6.82227e-07)
(3.17107e-05 -2.84185e-05 6.78081e-07)
(3.54194e-05 -3.06162e-05 6.41318e-06)
(3.37339e-05 -2.94226e-05 4.8436e-06)
(3.5413e-05 -3.09038e-05 4.86527e-06)
(3.73241e-05 -3.2786e-05 3.84861e-06)
(3.61941e-05 -3.19901e-05 2.76612e-06)
(3.62022e-05 -3.17945e-05 3.84023e-06)
(3.39616e-05 -2.98166e-05 3.8182e-06)
(3.50726e-05 -3.09995e-05 2.75829e-06)
(3.50812e-05 -3.08046e-05 3.83015e-06)
(3.16149e-05 -2.71075e-05 7.17993e-06)
(3.55195e-05 -3.05487e-05 7.26087e-06)
(2.9718e-05 -2.58994e-05 4.7568e-06)
(3.08252e-05 -2.70649e-05 3.77286e-06)
(3.08267e-05 -2.68745e-05 4.7818e-06)
(3.16305e-05 -2.71775e-05 6.89444e-06)
(3.32914e-05 -2.89333e-05 5.39291e-06)
(3.16187e-05 -2.74606e-05 5.36079e-06)
(3.19386e-05 -2.8045e-05 3.79048e-06)
(3.30553e-05 -2.88356e-05 4.82311e-06)
(3.19394e-05 -2.78534e-05 4.80384e-06)
(3.52794e-05 -3.17645e-05 -3.18378e-07)
(3.4164e-05 -3.05827e-05 7.34742e-07)
(3.52859e-05 -3.1574e-05 7.36968e-07)
(3.75383e-05 -3.33689e-05 1.79154e-06)
(3.64178e-05 -3.21842e-05 2.82297e-06)
(3.64146e-05 -3.23758e-05 1.78756e-06)
(3.417e-05 -3.03938e-05 1.77736e-06)
(3.52952e-05 -3.11933e-05 2.81564e-06)
(3.52917e-05 -3.13839e-05 1.78285e-06)
(2.97081e-05 -2.6458e-05 1.74629e-06)
(3.08232e-05 -2.72516e-05 2.77256e-06)
(3.08185e-05 -2.74373e-05 1.75555e-06)
(3.19203e-05 -2.87929e-05 -3.14267e-07)
(3.30441e-05 -2.95934e-05 7.32198e-07)
(3.19266e-05 -2.86064e-05 7.29314e-07)
(3.19371e-05 -2.82329e-05 2.78559e-06)
(3.30502e-05 -2.94057e-05 1.77102e-06)
(3.19328e-05 -2.842e-05 1.76377e-06)
(3.55368e-05 -3.06191e-05 6.97324e-06)
(3.38501e-05 -2.94254e-05 5.40199e-06)
(3.55298e-05 -3.09059e-05 5.42553e-06)
(3.75385e-05 -3.27882e-05 4.87588e-06)
(3.64175e-05 -3.19923e-05 3.84058e-06)
(3.6416e-05 -3.17973e-05 4.86596e-06)
(3.41738e-05 -2.98206e-05 4.83976e-06)
(3.52953e-05 -3.10022e-05 3.83083e-06)
(3.52942e-05 -3.08079e-05 4.85398e-06)
(4.43885e-05 -3.85666e-05 6.46611e-06)
(4.2702e-05 -3.73585e-05 4.90827e-06)
(4.43932e-05 -3.88634e-05 4.91155e-06)
(4.66532e-05 -4.09772e-05 4.39002e-06)
(4.52024e-05 -3.99843e-05 2.79303e-06)
(4.52102e-05 -3.97873e-05 3.87263e-06)
(4.29331e-05 -3.77592e-05 3.87069e-06)
(4.40543e-05 -3.89609e-05 2.79254e-06)
(4.4061e-05 -3.8763e-05 3.8726e-06)
(3.84333e-05 -3.43628e-05 6.96949e-07)
(3.95565e-05 -3.51638e-05 1.72955e-06)
(3.95562e-05 -3.53579e-05 6.98835e-07)
(4.06878e-05 -3.67428e-05 -1.31949e-06)
(4.1804e-05 -3.75447e-05 -3.1206e-07)
(4.06821e-05 -3.65479e-05 -3.12554e-07)
(4.06787e-05 -3.6159e-05 1.73215e-06)
(4.18003e-05 -3.73499e-05 7.01733e-07)
(4.06785e-05 -3.63536e-05 7.00418e-07)
(4.0463e-05 -3.50782e-05 6.45495e-06)
(4.21417e-05 -3.68605e-05 4.90709e-06)
(4.04601e-05 -3.5368e-05 4.90182e-06)
(3.84464e-05 -3.37787e-05 3.85544e-06)
(3.95614e-05 -3.49695e-05 2.78253e-06)
(3.95685e-05 -3.47724e-05 3.86087e-06)
(4.18114e-05 -3.67621e-05 3.86827e-06)
(4.06834e-05 -3.59644e-05 2.78602e-06)
(4.06902e-05 -3.57669e-05 3.86508e-06)
(4.66441e-05 -4.16657e-05 7.18738e-07)
(4.51964e-05 -4.01787e-05 1.7369e-06)
(4.51967e-05 -4.03749e-05 7.02418e-07)
(4.40601e-05 -3.97441e-05 -1.32025e-06)
(4.29262e-05 -3.8543e-05 -3.1157e-07)
(4.4054e-05 -3.95476e-05 -3.11455e-07)
(4.40494e-05 -3.9156e-05 1.73707e-06)
(4.29224e-05 -3.83478e-05 7.0283e-07)
(4.40496e-05 -3.93516e-05 7.03491e-07)
(4.4485e-05 -3.84939e-05 7.31471e-06)
(4.05625e-05 -3.50084e-05 7.30595e-06)
(4.45068e-05 -3.8567e-05 7.02817e-06)
(4.28204e-05 -3.73587e-05 5.47209e-06)
(4.45118e-05 -3.88634e-05 5.47562e-06)
(4.67669e-05 -4.09767e-05 4.93201e-06)
(4.543e-05 -3.9984e-05 3.87476e-06)
(4.54279e-05 -3.97871e-05 4.90797e-06)
(4.31495e-05 -3.77595e-05 4.90136e-06)
(4.42812e-05 -3.89608e-05 3.87176e-06)
(4.42776e-05 -3.8763e-05 4.90342e-06)
(3.86621e-05 -3.43631e-05 1.79486e-06)
(3.97881e-05 -3.51644e-05 2.83833e-06)
(3.97856e-05 -3.53581e-05 1.79756e-06)
(4.08966e-05 -3.67423e-05 -3.21445e-07)
(4.20255e-05 -3.75444e-05 7.44786e-07)
(4.09032e-05 -3.65477e-05 7.44088e-07)
(4.09109e-05 -3.61594e-05 2.84158e-06)
(4.20308e-05 -3.73498e-05 1.80132e-06)
(4.09086e-05 -3.63537e-05 1.79971e-06)
(4.05812e-05 -3.50791e-05 7.01825e-06)
(4.226e-05 -3.68609e-05 5.47083e-06)
(4.05782e-05 -3.53686e-05 5.46517e-06)
(3.86613e-05 -3.37804e-05 4.88393e-06)
(3.97868e-05 -3.49705e-05 3.86073e-06)
(3.97839e-05 -3.47737e-05 4.89031e-06)
(4.20276e-05 -3.67627e-05 4.89884e-06)
(4.09093e-05 -3.5965e-05 3.86491e-06)
(4.09061e-05 -3.57678e-05 4.89522e-06)
(4.67585e-05 -4.16654e-05 1.26219e-06)
(4.54301e-05 -4.01783e-05 2.84765e-06)
(4.54283e-05 -4.03744e-05 1.80327e-06)
(4.42701e-05 -3.97437e-05 -3.2222e-07)
(4.31481e-05 -3.85426e-05 7.45157e-07)
(4.42762e-05 -3.95472e-05 7.4514e-07)
(4.42827e-05 -3.91557e-05 2.84659e-06)
(4.31532e-05 -3.83476e-05 1.80235e-06)
(4.42807e-05 -3.93513e-05 1.80276e-06)
(2.82245e-05 -2.41873e-05 6.69913e-06)
(2.12621e-05 -1.80556e-05 6.31368e-06)
(4.60941e-05 -3.99855e-05 7.00714e-06)
(3.88014e-05 -3.3518e-05 6.91684e-06)
(1.34111e-05 -1.11279e-05 5.48895e-06)
(1.97165e-05 -1.66931e-05 6.19044e-06)
(1.32757e-05 -1.12527e-05 4.26294e-06)
(1.33811e-05 -1.11835e-05 5.10649e-06)
(1.3307e-05 -1.11857e-05 4.70242e-06)
(1.33659e-05 -1.12671e-05 4.68119e-06)
(1.95815e-05 -1.68371e-05 4.81849e-06)
(1.96896e-05 -1.67553e-05 5.76238e-06)
(2.01222e-05 -1.72155e-05 5.34781e-06)
(2.01923e-05 -1.72985e-05 5.32231e-06)
(1.96102e-05 -1.67632e-05 5.31072e-06)
(1.96796e-05 -1.68462e-05 5.28548e-06)
(2.00937e-05 -1.72898e-05 4.85245e-06)
(1.34791e-05 -1.11435e-05 5.7978e-06)
(1.97902e-05 -1.67036e-05 6.53543e-06)
(1.35481e-05 -1.13078e-05 5.53871e-06)
(1.34808e-05 -1.12056e-05 5.56409e-06)
(1.34626e-05 -1.12866e-05 5.13435e-06)
(1.35472e-05 -1.12377e-05 5.81163e-06)
(1.98805e-05 -1.68739e-05 6.24221e-06)
(1.97982e-05 -1.67701e-05 6.27334e-06)
(2.0299e-05 -1.73111e-05 5.83115e-06)
(2.03857e-05 -1.7249e-05 6.59376e-06)
(1.97857e-05 -1.68592e-05 5.79124e-06)
(1.98724e-05 -1.6798e-05 6.54909e-06)
(2.03943e-05 -1.73253e-05 6.28485e-06)
(2.8093e-05 -2.43471e-05 5.22623e-06)
(2.82013e-05 -2.42547e-05 6.23957e-06)
(2.86673e-05 -2.47518e-05 5.77325e-06)
(2.87459e-05 -2.48343e-05 5.74456e-06)
(2.81184e-05 -2.4268e-05 5.75517e-06)
(2.81965e-05 -2.43506e-05 5.72659e-06)
(2.86422e-05 -2.48311e-05 5.2429e-06)
(2.11276e-05 -1.82032e-05 4.91674e-06)
(2.1236e-05 -1.81191e-05 5.8778e-06)
(2.06373e-05 -1.76705e-05 5.38357e-06)
(2.07081e-05 -1.77535e-05 5.35777e-06)
(2.11556e-05 -1.81281e-05 5.41804e-06)
(2.06091e-05 -1.77452e-05 4.88517e-06)
(2.1227e-05 -1.82112e-05 5.39199e-06)
(2.83022e-05 -2.41925e-05 7.06879e-06)
(2.13368e-05 -1.8065e-05 6.66478e-06)
(2.84113e-05 -2.43651e-05 6.75082e-06)
(2.83162e-05 -2.42619e-05 6.78694e-06)
(2.88592e-05 -2.48404e-05 6.2876e-06)
(2.89458e-05 -2.47679e-05 7.10316e-06)
(2.83096e-05 -2.4357e-05 6.26822e-06)
(2.83962e-05 -2.42851e-05 7.08165e-06)
(2.89612e-05 -2.48481e-05 6.77143e-06)
(2.14312e-05 -1.82362e-05 6.36546e-06)
(2.13461e-05 -1.81323e-05 6.39778e-06)
(2.08154e-05 -1.77657e-05 5.86958e-06)
(2.09021e-05 -1.77028e-05 6.63679e-06)
(2.09112e-05 -1.77795e-05 6.3259e-06)
(2.13348e-05 -1.82228e-05 5.90664e-06)
(2.14216e-05 -1.81592e-05 6.67823e-06)
(2.9875e-05 -2.56407e-05 6.75727e-06)
(3.712e-05 -3.20306e-05 6.90289e-06)
(2.97444e-05 -2.58026e-05 5.27346e-06)
(2.92176e-05 -2.52367e-05 5.7903e-06)
(2.92966e-05 -2.53192e-05 5.76152e-06)
(2.98525e-05 -2.57087e-05 6.29436e-06)
(2.91927e-05 -2.53163e-05 5.25863e-06)
(2.97692e-05 -2.57229e-05 5.80635e-06)
(2.98486e-05 -2.58053e-05 5.77751e-06)
(3.69927e-05 -3.21992e-05 5.39396e-06)
(3.70997e-05 -3.21006e-05 6.43269e-06)
(3.75759e-05 -3.26132e-05 5.94059e-06)
(3.76593e-05 -3.26945e-05 5.91232e-06)
(3.70154e-05 -3.21175e-05 5.93577e-06)
(3.70986e-05 -3.21988e-05 5.90736e-06)
(3.75533e-05 -3.2695e-05 5.39855e-06)
(2.99533e-05 -2.56451e-05 7.12965e-06)
(3.71996e-05 -3.20321e-05 7.28214e-06)
(3.0065e-05 -2.58177e-05 6.80916e-06)
(2.94102e-05 -2.53249e-05 6.30587e-06)
(2.94968e-05 -2.52519e-05 7.12345e-06)
(2.99681e-05 -2.57148e-05 6.84575e-06)
(2.95125e-05 -2.53323e-05 6.79085e-06)
(2.99625e-05 -2.58106e-05 6.3231e-06)
(3.00489e-05 -2.57372e-05 7.14254e-06)
(3.73201e-05 -3.22042e-05 6.95756e-06)
(3.72175e-05 -3.21027e-05 6.99421e-06)
(3.77757e-05 -3.26961e-05 6.46823e-06)
(3.78613e-05 -3.26175e-05 7.30214e-06)
(3.72149e-05 -3.22006e-05 6.46289e-06)
(3.73006e-05 -3.21223e-05 7.29638e-06)
(3.7881e-05 -3.26995e-05 6.96322e-06)
(4.60177e-05 -4.02092e-05 5.45461e-06)
(4.61257e-05 -4.00993e-05 6.55082e-06)
(4.65826e-05 -4.05872e-05 6.12328e-06)
(4.66654e-05 -4.06749e-05 6.04982e-06)
(4.60304e-05 -4.01134e-05 6.02366e-06)
(4.61387e-05 -4.02154e-05 5.99534e-06)
(4.6555e-05 -4.06814e-05 5.49212e-06)
(3.86746e-05 -3.36875e-05 5.40615e-06)
(3.87814e-05 -3.35882e-05 6.44629e-06)
(3.81364e-05 -3.31093e-05 5.94482e-06)
(3.822e-05 -3.31905e-05 5.91671e-06)
(3.8697e-05 -3.36056e-05 5.9485e-06)
(3.81139e-05 -3.31911e-05 5.4026e-06)
(3.87808e-05 -3.36867e-05 5.92055e-06)
(4.61717e-05 -3.99896e-05 7.35519e-06)
(3.88811e-05 -3.3519e-05 7.29681e-06)
(4.63449e-05 -4.02086e-05 7.01335e-06)
(4.62405e-05 -4.01027e-05 7.07951e-06)
(4.67764e-05 -4.06759e-05 6.57169e-06)
(4.68466e-05 -4.05893e-05 7.36864e-06)
(4.6256e-05 -4.02159e-05 6.55042e-06)
(4.63116e-05 -4.01162e-05 7.34718e-06)
(4.68772e-05 -4.06795e-05 7.03369e-06)
(3.9003e-05 -3.36909e-05 6.97264e-06)
(3.88995e-05 -3.35896e-05 7.00887e-06)
(3.83366e-05 -3.31918e-05 6.47296e-06)
(3.84221e-05 -3.3113e-05 7.30722e-06)
(3.8442e-05 -3.3195e-05 6.96823e-06)
(3.88974e-05 -3.36879e-05 6.47711e-06)
(3.89829e-05 -3.36089e-05 7.31165e-06)
(4.63502e-05 -4.14997e-05 2.14005e-07)
(4.67556e-05 -4.19609e-05 -3.05438e-07)
(4.62348e-05 -4.14946e-05 -3.05393e-07)
(4.68672e-05 -4.1964e-05 2.06186e-07)
(2.55043e-05 -2.17924e-05 6.57786e-06)
(2.38953e-05 -2.03755e-05 6.48936e-06)
(4.32819e-05 -3.74943e-05 6.93158e-06)
(4.16027e-05 -3.60018e-05 6.92888e-06)
(1.57509e-05 -1.31939e-05 5.79211e-06)
(1.72088e-05 -1.44808e-05 5.9537e-06)
(1.56153e-05 -1.33269e-05 4.50237e-06)
(1.57221e-05 -1.32524e-05 5.38977e-06)
(1.61272e-05 -1.36832e-05 5.01297e-06)
(1.61914e-05 -1.37656e-05 4.98989e-06)
(1.56456e-05 -1.32569e-05 4.96483e-06)
(1.60971e-05 -1.37537e-05 4.54634e-06)
(1.5709e-05 -1.33392e-05 4.94203e-06)
(1.70733e-05 -1.46182e-05 4.63039e-06)
(1.71807e-05 -1.45408e-05 5.54087e-06)
(1.6613e-05 -1.41131e-05 5.05968e-06)
(1.6678e-05 -1.41956e-05 5.03625e-06)
(1.7103e-05 -1.45466e-05 5.10498e-06)
(1.65831e-05 -1.41842e-05 4.58899e-06)
(1.71688e-05 -1.46293e-05 5.08127e-06)
(1.58215e-05 -1.32075e-05 6.11685e-06)
(1.72806e-05 -1.44932e-05 6.28674e-06)
(1.58993e-05 -1.33747e-05 5.8432e-06)
(1.58257e-05 -1.32716e-05 5.87083e-06)
(1.62929e-05 -1.3782e-05 5.47035e-06)
(1.63788e-05 -1.3727e-05 6.18923e-06)
(1.58098e-05 -1.33562e-05 5.41832e-06)
(1.58955e-05 -1.33021e-05 6.13084e-06)
(1.63832e-05 -1.38001e-05 5.89893e-06)
(1.73634e-05 -1.46618e-05 6.00524e-06)
(1.72864e-05 -1.45583e-05 6.03419e-06)
(1.67803e-05 -1.42116e-05 5.52074e-06)
(1.68663e-05 -1.41556e-05 6.24582e-06)
(1.72717e-05 -1.46447e-05 5.56965e-06)
(1.73579e-05 -1.45878e-05 6.30067e-06)
(1.68712e-05 -1.42292e-05 5.95289e-06)
(2.53716e-05 -2.19481e-05 5.12836e-06)
(2.548e-05 -2.18584e-05 6.12555e-06)
(2.48594e-05 -2.13955e-05 5.62414e-06)
(2.49347e-05 -2.14785e-05 5.59646e-06)
(2.53979e-05 -2.18703e-05 5.64878e-06)
(2.48328e-05 -2.1473e-05 5.10572e-06)
(2.54738e-05 -2.19532e-05 5.62093e-06)
(2.37619e-05 -2.05284e-05 5.05726e-06)
(2.38704e-05 -2.04407e-05 6.04248e-06)
(2.4323e-05 -2.09226e-05 5.59835e-06)
(2.43978e-05 -2.10056e-05 5.57088e-06)
(2.37888e-05 -2.04515e-05 5.57136e-06)
(2.42962e-05 -2.09998e-05 5.08204e-06)
(2.38631e-05 -2.05345e-05 5.54408e-06)
(2.55811e-05 -2.17991e-05 6.94177e-06)
(2.39714e-05 -2.03832e-05 6.84902e-06)
(2.56851e-05 -2.19714e-05 6.62948e-06)
(2.55934e-05 -2.18679e-05 6.66445e-06)
(2.50457e-05 -2.14872e-05 6.12779e-06)
(2.51326e-05 -2.14187e-05 6.9253e-06)
(2.55851e-05 -2.19615e-05 6.15421e-06)
(2.56719e-05 -2.18924e-05 6.95475e-06)