/*--------------------------------*- C++ -*----------------------------------*\
| =========                 |                                                 |
| \\      /  F ield         | OpenFOAM: The Open Source CFD Toolbox           |
|  \\    /   O peration     | Version:  2012                                  |
|   \\  /    A nd           | Website:  www.openfoam.com                      |
|    \\/     M anipulation  |                                                 |
\*---------------------------------------------------------------------------*/
FoamFile
{
    version     2.0;
    format      ascii;
    class       volVectorField;
    location    "0.104/solid";
    object      D_0_0_0;
}
// * * * * * * * * * * * * * * * * * * * * * * * * * * * * * * * * * * * * * //

dimensions      [0 1 0 0 0 0 0];


internalField   nonuniform List<vector> 
3125
(
(3.39579e-05 -2.46217e-05 7.96023e-06)
(2.44768e-05 -1.73536e-05 7.43371e-06)
(5.49768e-05 -4.09858e-05 8.41065e-06)
(4.51392e-05 -3.32992e-05 8.1881e-06)
(2.38685e-05 -1.68905e-05 7.38515e-06)
(2.33957e-05 -1.83832e-05 -1.34939e-06)
(1.53463e-05 -1.20817e-05 -1.19104e-06)
(2.38347e-05 -1.69732e-05 6.88976e-06)
(2.39658e-05 -1.69025e-05 7.73931e-06)
(2.36269e-05 -1.83787e-05 -4.01147e-07)
(1.55351e-05 -1.20749e-05 -3.50471e-07)
(2.39781e-05 -1.699e-05 7.41456e-06)
(3.39278e-05 -2.47128e-05 7.429e-06)
(2.46172e-05 -1.93385e-05 -1.36646e-06)
(2.44432e-05 -1.74369e-05 6.93521e-06)
(3.35e-05 -2.62841e-05 -1.45172e-06)
(3.40628e-05 -2.46275e-05 8.34381e-06)
(2.45747e-05 -1.73651e-05 7.79033e-06)
(3.40827e-05 -2.47209e-05 7.99713e-06)
(2.48534e-05 -1.93343e-05 -4.06706e-07)
(2.45876e-05 -1.74532e-05 7.46365e-06)
(3.37641e-05 -2.62817e-05 -4.35044e-07)
(3.46077e-05 -2.5123e-05 7.9831e-06)
(4.44773e-05 -3.27823e-05 8.18265e-06)
(3.45777e-05 -2.52144e-05 7.45052e-06)
(4.40391e-05 -3.4538e-05 -1.49023e-06)
(3.48034e-05 -2.73036e-05 -1.45952e-06)
(4.44499e-05 -3.28779e-05 7.63968e-06)
(3.47129e-05 -2.51284e-05 8.36787e-06)
(4.45859e-05 -3.27839e-05 8.57837e-06)
(3.47332e-05 -2.52221e-05 8.02041e-06)
(4.43215e-05 -3.45371e-05 -4.48589e-07)
(3.50706e-05 -2.73015e-05 -4.37709e-07)
(4.46107e-05 -3.28801e-05 8.22565e-06)
(5.50923e-05 -4.11823e-05 7.92571e-06)
(4.53654e-05 -3.55793e-05 -1.49193e-06)
(4.5112e-05 -3.3395e-05 7.64498e-06)
(5.50817e-05 -4.09975e-05 8.73833e-06)
(4.5248e-05 -3.33006e-05 8.58417e-06)
(5.52372e-05 -4.11913e-05 8.41088e-06)
(4.56492e-05 -3.55785e-05 -4.49245e-07)
(4.52729e-05 -3.33969e-05 8.23147e-06)
(2.94618e-05 -2.1164e-05 7.75945e-06)
(2.88285e-05 -2.06784e-05 7.7246e-06)
(5.04321e-05 -3.74476e-05 8.20912e-06)
(4.97711e-05 -3.69281e-05 8.20817e-06)
(1.91514e-05 -1.3316e-05 6.92932e-06)
(1.97251e-05 -1.3749e-05 6.99303e-06)
(1.53636e-05 -1.13365e-05 2.61046e-06)
(1.91157e-05 -1.33926e-05 6.46328e-06)
(1.8689e-05 -1.38776e-05 2.78997e-06)
(1.98283e-05 -1.55921e-05 -1.2901e-06)
(2.33896e-05 -1.77212e-05 1.8712e-06)
(1.9824e-05 -1.49724e-05 1.78077e-06)
(1.53446e-05 -1.1529e-05 1.63233e-06)
(1.86758e-05 -1.46899e-05 -1.26753e-06)
(1.86721e-05 -1.40858e-05 1.74672e-06)
(1.96896e-05 -1.38265e-05 6.52286e-06)
(2.34041e-05 -1.74955e-05 2.98461e-06)
(1.98403e-05 -1.47595e-05 2.84331e-06)
(1.9243e-05 -1.33316e-05 7.26036e-06)
(1.98175e-05 -1.37641e-05 7.32729e-06)
(1.5585e-05 -1.13615e-05 3.49593e-06)
(1.92505e-05 -1.34146e-05 6.95399e-06)
(1.8929e-05 -1.38987e-05 3.7351e-06)
(2.0043e-05 -1.55867e-05 -3.82004e-07)
(2.36546e-05 -1.77324e-05 2.91234e-06)
(2.00726e-05 -1.49861e-05 2.77488e-06)
(1.55673e-05 -1.15463e-05 2.54796e-06)
(1.88845e-05 -1.46841e-05 -3.74779e-07)
(1.89147e-05 -1.41004e-05 2.72295e-06)
(1.98256e-05 -1.38478e-05 7.01833e-06)
(2.36647e-05 -1.75117e-05 3.99376e-06)
(2.00859e-05 -1.47793e-05 3.80606e-06)
(2.94301e-05 -2.12519e-05 7.24043e-06)
(3.35004e-05 -2.52886e-05 3.23713e-06)
(2.96361e-05 -2.2299e-05 3.162e-06)
(2.46106e-05 -1.86638e-05 1.89758e-06)
(2.83619e-05 -2.22665e-05 -1.41002e-06)
(2.83539e-05 -2.15578e-05 1.96604e-06)
(2.87965e-05 -2.07659e-05 7.20775e-06)
(2.46244e-05 -1.84343e-05 3.0257e-06)
(2.8366e-05 -2.13181e-05 3.13197e-06)
(3.34904e-05 -2.5539e-05 2.03441e-06)
(2.9633e-05 -2.32603e-05 -1.42211e-06)
(2.96246e-05 -2.25416e-05 1.98548e-06)
(2.95639e-05 -2.11722e-05 8.13268e-06)
(2.89301e-05 -2.06871e-05 8.09605e-06)
(2.95808e-05 -2.12636e-05 7.79334e-06)
(3.37904e-05 -2.52964e-05 4.3273e-06)
(2.99169e-05 -2.23097e-05 4.22846e-06)
(2.48804e-05 -1.86742e-05 2.95227e-06)
(2.86115e-05 -2.22631e-05 -4.21037e-07)
(2.86368e-05 -2.15659e-05 3.05542e-06)
(2.89465e-05 -2.07781e-05 7.75803e-06)
(2.48896e-05 -1.84493e-05 4.04824e-06)
(2.86432e-05 -2.13299e-05 4.18884e-06)
(3.37872e-05 -2.55444e-05 3.1573e-06)
(2.98866e-05 -2.32572e-05 -4.25064e-07)
(2.99113e-05 -2.2549e-05 3.08453e-06)
(3.91923e-05 -2.867e-05 8.10703e-06)
(3.98511e-05 -2.91813e-05 8.11997e-06)
(3.48031e-05 -2.62983e-05 3.2575e-06)
(3.91637e-05 -2.87638e-05 7.56749e-06)
(3.87416e-05 -2.93573e-05 3.30607e-06)
(4.00651e-05 -3.14222e-05 -1.4816e-06)
(4.40271e-05 -3.37475e-05 2.10727e-06)
(4.00539e-05 -3.06447e-05 2.0884e-06)
(3.47935e-05 -2.65509e-05 2.04779e-06)
(3.87442e-05 -3.03876e-05 -1.47733e-06)
(3.87333e-05 -2.96156e-05 2.08005e-06)
(3.98227e-05 -2.92753e-05 7.57977e-06)
(4.40341e-05 -3.34838e-05 3.34582e-06)
(4.00618e-05 -3.03848e-05 3.31845e-06)
(3.92994e-05 -2.86734e-05 8.49838e-06)
(3.99585e-05 -2.91844e-05 8.51204e-06)
(3.50957e-05 -2.63052e-05 4.35401e-06)
(3.93221e-05 -2.87686e-05 8.14705e-06)
(3.9041e-05 -2.93619e-05 4.41741e-06)
(4.03422e-05 -3.14208e-05 -4.45429e-07)
(4.43413e-05 -3.3749e-05 3.26266e-06)
(4.03631e-05 -3.06474e-05 3.23604e-06)
(3.50932e-05 -2.65557e-05 3.17702e-06)
(3.90191e-05 -3.03861e-05 -4.43911e-07)
(3.90404e-05 -2.96187e-05 3.22404e-06)
(3.99815e-05 -2.92797e-05 8.16037e-06)
(4.43399e-05 -3.3486e-05 4.46879e-06)
(4.03631e-05 -3.03888e-05 4.43348e-06)
(5.04059e-05 -3.75445e-05 7.66633e-06)
(5.50652e-05 -4.21626e-05 3.34645e-06)
(5.066e-05 -3.86811e-05 3.36671e-06)
(4.53531e-05 -3.47854e-05 2.11173e-06)
(4.9342e-05 -3.87069e-05 -1.49444e-06)
(4.9329e-05 -3.79056e-05 2.12074e-06)
(4.97447e-05 -3.70247e-05 7.66522e-06)
(4.53598e-05 -3.45208e-05 3.3521e-06)
(4.9335e-05 -3.76387e-05 3.36428e-06)
(5.50634e-05 -4.22973e-05 2.72688e-06)
(5.06674e-05 -3.97517e-05 -1.4946e-06)
(5.06541e-05 -3.89484e-05 2.12262e-06)
(5.05416e-05 -3.7448e-05 8.60697e-06)
(4.98805e-05 -3.69285e-05 8.6059e-06)
(5.0568e-05 -3.7545e-05 8.25537e-06)
(5.5222e-05 -4.21622e-05 3.91492e-06)
(5.09703e-05 -3.86813e-05 4.49475e-06)
(4.56687e-05 -3.47865e-05 3.26881e-06)
(4.96288e-05 -3.87064e-05 -4.50392e-07)
(4.96475e-05 -3.79058e-05 3.28067e-06)
(4.99067e-05 -3.70253e-05 8.2541e-06)
(4.56668e-05 -3.45224e-05 4.47683e-06)
(4.96447e-05 -3.76392e-05 4.4921e-06)
(5.52213e-05 -4.22969e-05 3.29966e-06)
(5.09549e-05 -3.97512e-05 -4.50687e-07)
(5.09732e-05 -3.89484e-05 3.28269e-06)
(3.20188e-05 -2.31282e-05 7.88314e-06)
(2.63229e-05 -1.87616e-05 7.56869e-06)
(5.30898e-05 -3.9538e-05 8.22193e-06)
(4.71251e-05 -3.48525e-05 8.20017e-06)
(1.69088e-05 -1.16287e-05 6.65451e-06)
(2.2067e-05 -1.55217e-05 7.22844e-06)
(1.68722e-05 -1.17018e-05 6.20631e-06)
(1.6823e-05 -1.20165e-05 4.69526e-06)
(2.21895e-05 -1.74397e-05 -1.331e-06)
(2.3387e-05 -1.81646e-05 -2.87284e-07)
(2.21808e-05 -1.72258e-05 -2.84377e-07)
(1.53373e-05 -1.19011e-05 -2.60693e-07)
(1.64335e-05 -1.29336e-05 -1.21803e-06)
(1.64245e-05 -1.27469e-05 -2.65414e-07)
(2.20324e-05 -1.56023e-05 6.74309e-06)
(2.38008e-05 -1.73225e-05 5.2196e-06)
(2.19947e-05 -1.5944e-05 5.10642e-06)
(1.69971e-05 -1.16462e-05 6.97161e-06)
(2.21623e-05 -1.5535e-05 7.57464e-06)
(1.7002e-05 -1.17265e-05 6.67649e-06)
(1.69474e-05 -1.20349e-05 5.16865e-06)
(2.24155e-05 -1.74349e-05 -3.95181e-07)
(2.3634e-05 -1.81652e-05 7.11961e-07)
(2.24224e-05 -1.72264e-05 7.01435e-07)
(1.55409e-05 -1.19022e-05 6.2252e-07)
(1.66292e-05 -1.29272e-05 -3.59016e-07)
(1.66351e-05 -1.27478e-05 6.37631e-07)
(2.21729e-05 -1.5621e-05 7.25616e-06)
(2.39406e-05 -1.73351e-05 5.74659e-06)
(2.21311e-05 -1.59579e-05 5.62194e-06)
(3.1988e-05 -2.3218e-05 7.35653e-06)
(3.39109e-05 -2.50917e-05 5.63723e-06)
(3.19681e-05 -2.35924e-05 5.58033e-06)
(2.46085e-05 -1.91155e-05 -2.89912e-07)
(2.58528e-05 -2.03048e-05 -1.38222e-06)
(2.58442e-05 -2.00775e-05 -2.92268e-07)
(2.629e-05 -1.88468e-05 7.06163e-06)
(2.44103e-05 -1.77885e-05 5.25422e-06)
(2.62608e-05 -1.92051e-05 5.35202e-06)
(3.34918e-05 -2.60363e-05 -3.01142e-07)
(3.22031e-05 -2.52699e-05 -1.44292e-06)
(3.21948e-05 -2.5025e-05 -3.00243e-07)
(3.21226e-05 -2.3135e-05 8.26273e-06)
(2.64225e-05 -1.87719e-05 7.93219e-06)
(3.21413e-05 -2.32276e-05 7.91879e-06)
(3.40641e-05 -2.50977e-05 6.20651e-06)
(3.21194e-05 -2.35995e-05 6.14392e-06)
(2.48606e-05 -1.9116e-05 7.21782e-07)
(2.60938e-05 -2.03008e-05 -4.11869e-07)
(2.61011e-05 -2.0078e-05 7.3092e-07)
(2.6437e-05 -1.88612e-05 7.60019e-06)
(2.45512e-05 -1.78006e-05 5.7848e-06)
(2.64047e-05 -1.92159e-05 5.89249e-06)
(3.37722e-05 -2.60364e-05 7.7258e-07)
(3.24639e-05 -2.52673e-05 -4.32056e-07)
(3.24719e-05 -2.50252e-05 7.67089e-07)
(3.65656e-05 -2.66355e-05 8.0437e-06)
(4.24924e-05 -3.12349e-05 8.16138e-06)
(3.45615e-05 -2.55944e-05 5.65394e-06)
(3.65363e-05 -2.67281e-05 7.50763e-06)
(3.65229e-05 -2.71119e-05 5.6992e-06)
(4.27132e-05 -3.34978e-05 -1.48799e-06)
(4.40313e-05 -3.42742e-05 -3.01978e-07)
(4.27054e-05 -3.32353e-05 -3.02345e-07)
(3.47953e-05 -2.70531e-05 -3.01834e-07)
(3.61125e-05 -2.83278e-05 -1.46634e-06)
(3.61045e-05 -2.80748e-05 -3.02327e-07)
(4.24647e-05 -3.13299e-05 7.61921e-06)
(4.44447e-05 -3.32717e-05 5.80682e-06)
(4.24575e-05 -3.17216e-05 5.78928e-06)
(3.66717e-05 -2.66401e-05 8.43165e-06)
(4.26005e-05 -3.12371e-05 8.5558e-06)
(3.47154e-05 -2.56001e-05 6.22493e-06)
(3.66931e-05 -2.67344e-05 8.08219e-06)
(3.66784e-05 -2.71166e-05 6.2747e-06)
(4.29941e-05 -3.34968e-05 -4.47749e-07)
(4.43303e-05 -3.4274e-05 7.99905e-07)
(4.30028e-05 -3.32352e-05 7.97854e-07)
(3.50788e-05 -2.70532e-05 7.77546e-07)
(3.63825e-05 -2.83259e-05 -4.40066e-07)
(3.63908e-05 -2.80749e-05 7.82017e-07)
(4.26246e-05 -3.1333e-05 8.20327e-06)
(4.46049e-05 -3.32733e-05 6.39321e-06)
(4.26168e-05 -3.17239e-05 6.37387e-06)
(5.307e-05 -3.96399e-05 7.68107e-06)
(5.50725e-05 -4.16198e-05 5.84842e-06)
(5.30787e-05 -4.00483e-05 5.8382e-06)
(4.53576e-05 -3.53142e-05 -3.01542e-07)
(4.66915e-05 -3.66213e-05 -1.49316e-06)
(4.66838e-05 -3.63552e-05 -3.01053e-07)
(4.70983e-05 -3.49487e-05 7.65689e-06)
(4.5107e-05 -3.37891e-05 5.81141e-06)
(4.70948e-05 -3.53444e-05 5.82245e-06)
(5.50614e-05 -4.28366e-05 2.72228e-07)
(5.33475e-05 -4.1606e-05 -3.02114e-07)
(5.31987e-05 -3.95388e-05 8.61449e-06)
(4.72342e-05 -3.48534e-05 8.59713e-06)
(5.32316e-05 -3.96407e-05 8.26459e-06)
(5.52343e-05 -4.1619e-05 6.43856e-06)
(5.32411e-05 -4.00482e-05 6.42842e-06)
(4.5658e-05 -3.5314e-05 8.01645e-07)
(4.69765e-05 -3.66207e-05 -4.4974e-07)
(4.69854e-05 -3.6355e-05 8.0309e-07)
(4.72597e-05 -3.49499e-05 8.24465e-06)
(4.52675e-05 -3.37906e-05 6.39828e-06)
(4.7256e-05 -3.53454e-05 6.4105e-06)
(5.52165e-05 -4.28363e-05 8.33937e-07)
(5.36535e-05 -4.16054e-05 8.06239e-07)
(3.13763e-05 -2.2634e-05 7.85452e-06)
(2.69449e-05 -1.92368e-05 7.61019e-06)
(5.24199e-05 -3.90116e-05 8.2142e-06)
(4.77869e-05 -3.5371e-05 8.20293e-06)
(1.74613e-05 -1.20435e-05 6.72623e-06)
(2.14747e-05 -1.50727e-05 7.17247e-06)
(1.53911e-05 -1.11377e-05 3.61528e-06)
(1.64493e-05 -1.21651e-05 2.6736e-06)
(1.64759e-05 -1.19609e-05 3.70179e-06)
(1.74249e-05 -1.21175e-05 6.27337e-06)
(1.90718e-05 -1.37202e-05 4.89211e-06)
(1.73769e-05 -1.24356e-05 4.74608e-06)
(1.75583e-05 -1.30124e-05 2.73342e-06)
(1.87136e-05 -1.36635e-05 3.8611e-06)
(1.75838e-05 -1.28032e-05 3.78371e-06)
(2.1e-05 -1.65091e-05 -1.31125e-06)
(1.98194e-05 -1.53883e-05 -2.77696e-07)
(2.09912e-05 -1.63001e-05 -2.81182e-07)
(2.33844e-05 -1.79443e-05 7.81833e-07)
(2.2184e-05 -1.67911e-05 1.84297e-06)
(2.21784e-05 -1.701e-05 7.69248e-07)
(1.98175e-05 -1.51821e-05 7.41672e-07)
(2.09951e-05 -1.58745e-05 1.81284e-06)
(2.0989e-05 -1.60889e-05 7.55866e-07)
(1.53364e-05 -1.17173e-05 6.76453e-07)
(1.6431e-05 -1.2363e-05 1.67253e-06)
(1.64233e-05 -1.25571e-05 6.94052e-07)
(1.75437e-05 -1.38034e-05 -1.24352e-06)
(1.86669e-05 -1.44915e-05 -2.73909e-07)
(1.75348e-05 -1.36107e-05 -2.69818e-07)
(1.75407e-05 -1.32157e-05 1.71065e-06)
(1.86652e-05 -1.42905e-05 7.26647e-07)
(1.75333e-05 -1.34152e-05 7.10779e-07)
(2.144e-05 -1.51525e-05 6.69072e-06)
(1.96468e-05 -1.4157e-05 4.93732e-06)
(2.14012e-05 -1.54916e-05 5.06661e-06)
(2.3425e-05 -1.72643e-05 4.12704e-06)
(2.21991e-05 -1.65694e-05 2.94056e-06)
(2.22209e-05 -1.63422e-05 4.06693e-06)
(1.9864e-05 -1.45408e-05 3.93405e-06)
(2.10108e-05 -1.56571e-05 2.89348e-06)
(2.10335e-05 -1.5434e-05 4.00263e-06)
(1.75504e-05 -1.20606e-05 7.04698e-06)
(2.15694e-05 -1.50864e-05 7.51583e-06)
(1.5607e-05 -1.1168e-05 4.45671e-06)
(1.66772e-05 -1.21887e-05 3.58012e-06)
(1.66977e-05 -1.19896e-05 4.56353e-06)
(1.7556e-05 -1.21416e-05 6.74891e-06)
(1.92019e-05 -1.37366e-05 5.38568e-06)
(1.75028e-05 -1.24534e-05 5.22477e-06)
(1.77924e-05 -1.30348e-05 3.65982e-06)
(1.89465e-05 -1.36891e-05 4.76012e-06)
(1.78113e-05 -1.28303e-05 4.66464e-06)
(2.12205e-05 -1.65039e-05 -3.88803e-07)
(2.00496e-05 -1.5389e-05 6.78201e-07)
(2.12272e-05 -1.63008e-05 6.90187e-07)
(2.3644e-05 -1.79501e-05 1.81723e-06)
(2.24438e-05 -1.68031e-05 2.86951e-06)
(2.24327e-05 -1.70162e-05 1.79042e-06)
(2.00603e-05 -1.51893e-05 1.7312e-06)
(2.12494e-05 -1.58874e-05 2.82372e-06)
(2.12377e-05 -1.60956e-05 1.76176e-06)
(1.55524e-05 -1.17263e-05 1.58926e-06)
(1.66607e-05 -1.23794e-05 2.60955e-06)
(1.66465e-05 -1.25656e-05 1.62778e-06)
(1.77461e-05 -1.37973e-05 -3.67117e-07)
(1.88908e-05 -1.44923e-05 6.65456e-07)
(1.77522e-05 -1.36116e-05 6.51938e-07)
(1.7777e-05 -1.32311e-05 2.66786e-06)
(1.89017e-05 -1.42981e-05 1.69871e-06)
(1.77633e-05 -1.34232e-05 1.66425e-06)
(2.15793e-05 -1.51719e-05 7.1996e-06)
(1.97782e-05 -1.41728e-05 5.43559e-06)
(2.15364e-05 -1.5506e-05 5.57801e-06)
(2.36767e-05 -1.7284e-05 5.08793e-06)
(2.2455e-05 -1.65868e-05 3.9353e-06)
(2.24683e-05 -1.63633e-05 5.01388e-06)
(2.01019e-05 -1.45648e-05 4.85009e-06)
(2.12616e-05 -1.56757e-05 3.87276e-06)
(2.12763e-05 -1.54566e-05 4.93464e-06)
(3.13452e-05 -2.27234e-05 7.32965e-06)
(2.94061e-05 -2.16198e-05 5.49003e-06)
(3.13246e-05 -2.30964e-05 5.55961e-06)
(3.3515e-05 -2.50336e-05 4.46966e-06)
(3.22044e-05 -2.4285e-05 3.21449e-06)
(3.22197e-05 -2.40323e-05 4.43918e-06)
(2.96529e-05 -2.20515e-05 4.36825e-06)
(3.0916e-05 -2.32882e-05 3.18948e-06)
(3.0932e-05 -2.3038e-05 4.40542e-06)
(2.46058e-05 -1.8891e-05 7.93641e-07)
(2.58458e-05 -1.96181e-05 1.92214e-06)
(2.58413e-05 -1.9849e-05 8.0469e-07)
(2.71014e-05 -2.1281e-05 -1.39673e-06)
(2.83534e-05 -2.20316e-05 -2.96192e-07)
(2.70929e-05 -2.10498e-05 -2.94357e-07)
(2.70939e-05 -2.0583e-05 1.94495e-06)
(2.83501e-05 -2.17957e-05 8.24596e-07)
(2.70898e-05 -2.08176e-05 8.15002e-07)
(2.69122e-05 -1.93226e-05 7.10051e-06)
(2.87717e-05 -2.11321e-05 5.46497e-06)
(2.68839e-05 -1.96829e-05 5.38172e-06)
(2.46445e-05 -1.81995e-05 4.18304e-06)
(2.5859e-05 -1.93849e-05 3.06391e-06)
(2.58782e-05 -1.91466e-05 4.23506e-06)
(2.83836e-05 -2.10735e-05 4.32755e-06)
(2.71066e-05 -2.03465e-05 3.09931e-06)
(2.71249e-05 -2.0105e-05 4.28319e-06)
(3.34879e-05 -2.57883e-05 8.56251e-07)
(3.21939e-05 -2.4533e-05 2.01961e-06)
(3.21911e-05 -2.47798e-05 8.49298e-07)
(3.09138e-05 -2.42617e-05 -1.43307e-06)
(2.96246e-05 -2.30219e-05 -2.97778e-07)
(3.09054e-05 -2.40199e-05 -2.99125e-07)
(3.09049e-05 -2.35336e-05 2.00332e-06)
(2.96212e-05 -2.27827e-05 8.33495e-07)
(3.09018e-05 -2.37776e-05 8.41722e-07)
(3.14796e-05 -2.26412e-05 8.23263e-06)
(2.7045e-05 -1.92466e-05 7.97581e-06)
(3.14979e-05 -2.27335e-05 7.88974e-06)
(2.95544e-05 -2.16285e-05 6.04452e-06)
(3.14751e-05 -2.31039e-05 6.12109e-06)
(3.37932e-05 -2.50432e-05 5.50918e-06)
(3.24915e-05 -2.42937e-05 4.29757e-06)
(3.24953e-05 -2.4043e-05 5.47179e-06)
(2.99228e-05 -2.20645e-05 5.3847e-06)
(3.12e-05 -2.32979e-05 4.26466e-06)
(3.12048e-05 -2.30499e-05 5.43034e-06)
(2.48705e-05 -1.88963e-05 1.84224e-06)
(2.61202e-05 -1.96277e-05 2.98937e-06)
(2.61108e-05 -1.9854e-05 1.86549e-06)
(2.73468e-05 -2.12774e-05 -4.16643e-07)
(2.86191e-05 -2.20319e-05 7.47226e-07)
(2.73543e-05 -2.10502e-05 7.39394e-07)
(2.73727e-05 -2.05919e-05 3.02373e-06)
(2.86284e-05 -2.17999e-05 1.90691e-06)
(2.73638e-05 -2.08221e-05 1.88703e-06)
(2.706e-05 -1.93365e-05 7.64219e-06)
(2.89191e-05 -2.11412e-05 6.01689e-06)
(2.70287e-05 -1.96932e-05 5.92525e-06)
(2.49003e-05 -1.82177e-05 5.1569e-06)
(2.61284e-05 -1.93988e-05 4.09884e-06)
(2.61379e-05 -1.91635e-05 5.22092e-06)
(2.86503e-05 -2.10878e-05 5.33468e-06)
(2.738e-05 -2.03593e-05 4.14567e-06)
(2.73882e-05 -2.01205e-05 5.28014e-06)
(3.37807e-05 -2.57911e-05 1.97097e-06)
(3.24875e-05 -2.4539e-05 3.13537e-06)
(3.24806e-05 -2.47828e-05 1.95716e-06)
(3.11711e-05 -2.42589e-05 -4.28735e-07)
(2.98944e-05 -2.30221e-05 7.54436e-07)
(3.1179e-05 -2.40202e-05 7.6105e-07)
(3.11952e-05 -2.35403e-05 3.11115e-06)
(2.99034e-05 -2.27865e-05 1.92519e-06)
(3.11879e-05 -2.3781e-05 1.94192e-06)
(3.72208e-05 -2.71424e-05 8.06133e-06)
(4.18314e-05 -3.07204e-05 8.15251e-06)
(3.4817e-05 -2.60412e-05 4.49701e-06)
(3.61114e-05 -2.73134e-05 3.27571e-06)
(3.61247e-05 -2.70544e-05 4.52137e-06)
(3.71916e-05 -2.72353e-05 7.52427e-06)
(3.91534e-05 -2.91516e-05 5.74702e-06)
(3.71788e-05 -2.762e-05 5.71227e-06)
(3.74245e-05 -2.83332e-05 3.29187e-06)
(3.87537e-05 -2.90948e-05 4.5617e-06)
(3.74372e-05 -2.80724e-05 4.54288e-06)
(4.13883e-05 -3.2459e-05 -1.48513e-06)
(4.00572e-05 -3.11629e-05 -3.02766e-07)
(4.13805e-05 -3.21981e-05 -3.02615e-07)
(4.40266e-05 -3.4011e-05 8.92521e-07)
(4.27015e-05 -3.27112e-05 2.10194e-06)
(4.27008e-05 -3.29735e-05 8.89622e-07)
(4.00527e-05 -3.09042e-05 8.82553e-07)
(4.13769e-05 -3.16768e-05 2.09567e-06)
(4.13759e-05 -3.19377e-05 8.86308e-07)
(3.47913e-05 -2.68026e-05 8.62604e-07)
(3.61023e-05 -2.75681e-05 2.05981e-06)
(3.61003e-05 -2.7822e-05 8.68384e-07)
(3.74264e-05 -2.9356e-05 -1.47227e-06)
(3.87362e-05 -3.01303e-05 -3.02778e-07)
(3.74184e-05 -2.91008e-05 -3.02637e-07)
(3.74158e-05 -2.85899e-05 2.07054e-06)
(3.87319e-05 -2.98734e-05 8.78332e-07)
(3.74142e-05 -2.88458e-05 8.73618e-07)
(4.18035e-05 -3.08151e-05 7.61073e-06)
(3.98129e-05 -2.96639e-05 5.75683e-06)
(4.17959e-05 -3.12063e-05 5.7823e-06)
(4.40442e-05 -3.32163e-05 4.61342e-06)
(4.27088e-05 -3.24486e-05 3.3382e-06)
(4.27193e-05 -3.21821e-05 4.60368e-06)
(4.00734e-05 -3.01209e-05 4.578e-06)
(4.13845e-05 -3.14154e-05 3.32912e-06)
(4.13955e-05 -3.11502e-05 4.59193e-06)
(3.73272e-05 -2.71467e-05 8.45022e-06)
(4.19393e-05 -3.07228e-05 8.54641e-06)
(3.50976e-05 -2.60497e-05 5.54271e-06)
(3.64065e-05 -2.73195e-05 4.37782e-06)
(3.64075e-05 -2.70619e-05 5.57254e-06)
(3.73489e-05 -2.72412e-05 8.10021e-06)
(3.93108e-05 -2.91552e-05 6.32732e-06)
(3.73349e-05 -2.76244e-05 6.2891e-06)
(3.77219e-05 -2.83386e-05 4.39891e-06)
(3.90403e-05 -2.91005e-05 5.62191e-06)
(3.7722e-05 -2.8079e-05 5.59888e-06)
(4.16674e-05 -3.24578e-05 -4.46702e-07)
(4.03508e-05 -3.11629e-05 7.92713e-07)
(4.1676e-05 -3.2198e-05 7.95464e-07)
(4.43377e-05 -3.40117e-05 2.03808e-06)
(4.30142e-05 -3.2713e-05 3.25523e-06)
(4.30103e-05 -3.29743e-05 2.03325e-06)
(4.03586e-05 -3.09055e-05 2.02091e-06)
(4.16879e-05 -3.1679e-05 3.2464e-06)
(4.16837e-05 -3.19388e-05 2.02755e-06)
(3.50872e-05 -2.68051e-05 1.98342e-06)
(3.64047e-05 -2.75723e-05 3.19464e-06)
(3.6399e-05 -2.78241e-05 1.99457e-06)
(3.7699e-05 -2.93543e-05 -4.42128e-07)
(3.90276e-05 -3.01303e-05 7.89573e-07)
(3.77074e-05 -2.91008e-05 7.86016e-07)
(3.77207e-05 -2.85935e-05 3.21028e-06)
(3.90356e-05 -2.98749e-05 2.01324e-06)
(3.77154e-05 -2.88476e-05 2.00449e-06)
(4.19632e-05 -3.08185e-05 8.19403e-06)
(3.99708e-05 -2.96672e-05 6.33813e-06)
(4.19549e-05 -3.12088e-05 6.36618e-06)
(4.43365e-05 -3.3219e-05 5.68516e-06)
(4.30133e-05 -3.24513e-05 4.459e-06)
(4.30105e-05 -3.21854e-05 5.67325e-06)
(4.03617e-05 -3.01257e-05 5.64185e-06)
(4.16874e-05 -3.14187e-05 4.44729e-06)
(4.16853e-05 -3.11542e-05 5.65889e-06)
(5.23966e-05 -3.91108e-05 7.67235e-06)
(5.04047e-05 -3.79425e-05 5.83263e-06)
(5.24022e-05 -3.95152e-05 5.8364e-06)
(5.50719e-05 -4.17572e-05 5.21867e-06)
(5.33477e-05 -4.08001e-05 3.3693e-06)
(5.33579e-05 -4.05298e-05 4.64127e-06)
(5.06685e-05 -3.841e-05 4.63887e-06)
(5.19918e-05 -3.97302e-05 3.3686e-06)
(5.20006e-05 -3.94591e-05 4.64104e-06)
(4.53528e-05 -3.505e-05 8.95024e-07)
(4.6679e-05 -3.58246e-05 2.11541e-06)
(4.66788e-05 -3.609e-05 8.97159e-07)
(4.80171e-05 -3.76639e-05 -1.49398e-06)
(4.93343e-05 -3.84393e-05 -3.00002e-07)
(4.80094e-05 -3.73969e-05 -3.00537e-07)
(4.80044e-05 -3.68646e-05 2.11838e-06)
(4.93291e-05 -3.81725e-05 9.00436e-07)
(4.80043e-05 -3.71309e-05 8.98951e-07)
(4.77601e-05 -3.54673e-05 7.65968e-06)
(4.97429e-05 -3.74222e-05 5.83126e-06)
(4.77569e-05 -3.58633e-05 5.82514e-06)
(4.53696e-05 -3.42523e-05 4.62133e-06)
(4.66854e-05 -3.5559e-05 3.35717e-06)
(4.66948e-05 -3.52897e-05 4.62762e-06)
(4.93437e-05 -3.73681e-05 4.63612e-06)
(4.80105e-05 -3.65984e-05 3.36118e-06)
(4.80196e-05 -3.63284e-05 4.63247e-06)
(5.50611e-05 -4.27017e-05 8.82729e-07)
(5.334e-05 -4.1067e-05 2.12381e-06)
(5.33404e-05 -4.13358e-05 9.01212e-07)
(5.19999e-05 -4.08035e-05 -1.49494e-06)
(5.06597e-05 -3.94834e-05 -2.99473e-07)
(5.19916e-05 -4.05342e-05 -2.99368e-07)
(5.19853e-05 -3.99976e-05 2.12395e-06)
(5.06544e-05 -3.92159e-05 9.01665e-07)
(5.19857e-05 -4.02657e-05 9.02389e-07)
(5.25293e-05 -3.9012e-05 8.6104e-06)
(4.78961e-05 -3.53717e-05 8.60012e-06)
(5.25586e-05 -3.91113e-05 8.25959e-06)
(5.05667e-05 -3.79428e-05 6.42177e-06)
(5.25645e-05 -3.95152e-05 6.42597e-06)
(5.52277e-05 -4.17566e-05 5.78536e-06)
(5.36594e-05 -4.07997e-05 4.50007e-06)
(5.3656e-05 -4.05295e-05 5.72351e-06)
(5.09647e-05 -3.84104e-05 5.71592e-06)
(5.23024e-05 -3.97302e-05 4.49669e-06)
(5.22972e-05 -3.94592e-05 5.71842e-06)
(4.56653e-05 -3.50504e-05 2.04211e-06)
(4.69957e-05 -3.58253e-05 3.27379e-06)
(4.69925e-05 -3.60903e-05 2.04539e-06)
(4.83031e-05 -3.76633e-05 -4.50105e-07)
(4.96377e-05 -3.8439e-05 8.05122e-07)
(4.8312e-05 -3.73967e-05 8.04258e-07)
(4.8322e-05 -3.68651e-05 3.27772e-06)
(4.96447e-05 -3.81725e-05 2.04997e-06)
(4.83191e-05 -3.7131e-05 2.04801e-06)
(4.79218e-05 -3.54683e-05 8.24779e-06)
(4.99048e-05 -3.74227e-05 6.42026e-06)
(4.79183e-05 -3.58641e-05 6.41349e-06)
(4.56629e-05 -3.42544e-05 5.69485e-06)
(4.69935e-05 -3.55602e-05 4.48328e-06)
(4.69891e-05 -3.52913e-05 5.70254e-06)
(4.96394e-05 -3.73688e-05 5.71285e-06)
(4.83195e-05 -3.65992e-05 4.48833e-06)
(4.83146e-05 -3.63295e-05 5.70847e-06)
(5.5218e-05 -4.27014e-05 1.45096e-06)
(5.36602e-05 -4.10665e-05 3.28506e-06)
(5.3658e-05 -4.13352e-05 2.05228e-06)
(5.22881e-05 -4.08031e-05 -4.50989e-07)
(5.09638e-05 -3.9483e-05 8.05604e-07)
(5.22963e-05 -4.05337e-05 8.05611e-07)
(5.23048e-05 -3.99974e-05 3.28387e-06)
(5.09706e-05 -3.92157e-05 2.05125e-06)
(5.23024e-05 -4.02653e-05 2.05179e-06)
(3.33098e-05 -2.41221e-05 7.93597e-06)
(2.50887e-05 -1.78199e-05 7.48047e-06)
(5.4416e-05 -4.05685e-05 8.29438e-06)
(4.58012e-05 -3.38166e-05 8.1928e-06)
(1.58211e-05 -1.08137e-05 6.50488e-06)
(2.3264e-05 -1.64308e-05 7.33476e-06)
(1.56513e-05 -1.09742e-05 5.14262e-06)
(1.57841e-05 -1.08849e-05 6.06644e-06)
(1.569e-05 -1.08888e-05 5.6472e-06)
(1.57662e-05 -1.09912e-05 5.56376e-06)
(2.30897e-05 -1.66213e-05 5.80113e-06)
(2.323e-05 -1.65127e-05 6.84259e-06)
(2.37302e-05 -1.69852e-05 6.4116e-06)
(2.38234e-05 -1.7093e-05 6.32243e-06)
(2.31261e-05 -1.65242e-05 6.36781e-06)
(2.32182e-05 -1.66318e-05 6.27889e-06)
(2.3694e-05 -1.7083e-05 5.8412e-06)
(1.59075e-05 -1.08322e-05 6.81441e-06)
(2.33607e-05 -1.64432e-05 7.68636e-06)
(1.59988e-05 -1.10394e-05 6.42344e-06)
(1.5911e-05 -1.0911e-05 6.52544e-06)
(1.58895e-05 -1.10143e-05 6.01871e-06)
(1.5996e-05 -1.09503e-05 6.75988e-06)
(2.34822e-05 -1.66649e-05 7.25377e-06)
(2.33724e-05 -1.65302e-05 7.36362e-06)
(2.39638e-05 -1.7108e-05 6.84216e-06)
(2.40766e-05 -1.70249e-05 7.68359e-06)
(2.33576e-05 -1.66473e-05 6.79491e-06)
(2.34701e-05 -1.65654e-05 7.63067e-06)
(2.40894e-05 -1.71251e-05 7.30429e-06)
(3.31349e-05 -2.43379e-05 6.2807e-06)
(3.32794e-05 -2.42128e-05 7.40617e-06)
(3.38162e-05 -2.47318e-05 6.91231e-06)
(3.39226e-05 -2.48422e-05 6.82102e-06)
(3.31681e-05 -2.42315e-05 6.89112e-06)
(3.32739e-05 -2.43417e-05 6.79982e-06)
(3.37831e-05 -2.48387e-05 6.30021e-06)
(2.4914e-05 -1.80161e-05 5.91703e-06)
(2.50554e-05 -1.79038e-05 6.979e-06)
(2.43381e-05 -1.74494e-05 6.45381e-06)
(2.44323e-05 -1.75576e-05 6.36434e-06)
(2.49498e-05 -1.79168e-05 6.49447e-06)
(2.43021e-05 -1.7548e-05 5.87981e-06)
(2.50449e-05 -1.80252e-05 6.40478e-06)
(3.34143e-05 -2.41282e-05 8.31828e-06)
(2.51872e-05 -1.7831e-05 7.83948e-06)
(3.35628e-05 -2.43593e-05 7.85849e-06)
(3.34338e-05 -2.42214e-05 7.97246e-06)
(3.40752e-05 -2.48493e-05 7.38336e-06)
(3.41911e-05 -2.47509e-05 8.28915e-06)
(3.34259e-05 -2.43493e-05 7.36034e-06)
(3.35417e-05 -2.42517e-05 8.26348e-06)
(3.42126e-05 -2.48589e-05 7.88311e-06)
(2.53147e-05 -1.80551e-05 7.3999e-06)
(2.52006e-05 -1.79195e-05 7.51095e-06)
(2.45737e-05 -1.75719e-05 6.88766e-06)
(2.46868e-05 -1.74877e-05 7.73461e-06)
(2.47003e-05 -1.75885e-05 7.35296e-06)
(2.51872e-05 -1.80391e-05 6.93154e-06)
(2.53006e-05 -1.79537e-05 7.78375e-06)
(3.5259e-05 -2.56257e-05 8.00462e-06)
(4.38154e-05 -3.2266e-05 8.17641e-06)
(3.50844e-05 -2.58449e-05 6.33594e-06)
(3.44658e-05 -2.52338e-05 6.9323e-06)
(3.45729e-05 -2.53442e-05 6.84101e-06)
(3.52292e-05 -2.57176e-05 7.47079e-06)
(3.4433e-05 -2.53411e-05 6.3186e-06)
(3.5117e-05 -2.57373e-05 6.95111e-06)
(3.52247e-05 -2.58477e-05 6.85987e-06)
(4.36425e-05 -3.2496e-05 6.47609e-06)
(4.3788e-05 -3.23613e-05 7.63364e-06)
(4.4335e-05 -3.29014e-05 7.10765e-06)
(4.4449e-05 -3.3012e-05 7.01853e-06)
(4.36732e-05 -3.23847e-05 7.10208e-06)
(4.37868e-05 -3.24952e-05 7.01271e-06)
(4.43045e-05 -3.30129e-05 6.48137e-06)
(3.53645e-05 -2.56308e-05 8.39051e-06)
(4.39239e-05 -3.22677e-05 8.57173e-06)
(3.55169e-05 -2.58629e-05 7.92823e-06)
(3.4726e-05 -2.53509e-05 7.40506e-06)
(3.4842e-05 -2.52518e-05 8.31337e-06)
(3.53852e-05 -2.57248e-05 8.04233e-06)
(3.4864e-05 -2.53601e-05 7.90633e-06)
(3.53783e-05 -2.58541e-05 7.42554e-06)
(3.54944e-05 -2.57542e-05 8.33618e-06)
(4.40888e-05 -3.2502e-05 8.10643e-06)
(4.39485e-05 -3.23638e-05 8.21903e-06)
(4.46078e-05 -3.30139e-05 7.59831e-06)
(4.47243e-05 -3.29065e-05 8.52754e-06)
(4.39453e-05 -3.24973e-05 7.59193e-06)
(4.40618e-05 -3.23904e-05 8.52058e-06)
(4.47514e-05 -3.30183e-05 8.11328e-06)
(5.43014e-05 -4.08589e-05 6.54501e-06)
(5.44495e-05 -4.07091e-05 7.76878e-06)
(5.49745e-05 -4.12226e-05 7.31398e-06)
(5.50873e-05 -4.13416e-05 7.17625e-06)
(5.43209e-05 -4.07313e-05 7.20137e-06)
(5.44642e-05 -4.08633e-05 7.11487e-06)
(5.49364e-05 -4.13509e-05 6.58775e-06)
(4.56287e-05 -3.40482e-05 6.49009e-06)
(4.57741e-05 -3.39125e-05 7.64958e-06)
(4.4997e-05 -3.34187e-05 7.11252e-06)
(4.51112e-05 -3.35292e-05 7.02366e-06)
(4.5659e-05 -3.39364e-05 7.11676e-06)
(4.49666e-05 -3.35304e-05 6.48603e-06)
(4.57735e-05 -3.40469e-05 7.02817e-06)
(5.45219e-05 -4.05735e-05 8.65645e-06)
(4.59101e-05 -3.38178e-05 8.5892e-06)
(5.47495e-05 -4.08583e-05 8.17403e-06)
(5.46065e-05 -4.07135e-05 8.31959e-06)
(5.52391e-05 -4.13429e-05 7.72113e-06)
(5.53374e-05 -4.12275e-05 8.60968e-06)
(5.46248e-05 -4.08639e-05 7.69462e-06)
(5.4706e-05 -4.07352e-05 8.58243e-06)
(5.53779e-05 -4.13488e-05 8.19907e-06)
(4.60769e-05 -3.40523e-05 8.1247e-06)
(4.59353e-05 -3.39142e-05 8.23654e-06)
(4.52702e-05 -3.35309e-05 7.60396e-06)
(4.53868e-05 -3.34232e-05 8.53368e-06)
(4.54141e-05 -3.3535e-05 8.11935e-06)
(4.59327e-05 -3.40483e-05 7.60892e-06)
(4.60492e-05 -3.39403e-05 8.53904e-06)
(5.47562e-05 -4.26241e-05 1.44249e-07)
(5.52142e-05 -4.31066e-05 -3.99185e-07)
(5.4599e-05 -4.26189e-05 -3.99095e-07)
(5.53666e-05 -4.31098e-05 1.35845e-07)
(3.00976e-05 -2.16518e-05 7.7927e-06)
(2.81978e-05 -2.01953e-05 7.68812e-06)
(5.10932e-05 -3.79677e-05 8.20994e-06)
(4.91099e-05 -3.64088e-05 8.20688e-06)
(1.85827e-05 -1.28873e-05 6.86363e-06)
(2.03036e-05 -1.41862e-05 7.05478e-06)
(1.84106e-05 -1.30605e-05 5.42702e-06)
(1.85469e-05 -1.29631e-05 6.40184e-06)
(1.90166e-05 -1.34002e-05 6.01563e-06)
(1.91008e-05 -1.35054e-05 5.92926e-06)
(1.84485e-05 -1.29701e-05 5.95858e-06)
(1.89789e-05 -1.34916e-05 5.47916e-06)
(1.85314e-05 -1.30749e-05 5.87262e-06)
(2.01305e-05 -1.43663e-05 5.57873e-06)
(2.02684e-05 -1.42645e-05 6.58063e-06)
(1.95898e-05 -1.38346e-05 6.07094e-06)
(1.96751e-05 -1.39402e-05 5.98413e-06)
(2.01678e-05 -1.42732e-05 6.12457e-06)
(1.95522e-05 -1.39269e-05 5.5297e-06)
(2.02544e-05 -1.43792e-05 6.03739e-06)
(1.86736e-05 -1.29034e-05 7.19133e-06)
(2.03968e-05 -1.42009e-05 7.39218e-06)
(1.87774e-05 -1.31171e-05 6.78212e-06)
(1.86805e-05 -1.29858e-05 6.88764e-06)
(1.92322e-05 -1.35249e-05 6.41544e-06)
(1.93419e-05 -1.3452e-05 7.20509e-06)
(1.86616e-05 -1.3095e-05 6.35397e-06)
(1.87708e-05 -1.30235e-05 7.13616e-06)
(1.93492e-05 -1.35465e-05 6.84787e-06)
(2.05076e-05 -1.44179e-05 6.97341e-06)
(2.04056e-05 -1.42851e-05 7.08071e-06)
(1.98078e-05 -1.39591e-05 6.475e-06)
(1.9918e-05 -1.38848e-05 7.27194e-06)
(2.03882e-05 -1.43975e-05 6.5328e-06)
(2.04989e-05 -1.43219e-05 7.33674e-06)
(1.9926e-05 -1.39801e-05 6.91158e-06)
(2.99225e-05 -2.1861e-05 6.16596e-06)
(3.00661e-05 -2.17402e-05 7.27163e-06)
(2.9321e-05 -2.12682e-05 6.73722e-06)
(2.94224e-05 -2.13778e-05 6.64628e-06)
(2.99567e-05 -2.17569e-05 6.76618e-06)
(2.92866e-05 -2.13717e-05 6.13938e-06)
(3.00589e-05 -2.18667e-05 6.67516e-06)
(2.80226e-05 -2.04e-05 6.08245e-06)
(2.81656e-05 -2.02822e-05 7.17355e-06)
(2.86879e-05 -2.07817e-05 6.70687e-06)
(2.87885e-05 -2.08912e-05 6.61607e-06)
(2.80574e-05 -2.02976e-05 6.67511e-06)
(2.86533e-05 -2.08847e-05 6.11157e-06)
(2.81572e-05 -2.04069e-05 6.58443e-06)
(3.02002e-05 -2.16597e-05 8.16764e-06)
(2.82989e-05 -2.02044e-05 8.05771e-06)
(3.03415e-05 -2.18887e-05 7.71376e-06)
(3.02175e-05 -2.17514e-05 7.82705e-06)
(2.95705e-05 -2.13881e-05 7.19366e-06)
(2.96855e-05 -2.12956e-05 8.07724e-06)
(3.02077e-05 -2.18765e-05 7.22501e-06)
(3.03228e-05 -2.17831e-05 8.11228e-06)
(2.97036e-05 -2.14007e-05 7.68024e-06)