/*--------------------------------*- C++ -*----------------------------------*\
| =========                 |                                                 |
| \\      /  F ield         | OpenFOAM: The Open Source CFD Toolbox           |
|  \\    /   O peration     | Version:  2012                                  |
|   \\  /    A nd           | Website:  www.openfoam.com                      |
|    \\/     M anipulation  |                                                 |
\*---------------------------------------------------------------------------*/
FoamFile
{
    version     2.0;
    format      ascii;
    class       volSymmTensorField;
    location    "0.104/solid";
    object      epsilon;
}
// * * * * * * * * * * * * * * * * * * * * * * * * * * * * * * * * * * * * * //

dimensions      [0 0 0 0 0 0 0];


internalField   nonuniform List<symmTensor> 
3125
(
(-4.95149e-07 -1.39263e-08 6.30961e-08 -5.08592e-07 -1.07721e-07 1.6271e-06)
(-9.49407e-07 -4.32065e-08 8.57527e-08 -1.00458e-06 -1.51747e-07 3.23723e-06)
(-1.09847e-08 -5.50245e-10 -4.56892e-09 -2.06747e-08 1.30542e-09 2.54819e-08)
(-1.34674e-07 -5.86704e-10 2.98143e-08 -1.27525e-07 -4.79876e-08 3.70376e-07)
(-9.82923e-07 -4.58847e-08 8.69249e-08 -1.04178e-06 -1.5408e-07 3.35709e-06)
(1.98702e-07 1.23821e-08 9.48978e-07 3.10204e-07 -4.92185e-08 -8.13825e-07)
(3.59489e-07 2.32979e-08 1.03629e-06 5.68263e-07 -1.05287e-07 -1.48219e-06)
(-9.95414e-07 1.47911e-08 1.56784e-07 -9.16821e-07 -1.60322e-07 3.15318e-06)
(-1.10531e-06 -2.84239e-08 -1.46917e-08 -1.0694e-06 -1.02833e-07 3.5876e-06)
(1.32487e-08 7.72133e-09 9.08531e-07 -3.73913e-08 -1.20908e-07 -5.00299e-09)
(-7.38365e-09 1.52187e-08 1.09624e-06 -1.63785e-07 -1.87608e-07 2.03868e-07)
(-1.08619e-06 4.05056e-09 5.2284e-08 -1.08144e-06 -1.11577e-07 3.55242e-06)
(-4.98162e-07 7.18495e-09 1.1686e-07 -4.58793e-07 -1.10267e-07 1.55333e-06)
(1.79648e-07 1.13115e-08 9.2962e-07 2.80706e-07 -4.22826e-08 -7.36106e-07)
(-9.61019e-07 1.41665e-08 1.547e-07 -8.85665e-07 -1.57797e-07 3.04336e-06)
(7.41175e-08 6.6356e-09 7.45444e-07 1.23203e-07 -4.27692e-09 -3.12983e-07)
(-5.265e-07 -4.02854e-09 -8.58956e-09 -5.16391e-07 -6.89524e-08 1.68523e-06)
(-1.0641e-06 -2.6333e-08 -1.45001e-08 -1.03049e-06 -1.01214e-07 3.45308e-06)
(-5.22098e-07 -2.70484e-09 4.12264e-08 -5.00806e-07 -7.34453e-08 1.65465e-06)
(1.37821e-08 7.06086e-09 8.79732e-07 -2.51013e-08 -1.12126e-07 -2.23772e-08)
(-1.04619e-06 3.46621e-09 5.14784e-08 -1.03986e-06 -1.09668e-07 3.41724e-06)
(3.82619e-09 5.13736e-09 6.61072e-07 2.59891e-08 -5.85619e-08 -7.11078e-08)
(-4.68765e-07 -1.26652e-08 6.12745e-08 -4.80262e-07 -1.0432e-07 1.53428e-06)
(-1.49883e-07 -9.41996e-10 3.19422e-08 -1.43326e-07 -5.14854e-08 4.22924e-07)
(-4.71358e-07 6.91335e-09 1.13735e-07 -4.33706e-07 -1.06728e-07 1.46654e-06)
(1.05236e-08 5.76835e-09 4.35536e-07 3.36825e-08 1.32608e-08 -6.24289e-08)
(6.29296e-08 6.33875e-09 7.12266e-07 1.07224e-07 -4.83445e-10 -2.6896e-07)
(-1.50283e-07 4.46634e-09 6.21534e-08 -1.28714e-07 -5.17544e-08 4.18936e-07)
(-4.96521e-07 -3.19036e-09 -8.1592e-09 -4.87241e-07 -6.65142e-08 1.58569e-06)
(-1.47327e-07 3.7094e-09 -1.94324e-09 -1.43735e-07 -2.99535e-08 4.1746e-07)
(-4.92743e-07 -2.96425e-09 4.03868e-08 -4.70956e-07 -7.07631e-08 1.55626e-06)
(-2.05689e-08 6.12783e-09 3.69357e-07 3.06176e-08 -1.78082e-08 -2.79346e-08)
(9.69033e-10 5.13142e-09 6.27172e-07 2.90184e-08 -5.21923e-08 -6.95602e-08)
(-1.4927e-07 -5.12292e-09 2.55215e-08 -1.25454e-07 -3.13946e-08 4.1023e-07)
(-2.59853e-08 3.78716e-09 -6.97754e-10 -9.57014e-09 1.46234e-09 2.56896e-08)
(6.47935e-09 5.76405e-09 3.90488e-07 2.79246e-08 1.32681e-08 -4.61094e-08)
(-1.35012e-07 4.42368e-09 5.82037e-08 -1.14051e-07 -4.82006e-08 3.68915e-07)
(-1.01238e-08 -9.49921e-10 -4.46964e-09 -2.05085e-08 -3.02456e-10 2.44466e-08)
(-1.31402e-07 3.78575e-09 -1.77259e-09 -1.27744e-07 -2.77871e-08 3.6349e-07)
(-2.5608e-08 -3.17897e-09 -1.11209e-09 -8.52968e-09 -8.80646e-10 2.54413e-08)
(-2.30987e-08 6.21835e-09 3.29759e-07 2.91817e-08 -1.45515e-08 -2.0652e-08)
(-1.33489e-07 -5.1816e-09 2.39515e-08 -1.09788e-07 -2.90507e-08 3.57762e-07)
(-6.94741e-07 -2.51901e-08 7.47528e-08 -7.24499e-07 -1.30204e-07 2.33112e-06)
(-7.25225e-07 -2.71644e-08 7.63331e-08 -7.57703e-07 -1.33222e-07 2.43887e-06)
(-4.81522e-08 5.4065e-10 1.20656e-08 -3.87579e-08 -2.00132e-08 7.39291e-08)
(-5.51481e-08 6.6626e-10 1.45456e-08 -4.57593e-08 -2.37979e-08 9.76323e-08)
(-1.26138e-06 -7.05668e-08 9.39319e-08 -1.35444e-06 -1.67951e-07 4.35936e-06)
(-1.22562e-06 -6.71944e-08 9.32736e-08 -1.31404e-06 -1.66677e-07 4.23019e-06)
(-5.61178e-07 1.74157e-08 7.90307e-07 -3.93542e-07 -1.70566e-07 1.72605e-06)
(-1.28212e-06 2.09351e-08 1.69174e-07 -1.17434e-06 -1.76369e-07 4.06573e-06)
(-5.02049e-07 1.45269e-08 7.68473e-07 -3.66517e-07 -1.51519e-07 1.54844e-06)
(2.61817e-07 1.62918e-08 9.96657e-07 4.09745e-07 -7.17994e-08 -1.07374e-06)
(-2.58733e-07 1.22925e-08 8.14021e-07 -1.54611e-07 -1.03237e-07 7.49234e-07)
(-2.86593e-07 1.54104e-08 8.56663e-07 -1.5585e-07 -1.24912e-07 8.2374e-07)
(-3.16619e-07 2.08614e-08 8.91542e-07 -1.40244e-07 -1.53623e-07 8.89549e-07)
(2.84813e-07 1.78277e-08 1.00908e-06 4.46622e-07 -7.98508e-08 -1.16928e-06)
(-2.94905e-07 1.65923e-08 8.67732e-07 -1.53893e-07 -1.3217e-07 8.43979e-07)
(-1.24516e-06 2.01057e-08 1.67829e-07 -1.14145e-06 -1.74892e-07 3.94866e-06)
(-4.19132e-07 1.1569e-08 7.19446e-07 -3.16957e-07 -1.24088e-07 1.28948e-06)
(-4.81689e-07 1.37103e-08 7.58337e-07 -3.55486e-07 -1.44826e-07 1.4858e-06)
(-1.45651e-06 -4.87433e-08 -1.50508e-08 -1.39795e-06 -1.12031e-07 4.72789e-06)
(-1.41065e-06 -4.59489e-08 -1.5174e-08 -1.35526e-06 -1.11346e-07 4.57948e-06)
(-1.06271e-06 -2.6819e-09 6.90448e-07 -1.15108e-06 -1.36203e-07 3.56647e-06)
(-1.42624e-06 9.55924e-09 5.89963e-08 -1.43709e-06 -1.23148e-07 4.70343e-06)
(-8.82201e-07 -3.07409e-09 6.40139e-07 -9.32895e-07 -1.1883e-07 2.92817e-06)
(8.08881e-09 1.02347e-08 9.91805e-07 -8.27145e-08 -1.48555e-07 6.53455e-08)
(-5.06289e-07 2.23825e-09 6.91906e-07 -5.26279e-07 -1.00225e-07 1.64659e-06)
(-6.28504e-07 3.42603e-09 7.54872e-07 -6.82472e-07 -1.21668e-07 2.08885e-06)
(-8.13681e-07 6.05244e-09 8.36017e-07 -9.22627e-07 -1.50152e-07 2.76134e-06)
(5.14232e-09 1.12546e-08 1.01857e-06 -1.00741e-07 -1.58112e-07 9.51038e-08)
(-6.72493e-07 3.86309e-09 7.75368e-07 -7.39111e-07 -1.28876e-07 2.24829e-06)
(-1.38191e-06 8.79187e-09 5.79951e-08 -1.39054e-06 -1.22175e-07 4.5531e-06)
(-6.67082e-07 -3.01073e-09 5.71872e-07 -6.76214e-07 -9.41428e-08 2.16937e-06)
(-8.25572e-07 -3.17028e-09 6.23298e-07 -8.64991e-07 -1.12779e-07 2.7283e-06)
(-7.00834e-07 9.82516e-09 1.36331e-07 -6.47353e-07 -1.34291e-07 2.20833e-06)
(-2.51443e-07 7.37403e-09 5.57267e-07 -1.8742e-07 -6.97554e-08 7.41654e-07)
(-3.13118e-07 8.7231e-09 6.27654e-07 -2.38834e-07 -8.94504e-08 9.46297e-07)
(-2.48592e-07 1.13826e-08 7.96715e-07 -1.51979e-07 -9.61412e-08 7.20247e-07)
(1.28492e-07 8.72617e-09 8.61056e-07 2.02975e-07 -2.36727e-08 -5.29326e-07)
(-2.1621e-07 9.04846e-09 7.35733e-07 -1.38171e-07 -7.56802e-08 6.23252e-07)
(-7.31859e-07 1.02667e-08 1.38998e-07 -6.75944e-07 -1.37487e-07 2.30811e-06)
(-3.97943e-07 1.09231e-08 7.03725e-07 -3.0253e-07 -1.17076e-07 1.22185e-06)
(-3.342e-07 9.23261e-09 6.48606e-07 -2.55491e-07 -9.62624e-08 1.01544e-06)
(-1.70498e-07 6.69022e-09 6.339e-07 -1.09049e-07 -5.09753e-08 4.78353e-07)
(1.13427e-07 8.06909e-09 8.34753e-07 1.80551e-07 -1.82118e-08 -4.69016e-07)
(-2.04931e-07 8.39192e-09 7.12453e-07 -1.31884e-07 -6.91783e-08 5.88242e-07)
(-7.57525e-07 -1.22379e-08 -1.18383e-08 -7.39152e-07 -8.55023e-08 2.44881e-06)
(-7.9363e-07 -1.37473e-08 -1.22215e-08 -7.7352e-07 -8.76927e-08 2.567e-06)
(-7.47985e-07 -3.70039e-10 4.59671e-08 -7.31738e-07 -9.1731e-08 2.4126e-06)
(-3.32412e-07 -2.15893e-09 4.21874e-07 -2.8578e-07 -4.7088e-08 9.92265e-07)
(-4.42501e-07 -2.50859e-09 4.81055e-07 -4.12792e-07 -6.37741e-08 1.37908e-06)
(-4.68884e-07 1.88443e-09 6.70347e-07 -4.78848e-07 -9.32108e-08 1.51142e-06)
(1.2154e-08 5.7596e-09 7.89831e-07 3.84209e-09 -8.73891e-08 -5.77393e-08)
(-3.66832e-07 1.28962e-09 6.03305e-07 -3.50589e-07 -7.30275e-08 1.14306e-06)
(-7.82975e-07 2.68237e-12 4.671e-08 -7.67747e-07 -9.41976e-08 2.53043e-06)
(-6.18124e-07 -2.9813e-09 5.54337e-07 -6.18366e-07 -8.79158e-08 1.99697e-06)
(-4.83334e-07 -2.69003e-09 4.99891e-07 -4.60304e-07 -6.96521e-08 1.52269e-06)
(-2.54543e-07 8.83457e-10 5.0736e-07 -2.1171e-07 -4.87266e-08 7.38503e-07)
(1.06522e-08 5.46206e-09 7.58644e-07 1.103e-08 -7.9717e-08 -6.44025e-08)
(-3.36221e-07 1.08279e-09 5.80103e-07 -3.12435e-07 -6.66159e-08 1.03267e-06)
(-3.00509e-07 -5.44911e-09 4.8163e-08 -3.01278e-07 -8.00686e-08 9.46023e-07)
(-2.79152e-07 -4.68885e-09 4.61281e-08 -2.78651e-07 -7.6475e-08 8.71376e-07)
(-2.31661e-07 7.00135e-09 5.31369e-07 -1.70154e-07 -6.35247e-08 6.75377e-07)
(-3.0159e-07 5.36482e-09 9.11863e-08 -2.73422e-07 -8.12949e-08 9.14196e-07)
(-1.7579e-07 6.054e-09 4.46444e-07 -1.19537e-07 -4.60362e-08 4.8675e-07)
(2.75197e-08 5.7222e-09 5.63154e-07 5.75853e-08 1.01704e-08 -1.30141e-07)
(-8.45993e-08 4.00914e-09 3.63193e-07 -3.72227e-08 -1.4521e-08 1.94299e-07)
(-1.14805e-07 4.82802e-09 4.74875e-07 -6.39071e-08 -2.59241e-08 2.94265e-07)
(-1.59034e-07 6.23383e-09 6.0488e-07 -1.00462e-07 -4.54075e-08 4.40941e-07)
(3.49902e-08 5.79447e-09 6.02805e-07 6.79726e-08 8.15332e-09 -1.5944e-07)
(-1.25515e-07 5.15559e-09 5.09434e-07 -7.31561e-08 -3.03602e-08 3.29989e-07)
(-2.79981e-07 5.2335e-09 8.76401e-08 -2.52913e-07 -7.75915e-08 8.43786e-07)
(-1.11871e-07 4.94016e-09 3.16431e-07 -5.9417e-08 -2.57986e-08 2.70485e-07)
(-1.58554e-07 5.81816e-09 4.15746e-07 -1.03465e-07 -4.05711e-08 4.28293e-07)
(-3.09155e-07 1.50798e-09 -4.88698e-09 -3.04127e-07 -4.92113e-08 9.61359e-07)
(-2.85743e-07 1.92273e-09 -4.49723e-09 -2.81058e-07 -4.67191e-08 8.82973e-07)
(-2.99853e-07 -2.07061e-09 4.01152e-07 -2.48568e-07 -4.19492e-08 8.77999e-07)
(-3.08816e-07 -4.30479e-09 3.45919e-08 -2.84997e-07 -5.20283e-08 9.41535e-07)
(-2.1455e-07 -1.62547e-09 3.35386e-07 -1.52192e-07 -2.7965e-08 5.79242e-07)
(-1.17014e-08 5.5786e-09 4.84242e-07 3.32681e-08 -3.0277e-08 -5.0004e-08)
(-1.06945e-07 1.02252e-09 2.83906e-07 -3.76701e-08 -1.33394e-08 2.14128e-07)
(-1.51112e-07 9.79472e-10 3.73641e-07 -8.75303e-08 -2.42854e-08 3.68181e-07)
(-2.30667e-07 8.28209e-10 4.81979e-07 -1.82576e-07 -4.3266e-08 6.52619e-07)
(-8.49827e-09 5.40519e-09 5.21094e-07 3.32184e-08 -3.52288e-08 -5.64261e-08)
(-1.6868e-07 8.98857e-10 4.01826e-07 -1.08134e-07 -2.85851e-08 4.30595e-07)
(-2.85802e-07 -4.43737e-09 3.35395e-08 -2.61851e-07 -4.93175e-08 8.64674e-07)
(-1.28923e-07 -1.33219e-09 2.37139e-07 -5.86375e-08 -1.30916e-08 2.82821e-07)
(-1.90183e-07 -1.53329e-09 3.12108e-07 -1.25109e-07 -2.37659e-08 4.94281e-07)
(-4.84549e-08 4.21368e-09 2.37688e-08 -3.00154e-08 -1.96935e-08 8.39952e-08)
(-7.9893e-08 1.27952e-08 9.61597e-09 2.85935e-08 1.09342e-09 2.61777e-08)
(-5.53033e-08 2.96455e-09 1.29377e-07 -4.98131e-09 -5.62066e-09 8.0074e-08)
(-7.52986e-08 3.72271e-09 3.23471e-07 -2.90094e-08 -1.1393e-08 1.64099e-07)
(-2.9434e-09 4.85229e-09 2.50415e-07 1.67426e-08 1.07554e-08 -1.31009e-08)
(-5.1039e-08 2.45004e-09 1.98555e-07 -6.90448e-09 -3.49408e-09 8.47974e-08)
(-5.54932e-08 4.22113e-09 2.86188e-08 -3.69896e-08 -2.35288e-08 1.07294e-07)
(-9.8117e-08 4.63232e-09 2.80966e-07 -4.65281e-08 -2.14297e-08 2.24686e-07)
(-6.34715e-08 3.47016e-09 1.68245e-07 -1.40584e-08 -9.3585e-09 1.10358e-07)
(-7.9339e-08 1.36897e-08 1.13248e-08 2.93939e-08 9.41682e-10 2.47636e-08)
(-6.4424e-09 4.46798e-09 2.02181e-07 1.49351e-08 9.41821e-09 -6.62158e-09)
(-4.56474e-08 2.00641e-09 1.55791e-07 -3.52879e-11 -1.23986e-09 6.24031e-08)
(-4.27433e-08 3.83547e-09 -1.75036e-09 -3.861e-08 -1.21392e-08 6.33852e-08)
(-4.95699e-08 3.87747e-09 -1.50701e-09 -4.55857e-08 -1.41446e-08 8.68317e-08)
(-4.53411e-08 -5.3576e-09 8.32308e-09 -2.31317e-08 -1.23024e-08 6.65304e-08)
(-8.50544e-08 1.09809e-08 7.39418e-09 3.06237e-08 1.80929e-09 2.80621e-08)
(-6.53674e-08 -2.07826e-09 9.15101e-08 5.86314e-09 -9.58822e-10 6.86126e-08)
(-9.48314e-08 9.25584e-10 2.52101e-07 -2.48571e-08 -1.03865e-08 1.73204e-07)
(-3.02446e-08 5.68567e-09 2.07472e-07 2.51268e-08 -6.91589e-09 -2.38817e-09)
(-6.6488e-08 2.53387e-10 1.50997e-07 3.71731e-09 -3.06478e-09 7.8966e-08)
(-5.22671e-08 -5.36631e-09 1.08269e-08 -2.98774e-08 -1.44898e-08 8.93384e-08)
(-1.12251e-07 -1.37278e-09 2.10134e-07 -4.13329e-08 -1.02215e-08 2.26458e-07)
(-7.34885e-08 -1.80298e-09 1.22518e-07 -3.00499e-09 -2.97538e-09 9.81584e-08)
(-8.58185e-08 1.27835e-08 8.91739e-09 3.15342e-08 1.56781e-09 2.68894e-08)
(-3.34896e-08 5.46813e-09 1.65014e-07 2.44519e-08 -4.92034e-09 2.07215e-09)
(-6.10138e-08 -8.72625e-11 1.15706e-07 1.0694e-08 -1.0485e-09 5.65501e-08)
(-5.77538e-07 -1.82283e-08 6.82758e-08 -5.97385e-07 -1.17606e-07 1.9176e-06)
(-8.50876e-07 -3.57336e-08 8.2002e-08 -8.95659e-07 -1.44359e-07 2.88614e-06)
(-3.10297e-08 -3.00007e-10 1.42627e-09 -2.32237e-08 -5.02792e-09 2.24989e-08)
(-9.43893e-08 2.29275e-10 2.35311e-08 -8.59332e-08 -3.78266e-08 2.32118e-07)
(-1.40632e-06 -8.51971e-08 9.56608e-08 -1.51953e-06 -1.7131e-07 4.88555e-06)
(-1.08505e-06 -5.43407e-08 9.00598e-08 -1.15589e-06 -1.60244e-07 3.72427e-06)
(-1.43217e-06 2.46385e-08 1.72971e-07 -1.30734e-06 -1.80803e-07 4.5409e-06)
(-1.06162e-06 3.87829e-08 4.89483e-07 -1.05897e-06 -2.10175e-07 3.49814e-06)
(2.1876e-07 1.35724e-08 9.66591e-07 3.41514e-07 -5.64597e-08 -8.95987e-07)
(5.17526e-08 1.02878e-08 9.26929e-07 1.62463e-07 -6.51205e-08 -2.96684e-07)
(6.25323e-08 1.11942e-08 9.44155e-07 1.83551e-07 -7.23254e-08 -3.43141e-07)
(1.44706e-07 1.84367e-08 1.01159e-06 3.45319e-07 -1.1936e-07 -7.00798e-07)
(3.33663e-07 2.12988e-08 1.02888e-06 5.25901e-07 -9.659e-08 -1.37354e-06)
(1.2895e-07 1.69294e-08 1.00459e-06 3.14131e-07 -1.11159e-07 -6.31734e-07)
(-1.10039e-06 1.69332e-08 1.62035e-07 -1.01175e-06 -1.6736e-07 3.48861e-06)
(-7.55082e-07 2.60784e-08 4.36461e-07 -7.29756e-07 -1.63852e-07 2.44923e-06)
(-8.28455e-07 2.20102e-08 4.41462e-07 -8.14071e-07 -1.53801e-07 2.71036e-06)
(-1.64505e-06 -6.11152e-08 -1.40758e-08 -1.57257e-06 -1.1343e-07 5.33688e-06)
(-1.23242e-06 -3.54027e-08 -1.51193e-08 -1.189e-06 -1.07176e-07 4.00224e-06)
(-1.60826e-06 1.28842e-08 6.31539e-08 -1.62898e-06 -1.25707e-07 5.32163e-06)
(-1.29044e-06 5.85899e-09 3.73115e-07 -1.23075e-06 -1.69782e-07 4.23632e-06)
(1.2127e-08 8.42384e-09 9.36786e-07 -5.10758e-08 -1.29928e-07 1.5361e-08)
(-1.60077e-07 5.17639e-09 8.63374e-07 -2.00888e-07 -1.1583e-07 5.497e-07)
(-1.73744e-07 5.56542e-09 8.90314e-07 -2.26776e-07 -1.24291e-07 6.10488e-07)
(-2.75759e-07 9.74624e-09 1.04339e-06 -4.19327e-07 -1.77572e-07 1.06177e-06)
(-2.59098e-09 1.37348e-08 1.07078e-06 -1.41298e-07 -1.77636e-07 1.64343e-07)
(-2.56452e-07 8.75008e-09 1.01876e-06 -3.82794e-07 -1.68473e-07 9.76287e-07)
(-1.20961e-06 5.95427e-09 5.45725e-08 -1.21014e-06 -1.16807e-07 3.96985e-06)
(-8.73322e-07 1.08365e-09 3.24793e-07 -8.20792e-07 -1.29178e-07 2.83382e-06)
(-9.79448e-07 -1.82592e-09 3.40371e-07 -9.16622e-07 -1.25332e-07 3.15656e-06)
(-5.81725e-07 8.20812e-09 1.25534e-07 -5.36924e-07 -1.208e-07 1.82425e-06)
(-3.99298e-07 1.41161e-08 3.27575e-07 -3.53002e-07 -9.67214e-08 1.23267e-06)
(-4.5836e-07 1.05768e-08 3.4778e-07 -4.20692e-07 -1.01924e-07 1.44485e-06)
(4.18058e-08 9.46691e-09 9.07944e-07 1.42967e-07 -5.81601e-08 -2.53871e-07)
(1.61602e-07 1.03561e-08 9.08505e-07 2.53008e-07 -3.57233e-08 -6.62806e-07)
(3.26796e-08 8.73389e-09 8.87254e-07 1.25061e-07 -5.14912e-08 -2.14643e-07)
(-8.60242e-07 1.23214e-08 1.48463e-07 -7.93839e-07 -1.49588e-07 2.72081e-06)
(-7.29626e-07 1.84967e-08 4.2238e-07 -7.0862e-07 -1.41975e-07 2.37288e-06)
(-6.59106e-07 2.255e-08 4.13091e-07 -6.27647e-07 -1.47041e-07 2.12118e-06)
(-6.12728e-09 5.6353e-09 7.27246e-07 4.8401e-08 -1.81478e-08 -4.85859e-08)
(8.62571e-08 7.0255e-09 7.76917e-07 1.407e-07 -8.49546e-09 -3.60923e-07)
(-1.44017e-09 6.00489e-09 7.58119e-07 5.77834e-08 -2.28312e-08 -6.86049e-08)
(-6.20862e-07 -7.15624e-09 -1.00076e-08 -6.07804e-07 -7.62002e-08 1.99844e-06)
(-9.44013e-07 -2.04527e-08 -1.36838e-08 -9.16929e-07 -9.58591e-08 3.0612e-06)
(-6.1457e-07 -1.81205e-09 4.33238e-08 -5.95114e-07 -8.14e-08 1.96485e-06)
(-4.31502e-07 -2.05393e-09 2.45591e-07 -3.79832e-07 -7.15197e-08 1.33878e-06)
(-5.10077e-07 -4.70472e-09 2.62882e-07 -4.50945e-07 -7.86771e-08 1.57635e-06)
(-1.4738e-07 4.77769e-09 8.36009e-07 -1.767e-07 -1.07563e-07 4.92965e-07)
(1.3753e-08 6.53044e-09 8.50363e-07 -1.41786e-08 -1.03611e-07 -3.68666e-08)
(-1.35631e-07 4.49059e-09 8.08084e-07 -1.54225e-07 -9.95161e-08 4.40237e-07)
(-9.29547e-07 1.83115e-09 4.93785e-08 -9.19014e-07 -1.03456e-07 3.02422e-06)
(-8.49525e-07 -2.98887e-09 3.22488e-07 -7.88305e-07 -1.14539e-07 2.71969e-06)
(-7.49565e-07 -3.51931e-11 3.06884e-07 -6.98221e-07 -1.14545e-07 2.41654e-06)
(-8.376e-08 3.81601e-09 6.28615e-07 -5.30199e-08 -5.6564e-08 2.02762e-07)
(6.43003e-09 5.15157e-09 6.94269e-07 2.20275e-08 -6.52812e-08 -7.08909e-08)
(-9.03468e-08 3.79147e-09 6.60097e-07 -6.61066e-08 -6.30151e-08 2.33509e-07)
(-3.92771e-07 -9.11438e-09 5.58227e-08 -3.99169e-07 -9.41363e-08 1.26864e-06)
(-2.00456e-07 -2.17037e-09 3.80532e-08 -1.96114e-07 -6.20234e-08 5.98585e-07)
(-3.78672e-07 8.6817e-09 3.17461e-07 -3.36442e-07 -8.79822e-08 1.17161e-06)
(-3.94672e-07 6.13363e-09 1.04425e-07 -3.61554e-07 -9.59817e-08 1.21761e-06)
(-3.24332e-07 1.19713e-08 2.94142e-07 -2.74461e-07 -8.09834e-08 9.76466e-07)
(1.53255e-08 5.74783e-09 4.79411e-07 4.04828e-08 1.27581e-08 -8.17464e-08)
(-2.20649e-08 4.32169e-09 4.22904e-07 1.02654e-08 4.93165e-09 2.6001e-08)
(-2.1987e-08 4.42573e-09 4.66081e-07 1.21061e-08 3.5586e-09 2.36969e-08)
(-1.01613e-08 5.34203e-09 6.94698e-07 4.01901e-08 -1.38324e-08 -3.12629e-08)
(5.26899e-08 6.09966e-09 6.7741e-07 9.27151e-08 2.82922e-09 -2.28757e-07)
(-1.35688e-08 5.09923e-09 6.60508e-07 3.31036e-08 -9.93554e-09 -1.6524e-08)
(-2.01018e-07 4.73726e-09 7.33452e-08 -1.77537e-07 -6.26231e-08 5.85729e-07)
(-1.45599e-07 7.07959e-09 1.78374e-07 -8.87423e-08 -3.82044e-08 3.65576e-07)
(-1.8228e-07 5.22158e-09 2.10373e-07 -1.29804e-07 -4.76153e-08 4.9674e-07)
(-4.11174e-07 -8.52085e-10 -6.74445e-09 -4.04156e-07 -5.91831e-08 1.30235e-06)
(-2.00913e-07 3.19623e-09 -2.85309e-09 -1.97196e-07 -3.67962e-08 5.98654e-07)
(-4.15088e-07 -4.86373e-09 2.40403e-07 -3.5594e-07 -6.65331e-08 1.2563e-06)
(-4.09082e-07 -3.64846e-09 3.80643e-08 -3.86198e-07 -6.27981e-08 1.27671e-06)
(-3.44432e-07 -2.37812e-09 2.21926e-07 -2.91942e-07 -5.84916e-08 1.04262e-06)
(-1.77998e-08 5.93993e-09 4.08327e-07 3.18434e-08 -2.15138e-08 -3.54359e-08)
(-5.19876e-08 4.50629e-09 3.50777e-07 7.82759e-09 -1.70173e-08 5.67707e-08)
(-5.45502e-08 4.42041e-09 3.88165e-07 3.79268e-09 -2.06609e-08 6.72167e-08)
(-7.78967e-08 3.82094e-09 5.96495e-07 -4.1279e-08 -5.04234e-08 1.75191e-07)
(-2.08564e-09 5.18945e-09 5.92549e-07 3.11589e-08 -4.62014e-08 -6.64346e-08)
(-7.26991e-08 3.88763e-09 5.63632e-07 -3.08837e-08 -4.46322e-08 1.50695e-07)
(-2.02277e-07 -4.88236e-09 2.93259e-08 -1.78259e-07 -3.86757e-08 5.86652e-07)
(-1.46548e-07 -2.83905e-09 1.37822e-07 -9.03443e-08 -2.4773e-08 3.65975e-07)
(-1.90963e-07 -4.22037e-09 1.61926e-07 -1.30845e-07 -3.28981e-08 5.00548e-07)
(-3.11387e-08 4.22385e-09 3.40043e-09 -1.28827e-08 -4.59723e-09 2.91441e-08)
(-6.43364e-08 1.0462e-08 1.46661e-09 2.09707e-08 1.50943e-09 2.42497e-08)
(-5.11423e-08 3.72235e-09 2.36825e-08 7.83215e-09 -1.02421e-09 4.18617e-08)
(-2.17126e-08 4.20863e-09 3.78549e-07 9.02044e-09 5.88313e-09 2.68042e-08)
(3.06546e-09 5.63238e-09 3.4449e-07 2.31671e-08 1.27604e-08 -3.25736e-08)
(-2.10499e-08 3.98079e-09 3.33205e-07 8.36282e-09 6.38155e-09 2.61766e-08)
(-9.48006e-08 4.26796e-09 4.61797e-08 -7.52363e-08 -3.78163e-08 2.36892e-07)
(-1.33488e-07 4.32918e-09 1.68762e-07 -7.91698e-08 -3.53704e-08 3.29715e-07)
(-1.03778e-07 5.76527e-09 1.33523e-07 -4.66825e-08 -2.62801e-08 2.24531e-07)
(-6.13243e-08 1.71647e-08 1.6973e-08 2.8302e-08 4.7625e-10 1.59963e-08)
(-3.15211e-08 5.52867e-09 8.93409e-08 1.62944e-08 4.13337e-09 1.17851e-08)
(-2.77486e-08 3.19766e-09 -3.43031e-09 -2.37087e-08 -4.77218e-09 1.64876e-08)
(-8.95341e-08 3.92232e-09 -1.43508e-09 -8.58573e-08 -2.17959e-08 2.22408e-07)
(-2.9652e-08 -5.32464e-09 -2.74186e-09 -8.96575e-09 -4.46031e-09 1.93746e-08)
(-6.52588e-08 1.09594e-09 -1.77797e-10 2.21207e-08 1.73832e-09 2.40735e-08)
(-5.32385e-08 -3.71537e-09 1.4275e-08 9.07453e-09 -3.6501e-11 3.57845e-08)
(-4.9636e-08 4.48493e-09 3.12684e-07 1.11306e-08 -1.3757e-08 4.77547e-08)
(-2.54432e-08 6.18459e-09 2.89588e-07 2.76548e-08 -1.1737e-08 -1.38288e-08)
(-4.75138e-08 4.35146e-09 2.73907e-07 1.3801e-08 -1.08853e-08 3.99868e-08)
(-9.2049e-08 -5.32459e-09 1.90165e-08 -6.89236e-08 -2.26969e-08 2.20805e-07)
(-1.37883e-07 -4.13815e-09 1.30456e-07 -7.76563e-08 -2.35001e-08 3.22565e-07)
(-1.02817e-07 -3.05578e-09 1.0323e-07 -4.62093e-08 -1.63489e-08 2.17084e-07)
(-7.26504e-08 1.83455e-08 1.43454e-08 3.08275e-08 4.40786e-10 1.98538e-08)
(-5.69978e-08 5.73533e-09 6.41213e-08 2.63351e-08 -1.19662e-09 1.67406e-08)
(-6.0614e-07 -1.98549e-08 6.99356e-08 -6.28264e-07 -1.20861e-07 2.01827e-06)
(-8.18834e-07 -3.34881e-08 8.06659e-08 -8.60397e-07 -1.41665e-07 2.77199e-06)
(-3.35616e-08 1.69169e-10 4.22959e-09 -2.50593e-08 -8.77294e-09 2.86172e-08)
(-8.30351e-08 3.58993e-10 2.13344e-08 -7.41835e-08 -3.43682e-08 1.92891e-07)
(-1.36973e-06 -8.14479e-08 9.543e-08 -1.4778e-06 -1.70634e-07 4.75266e-06)
(-1.11978e-06 -5.7417e-08 9.09201e-08 -1.19482e-06 -1.62118e-07 3.84908e-06)
(-8.15925e-07 1.19048e-08 6.53361e-07 -6.84694e-07 -1.87103e-07 2.59279e-06)
(-5.41802e-07 1.63721e-08 7.84505e-07 -3.85613e-07 -1.64403e-07 1.66869e-06)
(-7.83486e-07 1.10789e-08 6.48319e-07 -6.6022e-07 -1.82146e-07 2.48899e-06)
(-1.39423e-06 2.36877e-08 1.72124e-07 -1.27388e-06 -1.79949e-07 4.42111e-06)
(-9.56893e-07 3.41219e-08 4.74763e-07 -9.46016e-07 -1.95848e-07 3.13965e-06)
(-1.03517e-06 3.04639e-08 4.70218e-07 -1.0353e-06 -1.7272e-07 3.4148e-06)
(-5.22097e-07 1.5391e-08 7.77187e-07 -3.76594e-07 -1.58049e-07 1.60944e-06)
(-7.18191e-07 9.66301e-09 6.34326e-07 -6.09237e-07 -1.71263e-07 2.27815e-06)
(-7.50939e-07 1.03069e-08 6.41932e-07 -6.35056e-07 -1.76864e-07 2.38406e-06)
(2.39799e-07 1.48774e-08 9.82503e-07 3.74691e-07 -6.4005e-08 -9.82625e-07)
(8.65748e-08 1.32172e-08 9.7348e-07 2.30758e-07 -8.73663e-08 -4.47255e-07)
(7.41397e-08 1.21691e-08 9.597e-07 2.06303e-07 -7.97497e-08 -3.93314e-07)
(-1.02543e-07 1.31569e-08 8.83154e-07 5.5363e-09 -8.34181e-08 2.20594e-07)
(-2.68479e-07 1.32647e-08 8.29768e-07 -1.56185e-07 -1.10415e-07 7.76242e-07)
(-1.01777e-07 1.42593e-08 8.99854e-07 1.55374e-08 -9.06858e-08 2.09982e-07)
(-9.82568e-08 1.66775e-08 9.28304e-07 3.98194e-08 -1.05635e-07 1.79749e-07)
(-2.77783e-07 1.42932e-08 8.44012e-07 -1.56627e-07 -1.17658e-07 8.01129e-07)
(-1.00356e-07 1.54305e-08 9.1493e-07 2.69517e-08 -9.80996e-08 1.96402e-07)
(-8.29563e-08 2.27407e-08 9.6519e-07 1.06115e-07 -1.36471e-07 8.14231e-08)
(-3.09959e-07 1.92812e-08 8.85192e-07 -1.46106e-07 -1.46534e-07 8.76974e-07)
(-8.78399e-08 2.10197e-08 9.58454e-07 8.72848e-08 -1.28688e-07 1.10851e-07)
(3.08773e-07 1.94922e-08 1.01983e-06 4.85343e-07 -8.81223e-08 -1.26923e-06)
(9.98609e-08 1.43501e-08 9.85557e-07 2.56861e-07 -9.51698e-08 -5.0496e-07)
(1.13995e-07 1.55891e-08 9.95922e-07 2.84639e-07 -1.03107e-07 -5.66453e-07)
(-3.02711e-07 1.78697e-08 8.77243e-07 -1.50645e-07 -1.39388e-07 8.61757e-07)
(-9.54818e-08 1.80118e-08 9.40012e-07 5.41434e-08 -1.1327e-07 1.59976e-07)
(-9.20213e-08 1.94564e-08 9.50064e-07 6.99643e-08 -1.20964e-07 1.37033e-07)
(-1.13614e-06 1.76722e-08 1.63677e-07 -1.04386e-06 -1.69439e-07 3.60236e-06)
(-9.30522e-07 2.59581e-08 4.57427e-07 -9.2314e-07 -1.6416e-07 3.05834e-06)
(-8.54421e-07 2.99483e-08 4.5702e-07 -8.36115e-07 -1.80312e-07 2.78935e-06)
(-5.86481e-07 7.68171e-09 5.91736e-07 -5.0051e-07 -1.46132e-07 1.84817e-06)
(-4.40174e-07 1.22415e-08 7.33783e-07 -3.30653e-07 -1.31073e-07 1.35614e-06)
(-6.19394e-07 8.11788e-09 6.04154e-07 -5.28368e-07 -1.52757e-07 1.95619e-06)
(-6.85324e-07 9.08165e-09 6.25476e-07 -5.82796e-07 -1.6536e-07 2.1714e-06)
(-4.61043e-07 1.29489e-08 7.46771e-07 -3.43513e-07 -1.38006e-07 1.42164e-06)
(-6.52362e-07 8.57666e-09 6.15403e-07 -5.55816e-07 -1.59181e-07 2.064e-06)
(-1.59714e-06 -5.79693e-08 -1.43217e-08 -1.5283e-06 -1.13278e-07 5.18245e-06)
(-1.27624e-06 -3.7943e-08 -1.52782e-08 -1.22983e-06 -1.08416e-07 4.14399e-06)
(-1.33992e-06 1.08283e-08 4.91886e-07 -1.37992e-06 -1.16024e-07 4.4145e-06)
(-1.00084e-06 -2.9288e-09 6.73669e-07 -1.07596e-06 -1.30574e-07 3.34741e-06)
(-1.26238e-06 9.58245e-09 4.79549e-07 -1.29376e-06 -1.12178e-07 4.14999e-06)
(-1.56205e-06 1.20067e-08 6.21075e-08 -1.58022e-06 -1.25297e-07 5.16462e-06)
(-1.14423e-06 3.9532e-09 3.57702e-07 -1.08761e-06 -1.57227e-07 3.74547e-06)
(-1.26101e-06 1.53713e-09 3.74423e-07 -1.19379e-06 -1.42729e-07 4.10408e-06)
(-9.40632e-07 -3.10155e-09 6.56933e-07 -1.00323e-06 -1.24785e-07 3.13459e-06)
(-1.11354e-06 7.48544e-09 4.55391e-07 -1.12871e-06 -1.03637e-07 3.64199e-06)
(-1.18687e-06 8.45402e-09 4.6746e-07 -1.21e-06 -1.08018e-07 3.89243e-06)
(1.04111e-08 9.23618e-09 9.64556e-07 -6.61818e-08 -1.3916e-07 3.87916e-08)
(-2.03952e-07 6.6316e-09 9.42875e-07 -2.83862e-07 -1.41649e-07 7.44418e-07)
(-1.88374e-07 6.02071e-09 9.16799e-07 -2.54425e-07 -1.32902e-07 6.75384e-07)
(-3.3687e-07 2.30568e-09 7.90863e-07 -3.65962e-07 -1.08586e-07 1.10529e-06)
(-5.45362e-07 2.53202e-09 7.13169e-07 -5.76021e-07 -1.07331e-07 1.78792e-06)
(-3.63471e-07 2.54643e-09 8.15384e-07 -4.04042e-07 -1.16477e-07 1.20697e-06)
(-4.20674e-07 3.25334e-09 8.63362e-07 -4.86359e-07 -1.32566e-07 1.42578e-06)
(-5.86109e-07 2.87727e-09 7.34144e-07 -6.28075e-07 -1.14498e-07 1.93535e-06)
(-3.91407e-07 2.84402e-09 8.39549e-07 -4.44181e-07 -1.24475e-07 1.3138e-06)
(-5.50398e-07 5.66593e-09 9.55815e-07 -6.75505e-07 -1.65345e-07 1.92409e-06)
(-7.65135e-07 5.17076e-09 8.15904e-07 -8.59238e-07 -1.4312e-07 2.58466e-06)
(-5.16132e-07 4.85463e-09 9.33046e-07 -6.25194e-07 -1.5712e-07 1.79209e-06)
(1.57616e-09 1.24021e-08 1.0449e-06 -1.20285e-07 -1.67814e-07 1.28109e-07)
(-2.20506e-07 7.21239e-09 9.68502e-07 -3.15052e-07 -1.50518e-07 8.17574e-07)
(-2.38018e-07 7.90463e-09 9.93825e-07 -3.48027e-07 -1.59466e-07 8.94883e-07)
(-7.18052e-07 4.43043e-09 7.95723e-07 -7.98062e-07 -1.36041e-07 2.4136e-06)
(-4.51245e-07 3.67645e-09 8.86837e-07 -5.30609e-07 -1.40736e-07 1.54286e-06)
(-4.83064e-07 4.19792e-09 9.10087e-07 -5.76895e-07 -1.48926e-07 1.66498e-06)
(-1.25181e-06 6.59854e-09 5.53436e-08 -1.2543e-06 -1.18332e-07 4.11286e-06)
(-1.11672e-06 -3.6524e-10 3.57613e-07 -1.05192e-06 -1.34851e-07 3.61865e-06)
(-1.00473e-06 2.42012e-09 3.416e-07 -9.50809e-07 -1.43601e-07 3.27729e-06)
(-8.41826e-07 4.04234e-09 4.07521e-07 -8.29411e-07 -8.41344e-08 2.71512e-06)
(-7.17974e-07 -3.10826e-09 5.89203e-07 -7.3661e-07 -1.00393e-07 2.34877e-06)
(-9.06328e-07 4.81498e-09 4.1959e-07 -9.00267e-07 -8.92265e-08 2.93523e-06)
(-1.04223e-06 6.51304e-09 4.43466e-07 -1.04995e-06 -9.90403e-08 3.39884e-06)
(-7.70813e-07 -3.18135e-09 6.06318e-07 -7.99543e-07 -1.0663e-07 2.53511e-06)
(-9.73129e-07 5.62257e-09 4.31494e-07 -9.73799e-07 -9.42285e-08 3.16317e-06)
(-6.10739e-07 8.56788e-09 1.28364e-07 -5.63887e-07 -1.24221e-07 1.91794e-06)
(-5.43953e-07 1.28023e-08 3.75419e-07 -5.11251e-07 -1.1583e-07 1.73783e-06)
(-4.80403e-07 1.66502e-08 3.58545e-07 -4.3858e-07 -1.13198e-07 1.51052e-06)
(-3.34168e-07 5.60801e-09 4.53836e-07 -2.74087e-07 -9.04789e-08 1.01016e-06)
(-2.71658e-07 7.80597e-09 5.81947e-07 -2.04711e-07 -7.61616e-08 8.09109e-07)
(-3.63778e-07 5.76982e-09 4.74595e-07 -3.01769e-07 -9.7446e-08 1.10944e-06)
(-4.25162e-07 6.14523e-09 5.13199e-07 -3.58217e-07 -1.11534e-07 1.31438e-06)
(-2.92237e-07 8.2607e-09 6.05432e-07 -2.21893e-07 -8.27382e-08 8.77418e-07)
(-3.94142e-07 5.9544e-09 4.94378e-07 -3.29851e-07 -1.0447e-07 1.21096e-06)
(-1.02684e-07 1.21367e-08 8.64776e-07 -3.10497e-09 -7.63301e-08 2.28342e-07)
(-2.38098e-07 1.05464e-08 7.77895e-07 -1.48299e-07 -8.91709e-08 6.89462e-07)
(-1.02234e-07 1.12063e-08 8.44757e-07 -1.04192e-08 -6.94511e-08 2.33345e-07)
(1.4455e-07 9.49475e-09 8.85652e-07 2.27101e-07 -2.95008e-08 -5.93897e-07)
(1.6783e-08 7.44096e-09 8.40701e-07 9.38682e-08 -3.9051e-08 -1.46546e-07)
(2.43445e-08 8.06021e-09 8.64825e-07 1.08702e-07 -4.5114e-08 -1.78898e-07)
(-2.2729e-07 9.77207e-09 7.57554e-07 -1.4369e-07 -8.2345e-08 6.57064e-07)
(-9.96526e-08 9.52746e-09 7.99799e-07 -2.13156e-08 -5.64045e-08 2.35707e-07)
(-1.0121e-07 1.03376e-08 8.23085e-07 -1.64738e-08 -6.28097e-08 2.35754e-07)
(-8.27427e-07 1.17934e-08 1.46166e-07 -7.63854e-07 -1.46701e-07 2.61566e-06)
(-5.67349e-07 1.94299e-08 3.87101e-07 -5.30336e-07 -1.30117e-07 1.80755e-06)
(-6.34482e-07 1.54131e-08 4.00366e-07 -6.07494e-07 -1.29252e-07 2.04791e-06)
(-5.53673e-07 7.28019e-09 5.78177e-07 -4.72325e-07 -1.39371e-07 1.74018e-06)
(-3.76668e-07 1.03198e-08 6.86674e-07 -2.87421e-07 -1.10094e-07 1.15347e-06)
(-5.21031e-07 6.93271e-09 5.63521e-07 -4.43911e-07 -1.32514e-07 1.6325e-06)
(-4.56701e-07 6.36574e-09 5.31013e-07 -3.86753e-07 -1.18586e-07 1.41931e-06)
(-3.55402e-07 9.75385e-09 6.68292e-07 -2.71711e-07 -1.0315e-07 1.08458e-06)
(-4.8868e-07 6.62738e-09 5.4781e-07 -4.15352e-07 -1.25583e-07 1.52544e-06)
(-8.89417e-08 6.93398e-09 6.90638e-07 -3.00413e-08 -3.35515e-08 2.14507e-07)
(-1.82025e-07 7.21507e-09 6.61501e-07 -1.17222e-07 -5.6801e-08 5.15557e-07)
(-9.22093e-08 7.4977e-09 7.20299e-07 -2.93126e-08 -3.8813e-08 2.226e-07)
(9.93551e-08 7.50854e-09 8.06693e-07 1.59799e-07 -1.31599e-08 -4.12901e-07)
(9.98493e-09 6.8994e-09 8.14873e-07 8.04629e-08 -3.32966e-08 -1.17453e-07)
(3.926e-09 6.4277e-09 7.87339e-07 6.84526e-08 -2.78898e-08 -9.15258e-08)
(-1.93522e-07 7.77898e-09 6.87703e-07 -1.24871e-07 -6.28754e-08 5.52265e-07)
(-9.76078e-08 8.78618e-09 7.74904e-07 -2.50306e-08 -5.02553e-08 2.33386e-07)
(-9.5118e-08 8.11443e-09 7.48396e-07 -2.76696e-08 -4.4386e-08 2.28954e-07)
(-6.54045e-07 -8.35144e-09 -1.04988e-08 -6.39634e-07 -7.85872e-08 2.1076e-06)
(-9.05361e-07 -1.87213e-08 -1.33228e-08 -8.80173e-07 -9.39041e-08 2.93454e-06)
(-6.46804e-07 -1.50952e-09 4.40022e-08 -6.28106e-07 -8.404e-08 2.07321e-06)