/*--------------------------------*- C++ -*----------------------------------*\
| =========                 |                                                 |
| \\      /  F ield         | OpenFOAM: The Open Source CFD Toolbox           |
|  \\    /   O peration     | Version:  2012                                  |
|   \\  /    A nd           | Website:  www.openfoam.com                      |
|    \\/     M anipulation  |                                                 |
\*---------------------------------------------------------------------------*/
FoamFile
{
    version     2.0;
    format      ascii;
    class       pointVectorField;
    location    "0.104/solid";
    object      pointD;
}
// * * * * * * * * * * * * * * * * * * * * * * * * * * * * * * * * * * * * * //

dimensions      [0 1 0 0 0 0 0];


internalField   nonuniform List<vector> 
4937
(
(1.0764e-05 -2.49837e-05 2.50981e-06)
(1.73649e-05 -3.94974e-05 2.78828e-06)
(7.56896e-06 -1.81861e-05 -4.41376e-07)
(1.40505e-05 -3.24985e-05 -4.8862e-07)
(4.68312e-06 -1.14872e-05 -3.79703e-07)
(7.59899e-06 -1.78226e-05 2.33396e-06)
(1.07481e-05 -2.52821e-05 -4.75378e-07)
(1.40567e-05 -3.22505e-05 2.57714e-06)
(4.69031e-06 -1.13067e-05 8.04031e-07)
(6.1156e-06 -1.43682e-05 2.19378e-06)
(9.15598e-06 -2.13761e-05 2.43795e-06)
(1.07512e-05 -2.51366e-05 1.00991e-06)
(1.24031e-05 -2.86146e-05 2.55433e-06)
(1.57123e-05 -3.58824e-05 2.58493e-06)
(1.73607e-05 -3.96229e-05 1.04755e-06)
(6.07711e-06 -1.47609e-05 -4.14343e-07)
(7.57383e-06 -1.8016e-05 9.35598e-07)
(9.13357e-06 -2.17068e-05 -4.61463e-07)
(1.23927e-05 -2.88846e-05 -4.84059e-07)
(1.40523e-05 -3.23754e-05 1.04124e-06)
(1.57093e-05 -3.61173e-05 -4.90362e-07)
(6.08309e-06 -1.45826e-05 8.7769e-07)
(9.13744e-06 -2.15483e-05 9.79119e-07)
(1.2395e-05 -2.87514e-05 1.02987e-06)
(1.57106e-05 -3.6001e-05 1.04643e-06)
(4.70669e-06 -1.11963e-05 1.41145e-06)
(5.40924e-06 -1.26965e-05 2.10905e-06)
(9.9549e-06 -2.31754e-05 2.47762e-06)
(1.07565e-05 -2.50601e-05 1.76613e-06)
(1.15807e-05 -2.67977e-05 2.53516e-06)
(1.65421e-05 -3.7704e-05 2.58915e-06)
(1.73622e-05 -3.9565e-05 1.82916e-06)
(6.81242e-06 -1.64584e-05 -4.28768e-07)
(7.56889e-06 -1.81039e-05 2.45326e-07)
(8.34365e-06 -1.99374e-05 -4.52244e-07)
(1.32208e-05 -3.06908e-05 -4.86777e-07)
(1.40509e-05 -3.24373e-05 2.75557e-07)
(1.48803e-05 -3.43072e-05 -4.89757e-07)
(4.6827e-06 -1.14033e-05 2.10064e-07)
(5.36624e-06 -1.3101e-05 -3.98007e-07)
(6.84658e-06 -1.60796e-05 2.26861e-06)
(8.36975e-06 -1.95902e-05 2.39024e-06)
(7.58411e-06 -1.79214e-05 1.63921e-06)
(1.07484e-05 -2.52103e-05 2.65933e-07)
(9.93593e-06 -2.34896e-05 -4.69138e-07)
(1.15678e-05 -2.70812e-05 -4.80308e-07)
(1.3229e-05 -3.04327e-05 2.56807e-06)
(1.48849e-05 -3.40672e-05 2.58244e-06)
(1.40543e-05 -3.23122e-05 1.81732e-06)
(1.73592e-05 -3.96797e-05 2.77563e-07)
(1.6544e-05 -3.79452e-05 -4.90602e-07)
(5.37281e-06 -1.29207e-05 8.42904e-07)
(6.0963e-06 -1.44792e-05 1.53918e-06)
(9.1451e-06 -2.14631e-05 1.7139e-06)
(9.93936e-06 -2.33376e-05 9.95996e-07)
(1.15704e-05 -2.6942e-05 1.02111e-06)
(1.23985e-05 -2.86825e-05 1.79929e-06)
(1.57116e-05 -3.59411e-05 1.82479e-06)
(1.65449e-05 -3.78297e-05 1.04747e-06)
(6.07687e-06 -1.46762e-05 2.29716e-07)
(6.81783e-06 -1.62836e-05 9.08534e-07)
(8.34801e-06 -1.97728e-05 9.59061e-07)
(9.13366e-06 -2.16293e-05 2.57254e-07)
(1.2393e-05 -2.88186e-05 2.71857e-07)
(1.32229e-05 -3.0563e-05 1.03648e-06)
(1.48817e-05 -3.41878e-05 1.04446e-06)
(1.57097e-05 -3.60595e-05 2.77498e-07)
(5.38758e-06 -1.28135e-05 1.47891e-06)
(6.81227e-06 -1.63746e-05 2.38005e-07)
(5.36591e-06 -1.30162e-05 2.20415e-07)
(6.82954e-06 -1.61845e-05 1.59251e-06)
(9.94583e-06 -2.32568e-05 1.74262e-06)
(8.34367e-06 -1.98573e-05 2.51725e-07)
(8.35694e-06 -1.96829e-05 1.67955e-06)
(9.93609e-06 -2.34149e-05 2.6197e-07)
(1.15748e-05 -2.68695e-05 1.78486e-06)
(1.32212e-05 -3.06273e-05 2.73953e-07)
(1.15681e-05 -2.70123e-05 2.69206e-07)
(1.32256e-05 -3.04972e-05 1.80992e-06)
(1.65458e-05 -3.77711e-05 1.82675e-06)
(1.48807e-05 -3.42478e-05 2.76727e-07)
(1.48833e-05 -3.41268e-05 1.82206e-06)
(1.65442e-05 -3.78875e-05 2.77731e-07)
(4.98039e-06 -1.1926e-05 8.76566e-07)
(7.14079e-06 -1.7281e-05 -9.84554e-07)
(4.9718e-06 -1.22522e-05 -9.14483e-07)
(7.14951e-06 -1.6989e-05 1.0168e-06)
(5.12543e-06 -1.19527e-05 2.66201e-06)
(7.23276e-06 -1.72797e-05 7.91815e-07)
(5.0658e-06 -1.22505e-05 7.41019e-07)
(7.27236e-06 -1.70073e-05 2.93564e-06)
(1.0306e-05 -2.41122e-05 1.14637e-06)
(7.90811e-06 -1.90215e-05 -9.9957e-07)
(7.91644e-06 -1.8743e-05 1.05562e-06)
(1.02999e-05 -2.43494e-05 -1.02663e-06)
(1.04009e-05 -2.41212e-05 3.13966e-06)
(7.99787e-06 -1.90203e-05 8.02126e-07)
(8.03182e-06 -1.87588e-05 3.002e-06)
(1.03807e-05 -2.43487e-05 8.19679e-07)
(1.1123e-05 -2.59222e-05 1.16803e-06)
(1.36011e-05 -3.15636e-05 -1.03704e-06)
(1.11179e-05 -2.61467e-05 -1.03119e-06)
(1.36031e-05 -3.13704e-05 1.20922e-06)
(1.12121e-05 -2.59292e-05 3.16827e-06)
(1.36699e-05 -3.15632e-05 8.2617e-07)
(1.11955e-05 -2.6146e-05 8.22446e-07)
(1.36788e-05 -3.13729e-05 3.21586e-06)
(1.69346e-05 -3.86699e-05 1.22483e-06)
(1.44322e-05 -3.33728e-05 -1.03747e-06)
(1.44332e-05 -3.3187e-05 1.21612e-06)
(1.69391e-05 -3.88534e-05 -1.04755e-06)
(1.70029e-05 -3.86699e-05 3.22763e-06)
(1.44987e-05 -3.33724e-05 8.2667e-07)
(1.4506e-05 -3.31884e-05 3.22224e-06)
(1.7002e-05 -3.88529e-05 8.3554e-07)
(4.9716e-06 -1.20506e-05 2.82355e-07)
(5.67821e-06 -1.35725e-05 9.27051e-07)
(5.66998e-06 -1.36914e-05 3.06858e-07)
(6.39346e-06 -1.55678e-05 -9.65713e-07)
(7.13573e-06 -1.71919e-05 -3.77922e-07)
(6.3877e-06 -1.54762e-05 -3.78674e-07)
(4.96443e-06 -1.21578e-05 -3.74113e-07)
(5.66934e-06 -1.38889e-05 -9.42528e-07)
(5.66281e-06 -1.37954e-05 -3.77555e-07)
(6.40236e-06 -1.5263e-05 9.73869e-07)
(7.14262e-06 -1.70958e-05 3.53011e-07)
(6.39478e-06 -1.53759e-05 3.30517e-07)
(5.09459e-06 -1.20672e-05 1.97894e-06)
(5.81607e-06 -1.35963e-05 2.76654e-06)
(5.78877e-06 -1.37062e-05 2.05484e-06)
(6.48698e-06 -1.55664e-05 7.78517e-07)
(7.2423e-06 -1.71972e-05 1.53959e-06)
(6.49769e-06 -1.54824e-05 1.50356e-06)
(5.07912e-06 -1.21656e-05 1.41071e-06)
(5.7636e-06 -1.38873e-05 7.61748e-07)
(5.77557e-06 -1.38024e-05 1.46082e-06)
(6.53277e-06 -1.5284e-05 2.85745e-06)
(7.25152e-06 -1.71071e-05 2.1768e-06)
(6.5088e-06 -1.53889e-05 2.12054e-06)
(9.4975e-06 -2.23097e-05 1.12044e-06)
(1.03022e-05 -2.41954e-05 4.26188e-07)
(9.49292e-06 -2.23983e-05 4.10814e-07)
(7.90368e-06 -1.89353e-05 -3.75733e-07)
(8.69233e-06 -2.0783e-05 -1.01127e-06)
(8.68844e-06 -2.07001e-05 -3.72517e-07)
(8.70007e-06 -2.05184e-05 1.09019e-06)
(7.91028e-06 -1.88436e-05 3.7405e-07)
(8.69469e-06 -2.06129e-05 3.93386e-07)
(1.02968e-05 -2.42737e-05 -3.64473e-07)
(9.49052e-06 -2.25604e-05 -1.02013e-06)
(9.48708e-06 -2.2481e-05 -3.68651e-07)
(9.59879e-06 -2.23208e-05 3.10305e-06)
(1.03902e-05 -2.42009e-05 2.32246e-06)
(9.5859e-06 -2.24052e-05 2.29641e-06)
(8.00635e-06 -1.89399e-05 1.56956e-06)
(8.77939e-06 -2.07819e-05 8.09915e-07)
(8.78693e-06 -2.07039e-05 1.59411e-06)
(8.80822e-06 -2.05318e-05 3.05749e-06)
(8.01387e-06 -1.88533e-05 2.22435e-06)
(8.79292e-06 -2.06211e-05 2.26397e-06)
(1.03867e-05 -2.42762e-05 1.6295e-06)
(9.57455e-06 -2.25595e-05 8.15628e-07)
(9.58125e-06 -2.24842e-05 1.61389e-06)
(1.11201e-05 -2.60003e-05 4.39393e-07)
(1.19463e-05 -2.77366e-05 1.18555e-06)
(1.19441e-05 -2.78102e-05 4.50414e-07)
(1.27706e-05 -2.97555e-05 -1.03605e-06)
(1.35989e-05 -3.15005e-05 -3.49646e-07)
(1.27682e-05 -2.96897e-05 -3.52696e-07)
(1.11152e-05 -2.60744e-05 -3.60274e-07)
(1.19422e-05 -2.79494e-05 -1.03421e-06)
(1.19397e-05 -2.78805e-05 -3.5628e-07)
(1.27736e-05 -2.95533e-05 1.19918e-06)
(1.36024e-05 -3.14366e-05 4.66125e-07)
(1.27722e-05 -2.96228e-05 4.59289e-07)
(1.12033e-05 -2.60046e-05 2.34285e-06)
(1.20302e-05 -2.77419e-05 3.18986e-06)
(1.2023e-05 -2.78134e-05 2.35834e-06)
(1.2842e-05 -2.9755e-05 8.25428e-07)
(1.36739e-05 -3.15011e-05 1.66173e-06)
(1.28464e-05 -2.96906e-05 1.65715e-06)
(1.12008e-05 -2.60764e-05 1.64154e-06)
(1.20166e-05 -2.79488e-05 8.24266e-07)
(1.20214e-05 -2.78819e-05 1.65058e-06)
(1.2853e-05 -2.9557e-05 3.2054e-06)
(1.36743e-05 -3.14381e-05 2.37751e-06)
(1.28473e-05 -2.96251e-05 2.36966e-06)
(1.60908e-05 -3.68175e-05 1.2227e-06)
(1.69393e-05 -3.87384e-05 4.70237e-07)
(1.6092e-05 -3.68787e-05 4.76422e-07)
(1.443e-05 -3.3312e-05 -3.47212e-07)
(1.52625e-05 -3.51825e-05 -1.03755e-06)
(1.52603e-05 -3.51236e-05 -3.45432e-07)
(1.52627e-05 -3.50025e-05 1.22041e-06)
(1.44331e-05 -3.32505e-05 4.71099e-07)
(1.5263e-05 -3.5064e-05 4.74446e-07)
(1.69347e-05 -3.8791e-05 -3.48628e-07)
(1.60918e-05 -3.69946e-05 -1.03755e-06)
(1.60894e-05 -3.69366e-05 -3.4434e-07)
(1.61599e-05 -3.68176e-05 3.2268e-06)
(1.70047e-05 -3.8738e-05 2.39679e-06)
(1.61578e-05 -3.68786e-05 2.3871e-06)
(1.45025e-05 -3.33123e-05 1.66476e-06)
(1.53271e-05 -3.51822e-05 8.27038e-07)
(1.53307e-05 -3.51236e-05 1.66663e-06)
(1.53332e-05 -3.50031e-05 3.22553e-06)
(1.45023e-05 -3.32513e-05 2.3826e-06)
(1.53302e-05 -3.50643e-05 2.38557e-06)
(1.70029e-05 -3.87905e-05 1.67199e-06)
(1.61551e-05 -3.69943e-05 8.27335e-07)
(1.61583e-05 -3.69364e-05 1.66765e-06)
(5.06631e-06 -1.18783e-05 2.06288e-06)
(1.03583e-05 -2.40786e-05 2.49461e-06)
(1.07601e-05 -2.50215e-05 2.14273e-06)
(1.11715e-05 -2.58901e-05 2.52331e-06)
(1.69677e-05 -3.86376e-05 2.61293e-06)
(1.73632e-05 -3.95344e-05 2.24949e-06)
(7.52652e-06 -1.81897e-05 -1.29189e-06)
(7.61051e-06 -1.8186e-05 4.12455e-07)
(7.18824e-06 -1.73189e-05 -4.35295e-07)
(7.56835e-06 -1.81457e-05 -9.75389e-08)
(7.95423e-06 -1.90591e-05 -4.47022e-07)
(1.40185e-05 -3.24987e-05 -1.37345e-06)
(1.40824e-05 -3.24979e-05 4.0098e-07)
(1.36356e-05 -3.15945e-05 -4.87797e-07)
(1.40506e-05 -3.24679e-05 -1.05768e-07)
(1.44655e-05 -3.34027e-05 -4.89267e-07)
(4.68199e-06 -1.14469e-05 -8.4501e-08)
(4.64076e-06 -1.14947e-05 -1.1542e-06)
(4.72403e-06 -1.14888e-05 3.97173e-07)
(5.021e-06 -1.22878e-05 -3.89105e-07)
(7.2203e-06 -1.69476e-05 2.30245e-06)
(7.98226e-06 -1.87037e-05 2.3632e-06)
(7.59115e-06 -1.7872e-05 1.99064e-06)
(1.0748e-05 -2.52464e-05 -1.04088e-07)
(1.0341e-05 -2.43848e-05 -4.7243e-07)
(1.07107e-05 -2.52833e-05 -1.35402e-06)
(1.07851e-05 -2.52814e-05 4.07357e-07)
(1.11572e-05 -2.61809e-05 -4.77999e-07)
(1.36427e-05 -3.13417e-05 2.57313e-06)
(1.44708e-05 -3.3159e-05 2.5802e-06)
(1.40556e-05 -3.22809e-05 2.20259e-06)
(1.73587e-05 -3.97077e-05 -1.06035e-07)
(4.69707e-06 -1.12532e-05 1.10437e-06)
(4.6855e-06 -1.13567e-05 5.06078e-07)
(4.62756e-06 -1.13054e-05 -6.72932e-08)
(4.74995e-06 -1.13187e-05 1.67494e-06)
(5.02788e-06 -1.21071e-05 8.23987e-07)
(5.75914e-06 -1.35268e-05 2.15268e-06)
(6.47822e-06 -1.52195e-05 2.23241e-06)
(6.1054e-06 -1.4424e-05 1.8701e-06)
(9.55402e-06 -2.22744e-05 2.45876e-06)
(8.76111e-06 -2.04812e-05 2.41513e-06)
(9.15028e-06 -2.14193e-05 2.08035e-06)
(1.07535e-05 -2.50988e-05 1.38459e-06)
(1.07495e-05 -2.51737e-05 6.37148e-07)
(1.03442e-05 -2.42361e-05 1.00331e-06)
(1.07065e-05 -2.51353e-05 1.67748e-08)
(1.07948e-05 -2.5139e-05 2.00249e-06)
(1.116e-05 -2.60386e-05 1.01583e-06)
(1.19913e-05 -2.77059e-05 2.54548e-06)
(1.28157e-05 -2.95236e-05 2.56184e-06)
(1.24007e-05 -2.86481e-05 2.18188e-06)
(1.6126e-05 -3.67904e-05 2.58576e-06)
(1.52987e-05 -3.49749e-05 2.58396e-06)
(1.5712e-05 -3.59113e-05 2.21052e-06)
(1.73614e-05 -3.95942e-05 1.43473e-06)
(1.73599e-05 -3.96514e-05 6.62044e-07)
(1.69725e-05 -3.87691e-05 1.0477e-06)
(1.73282e-05 -3.96232e-05 9.04811e-08)
(1.73931e-05 -3.96226e-05 2.00551e-06)
(6.44192e-06 -1.56055e-05 -4.21784e-07)
(5.71842e-06 -1.39258e-05 -4.06417e-07)
(6.07625e-06 -1.47196e-05 -9.19048e-08)
(6.03376e-06 -1.47663e-05 -1.23469e-06)
(6.1193e-06 -1.47615e-05 4.08883e-07)
(7.57074e-06 -1.80607e-05 5.89561e-07)
(7.57811e-06 -1.79696e-05 1.28388e-06)
(7.19336e-06 -1.71463e-05 9.22528e-07)
(7.51911e-06 -1.80143e-05 -2.47485e-08)
(7.6266e-06 -1.80223e-05 1.89545e-06)
(7.95883e-06 -1.88917e-05 9.47768e-07)
(8.73689e-06 -2.08201e-05 -4.57053e-07)
(9.53336e-06 -2.25967e-05 -4.65487e-07)
(9.0933e-06 -2.1709e-05 -1.33024e-06)
(9.13319e-06 -2.16684e-05 -1.01541e-07)
(9.17318e-06 -2.17062e-05 4.11032e-07)
(1.28065e-05 -2.97875e-05 -4.85538e-07)
(1.19797e-05 -2.79825e-05 -4.82322e-07)
(1.23926e-05 -2.88517e-05 -1.05399e-07)
(1.23581e-05 -2.88852e-05 -1.36724e-06)
(1.24269e-05 -2.88839e-05 4.0356e-07)
(1.40515e-05 -3.24064e-05 6.57821e-07)
(1.40532e-05 -3.23441e-05 1.42614e-06)
(1.36375e-05 -3.14691e-05 1.03908e-06)
(1.40153e-05 -3.23749e-05 4.17684e-08)
(1.40888e-05 -3.23758e-05 2.04015e-06)
(1.44671e-05 -3.32816e-05 1.04303e-06)
(1.52948e-05 -3.52119e-05 -4.90115e-07)
(1.61245e-05 -3.70259e-05 -4.90521e-07)
(1.56787e-05 -3.61165e-05 -1.37565e-06)
(1.57095e-05 -3.60885e-05 -1.05628e-07)
(1.57391e-05 -3.61161e-05 4.00025e-07)
(6.02376e-06 -1.4581e-05 -4.72929e-08)
(6.13992e-06 -1.45915e-05 1.80221e-06)
(5.72469e-06 -1.37462e-05 8.60799e-07)
(6.08856e-06 -1.45322e-05 1.20496e-06)
(6.07917e-06 -1.46305e-05 5.5276e-07)
(6.4476e-06 -1.54288e-05 8.93595e-07)
(9.08783e-06 -2.15468e-05 -2.60119e-09)
(9.18563e-06 -2.15525e-05 1.96032e-06)
(9.14066e-06 -2.15064e-05 1.34301e-06)
(9.53701e-06 -2.24415e-05 9.87938e-07)
(8.741e-06 -2.06586e-05 9.69503e-07)
(9.1351e-06 -2.15893e-05 6.17345e-07)
(1.23547e-05 -2.87506e-05 3.17738e-08)
(1.24347e-05 -2.87526e-05 2.02741e-06)
(1.19822e-05 -2.78463e-05 1.02578e-06)
(1.23965e-05 -2.87173e-05 1.41127e-06)
(1.23938e-05 -2.87852e-05 6.50184e-07)
(1.28086e-05 -2.9657e-05 1.03343e-06)
(1.56754e-05 -3.60001e-05 4.70407e-08)
(1.57447e-05 -3.60001e-05 2.04523e-06)
(1.57112e-05 -3.59715e-05 1.43267e-06)
(1.61258e-05 -3.69106e-05 1.04705e-06)
(1.52962e-05 -3.50941e-05 1.04558e-06)
(1.57101e-05 -3.60303e-05 6.61468e-07)
(5.32333e-06 -1.28071e-05 6.27278e-07)
(6.76048e-06 -1.63764e-05 -6.89182e-07)
(5.31216e-06 -1.30192e-05 -6.64217e-07)
(6.77136e-06 -1.61793e-05 6.99096e-07)
(5.44899e-06 -1.28265e-05 2.32487e-06)
(6.862e-06 -1.63785e-05 1.16399e-06)
(5.41704e-06 -1.30219e-05 1.10379e-06)
(6.88546e-06 -1.61944e-05 2.47973e-06)
(9.89997e-06 -2.3254e-05 8.07968e-07)
(8.29514e-06 -1.98583e-05 -7.02461e-07)
(8.30508e-06 -1.96788e-05 7.59792e-07)
(9.89145e-06 -2.34153e-05 -7.07752e-07)
(9.99041e-06 -2.32617e-05 2.67025e-06)
(8.39065e-06 -1.98598e-05 1.20478e-06)
(8.40705e-06 -1.969e-05 2.59265e-06)
(9.97965e-06 -2.34163e-05 1.23065e-06)
(1.15342e-05 -2.68678e-05 8.43151e-07)
(1.31839e-05 -3.06273e-05 -7.06569e-07)
(1.15273e-05 -2.70125e-05 -7.08259e-07)
(1.3189e-05 -3.04964e-05 8.65906e-07)
(1.16146e-05 -2.68725e-05 2.71927e-06)
(1.32581e-05 -3.06275e-05 1.25369e-06)
(1.16081e-05 -2.7013e-05 1.24575e-06)
(1.32615e-05 -3.04988e-05 2.74641e-06)
(1.65111e-05 -3.77663e-05 8.82315e-07)
(1.48459e-05 -3.42478e-05 -7.04553e-07)
(1.48495e-05 -3.41266e-05 8.78077e-07)
(1.65078e-05 -3.78807e-05 -7.03722e-07)
(1.65754e-05 -3.77662e-05 2.76194e-06)
(1.49152e-05 -3.42477e-05 1.25738e-06)
(1.49166e-05 -3.41274e-05 2.75833e-06)
(1.65741e-05 -3.78803e-05 1.25886e-06)
(4.63974e-06 -1.11893e-05 5.87827e-07)
(4.7705e-06 -1.12109e-05 2.22975e-06)
(5.04345e-06 -1.19982e-05 1.4461e-06)
(5.39777e-06 -1.27555e-05 1.79736e-06)
(9.95017e-06 -2.32158e-05 2.11472e-06)
(1.03501e-05 -2.41575e-05 1.75499e-06)
(1.07134e-05 -2.50578e-05 8.27175e-07)
(1.07986e-05 -2.50639e-05 2.69791e-06)
(1.11649e-05 -2.59642e-05 1.77606e-06)
(1.15777e-05 -2.68332e-05 2.16493e-06)
(1.65446e-05 -3.77385e-05 2.21374e-06)
(1.69743e-05 -3.87123e-05 1.82902e-06)
(1.73298e-05 -3.95659e-05 8.72999e-07)
(1.73941e-05 -3.95652e-05 2.76613e-06)
(6.81169e-06 -1.64174e-05 -9.49351e-08)
(6.76932e-06 -1.64629e-05 -1.26593e-06)
(6.85449e-06 -1.64586e-05 4.11483e-07)
(7.18812e-06 -1.72358e-05 2.41783e-07)
(7.51862e-06 -1.81053e-05 -6.97044e-07)
(7.61738e-06 -1.8107e-05 1.18653e-06)
(7.9542e-06 -1.8978e-05 2.48637e-07)
(8.30218e-06 -1.99403e-05 -1.31315e-06)
(8.34316e-06 -1.98979e-05 -9.97341e-08)
(8.38435e-06 -1.9937e-05 4.12184e-07)
(1.32209e-05 -3.06591e-05 -1.05678e-07)
(1.31876e-05 -3.06911e-05 -1.37102e-06)
(1.32538e-05 -3.06901e-05 4.02068e-07)
(1.3636e-05 -3.15322e-05 2.74813e-07)
(1.4015e-05 -3.24373e-05 -7.05513e-07)
(1.40865e-05 -3.24373e-05 1.25592e-06)
(1.44659e-05 -3.33425e-05 2.76193e-07)
(1.48492e-05 -3.43071e-05 -1.37489e-06)
(1.48804e-05 -3.42775e-05 -1.05728e-07)
(1.49112e-05 -3.43066e-05 4.00313e-07)
(4.62869e-06 -1.1407e-05 -6.46133e-07)
(4.7338e-06 -1.14101e-05 1.06499e-06)
(5.02062e-06 -1.22033e-05 2.15373e-07)
(5.36525e-06 -1.30599e-05 -8.84315e-08)
(5.3231e-06 -1.31074e-05 -1.19763e-06)
(5.40807e-06 -1.3102e-05 4.0425e-07)
(6.83758e-06 -1.61322e-05 1.93442e-06)
(8.36301e-06 -1.96364e-05 2.03914e-06)
(7.20436e-06 -1.70495e-05 1.61668e-06)
(7.5291e-06 -1.79167e-05 7.30937e-07)
(7.63713e-06 -1.79298e-05 2.54102e-06)
(7.96843e-06 -1.87995e-05 1.66015e-06)
(1.03412e-05 -2.43116e-05 2.64042e-07)
(1.07057e-05 -2.52106e-05 -7.08425e-07)
(1.07901e-05 -2.52113e-05 1.2393e-06)
(1.11574e-05 -2.61107e-05 2.67652e-07)
(9.89702e-06 -2.34913e-05 -1.34369e-06)
(9.93565e-06 -2.34525e-05 -1.02985e-07)
(9.97428e-06 -2.34889e-05 4.09326e-07)
(1.15677e-05 -2.70469e-05 -1.04882e-07)
(1.15318e-05 -2.7082e-05 -1.36172e-06)
(1.16034e-05 -2.70805e-05 4.0537e-07)
(1.32273e-05 -3.04645e-05 2.19421e-06)
(1.48841e-05 -3.40965e-05 2.20775e-06)
(1.36399e-05 -3.14047e-05 1.81399e-06)
(1.40194e-05 -3.23118e-05 8.73151e-07)
(1.40888e-05 -3.23133e-05 2.75386e-06)
(1.44689e-05 -3.32196e-05 1.81998e-06)
(1.69716e-05 -3.88265e-05 2.77386e-07)
(1.73274e-05 -3.968e-05 -6.71175e-07)
(1.73911e-05 -3.96795e-05 1.223e-06)
(1.6512e-05 -3.79399e-05 -1.37654e-06)
(1.65443e-05 -3.79169e-05 -1.05738e-07)
(1.65713e-05 -3.79395e-05 4.00528e-07)
(5.31157e-06 -1.29192e-05 -5.78089e-08)
(5.37891e-06 -1.28686e-05 1.15747e-06)
(5.36845e-06 -1.29698e-05 5.30701e-07)
(5.43125e-06 -1.29311e-05 1.74318e-06)
(6.03501e-06 -1.44734e-05 6.64465e-07)
(5.73867e-06 -1.36409e-05 1.50992e-06)
(6.46006e-06 -1.53275e-05 1.56669e-06)
(6.15504e-06 -1.44906e-05 2.40794e-06)
(9.09632e-06 -2.14596e-05 7.85498e-07)
(9.54406e-06 -2.23585e-05 1.72893e-06)
(8.74928e-06 -2.0571e-05 1.69745e-06)
(9.19238e-06 -2.1469e-05 2.63545e-06)
(9.89228e-06 -2.33362e-05 7.5608e-09)
(9.9421e-06 -2.32978e-05 1.36584e-06)
(9.93735e-06 -2.33766e-05 6.28172e-07)
(9.98524e-06 -2.33408e-05 1.9839e-06)
(1.15281e-05 -2.6941e-05 2.48818e-08)
(1.15723e-05 -2.69062e-05 1.39961e-06)
(1.1569e-05 -2.69774e-05 6.44429e-07)
(1.1612e-05 -2.69438e-05 2.01678e-06)
(1.23601e-05 -2.86813e-05 8.5599e-07)
(1.19861e-05 -2.77757e-05 1.79257e-06)
(1.28117e-05 -2.95898e-05 1.80504e-06)
(1.24362e-05 -2.86847e-05 2.73516e-06)
(1.56785e-05 -3.59407e-05 8.81102e-07)
(1.61265e-05 -3.6851e-05 1.8257e-06)
(1.52975e-05 -3.50338e-05 1.82363e-06)
(1.57438e-05 -3.59409e-05 2.76063e-06)
(1.65075e-05 -3.78228e-05 4.79979e-08)
(1.65457e-05 -3.78015e-05 1.43421e-06)
(1.65443e-05 -3.78583e-05 6.62074e-07)
(1.65756e-05 -3.78225e-05 2.04624e-06)
(6.0239e-06 -1.46785e-05 -6.78402e-07)
(6.44172e-06 -1.55211e-05 2.33984e-07)
(5.71813e-06 -1.38408e-05 2.25194e-07)
(6.12752e-06 -1.46809e-05 1.1366e-06)
(6.7607e-06 -1.62819e-05 -3.61445e-08)
(6.81433e-06 -1.63301e-05 5.72346e-07)
(6.82269e-06 -1.62352e-05 1.24702e-06)
(6.87273e-06 -1.62912e-05 1.85274e-06)
(8.29582e-06 -1.97711e-05 -1.34513e-08)
(8.3453e-06 -1.98157e-05 6.04519e-07)
(8.35174e-06 -1.97286e-05 1.31579e-06)
(8.39851e-06 -1.9778e-05 1.93108e-06)
(9.08704e-06 -2.163e-05 -7.05896e-07)
(8.73694e-06 -2.07413e-05 2.54595e-07)
(9.53349e-06 -2.25206e-05 2.59711e-07)
(9.17898e-06 -2.16312e-05 1.21931e-06)
(1.23541e-05 -2.88187e-05 -7.07555e-07)
(1.28068e-05 -2.97227e-05 2.7297e-07)
(1.198e-05 -2.79151e-05 2.70605e-07)
(1.24314e-05 -2.88189e-05 1.25041e-06)
(1.31844e-05 -3.05624e-05 3.73991e-08)
(1.32219e-05 -3.05953e-05 6.54588e-07)
(1.32241e-05 -3.05304e-05 1.41998e-06)
(1.32608e-05 -3.05637e-05 2.035e-06)
(1.4846e-05 -3.41876e-05 4.49484e-08)
(1.48811e-05 -3.42179e-05 6.60061e-07)
(1.48825e-05 -3.41576e-05 1.43022e-06)
(1.49171e-05 -3.41879e-05 2.0434e-06)
(1.56755e-05 -3.60587e-05 -7.03816e-07)
(1.52953e-05 -3.51533e-05 2.77161e-07)
(1.6125e-05 -3.69686e-05 2.77711e-07)
(1.57431e-05 -3.60585e-05 1.25827e-06)
(7.91223e-06 -1.90624e-05 -1.30307e-06)
(1.03028e-05 -2.43863e-05 -1.34921e-06)
(1.44339e-05 -3.34028e-05 -1.37427e-06)
(4.63407e-06 -1.14525e-05 -8.98476e-07)
(4.7909e-06 -1.11505e-05 2.60438e-06)
(4.72752e-06 -1.14507e-05 7.29016e-07)
(5.0542e-06 -1.19389e-05 1.75773e-06)
(4.97781e-06 -1.19915e-05 6.07819e-07)
(5.3258e-06 -1.27432e-05 9.02244e-07)
(7.18756e-06 -1.72781e-05 -9.62891e-08)
(7.14542e-06 -1.73229e-05 -1.27953e-06)
(7.52215e-06 -1.81483e-05 -9.92509e-07)
(6.76442e-06 -1.64206e-05 -9.75644e-07)
(7.13706e-06 -1.72374e-05 -6.93448e-07)
(5.01994e-06 -1.2247e-05 -8.65242e-08)
(4.97818e-06 -1.22947e-05 -1.17675e-06)
(4.96668e-06 -1.22066e-05 -6.55693e-07)
(5.31703e-06 -1.30647e-05 -9.29146e-07)
(7.21189e-06 -1.69986e-05 1.96352e-06)
(7.5307e-06 -1.78629e-05 1.03673e-06)
(6.77327e-06 -1.6122e-05 9.9583e-07)
(7.14775e-06 -1.70445e-05 7.1538e-07)
(5.1061e-06 -1.2012e-05 2.27886e-06)
(5.4673e-06 -1.27684e-05 2.71603e-06)
(7.23009e-06 -1.73189e-05 4.12148e-07)
(7.61308e-06 -1.8147e-05 7.97314e-07)
(6.85726e-06 -1.64192e-05 7.8557e-07)
(7.23727e-06 -1.72393e-05 1.17583e-06)
(5.06245e-06 -1.22891e-05 4.01044e-07)
(5.07181e-06 -1.22095e-05 1.08517e-06)
(5.41131e-06 -1.3063e-05 7.51909e-07)
(7.6498e-06 -1.788e-05 2.97024e-06)
(6.89989e-06 -1.61417e-05 2.89808e-06)
(7.25883e-06 -1.70586e-05 2.51163e-06)
(1.0354e-05 -2.41177e-05 2.12949e-06)
(1.07136e-05 -2.50165e-05 1.15773e-06)
(9.90053e-06 -2.32098e-05 1.13395e-06)
(1.03056e-05 -2.41549e-05 8.17985e-07)
(7.95368e-06 -1.90191e-05 -9.86862e-08)
(7.90477e-06 -1.89791e-05 -7.00029e-07)
(8.29829e-06 -1.98999e-05 -1.0058e-06)
(7.97498e-06 -1.87515e-05 2.01583e-06)
(8.30635e-06 -1.96284e-05 1.07344e-06)
(7.915e-06 -1.87951e-05 7.45754e-07)
(1.03407e-05 -2.43484e-05 -1.03577e-07)
(1.0708e-05 -2.52472e-05 -1.02912e-06)
(1.02975e-05 -2.43119e-05 -7.08203e-07)
(9.89398e-06 -2.34537e-05 -1.02365e-06)
(1.08055e-05 -2.50245e-05 3.1549e-06)
(9.99857e-06 -2.32198e-05 3.12241e-06)
(1.03934e-05 -2.41618e-05 2.68492e-06)
(7.99538e-06 -1.90589e-05 4.12451e-07)
(8.00196e-06 -1.89808e-05 1.19615e-06)
(8.38676e-06 -1.98988e-05 8.06307e-07)
(8.41808e-06 -1.96429e-05 3.03105e-06)
(8.01999e-06 -1.88072e-05 2.56799e-06)
(1.07872e-05 -2.52465e-05 8.21201e-07)
(1.03786e-05 -2.43842e-05 4.08358e-07)
(1.03838e-05 -2.43128e-05 1.23528e-06)
(9.97642e-06 -2.34528e-05 8.17836e-07)
(1.11681e-05 -2.59268e-05 2.15452e-06)
(1.1123e-05 -2.59622e-05 8.35558e-07)
(1.1534e-05 -2.6829e-05 1.17729e-06)
(1.36356e-05 -3.15634e-05 -1.05743e-07)
(1.3603e-05 -3.15947e-05 -1.37238e-06)
(1.40167e-05 -3.24681e-05 -1.0373e-06)
(1.31857e-05 -3.06594e-05 -1.03662e-06)
(1.35994e-05 -3.15322e-05 -7.06037e-07)
(1.1157e-05 -2.61459e-05 -1.04522e-07)
(1.11205e-05 -2.6182e-05 -1.35817e-06)
(1.11158e-05 -2.61108e-05 -7.08426e-07)
(1.15294e-05 -2.70475e-05 -1.03287e-06)
(1.36413e-05 -3.13728e-05 2.19884e-06)
(1.40182e-05 -3.22788e-05 1.21304e-06)
(1.31882e-05 -3.04619e-05 1.20462e-06)
(1.36041e-05 -3.14041e-05 8.69837e-07)
(1.12058e-05 -2.59676e-05 2.70932e-06)
(1.16204e-05 -2.68351e-05 3.17988e-06)
(1.3668e-05 -3.15939e-05 4.0147e-07)
(1.40843e-05 -3.24677e-05 8.26441e-07)
(1.32557e-05 -3.06589e-05 8.25839e-07)
(1.36722e-05 -3.15323e-05 1.25492e-06)
(1.11935e-05 -2.61802e-05 4.06352e-07)
(1.11983e-05 -2.61114e-05 1.24277e-06)
(1.16054e-05 -2.70468e-05 8.23455e-07)
(1.40923e-05 -3.22807e-05 3.2195e-06)
(1.32657e-05 -3.04649e-05 3.2112e-06)
(1.3675e-05 -3.1406e-05 2.75056e-06)
(1.69738e-05 -3.86805e-05 2.2262e-06)
(1.73285e-05 -3.95345e-05 1.24091e-06)
(1.65076e-05 -3.77321e-05 1.22367e-06)
(1.69422e-05 -3.87136e-05 8.75193e-07)
(1.44656e-05 -3.33727e-05 -1.0576e-07)
(1.44306e-05 -3.33425e-05 -7.05011e-07)
(1.48475e-05 -3.42776e-05 -1.03753e-06)
(1.44699e-05 -3.31888e-05 2.20552e-06)
(1.48481e-05 -3.40949e-05 1.21855e-06)
(1.44345e-05 -3.32193e-05 8.75874e-07)
(1.69718e-05 -3.8856e-05 -1.0622e-07)
(1.73279e-05 -3.9708e-05 -1.02939e-06)
(1.69362e-05 -3.88217e-05 -7.09734e-07)
(1.651e-05 -3.79106e-05 -1.03807e-06)
(1.7396e-05 -3.95332e-05 3.23722e-06)
(1.65762e-05 -3.77321e-05 3.22708e-06)
(1.70067e-05 -3.87132e-05 2.77052e-06)
(1.44968e-05 -3.34022e-05 4.00595e-07)
(1.45009e-05 -3.33425e-05 1.25673e-06)
(1.4913e-05 -3.42772e-05 8.26865e-07)
(1.49197e-05 -3.40959e-05 3.22421e-06)
(1.45028e-05 -3.32204e-05 2.75642e-06)
(1.73895e-05 -3.97075e-05 8.13705e-07)
(1.70025e-05 -3.88211e-05 1.26398e-06)
(1.65727e-05 -3.79102e-05 8.27711e-07)
(8.69599e-06 -2.08227e-05 -1.32218e-06)
(9.49375e-06 -2.25987e-05 -1.33739e-06)
(1.52641e-05 -3.52116e-05 -1.37534e-06)
(1.60934e-05 -3.70232e-05 -1.37587e-06)
(4.63338e-06 -1.12495e-05 2.69891e-07)
(4.62625e-06 -1.1358e-05 -3.7138e-07)
(4.75821e-06 -1.1267e-05 1.93695e-06)
(4.74154e-06 -1.13662e-05 1.3827e-06)
(5.31728e-06 -1.2865e-05 2.94692e-07)
(4.96583e-06 -1.21057e-05 -6.27057e-08)
(5.0343e-06 -1.20542e-05 1.13164e-06)
(5.67587e-06 -1.36347e-05 6.46168e-07)
(6.03721e-06 -1.44128e-05 9.50933e-07)
(5.74831e-06 -1.35842e-05 1.8348e-06)
(5.66436e-06 -1.37446e-05 -5.26548e-08)
(6.02929e-06 -1.45288e-05 3.18814e-07)
(5.73047e-06 -1.36949e-05 1.18191e-06)
(6.38929e-06 -1.55232e-05 -6.84188e-07)
(6.02829e-06 -1.47236e-05 -9.54696e-07)
(6.44112e-06 -1.55642e-05 -9.34743e-08)
(6.39864e-06 -1.56104e-05 -1.251e-06)
(6.75903e-06 -1.63302e-05 -3.78504e-07)
(7.13742e-06 -1.71446e-05 -3.04546e-08)
(7.19007e-06 -1.71919e-05 5.81243e-07)
(7.51741e-06 -1.80606e-05 -3.76981e-07)
(6.02215e-06 -1.4631e-05 -3.78377e-07)
(6.38934e-06 -1.54271e-05 -4.17731e-08)
(6.4439e-06 -1.5476e-05 5.62856e-07)
(5.31009e-06 -1.29707e-05 -3.76153e-07)
(5.02329e-06 -1.21567e-05 5.18716e-07)
(5.66471e-06 -1.38435e-05 -6.71766e-07)
(5.71749e-06 -1.38845e-05 -9.02243e-08)
(5.6751e-06 -1.39316e-05 -1.21692e-06)
(5.72055e-06 -1.37948e-05 5.42045e-07)
(6.40031e-06 -1.53219e-05 6.82114e-07)
(6.46862e-06 -1.52737e-05 1.90328e-06)
(6.76602e-06 -1.62319e-05 3.41928e-07)
(7.19793e-06 -1.70989e-05 1.26609e-06)
(7.52417e-06 -1.79666e-05 3.63729e-07)
(6.45277e-06 -1.53793e-05 1.22665e-06)
(5.43825e-06 -1.28806e-05 2.01821e-06)
(5.08697e-06 -1.21183e-05 1.71025e-06)
(5.79877e-06 -1.3653e-05 2.36787e-06)
(6.17136e-06 -1.44352e-05 2.81364e-06)
(5.78236e-06 -1.37559e-05 1.7738e-06)
(6.14575e-06 -1.45426e-05 2.08892e-06)
(6.49196e-06 -1.55254e-05 1.15094e-06)
(6.1223e-06 -1.47221e-05 7.70597e-07)
(6.4841e-06 -1.56058e-05 4.10411e-07)
(6.86737e-06 -1.63359e-05 1.52238e-06)
(7.24723e-06 -1.71533e-05 1.87503e-06)
(7.62208e-06 -1.80655e-05 1.55529e-06)
(6.13362e-06 -1.46375e-05 1.48307e-06)
(6.50351e-06 -1.5437e-05 1.8285e-06)
(5.42394e-06 -1.29781e-05 1.43672e-06)
(5.76908e-06 -1.38461e-05 1.12091e-06)
(5.76049e-06 -1.39265e-05 4.06846e-07)
(6.51741e-06 -1.5338e-05 2.4452e-06)
(6.87752e-06 -1.62441e-05 2.14981e-06)
(7.63042e-06 -1.79771e-05 2.20162e-06)
(9.49676e-06 -2.23554e-05 7.97142e-07)
(9.09724e-06 -2.14124e-05 1.10586e-06)
(9.54881e-06 -2.23162e-05 2.09836e-06)
(9.89636e-06 -2.32957e-05 4.18772e-07)
(1.02983e-05 -2.42347e-05 1.22976e-08)
(1.03467e-05 -2.41973e-05 1.3757e-06)
(1.07103e-05 -2.5097e-05 4.33064e-07)
(9.09226e-06 -2.15039e-05 4.0235e-07)
(9.48866e-06 -2.244e-05 2.58936e-09)
(9.53998e-06 -2.24006e-05 1.35495e-06)
(8.29414e-06 -1.98154e-05 -3.74229e-07)
(7.90537e-06 -1.889e-05 -1.90605e-08)
(7.95594e-06 -1.89355e-05 5.97315e-07)
(8.68935e-06 -2.07421e-05 -7.04395e-07)
(9.08986e-06 -2.167e-05 -1.01602e-06)
(8.73645e-06 -2.07812e-05 -1.00685e-07)
(8.69009e-06 -2.06569e-05 -7.94929e-09)
(9.0862e-06 -2.15889e-05 -3.70643e-07)
(8.73847e-06 -2.07005e-05 6.1119e-07)
(8.69897e-06 -2.05672e-05 7.73044e-07)
(8.7549e-06 -2.05259e-05 2.06063e-06)
(8.30058e-06 -1.97259e-05 3.83944e-07)
(7.96284e-06 -1.88464e-05 1.30044e-06)
(8.74447e-06 -2.06155e-05 1.32996e-06)
(9.89074e-06 -2.33761e-05 -3.66582e-07)
(1.03423e-05 -2.42742e-05 6.32882e-07)
(1.07051e-05 -2.51732e-05 -3.6235e-07)
(9.48785e-06 -2.25212e-05 -7.06985e-07)
(9.53303e-06 -2.2559e-05 -1.02307e-07)
(9.53483e-06 -2.24815e-05 6.22999e-07)
(9.58997e-06 -2.23639e-05 2.65379e-06)
(9.20191e-06 -2.14246e-05 3.08145e-06)
(9.98678e-06 -2.33018e-05 2.31019e-06)
(1.03889e-05 -2.42389e-05 1.99377e-06)
(1.07958e-05 -2.51019e-05 2.33331e-06)
(9.18784e-06 -2.15114e-05 2.28104e-06)
(9.58403e-06 -2.24452e-05 1.97277e-06)
(8.39475e-06 -1.98196e-05 1.58247e-06)
(8.01048e-06 -1.88974e-05 1.91411e-06)
(8.78311e-06 -2.07435e-05 1.21248e-06)
(9.17544e-06 -2.1669e-05 8.13004e-07)
(8.77706e-06 -2.08197e-05 4.11697e-07)
(8.79034e-06 -2.06632e-05 1.94645e-06)
(9.18254e-06 -2.15923e-05 1.60456e-06)
(8.79796e-06 -2.05775e-05 2.6151e-06)
(8.40148e-06 -1.97349e-05 2.2451e-06)
(9.98274e-06 -2.3379e-05 1.62217e-06)
(1.07928e-05 -2.51755e-05 1.63593e-06)
(9.57793e-06 -2.25223e-05 1.22535e-06)
(9.57235e-06 -2.25962e-05 4.10229e-07)
(1.15315e-05 -2.69048e-05 4.45176e-07)
(1.11165e-05 -2.60375e-05 2.09754e-08)
(1.11621e-05 -2.60019e-05 1.39254e-06)
(1.19466e-05 -2.77742e-05 8.49951e-07)
(1.23595e-05 -2.86448e-05 1.19283e-06)
(1.19887e-05 -2.77404e-05 2.17402e-06)
(1.19409e-05 -2.78454e-05 2.84848e-08)
(1.23578e-05 -2.87163e-05 4.55115e-07)
(1.19839e-05 -2.78114e-05 1.40584e-06)
(1.27687e-05 -2.97228e-05 -7.07082e-07)
(1.2356e-05 -2.88521e-05 -1.03526e-06)
(1.28065e-05 -2.97552e-05 -1.05566e-07)
(1.27726e-05 -2.97879e-05 -1.36932e-06)
(1.31834e-05 -3.0595e-05 -3.51097e-07)
(1.35998e-05 -3.14686e-05 3.97389e-08)
(1.36366e-05 -3.15008e-05 6.5634e-07)
(1.40144e-05 -3.24062e-05 -3.48348e-07)
(1.23535e-05 -2.87848e-05 -3.54427e-07)
(1.27693e-05 -2.96563e-05 3.47463e-08)
(1.28076e-05 -2.969e-05 6.52544e-07)
(1.15268e-05 -2.69769e-05 -3.58232e-07)
(1.11584e-05 -2.60749e-05 6.4099e-07)
(1.19402e-05 -2.79152e-05 -7.07957e-07)
(1.19796e-05 -2.79489e-05 -1.05173e-07)
(1.19444e-05 -2.79832e-05 -1.36472e-06)
(1.19809e-05 -2.78809e-05 6.47486e-07)
(1.27743e-05 -2.95887e-05 8.61306e-07)
(1.28137e-05 -2.95563e-05 2.18858e-06)
(1.31871e-05 -3.05297e-05 4.62953e-07)
(1.36385e-05 -3.14372e-05 1.42335e-06)
(1.40178e-05 -3.23436e-05 4.68832e-07)
(1.281e-05 -2.96237e-05 1.41597e-06)
(1.16125e-05 -2.69085e-05 2.35116e-06)
(1.12026e-05 -2.60408e-05 2.01013e-06)