/*--------------------------------*- C++ -*----------------------------------*\
| =========                 |                                                 |
| \\      /  F ield         | OpenFOAM: The Open Source CFD Toolbox           |
|  \\    /   O peration     | Version:  2012                                  |
|   \\  /    A nd           | Website:  www.openfoam.com                      |
|    \\/     M anipulation  |                                                 |
\*---------------------------------------------------------------------------*/
FoamFile
{
    version     2.0;
    format      ascii;
    class       volScalarField;
    location    "0.104/solid";
    object      sigmaHyd;
}
// * * * * * * * * * * * * * * * * * * * * * * * * * * * * * * * * * * * * * //

dimensions      [1 -1 -2 0 0 0 0];


internalField   nonuniform List<scalar> 
3125
(
20259.1
41705.6
-200.77
3515.76
43302.7
-9909.87
-18019.1
40330.7
45918.9
-947.233
1062.71
45005.6
19382.1
-8961.94
38891.8
-3759.04
20875.9
44150.9
20531.9
-1095.13
43263.8
-1342
19020.6
4215.75
18247.9
-592.241
-3211.21
4548.02
19562.7
4107.94
19258.2
-581.292
-1286.11
4403.91
-320.638
-380.425
3895.17
-201.035
3391.18
-282.632
-473.493
3720.78
29636.1
31068.2
-421.883
-106.441
56664.9
54942.4
25068.1
52301.7
22096
-13070.7
10916.4
12392.2
14062.3
-14230.1
12843.4
50766.6
17985.3
21080.2
60886.7
58940.8
43962.1
59803.3
36174.9
-301.608
19955.9
25280.8
33313.5
-16.0743
27192.3
57870.8
26847.3
33726.5
27954.6
9840.7
12816.2
10389.5
-6430.44
8738.3
29259.8
16944.8
13836.9
6461.2
-5688.74
8171.39
30944.2
32495.2
30318.6
12157.4
17023.2
18320
-1356.65
13833.1
31840.5
24715.5
18819.2
8848.13
-1388.41
12480.5
11187.7
10191.1
8890.8
11023.4
6221.24
-1463.66
2355.49
3755.49
5896.96
-1835.52
4267.81
10104
3223.92
5403.91
11312.5
10275.6
10711.3
11301
6906.24
-924.21
2259.19
4210.03
7779.72
-1030.45
4997.9
10303.2
3095.95
5817.11
179.559
-816.459
643.156
1943.21
22.6947
872.753
481.359
2601.32
1066.92
-818.399
60.8109
543.412
-583.96
-270.525
-63.1282
-856.979
296.023
1739.25
-243.943
526.346
233.8
2368.38
704.11
-890.335
-226.378
202.483
24137
37037
-1032.02
1683.37
63690.3
48208.3
58545
44770.4
-10910.7
-2680.24
-3154.38
-6850.1
-16704.3
-6131.23
44735
31342.9
34704.7
68876.1
51376.9
67742.8
55741.7
-766.602
6133.89
6823.95
11917.2
664.775
10953.8
50378.1
37040.4
40966
22932
15612.1
18388.6
-2245.7
-8066.35
-1849.35
34668.6
30375.6
27118.9
-205.147
-4353.88
-398.502
25017.8
39008.2
24542.8
17142
19998.3
5488.75
-1212
4887.39
38209.1
35160.4
31484.4
2144.41
-1379.09
2504.3
15492.8
6565.52
14836.2
14994.9
12274.4
-842.986
461.548
449.024
-40.1051
-2708.94
97.8504
6733.18
4265.14
6001.32
15828.2
6517.7
15771.3
15646.6
13203.1
-695.25
409.848
534.925
1820.49
-1214.24
1531.14
6698.78
4195.18
5809.07
-483.513
-621.269
-47.0732
458.641
-206.084
438.409
2172.79
3804.36
2407.3
-553.347
-111.854
-1136.52
1528.04
-625.403
-619.6
-272.333
300.604
-377.556
203.902
1944.56
3478.31
2211.89
-713.994
-452.469
25475.8
35514.5
-975.121
1159.36
61916.8
49870.5
35495.7
24091.3
33971.8
56972.5
40194.2
43690.9
23099.5
30898.4
32437
-11964.4
-4222.47
-3668.34
4016.58
11426.3
4021.62
3942.63
11918.4
3997.42
3398.9
13679.5
3584.63
-15441.1
-4817.75
-5454.14
13273
3855.71
3736.71
46226.6
39152
35711.5
24738.4
19022.8
26273.8
29356.5
20055.3
27814.1
66852.7
53232.2
55076.5
41294.8
51800.4
65726.2
49192.9
53601.8
38698.7
45491.6
48605.6
-551.818
8339.62
7559
13079.9
21662.4
14282.2
16859.3
23437.9
15541.9
22691.1
31209.2
21149.9
305.524
9165.5
10037.2
29168.4
18232.6
19663.2
52219.5
47125.3
42956.8
33926.1
29060.9
36680.5
42466.4
31354.4
39528
24157.8
22185.3
19224.9
13061.8
10814.1
14426.5
17257.4
11806.9
15826.4
3982.95
9849.62
3922.48
-7222.98
-1166.58
-1490.19
9297.72
3729.01
3837.29
33292.2
23070.5
26192.8
23210.9
15904.9
21695.7
18715.2
14867.8
20195.8
3104.55
7030.07
3285.04
-4996.79
-877.674
-622.285
7600.88
3599.3
3450.4
26452.4
37342.8
25944.6
24651.4
21519.6
15465.4
13691.8
17412.2
21621.3
15314.2
19464.9
11935
16753.5
10848
-1298.47
3812.3
4328.85
15258.3
8845.3
9817.91
36574.1
26306.1
29716.3
31268.9
22666.1
28707.1
23882.5
20700.3
26245
5513.47
9987.56
6263.62
-1395.46
3336.67
2901.41
11198
7928.13
7068.06
14368.9
7419.16
11737.4
7968.22
10458.2
13962.7
9244.73
11562.8
7077.42
8052.53
9228.56
-1133.17
370.692
419.029
1425.48
2796.94
1637.09
2069.44
3264.43
1851.89
2912.12
5341.01
2709.5
-2250.77
302.042
211.494
4797.05
2285.96
2500.2
7528.29
8605.22
6564.81
3985.73
3901.92
4897.39
6935.88
4629.32
5882.28
14647.3
7398.92
13627
9353.45
11895.3
14506.9
9715.48
11982.1
8085.05
8761.85
10273.3
-811.525
850.542
680.224
1355.97
2842.61
1709.8
2549.61
3491.79
2106.5
4816.8
6781.71
4173.74
-1128.28
1048.47
1274.16
5854.28
3041.25
3581.57
7545.39
8653.4
6707.86
3851.5
3912.4
4905.84
7362.5
4819.58
6076.72
-410.712
790.939
137.194
-714.016
-199.232
-149.502
686.625
254.63
261.28
1219.5
1560.57
1018.33
-72.1757
339.842
399.244
1204.67
620.509
819.474
1683.59
1033.74
2057.98
3155.17
2034.98
2409.02
1180.14
1524.79
1751.27
-644.368
-193.403
-174.098
60.0548
241.469
118.189
223.9
399.545
168.366
-1095.29
1000.31
-584.042
441.299
-63.2507
-717.269
-450.404
-359.621
332.351
-52.658
-40.1957
1041.38
1280.23
763.428
-300.168
22.1286
112.181
876.632
291.208
514.372
1440.81
788.113
1678.32
2912.95
1729.61
2092.2
804.331
1174.74
1387.72
-780.689
-471.693
-478.588
-236.827
-89.2122
-210.876
-88.9608
67.1628
-149.152
21530.8
40138.5
-747.067
2866.15
67269.6
44929.2
46576.3
61715.7
52887.8
58131.5
33759.9
41789.1
36158.5
38001.1
37355
39368.3
32751.4
72977.1
47723.5
78475.2
71831.6
66898.6
79471
49465
46772.3
42055.7
48414.5
43683.1
50422.3
47476.5
18120
20546
18289.8
18342.4
19326.9
19429.6
17201.6
30751.2
37471.4
34979.1
36648.2
33815.6
31748
35311
22233.4
42420.1
22182.6
21838.6
19345.1
21265
20550.2
22681.6
20806.5
43611.4
41557.2
40432.9
46444.1
45522.3
38855.5
44509.9
17824.2
4965.35
15414.1
17276.9
17279.3
17140.9
16296.6
16288.9
16240.3
5459.56
5243.88
4642.84
4463.75
5305.1
5111.34
4849.54
18293
4877.25
18180.9
18155.6
19893
18025.2
19472.2
17012.8
18563.6
5097.05
5131.23
4345.78
4221.17
5017.41
4972.51
4384.45
-170.106
-329.387
-220.065
-406.71
-398.721
-443.475
-260.869
3727.39
3282.44
4015.79
3852.17
3427.08
4268.42
3277.6
-798.327
2732.39
-357.137
-369.464
-389.877
-238.3
-488.261
-548.949
-276.232
3102.7
3086.92
3705.56
3522.9
3721.52
3113.62
2878.88
-540.992
-527.142
-343.432
-714.318
28233.1
32537.8
-665.645
268.129
58409.5
53246.2
41723.8
53852.2
45698.6
49263.4
46909.6
40731.9
50720
38758.4
49244.7
44502.8
47816.7
43317.4
39744.7
46382.3
62864.9
57025
66648.6
61757.3
55765.4
65403
57564.4
67674.3
64381.7
59946.6
55968.9
53967.2
63165.6
52211.4
60960.3
62143.3
22849.6
26671.8
25787.5
26378.3
24688.8
23814
25172.4
25777.3
30589.2
26906.5
27603.2
28045
24791.1
28847.8
29424.3
34095.3
29648.4
28835.6
28425.7
31967.2
27053.4
30323.4
31256.7
34597.7
33391.1
29844.9
33645.3
31273.9
35370.3
32906.7
12222.4
9241.88
11195.2
11978.3
10718.8
10517.1
11598.4
10401.2
11407.4
8881.05
9217.14
9868.07
9656.08
9048.93
9627.51
8824.46
12397.6
9287.31
12315.1
12336.6
10765.6
11401.5
11720.9
12498
11261
9289.56
9350.12
9833.11
10352.8
8948.32
9351.26
10252.3
591.086
-68.2216
383.203
347.924
123.663
852.251
102.149
-392.775
-804.763
-536.066
-720.631
-465.206
-446.513
-720.923
1493.7
837.445
691.603
639.516
1044.59
1153.27
977.147
-434.527
-780.527
-440.87
-700.385
-389.129
-531.378
-648.964
-816.452
104.843
-128.676
-296.154
144.657
-294.837
-88.4247
-512.984
88.5404
-653.638
-833.532
-716.531
-898.751
-573.185
-734.415
-858.001
699.979
586.873
432.538
-1.33786
765.061
351.569
364.178
-779.347
-873.237
-593.824
-948.615
-729.547
-698.454
-955.662
22823.3
38580.5
-958.96
2250.64
65478.4
46562.3
25978.2
26261.9
45616.9
60128.7
50492.7
55143.4
51697.4
56633
44645.9
26456.4
-14159.1
-12731
-15016
-12091.7
-17218.2
-16437
-18411.9
-19243.3
-13237.4
-10519.1
-12428.4
-11103.3
-25848.9
-21866
-22780.7
-24785.4
-32987.7
-34174.9
-27305.4
-25182.4
-28408.4
-24203.1
-31360.3
-30226.9
22931.3
22514.2
34764.4
43256.6
39725.4
42139.6
38544.3
40748.2
35761.1
21627.8
22069
70923.7
49537.5
72291
74684.9
76046.4
69777.1
63114.1
74666.5
64987.1
77057.4
73650.9
79849.8
77391.7
15739.2
18397.9
16560.1
17596.3
9029.34
8462.93
9817.97
10426.2
14709.2
15690.6
13937.8
16430.1
27773.6
29169.7
30258.9
26749
20388.2
21330.5
29349.7
33047.1
30416.5
31887.6
19216.2
18321.7
51301.5
49283.5
51492
48567.6
47025.1
54542
45353.5
52463.9
53550.3
45197.2
47135.6
14750.4
14213.2
19048.8
21729.2
21428.3
21666.6
20376
20537.8
19981.3
13057
13596.8
-10070
-7732.97
-8212.65
-9348.07
-14598.5
-15320.8
-13552.1
-12882.6
-10824
-9597.25
-11590.1
-9066.06
19695
20175.6
29750.8
36064.8
31479.1
32679.4
32649.8
33988.4
28749
21147.4
20686.1
-3719.68
-2999.19
-2737.23
-4220.56
-5467.57
-5089.32
-6110.2
-6527.87
-3374.89
-2046.61
-2919.02
-2270.56
23611
40706.3
22936.4
21573.7
23598.1
23178.6
23062.4
25625.2
21800.1
24134.2
25049.1
18908.3
20187.8
11407.3
12257
12881.7
10719.1
7230.79
7743.11
12260.9
14592.1
12996
13909.1
6572.54
6102.94
37559.6
39336.5
41734.5
39869
35751.6
40747.7
37281.7
42614.2
39893
43147.3
41290.3
4780.15
6200.74
5811.4
5254.32
1686.69
1471.34
4352.78
4867.47
3925.1
5209.69
2016.52
2259.59
16645.3
5749.6
10747.5
11281.9
14538.4
16057.5
14349.8
14232.2
15313.4
15224.9
13674.9
12436.8
11899.8
267.61
531.161
72.2017
562.511
-378.672
-271.786
-595.796
-725.571
278.576
679.019
442.071
665.561
-1979.12
-929.808
-1083.65
-1602.16
-4175.91
-4510.76
-2214.51
-1630.58
-2629.4
-1443.96
-3655.03
-3362.79
5825.55
5370.32
6095.99
5973.08
6718.69
6503.43
6002.78
5791.51
6752.87
4428.37
4854.8
17049.3
5681.12
14099.2
15216.2
16928.4
16819.3
14803.9
16015.8
15886.1
17274.6
15711.9
17613.7
16418.7
403.803
907.896
590.034
791.377
-381.793
-401.354
-344.928
-318.147
339.369
513.609
182.508
605.574
2857.76
3269.98
3530.33
2502.68
1015.06
1193.41
3164.74
4319.3
3557.82
4018.38
779.224
631.701
5781.94
5080.8
5851.15
5896.93
6478.45
6589
5733.66
5761.99
6641.84
3786.13
4410.02
173.119
-52.3207
-93.6003
-479.04
-384.862
-365.448
-419.386
-435.608
21.1581
-173.878
-527.541
-467.582
-569.2
-376.359
-383.176
-340.636
-489.834
-276.956
526.219
779.539
791.295
637.337
-14.5223
-95.2247
127.261
183.869
561.889
755.174
429.78
752.736
2764.47
3121.55
3211.17
2708.39
2354.67
2238.31
2872.38
2739.44
2724.76
3952.13
3555.59
241.368
331.156
167.94
293.981
189.059
46.139
263.278
353.344
62.8523
-208.363
-72.5593
15.8013
-1028.67
2110.17
-537.033
-592.629
-430.573
-574.651
-490.342
-804.643
-522.383
-711.403
-453.896
-402.294
-513.159
-542.917
-614.481
-431.837
-409.752
-553.149
-629.743
-591.19
-18.3432
91.1622
152.081
-139.184
-428.272
-419.355
3.52245
353.358
140.275
278.105
-438.267
-438.126
1694.14
2156.09
2529.66
2494.19
2046.98
1714.5
2556.67
2278.15
1998.37
3197.03
2659.9
-704.318
-567.872
-713.467
-616.421
-672.543
-613.295
-475.261
-858.753
-574.593
-783.618
-642.546
-765.391
-875.029
-825.676
-987.077
-928.086
-832.978
-689.271
-587.254
26846.5
34018.9
-857.159
692.799
60160.9
51555.2
16073.1
20988.2
21049.2
16180.8
7750.97
4327.71
16046
21193.9
8202.33
5153.54
8352.14
4731.42
25736.6
25425.1
42705.4
55409.5
49298.2
53659.8
43676.4
48111.1
52186.7
24799.9
25139.8
16231.9
20803.1
16157.7
20704.4
9218.02
6487.19
6138.55
9263.09
8852.68
5486.19
8759.89
5870.86
16155.4
20344.5
20480.1
16193.4
-16919.7
-13795.2
-16019.4
-14482.9
-22742.8
-23692.1
-18010.1
-16367.9
-15622.3
-18954.3
-21406.3
-20509.3
-5245.29
-7765.71
-7115.48
-5666.75
538.309
2661.38
2519.92
952.285
191.38
1853.4
-267.169
2038.33
-4495.34
-5847.09
-6459.67
-4121.07
-6957.49
-8496.44
-9194.31
-6487.81
-1664.06
206.088
-2201.97
488.861
-7846.68
-10738
-10002.6
-8369.16
-1176.61
1316.77
-682.063
1081.51
-13329.2
-15268.9
-16127.3
-12641.2
-6744.65
-4417.96
-7428.22
-3914.67
-14482.2
-18164.3
-17277.5
-15228.9
-5950.54
-2654.41
-3096.76
-5300.22
-22395.2
-20518.2
-23418.3
-19653.2
-26117.1
-25105.7
-21119
-17573.9
-20136
-18378.9
-27603.9
-28671.1
-10919.5
-14204.8
-11557.2
-13391.7
-3335.84
-450.297
-783.554
-2760.39
-3973.46
-1885.8
-1495.21
-4585.55
-9903.97
-11632.7
-9322.07
-12410.7
23341.9
23733.8
37764.5
47732.9
40920.4
43542.8
36761.8
42124.6
44957.6
24469.8
24105.2
15583
19076.7
18836.1
15645
10108
7960.99
7761.83
9975.3
9928.37
7502.73
7736.49
10021.6
15317.7
18200.4
18472.2
15222.6
15896.4
19408
19615.7
15867.9
9575.71
6693.59
9578.98
7000.26
16073.5
20083.7
16066.9
19912
9846
7417.93
7146.28
9797.34
64849.7
55124.5
66965.8
66580
68864.3
65015.4
62905.1
62640.9
64650
60929.1
69731
73687.1
71327.2
71751.5
60222.5
56631.4
58551.1
58297
69674.9
67355.8
68952.3
63735.2
61239
72307.4
71281.9
59402.4
69975.4
62581.1
64829.2
60452.5
64198
62343.6
61988.3
51823.9
48533.3
50086.7
50313.7
54358.6
54111.6
55941.1
52501.8
57880.1
57556.6
59688.6
56060.6
18536.1
19647
17671.8
20495.6
12862.1
13581.1
19737.2
22739.7
21826.6
20646.3
11951
11277
25217.1
24422
23430.3
26172.5
29062.6
29472
30510.5
27946.4
30793.5
33527.6
31975.5
32422.3
23664.4
21079.5
22029.6
22765.3
28833.5
25913
26965.4
27816.7
36976.1
40024
38264.9
38779.9
30563.6
29641
28547.9
31643.1
35036.5
35523.2
33808.5
36699.5
40960
37331.3
38571
39682.9
51214.2
54914.1
52700.7
53379.6
43015.9
41824.5
40554.5
44360.6
48862.7
49506.9
50959.4
47421.5
24278.6
27621.8
25261.7
26581.6
15340.1
14563.5
22884.8
24137.8
21942.2
25112.7
16387.1
17213.6
36492.8
35446.3
37710.8
34263.7
41641.2
42202.9
43511.3
40299.3
43783.8
47160.8
45773.4
45175.2
34605
31329.1
33453.5
32474.2
53541.5
55640.9
57780.1
54081.6
48738.9
56646.2
55647.6
50454.2
58791
60149.7
57976.6
43870.7
47123.3
45231
45489.5
36989.2
34289.8
35598.2
35775.8
39167.2
38967.6
37602
40452.2
41694
41454.2
43265.8
40151.3
49450.9
49175.1
51146.3
47764.7
46434.8
46214.2
47873
44729.2
51826.3
55337.2
53584.4
53283.1
44081
41081.4
42510.4
42717.7
15358.5
15891.8
21887.2
25406.9
22501.8
22815.7
20929.2
23594.5
23984.8
17009.4
16488.3
11002.6
12811.4
12391.2
11261.5
8133.25
6937.66
6977.42
7796.58
8263.89
7306.84
8589.19
7289.28
10501.5
11436.8
11866.8
10227.6
11990.5
13326.5
13735.1
11748.2
9063.56
7795.13
9350.86
7828.58
12455.8
14630
14237.2
12679.2
8996.24
7587.88
8688.97
7580.74
-2485.83
-3670.46
-4201.89
-2208.11
1613.84
3081.14
1233.91
3180.93
-3112.51
-5273.23
-4702.07
-3432.68
1830.1
3603.99
2168.4
3543.78
-7993.18
-6949.69
-8668.59
-6514.12
-10387.1
-9821.04
-11293.2
-11906.5
-7385.27
-5413.17
-5800.35
-6756.09
-1411.33
-3237.79
-1648.55
-2751.45
2730.43
4183.72
4196.47
2996.68
2630.1
3915.48
2326.31
3936.19
-912.841
-1934.12
-2382.59
-717.41
19157.8
18660.9
26766.2
31933.1
30325.1
31386.1
27752.9
29186
30108.9
17590
18101.5
14444.9
16756
17084.3
14293
9938.13
7933.56
10108.7
8093.83
14791.6
17806.4
17505.3
14914.9
10027.6
8145.26
8016.93
9823.55
13734.1
16309.6
15958
13912.5
9643.81
8006.01
9381.38
7941.49
13322
15116.3
13119.8
15489.8
9635.71
8017.54
8112.8
9871.59
803.88
-418.029
-87.1705
715.786
3510.03
4402.43
4525.57
3647.24
3595.48
4550.73
4451.07
3429.64
1083.54
348.714
51.8194
1138.93
-5167.19
-3528.96
-4622.82
-3826.69
-8470.9
-8984.99
-7700.63
-7233.54
-5634.17
-4758.9
-6219.91
-4418.09
265.802
-608.642
385.014
-978.336
3278
4391.56
4346.16
3045.25
3275.67
4432.52
4508.57
3475.08
-121.713
-1631.03
-275.522
-1223.2
27930.4
35706.6
24414.7
25862.2
28076.8
27373.8
24370.2
27151.6
26541.9
25688.7
28723.4
28962.5
27432.9
18881.3
20963.3
19720.5
19936
15211.7
13664.4
14473.8
14517.6
16621.5
16551.1
17369.1
15683.9
17499.8
17285.1
18448.1
16521.7
22532.3
22323.2
23644.4
21412.6
21285.3
21186.8
22161.2
20200.1
24108.4
26495.2
25092
25302.5
19689.2
17862.6
18872.9
18789.3
19074.6
16826.7
17680.1
18300.4
25244.7
27661.5
26310.6
26682.5
20465
19782.5
18884.5
21293
23709.2
24055.2
22706.3
24968.6
9296.93
11307.5
9939.57
10726
4545.96
4170.98
8592.95
9327.63
9853.45
7997.07
5090.67
5502.67
16281.8
15708.9
17000
14915.7
18975.3
19249.9
20038.2
18080.9
20313.3
22427
21268.2
21578.3
15065.5
13129.6
13880
14402
35700.5
34007
36326.7
34972.4
34227.3
38919.8
38088.4
32747.2
37127.2
30629.6
32243
34623.8
34403.7
36052.8
33221.5
32550
32384.6
33696
31148.1
36598.5
39575.4
37843.5
38075.5
30567.5
28160.4
29339.4
29490.9
30012.2
32699.2
31129.9
31345.8
24799.2
22690.2
23861.1
23745.8
28237.3
28026.9
26976.9
29511.9
26595.8
26460.7
25345.9
27599.9
9570.42
9186.57
8589.62
10075.9
11274.5
11437.9
11999
10597.5
12253.7
13793.5
13173.5
12983.5
8674.54
7320.85
7877.93
8218.21
6256.54
6874.78
5739.88
7299.37
3359.47
3688.33
6809.77
8517.4
7368.63
8042.78
2931.08
2639.98
11603.6
9972.89
11051.5
10626
15991.1
17809.9
17076.1
16829.8
14835.3
15054.9
15724.9
14051
12662.3
12185.3
13265.8
11488.5
13286.6
8316.12
8911.02
9508.68
9945.22
8622.42
7290.23
6604.65
7637.84
6542.61
9431.72
10909.6
10474.3
9715.34
7110.63
6110.05
6755.76
6189.51
10136.4
9613.49
12007.1
12957.8
13411.5
13265.2
12829.8
12499.8
12323.2
8497.48
9011.7
7805.08
8984.03
8099.18
8549.75
5983.61
5165.31
5274.04
5631.9
6201.48
5745.27
6556.57
5649.11
7286.22
7602.03
8031.98
6989.03
-192.81
389.431
35.6985
341.302
-1455.28
-1644.82
-262.889
93.4591
163.875
-522.182
-1145.21
-991.223
1712.99
1360.88
1450.38
1790.32
2341.42
2501.67
2688.36
2315.51
2584.41
3016.68
2605.28
2826.84
1704.15
1400.55
1333.49
1614.28
1846.63
1456.58
1346.94
1780.73
3075.95
3617.59
3058.62
3429.76
1805.76
1283.53
1421.51
1861.56
2844.31
3134.6
2841.73
3326.97
1587.28
978.627
751.332
1591.22
3634.07
4439.71
3524.31
4295.96
1399.03
440.109
702.23
1371.53
3481.07
4139.16
4298.1
3562.28
-1076.49
-615.584
-1414.24
-492.111
-2225.54
-2002.58
-929
-130.73
-631.164
-225.085
-2637.78
-2894.71
1718.69
992.247
1735.4
1187.5
3241.16
3699.45
3882.11
3278.64
3442
4111.26
3938.89
3384.01
1826.7
1333.44
1788.82
1167.62
6365.32
6848.12
8150.65
8359.04
7467.01
7246.72
7438.65
8248.81
8021.06
7911.96
7414.07
4623.02
5304.57
4915.71
4905.63
3657.62
3146.8
3284.75
3348.66
3903.55
3781.98
3649.16
4231.09
4161.58
4096.85
4465.94
3890.26
5679.45
5776.64
6183.55
5391.02
5051.92
4786.08
5400.61
4664.51
6181.35
7096.86
6476.98
6675.66
4814.5
4157.37
4285.01
4474.1
13511.8
8330
13128.1
12899.4
13907.3
12280.8
12573
12539.9
13209.7
11795.3
14319
16095.4
15010.6
15235.2
11358.8
10070
10776.1
10758.7
12984.3
11954.2
13408.3
13407.2
13738.9
14802.2
14537.5
12719.9
13633.9
9978.53
10928.9
10400
11877.6
11182.8
10946.8
8097.86
7058.6
7634.96
7620.04
9128.47
9123.34
9653.3
8492.05
9392.67
9157.36
10009.6
8681.23
896.721
1140.42
679.44
1274.26
-119.052
-50.7336
1023.09
1715.68
1551.58
1269.46
-207.301
-253.916
1901.12
1792.66
1532.46
2085.18
2206.23
2215.93
2435.16
1909.07
2594.76
3206.9
2929.32
2951.74
1542.04
1074.9
1305.58
1387.17
2714.53
2068.57
2367.27
2496.97
4282.85
5090.21
4709.52
4757.89
3191.13
3026.62
2691.59
3437.38
3760.8
3801.16
3385.11
4091.38
6238.28
5147.46
5613.4
5871.64
9078.26
10352.4
9701.1
9836.75
6987.66
6686.28
6178.84
7396.06
8260.88
8378.09
8840.91
7691.21
1929.02
2838.31
2244.24
2609.78
161.954
69.9628
1715.59
2042.63
1439.08
2234.61
320.363
434.429
4869.89
4644.47
5197.84
4229.69
5769.69
5841.42
6209.84
5294.62
6431.14
7461.12
7042.74
6952.86
4264.07
3409.34
3977.45
3787.07
6543.4
7328.89
8365.73
8428.95
7270.11
7466.18
7480.09
8086.33
8392.38
9041.61
8175.79
4441.65
5350.31
4723.31
4964.76
3281.12
2670.47
3035.33
2988.09
3947.27
3985.43
3571.53
4280.25
3789.3
3557.85
4110.32
3331.63
6288.24
6046.1
6745.75
5701.11
6259.08
6280.28
6688.13
5765.23
7113.53
8297.55
7764.12
7522.19
5415.06
4601.83
5068.19
5034.49
408.778
631.084
366.266
-264.231
-266.585
-256.513
171.45
-95.5919
-98.3852
1137.04
889.575
-53.1644
222.575
-41.7726
185.205
-437.39
-762.579
-402.512
-682.991
-378.273
-490.86
-699.672
-273.421
-566.582
-305.889
-573.967
-9.82186
195.418
283.63
-20.9225
-307.936
-579.824
-299.122
-561.859
653.122
457.326
681.164
455.508
947.686
1042.59
1170.11
897.836
930.347
1165.55
931.463
1133.93
738.17
463.09
510.872
625.558
1436.38
1210.65
1187.18
1345.7
2028.64
2360.66
2069.95
2176.65
1491.83
1276.37
1322.02
1579.94
1791.93
1852.19
1739.27
2028.28
662.456
795.755
578.668
766.499
391.064
419.087
329.325
286.476
587.486
711.433
749.5
638.747
1173.96
1069.01
1269.89
1075.54
1214.09
1199.61
1364.07
1141.53
1442.68
1701.01
1508.25
1530.78
1084.13
903.707
919.925
975.804
2376.65
2057.99
1869.34
1238.72
1877.13
1777.69
2277.11
1442.22
1356.93
1432.79
1716.18
2794.29
2638.9
2950.37
2563.39
2813.52
2798.05
3106.3
2662.44
3200.33
3680.46
3336.68
3455.83
2584.1
2194.67
2327.62
2310.2
1975.16
2290.77
2007.83
2190.55
1618.34
1319.24
1388.6
1460.76
1639.01
1440.02
1435.24
1695.72
1836.34
1884.92
1751.2
2085.09
79.8219
249.612
130.442
300.847
-232.851
-541.562
-242.233
-476.24
33.6442
279.834
13.118
215.492
-129.818
-308.292
-103.521
-406.911
443.656
447.248
442.801
521.419
437.958
437.006
419.691
403.52
562.975
665.83
545.351
604.916
602.607
453.27
477.952
521.917
811.646
1030.1
853.715
906.814
580.324
489.308
668.248
461.455
746.96
741.492
861.353
700.089
-991.031
532.7
-458.501
-326.423
-291.352
-467.529
-404.687
-767.963
-401.838
-272.009
-667.26
29.4208
-178.072
-615.666
-447.403
-576.525
-535.382
-648.522
-775.879
-506.634
-729.69
-578.66
-639.377
-791.338
-740.114
-935.601
-810.271
-876.799
-606.695
-565.331
-468.366
-679.039
-687.825
-742.251
-648.51
-790.18
-292.372
-353.1
-211.947
-429.745
-13.205
3.1125
103.709
-155.755
-123.406
140.27
-57.6629
52.1614
-217.44
-442.409
-306.308
-313.677
694.108
367.83
536.906
578.381
1322.22
1766.39
1577.44
1577.53
949.467
886.287
690.026
1083.18
1037.95
1038.74
823.454
1197.72
-251.459
-15.6385
-150.642
-67.2306
-446.331
-451.075
-265.156
-197.676
-153.27
-346.461
-443.652
-443.386
271.908
240.518
368.398
98.9034
213.551
208.17
318.767
55.6536
402.711
713.789
587.76
581.243
91.2537
-126.655
-5.71166
15.7339
1273.05
898.457
1085.06
990.783
1571.67
1207.47
1515.53
1148.04
758.22
272.257
564.305
1880.76
1666.24
2079.36
1532.2
2157.13
2203.79
2409.94
1889.27
2361.55
3017.81
2536.38
2764.12
1657.49
1220.29
1493.76
1446.06
843.008
1283.67
941.617
1133.81
511.022
210.245
367.111
395.189
523.8
370.285
294.058
638.38
850.664
890.616
662.098
1028.65
-715.414
-616.72
-729.132
-557.194
-704.374
-852.555
-677.602
-907.117
-745.626
-563.636
-953.472
-876.098
-1000.19
-833.565
-1020.23
-722.225
-523.684
-682.908
-603.572
-861.182
-1010.51
-876.405
-1035.93
-479.115
-461.609
-560.814
-413.723
-469.235
-459.479
-446.313
-281.591
-367.704
-325.314
-502.268
-518.492
-346.042
-518.653
-423.455
-417.584
-232.091
-8.13478
-101.915
-95.5442
-365.477
-366.82
-279.578
-485.456
-210.656
-219.19
-135.56
-327.811
-45.8447
-312.456
-135.785
-133.112
-205.72
-429.106
-271.43
-387.584
-332.102
-259.212
-196.785
-318.788
-730.046
-454.097
-488.074
-347.647
-390.016
-582.949
39425
47082.8
52025.8
36144.8
38716.7
34799.5
45987
49422.8
50713.7
35495.5
37993.8
29525
34394.7
32523.6
26162.3
35594.5
28719
26960
30333.6
28441.2
38033.4
33511.6
36814.4
31127.5
27651.3
76727.9
70676.7
59128.4
79168.1
62956
68815.1
74294.2
64534.5
56956.3
59360.7
61110.3
66333.8
71905.9
47915.4
39454
38021.8
41435.3
40959.4
45951.7
42857
49912
46446
44108.6
39962.5
42560.7
51942.4
44965.1
16465.3
16929.2
16580.6
14229.5
17897.4
15679.5
14996.4
17270.3
16455.8
19895.3
17389.1
18891.4
18065.6
15673.5
27090.3
33196.6
25465.3
29210.8
27901.4
32019.3
24658.7
26266.2
23150.3
29690.5
28264.5
30844.5
25448.4
23959.9
21258.3
18185
17833.4
18177.7
19286.7
19923.5
19111.7
22620.6
21583.9
21626.5
19281.7
20471.5
24028.3
20592.6
42153
37900.4
39403.2
34222.6
44030.3
36443.2
38044.2
40306.6
34786.2
33525.4
32395
34937.6
38496.9
36083.8
14125.6
15973.6
13565
13908.5
14888.6
15045.9
12817.2
13354.1
11441.4
13163.7
13243.8
14131.2
12167.6
12605.3
5291.46
4435.03
4850.86
4349
5019.57
4743.69
4868.63
5869.43
5921.02
6278.86
5367.81
5637.64
6456.03
5360.35
17395.2
17058.9
16782.2
15120.6
18641.4
16015.5
15907.4
16190.9
13779
13823
13962.3
14949.4
14595.6
15017.8
4911.44
4293.59
4581.35
4072.55
4901.33
4234.81
4541.39
5617.89
5846.12
6245.67
5387.93
5571.3
6370.95
5320.12
-16.3302
91.6639
-132.93
-201.799
-245.651
144.017
-93.2417
3722.79
3877.72
3900.78
3281.32
4212.7
3356.78
3429.78
3245.01
2601.63
2407.69
2873.58
2864.47
2802.35
3023.77
-411.936
-350.363
-291.61
-335.324
-357.439
-392.009
-416.056
3027.51
3695
3383.29
3136.27
3613.35
3158.53
2972.75
2488.28
2026.67
2173.35
2512.13
2636.7
1984.5
2377.49
35779.6
44288.8
32015.2
41410.7
32755.3
35022.6
45556.3
36527.5
34141.1
48123.2
42471.2
37265.9
33420.3
46843.5
33488.3
43016.9
31341.7
37938.5
34258.1
30581.7
41764.6
32708.1
29127
39271.9
36914.9
31922.8
29902.2
40508.8
64933.5
52397.2
50326.2
56329.8
54071.4
58002.9
62679.1
67227.1
62108.5
57553
52439.6
69541
55842.2
60373.3
58281.5
50667.2
46039.7
54023.7
49035.3
60455.5
52414.3
56129.6
48624.7
45753.8
44009.8
54017.8
47346.5
50169.2
20514.8
24095.2
19433.5
21120.4
18630.1
21326.3
23025.5
19691.5
17143.1
20924.7
20261
18882.5
17936.9
21963.3
22973
25188.7
20131
24164.8
22154.6
20938.9
26289.5
23802.8
22449.5
28540.6
25071.6
24619.3
21638.5
27412.6
28494.5
26636.6
23863.8
26959.1
25375.9
25848.7
30061.4
26968.2
23150
22868.7
22279
25473.3
24078.6
24200.8
33323.2
27988.5
27137.4
28688.5
29302.7
31667.9
29861.2
35007.5
32903.7
32069.9
28852.4
36732.4
30707.6
31668
10417
9904.53
8830.75
10042.5
9501.97
9720.13
10702.1
11138.6
10811.8
12371.8
10722.6
11857.4
10111.6
11529.1
8368.33
9125.66
8246.61
7860.97
9027.8
7608.16
8378.51
7709.33
6448.1
6953.74
7259.34
7077.12
7049.56
7650.52
11771.2
10219.9
10260.3
9956.24
11088
10657
10760.4
12811.2
12553.2
12957
11404.6
13896.6
12029.6
11794.7
8882.23
9342.57
8151.13
8905.23
8538.68
9803.39
8263.99
8005.98
6718.96
6988.18
7170.79
7162.27
7728.66
7301.81
778.728
647.051
994.811
533.633
736.997
1035.62
405.752
542.53
298.055
18.7884
338.834
329.143
511.658
197.01
1654.16
927.348
1256.51
1365.67
1330.95
1570.29
1243.77
2008.29
2247.52
1983.76
1662.78
2385.97
1879.5
1597
-32.4256
393.43
293.674
287.65
169.879
128.116
183.353
-194.957
-192.847
-168.702
32.8737
-320.187
-21.7342
-95.405
763.837
671.299
989.105
601.874
978.438
444.011
826.706
1124.05
1522.11
1727.2
1426.47
1532.95
1340.52
1232.49
)
;

boundaryField
{
    left
    {
        type            zeroGradient;
    }
    bottom
    {
        type            zeroGradient;
    }
    interface
    {
        type            zeroGradient;
    }
    procBoundary6to2
    {
        type            processor;
        value           nonuniform List<scalar> 
65
(
-19385.1
1498.21
69060.9
63307.6
75039.1
73898.3
26025.8
14418
46700.2
35480.8
3866.75
7544.31
-7609.27
12925.1
48295.5
48295.5
60387.5
60387.5
60387.5
37013.8
3179.53
58436.6
24287.2
21213
15897.6
36815.1
47524.1
54065.9
59633.9
80933.6
68807.3
81914
80933.6
-35881.1
-26672.9
-29963.9
82650.9
22571.6
34744.9
32097.1
26708.1
-5306.74
-8304.96
-19407.9
-16447.8
65369.6
67421.2
76233
74613.4
57423.8
55157.1
43916.1
46495.9
7544.31
3866.75
3866.75
15897.6
21213
73215
81680.6
40125.8
53326.1
36815.1
64742.5
64742.5
)
;
    }
    procBoundary6to7
    {
        type            processor;
        value           nonuniform List<scalar> 
328
(
-16226.9
-7479.13
-1227.22
-17765.8
-19187.1
-20290.8
-30547.9
-39046.8
-37594.4
-7174.83
6478.55
7068.64
-8020.25
18539.8
17676.7
-18165
-17119.1
-6300.75
-6967.75
-6930.37
5900.76
5353.55
-4616.67
366.753
645.305
-1659.39
-587.369
-872.15
-6516.8
-5854.26
-5239.55
-1643.88
-763.317
-698.858
-4234.91
255.95
13.905
-502.562
-263.668
-175.501
-1334.88
-671.583
-719.73
-403.657
-12044.4
-10796.7
-291.584
-113.616
-22820.5
-27493
-26232
-24648.7
-28859.7
-30173.8
-7736.7
11266.3
10552.8
-7861.71
12149.1
12904
-11719.7
-12603.6
-11009.8
-10183
-6043.97
2629.99
3057.06
-5709.99
2313.33
1927.24
-3343.27
-2447.15
-2031.42
-4035.25
-2686.61
-3149.17
-2698.76
-604.003
-730.565
-3077.93
-632.762
-482.215
333.43
198.371
303.017
400.142
-611.89
-578.611
-546.938
-464.555
-525.149
-555.711
-14759.6
-8515.16
-853.263
-19378.6
-22552.9
-21393.1
-28513.9
-34544.3
-35949
-7394.61
8350.23
7713.73
-8003.59
15712.6
16536.9
-15186.7
-16178.6
-8195.59
-7475.4
-6658.54
4340.14
4842.08
-4992.72
1111.15
796.472
-2157.59
-1311.47
-990.532
-5620.82
-4289.33
-4849.39
-1978.04
-708.727
-787.811
-3849.43
-264.976
-59.7429
-2.86739
-206.093
-48.5444
-48.5444
-48.5444
-48.5444
-48.5444
-48.5444
-1057.36
-666.432
-631.261
-355.898
-355.898
-355.898
-355.898
-355.898
-355.898
-13366.9
-9619.21
-547.098
31.3304
-21063.4
-23744.2
-24950.8
-26546.2
-32995.1
-31630.3
-7584.4
9076.75
9744.74
-7952.3
14663.2
13865.8
-14327
-13387.8
-8768.73
-9541.28
-6364.14
3899.1
3429.86
-5359.9
1319.91
1663.53
-2717.55
-1471.02
-1836.33
-4795.97
-3947.87
-3439.2
-2334.31
-776.221
-679.742
-3462.58
-303.267
-480.665
28.761
196.18
415.001
339.254
-814.713
-589.166
-619.161
-350.439
-568.809
-538.451
-537.261
-422.604
-611.838
-20290.8
-19187.1
-21393.1
-22552.9
-37594.4
-39046.8
-35949
-34544.3
7068.64
6478.55
7713.73
8350.23
17676.7
18539.8
16536.9
15712.6
-17119.1
-18165
-16178.6
-15186.7
-6967.75
-6300.75
-7475.4
-8195.59
5353.55
5900.76
4842.08
4340.14
645.305
366.753
796.472
1111.15
-872.15
-587.369
-990.532
-1311.47
-5239.55
-5854.26
-4849.39
-4289.33
-698.858
-763.317
-787.811
-708.727
13.905
255.95
-59.7429
-264.976
-263.668
-502.562
-206.093
-2.86739
222.785
187.126
354.192
317.617
-719.73
-671.583
-631.261
-666.432
-744.632
-787.131
-625.741
-581.819
-26232
-27493
-24950.8
-23744.2
-30173.8
-28859.7
-31630.3
-32995.1
10552.8
11266.3
9744.74
9076.75
12904
12149.1
13865.8
14663.2
-12603.6
-11719.7
-13387.8
-14327
-10183
-11009.8
-9541.28
-8768.73
3057.06
2629.99
3429.86
3899.1
1927.24
2313.33
1663.53
1319.91
-2031.42
-2447.15
-1836.33
-1471.02
-3149.17
-2686.61
-3439.2
-3947.87
-730.565
-604.003
-679.742
-776.221
-482.215
-632.762
-480.665
-303.267
198.371
333.43
196.18
28.761
400.142
303.017
339.254
415.001
-546.938
-578.611
-619.161
-589.166
-555.711
-525.149
-538.451
-568.809
-58.0602
-192.881
8.12256
)
;
    }
}


// ************************************************************************* //
