/*--------------------------------*- C++ -*----------------------------------*\
| =========                 |                                                 |
| \\      /  F ield         | OpenFOAM: The Open Source CFD Toolbox           |
|  \\    /   O peration     | Version:  2012                                  |
|   \\  /    A nd           | Website:  www.openfoam.com                      |
|    \\/     M anipulation  |                                                 |
\*---------------------------------------------------------------------------*/
FoamFile
{
    version     2.0;
    format      ascii;
    class       volVectorField;
    location    "0.104/solid";
    object      sigmaMinDir;
}
// * * * * * * * * * * * * * * * * * * * * * * * * * * * * * * * * * * * * * //

dimensions      [1 -1 -2 0 0 0 0];


internalField   nonuniform List<vector> 
3125
(
(0.0299071 -0.0503741 0.998283)
(0.0207993 -0.0358939 0.999139)
(-0.1227 0.0291385 0.992016)
(0.0580517 -0.0946523 0.993816)
(0.0203501 -0.0351531 0.999175)
(0.856706 -0.0321416 0.514802)
(0.907512 -0.0856652 0.411197)
(0.0374873 -0.0390802 0.998533)
(-0.00299484 -0.0220466 0.999752)
(0.705239 -0.0832837 0.704061)
(0.665071 -0.0936958 0.740879)
(0.0112386 -0.0240434 0.999648)
(0.0562556 -0.0540951 0.99695)
(0.848487 -0.0266932 0.528543)
(0.0383156 -0.0398383 0.998471)
(0.790989 0.00498925 0.61181)
(-0.00382099 -0.0312653 0.999504)
(-0.00307618 -0.0225388 0.999741)
(0.0189388 -0.0340202 0.999242)
(0.709245 -0.0810772 0.700284)
(0.0115016 -0.0245692 0.999632)
(0.724068 -0.0603875 0.68708)
(0.0307503 -0.051696 0.998189)
(0.0549887 -0.0895002 0.994468)
(0.0579285 -0.0554082 0.996782)
(0.735414 0.034973 0.676715)
(0.783217 0.00894965 0.621684)
(0.105315 -0.0908414 0.990281)
(-0.00386339 -0.0320309 0.999479)
(-0.00377427 -0.0531718 0.998578)
(0.0197136 -0.0348512 0.999198)
(0.709963 -0.0259982 0.703759)
(0.724228 -0.056737 0.687222)
(0.045778 -0.0585528 0.997234)
(-0.0105291 0.0402309 0.999135)
(0.729738 0.0385408 0.68264)
(0.110956 -0.0954988 0.989226)
(-0.126073 -0.00396009 0.992013)
(-0.00399421 -0.0563259 0.998404)
(-0.0202629 -0.0239837 0.999507)
(0.7053 -0.0212504 0.708591)
(0.0489607 -0.0620855 0.996869)
(0.0249683 -0.0426614 0.998778)
(0.0243976 -0.0417381 0.998831)
(0.0928111 -0.167133 0.981556)
(0.0899252 -0.157176 0.983468)
(0.017053 -0.0295534 0.999418)
(0.0174367 -0.0302198 0.999391)
(0.295584 -0.0662322 0.953018)
(0.031404 -0.0334254 0.998948)
(0.313997 -0.0637509 0.947281)
(0.880379 -0.0506906 0.471554)
(0.483975 -0.0617744 0.872899)
(0.474177 -0.0704425 0.877607)
(0.464189 -0.0831048 0.881829)
(0.887767 -0.0579556 0.45663)
(0.471364 -0.0734846 0.878872)
(0.0320754 -0.0341187 0.998903)
(0.340897 -0.0599607 0.938186)
(0.32043 -0.0628528 0.945185)
(-0.00228856 -0.0182608 0.999831)
(-0.00238817 -0.0187331 0.999822)
(0.144288 -0.0280188 0.989139)
(0.00958637 -0.0200252 0.999754)
(0.161176 -0.0296579 0.98648)
(0.690521 -0.088861 0.717833)
(0.281087 -0.0401155 0.958843)
(0.250248 -0.0393205 0.967383)
(0.216489 -0.0374617 0.975566)
(0.684753 -0.0903604 0.723152)
(0.241046 -0.0389424 0.969732)
(0.00973373 -0.0205253 0.999742)
(0.190229 -0.0314075 0.981237)
(0.167681 -0.030156 0.98538)
(0.0464029 -0.0465589 0.997837)
(0.407467 -0.051265 0.91178)
(0.380158 -0.0547144 0.923302)
(0.487715 -0.0590162 0.871006)
(0.823511 -0.0120374 0.567172)
(0.500383 -0.0510825 0.864296)
(0.0452873 -0.0456301 0.997931)
(0.348183 -0.0589464 0.935572)
(0.371705 -0.0558084 0.926672)
(0.520502 -0.040947 0.852878)
(0.81522 -0.00754771 0.579102)
(0.505088 -0.0485033 0.861704)
(-0.00358601 -0.0267772 0.999635)
(-0.00352573 -0.0262091 0.99965)
(0.0145242 -0.0291287 0.99947)
(0.279416 -0.0326488 0.959615)
(0.240255 -0.0326549 0.97016)
(0.292488 -0.0402401 0.955422)
(0.718472 -0.0733069 0.691682)
(0.329997 -0.0400791 0.943131)
(0.0140759 -0.0285171 0.999494)
(0.198891 -0.0317522 0.979507)
(0.228816 -0.0325181 0.972926)
(0.386892 -0.0382322 0.921332)
(0.720604 -0.070388 0.689765)
(0.343568 -0.0398197 0.938283)
(0.0385926 -0.0638257 0.997215)
(0.040002 -0.0660655 0.997013)
(0.417219 -0.0500507 0.907427)
(0.073593 -0.0670887 0.995029)
(0.448062 -0.0461013 0.892813)
(0.75426 0.023889 0.656141)
(0.566013 -0.0201497 0.82415)
(0.549098 -0.0283106 0.835278)
(0.526016 -0.0384542 0.849605)
(0.761138 0.0201751 0.648276)
(0.543252 -0.0308825 0.839001)
(0.0764242 -0.0692419 0.994668)
(0.490199 -0.0393582 0.870721)
(0.458714 -0.044527 0.887468)
(-0.00388369 -0.0388031 0.999239)
(-0.00390446 -0.0400445 0.99919)
(0.294168 -0.0325033 0.955201)
(0.0277059 -0.0423526 0.998718)
(0.34325 -0.0313556 0.938721)
(0.719617 -0.0402996 0.693201)
(0.503438 -0.0263478 0.86363)
(0.462706 -0.032316 0.885923)
(0.401993 -0.0374259 0.914877)
(0.721578 -0.0447359 0.690887)
(0.447779 -0.0339162 0.893501)
(0.0292013 -0.0437111 0.998617)
(0.41466 -0.0276908 0.909555)
(0.360942 -0.03064 0.932085)
(0.161518 -0.153003 0.974937)
(0.140737 0.87731 0.458825)
(0.517469 -0.0200324 0.855467)
(0.5711 -0.0172644 0.820699)
(0.713107 0.0485434 0.699372)
(0.58147 -0.00606894 0.813545)
(0.159785 -0.146211 0.976264)
(0.499858 -0.0373527 0.865302)
(0.519435 -0.0272655 0.854075)
(0.149626 0.92267 0.355377)
(0.705897 0.0541004 0.706246)
(0.579816 0.000883833 0.814747)
(-0.0203314 -0.117248 0.992895)
(-0.013828 -0.105408 0.994333)
(0.0783571 -0.136581 0.987525)
(0.111001 0.869192 0.481855)
(0.452419 -0.0164396 0.891654)
(0.514702 -0.0240886 0.85703)
(0.682888 -0.00702267 0.730489)
(0.531884 -0.0144583 0.846694)
(0.07878 -0.121135 0.989505)
(0.431268 -0.0266159 0.901831)
(0.461574 -0.021036 0.886852)
(0.125726 0.922033 0.366127)
(0.668156 -5.78833e-05 0.744021)
(0.522975 -0.0080375 0.85231)
(0.027583 -0.0467555 0.998525)
(0.0222439 -0.0382704 0.99902)
(0.0267922 -0.108074 0.993782)
(0.0700239 -0.115583 0.990827)
(0.0155459 -0.0269142 0.999517)
(0.0190574 -0.032977 0.999274)
(0.0287554 -0.030712 0.999115)
(0.104869 -0.0443339 0.993497)
(0.864797 -0.0378922 0.50069)
(0.767664 -0.0510678 0.638814)
(0.775382 -0.0571565 0.628901)
(0.82462 -0.106806 0.555513)
(0.901414 -0.075122 0.426392)
(0.816416 -0.0963516 0.569369)
(0.0350369 -0.0369108 0.998704)
(0.13174 -0.0489314 0.990076)
(0.121381 -0.0418016 0.991725)
(-0.00187175 -0.0163933 0.999864)
(-0.00274709 -0.0206134 0.999784)
(0.0090741 -0.0180578 0.999796)
(0.0669282 -0.0307292 0.997284)
(0.700772 -0.0853537 0.708261)
(0.553203 -0.0698422 0.830114)
(0.542741 -0.0708683 0.836905)
(0.476074 -0.0731918 0.876354)
(0.672015 -0.0927583 0.734705)
(0.487366 -0.0732186 0.870122)
(0.0105007 -0.0225167 0.999691)
(0.0864578 -0.0348549 0.995646)
(0.0813744 -0.0304535 0.996218)
(0.0515964 -0.0505777 0.997386)
(0.188426 -0.055725 0.980505)
(0.173376 -0.0509348 0.983538)
(0.760221 -0.0453607 0.648079)
(0.840184 -0.0215602 0.541872)
(0.753077 -0.0400039 0.656715)
(0.041098 -0.0421942 0.998264)
(0.131898 -0.043942 0.990289)
(0.142992 -0.0504657 0.988436)
(0.717179 -0.0131969 0.696764)
(0.79893 0.000949266 0.601424)
(0.722315 -0.0171811 0.691351)
(-0.00373608 -0.0291892 0.999567)
(-0.00329071 -0.0240583 0.999705)
(0.0167859 -0.0317476 0.999355)
(0.134636 -0.0405062 0.990067)
(0.122936 -0.038102 0.991683)
(0.563342 -0.0686631 0.823366)
(0.712786 -0.078675 0.696955)
(0.57309 -0.0672863 0.816725)
(0.0124611 -0.0261974 0.999579)
(0.0891582 -0.0322797 0.995494)
(0.0954099 -0.0361935 0.99478)
(0.621395 -0.0550803 0.781559)
(0.723403 -0.0639277 0.68746)
(0.614734 -0.0576025 0.786629)
(0.0336901 -0.0562631 0.997847)
(0.0472467 -0.0772124 0.995895)
(0.192057 -0.0536779 0.979915)
(0.0638002 -0.0598277 0.996168)
(0.209273 -0.0580415 0.976133)
(0.741377 0.0313624 0.670355)
(0.686666 0.0157728 0.726802)
(0.689538 0.0123582 0.724144)
(0.712361 -0.00930925 0.701752)
(0.775638 0.0127473 0.631049)
(0.707855 -0.00556571 0.706336)
(0.0907122 -0.0796592 0.992686)
(0.297438 -0.0668608 0.952397)
(0.271865 -0.0642686 0.960187)
(-0.00391167 -0.0346157 0.999393)
(-0.00374077 -0.0461017 0.99893)
(0.139379 -0.0403361 0.989417)
(0.0225959 -0.0377038 0.999033)
(0.153902 -0.0423626 0.987178)
(0.713843 -0.0308639 0.699626)
(0.649985 -0.0285694 0.759409)
(0.64915 -0.0324153 0.75997)
(0.62745 -0.0524154 0.776891)
(0.723867 -0.0529299 0.687906)
(0.632844 -0.0495718 0.772691)
(0.0372668 -0.0504991 0.998029)
(0.243643 -0.0501473 0.968568)
(0.216793 -0.0493073 0.974972)
(0.0483676 -0.10227 0.99358)
(0.070987 0.485436 0.871386)
(0.233233 -0.00321769 0.972416)
(0.683979 0.0192201 0.729248)
(0.724282 0.0418171 0.688234)
(0.681449 0.022475 0.731521)
(0.131469 -0.113679 0.984781)
(0.307214 -0.0691734 0.949123)
(0.331734 -0.0712123 0.940681)
(0.218437 0.942417 0.253249)
(0.615915 0.0998767 0.781456)
(-0.083814 -0.121441 0.989054)
(-0.00544538 -0.0702471 0.997515)
(-0.0390081 -0.144413 0.988748)
(0.00444158 0.506094 0.862467)
(0.155334 -0.0211761 0.987635)
(0.649865 -0.0247426 0.759647)
(0.699624 -0.0167353 0.714315)
(0.648508 -0.0210091 0.760918)
(0.0612365 -0.0782774 0.995049)
(0.254347 -0.0544691 0.965578)
(0.281974 -0.0560693 0.957782)
(0.192566 0.957284 0.215696)
(0.501819 0.0668296 0.862387)
(0.0268803 -0.0456771 0.998595)
(0.0227593 -0.0390911 0.998976)
(0.0648805 -0.156039 0.985618)
(0.074731 -0.124455 0.989407)
(0.0159295 -0.027554 0.999493)
(0.0186323 -0.0322868 0.999305)
(0.1811 -0.0532793 0.98202)
(0.301607 -0.0654348 0.951184)
(0.186562 -0.0538044 0.980969)
(0.0293889 -0.0313872 0.999075)
(0.112909 -0.0459259 0.992543)
(0.10348 -0.0374024 0.993928)
(0.307727 -0.0646123 0.949278)
(0.197907 -0.0547727 0.978689)
(0.192146 -0.0543052 0.979863)
(0.872702 -0.0440496 0.486261)
(0.791474 -0.0708067 0.607087)
(0.783332 -0.0637083 0.61833)
(0.637655 -0.058336 0.76811)
(0.480469 -0.0645937 0.87463)
(0.64083 -0.0630427 0.76509)
(0.648489 -0.0732781 0.757689)
(0.477209 -0.0674871 0.876195)
(0.644439 -0.0680106 0.761625)
(0.669127 -0.0980424 0.736652)
(0.466377 -0.0798033 0.880979)
(0.663303 -0.0911941 0.742774)
(0.894801 -0.0660096 0.441558)
(0.799748 -0.0785437 0.595176)
(0.808091 -0.086995 0.582598)
(0.468764 -0.0766066 0.879995)
(0.65298 -0.0788787 0.753257)
(0.657914 -0.0848353 0.748299)
(0.034279 -0.0362008 0.998756)
(0.111974 -0.0396303 0.992921)
(0.121794 -0.0474541 0.99142)
(0.223135 -0.0563598 0.973157)
(0.333854 -0.0609532 0.940652)
(0.216444 -0.0559976 0.974688)
(0.203859 -0.0552107 0.977442)
(0.327044 -0.0619226 0.942978)
(0.210027 -0.0556179 0.976112)
(-0.00196748 -0.0168558 0.999856)
(-0.00267604 -0.0201435 0.999794)
(0.0844747 -0.0196409 0.996232)
(0.149509 -0.028591 0.988347)
(0.087491 -0.0202048 0.99596)
(0.00919398 -0.0185484 0.999786)
(0.0724378 -0.0321632 0.996854)
(0.0692043 -0.0266963 0.997245)
(0.155134 -0.0291427 0.987463)
(0.0943768 -0.0212713 0.995309)
(0.0907956 -0.0207449 0.995653)
(0.69586 -0.0872306 0.71286)
(0.521041 -0.0723194 0.850462)
(0.532001 -0.0717004 0.843703)
(0.402243 -0.0538496 0.913948)
(0.270257 -0.0399274 0.96196)
(0.389749 -0.0540295 0.919335)
(0.365597 -0.0539897 0.929206)
(0.259981 -0.0396677 0.964799)
(0.377523 -0.0540733 0.92442)
(0.321605 -0.0526581 0.945409)
(0.224185 -0.0379983 0.973805)
(0.331998 -0.0531245 0.941783)
(0.678575 -0.0916649 0.728789)
(0.509904 -0.0728051 0.857145)
(0.498664 -0.0731014 0.863707)
(0.23237 -0.0385007 0.971865)
(0.354009 -0.05381 0.933693)
(0.342812 -0.0535168 0.937878)
(0.0102801 -0.0220152 0.999705)
(0.0747944 -0.0285976 0.996789)
(0.0788757 -0.0335406 0.99632)
(0.112273 -0.0231384 0.993408)
(0.182173 -0.031031 0.982777)
(0.107217 -0.0227086 0.993976)
(0.0982985 -0.0217801 0.994919)
(0.174666 -0.0306176 0.984152)
(0.102557 -0.0222612 0.994478)
(0.0502184 -0.0495024 0.997511)
(0.157478 -0.0484857 0.986331)
(0.170853 -0.0537894 0.983827)
(0.290968 -0.0593531 0.95489)
(0.398031 -0.0524332 0.915872)
(0.280734 -0.0589423 0.957974)
(0.261963 -0.0581858 0.963322)
(0.388936 -0.0535831 0.919705)
(0.271074 -0.0585523 0.960776)
(0.634897 -0.0538615 0.770717)
(0.491696 -0.0563199 0.868943)
(0.632547 -0.0495904 0.772933)
(0.831845 -0.0166719 0.554758)
(0.739755 -0.0302176 0.672197)
(0.746251 -0.0349667 0.664746)
(0.495917 -0.0536773 0.866709)
(0.629005 -0.0416177 0.776286)
(0.630587 -0.045522 0.774783)
(0.0420753 -0.0430245 0.998188)
(0.155888 -0.0520872 0.9864)
(0.143832 -0.046164 0.988525)
(0.230135 -0.0567203 0.971504)
(0.35574 -0.0579216 0.932788)
(0.237484 -0.0570843 0.969713)
(0.253359 -0.0578234 0.965643)
(0.363574 -0.0568784 0.929827)
(0.24522 -0.0574537 0.967764)
(0.62604 -0.0272399 0.779315)
(0.515153 -0.043438 0.855997)
(0.626317 -0.030673 0.778965)
(0.807016 -0.00323073 0.590521)
(0.733599 -0.0256727 0.679097)
(0.72779 -0.0213338 0.685468)
(0.510014 -0.045956 0.858938)
(0.627779 -0.0378495 0.777471)
(0.626889 -0.0342044 0.778357)
(-0.00371064 -0.028559 0.999585)
(-0.00334663 -0.0245771 0.999692)
(0.0161648 -0.0310625 0.999387)
(0.109483 -0.0360941 0.993333)
(0.118967 -0.038964 0.992133)
(0.174363 -0.0257281 0.984345)
(0.265529 -0.032726 0.963547)
(0.163885 -0.0254944 0.98615)
(0.145628 -0.024969 0.989024)
(0.252481 -0.0327319 0.967048)
(0.154319 -0.0252515 0.987698)
(0.414958 -0.0535439 0.908264)
(0.304442 -0.0402803 0.951679)
(0.427818 -0.0530908 0.902304)
(0.715861 -0.0761079 0.694082)
(0.59128 -0.0639722 0.803925)
(0.582416 -0.0657422 0.810228)
(0.316954 -0.0402402 0.947587)
(0.453756 -0.0517234 0.889623)
(0.440776 -0.0524958 0.896081)
(0.0128306 -0.0267584 0.99956)
(0.106095 -0.0375667 0.993646)
(0.0984197 -0.0341572 0.994559)
(0.11782 -0.0235509 0.992756)
(0.208173 -0.0320559 0.977567)
(0.123849 -0.0239447 0.992012)
(0.137691 -0.024658 0.990168)
(0.218143 -0.0323161 0.975382)
(0.130473 -0.0243147 0.991154)
(0.504426 -0.0468314 0.862184)
(0.372074 -0.0389035 0.927388)
(0.492117 -0.0483477 0.869185)
(0.722245 -0.0672762 0.688357)
(0.599654 -0.0620537 0.79785)
(0.607476 -0.0599384 0.792073)
(0.357605 -0.0394276 0.93304)
(0.4667 -0.0507806 0.882957)
(0.479511 -0.049663 0.87613)
(0.0347756 -0.0579524 0.997713)
(0.0451911 -0.0740256 0.996232)
(0.301844 -0.0597886 0.951481)
(0.427262 -0.0488115 0.902809)
(0.313356 -0.060256 0.947722)
(0.0659808 -0.0614824 0.995925)
(0.234106 -0.0606164 0.97032)
(0.214267 -0.0568748 0.975118)
(0.437562 -0.0474808 0.897934)
(0.338345 -0.0611239 0.939035)
(0.325544 -0.0607093 0.943576)
(0.747663 0.0276869 0.663501)
(0.696052 0.00524114 0.717972)
(0.692669 0.00887177 0.721201)
(0.630677 -0.00110962 0.776044)
(0.560565 -0.022864 0.827794)
(0.629723 -0.00432687 0.776808)
(0.627963 -0.0108569 0.778168)
(0.554898 -0.0255639 0.831526)
(0.628807 -0.00757434 0.777525)
(0.626019 -0.0238797 0.779442)
(0.531669 -0.035967 0.846188)
(0.626231 -0.0205902 0.779366)
(0.768269 0.0164616 0.639915)
(0.69971 0.00167324 0.714425)
(0.703639 -0.00192331 0.710555)
(0.537425 -0.0334382 0.842648)
(0.62723 -0.0141019 0.778706)
(0.626644 -0.0173467 0.779113)
(0.0867069 -0.0766739 0.993279)
(0.240652 -0.0603807 0.968731)
(0.263619 -0.0633843 0.962542)
(0.394707 -0.0622738 0.916694)
(0.479952 -0.0411569 0.876329)
(0.380217 -0.062015 0.922816)
(0.351803 -0.0614619 0.934054)
(0.469394 -0.0428788 0.881947)
(0.365804 -0.061752 0.928641)
(-0.00392459 -0.0355583 0.99936)
(-0.00373465 -0.0443669 0.999008)
(0.185926 -0.0259476 0.982221)
(0.309748 -0.0322642 0.950271)
(0.198618 -0.0261582 0.979728)
(0.0236848 -0.038737 0.998969)
(0.177884 -0.04443 0.983048)
(0.159752 -0.042961 0.986222)
(0.326145 -0.03189 0.944782)
(0.227973 -0.0263868 0.97331)
(0.212625 -0.0262993 0.97678)
(0.71705 -0.0356549 0.696109)
(0.644919 -0.0398451 0.763212)
(0.647443 -0.0361973 0.761254)
(0.581611 -0.0271317 0.813014)
(0.490792 -0.0284843 0.870811)
(0.57497 -0.0303001 0.817613)
(0.558585 -0.0361709 0.828658)
(0.477123 -0.0304944 0.878307)
(0.567264 -0.0333324 0.822861)
(0.516374 -0.0451378 0.855173)
(0.41725 -0.0364592 0.90806)
(0.527843 -0.0432457 0.84824)
(0.72299 -0.0489606 0.689122)
(0.641606 -0.0433009 0.765811)
(0.637579 -0.0465563 0.768977)
(0.432574 -0.0352997 0.900907)
(0.549042 -0.0387759 0.834895)
(0.538772 -0.0411354 0.841447)
(0.0350133 -0.0485696 0.998206)
(0.185161 -0.045896 0.981636)
(0.207698 -0.0467502 0.977075)
(0.302869 -0.0264694 0.952664)
(0.397033 -0.0287492 0.917354)
(0.282518 -0.0262982 0.958901)
(0.244787 -0.0263965 0.969218)
(0.378975 -0.0297617 0.924928)
(0.262984 -0.0263437 0.96444)
(0.108093 -0.140335 0.984186)
(0.350217 -0.0718485 0.933909)
(0.279141 -0.0288663 0.959816)
(0.0965128 0.612371 0.784657)
(0.418671 0.0667471 0.905682)
(0.308811 0.0332503 0.950542)
(0.433418 -0.0512269 0.899736)
(0.499801 -0.00730875 0.866109)
(0.407183 -0.0361964 0.912629)
(0.631588 0.00215835 0.775301)
(0.575652 -0.0142342 0.817571)
(0.632385 0.0054475 0.774635)
(0.718902 0.045085 0.693648)
(0.675809 0.0294463 0.736489)
(0.678877 0.0259081 0.733795)
(0.579366 -0.0104617 0.815)
(0.632544 0.0133674 0.774409)
(0.632904 0.00918032 0.774175)
(0.13911 -0.121091 0.982846)
(0.349942 -0.0699336 0.934157)
(0.341082 -0.0748944 0.937045)
(0.408877 -0.0623872 0.910454)
(0.508469 -0.0350731 0.860366)
(0.421805 -0.0623203 0.904542)
(0.437748 -0.0581404 0.897216)
(0.515422 -0.0318751 0.856343)
(0.432276 -0.0612106 0.899662)
(0.193472 0.946536 0.258145)
(0.498889 0.0778611 0.863161)
(0.563186 0.0908229 0.821324)
(0.69365 0.0614667 0.717685)
(0.670813 0.0348867 0.740806)
(0.659199 0.0416892 0.750812)
(0.566419 0.0107942 0.824046)
(0.62956 0.019306 0.776712)
(0.617682 0.027261 0.785955)
(-0.0614895 -0.141946 0.987963)
(-0.00645772 -0.0767429 0.99703)
(0.0203652 -0.176491 0.984092)
(0.30244 -0.0699564 0.950598)
(0.210571 -0.0353712 0.976938)
(0.0460427 0.651946 0.756866)
(0.270491 0.0970979 0.957813)
(0.147433 0.104689 0.983516)
(0.358105 -0.028588 0.933244)
(0.410974 -0.000367308 0.911647)
(0.306162 -0.0188201 0.951793)
(0.587001 -0.0238395 0.809235)
(0.524019 -0.0216478 0.851431)
(0.59081 -0.0204039 0.806553)
(0.69252 -0.0122673 0.721294)
(0.639304 -0.0126198 0.768851)
(0.645448 -0.0171248 0.763612)
(0.530478 -0.0185784 0.847495)
(0.590161 -0.0114806 0.807204)
(0.59241 -0.0164556 0.805469)
(0.0657346 -0.085838 0.994138)
(0.303069 -0.0611445 0.951005)
(0.292335 -0.0630263 0.954237)
(0.32353 -0.0269249 0.945835)
(0.445907 -0.0254655 0.894717)
(0.34314 -0.0279079 0.93887)
(0.367909 -0.0297119 0.929387)
(0.457067 -0.0238247 0.889113)
(0.359553 -0.0289907 0.932674)
(0.172982 0.954837 0.241587)
(0.360813 0.100691 0.927187)
(0.438273 0.0886819 0.894457)
(0.639997 0.0173945 0.768181)
(0.626816 -0.00669337 0.779138)
(0.597593 0.00947185 0.801744)
(0.488202 0.00978334 0.872676)
(0.579925 -0.00465906 0.814657)
(0.548953 0.0135464 0.835743)
(0.0291286 -0.0491044 0.998369)
(0.021239 -0.036668 0.999102)
(-0.0912113 0.0163539 0.995697)
(0.0615325 -0.100663 0.993016)
(0.0147998 -0.0256089 0.999562)
(0.0199362 -0.0344092 0.999209)
(0.0779389 -0.0403423 0.996142)
(0.0274774 -0.0293689 0.999191)
(0.0492181 -0.0314643 0.998292)
(0.051275 -0.0330382 0.998138)
(0.0990675 -0.0496129 0.993843)
(0.0366561 -0.0383392 0.998592)
(0.0652235 -0.0414403 0.99701)
(0.0685935 -0.0418568 0.996766)
(0.0639861 -0.0406232 0.997124)
(0.0671362 -0.0411952 0.996893)
(0.10086 -0.0504689 0.99362)
(-0.00166265 -0.0154547 0.999879)
(-0.00289808 -0.021569 0.999763)
(0.0110149 -0.00690073 0.999916)
(0.00886517 -0.0170744 0.999815)
(0.0262769 -0.0191385 0.999471)
(0.00111164 -0.0064382 0.999979)
(0.0120754 -0.0101368 0.999876)
(0.0109768 -0.0235294 0.999663)
(0.0348751 -0.0253388 0.99907)
(-0.000469526 -0.0100836 0.999949)
(0.034065 -0.0248904 0.99911)
(-0.000420882 -0.00987301 0.999951)
(0.0123302 -0.0102755 0.999871)
(0.136155 -0.0650071 0.988552)
(0.0546327 -0.0528618 0.997106)
(0.0922358 -0.0576194 0.994069)
(0.101516 -0.055045 0.99331)
(0.0899934 -0.0562417 0.994353)
(0.098714 -0.0539797 0.993651)
(0.139314 -0.0663941 0.98802)
(0.104601 -0.0520888 0.993149)
(0.0391968 -0.0406088 0.998406)
(0.0665107 -0.0422111 0.996892)
(0.0700836 -0.0425409 0.996634)
(0.067825 -0.0430545 0.996768)
(0.10271 -0.0511954 0.993393)
(0.0716337 -0.0432258 0.996494)
(-0.00376534 -0.0305549 0.999526)
(-0.00317507 -0.0230305 0.99973)
(0.0209542 -0.0132542 0.999693)
(0.0181775 -0.0332343 0.999282)
(0.0563141 -0.0337105 0.997844)
(0.0014839 -0.0139421 0.999902)
(0.0543369 -0.0330613 0.997975)
(0.00119665 -0.0137388 0.999905)
(0.0220101 -0.0133561 0.999669)
(0.0128888 -0.0106991 0.99986)
(0.0117871 -0.0250961 0.999616)
(0.0357473 -0.0257938 0.999028)
(-0.000487746 -0.0103633 0.999946)
(0.0125791 -0.0105581 0.999865)
(0.0366345 -0.0262528 0.998984)
(-0.000527715 -0.0105639 0.999944)
(0.0316263 -0.0531333 0.998086)
(0.0522614 -0.0848842 0.995019)
(0.146086 -0.0692605 0.986844)
(0.0945943 -0.0590266 0.993764)
(0.104459 -0.0561914 0.99294)
(0.0597419 -0.0568072 0.996596)
(0.142609 -0.0677426 0.987458)
(0.0970761 -0.0605858 0.993431)
(0.107572 -0.0573887 0.99254)
(0.213756 -0.0978169 0.971978)
(0.100055 -0.0866983 0.991197)
(0.155433 -0.0966918 0.983103)
(0.178668 -0.0844508 0.980278)
(0.149008 -0.092512 0.984499)
(0.171345 -0.0813728 0.981845)
(0.221315 -0.101359 0.969921)
(-0.00393028 -0.0328368 0.999453)
(-0.00361051 -0.0504968 0.998718)
(0.0243406 -0.0136993 0.99961)
(0.0584047 -0.0343896 0.9977)
(0.00182036 -0.0142387 0.999897)
(0.0205749 -0.0357401 0.999149)
(0.0230909 -0.0135943 0.999641)
(0.0606463 -0.0351226 0.997541)
(0.00217486 -0.0144679 0.999893)
(0.0564971 -0.0167395 0.998262)
(0.0427139 -0.0555012 0.997545)
(0.118094 -0.0527579 0.9916)
(0.0155304 -0.0203464 0.999672)
(0.111708 -0.0504273 0.992461)
(0.0141118 -0.0196419 0.999707)
(0.0607406 -0.0173468 0.998003)
(-0.0400638 0.0128582 0.999114)
(-0.0987114 0.00856072 0.995079)
(-0.0937439 0.00187285 0.995595)
(-0.0422507 0.0464117 0.998028)
(-0.0762138 0.0164043 0.996957)
(-0.0656818 0.0487962 0.996647)
(-0.0574797 -0.00353556 0.99834)
(0.237208 -0.109117 0.965311)
(0.117235 -0.10086 0.987969)
(0.162221 -0.10129 0.981542)
(0.186354 -0.0878975 0.978543)
(0.169427 -0.106602 0.97976)
(0.229083 -0.105164 0.967709)
(0.194407 -0.0917346 0.976622)
(-0.122424 -0.0301668 0.992019)
(-0.00441583 -0.0600747 0.998184)
(-0.171021 -0.0333437 0.984703)
(-0.138973 -0.012117 0.990222)
(-0.0647798 0.0686719 0.995534)
(-0.119524 -0.000705856 0.992831)
(-0.116484 0.0386223 0.992441)
(-0.156961 -0.0659909 0.985398)
(-0.116458 0.0448436 0.992183)
(0.0700374 -0.0192289 0.997359)
(0.0526309 -0.0664485 0.996401)
(0.124758 -0.0554096 0.990639)
(0.0170507 -0.0214904 0.999624)
(0.0650727 -0.0182072 0.997714)
(0.132047 -0.0587251 0.989502)
(0.0187247 -0.0229572 0.999561)
(0.257651 0.803098 0.537261)
(0.244583 0.946819 0.209078)
(0.402909 0.598516 0.692418)
(0.17916 0.972757 0.147124)
(0.0255584 -0.0436317 0.998721)
(0.0238615 -0.0408278 0.998881)
(0.0919838 -0.17426 0.980394)
(0.085604 -0.146167 0.985549)
(0.0166901 -0.0288811 0.999444)
(0.0178064 -0.0309074 0.999364)
(0.0856911 -0.0437682 0.99536)
(0.0307267 -0.0327371 0.998992)
(0.0557277 -0.0355728 0.997812)
(0.057983 -0.0367599 0.997641)
(0.0546439 -0.0348424 0.997898)
(0.0872467 -0.0445691 0.995189)
(0.0568135 -0.0361293 0.997731)
(0.0904521 -0.0460242 0.994837)
(0.032781 -0.034814 0.998856)
(0.0568367 -0.0362628 0.997725)
(0.059169 -0.0373973 0.997547)
(0.0579587 -0.0369975 0.997633)
(0.0888467 -0.0452188 0.995018)
(0.060395 -0.0380258 0.99745)
(-0.0021696 -0.017795 0.999839)
(-0.00250701 -0.019202 0.999812)
(0.0110257 -0.00826503 0.999905)
(0.0094471 -0.0195295 0.999765)
(0.0292717 -0.0218048 0.999334)
(0.000184752 -0.00806488 0.999967)
(0.0287383 -0.0213572 0.999359)
(0.000334386 -0.00782852 0.999969)
(0.0110811 -0.00843919 0.999903)
(0.0112262 -0.00892519 0.999897)
(0.00989028 -0.0210196 0.99973)
(0.0298695 -0.0222517 0.999306)
(6.979e-05 -0.00836378 0.999965)
(0.0304544 -0.0226939 0.999278)
(-7.25125e-05 -0.00858365 0.999963)
(0.0111326 -0.00875578 0.9999)
(0.12215 -0.059406 0.990732)
(0.0476079 -0.0475151 0.997735)
(0.0783953 -0.0493837 0.995698)
(0.084341 -0.0485 0.995256)
(0.0800969 -0.0504528 0.995509)
(0.119713 -0.0583146 0.991094)
(0.0864548 -0.0493363 0.995033)
(0.115102 -0.0563567 0.991754)
(0.044195 -0.0447336 0.998021)
(0.0767572 -0.0484014 0.995874)
(0.0823297 -0.0476753 0.995464)
(0.0751817 -0.0474094 0.996042)
(0.117365 -0.0573857 0.991429)
(0.0804056 -0.0468876 0.995659)
(-0.00366057 -0.0273466 0.999619)
(-0.00344169 -0.0256576 0.999665)
(0.0167478 -0.0122895 0.999784)
(0.0150276 -0.029754 0.999444)
(0.0445673 -0.0296775 0.998565)
(-9.57272e-05 -0.0122952 0.999924)
(0.0459528 -0.0302045 0.998487)
(2.33127e-05 -0.0124899 0.999922)
(0.0160959 -0.0121776 0.999796)
(0.0149926 -0.0118094 0.999818)
(0.0136491 -0.0279212 0.999517)
(0.043251 -0.0291658 0.998638)
(-0.000216656 -0.0120216 0.999928)
(0.0420314 -0.0286624 0.998705)
(-0.000287259 -0.0118206 0.99993)
(0.0155388 -0.0119253 0.999808)
(0.0372981 -0.0617385 0.997395)
(0.0415387 -0.0685115 0.996785)
(0.166612 -0.0776858 0.982957)
(0.0709155 -0.0651062 0.995355)
(0.115652 -0.0717293 0.990697)
(0.130719 -0.0660439 0.989217)
(0.112112 -0.0695497 0.991259)
(0.171357 -0.0797721 0.981974)
(0.126326 -0.0644061 0.989896)
(0.181612 -0.0841453 0.979763)
(0.0795332 -0.0715572 0.994261)
(0.119396 -0.0740376 0.990082)
(0.135403 -0.0678129 0.988467)
(0.123377 -0.0765899 0.9894)
(0.176325 -0.0818802 0.980921)
(0.140397 -0.0696643 0.987641)
(-0.00384702 -0.0376767 0.999283)
(-0.00394096 -0.0413665 0.999136)
(0.0325215 -0.0147615 0.999362)
(0.0262835 -0.041092 0.99881)
(0.0781388 -0.0404307 0.996122)
(0.00571259 -0.0163036 0.999851)
(0.0747072 -0.0394251 0.996426)
(0.00501717 -0.0160549 0.999859)
(0.0346224 -0.0148901 0.99929)
(0.0394363 -0.015173 0.999107)
(0.0309024 -0.0451939 0.9985)
(0.0818062 -0.0414799 0.995785)
(0.00652965 -0.0166743 0.99984)
(0.08583 -0.0426293 0.995397)
(0.00746772 -0.0169867 0.999828)
(0.0368434 -0.0151018 0.999207)
(0.265802 -0.135549 0.954451)
(0.157182 -0.15702 0.975007)
(0.212878 -0.150002 0.965496)
(0.230543 -0.121419 0.965457)
(0.205835 -0.153006 0.966551)
(0.274649 -0.136793 0.951765)
(0.219306 -0.120735 0.968157)
(0.250556 0.136955 0.958366)
(0.12952 0.810879 0.570701)
(0.217348 0.415029 0.883465)
(0.165173 0.798456 0.578952)
(0.291607 0.196696 0.936096)
(0.186207 0.37464 0.908279)
(0.1529 0.594172 0.789672)
(0.274073 -0.13098 0.952748)
(0.154288 -0.138351 0.978292)
(0.212525 -0.145333 0.966287)
(0.233598 -0.119143 0.965006)
(0.207962 -0.139156 0.968188)
(0.276628 -0.134615 0.951502)
(0.231631 -0.115398 0.965935)
(0.371488 0.249932 0.894165)
(0.160462 0.938863 0.304613)
(0.254784 0.434863 0.863701)
(0.167126 0.885643 0.433249)
(0.336091 0.199158 0.920532)
(0.283076 0.471336 0.835291)
(0.176074 0.9012 0.396025)
(-0.0299945 -0.129609 0.991111)
(-0.0102801 -0.0947834 0.995445)
(0.0684287 -0.0749422 0.994837)
(0.0719846 -0.153976 0.985449)
(0.16652 -0.103904 0.980548)
(0.0129918 -0.0629958 0.997929)
(0.153387 -0.112406 0.981752)
(-0.000221462 -0.0808615 0.996725)
(0.0853018 -0.0587143 0.994624)
(0.0467518 0.542746 0.838595)
(0.0942535 0.824719 0.557633)
(0.15551 0.624693 0.765229)
(0.0579342 0.917062 0.394515)
(0.131433 0.467855 0.873978)
(0.0749944 0.657519 0.749697)
(0.036243 0.882357 0.469183)
(0.0929955 -0.0377858 0.994949)
(0.0754717 -0.10771 0.991314)
(0.170384 -0.0955468 0.980734)
(0.0205169 -0.0513779 0.998469)
(0.168138 -0.0873213 0.981888)
(0.0236087 -0.0431532 0.998789)
(0.0927301 -0.0471105 0.994576)
(0.123773 0.809048 0.574562)
(0.140865 0.93861 0.31491)
(0.193079 0.585217 0.787554)
(0.0766143 0.954774 0.287292)
(0.209373 0.707431 0.675058)
(0.106987 0.678604 0.726671)
(0.0949007 0.962839 0.252855)
(0.0283015 -0.0479017 0.998451)
(0.0217651 -0.0374578 0.999061)
(-0.0298248 -0.0380644 0.99883)
(0.0657515 -0.10768 0.992009)
(0.0152035 -0.0262617 0.999539)
(0.0194626 -0.0336878 0.999243)
(0.205944 -0.0456517 0.977498)
(0.198558 -0.0485406 0.978886)
(0.0795085 -0.0409435 0.995993)
(0.0281207 -0.0300405 0.999153)
(0.0513703 -0.0328146 0.99814)
(0.0534329 -0.034274 0.997983)
(0.0503263 -0.0320996 0.998217)
(0.0523494 -0.0336511 0.998062)
(0.0810103 -0.0417371 0.995839)
(0.201898 -0.044442 0.978398)
(0.880079 -0.0167446 0.474531)
(0.852736 -0.0160425 0.522095)
(0.886902 -0.0280246 0.461106)
(0.846305 0.0170884 0.532424)
(0.897334 -0.00646995 0.441305)
(0.891506 0.0239576 0.452374)
(0.902156 0.0193312 0.430976)
(0.907534 -0.0168915 0.419639)
(0.875237 -0.0166376 0.483407)
(0.832768 0.0180506 0.553328)
(0.868203 -0.00934137 0.496121)
(0.839274 -0.0104225 0.543609)
(0.926028 -0.158801 0.342424)
(0.909634 0.0118354 0.415242)
(0.912932 -0.0636278 0.403122)
(0.927885 -0.0979379 0.359773)
(0.952001 -0.047235 0.30243)
(0.941773 -0.171269 0.289362)
(0.93224 -0.134353 0.335973)
(0.922116 -0.0801316 0.378526)
(0.922417 -0.221071 0.316662)
(0.920455 0.0107547 0.390699)
(0.942219 -0.124563 0.310978)
(0.945936 -0.0268166 0.323244)
(0.221674 -0.0515803 0.973756)
(0.227268 -0.0513894 0.972475)
(0.0972427 -0.0489626 0.994056)
(0.0358288 -0.0376244 0.998649)
(0.061495 -0.039147 0.997339)
(0.0643216 -0.0399212 0.99713)
(0.0626967 -0.0399229 0.997234)
(0.0657051 -0.0405624 0.997014)
(0.0955153 -0.0481283 0.994264)
(0.232047 -0.0525494 0.971284)
(0.226698 -0.0522494 0.972563)
(-0.00175196 -0.0159364 0.999871)
(-0.00285282 -0.0210739 0.999774)
(0.0351787 0.00447805 0.999371)
(0.0380785 -0.00411654 0.999266)
(0.0109939 -0.00724338 0.999913)
(0.00896762 -0.0175749 0.999805)
(0.0271914 -0.0200319 0.99943)
(0.00077766 -0.00699279 0.999975)
(0.0267466 -0.0195882 0.99945)
(0.000951736 -0.00675341 0.999977)
(0.0109819 -0.00742796 0.999912)
(0.0375704 -0.00394241 0.999286)
(0.0344902 0.00474937 0.999394)
(0.45395 -0.0339236 0.890381)
(0.362802 -0.0312326 0.931343)
(0.443696 -0.0520579 0.894664)
(0.374714 -0.025657 0.926786)
(0.533229 -0.050423 0.844467)
(0.543456 -0.0460124 0.838176)
(0.528403 -0.0453142 0.847783)
(0.517565 -0.0504389 0.854156)
(0.459394 -0.0526299 0.886672)
(0.389587 -0.0263551 0.920612)
(0.469624 -0.0351096 0.882168)
(0.37768 -0.0314149 0.925403)
(0.370843 -0.0481269 0.927448)
(0.30967 -0.0220105 0.950589)
(0.298199 -0.0299691 0.954033)
(0.380394 -0.0281722 0.924395)
(0.437814 -0.0398278 0.898183)
(0.424867 -0.0483405 0.903964)
(0.3672 -0.0270433 0.929749)
(0.287426 -0.0296299 0.957345)
(0.357968 -0.0472504 0.932537)
(0.298683 -0.0213024 0.954114)
(0.439627 -0.0488607 0.89685)
(0.452331 -0.0408076 0.890916)