/*--------------------------------*- C++ -*----------------------------------*\
| =========                 |                                                 |
| \\      /  F ield         | OpenFOAM: The Open Source CFD Toolbox           |
|  \\    /   O peration     | Version:  2012                                  |
|   \\  /    A nd           | Website:  www.openfoam.com                      |
|    \\/     M anipulation  |                                                 |
\*---------------------------------------------------------------------------*/
FoamFile
{
    version     2.0;
    format      ascii;
    class       volScalarField;
    location    "0.104/solid";
    object      sigmaDiff;
}
// * * * * * * * * * * * * * * * * * * * * * * * * * * * * * * * * * * * * * //

dimensions      [1 -1 -2 0 0 0 0];


internalField   nonuniform List<scalar> 
3125
(
-64609
-128244
-1404.48
-15421.5
-132997
-64590.5
-83367.3
-125156
-141352
-55000.9
-67105.2
-139398
-62243.2
-62219.1
-120830
-46211.7
-66474.6
-136044
-65427.1
-53225.2
-134111
-39882.3
-60954.3
-17453.7
-58834.2
-26239.6
-43882.4
-17727.6
-62574
-17074
-61595.6
-22189.3
-37818.9
-16927.5
-1577.75
-23499.9
-15760.6
-1368.66
-14977.5
-1550.88
-19806.4
-14880
-92384.8
-96644.7
-3857.02
-4809.27
-172808
-167672
-84048.8
-161118
-77433.4
-72085.9
-57799.8
-61734.1
-65271.7
-74747.1
-62806.1
-156500
-67449.6
-75053.3
-186445
-180569
-145433
-184564
-120837
-60217.3
-77043.1
-93632.3
-119068
-61934.1
-99631.4
-178657
-91905
-113198
-87977.7
-44995.4
-53635.3
-56262.6
-55320
-51040.1
-91902.1
-64781.2
-56477.2
-42844.5
-53055.8
-49113.1
-96466.9
-101122
-94939.9
-47183.8
-61896.7
-71980.2
-47725
-58150.8
-99526.3
-85351.7
-67345.7
-42690.2
-45824
-53979.6
-37815
-34883.2
-42103.8
-37160.5
-33481.1
-34127.3
-23361.9
-31066.7
-40610.7
-36641.7
-33536.6
-34396.8
-22243
-30639.1
-38188.3
-35143.6
-42812.5
-37644.9
-31213.4
-29133.8
-19585.2
-27337.4
-39305.5
-31369.6
-30121.5
-34649.4
-18855.5
-27819.9
-4383.52
-3402.59
-8769.75
-20708.3
-15046
-12593.9
-5361.16
-19490.1
-11379.3
-3425.1
-12148.5
-9894.65
-3303.73
-4217.87
-3471.94
-3587.05
-6805.98
-17141.8
-12486.1
-10057.6
-4376.06
-16202.6
-8977.43
-3652.63
-9966.04
-7787.13
-76056
-114331
-1624.67
-10064.7
-193759
-147559
-179862
-141444
-67017.3
-56719.6
-58098
-66154.7
-80378.6
-64780.1
-138364
-100552
-110207
-210579
-157727
-208874
-167570
-56754.4
-56466
-58882.4
-75293.9
-65372.8
-72291.7
-155755
-113101
-125888
-72880.5
-53184.8
-61173.8
-55300.8
-59890.9
-53836
-108133
-97120.1
-87779.7
-43667.5
-48510.4
-45552.6
-78761.7
-120582
-77504.1
-55222.3
-64648.1
-54120.7
-51423.1
-51831.8
-118762
-108940
-96920.9
-38835.5
-41903.3
-40958.6
-50493.4
-24234.5
-50577.6
-49062.7
-43176.3
-28925.4
-25418.3
-28000.6
-41695.7
-41514.9
-39635.9
-24270.3
-18856.9
-24136.7
-51475.6
-24104.9
-52262.3
-50703.5
-43779.8
-24539.8
-21324.1
-23608.8
-36713.5
-35712.4
-34581.5
-23807.1
-17499.2
-22959.5
-1864.7
-2724.87
-3138.01
-22763.7
-20715.4
-20047.6
-10559.2
-17323.3
-12802.7
-3006.08
-5536.54
-1406.61
-9491.37
-1540.57
-2710.97
-2811.28
-19006.7
-17395
-16657.1
-9528.89
-15917.2
-11451
-3373.49
-4449.31
-80028.9
-109815
-1926.25
-8540.81
-188466
-152518
-110059
-81935.8
-106133
-175134
-127455
-137579
-79728.3
-98128.2
-102154
-69513.1
-60781.5
-59450.2
-54109.1
-59225.9
-55073.5
-56683.5
-60540.2
-55932.5
-58702.1
-64578.2
-58336.4
-77508.9
-62106.3
-63435.1
-63755.1
-57331.9
-57881.7
-142847
-123717
-113799
-81668.7
-70054.4
-85821
-94059.2
-72591.7
-89953.6
-204457
-163337
-175831
-136938
-165435
-202698
-148492
-162670
-128746
-145583
-155351
-58492.8
-63956.7
-61376
-64570.6
-82337.5
-68315.5
-76326.8
-87866.1
-72232.5
-94544.8
-112346
-89706.8
-63651.4
-66628.6
-69406.6
-105869
-80600.5
-85060.4
-161365
-143820
-130301
-109623
-98730.4
-118141
-136122
-105828
-126973
-76562.2
-72523.1
-64008.6
-48965.6
-47885.7
-52900.3
-60958.7
-50768.8
-56901.4
-53034.5
-54620.8
-51850.8
-57595.1
-50732.7
-52315
-52877.9
-49154.3
-50556.8
-103995
-75573.5
-84529
-77505.2
-62057.9
-73341.2
-65057.9
-59287.4
-69189
-42478.4
-45009.3
-44303.8
-50788.7
-49081.9
-47356.6
-47101.2
-47644.1
-46026.6
-83053.5
-115592
-81721.4
-78263.6
-67918.1
-53189
-51818.2
-59077.3
-71865.9
-56720.8
-65301.8
-60991.7
-67145.1
-57568.9
-49590.3
-47395.5
-49593.9
-62537.1
-51163.6
-54295.9
-113822
-81841.3
-93040.1
-101421
-79073.2
-93540.6
-78759.7
-73071.3
-85986.2
-39829.9
-46258
-42506.6
-43883.7
-45230.7
-43086.7
-50017.7
-48162.3
-45279.4
-47185
-26713.4
-45109.3
-39217.3
-41341.4
-45960.8
-34079
-40820.4
-36341.9
-34111.5
-37673.9
-31555.9
-32920.2
-30503.2
-24451
-25975.8
-27007.6
-31881.2
-28545.5
-29486.5
-40551.8
-38312.2
-38526.2
-39103.5
-35248.3
-37487.5
-35953.5
-34188.2
-36404.8
-26657.9
-31986.1
-25946.6
-21050.6
-25018.7
-24129.2
-30663
-27817.3
-27332.5
-47987.4
-26692.8
-47634.9
-38699
-42417.7
-47278
-33658.6
-41152.1
-34835.7
-32993.2
-37537.5
-26856.1
-28079.8
-25859.9
-20458.5
-22087.2
-22791
-27477.3
-24665
-25127.3
-37239.3
-36090.5
-34720
-33562.9
-30270.5
-32436.8
-33034.3
-29852.1
-32262.6
-26344.2
-31373.9
-24885.9
-18056.2
-21661.1
-21323
-28778.7
-24641.9
-24891.8
-2266.45
-6729.72
-3743.13
-2977.81
-4057.9
-3356
-7474.69
-6317.31
-5216.3
-21825.1
-18020.2
-19139.9
-17894.4
-14491.3
-17285.4
-15309.4
-13657.3
-16410.9
-9067.75
-7736.3
-11542.1
-18100.8
-16757.9
-15269.4
-9949.64
-14051.1
-12555.7
-3178.5
-4635.57
-5149.3
-9198.68
-11657.3
-8803.04
-7285.29
-10886.1
-8143.9
-1603.83
-7939.4
-1773.83
-5763.09
-3261
-3022.47
-3369.79
-2817.44
-5609.7
-4871.5
-3919.68
-18121.7
-14743.1
-15775.7
-14955
-11872.1
-14277.9
-12380.8
-11059.4
-13419.6
-8016.18
-6677.93
-10206.7
-15071
-13681.6
-12350.1
-7623.76
-11274.7
-9872.07
-3520
-3794.65
-4181.59
-7422.92
-9432.65
-7015.7
-5671.92
-8698.82
-6421.87
-68343.9
-123547
-1452.52
-13503.6
-204450
-137796
-146989
-189383
-167446
-172492
-107141
-129514
-114609
-115196
-118301
-119093
-104055
-222996
-146729
-233762
-221414
-206547
-235348
-148954
-144765
-130390
-145567
-135365
-151384
-143132
-59316.6
-65716.2
-59550.6
-58605.5
-62681.6
-61737.5
-56543.8
-97884.2
-116549
-110930
-111316
-107274
-100964
-107481
-70467.9
-130805
-68866.2
-69352.7
-61784.6
-66517.3
-65413.5
-70644.5
-64824.3
-131800
-128905
-125487
-139849
-137411
-120653
-134229
-57378.6
-19595.8
-51107.6
-56469.9
-55521
-55498.2
-53801.4
-53446.1
-52507.5
-20947.4
-19798
-18362.4
-18182.8
-20339.2
-20080.5
-19095.8
-58765.4
-19289
-57088.8
-58242.9
-62502.9
-57860.4
-60897.1
-54791.1
-58604.7
-18524
-19096.6
-17111.5
-16570.2
-19104
-18757.4
-16430.2
-1953.37
-1521.25
-1633.97
-1975.78
-1703.11
-2048.82
-1905.33
-15623.7
-13905.5
-16480.7
-16368.4
-14697.5
-17316.5
-14652.6
-1437.32
-13006.4
-1852.53
-1446.55
-1925.31
-1568.23
-1984.61
-1555.64
-1844.64
-12630.3
-12961.1
-15226.5
-14515.4
-14465.4
-13455.5
-12599.9
-3213.38
-2947.45
-3096.01
-3271.02
-88192.9
-100967
-3051.43
-5907.44
-177986
-162572
-131818
-165757
-144602
-147332
-148394
-128758
-151461
-122599
-151913
-140808
-143208
-137024
-125679
-139119
-192380
-174751
-199223
-190537
-172279
-194749
-177826
-201306
-192596
-179629
-172817
-166796
-188281
-161374
-181901
-186061
-73702
-84109.8
-82481.9
-81807.2
-79073.4
-76660.1
-78327.8
-82643.7
-95876
-85927.9
-85344.1
-89405.1
-79646.5
-88913.3
-91901.6
-105851
-90815.9
-90437.7
-89120.5
-97742.8
-84943.4
-92952.4
-95547.5
-105355
-104201
-93377.7
-102642
-97715.1
-107647
-100397
-40841.6
-32047.4
-38342.5
-40005.1
-36625.8
-35898.6
-39260.7
-35950.8
-38475.5
-31334.2
-31722
-34061.5
-33385.8
-31572
-33609.5
-30956.5
-41334.4
-32206.7
-39808
-40745.6
-36155.1
-37645.3
-39007.6
-40841.9
-36713.7
-30891.2
-31763.6
-33398.7
-34568.8
-30743.6
-31618.6
-33740.4
-5113.68
-3535.73
-5211.11
-5445.59
-4288.27
-6138.75
-4529.61
-3042.76
-3333.76
-3394.96
-3070.6
-3182.14
-3209.13
-3048.35
-8434.69
-6467.01
-6242.2
-6463.49
-7382.48
-7249.93
-7574.92
-3304.21
-3392.97
-3343.93
-3054.46
-3184.36
-3469.47
-2988.97
-2552.71
-5296.2
-2896.78
-2733.06
-4452.56
-3228.05
-3669.22
-2538.59
-3591.49
-3152.06
-3468.59
-3384.31
-3615.95
-3195.68
-3328.44
-3443.85
-5455.39
-5435.6
-5366.94
-4095.44
-6403.84
-5130.52
-4446.29
-3519.76
-3661.22
-3367.84
-3735.91
-3506.76
-3401.31
-3797.46
-72159.7
-118909
-1444.28
-11717
-199089
-142651
-94834.2
-95668.6
-143975
-184608
-159823
-164022
-163631
-168239
-140958
-96970.8
-70376.2
-65363.6
-71189.4
-64481.1
-73438
-71963.2
-75525
-77126.6
-68171.7
-62274
-67422.1
-63085.9
-90555.2
-78667.8
-80225.4
-89086.1
-103107
-105848
-93795.8
-84097.1
-95476.4
-82354.7
-100176
-97678.1
-82763.2
-81411.7
-110236
-133918
-125749
-127009
-122015
-123039
-113326
-78240.8
-79682.4
-216758
-152194
-209476
-216351
-226671
-215111
-194872
-221484
-200677
-228377
-219671
-230842
-223748
-64653.4
-73807.3
-66458.5
-71841.4
-58026
-57261.5
-60602.3
-61415.3
-62294.5
-66810.9
-60610.5
-68650.1
-91827.8
-102216
-104917
-89277
-85918
-87149.3
-95145.2
-112233
-97858.9
-109377
-82150.5
-81012.5
-150687
-144886
-154882
-150217
-145553
-163306
-140419
-157297
-160913
-133392
-138955
-55017.1
-53204.2
-62130.9
-69263.8
-69100.6
-68201.6
-65866.5
-64943.5
-64975.5
-49430.9
-51258.9
-62733.4
-58208.2
-58937.8
-62052.4
-68635.1
-69997.1
-66778.4
-65507.2
-64658.5
-60952.5
-65360.1
-60194
-71511
-73102.4
-94808.1
-112314
-100042
-99928.7
-103642
-103676
-91749.9
-76453.2
-74933.9
-50315.4
-49444.1
-48615.2
-51120.6
-50422.8
-49314.3
-51854.3
-52947.5
-48896.4
-46595.1
-48029.7
-47479.1
-74566.9
-125651
-70567.1
-66610.5
-73023.9
-73377.6
-72957.2
-79231.7
-69138
-74882.1
-77296.1
-59052.4
-62766.9
-54773.1
-57737.4
-59344
-53314.9
-54119.3
-54859.2
-56844.3
-63836.9
-58406.1
-62119.2
-51885.8
-51163.2
-111847
-116959
-126288
-123788
-111236
-123286
-115903
-128705
-120891
-127720
-122370
-38679.4
-41126.6
-39930.2
-39790.2
-36966
-36170.7
-37274.9
-37030.8
-36193.4
-38183.9
-38438.2
-39211
-53892
-21858.3
-41928.6
-43755.6
-48453.2
-52238.1
-47579
-46683.9
-50480.1
-49554.4
-45851.4
-47498.3
-45665.4
-30345.6
-31207
-31760.2
-29805.5
-29336.7
-27829.9
-30734.7
-32178.5
-28974.2
-26996.1
-27488.9
-28464.5
-44349.8
-42304.3
-43321.6
-43337.2
-46780
-47913.5
-45708
-45442.8
-46646.3
-44494.2
-45399.1
-44227.6
-25916.9
-24246.3
-22880.6
-21981
-24574.8
-24167.6
-22412.5
-22080.1
-24888
-21018.8
-22631.6
-55066
-21631.2
-45385.7
-48633
-53391.3
-54229.4
-48185
-51145.6
-51437.3
-54816.7
-49816.8
-55460.2
-51972.5
-20629.5
-21319.5
-21719.9
-20224.5
-20000.2
-18890.8
-21036
-22115.5
-19611
-18065.2
-18496.2
-19182.6
-32554.9
-31726.9
-32821.7
-31509.6
-33948.3
-34782.8
-33815.5
-35425.3
-34871.4
-34308.5
-32636.7
-31765.8
-21728.6
-19656.1
-20743.2
-21388.3
-23431.3
-23512.4
-21210.4
-21069.5
-23087.9
-15923.8
-17767.7
-3631.9
-2782.44
-2169.29
-1626.09
-2253.5
-2529.45
-1878.35
-2188.47
-2672.21
-2119.39
-2390.85
-2585.89
-2479.78
-2303.12
-2111.88
-2404.72
-2304.43
-2321.65
-23165.6
-21131.8
-22710.9
-21562.6
-24863.2
-26423.2
-23450.3
-21842.4
-24555
-25630.8
-26107.2
-24098
-14979.3
-16471
-14013.2
-12169.1
-11445.3
-11522
-13016.3
-13033.4
-12491.9
-19487.3
-17931.8
-5769.54
-7506.14
-5556.19
-7804.89
-3700.9
-1859.05
-5833.94
-7927.07
-3710.55
-2154.76
-1993.34
-3619.01
-1320.2
-11176.9
-2335.04
-2253.52
-1800.81
-1455.31
-2200.25
-1538.39
-2032.04
-1508.57
-1831.66
-2099.74
-2337.05
-2555.23
-2563.68
-2253.46
-2149.4
-2407.64
-2477
-2378.18
-15381.2
-13789.1
-14951.6
-14222.5
-16730.8
-17877.8
-16366.2
-17062.4
-17499.6
-15926.4
-15739
-14566.9
-9756.94
-11168.9
-10921.9
-11177.7
-10273.3
-9172.86
-11803.9
-10817.9
-9348.49
-14250.6
-12623.9
-3751.35
-4557.33
-3694.67
-4753.61
-3393.79
-3175.28
-3308.64
-3632.22
-3301.38
-3470.21
-3429.9
-3344.18
-3465.46
-3486.01
-3745.38
-3623.7
-3485.24
-3793.18
-4875.64
-84072.8
-105358
-2410.4
-7149.64
-183207
-157521
-68551.5
-81646.2
-81833.6
-69337.4
-60635.5
-55541
-69383.6
-82653.7
-60935.1
-56114.4
-61156.4
-54580.5
-93450.6
-92508
-134877
-170432
-156009
-159810
-137920
-152199
-155630
-89995.1
-91049.8
-69038.9
-80730.4
-68447.2
-80405.4
-61476.8
-56766.6
-55616.6
-61469.6
-61437.5
-55182.8
-61323.8
-56527.9
-68089.5
-78944.9
-79403.3
-68497.9
-74456
-66855
-73558.4
-67831.3
-83452.1
-85364.2
-76992.1
-70515.4
-69425.5
-77995.5
-81092.7
-79348.8
-56699.6
-60698.2
-60679.3
-56970
-53944.1
-54049.8
-54148.4
-54382.5
-55093
-54521.3
-54532.3
-54515.2
-55934.3
-59006.9
-59040.8
-55657.2
-58033.1
-62463.5
-62483.6
-57754
-56337.3
-54826.3
-55573.9
-54978.7
-58854.4
-64438.8
-64384.1
-59165
-55067
-54824.2
-55736.6
-54744.6
-63388.3
-71397.2
-71708.3
-62832.8
-59075.7
-54260.5
-58175.3
-54566.1
-64533.6
-74733.6
-74269.1
-65217.7
-57345.5
-54764.5
-54476.3
-58253.5
-84731.6
-76682.8
-86021
-75304.7
-89954.5
-87864.2
-81845
-72231.4
-80707.8
-73457.4
-92599.8
-94887.7
-61349.1
-69010.6
-61798.5
-68812.7
-56091.9
-55005.8
-54789.7
-56930.3
-57555.3
-54661.3
-54922.4
-56666.8
-60404.5
-66491.6
-60039.2
-66598.6
-84437.6
-85694.9
-119510
-147360
-129497
-131021
-116423
-133253
-135048
-88458.2
-87300.3
-65431.1
-74103.1
-73260.7
-65559.1
-59668.4
-55733.3
-55343.8
-59198.6
-60117.2
-55720.6
-56297
-60472.3
-64249.9
-70977.6
-71932.4
-63966.5
-66639.3
-75361
-76078.9
-66682.9
-61259.7
-55854.4
-61384.6
-56812.8
-67706.4
-77848.5
-67489
-77255.5
-61046.8
-56658.7
-55894.2
-60804.9
-198387
-169004
-194911
-201859
-208895
-188288
-191223
-182083
-197864
-176028
-201480
-223089
-215833
-208304
-184922
-164283
-178512
-170117
-202309
-195638
-205946
-196582
-189128
-214674
-212760
-183442
-207948
-182260
-188707
-175554
-195150
-181947
-188349
-160419
-142095
-147488
-154480
-166254
-158589
-172443
-152969
-169447
-175292
-181863
-163262
-70914.9
-77198.4
-68969.9
-79309.9
-67990.4
-68901.9
-73586.4
-85166.1
-82916.5
-75670.7
-65031.4
-64174.3
-87304.2
-81043.6
-78208.9
-90449.5
-90824.5
-96157.2
-100165
-87215.2
-94709.9
-108812
-98519.5
-104577
-83484.3
-72429
-75072.7
-80532.4
-97824.4
-84364.2
-87374.2
-94487.6
-110957
-127491
-115196
-122789
-102080
-94104
-90896
-105621
-106652
-113447
-102614
-117918
-131511
-112772
-116535
-127382
-148531
-170283
-153609
-164678
-136641
-124781
-120813
-140977
-143390
-153520
-158917
-138513
-83730.7
-97966.9
-86123.2
-95419.5
-73037.3
-72056.1
-80739.3
-88983.2
-78496.7
-91383.4
-76390.3
-77453.9
-118534
-108681
-122457
-105094
-124179
-132574
-137515
-119725
-128912
-147987
-142831
-133571
-113826
-97807.5
-110104
-101195
-156869
-162887
-173286
-167052
-150754
-169410
-167051
-156028
-175608
-175571
-169326
-129223
-144824
-138990
-134695
-117051
-103162
-107636
-112120
-121983
-116922
-112205
-127170
-124069
-127855
-133444
-118821
-145812
-150606
-156693
-140095
-143168
-136850
-148854
-131671
-151448
-169042
-157389
-162714
-137769
-121710
-126649
-132339
-56966.2
-58754.9
-70764.1
-80302.3
-72382.5
-71526.1
-67858.8
-75705.5
-74893.3
-62449.7
-60696.5
-48739.8
-52458.3
-50939.9
-49885.1
-46142.8
-44323.2
-45135.7
-44945.6
-47278.4
-47034.8
-48405.3
-46345
-47264.2
-47702.6
-49264.4
-46039.7
-52393.9
-54119
-55585.4
-51343.6
-51542
-50350.1
-52510.6
-49928.6
-53829
-58627.1
-57222.6
-54780.4
-50534.2
-48216.8
-49482.4
-48778.2
-53823.4
-55826
-55951.5
-53474.4
-53578.8
-53603.9
-53270.9
-53411.3
-54589.8
-57468.2
-57396.8
-54896.7
-52490.7
-52599.9
-52666.3
-52891.5
-59574.3
-56999.5
-60248.6
-56282.8
-60888
-59738.8
-62553.8
-63754.1
-57876.3
-54387.7
-55111.3
-57190.9
-52285.6
-54450.1
-52690.9
-54256.8
-50554.7
-50437.4
-50932.2
-50451.6
-51625.3
-51999.8
-51590.4
-51607.7
-51475.2
-52665.1
-52940.9
-51006.9
-69638.3
-67986.4
-85664.1
-99908.7
-96464.7
-96208.6
-88696.1
-92918.7
-92542.2
-64378
-66084.4
-61008.8
-65891.8
-67052.3
-60429.2
-58061.1
-54746.9
-58640.9
-54964
-62290.8
-69574.7
-68512.2
-62731.1
-57398.9
-53991.9
-53948.7
-56715.5
-58387
-64375
-63125.3
-59100.8
-54322.8
-51466.8
-53444.8
-51743
-57018.4
-60232.3
-56185
-61562.2
-55172.6
-52942
-52825
-55955.5
-46487.7
-48103.3
-47539.3
-47195.5
-44934.9
-44054.5
-44937.9
-44296.7
-46056.2
-46685.5
-45894
-46567.5
-45521.3
-45657.1
-46329.4
-44727.8
-53341.4
-50578
-52588.1
-51356.3
-57038.5
-58152.1
-55513.7
-54418.5
-54871.4
-53238
-55583.4
-52493.3
-48739.9
-49324.3
-48118.2
-49787.6
-49133.6
-49687.8
-49091.6
-49375.9
-48046.4
-47576.3
-48269.9
-47670.2
-49620.7
-51391.9
-50163.7
-51027.5
-87425.5
-110679
-74667.1
-78854.1
-86192.6
-86031.5
-76864.3
-83694.9
-81688.5
-80858.4
-88267.8
-87646.4
-83216.6
-59507.8
-67573.6
-63747.8
-63058.1
-53281
-47041.9
-49747.2
-50265.2
-56372
-55447.3
-59616.7
-52528.9
-56252
-56555.9
-60138.8
-52926.5
-70342.8
-71423.1
-75502.9
-66546
-69956
-68118.7
-73656.8
-64767.5
-74065.5
-83921.7
-79593.7
-78093
-66398.5
-58436.2
-62936.3
-61564.1
-70787.7
-61940.2
-64243
-68189.8
-80155.6
-91972.3
-83549.2
-88192.1
-74158.7
-69485.2
-67004.5
-76940.5
-76699.5
-80667.5
-73500.6
-84229.9
-50019.4
-55159.2
-51383.9
-53658.2
-46439.9
-45727.4
-48210.7
-49852.9
-51263.7
-46924.6
-48370.1
-49089.9
-62602.6
-59361.4
-65030.4
-57208
-64226.2
-66960.1
-70095.6
-61430.9
-67271.8
-76939.9
-70255.5
-73595.3
-59656.5
-52811.6
-54805.7
-57392.4
-106697
-101808
-110423
-108965
-106649
-117969
-115601
-102138
-112756
-92268.1
-96921.3
-104236
-107068
-112152
-99473.8
-102732
-98826.6
-107407
-94566.6
-108913
-122554
-117220
-113907
-98249.4
-86444.9
-90464.2
-93824.4
-90527.2
-102248
-97417.8
-95040.2
-81379.2
-71548.7
-77437.3
-75114.2
-86330.9
-88256.8
-82050.9
-92839.4
-85391.6
-82566.3
-78765.6
-89577.7
-43867.5
-42991.8
-41378.8
-45701
-43963.8
-44588.2
-46952
-41880.8
-46232.9
-52117.3
-49579.7
-48475.7
-41710.7
-38094.2
-39595.7
-40001.7
-42436.3
-43010
-41278.7
-44271.7
-43199.7
-43926.6
-44022.7
-47642.2
-45236.1
-46312.2
-41521.7
-40777.3
-50007.8
-44913.5
-48039.3
-46636.7
-55990.5
-63677.6
-60751.3
-58593.7
-53348.9
-54958.8
-57695.3
-50926.3
-52540.6
-50575.4
-54657.5
-48713.3
-43964.3
-29315.5
-41763
-41133.8
-42749.8
-40406.2
-42499.1
-43086.5
-43758.5
-42164.5
-43254.2
-46022.1
-44428.9
-44552.3
-41269.9
-39874.9
-39953
-40901.3
-40052.1
-38239.8
-40792.7
-42940
-44739.7
-43872
-43294
-41966.1
-41138.9
-34608.9
-36398.9
-37503.3
-39467.9
-38915
-37838.5
-36026
-34963.2
-36173
-34614.8
-37321.5
-38594.3
-38687.9
-37473.9
-36019.5
-34548.4
-36187.6
-34561.9
-34451.2
-32519.6
-33115.3
-33842.5
-36320.4
-37642.4
-35796.1
-36375.2
-35126.5
-37052.9
-34949
-33561.7
-28696.5
-30690.3
-29319.4
-30083.8
-26835.2
-24675.6
-26147.7
-25388.5
-28155.5
-28883.9
-29531.8
-27465.2
-27385.7
-26527.2
-27982.3
-25926.4
-32672.5
-31998.8
-33287.3
-31361.9
-33391.8
-34065.9
-34589
-32775.1
-33909.7
-35760.9
-34571
-35141.5
-32116.5
-30165.7
-30829.6
-31524.2
-41772.1
-41573.5
-42459.3
-40801.7
-42389.9
-43038.9
-43151.9
-42063.7
-42832.1
-44448.8
-43673.5
-43714.1
-41220.6
-39933.6
-40992.3
-40341.6
-40901
-41109.6
-41993
-40015.3
-40279.6
-39010.3
-39562.7
-37625
-38390.7
-38794.7
-41645.4
-42858.6
-38635.4
-40347.6
-39694.9
-39361.4
-36934.4
-35279.7
-36498.2
-35836.6
-38154.7
-38810.8
-37669.9
-39147
-37484.2
-37023.6
-36337.8
-38117.8
-27592.2
-29314.3
-29118
-29140.6
-26823.6
-26347.9
-26969.9
-29157.8
-28605.8
-32816.6
-31054.5
-25633
-26509.4
-24902.9
-27174.5
-24818
-24083.5
-25560.1
-23284.7
-26166.4
-28328.5
-26909
-27680.5
-24220
-21801.7
-23387.1
-22664.4
-30133.1
-28064.4
-29692.5
-28613.3
-31842.8
-33646.1
-33295.5
-32358.2
-31592
-32925.7
-33087.1
-31287.4
-30508.8
-29667
-31026.7
-29025.2
-44598.9
-29388.2
-44005.2
-43611.5
-46711.1
-41139
-44591.2
-44471.6
-47393.7
-41959.9
-46812.7
-53184.7
-49847.6
-49897.8
-41939.8
-37279.8
-39351.9
-39595.2
-42291.6
-39277.1
-43024.4
-43956.3
-45026
-47590.8
-46359.3
-41965.1
-44156.9
-33658.8
-36433.4
-35919
-40710.6
-38556
-37852.2
-32309.4
-29028
-30986.3
-30113.1
-34527.7
-35106
-36920.3
-32972.6
-33550.5
-32558.8
-35185.3
-31125.6
-23835.6
-22401.9
-22762.6
-23486.9
-25321.7
-26320.8
-24909.3
-25700.3
-24625.2
-25965.7
-24217.2
-23181.3
-19574.1
-21057.9
-19907.9
-20781.6
-18214.7
-16583.6
-17911.1
-16970.1
-19382.9
-20564.2
-20670.9
-19162.6
-18460.4
-17712.8
-18853.9
-17276.2
-23207.8
-22163.6
-23319.8
-21969.2
-24646.7
-26569.3
-26089.8
-24961.8
-24491.8
-25680
-24489.5
-25778.6
-23287
-21944.3
-21925.1
-23439.3
-34612.3
-32160.6
-33494.4
-33109.6
-37865
-42167.9
-39792.7
-39984.3
-36424.2
-36443.6
-35025.5
-38026.4
-35942.6
-35731.4
-37759.5
-34153.9
-29270.6
-30346.7
-30312
-29270.3
-28416.6
-27463.4
-28121.4
-26907.8
-27071.7
-27982.2
-29605.1
-30521.2
-30036.6
-30739.7
-31450.4
-29462.6
-29118
-28246.5
-29982.5
-27574.2
-30736.1
-33701.2
-31831.3
-32390.5
-28515.4
-26918.2
-27171.9
-28140.1
-23852.8
-26153.7
-28163
-28995.3
-25763.1
-26089.3
-25564.2
-28198
-28789.9
-31055.1
-28513.2
-19241.7
-21372.1
-19420.5
-21058.3
-17671.7
-16389.8
-17797.6
-16136.3
-19131.4
-20662.6
-19138.5
-20807.5
-17679.4
-15910.7
-17656.9
-16033.6
-24815.2
-23355
-25523.3
-22806.2
-26088.9
-27223.8
-28097.4
-25423.8
-26763.3
-30122.4
-28971.6
-27728.7
-24269.9
-22142
-23789.3
-22436.8
-4599.88
-5770.64
-4180.12
-2825.43
-2787.8
-3052.97
-3357.52
-3474.44
-3724.48
-8228.23
-6926.55
-3483.51
-4034.74
-3076.98
-4625.06
-2945.79
-3190.91
-2838.39
-2766.8
-2665.44
-3153.49
-2947.09
-2950.4
-2730.42
-3143.72
-2715.24
-3794.46
-5587.22
-5019.93
-4191.16
-2810.45
-2487.13
-2546.21
-2637.11
-7082.81
-5064.79
-6342.09
-5697.53
-8836.56
-11120.8
-10367
-9548.48
-8276.78
-8939.41
-7535.36
-9787.34
-7599.8
-6789.8
-6167.66
-8285.83
-21705.3
-20705.1
-22287
-20138
-22532.8
-23343.5
-24046.9
-21819.3
-23067.9
-25177
-23655.8
-24585.5
-21178.2
-18907.1
-19612.7
-20469.4
-18531.7
-19741.5
-20170.5
-18120.1
-17384.1
-15720.4
-18789.1
-20427.7
-17147.3
-15094.9
-16733.6
-15483.1
-17160.3
-19332.8
-18761.8
-17716.7
-15291.8
-13002.6
-14600.8
-13671.7
-16646.6
-17552
-18253.4
-15961.4
-15787.6
-14699
-16343.3
-14164
-13599.9
-12166.4
-9701.04
-7702.09
-9982.49
-10104.2
-11054.1
-8626.53
-8789.22
-9471.99
-10848.8
-18359.4
-15847.5
-17371.8
-16795.5
-20381.6
-22734.7
-21933.8
-21213.4
-19717.3
-20343.9
-18787.4
-21279.6
-19038.4
-18298
-19858.1
-17471.5
-13903.8
-14486.1
-12991.5
-15465.7
-13237.5
-12432.8
-11670.1
-14031.3
-12600.9
-10204.8
-11050.9
-11669.1
-14561.1
-16953.3
-15368.6
-16133.5
-5093.92
-7252.24
-5385.5
-6835.51
-3402.93
-2687.68
-3239.83
-2605.62
-4841.97
-5978.44
-4485.89
-6497.31
-3466.95
-2319.59
-3583.8
-2479.15
-11036.5
-8992.35
-9304.32
-10673.4
-12619.3
-14321.7
-11218.3
-9467.37
-12408.8
-13717.5
-14111.3
-12047.9
-9835.54
-8677.09
-8230.52
-10345.7
-10705.9
-11666.1
-10074.1
-12329.1
-9402.68
-7255.36
-8779.95
-7820.95
-11174.3
-13346.3
-12803.2
-11685.6
-1992.69
-6535.16
-2584.88
-3063.28
-2367.63
-2168.65
-2537.06
-1700.61
-2015.21
-3027.57
-2032.48
-4422.43
-3646
-2623.86
-2510.02
-2428.82
-2818.32
-2996.65
-3285.46
-2801.07
-2920.93
-2719.17
-3109.76
-3214.76
-3005.4
-3542.05
-3194.87
-3328.07
-2820.17
-3341.15
-3025.48
-3000.09
-2827.8
-2787.87
-2610.97
-3083.59
-3826.74
-2785.37
-3348.86
-3139.34
-4828.93
-6369.25
-5819.52
-5342.23
-4469.98
-4800.22
-3958.16
-5408.62
-4148.23
-3802.63
-3403.88
-4617.11
-14049.7
-13403.9
-14555.7
-12875.7
-14676
-15431.2
-15881
-14167.8
-15050.6
-16692.9
-15544.4
-16228.6
-13644.2
-11884.1
-12459.6
-13102.9
-12069.2
-12829.9
-13251.1
-11652.1
-11413.6
-10180.8
-11102.1
-9501.97
-10704
-9894.22
-12381.2
-13589.3
-10740.1
-12436.3
-11914.1
-11268.5
-9371.77
-7645.98
-8786.19
-8226.23
-10317.2
-10889.9
-11476.9
-9712.09
-9805.4
-9151.69
-10322.9
-8638.99
-8503.52
-7298.76
-6612.9
-6650.61
-8857.94
-7671.38
-7909.26
-7568.26
-6324.92
-5259.17
-6255.12
-11927.3
-10056.7
-11429.1
-10579.4
-13422.8
-15169.8
-14832.9
-13848.3
-13159.8
-14346.7
-12795.9
-14644.8
-12251.8
-11495.2
-12737.8
-10951.2
-8276.84
-8870.59
-7672.95
-9493.23
-7756.17
-7230.07
-6644.01
-8340.76
-7322.04
-5635.45
-6226.93
-6665.71
-8697.63
-10467.3
-9286.33
-9904.75
-3478.12
-4385.44
-3604.49
-4101.24
-3498.76
-3618.56
-3477.14
-3743.57
-3542.8
-3408.25
-3799.28
-3456.16
-3697.08
-3301.93
-3801.66
-3342.6
-3555.44
-3167.47
-3886.73
-3473.51
-3825.4
-3557.86
-3835.94
-6776.36
-5344.37
-5608.62
-6471.16
-7946.4
-9213.72
-7712.64
-8569.6
-8934.01
-7363.81
-6997.01
-5776.64
-5766.69
-5118.79
-4751.82
-6176.88
-6237.56
-6780.57
-5716.19
-7336.33
-5428.61
-4071.81
-4958.31
-4479.5
-6597.73
-8221.55
-7741.54
-7053.45
-3229.3
-2559.8
-3078.81
-2104.96
-3309.59
-2792.77
-3259.08
-2527.58
-3279.58
-2314.58
-3261.57
-3257.88
-3314.29
-3424.63
-2713.84
-3327.46
-3352.8
-2876.68
-125799
-148557
-158458
-112737
-123561
-109154
-144626
-150847
-154627
-110593
-121292
-95064.3
-106860
-103606
-85392.6
-110371
-92585.1
-87243.2
-97525.1
-91373
-117516
-107120
-113945
-99983.2
-89580.3
-224774
-223512
-177426
-231796
-192118
-216653
-217798
-203051
-172415
-181339
-186695
-209711
-210974
-142103
-121749
-117279
-130247
-126346
-136505
-135674
-147868
-146919
-135765
-121569
-131020
-153695
-141272
-55432.9
-55574.1
-55773.7
-50837.1
-58415.8
-53052.4
-52855.7
-57834.6
-57138.6
-64290.3
-58497.1
-61337.3
-60263.1
-55109.1
-87602.4
-103346
-83038.3
-94100.3
-90101.8
-99890.4
-81138.1
-85107.2
-76835.5
-93058.9
-90754.3
-96440.7
-82603.8
-78777.3
-65353.3
-58396.8
-58293.6
-58696.7
-61740.7
-61548.6
-62357.9
-69314.5
-69924.1
-68697.4
-61409.4
-65174.5
-73360.8
-66028.2
-125558
-117214
-124900
-104870
-130957
-112746
-119675
-120232
-109578
-104043
-100846
-108354
-115065
-114581
-48360.1
-52761.7
-48629.8
-48069
-50694.2
-50024.5
-46628
-46062.6
-42505.1
-45583.7
-44718.9
-47329.4
-44475.9
-43796
-21566.7
-18547.9
-20594.2
-20360.2
-20313.1
-19854.1
-21990.3
-23340.8
-25379.8
-24097.4
-22267.5
-22170.2
-25175.3
-23670.4
-54230.7
-55133.5
-55249.2
-49333.2
-57818.8
-51952.8
-51806.4
-50734.9
-45375.3
-46538.5
-45872.1
-48865.7
-48584.8
-47387.9
-18152.8
-17258.2
-19264.9
-16244.6
-19103.3
-16222.5
-18091.3
-20220.2
-22050.2
-23098.1
-21016.7
-21048.3
-22393.8
-19978.4
-2440.71
-3426.4
-2852.03
-2586.22
-2430.83
-3089.59
-2700.34
-16594.1
-16848.3
-18785.6
-15698.3
-18194.7
-15232.6
-17230.1
-15059.5
-14280.4
-12244.1
-14301.8
-13694.2
-13585.2
-15752.1
-2055.23
-2368.24
-2518.25
-2468.72
-2280.2
-2123.78
-2269.53
-12688.4
-15509.6
-14565.5
-14305.7
-14392.5
-13855.7
-12929.3
-11095.7
-10039.2
-10861.3
-12896.1
-12308.4
-9634.31
-11462.6
-114372
-135836
-101640
-130608
-103231
-112016
-139544
-116696
-106969
-147051
-134413
-119010
-105455
-143304
-107251
-132114
-99378.2
-120582
-109648
-97714.4
-128443
-104847
-93692.5
-121143
-116912
-102419
-95422.8
-124764
-190955
-160470
-153129
-177062
-165591
-183321
-184524
-197546
-196314
-176030
-157912
-204187
-170781
-189849
-171885
-155400
-139274
-170753
-150391
-178130
-164692
-165698
-152758
-140575
-134724
-159671
-145446
-158610
-67630.1
-76636.3
-65801.2
-69705.1
-63779.5
-70116.9
-73489.3
-65162.5
-59429.7
-67315.6
-66755.9
-62704.4
-61459.5
-70364.7
-75101.5
-79849.9
-68143.7
-78447.6
-72605.5
-70144.7
-83076.7
-77596.8
-74473.8
-89683.5
-81599.4
-80103.4
-72498.6
-86372.5
-86243.8
-83612.3
-74728.9
-86418.8
-79756
-82066.8
-90750.7
-81819
-73819.4
-72300.5
-71295
-77552.9
-75984.3
-77938.1
-100123
-87542.9
-85502.7
-90777.4
-91547.7
-95404.1
-95343.5
-105005
-104734
-99802.2
-89232.3
-109959
-95634.5
-99943.1
-37208.1
-34870.1
-34573.3
-36281.2
-36462.2
-35092.4
-37222.1
-39364.3
-40417.7
-42149.7
-38505
-41564.2
-38482.5
-39659.7
-30978.1
-32566.1
-32630.2
-29884
-33014.4
-30789
-30342.6
-28994.7
-27149
-26108.5
-27928.6
-27059.1
-28927.6
-28181.5
-37975.4
-34804.1
-36091.6
-33863.2
-37428.1
-36614
-35096.9
-41001.7
-42373.8
-42965.5
-38544.7
-44124
-40147.6
-39389.2
-29655.5
-32269.7
-29095.6
-31308.2
-29826.1
-32307.6
-28780.5
-27106.8
-24158.2
-25243.7
-26988.9
-24701.8
-27485.1
-26452
-5946.42
-6137.18
-7703.31
-5569.75
-6468.9
-7080.74
-5145.37
-4889.72
-4297.46
-3473.14
-4709.07
-3923.28
-5382.47
-4250.9
-9514.4
-7205.21
-8898.21
-9015.32
-8271.09
-10219.9
-8348.15
-10811.2
-12905.5
-10866.9
-10148.7
-12171.5
-11508.3
-9568.01
-3366.78
-5115.65
-4761.89
-4616.29
-4265.44
-3810.04
-4093.03
-2783.82
-2665.2
-2947.06
-4033.59
-2368.93
-3539.81
-3194.26
-5933.88
-6063.78
-7828.81
-5473.31
-7114.05
-4952.91
-6488.74
-7048.37
-8770.72
-9512.21
-8906.3
-8277.36
-8260.33
-7550.56
)
;

boundaryField
{
    left
    {
        type            calculated;
        value           nonuniform List<scalar> 0();
    }
    bottom
    {
        type            calculated;
        value           nonuniform List<scalar> 0();
    }
    interface
    {
        type            calculated;
        value           nonuniform List<scalar> 
2120
(
-64273
-127189
-1394.4
-15357.6
-131876
-140691
-66356.2
-135429
-60650.7
-17402.6
-62474.8
-16943.6
-1542.65
-1342.29
-14841.7
-1515.56
-91770.3
-95981.8
-3738.8
-4694.65
-171074
-166020
-185333
-179521
-96163.3
-100783
-37743.2
-34840.6
-38137.8
-35083
-3346.08
-3365.16
-3155.58
-4067.24
-3534.37
-3604.53
-75610.4
-113459
-1496.58
-9972.43
-191657
-146228
-209190
-156916
-78573.1
-120098
-50291.5
-24231
-51424.2
-23999.1
-2672.94
-2879.85
-1287.67
-9344.03
-2658.15
-3294.34
-79542.8
-108997
-1796.73
-8439.91
-186457
-151109
-203140
-162466
-82835
-115147
-47014.9
-26728
-47943.7
-26596.2
-2931.17
-3075.23
-1480.03
-7791.92
-2967.92
-3450.82
-67969.9
-122552
-1431.03
-13431.8
-202145
-136604
-146972
-166862
-107121
-104035
-221456
-146024
-233551
-148801
-151396
-142979
-59295.2
-59553.7
-62682.3
-56522.2
-97863.9
-100943
-70330.8
-130240
-68758.3
-64715.8
-131656
-139859
-137263
-134240
-57108.4
-19561.9
-51086.2
-56474.7
-53779.7
-53451.7
-20924.6
-19072.5
-58688.9
-19169.3
-56985.8
-60792.3
-18442.2
-16517.1
-18708.7
-16348
-1907.57
-1546.72
-1936.48
-1840.63
-1860.34
-15600.2
-16435.2
-14647.2
-17293
-1383.54
-12869.7
-1800.96
-1885.71
-1501.45
-1777.69
-1771.17
-12552.4
-14457.8
-14385.6
-12536.2
-2837.86
-3214.51
-87620.5
-100252
-2930.55
-5798.79
-176159
-161002
-131800
-144219
-147982
-128739
-122580
-125660
-191205
-173768
-199039
-194771
-201329
-192412
-179454
-185883
-73681.1
-79045.7
-76638.8
-82622.8
-79625.4
-91629.9
-105484
-90694.4
-97749.3
-92958.1
-95424.1
-105227
-107654
-100269
-40738.1
-32033.8
-38320.8
-39258.8
-35928.8
-31312.6