/*--------------------------------*- C++ -*----------------------------------*\
| =========                 |                                                 |
| \\      /  F ield         | OpenFOAM: The Open Source CFD Toolbox           |
|  \\    /   O peration     | Version:  2012                                  |
|   \\  /    A nd           | Website:  www.openfoam.com                      |
|    \\/     M anipulation  |                                                 |
\*---------------------------------------------------------------------------*/
FoamFile
{
    version     2.0;
    format      ascii;
    class       volScalarField;
    location    "0.104/solid";
    object      sigmaEq;
}
// * * * * * * * * * * * * * * * * * * * * * * * * * * * * * * * * * * * * * //

dimensions      [1 -1 -2 0 0 0 0];


internalField   nonuniform List<scalar> 
3125
(
64202.6
126779
1288.85
15329.1
131436
58940.2
79804.6
123848
140363
47645.2
58585.4
139234
61532.9
56442.2
119572
40677.4
66299.4
135125
65132.9
46097.3
133956
34587.1
60595
17374.4
58149.1
22793.1
38522.9
17282.8
62425.1
16962.9
61292.5
19288.6
32808.9
16575.4
1388.58
20400.5
15326.7
1245.95
14864.1
1362.35
17222.9
14530
91567.8
95757.2
3733.09
4679.48
170368
165351
78448.8
159354
72163.2
67078
51458.6
54941
57938.5
70040
55871.3
154799
62603.3
69890
184771
178990
144910
184190
119949
52257.5
74365.5
91426.2
117524
53805
97596.6
178319
90394.9
112151
87055
41059
49333.1
50080.8
49417.5
45364.6
90942.6
60040.9
52062.1
37927.5
47191.4
43617.3
96022.5
100626
94725
44857.5
59785.1
69166.8
41340
55019
99324.9
83701.7
65333.3
39399.6
39702.6
50776.7
37722.3
34819.8
38301.7
36614
30138.6
29733.9
20418.2
27293.6
35902.4
31971.1
29512.9
33866.2
19703.1
27473.7
38127
35076.5
40445.8
37300.6
28842.2
25305.6
17181.1
24395.8
36032
27240
27055.9
34301.7
16831
25493.3
4064.13
3325.16
7612.17
18067.5
13050.2
10929.7
5020.07
17193.9
9917.58
3325.87
10539.3
8572.69
3194.27
4105.72
3185.07
3502.07
5895.51
14969.2
10886.1
8710.46
4075.01
14341.2
7788.48
3547.66
8716.17
6754.98
75491
113133
1526.94
9944.07
190801
145695
177830
139541
61537.2
49865.7
51252.3
60287.6
76395.9
58629.3
136899
98778
108704
208488
156505
208337
166285
49183.2
50298
52682.5
69471.2
56962.2
66342.4
155536
111918
124583
72088.6
51443.6
59595.9
48476.5
54030.4
47076
107013
95612.6
86021.2
37886
42832.2
39548.8
78486.6
119862
77241.2
54011.6
63351
48011.1
44533.7
45807.2
118605
107649
95747.4
33799.6
36327.5
35708.3
50263.6
24203.8
48979
48444.3
41453.8
25146.2
22014.2
24251.5
36156.2
36359.1
34356.4
23793.2
17375.4
22606.6
51394.1
24008.7
50955
50379.2
42552.5
21326.2
18468
20445.9
31907.6
30991.8
30020.7
23453.3
16318.5
21678.8
1648.19
2668.05
2744.66
19714.9
17974.8
17362.5
10158.3
15919.7
11539.6
2819.07
4854.02
1317.53
9374.8
1336.48
2653.33
2494.42
16464.6
15132.9
14435.5
9192.59
14717.5
10402.3
3191.89
4099.64
79405.3
108698
1823.46
8415.03
185641
150544
106385
76447.9
102536
173172
125614
136024
74350.4
94672.9
98629.8
64247
54076.1
52652.8
46885.1
52729.9
47707.3
49089.4
53893.4
48442
50946.1
57373
50577
73143.9
55537.8
57050.9
56682.9
49656.6
50150.3
141325
122201
111999
78461.9
65102.9
82555.4
90669.6
67534.5
86627.2
202472
162027
175216
136334
164843
202205
147256
161304
128012
144940
154749
50719.6
57775.8
55171.9
60257.5
79808.3
64111
72398.5
85495.2
68157
91345.9
110650
86311.4
55371.5
60499
63354.3
104007
76836.9
81475.4
161121
142490
129103
108695
97369
117294
135423
104622
126204
75739.7
70971
62261.3
46209.8
43822.2
50084.5
58029.5
46583.6
54028
45969.2
48602.7
44959.2
51693.2
44195.7
45651.7
47028.6
42650.5
43852.7
102918
73821.1
83004.4
74355.7
57424.5
70247.9
62073.9
54762.1
66150.5
36890.8
39892.1
38470.7
44999.7
42698.2
41151.4
41791.2
41352.6
39958.7
82737.8
114931
81470.6
76973.3
66729.4
51711.5
49548.9
57652.4
70562.3
54523.8
63935.4
56592.4
64210.1
53107.1
42949
41615.2
43679.5
59495.4
46651.8
49796.4
113656
80664.3
91756.3
100414
77292.2
92455.2
77525.4
71169.2
84824.8
35535.6
42974.3
38118
38032.2
39606.6
37640
46763.9
43664.7
40823
46993.1
26702.5
42417.4
35558
38718.6
45362.4
32392.2
39214.9
32835.2
31648.1
35126.4
27460.3
28516.9
26420.6
21213.2
22742.3
23438.4
27681.2
25035.5
25596.4
35220.3
33821.6
33461.5
34177.9
30537.9
32484.6
31690.8
29689.1
31617.5
26168.4
30396.3
24335.8
19056.9
22253.3
21993.3
28294.7
24843.8
25072.8
47918.9
26603.2
46113
36310.1
40859.7
46947.7
32418.3
39839.4
32444.7
31391.2
35952.2
23333.2
24327.6
22398
17765.7
19477.1
19828.2
24026.4
21875.5
21911.2
33065.2
32859.7
30691.7
29135.8
26237.6
28133.9
29872.5
26186.6
28404.1
25991.3
30063.6
23656.3
16551.2
19505.7
19762.6
27173.6
22386.4
23299.6
2025.54
5891.15
3245.14
2921.56
3584.6
2956.12
6518.3
5471.38
4518.93
18928.6
15694.9
16593.4
15522.3
12552.1
14970.7
13310.4
11830.1
14221.5
8679.43
6803.38
10362.5
16270
14723.8
13624.4
8744.55
12296.1
11119.4
3011.79
4090.11
4531.75
7988.76
10101.2
7640.17
6313.21
9427.75
7063
1514.87
7824.62
1549.29
5028.01
2837.24
2960.95
3134.39
2601.69
4860.03
4266.54
3420.59
15714
12825.4
13666.8
13020
10313.7
12383.8
10739
9584.55
11621.7
7686.26
5877.38
9179.18
13650
12015.1
11045.3
6655.09
9833.29
8717.91
3356.83
3528.4
3875.25
6545.85
8224.99
6181.29
4979.48
7563.76
5649.85
67885
122171
1398.78
13402
201210
136135
145775
187204
165681
171273
105793
128155
113442
114158
117097
118047
102705
220678
145666
231903
220785
206051
234602
147590
144587
129956
144968
134937
150771
141806
57970.3
64979.9
58755.1
57643.8
61869.8
60774.3
55205.9
96524.4
115338
109795
110288
106169
99608.2
106460
70262.3
129957
67911.9
69068.2
61156.9
66063.7
64797.4
70180.5
63893.6
130532
128754
125041
139258
136112
120201
133648
57062.8
19532.9
49780.8
55687.2
54562.1
54836.4
52470
52673.4
51549.6
19803.2
19342.8
17709.3
17283.7
19675.3
19170.6
17979.8
58644.2
19183.7
56190.3
57602.8
62055.5
57549.5
59981.2
54141.1
58162
17798.2
18743
16374.4
16183.5
18365.3
18365.8
15719.8
1750.01
1338.79
1416.27
1792.06
1482.59
1819.54
1763.48
14565.5
13482.4
15837.9
15483.7
14065.3
16229.3
13784.3
1350.83
12892.9
1707.57
1260.36
1749.11
1358.36
1779.49
1347.49
1704.4
11946.8
12614.3
14493.5
14130.4
13767
12730.2
12213.3
3132.13
2748.8
2935.14
3099.8
87441.1
100004
2933.52
5777.38
175418
160369
130539
163929
143123
146209
146869
127469
150326
121289
150274
139372
142100
135628
124379
138022
190606
173267
197570
190125
171864
194068
177401
200610
190989
178094
172512
166382
187608
160966
181239
184488
72337.5
83221.8
81563.8
80826.3
78174
75295.2
77350
81274.6
94878.9
84987.2
84358
88438.5
78280.3
87922.9
91502.5
105306
89760
90210.8
88580.1
97229.6
84391.7
92448.8
94467.9
104222
104012
92851.4
102121
97200.6
107113
99295.4
40716.6
32009
37061.9
39442.5
35910.6
34951.1
38535.4
34684.9
37526.4
30094.1
31205.8
33353.7
32441.7
30868.6
32357
30015
41279.5
32133.7
38984.3
40405.2
35447.1
37238.3
38307.9
40427.9
35907.5
30107.7
31413.3
32682.7
34165.5
30021.4
31216.6
32944.8
4499.06
3240.78
4744.59
4834.2
3863.21
5447.22
3981.32
2865.71
3269.19
3230.27
3035.86
2989.35
3059.03
3018.77
7605.95
6107.68
5737.98
5795.69
6845.6
6486.86
6858.7
3077.85
3271.55
3193.44
2998.64
2990.75
3303.14
2912.1
2450.44
5183
2509.12
2463.55
3920.38
2908.93
3196.46
2244.05
3134.32
3078.13
3393.91
3269.57
3547.52
3079.43
3254.91
3387.11
4897.14
5122.92
4785.22
3756.67
5782.01
4775.91
3933.43
3435.66
3537.38
3252.82
3645.96
3383.61
3329.6
3685.42
71648.5
117622
1375.92
11607.3
195989
140889
91614.7
92611.1
142747
182504
158159
162842
161916
167041
139719
93733.2
64927.4
59100.1
65971.8
58064
68149.7
66480.4
70340.5
72152.1
62629.6
55671.3
61686.7
56608.8
87570.8
74066.4
75846.3
85755.4
100541
103390
90973.1
80222.7
92980
78265
97263.9
94605.5
79834.4
78322.5
108896
132507
124473
125947
120775
121985
111994
75188.9
76784.6
214554
151050
207929
214903
224853
214529
194414
220760
200199
227639
217903
229348
222148
59220.9
69844.5
61037.3
67662.9
52167.1
51278.4
54614
55576.4
56836.1
62535.3
55159.3
64576.8
86973.9
98749.5
101679
84321
80592.5
82095.7
90348.7
109153
93183.6
106079
76901.6
75503.8
149398
143585
153490
150021
145138
162674
140000
156676
159486
132123
137692
52416.7
50497.3
60780.6
68500.2
68259.2
67235.2
65038.6
63977.9
63623.1
46788
48711.6
56712.2
51416.6
52214.3
55916.1
62904.5
64441.5
61005.2
59582.7
58693.5
54323.3
59549.7
53466.8
68541.3
70277.3
93444.7
111149
98998.6
98922.8
102568
102664
90387.3
73591.3
71920.9
44164.1
43026.4
42260.4
44919.4
44446.6
43361.5
45778.9
46877.9
42816.3
40448.4
42024.2
41248.7
74326.5
124867
69385.4
65509.4
72054.2
73103.8
72366.8
78753.8
68535.4
74411.5
76306.6
57958.3
61591.8
49328
53328.6
55103.6
47910.3
48179.7
49014.5
51401
59670
52939.1
57764.8
46091.9
45301.5
110644
115731
125048
123636
110762
122726
115438
128133
119686
126474
121140
33895.8
36896.4
35653.5
34901.1
32121.7
31398.7
32577.9
32868.9
31611.3
34041.3
33425.8
34144
53619.1
21810.2
39429.2
41328.4
47134.4
51598.8
46829.4
45730.5
49718
48599.3
44544.2
45009
43091.2
26297.6
27026.5
27522.2
25814.1
25440.6
24123.4
26656.7
27925.4
25100.1
23382.9
23814.7
24652.8
38637.4
36663.4
37560
37742
40993.3
42076.7
39889.4
39432.2
40730.3
38586.7
39742.5
38647.1
23919.3
22252
21714.8
21515.1
23897
23243
21739.5
21161.4
23703.9
19163.3
20754.9
54965.9
21531.3
44306.4
47466.2
52508.5
53911.3
47514.8
50718.5
50776.6
54379.9
48954.7
54288.2
50888.2
17867.3
18497.3
18811.8
17529.8
17349.2
16398.3
18244.4
19170.7
16992.3
15647
16026.1
16623.4
28303.2
27875
28938.4
27386.4
29433.6
30178.3
29453.6
31398.5
30387.5
30287.9
28287.3
27520.7
20609.7
18614.6
20007.1
21034.1
22696
23121.3
20472.5
20676.4
22341.5
14907.4
16676.6
3145.46
2438.96
1899.55
1428.45
1972.2
2192.99
1633.42
1913.91
2314.94
1959.1
2317.2
2446.03
2433.91
2145.66
2080.79
2247.02
2251.41
2131.14
20062.6
18306.3
19672.5
18675.1
21543.3
22902.2
20318.2
18921
21268.9
22200.3
22612.2
20874.5
13459.2
14890.1
12991.2
11756.9
10843.1
10700
12397.1
12186.3
11512.7
17748.1
16234.2
5009.87
6505.59
4835.87
6762.31
3239.53
1704.96
5062.95
6868.34
3262.61
2056.8
1872.49
3213.66
1252.83
11063.5
2174.87
2156.64
1663.13
1261.8
1931.52
1333.62
1806.52
1308.72
1667.06
2006.52
2265.71
2438.31
2530.21
2117.79
2098.61
2329.67
2433.06
2306.32
13351.9
11950.2
12950
12346.7
14539.2
15521.9
14190.9
14777.3
15174
13793.3
13680.9
12677.5
8848.25
10183
10255.5
10835.5
9574.52
8797.95
11089.9
10435.1
8704.69
13201.6
11649.3
3629.56
4190.43
3582.1
4372.07
3303.81
2985.04
3168.72
3475.51
3149.82
3303.93
3353.57
3304.23
3341.88
3423.27
3634.34
3506.86
3447.23
3646.72
4467.53
83385.8
104319
2299.23
7022.37
180510
155433
63911.1
77620
78076.6
64304.7
54846.8
48345.4
64304.3
78588.7
55223.4
48966.7
55443.2
47655.8
90415.1
89306.8
133611
168538
154393
158647
136667
150628
154480
86817.6
88035.9
64058.4
77003.3
63837.3
76421.1
55913.1
49786.7
48831.9
55917.6
55801.7
48317.9
55685.2
49453.9
63516
75004.3
75707.9
63572
69614.8
60685.3
68448.3
61839.7
79004.3
81135.8
72271.1
64854.3
63565
73575.9
76473.5
74510.5
49391.7
54137.6
53967.3
49704.1
46721.4
47233.9
47287.4
47099.7
47740.3
47524.9
47261.5
47554.1
48655.9
52160.8
52307.9
48361
50835.9
55948.8
56161.2
50487.3
48981.2
47618.1
48352.2
47781.7
51689
58419.8
58133.4
52096.1
47793.7
47734
48357
47631.2
57106.1
66308.7
66953.3
56377.4
52451.3
47024
51828.8
47269.9
58454.6
70489.4
69674.3
59331.8
50669.4
47428.8
47178.2
51338.5
80908.3
71833.7
82541.2
70233.2
86146.5
83844
77882.1
66738.7
76418.1
68177.8
89040.4
91521.2
54587.2
63782.7
55185.2
63279.5
48983
47727.5
47515
49654.8
50424.5
47354
47595.7
49738
53529.6
60568.1
53040.8
60946.8
81315.5
82734.3
118191
145781
128183
129948
115099
131898
133964
85470.8
84147.9
60705.6
70522
69474.5
61121.8
54451.9
49278.6
49029.8
54020.8
54839.2
49272.7
49693.7
55163.1
59869.2
67248.6
68395.4
59316.3
62151.9
71519.8
72456.5
61885.5
55794.6
49168.6
55901.3
49944.7
62843.1
74188
62954.9
73363.7
55647.9
49917.2
49320.5
55432
196510
167610
193667
200919
207883
187000
189819
180449
196443
174337
200210
222092
214911
207096
183556
162542
177135
168423
200900
194149
204258
196131
188682
213959
211031
183011
207243
180818
187335
174244
194120
180675
187387
159120
140263
145685
153117
164894
156837
171115
151181
168142
174308
180816
161936
65557.8
73137.8
63585.1
75473.2
62094.6
63207.1
68273.7
81467.3
78987.1
70405.2
59249
58215
84524.7
77257.7
74388.3
87884.7
88124.6
94157.9
98352.3
84493.1
92057.4
107046
95899.4
102640
80821.1
68529.9
71198.6
77649.6
95360
80633.9
83693.1
91813.9
108464
125787
112750
120962
99516
90534.1
87267.5
103252
104114
111571
100041
116189
129397
109508
113374
125128
146406
168556
151573
162943
134476
121771
117690
138924
141243
151786
157218
136290
78633.8
94570.8
81111.4
91791.5
67463.8
66258.5
75589.4
85200.3
73281.9
87832.4
70724.3
72028.8
116180
105374
120270
101702
121826
130790
135827
117317
126593
146304
141076
131320
111554
94291.2
107645
97753.1
155525
161575
171786
166778
150344
168770
165592
155617
174954
174228
167938
127834
143723
137931
133313
115771
101160
105643
110670
120568
114970
110244
125902
122660
126772
132324
117415
144452
149572
155610
138727
141796
134993
147578
129796
150099
167977
156059
161704
136505
119790
124747
130948
54199.9
56103.3
69401.5
79447.9
71523.4
70556
66502.5
74825.1
73919.7
59751.5
57873.5
44777.2
49324.4
47710
46050.6
41859.2
39340.6
40175.8
40748.1
42935.8
41880.9
43982.9
41152
43534.1
44561.3
46204.3
42201
48463.3
50805.9
52382.1
47263.8
46931.9
44829.4
47832
44337.9
49639.6
55359
53830.9
50758.9
45979.7
42821.4
45003
43437.3
46661.1
48892.1
49062.4
46338.3
46402.6
46893.7
46135.7
46756
47353
50627.2
50478.7
47654.7
45476.5
46115.9
45627.7
46344.6
53325.2
50239
54076.8
49482.9
54836.7
53592.7
56490.5
57815.2
51613.8
47631.7
48366.6
50886.6
45285.7
47569
45645.6
47359.9
43862.3
44328
44743.6
43764.8
44751.5
45627
44725.1
45306.7
44579.7
45852.7
46118
44173.5
66853.4
65061.8
84296.6
98872.4
95448.5
95209.6
87331.5
91926.7
91546.7
61502.6
63340.7
56755.6
62287.7
63612.9
55947.1
52987.2
48577.6
53522.2
48666.3
57723
66085.1
64844.6
58410.8
52382.3
47860.3
47930.3
51750.3
53997
60989.2
59588.2
54918.8
49525.9
45688.8
48710.7
46049.4
52914.4
56765.6
51891.7
58233.3
50320
47083.2
46866.1
51046.4
40298.9
41706.4
41214.9
40901.6
39114.7
38798.9
39572.6
38533.6
40039.9
41101.3
40412.3
40506.4
39468.9
39559.7
40142.3
38792.5
47067.1
44048.8
46335.9
44787.8
50863.8
52042.9
49398.8
48268.1
48566.9
46559.1
49287.6
45829.1
42223.3
42802.7
41693.6
43211.7
42653.6
43692
43183.5
42876.9
41758.8
41876.9
42475.7
41414.3
42980.4
44672.6
43445.5
44341.7
87071.1
110077
73552.9
77668.3
85157.2
85792.2
76287.5
83210.1
80680.6
80292.7
87770.6
86449.9
82087.5
57969
66335.5
62505.9
61513.4
51727.3
44824.3
47517.2
48499
54640.6
53228.9
58103.5
50321.8
54691.6
55296.8
58885.5
51375.1
68812
70201.4
74279.7
65024.9
68301.5
65946.1
72228.3
62602.3
72560.3
82715.1
78392.4
76582.1
64930.6
56246.1
61240.9
59366.6
67934.6
57931.1
60235.1
65124.9
77366.8
90107.6
80777.4
86127.8
71182
65534.5
63043.6
74178
73861.2
78540.6
70654.6
82309.1
44681.9
50867.9
45991
49219.7
40848.3
40120.6
42900.7
45412.4
46946.4
41685.1
42620.8
43380.1
59462.2
55310.9
62092.5
53170.5
61282.6
64706.5
68053.1
58490.1
64372.1
74959.9
67361.5
71403.1
56643.6
48762.4
50733.8
54187.1
105482
100635
109269
108788
106160
117418
114419
101639
112214
91117.1
95718.4
102782
105935
110998
98027.2
101246
96789.6
106111
92530.2
107484
121416
116110
112477
96929.9
84369.7
88390.5
92297.6
89059.4
101075
96261.1
93567.2
79990.7
69409.3
75826.2
72972.4
84836.8
87077.8
80566.3
91648.4
83824.6
80455.4
76659.3
88224.7
40573.9
38986.2
37433
42545.3
40941.8
42160.1
44698.1
38890.5
43232.3
49908.4
47179.9
45452.7
38544.3
34231.2
35662.2
36719.8
37379.5
38649.8
36317.7
39983.6
37766.5
38482.8
38908.5
43325.8
40038.3
41897
36254.3
35543
46883.4
40909.8
44756
42586.8
53016.8
61576.3
58440.9
55611.1
50339.2
52600.9
55535.9
47933.2
49288.2
46501.9
51580.8
44676.5
43805.7
29302.8
38266.9
38188.4
39855.7
36842.5
38455.5
38329.4
39622.6
37400.7
39548.7
43041.7
41381.7
40934.3
37290.7
35339.9
36073.2
36355.9
37694
35821.3
39502
42360
43999.3
42920.9
41995.9
41231.7
40187.9
32280.2
34115.4
34092.6
36668.1
35550.1
35002.5
32394.9
30915.9
32080.4
31096.4
33616.1
34270
34876.9
33177
32797.8
31832.7
33491.2
31316.3
29868.8
28163.1
28711.4
29308.5
31561.3
32742.3
31056.5
31503.8
30420.6
32147.5
30359.7
29132.1
24937.8
26597
25403.7
26139.4
23385.1
21611.9
22910
22097.5
24514.5
25337.2
25743.1
24084.1
23794.2
22986.9
24254
22528.7
28387.2
27721.5
28842.2
27253.6
29084.3
29941.6
30160.2
28800.1
29464.1
30979.6
29945.7
30527.6
28002
26481.4
26849.3
27682.1
36252.1
36004.3
36771.1
35420.7
36893.4
37901.1
37585.7
37043.9
37166.5
38499.2
37828.4
37920.1
35920.9
35158.2
36091.8
35124.2
35562.5
35622.4
36519.4
34665.4
35094.8
33947.3
34359.4
32587.4
33338.4
33605.2
36307.2
37420.9
33552.9
34943
34463.3
34088.3
32203.3
31026.4
32103.6
31213.8
33228.7
34157.8
33150
34125.5
32554.8
32066.1
31567.2
33015.7
25474.8
27210.1
27893.8
28637.9
26137.9
25416.4
25766.2
28461.4
27668.8
30617.7
28825.9
22967.5
24196.1
22621.6
24466.7
22050.3
21159.1
22519.3
20662.6
23296.1
25004.9
23684
24672.4
21715.3
19696.7
21230.6
20224.5
27239.1
25624.5
27237.8
25738.9
28525.5
29797.1
29857.2
28572.3
28524.8
30343.9
30022
28702.7
27278.1
26155
27434
25923.4
44542.6
29307.7
42425.5
42324.9
45434.5
39569.4
42798.9
42234.3
45800.9
39740.3
45248.3
51918.6
48572
48327.3
40314.3
35066.7
37539.1
37361.3
41129.6
38203
42189.2
43620.5
44345.4
47168.9
45509.9
41275
43737.5
32587.7
35276.9
34345.7
39425.4
36973.8
36556
30635.4
26871.4
28795.4
28293.8
32706.1
32886
35264.8
30780.1
31969.9
31259.3
33894.5
29558.2
20642.4
19443.3
19713.2
20415.2
21935.9
22796.5
21577.8
22395.1
21415.7
22493.4
20981.4
20091.5
17118.8
18312.6
17301.3
18251.2
15978.7
14637.9
15926.7
14854.5
17068.2
18457.6
18249.2
17062.5
16130.6
15363.2
16360.2
15044.7
20503.6
19314.6
20340.2
19314.3
22014.7
24308.3
23374.1
22644.3
21663.5
22482.4
21416
22927.8
20704.9
19720.9
19439
21241.7
31491.8
28540.7
29781
29927
34901.9
39881.2
36789.5
37538.5
33178.9
32606
31271.8
34870.2
32977.3
33288.1
35451.9
31238.8
25399.7
26633.1
26307.9
25611.3
24609.6
23784.9
24377.8
23464
23466.1
24461.9
25639.9
26438.1
26943.6
27173.8
28392.3
26002
26293.8
25862.6
27684.2
24822.2
27890.1
31389.3
29405.6
29484.9
25546.6
23639.8
24196.7
24747.5
22796.8
25017.2
27390.9
28643
25031.5
25695.8
24808
27470.2
28390.7
29906.2
27448.8
17758.7
20105.1
18158.9
19543.9
16086.1
14593.9
15920.5
14526.5
17430.6
18669.1
17212.9
19166.7
16219.3
14691.5
16421.1
14618.2
23265.4
22069.3
24239.5
21279.8
24289
25077.9
26417.7
23321.8
25209.6
28831.8
27401.8
26431.2
22599.9
20115.2
21708.6
20673.9
3991.29
5037.41
3648.88
2557.34
2460.85
2645.95
2913.22
3097.53
3245.63
7256.3
6069.84
3057.07
3494.23
2701.42
4006.16
2766.39
3133.18
2685.21
2722.55
2500.93
2989.78
2911.91
2723.62
2700.09
2881.95
2698.52
3335.55
4841.5
4350.53
3673.81
2588.91
2458.22
2341.47
2629.46
6163.59
4395.45
5533.07
4937.68
7694.46
9685.6
9046.59
8292.6
7216.4
7866.36
6596.42
8573.32
6598.66
5880.36
5343.83
7189.51
18852.2
17943.5
19321
17490.5
19603.2
20427.2
20945.9
19084.8
20041.2
21825.1
20500.4
21358.5
18436.8
16513.9
17052.8
17887.6
16049.4
17101.1
17468.2
15697.5
15056.9
13615.1
16273.8
17695.3
14850.1
13075.7
14495.2
13409
14897.3
16759.8
16289.5
15352.6
13290.3
11315.9
12717.9
11866.1
14463
15315.4
15879.5
13918.4
13699.7
12734.9
14165.9
12287.4
12199.5
10847.2
8815.99
7327.43
9399.04
9312.27
10120.1
8063.86
8031.7
8375.75
9652.19
16318.1
14151.3
15586.6
14860.4
18026.1
19991.2
19422.6
18602.7
17520.6
18362.7
16875.9
18997.1
16801.8
16014.2
17426.4
15399.5
12247.9
12918.2
11530.5
13684.1
11599.8
10830.8
10209.4
12256.4
11096.5
8999.19
9689.13
10339.9
12788.6
14845
13421.9
14189.3
4448.79
6284.82
4690.51
5925.24
3084.22
2644.37
2963.96
2552.9
4232.09
5182.01
3931.01
5631.2
3128.43
2241.13
3200.25
2410.89
9558.07
7788.52
8060.91
9243.41
10929.3
12404
9716.68
8200.72
10746.9
11881.2
12220.7
10434.5
8519.47
7516.25
7127.94
8960.24
9279.57
10139.7
8745.38
10701.4
8147.52
6283.66
7611.09
6773.45
9684.09
11564.5
11101
10121
1895.94
6423.33
2317.71
2690.35
2061.38
1920.47
2202.84
1472.95
1788.59
2622.63
1770.27
3831.26
3160.77
2560.94
2356.05
2346.67
2616.38
2911.28
3218.34
2678.87
2880.51
2621.09
2993.3
3166.48
2956.54
3490.32
3165.77
3290.5
2748.8
3107.98
2810.4
2944.04
2784.78
2775.83
2542.42
3055.01
3356.89
2528.01
2947.45
2824.29
4212.4
5523.06
5040.88
4655.44
3883.01
4157.13
3441.41
4684.01
3645.01
3426.42
3095.29
4066.34
12189.4
11608.4
12605.7
11155.2
12782.4
13602.1
13857.1
12409.3
13064.8
14464.6
13466.3
14122.2
11855.4
10343.3
10812.2
11461.5
10497.8
11122.1
11522.2
10115.9
9963.87
8914.95
9680.4
8281.5
9299.83
8637.08
10799.1
11831.9
9302.66
10775.2
10319.7
9767.82
8117.72
6625.49
7611.3
7132.7
8935.8
9467.56
9945.49
8417.8
8495.78
7957.79
8962.39
7503.12
7608.87
6487.18
6019.81
6328.34
8178.9
7301.37
7288.07
6914.42
5959.57
4586.41
5489.15
10655.4
9000.62
10322.1
9387.24
11936.9
13436.6
13334.4
12213.5
11838.9
13161.9
11642.6
13263.9
10875.8
10051.8
11180.5
9626.04
7248.31
7875.36
6751.14
8366.08
6739.82
6261.44
5754.1
7228.83
6377
4892.07
5400.87
5822.83
7570.99
9117.47
8066.08
8688.35
3393.43
4051.44
3515.25
3786.21
3421.61
3469.98
3340.04
3599.41
3455.57
3285.77
3667.26
3408.08
3626.36
3265.6
3711.64
3276.8
3294.22
3094.16
3606.35
3435.6
3716.27
3499.46
3737.32
6016.04
4824.12
5040.79
5726.33
7015.39
8082.52
6785.51
7483.14
7831.09
6477.48
6209.7
5210.09
5091.11
4606.56
4298.06
5470.76
5453.26
5882.13
4997.85
6379.49
4795.58
3689.36
4365.66
4036.5
5785.79
7176.16
6734.99
6186.5
2873.67
2348.04
2857.28
1925.05
2973.83
2593.22
3072.45
2385.55
3061.55
2154.73
2969.15
3023.19
3166.28
3238.62
2593.03
3053.72
3193.97
2774.17
124913
146606
157109
109003
122640
105543
143038
149500
153282
107059
120335
93718.9
105483
102102
82409.7
108998
91209
84338.3
96211
88376.9
116149
105334
112572
98701.7
86504.2
223310
222099
176108
230301
191351
215249
216368
201811
171025
180561
185920
208464
209572
140968
120886
115984
129662
125489
135383
135075
146711
146269
134924
120383
130174
152520
140633
53779.3
54180.5
54184.6
48476
57022.9
51391.4
50539.9
56188.8
54759.9
62897.8
56752.8
59942.9
58627.7
52679
86171.6
101969
80220.4
92334.5
88698
98508.8
78244.8
83651.3
74027.8
91675
89239.9
95060
81122.8
76042.2
64407.5
57411.1
56992.9
57874.6
60761.3
60604.9
61502.6
68360.8
69120.4
67732.8
60212.3
64204.8
72400.8
65260.6
124472
116340
124324
103696
129854
111869
119120
119163
109024
103150
99562.9
107467
114008
114002
46692.1
51370.8
46375.9
46336.1
49029.5
48634.6
44336
44394
40283.3
43980.6
43335.1
45943.4
42284.8
42127.7
20075.6
17309.5
19118
18674.3
19049.7
18399.7
20270.5
21817.4
23559.8
22793.7
20713.8
20884.9
23623.8
21870.2
53299.1
54139.4
54343.5
48115.5
56881.9
50955.4
50936.3
49809
44458.7
45229.4
44863.6
47861.2
47635.6
46463.9
17275.8
16257.3
18017
15211.6
18090.9
15353.2
17023.2
19334.9
20974.6
22072.3
19805.2
20029
21502.7
18935.5
2154.09
2969.8
2491.06
2334.78
2174.63
2680.08
2389.11
15229.4
15640.3
17182.2
14314.4
16782.8
14059.8
15675.7
13748.4
12879.4
11157.9
12997.5
12562
12334.3
14285
1939.27
2201.44
2236.63
2267.43
2081.2
1960.13
2167.54
11848.6
14522.9
13522
13179.2
13536
12890.5
11929.6
10276.4
9099.16
9951.67
11769.8
11367.7
8839.72
10470
113301
134479
98256
129075
99928.4
110909
138191
115664
103554
145705
132541
118016
101959
141951
106072
130757
96182.6
118762
108504
94437.8
127080
103633
90518.6
119777
115405
101171
92329.2
123402
189639
159665
151783
176114
164791
182369
183231
196202
195222
175244
156657
202816
169991
188761
170643
154585
138060
169924
149574
176864
163866
164481
152037
139744
133411
158473
144619
157883
66032.1
75245.3
63289.1
67954.5
61206.4
68534.7
72095.6
63550.7
56929.1
65921.7
65191.3
61079.3
59015.3
68972.2
73555.5
78458.4
65494.9
76909.6
71039.6
67561.8
81688.2
76071
71817
88299.8
79844.6
78600
69771.9
84984.3
85258.3
82676.7
73547.4
85720.9
78816
81405.8
89755.1
80844.5
73106
71345.7
70005.4
76583.8
75035.1
77189.3
99107.9
86617.4
84218.2
90163.2
90628.4
94396.2
94697.1
103975
104129
98899
88061.1
108918
94726.1
99368
35554.6
33505.1
32499.2
34679.7
34402
33447.5
35851.6
37703.5
38290.6
40770.4
36798.6
39899.3
36332.4
38283.7
29361.7
31210
30641.8
28230.1
31382.8
28797.8
28996.3
27396.7
25248.2
24788.2
26363.4
25482.2
27019
26847.5
37064
33777.3
34778.7
32870.2
36404
35591.1
34186
40086.1
41384.7
41950.3
37311.8
43205.3
39129.6
38432.4
28752.2
31239.1
27857.9
30257.7
28796.5
31400.9
27761.4
26208.1
23121.1
24216
25690.6
23805.7
26454.6
25384.3
5204.82
5386.8
6786.35
4843.85
5664.28
6236.22
4485.24
4255.17
3725.57
3008.93
4082.2
3399.75
4689.71
3686.45
8485.06
6372.5
7873.51
7991.87
7330.54
9096.25
7440.7
9700.91
11597.6
9833.23
9036.7
10987.3
10283.2
8594.04
2916.39
4471.75
4134.76
4000.4
3702.66
3303.16
3554.66
2432.86
2391.7
2568.73
3493.39
2118.38
3065.87
2799.35
5261.51
5349.54
6931.74
4771.66
6338.33
4340.56
5700.8
6326.24
7860.07
8639.3
7965.96
7515.24
7432.7
6707.56
)
;

boundaryField
{
    left
    {
        type            calculated;
        value           nonuniform List<scalar> 0();
    }
    bottom
    {
        type            calculated;
        value           nonuniform List<scalar> 0();
    }
    interface
    {
        type            calculated;
        value           nonuniform List<scalar> 
2120
(
64180.9
126789
1320.05
15249.8
131446
140504
66295.3
135255
60569
17297.8
62413.9
16866.3
1355.46
1263.51
14763.5
1329.43
91565.2
95755.8
3635.42
4583.26
170376
165359
184999
179207
96076.8
100688
37674
34767
38069.2
35013.2
3294.26
3282.67
3075.04
3986.98
3478.29
3521.23
75478.8
113140
1425.81
9857.1
190801
145707
208763
156678
78507.3
119963
50229.4
24138.5
51362.1
23925.6
2651.78
2685.11
1207.41
9265.07
2637.18
3109.97
79394.8
108703
1722.25
8324.08
185642
150555
202736
162210
82764.9
115022
46954.2
26639.7
47880.3
26523.8
2913.24
2902.96
1403.09
7712.58
2952.67
3286.94
67865.8
122180
1335.51
13319.7
201204
136146
145393
165405
105614
102537
220976
145817
232584
147909
151107
142102
57912.4
58736.8
61849.9
55152.3
96377.8
99452.3
70266.8
130077
67949.5
63919.2
130784
139554
136387
133923
57034.5
19459.6
49732.4
55670.8
52419.5
52658.7
19766.2
17942.6
58626.2
19091.9
56192.7
59996.7
17711.2
16127.3
18314.2
15630
1720.01
1339.75
1764.35
1721.03
1728.22
14527
15813.8
14037.8
16190.9
1274.65
12790.1
1679.95
1720.87
1300.34
1654.61
1633.3
11852.5
14070.7
13676.1
12150.3
2629.21
3040.25
87435.9
100005
2834.72
5682.97
175424
160379
130246
142932
146667
127193
121043
124119
190846
173472
198098
194569
201136
191489
178537
184961
72255.1
78138.3
75207.4
81172.1
78185.7
91547
105378
89865.9
97386.7
92588
94592
104378
107300
99434.6
40671.1
31953.7
37023.1
38523.6
34648
30057.7
33341.8
30856.3
32320.8
41228.6
32065.3
38941.5
37227.5
40424.5
35857
30043.3
31191
32888.6
4461.22
5408.92
3251.3
2976.84
2977.98
7566.81
6448.32
3207.31
2916.18
2797.82
2333.26
5066.72
2460.11
2167.86
3068.43
3381.78
3542.26
3389.88
4810.85
3854.62
3495.82
3640.93
3671.37
71632
117629
1289.95
11520.7
195986
140900
142384
139375
64850.3
68384
70696.8
62548.9
87536.5
101245
91035.5
97793.4
79563.5
108704
124342
120655
111791
214841
151211
208979
225503
221368
228274
218522
230510
59706.7
52036.2
54497
57246.8
87836.6
80397.2
91382.7
76686.8
150052
153831
159855
60718.8
65016.8
63558.1
46804.5
56636.8
63169.1
61168.9
58604.1
93308.5
98927.9
102491
90261
44099
44482.9
45859.7
42776.5
74337.7
124978
69593
72103.4
74497.8
76371.8
49625.4
48090.1
51749
45992.7
125280
119898
126991
33981.7
32095.7
32652.2
33403
53586.6
21740.2
47088.8
49704.5
44501.7
44975.7
26284.4
25438.6
26661.4
25093.6
38609.7
41041
39840.1
39759.8
23919.5
21678.2
23668.7
19188.8
54941.3
21443.5
44376
52501.7
54412.7
48938.5
17866.3
17350.9
18246.4
16987.1
28340.2
29423.3
29496.8
28275.3
19923.4
22263.8
14874.3
1864.88
1906.63
1571.98
2278.22
1962.77
2293.59
2417.21
2095.33
2056.23
2246.08
2211.61
20058.8
21544.3
20315.5
21262
12951.9
10812.5
12367.3
11473.5
5005.67
3224.65
949.674
5056.95
3253.18
1592.69
1269.97
1164.21
10957.5
1651.81
1273.69
1257.62
1658.81
1997.95
2241.69
2521.63
2052.69
2064.27
2413.37
13345.3
14540
14189.5
13681.9
8809.6
10160.6
8728.32
10369.3
8610.24
3626.95
2882.87
3436.3
3254.13
3293.44
3320.45
3407.9
3623.65
3488.92
3645.4
83377.8
104322
2197.24
6929.31
180514
155444
63778.1
54307.7
64292.6
54554.6
133301
136342
150412
64082.5
55337.6
55307.4
63426.7
69538.8
79465.1
72221.8
76793.4
49542.2
46648.3
47684.7
48689.7
50948.9
48900
51962.9
47686.2
57496.5
52337.5
59098.7
50485.5
80906.2
86564.7
77820.2
89617.8
55025.6
48837.1
50321.5
53761.2
117960
128041
114882
131746
60779.5
54054.1
54460.4
59842.1
62097.7
55355.8
62895.8
55163.9
196760
167805
194552
189811
201327
183294
204814
211620
207795
181682
175196
158843
164877
168885
66102.5
61948.8
68919.9
59087.6
84402.4
88653.9
92739.5
80560.3
95080.7
109297
99389.6
104764
129109
147584
134353
142171
79464.9
67272.8
76283.9
70552.6
116052
122610
127592
111268
172204
165985
128495
115494
120537
123151
145063
141769
150899
136225
54193
69325.5
66432.7
44866.3
41725.6
42781.5
43546.3
48473.7
46727.8
49734
45793.6
46647.4
46371.6
47419.6
45431.3
53236.8
54944.5
56678.6
51548
45299.6
43838
44741.4
44542.3
84186.4
87214.3
91870.4
61461.2
56747.2
52669.2
57810.4
52063.6
54091.1
49277.8
52918.4
50060.8
40271.7
39113.5
40056
39426.5
47014.4
50990.7
49464.5
48487.9
42178.5
42659.3
41748.8
42965.5
87107.8
110157
85249
80758.1
86745
58204.7
51535.9
54623.7
54830.1
69020.3
68276
72882.9
64710.4
67696.1
77913
71071.6
74281.4
44918.5
40777.7
43103.3
42557.8
59364.6
61606.4
64796.7
56435.7
109442
114614
112417
103167
101212
108019
96666.4
89481.8
79744.8
85127.2
83794.8
40512.2
41109.2
43459.4
38405.9
37508.6
37725.5
39057.6
36208.9
46708.3
53335.1
50578.5
49208.9
43763.7
29243.3
38276.8
38344.4
39627.9
37200.8
39462.2
43987.5
41955.1
41220.6
34159
32339
33541.9
32804.2
29857.6
31573.5
31034.1
30360
24925.8
23386.8
24531.5
23785
28370.3
29105.3
29445.2
28005.8
36217
36914.9
37137.3
35924.1
35527.7
35100.8
34341.1
36333
33527.5
32207.7
33251.5
32529
27857.9
25731.4