/*--------------------------------*- C++ -*----------------------------------*\
| =========                 |                                                 |
| \\      /  F ield         | OpenFOAM: The Open Source CFD Toolbox           |
|  \\    /   O peration     | Version:  2012                                  |
|   \\  /    A nd           | Website:  www.openfoam.com                      |
|    \\/     M anipulation  |                                                 |
\*---------------------------------------------------------------------------*/
FoamFile
{
    version     2.0;
    format      ascii;
    class       volScalarField;
    location    "0.104/solid";
    object      sigmaMax;
}
// * * * * * * * * * * * * * * * * * * * * * * * * * * * * * * * * * * * * * //

dimensions      [1 -1 -2 0 0 0 0];


internalField   nonuniform List<scalar> 
3125
(
1550.83
2036.86
760.916
1686.91
2089.19
48396.5
71037.1
2274.33
1864.63
28076.2
30019.6
1569.9
1847.69
45672.2
2237.52
29291.9
1399.55
1815.48
1474.61
27535.6
1543.58
21890.4
1539.17
1655.38
1828.62
14302.5
27254.4
1670.12
1394.81
1658.14
1477.18
12231.6
20838.5
1481.28
1027.05
12601.2
1661.08
757.362
1677.87
981.994
10893.9
1481.61
1711.01
1746.91
1794.77
1799.99
2600.79
2528.87
7203.34
2600.47
7735.1
57293.4
14006.2
14256.1
14336.4
60518.4
14301.9
2552.99
8233.4
7883.86
2393.12
2316.31
4866.79
1967.85
4703.37
29291.9
7618.87
7458.23
7425.59
29565
7420.05
1907.4
4821.09
4714.15
1996.5
8344.24
8461.73
13883.6
38130
13380.2
2024.29
8316.34
8455.58
12341.4
35804.2
13163.8
1509.72
1545.41
1471.77
5265.96
5100.52
7680.19
25505.8
7856.35
1469.53
4869.76
5039.56
7957.22
24696.4
7901.93
1479.39
1478.97
8252.72
1736.23
7778.82
19612.6
8408.52
10247.2
12003.3
21455.5
10753.1
1724.13
6517.16
7541.41
1457.87
1483.8
5307.96
1480.14
5347.74
16140.1
6620.12
7496.3
7934.53
17380.1
7669.76
1482
4972.25
5314.93
1528.5
3031.29
3570.52
7680.01
7740.94
5187.53
1562.86
6051.67
4251.22
3032.38
6220.95
4320.31
1762.37
1754.59
1448.88
3189.47
3149.19
6190.73
6906.02
4477
1454.97
4745.54
3630.11
3252.02
5614.94
3820.25
1595.95
1885.07
1646.62
1753.43
2916.22
2245.97
2787.9
3674.12
51237.1
33902.7
35456.9
46183.6
67385.9
44198.2
2379.29
3390.88
3054.17
2732.61
2023.47
2240.86
981.931
28548.2
18175
18206.4
17741.1
29927
17875.8
1686.15
1461.19
1881.12
1898.41
3342.73
3100.09
32397.9
43057.1
30938.2
2134.43
3027.68
3351.7
22800.1
31391.1
24107.4
1420.47
1669.74
1468.09
2101.64
2444.17
18103
26926.9
17984.3
1483.35
2029.11
1619.83
16154.7
22885.7
16605.6
1492.71
1533.14
3146.84
1779.87
3348.44
16037.5
12329
13662.7
21499.8
25272.7
20203.7
1685.15
3185.16
3197.22
1384.82
1581.78
2557.37
1472.88
2247.27
13557
10311
11248.6
15642.7
19733.7
15066.1
1478.36
2537.04
2791.29
1305.96
2398.67
1744.24
10985.9
10936.1
9641
1632.26
3081.97
2927.88
2416.91
3132.12
1672.5
1714.96
1369.51
2387.14
1858.91
9327.63
9554.04
8304.06
1469.82
2761.48
2466.76
2829.28
3143.76
1621.24
1846.72
1692.8
1773.4
2833.82
2311.44
3781.91
7394.6
3945.38
2736.48
3546.63
3223.3
7572.02
4256.84
4105.62
54201.4
38742.2
37068.8
22525.7
14108.8
23154.5
24419.6
14192.8
23785.5
27060
14342.1
26378
63881.2
40484.4
42301.1
14330.5
25061.3
25713.1
2420.39
3117.05
3451.47
4772.8
8132.75
4657.76
4399.76
8016.32
4533.21
2642.39
2097.07
3945.59
4756.68
3741.11
2169.84
1138.91
1544.4
4710.6
3466.93
3581.67
28953.6
18159.5
18199.7
11722.4
7558.53
11643.1
11459.7
7503.35
11554.5
11082.2
7397.66
11168.4
29776.3
18088
17992.7
7398.49
11361.6
11263.5
1731.36
1713.87
1287.25
3241.52
4776.67
3270.69
3377.53
4739.82
3313.74
1920.5
3060.19
3329.85
5300.61
8407.7
5277.26
5191.16
8446.67
5240.34
21895.3
13739.3
21261.5
40545.6
28128.2
29516.5
13572.3
19969.1
20619.9
2102.36
3333.86
3029.61
4877.78
8381.33
4971.77
5129.35
8428.16
5056.18
17214.5
12646.1
17931.2
33559.7
26767.2
25428.7
12919.9
19306.1
18628
1443.77
1632.4
1463.84
2319.38
1934.65
3295.49
5215.29
3268.4
3228.61
5158.69
3244.58
11789.1
7741.73
11838
26249.6
17598.5
17817.6
7800.98
11870.4
11866.5
1477.12
1776.97
2171.73
3220.12
4923.12
3209.96
3214.32
4980.18
3207.83
11554.2
7956.69
11692.1
23822.1
17326
16994.8
7936.85
11846.7
11787.9
1488.14
1492.6
5308.66
8130.51
5298.82
1764.69
3344.74
3189.78
7973.64
5218.59
5270.29
17807.6
16301.7
14987.4
10376.7
9077.68
11361
13209.6
9689.97
12305.7
16473.3
11628.4
15705.7
23341.4
17607.6
18907.4
11212.8
14076.4
14907.7
1693.68
3216.52
3293.76
4689.04
6915.68
4881.07
5139.45
7255.54
5028.3
1394.3
1558.7
3321.88
5338.75
3350.01
1475.01
2384.8
2658.7
5353.54
3401.53
3377.23
14863.3
12959.9
12133.4
8437.93
6977.41
9054.69
10082.7
7267.77
9603.03
11370.7
7882.79
11134.8
18579.8
13724
14427.2
7797.11
10495.3
10845.6
1476.25
2744.25
2483.77
3368.42
5136.43
3409.08
3417.58
5247.08
3422.05
1377.2
2287.4
1784.59
2660.57
2463.75
2007.5
2795.79
2926.96
2308.25
9353.01
6893.35
8295.61
9314.68
6984.74
8303.74
6057.77
6126.46
7215.23
1618.11
2440.25
2802.28
4442.92
5515.92
4132.38
3297.95
4912.25
3751.58
2641.01
2772.08
3017.55
4738.88
5699.94
4450.69
3493.32
5058.52
4029.92
1695.65
1724.43
1403.91
2237.21
1784.64
2689.87
2516.49
2069.33
2427.41
2700.47
2140.47
7754.19
5686.71
7005.91
8222.58
6185.28
7253.55
5112.83
5359.18
6203.76
1467.57
2201.64
2600.1
3290.47
4446.91
3163.56
2728.86
4074.78
2979.83
3009.2
2797.2
3029.25
4359.71
5125.15
4097.8
3197.2
4507.92
3691.83
1559.58
1977.24
1269.42
1703.57
3094.89
2131.01
3240.07
2891.11
4123.92
186.655
2870.26
2303.08
2835.22
1098.64
2894.21
1035.49
2852.72
2925.65
1903.19
699.871
2394.75
2282.29
-521.573
1109.18
1601.63
1698.68
510.043
1725.29
449.704
1131.15
2583.42
1858.82
2101.95
1850.72
2119.22
1807.73
2573.27
2803.42
2198.62
2765.76
1152.13
2690.52
2829.55
1206.95
1393.62
1752.53
1422.95
1469.87
1674.95
1213.03
1671.01
1178.99
1436.18
1180.51
1512.09
1694.59
568.59
1159.92
1665.84
623.191
1514.29
1608.77
2544.79
2079.79
1884.72
1807.95
2561.44
2053.48
1919.64
2366.88
1670.49
1940.55
2252.66
1942.25
2239.58
2346.38
1376.49
1623.18
1462.79
1692.79
1242.9
1470.59
1452
1692.34
1269.87
1595.39
1477.15
1888.18
1570.05
1877.04
1549.97
1603.27
1296.15
1010.64
1017.51
1572.14
1200.12
1602.25
1420.94
2286.94
1649.53
1936.2
2255.6
1926.63
2321.68
2254.11
1342.09
1679.79
1478.31
1046.65
1528.69
1013.9
1634.26
1317.79
1396.59
1610.93
1475.08
1902.84
1583.72
1608.21
1905.63
1592.39
2626.79
2340.86
2289.5
2769.36
1672.4
1769.32
1766.82
1790.87
2670.74
2444.92
3081.83
2640.24
3503.39
604.64
3587.88
3059.75
532.946
2995.59
2504.43
3405.6
667.317
3302.79
3028.81
731.531
2461.76
2227.66
875.133
2030.85
1938.84
-29.5326
1995.17
-106.058
902.486
966.463
1840.06
1908.4
45.548
1853.08
117.412
938.969
2654.65
1966.51
2329.23
1557
2279.31
2675.42
1601.57
2707.6
2045.09
2374.08
1514.21
2411.92
2693.74
1461.87
1477.37
1554.89
1340.43
1462.14
1644.81
958.572
1632.5
999.368
1325.02
1288.42
1469.03
1634.98
918.381
1643.52
870.742
1305.95
1475.14
1466.23
2489.04
1740.23
1981.72
2108.81
1986.53
2478.4
2076.55
2449.18
1709.99
1973.74
2132.13
1961.27
2465.81
2154.72
1417.2
1497.15
1522.04
1475.14
1773.15
1422.84
1761.66
1396.31
1533.86
1552.07
1475.39
1793.91
1443.96
1799.75
1461.62
1545.65
1701.34
1482.28
1734.23
2020.76
1665.75
1821.46
1935.86
2289.58
2982.87
2679.56
2744.12
2442.38
2477.15
2733.14
2017.14
1583.85
1788.27
2091.4
1831.08
1928.22
2143.06
2464.47
2956.46
2561.5
2698.37
2367.09
2723.5
2588.16
1740.45
1738.68
1561.54
1434.93
1845.81
1640.81
1807.56
1632.3
1578.17
2703.81
3094.38
2891.72
3262.36
2621.16
2902.57
3115.07
1598.11
1457.22
1871.57
1636.34
1891.7
1629.86
1591.3
3067.56
3226.62
2757.8
3376.85
2980.23
2916.53
3408.85
1574.5
1928.54
1490
1729.26
3002.63
2186.22
7906.56
7778.5
3205.06
2835.49
3909.28
326.512
4008.57
253.955
3177.14
8150.98
56807.9
51074.7
58437.4
49635
62098.9
60133.1
64801
66902.1
54290.9
46260
52772.2
47586.8
84115.6
70885.8
73034.5
81808.3
99944.2
103038
87857.2
78443.3
90322
76123.3
96106.8
93186.2
6730.27
6821.47
2892.22
2339.38
3054.51
914.292
2967.65
977.285
2919.2
6629.08
6547.72
2821.64
1964.89
-1422.47
-1592.09
737.261
2316.32
2149.41
-352.753
2225.09
-436.701
766.024
-1896.84
-1730.42
10157.7
9121.37
9895.05
9458.9
15315.2
15817.6
15447.7
14908.1
10476.2
9806.39
10717.2
9491.65
6401.49
7349.46
6986.52
6673.24
12249.7
11476.6
5869.57
6512.76
5599.1
6883.6
12127.5
12883.7
-201.325
-108.046
1076.74
1635.17
1770.83
316.976
1733.07
384.663
1051.17
125.254
36.5462
5475.4
5501.2
2593.87
1876.59
2176.92
1726.04
2142.38
1769.08
2609.6
5364.3
5347.61
46859.6
40212.2
41349.6
45524.6
55778.9
57607.2
53414.5
51707.1
49016.3
44350.2
50436.4
43124.2
6270.75
6205.16
2781.56
2161.85
2575.13
1311.31
2625.64
1255.63
2764.2
6371.68
6445.88
31275
29125.1
28263.3
32314.3
33441
32247.5
35001.2
36249.9
29933.7
26272.1
28930.9
27103.1
1405.71
1704.85
1394.99
1383.32
1403.32
1464.13
1655.21
1106.9
1653.05
1143.28
1389.31
1527.19
1541.67
11467.7
10431.7
10164.4
11675.6
16108
15668.8
11232.8
9841.95
10999.3
10137.2
15948.8
16334.6
538.467
481.879
1200.99
1495.51
1645.27
723.512
1664.34
672.146
1220.15
269.683
332.375
12832.3
11151.5
11260.1
12795.8
15918.1
15896.1
12822
11246.4
12805.3
11188.5
16193.6
16158.8
1502.03
1568.64
5094.41
5097.1
2532.19
1789.62
2022.19
1985.97
2033.67
1949.9
2522.57
5222.89
5228.51
15225.7
15021.3
16131
14239.8
15487.3
14529.5
16447.9
17414.6
14415.4
12682.6
13516.5
13468
25555.3
22548.9
23339.5
24599
29652.3
30792.9
26709.7
25176.4
27686.1
24369.1
28288.4
27193.8
4376.68
4297.87
2383.6
1675.4
1945.89
2210.89
1939.77
2227.2
2402.87
4084.19
4184.9
1372.9
1596.3
1777.31
1803.77
1472.91
1471.14
1714.41
1321.18
1709.18
1292.38
1484.46
1681.48
1653.16
9993.22
9378.17
10357.7
9080.33
10713.3
10220.3
11192
11653.1
9646.55
8435.36
9233.14
8786.69
12589.2
11027.6
11070.7
12479.5
15490.7
15588.1
12694.3
11165.9
12753
11176.5
15158.3
14995.4
2280.31
2236.57
1584.65
1474.97
1848.69
1516.12
1858.38
1531.21
1579.57
2288.54
2330.64
1652.96
1569.16
1271.9
1212.26
1416.81
1664.49
1309.21
1618.66
1334.49
1461.91
2069.74
2088.47
2190.89
1791.57
1769.88
1824.28
1989.43
1673.3
11107.7
9635.19
10427
10217.8
12676.4
13617.8
11805.9
10881.5
11847.1
11932.9
12740.3
11143.7
3529.47
3690.17
2249.98
1638.97
1902.5
2235.03
1915.92
2245.9
2208.6
3960.36
3833.21
2765
3507.63
2770.79
3676.51
1818.46
1070.42
2762.9
3681.11
1980.53
1574.06
1311.02
2030.5
1518.03
1692.25
1971.37
2025.31
1523.56
1282.05
1695.85
1593.75
1674.46
1491.29
1540.62
1734.9
2021.14
2161.84
2300.83
1832.73
1807.49
2103.35
2250.95
2126.26
8013.93
6953.95
7390.77
7535.32
9194.83
9726.31
8413.97
8125.19
8861.55
7729.99
8699.22
8139.82
2309.16
2367.21
1610.06
1471.79
1910.45
1611.51
1912.13
1598.86
1609.95
2365.75
2311.05
3119.46
3315.9
3097.61
3483.97
2872.41
2588.04
2580.57
3167.52
2665.87
2976.28
2876.39
2967.71
3097.78
3106.64
3406.23
3261.65
3130.7
3113.68
3511.54
1641.6
1803.99
1741.08
1777.7
2747.93
2373.15
10313.6
9161.54
8946.72
10818.8
17289.1
21821.1
11011.9
9319.13
16840.9
20900.4
16760.3
20536.7
7551.02
7674.3
3110.48
2686.14
3799.63
394.556
3143.89
3685.94
465.632
7448.1
7334.94
10623
8804.88
10167.7
9002.68
15827
19274
18989.5
15767
16259.4
19730.2
16320.5
20056.6
10021.4
8846.28
8664.72
10436.6
62893.8
53282.7
61145.5
54839.2
75106.8
77518.4
65799.4
58903.9
57211.7
67675.7
72042.1
69784.8
35371.9
42431.1
41551.1
36160.6
26647.5
22255.2
22525.1
26417.1
27904.1
23606.4
28140.8
23320
33986.8
38836.9
39658.2
33261.5
38521.5
44489.2
45446.4
37657.9
31275.8
26003.3
31537.6
25663
40138.9
48717.4
47677.1
41089.8
29762.1
24453.3
29520.8
24763.3
50267.8
58951.3
60322.7
48972.9
40136.5
32135.4
40570.3
31584.5
52459.6
64840.1
63341.3
53895.3
37973.4
29915.6
30397.6
37598.7
76121.6
67987.6
78276.7
65995.2
83352.5
80774.4
72799.8
61442.9
70787.7
63280.8
86801.5
89545.3
45770.4
56136.6
46942.5
54891.9
33479.5
26970.6
27345.4
33191.9
35293.4
28806.3
28378.9
35617.2
43890.5
51138.2
42834.5
52275.8
7021.69
6924.18
2967.09
2457.71
3135.42
855.793
2944.87
3210.95
790.662
7125.03
7230.27
9873.4
8228.65
8358.14
9589.37
14003.2
16593.6
16466.6
13948.5
14387.8
17037.4
17207
14438.3
9441.52
8196.32
8082.35
9692.44
9732.97
8522.15
8374.15
10058.4
15295.3
18294.2
15350.5
18544.5
10243.5
8520.25
9879.83
8682.95
14888
17855
17649.3
14833.8
2549.13
2151.71
-1157.59
1337.15
1447.56
-1385.32
1783.18
-841.908
2262.05
-1109.05
-1716.21
1345.13
1236.07
-1504.32
2339.84
-689.987
1881.39
-444.333
-1288.4
-1138.8
836.576
2094.16
2102.34
-270.017
805.637
2033.49
-186.973
-854.954
-1002.22
-1051.35
1543.69
-836.878
1441.55
2526.4
78.5044
301.197
2100.18
1977.77
-60.2038
2436.06
-298.056
-517.937
1536.31
1636.84
-744.446
9275.44
9067.05
9544.95
8731.53
14561.1
13921.3
8890.47
8310.98
8664
8610.29
14430.7
15034.4
5839.13
5336.15
5421.05
5769.52
3103.52
3958.62
4122.03
3037.49
2628.68
3951.06
2689.32
3766.3
6036.89
5934.3
5832.57
6121.7
5486.8
4897.5
4801.36
5547.27
1732.72
3633.37
1821.82
3397.05
5244.35
4267.56
4343.3
5201.65
2272.92
3576.57
2183.57
3786.15
4322.09
2541.88
2478.38
4323.62
-254.945
3016.16
-111.659
2688.99
4010.75
1855.61
1889.1
4031.63
399.441
2842.44
3164.35
269.621
7447.91
7435.33
7174.22
7807.23
13357.4
14040
7912.82
8240.51
8183.89
7880.19
13472.6
12764.9
4637.95
3100.94
4608.09
3155.32
1369.35
3202.8
3473.9
1267.47
777.511
3310.04
3029.81
889.901
4900.94
3766.08
4947.64
3688.43
-343.583
-460.082
995.699
1784.91
1786.37
252.581
1021.56
1830.07
183.461
-720.77
-597.688
144.983
1894.03
1813.33
344.969
2895.44
1474.01
1648.99
2584
2454.52
1342.85
1143.1
2796.46
618.225
1896.03
1972.08
411.107
72.3029
1723.01
1814.47
-141.006
2216.3
666.655
2607.17
439.654
-431.549
1727.08
-223.015
1634.93
2696.83
801.127
1004.38
2338.17
5643.07
5608.27
2637.65
1939.57
2209.11
1687.04
2624.1
2238.39
1642.05
5747.99
5788.75
8385.99
7014.66
7022.63
8365.79
10783.8
12351.3
12496
10657.8
11067.1
12964.9
11176.3
12853.8
8188.84
6846.23
6853.1
8183.13
8531.58
7196.01
7173.01
8582.62
11875
13910.7
11961.7
13866.4
8773.2
7329.29
7366.6
8694.37
11570.3
13357.8
11471.1
13436.7
30107.7
34010.9
34742.2
29482.5
25031.6
21510.1
25269.5
21250.7
31306.6
37101.5
36331.1
31973.2
23985.9
20301.2
23744.7
20552.3
42274.2
38563.1
43529.1
37498.5
45848.4
44352.8
47908
49500.6
40429.5
34970.3
35967.7
39243.8
27778
32549.8
28369.7
31855.1
21660.7
18517.7
18765.8
21390.2
22531.3
19638.5
22789
19391.6
26739.2
29839.4
30513.5
26176.1
6045.02
6104.19
2723.53
2071.91
2518.35
1360.29
2744.6
2459.26
1413.38
5944
5893.43
9150.18
7866.88
7784.25
9327.86
13521.4
15914.3
13579
16011.3
9507.65
7933.18
8030.59
9298.06
13165
15447
15391
13101.7
9144.54
7634.54
7701.39
9001.29
12358
14380.1
12280.6
14393.8
8848.5
7536
8961.83
7483.19
12689.7
14883.7
14907.5
12757.5
21846.2
25134.5
24496.7
22367.7
17640.8
15273.6
15553
17290.3
18262.9
16327.5
16058.6
18590.5
21039.6
22893.9
23533.9
20523.4
34844.1
30370.8
33762.6
31263.7
41032.7
42435.4
39242.1
37919.4
36413
33539
37541.4
32598.2
23750.6
26177.9
23222.8
26823.6
20302.7
17928.5
17675.9
20591.6
19571.3
16860.2
17116.4
19264.3
24663.2
28609.2
25204.1
27954
1449.22
1591.17
1234.86
1232.03
1357.4
1463.69
1640.21
1072.68
1372.59
1645.26
1033.52
1067.94
1074.91
2024.92
2411.17
2382.95
2155.24
3635.92
3624.84
3718.22
3487.49
3384.25
3516.59
3554.75
3409.47
2340.01
2437
2462.23
2206.42
1972.33
2321.45
2359.98
1821.86
3179.68
3047.58
3373.45
2916.53
1616.84
2301.49
2259.35
1767.44
3457.88
3173.32
3287.45
3289.05
6561.48
6851.27
6746.53
6642.32
3446.4
4280.25
3493.5
4144.47
6382.36
6308.63
6403.24
6311.94
3873.49
4314.77
3822.43
4436.92
12061
10444.6
11880.2
10695.6
16291.5
16547.5
12224.9
10904.8
10690.4
12370.2
16474.4
16165.7
6878.89
7169.34
6798.93
7254.66
4562.6
4660.57
4756.27
4532.51
4196
4596.57
4223.36
4489.33
7021.67
7639.34
7549.06
7099.83
689.799
725.061
1263.35
1466.88
1649.85
773.673
1245.23
1634.39
822.241
908.873
881.782
1112.35
2052.85
2113.47
923.201
2708
1961.45
2986.26
1779.74
678.658
2045.3
1980.77
865.711
3080.6
2093.34
2250.17
2828.31
1167.56
2179.09
2128.29
1340.63
3278.3
2658.52
3062
2789.35
1563.53
2194.58
1392.11
2244.63
2943.82
2528.89
2376.69
3183.06
7614.39
8455.01
8493.06
7571.41
5689.48
5215.07
5289.6
5664.73
5427.03
5165.21
5098.55
5447.04
7698.44
8682.11
8655.17
7724.23
12686.3
11191.7
12764.5
11055
16519.6
16337.9
12611.5
10896.7
12493.9
11075.4
16290
16406.5
7414.48
8258.28
7468
8190.41
4858.17
4897.05
4818.94
4882.97
5176.97
4959.69
5042.13
5153.96
7292.77
7895.3
7231.78
7966.36
1474.44
1464.19
7803.86
6471.27
6510.09
7738.31
10244.5
12017.1
10385
11843.3
7967.09
6684.8
6662.87
8003.34
9977.93
11324.1
9819.82
11531.5
4971.43
4954.8
2497.82
1750.49
2008.41
2015.49
2511.38
1992.32
2048
4811.37
4838.97
7491.56
6324.51
7586.6
6268.54
9123.08
10235.3
10508.2
8919.81
9379.35
11028.9
9558.47
10790.6
7346.47
6049.29
6124.83
7222.08
17887.8
15827.6
16978.7
16600.6
20480.4
21485
18783
18212.3
17439.4
19696.3
19411.2
18429.3
11946
13654.8
12944.7
12545
10209.2
8760.53
9226.42
9643.28
10649.4
10081.1
11182.4
9645.47
11349.2
11598.3
12324.6
10733.3
13728.5
14297.9
14991.6
13148.7
12585.1
11711.3
13065.1
11332
14350.9
16338.3
15658.8
14910.7
12133.3
10503.6
11628.2
10908.8
18514.6
19879.8
20527.5
17990.6
16338.6
14788.8
16713.4
14494.1
19241.5
22000.5
21359.5
19759.2
15797.7
13717.3
14029
15400.8
22582.2
21573
23521.6
20792.4
23648.3
22616.8
21571
19094.3
20647.5
19867.2
24853.2
25911.3
16763.8
19097.2
17298.8
18443.6
13981.3
12140.9
12494.7
13528.9
14466
13265.3
12933.8
14890.4
16098.1
17038
15552.3
17705.5
4487.45
4544.87
2433.87
1698.88
1950.89
2195.47
2419.8
1953.13
2174.27
4699.53
4654.83
6229.34
5403.03
5259.74
6450.97
7109.41
7707.26
8115.72
6791.31
7378.4
8770.95
8396.68
7663.44
6074.62
4933.99
5105.84
5816.54
6784.4
5549.52
5668.96
6595.42
8437.52
9960.05
8664.88
9656.04
6924.75
5907.17
7080.37
5811.55
8179.01
9043.59
9383.53
7925.76
1392.2
1519.97
2660.02
2538.67
2553.44
2549.75
3571.98
3918.15
3712.12
3821.95
2388.8
2510.37
2492.06
2501.23
3779.93
4007.45
3653.14
4094.41
1923.57
1887.33
1507.53
1471.39
1734.49
1346.58
1498.72
1740.68
1368.83
1994.31
2028.74
2706.09
2596.08
2802.3
2586.47
3898.76
4291.32
4377.11
3778.33
3718.65
4250.79
3848.4
4164.25
2937.31
2624.07
2635.14
2838.93
10990.3
9631.39
10673.1
9886.98
12959.4
13312.5
11266.4
10307.2
10108.4
11534.1
12517.7
12111
7090.33
8180.97
7939.37
7294.44
6052.07
5132.54
5316.06
5855.93
6066.54
5458.7
6224.45
5307.83
6972.77
7498.08
7779.04
6724.69
7537.64
8295.48
8485.53
7379.13
6243.91
5581.41
6339.76
5475.98
7585.77
8714.85
8561.98
7710.82
6319.99
5415.08
6189.31
5542.42
7849.45
8855.32
8885.23
7826.67
5870.6
5388.68
5902.12
5323.94
7795.84
8805.98
8798.82
7795.87
6080.33
5397.67
5474.4
6035.81
12172
10896.1
12335.3
10806.4
14018.8
13727.5
11984.9
10496.1
11764
10644.4
14402.8
14638.8
7807.72
8908.18
7854.93
8832.49
6306.71
5483.52
5580.65
6234.42
6161.46
5538.57
5461.02
6214.71
7813.25
8741.91
7730.35
8847.84
2168.83
2207
1560.52
1475.53
1828.77
1498.88
1570.86
1819.26
1476.21
2126.24
2085.2
3132.83
2718.69
2704.65
3222.19
3903.3
4393.38
4534.41
3757.87
3813.52
4571.8
4449.6
3946.7
3266.32
2698.56
2722.98
3161.87
3148.5
2688.24
2699.68
3061.67
3813.67
4482.72
3931.96
4383.48
2963.03
2670.97
3049.81
2661.15
3951.37
4443.75
4545.67
3830.39
1808.67
2043.35
1571.29
1429.13
1501.71
1748.69
1447.52
1587.66
1840.3
2520.52
2264.56
1959.75
1800.87
1728.13
2152.9
2266.91
2850.24
2181.95
2497.27
2031.8
2473.18
2640.51
2063
2366.29
2192.82
2372.88
2097.81
2653.34
2281.44
2305.81
2007.27
2218.28
1834.71
2314.81
2686.84
1980.26
2266.69
2331.49
3203.71
4175.26
3643.08
3669
2929.63
2839.29
2515.37
3330.54
2903.78
2914.76
2518.68
3369.13
8937.4
8920.24
9663.82
8280.9
8615.07
8334.65
9205.22
7840.65
9509.67
10991.6
10254.8
10150
8170.97
6886.39
7560.99
7409.29
8641.5
8944.75
9514.49
8161.65
8380.32
7491
9149.93
10058.6
7975.49
6741.17
7511.94
7128.71
7060.83
8345.31
7724.34
7602.93
6058.51
4928.97
5482.12
5432.47
6493.9
6450.94
7116.36
5907.63
6521.83
6324.84
7055.78
5866.59
3363.45
3165.86
2090.54
1601.29
1884.64
2212.63
2155.93
1859.27
2183.25
2739.07
2970.96
5161.56
4134.99
4377.07
4819.77
6157.77
7414.55
6509.92
6969.42
5350.59
4766.34
4563.61
5646.57
5857.19
6183.82
6663.37
5470.86
4229.6
3925.15
3646.71
4607.41
4410.37
4506.23
3964.74
5021.41
3991.1
3096.4
3585.99
3409.51
4734.73
5860.46
5355.54
5157.13
2658.83
3453.04
2728.34
3202.11
2237.53
2303.73
2180.59
2177.01
2577.99
2781.62
2429.95
3107.08
2156.22
1799.3
2155.53
2012.05
5094.15
4088.73
4284.33
4817.45
5911.46
6777.2
5243.34
4386.37
5678.13
6129.33
6501.42
5379.61
4259.33
3938.01
3649.89
4616.22
4413.36
4516.37
3981.75
5019.02
4030.12
3116.89
3609.61
3470.64
4718.34
5804.97
5360.56
5096.15
1725.66
1722.29
1951.1
2007.22
1545.89
1418.15
1725.92
1610.67
1539.93
1765.93
1620.57
2148.26
2048.73
2321.29
2005.33
2137.75
2258.7
2586.62
2919.94
2286.04
2649.44
2321.9
2629.75
2901.55
2710.29
3261.68
2920.51
3070.02
2437.22
2614.07
2319.93
2640.6
2543.64
2592.75
2341.44
2826.58
2383.92
1997.91
2061.6
2254.37
2596.13
3275
2840.01
2999.62
2459.64
2255.52
2138.43
2655.73
2497.11
2659.14
2322.9
2868.73
6086.41
6357.62
6727.02
5754.05
5562.21
5104.14
5799.02
4887.46
6277.95
7297.83
6966.57
6570.37
5462.95
4560.04
5177.41
4816.14
6611.89
6596.46
7120.67
6129.78
6571.6
5981.2
6191.51
5259.15
5753.57
5655.29
7062.61
7645.2
5152.77
6087.46
5524.47
5675.28
4524.84
3690.37
4012.87
4174
4715.31
4453.79
5033.76
4161.39
4898.92
4940.87
5378.65
4493.1
2340.79
2264.5
1603.13
1460.51
1911.71
1618.69
1609.19
1901.97
1621.58
2177.51
2267.76
3210.99
2605.13
2658.86
3076.23
3649.88
4441.34
3814.21
4264.76
3149.97
2707.81
2671.47
3263.93
3672.48
4063.85
4268.24
3480.37
2936.64
2573.72
2497.34
3096.38
3182.51
3408.13
2938.28
3681.05
2911.9
2335.1
2720.26
2440.27
3243.57
4017.32
3774.34
3463.12
2975.41
3279.68
3070.17
3045.01
2983.58
3158.52
2897.84
3300.12
3046.95
2748.98
3392.96
3147.44
3416.3
3010.21
3492.3
2905.35
2691.7
2743.81
2978.44
3151.15
3484.5
3208.35
3524.65
4308.68
3587.22
3814.46
4041.44
4896.64
5495.51
4701.18
4885.91
5237.98
4385.59
4453.15
3891.91
3559.09
3495.56
3212.81
3888.1
3599.79
3512.58
3189.11
3955.65
3395.18
2764.3
3021.28
3096.97
3812.81
4628.46
4220.17
4181.04
1880.77
1850.3
2017.53
1391.8
2124.8
2137.32
2305.63
1967.49
2352.88
1680
2132.62
2309.72
2832.78
2600.08
2210.16
2348.23
2509.95
2428.11
3104.69
3763.95
1704.42
4067.33
3091.73
4131.18
3298.36
1770.09
1737.39
3854.58
3083.06
3080.31
2162.49
3037.54
4412.2
2129.5
3081.86
4169.72
3069.61
4127.36
2066.52
3417.77
2099.75
3071.88
4382.57
-817.607
4778.68
902.872
-896.088
1597.46
4347.73
-731.871
3983.2
1454.02
1607.65
1641.52
4408.84
-637.116
218.913
1711.16
1949.59
2372.43
1733.32
307.569
2769.12
157.625
2962.83
1712.94
1363
1682.54
82.4752
2554.93
3170.96
2563.53
3121.32
4426.23
2539.99
3171.71
4290.22
3158.1
4295.83
2496.24
3332.01
2518.87
3162.31
4447.53
3089.42
2189.74
4203.93
3369.12
3091.78
2218.8
4437.17
3100.26
4454.17
2273.61
3023.57
2243.81
3102.17
4233.45
1171.22
1955.54
2496.9
1948.06
1963.08
1237.29
2256.85
1133.97
2269.62
1930.04
2011.46
1915.22
1078.55
1937.85
433.496
1760.04
2616.88
1530.42
366.653
1731.11
2220.19
493.294
2112.4
1758.84
2093.35
1779.64
573.226
2499.3
3173.59
2581.97
4276.94
3343.09
3182.42
2599.09
4395.31
3183.57
4356.99
3165.51
2634.14
2615.47
4254.41
3181.06
3038.11
2688.93
3151.11
3780.99
2700.6
2999.91
3811.97
3064.28
3941.23
2714.08
3245.27
2708.07
3099.6
3934.31
1319.97
2001.01
2253.88
2168.91
1272.32
1987.89
1957.21
1356.25
1977.34
2604.22
2025.12
2031.35
2252.25
1413.65
1777.32
2203.38
2784.03
2121.04
2210.33
1812.41
2285.14
1759.84
2286.89
2193.49
2517.66
2186.19
1730.12
2104.34
1375.04
1661.72
1666.88
1714.71
1642.82
1452.06
1606.36
2893.98
2668.99
3649.54
3074.35
2958.83
2638.38
3584.23
2834.58
3339.9
2556.74
2963.7
2602.07
2755.66
3439.44
1696.19
1801.13
1716.18
1821.42
1716.6
1679.8
1855.44
1839.35
2218.71
2275.72
2518.48
1823.28
2199.44
2119.92
1845.33
2098.13
2174.05
2697.82
2200.84
1859.37
2244.35
3068.25
1908.84
4250.99
3165.84
3978.88
3065.86
1873.72
3068.58
3917.51
1804.46
3608.26
3076.09
4195.79
1839.59
3061.85
1940.63
4033.16
3497.78
3066.55
4301.69
1973.34
3065.07
4344.84
2036.37
3081.32
3065.32
4083.48
2003.28
-395.715
1633.75
1626.22
3328.61
1663
3744.29
-299.638
-473.363
4063.99
1651.93
1044.28
-555.356
1615.33
3641.45
-149.405
1679.97
1204.69
3450.75
1644.41
-225.493
3038.07
-75.9492
2779.2
1663.72
1786.72
14.2588
1691.51
3189.06
3135.68
2404.83
4288.74
3330.69
4469.86
3140.09
2428.67
3148.2
4461.39
2474.53
3074.6
3149.45
4295.43
2449.87
3126.31
2381.69
4472.13
3042.51
3128.2
4276.79
2353.33
3112.66
4257.36
2299.17
3339.47
3114.6
4466.95
2327.6
922.243
1868.93
1853.53
2318.25
1847.76
1953.03
863.952
966.709
1939.23
1881.34
2370.88
1036.51
1894.76
2285.32
738.952
1819.72
2240.33
1984.37
1835.72
816.51
2355.32
690.847
2415.04
1808.08
1688.72
625.293
1785.2
2033.06
3178.25
2692.58
4243.26
3205.48
4178.51
3169.76
2678.4
3175.01
4222.6
2649.75
3342.7
3187.2
4306.38
2663.95
3143.26
2702
4119.22
3322.33
3166.42
4160.2
2706.53
3135.61
4059.17
2714.03
3208.52
3115.76
4040.78
2711.35
1519.1
2100.41
2701.67
2026.62
2102.36
2261.95
1572.34
1488.96
2256.22
2068.25
2310.99
1444.81
2060.39
1998.73
1636.61
2138.95
2436.49
2272.09
2131.24
1599.06
2051.15
1663.3
2079.33
2161.9
2769.29
1707.28
2165.75
2279.1
1942.78
2129.26
2442
2103.55
2218.74
2126.47
1996.55
1763.09
1794.15
1744.95
1955.28
1592.73
2007.93
1864.07
2427.81
2244.18
2654.22
2573.09
2285.12
2839.89
2343.85
2551.07
3172.87
2499.5
2711.22
2666.29
3030.59
2427.09
1736.75
1961.89
1987.56
1972.59
1878.36
1828.04
1774.37
1695.68
1734.34
1739.12
1996.36
1680.61
1806.15
1835.47
1826.68
2020.56
2444.41
1951.92
2082.26
1810.84
2097.72
1846.19
2189.4
2161.22
2362.95
1853.49
2117.15
2044.67
)
;

boundaryField
{
    left
    {
        type            calculated;
        value           nonuniform List<scalar> 0();
    }
    bottom
    {
        type            calculated;
        value           nonuniform List<scalar> 0();
    }
    interface
    {
        type            calculated;
        value           nonuniform List<scalar> 
2120
(
1194.53
1038.44
815.278
1511.01
1028.58
1449.97
1296.7
1429.83
1207.94
1496.54
1300.31
1404.17
1050.97
795.068
1412.43
1006.2
1114.39
1105.57
1535.07
1546.5
958.445
964.943
1676.47
1643.36
1312.78
1323.76
1342.82
1364.48
1341.62
1349.06
2995.26
2982.07
1450.25
1443.77
3178.24
3224.44
1147.49
1057.3
1377.19
1537.54
917.874
989.749
1822.15
1513.95
1285.75
1366.48
1248.87
1438.73
1306.45
1372.16
2418.81
2302.73
1392.22
1424.05
2408.7
2756.58
1136.39
1066.45
1419.22
1542.62
925.388
980.8
1783.44
1543.68
1289.33
1352.43
1268.56
1420.02
1313.67
1364.08
2657.94
2551.21
1407.24
1429.44
2695.99
2955.81
1170.24
1034.54
1158.22
1515.18
898.286
1005.21
2657.83
3140.57
2590.96
2590.84
1905.12
1462.79
1620.86
1544.73
1001.08
1531.58
2481.18
2078.7
2091.37
2477.15
2572.58
2584.24
1285.48
1399.83
1470.28
1463.43
1521.4
1060.1
1534.52
1080.66
1212.32
1472.2
2456.14
2061.22
2469.48
2038.27
2286.5
2264.88
1294.11
1387.11
1458.42
1467.08
1458.15
1465.79
1457.52
1459.42
1173.12
1051.57
1589.7
1455.17
1318.43
2200.91
1861.18
1842.1
2236.87
1191.48
1409.73
1340.09
1539.76
1015.57
1395.45
1271.29
1457.22
1469.59
1462.06
1467.73
2237.04
2701.43
1112.24
1082.83
1502.52
1546.39
937.652
960.074
2633.42
2844.56
2883.71
2635.46
2617.3
2629.09
1704.04
1600.52
1594.64
778.393
740.197
1579.21
1567.81
1582.04
2517.92
2199.52
2530.24
2540.99
2538.9
1296.83
1323.9
1480.43
1236.31
1248.86
1491.99
1501.59
1194.18
1491.08
1311.48
1376.85
2412.24
1969.05
2404.11
2374.81
1950.06
1932.77
2391.95
1324.51
1345.87
1454.41
1421.7
1409.72
1452.54
1449.93
1429.92
1456.93
1592.22
1717.56
2953.1
2693.27
2696.95
1918.85
1828.05
2898.13
2630.27
2504.51
1435.93
1435.78
1399.39
1461.18
1414.48
3080.75
3251.97
3100.35
1433.04
1425.69
3195.9
3354.33
3383.45
1153.49
1039.79
1287.48
1524.27
901.822
992.528
2651.53
2651.66
56875.3
61424.8
64039.7
54312.7
83976.7
98767.2
87668.6
94979
6226.17
2595.49
2620.03
2576.15
2605.07
1859.34
1485.37
-259.237
1620.57
627.144
588.383
1604.47
-275.293
11237.2
14961.4
15135
11459.8
7968.34
11776.6
7693.29
11620.7
738.394
1539.17
1553.71
2486.76
2107.85
2497.56
5394.03
46909.1
55136.9
52864.5
49136.2
2565.36
2370.41
2397.83
2563.19
31462.8
33183.3
34653.6
30014.1
1281.65
1379.02
1767.77
1464.28
1309.76
1474.68
12291.4
15832.9
12108
15637
1518.04
1507.08
1051.19
13236
15717.5
13253.1
16025.7
1225.01
1451.24
2446.77
2020.36
2441.79
5157.92
15356.3
15443.7
16352.1
14452
25629.7
29382.8
26895.3
28102.5
4379.03
2305.39
2327.8
4144.96
1295.66
1373.72
1900.05
1457.47
1370.96
1453.36
10055
10651.9
11143.6
9763.23
12922.3
15354.1
12982.7
14994.2
1451.77
1457.4
2255.86
1148.55
1278.64
1187.75
1214.45
1417.7
2100.33
2201.01
1710.79
1805.26
1986.91
2023.1
11129
12620
11791.5
11950.7
2160.56
1808.01
1824.53
2118.18
2783.07
1858.32
557.677
2783.55
1993.05
1241.02
900.796
1318.47
1415.32
1385.59
1440.68
1365.9
1397.65
1659.89
2047.93
2308.19
1715.38
1829.85
2249.8
8085.24
9170.8
8433.74
8664.9
2249.96
1454.55
1469.41
1467.25
1452.11
3123.4
2508.75
3117.96
2922.43
2973.25
3039.03
3121.69
3363.92
3217.63
3114.93
1118.41
1069.65
1465.48
1540.96
926.344
964.19
10194
15806.5
11024.7
15291
2637.08
2646.65
2929.39
10709.5
14520.3
14973.4
9955.01
62873.4
74217.5
65799.2
71229.1
34365.8
26791.6
28201.5
33031.6
37369.3
31548.4
38948
29893.6
48654
40316.2
50860
38050.4
76034.2
82389.1
72727.4
85773.1
44384.2
33589.2
35525.9
42515.2
2611.23
2660.83
2610.86
2697.69
10059.2
13110.6
13458.2
9449.46
9708.68
14194.5
10387.7
13800.5
1740.07
1566.82
216.114
1098.5
-12.2485
1104.72
1590.85
1606.88
700.167
43.3826
408.31
1495.52
1502.58
630.842
10439.1
14202.3
10194.3
14034.7
5535.09
3978.45
3735.11
5475.51
4829.5
3053.82
4873.74
3321.31
3381.06
1555.51
3386.44
1841.8
9003.09
12909.2
9269.12
13064.2
4161.64
2606.51
2334.46
4130.13
1565.71
1552.98
1172.69
2182.49
2225.75
1375.66
1014.26
1880.94
803.171
1847.1
5628.32
2509.69
2505.64
8603.19
10459.6
10679.3
8229.84
8575.62
11373.3
9000
11133.9
29331.9
25342.6
30465.3
24131.8
42429.6
45408.6
47374.4
40499.2
27090.2
21801.9
22842.9
26118.8
2546.27
2556.69
2305.91
5865.76
9178.55
12748.7
9720
12445.5
9370.12
11789.6
8889.01
12059.7
21414.3
17754.2
18547
20674.4
34922.3
40597.5
38900.6
36591.1