/*--------------------------------*- C++ -*----------------------------------*\
| =========                 |                                                 |
| \\      /  F ield         | OpenFOAM: The Open Source CFD Toolbox           |
|  \\    /   O peration     | Version:  2012                                  |
|   \\  /    A nd           | Website:  www.openfoam.com                      |
|    \\/     M anipulation  |                                                 |
\*---------------------------------------------------------------------------*/
FoamFile
{
    version     2.0;
    format      ascii;
    class       volVectorField;
    location    "0.104/solid";
    object      sigmaMidDir;
}
// * * * * * * * * * * * * * * * * * * * * * * * * * * * * * * * * * * * * * //

dimensions      [1 -1 -2 0 0 0 0];


internalField   nonuniform List<vector> 
3125
(
(0.899551 -0.434075 -0.048853)
(0.891725 -0.451239 -0.0347739)
(0.991411 -0.041983 0.123858)
(0.392379 0.917542 0.0644678)
(0.891239 -0.452252 -0.034063)
(0.0423046 0.999073 -0.00802414)
(0.0953006 0.995444 -0.00294631)
(0.243211 0.969545 0.028815)
(-0.497243 0.867432 0.0176392)
(0.132392 0.991078 -0.0153785)
(0.18052 0.982846 -0.0377527)
(0.615186 0.78829 0.0120436)
(0.29309 0.955433 0.0353039)
(0.0365205 0.9993 -0.00815948)
(0.245925 0.968848 0.0292192)
(0.000549481 0.999961 -0.00886498)
(-0.399497 0.916333 0.0271365)
(-0.496421 0.867895 0.0180389)
(-0.0660006 0.997198 0.0352015)
(0.126426 0.991888 -0.0132051)
(0.544037 0.838938 0.01436)
(0.0875482 0.996149 -0.00470974)
(0.899527 -0.433972 -0.0501862)
(0.393471 0.917324 0.0608006)
(0.297654 0.954005 0.035732)
(-0.0337224 0.999319 -0.0149979)
(-0.00415747 0.999949 -0.00915737)
(0.350149 0.935434 0.0485721)
(-0.373513 0.927194 0.0282705)
(0.604849 0.795089 0.0446226)
(-0.0765976 0.996402 0.036265)
(0.0465515 0.998865 -0.0100619)
(0.0822411 0.996603 -0.00439025)
(-0.15081 0.986434 0.0648416)
(0.216324 0.97562 -0.0370044)
(-0.0371063 0.999171 -0.0167453)
(0.353296 0.934145 0.0505542)
(0.987254 -0.0984197 0.125076)
(0.602367 0.796813 0.0473627)
(-0.178566 0.983725 0.0199849)
(0.0422425 0.999034 -0.0120856)
(-0.153767 0.985699 0.068942)
(0.895532 -0.443076 -0.0413126)
(0.894725 -0.444783 -0.0404408)
(0.308533 0.942116 0.131244)
(0.348536 0.929994 0.116761)
(0.888525 -0.457929 -0.0287021)
(0.888833 -0.45729 -0.0293354)
(0.172426 0.984909 0.0149696)
(0.228247 0.973272 0.0253908)
(0.167019 0.985892 0.0109872)
(0.0612853 0.998095 -0.00712605)
(0.124545 0.992213 0.00116478)
(0.14 0.990144 0.00383223)
(0.159848 0.987102 0.00888322)
(0.0684841 0.997631 -0.00652532)
(0.145028 0.989415 0.00494491)
(0.230152 0.972812 0.0258372)
(0.155908 0.98775 0.00647787)
(0.164676 0.9863 0.0097596)
(-0.500149 0.865815 0.0146683)
(-0.500163 0.865801 0.0150274)
(0.610753 0.789003 -0.0667423)
(0.86909 0.494651 0.00157446)
(0.281492 0.95941 -0.0171477)
(0.151372 0.988203 -0.0232828)
(0.167091 0.985911 -0.00773507)
(0.229548 0.973095 -0.019828)
(0.397618 0.916016 -0.0530608)
(0.158144 0.987063 -0.0264093)
(0.258845 0.965581 -0.0255653)
(0.856747 0.515732 0.00224676)
(0.149676 0.988732 0.0026303)
(0.230961 0.972916 -0.0095278)
(0.268505 0.962732 0.0324345)
(0.122384 0.992482 0.00111006)
(0.136324 0.990661 0.0025763)
(0.119288 0.99286 0.000478153)
(0.0203718 0.999758 -0.00836071)
(0.103463 0.994633 -0.00111392)
(0.264907 0.963741 0.032045)
(0.152413 0.988301 0.00554676)
(0.14068 0.99005 0.0031959)
(0.0824019 0.996596 -0.00244207)
(0.0152481 0.999848 -0.00843379)
(0.0981719 0.995168 -0.0015278)
(-0.479351 0.877353 0.0217821)
(-0.481724 0.876065 0.0212699)
(0.0675938 0.997318 0.0280837)
(0.0720889 0.997314 0.012941)
(0.0921053 0.995692 0.0107049)
(0.151877 0.988387 -0.00486647)
(0.109322 0.993973 -0.00821111)
(0.117587 0.993062 0.00105765)
(0.0996353 0.994658 0.026976)
(0.133264 0.991068 0.00506744)
(0.0998772 0.994952 0.00976477)
(0.0854787 0.996325 0.00544942)
(0.103806 0.994573 -0.00695471)
(0.108199 0.994126 0.00257075)
(0.906959 -0.416666 -0.061768)
(0.9045 -0.421609 -0.0642275)
(0.117604 0.99306 0.000701731)
(0.325995 0.944543 0.0395739)
(0.10305 0.994676 -0.000354996)
(-0.0218208 0.999698 -0.0113136)
(0.0433462 0.999046 -0.00534377)
(0.0574724 0.998339 -0.00394405)
(0.0772714 0.997006 -0.00271523)
(-0.0175044 0.999791 -0.0105628)
(0.062356 0.998047 -0.00363862)
(0.33061 0.94291 0.0402368)
(0.0829981 0.996548 -0.00168049)
(0.0981158 0.995175 -0.000783031)
(0.342245 0.938851 0.0377883)
(0.429677 0.90219 0.0378361)
(0.0663515 0.997705 0.0135157)
(-0.122715 0.991401 0.0454466)
(0.0518323 0.998552 0.0144013)
(0.061414 0.998096 -0.0057295)
(0.0412202 0.999129 0.00645305)
(0.0563976 0.998384 0.00696259)
(0.0788715 0.996866 0.00612405)
(0.0665981 0.997768 -0.00494961)
(0.0615815 0.998077 0.00702406)
(-0.127042 0.990779 0.047083)
(0.0330251 0.999336 0.0153682)
(0.0469823 0.998788 0.0146392)
(0.338382 0.936605 0.0909275)
(0.0239857 -0.466323 0.884289)
(0.046507 0.998907 -0.00474062)
(0.0387313 0.999232 -0.0059319)
(-0.0455751 0.9987 -0.0228496)
(0.0211159 0.999748 -0.0076343)
(0.34987 0.933159 0.0824923)
(0.0779739 0.996953 -0.00200737)
(0.0580783 0.998306 -0.00345241)
(0.0527437 -0.36636 0.928977)
(-0.0493412 0.998413 -0.0271644)
(0.0117381 0.999887 -0.00943808)
(0.567002 0.8166 0.10804)
(0.582107 0.807693 0.0937177)
(-0.185655 0.971243 0.14906)
(0.0100536 -0.485808 0.874008)
(-0.00332333 0.999792 0.0201196)
(0.0361698 0.999325 0.00636576)
(0.0307461 0.999344 -0.0191353)
(0.017155 0.999833 0.00629666)
(-0.177143 0.975092 0.133474)
(0.0281909 0.999474 0.0160164)
(0.00821954 0.999777 0.0194366)
(0.0312184 -0.37255 0.927487)
(0.0265392 0.999365 -0.0237553)
(0.00703464 0.999962 0.00511346)
(0.898265 -0.437115 -0.0452812)
(0.893249 -0.448033 -0.037052)
(-0.0197253 0.993888 0.108618)
(0.392252 0.916443 0.0791845)
(0.887458 -0.460143 -0.0261933)
(0.890457 -0.453944 -0.0319626)
(0.222738 0.974594 0.0235477)
(0.570302 0.821097 -0.023558)
(0.0483004 0.998802 -0.0078357)
(0.0686974 0.997634 -0.0028015)
(0.0752108 0.997165 -0.00210305)
(0.12401 0.992258 0.00669233)
(0.0851744 0.996356 -0.00452432)
(0.114134 0.993455 0.0044613)
(0.237497 0.970997 0.0275548)
(0.435532 0.900072 -0.0134688)
(0.443251 0.896246 -0.0164739)
(-0.500474 0.86565 0.0132559)
(-0.499948 0.865899 0.0164792)
(0.90117 0.433465 -0.00034995)
(0.204431 0.978743 0.0164384)
(0.138527 0.9902 -0.017732)
(0.143466 0.989578 -0.0123497)
(0.151804 0.9883 -0.0147579)
(0.218582 0.975105 -0.037304)
(0.172639 0.984411 -0.0336236)
(0.204633 0.978306 -0.0322955)
(0.767277 0.641284 0.00638464)
(0.157296 0.98733 0.0209049)
(0.0974197 0.99499 0.0224584)
(0.282633 0.958626 0.0339911)
(0.277769 0.960647 0.00121687)
(0.270562 0.9627 0.00216144)
(0.0624448 0.998043 -0.00339454)
(0.0309727 0.999486 -0.008256)
(0.0564425 0.998398 -0.00390693)
(0.253159 0.966946 0.0304481)
(0.393554 0.919228 -0.0116292)
(0.392075 0.919882 -0.00975381)
(0.024154 0.999691 -0.00592728)
(0.00533673 0.999948 -0.00866758)
(0.0291619 0.999559 -0.0056275)
(-0.453009 0.891174 0.0243307)
(-0.493564 0.869496 0.0193001)
(-0.0247243 0.999177 0.0321573)
(0.0959675 0.995 0.0276577)
(0.0604825 0.997693 0.0308351)
(0.135562 0.990717 -0.0101317)
(0.120618 0.992635 -0.011305)
(0.128176 0.991717 -0.00823713)
(0.313421 0.949383 0.0209746)
(0.085487 0.996035 0.0246408)
(0.140931 0.989764 0.0224942)
(0.0902523 0.995918 -0.00156981)
(0.0929198 0.99566 -0.0051905)
(0.095983 0.995381 -0.00211988)
(0.903635 -0.424826 -0.0544628)
(0.417659 0.907198 0.0505213)
(0.23882 0.971043 0.00638472)
(0.309782 0.950079 0.0372195)
(0.246972 0.969011 0.00466963)
(-0.0300393 0.999457 -0.0135375)
(-0.0112452 0.999875 -0.0110747)
(-0.00738355 0.999922 -0.0100339)
(0.0192589 0.999795 -0.00628699)
(-0.00869103 0.999917 -0.00951612)
(0.0145364 0.999872 -0.00668893)
(0.343721 0.938047 0.0438652)
(0.170639 0.985206 0.0158726)
(0.169703 0.985333 0.0179025)
(-0.203522 0.978511 0.0330958)
(0.585299 0.809852 0.0395673)
(0.0544124 0.997972 0.0330198)
(-0.101776 0.99401 0.0398161)
(0.0835899 0.996057 0.0297119)
(0.0512499 0.998652 -0.00823604)
(0.0490674 0.998786 -0.00442241)
(0.0536804 0.998553 -0.00326092)
(0.0846398 0.996411 -0.0011326)
(0.0770202 0.99702 -0.00433237)
(0.0792422 0.996855 -0.000947437)
(-0.142021 0.988317 0.0553108)
(0.0477793 0.99807 0.0396559)
(0.0418848 0.998274 0.0411724)
(0.232921 0.968474 0.0883475)
(0.0974123 0.86604 -0.490393)
(0.0584737 0.998231 -0.0107218)
(-0.0149549 0.999812 -0.0123245)
(-0.0399922 0.999027 -0.0186139)
(-0.0184155 0.999738 -0.0135606)
(0.358444 0.931641 0.0596926)
(0.151073 0.988252 0.0231255)
(0.150171 0.988418 0.0218678)
(0.140003 -0.287097 0.947615)
(-0.0498324 0.994884 -0.0878785)
(0.463963 0.873642 0.146587)
(0.603426 0.795211 0.0592945)
(-0.254022 0.958427 0.129963)
(0.0119839 0.862386 -0.506109)
(-0.052555 0.998177 0.0296679)
(0.0446052 0.998989 -0.00562068)
(0.0384365 0.99916 -0.0142372)
(0.0403518 0.999162 -0.00680363)
(-0.162479 0.982841 0.0873162)
(0.0344507 0.998289 0.0472396)
(0.0346344 0.998235 0.048241)
(0.101084 -0.237992 0.965993)
(0.00632398 0.996701 -0.080918)
(0.897317 -0.439163 -0.044242)
(0.893582 -0.4473 -0.0378615)
(0.11027 0.982771 0.14833)
(0.380536 0.920659 0.0870649)
(0.887712 -0.459617 -0.0268187)
(0.890002 -0.454882 -0.0312912)
(0.185818 0.9824 0.0190321)
(0.170891 0.985196 0.0135874)
(0.186773 0.982232 0.018353)
(0.224202 0.974247 0.0240121)
(0.525848 0.850332 -0.0204731)
(0.545804 0.837531 -0.0253081)
(0.169052 0.985531 0.0122784)
(0.187846 0.982052 0.0169754)
(0.187343 0.982135 0.0176942)
(0.0546052 0.998479 -0.0075503)
(0.0892532 0.996009 -0.000193507)
(0.0820388 0.996628 -0.00124546)
(0.0947716 0.995494 -0.00307041)
(0.129758 0.991544 0.00194707)
(0.100787 0.994905 -0.00243908)
(0.113177 0.993575 -0.000774458)
(0.134908 0.990854 0.00284275)
(0.106914 0.994267 -0.00167885)
(0.140124 0.990124 0.00449796)
(0.154898 0.987902 0.00748844)
(0.133008 0.991111 0.00290601)
(0.0763599 0.997064 -0.00568697)
(0.096945 0.995289 0.00107894)
(0.105182 0.99445 0.00260176)
(0.149981 0.98867 0.00617374)
(0.119601 0.992822 0.000285663)
(0.126201 0.992004 0.00150641)
(0.235346 0.971533 0.0271366)
(0.494391 0.868984 -0.0210702)
(0.481098 0.876499 -0.0171483)
(0.186474 0.982358 0.0141362)
(0.15913 0.987229 0.00749347)
(0.187423 0.982168 0.0148074)
(0.188006 0.982033 0.0162588)
(0.162049 0.986745 0.00859463)
(0.187908 0.982064 0.0155254)
(-0.500685 0.865523 0.013606)
(-0.499565 0.866126 0.0161133)
(0.710132 0.70254 -0.0463644)
(0.461709 0.885929 -0.0442152)
(0.625372 0.779346 -0.039126)
(0.895406 0.445251 2.63549e-05)
(0.188964 0.98182 0.0179468)
(0.126235 0.991841 0.0177914)
(0.352964 0.935222 -0.0278511)
(0.447005 0.894229 -0.0232746)
(0.533788 0.845047 -0.0310703)
(0.144847 0.989245 -0.0203417)
(0.170407 0.985158 -0.0206278)
(0.160716 0.986846 -0.0174751)
(0.150956 0.988506 -0.00819573)
(0.184278 0.982813 -0.0109791)
(0.162301 0.986682 -0.0108194)
(0.189331 0.981758 -0.0174496)
(0.20454 0.978745 -0.0148756)
(0.174951 0.984479 -0.0138619)
(0.271866 0.961548 -0.038925)
(0.340828 0.939195 -0.0418163)
(0.246084 0.968717 -0.0321059)
(0.165212 0.985807 -0.0298368)
(0.180793 0.983227 -0.0240367)
(0.192117 0.980976 -0.0278926)
(0.295234 0.954863 -0.0327625)
(0.20557 0.978405 -0.0215551)
(0.224259 0.974172 -0.026383)
(0.799309 0.6009 0.00501346)
(0.11066 0.993653 0.0202042)
(0.174406 0.984484 0.0193349)
(0.22148 0.975162 -0.00231788)
(0.169535 0.985524 -0.000308087)
(0.261325 0.965231 -0.00613652)
(0.372102 0.928046 -0.0164476)
(0.195419 0.980711 -0.0041722)
(0.310776 0.950422 -0.0107742)
(0.278657 0.959803 0.0336025)
(0.306623 0.951828 -0.00216613)
(0.313322 0.949644 -0.00249158)
(0.168015 0.985733 0.0100737)
(0.127169 0.99188 0.0015179)
(0.171347 0.985156 0.0104017)
(0.177157 0.984118 0.0112664)
(0.131845 0.991268 0.00199641)
(0.174425 0.984611 0.0107923)
(0.0888751 0.996036 -0.00360517)
(0.114021 0.993478 -0.000127776)
(0.0830974 0.996533 -0.00406829)
(0.0255821 0.999638 -0.00831814)
(0.0450609 0.998973 -0.00468231)
(0.0506545 0.998707 -0.00433162)
(0.108751 0.994069 -0.000660539)
(0.0718631 0.997403 -0.00475684)
(0.0774373 0.996987 -0.00444777)
(0.256373 0.966086 0.0308343)
(0.351132 0.936306 -0.00604989)
(0.347941 0.937491 -0.00684517)
(0.185166 0.982614 0.0135058)
(0.148711 0.98887 0.00468956)
(0.183619 0.982913 0.0128926)
(0.179606 0.983668 0.0117791)
(0.144789 0.989455 0.00391166)
(0.181758 0.983266 0.0123185)
(0.0505239 0.998707 -0.00567848)
(0.0876203 0.996152 -0.00218106)
(0.0557115 0.998432 -0.00547925)
(0.0102495 0.999911 -0.0085366)
(0.0396082 0.999203 -0.00501298)
(0.0343159 0.999397 -0.00533043)
(0.0928785 0.995676 -0.00187689)
(0.0663798 0.997782 -0.0050244)
(0.0609972 0.998124 -0.00526528)
(-0.460169 0.887517 0.0236489)
(-0.492117 0.870305 0.0197487)
(-0.00844062 0.999477 0.0312019)
(0.0672204 0.997322 0.0288301)
(0.110889 0.9935 0.025721)
(0.0693984 0.997494 0.0137788)
(0.0779227 0.996882 0.0123846)
(0.0799453 0.996721 0.0124818)
(0.106022 0.994318 0.00949148)
(0.084351 0.996367 0.0117015)
(0.091979 0.995699 0.0110851)
(0.14061 0.990048 -0.00587525)
(0.138911 0.990302 -0.00252257)
(0.131313 0.991333 -0.00393129)
(0.114914 0.993329 -0.00959864)
(0.114517 0.993408 -0.00517622)
(0.121146 0.992613 -0.00654254)
(0.127365 0.991856 -0.000481637)
(0.114926 0.993374 -0.000863176)
(0.12276 0.992434 -0.00224443)
(0.246599 0.96885 0.0227709)
(0.125568 0.991793 0.0240893)
(0.075367 0.996796 0.0267759)
(0.188646 0.982045 0.000908319)
(0.120125 0.992734 0.0069726)
(0.162104 0.986767 0.00357993)
(0.121583 0.99255 0.0078101)
(0.109014 0.994003 0.00855217)
(0.139915 0.990146 0.00587199)
(0.0880804 0.99611 0.00257388)
(0.0923726 0.995713 0.00470924)
(0.0942023 0.995551 0.00204102)
(0.0983528 0.995134 -0.00593589)
(0.108069 0.994136 -0.00390308)
(0.101912 0.994789 -0.00288206)
(0.0998561 0.994995 0.00377389)
(0.107524 0.994202 0.000345033)
(0.10066 0.99492 0.00130482)
(0.902957 -0.426037 -0.0562192)
(0.416527 0.907826 0.048562)
(0.164595 0.986313 0.00976172)
(0.112806 0.993617 0.000334489)
(0.161173 0.986881 0.00945507)
(0.31469 0.948445 0.0377028)
(0.219669 0.975542 0.00794382)
(0.212625 0.97708 0.0102684)
(0.107994 0.994152 -5.67247e-05)
(0.153876 0.98805 0.00887084)
(0.157661 0.987451 0.00913747)
(-0.0260662 0.999584 -0.0123386)
(0.00100834 0.999965 -0.00827722)
(-0.00331297 0.999953 -0.0091189)
(0.013067 0.999872 -0.00918968)
(0.047983 0.998836 -0.00490481)
(0.0173324 0.999814 -0.00848153)
(0.0262757 0.999628 -0.00725708)
(0.0526846 0.998601 -0.00445737)
(0.0217279 0.999733 -0.00783301)
(0.0454583 0.998949 -0.00590574)
(0.0722351 0.997383 -0.00299254)
(0.0405311 0.999159 -0.00617035)
(-0.0131157 0.999864 -0.00997468)
(0.00543288 0.999956 -0.00766296)
(0.00994985 0.999925 -0.00714644)
(0.0672723 0.997729 -0.00331281)
(0.0309492 0.999498 -0.00682863)
(0.0357136 0.999341 -0.00647464)
(0.340554 0.939251 0.0427752)
(0.190187 0.981649 0.0139396)
(0.19483 0.980773 0.0112253)
(0.136444 0.990611 0.00854572)
(0.088061 0.996114 -0.00144707)
(0.141158 0.989952 0.00836708)
(0.149966 0.988654 0.0085714)
(0.0931276 0.995654 -0.00115776)
(0.145755 0.989285 0.0083698)
(-0.0987888 0.994493 0.0349972)
(0.560584 0.827187 0.0388318)
(0.0596742 0.998104 0.0150714)
(0.0612371 0.998026 0.0139249)
(0.0514109 0.998546 0.0162383)
(-0.108235 0.993276 0.0410824)
(0.0729011 0.99683 0.0318613)
(0.0504026 0.998104 0.0353142)
(0.0562796 0.998313 0.0142687)
(0.0372351 0.999138 0.0183657)
(0.0438712 0.998887 0.0173447)
(0.0562316 0.998395 -0.00678515)
(0.0636138 0.997973 -0.00165281)
(0.0585261 0.998283 -0.00230822)
(0.0462396 0.99893 0.000257354)
(0.0460903 0.998915 0.00669792)
(0.0509654 0.9987 0.00117069)
(0.0608551 0.998143 0.00254748)
(0.0510698 0.998671 0.00693068)
(0.0558234 0.998439 0.00196114)
(0.0821857 0.996613 0.00297751)
(0.0728088 0.997324 0.00658783)
(0.07662 0.997055 0.0031536)
(0.0718151 0.997408 -0.00448088)
(0.068724 0.997635 -0.00116901)
(0.0739352 0.997263 -0.000924097)
(0.0670497 0.997726 0.00689919)
(0.0659845 0.997816 0.00295007)
(0.0712336 0.997455 0.00315177)
(-0.139231 0.988841 0.0529976)
(0.0471167 0.998175 0.0377819)
(0.0613222 0.997515 0.0346929)
(0.0114543 0.999643 0.0241331)
(0.0376492 0.999178 0.0150188)
(0.0176251 0.999598 0.0222215)
(0.0306825 0.99934 0.0194676)
(0.0423156 0.998995 0.0148068)
(0.0241642 0.999493 0.020712)
(0.264395 0.958391 0.107619)
(0.110008 0.993308 0.0351652)
(0.0755645 0.997109 0.00801157)
(0.063579 0.782934 -0.618847)
(0.00956383 0.996916 -0.077892)
(0.0593173 0.99677 -0.0541383)
(0.0998765 0.994963 0.00853659)
(0.0326533 0.999413 -0.0104094)
(0.0817059 0.996652 0.00307448)
(0.00888304 0.99991 -0.0100201)
(0.0339156 0.999404 -0.00648006)
(0.00467695 0.99993 -0.01085)
(-0.0427668 0.998873 -0.0205999)
(-0.0262027 0.99953 -0.0159194)
(-0.0221628 0.999645 -0.0147904)
(0.0281692 0.999577 -0.0071938)
(-0.00583738 0.999905 -0.0124918)
(-0.00017466 0.999931 -0.0117146)
(0.359729 0.930875 0.0637727)
(0.126073 0.991653 0.0270102)
(0.13523 0.990362 0.0299322)
(0.131683 0.991253 0.00878586)
(0.0727051 0.997351 -0.00231075)
(0.126932 0.991869 0.00914616)
(0.112959 0.993556 0.00927109)
(0.0663643 0.997792 -0.00280373)
(0.121151 0.99259 0.00932179)
(0.118237 -0.283693 0.951598)
(-0.017293 0.996652 -0.0799076)
(-0.0373069 0.995723 -0.0845266)
(-0.0507375 0.998047 -0.0364402)
(-0.0313256 0.999334 -0.0186956)
(-0.0347579 0.999084 -0.0249578)
(0.00197138 0.999894 -0.0144527)
(-0.0128846 0.999813 -0.0144079)
(-0.0191717 0.999624 -0.0196052)
(0.475347 0.866209 0.154038)
(0.595006 0.801047 0.0655116)
(-0.235459 0.955763 0.176283)
(0.00252299 0.997358 0.0725949)
(-0.044123 0.997983 0.0456435)
(0.0245781 0.756701 -0.653299)
(-0.0423717 0.995138 -0.0889156)
(-0.073539 0.99279 -0.0946523)
(-0.031807 0.998577 0.0427944)
(-0.0208918 0.999734 0.00982092)
(-0.052398 0.997956 0.0365877)
(0.0415237 0.999137 -0.000686426)
(0.0309732 0.9995 0.00634976)
(0.0367632 0.999323 -0.001649)
(0.0347782 0.999261 -0.0163961)
(0.0307225 0.999486 -0.00914052)
(0.0358325 0.999327 -0.00787673)
(0.0247944 0.999672 0.00639461)
(0.0246887 0.999688 -0.00383213)
(0.0313466 0.999505 -0.00263518)
(-0.165774 0.981508 0.0957088)
(0.0122949 0.998107 0.0602547)
(0.0260595 0.99798 0.057932)
(0.00516015 0.99963 0.0266912)
(0.0230925 0.99959 0.0169416)
(-0.000795984 0.99955 0.0300025)
(-0.0170567 0.999106 0.0386929)
(0.0168148 0.999694 0.0181439)
(-0.00758822 0.999393 0.0339899)
(0.0829559 -0.258538 0.962433)
(-0.029244 0.994887 -0.0966631)
(-0.0119781 0.995609 -0.0928417)
(0.0200614 0.999025 -0.0393354)
(0.0251007 0.999618 -0.011606)
(0.0170327 0.999555 -0.0245044)
(-0.00684345 0.999949 -0.00738173)
(0.0169387 0.999836 -0.00633997)
(0.00597368 0.99978 -0.020129)
(0.899513 -0.434292 -0.0476049)
(0.892503 -0.449644 -0.0354753)
(-0.663813 0.744324 -0.0730341)
(0.39553 0.915907 0.0683376)
(0.887043 -0.461012 -0.024945)
(0.891291 -0.452202 -0.0333553)
(0.328153 0.944541 0.0125775)
(0.220632 0.975095 0.0225933)
(0.845277 0.53375 -0.0248513)
(0.2373 0.971231 0.0199573)
(0.319642 0.947413 0.0154328)
(0.241429 0.970003 0.0283793)
(0.763105 0.645862 -0.0230767)
(0.24513 0.969197 0.0238303)
(0.770216 0.637352 -0.0234592)
(0.24719 0.968685 0.0233824)
(0.319084 0.947596 0.0157417)
(-0.500422 0.865691 0.0125485)
(-0.49966 0.86605 0.0172359)
(-0.171906 0.985075 0.008692)
(0.910222 0.41412 -0.00099863)
(0.71101 0.703162 -0.00522843)
(-0.525467 0.850793 0.00606183)
(-0.181083 0.983393 0.0121567)
(0.67722 0.735715 0.00988057)
(0.321081 0.946965 0.0128091)
(-0.556343 0.830913 0.00811782)
(0.350435 0.936518 0.0113828)
(-0.556108 0.831072 0.00797152)
(-0.177753 0.983998 0.0123044)
(0.311733 0.949969 0.0195343)
(0.289683 0.956488 0.0348363)
(0.586955 0.809585 -0.00753515)
(0.239557 0.97044 0.0292951)
(0.598978 0.800716 -0.00892089)
(0.242434 0.969746 0.0285965)
(0.31094 0.950219 0.0200104)
(0.318758 0.947699 0.0161326)
(0.247875 0.968338 0.0296544)
(0.75455 0.655854 -0.0225715)
(0.246794 0.968771 0.0239969)
(0.745604 0.666027 -0.0219661)
(0.318 0.947956 0.0159747)
(0.246176 0.96892 0.0243331)
(-0.428496 0.903169 0.0259951)
(-0.497218 0.86743 0.0184037)
(-0.190266 0.981585 0.0170022)
(-0.0533521 0.997991 0.0341619)
(0.0695129 0.997137 0.0297636)
(-0.490849 0.87115 0.0128753)
(0.0793793 0.996432 0.0286882)
(-0.498299 0.866915 0.0125079)
(-0.186518 0.9823 0.0172307)
(-0.180602 0.983472 0.0128518)
(0.466978 0.884111 0.0166898)
(0.29771 0.954554 0.0139929)
(-0.558089 0.82974 0.00832711)
(-0.18074 0.983449 0.0126586)
(0.270976 0.962464 0.0153559)
(-0.552129 0.833715 0.00851636)
(0.901853 -0.428973 -0.0514134)
(0.400993 0.91431 0.0569376)
(0.310897 0.950219 0.020667)
(0.573612 0.819105 -0.00594857)
(0.239918 0.97034 0.0296725)
(0.300891 0.952968 0.0362831)
(0.310251 0.950436 0.0203962)
(0.559908 0.828544 -0.00418319)
(0.238191 0.970745 0.0303133)
(0.302685 0.95264 0.0293048)
(0.347923 0.936355 0.0467808)
(0.391988 0.91953 0.0284641)
(0.217986 0.974948 0.0442609)
(0.400581 0.915908 0.0254371)
(0.220934 0.974375 0.0421978)
(0.301355 0.953014 0.0308295)
(-0.343798 0.938581 0.0294849)
(0.605391 0.7948 0.042375)
(-0.189694 0.981677 0.0180726)
(0.0630755 0.997537 0.0306916)
(-0.484748 0.874552 0.0133363)
(-0.0865429 0.995546 0.0373933)
(-0.189651 0.981692 0.017731)
(0.0530999 0.998079 0.0319133)
(-0.470839 0.882112 0.0137878)
(-0.198255 0.97976 0.0276496)
(-0.147807 0.987118 0.06125)
(-0.0107433 0.998461 0.0544024)
(-0.315336 0.948671 0.0242073)
(-0.0073891 0.998642 0.051573)
(-0.326765 0.944821 0.0231761)
(-0.195535 0.98027 0.0289392)
(0.214522 0.976711 -0.00396767)
(0.288878 0.957148 0.0204222)
(0.396688 0.917262 0.0356261)
(0.14996 0.987899 -0.0395922)
(0.275632 0.961249 0.00525434)
(0.126321 0.991174 -0.0402034)
(0.224071 0.974436 0.0163519)
(0.300443 0.953196 0.0339195)
(0.354083 0.933694 0.0533026)
(0.382878 0.923245 0.031995)
(0.216677 0.975143 0.046328)
(0.373683 0.926849 0.0362252)
(0.300656 0.953182 0.0324119)
(0.214023 0.975597 0.0490348)
(0.807164 0.578575 0.117205)
(0.612058 0.789217 0.0502059)
(-0.208644 0.977987 -0.00312032)
(-0.281766 0.95908 -0.0278085)
(-0.0562914 0.995789 -0.0723524)
(-0.379664 0.924027 -0.0450498)
(-0.0695043 0.996477 -0.0469372)
(-0.313261 0.949568 0.013693)
(-0.182511 0.981002 -0.0657606)
(-0.199318 0.979383 0.032879)
(-0.157326 0.984772 0.0739831)
(-0.0136812 0.998248 0.0575582)
(-0.305278 0.951917 0.0256719)
(-0.197834 0.979752 0.0307825)
(-0.0188505 0.997914 0.0617399)
(-0.293782 0.955478 0.0274482)
(0.180881 -0.586293 0.789647)
(0.135808 -0.246952 0.959464)
(-0.136658 0.787403 -0.6011)
(0.102671 -0.167214 0.98056)
(0.896525 -0.440978 -0.0422083)
(0.894945 -0.444421 -0.0395437)
(0.266958 0.952841 0.144316)
(0.368038 0.923857 0.10505)
(0.888419 -0.458174 -0.028076)
(0.889483 -0.455986 -0.0299509)
(0.323734 0.946049 0.0137294)
(0.226935 0.973591 0.0249247)
(0.817301 0.575663 -0.0251233)
(0.240616 0.970376 0.0217707)
(0.822118 0.568762 -0.0251596)
(0.323462 0.946137 0.0140149)
(0.24171 0.970113 0.0213656)
(0.323219 0.946215 0.0143872)
(0.231614 0.972452 0.0262925)
(0.811405 0.58395 -0.0249988)
(0.243004 0.969777 0.0219425)
(0.805215 0.592463 -0.0248083)
(0.322472 0.946472 0.0142186)
(0.243367 0.96968 0.0222314)
(-0.501203 0.865211 0.0143113)
(-0.500826 0.865412 0.015365)
(-0.176875 0.984182 0.0100854)
(0.879266 0.47633 0.000996208)
(0.558965 0.82919 0.00171962)
(-0.547655 0.836676 0.00684909)
(0.58915 0.808024 0.000326139)
(-0.544502 0.838732 0.00674832)
(-0.173985 0.984695 0.010239)
(-0.176299 0.984278 0.0107651)
(0.841698 0.539941 0.00302553)
(0.529944 0.848027 0.00304298)
(-0.552365 0.833573 0.00701062)
(0.498416 0.866926 0.00449824)
(-0.549442 0.835501 0.00713207)
(-0.176537 0.984237 0.0105841)
(0.314968 0.94893 0.0180663)
(0.271373 0.961913 0.0328603)
(0.674381 0.738199 -0.0164843)
(0.246111 0.968883 0.0263586)
(0.662124 0.749238 -0.0153016)
(0.314163 0.9492 0.0179024)
(0.245004 0.969153 0.0267655)
(0.315685 0.948707 0.0172724)
(0.262103 0.964521 0.0316254)
(0.685699 0.727676 -0.0174839)
(0.244966 0.969179 0.0261566)
(0.695865 0.717938 -0.0183519)
(0.315134 0.948884 0.0176176)
(0.24737 0.968582 0.0256358)
(-0.476093 0.879112 0.0223065)
(-0.48926 0.871893 0.0206937)
(-0.184713 0.982675 0.0151734)
(0.0380684 0.998849 0.0291639)
(0.147236 0.988838 0.022817)
(-0.538113 0.84281 0.0103117)
(0.131338 0.991049 0.0239349)
(-0.527228 0.849657 0.0106253)
(-0.185173 0.982592 0.0149492)
(-0.185813 0.98248 0.014391)
(0.142343 0.989484 0.0256971)
(0.158899 0.987051 0.0219454)
(-0.539173 0.842136 0.0100077)
(0.176178 0.984138 0.0208297)
(-0.542912 0.839732 0.00977085)
(-0.181993 0.983192 0.0145556)
(0.90669 -0.417545 -0.0597521)
(0.915309 -0.397398 -0.0654575)
(0.308094 0.951079 0.022944)
(0.32228 0.945845 0.0389064)
(0.481703 0.876305 0.00721397)
(0.231858 0.972146 0.0342654)
(0.493103 0.869955 0.00526827)
(0.307187 0.951354 0.0236797)
(0.234445 0.971559 0.0332942)
(0.307252 0.951306 0.024748)
(0.333216 0.941953 0.0411378)
(0.469198 0.883042 0.00945149)
(0.23171 0.972157 0.0349536)
(0.456612 0.889586 0.0119244)
(0.306594 0.95153 0.0243153)
(0.229744 0.972587 0.0359434)
(0.211314 0.976693 0.0376386)
(0.506078 0.861665 0.037671)
(-0.194075 0.980766 0.0208025)
(-0.117706 0.992077 0.0439124)
(0.0212266 0.999018 0.0388832)
(-0.410574 0.911665 0.0172114)
(0.0263425 0.998947 0.0375499)
(-0.421699 0.906583 0.0166732)
(-0.190484 0.981461 0.0212241)
(-0.192971 0.980946 0.0225141)
(-0.131439 0.990118 0.0488824)
(0.0178897 0.999034 0.0401456)
(-0.400922 0.915937 0.0178934)
(0.0116315 0.999059 0.0417831)
(-0.384955 0.922749 0.0185523)
(-0.193062 0.980941 0.0219445)
(0.272914 0.960143 0.060355)
(0.319753 0.942189 0.100187)
(0.310432 0.947329 0.0787331)
(0.185345 0.979499 0.0789263)
(0.295204 0.951397 0.0877409)
(0.281264 0.957964 0.0565207)
(0.171483 0.981636 0.083572)
(0.0592646 0.985916 -0.156387)
(-0.00354593 -0.575166 0.818029)
(-0.024803 0.907159 -0.420057)
(0.0269122 -0.590445 0.806629)
(0.025943 0.976643 -0.213297)
(-0.00268038 0.924638 -0.380838)
(0.0375405 0.794998 -0.605449)
(0.292398 0.955131 0.0471949)
(0.356193 0.931354 0.0755376)
(0.323826 0.943473 0.0706797)
(0.194514 0.978129 0.0736775)
(0.332938 0.940794 0.0637054)
(0.287641 0.956343 0.0516746)
(0.201426 0.97711 0.0684309)
(-0.0282912 0.965685 -0.25817)
(0.0757597 -0.319416 0.944581)
(-0.0460889 0.897624 -0.438347)
(0.0747374 -0.449545 0.890126)
(0.00525354 0.976975 -0.213288)
(-0.0707593 0.878803 -0.471909)
(0.103231 -0.416997 0.903026)
(0.551959 0.82452 0.124528)
(0.59419 0.800101 0.0823196)
(-0.212421 0.973215 0.0879244)
(-0.198194 0.966101 0.16543)
(-0.0465928 0.992493 0.113082)
(-0.248947 0.966384 0.0642454)
(-0.0597554 0.990636 0.122759)
(-0.250677 0.964905 0.0782243)
(-0.207224 0.975387 0.075351)
(-0.0429273 0.839829 -0.541151)
(-0.00191776 -0.559976 0.828507)
(-0.0402708 0.778018 -0.62695)
(0.0167914 -0.396017 0.918089)
(-0.00587212 0.881978 -0.471254)
(-0.0525323 0.753375 -0.65549)
(0.0130819 -0.46987 0.882639)
(-0.204555 0.977239 0.0562324)
(-0.171847 0.977869 0.119332)
(-0.0386124 0.993876 0.103535)
(-0.252844 0.965948 0.0549)
(-0.033587 0.994983 0.0942372)
(-0.256608 0.965334 0.0477733)
(-0.203828 0.976828 0.0652739)
(0.0963094 -0.586075 0.804513)
(0.0477638 -0.324154 0.944798)
(-0.0453929 0.807126 -0.588632)
(0.0283237 -0.290107 0.956575)
(0.0909596 -0.701457 0.706884)
(-0.0616316 0.733987 -0.676362)
(0.0388956 -0.257394 0.965523)
(0.898836 -0.435824 -0.0463869)
(0.892887 -0.448816 -0.0362795)
(-0.164294 0.98587 0.0326647)
(0.387373 0.918943 0.0740736)
(0.887279 -0.460523 -0.0255956)
(0.890867 -0.45309 -0.0326269)
(0.284809 0.958463 -0.0152422)
(0.328295 0.944369 -0.0197628)
(0.326682 0.945048 0.0127707)
(0.221739 0.974833 0.0230686)
(0.83744 0.54595 -0.0251512)
(0.237663 0.971129 0.0206271)
(0.841142 0.540234 -0.0250349)
(0.238719 0.970878 0.0202136)
(0.326311 0.945172 0.0130685)
(0.288396 0.957377 -0.0160249)
(0.00493777 0.999647 0.0261163)
(0.0152826 0.999867 0.00576197)
(0.0191185 0.99953 0.0239753)
(-0.0247575 0.999667 0.00726806)
(6.20383e-05 0.999894 0.0145333)
(-0.0342521 0.999307 0.0145787)
(-0.0288854 0.99946 0.0156352)
(0.0108475 0.9998 0.016785)
(0.00762613 0.999759 0.0206014)
(-0.0265242 0.999621 0.00730971)
(-0.00287394 0.999711 0.0238527)
(0.00926257 0.999945 0.0048713)
(0.147742 0.987305 0.0583238)
(-0.0159756 0.999851 0.00649838)
(0.0632539 0.997896 0.0142572)
(0.0863653 0.9951 0.048144)
(0.0402053 0.998758 0.0294312)
(0.164174 0.985223 0.0488107)
(0.122163 0.990857 0.0572653)
(0.0794694 0.996685 0.0173994)
(0.208489 0.975256 0.0735396)
(-0.0143336 0.999878 0.00624541)
(0.118205 0.992212 0.0392863)
(0.0197226 0.999488 0.0252027)
(0.306287 0.951743 -0.0193114)
(0.269054 0.963051 -0.0119868)
(0.321151 0.946906 0.0152239)
(0.239137 0.970583 0.0279874)
(0.786048 0.61769 -0.0242218)
(0.246143 0.968963 0.0229155)
(0.778132 0.62765 -0.0237945)
(0.245672 0.969075 0.0232355)
(0.320669 0.947072 0.0150384)
(0.265505 0.964044 -0.0112736)
(0.301591 0.953246 -0.0190872)
(-0.500841 0.865443 0.0129163)
(-0.499404 0.866205 0.0168334)
(-0.606807 0.79465 0.0177994)
(-0.532831 0.845887 0.023789)
(-0.174481 0.984619 0.00905099)
(0.905964 0.423355 -0.000684053)
(0.66863 0.743588 -0.00328741)
(-0.536408 0.843935 0.00631876)
(0.690511 0.723309 -0.00430284)
(-0.532723 0.846267 0.00622234)
(-0.172413 0.984982 0.00921064)
(-0.550625 0.834408 0.0239939)
(-0.618224 0.785805 0.0176012)
(0.0967218 0.995246 -0.0113935)
(0.173299 0.984265 -0.0345009)
(0.142383 0.989726 -0.0130236)
(0.142925 0.989266 -0.0304002)
(0.140484 0.98964 -0.0296155)
(0.126012 0.991654 -0.0272657)
(0.132338 0.990765 -0.0295268)
(0.148622 0.988386 -0.0316901)
(0.137352 0.990445 -0.0123741)
(0.132341 0.990819 -0.0276396)
(0.0942713 0.99549 -0.0105658)
(0.15955 0.986683 -0.0316211)
(0.173704 0.984627 -0.0183623)
(0.224689 0.973113 -0.0506642)
(0.270964 0.961045 -0.0545048)
(0.111413 0.993652 -0.0155644)
(0.191217 0.980287 -0.0497392)
(0.21954 0.974265 -0.0510848)
(0.115496 0.993167 -0.0167268)
(0.299541 0.952166 -0.0604623)
(0.181625 0.983166 -0.0199038)
(0.248824 0.966911 -0.0563055)
(0.203974 0.977861 -0.0467121)
(0.178083 0.982968 -0.0453915)
(-0.431521 0.901813 0.0228778)
(-0.529033 0.848389 0.0189739)
(-0.17785 0.983987 0.011785)