/*--------------------------------*- C++ -*----------------------------------*\
| =========                 |                                                 |
| \\      /  F ield         | OpenFOAM: The Open Source CFD Toolbox           |
|  \\    /   O peration     | Version:  2012                                  |
|   \\  /    A nd           | Website:  www.openfoam.com                      |
|    \\/     M anipulation  |                                                 |
\*---------------------------------------------------------------------------*/
FoamFile
{
    version     2.0;
    format      ascii;
    class       volVectorField;
    location    "0.104/solid";
    object      U;
}
// * * * * * * * * * * * * * * * * * * * * * * * * * * * * * * * * * * * * * //

dimensions      [0 1 -1 0 0 0 0];


internalField   nonuniform List<vector> 
3125
(
(-0.0554105 0.000188919 -0.0132532)
(-0.0399503 -0.000630373 -0.0123878)
(-0.089684 0.00316036 -0.0138972)
(-0.0736427 0.00166952 -0.0136239)
(-0.0389584 -0.000664627 -0.0123077)
(-0.0382054 0.00156913 0.00150832)
(-0.0250753 0.000845743 0.00131111)
(-0.0389112 -0.000559387 -0.0116311)
(-0.0390828 -0.000645243 -0.012336)
(-0.0385136 0.00156192 0.00137766)
(-0.025308 0.000834806 0.00123454)
(-0.0390949 -0.000531928 -0.0116747)
(-0.0553668 0.000317576 -0.0125229)
(-0.0401974 0.00170454 0.0015307)
(-0.0399034 -0.000523391 -0.0117067)
(-0.0546807 0.00286525 0.00164776)
(-0.0555589 0.000198229 -0.0133104)
(-0.0400765 -0.000611692 -0.0124181)
(-0.055586 0.000330807 -0.0126087)
(-0.0405153 0.00169782 0.00139208)
(-0.0400897 -0.000496923 -0.0117531)
(-0.0550569 0.00286155 0.00145975)
(-0.0564701 0.000262287 -0.0132905)
(-0.0725633 0.00157153 -0.0136152)
(-0.0564265 0.000392085 -0.0125583)
(-0.0718621 0.00452256 0.00170471)
(-0.0568057 0.0030577 0.00165903)
(-0.0725225 0.00171397 -0.0128664)
(-0.0566196 0.000271066 -0.0133493)
(-0.0727254 0.00157398 -0.0136906)
(-0.0566474 0.000404566 -0.0126462)
(-0.0722831 0.00452126 0.00148745)
(-0.0571889 0.00305436 0.00146548)
(-0.0727621 0.00171752 -0.0129786)
(-0.0898746 0.00331313 -0.0132351)
(-0.0740244 0.00474178 0.00170727)
(-0.073602 0.00181251 -0.0128749)
(-0.0898436 0.00317289 -0.013914)
(-0.0738053 0.00167167 -0.0137001)
(-0.0900947 0.00332522 -0.0132836)
(-0.0744491 0.00474067 0.00148874)
(-0.0738425 0.00181564 -0.0129881)
(-0.0480792 -0.000262316 -0.012924)
(-0.0470464 -0.000317274 -0.0128668)
(-0.0822738 0.00248269 -0.0136572)
(-0.0811959 0.00237874 -0.0136558)
(-0.0312657 -0.000843665 -0.011554)
(-0.0322013 -0.000830428 -0.0116595)
(-0.0251175 -5.53491e-05 -0.00494674)
(-0.031217 -0.000753631 -0.0109198)
(-0.03054 8.36887e-05 -0.00527448)
(-0.0323872 0.0012116 0.00143251)
(-0.0382033 0.000690506 -0.00382825)
(-0.0323897 0.00041589 -0.00365718)
(-0.0250849 0.0001719 -0.00336948)
(-0.0305072 0.00110855 0.00140434)
(-0.0305114 0.000342135 -0.00359186)
(-0.0321527 -0.000738375 -0.0110194)
(-0.038227 0.000394561 -0.00562437)
(-0.0324171 0.000147617 -0.00537099)
(-0.0313743 -0.000818346 -0.0115668)
(-0.032312 -0.000805874 -0.0116742)
(-0.0253748 -1.43273e-05 -0.00498597)
(-0.0313772 -0.000717783 -0.0109408)
(-0.0308347 0.000118312 -0.00534096)
(-0.0326647 0.00120286 0.00132581)
(-0.0385506 0.000708928 -0.00394536)
(-0.0327029 0.00043843 -0.00374498)
(-0.0253477 0.000200303 -0.00342055)
(-0.0307739 0.00109927 0.00130547)
(-0.0308125 0.000366103 -0.00367011)
(-0.0323161 -0.000703606 -0.0110432)
(-0.0385667 0.000421184 -0.00572986)
(-0.0327236 0.000180179 -0.00544707)
(-0.0480339 -0.000142715 -0.0122124)
(-0.0546848 0.00144945 -0.0060653)
(-0.048386 0.000989901 -0.0059362)
(-0.0401939 0.000800001 -0.00387737)
(-0.0463036 0.00215834 0.00158925)
(-0.0462961 0.00118141 -0.00400294)
(-0.047001 -0.000199121 -0.0121584)
(-0.0402165 0.000495456 -0.0056973)
(-0.0463156 0.000853021 -0.00588403)
(-0.054669 0.00180493 -0.00412476)
(-0.0483761 0.00232479 0.00160594)
(-0.0483675 0.00132558 -0.00403798)
(-0.0482183 -0.000248935 -0.0129694)
(-0.0471841 -0.000303265 -0.0129104)
(-0.0482395 -0.000123737 -0.012281)
(-0.0550957 0.00146248 -0.00624317)
(-0.0487733 0.0010076 -0.00608918)
(-0.0405518 0.000817113 -0.00400426)
(-0.0466484 0.002153 0.00142768)
(-0.0466835 0.00119481 -0.00415824)
(-0.0472044 -0.000179252 -0.0122243)
(-0.0405665 0.00052019 -0.00581262)
(-0.0466941 0.000872392 -0.00602796)
(-0.0550901 0.00181392 -0.00431355)
(-0.0487293 0.00231989 0.00143721)
(-0.048764 0.00133781 -0.00420224)
(-0.0639456 0.000829813 -0.0134926)
(-0.0650199 0.00091777 -0.0135137)
(-0.0568082 0.0016176 -0.0060999)
(-0.0639034 0.000966539 -0.0127495)
(-0.0632281 0.00216018 -0.00618148)
(-0.0653834 0.00387529 0.00169168)
(-0.0718449 0.00334474 -0.0042487)
(-0.0653679 0.00273337 -0.00421741)
(-0.0567932 0.00197898 -0.00414806)
(-0.0632301 0.00366486 0.00168528)
(-0.0632153 0.00253714 -0.00420335)
(-0.0649779 0.00105534 -0.0127694)
(-0.0718556 0.00295207 -0.00624689)
(-0.0653802 0.00235194 -0.00620202)
(-0.064102 0.000835223 -0.0135607)
(-0.0651771 0.000922757 -0.0135828)
(-0.0572261 0.0016292 -0.00628515)
(-0.0641347 0.000974269 -0.0128509)
(-0.0636646 0.00216792 -0.00638563)
(-0.0657906 0.00387324 0.00148128)
(-0.0723126 0.00334725 -0.00447926)
(-0.0658215 0.00273791 -0.00443673)
(-0.0572216 0.00198698 -0.00434409)
(-0.0636319 0.00366251 0.00147827)
(-0.0636632 0.00254246 -0.00441772)
(-0.0652104 0.00106247 -0.0128725)
(-0.0723107 0.00295576 -0.00646817)
(-0.065822 0.00235855 -0.00641132)
(-0.0822342 0.00262888 -0.0129085)
(-0.0898329 0.00480783 -0.00584745)
(-0.0826583 0.00400422 -0.00627996)
(-0.0740066 0.00355425 -0.00425599)
(-0.0805077 0.00540307 0.00171097)
(-0.0804887 0.00419316 -0.0042704)
(-0.081156 0.00252464 -0.0129069)
(-0.0740168 0.00315856 -0.00625705)
(-0.0804978 0.00379053 -0.00627639)
(-0.08983 0.00501274 -0.00484)
(-0.0826688 0.00562383 0.00171127)
(-0.0826493 0.0044085 -0.00427316)
(-0.0824395 0.00248317 -0.0137372)
(-0.0813612 0.00237935 -0.0137355)
(-0.0824793 0.00262966 -0.0130272)
(-0.0900707 0.00480733 -0.00596413)
(-0.0831272 0.00400472 -0.0065108)
(-0.0744781 0.0035562 -0.00448917)
(-0.0809412 0.00540239 0.00149105)
(-0.080969 0.00419374 -0.0045085)
(-0.0814007 0.0025256 -0.0130252)
(-0.0744756 0.00316145 -0.00648122)
(-0.0809649 0.00379153 -0.00650625)
(-0.0900696 0.0050122 -0.00495788)
(-0.0831044 0.0056232 0.00149151)
(-0.0831316 0.00440868 -0.004512)
(-0.0522487 -1.82597e-05 -0.013127)
(-0.0429607 -0.000511774 -0.0126103)
(-0.0866078 0.00290347 -0.0136684)
(-0.0768811 0.00196897 -0.0136432)
(-0.0276083 -0.000871418 -0.0110984)
(-0.0360205 -0.000751493 -0.0120489)
(-0.0275588 -0.000789784 -0.0104895)
(-0.0274757 -0.00042681 -0.00802215)
(-0.0362384 0.00144183 0.0014845)
(-0.0381944 0.0012773 -0.000266951)
(-0.0362274 0.00115897 -0.000265107)
(-0.0250652 0.000622192 -0.000245125)
(-0.0268491 0.000925849 0.00134364)
(-0.0268388 0.000691788 -0.000249701)
(-0.0359727 -0.000651695 -0.0113869)
(-0.0388548 -0.00010894 -0.0089046)
(-0.0359096 -0.000221265 -0.00871492)
(-0.027708 -0.000842954 -0.0111038)
(-0.0361392 -0.000729943 -0.0120713)
(-0.0277059 -0.000749491 -0.0104999)
(-0.0276204 -0.000396677 -0.00804144)
(-0.0365366 0.00143412 0.00136184)
(-0.0385219 0.00127842 -0.000395667)
(-0.0365444 0.00116018 -0.000385054)
(-0.0253126 0.000624052 -0.000314678)
(-0.0270933 0.00091547 0.00125989)
(-0.0270985 0.000693534 -0.000327105)
(-0.036148 -0.000621174 -0.011422)
(-0.0390357 -8.83651e-05 -0.00895539)
(-0.0360822 -0.000198465 -0.00875763)
(-0.0522043 0.000106746 -0.0124038)
(-0.0553394 0.000854256 -0.0095991)
(-0.0521717 0.000630084 -0.00950519)
(-0.0401863 0.00140403 -0.000268471)
(-0.0422124 0.00184799 0.00155164)
(-0.0422011 0.00153907 -0.000269712)
(-0.0429144 -0.000399781 -0.0119165)
(-0.0398486 -6.64048e-05 -0.00896257)
(-0.042866 7.5605e-05 -0.0091259)
(-0.0546692 0.00251216 -0.000273501)
(-0.0525663 0.00267865 0.00163518)
(-0.0525549 0.00233214 -0.00027311)
(-0.0523933 -7.27552e-06 -0.0131793)
(-0.0430921 -0.000495156 -0.0126463)
(-0.052418 0.00012234 -0.0124826)
(-0.0555565 0.00086424 -0.00968941)
(-0.0523832 0.000641784 -0.00958896)
(-0.0405239 0.00140504 -0.00040591)
(-0.0425395 0.00184174 0.00140518)
(-0.0425486 0.00153999 -0.000415756)
(-0.0431084 -0.000376228 -0.0119715)
(-0.0400323 -4.6626e-05 -0.00901605)
(-0.0430573 9.32698e-05 -0.00918738)
(-0.0550681 0.00251256 -0.000465503)
(-0.0529352 0.00267456 0.00145317)
(-0.0529462 0.00233262 -0.000458404)
(-0.0596626 0.000494486 -0.0133895)
(-0.0693268 0.00128391 -0.0135808)
(-0.0564002 0.000933002 -0.00962664)
(-0.0596197 0.000627478 -0.0126518)
(-0.0595981 0.00118005 -0.00970103)
(-0.0697006 0.00430472 0.00170132)
(-0.0718507 0.00412923 -0.000277959)
(-0.0696891 0.00391512 -0.000277147)
(-0.0567942 0.00269835 -0.000273875)
(-0.0589399 0.00325548 0.00166901)
(-0.0589284 0.00289021 -0.000274267)
(-0.0692855 0.00142448 -0.0128334)
(-0.0725143 0.00230099 -0.00987655)
(-0.0692742 0.00200469 -0.00984816)
(-0.0598153 0.000501739 -0.0134525)
(-0.069487 0.00128735 -0.0136539)
(-0.0566192 0.000942387 -0.009719)
(-0.0598454 0.000637807 -0.012746)
(-0.059822 0.00118788 -0.00979912)
(-0.0701174 0.00430318 0.00148582)
(-0.072296 0.00412912 -0.000504079)
(-0.0701301 0.00391506 -0.000500981)
(-0.0572004 0.00269867 -0.000472095)
(-0.0593296 0.0032525 0.00147043)
(-0.0593414 0.00289046 -0.000478178)
(-0.0695224 0.00142943 -0.0129422)
(-0.0727531 0.00230378 -0.0099908)
(-0.06951 0.0020085 -0.00995938)
(-0.0865786 0.00305057 -0.0129252)
(-0.0898446 0.00397812 -0.00993729)
(-0.0865933 0.00365806 -0.00992603)
(-0.0740129 0.0043451 -0.000278831)
(-0.0761864 0.00496188 0.0017091)
(-0.076175 0.00456224 -0.000279737)
(-0.0768407 0.00211341 -0.0128939)
(-0.0735943 0.00240155 -0.00988395)
(-0.0768356 0.00270772 -0.00990166)
(-0.0898267 0.00583219 -0.000828461)
(-0.0870401 0.00566235 -0.000280355)
(-0.0867729 0.00290457 -0.0137444)
(-0.077045 0.00197034 -0.0137212)
(-0.0868235 0.00305191 -0.0130396)
(-0.0900901 0.00397687 -0.0100624)
(-0.0868395 0.00365804 -0.0100474)
(-0.0744621 0.00434494 -0.000506722)
(-0.0766145 0.00496094 0.00148974)
(-0.0766276 0.00456202 -0.000508927)
(-0.0770833 0.00211544 -0.0130097)
(-0.073834 0.00240401 -0.00999904)
(-0.0770776 0.00270938 -0.0100189)
(-0.0900623 0.0058317 -0.000945166)
(-0.0875047 0.00566155 -0.00051151)
(-0.0512009 -8.28226e-05 -0.01308)
(-0.0439749 -0.000467006 -0.0126787)
(-0.0855154 0.00279762 -0.0136618)
(-0.0779602 0.0020704 -0.0136476)
(-0.0285094 -0.000868193 -0.0112174)
(-0.0350547 -0.00077516 -0.0119564)
(-0.0251627 -0.000285581 -0.00655583)
(-0.026888 -1.75348e-05 -0.00506249)
(-0.0269315 -0.000258763 -0.00670916)
(-0.02846 -0.000784414 -0.0106019)
(-0.0311432 -0.000359471 -0.00835443)
(-0.028379 -0.00041333 -0.00810808)
(-0.0286963 2.87169e-05 -0.00517169)
(-0.03058 -0.000178665 -0.0069902)
(-0.0287379 -0.000223226 -0.00685389)
(-0.0342983 0.00132267 0.00145923)
(-0.0323765 0.000947487 -0.000260297)
(-0.0342874 0.00104904 -0.000262902)
(-0.038193 0.000984909 -0.00204253)
(-0.0362377 0.000589994 -0.00377525)
(-0.0362266 0.000875491 -0.00201513)
(-0.0323768 0.000682692 -0.00195373)
(-0.0342992 0.000498474 -0.00371827)
(-0.0342872 0.000774768 -0.00198555)
(-0.0250681 0.000397958 -0.00180242)
(-0.0268568 0.000220388 -0.00344811)
(-0.026841 0.000457031 -0.00184399)
(-0.0286604 0.00101337 0.00137471)
(-0.0304966 0.000854201 -0.000257251)
(-0.02865 0.000769038 -0.00025373)
(-0.0286664 0.000277042 -0.00352221)
(-0.0304975 0.000599158 -0.00191957)
(-0.0286516 0.000524011 -0.00188302)
(-0.0350067 -0.000677249 -0.0112996)
(-0.0320808 -0.000336604 -0.00843064)
(-0.0349418 -0.000253896 -0.00864804)
(-0.0382605 9.37308e-05 -0.00745481)
(-0.0362626 0.000302966 -0.00554578)
(-0.0362977 1.12629e-05 -0.00735038)
(-0.0324553 -0.000124841 -0.00711827)
(-0.0343253 0.000220671 -0.00546138)
(-0.0343619 -6.15728e-05 -0.00723826)
(-0.0286114 -0.000840523 -0.0112246)
(-0.0351714 -0.000752869 -0.0119769)
(-0.02541 -0.000235834 -0.00658412)
(-0.0271581 2.13217e-05 -0.0051105)
(-0.0271911 -0.000211642 -0.00674606)
(-0.0286106 -0.00074524 -0.0106149)
(-0.0313007 -0.000332648 -0.00838387)
(-0.0285271 -0.000384096 -0.00812986)
(-0.0289789 6.54374e-05 -0.00522881)
(-0.0308632 -0.000136669 -0.00704527)
(-0.0290096 -0.000178689 -0.00689975)
(-0.0345863 0.00131444 0.00134458)
(-0.0326715 0.000948909 -0.000362788)
(-0.0345936 0.00105036 -0.000374089)
(-0.0385353 0.000994554 -0.00216734)
(-0.036574 0.000609758 -0.00388255)
(-0.036558 0.000885848 -0.00213052)
(-0.0326853 0.000694521 -0.00205039)
(-0.0346241 0.000519612 -0.00381578)
(-0.0346073 0.000785853 -0.00209154)
(-0.0253269 0.000412897 -0.00186376)
(-0.0271327 0.00024729 -0.00350794)
(-0.0271127 0.000471175 -0.00191375)
(-0.028916 0.00100354 0.00128352)
(-0.0307802 0.000855731 -0.00035118)
(-0.0289218 0.000770674 -0.000339279)
(-0.028955 0.000302464 -0.00359111)
(-0.0307941 0.000611745 -0.00200705)
(-0.0289358 0.000537369 -0.00196151)
(-0.0351791 -0.000645677 -0.0113318)
(-0.0322416 -0.000310649 -0.0084627)
(-0.0351114 -0.000230264 -0.00868807)
(-0.0385867 0.000126044 -0.00754824)
(-0.0365917 0.000331525 -0.00564142)
(-0.0366137 4.59202e-05 -0.00743411)
(-0.0327499 -8.53393e-05 -0.00718276)
(-0.0346433 0.00025121 -0.00554719)
(-0.0346674 -2.45179e-05 -0.00731233)
(-0.0511563 4.08871e-05 -0.0123596)
(-0.0479945 0.00036077 -0.00935559)
(-0.0511225 0.000559412 -0.00947091)
(-0.0547075 0.00108816 -0.00804084)
(-0.0525723 0.0012885 -0.00602663)
(-0.0525961 0.000933503 -0.00798954)
(-0.0484123 0.000648602 -0.00786941)
(-0.0504721 0.00113518 -0.00598366)
(-0.0504972 0.000786849 -0.00793248)
(-0.0401844 0.00110301 -0.00206785)
(-0.0422075 0.000918411 -0.00392277)
(-0.0421988 0.00122971 -0.00209117)
(-0.0442484 0.00199932 0.00157116)
(-0.0462922 0.00183349 -0.000271513)
(-0.0442371 0.00168229 -0.000270713)
(-0.0442422 0.00104561 -0.00396458)
(-0.0462889 0.00150836 -0.00213216)
(-0.0442342 0.00136489 -0.00211258)
(-0.0439288 -0.000353416 -0.0119809)
(-0.0469601 0.00029897 -0.00931395)
(-0.043882 0.000127944 -0.00917544)
(-0.0402484 0.000185834 -0.00755176)
(-0.042229 0.000605588 -0.00576477)
(-0.0422594 0.00028752 -0.00764146)
(-0.0463432 0.000519109 -0.00780004)
(-0.0442626 0.000724837 -0.00582695)
(-0.0442916 0.000398669 -0.00772414)
(-0.0546644 0.00215927 -0.00219417)
(-0.0525557 0.00163771 -0.00409874)
(-0.0525504 0.00198571 -0.00218093)
(-0.0504643 0.00249835 0.00162125)
(-0.0483647 0.00199241 -0.000272153)
(-0.0504529 0.00215876 -0.000272672)
(-0.0504546 0.0014778 -0.00406987)
(-0.048361 0.00165987 -0.00215002)
(-0.0504487 0.00181911 -0.00216625)
(-0.0513443 -7.12546e-05 -0.0131307)
(-0.044108 -0.000451054 -0.0127166)
(-0.0513681 5.73087e-05 -0.0124358)
(-0.0481976 0.000374984 -0.00942986)
(-0.0513319 0.000571765 -0.00955239)
(-0.0551012 0.00110401 -0.00820584)
(-0.0529757 0.00130301 -0.00619662)
(-0.0529828 0.000951162 -0.00814672)
(-0.0487837 0.000670105 -0.00800971)
(-0.0508677 0.00115125 -0.00614535)
(-0.0508764 0.000806393 -0.00808142)
(-0.0405372 0.00111196 -0.00220204)
(-0.0425756 0.000934247 -0.00405933)
(-0.0425618 0.00123799 -0.00223461)
(-0.0445845 0.00199353 0.00141703)
(-0.0466583 0.00183422 -0.000434187)
(-0.044594 0.00168311 -0.000425189)
(-0.0446201 0.00106021 -0.00411063)
(-0.0466712 0.00151534 -0.00229354)
(-0.0446071 0.00137251 -0.0022651)
(-0.0441253 -0.000330803 -0.0120387)
(-0.0471609 0.000313888 -0.00938574)
(-0.0440759 0.000144856 -0.00923954)
(-0.0405845 0.00021586 -0.00765487)
(-0.0425889 0.000628482 -0.00588981)
(-0.0426049 0.000315318 -0.00775416)
(-0.0467064 0.000542643 -0.0079314)
(-0.0446321 0.000745942 -0.00596155)
(-0.0446462 0.000424303 -0.00784628)
(-0.0550804 0.00216391 -0.00238739)
(-0.0529689 0.00164774 -0.0042798)
(-0.0529586 0.0019909 -0.00236683)
(-0.0508255 0.00249386 0.00144568)
(-0.0487396 0.00199306 -0.000442732)
(-0.0508361 0.00215932 -0.00045081)
(-0.0508597 0.0014889 -0.00424273)
(-0.0487523 0.00166623 -0.00231995)
(-0.0508487 0.00182487 -0.00234436)
(-0.0607309 0.000575697 -0.0134182)
(-0.0682489 0.00119038 -0.0135665)
(-0.0568297 0.00125038 -0.00808667)
(-0.0589408 0.00179246 -0.00613065)
(-0.0589612 0.00141967 -0.0081273)
(-0.0606881 0.00070968 -0.012679)
(-0.063887 0.00153275 -0.00977933)
(-0.0606675 0.00126591 -0.00972247)
(-0.0610812 0.0019735 -0.00615777)
(-0.0632467 0.00177738 -0.00819416)
(-0.0611007 0.00159552 -0.00816303)
(-0.0675406 0.00408877 0.001697)
(-0.065372 0.00349432 -0.000275758)
(-0.0675292 0.00370329 -0.000276411)
(-0.0718438 0.0037372 -0.00225894)
(-0.0696839 0.00313773 -0.00423994)
(-0.0696824 0.0035267 -0.00225406)
(-0.0653657 0.00311425 -0.00224193)
(-0.0675245 0.00293376 -0.00422956)
(-0.0675227 0.00331887 -0.00224842)
(-0.0567891 0.00233933 -0.00220606)
(-0.0589265 0.00215939 -0.00416883)
(-0.0589229 0.0025254 -0.00221669)
(-0.0610818 0.00345806 0.00167774)
(-0.0632186 0.00328876 -0.000275191)
(-0.0610703 0.0030872 -0.000274698)
(-0.0610677 0.00234562 -0.0041872)
(-0.0632126 0.00291342 -0.00223454)
(-0.0610646 0.00271695 -0.00222615)
(-0.0682074 0.00133025 -0.0128197)
(-0.0649622 0.00162464 -0.00979535)
(-0.0681955 0.00190791 -0.00983684)
(-0.071871 0.00255368 -0.00827871)
(-0.069695 0.00274845 -0.00623449)
(-0.0697111 0.0023534 -0.00826293)
(-0.0653979 0.00196469 -0.00822097)
(-0.0675362 0.00254822 -0.00621961)
(-0.0675531 0.00215689 -0.00824379)
(-0.0608846 0.00058247 -0.0134826)
(-0.0684084 0.00119418 -0.0136386)
(-0.05723 0.0012645 -0.00825903)
(-0.0593653 0.00180269 -0.00632276)
(-0.0593678 0.00143215 -0.00830652)
(-0.0609153 0.000719331 -0.0127751)
(-0.0641167 0.00153865 -0.00988403)
(-0.060893 0.0012732 -0.00982232)
(-0.061512 0.00198245 -0.00635618)
(-0.0636644 0.00178684 -0.00838548)
(-0.061513 0.00160644 -0.00834858)
(-0.0679529 0.00408699 0.00148378)
(-0.0658031 0.00349437 -0.000493359)
(-0.0679654 0.00370329 -0.000497412)
(-0.072307 0.00373839 -0.00249065)
(-0.0701473 0.00314086 -0.00446733)
(-0.0701413 0.00352822 -0.002483)
(-0.0658146 0.00311652 -0.00246361)
(-0.0679832 0.00293757 -0.00445321)
(-0.0679768 0.00332075 -0.00247402)
(-0.0572125 0.00234344 -0.0024061)
(-0.0593619 0.00216644 -0.00437155)
(-0.0593534 0.00252901 -0.00242301)
(-0.0614778 0.0034554 0.00147467)
(-0.0636441 0.00328887 -0.000488808)
(-0.0614898 0.00308738 -0.000483749)
(-0.0615095 0.00235179 -0.00439604)
(-0.0636557 0.00291611 -0.00245169)
(-0.0615016 0.00272009 -0.00243818)
(-0.0684433 0.00133571 -0.0129271)
(-0.0651934 0.00163007 -0.0099015)
(-0.0684302 0.00191213 -0.00994692)
(-0.072306 0.00255826 -0.00848757)
(-0.0701462 0.00275302 -0.00645234)
(-0.0701425 0.00235905 -0.00846823)
(-0.0658205 0.00197279 -0.00841751)
(-0.0679829 0.00255377 -0.00643347)
(-0.0679803 0.00216371 -0.00844499)
(-0.0854805 0.00294462 -0.0129154)
(-0.0822328 0.00322964 -0.00991771)
(-0.0854902 0.00354947 -0.00992328)
(-0.0898436 0.00418904 -0.00889696)
(-0.0870408 0.00444004 -0.00628547)
(-0.0870565 0.00402805 -0.00832501)
(-0.0826711 0.00359441 -0.00831886)
(-0.0848297 0.0042199 -0.00628269)
(-0.0848433 0.00380883 -0.00832204)
(-0.0740058 0.00394983 -0.00226311)
(-0.0761682 0.00376578 -0.00426195)
(-0.0761677 0.00416412 -0.00226663)
(-0.0783476 0.00518242 0.00171029)
(-0.0804963 0.00499866 -0.000281519)
(-0.0783362 0.00478021 -0.00028065)
(-0.078329 0.00397888 -0.00426671)
(-0.0804887 0.00459594 -0.00227189)
(-0.0783288 0.00437961 -0.00226955)
(-0.07792 0.00221525 -0.0128983)
(-0.0811537 0.00312431 -0.0099156)
(-0.0779151 0.00281107 -0.00990595)
(-0.0740316 0.00275719 -0.00829144)
(-0.076178 0.00336743 -0.00626519)
(-0.0761922 0.00296344 -0.00830148)
(-0.080511 0.00338234 -0.00831479)
(-0.0783384 0.00357822 -0.00627156)
(-0.0783521 0.00317196 -0.00830914)
(-0.0898263 0.00562733 -0.00182884)
(-0.0870287 0.00484703 -0.00427558)
(-0.0870293 0.00525452 -0.00227384)
(-0.0848416 0.00584564 0.00171166)
(-0.0826574 0.00521756 -0.000282239)
(-0.0848292 0.00543776 -0.000282335)
(-0.0848198 0.00462556 -0.00427496)
(-0.0826495 0.00481302 -0.00227367)
(-0.0848202 0.00503159 -0.00227459)
(-0.0856811 0.00279816 -0.0137409)
(-0.0781246 0.00207155 -0.0137261)
(-0.085726 0.00294539 -0.0130331)
(-0.0824776 0.00323029 -0.0100373)
(-0.085736 0.00354967 -0.010044)
(-0.0900798 0.00418817 -0.00901532)
(-0.0875134 0.00443958 -0.0065178)
(-0.0875085 0.00402781 -0.00854732)
(-0.0831188 0.00359526 -0.00853817)
(-0.0853001 0.00421994 -0.00651415)
(-0.0852923 0.00380917 -0.0085423)
(-0.074473 0.00395072 -0.00249705)
(-0.0766431 0.00376723 -0.00449724)
(-0.0766383 0.00416473 -0.0025023)
(-0.0787786 0.00518162 0.00149049)
(-0.0809545 0.00499832 -0.000512087)
(-0.0787918 0.00477993 -0.000510715)
(-0.0788068 0.00397987 -0.00450362)
(-0.080965 0.00459605 -0.0025097)
(-0.0788024 0.00437996 -0.0025065)
(-0.0781632 0.00221697 -0.0130148)
(-0.081398 0.00312513 -0.0100349)
(-0.0781578 0.00281247 -0.0100238)
(-0.07447 0.00276081 -0.00850335)
(-0.0766399 0.00336961 -0.00649174)
(-0.0766335 0.00296621 -0.00851593)
(-0.080957 0.00338374 -0.00853293)
(-0.0788031 0.00357977 -0.00649999)
(-0.0787959 0.00317399 -0.00852566)
(-0.0900645 0.00562679 -0.00194659)
(-0.0875144 0.00484638 -0.00451517)
(-0.0875111 0.00525373 -0.00251258)
(-0.0852789 0.00584505 0.00149219)
(-0.0831176 0.00521711 -0.000512973)
(-0.0852911 0.00543719 -0.000513018)
(-0.0853037 0.00462536 -0.00451417)
(-0.0831278 0.00481286 -0.00251194)
(-0.0853002 0.00503116 -0.00251302)
(-0.0543537 0.000117667 -0.0132135)
(-0.0409482 -0.000593472 -0.012465)
(-0.0887699 0.00310113 -0.0137441)
(-0.0747222 0.00176847 -0.0136315)
(-0.0258342 -0.000870687 -0.01085)
(-0.0379726 -0.000696228 -0.0122246)
(-0.0256239 -0.000705772 -0.00940975)
(-0.0257844 -0.000793444 -0.0102549)
(-0.0256776 -0.000799805 -0.0101001)
(-0.0257536 -0.000674445 -0.00943013)
(-0.0377407 -0.000459997 -0.0105742)
(-0.0379252 -0.000592766 -0.0115526)
(-0.0387762 -0.000548687 -0.0114292)
(-0.038892 -0.00040521 -0.0107007)
(-0.037792 -0.000583171 -0.0113539)
(-0.0379052 -0.000440803 -0.0106281)
(-0.0387252 -0.000423545 -0.0106441)
(-0.0259294 -0.000840609 -0.0108519)
(-0.0380951 -0.000676128 -0.0122509)
(-0.0260122 -0.000599092 -0.00943146)
(-0.0259247 -0.000750867 -0.0102601)
(-0.0258914 -0.000636525 -0.00943787)
(-0.0260171 -0.000699429 -0.0101134)
(-0.0382416 -0.000388642 -0.0106935)
(-0.0381061 -0.000564292 -0.0115934)
(-0.0390725 -0.000380736 -0.0107458)
(-0.0392204 -0.000483975 -0.0115355)
(-0.0380831 -0.000415445 -0.0106705)
(-0.0382296 -0.000516078 -0.0114532)
(-0.0392336 -0.000354705 -0.0107712)
(-0.0541045 0.000419749 -0.0113983)
(-0.0543097 0.000245145 -0.0124855)
(-0.0552087 0.00034324 -0.0122784)
(-0.0553582 0.000500769 -0.0115264)
(-0.0541527 0.000270035 -0.0122431)
(-0.0543005 0.000426898 -0.0114915)
(-0.0551607 0.000494247 -0.011431)
(-0.0407124 -0.000342961 -0.0107759)
(-0.0409015 -0.000484783 -0.0117794)
(-0.0397666 -0.000511602 -0.0115016)
(-0.0398849 -0.000367029 -0.0107705)
(-0.040763 -0.000471921 -0.0115713)
(-0.0397158 -0.000384519 -0.0107113)
(-0.0408838 -0.000326293 -0.0108377)
(-0.0545009 0.000127525 -0.0132691)
(-0.0410762 -0.000575487 -0.0124971)
(-0.0547077 0.000454876 -0.0116345)
(-0.0545272 0.000259151 -0.012569)
(-0.0555742 0.000512578 -0.0116125)
(-0.0557393 0.000374354 -0.0124868)
(-0.0545148 0.000439382 -0.0115754)
(-0.054679 0.00030297 -0.0124459)
(-0.0557688 0.000527453 -0.0116735)
(-0.0412355 -0.000279082 -0.0109186)
(-0.0410904 -0.000459296 -0.0118287)
(-0.0400681 -0.000343453 -0.0108184)
(-0.0402173 -0.000449241 -0.0116148)
(-0.0402317 -0.000318185 -0.0108462)
(-0.0410695 -0.000303587 -0.0108884)
(-0.04122 -0.000411884 -0.0116914)
(-0.057532 0.000337714 -0.0133257)
(-0.0714841 0.00147456 -0.0136051)
(-0.0572807 0.000649235 -0.0114908)
(-0.0562673 0.000418502 -0.0123117)
(-0.0564184 0.000576681 -0.0115592)
(-0.0574887 0.000468614 -0.0125915)
(-0.0562194 0.00057077 -0.0114618)
(-0.0573284 0.000495763 -0.0123429)
(-0.0574812 0.000654557 -0.0115902)
(-0.0712267 0.00181643 -0.011721)
(-0.0714431 0.0016164 -0.0128567)
(-0.0723512 0.00174895 -0.0125988)
(-0.0725209 0.00191388 -0.0118487)
(-0.0712724 0.00165098 -0.01259)
(-0.0714413 0.00181561 -0.0118393)
(-0.0723056 0.00191504 -0.0117294)
(-0.0576826 0.000345971 -0.0133859)
(-0.0716456 0.00147732 -0.0136798)
(-0.0578984 0.000678715 -0.0117452)
(-0.0566362 0.000587812 -0.0116475)
(-0.0568021 0.000447839 -0.0125254)
(-0.0577113 0.000480361 -0.0126816)
(-0.0568324 0.000602084 -0.0117104)
(-0.0577006 0.00066504 -0.0116805)
(-0.0578672 0.000523364 -0.0125618)
(-0.0718906 0.00182651 -0.0120321)
(-0.0716819 0.0016204 -0.0129678)
(-0.0727577 0.00191708 -0.0119602)
(-0.0729317 0.00175719 -0.0128709)
(-0.0716771 0.0018192 -0.0119498)
(-0.0718508 0.00166027 -0.0128595)
(-0.072972 0.00192402 -0.0120434)
(-0.0886033 0.00347458 -0.0118163)
(-0.0888276 0.00325047 -0.0130335)
(-0.089696 0.00337496 -0.0128419)
(-0.0898674 0.0035506 -0.0120583)
(-0.0886313 0.00329563 -0.0127141)
(-0.0888521 0.00346391 -0.0119909)
(-0.0896385 0.00356637 -0.0118688)
(-0.074464 0.00211496 -0.0117431)
(-0.0746816 0.00191197 -0.0128823)
(-0.0734302 0.00184788 -0.0126065)
(-0.0736008 0.00201309 -0.011857)
(-0.0745093 0.0019477 -0.0126132)
(-0.0733847 0.00201457 -0.0117367)
(-0.0746807 0.00211317 -0.0118642)
(-0.0889308 0.00310654 -0.0137966)
(-0.0748853 0.00177034 -0.0137083)
(-0.089283 0.00347513 -0.0121467)
(-0.0890659 0.00325599 -0.013124)
(-0.0900978 0.00355238 -0.0121624)
(-0.0902457 0.00339104 -0.0130326)
(-0.0890957 0.00346513 -0.0121041)
(-0.0892156 0.00330246 -0.0129677)
(-0.0903081 0.00356586 -0.0121986)
(-0.0751348 0.00212191 -0.0120622)
(-0.0749229 0.00191471 -0.0129964)
(-0.0738383 0.00201591 -0.0119694)
(-0.0740127 0.00185513 -0.012881)
(-0.0740534 0.0020225 -0.0120534)
(-0.074919 0.00211565 -0.0119775)
(-0.0750937 0.00195403 -0.0128899)
(-0.0892956 0.0061406 0.000940414)
(-0.0900589 0.00624212 0.00105577)
(-0.0890557 0.00613999 0.00105528)
(-0.0902911 0.00624267 0.000944815)
(-0.049116 -0.000204895 -0.0129786)
(-0.046018 -0.000369727 -0.0128068)
(-0.083352 0.00258715 -0.0136582)
(-0.0801177 0.00227534 -0.0136538)
(-0.0303383 -0.000854352 -0.0114452)
(-0.0331448 -0.000814608 -0.0117617)
(-0.030119 -0.00066028 -0.00991599)
(-0.0302894 -0.000766369 -0.010817)
(-0.0310972 -0.000752288 -0.0107442)
(-0.0311913 -0.000618519 -0.0100437)
(-0.0301717 -0.000766269 -0.0106448)
(-0.0310447 -0.000644024 -0.0100083)
(-0.0302629 -0.000633829 -0.00994881)
(-0.0329205 -0.000604061 -0.0101841)
(-0.0330965 -0.000720567 -0.0111159)
(-0.032031 -0.000735798 -0.0108404)
(-0.0321279 -0.000600713 -0.0101356)
(-0.0329727 -0.000716774 -0.0109335)
(-0.0319786 -0.000625278 -0.0100976)
(-0.0330725 -0.000580411 -0.0102248)
(-0.0304448 -0.000828252 -0.0114561)
(-0.0332576 -0.000790816 -0.0117783)
(-0.0305534 -0.000567689 -0.00997362)
(-0.0304464 -0.000729416 -0.0108353)
(-0.0313487 -0.000586576 -0.0100669)
(-0.0314847 -0.00066777 -0.0107957)
(-0.0304172 -0.000600925 -0.0099693)
(-0.0305515 -0.000679162 -0.0106898)
(-0.0314879 -0.000554168 -0.0100735)
(-0.0333809 -0.000519628 -0.0102645)
(-0.0332629 -0.000686874 -0.0111425)
(-0.0322884 -0.000569748 -0.0101615)
(-0.032426 -0.000653844 -0.0108986)
(-0.033236 -0.0005504 -0.0102533)
(-0.0333751 -0.000637364 -0.0109985)
(-0.0324305 -0.000538156 -0.0101703)
(-0.0488712 7.9383e-05 -0.011204)
(-0.0490709 -8.38864e-05 -0.0122639)
(-0.0478847 -0.000122938 -0.0119844)
(-0.048021 2.93252e-05 -0.0112383)
(-0.0489203 -6.31969e-05 -0.0120334)
(-0.0478353 1.80988e-05 -0.0111587)
(-0.0490587 8.98984e-05 -0.011286)
(-0.0457763 -9.73523e-05 -0.0110612)
(-0.0459723 -0.000253056 -0.0121019)
(-0.0468532 -0.000180265 -0.0119331)
(-0.0469875 -2.88689e-05 -0.0111883)
(-0.045826 -0.000235151 -0.0118793)
(-0.0468037 -4.0834e-05 -0.0111111)
(-0.0459581 -8.46392e-05 -0.0111359)
(-0.0492566 -0.000192128 -0.0130258)
(-0.0461542 -0.00035508 -0.0128486)
(-0.0494468 0.000124799 -0.0114067)
(-0.0492786 -6.57709e-05 -0.0123351)
(-0.0482234 4.62411e-05 -0.0113077)
(-0.048382 -7.82498e-05 -0.0121512)
(-0.0492632 0.000106044 -0.011358)
(-0.0494228 -2.05644e-05 -0.0122064)
(-0.048405 6.56888e-05 -0.0113542)
(-0.0463335 -4.52925e-05 -0.0112421)
(-0.0461735 -0.000232287 -0.0121651)
(-0.0471876 -1.11585e-05 -0.0112552)
(-0.0473452 -0.000133488 -0.0120934)
(-0.0461561 -6.61396e-05 -0.0112002)
(-0.0463125 -0.000186246 -0.0120331)
(-0.0473672 8.97801e-06 -0.0112994)
(-0.0628725 0.000743433 -0.0134698)
(-0.0660953 0.00100723 -0.013533)
(-0.0626183 0.00106865 -0.0116093)
(-0.0628302 0.000879282 -0.0127278)
(-0.0637375 0.000997593 -0.0124908)
(-0.0638988 0.00115957 -0.0117378)
(-0.0626651 0.000909742 -0.0124706)
(-0.0636908 0.00115745 -0.0116281)
(-0.0628251 0.00107125 -0.0117174)
(-0.0658397 0.00133943 -0.0116613)
(-0.0660535 0.0011456 -0.0127878)
(-0.0648112 0.00108696 -0.0125094)
(-0.0649737 0.00124939 -0.0117566)
(-0.065886 0.00117778 -0.0125264)
(-0.0647647 0.00124775 -0.0116455)
(-0.0660498 0.00134062 -0.0117738)
(-0.0630281 0.000749285 -0.0135366)
(-0.0662533 0.00101181 -0.0136032)
(-0.0632569 0.00108963 -0.0118899)
(-0.0630601 0.000887634 -0.0128275)
(-0.064127 0.00116649 -0.011839)
(-0.0642975 0.00101572 -0.012737)
(-0.063052 0.00107871 -0.011817)
(-0.0632219 0.00092933 -0.0127127)
(-0.0643332 0.00117689 -0.0119133)
(-0.0664889 0.00135593 -0.011955)
(-0.0662872 0.00115216 -0.0128924)
(-0.0652032 0.00125577 -0.0118593)
(-0.0653742 0.00110367 -0.0127595)
(-0.0662804 0.00134649 -0.0118781)
(-0.0664519 0.00119312 -0.0127802)
(-0.0654105 0.00126568 -0.011935)
(-0.0830932 0.00294175 -0.0117671)
(-0.083313 0.00273363 -0.0129099)
(-0.0820592 0.00266638 -0.012636)
(-0.0822352 0.0028333 -0.0118914)
(-0.0831376 0.00277125 -0.012637)
(-0.0820146 0.00283656 -0.011766)
(-0.0833148 0.00293841 -0.0118931)
(-0.088601 0.00450403 -0.00673836)
(-0.0898364 0.0046026 -0.00685771)
(-0.0888231 0.00470714 -0.00584629)
(-0.0896023 0.0048086 -0.00573298)
(-0.0885904 0.00470855 -0.00572722)
(-0.0888281 0.00450208 -0.00685748)
(-0.08961 0.00460348 -0.00674471)
(-0.0798585 0.00262758 -0.0117626)
(-0.0800776 0.00242092 -0.0129047)
(-0.0809814 0.00256197 -0.0126347)
(-0.0811565 0.0027287 -0.0118894)
(-0.0799034 0.00245805 -0.0126329)
(-0.0809366 0.00273183 -0.0117645)
(-0.0800779 0.0026246 -0.011887)