/*--------------------------------*- C++ -*----------------------------------*\
| =========                 |                                                 |
| \\      /  F ield         | OpenFOAM: The Open Source CFD Toolbox           |
|  \\    /   O peration     | Version:  2012                                  |
|   \\  /    A nd           | Website:  www.openfoam.com                      |
|    \\/     M anipulation  |                                                 |
\*---------------------------------------------------------------------------*/
FoamFile
{
    version     2.0;
    format      ascii;
    class       volVectorField;
    location    "0.105/solid";
    object      D;
}
// * * * * * * * * * * * * * * * * * * * * * * * * * * * * * * * * * * * * * //

dimensions      [0 1 0 0 0 0 0];


internalField   nonuniform List<vector> 
3124
(
(3.0667e-11 5.77975e-11 3.95768e-11)
(2.61394e-12 5.00575e-13 -2.82968e-12)
(-6.70856e-11 3.04845e-11 8.01404e-12)
(-5.02739e-12 -3.21171e-12 2.79175e-11)
(1.82565e-12 -2.66724e-13 2.03413e-11)
(2.06065e-12 1.97943e-14 1.99447e-11)
(4.78948e-12 6.39525e-13 -4.11263e-12)
(-1.97065e-12 4.0689e-11 5.24317e-11)
(1.69144e-10 2.36662e-10 4.03119e-11)
(-2.85875e-11 2.52099e-11 2.05132e-11)
(-6.6547e-12 -2.80055e-12 2.9113e-11)
(-6.32478e-11 2.08872e-11 5.39101e-13)
(5.14356e-12 2.15619e-11 5.21215e-11)
(-1.69385e-11 -2.75408e-12 6.12334e-11)
(-2.77045e-11 1.48501e-11 2.18693e-11)
(1.6808e-10 2.46687e-10 2.21683e-11)
(-1.18852e-11 -5.20575e-12 5.79024e-11)
(-3.49234e-12 -4.54483e-13 4.59934e-11)
(2.08293e-12 -8.95916e-14 1.99503e-11)
(1.8662e-12 -1.40362e-13 2.02944e-11)
(-3.10117e-12 -1.14745e-13 4.53978e-11)
(-3.33352e-12 -3.47078e-13 4.58935e-11)
(-3.13148e-12 -7.29736e-14 4.53586e-11)
(1.85694e-11 -2.17661e-12 -1.03432e-12)
(1.12409e-10 -1.70375e-11 4.7833e-11)
(6.24862e-11 -3.26936e-11 2.91462e-12)
(8.97133e-11 3.64955e-10 7.18762e-11)
(5.24111e-11 3.57836e-11 2.5458e-11)
(8.6843e-11 1.52576e-10 9.40406e-11)
(1.30997e-10 6.36415e-10 2.05959e-10)
(2.90923e-11 2.96062e-11 2.06267e-11)
(1.61072e-10 9.52894e-11 5.57246e-11)
(-3.33725e-12 -4.61828e-13 6.43551e-11)
(-1.1989e-12 5.20594e-12 5.9975e-11)
(2.31055e-10 4.6448e-10 1.69569e-11)
(2.53584e-10 1.02746e-09 8.90883e-12)
(-3.21912e-12 -2.88398e-12 6.2333e-11)
(4.46918e-13 -2.44999e-12 5.65027e-11)
(-3.20965e-12 -2.90343e-13 5.02774e-11)
(-2.98743e-12 -4.67265e-13 5.08731e-11)
(-3.25953e-12 -1.97045e-13 5.01575e-11)
(-3.37567e-12 -6.04178e-15 5.0069e-11)
(9.61202e-12 -2.53004e-12 -1.08235e-12)
(6.47574e-12 1.31816e-11 1.47516e-12)
(4.17133e-11 -8.0558e-12 1.03916e-12)
(1.31935e-10 -5.68174e-11 5.7166e-11)
(1.02889e-10 -5.33965e-11 2.71399e-11)
(-5.98965e-13 2.2671e-11 2.06873e-12)
(-6.82936e-10 2.19721e-10 -2.13294e-10)
(4.37399e-11 1.05894e-11 1.38751e-11)
(4.94007e-13 -1.1198e-12 2.12812e-11)
(7.48059e-13 -7.54133e-13 2.10555e-11)
(2.00953e-12 -2.30308e-14 1.99799e-11)
(2.01748e-12 7.97291e-14 1.99954e-11)
(1.62009e-11 6.31519e-12 6.63256e-12)
(3.91539e-12 1.34327e-11 -2.59193e-13)
(2.37442e-11 1.91538e-11 1.1706e-11)
(1.23823e-10 2.88926e-11 2.4707e-11)
(3.10356e-12 1.30479e-11 4.42365e-11)
(5.91345e-11 9.05305e-10 1.03801e-11)
(1.19541e-11 3.42498e-11 2.48913e-11)
(9.17769e-11 4.09861e-10 6.94196e-11)
(1.46664e-10 2.09336e-10 7.43718e-11)
(2.34003e-10 9.7622e-10 4.47754e-11)
(2.69622e-10 1.49131e-10 3.74963e-11)
(1.78213e-10 8.27281e-10 1.16768e-10)
(1.90409e-10 4.85699e-10 4.45696e-11)
(2.27847e-10 1.35746e-10 4.15698e-11)
(2.03596e-10 1.2481e-09 2.62623e-11)
(1.43509e-10 1.04164e-09 8.09679e-11)
(-2.81189e-13 1.81822e-11 2.97124e-12)
(1.30751e-12 1.32652e-11 3.74016e-11)
(1.10699e-11 2.51015e-11 1.881e-11)
(1.85746e-10 3.89831e-11 2.2354e-11)
(1.44536e-10 3.13581e-11 2.29525e-11)
(-2.71177e-11 8.58666e-12 2.91924e-11)
(-7.92057e-10 1.88743e-10 -2.21127e-10)
(-2.06252e-11 9.74704e-12 3.063e-11)
(1.09663e-12 1.18317e-11 4.39816e-11)
(1.63755e-12 9.75704e-12 5.44125e-11)
(-6.36308e-12 -3.97876e-13 6.99175e-11)
(-3.15751e-11 2.4021e-12 5.54766e-11)
(-3.70876e-12 7.98801e-12 6.21929e-11)
(-1.91815e-12 1.07097e-11 3.93787e-11)
(-3.43976e-11 1.70756e-11 4.15551e-11)
(-6.72135e-13 1.17418e-11 5.3217e-11)
(2.20379e-10 4.74305e-10 2.08339e-11)
(1.69891e-10 2.50473e-10 9.76233e-12)
(2.38517e-10 9.80784e-10 3.38589e-11)
(2.63129e-10 1.63067e-10 2.32971e-11)
(1.73879e-10 5.073e-10 4.14252e-11)
(2.51966e-10 1.01702e-09 1.72841e-11)
(2.67264e-10 1.62269e-10 8.72416e-12)
(1.80204e-10 4.54467e-11 1.22251e-12)
(2.3354e-10 1.3305e-09 1.01388e-11)
(2.13889e-10 1.24825e-09 2.34516e-11)
(2.32632e-10 1.31158e-09 1.73915e-11)
(1.81881e-10 4.42019e-11 1.75178e-11)
(1.80244e-10 4.61966e-11 2.78691e-12)
(-6.15803e-12 -3.58196e-12 6.81542e-11)
(-5.64784e-12 -2.21775e-12 4.70272e-11)
(-2.16884e-12 -2.61331e-12 5.84745e-11)
(-2.31081e-12 -1.04241e-12 5.23616e-11)
(-5.53945e-13 -2.37748e-12 5.52802e-11)
(-4.68375e-12 -1.20312e-12 4.65188e-11)
(-4.27277e-12 -8.98081e-13 5.6543e-11)
(-2.65801e-12 -1.74694e-12 5.80212e-11)
(2.0916e-12 -4.50562e-14 2.00621e-11)
(2.09702e-12 -1.49476e-13 2.00855e-11)
(-2.46726e-12 -7.83168e-13 5.20053e-11)
(-2.87893e-12 -5.40514e-13 5.11269e-11)
(-5.26316e-12 -2.48837e-13 5.5049e-11)
(-3.0794e-12 -1.99169e-13 4.56048e-11)
(-5.05787e-12 -4.19363e-13 5.55294e-11)
(-4.4847e-12 -6.79707e-13 5.62967e-11)
(-3.1015e-12 -2.15855e-13 4.56848e-11)
(-4.94864e-12 -4.55544e-13 5.57127e-11)
(-5.30846e-12 -1.87641e-13 5.49506e-11)
(-3.19759e-12 3.77373e-14 4.542e-11)
(-5.41323e-12 3.35559e-14 5.49252e-11)
(-3.40045e-12 6.73528e-14 5.01467e-11)
(-3.21258e-12 5.03539e-14 4.55022e-11)
(-5.43858e-12 7.04002e-14 5.50264e-11)
(1.63323e-10 -4.82023e-12 8.7919e-11)
(5.60609e-11 1.63198e-11 1.46772e-11)
(-9.08879e-13 2.49278e-14 4.89928e-11)
(-7.93263e-13 1.35741e-12 4.88099e-11)
(-8.62371e-14 -1.42918e-12 4.77883e-11)
(8.69684e-13 -7.12532e-13 4.66926e-11)
(-1.73546e-12 -2.58143e-13 3.81651e-11)
(-1.69108e-12 -3.33625e-13 3.83539e-11)
(-1.77627e-12 -2.04162e-13 3.80303e-11)
(-1.82899e-12 -1.39445e-13 3.79338e-11)
(3.29158e-11 8.43387e-13 3.07307e-12)
(3.35557e-12 -1.07231e-13 -1.07896e-12)
(5.26783e-12 3.77922e-12 -3.28531e-12)
(4.93918e-12 2.54841e-12 -1.2973e-11)
(2.28925e-11 9.52945e-12 -1.46294e-11)
(8.30869e-12 1.51444e-12 -8.73501e-13)
(5.99143e-12 -4.70464e-13 -1.03029e-12)
(-1.83814e-10 1.93373e-10 -3.95812e-11)
(-1.83719e-10 8.07035e-11 -4.36704e-11)
(-4.96985e-11 3.77001e-11 1.08324e-11)
(-1.45616e-10 4.61889e-11 3.02202e-12)
(-1.03163e-10 8.78138e-11 3.43319e-11)
(-4.86205e-10 1.73032e-10 -8.83203e-11)
(-8.54438e-11 6.48558e-11 1.10856e-11)
(-1.45313e-11 -2.26816e-13 3.79064e-12)
(-9.85776e-13 -2.9127e-12 2.38009e-11)
(-8.16501e-12 -2.57265e-13 2.99022e-12)
(1.58821e-12 -3.01393e-13 2.05501e-11)
(-4.1907e-12 -2.93014e-14 2.38328e-12)
(-4.40054e-12 -4.56959e-14 2.41664e-12)
(-3.88018e-12 -5.17032e-15 2.32762e-12)
(2.05643e-12 -5.38152e-14 1.99627e-11)
(-3.83386e-12 -1.5117e-15 2.30891e-12)
(2.03697e-12 4.29507e-14 2.01015e-11)
(-3.90596e-12 -1.30568e-14 2.31602e-12)
(6.98067e-11 1.63353e-11 -1.45608e-11)
(9.58811e-12 1.40146e-12 -2.07815e-12)
(8.29288e-12 3.7048e-12 -6.55669e-12)
(5.69316e-12 3.3746e-12 -1.62755e-11)
(2.18932e-11 1.06476e-11 -2.98243e-11)
(1.75254e-11 3.63169e-12 -4.09103e-12)
(1.46704e-11 4.85798e-12 -1.7301e-11)
(5.32676e-11 1.38012e-10 2.25643e-10)
(-3.14706e-12 2.6718e-11 5.5932e-11)
(-2.5784e-11 7.29341e-11 1.74447e-10)
(-1.31048e-11 4.03119e-11 5.63293e-11)
(-3.18154e-11 3.64267e-11 4.40623e-11)
(-1.35577e-10 5.35171e-11 6.50604e-11)
(-2.44084e-11 2.94223e-11 1.11525e-11)
(-1.44032e-11 2.16958e-11 2.71553e-11)
(-8.27504e-11 6.9529e-11 1.08322e-11)
(-5.43703e-11 3.0268e-11 1.07275e-10)
(-7.75529e-12 2.36538e-11 1.65298e-11)
(-1.77376e-11 -1.66623e-13 3.97839e-12)
(-1.57518e-11 -5.20691e-13 3.15153e-11)
(-3.40607e-11 1.8199e-13 5.51736e-12)
(-2.55741e-10 1.13487e-10 -1.32258e-10)
(-1.92009e-10 5.409e-11 1.49794e-12)
(-1.60927e-10 3.78527e-11 -1.99048e-11)
(-4.75487e-11 3.00839e-11 4.25591e-12)
(-4.81552e-10 1.1661e-10 -2.87473e-10)
(-1.45243e-10 4.00394e-11 7.00815e-12)
(-1.21365e-10 5.50429e-11 -1.35485e-11)
(-1.26309e-11 -9.78074e-13 6.74803e-11)
(-2.28555e-11 7.46477e-13 6.21234e-11)
(-1.47306e-11 2.89829e-12 6.61763e-11)
(-4.71991e-11 2.22371e-11 1.03552e-10)
(-1.44394e-10 4.09891e-11 5.1923e-11)
(-1.54209e-11 1.27835e-11 3.35059e-11)
(-2.27443e-11 1.95307e-11 2.24615e-11)
(-5.46027e-11 2.6944e-11 1.27668e-10)
(-1.10276e-10 3.05072e-11 4.40939e-11)
(-1.28576e-11 1.05844e-11 3.43346e-11)
(-1.00313e-11 -4.53652e-12 6.57958e-11)
(-8.5816e-12 -5.50898e-12 5.28392e-11)
(-7.71464e-12 -5.87464e-12 6.10789e-11)
(-1.29113e-12 -7.62128e-13 4.01751e-11)
(-1.30845e-12 -1.20762e-12 4.04764e-11)
(-3.70973e-12 -5.95257e-13 4.61504e-11)
(-5.47468e-12 -4.40257e-13 5.51209e-11)
(-5.44516e-12 -5.61311e-13 5.51177e-11)
(-3.85533e-12 -6.50767e-15 2.32267e-12)
(2.12713e-12 -1.91476e-14 2.00005e-11)
(-3.75302e-12 -9.5223e-15 2.30578e-12)
(-4.16552e-12 -2.5266e-14 2.38331e-12)
(2.03364e-12 -1.88338e-13 2.02008e-11)
(-3.90885e-12 -1.81787e-14 2.32656e-12)
(-1.30426e-12 -6.18008e-13 3.99656e-11)
(-1.36304e-12 -5.6804e-13 3.97002e-11)
(-5.67601e-12 -1.52243e-13 5.47286e-11)
(-3.09375e-12 -1.44354e-13 4.54652e-11)
(-5.65148e-12 -2.03389e-13 5.48045e-11)
(-5.49555e-12 -3.55599e-13 5.51402e-11)
(-3.23836e-12 -2.89173e-13 4.58272e-11)
(-5.51522e-12 -3.02069e-13 5.51259e-11)
(-5.70042e-12 -1.18817e-13 5.46667e-11)
(-3.17389e-12 -3.37671e-14 4.53626e-11)
(-5.72669e-12 -5.25384e-14 5.46343e-11)
(-1.92398e-12 1.18046e-14 3.80613e-11)
(-3.27099e-12 -5.91935e-14 4.57515e-11)
(-5.8216e-12 -2.58545e-14 5.51113e-11)
(1.15415e-10 -4.34938e-12 1.66581e-11)
(3.28052e-11 2.14633e-11 9.52042e-12)
(3.19476e-11 -6.86244e-12 -7.01697e-13)
(3.88362e-11 -7.04661e-12 3.58108e-12)
(8.51687e-11 -2.78116e-11 1.36793e-11)
(5.91063e-11 5.90295e-12 5.44742e-12)
(7.10042e-11 4.00936e-11 2.91606e-11)
(1.69367e-10 -3.81285e-11 8.05975e-11)
(2.94944e-10 -1.03536e-10 1.49561e-10)
(9.64522e-11 -5.92002e-11 1.41687e-11)
(2.20284e-10 -2.01078e-10 8.62758e-11)
(5.17793e-11 5.0024e-13 8.57284e-12)
(1.464e-10 -4.54265e-11 5.1218e-11)
(1.59205e-10 -8.85998e-11 1.30167e-11)
(4.20412e-11 -1.80575e-11 2.8432e-13)
(7.51998e-11 -5.87137e-11 5.22615e-12)
(9.86144e-11 -4.02246e-11 2.10914e-11)
(2.14254e-10 -2.05205e-10 8.05093e-11)
(5.83397e-11 -2.23374e-11 4.07909e-12)
(1.62575e-10 2.59016e-10 1.0521e-10)
(1.41222e-10 6.13684e-10 1.17751e-10)
(1.73776e-11 2.2598e-10 4.99304e-11)
(2.86069e-10 2.65363e-10 6.94841e-11)
(2.05057e-10 1.59217e-10 6.68729e-11)
(7.91958e-11 4.4278e-10 1.2239e-10)
(2.39194e-10 4.26899e-10 9.90666e-11)
(1.03356e-10 1.43251e-10 8.80282e-11)
(7.90345e-11 9.12452e-11 6.84318e-11)
(3.71976e-11 2.37722e-11 2.03618e-11)
(2.91949e-11 5.02123e-11 2.79821e-11)
(1.16633e-10 8.40815e-11 6.58916e-11)
(7.33296e-11 1.91586e-10 8.48323e-11)
(3.6044e-11 4.04999e-11 2.89399e-11)
(3.32959e-14 -5.18982e-14 4.92353e-11)
(2.48395e-13 3.21883e-12 4.78502e-11)
(-9.42815e-13 -2.27696e-13 5.74659e-11)
(-3.20319e-12 2.34852e-12 6.43516e-11)
(-9.17661e-13 1.97984e-12 5.74243e-11)
(1.03767e-12 2.23536e-12 5.54823e-11)
(-2.68265e-12 5.87184e-12 6.24036e-11)
(-2.65699e-13 4.57887e-12 5.59157e-11)
(3.08288e-10 8.32684e-10 8.20131e-12)
(4.65772e-10 3.7046e-10 5.79499e-12)
(3.9934e-10 5.92898e-10 5.00094e-12)
(-7.42813e-13 -2.1602e-12 5.55832e-11)
(-2.19728e-12 -3.19071e-12 5.9531e-11)
(-5.95278e-14 -1.70239e-12 5.36007e-11)
(6.28947e-13 -2.69564e-12 4.66936e-11)
(1.34625e-12 -8.84472e-13 4.76949e-11)
(-2.46456e-13 -2.75346e-12 5.77166e-11)
(1.48157e-12 -2.50069e-12 5.29544e-11)
(1.4432e-12 -1.46298e-12 5.36484e-11)
(-1.56189e-12 -4.34093e-13 3.88127e-11)
(-1.63435e-12 -3.74104e-13 3.85686e-11)
(-1.69449e-12 -2.90377e-13 4.46706e-11)
(-3.13268e-12 -3.70941e-13 5.04676e-11)
(-1.63761e-12 -3.69898e-13 4.48758e-11)
(-1.48983e-12 -4.73758e-13 4.53232e-11)
(-3.06279e-12 -4.08797e-13 5.06674e-11)
(-1.5707e-12 -4.11564e-13 4.50924e-11)
(-1.74182e-12 -2.06977e-13 4.45367e-11)
(-3.28911e-12 -1.25144e-13 5.01064e-11)
(-1.79031e-12 -1.39249e-13 4.44678e-11)
(-1.89254e-12 -2.87639e-14 3.7834e-11)
(-1.86725e-12 -1.03781e-13 3.78674e-11)
(-3.3277e-12 -7.55341e-14 5.00764e-11)
(-1.86348e-12 -2.17041e-14 4.43885e-11)
(-1.8314e-12 -9.53849e-14 4.44174e-11)
(3.99173e-11 -3.9397e-12 5.34215e-12)
(6.09627e-12 -1.19625e-12 -5.58883e-13)
(2.21682e-11 -5.34098e-12 -9.81764e-13)
(2.27297e-11 -5.57021e-12 7.03193e-13)
(7.0992e-11 -2.26517e-11 1.04122e-11)
(1.4167e-11 -1.77975e-12 -4.50061e-13)
(7.43979e-12 -1.43217e-12 2.04946e-12)
(3.85024e-11 4.25279e-12 2.932e-12)
(7.12959e-12 7.89255e-12 -5.72849e-13)
(1.14808e-11 3.44729e-11 8.74582e-12)
(1.35164e-11 1.16145e-11 -1.1651e-13)
(4.147e-11 3.55751e-11 -5.74196e-12)
(2.38562e-11 1.28625e-11 -5.88929e-12)
(1.28648e-11 4.57571e-12 6.47762e-14)
(4.7624e-11 -1.6953e-12 4.76109e-12)
(1.47237e-10 -5.31623e-11 2.32711e-11)
(3.08146e-11 -7.90234e-12 1.5208e-13)
(2.39942e-11 5.32151e-12 -6.77835e-13)
(8.50763e-11 -3.00508e-11 1.57803e-11)
(6.23099e-11 2.61469e-11 -6.11383e-12)
(2.07528e-11 -6.44438e-13 -2.05081e-13)
(3.57807e-10 -1.29598e-10 1.70868e-10)
(6.75498e-11 -6.04788e-11 9.4761e-12)
(2.65362e-10 -2.83447e-10 1.2308e-10)
(3.13866e-11 -1.04092e-11 5.3632e-11)
(1.58118e-10 8.87025e-11 5.73566e-10)
(2.15793e-10 -1.36097e-10 6.40587e-11)
(1.51685e-10 -1.49951e-10 3.36369e-11)
(1.91312e-10 -1.26472e-10 1.02459e-10)
(2.85648e-10 -3.14976e-10 9.45629e-11)
(3.19618e-10 -8.95608e-11 4.82784e-10)
(-9.13805e-11 1.49453e-10 -3.25641e-11)
(-1.92037e-11 3.5967e-11 5.45408e-12)
(4.60633e-13 4.5179e-11 6.31703e-12)
(5.06992e-12 2.59757e-11 -1.56314e-12)
(3.06123e-11 5.59933e-11 -1.18205e-11)
(-6.92532e-11 8.19434e-11 1.84126e-11)
(-2.37356e-11 5.05901e-11 6.9743e-13)
(-2.01294e-10 2.40988e-10 -1.7532e-11)
(-3.01512e-10 1.05352e-10 1.10417e-11)
(-1.9346e-09 8.57316e-10 -1.49083e-09)
(-1.62014e-10 1.29507e-10 4.62228e-11)
(-7.0438e-11 2.44955e-10 2.01612e-10)
(-6.74934e-10 2.69042e-10 -8.43337e-11)
(-1.34621e-10 1.14755e-10 2.45427e-11)
(-3.9393e-11 1.58403e-10 -2.98523e-11)
(1.81915e-10 -6.56431e-11 3.84528e-11)
(1.69829e-11 2.47478e-11 3.60881e-13)
(1.4317e-11 2.69161e-11 3.54963e-11)
(5.68798e-11 5.01702e-11 -1.30823e-11)
(1.38489e-10 9.22876e-11 2.19663e-10)
(-2.47254e-11 6.02757e-11 4.64611e-12)
(-8.54827e-13 -2.34764e-12 2.28944e-11)
(-5.59652e-12 -1.28877e-13 2.64111e-12)
(-7.40053e-12 -2.4088e-13 2.92268e-12)
(1.46503e-12 -4.65035e-13 2.06409e-11)
(-5.31043e-12 -1.02576e-13 2.59097e-12)
(-4.52779e-12 -5.49766e-14 2.44241e-12)
(2.05267e-12 5.47014e-14 1.9967e-11)
(-3.95456e-12 2.40744e-16 2.33339e-12)
(-3.83842e-12 -1.23125e-15 2.30771e-12)
(2.025e-12 -3.57637e-14 2.00795e-11)
(-3.96178e-12 3.70843e-17 2.33387e-12)
(-3.90156e-12 -7.39358e-15 2.31701e-12)
(3.74083e-10 1.32258e-10 8.17815e-11)
(1.93341e-10 9.82748e-11 4.24191e-11)
(3.32041e-11 3.12646e-11 -6.99124e-12)
(1.22767e-11 4.40667e-12 3.08451e-12)
(2.22427e-11 1.87361e-11 5.39679e-12)
(4.86784e-11 8.05557e-12 1.75846e-11)
(3.74606e-11 4.09977e-11 -2.97029e-11)
(1.94539e-11 9.07301e-12 2.23491e-12)
(3.31102e-11 1.47554e-11 1.07256e-11)
(5.90518e-11 1.37661e-11 -3.24651e-11)
(6.72717e-12 8.7628e-12 -4.43368e-12)
(9.28082e-12 3.02595e-11 4.94104e-12)
(1.0139e-11 1.34496e-11 -2.27299e-12)
(2.22969e-11 1.30171e-11 -2.09835e-11)
(1.64223e-11 2.09209e-11 -1.69576e-11)
(1.62662e-11 6.84814e-12 -5.68958e-12)
(4.27632e-11 9.46725e-12 -3.82478e-11)
(5.29113e-11 6.9874e-11 4.40203e-11)
(3.04209e-11 1.93863e-11 1.06977e-11)
(1.97595e-11 1.2438e-11 2.05319e-12)
(1.29749e-10 7.457e-11 3.23739e-11)
(2.38222e-11 2.21019e-11 -1.50559e-11)
(2.59582e-11 7.21836e-12 8.65248e-13)
(3.68442e-10 4.21565e-11 9.43078e-11)
(8.01453e-11 1.16061e-11 2.07165e-11)
(1.14845e-10 3.95194e-11 4.28968e-11)
(-2.43958e-11 8.57041e-10 6.34816e-11)
(1.08516e-11 4.50052e-10 1.28769e-10)
(-5.90099e-11 1.45194e-10 2.36857e-10)
(9.69073e-11 8.91541e-11 2.87552e-10)
(2.78356e-11 4.82223e-11 3.76566e-11)
(2.61487e-11 2.52395e-10 1.34017e-10)
(-6.414e-12 5.12068e-11 4.19864e-11)
(1.98488e-11 9.45622e-11 2.37154e-10)
(2.34849e-12 1.42537e-11 5.14518e-11)
(-1.07358e-11 3.02739e-11 1.49666e-10)
(7.83988e-12 2.19904e-11 4.59152e-11)
(-7.72225e-12 4.96506e-11 1.6027e-10)
(2.50111e-12 4.23275e-11 1.44575e-10)
(4.39447e-12 3.09998e-11 5.6043e-11)
(1.70031e-11 9.11206e-10 7.25157e-11)
(7.81199e-11 2.91545e-10 1.31143e-10)
(1.58054e-11 4.53381e-10 1.53011e-10)
(-4.29621e-12 1.42616e-10 2.44834e-10)
(3.15337e-11 1.01283e-10 3.45697e-11)
(1.90226e-11 3.90279e-11 2.87799e-11)
(4.74497e-12 3.64539e-11 3.81526e-11)
(5.07729e-11 1.63999e-10 1.57959e-10)
(-5.30812e-12 5.41163e-11 1.67784e-10)
(2.68549e-12 5.12249e-11 4.30179e-11)
(3.42546e-10 5.5213e-10 7.37251e-11)
(1.84718e-10 7.28556e-10 8.34978e-11)
(1.65927e-10 4.48762e-10 7.00594e-11)
(3.48033e-10 3.14315e-10 7.67972e-11)
(2.85178e-10 4.94873e-10 9.37184e-11)
(2.32893e-10 7.90265e-10 7.00483e-11)
(4.14315e-10 3.46649e-10 5.93415e-11)
(3.758e-10 5.71719e-10 6.46539e-11)
(1.91196e-10 4.45469e-10 6.42226e-11)
(2.72515e-10 8.40567e-10 5.2517e-11)
(4.60876e-10 3.76682e-10 6.47298e-11)
(2.65809e-10 8.20645e-10 5.83772e-11)
(4.60775e-10 3.51988e-10 6.11262e-11)
(3.83556e-10 5.92879e-10 5.89237e-11)
(-2.64953e-12 9.21983e-10 4.82735e-11)
(4.78214e-11 1.01958e-09 4.73433e-11)
(1.91074e-10 1.22844e-09 3.65398e-11)
(1.28296e-10 1.13777e-09 3.50091e-11)
(1.09667e-10 1.11276e-09 4.52851e-11)
(4.71868e-11 9.71597e-10 6.41368e-11)
(1.67144e-10 1.17659e-09 4.38823e-11)
(9.71958e-11 1.09287e-09 4.86143e-11)
(7.6846e-11 1.06125e-09 3.836e-11)
(6.08972e-11 1.03633e-09 4.38332e-11)
(-2.28266e-11 3.64046e-11 4.07914e-11)
(-1.12181e-11 2.49028e-11 4.97743e-12)
(-7.60568e-13 3.82982e-11 6.20323e-12)
(5.08865e-12 1.80572e-11 4.98714e-12)
(-5.65478e-11 6.50573e-11 -6.76431e-13)
(6.30396e-12 2.52635e-11 6.4643e-12)
(4.52087e-13 2.04251e-11 9.92625e-12)
(-2.40107e-11 3.32467e-11 6.88747e-11)
(-4.62977e-12 1.6618e-11 3.16083e-11)
(-1.5087e-11 2.74052e-11 1.37382e-10)
(6.73229e-12 1.80146e-11 3.52746e-11)
(-9.63011e-12 4.08488e-11 1.35156e-10)
(-3.90862e-11 2.70867e-11 1.11539e-10)
(1.90173e-12 1.882e-11 2.53446e-11)
(-1.74531e-11 3.32757e-11 6.32028e-11)
(2.4658e-11 6.84167e-11 6.19206e-11)
(1.08498e-11 1.97981e-11 1.0711e-11)
(9.02703e-12 2.45268e-11 3.01076e-11)
(1.01885e-11 2.50675e-11 9.82971e-12)
(-7.77467e-12 4.37976e-11 1.38278e-10)
(7.14823e-12 2.03842e-11 1.95589e-11)
(3.94534e-10 1.6312e-10 7.98143e-11)
(5.16601e-10 1.67035e-10 5.75658e-11)
(5.61357e-10 7.47031e-11 5.35886e-11)
(1.83827e-10 3.49794e-11 1.92709e-11)
(5.65798e-10 5.75464e-11 4.59673e-11)
(5.41381e-10 1.99117e-10 6.17132e-11)
(5.48887e-10 1.65771e-10 5.70277e-11)
(3.97621e-10 8.1698e-11 5.06871e-11)
(1.68338e-10 3.42845e-11 2.11033e-11)
(5.07654e-10 6.4819e-11 5.29268e-11)
(-1.92322e-11 7.38832e-13 3.17175e-11)
(-6.40311e-11 1.38879e-12 8.7276e-12)
(-4.13563e-11 5.83114e-13 6.10826e-12)
(-2.73409e-10 1.67895e-10 -1.97152e-10)
(-3.69258e-10 9.65392e-11 -2.2936e-11)
(-2.75121e-09 1.95446e-10 -2.4734e-09)
(-3.43217e-10 1.18383e-10 4.76376e-11)
(-6.79727e-10 5.83531e-11 -3.66984e-10)
(3.36627e-10 7.73896e-10 7.23891e-10)
(-2.58798e-10 7.15249e-11 4.87404e-12)
(-1.72452e-10 1.64572e-10 -2.42783e-11)
(-1.21183e-11 1.65979e-11 1.16401e-11)
(-5.87057e-11 1.65453e-11 8.65069e-12)
(-1.23056e-10 5.10279e-11 4.94168e-11)
(-3.8845e-11 2.85912e-11 1.49899e-12)
(-1.72156e-10 2.51775e-10 -9.28206e-11)
(-2.06653e-10 1.2933e-10 5.86966e-12)
(-8.89536e-12 8.38573e-10 2.5708e-10)
(-5.91297e-11 4.19857e-11 -5.9447e-12)
(1.31156e-12 3.61205e-11 1.79456e-10)
(1.01069e-11 6.8332e-12 4.67105e-11)
(6.03628e-12 1.80219e-11 4.96419e-11)
(3.66195e-12 3.34689e-11 1.78411e-10)
(3.07896e-12 8.50465e-12 5.16031e-11)
(1.56668e-12 1.35816e-11 4.93921e-11)
(-8.12541e-12 2.35078e-11 1.70006e-10)
(2.04358e-12 1.55313e-11 4.98186e-11)
(-9.2618e-12 -3.20823e-13 7.12184e-11)
(-6.13514e-12 2.89489e-12 6.94267e-11)
(-9.71557e-12 3.43041e-12 7.0002e-11)
(-2.75566e-11 7.8023e-12 5.9085e-11)
(-1.4369e-11 1.06617e-11 5.46552e-11)
(-1.60938e-11 8.06036e-12 6.1844e-11)
(-5.33599e-12 7.13729e-12 6.67784e-11)
(-7.80595e-12 9.79055e-12 5.98787e-11)
(-9.38343e-12 8.11555e-12 6.63167e-11)
(-2.69613e-11 2.21371e-11 9.68001e-11)
(-8.35415e-12 1.1212e-11 3.63828e-11)
(-1.40295e-11 2.13736e-11 1.11716e-10)
(-7.51141e-13 1.16454e-11 4.19082e-11)
(-3.99906e-11 2.50504e-11 1.31395e-10)
(-1.2863e-11 2.66341e-11 1.20309e-10)
(-6.5903e-12 1.05666e-11 3.80038e-11)
(-3.70206e-11 1.641e-11 1.35028e-10)
(-1.89949e-11 3.43812e-11 3.2115e-11)
(-2.09347e-11 1.38712e-11 4.40634e-11)
(-9.65128e-11 2.48567e-11 5.80159e-11)
(-1.50666e-11 1.37854e-11 3.77237e-11)
(-3.10815e-11 1.4609e-11 1.40229e-10)
(-1.31645e-13 1.25406e-11 4.59271e-11)
(-5.55546e-12 1.3217e-11 4.82497e-11)
(-1.02519e-11 2.15897e-11 1.62295e-10)
(-5.23717e-12 1.16484e-11 4.14266e-11)
(3.78642e-10 5.97145e-10 1.89855e-11)
(1.93487e-10 4.96869e-10 3.22476e-11)
(2.96401e-10 8.33937e-10 1.50601e-11)
(4.51847e-10 3.79774e-10 7.88744e-12)
(3.90538e-10 5.94053e-10 1.04223e-11)
(2.82774e-10 8.35198e-10 2.03815e-11)
(4.36277e-10 3.91461e-10 1.95307e-11)
(3.71161e-10 6.00583e-10 3.01724e-11)
(1.80568e-10 5.08331e-10 3.50015e-11)
(2.65589e-10 8.44776e-10 3.91641e-11)
(4.36814e-10 3.95752e-10 5.52475e-11)
(3.73741e-10 5.98392e-10 4.67728e-11)
(2.69488e-10 8.40792e-10 3.02111e-11)
(4.26571e-10 4.01438e-10 3.01699e-11)
(5.2726e-10 2.04896e-10 7.31597e-12)
(5.25532e-10 9.81511e-11 4.44787e-12)
(1.14165e-10 1.05631e-09 1.19296e-11)
(1.6336e-10 1.1576e-09 1.22717e-11)
(1.11237e-10 1.05421e-09 1.56383e-11)
(9.96072e-11 1.0463e-09 2.32146e-11)
(1.31371e-10 1.1362e-09 3.19769e-11)
(2.21813e-10 1.25697e-09 2.3695e-11)
(1.46187e-10 1.13255e-09 2.5561e-11)
(7.85341e-11 1.06002e-09 3.37927e-11)
(9.38566e-11 1.04855e-09 2.72309e-11)
(1.61314e-10 1.15339e-09 1.48978e-11)
(2.28163e-10 1.28233e-09 2.24631e-11)
(1.50893e-10 1.13504e-09 2.30014e-11)
(5.19995e-10 2.10081e-10 8.48501e-12)
(4.96768e-10 2.28343e-10 2.18739e-11)
(5.13601e-10 1.09056e-10 4.38507e-11)
(1.7968e-10 4.7004e-11 9.85505e-12)
(5.01117e-10 1.20512e-10 2.53036e-11)
(5.18848e-10 2.15348e-10 5.70615e-11)
(4.91294e-10 2.3332e-10 2.59073e-11)
(5.15987e-10 1.06353e-10 7.30944e-12)
(1.80315e-10 4.71591e-11 6.15009e-12)
(5.09e-10 1.14684e-10 1.66204e-11)
(-8.14889e-12 -4.04483e-12 6.98294e-11)
(-4.81445e-12 -4.82247e-12 6.43484e-11)
(-6.45191e-12 -5.79551e-12 6.54057e-11)
(-6.84566e-12 -3.9809e-12 4.89198e-11)
(-5.91715e-12 -2.30558e-12 5.4682e-11)
(-6.48527e-12 -4.55839e-12 5.66103e-11)
(-2.9737e-12 -4.22245e-12 6.05558e-11)
(-4.59178e-12 -2.62761e-12 5.83037e-11)
(-5.09599e-12 -4.91678e-12 6.06649e-11)
(-5.27769e-13 -3.10386e-12 4.35838e-11)
(-1.17057e-12 -2.09344e-12 4.13178e-11)
(-1.07365e-12 -9.91882e-13 4.69207e-11)
(-2.07567e-12 -1.47917e-12 5.29514e-11)
(-1.00491e-12 -1.4928e-12 4.74728e-11)
(1.82563e-13 -2.97221e-12 5.06726e-11)
(-1.58726e-12 -2.01804e-12 5.39311e-11)
(-7.26093e-13 -2.29013e-12 4.85705e-11)
(-4.06738e-12 -8.12147e-13 4.63216e-11)
(-5.54937e-12 -1.0328e-12 5.47599e-11)
(-5.42246e-12 -7.00081e-13 5.5042e-11)
(-5.62912e-12 -6.46618e-13 5.80376e-11)
(-3.95745e-12 -1.21217e-12 5.69647e-11)
(-5.3797e-12 -8.37786e-13 5.82007e-11)
(-4.66138e-12 -1.29529e-12 5.82444e-11)
(-3.43311e-12 -1.50733e-12 5.75533e-11)
(-5.01515e-12 -1.00464e-12 5.83568e-11)
(2.13451e-12 -1.29468e-13 2.00185e-11)
(-3.88273e-12 -1.27667e-14 2.3239e-12)
(-3.75721e-12 -1.12304e-14 2.30952e-12)
(2.06158e-12 -7.44255e-14 2.01701e-11)
(-3.87571e-12 -1.43174e-14 2.32073e-12)
(-3.87676e-12 -1.62839e-14 2.31958e-12)
(-1.49821e-12 -4.81996e-13 3.90828e-11)
(-1.42929e-12 -5.50899e-13 3.93913e-11)
(-1.12647e-12 -7.5514e-13 4.658e-11)
(-2.6059e-12 -6.6668e-13 5.17197e-11)
(-1.21318e-12 -6.60915e-13 4.62717e-11)
(-1.40617e-12 -5.46515e-13 4.56058e-11)
(-2.74449e-12 -6.11885e-13 5.14232e-11)
(-1.31102e-12 -6.21224e-13 4.59384e-11)
(-6.34273e-12 -2.01826e-13 5.72193e-11)
(-5.18198e-12 -3.24804e-13 5.51764e-11)
(-6.31317e-12 -2.67002e-13 5.73092e-11)
(-3.09069e-12 -1.82381e-13 4.55382e-11)
(-5.59592e-12 -2.61615e-13 5.50083e-11)
(-5.62484e-12 -2.36087e-13 5.49e-11)
(-5.11786e-12 -3.77535e-13 5.53432e-11)
(-6.20584e-12 -3.46259e-13 5.75902e-11)
(-6.26572e-12 -3.15058e-13 5.74386e-11)
(-5.80024e-12 -5.02629e-13 5.79555e-11)
(-4.64566e-12 -5.74518e-13 5.61025e-11)
(-5.91825e-12 -4.25558e-13 5.78736e-11)
(-3.15524e-12 -2.35802e-13 4.5758e-11)
(-5.56529e-12 -2.4386e-13 5.50854e-11)
(-5.53593e-12 -2.5955e-13 5.51143e-11)
(-4.8024e-12 -5.13055e-13 5.59049e-11)
(-6.13767e-12 -3.48264e-13 5.7714e-11)
(-6.03897e-12 -3.67945e-13 5.78005e-11)
(-6.37744e-12 -1.59453e-13 5.71414e-11)
(-5.32198e-12 -1.13932e-13 5.48853e-11)
(-6.4184e-12 -8.63849e-14 5.70852e-11)
(-3.19462e-12 1.12525e-14 4.53843e-11)
(-5.76927e-12 5.95546e-14 5.47092e-11)
(-5.74951e-12 1.55182e-15 5.46489e-11)
(-5.35607e-12 -3.70918e-14 5.48753e-11)
(-6.45912e-12 5.66756e-14 5.71606e-11)
(-6.44645e-12 -1.16234e-14 5.70908e-11)
(-1.91306e-12 1.43689e-14 3.78649e-11)
(-1.93408e-12 4.6831e-14 3.79465e-11)
(-3.37842e-12 -1.04725e-14 5.04763e-11)
(-1.87912e-12 2.95476e-15 4.47189e-11)
(-1.88393e-12 4.4452e-14 4.44421e-11)
(-3.39324e-12 7.50648e-14 5.0304e-11)
(-1.89413e-12 6.14646e-14 4.45721e-11)
(-3.24593e-12 2.73686e-14 4.56216e-11)
(-5.78967e-12 7.0889e-14 5.48113e-11)
(-5.80518e-12 7.02351e-14 5.49442e-11)
(-5.41417e-12 -1.01691e-14 5.53535e-11)
(-6.51052e-12 -1.55117e-14 5.75878e-11)
(-6.47827e-12 7.32279e-14 5.72685e-11)
(-5.41943e-12 6.87348e-14 5.51641e-11)
(-6.50611e-12 7.03869e-14 5.74005e-11)
(-3.18333e-11 -2.90255e-12 5.43455e-11)
(-5.25806e-12 -2.8842e-12 2.20801e-11)
(-4.00789e-11 -4.48356e-12 9.17722e-11)
(-2.95036e-12 -3.38887e-12 2.64041e-11)
(-3.70258e-11 -2.90098e-12 5.84247e-11)
(-3.46677e-11 -4.39719e-12 8.60447e-11)
(-3.07686e-12 -2.89748e-12 2.07693e-11)
(-1.77256e-11 -2.8336e-13 4.03787e-11)
(-2.08421e-11 -3.77012e-13 6.92114e-11)
(1.75363e-12 -2.24077e-13 2.04235e-11)
(2.45982e-12 -2.10549e-13 1.53972e-11)
(-2.10576e-11 -4.87054e-13 6.96147e-11)
(-1.75613e-11 -2.82291e-13 4.00031e-11)
(2.41727e-12 -1.57647e-13 1.5482e-11)
(-1.68275e-11 -4.49767e-14 3.9103e-11)
(2.72069e-12 3.0254e-14 1.50215e-11)
(-2.01963e-11 -5.95324e-14 6.82762e-11)
(2.0551e-12 -4.5706e-14 1.99716e-11)
(-1.68342e-11 -4.53786e-15 3.89508e-11)
(-2.02187e-11 1.28285e-15 6.83809e-11)
(2.74357e-12 -4.88197e-14 1.50479e-11)
(-4.73691e-11 -2.65857e-12 6.42129e-11)
(-7.46992e-12 -2.92138e-12 2.31529e-11)
(-4.35629e-11 -3.73094e-12 9.42555e-11)
(-9.48776e-12 -2.26249e-12 3.02669e-11)
(-4.06769e-11 -2.80907e-12 6.04227e-11)
(-4.96072e-11 -3.5143e-12 9.78811e-11)
(-1.09621e-11 -2.768e-12 2.4379e-11)
(-1.06597e-12 4.16651e-11 1.41039e-10)
(5.45523e-14 1.84615e-11 4.9546e-11)
(1.37375e-11 6.34325e-11 1.3761e-10)
(5.54395e-12 1.66419e-11 4.97798e-11)
(1.25967e-11 3.64507e-11 1.42323e-10)
(1.35008e-12 3.90927e-11 1.4348e-10)
(6.91969e-13 1.52665e-11 4.82081e-11)
(-1.67703e-11 -2.1614e-14 3.91381e-11)
(2.74748e-12 -5.95597e-14 1.50188e-11)
(-2.01512e-11 -5.14828e-14 6.82608e-11)
(2.09382e-12 -2.44185e-14 1.99899e-11)
(-1.67802e-11 -5.33311e-14 3.89146e-11)
(-2.01973e-11 -1.14692e-13 6.85284e-11)
(2.79581e-12 1.41787e-14 1.50551e-11)
(-1.73342e-11 -2.34674e-13 3.98948e-11)
(-2.07782e-11 -3.51964e-13 6.92228e-11)
(2.50101e-12 -1.0594e-13 1.53535e-11)
(1.92835e-12 -1.96477e-13 2.02807e-11)
(-1.74831e-11 -2.11763e-13 3.99067e-11)
(-2.06587e-11 -2.6954e-13 6.91876e-11)
(2.5937e-12 -1.77762e-13 1.53329e-11)
(1.92278e-10 4.00187e-10 9.16695e-11)
(9.73686e-11 5.26255e-10 7.72139e-11)
(6.09107e-11 3.26059e-10 6.04165e-11)
(2.34518e-10 3.14284e-10 8.33819e-11)
(2.05214e-10 2.73908e-10 8.1168e-11)
(6.87111e-11 4.78635e-10 6.26489e-11)
(2.17227e-10 4.59952e-10 8.77086e-11)
(1.12803e-10 1.66307e-10 1.11743e-10)
(2.73104e-11 3.06727e-10 1.23342e-10)
(2.65179e-11 5.66594e-11 3.75966e-11)
(5.33513e-11 1.80052e-10 1.1136e-10)
(3.58271e-11 4.77326e-11 3.58729e-11)
(2.39727e-10 6.51085e-10 1.22479e-11)
(3.87091e-10 4.03849e-10 1.2399e-11)
(3.74683e-10 5.80419e-10 8.10391e-12)
(-6.45812e-10 9.62403e-11 -1.49976e-10)
(-1.03059e-09 -4.27914e-11 -2.77062e-10)
(-2.16043e-11 -1.46983e-12 4.41233e-11)
(6.82193e-14 -1.40427e-12 2.16451e-11)
(-2.35957e-11 -1.70202e-12 7.07866e-11)
(1.00562e-12 -9.03424e-13 1.64436e-11)
(-2.06674e-11 -1.20147e-12 4.31216e-11)
(-2.46658e-11 -2.17659e-12 7.17993e-11)
(6.30263e-13 -1.10174e-12 1.67785e-11)
(-1.93358e-11 -8.28179e-13 4.19231e-11)
(1.04451e-12 -6.59965e-13 2.08985e-11)
(-2.30367e-11 -1.37624e-12 7.05606e-11)
(1.30499e-12 -6.3716e-13 1.61998e-11)
(-1.99791e-11 -9.64284e-13 4.24303e-11)
(-2.24272e-11 -1.08711e-12 7.02485e-11)
(1.62944e-12 -5.83354e-13 1.6021e-11)
(-1.69098e-11 2.84301e-14 3.91565e-11)
(2.02434e-12 4.55713e-14 1.99953e-11)
(-2.03247e-11 3.04583e-14 6.83543e-11)
(2.66221e-12 -2.25919e-14 1.50499e-11)
(-1.69582e-11 -1.46802e-14 3.90153e-11)
(-2.03061e-11 -2.68542e-14 6.84625e-11)
(2.70657e-12 5.41713e-14 1.50676e-11)
(-1.70009e-11 -2.68705e-14 3.92664e-11)
(2.0086e-12 1.01183e-14 2.0047e-11)
(-2.03296e-11 1.1871e-14 6.84026e-11)
(2.66471e-12 6.49653e-14 1.50609e-11)
(-1.69693e-11 3.47699e-14 3.90359e-11)
(-2.0412e-11 5.89886e-14 6.86508e-11)
(2.69266e-12 -1.47652e-14 1.51062e-11)
(2.404e-10 1.81967e-10 8.34939e-11)
(2.12889e-10 1.51128e-10 8.65988e-11)
(-4.08603e-11 5.84068e-10 5.51901e-11)
(-7.29104e-11 5.41219e-10 2.43886e-11)
(2.68057e-10 5.25298e-10 7.29342e-11)
(9.97314e-11 5.82129e-10 6.59977e-11)
(1.22072e-10 4.25842e-10 7.44828e-11)
(2.45856e-10 3.51449e-10 8.29207e-11)
(2.42148e-10 4.94309e-10 8.30596e-11)
(1.29937e-10 6.01236e-10 6.89354e-11)
(2.77118e-10 3.68103e-10 7.55841e-11)
(3.58614e-10 5.87187e-10 5.95159e-11)
(2.00088e-10 4.67842e-10 5.04381e-11)
(1.98438e-10 6.78506e-10 5.06963e-11)
(3.62896e-10 4.21404e-10 5.56321e-11)
(2.06875e-10 6.66774e-10 5.25793e-11)
(3.82287e-10 4.01461e-10 6.06471e-11)
(3.47584e-10 5.99423e-10 5.86471e-11)
(-4.67219e-11 6.4697e-10 4.67552e-11)
(-1.78022e-11 6.6788e-10 5.91942e-11)
(3.94493e-11 7.4926e-10 4.31427e-11)
(3.89208e-11 7.39566e-10 4.5204e-11)
(2.46536e-10 2.21937e-10 8.68535e-11)
(2.78474e-10 2.32835e-10 8.73234e-11)
(3.67882e-10 2.65088e-10 4.26513e-11)