/*--------------------------------*- C++ -*----------------------------------*\
| =========                 |                                                 |
| \\      /  F ield         | OpenFOAM: The Open Source CFD Toolbox           |
|  \\    /   O peration     | Version:  2012                                  |
|   \\  /    A nd           | Website:  www.openfoam.com                      |
|    \\/     M anipulation  |                                                 |
\*---------------------------------------------------------------------------*/
FoamFile
{
    version     2.0;
    format      ascii;
    class       volVectorField;
    location    "0.105/solid";
    object      D_0;
}
// * * * * * * * * * * * * * * * * * * * * * * * * * * * * * * * * * * * * * //

dimensions      [0 1 0 0 0 0 0];


internalField   nonuniform List<vector> 
3124
(
(3.16836e-11 5.6928e-11 3.87384e-11)
(2.72614e-12 -3.29236e-14 -4.17816e-12)
(-6.22314e-11 2.92497e-11 1.76609e-12)
(-4.3716e-12 -2.95732e-12 2.70551e-11)
(2.06347e-12 -2.26191e-13 1.9995e-11)
(2.27909e-12 2.80597e-14 1.96876e-11)
(5.13927e-12 1.42601e-13 -5.40939e-12)
(-1.4147e-12 3.9866e-11 5.1071e-11)
(1.73541e-10 2.33773e-10 4.07369e-11)
(-2.51244e-11 2.43465e-11 1.57659e-11)
(-5.94156e-12 -2.49018e-12 2.81638e-11)
(-5.72457e-11 2.04051e-11 -7.12708e-12)
(5.57966e-12 2.11039e-11 5.05882e-11)
(-1.57818e-11 -2.18414e-12 5.93321e-11)
(-2.38935e-11 1.4303e-11 1.61007e-11)
(1.71899e-10 2.44123e-10 2.29561e-11)
(-1.09954e-11 -4.78714e-12 5.63227e-11)
(-3.15227e-12 -3.70666e-13 4.53091e-11)
(2.29985e-12 -8.10191e-14 1.96912e-11)
(2.10454e-12 -1.04797e-13 1.99585e-11)
(-2.8029e-12 -9.39727e-14 4.49152e-11)
(-3.0081e-12 -2.80784e-13 4.52559e-11)
(-2.83282e-12 -5.65601e-14 4.4887e-11)
(1.78566e-11 -2.4582e-12 -2.25784e-12)
(1.08265e-10 -1.4435e-11 4.63213e-11)
(5.84518e-11 -3.42845e-11 -1.29278e-12)
(1.08136e-10 3.51314e-10 7.14995e-11)
(5.46697e-11 3.47684e-11 2.44941e-11)
(9.00616e-11 1.50215e-10 9.23895e-11)
(1.39234e-10 6.29586e-10 2.03356e-10)
(3.04835e-11 2.87986e-11 1.98283e-11)
(1.6863e-10 9.19855e-11 5.37772e-11)
(-3.12747e-12 -1.90104e-13 6.2899e-11)
(-5.63074e-13 5.50011e-12 5.79282e-11)
(2.41871e-10 4.58144e-10 1.72198e-11)
(2.59499e-10 1.02177e-09 1.06246e-11)
(-3.07363e-12 -2.62079e-12 6.09875e-11)
(5.22912e-13 -2.25937e-12 5.55805e-11)
(-3.1622e-12 -2.50592e-13 4.98958e-11)
(-2.94949e-12 -4.12936e-13 5.04125e-11)
(-3.20715e-12 -1.61244e-13 4.97973e-11)
(-3.30665e-12 2.54516e-14 4.97695e-11)
(9.15676e-12 -2.93554e-12 -2.41732e-12)
(7.58035e-12 1.1596e-11 -2.1215e-12)
(3.99871e-11 -1.13223e-11 -3.47634e-12)
(1.26051e-10 -5.23379e-11 5.41256e-11)
(9.66001e-11 -5.66955e-11 2.01773e-11)
(1.45164e-12 2.06536e-11 -2.25504e-12)
(-6.31784e-10 1.78147e-10 -2.28181e-10)
(4.28412e-11 3.78394e-12 6.52973e-12)
(8.23183e-13 -1.01157e-12 2.07706e-11)
(1.0687e-12 -6.58889e-13 2.05747e-11)
(2.23204e-12 -1.86948e-14 1.97341e-11)
(2.24064e-12 8.34306e-14 1.9751e-11)
(1.67935e-11 6.02401e-12 6.32434e-12)
(5.21167e-12 1.23564e-11 -3.49933e-12)
(2.54859e-11 1.81681e-11 1.0569e-11)
(1.29994e-10 2.75663e-11 2.41088e-11)
(4.10891e-12 1.25762e-11 4.20832e-11)
(6.78438e-11 8.95917e-10 9.96279e-12)
(1.3516e-11 3.30746e-11 2.38085e-11)
(1.10691e-10 3.96398e-10 6.9296e-11)
(1.51391e-10 2.06324e-10 7.39805e-11)
(2.43257e-10 9.68208e-10 4.56382e-11)
(2.76084e-10 1.45916e-10 3.81539e-11)
(1.87497e-10 8.18895e-10 1.15681e-10)
(2.06497e-10 4.76079e-10 4.45856e-11)
(2.35098e-10 1.32089e-10 4.10864e-11)
(2.13223e-10 1.23821e-09 2.69159e-11)
(1.52902e-10 1.03148e-09 8.01436e-11)
(1.5815e-12 1.69404e-11 -6.25191e-13)
(2.55474e-12 1.28037e-11 3.49563e-11)
(1.29759e-11 2.38338e-11 1.70306e-11)
(1.90202e-10 3.80228e-11 2.26323e-11)
(1.50099e-10 2.98648e-11 2.27941e-11)
(-2.52963e-11 9.54139e-12 2.70147e-11)
(-7.2835e-10 1.482e-10 -2.64272e-10)
(-1.8961e-11 1.1013e-11 2.82255e-11)
(2.09774e-12 1.15546e-11 4.17101e-11)
(2.43817e-12 9.89053e-12 5.23752e-11)
(-5.97272e-12 -4.14462e-14 6.83203e-11)
(-2.90107e-11 3.72406e-12 5.17053e-11)
(-2.73743e-12 8.44067e-12 5.97519e-11)
(-4.83921e-13 1.04425e-11 3.67704e-11)
(-3.15648e-11 1.84894e-11 3.70363e-11)
(5.01379e-13 1.19792e-11 5.07311e-11)
(2.31762e-10 4.67641e-10 2.1069e-11)
(1.73048e-10 2.48254e-10 1.06799e-11)
(2.47255e-10 9.73228e-10 3.50237e-11)
(2.68579e-10 1.60334e-10 2.41175e-11)
(1.89559e-10 4.97928e-10 4.14877e-11)
(2.58579e-10 1.01076e-09 1.87726e-11)
(2.71764e-10 1.59974e-10 9.56176e-12)
(1.83038e-10 4.48373e-11 1.46399e-12)
(2.39674e-10 1.32305e-09 1.17543e-11)
(2.23025e-10 1.23897e-09 2.43537e-11)
(2.395e-10 1.30348e-09 1.84394e-11)
(1.86011e-10 4.33214e-11 1.77866e-11)
(1.83299e-10 4.5531e-11 3.04258e-12)
(-5.88079e-12 -3.25999e-12 6.66966e-11)
(-5.14335e-12 -2.00463e-12 4.59942e-11)
(-2.01422e-12 -2.38754e-12 5.74709e-11)
(-2.28481e-12 -9.41178e-13 5.17084e-11)
(-5.03294e-13 -2.22589e-12 5.44343e-11)
(-4.244e-12 -1.03379e-12 4.56083e-11)
(-4.19775e-12 -7.88007e-13 5.58524e-11)
(-2.53819e-12 -1.56749e-12 5.71164e-11)
(2.30986e-12 -2.86601e-14 1.97795e-11)
(2.31271e-12 -1.32306e-13 1.97983e-11)
(-2.44311e-12 -6.97595e-13 5.14033e-11)
(-2.84205e-12 -4.82406e-13 5.0634e-11)
(-5.18023e-12 -2.10222e-13 5.46305e-11)
(-2.78305e-12 -1.66198e-13 4.50729e-11)
(-4.97791e-12 -3.62092e-13 5.50305e-11)
(-4.41412e-12 -5.88448e-13 5.5661e-11)
(-2.80571e-12 -1.80661e-13 4.51299e-11)
(-4.86138e-12 -3.9575e-13 5.51765e-11)
(-5.22157e-12 -1.53864e-13 5.45515e-11)
(-2.89268e-12 4.92569e-14 4.49734e-11)
(-5.31133e-12 6.36531e-14 5.45807e-11)
(-3.3277e-12 9.19464e-14 4.98717e-11)
(-2.90591e-12 5.87715e-14 4.50657e-11)
(-5.333e-12 9.52298e-14 5.47071e-11)
(1.58269e-10 3.71052e-13 8.11345e-11)
(5.38791e-11 1.68399e-11 1.37029e-11)
(-9.14434e-13 1.47038e-13 4.78366e-11)
(-7.66672e-13 1.49089e-12 4.75814e-11)
(-1.21489e-13 -1.27967e-12 4.66752e-11)
(8.37299e-13 -5.10187e-13 4.57265e-11)
(-1.74198e-12 -2.23462e-13 3.78772e-11)
(-1.70319e-12 -2.96267e-13 3.80432e-11)
(-1.77709e-12 -1.71156e-13 3.77644e-11)
(-1.82344e-12 -1.08132e-13 3.76896e-11)
(3.24618e-11 7.33059e-14 -7.23364e-12)
(3.29098e-12 -6.60549e-13 -2.41005e-12)
(5.57182e-12 2.7653e-12 -5.84496e-12)
(5.06727e-12 2.95834e-12 -1.70752e-11)
(2.36931e-11 8.92934e-12 -2.49396e-11)
(8.23538e-12 3.82122e-13 -3.43417e-12)
(5.87728e-12 -7.64013e-14 -4.98328e-12)
(-1.77708e-10 1.91021e-10 -7.40166e-11)
(-1.79395e-10 8.07752e-11 -6.05732e-11)
(-4.52768e-11 3.61629e-11 4.95732e-12)
(-1.35728e-10 4.37804e-11 -5.0979e-12)
(-9.92689e-11 8.63814e-11 1.35583e-11)
(-4.94418e-10 1.80619e-10 -1.18236e-10)
(-7.79229e-11 6.19309e-11 2.90025e-12)
(-1.34008e-11 -1.98043e-13 3.61976e-12)
(-5.14397e-13 -2.74226e-12 2.31236e-11)
(-7.24659e-12 -2.36709e-13 2.84618e-12)
(1.85271e-12 -2.43722e-13 2.01603e-11)
(-3.72906e-12 -2.40593e-14 2.30737e-12)
(-3.89562e-12 -3.83436e-14 2.33256e-12)
(-3.4896e-12 -3.98386e-15 2.26766e-12)
(2.27449e-12 -4.76098e-14 1.97114e-11)
(-3.44487e-12 -5.67963e-16 2.2501e-12)
(2.25872e-12 3.57976e-14 1.98611e-11)
(-3.51678e-12 -1.59632e-14 2.25729e-12)
(7.39801e-11 1.58376e-11 -2.0977e-11)
(1.0223e-11 9.64325e-13 -3.09418e-12)
(9.06695e-12 2.81619e-12 -8.99385e-12)
(5.91611e-12 3.7925e-12 -2.03838e-11)
(2.28678e-11 1.01231e-11 -4.01389e-11)
(1.88229e-11 2.8882e-12 -5.98862e-12)
(1.54127e-11 5.11235e-12 -2.07553e-11)
(5.41293e-11 1.35884e-10 2.21105e-10)
(-2.38853e-12 2.59939e-11 5.43041e-11)
(-2.44608e-11 7.14511e-11 1.69326e-10)
(-1.20892e-11 3.94036e-11 5.50828e-11)
(-2.90459e-11 3.53291e-11 3.37478e-11)
(-1.32667e-10 5.38185e-11 4.60745e-11)
(-2.12765e-11 2.85607e-11 6.68477e-12)
(-1.21059e-11 2.08894e-11 2.3577e-11)
(-7.91292e-11 6.83818e-11 -7.99545e-12)
(-5.19161e-11 2.96896e-11 9.49345e-11)
(-5.55404e-12 2.29545e-11 1.32616e-11)
(-1.64476e-11 -1.30559e-13 3.78238e-12)
(-1.45539e-11 -3.14315e-14 3.01603e-11)
(-3.20402e-11 2.51873e-13 5.21282e-12)
(-2.74555e-10 1.22745e-10 -1.7537e-10)
(-1.89821e-10 5.61068e-11 -2.45823e-11)
(-1.40258e-10 3.56256e-11 -3.28048e-11)
(-4.29193e-11 3.31886e-11 -3.56618e-12)
(-4.81781e-10 1.23877e-10 -3.23691e-10)
(-1.46312e-10 4.16537e-11 -1.94144e-11)
(-1.07481e-10 6.32025e-11 -2.58905e-11)
(-1.18195e-11 -4.53452e-13 6.57559e-11)
(-2.12896e-11 1.49506e-12 5.97768e-11)
(-1.36437e-11 3.5591e-12 6.41236e-11)
(-4.40098e-11 2.18542e-11 9.09852e-11)
(-1.4164e-10 4.17359e-11 3.25476e-11)
(-1.28601e-11 1.22678e-11 2.91809e-11)
(-1.93427e-11 2.0485e-11 1.64231e-11)
(-5.2298e-11 2.6401e-11 1.13773e-10)
(-1.09765e-10 3.0977e-11 2.0232e-11)
(-1.03685e-11 1.08235e-11 2.97852e-11)
(-9.41907e-12 -4.12537e-12 6.43156e-11)
(-7.85569e-12 -5.18297e-12 5.14808e-11)
(-7.22884e-12 -5.5449e-12 5.97822e-11)
(-1.33649e-12 -6.90788e-13 3.96414e-11)
(-1.35498e-12 -1.12695e-12 3.98954e-11)
(-3.34801e-12 -4.8991e-13 4.54079e-11)
(-5.2602e-12 -3.40829e-13 5.44557e-11)
(-5.21501e-12 -4.39392e-13 5.43915e-11)
(-3.46398e-12 -5.2733e-15 2.26228e-12)
(2.34507e-12 -6.98935e-15 1.97332e-11)
(-3.3574e-12 -7.79817e-15 2.24389e-12)
(-3.71405e-12 -2.06172e-14 2.30943e-12)
(2.25777e-12 -1.64154e-13 1.98913e-11)
(-3.4811e-12 -1.49833e-14 2.25763e-12)
(-1.34699e-12 -5.55346e-13 3.9473e-11)
(-1.40145e-12 -5.1236e-13 3.92436e-11)
(-5.48454e-12 -1.24526e-13 5.42919e-11)
(-2.79577e-12 -1.19845e-13 4.49696e-11)
(-5.4614e-12 -1.69841e-13 5.43515e-11)
(-5.29153e-12 -2.75449e-13 5.45265e-11)
(-2.92248e-12 -2.38964e-13 4.52265e-11)
(-5.31614e-12 -2.45809e-13 5.45549e-11)
(-5.50757e-12 -9.5797e-14 5.42439e-11)
(-2.87434e-12 -2.06444e-14 4.49003e-11)
(-5.53255e-12 -3.2924e-14 5.42234e-11)
(-1.88205e-12 6.54877e-15 3.79229e-11)
(-2.96855e-12 -8.31258e-14 4.53278e-11)
(-5.61783e-12 -5.34275e-14 5.47606e-11)
(1.10759e-10 -2.20806e-12 1.07656e-11)
(3.23896e-11 2.09158e-11 8.80645e-12)
(3.02031e-11 -7.63382e-12 -2.76917e-12)
(3.7527e-11 -6.93781e-12 -5.76707e-13)
(8.15838e-11 -2.76374e-11 4.63996e-12)
(5.63193e-11 6.11284e-12 3.72326e-12)
(6.99065e-11 4.03498e-11 2.51682e-11)
(1.62845e-10 -3.03435e-11 7.34547e-11)
(2.91116e-10 -8.7049e-11 1.3559e-10)
(8.91944e-11 -5.39322e-11 1.24486e-11)
(2.06444e-10 -1.85624e-10 7.30269e-11)
(4.92263e-11 1.73203e-12 7.80433e-12)
(1.40127e-10 -3.92074e-11 4.37225e-11)
(1.50934e-10 -8.9027e-11 2.4341e-13)
(3.93392e-11 -1.87659e-11 -2.54731e-12)
(6.93713e-11 -5.66455e-11 2.05432e-12)
(9.41368e-11 -3.99702e-11 1.08595e-11)
(2.02184e-10 -1.94415e-10 6.61992e-11)
(5.44161e-11 -2.10075e-11 1.93434e-12)
(1.70503e-10 2.53826e-10 1.01721e-10)
(1.54988e-10 6.02781e-10 1.16027e-10)
(3.03359e-11 2.15464e-10 5.06919e-11)
(3.0118e-10 2.55976e-10 6.75585e-11)
(2.15705e-10 1.52921e-10 6.33983e-11)
(8.94297e-11 4.34625e-10 1.19346e-10)
(2.51339e-10 4.18647e-10 9.73729e-11)
(1.07386e-10 1.40478e-10 8.50802e-11)
(8.24513e-11 8.96011e-11 6.58831e-11)
(3.86116e-11 2.29513e-11 1.95439e-11)
(3.05592e-11 4.93284e-11 2.72247e-11)
(1.21047e-10 8.14658e-11 6.36161e-11)
(7.77626e-11 1.88459e-10 8.25696e-11)
(3.7276e-11 3.9725e-11 2.80748e-11)
(2.24041e-13 6.51451e-14 4.78371e-11)
(3.33147e-13 3.32139e-12 4.65382e-11)
(-8.62818e-13 -2.69834e-14 5.61567e-11)
(-2.91288e-12 2.66744e-12 6.27621e-11)
(-7.785e-13 2.19853e-12 5.60047e-11)
(1.41207e-12 2.42668e-12 5.37886e-11)
(-2.23467e-12 6.19894e-12 6.05839e-11)
(-2.06419e-14 4.77182e-12 5.43559e-11)
(3.16898e-10 8.26674e-10 9.40609e-12)
(4.74505e-10 3.66067e-10 6.80914e-12)
(4.06727e-10 5.88326e-10 6.40166e-12)
(-7.15379e-13 -1.94993e-12 5.43621e-11)
(-2.0777e-12 -2.91953e-12 5.83277e-11)
(-3.1425e-14 -1.46747e-12 5.25237e-11)
(5.83949e-13 -2.57718e-12 4.59514e-11)
(1.30799e-12 -7.26764e-13 4.68777e-11)
(-1.41623e-13 -2.51045e-12 5.66733e-11)
(1.48902e-12 -2.35015e-12 5.2124e-11)
(1.471e-12 -1.26329e-12 5.27254e-11)
(-1.58451e-12 -3.90045e-13 3.84494e-11)
(-1.65202e-12 -3.33421e-13 3.82326e-11)
(-1.6748e-12 -2.52087e-13 4.4336e-11)
(-3.08963e-12 -3.27039e-13 5.00629e-11)
(-1.62299e-12 -3.28175e-13 4.45179e-11)
(-1.48398e-12 -4.23212e-13 4.49106e-11)
(-3.02323e-12 -3.5956e-13 5.02365e-11)
(-1.56086e-12 -3.65452e-13 4.47085e-11)
(-1.71658e-12 -1.71029e-13 4.42244e-11)
(-3.23091e-12 -9.20967e-14 4.97662e-11)
(-1.75875e-12 -1.05288e-13 4.41769e-11)
(-1.8746e-12 -1.36499e-15 3.7632e-11)
(-1.85535e-12 -7.42778e-14 3.76445e-11)
(-3.26365e-12 -4.43766e-14 4.97557e-11)
(-1.82014e-12 6.86732e-15 4.41398e-11)
(-1.79351e-12 -6.36841e-14 4.41475e-11)
(3.89687e-11 -4.70392e-12 -4.94238e-12)
(5.84924e-12 -1.74492e-12 -1.84329e-12)
(2.10505e-11 -6.53597e-12 -3.31967e-12)
(2.18843e-11 -5.67881e-12 -3.77893e-12)
(6.80894e-11 -2.3031e-11 9.8534e-13)
(1.36488e-11 -2.99967e-12 -2.94571e-12)
(7.2401e-12 -1.04333e-12 -1.8165e-12)
(3.80742e-11 2.90222e-12 -7.95681e-12)
(7.70739e-12 6.72272e-12 -3.66954e-12)
(1.33232e-11 3.23607e-11 -4.3978e-12)
(1.43193e-11 9.29152e-12 -4.11172e-12)
(4.20407e-11 3.22487e-11 -2.14163e-11)
(2.48429e-11 1.18243e-11 -1.66572e-11)
(1.30141e-11 3.04942e-12 -3.15112e-12)
(4.66089e-11 -3.04435e-12 -6.29107e-12)
(1.41968e-10 -5.58844e-11 5.59593e-12)
(2.9295e-11 -9.65337e-12 -3.05348e-12)
(2.39565e-11 2.23572e-12 -5.07111e-12)
(8.144e-11 -3.07518e-11 5.19514e-12)
(6.20431e-11 2.24453e-11 -2.27779e-11)
(2.02271e-11 -2.4696e-12 -3.49513e-12)
(3.54253e-10 -1.13997e-10 1.43646e-10)
(6.21491e-11 -5.6153e-11 7.91093e-12)
(2.48286e-10 -2.63892e-10 1.04755e-10)
(3.2305e-11 -2.96313e-11 4.04968e-11)
(1.77457e-10 7.39921e-11 5.26592e-10)
(2.07572e-10 -1.38182e-10 4.2102e-11)
(1.40254e-10 -1.42545e-10 2.80828e-11)
(1.8138e-10 -1.39369e-10 8.80598e-11)
(2.68353e-10 -3.0312e-10 7.69294e-11)
(3.25471e-10 -9.94828e-11 4.3449e-10)
(-8.6804e-11 1.45454e-10 -6.21366e-11)
(-1.58603e-11 3.38934e-11 1.95589e-13)
(2.75054e-12 4.28656e-11 -7.50922e-12)
(7.20135e-12 2.27269e-11 -6.8186e-12)
(3.19733e-11 5.21724e-11 -2.96677e-11)
(-6.55679e-11 8.00217e-11 -4.12042e-13)
(-1.8787e-11 4.69778e-11 -6.25961e-12)
(-1.95085e-10 2.38783e-10 -5.96083e-11)
(-2.74877e-10 9.31522e-11 -3.04968e-12)
(-2.08424e-09 9.37649e-10 -1.48474e-09)
(-1.38444e-10 9.8819e-11 2.08814e-11)
(-6.08517e-11 2.31286e-10 1.15231e-10)
(-6.90363e-10 2.76188e-10 -1.06355e-10)
(-1.21095e-10 1.05331e-10 1.10973e-11)
(-3.20479e-11 1.49344e-10 -5.92317e-11)
(1.76513e-10 -7.00218e-11 1.62302e-11)
(1.8427e-11 1.93185e-11 -6.09282e-12)
(1.6258e-11 1.65787e-11 2.31135e-11)
(5.74937e-11 4.55932e-11 -3.2673e-11)
(1.4441e-10 8.00797e-11 1.64988e-10)
(-1.93403e-11 5.36199e-11 -5.10915e-12)
(-4.12346e-13 -2.19668e-12 2.22632e-11)
(-4.9485e-12 -1.15954e-13 2.53367e-12)
(-6.57072e-12 -2.22428e-13 2.78925e-12)
(1.73147e-12 -3.99309e-13 2.02336e-11)
(-4.70238e-12 -9.09574e-14 2.48944e-12)
(-4.00372e-12 -4.67865e-14 2.35492e-12)
(2.2727e-12 6.0948e-14 1.97171e-11)
(-3.56657e-12 8.12239e-16 2.27507e-12)
(-3.45001e-12 -3.00575e-16 2.24912e-12)
(2.24751e-12 -3.91344e-14 1.98388e-11)
(-3.57332e-12 3.3784e-16 2.27572e-12)
(-3.51202e-12 -9.05338e-15 2.25915e-12)
(3.93101e-10 1.22979e-10 8.13382e-11)
(2.03239e-10 9.47087e-11 3.88369e-11)
(3.40698e-11 3.15991e-11 -1.21928e-11)
(1.29147e-11 4.10905e-12 2.55363e-12)
(2.29519e-11 1.84097e-11 4.28203e-12)
(5.13463e-11 6.95174e-12 1.66592e-11)
(3.74459e-11 3.98329e-11 -3.65517e-11)
(2.04549e-11 8.62063e-12 1.02428e-12)
(3.54587e-11 1.5121e-11 1.01104e-11)
(6.27466e-11 1.27553e-11 -4.00854e-11)
(7.72603e-12 7.84769e-12 -7.33981e-12)
(1.13269e-11 2.84305e-11 -7.59385e-12)
(1.1759e-11 1.25622e-11 -5.06514e-12)
(2.34967e-11 1.20656e-11 -3.17185e-11)
(1.90002e-11 1.94536e-11 -2.7322e-11)
(1.78303e-11 5.96442e-12 -8.0913e-12)
(4.46297e-11 7.71414e-12 -4.53808e-11)
(5.74501e-11 6.73568e-11 4.23295e-11)
(3.17078e-11 1.88865e-11 9.71709e-12)
(2.1712e-11 1.13168e-11 -6.37411e-15)
(1.35577e-10 7.2463e-11 2.90119e-11)
(2.67781e-11 2.06151e-11 -2.46549e-11)
(2.76747e-11 6.29913e-12 -6.78397e-13)
(3.86582e-10 3.51907e-11 9.58241e-11)
(8.41368e-11 9.67497e-12 1.93479e-11)
(1.1794e-10 3.46984e-11 3.99984e-11)
(-1.06901e-11 8.43891e-10 6.2878e-11)
(1.83529e-11 4.42613e-10 1.26188e-10)
(-5.64088e-11 1.42819e-10 2.32724e-10)
(9.92075e-11 8.82502e-11 2.83821e-10)
(2.87484e-11 4.75276e-11 3.69533e-11)
(3.08072e-11 2.49001e-10 1.31466e-10)
(-5.37218e-12 5.02658e-11 4.11709e-11)
(2.11104e-11 9.28557e-11 2.31429e-10)
(3.21255e-12 1.37094e-11 4.95358e-11)
(-9.17405e-12 2.95203e-11 1.41551e-10)
(8.93892e-12 2.12804e-11 4.38673e-11)
(-5.85375e-12 4.81414e-11 1.52349e-10)
(3.85109e-12 4.12308e-11 1.38786e-10)
(5.41613e-12 3.01345e-11 5.43543e-11)
(2.91791e-11 8.99214e-10 7.17051e-11)
(8.38478e-11 2.88501e-10 1.29143e-10)
(2.27063e-11 4.46876e-10 1.50215e-10)
(-2.33586e-12 1.40067e-10 2.39361e-10)
(3.59493e-11 9.80966e-11 3.3465e-11)
(2.01596e-11 3.82128e-11 2.80294e-11)
(6.18236e-12 3.52723e-11 3.6434e-11)
(5.49788e-11 1.6198e-10 1.54742e-10)
(-3.21267e-12 5.24692e-11 1.59894e-10)
(3.9062e-12 5.00186e-11 4.17866e-11)
(3.55548e-10 5.44184e-10 7.39013e-11)
(1.99665e-10 7.17271e-10 8.29694e-11)
(1.84151e-10 4.3698e-10 6.98102e-11)
(3.64199e-10 3.05165e-10 7.63329e-11)
(2.98302e-10 4.86726e-10 9.28453e-11)
(2.47809e-10 7.79338e-10 7.02677e-11)
(4.29976e-10 3.3822e-10 5.97995e-11)
(3.88172e-10 5.64128e-10 6.53714e-11)
(2.08925e-10 4.34289e-10 6.40515e-11)
(2.85955e-10 8.3115e-10 5.33005e-11)
(4.74403e-10 3.6983e-10 6.55327e-11)
(2.80049e-10 8.10445e-10 5.89631e-11)
(4.7543e-10 3.44292e-10 6.18894e-11)
(3.95099e-10 5.85945e-10 5.99367e-11)
(1.14733e-11 9.08603e-10 4.81164e-11)
(6.21961e-11 1.00709e-09 4.74436e-11)
(2.0097e-10 1.21806e-09 3.68717e-11)
(1.40314e-10 1.12733e-09 3.56083e-11)
(1.22478e-10 1.1012e-09 4.5587e-11)
(5.97405e-11 9.59333e-10 6.36729e-11)
(1.77066e-10 1.16588e-09 4.38551e-11)
(1.10173e-10 1.08104e-09 4.87567e-11)
(9.00372e-11 1.0504e-09 3.87685e-11)
(7.50327e-11 1.02419e-09 4.40639e-11)
(-2.03021e-11 3.51388e-11 3.16301e-11)
(-8.55783e-12 2.36627e-11 9.11575e-13)
(1.60227e-12 3.63138e-11 -6.80542e-12)
(6.76989e-12 1.72391e-11 1.98989e-12)
(-5.29755e-11 6.33861e-11 -1.77055e-11)
(8.89906e-12 2.37286e-11 -4.00293e-12)
(2.39262e-12 1.96546e-11 6.8646e-12)
(-2.14728e-11 3.21346e-11 5.90976e-11)
(-2.9603e-12 1.59867e-11 2.87217e-11)
(-1.33638e-11 2.66145e-11 1.28948e-10)
(7.97209e-12 1.74464e-11 3.28977e-11)
(-7.64824e-12 3.9468e-11 1.26718e-10)
(-3.67706e-11 2.6362e-11 1.00383e-10)
(3.44094e-12 1.82478e-11 2.26565e-11)
(-1.5023e-11 3.1982e-11 5.36675e-11)
(2.88752e-11 6.55417e-11 5.71748e-11)
(1.25877e-11 1.88545e-11 8.20238e-12)
(1.04884e-11 2.3611e-11 2.78423e-11)
(1.29473e-11 2.34858e-11 -1.25068e-13)
(-5.56364e-12 4.22312e-11 1.29747e-10)
(8.65787e-12 1.96917e-11 1.692e-11)
(4.12784e-10 1.54968e-10 7.96624e-11)
(5.33753e-10 1.59799e-10 5.79797e-11)
(5.73851e-10 7.07865e-11 5.41922e-11)
(1.88742e-10 3.3882e-11 1.95253e-11)
(5.79533e-10 5.31008e-11 4.64533e-11)
(5.55906e-10 1.93463e-10 6.22195e-11)
(5.65389e-10 1.59026e-10 5.75735e-11)
(4.12323e-10 7.62961e-11 4.99448e-11)
(1.73612e-10 3.30795e-11 2.13255e-11)
(5.22946e-10 5.94987e-11 5.36024e-11)
(-1.7928e-11 1.30541e-12 3.02011e-11)
(-6.13385e-11 1.78234e-12 8.24118e-12)
(-3.90526e-11 6.80928e-13 5.75697e-12)
(-3.08325e-10 1.78211e-10 -2.55829e-10)
(-3.26254e-10 8.3221e-11 -6.15884e-11)
(-2.87829e-09 2.98258e-10 -2.72833e-09)
(-3.43683e-10 1.64073e-10 -1.06953e-11)
(-6.8924e-10 6.20064e-11 -4.26336e-10)
(1.79631e-10 7.16515e-10 3.85146e-10)
(-2.29576e-10 9.9642e-11 -3.46415e-11)
(-1.91472e-10 1.69755e-10 -6.04336e-11)
(-1.00593e-11 1.8345e-11 8.1955e-12)
(-5.58579e-11 1.78597e-11 7.99852e-12)
(-1.24374e-10 5.13303e-11 2.36387e-11)
(-3.51667e-11 3.37116e-11 -2.90637e-12)
(-2.08513e-10 2.55475e-10 -1.3916e-10)
(-2.21416e-10 1.77342e-10 -2.42724e-11)
(-1.32276e-10 8.23806e-10 2.03536e-10)
(-5.25973e-11 5.49871e-11 -1.28849e-11)
(1.94557e-12 3.52962e-11 1.73296e-10)
(1.02797e-11 6.83289e-12 4.53628e-11)
(6.41007e-12 1.79077e-11 4.80947e-11)
(4.33184e-12 3.27506e-11 1.71798e-10)
(3.58008e-12 8.56591e-12 4.99433e-11)
(2.4669e-12 1.36558e-11 4.72723e-11)
(-6.79674e-12 2.2935e-11 1.61952e-10)
(2.66322e-12 1.55276e-11 4.80131e-11)
(-8.67007e-12 1.43698e-13 6.95157e-11)
(-5.57961e-12 3.33265e-12 6.76537e-11)
(-8.89904e-12 4.00339e-12 6.80291e-11)
(-2.55098e-11 8.71819e-12 5.61639e-11)
(-1.25875e-11 1.16074e-11 5.15445e-11)
(-1.46746e-11 8.8271e-12 5.93519e-11)
(-4.59734e-12 7.63099e-12 6.46823e-11)
(-6.43467e-12 1.0455e-11 5.70527e-11)
(-8.3197e-12 8.75041e-12 6.39585e-11)
(-2.42313e-11 2.14153e-11 8.58944e-11)
(-6.38497e-12 1.07631e-11 3.30688e-11)
(-1.17842e-11 2.08493e-11 1.04482e-10)
(7.49541e-13 1.14883e-11 3.9322e-11)
(-3.77105e-11 2.44885e-11 1.18448e-10)
(-1.07491e-11 2.60317e-11 1.14271e-10)
(-4.55677e-12 1.04817e-11 3.44185e-11)
(-3.50583e-11 1.55792e-11 1.19982e-10)
(-1.651e-11 3.5694e-11 2.66645e-11)
(-1.88953e-11 1.46151e-11 4.04046e-11)
(-9.56921e-11 2.43655e-11 3.64952e-11)
(-1.31634e-11 1.42528e-11 3.36263e-11)
(-2.91537e-11 1.35117e-11 1.2502e-10)
(1.2365e-12 1.26637e-11 4.335e-11)
(-3.84977e-12 1.37602e-11 4.50708e-11)
(-8.81925e-12 2.12033e-11 1.54006e-10)
(-3.34826e-12 1.20473e-11 3.7959e-11)
(3.87698e-10 5.91589e-10 2.03619e-11)
(2.06765e-10 4.89055e-10 3.24196e-11)
(3.05978e-10 8.2726e-10 1.6219e-11)
(4.61436e-10 3.74991e-10 8.89904e-12)
(3.98686e-10 5.89092e-10 1.18213e-11)
(2.93381e-10 8.27834e-10 2.149e-11)
(4.46931e-10 3.86048e-10 2.05456e-11)
(3.81054e-10 5.94654e-10 3.14869e-11)
(1.94396e-10 5.00224e-10 3.51418e-11)
(2.78186e-10 8.35994e-10 4.0114e-11)
(4.49484e-10 3.89283e-10 5.61584e-11)
(3.84524e-10 5.91819e-10 4.79783e-11)
(2.81107e-10 8.32803e-10 3.12707e-11)
(4.38152e-10 3.95639e-10 3.11377e-11)
(5.37104e-10 2.01065e-10 7.97357e-12)
(5.33632e-10 9.55656e-11 5.04122e-12)
(1.23043e-10 1.04894e-09 1.2723e-11)
(1.7143e-10 1.15032e-09 1.33265e-11)
(1.20605e-10 1.0465e-09 1.64023e-11)
(1.10512e-10 1.03747e-09 2.38823e-11)
(1.43053e-10 1.12606e-09 3.26691e-11)
(2.30327e-10 1.24844e-09 2.47303e-11)
(1.56593e-10 1.12372e-09 2.64285e-11)
(9.13495e-11 1.04944e-09 3.42824e-11)
(1.05254e-10 1.03944e-09 2.78693e-11)
(1.69826e-10 1.14578e-09 1.59155e-11)
(2.35929e-10 1.27427e-09 2.35383e-11)
(1.60842e-10 1.12648e-09 2.38983e-11)
(5.30216e-10 2.06135e-10 9.12686e-12)
(5.08704e-10 2.23677e-10 2.25234e-11)
(5.25361e-10 1.0532e-10 4.44503e-11)
(1.83377e-10 4.62037e-11 1.01292e-11)
(5.11619e-10 1.17187e-10 2.59155e-11)
(5.32994e-10 2.09804e-10 5.76278e-11)
(5.03642e-10 2.28539e-10 2.65279e-11)
(5.2468e-10 1.03594e-10 7.90326e-12)
(1.83731e-10 4.64263e-11 6.4097e-12)
(5.1879e-10 1.11548e-10 1.72438e-11)
(-7.71986e-12 -3.66115e-12 6.83252e-11)
(-4.59836e-12 -4.51558e-12 6.30416e-11)
(-6.11812e-12 -5.46514e-12 6.40699e-11)
(-6.24985e-12 -3.71917e-12 4.77377e-11)
(-5.57858e-12 -2.07517e-12 5.36727e-11)
(-6.08407e-12 -4.28371e-12 5.54647e-11)
(-2.78779e-12 -3.94587e-12 5.94123e-11)
(-4.35276e-12 -2.38739e-12 5.72644e-11)
(-4.81483e-12 -4.63033e-12 5.94853e-11)
(-5.70437e-13 -3.00349e-12 4.28983e-11)
(-1.2154e-12 -2.00439e-12 4.06852e-11)
(-1.0852e-12 -9.04085e-13 4.6324e-11)
(-2.04596e-12 -1.36161e-12 5.22383e-11)
(-1.01542e-12 -1.39188e-12 4.68219e-11)
(1.8035e-13 -2.84774e-12 4.99019e-11)
(-1.55065e-12 -1.88503e-12 5.31514e-11)
(-7.33375e-13 -2.17754e-12 4.7859e-11)
(-3.67383e-12 -6.79228e-13 4.55056e-11)
(-5.25985e-12 -8.45391e-13 5.38676e-11)
(-5.1685e-12 -5.49913e-13 5.4242e-11)
(-5.49276e-12 -5.35689e-13 5.73414e-11)
(-3.87485e-12 -1.0825e-12 5.62104e-11)
(-5.23176e-12 -7.04794e-13 5.744e-11)
(-4.46387e-12 -1.10032e-12 5.73185e-11)
(-3.33745e-12 -1.35635e-12 5.67271e-11)
(-4.84837e-12 -8.4494e-13 5.75207e-11)
(2.35039e-12 -1.16029e-13 1.97481e-11)
(-3.47704e-12 -1.04271e-14 2.26012e-12)
(-3.3598e-12 -9.24328e-15 2.24708e-12)
(2.2847e-12 -5.33452e-14 1.98667e-11)
(-3.46694e-12 -1.18212e-14 2.25607e-12)
(-3.45488e-12 -1.3403e-14 2.25186e-12)
(-1.52581e-12 -4.34463e-13 3.869e-11)
(-1.46198e-12 -5.00032e-13 3.89671e-11)
(-1.1375e-12 -6.79724e-13 4.60296e-11)
(-2.58133e-12 -5.95325e-13 5.11606e-11)
(-1.22176e-12 -5.96062e-13 4.57605e-11)
(-1.4045e-12 -4.91644e-13 4.51617e-11)
(-2.71335e-12 -5.51092e-13 5.08983e-11)
(-1.31472e-12 -5.63002e-13 4.5461e-11)
(-6.2117e-12 -1.67037e-13 5.67814e-11)
(-5.10224e-12 -2.80786e-13 5.47357e-11)
(-6.18471e-12 -2.25681e-13 5.68514e-11)
(-2.79312e-12 -1.53419e-13 4.50267e-11)
(-5.40923e-12 -2.11401e-13 5.45006e-11)
(-5.43596e-12 -1.94318e-13 5.44253e-11)
(-5.03976e-12 -3.26449e-13 5.48764e-11)
(-6.07539e-12 -2.83243e-13 5.70691e-11)
(-6.13829e-12 -2.63889e-13 5.69553e-11)
(-5.67093e-12 -4.1124e-13 5.73155e-11)
(-4.57829e-12 -5.02224e-13 5.55132e-11)
(-5.79365e-12 -3.62168e-13 5.72827e-11)
(-2.85344e-12 -1.97472e-13 4.51815e-11)
(-5.38581e-12 -1.98296e-13 5.45397e-11)
(-5.35674e-12 -2.26429e-13 5.4549e-11)
(-4.71872e-12 -4.58553e-13 5.53413e-11)
(-5.99964e-12 -2.80371e-13 5.71368e-11)
(-5.89981e-12 -3.41751e-13 5.7202e-11)
(-6.2437e-12 -1.29856e-13 5.67204e-11)
(-5.23002e-12 -8.33522e-14 5.45036e-11)
(-6.28144e-12 -6.05554e-14 5.66784e-11)
(-2.89316e-12 2.27738e-14 4.49296e-11)
(-5.56889e-12 7.76288e-14 5.43217e-11)
(-5.55303e-12 1.94775e-14 5.42489e-11)
(-5.25864e-12 -8.01345e-15 5.45106e-11)
(-6.3134e-12 8.05453e-14 5.67848e-11)
(-6.30547e-12 1.33432e-14 5.6698e-11)
(-1.88915e-12 3.70463e-14 3.76844e-11)
(-1.90297e-12 5.98935e-14 3.77876e-11)
(-3.29486e-12 -3.4666e-14 5.02456e-11)
(-1.8152e-12 -1.17749e-14 4.45364e-11)
(-1.83596e-12 6.82717e-14 4.42161e-11)
(-3.31641e-12 8.07064e-14 5.00536e-11)
(-1.84061e-12 7.24642e-14 4.43689e-11)
(-2.94018e-12 1.82836e-14 4.51928e-11)
(-5.58581e-12 8.29418e-14 5.4439e-11)
(-5.60024e-12 6.11236e-14 5.45846e-11)
(-5.29991e-12 -3.70867e-14 5.5078e-11)
(-6.35381e-12 -4.44541e-14 5.72676e-11)
(-6.32773e-12 9.32643e-14 5.69141e-11)
(-5.31029e-12 7.30451e-14 5.48699e-11)
(-6.35135e-12 6.78873e-14 5.70657e-11)
(-2.99115e-11 -2.68911e-12 5.25262e-11)
(-4.45332e-12 -2.68008e-12 2.13243e-11)
(-3.80858e-11 -4.10316e-12 8.9397e-11)
(-2.37434e-12 -3.17613e-12 2.56137e-11)
(-3.49642e-11 -2.64371e-12 5.64537e-11)
(-3.28837e-11 -4.07808e-12 8.38666e-11)
(-2.32775e-12 -2.73039e-12 2.00701e-11)
(-1.68864e-11 -2.38021e-13 3.95409e-11)
(-2.00897e-11 -3.16546e-13 6.8247e-11)
(2.00242e-12 -1.78936e-13 2.00641e-11)
(2.76922e-12 -1.7972e-13 1.50895e-11)
(-2.02736e-11 -4.19531e-13 6.86142e-11)
(-1.67491e-11 -2.41756e-13 3.9193e-11)
(2.73585e-12 -1.23271e-13 1.51638e-11)
(-1.61611e-11 -3.81334e-14 3.84931e-11)
(2.99561e-12 3.53309e-14 1.47892e-11)
(-1.95743e-11 -4.75766e-14 6.75759e-11)
(2.27243e-12 -3.8753e-14 1.97168e-11)
(-1.61656e-11 1.11226e-15 3.83366e-11)
(-1.96011e-11 1.06316e-14 6.76875e-11)
(3.01805e-12 -4.49428e-14 1.48173e-11)
(-4.46753e-11 -2.26701e-12 6.17191e-11)
(-6.57043e-12 -2.65423e-12 2.23146e-11)
(-4.13864e-11 -3.26631e-12 9.16606e-11)
(-8.61049e-12 -1.89656e-12 2.91985e-11)
(-3.83769e-11 -2.48306e-12 5.824e-11)
(-4.70309e-11 -2.96406e-12 9.49602e-11)
(-9.89061e-12 -2.44765e-12 2.34307e-11)
(-2.0332e-13 4.08655e-11 1.36002e-10)
(4.90149e-13 1.81415e-11 4.80272e-11)
(1.42397e-11 6.23894e-11 1.33299e-10)
(6.13847e-12 1.62464e-11 4.80339e-11)
(1.33644e-11 3.56924e-11 1.37241e-10)
(1.94251e-12 3.82099e-11 1.3906e-10)
(1.26498e-12 1.5052e-11 4.64947e-11)
(-1.60969e-11 -1.16387e-14 3.85143e-11)
(3.02191e-12 -5.3945e-14 1.47846e-11)
(-1.95295e-11 -3.90747e-14 6.7554e-11)
(2.31173e-12 -1.49862e-14 1.97283e-11)
(-1.611e-11 -4.49334e-14 3.82957e-11)
(-1.95713e-11 -1.00303e-13 6.78144e-11)
(3.0707e-12 2.09483e-14 1.4819e-11)
(-1.65598e-11 -2.02735e-13 3.91308e-11)
(-2.00368e-11 -2.98914e-13 6.82902e-11)
(2.80625e-12 -7.90229e-14 1.50552e-11)
(2.15824e-12 -1.64552e-13 1.99552e-11)
(-1.66881e-11 -1.76211e-13 3.91208e-11)
(-1.99424e-11 -2.21758e-13 6.8285e-11)
(2.892e-12 -1.53497e-13 1.50429e-11)
(2.07401e-10 3.89519e-10 8.97079e-11)
(1.14477e-10 5.12786e-10 7.65979e-11)
(7.85683e-11 3.12559e-10 6.08542e-11)
(2.53243e-10 3.01935e-10 8.28206e-11)
(2.23027e-10 2.61813e-10 8.05493e-11)
(8.4961e-11 4.65516e-10 6.22402e-11)
(2.3372e-10 4.48417e-10 8.67945e-11)
(1.16528e-10 1.63623e-10 1.09242e-10)
(3.0996e-11 3.03269e-10 1.21203e-10)
(2.77559e-11 5.58867e-11 3.6811e-11)
(5.74821e-11 1.77595e-10 1.09148e-10)
(3.69283e-11 4.70127e-11 3.50514e-11)
(2.49923e-10 6.44562e-10 1.28467e-11)
(3.97733e-10 3.98221e-10 1.29423e-11)
(3.844e-10 5.74725e-10 9.02561e-12)
(-5.88932e-10 6.45163e-11 -1.45192e-10)
(-8.39518e-10 -1.59584e-10 -3.19084e-10)
(-2.03535e-11 -1.34677e-12 4.2863e-11)
(4.3781e-13 -1.28348e-12 2.10974e-11)
(-2.25155e-11 -1.54101e-12 6.93512e-11)
(1.43328e-12 -8.17357e-13 1.59949e-11)
(-1.95122e-11 -1.09298e-12 4.19445e-11)
(-2.3479e-11 -1.99506e-12 7.02581e-11)
(1.09627e-12 -1.00479e-12 1.62989e-11)
(-1.83107e-11 -7.43701e-13 4.08772e-11)
(1.33612e-12 -5.75218e-13 2.04466e-11)
(-2.20024e-11 -1.2344e-12 6.92101e-11)
(1.71092e-12 -5.62206e-13 1.5778e-11)
(-1.88857e-11 -8.68803e-13 4.13216e-11)
(-2.14721e-11 -9.61209e-13 6.89811e-11)
(2.00907e-12 -5.17017e-13 1.56229e-11)
(-1.62512e-11 3.35559e-14 3.85634e-11)
(2.24615e-12 4.96501e-14 1.97481e-11)
(-1.9711e-11 3.14357e-14 6.769e-11)
(2.93947e-12 -2.01245e-14 1.48264e-11)
(-1.63003e-11 -1.03793e-14 3.84246e-11)
(-1.96929e-11 -1.91667e-14 6.77959e-11)
(2.98272e-12 5.9943e-14 1.48433e-11)
(-1.63435e-11 -2.79056e-14 3.86818e-11)
(2.23112e-12 8.48956e-15 1.98043e-11)
(-1.97175e-11 7.24209e-15 6.77457e-11)
(2.94248e-12 6.44093e-14 1.48387e-11)
(-1.63119e-11 2.50469e-14 3.84491e-11)
(-1.98006e-11 4.45907e-14 6.79991e-11)
(2.97073e-12 -2.01496e-14 1.48851e-11)
(2.60362e-10 1.6996e-10 8.31006e-11)
(2.32208e-10 1.39009e-10 8.72868e-11)
(-2.46132e-11 5.69599e-10 5.48011e-11)
(-5.7267e-11 5.26822e-10 2.50483e-11)
(2.85105e-10 5.14193e-10 7.28045e-11)
(1.17358e-10 5.68739e-10 6.5847e-11)
(1.40891e-10 4.12936e-10 7.4179e-11)
(2.64777e-10 3.39435e-10 8.27945e-11)
(2.59071e-10 4.82951e-10 8.25595e-11)
(1.47448e-10 5.8845e-10 6.87654e-11)
(2.96218e-10 3.56499e-10 7.54221e-11)
(3.73547e-10 5.78189e-10 6.01371e-11)
(2.16708e-10 4.57785e-10 5.03826e-11)
(2.13564e-10 6.68586e-10 5.09938e-11)
(3.78595e-10 4.12939e-10 5.59191e-11)
(2.22528e-10 6.56401e-10 5.28354e-11)
(3.98511e-10 3.92576e-10 6.0919e-11)
(3.62019e-10 5.90806e-10 5.9284e-11)
(-2.97878e-11 6.32513e-10 4.66675e-11)
(-9.18947e-13 6.54004e-10 5.88808e-11)
(5.45324e-11 7.38383e-10 4.31587e-11)
(5.44803e-11 7.2822e-10 4.51559e-11)
(2.66615e-10 2.10443e-10 8.67024e-11)
(2.98918e-10 2.21482e-10 8.7011e-11)
(3.84459e-10 2.57165e-10 4.26368e-11)