/*--------------------------------*- C++ -*----------------------------------*\
| =========                 |                                                 |
| \\      /  F ield         | OpenFOAM: The Open Source CFD Toolbox           |
|  \\    /   O peration     | Version:  2012                                  |
|   \\  /    A nd           | Website:  www.openfoam.com                      |
|    \\/     M anipulation  |                                                 |
\*---------------------------------------------------------------------------*/
FoamFile
{
    version     2.0;
    format      ascii;
    class       volVectorField;
    location    "0.105/solid";
    object      D_0_0;
}
// * * * * * * * * * * * * * * * * * * * * * * * * * * * * * * * * * * * * * //

dimensions      [0 1 0 0 0 0 0];


internalField   nonuniform List<vector> 
3124
(
(3.22297e-11 5.63183e-11 3.81454e-11)
(2.94186e-12 -4.85012e-13 -5.00261e-12)
(-5.64808e-11 2.8758e-11 -2.49976e-12)
(-3.77612e-12 -2.90103e-12 2.63033e-11)
(2.58679e-12 -2.17646e-13 1.93243e-11)
(2.84109e-12 2.17958e-14 1.90009e-11)
(5.45875e-12 -2.52419e-13 -6.20533e-12)
(-1.06011e-12 3.91824e-11 5.0013e-11)
(1.75981e-10 2.31583e-10 4.0629e-11)
(-2.1655e-11 2.42641e-11 1.20764e-11)
(-5.32966e-12 -2.41513e-12 2.73978e-11)
(-5.2451e-11 2.1593e-11 -1.15701e-11)
(5.88363e-12 2.07504e-11 4.9341e-11)
(-1.49277e-11 -2.0424e-12 5.78602e-11)
(-2.09662e-11 1.5129e-11 1.24557e-11)
(1.74307e-10 2.42004e-10 2.30289e-11)
(-1.01987e-11 -4.69672e-12 5.49062e-11)
(-2.43078e-12 -3.51682e-13 4.40433e-11)
(2.85609e-12 -8.65276e-14 1.90101e-11)
(2.62669e-12 -9.74857e-14 1.92916e-11)
(-2.03756e-12 -1.01642e-13 4.36446e-11)
(-2.28876e-12 -2.65565e-13 4.4001e-11)
(-2.05953e-12 -6.60139e-14 4.36114e-11)
(1.78986e-11 -2.79161e-12 -3.05732e-12)
(1.08238e-10 -1.54786e-11 4.51912e-11)
(5.87367e-11 -3.73573e-11 -3.30542e-12)
(1.19011e-10 3.42236e-10 7.08833e-11)
(5.60086e-11 3.40497e-11 2.3839e-11)
(9.1773e-11 1.48572e-10 9.11989e-11)
(1.43517e-10 6.24762e-10 2.0139e-10)
(3.14266e-11 2.81713e-11 1.92568e-11)
(1.73004e-10 8.97748e-11 5.24724e-11)
(-3.05131e-12 -1.0292e-13 6.15652e-11)
(-3.04244e-13 5.62407e-12 5.64369e-11)
(2.51306e-10 4.51514e-10 1.71976e-11)
(2.6431e-10 1.01646e-09 1.07251e-11)
(-3.00603e-12 -2.52908e-12 5.96893e-11)
(6.13466e-13 -2.20415e-12 5.44798e-11)
(-3.05109e-12 -2.39948e-13 4.88957e-11)
(-2.8591e-12 -3.98749e-13 4.93968e-11)
(-3.08999e-12 -1.51172e-13 4.88059e-11)
(-3.17067e-12 2.73255e-14 4.87864e-11)
(9.13291e-12 -3.32899e-12 -3.24655e-12)
(9.27618e-12 9.72585e-12 -4.22083e-12)
(4.13304e-11 -1.5464e-11 -5.6811e-12)
(1.26226e-10 -5.42516e-11 5.33544e-11)
(9.88736e-11 -6.19599e-11 1.87471e-11)
(4.37478e-12 1.81431e-11 -4.65904e-12)
(-5.77637e-10 1.29363e-10 -2.17552e-10)
(4.70555e-11 -3.97985e-12 3.99458e-12)
(1.35972e-12 -9.85775e-13 2.0063e-11)
(1.60209e-12 -6.36017e-13 1.98763e-11)
(2.82653e-12 -3.07252e-14 1.90212e-11)
(2.8348e-12 6.9952e-14 1.90367e-11)
(1.71645e-11 5.80231e-12 6.11013e-12)
(6.73516e-12 1.11175e-11 -5.48105e-12)
(2.67139e-11 1.73978e-11 9.78037e-12)
(1.33647e-10 2.66469e-11 2.36794e-11)
(4.95656e-12 1.22454e-11 4.04287e-11)
(7.24519e-11 8.89515e-10 9.24269e-12)
(1.46272e-11 3.22261e-11 2.30298e-11)
(1.21769e-10 3.8742e-10 6.88293e-11)
(1.53884e-10 2.04176e-10 7.34636e-11)
(2.48283e-10 9.61914e-10 4.54791e-11)
(2.80036e-10 1.43562e-10 3.81832e-11)
(1.92234e-10 8.1292e-10 1.14528e-10)
(2.16649e-10 4.6874e-10 4.44194e-11)
(2.39285e-10 1.296e-10 4.05633e-11)
(2.18464e-10 1.23047e-09 2.67118e-11)
(1.57721e-10 1.02419e-09 7.9218e-11)
(3.78278e-12 1.54113e-11 -2.80399e-12)
(3.71251e-12 1.25704e-11 3.30388e-11)
(1.43927e-11 2.28732e-11 1.57921e-11)
(1.93227e-10 3.7221e-11 2.26563e-11)
(1.53425e-10 2.88344e-11 2.26093e-11)
(-2.46786e-11 1.00183e-11 2.59312e-11)
(-6.46115e-10 1.02497e-10 -2.79037e-10)
(-1.86051e-11 1.17189e-11 2.70307e-11)
(2.84709e-12 1.14416e-11 3.99253e-11)
(2.81427e-12 1.00147e-11 5.09561e-11)
(-5.78165e-12 6.58893e-14 6.69144e-11)
(-2.80089e-11 4.548e-12 4.96081e-11)
(-2.31257e-12 8.66816e-12 5.8088e-11)
(5.77292e-13 1.0449e-11 3.47413e-11)
(-3.08448e-11 1.93963e-11 3.46277e-11)
(1.0648e-12 1.22099e-11 4.90917e-11)
(2.41371e-10 4.6089e-10 2.10408e-11)
(1.75397e-10 2.46242e-10 1.0831e-11)
(2.52279e-10 9.67095e-10 3.50133e-11)
(2.72383e-10 1.58074e-10 2.42143e-11)
(1.99766e-10 4.90551e-10 4.13676e-11)
(2.63513e-10 1.00546e-09 1.90509e-11)
(2.75433e-10 1.57815e-10 9.70286e-12)
(1.85737e-10 4.41063e-11 1.51312e-12)
(2.44831e-10 1.31701e-09 1.15571e-11)
(2.28275e-10 1.23145e-09 2.42534e-11)
(2.44762e-10 1.29736e-09 1.87358e-11)
(1.88974e-10 4.25292e-11 1.78097e-11)
(1.8606e-10 4.47827e-11 3.09609e-12)
(-5.70622e-12 -3.16562e-12 6.53238e-11)
(-4.39111e-12 -1.9534e-12 4.46475e-11)
(-1.80833e-12 -2.32112e-12 5.62719e-11)
(-2.20464e-12 -9.14372e-13 5.06427e-11)
(-4.22567e-13 -2.19567e-12 5.33415e-11)
(-3.50589e-12 -9.9263e-13 4.42949e-11)
(-4.01651e-12 -7.60716e-13 5.47077e-11)
(-2.34504e-12 -1.52746e-12 5.59383e-11)
(2.84919e-12 -3.04751e-14 1.91115e-11)
(2.84777e-12 -1.32317e-13 1.91344e-11)
(-2.36111e-12 -6.73361e-13 5.03516e-11)
(-2.76025e-12 -4.63587e-13 4.96146e-11)
(-4.96922e-12 -2.03621e-13 5.35418e-11)
(-2.04056e-12 -1.68591e-13 4.38256e-11)
(-4.79205e-12 -3.5445e-13 5.39379e-11)
(-4.23278e-12 -5.63122e-13 5.45286e-11)
(-2.0677e-12 -1.76323e-13 4.38921e-11)
(-4.69208e-12 -3.81216e-13 5.40883e-11)
(-5.00419e-12 -1.4777e-13 5.34683e-11)
(-2.07877e-12 3.06911e-14 4.36593e-11)
(-5.07173e-12 6.01582e-14 5.34998e-11)
(-3.18468e-12 8.66945e-14 4.8895e-11)
(-2.0818e-12 3.48421e-14 4.37398e-11)
(-5.08519e-12 8.44405e-14 5.36287e-11)
(1.59112e-10 -1.9289e-12 7.76251e-11)
(5.4036e-11 1.6159e-11 1.29876e-11)
(-9.79744e-13 1.80016e-13 4.67329e-11)
(-8.20026e-13 1.52458e-12 4.64644e-11)
(-1.93634e-13 -1.21403e-12 4.55826e-11)
(7.73694e-13 -4.08765e-13 4.47247e-11)
(-1.76078e-12 -2.08546e-13 3.71081e-11)
(-1.72631e-12 -2.80015e-13 3.72688e-11)
(-1.79008e-12 -1.56403e-13 3.70058e-11)
(-1.83114e-12 -9.4116e-14 3.69394e-11)
(3.37846e-11 -2.25105e-12 -1.29068e-11)
(3.42642e-12 -1.16627e-12 -3.22877e-12)
(6.11722e-12 1.81447e-12 -7.39927e-12)
(5.33403e-12 3.04622e-12 -1.9438e-11)
(2.532e-11 7.4467e-12 -3.08563e-11)
(8.6541e-12 -7.39798e-13 -4.9814e-12)
(6.03521e-12 -9.03268e-14 -7.20385e-12)
(-1.51977e-10 1.8002e-10 -8.91572e-11)
(-1.68634e-10 8.15851e-11 -7.14589e-11)
(-3.94215e-11 3.4059e-11 1.18358e-12)
(-1.24242e-10 4.17917e-11 -9.82368e-12)
(-8.85312e-11 8.35065e-11 9.25414e-13)
(-4.78312e-10 1.85754e-10 -1.34611e-10)
(-6.74818e-11 5.70758e-11 -1.60937e-12)
(-1.22539e-11 -1.89902e-13 3.4421e-12)
(4.7261e-14 -2.71188e-12 2.23863e-11)
(-6.18713e-12 -2.3277e-13 2.67869e-12)
(2.37779e-12 -2.30281e-13 1.9481e-11)
(-2.76627e-12 -2.2849e-14 2.15223e-12)
(-2.92791e-12 -3.67392e-14 2.17626e-12)
(-2.47724e-12 -4.8882e-15 2.1031e-12)
(2.84908e-12 -5.59109e-14 1.90145e-11)
(-2.41389e-12 -1.44924e-15 2.08264e-12)
(2.86685e-12 1.95069e-14 1.91309e-11)
(-2.4186e-12 -1.9692e-14 2.07856e-12)
(7.69666e-11 1.50807e-11 -2.49546e-11)
(1.06737e-11 6.30792e-13 -3.73086e-12)
(9.79398e-12 2.03755e-12 -1.04877e-11)
(6.21725e-12 3.91044e-12 -2.27789e-11)
(2.4451e-11 8.90277e-12 -4.6133e-11)
(1.97687e-11 2.27082e-12 -7.18064e-12)
(1.59444e-11 5.19614e-12 -2.28518e-11)
(5.4781e-11 1.34499e-10 2.18483e-10)
(-1.84572e-12 2.53091e-11 5.30306e-11)
(-2.34791e-11 7.03019e-11 1.64473e-10)
(-1.13337e-11 3.87635e-11 5.43623e-11)
(-2.49444e-11 3.44582e-11 2.58313e-11)
(-1.25965e-10 5.51024e-11 3.234e-11)
(-1.77011e-11 2.75009e-11 3.3388e-12)
(-9.78445e-12 2.07857e-11 2.06108e-11)
(-7.07452e-11 6.65055e-11 -2.06137e-11)
(-4.84889e-11 3.00458e-11 8.42061e-11)
(-3.14298e-12 2.22193e-11 1.05997e-11)
(-1.52743e-11 -1.19212e-13 3.60254e-12)
(-1.38317e-11 1.16261e-13 2.93144e-11)
(-3.06827e-11 2.86181e-13 5.0018e-12)
(-2.89872e-10 1.29159e-10 -1.91455e-10)
(-1.83597e-10 5.91664e-11 -4.25072e-11)
(-1.24767e-10 3.54093e-11 -3.93548e-11)
(-4.11005e-11 3.64171e-11 -7.47769e-12)
(-4.69798e-10 1.30201e-10 -3.38835e-10)
(-1.48283e-10 4.52672e-11 -3.434e-11)
(-9.94074e-11 6.98624e-11 -3.12313e-11)
(-1.1285e-11 -3.21502e-13 6.43905e-11)
(-2.03545e-11 1.7233e-12 5.82259e-11)
(-1.3059e-11 3.76588e-12 6.26957e-11)
(-4.21161e-11 2.27763e-11 8.22667e-11)
(-1.36191e-10 4.40965e-11 1.81551e-11)
(-1.09941e-11 1.27125e-11 2.62527e-11)
(-1.77646e-11 2.18167e-11 1.28622e-11)
(-4.95899e-11 2.70755e-11 1.04485e-10)
(-1.10216e-10 3.33905e-11 1.49587e-12)
(-9.15239e-12 1.15683e-11 2.68953e-11)
(-8.91899e-12 -4.03545e-12 6.29892e-11)
(-7.0743e-12 -5.12151e-12 5.00828e-11)
(-6.73832e-12 -5.47691e-12 5.84774e-11)
(-1.38903e-12 -6.67883e-13 3.87907e-11)
(-1.41035e-12 -1.10119e-12 3.90322e-11)
(-2.62607e-12 -4.64733e-13 4.41329e-11)
(-4.80233e-12 -3.18026e-13 5.32866e-11)
(-4.75472e-12 -4.10294e-13 5.32116e-11)
(-2.45811e-12 -5.83048e-15 2.09847e-12)
(2.89258e-12 -1.11932e-14 1.90568e-11)
(-2.36561e-12 -8.39977e-15 2.08219e-12)
(-2.75198e-12 -1.9772e-14 2.15432e-12)
(2.78468e-12 -1.5882e-13 1.92251e-11)
(-2.51546e-12 -1.41091e-14 2.10253e-12)
(-1.39574e-12 -5.34531e-13 3.86362e-11)
(-1.44683e-12 -4.92989e-13 3.84176e-11)
(-4.99419e-12 -1.28985e-13 5.31455e-11)
(-2.04284e-12 -1.25234e-13 4.37103e-11)
(-4.97845e-12 -1.7328e-13 5.32121e-11)
(-4.83459e-12 -2.55181e-13 5.33681e-11)
(-2.20169e-12 -2.24907e-13 4.39768e-11)
(-4.85955e-12 -2.19897e-13 5.34032e-11)
(-5.00919e-12 -1.00309e-13 5.30962e-11)
(-2.08888e-12 -3.25211e-14 4.36141e-11)
(-5.0243e-12 -3.97926e-14 5.3072e-11)
(-1.85149e-12 -9.95631e-15 3.72233e-11)
(-2.13206e-12 -1.19346e-13 4.39857e-11)
(-5.0695e-12 -9.25729e-14 5.35745e-11)
(1.10936e-10 -3.61385e-12 7.33494e-12)
(3.28635e-11 2.09491e-11 8.49898e-12)
(3.01248e-11 -8.62315e-12 -4.07786e-12)
(3.75885e-11 -7.15635e-12 -3.06247e-12)
(8.17855e-11 -2.92853e-11 -8.01416e-14)
(5.6368e-11 5.2945e-12 2.47898e-12)
(7.04658e-11 4.1164e-11 2.28434e-11)
(1.63764e-10 -3.34796e-11 7.00264e-11)
(2.89893e-10 -8.83472e-11 1.38442e-10)
(9.07527e-11 -5.49256e-11 1.06585e-11)
(2.09773e-10 -1.86072e-10 6.84329e-11)
(4.92844e-11 8.81361e-13 7.05276e-12)
(1.40648e-10 -4.21522e-11 3.99158e-11)
(1.51812e-10 -9.6074e-11 -5.42095e-12)
(3.92895e-11 -2.04861e-11 -4.20332e-12)
(6.96823e-11 -5.78807e-11 4.92161e-13)
(9.45569e-11 -4.28797e-11 5.86817e-12)
(2.03318e-10 -1.96815e-10 6.08865e-11)
(5.43569e-11 -2.23754e-11 5.05831e-13)
(1.75133e-10 2.50248e-10 9.93834e-11)
(1.62955e-10 5.95373e-10 1.14647e-10)
(3.83087e-11 2.0843e-10 5.08137e-11)
(3.09996e-10 2.49729e-10 6.61535e-11)
(2.22042e-10 1.48647e-10 6.10926e-11)
(9.55047e-11 4.29066e-10 1.17217e-10)
(2.58247e-10 4.13085e-10 9.6036e-11)
(1.09795e-10 1.38516e-10 8.31147e-11)
(8.47956e-11 8.81806e-11 6.40395e-11)
(3.9515e-11 2.23373e-11 1.89763e-11)
(3.14263e-11 4.86818e-11 2.6688e-11)
(1.23804e-10 7.95432e-11 6.20421e-11)
(8.04937e-11 1.86217e-10 8.09843e-11)
(3.80251e-11 3.91624e-11 2.74789e-11)
(2.648e-13 1.06302e-13 4.66854e-11)
(3.0613e-13 3.33181e-12 4.5407e-11)
(-8.71982e-13 3.70642e-14 5.49335e-11)
(-2.81071e-12 2.7737e-12 6.13838e-11)
(-7.6182e-13 2.2657e-12 5.47484e-11)
(1.53935e-12 2.50185e-12 5.24739e-11)
(-2.07248e-12 6.29887e-12 5.91423e-11)
(4.16376e-14 4.81818e-12 5.30644e-11)
(3.24388e-10 8.20456e-10 9.56968e-12)
(4.82347e-10 3.61414e-10 6.99443e-12)
(4.13179e-10 5.83649e-10 6.63105e-12)
(-7.39402e-13 -1.86594e-12 5.31681e-11)
(-1.99347e-12 -2.80846e-12 5.70954e-11)
(-3.52714e-14 -1.35704e-12 5.1412e-11)
(5.13801e-13 -2.54175e-12 4.50523e-11)
(1.24066e-12 -6.61295e-13 4.59608e-11)
(-4.27294e-14 -2.41467e-12 5.55293e-11)
(1.48582e-12 -2.30861e-12 5.11314e-11)
(1.47769e-12 -1.18095e-12 5.17036e-11)
(-1.61861e-12 -3.7256e-13 3.76529e-11)
(-1.67982e-12 -3.16735e-13 3.74505e-11)
(-1.63499e-12 -2.3857e-13 4.34552e-11)
(-2.9837e-12 -3.14601e-13 4.90614e-11)
(-1.58775e-12 -3.13317e-13 4.36313e-11)
(-1.46165e-12 -4.05925e-13 4.40061e-11)
(-2.92387e-12 -3.4738e-13 4.92323e-11)
(-1.53109e-12 -3.49938e-13 4.38142e-11)
(-1.67078e-12 -1.57884e-13 4.33514e-11)
(-3.10748e-12 -8.36607e-14 4.8779e-11)
(-1.7071e-12 -9.32214e-14 4.33106e-11)
(-1.87038e-12 8.47477e-15 3.68945e-11)
(-1.85664e-12 -6.1224e-14 3.69055e-11)
(-3.13349e-12 -3.79368e-14 4.87775e-11)
(-1.75663e-12 1.30672e-14 4.32847e-11)
(-1.73511e-12 -5.38178e-14 4.32891e-11)
(4.01059e-11 -7.24271e-12 -1.04079e-11)
(5.89252e-12 -2.26849e-12 -2.63421e-12)
(2.10963e-11 -7.71176e-12 -4.73339e-12)
(2.1907e-11 -6.05204e-12 -6.37155e-12)
(6.84726e-11 -2.48618e-11 -3.91384e-12)
(1.38886e-11 -4.24547e-12 -4.44017e-12)
(7.34949e-12 -1.08127e-12 -3.96401e-12)
(4.00141e-11 -4.74895e-13 -1.37384e-11)
(8.68078e-12 5.3889e-12 -5.52489e-12)
(1.78927e-11 2.84278e-11 -1.19097e-11)
(1.62871e-11 6.47672e-12 -6.25434e-12)
(4.80053e-11 2.4561e-11 -2.81809e-11)
(2.69676e-11 9.70883e-12 -2.28062e-11)
(1.39441e-11 1.28502e-12 -4.99402e-12)
(4.83495e-11 -6.76884e-12 -1.19168e-11)
(1.46062e-10 -6.69896e-11 -7.43588e-13)
(2.96784e-11 -1.18428e-11 -4.8421e-12)
(2.58379e-11 -1.48844e-12 -7.28839e-12)
(8.21441e-11 -3.40558e-11 1.89063e-14)
(6.81042e-11 1.33063e-11 -2.96815e-11)
(2.09821e-11 -4.62384e-12 -5.33108e-12)
(3.50167e-10 -1.13638e-10 1.53366e-10)
(6.36191e-11 -5.62692e-11 6.98007e-12)
(2.53198e-10 -2.62264e-10 9.90925e-11)
(5.49086e-11 -5.43125e-11 4.28934e-11)
(2.4989e-10 8.48884e-12 5.75801e-10)
(2.12405e-10 -1.53128e-10 3.49217e-11)
(1.43065e-10 -1.429e-10 2.69297e-11)
(1.96857e-10 -1.60386e-10 8.96371e-11)
(2.71363e-10 -3.05168e-10 7.28806e-11)
(3.64803e-10 -1.43633e-10 4.47545e-10)
(-6.72003e-11 1.3328e-10 -7.34231e-11)
(-1.14637e-11 3.11043e-11 -2.84638e-12)
(8.54887e-12 3.85192e-11 -1.4608e-11)
(1.09864e-11 1.86953e-11 -9.3717e-12)
(4.05012e-11 4.27999e-11 -3.67615e-11)
(-5.56736e-11 7.60944e-11 -1.11224e-11)
(-1.1829e-11 4.18353e-11 -9.65735e-12)
(-1.61912e-10 2.22152e-10 -7.62387e-11)
(-2.41923e-10 7.978e-11 -1.06908e-11)
(-2.06327e-09 9.63057e-10 -1.3699e-09)
(-9.90252e-11 6.04154e-11 2.01471e-11)
(4.19216e-12 1.77582e-10 1.26057e-10)
(-6.70413e-10 2.78898e-10 -1.17926e-10)
(-1.01718e-10 9.14921e-11 5.96579e-12)
(-8.77553e-12 1.28546e-10 -7.10949e-11)
(1.8317e-10 -8.60695e-11 9.10653e-12)
(2.27944e-11 1.28603e-11 -8.91917e-12)
(2.76433e-11 3.39081e-12 2.21355e-11)
(6.65056e-11 3.38684e-11 -4.05061e-11)
(1.85409e-10 3.69749e-11 1.71968e-10)
(-9.97937e-12 4.44375e-11 -8.62773e-12)
(1.42388e-13 -2.16835e-12 2.15336e-11)
(-3.94966e-12 -1.12769e-13 2.37318e-12)
(-5.52806e-12 -2.18153e-13 2.6225e-12)
(2.25352e-12 -3.83728e-13 1.95526e-11)
(-3.71439e-12 -8.82496e-14 2.33001e-12)
(-3.03374e-12 -4.4806e-14 2.19808e-12)
(2.84746e-12 5.21945e-14 1.90196e-11)
(-2.50689e-12 -7.3109e-16 2.10333e-12)
(-2.41328e-12 -1.56955e-15 2.08057e-12)
(2.85618e-12 -5.42274e-14 1.91089e-11)
(-2.50659e-12 -1.80537e-15 2.10256e-12)
(-2.42088e-12 -1.14464e-14 2.08196e-12)
(4.0418e-10 1.16937e-10 8.07939e-11)
(2.09241e-10 9.2092e-11 3.6502e-11)
(3.51235e-11 3.13444e-11 -1.5498e-11)
(1.33447e-11 3.87253e-12 2.20749e-12)
(2.34585e-11 1.80952e-11 3.56899e-12)
(5.29665e-11 6.20735e-12 1.60447e-11)
(3.7741e-11 3.8826e-11 -4.06295e-11)
(2.11818e-11 8.21168e-12 2.44519e-13)
(3.69366e-11 1.52827e-11 9.71147e-12)
(6.56256e-11 1.15895e-11 -4.47347e-11)
(8.79024e-12 6.86763e-12 -9.12147e-12)
(1.5412e-11 2.53037e-11 -1.4663e-11)
(1.32005e-11 1.16512e-11 -6.81643e-12)
(2.55357e-11 1.03135e-11 -3.79349e-11)
(2.19186e-11 1.77578e-11 -3.36041e-11)
(1.90668e-11 5.15838e-12 -9.59406e-12)
(4.63323e-11 6.21272e-12 -4.98077e-11)
(6.05926e-11 6.54111e-11 4.10015e-11)
(3.2603e-11 1.84256e-11 9.05521e-12)
(2.31687e-11 1.03998e-11 -1.35269e-12)
(1.39232e-10 7.07859e-11 2.68548e-11)
(2.95709e-11 1.91229e-11 -3.06204e-11)
(2.88924e-11 5.56092e-12 -1.68216e-12)
(3.97153e-10 3.07405e-11 9.6438e-11)
(8.65354e-11 8.42954e-12 1.84732e-11)
(1.2006e-10 3.1527e-11 3.8109e-11)
(-2.83833e-12 8.34956e-10 6.21718e-11)
(2.28585e-11 4.37531e-10 1.2433e-10)
(-5.47725e-11 1.41244e-10 2.30144e-10)
(1.00456e-10 8.7483e-11 2.81583e-10)
(2.93308e-11 4.70522e-11 3.64734e-11)
(3.35997e-11 2.46666e-10 1.29691e-10)
(-4.68147e-12 4.96448e-11 4.06487e-11)
(2.20954e-11 9.17471e-11 2.2777e-10)
(3.86834e-12 1.32546e-11 4.80616e-11)
(-7.76871e-12 2.9195e-11 1.35257e-10)
(9.91149e-12 2.07507e-11 4.23692e-11)
(-4.13466e-12 4.71487e-11 1.46689e-10)
(4.96936e-12 4.04682e-11 1.34145e-10)
(6.25584e-12 2.95047e-11 5.31825e-11)
(3.60213e-11 8.91033e-10 7.08507e-11)
(8.6844e-11 2.8618e-10 1.27632e-10)
(2.67357e-11 4.42482e-10 1.48258e-10)
(-9.89419e-13 1.38353e-10 2.35631e-10)
(3.89633e-11 9.57764e-11 3.24824e-11)
(2.09366e-11 3.76281e-11 2.74921e-11)
(7.30841e-12 3.44253e-11 3.52096e-11)
(5.7591e-11 1.60468e-10 1.52522e-10)
(-1.38284e-12 5.13257e-11 1.54388e-10)
(4.7992e-12 4.91931e-11 4.09318e-11)
(3.62846e-10 5.38642e-10 7.35134e-11)
(2.08115e-10 7.09581e-10 8.22633e-11)
(1.94779e-10 4.28918e-10 6.93474e-11)
(3.73495e-10 2.99077e-10 7.57616e-11)
(3.05667e-10 4.81167e-10 9.19398e-11)
(2.56215e-10 7.71723e-10 6.99243e-11)
(4.38997e-10 3.325e-10 5.96606e-11)
(3.95267e-10 5.58698e-10 6.52359e-11)
(2.19342e-10 4.26523e-10 6.36792e-11)
(2.9404e-10 8.24016e-10 5.31894e-11)
(4.82828e-10 3.64673e-10 6.5471e-11)
(2.8823e-10 8.03107e-10 5.87875e-11)
(4.84051e-10 3.38912e-10 6.18722e-11)
(4.02044e-10 5.80692e-10 5.98979e-11)
(1.94458e-11 8.9948e-10 4.76631e-11)
(7.02995e-11 9.98237e-10 4.70885e-11)
(2.06137e-10 1.21019e-09 3.65285e-11)
(1.47422e-10 1.11923e-09 3.54429e-11)
(1.29606e-10 1.0928e-09 4.52862e-11)
(6.66872e-11 9.50888e-10 6.30039e-11)
(1.82135e-10 1.15801e-09 4.33466e-11)
(1.17326e-10 1.07257e-09 4.83801e-11)
(9.8009e-11 1.04204e-09 3.85756e-11)
(8.30631e-11 1.01549e-09 4.37809e-11)
(-1.64469e-11 3.3886e-11 2.46801e-11)
(-5.473e-12 2.2023e-11 -1.75073e-12)
(6.55001e-12 3.29301e-11 -1.37826e-11)
(8.43489e-12 1.62624e-11 7.09771e-14)
(-4.50527e-11 6.05721e-11 -2.82727e-11)
(1.21001e-11 2.19818e-11 -1.03852e-11)
(4.43439e-12 1.86504e-11 4.70975e-12)
(-1.81516e-11 3.13422e-11 5.15142e-11)
(-1.32195e-12 1.58019e-11 2.63862e-11)
(-1.17571e-11 2.63158e-11 1.22398e-10)
(9.19158e-12 1.6997e-11 3.10871e-11)
(-5.67834e-12 3.85571e-11 1.20608e-10)
(-3.39325e-11 2.6497e-11 9.13362e-11)
(5.08698e-12 1.77529e-11 2.04987e-11)
(-1.17948e-11 3.08726e-11 4.64902e-11)
(3.19002e-11 6.34452e-11 5.39091e-11)
(1.40471e-11 1.79776e-11 6.51583e-12)
(1.17574e-11 2.28672e-11 2.62109e-11)
(1.5831e-11 2.19343e-11 -6.37495e-12)
(-3.4769e-12 4.11274e-11 1.23718e-10)
(1.01455e-11 1.8956e-11 1.49936e-11)
(4.23383e-10 1.49592e-10 7.92984e-11)
(5.43831e-10 1.54919e-10 5.79013e-11)
(5.82024e-10 6.78168e-11 5.42103e-11)
(1.91856e-10 3.30388e-11 1.95506e-11)
(5.87898e-10 5.00257e-11 4.64516e-11)
(5.65302e-10 1.89115e-10 6.21416e-11)
(5.7516e-10 1.54406e-10 5.75611e-11)
(4.20915e-10 7.27414e-11 4.92953e-11)
(1.76846e-10 3.21976e-11 2.13432e-11)
(5.32016e-10 5.59752e-11 5.37166e-11)
(-1.72069e-11 1.50386e-12 2.93232e-11)
(-6.02528e-11 2.08631e-12 7.97862e-12)
(-3.76319e-11 7.31989e-13 5.53045e-12)
(-3.35646e-10 1.81582e-10 -2.77757e-10)
(-2.90045e-10 7.22955e-11 -8.44894e-11)
(-2.92843e-09 3.52564e-10 -2.80441e-09)
(-3.33179e-10 1.94041e-10 -4.89041e-11)
(-6.8382e-10 6.69791e-11 -4.47115e-10)
(6.89599e-11 6.48417e-10 1.43199e-10)
(-2.09649e-10 1.1849e-10 -5.70628e-11)
(-2.09724e-10 1.72587e-10 -7.21595e-11)
(-9.82172e-12 1.99028e-11 6.54924e-12)
(-5.50501e-11 1.84143e-11 7.66451e-12)
(-1.27381e-10 5.40335e-11 9.93857e-12)
(-3.46804e-11 3.76756e-11 -4.08351e-12)
(-2.41673e-10 2.52768e-10 -1.51797e-10)
(-2.29389e-10 2.09547e-10 -4.00767e-11)
(-2.41922e-10 7.87352e-10 2.25475e-10)
(-5.04468e-11 6.38006e-11 -1.48569e-11)
(2.32143e-12 3.47134e-11 1.6848e-10)
(1.02768e-11 6.81537e-12 4.42901e-11)
(6.58716e-12 1.78273e-11 4.68698e-11)
(4.72446e-12 3.22783e-11 1.6671e-10)
(3.78992e-12 8.61085e-12 4.87055e-11)
(2.96009e-12 1.38546e-11 4.57429e-11)
(-6.04279e-12 2.26721e-11 1.5628e-10)
(2.99978e-12 1.55903e-11 4.66487e-11)
(-8.33293e-12 2.71618e-13 6.8102e-11)
(-5.35169e-12 3.47997e-12 6.61936e-11)
(-8.52099e-12 4.18972e-12 6.655e-11)
(-2.45171e-11 9.07944e-12 5.44807e-11)
(-1.18281e-11 1.21616e-11 4.96481e-11)
(-1.40154e-11 9.14723e-12 5.77936e-11)
(-4.30613e-12 7.80717e-12 6.3127e-11)
(-5.84209e-12 1.08295e-11 5.52432e-11)
(-7.87104e-12 9.00978e-12 6.23617e-11)
(-2.26036e-11 2.16097e-11 7.77482e-11)
(-4.9792e-12 1.08613e-11 3.06328e-11)
(-1.00489e-11 2.08341e-11 9.89084e-11)
(1.67442e-12 1.16797e-11 3.72977e-11)
(-3.54077e-11 2.48532e-11 1.09914e-10)
(-9.34527e-12 2.60867e-11 1.08606e-10)
(-3.43624e-12 1.08103e-11 3.186e-11)
(-3.43489e-11 1.56774e-11 1.10929e-10)
(-1.62355e-11 3.69254e-11 2.37281e-11)
(-1.80313e-11 1.51811e-11 3.81389e-11)
(-9.67588e-11 2.63217e-11 2.53651e-11)
(-1.25618e-11 1.48496e-11 3.11258e-11)
(-2.83695e-11 1.32265e-11 1.14527e-10)
(1.99007e-12 1.2988e-11 4.15579e-11)
(-3.05072e-12 1.42329e-11 4.30187e-11)
(-7.9939e-12 2.11432e-11 1.48281e-10)
(-2.42723e-12 1.26118e-11 3.56299e-11)
(3.94493e-10 5.8666e-10 2.05576e-11)
(2.16744e-10 4.81978e-10 3.23838e-11)
(3.13727e-10 8.20892e-10 1.63894e-11)
(4.69513e-10 3.70211e-10 9.05822e-12)
(4.05319e-10 5.84338e-10 1.20408e-11)
(3.01288e-10 8.21251e-10 2.16247e-11)
(4.55188e-10 3.81102e-10 2.06852e-11)
(3.87934e-10 5.89614e-10 3.16278e-11)
(2.04421e-10 4.93092e-10 3.50877e-11)
(2.8626e-10 8.28991e-10 4.01024e-11)
(4.57904e-10 3.84139e-10 5.61688e-11)
(3.91439e-10 5.86628e-10 4.80411e-11)
(2.89105e-10 8.26021e-10 3.13459e-11)
(4.46505e-10 3.90609e-10 3.12185e-11)
(5.45957e-10 1.96988e-10 8.0945e-12)
(5.41178e-10 9.27474e-11 5.16484e-12)
(1.30495e-10 1.04161e-09 1.27963e-11)
(1.78143e-10 1.14332e-09 1.34173e-11)
(1.28178e-10 1.0391e-09 1.64628e-11)
(1.18309e-10 1.02967e-09 2.38904e-11)
(1.50157e-10 1.11804e-09 3.25554e-11)
(2.35549e-10 1.2412e-09 2.47536e-11)
(1.63607e-10 1.11614e-09 2.64532e-11)
(9.93189e-11 1.04112e-09 3.41421e-11)
(1.13094e-10 1.03156e-09 2.78503e-11)
(1.7664e-10 1.13875e-09 1.60072e-11)
(2.41118e-10 1.26738e-09 2.3657e-11)
(1.67807e-10 1.11901e-09 2.3954e-11)
(5.39178e-10 2.02016e-10 9.2291e-12)
(5.17971e-10 2.19385e-10 2.26079e-11)
(5.33535e-10 1.02299e-10 4.44834e-11)
(1.86261e-10 4.54229e-11 1.01736e-11)
(5.1963e-10 1.14195e-10 2.59876e-11)
(5.42412e-10 2.05427e-10 5.7597e-11)
(5.12937e-10 2.2423e-10 2.65835e-11)
(5.32401e-10 1.00713e-10 8.01138e-12)
(1.86557e-10 4.56616e-11 6.45206e-12)
(5.26696e-10 1.0859e-10 1.73442e-11)
(-7.40845e-12 -3.5658e-12 6.69484e-11)
(-4.41449e-12 -4.41196e-12 6.17183e-11)
(-5.80424e-12 -5.37829e-12 6.27267e-11)
(-5.48687e-12 -3.66385e-12 4.63635e-11)
(-5.09291e-12 -2.0174e-12 5.24214e-11)
(-5.59361e-12 -4.22083e-12 5.4184e-11)
(-2.58483e-12 -3.84915e-12 5.81619e-11)
(-4.01828e-12 -2.32199e-12 5.60071e-11)
(-4.48498e-12 -4.54982e-12 5.81863e-11)
(-6.32895e-13 -2.97673e-12 4.20088e-11)
(-1.27358e-12 -1.9786e-12 3.98079e-11)
(-1.07832e-12 -8.78685e-13 4.5367e-11)
(-1.96669e-12 -1.33155e-12 5.11612e-11)
(-1.0107e-12 -1.36357e-12 4.5851e-11)
(1.77905e-13 -2.82145e-12 4.89098e-11)
(-1.47221e-12 -1.8562e-12 5.20629e-11)
(-7.31574e-13 -2.14989e-12 4.68728e-11)
(-2.94721e-12 -6.47607e-13 4.42161e-11)
(-4.78489e-12 -7.98751e-13 5.26488e-11)
(-4.70256e-12 -5.14051e-13 5.30462e-11)
(-5.18707e-12 -5.09635e-13 5.61589e-11)
(-3.69388e-12 -1.05122e-12 5.5054e-11)
(-4.92448e-12 -6.7332e-13 5.62451e-11)
(-4.14074e-12 -1.05293e-12 5.60902e-11)
(-3.154e-12 -1.32345e-12 5.55582e-11)
(-4.5361e-12 -8.07935e-13 5.63098e-11)
(2.89228e-12 -1.19909e-13 1.90767e-11)
(-2.49893e-12 -1.08049e-14 2.10359e-12)
(-2.37332e-12 -9.50732e-15 2.08601e-12)
(2.81324e-12 -4.87431e-14 1.92035e-11)
(-2.49263e-12 -1.17164e-14 2.10007e-12)
(-2.48791e-12 -1.28675e-14 2.09662e-12)
(-1.56394e-12 -4.15787e-13 3.7885e-11)
(-1.50348e-12 -4.81063e-13 3.81529e-11)
(-1.12758e-12 -6.56855e-13 4.50852e-11)
(-2.49798e-12 -5.72026e-13 5.01178e-11)
(-1.20919e-12 -5.74881e-13 4.48259e-11)
(-1.38726e-12 -4.72079e-13 4.42478e-11)
(-2.63334e-12 -5.2739e-13 4.98693e-11)
(-1.30006e-12 -5.42461e-13 4.45362e-11)
(-5.87482e-12 -1.66027e-13 5.56409e-11)
(-4.89884e-12 -2.73249e-13 5.36469e-11)
(-5.85606e-12 -2.2467e-13 5.57132e-11)
(-2.05006e-12 -1.58711e-13 4.37773e-11)
(-4.93699e-12 -2.17725e-13 5.33751e-11)
(-4.95944e-12 -1.99766e-13 5.32925e-11)
(-4.84443e-12 -3.20288e-13 5.37871e-11)
(-5.76367e-12 -2.8961e-13 5.59422e-11)
(-5.81764e-12 -2.65895e-13 5.58196e-11)
(-5.36635e-12 -3.87876e-13 5.61426e-11)
(-4.39578e-12 -4.75223e-13 5.43889e-11)
(-5.48807e-12 -3.28771e-13 5.61152e-11)
(-2.12276e-12 -1.84938e-13 4.39428e-11)
(-4.90986e-12 -1.94042e-13 5.34333e-11)
(-4.88062e-12 -1.92454e-13 5.34354e-11)
(-4.55278e-12 -4.27287e-13 5.42403e-11)
(-5.70355e-12 -2.84605e-13 5.60394e-11)
(-5.61049e-12 -2.86691e-13 5.60909e-11)
(-5.8994e-12 -1.28808e-13 5.55809e-11)
(-5.00648e-12 -7.90361e-14 5.34227e-11)
(-5.92947e-12 -6.13796e-14 5.5539e-11)
(-2.09751e-12 8.76187e-15 4.36361e-11)
(-5.04104e-12 6.15301e-14 5.31534e-11)
(-5.0351e-12 9.10514e-15 5.3095e-11)
(-5.02842e-12 -6.91847e-15 5.3435e-11)
(-5.94272e-12 6.957e-14 5.56387e-11)
(-5.94523e-12 8.16221e-15 5.55588e-11)
(-1.87717e-12 4.30877e-14 3.69562e-11)
(-1.88343e-12 5.95487e-14 3.7069e-11)
(-3.13382e-12 -7.28627e-14 4.92801e-11)
(-1.72489e-12 -3.97222e-14 4.3708e-11)
(-1.76497e-12 6.90327e-14 4.33664e-11)
(-3.16556e-12 6.47008e-14 4.90799e-11)
(-1.76111e-12 6.49364e-14 4.35231e-11)
(-2.10516e-12 -9.96031e-15 4.38521e-11)
(-5.0483e-12 6.21716e-14 5.32623e-11)
(-5.05295e-12 3.43745e-14 5.33982e-11)
(-5.04069e-12 -8.15128e-14 5.39999e-11)
(-5.96521e-12 -8.83839e-14 5.61107e-11)
(-5.94739e-12 7.60616e-14 5.57625e-11)
(-5.05599e-12 4.94788e-14 5.37889e-11)
(-5.96331e-12 4.10968e-14 5.59056e-11)
(-2.81028e-11 -2.6384e-12 5.08113e-11)
(-3.68256e-12 -2.62918e-12 2.06564e-11)
(-3.63352e-11 -4.00584e-12 8.7341e-11)
(-1.80542e-12 -3.13673e-12 2.48745e-11)
(-3.30749e-11 -2.57192e-12 5.47086e-11)
(-3.11991e-11 -4.00912e-12 8.18447e-11)
(-1.59591e-12 -2.69659e-12 1.94145e-11)
(-1.52277e-11 -2.27936e-13 3.79461e-11)
(-1.85575e-11 -3.02782e-13 6.64102e-11)
(2.52099e-12 -1.69074e-13 1.93968e-11)
(3.43417e-12 -1.73445e-13 1.4491e-11)
(-1.87477e-11 -4.03837e-13 6.6781e-11)
(-1.50984e-11 -2.32211e-13 3.76123e-11)
(3.39533e-12 -1.16414e-13 1.45656e-11)
(-1.44191e-11 -4.58609e-14 3.6846e-11)
(3.70441e-12 2.92565e-14 1.41743e-11)
(-1.79719e-11 -5.72972e-14 6.57097e-11)
(2.83148e-12 -4.52863e-14 1.90341e-11)
(-1.44399e-11 -6.68696e-15 3.67106e-11)
(-1.80033e-11 2.35506e-17 6.58274e-11)
(3.72392e-12 -5.11071e-14 1.42021e-11)
(-4.26314e-11 -2.14447e-12 5.98495e-11)
(-5.77484e-12 -2.58589e-12 2.16315e-11)
(-3.96e-11 -3.13926e-12 8.95852e-11)
(-7.96119e-12 -1.80314e-12 2.84119e-11)
(-3.64501e-11 -2.38685e-12 5.64664e-11)
(-4.51523e-11 -2.80301e-12 9.28212e-11)
(-9.05107e-12 -2.36173e-12 2.27221e-11)
(3.59988e-13 4.0326e-11 1.31922e-10)
(7.60065e-13 1.78601e-11 4.67888e-11)
(1.45669e-11 6.15848e-11 1.29859e-10)
(6.56134e-12 1.59656e-11 4.66171e-11)
(1.39119e-11 3.51023e-11 1.33163e-10)
(2.30033e-12 3.7479e-11 1.3545e-10)
(1.63618e-12 1.49172e-11 4.51287e-11)
(-1.43819e-11 -1.68373e-14 3.68889e-11)
(3.72434e-12 -5.87663e-14 1.4173e-11)
(-1.79386e-11 -4.58355e-14 6.57011e-11)
(2.85998e-12 -2.02719e-14 1.90539e-11)
(-1.43928e-11 -4.89904e-14 3.6675e-11)
(-1.79971e-11 -1.06996e-13 6.59736e-11)
(3.76416e-12 1.55977e-14 1.42113e-11)
(-1.49053e-11 -1.96438e-13 3.75451e-11)
(-1.85079e-11 -2.88534e-13 6.64627e-11)
(3.47032e-12 -7.45482e-14 1.44586e-11)
(2.67719e-12 -1.57811e-13 1.92927e-11)
(-1.50381e-11 -1.70574e-13 3.75421e-11)
(-1.84225e-11 -2.12153e-13 6.64672e-11)
(3.55276e-12 -1.4891e-13 1.44484e-11)
(2.16293e-10 3.82324e-10 8.82156e-11)
(1.24475e-10 5.03797e-10 7.58738e-11)
(8.91901e-11 3.03505e-10 6.07378e-11)
(2.64245e-10 2.93739e-10 8.21518e-11)
(2.33608e-10 2.53737e-10 7.98313e-11)
(9.46707e-11 4.56618e-10 6.16548e-11)
(2.43313e-10 4.40684e-10 8.59356e-11)
(1.18654e-10 1.6175e-10 1.07536e-10)
(3.29596e-11 3.01069e-10 1.19707e-10)
(2.84875e-11 5.53447e-11 3.62642e-11)
(5.98527e-11 1.7584e-10 1.07598e-10)
(3.75613e-11 4.64997e-11 3.44829e-11)
(2.58708e-10 6.3783e-10 1.29052e-11)
(4.07072e-10 3.92334e-10 1.30081e-11)
(3.92836e-10 5.68847e-10 9.17053e-12)
(-4.91079e-10 5.35529e-12 -1.04006e-10)
(-5.59944e-10 -3.2765e-10 -2.517e-10)
(-1.86136e-11 -1.31797e-12 4.11779e-11)
(9.77767e-13 -1.25624e-12 2.03864e-11)
(-2.09193e-11 -1.50231e-12 6.73983e-11)
(2.11575e-12 -7.9692e-13 1.53666e-11)
(-1.7799e-11 -1.06679e-12 4.0288e-11)
(-2.18679e-11 -1.952e-12 6.82862e-11)
(1.782e-12 -9.83229e-13 1.56654e-11)
(-1.66202e-11 -7.2419e-13 3.92399e-11)
(1.86047e-12 -5.54598e-13 1.97576e-11)
(-2.04181e-11 -1.20119e-12 6.72822e-11)
(2.38768e-12 -5.44881e-13 1.51563e-11)
(-1.71847e-11 -8.47682e-13 3.96786e-11)
(-1.99123e-11 -9.31596e-13 6.70798e-11)
(2.67681e-12 -5.01148e-13 1.50076e-11)
(-1.44542e-11 2.27757e-14 3.68702e-11)
(2.8262e-12 3.89434e-14 1.90483e-11)
(-1.80343e-11 1.43384e-14 6.57595e-11)
(3.68525e-12 -3.02755e-14 1.41878e-11)
(-1.44973e-11 -2.19559e-14 3.67352e-11)
(-1.80457e-11 -3.42938e-14 6.58931e-11)
(3.71373e-12 5.04274e-14 1.42116e-11)
(-1.45067e-11 -4.48924e-14 3.69518e-11)
(2.82706e-12 -5.79659e-15 1.9089e-11)
(-1.80361e-11 -1.51164e-14 6.58084e-11)
(3.69108e-12 5.21605e-14 1.41966e-11)
(-1.44971e-11 7.70972e-15 3.67464e-11)
(-1.81146e-11 2.09148e-14 6.6055e-11)
(3.72005e-12 -3.25353e-14 1.42399e-11)
(2.72197e-10 1.62028e-10 8.25031e-11)
(2.43761e-10 1.31038e-10 8.73071e-11)
(-1.51095e-11 5.59894e-10 5.41455e-11)
(-4.78381e-11 5.17018e-10 2.50893e-11)
(2.94838e-10 5.06703e-10 7.23739e-11)
(1.27573e-10 5.59779e-10 6.54107e-11)
(1.51761e-10 4.04364e-10 7.36178e-11)
(2.75884e-10 3.31406e-10 8.23922e-11)
(2.68812e-10 4.7533e-10 8.19427e-11)
(1.57456e-10 5.79865e-10 6.82902e-11)
(3.0708e-10 3.48868e-10 7.49957e-11)
(3.82556e-10 5.71532e-10 6.00277e-11)
(2.26867e-10 4.50393e-10 5.01502e-11)
(2.22992e-10 6.61016e-10 5.08235e-11)
(3.88486e-10 4.06469e-10 5.577e-11)
(2.31965e-10 6.48758e-10 5.26372e-11)
(4.08369e-10 3.86068e-10 6.07533e-11)
(3.70997e-10 5.84221e-10 5.91701e-11)
(-1.99613e-11 6.22802e-10 4.6229e-11)
(8.79212e-12 6.44636e-10 5.83101e-11)
(6.3932e-11 7.30076e-10 4.29532e-11)
(6.39116e-11 7.19824e-10 4.48913e-11)
(2.78563e-10 2.02706e-10 8.62402e-11)
(3.1061e-10 2.1414e-10 8.64794e-11)
(3.95018e-10 2.51086e-10 4.25075e-11)