/*--------------------------------*- C++ -*----------------------------------*\
| =========                 |                                                 |
| \\      /  F ield         | OpenFOAM: The Open Source CFD Toolbox           |
|  \\    /   O peration     | Version:  2012                                  |
|   \\  /    A nd           | Website:  www.openfoam.com                      |
|    \\/     M anipulation  |                                                 |
\*---------------------------------------------------------------------------*/
FoamFile
{
    version     2.0;
    format      ascii;
    class       volSymmTensorField;
    location    "0.105/solid";
    object      epsilon;
}
// * * * * * * * * * * * * * * * * * * * * * * * * * * * * * * * * * * * * * //

dimensions      [0 0 0 0 0 0 0];


internalField   nonuniform List<symmTensor> 
3124
(
(-9.51909e-10 1.46488e-09 2.2123e-09 4.64154e-09 4.76167e-09 3.68715e-09)
(2.11189e-11 3.80971e-10 1.66064e-10 2.67185e-10 -2.16815e-10 -8.50788e-10)
(6.2075e-09 -1.58412e-09 -7.18812e-09 -1.39876e-09 2.98978e-09 -5.09099e-10)
(7.80708e-10 1.3795e-10 -1.86363e-09 -5.80659e-11 -4.18283e-10 1.06696e-08)
(5.67336e-10 -3.05722e-11 -6.49325e-10 7.38176e-12 -4.34104e-11 7.94366e-09)
(5.55428e-10 2.57569e-11 -5.99211e-10 2.88575e-12 8.44823e-12 7.80247e-09)
(4.04059e-10 5.06942e-10 3.94276e-10 3.23654e-10 -3.88441e-10 -1.36826e-09)
(4.39074e-10 2.97295e-11 3.98047e-10 -3.50663e-09 3.16434e-09 1.46959e-08)
(-3.99282e-09 5.79316e-09 2.46915e-10 2.85785e-08 1.57201e-09 -1.01885e-09)
(3.11585e-09 -6.64246e-10 -3.29692e-09 -9.38408e-10 2.76831e-09 3.99579e-09)
(8.69482e-10 1.51615e-10 -2.17444e-09 -4.93464e-11 -4.00731e-10 1.11142e-08)
(7.00926e-09 -1.74756e-10 -6.48977e-09 -4.75996e-10 1.97077e-09 -2.68669e-09)
(2.8431e-10 1.78426e-11 2.9281e-10 1.57604e-10 1.15015e-09 1.3147e-08)
(1.43548e-09 2.25445e-10 -2.28061e-09 -1.62757e-10 -5.4803e-11 1.21131e-08)
(3.21911e-09 -5.347e-11 -2.94687e-09 -6.75969e-10 1.52675e-09 4.65837e-09)
(-4.16055e-09 6.04469e-09 -6.90633e-11 2.94376e-08 7.82044e-10 -7.26614e-10)
(1.22742e-09 1.24616e-10 -1.99021e-09 -6.22452e-11 -1.853e-10 1.14976e-08)
(8.3132e-10 -7.09383e-12 -1.34802e-09 7.12799e-12 -1.47743e-11 9.3016e-09)
(5.56075e-10 -3.2817e-11 -5.97331e-10 3.28985e-12 -1.75167e-11 7.80554e-09)
(5.66083e-10 2.77812e-11 -6.40592e-10 5.03646e-12 -1.51408e-11 7.92723e-09)
(8.0052e-10 -4.76636e-12 -1.31991e-09 2.65345e-13 -5.68275e-12 9.20455e-09)
(8.25116e-10 -7.51769e-12 -1.3396e-09 3.89289e-12 -5.45176e-12 9.28849e-09)
(7.99916e-10 -4.94301e-12 -1.31979e-09 -7.18542e-14 1.07162e-12 9.19582e-09)
(-1.04163e-09 1.40733e-09 1.58444e-09 -4.03961e-10 -1.41624e-10 3.26457e-10)
(-9.96603e-09 -1.21966e-09 9.61309e-09 -7.15999e-09 -6.71916e-09 1.27224e-08)
(-2.24727e-09 3.64705e-09 6.5342e-09 -2.65674e-09 -3.83141e-09 2.2123e-09)
(2.10172e-09 8.78247e-10 1.68574e-09 8.78492e-09 2.36137e-09 8.23498e-10)
(1.77126e-10 2.23783e-09 3.04977e-09 3.60133e-09 3.07423e-09 2.24025e-09)
(-2.04152e-09 3.51205e-09 1.76333e-09 1.5587e-08 5.07032e-09 7.81416e-11)
(3.62539e-09 -3.96805e-09 2.79012e-09 2.06398e-08 7.47147e-09 -2.31045e-09)
(1.3404e-10 2.36313e-10 3.37046e-09 8.9336e-10 4.74396e-09 4.48166e-09)
(-1.81038e-09 6.87357e-09 3.3964e-09 1.06893e-08 3.59353e-09 7.28923e-10)
(4.6971e-10 1.3883e-11 5.19767e-11 -1.98944e-10 1.11059e-11 1.30434e-08)
(4.07547e-10 -4.59463e-11 4.62539e-11 -5.12434e-10 8.84001e-10 1.22628e-08)
(3.06679e-09 2.053e-09 2.6277e-10 8.74875e-09 -2.10723e-10 -8.75312e-10)
(-1.16923e-09 -1.16907e-09 -4.95945e-11 3.31227e-08 4.02094e-10 -7.36337e-10)
(4.4973e-10 4.66163e-11 4.97336e-11 -1.07092e-10 -1.43004e-10 1.25992e-08)
(3.64336e-10 2.38744e-12 2.4834e-10 8.47683e-12 -9.48191e-11 1.14044e-08)
(3.21074e-10 -2.5266e-12 2.76901e-11 4.94518e-12 -1.01651e-11 1.01512e-08)
(3.23782e-10 -3.59209e-12 4.13444e-11 3.32074e-12 -1.55195e-11 1.0272e-08)
(3.20384e-10 -1.51156e-12 2.46727e-11 4.32675e-12 -5.55065e-12 1.01275e-08)
(3.19596e-10 -1.53391e-12 1.84395e-11 3.11392e-12 5.55052e-13 1.01103e-08)
(-5.64571e-10 1.01819e-09 1.03314e-09 -4.26275e-10 -2.15232e-10 9.91093e-11)
(-5.93404e-10 -2.74696e-10 6.99928e-10 9.32504e-10 1.37332e-09 3.22492e-10)
(-2.71569e-09 2.08433e-09 4.59289e-09 3.94658e-10 -1.07683e-09 7.95475e-10)
(-9.33487e-09 3.26785e-09 1.2498e-08 -9.66615e-09 -4.59154e-09 1.6308e-08)
(-6.56531e-09 8.26571e-09 9.66713e-09 -4.35347e-09 -3.92358e-09 1.04539e-08)
(-3.18005e-10 -1.16974e-09 -8.10823e-11 1.48559e-09 2.28506e-09 1.44613e-10)
(6.80613e-08 -2.9784e-08 -4.43599e-08 2.15311e-08 -1.9581e-09 -5.97043e-08)
(-6.12776e-09 2.81083e-09 4.32042e-09 1.84548e-09 8.00371e-10 3.98666e-09)
(5.82575e-10 -2.62988e-11 -8.80701e-10 5.10356e-11 -1.55999e-10 8.24142e-09)
(5.75765e-10 3.39611e-11 -8.28551e-10 3.45492e-11 -1.02384e-10 8.16786e-09)
(5.5661e-10 -2.85223e-11 -6.07535e-10 2.13171e-12 -9.0581e-12 7.81487e-09)
(5.58359e-10 2.97871e-11 -6.08754e-10 2.07733e-12 1.6104e-11 7.82144e-09)
(5.70998e-10 1.08674e-09 1.3498e-09 1.29878e-09 6.35302e-10 5.86063e-10)
(2.07891e-10 -3.40542e-10 2.699e-10 6.43826e-10 1.46784e-09 -3.50354e-10)
(5.53939e-10 -8.83433e-11 3.38804e-09 5.21362e-10 2.68102e-09 3.09891e-09)
(-1.93339e-09 1.18281e-08 1.87438e-09 5.57475e-09 3.55879e-09 3.31254e-10)
(1.98918e-10 -2.21871e-11 4.04132e-10 -6.04082e-10 1.15764e-09 1.14378e-08)
(9.4748e-09 -2.33822e-09 8.24535e-10 1.32017e-08 1.26669e-08 -5.44801e-09)
(1.34358e-10 5.57864e-10 1.34994e-09 -3.13215e-10 5.83749e-09 5.03086e-09)
(4.18704e-09 -1.74043e-10 1.6235e-09 1.0108e-08 1.74835e-09 1.82807e-10)
(-3.14364e-09 4.94189e-09 1.13918e-09 2.5176e-08 2.9149e-09 -1.10601e-09)
(5.68585e-10 -2.74506e-09 1.62379e-10 3.06004e-08 -1.04936e-10 -1.27095e-09)
(-5.89155e-09 1.29794e-08 3.31767e-10 1.83535e-08 1.6946e-09 -3.96296e-10)
(3.01681e-09 -3.4809e-09 2.13618e-09 2.67887e-08 4.3598e-09 -2.9393e-09)
(3.63531e-09 1.34261e-09 -4.37018e-10 1.03377e-08 8.70728e-10 -9.81547e-10)
(-4.87751e-09 1.10906e-08 2.03587e-09 1.62279e-08 2.4166e-09 -7.4437e-10)
(1.14783e-08 -2.80057e-09 1.60931e-10 2.4601e-08 -3.45702e-10 -3.24847e-10)
(1.18497e-08 -3.80955e-09 2.70581e-09 2.31985e-08 9.18432e-10 -1.00049e-09)
(4.12067e-10 -7.79034e-10 -2.54147e-10 7.66098e-10 1.87362e-09 3.90401e-10)
(5.42503e-10 -2.30681e-10 5.17203e-11 -4.24697e-10 1.31407e-09 9.57856e-09)
(2.28482e-10 1.71926e-10 1.75593e-09 -1.76692e-11 3.52738e-09 4.72096e-09)
(-4.40523e-09 1.9609e-08 -2.53644e-11 8.45803e-09 2.17276e-09 -3.36433e-10)
(-3.20681e-09 1.48654e-08 9.63479e-10 7.02207e-09 3.01995e-09 -4.9521e-10)
(1.84435e-09 -1.783e-10 -5.07312e-09 -8.53686e-10 1.40285e-09 1.09521e-08)
(8.84174e-08 -1.67418e-08 -5.08797e-08 1.69681e-08 4.12674e-08 -5.60466e-08)
(2.04224e-09 -9.65129e-10 -4.38103e-09 -1.53284e-09 2.23506e-09 1.07722e-08)
(2.42086e-10 4.60782e-11 4.67381e-11 -1.74194e-11 1.18112e-09 1.08491e-08)
(2.59031e-10 4.93505e-11 5.77616e-11 -1.65947e-10 4.95507e-10 1.29222e-08)
(5.75072e-10 2.28581e-11 -3.37426e-10 -2.30315e-10 3.11383e-11 1.371e-08)
(2.2078e-09 -3.15529e-10 -2.55692e-09 -1.66515e-09 1.78118e-09 1.02877e-08)
(5.39682e-10 -7.16655e-11 -2.14959e-10 -4.51303e-10 9.15282e-10 1.22875e-08)
(5.65695e-10 -2.7076e-11 -3.21086e-10 -1.11109e-10 1.10956e-09 9.72357e-09)
(1.56834e-09 -8.74214e-10 -2.92968e-09 -8.91004e-10 9.41364e-10 1.56134e-08)
(4.49746e-10 1.99301e-12 -1.01944e-10 -3.63816e-11 5.9274e-10 1.19506e-08)
(3.6316e-09 1.70579e-09 2.66886e-10 9.22937e-09 -2.17912e-10 -8.30997e-10)
(-4.38858e-09 6.27687e-09 8.22379e-11 2.98192e-08 3.97072e-10 -4.89601e-10)
(3.80558e-10 -2.43234e-09 4.34589e-11 3.04223e-08 -1.689e-10 -8.14267e-10)
(-4.95647e-09 1.23874e-08 -2.60164e-10 1.96524e-08 1.02712e-09 -9.25747e-10)
(5.10692e-09 4.59708e-10 -1.70506e-10 1.12826e-08 5.21737e-10 -6.62838e-10)
(-7.79752e-10 -1.304e-09 1.3814e-10 3.24409e-08 8.57413e-10 -7.41673e-10)
(-4.72374e-09 1.25512e-08 2.84689e-10 1.95063e-08 1.68905e-10 -5.37104e-10)
(-3.91831e-09 1.86534e-08 2.82414e-11 9.86343e-09 6.34272e-11 -1.43115e-10)
(1.14696e-08 -1.89377e-09 -9.23755e-11 2.70166e-08 2.31982e-10 -3.59465e-10)
(1.14033e-08 -2.63645e-09 2.67951e-11 2.44879e-08 -3.03472e-10 -4.43957e-10)
(1.14906e-08 -1.96695e-09 5.74401e-11 2.64689e-08 5.57442e-10 -4.7037e-10)
(-3.9698e-09 1.85786e-08 -5.35254e-11 9.92622e-09 1.53057e-09 -5.12988e-10)
(-3.81936e-09 1.84386e-08 7.58033e-12 1.01718e-08 4.12706e-10 -2.25148e-10)
(5.26896e-10 6.29767e-11 -3.36389e-10 -1.47595e-10 -1.529e-10 1.33487e-08)
(8.9176e-10 2.28167e-13 -1.4639e-09 5.92022e-11 -6.64832e-11 9.43388e-09)
(4.53456e-10 1.59331e-11 -1.04321e-10 6.14708e-11 -8.57911e-11 1.13945e-08)
(3.19436e-10 -7.58554e-12 8.05543e-11 2.19855e-11 -3.6907e-11 1.0571e-08)
(3.32926e-10 -4.24302e-11 1.89589e-10 1.87532e-11 -1.07436e-10 1.1164e-08)
(8.71626e-10 2.28932e-12 -1.41131e-09 3.86765e-11 -3.10381e-11 9.35409e-09)
(3.90337e-10 -1.37272e-11 -2.10437e-10 1.7896e-11 -2.82343e-11 1.10431e-08)
(4.27164e-10 -2.77311e-11 -1.26251e-10 3.37826e-11 -5.05251e-11 1.13231e-08)
(5.59815e-10 2.59893e-11 -6.0005e-10 2.00607e-12 -7.86937e-13 7.84853e-09)
(5.61244e-10 -3.25353e-11 -6.01573e-10 2.72365e-12 -2.6196e-11 7.85759e-09)
(3.22498e-10 -5.33365e-12 7.19599e-11 1.21764e-11 -2.53215e-11 1.04999e-08)
(3.24284e-10 -4.95231e-12 4.76589e-11 4.16924e-12 -1.87461e-11 1.0323e-08)
(3.76242e-10 -3.3638e-12 -2.62896e-10 3.93073e-12 -6.55413e-12 1.07559e-08)
(8.07781e-10 -6.7413e-12 -1.3236e-09 -9.3017e-13 -2.4447e-12 9.24502e-09)
(3.8149e-10 -4.7829e-12 -2.51783e-10 1.94592e-12 -1.26731e-11 1.08498e-08)
(3.88992e-10 -9.82617e-12 -2.20992e-10 1.05498e-11 -1.81039e-11 1.09965e-08)
(8.10856e-10 -5.95029e-12 -1.32616e-09 -4.10147e-13 -7.74339e-12 9.25906e-09)
(3.83523e-10 -6.86851e-12 -2.4611e-10 2.45964e-12 -1.28207e-11 1.08851e-08)
(3.75244e-10 -1.9764e-12 -2.65153e-10 3.53879e-12 -5.39851e-12 1.07372e-08)
(8.0092e-10 -8.72335e-13 -1.32437e-09 -1.55885e-12 -8.82455e-13 9.20744e-09)
(3.74262e-10 -2.14036e-12 -2.70704e-10 1.88491e-12 3.54149e-12 1.07332e-08)
(3.20168e-10 6.14055e-14 1.77853e-11 -2.6627e-13 4.36877e-12 1.01277e-08)
(8.0279e-10 -1.79949e-12 -1.32764e-09 -4.02411e-12 4.69305e-12 9.22513e-09)
(3.74894e-10 -5.8546e-13 -2.71802e-10 -1.79433e-12 3.56131e-12 1.07548e-08)
(-5.13023e-09 -3.68908e-10 -1.43891e-10 -6.36123e-09 -7.70933e-11 7.88371e-09)
(-3.74157e-09 -1.23409e-09 5.47528e-09 -2.94159e-09 -7.37261e-10 5.14003e-09)
(2.14951e-10 1.08406e-11 4.90712e-10 -1.33666e-10 5.11759e-11 1.13272e-08)
(2.43488e-10 -2.583e-11 5.01677e-10 -2.12351e-10 1.99605e-10 1.13032e-08)
(2.08817e-10 3.82187e-11 5.06712e-10 -5.30495e-11 -9.65099e-11 1.09839e-08)
(1.97405e-10 4.65747e-11 5.42276e-10 -7.92601e-12 1.66108e-11 1.07049e-08)
(8.97743e-11 -2.87675e-14 3.18533e-10 3.15508e-12 -1.09895e-11 8.76582e-09)
(9.05111e-11 -7.1911e-13 3.21863e-10 3.02263e-12 -1.62771e-11 8.80938e-09)
(8.9226e-11 -1.25997e-12 3.14722e-10 2.65856e-12 -9.97235e-12 8.73493e-09)
(8.87511e-11 -5.96076e-13 3.09961e-10 2.39889e-12 -5.30389e-12 8.71332e-09)
(-1.44571e-09 1.17311e-09 3.78408e-10 5.50137e-10 2.83469e-11 5.34589e-10)
(-2.43665e-10 5.34383e-10 3.08579e-10 7.68935e-11 -6.92108e-11 -2.31087e-10)
(-1.24608e-10 2.50611e-10 4.8534e-10 4.08267e-10 4.56258e-10 -1.0298e-09)
(9.09685e-11 1.14315e-09 -1.17033e-10 6.3834e-10 -1.00102e-09 -1.84669e-09)
(-1.16816e-10 4.067e-10 -3.37425e-10 6.1105e-10 6.03604e-10 -1.16627e-09)
(-5.69884e-10 4.92728e-10 9.3215e-10 2.50562e-10 2.02918e-10 -1.20016e-10)
(-2.78609e-10 1.39608e-09 -1.52105e-10 -1.83886e-10 -8.22816e-11 -4.55779e-11)
(6.31071e-09 -1.62384e-08 -9.11048e-10 6.84014e-09 3.59481e-09 -7.04767e-09)
(1.2346e-08 -4.82078e-09 -2.69436e-09 -2.88749e-09 1.09041e-09 -1.06831e-09)
(3.61473e-09 -2.96468e-09 -5.34091e-09 -2.17426e-10 4.16741e-09 1.3639e-09)
(1.18459e-08 -4.53943e-09 -1.47203e-08 -3.07427e-09 3.29914e-09 -3.38316e-09)
(5.52434e-09 -6.35087e-09 -2.65051e-09 1.36486e-09 6.91514e-10 1.36065e-09)
(3.37975e-08 -1.09637e-08 -6.63207e-09 -1.08926e-08 -6.04838e-09 -1.15228e-08)
(5.60456e-09 -6.584e-09 -9.05021e-09 5.08454e-10 7.36815e-09 1.15258e-09)
(2.33523e-09 1.75671e-10 -2.72248e-09 -1.06583e-11 -3.45079e-11 3.00979e-09)
(6.82956e-10 -4.75369e-11 -1.22486e-09 7.81896e-11 -3.96674e-10 9.17098e-09)
(1.29651e-09 5.82487e-11 -1.67955e-09 4.3574e-12 -6.11041e-11 2.40898e-09)
(5.65895e-10 3.03701e-11 -6.887e-10 1.17978e-11 -3.88776e-11 8.01347e-09)
(7.66556e-10 -2.78823e-12 -9.60198e-10 1.12217e-12 -7.95177e-12 1.8527e-09)
(7.94075e-10 7.11279e-12 -9.96806e-10 2.59552e-12 -1.44772e-11 1.88441e-09)
(7.25184e-10 2.59456e-12 -9.0762e-10 2.00536e-13 -1.86078e-12 1.79354e-09)
(5.51376e-10 -2.86296e-11 -6.0066e-10 2.95281e-12 -1.33898e-11 7.81123e-09)
(7.18278e-10 -4.10332e-12 -8.99776e-10 2.94382e-13 -8.69141e-13 1.783e-09)
(5.57423e-10 2.76807e-11 -6.12259e-10 -2.86e-12 1.00271e-11 7.86796e-09)
(7.27791e-10 1.63815e-12 -9.14294e-10 -2.67441e-12 -4.38102e-12 1.79336e-09)
(2.27906e-10 1.31388e-09 2.02018e-09 -4.12816e-10 -1.77302e-10 -3.26476e-09)
(6.34114e-10 9.36775e-10 1.24895e-09 3.93926e-10 -8.84931e-11 -6.97038e-10)
(6.24917e-10 1.02805e-10 7.0869e-10 4.30899e-10 4.11408e-10 -2.25078e-09)
(2.60757e-10 1.23311e-09 -5.90008e-11 8.11519e-10 -1.21755e-09 -2.33513e-09)
(7.53841e-10 2.86641e-10 -4.35177e-10 5.21794e-10 5.42815e-10 -2.47952e-09)
(1.1859e-09 2.63531e-10 2.20134e-09 3.50505e-10 2.80392e-10 -1.62784e-09)
(2.50012e-09 3.51169e-09 2.23743e-09 1.58893e-09 2.35765e-10 -2.69923e-09)
(3.15909e-09 4.75858e-09 -8.85204e-10 -4.7825e-09 1.49069e-09 1.99111e-08)
(9.17415e-11 4.37221e-10 3.77772e-10 -2.17065e-09 2.5613e-09 1.42222e-08)
(6.6761e-10 -3.01545e-10 4.4547e-10 -2.63341e-09 -3.84798e-10 1.60868e-08)
(5.91135e-10 9.29001e-10 1.4471e-09 -3.56535e-09 6.71534e-09 1.40727e-08)
(2.37139e-09 -1.55796e-09 6.69798e-10 -1.39721e-10 9.21007e-10 2.48181e-09)
(9.50277e-09 -2.42515e-09 9.23624e-10 -2.19394e-09 1.20182e-09 4.32633e-09)
(2.56602e-09 -1.40704e-09 -2.8202e-09 -3.6101e-11 3.08757e-09 1.852e-09)
(1.71105e-09 -5.19886e-10 -1.9267e-09 -6.44524e-10 2.36474e-09 6.71786e-09)
(4.70028e-09 -4.62053e-09 -2.15244e-09 7.55289e-10 1.39588e-09 -9.0449e-10)
(3.96625e-09 -7.61945e-10 -9.56741e-10 -6.96179e-10 2.02219e-09 6.60149e-09)
(1.54765e-09 -8.38088e-10 -1.00643e-09 1.42942e-11 2.51347e-09 3.67121e-09)
(2.84064e-09 2.30691e-10 -3.23352e-09 -1.92126e-11 -1.61892e-11 3.23985e-09)
(1.20851e-09 4.29893e-10 -3.44262e-09 -2.20323e-10 -1.08539e-12 1.1741e-08)
(5.57963e-09 4.36635e-10 -5.73637e-09 -7.92475e-11 1.03037e-10 4.35855e-09)
(9.21862e-09 4.85701e-09 2.93738e-09 1.02775e-08 7.66009e-09 -1.04564e-08)
(1.34205e-08 -1.83603e-09 -1.1208e-10 -2.47807e-09 -9.48185e-11 -1.72543e-09)
(1.37508e-08 -2.50186e-10 -1.31914e-08 -6.27767e-10 2.21273e-09 -1.27887e-08)
(5.1618e-09 1.49587e-10 -5.24075e-09 5.80807e-10 3.51937e-09 -7.70532e-10)
(3.35788e-08 -2.39983e-09 9.66632e-10 -1.27376e-08 -3.65895e-09 -2.34647e-08)
(8.21355e-09 1.11779e-09 -6.8507e-10 1.57065e-09 2.81662e-09 -3.06021e-09)
(9.37558e-09 2.25871e-09 -8.70776e-09 1.62947e-09 5.99004e-09 -9.88529e-09)
(8.03974e-10 1.39026e-10 -1.21392e-09 -2.48808e-10 3.36484e-11 1.37842e-08)
(1.69404e-09 2.90495e-10 -2.4927e-09 -3.11279e-10 1.50645e-10 1.21149e-08)
(9.88051e-10 1.08383e-10 -1.31465e-09 -3.48465e-10 2.56363e-10 1.34921e-08)
(3.62787e-09 3.97202e-10 -6.6599e-10 -3.51449e-10 2.81602e-10 7.06573e-09)
(1.01109e-08 -1.3373e-09 6.07938e-10 -1.92325e-09 -7.03726e-10 2.22724e-09)
(1.49773e-09 -6.33331e-11 -2.00493e-09 -5.63566e-10 1.24103e-09 8.42257e-09)
(2.55621e-09 4.02796e-12 -2.63383e-09 2.7384e-10 1.58289e-09 4.76411e-09)
(4.09258e-09 -2.69327e-10 -9.92647e-10 -6.27e-10 3.74541e-10 8.42567e-09)
(7.05388e-09 9.04819e-10 -1.07638e-10 2.43712e-10 1.07223e-09 2.00484e-10)
(1.13487e-09 -2.27772e-11 -1.63667e-09 9.38391e-12 1.05942e-09 8.3564e-09)
(6.38984e-10 1.28214e-10 -1.05319e-09 -1.49272e-10 -1.89456e-10 1.34467e-08)
(1.0614e-09 4.20164e-11 -1.73056e-09 1.16365e-11 -2.0527e-10 1.05424e-08)
(5.23342e-10 8.6141e-11 -8.92115e-10 -6.00527e-12 -2.90976e-10 1.24699e-08)
(9.84945e-11 6.13746e-12 3.55134e-10 1.97214e-11 -2.74203e-11 9.22775e-09)
(1.011e-10 3.49573e-12 3.49223e-10 3.88031e-11 -4.7486e-11 9.29405e-09)
(8.40296e-10 -7.08601e-12 -1.36126e-09 1.34619e-11 -1.55103e-11 9.32162e-09)
(3.16008e-10 -8.83067e-12 -7.18755e-10 7.95808e-12 -8.29282e-12 1.12807e-08)
(3.32523e-10 -9.92455e-12 -7.19018e-10 1.25395e-11 -1.50278e-11 1.12744e-08)
(7.21345e-10 -5.92806e-12 -9.03566e-10 1.15809e-13 -1.05642e-12 1.79119e-09)
(5.52115e-10 2.51136e-11 -5.92192e-10 3.29801e-12 3.18905e-12 7.82785e-09)
(7.0668e-10 2.82861e-12 -8.87109e-10 3.7157e-13 -3.05555e-12 1.78069e-09)
(7.66696e-10 4.51641e-12 -9.5475e-10 8.88857e-13 -7.87176e-12 1.84666e-09)
(5.59956e-10 -2.86917e-11 -6.14616e-10 4.59985e-12 -3.23939e-11 7.89998e-09)
(7.29498e-10 -1.6469e-12 -9.1104e-10 6.61317e-13 -5.58368e-12 1.80731e-09)
(9.6165e-11 3.1254e-12 3.5666e-10 7.93968e-12 -2.54603e-11 9.18084e-09)
(9.44763e-11 1.94808e-12 3.52018e-10 3.06079e-12 -2.34158e-11 9.12053e-09)
(2.75977e-10 -3.81495e-12 -7.23821e-10 4.79369e-13 -3.05709e-12 1.12109e-08)
(8.00553e-10 -6.45147e-12 -1.32157e-09 1.00021e-12 -1.83683e-12 9.21835e-09)
(2.76771e-10 -4.59182e-12 -7.22405e-10 7.23162e-13 -6.59708e-12 1.12264e-08)
(3.04757e-10 -7.93051e-12 -7.1881e-10 4.07794e-12 -5.72925e-12 1.12882e-08)
(8.17926e-10 -5.26533e-12 -1.33468e-09 2.51642e-12 -8.15328e-12 9.28049e-09)
(2.96494e-10 -6.71817e-12 -7.18857e-10 1.75332e-12 -4.62403e-12 1.12879e-08)
(2.75456e-10 -3.67568e-12 -7.24696e-10 5.84452e-13 -3.99451e-12 1.11984e-08)
(7.98252e-10 -2.2081e-12 -1.32186e-09 6.78877e-13 -2.02808e-12 9.19591e-09)
(2.74973e-10 -2.91039e-12 -7.25336e-10 1.22378e-12 3.60911e-13 1.11917e-08)
(8.77981e-11 4.10033e-12 3.07517e-10 -7.99688e-12 -4.20653e-12 8.74795e-09)
(8.07137e-10 -5.8123e-12 -1.3381e-09 -1.70845e-11 -5.42986e-12 9.27983e-09)
(2.80439e-10 -2.41515e-12 -7.36251e-10 -2.00873e-11 -9.20545e-12 1.12982e-08)
(-5.03472e-09 -2.75506e-10 2.43215e-10 -4.45312e-09 -5.35315e-10 3.90875e-09)
(-5.73829e-09 -2.2977e-09 1.50254e-09 -1.23319e-09 1.64709e-09 1.55356e-09)
(-1.67818e-09 6.45597e-10 3.18108e-09 -9.88349e-10 -7.15101e-10 7.44524e-10)
(-2.36525e-09 2.53061e-09 9.37647e-10 -9.91501e-10 -6.75686e-11 8.90773e-10)
(-3.33946e-09 2.00327e-09 8.65599e-10 -2.22649e-09 -3.4226e-11 2.35711e-09)
(-2.82448e-09 -5.93656e-10 3.39223e-09 -2.62015e-09 -3.99089e-10 3.00619e-09)
(-6.00279e-09 2.56554e-10 -9.36482e-10 -3.70311e-09 8.65318e-10 2.69239e-09)
(-4.89518e-09 -4.43821e-11 1.25563e-10 -7.56989e-09 -7.08847e-10 7.10745e-09)
(-7.30992e-09 3.90179e-10 2.57499e-10 -7.78156e-09 -3.46028e-10 5.81324e-09)
(-2.84321e-09 4.26425e-10 7.91353e-09 -6.28183e-09 -5.58561e-09 6.66776e-09)
(-2.99981e-09 1.80693e-09 1.51172e-09 -1.55274e-08 -1.20132e-09 8.64557e-09)
(-2.92698e-09 -1.23401e-09 6.76072e-09 -2.93036e-09 -1.73476e-09 4.73603e-09)
(-4.21658e-09 5.0542e-10 5.10783e-10 -7.48203e-09 -6.96545e-10 5.99733e-09)
(-4.00419e-09 7.51354e-09 2.72768e-09 -6.95616e-09 -2.32832e-09 4.87733e-09)
(-1.48171e-09 1.28534e-09 4.54733e-09 -1.93425e-09 -2.05656e-09 1.21488e-09)
(-1.25948e-09 2.62782e-09 7.34966e-09 -5.73936e-09 -5.78513e-09 4.08409e-09)
(-3.38631e-09 2.66708e-09 9.50051e-10 -3.07089e-09 -2.66309e-10 3.24384e-09)
(-1.58508e-09 4.17214e-09 1.75182e-09 -1.65873e-08 -8.49694e-10 8.82591e-09)
(-1.74691e-09 4.17211e-10 5.14632e-09 -3.52615e-09 -2.59529e-09 3.04671e-09)
(-3.16728e-09 1.6958e-09 4.9287e-09 1.41436e-08 8.56247e-09 1.27611e-09)
(1.05056e-09 -1.16031e-09 4.31052e-09 2.12085e-08 5.02794e-09 -1.09399e-09)
(8.79389e-10 5.00176e-11 8.25816e-10 7.13977e-09 6.67497e-09 2.80489e-10)
(-4.66201e-09 6.30535e-09 3.4403e-09 1.17426e-08 5.01222e-09 9.80937e-11)
(-1.42899e-09 2.94061e-09 6.21816e-09 1.01194e-08 5.65939e-09 2.05778e-09)
(1.3606e-10 -5.36209e-10 3.60378e-09 1.24952e-08 1.13069e-08 -8.03193e-10)
(-4.94995e-09 3.01091e-09 4.13248e-09 1.81898e-08 6.63999e-09 -1.06536e-09)
(-1.5111e-09 8.87387e-10 4.15984e-09 7.19792e-09 7.06789e-09 4.37302e-09)
(8.73636e-10 8.81035e-10 -3.94653e-10 2.45036e-09 6.62635e-09 1.03823e-09)
(3.32226e-10 7.44423e-10 4.48861e-09 1.25456e-09 4.20573e-09 4.50454e-09)
(1.91663e-11 7.14602e-11 3.55921e-09 8.92806e-10 6.43545e-09 6.45e-09)
(1.19591e-09 1.21606e-09 5.39434e-09 5.00371e-09 4.65714e-09 3.03095e-09)
(1.93414e-10 -2.94234e-10 2.74947e-09 3.13937e-09 1.00686e-08 5.3331e-09)
(-4.84978e-10 4.9114e-10 4.27841e-09 1.66575e-09 5.82435e-09 6.82043e-09)
(3.50705e-10 -1.57721e-10 5.04541e-10 -6.95193e-10 1.12995e-09 1.14184e-08)
(2.78726e-10 -6.4133e-11 5.31941e-10 -2.50698e-10 3.57794e-10 1.12618e-08)
(3.34467e-10 1.02945e-11 4.08133e-10 -1.6918e-10 2.37499e-11 1.23434e-08)
(4.73105e-10 -1.30514e-11 4.64769e-11 -2.60432e-10 1.89488e-10 1.30645e-08)
(3.43234e-10 -2.08997e-11 3.95716e-10 -2.3062e-10 1.97657e-10 1.23478e-08)
(3.18537e-10 -3.9353e-11 3.52501e-10 -5.9658e-10 9.41697e-10 1.20014e-08)
(4.62077e-10 -4.80529e-11 4.11944e-11 -2.82581e-10 3.81978e-10 1.27903e-08)
(3.44766e-10 -4.5682e-11 3.93014e-10 -2.67959e-10 3.68666e-10 1.21638e-08)
(8.21391e-10 2.60488e-09 3.04168e-10 2.36688e-08 1.05001e-10 -5.54717e-10)
(-5.56849e-09 9.03358e-09 6.88063e-10 1.55702e-08 -3.81125e-11 -4.44828e-10)
(-7.32211e-09 7.63643e-09 7.57776e-10 2.53287e-08 2.84842e-10 -4.48111e-10)
(3.31741e-10 3.31787e-11 3.97697e-10 -7.27409e-11 -1.36268e-10 1.18915e-08)
(4.18169e-10 9.30859e-11 9.90646e-11 -1.05466e-11 -1.32005e-10 1.20129e-08)
(3.15099e-10 7.02802e-11 4.16194e-10 3.11892e-12 -4.54376e-11 1.14461e-08)
(1.16528e-10 -3.62814e-11 5.06507e-10 -5.78215e-11 -1.76439e-10 1.0756e-08)
(1.55002e-10 1.43319e-11 5.70745e-10 -6.03348e-11 1.4046e-11 1.09711e-08)
(3.93096e-10 7.96904e-11 2.05885e-10 1.05403e-11 -1.05169e-10 1.16411e-08)
(2.36835e-10 -2.09496e-11 5.01899e-10 -3.93716e-11 -1.27093e-10 1.13528e-08)
(2.79456e-10 5.26179e-11 4.98637e-10 -3.16881e-11 -1.55385e-11 1.14782e-08)
(9.16368e-11 -4.9808e-13 3.34539e-10 2.10085e-12 -1.9751e-11 8.91538e-09)
(9.11097e-11 -3.79125e-14 3.27376e-10 2.13419e-12 -1.62939e-11 8.85952e-09)
(2.24541e-10 -1.17577e-12 2.85699e-10 4.59941e-12 -1.19121e-11 9.55853e-09)
(3.21339e-10 -2.97075e-12 3.19104e-11 3.67582e-12 -1.36303e-11 1.01907e-08)
(2.24558e-10 -1.54413e-12 2.89182e-10 3.56469e-12 -1.56016e-11 9.60303e-09)
(2.26002e-10 -1.9153e-12 3.00572e-10 3.27341e-12 -1.80882e-11 9.69862e-09)
(3.22368e-10 -2.74287e-12 3.63832e-11 2.60558e-12 -1.31321e-11 1.02315e-08)
(2.25167e-10 -1.4833e-12 2.9425e-10 2.6073e-12 -1.55065e-11 9.6499e-09)
(2.2411e-10 -1.33159e-12 2.82141e-10 3.94511e-12 -7.30732e-12 9.53032e-09)
(3.19214e-10 -1.37221e-12 2.26395e-11 3.47782e-12 -2.68154e-12 1.01182e-08)
(2.23181e-10 -1.15828e-12 2.7851e-10 3.07118e-12 -4.19703e-12 9.51647e-09)
(8.79529e-11 -1.70147e-14 3.06254e-10 2.29847e-12 -1.43956e-13 8.69013e-09)
(8.83177e-11 -1.30569e-12 3.06868e-10 2.79902e-12 -5.73236e-12 8.69773e-09)
(3.18864e-10 -2.02735e-12 2.04704e-11 3.48781e-12 -2.03461e-12 1.01122e-08)
(2.23284e-10 -6.74229e-13 2.75064e-10 3.25392e-12 -7.17668e-13 9.49938e-09)
(2.22826e-10 -1.41192e-12 2.75942e-10 3.28703e-12 -3.86424e-12 9.50567e-09)
(-1.87831e-09 1.52354e-09 4.85438e-10 2.77736e-10 -6.27665e-11 8.18676e-10)
(-3.72679e-10 7.84924e-10 6.31372e-10 -2.02078e-10 -1.00192e-10 4.9399e-11)
(-1.06857e-09 9.02216e-10 2.29126e-09 -4.67537e-10 -5.4522e-10 3.59114e-10)
(-1.31717e-09 1.93226e-09 6.77693e-10 -9.68131e-10 -1.08536e-10 5.14898e-10)
(-2.97394e-09 2.27948e-09 8.53978e-10 -1.4521e-09 -7.06692e-11 1.94888e-09)
(-8.02751e-10 7.243e-10 1.55508e-09 -3.52663e-11 -1.74131e-10 1.93591e-10)
(-3.95548e-10 1.60478e-09 7.49884e-11 -5.10732e-10 4.50741e-11 4.67867e-10)
(-1.95693e-09 1.10987e-09 5.49322e-10 1.02775e-09 -4.40765e-11 4.9149e-10)
(-4.21118e-10 1.16942e-10 7.32994e-10 5.53629e-10 8.78469e-10 -1.97362e-10)
(-7.11673e-10 -1.43639e-09 1.09105e-10 2.25623e-09 2.89733e-10 4.23394e-10)
(-1.1915e-09 -3.4488e-12 1.59458e-09 1.30389e-09 1.1233e-09 -8.16098e-11)
(-4.15784e-09 -3.6286e-11 8.97494e-10 3.85787e-09 7.37977e-11 -2.3299e-10)
(-3.08695e-10 7.38463e-11 -2.27713e-10 9.4864e-10 5.62183e-10 -4.149e-10)
(-8.90055e-10 4.27328e-10 1.47028e-09 5.54535e-10 4.66245e-10 1.54201e-10)
(-2.46011e-09 1.62573e-09 4.9334e-10 7.18535e-10 -1.04505e-10 7.93128e-10)
(-7.0578e-09 7.67725e-09 1.49687e-09 -1.96866e-09 -7.99606e-10 3.5171e-09)
(-1.63546e-09 1.41114e-09 3.49966e-09 -5.70011e-10 -1.16577e-09 6.15377e-10)
(-2.03052e-09 7.33875e-10 2.7151e-09 1.33841e-09 4.4353e-10 -1.00764e-10)
(-3.26327e-09 2.92582e-09 8.96398e-10 -1.77923e-09 -1.731e-10 2.5795e-09)
(-5.63051e-09 1.43888e-09 5.77229e-10 3.88698e-09 -2.54419e-11 1.36202e-10)
(-1.2894e-09 8.35728e-10 2.29473e-09 2.91311e-10 -1.75264e-10 2.48704e-10)
(-1.03138e-08 8.07434e-10 9.11516e-10 -7.608e-09 3.58277e-10 6.51385e-09)
(-1.27941e-09 2.88472e-09 1.53691e-08 -7.15652e-09 -1.31624e-08 7.60678e-09)
(-3.79153e-09 2.9929e-09 1.4743e-09 -1.93579e-08 -4.49303e-10 9.57452e-09)
(-1.16124e-08 -1.98748e-09 -5.57311e-09 1.7148e-09 -9.47579e-09 2.68337e-08)
(-4.7971e-08 2.00804e-09 -6.5618e-09 3.5892e-08 1.33111e-08 4.89324e-08)
(-9.39732e-09 1.51326e-08 2.41564e-09 -5.54767e-09 1.7498e-09 8.49938e-09)
(-2.93368e-09 8.09233e-09 1.43564e-08 -1.18995e-08 -9.92135e-09 1.29068e-08)
(-2.13324e-08 1.52255e-08 7.15768e-09 -8.1623e-09 -4.94621e-09 3.31106e-08)
(-3.01799e-09 1.3097e-08 5.45839e-09 -2.27173e-08 -4.06286e-10 1.33149e-08)
(-4.00199e-08 2.23332e-08 -6.06438e-09 1.75445e-08 4.92606e-09 3.75794e-08)
(-2.99612e-11 -1.13111e-08 3.04325e-10 7.57756e-09 2.30491e-09 -4.92877e-09)
(9.27506e-10 -2.51583e-09 -2.26892e-09 1.384e-09 4.03289e-09 7.47897e-10)
(-4.6395e-10 -2.30746e-09 2.85935e-11 2.69875e-09 3.50633e-10 8.68099e-11)
(-9.89711e-10 -1.3456e-09 6.0278e-10 2.56725e-09 2.71109e-09 -9.75618e-10)
(-4.80733e-09 -1.57666e-09 1.01229e-09 5.49461e-09 3.41123e-11 -8.43734e-10)
(3.20879e-09 -5.63794e-09 -2.10988e-09 2.10802e-09 2.25825e-09 3.37188e-10)
(6.12201e-10 -3.81025e-09 -2.43178e-09 2.97847e-09 5.7263e-09 -7.52756e-10)
(5.06577e-09 -2.17575e-08 -3.87761e-09 1.04081e-08 5.76422e-09 -6.15371e-09)
(2.02473e-08 -1.18715e-08 -2.68683e-08 -1.78595e-09 5.04821e-09 -6.77878e-09)
(1.37051e-07 -9.94504e-08 3.9046e-08 -2.06892e-08 -3.7502e-08 -1.76711e-07)
(4.45446e-09 -1.66214e-08 -2.21043e-08 3.91222e-09 3.01829e-09 9.33258e-09)
(-2.93481e-08 -2.48084e-08 -1.46674e-08 4.04853e-08 1.01469e-08 1.09622e-08)
(4.88956e-08 -1.95096e-08 -1.19014e-08 -1.31978e-08 -5.19771e-09 -9.79433e-09)
(6.40813e-09 -1.09052e-08 -1.53683e-08 2.44955e-09 1.13704e-08 3.89941e-09)
(-7.36016e-09 -8.5807e-09 -1.72108e-09 1.20515e-08 2.91158e-09 -1.30172e-09)
(-1.02698e-08 1.06764e-08 1.16308e-09 -1.37975e-10 1.11929e-09 4.91195e-09)
(-2.80875e-09 -4.31918e-10 1.56835e-09 3.11344e-09 2.39193e-09 -5.72011e-10)
(-1.02295e-08 -5.3003e-10 -1.4718e-09 6.80403e-09 5.76454e-09 1.20609e-08)
(-7.09894e-09 1.99476e-10 4.25211e-10 6.1639e-09 -6.83653e-11 -5.10872e-10)
(-3.17264e-08 7.30161e-10 -9.14199e-09 2.60325e-08 2.36529e-09 1.42407e-08)
(-1.59514e-09 -4.29401e-09 -3.3648e-09 5.51858e-09 7.09574e-09 2.19132e-10)
(6.06044e-10 -3.30686e-12 -1.10965e-09 6.01634e-11 -3.0776e-10 8.81863e-09)
(9.3433e-10 1.03709e-11 -1.2174e-09 9.58729e-12 -3.67239e-11 2.07469e-09)
(1.20799e-09 3.77117e-11 -1.53055e-09 8.4859e-12 -5.60692e-11 2.30435e-09)
(5.69268e-10 -2.32235e-11 -7.11553e-10 1.61093e-11 -7.31915e-11 8.04289e-09)
(9.05284e-10 1.37843e-11 -1.16122e-09 7.04005e-12 -3.11833e-11 2.02741e-09)
(8.06069e-10 3.31879e-12 -1.02112e-09 3.4971e-12 -1.71615e-11 1.90808e-09)
(5.51603e-10 2.72591e-11 -6.01576e-10 2.93971e-12 1.29303e-11 7.8129e-09)
(7.3628e-10 -4.84826e-12 -9.20117e-10 -1.3984e-13 3.12225e-13 1.79937e-09)
(7.18644e-10 2.72081e-12 -9.00674e-10 1.86422e-13 -4.93151e-13 1.78307e-09)
(5.55331e-10 -2.72818e-11 -6.10639e-10 -2.34294e-12 -1.24126e-11 7.85805e-09)
(7.37203e-10 3.67741e-12 -9.21619e-10 -3.47063e-13 -8.14215e-13 1.80048e-09)
(7.27563e-10 -4.09616e-12 -9.13094e-10 -1.44032e-12 -2.42924e-12 1.7925e-09)
(-5.29698e-09 6.16143e-09 1.13981e-09 7.51685e-09 3.48779e-09 -4.74851e-10)
(7.91577e-10 4.1695e-09 7.35453e-09 1.71049e-09 3.75955e-09 4.13306e-09)
(1.01735e-08 1.78429e-09 1.42259e-08 -2.38625e-09 -5.40195e-10 3.88046e-09)
(1.90132e-10 1.24968e-09 1.35303e-09 8.24293e-10 4.76559e-10 6.7862e-10)
(3.42594e-10 1.25505e-09 2.8555e-09 7.11425e-10 1.90519e-09 1.82902e-09)
(1.17765e-09 2.49584e-09 2.08679e-09 3.35152e-09 1.38873e-09 1.05029e-09)
(-8.088e-09 4.89611e-09 2.77504e-09 1.76624e-09 3.70094e-09 4.37138e-09)
(4.40123e-10 8.70316e-10 3.00655e-09 4.76353e-10 7.33965e-10 1.44701e-09)
(1.70121e-09 5.70236e-09 4.47579e-09 2.87147e-09 2.79595e-09 9.82543e-10)
(1.58126e-09 2.08223e-11 1.28402e-09 -3.5537e-10 -6.41883e-10 -4.24985e-09)
(4.3587e-10 -1.47989e-10 5.45513e-10 5.15513e-10 9.68077e-10 -1.58101e-09)
(-4.15256e-11 -1.44644e-09 -2.84966e-10 1.76335e-09 4.26733e-10 1.10993e-10)
(9.01124e-10 -3.78829e-10 8.71021e-10 5.69194e-10 1.5532e-09 -1.2597e-09)
(5.55272e-10 -8.0932e-11 -5.54268e-10 7.71786e-10 6.08162e-10 -1.69617e-09)
(1.07741e-09 -1.26376e-09 -1.38936e-10 8.15257e-10 1.07349e-09 -1.82501e-09)
(1.24383e-09 -2.0616e-10 1.69886e-09 4.36053e-10 7.60866e-10 -2.22948e-09)
(7.95093e-09 -2.86556e-09 1.0928e-08 -1.53036e-10 -3.49524e-09 7.21606e-10)
(2.61296e-09 3.32456e-10 1.3666e-09 -1.53988e-09 3.79455e-09 2.72401e-09)
(5.20033e-10 7.75343e-10 4.11722e-09 2.9612e-10 2.41454e-09 3.17286e-09)
(1.17642e-09 -3.08359e-10 2.56893e-09 4.82273e-10 1.75642e-09 2.15332e-10)
(3.59146e-09 2.75445e-09 6.55152e-09 1.67883e-09 4.03429e-09 2.56314e-09)
(1.13187e-09 -1.25171e-09 4.98448e-10 5.88852e-10 1.04649e-09 -2.04366e-09)
(1.23739e-09 3.10466e-10 3.5843e-09 2.66114e-10 1.09252e-09 5.91368e-10)
(3.11767e-09 3.16202e-09 5.17114e-09 4.82854e-09 2.24262e-09 6.67645e-10)
(-1.11402e-09 6.08595e-09 2.65883e-09 4.73934e-09 2.21641e-09 1.39637e-09)
(-1.60111e-08 7.70783e-09 2.5388e-09 3.56965e-09 3.09172e-09 2.49288e-09)
(1.20159e-08 -3.71335e-09 2.65127e-09 1.98047e-08 9.16956e-10 1.00269e-09)
(6.1483e-09 -3.84832e-09 -4.08193e-10 1.7424e-08 1.13193e-08 -8.51011e-10)
(-2.27744e-09 4.23717e-09 -7.42271e-09 -8.79388e-09 1.07781e-08 2.09946e-08)